21
gdb 58686	2.15966	1.20419	1.00555	3.9506	79.87	-0.2711	0.0032	0.2743	1319.7772	0.179483	-424.23793	-424.227783	-424.226839	-424.273112	37.047	
C	-0.28002708	 1.4121172897	 0.1511735096	-0.396996
C	 0.1296109932	-0.0591769388	-0.0078719061	-0.017469
C	 1.0923270874	-0.2572330367	-1.1876024752	-0.396992
C	 0.7130094641	-0.6139597855	 1.2820189856	 0.465548
C	-0.2041609287	-1.084957081	 2.3736455949	-0.334778
C	 0.6172740781	-2.0839646489	 1.5727941797	-0.334613
O	 1.9017639065	 0.120741524	 1.5834295431	-0.24209
C	 2.6564572108	-0.1224382947	 2.6652778386	 0.148552
O	 3.6484378118	 0.5040524561	 2.9003887513	-0.277749
H	 0.5915512397	 2.0361745378	 0.3676226565	 0.138605
H	-0.7436474687	 1.7828913421	-0.768000621	 0.112008
H	-0.9978560388	 1.53946365	 0.9678357188	 0.111695
H	-0.7763155963	-0.6488444325	-0.2012819681	 0.074421
H	 2.0213404487	 0.2970232363	-1.0273832635	 0.138626
H	 1.3477077503	-1.3134860535	-1.3200381057	 0.111706
H	 0.6390503753	 0.1006098897	-2.1170046856	 0.111996
H	 0.0764948035	-0.9112727553	 3.406523572	 0.126485
H	-1.2723523517	-1.0268152682	 2.1929176798	 0.126089
H	 0.1106340665	-2.7090794561	 0.8450540817	 0.126085
H	 1.4450593712	-2.5745269321	 2.0727457476	 0.126453
H	 2.2857497372	-0.9387315326	 3.307560936	 0.082416
72.1228	92.7331	129.7955	150.7431	215.1599	228.3155	240.4383	265.9077	304.9074	378.6955	418.1991	514.0375	539.0277	542.8429	744.7268	781.0102	864.3937	900.8495	934.7528	936.4109	955.7246	985.4777	986.8719	1038.5751	1047.051	1076.6168	1083.7634	1142.8998	1183.4518	1188.7992	1203.1351	1267.6633	1298.3599	1340.9086	1399.3579	1400.9448	1420.7299	1442.8155	1465.8885	1486.038	1495.163	1500.4264	1503.2543	1517.1402	1850.3709	2993.9488	3018.5467	3037.1612	3040.7545	3104.2221	3106.7785	3117.7315	3122.1345	3134.0609	3135.4648	3212.508	3224.1951
CC(C)C1(CC1)OC=O	CC(C)C1(CC1)OC=O	
InChI=1S/C7H12O2/c1-6(2)7(3-4-7)9-5-8/h5-6H,3-4H2,1-2H3	InChI=1S/C7H12O2/c1-6(2)7(3-4-7)9-5-8/h5-6H,3-4H2,1-2H3
