21
gdb 110862	2.21788	1.27828	1.09494	1.1218	79.2	-0.2214	0.0645	0.2858	1266.9179	0.180487	-424.183475	-424.173873	-424.172929	-424.217597	36.286	
C	-0.05887653	 1.7061544245	-0.4153430085	-0.380272
C	 0.0866521637	 0.2056044002	-0.1336356591	-0.217649
C	-1.2534559881	-0.5036534735	-0.1605315374	-0.041845
C	-1.8304299596	-1.193497017	-1.3718230548	-0.017864
O	-0.8064915837	-1.900837357	-2.0851128378	-0.30386
C	-0.6236290988	-2.8285154512	-0.9718518143	 0.095299
C	 0.8136387546	-3.1355282714	-0.6057445699	-0.419665
C	-1.552103371	-1.9816780143	-0.0992362314	 0.247132
O	-2.3500611666	-2.4788681229	 0.9114076896	-0.450881
H	 0.9146351995	 2.2057989809	-0.4068719005	 0.110814
H	-0.515722414	 1.878613713	-1.3955043377	 0.120931
H	-0.6903823165	 2.1932301069	 0.3361561296	 0.112614
H	 0.7413349509	-0.2404274113	-0.8871627678	 0.117546
H	 0.5677150602	 0.0581654694	 0.8413752566	 0.097467
H	-2.0422837281	 0.0154716054	 0.3861114835	 0.093893
H	-2.7276571731	-0.9153362407	-1.9125354374	 0.102509
H	-1.1419578112	-3.7677222715	-1.227393387	 0.068669
H	 1.3306682911	-3.5946863693	-1.4546445556	 0.127111
H	 1.3644655019	-2.2437347328	-0.3046854261	 0.129863
H	 0.8312411683	-3.8495838077	 0.2248068591	 0.123211
H	-2.8623069694	-3.2166594398	 0.5597717772	 0.284977
78.4157	146.1996	168.2651	197.3682	216.4292	238.3982	265.7004	295.4457	346.6001	413.5067	425.534	573.5575	582.9934	655.8529	734.3779	763.1903	841.103	852.7875	919.3192	939.9126	946.9893	985.107	1016.2072	1069.3755	1081.9863	1103.5261	1123.1271	1137.352	1154.5979	1216.1049	1253.6405	1271.0405	1291.8805	1325.8228	1341.8466	1379.2658	1397.6035	1407.817	1411.7963	1482.1138	1488.0465	1496.4163	1498.4517	1499.7953	1506.6547	2962.2904	3028.9325	3031.0063	3043.1633	3082.6668	3102.1219	3104.3004	3105.7237	3113.1315	3147.6895	3180.8966	3780.9909
CCC1C2OC(C)C12O	CC[C@H]1[C@H]2O[C@@H](C)[C@@]12O	
InChI=1S/C7H12O2/c1-3-5-6-7(5,8)4(2)9-6/h4-6,8H,3H2,1-2H3	InChI=1S/C7H12O2/c1-3-5-6-7(5,8)4(2)9-6/h4-6,8H,3H2,1-2H3/t4-,5-,6+,7+/m0/s1
