22
gdb 119482	3.67894	0.98477	0.90068	1.2807	86.28	-0.216	0.0741	0.29	1416.9691	0.193837	-367.132734	-367.123855	-367.122911	-367.166647	34.462	
C	-0.0318172325	 1.5699829895	 0.0325864614	-0.383334
C	-0.0405033661	 0.0471478242	-0.1191415484	-0.157894
C	-1.436835911	-0.5660843181	 0.0666678624	-0.279404
C	-1.4194699475	-2.062759903	-0.0119034493	 0.393384
C	-1.5432621574	-2.8626321459	-1.280214569	-0.348105
C	-2.5108018115	-3.1014798584	-0.146493523	-0.15531
C	-1.855287475	-3.8335097634	 1.0367475983	-0.027341
C	-0.4263883147	-4.1638443246	 0.8642324399	-0.253389
N	-0.798023058	-2.7722255577	 1.1936396332	-0.181079
H	 0.9749175105	 1.9784887139	-0.1004417713	 0.110136
H	-0.6848170049	 2.0479110679	-0.7067758215	 0.109648
H	-0.3839142328	 1.87055485	 1.0257096421	 0.115256
H	 0.3458733451	-0.2307162232	-1.1080416203	 0.091962
H	 0.6368453276	-0.4042115324	 0.6153809742	 0.116273
H	-1.8358581151	-0.2666535831	 1.044629125	 0.103044
H	-2.1258426925	-0.1728286931	-0.6920444234	 0.090433
H	-1.9724114476	-2.2854312199	-2.0943420403	 0.11485
H	-0.8321186755	-3.6072409146	-1.6204181948	 0.110819
H	-3.580282226	-2.9694666089	-0.2459159457	 0.092712
H	-2.4277018684	-4.164981536	 1.8975131457	 0.097437
H	 0.0651735407	-4.6521374013	 1.7016105698	 0.120559
H	-0.0002647174	-4.4180469518	-0.0990371348	 0.119344
69.4877	88.5369	111.3011	244.0668	259.9606	304.8797	338.1316	401.3859	460.2002	531.3746	656.2143	704.4514	743.6324	750.7445	823.2898	830.8545	872.0386	895.9995	909.6208	936.8933	961.8017	977.7556	1009.6947	1036.456	1047.3367	1049.9489	1064.8077	1106.7704	1109.8094	1125.8708	1140.5699	1196.2137	1226.9091	1262.233	1274.0847	1307.8264	1330.1042	1351.8077	1378.5711	1408.4192	1412.1504	1471.8811	1479.9925	1493.0489	1499.5672	1509.1143	1525.0791	3013.6858	3025.6971	3028.4294	3047.7448	3068.0146	3095.5867	3100.1039	3120.4049	3132.3072	3154.8207	3193.939	3200.7382	3212.315
CCCC12CC1C1CN21	CCC[C@]12C[C@H]1[C@H]1CN21	
InChI=1S/C8H13N/c1-2-3-8-4-6(8)7-5-9(7)8/h6-7H,2-5H2,1H3	InChI=1S/C8H13N/c1-2-3-8-4-6(8)7-5-9(7)8/h6-7H,2-5H2,1H3/t6-,7+,8-,9?/m0/s1
