17
gdb 121686	2.05541	1.17011	0.78656	1.662	70.68	-0.2674	0.0007	0.2681	1418.8669	0.132726	-458.954017	-458.943963	-458.943019	-458.99132	34.662	
O	-0.1582470108	-0.075898107	-1.6944253584	-0.419746
C	-0.3475953709	-0.6540668442	-0.4203199838	-0.066146
C	-1.623418776	-0.1610563153	 0.240254719	-0.080216
O	-2.6936742915	-0.5535162003	-0.6458557978	-0.240522
C	-3.9133921326	-0.0630227616	-0.3794233852	 0.451205
O	-4.183902081	 0.6137735011	 0.5763946628	-0.34896
C	-4.9351580758	-0.5137503102	-1.4252519045	-0.463498
C	-4.4377783491	-0.5605115971	-2.7927104605	 0.31458
C	-4.0422944259	-0.5888515728	-3.9265944771	-0.452585
H	-0.9526601128	-0.2684560188	-2.2064140005	 0.295358
H	-0.3665143202	-1.7542620298	-0.4709387221	 0.098145
H	 0.5093018837	-0.3637564054	 0.1962973486	 0.117451
H	-1.7790480876	-0.6097831214	 1.2268225841	 0.120664
H	-1.6293690526	 0.9273467453	 0.3416965751	 0.136074
H	-5.2848983672	-1.5093142143	-1.1192698592	 0.164878
H	-5.7923680025	 0.1591218856	-1.3358750758	 0.167406
H	-3.6973753771	-0.6136364939	-4.9307882046	 0.205913
26.6577	34.8477	63.2408	138.9623	178.1647	223.6539	301.3144	327.5407	359.0017	433.4178	470.8341	514.0999	590.0092	630.0972	651.1448	712.1471	839.0895	900.4247	949.0299	955.5339	995.3836	1042.7916	1095.1516	1129.2476	1204.6569	1237.1011	1259.2234	1278.1205	1315.77	1388.9323	1397.3858	1434.941	1448.4307	1495.5089	1499.2481	1831.8764	2244.8768	2985.1774	3027.6665	3054.3211	3082.6134	3097.3443	3114.5733	3504.0484	3796.1993
OCCOC(=O)CC#C	OCCOC(=O)CC#C	
InChI=1S/C6H8O3/c1-2-3-6(8)9-5-4-7/h1,7H,3-5H2	InChI=1S/C6H8O3/c1-2-3-6(8)9-5-4-7/h1,7H,3-5H2
