21
gdb 100500	3.32737	0.73722	0.65921	3.3441	90.22	-0.249	-0.0439	0.2051	1809.8506	0.17862	-387.095367	-387.083849	-387.082905	-387.134657	39.016	
C	 0.0878680307	 1.5574551247	-0.0437908461	-0.403291
C	 0.0370265713	 0.0316841254	-0.1664066166	-0.166416
C	-1.3586332471	-0.5649350105	 0.0660966694	-0.072375
C	-2.3841842237	-0.1637220843	-1.0141842366	-0.400613
C	-1.2914434596	-2.0902085679	 0.1607106288	 0.194063
O	-0.3014687729	-2.7290289093	-0.1314972823	-0.303499
C	-2.5000953717	-2.7455565779	 0.6293676765	-0.007813
C	-3.4970195694	-3.2913406473	 1.0367542752	 0.155014
C	-4.6874761479	-3.9684783961	 1.5219047359	-0.505556
H	 1.1138928461	 1.9195227101	-0.1609203712	 0.116078
H	-0.5216964412	 2.0543369107	-0.8050524682	 0.116499
H	-0.2698681697	 1.8908297017	 0.9373411078	 0.111585
H	 0.396156385	-0.280104662	-1.1537111149	 0.108208
H	 0.7305642269	-0.4171999749	 0.5522603835	 0.108388
H	-1.747247675	-0.2156901851	 1.0344895104	 0.090682
H	-2.0378619589	-0.4701863035	-2.007186778	 0.125928
H	-3.3543186359	-0.6333828977	-0.8315151165	 0.126805
H	-2.531958423	 0.9190200758	-1.0254316381	 0.123919
H	-4.4246472567	-4.7770472094	 2.2122632773	 0.162897
H	-5.3584281394	-3.2781861176	 2.0436253598	 0.156527
H	-5.243813158	-4.4125247749	 0.6889673742	 0.162972
16.8804	33.9255	69.3055	80.0562	132.8151	204.6479	215.5322	224.176	277.6921	305.9203	345.2111	379.5692	398.9638	442.3919	584.3498	714.1956	754.7803	782.8912	840.3813	957.7863	971.5762	984.4301	1042.2811	1045.4358	1054.5158	1098.6123	1136.9044	1170.5602	1209.5469	1287.7293	1313.8934	1335.6918	1387.027	1403.1842	1410.0816	1414.2401	1470.2285	1474.4695	1479.6657	1495.7533	1500.6199	1506.6424	1510.5441	1755.4176	2335.8987	2998.2651	3030.4742	3031.2673	3039.693	3044.6084	3073.8508	3094.4048	3098.2727	3098.5886	3105.3744	3111.7565	3122.3151
CCC(C)C(=O)C#CC	CC[C@@H](C)C(=O)C#CC	
InChI=1S/C8H12O/c1-4-6-8(9)7(3)5-2/h7H,5H2,1-3H3	InChI=1S/C8H12O/c1-4-6-8(9)7(3)5-2/h7H,5H2,1-3H3/t7-/m1/s1
