21
gdb 100616	2.06099	1.19903	0.80186	0.6111	90.65	-0.26	0.0335	0.2934	1470.5696	0.178339	-349.891191	-349.88026	-349.879316	-349.92717	40.201	
C	-0.0802238959	 1.5697808652	 0.0975403987	-0.396415
C	 0.0219024887	 0.0439854593	 0.002077202	-0.178589
C	 0.7559049302	-0.4622517203	-1.2523141964	 0.039288
C	 2.2348051796	-0.0586176455	-1.2614506546	-0.41092
C	 0.61596674	-2.0206091646	-1.373028695	-0.35688
C	-0.7859958685	-2.4553558605	-1.393784439	 0.325977
C	-1.9339955366	-2.8086898555	-1.4182688092	-0.440004
C	 1.3140884339	-2.5520165796	-2.5496254376	 0.323363
C	 1.8828094633	-2.9809973782	-3.5169618177	-0.438651
H	 0.9000706882	 2.0465824859	 0.1906774104	 0.118221
H	-0.5719346282	 1.9881444602	-0.7879258577	 0.116526
H	-0.6700550455	 1.8619530973	 0.9718424006	 0.11465
H	 0.532576368	-0.3463028879	 0.8939069203	 0.090411
H	-0.9869779265	-0.380229633	 0.0150728855	 0.115061
H	 0.2669573564	-0.0364459438	-2.1378360743	 0.090482
H	 2.7522740308	-0.4539473553	-0.3785296935	 0.111053
H	 2.7452710249	-0.4376953591	-2.1495513164	 0.133269
H	 2.3429258154	 1.0288139159	-1.2505319212	 0.117728
H	 1.0900245471	-2.4517765876	-0.4773946248	 0.131586
H	-2.9466291985	-3.127681195	-1.440862704	 0.19716
H	 2.3825327231	-3.368352248	-4.3701297861	 0.196681
56.3055	78.1736	137.4696	141.5606	166.8572	214.7724	252.5876	270.1229	335.5359	347.5419	382.3323	421.17	481.3954	558.797	571.658	629.1307	631.6253	639.8359	642.0408	779.1619	842.4625	858.6482	965.5454	982.6059	994.2204	1028.397	1053.7623	1116.0421	1152.9899	1177.5225	1247.7185	1299.5977	1311.9235	1332.7459	1366.8903	1382.6457	1411.576	1416.7891	1485.5976	1495.3513	1499.6195	1508.6232	1512.8103	2235.2923	2241.149	2984.5443	3009.676	3028.179	3034.9061	3037.4534	3075.5381	3100.1193	3104.9442	3111.257	3129.354	3503.1206	3503.964
CCC(C)C(C#C)C#C	CC[C@@H](C)C(C#C)C#C	
InChI=1S/C9H12/c1-5-8(4)9(6-2)7-3/h2-3,8-9H,5H2,1,4H3	InChI=1S/C9H12/c1-5-8(4)9(6-2)7-3/h2-3,8-9H,5H2,1,4H3/t8-/m1/s1
