19
gdb 33097	6.36879	0.7748	0.69984	0.5851	80.48	-0.1989	0.03	0.2288	1640.7025	0.158069	-423.056334	-423.047003	-423.046058	-423.090945	33.681	
C	 0.0582895651	 1.5238783693	 0.0183397481	-0.391131
C	-0.0244146237	 0.0097307112	-0.0301294864	-0.049108
O	 0.7508069185	-0.4436189311	-1.1340797912	-0.266556
C	 0.7772549377	-1.7826822386	-1.3125113365	 0.354597
C	 0.1772619764	-2.7806058053	-0.6015917419	-0.182387
O	 0.4959934676	-3.9912762506	-1.1644774943	-0.191224
C	 1.2998027635	-3.7503285381	-2.2335962733	 0.401123
C	 1.7692372643	-4.9353289833	-2.9988659505	-0.488085
C	 1.5071798769	-2.4133684846	-2.3737481862	-0.419321
H	 1.0949018618	 1.8492062758	 0.1422424212	 0.131216
H	-0.3315962096	 1.9606553227	-0.9052241319	 0.131216
H	-0.5286669538	 1.9065673931	 0.8584055005	 0.118905
H	 0.3632473332	-0.4388009048	 0.8967498488	 0.102416
H	-1.0647109883	-0.327234053	-0.1518150773	 0.102414
H	-0.4602413131	-2.8129008636	 0.2630601656	 0.125835
H	 2.3482957775	-5.6174833448	-2.3660250694	 0.13778
H	 0.92862537	-5.5058588565	-3.4099608049	 0.137771
H	 2.4040323173	-4.6153799721	-3.8279086278	 0.13478
H	 2.0989677786	-1.9187784757	-3.1271247726	 0.10976
62.4589	103.6647	114.1006	137.6774	206.8717	249.8935	304.8599	344.1981	372.7597	460.2582	619.0835	646.0132	656.1602	684.1528	743.1357	795.169	828.1786	910.8577	944.4376	1000.155	1026.9551	1063.3202	1078.0806	1137.9822	1158.5094	1184.2112	1188.2845	1242.4462	1294.5178	1326.0296	1393.7639	1409.5709	1415.3292	1446.6466	1472.5817	1483.9107	1490.468	1500.8613	1526.2927	1596.1906	1666.4303	2985.0688	3017.7795	3030.3167	3046.8748	3080.5738	3121.7331	3124.6613	3129.9574	3263.1548	3297.6833
CCOC1=COC(C)=C1	CCOc1coc(C)c1	
InChI=1S/C7H10O2/c1-3-8-7-4-6(2)9-5-7/h4-5H,3H2,1-2H3	InChI=1S/C7H10O2/c1-3-8-7-4-6(2)9-5-7/h4-5H,3H2,1-2H3
