13
gdb 21270	3.52683	1.89633	1.24302	2.4967	56.32	-0.2306	0.0019	0.2326	905.0291	0.095334	-435.709031	-435.701904	-435.70096	-435.740576	25.835	
C	-0.0644417969	 1.4033252807	 0.0264853164	-0.255213
O	 0.0062752745	-0.0131909313	 0.0368027758	-0.252851
C	 0.6175003972	-0.5563739863	-1.0329630242	 0.162012
C	 1.1922763463	-0.0190756978	-2.1428684047	-0.045993
O	 1.6767837447	-1.0009852349	-2.9361688512	-0.182043
N	 1.4193833014	-2.2338806046	-2.3407704784	-0.241128
C	 0.7967875126	-1.9622145288	-1.2231641678	 0.369624
O	 0.3821249611	-2.9068904985	-0.3672194937	-0.4145
H	 0.9399556121	 1.8474022269	 0.009712269	 0.126578
H	-0.6295099973	 1.7628328049	-0.8440050629	 0.126578
H	-0.5783061174	 1.6979269583	 0.9419797497	 0.144965
H	 1.3306861881	 0.988351451	-2.4971868691	 0.148404
H	 0.6302646236	-3.7644468495	-0.7383945289	 0.313568
92.954	190.8476	209.4451	285.1318	324.5078	380.3221	464.6954	559.5129	576.2311	626.0864	728.1846	777.7679	782.6498	905.9903	964.5319	1071.7834	1146.0829	1181.5072	1210.5712	1224.1389	1303.8485	1309.8733	1475.3587	1486.507	1504.8186	1510.6856	1595.4512	1691.9532	3000.7572	3058.5783	3145.5531	3280.4735	3779.8324
COC1=CON=C1O	COc1conc1O	
InChI=1S/C4H5NO3/c1-7-3-2-8-5-4(3)6/h2H,1H3,(H,5,6)	InChI=1S/C4H5NO3/c1-7-3-2-8-5-4(3)6/h2H,1H3,(H,5,6)
