19
gdb 110233	1.95867	1.52332	1.01802	2.4255	76.94	-0.2376	-0.0086	0.229	1228.071	0.157481	-423.017638	-423.008616	-423.007672	-423.051581	34.145	
C	-0.0097423735	 1.4000548015	-0.3304980307	-0.373511
C	 0.0131344126	-0.0214540317	 0.2419013335	-0.219178
C	-1.3461029005	-0.6930945887	 0.1650263905	-0.031381
C	-1.9591249367	-1.2714011924	-1.1270914509	-0.295019
C	-0.9522356862	-2.0878811903	-1.8614341064	 0.428389
O	-0.6485553638	-2.1879331351	-3.0185551541	-0.323198
C	-0.5890806902	-2.9486621451	-0.6174270129	-0.439734
C	-1.6323486656	-2.1378874235	 0.1615755724	 0.378462
O	-2.4887635587	-2.6602703048	 1.0990123862	-0.449042
H	 0.9760045289	 1.8687901009	-0.2592132759	 0.11601
H	-0.3045695668	 1.3921002469	-1.3847155533	 0.130411
H	-0.7211765412	 2.0337401498	 0.2104045623	 0.11526
H	 0.7632446381	-0.6157109878	-0.29038032	 0.109554
H	 0.3306758355	 0.0059774714	 1.2921681785	 0.105849
H	-2.1217093565	-0.1556162626	 0.711308832	 0.105369
H	-2.8846210629	-0.8741731885	-1.5263777669	 0.108509
H	-0.9149570093	-3.9800760349	-0.7952357781	 0.119922
H	 0.4433864721	-2.9609823239	-0.2575669643	 0.122777
H	-2.8422678854	-3.4934543512	 0.7659770981	 0.290552
57.9952	109.2109	174.8108	198.5029	255.9819	307.1104	316.3146	383.0592	447.0218	488.0003	507.4041	589.2256	613.042	664.3091	744.3276	797.7824	837.3447	875.2189	931.8285	971.9308	980.7457	1019.9796	1049.3423	1096.9878	1114.0724	1117.6298	1141.1846	1198.3753	1220.9402	1232.1466	1290.0578	1322.9961	1348.1853	1386.663	1411.74	1458.3335	1487.1878	1498.193	1505.6533	1513.2371	1871.3512	3027.9732	3034.6781	3045.2598	3068.2345	3099.3236	3103.3952	3111.6919	3118.0088	3193.4926	3788.5203
CCC1C2C(=O)CC12O	CC[C@H]1[C@H]2C(=O)C[C@@]12O	
InChI=1S/C7H10O2/c1-2-4-6-5(8)3-7(4,6)9/h4,6,9H,2-3H2,1H3	InChI=1S/C7H10O2/c1-2-4-6-5(8)3-7(4,6)9/h4,6,9H,2-3H2,1H3/t4-,6-,7+/m0/s1
