15
gdb 123828	3.5898	1.56172	1.13023	3.563	66.92	-0.2613	-0.0388	0.2224	1005.0279	0.114668	-453.927003	-453.920288	-453.919343	-453.958202	25.884	
C	-0.007810171	 1.4081447269	 0.0219500466	-0.079514
C	 1.4292899622	 1.9807387285	 0.0098675214	-0.345399
C	 2.1587827487	 1.232997543	-1.0467118507	 0.357801
C	 1.7166091264	 0.0836963797	-1.6189157033	 0.184321
C	 0.4359136199	-0.5784003981	-1.2202013682	-0.190233
O	-0.0158168627	-0.0105513633	 0.0042923878	-0.246918
N	 2.649270118	-0.2802078769	-2.5563667067	-0.186886
N	 3.5995792813	 0.5404871551	-2.5823910768	-0.027382
O	 3.3190406079	 1.5722599501	-1.5892381713	-0.23259
H	-0.5299275469	 1.7022910462	 0.9351537958	 0.124212
H	-0.5671418943	 1.8081215623	-0.8382753425	 0.105105
H	 1.4157294003	 3.0570634559	-0.1918638392	 0.135631
H	 1.9116090756	 1.8351607452	 0.9835914268	 0.144266
H	-0.3302426333	-0.4684727939	-2.0051875003	 0.116267
H	 0.5701874778	-1.6477962708	-1.0340985994	 0.141319
115.1656	223.4954	288.7025	328.6239	367.6194	453.9796	519.0009	562.5065	656.6225	696.4887	718.3173	758.7235	857.0858	942.7072	969.3026	1010.3868	1031.5729	1089.3845	1114.6781	1201.6051	1211.6432	1232.9488	1273.3243	1299.8406	1330.7926	1373.7748	1409.1189	1439.2988	1459.9901	1469.7177	1493.4291	1502.4794	1648.9162	2972.8675	2987.6117	3041.6046	3085.8463	3087.407	3106.8537
C1CC2=C(CO1)N=NO2	C1Cc2c(CO1)nno2	
InChI=1S/C5H6N2O2/c1-2-8-3-4-5(1)9-7-6-4/h1-3H2	InChI=1S/C5H6N2O2/c1-2-8-3-4-5(1)9-7-6-4/h1-3H2
