16
gdb 45514	4.38958	1.30917	1.06162	4.1449	72.21	-0.2278	0.0112	0.2389	1086.956	0.127587	-437.94889	-437.942089	-437.941145	-437.980131	26.976	
O	-0.0086363006	 0.0118377687	 0.2481603155	-0.373488
C	-0.0237588957	 1.1765047362	-0.0182047863	 0.466438
N	-1.1607399477	 1.9960763959	-0.1439348774	-0.482617
C	-0.756398353	 3.3166726951	-0.198273112	 0.385107
C	-1.1391050349	 4.5410385035	 0.1578856526	-0.2429
C	 0.0628996203	 5.4724312039	 0.0489314859	-0.244008
C	 1.2803197522	 4.4905046676	 0.0208790458	-0.253914
C	 0.673279568	 3.2580969561	-0.6473138102	 0.06924
O	 1.091047232	 1.935889016	-0.2427084154	-0.256158
H	-2.026230478	 1.6649732505	 0.2507328316	 0.271644
H	-2.1120298318	 4.8493403286	 0.5156541861	 0.098553
H	 0.0380800295	 6.0864382758	-0.8623613259	 0.111354
H	 0.1216788444	 6.1703755644	 0.890246954	 0.112749
H	 2.1519290086	 4.8920736975	-0.5004784004	 0.107293
H	 1.5710278157	 4.2335994214	 1.0440406248	 0.124437
H	 0.768604511	 3.2999105788	-1.7416278989	 0.106272
122.3176	179.5713	277.6197	340.2422	417.1792	516.7174	532.8712	587.8173	653.4951	710.7208	760.0537	769.7032	800.6064	867.726	875.9131	903.4161	944.7299	975.9969	998.3019	1061.9492	1093.449	1159.2904	1184.1893	1186.2138	1242.9431	1284.6401	1301.2776	1329.5144	1342.475	1385.7547	1391.6379	1487.1039	1502.7036	1765.6856	1904.8081	3004.2823	3008.1916	3061.968	3072.7985	3120.6183	3221.1444	3656.4482
O=C1NC2=CCCC2O1	O=C1NC2=CCC[C@H]2O1	
InChI=1S/C6H7NO2/c8-6-7-4-2-1-3-5(4)9-6/h2,5H,1,3H2,(H,7,8)	InChI=1S/C6H7NO2/c8-6-7-4-2-1-3-5(4)9-6/h2,5H,1,3H2,(H,7,8)/t5-/m1/s1
