12
gdb 133490	2.72629	1.29539	1.04705	2.2746	48.76	-0.2683	-0.1147	0.1536	1091.9312	0.070421	-604.145143	-604.136124	-604.135179	-604.180466	30.119	
C	 0.4762889708	 1.4450214419	-0.1269708285	-0.479286
C	 0.2880061998	-0.0417709362	 0.0174108458	 0.304349
O	 0.2806965509	-0.6448270253	 1.0614915158	-0.253296
C	 0.0922176012	-0.8137834932	-1.3079214959	 0.121821
O	 0.0910380563	-0.2689479186	-2.3768538031	-0.244084
C	-0.1060210556	-2.35277695	-1.19245476	 0.260154
F	 0.959144244	-2.9117477034	-0.6138608211	-0.068367
F	-1.189886387	-2.6239747048	-0.4624570485	-0.068107
F	-0.2623066199	-2.8854362291	-2.3987585297	-0.053288
H	-0.3864939359	 1.8856082237	-0.6371283359	 0.163411
H	 0.6050609983	 1.8929227176	 0.8581205275	 0.15325
H	 1.345873387	 1.6543511375	-0.7584582563	 0.163443
35.9925	64.2997	111.3208	157.9456	201.3486	276.1896	317.7028	383.2993	399.3838	500.1778	532.4875	585.9588	622.2869	735.1313	751.857	904.9576	1030.4789	1033.756	1206.7696	1214.6057	1239.9964	1318.6417	1387.562	1452.4078	1460.1848	1816.7147	1844.043	3049.0984	3110.2422	3166.4829
CC(=O)C(=O)C(F)(F)F	CC(=O)C(=O)C(F)(F)F	
InChI=1S/C4H3F3O2/c1-2(8)3(9)4(5,6)7/h1H3	InChI=1S/C4H3F3O2/c1-2(8)3(9)4(5,6)7/h1H3
