22
gdb 9429	3.83903	0.88	0.75162	1.8058	76.1	-0.2547	0.0735	0.3283	1582.1776	0.197402	-387.339204	-387.328603	-387.327659	-387.375423	36.962	
C	 0.9460624492	 1.0088179581	-0.4938598872	-0.385744
C	 0.0276066148	-0.003279341	 0.1694341196	-0.023039
O	 0.7517988906	-0.6786774839	 1.177781558	-0.244218
C	-0.0100767791	-1.6418335567	 1.8682164923	-0.074668
C	 0.862653318	-2.3002172821	 2.9394266305	 0.107799
O	 0.0572747315	-3.1529155798	 3.7489259072	-0.432472
C	 2.0719095382	-3.02840178	 2.3482896192	-0.181518
C	 3.0126970985	-3.5949684685	 3.4136287	-0.381682
H	 1.8101165948	 0.5084606756	-0.940338447	 0.125792
H	 0.4124089485	 1.5495346825	-1.2811824334	 0.114858
H	 1.3112429126	 1.7335284586	 0.2393299306	 0.127413
H	-0.8514537482	 0.4991960388	 0.6072285805	 0.087039
H	-0.3532129193	-0.7260558608	-0.5723252283	 0.084656
H	-0.8861861557	-1.1828908196	 2.3533296198	 0.093937
H	-0.3882513284	-2.4132126699	 1.1703628699	 0.068176
H	 1.2128880733	-1.5137726767	 3.6191122096	 0.095395
H	-0.1985823811	-3.9096821576	 3.2092988844	 0.277194
H	 1.7036666233	-3.8397382326	 1.7009456311	 0.076605
H	 2.6012903022	-2.330572154	 1.6915356073	 0.117596
H	 3.8332202315	-4.1586530062	 2.9596001695	 0.107979
H	 3.4524556033	-2.7919020806	 4.015262843	 0.115834
H	 2.4736150015	-4.2597644537	 4.0943336435	 0.12307
61.1088	70.4812	84.7116	138.2419	161.4851	212.1054	239.3445	251.8989	281.5286	304.0795	348.6593	441.5759	514.615	541.2655	778.4011	819.9915	830.9964	901.6781	980.5186	988.3947	1043.463	1048.0064	1085.6846	1122.0638	1146.8866	1160.7942	1173.5951	1190.6604	1240.5627	1258.0288	1294.7256	1326.0172	1328.1969	1381.0667	1393.6634	1405.0237	1406.4818	1419.8556	1447.9527	1483.1973	1485.7309	1496.1788	1499.126	1509.7009	1511.9053	1535.3362	2924.7996	2955.085	2978.9795	2990.9427	2993.2493	3036.8101	3044.8259	3047.7751	3079.5774	3102.0216	3117.6814	3119.2322	3121.4533	3792.0978
CCOCC(O)CC	CCOC[C@@H](O)CC	
InChI=1S/C6H14O2/c1-3-6(7)5-8-4-2/h6-7H,3-5H2,1-2H3	InChI=1S/C6H14O2/c1-3-6(7)5-8-4-2/h6-7H,3-5H2,1-2H3/t6-/m0/s1
