15
gdb 48635	2.68528	1.58665	1.33668	3.614	72.24	-0.2529	-0.0421	0.2107	978.8046	0.111782	-420.618664	-420.611196	-420.610251	-420.650914	28.132	
O	-0.1492181137	 0.0393881255	-0.3685203643	-0.248551
C	-0.0277185517	 1.1389323445	 0.1143368957	 0.045176
C	 1.2381200698	 1.9204376316	 0.0930418926	 0.092889
C	 1.6594966609	 2.9512708797	 1.1883354512	-0.269552
C	 2.6431378936	 3.4995884912	 0.1111831747	-0.182528
C	 3.457748613	 2.2551954761	-0.2162274815	-0.102056
C	 2.556964635	 1.2566739298	-0.2406372949	-0.119449
C	 1.4654770521	 3.2056766321	-0.8931755914	 0.390583
O	 0.958763935	 3.6725006526	-1.8503128971	-0.27666
H	-0.8889438084	 1.6554667759	 0.5938939044	 0.07933
H	 0.8637223829	 3.6542192451	 1.4559247385	 0.117643
H	 2.1310524197	 2.5165046324	 2.0732677984	 0.119142
H	 3.1309727883	 4.4687439728	 0.1824095737	 0.09584
H	 4.5015747051	 2.2433362598	-0.4946858426	 0.121548
H	 2.6606578685	 0.224230891	-0.5386605572	 0.136645
75.6925	147.4412	188.5001	221.2329	373.7943	445.2668	472.9007	547.9173	600.5836	681.6287	718.0826	777.6295	794.7552	808.6452	857.2457	920.8095	945.7823	964.5971	1008.7453	1050.5337	1059.5009	1091.8747	1118.9331	1170.0122	1204.5464	1250.7466	1279.4323	1350.7273	1427.9477	1479.277	1589.6243	1806.0424	1929.1971	2883.4447	3049.1729	3124.6704	3155.2713	3233.9186	3260.6881
O=CC12CC(C=C1)C2=O	O=C[C@@]12C[C@@H](C=C1)C2=O	
InChI=1S/C7H6O2/c8-4-7-2-1-5(3-7)6(7)9/h1-2,4-5H,3H2	InChI=1S/C7H6O2/c8-4-7-2-1-5(3-7)6(7)9/h1-2,4-5H,3H2/t5-,7+/m1/s1
