21
gdb 73005	2.69572	1.51506	1.21445	1.3963	82.96	-0.219	0.079	0.298	1124.5736	0.182404	-387.044518	-387.035914	-387.03497	-387.077648	33.097	
C	 0.1326286942	 1.5198958652	 0.1087330324	-0.500843
C	-0.0099437509	 0.0267284205	 0.0722032187	 0.254649
C	-0.8328754694	-0.7668952035	-0.9530486584	-0.286844
C	-1.2499963493	-1.7826953132	 0.1605321161	-0.230425
C	-0.4179105764	-0.9992185333	 1.1765353443	-0.189528
C	 0.9928505888	-0.8873006352	 0.7020732816	 0.438468
C	 1.9956177864	-1.8978618197	 0.1416601421	-0.368219
C	 2.9794315594	-1.210399814	 1.1112106726	-0.077684
O	 1.9544357488	-0.3113601557	 1.5953115149	-0.322485
H	 0.7562065246	 1.8259611741	 0.9527061145	 0.139233
H	 0.6108545894	 1.8866326349	-0.8086100322	 0.113322
H	-0.8401899353	 2.0172599505	 0.1941335885	 0.111913
H	-1.6853365223	-0.1991737299	-1.3348079646	 0.104403
H	-0.2785649773	-1.1690309714	-1.8089852227	 0.089928
H	-2.321501146	-1.7497097662	 0.3685902325	 0.105705
H	-0.962079655	-2.8288053043	 0.0064484728	 0.093035
H	-0.6537551537	-0.8332061098	 2.2220764516	 0.088436
H	 1.7776812017	-2.9445282228	 0.363720886	 0.113639
H	 2.2292597121	-1.7940325514	-0.9198715396	 0.11221
H	 3.3754580185	-1.8392244407	 1.9162846429	 0.105986
H	 3.8053975517	-0.6646686641	 0.6409332459	 0.105099
80.6977	160.3604	174.1756	191.616	209.1739	254.6804	350.1054	418.8414	500.9297	544.262	649.41	700.7599	787.3624	797.5346	844.9543	892.7373	924.914	932.4006	956.2657	965.4056	983.9222	1009.6756	1020.2589	1085.6661	1102.7307	1117.39	1150.8215	1164.4634	1185.1354	1213.4075	1218.7861	1234.1828	1243.0119	1262.0577	1265.7504	1312.4359	1350.7346	1409.1898	1459.4244	1481.7848	1488.6351	1490.5416	1496.7002	1511.1758	1532.7127	3019.0432	3025.9908	3031.23	3040.481	3068.15	3071.3787	3073.215	3086.9706	3107.4069	3118.0349	3123.8027	3173.2014
CC12CCC1C21CCO1	C[C@]12CC[C@H]1[C@]12CCO1	
InChI=1S/C8H12O/c1-7-3-2-6(7)8(7)4-5-9-8/h6H,2-5H2,1H3	InChI=1S/C8H12O/c1-7-3-2-6(7)8(7)4-5-9-8/h6H,2-5H2,1H3/t6-,7+,8+/m1/s1
