16
gdb 78840	2.90801	1.65898	1.30446	1.6279	67.68	-0.2397	-0.0206	0.2191	963.9302	0.124187	-437.823173	-437.815653	-437.814709	-437.855652	28.376	
O	-0.1120492138	 1.5395114263	-0.2868164229	-0.424351
C	 0.0146964611	 0.1398707848	-0.2273253271	 0.124531
C	-1.2751428356	-0.6306163096	-0.0943743837	-0.062466
C	-1.8342741768	-0.8512057337	-1.4621662639	-0.082497
C	-0.9132483456	-0.2113054591	-2.4884227307	-0.065865
C	-1.0076372503	 1.2520923674	-2.8760728538	 0.128397
O	-0.2172812086	 1.7794739235	-3.6187983342	-0.268952
C	 0.2069894057	-0.6781018678	-1.5262417891	-0.080262
N	-0.7510866804	-1.7616447082	-0.945303985	-0.166041
H	 0.7607508401	 1.9318367554	-0.39981248	 0.295008
H	 0.7347343286	-0.1798816397	 0.5361510795	 0.093756
H	-1.852241749	-0.8197101993	 0.8025465932	 0.104135
H	-2.8429667423	-1.2205934292	-1.6059766989	 0.106794
H	-0.871535664	-0.8185417841	-3.3983870302	 0.117689
H	-1.8673102029	 1.8105668743	-2.4483870771	 0.085511
H	 1.1889090039	-0.9614751009	-1.8969584361	 0.094612
53.9772	149.7888	197.3824	263.5054	314.0936	366.1493	473.079	559.1897	623.9243	743.5973	773.6029	784.7538	807.461	831.6912	918.8882	942.1324	973.6388	1022.2233	1032.2482	1049.4735	1064.8524	1112.7237	1128.4781	1141.7491	1162.7816	1179.8539	1206.7533	1258.3876	1300.2453	1315.5392	1357.3795	1377.5166	1422.3417	1432.7388	1816.0482	2901.7724	3035.9594	3069.063	3153.1571	3184.1552	3198.7692	3810.6219
OC1C2C3C(C=O)C1N23	O[C@H]1[C@H]2[C@H]3[C@@H](C=O)[C@@H]1N23	
InChI=1S/C6H7NO2/c8-1-2-3-5-6(9)4(2)7(3)5/h1-6,9H	InChI=1S/C6H7NO2/c8-1-2-3-5-6(9)4(2)7(3)5/h1-6,9H/t2-,3-,4+,5-,6-,7?/m1/s1
