20
gdb 86157	2.92189	1.322	0.94483	4.099	83.07	-0.2313	-0.0298	0.2015	1263.6069	0.171828	-403.201128	-403.192125	-403.191181	-403.234739	33.555	
C	 0.0835945126	 1.5963542155	-0.018779185	-0.401681
C	 0.0069505078	 0.0645262655	 0.0131091022	-0.055344
C	 0.6290340383	-0.5454250815	-1.247657492	-0.157356
N	 0.7700138858	-1.9945906351	-1.159325684	-0.124353
C	 0.8591115838	-2.7286468713	-2.4084915192	-0.345138
C	 1.2510586633	-2.5832922773	-0.0100037506	 0.406024
O	 1.6163170163	-3.7488549073	 0.0403758845	-0.398026
C	 1.2550886707	-1.7186300407	 1.1992133924	-0.161046
C	 0.6712167624	-0.520743267	 1.232309617	-0.057567
H	 1.1239705907	 1.9379943426	-0.0418952148	 0.125165
H	-0.4242046998	 1.99831613	-0.9013179776	 0.119392
H	-0.3919101552	 2.0285300118	 0.8669806576	 0.121389
H	-1.0559327035	-0.2229841904	 0.0457110091	 0.101712
H	 0.0018524567	-0.3195929786	-2.1164355681	 0.109124
H	 1.6099681365	-0.0736017622	-1.4313410422	 0.100917
H	 1.7148367125	-2.3965378177	-3.0141733735	 0.116724
H	 0.986022459	-3.7844742098	-2.1737019829	 0.167146
H	-0.0537175775	-2.5855858347	-2.9970076009	 0.11802
H	 1.7143666787	-2.1732412815	 2.0693293092	 0.114184
H	 0.6333126808	 0.0531180497	 2.1559643887	 0.100713
92.1515	129.0208	141.0387	219.6673	229.0921	267.7405	292.6827	367.6907	424.562	441.7436	469.9274	580.1399	699.3156	729.0694	775.0672	840.3321	864.9071	934.6646	963.1663	1010.2051	1025.0641	1085.5844	1108.0897	1134.2466	1153.0014	1173.4249	1198.2909	1258.3409	1294.4632	1306.9686	1331.5178	1370.6005	1401.2283	1414.6039	1429.5583	1458.0226	1495.7124	1497.9629	1499.4834	1502.4747	1531.7685	1693.4122	1756.9853	2952.8493	2982.4611	3000.2163	3033.5783	3063.2497	3065.2797	3103.8017	3107.5181	3149.3159	3165.126	3207.5096
CC1CN(C)C(=O)C=C1	C[C@H]1CN(C)C(=O)C=C1	
InChI=1S/C7H11NO/c1-6-3-4-7(9)8(2)5-6/h3-4,6H,5H2,1-2H3	InChI=1S/C7H11NO/c1-6-3-4-7(9)8(2)5-6/h3-4,6H,5H2,1-2H3/t6-/m1/s1
