12
gdb 132887	3.10643	1.40727	0.96851	2.5858	63.28	-0.2125	-0.0635	0.149	1060.6408	0.077885	-518.084951	-518.07806	-518.077116	-518.116497	26.274	
F	 0.0792910524	 0.0442926134	-0.2922718606	-0.06853
C	-0.0164375025	 1.3468366844	-0.0486738608	 0.276613
C	-1.2160616133	 1.9531846469	 0.0786710783	-0.143227
N	-1.232473517	 3.3046782032	 0.3304052239	-0.328868
C	-0.0937289993	 4.0889782683	 0.4626032954	 0.271847
N	-0.182332027	 5.344017088	 0.6971569205	-0.559661
C	 1.1144076191	 3.2672170501	 0.2951506357	 0.272355
F	 2.2503562333	 3.938757354	 0.4061990261	-0.053411
N	 1.1625833122	 2.0143494383	 0.0613485683	-0.331169
H	-2.1632286597	 1.4411604879	-0.0051775396	 0.154695
H	-2.109230138	 3.7946083263	 0.4321222984	 0.278116
H	 0.7467200898	 5.7526570392	 0.7619902644	 0.23124
104.36	237.4465	321.7189	338.2274	355.8227	440.7812	483.4102	543.8248	598.8504	613.8626	638.7305	708.2042	755.6322	803.8331	829.4453	834.4826	1013.5253	1060.0076	1202.7886	1273.7503	1338.3186	1362.7161	1411.4211	1476.3226	1635.5451	1688.3137	1713.4567	3246.0742	3531.708	3624.961
FC1=CNC(=N)C(F)=N1	FC1=CN[C@H]([NH])C(=N1)F	
InChI=1S/C4H3F2N3/c5-2-1-8-4(7)3(6)9-2/h1H,(H2,7,8)	InChI=1S/C4H4F2N3/c5-2-1-8-4(7)3(6)9-2/h1,4,7-8H/t4-/m0/s1
