20
gdb 114634	1.85694	1.77515	1.06991	2.1496	76.03	-0.232	0.0564	0.2884	1181.2945	0.1703	-440.218859	-440.209649	-440.208705	-440.252828	34.274	
C	-0.0766679626	 1.1263082449	 0.6020643037	-0.255641
O	-0.2255788629	 0.1828712874	-0.4414721026	-0.235026
C	-1.3877816427	-0.5790108623	-0.3376165589	 0.109747
C	-1.6169172561	-1.5759793652	-1.5142055649	-0.264669
C	-1.7402896051	-2.6958201043	-0.477091861	-0.118006
N	-0.4298906259	-2.7534727401	 0.2087771103	-0.367674
C	-1.4553384191	-1.7668911862	 0.6574394327	 0.284247
C	-1.9417671651	-1.7672012705	 2.0710696709	-0.197971
O	-0.9942072566	-1.2254243032	 2.9870275203	-0.40119
H	 0.8790972449	 1.6316362728	 0.4454128645	 0.122989
H	-0.8831050782	 1.8772028083	 0.5800597045	 0.098897
H	-0.0817780129	 0.6461189846	 1.5895310025	 0.125797
H	-2.2693677681	 0.0654925064	-0.1850305483	 0.062978
H	-2.5255274229	-1.3713497438	-2.0828496755	 0.103666
H	-0.7626997992	-1.6791134222	-2.1854558672	 0.122383
H	-2.391994875	-3.5607815016	-0.5011394357	 0.096537
H	-0.4773526429	-3.5387448365	 0.8612128604	 0.221054
H	-2.8352253448	-1.1411210386	 2.1700669006	 0.115369
H	-2.2267236103	-2.7935350365	 2.3590218122	 0.086389
H	-0.1533899844	-1.6682086635	 2.8268463916	 0.290124
93.5239	107.2681	142.6889	178.991	222.9628	254.7361	304.2797	350.2596	399.956	422.2991	488.8202	561.9852	679.1238	722.9174	799.9367	900.4502	917.6858	927.3528	977.9956	1011.3575	1028.6113	1049.6215	1060.8351	1078.6765	1124.5797	1158.6121	1173.7754	1188.1078	1193.2735	1234.6373	1248.1218	1262.352	1295.6839	1336.0731	1362.7872	1388.0366	1412.4959	1439.6205	1471.4343	1484.2038	1492.8919	1496.827	1520.4847	2959.5518	2963.4427	2976.1794	3046.6831	3067.7637	3078.8646	3119.6502	3140.4491	3189.718	3438.7742	3805.7992
COC1CC2NC12CO	CO[C@H]1C[C@H]2N[C@@]12CO	
InChI=1S/C6H11NO2/c1-9-5-2-4-6(5,3-8)7-4/h4-5,7-8H,2-3H2,1H3	InChI=1S/C6H11NO2/c1-9-5-2-4-6(5,3-8)7-4/h4-5,7-8H,2-3H2,1H3/t4-,5+,6-/m1/s1
