21
gdb 81644	2.53706	1.48856	1.35223	1.8311	83.24	-0.227	0.0102	0.2372	1102.318	0.183314	-387.088594	-387.080308	-387.079364	-387.120917	33.044	
C	-0.2784993795	 1.5839020156	 0.1110607114	-0.431016
C	 0.0039702299	 0.096054811	 0.0124458676	 0.026001
C	 0.825242575	-0.5394771194	-1.13994797	 0.062692
C	 2.0742359825	 0.2740817138	-1.5138429043	-0.308175
C	 2.861528383	 0.6240205454	-0.2603424935	 0.325284
C	 4.132136432	 1.4036655546	-0.4190806199	-0.48115
C	 2.3707079053	 0.1950069188	 0.906505921	-0.162619
C	 1.1002648275	-0.6226159743	 0.855102844	 0.026784
O	 1.2294063894	-1.5984837062	-0.2286286352	-0.298514
H	 0.636228959	 2.1802909562	 0.0728960792	 0.121027
H	-0.9332297308	 1.9075352376	-0.7059631822	 0.114983
H	-0.7903645357	 1.8195656299	 1.0507762586	 0.116363
H	-0.9227063056	-0.4773604732	 0.1082918178	 0.084398
H	 0.2946754705	-0.9233057111	-2.0164974832	 0.069093
H	 2.7011966701	-0.3098031263	-2.2012689708	 0.112534
H	 1.7922497484	 1.1869871992	-2.0582296194	 0.102454
H	 3.9511041309	 2.3656413609	-0.9159120743	 0.121752
H	 4.6068422618	 1.6010993371	 0.5459529215	 0.121834
H	 4.8504887779	 0.8615309727	-1.0480317566	 0.126576
H	 2.8545945053	 0.4060396047	 1.8552239811	 0.081202
H	 0.8294322231	-1.0908754271	 1.8039570973	 0.068496
127.585	184.1473	199.3669	223.1163	275.2605	320.2625	375.3431	425.953	464.9325	550.3235	594.8912	618.028	760.5179	793.8368	816.5347	850.4805	879.6067	898.6283	951.4528	966.7763	980.2785	1019.329	1051.383	1062.9837	1088.6719	1103.203	1158.3509	1165.901	1197.3084	1213.4002	1239.7627	1307.4187	1318.8064	1327.3211	1352.1689	1379.5819	1393.081	1413.2043	1416.7703	1462.2132	1477.7761	1488.3724	1495.3151	1504.9048	1718.3624	3004.938	3013.9892	3031.9578	3036.6044	3058.5992	3058.8051	3069.0514	3087.8249	3089.415	3109.4843	3119.8365	3171.9852
CC1C2CC(C)=CC1O2	C[C@H]1[C@H]2CC(=C[C@@H]1O2)C	
InChI=1S/C8H12O/c1-5-3-7-6(2)8(4-5)9-7/h3,6-8H,4H2,1-2H3	InChI=1S/C8H12O/c1-5-3-7-6(2)8(4-5)9-7/h3,6-8H,4H2,1-2H3/t6-,7+,8-/m1/s1
