13
gdb 48098	3.95513	1.02289	0.89604	3.3819	59.89	-0.272	-0.1193	0.1527	1218.9957	0.086731	-493.731233	-493.723007	-493.722063	-493.765946	27.902	
O	-1.0905364445	 1.6661939503	-0.3188504545	-0.211531
C	-0.0316236839	 1.1241112639	-0.4991171251	 0.077983
C	 1.3102372103	 1.8289966282	-0.2670676172	 0.27355
O	 2.3386129066	 1.2215517804	-0.4255135684	-0.253983
C	 1.2279153795	 3.2674412742	 0.2015848233	 0.026771
C	 1.2783926842	 3.4650435596	 1.7384959186	-0.429733
C	 2.595844468	 4.176596814	 1.4179161717	 0.456579
O	 3.4549527747	 4.7437122418	 2.0032010063	-0.295154
O	 2.4955005332	 3.9632611693	 0.060686379	-0.227449
H	 0.07743486	 0.0728427358	-0.8353802218	 0.125067
H	 0.4200232884	 3.8011475497	-0.3012885388	 0.135924
H	 0.5029739608	 4.1024975403	 2.1632007149	 0.163736
H	 1.3923546226	 2.5622750726	 2.340832952	 0.15824
24.9718	81.3718	127.1461	164.6815	227.3762	290.5415	482.3306	517.3959	521.8076	560.4699	625.8879	752.6372	784.7965	914.1406	965.364	981.7841	1019.8375	1041.2795	1106.214	1127.2314	1175.1077	1217.1681	1263.3435	1359.3435	1377.7501	1452.3584	1818.3412	1820.2748	1958.3897	2943.0573	3096.4807	3111.8387	3159.8157
O=CC(=O)C1CC(=O)O1	O=CC(=O)[C@H]1CC(=O)O1	
InChI=1S/C5H4O4/c6-2-3(7)4-1-5(8)9-4/h2,4H,1H2	InChI=1S/C5H4O4/c6-2-3(7)4-1-5(8)9-4/h2,4H,1H2/t4-/m1/s1
