18
gdb 47201	2.63149	1.68771	1.15553	2.6494	79.22	-0.2403	-0.0246	0.2157	1070.2126	0.149591	-401.962065	-401.954392	-401.953447	-401.994236	29.997	
O	 0.0783279291	 0.0241365911	 0.2926283051	-0.337039
C	 0.0035410559	 1.2187162542	 0.0934297675	 0.320093
C	-1.3108652284	 1.9559958033	-0.0696576551	-0.316571
C	-1.2914183449	 2.9524479516	-1.2449799806	-0.278676
C	-0.0197719641	 3.7593922974	-1.2844971848	-0.089504
C	 1.1125638562	 3.3622209272	-0.7041518657	-0.097037
C	 1.2376531845	 2.0774801048	 0.0229412059	 0.213689
C	 2.173326921	 1.9190823115	 1.1945100018	-0.262695
N	 2.523527754	 1.3553504992	-0.0973821178	-0.348856
H	-2.1177119653	 1.2248230478	-0.1544112994	 0.123473
H	-1.4650543324	 2.5207684165	 0.8606941669	 0.131154
H	-1.4125864218	 2.4124932892	-2.1951638442	 0.126928
H	-2.1606787906	 3.6154888863	-1.1721032757	 0.114669
H	-0.0419712217	 4.6960303886	-1.8346474019	 0.096845
H	 2.0179083307	 3.958003915	-0.7753131548	 0.100337
H	 2.7583313558	 2.7806565647	 1.5060095749	 0.123914
H	 1.8562527325	 1.2520445131	 1.9919154521	 0.130338
H	 2.2933267994	 0.3600439486	-0.0909087341	 0.248937
85.1438	148.84	262.4465	270.0071	297.7466	389.3574	428.501	512.3737	538.2344	624.8266	671.8728	717.4346	781.2373	837.1712	875.5231	885.9698	932.1997	963.7888	997.4051	1010.9429	1019.8881	1038.2024	1102.4431	1117.1813	1147.6774	1185.5606	1190.2902	1258.3504	1286.6084	1322.9344	1334.5517	1367.8302	1377.3873	1431.9983	1461.4545	1486.4825	1496.4811	1719.8715	1793.7954	3007.2213	3020.7781	3058.8086	3104.058	3111.7455	3159.3391	3181.4747	3197.2653	3452.3748
O=C1CCC=CC11CN1	O=C1CCC=C[C@]21CN2	
InChI=1S/C7H9NO/c9-6-3-1-2-4-7(6)5-8-7/h2,4,8H,1,3,5H2	InChI=1S/C7H9NO/c9-6-3-1-2-4-7(6)5-8-7/h2,4,8H,1,3,5H2/t7-/m1/s1
