18
gdb 127483	3.24199	1.15956	0.90496	1.6633	77.1	-0.1967	0.0171	0.2139	1281.5937	0.148936	-435.282196	-435.272972	-435.272027	-435.316102	33.81	
C	-0.4557076067	 1.1852070522	 0.264199686	-0.337822
N	-0.1318525472	-0.2232640989	 0.1909862414	-0.013543
N	-0.2110191361	-0.8639753527	-1.0048258061	-0.344591
C	 0.2072595829	-2.1030015132	-0.7585638468	 0.383509
N	 0.3235871886	-3.0349608082	-1.7913078084	-0.590768
C	 0.5461978583	-2.2740592537	 0.6032908689	-0.401364
C	 0.3181914002	-1.0366082131	 1.1804839177	 0.352585
C	 0.497871083	-0.5918213199	 2.5978134916	-0.187099
O	-0.7008979515	-0.1015142933	 3.1983640204	-0.407019
H	 0.4070272404	 1.8090838092	 0.0018369256	 0.132257
H	-1.2602476369	 1.3901500379	-0.4440041248	 0.148256
H	-0.7867734849	 1.420692177	 1.2763379042	 0.159909
H	-0.1858189756	-2.7382142857	-2.6141279864	 0.248088
H	 0.0431959621	-3.9680024734	-1.5211211384	 0.242931
H	 0.9124938305	-3.16112179	 1.095447799	 0.095132
H	 0.9204794447	-1.428439623	 3.1709720523	 0.109716
H	 1.2090046389	 0.2388161008	 2.6676391591	 0.124084
H	-1.3771395106	-0.7773343822	 3.0788493249	 0.28574
82.5174	142.2256	151.1822	171.2475	237.6807	260.2836	298.9758	306.5754	371.427	419.5445	502.6935	608.1893	645.2611	683.4235	733.0396	754.5	781.8615	819.5032	962.7832	1018.0816	1039.5684	1066.5665	1135.3048	1153.0115	1182.2654	1188.136	1237.5557	1324.6287	1355.2542	1416.6423	1435.8768	1466.6121	1494.1128	1496.8779	1501.8187	1521.6473	1538.1502	1600.0232	1647.9245	3012.7987	3030.9916	3064.7862	3114.1226	3159.1676	3255.0765	3541.8529	3637.5787	3806.1961
CN1N=C(N)C=C1CO	Cn1nc(N)cc1CO	
InChI=1S/C5H9N3O/c1-8-4(3-9)2-5(6)7-8/h2,9H,3H2,1H3,(H2,6,7)	InChI=1S/C5H9N3O/c1-8-4(3-9)2-5(6)7-8/h2,9H,3H2,1H3,(H2,6,7)
