19
gdb 90163	3.36672	1.43121	1.28212	2.3238	74.43	-0.2332	0.0689	0.3021	1035.9673	0.160805	-422.983715	-422.976122	-422.975177	-423.015411	30.511	
O	-0.070341569	 1.4327735823	-0.1217716521	-0.43127
C	 0.000020787	 0.0334515271	 0.0352904618	 0.049772
C	 0.2715476992	-0.5579503344	 1.4652148815	-0.336744
C	-1.084810699	-1.2804418328	 1.3835257548	 0.219533
C	-2.2066688559	-0.3047446108	 1.1979956865	-0.363464
C	-1.3651451073	-0.6546466678	 0.0035054349	 0.236314
C	-1.8279190161	-1.7881365658	-0.8772263004	-0.164305
O	-2.1885686587	-2.8409722157	 0.0339558896	-0.261005
C	-1.3763238405	-2.7519768807	 1.2141452105	-0.154202
H	 0.8157781415	 1.7927427237	-0.0105729505	 0.28378
H	 0.6756260909	-0.4163482857	-0.7060926313	 0.070728
H	 1.1307111606	-1.2329337861	 1.4926108004	 0.101364
H	 0.3649208182	 0.1750573146	 2.272343966	 0.100637
H	-3.2067983615	-0.7243982892	 1.193619851	 0.128804
H	-2.1253964273	 0.689151626	 1.6250765055	 0.123822
H	-2.7186834729	-1.5921087014	-1.4823186482	 0.110978
H	-1.0131997155	-2.1016263184	-1.5503704317	 0.08785
H	-0.4318987622	-3.3089571244	 1.0970664654	 0.08716
H	-1.9540220815	-3.2208073306	 2.0173457763	 0.110248
121.8549	213.7279	250.6941	288.1786	303.0883	337.8614	423.221	459.6465	564.1548	642.0884	675.2171	707.6145	828.1539	844.681	860.8252	910.0828	950.757	964.3753	969.2425	987.6568	1033.3239	1043.4408	1083.3731	1090.4224	1146.312	1163.6564	1192.7846	1226.3781	1234.1229	1245.4672	1274.0088	1292.8811	1321.7608	1359.8753	1373.2054	1391.9441	1427.0171	1466.9209	1487.0844	1511.5633	1519.8188	2965.9311	2972.1473	2995.1586	3048.4725	3067.7264	3071.2329	3107.2891	3133.2605	3223.4982	3812.0539
OC1CC23CC12COC3	O[C@H]1C[C@@]23C[C@@]12COC3	
InChI=1S/C7H10O2/c8-5-1-6-2-7(5,6)4-9-3-6/h5,8H,1-4H2	InChI=1S/C7H10O2/c8-5-1-6-2-7(5,6)4-9-3-6/h5,8H,1-4H2/t5-,6-,7+/m0/s1
