20
gdb 108759	2.72349	1.16841	0.91197	4.7561	83.03	-0.2357	-0.0197	0.2161	1334.9893	0.170928	-403.21331	-403.203831	-403.202887	-403.248121	34.778	
C	-0.3021862014	 1.4573448869	-0.0986071515	-0.37873
C	 0.1470349957	-0.0106065573	 0.0219044022	-0.292956
C	 0.8410243489	-0.5287748558	-1.2008382622	 0.349776
C	 2.108825365	-0.9389350778	-1.3178105866	-0.34781
C	 2.3952497639	-1.3604647227	-2.7180352985	 0.425126
O	 3.4338550533	-1.7634797485	-3.19934766	-0.393029
N	 1.1969948339	-1.1909216251	-3.3807415653	-0.345801
C	 0.1411722125	-0.6545836152	-2.5484259304	-0.057466
C	-1.1066679411	-1.5495092481	-2.5191514178	-0.393889
H	 0.5517745864	 2.1120586054	-0.2966100332	 0.129253
H	-1.0244802999	 1.5935940654	-0.909464569	 0.121685
H	-0.7780087467	 1.7888470611	 0.828859845	 0.121234
H	 0.8191378898	-0.1177979553	 0.8794533891	 0.114325
H	-0.7317516606	-0.6334558885	 0.2369302997	 0.113871
H	 2.862408542	-0.9763254432	-0.542989988	 0.113566
H	 1.1134443004	-1.3452426495	-4.3712379327	 0.24786
H	-0.1563537723	 0.3464664339	-2.8993636026	 0.09781
H	-0.853930275	-2.5449898104	-2.1434573127	 0.132742
H	-1.8833407751	-1.1172239215	-1.8808085839	 0.122212
H	-1.5247275595	-1.6558092839	-3.5249218616	 0.120221
57.7922	64.8077	140.9907	201.3358	231.8779	252.1667	269.7871	331.718	374.0045	453.1572	521.9745	549.1157	626.1469	697.2724	741.6407	779.446	805.3125	895.4032	930.61	958.1235	975.7717	1041.3009	1058.3104	1081.4507	1109.1607	1139.5112	1168.1885	1214.3506	1273.0218	1308.4736	1343.0598	1351.1803	1364.4666	1400.546	1408.5229	1419.9101	1479.1726	1494.0536	1496.7942	1498.6965	1507.4533	1687.2568	1820.8919	2976.29	3019.1637	3039.1558	3040.3306	3071.8163	3108.9273	3111.8799	3115.7969	3122.4984	3231.8029	3666.6233
CCC1=CC(=O)NC1C	CCC1=CC(=O)N[C@H]1C	
InChI=1S/C7H11NO/c1-3-6-4-7(9)8-5(6)2/h4-5H,3H2,1-2H3,(H,8,9)	InChI=1S/C7H11NO/c1-3-6-4-7(9)8-5(6)2/h4-5H,3H2,1-2H3,(H,8,9)/t5-/m0/s1
