18
gdb 39700	4.30482	1.51993	1.48998	1.9482	77.59	-0.2265	0.0811	0.3077	938.2726	0.149804	-364.704358	-364.698066	-364.697122	-364.734763	26.801	
C	 0.0451527474	 1.4987131767	 0.0067418665	-0.340412
C	 1.3629424648	 0.7415909075	-0.009457795	-0.343121
C	 0.0667015722	 0.0002398654	 0.0017534584	 0.414445
C	-0.5695372591	-0.9177484165	 1.0514193186	-0.17703
C	-0.0689490291	-2.347232974	 0.7409511465	-0.044237
C	-0.0846094448	-2.3425210001	-0.7494538157	-0.044234
C	-0.5913956029	-0.9110818097	-1.0402323309	-0.177035
C	-1.6793304495	-1.3033597099	 0.0158353201	 0.029753
N	-1.3028147453	-2.7915173194	 0.0072203034	-0.185559
H	-0.2361098717	 2.0096129913	 0.9222372835	 0.11314
H	-0.2552016156	 2.0153983348	-0.8993938177	 0.11314
H	 1.9434834384	 0.7534334454	-0.9264804213	 0.112742
H	 1.9625461623	 0.7476604777	 0.8952727222	 0.112741
H	-0.7504619004	-0.6185933426	 2.0817869555	 0.072575
H	 0.508902262	-3.0274638886	 1.3542042729	 0.094187
H	 0.4801647411	-3.0188292716	-1.3790114685	 0.094189
H	-0.7937930313	-0.6053586087	-2.0646603362	 0.072571
H	-2.7192870884	-0.9864912375	 0.0277117077	 0.082144
148.3656	245.0479	257.1964	462.8753	568.0935	579.9854	763.2677	774.1981	785.051	797.8044	806.7422	846.1529	859.7023	880.6467	899.7124	914.3816	919.179	946.0628	973.0507	984.6205	997.6936	1035.0469	1049.3322	1064.4195	1076.5908	1079.514	1135.6235	1166.2557	1182.6975	1184.6091	1202.722	1208.4348	1233.5691	1253.1558	1300.4496	1332.8533	1408.4084	1463.167	1507.7693	3121.7137	3125.7705	3134.4494	3137.2207	3149.6765	3184.6246	3196.3912	3198.9048	3213.2628
C1CC11C2C3C4C1C2N34	C1CC21[C@@H]1[C@@H]3[C@@H]4[C@H]2[C@H]1N34	
InChI=1S/C8H9N/c1-2-8(1)3-5-4(8)7-6(3)9(5)7/h3-7H,1-2H2	InChI=1S/C8H9N/c1-2-8(1)3-5-4(8)7-6(3)9(5)7/h3-7H,1-2H2/t3-,4+,5-,6+,7-,9?
