23
gdb 75047	2.35407	1.41847	1.02824	0.5781	96.06	-0.2098	-0.0074	0.2023	1274.3918	0.207727	-351.176298	-351.167456	-351.166512	-351.209343	35.12	
C	 0.0792604363	 1.6239392552	 0.0690216761	-0.459692
C	 0.0105550652	 0.1183967346	-0.0571019965	 0.28435
C	-0.0061896519	-0.4288708786	-1.2862648959	-0.158136
C	-0.136049962	-1.8145759542	-1.7451401715	-0.081455
C	-0.9555654162	-2.7598540683	-1.267808153	-0.06069
C	-1.8525340677	-2.5843615842	-0.0772430219	-0.250631
C	-1.1229822761	-2.8801217128	 1.2493332997	-0.183935
C	 0.1797733226	-2.0866283493	 1.4216189564	-0.2005
C	 0.0368592292	-0.5605069586	 1.3015827321	-0.269957
H	 0.9873152752	 1.9388163619	 0.6001360924	 0.119316
H	 0.0635411835	 2.1183317853	-0.9050339291	 0.118291
H	-0.7664013218	 2.0061278862	 0.656188952	 0.120635
H	 0.0970209752	 0.2786001234	-2.1105746684	 0.075509
H	 0.4471014865	-2.0509256238	-2.6346869931	 0.081349
H	-0.9546097327	-3.7351252529	-1.7502262625	 0.081543
H	-2.2196515277	-1.5512612092	-0.0553029653	 0.108043
H	-2.7296135261	-3.2358757625	-0.1608343516	 0.090939
H	-1.8016466733	-2.6589957754	 2.0832475885	 0.089658
H	-0.8952393833	-3.9515640258	 1.3128744619	 0.091499
H	 0.5789389454	-2.3066073465	 2.4189641313	 0.088422
H	 0.9306710211	-2.4404083336	 0.7090688675	 0.109968
H	 0.877991527	-0.102277731	 1.8424293364	 0.103115
H	-0.8504144981	-0.23064352	 1.8653638946	 0.102358
95.5401	155.3921	197.5348	245.6434	264.0515	302.7627	313.6287	369.0435	429.2992	476.6103	506.3623	584.4168	686.7033	721.733	797.7052	818.5255	829.4438	876.2625	897.5212	931.3656	982.6623	997.3767	1004.4	1034.3177	1052.9561	1091.2334	1096.0342	1113.9539	1155.9253	1192.386	1197.3917	1271.8566	1289.313	1301.3534	1349.137	1368.8882	1383.5826	1391.8397	1405.7014	1416.1015	1433.7816	1467.226	1478.3123	1481.9201	1489.369	1493.637	1496.4384	1698.6677	1709.3703	2981.9185	3003.3436	3011.4776	3014.8329	3027.2943	3039.5627	3050.5893	3054.3551	3071.8198	3087.9908	3100.923	3116.3149	3123.4286	3152.9282
CC1=CC=CCCCC1	CC1=CC=CCCCC1	
InChI=1S/C9H14/c1-9-7-5-3-2-4-6-8-9/h3,5,7H,2,4,6,8H2,1H3/b5-3-,9-7-	InChI=1S/C9H14/c1-9-7-5-3-2-4-6-8-9/h3,5,7H,2,4,6,8H2,1H3/b5-3-,9-7-
