19
gdb 126681	3.1508	1.19906	0.95433	6.0866	78.75	-0.2007	0.0225	0.2232	1259.2399	0.159967	-415.376003	-415.366806	-415.365862	-415.410527	33.142	
C	-0.1539229075	 1.57242002	 0.0370383597	-0.385112
C	-0.0092793705	 0.0469801582	-0.03138731	-0.165885
N	-1.2687917649	-0.6916838719	 0.0017720988	-0.156922
C	-2.0803278647	-0.7023075363	-1.2006621449	-0.357179
C	-1.8979975544	-0.816927749	 1.2178749302	 0.456679
C	-1.467211597	-0.641783741	 2.5253607403	-0.177336
N	-2.4889979863	-0.9582865925	 3.3679537908	-0.184608
N	-3.5325705547	-1.3116117674	 2.6899513142	-0.136126
N	-3.1849361347	-1.2238442506	 1.3695252295	-0.287301
H	 0.8319728337	 2.0476813114	 0.0266776077	 0.122954
H	-0.7199024265	 1.9567282368	-0.8175109027	 0.120557
H	-0.6694763616	 1.8750577603	 0.9528704647	 0.140165
H	 0.5113321712	-0.2415400543	-0.9510074023	 0.10984
H	 0.6084783845	-0.3116701213	 0.7979899287	 0.127254
H	-2.659007682	-1.6315106856	-1.2641438571	 0.129768
H	-2.7794213282	 0.1462219898	-1.2703326752	 0.124005
H	-1.4221713834	-0.673659888	-2.0718611729	 0.137884
H	-0.5095060447	-0.3164139038	 2.8934798121	 0.110369
H	-3.8671280384	-1.4508841346	 0.6667522582	 0.270993
62.6186	82.823	119.6813	166.6991	208.7868	259.2179	295.2496	382.5593	418.7326	474.9885	508.5946	608.9276	698.222	721.0117	772.0863	794.9889	886.0042	981.9646	1001.6048	1016.0096	1061.0417	1088.0793	1105.3273	1142.5389	1149.0814	1213.3182	1235.535	1299.2819	1331.2524	1366.0877	1387.8918	1407.4309	1418.224	1447.5904	1466.2786	1486.3741	1488.5666	1493.9099	1508.2497	1519.0664	1638.8664	2976.253	3039.8074	3042.7217	3050.7527	3081.3136	3110.6464	3118.3551	3121.9223	3279.5341	3681.1344
CCN(C)C1=CN=NN1	CCN(C)c1cnn[nH]1	
InChI=1S/C5H10N4/c1-3-9(2)5-4-6-8-7-5/h4H,3H2,1-2H3,(H,6,7,8)	InChI=1S/C5H10N4/c1-3-9(2)5-4-6-8-7-5/h4H,3H2,1-2H3,(H,6,7,8)
