17
gdb 7608	3.45946	1.59622	1.31946	2.8396	65.46	-0.2381	0.0296	0.2677	975.3996	0.141019	-401.026976	-401.018318	-401.017374	-401.059723	32.452	
C	 0.0570285016	 1.525504834	 0.0257209181	-0.429491
C	 0.0781073634	 0.0144202922	 0.0233365173	-0.035468
C	 1.3526357412	-0.7443129061	-0.2200310747	-0.311172
C	 0.7399163848	-0.743410574	 1.1622767573	 0.268061
O	 1.4476185761	-0.0328600068	 2.1486868488	-0.473609
C	 0.0838500225	-2.0252334102	 1.6090517058	 0.348456
N	 0.3036231822	-2.3356240346	 2.9193904365	-0.541715
O	-0.5946607552	-2.7022173051	 0.8564665229	-0.379805
H	 0.9664304708	 1.9356832777	 0.4742034644	 0.124799
H	-0.015503811	 1.9110269669	-0.9964092812	 0.127622
H	-0.8031974691	 1.9137067639	 0.5835073984	 0.115847
H	-0.8192542836	-0.4750467215	-0.3424750062	 0.117699
H	 1.3032238946	-1.6718767151	-0.7773624279	 0.136077
H	 2.2701776188	-0.1738067676	-0.3167691707	 0.120636
H	 0.8201018651	 0.5283604458	 2.6189113427	 0.289883
H	 1.0388385868	-1.8546229013	 3.4108508987	 0.262983
H	 0.0177216211	-3.2491792483	 3.2319803198	 0.259198
80.5826	160.8887	181.6833	200.4847	277.072	309.6434	353.2321	382.1966	449.5406	453.1033	513.4233	571.8861	624.8123	687.746	745.4124	822.267	899.7584	907.6778	946.7504	1021.8873	1057.2178	1083.9663	1097.6641	1133.4162	1191.8715	1213.941	1264.9691	1341.491	1374.0134	1399.3577	1422.7863	1467.1301	1498.4313	1503.2582	1592.8625	1787.3922	3030.0866	3089.8508	3110.216	3138.7878	3166.3382	3237.9251	3591.502	3727.1032	3788.3475
CC1CC1(O)C(N)=O	C[C@H]1C[C@]1(O)C(=O)N	
InChI=1S/C5H9NO2/c1-3-2-5(3,8)4(6)7/h3,8H,2H2,1H3,(H2,6,7)	InChI=1S/C5H9NO2/c1-3-2-5(3,8)4(6)7/h3,8H,2H2,1H3,(H2,6,7)/t3-,5+/m0/s1
