22
gdb 120143	2.87802	1.01055	0.90173	2.1927	82.97	-0.2268	0.0678	0.2945	1427.2884	0.193502	-404.297801	-404.288287	-404.287342	-404.33263	35.734	
C	-0.1868488698	 1.4992145022	 0.1862440906	-0.37984
C	-0.1685930574	 0.0087706119	-0.1620702309	-0.163164
C	 0.9680374268	-0.356439678	-1.1173365726	-0.122961
N	 0.9818556219	-1.8001449978	-1.3487147757	-0.076783
C	 0.1901010908	-2.4674266736	-2.350625523	-0.042775
C	 0.096668909	-1.6796298485	-3.6707441192	-0.306999
C	 1.6617853096	-1.745567902	-3.7617912571	 0.109825
O	 2.4214913588	-0.5584461053	-3.8313251647	-0.426185
C	 1.7075312351	-2.4602281503	-2.405686037	-0.072118
H	 0.7460519442	 1.8040866045	 0.6734759813	 0.114814
H	-0.3063460634	 2.1172942073	-0.7106864081	 0.111914
H	-1.0100257909	 1.7385436117	 0.8663717296	 0.110986
H	-0.0712932351	-0.5943034543	 0.7479257462	 0.103361
H	-1.1256838816	-0.2768331388	-0.6180954883	 0.09303
H	 0.8956481726	 0.235690818	-2.0379102951	 0.100191
H	 1.9338406283	-0.1015239964	-0.6649805007	 0.101598
H	-0.4734034939	-3.2699676273	-2.0475808515	 0.092306
H	-0.3939527752	-2.2347026701	-4.4734902976	 0.100961
H	-0.344485101	-0.681032901	-3.6073980027	 0.102761
H	 1.9567896759	-2.4457614863	-4.5558924714	 0.076129
H	 2.349023849	-0.2052966372	-4.7238665116	 0.284303
H	 2.4240375765	-3.2296649687	-2.1370139304	 0.088648
57.3376	83.0449	110.6164	196.2276	230.4243	259.6028	284.5469	352.1703	361.0324	429.6516	484.8122	625.5764	740.5099	748.8143	755.3391	830.5046	866.852	893.6213	897.6912	912.9769	964.4805	996.6008	1029.3695	1036.634	1052.6703	1074.5397	1109.1412	1135.2296	1173.8493	1184.7602	1195.2395	1226.5432	1255.4613	1276.4795	1288.7162	1316.2016	1318.87	1332.2524	1387.0279	1409.1227	1413.7584	1427.0566	1474.5133	1491.3533	1499.5534	1504.0252	1517.9062	3000.5785	3021.2461	3027.7548	3032.072	3052.5359	3058.342	3072.0433	3097.1537	3102.5961	3112.8198	3160.1411	3173.6436	3814.0108
CCCN1C2CC(O)C12	CCCN1[C@H]2C[C@@H](O)[C@@H]12	
InChI=1S/C7H13NO/c1-2-3-8-5-4-6(9)7(5)8/h5-7,9H,2-4H2,1H3	InChI=1S/C7H13NO/c1-2-3-8-5-4-6(9)7(5)8/h5-7,9H,2-4H2,1H3/t5-,6+,7-,8?/m0/s1
