19
gdb 101109	3.55919	1.10186	0.99004	3.0373	71.53	-0.2487	0.0658	0.3145	1234.7209	0.158593	-460.085261	-460.076728	-460.075784	-460.118656	32.849	
O	 0.1033642341	 1.3580004801	-0.1613882823	-0.42565
C	 0.0710811358	-0.0153165817	 0.1583998496	-0.070278
C	-1.3647971569	-0.5482066675	 0.0715867286	-0.055736
O	-1.9243633816	-0.1923204256	-1.193601424	-0.445674
C	-1.4491788974	-2.0386792485	 0.2458191055	 0.416841
C	-0.7624934926	-3.0199451782	 1.2329782342	-0.273219
C	-1.4080333822	-3.8230693129	 0.0791955912	 0.050176
C	-2.6891980904	-2.969516689	 0.1988605589	-0.259188
O	-0.8634226417	-2.8320355125	-0.8833202846	-0.360389
H	-0.4653898458	 1.4497265738	-0.9373503314	 0.286648
H	 0.7119202376	-0.6103610596	-0.5129231182	 0.095743
H	 0.4579548935	-0.1269354494	 1.1771889151	 0.106165
H	-1.9805928651	-0.0487531018	 0.8287513852	 0.100048
H	-1.6301953146	-0.8702185685	-1.8177328779	 0.297494
H	 0.3276232112	-2.9991543506	 1.2323949819	 0.116569
H	-1.1907071013	-3.1208683628	 2.2328520903	 0.10281
H	-1.295209598	-4.8754572969	-0.1779562108	 0.103398
H	-3.2893667089	-3.0645002535	 1.1068937688	 0.100246
H	-3.2905059759	-2.896228535	-0.7071574901	 0.113997
74.5889	112.6828	136.3882	217.7078	296.2208	356.5047	398.1056	431.0131	501.3593	532.589	545.1787	606.9522	701.8607	770.1357	808.28	873.6247	906.4187	932.7268	953.3477	983.6496	985.0519	1058.5528	1073.5592	1088.9398	1100.1789	1117.9695	1125.2699	1161.8917	1206.3126	1213.6057	1233.5871	1241.88	1260.7974	1309.721	1341.9241	1384.7236	1435.4163	1445.6791	1468.3098	1509.7718	1514.7214	2974.8208	3050.9871	3066.3704	3071.98	3074.756	3129.8904	3152.1389	3157.2827	3755.1847	3763.4533
OCC(O)C12CC(C1)O2	OC[C@@H](O)[C@@]12C[C@@H](C1)O2	
InChI=1S/C6H10O3/c7-3-5(8)6-1-4(2-6)9-6/h4-5,7-8H,1-3H2	InChI=1S/C6H10O3/c7-3-5(8)6-1-4(2-6)9-6/h4-5,7-8H,1-3H2/t4-,5-,6+/m1/s1
