17
gdb 52053	2.90301	0.87855	0.73693	3.7844	74.39	-0.2644	-0.0365	0.2279	1497.8624	0.134505	-417.998037	-417.98876	-417.987815	-418.033509	32.352	
O	-0.8621497222	 0.8933142506	 0.4732052696	-0.228862
C	 0.1150909339	 0.9463415479	-0.2258385177	 0.156124
C	 1.2475573457	 1.9352790706	-0.0543804316	-0.279822
C	 1.4385558136	 2.7930438901	-1.3196034141	-0.298877
C	 2.6475164528	 3.7146541099	-1.2359666953	 0.157538
C	 2.6152471313	 5.0452048029	-1.9163149169	-0.269708
N	 2.5751400101	 4.9672344636	-0.4547991287	-0.320766
C	 3.9179998907	 3.0211152659	-1.1315024417	 0.290347
N	 4.9084351581	 2.4278896351	-1.0725866296	-0.338636
H	 0.2474872243	 0.2447042762	-1.0830229932	 0.079097
H	 1.0452065922	 2.5528900003	 0.8249232234	 0.128785
H	 2.1682055056	 1.3640367276	 0.1289215273	 0.150148
H	 1.5466527853	 2.1422666433	-2.1959769172	 0.131902
H	 0.5492202004	 3.4106561441	-1.4910359726	 0.118108
H	 3.529981029	 5.4595568773	-2.3276536772	 0.148866
H	 1.7088970876	 5.2893306085	-2.4643117187	 0.129972
H	 1.6248759219	 5.0922667561	-0.1119065959	 0.245784
47.468	68.579	104.3646	129.0514	206.2213	235.2082	296.9465	362.8326	393.6525	519.2	572.4063	596.5046	698.7468	769.9515	845.1483	868.7359	896.5331	951.8671	984.512	1005.9099	1057.3261	1091.4895	1108.1424	1147.2922	1193.6856	1240.5455	1279.7857	1297.5877	1309.7869	1373.5158	1385.7795	1428.7883	1464.4612	1485.2888	1509.136	1840.0805	2357.5434	2856.8164	3024.449	3032.6257	3072.6682	3108.4056	3116.4609	3210.3935	3494.8587
O=CCCC1(CN1)C#N	O=CCC[C@]1(CN1)C#N	
InChI=1S/C6H8N2O/c7-4-6(5-8-6)2-1-3-9/h3,8H,1-2,5H2	InChI=1S/C6H8N2O/c7-4-6(5-8-6)2-1-3-9/h3,8H,1-2,5H2/t6-/m1/s1
