14
gdb 70169	2.71184	1.74445	1.19486	4.3683	63.38	-0.2489	-0.0774	0.1714	976.6593	0.100708	-473.847813	-473.840161	-473.839217	-473.879921	28.998	
O	 0.0850579108	 1.371116871	-0.2143160608	-0.466027
C	-0.0037981822	 0.0036966753	-0.0537887752	 0.34361
C	-0.4818317937	-0.8570358805	-1.2256703099	-0.350865
C	-1.305623385	-0.7571647963	 0.0328046905	-0.091705
N	-1.1024968623	-1.8182465893	 0.9922122372	-0.319065
C	 0.1798838603	-1.8990852705	 1.4831330245	 0.315852
O	 0.6564080636	-2.7665802572	 2.1713372636	-0.336984
C	 0.8842116608	-0.6173193097	 0.9662957077	 0.232814
O	 1.8977249235	-0.1273928138	 1.3931452065	-0.313518
H	 0.9129955022	 1.6322526489	 0.2149934809	 0.304529
H	-0.7946439502	-0.2595948551	-2.0755451643	 0.14748
H	 0.0056866315	-1.7973763352	-1.4601057595	 0.136359
H	-2.25722836	-0.2400625501	 0.0528720635	 0.134277
H	-1.6804964494	-2.6469646673	 0.9911348754	 0.263244
90.5057	157.0641	275.4103	290.9298	323.9546	328.8811	435.0013	466.9081	539.7409	560.4694	592.7997	661.9582	707.3407	807.0345	868.771	902.5325	919.5809	990.2619	1009.8055	1056.045	1066.7008	1108.7605	1201.3267	1228.1838	1338.5996	1387.5736	1394.1628	1426.9021	1485.1639	1843.236	1845.4955	3131.8001	3192.3137	3231.5767	3602.3298	3736.6964
OC12CC1NC(=O)C2=O	O[C@]12C[C@H]1NC(=O)C2=O	
InChI=1S/C5H5NO3/c7-3-4(8)6-2-1-5(2,3)9/h2,9H,1H2,(H,6,8)	InChI=1S/C5H5NO3/c7-3-4(8)6-2-1-5(2,3)9/h2,9H,1H2,(H,6,8)/t2-,5-/m1/s1
