17
gdb 79781	2.96997	2.09478	1.84227	2.7438	68.77	-0.2447	0.0423	0.287	813.8297	0.138868	-421.747014	-421.741219	-421.740275	-421.776811	25.557	
O	 0.1069240136	 1.4292094636	-0.0802126556	-0.447712
C	-0.013591506	 0.043834807	 0.0324035772	 0.191463
C	 0.2430236339	-0.6890938719	 1.3782990951	-0.146097
C	-0.760874649	-0.169364545	 2.4770472518	 0.094211
O	-1.6202465184	 0.880349241	 1.947121133	-0.320016
C	-2.3062004782	-0.1413380474	 1.1681076396	 0.094211
C	-1.3985307507	-0.6593225465	-0.0121486498	-0.146098
C	-0.8284376274	-1.7633024358	 0.9557126824	-0.062095
C	-1.7780302125	-1.2768699348	 2.0872102593	-0.097172
H	-0.4690911151	 1.7908823803	 0.607567961	 0.289196
H	 0.6286598185	-0.4007878567	-0.7353555528	 0.088591
H	 1.2586251187	-0.914160917	 1.7032903969	 0.067568
H	-0.3885758418	 0.0604122558	 3.4753654252	 0.087696
H	-3.3470403665	 0.114067078	 0.9694530029	 0.087696
H	-1.8906332492	-0.8570457741	-0.9642313518	 0.067568
H	-0.6089244261	-2.7890840586	 0.6745932965	 0.071887
H	-2.3739970239	-1.8692461978	 2.7781210992	 0.079102
245.8473	273.4801	459.3884	547.0554	567.583	630.1352	648.7987	728.1705	756.8332	789.1871	795.6337	826.3751	837.7129	861.2135	871.8941	933.8048	940.3695	959.3394	1003.2735	1003.7536	1067.3235	1070.6634	1090.8438	1127.3065	1159.9284	1168.8362	1180.6019	1184.9476	1192.5396	1244.4964	1255.9094	1264.4053	1299.9857	1307.2558	1312.1063	1353.3943	1461.2636	3054.1142	3105.5894	3107.4181	3116.6127	3117.9495	3135.334	3157.0757	3740.1116
OC1C2C3OC4C1C2C34	O[C@H]1[C@H]2[C@H]3O[C@H]4[C@@H]1[C@@H]2[C@@H]34	
InChI=1S/C7H8O2/c8-5-2-1-3(5)7-4(1)6(2)9-7/h1-8H	InChI=1S/C7H8O2/c8-5-2-1-3(5)7-4(1)6(2)9-7/h1-8H/t1-,2+,3-,4+,5+,6-,7+
