16
gdb 5386	4.85184	1.53767	1.26724	0.6077	73.36	-0.2433	-0.0467	0.1966	971.3665	0.13284	-342.841304	-342.83421	-342.833266	-342.873311	26.001	
C	-0.2319981131	 1.5310481031	 0.0949236078	-0.37129
C	 0.0928544123	 0.0339680995	-0.0345808058	-0.271119
C	 0.7694414567	-0.5132861774	 1.1964008871	 0.318056
N	 2.0088587642	-0.0808992524	 1.4649210057	-0.287545
C	 2.5897571855	-0.5599577561	 2.5638680287	-0.019893
C	 1.9509393315	-1.4682000406	 3.4043525855	-0.013614
N	 0.7179934818	-1.9085852964	 3.1497054721	-0.23199
C	 0.1402058818	-1.4273952651	 2.0492239175	-0.060668
H	 0.6793178481	 2.0985610967	 0.3011650057	 0.139312
H	-0.6768507331	 1.9127142672	-0.8286290247	 0.115722
H	-0.9373168114	 1.7126074106	 0.9123403034	 0.118043
H	-0.821500791	-0.5356254916	-0.2321909901	 0.103993
H	 0.7601511935	-0.1166455163	-0.8906893077	 0.121809
H	 3.5969375416	-0.2123686149	 2.7817827485	 0.11419
H	 2.441849171	-1.848351215	 4.2963711497	 0.115027
H	-0.8648791793	-1.7808860413	 1.8296683767	 0.109969
44.0825	138.5241	222.3471	285.1727	363.8981	423.147	516.1246	596.7683	646.1851	783.5142	801.1753	822.3309	873.0015	970.2735	981.9881	994.1675	1030.112	1068.4809	1084.4177	1088.0111	1205.5066	1231.659	1256.4178	1281.6647	1337.4781	1362.3162	1403.8735	1436.5532	1479.964	1496.5322	1505.3776	1511.9021	1579.693	1616.0562	3039.0643	3040.9915	3079.3819	3110.8511	3125.5623	3151.0142	3152.1603	3172.378
CCC1=NC=CN=C1	CCc1nccnc1	
InChI=1S/C6H8N2/c1-2-6-5-7-3-4-8-6/h3-5H,2H2,1H3	InChI=1S/C6H8N2/c1-2-6-5-7-3-4-8-6/h3-5H,2H2,1H3
