16
gdb 24567	2.20659	1.99585	1.2009	1.895	82.45	-0.2143	-0.0412	0.1731	1021.2444	0.125193	-400.725621	-400.717973	-400.717028	-400.757983	28.85	
O	 0.1723859852	 1.0797841989	-0.5759659816	-0.213244
C	 0.7348678627	 2.2105028346	-0.1040979175	 0.05852
C	 1.2514486598	 2.5631402997	 1.0838444306	-0.143183
C	 1.295477905	 2.0021383716	 2.4246337757	-0.108593
C	 0.3429636102	 1.4174090141	 3.174505633	-0.117632
C	-1.0071277435	 1.0000784003	 2.795454778	-0.014011
N	-1.3667277825	 0.1529894282	 1.9097294817	-0.197312
C	-0.4821677301	-0.5460075706	 1.1083145493	-0.043219
C	 0.2082372787	-0.1521479609	 0.0360458139	 0.00604
H	 0.7828580235	 2.9269657453	-0.9190019682	 0.117375
H	 1.7478450599	 3.5308995118	 1.026458964	 0.102131
H	 2.2034848128	 2.2725511133	 2.9633340398	 0.10125
H	 0.5549234048	 1.2925319815	 4.2358145608	 0.103087
H	-1.8154823829	 1.4071074335	 3.411944269	 0.114638
H	-0.4488534767	-1.6128991641	 1.3230317004	 0.119194
H	 0.7337775429	-0.8823036573	-0.5695210289	 0.11496
87.49	125.6166	190.7301	239.7341	298.6063	386.0167	473.5786	548.2789	603.1696	669.9145	729.7964	767.2493	801.7665	830.9781	843.4891	899.7464	906.4517	919.7085	946.8034	962.664	1003.0456	1029.348	1074.5275	1172.2655	1275.8452	1306.623	1368.7556	1409.0025	1432.8501	1437.1461	1469.5714	1657.752	1683.5566	1706.6236	1724.272	3068.6552	3115.075	3129.8214	3141.3268	3142.4213	3180.4277	3192.6208
O1C=CC=CC=NC=C1	o1cccccncc1	
InChI=1S/C7H7NO/c1-2-4-8-5-7-9-6-3-1/h1-7H/b2-1-,6-3-,7-5-,8-4-	InChI=1S/C7H7NO/c1-2-4-8-5-7-9-6-3-1/h1-7H/b2-1-,6-3-,7-5-,8-4-
