15
gdb 61338	7.35709	0.53688	0.51166	3.3769	74.85	-0.2681	-0.064	0.2041	1989.1877	0.10849	-457.741822	-457.731954	-457.731009	-457.778968	32.572	
O	 0.0364954043	 1.5023126619	 0.0041434274	-0.422832
C	 0.024818744	 0.1079861715	 0.002731397	 0.056902
C	 0.689010154	-0.4587849227	-1.2795035215	-0.384225
C	-0.0174289967	-0.0806305024	-2.491129455	 0.091876
C	-0.6048170844	 0.2224870179	-3.5013170643	 0.061839
C	-1.3254461535	 0.61604738	-4.6852026622	 0.019204
O	-1.1004556562	 0.1937996886	-5.796081423	-0.227309
C	 0.7291954401	-0.4356385621	 1.2335656335	 0.130403
O	 1.2018435622	 0.2997856763	 2.064109919	-0.247421
H	 0.4933607006	 1.7629966619	 0.8199548036	 0.299505
H	-1.0107261606	-0.2753725256	 0.0376581405	 0.110879
H	 1.7202865524	-0.0876038934	-1.3300439141	 0.158912
H	 0.7434746271	-1.5539351417	-1.2164057364	 0.14321
H	-2.1277922636	 1.35846969	-4.4993794033	 0.103272
H	 0.7811904903	-1.5394341301	 1.3295209889	 0.105787
25.3068	50.3546	62.264	123.9914	164.0029	197.55	283.741	328.2589	374.587	399.34	444.0805	510.119	595.583	747.2002	822.6248	844.0947	877.7593	980.8649	1022.5784	1060.8802	1156.6391	1163.3639	1237.9129	1257.5645	1322.9395	1354.9349	1401.644	1421.9306	1437.2935	1444.8985	1768.8318	1818.9055	2336.3709	2922.7778	2929.5357	2957.0146	3020.4579	3063.6821	3689.5643
OC(CC#CC=O)C=O	O[C@@H](CC#CC=O)C=O	
InChI=1S/C6H6O3/c7-4-2-1-3-6(9)5-8/h4-6,9H,3H2	InChI=1S/C6H6O3/c7-4-2-1-3-6(9)5-8/h4-6,9H,3H2/t6-/m0/s1
