22
gdb 10178	2.89185	1.08511	0.82959	0.7249	84.9	-0.2569	0.0574	0.3143	1455.1989	0.197733	-313.05088	-313.040508	-313.039564	-313.086413	37.273	
C	 0.0670617311	 1.6332028616	 0.0284997647	-0.384487
C	-0.0015784493	 0.103141233	 0.0068560648	-0.175817
C	 0.6260455211	-0.4919752177	-1.2589931774	-0.170397
C	 0.6806266463	-2.0404695407	-1.2879672821	-0.163399
C	-0.7208327338	-2.6921933025	-1.374678799	-0.170159
C	-0.6962481731	-4.2198660364	-1.2933226246	-0.387632
C	 1.5333086101	-2.4884086802	-2.3895636151	 0.328369
C	 2.2230417756	-2.8325384592	-3.3129861709	-0.468507
H	 1.1041021155	 1.9836771344	-0.017632014	 0.115827
H	-0.4648452681	 2.0653492405	-0.826332575	 0.115812
H	-0.3824007139	 2.0393224289	 0.9399561801	 0.111942
H	 0.5145254977	-0.2989131425	 0.8891657189	 0.095168
H	-1.0481358526	-0.2103067009	 0.0962830219	 0.101644
H	 0.083893885	-0.1418809931	-2.1469315592	 0.101844
H	 1.6498474457	-0.1133137789	-1.3595833306	 0.104257
H	 1.145736708	-2.3744541157	-0.3477214718	 0.098161
H	-1.3380987519	-2.2958356076	-0.5615647918	 0.09863
H	-1.1923942943	-2.3751819391	-2.3128897667	 0.103087
H	-1.7084194694	-4.6303780172	-1.3601981927	 0.11063
H	-0.1009660413	-4.6480209685	-2.1047580008	 0.132434
H	-0.2620348351	-4.5581666933	-0.3456584615	 0.111687
H	 2.8402676066	-3.1437383352	-4.1189071971	 0.190904
66.2743	80.6204	109.6646	126.8163	170.7965	236.2022	245.5375	269.3557	288.1411	322.895	447.6683	526.4876	568.0166	622.9537	632.6651	738.3056	764.5464	821.8692	894.3645	904.2023	955.94	1012.6909	1037.5839	1044.4143	1073.6526	1121.7903	1132.0517	1179.4928	1252.0822	1274.3835	1307.3235	1321.0757	1340.0951	1358.6552	1366.6128	1397.388	1412.4876	1414.2354	1481.211	1487.0413	1494.1697	1497.1283	1499.2467	1507.8561	1511.1224	2229.578	2987.6252	3015.7414	3026.4652	3030.9965	3032.7882	3034.6576	3049.2555	3071.7854	3074.7264	3098.3959	3100.3383	3103.03	3117.3272	3504.7201
CCCC(CC)C#C	CCC[C@@H](CC)C#C	
InChI=1S/C8H14/c1-4-7-8(5-2)6-3/h2,8H,4,6-7H2,1,3H3	InChI=1S/C8H14/c1-4-7-8(5-2)6-3/h2,8H,4,6-7H2,1,3H3/t8-/m1/s1
