13
gdb 16127	4.81941	1.67824	1.45886	3.1701	58.9	-0.2823	-0.0084	0.2739	829.2325	0.096163	-398.585361	-398.578864	-398.57792	-398.616081	23.913	
N	 0.001451071	-1.1272428234	 0.1541559638	-0.322791
C	 0.0362787607	 0.0241967197	 0.0615977758	 0.219051
C	 0.0389151758	 1.4562586143	-0.0874739895	 0.282805
C	-0.9318252901	 2.1437147839	-1.0382380259	-0.151882
O	-0.4233287086	 3.458452541	-1.1929873311	-0.2514
C	 0.9818393879	 3.4645628667	-0.9696245475	-0.104666
C	 1.2464191268	 2.3003587779	-0.0393855077	-0.045053
O	 0.3455789595	 2.2460381238	 1.0665307461	-0.265234
H	-0.9602180202	 1.5892935699	-1.988935643	 0.118733
H	-1.9462123174	 2.2169875683	-0.6366032143	 0.141033
H	 1.5511348796	 3.3214531306	-1.9017840936	 0.111232
H	 1.2467095747	 4.4344394706	-0.5384656389	 0.136133
H	 2.2440684803	 1.9036695268	 0.1229685958	 0.13204
149.5482	159.9288	222.1094	331.4669	408.6847	507.9435	542.1838	582.6454	700.087	768.7491	891.4006	902.1611	935.4915	977.0569	1009.4007	1062.9309	1111.4058	1119.8937	1198.0348	1223.4433	1245.8953	1277.955	1350.477	1374.5574	1445.8845	1497.2515	1509.3124	2363.1594	2987.1273	2996.2358	3088.7274	3095.9102	3173.6541
N#CC12COCC1O2	N#C[C@]12COC[C@H]1O2	
InChI=1S/C5H5NO2/c6-2-5-3-7-1-4(5)8-5/h4H,1,3H2	InChI=1S/C5H5NO2/c6-2-5-3-7-1-4(5)8-5/h4H,1,3H2/t4-,5+/m1/s1
