15
gdb 83056	2.76746	1.53297	1.268	4.6515	69.89	-0.2705	-0.0146	0.256	1008.6771	0.113268	-416.814583	-416.806907	-416.805963	-416.846847	28.444	
C	-0.0863827646	 1.5391074027	 0.0404573483	-0.420169
C	 0.0739972831	 0.0382884561	 0.0523780131	-0.094838
C	 1.3485726249	-0.684290546	-0.2459918059	 0.016799
O	 2.5567041365	 0.0410993545	-0.1116354437	-0.200165
C	 2.6286265664	 0.3997117051	 1.1971563653	 0.086769
N	 1.7190192802	 0.0101753199	 1.9964304805	-0.290046
C	 0.7749025813	-0.7269613729	 1.1870440174	 0.163619
C	 0.1354525903	-1.8687718879	 1.7775489505	 0.236787
N	-0.3992544816	-2.7953454928	 2.2164068003	-0.342168
H	 0.7735628697	 2.054114753	 0.4717505907	 0.140798
H	-0.2103452831	 1.8936709788	-0.9874554902	 0.13496
H	-0.971791771	 1.8305734247	 0.6122828133	 0.141205
H	-0.7878536666	-0.5129012482	-0.3144721586	 0.125218
H	 1.4231596969	-1.5147303822	-0.9355660217	 0.14035
H	 3.4875746175	 1.0049605452	 1.4580039006	 0.160882
130.2632	135.4793	169.0612	210.3694	241.0722	423.6526	472.94	515.8626	566.3186	579.4938	690.5666	729.2668	766.1824	880.5982	909.5567	949.6168	965.4915	987.3783	1008.1194	1093.7688	1098.6258	1123.264	1147.0133	1239.1605	1256.5794	1310.2147	1357.1098	1419.2855	1430.1371	1488.7646	1498.2036	1663.6292	2358.7185	3050.3491	3113.899	3135.2951	3156.2361	3208.4387	3238.8368
CC1C2OC=NC12C#N	C[C@H]1[C@H]2OC=N[C@@]12C#N	
InChI=1S/C6H6N2O/c1-4-5-6(4,2-7)8-3-9-5/h3-5H,1H3	InChI=1S/C6H6N2O/c1-4-5-6(4,2-7)8-3-9-5/h3-5H,1H3/t4-,5+,6-/m0/s1
