19
gdb 115426	3.14939	1.08603	0.87478	0.7162	78.42	-0.2599	0.0355	0.2954	1347.2355	0.158208	-422.99453	-422.985322	-422.984378	-423.029117	33.62	
C	 0.0199769116	 1.2666440579	 0.3874009672	-0.244405
O	-0.1071192561	-0.1446082088	 0.4063847963	-0.243921
C	-1.2525770246	-0.6133170352	-0.2572892014	 0.228635
C	-1.2193562147	-2.1551948606	-0.2150206887	-0.275616
C	-2.4078727321	-2.5357716835	 0.6905220434	-0.226626
C	-2.7379797605	-1.1990585228	 1.389810053	-0.042527
O	-2.4455423802	-0.2115865635	 0.3899100898	-0.26511
C	-4.1150852733	-1.067884421	 1.8394167579	 0.292087
C	-5.2481726019	-0.9936258742	 2.2310645774	-0.431574
H	 0.9435591921	 1.5111762542	 0.9164535488	 0.125286
H	 0.0876831891	 1.6460080804	-0.6436563369	 0.10553
H	-0.8264494363	 1.7543022797	 0.8841135316	 0.128593
H	-1.3023575127	-0.1811254776	-1.2664560916	 0.073058
H	-1.3133496313	-2.5820436562	-1.2152413601	 0.113014
H	-0.2607483756	-2.4700540745	 0.2012466293	 0.125541
H	-3.2719071424	-2.8520675996	 0.1015488386	 0.119166
H	-2.1737736868	-3.3261421995	 1.4063319462	 0.113947
H	-2.0629425595	-1.0556843976	 2.2468379756	 0.107181
H	-6.2504768647	-0.9188991076	 2.5739732836	 0.197742
59.1412	93.272	121.8701	159.3809	193.4073	254.4625	284.6556	423.901	475.938	505.8009	573.6728	605.9078	620.1632	669.165	751.1921	824.1442	863.9955	916.2495	966.9828	984.6093	1032.187	1048.7799	1064.7232	1107.9148	1131.7916	1179.9242	1182.5376	1220.3813	1243.028	1293.4008	1311.6933	1338.9474	1361.7545	1378.8225	1396.313	1475.914	1482.6327	1484.1789	1501.0225	1514.7529	2245.4397	2990.228	2990.8134	3011.2774	3067.0494	3072.9997	3083.3976	3118.7963	3125.458	3137.0032	3504.2747
COC1CCC(O1)C#C	CO[C@H]1CC[C@@H](O1)C#C	
InChI=1S/C7H10O2/c1-3-6-4-5-7(8-2)9-6/h1,6-7H,4-5H2,2H3	InChI=1S/C7H10O2/c1-3-6-4-5-7(8-2)9-6/h1,6-7H,4-5H2,2H3/t6-,7+/m0/s1
