14
gdb 127894	1.48271	1.19958	0.6937	2.0651	68.64	-0.2477	-0.0082	0.2396	1544.0691	0.09531	-466.263299	-466.250856	-466.249912	-466.307205	35.893	
C	-0.2166715333	 1.2899430209	 0.0104875077	-0.330813
N	-0.6004996183	-0.0343698844	-0.4108396378	-0.291403
C	-0.0467473022	-1.0725198425	-0.6381254745	 0.530546
N	 2.5169075086	 0.7582697192	-2.4999507411	-0.010335
N	 3.153416855	 0.6107904966	-3.3828449481	 0.010266
O	 1.1106469627	-1.9648677459	-3.0010938113	-0.37014
C	 0.9196021726	-2.6648066981	-2.0288268844	 0.424223
N	 1.2233424929	-3.9892447014	-1.9659134658	-0.534484
N	 0.3812077375	-2.2232108504	-0.7909505975	-0.422073
H	 0.8129755954	 1.5212353126	-0.2756543635	 0.159478
H	-0.8872793186	 2.0193938503	-0.449220178	 0.150492
H	-0.3174629542	 1.3752256597	 1.0972567265	 0.147773
H	 1.5269131406	-4.4454050935	-2.8079088313	 0.267886
H	 0.9425522412	-4.5359032929	-1.1716598908	 0.268584
13.0743	27.2133	40.6367	48.3088	53.5846	63.7102	79.9787	102.3038	168.5742	190.0443	201.3689	432.9702	519.6248	579.3018	629.5523	673.2326	772.1841	812.8372	966.418	1104.137	1135.957	1155.5122	1325.4662	1454.8294	1480.2384	1499.8199	1517.1814	1604.575	1795.5464	2291.8621	2434.9211	3039.1735	3108.4252	3125.4469	3624.5949	3763.6185	13.0759	27.2146	40.6368	48.3093	53.5845	63.7101	79.9785	102.3039	168.5745	190.0452	201.369	432.9702	519.6249	579.3019	629.5527	673.2328	772.184	812.8374	966.4183	1104.1369	1135.9571	1155.5122	1325.4661	1454.8295	1480.2385	1499.8199	1517.1813	1604.575	1795.5462	2291.8627	2434.9211	3039.1735	3108.4252	3125.4469	3624.595	3763.6185
CN=C1N=NOC(N)=N1	C[N][C][N]C(=O)N.N#N	
InChI=1S/C3H5N5O/c1-5-3-6-2(4)9-8-7-3/h1H3,(H2,4,5,6)	InChI=1S/C3H5N3O.N2/c1-5-2-6-3(4)7;1-2/h1H3,(H2,4,7);
