19
gdb 109852	2.02901	1.60817	1.34222	3.4968	71.65	-0.245	-0.0273	0.2178	1067.5572	0.158756	-460.143272	-460.134385	-460.133441	-460.17678	33.419	
O	 0.5261455795	-0.4325423125	-1.244030476	-0.434086
C	-0.0563887349	 0.1207484465	-0.0675314094	-0.105255
C	-1.4492974839	-0.3930355541	 0.2914280619	-0.100779
C	-2.2835362303	-1.2529951674	-0.6255294256	 0.087173
O	-1.7708788165	-1.7216442733	-1.8341122911	-0.424432
C	-1.7660898181	-1.8350315321	 0.6759071298	-0.087465
C	-0.678761446	-2.9114438875	 0.7186167629	-0.301901
C	-0.1964987747	-3.4563014141	-0.6136625464	 0.163018
O	 0.8892509249	-3.195694866	-1.0866378291	-0.278142
H	 0.9479109166	-1.283869291	-1.0368409254	 0.309713
H	 0.6218966017	 0.0011772649	 0.7901697471	 0.106201
H	-0.1357510544	 1.1964631009	-0.2576401974	 0.120516
H	-2.0040938963	 0.3495969045	 0.8603768561	 0.094383
H	-3.3499786111	-1.047493898	-0.6861207291	 0.100274
H	-0.9614586287	-1.2126063812	-2.0168432656	 0.307315
H	-2.4980834625	-1.9382765039	 1.4711681008	 0.091999
H	 0.205001027	-2.5556767996	 1.2616451531	 0.118704
H	-1.0796137452	-3.7690890186	 1.273020027	 0.12222
H	-0.8665658669	-4.1837397974	-1.1088092338	 0.110545
88.8752	135.0364	152.0211	195.9689	205.2662	272.6179	317.7832	383.0897	443.0354	503.6978	568.21	653.6907	717.0091	725.6067	735.0034	820.5832	829.3216	890.7783	947.0995	992.0218	1019.6441	1047.0477	1079.0559	1093.3619	1108.6529	1134.953	1160.5161	1236.2159	1255.1255	1257.188	1306.4083	1363.8924	1368.2989	1381.7565	1422.9298	1428.9164	1445.2007	1469.2697	1480.4064	1499.6392	1787.2746	2959.7048	2994.7387	3023.5543	3064.6539	3069.5227	3122.1908	3130.3964	3149.9253	3600.0804	3648.5453
OCC1C(O)C1CC=O	OC[C@H]1[C@@H](O)[C@H]1CC=O	
InChI=1S/C6H10O3/c7-2-1-4-5(3-8)6(4)9/h2,4-6,8-9H,1,3H2	InChI=1S/C6H10O3/c7-2-1-4-5(3-8)6(4)9/h2,4-6,8-9H,1,3H2/t4-,5+,6-/m0/s1
