14
gdb 45989	3.40633	1.35825	1.02213	4.5417	68.02	-0.2566	-0.0599	0.1968	1080.0652	0.10278	-473.888356	-473.881035	-473.880091	-473.920555	27.237	
O	 0.0077340223	-0.0499316371	-0.0848074933	-0.327922
C	-0.018921918	 1.1555107936	 0.0016370086	 0.397611
C	-1.3017972177	 1.9735382882	 0.0346600072	-0.204784
O	-1.4283974576	 2.8005488676	 1.1856603019	-0.229425
C	-0.8126636186	 4.0224687637	 1.2170570121	 0.409981
O	-1.2649860024	 4.8809393179	 1.9277117097	-0.327649
C	 0.4253205384	 4.2081089368	 0.4429626606	-0.254277
C	 1.2945607179	 3.2727393769	 0.0186603922	 0.031756
N	 1.1530744935	 1.8995394076	 0.0067391125	-0.331494
H	-1.372605418	 2.5720027436	-0.8835548444	 0.136756
H	-2.1317449624	 1.268846107	 0.0685206576	 0.160051
H	 0.7365535475	 5.2426974437	 0.3769935408	 0.13105
H	 2.2574293054	 3.5971172051	-0.3646715463	 0.13934
H	 1.9820427196	 1.3400137653	-0.1400503193	 0.269007
78.7038	141.9426	218.0147	321.6949	354.4716	407.5213	441.8994	546.7201	559.1994	643.5965	707.9737	743.8136	781.689	829.2245	855.834	890.6111	989.0855	1012.1793	1069.7818	1112.2285	1196.4756	1258.5413	1288.8813	1365.9727	1388.1379	1436.715	1476.8647	1494.1733	1691.8253	1812.2769	1823.6561	3024.8628	3150.2036	3176.6784	3221.2154	3602.421
O=C1COC(=O)C=CN1	O=C1COC(=O)C=CN1	
InChI=1S/C5H5NO3/c7-4-3-9-5(8)1-2-6-4/h1-2H,3H2,(H,6,7)	InChI=1S/C5H5NO3/c7-4-3-9-5(8)1-2-6-4/h1-2H,3H2,(H,6,7)
