18
gdb 13198	5.51474	1.12658	1.10363	1.5135	69.33	-0.2658	0.0112	0.277	1153.8445	0.153738	-384.965763	-384.957274	-384.95633	-385.00029	29.619	
C	 0.2224593389	 1.4182964758	 0.1689689207	-0.240227
O	 0.341540536	-0.0078338506	 0.0952961007	-0.232742
C	 0.2903679096	-0.5263647786	-1.1500416049	 0.433459
O	 0.1570788257	 0.1467782274	-2.1439666907	-0.372908
C	 0.4132357648	-2.0264524005	-1.1409081411	-0.09053
C	-0.7001170487	-2.8191258054	-1.8953337633	-0.219503
C	 0.3977726334	-3.7403935812	-2.4871737101	-0.21378
C	 1.4411276373	-2.6485844692	-2.1354045193	-0.219955
H	 1.0286085397	 1.9023897611	-0.3881866946	 0.140005
H	-0.7338893497	 1.7474575061	-0.2455308674	 0.13968
H	 0.2860761247	 1.6681138605	 1.2281968451	 0.131342
H	 0.5540400782	-2.3887648981	-0.121818937	 0.086293
H	-1.4854683244	-3.2723584796	-1.2867906305	 0.10159
H	-1.1549127853	-2.1874522704	-2.6622782774	 0.124904
H	 0.5363432171	-4.6447531347	-1.8877810331	 0.103241
H	 0.302940069	-4.0298058022	-3.5358915738	 0.1023
H	 1.6105437702	-1.9660710042	-2.9716862769	 0.125752
H	 2.4024775737	-2.963203596	-1.7237307364	 0.101076
20.4144	107.6523	116.2433	142.237	238.6987	270.5147	326.4045	384.753	598.6557	714.2412	732.0688	806.1384	808.1467	892.3339	939.2742	939.6631	951.8499	997.9425	1042.574	1067.6491	1134.5462	1178.4548	1192.1176	1210.5509	1215.9256	1248.942	1260.5661	1263.5846	1286.0226	1289.3808	1384.4887	1472.3094	1475.2475	1480.2172	1486.4203	1496.9659	1507.1112	1808.8692	3050.7895	3059.2212	3065.8376	3069.9533	3098.2744	3108.691	3124.5034	3124.7662	3134.7953	3157.2944
COC(=O)C1CCC1	COC(=O)C1CCC1	
InChI=1S/C6H10O2/c1-8-6(7)5-3-2-4-5/h5H,2-4H2,1H3	InChI=1S/C6H10O2/c1-8-6(7)5-3-2-4-5/h5H,2-4H2,1H3
