17
gdb 6080	4.63747	0.81849	0.81391	3.9521	75.95	-0.2487	-0.015	0.2337	1483.0026	0.139939	-363.877767	-363.867765	-363.866821	-363.915418	33.811	
C	-0.0521390247	 1.4406501416	-0.1353048517	-0.376021
C	 0.0045312657	-0.0769137083	 0.1348541906	-0.135451
C	 0.8483569641	-0.396149095	 1.386102748	-0.376105
C	-1.3422260227	-0.6300329255	 0.2653400069	 0.087394
C	-2.4580615455	-1.0691277431	 0.3972824049	 0.004841
C	-3.8145415457	-1.5510111301	 0.6113884894	 0.260734
N	-4.1945364555	-2.5322408761	-0.2605426762	-0.520235
O	-4.5381364884	-1.1260697059	 1.4917338808	-0.33569
H	 0.9601969093	 1.8341845229	-0.2694953613	 0.116386
H	-0.6315618508	 1.6605960029	-1.0355623024	 0.126883
H	-0.5180090121	 1.9634632485	 0.7050413327	 0.134161
H	 0.4852028787	-0.5569456532	-0.7287932485	 0.107612
H	 0.4104795548	 0.0692513276	 2.2739189359	 0.134112
H	 0.9052138459	-1.4736328605	 1.5602642769	 0.127216
H	 1.8648098029	-0.0109580534	 1.2590853033	 0.116459
H	-3.6052037683	-2.8130937469	-1.0242040319	 0.263696
H	-5.1403046178	-2.8735821357	-0.2092385074	 0.264006
5.2072	86.7514	88.2913	101.7976	204.5989	225.528	242.557	265.6893	330.829	436.1361	509.3803	540.9818	578.6773	609.3723	681.091	774.2206	854.7183	933.7591	966.5336	1004.6699	1088.7419	1115.7576	1134.4148	1194.0477	1322.7124	1341.7614	1354.3458	1396.4818	1418.6059	1485.2549	1488.7875	1498.1343	1510.2484	1606.5008	1772.2368	2342.7566	3008.2908	3039.5759	3042.5311	3113.0788	3117.2542	3122.085	3124.2288	3602.3425	3745.1626
CC(C)C#CC(N)=O	CC(C)C#CC(=O)N	
InChI=1S/C6H9NO/c1-5(2)3-4-6(7)8/h5H,1-2H3,(H2,7,8)	InChI=1S/C6H9NO/c1-5(2)3-4-6(7)8/h5H,1-2H3,(H2,7,8)
