18
gdb 73658	2.47028	1.66454	1.40388	1.8251	72.27	-0.2684	0.0156	0.284	1004.2605	0.148747	-439.103258	-439.095236	-439.094291	-439.135764	30.87	
O	 0.1575780001	 1.3364867248	-0.1849977283	-0.480881
C	 0.1016655938	-0.0528630799	-0.0455982816	 0.296768
C	 0.8075785086	-0.7681212225	-1.2095141032	-0.259293
C	 0.1206139058	-2.1397238045	-1.339451676	-0.227164
C	-1.3535037595	-1.8606704511	-0.9688530455	-0.229632
C	-1.262172261	-0.8130727674	 0.1231833531	 0.071466
O	-0.755389056	-1.37813122	 1.3926358793	-0.279144
C	 0.3817244032	-0.6107563672	 1.3380118648	 0.354956
N	 1.2784439362	-0.3880585052	 2.1877492721	-0.557204
H	 0.3284818536	 1.7177527682	 0.6831896421	 0.296868
H	 0.6288432813	-0.1557594211	-2.1008380584	 0.116441
H	 1.8876976842	-0.8280104542	-1.0573845707	 0.121182
H	 0.2300134396	-2.571711003	-2.3367411306	 0.104244
H	 0.5529157039	-2.8504143525	-0.6279612548	 0.12002
H	-1.888493757	-1.4241564361	-1.8212368628	 0.111364
H	-1.9034892595	-2.7507709689	-0.6513327866	 0.115483
H	-2.1538615556	-0.214524248	 0.3127609324	 0.094255
H	 1.1077718982	-0.8916985813	 3.0600770646	 0.230273
109.1483	116.1001	193.1664	230.1934	293.6248	325.665	377.7624	501.8911	555.0718	604.8407	676.7223	723.34	778.3409	817.7326	863.3267	873.694	891.8416	921.936	957.8368	973.1974	1018.07	1042.5935	1080.6175	1128.211	1142.3341	1168.4988	1214.5021	1241.4796	1265.6732	1285.3413	1327.5353	1339.1878	1351.5556	1366.7386	1396.3534	1469.9258	1483.3649	1502.3695	1816.8617	3039.9399	3048.4937	3059.7304	3097.8014	3106.2009	3113.8932	3115.2136	3473.5985	3810.7769
OC12CCCC1OC2=N	O[C@]12CCC[C@H]1O[C]2[NH]	
InChI=1S/C6H9NO2/c7-5-6(8)3-1-2-4(6)9-5/h4,7-8H,1-3H2	InChI=1S/C6H9NO2/c7-5-6(8)3-1-2-4(6)9-5/h4,7-8H,1-3H2/t4-,6-/m1/s1
