20
gdb 78612	3.086	1.43245	1.17674	1.2594	79.48	-0.2077	0.0684	0.2761	1112.3351	0.169286	-403.045758	-403.036962	-403.036018	-403.078642	33.975	
C	-0.7071621704	 1.411294793	-0.4200820048	-0.333954
N	-0.4709068395	 0.0061802772	-0.1118940906	-0.105082
C	-1.2201789209	-0.6020783541	 1.0292568944	-0.074932
C	-0.1225911532	-1.6962974666	 1.2034300164	-0.105517
C	-0.0642859701	-1.475445695	 2.717136613	 0.102425
O	 1.1163898115	-1.758766356	 3.4312077494	-0.449296
C	-0.2981075499	-0.0409738818	 2.1919911182	 0.279015
C	-0.3960180272	 1.1781609735	 3.0718008771	-0.533367
C	 0.5799996415	-0.3341636834	 0.8898417565	-0.097646
H	 0.0997629234	 1.7718891089	-1.0673964475	 0.118698
H	-1.6425256572	 1.4957629516	-0.9839590529	 0.120095
H	-0.7743876117	 2.0827197268	 0.4482463725	 0.100583
H	-2.3029891261	-0.7409183187	 1.0327053978	 0.078727
H	-0.0371257575	-2.6026278834	 0.6057842186	 0.082457
H	-0.8803970249	-1.9090150703	 3.3037441657	 0.081774
H	 1.8682509237	-1.4653346123	 2.9053445315	 0.28206
H	 0.4557016825	 1.1981468002	 3.7619589905	 0.12788
H	-0.4027653071	 2.1193965818	 2.5187376574	 0.127312
H	-1.3063082831	 1.1376422703	 3.6813516439	 0.124179
H	 1.6405913764	-0.1362500216	 0.715408173	 0.074588
137.1149	160.3442	175.1718	202.5832	239.0435	259.9225	289.6726	334.4804	395.4709	539.4374	588.7061	653.1469	717.1066	756.3372	812.0947	835.4418	858.5523	878.2785	914.2785	946.8604	991.442	1059.0531	1086.4703	1104.0308	1123.5335	1131.2944	1139.4002	1148.6621	1161.2016	1179.3943	1204.8004	1232.2028	1281.322	1291.4169	1296.3575	1344.736	1406.1653	1444.6013	1449.1616	1482.3279	1484.0907	1497.666	1500.6984	2996.1707	3028.8634	3063.8009	3065.7033	3078.7798	3085.0336	3092.4308	3097.359	3124.2427	3134.3814	3807.2048
CN1C2C3C(O)C2(C)C13	CN1[C@H]2[C@@H]3[C@@H](O)[C@@]2(C)[C@H]13	
InChI=1S/C7H11NO/c1-7-4-3(6(7)9)5(7)8(4)2/h3-6,9H,1-2H3	InChI=1S/C7H11NO/c1-7-4-3(6(7)9)5(7)8(4)2/h3-6,9H,1-2H3/t3-,4-,5+,6-,7+/m1/s1
