15
gdb 9191	4.71439	1.0784	1.02604	3.4973	62.99	-0.2537	0.0119	0.2656	1159.557	0.118566	-395.992822	-395.98408	-395.983136	-396.027082	29.842	
C	 0.3088753198	 0.890980321	-0.1310735775	-0.224423
O	-0.1825601485	-0.2517508381	 0.5721972823	-0.253609
C	-1.369532271	-0.7338018726	 0.1552975454	 0.497817
N	-2.0227160646	-0.1986709145	-0.7933408995	-0.577295
N	-1.6988713681	-1.8183994161	 0.9606234591	-0.326343
C	-2.7723493029	-2.713040516	 0.6074976491	-0.319254
C	-2.5064362656	-3.5688247182	-0.5685192864	 0.263937
N	-2.2818587014	-4.244660008	-1.4780058944	-0.293519
H	 1.2716996862	 1.121785669	 0.3263036717	 0.128128
H	 0.4295820284	 0.6682807459	-1.1940965294	 0.144287
H	-0.378314414	 1.7343413408	-0.0271678946	 0.141346
H	-2.8806013354	-0.6915388523	-1.0186809321	 0.221585
H	-0.9081994504	-2.2306153396	 1.4334793832	 0.259415
H	-2.9850172974	-3.3606132604	 1.4631679471	 0.168549
H	-3.685457815	-2.1374443309	 0.4215656258	 0.169378
53.702	60.8808	135.923	167.1267	222.4525	249.1603	337.6679	382.332	445.5465	498.3152	619.8568	662.3077	742.0976	753.6572	886.7861	902.0052	998.5321	1045.8725	1107.1336	1183.7215	1187.2155	1220.6142	1277.3575	1335.135	1379.0062	1459.7245	1468.5379	1476.3934	1500.0474	1528.0943	1740.2312	2358.9468	3051.4069	3057.2066	3098.8127	3127.4973	3153.325	3553.8559	3616.098
COC(=N)NCC#N	COC(=N)NCC#N	
InChI=1S/C4H7N3O/c1-8-4(6)7-3-2-5/h3H2,1H3,(H2,6,7)	InChI=1S/C4H7N3O/c1-8-4(6)7-3-2-5/h3H2,1H3,(H2,6,7)
