23
gdb 76229	2.37951	1.37999	1.15951	1.4084	87.16	-0.2392	0.0202	0.2594	1226.5124	0.20438	-388.317398	-388.307385	-388.306441	-388.351471	38.739	
C	 0.0131697298	 1.5049561529	 0.0844163754	-0.498345
C	-0.0126348682	 0.0114249207	-0.0012302633	 0.292136
C	 0.0092021556	-0.7552855004	-1.0946210513	-0.16621
C	-0.00270796	-2.2292042841	-0.7825996363	-0.30066
C	-0.3157068978	-2.2850350245	 0.7442116522	 0.263956
C	-1.8264759257	-2.504329269	 0.9426012526	-0.420878
C	 0.4681033947	-3.3808079165	 1.4713354612	-0.422792
C	 0.0390656688	-0.8437098592	 1.2493695835	 0.022975
O	 1.3090116265	-0.7153412255	 1.8971013804	-0.435808
H	 0.8480479674	 1.8401408883	 0.7105729693	 0.134032
H	 0.1085354122	 1.968946991	-0.9011512692	 0.118922
H	-0.9012936375	 1.8892296325	 0.5544520246	 0.12607
H	 0.0408505676	-0.3747003224	-2.1115448017	 0.086366
H	-0.7517257808	-2.7757844092	-1.3689966161	 0.100007
H	 0.9639601065	-2.6943327291	-1.0234840354	 0.096031
H	-2.1368406675	-3.4756250061	 0.5428319871	 0.109487
H	-2.0906179649	-2.4801018258	 2.0055518028	 0.111528
H	-2.4092567079	-1.7294316818	 0.4329711431	 0.114271
H	 1.5476487548	-3.2501635825	 1.3586214395	 0.102101
H	 0.2497969052	-3.3797133592	 2.5440179436	 0.115716
H	 0.2032894289	-4.3669885444	 1.0737168317	 0.104686
H	-0.6749042097	-0.520693765	 2.0163535807	 0.072344
H	 1.9870121018	-0.7995082908	 1.2171737756	 0.274064
68.2973	172.4824	195.5428	213.4429	245.3835	261.4491	267.1541	300.0467	337.8373	347.2244	373.0967	410.5934	497.5185	548.5231	617.449	656.199	807.2161	825.5128	884.2207	897.3415	924.0137	953.702	975.5781	985.8176	1020.9093	1032.4084	1065.5654	1069.6263	1131.9184	1163.4694	1213.9226	1232.6481	1248.5728	1268.3644	1297.092	1328.0238	1352.4779	1397.2237	1408.1981	1417.533	1432.1775	1476.9464	1480.4919	1483.6217	1491.4516	1494.4669	1503.3346	1506.9945	1721.4614	3002.6304	3020.4647	3023.9492	3031.8984	3038.0562	3042.1166	3072.1932	3092.5378	3096.8626	3098.4857	3110.0692	3110.551	3171.833	3796.2306
CC1=CCC(C)(C)C1O	CC1=CCC(C)(C)[C@H]1O	
InChI=1S/C8H14O/c1-6-4-5-8(2,3)7(6)9/h4,7,9H,5H2,1-3H3	InChI=1S/C8H14O/c1-6-4-5-8(2,3)7(6)9/h4,7,9H,5H2,1-3H3/t7-/m0/s1
