16
gdb 42833	2.60602	1.86826	1.66765	3.6315	67.37	-0.2459	-0.0115	0.2344	880.0973	0.126385	-437.854575	-437.847983	-437.847038	-437.885388	26.675	
O	 0.0910236249	-0.0181910773	-0.0690360397	-0.305503
C	 0.0243645331	 1.1603010148	 0.0706126138	 0.44175
C	-1.0849314838	 2.2329991046	 0.0484736869	-0.031695
C	-1.3762322546	 2.8086188958	 1.4428579259	-0.22911
C	-0.0693691918	 3.141815317	 2.1527394183	-0.027721
N	 0.7975096122	 2.0031488779	 2.4905926455	-0.328024
C	 1.2003364425	 2.9197726457	 1.4035392867	-0.042636
C	 0.9896519497	 2.3667081894	 0.0038377406	-0.045781
O	-0.1132172689	 3.0879825742	-0.628259033	-0.299535
H	-1.9821083753	 2.0563333124	-0.5495064924	 0.100885
H	-1.9625084787	 3.724952332	 1.3148540123	 0.117319
H	-1.9747222546	 2.1037220574	 2.0309782239	 0.123292
H	-0.1028448035	 3.9738660656	 2.8506124652	 0.096004
H	 1.3281234932	 2.1904681631	 3.3367882894	 0.237391
H	 2.0391322178	 3.5900290714	 1.5643344878	 0.094956
H	 1.8802687379	 2.3246837559	-0.625258321	 0.098409
151.13	191.8852	311.4411	389.4532	431.9641	475.5636	531.5828	571.8579	718.9574	771.9994	790.355	821.8182	868.8413	885.6224	897.9143	926.651	956.471	989.0356	1024.7668	1049.0218	1066.0762	1104.3359	1127.9922	1152.5923	1183.6218	1231.0443	1240.8277	1271.5602	1287.8561	1323.4883	1360.7357	1387.6969	1441.517	1465.1556	1930.2706	3041.249	3086.819	3094.3367	3108.7215	3143.7598	3158.7014	3512.0816
O=C1C2CC3NC3C1O2	O=C1[C@H]2C[C@H]3N[C@H]3[C@@H]1O2	
InChI=1S/C6H7NO2/c8-5-3-1-2-4(7-2)6(5)9-3/h2-4,6-7H,1H2	InChI=1S/C6H7NO2/c8-5-3-1-2-4(7-2)6(5)9-3/h2-4,6-7H,1H2/t2-,3-,4-,6+/m1/s1
