17
gdb 86506	5.09306	0.64257	0.6276	1.8063	92.22	-0.2394	-0.0124	0.2269	1763.5253	0.134266	-384.622326	-384.613245	-384.612301	-384.656668	33.864	
O	 0.6618220953	 0.2247008068	-0.785092149	-0.427402
C	-0.1284263426	-0.4464575914	 0.1565633992	 0.185476
C	 0.0569631276	-0.1704894288	 1.6716773112	-0.266904
C	-1.4937614278	-0.3463143388	 1.8460638471	-0.235915
C	-1.6340177285	-0.1023874278	 0.3010979876	-0.266877
C	-1.8999863271	-1.6645512261	 2.281536716	 0.519555
C	-2.2412792166	-2.7678960323	 2.6476883626	-0.370835
C	-2.6206329855	-4.0095094258	 3.0536846779	 0.309154
C	-2.9576044506	-5.1117737503	 3.4149106187	-0.569145
H	 0.57619921	 1.1718039038	-0.6314077907	 0.277461
H	-0.0001791747	-1.5116934242	-0.054565064	 0.109734
H	 0.7117209944	-0.8265669034	 2.2463729585	 0.119483
H	 0.3394091646	 0.8723871765	 1.8505254018	 0.097869
H	-1.9720515622	 0.4105311823	 2.4738280668	 0.111152
H	-1.8163366077	 0.9591933438	 0.1031745382	 0.097873
H	-2.3623794838	-0.7027793729	-0.2451969428	 0.119481
H	-3.2530385547	-6.0812113414	 3.730743261	 0.189841
54.2918	87.8184	135.316	224.3586	244.4194	306.9191	389.9745	395.395	467.4935	487.1882	531.084	549.1822	591.9467	606.1701	649.8718	675.9169	815.9921	880.3434	916.1131	958.804	977.265	1039.9855	1077.3259	1117.3694	1156.4384	1165.1342	1207.3397	1241.0842	1260.2686	1287.2306	1327.9128	1357.872	1435.5389	1465.2653	1491.8005	2179.7201	2355.8886	3050.7429	3051.4613	3067.5199	3081.3621	3130.7934	3133.2483	3505.8237	3802.8345
OC1CC(C1)C#CC#C	O[C@H]1C[C@@H](C1)C#CC#C	
InChI=1S/C8H8O/c1-2-3-4-7-5-8(9)6-7/h1,7-9H,5-6H2	InChI=1S/C8H8O/c1-2-3-4-7-5-8(9)6-7/h1,7-9H,5-6H2/t7-,8-
