14
gdb 39531	3.85198	2.07439	1.68529	1.4291	68.6	-0.2135	-0.0055	0.208	780.8878	0.102139	-399.400144	-399.39459	-399.393646	-399.429712	23.653	
O	-0.0884392022	 1.4068257021	 0.0102931675	-0.269096
C	 1.2502514523	 1.7925571196	-0.000261205	 0.08186
N	 2.1955591336	 0.9320514591	-0.0136889076	-0.364451
C	 1.4874374148	-0.3166939536	-0.0137403602	 0.314048
C	 1.2326170714	-1.5934853237	-0.793161786	-0.154126
C	-0.3046831697	-1.2401203932	-0.7861756681	-0.19096
C	-0.2898023132	-1.248432903	 0.7825689213	-0.190958
C	 1.2472794012	-1.6018523656	 0.7565471982	-0.154131
C	 0.014925443	 0.0003751886	 0.0018375145	 0.379325
H	 1.3816833829	 2.8674186142	 0.0042945589	 0.150274
H	 1.8618908178	-2.1605351493	-1.4675453641	 0.098633
H	-1.132620718	-1.5212564609	-1.4244243163	 0.100475
H	-1.1055152132	-1.5363812314	 1.433396656	 0.100473
H	 1.8891458194	-2.176098503	 1.4127286409	 0.098634
250.7616	292.8001	441.9829	563.3291	604.2199	632.1746	672.0715	782.9002	795.4333	807.3017	831.9283	841.1732	866.372	883.7733	923.2682	936.8992	957.5506	967.3484	990.8801	1013.4332	1043.3726	1055.733	1132.2632	1151.4249	1154.9442	1220.5242	1265.5861	1309.6497	1391.1665	1421.8421	1612.2369	3184.6361	3195.6273	3196.5406	3204.3291	3238.2682
O1C=NC23C4C5C(C24)C135	O1C=N[C@@]23[C@@H]4[C@H]5[C@@H]([C@H]24)[C@@]135	
InChI=1S/C7H5NO/c1-8-6-2-3(6)5-4(2)7(5,6)9-1/h1-5H	InChI=1S/C7H5NO/c1-8-6-2-3(6)5-4(2)7(5,6)9-1/h1-5H/t2-,3+,4-,5+,6-,7+
