20
gdb 93403	2.75435	1.3256	0.92837	4.5541	83.39	-0.2343	-0.0255	0.2088	1272.1515	0.172126	-403.210113	-403.201248	-403.200304	-403.243385	33.953	
C	 0.0711191684	 1.6109493257	-0.0732256197	-0.408232
C	 0.036153322	 0.0789489235	 0.0291071725	-0.075813
C	 0.6049633664	-0.5398142445	-1.2543556239	-0.167624
N	 0.7237238965	-1.9828951258	-1.132089505	-0.347481
C	 1.3020178467	-2.5570927396	-0.022504041	 0.396512
O	 1.7035271056	-3.7089750236	-0.01671226	-0.384642
C	 1.3438929643	-1.6866376523	 1.1754064257	-0.262384
C	 0.7580299633	-0.4828670923	 1.2459370614	 0.313929
C	 0.7225504158	 0.2992488749	 2.5286617274	-0.486034
H	 1.1004104431	 1.9818797501	-0.1293301122	 0.12392
H	-0.452061539	 1.9415629959	-0.9761664369	 0.119328
H	-0.4138731642	 2.0877752019	 0.7817936118	 0.123625
H	-1.0179677253	-0.2294127693	 0.1170133896	 0.101462
H	-0.0539603685	-0.3124503232	-2.0979937288	 0.110021
H	 1.5810916607	-0.0721244708	-1.4681596156	 0.100352
H	 0.8315667437	-2.5283126103	-1.9751587529	 0.242524
H	 1.8321017251	-2.1336140806	 2.0348497617	 0.10265
H	 1.2038663672	-0.2518853606	 3.3395442171	 0.13075
H	 1.2233205259	 1.2688542384	 2.4269908654	 0.134635
H	-0.3117782577	 0.5137769027	 2.8276534234	 0.132501
81.7894	161.7608	210.1442	220.193	239.884	304.7026	323.1884	342.4538	414.6726	476.7121	513.3893	555.0964	590.5544	716.9459	740.8353	753.195	893.4398	901.3378	913.3755	961.9852	1022.7811	1040.1226	1099.4909	1107.8214	1121.6899	1136.2948	1188.0038	1263.5981	1290.3223	1316.8371	1356.9723	1370.0717	1390.2568	1408.7244	1412.9044	1470.5867	1477.9487	1481.7457	1500.0945	1505.8852	1515.1333	1693.9885	1781.5017	2957.1879	2981.9435	3022.0449	3036.7535	3071.087	3073.0177	3101.4702	3120.064	3124.0638	3191.4355	3607.2396
CC1CNC(=O)C=C1C	C[C@H]1CNC(=O)C=C1C	
InChI=1S/C7H11NO/c1-5-3-7(9)8-4-6(5)2/h3,6H,4H2,1-2H3,(H,8,9)	InChI=1S/C7H11NO/c1-5-3-7(9)8-4-6(5)2/h3,6H,4H2,1-2H3,(H,8,9)/t6-/m0/s1
