25
gdb 59357	2.61244	1.12841	0.90723	1.5539	89.1	-0.2374	0.0778	0.3151	1441.6958	0.227001	-389.493536	-389.482755	-389.481811	-389.529203	40.247	
C	-0.3149273363	 1.3752699975	-1.0377440185	-0.390662
C	-0.0572546568	 0.0251478099	-0.3531917846	 0.007678
C	 0.729282142	 0.202649224	 0.9528941213	-0.397363
C	-1.3816266826	-0.6824828581	-0.0917440264	 0.166694
O	-2.2008637146	-0.8106941074	-1.2785020479	-0.319169
C	-2.6007904707	-2.1486614447	-0.9027192618	 0.162075
C	-2.6350068981	-3.100524054	-2.0806299298	-0.408455
C	-1.4781058029	-2.2150173894	 0.1715714057	-0.085375
C	-0.2635343153	-3.0768817983	-0.1585555363	-0.410769
H	 0.6284285096	 1.8723472514	-1.2859375856	 0.104692
H	-0.8898241328	 1.2396421325	-1.9566676905	 0.135885
H	-0.8823855742	 2.0447825428	-0.3800311073	 0.108232
H	 0.5327652056	-0.5945316044	-1.0395892825	 0.070746
H	 0.1737374279	 0.8290592076	 1.6609493144	 0.114008
H	 0.9335770372	-0.7535634302	 1.4447607714	 0.114353
H	 1.6899941424	 0.6917026496	 0.7633881578	 0.114129
H	-1.9329078768	-0.1174532386	 0.679775742	 0.057915
H	-3.5953115248	-2.1218507424	-0.4297309558	 0.064929
H	-1.6654890903	-3.1618673925	-2.5810415351	 0.120016
H	-2.9286761487	-4.1049919147	-1.7570404823	 0.114132
H	-3.3716048285	-2.7530113869	-2.8121789618	 0.12657
H	-1.8420538302	-2.4674417174	 1.1712790827	 0.068195
H	 0.1508564473	-2.8517765084	-1.1449356573	 0.127318
H	 0.5337149139	-2.9348690154	 0.5775500596	 0.119088
H	-0.532838442	-4.1384139825	-0.1474725814	 0.115137
50.1976	84.5998	152.7759	205.8957	209.6866	232.6257	240.9649	253.8056	274.2543	306.0646	361.1712	391.3143	459.4639	497.1201	519.4446	754.9214	780.9785	797.7701	884.0587	896.687	930.275	953.0587	975.5469	1001.146	1017.438	1048.9196	1051.3822	1104.0303	1130.7777	1161.8671	1178.263	1189.465	1210.4104	1257.7868	1280.3168	1314.126	1326.5701	1346.8276	1377.1642	1382.82	1395.2014	1402.6666	1412.2364	1418.474	1437.9069	1479.2863	1488.281	1488.8934	1492.2105	1500.0288	1504.6014	1508.9882	1513.6251	2946.1827	2969.8634	3026.5986	3028.0156	3033.6083	3036.9103	3040.7313	3064.9497	3089.8984	3095.5965	3099.7619	3104.071	3105.2169	3114.2587	3125.4269	3126.3167
CC(C)C1OC(C)C1C	CC(C)[C@H]1O[C@@H](C)[C@H]1C	
InChI=1S/C8H16O/c1-5(2)8-6(3)7(4)9-8/h5-8H,1-4H3	InChI=1S/C8H16O/c1-5(2)8-6(3)7(4)9-8/h5-8H,1-4H3/t6-,7+,8-/m1/s1
