18
gdb 96869	2.22558	1.46329	0.9168	4.2668	77.89	-0.2468	-0.0612	0.1856	1277.7332	0.146022	-439.121101	-439.111854	-439.11091	-439.155989	32.823	
C	-0.1563914481	 1.4492854989	 0.1354925055	-0.335588
N	-0.0744309079	 0.0012637163	 0.0618997742	-0.288353
C	 0.6790703939	-0.6184048977	 0.8590830857	 0.326062
O	 1.4480109112	-0.0699225786	 1.8441067833	-0.267361
C	 2.344664572	-1.055917779	 2.4291132215	 0.118956
C	 2.4984802236	-0.7424081869	 3.9045298012	-0.400459
C	 1.7298786401	-2.4194791792	 2.0921907267	-0.356904
C	 0.8455063704	-2.1249446042	 0.8859451253	 0.31257
O	 0.3651941165	-2.9086821806	 0.115260739	-0.278898
H	 0.6776744039	 1.9196603332	 0.6686667338	 0.123786
H	-0.2134802967	 1.8500190755	-0.8811555424	 0.132352
H	-1.0896549287	 1.7296912812	 0.6400942345	 0.13597
H	 3.3116450753	-0.9463860478	 1.921243373	 0.09963
H	 1.537084464	-0.8338393115	 4.4191750612	 0.12948
H	 3.2081177792	-1.4367930857	 4.3648766485	 0.126976
H	 2.8710070837	 0.2759033828	 4.0441696695	 0.135462
H	 2.460127089	-3.2014890569	 1.8790064662	 0.143216
H	 1.0849797185	-2.7715960499	 2.9072995933	 0.143103
59.1312	74.834	100.7224	184.1772	195.3474	233.9754	298.231	365.6566	440.8213	467.2702	573.7018	603.0541	619.5889	688.276	757.0856	878.8387	915.3236	950.25	990.563	1046.6045	1082.2656	1097.9711	1126.28	1161.6834	1164.0735	1211.9892	1246.1838	1261.2326	1363.4383	1389.5965	1414.9436	1432.1354	1450.2079	1483.7053	1484.0018	1496.2899	1496.6631	1766.8204	1861.793	3015.3176	3020.4849	3040.6106	3043.3154	3074.9769	3098.5137	3117.112	3123.5537	3127.4288
CN=C1OC(C)CC1=O	CN=C1O[C@@H](C)CC1=O	
InChI=1S/C6H9NO2/c1-4-3-5(8)6(7-2)9-4/h4H,3H2,1-2H3	InChI=1S/C6H9NO2/c1-4-3-5(8)6(7-2)9-4/h4H,3H2,1-2H3/t4-/m0/s1
