23
gdb 41812	2.16963	1.90446	1.41157	1.3446	83.62	-0.2361	0.0709	0.307	1052.9629	0.210202	-388.313138	-388.30542	-388.304475	-388.345319	31.774	
C	-0.0425316086	 1.3852939911	-0.4120454626	-0.21837
C	 1.2055166181	 2.034553658	 0.2477665651	-0.219558
C	 2.0114186797	 0.8879688247	 0.9157282258	 0.141547
C	 1.5073911671	-0.3742432894	 0.1983972509	-0.256582
C	 0.0044792903	-0.1227619037	-0.0488780319	 0.019765
C	-0.8693553841	-0.4804396546	 1.1661618406	-0.20593
C	-0.5480542334	 0.2699933661	 2.4671972861	-0.212326
C	 0.8910901073	 0.0914081365	 2.9651980451	-0.057191
O	 1.8697375299	 0.8978235276	 2.3371756293	-0.275595
H	-0.9780632773	 1.8487970801	-0.083932527	 0.09543
H	-0.0010614706	 1.5071692109	-1.498645412	 0.094687
H	 1.8221489982	 2.5368766762	-0.5040409625	 0.093687
H	 0.9545405675	 2.7806894475	 1.0051075879	 0.107196
H	 3.0856603862	 1.028602256	 0.7592480821	 0.07369
H	 2.0290083801	-0.4392082407	-0.7638535713	 0.094736
H	 1.7233850759	-1.2992540199	 0.7404611477	 0.099906
H	-0.3488484839	-0.7279753671	-0.8904873	 0.061664
H	-1.9209202646	-0.3062515389	 0.9052041063	 0.091274
H	-0.7758104633	-1.5586112388	 1.3563497419	 0.08887
H	-0.7547750671	 1.342588966	 2.3667343239	 0.104957
H	-1.2204443063	-0.0985765314	 3.2521041475	 0.094464
H	 0.9506306488	 0.3796579706	 4.0199936435	 0.101956
H	 1.1635338603	-0.9761025467	 2.9139348736	 0.081722
62.6283	174.5557	273.4096	315.6488	360.2208	379.6409	419.0808	462.6064	527.7953	712.2559	727.3257	766.0012	781.762	807.1384	836.5084	871.3583	888.8474	930.0052	935.1815	991.9282	1002.6392	1015.7543	1031.5829	1061.605	1095.99	1114.6703	1135.5161	1185.2255	1200.225	1213.2538	1233.0256	1251.7412	1272.9081	1289.3518	1317.3614	1320.8026	1345.0896	1354.141	1367.9383	1381.1533	1396.5182	1403.2543	1420.6359	1473.9054	1481.6883	1483.3221	1485.7088	1505.4384	1513.2466	2962.5466	3006.4249	3023.4159	3032.2093	3038.7411	3045.4893	3049.0809	3052.096	3064.4875	3065.3562	3067.7241	3080.6402	3092.1322	3110.2158
C1CC2CC1CCCO2	C1C[C@@H]2C[C@H]1CCCO2	
InChI=1S/C8H14O/c1-2-7-3-4-8(6-7)9-5-1/h7-8H,1-6H2	InChI=1S/C8H14O/c1-2-7-3-4-8(6-7)9-5-1/h7-8H,1-6H2/t7-,8+/m0/s1
