17
gdb 7318	4.3263	1.21156	0.95892	2.944	71.7	-0.2335	0.0113	0.2448	1198.8968	0.141652	-397.224191	-397.215026	-397.214082	-397.25795	32.341	
C	 0.0609628532	 1.4422054013	 0.0220314013	-0.312188
N	-0.0300160065	-0.0033014983	 0.0494743215	-0.257448
C	 0.5311137782	-0.6380071867	-0.8918973222	 0.126125
N	 0.5034742576	-2.0288246937	-0.9701147639	-0.155634
C	-0.2079369993	-2.790702668	 0.048407083	-0.362933
C	 1.1577905976	-2.6342664754	-2.0486673083	 0.477029
N	 1.1191112284	-4.0123564673	-2.0434032059	-0.575467
O	 1.6841038293	-2.0014693164	-2.944257937	-0.392895
H	 0.6292497861	 1.8357311659	-0.8353346975	 0.102587
H	-0.9459339909	 1.8754767267	-0.0042147319	 0.124545
H	 0.5350506316	 1.8001248882	 0.943651139	 0.123711
H	 1.081229448	-0.1932180197	-1.7236889118	 0.137625
H	-0.9034387466	-3.4967013711	-0.4139121989	 0.138771
H	 0.4827890282	-3.3372646498	 0.7033339089	 0.124818
H	-0.7609697195	-2.076414807	 0.6572237566	 0.177267
H	 1.025431997	-4.5170770946	-1.1779030637	 0.25773
H	 1.7325189976	-4.4253080439	-2.7279388494	 0.266358
75.8757	135.8303	165.5553	172.8848	177.019	217.1707	330.8044	377.4068	394.0836	410.9569	437.8724	527.631	577.4405	640.1087	772.0126	858.9844	1014.5576	1022.3154	1082.1862	1101.2459	1141.4007	1152.6944	1156.0221	1223.0847	1342.9033	1371.0554	1407.7979	1446.6286	1460.8796	1481.1404	1502.5045	1504.6525	1517.4322	1621.3991	1751.3238	1799.3395	2978.0217	3017.7102	3057.0242	3070.9192	3090.4013	3116.1987	3159.7571	3598.3456	3717.3722
CN=CN(C)C(N)=O	CN=CN(C)C(=O)N	
InChI=1S/C4H9N3O/c1-6-3-7(2)4(5)8/h3H,1-2H3,(H2,5,8)	InChI=1S/C4H9N3O/c1-6-3-7(2)4(5)8/h3H,1-2H3,(H2,5,8)
