14
gdb 20653	3.39813	2.28779	1.37876	2.7744	67.29	-0.2354	-0.0568	0.1787	843.6567	0.109376	-378.772692	-378.765925	-378.76498	-378.803632	25.218	
C	-0.0286732592	 1.5175397755	 0.0129020035	-0.476146
C	-0.0069291933	 0.0232174491	-0.0396776335	 0.183069
C	-0.0378530338	-0.7183590441	-1.1792120053	-0.192199
C	-0.0129992086	-2.1433447707	-1.1201519322	 0.007062
N	 0.0394880767	-2.8097932543	-0.0017911183	-0.186358
N	 0.0694811221	-2.0679568327	 1.1132730801	-0.262052
C	 0.0523154676	-0.6776086856	 1.2443828033	 0.372136
O	 0.0852821288	-0.1532301237	 2.3461263225	-0.384207
H	 0.8596489671	 1.8932399539	 0.532006275	 0.153007
H	-0.0733776454	 1.954629888	-0.9870070396	 0.11991
H	-0.886764677	 1.865497096	 0.5979925543	 0.153015
H	-0.0819532627	-0.2339959352	-2.1505829866	 0.11136
H	-0.0373032341	-2.7430813072	-2.0228333514	 0.127361
H	 0.1102015719	-2.5927349791	 1.9775144582	 0.274042
136.9086	148.9162	249.7026	283.0985	415.0869	466.1497	539.757	582.0716	600.8185	742.1055	743.5283	783.775	876.2329	893.3534	957.8579	1001.8612	1066.1111	1078.7972	1167.1777	1183.6054	1259.9297	1376.213	1399.0444	1413.3615	1445.9466	1465.5327	1480.5852	1592.5295	1662.1122	1771.5315	3039.6833	3093.7961	3130.7044	3170.1713	3201.1867	3591.1036
CC1=CC=NNC1=O	Cc1ccn[nH]c1=O	
InChI=1S/C5H6N2O/c1-4-2-3-6-7-5(4)8/h2-3H,1H3,(H,7,8)	InChI=1S/C5H6N2O/c1-4-2-3-6-7-5(4)8/h2-3H,1H3,(H,7,8)
