18
gdb 125489	3.13863	1.05871	0.84371	2.3001	73.76	-0.2509	0.0099	0.2609	1352.5212	0.148706	-435.293332	-435.284203	-435.283259	-435.328416	31.937	
C	-0.222615258	 1.5270016343	-0.1002589442	-0.506107
C	-0.063690994	 0.0441457798	-0.0545340049	 0.355019
N	-0.0515485423	-0.7645693034	-1.104272948	-0.315248
C	 0.1116811335	-1.9922750197	-0.5440841222	 0.023897
N	 0.1997113601	-2.0035050184	 0.7739736656	-0.26056
N	 0.0818190353	-0.6828944119	 1.080971517	 0.000309
C	 0.1709519412	-0.2556953315	 2.4630322421	-0.184239
C	 1.6093165194	-0.3287895912	 2.9986918184	-0.071971
O	 1.6752050459	 0.0990305433	 4.345179387	-0.405991
H	 0.6423739278	 2.0459494829	 0.3261780763	 0.141914
H	-0.3273382632	 1.8287685176	-1.1427177505	 0.162594
H	-1.1116555447	 1.8578695138	 0.4475992508	 0.141996
H	 0.1631818798	-2.9029497181	-1.1223913071	 0.123277
H	-0.2004099742	 0.7686156338	 2.5389918434	 0.132746
H	-0.4822775973	-0.8997713788	 3.0604445781	 0.126912
H	 1.9941520641	-1.3473344681	 2.859289315	 0.124554
H	 2.2500348704	 0.3486368384	 2.4244766727	 0.120098
H	 1.3193625662	-0.6016363629	 4.9006835904	 0.2908
44.2592	89.4354	104.4152	121.2943	250.4257	264.0557	300.4719	331.4799	372.3196	444.8357	673.0017	687.1747	705.8852	783.8422	800.4556	907.8097	981.8362	1008.1148	1031.9721	1041.565	1066.0012	1077.9099	1123.1417	1208.3874	1227.0931	1289.9239	1313.4539	1333.4847	1341.9018	1399.5116	1407.4052	1416.7268	1430.5182	1475.4535	1483.6447	1486.7633	1510.9226	1517.4581	1566.1746	3025.6339	3039.4009	3058.0092	3082.1263	3092.3287	3124.601	3153.2944	3256.9826	3821.3942
CC1=NC=NN1CCO	Cc1ncnn1CCO	
InChI=1S/C5H9N3O/c1-5-6-4-7-8(5)2-3-9/h4,9H,2-3H2,1H3	InChI=1S/C5H9N3O/c1-5-6-4-7-8(5)2-3-9/h4,9H,2-3H2,1H3
