17
gdb 111030	2.12532	1.65255	1.10131	1.9242	76.45	-0.2393	0.0108	0.2501	1127.1253	0.133424	-421.707007	-421.698443	-421.697499	-421.74038	32.075	
C	 0.3799684844	 1.1731866409	-0.2985843555	-0.24742
O	-0.3422448741	 0.190152199	 0.4243477796	-0.247873
C	 0.4438361006	-0.5364397024	 1.3020494883	 0.120592
C	-0.1952624274	-1.757849112	 1.9925191	-0.025355
C	-0.1852622676	-2.5373462828	 0.6583320477	-0.262115
C	 1.1984684741	-1.8482426132	 0.8351332757	 0.299188
O	 1.1753437229	-2.2454197887	 2.2690712611	-0.333452
C	 2.399931868	-1.9981302275	 0.0764039008	 0.060143
C	 3.3972164375	-2.1035061609	-0.5877382265	-0.35557
H	 1.1445189577	 0.719865787	-0.9430336045	 0.127406
H	-0.3414604751	 1.7091216817	-0.9185587213	 0.132763
H	 0.8706356539	 1.886313463	 0.3796069953	 0.115103
H	 1.0601223878	 0.0880688819	 1.9605826908	 0.090365
H	-0.9115410978	-1.7876673162	 2.8109933215	 0.103191
H	-0.163634781	-3.6227721416	 0.755149808	 0.114563
H	-0.8227302751	-2.1743116403	-0.1477570769	 0.119159
H	 4.2815285011	-2.2005106778	-1.168006884	 0.189311
79.0957	118.0651	168.1005	176.9473	223.3543	323.3557	393.9769	481.7911	492.4261	564.4527	582.4966	618.6928	625.6415	687.2451	744.3508	859.3783	912.1713	939.8284	956.6897	982.3726	1039.4988	1063.1707	1098.7249	1140.0316	1181.4211	1187.2056	1217.4002	1231.2945	1238.1016	1252.4125	1289.1129	1373.8405	1473.9852	1486.5034	1490.9416	1508.5157	2234.476	2994.9872	3044.1968	3054.6007	3089.1708	3127.5615	3147.0178	3171.9758	3499.6065
COC1C2CC1(O2)C#C	CO[C@H]1[C@H]2C[C@@]1(O2)C#C	
InChI=1S/C7H8O2/c1-3-7-4-5(9-7)6(7)8-2/h1,5-6H,4H2,2H3	InChI=1S/C7H8O2/c1-3-7-4-5(9-7)6(7)8-2/h1,5-6H,4H2,2H3/t5-,6+,7+/m1/s1
