17
gdb 79223	2.67611	1.62097	1.30338	0.8405	78.98	-0.2401	0.0349	0.2751	1011.995	0.135545	-384.605461	-384.597771	-384.596827	-384.637236	31.012	
O	-0.0768433214	 1.4725873021	-0.0955660046	-0.433686
C	-0.036930838	 0.070073419	-0.0845481119	 0.103159
C	-1.3686433293	-0.644860177	-0.1054294269	-0.10115
C	-1.798899853	-0.7890032938	-1.5693229764	-0.077401
C	-0.734040317	-0.1160533776	-2.4303865691	-0.267399
C	 0.3009377703	-0.699252132	-1.4184955916	 0.192531
C	 1.6591789333	-0.9621165595	-1.7847541788	 0.013771
C	 2.8091143474	-1.1677858391	-2.0763455545	-0.33754
C	-0.8066154465	-1.7521737849	-0.9719795491	-0.139875
H	 0.8262844122	 1.8021852731	-0.0376132032	 0.287635
H	 0.5983561668	-0.3158023775	 0.7232865951	 0.078036
H	-2.0782057147	-0.7371898151	 0.7056735843	 0.093012
H	-2.8332664565	-0.9820159567	-1.8203338753	 0.093077
H	-0.6384915096	-0.5992611969	-3.4051435781	 0.10674
H	-0.745902183	 0.9722035225	-2.5334884868	 0.108785
H	 3.819820782	-1.3549080462	-2.342073412	 0.178935
H	-0.786377283	-2.8237762802	-0.847047691	 0.10137
125.0339	158.0315	232.3588	294.9807	313.9157	425.1359	484.1982	521.3642	570.1587	611.0176	614.1095	637.0373	723.6889	762.0742	800.5504	814.8675	874.6685	931.6495	946.9601	984.5403	998.2759	1013.8143	1039.4057	1060.7689	1083.9415	1131.3202	1149.7818	1168.8282	1198.4601	1237.5497	1261.5848	1299.5958	1336.7531	1361.0502	1437.6365	1487.1052	2228.8178	3022.6163	3061.5595	3124.0314	3203.071	3210.9007	3240.1922	3502.5115	3811.3263
OC1C2C3CC1(C#C)C23	O[C@H]1[C@H]2[C@H]3C[C@]1(C#C)[C@@H]23	
InChI=1S/C8H8O/c1-2-8-3-4-5(6(4)8)7(8)9/h1,4-7,9H,3H2	InChI=1S/C8H8O/c1-2-8-3-4-5(6(4)8)7(8)9/h1,4-7,9H,3H2/t4-,5+,6-,7+,8-/m1/s1
