19
gdb 17172	3.9245	1.78639	1.53932	1.9981	75.19	-0.2249	0.0853	0.3101	910.401	0.166054	-327.833427	-327.826207	-327.825263	-327.86486	28.293	
C	-0.004627477	 1.5558919028	-0.0625658491	-0.378641
C	-0.0313878213	 0.0268508568	 0.0595418896	-0.322888
C	 0.6975143832	-0.4802651932	 1.2802131288	 0.339512
C	 0.4470046846	-0.2160419491	 2.76598206	-0.229729
N	 1.6485181414	-1.1482810545	 2.8595755043	-0.161569
C	 1.107338275	-1.9471537291	 1.6439846227	-0.051784
C	 2.4629860904	-1.8707641917	 0.9358035866	-0.261028
C	 2.2381484024	-0.4994153183	 1.5789910251	-0.037705
H	 1.0224054535	 1.9281434931	-0.1397712277	 0.118541
H	-0.5497418939	 1.8913670346	-0.949708398	 0.114934
H	-0.4642306348	 2.0308348524	 0.8105122159	 0.120474
H	-1.071827976	-0.3226166107	 0.0973732417	 0.100587
H	 0.4094244446	-0.4252139548	-0.8387780036	 0.099063
H	 0.6443822976	 0.7875655926	 3.1588264222	 0.095878
H	-0.4618493031	-0.6300313218	 3.2178555241	 0.094083
H	 0.4444619	-2.8010240194	 1.8013322001	 0.076957
H	 3.2637155578	-2.476985943	 1.367343721	 0.107621
H	 2.4618246143	-1.9189796671	-0.155765185	 0.09788
H	 2.9129170814	 0.3553388604	 1.6616486714	 0.077812
80.1028	174.6973	199.9156	287.969	357.2587	434.0701	472.9952	606.3452	714.3864	762.9526	795.801	861.8024	872.2168	892.31	898.4899	922.2705	976.7383	983.7715	1012.103	1028.5043	1052.3238	1075.4725	1104.5281	1138.1415	1143.311	1166.7849	1197.7591	1210.464	1224.6856	1249.9373	1286.4054	1312.8349	1332.4532	1377.7332	1411.8201	1477.0789	1490.3007	1500.7525	1506.3478	1517.7851	3013.485	3025.6642	3035.2873	3044.975	3058.3323	3082.8752	3087.3678	3095.0802	3102.8079	3108.128	3123.5368
CCC12CN3C1CC23	CC[C@@]12CN3[C@@H]1C[C@@H]23	
InChI=1S/C7H11N/c1-2-7-4-8-5(7)3-6(7)8/h5-6H,2-4H2,1H3	InChI=1S/C7H11N/c1-2-7-4-8-5(7)3-6(7)8/h5-6H,2-4H2,1H3/t5-,6+,7-
