14
gdb 19350	5.55627	1.63104	1.49798	3.9405	62.67	-0.2441	-0.0446	0.1995	834.6494	0.105687	-382.462239	-382.455662	-382.454717	-382.493015	25.029	
O	-0.2295964056	 0.3468969504	-0.8342331896	-0.255497
C	 0.0438847291	 1.0978468044	 0.0681481704	 0.053695
C	 1.2807645842	 1.9001077195	 0.1531587045	 0.309321
O	 2.1198073671	 2.0438562671	-0.9985625624	-0.249845
C	 2.6897705433	 1.4341522145	 0.1430702424	-0.022636
C	 3.0913889398	 2.5087529364	 1.1943423548	-0.088497
C	 2.7409361998	 3.8947128227	 0.7177908494	-0.287778
C	 1.6475838255	 2.9914270263	 1.2129943297	-0.142175
H	-0.6270624218	 1.2296803781	 0.947042646	 0.077797
H	 3.0770289646	 0.4272463018	 0.039992231	 0.130112
H	 3.7449873324	 2.3076325327	 2.0315962832	 0.104128
H	 3.0174976241	 4.6862889138	 1.4064878048	 0.121666
H	 2.8106477494	 4.1482914353	-0.3322920822	 0.144796
H	 1.024949268	 3.2069701569	 2.0710313279	 0.104914
101.6144	190.875	211.4222	387.7022	420.1569	459.2299	609.3754	726.8691	743.8194	754.3953	812.9581	859.3674	875.8573	918.4595	941.3756	990.5385	1004.9786	1043.8687	1054.1011	1064.1931	1101.7924	1125.4785	1174.2298	1263.9504	1265.4004	1304.0063	1404.6851	1432.5315	1467.5549	1811.741	2875.7378	3144.7909	3192.5041	3203.0341	3215.6987	3237.1229
O=CC12OC1C1CC21	O=C[C@]12O[C@H]1[C@H]1C[C@@H]21	
InChI=1S/C6H6O2/c7-2-6-4-1-3(4)5(6)8-6/h2-5H,1H2	InChI=1S/C6H6O2/c7-2-6-4-1-3(4)5(6)8-6/h2-5H,1H2/t3-,4+,5-,6+/m0/s1
