15
gdb 48694	2.99929	1.19123	0.98493	5.8546	71.95	-0.2575	-0.0376	0.2198	1176.1896	0.112324	-416.777569	-416.769678	-416.768734	-416.810452	29.052	
O	-0.1399947275	-0.0607171957	 0.1097414449	-0.252335
C	-0.0258505006	 1.1179044523	-0.1083685477	 0.086377
C	 1.2572635126	 1.8442405145	-0.1259796836	 0.279465
C	 1.3500381294	 3.3054238687	 0.2921447099	-0.341769
C	 1.7634314368	 2.9340000253	-1.0903562556	-0.126071
C	 3.1257951987	 2.2163470988	-1.0368819524	-0.143916
N	 2.5464262414	 1.1651094262	-0.153414238	-0.34597
C	 3.5997875113	 1.6875549709	-2.3178243659	 0.314376
N	 3.9767766335	 1.3059800448	-3.3407652379	-0.312674
H	-0.9080026829	 1.7722847266	-0.2994771607	 0.072258
H	 0.4039122583	 3.8332657396	 0.3642682617	 0.139416
H	 2.0869274651	 3.5863970658	 1.0404040719	 0.126336
H	 1.2915976222	 3.308445747	-1.9880702531	 0.138746
H	 3.9272647356	 2.8185045357	-0.5919053806	 0.130018
H	 3.008111836	 1.0531496696	 0.7445014071	 0.235742
72.5473	143.7343	175.601	205.3044	286.9118	377.1686	416.2675	474.4266	501.83	564.0529	711.2896	772.173	776.5789	857.5971	921.8219	922.6315	958.7908	993.6307	1011.2699	1049.9936	1058.8965	1076.5436	1090.6448	1206.6146	1237.6973	1291.2501	1340.7597	1359.0377	1396.1252	1437.4616	1477.2013	1822.5488	2364.8527	2863.1105	3034.9993	3113.8795	3205.6837	3222.7782	3510.908
O=CC12CC1C(N2)C#N	O=C[C@]12C[C@H]1[C@@H](N2)C#N	
InChI=1S/C6H6N2O/c7-2-5-4-1-6(4,3-9)8-5/h3-5,8H,1H2	InChI=1S/C6H6N2O/c7-2-5-4-1-6(4,3-9)8-5/h3-5,8H,1H2/t4-,5-,6+/m0/s1
