21
gdb 95228	3.1993	1.36261	1.06968	1.2154	84.55	-0.2345	0.0164	0.2509	1188.3893	0.183755	-387.076454	-387.068251	-387.067307	-387.108744	32.882	
C	 0.1422413255	 1.6488274474	-0.0412722337	-0.416349
C	-0.033202657	 0.1293461602	 0.0650879505	-0.051525
C	 0.3987663325	-0.5368887414	-1.2647340864	-0.061473
O	 0.6278663075	-1.9347135865	-1.1977685436	-0.243198
C	-0.3582048791	-2.6812851888	-0.5569539342	 0.106427
C	 0.1599168991	-3.8571216576	 0.2118582381	-0.319199
C	-0.3973169292	-2.6542341505	 0.9568816007	-0.104372
C	 0.5121066195	-1.7122887065	 1.6663681619	-0.084641
C	 0.6910439593	-0.4552796763	 1.2587403089	-0.033214
H	 1.2006884122	 1.9147200288	-0.1441756588	 0.118409
H	-0.3897270436	 2.0520698192	-0.9093720379	 0.113512
H	-0.2440353473	 2.1516636749	 0.8505421733	 0.119217
H	-1.1033005042	-0.0761699025	 0.1950165415	 0.090229
H	-0.3559736337	-0.3057281962	-2.0340859285	 0.086523
H	 1.3525834709	-0.1152709776	-1.6001393694	 0.104715
H	-1.29739225	-2.7755836417	-1.1042044677	 0.078807
H	-0.4135986383	-4.7771704195	 0.212489016	 0.109724
H	 1.2368416459	-3.9821861227	 0.2052714351	 0.12582
H	-1.3704575677	-2.8111237683	 1.4210924581	 0.0925
H	 1.036605288	-2.0821716868	 2.5452958149	 0.086672
H	 1.3796173196	 0.1948468625	 1.7947869011	 0.081416
114.2465	194.448	224.5198	245.335	294.3536	334.4265	340.4816	392.8267	452.3815	558.9874	616.2497	731.508	765.0613	784.0308	812.401	838.6333	866.0724	930.9468	948.5581	980.6614	995.0552	1043.7996	1065.1613	1073.0916	1097.1642	1117.2704	1124.3821	1142.2113	1164.2999	1180.2599	1220.7375	1239.8018	1283.1713	1327.272	1336.813	1363.9009	1389.0477	1407.9857	1410.0746	1433.8891	1478.1833	1495.1175	1501.0125	1504.5617	1706.5195	2970.5308	3016.7623	3028.89	3067.6727	3084.7627	3095.9741	3104.801	3105.7837	3132.3732	3138.131	3156.4335	3229.939
CC1COC2CC2C=C1	C[C@H]1CO[C@H]2C[C@H]2C=C1	
InChI=1S/C8H12O/c1-6-2-3-7-4-8(7)9-5-6/h2-3,6-8H,4-5H2,1H3	InChI=1S/C8H12O/c1-6-2-3-7-4-8(7)9-5-6/h2-3,6-8H,4-5H2,1H3/t6-,7-,8+/m1/s1
