17
gdb 13965	5.06403	1.24855	1.13658	2.0859	68.79	-0.2422	-0.0274	0.2148	1058.4352	0.141576	-363.823933	-363.816259	-363.815315	-363.856935	27.933	
O	-0.5976787039	 0.5379759337	 0.563384896	-0.233879
C	 0.2379395015	 0.8459600429	-0.2455965447	 0.160609
C	 1.2385860747	 1.9734610433	-0.072750854	-0.375615
C	 1.1729877722	 2.953352973	-1.215777972	 0.337002
C	 1.8800598415	 2.7597636573	-2.5017067993	-0.280515
N	 2.3449295414	 3.8404340157	-1.610903859	-0.168031
C	 1.3621824893	 4.9655272729	-1.8167968549	-0.149527
C	 0.1689871191	 4.1037537956	-1.3303621471	-0.305694
H	 0.3287646781	 0.3024440469	-1.2145321861	 0.076658
H	 1.0582585932	 2.4600819753	 0.8904996918	 0.122734
H	 2.243710141	 1.5302003001	-0.0529917186	 0.132182
H	 2.587142926	 1.9386383549	-2.5738533015	 0.120221
H	 1.3930920953	 3.020377012	-3.4399460156	 0.11219
H	 1.605987545	 5.799597753	-1.1567220483	 0.116689
H	 1.3288200451	 5.3263237937	-2.849962041	 0.107812
H	-0.6755287727	 3.9538951476	-2.0090685369	 0.107771
H	-0.2154503068	 4.4275498323	-0.3609574189	 0.119392
48.6888	67.6222	165.8897	262.8416	319.0476	378.3027	472.7102	488.6766	663.4143	746.8663	774.6686	804.3334	816.3262	893.1763	933.8443	972.261	981.4288	1018.6444	1053.495	1095.8022	1103.3675	1127.3983	1175.5602	1194.0759	1219.927	1248.1558	1276.2443	1298.0594	1337.1622	1373.9093	1427.1631	1454.1003	1488.2807	1495.4189	1518.8907	1835.7051	2865.0223	3024.182	3049.3612	3060.0389	3095.19	3097.48	3106.5773	3124.6329	3190.6775
O=CCC12CN1CC2	O=CC[C@]12CN1CC2	
InChI=1S/C6H9NO/c8-4-2-6-1-3-7(6)5-6/h4H,1-3,5H2	InChI=1S/C6H9NO/c8-4-2-6-1-3-7(6)5-6/h4H,1-3,5H2/t6-,7?/m1/s1
