22
gdb 89077	5.19472	0.55065	0.52431	4.3488	87.99	-0.2759	0.0382	0.3141	2100.1716	0.193557	-367.226084	-367.215841	-367.214897	-367.26245	36.75	
C	 0.157962747	 1.5530471127	-0.3000447011	-0.405097
C	 0.0771229804	 0.0617210863	-0.0537151385	-0.005773
C	 1.3218714766	-0.7913776824	 0.0061372601	-0.29128
C	 0.486799417	-0.586376293	 1.2508465232	 0.004811
C	 1.0245245594	 0.1917640052	 2.4341916195	-0.217022
C	 1.8618472164	-0.6872618648	 3.3720508514	-0.169362
C	 2.3935875663	 0.1034557691	 4.5841249734	-0.343771
C	 3.186123948	-0.721272134	 5.493307804	 0.256315
N	 3.8096140522	-1.3893580294	 6.2007630461	-0.305597
H	 1.0591861671	 1.9946652628	 0.1349541639	 0.114491
H	 0.181076213	 1.7646799626	-1.3746482792	 0.119716
H	-0.7065884232	 2.0778104035	 0.1221827318	 0.116855
H	-0.779345393	-0.4069634688	-0.5323754897	 0.084712
H	 1.3246604006	-1.7630478723	-0.4754490674	 0.11145
H	 2.2762144551	-0.2736794522	-0.0401870116	 0.106222
H	-0.1232854821	-1.4382680634	 1.5444299697	 0.082391
H	 1.6374276739	 1.0327842526	 2.0887153553	 0.097355
H	 0.1912256759	 0.6323565383	 2.999726704	 0.098842
H	 1.2606936177	-1.5299185285	 3.7317491502	 0.119356
H	 2.7052891923	-1.1190057061	 2.8230039087	 0.124676
H	 3.0140167026	 0.9425731572	 4.2473816286	 0.15014
H	 1.5600650868	 0.5386186047	 5.1482454975	 0.150571
42.3544	82.3042	91.4541	119.7035	154.951	201.5075	258.1449	303.337	348.0025	399.415	432.668	488.3133	572.3252	739.8287	763.3037	819.6976	840.7092	863.827	912.5752	938.7354	958.8455	1013.078	1028.4742	1052.6972	1069.4602	1093.3622	1112.7054	1146.0084	1152.6435	1199.1039	1215.0723	1248.9747	1263.6187	1299.8173	1326.6398	1342.8762	1383.8251	1398.571	1419.9147	1431.8856	1468.6732	1481.2636	1493.6714	1495.4243	1505.4843	1507.7691	2361.8731	3008.4611	3029.7598	3035.0728	3046.3657	3054.2446	3068.9953	3087.7812	3095.5149	3102.7826	3121.3149	3122.285	3136.9479	3207.1362
CC1CC1CCCC#N	C[C@H]1C[C@H]1CCCC#N	
InChI=1S/C8H13N/c1-7-6-8(7)4-2-3-5-9/h7-8H,2-4,6H2,1H3	InChI=1S/C8H13N/c1-7-6-8(7)4-2-3-5-9/h7-8H,2-4,6H2,1H3/t7-,8+/m0/s1
