15
gdb 61737	4.71543	0.57125	0.52844	1.039	75.67	-0.2651	-0.0751	0.19	1944.3449	0.108109	-457.735885	-457.725772	-457.724828	-457.773011	33.125	
O	-0.1144301034	 1.4674209397	 0.0643139506	-0.403883
C	 0.0145444188	 0.0534376392	 0.0305115797	-0.088247
C	 0.7093440223	-0.4170103394	-1.2640411914	-0.295735
C	 0.0010082805	 0.1424686506	-2.4847714121	 0.16736
O	 0.5622534342	 0.6435382128	-3.4209553846	-0.229718
C	 0.6896250856	-0.4836025678	 1.2117640694	 0.077236
C	 1.2761471904	-0.924568813	 2.1716837096	 0.074787
C	 1.968551598	-1.4215319655	 3.3350073931	 0.019744
O	 2.0753646551	-2.5928100299	 3.61409053	-0.222614
H	 0.7687626593	 1.8498221039	 0.1274688126	 0.294038
H	-1.0191596787	-0.3165969051	 0.0260512235	 0.140131
H	 1.7590075486	-0.1097300261	-1.2855578449	 0.131513
H	 0.6768342543	-1.5136026251	-1.3137483076	 0.145953
H	-1.1079065111	 0.0368673702	-2.4615123344	 0.082959
H	 2.407863306	-0.6282805544	 3.9727402964	 0.106477
43.0566	62.0962	71.6317	88.2319	140.7765	208.5555	216.8753	287.674	326.4193	394.0312	451.5565	543.0989	584.7797	642.1369	761.5839	838.3151	934.0205	1020.0324	1027.7947	1052.8857	1097.0309	1149.6976	1187.2621	1256.5781	1297.9033	1344.7765	1412.5245	1421.0127	1430.3069	1455.5944	1769.491	1845.1927	2321.8714	2871.8662	2926.5181	3032.5824	3034.8088	3104.6152	3799.108
OC(CC=O)C#CC=O	O[C@@H](CC=O)C#CC=O	
InChI=1S/C6H6O3/c7-4-1-2-6(9)3-5-8/h4-6,9H,3H2	InChI=1S/C6H6O3/c7-4-1-2-6(9)3-5-8/h4-6,9H,3H2/t6-/m1/s1
