17
gdb 35422	2.94779	1.47482	1.21742	4.5927	76.57	-0.2456	0.0037	0.2493	1043.7295	0.138645	-380.867567	-380.860184	-380.85924	-380.900088	28.422	
N	-0.0235947167	-1.1409852582	 0.2193419257	-0.336324
C	-0.0183098699	 0.0104266665	 0.1156871938	 0.31524
C	 0.0168083369	 1.4671947088	-0.0389241565	-0.138611
N	-0.3893499171	 2.2277866959	 1.166731742	-0.316223
C	 0.8374861507	 3.0859923737	 1.0856483419	-0.033245
C	 1.7838669082	 2.9144723754	 2.2414996516	-0.049625
C	 2.7406494476	 2.030182103	 1.9628766801	-0.052692
C	 2.6363815095	 1.447187785	 0.5705499567	-0.290028
C	 1.4162902054	 2.1723803178	-0.0368447819	-0.055764
H	-0.5500177941	 1.7183362331	-0.9441892588	 0.114041
H	-1.2703776026	 2.7176709318	 1.0604593718	 0.224733
H	 0.6316981834	 4.1295736972	 0.8230843556	 0.075436
H	 1.6589093473	 3.4312610365	 3.1859422991	 0.09962
H	 3.5235461368	 1.7249577664	 2.648941053	 0.102179
H	 3.5456210024	 1.6272676813	-0.0153833596	 0.110563
H	 2.5018144267	 0.3585455983	 0.5985058983	 0.140465
H	 1.6430619355	 2.6468390675	-0.9903921728	 0.090235
42.4361	144.0108	223.0171	266.584	364.4287	478.2064	524.5361	560.9214	629.1223	693.3425	738.7835	767.4367	805.1879	851.8997	904.7318	948.2148	951.1688	972.4916	983.7121	1020.6944	1033.0568	1062.5912	1100.4597	1130.2816	1155.7786	1204.9815	1230.2313	1271.6748	1287.1139	1320.0164	1329.0735	1358.079	1386.2653	1397.403	1486.1793	1681.5655	2352.2017	3021.0605	3028.3914	3040.457	3055.7512	3119.1985	3185.2874	3211.4972	3538.3908
N#CC1NC2C=CCC12	N#C[C@H]1N[C@H]2C=CC[C@@H]12	
InChI=1S/C7H8N2/c8-4-7-5-2-1-3-6(5)9-7/h1,3,5-7,9H,2H2	InChI=1S/C7H8N2/c8-4-7-5-2-1-3-6(5)9-7/h1,3,5-7,9H,2H2/t5-,6+,7-/m1/s1
