20
gdb 98620	4.34322	0.943	0.82738	3.2726	82.	-0.2329	0.0122	0.2451	1447.1882	0.169968	-403.135851	-403.126692	-403.125748	-403.17095	33.361	
C	 0.2306404921	 1.4184690801	 0.2079105848	-0.371807
C	 0.0871556148	-0.0900286019	 0.0112861208	-0.282419
C	 0.8683395265	-0.6022089213	-1.1931495603	 0.371143
O	 1.7695065267	 0.0183084908	-1.7163780172	-0.345466
N	 0.4041479036	-1.8139224907	-1.703982384	-0.10065
C	 0.4478123293	-3.0876135613	-0.9871679397	-0.051499
C	-0.4318608915	-4.0736741141	-1.7678571471	-0.237947
C	 0.4650675829	-3.8149380003	-3.0336018164	-0.241518
C	 1.3060979369	-2.8361799676	-2.201327287	-0.026238
H	 1.2842815197	 1.6984487474	 0.2704422843	 0.138215
H	-0.2037141236	 1.9659003798	-0.6334068262	 0.126779
H	-0.2751014459	 1.7387895693	 1.1231850814	 0.106667
H	 0.4646163309	-0.6223681837	 0.8960122746	 0.119164
H	-0.9609925549	-0.3897353209	-0.092095667	 0.120437
H	 0.7280727186	-3.116562211	 0.0591996943	 0.106743
H	-0.3448863736	-5.0987094758	-1.4016323567	 0.110057
H	-1.4869564891	-3.8016205757	-1.8435127864	 0.112086
H	 1.0230931242	-4.7049814224	-3.3307821786	 0.110745
H	-0.0249096744	-3.3819003426	-3.9081683808	 0.115615
H	 2.3633901366	-2.6150656679	-2.2707465625	 0.119895
30.9829	81.3863	128.356	145.7422	205.9975	267.8088	295.0219	334.123	475.9791	558.5469	637.6068	726.5017	749.9695	789.8162	811.5886	846.3436	882.2659	927.3508	951.2045	964.1115	998.6888	1017.2174	1053.6171	1082.7049	1092.1022	1098.6563	1134.8401	1179.7136	1220.8047	1234.6305	1250.0768	1270.1167	1284.7883	1298.2522	1368.503	1410.5248	1416.5961	1461.2881	1469.1448	1489.6475	1492.0771	1501.7214	1778.7825	3016.8737	3050.082	3068.7922	3073.9897	3076.0628	3117.3141	3120.3599	3135.2153	3136.728	3186.745	3209.8306
CCC(=O)N1C2CCC12	CCC(=O)N1[C@H]2CC[C@@H]12	
InChI=1S/C7H11NO/c1-2-7(9)8-5-3-4-6(5)8/h5-6H,2-4H2,1H3	InChI=1S/C7H11NO/c1-2-7(9)8-5-3-4-6(5)8/h5-6H,2-4H2,1H3/t5-,6+,8?
