18
gdb 36382	5.76773	0.65774	0.63446	3.6115	82.85	-0.2705	0.0306	0.301	1715.4056	0.146124	-364.779571	-364.770084	-364.76914	-364.81496	34.166	
C	 0.0497683376	-1.1146794571	-0.6947464736	-0.428698
C	 0.0110101981	-0.0061620157	-0.2328079403	 0.298922
C	-0.0101130444	 1.3395878537	 0.3331276812	-0.386595
C	 1.3635945713	 1.999330409	 0.3021061126	-0.01222
C	 1.8324078346	 2.7658695004	-0.9078555307	-0.276293
C	 1.5615316138	 3.4958522059	 0.3848088992	-0.018413
C	 0.397010391	 4.469312907	 0.5049036267	-0.36689
C	 0.7569494043	 5.8128591753	 0.0462841897	 0.264847
N	 1.0541694025	 6.8702036329	-0.3123158938	-0.302661
H	 0.0741861968	-2.093368543	-1.1059538369	 0.198629
H	-0.7402283129	 1.9442296856	-0.2183585231	 0.127256
H	-0.3756179628	 1.2907513069	 1.367740364	 0.134975
H	 2.1206179006	 1.4133065659	 0.8146963774	 0.106163
H	 2.8576523445	 2.6553909208	-1.2410268338	 0.12582
H	 1.1182522171	 2.9027141838	-1.7145754154	 0.122108
H	 2.4351441636	 3.8162108576	 0.9443876752	 0.109474
H	-0.4642033669	 4.1330131164	-0.0813482106	 0.149412
H	 0.0579557212	 4.5429117545	 1.545520322	 0.154166
39.0791	74.381	89.6685	153.3513	200.5921	287.435	336.2897	385.4293	392.8073	449.6159	498.0316	571.7774	623.3364	645.1657	794.0672	829.7648	855.3242	891.9315	909.2316	945.2826	965.3619	1022.8497	1048.3086	1071.7903	1124.4833	1146.1223	1168.9454	1244.5974	1254.5869	1256.9566	1318.0423	1326.3603	1395.387	1433.3054	1461.9098	1471.091	1498.9278	2241.344	2363.2586	3015.9363	3038.9317	3051.2117	3084.5445	3131.5653	3148.8559	3158.8261	3219.0852	3505.948
C#CCC1CC1CC#N	C#CC[C@H]1C[C@H]1CC#N	
InChI=1S/C8H9N/c1-2-3-7-6-8(7)4-5-9/h1,7-8H,3-4,6H2	InChI=1S/C8H9N/c1-2-3-7-6-8(7)4-5-9/h1,7-8H,3-4,6H2/t7-,8+/m0/s1
