22
gdb 59084	2.09665	1.3856	1.10363	1.4243	84.42	-0.2287	-0.0347	0.194	1250.3039	0.191489	-404.331733	-404.321325	-404.320381	-404.366783	37.979	
C	 0.5161507395	 0.9061012902	-0.9502705851	-0.392925
C	-0.1630700365	 0.5654981969	 0.38474852	 0.003634
C	-0.2913167786	 1.8156675726	 1.2712172087	-0.395404
C	-1.5390115226	-0.0258338023	 0.125820905	 0.017227
C	-1.778865286	-1.4912336176	-0.2219593602	-0.137047
C	-0.6489339503	-2.4505723345	-0.2844253398	 0.14995
O	 0.3046501876	-2.502690573	 0.4627133501	-0.28044
N	-2.269079946	-0.8785885479	 1.0266004927	-0.110459
C	-1.7288625216	-1.2908069553	 2.3202161914	-0.332984
H	 1.4913159195	 1.3728814624	-0.779673238	 0.115797
H	 0.67468268	 0.0108305434	-1.5588944403	 0.117988
H	-0.0899065723	 1.6088654822	-1.5347631149	 0.111197
H	 0.4532836318	-0.1750819143	 0.8994642608	 0.112198
H	-0.7491747182	 1.5829305607	 2.2370127459	 0.119635
H	 0.6932476943	 2.2539793258	 1.462489779	 0.115641
H	-0.9079050118	 2.5807621612	 0.7848444861	 0.113537
H	-2.192569382	 0.6594938653	-0.4199561648	 0.096046
H	-2.5682275227	-1.7203065972	-0.9361054372	 0.09534
H	-0.744070633	-3.1777811355	-1.1223269263	 0.081333
H	-0.6610828424	-1.5270469233	 2.3261590979	 0.14968
H	-1.9323637499	-0.4902715177	 3.0378291591	 0.125498
H	-2.2773604088	-2.1795907921	 2.6465317198	 0.124555
67.8823	126.8753	149.1406	184.9923	202.6029	218.6126	233.8348	244.4202	263.0885	331.412	361.4002	410.7033	472.8376	541.9053	696.0344	782.8172	809.1639	852.4052	896.4662	934.0105	968.7459	979.9344	998.4133	1053.232	1077.1247	1124.3313	1155.3247	1156.3203	1169.1529	1189.6989	1213.2314	1308.7589	1346.6825	1355.0667	1383.8312	1399.0021	1415.867	1430.4667	1437.99	1452.9625	1483.606	1486.0733	1492.4358	1504.4692	1509.6555	1517.1823	1787.3704	2873.9975	3026.404	3030.9204	3035.9133	3067.2052	3082.649	3092.3806	3104.8357	3107.6665	3108.5458	3112.1471	3113.9984	3119.862
CC(C)C1C(C=O)N1C	CC(C)[C@H]1[C@@H](C=O)N1C	
InChI=1S/C7H13NO/c1-5(2)7-6(4-9)8(7)3/h4-7H,1-3H3	InChI=1S/C7H13NO/c1-5(2)7-6(4-9)8(7)3/h4-7H,1-3H3/t6-,7+,8?/m1/s1
