17
gdb 80727	3.70769	1.06219	0.97515	5.3588	73.03	-0.2285	0.0257	0.2542	1219.4392	0.136015	-417.957358	-417.94907	-417.948125	-417.990704	30.901	
O	 0.0686255489	 1.4135799273	 0.1005728247	-0.416841
C	 0.0303315123	 0.0152622953	 0.0993462553	 0.094269
C	-0.4492828333	-0.789148775	 1.2765793721	-0.157198
C	-1.5984298627	-0.0509610744	 1.9701281129	-0.179374
N	-2.3824840585	-0.0881528737	 0.7062033665	-0.081906
C	-2.9683080227	 1.1376457203	 0.1767437371	-0.295713
C	-4.1480266428	 1.5298456502	 0.9575195404	 0.273481
N	-5.0609233998	 1.8554372647	 1.5860856443	-0.308774
C	-1.278866239	-0.7043593557	-0.0194959606	-0.058896
H	 0.7628832629	 1.6968551231	 0.7062893086	 0.291084
H	 0.837238978	-0.4636487179	-0.4579764804	 0.098285
H	 0.0978188774	-1.6276815816	 1.6860942605	 0.102213
H	-2.0886707892	-0.6146623191	 2.767771817	 0.12389
H	-1.3537861514	 0.9551388026	 2.3326900918	 0.103542
H	-2.2665235671	 1.9838312387	 0.1494607955	 0.157129
H	-3.2856697956	 0.9463602553	-0.8549931638	 0.151172
H	-1.4772249474	-1.4425261001	-0.7902834522	 0.103637
54.8017	115.2062	185.3075	230.2972	308.1774	313.438	365.7565	390.003	492.4353	513.6855	655.3151	734.8525	748.5134	818.8592	876.0614	932.4042	940.1491	961.0831	992.4842	1014.8656	1051.2698	1068.3102	1102.6717	1129.6937	1160.3852	1205.1271	1223.1002	1262.7143	1271.1746	1294.1582	1316.1719	1349.0394	1381.0899	1449.6376	1475.9617	1507.2432	2364.2982	3009.4248	3028.049	3066.2529	3092.0561	3094.224	3158.5946	3205.652	3793.489
OC1C2CN(CC#N)C12	O[C@H]1[C@H]2CN(CC#N)[C@@H]12	
InChI=1S/C6H8N2O/c7-1-2-8-3-4-5(8)6(4)9/h4-6,9H,2-3H2	InChI=1S/C6H8N2O/c7-1-2-8-3-4-5(8)6(4)9/h4-6,9H,2-3H2/t4-,5+,6-/m0/s1
