23
gdb 118830	3.83704	0.68649	0.6443	2.0808	83.12	-0.2571	0.0754	0.3324	1798.8785	0.203402	-425.401818	-425.390706	-425.389762	-425.438443	39.974	
C	 0.0315749729	 1.7379673578	 0.0631550651	-0.468548
C	-0.067488538	 0.2210041499	 0.0840883996	 0.326906
C	-1.390740923	-0.3354349041	-0.4266352502	-0.243714
C	-1.6624413721	-0.0637661381	-1.9042086229	-0.075651
O	-2.8662745398	-0.7382993231	-2.2444596164	-0.420495
C	 1.176645989	-0.5946476033	-0.1969560623	-0.319571
C	 0.5924487532	-0.5736508084	 1.1956133223	-0.026433
C	 1.3446859163	 0.0451302828	 2.3444050007	-0.112704
O	 2.2476373193	-0.9356926267	 2.8445480282	-0.41814
H	 0.9918455357	 2.0954572951	 0.4419392078	 0.114831
H	-0.0733990061	 2.1265003301	-0.9555727575	 0.117502
H	-0.7592675066	 2.1937699263	 0.6711283068	 0.114522
H	-1.4133374592	-1.4219869253	-0.2859579908	 0.105207
H	-2.2232840698	 0.072188265	 0.1615285538	 0.099925
H	-1.7544485207	 1.0174353439	-2.0888971176	 0.084168
H	-0.8150468349	-0.4277159107	-2.5073428971	 0.087037
H	-3.0609137093	-0.5568714429	-3.1683602811	 0.284186
H	 1.0852556958	-1.5038174798	-0.782111473	 0.108261
H	 2.1096557421	-0.0611671589	-0.3514997792	 0.106029
H	 0.0587985531	-1.4719023361	 1.4959293392	 0.088136
H	 1.8883723269	 0.9434399915	 2.0164222097	 0.080422
H	 0.6375347406	 0.36063273	 3.1291832478	 0.084674
H	 2.6747702646	-0.5735754749	 3.6266584868	 0.28345
65.869	81.5292	87.8428	126.7596	158.1211	223.7427	246.2576	266.7546	272.1099	299.7429	332.8371	374.8587	422.0348	440.4701	589.1666	720.7744	800.8615	851.3108	881.2911	912.6806	941.4766	984.7516	1011.1258	1029.9878	1049.4171	1066.0751	1072.8762	1093.1902	1115.6041	1143.2238	1172.8602	1223.537	1241.8107	1255.5217	1256.6436	1290.5779	1303.4665	1347.2319	1360.2445	1409.7943	1421.483	1460.3853	1466.0162	1481.2771	1492.8856	1497.4027	1511.8532	1519.4262	1529.7691	2962.6588	2969.1227	2997.351	2998.7842	3024.4987	3029.4653	3072.4177	3084.3852	3115.1561	3123.6397	3139.8086	3206.4445	3823.9568	3830.5333
CC1(CCO)CC1CO	C[C@@]1(CCO)C[C@H]1CO	
InChI=1S/C7H14O2/c1-7(2-3-8)4-6(7)5-9/h6,8-9H,2-5H2,1H3	InChI=1S/C7H14O2/c1-7(2-3-8)4-6(7)5-9/h6,8-9H,2-5H2,1H3/t6-,7+/m0/s1
