16
gdb 9047	4.71757	0.90165	0.78875	4.3246	69.78	-0.3275	0.0086	0.3361	1363.223	0.129999	-342.821972	-342.813125	-342.812181	-342.856172	30.431	
C	-0.0628183036	 1.580129197	 0.1126300134	-0.395957
C	 0.0367149986	 0.0445697366	 0.0150369442	-0.148486
C	 0.7368143024	-0.4559072091	-1.271044726	-0.182333
C	-0.0541110723	-0.1087748981	-2.5482282633	-0.358205
C	 0.5805144098	-0.6528906108	-3.7465619486	 0.261544
N	 1.0938718988	-1.0871295976	-4.6859721802	-0.293287
C	 0.7416056299	-0.4884784396	 1.1862981957	 0.267048
N	 1.3067530385	-0.90243628	 2.1052865709	-0.311619
H	 0.9295616716	 2.0363386221	 0.0559774196	 0.144351
H	-0.6773113659	 1.9801658326	-0.6975027797	 0.12981
H	-0.5205100427	 1.8765914984	 1.0590461169	 0.148383
H	-0.9781703056	-0.3749694494	 0.0408380921	 0.132195
H	 1.7410269316	-0.0246793162	-1.3310416878	 0.14202
H	 0.861502466	-1.5406330915	-1.2131632913	 0.146657
H	-1.0739869984	-0.5071411979	-2.4845587688	 0.156996
H	-0.1445106387	 0.9750382636	-2.6737219871	 0.160885
62.9014	91.3105	101.2547	195.9468	209.5389	251.0982	304.2491	380.8016	401.294	487.3788	559.844	599.3396	764.5441	822.6107	925.7854	948.6819	955.8564	1032.0067	1076.4895	1112.4023	1142.8178	1222.9289	1277.3221	1311.6841	1344.6266	1344.8998	1391.7421	1418.1916	1468.8899	1491.4975	1495.5624	1504.4422	2359.9687	2366.4701	3022.7341	3041.6965	3052.3853	3063.8159	3083.8315	3112.5743	3128.3649	3133.1708
CC(CCC#N)C#N	C[C@@H](CCC#N)C#N	
InChI=1S/C6H8N2/c1-6(5-8)3-2-4-7/h6H,2-3H2,1H3	InChI=1S/C6H8N2/c1-6(5-8)3-2-4-7/h6H,2-3H2,1H3/t6-/m0/s1
