16
gdb 12763	3.15549	1.82745	1.43636	2.8493	65.	-0.2482	-0.0368	0.2114	902.9306	0.128271	-383.702307	-383.694491	-383.693547	-383.734831	28.342	
C	 0.0596762713	 1.44874323	-0.3123653239	-0.494231
C	 0.0555769437	-0.0202335136	-0.0157713326	 0.247981
C	-0.9352749261	-0.7151530619	 0.9086382877	-0.352087
C	 0.5327565821	-0.8521884899	 1.1552902782	 0.066759
O	 1.0922619681	-1.8684174113	 0.3112562087	-0.302042
C	 0.7741598219	-1.0890102534	-0.8641544406	 0.00297
C	-0.0533934898	-1.8185201469	-1.8989831074	 0.134958
O	-0.1523762822	-1.4438263355	-3.0396051552	-0.244979
H	 1.0632435927	 1.8004030066	-0.5752326736	 0.126627
H	-0.6075774501	 1.6835643656	-1.1493678497	 0.138691
H	-0.2830943511	 2.0222046946	 0.5544916267	 0.124794
H	-1.4549508817	-0.029845128	 1.5721335409	 0.120411
H	-1.517303927	-1.5791710603	 0.6037939549	 0.120983
H	 1.0593909813	-0.6078747936	 2.0703711847	 0.111142
H	 1.6823052525	-0.692769024	-1.334270773	 0.107864
H	-0.5904331556	-2.7151988584	-1.5191120059	 0.090159
60.7483	131.1539	173.4273	210.8725	299.9102	326.5661	447.4711	470.1678	480.8487	633.9423	757.8083	809.9507	890.491	900.5155	965.2748	995.3078	1019.3824	1034.8902	1042.51	1070.7609	1096.6726	1110.0476	1133.5787	1213.863	1245.814	1272.8077	1315.64	1393.1994	1404.811	1425.9995	1483.7787	1487.6725	1497.915	1824.9217	2894.6561	3028.2163	3042.9247	3090.6504	3103.3014	3121.7847	3184.7249	3209.3328
CC12CC1OC2C=O	C[C@]12C[C@H]1O[C@H]2C=O	
InChI=1S/C6H8O2/c1-6-2-4(6)8-5(6)3-7/h3-5H,2H2,1H3	InChI=1S/C6H8O2/c1-6-2-4(6)8-5(6)3-7/h3-5H,2H2,1H3/t4-,5+,6+/m1/s1
