20
gdb 7671	3.59466	1.8173	1.64728	1.5774	74.2	-0.2354	0.083	0.3184	906.0077	0.176483	-348.984539	-348.976591	-348.975646	-349.016427	31.094	
C	 0.2168293599	 1.442491336	-0.160299598	-0.433023
C	 0.0193272419	-0.0525409622	 0.0351551345	 0.418315
C	-1.4369550288	-0.4579935889	-0.1744476405	-0.420656
O	 0.8761576824	-0.8233227455	-0.8711023047	-0.342557
C	 1.4146160902	-1.6015925313	 0.2124856301	 0.126396
C	 2.7704530038	-1.0649986904	 0.7300543484	-0.231012
C	 2.0099566634	-0.2073588112	 1.7907933164	-0.250848
C	 0.6537721743	-0.7540292009	 1.2690846543	-0.115697
H	 1.2685186299	 1.7249834904	-0.0766041025	 0.12025
H	-0.1281046124	 1.7350479863	-1.1575887092	 0.122638
H	-0.3582701443	 2.0119834526	 0.5778250944	 0.113846
H	-1.7527612125	-0.2178463365	-1.1946063194	 0.12067
H	-1.5663955867	-1.5337172627	-0.0230648121	 0.116152
H	-2.0940429599	 0.0704083347	 0.5254181541	 0.110126
H	 1.3011829472	-2.6775348735	 0.0518255691	 0.069379
H	 3.4164073335	-1.8313017319	 1.1673226854	 0.097844
H	 3.3334199873	-0.5165254694	-0.0282701956	 0.108472
H	 2.2152120153	-0.5213437422	 2.8168460049	 0.102428
H	 2.1494784143	 0.8745714874	 1.7388999402	 0.101078
H	-0.0451673889	-1.1549614209	 2.00325268	 0.066197
78.655	180.6882	232.4288	255.0731	288.383	340.2231	379.4489	418.1914	479.1638	614.3407	710.4811	756.0298	810.6116	832.5001	880.5921	923.5458	926.0446	947.0838	967.5627	987.0513	1007.3318	1032.5428	1057.953	1121.9364	1169.9801	1177.3278	1195.0725	1222.2009	1236.5436	1260.9346	1272.4676	1297.4419	1321.4001	1340.0012	1397.278	1411.5277	1463.1853	1471.5041	1477.4834	1489.367	1493.6695	1509.3743	3029.1931	3037.5174	3054.8281	3064.1537	3069.9234	3098.8571	3102.7524	3105.3231	3108.7942	3111.934	3121.8888	3127.1755
CC1(C)OC2CCC12	CC1(C)O[C@H]2CC[C@@H]12	
InChI=1S/C7H12O/c1-7(2)5-3-4-6(5)8-7/h5-6H,3-4H2,1-2H3	InChI=1S/C7H12O/c1-7(2)5-3-4-6(5)8-7/h5-6H,3-4H2,1-2H3/t5-,6+/m1/s1
