16
gdb 17300	3.10015	2.49737	1.91651	1.0081	63.05	-0.2464	0.0657	0.3121	749.7011	0.130082	-383.67095	-383.664261	-383.663317	-383.70134	26.826	
O	-0.0424861292	 1.424893946	 0.0019836307	-0.47669
C	 0.0019009174	 0.0298952529	-0.0200988955	 0.378796
C	 0.4293401497	-0.7169064049	-1.3192840379	-0.289463
C	-0.909121926	-1.5232921463	-1.284306271	-0.22215
C	-1.3429727356	-0.7550683615	-0.0002915314	-0.102695
C	-0.9132826036	-1.3704564868	 1.3546322208	 0.019727
O	 0.3313097232	-2.0615350739	 1.1573935807	-0.235636
C	 0.3678720463	-0.6448177236	 1.3402499781	-0.058976
H	 0.8634720266	 1.7553893489	 0.0140463825	 0.279985
H	 0.4962581929	-0.0262050901	-2.1636035452	 0.101005
H	 1.3444362363	-1.3084998439	-1.2544253152	 0.104682
H	-1.5593980663	-1.3374661044	-2.1412104221	 0.100355
H	-0.7900322545	-2.5987860401	-1.1496205448	 0.113826
H	-2.2882098867	-0.2137795544	 0.006679804	 0.083752
H	-1.531137799	-1.7121344321	 2.1775966941	 0.103717
H	 0.9874696685	-0.2536048557	 2.141857342	 0.099763
164.3775	249.0589	279.0381	291.2825	367.4945	443.6287	533.8039	634.5807	705.0918	738.0191	808.3095	812.9232	847.8944	874.1546	920.0138	945.519	967.5972	1003.7687	1023.1893	1047.0007	1094.9648	1107.7491	1149.2706	1204.2423	1222.3728	1235.2708	1236.5344	1269.0551	1281.7747	1306.8101	1353.0639	1389.9189	1455.1685	1479.9338	3064.6172	3077.8372	3120.6373	3127.6741	3141.4463	3157.6754	3181.4588	3785.0007
OC12CCC1C1OC21	O[C@]12CC[C@H]1[C@H]1O[C@@H]21	
InChI=1S/C6H8O2/c7-6-2-1-3(6)4-5(6)8-4/h3-5,7H,1-2H2	InChI=1S/C6H8O2/c7-6-2-1-3(6)4-5(6)8-4/h3-5,7H,1-2H2/t3-,4+,5+,6+/m0/s1
