19
gdb 105757	2.32422	1.38187	1.1525	3.4547	75.58	-0.2543	0.028	0.2823	1160.9478	0.160441	-419.208943	-419.199935	-419.198991	-419.243503	32.89	
C	-0.2314789967	 1.3355220487	 0.0352334083	-0.343807
N	-0.0705425634	-0.1054829903	-0.1755920392	-0.315167
C	 0.8454080267	-0.4855949708	-1.2534812359	 0.129395
C	 0.9310967941	-2.0376921941	-1.3658963813	-0.278465
C	 0.0932736604	-2.3387169688	-2.6158307725	-0.081645
O	 0.3286489687	-1.2317747173	-3.470480736	-0.237859
C	 0.2525216168	-0.0851227392	-2.6526516069	-0.100328
C	 2.1917414016	 0.1002121211	-1.0615386887	 0.245812
N	 3.2236011281	 0.5826994616	-0.858736286	-0.357043
H	 0.7133513988	 1.8673834459	 0.2243945712	 0.131645
H	-0.7087340514	 1.7897443923	-0.8384887961	 0.132827
H	-0.8957852448	 1.4889313185	 0.8893165591	 0.130046
H	 0.2568720561	-0.5275143388	 0.6876978127	 0.231391
H	 1.9655665838	-2.3515975752	-1.5165696547	 0.134921
H	 0.5461369805	-2.5161048698	-0.4627274036	 0.11471
H	 0.3975771988	-3.2458825041	-3.1417550173	 0.120072
H	-0.9748070238	-2.4154116587	-2.3591848198	 0.104391
H	-0.7930104883	 0.2135850566	-2.4875329006	 0.10741
H	 0.792989124	 0.7248156324	-3.1454103826	 0.131695
28.5032	128.4554	157.5377	178.1351	219.9538	265.2887	289.455	396.4527	425.6071	491.6642	570.7178	618.7222	648.5442	747.5115	779.9489	868.2906	901.1269	959.5399	973.8626	1020.2822	1039.329	1091.8988	1112.6358	1151.1448	1164.588	1170.7643	1205.9843	1245.3218	1266.4068	1294.3338	1333.6134	1361.6676	1400.4604	1459.9361	1471.4946	1486.8751	1493.8173	1498.5137	1517.434	1522.2527	2335.5057	2986.9783	2992.4574	2999.0243	3076.4738	3080.1284	3109.8032	3117.1497	3118.9851	3131.9111	3519.1831
CNC1(CCOC1)C#N	CN[C@]1(CCOC1)C#N	
InChI=1S/C6H10N2O/c1-8-6(4-7)2-3-9-5-6/h8H,2-3,5H2,1H3	InChI=1S/C6H10N2O/c1-8-6(4-7)2-3-9-5-6/h8H,2-3,5H2,1H3/t6-/m1/s1
