14
gdb 46158	4.85566	1.03972	0.88321	0.9163	63.25	-0.2794	-0.0177	0.2617	1205.6031	0.101219	-473.850642	-473.842866	-473.841922	-473.883517	27.761	
O	 0.000378517	 0.1362297492	 0.6541132405	-0.306355
C	-0.0187321331	 1.1779525873	 0.0649515834	 0.391309
C	-1.3243206625	 1.9249254613	-0.1951572559	-0.22117
O	-1.2518267875	 3.0098087443	-1.1047080111	-0.244874
C	-0.1010564757	 3.792497296	-0.8598885653	-0.057379
C	 1.1383121826	 2.9406751557	-1.1366605376	-0.069742
O	 1.1409641868	 1.7631280139	-0.3219954516	-0.226614
C	-0.1304605865	 4.966848993	-1.7368598038	 0.284753
N	-0.1063461999	 5.8967966844	-2.4200933126	-0.295646
H	-2.0464010217	 1.2139713563	-0.5995065389	 0.16867
H	-1.6950741773	 2.2594692096	 0.786829972	 0.145438
H	-0.0819186139	 4.1427489274	 0.1859951077	 0.133461
H	 1.1495116882	 2.6516705768	-2.1926209265	 0.148462
H	 2.0577357335	 3.4814049847	-0.9012948604	 0.149688
73.1518	142.6136	160.7865	173.9789	328.7771	392.3685	442.14	471.5207	543.754	553.2878	587.4626	701.6685	782.1683	908.0941	994.7958	1036.5071	1050.2218	1081.4544	1112.691	1139.4015	1229.7671	1260.8264	1272.1716	1329.2499	1366.5235	1382.6443	1429.381	1465.6228	1501.5231	1863.448	2375.153	2973.4958	2993.8148	3058.615	3121.3843	3129.4321
O=C1COC(CO1)C#N	O=C1CO[C@@H](CO1)C#N	
InChI=1S/C5H5NO3/c6-1-4-2-9-5(7)3-8-4/h4H,2-3H2	InChI=1S/C5H5NO3/c6-1-4-2-9-5(7)3-8-4/h4H,2-3H2/t4-/m1/s1
