17
gdb 47474	3.036	1.23744	0.97793	4.3721	73.38	-0.2568	0.0089	0.2656	1202.7293	0.135711	-421.837457	-421.828895	-421.827951	-421.87137	31.236	
O	 0.0965309733	 0.0200629958	-0.6367272107	-0.326561
C	 0.1064288568	 1.1887918627	-0.3899320919	 0.439492
O	-1.0427506298	 1.9119092481	-0.2515410704	-0.218875
C	-0.7617332993	 3.2865923174	 0.048005561	-0.079304
C	 0.7083945542	 3.505666353	-0.3464633982	-0.259014
C	 1.3145288485	 2.1069571033	-0.1693739425	-0.142918
C	 1.9258487347	 1.8922350791	 1.2422972518	-0.377136
C	 2.527497882	 0.5808014106	 1.4371675881	 0.316332
C	 3.0417752949	-0.4928819125	 1.594884041	-0.428539
H	-1.4623830106	 3.9038363939	-0.5182122505	 0.127872
H	-0.9362329177	 3.4562499455	 1.1171184045	 0.118098
H	 0.7737290152	 3.8154172465	-1.3931215373	 0.121613
H	 1.1918766822	 4.2736353861	 0.2623672476	 0.11299
H	 2.0741725172	 1.8693485748	-0.9156144933	 0.120468
H	 2.6862410996	 2.6681093496	 1.3964431954	 0.137008
H	 1.1570151886	 2.0643561199	 2.0071702167	 0.137618
H	 3.4787812902	-1.4511811438	 1.7293691288	 0.200857
56.3104	90.0772	139.5319	186.4475	232.4906	321.9344	340.6839	480.9303	490.6645	627.3582	647.16	659.8946	678.1276	728.6808	788.1839	853.0049	918.5395	949.3849	979.908	1000.5413	1043.908	1072.4724	1119.3849	1162.7537	1206.2891	1226.2427	1233.4201	1273.9516	1328.8763	1347.0909	1361.2176	1401.1788	1473.1395	1494.36	1526.4591	1885.3962	2245.8312	3017.6972	3036.3129	3049.528	3062.8813	3101.9804	3106.0361	3116.5719	3507.4545
O=C1OCCC1CC#C	O=C1OCC[C@H]1CC#C	
InChI=1S/C7H8O2/c1-2-3-6-4-5-9-7(6)8/h1,6H,3-5H2	InChI=1S/C7H8O2/c1-2-3-6-4-5-9-7(6)8/h1,6H,3-5H2/t6-/m1/s1
