21
gdb 93126	2.17179	1.52068	1.14548	2.6129	83.48	-0.2385	-0.0227	0.2158	1170.9478	0.182565	-387.121686	-387.112681	-387.111737	-387.155606	33.986	
C	 0.0076198523	 1.5686926149	 0.0096217019	-0.410904
C	 0.0624010398	 0.0392290646	 0.0048434738	 0.014454
C	 0.6840501379	-0.5174187143	-1.2882269729	-0.255994
C	 0.9481359133	-1.9979830621	-1.2155755414	-0.054214
C	 0.9170359087	-2.6963898739	-0.0807327092	-0.047055
C	 0.6428121022	-2.0841206915	 1.269410148	-0.297666
C	 0.7765591433	-0.5497370357	 1.2568669752	-0.083801
C	 2.2407365914	-0.1455736582	 1.2965113769	 0.163523
O	 2.6510115803	 0.8794241682	 1.7815073533	-0.262961
H	 1.0091165601	 2.008439109	 0.0123423343	 0.135648
H	-0.5225524854	 1.9355608936	-0.8758122029	 0.109133
H	-0.5170813702	 1.942628219	 0.8945844942	 0.115319
H	-0.9676872661	-0.3391174757	 0.0560464011	 0.081369
H	 0.0148002264	-0.302637021	-2.1314950691	 0.107339
H	 1.6175738978	 0.0171399651	-1.5235983907	 0.112841
H	 1.1711869972	-2.5036026738	-2.1522062871	 0.087631
H	 1.0995310481	-3.7680551504	-0.1021970917	 0.088226
H	-0.3650989735	-2.3601463552	 1.6091675014	 0.115816
H	 1.3250342706	-2.5150649342	 2.0150657617	 0.107547
H	 0.3133108753	-0.1149940165	 2.1493607089	 0.092039
H	 2.9432031704	-0.8742802322	 0.8301009344	 0.081709
53.7033	119.9612	142.9662	225.3706	228.9659	291.8138	322.2228	391.1166	426.1266	457.2677	502.1853	587.4189	677.9893	735.6693	869.2679	884.453	900.3145	902.4787	944.6428	993.3417	1005.0943	1007.7062	1036.6399	1075.4533	1091.4077	1119.3736	1138.8867	1196.6985	1220.6387	1236.9102	1287.3147	1298.1931	1327.8232	1360.4583	1373.1739	1389.8957	1414.2783	1420.0034	1430.7926	1477.7802	1478.3122	1496.2669	1498.2033	1723.4691	1822.1934	2866.1722	2989.1897	3007.2277	3008.4609	3030.5231	3034.2886	3037.361	3053.4887	3100.025	3115.3348	3143.6062	3166.9981
CC1CC=CCC1C=O	C[C@H]1CC=CC[C@H]1C=O	
InChI=1S/C8H12O/c1-7-4-2-3-5-8(7)6-9/h2-3,6-8H,4-5H2,1H3	InChI=1S/C8H12O/c1-7-4-2-3-5-8(7)6-9/h2-3,6-8H,4-5H2,1H3/t7-,8-/m0/s1
