14
gdb 10593	3.35827	1.70838	1.35665	2.2258	66.48	-0.2413	-0.0414	0.1999	904.6811	0.104364	-382.501034	-382.493208	-382.492264	-382.532788	29.42	
O	-0.1368437604	 1.3742938914	 0.0805281716	-0.40295
C	-0.0555054433	 0.0110735446	 0.0853099638	 0.12964
C	-0.4163340814	-0.8203831238	 1.242953482	-0.347887
C	-1.3875796967	-0.8808633781	 0.0371308772	-0.033962
C	-2.6228909395	-0.0843552862	 0.1594244409	 0.104686
O	-2.7050022613	 0.9313050161	 0.8277131885	-0.314101
C	-1.4159562816	-2.0471079595	-0.788093885	 0.215906
C	-1.4410971388	-3.0248152515	-1.4893276877	-0.396578
H	-0.9302116874	 1.6255206206	 0.5861859379	 0.312198
H	 0.7084337988	-0.3468254651	-0.595763234	 0.140321
H	 0.136435798	-1.7329193773	 1.4326722263	 0.143689
H	-0.8189244648	-0.3157315147	 2.1155600825	 0.145612
H	-3.48416066	-0.4500748727	-0.4309211533	 0.106727
H	-1.4643556218	-3.8874880538	-2.1081612705	 0.196699
141.0318	153.5332	194.737	240.3277	280.3194	380.6397	473.5578	497.4209	532.6241	546.9361	573.0153	589.9017	649.053	669.0247	747.7078	883.8893	946.5736	999.1107	1042.014	1080.8387	1109.508	1183.9963	1250.3037	1283.3642	1368.7985	1420.806	1449.6665	1485.009	1751.9529	2232.816	2957.4711	3136.1901	3190.5095	3236.8692	3501.6673	3629.233
OC1CC1(C=O)C#C	O[C@H]1C[C@]1(C=O)C#C	
InChI=1S/C6H6O2/c1-2-6(4-7)3-5(6)8/h1,4-5,8H,3H2	InChI=1S/C6H6O2/c1-2-6(4-7)3-5(6)8/h1,4-5,8H,3H2/t5-,6-/m0/s1
