17
gdb 117468	6.33944	0.65338	0.60838	5.7611	67.75	-0.2767	-0.0091	0.2676	1785.4423	0.132881	-496.152768	-496.142795	-496.141851	-496.189605	33.19	
C	-0.1124796969	 1.3495453302	 0.0091203619	-0.392891
C	-0.1749541071	-0.1565704449	 0.1632442273	-0.048042
O	-1.5176565884	-0.577106267	-0.1811448594	-0.240729
C	-1.7596011514	-1.8904892919	-0.1006541497	 0.440717
O	-0.9591349986	-2.7318391706	 0.2128807893	-0.341396
C	-3.2239462443	-2.1754280252	-0.4229891752	-0.224995
O	-3.4263016363	-3.5308931186	-0.7719530238	-0.164007
C	-3.374948928	-4.4389754531	 0.2335643094	 0.193869
O	-3.474563481	-5.60925631	 0.0348148475	-0.269131
H	 0.8912657117	 1.7035148184	 0.2614289688	 0.130604
H	-0.3340910258	 1.6470098345	-1.0194543115	 0.134825
H	-0.828242627	 1.8416330002	 0.6733829609	 0.132894
H	 0.5291338073	-0.6700861966	-0.4978325441	 0.133411
H	 0.0383682169	-0.4775793674	 1.1872790498	 0.129016
H	-3.8314372275	-1.8826303518	 0.4445880394	 0.143071
H	-3.5484385456	-1.5738591977	-1.2728269359	 0.159203
H	-3.2623419678	-3.9737418785	 1.2296701549	 0.08358
29.4678	62.5966	72.0388	136.047	162.7015	175.2687	257.5975	292.7794	327.7305	366.0617	422.7135	575.8666	656.0965	756.1976	807.2501	883.4811	940.1977	1004.9993	1030.9962	1047.9754	1082.9055	1135.0886	1159.2703	1181.792	1254.1981	1289.5789	1293.325	1384.0506	1406.0239	1426.4629	1432.4435	1475.4164	1485.9648	1495.9634	1518.5714	1832.4487	1878.7428	2973.8048	3023.9016	3048.356	3057.93	3097.8355	3123.6815	3129.8745	3132.4655
CCOC(=O)COC=O	CCOC(=O)COC=O	
InChI=1S/C5H8O4/c1-2-9-5(7)3-8-4-6/h4H,2-3H2,1H3	InChI=1S/C5H8O4/c1-2-9-5(7)3-8-4-6/h4H,2-3H2,1H3
