15
gdb 49086	2.94451	1.79353	1.27702	3.6907	65.47	-0.2414	-0.0355	0.2059	944.1711	0.112159	-457.691004	-457.68422	-457.683276	-457.722313	26.395	
O	-0.036342199	-0.0443805174	 0.1479125156	-0.248227
C	 0.0401354167	 1.1414891741	-0.0440723437	 0.06248
C	 1.314406844	 1.9216633815	-0.0413762289	 0.365847
O	 2.4771883109	 1.1986206391	 0.2041551217	-0.303584
C	 3.5125438699	 2.2078589299	 0.1422051715	-0.119658
C	 2.7028651793	 3.4570314062	-0.1553033098	-0.095081
C	 1.5519567893	 3.0440683491	-1.1232131431	-0.01309
O	 0.599734347	 3.9320623338	-0.4580701081	-0.308154
C	 1.3657746606	 3.3430852142	 0.6391912904	-0.013139
H	-0.8472004432	 1.7754517653	-0.2447002717	 0.10646
H	 4.0427004327	 2.2491871673	 1.1000020196	 0.121794
H	 4.2272719929	 1.9525435265	-0.647812077	 0.121798
H	 3.1893942574	 4.4238745562	-0.2679526397	 0.100461
H	 1.5325663834	 2.9802174973	-2.2106523104	 0.111057
H	 1.1237214782	 3.6370470872	 1.6599649737	 0.111037
109.3894	189.97	253.4086	327.369	378.4259	443.0449	573.0668	643.7241	724.3002	743.2818	779.2188	782.8192	887.6845	901.2931	924.8925	951.1225	988.8831	1021.2843	1052.0625	1054.951	1090.5335	1149.0399	1152.0967	1160.6338	1220.7152	1225.4177	1264.1858	1301.4544	1322.9171	1377.0132	1425.451	1520.3713	1828.6787	2934.1961	3037.9258	3079.8552	3128.1204	3130.7446	3152.5256
O=CC12OCC3C1OC23	O=C[C@@]12OC[C@H]3[C@@H]1O[C@@H]23	
InChI=1S/C6H6O3/c7-2-6-4-3(1-8-6)5(6)9-4/h2-5H,1H2	InChI=1S/C6H6O3/c7-2-6-4-3(1-8-6)5(6)9-4/h2-5H,1H2/t3-,4-,5+,6+
