20
gdb 116780	3.68148	0.74916	0.70873	2.2176	80.58	-0.2465	0.0197	0.2661	1686.2618	0.167643	-440.258097	-440.247664	-440.24672	-440.29538	35.961	
C	 0.3325249874	 1.4279400115	-0.1567056113	-0.25025
O	 0.2353020168	 0.0248703093	 0.0603955296	-0.191911
C	 0.6790793902	-0.75020426	-0.9453671834	 0.146767
N	 0.6541454223	-2.0050081775	-0.8481054007	-0.216636
C	 1.1872650643	-2.758865399	-1.9670323138	-0.229753
C	 2.5132089897	-3.4069830796	-1.5928383172	 0.426788
C	 2.5026008753	-4.3247144675	-0.3923789891	-0.45466
C	 3.5352858599	-3.5567551072	-2.637768276	-0.231527
O	 3.6305494575	-2.5068106769	-1.6707461561	-0.273223
H	 1.3763999786	 1.7443717792	-0.2685536344	 0.132694
H	-0.2369494586	 1.7384366672	-1.0411717651	 0.126649
H	-0.0929072382	 1.9050998059	 0.7267520077	 0.146755
H	 1.0415161703	-0.1969470898	-1.8258137461	 0.07806
H	 0.469062559	-3.5462790438	-2.230445935	 0.105054
H	 1.3481735618	-2.137769342	-2.8630277694	 0.084737
H	 1.8590528144	-5.1920573442	-0.5760429073	 0.116731
H	 3.5130666728	-4.6778126032	-0.1729125687	 0.11941
H	 2.1115916682	-3.7959460064	 0.4803102704	 0.149537
H	 4.2825611983	-4.3447404061	-2.5487860785	 0.109579
H	 3.3255418298	-3.2361214699	-3.6581986054	 0.105199
31.893	43.8757	68.6054	138.8742	179.5516	197.6791	225.4113	298.3998	338.366	365.008	399.6443	458.8184	473.2826	627.613	736.5599	841.5056	897.4676	929.2149	963.8998	994.936	1036.6871	1049.4454	1094.2227	1110.6471	1134.2346	1167.5278	1177.0746	1180.5538	1243.0578	1282.0993	1297.4361	1353.4739	1399.7267	1409.0719	1430.8259	1475.6694	1485.5066	1486.4878	1494.5395	1498.9615	1501.0824	1531.2604	1772.3218	2967.5417	2995.2118	3017.8218	3037.6626	3042.6529	3074.2426	3079.9447	3111.6069	3133.7628	3145.8926	3157.9865
COC=NCC1(C)CO1	COC=NC[C@@]1(C)CO1	
InChI=1S/C6H11NO2/c1-6(4-9-6)3-7-5-8-2/h5H,3-4H2,1-2H3	InChI=1S/C6H11NO2/c1-6(4-9-6)3-7-5-8-2/h5H,3-4H2,1-2H3/t6-/m0/s1
