15
gdb 11777	4.64341	1.79981	1.63934	3.2639	65.9	-0.2372	-0.0343	0.2029	803.4407	0.119577	-362.607969	-362.601537	-362.600593	-362.638592	25.055	
O	 0.0227358685	-0.0934302328	 0.2161820458	-0.249769
C	 0.0761467796	 1.0475501931	-0.1689981295	 0.041533
C	 1.3085307349	 1.8856521396	-0.1088120997	 0.206082
C	 1.568966371	 2.8510717461	 1.1175344415	-0.255129
C	 3.0083845341	 2.6628546294	 0.5432150269	-0.06334
N	 2.6471554589	 1.2275429394	 0.1707235915	-0.334501
C	 2.8587712755	 3.3220825177	-0.8348460135	-0.059851
C	 1.7065447562	 2.8128381543	-1.2717250708	-0.106645
H	-0.8237042999	 1.5687632371	-0.5694859708	 0.07831
H	 1.1152370275	 3.8456629277	 1.1023785701	 0.10477
H	 1.4154578778	 2.3537782479	 2.0806586235	 0.109058
H	 3.9116263277	 2.8331026226	 1.1272238135	 0.078065
H	 2.5348220466	 0.6903182635	 1.035576198	 0.21857
H	 3.5475865696	 4.0085821093	-1.3039558166	 0.115287
H	 1.168164812	 2.9509725451	-2.1974189298	 0.117558
94.098	189.7318	264.9999	430.4947	488.4404	530.0169	594.266	697.4062	714.7007	734.0729	834.2364	867.73	868.6146	898.8408	906.3082	949.8598	992.5853	1034.5568	1058.391	1068.2498	1094.4945	1150.1403	1200.5022	1229.2297	1243.0196	1274.9182	1298.8405	1352.3639	1424.9875	1493.6953	1621.4347	1822.1182	2868.4128	3042.8602	3114.5685	3132.9676	3233.4714	3259.912	3412.5884
O=CC12CC(N1)C=C2	O=C[C@@]12C[C@@H](N1)C=C2	
InChI=1S/C6H7NO/c8-4-6-2-1-5(3-6)7-6/h1-2,4-5,7H,3H2	InChI=1S/C6H7NO/c8-4-6-2-1-5(3-6)7-6/h1-2,4-5,7H,3H2/t5-,6+/m0/s1
