18
gdb 74368	2.76015	1.23602	0.919	5.1993	79.52	-0.2606	-0.0013	0.2594	1273.5757	0.147922	-401.969841	-401.961299	-401.960355	-402.00323	31.766	
C	-0.0290299339	 1.5323341648	 0.0624638367	-0.476525
C	 0.000502982	 0.033219062	-0.0271799304	 0.29567
C	 0.0581117095	-0.6177511825	-1.1885763115	-0.169587
C	 0.0527326012	-2.1313434265	-1.2730630441	-0.040402
O	-0.2574459222	-2.768276928	-0.0504478611	-0.259687
C	 0.4220772005	-2.180108051	 1.0516799174	-0.085252
C	-0.0349215283	-0.7397516633	 1.2706739555	-0.295657
C	-0.9402742682	-2.5846733403	-2.2655023357	 0.271277
N	-1.6943457872	-2.9136784392	-3.07565194	-0.3163
H	 0.8314736299	 1.9096451971	 0.6290630128	 0.12847
H	-0.023231468	 1.9992968626	-0.9255603644	 0.128756
H	-0.9264320805	 1.8710566448	 0.5954809585	 0.134061
H	 0.1101037545	-0.0905249805	-2.136339377	 0.110198
H	 1.0396200792	-2.4763231618	-1.6364934198	 0.122001
H	 0.1930396126	-2.814379432	 1.9111794767	 0.119726
H	 1.510673278	-2.2094166157	 0.8846490939	 0.098351
H	 0.6120666847	-0.2568257184	 2.0144714297	 0.108317
H	-1.0505556238	-0.722529282	 1.6882234927	 0.126581
75.9489	122.1827	175.7864	198.786	277.1865	325.678	330.5785	421.0113	453.6282	466.7314	549.7599	590.4154	711.7373	801.0364	829.8639	890.4618	917.3027	971.8807	998.8152	1031.2595	1045.3244	1076.5824	1107.8248	1151.1033	1186.2056	1239.0407	1290.719	1300.6394	1319.2731	1357.9659	1383.2941	1413.4967	1414.9093	1466.8165	1478.7864	1488.4095	1498.7638	1743.1601	2367.4543	2921.0889	2981.488	3016.9308	3022.0816	3052.4164	3069.3239	3102.7681	3117.8388	3176.5725
CC1=CC(OCC1)C#N	CC1=C[C@@H](OCC1)C#N	
InChI=1S/C7H9NO/c1-6-2-3-9-7(4-6)5-8/h4,7H,2-3H2,1H3	InChI=1S/C7H9NO/c1-6-2-3-9-7(4-6)5-8/h4,7H,2-3H2,1H3/t7-/m1/s1
