21
gdb 40062	3.09775	1.49879	1.4047	1.8423	80.55	-0.253	0.0805	0.3335	1032.5011	0.185888	-387.096669	-387.089497	-387.088553	-387.128043	30.037	
C	 0.1184806639	 1.5051877668	 0.0040546056	-0.279477
O	 1.2355862597	 0.6064203645	-0.0038762836	-0.298043
C	-0.0848916313	 0.0557183414	 0.0085528771	 0.494666
C	-0.4931581452	-0.7859413101	 1.2301880913	-0.303562
C	-1.130891706	-2.0325986469	 0.5702801987	-0.00755
C	-2.4923414582	-1.6203412536	-0.0357934717	-0.204909
C	-2.0808744777	-0.7197222523	-1.24650047	-0.214886
C	-0.532232063	-0.7539631449	-1.2041426079	-0.082721
C	-0.2621362146	-2.1894879603	-0.7000798704	-0.233831
H	-0.0138576674	 2.0768201337	 0.9225619654	 0.108616
H	-0.0285955756	 2.0739592899	-0.9144746078	 0.107527
H	 0.4050814402	-1.0443551312	 1.799524577	 0.113582
H	-1.1799029355	-0.2628552915	 1.9027090758	 0.098035
H	-1.1825812747	-2.8998904009	 1.2306625933	 0.059732
H	-3.0501909761	-2.4995894543	-0.3715924004	 0.0955
H	-3.1222628142	-1.093705785	 0.6871773735	 0.093513
H	-2.4458344494	-1.1343844616	-2.1905271023	 0.097442
H	-2.4713164009	 0.298972043	-1.1677008907	 0.096705
H	-0.040750474	-0.4450991725	-2.1274165251	 0.064866
H	 0.7943724833	-2.3746259856	-0.4854276762	 0.104971
H	-0.6302847433	-2.9630446986	-1.3807835117	 0.089826
99.4152	217.7131	298.7745	331.8309	381.3496	425.419	469.0769	528.8051	650.2125	766.4819	797.0613	813.6926	830.548	844.423	887.9408	908.8012	931.0553	945.576	956.441	963.6387	966.1325	985.398	1051.1705	1079.6112	1108.976	1125.1026	1135.0787	1161.197	1162.3178	1193.5498	1228.1363	1236.3375	1264.5261	1273.9122	1288.7343	1304.4907	1332.4812	1336.0184	1343.8355	1432.2911	1480.1891	1491.2325	1494.1452	1516.7298	1536.3824	3046.0012	3048.2934	3051.8216	3057.2732	3070.9222	3080.5483	3092.9984	3098.561	3102.0868	3104.6658	3112.4764	3153.6644
C1OC11CC2CCC1C2	C1O[C@]21C[C@H]1CC[C@@H]2C1	
InChI=1S/C8H12O/c1-2-7-3-6(1)4-8(7)5-9-8/h6-7H,1-5H2	InChI=1S/C8H12O/c1-2-7-3-6(1)4-8(7)5-9-8/h6-7H,1-5H2/t6-,7+,8-/m0/s1
