20
gdb 88009	2.8594	1.33735	1.10998	2.5396	79.84	-0.2394	0.0614	0.3008	1182.2879	0.170136	-403.096557	-403.087798	-403.086853	-403.130077	33.379	
C	 0.0092980284	 1.4506603675	-0.2043345548	-0.417694
C	-0.0058462744	-0.0349512915	 0.0405809184	-0.028368
O	 1.2691393548	-0.7103666902	 0.0125998831	-0.298851
C	 0.5636036364	-0.6504050322	 1.2438951958	 0.381606
C	 1.0921060557	-0.0150403576	 2.5379738947	-0.329166
C	 0.4565484904	-1.2029453512	 3.3361848692	-0.313126
C	 0.1486920096	-1.8972008901	 2.0017927634	 0.280867
C	-0.8020107737	-2.956171476	 1.6070562777	-0.31642
N	 0.6479670025	-3.2282649986	 1.6614235984	-0.355484
H	 0.8049828168	 1.9338775986	 0.3680544705	 0.129828
H	 0.1718201464	 1.6644120521	-1.2658521315	 0.131629
H	-0.9498946086	 1.894446151	 0.0842462949	 0.123072
H	-0.7956342757	-0.582596486	-0.477542034	 0.086864
H	 2.1840506039	-0.0073312785	 2.5736340958	 0.122757
H	 0.7221135457	 0.9856074314	 2.7730853671	 0.106562
H	 1.1345750614	-1.7558394432	 3.9882874514	 0.119065
H	-0.4356963684	-0.9192192058	 3.8999151225	 0.106507
H	-1.3895379803	-3.4666811405	 2.3659706547	 0.119231
H	-1.2870312651	-2.8792008398	 0.6363247124	 0.110762
H	 1.0411651342	-3.1882124193	 0.7213395202	 0.240358
63.2941	135.5809	168.8178	183.2491	242.7295	277.33	340.825	420.7378	468.1577	508.1071	575.4215	626.0074	748.2704	791.4612	830.9122	873.2524	893.8957	920.1051	943.262	963.6054	983.8913	1025.1834	1046.9603	1094.2807	1105.6386	1115.6392	1138.0192	1140.8369	1186.0969	1210.9537	1231.8419	1251.6018	1282.1446	1291.6248	1348.1671	1406.9074	1411.7861	1467.5635	1469.6225	1485.9182	1491.9943	1507.7685	1526.4841	3036.6363	3065.614	3070.8401	3085.7444	3098.4974	3100.4642	3115.5518	3126.6146	3132.8434	3181.9365	3470.3417
CC1OC11CCC11CN1	C[C@H]1O[C@]21CC[C@]12CN1	
InChI=1S/C7H11NO/c1-5-7(9-5)3-2-6(7)4-8-6/h5,8H,2-4H2,1H3	InChI=1S/C7H11NO/c1-5-7(9-5)3-2-6(7)4-8-6/h5,8H,2-4H2,1H3/t5-,6-,7+/m1/s1
