22
gdb 120253	3.0825	0.95757	0.84537	1.88	81.47	-0.2276	0.0732	0.3009	1442.6124	0.193935	-404.29485	-404.285292	-404.284348	-404.329507	35.743	
C	-0.6347276281	 1.511208319	 0.2629320289	-0.409597
C	-0.2158145067	 0.0698833255	 0.0235931363	 0.052202
C	 0.5165488169	-0.3850290268	-1.2918160645	-0.030352
C	 0.843207584	 0.5822724176	-2.4276995755	-0.194552
C	-0.3456435481	 0.8569513787	-3.34189222	-0.076489
O	 0.0826910653	 1.753445881	-4.3552655043	-0.420143
C	 1.6490556136	-0.8408685122	-0.3730603297	-0.048241
C	 2.1366645753	 0.2473689122	 0.4935103857	-0.244201
N	 0.9038879507	-0.4571027332	 0.8944512973	-0.141143
H	 0.1505196854	 2.2349175453	 0.0287239558	 0.119006
H	-1.509575455	 1.7650443518	-0.3448066519	 0.118364
H	-0.9079521678	 1.6424180742	 1.3153629456	 0.128934
H	-1.0778063242	-0.5765453669	 0.2109148317	 0.082934
H	-0.0020967413	-1.2555732007	-1.7072757626	 0.075164
H	 1.2133801777	 1.5388011739	-2.0438823115	 0.103654
H	 1.6528071035	 0.1614805127	-3.0373493982	 0.107334
H	-0.7043475737	-0.092372349	-3.7736753859	 0.084011
H	-1.1795477264	 1.282848163	-2.7608534342	 0.087827
H	-0.6629115541	 1.9312647139	-4.9357866496	 0.285404
H	 2.1692749872	-1.7905157134	-0.454884166	 0.090113
H	 2.9695740422	 0.0225933528	 1.1528193704	 0.119421
H	 2.0976497135	 1.2815515807	 0.1647802521	 0.11035
79.5652	87.2166	112.7726	200.9399	227.9185	239.7183	269.525	305.0005	373.3445	395.4583	535.8887	568.6737	701.7808	741.0286	771.048	779.2634	820.5634	893.6885	969.0446	987.9744	1016.3947	1039.0834	1050.9682	1063.0907	1084.1514	1099.2887	1106.0316	1125.8284	1169.562	1178.8151	1210.1117	1226.5285	1242.2325	1268.2138	1298.3749	1312.1457	1325.2017	1371.0363	1384.2299	1396.5884	1406.5214	1460.4844	1486.1898	1487.7951	1501.8598	1508.6518	1526.529	2958.9871	2985.9644	3033.1382	3037.4038	3039.8488	3061.7274	3079.6703	3101.4362	3113.6216	3122.8253	3153.3877	3202.8851	3830.3969
CC1C(CCO)C2CN12	C[C@H]1[C@@H](CCO)[C@H]2CN12	
InChI=1S/C7H13NO/c1-5-6(2-3-9)7-4-8(5)7/h5-7,9H,2-4H2,1H3	InChI=1S/C7H13NO/c1-5-6(2-3-9)7-4-8(5)7/h5-7,9H,2-4H2,1H3/t5-,6+,7+,8?/m0/s1
