21
gdb 91806	2.57722	1.4161	1.20842	2.7173	77.52	-0.2422	0.0635	0.3056	1139.9457	0.182177	-424.218626	-424.209613	-424.208669	-424.251754	35.7	
C	 0.0192579252	 1.5778342837	-0.0328819385	-0.435847
C	 0.0886278535	 0.052614715	-0.0250835991	 0.036663
C	 0.8357758186	-0.5759658542	-1.2304926126	-0.244275
C	 1.2600857458	-1.9596303247	-0.7445700403	-0.123558
C	 2.5289824043	-2.046039926	 0.0824643954	-0.301688
C	 1.209283327	-1.9619322415	 0.7742910276	 0.409667
O	 0.8263637043	-3.0755674406	 1.5240703	-0.473469
C	 0.7537454096	-0.5703598162	 1.234564184	 0.004875
O	 1.8788369367	 0.1682315666	 1.7022218102	-0.427455
H	 1.0233097467	 2.013862154	-0.0074205267	 0.123421
H	-0.4762603551	 1.9445679748	-0.9374354856	 0.118514
H	-0.5445700617	 1.9632280841	 0.8255641044	 0.106399
H	-0.9354275191	-0.3465046481	-0.0430044997	 0.064753
H	 0.1917081103	-0.6283181542	-2.113341682	 0.096118
H	 1.7036813256	 0.0348290643	-1.5077232594	 0.102918
H	 0.9614597782	-2.8423300604	-1.2991826938	 0.082081
H	 3.0111198998	-3.0161987417	 0.1301254427	 0.1141
H	 3.193356823	-1.19089241	 0.1257167221	 0.127736
H	-0.1255867711	-3.1895885985	 1.4283332515	 0.27643
H	 0.0236621163	-0.687462034	 2.0486423624	 0.059376
H	 1.5615098821	 1.0177982876	 2.0240594874	 0.283241
71.5561	196.1814	231.8945	258.6362	285.1908	288.0779	310.4282	331.3071	378.8416	421.7877	491.7428	518.1465	608.4528	640.5652	732.998	817.9309	856.8259	890.5007	919.4486	929.5061	951.0815	970.2199	1001.8671	1054.3605	1056.5941	1079.4544	1091.2843	1141.8725	1169.7618	1188.9239	1214.1499	1254.4596	1267.1125	1302.1896	1304.4178	1325.3708	1346.7561	1370.719	1397.5912	1411.6852	1427.7002	1481.9013	1495.017	1500.7884	1508.2002	2986.9632	3006.8771	3024.0243	3030.9268	3080.6238	3088.1859	3103.6771	3138.2709	3170.4965	3231.2783	3791.654	3820.0885
CC1CC2CC2(O)C1O	C[C@H]1C[C@H]2C[C@@]2(O)[C@H]1O	
InChI=1S/C7H12O2/c1-4-2-5-3-7(5,9)6(4)8/h4-6,8-9H,2-3H2,1H3	InChI=1S/C7H12O2/c1-4-2-5-3-7(5,9)6(4)8/h4-6,8-9H,2-3H2,1H3/t4-,5-,6-,7-/m0/s1
