17
gdb 42912	2.9237	1.30107	1.0016	2.1385	73.04	-0.2434	-0.0182	0.2251	1173.9947	0.135533	-421.786492	-421.778669	-421.777725	-421.819632	29.318	
O	-0.2352391256	 0.0031716091	 0.0405484824	-0.313249
C	-0.2024822769	 1.1975068474	 0.1145785058	 0.392654
C	-1.2173960595	 2.2865827543	-0.0500551789	-0.174702
C	-1.0740692801	 3.2691886796	 1.1077856156	-0.285841
C	-0.0693887087	 3.3274769805	 0.0138552879	-0.068362
C	 0.9853363491	 2.2177661231	 0.1886070713	-0.141635
C	 1.923160693	 2.231518115	 1.3612965717	 0.070789
C	 3.1330674836	 1.4002282065	 1.3789047655	-0.175219
O	 3.2180442903	 2.8058181358	 1.1409966109	-0.238754
H	-2.113670276	 2.25549352	-0.6560577962	 0.115427
H	-1.8281830864	 4.0491345329	 1.1103814042	 0.131938
H	-0.8110889092	 2.9123064069	 2.0990468853	 0.127697
H	 0.0484039647	 4.1901667734	-0.6276721329	 0.112893
H	 1.5730163936	 2.0819884216	-0.7268396244	 0.112854
H	 1.4846166359	 2.5020440379	 2.3220636432	 0.093561
H	 3.5378020344	 1.0581700524	 2.3299970989	 0.11838
H	 3.3570329877	 0.7644452338	 0.5236318696	 0.121568
54.5292	120.928	154.4731	210.5014	310.4365	355.6608	492.4062	528.585	600.2403	685.4928	760.4724	828.6749	840.3098	864.1208	893.3347	919.2688	941.7886	963.1468	1005.2174	1023.3428	1066.1506	1086.7081	1093.7948	1113.9623	1146.2978	1155.5351	1161.3912	1179.2201	1196.9321	1277.4664	1296.122	1297.9631	1332.7159	1449.1939	1497.0836	1529.5057	1883.7817	3053.9841	3086.9385	3107.0692	3127.3936	3174.4023	3201.8569	3206.5446	3217.1784
O=C1C2CC2C1C1CO1	O=C1[C@H]2C[C@H]2[C@H]1[C@H]1CO1	
InChI=1S/C7H8O2/c8-7-4-1-3(4)6(7)5-2-9-5/h3-6H,1-2H2	InChI=1S/C7H8O2/c8-7-4-1-3(4)6(7)5-2-9-5/h3-6H,1-2H2/t3-,4+,5-,6+/m1/s1
