21
gdb 121989	3.14946	0.66164	0.57054	3.6444	77.57	-0.2484	-0.0173	0.231	1945.8681	0.178375	-461.362233	-461.351093	-461.350149	-461.400096	38.015	
C	-0.1647350162	 0.8565558139	 1.2707774409	-0.386668
C	-0.1985808489	-0.0232159276	 0.0331998022	-0.026487
O	-1.4202263859	-0.7384841481	 0.0205708801	-0.24761
C	-1.5637521909	-1.5927990258	-1.0885178673	-0.076128
C	-2.913360122	-2.3066910767	-0.9862489426	 0.087345
O	-3.1472408429	-3.091581523	-2.1468184599	-0.42841
C	-3.0329181496	-3.1337143542	 0.2983615735	-0.295144
C	-4.3910327835	-3.7861995733	 0.4179539378	 0.16616
O	-4.5752684611	-4.9548713072	 0.6382507388	-0.242288
H	 0.7703516794	 1.4229733225	 1.309168392	 0.118589
H	-0.9989918448	 1.5636356703	 1.2623274998	 0.128797
H	-0.2394141185	 0.2484484675	 2.1767982612	 0.127227
H	-0.1104213496	 0.587316389	-0.880657316	 0.091061
H	 0.6502161134	-0.7274893315	 0.033409533	 0.089081
H	-1.5289134631	-1.0318552029	-2.0356953408	 0.101575
H	-0.7495673907	-2.3405915872	-1.1181251567	 0.076469
H	-3.700840492	-1.5435093845	-0.9945625167	 0.105796
H	-2.5630720013	-3.8578410722	-2.1153308433	 0.286427
H	-2.2608527477	-3.911264114	 0.3436536919	 0.107034
H	-2.8852642696	-2.4603532303	 1.1524478106	 0.142957
H	-5.2476981344	-3.0838906247	 0.2900881814	 0.074216
51.7492	64.2899	69.805	93.9389	128.0844	159.8268	209.8259	248.6729	275.7272	300.9562	348.7101	425.2019	499.7657	526.8657	531.5675	770.0477	821.569	890.2329	914.5422	967.6729	1016.6419	1044.9639	1080.1644	1107.3935	1139.1268	1156.1463	1170.6649	1184.479	1189.6462	1236.4719	1282.1401	1297.1274	1312.0723	1371.1155	1389.361	1405.9521	1414.1379	1431.7521	1447.6652	1458.5121	1483.9316	1499.4501	1512.5107	1535.1239	1838.1299	2861.0796	2935.8875	2961.378	2986.9196	2997.4416	3030.3921	3046.0022	3049.1551	3084.9061	3121.1179	3122.5175	3797.1
CCOCC(O)CC=O	CCOC[C@@H](O)CC=O	
InChI=1S/C6H12O3/c1-2-9-5-6(8)3-4-7/h4,6,8H,2-3,5H2,1H3	InChI=1S/C6H12O3/c1-2-9-5-6(8)3-4-7/h4,6,8H,2-3,5H2,1H3/t6-/m0/s1
