20
gdb 98223	3.21864	1.03759	0.81529	5.6256	77.95	-0.2338	-0.0155	0.2183	1447.6635	0.167697	-440.339132	-440.328408	-440.327464	-440.376055	37.288	
C	 0.1056590058	 1.7493484574	-0.1766155642	-0.377111
C	 0.0388454037	 0.2259225109	-0.0900092268	-0.314272
C	-1.4046540094	-0.2683435177	 0.0245555504	 0.420907
O	-2.3316184105	 0.5014492755	 0.0289450951	-0.301239
N	-1.5721771082	-1.6724369756	 0.1456660923	-0.175143
C	-0.4045657494	-2.5181986869	 0.4019629224	-0.349673
C	-2.8695470158	-2.2506463305	 0.0930454654	 0.399558
C	-3.0247424166	-3.6286598818	 0.7277357311	-0.502008
O	-3.8063616695	-1.696253133	-0.4199226062	-0.291061
H	 1.145026176	 2.0784313294	-0.2636100362	 0.10603
H	-0.452323576	 2.1155795197	-1.0410072713	 0.138804
H	-0.3339498479	 2.2097857773	 0.7110783857	 0.134757
H	 0.5005726213	-0.2301181152	-0.9755728827	 0.127373
H	 0.6218334287	-0.1350847089	 0.7659956479	 0.121505
H	-0.0184422233	-2.3992876739	 1.4214573053	 0.135218
H	-0.6640433422	-3.5637382391	 0.2566013296	 0.143403
H	 0.3990514843	-2.289164794	-0.2997273905	 0.14343
H	-2.5068254867	-3.7180588665	 1.6863829248	 0.13535
H	-4.0933990455	-3.7891613939	 0.8684474728	 0.156061
H	-2.6508154989	-4.4170029433	 0.0655173651	 0.148112
32.7759	59.3786	95.9437	116.0484	188.7808	197.5839	218.2276	242.9975	309.9387	351.1647	399.8548	455.8667	544.2633	557.4309	606.0025	622.1428	728.3332	823.9281	837.9558	996.2883	1007.5384	1047.2035	1065.4958	1093.461	1120.0801	1142.5796	1180.3474	1232.2848	1289.6923	1304.8001	1370.7188	1387.8654	1416.1044	1455.9331	1465.4219	1475.9	1488.3711	1491.2785	1497.5911	1506.948	1516.8735	1779.0886	1848.9727	3023.8411	3032.4176	3044.7901	3054.4376	3058.7762	3111.4309	3115.9222	3126.2361	3137.1105	3159.6363	3176.2108
CCC(=O)N(C)C(C)=O	CCC(=O)N(C)C(=O)C	
InChI=1S/C6H11NO2/c1-4-6(9)7(3)5(2)8/h4H2,1-3H3	InChI=1S/C6H11NO2/c1-4-6(9)7(3)5(2)8/h4H2,1-3H3
