20
gdb 77908	2.09334	1.56094	1.39761	1.8276	75.32	-0.1922	0.064	0.2562	1084.0615	0.168533	-440.221684	-440.211998	-440.211054	-440.255254	36.688	
C	-0.5317121641	 1.5852788522	-0.3768718138	-0.429522
C	-0.1515591166	 0.1197582929	-0.2105969446	 0.002427
N	 1.0422349162	-0.4325252048	-0.9300839791	-0.08174
C	 1.8334625736	 0.3775975888	-1.8397880546	-0.328468
C	 1.6318364427	-0.921615511	 0.3036794707	-0.142733
C	 1.8189748677	 0.1226561496	 1.3860160646	 0.009761
O	 2.1801365227	 1.4622458197	 1.1774459196	-0.418752
C	 0.4393901464	-0.3815964326	 1.1153773722	 0.294903
O	-0.3191954259	-1.0413952084	 2.0668527337	-0.460211
H	 0.2852001761	 2.253693122	-0.1051642817	 0.146441
H	-0.8380288664	 1.7928145688	-1.4081209573	 0.113338
H	-1.3901781678	 1.8103115787	 0.2659814218	 0.112301
H	-1.0195183013	-0.507061847	-0.4554813066	 0.086602
H	 2.2249850536	 1.3115967568	-1.4106021959	 0.099391
H	 2.6828850574	-0.221547657	-2.1868303976	 0.115096
H	 1.2339684297	 0.6296262512	-2.7210596869	 0.118094
H	 2.1376206973	-1.8824604199	 0.3376790575	 0.094853
H	 2.2189590205	-0.3155763749	 2.3041499631	 0.091124
H	 3.1159437115	 1.4830351121	 0.9508461564	 0.28783
H	-0.5067854133	-0.4251579673	 2.7830341485	 0.289263
137.9052	166.1247	193.6693	199.7775	226.8691	243.1154	263.8886	271.4514	330.6246	341.9668	370.967	475.4156	589.491	597.8832	657.7147	705.2591	767.4285	816.9996	924.9018	949.4128	968.8661	1012.2483	1079.0182	1081.1048	1120.8878	1140.9575	1149.7043	1203.066	1223.4974	1237.3568	1265.2107	1287.1445	1295.9255	1340.4503	1359.1213	1385.9926	1403.221	1446.8495	1479.3504	1487.1936	1495.2896	1506.8996	1519.802	2989.3125	3008.3903	3036.1373	3058.9952	3074.8415	3088.3578	3092.8011	3148.2514	3153.4562	3801.5896	3805.2671
CC1N(C)C2C(O)C12O	C[C@H]1N(C)[C@H]2[C@@H](O)[C@@]12O	
InChI=1S/C6H11NO2/c1-3-6(9)4(5(6)8)7(3)2/h3-5,8-9H,1-2H3	InChI=1S/C6H11NO2/c1-3-6(9)4(5(6)8)7(3)2/h3-5,8-9H,1-2H3/t3-,4+,5-,6-/m1/s1
