17
gdb 83437	3.00525	1.33549	1.17404	1.519	68.21	-0.2401	0.0442	0.2843	1089.6437	0.135208	-458.88114	-458.873169	-458.872225	-458.913995	30.092	
O	-0.1667828425	 1.4978940739	 0.0217317584	-0.440305
C	-0.1360130692	 0.1111194502	-0.089289397	 0.073685
C	-0.2925591491	-0.8289856624	 1.0986116602	-0.237689
C	-1.3373442206	-0.2438432418	 2.0350635712	-0.110067
O	-2.2773457484	-0.0436827205	 0.9319214687	-0.345937
C	-1.376590733	-0.7048822413	 0.0243278044	 0.399495
C	-1.9596412057	-1.6357552317	-0.97095282	-0.055741
C	-2.1061564533	-1.249351503	-2.3837987426	-0.17531
O	-1.0472714743	-2.1097621086	-1.9614723882	-0.226196
H	-1.0750634498	 1.7274708929	 0.2618971301	 0.295334
H	 0.5780438069	-0.2354535029	-0.8295395362	 0.127353
H	 0.395486614	-1.63357663	 1.3206539255	 0.109444
H	-1.74982457	-0.9589689744	 2.753039517	 0.11912
H	-1.0903004721	 0.6967795967	 2.5388815861	 0.115993
H	-2.6327321271	-2.392653913	-0.5670762371	 0.101188
H	-2.8766631873	-1.7220715228	-2.9901831811	 0.122839
H	-1.8001426884	-0.2523372514	-2.6947921092	 0.126794
71.2762	133.4926	178.3071	226.2352	268.7022	350.9861	431.391	468.4565	525.6066	596.9019	720.905	793.9301	820.8962	865.5635	879.6877	918.5484	964.0631	970.0212	984.3133	1026.4134	1045.4202	1090.6839	1104.2885	1122.8939	1151.193	1163.1477	1166.9947	1171.2782	1245.1874	1276.1567	1305.4277	1333.3137	1374.6315	1426.3242	1490.8124	1516.0722	1521.322	3040.1697	3090.7659	3093.0148	3107.3253	3176.2399	3184.4214	3205.7246	3750.9095
OC1C2COC12C1CO1	O[C@H]1[C@H]2CO[C@@]12[C@H]1CO1	
InChI=1S/C6H8O3/c7-5-3-1-9-6(3,5)4-2-8-4/h3-5,7H,1-2H2	InChI=1S/C6H8O3/c7-5-3-1-9-6(3,5)4-2-8-4/h3-5,7H,1-2H2/t3-,4-,5+,6+/m1/s1
