19
gdb 89832	3.23	1.25501	0.99621	4.429	77.23	-0.2379	0.0337	0.2716	1213.696	0.160508	-419.22734	-419.218791	-419.217847	-419.260793	31.866	
C	-0.0455564656	 1.4113984143	 0.0027478257	-0.343465
N	-0.0135417206	-0.026887978	-0.1104532324	-0.079706
C	-1.2152280965	-0.8352786425	-0.0724183626	-0.236981
C	-0.7031963477	-2.2459833703	-0.3764679719	 0.317685
C	-1.5807173612	-3.4295550526	-0.2619973287	-0.29295
N	-1.1375847939	-2.9558366368	-1.5889557212	-0.34022
C	 0.7872622783	-2.228157108	-0.0860832675	-0.413224
C	 1.1585187443	-0.7451160586	-0.0873981738	 0.41532
O	 2.2728199068	-0.2675076269	-0.054175563	-0.391926
H	 0.9866926386	 1.765030858	-0.0125024723	 0.167909
H	-0.5967704798	 1.861376487	-0.8319329714	 0.122745
H	-0.5219223658	 1.7288623599	 0.9399470801	 0.120705
H	-1.7037258698	-0.7754190104	 0.9134788924	 0.108889
H	-1.9471889514	-0.4947229341	-0.8182096031	 0.104965
H	-1.1673706378	-4.386855162	 0.0445635434	 0.123112
H	-2.6172283491	-3.2734127824	 0.0299825281	 0.111077
H	-1.894835217	-2.4516159733	-2.0452421807	 0.227444
H	 1.0294829746	-2.6421121746	 0.8995726661	 0.13061
H	 1.3619681235	-2.7772161888	-0.8336127569	 0.148012
65.4979	138.0958	153.1142	186.6435	251.036	310.8297	363.1977	391.549	476.0655	504.0954	581.7625	655.3424	769.8564	800.9354	839.5669	909.8567	934.5917	954.2882	1000.1802	1013.3668	1046.9078	1091.3124	1123.3908	1143.8209	1156.3665	1180.2084	1218.149	1250.5514	1264.355	1282.9924	1309.8078	1323.4926	1408.0778	1431.9756	1451.37	1460.0825	1493.3075	1510.2195	1516.1996	1538.279	1811.4149	2970.1799	3008.9635	3013.5078	3051.3552	3059.2788	3098.4941	3126.0401	3144.1821	3183.0651	3487.7543
CN1CC2(CN2)CC1=O	CN1C[C@]2(CN2)CC1=O	
InChI=1S/C6H10N2O/c1-8-4-6(3-7-6)2-5(8)9/h7H,2-4H2,1H3	InChI=1S/C6H10N2O/c1-8-4-6(3-7-6)2-5(8)9/h7H,2-4H2,1H3/t6-/m1/s1
