13
gdb 131958	2.80485	1.65259	1.04656	3.904	63.81	-0.295	-0.0884	0.2066	1038.4062	0.090173	-485.987737	-485.980228	-485.979284	-486.020486	26.453	
C	-0.0347488532	 1.5314161984	-0.0339436071	-0.491524
C	-0.0130688134	 0.0441658248	 0.0341161455	 0.292426
N	-0.0306039671	-0.7215019232	-1.0590842602	-0.249187
N	-0.0019424402	-1.9649456359	-0.5790547452	-0.058856
N	 0.0332042903	-2.1041213454	 0.7253218603	-0.233325
C	 0.0271615568	-0.8388479753	 1.1364721316	 0.314296
N	 0.0591855497	-0.5145832857	 2.5431964071	 0.375635
O	 0.0906341642	-1.4282141145	 3.3491739359	-0.336685
O	 0.0514198009	 0.6847747999	 2.8128849103	-0.381642
H	 0.8519574096	 1.9548140286	 0.4449100906	 0.156986
H	-0.07184576	 1.8486352993	-1.0773095173	 0.144783
H	-0.8996933297	 1.9319053205	 0.5008961066	 0.157101
H	-0.0070688379	-2.7661264814	-1.1920346281	 0.309991
59.3612	138.745	204.8074	215.7469	293.5183	337.2183	445.8819	548.908	579.5318	685.3896	700.8986	724.9742	806.0895	853.3526	987.0234	1024.4031	1071.0938	1165.0217	1197.1223	1274.3546	1372.5692	1400.8327	1416.9662	1430.3	1474.3974	1479.6414	1501.2712	1565.4913	1644.0043	3059.2901	3120.9121	3150.2993	3651.9352
CC1=NNN=C1N(=O)=O	Cc1n[nH]nc1N(=O)=O	
InChI=1S/C3H4N4O2/c1-2-3(7(8)9)5-6-4-2/h1H3,(H,4,5,6)	InChI=1S/C3H4N4O2/c1-2-3(7(8)9)5-6-4-2/h1H3,(H,4,5,6)
