17
gdb 66766	2.52554	2.28335	1.8377	1.0062	74.34	-0.2281	0.013	0.2411	831.1241	0.137836	-384.63971	-384.633407	-384.632463	-384.669798	27.414	
O	-0.0586340095	 1.3920496801	 0.0203150772	-0.484845
C	-0.010736841	 0.016355202	 0.0044291428	 0.41037
C	-1.2828114946	-0.8884458372	 0.1065106423	-0.168972
C	-0.3810973142	-1.8849517606	 0.7847745929	-0.065087
C	-0.5121175688	-1.8719926415	-0.7330278356	-0.065088
C	 0.545107656	-0.8202935866	-1.2084969822	-0.148069
C	 1.9626993401	-1.1594286824	-0.8503378418	-0.102709
C	 2.0782590483	-1.1708394267	 0.4883473884	-0.102729
C	 0.7434974037	-0.8399033395	 1.0898056463	-0.148088
H	 0.8455988718	 1.7218733388	-0.0542985289	 0.284898
H	-2.3347518735	-0.6669329643	 0.1992107723	 0.0953
H	-0.6490526236	-2.7463023747	 1.3816587987	 0.088319
H	-0.8796599463	-2.7234964407	-1.2896688403	 0.088318
H	 0.3389157439	-0.4158595042	-2.2001960851	 0.065848
H	 2.7376878432	-1.4166386706	-1.5629392182	 0.093347
H	 2.9635072354	-1.4389564852	 1.0531600942	 0.093345
H	 0.7108703491	-0.4526434267	 2.1088832068	 0.065842
242.1977	266.3649	364.8217	408.9236	410.5546	564.4454	606.9282	689.3926	724.1706	730.8947	806.9534	809.8775	816.4109	829.3164	890.1715	897.0127	943.9341	948.1891	968.1755	980.9851	989.6408	1004.0907	1036.2814	1042.4365	1068.2488	1115.8896	1151.3901	1160.6464	1181.4668	1230.6211	1234.4246	1288.5853	1319.0481	1348.8952	1365.9845	1401.4229	1623.0856	3109.5142	3111.3128	3185.4935	3199.3907	3206.654	3210.3043	3239.7444	3778.6026
OC12C3C4C3C1C=CC24	O[C@@]12[C@@H]3[C@H]4[C@@H]3[C@@H]1C=C[C@@H]24	
InChI=1S/C8H8O/c9-8-3-1-2-4(8)6-5(3)7(6)8/h1-7,9H	InChI=1S/C8H8O/c9-8-3-1-2-4(8)6-5(3)7(6)8/h1-7,9H/t3-,4+,5-,6+,7-,8-
