23
gdb 88877	3.29448	0.98957	0.85586	1.3448	85.69	-0.2511	0.0794	0.3305	1442.543	0.20707	-388.28939	-388.280088	-388.279144	-388.324637	35.134	
O	-0.0962586957	 1.5215965549	 0.462879483	-0.418306
C	 0.0215180661	 0.1501789797	 0.204956842	 0.091684
C	-0.5578879642	-0.8451244111	 1.1794704034	-0.347739
C	-1.2400745757	-0.5817708759	-0.1519166427	-0.027585
C	-2.5661579909	 0.1396166484	-0.2115816176	 0.050875
C	-2.8489747855	 0.8229247204	-1.5661922876	-0.211419
C	-4.3849631969	 1.0340047392	-1.6088447468	-0.206115
C	-4.9724675264	 0.1240446561	-0.489252165	-0.204824
C	-3.8007594668	-0.7607789139	-0.0254252236	-0.210771
H	 0.4930186236	 1.7375829764	 1.1927820272	 0.286914
H	 0.9332674993	-0.1322473419	-0.3218360517	 0.081812
H	-0.0440859255	-1.7869869062	 1.3399080248	 0.106649
H	-1.0396807069	-0.4339440227	 2.0612459549	 0.110372
H	-1.1260027186	-1.3593599063	-0.9049421374	 0.078808
H	-2.5746746959	 0.9099701711	 0.5688222991	 0.073781
H	-2.28166477	 1.749564998	-1.6835001508	 0.106495
H	-2.5367959437	 0.15231329	-2.3769533389	 0.086468
H	-4.6462031253	 2.0815036315	-1.4321406497	 0.096641
H	-4.7905798335	 0.7759365503	-2.5913657192	 0.094415
H	-5.3234728432	 0.7380218999	 0.3474633012	 0.095376
H	-5.8310252419	-0.4612951052	-0.8302296265	 0.090769
H	-3.7075629113	-1.6423443108	-0.6744518272	 0.086891
H	-3.9164840311	-1.1263228219	 0.9994669492	 0.08881
36.653	62.9205	111.0224	147.0071	224.1479	294.7905	347.8377	386.5328	424.7087	526.4997	599.4538	633.8297	764.7724	785.6599	822.7575	844.8289	866.4727	891.2767	920.9109	955.084	959.8401	982.7018	1010.861	1021.4457	1049.7335	1056.7486	1104.4246	1131.0781	1135.5073	1174.7237	1202.3329	1215.0281	1228.2137	1238.5415	1264.9334	1287.3263	1295.7887	1306.9709	1324.2387	1338.5138	1343.6427	1358.7975	1409.605	1434.4892	1485.9908	1488.9476	1494.6992	1496.3705	1518.7071	3014.5853	3022.2593	3038.3693	3040.9678	3054.3743	3074.1235	3081.5246	3092.3574	3092.8029	3104.4014	3122.7899	3126.428	3213.2391	3807.6526
OC1CC1C1CCCC1	O[C@H]1C[C@H]1C1CCCC1	
InChI=1S/C8H14O/c9-8-5-7(8)6-3-1-2-4-6/h6-9H,1-5H2	InChI=1S/C8H14O/c9-8-5-7(8)6-3-1-2-4-6/h6-9H,1-5H2/t7-,8-/m0/s1
