22
gdb 102609	1.94176	1.13462	0.77552	4.0188	79.52	-0.2338	0.0389	0.2727	1526.79	0.192201	-441.519499	-441.508441	-441.507496	-441.556733	39.207	
C	 0.4330218864	 0.9072647799	 0.675277811	-0.389317
C	-0.4055138595	 0.2041964783	-0.3973765357	-0.190687
C	 0.4089328959	-0.3183175559	-1.5915307046	 0.119927
C	 1.2569349296	-1.5434439086	-1.2235588825	-0.303607
C	 2.3065207355	-1.9413582179	-2.2641504177	 0.35772
N	 1.7943159878	-2.2755103354	-3.4835516062	-0.505656
O	 3.4945568664	-1.9847876102	-2.0058797009	-0.360851
O	-0.4603278056	-0.7166879552	-2.6600872553	-0.254189
C	-0.9259889772	 0.3432297123	-3.4698882194	-0.251524
H	 1.1522563074	 0.2311625114	 1.1467987546	 0.129647
H	 0.9960453961	 1.7464179772	 0.2517884802	 0.120062
H	-0.2088988364	 1.3050782862	 1.4667314808	 0.119237
H	-0.9599704288	-0.6356395383	 0.0387183957	 0.105281
H	-1.1573454436	 0.9071742731	-0.7731221518	 0.098813
H	 1.0702170853	 0.4859036932	-1.955199347	 0.076181
H	 1.8053204637	-1.354148561	-0.3004413081	 0.128387
H	 0.5732131322	-2.3835771957	-1.0511281061	 0.123249
H	 0.8343861767	-2.0464737359	-3.6900304357	 0.264544
H	 2.4442146519	-2.450140717	-4.232792182	 0.251742
H	-1.5378968887	 1.0626949596	-2.9093462267	 0.117659
H	-0.0931435019	 0.8880302391	-3.939366631	 0.113612
H	-1.5470638832	-0.0998570991	-4.2523554318	 0.129769
36.8124	80.1975	84.8174	93.8431	166.2544	205.4386	226.1451	257.362	294.3825	359.051	393.0332	408.2156	466.2649	495.1822	564.5482	622.5881	722.4191	783.9442	835.3027	876.9987	914.7887	984.4603	1000.772	1055.1134	1111.3307	1131.2981	1136.4601	1147.2194	1183.5421	1196.9972	1247.1543	1278.5908	1319.1361	1335.2224	1368.724	1386.5817	1395.3476	1417.0102	1458.3659	1479.6954	1483.1206	1492.6657	1502.2126	1508.5502	1509.6925	1611.7945	1800.5379	2966.2021	2988.656	3033.1709	3037.7065	3044.3414	3046.3475	3069.7418	3104.1504	3112.6173	3114.4007	3138.1167	3568.9359	3712.7101
CCC(CC(N)=O)OC	CC[C@@H](CC(=O)N)OC	
InChI=1S/C6H13NO2/c1-3-5(9-2)4-6(7)8/h5H,3-4H2,1-2H3,(H2,7,8)	InChI=1S/C6H13NO2/c1-3-5(9-2)4-6(7)8/h5H,3-4H2,1-2H3,(H2,7,8)/t5-/m0/s1
