20
gdb 64077	3.23433	1.19335	1.08412	4.0021	82.95	-0.2238	-0.0485	0.1753	1203.8739	0.170948	-403.17729	-403.168474	-403.16753	-403.210327	34.44	
C	-0.0126206339	 1.5305405786	-0.0137562686	-0.411203
C	-0.0591170368	-0.0081969419	-0.0009771642	 0.211355
C	-1.5337625241	-0.4791562611	 0.1098745708	-0.41507
N	 0.6127916938	-0.4745533963	-1.221445861	-0.328686
C	 0.9452477086	-1.8937177834	-1.2659760826	-0.29079
C	 1.8288570331	-2.2823457452	-0.0852021947	 0.398911
O	 2.6108576045	-3.2087092667	-0.1458368851	-0.330985
C	 1.5967517981	-1.512854624	 1.15154412	-0.194261
C	 0.7066925972	-0.5157540142	 1.196131446	-0.015987
H	 1.0212894383	 1.8788553098	-0.0692853096	 0.132224
H	-0.5506890553	 1.915335943	-0.8871665123	 0.111823
H	-0.4851094409	 1.9490755621	 0.8804683597	 0.113209
H	-2.1224640103	-0.059742497	-0.7137422675	 0.112103
H	-1.6082398348	-1.5694680265	 0.0701078222	 0.124451
H	-1.9899318998	-0.148659353	 1.0486951783	 0.119003
H	 0.0643753746	-0.2147616488	-2.0342729433	 0.217663
H	 0.0725577635	-2.5758013481	-1.2437401278	 0.103069
H	 1.4923454598	-2.1110143001	-2.1869148568	 0.127984
H	 2.1475468596	-1.836456549	 2.0292598934	 0.108054
H	 0.4934515346	-0.0138871081	 2.1376664229	 0.107133
72.7787	201.6795	205.883	236.4072	267.5395	313.1858	334.3143	386.4686	415.5401	459.8014	478.7202	527.2334	633.9174	686.6518	710.6298	753.2686	815.4561	906.2675	921.6567	930.875	960.1255	1015.4932	1018.914	1032.7901	1112.3159	1142.1018	1166.0215	1202.6912	1243.719	1251.1582	1291.8215	1357.7735	1390.4356	1401.3787	1416.7214	1470.5572	1477.1687	1480.4452	1491.9646	1501.8326	1513.4623	1684.9462	1787.607	2909.6572	3028.8572	3034.7362	3093.3974	3095.8613	3102.5394	3113.5387	3128.1872	3150.898	3187.4552	3522.7083
CC1(C)NCC(=O)C=C1	CC1(C)NCC(=O)C=C1	
InChI=1S/C7H11NO/c1-7(2)4-3-6(9)5-8-7/h3-4,8H,5H2,1-2H3	InChI=1S/C7H11NO/c1-7(2)4-3-6(9)5-8-7/h3-4,8H,5H2,1-2H3
