17
gdb 12354	3.08151	2.13819	1.57893	1.4921	64.42	-0.2495	0.0172	0.2668	851.8306	0.142913	-401.014187	-401.006409	-401.005464	-401.046202	28.894	
C	 0.0273592282	 1.5417297444	-0.0442909044	-0.405479
C	 0.0178078833	 0.027978208	 0.053622368	 0.132745
O	 0.6488017286	-0.4775623821	-1.1497054707	-0.243107
C	 1.1182666087	-1.745940658	-1.1033427876	 0.111645
N	 1.2012178676	-2.5405160119	-0.1216897422	-0.271988
C	 0.7539286653	-2.0587182842	 1.1864963592	-0.188865
C	 0.7452003529	-0.5310299792	 1.2851826779	 0.085021
O	 2.0582236889	-0.0009046785	 1.4029170558	-0.437501
H	 1.0520655535	 1.9140236552	 0.0147056369	 0.140712
H	-0.4212433332	 1.8656509622	-0.9867760268	 0.125511
H	-0.54703301	 1.9727153126	 0.7814552717	 0.119078
H	-1.0149873461	-0.3472844884	 0.0600012506	 0.08697
H	 1.4678918581	-2.0458317998	-2.0902664071	 0.126245
H	-0.2450758806	-2.4634997447	 1.3938229706	 0.113798
H	 1.4233088087	-2.4668988532	 1.9510655666	 0.119664
H	 0.2136319757	-0.2062939126	 2.186199366	 0.09189
H	 2.6114494404	-0.4266508098	 0.7381984258	 0.293661
83.2692	144.1298	221.3379	252.57	277.8397	334.0972	381.317	445.3542	500.9664	607.403	695.8253	766.6397	851.9971	885.1483	920.3948	960.414	973.621	1018.0811	1041.8164	1078.5177	1145.7847	1163.5002	1174.8566	1232.7725	1271.278	1324.1831	1354.7787	1375.1454	1384.1992	1406.0017	1412.6112	1423.8333	1477.9927	1484.5362	1496.797	1725.6697	3010.2061	3025.6956	3050.1468	3060.3523	3070.659	3121.9245	3142.8005	3153.2902	3801.6637
CC1OC=NCC1O	C[C@H]1OC=NC[C@H]1O	
InChI=1S/C5H9NO2/c1-4-5(7)2-6-3-8-4/h3-5,7H,2H2,1H3	InChI=1S/C5H9NO2/c1-4-5(7)2-6-3-8-4/h3-5,7H,2H2,1H3/t4-,5-/m1/s1
