22
gdb 11911	4.19285	1.39983	1.20385	0.2273	81.97	-0.2583	0.0874	0.3457	1104.2852	0.201547	-313.080842	-313.072666	-313.071722	-313.114165	32.025	
C	-0.2546596834	 1.4905742739	 0.0028138517	-0.406378
C	 0.0872717922	 0.0033866058	 0.0387865151	 0.052343
C	 0.8653648014	-0.5113306191	-1.1868542958	-0.204289
C	 1.3869943683	-1.8914522303	-0.7450487596	-0.292512
C	 1.612697354	-1.7543775387	 0.7720454311	 0.395797
C	 1.5499304657	-2.971738801	 1.6598754163	-0.31316
C	 2.8669559176	-2.270729674	 1.4285127125	-0.315601
C	 0.9977881978	-0.4183675053	 1.2098834183	-0.2874
H	 0.6553234649	 2.0980815321	-0.0708567483	 0.110389
H	-0.8880829505	 1.7342731325	-0.8570183191	 0.109742
H	-0.7890512321	 1.8015228214	 0.9070684566	 0.11012
H	-0.8472558226	-0.5720269683	 0.1088173114	 0.069228
H	 0.2570536297	-0.5532244855	-2.0956713289	 0.089032
H	 1.7059649306	 0.1658681309	-1.389792417	 0.092459
H	 0.6286185339	-2.6578736527	-0.9465266037	 0.096517
H	 2.2932271635	-2.1911073689	-1.2806791729	 0.092963
H	 1.0833627237	-2.8751963049	 2.635451156	 0.105087
H	 1.3973896821	-3.9383038046	 1.1887448769	 0.10454
H	 3.6065488494	-2.7649056743	 0.8058820471	 0.105027
H	 3.2892741858	-1.6952813364	 2.2469412108	 0.104714
H	 1.784415386	 0.3376158709	 1.3423504189	 0.090966
H	 0.4592145621	-0.4887452133	 2.1605312928	 0.090416
19.4061	162.9849	233.3981	240.6929	302.1743	359.3155	401.081	417.4335	465.6588	548.9663	729.143	778.8658	816.6844	845.8764	865.5065	904.4914	921.0755	951.6171	958.633	976.4961	980.8699	1006.456	1052.2989	1076.5229	1083.2215	1109.2543	1147.7855	1180.4384	1189.2458	1219.8002	1247.6383	1282.1434	1284.2464	1305.8536	1323.0711	1350.1817	1368.9663	1390.7264	1412.3988	1465.8987	1484.5519	1491.4562	1496.8118	1499.5339	1502.2991	1506.1959	2994.9719	3008.2699	3019.0425	3024.6905	3026.5384	3068.3499	3071.7542	3081.9173	3090.1517	3093.5891	3114.2123	3118.8456	3191.6027	3207.6159
CC1CCC2(CC2)C1	C[C@H]1CCC2(CC2)C1	
InChI=1S/C8H14/c1-7-2-3-8(6-7)4-5-8/h7H,2-6H2,1H3	InChI=1S/C8H14/c1-7-2-3-8(6-7)4-5-8/h7H,2-6H2,1H3/t7-/m0/s1
