19
gdb 82048	2.75608	1.51121	1.27743	0.7749	74.42	-0.2366	0.0705	0.307	1065.481	0.158389	-422.968226	-422.960029	-422.959085	-423.001141	31.242	
C	 0.0094957193	 1.6287135531	-0.3343620101	-0.417373
C	 0.0418866595	 0.1238321904	-0.1215299143	-0.081884
C	 1.1076924508	-0.6897327387	-0.8752413536	 0.018203
O	 2.3855760006	-0.289164147	-0.3560635039	-0.250736
C	 1.630009188	-1.2709587809	 0.3687996398	-0.064738
C	 0.627378488	-0.4711686266	 1.2150051118	 0.438002
C	 1.0629559601	 0.3363319322	 2.4482589163	-0.352097
C	 0.1068554798	-0.5964429623	 3.2163917259	-0.078305
O	-0.3027421183	-1.2476718128	 1.9906324694	-0.326619
H	 1.0125127242	 2.0520185442	-0.2296791038	 0.13246
H	-0.3615731051	 1.8764148674	-1.3348154607	 0.116591
H	-0.6492393718	 2.1179630206	 0.3910682729	 0.116554
H	-0.9475169941	-0.3275946938	-0.2529979816	 0.093176
H	 1.0883334827	-1.0875259136	-1.88354801	 0.103349
H	 2.0960492579	-2.227317374	 0.5782330352	 0.107111
H	 2.1220584869	 0.2675604018	 2.700638696	 0.119474
H	 0.7668294986	 1.3866124622	 2.4323657847	 0.115465
H	 0.5851470169	-1.2996326867	 3.9086090379	 0.104883
H	-0.739040184	-0.1180787757	 3.7223359182	 0.106485
82.8175	111.2377	196.3915	226.7599	231.6777	290.1885	398.9376	461.7061	553.3629	583.8633	738.5181	782.2257	835.968	858.4001	862.5192	869.3707	891.8809	967.4505	980.4314	991.7452	1020.7297	1045.5552	1064.7703	1094.8209	1135.0586	1156.2049	1174.8557	1180.9439	1211.534	1225.0896	1240.1956	1265.4681	1306.1219	1350.112	1362.1248	1379.0059	1406.8628	1484.5349	1495.73	1501.4475	1531.0939	3023.3151	3032.4805	3059.7855	3066.2746	3082.0577	3094.1362	3115.4594	3135.7892	3176.2017	3191.6654
CC1C2OC2C11CCO1	C[C@H]1[C@H]2O[C@H]2[C@]21CCO2	
InChI=1S/C7H10O2/c1-4-5-6(9-5)7(4)2-3-8-7/h4-6H,2-3H2,1H3	InChI=1S/C7H10O2/c1-4-5-6(9-5)7(4)2-3-8-7/h4-6H,2-3H2,1H3/t4-,5+,6+,7+/m0/s1
