20
gdb 39275	2.36763	2.18788	1.53147	1.1455	76.94	-0.2337	0.0794	0.3131	933.808	0.175262	-403.11551	-403.108795	-403.10785	-403.146105	28.987	
C	 0.0255062331	 1.5618533528	 0.0822567744	-0.214409
C	 1.5224526164	 2.0206203211	-0.0605321435	-0.282347
C	 2.1869034353	 0.6807711218	 0.1914539196	 0.336292
C	 1.3763702574	-0.2853425264	-0.6715800677	-0.297951
C	 0.0395971455	-0.0079749482	 0.0177132383	 0.137314
O	 0.0324818229	-0.6251308483	 1.3206462935	-0.288332
C	 1.3299544393	-0.9230807448	 1.871504147	-0.107212
C	 2.2423376301	 0.2580175313	 1.6177798652	-0.063738
N	 3.4709499665	 0.3564861207	 0.7891336977	-0.44051
H	-0.4065977041	 1.8753263715	 1.035196601	 0.112571
H	-0.5995549697	 1.9700646629	-0.7173023014	 0.098422
H	 1.725782276	 2.4119569061	-1.0635406735	 0.094379
H	 1.8068558718	 2.7837438549	 0.6660279758	 0.107795
H	 1.3640374473	 0.0319753519	-1.7193376106	 0.09924
H	 1.6888878037	-1.3300238595	-0.6335939653	 0.10062
H	-0.8426513761	-0.4016254962	-0.4926066188	 0.075019
H	 1.1550501826	-1.0941648516	 2.936372985	 0.111385
H	 1.7360301135	-1.8545719988	 1.4517251371	 0.090045
H	 2.203481227	 1.0387127408	 2.3730960709	 0.100541
H	 3.7846517115	-0.5560106219	 0.4636039052	 0.230876
180.8357	280.5939	350.228	380.7227	417.2762	472.7402	495.8528	560.1629	569.5662	709.1965	768.7474	793.7177	837.4858	849.0525	876.6677	895.0718	937.2226	969.2996	982.2357	1014.767	1018.8527	1037.7325	1051.1688	1079.4792	1105.5944	1155.2369	1167.2137	1191.2629	1224.3383	1224.5497	1264.9099	1270.5952	1287.126	1312.4423	1336.7258	1349.3453	1367.2025	1385.6382	1455.6737	1475.3273	1490.8481	1508.1802	1528.2927	2995.2681	3041.2298	3055.1368	3060.4765	3081.8625	3093.9383	3106.82	3118.8128	3121.8882	3140.436	3485.8952
C1CC23CC1OCC2N3	C1C[C@]23C[C@H]1OC[C@H]2N3	
InChI=1S/C7H11NO/c1-2-7-3-5(1)9-4-6(7)8-7/h5-6,8H,1-4H2	InChI=1S/C7H11NO/c1-2-7-3-5(1)9-4-6(7)8-7/h5-6,8H,1-4H2/t5-,6+,7-/m0/s1
