22
gdb 122072	3.25054	0.65918	0.57259	3.3015	83.34	-0.2813	0.0274	0.3088	1976.3239	0.192699	-404.372	-404.36098	-404.360035	-404.409202	38.541	
C	-0.0582472249	 1.5835712301	 0.0550217852	-0.382165
C	-0.0074842749	 0.0541966392	 0.0088154499	-0.167383
C	 0.7090956098	-0.4828645837	-1.2349830774	-0.176767
C	 0.7604387647	-2.0132657207	-1.2801407528	-0.202339
C	 1.4891437023	-2.5821845406	-2.51520155	-0.157902
C	 1.6172109268	-4.1248928967	-2.4597355732	-0.069961
O	 2.3252412171	-4.6576519354	-3.5537206278	-0.416838
C	 0.8139077372	-2.2138847106	-3.7637085275	 0.267539
N	 0.2741537422	-1.9792959977	-4.7594756214	-0.336886
H	 0.9494521419	 2.0135164734	 0.0602375362	 0.11563
H	-0.585162548	 1.9880481623	-0.8160547672	 0.120119
H	-0.5758283583	 1.9377417546	 0.9516775198	 0.114639
H	 0.4943797298	-0.3247019703	 0.9091067659	 0.095732
H	-1.0286279699	-0.3480164947	 0.0386972705	 0.099725
H	 0.2064785362	-0.1082588619	-2.1358110919	 0.120508
H	 1.7323358769	-0.0838993778	-1.2671469777	 0.097205
H	 1.278068572	-2.3925683841	-0.3901943199	 0.106518
H	-0.257518361	-2.4207040672	-1.247660628	 0.114668
H	 2.5050005226	-2.1700883056	-2.5629629885	 0.132836
H	 2.1875710282	-4.3876945275	-1.5637128141	 0.120878
H	 0.6136118775	-4.5654872657	-2.3609285089	 0.1057
H	 1.8034779719	-4.5088941594	-4.3507824214	 0.298545
51.4623	75.4829	87.8214	118.1101	131.418	176.5274	231.0839	250.1468	263.4513	300.0126	380.52	411.0207	460.3867	562.446	627.4243	736.8704	770.9653	818.8605	901.3864	922.2161	987.9689	1014.1053	1045.5825	1064.2876	1072.6087	1090.582	1141.1307	1143.7146	1206.1628	1237.7334	1263.4765	1305.2171	1315.81	1335.1369	1369.4009	1370.5068	1390.6008	1403.1614	1415.061	1422.4189	1482.2094	1486.4685	1498.8158	1500.7017	1504.2864	1512.8404	2347.3586	2992.6844	3010.3118	3016.3774	3026.5973	3031.7586	3038.0871	3041.1879	3055.8024	3076.1207	3088.9048	3098.9626	3105.1776	3798.2564
CCCCC(CO)C#N	CCCC[C@@H](CO)C#N	
InChI=1S/C7H13NO/c1-2-3-4-7(5-8)6-9/h7,9H,2-4,6H2,1H3	InChI=1S/C7H13NO/c1-2-3-4-7(5-8)6-9/h7,9H,2-4,6H2,1H3/t7-/m1/s1
