15
gdb 25665	5.71367	0.78943	0.69715	2.74	87.64	-0.1931	-0.0138	0.1794	1579.3116	0.112377	-416.818044	-416.809109	-416.808165	-416.853902	31.155	
C	-0.1604935582	 1.4013652844	-0.0001228729	-0.512732
C	-0.0477751914	-0.0469225293	 0.0072199259	 0.290655
C	 0.0532249571	-1.2491646529	 0.0119443604	-0.099334
C	 0.1722663076	-2.6489443007	 0.0176452158	 0.181973
N	 1.2285516694	-3.3924308399	 0.1506207175	-0.304063
C	 0.7717122793	-4.6960983843	 0.0937869696	-0.202931
C	-0.5819516315	-4.6793233254	-0.0807824321	 0.346847
N	-1.5535533042	-5.6387491578	-0.2833186438	-0.606182
O	-0.9896099011	-3.390744016	-0.1332837414	-0.197136
H	 0.7520288874	 1.8622090855	-0.3937445711	 0.158415
H	-0.9966060912	 1.7277840201	-0.6282215999	 0.155069
H	-0.3257391058	 1.7968343548	 1.0086368303	 0.153697
H	 1.4336831438	-5.5421834111	 0.1795870229	 0.10999
H	-1.284625007	-6.5549748489	 0.0462303815	 0.262394
H	-2.4627690842	-5.3714190085	 0.0709111473	 0.263338
10.6239	85.3083	97.6271	200.8671	239.1664	294.1519	324.5446	393.5662	473.6562	475.7909	564.0594	636.2642	696.9667	727.3573	740.5962	784.0153	938.6982	1012.1635	1027.9742	1050.087	1051.5828	1093.9726	1139.6026	1279.8478	1303.0694	1411.2738	1429.5107	1471.6812	1475.435	1583.3445	1615.114	1664.444	2357.9546	3025.7284	3084.9993	3092.8407	3266.7022	3552.5954	3654.7242	10.6381	85.3091	97.6274	200.8675	239.1663	294.1517	324.5442	393.5662	473.6551	475.7909	564.0597	636.2644	696.9668	727.3571	740.5962	784.0159	938.6983	1012.1636	1027.9744	1050.0867	1051.5825	1093.9727	1139.6025	1279.8475	1303.0697	1411.2735	1429.5109	1471.6807	1475.4345	1583.3441	1615.114	1664.444	2357.9543	3025.7284	3084.9993	3092.8407	3266.7022	3552.5954	3654.7242
CC#CC1=NC=C(N)O1	CC#Cc1ncc(N)o1	
InChI=1S/C6H6N2O/c1-2-3-6-8-4-5(7)9-6/h4H,7H2,1H3	InChI=1S/C6H6N2O/c1-2-3-6-8-4-5(7)9-6/h4H,7H2,1H3
