16
gdb 73425	2.65202	2.37629	1.61393	1.5608	65.45	-0.2479	0.0589	0.3068	830.618	0.126109	-437.814442	-437.808113	-437.807169	-437.844755	26.355	
O	-0.0952929962	 1.3129397617	 0.0546850737	-0.494105
C	 0.0463013429	-0.0722866172	-0.0000784326	 0.3938
C	 1.0551857623	-0.7022028039	 0.9762473091	-0.139371
O	 1.3420702363	-1.9987947231	 0.4391097173	-0.273289
C	 0.5327422387	-2.1643253103	-0.7160529765	 0.102197
C	-0.9816677072	-2.1763217849	-0.4999703457	-0.074668
C	-1.3012189662	-0.7874957621	-0.0514790589	-0.088108
N	-1.2401956971	-1.0936719106	-1.5152049348	-0.172827
C	 0.2708528119	-0.7951663362	-1.3643164441	-0.127307
H	 0.7686376676	 1.7162683678	-0.0870791047	 0.284115
H	 1.9851860801	-0.1165536519	 1.0296133165	 0.089903
H	 0.6447295701	-0.7881597394	 1.9898136287	 0.111787
H	 0.9378699835	-2.9718894665	-1.3237885536	 0.096007
H	-1.6567567395	-3.0134293426	-0.3696550352	 0.101264
H	-2.2218398932	-0.5094371719	 0.4472241276	 0.105527
H	 0.8426838359	-0.371511599	-2.1867890469	 0.085077
211.5727	265.982	332.8518	344.9379	406.5771	501.4482	607.9525	672.6187	701.0918	773.799	800.553	816.442	856.4948	896.9534	933.4288	952.4827	969.8113	988.1156	1021.991	1035.1986	1066.9978	1099.5125	1127.0318	1140.8073	1152.2477	1204.1256	1208.3597	1233.3059	1244.8012	1290.733	1322.4794	1359.3506	1379.5582	1415.5736	1516.3116	2991.0224	3047.8282	3133.312	3149.2326	3186.6849	3198.0974	3797.8086
OC12COC3C4C1N4C23	O[C@@]12CO[C@H]3[C@H]4[C@@H]1N4[C@@H]23	
InChI=1S/C6H7NO2/c8-6-1-9-3-2-4(6)7(2)5(3)6/h2-5,8H,1H2	InChI=1S/C6H7NO2/c8-6-1-9-3-2-4(6)7(2)5(3)6/h2-5,8H,1H2/t2-,3-,4-,5+,6-,7?/m0/s1
