18
gdb 106755	2.12807	1.69139	1.13429	3.4355	73.7	-0.233	0.0071	0.2401	1128.5189	0.145841	-439.069003	-439.059883	-439.058939	-439.102902	33.394	
C	 0.1538662516	 1.284497643	 0.2083913649	-0.264085
O	-0.1405919583	-0.0870489401	-0.0478601329	-0.281121
C	 0.4657048288	-0.5676185716	-1.1718149596	 0.252419
C	 1.9361751652	-1.0356009028	-1.1977363143	-0.389109
C	 0.8216314634	-2.0001116088	-1.5111739185	 0.265104
C	 0.5106546052	-3.2712788147	-0.7857850421	-0.476664
N	 0.3345939455	-1.7690566774	-2.8867503766	-0.389914
C	 0.0200867524	-0.4168003422	-2.6251181674	 0.364765
O	-0.4131691838	 0.4554453549	-3.32303043	-0.3501
H	 1.2301520467	 1.4331629941	 0.3697468719	 0.113751
H	-0.1753681996	 1.9195096964	-0.6218903598	 0.144384
H	-0.3900171744	 1.5565826388	 1.11475658	 0.131825
H	 2.6216270919	-0.704361174	-1.9726551674	 0.117153
H	 2.367583088	-1.1173640486	-0.2031031544	 0.125594
H	 0.6972443285	-3.1497902298	 0.2849239262	 0.134782
H	-0.538419037	-3.5455027702	-0.9285240016	 0.138696
H	 1.1337784078	-4.0978273588	-1.1447883395	 0.125373
H	 0.8633456081	-2.0420929083	-3.7095157287	 0.237147
75.1217	133.6242	151.5947	174.999	190.0799	255.6977	292.4253	368.939	387.9482	497.2296	533.0512	598.4084	666.3013	688.2861	734.7809	838.2252	867.9736	905.6706	954.3282	986.31	1041.6174	1053.5271	1080.053	1098.784	1150.8176	1181.3784	1218.6011	1242.4349	1308.4601	1348.0772	1398.5263	1426.3954	1474.6358	1478.5513	1486.9158	1495.271	1506.2383	1512.9679	1893.784	3007.2923	3036.8266	3077.2286	3101.3316	3109.5675	3122.7904	3134.6863	3201.9418	3527.1812
COC12CC1(C)NC2=O	CO[C@@]12C[C@]1(C)NC2=O	
InChI=1S/C6H9NO2/c1-5-3-6(5,9-2)4(8)7-5/h3H2,1-2H3,(H,7,8)	InChI=1S/C6H9NO2/c1-5-3-6(5,9-2)4(8)7-5/h3H2,1-2H3,(H,7,8)/t5-,6+/m0/s1
