12
gdb 130476	2.48941	1.82845	1.05417	3.0975	79.19	-0.2455	-0.0995	0.1459	1017.0223	0.077887	-431.677836	-431.670638	-431.669693	-431.709852	25.77	
O	-0.0334163456	 1.9070438143	 0.0152257328	-0.3024
C	 1.1279628552	 2.264397491	 0.0050577233	 0.084976
C	 2.2472771047	 1.3333619705	-0.0120196887	 0.143574
N	 3.5214317698	 1.6841162012	-0.02232421	-0.283696
C	 4.2633561228	 0.5275908935	-0.0371361974	-0.043438
C	 3.4850763964	-0.6106991202	-0.037040103	-0.246245
C	 2.1480802636	-0.1091590125	-0.019889561	 0.341739
N	 1.0307302512	-0.8091020587	-0.0135402512	 0.112888
N	 0.0821240411	-1.4095460857	-0.0037650827	-0.162325
H	 1.4253542734	 3.3312995624	 0.0081278693	 0.104291
H	 5.3436053556	 0.5735103739	-0.0473247348	 0.121956
H	 3.7887552917	-1.6457757896	-0.0471986266	 0.128681
122.754	133.4176	189.16	231.4068	289.6551	468.282	543.1933	545.4609	613.8299	645.1383	673.6069	771.6883	772.4714	885.3845	892.9132	1037.7293	1080.026	1142.6435	1195.4256	1304.3753	1364.8843	1388.9477	1436.9676	1453.0635	1531.1595	1764.6135	2264.1063	2950.8377	3231.8541	3263.6496
O1C=C2N=CC=C2N=N1	O=Cc1nccc1[N][N]	
InChI=1S/C5H3N3O/c1-2-6-5-3-9-8-7-4(1)5/h1-3H	InChI=1S/C5H4N3O/c6-8-4-1-2-7-5(4)3-9/h1-3,7H
