22
gdb 113876	2.10533	0.99839	0.78529	1.6942	90.97	-0.2205	0.0473	0.2678	1590.325	0.191912	-367.158061	-367.147133	-367.146189	-367.196423	38.081	
C	-0.3360705146	-2.8525085025	 1.8208319875	-0.376463
C	-0.5214570322	-1.332886111	 1.726231493	-0.212591
C	-1.4091906492	-0.9518591307	 0.5579434486	 0.038268
C	-2.8859236429	-0.791845346	 0.7044634332	-0.252749
N	-2.0425983124	 0.3578419855	 0.3983744174	-0.104388
C	-1.854158021	 1.4365781244	 1.3815795169	-0.290586
C	-2.3004298576	 1.2211978633	 2.762285674	 0.081445
C	-2.7054638013	 1.0658766645	 3.8871262281	 0.038439
C	-3.1808757817	 0.887315328	 5.2522915172	-0.498755
H	 0.3349613688	-3.1181826972	 2.6433108773	 0.111276
H	-1.2938860652	-3.3554327729	 1.9901453675	 0.118524
H	 0.0920380677	-3.2587568338	 0.8976585004	 0.114912
H	-0.9378823859	-0.9481486473	 2.6607910433	 0.117643
H	 0.4602909349	-0.8559563136	 1.600576487	 0.095795
H	-1.0458967531	-1.3412924214	-0.3948941674	 0.082575
H	-3.5688213457	-1.1000682983	-0.0837462251	 0.106854
H	-3.2863686396	-0.8669586146	 1.7136272367	 0.116095
H	-0.7909289561	 1.7068134147	 1.3741551931	 0.131349
H	-2.3892998792	 2.309682978	 0.9861696371	 0.134979
H	-2.527276373	 1.3971636357	 5.9687293389	 0.150016
H	-4.1917306945	 1.2897319527	 5.3808117848	 0.148829
H	-3.2085125761	-0.1724581176	 5.5288412402	 0.148534
13.3784	51.9086	82.1236	96.4567	151.727	204.9033	221.1944	268.0869	283.2149	364.0238	378.0667	429.6083	485.9628	552.5023	731.696	772.6521	796.6077	821.3606	910.9049	954.5333	994.2659	999.49	1052.5766	1055.3449	1063.9489	1078.8988	1121.6379	1136.2096	1161.1226	1171.4617	1196.3784	1276.5591	1295.4122	1328.9202	1346.4988	1369.1089	1408.7344	1415.4414	1431.6608	1470.0637	1477.5915	1479.7468	1491.202	1498.9403	1506.6849	1510.9464	2357.9597	3015.6876	3018.1604	3027.0281	3031.9018	3047.7351	3077.8532	3087.6521	3088.0553	3089.2267	3093.711	3106.1342	3111.0155	3177.5769
CCC1CN1CC#CC	CC[C@H]1CN1CC#CC	
InChI=1S/C8H13N/c1-3-5-6-9-7-8(9)4-2/h8H,4,6-7H2,1-2H3	InChI=1S/C8H13N/c1-3-5-6-9-7-8(9)4-2/h8H,4,6-7H2,1-2H3/t8-,9?/m0/s1
