23
gdb 88156	2.17562	1.54067	1.15624	1.5747	85.7	-0.2198	0.0833	0.3031	1209.9863	0.205615	-388.292823	-388.283355	-388.282411	-388.327092	36.101	
C	 0.198724676	 1.623676498	 0.3773854427	-0.409159
C	-0.0543422285	 0.139328374	 0.2431785364	-0.067682
C	 0.9766112757	-0.7560510951	-0.4331934862	-0.370196
C	 0.7616959531	-0.856532724	 1.0410345518	 0.455104
O	 1.8050356699	-0.348528161	 1.8478373442	-0.304537
C	 1.5968887674	-0.7475217941	 3.2075114501	-0.079517
C	 0.3028945415	-1.5748109618	 3.2325691218	-0.243307
C	 0.1826963364	-2.0592064833	 1.7749014218	-0.046325
C	-1.2158089927	-2.5117008997	 1.3673552011	-0.420455
H	 1.235565623	 1.8122272304	 0.6664446493	 0.131899
H	 0.0007377473	 2.1474196625	-0.564309692	 0.11071
H	-0.444923859	 2.0668260834	 1.1459562823	 0.108504
H	-1.0905957755	-0.1308138724	 0.0571048071	 0.077306
H	 0.6320976886	-1.5644963303	-1.0709511724	 0.105087
H	 1.9040926441	-0.2918073041	-0.753054973	 0.117352
H	 2.4640452797	-1.3396568356	 3.5280546618	 0.098851
H	 1.5415583096	 0.1418012248	 3.8466129586	 0.099376
H	 0.3382739499	-2.3909132046	 3.9587715694	 0.099932
H	-0.5566123878	-0.9416219707	 3.4804555998	 0.103857
H	 0.8812518099	-2.8955868884	 1.6294962695	 0.079304
H	-1.9592751866	-1.73124305	 1.5580397033	 0.120635
H	-1.2624542125	-2.7722286272	 0.3044502609	 0.118207
H	-1.5123530092	-3.3993554507	 1.9349465818	 0.115054
53.5594	132.9516	153.9177	180.0021	205.9636	240.0671	267.5753	347.5369	410.6162	490.2478	500.3179	542.802	621.7683	717.3241	806.1454	837.4172	864.5953	878.6581	900.4715	928.2309	964.2744	985.2946	1002.6517	1042.6792	1052.0872	1101.6601	1112.7794	1132.195	1137.6234	1161.682	1187.0956	1214.5695	1220.0834	1238.0985	1306.6065	1310.1511	1336.0982	1378.8654	1395.1476	1401.5345	1411.9205	1424.7126	1483.9703	1493.8384	1496.0626	1500.0656	1501.7401	1506.4106	1531.7625	3001.0449	3012.1866	3028.9948	3032.3379	3038.1326	3053.0138	3083.9047	3097.8183	3100.6967	3106.2151	3117.6253	3120.5603	3141.5453	3208.7174
CC1CC11OCCC1C	C[C@H]1C[C@]21OCC[C@H]2C	
InChI=1S/C8H14O/c1-6-3-4-9-8(6)5-7(8)2/h6-7H,3-5H2,1-2H3	InChI=1S/C8H14O/c1-6-3-4-9-8(6)5-7(8)2/h6-7H,3-5H2,1-2H3/t6-,7+,8+/m1/s1
