18
gdb 119451	4.24623	0.86865	0.79127	1.6492	74.65	-0.261	0.0184	0.2794	1442.5919	0.146827	-439.052293	-439.043515	-439.042571	-439.086472	32.479	
O	 0.0797254928	 1.3891252488	-0.0759812564	-0.415435
C	 0.0226474724	-0.0235796991	-0.1605676682	-0.062017
C	-1.3849845383	-0.565779004	 0.1329159903	-0.327948
C	-1.4620132392	-2.0516168845	 0.0162234853	 0.471281
C	-1.6354255828	-2.9047195584	-1.1902898403	-0.330121
C	-2.5958750885	-3.0571643681	-0.0017663224	-0.277353
C	-1.8467356577	-3.7135045247	 1.1072768785	 0.449313
N	-2.0720562607	-4.6570687048	 1.8995866025	-0.556369
O	-0.758347112	-2.8408529897	 1.0306485154	-0.310535
H	-0.0284121789	 1.6362606488	 0.8478936247	 0.284757
H	 0.3079611703	-0.2758515636	-1.1870345979	 0.118443
H	 0.7518903497	-0.5030816426	 0.5083319155	 0.111481
H	-1.6881255105	-0.2691732281	 1.1453873374	 0.107331
H	-2.0945698414	-0.1113774566	-0.5668747692	 0.120233
H	-2.0827915378	-2.422072703	-2.0542612173	 0.129264
H	-0.9171554747	-3.6867110019	-1.414666546	 0.1333
H	-3.6659613767	-2.9370475782	-0.083900397	 0.1248
H	-1.3021906358	-4.7750944505	 2.560362725	 0.229575
61.6826	91.4928	108.4845	182.7094	297.2769	328.472	346.8633	362.3431	445.2963	475.3019	636.3561	710.6091	755.3975	781.9657	844.9089	869.6052	896.9314	934.1393	970.5453	988.1519	992.811	1013.2643	1037.0183	1071.712	1080.9082	1093.1406	1131.9038	1198.6471	1222.2221	1273.8838	1311.2478	1332.9632	1395.4356	1411.3623	1421.4518	1470.5669	1494.4992	1511.8399	1833.0763	3004.3792	3026.0165	3071.6948	3091.4814	3124.391	3216.0622	3232.3315	3478.9947	3817.9753
OCCC12CC1C(=N)O2	OCC[C@]12C[C@H]1[C]([NH])O2	
InChI=1S/C6H9NO2/c7-5-4-3-6(4,9-5)1-2-8/h4,7-8H,1-3H2	InChI=1S/C6H9NO2/c7-5-4-3-6(4,9-5)1-2-8/h4,7-8H,1-3H2/t4-,6-/m0/s1
