18
gdb 121520	3.46933	0.60165	0.5379	5.5499	79.53	-0.2452	-0.0376	0.2076	2026.523	0.145858	-439.075034	-439.064734	-439.06379	-439.113008	35.123	
C	-0.2915695522	 1.5094477605	-0.1652566775	-0.387541
C	-0.5577370743	 0.0669643761	 0.2511808774	-0.109175
N	-0.7227815366	-0.7909488008	-0.9216428296	-0.279657
H	-5.1486397759	-1.2304825429	 0.3016062147	 0.310809
H	 0.1014143236	-0.7187146033	-1.5098887187	 0.22162
C	-0.9312105062	-2.1997907524	-0.5947986989	-0.332007
C	-2.2730741543	-2.4586474552	-0.075583672	 0.14534
C	-3.3720532559	-2.6949308463	 0.3615236043	-0.087974
C	-4.6910594469	-2.9885210829	 0.8825814119	 0.34256
O	-5.0081602684	-4.0254509114	 1.3953212519	-0.295121
O	-5.5787641539	-1.9718493857	 0.7473037328	-0.358583
H	-0.2003308538	 2.1546697105	 0.7130896229	 0.121543
H	 0.6421064907	 1.5906043306	-0.7340865837	 0.114199
H	-1.1029854463	 1.8864554354	-0.7940828141	 0.12974
H	 0.2503505925	-0.2872652326	 0.9186622222	 0.082161
H	-1.4842891677	 0.0122057645	 0.8353021631	 0.112912
H	-0.8009869595	-2.7910289683	-1.5095364545	 0.144861
H	-0.2015145549	-2.5946982556	 0.1382583479	 0.124312
17.623	47.0498	78.0417	103.4186	154.7189	215.4087	256.9769	266.6043	376.6288	385.5716	466.5906	514.0902	586.0675	619.0431	729.0647	766.202	783.9901	822.3136	895.4791	992.0528	1010.7959	1053.7646	1124.8426	1154.0823	1168.3021	1197.4789	1274.211	1290.3781	1318.9701	1378.324	1386.807	1415.3131	1465.7492	1483.4395	1497.9302	1504.1543	1524.8664	1848.6198	2342.7847	2918.818	2926.0591	3034.2893	3048.8213	3049.5411	3102.0522	3122.6232	3517.1862	3787.3345
CC[NH2+]CC#CC([O-])=O	CCNCC#CC(=O)O	
InChI=1S/C6H9NO2/c1-2-7-5-3-4-6(8)9/h7H,2,5H2,1H3,(H,8,9)	InChI=1S/C6H9NO2/c1-2-7-5-3-4-6(8)9/h7H,2,5H2,1H3,(H,8,9)
