18
gdb 119334	4.97571	0.95044	0.92022	1.0491	74.24	-0.2115	0.0658	0.2773	1295.2009	0.146959	-401.812418	-401.804419	-401.803475	-401.845556	30.259	
O	-0.1368058988	 1.469603846	 0.0641774896	-0.41849
C	 0.002006977	 0.060602844	 0.1527014123	-0.067303
C	-1.3663049361	-0.5555951179	-0.1338157003	-0.344314
C	-1.355943499	-2.0478964771	-0.0969250854	 0.361735
C	-2.5150088658	-3.0352731372	 0.1189236782	-0.190437
C	-1.7572940721	-4.0851370055	-0.7293226708	-0.046849
C	-0.6323333563	-3.1391637491	-0.9423964736	-0.124103
N	-0.5933247517	-4.0888687646	 0.2269381299	-0.178228
C	-1.3284034743	-3.0318690708	 1.0507347819	-0.068814
H	 0.7195965117	 1.8691164789	 0.2413747267	 0.286919
H	 0.7386587028	-0.3159083668	-0.5753875007	 0.08934
H	 0.3436348448	-0.2506618973	 1.1521938154	 0.091871
H	-2.0821342846	-0.1761958593	 0.6059201873	 0.112213
H	-1.7115573797	-0.1973513905	-1.1120891712	 0.113478
H	-3.5604709965	-2.8241706652	 0.2941189729	 0.096268
H	-2.0663437193	-4.9728451548	-1.2683280715	 0.096355
H	 0.1550512451	-3.109149605	-1.6871289911	 0.092692
H	-1.2386724172	-2.9111724479	 2.1234998202	 0.097667
82.33	95.9469	112.6526	258.1892	285.6894	339.1325	348.0446	644.6312	685.9086	754.064	775.1207	786.8364	790.3958	849.4946	865.5613	882.6432	889.4011	931.4018	973.6383	982.8127	1003.2566	1011.3128	1019.6757	1072.3995	1085.967	1132.0502	1149.6173	1192.2448	1219.6972	1235.9485	1248.4707	1284.9995	1311.9201	1321.8764	1335.3484	1438.8107	1461.6241	1480.6147	1528.0918	2967.8916	2996.5648	3024.358	3065.9602	3168.4163	3182.4238	3184.7364	3217.868	3831.2925
OCCC12C3C4C1N4C23	OCC[C@@]12[C@H]3[C@H]4[C@@H]1N4[C@@H]23	
InChI=1S/C7H9NO/c9-2-1-7-3-4-6(7)8(4)5(3)7/h3-6,9H,1-2H2	InChI=1S/C7H9NO/c9-2-1-7-3-4-6(7)8(4)5(3)7/h3-6,9H,1-2H2/t3-,4-,5+,6-,7-,8?/m0/s1
