16
gdb 5408	4.93015	1.49107	1.16123	1.5825	74.11	-0.2346	0.0039	0.2384	997.6939	0.13266	-346.665202	-346.65804	-346.657095	-346.697234	26.809	
O	 0.1882915883	 1.0471441276	 0.8944297055	-0.413728
C	-0.0420937708	 0.1551167123	-0.1834025699	-0.170537
C	-1.4395976078	-0.4123879586	-0.0901552298	 0.29531
C	-2.1301060699	-0.4327087663	 1.1222012774	-0.177538
C	-3.4034878628	-0.9929539789	 1.1968412424	-0.095426
C	-3.9980734428	-1.5434531722	 0.0645833768	-0.119085
C	-3.3131935073	-1.5252643193	-1.1489671572	-0.09302
C	-2.044571549	-0.9588713473	-1.2244261958	-0.187235
H	 1.1237614905	 1.2672589625	 0.9043440889	 0.290266
H	 0.080496087	 0.6615663232	-1.1543374716	 0.096171
H	 0.6862228401	-0.6733739698	-0.1652723814	 0.102484
H	-1.6648639356	 0.001870979	 1.9982191954	 0.11138
H	-3.932447514	-0.9982039212	 2.1446195824	 0.093015
H	-4.9899537687	-1.9790993611	 0.1247198671	 0.092405
H	-3.7703182915	-1.9450551845	-2.0392179846	 0.092323
H	-1.5193256958	-0.9379813755	-2.1757157355	 0.083217
39.461	181.0688	232.5395	252.8969	412.3043	416.5845	474.9061	587.0431	629.8406	715.5019	754.8195	800.2375	870.7857	916.7077	958.3829	989.5656	1014.1294	1037.9116	1050.2818	1074.1812	1112.4561	1181.2497	1192.5735	1205.7564	1243.7437	1257.6444	1342.8538	1347.7998	1452.1587	1484.4535	1510.555	1529.8527	1626.8287	1647.8965	2953.2852	2979.7003	3155.9235	3169.1809	3180.0498	3193.8753	3214.0372	3839.9003
OCC1=CC=CC=C1	OCc1ccccc1	
InChI=1S/C7H8O/c8-6-7-4-2-1-3-5-7/h1-5,8H,6H2	InChI=1S/C7H8O/c8-6-7-4-2-1-3-5-7/h1-5,8H,6H2
