19
gdb 68084	2.58816	1.61836	1.36251	2.3182	81.05	-0.2365	0.0053	0.2418	1049.8569	0.157665	-385.89352	-385.884786	-385.883842	-385.926397	33.498	
C	-0.0007144153	 1.5917986499	-0.0016283729	-0.509432
C	 0.0204664179	 0.0839757376	-0.0182213659	 0.169862
C	 0.7055803446	-0.7725147647	-1.1362451436	-0.289041
C	-0.1650190718	-1.9559873907	-0.5936738693	 0.169862
C	-0.4387136556	-3.2253676293	-1.3604979159	-0.509432
C	 0.3062487772	-1.9990953822	 0.8543539165	-0.132694
C	 0.4234935535	-0.7096370924	 1.2180964919	-0.132695
C	-1.242097946	-0.8099910048	-0.3755989048	 0.372976
O	-2.4121176435	-0.6649844862	-0.512506933	-0.314164
H	 1.0071960853	 2.0012756371	 0.1253824563	 0.122775
H	-0.4126850261	 1.9905795794	-0.9335923877	 0.125921
H	-0.6200491823	 1.9650655532	 0.8204651	 0.130184
H	 0.4319610661	-0.4613873766	-2.1509868517	 0.101845
H	 1.7866888048	-0.9006296633	-1.0305559038	 0.10149
H	 0.479436653	-3.8030793409	-1.5119433654	 0.122775
H	-1.149810282	-3.8611703731	-0.8230615664	 0.130184
H	-0.8671211412	-3.0075449696	-2.3435153457	 0.125921
H	 0.3797032105	-2.8922435547	 1.4601158548	 0.106832
H	 0.6165721207	-0.2871712689	 2.1949793866	 0.106832
126.1185	150.9235	155.3524	206.8139	210.4411	252.7739	340.2757	428.9571	449.6485	580.3858	592.8348	616.3149	657.3728	697.7258	789.9147	807.9857	841.8821	849.3606	897.0698	917.3684	931.8823	1005.0368	1045.6746	1073.2179	1101.5758	1137.8812	1168.1286	1193.2278	1193.7485	1242.1119	1339.7706	1365.9901	1413.6786	1417.8432	1477.0896	1490.067	1490.9673	1491.4902	1492.1462	1593.0439	1902.5233	3032.7048	3033.7651	3036.7916	3098.984	3099.1613	3106.3365	3106.578	3111.1827	3209.92	3235.0356
CC12CC(C)(C=C1)C2=O	C[C@@]12C[C@@](C)(C=C1)C2=O	
InChI=1S/C8H10O/c1-7-3-4-8(2,5-7)6(7)9/h3-4H,5H2,1-2H3	InChI=1S/C8H10O/c1-7-3-4-8(2,5-7)6(7)9/h3-4H,5H2,1-2H3/t7-,8+
