15
gdb 46164	4.89266	1.01361	0.86648	2.1511	66.55	-0.2736	0.0095	0.2831	1235.6944	0.114827	-454.003045	-453.995091	-453.994147	-454.036179	28.551	
O	 0.0291051396	-0.0525812609	 0.1104106504	-0.379044
C	-0.0147219512	 1.1460549565	 0.0260393306	 0.46455
N	-1.1843131846	 1.8613696901	 0.0018802247	-0.375705
C	-1.3552472782	 3.3011278943	-0.0419134166	-0.153985
C	-0.0332755086	 3.9607200934	 0.3812238674	-0.188507
C	 1.1017423197	 3.2481511546	-0.3724949171	-0.07521
O	 1.1409776897	 1.8724189494	-0.0147490226	-0.238375
C	-0.0402386657	 5.3941698165	 0.1080311884	 0.270228
N	-0.0406676512	 6.5262823857	-0.1221694052	-0.30427
H	-2.0040091688	 1.2766898748	 0.0275053562	 0.268369
H	-1.6228360405	 3.645798934	-1.0501419283	 0.135103
H	-2.1634765494	 3.5991576311	 0.6330829363	 0.140135
H	 0.1254194178	 3.8078314292	 1.4550710022	 0.152462
H	 0.9607794363	 3.3595668992	-1.4551919487	 0.13488
H	 2.0771792551	 3.6579206522	-0.1059354775	 0.14937
75.4221	108.4135	144.1221	179.8623	313.8382	396.7775	440.6082	502.7715	510.2428	534.3145	601.5181	710.7758	756.9763	820.152	917.5955	941.3933	1024.2036	1056.0379	1102.7851	1135.2343	1150.9766	1236.404	1268.9439	1291.6285	1311.1288	1341.8916	1403.6949	1430.3304	1480.5556	1512.242	1530.047	1858.7766	2365.1924	3010.4639	3031.0444	3055.2821	3077.1477	3123.711	3650.6351
O=C1NCC(CO1)C#N	O=C1NC[C@@H](CO1)C#N	
InChI=1S/C5H6N2O2/c6-1-4-2-7-5(8)9-3-4/h4H,2-3H2,(H,7,8)	InChI=1S/C5H6N2O2/c6-1-4-2-7-5(8)9-3-4/h4H,2-3H2,(H,7,8)/t4-/m0/s1
