15
gdb 84982	2.96588	1.22502	0.90299	3.8406	78.6	-0.2466	-0.0626	0.184	1227.4551	0.110932	-420.624369	-420.615878	-420.614934	-420.657831	31.365	
O	-0.0136183755	 1.4535157431	 0.122286744	-0.424503
C	 0.0034283616	 0.0353898763	 0.0032660643	 0.07495
C	-1.4358078734	-0.4863622333	-0.0909742279	-0.336176
C	-1.4645581359	-1.4148329739	-1.3077485894	 0.300418
O	-2.367274294	-2.1375757627	-1.6393940511	-0.304125
C	-0.141032136	-1.2513019387	-2.0098967869	 0.059738
C	 0.6475262333	-0.4414377688	-1.2807476367	-0.201716
C	 0.1535353152	-1.8838597824	-3.2388830973	 0.24654
C	 0.3718323464	-2.438038724	-4.2848944461	-0.40097
H	 0.8914650371	 1.7597913084	 0.2425626978	 0.286908
H	 0.5258447045	-0.4084603987	 0.8655705173	 0.089386
H	-1.7884692207	-1.0074035241	 0.8012201736	 0.135238
H	-2.1077986632	 0.3582391038	-0.272711343	 0.157613
H	 1.6550678401	-0.1477048424	-1.556431114	 0.116514
H	 0.5631723804	-2.9267300028	-5.2082135247	 0.200184
70.6164	109.0148	133.9955	247.695	268.5081	341.9016	405.8461	420.8352	492.3108	526.8542	598.312	621.8366	636.1226	649.158	706.5897	759.9444	885.3352	913.5701	968.1809	1027.0622	1053.2434	1071.868	1166.6247	1201.0403	1250.9936	1268.7786	1303.7517	1331.344	1413.1452	1448.6127	1659.772	1834.054	2232.1842	2971.3542	3071.5082	3124.7495	3192.1007	3501.8688	3812.7021
OC1CC(=O)C(=C1)C#C	O[C@H]1CC(=O)C(=C1)C#C	
InChI=1S/C7H6O2/c1-2-5-3-6(8)4-7(5)9/h1,3,6,8H,4H2	InChI=1S/C7H6O2/c1-2-5-3-6(8)4-7(5)9/h1,3,6,8H,4H2/t6-/m1/s1
