16
gdb 48467	1.99287	1.69077	1.20338	3.4766	74.79	-0.269	-0.0487	0.2203	1075.2194	0.123945	-400.77847	-400.770052	-400.769108	-400.81228	30.148	
O	-0.1398687489	 0.0680784754	 0.228384903	-0.23119
C	-0.0350952193	 1.2434570997	 0.0153665192	 0.125933
C	 1.3156898197	 1.9812388377	-0.0104681709	 0.009097
C	 1.4899167649	 2.8124923812	 1.3174590402	-0.270155
C	 2.9791708941	 2.6442963571	 1.7047905085	-0.259191
C	 3.4022905502	 1.4159705657	 0.9403487572	-0.065372
C	 2.5168138925	 1.0503814078	 0.0192704045	-0.084537
C	 1.3318833167	 2.8523796876	-1.1931189057	 0.242735
N	 1.3218634375	 3.5303068446	-2.1300037969	-0.330622
H	-0.9178163093	 1.8969016999	-0.1516693719	 0.105752
H	 1.1829764231	 3.8515076927	 1.1932567184	 0.132558
H	 0.8554096973	 2.3630727613	 2.0870814974	 0.131474
H	 3.577784919	 3.5138563722	 1.4037753842	 0.130442
H	 3.1068703265	 2.5373533609	 2.7868961431	 0.121394
H	 4.3464349441	 0.9142856474	 1.1194802035	 0.114641
H	 2.5993879717	 0.2216756889	-0.6707033639	 0.127039
66.2283	71.3348	164.667	168.4346	221.094	287.9791	392.8464	473.55	532.4699	563.4141	678.4748	687.7821	775.707	798.2308	846.0118	920.3227	942.9132	961.5258	980.9716	1018.4673	1070.7311	1101.8183	1148.4359	1153.217	1205.961	1249.979	1317.5165	1322.6175	1368.6786	1419.3671	1480.3278	1495.9418	1691.2721	1838.7827	2344.8576	2909.6072	3028.3932	3060.4418	3076.0564	3130.9558	3200.4195	3237.556
O=CC1(CCC=C1)C#N	O=C[C@]1(CCC=C1)C#N	
InChI=1S/C7H7NO/c8-5-7(6-9)3-1-2-4-7/h1,3,6H,2,4H2	InChI=1S/C7H7NO/c8-5-7(6-9)3-1-2-4-7/h1,3,6H,2,4H2/t7-/m1/s1
