21
gdb 113355	2.17673	1.09672	0.83196	2.9281	80.56	-0.2472	-0.0219	0.2253	1460.0077	0.180148	-424.225925	-424.215529	-424.214584	-424.261758	37.195	
C	-0.2077855011	 1.51020722	 0.360119586	-0.375644
C	 0.2542557194	 0.0964774636	-0.0171803175	-0.212679
C	 0.7937013119	-0.6533841863	 1.1844356231	-0.01456
C	-0.0770063539	-1.4808594031	 2.0670018332	-0.326015
C	 0.9836531071	-2.1751137823	 1.209514539	 0.172677
C	 0.5596112178	-3.0726101189	 0.0672148782	-0.158394
O	 0.2621690867	-4.3886812455	 0.5156329047	-0.416765
C	 2.1977076317	-2.6366652308	 1.9441295428	 0.101695
O	 2.6297225376	-2.1149333323	 2.945863408	-0.277487
H	 0.6172116597	 2.0944496241	 0.7811053421	 0.122064
H	-0.5859016047	 2.0465957691	-0.5152929009	 0.115123
H	-1.0060494147	 1.4766227966	 1.1085710226	 0.121783
H	-0.5833734672	-0.4496135354	-0.4642878012	 0.099555
H	 1.0304664816	 0.1603473346	-0.7901265894	 0.105402
H	 1.5971755997	-0.1396253258	 1.707713677	 0.111175
H	 0.1060301486	-1.4668484126	 3.1355768912	 0.138952
H	-1.1118488359	-1.6269066474	 1.7686459879	 0.110805
H	-0.2867699436	-2.6352967197	-0.4793670557	 0.092956
H	 1.3794655368	-3.1933099251	-0.6504231024	 0.116569
H	-0.419089813	-4.3161436303	 1.1929809231	 0.284046
H	 2.7046016255	-3.5161798625	 1.4928166481	 0.088742
71.0731	86.8102	106.2869	133.2017	171.6814	203.3578	253.2647	281.1987	299.1116	331.4505	371.9079	436.381	568.7012	637.2412	733.5838	780.2056	805.2742	876.268	929.5123	951.8884	964.3617	988.9227	1040.6236	1050.6293	1071.7391	1081.5136	1116.371	1134.6944	1193.23	1210.468	1279.3992	1302.0638	1310.757	1348.473	1374.291	1408.8999	1422.5721	1427.9409	1433.2144	1474.1854	1487.6113	1497.8097	1505.3924	1509.5024	1803.5056	2905.8396	3009.9	3028.8797	3035.7014	3061.1956	3069.3232	3106.3871	3109.7123	3119.8514	3139.4981	3218.2457	3804.7185
CCC1CC1(CO)C=O	CC[C@H]1C[C@]1(CO)C=O	
InChI=1S/C7H12O2/c1-2-6-3-7(6,4-8)5-9/h4,6,9H,2-3,5H2,1H3	InChI=1S/C7H12O2/c1-2-6-3-7(6,4-8)5-9/h4,6,9H,2-3,5H2,1H3/t6-,7+/m0/s1
