16
gdb 48806	2.25753	1.52713	1.12949	2.6208	76.19	-0.252	-0.0396	0.2124	1103.5433	0.122659	-400.674346	-400.666064	-400.66512	-400.707444	30.838	
O	-0.1368955101	 0.0141755483	 0.0255388708	-0.256899
C	-0.0180435391	 1.2035677819	-0.1391296819	 0.076508
C	 1.2455824673	 1.9368827387	 0.0631835595	 0.244752
C	 1.3148452933	 3.393852404	 0.3410062567	-0.280225
N	 1.7318121189	 2.957504271	-0.9868235081	-0.160976
C	 3.1129151683	 2.3771269702	-0.8216549661	-0.169751
C	 2.6269974796	 1.2782361061	 0.1799096548	-0.261104
C	 3.2458366351	 1.2016891687	 1.488499062	 0.316868
C	 3.7731350715	 1.1699301677	 2.5686347685	-0.454987
H	-0.8640669433	 1.8413330341	-0.4793842674	 0.083385
H	 0.3804448898	 3.9473755046	 0.3351650183	 0.135041
H	 2.055900359	 3.74292539	 1.0571458929	 0.137794
H	 3.4653585542	 1.9739256798	-1.7711829025	 0.128819
H	 3.8380326363	 3.0943880355	-0.4286737916	 0.12365
H	 2.6092803629	 0.2931906878	-0.2925423051	 0.134673
H	 4.2329322264	 1.1247160014	 3.5249105689	 0.202453
83.5711	129.5344	134.632	214.1215	251.7551	338.9565	450.3931	467.1286	508.1082	549.4252	628.4666	642.5798	694.7644	742.9028	773.8769	834.1785	885.1932	974.1676	993.622	1029.7228	1057.4298	1080.8762	1112.5076	1134.3725	1187.3402	1206.5401	1266.5974	1311.1139	1315.19	1381.5851	1429.3394	1487.8388	1505.2753	1809.5345	2236.0428	2888.5566	3069.7187	3085.9957	3106.135	3139.3903	3200.3289	3502.4091
O=CC12CN1CC2C#C	O=C[C@]12CN1C[C@H]2C#C	
InChI=1S/C7H7NO/c1-2-6-3-8-4-7(6,8)5-9/h1,5-6H,3-4H2	InChI=1S/C7H7NO/c1-2-6-3-8-4-7(6,8)5-9/h1,5-6H,3-4H2/t6-,7+,8?/m1/s1
