18
gdb 71431	4.36167	1.20337	1.10158	2.6098	76.28	-0.2444	-0.0266	0.2178	1133.5536	0.146754	-401.891925	-401.883941	-401.882996	-401.924694	30.293	
C	-0.1791304196	 1.4873782765	 0.3534352604	-0.497014
C	-0.1075951168	 0.0105253916	 0.1313472891	 0.348739
C	-1.1503512966	-0.9046469724	-0.5179253691	-0.302246
C	-0.2689764468	-2.0840657551	-0.0275075721	-0.077759
C	 0.3744000766	-1.0843759223	 1.0081834554	-0.098753
N	 1.2691610165	-0.5897975467	-0.0879876913	-0.203139
C	 1.0117209324	-1.8705055963	-0.840765216	-0.030793
C	 2.1577938972	-2.813355512	-0.553933375	 0.146807
O	 2.0571522704	-3.8361255047	 0.0743712939	-0.242554
H	 0.6754105026	 1.8300340204	 0.9427822009	 0.136407
H	-0.1691099455	 2.0270184688	-0.6000924376	 0.126369
H	-1.0986561544	 1.7557585372	 0.8844762221	 0.121373
H	-2.0964566416	-0.8472617703	 0.0271065271	 0.109072
H	-1.3386646676	-0.8207311896	-1.5947324311	 0.094162
H	-0.6737554676	-3.073330392	 0.166070435	 0.093814
H	 0.6631117466	-1.1406839737	 2.0493421257	 0.103622
H	 0.9218753572	-1.7396467331	-1.9303055334	 0.083833
H	 3.135008457	-2.4759548464	-0.965271414	 0.088061
59.2761	156.6943	193.6718	213.9788	256.7936	325.9024	402.1791	461.2255	611.8415	680.8007	716.4102	777.199	809.8158	818.1448	881.7659	924.2775	931.2511	959.3751	990.4508	1009.7862	1024.3504	1036.9865	1063.2898	1093.5692	1140.1286	1157.6258	1168.4546	1225.3958	1236.9699	1252.3526	1282.3459	1366.4028	1394.7939	1417.8857	1434.8612	1485.0013	1491.0971	1502.8265	1828.4438	2891.13	2992.7184	3032.1631	3035.5815	3094.3208	3100.6542	3119.4103	3161.4192	3206.6765
CC12CC3C1N2C3C=O	C[C@]12C[C@@H]3[C@H]1N2[C@H]3C=O	
InChI=1S/C7H9NO/c1-7-2-4-5(3-9)8(7)6(4)7/h3-6H,2H2,1H3	InChI=1S/C7H9NO/c1-7-2-4-5(3-9)8(7)6(4)7/h3-6H,2H2,1H3/t4-,5-,6+,7-,8?/m0/s1
