23
gdb 114104	3.03869	1.17618	1.00217	1.0377	86.22	-0.241	0.0805	0.3215	1313.5204	0.205209	-388.262272	-388.252902	-388.251958	-388.296344	35.811	
C	 0.1875159298	 1.1911174605	 0.3492945727	-0.237105
O	-0.236188149	-0.0755395999	-0.0986561801	-0.240978
C	 0.4531757624	-0.5229007952	-1.2368479543	 0.16852
C	 1.9239210959	-1.0254248944	-1.0818230641	-0.335557
C	 1.5433825388	-2.3338093907	-1.8481252795	 0.385861
C	 2.2676036273	-2.5982870699	-3.1495176501	-0.49518
C	 1.2618607464	-3.5226312299	-0.8948994952	-0.273529
C	-0.173670769	-2.9763667446	-0.6371382433	-0.226884
C	 0.0229496472	-1.9052653456	-1.7472810984	-0.12056
H	 1.2476090915	 1.1921097189	 0.6449567037	 0.107373
H	 0.047163702	 1.9630458341	-0.4243228845	 0.101946
H	-0.419653523	 1.4504951074	 1.2201078313	 0.124933
H	 0.3848944498	 0.2327623159	-2.0360050202	 0.059555
H	 2.6866285788	-0.4066168883	-1.5615592882	 0.094214
H	 2.2136212769	-1.1967275746	-0.0407188151	 0.098817
H	 3.3162756595	-2.8654907855	-2.9669927011	 0.11471
H	 1.8068462278	-3.4254707293	-3.7013490033	 0.111623
H	 2.2621625893	-1.7172599677	-3.8018652217	 0.110442
H	 1.2512739599	-4.4802394568	-1.425356732	 0.092098
H	 1.92521708	-3.6195852966	-0.0293390539	 0.089606
H	-0.9744912654	-3.6908968976	-0.8369623021	 0.097076
H	-0.3380288049	-2.545398246	 0.3520456169	 0.116882
H	-0.6726233618	-1.9384816043	-2.5876132274	 0.056139
70.2605	106.2486	171.1086	190.8536	231.7242	237.5378	296.6091	350.8482	367.1917	436.065	498.5393	605.3495	632.6064	750.5726	783.8774	844.2443	867.2264	892.2926	938.3021	944.0643	953.9648	999.1387	1040.6139	1045.4966	1079.0742	1130.7134	1146.7684	1155.2031	1172.9578	1185.5524	1208.4203	1236.9683	1238.3389	1246.6271	1251.3359	1274.4455	1302.2811	1324.2633	1337.7995	1388.6766	1412.4255	1471.7379	1479.7473	1482.9194	1487.9078	1491.7575	1494.0052	1500.3942	1509.5388	2962.8122	2973.5086	3014.1489	3019.2638	3036.9384	3049.2269	3073.9128	3076.2826	3082.3327	3086.9616	3090.2189	3105.1781	3111.9106	3129.0377
COC1CC2(C)CCC12	CO[C@H]1C[C@@]2(C)CC[C@@H]12	
InChI=1S/C8H14O/c1-8-4-3-6(8)7(5-8)9-2/h6-7H,3-5H2,1-2H3	InChI=1S/C8H14O/c1-8-4-3-6(8)7(5-8)9-2/h6-7H,3-5H2,1-2H3/t6-,7-,8+/m0/s1
