15
gdb 27976	3.66545	1.22036	0.9208	6.7214	71.58	-0.2145	-0.0221	0.1924	1204.6747	0.112478	-454.026676	-454.018299	-454.017355	-454.059756	30.212	
C	 0.0031197799	 1.51757379	-0.0126274642	-0.49625
C	-0.0480024004	 0.0312648984	 0.0037061269	 0.326297
C	-1.0845763027	-0.8155630921	-0.1153370479	-0.205494
N	-0.5967157195	-2.1356126847	-0.0327431871	-0.150997
C	-1.3988489553	-3.2707088535	-0.1179655392	 0.174137
O	-1.0230046562	-4.4073815758	-0.0527988068	-0.266407
C	 0.8207009782	-2.1080232358	 0.1469546544	 0.493986
O	 1.587084849	-3.0291998477	 0.2582754933	-0.381046
N	 1.1004363966	-0.75015195	 0.1617724092	-0.430784
H	 0.6335615854	 1.8888311774	-0.8293529325	 0.142424
H	-0.9998549758	 1.9282419213	-0.1461712642	 0.145656
H	 0.4112036629	 1.915931381	 0.9238960283	 0.142442
H	-2.1336083557	-0.6148036954	-0.2513565139	 0.149118
H	-2.4595204588	-2.9798088683	-0.2576294109	 0.086428
H	 2.0414166725	-0.4143446349	 0.2750539343	 0.270489
92.1754	162.2804	173.2192	195.5043	222.4386	284.965	309.2924	437.5737	467.9646	520.0165	618.9875	619.3174	698.9918	767.4006	797.3116	813.2117	995.5885	1018.4928	1027.0653	1067.6815	1174.5293	1180.6658	1234.1428	1292.6779	1390.1558	1416.353	1429.1682	1451.4843	1475.4046	1496.701	1712.7034	1810.1613	1892.4752	2930.7814	3026.9318	3076.0476	3130.3467	3280.4701	3681.613
CC1=CN(C=O)C(=O)N1	Cc1cn(C=O)c(=O)[nH]1	
InChI=1S/C5H6N2O2/c1-4-2-7(3-8)5(9)6-4/h2-3H,1H3,(H,6,9)	InChI=1S/C5H6N2O2/c1-4-2-7(3-8)5(9)6-4/h2-3H,1H3,(H,6,9)
