20
gdb 82575	3.31649	1.32529	1.1585	1.4129	78.4	-0.2364	0.0695	0.3059	1121.7224	0.171075	-403.069388	-403.061183	-403.060239	-403.10236	31.426	
C	-0.1383532134	 1.4939848309	-0.0881576915	-0.317701
N	 0.0611455732	 0.0635317781	 0.0871054608	-0.073589
C	 1.3196797727	-0.5977902312	-0.1630203856	-0.038901
C	 2.5400331733	 0.2330015797	 0.2827167731	-0.343035
C	 1.9428759959	 0.2975066524	 1.7184609034	 0.286886
C	 2.7623470949	-0.2411874647	 2.9091570053	-0.131725
O	 2.5890800408	 0.9829811969	 3.6479619914	-0.275762
C	 1.8242750725	 1.5730397028	 2.5783277259	-0.136834
C	 0.7311619076	-0.5154078804	 1.2284175091	-0.130274
H	 0.7199909451	 2.1258014002	 0.1802831425	 0.109387
H	-0.3801541418	 1.6856371875	-1.1382965143	 0.124814
H	-0.9942009566	 1.8061372813	 0.518085825	 0.126148
H	 1.3396724138	-1.4282625981	-0.8604714144	 0.095467
H	 3.4684018753	-0.3436795261	 0.2574496884	 0.10929
H	 2.7066311096	 1.1819537532	-0.2368576137	 0.102977
H	 2.3259133078	-1.1027332608	 3.4330673037	 0.100662
H	 3.8193401833	-0.4523174644	 2.6981380498	 0.097728
H	 2.3144464221	 2.4656941075	 2.1655295694	 0.098796
H	 0.8097746359	 1.8411679227	 2.8998241665	 0.102908
H	 0.2049029079	-1.2607531475	 1.8179429451	 0.092756
72.0396	118.0824	185.7882	205.5664	285.686	344.7048	357.4896	448.3783	476.2071	609.86	725.8303	825.5744	836.6836	850.157	862.8432	907.8112	939.1298	960.7468	987.0162	1006.363	1033.8461	1041.7958	1056.5174	1110.2125	1150.0468	1154.6283	1164.0762	1182.7979	1192.7179	1202.2927	1212.682	1236.4076	1273.0947	1298.7931	1310.7578	1379.3241	1386.3226	1454.0858	1477.3214	1499.4906	1503.0574	1505.8486	1531.7233	2990.9948	3002.016	3003.9677	3037.34	3043.199	3049.23	3074.1369	3102.1039	3106.0551	3149.806	3170.6203
CN1C2CC3(COC3)C12	CN1[C@H]2CC3(COC3)[C@@H]12	
InChI=1S/C7H11NO/c1-8-5-2-7(6(5)8)3-9-4-7/h5-6H,2-4H2,1H3	InChI=1S/C7H11NO/c1-8-5-2-7(6(5)8)3-9-4-7/h5-6H,2-4H2,1H3/t5-,6-,8?/m0/s1
