15
gdb 13754	3.48552	1.38039	1.22718	4.8959	63.59	-0.239	-0.0206	0.2185	1007.2966	0.117978	-399.833177	-399.824948	-399.824004	-399.866359	29.257	
N	-0.0254232413	 1.2570019957	 0.4306082545	-0.532575
C	 0.0082518456	 0.1009115036	-0.2917373357	 0.421782
O	 0.9733886505	-0.2220028483	-0.9622403947	-0.372271
C	-1.248920424	-0.7196518775	-0.215260878	-0.127789
C	-1.5122017382	-1.6999677017	-1.3153392978	-0.293043
C	-1.1667059292	-2.2339188968	 0.055059194	-0.102588
C	 0.1298448961	-2.9300975856	 0.280023561	 0.142085
O	 0.24825182	-3.8421012348	 1.0637995837	-0.272138
H	 0.8150266253	 1.8106358358	 0.4697580766	 0.266406
H	-0.7679255059	 1.4662214084	 1.0743144828	 0.262469
H	-2.1055954997	-0.2366105219	 0.2435452561	 0.094243
H	-2.5284725047	-1.8303128542	-1.6668197596	 0.129632
H	-0.7358227306	-1.7611754441	-2.0704446623	 0.154493
H	-1.9741394775	-2.6372485128	 0.6570471183	 0.111846
H	 0.9771407238	-2.5644259756	-0.3296761989	 0.117449
57.3165	98.7775	188.7188	218.2627	229.2651	324.166	333.9192	425.7457	485.5589	583.847	623.1202	738.6983	800.96	835.4421	872.095	908.2037	977.8286	1055.599	1067.9714	1089.2133	1125.7113	1130.8672	1183.755	1212.6445	1292.0691	1340.8493	1431.0341	1442.0971	1474.357	1619.9639	1783.2975	1807.4463	2969.4255	3143.2731	3158.5357	3175.9249	3239.5584	3602.6556	3738.0215
NC(=O)C1CC1C=O	NC(=O)[C@H]1C[C@H]1C=O	
InChI=1S/C5H7NO2/c6-5(8)4-1-3(4)2-7/h2-4H,1H2,(H2,6,8)	InChI=1S/C5H7NO2/c6-5(8)4-1-3(4)2-7/h2-4H,1H2,(H2,6,8)/t3-,4-/m0/s1
