17
gdb 32541	2.88836	1.43459	1.03179	6.9485	77.73	-0.2308	-0.022	0.2088	1151.9174	0.138023	-418.074246	-418.066109	-418.065165	-418.107217	30.387	
C	 0.0493861161	 1.5614805273	-0.0991199327	-0.375986
C	-0.0696504435	 0.0355952717	 0.0610580213	-0.274886
C	 0.6582242253	-0.4861128265	 1.2687554859	 0.146054
C	 0.0197006765	-0.9507319411	 2.362922886	-0.080441
N	 0.738010496	-1.4101563741	 3.4461781715	-0.298575
C	 2.1001150891	-1.3946211305	 3.399658052	 0.099901
N	 2.7984310694	-0.9814720277	 2.4032795268	-0.305657
C	 2.1389046254	-0.4959475378	 1.2515476256	 0.329163
O	 2.7739114293	-0.1085645948	 0.2874103391	-0.363028
H	 1.0992400914	 1.8486012316	-0.1836045095	 0.15527
H	-0.4737664213	 1.8929167673	-1.0012321467	 0.111605
H	-0.3881383664	 2.0835052048	 0.7582963545	 0.105415
H	-1.1256612672	-0.2548936246	 0.1142583415	 0.087471
H	 0.3597069465	-0.4426620596	-0.8261126512	 0.128289
H	-1.0596587262	-0.9927868314	 2.4569009366	 0.130862
H	 0.2642791955	-1.7574503805	 4.2640995524	 0.271297
H	 2.5938636343	-1.7708171642	 4.2950183468	 0.133246
88.6006	95.4453	179.6973	214.8071	306.952	357.431	435.7241	470.6956	516.0176	539.5637	587.4387	606.6731	728.8128	781.9303	832.9863	897.3129	902.3282	963.4529	978.6527	1047.0258	1057.4751	1087.2628	1119.5787	1223.3297	1245.2088	1284.1033	1353.4057	1394.9215	1400.4436	1424.6596	1470.6845	1493.9481	1513.3001	1519.4607	1633.4927	1704.6535	1755.1652	3029.499	3039.8673	3075.2019	3106.094	3139.1352	3140.9422	3194.34	3647.1782
CCC1=CNC=NC1=O	CCc1c[nH]cnc1=O	
InChI=1S/C6H8N2O/c1-2-5-3-7-4-8-6(5)9/h3-4H,2H2,1H3,(H,7,8,9)	InChI=1S/C6H8N2O/c1-2-5-3-7-4-8-6(5)9/h3-4H,2H2,1H3,(H,7,8,9)
