19
gdb 39178	3.45935	1.51295	1.09687	1.7889	83.53	-0.1852	0.0035	0.1887	1099.798	0.162576	-382.083143	-382.075732	-382.074788	-382.115138	28.993	
C	 0.5311820583	 1.6067252544	-0.5232854196	-0.222659
C	 1.0833614311	 2.6465663773	 0.4193556972	 0.03088
N	 1.7498399497	 2.4592282483	 1.4791510134	-0.187368
C	 2.0357344514	 1.0864093943	 1.8908588658	-0.260525
C	 1.7332093818	 0.0171282557	 0.8840289759	 0.354154
C	 2.2552351165	-1.208101432	 0.7534656505	-0.262822
C	 1.4940524932	-1.964966076	-0.3136397744	-0.263396
C	 0.7174062876	-0.8253180681	-1.0153258625	-0.162029
N	 0.6838102351	 0.2599060954	-0.0209572578	-0.112111
H	-0.5283031214	 1.8333068699	-0.7129275189	 0.120067
H	 1.0414134433	 1.7386482806	-1.4990300507	 0.104694
H	 0.8763893362	 3.6807544954	 0.1296827262	 0.105776
H	 3.0896539515	 1.0336537729	 2.1835749329	 0.129017
H	 1.4629851794	 0.9111693832	 2.8128958063	 0.133693
H	 2.9976348988	-1.6462742839	 1.4052487215	 0.086374
H	 2.1287611171	-2.5171349999	-1.0141174287	 0.104485
H	 0.8041555993	-2.695718925	 0.1323561333	 0.106155
H	 1.263481485	-0.4846799555	-1.9117531639	 0.089954
H	-0.2920065038	-1.109226877	-1.3271242864	 0.105661
89.3567	135.2685	228.5727	269.8221	367.1346	409.7539	487.1251	560.8672	592.9156	686.6927	737.4277	769.1517	809.4842	865.9179	885.608	925.8873	946.7873	974.8322	999.7396	1017.7098	1047.4141	1072.7211	1099.7037	1186.9124	1205.2135	1232.4612	1242.1587	1251.0458	1265.4963	1298.2404	1327.9068	1346.1145	1365.3167	1401.5756	1436.3091	1464.0693	1490.6954	1498.2774	1524.8639	1704.4483	1756.1821	2899.6606	2951.8039	2998.4786	3005.0125	3009.4559	3062.5907	3067.1824	3074.2513	3086.6804	3230.4147
C1C2N3CC22C3CCN12	C1C=NCC2=CCCN12	
InChI=1S/C7H10N2/c1-2-8-3-6-7(8)4-9(6)5(1)7/h5-6H,1-4H2	InChI=1S/C7H10N2/c1-2-7-6-8-3-5-9(7)4-1/h2-3H,1,4-6H2
