18
gdb 56769	2.89805	1.30228	1.06836	2.6818	76.09	-0.234	0.0245	0.2585	1158.2203	0.149155	-398.086771	-398.078223	-398.077279	-398.120145	32.185	
N	 0.3119969908	 1.5673488504	 0.0148995031	-0.502556
C	 0.1201932795	 0.1138961715	 0.0009943054	-0.236647
C	 0.6453732175	-0.5406443345	-1.2184504593	 0.264353
N	 1.0785626058	-1.0116134399	-2.1818479847	-0.336826
C	 0.7351305846	-0.4890482518	 1.2427391627	 0.42239
C	 2.2059512274	-0.7703198126	 1.4183631773	-0.337195
C	 1.2069756421	-1.8907712043	 1.5920617134	-0.148112
C	 0.4860312485	-1.7237001622	 2.9311325342	-0.171298
N	 0.0124448502	-0.3674914239	 2.50928211	-0.370665
H	 1.2995582772	 1.7802665944	-0.0954383067	 0.240632
H	-0.1719092888	 1.9951296783	-0.7690171935	 0.243519
H	-0.9580902756	-0.077182056	 0.0450976963	 0.139301
H	 2.7918104073	-0.8280194772	 0.5059255762	 0.133904
H	 2.7366791079	-0.3688399346	 2.2790431592	 0.105691
H	 1.2226015529	-2.7789044129	 0.9745683965	 0.115035
H	-0.3560451246	-2.4061358616	 3.0805784022	 0.115926
H	 1.1267550975	-1.7488199741	 3.8208691702	 0.101907
H	 0.3321791398	 0.4000563909	 3.0941494275	 0.220643
65.5283	117.466	170.1808	212.649	279.3125	298.8286	361.0573	408.0395	429.055	516.672	593.1817	713.2459	729.1698	833.7562	851.8002	866.8006	894.2566	962.3187	971.4284	976.2419	1005.5495	1014.3612	1029.4246	1078.6912	1092.9215	1118.7735	1183.9632	1194.4587	1216.0814	1263.7081	1306.1277	1342.3643	1360.5559	1380.3547	1402.9644	1482.8965	1513.4471	1655.8064	2343.2586	3026.318	3054.3023	3078.6965	3104.5256	3199.2048	3209.5046	3492.4158	3494.5605	3575.3427
NC(C#N)C12CC1CN2	N[C@@H](C#N)[C@]12C[C@H]1CN2	
InChI=1S/C6H9N3/c7-2-5(8)6-1-4(6)3-9-6/h4-5,9H,1,3,8H2	InChI=1S/C6H9N3/c7-2-5(8)6-1-4(6)3-9-6/h4-5,9H,1,3,8H2/t4-,5-,6-/m0/s1
