19
gdb 90441	2.40999	1.65533	1.3669	3.1603	69.79	-0.2438	0.0489	0.2928	1013.8319	0.160237	-460.127282	-460.119292	-460.118348	-460.159758	32.202	
O	-0.0938087029	 1.4143350711	 0.6999561412	-0.438852
C	-0.0202583523	 0.0711011786	 0.2221143074	 0.114087
C	 0.3873905842	-1.0669728327	 1.1972687412	-0.292186
C	-0.8697287083	-1.8655814098	 0.7621461374	-0.05802
C	-2.0619112975	-1.7321465785	 1.7546484806	 0.120158
O	-1.7744713307	-1.5903313369	 3.1158074208	-0.437549
C	-2.4917353963	-0.3957733517	 1.0515681937	 0.065945
O	-2.4078800582	 0.7165279705	 1.9198597299	-0.449486
C	-1.3859486744	-0.5970309626	-0.0296760154	-0.096248
H	 0.7674058939	 1.6638956062	 1.0512656407	 0.294039
H	 0.588296795	 0.0432276948	-0.6909839873	 0.085479
H	 1.3520586007	-1.5316777278	 0.9845847892	 0.101327
H	 0.3491453462	-0.7927150492	 2.2545734628	 0.113037
H	-0.7034568429	-2.8328428767	 0.2897848067	 0.066229
H	-2.7938807402	-2.536130645	 1.6126197184	 0.071436
H	-1.9179339652	-0.6449202868	 3.2919787392	 0.288005
H	-3.5019897066	-0.4302484901	 0.6309938488	 0.082453
H	-1.6128178417	 1.2201804304	 1.6786776943	 0.303068
H	-1.7398131428	-0.6110133437	-1.0604526698	 0.067079
54.0116	238.0091	259.8884	272.3733	293.7427	373.0495	410.6217	488.3265	524.5961	534.7464	621.3298	640.6993	663.657	746.0677	780.5527	811.9519	861.206	897.1443	931.9108	999.14	1034.4149	1064.7427	1072.0075	1115.9829	1122.0849	1137.4204	1160.6854	1192.9676	1211.5823	1226.3479	1254.8347	1276.4687	1284.9138	1321.669	1344.3629	1354.288	1363.0947	1408.0919	1434.9173	1464.4291	1485.8109	3011.36	3024.8332	3047.8083	3067.0583	3104.1332	3114.9237	3126.3021	3632.2541	3658.5959	3814.3688
OC1CC2C(O)C(O)C12	O[C@H]1C[C@H]2[C@@H](O)[C@@H](O)[C@@H]12	
InChI=1S/C6H10O3/c7-3-1-2-4(3)6(9)5(2)8/h2-9H,1H2	InChI=1S/C6H10O3/c7-3-1-2-4(3)6(9)5(2)8/h2-9H,1H2/t2-,3+,4-,5-,6+/m1/s1
