20
gdb 81617	3.83489	0.95275	0.85665	3.1778	83.1	-0.2565	0.0241	0.2806	1413.7319	0.171118	-403.094391	-403.085745	-403.084801	-403.128545	32.426	
C	-0.2233352855	 1.5147468646	-0.0805128763	-0.446481
C	-0.0117417714	 0.0123126247	 0.0207512983	 0.061474
C	 1.1363478213	-0.7142581027	-0.7639723457	-0.112205
C	 2.1457793644	-0.1490254316	 0.2760912273	-0.240212
C	 0.9207114976	-0.6214276085	 1.1148897044	-0.108598
C	 0.963376882	-1.892336008	 0.2404801048	 0.178938
O	-0.2257073039	-2.6626628223	 0.2124931841	-0.204843
C	-0.1841372894	-3.8144220284	-0.4834627181	 0.118992
N	-1.2281213175	-4.5109525938	-0.6189642464	-0.444753
H	 0.6944883875	 2.1017913906	 0.0044440321	 0.115491
H	-0.6879007572	 1.7658612882	-1.0404824819	 0.120779
H	-0.9055414703	 1.8534202001	 0.7069445685	 0.121863
H	-0.9723588531	-0.498921092	-0.0619866275	 0.100446
H	 1.267482207	-0.7839945984	-1.8451111135	 0.072421
H	 3.0774856366	-0.7064185133	 0.4117838549	 0.092336
H	 2.3391132031	 0.9210311575	 0.2452355026	 0.106401
H	 0.802054235	-0.5831966508	 2.1983697463	 0.077359
H	 1.8330147029	-2.5453776014	 0.3744705242	 0.079486
H	 0.8139584862	-4.0518234476	-0.8779780774	 0.083174
H	-1.0145637254	-5.352097317	-1.1509862707	 0.227932
42.9968	98.4392	144.2743	175.9156	272.7174	283.6755	381.5897	407.2656	454.0351	597.6914	694.0794	767.664	786.5704	793.4136	823.53	887.1143	900.1239	934.088	1007.9384	1017.2515	1026.2604	1045.2113	1050.8118	1081.8582	1091.2856	1127.9953	1129.5217	1145.2262	1168.6718	1191.7162	1218.2038	1249.0954	1254.053	1271.5384	1301.2374	1400.5859	1411.4138	1428.8567	1432.6813	1495.6669	1497.8317	1531.5839	1746.4019	3015.9612	3035.0565	3044.0161	3062.2563	3091.6201	3091.9627	3100.7301	3110.4077	3117.8746	3157.2958	3516.6868
CC1C2CC1C2OC=N	C[C@H]1[C@H]2C[C@@H]1[C@H]2O[CH][NH]	
InChI=1S/C7H11NO/c1-4-5-2-6(4)7(5)9-3-8/h3-8H,2H2,1H3	InChI=1S/C7H11NO/c1-4-5-2-6(4)7(5)9-3-8/h3-8H,2H2,1H3/t4-,5+,6-,7-
