19
gdb 52244	5.43334	0.69264	0.67095	1.3627	76.76	-0.2303	-0.0292	0.2011	1658.8167	0.158901	-419.145986	-419.137186	-419.136241	-419.180848	31.851	
O	-0.2846260608	-0.0441525472	 0.0202223967	-0.235209
C	-0.0023620602	 1.1248800495	 0.0107648237	 0.150118
C	 1.3488222433	 1.680803638	-0.4085658033	-0.226841
N	 1.194842719	 2.9787818474	-1.0461374868	-0.31573
C	 2.4155525924	 3.7404947309	-1.1971958427	 0.051327
C	 3.5603428563	 3.3767840322	-2.2071394296	-0.198162
N	 3.5364636776	 4.7614644095	-2.7995624844	-0.120934
C	 2.2001461589	 4.8955826915	-3.395358891	-0.240411
C	 2.3201847336	 5.0686483299	-1.9317907134	-0.058968
H	-0.7242715374	 1.9128311111	 0.3234294872	 0.086712
H	 1.9235740522	 1.8253324308	 0.5193960308	 0.132588
H	 1.8798219678	 0.9149356175	-0.9958289885	 0.11393
H	 0.729538711	 2.8798646042	-1.9421045727	 0.220438
H	 2.8424377264	 3.8810628026	-0.1989093003	 0.095502
H	 4.5263385218	 3.1750700629	-1.740599726	 0.113413
H	 3.339443524	 2.5882207292	-2.9358114685	 0.10006
H	 2.0826106824	 5.7987617538	-3.9863544948	 0.12714
H	 1.7225996125	 4.016085015	-3.8248776427	 0.104568
H	 2.1845419592	 6.0355578314	-1.4582918738	 0.100459
51.4866	70.7388	97.7737	128.4657	241.5972	290.112	354.096	467.4471	484.9676	566.5747	697.6167	735.9657	751.5445	783.251	816.0684	875.1346	957.0058	984.7202	995.1741	1036.7319	1045.4069	1070.9036	1076.7254	1106.7303	1120.2523	1144.3308	1183.2486	1209.8536	1214.8817	1259.5171	1264.5492	1290.0983	1321.907	1373.5267	1384.6494	1406.5024	1473.9555	1487.8404	1505.6214	1509.7292	1840.0049	2886.2624	2978.5057	3021.4593	3037.7049	3056.7967	3095.7019	3114.48	3165.0875	3192.5343	3524.1603
O=CCNC1CN2CC12	O=CCN[C@H]1CN2C[C@@H]12	
InChI=1S/C6H10N2O/c9-2-1-7-5-3-8-4-6(5)8/h2,5-7H,1,3-4H2	InChI=1S/C6H10N2O/c9-2-1-7-5-3-8-4-6(5)8/h2,5-7H,1,3-4H2/t5-,6-,8?/m0/s1
