17
gdb 54727	2.97899	1.51092	1.46315	4.0209	71.16	-0.2255	0.0055	0.231	977.7387	0.133764	-421.757105	-421.749129	-421.748185	-421.7898	30.35	
C	 0.6686994302	 0.3702179312	 1.2147241552	-0.470996
C	 0.0425325077	 0.0514685242	-0.1288882786	 0.387286
O	 0.4045421163	 0.5667570245	-1.1595650213	-0.320511
C	-1.1906909434	-0.8388752836	-0.1077105329	-0.12308
C	-1.4026294826	-2.0478115624	-0.9667144436	-0.111922
C	-0.1287493054	-2.945113478	-1.0219997798	 0.027126
O	 0.9104586867	-2.3387134647	-0.2374212714	-0.234498
C	-0.1186777439	-3.081806272	 0.4308136896	 0.014984
C	-1.3809292198	-2.1760790719	 0.5630696662	-0.130813
H	 1.5042580438	 1.058113399	 1.07809176	 0.137206
H	-0.078721997	 0.8300143453	 1.8729367551	 0.126614
H	 1.0142690578	-0.5434267995	 1.7048020833	 0.144043
H	-2.0933267386	-0.2311389732	-0.0389050047	 0.120161
H	-2.2410631108	-2.1668154406	-1.6395538601	 0.103311
H	 0.1725970039	-3.6119236912	-1.8196255197	 0.118058
H	 0.1853901695	-3.8881817396	 1.0867283638	 0.115093
H	-2.2053424245	-2.3944025574	 1.2290160988	 0.097937
97.8085	107.0414	145.9033	167.5889	334.285	375.0965	455.7671	542.9729	603.5527	659.9991	713.1341	733.3669	778.9204	819.3152	827.356	875.1518	897.4534	944.8694	963.0821	982.2313	998.4823	1035.719	1041.1816	1045.1274	1070.1883	1110.9339	1211.7959	1230.1066	1237.0587	1269.3253	1302.7049	1364.0577	1379.8129	1421.3844	1460.7296	1478.1327	1808.4022	3037.3158	3110.2877	3116.7665	3153.3153	3188.6051	3201.0138	3204.4191	3214.0083
CC(=O)C1C2C3OC3C12	CC(=O)[C@H]1[C@H]2[C@H]3O[C@H]3[C@@H]12	
InChI=1S/C7H8O2/c1-2(8)3-4-5(3)7-6(4)9-7/h3-7H,1H3	InChI=1S/C7H8O2/c1-2(8)3-4-5(3)7-6(4)9-7/h3-7H,1H3/t3-,4+,5-,6+,7-
