18
gdb 46630	2.90731	1.60428	1.09532	3.5914	78.23	-0.2281	0.0104	0.2384	1086.8679	0.150865	-402.004384	-401.99698	-401.996036	-402.036372	28.945	
O	-0.1411591469	-0.0521553239	 0.0525739205	-0.381519
C	-0.0438225481	 1.1544195481	 0.0219826412	 0.40307
N	-1.0949321792	 2.0432787484	-0.0282627463	-0.322605
C	-0.7453614724	 3.4650818663	 0.0189703961	-0.272506
C	 0.7057649331	 3.3668532628	 0.3984332964	 0.336299
C	 1.5468291151	 4.0185782027	 1.1936747428	-0.223555
C	 2.8099908284	 3.2018572723	 1.4126532978	-0.248571
C	 2.3827046917	 1.7646016751	 0.985022425	-0.231762
C	 1.2274321566	 2.0115118693	-0.00458528	-0.186469
H	-2.0429183268	 1.707343948	-0.0896326836	 0.250408
H	-0.902383087	 3.9493525398	-0.9570061547	 0.115989
H	-1.342643657	 4.0067372934	 0.7609042792	 0.123412
H	 1.3727423988	 4.9804238647	 1.6631585259	 0.095313
H	 3.639738373	 3.5735191684	 0.794470471	 0.108288
H	 3.1570688814	 3.2439065674	 2.4506017018	 0.1069
H	 3.2014709545	 1.1843685787	 0.5549533327	 0.106014
H	 2.0091969298	 1.2136614017	 1.8539433793	 0.118717
H	 1.5870620447	 2.0039105468	-1.0455337251	 0.102576
95.8968	145.4568	228.4269	258.9445	332.0883	464.3806	514.4387	582.6322	594.9925	608.7399	696.4963	738.2335	824.0561	849.6688	874.7889	909.7728	937.1463	974.9249	1017.2261	1022.0438	1045.089	1080.6467	1152.7273	1167.6127	1194.8076	1218.8753	1238.1352	1241.1391	1272.2337	1305.6844	1316.2948	1337.6274	1357.0242	1440.3003	1484.8635	1499.4897	1518.0718	1746.6226	1830.3595	2981.9988	2983.8161	3006.3922	3054.1776	3056.6026	3069.3522	3114.9558	3194.1915	3642.6733
O=C1NCC2=CCCC12	O=C1NCC2=CCC[C@@H]12	
InChI=1S/C7H9NO/c9-7-6-3-1-2-5(6)4-8-7/h2,6H,1,3-4H2,(H,8,9)	InChI=1S/C7H9NO/c9-7-6-3-1-2-5(6)4-8-7/h2,6H,1,3-4H2,(H,8,9)/t6-/m1/s1
