20
gdb 63925	3.09614	1.45943	1.27363	1.5167	78.05	-0.2418	0.0187	0.2606	1071.896	0.171551	-403.162174	-403.153961	-403.153017	-403.194713	32.173	
C	 0.1280459835	 1.5128528978	-0.0386000577	-0.437994
C	 0.0180010077	-0.0072736519	-0.0116432198	 0.324116
C	-1.4389492733	-0.4565082339	-0.1443555894	-0.438985
C	 0.9632614374	-0.780649685	-1.0027522766	-0.30384
C	 1.4903104385	-1.644604129	 0.1632280071	 0.089193
O	 2.8876768114	-1.4411458748	 0.4775397561	-0.228639
C	 2.8879013805	-0.4621244519	 1.4179359107	 0.107516
N	 1.7934280561	-0.0032642823	 1.8680864495	-0.2635
C	 0.7285121779	-0.7459624111	 1.1802365591	-0.053769
H	 1.158650385	 1.8428736092	 0.1128165271	 0.121927
H	-0.2219075518	 1.9014066655	-1.0020915614	 0.107184
H	-0.4821609807	 1.9674653409	 0.7491651874	 0.117525
H	-1.8676864935	-0.1099217522	-1.0914342245	 0.114861
H	-1.5318244309	-1.5482684137	-0.1180414283	 0.10974
H	-2.0492663269	-0.050568081	 0.6701077593	 0.118549
H	 0.4591944865	-1.3245418721	-1.8057966706	 0.10241
H	 1.7517208398	-0.1627215758	-1.4394036783	 0.109005
H	 1.3070330599	-2.7179103752	 0.1203417699	 0.091136
H	 3.8769583439	-0.1432515141	 1.7289024728	 0.140175
H	 0.0560476189	-1.1997929595	 1.9138738678	 0.07339
73.2192	200.9854	210.6293	247.3457	300.9316	313.8045	341.5477	378.9419	477.5234	571.5373	582.7014	749.2796	779.9798	848.2461	863.9158	891.1814	909.2781	936.433	959.1369	970.0597	972.3931	1012.1044	1030.6922	1048.2798	1106.1738	1130.9883	1188.276	1216.1403	1228.4107	1255.8833	1270.1041	1290.0649	1316.4979	1320.7421	1361.1974	1400.3306	1419.1858	1472.1502	1478.8248	1485.2568	1499.5045	1504.2331	1683.2964	3020.0202	3029.1627	3059.1756	3062.1844	3087.4292	3089.6481	3095.0038	3109.5874	3117.4865	3122.373	3212.721
CC1(C)CC2OC=NC12	CC1(C)C[C@H]2OC=N[C@@H]12	
InChI=1S/C7H11NO/c1-7(2)3-5-6(7)8-4-9-5/h4-6H,3H2,1-2H3	InChI=1S/C7H11NO/c1-7(2)3-5-6(7)8-4-9-5/h4-6H,3H2,1-2H3/t5-,6-/m1/s1
