19
gdb 41538	2.89791	1.55505	1.10768	1.8835	77.56	-0.2325	0.0115	0.2439	1100.2933	0.16098	-422.998793	-422.99105	-422.990106	-423.031512	29.726	
C	 0.166758574	 1.3630341144	 0.4587905863	-0.172469
O	 1.3423901157	 1.511201422	-0.3741733574	-0.306547
C	 1.1917260229	 0.1635739779	-0.9081966825	 0.074961
C	 2.4261004999	-0.7293029966	-0.7656749905	-0.247118
C	 2.0125550448	-2.2033881809	-0.5441985939	-0.080097
O	 0.7558627635	-2.5132662936	-1.1408858705	-0.245807
C	-0.336470539	-2.5147618346	-0.2416139428	-0.122215
C	-0.6261579455	-1.1709721362	 0.3791735698	-0.252756
C	 0.046692352	-0.0832331742	 0.0445045238	 0.293724
H	 0.3773563403	 1.5596570391	 1.5183505858	 0.114248
H	-0.6513472243	 2.0219602092	 0.1345134181	 0.111032
H	 0.8766687547	 0.2096869604	-1.9588490142	 0.097337
H	 3.0569401611	-0.6332299443	-1.6549789375	 0.106578
H	 3.014887035	-0.3798686301	 0.088716218	 0.112277
H	 2.751289662	-2.8759159604	-0.9931326463	 0.108383
H	 1.9763434752	-2.4283412135	 0.5297547051	 0.098596
H	-1.200279516	-2.8697662685	-0.8185502869	 0.120894
H	-0.1704818862	-3.2559744644	 0.5614430112	 0.097593
H	-1.4033226102	-1.1428828159	 1.1407683445	 0.091386
53.3606	129.7599	234.7839	278.3486	309.3672	359.4617	403.6863	465.5911	607.6805	623.5876	754.9469	783.1164	803.6041	867.8415	900.0894	930.7351	984.1083	1003.0483	1013.6715	1025.1888	1050.3973	1098.7248	1106.5231	1130.2363	1140.016	1160.8506	1223.6713	1247.9022	1275.717	1308.7044	1311.087	1338.3985	1363.2475	1376.0269	1398.5787	1416.6366	1482.8079	1491.0937	1508.895	1510.2082	1805.1803	2939.2572	2994.7302	3011.665	3013.7266	3034.3916	3037.0802	3046.1971	3066.1571	3096.158	3145.6416
C1OC2CCOCC=C12	C1O[C@H]2CCOCC=C12	
InChI=1S/C7H10O2/c1-3-8-4-2-7-6(1)5-9-7/h1,7H,2-5H2	InChI=1S/C7H10O2/c1-3-8-4-2-7-6(1)5-9-7/h1,7H,2-5H2/t7-/m0/s1
