18
gdb 30917	2.15896	1.64931	0.99601	1.6957	76.55	-0.1872	0.0225	0.2097	1180.2392	0.148984	-435.296856	-435.28757	-435.286626	-435.330824	33.78	
C	-0.1332895654	 1.4130403401	 0.12540158	-0.347914
N	-0.0620058961	-0.0342426265	 0.0927165965	-0.035148
C	-0.0753715809	-0.8272143899	-1.0017610926	-0.005382
N	 0.016870896	-2.1090375994	-0.7021524724	-0.327776
C	 0.0982345576	-2.1495717741	 0.6641216178	 0.20478
N	 0.2762348621	-3.3733027849	 1.3154046597	-0.594835
C	 0.0571411614	-0.8759467178	 1.2013023759	 0.17465
C	 0.0931460522	-0.3744900504	 2.5977011001	-0.197051
O	-1.1112814625	 0.2920854108	 3.0069132094	-0.414636
H	 0.8428792957	 1.8547229301	 0.3560724267	 0.138785
H	-0.4567400625	 1.7762987472	-0.8520193063	 0.138027
H	-0.847589558	 1.7278626747	 0.8891829858	 0.162156
H	-0.1662340936	-0.4215570585	-1.9991497591	 0.123822
H	 0.0322805338	-4.1378488366	 0.698951551	 0.249489
H	-0.2240473992	-3.4538910893	 2.1901629537	 0.238319
H	 0.3288594764	-1.2155272493	 3.2660341237	 0.101956
H	 0.8801983708	 0.3743443252	 2.7471886292	 0.114917
H	-1.8436522678	-0.2869937612	 2.7686276809	 0.27584
103.6145	117.4508	138.9956	173.7356	216.0713	249.2209	280.9179	322.1659	366.0549	422.0972	508.5078	594.0532	648.6402	689.4895	739.5797	758.1109	803.5128	815.7459	940.5085	1001.8717	1057.6041	1083.197	1130.6526	1155.0914	1213.3088	1254.3005	1276.276	1342.1893	1359.1856	1411.2811	1418.0829	1446.7744	1462.8115	1481.6858	1503.3318	1526.7918	1547.9834	1626.7146	1648.8445	3000.0167	3034.5009	3048.8935	3106.1831	3144.3515	3241.6687	3543.4735	3639.4612	3801.2773
CN1C=NC(N)=C1CO	Cn1cnc(N)c1CO	
InChI=1S/C5H9N3O/c1-8-3-7-5(6)4(8)2-9/h3,9H,2,6H2,1H3	InChI=1S/C5H9N3O/c1-8-3-7-5(6)4(8)2-9/h3,9H,2,6H2,1H3
