23
gdb 92115	2.5436	1.54004	1.16646	0.1877	89.17	-0.2525	0.0784	0.3308	1168.8045	0.206518	-351.117978	-351.109446	-351.108502	-351.151217	34.295	
C	-0.4822286055	 1.4586217314	 0.0575839795	-0.409891
C	-0.0072145535	 0.0131539459	 0.009111632	 0.051161
C	 1.2060001586	-0.3368833763	-0.9097274732	-0.252854
C	 1.8961499384	-1.0777293261	 0.2656119897	 0.001613
C	 2.8995553151	-0.2110349224	 1.0754979765	-0.320877
C	 1.7495442157	 0.1991873079	 2.0138523514	 0.395402
C	 1.8565659246	 0.2273335	 3.513528317	-0.328132
C	 1.5656530614	 1.4968553172	 2.7514553361	-0.322047
C	 0.728580108	-0.6341946431	 1.2268887369	-0.141597
H	 0.338836904	 2.1462280272	 0.2812158063	 0.12098
H	-0.9083771883	 1.7535113613	-0.9083898651	 0.108911
H	-1.258027941	 1.6039169266	 0.818176142	 0.108074
H	-0.8567648809	-0.6281458718	-0.2512499002	 0.067477
H	 0.9549353892	-0.9629445528	-1.7697807418	 0.094616
H	 1.7659393481	 0.530184671	-1.2765928127	 0.090047
H	 2.1635096329	-2.1223095265	 0.1051098529	 0.061166
H	 3.6884730214	-0.7823885108	 1.574597752	 0.09563
H	 3.3704447958	 0.596546147	 0.5040468651	 0.091142
H	 1.0514011681	-0.2153042419	 4.0923059931	 0.107918
H	 2.8416655851	 0.1055859479	 3.9539358782	 0.10664
H	 2.3526607144	 2.2410706966	 2.6739662394	 0.107568
H	 0.5676105965	 1.9146184464	 2.8246434889	 0.112186
H	 0.138038252	-1.3359383346	 1.8210269258	 0.054868
42.6352	148.7882	228.0515	256.2088	280.4789	297.3808	366.7809	384.907	471.6059	571.8988	644.5175	755.5214	777.7992	811.3491	824.1693	853.5816	871.577	898.1724	905.6002	924.2913	956.2759	969.1412	996.7328	1021.8078	1050.3047	1074.1141	1084.2445	1113.9458	1120.2274	1131.7132	1157.7237	1189.1714	1198.9304	1222.5501	1245.0052	1251.453	1266.6859	1284.571	1300.4377	1309.4349	1365.4132	1380.4516	1406.105	1462.7959	1478.0951	1490.5684	1493.674	1498.287	1500.3616	3023.9257	3031.053	3031.8353	3040.8692	3070.3375	3078.8693	3084.2185	3091.0478	3104.4056	3108.7456	3116.0116	3125.317	3195.5252	3213.2779
CC1CC2CC3(CC3)C12	C[C@H]1C[C@H]2CC3(CC3)[C@@H]12	
InChI=1S/C9H14/c1-6-4-7-5-9(2-3-9)8(6)7/h6-8H,2-5H2,1H3	InChI=1S/C9H14/c1-6-4-7-5-9(2-3-9)8(6)7/h6-8H,2-5H2,1H3/t6-,7-,8-/m0/s1
