23
gdb 110830	3.1612	1.11929	1.01483	1.4538	85.99	-0.247	0.0734	0.3204	1324.831	0.20448	-388.269311	-388.259628	-388.258684	-388.303372	37.717	
C	-0.3134289423	 1.4458414606	 0.1945542684	-0.374086
C	 0.2053097958	 0.0423463007	-0.1396702291	-0.206893
C	 0.8411192407	-0.6324949689	 1.0622869213	 0.000149
C	 0.1075350575	-1.3053207955	 2.1898257752	-0.064632
C	-1.1004246493	-2.1002364952	 1.6802949324	-0.311564
C	-0.1199559563	-2.9825995148	 0.8215812028	 0.404673
C	-0.0079078993	-4.4122144483	 1.3452087055	-0.443515
O	-0.3011738043	-2.9863843346	-0.5873839741	-0.470736
C	 1.0515415293	-2.1092217085	 1.2746131199	-0.112948
H	 0.4899662661	 2.0894256962	 0.5714172813	 0.10778
H	-0.741270036	 1.9318503851	-0.6881049279	 0.10708
H	-1.0900237077	 1.4068840662	 0.9663759067	 0.114081
H	-0.5984615028	-0.5759177948	-0.5435266437	 0.1153
H	 0.9552840147	 0.1065158167	-0.9383562024	 0.094051
H	 1.700080274	-0.0755071223	 1.4390736628	 0.078326
H	 0.2648049858	-1.0287525974	 3.2253327573	 0.079716
H	-1.6119868301	-2.6742464921	 2.4569888855	 0.094119
H	-1.8445575462	-1.5341176214	 1.112675855	 0.096225
H	-0.9387060751	-4.9648706711	 1.1640110873	 0.102218
H	 0.8082900318	-4.9365944088	 0.8377490195	 0.122223
H	 0.1849566076	-4.4286273072	 2.4217161504	 0.121607
H	-1.0099501528	-3.6051147486	-0.7951973715	 0.272705
H	 2.0356338189	-2.509811976	 1.4947210473	 0.074121
67.6257	124.2859	174.202	226.0157	240.0907	268.0057	282.8607	292.0472	370.0554	418.4015	427.7346	497.3306	610.9632	629.513	718.9413	779.9492	801.933	846.6878	882.0726	899.5535	932.2906	950.7316	991.8114	999.7695	1007.2917	1026.4712	1071.795	1079.0364	1120.0525	1128.8733	1143.8782	1186.1405	1220.8737	1227.6272	1245.4396	1278.0491	1296.5396	1330.4483	1357.1644	1390.4108	1402.7215	1409.429	1455.195	1478.3023	1488.6948	1495.6198	1497.5323	1498.8093	1511.278	3019.8274	3026.3828	3031.1022	3050.8652	3084.7547	3088.6916	3096.1177	3099.7259	3102.4201	3114.5661	3122.3407	3158.9798	3181.9866	3798.0203
CCC1C2CC(C)(O)C12	CC[C@H]1[C@H]2C[C@@](C)(O)[C@@H]12	
InChI=1S/C8H14O/c1-3-5-6-4-8(2,9)7(5)6/h5-7,9H,3-4H2,1-2H3	InChI=1S/C8H14O/c1-3-5-6-4-8(2,9)7(5)6/h5-7,9H,3-4H2,1-2H3/t5-,6+,7-,8+/m0/s1
