17
gdb 20557	4.42214	1.48722	1.47077	0.6683	70.09	-0.2552	0.0035	0.2587	946.0351	0.143719	-360.060562	-360.052832	-360.051888	-360.093448	27.931	
C	-0.0256789786	 1.542057121	-0.0121244067	-0.386721
C	-0.0147412272	 0.0119155147	 0.0415269036	 0.062074
C	 0.750291398	-0.5308511137	 1.2514944658	-0.386749
N	-1.3873791254	-0.5069124657	 0.0328690106	 0.141833
N	-2.2504537927	-0.2438511972	 1.0055212291	-0.23135
C	-3.3597330631	-0.8834250421	 0.6249299473	-0.054825
C	-3.1083717463	-1.5214074448	-0.594807397	-0.069488
N	-1.8463634598	-1.2680926761	-0.9537103809	-0.222567
H	 1.0001671434	 1.9195081769	-0.0521536276	 0.120186
H	-0.5597225201	 1.8977195028	-0.8974416064	 0.128741
H	-0.5139733756	 1.9521754274	 0.8756791642	 0.143237
H	 0.4167638246	-0.3875792129	-0.8790465958	 0.117543
H	 0.2900795517	-0.1861282181	 2.1810772632	 0.143354
H	 0.7556062643	-1.6242156916	 1.2515087714	 0.128638
H	 1.785926266	-0.1799637117	 1.2235369237	 0.120167
H	-4.2529092542	-0.8533851794	 1.2282994805	 0.122565
H	-3.7495136748	-2.1296658896	-1.2122806352	 0.123362
30.1095	132.3626	213.3543	218.2086	268.4163	323.4968	413.8248	500.825	663.3297	681.575	713.3243	844.3456	891.6177	894.5142	937.7518	953.7316	981.4865	993.933	1086.0462	1104.5534	1147.5547	1181.3186	1209.6646	1280.0999	1297.6838	1352.425	1375.2981	1398.1034	1410.8122	1419.8755	1448.3514	1481.4507	1489.3176	1495.4204	1503.1292	1512.5927	3044.9743	3048.8323	3092.7824	3119.0536	3122.8745	3128.0709	3135.7263	3262.6791	3280.6291
CC(C)N1N=CC=N1	CC(C)n1nccn1	
InChI=1S/C5H9N3/c1-5(2)8-6-3-4-7-8/h3-5H,1-2H3	InChI=1S/C5H9N3/c1-5(2)8-6-3-4-7-8/h3-5H,1-2H3
