20
gdb 112605	4.18705	0.84024	0.81865	2.54	78.07	-0.2215	-0.0438	0.1777	1485.3178	0.168429	-440.268012	-440.258417	-440.257473	-440.302872	35.131	
C	-0.1086794307	 1.517683408	 0.117812524	-0.380623
C	-0.1256436653	-0.0054248676	 0.0127794103	-0.124892
N	 0.5807120417	-0.4700836701	-1.1634919313	-0.062155
C	-0.0133171403	-0.2383667278	-2.491098248	-0.225047
C	 0.4306900353	-1.6720076248	-2.9316774544	 0.32602
O	 1.5828067575	-1.7097617107	-3.7122459192	-0.483742
C	 0.6654889431	-1.9183452765	-1.4045841505	-0.224099
C	-0.6520618515	-2.5144727621	-3.5554587286	 0.10566
O	-0.478288053	-3.1169160218	-4.5877412345	-0.271919
H	 0.9194645769	 1.8886293487	 0.1524236295	 0.129464
H	-0.60548721	 1.9788558062	-0.742515947	 0.119405
H	-0.6326309121	 1.8480886178	 1.01959853	 0.115063
H	 0.3668572632	-0.443098193	 0.8897454541	 0.105687
H	-1.1751677463	-0.3679811835	 0.0261516306	 0.066822
H	-1.1098208769	-0.1126018947	-2.4732728954	 0.083203
H	 0.4373704537	 0.5677833918	-3.0769652707	 0.124879
H	 1.3718546706	-2.2896179832	-4.4618054442	 0.292246
H	 1.629963072	-2.3774788545	-1.1671310962	 0.123312
H	-0.1453646194	-2.4985589138	-0.9319612197	 0.083395
H	-1.6185704785	-2.5517759484	-3.013052369	 0.097325
57.4383	80.2375	119.3214	186.189	228.7583	301.0603	309.2544	327.6937	365.3295	400.4007	420.9922	488.6934	522.0309	708.267	809.9012	837.5406	863.4581	909.8296	919.2845	977.662	981.9801	1050.043	1077.8324	1088.1048	1117.2776	1141.578	1163.0632	1209.2566	1245.0321	1276.3956	1301.9131	1314.0662	1335.2722	1388.7589	1394.9896	1413.8119	1444.3741	1480.9336	1487.8008	1491.5505	1502.6339	1516.6139	1807.6531	2880.7194	2929.8018	2947.3612	2960.2844	3038.3937	3044.6182	3075.6442	3080.9231	3106.0343	3121.0809	3682.618
CCN1CC(O)(C1)C=O	CCN1CC(O)(C1)C=O	
InChI=1S/C6H11NO2/c1-2-7-3-6(9,4-7)5-8/h5,9H,2-4H2,1H3	InChI=1S/C6H11NO2/c1-2-7-3-6(9,4-7)5-8/h5,9H,2-4H2,1H3
