20
gdb 91868	2.3282	1.6885	1.08327	3.303	80.89	-0.25	0.0227	0.2727	1153.3428	0.172531	-403.164024	-403.155755	-403.154811	-403.196994	32.235	
C	 0.0351479355	 1.5273417879	 0.0814655231	-0.401106
C	 0.0196052707	 0.0133240701	-0.0440166578	 0.128701
C	 0.7562252134	-0.507223914	-1.2774122004	-0.231259
C	 0.9377009331	-2.0213954958	-1.2208384391	-0.060024
C	 2.1626031422	-2.5856111531	-0.5649392514	-0.281214
C	 0.8190417227	-2.6925341534	 0.1358499734	-0.071453
C	 0.5785813961	-1.8618475874	 1.3422210815	 0.37094
N	 0.4034083758	-2.385359511	 2.4824275624	-0.521023
O	 0.6190494066	-0.5019495453	 1.1669940051	-0.270494
H	 1.0641150996	 1.8934802995	 0.1514016362	 0.12731
H	-0.4378816066	 1.9855938031	-0.7923192079	 0.118668
H	-0.5045490414	 1.8450091275	 0.9771133136	 0.128189
H	-1.020484904	-0.3431062109	-0.0742046924	 0.08387
H	 0.1833364265	-0.2290544123	-2.1680856147	 0.106862
H	 1.7271491846	-0.0035699087	-1.3556560456	 0.107063
H	 0.5344307105	-2.5797673391	-2.0587445714	 0.093212
H	 2.5923561616	-3.5041457552	-0.9475138723	 0.119221
H	 2.8828604457	-1.8826845206	-0.1590111877	 0.124746
H	 0.380567053	-3.6800534138	 0.1984212812	 0.112533
H	 0.2572505745	-1.6492963275	 3.1769977244	 0.215256
64.4508	135.2353	209.2027	223.5519	280.9385	366.6886	408.153	444.7421	464.1501	518.126	650.4382	707.3996	758.963	812.3351	846.0323	883.2247	894.7043	914.3206	927.8848	979.7571	997.5878	1023.975	1063.0014	1085.1586	1114.2436	1125.3797	1148.4025	1158.0485	1162.93	1220.2072	1258.9226	1306.3365	1331.1071	1375.7965	1390.3005	1394.9332	1408.3272	1412.5485	1476.2561	1483.0193	1491.4736	1498.8524	1745.2639	2995.7531	3032.5933	3044.0906	3078.9218	3116.8301	3125.4197	3133.4642	3161.7535	3198.331	3223.7568	3458.8595
CC1CC2CC2C(=N)O1	C[C@H]1C[C@H]2C[C@H]2[C]([NH])O1	
InChI=1S/C7H11NO/c1-4-2-5-3-6(5)7(8)9-4/h4-6,8H,2-3H2,1H3	InChI=1S/C7H11NO/c1-4-2-5-3-6(5)7(8)9-4/h4-6,8H,2-3H2,1H3/t4-,5-,6+/m0/s1
