18
gdb 89165	2.31893	1.49202	1.02077	3.8022	74.47	-0.2445	-0.0043	0.2402	1174.9062	0.146194	-439.062595	-439.053828	-439.052884	-439.096036	32.747	
C	 0.2569312667	 1.4016683133	-0.1118728545	-0.506725
C	-0.0272567029	-0.061993852	 0.0245921763	 0.320488
C	-1.3990140907	-0.7401510602	 0.1512566088	-0.330608
C	-0.7311350746	-1.8412045899	 1.0678934074	 0.143341
O	-0.7928299631	-3.1799807469	 0.6757583213	-0.429367
C	 0.6152593091	-1.1149826771	 0.9020380678	-0.128839
N	 0.8633524227	-1.0907211329	-0.53305447	-0.132187
C	 2.1135906952	-0.8620478543	-1.0803555259	 0.129138
O	 3.1506993801	-1.3177675784	-0.6612826041	-0.292373
H	 1.319620211	 1.6179499488	 0.035854771	 0.140365
H	-0.0308583482	 1.7714980194	-1.1025770302	 0.136277
H	-0.3146440419	 1.9672111748	 0.6304644527	 0.135599
H	-2.1299252325	-0.1340367423	 0.6918719455	 0.111047
H	-1.8374383315	-1.1015589649	-0.7816754788	 0.10844
H	-1.1050749319	-1.7901723571	 2.0926984547	 0.101119
H	-0.3178584528	-3.2445578285	-0.1625826491	 0.289908
H	 1.4557781252	-1.0482168284	 1.5824082643	 0.119493
H	 2.04754572	-0.2721318234	-2.0145346272	 0.084884
93.5645	119.5112	167.4164	223.2505	225.5705	262.5027	346.1435	404.266	413.3461	457.1905	555.0405	595.3424	707.6353	721.6723	827.7497	847.0928	926.5977	941.957	963.3063	983.069	1035.3121	1044.5251	1065.9112	1127.7572	1147.1595	1184.6614	1210.8119	1256.7079	1269.9453	1303.209	1339.9533	1407.883	1416.9585	1436.8415	1440.9714	1476.2439	1481.9272	1498.5267	1790.108	2951.6999	3032.3112	3066.1027	3094.4626	3095.3959	3111.7987	3127.2792	3199.1337	3775.9355
CC12CC(O)C1N2C=O	C[C@]12C[C@@H](O)[C@H]1N2C=O	
InChI=1S/C6H9NO2/c1-6-2-4(9)5(6)7(6)3-8/h3-5,9H,2H2,1H3	InChI=1S/C6H9NO2/c1-6-2-4(9)5(6)7(6)3-8/h3-5,9H,2H2,1H3/t4-,5-,6+,7?/m1/s1
