18
gdb 37684	3.22182	2.43688	2.00422	1.4899	77.97	-0.2183	0.0785	0.2968	774.1439	0.151502	-364.692141	-364.686801	-364.685857	-364.721335	24.62	
C	-0.0250182872	 1.5293727827	-0.1869617486	-0.338988
C	 1.5271508827	 1.386437528	 0.0779494703	-0.080533
C	 2.0871546799	 0.1971610132	-0.8057537641	-0.024683
C	 2.1294322341	-0.8295161252	 0.3953879897	-0.095312
C	 1.0282110553	-1.6987256437	-0.3392586492	-0.02406
C	-0.408646636	-1.4644096973	 0.2524108746	-0.351758
C	 0.0288083714	 0.0009858513	 0.0322006106	 0.290196
C	 1.2178410747	 0.2146095112	 1.0411581604	-0.029431
N	 0.805867382	-0.4685774678	-1.190609597	-0.124632
H	-0.48045931	 2.0937977503	 0.631059535	 0.105217
H	-0.3934649205	 1.8762418042	-1.1547494913	 0.110448
H	 2.1614629924	 2.24117643	 0.3093881892	 0.0687
H	 2.8409261723	 0.3189726049	-1.5830432599	 0.06977
H	 3.0189426481	-1.224945787	 0.8827315084	 0.062963
H	 1.2989731636	-2.6348460898	-0.8299935037	 0.075028
H	-1.1531386997	-1.835080883	-0.4556421696	 0.118653
H	-0.64668608	-1.7701183642	 1.2730316361	 0.100611
H	 0.9727502669	 0.3121005321	 2.0970649691	 0.067811
382.6469	408.1478	477.3325	487.4466	688.9109	733.4699	739.3388	778.8148	793.6268	805.2958	810.4048	842.7641	874.1473	901.0864	920.1955	928.6983	953.7254	971.0107	999.0193	1020.9991	1025.1537	1037.265	1088.9488	1110.6808	1127.9557	1159.2495	1169.6499	1175.6258	1179.2456	1196.5104	1201.5171	1226.4612	1241.7794	1247.8182	1259.8382	1276.5948	1306.1098	1473.5418	1476.9428	3062.7296	3070.5273	3103.654	3112.319	3124.0876	3125.5857	3128.4531	3136.8391	3139.6056
C1C2C3C4C5CC1(C24)N35	C1[C@@H]2[C@H]3[C@@H]4[C@H]5C[C@@]1([C@H]24)N35	
InChI=1S/C8H9N/c1-3-6-5-4-2-8(1,6)9(4)7(3)5/h3-7H,1-2H2	InChI=1S/C8H9N/c1-3-6-5-4-2-8(1,6)9(4)7(3)5/h3-7H,1-2H2/t3-,4+,5+,6+,7-,8-/m0/s1
