20
gdb 116903	4.46404	0.56562	0.54191	1.3184	86.33	-0.2338	0.0467	0.2806	2079.9703	0.169081	-403.090294	-403.079786	-403.078842	-403.127906	36.975	
C	 0.1086488564	 1.3502613876	 0.4887620623	-0.459411
C	 0.0016859511	-0.0550913805	-0.0792675958	 0.098624
C	 0.6382268562	-0.3412990836	-1.4013692239	-0.261079
N	 1.2358202011	-0.8788635612	-0.1721654545	-0.330186
C	-1.1891112355	-0.7763132368	 0.3053141145	 0.09917
C	-2.2066527284	-1.3338690726	 0.6298296982	 0.061218
C	-3.4089710578	-2.0482185101	 1.0381714158	-0.329989
C	-3.0998241078	-3.2475229818	 1.941637039	-0.062448
O	-4.3415609813	-3.8497826299	 2.2668895939	-0.416175
H	 1.0123456545	 1.8488731777	 0.1224672568	 0.109434
H	-0.7566681703	 1.953780279	 0.1983483099	 0.134168
H	 0.1455772584	 1.3235497331	 1.5825177179	 0.131613
H	 0.1970866053	-1.0858324297	-2.0566416661	 0.125156
H	 1.1260910871	 0.4868055474	-1.9101600175	 0.11114
H	 2.0306779918	-0.305376773	 0.1031615996	 0.228747
H	-4.0896339615	-1.3770215391	 1.5762620145	 0.135213
H	-3.9603692086	-2.4094001391	 0.1612902481	 0.135692
H	-2.4349471446	-3.9432869216	 1.409162991	 0.101993
H	-2.5667023018	-2.900421532	 2.8391269604	 0.098365
H	-4.1688645243	-4.6147248737	 2.822994906	 0.288757
14.6371	67.8946	77.5411	132.2349	187.8835	231.2191	240.6871	296.5752	316.8461	356.9204	393.0782	451.7668	537.2418	576.6175	643.1355	794.7453	813.0069	850.6705	928.7863	974.57	991.299	1003.5277	1054.1187	1079.2833	1087.7504	1089.806	1124.5426	1153.3337	1220.7701	1238.001	1266.4407	1303.9214	1314.5495	1328.7221	1378.9529	1412.4828	1454.6236	1478.7703	1479.9857	1500.4985	1507.0727	1528.1838	2367.2969	2986.4181	3017.4183	3028.7296	3031.3256	3065.9728	3103.1115	3107.1176	3107.6414	3199.3339	3485.1561	3835.6623
CC1(CN1)C#CCCO	C[C@]1(CN1)C#CCCO	
InChI=1S/C7H11NO/c1-7(6-8-7)4-2-3-5-9/h8-9H,3,5-6H2,1H3	InChI=1S/C7H11NO/c1-7(6-8-7)4-2-3-5-9/h8-9H,3,5-6H2,1H3/t7-/m1/s1
