13
gdb 14596	5.356	0.81834	0.72636	3.2844	77.48	-0.2588	-0.037	0.2218	1454.2544	0.09312	-361.394156	-361.385654	-361.384709	-361.428363	28.976	
N	-0.3317382787	 1.0893260989	-0.0975163618	-0.431243
C	-0.4849237218	-0.1417637681	 0.1198797832	 0.137491
O	-0.3832593009	-1.0181988211	-0.9072127227	-0.169232
C	-0.5904250557	-2.3932058473	-0.578190932	-0.269526
C	-1.9833173633	-2.720220633	-0.2992407305	 0.468133
C	-3.1394789906	-2.9865130454	-0.0625091487	-0.338147
C	-4.4391637407	-3.2878282727	 0.2025916413	 0.301256
C	-5.592267013	-3.5552636967	 0.4393309372	-0.534623
H	-0.4248513508	 1.6119510031	 0.7709295888	 0.233456
H	-0.6967719573	-0.6186735022	 1.0860264552	 0.095692
H	-0.2367131104	-2.9501205343	-1.4507898506	 0.163121
H	 0.0419867484	-2.6825160599	 0.2732823208	 0.143756
H	-6.6074554951	-3.7899489014	 0.6446469199	 0.199866
47.3641	78.312	122.189	146.2869	249.6601	330.3003	338.6194	453.0325	538.8236	547.8464	595.937	618.1439	647.7177	745.278	819.5256	947.9565	1025.3065	1039.3028	1113.5601	1175.433	1237.6165	1313.0268	1389.4636	1425.8708	1477.3273	1751.7501	2183.834	2363.8575	3007.0607	3032.6244	3087.3014	3503.3984	3521.1838	47.3636	78.3116	122.1884	146.2864	249.6607	330.3002	338.6184	453.0325	538.8312	547.8544	595.9378	618.1465	647.7178	745.278	819.5254	947.9564	1025.3062	1039.3025	1113.5601	1175.4329	1237.616	1313.0263	1389.4629	1425.8703	1477.3262	1751.75	2183.834	2363.8577	3007.0607	3032.6243	3087.3015	3503.3988	3521.1838
N=COCC#CC#C	[NH][CH]OCC#CC#C	
InChI=1S/C6H5NO/c1-2-3-4-5-8-6-7/h1,6-7H,5H2	InChI=1S/C6H5NO/c1-2-3-4-5-8-6-7/h1,6-7H,5H2
