19
gdb 76185	2.0188	1.53187	1.27504	3.3784	74.13	-0.2411	-0.0325	0.2086	1112.0282	0.155311	-460.162381	-460.152435	-460.151491	-460.196306	37.226	
C	-0.089654534	 1.6049940862	-0.0526798608	-0.435155
C	 0.0262240806	 0.1016393104	-0.0885942597	 0.358026
O	-1.1136505738	-0.461069399	-0.6349542474	-0.465028
C	 1.3359100929	-0.5474597723	-0.297064267	-0.006315
O	 2.4525528534	 0.2509802594	-0.4883365316	-0.404207
C	 0.7039520826	-0.6217159912	 1.1428190202	 0.083008
C	 1.3180014225	 0.1836486367	 2.2699529803	-0.498271
C	 0.1564954743	-1.9375671837	 1.4782809842	 0.102256
O	-0.3991674442	-2.6875301681	 0.6884124878	-0.326184
H	 0.8384036909	 2.0801384298	 0.2631626193	 0.135649
H	-0.3323543493	 1.9567121248	-1.0596624608	 0.139328
H	-0.9015198096	 1.9064983074	 0.6151133499	 0.127705
H	-1.0740019769	-1.4221314636	-0.4771124014	 0.304748
H	 1.3261160386	-1.5021205483	-0.8233939133	 0.113046
H	 3.2371847977	-0.2573369967	-0.2537076632	 0.297054
H	 2.1453755387	 0.7973460047	 1.9064663388	 0.135631
H	 0.5919910458	 0.8476750647	 2.7496145702	 0.13219
H	 1.7153779199	-0.4836442705	 3.0432386753	 0.118546
H	 0.2756814899	-2.2463836509	 2.5384242092	 0.087974
127.7414	150.5654	172.0261	199.6041	215.9131	237.5683	262.1732	295.0143	322.3802	345.119	418.5399	432.6055	498.4817	559.7977	603.903	627.5341	669.4992	730.308	817.7417	965.1395	1004.897	1011.1543	1043.5973	1080.2424	1097.4065	1153.232	1175.0011	1206.099	1257.4335	1284.02	1308.553	1403.6133	1413.5823	1429.5914	1454.0226	1478.3474	1481.2404	1492.1815	1508.1632	1523.5064	1738.4255	2905.9559	3032.6251	3054.4811	3090.3491	3108.2374	3116.9365	3120.0942	3161.985	3591.3964	3795.4672
CC1(O)C(O)C1(C)C=O	C[C@@]1(O)[C@@H](O)[C@]1(C)C=O	
InChI=1S/C6H10O3/c1-5(3-7)4(8)6(5,2)9/h3-4,8-9H,1-2H3	InChI=1S/C6H10O3/c1-5(3-7)4(8)6(5,2)9/h3-4,8-9H,1-2H3/t4-,5-,6+/m0/s1
