15
gdb 75818	3.24996	1.29668	1.08322	2.2384	61.18	-0.264	-0.0129	0.2511	1086.7958	0.11126	-494.887508	-494.879338	-494.878393	-494.92092	29.06	
O	 0.1353045625	 1.3015037537	-0.2947024464	-0.41762
C	 0.1397770896	-0.0722859627	-0.0279083971	-0.150249
C	 0.0914253776	-0.5036162182	 1.450180056	 0.419227
O	 0.7457731634	-0.3686253935	 2.431766841	-0.321863
O	-1.10722701	-1.1593941088	 1.3061692095	-0.266886
C	-1.2485892711	-0.7299719095	-0.0838995808	 0.355949
C	-2.5124372142	 0.0389264235	-0.4774288143	-0.126778
O	-2.8057610076	-0.9279626562	-1.5117706743	-0.270362
C	-1.7049368715	-1.7679502218	-1.112015208	-0.134529
H	 0.9606463669	 1.677290727	 0.031473895	 0.307587
H	 0.9039956442	-0.6173167256	-0.6001474092	 0.111065
H	-3.2747432698	 0.0582855711	 0.3102682322	 0.122145
H	-2.3513904837	 1.0451932452	-0.8749231116	 0.135085
H	-1.0140182025	-1.9742087579	-1.937978301	 0.113989
H	-2.0347925239	-2.7120310564	-0.661273661	 0.12324
79.1385	87.6543	152.5802	202.7318	263.5013	289.9026	359.2823	449.2667	485.4828	567.9124	720.2204	801.8245	835.8414	881.7892	916.6031	956.3418	977.8843	1032.742	1081.991	1091.974	1149.9689	1151.3674	1167.0855	1207.1513	1224.9599	1271.6726	1302.1063	1312.0727	1383.8956	1424.3369	1496.1024	1521.4518	1945.0053	3008.0396	3018.8555	3036.636	3069.5905	3098.7677	3813.8391
OC1C(=O)OC11COC1	O[C@H]1C(=O)OC21COC2	
InChI=1S/C5H6O4/c6-3-4(7)9-5(3)1-8-2-5/h3,6H,1-2H2	InChI=1S/C5H6O4/c6-3-4(7)9-5(3)1-8-2-5/h3,6H,1-2H2/t3-/m0/s1
