17
gdb 128273	6.46222	0.89031	0.79344	3.8286	72.44	-0.2045	0.047	0.2515	1432.2284	0.137135	-451.342785	-451.333608	-451.332664	-451.376931	32.191	
C	-0.0077490218	 1.3430546887	 0.2511559179	-0.342182
N	-0.0392382206	-0.0412637701	-0.1806195037	-0.381376
C	-1.1857207102	-0.7800196518	-0.0741673907	 0.483657
N	-1.2422896503	-2.1026227789	-0.0911682834	-0.424089
C	-2.5817148261	-2.3315782188	-0.0139140438	 0.445873
O	-3.0284338343	-3.5892448705	-0.0083973053	-0.249591
C	-4.4428655371	-3.7344192644	 0.0761428567	-0.231062
N	-3.3653516983	-1.2710838485	 0.0570721508	-0.33907
N	-2.4261025988	-0.2554238992	 0.0261774853	-0.288999
H	 1.0069734121	 1.7264341735	 0.1320142757	 0.142951
H	-0.6594767571	 1.9554708986	-0.3831887116	 0.132797
H	-0.3137668908	 1.482091721	 1.2988753701	 0.126878
H	 0.7850401265	-0.5920514304	 0.0036855576	 0.262065
H	-4.6344290555	-4.8081473482	 0.0702662276	 0.12763
H	-4.8283104611	-3.285604561	 0.9975344756	 0.131847
H	-4.9372930781	-3.2568232701	-0.7761553087	 0.132209
H	-2.7282345884	 0.7019555603	 0.0257424298	 0.270461
75.1225	107.6344	154.4689	176.331	185.4767	241.7396	270.0619	303.1021	384.2416	431.2008	493.9472	626.0175	688.7537	723.4238	767.8432	778.5563	1000.152	1033.9891	1093.9296	1116.6744	1133.5452	1157.6038	1183.5967	1193.8632	1228.5551	1320.0679	1384.9394	1431.1225	1462.431	1471.3119	1479.3917	1489.355	1502.0977	1520.7113	1538.0707	1604.2791	1659.4573	2991.4856	3032.5323	3057.6522	3098.1386	3132.2949	3145.1856	3630.3109	3694.4234
CNC1=NC(OC)=NN1	CNc1nc(OC)n[nH]1	
InChI=1S/C4H8N4O/c1-5-3-6-4(9-2)8-7-3/h1-2H3,(H2,5,6,7,8)	InChI=1S/C4H8N4O/c1-5-3-6-4(9-2)8-7-3/h1-2H3,(H2,5,6,7,8)
