17
gdb 113279	2.62064	1.07976	0.86956	5.095	75.75	-0.2741	-0.0512	0.2229	1357.8166	0.134097	-418.004135	-417.994646	-417.993702	-418.039168	33.252	
C	 0.0108672669	 1.5306241012	 0.0431889883	-0.383985
C	-0.2214096035	 0.0197808924	-0.0828185043	-0.200417
C	 0.5087113088	-0.5455763205	-1.2812550776	-0.020918
N	 1.8947528125	-0.941370521	-1.1248746955	-0.346859
C	 0.9057768711	-2.008606143	-1.4252736408	 0.029953
C	 0.673628204	-2.9857640135	-0.3047167712	 0.129026
O	 0.195826384	-4.0764342773	-0.4565962686	-0.231199
C	 0.8536600966	-2.5521537392	-2.7619921191	 0.24071
N	 0.841626978	-2.9572841685	-3.8446633386	-0.327426
H	 1.074875333	 1.750956274	 0.1725107483	 0.134424
H	-0.3396625834	 2.0626587336	-0.8477410007	 0.123037
H	-0.5261496719	 1.9343226946	 0.9057153977	 0.12691
H	 0.1158458722	-0.4812044045	 0.8285683426	 0.115302
H	-1.2918387212	-0.1903688102	-0.1920084511	 0.121307
H	 0.2282706976	-0.0919726618	-2.2319398582	 0.121966
H	 2.4509153413	-0.7403967023	-1.9522481166	 0.262847
H	 0.9985684539	-2.6003705542	 0.6823057254	 0.105323
61.857	79.6582	137.8035	138.876	191.7612	232.8589	282.8515	292.1723	386.311	441.5175	479.9777	593.7371	606.2963	753.6253	766.7742	795.2012	878.7085	944.6139	996.0176	1030.7929	1053.3344	1088.2461	1093.9357	1129.8578	1225.6328	1270.444	1299.7863	1340.9593	1349.3299	1401.8604	1409.4019	1458.1115	1477.3684	1498.5082	1506.1106	1833.2408	2357.2052	2939.9707	3038.3514	3045.5906	3089.0646	3109.3954	3119.0914	3120.6709	3514.7144
CCC1NC1(C=O)C#N	CC[C@H]1N[C@]1(C=O)C#N	
InChI=1S/C6H8N2O/c1-2-5-6(3-7,4-9)8-5/h4-5,8H,2H2,1H3	InChI=1S/C6H8N2O/c1-2-5-6(3-7,4-9)8-5/h4-5,8H,2H2,1H3/t5-,6+/m1/s1
