14
gdb 44354	4.02276	1.60463	1.31209	4.8643	68.41	-0.2417	-0.0724	0.1693	912.5849	0.101615	-436.589944	-436.583607	-436.582662	-436.620603	25.499	
O	 0.0588166046	-0.1198736214	-0.1892157902	-0.306146
C	 0.0394020313	 1.0725271152	-0.1301357975	 0.41418
O	-1.1824143914	 1.7331003112	-0.000020073	-0.246321
C	-1.265724497	 3.0873904084	-0.4186743406	 0.131765
C	-0.5855344023	 4.4306575903	 0.0341328609	-0.048175
N	 0.8000336384	 4.3893747051	 0.6650040595	-0.361219
C	 0.9717021741	 3.2836787608	-0.2960981204	 0.158581
C	 1.1602943762	 2.0293726606	 0.1120106436	-0.24693
C	-0.1780750172	 3.6756862441	-1.2156938818	-0.232785
H	-2.2899527797	 3.268640042	-0.7345330843	 0.126764
H	-1.2016681487	 5.3147257013	 0.166243625	 0.11658
H	 1.2498138997	 5.2378211485	 0.3082874499	 0.232697
H	 1.7640353885	 1.8099180189	 0.9875895084	 0.145915
H	-0.1442312364	 3.9213194049	-2.2709757795	 0.115096
125.3937	214.4575	378.049	437.0281	472.0339	502.4047	568.5494	659.2273	689.743	756.0975	778.0681	810.206	827.5464	861.999	902.4921	934.976	976.1733	1005.3103	1024.5577	1051.3684	1070.1943	1093.0929	1130.6056	1171.9247	1237.094	1264.1157	1296.2985	1341.5742	1405.4564	1691.0087	1867.1035	3150.2614	3163.0868	3174.8419	3180.8864	3390.6824
O=C1OC2C3NC(=C1)C23	O=C1O[C@H]2[C@H]3N[C]([CH]1)[C@@H]23	
InChI=1S/C6H5NO2/c8-3-1-2-4-5(7-2)6(4)9-3/h1,4-7H	InChI=1S/C6H5NO2/c8-3-1-2-4-5(7-2)6(4)9-3/h1,4-7H/t4-,5+,6-/m1/s1
