15
gdb 50182	2.23596	1.85913	1.26595	4.606	69.06	-0.2589	-0.0416	0.2173	984.2039	0.111926	-416.769522	-416.761617	-416.760673	-416.802407	28.596	
O	-0.4305009297	 0.5606500422	-1.1129668645	-0.234458
C	 0.0573471031	 0.9711227494	-0.0935041861	 0.14297
C	 1.1674124381	 2.00090759	-0.0797310427	-0.040293
C	 1.1210264338	 3.2319156752	-1.0202200993	-0.286575
C	 1.2966472763	 4.0630567332	 0.2494055589	-0.020015
C	 0.212809056	 3.820803689	 1.2326593739	-0.154798
C	-1.1373294269	 3.5067400811	 0.8409110035	 0.301071
N	-2.2296542854	 3.2664370895	 0.5447536544	-0.329405
N	 1.3429491775	 2.8513059951	 1.1596933837	-0.166385
H	-0.2369612972	 0.5846930757	 0.9070180027	 0.101231
H	 2.1031599346	 1.4422114992	-0.1979575077	 0.134495
H	 1.9696657971	 3.2898775798	-1.7010250699	 0.130378
H	 0.1963125887	 3.3856942325	-1.5800842746	 0.150774
H	 1.9798095655	 4.8955592941	 0.3792107821	 0.121013
H	 0.2672820285	 4.392701974	 2.1543772857	 0.149998
84.6028	121.3912	134.3006	194.2041	248.0082	366.7906	432.0946	530.6844	568.3432	600.5113	748.2819	766.5353	780.6549	842.3511	894.8749	940.4756	983.1478	1008.9586	1058.9723	1063.4781	1109.443	1112.3597	1149.1203	1223.1631	1242.994	1264.3944	1323.1767	1347.9682	1395.6238	1404.198	1493.4104	1830.0674	2349.1901	2896.1063	3048.3305	3086.7407	3146.2069	3160.9319	3177.6831
O=CC1CC2C(C#N)N12	O=C[C@H]1C[C@H]2[C@@H](C#N)N12	
InChI=1S/C6H6N2O/c7-2-6-5-1-4(3-9)8(5)6/h3-6H,1H2	InChI=1S/C6H6N2O/c7-2-6-5-1-4(3-9)8(5)6/h3-6H,1H2/t4-,5+,6-,8?/m1/s1
