18
gdb 44800	2.79038	1.56729	1.19542	1.8912	77.91	-0.2231	-0.0109	0.2122	1069.0197	0.147532	-401.90402	-401.896102	-401.895158	-401.936773	30.462	
O	 0.4006580821	 0.0947404677	 0.4893314693	-0.334494
C	 0.2166057708	 1.278321366	 0.3818741294	 0.353654
C	-1.0626605437	 2.1226360157	 0.1273415049	-0.349795
C	-0.1315088888	 3.2796049934	-0.2550954808	-0.112557
C	 0.6955114692	 3.645613995	 0.923771416	-0.323744
C	 1.1377295166	 2.4347384679	 0.1103081716	 0.278641
N	 2.418841393	 2.4537551329	-0.4924021928	-0.171664
C	 3.4864978341	 1.6625242488	 0.1288126605	-0.232471
C	 2.8999593549	 1.2513356263	-1.1772243822	-0.23985
H	-1.6341067695	 1.6971487498	-0.7024509588	 0.131195
H	-1.7303052812	 2.2931462651	 0.9769340664	 0.119276
H	-0.235451451	 3.9088512304	-1.1280847037	 0.114513
H	 1.3767145944	 4.4797616623	 0.7919568918	 0.134842
H	 0.303316356	 3.5298999815	 1.9308859021	 0.118252
H	 4.457840072	 2.1469166491	 0.1718536133	 0.116809
H	 3.228815116	 1.0553608488	 0.9923171415	 0.133807
H	 2.2677496711	 0.3693299258	-1.1729152651	 0.147419
H	 3.4388132241	 1.4407698037	-2.1011241133	 0.116168
62.1483	134.407	188.208	197.0766	345.6468	391.6553	430.0377	476.526	573.2626	633.0697	676.0659	788.603	814.8036	832.8863	875.5419	885.382	915.4348	960.6626	978.8393	1014.5672	1023.9037	1055.0412	1072.8167	1093.8835	1113.928	1136.4231	1145.002	1181.1253	1185.0259	1203.9719	1235.0592	1264.5545	1310.415	1406.3236	1459.7708	1487.4784	1492.42	1513.4395	1849.1378	3055.7548	3109.8639	3110.8537	3114.505	3119.2239	3198.1147	3209.155	3216.6662	3220.1993
O=C1CC2CC12N1CC1	O=C1C[C@H]2C[C@@]12N1CC1	
InChI=1S/C7H9NO/c9-6-3-5-4-7(5,6)8-1-2-8/h5H,1-4H2	InChI=1S/C7H9NO/c9-6-3-5-4-7(5,6)8-1-2-8/h5H,1-4H2/t5-,7-/m0/s1
