19
gdb 98545	3.71978	1.11652	0.94228	2.848	77.99	-0.2387	0.0215	0.2602	1288.1212	0.160167	-419.204083	-419.195162	-419.194217	-419.23826	32.599	
C	-0.3090307777	 1.48347442	-0.8644497248	-0.333745
N	-0.2050987986	 0.0412190821	-0.8979307981	-0.323924
C	 0.8615233167	-0.6304650245	-0.3918719016	 0.317146
O	 1.8238916	-0.106398004	 0.1486216882	-0.395316
C	 0.7885178643	-2.1159625479	-0.5652209966	 0.260344
C	 1.6824510326	-3.123661517	 0.1672482241	-0.296217
C	 1.7210496252	-4.0011690528	-1.1278278609	-0.241956
C	 0.8373216397	-2.9589984659	-1.8255711847	-0.072975
N	-0.4128632715	-2.7406657266	-1.1143644656	-0.377493
H	 0.6027826756	 1.8662293283	-0.403408302	 0.166742
H	-0.4033012288	 1.9019803251	-1.8731456537	 0.122432
H	-1.1711237098	 1.8102113577	-0.2713810823	 0.123352
H	-0.9526406418	-0.5243083005	-1.2714135328	 0.25808
H	 2.6519137619	-2.6900253907	 0.4125253767	 0.140834
H	 1.2506528396	-3.5696400064	 1.0689069869	 0.097272
H	 2.72351777	-4.0692431434	-1.5549020186	 0.118698
H	 1.2964438612	-5.0087645403	-1.0679840169	 0.101258
H	 0.8915522746	-2.64060549	-2.8604793122	 0.105044
H	-0.7202447931	-3.5495685931	-0.5768357449	 0.230422
72.4492	90.5207	111.3256	162.4402	201.454	302.624	313.795	381.6425	483.2657	501.7155	607.1246	727.7447	754.6992	780.9088	800.1081	843.7311	906.2081	937.8504	947.8269	1011.2733	1050.0208	1059.2818	1087.4884	1131.4702	1153.2986	1162.4975	1182.103	1199.8468	1220.9553	1229.4195	1254.8622	1295.6185	1305.2929	1419.5767	1441.4932	1478.5461	1495.6536	1498.2438	1499.7316	1573.0758	1767.9101	3023.0213	3047.7574	3057.4618	3072.3575	3113.2244	3142.4522	3147.1302	3180.8182	3460.1522	3615.7871
CNC(=O)C12CCC1N2	CNC(=O)[C@]12CC[C@H]1N2	
InChI=1S/C6H10N2O/c1-7-5(9)6-3-2-4(6)8-6/h4,8H,2-3H2,1H3,(H,7,9)	InChI=1S/C6H10N2O/c1-7-5(9)6-3-2-4(6)8-6/h4,8H,2-3H2,1H3,(H,7,9)/t4-,6+/m1/s1
