18
gdb 56997	2.91404	1.21041	0.96324	3.6602	75.56	-0.2678	0.0129	0.2807	1225.7255	0.147832	-401.922594	-401.914088	-401.913144	-401.956131	31.906	
O	-0.1946083427	 1.3607236135	 0.001206893	-0.409786
C	 0.0277783976	-0.0349414543	-0.0958589128	-0.030559
C	 0.8252959631	-0.3696526905	-1.2956802472	 0.257713
N	 1.4868549087	-0.6142993391	-2.2113263903	-0.321917
C	 0.6908581314	-0.6153776488	 1.1589409514	-0.005625
C	-0.086991881	-0.5041203672	 2.5128311899	-0.269749
C	 0.0466225245	-2.0235347967	 2.6861668024	-0.03462
C	-0.6182452436	-2.7280051145	 1.5426411414	-0.277154
C	 0.7513286061	-2.1389997544	 1.3286608124	-0.065242
H	 0.6603899274	 1.7955649957	 0.1002120488	 0.293281
H	-0.966893453	-0.4736293188	-0.22391641	 0.135335
H	 1.689628757	-0.1759273909	 1.2529286	 0.085068
H	 0.4595300484	 0.0788343254	 3.2558418363	 0.110476
H	-1.1094842185	-0.1180949738	 2.4515956149	 0.109492
H	 0.2858704905	-2.5282257522	 3.6134616504	 0.093529
H	-0.6340135254	-3.8111819242	 1.6037462673	 0.120343
H	-1.5034237667	-2.3042143	 1.073497008	 0.108575
H	 1.5934425059	-2.7565588492	 1.043346544	 0.100841
62.2317	118.4425	147.5955	212.4824	260.7369	316.4938	366.5112	418.3299	461.4135	532.1619	608.4862	702.168	780.9485	806.6153	834.9542	918.6386	933.4573	964.2336	969.266	1013.7679	1034.4209	1057.381	1072.7638	1074.9695	1089.9679	1125.5526	1153.8747	1196.6297	1236.2583	1256.6773	1263.4971	1300.8008	1304.8779	1365.8183	1382.7571	1418.8917	1484.2664	1500.5805	2351.6484	3046.5071	3054.5911	3075.0022	3109.2361	3118.3291	3188.0896	3192.8612	3206.3136	3799.4658
OC(C#N)C1CC2CC12	O[C@@H](C#N)[C@H]1C[C@H]2C[C@@H]12	
InChI=1S/C7H9NO/c8-3-7(9)6-2-4-1-5(4)6/h4-7,9H,1-2H2	InChI=1S/C7H9NO/c8-3-7(9)6-2-4-1-5(4)6/h4-7,9H,1-2H2/t4-,5-,6+,7+/m1/s1
