19
gdb 40654	3.30976	1.1626	1.14922	2.4049	75.32	-0.2523	0.0781	0.3303	1163.1278	0.160753	-422.987429	-422.979696	-422.978752	-423.020206	29.56	
C	 0.0877152948	 1.5559058998	 0.0312316266	-0.188381
O	 1.2627524284	 0.7470653047	 0.0544559149	-0.242413
C	-0.0129139938	 0.0914977215	-0.0376991378	 0.068685
C	-0.4106094537	-0.7088730491	 1.1594810139	-0.04538
C	-1.6634285233	-1.557154002	 1.2385870153	-0.093528
C	-2.3220029796	-1.9900618042	-0.0589315584	-0.09625
O	-1.2744650234	-2.4832226402	-0.8915930069	-0.253781
C	-0.2290059136	-2.993460942	-0.0632748736	-0.100879
C	-0.3040926488	-2.2174690766	 1.2391488598	-0.086833
H	-0.1483131594	 2.065441092	 0.9655076629	 0.107428
H	-0.0560390062	 2.1535474625	-0.8683754716	 0.112225
H	-0.2104807975	-0.361226066	-1.005892927	 0.117598
H	-0.1602293488	-0.2045671472	 2.0895033534	 0.092082
H	-2.2779162379	-1.5046628397	 2.1298928148	 0.092538
H	-3.0662180176	-2.7752055985	 0.1505430611	 0.09648
H	-2.8209929912	-1.1862723205	-0.6107468196	 0.110851
H	-0.3701134234	-4.0677487602	 0.1353784431	 0.096513
H	 0.7090148524	-2.866595637	-0.6138786892	 0.119047
H	 0.1163108428	-2.6687231475	 2.1301538785	 0.094002
64.0515	143.7944	162.9619	236.2464	303.1386	330.6412	469.2517	517.8549	710.8786	724.6345	768.938	805.8007	847.4676	878.6697	919.1332	925.4097	969.7175	985.9574	999.5528	1017.9417	1072.8563	1087.363	1107.6114	1120.7358	1124.136	1124.4851	1153.3651	1185.9089	1222.217	1233.3979	1248.7891	1290.7208	1319.5276	1325.618	1357.3	1360.4217	1422.003	1478.7883	1512.6991	1523.9665	1530.494	2974.5313	2981.4463	3064.8365	3069.4256	3075.0666	3138.6779	3149.7091	3163.4673	3175.2058	3185.7799
C1OC1C1C2COCC12	C1O[C@H]1[C@H]1[C@H]2COC[C@@H]12	
InChI=1S/C7H10O2/c1-4-5(2-8-1)7(4)6-3-9-6/h4-7H,1-3H2	InChI=1S/C7H10O2/c1-4-5(2-8-1)7(4)6-3-9-6/h4-7H,1-3H2/t4-,5+,6-,7-/m1/s1
