22
gdb 9433	3.97457	0.87359	0.74839	1.5831	76.49	-0.244	0.0835	0.3275	1581.1855	0.197189	-387.324327	-387.313678	-387.312734	-387.360732	36.425	
C	-0.0328133743	 1.3792383564	-0.0859924108	-0.225321
O	-0.0228438954	-0.0249234466	-0.0285534789	-0.23206
C	 0.6796074006	-0.5219562409	 1.0919657806	-0.055522
C	 0.6626028182	-2.0436075141	 1.0304010748	-0.205272
C	 1.3440057407	-2.7018428538	 2.2291986744	 0.136155
C	 1.2393391068	-4.2286300861	 2.1733652131	-0.402786
O	 2.6985986894	-2.2603937196	 2.2246894994	-0.244109
C	 3.3875424476	-2.4394456628	 3.4389307508	-0.233936
H	 0.9857981124	 1.7949185142	-0.1501723472	 0.101567
H	-0.5883928824	 1.6686963027	-0.9817281312	 0.123167
H	-0.5252005035	 1.8232502267	 0.7947683696	 0.09887
H	 1.716440298	-0.154570015	 1.0968655723	 0.102322
H	 0.2050173963	-0.1704092824	 2.0262488131	 0.074316
H	-0.3768278659	-2.3851187274	 0.9753605479	 0.102552
H	 1.1600594664	-2.3704976472	 0.1101320162	 0.11153
H	 0.8608261114	-2.3453081854	 3.1568496188	 0.06019
H	 0.1899375973	-4.539410022	 2.1639175166	 0.116292
H	 1.7216385624	-4.6080188488	 1.2669665472	 0.124197
H	 1.715487128	-4.6991859267	 3.0381287173	 0.114312
H	 4.3639922771	-1.9606154824	 3.3282268195	 0.125993
H	 2.8569571403	-1.9678849054	 4.2815922425	 0.101341
H	 3.5487887286	-3.4988311934	 3.6862908541	 0.106203
67.9561	70.8916	79.2229	123.5849	145.5099	195.03	228.052	239.3735	279.0209	306.65	336.4697	440.4832	500.7016	542.7473	784.6092	839.6484	928.7647	973.204	983.1681	1046.1629	1112.2269	1118.4055	1146.7016	1161.2028	1176.8079	1182.3111	1189.6308	1220.7006	1230.6255	1258.7095	1305.0381	1312.8666	1379.297	1389.4393	1403.5971	1427.3403	1476.7408	1479.2402	1481.3461	1484.1142	1485.5203	1493.6402	1504.0031	1505.9502	1513.3466	1534.8316	2935.4068	2943.0529	2964.5276	2974.2136	3004.871	3010.7805	3022.717	3038.535	3045.1222	3089.2026	3107.5572	3109.0177	3111.4047	3114.7926
COCCC(C)OC	COCC[C@@H](C)OC	
InChI=1S/C6H14O2/c1-6(8-3)4-5-7-2/h6H,4-5H2,1-3H3	InChI=1S/C6H14O2/c1-6(8-3)4-5-7-2/h6H,4-5H2,1-3H3/t6-/m1/s1
