19
gdb 15774	4.4834	1.08334	0.94662	4.1618	75.86	-0.2912	0.0375	0.3287	1240.177	0.164999	-327.938462	-327.929699	-327.928755	-327.972083	31.953	
C	 0.1695596733	 1.4376080522	 0.1213159838	-0.402163
C	-0.0447935255	-0.0749726707	-0.0100674954	 0.00687
C	-1.5512946695	-0.4414941572	-0.009256106	-0.340382
C	-2.2363543324	-0.060663828	 1.2236744458	 0.260906
N	-2.758331399	 0.2437324142	 2.209098418	-0.314969
C	 0.6097584126	-0.6290480714	-1.2616101557	 0.034558
C	 2.0733998475	-0.9859326608	-1.2590238722	-0.279217
C	 1.031227536	-2.0756580699	-1.3356853657	-0.278848
H	 1.2374655407	 1.6713275745	 0.1481648713	 0.12369
H	-0.2670689031	 1.9696949566	-0.7321008986	 0.115013
H	-0.2908237321	 1.8286197211	 1.0331540232	 0.140152
H	 0.4106950425	-0.5688745793	 0.8582040627	 0.090418
H	-2.0541059343	 0.0487575137	-0.852198439	 0.14606
H	-1.6704129732	-1.5206142292	-0.1546734855	 0.15171
H	 0.2296547217	-0.1966348619	-2.1854809018	 0.083007
H	 2.6603537343	-0.7689636925	-2.1442779547	 0.116635
H	 2.6183677517	-0.8751743654	-0.327106017	 0.116073
H	 0.8847757351	-2.6930864432	-0.4547222927	 0.11434
H	 0.9056948335	-2.6056057928	-2.2732029703	 0.116148
67.29	97.3703	129.3711	199.4109	236.8062	284.8959	330.6823	399.9963	419.2967	452.9767	554.9858	769.6306	820.2243	831.2766	865.3887	888.4906	928.0324	963.0205	971.2678	1002.7346	1058.4755	1081.8851	1108.3917	1124.4514	1139.897	1196.4852	1198.5263	1225.818	1245.6618	1288.7077	1336.7507	1358.1741	1412.9603	1423.204	1464.7717	1471.1158	1497.9313	1500.1904	1508.6179	2358.5137	3020.2557	3032.8163	3039.5873	3081.6414	3101.7648	3119.6081	3122.2192	3128.796	3134.8279	3208.0255	3223.177
CC(CC#N)C1CC1	C[C@@H](CC#N)C1CC1	
InChI=1S/C7H11N/c1-6(4-5-8)7-2-3-7/h6-7H,2-4H2,1H3	InChI=1S/C7H11N/c1-6(4-5-8)7-2-3-7/h6-7H,2-4H2,1H3/t6-/m0/s1
