25
gdb 122002	1.84922	0.91622	0.64634	2.2172	86.91	-0.258	0.0743	0.3322	1832.8811	0.226203	-426.628121	-426.616376	-426.615432	-426.666678	41.518	
C	-0.1721363207	 1.5388167803	 0.0222442466	-0.381275
C	-0.0357333817	 0.0149874598	-0.0257108861	-0.171853
C	 0.6649459298	-0.562599839	 1.2080945989	-0.169927
C	 0.7492046651	-2.0898518161	 1.215252342	 0.143264
C	 1.6323650069	-2.6165481003	 2.348832851	-0.40385
O	-0.5859269626	-2.5818594608	 1.3360234216	-0.276377
C	-0.8043347666	-3.8960665066	 0.8580831402	-0.07469
C	-2.302265458	-4.149555431	 0.9484963363	-0.060921
O	-3.0365211031	-3.2018790203	 0.2000459176	-0.422944
H	 0.808068365	 2.024199689	 0.0915321972	 0.112011
H	-0.6704160442	 1.9231233882	-0.8731757272	 0.11295
H	-0.7583447733	 1.8567203033	 0.8916917043	 0.114626
H	-1.0256128514	-0.4441936703	-0.1225073027	 0.10441
H	 0.5227258496	-0.2750249017	-0.9257964998	 0.092587
H	 1.6821260004	-0.1567784005	 1.2781162693	 0.091677
H	 0.139221183	-0.2474558556	 2.1193234884	 0.100438
H	 1.1619421963	-2.4284661925	 0.2496584722	 0.064722
H	 1.6646520726	-3.7098169369	 2.3583170136	 0.116507
H	 2.6591934102	-2.2548955911	 2.2347869835	 0.115307
H	 1.2508646061	-2.2772190073	 3.3171516496	 0.122836
H	-0.4706433773	-3.9792045704	-0.1885418997	 0.094212
H	-0.2592213375	-4.6453775784	 1.4531501632	 0.086344
H	-2.5338958114	-5.1382540675	 0.5386794453	 0.106125
H	-2.6023686803	-4.1448458343	 2.0087422195	 0.091272
H	-2.7057318067	-2.3407569401	 0.4810326553	 0.292551
31.6593	48.6465	76.7377	110.3105	144.5722	175.5072	213.7438	229.4491	244.522	302.4572	322.4931	375.9005	425.4193	482.2908	506.3878	541.3465	739.0651	812.6523	871.5645	879.9697	909.7063	918.4697	966.7362	1009.3709	1042.3321	1065.5445	1081.1663	1114.259	1135.6308	1139.7269	1164.927	1188.3383	1239.6035	1260.6489	1272.4262	1296.775	1327.1384	1364.8017	1367.1342	1387.6032	1400.7138	1407.5104	1414.9523	1421.1694	1439.9792	1471.7338	1490.222	1492.3412	1495.6507	1499.5113	1499.9492	1509.4375	1512.52	2957.5136	2972.0789	2977.0228	3012.4925	3016.1113	3023.301	3029.0423	3039.0451	3052.5482	3071.0677	3078.1209	3096.7498	3102.0497	3110.4852	3113.5005	3797.7421
CCCC(C)OCCO	CCC[C@@H](C)OCCO	
InChI=1S/C7H16O2/c1-3-4-7(2)9-6-5-8/h7-8H,3-6H2,1-2H3	InChI=1S/C7H16O2/c1-3-4-7(2)9-6-5-8/h7-8H,3-6H2,1-2H3/t7-/m1/s1
