17
gdb 19822	3.75564	2.15322	1.86417	0.5521	66.77	-0.2288	0.0563	0.2851	781.4365	0.143019	-363.777646	-363.771003	-363.770059	-363.808119	26.429	
C	-0.036938797	 1.5711043803	-0.1405757677	-0.421833
C	 0.1224293341	 0.0658272874	-0.0663966025	 0.146728
O	 1.1776485693	-0.5055872758	-0.9092707956	-0.322181
C	 1.5695762492	-1.4181766205	 0.1476381175	 0.099711
C	 2.787236199	-0.9864542022	 0.9803506422	-0.040163
C	 2.8764311561	 0.4749056796	 1.0552374299	-0.245206
N	 1.890341869	-0.1941541738	 1.9395247955	-0.167147
C	 0.6830545605	-0.6885885486	 1.1532354811	-0.047465
H	-0.1669142861	 1.8770596776	-1.1836445615	 0.132591
H	-0.9372920856	 1.8647791751	 0.4094650885	 0.12433
H	 0.8071180982	 2.1179863642	 0.2806401412	 0.131964
H	-0.8333590223	-0.4010184771	-0.3523233878	 0.079427
H	 1.4838652941	-2.4691256024	-0.1344531646	 0.082736
H	 3.5533338091	-1.6602043591	 1.3510288367	 0.095517
H	 3.6943887713	 0.8944724276	 1.633133928	 0.122751
H	 2.5703636914	 1.0588541722	 0.1977795441	 0.137522
H	-0.0161915603	-1.1726843346	 1.8330538549	 0.090719
158.766	201.1569	216.5014	352.475	386.2944	504.0814	596.3142	644.6731	706.7768	725.4397	817.8804	862.1128	888.0711	903.3112	931.7578	946.2305	981.4459	1021.5231	1055.4313	1098.0366	1103.4814	1113.7838	1128.2366	1163.4455	1200.2532	1227.8242	1243.1176	1296.8302	1311.0167	1328.1417	1357.5359	1397.6512	1410.2124	1484.6127	1491.8825	1497.8835	2973.0626	3045.3458	3092.027	3106.8372	3124.8864	3136.2193	3145.3652	3161.7465	3238.2257
CC1OC2C3CN3C12	C[C@H]1O[C@H]2[C@H]3CN3[C@@H]12	
InChI=1S/C6H9NO/c1-3-5-6(8-3)4-2-7(4)5/h3-6H,2H2,1H3	InChI=1S/C6H9NO/c1-3-5-6(8-3)4-2-7(4)5/h3-6H,2H2,1H3/t3-,4-,5+,6+,7?/m1/s1
