19
gdb 74745	2.36336	1.77101	1.30011	2.0014	79.82	-0.2058	-0.0047	0.2011	1062.3782	0.159189	-385.876514	-385.868441	-385.867497	-385.908792	31.714	
C	-0.0272712325	 1.4818806658	 0.1001833546	-0.508568
C	-0.0429285614	-0.0022557395	-0.0186072893	 0.364947
C	-0.0641428439	-0.8078725859	-1.0783750432	-0.209261
C	 0.011994901	-2.2423055883	-0.5002329991	-0.030598
O	-0.759086956	-2.0676466591	 0.7033758106	-0.231121
C	 0.0353552302	-0.979491533	 1.19156056	-0.153323
C	 1.4509521101	-1.6285724093	 1.1748697921	 0.365084
C	 2.5326485681	-1.3055476314	 2.145748991	-0.508586
C	 1.4235137109	-2.4262961242	 0.1092918387	-0.209381
H	 0.8905854322	 1.8341542946	 0.589735556	 0.126232
H	-0.0898816103	 1.9645142625	-0.8790698429	 0.128493
H	-0.8636220514	 1.8434465877	 0.7120178303	 0.129846
H	-0.0626952158	-0.5543072796	-2.1291920789	 0.101821
H	-0.3814624884	-3.0528289334	-1.1119569045	 0.076598
H	-0.3303398076	-0.6112381414	 2.1511792129	 0.071424
H	 2.221246365	-1.5161253074	 3.1768858327	 0.129857
H	 3.4408420957	-1.8794574572	 1.9417815666	 0.128492
H	 2.7948168379	-0.2395472409	 2.1121542203	 0.126228
H	 2.2143288164	-3.03139299	-0.311401858	 0.101818
135.7571	154.1418	178.2195	202.3687	281.596	313.9029	467.7173	474.68	554.7582	599.6013	629.2441	669.4413	769.1522	794.8156	830.9697	847.5242	882.5031	899.3166	902.177	973.0895	999.8758	1003.835	1055.2714	1068.7039	1075.5581	1116.4314	1202.9967	1206.435	1226.6133	1249.5088	1270.6714	1293.1429	1321.8488	1411.9055	1417.3916	1476.9814	1480.9732	1484.9866	1487.5392	1690.5556	1717.4272	3010.745	3013.4428	3055.2603	3057.5862	3107.2225	3107.6937	3111.5875	3132.9026	3228.9696	3230.9227
CC1=CC2OC1C(C)=C2	CC1=C[C@@H]2O[C@H]1C(=C2)C	
InChI=1S/C8H10O/c1-5-3-7-4-6(2)8(5)9-7/h3-4,7-8H,1-2H3	InChI=1S/C8H10O/c1-5-3-7-4-6(2)8(5)9-7/h3-4,7-8H,1-2H3/t7-,8+
