19
gdb 44365	3.02664	1.61774	1.36875	3.0894	77.7	-0.2346	-0.0086	0.226	992.3036	0.161759	-385.896407	-385.889367	-385.888423	-385.927895	28.846	
O	 0.0163609677	-0.1407378968	-0.2426857817	-0.318311
C	 0.0113128119	 1.0452854087	-0.0097018334	 0.374406
C	-1.3010517939	 1.8025257152	 0.201692486	-0.323751
C	-1.2148260345	 3.1041702987	 0.9849410345	-0.030798
C	-0.5911874046	 3.271864397	 2.3506977052	-0.063046
C	 0.6089645554	 2.3453567363	 2.556590519	-0.256465
C	 1.2260772122	 2.8774503612	 1.214333994	-0.034257
C	 1.292515267	 1.8660907299	 0.064976392	-0.305278
C	 0.0630961016	 3.882686294	 1.1070828276	-0.086294
H	-1.6686068233	 2.0331443062	-0.8093920405	 0.129054
H	-2.0232720666	 1.1009301234	 0.6319177481	 0.126591
H	-2.0911528931	 3.7366462553	 0.8636658887	 0.089147
H	-1.1294406822	 3.776989143	 3.1440360067	 0.085356
H	 1.2108708381	 2.6372286874	 3.4198546258	 0.106144
H	 0.4092619623	 1.2699253338	 2.6250028594	 0.108183
H	 2.1964513571	 3.3530618821	 1.3671567552	 0.079459
H	 2.1298870349	 1.1693414975	 0.1634720852	 0.119259
H	 1.4170131053	 2.4004716689	-0.8877408929	 0.117814
H	 0.1535560245	 4.9204112082	 0.809091191	 0.082789
76.4939	186.0924	317.2978	365.9974	409.723	456.9882	498.6583	564.0917	682.0578	701.3342	749.7206	791.8532	807.4666	828.8682	851.7071	910.0442	948.0846	973.9308	1003.1612	1011.7212	1029.7301	1056.8132	1067.4264	1096.0774	1132.5151	1155.8743	1165.3554	1220.0063	1220.53	1255.4823	1266.845	1279.8189	1309.1333	1327.7807	1343.316	1365.7097	1438.7311	1451.5454	1458.4918	1495.701	1813.5961	3008.863	3016.5307	3039.5252	3075.6537	3083.452	3094.1651	3106.2273	3135.4396	3173.0686	3185.1294
O=C1CC2C3CC(C1)C23	O=C1C[C@H]2[C@H]3C[C@@H](C1)[C@@H]23	
InChI=1S/C8H10O/c9-5-1-4-2-6-7(3-5)8(4)6/h4,6-8H,1-3H2	InChI=1S/C8H10O/c9-5-1-4-2-6-7(3-5)8(4)6/h4,6-8H,1-3H2/t4-,6-,7+,8-/m1/s1
