16
gdb 123834	3.64967	1.58762	1.13649	4.4403	78.11	-0.2171	-0.0326	0.1845	1020.0859	0.128582	-396.951131	-396.944508	-396.943564	-396.982078	26.351	
C	-0.0148601303	 1.487410866	 0.088775764	-0.270204
C	 1.3839210473	 2.1388684067	-0.0514102043	-0.330607
C	 2.1872796616	 1.3849806265	-1.0635305123	 0.256742
C	 1.956957491	 0.0454097077	-1.303755553	 0.332457
N	 2.9117153392	-0.2828624138	-2.2050987131	-0.303861
N	 3.6844725388	 0.7845132883	-2.5131281638	-0.129588
N	 3.2427866065	 1.7949735677	-1.8085424351	-0.275177
C	 0.9087204979	-0.7174757699	-0.66218328	-0.172693
C	-0.0098941745	-0.0277956855	 0.0321398188	-0.067932
H	-0.4884876163	 1.8258320076	 1.0154190853	 0.112145
H	-0.6641904612	 1.8454557411	-0.7256490597	 0.124976
H	 1.2866903807	 3.1932195064	-0.3233247868	 0.126577
H	 1.9030586619	 2.1125221357	 0.9172965829	 0.119385
H	 3.088090221	-1.1617888512	-2.6647502097	 0.276609
H	 0.8773747103	-1.7988457922	-0.7414666352	 0.097863
H	-0.823729704	-0.551728021	 0.5238804519	 0.103307
136.2977	203.8816	278.3158	387.9667	422.8865	496.7697	562.9387	588.2169	683.7173	694.1908	716.259	755.2576	804.8685	866.9202	923.5101	975.1679	1017.0743	1024.5972	1039.5231	1053.9085	1166.9895	1188.6473	1213.2095	1224.9462	1250.3142	1321.1934	1336.7779	1356.6238	1382.5313	1430.6533	1468.1858	1485.9776	1517.1145	1609.9902	1671.1673	2987.3242	3007.617	3075.0823	3092.5157	3171.7142	3193.0245	3657.3133
C1CC2=C(NN=N2)C=C1	C1Cc2c([nH]nn2)C=C1	
InChI=1S/C6H7N3/c1-2-4-6-5(3-1)7-9-8-6/h1,3H,2,4H2,(H,7,8,9)	InChI=1S/C6H7N3/c1-2-4-6-5(3-1)7-9-8-6/h1,3H,2,4H2,(H,7,8,9)
