25
gdb 101456	3.22534	0.9374	0.77081	0.1778	94.96	-0.233	0.0296	0.2626	1587.1666	0.229354	-352.379166	-352.369132	-352.368188	-352.41443	37.979	
C	-0.0844026073	 1.5690117299	-0.0945662562	-0.393234
C	-0.003893102	 0.0433000627	 0.0280493688	-0.164488
C	 0.7258422993	-0.4718439175	 1.2858135252	 0.032744
C	-0.0071310049	-0.0501847304	 2.5684983627	-0.405186
C	 0.9137593621	-2.0064242821	 1.218349098	-0.000073
C	 1.7315024662	-2.4961820622	-0.0134609515	-0.224942
C	 2.5752583347	-3.7007644303	 0.4741464521	-0.266959
C	 2.5767937913	-3.5244282745	 1.9722987439	-0.072982
C	 1.6824735688	-2.6228647159	 2.3716917949	-0.076712
H	 0.9131144013	 2.0214508771	-0.0536383512	 0.112222
H	-0.5392063374	 1.8584894238	-1.0473328671	 0.110079
H	-0.6846862755	 2.018439912	 0.7019395522	 0.117265
H	-1.0181644733	-0.3806673039	 0.0104653445	 0.088769
H	 0.5009721531	-0.3475231967	-0.8623527575	 0.096869
H	 1.730300174	-0.0214304652	 1.3014139723	 0.0652
H	-0.1271552847	 1.0351295337	 2.6254551852	 0.113203
H	-1.0084146632	-0.4967498143	 2.6103403562	 0.109332
H	 0.5331960401	-0.3599669009	 3.4668936772	 0.113342
H	-0.0969072694	-2.4486440537	 1.1948678117	 0.068694
H	 1.1008136307	-2.7452425831	-0.8700824863	 0.096242
H	 2.4053451516	-1.6924251863	-0.3327598543	 0.100674
H	 2.1143790066	-4.6604905806	 0.1993159984	 0.103238
H	 3.5816470989	-3.7122534401	 0.0398235522	 0.099774
H	 3.2095078195	-4.1100049497	 2.6309633708	 0.087507
H	 1.4795404794	-2.3770894015	 3.4076333778	 0.089423
61.9607	75.682	111.6691	167.8945	208.2601	225.6781	286.2913	310.25	359.1754	389.5143	432.431	510.5277	623.1964	744.8944	772.8479	780.2736	837.1106	856.5175	861.3623	929.5579	951.6949	973.7	974.3154	995.4127	1005.6005	1018.8764	1053.4204	1069.4516	1122.4818	1142.0242	1153.132	1179.9411	1194.1784	1230.8704	1261.2752	1290.9694	1304.7447	1320.0268	1328.5096	1347.8221	1370.2801	1380.015	1388.3846	1410.5491	1417.0889	1483.5139	1483.8471	1496.9105	1498.6792	1500.6825	1507.9851	1516.4112	1687.2824	2952.0327	2987.9534	3004.0321	3011.3056	3030.9351	3033.1653	3034.7428	3053.1483	3060.6203	3095.6053	3098.2337	3098.6132	3107.4932	3115.4733	3179.4185	3206.8175
CCC(C)C1CCC=C1	CC[C@@H](C)[C@H]1CCC=C1	
InChI=1S/C9H16/c1-3-8(2)9-6-4-5-7-9/h4,6,8-9H,3,5,7H2,1-2H3	InChI=1S/C9H16/c1-3-8(2)9-6-4-5-7-9/h4,6,8-9H,3,5,7H2,1-2H3/t8-,9-/m1/s1
