17
gdb 36584	2.9752	0.92148	0.76754	4.529	79.17	-0.2722	0.0166	0.2888	1461.3949	0.134627	-380.821202	-380.811935	-380.810991	-380.855904	33.552	
C	 0.0484737093	-1.2285745269	-0.03431785	-0.425979
C	 0.0147788869	-0.0295193261	-0.1056111865	 0.288661
C	 0.0138684172	 1.4249923861	-0.1837095043	-0.362201
C	 1.3777303129	 2.0310564488	 0.214192256	-0.277981
C	 1.4064025212	 3.5470303986	 0.0928009065	 0.150822
C	 2.6823777016	 4.2376019711	-0.2655052217	-0.272136
N	 1.5838382569	 4.1817399627	-1.2328685457	-0.32327
C	 0.4699752858	 4.2400624451	 0.9583260135	 0.290045
N	-0.272167054	 4.7570395998	 1.6783114775	-0.341038
H	 0.0583664775	-2.2886162785	 0.0273580818	 0.200127
H	-0.246371013	 1.7409986607	-1.2020741174	 0.13757
H	-0.7671915569	 1.8329082668	 0.4695254604	 0.161593
H	 1.6160604358	 1.7390479801	 1.2421885076	 0.138141
H	 2.1651065787	 1.6169343793	-0.424911546	 0.115367
H	 2.888458408	 5.2245930286	 0.1356136612	 0.147266
H	 3.5538166004	 3.6043700216	-0.4097822981	 0.129581
H	 1.7548827616	 3.4550860223	-1.9250549647	 0.243433
59.2037	91.7796	114.3395	160.6961	226.3284	254.6208	331.1053	361.5008	408.7133	486.5361	572.6454	595.4621	625.6688	651.8622	711.336	767.1252	849.1852	898.1399	940.7101	968.6982	984.9116	1033.3596	1046.8636	1088.7156	1145.3155	1185.6781	1243.3512	1290.9371	1300.8877	1319.3529	1374.9745	1386.6822	1471.4855	1485.577	1508.4881	2242.4208	2357.3014	3025.7246	3045.6592	3059.0406	3094.2514	3116.6435	3210.5444	3494.2233	3506.438
C#CCCC1(CN1)C#N	C#CCC[C@]1(CN1)C#N	
InChI=1S/C7H8N2/c1-2-3-4-7(5-8)6-9-7/h1,9H,3-4,6H2	InChI=1S/C7H8N2/c1-2-3-4-7(5-8)6-9-7/h1,9H,3-4,6H2/t7-/m1/s1
