21
gdb 73813	2.41755	1.59333	1.09058	1.8891	85.17	-0.2215	0.0181	0.2395	1189.7148	0.180642	-387.104464	-387.095047	-387.094103	-387.137984	35.827	
C	 0.1172471222	 1.520076098	-0.1318008569	-0.491234
C	 0.0117394015	 0.0328234965	-0.0048261505	 0.20207
C	-1.0932630529	-0.7203560531	 0.1252418557	 0.178303
C	-2.5214408985	-0.2780943189	 0.214519474	-0.512112
C	-0.7257786335	-2.1834138256	 0.1197583093	 0.347784
C	-1.5769129053	-3.2273072289	 0.7871439239	-0.49648
O	-0.1102106866	-2.5830848938	-1.1374929299	-0.305664
C	 0.7361172163	-2.2433027808	-0.0341198386	-0.030236
C	 1.2692561778	-0.8215960734	-0.0699449395	-0.334622
H	 0.7906998597	 1.9335842598	 0.6302452098	 0.122766
H	 0.5414268702	 1.8007877005	-1.104682869	 0.129463
H	-0.8487480313	 2.0205975644	-0.0334354649	 0.123231
H	-2.6171445968	 0.809938152	 0.2213458059	 0.123737
H	-3.1068090688	-0.6597457445	-0.6319859872	 0.132876
H	-3.0032685285	-0.6589573667	 1.1236618471	 0.124666
H	-2.5614795877	-3.2965221727	 0.3118163561	 0.126791
H	-1.0985523626	-4.2069526161	 0.7154051547	 0.129908
H	-1.7319954283	-2.9890491402	 1.8450156832	 0.121596
H	 1.3419332267	-3.0579572493	 0.3560453527	 0.086003
H	 1.850869335	-0.6265933332	-0.9800895054	 0.11736
H	 1.9370448516	-0.6254925338	 0.7804322893	 0.103795
129.5265	143.8852	171.6965	179.8334	214.0995	258.6763	270.2964	294.9591	393.3417	432.0272	444.7252	549.2531	583.1771	640.9312	686.2632	753.4721	848.4894	872.2172	919.2299	957.8005	984.1479	1005.7973	1049.9586	1059.4637	1084.0662	1099.6578	1118.0227	1150.103	1190.2501	1218.1735	1296.4189	1318.2659	1342.2429	1405.8612	1410.3459	1420.9304	1441.8642	1461.5827	1478.1279	1480.6272	1483.4552	1488.4407	1491.3749	1500.4612	1723.1396	3012.2471	3016.9209	3019.3886	3034.8022	3049.9598	3058.0254	3062.3414	3094.7913	3114.5875	3121.4515	3124.3608	3137.1534
CC1=C(C)C2(C)OC2C1	CC1=C(C)[C@@]2(C)O[C@H]2C1	
InChI=1S/C8H12O/c1-5-4-7-8(3,9-7)6(5)2/h7H,4H2,1-3H3	InChI=1S/C8H12O/c1-5-4-7-8(3,9-7)6(5)2/h7H,4H2,1-3H3/t7-,8+/m0/s1
