21
gdb 57726	3.2605	0.72474	0.69997	1.2853	80.78	-0.2515	-0.0347	0.2168	1671.8909	0.177774	-424.252138	-424.241123	-424.240179	-424.289636	38.198	
C	 0.0381148622	 1.5913764437	-0.0052832025	-0.414009
C	 0.0531066538	 0.0600605846	 0.0447859676	 0.152808
C	 0.9121017426	-0.4519717227	 1.2216070165	-0.426382
C	-1.3789122469	-0.5417359272	 0.094765877	-0.223868
C	-2.194713159	-0.2092557022	 1.3578707863	-0.292598
C	-3.6149670366	-0.7159379573	 1.2305761725	 0.161861
O	-4.1446599887	-1.4814746402	 1.9928095104	-0.233577
C	 0.6846161987	-0.4974224918	-1.2290283293	 0.148576
O	 1.0943331385	 0.1564180785	-2.1516479855	-0.249298
H	 1.0476717188	 1.978055435	-0.1651877506	 0.131549
H	-0.5819728249	 1.9531951836	-0.8301953267	 0.125133
H	-0.3419579245	 2.014785864	 0.9287661562	 0.111989
H	 0.5095549792	-0.1061887883	 2.1775084271	 0.130502
H	 0.9475338801	-1.5466658321	 1.2479079837	 0.121572
H	 1.9390837563	-0.0818463467	 1.1418569686	 0.12998
H	-1.9317916742	-0.1907861507	-0.7867940438	 0.113002
H	-1.3100545655	-1.6334775454	 0.0018360213	 0.112913
H	-1.757408945	-0.6437131118	 2.2596139829	 0.127252
H	-2.2482574146	 0.8802077646	 1.4873161524	 0.124757
H	-4.1625766027	-0.3216203322	 0.3416947418	 0.074063
H	 0.7450220124	-1.6122139254	-1.247125986	 0.073774
47.7028	55.3737	62.6874	92.8608	174.1858	207.9908	237.7846	277.6011	285.3804	319.665	346.9857	388.8389	425.8178	523.1947	638.6475	760.943	769.7138	845.62	886.1365	929.8742	951.615	1000.2272	1016.1603	1020.798	1074.1269	1086.0671	1177.1124	1203.0403	1231.7114	1260.979	1289.3246	1343.1919	1380.8492	1399.6941	1411.345	1428.1432	1435.0638	1463.6382	1480.0047	1487.3754	1491.0527	1504.3869	1508.7547	1833.7313	1838.3075	2845.2444	2852.0745	3011.8054	3028.2304	3033.376	3047.5224	3051.9686	3101.9639	3108.9971	3117.4049	3118.1452	3123.2445
CC(C)(CCC=O)C=O	CC(C)(CCC=O)C=O	
InChI=1S/C7H12O2/c1-7(2,6-9)4-3-5-8/h5-6H,3-4H2,1-2H3	InChI=1S/C7H12O2/c1-7(2,6-9)4-3-5-8/h5-6H,3-4H2,1-2H3
