14
gdb 127180	4.3425	1.09361	0.87848	3.7484	67.01	-0.247	-0.0538	0.1932	1211.473	0.100494	-469.996292	-469.988332	-469.987388	-470.029721	27.945	
C	 0.0330345662	 1.4628569955	-0.0032520106	-0.365442
N	-0.0016970649	 0.0071936842	-0.0056366491	-0.196004
C	-0.0466696189	-0.6838605923	 1.1955041668	 0.149729
O	-0.0593839131	-0.1433291319	 2.2763591284	-0.324879
C	 0.0116243636	-0.643275398	-1.228513632	 0.3844
C	 0.0533219747	-0.1401696658	-2.4943005496	-0.068887
O	 0.0487997207	-1.1759988884	-3.3459947409	-0.154736
N	 0.0028921784	-2.3436647875	-2.5726874731	 0.012391
N	-0.0179412226	-2.0144801233	-1.352675082	-0.205582
H	 0.9458559335	 1.8271297327	-0.4873866774	 0.138484
H	-0.8376932696	 1.8697852692	-0.5291543383	 0.138484
H	 0.0163808205	 1.7853633046	 1.0366313838	 0.182933
H	-0.0693061315	-1.772618491	 1.0476745359	 0.136887
H	 0.086652683	 0.8485844419	-2.9150245017	 0.172221
45.859	127.8901	173.6118	183.7954	298.6574	317.4114	381.0016	460.4086	477.7037	638.7951	718.8749	738.0303	781.3366	810.5433	958.737	1001.1445	1039.3538	1055.5727	1134.5589	1160.0672	1171.4159	1278.0163	1333.3645	1377.5643	1429.7062	1437.2446	1468.6457	1497.3749	1511.5985	1656.8735	1800.5379	3029.4645	3050.6439	3087.0043	3171.3586	3307.813
CN(C=O)C1=CON=N1	CN(C=O)c1conn1	
InChI=1S/C4H5N3O2/c1-7(3-8)4-2-9-6-5-4/h2-3H,1H3	InChI=1S/C4H5N3O2/c1-7(3-8)4-2-9-6-5-4/h2-3H,1H3
