16
gdb 82159	3.42854	1.19745	1.04352	4.2458	66.79	-0.253	0.0202	0.2733	1146.8323	0.123243	-474.963901	-474.955703	-474.954759	-474.997415	29.888	
O	 0.1344384918	 1.4193919853	-0.083822654	-0.42478
C	 0.0883579239	 0.0281792904	-0.0650374778	 0.081167
C	-1.3000005363	-0.6230793686	 0.0485183038	-0.017434
O	-2.033925775	-0.104616993	-1.0668100079	-0.242666
C	-1.1832515921	-1.235153859	-1.2921318263	-0.01331
C	 0.2328944693	-0.7094169368	-1.471633788	 0.056692
O	 0.3892403096	 0.1049495489	-2.6111462188	-0.1936
C	 1.5933027822	 0.7071919734	-2.7542980553	 0.138189
N	 1.80385554	 1.4470366037	-3.7527417653	-0.440292
H	-0.5601848056	 1.7051217493	-0.6932313416	 0.303504
H	 0.8150198486	-0.325650877	 0.6693442862	 0.098704
H	-1.8631986652	-0.9386716808	 0.9184490054	 0.117185
H	-1.6405465337	-2.1268955387	-1.7019008025	 0.120391
H	 0.984441772	-1.5073727393	-1.4391752309	 0.093444
H	 2.3007609007	 0.4734187977	-1.9489353846	 0.091935
H	 2.7506513498	 1.8188474347	-3.7152661223	 0.230872
72.1078	102.8766	115.2205	194.5651	245.3175	307.1121	461.5855	482.5945	527.2432	668.4674	695.1988	758.7803	809.926	827.5318	861.917	894.3944	915.6953	956.6276	1024.4167	1038.6374	1040.9926	1057.0086	1130.1747	1149.467	1189.0389	1231.6499	1240.6815	1273.6148	1287.3364	1312.25	1365.274	1378.1281	1425.8913	1443.671	1749.318	3033.5634	3045.1154	3098.7915	3193.1062	3209.1262	3519.0193	3764.0707
OC1C2OC2C1OC=N	O[C@H]1[C@H]2O[C@H]2[C@H]1O[CH][NH]	
InChI=1S/C5H7NO3/c6-1-8-3-2(7)4-5(3)9-4/h1-7H	InChI=1S/C5H7NO3/c6-1-8-3-2(7)4-5(3)9-4/h1-7H/t2-,3+,4-,5+/m1/s1
