14
gdb 131939	2.78098	1.62803	1.02807	5.9334	70.93	-0.2032	-0.0602	0.143	1059.5968	0.102665	-469.960879	-469.953357	-469.952413	-469.99289	28.797	
N	-0.0023110419	 1.4324435989	 0.1727568798	-0.614583
C	 0.00161016	 0.0555379458	 0.0562586523	 0.190581
C	-1.0746256217	-0.8080176329	 0.0267468115	-0.142626
N	-0.5824870733	-2.1050428236	-0.0222815414	-0.242671
C	 0.7639007367	-2.1135216922	-0.0240556955	-0.10946
C	 1.165231449	-0.786080229	 0.0193897905	 0.290952
N	 2.5200259115	-0.3686477563	-0.0055933184	 0.337178
O	 3.3954327076	-1.2310780128	-0.0273270812	-0.386244
O	 2.7500587239	 0.8484326599	-0.0115996235	-0.405957
H	 0.8885783667	 1.8451033811	-0.0680485972	 0.271475
H	-0.7967702272	 1.8990217059	-0.237504063	 0.246347
H	-2.1332166348	-0.6126337327	 0.0467658159	 0.125366
H	-1.1579203543	-2.9289471642	-0.048752269	 0.276376
H	 1.3553597078	-3.0109291178	-0.0623129408	 0.163264
93.2824	192.6111	234.7323	299.801	353.6094	371.7549	452.685	509.4981	563.9973	606.0747	624.5984	638.7069	700.4096	723.7172	763.265	817.6788	844.1679	899.574	1077.9659	1087.4038	1140.7642	1224.8423	1279.3411	1333.4833	1412.8437	1445.4986	1506.8766	1529.9984	1563.5459	1636.2474	1652.1093	3278.0943	3301.9866	3553.8552	3667.9407	3681.7467
NC1=CNC=C1N(=O)=O	Nc1c[nH]cc1N(=O)=O	
InChI=1S/C4H5N3O2/c5-3-1-6-2-4(3)7(8)9/h1-2,6H,5H2	InChI=1S/C4H5N3O2/c5-3-1-6-2-4(3)7(8)9/h1-2,6H,5H2
