17
gdb 77058	3.05295	1.04484	0.89989	1.6847	74.31	-0.2551	-0.0337	0.2214	1297.1316	0.133017	-421.793116	-421.783838	-421.782894	-421.827673	33.796	
O	 0.4492752371	 1.0627026284	 0.6427283379	-0.426585
C	 0.148439127	-0.1789449492	 0.0788292597	 0.039198
C	-1.3072985314	-0.7755367921	 0.1763121324	-0.066601
C	-2.3773020632	 0.3056904603	 0.3855834582	-0.358636
C	-3.7307259721	-0.226736276	 0.2904858151	 0.289025
C	-4.834409857	-0.6946492783	 0.2018709481	-0.43269
C	-1.1836809654	-1.2597487926	-1.3063294511	-0.342308
C	-0.0420848972	-0.2453860204	-1.4372472449	 0.342314
O	 0.3527045163	 0.4834008011	-2.3045767253	-0.306136
H	 0.6080624053	 1.6729621291	-0.0889952411	 0.300553
H	 0.8678719616	-0.9388048929	 0.4161949385	 0.109104
H	-1.4227408274	-1.5691748498	 0.9149207887	 0.095638
H	-2.2205656293	 0.7771281549	 1.3622999712	 0.148701
H	-2.245930085	 1.1069715599	-0.3541623396	 0.132411
H	-5.8169846215	-1.0907142636	 0.1308020727	 0.197105
H	-0.8363906662	-2.2932348409	-1.390514605	 0.134456
H	-2.0437645015	-1.114666058	-1.9627037254	 0.144452
58.5751	87.241	124.5656	187.0971	199.6624	267.0471	336.5376	354.937	408.4802	489.2885	543.7087	598.1346	628.0582	644.6291	728.7168	756.7371	833.4788	858.3191	893.7377	972.7951	1011.5373	1039.402	1071.0791	1102.1896	1156.8214	1177.037	1204.3335	1241.1585	1269.2613	1315.9505	1341.0318	1381.0375	1394.4261	1445.8441	1467.3409	1874.6382	2239.1654	3008.0514	3021.6086	3065.6444	3070.8056	3108.9043	3132.7058	3506.5786	3769.2515
OC1C(CC#C)CC1=O	O[C@H]1[C@@H](CC#C)CC1=O	
InChI=1S/C7H8O2/c1-2-3-5-4-6(8)7(5)9/h1,5,7,9H,3-4H2	InChI=1S/C7H8O2/c1-2-3-5-4-6(8)7(5)9/h1,5,7,9H,3-4H2/t5-,7-/m0/s1
