18
gdb 59446	2.86424	1.18113	0.92467	7.0632	68.83	-0.2505	0.0102	0.2607	1268.1541	0.14684	-476.228938	-476.219894	-476.21895	-476.263152	33.281	
C	-1.3852138122	 3.1065034768	 1.1428201555	-0.407923
C	-1.0807114895	 1.9961501662	 0.134468749	-0.014326
N	 0.0683536081	 1.1355117103	 0.4987351583	-0.528099
H	 0.8975545213	 1.7015456971	 0.6577754614	 0.249451
H	-0.1169656676	 0.6406164247	 1.3678432644	 0.242801
H	 0.054412623	 0.2585558157	-1.0327436211	 0.327661
C	-2.2863980951	 1.0975826342	-0.0876436868	 0.063997
O	-3.1160392332	 1.3983283698	-1.2082480069	-0.239145
C	-2.392724672	 0.1612614659	-1.2180178078	-0.092762
C	-1.3640951703	-0.0310136005	-2.3314882078	 0.390464
O	-1.728509529	-0.2660373573	-3.452643452	-0.327228
O	-0.0747080532	 0.0227109998	-1.9924665532	-0.38373
H	-0.5221291501	 3.7674692969	 1.270993395	 0.119094
H	-2.2291901306	 3.7144009967	 0.8022177048	 0.145226
H	-1.6422942257	 2.6882204906	 2.1230552361	 0.117209
H	-0.8361035467	 2.4455782107	-0.8335543391	 0.121855
H	-2.8397725694	 0.8453314541	 0.8213038317	 0.092049
H	-3.0286926379	-0.7169356817	-1.1008748616	 0.123407
47.6455	108.4839	184.4698	212.7721	252.1328	268.3947	319.4596	332.596	397.7237	438.7437	507.6386	545.5417	650.9641	757.2589	793.7475	867.5864	888.3918	932.7227	947.1051	978.0966	1011.5851	1032.0495	1085.7777	1120.0175	1141.4786	1185.115	1214.015	1270.3805	1296.1885	1343.3098	1387.3996	1398.4965	1410.5983	1464.8306	1473.8471	1492.9979	1499.2464	1651.3636	1855.7103	3029.0423	3060.3556	3071.5226	3101.3265	3108.7986	3111.9666	3162.6335	3482.4066	3561.4931
CC([NH3+])C1OC1C([O-])=O	C[C@@H](N)[C@H]1O[C@H]1C(=O)O	
InChI=1S/C5H9NO3/c1-2(6)3-4(9-3)5(7)8/h2-4H,6H2,1H3,(H,7,8)	InChI=1S/C5H9NO3/c1-2(6)3-4(9-3)5(7)8/h2-4H,6H2,1H3,(H,7,8)/t2-,3-,4-/m1/s1
