15
gdb 30335	3.04984	1.64901	1.16732	1.0732	67.42	-0.2094	0.0024	0.2118	1003.3006	0.11438	-457.765805	-457.758737	-457.757793	-457.797473	27.272	
O	-0.0321579961	 1.4696162262	 0.162616711	-0.424964
C	 0.0149571798	 0.0616370187	-0.0402943946	-0.043059
C	 0.6501358205	-0.7410113565	 1.1587328566	-0.121813
O	-0.4027797421	-1.4357352817	 1.8979379478	-0.286441
C	-1.4744284693	-1.3832693175	 1.0687243189	 0.326936
C	-1.2989417605	-0.6308720447	-0.0410639886	 0.182433
O	-2.433926614	-0.6124697474	-0.7942216839	-0.189564
C	-3.3230004226	-1.3944744464	-0.1186818986	 0.005544
C	-2.800809131	-1.9029273099	 1.0408462454	-0.355767
H	-0.7243260006	 1.6456403058	 0.8105453338	 0.280714
H	 0.6244324905	-0.0635091177	-0.9398113112	 0.107121
H	 1.3449490542	-1.5012476962	 0.7885725353	 0.123272
H	 1.1670691128	-0.068611147	 1.8460238081	 0.129025
H	-4.2866995438	-1.5073471342	-0.5882442092	 0.140932
H	-3.3027850978	-2.5466215914	 1.7442586393	 0.125632
100.5018	144.0824	293.1701	330.7658	348.7818	415.8203	494.5803	614.9946	634.5859	696.3735	732.332	748.2307	774.6714	815.4426	874.3459	917.7313	957.8207	992.6811	1052.5204	1064.381	1118.245	1168.6002	1217.6015	1232.8607	1278.6389	1282.758	1344.8574	1364.3907	1428.4838	1482.3841	1500.3006	1516.5471	1666.7805	3054.3547	3074.6359	3128.9732	3264.4251	3284.2544	3793.9923
OC1COC2=C1OC=C2	O[C@H]1COc2c1occ2	
InChI=1S/C6H6O3/c7-4-3-9-5-1-2-8-6(4)5/h1-2,4,7H,3H2	InChI=1S/C6H6O3/c7-4-3-9-5-1-2-8-6(4)5/h1-2,4,7H,3H2/t4-/m0/s1
