23
gdb 116351	2.60108	1.24714	0.90166	1.4483	88.67	-0.2223	0.0363	0.2586	1354.7196	0.206674	-388.31146	-388.301937	-388.300993	-388.345605	36.471	
C	-0.0811305816	 1.5677183683	-0.0952330773	-0.457729
C	 0.0154608425	 0.0624978872	-0.0694444538	 0.320931
C	-0.0132819422	-0.6390307767	-1.2082328248	-0.156588
C	-0.0090648779	-2.1409366962	-1.3089086898	-0.241357
C	-0.3575349402	-2.7936418837	 0.0329548828	-0.215366
C	 0.4251940755	-2.1233445504	 1.1619610736	-0.210678
C	 0.0965238417	-0.6238503328	 1.2891871382	-0.048925
C	 1.1077124243	 0.0251424141	 2.2464527049	-0.101123
O	 0.5629941861	 1.2292102625	 2.7698683621	-0.418823
H	 0.7920338483	 2.0469959215	 0.3582951445	 0.120041
H	-0.1840971926	 1.9312452107	-1.1215504775	 0.10292
H	-0.9424161795	 1.9169792168	 0.4861394057	 0.125077
H	-0.0660545928	-0.0941330726	-2.1495504532	 0.070098
H	-0.7168587688	-2.4592897501	-2.0848993743	 0.097123
H	 0.9762277078	-2.4921426555	-1.6529624219	 0.100953
H	-1.4330151643	-2.6828333091	 0.2225233129	 0.097746
H	-0.1489280276	-3.8686598143	 0.0053748035	 0.087722
H	 0.2278658542	-2.6192251447	 2.11928329	 0.090818
H	 1.5013335761	-2.2389374936	 0.9670175351	 0.092455
H	-0.8816453909	-0.5164449846	 1.7837596001	 0.088205
H	 1.3221638408	-0.6841215406	 3.0616460116	 0.084183
H	 2.0547978348	 0.2097797204	 1.7142498786	 0.087421
H	 1.2319108063	 1.6468543533	 3.320294369	 0.284895
60.2248	134.9031	188.3091	208.3282	237.8747	262.0132	299.3806	317.7139	349.1909	368.9981	460.591	519.95	573.1251	644.8094	731.4824	822.581	872.621	876.6292	921.4066	942.4294	987.6986	1032.4685	1048.3545	1064.4563	1081.2107	1095.369	1104.632	1121.987	1159.0202	1177.0299	1226.0253	1253.8358	1264.2788	1287.2246	1309.0751	1341.7603	1367.2949	1374.4786	1383.5125	1395.0446	1421.2478	1453.0125	1476.6154	1478.399	1481.6499	1489.5	1498.0104	1521.1918	1727.7172	2962.3271	2980.5689	2986.7114	2997.5687	3005.2152	3020.7207	3030.7427	3037.6032	3058.9319	3069.3968	3084.8272	3109.9774	3133.3173	3826.9577
CC1=CCCCC1CO	CC1=CCCC[C@H]1CO	
InChI=1S/C8H14O/c1-7-4-2-3-5-8(7)6-9/h4,8-9H,2-3,5-6H2,1H3	InChI=1S/C8H14O/c1-7-4-2-3-5-8(7)6-9/h4,8-9H,2-3,5-6H2,1H3/t8-/m0/s1
