16
gdb 36059	2.23682	1.40427	1.04469	2.732	73.99	-0.2734	0.0125	0.2858	1161.176	0.122752	-400.699924	-400.691068	-400.690124	-400.73401	31.754	
C	-0.1195668986	-1.1532497365	-0.3381310763	-0.421189
C	-0.0601936316	 0.0250992301	-0.1127298971	 0.30134
C	 0.043493613	 1.4542797638	 0.1462944935	-0.424196
C	 1.5016131177	 1.9689208957	 0.1185465412	 0.095523
C	 2.1236152188	 1.9727032245	-1.3077606255	-0.103909
O	 1.8813786523	 3.3856427865	-1.4418765702	-0.2643
C	 1.5913148757	 3.5151567075	-0.0409604522	-0.117542
C	 2.3064851018	 1.3850198067	 1.1815182577	 0.25599
N	 2.955369095	 0.9453350905	 2.0309621027	-0.33313
H	-0.1797322949	-2.1971865175	-0.5248181466	 0.208566
H	-0.5152656806	 2.0140501019	-0.6135366265	 0.151766
H	-0.4054179517	 1.6989459903	 1.116251656	 0.151181
H	 3.1922756187	 1.7303583156	-1.3272490708	 0.125041
H	 1.5922205695	 1.3779347015	-2.0565872655	 0.131025
H	 0.6660333858	 4.0699046496	 0.1485388015	 0.119921
H	 2.4176942892	 3.9702705597	 0.5174573679	 0.123911
67.4311	102.2265	114.2938	183.0617	199.8614	315.3858	338.6021	357.7196	458.5905	546.6994	560.5867	638.1425	659.3644	674.4126	833.1238	897.2747	909.1388	968.6631	987.6448	995.7691	1036.959	1065.3222	1146.9495	1155.9638	1165.1891	1228.4917	1298.8751	1306.9955	1340.6174	1374.4652	1468.7663	1509.4203	1533.3416	2244.3653	2357.2189	3024.1411	3030.6535	3036.5127	3069.784	3080.5621	3095.0172	3504.3011
C#CCC1(COC1)C#N	C#CCC1(COC1)C#N	
InChI=1S/C7H7NO/c1-2-3-7(4-8)5-9-6-7/h1H,3,5-6H2	InChI=1S/C7H7NO/c1-2-3-7(4-8)5-9-6-7/h1H,3,5-6H2
