16
gdb 131628	1.98531	1.58164	0.93525	2.9159	66.89	-0.2506	-0.0068	0.2438	1201.7796	0.125461	-471.189904	-471.181242	-471.180298	-471.224051	30.825	
O	 0.0837113616	 1.3157086675	 0.3758397957	-0.415023
C	 0.0406957109	 0.0044709008	-0.1763868755	-0.19864
C	-1.332495173	-0.589147042	-0.0966465398	 0.237415
C	-1.8224812639	-1.8760440251	 0.0164055523	 0.167433
C	-1.0744960498	-3.1690582014	 0.125634603	-0.180858
O	-0.0233826547	-3.1167187772	 1.0893900415	-0.411972
N	-3.1869095081	-1.8159891142	 0.0415011	-0.251565
N	-3.5706079013	-0.5750261201	-0.0513857458	-0.122742
N	-2.4527724862	 0.1687455503	-0.1411389068	-0.209369
H	 0.0106050712	 1.2346499309	 1.3327776173	 0.291577
H	 0.347251599	 0.1208672945	-1.2224888541	 0.138084
H	 0.7496997924	-0.6828772788	 0.2994249287	 0.139729
H	-1.7958210236	-3.967811026	 0.3418751064	 0.123165
H	-0.5794725037	-3.4218532118	-0.8180541095	 0.123453
H	-0.4316920894	-2.95954794	 1.9474725595	 0.284776
H	-2.5061194113	 1.1750112326	-0.1846774928	 0.284537
65.544	77.8215	148.3127	191.9634	227.1997	310.4498	358.3706	369.594	407.6892	503.2407	624.5263	659.7467	736.3345	756.6311	781.1182	969.6469	980.6193	1024.8789	1046.842	1053.3311	1079.0303	1174.8939	1189.0647	1222.2982	1253.6925	1300.65	1365.1699	1383.3088	1387.8899	1405.7928	1419.3072	1498.6174	1500.986	1507.2306	1611.5573	3025.8381	3034.675	3073.0919	3075.2184	3648.3083	3808.5479	3811.8962
OCC1=C(CO)N=NN1	OCc1c(CO)nn[nH]1	
InChI=1S/C4H7N3O2/c8-1-3-4(2-9)6-7-5-3/h8-9H,1-2H2,(H,5,6,7)	InChI=1S/C4H7N3O2/c8-1-3-4(2-9)6-7-5-3/h8-9H,1-2H2,(H,5,6,7)
