19
gdb 53315	5.20758	0.78762	0.75489	1.5792	86.08	-0.233	0.0536	0.2866	1590.1575	0.156703	-385.836839	-385.827176	-385.826232	-385.873208	34.457	
C	-0.0348253037	 1.5351136781	-0.0495616468	-0.497579
C	-0.0414228976	 0.0795212772	-0.0365908828	 0.055653
C	-0.0523189787	-1.1248553592	-0.0219032356	 0.102039
C	-0.0691532667	-2.5738655788	-0.000654166	-0.203109
C	 0.3951122988	-3.3336091083	 1.3083576656	-0.305023
C	-0.9787501595	-4.0266648936	 1.3429298017	 0.420209
C	-1.3291311424	-5.3684857447	 1.8967179138	-0.500296
O	-1.9485495442	-2.9702609596	 1.446928369	-0.277008
C	-1.434328923	-3.285977955	 0.1532178257	-0.047093
H	 0.6377028766	 1.9370376545	 0.716627535	 0.146243
H	 0.297089559	 1.9258542815	-1.0180485377	 0.144432
H	-1.0347596591	 1.9385341728	 0.145392153	 0.148904
H	 0.4657281693	-2.9792743307	-0.86657431	 0.099968
H	 1.2332751502	-4.0079307442	 1.1184097978	 0.105506
H	 0.6103043372	-2.7021985608	 2.1719714155	 0.116203
H	-1.2469700833	-5.3706862977	 2.9896316087	 0.132341
H	-2.3562077798	-5.6340985288	 1.6328445021	 0.135025
H	-0.6544503991	-6.1383499551	 1.5084169033	 0.123552
H	-2.150638354	-3.5310909577	-0.6236384924	 0.100033
13.6712	68.0048	91.2083	187.1081	199.9411	249.7691	293.0051	333.4995	376.4642	436.1298	475.6179	551.96	660.0236	714.5203	762.5082	856.9382	891.9587	922.7628	940.3242	962.7426	1015.1635	1050.3109	1052.6392	1056.7602	1073.5287	1154.5552	1188.7373	1197.2543	1205.8321	1251.0084	1275.1922	1343.9253	1404.709	1414.694	1455.7042	1476.6659	1478.4304	1478.8838	1486.7127	1498.3391	2369.5903	3024.2602	3033.1956	3044.0952	3072.026	3083.56	3085.0407	3094.8648	3120.5671	3134.9093	3175.3162	13.6211	68.0051	91.2085	187.1079	199.9411	249.7696	293.0068	333.5022	376.4672	436.1323	475.62	551.9613	660.0238	714.5207	762.5084	856.9385	891.9586	922.7629	940.3243	962.7424	1015.1637	1050.3116	1052.6401	1056.7608	1073.5284	1154.5546	1188.7375	1197.254	1205.8318	1251.0086	1275.1922	1343.9251	1404.7087	1414.6944	1455.7036	1476.6652	1478.4314	1478.885	1486.7122	1498.3386	2369.5914	3024.2601	3033.1958	3044.0952	3072.0261	3083.5599	3085.0405	3094.8648	3120.5671	3134.9094	3175.3163
CC#CC1CC2(C)OC12	CC#C[C@H]1C[C@@]2(C)O[C@@H]12	
InChI=1S/C8H10O/c1-3-4-6-5-8(2)7(6)9-8/h6-7H,5H2,1-2H3	InChI=1S/C8H10O/c1-3-4-6-5-8(2)7(6)9-8/h6-7H,5H2,1-2H3/t6-,7-,8+/m0/s1
