19
gdb 68422	2.60751	1.62605	1.25193	4.8569	79.	-0.2444	0.0291	0.2735	1051.4035	0.161372	-382.065787	-382.057923	-382.056979	-382.097875	31.239	
C	-0.0323199964	 1.5224335121	 0.0582573888	-0.507845
C	 0.0449727957	 0.0155432248	 0.0468102501	 0.322784
C	 0.9516139392	-0.7988301755	-0.934299578	-0.278077
C	 0.6727487523	-1.928305403	 0.095127193	-0.001
C	 0.7127364639	-0.8295444077	 1.1820358062	-0.252675
N	-0.7851980849	-2.1788931695	-0.0082384001	-0.296145
C	-1.2870519716	-0.7762220054	-0.1257118871	-0.187928
C	-2.2900735164	-0.4622883198	 0.9001632281	 0.316599
N	-3.074279546	-0.1795912811	 1.7007750611	-0.340023
H	 0.9587620687	 1.9616271611	 0.2069220012	 0.121916
H	-0.4306700365	 1.9067475664	-0.8879438075	 0.120252
H	-0.684003533	 1.8774806855	 0.8635450261	 0.144993
H	 0.6080444162	-0.9437041229	-1.964152935	 0.087115
H	 1.9827120541	-0.4385892606	-0.9248157857	 0.105236
H	 1.256191505	-2.8457862458	 0.1549981691	 0.078748
H	 1.723952123	-0.4837484087	 1.4023127051	 0.104489
H	 0.1490514907	-1.0059114879	 2.1004534456	 0.123468
H	-1.0010569992	-2.6906975927	-0.8580525518	 0.224489
H	-1.738041875	-0.5698349995	-1.1036417093	 0.113604
118.3946	140.4238	222.0508	277.1823	299.7364	366.0773	449.1145	477.1382	525.3118	569.6825	613.0665	691.4776	801.2071	823.5296	856.9729	877.4743	899.163	928.448	966.5317	989.6018	990.9392	1021.4921	1053.402	1072.4489	1117.6309	1124.7129	1172.4369	1205.2336	1232.2281	1247.7951	1253.7904	1298.4153	1330.0594	1355.9006	1416.6859	1418.2547	1478.2043	1491.9518	1495.7801	1516.2403	2355.7599	3029.6929	3034.2028	3044.9896	3075.5175	3094.7316	3106.9589	3116.0752	3132.6638	3141.6843	3515.821
CC12CC(C1)NC2C#N	C[C@@]12C[C@@H](C1)N[C@H]2C#N	
InChI=1S/C7H10N2/c1-7-2-5(3-7)9-6(7)4-8/h5-6,9H,2-3H2,1H3	InChI=1S/C7H10N2/c1-7-2-5(3-7)9-6(7)4-8/h5-6,9H,2-3H2,1H3/t5-,6-,7+/m0/s1
