17
gdb 7907	3.45311	1.75936	1.2548	3.8476	71.95	-0.2395	-0.0176	0.2219	986.0261	0.142175	-363.927675	-363.919419	-363.918475	-363.960474	30.04	
C	-0.0407451437	 1.617336099	-0.0492351227	-0.389028
C	 0.017474515	 0.0848793188	 0.0193601194	-0.002781
N	 0.7586158026	-0.5094874677	-1.0754574131	-0.33486
C	 1.8016866751	-1.3061266258	-0.6643744946	 0.353089
O	 2.5616154403	-1.9370618271	-1.371097874	-0.386026
C	 1.7962610452	-1.2241977555	 0.835400514	 0.210052
C	 2.8166869442	-1.9534184265	 1.6410025464	-0.48623
C	 0.7814418982	-0.4413260528	 1.2120229927	-0.197757
H	 0.9686642317	 2.0375148168	-0.0590729934	 0.131315
H	-0.5640332152	 1.9464228481	-0.9527316115	 0.118706
H	-0.5802197322	 2.0180315141	 0.8148693412	 0.121506
H	-1.0140472262	-0.3024206899	 0.041714874	 0.097628
H	 0.5088118374	-0.4187448712	-2.0457428166	 0.249412
H	 3.8264022516	-1.633776967	 1.3612898425	 0.144712
H	 2.6795421852	-1.7918774278	 2.7129340796	 0.118697
H	 2.7697267547	-3.0285495354	 1.436275914	 0.145052
H	 0.5033711661	-0.17574886	 2.2250240819	 0.106513
73.8566	108.0219	154.2973	242.2375	257.8119	326.5171	351.7691	413.9625	503.9654	525.4418	609.772	711.8381	775.0804	784.6858	863.2293	898.6916	965.8262	1014.7585	1044.5233	1066.9014	1096.2615	1141.313	1167.7905	1230.7278	1296.9618	1336.9894	1372.4827	1402.6671	1414.8611	1418.7104	1471.7237	1483.7095	1493.0148	1496.4194	1711.6589	1816.1196	2972.9672	3036.8986	3037.7638	3091.5475	3106.4257	3123.0417	3123.5897	3205.288	3665.5998
CC1NC(=O)C(C)=C1	C[C@H]1NC(=O)C(=C1)C	
InChI=1S/C6H9NO/c1-4-3-5(2)7-6(4)8/h3,5H,1-2H3,(H,7,8)	InChI=1S/C6H9NO/c1-4-3-5(2)7-6(4)8/h3,5H,1-2H3,(H,7,8)/t5-/m1/s1
