16
gdb 44893	3.95629	1.18662	1.10531	2.7725	73.47	-0.2557	-0.0309	0.2247	1094.41	0.126196	-400.769949	-400.762832	-400.761888	-400.801615	27.738	
O	 0.0260666515	 0.0599540147	 0.0226320753	-0.319447
C	 0.0196082645	 1.2586252413	 0.0152853597	 0.428328
C	-1.1885165992	 2.224184632	 0.0450653276	-0.347452
C	-0.4013498883	 3.5457652697	-0.0032326717	-0.02809
C	 0.668343239	 3.2516428489	-1.0942846624	-0.256273
C	 1.1999487539	 2.2255407226	-0.0380459251	-0.125799
C	 0.7272468651	 3.2639893956	 1.0545987559	-0.163662
C	 1.6514216458	 4.3614572882	 1.2796374198	 0.270452
N	 2.3825439539	 5.236717625	 1.4711021593	-0.324527
H	-1.8369050616	 2.0736318625	-0.8227726847	 0.137042
H	-1.7878705963	 2.0865210238	 0.9499827154	 0.134217
H	-0.9597488311	 4.4791128721	 0.0220377954	 0.098954
H	 0.3256351849	 2.859282394	-2.0544797081	 0.116641
H	 1.3643258808	 4.0773866312	-1.2466070045	 0.145139
H	 2.2015295594	 1.8042162013	-0.0476338756	 0.106971
H	 0.4102648677	 2.8534898971	 2.0180520337	 0.127508
118.6089	150.7057	185.7406	357.7503	419.1779	452.5241	515.5687	550.4149	595.0899	610.1832	769.1324	820.6024	832.5789	871.7807	895.618	947.921	965.5448	989.6514	1011.6935	1043.9518	1079.7048	1093.0942	1144.5626	1155.0938	1199.3229	1222.8097	1228.1716	1259.0389	1275.0527	1297.7077	1360.4265	1461.4024	1512.0524	1879.5928	2353.7417	3062.3962	3069.2835	3075.4371	3110.5833	3140.794	3143.5094	3165.7097
O=C1CC2CC1C2C#N	O=C1C[C@@H]2C[C@H]1[C@H]2C#N	
InChI=1S/C7H7NO/c8-3-6-4-1-5(6)7(9)2-4/h4-6H,1-2H2	InChI=1S/C7H7NO/c8-3-6-4-1-5(6)7(9)2-4/h4-6H,1-2H2/t4-,5-,6-/m0/s1
