14
gdb 32361	5.08642	1.06298	0.8842	6.4738	68.36	-0.2399	-0.0781	0.1618	1228.1317	0.100705	-473.853802	-473.846087	-473.845143	-473.886645	27.91	
C	 0.0842928483	 1.4063826329	 0.0066424092	-0.256777
O	 0.0125604622	-0.0093760194	 0.0025961599	-0.256008
C	-1.2264427154	-0.556087369	 0.0108611495	 0.235858
C	-2.4175151506	 0.0879248597	 0.0226931873	-0.024018
O	-3.5737620247	-0.5954400065	 0.0298223029	-0.206164
C	-3.6085285033	-2.0105641537	 0.0254483873	 0.450364
O	-4.6853416335	-2.5264145013	 0.0315022215	-0.329895
N	-2.3899565309	-2.6746984417	 0.01318135	-0.313825
C	-1.2932881258	-1.9885199839	 0.006613441	-0.000757
H	 1.1442962352	 1.6606665176	-0.0012395062	 0.150752
H	-0.4001728415	 1.831304689	-0.8826005887	 0.131675
H	-0.3854565723	 1.8254526199	 0.9064955628	 0.131673
H	-2.5667324978	 1.1597632104	 0.027485445	 0.143654
H	-0.3496734199	-2.536093844	-0.0028867115	 0.143467
63.3729	101.8661	217.8279	239.3719	360.6762	377.2607	400.2128	499.6588	517.9249	542.4279	644.909	742.7272	791.3708	798.3966	880.1698	939.4391	1010.3662	1038.1235	1074.8289	1178.8669	1207.9625	1249.2613	1310.4885	1371.7164	1439.1605	1486.7489	1488.1326	1505.4156	1579.3617	1712.8072	1869.7714	3001.8971	3061.2509	3129.2765	3148.9491	3222.4398
COC1=COC(=O)N=C1	COc1coc(=O)nc1	
InChI=1S/C5H5NO3/c1-8-4-2-6-5(7)9-3-4/h2-3H,1H3	InChI=1S/C5H5NO3/c1-8-4-2-6-5(7)9-3-4/h2-3H,1H3
