13
gdb 129036	5.10733	1.12937	0.92486	4.0817	76.93	-0.2523	-0.0895	0.1628	1155.969	0.089684	-448.908481	-448.901207	-448.900262	-448.940787	26.557	
N	-0.0482746334	 1.2968612019	 0.3416304775	-0.494161
C	-0.0732366702	 0.0598655001	 0.0311830603	 0.388712
C	-1.2915192517	-0.7197596926	-0.0513772691	-0.209379
C	-1.2000710881	-2.0124223908	-0.3869734772	 0.070421
N	 0.0375604395	-2.5760672291	-0.6460295967	-0.105108
C	 0.1709782599	-3.9353091541	-1.0024588006	 0.190356
O	 1.202578648	-4.4877758026	-1.2394909974	-0.246413
N	 1.2159132766	-1.838083572	-0.5701790813	-0.014918
N	 1.158283726	-0.6313052251	-0.2594862767	-0.220123
H	 0.9214821596	 1.6235892072	 0.3330198964	 0.235045
H	-2.241022157	-0.2463053573	 0.1577486691	 0.14183
H	-2.046579138	-2.6838046681	-0.4771346909	 0.156114
H	-0.8233003813	-4.4195474375	-1.0314850834	 0.107624
58.9886	150.3074	226.5585	261.328	401.6518	413.8479	461.3483	464.1301	627.0412	658.7682	750.9918	759.0042	803.7543	837.0315	926.8595	948.9662	981.287	1018.3586	1066.2248	1140.9461	1244.9055	1253.0231	1340.4485	1438.5708	1447.7823	1575.0444	1682.1266	1723.4586	1858.0011	2962.4399	3195.6431	3235.8611	3452.0682
N=C1C=CN(C=O)N=N1	[NH]c1ccn(C=O)nn1	
InChI=1S/C4H4N4O/c5-4-1-2-8(3-9)7-6-4/h1-3,5H	InChI=1S/C4H9N4O/c5-4-1-2-8(3-9)7-6-4/h3-7H,1-2H2
