18
gdb 122487	2.19203	1.47108	1.09696	4.333	72.98	-0.2606	0.0213	0.2819	1153.3227	0.146911	-439.067561	-439.05846	-439.057516	-439.101889	33.152	
O	-0.8738263827	 1.2866210298	-1.2957111129	-0.420233
C	-0.5576700248	 0.380631743	-0.2540098933	-0.071157
C	-1.771735194	-0.4240891726	 0.1990586865	-0.082067
O	-2.2115607146	-1.2504683243	-0.8801645986	-0.249953
C	-3.502177335	-1.0847996847	-1.3448010313	 0.118627
C	-4.0064972238	 0.2639615482	-1.7538987372	-0.328793
C	-3.6431308956	-0.7602449301	-2.8283904721	-0.208533
C	-2.4329362534	-0.5418097601	-3.5662249108	 0.316236
N	-1.4420659032	-0.3489809015	-4.1333440526	-0.358763
H	-0.7990815831	 0.8203080621	-2.1375560604	 0.309081
H	 0.2424533877	-0.3097132214	-0.552329628	 0.111119
H	-0.1896280506	 0.9700088181	 0.5948742534	 0.106044
H	-1.5045287209	-1.0687734373	 1.0470717277	 0.103469
H	-2.5722564218	 0.2527195712	 0.5171077216	 0.110737
H	-4.225249036	-1.79911786	-0.9520535655	 0.106683
H	-5.0590505323	 0.4882989737	-1.6260882856	 0.131441
H	-3.3223945052	 1.0971566708	-1.6414183505	 0.169446
H	-4.4435386906	-1.2358472749	-3.3833740405	 0.136615
60.0731	95.5583	130.9292	169.1068	217.6977	254.0208	328.9099	368.409	463.3436	497.0476	513.2974	583.4579	646.5163	775.3851	796.039	843.7467	880.8425	883.2042	969.3094	1023.6175	1051.1769	1081.1175	1101.5592	1118.8525	1127.2477	1130.7545	1177.8399	1235.3861	1252.3206	1296.9387	1363.8641	1376.6472	1402.515	1413.317	1414.9556	1476.5875	1488.1394	1496.9347	2346.491	3012.2839	3020.9228	3063.3528	3080.155	3107.6387	3144.5243	3181.7559	3244.2526	3778.5682
OCCOC1CC1C#N	OCCO[C@H]1C[C@H]1C#N	
InChI=1S/C6H9NO2/c7-4-5-3-6(5)9-2-1-8/h5-6,8H,1-3H2	InChI=1S/C6H9NO2/c7-4-5-3-6(5)9-2-1-8/h5-6,8H,1-3H2/t5-,6-/m0/s1
