21
gdb 102121	2.28303	1.18836	0.8344	1.8062	80.22	-0.2406	-0.03	0.2106	1419.058	0.180183	-424.21079	-424.200776	-424.199832	-424.246861	35.233	
C	-0.1563746365	 1.3352145028	 0.2965383926	-0.242325
O	-0.3343573748	-0.030602618	-0.0200776076	-0.244206
C	 0.5722243812	-0.5101662457	-0.9925600124	 0.013944
C	 1.9608709067	-0.7039614971	-0.389346099	 0.134633
O	 2.9899969742	-0.6568260387	-1.0114300537	-0.244437
C	 0.0491019751	-1.8546080416	-1.4905427722	 0.028346
C	-1.2718473468	-1.8597136287	-2.3096785585	-0.228931
C	-0.6372902454	-2.9236087694	-3.247226831	-0.217226
C	 0.7610187242	-2.5331261401	-2.6939433185	-0.233246
H	 0.8422149611	 1.5422745239	 0.7104870237	 0.112999
H	-0.2997638441	 1.9756011146	-0.5867737777	 0.112875
H	-0.9064338635	 1.5920136774	 1.0479236744	 0.133401
H	 0.6568123453	 0.1886727723	-1.8404933043	 0.080326
H	 1.9354471787	-0.9401792018	 0.7009210141	 0.084309
H	-0.0258759458	-2.539879142	-0.6390587094	 0.081079
H	-2.189623316	-2.1218593878	-1.7802775624	 0.105175
H	-1.4260095604	-0.9038111678	-2.8199081891	 0.100399
H	-0.9193437942	-3.9402895116	-2.959708154	 0.104514
H	-0.8019882663	-2.8110298565	-4.3210114251	 0.100043
H	 1.2651246821	-1.7976931525	-3.3272994233	 0.113086
H	 1.4682034051	-3.3353281118	-2.474131037	 0.105241
58.6127	66.6201	93.9822	115.5723	158.8416	193.3319	241.0996	283.2707	379.7533	395.0328	457.8967	543.7775	653.8157	773.269	784.4003	891.704	933.3511	943.9056	961.2334	977.5234	1001.038	1039.7187	1088.6968	1102.3355	1135.3924	1172.0009	1185.1148	1204.375	1216.9632	1243.514	1254.6393	1259.2748	1269.4625	1286.2745	1295.5482	1330.8241	1373.9328	1401.7722	1478.6226	1481.4814	1485.0182	1490.0321	1507.4944	1508.4899	1831.4597	2858.0296	2975.4689	2982.8898	3027.515	3047.9328	3056.8687	3060.2518	3065.5245	3104.3077	3115.515	3120.7115	3125.8287
COC(C=O)C1CCC1	CO[C@@H](C=O)C1CCC1	
InChI=1S/C7H12O2/c1-9-7(5-8)6-3-2-4-6/h5-7H,2-4H2,1H3	InChI=1S/C7H12O2/c1-9-7(5-8)6-3-2-4-6/h5-7H,2-4H2,1H3/t7-/m0/s1
