16
gdb 123613	4.14948	1.53812	1.22363	1.6685	73.84	-0.2172	0.0177	0.2349	978.1362	0.129172	-396.913971	-396.907668	-396.906724	-396.944509	25.628	
C	 0.0552902001	 1.4821698556	-0.0228351272	-0.236011
C	 1.3159002047	 0.687198089	 0.0307306104	-0.192411
N	-0.0246206097	 0.0167857586	-0.0242427095	-0.101218
C	-0.1917205054	-0.6084107332	-1.3671748226	-0.293288
C	 1.0886461349	-0.2686082048	-2.076427812	 0.327968
C	 1.9598561837	 0.4362549521	-1.2806525977	 0.253214
C	 3.0951659379	 0.6506642717	-2.0860622961	-0.176132
N	 2.9294623781	 0.1177979597	-3.2992814902	-0.223365
N	 1.6884861498	-0.4321654318	-3.2737081565	-0.326138
H	-0.3429746557	 1.9485403322	 0.8748775357	 0.117599
H	-0.1452598567	 2.0196509137	-0.9479158735	 0.112409
H	 1.8675150867	 0.5864721168	 0.9605009667	 0.101653
H	-0.3315283528	-1.6887014441	-1.237566475	 0.125695
H	-1.0917506074	-0.2179985288	-1.8562961642	 0.123857
H	 4.0200095346	 1.1591893895	-1.8573632139	 0.11326
H	 1.3597465871	-0.9123067163	-4.0939196745	 0.272908
155.8163	225.7206	352.8056	418.6143	450.9599	504.5315	594.3152	682.4636	696.4605	705.0868	743.2136	799.686	836.0385	883.6002	958.8834	983.0573	1016.1034	1031.5797	1076.1077	1098.2311	1115.2155	1149.2993	1155.057	1207.2016	1230.2477	1257.8125	1277.4265	1316.9797	1346.7395	1414.4684	1456.1815	1489.8202	1500.2882	1545.335	1593.0076	3022.9773	3058.3413	3092.8857	3153.5538	3182.1039	3246.8178	3674.9975
C1C2N1CC1=C2C=NN1	C1[C@H]2N1Cc1c2cn[nH]1	
InChI=1S/C6H7N3/c1-4-5(8-7-1)2-9-3-6(4)9/h1,6H,2-3H2,(H,7,8)	InChI=1S/C6H7N3/c1-4-5(8-7-1)2-9-3-6(4)9/h1,6H,2-3H2,(H,7,8)/t6-,9?/m1/s1
