16
gdb 45121	2.66453	1.6849	1.1822	5.8317	69.82	-0.2403	-0.0608	0.1796	1022.7645	0.125735	-437.920248	-437.912742	-437.911797	-437.952599	28.825	
O	 0.0118002643	 0.0177839526	-0.4532579183	-0.272014
C	-0.0244229061	 1.1726275188	-0.119326881	 0.282597
C	-1.3258948707	 1.9150760432	 0.1506680125	-0.32634
C	-1.2303719796	 2.9385771866	 1.2629115741	-0.050494
C	-0.5176158766	 2.6224742522	 2.5618068623	-0.309854
C	 0.1136553684	 3.5466611877	 1.5434152558	 0.026237
N	 1.2284661009	 3.112967326	 0.7492889662	-0.321225
C	 1.3011719857	 1.9707477763	-0.0005966334	 0.304555
O	 2.3161857684	 1.5956425308	-0.5462926938	-0.340966
H	-1.5812297154	 2.4287522394	-0.7883825411	 0.139908
H	-2.1100995019	 1.1735314706	 0.3293894554	 0.138109
H	-2.0831289275	 3.6059576475	 1.3341966735	 0.104421
H	-0.9083159167	 3.0471933722	 3.4796986038	 0.124512
H	-0.0707753176	 1.6390945805	 2.6727097231	 0.133371
H	 0.1653266118	 4.6051528456	 1.771732939	 0.112154
H	 2.1200731427	 3.5659543101	 0.8978479818	 0.255028
66.8657	108.5106	291.0662	332.1069	357.211	389.0839	450.8689	525.4638	565.5092	591.9294	665.7093	703.8556	748.509	810.1305	830.5283	873.2267	946.0421	1016.1814	1045.7968	1059.8744	1066.658	1114.7162	1139.973	1157.0226	1219.6676	1230.357	1319.8621	1344.8403	1385.36	1419.8986	1456.8145	1461.3866	1500.3057	1797.5464	1830.7292	3009.4316	3088.1254	3129.11	3155.9806	3173.206	3220.4949	3591.4006
O=C1CC2CC2NC1=O	O=C1C[C@H]2C[C@H]2NC1=O	
InChI=1S/C6H7NO2/c8-5-2-3-1-4(3)7-6(5)9/h3-4H,1-2H2,(H,7,9)	InChI=1S/C6H7NO2/c8-5-2-3-1-4(3)7-6(5)9/h3-4H,1-2H2,(H,7,9)/t3-,4-/m1/s1
