23
gdb 117987	2.88137	0.8976	0.82201	1.4307	79.07	-0.2595	0.0716	0.3311	1545.9614	0.201658	-462.555243	-462.543784	-462.54284	-462.591545	41.854	
C	 0.0844995114	 1.3419779956	 0.094319686	-0.228836
O	 0.0040864213	-0.0635190927	 0.0452293833	-0.252797
C	-1.324814529	-0.546810248	-0.08119067	-0.095227
C	-1.2289172434	-2.0663228781	 0.0181709645	 0.101953
O	-0.6068701368	-2.4315070495	 1.2394030186	-0.450634
C	-2.5885888339	-2.7968113684	-0.0867583529	 0.341477
C	-2.354862438	-4.3109198774	-0.0440438286	-0.429161
C	-3.560412544	-2.3686944542	 1.0141538526	-0.402249
O	-3.204762559	-2.4228587382	-1.3260870302	-0.466494
H	 1.1391733833	 1.606943049	 0.202224832	 0.128047
H	-0.305698193	 1.8021762009	-0.8261688416	 0.109676
H	-0.4768559514	 1.7523692426	 0.9480078085	 0.108579
H	-1.9463339401	-0.14378677	 0.7326502665	 0.091859
H	-1.7693129327	-0.2473107996	-1.0395320064	 0.103377
H	-0.6106866441	-2.4055971287	-0.8337477922	 0.053394
H	 0.1235641988	-1.8104617626	 1.3526892103	 0.290661
H	-1.8978536418	-4.6072235135	 0.9025646691	 0.141722
H	-3.3039053033	-4.8400623284	-0.1683635416	 0.115372
H	-1.6774209141	-4.6210641112	-0.8496602696	 0.09854
H	-3.890327041	-1.337840098	 0.8618435305	 0.11894
H	-4.4478719453	-3.0070985278	 1.0016536509	 0.113433
H	-3.077631015	-2.4462506423	 1.9905130939	 0.133077
H	-2.7116154287	-2.8447330895	-2.0383409336	 0.275289
65.9544	92.6523	113.9574	140.6447	205.4329	229.9709	245.1714	265.2003	290.5943	308.4372	314.1704	351.246	381.1111	423.9336	457.0368	499.716	542.2198	576.7179	776.8584	896.4151	934.3512	939.8636	975.8425	993.3184	1016.6071	1077.5734	1127.5752	1141.416	1159.5614	1185.6956	1210.4236	1225.4971	1244.3127	1250.8303	1271.8706	1356.8839	1370.6467	1392.9967	1401.6483	1414.7178	1450.3293	1478.5875	1482.9847	1484.4839	1485.7827	1499.8592	1501.9625	1509.8451	1524.3119	2926.8748	2975.3172	2992.381	3024.4153	3026.1062	3045.0362	3052.3538	3097.7735	3114.3056	3119.8333	3135.5369	3141.5211	3778.6077	3800.3158
COCC(O)C(C)(C)O	COC[C@@H](O)C(C)(C)O	
InChI=1S/C6H14O3/c1-6(2,8)5(7)4-9-3/h5,7-8H,4H2,1-3H3	InChI=1S/C6H14O3/c1-6(2,8)5(7)4-9-3/h5,7-8H,4H2,1-3H3/t5-/m1/s1
