16
gdb 17989	3.92358	1.77604	1.51438	2.5588	67.83	-0.2327	0.019	0.2516	859.0331	0.13255	-342.750806	-342.743933	-342.742989	-342.782711	25.598	
N	 0.114778453	-1.146417368	 0.3373140166	-0.334839
C	 0.0448448859	-0.0048333641	 0.16312046	 0.278539
C	-0.011873757	 1.4328629953	-0.0211056762	-0.171412
C	-0.359856118	 2.3154888959	 1.2256725239	-0.187679
N	 0.8852322822	 3.1201780614	 1.0641016627	-0.121955
C	 2.0174225865	 2.6171630871	 1.9107662217	-0.167349
C	 2.5205541782	 1.6857450793	 0.7726149185	-0.263733
C	 1.3381801976	 2.2167320252	-0.0636378864	 0.025699
H	-0.6450903136	 1.6591670278	-0.8817983861	 0.129917
H	-1.2688104201	 2.9099654211	 1.1044918632	 0.12227
H	-0.4205666064	 1.765448204	 2.1699658656	 0.122231
H	 2.7044961185	 3.4241213935	 2.1792706667	 0.114845
H	 1.6923810378	 2.1201276533	 2.8309362232	 0.110541
H	 3.5008493114	 1.943203359	 0.3678614653	 0.116464
H	 2.5005286693	 0.6139295687	 0.9817615655	 0.136191
H	 1.5709330149	 2.6775867905	-1.0265389541	 0.090269
37.4468	146.3113	204.9681	343.8563	400.3839	514.3027	565.9002	670.2527	719.6422	768.096	792.7094	866.039	909.0932	931.5327	975.7857	987.9974	1026.329	1030.6749	1089.0494	1118.9155	1170.8693	1199.7082	1211.5072	1217.8117	1232.1334	1270.32	1293.124	1317.8607	1325.3691	1352.424	1483.4529	1494.5545	1515.3487	2348.5986	3041.0953	3048.4985	3070.7946	3077.1335	3087.5411	3090.2182	3104.501	3130.51
N#CC1CN2CCC12	N#C[C@H]1CN2CC[C@@H]12	
InChI=1S/C6H8N2/c7-3-5-4-8-2-1-6(5)8/h5-6H,1-2,4H2	InChI=1S/C6H8N2/c7-3-5-4-8-2-1-6(5)8/h5-6H,1-2,4H2/t5-,6-/m0/s1
