17
gdb 87657	2.59332	1.29445	1.10591	3.3734	69.63	-0.2429	-0.0285	0.2144	1140.4721	0.133238	-458.937965	-458.92892	-458.927976	-458.971945	33.316	
O	 0.0159086264	 1.2782404421	-0.1664336725	-0.421416
C	-0.0115595184	-0.1083511192	-0.0032467495	 0.053385
C	-0.5345285273	-0.7094241162	 1.2844219833	-0.405059
C	-1.3613998513	-0.7442958989	 0.0313076042	 0.265411
C	-2.6650840823	-0.0049872036	-0.3034827105	-0.417007
C	-2.8186139626	-1.015371692	-1.4580540116	 0.340986
O	-3.3420877392	-0.9849237788	-2.5340300156	-0.294159
C	-1.7591369685	-1.9592390353	-0.8444962899	-0.020867
O	-0.8345008443	-2.5951892086	-1.6755452091	-0.421554
H	 0.7576620171	 1.6262977906	 0.3392001302	 0.292363
H	 0.771825008	-0.6579511073	-0.5257199279	 0.097618
H	-0.0894287431	-1.6329717428	 1.6426267004	 0.120418
H	-0.8427406152	-0.0134601571	 2.0586635953	 0.117971
H	-3.4477848601	-0.1037789863	 0.4559500125	 0.129407
H	-2.5762885107	 1.0417538939	-0.6008354759	 0.152302
H	-2.2372523347	-2.7318911069	-0.227619427	 0.114912
H	-0.7445936637	-2.0702803338	-2.4792129064	 0.29529
59.8029	134.9073	141.8114	189.998	225.6171	273.4344	287.7964	394.6283	422.8511	480.9469	533.2354	560.4033	618.3491	742.7069	766.8814	817.7894	873.0162	889.0495	994.8059	1004.0538	1038.6124	1063.1257	1087.5732	1095.7206	1143.474	1156.2169	1177.2845	1212.6319	1247.3112	1286.1388	1311.0898	1340.8579	1413.7116	1426.0037	1446.2792	1492.9244	1886.9147	3027.1883	3056.3199	3101.0881	3118.8467	3125.1282	3209.4017	3799.2713	3809.649
OC1CC11CC(=O)C1O	O[C@H]1C[C@]21CC(=O)[C@H]2O	
InChI=1S/C6H8O3/c7-3-1-6(5(3)9)2-4(6)8/h4-5,8-9H,1-2H2	InChI=1S/C6H8O3/c7-3-1-6(5(3)9)2-4(6)8/h4-5,8-9H,1-2H2/t4-,5+,6-/m0/s1
