12
gdb 48343	2.28888	1.503	1.0673	1.6507	60.68	-0.3032	-0.0894	0.2138	1067.9603	0.075196	-472.651283	-472.643266	-472.642321	-472.684741	27.792	
O	-0.8826411013	 0.7662009346	 0.374078879	-0.212662
C	 0.1075064062	 0.8533270168	-0.2932817903	 0.131818
C	 1.2525616319	 1.8320785655	 0.0406833698	 0.18376
C	 1.1768899605	 2.4982611224	 1.4280400378	-0.464863
C	 2.3693045924	 1.5992387228	 1.745083586	 0.458814
O	 3.0883440137	 1.3594746136	 2.6503526111	-0.277698
O	 2.4083683568	 1.0331504398	 0.4712837824	-0.268826
C	 1.5697476588	 2.6754618003	-1.1049392752	 0.249806
N	 1.7689418559	 3.3344025845	-2.0329714462	-0.299179
H	 0.3030398471	 0.218361334	-1.1786468785	 0.136562
H	 1.3899564743	 3.5661353917	 1.4632567865	 0.175401
H	 0.2634810237	 2.2642570042	 1.9759763176	 0.187067
64.9148	90.3991	170.1522	190.9092	248.8076	329.9864	468.462	485.4835	519.0248	529.6913	576.3767	692.2341	790.4225	884.6572	907.3663	955.6532	1003.6125	1073.2539	1120.2528	1192.5964	1207.905	1237.2866	1404.288	1447.3838	1844.9289	1973.4753	2358.6206	2960.958	3106.1528	3172.0226
O=CC1(CC(=O)O1)C#N	O=C[C@]1(CC(=O)O1)C#N	
InChI=1S/C5H3NO3/c6-2-5(3-7)1-4(8)9-5/h3H,1H2	InChI=1S/C5H3NO3/c6-2-5(3-7)1-4(8)9-5/h3H,1H2/t5-/m0/s1
