17
gdb 29524	3.0264	1.60749	1.0686	2.311	76.23	-0.1715	0.0483	0.2198	1089.9177	0.138707	-418.019369	-418.01126	-418.010316	-418.051858	30.702	
N	 0.0345974586	 1.4446642709	-0.058095031	-0.617872
C	 0.0261373287	 0.0347886647	-0.0316120157	 0.077047
C	-1.0606257466	-0.8187466773	-0.1626269431	-0.145224
N	-0.6194299156	-2.1363168331	-0.121281015	-0.382047
C	 0.7466872253	-2.1244057292	-0.0263680434	 0.200026
C	 1.148979847	-0.8251140397	 0.0552475236	 0.338285
O	 2.4878779027	-0.6574005514	 0.3103356462	-0.304497
C	 3.049573468	-1.9843046557	 0.1443113088	-0.085231
C	 1.8947324957	-3.0376842859	 0.2635332023	-0.364112
H	 0.8227461627	 1.8177717302	 0.4566201966	 0.246365
H	-0.8150365819	 1.8398886929	 0.3251220187	 0.237149
H	-2.1030516601	-0.5889663144	-0.3137837135	 0.103369
H	-1.1941167948	-2.9287203753	-0.34378991	 0.254963
H	 3.4979345749	-2.04026531	-0.8553136775	 0.110347
H	 3.833630398	-2.1112424551	 0.8936224476	 0.11261
H	 1.8441782391	-3.4836376101	 1.2674648858	 0.110376
H	 2.0486890282	-3.8553597215	-0.4491145304	 0.108446
133.9149	145.502	155.6413	233.7123	253.4247	282.3732	394.1319	505.284	600.2732	609.8132	611.6017	632.8064	686.6396	754.1052	786.7555	814.408	854.0467	929.5548	984.7107	1062.1896	1073.4205	1083.5871	1129.6271	1189.0886	1224.5832	1236.6774	1279.0871	1313.2254	1348.9791	1391.5495	1472.8275	1493.869	1513.7979	1525.8959	1590.6785	1647.3774	1665.276	2992.3034	3024.8226	3053.9557	3109.7831	3259.6369	3527.6871	3616.1399	3690.7086
NC1=CNC2=C1OCC2	Nc1c[nH]c2c1OCC2	
InChI=1S/C6H8N2O/c7-4-3-8-5-1-2-9-6(4)5/h3,8H,1-2,7H2	InChI=1S/C6H8N2O/c7-4-3-8-5-1-2-9-6(4)5/h3,8H,1-2,7H2
