16
gdb 128482	3.17864	1.2828	0.92455	1.511	69.14	-0.2195	0.0238	0.2432	1219.9027	0.122903	-475.019249	-475.010096	-475.009152	-475.054041	31.867	
C	 0.1109969066	 1.4309414891	-0.0361570383	-0.251465
O	 0.079108705	-0.0003912009	 0.0126587536	-0.268502
C	 0.5854182636	-0.6559502368	-1.0261299893	 0.514039
C	 0.6776168202	-2.0025626754	-1.2296095394	-0.115097
C	 0.2410972703	-3.1311232012	-0.3538553235	-0.514021
C	 1.3035227735	-2.0415576787	-2.5047214517	 0.432779
O	 1.6160094788	-3.1744570904	-3.1542046565	-0.416535
N	 1.5650738595	-0.8636451636	-3.0236741924	-0.292347
O	 1.0906747445	 0.0494620985	-2.0469773995	-0.240373
H	 1.1396508386	 1.7960331055	-0.1047963608	 0.146273
H	-0.461647248	 1.8049194936	-0.8896066789	 0.146238
H	-0.3441579516	 1.7638939781	 0.8962681692	 0.143054
H	-0.5005102988	-3.7659147604	-0.8510096529	 0.135368
H	 1.0819597208	-3.775234949	-0.0742407215	 0.13537
H	-0.2075361775	-2.7452008409	 0.5647856789	 0.135792
H	 2.0288929646	-2.9258551474	-3.9923028871	 0.309428
47.7269	70.9852	145.0391	188.6534	189.915	236.54	277.6222	376.0486	400.6997	461.6277	563.5897	604.4847	665.4073	723.9347	747.4031	777.7582	943.9019	958.0761	1038.2923	1070.8001	1176.7664	1183.1744	1199.2215	1225.5588	1256.922	1365.2566	1423.7	1469.3053	1484.2347	1485.576	1496.7523	1500.9123	1555.2014	1577.8641	1723.1152	3032.9121	3044.3242	3082.5919	3117.4882	3121.0117	3159.6201	3778.05
COC1=C(C)C(O)=NO1	COc1c(C)c(O)no1	
InChI=1S/C5H7NO3/c1-3-4(7)6-9-5(3)8-2/h1-2H3,(H,6,7)	InChI=1S/C5H7NO3/c1-3-4(7)6-9-5(3)8-2/h1-2H3,(H,6,7)
