19
gdb 72250	2.45612	1.70044	1.46833	1.2486	74.58	-0.225	0.0725	0.2974	1001.5786	0.159605	-422.996708	-422.988736	-422.987792	-423.028602	31.722	
C	-0.1123106046	 1.4920137315	 0.0152646297	-0.504845
C	 0.0006966183	-0.0032801338	-0.0397098923	 0.280789
C	 0.8701766534	-0.8096926389	-1.0127600673	-0.30029
C	-0.0818411536	-2.0298740895	-0.7800022255	 0.007937
O	 0.4103900955	-2.9140008065	 0.2181324169	-0.268018
C	 0.5464627342	-2.1369537413	 1.4181233081	-0.107541
C	-0.299440277	-0.890937675	 1.1873076113	-0.210684
C	-1.0789478062	-1.0629464797	-0.0840550157	 0.342416
O	-2.4360352308	-0.9183875288	-0.2720369966	-0.46689
H	 0.7963301864	 1.9465584382	 0.4268860008	 0.119695
H	-0.2689440482	 1.9090526742	-0.9858941005	 0.121742
H	-0.955845676	 1.802557187	 0.6400253836	 0.124172
H	 0.7916182104	-0.4174986456	-2.0315900843	 0.100712
H	 1.9246790086	-0.9740717491	-0.7673695901	 0.095489
H	-0.3973923201	-2.6107398264	-1.645430028	 0.086539
H	 0.1812476789	-2.732986934	 2.2629727794	 0.102283
H	 1.6057957651	-1.9071622531	 1.6002579576	 0.097203
H	-0.7721011679	-0.3883211601	 2.0234583514	 0.090415
H	-2.8914352567	-1.5933020194	 0.2441634314	 0.288875
174.7253	196.077	217.6373	239.5001	280.1583	303.6596	345.7567	451.3785	497.5102	577.6793	638.6796	680.8816	739.9904	796.8319	839.9814	894.2468	915.9192	931.4991	956.1432	991.3157	1015.9741	1032.0577	1079.9793	1122.5605	1136.2671	1159.5908	1169.5326	1213.9273	1222.5861	1232.9854	1256.3254	1301.0388	1323.332	1339.9418	1379.4247	1416.5216	1468.5988	1486.7925	1493.9074	1516.5043	1529.4574	2997.9696	3024.3277	3039.2588	3046.3186	3084.1916	3092.2131	3099.8566	3134.1059	3186.045	3787.1758
CC12CC3OCC1C23O	C[C@@]12C[C@H]3OC[C@@H]1[C@@]23O	
InChI=1S/C7H10O2/c1-6-2-5-7(6,8)4(6)3-9-5/h4-5,8H,2-3H2,1H3	InChI=1S/C7H10O2/c1-6-2-5-7(6,8)4(6)3-9-5/h4-5,8H,2-3H2,1H3/t4-,5+,6+,7-/m0/s1
