18
gdb 99095	4.15196	0.7362	0.71495	2.8154	71.19	-0.2502	-0.0311	0.2191	1626.4349	0.144548	-476.274316	-476.263765	-476.262821	-476.311596	35.297	
C	 0.1270113465	 1.3610535915	 0.0287772166	-0.23442
O	-0.0520979743	-0.0291563759	-0.2584160719	-0.268159
C	-1.2711321354	-0.5208901788	 0.0658231599	 0.532765
O	-2.1706418494	 0.1280315721	 0.551455879	-0.412653
N	-1.3241872401	-1.8539327817	-0.2280786511	-0.383904
C	-2.5514824805	-2.6201597078	-0.1158365016	-0.055461
C	-3.0746059658	-3.1359362794	-1.4556040585	-0.394717
C	-2.3562705992	-3.7371998099	 0.9086954546	 0.152261
O	-2.7959541682	-4.8509811539	 0.7987394335	-0.237825
H	 1.1420886961	 1.5985378838	-0.2903996423	 0.132663
H	-0.5968307979	 1.9679873459	-0.5207393621	 0.141446
H	 0.0093612437	 1.5553484943	 1.0978674094	 0.141392
H	-0.5343396847	-2.2507953943	-0.7122507784	 0.256281
H	-3.2754897723	-1.9250361291	 0.3315887554	 0.150214
H	-3.3139778949	-2.3012383548	-2.1184366007	 0.126849
H	-2.3313962688	-3.7725279756	-1.9467541144	 0.121078
H	-3.9699728976	-3.7409212176	-1.2992712543	 0.145088
H	-1.7539054273	-3.4249884091	 1.7916234366	 0.087103
36.7035	57.7269	86.0763	97.304	154.5927	166.485	211.523	250.7354	320.0417	357.9448	405.3093	471.4871	491.3259	655.8981	717.1351	781.2566	831.4295	922.4564	938.6101	986.5808	1098.0131	1114.2856	1149.4313	1183.2962	1198.6991	1217.9754	1249.1261	1329.4005	1331.1522	1398.496	1417.2849	1468.1576	1481.8114	1487.7944	1491.8022	1500.4341	1539.5279	1813.5271	1836.5946	2885.0283	3034.6862	3048.9968	3051.7258	3119.3706	3126.3283	3142.8293	3156.4824	3636.5124
COC(=O)NC(C)C=O	COC(=O)N[C@@H](C)C=O	
InChI=1S/C5H9NO3/c1-4(3-7)6-5(8)9-2/h3-4H,1-2H3,(H,6,8)	InChI=1S/C5H9NO3/c1-4(3-7)6-5(8)9-2/h3-4H,1-2H3,(H,6,8)/t4-/m0/s1
