14
gdb 13031	4.11617	1.42645	1.11561	5.2845	62.77	-0.2793	0.0067	0.2859	1001.3953	0.107773	-378.729455	-378.722018	-378.721074	-378.762018	26.128	
N	-0.0412574048	 1.2037298961	-0.3240336448	-0.520987
C	-0.0035596399	-0.0134449111	-0.0415044985	 0.436757
O	 1.0324007304	-0.8151567519	 0.3993916962	-0.24799
C	 0.1510250076	-1.9727069357	 0.5123651818	-0.110012
C	-1.032251229	-1.132977156	-0.0183692201	-0.129237
C	-2.2349389651	-0.9555242149	 0.9190278082	-0.359168
C	-3.2694227043	-0.0842628168	 0.3645455303	 0.279135
N	-4.1050347328	 0.5789343734	-0.0777912344	-0.29638
H	 0.8662764154	 1.6548668909	-0.2001538779	 0.236563
H	 0.4904727069	-2.792639135	-0.1238812652	 0.131648
H	 0.0727008509	-2.3044643196	 1.5517944384	 0.124605
H	-1.366337762	-1.4234006715	-1.0165335175	 0.134125
H	-2.6874396974	-1.9337256685	 1.1207587866	 0.158706
H	-1.9072288957	-0.5488338793	 1.8822220468	 0.162235
62.194	98.0273	164.4102	226.2382	329.2696	388.5119	460.0326	498.8044	661.448	751.1998	800.7216	865.9304	888.6491	945.5846	973.3493	998.244	1011.0618	1080.0548	1126.3389	1161.5874	1195.4966	1223.1489	1262.9135	1312.8032	1361.1268	1384.407	1464.7719	1517.1974	1834.3911	2369.5652	3040.9596	3059.3918	3079.8023	3100.5204	3123.1343	3485.4116
N=C1OCC1CC#N	[NH][C]1OC[C@H]1CC#N	
InChI=1S/C5H6N2O/c6-2-1-4-3-8-5(4)7/h4,7H,1,3H2	InChI=1S/C5H6N2O/c6-2-1-4-3-8-5(4)7/h4,7H,1,3H2/t4-/m1/s1
