23
gdb 89059	4.60213	0.67651	0.6305	0.3478	88.04	-0.2212	0.0947	0.3159	1852.3567	0.204964	-384.404481	-384.394551	-384.393607	-384.440532	36.283	
C	-0.042978247	 1.5317720215	-0.313153537	-0.411201
C	 0.010476	 0.0472207455	-0.022127168	 0.031197
C	 1.3023125092	-0.6970048015	-0.0106550154	-0.254613
N	 0.5421180308	-0.5104250068	 1.2232613371	-0.082968
C	 1.1026311584	 0.3733522288	 2.2376409307	-0.143239
C	 1.9097029452	-0.4494803858	 3.2424947624	-0.139302
N	 2.4901758395	 0.4186773097	 4.2600929271	-0.062683
C	 1.6779859629	 0.6476386197	 5.4518306854	-0.219923
C	 2.8836537413	-0.2236955945	 5.5075072381	-0.219653
H	 0.8814411488	 2.0456019256	-0.0401244303	 0.123022
H	-0.2084634131	 1.6934381048	-1.3836657311	 0.121381
H	-0.8697107522	 2.0108923063	 0.2233281477	 0.121954
H	-0.8709687066	-0.4925823239	-0.3678220544	 0.087249
H	 1.372168918	-1.7150267995	-0.3856885558	 0.110201
H	 2.208416231	-0.1041873212	-0.1398928216	 0.104402
H	 1.7543869592	 1.1635534697	 1.8338517767	 0.094422
H	 0.2743123719	 0.8700459135	 2.7577802609	 0.100379
H	 1.2623000444	-1.2347125738	 3.6704298041	 0.088507
H	 2.7301855501	-0.9565609243	 2.7203883969	 0.103041
H	 1.7024951001	 1.6545098523	 5.8587748854	 0.11461
H	 0.7081168508	 0.1549199679	 5.5101151423	 0.109726
H	 2.716090944	-1.2954284458	 5.6051775827	 0.108828
H	 3.8063929433	 0.1349734118	 5.9550671062	 0.114663
42.2613	64.1942	99.8023	120.4861	177.852	226.5059	274.7015	346.3188	386.0527	421.9172	449.2498	529.2429	749.5448	767.6207	809.2742	820.4029	858.3434	898.9122	907.7683	951.2349	1016.0038	1033.793	1036.4083	1048.6971	1083.2168	1112.6051	1113.5418	1117.6061	1134.2367	1149.1526	1161.5756	1176.219	1191.4119	1204.2562	1259.7106	1311.9075	1326.0459	1331.8683	1338.7492	1398.7505	1412.5301	1421.2791	1484.9277	1490.5955	1492.5378	1498.195	1502.5584	1515.3096	1522.7044	2952.4933	2979.9546	3035.0364	3040.0097	3060.414	3081.004	3090.3162	3091.9492	3095.0394	3097.3979	3127.1497	3168.433	3173.4839	3187.9805
CC1CN1CCN1CC1	C[C@H]1CN1CCN1CC1	
InChI=1S/C7H14N2/c1-7-6-9(7)5-4-8-2-3-8/h7H,2-6H2,1H3	InChI=1S/C7H14N2/c1-7-6-9(7)5-4-8-2-3-8/h7H,2-6H2,1H3/t7-,9?/m0/s1
