20
gdb 79253	2.38619	2.00523	1.53484	1.3814	76.09	-0.2347	0.0627	0.2974	954.8517	0.173297	-403.145779	-403.13821	-403.137266	-403.17714	31.238	
C	 0.0207774481	 1.4831718035	 0.0176040033	-0.493874
C	 0.0170753945	-0.0297515632	 0.0018542616	 0.240692
C	 0.6793319039	-0.7507684465	-1.1973921322	-0.279157
C	 0.4092696036	-2.1746821823	-0.7254478374	-0.045602
C	 0.4170253777	-2.1698296891	 0.7695341454	-0.095769
C	 0.7070406284	-0.7391618951	 1.207036317	 0.133598
O	 2.074615632	-0.4388491639	 1.4054028173	-0.452112
N	-0.8679325191	-2.1947456341	 0.0325189062	-0.130642
C	-1.3281934382	-0.77809599	 0.0347233591	-0.186478
H	 1.0431046512	 1.8626654646	 0.1133498918	 0.128309
H	-0.4129334115	 1.8969085366	-0.8990726057	 0.11222
H	-0.5562599189	 1.8713406909	 0.8644989598	 0.115219
H	 0.1883551933	-0.5158275645	-2.1473261575	 0.103711
H	 1.7450917114	-0.522500946	-1.3039722423	 0.091463
H	 0.6403012892	-3.0518841828	-1.3176644675	 0.092424
H	 0.6646452715	-3.0302833969	 1.3801267603	 0.091522
H	 0.2116335821	-0.4749237365	 2.1477895707	 0.08494
H	 2.5852132723	-0.8999387668	 0.7321264781	 0.284852
H	-1.9132555663	-0.5803884827	 0.939017232	 0.102881
H	-1.9592868152	-0.588391565	-0.8392749601	 0.1018
192.3726	205.4735	235.3472	282.2651	307.9519	353.6302	440.3772	480.9071	554.5096	607.0901	677.2163	726.6085	788.2622	808.5139	842.0349	888.0175	916.2086	947.0125	954.0376	961.597	1012.4896	1034.4671	1046.8641	1078.3572	1108.3022	1139.2629	1173.6437	1182.7968	1201.6771	1210.6932	1249.1618	1255.4461	1275.6043	1300.3455	1317.5321	1341.3602	1387.2016	1413.914	1431.9941	1491.6526	1496.1841	1500.9943	1514.5814	3028.1117	3042.6402	3047.7815	3055.7085	3086.7659	3090.4612	3093.5268	3102.0643	3179.0291	3190.047	3818.4105
CC12CC3C(C1O)N3C2	C[C@@]12C[C@H]3[C@@H]([C@H]1O)N3C2	
InChI=1S/C7H11NO/c1-7-2-4-5(6(7)9)8(4)3-7/h4-6,9H,2-3H2,1H3	InChI=1S/C7H11NO/c1-7-2-4-5(6(7)9)8(4)3-7/h4-6,9H,2-3H2,1H3/t4-,5-,6+,7-,8?/m0/s1
