15
gdb 14330	4.44001	1.85868	1.57135	5.1022	60.59	-0.2407	0.0166	0.2573	813.0746	0.121225	-399.820738	-399.814444	-399.8135	-399.851404	24.175	
O	 0.0294208309	-0.0249900025	 0.0180582151	-0.325068
C	-0.0474347819	 1.1658507988	 0.0496809441	 0.426642
C	-1.3020347256	 2.0335280974	 0.1691236812	-0.353783
C	-0.7608597878	 3.4290844036	 0.4246773242	-0.02293
N	-0.3660718743	 3.673464458	 1.8352904217	-0.318314
C	 1.0391229118	 3.9503902805	 1.4439519235	-0.18465
C	 0.7473125	 3.3486401646	 0.0554147995	 0.102043
O	 1.0621818066	 1.9643024727	-0.0504395998	-0.228167
H	-1.8628788459	 1.9579788303	-0.7688032309	 0.133809
H	-1.9316673775	 1.6595780047	 0.9778354602	 0.147843
H	-1.327005561	 4.23264232	-0.0555519573	 0.077238
H	-0.8503886864	 4.4323980745	 2.2990192798	 0.224828
H	 1.30133799	 5.0145584716	 1.3771964631	 0.099691
H	 1.7898419105	 3.429904687	 2.0462210628	 0.12338
H	 1.1327954905	 3.8662850988	-0.8231862771	 0.097438
102.5676	146.3336	359.3304	380.2182	493.6823	558.0133	622.9204	669.9907	694.5538	806.5869	832.8336	862.3057	917.798	968.2677	1005.0409	1013.1776	1046.0769	1087.3305	1108.5465	1139.8614	1145.5712	1190.4796	1227.9465	1260.5986	1273.6568	1325.6581	1357.4151	1378.043	1387.4963	1445.5642	1504.8405	1890.5728	3013.557	3053.0241	3066.2486	3082.9929	3110.2369	3131.6575	3550.4371
O=C1CC2NCC2O1	O=C1C[C@H]2NC[C@H]2O1	
InChI=1S/C5H7NO2/c7-5-1-3-4(8-5)2-6-3/h3-4,6H,1-2H2	InChI=1S/C5H7NO2/c7-5-1-3-4(8-5)2-6-3/h3-4,6H,1-2H2/t3-,4-/m1/s1
