19
gdb 95721	2.96965	1.23147	0.96983	2.7166	71.78	-0.2365	0.0598	0.2963	1216.3624	0.162245	-456.384261	-456.375641	-456.374697	-456.417445	33.008	
O	-0.1033688134	 1.4633378742	-0.014906251	-0.42737
C	-0.0255156675	 0.0434448937	-0.0142182004	 0.11505
C	-1.4706044105	-0.4641270156	-0.0501791713	-0.182688
C	-1.5710524367	-1.9093664321	-0.5497485288	-0.19058
N	-0.5693779041	-2.7795873063	 0.0557473148	-0.325099
C	 0.72570485	-2.8979902217	-0.4136587229	 0.408354
O	 1.3994167131	-3.8921413463	-0.1983603944	-0.414237
N	 1.2295833171	-1.8374530504	-1.1430465267	-0.329907
C	 0.8022548654	-0.4419377411	-1.2180157415	-0.19004
H	 0.7589259708	 1.8142369885	 0.2294964839	 0.283921
H	 0.4656366627	-0.317594222	 0.9004061923	 0.088656
H	-1.9056431437	-0.3690475167	 0.9494660737	 0.108627
H	-2.0407619373	 0.1920371875	-0.7176689759	 0.112427
H	-2.5566484722	-2.3157024748	-0.3095560338	 0.113764
H	-1.4823954906	-1.9355209324	-1.6440866927	 0.118818
H	-0.885302898	-3.6509725725	 0.4506653141	 0.249309
H	 2.1818636735	-2.0276023422	-1.4106812431	 0.250149
H	 0.2454940913	-0.2336273614	-2.1429062206	 0.1125
H	 1.7105633799	 0.1697331115	-1.2611416256	 0.098345
87.3134	116.4073	198.3147	272.0082	308.7586	316.2976	330.7401	377.5494	449.1802	485.0639	505.2698	559.3313	609.5099	702.3865	770.9112	781.6481	875.1212	915.2459	946.1605	979.5745	1087.9519	1092.9853	1102.605	1141.7312	1179.9747	1209.5995	1246.7605	1280.2175	1304.5087	1318.8211	1358.1288	1394.0316	1399.5083	1434.5186	1442.4277	1451.7981	1471.149	1486.1668	1507.7675	1521.6066	1792.249	2994.2589	3008.2574	3015.7618	3045.1144	3054.033	3088.4912	3100.02	3640.2605	3642.7644	3816.9007
OC1CCNC(=O)NC1	O[C@H]1CCNC(=O)NC1	
InChI=1S/C5H10N2O2/c8-4-1-2-6-5(9)7-3-4/h4,8H,1-3H2,(H2,6,7,9)	InChI=1S/C5H10N2O2/c8-4-1-2-6-5(9)7-3-4/h4,8H,1-3H2,(H2,6,7,9)/t4-/m0/s1
