20
gdb 108542	2.71948	1.72419	1.31509	2.4323	78.14	-0.2341	0.0767	0.3108	1023.4575	0.173673	-403.083598	-403.076172	-403.075228	-403.11537	30.267	
O	-0.0416626415	 1.3297329796	 0.2288769791	-0.422913
C	 0.0215409435	-0.0415531298	-0.1330035965	-0.163023
C	-1.3710093476	-0.6378029451	-0.1343354428	 0.345242
C	-2.3348232664	-0.0900217919	-1.1893367866	-0.272358
C	-3.6549389629	-0.7253215544	-0.6949023684	-0.251897
C	-3.1071384842	-1.4796831459	 0.5035784705	 0.037652
C	-1.7239783798	-2.121261498	 0.1975675472	-0.136639
C	-1.3863281323	-1.8042484425	 1.6579841741	-0.189538
N	-2.1237326851	-0.5299874546	 1.2360325025	-0.206106
H	-0.6282573507	 1.3748119025	 0.9951604155	 0.294093
H	 0.4462156335	-0.083723457	-1.1424471529	 0.106729
H	 0.7048365003	-0.5952168667	 0.526757466	 0.088459
H	-2.3430037791	 1.0018113669	-1.1774879932	 0.120662
H	-2.0477509755	-0.4148661557	-2.194399037	 0.099765
H	-4.3999414103	 0.0165307456	-0.3946875618	 0.111866
H	-4.1187662967	-1.3958322747	-1.4241196728	 0.102456
H	-3.8031250467	-1.9976135707	 1.166588623	 0.073066
H	-1.5053793648	-3.0205979682	-0.3903681799	 0.060306
H	-1.9152087262	-2.364943671	 2.4339559541	 0.099932
H	-0.3450800577	-1.6518730983	 1.94719673	 0.102247
95.4561	154.826	249.2105	346.0933	353.8237	441.0183	447.5213	504.4438	647.7098	676.7695	701.2933	741.2331	795.1921	835.468	871.8816	915.8225	922.272	945.7127	972.2636	1015.7013	1036.4442	1048.2024	1064.102	1088.0209	1115.3004	1130.6582	1161.0628	1185.2605	1198.9835	1215.6504	1244.2951	1253.2724	1264.2902	1279.6549	1298.841	1332.4069	1353.9785	1378.9114	1440.7332	1479.7477	1500.8949	1508.1521	1546.8671	2996.7501	3029.7321	3053.98	3060.1498	3062.9881	3063.675	3097.7871	3101.1345	3118.6966	3122.1293	3767.1603
OCC12CCC3C1CN23	OC[C@@]12CC[C@H]3[C@@H]1CN23	
InChI=1S/C7H11NO/c9-4-7-2-1-6-5(7)3-8(6)7/h5-6,9H,1-4H2	InChI=1S/C7H11NO/c9-4-7-2-1-6-5(7)3-8(6)7/h5-6,9H,1-4H2/t5-,6-,7-/m0/s1
