23
gdb 113081	2.01244	1.2323	0.99116	0.7686	82.42	-0.2431	0.0781	0.3212	1359.3471	0.204085	-425.400777	-425.390302	-425.389358	-425.436225	38.233	
C	-0.9516804131	 0.6397906062	 0.3285561517	-0.235721
O	-0.2166939073	-0.5546018925	 0.1933945887	-0.241499
C	 0.9185747596	-0.6120642605	 1.0338496246	 0.119243
C	 0.5990546526	-1.0210590636	 2.5015112126	-0.254126
C	 0.9486706858	-2.4943231564	 2.1454156218	 0.005008
C	-0.2763358338	-3.3647266164	 1.9170441323	-0.093819
O	-0.8902809857	-3.5716400114	 3.1851869604	-0.427529
C	 1.6548509098	-1.9678982856	 0.8518278205	-0.012408
C	 1.5446599115	-2.7056660357	-0.4758286292	-0.411294
H	-0.3350426736	 1.5207821636	 0.0898254966	 0.103698
H	-1.7858138719	 0.590716791	-0.3758450814	 0.124059
H	-1.3540886281	 0.7694232054	 1.3440831564	 0.108161
H	 1.523107033	 0.2972827269	 0.8952900863	 0.052939
H	 1.2950198632	-0.5775987912	 3.2183442767	 0.094963
H	-0.4217854192	-0.8429986909	 2.8469134547	 0.109727
H	 1.6036308247	-3.00466719	 2.857599243	 0.068505
H	-0.9644160602	-2.8649036356	 1.2205303863	 0.100024
H	 0.023038307	-4.3232947901	 1.4630763707	 0.080278
H	-1.7055465444	-4.061401584	 3.04436745	 0.283667
H	 2.7125091469	-1.8043287043	 1.0865318645	 0.074077
H	 0.5051536794	-2.8283544023	-0.7868757511	 0.130727
H	 2.0594418557	-2.1515578924	-1.2680837961	 0.111968
H	 2.0073635677	-3.6963795199	-0.4104091299	 0.109351
65.7539	124.2215	131.9122	167.8828	182.4637	199.2846	210.2329	257.2243	281.8396	324.6042	385.2557	440.6898	498.9049	539.0347	703.3752	805.596	839.7328	884.2145	920.1836	945.2301	965.7292	983.2266	1062.4496	1065.2172	1095.6062	1109.2507	1152.8284	1162.3265	1172.6378	1184.8479	1194.1763	1233.6346	1253.5043	1257.1162	1265.4768	1293.0438	1311.8545	1362.4075	1369.2238	1384.7564	1409.9488	1458.6167	1473.5355	1481.3059	1486.8312	1490.4762	1501.272	1510.0539	1529.3393	2969.1326	2972.6085	2980.5824	3018.5648	3024.4396	3034.379	3041.6914	3060.2957	3070.6843	3093.2962	3111.7188	3119.2191	3128.2805	3829.6152
COC1CC(CO)C1C	CO[C@H]1C[C@@H](CO)[C@H]1C	
InChI=1S/C7H14O2/c1-5-6(4-8)3-7(5)9-2/h5-8H,3-4H2,1-2H3	InChI=1S/C7H14O2/c1-5-6(4-8)3-7(5)9-2/h5-8H,3-4H2,1-2H3/t5-,6+,7+/m1/s1
