21
gdb 110218	2.1736	1.3194	1.18824	1.9923	79.16	-0.2234	0.0661	0.2895	1225.0815	0.180089	-424.188499	-424.178627	-424.177683	-424.22297	36.737	
C	 0.095358534	 1.3584749701	-0.4458426146	-0.374889
C	-0.0487603722	 0.0156615908	 0.2804180968	-0.212768
C	-1.4261985277	-0.5984029459	 0.1364079903	-0.141978
C	-1.9796218227	-1.2407620702	-1.1266259898	 0.2443
O	-3.1843537402	-0.8963506672	-1.7102547693	-0.455813
C	-0.9067893582	-2.0857784157	-1.8058939198	-0.152439
O	-0.6232173934	-2.7707105591	-0.5559689709	-0.318268
C	-1.7086255069	-2.0865336241	 0.0982505817	 0.374956
C	-2.5470272978	-2.8705072478	 1.0521082925	-0.489573
H	 1.098516149	 1.7761486496	-0.3142480213	 0.114936
H	-0.0792807666	 1.2469245274	-1.5219300763	 0.109563
H	-0.6226438558	 2.0957401356	-0.0690269669	 0.110591
H	 0.697866786	-0.695980535	-0.0860918541	 0.118056
H	 0.1659997687	 0.1522090911	 1.3479147869	 0.096808
H	-2.2250962155	-0.0679093754	 0.6555797831	 0.086077
H	-3.1477141033	 0.033136174	-1.9600853156	 0.288574
H	-1.3281463702	-2.7792387114	-2.5425887456	 0.113505
H	-0.0227246321	-1.5879373966	-2.22192805	 0.099216
H	-1.9701847169	-3.145473624	 1.942409006	 0.129793
H	-3.4080403348	-2.2784331906	 1.3746874165	 0.128591
H	-2.9109021736	-3.7904850656	 0.5843405403	 0.130761
73.8175	129.8522	156.3411	175.7286	199.3945	247.7303	273.1073	278.8976	307.5375	367.6654	422.6434	522.8702	590.6535	614.6242	736.898	741.7694	792.1629	836.0925	909.4539	952.2727	967.1805	983.1376	1035.2815	1053.5425	1098.8942	1109.2573	1142.307	1146.0397	1169.6448	1213.3189	1257.239	1278.6712	1310.7068	1327.637	1350.4125	1374.1001	1408.5766	1412.1119	1471.7424	1488.4125	1493.224	1498.8102	1504.8707	1511.0987	1531.721	3021.5967	3026.3542	3029.087	3033.4238	3071.7259	3074.5055	3095.5451	3096.9743	3100.6363	3114.1284	3119.8304	3798.6223
CCC1C2(O)COC12C	CC[C@H]1[C@@]2(O)CO[C@@]12C	
InChI=1S/C7H12O2/c1-3-5-6(2)7(5,8)4-9-6/h5,8H,3-4H2,1-2H3	InChI=1S/C7H12O2/c1-3-5-6(2)7(5,8)4-9-6/h5,8H,3-4H2,1-2H3/t5-,6+,7+/m1/s1
