14
gdb 128041	6.82727	0.77462	0.70412	1.5629	70.01	-0.2552	-0.054	0.2012	1522.2602	0.09928	-469.962023	-469.953836	-469.952892	-469.996231	28.226	
C	 0.0068212951	 1.4026056463	 0.0634938399	-0.319894
N	-0.0694932446	-0.0432324424	-0.0072496581	-0.192489
C	 0.5437749658	-0.6095746659	-0.9383092048	 0.106745
O	 0.5002839603	-1.9838629728	-1.0101717975	-0.234856
C	 1.0811176268	-2.5881727261	-2.0622448283	 0.343907
C	 1.527992317	-3.869409845	-2.145979157	-0.06178
O	 1.980404458	-4.0559956606	-3.3887946814	-0.150721
N	 1.810619813	-2.8384311266	-4.0799679454	 0.00558
N	 1.2797355035	-2.0071113757	-3.2874167924	-0.194691
H	 0.430795654	 1.6939903126	 1.0303391979	 0.137333
H	 0.6091394266	 1.8605201695	-0.7359863897	 0.108279
H	-1.0052108219	 1.818639494	 0.0197866057	 0.138822
H	 1.1342837576	-0.1415860885	-1.7311572665	 0.130593
H	 1.5741517788	-4.6924562088	-1.4549749123	 0.183173
41.9184	69.7496	123.8785	206.132	293.5491	307.815	364.5614	408.1028	541.3391	644.5916	706.8595	717.4982	793.1017	810.7682	969.0098	985.9288	1044.1158	1057.976	1132.5826	1137.4478	1141.3976	1184.8262	1308.9613	1337.4278	1394.1703	1440.9248	1449.7845	1481.213	1502.989	1647.1258	1788.6174	2985.4914	3072.6987	3090.4375	3091.7546	3304.0959
CN=COC1=CON=N1	CN=COc1conn1	
InChI=1S/C4H5N3O2/c1-5-3-8-4-2-9-7-6-4/h2-3H,1H3	InChI=1S/C4H5N3O2/c1-5-3-8-4-2-9-7-6-4/h2-3H,1H3
