19
gdb 72108	2.63239	1.83527	1.46035	3.0646	78.8	-0.2292	-0.002	0.2272	971.2383	0.16085	-385.883356	-385.875997	-385.875053	-385.914845	29.752	
C	 0.0030415266	 1.5416427984	 0.0025114073	-0.505525
C	 0.0340547347	 0.0358172807	 0.0289439202	 0.188675
C	-1.2675929048	-0.7798655995	-0.1918163866	-0.257231
C	-0.7346283974	-2.0999669298	 0.4127320039	-0.039758
C	-0.449385588	-1.6731529995	 1.8762907256	-0.243142
C	 0.6559195879	-0.828171924	 1.2270497522	-0.070926
C	 0.8134551294	-1.9389782164	 0.1021271728	-0.169768
C	 0.9847575013	-0.7841283943	-0.8640552838	 0.41482
O	 1.7251882467	-0.5217112854	-1.7689566838	-0.34035
H	 1.0060202496	 1.960999848	 0.1290068577	 0.127031
H	-0.3850579978	 1.9019058792	-0.9562383454	 0.130241
H	-0.6382113575	 1.9424818001	 0.7950271179	 0.116534
H	-2.1248477199	-0.3877010315	 0.3646050014	 0.09911
H	-1.5409264663	-0.8457285098	-1.2497800801	 0.106448
H	-1.2617782985	-3.0232166449	 0.1752057435	 0.072851
H	-1.2511896852	-1.1792950275	 2.4353123628	 0.094015
H	-0.0262802206	-2.4829545679	 2.476569846	 0.105599
H	 1.5080913318	-0.4009282676	 1.7524959107	 0.08357
H	 1.4713233679	-2.8011638084	 0.1769795077	 0.087808
138.1581	174.3004	207.2721	277.0716	329.5108	440.0532	510.2971	564.9343	634.9452	670.4335	741.5492	787.2569	803.7429	836.1218	843.2496	901.0041	924.7918	950.5395	969.7302	1000.2006	1011.9913	1049.6267	1053.6189	1072.0174	1129.1455	1135.5958	1180.4042	1188.3309	1200.0119	1208.4325	1251.1171	1272.275	1282.2035	1297.1357	1363.1162	1414.3542	1488.8477	1490.6181	1495.6917	1515.5624	1880.1617	3030.9348	3040.3228	3044.8031	3088.0864	3096.4611	3102.7047	3103.7626	3121.4263	3133.9431	3156.9591
CC12CC3CC1C3C2=O	C[C@]12C[C@@H]3C[C@H]1[C@@H]3C2=O	
InChI=1S/C8H10O/c1-8-3-4-2-5(8)6(4)7(8)9/h4-6H,2-3H2,1H3	InChI=1S/C8H10O/c1-8-3-4-2-5(8)6(4)7(8)9/h4-6H,2-3H2,1H3/t4-,5-,6+,8-/m0/s1
