16
gdb 19945	3.59923	1.86128	1.45793	1.2184	65.65	-0.238	0.0165	0.2545	875.391	0.13146	-379.87864	-379.871434	-379.870489	-379.9105	26.603	
N	-0.9144264061	 0.4729925084	-1.196701259	-0.546803
C	-0.3998064127	-0.3241559662	-0.3749821992	 0.420552
O	 0.7391071159	-0.2137167542	 0.3912690356	-0.253298
C	 0.4760020156	-1.4901339775	 1.0591763589	-0.097917
C	-0.7665021346	-1.7092499818	 0.1671226819	-0.094278
N	-2.0144344214	-1.9665735411	 0.8476618225	-0.091404
C	-2.7570866792	-0.8408622724	 1.416790775	-0.232542
C	-3.2486309174	-1.5315247149	 0.19230519	-0.221139
H	-0.368196078	 1.3328842392	-1.2800179501	 0.229457
H	 1.3118126343	-2.1805771915	 0.9318225531	 0.12488
H	 0.2519859539	-1.3393436135	 2.1174641018	 0.128811
H	-0.6211576849	-2.4872041757	-0.5881957991	 0.11668
H	-3.2151902448	-1.0356142318	 2.3818252649	 0.117902
H	-2.3645271943	 0.1642702964	 1.2845278472	 0.129635
H	-3.1595921361	-0.9811960834	-0.7404444899	 0.151813
H	-4.0742602204	-2.23497071	 0.2508300664	 0.117652
75.0738	135.516	164.5549	251.5273	352.1852	441.0034	474.0509	640.2167	719.958	781.879	821.8271	869.5672	885.638	914.4588	948.071	966.3024	1014.7097	1035.6084	1088.6882	1104.8078	1129.2295	1137.5483	1156.9361	1179.567	1196.8809	1229.3155	1245.9268	1331.1145	1337.9417	1379.7375	1485.3688	1511.1206	1516.4988	1810.4689	3069.8928	3073.112	3109.8062	3112.7033	3136.2572	3194.5113	3209.3103	3465.5884
N=C1OCC1N1CC1	[NH][C]1OC[C@H]1N1CC1	
InChI=1S/C5H8N2O/c6-5-4(3-8-5)7-1-2-7/h4,6H,1-3H2	InChI=1S/C5H8N2O/c6-5-4(3-8-5)7-1-2-7/h4,6H,1-3H2/t4-/m1/s1
