19
gdb 36523	3.92619	1.00708	0.85055	2.1057	77.52	-0.2575	0.0572	0.3147	1362.1394	0.159179	-422.999125	-422.99056	-422.989616	-423.032606	32.613	
C	-0.0334541088	-1.2178927442	 0.0184515789	-0.453192
C	-0.0039340514	-0.0190618764	-0.0520574378	 0.309149
C	 0.0295012708	 1.4348955569	-0.1158909731	-0.384471
C	 1.4461791126	 2.0065463954	-0.0759061552	 0.216733
O	 2.1073925901	 1.633862454	-1.2560993153	-0.243373
C	 3.4316579585	 2.1509722502	-1.3032178934	-0.076919
C	 3.4095472258	 3.6749755562	-1.1690722585	-0.207359
C	 2.5979870718	 4.0404209622	 0.0756011087	-0.081074
O	 1.3256779723	 3.4038645772	 0.045179966	-0.249558
H	-0.059980148	-2.2778351509	 0.0702304255	 0.19425
H	-0.4423715108	 1.7940729671	-1.0372524235	 0.146157
H	-0.5254515184	 1.8686560178	 0.7227883204	 0.14077
H	 2.0066541537	 1.6138081644	 0.7948244778	 0.063448
H	 4.0346241897	 1.7070558358	-0.4928438915	 0.091604
H	 3.8562483202	 1.8280398147	-2.2568605882	 0.114116
H	 4.4279903779	 4.0721108073	-1.0947895746	 0.09972
H	 2.9342377866	 4.1104621287	-2.054066226	 0.116168
H	 3.1436675054	 3.7361093896	 0.9851781773	 0.090588
H	 2.4053565019	 5.1142191738	 0.1400982525	 0.113243
64.0321	101.0464	176.4238	257.7235	296.133	335.6125	346.1135	401.2945	477.8398	523.5263	559.2687	617.9666	646.4653	653.2658	829.276	871.4875	900.4122	928.4452	961.0111	988.0701	1020.9448	1048.2754	1071.6614	1098.0207	1162.5394	1174.101	1236.0196	1240.901	1264.76	1305.1809	1321.8826	1370.2887	1376.3732	1411.4268	1417.333	1422.1894	1458.7551	1468.8343	1497.1621	1506.3851	2245.481	2916.0802	2961.5409	2969.2061	3043.4557	3045.8775	3087.6173	3090.4298	3094.8161	3100.1995	3508.5398
C#CCC1OCCCO1	C#CCC1OCCCO1	
InChI=1S/C7H10O2/c1-2-4-7-8-5-3-6-9-7/h1,7H,3-6H2	InChI=1S/C7H10O2/c1-2-4-7-8-5-3-6-9-7/h1,7H,3-6H2
