16
gdb 113752	3.5341	0.86535	0.77077	2.6516	66.	-0.2824	-0.0068	0.2756	1436.7449	0.121928	-474.988142	-474.978498	-474.977554	-475.024375	33.284	
O	-0.0880107004	 1.3980228216	-0.6509092554	-0.415316
C	 0.0521264762	 0.2208134019	 0.1231219876	-0.085844
C	-1.278438165	-0.4705413541	 0.2923039367	 0.031831
O	-1.7606397185	-1.2253239308	-0.8382022735	-0.255059
C	-1.4873824095	-1.9227071126	 0.3715709348	 0.026738
C	-0.3388040441	-2.926394974	 0.3499545928	-0.046733
O	 0.275528362	-3.0587796716	 1.6176982681	-0.405484
C	-0.8141905618	-4.2303811138	-0.1567987499	 0.257565
N	-1.2074168071	-5.2573650651	-0.5109268333	-0.306231
H	-0.4182070964	 1.1347866623	-1.5173017239	 0.295465
H	 0.7960044191	-0.4601464875	-0.3117241596	 0.096533
H	 0.4238586307	 0.5380182174	 1.102981814	 0.129228
H	-2.044433159	 0.1607126292	 0.7450263999	 0.112504
H	-2.3740661797	-2.280893068	 0.8988425331	 0.111623
H	 0.4369230679	-2.5660928022	-0.3297419974	 0.151581
H	-0.3407984046	-3.4965465627	 2.2164545261	 0.301599
21.0755	67.141	109.6121	151.3285	205.1287	242.2177	281.3663	331.5816	381.1831	405.6052	493.7177	503.9525	582.0795	619.4894	798.2643	855.8398	933.6046	955.7731	1045.5345	1054.5398	1074.1099	1092.9361	1153.2882	1159.5854	1228.4656	1243.568	1289.641	1304.7835	1360.5644	1396.9915	1406.9156	1428.9062	1485.0988	1493.1843	2358.0223	3014.603	3081.5345	3087.5762	3101.7493	3113.3594	3801.6202	3804.7404
OCC1OC1C(O)C#N	OC[C@H]1O[C@H]1[C@@H](O)C#N	
InChI=1S/C5H7NO3/c6-1-3(8)5-4(2-7)9-5/h3-5,7-8H,2H2	InChI=1S/C5H7NO3/c6-1-3(8)5-4(2-7)9-5/h3-5,7-8H,2H2/t3-,4+,5-/m0/s1
