12
gdb 133188	3.12038	1.46857	1.00477	4.8283	60.23	-0.2876	-0.1123	0.1753	1054.9645	0.0751	-513.905837	-513.898271	-513.897326	-513.938614	27.017	
C	-0.0349706599	 1.4925657235	 0.0387752298	-0.48754
C	-0.0058911946	-0.0009057373	-0.0111846608	 0.232639
N	-0.0298893481	-0.6318136698	-1.1341720454	-0.349553
C	-0.0008645626	-2.0274503197	-1.1327925762	 0.48422
O	-0.0188373319	-2.7116933896	-2.1076652228	-0.307369
O	 0.0542572964	-2.695273931	 0.1083575519	-0.245494
N	 0.0799215607	-2.0289577839	 1.3089181251	-0.100863
C	 0.0505717159	-0.7566503014	 1.2292803353	 0.316674
F	 0.075260007	-0.0802277309	 2.3657978519	-0.039035
H	 0.8527903186	 1.8724650091	 0.5561742535	 0.164245
H	-0.0760232387	 1.8928912428	-0.9735743008	 0.167828
H	-0.9023368827	 1.8362986981	 0.6129583186	 0.164249
55.8673	131.795	197.0965	275.4886	369.4606	373.1351	391.7115	483.6196	539.0223	605.6679	673.1893	693.3903	787.2066	796.7033	841.5889	993.6015	1031.1449	1049.5728	1161.7512	1246.2516	1401.1788	1421.3244	1460.9181	1468.9928	1619.2299	1702.5874	1880.8433	3044.1986	3100.6992	3167.738
CC1=NC(=O)ON=C1F	Cc1nc(=O)onc1F	
InChI=1S/C4H3FN2O2/c1-2-3(5)7-9-4(8)6-2/h1H3	InChI=1S/C4H3FN2O2/c1-2-3(5)7-9-4(8)6-2/h1H3
