16
gdb 51278	3.54087	1.06472	0.82683	5.1186	75.67	-0.2296	-0.0198	0.2098	1307.6665	0.124144	-437.9465	-437.93827	-437.937325	-437.980357	29.983	
O	 1.9406361041	 4.14041903	 0.0636084076	-0.299921
C	 1.0596947177	 3.3127269159	 0.0546285887	 0.145321
N	 1.2231032802	 1.9529174354	-0.038780482	-0.395565
C	 2.417567678	 1.2368057357	-0.1421576104	 0.423921
C	 2.4930436594	-0.0995870284	-0.230415179	-0.21762
C	 3.9101359231	-0.5859922382	-0.3299905131	-0.357129
C	 4.7328338166	 0.7128476547	-0.2872264126	 0.399633
O	 5.9308519434	 0.7884003458	-0.340129314	-0.303123
C	 3.7680857777	 1.902436937	-0.1655605314	-0.416812
H	-0.0148282345	 3.5716311009	 0.1233767287	 0.08772
H	 0.374618545	 1.4047951627	-0.0319362618	 0.253741
H	 1.6372067649	-0.7652375691	-0.2310241953	 0.088664
H	 4.2165706259	-1.2454828093	 0.4930836367	 0.136846
H	 4.1318189901	-1.1341553858	-1.2555614527	 0.136859
H	 3.897718396	 2.5959065908	-1.0025224247	 0.158746
H	 3.9818630225	 2.4864963419	 0.7351984253	 0.158721
45.6195	83.5088	160.9125	196.9117	315.6934	328.4251	459.749	488.1932	514.7777	523.0134	613.1836	661.2011	782.8011	795.2528	846.2249	850.2786	884.9484	996.3437	1011.9405	1022.891	1106.4185	1126.1332	1139.0804	1179.1945	1236.0795	1274.5724	1284.906	1380.0551	1430.8998	1448.2032	1452.7321	1517.1982	1707.7166	1814.0863	1857.8852	2946.0604	3018.3528	3042.698	3064.3418	3093.602	3189.5308	3601.502
O=CNC1=CCC(=O)C1	O=CNC1=CCC(=O)C1	
InChI=1S/C6H7NO2/c8-4-7-5-1-2-6(9)3-5/h1,4H,2-3H2,(H,7,8)	InChI=1S/C6H7NO2/c8-4-7-5-1-2-6(9)3-5/h1,4H,2-3H2,(H,7,8)
