15
gdb 74515	4.2824	1.2012	1.05549	3.7528	67.49	-0.2312	-0.0245	0.2067	1103.2642	0.112782	-453.960496	-453.952812	-453.951868	-453.99258	29.36	
N	 0.1253659399	 1.358164458	-0.511293846	-0.578593
C	-0.0647082127	 0.0486274757	-0.1841889415	 0.453409
N	-1.1661199227	-0.6054833937	-0.2051475101	-0.39735
C	-0.8180162415	-1.9709062537	 0.0780362001	 0.221293
C	 0.1465213923	-2.668033162	-0.8796241157	-0.347445
C	 0.707057389	-1.9715018826	 0.3063467021	 0.037837
O	 1.0850093349	-0.6183090193	 0.1465626432	-0.242462
C	-1.7426323292	-2.7861412975	 0.8981495617	 0.085737
O	-1.5492027855	-3.9443581003	 1.1855735226	-0.278408
H	 0.9212588806	 1.8046727372	-0.0820242941	 0.268991
H	-0.7198505194	 1.907412847	-0.5268802101	 0.27489
H	 0.1345674889	-3.7509057699	-0.8214147227	 0.149423
H	 0.2709017299	-2.2285766971	-1.8633256787	 0.132733
H	 1.2215353331	-2.4770758964	 1.1126414478	 0.132995
H	-2.6406849975	-2.2317098854	 1.2438433913	 0.086949
109.1053	160.2433	213.2882	239.6136	354.0753	401.6788	421.3672	473.4518	519.2452	545.9546	681.4898	723.6085	736.8792	761.2316	793.2579	894.2321	928.6462	961.6719	992.2921	1043.9434	1072.2685	1083.1497	1137.7471	1144.7603	1244.6435	1278.2449	1361.0279	1415.087	1420.4352	1449.8315	1613.1031	1735.5323	1806.7867	2914.1667	3134.6413	3209.0282	3238.0722	3588.4053	3703.3727
NC1=NC2(CC2O1)C=O	NC1=N[C@]2(C[C@H]2O1)C=O	
InChI=1S/C5H6N2O2/c6-4-7-5(2-8)1-3(5)9-4/h2-3H,1H2,(H2,6,7)	InChI=1S/C5H6N2O2/c6-4-7-5(2-8)1-3(5)9-4/h2-3H,1H2,(H2,6,7)/t3-,5-/m1/s1
