15
gdb 47210	2.71358	1.78419	1.1669	4.7421	69.07	-0.2617	-0.0185	0.2432	1006.6369	0.112689	-457.774638	-457.767174	-457.76623	-457.807207	27.773	
O	-0.0276309279	 0.1591641328	 0.6938939156	-0.32254
C	-0.035668505	 1.2357866012	 0.1665925715	 0.399288
O	-1.1872762003	 1.709752809	-0.3585808149	-0.246501
C	-1.3277035726	 2.9798050797	-1.0042355547	-0.114922
C	-0.0746378901	 3.7721744686	-1.1656237892	-0.121182
C	 1.0925533428	 3.3712585785	-0.6754804052	-0.103745
C	 1.2029859031	 2.1035412688	 0.0652313201	 0.201403
C	 2.2196805083	 1.9108928658	 1.1253968898	-0.208146
O	 2.4082670694	 1.3491175347	-0.1605568228	-0.255166
H	-1.779569197	 2.7778241289	-1.9842329501	 0.140142
H	-2.0717424474	 3.5478917506	-0.4288211517	 0.13685
H	-0.173194881	 4.7056773966	-1.7114730428	 0.1161
H	 2.0038417326	 3.9454961043	-0.8079776873	 0.114466
H	 2.8710247671	 2.7464766718	 1.3803167638	 0.11755
H	 2.0023975682	 1.1983950687	 1.917655868	 0.146405
55.3929	106.6983	262.8117	295.5903	304.1756	413.3086	489.7343	497.7779	550.634	645.6049	732.0146	745.5021	830.6397	887.0055	919.3086	932.1226	972.7048	992.4509	1027.3017	1063.735	1136.0952	1160.3703	1170.9775	1204.8985	1258.9307	1317.9236	1336.4776	1430.9687	1437.1774	1500.1523	1503.1529	1741.538	1847.9596	3012.0057	3039.1838	3085.7117	3172.7642	3190.2481	3193.4963
O=C1OCC=CC11CO1	O=C1OCC=C[C@]21CO2	
InChI=1S/C6H6O3/c7-5-6(4-9-6)2-1-3-8-5/h1-2H,3-4H2	InChI=1S/C6H6O3/c7-5-6(4-9-6)2-1-3-8-5/h1-2H,3-4H2/t6-/m1/s1
