20
gdb 105689	2.70502	0.99675	0.90925	3.6849	77.13	-0.2566	0.025	0.2815	1401.2076	0.169058	-440.262203	-440.252305	-440.251361	-440.298057	35.228	
C	 1.1178917525	 0.0023087414	 0.4503917404	-0.400589
C	 0.0332023361	-0.0734943077	-0.6257570218	-0.251519
C	-1.3781644845	-0.3030430897	-0.1101346145	 0.390724
C	-2.4668564197	-0.2786555133	-1.1665352328	-0.16031
O	-2.4706300613	 0.9388571552	-1.9088992864	-0.186116
C	-3.0743910008	 1.9995274137	-1.3233105062	 0.130874
N	-3.0367952076	 3.1257163093	-1.8899416221	-0.442349
C	-1.6661042504	-1.0299908682	 1.1352263238	-0.229749
O	-1.7452183054	 0.3981900702	 1.0927376226	-0.268498
H	 2.0676291092	 0.3144632134	 0.0078511696	 0.119379
H	 0.8450196949	 0.726531743	 1.2221707341	 0.140309
H	 1.2855574522	-0.965575942	 0.9335554278	 0.1138
H	 0.0189487591	 0.856385055	-1.2049535859	 0.137597
H	 0.2634040921	-0.8711995991	-1.3442165488	 0.104408
H	-2.3005015576	-1.0682363467	-1.9052810819	 0.123747
H	-3.4434703236	-0.4428718742	-0.694710479	 0.109801
H	-3.5600622163	 1.7549261108	-0.371231602	 0.104873
H	-3.5519201252	 3.8065864335	-1.3354928428	 0.229227
H	-2.6178841432	-1.5472786667	 1.2543235997	 0.112282
H	-0.8489374606	-1.4316993078	 1.7293481864	 0.122108
52.6979	63.5417	87.1496	128.251	208.3034	220.9091	292.9818	307.2782	351.1742	398.6856	434.6258	542.631	660.6222	708.1055	778.2625	823.3958	832.268	901.1582	943.147	967.4916	1012.2	1020.052	1043.1528	1092.7308	1120.1855	1134.8084	1146.1412	1173.1343	1222.4377	1264.3913	1301.3546	1328.732	1379.7274	1389.2881	1406.9353	1422.0666	1437.4371	1485.1663	1486.5688	1498.8934	1510.996	1534.2235	1745.1907	3027.7987	3030.8099	3044.3984	3056.501	3071.8676	3088.219	3096.2596	3110.4846	3127.6051	3178.928	3516.573
CCC1(COC=N)CO1	CC[C@@]1(CO[CH][NH])CO1	
InChI=1S/C6H11NO2/c1-2-6(4-9-6)3-8-5-7/h5,7H,2-4H2,1H3	InChI=1S/C6H11NO2/c1-2-6(4-9-6)3-8-5-7/h5,7H,2-4H2,1H3/t6-/m1/s1
