19
gdb 30019	3.06788	1.56377	1.06624	3.7397	82.51	-0.2008	0.0363	0.2371	1135.1456	0.162821	-382.118075	-382.110113	-382.109169	-382.150846	29.806	
C	-0.0191769296	 1.4613205538	 0.0175650191	-0.344806
N	-0.0281587995	 0.0145722455	 0.0414318766	-0.118006
C	-0.0496796335	-0.8241499096	-1.0504458726	-0.033795
N	-0.0599331102	-2.1012533498	-0.724895464	-0.360405
C	-0.0527373389	-2.0883977427	 0.6464286647	 0.264371
C	-0.0367750293	-0.817092213	 1.1361158168	 0.290934
C	 0.0428452419	-0.722885011	 2.6228047325	-0.351816
C	-0.2353593619	-2.2214528678	 3.0096768901	-0.193281
C	 0.0062360044	-3.1108595359	 1.7413637284	-0.337452
H	 0.8722678406	 1.8577131522	 0.5143295404	 0.141928
H	-0.0162713792	 1.7998237156	-1.0205208637	 0.144478
H	-0.9056162412	 1.8695650257	 0.5137863901	 0.141984
H	-0.0664097325	-0.4263285184	-2.0554984378	 0.118525
H	 1.0329895173	-0.3934900007	 2.9681570752	 0.10695
H	-0.6888453703	-0.0485604658	 3.082971229	 0.103366
H	 0.3740879802	-2.5373994617	 3.8598590443	 0.099473
H	-1.2818623096	-2.3127998931	 3.3142989604	 0.110769
H	-0.7461538011	-3.9014019315	 1.6544306035	 0.109554
H	 0.9834760423	-3.6098230719	 1.7783677869	 0.107227
91.213	120.2511	154.7087	220.9192	241.2542	282.8693	494.8242	567.085	623.746	631.6371	691.8586	729.6418	782.357	789.0713	831.4506	894.7549	912.6029	990.3173	1056.4417	1060.4986	1069.643	1149.456	1155.0846	1203.2397	1214.9081	1220.4328	1250.7337	1284.9773	1306.6577	1332.9753	1360.4982	1406.4622	1450.8046	1457.2223	1482.7011	1484.3583	1497.3004	1510.1716	1517.8806	1535.0972	1617.7485	3001.6186	3019.0759	3035.3124	3041.0592	3058.7464	3069.6138	3093.6322	3107.0444	3132.5143	3235.6575
CN1C=NC2=C1CCC2	Cn1cnc2c1CCC2	
InChI=1S/C7H10N2/c1-9-5-8-6-3-2-4-7(6)9/h5H,2-4H2,1H3	InChI=1S/C7H10N2/c1-9-5-8-6-3-2-4-7(6)9/h5H,2-4H2,1H3
