12
gdb 130738	3.16211	1.27875	1.02059	3.4367	60.42	-0.274	-0.046	0.228	1089.1531	0.078692	-464.986506	-464.978939	-464.977995	-465.01984	26.157	
O	-0.0459414522	-0.0555574994	 0.2412373287	-0.404253
C	-0.0417428472	 1.1409256722	 0.073454275	 0.536273
N	-1.0724519584	 2.0589390405	-0.0151369535	-0.310858
N	-0.6235554539	 3.3289055061	-0.195437293	-0.051519
N	 0.6439227632	 3.2985862393	-0.2323191935	-0.101061
N	 1.0414423143	 2.0041440739	-0.0740056234	-0.069375
C	 2.4285197399	 1.6069005217	-0.0747046241	-0.290813
C	 3.0367777292	 1.6330271764	-1.4117439149	 0.283699
N	 3.5302812877	 1.651854836	-2.454892707	-0.283716
H	-2.0597229496	 1.8721688214	 0.0395929484	 0.302797
H	 2.999160398	 2.2544418727	 0.5971590799	 0.186818
H	 2.4526181091	 0.5846732092	 0.3169336473	 0.202007
41.7689	84.9314	227.8867	244.8314	267.9125	366.1149	449.0569	493.679	568.0723	698.8274	734.5509	750.8921	812.3522	917.7481	935.0304	1003.3791	1044.521	1168.5826	1198.7602	1328.3938	1366.3525	1387.4252	1406.4905	1448.7254	1497.328	1862.4562	2374.3763	3064.6123	3113.9205	3682.9526
O=C1NN=NN1CC#N	O=c1[nH]nnn1CC#N	
InChI=1S/C3H3N5O/c4-1-2-8-3(9)5-6-7-8/h2H2,(H,5,7,9)	InChI=1S/C3H3N5O/c4-1-2-8-3(9)5-6-7-8/h2H2,(H,5,7,9)
