22
gdb 89023	4.01003	0.69992	0.62828	1.8853	84.07	-0.2227	-0.0083	0.2143	1834.0222	0.19101	-404.343258	-404.332531	-404.331586	-404.380807	37.688	
C	 0.1058607182	 1.4744801486	-0.507623158	-0.411632
C	-0.0173985833	 0.0388193282	-0.0445162244	 0.031779
C	 1.1783395096	-0.8401900557	 0.1008069372	-0.257815
N	 0.4159474915	-0.4228678429	 1.2760382051	-0.087182
C	 1.0511604544	 0.5102104059	 2.2000000403	-0.141628
C	 1.7296815536	-0.2717677707	 3.322777594	-0.295178
C	 2.365350942	 0.6147751758	 4.3822992274	 0.378076
C	 3.0463681923	-0.0998321731	 5.5371650684	-0.472103
O	 2.3297352978	 1.8231039717	 4.3121854539	-0.294342
H	 1.0781771984	 1.9115476968	-0.269403649	 0.124095
H	-0.0226061271	 1.5246402055	-1.5940823398	 0.121364
H	-0.6687538568	 2.1034246827	-0.0550087358	 0.124953
H	-0.9468840316	-0.4369240978	-0.3567546106	 0.088236
H	 1.138287799	-1.8967966346	-0.1521022417	 0.109948
H	 2.1496665428	-0.372166786	-0.063471725	 0.102221
H	 1.7915875393	 1.1715015067	 1.7260541705	 0.09776
H	 0.2795973035	 1.1595648921	 2.6263200472	 0.115667
H	 1.0059897287	-0.9421999503	 3.8043592821	 0.129528
H	 2.5049074289	-0.9361611912	 2.9156717009	 0.119496
H	 3.8365010066	-0.7619429031	 5.1655602063	 0.136516
H	 3.4722566659	 0.630660028	 6.2259583793	 0.141376
H	 2.3277943464	-0.7331922466	 6.0695139916	 0.138863
27.9282	60.2831	86.6074	99.5998	124.9911	177.4059	225.9343	259.6086	335.476	390.7503	435.6532	482.175	528.3477	587.0834	749.5131	758.9784	789.76	869.5518	902.0166	930.9363	938.397	959.6617	1033.0424	1051.2715	1086.9061	1109.5384	1118.6729	1147.7106	1162.422	1176.625	1193.1754	1228.9575	1313.4237	1325.5081	1338.7835	1382.9165	1396.2636	1409.0026	1422.1982	1451.5222	1465.9937	1477.4965	1487.8677	1494.0042	1500.7565	1513.4952	1806.8752	2990.9644	3019.9322	3036.3837	3037.4899	3052.4612	3077.7734	3079.4198	3093.8965	3097.6265	3097.8698	3125.9439	3151.7681	3167.2371
CC1CN1CCC(C)=O	C[C@H]1CN1CCC(=O)C	
InChI=1S/C7H13NO/c1-6-5-8(6)4-3-7(2)9/h6H,3-5H2,1-2H3	InChI=1S/C7H13NO/c1-6-5-8(6)4-3-7(2)9/h6H,3-5H2,1-2H3/t6-,8?/m0/s1
