20
gdb 57472	2.50875	1.4203	1.12775	2.5337	75.22	-0.2504	0.026	0.2764	1157.3625	0.169503	-440.316404	-440.306817	-440.305873	-440.350386	36.306	
C	-0.1094022512	 1.5042095217	-0.0252724132	-0.437963
C	 0.0177703986	-0.0236659256	 0.0555548601	 0.324878
C	 0.7831809931	-0.4487071059	 1.3096373399	-0.399111
O	-1.2796187496	-0.6215477785	 0.1743745203	-0.468114
C	 0.7023921826	-0.5506728595	-1.2180399806	-0.152494
C	 0.7706684627	-2.0912422483	-1.4447078822	-0.194246
N	 0.0321217323	-1.8738329891	-2.6981444866	-0.316131
C	-0.2013187808	-0.5414455234	-2.4799812879	 0.407831
O	-0.9051022434	 0.2701570858	-3.0285470422	-0.377366
H	 0.8746484552	 1.9840155987	-0.0306007675	 0.112369
H	-0.6303607859	 1.7959997194	-0.9424451207	 0.14659
H	-0.669487255	 1.8737858842	 0.8385558333	 0.118576
H	 0.2833648314	-0.0582659063	 2.2005639399	 0.124453
H	 0.8191571129	-1.5385341819	 1.3934044075	 0.120485
H	 1.8079891494	-0.0665068638	 1.2888663782	 0.111716
H	-1.8451606744	-0.220513508	-0.4965847147	 0.29054
H	 1.6597358111	-0.0492284384	-1.3835497227	 0.09869
H	 1.7665118316	-2.5210508238	-1.5811036066	 0.10985
H	 0.2046211155	-2.6607488358	-0.7027352826	 0.12899
H	-0.469244016	-2.5247094416	-3.2857464417	 0.250458
71.3885	142.3344	148.1583	216.8059	234.7964	274.0763	300.1303	335.0658	384.9948	410.5257	423.7189	455.0368	548.3394	551.68	666.4219	763.2577	793.6474	866.2179	918.8123	936.7128	966.4878	985.2933	1012.4988	1022.5351	1068.1882	1136.4859	1174.4517	1182.3777	1189.4837	1209.4913	1246.3794	1299.1178	1325.0982	1376.6988	1395.2592	1403.4598	1419.6364	1479.8337	1488.5892	1499.5486	1514.2724	1514.6308	1869.0374	3035.4588	3043.7706	3054.5972	3081.2524	3108.5065	3109.6366	3118.1464	3119.2797	3122.0716	3600.5721	3788.8598
CC(C)(O)C1CNC1=O	CC(C)(O)[C@H]1CNC1=O	
InChI=1S/C6H11NO2/c1-6(2,9)4-3-7-5(4)8/h4,9H,3H2,1-2H3,(H,7,8)	InChI=1S/C6H11NO2/c1-6(2,9)4-3-7-5(4)8/h4,9H,3H2,1-2H3,(H,7,8)/t4-/m0/s1
