20
gdb 106074	3.12331	1.4647	1.28845	0.7242	86.07	-0.2065	-0.0337	0.1729	1083.9123	0.171059	-365.898731	-365.890725	-365.889781	-365.931074	31.718	
C	 0.1198711669	-1.1719532306	 1.2541695313	-0.383831
C	-0.1068214207	-0.1022327197	 0.1821061789	-0.316418
C	 0.5588070706	-0.4192642544	-1.1254681795	 0.331323
C	 0.8038309356	-1.681768121	-1.8323994235	-0.062073
C	 0.1958892607	-1.5642668165	-3.2421863293	-0.273513
C	 0.4513216919	-0.0854415861	-3.4975765174	-0.114971
C	 0.7907733905	 0.5082107796	-2.3310860689	-0.040726
C	 2.2869868686	 0.4862367048	-2.0135558221	-0.174036
N	 1.9871822676	-0.8249941541	-1.2757224542	-0.191496
H	-0.3437298158	-2.1227262562	 0.9715521106	 0.114746
H	 1.1894437224	-1.3506005652	 1.3975390402	 0.137192
H	-0.3103008191	-0.8618178332	 2.2105435361	 0.11207
H	-1.180981352	 0.036858289	 0.0028706581	 0.107061
H	 0.2661512062	 0.8675875736	 0.5376149966	 0.10429
H	 0.8209582937	-2.6384848075	-1.3177819755	 0.098959
H	 0.7128299477	-2.144063551	-4.0156250588	 0.117197
H	-0.8416595855	-1.9287296808	-3.2147881358	 0.116041
H	 0.9130311705	 0.216976559	-4.4342365707	 0.094556
H	 2.980841069	 0.4287849073	-2.856942691	 0.108418
H	 2.6637474212	 1.1768063028	-1.2527823452	 0.115211
81.139	172.1316	189.8414	260.5865	271.7862	333.1419	447.5997	480.6664	563.3504	603.9465	684.3424	719.7452	770.6638	807.214	814.131	878.4242	904.4094	910.0599	934.0681	976.5246	995.1183	1032.4189	1049.0796	1056.2235	1078.6697	1118.1895	1128.5912	1165.4794	1173.5969	1241.3361	1255.642	1283.9563	1290.4863	1310.3286	1369.0773	1406.8239	1432.4056	1467.6274	1484.214	1496.8894	1509.5973	1511.4501	1577.0535	2997.7058	3016.5978	3040.4788	3042.1707	3046.1006	3060.1406	3104.2305	3107.9985	3119.1698	3152.0983	3161.5296
CCC12C3CC=C1CN23	CC[C@@]12[C@H]3C[CH][C]1CN23	
InChI=1S/C8H11N/c1-2-8-6-3-4-7(8)9(8)5-6/h3,7H,2,4-5H2,1H3	InChI=1S/C8H11N/c1-2-8-6-3-4-7(8)9(8)5-6/h3,7H,2,4-5H2,1H3/t7-,8+,9?/m1/s1
