12
gdb 131012	5.17367	1.1217	0.92184	6.007	69.51	-0.2543	-0.0992	0.1551	1137.819	0.07702	-468.800481	-468.793278	-468.792333	-468.832826	25.864	
O	-0.1057419706	-0.0429598791	-0.0001240052	-0.231979
C	-0.0571888088	 1.1473514512	 0.0091214447	 0.195852
N	 1.1381940823	 1.9125869312	 0.0024051588	-0.10064
C	 1.1075433665	 3.2846633505	 0.0140060775	 0.091257
C	 2.2536411701	 3.9858718494	 0.0072763188	-0.288758
C	 3.5142903578	 3.2661109033	-0.0123985916	 0.436771
O	 4.6143908769	 3.7621125066	-0.0203723318	-0.314867
N	 3.4162177919	 1.8102060894	-0.0231974726	-0.205805
N	 2.3319127337	 1.1923174929	-0.0164566402	-0.003362
H	-0.9371545476	 1.8169694852	 0.024233281	 0.114319
H	 0.1186248644	 3.7326060949	 0.0284629236	 0.161096
H	 2.2633690632	 5.0675211446	 0.0160593371	 0.146116
56.2756	145.6084	226.3351	259.6194	403.1374	420.4617	467.8256	495.3	613.7211	648.5658	731.4762	777.3785	788.7864	855.4539	934.4276	986.6844	1020.4187	1074.7266	1205.0403	1242.1186	1266.5697	1444.7248	1446.2375	1561.9107	1678.0455	1810.1828	1869.2827	2968.5739	3177.4923	3231.2748
O=CN1C=CC(=O)N=N1	O=Cn1ccc(=O)nn1	
InChI=1S/C4H3N3O2/c8-3-7-2-1-4(9)5-6-7/h1-3H	InChI=1S/C4H3N3O2/c8-3-7-2-1-4(9)5-6-7/h1-3H
