17
gdb 89838	3.26544	1.30361	1.03661	3.3253	68.84	-0.2719	0.0014	0.2734	1145.2232	0.135841	-458.991129	-458.983188	-458.982244	-459.023684	30.616	
O	 0.4747064197	 0.887584201	 0.8008961693	-0.438308
C	-0.0760390836	-0.1485097704	 0.0360616134	 0.015227
C	-1.5563507023	 0.0243443825	-0.3085799667	-0.327588
C	-1.640502371	-0.7343231351	-1.623323656	 0.433799
C	-2.3557726162	-2.0382246485	-1.8166315602	-0.323263
C	-2.8148322437	-0.7795437033	-2.5365593839	-0.330007
O	-0.3567754633	-0.6162879326	-2.2589036317	-0.242953
C	 0.5627920556	-0.2243743316	-1.3517144924	 0.393547
O	 1.6999511043	 0.0490724718	-1.6176579377	-0.356736
H	 1.3776646513	 1.0104930239	 0.4748105503	 0.29755
H	 0.0833703716	-1.1299516801	 0.5164996217	 0.103438
H	-2.2385820445	-0.3664575475	 0.4474932512	 0.121884
H	-1.7607651792	 1.0905704384	-0.4544488327	 0.129593
H	-1.8543358552	-2.7930549017	-2.411291472	 0.135321
H	-2.9576568486	-2.4208330114	-0.9993283607	 0.123363
H	-3.7295903912	-0.2949523782	-2.2124493041	 0.126342
H	-2.6146411535	-0.7139248573	-3.599768878	 0.138789
88.8482	121.5871	238.3168	271.7204	306.9429	378.7793	405.7704	448.5124	497.8835	531.6897	607.625	712.6742	766.2472	801.493	820.2266	892.4182	933.9132	958.0731	986.2233	1009.0167	1056.3537	1072.0028	1082.4576	1150.8532	1159.6194	1188.5566	1188.6967	1257.7332	1269.9947	1299.368	1379.0523	1383.3118	1424.0394	1453.0503	1493.9516	1502.428	1874.7907	2952.2102	3056.5396	3126.6708	3136.5281	3139.2502	3222.5036	3235.6032	3743.7143
OC1CC2(CC2)OC1=O	O[C@H]1CC2(CC2)OC1=O	
InChI=1S/C6H8O3/c7-4-3-6(1-2-6)9-5(4)8/h4,7H,1-3H2	InChI=1S/C6H8O3/c7-4-3-6(1-2-6)9-5(4)8/h4,7H,1-3H2/t4-/m0/s1
