15
gdb 56092	6.40501	0.50895	0.49073	5.0077	75.58	-0.2628	-0.0641	0.1987	2101.69	0.110826	-453.955436	-453.945459	-453.944515	-453.99271	33.349	
N	 0.0012083689	 1.3326482426	-0.0008411907	-0.565366
C	-0.0282178031	-0.0398679922	-0.1908699498	 0.469332
O	 0.8148460829	-0.6404543789	-0.830103577	-0.385625
N	-1.0882968757	-0.6667428198	 0.4349533163	-0.336278
C	-1.148824028	-2.1170257902	 0.4555535865	-0.309789
C	-2.4828406732	-2.6373485626	 0.1829089413	 0.103961
C	-3.5845969173	-3.0908466818	-0.0161139957	 0.020867
C	-4.9093117517	-3.5918503294	-0.2747808297	 0.023423
O	-5.2436042999	-4.7471436593	-0.1467149773	-0.227206
H	 0.6447387807	 1.7951447012	-0.6249603851	 0.266595
H	-0.8782104918	 1.81358755	 0.114838094	 0.251456
H	-1.597012581	-0.1692963009	 1.1478153819	 0.248682
H	-0.4416520155	-2.458297158	-0.3090452722	 0.193461
H	-0.7931347041	-2.5279767738	 1.4119316019	 0.147603
H	-5.6267203312	-2.815540057	-0.6113625542	 0.098884
29.0999	41.6363	59.9292	127.5003	177.9766	209.8137	258.4788	351.2531	393.9255	414.7368	441.186	541.9667	564.1457	604.5109	661.2865	773.7455	838.5132	914.6164	1019.845	1023.9343	1097.0821	1135.7155	1169.6809	1246.921	1319.1947	1381.2895	1422.186	1466.3727	1535.3579	1629.3444	1768.693	1802.8993	2329.359	2915.6744	2999.4207	3075.6399	3576.0705	3637.616	3690.2519
NC(=O)NCC#CC=O	NC(=O)NCC#CC=O	
InChI=1S/C5H6N2O2/c6-5(9)7-3-1-2-4-8/h4H,3H2,(H3,6,7,9)	InChI=1S/C5H6N2O2/c6-5(9)7-3-1-2-4-8/h4H,3H2,(H3,6,7,9)
