15
gdb 47122	3.28823	1.16568	0.86972	4.8035	74.96	-0.2603	-0.0527	0.2076	1235.2417	0.114487	-416.871937	-416.863983	-416.863039	-416.905207	28.79	
O	-0.0169414132	-0.0445704115	 0.3009031433	-0.366399
C	-0.0224099679	 1.1520319561	 0.0920336824	 0.401394
C	-1.3214335698	 1.8871370026	-0.2149657054	-0.424548
C	-1.1850665515	 3.3711659129	-0.4521638702	 0.152381
C	-0.0100888157	 4.0064446788	-0.3988427553	-0.124478
C	 1.2792270676	 3.3180934359	-0.1014354359	-0.203935
N	 1.1228949209	 1.895080199	 0.1198742469	-0.323809
C	-2.3846253708	 4.0936178904	-0.7432610295	 0.224371
N	-3.3760588768	 4.6450940168	-0.9759038767	-0.324009
H	-1.773309304	 1.3974433215	-1.085156934	 0.164159
H	-2.0091383511	 1.6909038604	 0.6155441517	 0.164143
H	 0.0468222606	 5.0749216517	-0.5752387281	 0.130285
H	 1.9776857559	 3.4997867714	-0.9336441702	 0.137784
H	 1.7388742474	 3.7928994355	 0.7799255846	 0.137766
H	 1.9506091883	 1.3555353287	 0.3289614864	 0.254894
63.4673	109.09	149.4764	178.7591	370.818	406.9293	439.6628	501.4234	508.0802	570.9249	586.9616	660.5043	706.6008	839.1772	863.1286	927.3838	973.4648	990.2311	1025.5782	1130.5405	1144.0802	1214.9844	1246.242	1303.6914	1341.7091	1376.3236	1401.3248	1452.2651	1484.5379	1520.4186	1723.3439	1799.2157	2339.1718	2978.4871	2989.9022	3049.0168	3077.4756	3199.1641	3610.5745
O=C1CC(=CCN1)C#N	O=C1CC(=CCN1)C#N	
InChI=1S/C6H6N2O/c7-4-5-1-2-8-6(9)3-5/h1H,2-3H2,(H,8,9)	InChI=1S/C6H6N2O/c7-4-5-1-2-8-6(9)3-5/h1H,2-3H2,(H,8,9)
