20
gdb 58003	3.98923	0.68663	0.66557	3.5249	78.6	-0.2519	-0.0324	0.2195	1754.6696	0.167851	-440.333866	-440.323067	-440.322123	-440.371961	37.137	
C	-0.1178577861	 0.8694934719	-0.9068152024	-0.378975
C	 0.0596655956	-0.1472257175	 0.2325666184	-0.087352
C	 0.6509286749	 0.5148682266	 1.4872863615	-0.379262
C	-1.3006434611	-0.7530786439	 0.5793668152	 0.43028
O	-2.2269326406	-0.0771868295	 0.990852374	-0.38268
N	-1.4113253221	-2.1074938207	 0.3935270238	-0.337829
C	-2.6270623757	-2.8285234986	 0.7006441242	-0.243177
C	-3.3046670072	-3.3778805049	-0.5451643163	 0.152565
O	-3.8900494222	-4.4267941938	-0.5895247459	-0.230444
H	 0.8361212699	 1.3512380807	-1.1410210071	 0.114517
H	-0.4902920212	 0.3910941653	-1.8182562046	 0.114499
H	-0.8355245843	 1.638889939	-0.6100623476	 0.144613
H	 0.7378954678	-0.9422322348	-0.1040566731	 0.065218
H	 0.8307492196	-0.216788921	 2.2813491636	 0.115248
H	 1.6020469038	 1.0012512728	 1.2508731298	 0.114015
H	-0.0423646057	 1.2676860528	 1.8713691234	 0.144955
H	-0.6058010329	-2.6227800063	 0.0790592302	 0.252015
H	-2.4603207524	-3.6453653125	 1.4100957488	 0.131784
H	-3.3038034647	-2.0965716759	 1.160452276	 0.176305
H	-3.2157882957	-2.7110608697	-1.4336912919	 0.083705
17.0413	53.7444	65.7752	94.5085	209.9469	220.864	241.9359	265.7432	287.3932	318.9832	372.093	431.9755	476.2122	556.6266	649.1818	755.8734	771.8079	865.7636	913.9842	931.6254	974.2345	1053.2854	1072.175	1098.3501	1118.1695	1126.5342	1200.4833	1213.7446	1260.7879	1330.7383	1334.381	1385.3223	1391.4124	1412.2106	1413.8095	1444.7936	1485.1829	1491.8427	1500.4054	1512.6116	1526.6343	1774.9811	1840.2113	2873.9324	3016.3241	3036.9953	3038.0237	3041.0699	3093.6135	3106.0674	3108.4311	3123.8271	3128.7134	3647.7872
CC(C)C(=O)NCC=O	CC(C)C(=O)NCC=O	
InChI=1S/C6H11NO2/c1-5(2)6(9)7-3-4-8/h4-5H,3H2,1-2H3,(H,7,9)	InChI=1S/C6H11NO2/c1-5(2)6(9)7-3-4-8/h4-5H,3H2,1-2H3,(H,7,9)
