18
gdb 61286	2.13375	1.16453	0.86529	3.8603	72.92	-0.2795	0.0056	0.2851	1374.9488	0.14476	-439.148497	-439.138257	-439.137313	-439.184988	35.1	
C	-0.0640192919	 1.549229072	-0.0514353915	-0.415411
C	 0.0143854013	 0.028963721	 0.0155514265	 0.133033
C	-1.3759806063	-0.6241380531	-0.0048626332	-0.352826
C	-1.3162739026	-2.080462818	 0.1011096201	 0.267037
N	-1.2630690315	-3.2307341811	 0.1918792238	-0.30294
O	 0.7057486189	-0.4920361829	-1.1367162829	-0.250913
C	 2.0589396904	-0.561829308	-1.056649654	 0.437539
C	 2.6267883138	-1.1970130961	-2.3001254823	-0.480792
O	 2.6907871923	-0.1697236983	-0.1098718198	-0.349274
H	 0.9427216582	 1.970531024	-0.0306793199	 0.152879
H	-0.5666781727	 1.872461533	-0.9684178667	 0.12672
H	-0.6174231612	 1.9421713039	 0.8070711496	 0.12547
H	 0.5627573571	-0.2782868695	 0.9094899074	 0.129733
H	-1.9720051524	-0.2315625779	 0.8257421939	 0.156233
H	-1.8929101284	-0.3566024886	-0.9330885409	 0.159239
H	 3.7147029743	-1.1770227949	-2.2534231012	 0.151213
H	 2.2763398686	-2.2305386876	-2.3762863862	 0.163418
H	 2.2759864522	-0.6677928078	-3.1901120327	 0.149642
50.8646	58.249	84.977	117.4119	157.943	194.9797	238.1124	295.7052	375.0088	391.9443	414.4485	468.601	557.2572	611.284	644.3797	820.2821	883.8539	919.0323	950.528	982.475	1026.9922	1065.4529	1086.8156	1126.8161	1150.673	1253.2485	1256.2883	1313.0701	1371.3772	1389.1147	1400.8895	1408.7111	1455.2758	1468.7851	1475.4362	1485.8921	1502.1116	1827.0125	2367.9501	3044.2232	3051.3198	3058.5689	3085.0553	3098.199	3118.2321	3124.4746	3141.2204	3171.6247
CC(CC#N)OC(C)=O	C[C@@H](CC#N)OC(=O)C	
InChI=1S/C6H9NO2/c1-5(3-4-7)9-6(2)8/h5H,3H2,1-2H3	InChI=1S/C6H9NO2/c1-5(3-4-7)9-6(2)8/h5H,3H2,1-2H3/t5-/m0/s1
