17
gdb 7569	3.13226	1.64223	1.56934	3.7598	63.74	-0.2498	0.0218	0.2716	910.5238	0.141109	-401.011131	-401.002339	-401.001395	-401.045366	30.944	
C	-0.1376104673	 1.5768476109	 0.163233045	-0.457602
C	-0.0091587794	 0.0572142836	 0.0260463431	 0.178808
C	 1.1368280751	-0.426875411	-0.9066040804	-0.120223
O	 1.8715927686	-0.9666974043	 0.2013788123	-0.271443
C	 0.818486109	-0.630267776	 1.134188278	-0.110038
C	-1.3863077292	-0.5683260453	-0.1862112183	 0.340648
N	-1.8859224147	-0.4516558783	-1.4523720561	-0.523602
O	-2.0115336852	-1.0923283113	 0.7150621386	-0.362022
H	 0.8421582046	 2.0251099308	 0.3556924161	 0.12853
H	-0.5477186166	 2.0297785995	-0.7455486628	 0.116136
H	-0.8013634058	 1.8327148358	 0.9952110721	 0.13957
H	 0.8582299716	-1.2018205234	-1.6342343925	 0.09531
H	 1.690033108	 0.3672195892	-1.4258190093	 0.097143
H	 1.177018637	 0.0277589668	 1.9343172552	 0.098227
H	 0.3421413892	-1.5136057057	 1.5694781218	 0.126058
H	-1.3361613408	-0.109494635	-2.2206167875	 0.260816
H	-2.7784783141	-0.8736871461	-1.6508366954	 0.263683
37.9405	53.4637	171.6526	210.1985	235.0098	251.9607	318.0318	341.6946	456.7633	518.509	565.9646	655.0549	776.1686	846.832	877.1954	926.2681	961.0385	992.2424	1009.1834	1044.8695	1086.286	1151.9467	1166.3142	1188.4861	1209.2794	1236.5581	1308.8133	1363.6876	1376.3135	1413.553	1489.8795	1497.841	1515.552	1539.7013	1619.4697	1791.5755	2993.2819	3029.2006	3033.	3036.3788	3091.6742	3102.8936	3109.5609	3601.5372	3736.7132
CC1(COC1)C(N)=O	CC1(COC1)C(=O)N	
InChI=1S/C5H9NO2/c1-5(4(6)7)2-8-3-5/h2-3H2,1H3,(H2,6,7)	InChI=1S/C5H9NO2/c1-5(4(6)7)2-8-3-5/h2-3H2,1H3,(H2,6,7)
