18
gdb 71604	2.17135	1.97022	1.69619	2.1805	70.84	-0.2283	0.0531	0.2814	926.5762	0.148079	-439.018854	-439.011132	-439.010188	-439.05049	30.782	
C	 0.0010480954	 1.4885751342	-0.0917870886	-0.537534
C	 0.0002625109	-0.0083966671	-0.0200438646	 0.258786
N	 0.6388599899	-0.9004294029	-1.0645228479	-0.378862
C	 0.0545905953	-1.8627125295	-0.0621441493	-0.155328
C	 0.5720398956	-0.953625043	 1.0761103358	 0.119761
O	-0.2844718559	-0.9972326768	 2.2026574408	-0.281027
C	-1.5929056468	-1.0127526563	 1.6114768698	-0.152057
C	-1.2266309523	-0.9738315	 0.1288076098	 0.319344
O	-2.2187259517	-0.8856371152	-0.8391016981	-0.479687
H	 1.0167325188	 1.8623759349	-0.2528432881	 0.134803
H	-0.6318897374	 1.844498877	-0.9116577562	 0.131057
H	-0.3787515503	 1.9165233482	 0.8419068285	 0.130555
H	 0.0327758235	-0.8980776174	-1.8902542558	 0.214035
H	 0.1330556927	-2.9460862278	-0.1635625683	 0.075948
H	 1.621362642	-0.9310125736	 1.3566709019	 0.103694
H	-2.1329236083	-1.9226110719	 1.9071703032	 0.095707
H	-2.1730003063	-0.1382135966	 1.9305743482	 0.110595
H	-2.7510119149	-1.6884448262	-0.8175554413	 0.290208
181.4393	190.0806	216.0964	268.1014	276.5292	328.1405	443.6075	457.9344	478.08	661.7463	684.4333	694.7857	725.4521	756.0704	822.9691	888.5226	933.6527	962.549	974.6178	1042.563	1058.1923	1064.5134	1108.6107	1122.2682	1149.7113	1172.0682	1190.9878	1212.2503	1255.2866	1280.0086	1287.2094	1309.7262	1329.7796	1358.4742	1404.4968	1427.9204	1482.8098	1491.1391	1519.5166	3007.1643	3033.9769	3052.4397	3102.3472	3106.2817	3111.3083	3172.7177	3398.1344	3802.311
CC12NC3C1OCC23O	C[C@@]12N[C@H]3[C@@H]1OC[C@@]23O	
InChI=1S/C6H9NO2/c1-5-4-3(7-5)6(5,8)2-9-4/h3-4,7-8H,2H2,1H3	InChI=1S/C6H9NO2/c1-5-4-3(7-5)6(5,8)2-9-4/h3-4,7-8H,2H2,1H3/t3-,4-,5+,6-/m0/s1
