21
gdb 106837	2.8869	1.05173	0.8996	1.4667	79.09	-0.2497	0.0717	0.3214	1358.0528	0.181934	-424.187784	-424.178185	-424.177241	-424.222475	35.802	
O	 0.1022023666	 1.3314016898	-0.2977641001	-0.413053
C	 0.0550838142	-0.0277261972	 0.1218710872	-0.170204
C	-1.3458912722	-0.5620831008	 0.1743806912	 0.274131
C	-2.0422896246	-1.1230871775	-1.0446587081	-0.394648
C	-1.8752575701	-2.0054893557	 0.1715772254	 0.274134
C	-1.1518577928	-3.3187162451	 0.1154250302	-0.170195
O	-1.9940108248	-4.3845580453	-0.3091927455	-0.413059
C	-2.942794076	-1.6301019073	 1.2099607737	-0.277969
C	-2.4042785632	-0.1618654911	 1.2128691409	-0.277956
H	-0.3559204311	 1.3836625626	-1.1434588571	 0.281276
H	 0.6785856828	-0.6681293591	-0.523428879	 0.083166
H	 0.5072583361	-0.0354586896	 1.1202026584	 0.108741
H	-3.0267082357	-0.7614826256	-1.3352333117	 0.10715
H	-1.3896501684	-1.3608374522	-1.8816310272	 0.106194
H	-0.2612513121	-3.2309628368	-0.528317568	 0.083164
H	-0.8032934261	-3.6087010942	 1.1132230386	 0.108739
H	-2.3762554239	-4.12515567	-1.1544192384	 0.281276
H	-3.9825882253	-1.7774052477	 0.9025715212	 0.097848
H	-2.7917657488	-2.1327452406	 2.1683975669	 0.106708
H	-1.9652807146	 0.1205781724	 2.1728529138	 0.106712
H	-3.10186882	 0.623869311	 0.9073492477	 0.097845
66.2002	102.6767	104.5276	173.8505	252.9099	272.6364	296.4318	335.8486	370.2675	372.1048	436.8646	500.5251	691.8176	720.9727	776.5157	790.4138	888.4208	926.5444	939.7636	947.3835	958.7662	988.7226	1013.529	1053.4396	1054.8134	1078.0417	1127.6709	1128.8987	1176.4144	1208.9204	1242.9338	1244.1142	1261.4669	1293.0796	1339.5344	1351.347	1368.1561	1406.1001	1421.2078	1436.7397	1482.3227	1483.2482	1500.4142	1501.6279	1516.6269	2963.914	2973.087	3048.2959	3055.6254	3058.9001	3061.4204	3093.5962	3095.0975	3113.6919	3178.5674	3806.2836	3806.6108
OCC12CC1(CO)CC2	OC[C@@]12C[C@]1(CO)CC2	
InChI=1S/C7H12O2/c8-4-6-1-2-7(6,3-6)5-9/h8-9H,1-5H2	InChI=1S/C7H12O2/c8-4-6-1-2-7(6,3-6)5-9/h8-9H,1-5H2/t6-,7+
