17
gdb 20793	3.08697	1.823	1.24784	4.491	70.72	-0.2386	0.0054	0.2439	995.5477	0.142921	-360.061122	-360.052865	-360.05192	-360.094791	29.122	
C	 0.0877820795	 1.5974300133	-0.239298895	-0.366697
C	 0.003019732	 0.0913953992	 0.0594574232	-0.28851
C	-1.4057537691	-0.4088117866	 0.137551614	 0.236361
C	-2.1526444884	-0.8080453395	 1.227904973	 0.243573
C	-1.8588039899	-0.9113482216	 2.6865687244	-0.509636
N	-3.3540831836	-1.1310003434	 0.6801343552	-0.223074
N	-3.3657065484	-0.9508421585	-0.6543977908	-0.124083
N	-2.187029538	-0.512941915	-0.981576344	-0.252956
H	 1.1297626852	 1.9203198778	-0.3277086355	 0.109481
H	-0.4257724315	 1.827814573	-1.1765977836	 0.141442
H	-0.3849974631	 2.1838511358	 0.5552025214	 0.111602
H	 0.5273184624	-0.4615983615	-0.728133964	 0.122312
H	 0.5244595196	-0.1324869789	 0.9969255663	 0.096171
H	-2.4675100128	-0.2162140052	 3.2762516172	 0.141812
H	-2.0450322948	-1.9212555898	 3.0690092384	 0.13927
H	-0.8100560814	-0.673892705	 2.8765358166	 0.148616
H	-4.1829380876	-1.478025444	 1.1362132832	 0.274315
35.4632	83.5533	160.3125	204.4501	248.1074	273.1246	377.9313	438.5753	558.0017	634.1786	691.2052	708.5523	760.494	789.9041	973.2373	985.3108	1026.8623	1062.5595	1063.1042	1086.74	1088.8482	1196.7547	1253.352	1282.138	1340.3772	1356.15	1373.6882	1406.2834	1422.5494	1475.2003	1479.8445	1483.952	1495.5573	1504.3638	1515.7282	1630.9208	3030.9779	3036.6312	3037.8025	3071.3068	3081.5525	3106.7408	3122.633	3128.1683	3651.9045
CCC1=C(C)NN=N1	CCc1c(C)[nH]nn1	
InChI=1S/C5H9N3/c1-3-5-4(2)6-8-7-5/h3H2,1-2H3,(H,6,7,8)	InChI=1S/C5H9N3/c1-3-5-4(2)6-8-7-5/h3H2,1-2H3,(H,6,7,8)
