22
gdb 107173	2.69868	1.29884	1.19148	1.2869	86.02	-0.2102	0.0671	0.2772	1207.6038	0.193695	-367.125037	-367.116	-367.115056	-367.15867	35.186	
C	-0.6239594736	 0.6275279764	-0.0607648019	-0.376363
C	-0.1544850209	-0.8259586509	-0.2065181591	-0.261794
C	 0.6700109302	-1.0285191641	-1.4436408925	 0.383742
C	 0.1068305172	-1.3909401015	-2.7921880606	-0.350532
C	 1.1594628776	-2.2681405818	-2.1582510576	-0.154182
C	 2.5603933016	-1.6413901093	-2.1292616489	-0.063043
C	 2.7514559965	-0.2829067738	-2.6900970238	 0.019347
C	 2.237296932	 0.3668983198	-3.9706383158	-0.437286
N	 2.0689433387	-0.4215154412	-1.375107924	-0.209263
H	 0.2360554358	 1.3039674958	-0.0535829396	 0.134324
H	-1.2751271867	 0.9170905012	-0.8922503692	 0.11078
H	-1.1785880137	 0.772613367	 0.871233819	 0.107662
H	 0.4451509406	-1.1058473997	 0.6679151422	 0.105117
H	-1.0156360119	-1.5044892644	-0.2357698853	 0.091683
H	-0.8897294994	-1.8186184664	-2.7111025051	 0.111426
H	 0.2555461666	-0.8360329695	-3.7045411694	 0.112243
H	 0.9865562586	-3.3097309153	-1.9201132784	 0.091425
H	 3.402372876	-2.2106887512	-1.7429459294	 0.092722
H	 3.7555767475	 0.0702887276	-2.4539129243	 0.100638
H	 1.3685559996	 1.0032483054	-3.7830217685	 0.138886
H	 3.0225353299	 1.0064072395	-4.3836403559	 0.116696
H	 1.9739819779	-0.3612627437	-4.7415015119	 0.135772
77.1308	90.6714	174.6799	210.6958	257.3836	284.6225	331.4284	371.0545	415.5581	488.2185	603.1535	645.4652	688.9204	713.7813	775.5063	809.6257	843.7382	881.9054	917.5578	930.2014	955.9167	985.2545	1010.787	1017.5989	1052.7	1062.266	1074.5833	1093.912	1109.9942	1124.539	1154.3475	1203.6199	1259.7645	1280.1558	1300.6582	1353.1385	1367.2868	1400.4462	1405.418	1417.2624	1441.3652	1475.2981	1491.9043	1498.1116	1504.6143	1510.0188	1518.2881	3027.025	3035.9514	3045.7481	3063.914	3091.0943	3105.0115	3113.7562	3114.13	3120.9631	3133.3163	3136.0759	3193.0597	3261.8849
CCC12CC1C1C(C)N21	CC[C@]12C[C@H]1[C@H]1[C@@H](C)N21	
InChI=1S/C8H13N/c1-3-8-4-6(8)7-5(2)9(7)8/h5-7H,3-4H2,1-2H3	InChI=1S/C8H13N/c1-3-8-4-6(8)7-5(2)9(7)8/h5-7H,3-4H2,1-2H3/t5-,6+,7-,8+,9?/m1/s1
