13
gdb 133257	3.38764	1.39589	0.99469	0.9844	64.55	-0.2684	-0.0852	0.1832	1072.1122	0.08871	-494.037145	-494.029774	-494.02883	-494.069244	26.929	
C	-0.0321809895	 1.4233808733	-0.0172799375	-0.317071
N	-0.0074112994	-0.0367664818	 0.012417239	-0.064143
N	-0.0483334333	-0.6402815747	-1.1710899831	-0.048799
N	-0.0305208773	-1.9205567045	-1.2404973511	-0.266466
C	 0.0308049704	-2.6289630541	-0.0809161382	 0.424151
F	 0.0439679712	-3.9332776906	-0.2709646884	-0.043768
C	 0.0757468741	-2.1040931562	 1.1672225783	-0.434805
C	 0.0575819772	-0.6721590506	 1.2899392953	 0.495657
O	 0.0904942244	 0.0032689691	 2.2986509847	-0.384914
H	 0.8680851415	 1.8141734135	 0.4618026017	 0.164322
H	-0.0836847966	 1.7285871416	-1.0605363448	 0.159891
H	-0.8981510227	 1.785636718	 0.5408610282	 0.164384
H	 0.1240068399	-2.7159287931	 2.057509316	 0.151562
125.2927	138.4963	183.6203	299.7956	320.8336	377.8255	465.3073	473.9127	543.5935	610.0001	724.2662	738.8701	762.6997	806.0963	881.7624	970.8015	1043.5173	1151.1762	1159.9275	1235.3362	1250.7386	1327.3712	1390.3113	1430.479	1470.4277	1485.0718	1500.4698	1647.1294	1798.5516	3067.5122	3136.6946	3185.9356	3235.3831
CN1N=NC(F)=CC1=O	CN1[N]N=C(F)[CH]C1=O	
InChI=1S/C4H4FN3O/c1-8-4(9)2-3(5)6-7-8/h2H,1H3	InChI=1S/C4H4FN3O/c1-8-4(9)2-3(5)6-7-8/h2H,1H3
