17
gdb 127733	3.10688	1.37189	0.97987	4.1507	72.13	-0.2129	0.0226	0.2356	1181.2407	0.137831	-451.324145	-451.315463	-451.314519	-451.358029	31.248	
C	 0.1316874707	 1.3117259262	 0.0662611894	-0.330949
N	-0.0071625826	-0.1259749512	 0.0151968594	-0.013942
N	-0.4782040845	-0.7543739413	-1.1055888899	-0.17733
N	-0.4793219688	-2.032225982	-0.8620801541	-0.266246
C	-0.0266311667	-2.2598552731	 0.399516699	 0.186028
C	 0.1022979587	-3.588816352	 1.0710512975	-0.28108
N	 1.1546424626	-3.4825534357	 2.1129788353	-0.529717
H	 1.0043673567	-1.5778811512	 2.5651338995	 0.305193
H	 1.0950348521	-4.2642918745	 2.757111367	 0.244528
H	 2.0715888369	-3.5317289393	 1.6772619973	 0.247659
C	 0.2798233094	-1.0377403395	 0.9654086403	 0.342673
O	 0.774555426	-0.7069815678	 2.1645109234	-0.433609
H	-0.1526804482	 1.6956604467	-0.9133916314	 0.164375
H	-0.5210829425	 1.7391796291	 0.8326961263	 0.147321
H	 1.1656687793	 1.5907703957	 0.2871371878	 0.146859
H	-0.8286656879	-3.8623712427	 1.5844395061	 0.125275
H	 0.2951676189	-4.3736144773	 0.327443357	 0.12296
56.0902	98.7239	148.9256	211.8751	267.8085	272.6058	324.5725	346.9104	429.918	516.7922	622.1073	684.4141	728.554	751.8478	796.5648	813.3387	913.719	999.3528	1012.422	1030.3752	1089.0182	1154.7349	1172.1363	1239.156	1264.8601	1311.8539	1339.4372	1366.9863	1394.1016	1439.0832	1445.3865	1481.2554	1505.8896	1507.6319	1607.9854	1638.5601	1654.0776	3009.6261	3040.4122	3049.5609	3113.0202	3162.5438	3414.0892	3495.2944	3577.2639
CN1N=NC(C[NH3+])=C1[O-]	Cn1nnc(CN)c1O	
InChI=1S/C4H8N4O/c1-8-4(9)3(2-5)6-7-8/h9H,2,5H2,1H3	InChI=1S/C4H8N4O/c1-8-4(9)3(2-5)6-7-8/h9H,2,5H2,1H3
