23
gdb 123198	10.45378	0.40258	0.39332	1.019	90.62	-0.2518	0.0562	0.308	2752.2798	0.202431	-388.258114	-388.246636	-388.245691	-388.296187	39.809	
C	 0.0182260234	 1.5468230475	-0.0627987433	-0.384178
C	 0.015950253	 0.028135905	-0.0172112376	-0.027532
O	 0.6671739716	-0.459057832	-1.1717280805	-0.243747
C	 0.7213892633	-1.866714313	-1.2314241095	-0.055671
C	 1.4419001208	-2.2739071267	-2.509941182	-0.196226
C	 1.5509573211	-3.7926527756	-2.6655163247	-0.177626
C	 2.2814334219	-4.1982114701	-3.9615627091	-0.355886
C	 2.3934938987	-5.6424565889	-4.1257880761	 0.292089
C	 2.4728118577	-6.8367599519	-4.2369960895	-0.436319
H	 1.0429789272	 1.9279541383	-0.091985026	 0.125959
H	-0.5048920104	 1.9044894671	-0.9542269582	 0.125949
H	-0.4802524263	 1.95636445	 0.8209190334	 0.113576
H	 0.5297370251	-0.3324371112	 0.8906983138	 0.083528
H	-1.017818479	-0.3560320451	 0.027756193	 0.083523
H	 1.2496058451	-2.2696360293	-0.3489985003	 0.083211
H	-0.2976244993	-2.2925499053	-1.2136176972	 0.083221
H	 0.9061726721	-1.8428453518	-3.3647057783	 0.106137
H	 2.4408149961	-1.8204781042	-2.5069515157	 0.106121
H	 2.0842199801	-4.2233162032	-1.8097038663	 0.11035
H	 0.5523926168	-4.2455624102	-2.666167036	 0.110363
H	 1.7543067597	-3.7722799934	-4.8255452522	 0.130289
H	 3.2841650788	-3.7507457716	-3.9700518614	 0.130303
H	 2.5498331825	-7.8897843143	-4.3460010163	 0.192568
40.9659	66.9033	69.6415	97.479	130.2307	148.4947	158.761	246.2714	259.9901	285.1653	351.1321	431.9696	487.8975	546.8703	613.9607	634.1685	741.0034	797.9204	822.7356	895.9752	926.4589	948.2003	1014.5767	1046.382	1061.9623	1083.097	1128.9368	1148.6586	1169.9382	1183.8596	1218.903	1257.9291	1282.5475	1296.5133	1314.3244	1323.9998	1339.3395	1386.6493	1395.6667	1410.8978	1455.8197	1473.7362	1483.5904	1489.2955	1499.4156	1503.791	1519.119	1540.0138	2238.8993	2937.8196	2953.8193	2964.4937	2973.2032	3014.9961	3025.8379	3036.9142	3041.4463	3044.5294	3059.8043	3084.7042	3118.6554	3120.9831	3509.4783
CCOCCCCC#C	CCOCCCCC#C	
InChI=1S/C8H14O/c1-3-5-6-7-8-9-4-2/h1H,4-8H2,2H3	InChI=1S/C8H14O/c1-3-5-6-7-8-9-4-2/h1H,4-8H2,2H3
