19
gdb 15156	10.08154	0.71343	0.69082	2.8367	77.87	-0.2444	0.0284	0.2728	1663.9541	0.163948	-365.041557	-365.032384	-365.03144	-365.076915	31.739	
C	-0.1168934055	 1.3421011799	-0.0501053866	-0.313673
N	-0.2925706813	-0.0853777044	-0.2109483359	-0.205339
C	 0.5105019276	-0.6832185721	-0.9724342076	 0.136084
O	 0.4293030406	-2.0147526001	-1.1550946079	-0.205347
C	 1.3162751018	-2.5736753644	-2.13071393	-0.091088
C	 1.3384382599	-4.0646359571	-1.9608847722	 0.015304
C	 0.256230926	-4.9072655794	-2.5834938094	-0.246127
C	 1.6515902421	-4.9365503456	-3.1520193149	-0.27518
H	 0.0587358291	 1.5760112481	 1.0064129727	 0.126366
H	 0.7162187921	 1.7622636378	-0.6383160653	 0.092872
H	-1.037353027	 1.8618483083	-0.340309622	 0.126067
H	 1.3274317012	-0.193868722	-1.5284916134	 0.067579
H	 0.9681099792	-2.3112934061	-3.1401814785	 0.101179
H	 2.3222470132	-2.1501818234	-2.0006269591	 0.105648
H	 1.7193638137	-4.393906466	-0.9989383299	 0.096122
H	-0.0964166328	-5.7713516804	-2.0325250454	 0.119122
H	-0.5146293297	-4.397578913	-3.1515713706	 0.119299
H	 1.8218613314	-4.4523067518	-4.1081765042	 0.113304
H	 2.2612242085	-5.8179728183	-2.98985704	 0.117807
25.5414	65.5225	97.4456	151.2575	206.0639	244.7508	306.3776	327.1041	389.697	458.513	616.6964	774.3265	820.5035	848.8336	921.4119	951.231	983.8397	1024.3055	1030.5958	1061.3464	1080.0546	1094.3108	1134.7708	1140.8054	1154.0607	1195.1379	1197.9815	1229.3203	1247.0073	1292.3128	1368.2081	1408.9014	1445.1761	1452.5069	1471.7708	1480.3506	1503.8849	1505.6403	1514.3544	1779.9564	2961.326	2974.0767	2993.6937	3031.735	3054.8188	3074.1206	3133.7294	3139.8742	3157.892	3213.0944	3228.5888
CN=COCC1CC1	CN=COCC1CC1	
InChI=1S/C6H11NO/c1-7-5-8-4-6-2-3-6/h5-6H,2-4H2,1H3	InChI=1S/C6H11NO/c1-7-5-8-4-6-2-3-6/h5-6H,2-4H2,1H3
