14
gdb 12654	3.01536	2.11414	1.41123	3.0161	58.15	-0.2373	-0.1026	0.1346	860.2979	0.10545	-419.697343	-419.689753	-419.688808	-419.729793	26.835	
C	 0.0981612597	 1.4828278814	-0.1467947602	-0.39964
C	-0.0988950694	-0.0174410086	 0.0914129361	 0.005731
O	 0.3391634018	-0.8087781743	-1.0221200911	-0.271557
C	 1.6472712256	-1.3274702327	-0.8067487529	-0.200889
C	 1.8506787009	-1.3759416304	 0.6952284748	 0.295124
O	 2.7109695114	-1.9243081873	 1.325820905	-0.265312
C	 0.701227128	-0.5111622516	 1.285256916	 0.29051
O	 0.5331150827	-0.271574776	 2.449043906	-0.276081
H	 1.1556469477	 1.7279603453	-0.2883344282	 0.124865
H	-0.4492440919	 1.7887787889	-1.0414449928	 0.139179
H	-0.2740560005	 2.0463875149	 0.7134447104	 0.144422
H	-1.1616675208	-0.2344211001	 0.2444712128	 0.126579
H	 1.7170198288	-2.3222956874	-1.2566401405	 0.152501
H	 2.423470226	-0.6926434722	-1.2647245753	 0.134567
59.8121	104.7193	211.3214	222.1207	306.9701	358.9674	402.9809	524.8052	617.8699	627.1991	669.4292	727.4148	859.2843	942.1954	968.0124	1041.0907	1084.3045	1088.8761	1136.1295	1158.9861	1206.1772	1294.6219	1330.2736	1354.9764	1397.0881	1472.6265	1486.6845	1493.8218	1854.0084	1869.8189	2977.4567	3042.9337	3055.6234	3086.6929	3118.3504	3133.494
CC1OCC(=O)C1=O	C[C@H]1OCC(=O)C1=O	
InChI=1S/C5H6O3/c1-3-5(7)4(6)2-8-3/h3H,2H2,1H3	InChI=1S/C5H6O3/c1-3-5(7)4(6)2-8-3/h3H,2H2,1H3/t3-/m1/s1
