21
gdb 15433	3.26032	1.24891	1.04043	1.9909	76.62	-0.2175	0.0795	0.2969	1236.9569	0.187219	-366.218324	-366.208793	-366.207849	-366.252979	33.756	
C	 0.2955227008	 1.6564897264	-0.0308489353	-0.370537
C	-0.22703082	 0.226818602	-0.1487507248	-0.126349
N	 0.4857964174	-0.4788694867	-1.2141729828	-0.086426
C	 1.7146797524	-1.1884058924	-0.8644610635	-0.24704
C	 0.4869278805	-1.9391687838	-1.2480804472	-0.018353
C	-0.2539062897	-2.8208220564	-0.2616226001	-0.094648
O	 0.1995636314	-2.6322022822	 1.0621399455	-0.219598
C	-0.4790866578	-3.445358533	 1.9908583459	-0.229105
H	 1.3516827461	 1.6623646697	 0.2586520591	 0.1159
H	 0.2056036782	 2.180499456	-0.9867236495	 0.121888
H	-0.264944732	 2.2122136366	 0.727555877	 0.106306
H	-0.1509720816	-0.2864106386	 0.8200025867	 0.106239
H	-1.2893272056	 0.2454300189	-0.4240592319	 0.09287
H	 2.5427136545	-1.0865979281	-1.5616147664	 0.105975
H	 1.9938517702	-1.2347442146	 0.185464069	 0.124954
H	 0.4186215474	-2.3370716831	-2.2605674211	 0.088831
H	-1.3397609621	-2.6265508773	-0.3213837324	 0.092565
H	-0.1050799014	-3.8719330676	-0.5641696214	 0.093212
H	-0.3467190446	-4.5151219	 1.7649071662	 0.106967
H	-0.057728992	-3.2370180932	 2.9769772389	 0.129332
H	-1.5590013821	-3.2305054727	 2.0110692781	 0.107015
79.1416	83.9126	100.3836	154.7755	202.5081	230.9795	233.6827	296.5878	344.0858	417.658	480.4572	624.8304	732.5748	796.7819	820.5625	928.7352	938.7114	969.5557	1027.2443	1053.584	1074.8934	1107.9064	1114.9985	1140.7394	1152.3864	1174.2104	1188.1765	1203.7718	1227.7055	1279.6267	1314.5326	1339.33	1388.7413	1408.8916	1410.2229	1423.1131	1478.1544	1484.654	1488.6108	1496.5452	1499.7702	1504.4008	1518.8486	1526.2277	2942.2025	2966.6446	2973.6689	3006.1396	3017.8748	3036.4185	3044.3407	3099.0923	3104.0635	3104.8994	3116.2677	3117.789	3187.0753
CCN1CC1COC	CCN1C[C@H]1COC	
InChI=1S/C6H13NO/c1-3-7-4-6(7)5-8-2/h6H,3-5H2,1-2H3	InChI=1S/C6H13NO/c1-3-7-4-6(7)5-8-2/h6H,3-5H2,1-2H3/t6-,7?/m0/s1
