19
gdb 106605	2.53262	1.52258	1.28271	2.6438	74.82	-0.2248	-0.0187	0.2061	1078.1423	0.159267	-423.01747	-423.009175	-423.00823	-423.050399	31.659	
C	 0.0949298461	 1.550114285	 0.1580543388	-0.393621
C	-0.0746471613	 0.0384953934	-0.0541565794	-0.299441
C	 0.6790324883	-0.4869004154	-1.2543839373	 0.158453
C	 0.8776864922	-2.0179755323	-1.5782497876	-0.306788
C	 2.0103895877	-1.4931850975	-2.5020905377	-0.01803
O	 1.3002434728	-0.7222263997	-3.480685215	-0.27999
C	 0.3436777966	 0.0167416965	-2.6725166744	-0.112896
C	 2.2293696442	-0.4629855389	-1.3703000134	 0.422148
O	 3.1312459727	-0.005867512	-0.7351798733	-0.325823
H	 1.1526310148	 1.8083662966	 0.260469431	 0.14681
H	-0.3156592351	 2.125761255	-0.677666885	 0.117611
H	-0.4237825818	 1.8715686622	 1.0657069186	 0.116985
H	 0.2812238415	-0.4921855333	 0.837024433	 0.109933
H	-1.1394581222	-0.2099065412	-0.1550227579	 0.101792
H	 1.229641877	-2.5968252343	-0.7217360101	 0.120635
H	 0.0534776251	-2.5170569456	-2.0925257145	 0.118056
H	 2.7773523942	-2.10553218	-2.9679216421	 0.101539
H	-0.6774709774	-0.2337453806	-2.9855038486	 0.106417
H	 0.5034119447	 1.092563062	-2.8016755351	 0.116209
78.1242	141.9768	174.097	210.6424	270.7728	296.6764	387.6008	455.2269	472.0885	584.0388	662.27	717.2847	768.6795	794.6674	835.5619	875.9317	912.5332	950.2108	973.9473	992.9341	1018.5389	1031.4182	1052.1385	1085.5116	1126.2511	1173.6627	1180.6118	1204.0123	1223.4591	1257.7547	1297.3209	1317.5849	1362.835	1389.1407	1413.215	1475.3581	1486.8469	1502.1709	1510.3821	1529.8848	1899.2244	3018.0366	3020.508	3041.9223	3055.5927	3068.3036	3069.646	3109.1227	3122.5032	3140.3982	3171.3309
CCC12CC(OC1)C2=O	CC[C@@]12C[C@@H](OC1)C2=O	
InChI=1S/C7H10O2/c1-2-7-3-5(6(7)8)9-4-7/h5H,2-4H2,1H3	InChI=1S/C7H10O2/c1-2-7-3-5(6(7)8)9-4-7/h5H,2-4H2,1H3/t5-,7-/m1/s1
