16
gdb 29010	2.56375	1.56552	0.97285	4.0815	83.9	-0.2178	-0.0551	0.1627	1146.4962	0.126287	-400.830358	-400.822575	-400.82163	-400.862558	29.941	
N	-0.0528716002	 1.4116383445	-0.1137201771	-0.591898
C	 0.0106863444	 0.0275572513	-0.0444935497	 0.227639
C	-1.1855251747	-0.7117033881	-0.0448300807	-0.159276
C	-1.1696421165	-2.0955793727	-0.0177323625	-0.099271
C	 0.0397659405	-2.7993506379	 0.0154789193	-0.138379
C	 1.2227937315	-2.0856954884	 0.011401416	-0.155184
C	 1.2367185774	-0.6813425739	-0.0260741343	 0.136118
C	 2.5425636625	-0.0046690219	-0.0692199882	 0.079203
O	 3.6154349825	-0.5676594654	-0.011380076	-0.276946
H	 0.7136621729	 1.9330658105	 0.2788040485	 0.257498
H	-0.9481608175	 1.8108723747	 0.1232102595	 0.252867
H	-2.1317497754	-0.1784302217	-0.0629325524	 0.086018
H	-2.1115307045	-2.6351619502	-0.0157175031	 0.103425
H	 0.0459011881	-3.8827353806	 0.0409408689	 0.099815
H	 2.1854855514	-2.5845395168	 0.0304493056	 0.12621
H	 2.5146372476	 1.1021826667	-0.1788945236	 0.05216
123.0689	135.0607	232.9087	260.345	328.1784	362.4473	456.9465	489.8883	512.7217	549.0819	562.5672	640.6299	747.654	781.0548	818.9124	860.4797	870.3491	965.486	979.7086	1031.2768	1046.6118	1074.5457	1151.7089	1186.5473	1221.4828	1279.7079	1334.4748	1363.0051	1461.1521	1490.9555	1517.1575	1611.4715	1644.6072	1665.887	1777.7037	2871.9245	3161.8693	3181.4461	3195.0551	3208.3266	3588.6576	3690.4166
NC1=CC=CC=C1C=O	Nc1ccccc1C=O	
InChI=1S/C7H7NO/c8-7-4-2-1-3-6(7)5-9/h1-5H,8H2	InChI=1S/C7H7NO/c8-7-4-2-1-3-6(7)5-9/h1-5H,8H2
