15
gdb 25660	6.27713	0.74731	0.67061	2.2054	84.16	-0.1936	0.0056	0.1992	1614.2459	0.113117	-416.836303	-416.827536	-416.826592	-416.872134	30.98	
C	-0.0681102986	 1.4646252517	-0.0293039322	-0.509431
C	-0.0090630242	 0.0119351586	-0.0126693516	 0.190892
C	 0.0512192561	-1.1945851054	 0.0009484359	-0.082393
C	 0.1121783114	-2.597774117	 0.0167286126	 0.170266
C	 1.157083662	-3.4928091709	 0.0366751749	-0.209658
N	 0.7045638969	-4.794382883	 0.0463268266	-0.348766
C	-0.6005128035	-4.6891107108	 0.0323863304	 0.440491
O	-1.4858560214	-5.6966519348	 0.0346278841	-0.427105
N	-1.0329561388	-3.408768908	 0.0142639855	-0.383742
H	 0.9313196255	 1.8919913962	-0.1667938369	 0.154794
H	-0.6981277544	 1.8318742042	-0.8476121415	 0.149123
H	-0.4721386883	 1.8649634548	 0.9078453967	 0.14889
H	 2.210441011	-3.2613793991	 0.0445185904	 0.11547
H	-0.9666724148	-6.510963645	 0.0485619054	 0.315695
H	-1.9880688989	-3.0938836314	 0.0016589499	 0.275475
8.3913	86.458	95.4388	230.6221	293.6005	328.2456	412.3612	418.8469	460.5397	475.65	481.5284	549.0626	663.1852	727.8578	732.3654	842.7146	943.5968	1028.5349	1050.2589	1051.4086	1063.085	1160.9475	1217.9562	1263.4771	1305.5335	1364.9694	1412.459	1473.0687	1478.4273	1533.8828	1594.947	1629.702	2349.0208	3021.6451	3077.9041	3087.4325	3261.9687	3675.4255	3800.2668
CC#CC1=CN=C(O)N1	CC#Cc1cnc(O)[nH]1	
InChI=1S/C6H6N2O/c1-2-3-5-4-7-6(9)8-5/h4H,1H3,(H2,7,8,9)	InChI=1S/C6H6N2O/c1-2-3-5-4-7-6(9)8-5/h4H,1H3,(H2,7,8,9)
