19
gdb 96217	2.76707	1.41434	0.97953	3.4022	81.15	-0.2191	-0.0538	0.1653	1204.7009	0.160412	-419.229037	-419.220216	-419.219272	-419.263082	31.956	
C	 0.114005222	 1.4025124473	-0.0245604324	-0.364216
N	 0.1588089738	-0.0315185491	 0.2199952801	-0.126561
C	-1.1204338664	-0.6332404656	 0.583320376	-0.148432
C	-0.9199002342	-2.0347632147	 1.1521239678	-0.236208
C	-0.0353512732	-2.8426933406	 0.1997938369	-0.152836
N	 1.1887714573	-2.1483668121	-0.1638193667	-0.299118
C	 1.1935991291	-0.8572419831	-0.1371976588	 0.272619
C	 2.5618575897	-0.3304998206	-0.5019242899	 0.143427
O	 2.9529174191	 0.8110242609	-0.501848364	-0.279051
H	 1.108664195	 1.7825025964	-0.2360941649	 0.186469
H	-0.5520833272	 1.6359280782	-0.8685788123	 0.114367
H	-0.2816337769	 1.9122970764	 0.8623287518	 0.12041
H	-1.601847691	 0.0202121932	 1.3207459905	 0.109457
H	-1.7872302206	-0.6654544012	-0.2935678849	 0.105117
H	-0.4313523753	-1.963647852	 2.1304118958	 0.115876
H	-1.889294821	-2.5191745808	 1.3034514166	 0.104552
H	 0.2360052554	-3.8069234306	 0.6437646673	 0.110005
H	-0.5892241019	-3.0802486697	-0.7214929369	 0.110614
H	 3.212777556	-1.1837677122	-0.7708779421	 0.113509
61.5328	96.7325	117.0914	205.6083	257.3572	273.3106	333.3721	383.1769	411.9633	494.4223	553.3889	628.3383	707.407	740.7502	879.091	890.251	924.0527	967.8449	1033.1043	1072.687	1093.6389	1120.8908	1160.9401	1198.6069	1209.9995	1236.3495	1250.9148	1304.9506	1345.1086	1367.9851	1389.6263	1395.5479	1439.2856	1462.7444	1482.8881	1486.8453	1504.1839	1507.4751	1536.0749	1668.9085	1809.6596	2967.7577	2972.1497	2991.5347	2993.5621	3036.9386	3047.6882	3050.3696	3058.4173	3092.3558	3198.038
CN1CCCN=C1C=O	CN1CCCN=C1C=O	
InChI=1S/C6H10N2O/c1-8-4-2-3-7-6(8)5-9/h5H,2-4H2,1H3	InChI=1S/C6H10N2O/c1-8-4-2-3-7-6(8)5-9/h5H,2-4H2,1H3
