19
gdb 102928	2.6374	1.02724	0.77738	2.4302	76.23	-0.2281	-0.0227	0.2054	1468.8366	0.156121	-456.349056	-456.33828	-456.337335	-456.385946	36.422	
C	 0.2124137388	 0.7294148206	 0.6666367953	-0.226061
O	-0.1266785585	-0.5430595298	 0.1154319143	-0.254808
C	-1.4462136587	-0.7900435872	-0.0450073431	 0.499931
N	-1.630270233	-2.0768892121	-0.5100217448	-0.376624
C	-0.5390733968	-2.8733343439	-1.0353766216	-0.249129
C	 0.4305370322	-3.3262169675	 0.0536481173	 0.177532
O	 1.5475356749	-3.705294974	-0.1703096692	-0.240249
N	-2.3321544029	 0.0737267837	 0.2421036458	-0.353337
C	-3.722746123	-0.284120751	 0.047693592	-0.337784
H	 1.3010946878	 0.737146027	 0.7319170675	 0.130239
H	-0.1420961351	 1.5364692849	 0.0208104961	 0.138159
H	-0.2357166332	 0.8543779667	 1.6555680506	 0.137816
H	-2.5515392479	-2.271254174	-0.8625388177	 0.25459
H	-0.9684688863	-3.7817799736	-1.4747144468	 0.133402
H	 0.0383978026	-2.3698386534	-1.8196697552	 0.142915
H	-0.0017237167	-3.3052300488	 1.0788922492	 0.086874
H	-4.3567726	 0.5576812842	 0.3375525076	 0.12688
H	-3.9638352704	-0.5185138722	-1.0036371664	 0.100495
H	-4.0285664239	-1.1501386395	 0.6564220391	 0.109159
47.5531	61.5548	119.2467	135.8606	154.3522	164.0069	202.7085	219.2774	261.7364	301.6138	378.5965	414.3656	488.4036	621.4838	671.6087	729.1852	732.8891	829.8856	1030.5462	1060.1403	1083.2316	1119.4687	1120.9536	1133.3194	1184.2129	1187.4307	1236.5326	1265.6639	1320.4147	1379.8935	1403.4985	1434.9496	1453.6011	1468.2005	1474.6867	1487.0155	1503.4268	1505.1916	1509.5409	1756.2746	1845.6298	2890.3875	2949.0315	2996.1587	3030.9378	3050.2127	3077.1611	3095.5293	3125.0468	3152.6503	3664.1083
COC(NCC=O)=NC	COC(=NC)NCC=O	
InChI=1S/C5H10N2O2/c1-6-5(9-2)7-3-4-8/h4H,3H2,1-2H3,(H,6,7)	InChI=1S/C5H10N2O2/c1-6-5(9-2)7-3-4-8/h4H,3H2,1-2H3,(H,6,7)
