18
gdb 100747	3.02057	1.03888	0.80847	5.4641	64.77	-0.269	0.0117	0.2807	1372.6939	0.147184	-513.389812	-513.380332	-513.379388	-513.424472	34.886	
N	 0.1369737615	 0.8886720457	 0.0958754857	-0.533697
H	-1.1427542991	-0.5877172743	 0.7706121503	 0.297765
H	 1.1335334894	 0.9953197357	 0.2452364585	 0.245806
H	-0.056049102	 1.2145200651	-0.8462832267	 0.241706
C	-0.6281306322	 1.6682889827	 1.0828370524	-0.186261
C	-2.0355300271	 1.067778943	 1.1541561362	 0.115024
O	-1.9239730026	-0.3440772706	 1.2981456055	-0.456615
C	-2.8414616489	 1.5865783395	 2.3521507215	-0.020321
O	-2.9150795207	 2.9840993409	 2.3180878406	-0.439315
C	-4.2668947597	 1.0068710447	 2.3989267738	 0.402725
O	-4.3960798053	-0.3083073112	 2.2456301661	-0.364936
O	-5.2095042963	 1.7362731173	 2.5932810769	-0.350778
H	-0.1443531009	 1.5425236283	 2.0576783711	 0.116534
H	-0.6922413586	 2.7418548369	 0.8733613783	 0.125693
H	-2.5799386085	 1.3147263767	 0.2272214293	 0.080579
H	-3.531444901	-0.6834539871	 1.9745487708	 0.325793
H	-2.3262719792	 1.2345768466	 3.2641378292	 0.100803
H	-3.8539977089	 3.1848475501	 2.4724186606	 0.299495
69.2568	89.6616	125.7715	161.2017	264.2704	289.6644	329.2258	337.6801	398.5494	402.8626	495.0519	529.5507	572.7978	600.8809	653.2431	742.2233	768.4112	847.7174	893.3666	935.2462	989.5151	1053.2876	1075.8709	1120.6091	1154.8123	1178.4476	1257.5452	1278.2666	1296.3997	1313.2362	1339.5886	1368.901	1400.8624	1418.2599	1444.131	1480.6406	1496.8243	1656.5345	1842.8024	2946.0977	2969.4511	3037.4199	3087.2994	3504.5645	3508.7449	3592.2272	3629.5619	3657.9579
[NH3+]CC(O)C(O)C([O-])=O	NC[C@@H](O)[C@@H](O)C(=O)O	
InChI=1S/C4H9NO4/c5-1-2(6)3(7)4(8)9/h2-3,6-7H,1,5H2,(H,8,9)	InChI=1S/C4H9NO4/c5-1-2(6)3(7)4(8)9/h2-3,6-7H,1,5H2,(H,8,9)/t2-,3-/m1/s1
