14
gdb 124092	5.25736	1.06949	1.02163	3.5748	62.82	-0.2799	-0.0564	0.2235	1127.2308	0.102218	-466.099544	-466.092478	-466.091533	-466.132517	24.522	
C	 0.0021693061	 1.4935348902	-0.1429215524	-0.08557
O	 1.410461464	 1.5563967001	 0.1481964688	-0.261895
C	 1.452175219	 0.1692496041	 0.5303858995	-0.085568
C	 0.0087297096	-0.0428983689	 0.0213500876	 0.004673
N	-0.9501428324	-0.6282786754	 0.9349922291	 0.138911
N	-1.1537858617	-0.2191141752	 2.1781630923	-0.118541
N	-2.0813209745	-0.9975256829	 2.64475866	-0.074337
N	-2.4393002397	-1.8762600026	 1.6875198406	-0.080987
N	-1.7373183865	-1.6497782226	 0.621319762	-0.110548
H	-0.6056074693	 2.0119709893	 0.6072223573	 0.137161
H	-0.2354365778	 1.8684445372	-1.1432681066	 0.127711
H	 2.2337461926	-0.3866529364	 0.0032937142	 0.127711
H	 1.5595469025	 0.0345388429	 1.6126101288	 0.137158
H	-0.0778372418	-0.6081377696	-0.9039550212	 0.144122
49.0276	82.5728	143.4652	236.8837	396.5542	404.0754	619.752	736.2695	764.9479	843.3967	885.5995	935.3755	974.5029	1033.4542	1042.6636	1043.8775	1085.2045	1102.9395	1141.2367	1157.6011	1158.7703	1198.3247	1252.2455	1256.3824	1311.6026	1338.9965	1377.6084	1402.3739	1445.2287	1504.8837	1530.3476	3032.7258	3042.3558	3092.1496	3092.4099	3152.6847
C1OCC1N1N=NN=N1	C1OCC1n1nnnn1	
InChI=1S/C3H5N5O/c1-3(2-9-1)8-6-4-5-7-8/h3H,1-2H2	InChI=1S/C3H5N5O/c1-3(2-9-1)8-6-4-5-7-8/h3H,1-2H2
