18
gdb 8940	3.93596	1.16745	0.97405	2.3147	65.26	-0.2617	-0.0365	0.2252	1202.7265	0.150709	-422.085581	-422.076166	-422.075221	-422.119817	33.543	
C	 0.0084099299	 1.6029276544	 0.0569584716	-0.38719
C	-0.0226935134	 0.0746638392	-0.0207076082	-0.196885
C	 0.7333742682	-0.4770947182	-1.2291825072	 0.101496
O	 2.1166938538	-0.1370092664	-1.216352864	-0.432401
C	 0.5793271868	-2.0159987384	-1.3465860585	 0.027082
O	-0.7656161804	-2.4018677704	-1.3451840347	-0.432848
C	 1.2654436579	-2.5209966346	-2.6015352457	 0.135552
O	 0.6655280555	-3.1865743416	-3.4134690759	-0.267465
H	 1.0362644451	 1.9765926225	 0.0685548833	 0.122244
H	-0.4958102813	 2.04939832	-0.8068312298	 0.120483
H	-0.4962063351	 1.9599432261	 0.9593432705	 0.115447
H	 0.4170278776	-0.3610885543	 0.8900799955	 0.083301
H	-1.0519510293	-0.2925413084	-0.0684130965	 0.133223
H	 0.3320937422	-0.0229282907	-2.1440270821	 0.099861
H	 2.4576624845	-0.3268904919	-0.3347969908	 0.2831
H	 1.1177933394	-2.4618567444	-0.4868648216	 0.080021
H	-0.8836760488	-2.9240521913	-2.1562181785	 0.296094
H	 2.3249314975	-2.2397831815	-2.7330676872	 0.118886
70.9881	98.2642	124.2118	176.9911	222.1125	261.2414	311.4345	318.4985	349.2318	418.9831	445.7363	483.8651	534.4163	763.0775	786.2972	839.2269	882.8118	986.8587	998.0606	1036.942	1087.4939	1111.2831	1131.3525	1173.4022	1231.0924	1257.1209	1294.5286	1327.9979	1360.7482	1378.0801	1383.0098	1404.5662	1412.6303	1442.3113	1485.0318	1496.2994	1507.9981	1804.2026	2914.7119	2991.6189	2992.6274	3038.1029	3041.439	3090.2286	3106.7617	3118.5271	3666.1166	3794.9628
CCC(O)C(O)C=O	CC[C@@H](O)[C@@H](O)C=O	
InChI=1S/C5H10O3/c1-2-4(7)5(8)3-6/h3-5,7-8H,2H2,1H3	InChI=1S/C5H10O3/c1-2-4(7)5(8)3-6/h3-5,7-8H,2H2,1H3/t4-,5+/m1/s1
