17
gdb 36344	5.62528	0.80438	0.76518	1.5445	74.85	-0.2573	0.042	0.2993	1468.3755	0.133335	-421.741784	-421.732989	-421.732045	-421.776084	31.901	
C	-0.0095703574	-1.1272506613	-0.6166476717	-0.432602
C	-0.0214875081	-0.0167640617	-0.1589099281	 0.300704
C	-0.0064800175	 1.3280546799	 0.4057713255	-0.384789
C	 1.3819605025	 1.944580378	 0.4192682196	-0.034237
O	 1.828489503	 2.5584214757	-0.8016751896	-0.267031
C	 1.5838780464	 3.387342185	 0.3133909064	 0.353232
C	 0.6109455576	 4.5638243286	 0.3430463273	-0.153629
O	 1.5927800459	 5.3618675486	 1.0404148088	-0.274401
C	 2.6003155925	 4.3287988591	 0.9508447337	-0.15525
H	-0.0084400099	-2.105724811	-1.0290851037	 0.200854
H	-0.6784353868	 1.9826950263	-0.1613404234	 0.14032
H	-0.3866432606	 1.2997767066	 1.4361592254	 0.139408
H	 2.1450344716	 1.347205647	 0.9194385475	 0.108725
H	 0.3666068775	 4.9682095169	-0.6474282709	 0.118383
H	-0.3100389784	 4.4385578267	 0.9257342186	 0.109769
H	 2.994033336	 4.0463626085	 1.934382204	 0.112056
H	 3.4291098257	 4.6064427372	 0.2873308906	 0.118489
48.0768	91.3852	114.5651	185.2176	226.3164	334.374	353.0688	408.0412	443.7115	514.4669	608.7121	625.7529	650.0131	818.0126	843.6928	899.5464	930.8539	952.9039	970.3753	1022.6336	1024.1545	1076.8357	1083.2252	1129.1214	1144.669	1168.6946	1187.6027	1236.392	1299.701	1317.78	1331.0322	1378.4881	1451.9787	1499.048	1521.3372	1533.8995	2244.0054	3010.316	3018.71	3022.0735	3060.5555	3063.4976	3065.8768	3110.2775	3506.5178
C#CCC1OC11COC1	C#CC[C@H]1OC21COC2	
InChI=1S/C7H8O2/c1-2-3-6-7(9-6)4-8-5-7/h1,6H,3-5H2	InChI=1S/C7H8O2/c1-2-3-6-7(9-6)4-8-5-7/h1,6H,3-5H2/t6-/m1/s1
