20
gdb 59813	4.30135	0.66754	0.60168	2.6375	83.65	-0.2394	0.0097	0.2491	1869.8183	0.169868	-436.521462	-436.51103	-436.510086	-436.557493	37.832	
C	 0.3150092147	 1.7078717246	-0.154475156	-0.365272
C	 0.1997837519	 0.1837369567	-0.3065461528	 0.085254
C	 0.7106146199	-0.5405490712	 0.9455651514	-0.403289
N	-1.1616185717	-0.1222596266	-0.7406405658	-0.281454
C	-1.8931299243	-0.9056780379	-0.0684166788	 0.121614
N	-3.1906477281	-1.1709380593	-0.4833488575	-0.367849
C	-4.0217448816	-2.0671247078	 0.1759217074	 0.473399
N	-5.2636591545	-2.2048366463	-0.4144464383	-0.568996
O	-3.6750971863	-2.6971278206	 1.1543719514	-0.377831
H	 1.3521560359	 2.0046267296	 0.0308670097	 0.106832
H	-0.0376170228	 2.2082952007	-1.0598463168	 0.120542
H	-0.2968411025	 2.0558646281	 0.6851822595	 0.112164
H	 0.8462636479	-0.1070272446	-1.1475923417	 0.085467
H	 0.6662174898	-1.6287915334	 0.8353109506	 0.120824
H	 1.7541793031	-0.2679935701	 1.1289919781	 0.1118
H	 0.1356746529	-0.2632955792	 1.8365565044	 0.11936
H	-1.6388999132	-1.4389899433	 0.8478271216	 0.136202
H	-3.4709676015	-0.7398899338	-1.3518720423	 0.251339
H	-5.6489350955	-1.4334221745	-0.9368196523	 0.252834
H	-5.9251996141	-2.7012392911	 0.1619514382	 0.267059
45.8974	73.3738	106.9289	144.6347	238.79	249.2156	267.5964	300.218	323.5607	381.0984	407.3186	450.9852	502.9586	514.1574	577.4538	610.3714	665.4107	772.4573	819.6289	922.1582	942.8048	950.2551	1016.2806	1027.8574	1099.1165	1134.0447	1156.6805	1191.0544	1262.2116	1295.2557	1341.7043	1354.8092	1377.5743	1395.983	1413.8495	1484.7516	1489.3679	1499.9978	1508.0534	1521.9153	1627.3335	1753.7614	1815.6702	2993.8086	3029.6024	3035.0653	3097.2761	3103.0379	3108.3791	3121.3915	3137.0956	3583.2037	3618.4271	3701.519
CC(C)N=CNC(N)=O	CC(C)N=CNC(=O)N	
InChI=1S/C5H11N3O/c1-4(2)7-3-8-5(6)9/h3-4H,1-2H3,(H3,6,7,8,9)	InChI=1S/C5H11N3O/c1-4(2)7-3-8-5(6)9/h3-4H,1-2H3,(H3,6,7,8,9)
