25
gdb 58189	2.18962	1.22625	0.98442	0.2259	84.68	-0.2478	0.0633	0.311	1375.2748	0.22494	-426.631888	-426.62017	-426.619226	-426.668016	44.423	
C	-0.8353124015	 1.7776966206	 0.5250845014	-0.400851
C	-0.4191954496	 0.3419534316	 0.2022014135	 0.111424
O	 0.5549866846	-0.120184472	 1.1339286538	-0.424556
C	-1.6540270569	-0.5865548919	 0.0685494449	 0.074087
O	-2.4896694661	-0.0436869998	-0.9575846894	-0.43029
C	-1.3870874325	-2.1101538347	-0.1528614177	 0.248646
C	-0.8472711632	-2.770827243	 1.1313537639	-0.422145
C	-2.7306955737	-2.7833719543	-0.5020333862	-0.389294
C	-0.3874322365	-2.3383918232	-1.3024974192	-0.425495
H	 0.0441473118	 2.4265384181	 0.5536858106	 0.118032
H	-1.5437863915	 2.1560188574	-0.2136276063	 0.133719
H	-1.324971697	 1.8207017447	 1.5070878945	 0.103302
H	 0.1058926613	 0.3339934624	-0.7621763559	 0.081149
H	 0.189416446	-0.0108610106	 2.0188585977	 0.27901
H	-2.2571477759	-0.4900522678	 0.9830866578	 0.071312
H	-2.0127414603	-0.1156746126	-1.7920849608	 0.280114
H	-1.5210540814	-2.5894572338	 1.9775748427	 0.097647
H	-0.7855990838	-3.8561491806	 0.9938340326	 0.103946
H	 0.142903834	-2.3986036998	 1.3926336141	 0.134293
H	-3.1610952851	-2.3819103869	-1.421301193	 0.11169
H	-2.58880646	-3.8622467819	-0.6257838405	 0.101601
H	-3.4647808136	-2.63206073	 0.2973124599	 0.106461
H	 0.6066077709	-1.9552412577	-1.0556407548	 0.132351
H	-0.2885096983	-3.4085745292	-1.5120166468	 0.113327
H	-0.716286632	-1.864881715	-2.2365523666	 0.090521
42.3064	87.4226	182.8651	224.0069	234.6988	244.0375	263.8194	283.7031	294.5163	300.8038	318.1013	326.7545	359.7909	379.9213	392.4197	446.2866	480.5822	519.3762	562.3944	757.0532	853.4144	899.0304	932.8719	941.4206	960.5744	977.9122	1023.0803	1033.5608	1057.9786	1070.54	1104.0214	1146.9417	1211.5846	1220.1463	1249.658	1268.9921	1308.5001	1326.6189	1385.2283	1394.0079	1396.3001	1397.2138	1411.9581	1420.6894	1432.3579	1479.5634	1485.6775	1489.0027	1491.8426	1499.1332	1506.5748	1508.5273	1526.1264	3001.747	3017.56	3021.3046	3025.9235	3031.3991	3034.9362	3080.7209	3082.3029	3095.053	3101.5047	3110.4114	3128.9727	3144.0975	3151.4199	3797.5365	3800.5459
CC(O)C(O)C(C)(C)C	C[C@@H](O)[C@@H](O)C(C)(C)C	
InChI=1S/C7H16O2/c1-5(8)6(9)7(2,3)4/h5-6,8-9H,1-4H3	InChI=1S/C7H16O2/c1-5(8)6(9)7(2,3)4/h5-6,8-9H,1-4H3/t5-,6-/m1/s1
