18
gdb 91730	2.58364	1.58229	1.47166	4.1913	70.18	-0.2301	-0.0088	0.2213	979.2417	0.150137	-439.103501	-439.096105	-439.09516	-439.135321	29.675	
O	-0.0033242471	 1.4464065524	-0.053218982	-0.430974
C	 0.0299357646	 0.0331329861	 0.0295024387	 0.126277
C	 0.6284547048	-0.5382473302	 1.3560415056	-0.278345
C	-0.5611371583	-1.3802841257	 1.9089423327	-0.116096
N	-1.2712275229	-1.8613625863	 0.7004103483	-0.311876
C	-1.4162620538	-0.533572918	 0.0600970726	-0.041085
C	-2.2247782297	 0.2076017593	 1.1395041682	-0.310593
C	-1.5908852518	-0.3628574776	 2.4176605452	 0.452318
O	-1.8198125158	-0.0589056704	 3.5567814182	-0.330005
H	 0.9006811253	 1.772839072	-0.0872565998	 0.289072
H	 0.5601257565	-0.3832153668	-0.8392210834	 0.065972
H	 1.4936452945	-1.1820349768	 1.1723362035	 0.101359
H	 0.9392861162	 0.2665429614	 2.0290849898	 0.118921
H	-0.3070671816	-2.1558293286	 2.6293946413	 0.087519
H	-0.6647429411	-2.4641430356	 0.1476764338	 0.218562
H	-1.8964651933	-0.5827107948	-0.9170231343	 0.078404
H	-2.135357368	 1.2935187094	 1.1043276387	 0.148134
H	-3.2823514386	-0.0676650398	 1.0972794928	 0.132435
82.5069	185.7948	269.5305	288.9164	400.6655	433.3696	481.3684	505.4693	531.9361	596.9827	705.1045	758.181	795.4633	820.8734	885.2845	905.6291	927.1412	956.7776	970.0497	1021.5608	1036.091	1061.5231	1065.922	1123.3704	1156.6647	1181.6142	1194.6154	1219.4001	1228.1447	1266.0293	1282.4584	1324.9458	1345.9187	1353.6205	1406.1149	1416.7228	1441.7699	1484.0717	1868.7489	2988.051	3050.5697	3075.6782	3099.3058	3118.6939	3137.9701	3144.8409	3479.4928	3827.7307
OC1CC2NC1CC2=O	O[C@H]1C[C@@H]2N[C@H]1CC2=O	
InChI=1S/C6H9NO2/c8-5-1-3-6(9)2-4(5)7-3/h3-5,7-8H,1-2H2	InChI=1S/C6H9NO2/c8-5-1-3-6(9)2-4(5)7-3/h3-5,7-8H,1-2H2/t3-,4-,5-/m0/s1
