18
gdb 45699	2.98323	1.66177	1.10391	1.9302	79.45	-0.2158	0.0019	0.2177	1081.9052	0.151618	-398.175308	-398.167875	-398.16693	-398.207417	28.552	
N	-0.1501787581	 1.2808242973	 0.0101548381	-0.553416
C	-0.0329726916	 0.013642249	 0.0196951315	 0.316495
C	 1.1729543088	-0.9511106302	 0.0288084758	-0.278365
N	 0.6319813833	-2.3242309451	 0.0361934313	-0.357777
C	-0.6351278125	-2.1666217071	 0.0286048695	 0.409018
C	-1.8172387169	-3.0943881062	 0.0086115096	-0.338355
C	-2.9874327595	-2.1644788899	 0.4330778635	-0.223927
C	-2.5434095673	-0.7301498304	 0.0329065175	-0.172402
N	-1.1016346469	-0.8605863422	 0.0269628849	-0.060267
H	 0.767765042	 1.7238366454	 0.0152430084	 0.217664
H	 1.8034447051	-0.7918746888	-0.8540239588	 0.135961
H	 1.8053321185	-0.7806704575	 0.9081402551	 0.135149
H	-1.958379981	-3.4775364325	-1.0085789582	 0.135581
H	-1.6805717101	-3.9547472061	 0.6655235052	 0.138727
H	-3.9375205808	-2.4436575519	-0.0256142534	 0.115512
H	-3.117216365	-2.2123582385	 1.5181546396	 0.123736
H	-2.9155672607	-0.4416863302	-0.9584970811	 0.120552
H	-2.866683297	 0.033984885	 0.7444361515	 0.136113
98.5892	138.5691	185.8335	252.6253	281.7279	505.6554	531.3677	578.3897	613.6338	645.4674	714.3603	753.6128	831.6179	855.585	893.3653	915.2939	959.9935	982.0778	1007.5998	1019.4411	1081.2346	1092.569	1180.9171	1186.1763	1213.9237	1221.1782	1244.9655	1276.3394	1298.4762	1315.831	1343.3408	1399.7067	1432.6647	1458.13	1474.1329	1499.3389	1531.0933	1724.6179	1740.6774	3023.4941	3036.7331	3050.5811	3065.7478	3068.5824	3093.57	3118.3599	3127.1984	3488.3917
N=C1CN=C2CCCN12	[NH][C]1CN=C2CCCN12	
InChI=1S/C6H9N3/c7-5-4-8-6-2-1-3-9(5)6/h7H,1-4H2	InChI=1S/C6H9N3/c7-5-4-8-6-2-1-3-9(5)6/h7H,1-4H2
