19
gdb 110401	5.52148	0.93518	0.9236	3.4653	80.34	-0.2394	0.0088	0.2482	1325.8526	0.159199	-385.838548	-385.830596	-385.829652	-385.871332	30.593	
C	-0.145663183	 1.5874189608	 0.0563321259	-0.377982
C	 0.1555205532	 0.0935015952	-0.1133744507	-0.210953
C	 0.7950625736	-0.5218823771	 1.1233476857	-0.002052
C	-0.0694273214	-0.8645983988	 2.3606362221	-0.036711
C	-0.6313894768	-2.1920965868	 1.7094615504	-0.208325
C	 0.8820444427	-2.0578355722	 1.2690804585	-0.053589
C	 0.9518308908	-1.9679367218	 2.8440430335	-0.205573
C	-0.1909078572	-2.970152591	 2.9445019585	 0.44846
O	-0.5509398248	-3.8807401635	 3.6269289431	-0.334324
H	 0.7673516071	 2.1524531692	 0.2743831099	 0.116778
H	-0.5893901163	 2.0089487638	-0.8504843802	 0.116358
H	-0.8459353505	 1.7604684639	 0.8806425407	 0.118384
H	-0.7679528373	-0.443537794	-0.3624477944	 0.096545
H	 0.8313258196	-0.0482618604	-0.9671533569	 0.099114
H	 1.7287272393	 0.0010431958	 1.3697493416	 0.068833
H	-0.6343083833	-0.2111566927	 3.0260640908	 0.089232
H	-1.4995556981	-2.2929754274	 1.0631271496	 0.095253
H	 1.4208913828	-2.7869546932	 0.6629497168	 0.088465
H	 1.8452754796	-1.8034820898	 3.4429785652	 0.092087
76.427	131.0299	165.2571	195.6783	258.1163	388.8138	432.0476	545.9133	648.1128	695.5459	748.955	797.058	808.1686	812.8191	829.198	870.684	920.9552	957.5324	961.6728	1001.5403	1011.5768	1059.0576	1070.8064	1106.9361	1118.543	1123.328	1133.8233	1142.4079	1175.304	1208.7485	1221.9504	1240.2363	1288.917	1296.9301	1348.051	1411.2283	1423.6396	1486.0611	1499.755	1506.7869	1913.139	3016.5821	3019.6315	3032.2398	3055.4379	3098.4421	3105.9914	3107.7524	3110.0183	3145.8182	3155.7405
CCC1C2C3C1C2C3=O	CC[C@H]1[C@H]2[C@H]3[C@@H]1[C@@H]2C3=O	
InChI=1S/C8H10O/c1-2-3-4-6-5(3)7(4)8(6)9/h3-7H,2H2,1H3	InChI=1S/C8H10O/c1-2-3-4-6-5(3)7(4)8(6)9/h3-7H,2H2,1H3/t3-,4-,5+,6-,7+
