21
gdb 111872	2.62034	1.33767	1.24652	1.7568	77.99	-0.2472	0.0806	0.3278	1156.0724	0.184117	-424.212284	-424.203808	-424.202863	-424.245649	32.428	
C	-0.0431162703	 1.5250459924	 0.2747978846	-0.374672
C	-0.0375222755	 0.1121408855	-0.3203804712	-0.205395
C	-1.3779382701	-0.5784210715	-0.1643772249	-0.035229
C	-1.5410492565	-2.0866594512	-0.1224420014	-0.129018
C	-0.370340992	-3.0546607824	-0.1095078983	-0.107474
O	 0.5414078655	-2.8121336407	 0.961477773	-0.228661
C	-0.1353414748	-2.5708353783	 2.1630741906	 0.012546
O	-0.8141302367	-1.3388844408	 2.1487094022	-0.239999
C	-1.7722083052	-1.2605852478	 1.1246283788	 0.074576
H	 0.9189649678	 2.0229379323	 0.1180155481	 0.10758
H	-0.8194617223	 2.1491981862	-0.1823681506	 0.106164
H	-0.2338964128	 1.4860478755	 1.3514867233	 0.130348
H	 0.2134494761	 0.1600999209	-1.3879754325	 0.09031
H	 0.7422609432	-0.4854596785	 0.1572249577	 0.124675
H	-2.1990472914	-0.0597723977	-0.6561786055	 0.080638
H	-2.4244826101	-2.4901762685	-0.6085028162	 0.091235
H	-0.7629250788	-4.0807447139	-0.023671088	 0.097414
H	 0.2226647902	-2.9970893505	-1.0272505541	 0.116808
H	-0.8426014668	-3.3941074199	 2.3712711941	 0.07886
H	 0.6163033781	-2.504122006	 2.9516346184	 0.1179
H	-2.7815988374	-1.1329450551	 1.508589852	 0.091393
63.9808	123.1733	157.8254	214.4774	268.86	277.8363	381.4046	460.9946	498.3296	565.0302	581.6035	752.5381	761.8611	785.4106	807.5046	857.3589	932.0931	963.9594	983.2779	995.1685	1028.5417	1051.4273	1071.5525	1112.0953	1119.2647	1141.5411	1155.8129	1186.1742	1210.6533	1246.5632	1276.365	1298.7234	1327.7927	1337.7591	1357.3189	1379.4946	1403.5996	1407.8788	1443.3276	1450.1794	1491.8225	1497.2425	1499.1473	1508.0469	1511.837	2938.7767	2975.4331	3024.5299	3031.0355	3076.1498	3088.7975	3106.1272	3112.5642	3117.5938	3121.2874	3128.2839	3150.3825
CCC1C2COCOC12	CC[C@H]1[C@H]2COCO[C@@H]12	
InChI=1S/C7H12O2/c1-2-5-6-3-8-4-9-7(5)6/h5-7H,2-4H2,1H3	InChI=1S/C7H12O2/c1-2-5-6-3-8-4-9-7(5)6/h5-7H,2-4H2,1H3/t5-,6+,7-/m0/s1
