23
gdb 102608	2.70635	0.92843	0.77585	1.916	83.07	-0.2423	-0.011	0.2314	1592.9975	0.201531	-425.446598	-425.435013	-425.434069	-425.484334	40.24	
C	-0.0468499588	 1.254736096	-0.5073912704	-0.390734
C	 0.0608505295	-0.2198188796	-0.1142711477	-0.175669
C	 0.8653050234	-0.4495540245	 1.1709191268	 0.139068
C	 0.9562981849	-1.9360774068	 1.5216506715	-0.317167
C	 1.5095905683	-2.2135949495	 2.9153285763	 0.392789
C	 1.9993360129	-3.6275281224	 3.1671638948	-0.475093
O	 1.5429549163	-1.3659375333	 3.7790409171	-0.298986
O	 2.1941281181	 0.0421616298	 0.996988137	-0.266673
C	 2.5728463379	 1.0877570703	 1.8729757485	-0.247365
H	 0.9470054406	 1.683415738	-0.6606731011	 0.131515
H	-0.6137646697	 1.3743405408	-1.4356102501	 0.109795
H	-0.5532708549	 1.8388999471	 0.2693010571	 0.11095
H	-0.9410445035	-0.6475137528	 0.0192955288	 0.088793
H	 0.5377375988	-0.783142235	-0.926663957	 0.099169
H	 0.3840539443	 0.0763205872	 2.0058560956	 0.086023
H	-0.0363512784	-2.4073748338	 1.4723901358	 0.118567
H	 1.5720173051	-2.4516133077	 0.7747862962	 0.1201
H	 1.2651138372	-4.3650174948	 2.8252627094	 0.133605
H	 2.9153242356	-3.8015308002	 2.5899307072	 0.147067
H	 2.2096576224	-3.768799606	 4.2279695198	 0.141386
H	 1.9670413166	 1.9929208985	 1.719095043	 0.0995
H	 2.4928102238	 0.7816777547	 2.9225185034	 0.136293
H	 3.6151132496	 1.328189394	 1.6444409781	 0.117067
43.3893	67.2369	99.9318	110.5536	132.9868	143.8284	174.7341	236.9637	251.0421	311.9655	326.1349	337.6415	475.6782	482.4386	515.1423	610.1348	763.9131	800.3787	824.731	898.4078	935.793	959.3215	1008.8182	1036.1516	1092.1511	1116.09	1129.2552	1156.7774	1183.8386	1186.5224	1211.3135	1246.4088	1281.9819	1312.6374	1368.4307	1382.655	1389.6904	1402.2126	1407.4762	1434.7232	1463.4467	1476.1312	1476.898	1483.4525	1489.1153	1499.0913	1509.9774	1519.9712	1808.0399	2990.6566	3012.5271	3020.3492	3025.5627	3035.3155	3035.4822	3056.952	3063.7952	3067.9577	3096.3002	3100.2499	3109.0526	3120.7142	3151.3946
CCC(CC(C)=O)OC	CC[C@@H](CC(=O)C)OC	
InChI=1S/C7H14O2/c1-4-7(9-3)5-6(2)8/h7H,4-5H2,1-3H3	InChI=1S/C7H14O2/c1-4-7(9-3)5-6(2)8/h7H,4-5H2,1-3H3/t7-/m0/s1
