23
gdb 112917	1.89665	1.60141	1.04585	0.5591	82.14	-0.2523	0.0863	0.3386	1279.0316	0.204965	-425.446457	-425.436421	-425.435477	-425.481536	37.035	
C	 0.74169382	 1.1136532585	 0.3832168257	-0.240366
O	 0.6524447721	-0.2848843901	 0.1935182811	-0.245968
C	 0.516117994	-0.6623724092	-1.1553030198	 0.213928
O	 1.657362158	-0.3375450599	-1.9151702443	-0.278332
C	 2.5718316041	-1.4571097905	-1.9534448872	 0.14559
C	 3.9308017875	-1.0377980046	-1.4117158947	-0.397142
C	 1.8799526081	-2.5880536727	-1.1732848379	-0.254179
C	 0.3951470727	-2.1901823622	-1.2262286101	-0.013263
C	-0.5040652595	-2.8331304926	-0.1749066149	-0.408816
H	 1.6147830672	 1.5336508782	-0.1297407445	 0.123694
H	-0.1605915251	 1.6252403027	 0.0134663129	 0.102347
H	 0.8316690013	 1.2882999845	 1.4578133176	 0.121692
H	-0.3290216385	-0.1185167076	-1.6041287582	 0.061869
H	 2.6753781718	-1.7381515557	-3.0110145902	 0.072219
H	 3.8475788274	-0.7467606403	-0.360091976	 0.123979
H	 4.6460626713	-1.8638969778	-1.4898492097	 0.110718
H	 4.3263133503	-0.1884887951	-1.9762869519	 0.120972
H	 2.0770775949	-3.5711935762	-1.6078547516	 0.098249
H	 2.2230565981	-2.6004138439	-0.1331183878	 0.109069
H	 0.0079967974	-2.4198048566	-2.2271922702	 0.078224
H	-0.1545378046	-2.5966343934	 0.8325072789	 0.134079
H	-1.5354591272	-2.4760137499	-0.2643931522	 0.112228
H	-0.5182747313	-3.9215861755	-0.2920484847	 0.109209
54.6706	104.1334	132.2988	187.6416	206.6277	208.378	240.8154	284.3168	329.2704	381.2154	444.1001	505.9203	535.1821	587.798	729.2657	821.3316	869.9654	906.2278	924.0559	940.2635	976.4307	1003.4479	1037.4528	1064.3891	1106.4844	1132.5341	1141.8673	1151.562	1182.7342	1190.9114	1210.3924	1233.7474	1286.9392	1331.6746	1348.9991	1366.4596	1390.0222	1393.9308	1395.5649	1407.4822	1412.2507	1476.7171	1483.728	1485.4665	1489.0303	1495.6114	1498.4893	1501.764	1515.8057	2984.5742	2992.5466	2999.3559	3026.6797	3034.3512	3038.8437	3050.6898	3061.4578	3098.0308	3103.4319	3106.8647	3117.3354	3120.2869	3129.2802
COC1OC(C)CC1C	CO[C@H]1O[C@@H](C)C[C@H]1C	
InChI=1S/C7H14O2/c1-5-4-6(2)9-7(5)8-3/h5-7H,4H2,1-3H3	InChI=1S/C7H14O2/c1-5-4-6(2)9-7(5)8-3/h5-7H,4H2,1-3H3/t5-,6+,7+/m1/s1
