16
gdb 23069	4.65331	1.13856	1.07125	2.2228	73.28	-0.2303	0.0153	0.2457	1141.2159	0.122581	-437.769638	-437.761778	-437.760833	-437.801801	30.386	
C	-0.0814499196	 1.3896550882	 0.0024338627	-0.505784
C	 0.0203820794	-0.0965442203	-0.0183346533	 0.482067
O	-1.146111639	-0.8729445065	-0.3287817203	-0.32292
C	-0.4054960032	-2.0377524788	 0.1380987877	-0.05438
C	 0.6099377373	-1.1022031202	 0.8995049124	-0.194713
C	 1.2546559414	-0.9003604497	-0.5045249325	-0.276293
C	 0.680341913	-2.1995568896	-0.9255885324	 0.51966
N	 1.1054341389	-3.1031837699	-1.701386577	-0.300324
O	 0.2770276602	-4.2493214826	-1.639911625	-0.402504
H	 0.8707247336	 1.8319615648	 0.3093593736	 0.131133
H	-0.332446721	 1.7703893783	-0.9925513656	 0.14274
H	-0.857054554	 1.7118515276	 0.7036487118	 0.138407
H	-1.016718486	-2.8509295542	 0.5137779081	 0.112061
H	 1.0502082545	-1.1004636588	 1.8861859288	 0.117348
H	 2.2045417677	-0.4496060799	-0.7540450668	 0.107945
H	 0.7071014568	-4.8360091583	-2.2706574522	 0.305557
108.7219	172.0633	194.8128	272.0145	296.7	307.3027	385.9851	487.1108	565.2567	631.7243	680.4986	739.7876	750.6257	783.1037	794.3321	867.6498	899.7138	920.9083	939.0156	960.8814	1026.5443	1040.3585	1098.7142	1106.6029	1135.3438	1146.6201	1203.85	1232.9275	1277.2922	1398.8858	1412.5541	1457.9558	1473.5557	1498.8691	1801.0859	3040.9832	3111.334	3119.4306	3192.7228	3218.8847	3229.8805	3824.0286
CC12OC3C1C2C3=NO	C[C@]12O[C@@H]3[C@H]1[C@H]2C3=NO	
InChI=1S/C6H7NO2/c1-6-2-3(6)5(9-6)4(2)7-8/h2-3,5,8H,1H3	InChI=1S/C6H7NO2/c1-6-2-3(6)5(9-6)4(2)7-8/h2-3,5,8H,1H3/t2-,3+,5+,6+/m0/s1
