17
gdb 70980	3.97087	1.27114	1.1407	2.8631	73.22	-0.2414	-0.0423	0.1991	1096.1162	0.133778	-421.771945	-421.763876	-421.762931	-421.804903	30.405	
C	-0.2971286692	 1.4417589647	 0.0411014344	-0.506576
C	-0.0823858062	-0.0319599144	 0.023581036	 0.477679
O	 0.8731860306	-0.5856558773	-0.8927312658	-0.360659
C	 0.3090933878	-1.8859752966	-0.5819641313	 0.330543
C	 0.7591015097	-2.1548943369	 0.8822057135	-0.26618
C	-0.1557922374	-0.9876654255	 1.2384302137	-0.162223
C	-1.005490681	-1.2021611236	-0.0122644331	-0.241635
C	 0.4111204089	-2.89228976	-1.6802277482	 0.041546
O	 0.1081061394	-4.0509839826	-1.544588929	-0.253014
H	 0.6161268858	 1.9616744676	 0.3488580066	 0.138028
H	-0.5847690088	 1.8067886953	-0.9495292085	 0.135083
H	-1.0903737475	 1.6992181261	 0.7490926298	 0.129996
H	 0.3657896347	-3.1093056958	 1.2370775826	 0.128166
H	 1.8336590342	-2.0735695778	 1.0708899328	 0.10582
H	-0.4864445074	-0.6584667009	 2.2154789959	 0.096591
H	-2.0630131558	-1.3440690397	-0.1869043756	 0.110426
H	 0.7797481223	-2.4792452526	-2.6441322938	 0.096409
51.2343	158.516	182.3663	206.4672	276.331	297.6465	431.286	487.212	557.5528	623.0737	694.5479	748.7982	775.417	822.893	835.886	882.9806	920.0903	953.346	967.4659	982.4468	1051.8933	1067.6411	1089.1521	1097.1072	1108.1849	1146.6769	1220.4848	1226.9066	1246.3614	1302.922	1398.5523	1405.4822	1459.1645	1474.1724	1486.7697	1500.8079	1820.4009	2904.2646	3038.2167	3057.1128	3105.5773	3116.9804	3131.8556	3196.5914	3212.7051
CC12OC3(CC1C23)C=O	C[C@@]12O[C@]3(C[C@@H]1[C@@H]23)C=O	
InChI=1S/C7H8O2/c1-6-4-2-7(3-8,9-6)5(4)6/h3-5H,2H2,1H3	InChI=1S/C7H8O2/c1-6-4-2-7(3-8,9-6)5(4)6/h3-5H,2H2,1H3/t4-,5+,6-,7-/m1/s1
