23
gdb 75539	2.12433	1.6222	1.16078	1.2807	87.81	-0.2327	0.0255	0.2582	1194.2822	0.205413	-388.320113	-388.310473	-388.309529	-388.35372	37.843	
C	-0.0512575784	 1.5474790283	 0.0002690355	-0.492977
C	 0.0077885102	 0.0387470265	-0.0246425545	 0.307084
C	-0.0146665871	-0.6264973455	-1.1835819617	-0.155899
C	-0.0065751741	-2.1242335223	-1.3252119767	-0.248126
C	-0.3519068554	-2.8178525729	-0.0043193315	-0.218309
C	 0.4239763141	-2.1713564284	 1.1422264613	-0.199996
C	 0.055610924	-0.6907846818	 1.3209917838	 0.27583
C	 1.0368659866	-0.0301002377	 2.3020776637	-0.434079
O	-1.2592807141	-0.7043858829	 1.9148457306	-0.468208
H	 0.8664197472	 1.9916285017	 0.4028435504	 0.128321
H	-0.2051666315	 1.9474024401	-1.0051647455	 0.122299
H	-0.8742741399	 1.9202880718	 0.6260912286	 0.106502
H	-0.0477327255	-0.0544769402	-2.1101430425	 0.074285
H	-0.7096808412	-2.4199020742	-2.1140451178	 0.100117
H	 0.9831594902	-2.4525369686	-1.6801180073	 0.102969
H	-1.4232781603	-2.7128892475	 0.1967999379	 0.115701
H	-0.1336003633	-3.8892134361	-0.0637233071	 0.084318
H	 0.2220801493	-2.6807513178	 2.0901492408	 0.099653
H	 1.5021491751	-2.2465750868	 0.9529705377	 0.088716
H	 2.0472527227	 0.0230709415	 1.8828517253	 0.113695
H	 0.7238214595	 0.9864052846	 2.5599225581	 0.104399
H	 1.0731828475	-0.612647626	 3.2272177588	 0.119342
H	-1.5836502356	 0.2014566144	 1.9430116922	 0.274364
79.9284	182.6337	210.979	223.1034	233.7086	270.8801	296.7171	321.3546	342.6059	367.3679	451.9582	453.6085	528.7644	597.423	639.0087	673.3313	821.1667	839.4291	876.7747	891.3558	921.1399	958.2865	988.303	1019.6533	1052.1428	1068.4559	1086.8906	1118.2666	1130.8091	1143.1718	1166.1932	1209.6503	1263.1836	1289.6854	1325.0116	1367.1356	1378.3962	1389.3356	1393.2649	1402.1529	1418.0362	1470.5032	1477.9975	1480.0445	1486.0544	1493.8964	1495.032	1503.4009	1728.5238	2985.429	3009.0685	3027.2965	3034.1273	3034.9649	3046.3993	3060.5669	3077.5905	3088.9527	3104.5646	3110.9837	3113.3238	3128.8271	3817.102
CC1=CCCCC1(C)O	CC1=CCCC[C@]1(C)O	
InChI=1S/C8H14O/c1-7-5-3-4-6-8(7,2)9/h5,9H,3-4,6H2,1-2H3	InChI=1S/C8H14O/c1-7-5-3-4-6-8(7,2)9/h5,9H,3-4,6H2,1-2H3/t8-/m0/s1
