19
gdb 113802	3.54632	0.96934	0.91622	1.7771	72.33	-0.2502	0.0683	0.3185	1341.914	0.157432	-460.114598	-460.105344	-460.1044	-460.148961	34.758	
O	-0.0461718	 1.4668638398	-0.3338100173	-0.418246
C	 0.0069722921	 0.2234385643	 0.3525858764	-0.114503
C	-1.2875674079	-0.5342982659	 0.1923111295	 0.035525
O	-1.5020528576	-1.2329221601	-1.0586096755	-0.286843
C	-1.4462064076	-1.9977205533	 0.1544098916	-0.025712
C	-0.3379054122	-3.0088994059	 0.2237103311	 0.407284
O	 0.8095876553	-2.6685554052	-0.4997809844	-0.46192
C	-0.0995845549	-3.7691543854	 1.491281482	-0.307501
C	-0.7071608793	-4.4752748705	 0.2961930658	-0.321458
H	-0.1533690997	 1.2692989005	-1.2704345511	 0.288821
H	 0.8550888999	-0.3920051286	 0.0367849304	 0.119731
H	 0.1429714381	 0.4703140789	 1.4116429984	 0.113969
H	-2.1626215662	 0.0431573531	 0.4974432334	 0.100697
H	-2.4123518645	-2.3888057258	 0.4791473376	 0.094035
H	 0.4937464723	-2.3449011791	-1.3539921105	 0.287351
H	 0.9358666886	-3.9846522041	 1.7283923763	 0.132454
H	-0.7290204661	-3.559230065	 2.3494531369	 0.117523
H	-1.7553155347	-4.7531633625	 0.3347019889	 0.11449
H	-0.0690783455	-5.1549180052	-0.2560547893	 0.124306
56.3907	83.4587	160.8347	189.265	254.3402	300.8539	321.5246	368.1729	416.618	433.9526	480.9905	527.8072	609.5016	738.1345	766.9683	802.4216	876.4245	900.3341	931.0869	940.1192	973.9579	995.7589	1054.0673	1058.324	1067.1228	1081.2433	1123.6287	1158.1712	1191.3727	1223.7563	1235.6421	1286.1949	1336.1405	1352.7588	1373.2133	1413.1603	1442.2552	1452.2185	1481.6974	1503.4814	1511.9708	3046.4837	3084.1355	3093.0102	3105.8305	3133.0776	3137.3926	3220.5951	3234.4399	3764.3473	3810.2006
OCC1OC1C1(O)CC1	OC[C@H]1O[C@H]1C1(O)CC1	
InChI=1S/C6H10O3/c7-3-4-5(9-4)6(8)1-2-6/h4-5,7-8H,1-3H2	InChI=1S/C6H10O3/c7-3-4-5(9-4)6(8)1-2-6/h4-5,7-8H,1-3H2/t4-,5-/m1/s1
