12
gdb 42154	3.21032	0.74646	0.60788	4.8662	77.41	-0.2911	-0.111	0.1801	1675.1269	0.074254	-398.291935	-398.282704	-398.28176	-398.328309	30.794	
O	 0.0426032422	-0.1107807577	 0.0017563863	-0.247462
C	-0.0244529595	 1.0970272297	 0.0056414394	 0.19629
C	 1.1996601512	 1.9201753822	 0.0009475931	 0.229838
N	 2.1655817976	 2.5555886421	-0.0028444834	-0.314664
C	-1.2409651271	 1.8550467689	 0.0166509915	 0.082974
C	-2.265789926	 2.4912666594	 0.0258698408	 0.078214
C	-3.5156028097	 3.24541766	 0.0370339992	-0.501742
C	-3.3290137618	 4.695179012	 0.0433617425	 0.307016
C	-3.1839378128	 5.8858923552	 0.0486184672	-0.415924
H	-4.1132294013	 2.9445547521	-0.8354027542	 0.185127
H	-4.1031378161	 2.9355968536	 0.9131747642	 0.185118
H	-3.0525841267	 6.9400885224	 0.0532773134	 0.215215
17.9913	50.1505	127.8848	133.4146	220.9686	287.2536	313.9268	328.8709	395.7754	456.6732	549.3279	628.8296	643.0594	671.3887	705.4938	772.0016	919.9712	922.4695	997.677	1221.6633	1226.9855	1334.2279	1435.0919	1745.5989	2254.3378	2340.6996	2344.0224	3009.5502	3035.0319	3503.2058
O=C(C#N)C#CCC#C	O=C(C#N)C#CCC#C	
InChI=1S/C7H3NO/c1-2-3-4-5-7(9)6-8/h1H,3H2	InChI=1S/C7H3NO/c1-2-3-4-5-7(9)6-8/h1H,3H2
