21
gdb 120885	5.01766	0.81584	0.77467	1.0372	80.26	-0.2307	0.0742	0.3049	1564.5269	0.180537	-424.176371	-424.166804	-424.16586	-424.211164	35.064	
C	-0.3023625425	 1.3318720332	 0.5371445007	-0.222584
O	-0.184692489	-0.0694036475	 0.5841309823	-0.235365
C	 1.1468453641	-0.5157135698	 0.4580888985	-0.084406
C	 1.124719821	-2.0308730368	 0.5355930994	 0.116271
O	 2.4302701437	-2.6212815752	 0.2894178533	-0.347456
C	 2.3051810271	-3.426704293	 1.4790471285	 0.479512
C	 2.7761016643	-4.8410488299	 1.3991741057	-0.489061
C	 2.2780590763	-2.5393053199	 2.6828179591	-0.339087
C	 1.0080925156	-2.7507388884	 1.8751093179	-0.188907
H	 0.0665610178	 1.7409362237	-0.4168740203	 0.104699
H	-1.3627264006	 1.5755510043	 0.6393481381	 0.126581
H	 0.254331538	 1.8167326694	 1.354769375	 0.104604
H	 1.5808462769	-0.2098593708	-0.5094139273	 0.094498
H	 1.7831992881	-0.0921834907	 1.2512622339	 0.08764
H	 0.3963664349	-2.4129874608	-0.1906117412	 0.088348
H	 3.8587165601	-4.8749118921	 1.2310966117	 0.131762
H	 2.5635528246	-5.3690555861	 2.3331725251	 0.122809
H	 2.2886336428	-5.3728047678	 0.5760868047	 0.127626
H	 2.2798511834	-3.0495371822	 3.641316962	 0.111888
H	 2.8058477613	-1.5897998314	 2.6715070422	 0.11147
H	 0.0990270523	-3.1549894682	 2.2984778608	 0.099157
63.6045	91.4725	105.1707	198.0853	206.6615	238.2292	275.7247	303.0461	386.5253	401.6952	483.4148	555.9563	651.9291	735.0005	813.5065	857.6503	922.7549	961.7921	971.9824	978.2559	997.8466	1022.5522	1040.3159	1067.9085	1113.0019	1114.5825	1138.2687	1171.4123	1186.9475	1201.3271	1226.8973	1241.8276	1282.0435	1303.2483	1364.3381	1385.7237	1422.5415	1436.6103	1474.7809	1482.2225	1486.2591	1490.8431	1503.1556	1504.5699	1525.4063	2958.4954	2972.6109	2996.5044	3014.2377	3032.0423	3033.051	3095.715	3113.0485	3115.0907	3117.2412	3201.6681	3209.9418
COCC1OC2(C)CC12	COC[C@H]1O[C@@]2(C)C[C@@H]12	
InChI=1S/C7H12O2/c1-7-3-5(7)6(9-7)4-8-2/h5-6H,3-4H2,1-2H3	InChI=1S/C7H12O2/c1-7-3-5(7)6(9-7)4-8-2/h5-6H,3-4H2,1-2H3/t5-,6+,7-/m0/s1
