23
gdb 60275	3.43814	0.92581	0.80536	1.8362	82.4	-0.2446	0.0769	0.3215	1518.2024	0.204904	-425.4301	-425.42015	-425.419205	-425.466497	36.395	
C	-0.1636593804	 1.4574311645	 0.0176236476	-0.391535
C	 0.1087522752	-0.0501881573	-0.0034899739	 0.149577
C	 1.2203527549	-0.4161234304	-0.9811348739	-0.388936
O	 0.5132688319	-0.5556596063	 1.2646427731	-0.273888
C	-0.4848400176	-0.609053653	 2.2717499433	 0.092215
C	-0.2229235502	-1.825986955	 3.1818707366	-0.230451
C	 0.524912328	-1.2032561107	 4.3633613912	-0.079257
O	-0.1130255277	 0.0524310579	 4.5544263731	-0.252542
C	-0.3843556059	 0.5871538312	 3.266028574	-0.082962
H	 0.7338812319	 2.0053523415	 0.3223619515	 0.122587
H	-0.4570080329	 1.8036269678	-0.9788585772	 0.113142
H	-0.9740405642	 1.7122619794	 0.7071924798	 0.116379
H	-0.8181477561	-0.5672839615	-0.3066653296	 0.065058
H	 2.154668482	 0.0773879838	-0.6951026412	 0.122938
H	 1.389663917	-1.4959280265	-0.9791013072	 0.120255
H	 0.9608268905	-0.1030759096	-1.9967114043	 0.111903
H	-1.47522372	-0.6652583269	 1.8030486599	 0.070497
H	-1.1706364127	-2.2500587895	 3.5265628264	 0.104543
H	 0.3382033299	-2.5946518096	 2.6480726245	 0.110545
H	 0.4429593726	-1.7659165564	 5.2967009767	 0.10584
H	 1.5925828269	-1.0721950237	 4.1238147469	 0.096078
H	 0.4324272891	 1.2412500916	 2.9306214421	 0.097876
H	-1.3043013919	 1.1761807186	 3.3375905006	 0.10014
25.2966	52.8781	78.4183	196.3742	223.9141	242.9298	270.5492	307.772	348.4103	416.8954	482.6815	484.4924	627.1454	705.8434	815.6632	857.8816	866.9982	924.6131	926.3824	938.8201	946.2703	955.2134	1008.7359	1050.8928	1070.3849	1115.442	1135.5823	1153.9198	1178.1992	1198.5558	1204.9351	1233.104	1262.281	1292.4076	1322.0493	1346.6635	1359.3093	1369.2286	1392.8365	1397.6852	1411.8613	1426.8633	1472.2166	1480.8429	1485.4615	1496.2125	1500.5677	1509.8599	1519.3239	2949.791	2976.5542	3008.1836	3019.9332	3034.2917	3042.9123	3063.2193	3075.1562	3096.7407	3105.1467	3110.1759	3116.1705	3123.6564	3129.6018
CC(C)OC1CCOC1	CC(C)O[C@H]1CCOC1	
InChI=1S/C7H14O2/c1-6(2)9-7-3-4-8-5-7/h6-7H,3-5H2,1-2H3	InChI=1S/C7H14O2/c1-6(2)9-7-3-4-8-5-7/h6-7H,3-5H2,1-2H3/t7-/m0/s1
