20
gdb 90488	4.02918	1.12494	1.06247	1.1174	79.51	-0.2114	0.0769	0.2883	1225.1169	0.170365	-403.065309	-403.056848	-403.055904	-403.099345	32.225	
C	-0.0242799772	 1.3542624081	-0.2197673164	-0.400156
C	 0.0610226895	-0.1376606228	 0.0214003302	 0.141356
O	 1.1354903375	-0.7376421024	-0.7724726662	-0.301067
C	 1.8340443359	-1.1062324086	 0.4153995088	 0.045691
C	 0.736502356	-0.5689711928	 1.3243637893	-0.183821
C	 1.0323375535	-2.0467284138	 1.2797754556	 0.013472
N	 0.0715751506	-3.0301202429	 0.8403260049	-0.09922
C	 0.1966778923	-3.5673477555	-0.5214667777	-0.207933
C	 0.5886447725	-4.3886436463	 0.6487810246	-0.22488
H	 0.9287471019	 1.841021014	 0.0082263222	 0.121831
H	-0.2762492864	 1.5559851765	-1.2651984643	 0.126525
H	-0.8028483233	 1.795288001	 0.4127911625	 0.116366
H	-0.8957255533	-0.6298574941	-0.1894772107	 0.093529
H	 2.914592586	-1.0032809847	 0.4123713115	 0.096737
H	 0.7790073305	 0.0245764491	 2.2289472523	 0.093632
H	 1.5813789014	-2.3692687164	 2.163005507	 0.096402
H	-0.7467249291	-3.7499980606	-1.0283063161	 0.113636
H	 0.9850463199	-3.1717399605	-1.1516527673	 0.136861
H	 1.6537192321	-4.5528093336	 0.8044644081	 0.107647
H	-0.0533023704	-5.1858482538	 1.0130527916	 0.113391
25.1577	106.6658	178.1155	240.3813	271.2587	277.6424	343.9061	415.2535	579.5552	626.3621	738.1245	767.4289	781.4735	812.3075	836.7799	874.7912	892.358	922.8176	970.0952	1016.3866	1027.4901	1046.0895	1055.1343	1059.5428	1092.9542	1102.0124	1110.0189	1122.0017	1150.4367	1168.0635	1181.8492	1197.6865	1240.3394	1302.793	1320.6979	1333.3768	1385.1947	1406.0949	1426.3953	1484.6691	1491.9337	1493.3457	1520.1195	3033.7498	3040.7289	3094.8947	3105.6954	3117.3967	3122.6053	3124.9155	3157.7971	3180.45	3189.7747	3218.4016
CC1OC2C1C2N1CC1	C[C@H]1O[C@H]2[C@@H]1[C@H]2N1CC1	
InChI=1S/C7H11NO/c1-4-5-6(7(5)9-4)8-2-3-8/h4-7H,2-3H2,1H3	InChI=1S/C7H11NO/c1-4-5-6(7(5)9-4)8-2-3-8/h4-7H,2-3H2,1H3/t4-,5+,6-,7+/m1/s1
