14
gdb 133144	2.3322	1.85269	1.03914	3.7341	68.35	-0.2402	-0.0564	0.1838	1057.9314	0.10125	-478.012996	-478.005226	-478.004282	-478.045826	28.202	
C	-0.0042381922	 1.5311039498	 0.0040475946	-0.505438
C	-0.0083681242	 0.0277975917	 0.0108345996	 0.135592
C	-1.1397384823	-0.7064632454	-0.1404504797	 0.114168
F	-2.3245302579	-0.1364823215	-0.3054425503	-0.046212
C	-1.142888433	-2.1664205777	-0.1337361284	 0.33827
O	-2.1102774652	-2.8914263615	-0.262620953	-0.380514
N	 0.146284555	-2.67173699	 0.0452239269	-0.274514
N	 1.2987182967	-2.0035745838	 0.1997140437	-0.198222
C	 1.2126694807	-0.7062169012	 0.1815829692	-0.040863
H	 0.634264199	 1.9122634329	-0.8001343219	 0.147685
H	-1.0102441995	 1.9269536453	-0.1358391349	 0.15295
H	 0.3947147143	 1.9207880158	 0.9467360751	 0.147692
H	 0.2260757139	-3.6802391104	 0.0610822019	 0.279432
H	 2.1493212947	-0.1732905941	 0.3071922871	 0.129975
63.981	125.492	193.4522	278.586	291.8095	310.9826	482.9673	517.2423	534.2143	578.533	611.0715	680.4584	731.7808	774.0273	864.2529	903.0642	984.256	1060.48	1061.4297	1164.2715	1219.0087	1284.2915	1348.6121	1408.7553	1414.2238	1448.7186	1484.5739	1488.8095	1588.9192	1683.853	1791.0794	3040.9398	3094.133	3151.8354	3188.4082	3595.1387
CC1=C(F)C(=O)NN=C1	Cc1c(F)c(=O)[nH]nc1	
InChI=1S/C5H5FN2O/c1-3-2-7-8-5(9)4(3)6/h2H,1H3,(H,8,9)	InChI=1S/C5H5FN2O/c1-3-2-7-8-5(9)4(3)6/h2H,1H3,(H,8,9)
