20
gdb 31068	2.34448	1.33399	0.86404	1.4827	86.04	-0.1689	0.0486	0.2175	1373.0308	0.169585	-403.186055	-403.17581	-403.174866	-403.221839	36.201	
C	 0.0556658078	 1.40802013	-0.0610637603	-0.239712
O	 0.0350545459	-0.001626557	-0.0247287729	-0.273563
C	-1.202344448	-0.5789185511	 0.0034476696	 0.291136
C	-1.3755839903	-1.9461854555	 0.0369859664	 0.19009
C	-0.3723848278	-3.0472994625	 0.0494401366	-0.512781
N	-2.7433131815	-2.1557448382	 0.058598826	-0.354899
C	-3.4260120806	-0.967369713	 0.0396570923	 0.323693
C	-4.9175465899	-0.9065152304	 0.057016448	-0.503172
C	-2.4857784437	 0.042871787	 0.0048707661	-0.377308
H	 1.1061263038	 1.7058528696	-0.0814839838	 0.124206
H	-0.4458303667	 1.7990237893	-0.957502848	 0.114333
H	-0.4239725577	 1.8447358181	 0.8262032609	 0.11432
H	-0.4451791055	-3.67499429	 0.9477511479	 0.117721
H	-0.4634070475	-3.7118096934	-0.8203007565	 0.117806
H	 0.6299718696	-2.6137823557	 0.0300406758	 0.1483
H	-3.1751170165	-3.06317785	 0.0850325013	 0.2493
H	-5.3436392553	-1.3671018622	 0.9578562319	 0.12324
H	-5.24677347	 0.1349387468	 0.0349594023	 0.134685
H	-5.3659084368	-1.4115754573	-0.8084683526	 0.123177
H	-2.7053385691	 1.0983043755	-0.016770531	 0.089429
49.312	81.2874	103.8891	167.8269	186.2507	199.0386	238.6082	245.4155	335.141	353.8155	427.7746	530.3235	578.4992	621.8617	639.0392	680.0694	762.1805	801.2163	970.1992	1019.4481	1026.1986	1055.1056	1065.4666	1081.5833	1161.5018	1180.1336	1195.2828	1219.1326	1263.4003	1335.6075	1409.0312	1416.9938	1437.2199	1465.5994	1478.9943	1483.7885	1484.5624	1496.625	1503.3484	1510.0489	1515.4503	1560.811	1665.5042	2990.0766	3003.5168	3010.2824	3041.7917	3042.2801	3051.3744	3120.0906	3121.8448	3125.9686	3256.2178	3673.2685
COC1=C(C)NC(C)=C1	COc1c(C)[nH]c(C)c1	
InChI=1S/C7H11NO/c1-5-4-7(9-3)6(2)8-5/h4,8H,1-3H3	InChI=1S/C7H11NO/c1-5-4-7(9-3)6(2)8-5/h4,8H,1-3H3
