14
gdb 129677	3.23722	1.2901	0.92705	5.7968	71.38	-0.2254	-0.0303	0.1951	1174.2602	0.10137	-466.155097	-466.146797	-466.145853	-466.18852	29.753	
N	-0.2053521178	 1.4137151043	 0.0213792468	-0.614456
C	 0.0028493485	 0.0241904562	-0.0135635246	 0.079189
C	-0.9852365075	-0.9415324308	-0.0035099876	 0.537192
N	-2.3280156347	-0.6966711464	 0.0422127083	-0.388964
C	-3.3885685647	-1.5895207893	 0.0560731482	 0.07778
N	-3.2432556549	-2.8476326234	 0.0258373401	-0.415544
O	-0.4585862368	-2.1384881406	-0.044038253	-0.216746
N	 1.0340426243	-1.892298409	-0.0842538709	-0.046065
N	 1.188464826	-0.6561000055	-0.0635632472	-0.128628
H	 0.2167048864	 1.8461117913	 0.8370620154	 0.254427
H	 0.1669466251	 1.8798153488	-0.7999498562	 0.254423
H	-2.5372757094	 0.2915431351	 0.068878452	 0.27067
H	-4.3401041728	-1.0467222303	 0.0960597366	 0.102539
H	-4.1508262419	-3.3075364503	 0.043912562	 0.234184
54.9286	138.0502	169.0364	242.2396	249.0324	278.4641	342.8497	407.6575	486.2399	603.075	612.7298	677.4041	712.5093	745.0134	810.7233	820.6945	878.2611	973.6931	1051.9929	1072.4559	1204.5501	1220.4664	1226.8478	1293.4992	1416.1531	1478.9563	1506.1498	1522.9888	1643.2588	1678.9101	1738.5975	3053.0125	3499.1009	3517.013	3563.7767	3605.736
NC1=C(NC=N)ON=N1	Nc1c(NC=N)onn1	
InChI=1S/C3H5N5O/c4-1-6-3-2(5)7-8-9-3/h1H,5H2,(H2,4,6)	InChI=1S/C3H5N5O/c4-1-6-3-2(5)7-8-9-3/h1H,5H2,(H2,4,6)
