15
gdb 17651	3.81975	1.48629	1.22378	5.3525	56.89	-0.2549	0.0134	0.2684	969.3476	0.119203	-436.941748	-436.934106	-436.933162	-436.974185	27.842	
N	 0.0839518493	 1.0311260859	-0.033209416	-0.54415
H	-1.4477925487	-0.0463779649	-0.2655033696	 0.308924
H	 1.0388670911	 0.7700545768	 0.1787456335	 0.249429
H	 0.1015126115	 1.7776360699	-0.7254748665	 0.26191
C	-0.6384795186	 1.5053232911	 1.149787343	-0.178118
C	-0.6551709022	 3.0223172019	 1.3055843576	 0.097219
C	 0.5354300014	 3.8427658845	 1.0752159554	-0.194222
O	-0.504574229	 3.7625278126	 0.0901466253	-0.2328
C	-2.093584962	 0.9714647645	 1.1328426401	 0.437865
O	-2.304158433	 0.0280533972	 0.2145609873	-0.364419
O	-2.9327252068	 1.3611477517	 1.9008869298	-0.343605
H	-0.189685514	 1.0716572935	 2.0515405859	 0.128573
H	-1.4352768635	 3.3853447189	 1.970285265	 0.135468
H	 0.6317488153	 4.8063654045	 1.5710893362	 0.13177
H	 1.4744424992	 3.3686676219	 0.7927379931	 0.106156
80.4616	92.1841	193.4205	274.0783	325.3626	360.9734	382.6783	520.7233	545.3303	628.0893	738.7612	799.1803	851.4694	868.4055	892.8145	921.0661	994.2508	1025.5541	1093.8903	1125.3402	1159.7614	1178.4955	1202.903	1229.8489	1266.8735	1285.9633	1391.0982	1413.9842	1433.8051	1523.6494	1653.0229	1867.3134	3048.603	3090.1861	3155.5284	3179.7789	3446.9789	3487.2367	3595.0745
[NH3+]C(C1CO1)C([O-])=O	N[C@@H]([C@H]1CO1)C(=O)O	
InChI=1S/C4H7NO3/c5-3(4(6)7)2-1-8-2/h2-3H,1,5H2,(H,6,7)	InChI=1S/C4H7NO3/c5-3(4(6)7)2-1-8-2/h2-3H,1,5H2,(H,6,7)/t2-,3+/m1/s1
