20
gdb 97066	2.46078	1.38613	1.07647	2.1558	77.68	-0.2542	0.0234	0.2775	1210.0422	0.170725	-440.306059	-440.296622	-440.295677	-440.340406	34.523	
C	-0.5155139019	 1.1416613757	 0.2970305512	-0.334716
N	-0.0564841862	-0.2326927496	 0.1764162589	-0.358676
C	 0.6829087177	-0.7374881877	 1.0619190454	 0.421435
O	 1.1366478608	-0.1429167965	 2.1958296577	-0.250863
C	 1.7842649621	-1.1392039032	 3.0253412844	-0.098199
C	 1.2879849602	-2.5050268097	 2.5161818061	-0.053554
C	-0.036998688	-2.9332401727	 3.1515968119	-0.394646
C	 1.144621108	-2.1805043876	 1.0132527471	 0.044803
O	 0.264741384	-2.9937104421	 0.2915092086	-0.43727
H	 0.0307807012	 1.7751928398	-0.41198688	 0.129161
H	-1.5734404202	 1.1907856332	 0.0205324465	 0.124959
H	-0.3879247147	 1.5604015911	 1.301797377	 0.125348
H	 2.8694211141	-1.0252720211	 2.9188936341	 0.114394
H	 1.5075273805	-0.9317718621	 4.0615522466	 0.12263
H	 2.0480454424	-3.272558378	 2.6854359463	 0.085477
H	-0.7950259114	-2.147989919	 3.0601476865	 0.126537
H	-0.4254867802	-3.8250309495	 2.6561584421	 0.141606
H	 0.0978254012	-3.15050112	 4.2156749609	 0.110337
H	 2.1499086627	-2.199539591	 0.5557593897	 0.089831
H	-0.2673392325	-2.3772048999	-0.237000231	 0.291404
80.6893	85.1951	163.5433	190.011	211.3099	223.6431	260.0291	320.047	360.0667	434.1558	537.3171	563.6848	584.4996	707.7609	744.5199	818.7039	856.3599	911.4071	960.0909	997.4412	1061.4191	1080.6397	1093.1593	1132.0279	1151.8749	1161.1798	1174.3805	1223.5937	1238.0837	1242.5613	1299.5954	1359.0206	1383.1374	1394.5892	1419.7088	1431.3716	1449.6879	1493.4824	1493.9822	1498.6229	1500.9449	1519.1504	1808.8002	2942.7803	3018.0925	3036.6061	3041.3303	3072.5695	3078.2748	3094.7713	3106.3758	3106.6175	3136.0113	3684.768
CN=C1OCC(C)C1O	CN=C1OC[C@@H](C)[C@H]1O	
InChI=1S/C6H11NO2/c1-4-3-9-6(7-2)5(4)8/h4-5,8H,3H2,1-2H3	InChI=1S/C6H11NO2/c1-4-3-9-6(7-2)5(4)8/h4-5,8H,3H2,1-2H3/t4-,5-/m1/s1
