19
gdb 30219	3.36997	1.3186	1.02159	1.5205	84.75	-0.171	0.0571	0.228	1198.4547	0.161034	-382.071308	-382.06268	-382.061736	-382.104882	32.402	
C	-0.0876795922	 1.6083886624	 0.1176099871	-0.393717
C	-0.0168891997	 0.0889558281	 0.011104699	-0.142399
C	 0.6876228834	-0.4960049857	-1.2807780328	-0.190615
N	 1.6198030924	-1.1755765093	-0.3683972039	-0.009817
C	 1.0958431123	-0.625253759	 0.7722055462	 0.311667
C	 1.9558862658	-0.860854678	 1.8147898132	-0.326362
C	 3.037759075	-1.6182606423	 1.2435092026	-0.195675
C	 2.8242961709	-1.7704719095	-0.1200528782	 0.216776
N	 3.6009733165	-2.3361449578	-1.1504359796	-0.605385
H	 0.8928722228	 2.0611693192	-0.0598866321	 0.124106
H	-0.7977728677	 2.022509568	-0.6065732978	 0.113225
H	-0.417507139	 1.9081340446	 1.1174514098	 0.124501
H	-1.0126068131	-0.3427466796	 0.1642623456	 0.086118
H	 0.0924447003	-1.1699862692	-1.9041717097	 0.113256
H	 1.167315858	 0.2606828526	-1.909429287	 0.124544
H	 1.8573265333	-0.5659670532	 2.8477823018	 0.088536
H	 3.8722846336	-2.0394640649	 1.7858259597	 0.076598
H	 4.509776339	-2.607614524	-0.7955623756	 0.244033
H	 3.1668936685	-3.1623850424	-1.5523728282	 0.24061
57.9716	107.5285	154.231	209.7755	250.1151	276.8158	333.4275	431.6994	549.8489	622.1717	638.6069	669.9255	705.9196	735.7904	768.8284	782.3876	834.9779	870.1716	914.6054	956.8427	1027.9361	1074.9887	1101.2032	1112.308	1132.831	1172.7475	1212.9293	1234.1723	1245.3283	1267.8768	1307.0614	1355.7814	1401.162	1412.6752	1467.2275	1493.7048	1496.0598	1515.8399	1561.665	1591.5154	1649.0213	3031.0157	3032.8904	3044.1504	3095.8862	3099.727	3109.2215	3229.0318	3253.2835	3487.9496	3597.0956
CC1CN2C1=CC=C2N	C[C@H]1Cn2c1ccc2N	
InChI=1S/C7H10N2/c1-5-4-9-6(5)2-3-7(9)8/h2-3,5H,4,8H2,1H3	InChI=1S/C7H10N2/c1-5-4-9-6(5)2-3-7(9)8/h2-3,5H,4,8H2,1H3/t5-/m0/s1
