19
gdb 73997	2.88639	2.1331	1.6144	1.2669	85.04	-0.1872	-0.0106	0.1766	896.8762	0.160491	-348.660581	-348.653794	-348.65285	-348.691299	28.772	
C	 0.3111693065	 1.2441230989	-0.1149602491	-0.472614
C	-0.3186000589	-0.1120376615	-0.0579071793	 0.259662
C	-0.547526498	-0.9178750756	-1.1306039553	-0.081725
C	 0.7463758493	-1.2712594885	-1.8974730011	-0.275188
C	 0.789499153	-2.4287836044	-0.8191531015	-0.02018
C	 0.8445255221	-2.1384310195	 0.7213048259	-0.107915
C	-0.6460828894	-2.3765052255	 0.8690219387	-0.090929
C	-0.1570746729	-0.9806752279	 1.1235314893	-0.119776
C	-0.7556515104	-2.3748452112	-0.662081378	-0.064861
H	 1.3257061373	 1.2354688906	 0.3081397042	 0.12001
H	 0.3623557657	 1.6161824911	-1.1416576673	 0.125527
H	-0.2638957589	 1.972066969	 0.4713132384	 0.125678
H	 0.6317358744	-1.7082780488	-2.8961821807	 0.098522
H	 1.532841292	-0.5132468817	-1.915610613	 0.101048
H	 1.2854781332	-3.3657577611	-1.086360501	 0.077429
H	 1.650357053	-2.3986156971	 1.3946325943	 0.089891
H	-1.1955904052	-2.9686614514	 1.5880926736	 0.087721
H	-0.06565045	-0.6197396435	 2.1432198295	 0.081093
H	-1.422816873	-3.0305253818	-1.2175356377	 0.066607
138.8493	203.1866	263.5475	367.219	489.2914	571.5027	590.0146	637.0478	671.2506	722.3464	760.0492	784.1379	817.846	852.0775	885.6494	888.6448	921.1497	937.6448	952.134	972.148	1003.3439	1016.0231	1037.4781	1052.871	1066.0825	1074.8743	1107.11	1124.7222	1178.8793	1195.9505	1203.8659	1229.5316	1249.8239	1273.5829	1315.9374	1365.8009	1402.1057	1470.5257	1486.265	1493.6422	1596.0662	3004.3803	3031.8482	3054.5557	3075.7035	3102.4401	3110.4911	3130.1836	3160.6085	3197.4112	3209.6594
CC1=C2CC3C4C(C14)C23	C[C]1[C]2C[C@H]3[C@@H]4[C@@H]([C@H]14)[C@@H]23	
InChI=1S/C9H10/c1-3-4-2-5-7(4)9-6(3)8(5)9/h5-9H,2H2,1H3	InChI=1S/C9H10/c1-3-4-2-5-7(4)9-6(3)8(5)9/h5-9H,2H2,1H3/t5-,6-,7+,8+,9+/m1/s1
