19
gdb 92921	2.42922	1.43477	1.05508	1.2432	82.98	-0.2499	0.0131	0.2631	1195.4945	0.15847	-385.864063	-385.855317	-385.854373	-385.897308	33.655	
C	 0.0221637253	 1.5500708637	 0.0370946053	-0.406383
C	 0.0335425282	 0.0336910901	-0.0661687154	 0.133983
C	 0.8159712021	-0.4918458269	-1.2748383537	-0.254854
C	 1.0756002441	-1.9678353287	-1.137421813	-0.080478
C	 0.925827441	-2.6038826525	 0.019784103	-0.056849
C	 0.536361951	-1.8673643086	 1.284850324	-0.11529
O	 0.6226885474	-0.4579594509	 1.1411206001	-0.259278
C	-0.794280317	-2.2951716038	 1.753406313	 0.349678
C	-1.8797502667	-2.6471625228	 2.1318007366	-0.487346
H	 1.0416928421	 1.9313640782	 0.1525145322	 0.123433
H	-0.4141427108	 1.9916734508	-0.8641109623	 0.113599
H	-0.5639363197	 1.8700904535	 0.9023723754	 0.126015
H	-1.0006409364	-0.3394103672	-0.1293746976	 0.080091
H	 0.2507007113	-0.2916760984	-2.1939443919	 0.106086
H	 1.7655335808	 0.0537015383	-1.3739247076	 0.111498
H	 1.3900702122	-2.513739991	-2.0231044918	 0.094231
H	 1.0768250715	-3.6745322277	 0.1145470123	 0.103834
H	 1.2642867594	-2.1099325604	 2.0710840447	 0.119353
H	-2.8373063858	-2.9564906456	 2.4715188966	 0.198677
90.0786	110.3359	181.0412	219.3679	259.7864	308.6983	362.1996	448.0521	463.5974	478.0593	544.8952	616.7351	622.9435	676.0785	716.2814	792.0296	836.5974	903.3582	924.547	941.7072	983.1494	994.1237	1013.7907	1077.2275	1101.5956	1131.0317	1158.8576	1209.9694	1236.577	1293.1819	1325.7029	1355.4657	1380.1813	1396.2048	1404.5603	1416.2198	1467.2171	1483.7664	1500.5526	1727.2184	2227.2869	2983.3395	3007.7723	3015.1736	3041.8722	3048.7388	3114.2818	3123.5486	3156.1674	3186.6345	3502.4417
CC1CC=CC(O1)C#C	C[C@H]1CC=C[C@@H](O1)C#C	
InChI=1S/C8H10O/c1-3-8-6-4-5-7(2)9-8/h1,4,6-8H,5H2,2H3	InChI=1S/C8H10O/c1-3-8-6-4-5-7(2)9-8/h1,4,6-8H,5H2,2H3/t7-,8-/m0/s1
