16
gdb 45074	2.53033	1.67326	1.15028	1.716	73.9	-0.2333	-0.0332	0.2001	1048.0343	0.123574	-400.705882	-400.698027	-400.697083	-400.738607	30.01	
O	 0.0083371667	 0.0123202878	-0.341490561	-0.285394
C	-0.0262359581	 1.1667046998	-0.0278318402	 0.368518
C	-1.2739085067	 1.9938710916	 0.3102122952	-0.274961
N	-0.8465599609	 3.2604442186	 0.9048670334	-0.103004
C	-0.0309888907	 3.0806509977	 2.1154900262	-0.246163
C	 0.6347275484	 3.3336166818	 0.8163518477	-0.02718
C	 1.2012412359	 2.1275026001	 0.07859469	-0.320299
C	 2.3707101035	 1.5129614026	 0.6788497054	 0.346097
C	 3.3315833861	 1.0039023005	 1.1894182316	-0.446526
H	-1.8230722743	 2.1910905315	-0.6194331521	 0.141446
H	-1.9398493032	 1.4313254458	 0.9710883767	 0.14462
H	-0.1181359221	 3.8781551495	 2.8464482657	 0.127892
H	 0.0551569408	 2.0819739306	 2.5421097192	 0.126162
H	 1.0520002145	 4.3097330588	 0.5926841476	 0.10886
H	 1.4340520274	 2.4167300957	-0.9575856015	 0.138255
H	 4.1826727527	 0.5510318375	 1.6345756461	 0.201676
59.8517	128.5096	152.7329	312.7323	382.9606	388.9982	453.0635	496.0191	566.2415	623.8322	633.4189	643.5494	657.9315	739.9648	785.4307	849.4873	935.7481	959.6434	985.9071	1025.3136	1071.3334	1097.6317	1115.9891	1134.8056	1161.4101	1203.2561	1239.0503	1277.6982	1299.4025	1314.9695	1385.0934	1457.2794	1510.0073	1866.009	2242.4893	2998.1764	3033.3017	3094.0596	3098.0764	3162.5337	3194.258	3504.5149
O=C1CN2CC2C1C#C	O=C1CN2C[C@H]2[C@H]1C#C	
InChI=1S/C7H7NO/c1-2-5-6-3-8(6)4-7(5)9/h1,5-6H,3-4H2	InChI=1S/C7H7NO/c1-2-5-6-3-8(6)4-7(5)9/h1,5-6H,3-4H2/t5-,6+,8?/m1/s1
