20
gdb 82501	3.37018	1.44969	1.40235	0.9239	78.46	-0.2118	0.0786	0.2904	1040.958	0.171329	-403.090987	-403.083286	-403.082342	-403.122566	31.423	
C	-0.0120802431	 1.4871357368	-0.1478007638	-0.326471
N	-0.0110930976	 0.0316546554	-0.0400754201	-0.102304
C	-1.2310961309	-0.5305854047	 0.642708236	-0.068977
C	-0.9486558931	-2.0298138538	 0.4706660557	-0.236049
C	 0.3080828634	-1.9794783997	 1.371750994	 0.409284
C	 1.2857715269	-3.1148876628	 1.427836337	-0.509134
O	-0.3132561238	-1.6367235335	 2.6587874972	-0.329149
C	-0.5289333464	-0.349902695	 2.0849427465	 0.09519
C	 0.699450127	-0.447653204	 1.1666892632	-0.096122
H	 0.978778991	 1.8254010538	-0.4686726397	 0.119947
H	-0.7326006352	 1.7891806428	-0.9145339175	 0.120197
H	-0.2641452367	 2.0212979408	 0.7853905634	 0.095356
H	-2.1996618844	-0.1149372184	 0.3685415812	 0.07067
H	-1.6959351629	-2.6969819457	 0.9048023844	 0.101857
H	-0.7571578663	-2.2753524221	-0.574825545	 0.10622
H	 1.7444992626	-3.264200887	 0.4454823754	 0.128662
H	 2.0764693841	-2.9145219104	 2.1564977908	 0.12682
H	 0.7816230633	-4.0436038055	 1.7152500106	 0.130617
H	-0.8169238803	 0.4326309099	 2.7840754674	 0.088549
H	 1.7135270622	-0.111074017	 1.3820275932	 0.074836
177.4709	204.8418	228.3699	235.654	288.7343	333.8525	450.3716	501.1533	538.2378	625.1559	685.6841	741.3121	779.6701	811.2224	842.9978	849.648	886.8475	938.9611	944.3872	986.1534	1004.3954	1026.7569	1045.7907	1107.495	1118.4825	1153.0776	1160.7501	1172.2314	1183.5458	1190.7674	1216.6925	1247.5039	1272.772	1292.7189	1320.0231	1358.3884	1414.484	1454.743	1464.3847	1479.6223	1492.4561	1494.181	1500.6499	2948.4155	3037.4499	3059.7551	3078.2373	3099.4205	3107.4455	3116.0569	3120.3361	3129.6524	3142.5487	3142.6892
CN1C2CC3(C)OC2C13	CN1[C@H]2C[C@]3(C)O[C@H]2[C@H]13	
InChI=1S/C7H11NO/c1-7-3-4-5(9-7)6(7)8(4)2/h4-6H,3H2,1-2H3	InChI=1S/C7H11NO/c1-7-3-4-5(9-7)6(7)8(4)2/h4-6H,3H2,1-2H3/t4-,5+,6-,7-/m0/s1
