19
gdb 81960	2.09538	1.93647	1.31862	2.2764	69.4	-0.2596	0.0536	0.3132	1022.9437	0.159491	-460.146642	-460.138187	-460.137243	-460.179662	32.911	
C	 0.0555156334	 1.6237467182	 0.0178842958	-0.380396
C	 0.0681933888	 0.0994437058	 0.0088929121	-0.05825
C	 0.7849999667	-0.5431542072	-1.2222629498	 0.089332
O	 1.8184868578	 0.2373059224	-1.7938129187	-0.427481
C	 1.3274589814	-1.8659450232	-0.679145039	 0.001776
O	 2.5108204366	-1.6307891647	 0.1129005099	-0.276177
C	 1.2584810268	-1.8751686184	 0.7873652493	 0.001776
C	 0.6666582945	-0.5589787423	 1.2937285731	 0.089332
O	 1.6414741233	 0.2136389571	 1.9695090984	-0.427482
H	 1.0688399499	 2.0250033293	 0.0679961541	 0.121563
H	-0.4145139638	 2.0130471225	-0.890246443	 0.113602
H	-0.497785292	 2.0018968441	 0.8827794431	 0.113605
H	-0.9666326291	-0.2660211698	-0.0420808397	 0.075907
H	 0.0666831463	-0.7151772418	-2.0296779853	 0.087213
H	 2.5940939496	 0.1161853271	-1.2318213951	 0.286585
H	 1.3600719859	-2.7668059456	-1.2853524334	 0.107649
H	 1.2345831948	-2.7835858377	 1.382603378	 0.107648
H	-0.1241702652	-0.7406989133	 2.0279344302	 0.087213
H	 2.4664774242	 0.0991266074	 1.48132125	 0.286584
55.1825	174.3106	209.1493	244.4543	254.9723	311.2861	398.1774	455.4913	470.9723	491.5464	569.5891	598.5184	686.2089	723.6751	795.9481	840.5458	879.9137	888.6197	921.2318	985.2909	1000.2378	1033.0992	1072.2414	1118.3514	1122.2543	1138.1836	1169.0257	1245.4358	1249.1354	1267.7899	1269.8843	1315.7948	1328.6902	1350.8612	1361.9955	1411.9489	1428.3282	1434.9868	1447.9875	1488.2129	1491.773	3007.4181	3047.6677	3063.7365	3067.9531	3111.1363	3138.3198	3152.3424	3164.8244	3773.9613	3779.6791
CC1C(O)C2OC2C1O	C[C@H]1[C@@H](O)[C@H]2O[C@H]2[C@H]1O	
InChI=1S/C6H10O3/c1-2-3(7)5-6(9-5)4(2)8/h2-8H,1H3	InChI=1S/C6H10O3/c1-2-3(7)5-6(9-5)4(2)8/h2-8H,1H3/t2-,3+,4-,5+,6-
