18
gdb 74295	3.01415	1.11106	1.03972	4.4009	79.67	-0.26	-0.0115	0.2485	1242.2627	0.146753	-401.980744	-401.971626	-401.970682	-402.014558	33.766	
C	-0.0222913612	 1.5359679934	 0.0675867297	-0.49147
C	 0.0069918542	 0.042264566	 0.0223732029	 0.324555
C	-0.3347115556	-0.7383602906	-1.0052511815	-0.224646
C	-0.0794564157	-2.2042659591	-0.7196287591	 0.220055
O	 1.1244046163	-2.6804337771	-1.3275452612	-0.448671
C	 0.1299066483	-2.2284420558	 0.8170734191	-0.246089
C	 0.4942619489	-0.7772680186	 1.1973512451	-0.310129
C	-1.2060571129	-3.0611770717	-1.1519720147	 0.23284
N	-2.0832213955	-3.7195983913	-1.5174592533	-0.345342
H	 0.9774903431	 1.9388063901	 0.2723124636	 0.135414
H	-0.3792803616	 1.9655403537	-0.8715600063	 0.131061
H	-0.6717633909	 1.8893774635	 0.8778047863	 0.135361
H	-0.6974448703	-0.3997930767	-1.9694614152	 0.104363
H	 1.0666385831	-2.5215578991	-2.2767991353	 0.286327
H	-0.7997563211	-2.5260281585	 1.3066382968	 0.129409
H	 0.8973545959	-2.9619698521	 1.0691017057	 0.131331
H	 1.5756640058	-0.642192876	 1.3297999944	 0.123158
H	 0.0277881692	-0.4683942102	 2.1396403631	 0.112473
76.1986	125.8751	164.3909	182.0682	202.0387	277.9223	313.6391	388.6612	403.1136	481.627	497.4696	556.3985	603.7631	623.2123	780.3657	828.9782	867.5817	889.5347	958.644	984.0658	1014.1277	1028.8016	1052.2944	1104.1673	1110.3519	1188.1841	1204.2499	1256.1607	1290.8313	1320.9447	1345.0213	1373.2953	1415.1759	1472.7357	1478.836	1485.0573	1490.8406	1713.7136	2348.5146	3022.565	3027.8317	3060.5975	3072.5658	3083.5388	3119.8489	3135.0797	3195.0384	3801.1883
CC1=CC(O)(CC1)C#N	CC1=C[C@@](O)(CC1)C#N	
InChI=1S/C7H9NO/c1-6-2-3-7(9,4-6)5-8/h4,9H,2-3H2,1H3	InChI=1S/C7H9NO/c1-6-2-3-7(9,4-6)5-8/h4,9H,2-3H2,1H3/t7-/m0/s1
