23
gdb 88960	3.24239	0.88572	0.84059	1.4362	85.81	-0.2496	0.0748	0.3244	1519.8622	0.20422	-388.263965	-388.253974	-388.25303	-388.299355	38.077	
C	 0.1228288493	 1.4817006636	-0.1836840433	-0.402447
C	 0.1154700056	-0.0168888145	 0.0282726516	-0.007615
C	 1.4028082344	-0.8030895632	 0.0960085846	-0.292809
C	 0.5313080571	-0.673414722	 1.3267884872	-0.005624
C	 0.9837905895	 0.1021894872	 2.5498930069	-0.282012
C	 1.8950262035	-0.7040883942	 3.4619868251	 0.438596
O	 1.3451045211	-1.9214740962	 3.905020642	-0.473015
C	 3.393697457	-0.6540739282	 3.2879065511	-0.315021
C	 2.72925588	-0.0074025656	 4.4905868769	-0.306005
H	 0.9856459097	 1.9600718252	 0.2885537786	 0.11495
H	 0.1662333546	 1.7184992286	-1.2525445028	 0.116211
H	-0.7806637462	 1.9497431507	 0.2232501778	 0.116948
H	-0.7042960712	-0.5179763002	-0.4811339789	 0.081692
H	 1.4668077827	-1.7604065578	-0.4104767929	 0.104562
H	 2.3291394646	-0.2362578278	 0.081925927	 0.107525
H	-0.048662126	-1.5576507814	 1.5812972791	 0.079849
H	 1.5059895158	 1.0181813137	 2.2554702024	 0.090684
H	 0.102309179	 0.4116210358	 3.1274779869	 0.103254
H	 1.3687723764	-2.5359993489	 3.1634913684	 0.282791
H	 3.941852877	-1.5732643196	 3.4624128236	 0.110634
H	 3.812558392	-0.0124838077	 2.5201732036	 0.106891
H	 2.6907634713	 1.0755024726	 4.5424755178	 0.108743
H	 2.8367590929	-0.5077429099	 5.4458324173	 0.121217
36.1733	86.0246	119.9259	183.6976	213.5722	277.0859	315.4918	333.4276	356.5282	410.9245	421.0881	478.5532	509.1922	739.9658	758.5448	779.1353	823.0033	858.6893	872.1185	914.6723	924.5139	925.5597	940.9549	978.9825	1008.8986	1043.6296	1051.7752	1070.9161	1077.3406	1111.8471	1130.4388	1156.1904	1188.0515	1200.4989	1223.8848	1247.9509	1287.7305	1304.7251	1332.9112	1374.5641	1399.7934	1417.0517	1430.4654	1452.8882	1469.0154	1491.5258	1493.8033	1500.5043	1505.8656	3017.407	3029.3704	3074.3121	3086.9512	3102.3398	3121.8194	3123.1029	3131.3544	3136.1948	3136.8164	3204.5721	3215.9515	3231.0093	3801.0603
CC1CC1CC1(O)CC1	C[C@H]1C[C@H]1CC1(O)CC1	
InChI=1S/C8H14O/c1-6-4-7(6)5-8(9)2-3-8/h6-7,9H,2-5H2,1H3	InChI=1S/C8H14O/c1-6-4-7(6)5-8(9)2-3-8/h6-7,9H,2-5H2,1H3/t6-,7-/m0/s1
