18
gdb 94214	3.30607	1.0621	0.98319	6.0362	72.23	-0.2624	0.0281	0.2905	1243.9389	0.14547	-439.080416	-439.070856	-439.069912	-439.115208	34.297	
C	-0.1064600831	 1.6024013293	 0.1383513557	-0.433351
C	-0.0021092897	 0.0865731426	 0.0766116892	 0.390455
C	-1.3413103902	-0.5923992364	-0.2682926353	-0.386548
C	-1.9218583206	-0.1270037805	-1.5259176764	 0.27662
N	-2.3844275916	 0.2469690228	-2.5164057841	-0.311633
O	 1.0338662964	-0.344679537	-0.8438412134	-0.315479
C	 1.8865096528	-0.7870142212	 0.2323101854	-0.107573
C	 0.7523975855	-0.5789080548	 1.260243954	 0.007375
O	 0.974502636	 0.2765196973	 2.3497966068	-0.419757
H	 0.8568413888	 2.0401346082	 0.4043247916	 0.134523
H	-0.4158364862	 1.9895885156	-0.8361029541	 0.148859
H	-0.8378352874	 1.9125144207	 0.8906743588	 0.125367
H	-1.1889752962	-1.6745109763	-0.3359473562	 0.150056
H	-2.0585736209	-0.4082149688	 0.5405124112	 0.154469
H	 2.2496621877	-1.8088412288	 0.0770955286	 0.106209
H	 2.7364749852	-0.1121393526	 0.3947792715	 0.108531
H	 0.2859229918	-1.5208351889	 1.5778410175	 0.077192
H	 1.3849118517	-0.2253692014	 3.0604201091	 0.294686
54.9189	82.1511	128.8651	204.7245	213.2265	245.1559	272.9167	334.3552	387.0178	396.4598	430.6746	473.5612	578.3999	694.3622	787.6237	862.8277	898.7276	929.6944	946.1205	979.5714	1017.6491	1061.8583	1112.8073	1141.4626	1163.1401	1177.8849	1204.2691	1248.7505	1289.9337	1306.5577	1329.76	1346.3068	1412.9817	1444.2317	1450.3896	1486.6801	1491.1864	1515.8535	2363.5846	3010.7575	3018.4301	3042.8247	3052.6925	3074.069	3089.5272	3124.6885	3144.906	3829.5062
CC1(CC#N)OCC1O	C[C@@]1(CC#N)OC[C@H]1O	
InChI=1S/C6H9NO2/c1-6(2-3-7)5(8)4-9-6/h5,8H,2,4H2,1H3	InChI=1S/C6H9NO2/c1-6(2-3-7)5(8)4-9-6/h5,8H,2,4H2,1H3/t5-,6+/m1/s1
