18
gdb 50384	3.70302	1.18972	1.05044	3.6048	73.44	-0.2464	0.02	0.2664	1155.7961	0.149479	-439.101126	-439.093393	-439.092449	-439.134171	28.79	
O	 0.0620585128	-0.0747913428	 0.6203710455	-0.32775
C	 0.0514941459	 1.1327122754	 0.4996694029	 0.126591
N	 1.0319267029	 1.8535946604	-0.0922210151	-0.045992
C	 2.3741535594	 1.4292075753	-0.4998056368	-0.202599
C	 2.7642080578	 2.9358424984	-0.6154121701	 0.090927
O	 2.8984002797	 3.4546745713	-1.9153200894	-0.255007
C	 1.5913412029	 3.6479749098	-2.459784452	-0.092814
C	 0.7167611097	 4.0835574144	-1.2722476218	-0.234107
C	 1.3248890741	 3.2938935334	-0.1095579203	-0.032224
H	-0.7776551343	 1.7776590691	 0.8590414622	 0.066428
H	 2.9011674047	 0.8651002016	 0.2763778576	 0.125892
H	 2.4105075178	 0.8702699192	-1.4395644689	 0.128823
H	 3.6252478916	 3.2495155164	-0.0257421651	 0.098961
H	 1.6709404457	 4.3967400516	-3.2507941747	 0.119111
H	 1.212018638	 2.7154901362	-2.9018649584	 0.108955
H	 0.834454213	 5.155138081	-1.081957632	 0.115408
H	-0.34419712	 3.870799714	-1.4216621411	 0.116673
H	 1.2250394584	 3.7832902953	 0.8625817175	 0.092723
47.8212	129.8018	180.1961	217.6839	313.6734	345.1071	424.8017	532.6204	634.036	680.1465	785.2092	823.5768	868.2385	878.0725	906.0268	958.4202	976.2193	1019.6071	1028.2351	1036.3484	1082.853	1122.1834	1144.7173	1176.2497	1201.7699	1232.6812	1239.7745	1259.6776	1297.7671	1310.6534	1338.6354	1355.4939	1393.362	1401.1734	1441.1688	1472.5303	1503.7548	1518.7774	1792.2263	2914.3491	3004.0786	3046.4623	3056.525	3078.4216	3096.1488	3106.4437	3118.9112	3121.2665
O=CN1CC2OCCC12	O=CN1C[C@H]2OCC[C@@H]12	
InChI=1S/C6H9NO2/c8-4-7-3-6-5(7)1-2-9-6/h4-6H,1-3H2	InChI=1S/C6H9NO2/c8-4-7-3-6-5(7)1-2-9-6/h4-6H,1-3H2/t5-,6-/m1/s1
