18
gdb 76959	2.22161	1.22582	1.03338	5.3887	74.8	-0.2344	-0.0197	0.2147	1241.909	0.146007	-439.120835	-439.110999	-439.110055	-439.15614	34.897	
C	-0.2984838655	 1.4822762181	 0.0533366213	-0.426349
C	 0.033292591	 0.0052185335	 0.0989513302	-0.031271
C	 1.4005438673	-0.5581948127	-0.2433753454	-0.135874
C	 2.5482509867	 0.3069673707	-0.6382038455	 0.14673
O	 3.3413348772	-0.0419034059	-1.4823935217	-0.27738
C	 0.8604447581	-0.6301104867	 1.1956574938	-0.156161
C	 1.4689502471	 0.1846666439	 2.2985661399	 0.429795
N	 1.4265548097	-0.4181416819	 3.5220787439	-0.53207
O	 1.950010918	 1.2968950597	 2.1508073509	-0.377291
H	 0.4783224354	 2.0909727195	 0.5145528287	 0.166816
H	-0.4415320782	 1.807256191	-0.9822812876	 0.123795
H	-1.2333722952	 1.6685437068	 0.5922511052	 0.120169
H	-0.779611186	-0.6316124569	-0.2407553493	 0.104428
H	 1.4168663308	-1.5068211075	-0.7705867161	 0.108955
H	 2.6342247101	 1.2786786582	-0.12445062	 0.119687
H	 0.5516376679	-1.6280464472	 1.492017297	 0.088194
H	 1.0875736249	-1.3531937492	 3.6593913187	 0.262355
H	 1.8463823409	 0.0655888164	 4.298895036	 0.265472
53.0197	75.9791	137.9306	153.3108	206.76	219.9139	228.2452	315.4721	357.6207	408.8767	451.3335	500.4389	593.6615	655.5168	741.0562	788.1434	805.6089	884.0935	935.2871	973.8001	1013.7444	1055.1857	1070.9538	1103.9845	1132.6821	1152.7571	1184.161	1246.8242	1289.6953	1338.6326	1397.6352	1418.3728	1439.2954	1452.0756	1499.1362	1511.8438	1617.8351	1770.8096	1798.6555	3005.3419	3042.3363	3097.7665	3132.6067	3146.528	3162.0035	3169.0836	3607.9301	3745.7936
CC1C(C=O)C1C(N)=O	C[C@H]1[C@@H](C=O)[C@H]1C(=O)N	
InChI=1S/C6H9NO2/c1-3-4(2-8)5(3)6(7)9/h2-5H,1H3,(H2,7,9)	InChI=1S/C6H9NO2/c1-3-4(2-8)5(3)6(7)9/h2-5H,1H3,(H2,7,9)/t3-,4+,5-/m0/s1
