19
gdb 70127	2.31942	1.89661	1.22543	2.8585	80.8	-0.2264	-0.0111	0.2152	1054.1293	0.159887	-385.92088	-385.912792	-385.911848	-385.953195	31.89	
C	 0.0757166502	 1.4958655249	-0.0234090214	-0.462067
C	 0.0434911664	-0.0173722129	-0.0130568233	 0.217813
C	-0.8202090932	-0.7069608711	 1.0334145052	-0.321393
C	 0.6798556694	-0.7732831634	 1.1603946114	-0.113968
C	 1.3601231342	-2.0621353702	 0.8859852027	-0.048844
C	 1.233486714	-2.7115249606	-0.270355395	-0.08671
C	 0.4271085585	-2.1657499473	-1.4203547632	-0.385255
C	 0.1805214776	-0.6581206047	-1.3571030175	 0.346448
O	 0.1308468818	 0.0020399981	-2.3741256516	-0.325032
H	 1.0073714341	 1.8649590472	-0.4619237387	 0.130451
H	-0.7464347928	 1.8944010879	-0.6242077176	 0.135188
H	-0.0104534822	 1.8932138856	 0.992258454	 0.105585
H	-1.3707396032	-0.0501858733	 1.6981485617	 0.123617
H	-1.3381815417	-1.6223176892	 0.7700229669	 0.124345
H	 1.1288277829	-0.1453952977	 1.9236474873	 0.095862
H	 1.953707474	-2.4862144945	 1.6908891238	 0.094441
H	 1.711404863	-3.6759669688	-0.4155693332	 0.097649
H	 0.9022355105	-2.368243492	-2.3847692358	 0.13555
H	-0.5532682336	-2.666137318	-1.4677991958	 0.136319
94.3746	166.3343	198.3595	257.3025	307.4064	351.1802	420.8012	462.966	492.7483	540.0439	606.1407	637.6692	725.546	782.9018	812.3882	872.4772	886.9146	936.6629	962.3377	979.7162	989.6234	1014.6923	1058.1919	1091.5135	1104.2164	1112.2537	1125.9333	1189.8193	1202.7806	1274.3829	1326.5174	1346.3034	1395.5669	1414.5666	1424.747	1448.4393	1479.7216	1487.5178	1496.7792	1721.1666	1783.3427	2991.2309	3042.0061	3083.4656	3113.1621	3116.3575	3133.8303	3153.3274	3161.8101	3181.1001	3223.8063
CC12CC1C=CCC2=O	C[C@]12C[C@H]1C=CCC2=O	
InChI=1S/C8H10O/c1-8-5-6(8)3-2-4-7(8)9/h2-3,6H,4-5H2,1H3	InChI=1S/C8H10O/c1-8-5-6(8)3-2-4-7(8)9/h2-3,6H,4-5H2,1H3/t6-,8+/m1/s1
