23
gdb 91698	2.50055	1.49521	1.35894	0.3027	90.09	-0.2212	0.0299	0.2511	1129.486	0.208133	-351.181909	-351.173618	-351.172674	-351.214187	33.871	
C	-0.2153395128	 1.5421500203	 0.0051131668	-0.41171
C	 0.0265497081	 0.0343429633	 0.001071333	 0.06678
C	 0.9127663404	-0.483396647	-1.1792966473	-0.22944
C	 2.0206316928	-1.320108462	-0.4553719872	-0.098463
C	 1.2096070766	-1.9159580449	 0.7177100736	-0.216788
C	 0.7935858235	-0.526231921	 1.2537695251	-0.0586
C	 2.1536539344	 0.152446426	 1.3097939222	-0.189393
C	 2.8908684165	-0.3118214243	 0.2919832961	 0.351039
C	 4.2461288499	 0.1120251362	-0.1684611341	-0.512821
H	 0.7302817297	 2.0928815852	 0.0397710032	 0.114828
H	-0.7504595242	 1.8563350503	-0.897749294	 0.108389
H	-0.8164277269	 1.8481958547	 0.8691148331	 0.105376
H	-0.9466904235	-0.4694109715	-0.0377852417	 0.064476
H	 0.3360212488	-1.1096935935	-1.867040819	 0.090426
H	 1.3425545886	 0.3354852025	-1.7643952523	 0.091759
H	 2.5549300044	-2.0171822306	-1.1040153811	 0.050314
H	 0.3633602153	-2.5338126027	 0.3965740867	 0.082111
H	 1.8291923879	-2.4765380321	 1.4223061392	 0.089758
H	 0.2064495122	-0.5010667396	 2.1736597247	 0.049565
H	 2.4243079477	 0.9490195628	 1.9929637877	 0.082854
H	 4.6747660957	 0.8751413786	 0.4876515647	 0.12158
H	 4.9406746724	-0.7372014998	-0.2042035108	 0.123183
H	 4.2102943425	 0.5233859691	-1.1861532885	 0.124776
118.8541	187.6932	191.2425	247.5501	281.5913	306.4889	395.0586	467.771	487.2889	530.3404	591.6572	711.3144	747.6112	808.019	827.7271	845.4093	875.1112	912.4292	928.4722	940.2577	957.0404	971.7496	1007.223	1025.4494	1049.5571	1062.6691	1087.2705	1126.6053	1136.5086	1158.9507	1181.9242	1225.9931	1227.3122	1264.7416	1277.7732	1290.4521	1305.813	1336.0791	1355.6347	1373.1737	1407.1899	1412.4971	1478.2413	1487.6345	1489.7088	1496.9317	1501.6635	1504.5856	1693.3332	3011.03	3021.5148	3025.4372	3040.3189	3046.0112	3055.0808	3084.5476	3088.6841	3091.8026	3094.9872	3101.2327	3104.153	3104.7879	3194.7601
CC1CC2CC1C=C2C	C[C@H]1C[C@@H]2C[C@H]1C=C2C	
InChI=1S/C9H14/c1-6-3-9-5-8(6)4-7(9)2/h3,7-9H,4-5H2,1-2H3	InChI=1S/C9H14/c1-6-3-9-5-8(6)4-7(9)2/h3,7-9H,4-5H2,1-2H3/t7-,8+,9+/m0/s1
