21
gdb 77080	2.50634	1.21983	1.02207	1.9305	85.18	-0.2472	0.0274	0.2746	1289.3694	0.178764	-387.05379	-387.043555	-387.04261	-387.088846	38.339	
C	-0.3956022223	 1.2419023166	-0.1484500404	-0.422613
C	-0.0265010999	-0.215900967	 0.0710592428	-0.098442
C	 1.2432587927	-0.7634608211	-0.6362029655	-0.035841
O	 1.7411208314	-1.3182674601	 0.6024973228	-0.340263
C	 0.6764738028	-0.6885419977	 1.3830905387	 0.430096
C	 1.2603587324	 0.3981737623	 2.2788711368	-0.433025
C	-0.0848593578	-1.7344226494	 2.184509994	-0.431132
C	 1.0655092861	-1.7446250331	-1.6930205125	 0.304987
C	 0.9019497487	-2.5450819758	-2.57512202	-0.440812
H	 0.4517878582	 1.9124684069	 0.0226677823	 0.120134
H	-0.739062888	 1.3963207505	-1.1769200969	 0.12614
H	-1.2078542731	 1.5490836888	 0.5187642152	 0.121158
H	-0.8875824191	-0.8530539477	-0.1454013459	 0.089323
H	 1.904556006	 0.040672679	-0.9923892673	 0.094468
H	 1.8507577366	 1.1171411558	 1.7055035161	 0.11865
H	 0.4713417405	 0.9422862162	 2.8091687573	 0.113955
H	 1.9199528909	-0.057273056	 3.024170646	 0.124885
H	 0.5619755483	-2.1800300177	 2.9473364145	 0.122778
H	-0.9467394225	-1.2831151219	 2.6889748309	 0.112736
H	-0.4418323801	-2.5343125303	 1.5303766607	 0.124241
H	 0.7651326382	-3.2560298482	-3.3520988496	 0.198575
36.89	132.9254	174.0182	193.3747	205.8929	229.9166	268.2448	281.83	334.4563	376.7803	394.1054	462.8703	534.515	539.2997	612.9805	656.7739	669.5049	744.0388	858.5813	872.72	926.6041	962.9789	988.1405	994.4472	1040.6761	1056.4808	1114.5889	1125.5631	1175.8402	1198.7886	1257.3393	1278.5045	1291.5727	1355.0196	1392.1683	1404.0337	1410.5213	1417.024	1471.6933	1480.2794	1488.4181	1496.9462	1500.8077	1509.2891	2233.4592	2985.6107	3030.5936	3033.4041	3039.2947	3073.6037	3097.8406	3099.5215	3107.535	3108.5661	3117.7636	3121.005	3502.8513
CC1C(OC1(C)C)C#C	C[C@H]1[C@@H](OC1(C)C)C#C	
InChI=1S/C8H12O/c1-5-7-6(2)8(3,4)9-7/h1,6-7H,2-4H3	InChI=1S/C8H12O/c1-5-7-6(2)8(3,4)9-7/h1,6-7H,2-4H3/t6-,7-/m0/s1
