14
gdb 123353	7.14441	0.73491	0.69457	2.2691	69.4	-0.2773	-0.0747	0.2025	1517.8543	0.099261	-432.781141	-432.772963	-432.772018	-432.815302	28.684	
C	 0.0177868516	-1.2109978529	 0.07142848	-0.425729
C	-0.0117222169	-0.0101667909	 0.0950173031	 0.290058
C	-0.0117582117	 1.4458103931	 0.1156961229	-0.357417
C	 1.3962020862	 2.0280655372	-0.1690164331	-0.29148
C	 1.4065211734	 3.5157404978	-0.1094729231	 0.40538
N	 1.6405019837	 4.3141777878	-1.1118454489	-0.145153
O	 1.5376802268	 5.56001176	-0.5933642434	-0.136377
N	 1.229349318	 5.4592377626	 0.7605725997	 0.049777
N	 1.1510523042	 4.2391435262	 1.0469115883	-0.201158
H	 0.0276448335	-2.2728042439	 0.0549306664	 0.203041
H	-0.7188915429	 1.8300021096	-0.6293305997	 0.147209
H	-0.3589672026	 1.8075889816	 1.090515751	 0.15871
H	 2.0997419403	 1.6371218433	 0.5724599075	 0.150947
H	 1.7419155866	 1.7129661884	-1.1554232508	 0.152193
51.335	63.6423	98.8336	186.4909	315.8262	360.6865	383.909	476.6638	628.636	657.113	675.0092	693.1633	725.5108	764.9127	799.0562	954.9507	973.5048	1016.4297	1022.4627	1063.7783	1096.8565	1183.6295	1289.1943	1294.6832	1329.4335	1372.5566	1471.7074	1481.3166	1490.4559	1598.2441	2243.7518	3033.8163	3066.5201	3071.4591	3129.2751	3505.8158
C#CCCC1=NON=N1	C#CCCc1nonn1	
InChI=1S/C5H5N3O/c1-2-3-4-5-6-8-9-7-5/h1H,3-4H2	InChI=1S/C5H5N3O/c1-2-3-4-5-6-8-9-7-5/h1H,3-4H2
