16
gdb 48501	3.59776	1.59501	1.39689	3.2973	72.88	-0.2411	-0.0289	0.2123	932.6863	0.125165	-400.66911	-400.662555	-400.661611	-400.700222	26.058	
O	-0.0825137038	 0.0246178622	-0.0268009294	-0.266316
C	 0.0586183972	 1.2242350358	-0.0509401992	 0.035889
C	 1.3648913064	 1.893807467	 0.0034562814	 0.280355
C	 1.7673724176	 3.1522264277	 0.7155745787	-0.105714
C	 3.2396489129	 2.7438721494	 0.4707960701	-0.077299
C	 3.0275050552	 3.0993143277	-1.0347698782	 0.015313
C	 3.3135190856	 1.6501108244	-1.4556056159	-0.245933
C	 2.7860669218	 1.3127909636	-0.040382725	-0.132665
N	 1.529469753	 3.2117729068	-0.7402230128	-0.191114
H	-0.8058873461	 1.9213035814	-0.1073062542	 0.082021
H	 1.2378287432	 3.7603799225	 1.4396451753	 0.109039
H	 4.1211539328	 2.9379797895	 1.0744379739	 0.084505
H	 3.4146945246	 3.9777008317	-1.5479345106	 0.08833
H	 2.790061804	 1.2419412385	-2.3238131585	 0.116882
H	 4.3899118868	 1.4725472028	-1.5401240338	 0.11025
H	 2.9824523188	 0.379360309	 0.4798179785	 0.096457
96.6988	169.0148	254.7937	409.3981	453.0922	548.4851	677.8595	733.525	749.5643	767.1079	817.9656	828.7016	851.7507	902.8061	914.118	942.4802	960.6066	992.8458	1019.5387	1041.8066	1050.6273	1077.9238	1091.8388	1152.4354	1171.7706	1195.4673	1205.3214	1239.5218	1254.222	1281.3853	1287.4184	1372.2823	1428.5036	1478.9271	1804.7542	2896.7518	3056.9252	3118.477	3134.4311	3159.4843	3166.0235	3184.6151
O=CC12C3C4C(CC14)N23	O=C[C@@]12[C@H]3[C@@H]4[C@@H](C[C@H]14)N23	
InChI=1S/C7H7NO/c9-2-7-3-1-4-5(3)6(7)8(4)7/h2-6H,1H2	InChI=1S/C7H7NO/c9-2-7-3-1-4-5(3)6(7)8(4)7/h2-6H,1H2/t3-,4+,5-,6+,7-,8?/m0/s1
