21
gdb 36715	5.3559	0.69035	0.64354	0.9334	91.1	-0.2393	0.0232	0.2625	1753.3658	0.18229	-349.937713	-349.928403	-349.927458	-349.972634	34.782	
C	-0.0130305623	-1.2820095144	 0.1327213682	-0.436386
C	-0.0496350792	-0.0814689781	 0.082493661	 0.29373
C	-0.0576024447	 1.3750707648	 0.0209431663	-0.36573
C	 1.36055932	 1.9799546092	-0.0400924873	-0.187011
C	 1.3729768843	 3.5161769195	-0.0633221022	-0.010065
C	 2.8059755429	 4.1110585764	 0.0307634534	-0.235762
C	 2.8074099902	 5.3730098557	-0.8678106876	-0.255117
C	 1.6163792368	 5.144495085	-1.7679458763	-0.071007
C	 0.8424196842	 4.152084377	-1.3333901641	-0.059202
H	 0.006431006	-2.3424814805	 0.177061556	 0.191851
H	-0.6389132007	 1.6953379828	-0.8528364604	 0.131163
H	-0.5852480426	 1.7742988681	 0.8976249933	 0.128056
H	 1.9258314851	 1.6272152313	 0.8305251928	 0.107319
H	 1.8790521899	 1.5950888528	-0.9260619262	 0.108231
H	 0.76714575	 3.8645116656	 0.789430276	 0.072901
H	 3.1062080833	 4.3186761959	 1.0611214392	 0.096458
H	 3.5167570201	 3.3799732725	-0.3708844007	 0.103123
H	 2.6758022863	 6.2938006601	-0.2816589415	 0.105342
H	 3.7460824659	 5.495658291	-1.4198655765	 0.102661
H	 1.4144291681	 5.7590384559	-2.6387861359	 0.09048
H	-0.0870425934	 3.8430474896	-1.7997621476	 0.088965
54.4224	75.3048	100.193	140.1355	221.9561	297.2814	342.9394	352.0355	462.7839	532.4633	615.4882	632.5109	634.0792	737.3525	758.327	781.1544	848.0453	865.2825	920.9865	955.363	967.3299	972.9717	982.0569	1030.419	1065.4125	1089.0166	1096.6872	1143.9076	1170.2262	1192.3308	1229.2442	1266.5697	1297.9766	1309.7142	1317.2701	1338.8622	1348.528	1380.7789	1392.3364	1472.5621	1483.0732	1492.8575	1500.2802	1686.4593	2238.3779	2962.4917	3006.1016	3016.1627	3032.1727	3040.6065	3046.0734	3057.2435	3078.3293	3096.7725	3176.4749	3202.3385	3508.1094
C#CCCC1CCC=C1	C#CCC[C@H]1CCC=C1	
InChI=1S/C9H12/c1-2-3-6-9-7-4-5-8-9/h1,4,7,9H,3,5-6,8H2	InChI=1S/C9H12/c1-2-3-6-9-7-4-5-8-9/h1,4,7,9H,3,5-6,8H2/t9-/m1/s1
