18
gdb 99489	2.49396	1.11746	0.80526	1.3118	74.4	-0.2528	0.0135	0.2663	1413.2142	0.147228	-435.305611	-435.295137	-435.294193	-435.342396	35.675	
C	-0.241894256	 1.4332928731	 0.167657031	-0.339983
N	-0.1966315908	-0.009307025	 0.3229691956	-0.336983
C	 0.9127824181	-0.6567901212	 0.7494585549	 0.447675
O	 1.9613745112	-0.1120220959	 1.040963445	-0.37977
C	 0.8184486018	-2.2020337731	 0.8461484845	-0.260979
C	 1.3799190123	-2.6853197252	 2.2046911478	-0.158278
N	 1.5451520918	-4.1342308876	 2.1938258701	-0.518742
C	-0.5238806939	-2.7279115939	 0.6101832426	 0.285339
N	-1.6016961897	-3.1120493949	 0.4377877623	-0.343729
H	 0.7442382029	 1.8232412235	 0.4203344511	 0.17407
H	-0.4857921973	 1.7083736486	-0.8636008105	 0.134887
H	-0.9865627502	 1.8782210358	 0.8361148758	 0.134837
H	-1.0258877537	-0.5467438364	 0.1234094441	 0.271138
H	 1.4781723715	-2.6040769516	 0.0682147636	 0.164269
H	 2.3564789593	-2.2091280758	 2.3107802957	 0.14659
H	 0.7338223577	-2.2977086901	 3.0088510706	 0.100881
H	 2.0948763122	-4.4241490722	 2.9955454672	 0.23766
H	 0.6442191227	-4.5960834681	 2.2793791586	 0.241117
34.534	69.9529	95.9129	131.9325	139.871	181.3365	245.1791	260.611	297.1445	356.8872	408.4671	508.5531	519.5233	571.0615	655.5798	777.7939	822.2497	851.0088	907.0436	1021.8502	1041.0982	1088.3839	1116.126	1153.5977	1174.5658	1183.3468	1221.3582	1268.2537	1315.0232	1349.2356	1407.5161	1440.8452	1495.2672	1499.337	1510.2275	1576.2718	1662.9686	1783.6272	2342.9826	2971.2955	3036.3003	3057.7271	3091.8748	3118.4216	3159.5805	3498.6924	3578.9365	3626.3975
CNC(=O)C(CN)C#N	CNC(=O)[C@@H](CN)C#N	
InChI=1S/C5H9N3O/c1-8-5(9)4(2-6)3-7/h4H,2,6H2,1H3,(H,8,9)	InChI=1S/C5H9N3O/c1-8-5(9)4(2-6)3-7/h4H,2,6H2,1H3,(H,8,9)/t4-/m0/s1
