21
gdb 92277	2.66147	1.52514	1.43331	1.3463	82.65	-0.2364	0.0228	0.2591	1055.6165	0.184732	-387.118977	-387.111045	-387.110101	-387.151738	31.396	
C	 0.319714048	 1.5292854741	 0.1181491258	-0.392049
C	 0.0106697403	 0.0417311016	-0.0486329673	 0.145936
C	 0.6411877118	-0.6042055978	-1.2988232196	-0.261766
C	 1.8993038705	-1.3122109602	-0.7620069204	-0.071194
C	 3.1568653759	-0.4779770216	-0.6643360842	-0.072672
C	 3.6582452388	-0.4545787768	 0.5700403698	-0.065906
C	 2.8334554454	-1.2731598448	 1.5329155223	-0.2685
C	 1.5559004644	-1.5957309645	 0.7246158331	 0.114307
O	 0.509169742	-0.6932678931	 1.0765783117	-0.288974
H	 1.3971210444	 1.7131362958	 0.0776343541	 0.121789
H	-0.1638702348	 2.1124405052	-0.6734155302	 0.104598
H	-0.0545448862	 1.8841855459	 1.0827811383	 0.119453
H	-1.0795686117	-0.0891305267	-0.060499796	 0.071514
H	-0.0430937555	-1.3390622965	-1.7334621437	 0.100381
H	 0.8695418747	 0.1322514722	-2.0742820823	 0.101125
H	 2.0920919639	-2.2311870768	-1.3282746079	 0.07753
H	 3.5888790537	 0.0166201982	-1.5282778898	 0.089718
H	 4.5623534605	 0.0659496608	 0.8674610766	 0.091656
H	 3.3633676681	-2.1885729208	 1.8296156823	 0.100967
H	 2.5744778084	-0.7406293447	 2.453906132	 0.117287
H	 1.2060482174	-2.6208924494	 0.8989405154	 0.0648
52.2433	111.5935	246.4238	251.9057	347.6729	377.5936	404.6267	437.2092	591.6689	694.9614	737.4168	773.4806	795.7636	809.3598	863.9109	868.256	911.0523	928.0231	961.2823	972.7488	985.4586	1027.4155	1041.37	1051.3973	1094.7802	1125.1681	1128.3426	1131.415	1193.3211	1220.0197	1246.6397	1259.2873	1309.5289	1324.6426	1333.8456	1345.757	1372.2087	1391.0413	1391.7796	1405.4968	1469.2345	1485.9072	1495.8485	1500.2933	1680.1775	3005.7771	3009.9962	3022.9305	3033.5173	3035.2144	3056.9225	3075.4199	3097.4039	3106.5653	3122.1522	3174.3036	3200.2021
CC1CC2C=CCC2O1	C[C@H]1C[C@H]2C=CC[C@H]2O1	
InChI=1S/C8H12O/c1-6-5-7-3-2-4-8(7)9-6/h2-3,6-8H,4-5H2,1H3	InChI=1S/C8H12O/c1-6-5-7-3-2-4-8(7)9-6/h2-3,6-8H,4-5H2,1H3/t6-,7+,8+/m0/s1
