23
gdb 93679	3.06564	1.09962	1.01818	1.7091	87.55	-0.2423	0.0155	0.2578	1313.91	0.205943	-388.314182	-388.304779	-388.303834	-388.347577	37.435	
C	-0.1163390432	 1.5774012678	 0.0703840793	-0.408587
C	 0.0019994361	 0.0379526086	 0.0031164541	 0.249269
C	-1.4182553556	-0.5625674421	-0.0065741317	-0.420939
C	 0.7560021621	-0.4019700148	-1.2754548897	-0.23924
C	 2.2771557608	-0.2637260685	-1.1488001572	-0.243842
C	 2.8094072913	-1.1443679683	-0.012942212	 0.110158
O	 4.1842461222	-0.8891120732	 0.2712143705	-0.4396
C	 1.9582624464	-0.9965769799	 1.2239403487	-0.130999
C	 0.7392504403	-0.4587525212	 1.2302515923	-0.057646
H	 0.8636604749	 2.0609225349	 0.021819626	 0.112663
H	-0.7256433489	 1.9542207693	-0.7589049638	 0.110334
H	-0.5926244238	 1.892592241	 1.0050207214	 0.111115
H	-1.9676407596	-0.2397336982	-0.8981832615	 0.110427
H	-1.3847602156	-1.6567284735	-0.0061680637	 0.115121
H	-1.9893696426	-0.2421878215	 0.8718261518	 0.108705
H	 0.5152878814	-1.4533564099	-1.4813261695	 0.094738
H	 0.3884436444	 0.171647592	-2.1342973531	 0.090798
H	 2.775532567	-0.5277936398	-2.086702597	 0.099556
H	 2.5464142	 0.7787845857	-0.9322091891	 0.087592
H	 2.8009331904	-2.1947827655	-0.3363831227	 0.094865
H	 4.2394278068	 0.0035916806	 0.6306178502	 0.273087
H	 2.4128083765	-1.3519641516	 2.1462057458	 0.090477
H	 0.2015719688	-0.3633107419	 2.1732913211	 0.081947
79.8347	196.1675	221.8994	235.6276	261.721	308.7654	312.9656	335.1306	353.464	403.7714	420.4425	453.4815	526.5745	604.795	680.4437	723.6401	769.0781	837.4274	895.697	923.5828	941.2043	980.6149	995.2038	1014.5414	1016.5288	1047.1744	1076.9636	1081.9096	1132.4396	1188.6431	1194.8213	1233.0093	1256.6377	1278.1119	1303.8806	1339.3325	1368.4358	1373.7902	1395.3104	1397.7713	1417.6033	1433.2759	1479.0432	1484.2213	1492.1054	1494.8163	1501.991	1510.6762	1714.7615	3006.7779	3015.4394	3022.1335	3024.7325	3029.2019	3060.5352	3080.3816	3089.4869	3095.1534	3100.6591	3107.1107	3124.2782	3158.1706	3795.2267
CC1(C)CCC(O)C=C1	CC1(C)CC[C@@H](O)C=C1	
InChI=1S/C8H14O/c1-8(2)5-3-7(9)4-6-8/h3,5,7,9H,4,6H2,1-2H3	InChI=1S/C8H14O/c1-8(2)5-3-7(9)4-6-8/h3,5,7,9H,4,6H2,1-2H3/t7-/m0/s1
