20
gdb 22828	2.23153	1.50247	0.95952	1.2545	79.04	-0.2442	0.0076	0.2518	1242.5238	0.171159	-440.258887	-440.250028	-440.249084	-440.292277	34.027	
C	-0.0483884215	 1.521173023	-0.0372528661	-0.399194
C	 0.0905724809	 0.0107680331	 0.0519757445	 0.058178
O	 0.7628047761	-0.4258488324	-1.129896258	-0.25331
C	 0.8769911793	-1.8347810505	-1.2185617736	-0.065797
C	 1.7318844886	-2.3926010301	-0.0821992503	-0.206142
C	 1.1495156563	-1.9743185264	 1.2808185909	-0.309379
C	 0.8240553196	-0.5006559122	 1.2816857669	 0.368374
N	 1.09078335	 0.3391646889	 2.2034257449	-0.195281
O	 1.7448710443	-0.2442757524	 3.3010664755	-0.39837
H	 0.9361265709	 1.9940456282	-0.0452631576	 0.130723
H	-0.5724277728	 1.7790407094	-0.9609399601	 0.115082
H	-0.6070613398	 1.9085866241	 0.8164230342	 0.127068
H	-0.9164559152	-0.4499391423	 0.0632615713	 0.07034
H	-0.125521243	-2.2987864624	-1.2022196168	 0.082245
H	 1.3269145696	-2.0434673667	-2.1936438203	 0.107362
H	 1.7918748821	-3.4843706735	-0.1526009622	 0.097379
H	 2.7495302097	-1.9988319718	-0.1827081515	 0.114848
H	 0.2163655824	-2.5287098948	 1.4587224283	 0.114009
H	 1.8268916063	-2.2133534429	 2.1004159676	 0.136209
H	 1.8878874061	 0.5164411817	 3.8736705424	 0.305656
72.5456	159.4766	206.191	227.7146	253.088	308.2302	336.0868	370.4666	432.284	436.3013	476.3019	532.797	595.0292	696.4493	768.2492	853.9554	858.2255	891.3471	930.7112	976.8705	1026.7024	1040.5709	1077.5684	1107.272	1132.2914	1156.668	1200.686	1224.1023	1263.9728	1297.3079	1339.0824	1359.616	1371.292	1378.6608	1406.0249	1411.1667	1413.7651	1475.5994	1481.2788	1482.8215	1492.7109	1499.3175	1739.0913	2912.0761	2948.8951	3008.7744	3037.9681	3059.0576	3081.0422	3085.9782	3133.5592	3134.5087	3145.5181	3822.8209
CC1OCCCC1=NO	C[C@H]1OCCCC1=NO	
InChI=1S/C6H11NO2/c1-5-6(7-8)3-2-4-9-5/h5,8H,2-4H2,1H3	InChI=1S/C6H11NO2/c1-5-6(7-8)3-2-4-9-5/h5,8H,2-4H2,1H3/t5-/m1/s1
