14
gdb 130648	4.85245	1.34424	1.06667	0.8895	66.9	-0.2657	-0.0508	0.2149	1030.8644	0.104033	-432.916219	-432.909687	-432.908743	-432.947548	24.627	
O	-0.0347900039	 0.077544412	 0.0061059959	-0.275952
C	-0.0217532078	 1.2739899715	 0.0110853983	 0.393363
C	-1.2926435113	 2.1662002772	 0.0322849445	-0.27706
N	-0.7056658554	 3.4827858394	 0.0308123378	 0.043296
N	-1.2431307664	 4.721060632	 0.0434497395	-0.268542
C	-0.1464722861	 5.4727618176	 0.0327473456	 0.022764
N	 1.0430759508	 4.7987147951	 0.0139459421	-0.359033
C	 0.6411851805	 3.5426341755	 0.0134124917	 0.404015
C	 1.236820258	 2.1761612614	-0.000728588	-0.483549
H	-1.9136733112	 1.9789412521	-0.8496048089	 0.164817
H	-1.8900624918	 1.9703889075	 0.9285169203	 0.164834
H	-0.2065154832	 6.550743618	 0.0384952661	 0.13179
H	 1.8620570559	 1.9573732819	 0.8712887098	 0.169639
H	 1.8395876819	 1.9657398687	-0.8904339847	 0.169619
79.6716	197.815	247.1606	359.0005	476.6281	522.6555	533.5323	666.5073	692.4502	747.4129	756.0701	831.9888	843.1637	905.19	991.114	1022.3214	1066.0971	1147.7891	1175.5827	1193.4911	1193.5512	1240.125	1258.9956	1289.2079	1357.4514	1422.0102	1443.5203	1471.8624	1508.998	1580.5879	1878.037	3053.2568	3057.6196	3093.1514	3097.3452	3263.9762
O=C1CN2N=CN=C2C1	O=C1Cn2ncnc2C1	
InChI=1S/C5H5N3O/c9-4-1-5-6-3-7-8(5)2-4/h3H,1-2H2	InChI=1S/C5H5N3O/c9-4-1-5-6-3-7-8(5)2-4/h3H,1-2H2
