18
gdb 17393	4.51925	1.6858	1.56511	1.8183	71.04	-0.2486	0.0833	0.3318	880.1613	0.154257	-347.751232	-347.744327	-347.743383	-347.78228	27.24	
C	-0.0342234047	 1.5507985312	-0.0780874999	-0.208772
C	 1.5107861798	 1.5499727185	 0.0929897998	-0.276441
C	 1.4134599756	 0.0986428064	 0.6167612964	 0.363661
C	-0.0049224336	-0.0011052036	-0.0015679015	-0.289817
C	 2.4862360168	-1.0242613096	 0.4141231286	-0.355389
C	 2.53269934	-1.1936759765	 1.9381235468	 0.040029
O	 2.8926013658	 0.0782260468	 2.4945086794	-0.251632
C	 1.5240222459	-0.142085105	 2.1326935423	-0.037371
H	-0.5413217852	 1.9929874021	 0.7838222037	 0.103619
H	-0.4424201188	 2.0000385283	-0.9859472976	 0.097992
H	 2.0252710282	 1.5935421843	-0.8721730225	 0.099774
H	 1.9628186395	 2.2855160286	 0.7623498358	 0.108333
H	-0.7778467593	-0.5031227519	 0.5882927158	 0.095627
H	 0.0236790085	-0.4592006506	-0.9951417179	 0.101073
H	 2.0734831038	-1.8931497443	-0.1069990415	 0.103858
H	 3.4312965532	-0.730790412	-0.0509937574	 0.107536
H	 2.7626079513	-2.0730121085	 2.5286100269	 0.101794
H	 0.7750752831	-0.0017369941	 2.905407113	 0.096127
111.7354	137.087	233.2518	328.6909	399.1023	463.2711	552.6948	683.8258	770.9065	793.0374	840.0964	844.6315	861.3242	882.3677	902.1829	930.2209	956.1894	968.113	984.5055	1036.5807	1059.5931	1103.0458	1148.4219	1173.038	1183.3895	1215.0097	1224.8286	1230.9453	1250.8238	1254.1877	1272.863	1294.5556	1314.553	1384.0029	1467.133	1474.5742	1482.8468	1504.5843	3044.099	3052.2948	3054.1165	3061.2389	3090.942	3105.1187	3110.2396	3119.7413	3166.6557	3188.2535
C1CC2(C1)CC1OC21	C1CC2(C1)C[C@H]1O[C@@H]21	
InChI=1S/C7H10O/c1-2-7(3-1)4-5-6(7)8-5/h5-6H,1-4H2	InChI=1S/C7H10O/c1-2-7(3-1)4-5-6(7)8-5/h5-6H,1-4H2/t5-,6-/m1/s1
