21
gdb 92185	2.55446	1.85611	1.65071	1.3321	80.57	-0.2495	0.0776	0.3271	948.9722	0.186193	-387.069358	-387.062363	-387.061419	-387.100134	30.194	
O	 0.0020218298	 1.3949726762	-0.18237116	-0.435267
C	 0.0108963005	-0.0183349478	 0.0076862437	 0.122009
C	 0.6846924981	-0.454448153	 1.3366809762	-0.24645
C	-0.382042205	-0.5968771928	 2.428144271	-0.029673
C	-1.3194301569	 0.6480764242	 2.4091990467	-0.230386
C	-2.1684816432	-0.1211586127	 1.3840789897	-0.010051
C	-1.5962152116	-1.4736594366	 1.9097592628	-0.015128
C	-1.4622799796	-1.9873489214	 0.4665802913	-0.25382
C	-1.4412884569	-0.4926631746	 0.0281785971	-0.028546
H	 0.9152446505	 1.6988605624	-0.1820318325	 0.277964
H	 0.5272351566	-0.4969914887	-0.8398618063	 0.059863
H	 1.2143996022	-1.4032869487	 1.1947634246	 0.097254
H	 1.4394238363	 0.2870817183	 1.6270981733	 0.08327
H	 0.0537322192	-0.8879729318	 3.3867002	 0.056182
H	-1.8686898242	 0.7510392678	 3.3506669786	 0.086577
H	-0.8878653941	 1.6093686525	 2.1257225895	 0.103092
H	-3.2368581187	 0.0755904903	 1.2806812831	 0.056452
H	-2.0875520293	-2.0778992774	 2.6741902928	 0.056205
H	-0.6118009832	-2.6184803152	 0.1851135763	 0.086388
H	-2.38375167	-2.4857111053	 0.1516089149	 0.09714
H	-1.9538993105	-0.2181886458	-0.8953480129	 0.066925
189.3665	269.9654	283.7426	357.0604	385.2107	417.3056	446.5621	542.8308	655.6729	695.8607	755.4989	781.4816	828.3128	830.8316	861.7931	904.3799	936.0696	966.839	969.4437	979.75	1004.8279	1040.8415	1065.9794	1071.0944	1076.2819	1107.5227	1109.1255	1141.2096	1181.8694	1206.8653	1216.2373	1244.4732	1251.5393	1265.6939	1290.8915	1292.7596	1308.0394	1318.0944	1326.4277	1366.6221	1384.5374	1427.1158	1475.195	1487.8679	1502.8929	2960.7833	3025.6528	3035.0259	3048.0426	3065.3686	3072.3586	3082.7863	3089.1214	3091.3888	3101.5345	3120.0149	3815.346
OC1CC2CC3C2CC13	O[C@H]1C[C@H]2C[C@@H]3[C@H]2C[C@H]13	
InChI=1S/C8H12O/c9-8-2-4-1-6-5(4)3-7(6)8/h4-9H,1-3H2	InChI=1S/C8H12O/c9-8-2-4-1-6-5(4)3-7(6)8/h4-9H,1-3H2/t4-,5+,6-,7+,8+/m1/s1
