20
gdb 120536	5.89478	0.66315	0.64041	4.9598	79.78	-0.2404	0.0255	0.2658	1780.0322	0.169458	-440.287127	-440.277216	-440.276272	-440.32429	33.969	
C	 0.0336428799	 1.5190633834	-0.3366625575	-0.385656
C	-0.1307449141	 0.0117925209	-0.2531425042	-0.044807
O	 0.9128605963	-0.5953447129	-0.9995571257	-0.246377
C	 0.8941961598	-1.9890538506	-0.9655807457	 0.121725
C	-0.1127588477	-2.7092466127	-1.930080593	-0.211355
N	 1.0464556809	-3.3202047663	-2.581564116	-0.043768
C	 2.0500659984	-2.6129256332	-1.7878888699	-0.198611
C	 1.1958145636	-4.2247350721	-3.5715232308	 0.13318
O	 2.2664612507	-4.6205236555	-3.9865810564	-0.331805
H	 1.002899976	 1.8214490337	 0.0692873161	 0.131361
H	-0.0226081085	 1.8545576599	-1.3759078517	 0.130762
H	-0.7546661568	 2.0192185933	 0.233407477	 0.119039
H	-0.0865629241	-0.3292739518	 0.794330045	 0.09299
H	-1.112114092	-0.2924082024	-0.6517514453	 0.092852
H	 0.829795947	-2.3587546929	 0.0667187336	 0.080086
H	-0.8064287749	-3.4204829246	-1.4692715244	 0.115781
H	-0.6685437918	-2.0112585461	-2.5673826266	 0.11878
H	 2.6177520055	-1.868248859	-2.3546277771	 0.133494
H	 2.7402474491	-3.2682025643	-1.2494294097	 0.126492
H	 0.2174861828	-4.5738855967	-3.9632467074	 0.065841
15.6039	66.2651	89.5501	99.12	176.1737	202.2228	248.0007	314.6049	335.6043	423.308	475.4499	549.8559	763.9311	819.4185	823.9266	872.2138	909.8582	955.9981	1009.9926	1034.8797	1052.2618	1091.2513	1137.7368	1155.1476	1164.4957	1187.2976	1188.4943	1221.8092	1271.6606	1281.1616	1299.6281	1314.1451	1376.9813	1400.722	1407.4088	1440.9163	1459.2229	1483.774	1494.6963	1499.5211	1514.1281	1527.8217	1791.698	2916.0948	2964.6032	2992.3945	3011.4861	3024.3518	3047.4884	3051.6028	3076.5392	3103.2463	3122.7567	3124.9681
CCOC1CN(C1)C=O	CCOC1CN(C1)C=O	
InChI=1S/C6H11NO2/c1-2-9-6-3-7(4-6)5-8/h5-6H,2-4H2,1H3	InChI=1S/C6H11NO2/c1-2-9-6-3-7(4-6)5-8/h5-6H,2-4H2,1H3
