18
gdb 54995	3.9666	1.11072	0.99617	5.4898	71.92	-0.2546	0.0133	0.2679	1207.9006	0.149432	-439.110476	-439.102288	-439.101344	-439.143391	30.985	
O	-0.2213919007	-0.132811945	-0.1087483085	-0.348159
C	-0.318128827	 1.0192860699	 0.1996426306	 0.460227
O	 0.751523831	 1.7498283964	 0.6419827964	-0.23732
C	-1.5325227325	 1.8933512803	 0.1910097707	-0.268695
C	-1.8599416472	 2.5247014775	 1.5352793449	-0.333007
C	-1.0594336617	 3.2880173561	 0.5213310382	 0.349809
C	 0.4495980513	 3.1551556709	 0.6919802354	-0.129513
N	-1.1982224359	 5.7113472424	 0.6504127589	-0.508205
H	-1.6885452625	 5.7135365849	 1.5402628985	 0.230307
H	-1.4710620629	 6.5618470448	 0.1683097127	 0.233276
C	-1.5940636241	 4.5365165424	-0.1328248259	-0.268092
H	-2.3245579499	 1.6583180687	-0.5070059818	 0.117023
H	-2.8962421868	 2.813668361	 1.676219557	 0.122056
H	-1.3713436912	 2.1355090869	 2.4230794638	 0.133296
H	 0.8162782693	 3.5486029323	 1.6429911706	 0.127361
H	 0.9831962173	 3.6580519128	-0.1222801727	 0.120184
H	-1.1514021209	 4.640425636	-1.1315639812	 0.112579
H	-2.6826399757	 4.4275736717	-0.2781705678	 0.086874
86.0917	123.5047	180.7525	225.0941	264.9342	367.6452	371.4123	379.078	494.1115	615.4313	677.8769	730.743	776.6281	820.6929	846.8552	911.4741	941.3065	958.8416	966.1512	1010.4726	1041.1319	1058.8736	1074.4367	1078.4782	1092.8731	1171.9671	1192.4751	1221.6178	1250.1537	1275.7539	1350.9837	1374.7745	1408.8658	1440.1544	1491.097	1504.9208	1518.1983	1656.3159	1881.2749	2950.128	3040.5423	3046.402	3102.7197	3125.9228	3209.8363	3217.3818	3492.5674	3573.965
[O-]C(=O)C1CC11C[NH2+]C1	O=C1OC[C@]2([C@@H]1C2)CN	
InChI=1S/C6H9NO2/c8-5(9)4-1-6(4)2-7-3-6/h4,7H,1-3H2,(H,8,9)	InChI=1S/C6H9NO2/c7-2-6-1-4(6)5(8)9-3-6/h4H,1-3,7H2/t4-,6-/m1/s1
