23
gdb 90320	2.32493	1.65302	1.17623	0.4514	91.62	-0.2197	0.0291	0.2488	1163.9252	0.207057	-351.14381	-351.13512	-351.134176	-351.177053	34.711	
C	-0.8718238212	 1.085289435	-0.0037546006	-0.392881
C	-0.3832935227	-0.3575515348	 0.0101181217	-0.010445
C	 0.8441363676	-0.5944207549	-0.9601788578	-0.342289
C	 1.6968641539	-0.5864863055	 0.2832396156	 0.337594
C	 2.7529939418	-0.0510411106	 0.8832855615	-0.251582
C	 2.5255082318	-0.0343860738	 2.3889266758	-0.252962
C	 0.9746431559	-0.2580200641	 2.5736673865	-0.012508
C	 0.2734166632	 1.0277633116	 3.0219395756	-0.393355
C	 0.549443677	-0.8687011107	 1.2023833954	-0.059036
H	-0.0452259491	 1.7911067996	 0.1251856728	 0.120681
H	-1.344711887	 1.3058955409	-0.9674801262	 0.109255
H	-1.6093260772	 1.2778946046	 0.7801341082	 0.115432
H	-1.2263550485	-1.0296870423	-0.1758057265	 0.067961
H	 0.7929509546	-1.5727968058	-1.4492785834	 0.105959
H	 1.0374730572	 0.1693056172	-1.7190190998	 0.104508
H	 3.6310211093	 0.3791284504	 0.4145625914	 0.085729
H	 3.1038157783	-0.8165808918	 2.9002140526	 0.099395
H	 2.8449800039	 0.9163559131	 2.8347549077	 0.09487
H	 0.8079645333	-1.0058984545	 3.3560905864	 0.066874
H	 0.4673495391	 1.8585384693	 2.3380440701	 0.118538
H	-0.8105975438	 0.8949792489	 3.0954497522	 0.110107
H	 0.6387730434	 1.3255518229	 4.0109054327	 0.107606
H	 0.3506271493	-1.9422576547	 1.3169893681	 0.070545
43.7334	187.2637	215.6597	265.7802	277.5493	306.0901	326.957	377.6756	385.7437	504.5421	637.2964	678.0677	705.9909	750.6468	792.8521	825.9572	839.6377	883.0774	911.5521	931.5022	953.3477	981.3817	1039.6823	1042.4005	1057.7917	1073.1271	1110.7488	1117.9275	1143.3433	1155.3348	1206.936	1222.6544	1231.8197	1252.1614	1265.1999	1301.479	1319.3823	1343.4269	1364.2192	1375.3007	1407.9639	1413.1834	1476.141	1486.6193	1488.8085	1493.0365	1505.8023	1514.0038	1744.4538	3002.3594	3004.9852	3030.0948	3033.0042	3037.427	3041.1432	3045.4086	3055.4459	3091.7688	3093.7949	3096.2236	3110.8621	3118.0764	3191.6947
CC1CC2=CCC(C)C12	C[C@H]1C[C]2[CH]C[C@@H](C)[C@@H]12	
InChI=1S/C9H14/c1-6-3-4-8-5-7(2)9(6)8/h4,6-7,9H,3,5H2,1-2H3	InChI=1S/C9H14/c1-6-3-4-8-5-7(2)9(6)8/h4,6-7,9H,3,5H2,1-2H3/t6-,7+,9+/m1/s1
