19
gdb 76862	2.45638	1.7525	1.57649	2.1126	72.98	-0.2337	0.0624	0.2961	954.4876	0.16045	-422.957155	-422.949547	-422.948602	-422.988731	31.25	
O	 0.229480433	 1.4081054889	-0.1030949539	-0.441365
C	 0.0536367771	 0.0090029137	-0.004488198	 0.057173
C	 0.3179707694	-0.6000938187	 1.4269201826	 0.095306
O	 0.68719429	 0.3291618511	 2.4115959736	-0.439459
C	-1.1343269722	-1.1912957984	 1.4331686775	-0.062819
C	-2.3407167521	-0.3980999715	 1.9844663375	-0.038129
C	-2.2115396483	 1.0820407766	 1.8233102806	-0.303101
C	-2.5539285386	 0.2520487357	 0.6031282322	-0.107434
C	-1.3854994171	-0.5775071955	 0.021051322	-0.055795
H	-0.6284175054	 1.8194440664	 0.04902248	 0.299489
H	 0.6873022176	-0.4495123599	-0.7694518475	 0.086767
H	 1.0576451447	-1.4115528186	 1.3828682161	 0.071089
H	 0.946569086	 1.126040598	 1.9257792193	 0.289695
H	-1.2023467427	-2.2673891298	 1.5887832614	 0.067591
H	-3.0834272125	-0.8274547601	 2.6456826073	 0.090797
H	-3.0597313281	 1.6452933969	 2.2017118229	 0.114775
H	-1.2592046602	 1.5693709824	 1.9786416932	 0.114891
H	-3.4827585249	 0.4246659806	 0.0726680798	 0.091559
H	-1.677195416	-1.2028188778	-0.8226785667	 0.068971
145.3726	196.4974	226.6896	255.7048	336.6095	370.4188	490.2911	519.8884	594.893	636.3624	647.7051	733.8874	741.613	782.7461	840.3943	857.3057	906.1255	912.2864	915.8633	998.6975	1027.5257	1042.3585	1049.1202	1070.4543	1086.2545	1101.8628	1131.9867	1168.9082	1189.681	1205.555	1213.291	1242.8784	1281.8025	1291.8938	1310.9658	1323.5384	1359.29	1382.1051	1390.3346	1416.2735	1495.6481	2995.3052	3059.806	3105.828	3117.1249	3139.6054	3174.2506	3185.7464	3236.0907	3718.6771	3805.736
OC1C(O)C2C3CC3C12	O[C@H]1[C@@H](O)[C@H]2[C@H]3C[C@H]3[C@@H]12	
InChI=1S/C7H10O2/c8-6-4-2-1-3(2)5(4)7(6)9/h2-9H,1H2	InChI=1S/C7H10O2/c8-6-4-2-1-3(2)5(4)7(6)9/h2-9H,1H2/t2-,3+,4-,5+,6-,7+
