19
gdb 13857	4.06744	1.53417	1.16777	3.9419	72.6	-0.229	0.0386	0.2676	1045.7971	0.166851	-365.115153	-365.106928	-365.105984	-365.148155	29.869	
C	-0.0420767647	 1.475660708	 0.1254570656	-0.495651
C	 0.0096932573	-0.0430704658	 0.048348357	 0.38363
O	 1.0607904136	-0.6634350737	 0.0985810704	-0.377493
N	-1.1881860537	-0.6818211188	-0.0849698512	-0.071026
C	-2.5142253303	-0.064433765	-0.1466223577	-0.158736
C	-3.4294560315	-1.2269590277	-0.5623536946	-0.217571
C	-2.7370027458	-2.45426551	 0.0528832928	-0.22369
C	-1.2457818152	-2.1469663074	-0.1356185934	-0.14369
H	 0.9686518674	 1.8388331648	 0.3085435975	 0.144643
H	-0.4112520678	 1.9056760207	-0.8119550899	 0.134917
H	-0.7043116626	 1.820383417	 0.9263972248	 0.130615
H	-2.8124008608	 0.3378142436	 0.8328921253	 0.106472
H	-2.5414705989	 0.7628247069	-0.8626464725	 0.112227
H	-4.4583444666	-1.0883786504	-0.2224957555	 0.106502
H	-3.4457293346	-1.3126179972	-1.6543122522	 0.112025
H	-2.9748181647	-2.5235865994	 1.1201923916	 0.109155
H	-3.0333607814	-3.395290037	-0.4156619122	 0.107382
H	-0.8735638463	-2.5105585591	-1.1023987397	 0.111893
H	-0.6031090034	-2.5759975995	 0.6365577238	 0.128397
67.	123.023	145.0128	201.0026	220.9087	253.8664	379.33	518.482	574.8571	601.9568	618.0219	768.0784	867.7728	879.9613	922.1643	925.704	956.6238	993.1999	1028.0651	1049.8693	1085.4777	1149.6536	1186.176	1196.6327	1220.2747	1250.7582	1276.8541	1323.4082	1346.1047	1369.1738	1375.5117	1382.2981	1433.139	1471.2358	1485.8027	1491.2858	1499.2858	1520.3258	1532.1486	1756.6844	2989.5371	3019.9994	3039.9698	3045.5063	3050.7157	3067.851	3097.5201	3100.438	3105.9203	3113.9877	3160.4848
CC(=O)N1CCCC1	CC(=O)N1CCCC1	
InChI=1S/C6H11NO/c1-6(8)7-4-2-3-5-7/h2-5H2,1H3	InChI=1S/C6H11NO/c1-6(8)7-4-2-3-5-7/h2-5H2,1H3
