17
gdb 32134	2.78612	1.43123	0.95185	1.8176	81.22	-0.1983	0.0013	0.1996	1201.691	0.138025	-418.078881	-418.070743	-418.069798	-418.111426	31.169	
C	-0.0397480513	 1.4194025026	-0.0214213049	-0.227092
O	-0.0352824553	-0.0037254394	 0.0168393903	-0.26535
C	-1.2320458271	-0.6274829867	 0.0101127212	 0.456733
C	-1.2167715877	-2.0269713853	 0.0417195855	-0.254289
C	-2.4469588956	-2.6661160789	 0.0385862828	-0.046976
C	-3.6245636891	-1.9274030475	 0.0013436191	-0.210516
C	-3.5189190453	-0.5318614938	-0.0295270321	 0.37893
N	-4.6355249778	 0.2796905934	-0.1219006257	-0.565995
N	-2.3370981604	 0.1045897525	-0.0196826571	-0.426701
H	 1.0108427171	 1.7147005452	-0.0190950301	 0.123585
H	-0.5349316426	 1.7915098889	-0.9232738776	 0.130208
H	-0.5511059809	 1.839240963	 0.8501835433	 0.126208
H	-0.2761595596	-2.5600401726	 0.0704045546	 0.099176
H	-2.4924639725	-3.7503716522	 0.0647131607	 0.100717
H	-4.5956126783	-2.4083816028	-0.0105581421	 0.081329
H	-4.4633694744	 1.2399273105	 0.1355781117	 0.25078
H	-5.4967630092	-0.0972098069	 0.2411659705	 0.249251
109.5017	168.2273	208.5376	214.4722	254.1098	374.8146	409.1838	460.2667	476.9133	534.6303	573.7797	612.2086	701.7481	743.6904	754.9942	810.0493	849.3831	978.1975	982.0841	995.59	1064.2273	1089.0511	1134.1187	1174.9358	1178.9244	1222.4449	1295.1869	1338.9412	1376.503	1454.4448	1478.9672	1489.9712	1505.0901	1513.6881	1625.0272	1632.094	1649.2615	3037.2473	3105.1894	3140.243	3176.6885	3196.525	3222.3085	3579.2594	3693.1865
COC1=CC=CC(N)=N1	COc1cccc(N)n1	
InChI=1S/C6H8N2O/c1-9-6-4-2-3-5(7)8-6/h2-4H,1H3,(H2,7,8)	InChI=1S/C6H8N2O/c1-9-6-4-2-3-5(7)8-6/h2-4H,1H3,(H2,7,8)
