21
gdb 84121	2.3274	1.65792	1.12432	1.6776	84.06	-0.2352	0.0187	0.2539	1163.2993	0.183268	-387.092523	-387.083928	-387.082984	-387.125543	33.058	
C	-0.6452230639	 1.4749709295	-0.0514323771	-0.401744
C	-0.0757429879	 0.049850845	-0.0097994113	-0.03452
C	 0.8802128186	-0.2741057261	-1.141533447	-0.172569
C	 1.9982063831	-0.8963952411	-0.757006708	 0.307746
C	 3.1477959397	-1.3463641564	-1.600549693	-0.499766
C	 2.0083277086	-1.0838402615	 0.7424777201	 0.029775
O	 2.9139779552	-0.1752003997	 1.4242209472	-0.296759
C	 1.8137295145	 0.6924109744	 1.7791798404	-0.084901
C	 0.7644223128	-0.310722598	 1.2375259231	-0.092613
H	 0.1465055229	 2.2299983862	-0.0547151767	 0.120512
H	-1.2434535726	 1.6229343167	-0.9566089608	 0.114946
H	-1.2944783771	 1.6663147752	 0.8095394155	 0.113602
H	-0.9349025073	-0.6365333788	-0.0572223174	 0.079478
H	 0.6474527183	-0.0163672962	-2.1715734976	 0.084972
H	 3.0105183786	-1.0823461255	-2.6525850874	 0.120463
H	 4.0799594623	-0.8898397883	-1.2472187924	 0.142463
H	 3.2859475013	-2.4333895382	-1.5359772354	 0.12348
H	 2.1849905594	-2.1184969104	 1.0622138024	 0.070097
H	 1.7837052383	 0.8791293376	 2.8586156865	 0.101257
H	 1.8663703011	 1.6542875295	 1.2551843274	 0.099189
H	 0.1796355141	-0.7848483237	 2.0264948715	 0.074891
100.3463	144.6758	186.3784	213.1817	229.0963	259.0841	322.1699	377.1479	485.9509	556.69	584.9066	669.6874	755.6283	843.6559	852.891	881.304	907.4125	952.1745	965.6762	1002.3521	1008.9816	1021.1659	1031.3758	1065.3328	1068.2007	1122.216	1153.5867	1167.6212	1183.1467	1233.193	1262.7455	1293.8648	1299.7346	1337.925	1346.3822	1362.4977	1370.2319	1407.5058	1410.7052	1477.8159	1491.1169	1496.5098	1503.0651	1522.7317	1715.9801	2978.0021	3019.2671	3020.8639	3028.2413	3034.2072	3062.5306	3071.5728	3098.1851	3102.3394	3109.4365	3111.8625	3164.8631
CC1C=C(C)C2OCC12	C[C@H]1C=C(C)[C@H]2OC[C@@H]12	
InChI=1S/C8H12O/c1-5-3-6(2)8-7(5)4-9-8/h3,5,7-8H,4H2,1-2H3	InChI=1S/C8H12O/c1-5-3-6(2)8-7(5)4-9-8/h3,5,7-8H,4H2,1-2H3/t5-,7-,8+/m0/s1
