16
gdb 46960	3.18049	1.6772	1.24155	5.3669	70.07	-0.2384	0.0092	0.2475	975.7348	0.128105	-434.089627	-434.082631	-434.081687	-434.121579	26.733	
N	-0.114842958	 1.3064189854	 0.1797919341	-0.526589
C	-0.0259240695	 0.0782815736	-0.083679126	 0.414252
O	 1.0838480729	-0.5279082028	-0.6093781855	-0.23824
C	 0.8876851648	-1.9312924593	-0.803723017	-0.097367
C	-0.6318698893	-2.201870049	-0.6537001626	-0.04824
N	-0.9842305996	-3.263576489	 0.2879072596	-0.302139
C	-1.1819771549	-2.6352630044	 1.5098101399	 0.056095
N	-1.3044725748	-1.3644411004	 1.5100447004	-0.238003
C	-1.1335143294	-0.941560796	 0.1024511892	-0.068887
H	 0.7665142409	 1.7835033137	-0.0184702269	 0.222552
H	 1.2749160984	-2.1888535127	-1.7933585388	 0.119644
H	 1.4579795868	-2.4838296139	-0.0468504222	 0.109818
H	-1.107257268	-2.3597143868	-1.6231443539	 0.103449
H	-0.4796529858	-4.1381759613	 0.2607855572	 0.244116
H	-1.2744342527	-3.2419556377	 2.4061950172	 0.131902
H	-2.0756265417	-0.5289235093	-0.2664965745	 0.117636
77.3751	103.3493	237.6557	328.6061	455.3556	495.4909	559.5382	587.1489	646.7656	684.6388	780.0281	865.6744	885.1184	894.357	914.2251	942.7646	962.7201	1014.2559	1031.6591	1050.5188	1089.3335	1107.0661	1132.3186	1229.9218	1249.7473	1263.9185	1283.5394	1295.548	1334.0363	1366.2554	1392.8569	1432.4689	1517.3666	1680.693	1783.6109	3028.4868	3079.6605	3085.9142	3102.6316	3187.1475	3471.7627	3600.2034
N=C1OCC2NC=NC12	[NH][C]1OC[C@H]2N[CH][N][C@@H]12	
InChI=1S/C5H7N3O/c6-5-4-3(1-9-5)7-2-8-4/h2-4,6H,1H2,(H,7,8)	InChI=1S/C5H7N3O/c6-5-4-3(1-9-5)7-2-8-4/h2-4,6H,1H2,(H,7,8)/t3-,4-/m1/s1
