18
gdb 27755	2.23349	1.78386	1.016	0.7815	81.43	-0.173	0.0588	0.2318	1162.5097	0.148183	-401.950916	-401.942321	-401.941377	-401.984213	31.894	
C	 0.0057878282	 1.5233342187	-0.0131883701	-0.500033
C	-0.0312931275	 0.0261845296	 0.0024329683	 0.127291
C	-0.1030673277	-0.8429638772	-1.0538491759	 0.215754
C	 0.1803165952	-1.276512107	-2.4847951122	-0.365423
C	 0.3137235662	-2.7240154061	-1.8790613442	-0.168152
N	-0.1088232627	-2.145031498	-0.5871511792	-0.050132
C	 0.0139778773	-2.1458402761	 0.7673170571	 0.32572
O	 0.0508455441	-3.3240401919	 1.4421019499	-0.434205
C	 0.0035745507	-0.823771722	 1.1738878443	-0.378355
H	 0.8703803154	 1.9130019006	 0.5373310062	 0.119513
H	 0.065819423	 1.9034775165	-1.0373748687	 0.11521
H	-0.8883430954	 1.9635043166	 0.4459420405	 0.121324
H	-0.6361871434	-1.1589721037	-3.2032565622	 0.116815
H	 1.1010422155	-0.8923628286	-2.9316364489	 0.11988
H	-0.3642849518	-3.4897530791	-2.2640755706	 0.122768
H	 1.337393431	-3.1082568691	-1.8667171115	 0.128044
H	 0.1087781515	-3.1278088597	 2.3820946909	 0.30406
H	-0.0349608694	-0.4868249835	 2.2007136363	 0.079922
95.0149	106.744	187.0791	215.8308	241.0163	244.1366	282.0985	382.2125	582.8152	588.5638	628.6447	647.5189	676.4708	722.2238	730.6	802.7431	909.1431	935.6437	993.5723	1045.2991	1060.8889	1117.0769	1139.1338	1153.6249	1184.8434	1203.7406	1218.2562	1261.2714	1272.8531	1336.047	1369.6088	1417.9614	1482.6898	1484.9925	1497.709	1506.4862	1530.5914	1577.4941	1648.5008	3017.646	3052.196	3058.1659	3063.0028	3094.5273	3100.6525	3114.049	3219.908	3843.6071
CC1=C2CCN2C(O)=C1	Cc1c2CCn2c(O)c1	
InChI=1S/C7H9NO/c1-5-4-7(9)8-3-2-6(5)8/h4,9H,2-3H2,1H3	InChI=1S/C7H9NO/c1-5-4-7(9)8-3-2-6(5)8/h4,9H,2-3H2,1H3
