14
gdb 46181	1.86923	1.65965	1.30366	3.558	75.37	-0.2465	0.0142	0.2607	1051.7887	0.098275	-399.489216	-399.48039	-399.479446	-399.522743	32.266	
O	-0.0483912519	 0.0034389601	 0.0170538069	-0.335157
C	-0.0453770078	 1.1970452017	 0.0228418915	 0.403376
N	-1.014170564	 2.1561986462	 0.0427289463	-0.319477
C	-0.1374299344	 3.3244802799	 0.0348645002	-0.192354
C	 1.0897987737	 2.3298869335	 0.0101110906	-0.196289
C	 1.9064729758	 2.3396246302	 1.2112750978	 0.285392
C	 2.5547841805	 2.3385369121	 2.2223651968	-0.434206
C	 1.8666376291	 2.3516061279	-1.2170923125	 0.2856
C	 2.4816786062	 2.360535786	-2.2487220241	-0.434368
H	-2.0193508303	 2.0703613087	 0.0590113008	 0.262004
H	-0.216838332	 3.945780303	-0.8601414474	 0.133815
H	-0.1880760994	 3.9361927056	 0.938527675	 0.133791
H	 3.1410799654	 2.3303667721	 3.1079424048	 0.203936
H	 3.0390898492	 2.3615641731	-3.1527953865	 0.203935
96.7411	120.0672	122.9356	152.7595	215.3338	359.4365	364.8527	432.0558	497.6031	543.4571	573.3578	625.3926	626.8525	650.2192	654.8451	656.8749	729.7239	768.2309	891.3472	945.5692	1011.7576	1115.8082	1154.8292	1183.3658	1219.5147	1293.0359	1394.8434	1523.2805	1923.6155	2239.246	2243.5442	3062.3933	3122.4188	3501.3167	3502.1888	3618.7928
O=C1NCC1(C#C)C#C	O=C1NCC1(C#C)C#C	
InChI=1S/C7H5NO/c1-3-7(4-2)5-8-6(7)9/h1-2H,5H2,(H,8,9)	InChI=1S/C7H5NO/c1-3-7(4-2)5-8-6(7)9/h1-2H,5H2,(H,8,9)
