19
gdb 97722	4.93863	0.68099	0.65197	1.99	88.84	-0.2283	0.0269	0.2553	1756.6336	0.158887	-385.828723	-385.819548	-385.818603	-385.863985	33.526	
O	 0.2935198571	 1.0398660086	 0.7573314603	-0.404081
C	 0.021061449	 0.0847337607	-0.2619048	-0.201929
C	-1.3283220828	-0.4698028365	-0.205675371	 0.224714
C	-2.4615517148	-0.8835327596	-0.1438021487	-0.21607
C	-3.7942996296	-1.3745892098	-0.0979431615	 0.228843
C	-4.487269903	-1.7397437061	 1.2001487095	-0.314072
C	-4.3155332389	-2.8118464388	 0.1731295013	-0.095068
C	-5.3578731782	-2.6599491905	-0.9379176346	-0.221386
C	-4.853498653	-1.2053300182	-1.2066215412	-0.294634
H	-0.4382413226	 1.665642132	 0.7624315246	 0.285091
H	 0.1943432598	 0.5113436926	-1.263548608	 0.1153
H	 0.7648137448	-0.7093416057	-0.1278936362	 0.136893
H	-3.8310380782	-1.8015493129	 2.061096576	 0.126717
H	-5.4733716825	-1.3294739956	 1.4095439158	 0.108412
H	-3.724156971	-3.6975178123	 0.3700623977	 0.099647
H	-5.1774990153	-3.3198062932	-1.7886117514	 0.10851
H	-6.4010576694	-2.7711881451	-0.6249088582	 0.100163
H	-5.5690423514	-0.3917411291	-1.051140503	 0.097847
H	-4.4062336201	-1.0968272805	-2.1959117213	 0.115105
30.9664	79.665	99.6019	166.9136	261.5896	268.7104	326.4659	388.5998	450.2926	492.4179	519.0608	607.094	710.7373	786.3205	816.1092	836.3248	914.3274	934.4084	965.7462	976.9709	996.6034	1025.6572	1038.7007	1070.3391	1088.1813	1102.3483	1149.5576	1208.5591	1215.8064	1223.745	1244.7982	1283.1619	1308.5506	1352.4797	1393.3379	1421.7213	1482.7463	1483.4333	1490.5571	1509.5313	2340.3479	2969.2987	3047.5646	3054.5294	3055.4891	3104.4696	3105.7188	3125.5231	3190.1976	3211.6165	3816.5017
OCC#CC12CC1CC2	OCC#C[C@]12C[C@H]1CC2	
InChI=1S/C8H10O/c9-5-1-3-8-4-2-7(8)6-8/h7,9H,2,4-6H2	InChI=1S/C8H10O/c9-5-1-3-8-4-2-7(8)6-8/h7,9H,2,4-6H2/t7-,8+/m1/s1
