23
gdb 104410	2.40556	1.31693	1.14941	1.6952	80.57	-0.2409	0.0644	0.3053	1231.7347	0.204952	-425.435602	-425.4256	-425.424656	-425.470103	37.817	
C	-0.2009646315	 1.7275990455	-0.2052246633	-0.412739
C	-0.2627832248	 0.1961357322	-0.1490768461	-0.232166
C	 0.7157224595	-0.5001153182	-1.1043459158	 0.362669
O	 0.4511578439	-0.1093441421	-2.4601190301	-0.485517
C	 2.2070367638	-0.2679877033	-0.7620425348	-0.097041
O	 2.9188960779	-1.4459159762	-1.1161968753	-0.268735
C	 2.0179086842	-2.3650074371	-1.7359293654	-0.080335
C	 0.6398895571	-2.0472300538	-1.1407476544	-0.026535
C	 0.4360308109	-2.7190504064	 0.2209697096	-0.416174
H	 0.7908585113	 2.1071904662	 0.0645243475	 0.120683
H	-0.4486949495	 2.0998583927	-1.2046641202	 0.115653
H	-0.9201672481	 2.169150059	 0.4904964581	 0.120856
H	-0.0657879371	-0.1354328687	 0.8757013448	 0.100545
H	-1.2775297332	-0.1328196562	-0.4023218381	 0.103755
H	 0.7497967774	 0.7980985357	-2.575431201	 0.278171
H	 2.6036096835	 0.5960119851	-1.3156040778	 0.082144
H	 2.3535963727	-0.0722769373	 0.3088427655	 0.093559
H	 2.0114880155	-2.2238475539	-2.8246448957	 0.099939
H	 2.3676171919	-3.3773356717	-1.5105185545	 0.096983
H	-0.1629084667	-2.3358332993	-1.8252943495	 0.084922
H	 1.2370514221	-2.4591727568	 0.9208969456	 0.127173
H	-0.5190452437	-2.4438553379	 0.6765808991	 0.116844
H	 0.4434468427	-3.8073546977	 0.1041128118	 0.115346
83.373	100.3237	153.6429	181.3847	223.9991	244.9726	280.8575	306.3322	339.3652	358.9646	387.0588	472.487	483.1761	624.9907	713.5779	774.3993	789.2965	871.9812	912.0989	941.9269	965.1782	976.1029	984.1517	1016.4217	1041.544	1078.4348	1105.8839	1107.513	1166.947	1187.4588	1192.42	1231.7931	1250.5744	1282.6695	1326.1319	1328.2387	1358.7796	1366.4476	1379.5253	1402.6284	1410.9079	1423.027	1477.7573	1498.8206	1502.3666	1503.5345	1510.2121	1513.2129	1521.2176	2985.7799	3016.1836	3023.4625	3032.827	3035.7143	3038.6451	3071.1298	3074.9866	3079.0994	3102.2404	3104.8157	3107.8042	3114.5858	3822.006
CCC1(O)COCC1C	CC[C@@]1(O)COC[C@H]1C	
InChI=1S/C7H14O2/c1-3-7(8)5-9-4-6(7)2/h6,8H,3-5H2,1-2H3	InChI=1S/C7H14O2/c1-3-7(8)5-9-4-6(7)2/h6,8H,3-5H2,1-2H3/t6-,7-/m1/s1
