20
gdb 76134	2.27797	1.32263	1.1285	4.5399	77.25	-0.2311	0.0147	0.2458	1205.6854	0.169083	-440.318127	-440.308038	-440.307093	-440.352639	37.598	
C	-0.2191901194	 1.5084797698	 0.069153931	-0.460291
C	 0.0070452504	 0.011614039	 0.015670988	 0.25422
C	-1.1998237902	-0.7879360854	-0.4397315889	-0.445957
C	 1.3598499165	-0.5236440796	-0.3438026278	 0.103676
O	 2.4397609588	 0.2888835869	-0.6265136389	-0.431307
C	 0.8640731325	-0.6879383219	 1.1036346289	-0.267422
C	 1.5656082714	 0.0810655902	 2.1608854413	 0.460034
N	 1.4382609766	-0.3993916809	 3.4270039355	-0.534457
O	 2.2510890694	 1.0800790279	 1.9328636043	-0.41383
H	 0.6589362419	 2.0481839307	 0.4215046424	 0.14782
H	-0.4695581277	 1.8775145841	-0.9316532583	 0.118283
H	-1.0571346165	 1.7510188678	 0.7326836634	 0.108771
H	-1.5360981087	-0.4435497815	-1.42434786	 0.123693
H	-0.9729704591	-1.8560784628	-0.5204101228	 0.111899
H	-2.0383534967	-0.6747182992	 0.2576836301	 0.114677
H	 1.3866177586	-1.4373825126	-0.9336546121	 0.096737
H	 2.6202114638	 0.8114755394	 0.179297797	 0.309602
H	 0.5200677801	-1.6739315155	 1.401843955	 0.077042
H	 0.8364926464	-1.1713296498	 3.6512252247	 0.262695
H	 1.8988379622	 0.0963636036	 4.1724949672	 0.264116
79.4559	148.6207	158.5402	172.7405	184.4941	225.1749	260.4044	282.3326	343.5465	364.4731	427.0597	471.4005	536.2102	586.3612	642.867	659.8117	690.7945	804.4956	818.1025	842.6143	956.812	976.2152	980.982	1026.2199	1057.2135	1091.8762	1107.2538	1146.3468	1182.2605	1235.1681	1293.5078	1335.6528	1378.4282	1409.8326	1427.9708	1443.6833	1482.4891	1484.9258	1495.496	1506.5964	1515.1035	1614.5422	1726.3204	3020.5055	3033.3965	3083.5112	3087.5432	3095.282	3128.7403	3146.5479	3156.0886	3540.091	3606.8063	3745.7305
CC1(C)C(O)C1C(N)=O	CC1(C)[C@@H](O)[C@H]1C(=O)N	
InChI=1S/C6H11NO2/c1-6(2)3(4(6)8)5(7)9/h3-4,8H,1-2H3,(H2,7,9)	InChI=1S/C6H11NO2/c1-6(2)3(4(6)8)5(7)9/h3-4,8H,1-2H3,(H2,7,9)/t3-,4-/m0/s1
