15
gdb 10140	2.80785	1.40018	0.98462	3.201	68.51	-0.2878	-0.0121	0.2756	1164.7283	0.115738	-362.620538	-362.611539	-362.610595	-362.654693	30.982	
C	-0.0064897567	 1.4937083257	 0.0456456929	-0.388934
C	-0.1171799344	-0.0173859112	 0.1214997642	-0.048001
O	 0.8368424111	-0.4773362314	 1.0804357642	-0.238547
C	 0.8704292524	-1.8771124834	 1.2226537111	-0.173792
C	 2.0396622762	-2.2599660327	 2.0120865844	 0.300717
C	 3.0028213113	-2.5970561904	 2.6418650323	-0.379243
C	-0.3749796137	-2.3927336135	 1.8555768732	 0.280954
N	-1.3629209837	-2.7734030044	 2.3170502677	-0.323424
H	 1.0013538751	 1.7923692652	-0.2550195047	 0.133016
H	-0.7194970259	 1.8846462595	-0.68588458	 0.124451
H	-0.2248791709	 1.9430165551	 1.0179882415	 0.138433
H	-1.1292857423	-0.3226340227	 0.4228925025	 0.121002
H	 0.0942661359	-0.4792676564	-0.856215344	 0.097625
H	 0.9375333197	-2.3604386739	 0.2316540626	 0.142276
H	 3.8541383059	-2.8888370454	 3.2069164821	 0.213466
71.8974	90.931	126.1926	133.1606	226.5134	257.1715	286.4121	350.645	402.3665	499.639	570.4458	628.7682	651.8227	691.9512	825.7626	885.4921	902.5517	1021.1412	1047.8982	1117.9476	1147.4803	1186.6391	1302.2338	1324.6641	1330.2227	1404.1465	1436.0527	1483.4185	1499.5464	1525.7999	2256.8365	2357.9665	2949.9259	2978.3606	3026.2253	3049.6843	3125.047	3129.3437	3500.9899
CCOC(C#C)C#N	CCO[C@@H](C#C)C#N	
InChI=1S/C6H7NO/c1-3-6(5-7)8-4-2/h1,6H,4H2,2H3	InChI=1S/C6H7NO/c1-3-6(5-7)8-4-2/h1,6H,4H2,2H3/t6-/m0/s1
