18
gdb 49758	3.22068	1.42591	1.15586	2.2018	76.6	-0.2242	-0.0273	0.1969	1076.6194	0.148361	-401.93273	-401.925077	-401.924133	-401.965275	29.119	
O	-0.0657086981	 0.1274424981	-0.9915061578	-0.246759
C	 0.4195564177	 0.6616690014	-0.0277213983	 0.143285
C	 1.194521926	 1.9667063462	-0.071181687	-0.120242
C	 0.9236715059	 2.8693861229	-1.2582031174	-0.069855
C	 0.7898618975	 4.1315411508	-0.8569030002	-0.102861
C	 0.9358315828	 4.2391519463	 0.6409650802	-0.019503
C	-0.3583635083	 4.4778670432	 1.4607783889	-0.243711
C	-0.4456678795	 2.9388487828	 1.5792161935	-0.178196
N	 0.9720127718	 2.8149315045	 1.1139349631	-0.114795
H	 0.3722783713	 0.1941322194	 0.9815117084	 0.091526
H	 2.2521934684	 1.6366826077	-0.082891396	 0.112534
H	 0.8795584299	 2.4988443188	-2.2738283795	 0.119286
H	 0.6242605295	 4.9897033228	-1.4981721243	 0.104254
H	 1.8064643053	 4.842616355	 0.9290074948	 0.083233
H	-0.171346146	 4.9767721289	 2.4133866256	 0.112995
H	-1.1795443053	 4.9777571171	 0.9451794411	 0.10875
H	-0.6176956487	 2.5228683343	 2.5759791955	 0.108328
H	-1.17744657	 2.5051942098	 0.8846893397	 0.111731
73.2674	126.246	187.9499	217.775	278.8633	430.5406	431.3009	635.9639	680.3299	697.0903	743.5238	780.1514	785.0853	846.8247	890.0176	922.4556	961.629	963.5115	996.0493	1032.0513	1043.4085	1083.8569	1093.8403	1123.7497	1154.0194	1181.284	1214.0998	1247.1742	1266.4411	1269.0857	1300.1994	1325.7004	1335.09	1354.189	1415.1423	1485.0749	1511.0204	1671.0236	1828.1991	2880.5998	2911.2059	3011.0064	3015.2255	3075.269	3082.1496	3135.3711	3196.9749	3232.1038
O=CC1C=CC2CCN12	O=C[C@H]1C=C[C@H]2CCN12	
InChI=1S/C7H9NO/c9-5-7-2-1-6-3-4-8(6)7/h1-2,5-7H,3-4H2	InChI=1S/C7H9NO/c9-5-7-2-1-6-3-4-8(6)7/h1-2,5-7H,3-4H2/t6-,7+/m0/s1
