18
gdb 19717	3.38975	2.45563	2.41562	1.6248	69.26	-0.2412	0.0872	0.3284	713.6646	0.157876	-347.789161	-347.783565	-347.78262	-347.81838	24.544	
C	-0.0562824435	 1.4890393604	 0.1223304834	-0.298952
C	 1.2937951131	 0.821127677	-0.0207553801	-0.044143
C	 0.0179070304	-0.0088581253	 0.0281270925	-0.028928
C	-0.0063943192	-0.6390505716	-1.3812964979	 0.091208
C	 1.4806481306	-0.98186959	-1.582263683	-0.218274
C	 1.8856158161	 0.5093890185	-1.4175329925	-0.053091
C	 0.996378751	 1.1058580259	-2.5138224622	-0.09093
O	-0.2383005682	 0.3690584997	-2.3811938893	-0.279552
H	-0.277576343	 1.9038587404	 1.100780021	 0.104268
H	-0.4981838268	 2.034761796	-0.7011528094	 0.13154
H	 1.9797956504	 0.8601452191	 0.8179556843	 0.082195
H	-0.249723717	-0.6271796393	 0.8783140432	 0.079776
H	-0.7407982746	-1.4320484461	-1.5238055516	 0.073402
H	 1.8832369431	-1.6218193836	-0.7938084771	 0.096707
H	 1.7055056785	-1.406785059	-2.5657175777	 0.094749
H	 2.9438708417	 0.7496894242	-1.5223364773	 0.065645
H	 0.8012829909	 2.1761709046	-2.387885554	 0.100763
H	 1.4172779566	 0.9447047891	-3.5154370524	 0.093617
278.6189	349.2782	410.718	472.3744	548.5104	610.2135	739.6445	759.8445	783.8499	797.1068	868.024	890.3741	909.253	920.8377	934.6836	960.8427	993.802	999.5701	1008.5582	1045.1045	1073.6315	1096.6907	1099.7986	1104.3871	1139.743	1177.9508	1192.9315	1211.9115	1267.8538	1276.7152	1302.5047	1313.3728	1330.0323	1368.2562	1385.1067	1481.6896	1490.0322	1531.5399	3009.3606	3054.4114	3062.2775	3113.1406	3117.3097	3118.9445	3137.6668	3160.7672	3171.5913	3228.7345
C1C2C1C1CC2CO1	C1[C@H]2[C@@H]1[C@@H]1C[C@H]2CO1	
InChI=1S/C7H10O/c1-4-3-8-7(1)6-2-5(4)6/h4-7H,1-3H2	InChI=1S/C7H10O/c1-4-3-8-7(1)6-2-5(4)6/h4-7H,1-3H2/t4-,5+,6+,7-/m0/s1
