23
gdb 53444	4.06403	0.76968	0.68144	0.0992	95.33	-0.2376	0.0673	0.305	1741.779	0.207079	-351.164643	-351.154938	-351.153994	-351.20078	35.978	
C	-0.012804906	 1.5050126649	-0.0056231335	-0.499963
C	-0.0099751057	 0.0485669489	-0.008306632	 0.137263
C	-0.0033575486	-1.1561385118	-0.0195190649	-0.00382
C	-0.0089222909	-2.6168881327	-0.0044710014	-0.15909
C	 0.847654864	-3.1798416072	 1.154924304	-0.17926
C	 0.8388313152	-4.7142613932	 1.1687093173	-0.202064
C	-0.5905809248	-5.2711215524	 1.2264468764	-0.176901
C	-1.4501679016	-4.7167450607	 0.0817096244	-0.202064
C	-1.4477772184	-3.1823319715	 0.0648661487	-0.179261
H	 0.5577096973	 1.9043493963	 0.8405392111	 0.144475
H	 0.4328263517	 1.9074692442	-0.9223640229	 0.144483
H	-1.0313723358	 1.9026804245	 0.0673621335	 0.144482
H	 0.4384957313	-2.9722925926	-0.9458256251	 0.092304
H	 1.8707392653	-2.7989885206	 1.071833179	 0.09805
H	 0.4461653332	-2.796314666	 2.1019117039	 0.099595
H	 1.3361411754	-5.087354492	 0.2622734422	 0.091671
H	 1.4264014628	-5.0821528435	 2.0174373584	 0.08983
H	-0.5736594252	-6.3663404028	 1.1933157631	 0.088587
H	-1.0470836022	-4.994763717	 2.1871174316	 0.092536
H	-1.0613148839	-5.0899580923	-0.8762292584	 0.091672
H	-2.4785997982	-5.0863887749	 0.1630323793	 0.08983
H	-1.9286346276	-2.7988872146	 0.9741613135	 0.099597
H	-2.0306146371	-2.803225483	-0.7808489683	 0.098048
16.6986	79.4851	87.9696	195.6123	229.0835	286.9282	309.8013	334.0981	387.9251	432.6942	490.1395	511.9799	521.8495	763.6736	792.4	822.9146	864.2044	889.7534	898.5255	928.6164	1009.2387	1037.9062	1051.416	1053.5565	1055.7601	1081.1774	1094.1817	1153.659	1178.4458	1197.8817	1260.5719	1283.5943	1286.1401	1325.3442	1328.9783	1352.6499	1369.1	1379.21	1382.3243	1392.9933	1415.2905	1479.6658	1479.7707	1481.7309	1485.2319	1486.647	1491.1171	1505.6404	2368.308	2978.441	3007.5913	3008.0597	3014.1437	3023.3194	3023.7379	3028.1445	3059.5733	3060.354	3064.9543	3074.1933	3077.8694	3082.5161	3082.5434	16.6817	79.4854	87.9696	195.6126	229.0841	286.9285	309.8017	334.0982	387.9255	432.6942	490.1401	511.98	521.8497	763.6737	792.4	822.9147	864.2044	889.7535	898.5255	928.6164	1009.2384	1037.9061	1051.4161	1053.5567	1055.7601	1081.1773	1094.1817	1153.6588	1178.4458	1197.8815	1260.5716	1283.594	1286.1397	1325.3438	1328.978	1352.6497	1369.0997	1379.2099	1382.3241	1392.9931	1415.2908	1479.6663	1479.7712	1481.7305	1485.2315	1486.6466	1491.1166	1505.64	2368.3082	2978.441	3007.5913	3008.0597	3014.1438	3023.3194	3023.738	3028.1445	3059.5733	3060.354	3064.9543	3074.1934	3077.8694	3082.5161	3082.5434
CC#CC1CCCCC1	CC#CC1CCCCC1	
InChI=1S/C9H14/c1-2-6-9-7-4-3-5-8-9/h9H,3-5,7-8H2,1H3	InChI=1S/C9H14/c1-2-6-9-7-4-3-5-8-9/h9H,3-5,7-8H2,1H3
