14
gdb 19677	4.92653	1.80967	1.68549	5.5759	64.51	-0.234	0.0239	0.2579	776.455	0.109568	-341.5178	-341.51186	-341.510916	-341.547846	23.338	
N	 0.0393398181	-1.186141191	-0.0896624095	-0.332562
C	 0.0557364195	-0.0333374393	-0.0093159791	 0.284921
C	 0.0321984108	 1.4237766778	 0.066292752	-0.133485
C	-0.151870957	 2.1366554701	 1.4101983901	-0.078436
C	 1.2475291231	 2.2923154547	 2.0084301989	-0.015864
N	 2.1675633253	 1.5697688725	 1.1021496657	-0.310584
C	 1.3816706395	 2.2030466169	-0.0079591702	-0.053657
C	 0.7630228114	 3.2749830099	 0.9821896949	-0.125716
H	-0.6766900942	 1.8163671169	-0.6673565584	 0.1244
H	-1.0490448414	 2.1830022704	 2.0122502646	 0.109301
H	 1.4124881981	 2.3931970217	 3.0728265488	 0.108562
H	 3.0681758378	 2.045516571	 1.1430550091	 0.22379
H	 1.8832628617	 2.3640668694	-0.9586785303	 0.094715
H	 0.6108261671	 4.3451467288	 0.9532647333	 0.104615
143.4803	164.7575	389.3677	460.094	536.8569	604.4716	745.0099	762.3886	770.3215	786.5301	834.006	893.7248	930.4756	955.0312	976.6746	1012.1205	1029.5199	1029.6447	1050.9846	1077.3072	1101.4879	1163.3952	1165.0251	1196.874	1227.8988	1289.8992	1338.6179	1367.2768	1391.0931	2357.5943	3084.3323	3157.1515	3203.6414	3208.6514	3222.3028	3466.6049
N#CC1C2C3NC1C23	N#C[C@H]1[C@H]2[C@H]3N[C@@H]1[C@@H]23	
InChI=1S/C6H6N2/c7-1-2-3-4-5(2)8-6(3)4/h2-6,8H	InChI=1S/C6H6N2/c7-1-2-3-4-5(2)8-6(3)4/h2-6,8H/t2-,3+,4+,5-,6+/m0/s1
