20
gdb 11856	5.91078	1.06102	1.00231	1.9242	75.74	-0.2565	0.0776	0.3341	1235.1454	0.17625	-348.980009	-348.971687	-348.970743	-349.012996	31.337	
C	 0.1094661607	 1.4611031709	 0.2131324426	-0.379371
C	-0.0380612904	-0.0451807257	-0.022977786	-0.192803
C	 0.6531086814	-0.5247042145	-1.2927558924	 0.059628
C	 2.2165297025	-0.5114647506	-1.3380950545	-0.330131
C	 2.143343235	-1.8875007556	-2.000067142	 0.470345
C	 2.8088595742	-2.3540151206	-3.2170885265	-0.266483
O	 3.1411180975	-2.8866298965	-1.925250371	-0.272423
C	 0.6827023126	-2.0588871458	-1.5827104739	-0.345021
H	 1.1634268004	 1.7484972408	 0.2938147548	 0.119656
H	-0.3274354799	 2.0354814632	-0.6114390406	 0.113537
H	-0.3908637803	 1.7705014633	 1.1358970524	 0.113122
H	 0.371755168	-0.5953357495	 0.8349346328	 0.093713
H	-1.1032167502	-0.307705656	-0.0726865765	 0.095986
H	 0.2515058294	 0.0128598523	-2.1590994785	 0.070503
H	 2.7136751135	 0.2935039107	-1.8844633869	 0.102604
H	 2.6507803798	-0.5802740303	-0.3344421024	 0.109881
H	 2.2963905883	-3.043891972	-3.8872059103	 0.11259
H	 3.582735119	-1.7437062604	-3.6820950757	 0.112536
H	 0.6014091771	-2.6461096508	-0.6615151731	 0.110094
H	-0.0180504386	-2.4575472927	-2.3202784524	 0.102037
62.1165	101.8142	172.9373	233.1624	312.0452	320.298	337.7809	416.5014	438.649	544.2989	714.5864	782.5709	823.0448	842.856	880.1276	885.2375	941.2613	955.847	984.9966	1006.2236	1036.566	1083.6631	1122.1982	1127.4309	1151.393	1178.6811	1198.3765	1219.2453	1221.7889	1257.2811	1272.1233	1303.8268	1345.6885	1388.9423	1411.7096	1436.0635	1465.4343	1483.6064	1494.1456	1498.9792	1507.0391	1537.8904	3010.9122	3030.1655	3033.8429	3043.7928	3047.7693	3052.2014	3074.7988	3096.6901	3103.1296	3104.7762	3107.3018	3160.7821
CCC1CC2(CO2)C1	CC[C@H]1C[C@]2(CO2)C1	
InChI=1S/C7H12O/c1-2-6-3-7(4-6)5-8-7/h6H,2-5H2,1H3	InChI=1S/C7H12O/c1-2-6-3-7(4-6)5-8-7/h6H,2-5H2,1H3/t6-,7+
