18
gdb 13797	4.06305	1.27079	1.16027	2.7006	70.4	-0.2236	0.0154	0.239	1103.0123	0.153126	-381.12761	-381.118638	-381.117693	-381.161443	32.208	
C	-0.3736760075	 1.6159882816	-0.5541104681	-0.373589
C	-0.5390043023	 0.0997851377	-0.4929742366	-0.130094
N	 0.5876379663	-0.5393413541	-1.1833065897	-0.085159
C	 1.7792965898	-0.8477133599	-0.422236631	-0.239153
C	 0.9137693641	-1.9521742254	-0.9414908199	-0.113382
C	 0.1588470176	-2.7794906097	 0.0655060964	 0.416523
N	-0.1994869676	-4.0163813003	-0.3892254497	-0.535189
O	-0.1067086	-2.4004021759	 1.1936102035	-0.372408
H	 0.5252896445	 1.9339288705	-0.0155713432	 0.117384
H	-0.2859748664	 1.9579036025	-1.5894841907	 0.121003
H	-1.2333900003	 2.1121053747	-0.0934072358	 0.112281
H	-0.6388879901	-0.2384165225	 0.544888584	 0.131651
H	-1.4515392496	-0.1970120252	-1.0240290982	 0.096174
H	 2.7309190441	-0.641326791	-0.9054329449	 0.113145
H	 1.7491918203	-0.7067926968	 0.6567564187	 0.136049
H	 1.2185055466	-2.4817039752	-1.8429126686	 0.081007
H	-0.0846497942	-4.2898776039	-1.348903637	 0.2614
H	-0.7500569651	-4.6009937869	 0.2180725809	 0.262356
59.8114	91.1806	160.4599	182.0412	212.3406	253.9833	279.8272	383.4689	405.815	478.258	584.3613	639.6885	732.6325	756.1492	815.2372	821.4225	911.0811	957.6808	1005.8977	1051.0861	1088.9433	1098.7029	1119.0232	1130.3584	1138.8331	1205.0169	1289.2817	1311.1978	1333.403	1386.7255	1410.496	1427.7858	1488.4529	1489.3419	1500.6798	1521.0039	1617.1449	1778.968	3027.0386	3037.888	3067.6373	3095.435	3107.309	3109.1972	3117.3616	3187.8061	3605.2831	3741.9321
CCN1CC1C(N)=O	CCN1C[C@H]1C(=O)N	
InChI=1S/C5H10N2O/c1-2-7-3-4(7)5(6)8/h4H,2-3H2,1H3,(H2,6,8)	InChI=1S/C5H10N2O/c1-2-7-3-4(7)5(6)8/h4H,2-3H2,1H3,(H2,6,8)/t4-,7?/m0/s1
