25
gdb 41811	2.12061	1.81488	1.36571	0.051	90.12	-0.2839	0.0702	0.3541	1111.4055	0.234752	-352.391212	-352.38338	-352.382436	-352.423043	33.035	
C	-0.0477002652	 1.2748019303	-0.5453266198	-0.209856
C	 1.0232855319	 2.055665369	 0.2605740059	-0.215239
C	 1.9435948651	 0.9951016662	 0.9438926895	 0.034385
C	 1.5553255311	-0.3338407888	 0.2551440877	-0.230097
C	 0.0544624816	-0.1942638604	-0.0762438078	 0.026686
C	-0.8822310785	-0.5262832039	 1.1000397415	-0.198535
C	-0.7196604145	 0.2944218451	 2.392170919	-0.188991
C	 0.6494098722	 0.1359935717	 3.0750120324	-0.182282
C	 1.8113410207	 0.9596781343	 2.4843350134	-0.209012
H	-1.0553255667	 1.6823874062	-0.4143566615	 0.089117
H	 0.1754742382	 1.3305224418	-1.6160168713	 0.091658
H	 1.605387052	 2.7058558156	-0.3992208818	 0.089918
H	 0.5673979563	 2.7113674681	 1.0083867418	 0.094429
H	 2.9892542899	 1.2348346582	 0.7256843627	 0.06116
H	 2.1177267541	-0.4376247354	-0.680477889	 0.085764
H	 1.7834636275	-1.2170287336	 0.8608116881	 0.087527
H	-0.2161558686	-0.8720206743	-0.8941049189	 0.058027
H	-1.9174574153	-0.4213283338	 0.749569953	 0.086546
H	-0.7551705133	-1.5882080552	 1.3534860631	 0.086125
H	-0.9287295875	 1.3549826589	 2.2026839548	 0.094619
H	-1.4973975516	-0.0379637216	 3.0906090398	 0.089401
H	 0.5577290682	 0.4049036012	 4.1341663244	 0.087617
H	 0.9135622927	-0.9298376236	 3.0661546779	 0.092289
H	 2.7431762466	 0.566697721	 2.9102537285	 0.088078
H	 1.7364928333	 1.9948159731	 2.8423122665	 0.090664
129.9126	162.9273	265.5281	292.3839	337.0122	365.5821	394.2543	466.2633	528.167	671.3806	723.4659	765.2062	778.121	790.2926	822.1633	833.5658	880.0399	918.6093	928.6295	937.9919	992.1867	1009.3259	1014.3023	1019.8505	1069.8956	1073.2069	1107.4473	1139.7263	1171.9655	1191.1473	1207.9173	1215.9934	1238.9124	1247.2586	1279.4067	1293.7526	1313.897	1322.6153	1345.7416	1351.9299	1358.9623	1367.2681	1383.8538	1394.4538	1400.7316	1402.8975	1481.1602	1481.2944	1485.8331	1490.8902	1497.931	1502.6571	1518.1686	3001.7933	3009.2825	3014.8033	3018.91	3022.572	3030.0278	3037.8766	3039.865	3044.6715	3047.0295	3055.1309	3057.7752	3060.1919	3070.8061	3075.7207	3093.5171
C1CC2CC1CCCC2	C1C[C@@H]2C[C@H]1CCCC2	
InChI=1S/C9H16/c1-2-4-9-6-5-8(3-1)7-9/h8-9H,1-7H2	InChI=1S/C9H16/c1-2-4-9-6-5-8(3-1)7-9/h8-9H,1-7H2/t8-,9+
