20
gdb 107923	3.35266	1.24213	1.17125	2.1575	79.35	-0.199	0.0683	0.2673	1152.4191	0.170702	-403.066531	-403.058045	-403.057101	-403.099492	32.813	
C	 0.3746968087	 1.5833123353	-0.0664651491	-0.328259
N	-0.0299200293	 0.2009155747	 0.1432595462	-0.076033
C	-0.9510372343	-0.122286157	 1.2266623799	-0.055995
C	-0.3106086221	-1.448549824	 1.4788539343	-0.142949
C	 0.9202382137	-0.7600415218	 0.7715664643	-0.027935
C	 1.3211857038	-0.1804027549	 2.1653289717	-0.321198
C	-0.1474158235	-0.3708792523	 2.537729671	 0.329853
C	-0.7617006868	-0.29720093	 3.8995506893	-0.211335
O	-2.1220207404	-0.701800246	 3.7941473827	-0.420169
H	 1.1937842605	 1.61167362	-0.793407004	 0.115752
H	-0.4690540732	 2.1356936199	-0.4940253276	 0.118886
H	 0.6988871525	 2.1168592638	 0.8411823846	 0.097013
H	-1.9978462689	 0.1508552101	 1.2337702728	 0.102945
H	-0.7040576942	-2.4537233249	 1.4946511424	 0.097241
H	 1.6602480238	-1.218763744	 0.1168291234	 0.072004
H	 1.9551331816	-0.8929627732	 2.7015811299	 0.098481
H	 1.7742946284	 0.8161470898	 2.2120388552	 0.087798
H	-0.2105132727	-0.949740381	 4.5979810142	 0.086186
H	-0.681496707	 0.7326849207	 4.2876801509	 0.087655
H	-2.5155837605	-0.663333695	 4.6702895479	 0.29006
83.0516	164.9746	174.713	196.0918	237.5415	307.0256	333.6295	434.2744	479.9605	585.9403	612.3285	693.0665	742.1647	784.842	837.8173	874.4841	893.5988	922.3385	956.6167	1006.6025	1023.6559	1044.4968	1065.2847	1085.1498	1109.3119	1130.054	1147.0314	1158.36	1179.2151	1207.3305	1216.8458	1234.8635	1247.5765	1256.7134	1288.7293	1309.8947	1403.871	1444.5259	1469.9243	1483.9009	1497.5392	1515.9056	1521.7846	2946.8173	2968.1024	2973.7594	3035.9724	3058.9026	3090.4957	3095.0912	3120.6816	3207.6764	3232.1535	3836.9413
CN1C2C3C1CC23CO	CN1[C@H]2[C@H]3[C@@H]1C[C@@]23CO	
InChI=1S/C7H11NO/c1-8-4-2-7(3-9)5(4)6(7)8/h4-6,9H,2-3H2,1H3	InChI=1S/C7H11NO/c1-8-4-2-7(3-9)5(4)6(7)8/h4-6,9H,2-3H2,1H3/t4-,5+,6-,7-/m0/s1
