15
gdb 61387	3.31309	0.85777	0.74993	1.5191	63.	-0.2639	-0.1106	0.1533	1448.0569	0.108057	-494.919342	-494.909852	-494.908908	-494.95523	32.178	
O	 1.1368579938	 1.7496378943	 0.3532371783	-0.436769
C	 0.2785866025	 0.7618858258	-0.1432774769	 0.055066
C	 0.7312427648	 0.3428276774	-1.5559395927	-0.346051
C	-0.2782740898	-0.472026035	-2.3210239396	 0.278454
O	-1.2897809666	-0.9433909115	-1.8495466861	-0.281182
C	 0.003482139	-0.7186985207	-3.8113124943	 0.1009
O	 0.9693385812	-0.2877505697	-4.3815608908	-0.209598
C	 0.2327789643	-0.4203146273	 0.8130212095	 0.124927
O	 0.8916490197	-0.422574487	 1.8256052223	-0.258867
H	 1.4736667126	 1.4011767122	 1.1949831762	 0.29699
H	-0.7552686904	 1.1413595908	-0.2173124009	 0.111679
H	 0.9674881482	 1.2444921508	-2.1319815068	 0.167414
H	 1.6770988687	-0.2147337534	-1.5183540535	 0.154595
H	-0.779110528	-1.336692864	-4.2989075934	 0.115381
H	-0.4312950699	-1.2577948329	 0.5358644786	 0.12706
30.8243	88.4961	120.5508	133.1859	144.2809	212.7521	316.6423	335.8913	403.7647	455.7702	485.6856	516.9231	616.2348	744.9423	822.0748	834.1315	859.0189	972.5099	1043.9673	1085.8141	1118.7693	1176.6273	1185.389	1288.1487	1323.0391	1362.1479	1367.2904	1389.3931	1434.7126	1445.9286	1794.3749	1808.9762	1827.4036	2932.0996	2963.8581	2994.9465	3037.3413	3081.0182	3676.7884
OC(CC(=O)C=O)C=O	O[C@@H](CC(=O)C=O)C=O	
InChI=1S/C5H6O4/c6-2-4(8)1-5(9)3-7/h2-4,8H,1H2	InChI=1S/C5H6O4/c6-2-4(8)1-5(9)3-7/h2-4,8H,1H2/t4-/m0/s1
