15
gdb 18802	3.2988	3.11186	2.39743	1.4918	64.02	-0.2306	-0.0065	0.2241	645.2604	0.12235	-362.604463	-362.599306	-362.598362	-362.633313	22.278	
N	-0.0301000297	 1.4893855233	 0.0392800031	-0.296611
C	 1.4741229409	 1.4412877577	-0.0097158507	-0.100648
C	 1.9815660783	 1.2414419859	 1.3913858762	-0.06508
C	 1.5248998344	 0.1305664167	 1.987588209	-0.072784
C	 0.8129733923	-0.7861224481	 1.0422049768	 0.020938
O	 1.7842807756	-1.0976187827	-0.0224385975	-0.286249
C	 1.2990764297	 0.0124382251	-0.7468752735	 0.120596
C	-0.0587813431	 0.0397624657	-0.0436512762	-0.054384
H	-0.3954021641	 1.893306116	 0.901457109	 0.208712
H	 1.9343973281	 2.2623048521	-0.5608055919	 0.070683
H	 2.6131593056	 1.9790593959	 1.8749281987	 0.101356
H	 1.7090613507	-0.1364745903	 3.0217019906	 0.101439
H	 0.3885320395	-1.6940490235	 1.4710876511	 0.074793
H	 1.5036262483	-0.0203808268	-1.8168820804	 0.092328
H	-0.9814044065	-0.440011527	-0.3740460543	 0.084914
365.5279	385.3345	442.5629	572.7546	641.7974	688.7686	712.0048	744.7668	759.6475	762.3366	830.7556	882.831	937.4448	953.4851	967.8611	1000.8507	1005.656	1052.3906	1061.8034	1092.1067	1115.4148	1164.205	1191.098	1206.2789	1234.8545	1296.2201	1308.5997	1316.5321	1337.6165	1365.0543	1390.0528	1650.4555	3096.8602	3098.9182	3112.5931	3122.7991	3177.7664	3202.7005	3456.7691
N1C2C=CC3OC2C13	N1[C@H]2C=C[C@@H]3O[C@H]2[C@H]13	
InChI=1S/C6H7NO/c1-2-4-5-6(8-4)3(1)7-5/h1-7H	InChI=1S/C6H7NO/c1-2-4-5-6(8-4)3(1)7-5/h1-7H/t3-,4-,5+,6+/m0/s1
