16
gdb 126314	2.95197	1.41565	1.03089	4.9275	74.71	-0.265	-0.0819	0.1831	1139.8516	0.124183	-437.902177	-437.894129	-437.893185	-437.935155	29.629	
C	-0.16490228	 1.5470557585	-0.0164590402	-0.383402
C	 0.0820795684	 0.0270358495	 0.0339691549	-0.279086
C	 0.784852874	-0.4889909491	-1.1878798194	 0.138902
C	 2.0679734231	-0.9081129227	-1.2243553431	-0.200762
C	 2.6278493523	-1.3665176228	-2.4614859508	 0.037606
N	 1.9945628506	-1.4243737069	-3.5834037828	-0.058919
O	 0.6740620838	-1.0092657168	-3.5643685791	-0.253773
C	 0.0130010176	-0.5398316678	-2.4365867623	 0.419822
O	-1.1392661292	-0.2162700288	-2.5631509398	-0.329123
H	 0.7787685027	 2.0971459651	-0.0838154921	 0.118242
H	-0.7821804871	 1.8051474612	-0.8791911598	 0.156184
H	-0.6846818031	 1.872468422	 0.8889581603	 0.123286
H	 0.6728621751	-0.2287690507	 0.9196710817	 0.106085
H	-0.8836339939	-0.4832697562	 0.1176600246	 0.137348
H	 2.6878088437	-0.9054112162	-0.3329066758	 0.124039
H	 3.6585617218	-1.7024084983	-2.5202734463	 0.143548
84.3109	103.6472	179.2225	212.8798	277.7429	314.6684	438.7102	493.4268	546.9734	563.3262	597.143	712.2487	783.1745	810.5018	875.6013	892.8941	942.0039	967.0155	978.5171	1035.9368	1070.6273	1088.9984	1118.8225	1243.5575	1279.3299	1346.3279	1348.9797	1394.9749	1405.451	1474.2053	1495.7307	1511.5445	1613.8807	1686.5437	1821.1969	3041.8972	3046.6435	3086.1816	3115.9201	3141.9764	3175.7065	3191.5363
CCC1=CC=NOC1=O	CCc1ccnoc1=O	
InChI=1S/C6H7NO2/c1-2-5-3-4-7-9-6(5)8/h3-4H,2H2,1H3	InChI=1S/C6H7NO2/c1-2-5-3-4-7-9-6(5)8/h3-4H,2H2,1H3
