19
gdb 32109	3.58492	1.10151	0.84991	1.4893	90.23	-0.1815	0.0214	0.203	1359.6052	0.161645	-382.134863	-382.126174	-382.12523	-382.167776	33.915	
C	 0.0522395859	 1.4380236319	 0.0803600427	-0.319901
N	-0.0227833101	 0.0120471911	-0.1587738498	-0.371269
C	-1.222886219	-0.6812746081	-0.0543471954	 0.386069
C	-2.4631974446	-0.0241106699	-0.0490147084	-0.243455
C	-3.6327840699	-0.7772399713	 0.011324453	-0.072905
C	-3.6084741192	-2.1627888614	 0.0740477975	-0.214004
C	-2.372785424	-2.8292578314	 0.0760663321	 0.342499
N	-2.3214391147	-4.2221961752	 0.2036662859	-0.593311
C	-1.1965455295	-2.08297162	 0.0096679903	-0.291408
H	 1.0994983465	 1.7466136029	 0.0387046052	 0.119856
H	-0.4837205716	 1.9907443464	-0.6992992951	 0.133178
H	-0.362006896	 1.7431665114	 1.0543621707	 0.114998
H	 0.7784259221	-0.5067523957	 0.1639452929	 0.232285
H	-2.5169853581	 1.0556452115	-0.0936731832	 0.079937
H	-4.5896838263	-0.2639121383	 0.0118817051	 0.084891
H	-4.5304800084	-2.732554483	 0.1289051199	 0.071004
H	-3.1496170386	-4.696737816	-0.1266091482	 0.242661
H	-1.4876017174	-4.6459036726	-0.1778491066	 0.240766
H	-0.2376514372	-2.5964938122	 0.0067012014	 0.05811
93.1801	179.5654	220.6236	231.7378	249.7787	296.5282	337.2933	428.6646	457.3499	471.1195	532.1006	604.3383	619.8118	665.579	706.59	760.3909	769.0527	821.1408	841.2962	942.1124	945.5712	1000.0436	1081.2057	1096.2568	1139.7006	1153.5332	1180.9975	1192.9985	1245.8726	1331.8223	1347.6921	1372.3394	1452.0737	1467.7815	1483.1911	1523.0339	1538.3323	1548.1251	1626.884	1651.7205	1661.8699	2978.0434	3057.6193	3115.7386	3143.717	3164.0027	3181.7214	3211.6937	3557.6287	3620.2984	3654.3453
CNC1=CC=CC(N)=C1	CNc1cccc(N)c1	
InChI=1S/C7H10N2/c1-9-7-4-2-3-6(8)5-7/h2-5,9H,8H2,1H3	InChI=1S/C7H10N2/c1-9-7-4-2-3-6(8)5-7/h2-5,9H,8H2,1H3
