13
gdb 33283	3.39857	0.83229	0.70534	5.3068	83.64	-0.287	-0.0635	0.2235	1499.3391	0.088926	-378.454284	-378.445913	-378.444969	-378.488011	29.606	
N	 0.0811109028	-3.7015871173	 0.0012437611	-0.327514
C	 0.047759358	-2.54040116	-0.0042560253	 0.201669
C	 0.0145755052	-1.1761223685	-0.0067471037	 0.117053
C	-0.0096149792	 0.0317916823	-0.0054513297	 0.017619
C	-0.0201027717	 1.4639364792	 0.0083447593	-0.009334
C	 0.505405003	 2.1879134748	 1.2639648764	-0.276169
C	 1.3312111673	 2.2058428288	 0.0290757262	-0.276166
C	-1.104886972	 2.0935264911	-0.7078587776	 0.231689
N	-1.9654597414	 2.6157468783	-1.2760179099	-0.32348
H	-0.0323725025	 3.0845786442	 1.5466949075	 0.163657
H	 0.8017742953	 1.5437584779	 2.0824867338	 0.158657
H	 2.2094432653	 1.5743352591	-0.0224664861	 0.15866
H	 1.37496397	 3.11513302	-0.5578018919	 0.163658
68.5913	99.6386	170.9946	216.5005	232.4068	244.1376	435.4257	471.8496	504.4783	565.6898	566.4334	600.717	601.1351	781.0614	822.0567	840.9613	963.0844	974.4846	1074.8777	1079.7558	1104.9288	1200.1889	1269.7128	1343.9065	1463.4156	1489.2009	2269.0514	2360.8569	2397.9334	3155.8329	3158.0635	3246.3762	3260.0553
N#CC#CC1(CC1)C#N	N#CC#CC1(CC1)C#N	
InChI=1S/C7H4N2/c8-5-1-2-7(6-9)3-4-7/h3-4H2	InChI=1S/C7H4N2/c8-5-1-2-7(6-9)3-4-7/h3-4H2
