19
gdb 78460	3.77994	1.19824	1.11979	2.734	74.23	-0.2379	0.0707	0.3086	1131.1734	0.160073	-422.963741	-422.955938	-422.954994	-422.995496	31.781	
O	 0.0825327967	 1.3817537405	 0.0219892635	-0.450494
C	 0.0980244056	-0.0152874441	-0.0288137731	 0.118333
C	-0.3141904894	-0.7804747993	 1.2070545305	-0.1015
C	-1.2247047785	-0.7454683436	-0.0333298719	-0.101504
C	-1.3141322701	-2.2503852874	-0.3359202782	-0.089167
C	-1.5646361766	-2.8073793096	 1.112875826	-0.250543
C	-0.092992862	-2.297335064	 1.3276344948	-0.089159
C	 0.1539075343	-2.752490296	-0.1470821523	 0.190328
O	 0.3917828719	-4.1228926794	-0.360372514	-0.467159
H	-0.6560502674	 1.6640850534	 0.5720063116	 0.28268
H	 0.9312094661	-0.3194407915	-0.6490054635	 0.113585
H	-0.5351664683	-0.2115437489	 2.1056838811	 0.084159
H	-2.1325861142	-0.1501349128	-0.0704582607	 0.084158
H	-1.9069446991	-2.5639098867	-1.195642553	 0.068074
H	-2.3512267951	-2.3316075609	 1.7037012133	 0.095874
H	-1.6859487463	-3.8935429157	 1.1712772588	 0.082863
H	 0.5404814742	-2.658010847	 2.1384789192	 0.068075
H	 0.9421556604	-2.2578658615	-0.7117356759	 0.081459
H	-0.2679158922	-4.6419213754	 0.1090971136	 0.27994
194.2344	196.8322	209.1473	296.3664	316.4312	318.6107	361.2084	423.4745	494.7748	581.9017	659.5797	788.6854	830.6405	839.0302	847.8839	865.0612	902.0496	944.3231	962.8659	982.4051	1005.1473	1056.6676	1057.9798	1064.4201	1095.1043	1106.6251	1108.9023	1121.9879	1157.2078	1200.6479	1235.0787	1236.9988	1246.0164	1251.8405	1278.6052	1290.9075	1303.1288	1365.2189	1442.7122	1483.6248	1514.3734	3049.1334	3105.8253	3112.1063	3112.9538	3125.0704	3141.743	3152.2892	3189.9465	3808.2899	3828.013
OC1C2C1C1CC2C1O	O[C@H]1[C@H]2[C@@H]1[C@@H]1C[C@H]2[C@H]1O	
InChI=1S/C7H10O2/c8-6-2-1-3(6)5-4(2)7(5)9/h2-9H,1H2	InChI=1S/C7H10O2/c8-6-2-1-3(6)5-4(2)7(5)9/h2-9H,1H2/t2-,3+,4-,5+,6-,7+
