14
gdb 42647	2.99726	1.47712	1.21822	3.8525	75.04	-0.2302	-0.0116	0.2186	1010.0334	0.100714	-399.45388	-399.446763	-399.445819	-399.485489	27.92	
O	 0.0019053438	 0.0790922692	-0.0455696942	-0.332924
C	 0.0059619005	 1.2703655302	 0.0557439816	 0.498529
C	-1.0462116831	 2.3349593534	-0.0052072068	-0.244909
C	-0.4058998461	 3.5597930624	 0.6209477946	-0.097169
N	 0.8517702136	 3.1131027723	 1.2615936695	-0.32095
C	 1.104605122	 2.3523804794	-0.0095004459	-0.247052
C	 0.0073227905	 3.2231605419	-0.7859925521	 0.291849
C	-0.092894567	 3.80858096	-2.0615505349	 0.025559
C	-0.1491806757	 4.3168811495	-3.1519138411	-0.360362
H	-2.1043611018	 2.2576020902	-0.210948097	 0.132045
H	-1.0056668462	 4.3842958629	 0.9849087106	 0.125035
H	 1.4814026105	 3.9151596515	 1.2674925309	 0.230432
H	 2.1264434999	 2.1395392194	-0.3081456793	 0.110329
H	-0.202710791	 4.7627975676	-4.114202246	 0.189586
96.7915	159.6197	221.6801	419.6616	448.274	467.211	515.7049	560.487	582.6227	609.5973	670.0611	699.1435	753.2257	790.0577	839.7745	889.914	905.4997	985.0452	997.7511	1020.23	1045.4711	1080.5327	1125.8658	1135.9047	1176.088	1215.5075	1309.4642	1358.0833	1419.7932	1896.9636	2229.2612	3182.2289	3204.8438	3233.1286	3462.391	3500.5423
O=C1C2C3NC1C23C#C	O=C1[C@H]2[C@H]3N[C@@H]1[C@@]23C#C	
InChI=1S/C7H5NO/c1-2-7-3-4(9)6(7)8-5(3)7/h1,3,5-6,8H	InChI=1S/C7H5NO/c1-2-7-3-4(9)6(7)8-5(3)7/h1,3,5-6,8H/t3-,5+,6-,7-/m0/s1
