18
gdb 16163	4.35632	1.6833	1.43529	0.9798	72.97	-0.2275	0.02	0.2474	926.0779	0.154019	-347.787418	-347.779971	-347.779027	-347.818904	28.771	
C	 0.0869889272	 1.3052893097	 0.3239627477	-0.253323
O	-0.0203492993	 0.0309549372	-0.2816614892	-0.286822
C	-1.2862400876	-0.5357468381	-0.1767522077	 0.430609
C	-1.754376777	-1.1031590274	 1.148136707	-0.338007
C	-1.4524323537	-2.0296811363	-0.0147251437	-0.11868
C	-2.6045244576	-2.4686077173	-0.9154997954	-0.277746
C	-3.1069782938	-1.1660216538	-1.5069880974	-0.072204
C	-2.3729395659	-0.1209885831	-1.1207958045	-0.150617
H	 1.1274305485	 1.6216630799	 0.2187338232	 0.12504
H	-0.5579111848	 2.0504507445	-0.1639634529	 0.107168
H	-0.1733592737	 1.2691202121	 1.3911697173	 0.10853
H	-1.0269130269	-1.1168030956	 1.9536542367	 0.112359
H	-2.782836433	-0.9420521379	 1.4562073046	 0.108947
H	-0.5728556253	-2.6553262005	 0.0737946961	 0.096145
H	-2.2700040741	-3.1611637531	-1.6992517236	 0.11039
H	-3.390095211	-2.9930872812	-0.355952711	 0.110273
H	-3.9829864194	-1.1165651171	-2.1441176184	 0.094136
H	-2.5325288524	 0.910069758	-1.4143326687	 0.093802
103.827	176.006	182.7142	279.0434	318.431	388.8727	444.0091	483.8606	641.5371	721.5318	741.1531	773.5718	837.1533	913.8292	928.4213	937.0124	950.1761	979.5339	1017.1761	1034.7556	1053.2509	1084.0247	1105.3507	1131.4212	1182.7809	1189.3914	1214.0157	1254.5321	1263.6735	1311.4941	1351.704	1397.2776	1463.8755	1476.4867	1484.6756	1489.8961	1508.1271	1669.0664	2989.3042	3016.7029	3040.631	3043.7159	3117.1013	3119.3679	3185.2813	3188.2411	3210.4024	3212.1637
COC12CC1CC=C2	CO[C@]12C[C@H]1CC=C2	
InChI=1S/C7H10O/c1-8-7-4-2-3-6(7)5-7/h2,4,6H,3,5H2,1H3	InChI=1S/C7H10O/c1-8-7-4-2-3-6(7)5-7/h2,4,6H,3,5H2,1H3/t6-,7-/m1/s1
