15
gdb 32365	4.90173	1.01275	0.84375	6.6452	71.86	-0.2287	-0.053	0.1757	1277.0723	0.114228	-454.000231	-453.992212	-453.991268	-454.03386	28.887	
O	 0.0117088227	 1.4510918165	 0.0083402534	-0.41868
C	 0.0388836285	 0.0353908171	 0.001381852	-0.172848
C	-1.3782596637	-0.4705088828	 0.0120414303	 0.165545
C	-2.4574432463	 0.3607451375	 0.0231404599	-0.00682
N	-3.7017561197	-0.1688334811	 0.0321249032	-0.344269
C	-3.9862473671	-1.5574294518	 0.0307872268	 0.440597
O	-5.1382787542	-1.9303275409	 0.0392560363	-0.382881
N	-2.8745049122	-2.3909317241	 0.0195879055	-0.323413
C	-1.6829382394	-1.8624246603	 0.0111091061	-0.016803
H	 0.9170561973	 1.7732533234	 0.0009292052	 0.298101
H	 0.5633667891	-0.3485657815	-0.889658118	 0.109025
H	 0.5796137786	-0.357095305	 0.8788760929	 0.108998
H	-2.3688193124	 1.4393599038	 0.0252752921	 0.160348
H	-4.5173020579	 0.4274043114	 0.0405183736	 0.270211
H	-0.8512108232	-2.5718611222	 0.0025997809	 0.11289
36.9849	93.2862	196.8341	214.784	286.1946	388.4477	401.4962	484.9842	489.468	577.5296	651.5558	711.362	780.5622	810.6741	838.3875	929.587	1007.3387	1019.2638	1062.1914	1069.5319	1105.5905	1209.7514	1213.5153	1246.3382	1260.9103	1375.7403	1431.0296	1461.8112	1470.3763	1521.1487	1570.5143	1701.9107	1814.0866	2955.5375	2973.4726	3093.1134	3228.1545	3610.999	3845.7704
OCC1=CNC(=O)N=C1	OCc1c[nH]c(=O)nc1	
InChI=1S/C5H6N2O2/c8-3-4-1-6-5(9)7-2-4/h1-2,8H,3H2,(H,6,7,9)	InChI=1S/C5H6N2O2/c8-3-4-1-6-5(9)7-2-4/h1-2,8H,3H2,(H,6,7,9)
