15
gdb 54045	2.50887	1.18125	0.83005	1.2399	72.02	-0.2688	-0.0005	0.2683	1306.7486	0.110633	-416.821436	-416.811879	-416.810935	-416.856776	33.805	
N	 0.0595694213	 1.2333760962	 0.3871183309	-0.542769
C	 0.0176954744	 0.0176271222	-0.2044160332	 0.440479
O	 0.9281289418	-0.4601754366	-0.8484665025	-0.35589
C	-1.319948817	-0.7657506253	-0.0678628565	-0.280252
C	-1.021222291	-2.2775826569	 0.1255150344	-0.367474
C	-2.2059130382	-3.1078554248	-0.0245884064	 0.293045
C	-3.1973696561	-3.7730184587	-0.1568956066	-0.415511
C	-2.1963465466	-0.2303207325	 0.9706894095	 0.298111
N	-2.8469477049	 0.2426107422	 1.8015381511	-0.329706
H	 0.9124417928	 1.7641319853	 0.3150275555	 0.272789
H	-0.6824743655	 1.5703670188	 0.9776965284	 0.287292
H	-1.832052374	-0.6463190673	-1.0305062639	 0.171033
H	-0.2592533107	-2.5329910076	-0.6165571259	 0.174045
H	-0.5690939765	-2.4316357805	 1.111810889	 0.150307
H	-4.0679512699	-4.3711387545	-0.2673401337	 0.204503
38.6995	65.3858	122.3042	166.8551	224.3599	255.0909	334.1971	344.5279	406.1542	444.8876	511.9095	523.9962	597.6773	615.3216	630.3218	662.1239	713.5026	834.8724	896.1539	976.5052	1027.8089	1063.6547	1117.7393	1197.4491	1241.9746	1331.6362	1340.0476	1353.6048	1475.0919	1621.1635	1807.3769	2245.5022	2350.6705	3043.4349	3054.8776	3099.5934	3505.5492	3594.2377	3725.9624
NC(=O)C(CC#C)C#N	NC(=O)[C@@H](CC#C)C#N	
InChI=1S/C6H6N2O/c1-2-3-5(4-7)6(8)9/h1,5H,3H2,(H2,8,9)	InChI=1S/C6H6N2O/c1-2-3-5(4-7)6(8)9/h1,5H,3H2,(H2,8,9)/t5-/m0/s1
