23
gdb 95768	1.96939	1.66856	0.97577	1.4063	89.31	-0.224	0.0284	0.2524	1293.8343	0.205242	-388.31082	-388.300951	-388.300007	-388.345176	37.214	
C	 0.0121170968	 1.5772307623	-0.0844173162	-0.402985
C	 0.0314271598	 0.0437880492	 0.0397941367	-0.075419
C	 0.6790234715	-0.557827784	-1.2102108729	-0.089157
O	 0.8952912109	-1.9457173062	-1.0731863404	-0.245321
C	 1.8386906817	-2.2144199395	-0.0614808356	-0.148762
C	 1.5973126267	-1.4742279817	 1.23643303	 0.163606
C	 2.4030908833	-2.0291033611	 2.3824904679	-0.484404
C	 0.7347797309	-0.4493617643	 1.2991417595	 0.225765
C	 0.3555537481	 0.2579433371	 2.5773147871	-0.491084
H	 1.0286845892	 1.9863426237	-0.072271176	 0.116325
H	-0.4579205603	 1.876934623	-1.0274782026	 0.113382
H	-0.5497068907	 2.0479365325	 0.7258373584	 0.118607
H	-1.0139772825	-0.3002726595	 0.0801534086	 0.082774
H	 0.0332552434	-0.4261815105	-2.0840587033	 0.102069
H	 1.6329756006	-0.03984151	-1.4157449976	 0.079423
H	 1.7921788553	-3.2959388561	 0.1199354577	 0.109166
H	 2.8640306959	-2.0017830739	-0.4232366376	 0.08763
H	 3.4519626624	-2.1546111504	 2.0828341649	 0.122535
H	 2.3932298022	-1.3927030293	 3.2677250917	 0.124131
H	 2.0454170524	-3.0252980814	 2.6755020119	 0.125287
H	 0.6893647267	-0.272909712	 3.4695867139	 0.11927
H	 0.7620677911	 1.2756702061	 2.6221956776	 0.125624
H	-0.7354100355	 0.357203286	 2.6456209164	 0.121534
87.0367	115.3171	145.7749	163.3865	223.2701	263.0126	297.4556	324.981	351.3	396.4756	410.8881	451.5149	496.3657	574.2898	624.4863	715.257	852.6311	915.2233	955.7549	960.5759	978.1024	1005.0429	1033.7154	1048.726	1082.8665	1116.144	1131.1725	1151.0243	1168.9042	1189.6857	1251.8373	1269.8896	1313.038	1320.1778	1360.6687	1385.4379	1405.0554	1407.7455	1417.1574	1430.2057	1478.7534	1479.965	1486.006	1488.6764	1497.062	1499.7881	1505.8273	1508.8699	1739.2246	2910.0818	2946.4912	2980.9639	3013.8263	3021.3522	3031.8783	3036.9679	3054.9392	3063.9139	3074.7788	3094.2574	3117.5053	3126.5279	3141.6887
CC1COCC(C)=C1C	C[C@H]1COCC(=C1C)C	
InChI=1S/C8H14O/c1-6-4-9-5-7(2)8(6)3/h6H,4-5H2,1-3H3	InChI=1S/C8H14O/c1-6-4-9-5-7(2)8(6)3/h6H,4-5H2,1-3H3/t6-/m0/s1
