22
gdb 63182	2.89089	1.35754	1.27159	0.2654	82.26	-0.2141	0.0862	0.3003	1138.2324	0.195048	-404.32762	-404.31888	-404.317936	-404.360304	34.497	
C	-0.2637656782	 1.5533669054	 0.0012318077	-0.480082
C	-0.0696776864	 0.0488941384	-0.0268916056	 0.331059
C	-1.1370568587	-0.7173324255	 0.7335198752	-0.441982
C	 0.5790106179	-0.6141873348	-1.195236052	-0.081285
C	 1.1487208691	 0.1400674385	-2.3886827563	-0.124209
O	 2.0849194562	 1.1439881436	-2.0331113597	-0.235237
C	 3.0699503696	 0.6269689547	-1.1527628274	-0.082975
C	 2.4602688379	 0.3022197353	 0.2091334332	-0.157841
N	 1.2727556923	-0.5589624663	 0.1052769157	-0.148438
H	 0.4621656724	 2.0847427454	-0.6138722138	 0.145516
H	-1.2664080442	 1.8002504179	-0.3647274552	 0.115903
H	-0.1957310187	 1.9312900472	 1.0289764408	 0.115174
H	-2.1285549091	-0.5481247011	 0.2978168336	 0.10866
H	-0.926866256	-1.7894140791	 0.7196074559	 0.122342
H	-1.1720999392	-0.3944812841	 1.78062726	 0.113571
H	 0.2349666662	-1.6148001578	-1.4614917451	 0.079989
H	 1.6332391621	-0.5879601059	-3.0610919851	 0.096322
H	 0.3573359646	 0.6404242896	-2.956984608	 0.114476
H	 3.5273543159	-0.2752351401	-1.5916958464	 0.093087
H	 3.846624056	 1.3915908693	-1.0605685866	 0.109128
H	 3.2050910193	-0.2192478768	 0.8234233995	 0.101402
H	 2.2155747412	 1.2354162962	 0.7295665695	 0.105418
133.7229	173.793	188.9533	230.4557	256.4788	293.0536	346.1941	356.7874	423.9285	467.7185	491.7466	548.0069	690.3894	723.6088	744.7738	812.0917	873.4437	929.1686	954.5113	959.4911	992.069	1022.7205	1034.724	1083.5776	1127.9167	1133.8096	1148.0518	1151.0833	1179.4854	1253.7429	1265.9148	1277.0769	1323.8885	1341.3158	1375.844	1380.6156	1406.0964	1411.7109	1420.024	1449.7864	1482.4969	1487.4819	1490.4652	1499.0612	1501.5216	1513.3454	1522.2783	2961.6967	2971.8832	3020.4071	3024.218	3029.874	3056.7471	3065.0762	3081.0054	3085.302	3087.1378	3088.5893	3120.5478	3149.1291
CC1(C)C2COCCN12	CC1(C)[C@H]2COCCN12	
InChI=1S/C7H13NO/c1-7(2)6-5-9-4-3-8(6)7/h6H,3-5H2,1-2H3	InChI=1S/C7H13NO/c1-7(2)6-5-9-4-3-8(6)7/h6H,3-5H2,1-2H3/t6-,8?/m1/s1
