19
gdb 124694	3.80451	0.92232	0.88109	2.927	77.47	-0.2415	0.0245	0.2661	1377.5549	0.160266	-419.227134	-419.217952	-419.217008	-419.262046	33.427	
C	 0.089601182	 1.5080408372	-0.1643731069	-0.396341
C	-0.0210187739	-0.0108984976	 0.0400657551	-0.072106
C	 0.7152496207	-0.4583562818	 1.3105560469	-0.075669
O	 2.0810535764	-0.089217507	 1.1864234415	-0.4217
C	-1.4479733672	-0.4835415667	 0.0776960469	 0.330632
N	-1.844478233	-1.4938314484	-0.6969453797	-0.295871
N	-3.147612198	-1.6635748601	-0.3990118747	-0.183338
C	-3.5959254704	-0.7954574742	 0.5382094826	-0.018185
C	-2.5183639746	-0.007803046	 0.8780517541	-0.284784
H	 1.1390970761	 1.8088659709	-0.1834520495	 0.13321
H	-0.382739423	 1.810385088	-1.1033279722	 0.114962
H	-0.4021218862	 2.0535602921	 0.6494215286	 0.10578
H	 0.4615697977	-0.5182808825	-0.8023527886	 0.098325
H	 0.251887669	 0.0176237977	 2.190915139	 0.080046
H	 0.604417113	-1.5469692539	 1.4261990856	 0.093755
H	 2.5402407063	-0.3627514447	 1.9853507186	 0.285992
H	-3.6676578045	-2.3770233894	-0.8801744911	 0.273664
H	-4.6195704522	-0.8046089221	 0.8782726002	 0.1306
H	-2.5066865582	 0.7974115285	 1.5943817735	 0.101029
29.3193	106.7397	120.4498	213.6177	233.0278	237.6355	289.9867	368.5162	395.8114	487.5717	503.4162	664.1765	711.1795	747.6609	775.1058	843.7257	881.2598	931.49	946.444	979.3968	1023.0211	1069.3428	1074.3222	1097.9734	1117.6602	1163.2539	1197.4622	1239.8266	1265.4915	1294.7531	1321.7835	1362.0925	1401.7748	1408.7532	1452.6972	1470.8788	1487.8158	1497.0383	1504.7812	1518.4682	1573.4406	2961.3957	3004.1831	3035.5744	3057.9713	3103.0689	3133.322	3254.9871	3274.9691	3678.6984	3835.1101
CC(CO)C1=NNC=C1	C[C@@H](CO)c1n[nH]cc1	
InChI=1S/C6H10N2O/c1-5(4-9)6-2-3-7-8-6/h2-3,5,9H,4H2,1H3,(H,7,8)	InChI=1S/C6H10N2O/c1-5(4-9)6-2-3-7-8-6/h2-3,5,9H,4H2,1H3,(H,7,8)/t5-/m0/s1
