19
gdb 126229	1.9559	1.76504	1.00028	4.1764	79.35	-0.2049	0.0095	0.2144	1212.8589	0.159993	-415.396663	-415.387075	-415.386131	-415.431383	34.188	
C	 0.0928105164	 1.5992353579	-0.1102567829	-0.372076
C	 0.0359467939	 0.0625229619	-0.0135534334	-0.312925
C	-1.3453927802	-0.5007269274	 0.0515554269	 0.273085
C	-2.1351436066	-0.8682646708	 1.1257978748	 0.21769
N	-1.8162193596	-0.8561500462	 2.4899040913	-0.598833
N	-3.3175075824	-1.3524091876	 0.6665062909	-0.259088
N	-3.3129286079	-1.3111790981	-0.6410827407	-0.166613
N	-2.1369521446	-0.7868902652	-1.0235889447	 0.004521
C	-1.8535668524	-0.6293549993	-2.4333008466	-0.337296
H	 1.1300532842	 1.9478931889	-0.1240654087	 0.11942
H	-0.3963979395	 1.9621198203	-1.0196681795	 0.121205
H	-0.4113835373	 2.0653124417	 0.7418508681	 0.121389
H	 0.5793025171	-0.3741625232	-0.8605880534	 0.110004
H	 0.5652800618	-0.2640028032	 0.8887139031	 0.128482
H	-1.5620444616	 0.0630561026	 2.8308093525	 0.243973
H	-2.6060914748	-1.1975871091	 3.0254984712	 0.251896
H	-1.7063090216	 0.4237952256	-2.6907366328	 0.142312
H	-0.9601410379	-1.1936627594	-2.7173735812	 0.143474
H	-2.7144909971	-1.0186863894	-2.9764638549	 0.169381
60.9914	109.0988	141.5329	174.4158	182.0701	196.4985	276.1104	285.1794	340.516	415.2924	504.5515	596.7845	679.5511	701.0893	733.5855	764.5146	807.7601	846.6039	969.5955	1026.1218	1042.3398	1079.7028	1116.5661	1150.152	1167.0087	1244.4141	1292.429	1302.0909	1316.243	1364.3513	1408.4587	1415.9085	1445.9414	1479.5936	1484.0124	1495.3234	1500.2333	1503.8957	1527.5089	1637.0782	1646.3376	3028.0175	3037.2702	3043.2065	3067.9201	3103.8721	3109.7588	3111.127	3161.8595	3523.9631	3610.3857
CCC1=C(N)N=NN1C	CCc1c(N)nnn1C	
InChI=1S/C5H10N4/c1-3-4-5(6)7-8-9(4)2/h3,6H2,1-2H3	InChI=1S/C5H10N4/c1-3-4-5(6)7-8-9(4)2/h3,6H2,1-2H3
