22
gdb 119477	4.90862	0.82139	0.78071	0.9447	83.73	-0.2286	0.0759	0.3045	1573.6805	0.193039	-404.294206	-404.284483	-404.283539	-404.329294	35.672	
C	 0.0682009809	 1.4958020181	 0.1864222984	-0.219446
O	-0.1226414788	 0.1023249402	 0.1457282753	-0.236982
C	 0.7695991772	-0.5964458455	 0.9912216474	-0.174739
C	 0.52915143	-2.0651907024	 0.8270147617	 0.362686
C	-0.4453272252	-2.8249871296	 1.6305401283	-0.280362
N	 0.9937010682	-3.0647675418	 1.8743086064	-0.195982
C	 1.4986367645	-3.9411541264	 0.7429715491	 0.088935
C	 1.0093171094	-5.3779063591	 0.7143862789	-0.403589
C	 1.0338187437	-2.9208027405	-0.3355887178	-0.336744
H	 1.083990284	 1.7800555381	-0.1325199546	 0.102631
H	-0.655296577	 1.9459457412	-0.4977114447	 0.126513
H	-0.0972231847	 1.9026091528	 1.1969842911	 0.10357
H	 1.814066991	-0.3481705627	 0.7325944845	 0.083763
H	 0.6207966576	-0.3143644572	 2.0469395878	 0.094486
H	-0.9237996388	-2.313683367	 2.4602290498	 0.118928
H	-1.057503735	-3.592116435	 1.1642146661	 0.109367
H	 2.5893837848	-3.9395652264	 0.8246084653	 0.084554
H	-0.0755727326	-5.4502434627	 0.5932964026	 0.116565
H	 1.4704199633	-5.9161321808	-0.1208845773	 0.118424
H	 1.2828233777	-5.8921905907	 1.6416510882	 0.127342
H	 0.2729003872	-3.2498317967	-1.0492391186	 0.103155
H	 1.8605699526	-2.4710058162	-0.8891611178	 0.106925
51.5028	91.2065	95.3395	195.541	221.3938	230.3252	258.8043	321.9536	372.2424	390.6986	434.6257	536.558	678.6217	728.1037	817.4283	828.9909	859.6691	905.4884	946.8583	967.3449	991.824	1012.2358	1083.2085	1096.2389	1112.1914	1129.6837	1131.5824	1155.6508	1181.1105	1200.9781	1222.8601	1227.6667	1245.9855	1294.4787	1329.7181	1375.5444	1384.0943	1407.0376	1434.1981	1480.3164	1484.1543	1485.5627	1491.4203	1496.3058	1502.4904	1513.0218	1524.1397	2945.9309	2968.1345	2983.3997	3009.7051	3034.3608	3055.842	3057.0933	3101.0774	3107.796	3112.9997	3114.2729	3117.1893	3200.1313
COCC12CN1C(C)C2	COC[C@]12CN1[C@@H](C)C2	
InChI=1S/C7H13NO/c1-6-3-7(5-9-2)4-8(6)7/h6H,3-5H2,1-2H3	InChI=1S/C7H13NO/c1-6-3-7(5-9-2)4-8(6)7/h6H,3-5H2,1-2H3/t6-,7-,8?/m0/s1
