21
gdb 112156	3.02456	1.04699	0.82527	3.2971	87.04	-0.2333	-0.0374	0.1959	1451.0664	0.181734	-387.14651	-387.136824	-387.13588	-387.181725	35.278	
C	-0.0569999471	 1.5592504746	 0.1696602312	-0.388555
C	 0.044867465	 0.0349717955	 0.0663258299	-0.178625
C	 0.6825073622	-0.4710147354	-1.2444364976	-0.028754
C	 0.8315435439	-2.0075892831	-1.3061712249	-0.363141
C	 0.1058802793	-2.4448159624	-2.5837790956	 0.32859
O	 0.0121856778	-3.5752706046	-3.006503193	-0.330708
C	-0.4616645291	-1.2248397395	-3.2166461642	 0.205242
C	-1.2496898299	-1.3045706349	-4.4829953649	-0.492188
C	-0.1324879412	-0.1544599573	-2.4798523621	-0.159012
H	 0.9272402043	 2.0299731373	 0.066532585	 0.116511
H	-0.7083757374	 1.9786886307	-0.6036261766	 0.118514
H	-0.466958399	 1.8580207738	 1.1390732051	 0.118018
H	 0.6439142382	-0.3443243064	 0.9033385657	 0.102419
H	-0.9512226575	-0.4141335768	 0.1712966357	 0.100269
H	 1.666425344	 0.0119691029	-1.3354039373	 0.084991
H	 1.8728218997	-2.340896017	-1.3421254464	 0.129228
H	 0.3727610872	-2.5055613358	-0.4452709761	 0.128555
H	-2.1327620653	-1.9386822555	-4.3474606907	 0.142029
H	-1.5751076861	-0.3187673289	-4.8243323514	 0.118617
H	-0.6563436768	-1.7744241568	-5.2749359109	 0.142858
H	-0.4126391322	 0.8650111295	-2.727882861	 0.105142
45.5472	99.4539	106.5323	141.511	222.052	239.5507	259.8412	330.1105	355.8614	428.946	524.4235	600.7217	608.3357	684.6662	757.7937	794.9691	837.1234	892.8241	941.7984	955.8652	998.1375	1029.5858	1061.2302	1065.8885	1079.0291	1100.2098	1127.8563	1200.8057	1221.2284	1269.4824	1281.5638	1302.031	1343.6191	1358.0681	1372.7922	1413.5983	1414.3592	1453.3413	1473.0939	1483.8254	1487.3893	1500.5682	1507.151	1698.7749	1806.7349	2994.1627	3020.6542	3033.8779	3036.6166	3055.8165	3057.4867	3090.3554	3097.8432	3100.1516	3106.8669	3121.5084	3178.2413
CCC1CC(=O)C(C)=C1	CC[C@H]1CC(=O)C(=C1)C	
InChI=1S/C8H12O/c1-3-7-4-6(2)8(9)5-7/h4,7H,3,5H2,1-2H3	InChI=1S/C8H12O/c1-3-7-4-6(2)8(9)5-7/h4,7H,3,5H2,1-2H3/t7-/m1/s1
