21
gdb 114362	2.78745	1.23038	1.14024	2.5019	77.82	-0.2439	0.0617	0.3057	1211.0529	0.182771	-424.197135	-424.188421	-424.187477	-424.231035	33.486	
C	-0.0827158703	 1.3460001918	-0.5609868944	-0.381668
C	-0.0173730631	-0.138689151	-0.1845621132	-0.205324
C	-1.3908308978	-0.7172253932	 0.0949049288	 0.161114
O	-2.2651390863	-0.7204686022	-1.0817051272	-0.332809
C	-2.6694671709	-2.0853876713	-0.8246285521	 0.0777
C	-1.8554558376	-3.0555818473	-1.7264459215	 0.141825
O	-1.4524998515	-2.5119578932	-2.9501461812	-0.436107
C	-0.7917250919	-3.1891086176	-0.5782675773	-0.285932
C	-1.6231525765	-2.2288415124	 0.3149261244	-0.121501
H	 0.91235547	 1.7399313215	-0.7864831353	 0.115109
H	-0.7143228613	 1.4918488912	-1.4421042673	 0.135043
H	-0.5042154727	 1.943875361	 0.2544749446	 0.115665
H	 0.4622793353	-0.7037643325	-0.9910201572	 0.106363
H	 0.600325097	-0.2778382848	 0.7125160446	 0.101553
H	-1.8787708675	-0.1297652155	 0.8869201092	 0.078368
H	-3.75352525	-2.1902781482	-0.736368895	 0.075151
H	-2.370981711	-3.9994499629	-1.9288843231	 0.082832
H	-1.4354307652	-1.5537075453	-2.8056760591	 0.286434
H	-0.7293623838	-4.2011246362	-0.1705761955	 0.103475
H	 0.2163007337	-2.8646081753	-0.8442003064	 0.106864
H	-1.8581899386	-2.5487765269	 1.3286600043	 0.075842
48.4547	86.8929	173.3951	207.6175	263.1417	298.1181	395.8362	429.964	492.7122	534.9581	565.9926	649.5306	760.3589	774.4677	800.3183	848.2042	896.0263	915.5346	921.8921	963.3006	1016.002	1018.1018	1036.0578	1075.567	1094.946	1111.1768	1147.937	1164.4978	1176.8241	1213.2598	1241.4863	1264.1392	1279.8649	1296.4004	1307.1949	1317.0306	1336.6433	1355.9583	1408.9073	1417.6599	1447.6959	1475.3211	1478.0392	1498.9544	1507.3985	2988.8167	3027.3101	3037.7897	3057.2606	3067.2707	3073.9133	3080.5601	3106.5102	3117.966	3118.2589	3126.8596	3711.1095
CCC1OC2C(O)CC12	CC[C@H]1O[C@H]2[C@@H](O)C[C@@H]12	
InChI=1S/C7H12O2/c1-2-6-4-3-5(8)7(4)9-6/h4-8H,2-3H2,1H3	InChI=1S/C7H12O2/c1-2-6-4-3-5(8)7(4)9-6/h4-8H,2-3H2,1H3/t4-,5-,6+,7+/m0/s1
