18
gdb 5108	3.35536	2.00958	1.28391	1.4756	76.14	-0.1765	0.0562	0.2327	958.9216	0.154469	-344.02229	-344.013622	-344.012678	-344.055165	31.624	
C	-0.0331182954	 1.4284875507	-0.0064782124	-0.346648
N	-0.0106600355	-0.0179622007	-0.0116298694	-0.051812
C	-0.0049144842	-0.8241585832	-1.1356158436	 0.282322
C	 0.0117670418	-0.2597541192	-2.5172413373	-0.50233
C	-0.015424674	-2.13200518	-0.7072255009	-0.223634
C	-0.0075539397	-2.1290843851	 0.7148514722	-0.215693
C	-0.0015896067	-0.813573853	 1.1198899215	 0.235711
N	-0.0501469498	-0.2093887463	 2.3980492655	-0.608869
H	 0.9387485519	 1.8549529563	-0.2845905831	 0.123851
H	-0.7848589889	 1.8037466808	-0.7070223609	 0.131542
H	-0.2887932167	 1.7589559477	 1.0011879898	 0.156915
H	 0.8872964896	 0.3765004842	-2.7021055515	 0.120499
H	 0.039146621	-1.0761890873	-3.2428785557	 0.131076
H	-0.8763550773	 0.3467242896	-2.7397315135	 0.121708
H	-0.0183916694	-2.997485251	-1.3531915153	 0.08272
H	 0.0009758439	-2.987142806	 1.3701766968	 0.077414
H	-0.5162184353	-0.8194635557	 3.0585756838	 0.24495
H	 0.8752219248	-0.0115072816	 2.769530434	 0.240279
91.6556	129.1468	159.6935	191.494	219.1041	275.4906	300.3235	323.946	498.9626	586.7993	633.6908	640.729	728.994	739.9216	746.4479	791.643	827.756	964.3041	1009.0558	1044.0714	1061.0325	1151.4648	1155.816	1183.7615	1233.9736	1251.3477	1337.893	1406.3613	1416.9238	1438.0362	1472.3634	1477.86	1500.6493	1506.7483	1516.4402	1551.4834	1613.266	1656.5346	3006.4067	3022.1272	3046.1282	3085.1869	3117.4777	3144.9996	3231.9732	3247.8102	3481.1404	3585.6761
CN1C(C)=CC=C1N	Cn1c(C)ccc1N	
InChI=1S/C6H10N2/c1-5-3-4-6(7)8(5)2/h3-4H,7H2,1-2H3	InChI=1S/C6H10N2/c1-5-3-4-6(7)8(5)2/h3-4H,7H2,1-2H3
