13
gdb 132667	3.0901	1.30601	0.91802	2.0461	64.38	-0.2233	-0.0126	0.2108	1125.1865	0.088333	-505.872938	-505.865772	-505.864828	-505.904501	27.749	
O	 0.0837245088	 1.3663900951	-0.1047112798	-0.443761
C	 0.0642520699	 0.0057415551	-0.0355227185	 0.424175
C	 0.0224449177	-0.7014944193	-1.2376240372	-0.193952
C	 0.0011381107	-2.0919654457	-1.2221782151	-0.224777
C	 0.0212382466	-2.7785915641	-0.0182145412	 0.141234
F	 0.0011999524	-4.1139810597	 0.0132450389	-0.066213
C	 0.062918451	-2.068499895	 1.1770724605	 0.193474
F	 0.0820648869	-2.7345306243	 2.331239411	-0.062737
C	 0.0846313083	-0.6819989765	 1.1799116468	-0.414558
H	 0.1121549359	 1.7317774251	 0.7852199434	 0.300736
H	 0.0071305101	-0.1523382572	-2.1707701254	 0.11567
H	-0.0313372017	-2.6610916627	-2.1438602021	 0.122048
H	 0.1171139432	-0.1620715109	 2.1317233286	 0.108661
153.6482	237.4179	280.7653	338.6174	339.1095	375.0252	449.5614	466.8081	511.0998	597.1944	629.6486	690.8692	746.1787	799.0427	826.769	845.1388	933.7626	978.8056	1121.7819	1189.8703	1199.476	1242.5102	1290.3258	1351.7515	1376.5151	1485.0959	1564.7631	1650.3408	1669.6123	3184.8431	3201.1806	3216.3881	3829.9162
OC1=CC=C(F)C(F)=C1	Oc1ccc(F)c(F)c1	
InChI=1S/C6H4F2O/c7-5-2-1-4(9)3-6(5)8/h1-3,9H	InChI=1S/C6H4F2O/c7-5-2-1-4(9)3-6(5)8/h1-3,9H
