17
gdb 124811	2.53709	1.49401	0.99088	2.5912	70.79	-0.2115	-0.0042	0.2073	1166.6575	0.136182	-455.133624	-455.124954	-455.12401	-455.166862	32.809	
C	 0.0583340555	 1.4314776653	 0.9081762667	-0.397039
C	-0.202942398	 0.4125805042	-0.1953289164	 0.004796
O	 0.8037343088	-0.6131632629	-0.2295087457	-0.426812
C	-1.5659922562	-0.2247722473	-0.1268059926	 0.330917
N	-2.4918027384	 0.1650707894	 0.7172520826	-0.210356
O	-3.5874721327	-0.6381222758	 0.4858189453	-0.177794
C	-3.2887418736	-1.518352755	-0.5015812786	-0.008344
C	-2.0174590547	-1.3144432824	-0.9416878444	 0.069798
N	-1.2823693283	-1.9043509117	-1.9691430033	-0.615797
H	 1.0656105121	 1.8400506718	 0.7962360857	 0.120891
H	-0.6687404596	 2.2458044359	 0.8640377245	 0.14274
H	-0.0312441912	 0.966915611	 1.8954453988	 0.123225
H	-0.1031607482	 0.8996947586	-1.1732195754	 0.115102
H	 0.7965558867	-1.0479745993	 0.6314833428	 0.285401
H	-4.0721606858	-2.2073820331	-0.7725200288	 0.137743
H	-1.6029308804	-2.8270965758	-2.2277957147	 0.244502
H	-0.2922839461	-1.9078181631	-1.7527519265	 0.261026
67.5645	173.2149	182.0822	236.7219	294.2458	299.4684	342.6251	366.0637	420.7031	470.3266	524.7253	600.5961	631.48	713.497	745.4877	756.9234	799.7609	892.9895	930.5654	971.0096	1030.986	1074.5439	1107.8183	1124.6971	1144.001	1234.4385	1282.0445	1307.2386	1361.6962	1407.1725	1417.4451	1466.6372	1487.0759	1489.4415	1524.9259	1644.5057	1684.4454	3038.3817	3047.0309	3119.2347	3136.4001	3272.0304	3530.2719	3633.5791	3791.115
CC(O)C1=NOC=C1N	C[C@@H](O)c1nocc1N	
InChI=1S/C5H8N2O2/c1-3(8)5-4(6)2-9-7-5/h2-3,8H,6H2,1H3	InChI=1S/C5H8N2O2/c1-3(8)5-4(6)2-9-7-5/h2-3,8H,6H2,1H3/t3-/m1/s1
