15
gdb 43589	3.31679	1.35981	1.12731	4.5426	70.85	-0.26	0.0179	0.2779	1059.9976	0.113223	-416.782849	-416.775138	-416.774194	-416.815432	29.175	
O	 0.039585882	-0.0483643582	-0.0335013923	-0.35972
C	 0.0239023457	 1.1530108939	-0.033186855	 0.409417
N	-1.084529147	 1.9606752405	 0.0754801494	-0.308827
C	-0.8100636724	 3.3880316768	 0.1055635687	-0.189258
C	-1.3679157885	 4.0703682606	 1.2732161294	 0.328689
C	-1.839613299	 4.6326978253	 2.2244494008	-0.444317
C	 0.7298501342	 3.3810724073	 0.0374693555	-0.032477
C	 1.4790632632	 2.6978288796	 1.1121750373	-0.246997
N	 1.1907858469	 1.999515136	-0.1660241802	-0.149221
H	-1.9920253545	 1.5685289283	 0.2651737349	 0.265663
H	-1.1970487562	 3.8762871216	-0.7999258384	 0.122336
H	-2.2516464474	 5.1304114702	 3.0678181558	 0.209031
H	 1.1997829268	 4.1487074127	-0.5663539494	 0.117436
H	 2.5269158743	 2.9292318635	 1.27109452	 0.135491
H	 0.933191472	 2.3793734421	 1.9962711835	 0.142755
59.8862	130.157	196.8654	266.9746	346.7	435.8092	459.434	504.4405	549.0448	638.2485	658.3059	671.4003	741.9375	774.7251	811.2908	852.6985	876.6462	964.8319	1003.6289	1057.3024	1073.7544	1108.2625	1120.8716	1160.087	1205.9846	1279.8995	1291.2994	1369.2399	1387.0559	1416.9305	1507.3811	1867.8882	2238.46	2998.6583	3120.1441	3177.6894	3213.8102	3500.1367	3661.0825
O=C1NC(C#C)C2CN12	O=C1N[C@@H](C#C)[C@H]2CN12	
InChI=1S/C6H6N2O/c1-2-4-5-3-8(5)6(9)7-4/h1,4-5H,3H2,(H,7,9)	InChI=1S/C6H6N2O/c1-2-4-5-3-8(5)6(9)7-4/h1,4-5H,3H2,(H,7,9)/t4-,5+,8?/m0/s1
