20
gdb 98462	2.22743	1.29526	0.95449	1.7017	75.83	-0.2554	-0.0229	0.2324	1305.4459	0.169684	-440.280731	-440.270836	-440.269892	-440.315901	35.878	
C	-0.1703765494	 1.7253892843	-0.3551154332	-0.38438
C	-0.412009274	 0.3005677144	-0.8461663559	-0.30475
C	 0.8608126493	-0.504177122	-1.015409655	 0.341235
O	 1.9553129976	-0.0542105143	-0.7391138346	-0.334113
C	 0.7467123408	-1.9207880425	-1.5378103082	 0.190052
C	-0.5707116463	-2.6560467458	-1.4286855214	-0.143485
O	-0.9442394854	-2.8544514269	-0.0741848411	-0.419015
C	 1.7148783031	-2.271011764	-2.6259386186	-0.259765
N	 1.9247247128	-2.7745110092	-1.2735010611	-0.34995
H	 0.3516932871	 1.7228326546	 0.6048322126	 0.134134
H	 0.4497973257	 2.2848575487	-1.0602901123	 0.12858
H	-1.1192910801	 2.2545829465	-0.2327735839	 0.111887
H	-1.0511344222	-0.26508378	-0.1554161479	 0.155725
H	-0.9500885099	 0.2954897728	-1.8044475045	 0.122819
H	-1.3845339908	-2.0888338138	-1.8902407559	 0.111757
H	-0.4845035985	-3.6118133632	-1.9642718434	 0.10057
H	-0.2200775004	-3.3412378618	 0.3373460828	 0.294545
H	 1.4249517086	-3.0131333807	-3.3652605971	 0.122856
H	 2.3612171208	-1.4757073239	-2.9856704359	 0.132066
H	 2.6191002313	-2.1781353931	-0.8207656255	 0.249234
60.7698	92.385	109.1934	167.5271	196.7054	213.5428	289.6579	312.7188	342.9247	404.9956	450.7807	471.7952	577.5892	620.1446	736.2375	813.7427	823.1151	912.3148	937.9826	976.2048	1002.1669	1014.5775	1040.938	1075.0266	1083.3399	1109.8884	1123.6938	1162.7529	1202.4928	1280.9133	1301.2257	1331.0479	1356.8495	1382.0919	1402.2672	1415.1175	1431.3296	1457.5623	1493.2634	1495.2239	1498.2641	1500.3075	1776.2521	3008.5154	3020.3786	3052.2656	3055.8392	3086.9725	3109.3085	3123.3559	3128.3857	3202.6347	3456.5346	3791.4318
CCC(=O)C1(CO)CN1	CCC(=O)[C@@]1(CO)CN1	
InChI=1S/C6H11NO2/c1-2-5(9)6(4-8)3-7-6/h7-8H,2-4H2,1H3	InChI=1S/C6H11NO2/c1-2-5(9)6(4-8)3-7-6/h7-8H,2-4H2,1H3/t6-/m0/s1
