18
gdb 118400	1.96423	1.19527	0.82983	3.1201	75.53	-0.2543	0.0116	0.2659	1386.1002	0.145251	-439.061743	-439.051636	-439.050692	-439.098165	35.393	
O	 0.3257640618	 1.0180144655	-0.0566157843	-0.414492
C	-0.1325757838	-0.3151657533	 0.0448413772	-0.062869
C	-1.6619355272	-0.4075445658	-0.0039497938	-0.190796
N	-2.213256698	 0.0803683217	-1.2603385939	-0.049914
C	-2.1843359597	-0.7793508527	-2.4443643794	-0.328953
C	-2.9331386474	-2.0217324215	-2.2646234073	 0.31509
C	-3.5349982156	-3.0498077732	-2.1084097342	-0.452547
C	-2.8159150557	 1.3059255208	-1.3541571569	 0.144804
O	-3.2859139923	 1.7810162281	-2.365880989	-0.336765
H	 0.0756690283	 1.3494573277	-0.925675356	 0.290112
H	 0.3138748795	-0.9581552144	-0.7301293873	 0.095802
H	 0.2135894402	-0.6902742429	 1.0133899222	 0.119616
H	-1.9878280701	-1.4421863808	 0.1543036758	 0.125129
H	-2.0754230805	 0.2026904572	 0.8048888764	 0.128009
H	-2.6126827817	-0.1834413937	-3.2559186662	 0.181875
H	-1.147382899	-1.013914383	-2.7179456403	 0.136957
H	-4.0790434852	-3.9536602186	-1.9844065497	 0.207397
H	-2.8194552938	 1.8322861189	-0.3814312234	 0.091545
39.8126	50.8176	82.1128	143.5574	188.5478	272.812	295.1925	320.6941	331.8913	358.4167	405.3045	495.3692	573.6131	622.6302	657.0834	672.3195	833.6683	876.4098	933.2922	972.3734	998.7472	1026.9401	1066.2665	1096.4663	1186.6213	1209.2177	1245.6217	1299.1426	1368.9846	1385.9972	1394.1869	1410.9097	1429.9912	1443.6658	1472.6613	1479.0751	1500.6769	1789.6548	2239.7853	2960.4944	2981.4971	3020.0947	3041.0805	3080.7807	3092.0766	3096.8001	3503.3952	3810.8704
OCCN(CC#C)C=O	OCCN(CC#C)C=O	
InChI=1S/C6H9NO2/c1-2-3-7(6-9)4-5-8/h1,6,8H,3-5H2	InChI=1S/C6H9NO2/c1-2-3-7(6-9)4-5-8/h1,6,8H,3-5H2
