17
gdb 6625	7.5427	0.69398	0.64382	3.5929	73.96	-0.2386	0.0304	0.2689	1697.1047	0.13957	-363.881897	-363.871614	-363.870669	-363.920745	33.583	
C	-0.0202979909	 1.4933133523	-0.0061296247	-0.497571
C	-0.0015610855	 0.0375501397	 0.0293643351	 0.122663
C	 0.030175339	-1.1658894269	 0.0606825309	 0.007267
C	 0.0391044744	-2.623997891	 0.0968217845	-0.352192
C	-1.3718586979	-3.2224712738	-0.0220300439	-0.304364
C	-1.3522363024	-4.7468032542	 0.0761007318	 0.414453
N	-2.5396610145	-5.3507981016	-0.2258566885	-0.529747
O	-0.3634096148	-5.3790429031	 0.3935647502	-0.352991
H	 0.567725767	 1.8800659593	-0.8460344403	 0.145907
H	-1.0408297436	 1.8776892627	-0.114436351	 0.143183
H	 0.3965307996	 1.9208693318	 0.9126886499	 0.14614
H	 0.6656765338	-3.0211725242	-0.7101158385	 0.137925
H	 0.4965694423	-2.9862316578	 1.0235341827	 0.14655
H	-2.011890665	-2.8282371976	 0.7770128471	 0.132027
H	-1.8390898963	-2.9170769507	-0.9652171873	 0.123383
H	-3.3760185064	-4.826085975	-0.4122278025	 0.257319
H	-2.6115172888	-6.3471882499	-0.1010124956	 0.26005
12.782	17.3782	63.7591	80.0186	138.8214	207.9808	211.6428	285.6574	388.481	401.0951	500.1217	515.6631	600.1611	638.5577	770.7586	786.6796	863.4569	1031.0027	1042.4423	1054.9444	1056.656	1094.8362	1168.6439	1175.7742	1245.2701	1305.6555	1342.024	1401.9074	1415.8866	1462.908	1475.413	1479.3339	1480.0725	1617.4693	1796.6678	2374.1971	3023.9865	3033.5485	3045.0954	3064.7079	3082.8822	3083.8139	3085.3528	3602.1548	3738.414
CC#CCCC(N)=O	CC#CCCC(=O)N	
InChI=1S/C6H9NO/c1-2-3-4-5-6(7)8/h4-5H2,1H3,(H2,7,8)	InChI=1S/C6H9NO/c1-2-3-4-5-6(7)8/h4-5H2,1H3,(H2,7,8)
