16
gdb 24631	4.40312	1.32302	1.10673	2.7845	77.09	-0.2171	0.0302	0.2474	1068.3374	0.127603	-396.895358	-396.888477	-396.887532	-396.926857	26.638	
C	 0.1171570339	 1.5562420865	-0.0536290455	-0.296587
N	 1.3124788954	 0.6893002252	-0.0017382115	-0.353809
C	-0.0099759318	 0.0855787126	 0.0229015628	 0.149544
C	-0.5173240037	-0.8353437674	 1.1748209637	-0.234214
N	-1.0690781673	-1.6893235335	 0.0914318568	-0.027575
C	-1.762293035	-2.7287477157	-0.4405514354	-0.023743
N	-1.7694755865	-2.6263296337	-1.7598645568	-0.26288
C	-1.0737167433	-1.4820950436	-2.0937717953	-0.241565
C	-0.6346663933	-0.8921676914	-0.9328584867	 0.270387
H	-0.039443138	 2.1672293302	 0.8313028965	 0.126822
H	-0.1513630192	 2.0347530653	-0.9918318008	 0.125695
H	 1.7314460266	 0.5879339869	-0.9228557184	 0.243412
H	 0.2713688684	-1.316269153	 1.7567171531	 0.143818
H	-1.2827635719	-0.413622281	 1.8302461889	 0.1363
H	-2.22417496	-3.5144498484	 0.1358748309	 0.135134
H	-0.9470962342	-1.1851763592	-3.1224623526	 0.10926
103.6716	144.8888	234.2646	301.4319	439.2816	508.3	516.5371	659.3757	699.1839	733.0462	791.997	812.735	825.7375	858.6603	918.1162	954.7403	976.6214	1016.5969	1050.6416	1075.8167	1112.3129	1131.6732	1141.8214	1213.1111	1231.5445	1247.529	1261.2262	1283.1977	1349.7795	1388.2072	1442.6523	1457.0638	1507.0107	1512.7469	1572.2676	3070.3109	3107.181	3133.5549	3193.9409	3260.1911	3266.0017	3506.234
C1NC11CN2C=NC=C12	C1N[C@]21Cn1cncc21	
InChI=1S/C6H7N3/c1-5-6(2-8-6)3-9(5)4-7-1/h1,4,8H,2-3H2	InChI=1S/C6H7N3/c1-5-6(2-8-6)3-9(5)4-7-1/h1,4,8H,2-3H2/t6-/m1/s1
