19
gdb 39820	2.78103	1.60832	1.53001	1.5991	74.73	-0.2295	0.0692	0.2987	972.9261	0.162525	-419.1392	-419.131982	-419.131038	-419.170602	29.18	
C	-0.0762618678	 1.5265639276	 0.0019743174	-0.322367
N	 1.1797474542	 0.7292663741	 0.051344602	-0.399246
C	-0.1136202958	 0.0576540414	 0.0048594528	 0.437705
C	-0.5139375532	-1.009823604	 1.0276246609	-0.123296
C	-2.0295211981	-0.9840847801	 1.2222631381	-0.047536
O	-2.6852887466	-0.5567654797	 0.0312788855	-0.26922
C	-2.0629378692	-0.9620900012	-1.1820123892	-0.044558
C	-0.5410588601	-0.98970383	-1.0295289915	-0.15031
N	-0.2530887126	-2.0762375087	-0.0165306099	-0.329853
H	-0.2947551389	 2.0858286367	 0.9075246922	 0.121787
H	-0.3257021097	 2.04643032	-0.9199288703	 0.113148
H	 1.6149093975	 0.7246195079	-0.8692619743	 0.227835
H	 0.0406079431	-1.09921556	 1.9637981944	 0.083697
H	-2.3652514122	-1.9873588401	 1.522790459	 0.1015
H	-2.3199323975	-0.2660957119	 1.9967394714	 0.105264
H	-2.4026715975	-1.9617800432	-1.4908585352	 0.101161
H	-2.3750920467	-0.2328235797	-1.9377370448	 0.102206
H	-0.022584904	-1.0668985271	-1.9899694271	 0.069836
H	 0.7523237551	-2.2447768319	-0.0269902614	 0.222247
136.3644	206.8544	221.1375	275.1403	378.5891	409.1672	453.7011	572.1354	576.0404	705.6767	841.1731	845.6484	858.182	860.2026	892.5649	930.4201	946.7867	954.7919	968.8255	1013.5648	1028.829	1067.315	1084.1031	1119.4404	1126.1205	1131.8402	1178.6133	1222.8272	1228.1078	1257.3243	1260.4834	1284.5989	1300.8925	1348.1893	1361.4536	1391.5468	1405.3142	1447.3939	1489.3139	1501.0808	1520.0747	2994.9631	3002.1365	3063.0743	3069.9886	3072.3277	3100.3342	3106.0223	3189.5766	3461.3023	3478.7913
C1NC11C2COCC1N2	C1N[C@]21[C@H]1COC[C@@H]2N1	
InChI=1S/C6H10N2O/c1-4-6(3-7-6)5(8-4)2-9-1/h4-5,7-8H,1-3H2	InChI=1S/C6H10N2O/c1-4-6(3-7-6)5(8-4)2-9-1/h4-5,7-8H,1-3H2/t4-,5+,6-
