17
gdb 104477	1.83246	1.57561	1.1586	3.6115	65.65	-0.2476	-0.0265	0.2211	1122.1152	0.133421	-496.07491	-496.065467	-496.064522	-496.109086	34.398	
O	 0.8444146081	 0.4836817729	 0.4959637409	-0.426449
C	-0.0754411428	 0.4105962575	-0.5792230278	-0.177282
C	-1.3905363934	-0.2242674322	-0.160203273	 0.128355
C	-2.3645468697	 0.6210393673	 0.5689604147	 0.089352
O	-3.4755191137	 0.254253198	 0.8840922886	-0.285284
C	-2.00267916	-1.3873041928	-0.9343362623	-0.009064
O	-1.3127223992	-1.7856168721	-2.0901238446	-0.431702
C	-1.3304456354	-1.6921875712	 0.3560735026	 0.063492
O	-0.0996475798	-2.3371009292	 0.3126046993	-0.427284
H	 1.0118190434	-0.4286550794	 0.7637248985	 0.295063
H	-0.2554768983	 1.443538895	-0.8972605499	 0.11459
H	 0.3420918056	-0.1192919526	-1.4438568139	 0.109519
H	-1.9945620963	 1.6340313178	 0.8362101252	 0.091541
H	-3.0883552428	-1.3927234156	-0.9867827871	 0.128693
H	-1.7516196577	-2.5690149298	-2.4390332069	 0.306408
H	-1.9156980937	-1.9198121892	 1.2404763992	 0.133972
H	 0.0611092257	-2.5487982344	-0.6197955633	 0.296078
89.486	111.6012	158.5804	193.8883	222.5567	234.6332	270.7485	295.7766	338.6797	451.7709	486.5022	544.4903	583.5039	664.4239	692.695	752.0174	785.6953	880.7717	936.8226	1015.5295	1042.8668	1063.7978	1089.3937	1133.4388	1162.7955	1190.0286	1230.8474	1274.1362	1294.5807	1324.796	1393.4632	1398.6833	1423.9698	1437.2009	1462.2618	1509.7985	1788.777	2904.2224	3029.6915	3070.2626	3147.3823	3177.6553	3710.4693	3780.5672	3813.5962
OCC1(C=O)C(O)C1O	OC[C@@]1(C=O)[C@@H](O)[C@H]1O	
InChI=1S/C5H8O4/c6-1-5(2-7)3(8)4(5)9/h1,3-4,7-9H,2H2	InChI=1S/C5H8O4/c6-1-5(2-7)3(8)4(5)9/h1,3-4,7-9H,2H2/t3-,4+,5-
