17
gdb 34832	3.50439	1.16329	0.97286	0.5505	86.6	-0.2566	0.0341	0.2907	1212.64	0.134814	-347.433106	-347.425082	-347.424138	-347.465452	31.811	
C	-0.0365330355	-1.2932938022	-0.0595004408	-0.424892
C	-0.005089011	-0.0917392042	-0.0070005202	 0.293425
C	 0.0041329127	 1.3551494166	 0.0287553941	-0.18003
C	 0.0653355724	 2.1008316745	 1.4098585691	-0.049561
C	 1.5490825812	 1.6518553207	 1.52473219	-0.253363
C	 1.3724785621	 2.1259797034	 0.0549369581	-0.049562
C	 0.5907930718	 3.3584259645	 0.6319099277	-0.187925
C	-0.3017643648	 4.1224048851	-0.2149910659	 0.304056
C	-1.0300439001	 4.7861752379	-0.9052895533	-0.439441
H	-0.063229619	-2.3538064164	-0.1047428626	 0.191216
H	-0.7279514642	 1.7676698063	-0.6698564361	 0.111985
H	-0.7028335518	 2.0926312905	 2.1832946086	 0.08812
H	 2.1957789929	 2.2622251733	 2.1599531048	 0.094366
H	 1.721863518	 0.5860125741	 1.6716374093	 0.119651
H	 2.1177325649	 2.1468957922	-0.7403700852	 0.08812
H	 1.2104978849	 4.0218997737	 1.2420751647	 0.099306
H	-1.6747267846	 5.3680014401	-1.5165118324	 0.194531
113.6354	142.114	185.1026	196.04	377.964	448.3198	488.3683	506.3336	518.0323	603.5312	619.8099	622.3568	636.4849	645.9922	775.5932	832.6499	843.4284	881.097	905.1697	921.9567	1019.202	1020.8657	1056.0304	1067.7265	1093.1706	1108.689	1130.7242	1187.9459	1194.1467	1222.1499	1230.5477	1244.1266	1377.6554	1379.7514	1516.8869	2229.6204	2231.2775	3064.4636	3069.0498	3081.4549	3114.3448	3118.5792	3147.598	3503.0246	3503.5839
C#CC1C2CC1C2C#C	C#C[C@H]1[C@H]2C[C@@H]1[C@H]2C#C	
InChI=1S/C9H8/c1-3-6-8-5-9(6)7(8)4-2/h1-2,6-9H,5H2	InChI=1S/C9H8/c1-3-6-8-5-9(6)7(8)4-2/h1-2,6-9H,5H2/t6-,7-,8-,9+
