15
gdb 75766	2.48776	1.33292	1.16223	4.0929	66.58	-0.2704	-0.0215	0.2489	1098.6027	0.111429	-453.974433	-453.965465	-453.964521	-454.008198	32.018	
C	 0.167114112	 1.400716272	-0.2781096074	-0.423628
C	-0.0483194179	-0.0779416199	-0.0119944596	 0.254546
O	 0.7244466582	-0.9198555361	-0.9376752517	-0.265764
C	 1.5571980413	-1.3753503718	 0.0605709522	 0.429161
O	 2.5463365165	-2.0198729725	-0.054076178	-0.309545
C	 0.7620258524	-0.6974118699	 1.1931400847	-0.2109
N	 1.3983307824	 0.1776576716	 2.1289654271	-0.509255
C	-1.4622259344	-0.4497352365	-0.0507782746	 0.260523
N	-2.5826214353	-0.7323389219	-0.0425605018	-0.324558
H	 1.2356381753	 1.6277750797	-0.2749019003	 0.131357
H	-0.2499224736	 1.6780843419	-1.2487761555	 0.153399
H	-0.3157987176	 1.991661856	 0.5036655323	 0.157673
H	 0.1494332748	-1.4354604116	 1.7157867574	 0.14506
H	 1.4838509681	-0.2438498427	 3.0439961132	 0.257876
H	 2.3210684778	 0.4668398418	 1.827800402	 0.254055
83.3288	140.7107	146.8469	188.2738	203.8094	247.4344	256.6312	380.0095	437.3718	467.0192	525.0007	603.4708	646.5879	711.162	738.8064	810.8076	871.7036	891.4358	942.7085	1046.4283	1138.7238	1159.2871	1180.1384	1197.7464	1235.6364	1277.9684	1409.5687	1425.5923	1473.4767	1487.4911	1675.4039	1944.8439	2358.1648	3058.1552	3098.1759	3139.4296	3143.1271	3542.2211	3626.7905
CC1(OC(=O)C1N)C#N	C[C@]1(OC(=O)[C@H]1N)C#N	
InChI=1S/C5H6N2O2/c1-5(2-6)3(7)4(8)9-5/h3H,7H2,1H3	InChI=1S/C5H6N2O2/c1-5(2-6)3(7)4(8)9-5/h3H,7H2,1H3/t3-,5+/m1/s1
