16
gdb 50611	2.11074	1.78634	0.99607	6.059	76.12	-0.2343	-0.0539	0.1804	1139.584	0.124863	-434.079207	-434.070668	-434.069723	-434.113575	29.572	
N	-0.1276368512	 1.3493356179	-0.2038795108	-0.466514
C	-0.091482972	 0.080702389	-0.0965028013	 0.079924
N	-1.2184736575	-0.6732525338	 0.1240577201	-0.105555
C	-1.2549559201	-2.1407130853	 0.037812271	-0.20528
C	-2.7862342519	-2.4075112975	-0.0207834916	-0.177384
N	-3.4501702749	-1.1045954335	 0.1259687408	-0.268772
C	-2.5435307187	-0.2097386049	 0.1839898089	 0.295741
C	-2.8728196469	 1.2464622662	 0.4216302292	 0.114146
O	-3.8141082991	 1.780995327	-0.0993641413	-0.232999
H	 0.8029381225	 1.7323155257	-0.3461396494	 0.234735
H	 0.8105095482	-0.5381857216	-0.161977896	 0.103926
H	-0.7286407073	-2.4921757166	-0.8543723219	 0.127696
H	-0.7831187863	-2.5938911244	 0.9162660635	 0.125504
H	-3.0950915077	-2.859603942	-0.9695831016	 0.131002
H	-3.1182885282	-3.0789187736	 0.7762846273	 0.129016
H	-2.2139549389	 1.7565787573	 1.1443859832	 0.114813
48.5492	81.0074	117.8857	178.863	208.7813	260.0176	327.147	410.5994	527.8181	582.8884	725.7385	779.1576	786.5202	831.7044	850.9277	952.3883	973.9769	1030.8264	1044.8535	1059.5184	1104.3537	1192.8863	1210.3468	1252.0207	1263.4234	1318.9664	1336.9928	1406.8991	1422.1427	1446.0991	1493.3235	1526.1974	1687.2369	1717.4286	1821.812	2989.2408	3035.317	3048.2392	3058.5744	3073.8271	3093.3841	3530.8464
N=CN1CCN=C1C=O	[NH][CH]N1CCN=C1C=O	
InChI=1S/C5H7N3O/c6-4-8-2-1-7-5(8)3-9/h3-4,6H,1-2H2	InChI=1S/C5H7N3O/c6-4-8-2-1-7-5(8)3-9/h3-4,6H,1-2H2
