17
gdb 71801	3.79296	1.69371	1.53037	2.1838	69.27	-0.2404	0.072	0.3125	882.8868	0.138434	-421.792364	-421.786209	-421.785265	-421.822429	26.746	
O	-0.0960051854	 1.3591344908	-0.0228846397	-0.475599
C	 0.0554196264	-0.0192895682	-0.0493261492	 0.381606
C	 1.1064359617	-0.698133628	-0.916872819	-0.315239
C	 0.7214775857	-2.1299545622	-0.5973379404	-0.068864
C	 0.406815455	-2.2833197859	 0.9274499686	 0.058657
O	-0.7275311082	-3.1353924596	 0.5932155571	-0.294906
C	-0.8339086184	-2.2756354238	-0.5775108654	 0.059248
C	-1.1767110969	-0.8822643221	-0.0121916389	-0.109694
C	-0.2040815459	-0.8908365519	 1.169531366	-0.156606
H	 0.6677588366	 1.736534267	 0.4275079564	 0.283765
H	 0.9889943133	-0.4449126932	-1.976080348	 0.108587
H	 2.1300244462	-0.4521147986	-0.6082999046	 0.092837
H	 1.2656891282	-2.9558968141	-1.0481624061	 0.084251
H	 1.0832464403	-2.71578959	 1.6632562468	 0.077874
H	-1.4330571597	-2.6960967378	-1.3836014437	 0.079864
H	-2.1743190333	-0.4718216437	 0.0502160454	 0.099931
H	-0.4608814155	-0.4910515689	 2.1405131946	 0.094289
255.4882	300.1914	343.4067	391.1765	523.4505	536.6021	567.1526	683.1327	721.9944	749.6923	804.9761	819.361	857.8195	871.3581	903.1477	929.0253	932.1084	949.2036	963.1186	1007.2633	1012.0878	1043.1439	1047.6177	1112.7286	1145.161	1166.9415	1205.1191	1212.6193	1228.5306	1262.1843	1274.6459	1277.9686	1308.3314	1313.736	1347.4359	1434.5067	1491.9169	3031.5836	3081.5426	3131.4268	3134.5969	3157.5165	3213.5268	3224.0787	3796.8906
OC12CC3C4OC3C1C24	O[C@]12C[C@H]3[C@@H]4O[C@H]3[C@H]1[C@H]24	
InChI=1S/C7H8O2/c8-7-1-2-5-3(7)4(7)6(2)9-5/h2-6,8H,1H2	InChI=1S/C7H8O2/c8-7-1-2-5-3(7)4(7)6(2)9-5/h2-6,8H,1H2/t2-,3-,4+,5-,6+,7-
