23
gdb 64288	2.60811	1.54864	1.29522	1.3757	84.28	-0.2426	0.0739	0.3165	1119.9093	0.206492	-388.298404	-388.289602	-388.288658	-388.331498	34.994	
C	-0.3638880871	 1.6682971074	 0.1833283798	-0.431218
C	 0.073889424	 0.2115467722	 0.062576583	 0.363993
C	-1.1476128274	-0.6857937866	-0.2066275477	-0.426651
O	 0.9987592998	 0.1385157605	-1.0393072003	-0.290205
C	 1.7428913692	-1.0689539994	-0.9131418741	-0.100897
C	 1.9149231371	-1.3311408018	 0.592706721	-0.032099
C	 3.0779316333	-0.5784840082	 1.2936173371	-0.22282
C	 2.0834911005	 0.5125743227	 1.7740475282	-0.244453
C	 0.8913137997	-0.3401529295	 1.2458587338	-0.023779
H	 0.494102762	 2.3334723204	 0.2980150668	 0.121516
H	-0.907129501	 1.9728241143	-0.716137874	 0.12076
H	-1.0270760117	 1.8007080947	 1.0438023484	 0.110709
H	-1.603490268	-0.4183004243	-1.1644148363	 0.119382
H	-0.8755712648	-1.7451336036	-0.2418775611	 0.112327
H	-1.8985186692	-0.5632105731	 0.580417278	 0.111171
H	 1.2134795926	-1.9055610873	-1.3936866606	 0.086653
H	 2.6915949912	-0.9265750313	-1.4410486802	 0.101857
H	 1.8283972413	-2.3928810144	 0.8319688136	 0.065782
H	 3.5191194638	-1.1513610922	 2.1130999266	 0.097513
H	 3.8868755219	-0.2402003994	 0.6394111104	 0.096358
H	 2.0766471625	 0.7094038223	 2.8485373566	 0.095218
H	 2.2042353792	 1.4643411525	 1.2534330525	 0.10731
H	 0.2559197811	-0.7522219059	 2.0322738886	 0.061572
66.3576	178.1742	193.9237	214.2942	255.6271	330.9559	339.717	364.2539	383.4665	505.3039	570.8753	654.9532	719.0808	759.0784	791.7754	839.1006	871.1508	894.4811	919.8846	942.3141	954.9581	981.5333	994.8527	1011.5564	1035.7176	1070.1318	1090.7819	1139.4015	1159.6791	1203.5612	1209.8929	1229.9638	1239.0968	1258.202	1268.261	1272.6097	1293.11	1334.5649	1337.0941	1382.5394	1395.7129	1415.2565	1471.5492	1476.811	1486.1998	1491.9502	1497.4138	1508.6831	1522.0957	2984.7133	3036.2628	3046.2866	3051.1523	3067.3052	3068.4555	3077.868	3090.6933	3099.5446	3105.1608	3110.4865	3116.6208	3123.5973	3133.3766
CC1(C)OCC2CCC12	CC1(C)OC[C@H]2CC[C@@H]12	
InChI=1S/C8H14O/c1-8(2)7-4-3-6(7)5-9-8/h6-7H,3-5H2,1-2H3	InChI=1S/C8H14O/c1-8(2)7-4-3-6(7)5-9-8/h6-7H,3-5H2,1-2H3/t6-,7-/m1/s1
