19
gdb 39831	2.82297	1.75993	1.38211	2.918	78.49	-0.226	0.0635	0.2895	985.5385	0.162357	-382.004387	-381.99741	-381.996466	-382.035495	29.272	
C	-0.0832563338	 1.4366680744	 0.0121325677	-0.29309
C	 1.3032310764	 0.8435934594	 0.0260688924	-0.040492
C	 1.9519858236	 0.6179085927	 1.3815387765	-0.042921
N	 1.1180333958	 1.0084260528	 2.5404696595	-0.342479
C	 1.1813971927	-0.4134937778	 2.1197930771	-0.1636
C	 0.0236539809	-0.8506917399	 1.2506386578	 0.404336
C	-0.4363380763	-2.2620279141	 1.3046242309	-0.308428
N	-1.2903715764	-1.182826565	 1.827580923	-0.353501
C	 0.0862053172	-0.0615249175	-0.0415489641	-0.117606
H	-0.4462349377	 1.8848337772	 0.9282034467	 0.143524
H	-0.4053508861	 1.9212638493	-0.9033700189	 0.102435
H	 1.9589933366	 0.9820614289	-0.825238341	 0.080771
H	 3.0302828392	 0.6966867475	 1.4656140092	 0.085387
H	 1.7149470764	 1.1387315281	 3.3541230019	 0.229123
H	 1.6438914921	-1.1341913545	 2.7885484761	 0.083119
H	-0.8098449222	-2.7423099014	 0.4035470814	 0.116123
H	 0.0535679849	-2.9380729905	 2.0023924917	 0.105198
H	-1.2378212569	-1.1500508368	 2.8431750435	 0.230401
H	-0.1863267764	-0.5755155429	-0.9566933416	 0.0817
119.7732	217.6399	295.6918	328.7655	396.8156	469.902	537.5748	581.0614	679.1948	740.329	790.998	801.5607	845.7575	865.2574	876.4931	894.3964	920.5296	940.4172	961.1026	968.6295	989.084	1040.7222	1047.4153	1075.3645	1085.463	1093.0714	1102.1903	1135.9336	1145.5966	1170.0956	1203.0387	1247.9317	1258.2783	1288.1706	1307.9488	1353.364	1369.9145	1397.2222	1441.2485	1474.7558	1513.0703	3094.9377	3139.3357	3142.6294	3164.699	3168.1382	3178.3543	3183.7967	3237.1822	3492.5277	3492.9618
C1C2C3NC3C3(CN3)C12	C1[C@H]2[C@H]3N[C@H]3[C@]3(CN3)[C@@H]12	
InChI=1S/C7H10N2/c1-3-4(1)7(2-8-7)6-5(3)9-6/h3-6,8-9H,1-2H2	InChI=1S/C7H10N2/c1-3-4(1)7(2-8-7)6-5(3)9-6/h3-6,8-9H,1-2H2/t3-,4+,5-,6-,7+/m1/s1
