21
gdb 80611	2.13216	1.8646	1.47097	1.466	77.31	-0.2523	0.069	0.3213	1018.665	0.183056	-424.215175	-424.206703	-424.205759	-424.247293	34.665	
C	-0.1443007436	 1.5421828136	 0.0339180016	-0.45772
C	 0.0311311529	 0.0263747156	 0.0221964507	 0.372213
O	-1.2520792289	-0.6054239595	 0.0574470716	-0.487701
C	 0.9215486502	-0.5133935418	-1.1243586975	-0.069172
C	 1.1445360978	-1.9845000584	-0.6704987597	-0.238968
C	 1.9528466157	-1.2992768744	 0.4667474141	-0.034332
C	 2.3629329751	-0.2422791261	-0.5991480206	-0.234649
C	 0.8531089614	-0.5565928947	 1.2369165545	 0.105315
O	 1.4431562506	 0.4066743593	 2.0910643067	-0.440036
H	 0.8084468569	 2.0709193616	 0.0905974904	 0.132869
H	-0.6613849459	 1.8673300564	-0.8772551032	 0.101478
H	-0.7588133936	 1.8479959115	 0.8868813491	 0.109138
H	-1.7305527976	-0.3443734218	-0.7371281735	 0.27149
H	 0.6166747967	-0.253626515	-2.1413282326	 0.046735
H	 0.2622980636	-2.5697008989	-0.4056844631	 0.105508
H	 1.7892716763	-2.5412165334	-1.3538618906	 0.093123
H	 2.6854538517	-1.8344982599	 1.0704568052	 0.063863
H	 3.1256371119	-0.6182988916	-1.2849456918	 0.094787
H	 2.6279149587	 0.7582703571	-0.2537098954	 0.106289
H	 0.2084085801	-1.2410295967	 1.8028796123	 0.075881
H	 0.7442308501	 0.820982527	 2.6059621918	 0.28389
155.4291	208.3947	252.7621	271.4567	284.9204	302.108	319.0894	380.5376	439.3685	493.4365	508.4151	555.8234	619.2463	756.4376	811.9003	858.9189	862.202	881.3547	915.9775	950.9936	961.2685	1001.7426	1033.3548	1046.1693	1054.7946	1078.9338	1101.5983	1128.4871	1140.8121	1178.6874	1189.6759	1210.8531	1230.038	1252.7104	1271.367	1282.8595	1310.1131	1333.0429	1376.8093	1408.9937	1427.7125	1484.4144	1488.1913	1498.5013	1521.2428	3023.186	3029.3217	3068.2823	3069.8354	3084.0548	3089.2088	3118.9384	3128.5799	3134.0784	3139.3388	3799.087	3827.0416
CC1(O)C2CC(C2)C1O	C[C@@]1(O)[C@@H]2C[C@@H](C2)[C@H]1O	
InChI=1S/C7H12O2/c1-7(9)5-2-4(3-5)6(7)8/h4-6,8-9H,2-3H2,1H3	InChI=1S/C7H12O2/c1-7(9)5-2-4(3-5)6(7)8/h4-6,8-9H,2-3H2,1H3/t4-,5+,6-,7-/m1/s1
