14
gdb 131761	2.72703	1.53873	0.99036	2.5705	67.82	-0.2742	-0.0677	0.2064	1100.8028	0.101079	-469.976171	-469.968243	-469.967299	-470.009226	28.393	
O	 0.1785997647	 1.3670409242	-0.1394053787	-0.41742
C	 0.0579732264	-0.0255811464	-0.0369076094	-0.108545
C	-1.3643050556	-0.5200251063	 0.0311700264	 0.305114
N	-2.2688467206	 0.3845505494	 0.1338538011	-0.17357
O	-3.6014476648	-0.0572564502	 0.2294268172	-0.221301
C	-3.8396767666	-1.3790656293	 0.1984118371	 0.165046
N	-2.9992255085	-2.3307954336	 0.100281468	-0.319268
C	-1.6467897663	-1.9682913754	 0.0136577578	 0.295553
N	-0.6781684886	-2.7915863076	-0.0752755097	-0.503292
H	-0.6262845818	 1.7623521546	 0.2169294023	 0.300546
H	 0.5404846921	-0.4958108122	-0.9017986281	 0.1491
H	 0.5770201437	-0.4288454981	 0.8488764019	 0.131721
H	-4.9097273766	-1.5606741064	 0.2718290536	 0.161377
H	-1.0432083875	-3.7471040527	-0.0721495394	 0.234937
74.7345	106.5442	171.0843	230.2719	266.6747	350.3452	416.3335	478.0382	494.5466	569.5749	615.6337	762.8708	776.1215	917.8774	922.3235	928.1949	983.325	1012.0392	1020.6271	1106.9441	1165.0367	1207.5468	1240.1014	1323.5087	1376.2236	1429.1216	1444.5577	1483.2562	1649.3638	1678.6599	1712.6126	2976.5598	3061.8675	3174.7202	3458.9087	3782.3626
OCC1=NOC=NC1=N	OCC1=NOC=N[C]1[NH]	
InChI=1S/C4H5N3O2/c5-4-3(1-8)7-9-2-6-4/h2,5,8H,1H2	InChI=1S/C4H5N3O2/c5-4-3(1-8)7-9-2-6-4/h2,5,8H,1H2
