21
gdb 83991	2.2094	1.68202	1.35613	1.3925	84.24	-0.2277	0.012	0.2397	1074.0047	0.185077	-387.082551	-387.074356	-387.073412	-387.115015	32.743	
O	-0.0543558004	 0.9261758437	 0.6323255196	-0.418228
C	 0.0229199611	-0.3668225634	 0.1110855108	 0.099618
C	-1.2096533309	-1.1995846995	-0.1310600383	-0.069308
C	-2.6217573236	-0.8297046502	 0.2905865909	-0.213205
C	-3.0914687567	 0.6175367771	 0.1085068449	-0.217738
C	-3.2304252786	 1.0764254462	-1.3509670974	-0.237686
C	-1.9649903544	 1.2523927336	-2.1537544658	-0.07828
C	-0.8484479345	 0.5135568273	-2.1600368004	-0.07331
C	-0.4460426833	-0.6370782226	-1.3212588186	-0.132852
H	-0.230585711	 1.5293833042	-0.1027125537	 0.281476
H	 0.9217970997	-0.8781132505	 0.4478222409	 0.094363
H	-1.0269999775	-2.2646298917	 0.0033009995	 0.084188
H	-3.3164168228	-1.4894441067	-0.2492641958	 0.093837
H	-2.7240278256	-1.0922913443	 1.3518947417	 0.101834
H	-4.0804568762	 0.7025479139	 0.5756540088	 0.090458
H	-2.4296348727	 1.2934138897	 0.6546978076	 0.119814
H	-3.8847525298	 0.368140652	-1.8839858095	 0.110515
H	-3.7718259914	 2.0297833596	-1.3639447995	 0.099295
H	-2.0011039909	 2.0681905937	-2.87430782	 0.087625
H	-0.0806248753	 0.8049745614	-2.8769082451	 0.088173
H	 0.1629725545	-1.3556534234	-1.8641056608	 0.089409
88.9034	158.1128	192.5838	292.576	314.2463	356.8888	370.8204	393.4009	499.3985	558.4661	651.3823	711.1121	726.9584	780.4736	787.7184	827.7061	865.8964	892.0757	925.1043	947.5214	1009.8941	1019.8519	1044.6481	1085.0668	1094.1652	1113.9664	1134.4172	1154.307	1203.5416	1243.5207	1265.4417	1285.6323	1305.3644	1347.918	1371.8894	1384.1534	1391.7423	1394.4551	1405.1232	1440.9613	1452.9311	1476.4882	1487.5046	1503.0204	1717.2797	2984.5187	2998.9698	3028.5253	3037.7929	3049.036	3109.5793	3110.8103	3112.2485	3124.3341	3136.5243	3143.7987	3728.6338
OC1C2CCCC=CC12	O[C@H]1[C@H]2CCCC=C[C@@H]12	
InChI=1S/C8H12O/c9-8-6-4-2-1-3-5-7(6)8/h2,4,6-9H,1,3,5H2	InChI=1S/C8H12O/c9-8-6-4-2-1-3-5-7(6)8/h2,4,6-9H,1,3,5H2/t6-,7+,8-/m1/s1
