18
gdb 126999	6.72398	0.80241	0.72663	2.2122	77.33	-0.2229	0.0176	0.2405	1580.2363	0.146256	-439.090599	-439.081385	-439.080441	-439.125414	32.654	
C	-0.0338410178	 1.4714802411	 0.0168476707	-0.390861
C	 0.0157161926	-0.0427670147	-0.0151636171	-0.057507
O	 0.6727943709	-0.4751382176	 1.1953040674	-0.276809
C	 0.8273373129	-1.7789448313	 1.3791865764	 0.564422
C	 1.4029653702	-2.4570896659	 2.4131896489	-0.500761
C	 1.2577740892	-3.8165067312	 2.024855056	 0.421403
C	 1.6998305177	-5.0407667678	 2.7604036904	-0.490746
N	 0.6516016966	-3.9467124504	 0.8652055407	-0.227855
O	 0.3719137374	-2.6220959746	 0.4460194431	-0.230038
H	 0.9742634781	 1.8924897728	 0.0601897163	 0.134868
H	-0.5263627843	 1.8429885213	-0.8863298624	 0.12728
H	-0.5941424529	 1.8236593429	 0.8871556109	 0.134873
H	-0.9869558862	-0.4814935344	-0.0536814969	 0.128095
H	 0.5782836529	-0.4128391165	-0.8788087241	 0.128088
H	 1.8530752751	-2.047209509	 3.3001159774	 0.114292
H	 1.2228535606	-5.098736667	 3.7441923473	 0.136671
H	 1.4381313131	-5.9344272728	 2.190568336	 0.14791
H	 2.782876534	-5.0303419946	 2.920447789	 0.136675
52.2808	71.7693	133.8995	141.3623	196.7888	253.1121	307.5817	341.9571	380.6583	487.056	642.2428	651.777	713.1243	758.9554	762.6575	815.0238	894.0525	916.0637	986.9441	1025.4935	1038.8657	1062.28	1065.6107	1129.5571	1179.8896	1192.4895	1295.4108	1332.9307	1393.6796	1405.973	1419.8655	1465.9685	1481.2378	1484.4408	1484.7692	1498.4189	1518.221	1554.1572	1662.0832	3042.4463	3042.6999	3049.6641	3084.2428	3099.2178	3125.6931	3130.1543	3138.7755	3287.2929
CCOC1=CC(C)=NO1	CCOc1cc(C)no1	
InChI=1S/C6H9NO2/c1-3-8-6-4-5(2)7-9-6/h4H,3H2,1-2H3	InChI=1S/C6H9NO2/c1-3-8-6-4-5(2)7-9-6/h4H,3H2,1-2H3
