20
gdb 84935	2.50825	1.55335	1.0286	2.909	83.79	-0.2134	0.0034	0.2168	1186.9754	0.172947	-403.196103	-403.187416	-403.186472	-403.229675	32.586	
C	 0.2645006404	 1.5066233642	-0.0583412724	-0.357835
N	-0.0266293361	 0.0754806548	 0.0349834669	-0.119234
C	-0.3191516944	-0.5557455001	-1.1862888391	 0.024177
C	-0.2624621387	-1.8334738193	-1.578245651	-0.092475
C	 0.1409092733	-3.0765193564	-0.8418362946	-0.260542
C	 0.6161073338	-2.8669673135	 0.5954522934	-0.217525
C	-0.351492207	-1.976035412	 1.3989719919	-0.305568
C	-0.0265562678	-0.4971533366	 1.2992726856	 0.398851
O	 0.2361364497	 0.1589756014	 2.2919532831	-0.369639
H	 1.1870015521	 1.6792903093	-0.6228739679	 0.128966
H	-0.5566056258	 2.027687064	-0.5630348475	 0.125448
H	 0.3792199429	 1.8936169013	 0.9515172112	 0.171963
H	-0.6383489576	 0.172913041	-1.926879866	 0.099482
H	-0.5839773986	-1.9981250836	-2.6037397118	 0.090063
H	-0.7179845306	-3.7650935773	-0.8361158395	 0.110513
H	 0.9164667947	-3.5974602458	-1.4205745787	 0.10944
H	 0.7061582105	-3.8410408663	 1.0864821428	 0.105487
H	 1.6182085469	-2.4232562928	 0.6074749313	 0.113097
H	-1.3812102017	-2.1526020933	 1.0630267995	 0.118477
H	-0.3050718161	-2.2025396292	 2.4649632628	 0.126854
81.6553	105.4073	115.6986	224.16	249.26	334.3677	347.3049	407.3436	449.2593	511.5491	556.9898	674.6255	703.9879	752.2239	790.2183	853.3473	893.6343	929.6207	959.753	981.6942	1031.2504	1071.6577	1086.6327	1126.4428	1157.1912	1177.6	1222.7876	1259.6575	1264.7182	1306.8028	1350.179	1366.6869	1394.7716	1413.0764	1427.717	1468.7591	1473.9951	1480.1013	1498.6802	1503.0082	1515.7866	1737.2738	1758.8343	2989.8848	3019.1494	3030.6254	3033.9678	3044.0224	3080.1438	3084.685	3123.4928	3145.2446	3167.174	3181.061
CN1C=CCCCC1=O	CN1C=CCCCC1=O	
InChI=1S/C7H11NO/c1-8-6-4-2-3-5-7(8)9/h4,6H,2-3,5H2,1H3	InChI=1S/C7H11NO/c1-8-6-4-2-3-5-7(8)9/h4,6H,2-3,5H2,1H3
