17
gdb 111936	3.99434	1.28709	1.16858	4.4423	74.39	-0.2339	-0.0615	0.1724	1066.4065	0.13621	-417.859335	-417.852094	-417.851149	-417.891042	28.993	
O	 0.035490972	 1.4208451731	-0.1522736032	-0.418939
C	 0.0742988348	 0.0247828901	 0.0259445872	-0.051527
C	-1.3401831771	-0.5578806493	 0.0941899464	-0.003281
N	-1.948913441	-0.2462710534	-1.2365602899	-0.178873
C	-2.5737455245	-1.3053872555	-1.5601943548	 0.129301
N	-1.9310820973	-2.1779693778	-2.5621992752	-0.341356
C	-1.6250068011	-2.9433586077	-1.2302076751	-0.025429
C	-1.4463087305	-2.0996670344	 0.1124958693	-0.074045
C	-2.7767730745	-2.4166741119	-0.4744723431	-0.175768
H	-0.5026622133	 1.5572258861	-0.9435299189	 0.29415
H	 0.6276483423	-0.4805979938	-0.779808883	 0.098026
H	 0.5929759344	-0.169477363	 0.9724190352	 0.102048
H	-1.8645773007	-0.1176327789	 0.9549471183	 0.09155
H	-2.6261819753	-2.7973884156	-2.994731251	 0.226659
H	-1.2330368071	-3.9523430789	-1.3114689415	 0.118502
H	-1.0466564605	-2.6763919594	 0.9439632265	 0.097918
H	-3.6753489307	-2.8590501498	-0.065796417	 0.111064
102.3577	145.5801	207.8691	371.7378	425.4374	468.9886	498.7302	547.3129	622.479	673.606	689.4271	765.5857	776.6463	827.4708	836.4615	873.6495	950.8719	966.3921	1005.1924	1015.1886	1039.2379	1057.3337	1088.9105	1102.154	1121.5205	1143.0655	1190.4198	1204.1264	1233.3081	1258.2136	1281.3842	1305.7072	1354.8021	1386.4044	1430.7191	1498.3561	1621.2566	2990.4642	3003.5531	3062.4228	3144.1077	3167.5405	3201.1192	3367.1024	3765.1501
OCC1N=C2NC3C1C23	OC[C@H]1[N][C]2N[C@H]3[C@@H]1[C@@H]23	
InChI=1S/C6H8N2O/c9-1-2-3-4-5(3)8-6(4)7-2/h2-5,9H,1H2,(H,7,8)	InChI=1S/C6H8N2O/c9-1-2-3-4-5(3)8-6(4)7-2/h2-5,9H,1H2,(H,7,8)/t2-,3+,4-,5+/m1/s1
