19
gdb 89662	2.96844	1.27779	1.06187	3.7627	82.32	-0.2447	0.0118	0.2565	1191.3321	0.158944	-382.057125	-382.048121	-382.047177	-382.090488	33.902	
C	-0.0824072839	 1.5685803411	 0.0554292703	-0.413749
C	 0.0427428159	 0.0544327461	-0.0255840016	-0.004457
C	 1.1427751263	-0.563575684	-0.9646573324	-0.30443
C	 1.7178184166	-1.2925150983	 0.2552953379	 0.192191
N	 2.0816956667	-0.2235627317	 1.2341367188	-0.39224
C	 0.6847904559	-0.6848781642	 1.1708328908	 0.257476
C	-0.0212967209	-1.2559281957	 2.3602365848	-0.505781
C	 2.3197792084	-2.5809445661	 0.3146716376	 0.171703
N	 2.7969676374	-3.6355760173	 0.3617019505	-0.351495
H	 0.8772549578	 2.0183526661	 0.3228785635	 0.141101
H	-0.4021928874	 1.9841519668	-0.9058735658	 0.118593
H	-0.8227951432	 1.8651649984	 0.8064800249	 0.114831
H	-0.9258205408	-0.402208183	-0.2520919627	 0.082372
H	 0.7347017977	-1.2358657216	-1.7203980474	 0.122684
H	 1.8367970575	 0.1418181668	-1.4265416784	 0.119726
H	 2.5226093063	-0.6776467125	 2.034978981	 0.24129
H	-0.2989888335	-0.4635083581	 3.0647517635	 0.138014
H	-0.9373096837	-1.7737779346	 2.0593614742	 0.135968
H	 0.6143913869	-1.9733218881	 2.8896713306	 0.136203
110.0129	124.4941	179.6364	193.9664	219.9632	255.0646	304.4471	356.595	442.4533	474.1209	549.0423	568.1706	623.395	684.5976	701.746	792.6254	843.5303	895.5572	925.2725	1006.5607	1047.8253	1057.2348	1084.3809	1103.7762	1126.2589	1137.8685	1185.5331	1237.8728	1245.7845	1306.4885	1340.2113	1356.4784	1404.3233	1412.582	1443.2304	1480.5226	1483.8739	1492.5965	1496.8638	1504.1919	2338.0372	3029.9764	3034.6403	3057.7151	3077.0178	3094.8982	3096.5896	3107.5168	3123.7037	3140.4919	3468.5292
CC1CC2(NC12C)C#N	C[C@H]1C[C@]2(N[C@@]12C)C#N	
InChI=1S/C7H10N2/c1-5-3-7(4-8)6(5,2)9-7/h5,9H,3H2,1-2H3	InChI=1S/C7H10N2/c1-5-3-7(4-8)6(5,2)9-7/h5,9H,3H2,1-2H3/t5-,6-,7-/m0/s1
