22
gdb 5888	4.11271	0.86339	0.84619	1.6556	75.05	-0.2581	0.0652	0.3233	1470.7158	0.197049	-387.344368	-387.333762	-387.332818	-387.37983	38.425	
C	-0.0620426582	 1.5807933556	 0.1671970876	-0.416111
C	 0.0097123773	 0.0534364024	 0.02060238	 0.340638
C	 0.7250442808	-0.5653868642	 1.2310621443	-0.410746
O	-1.3143093463	-0.4887179932	-0.0783979808	-0.458499
C	 0.7200904933	-0.3763801076	-1.2765000797	-0.181491
C	 0.0772154512	 0.1323301799	-2.5702404493	-0.177798
C	 0.7121885582	-0.482615416	-3.8101832966	-0.076655
O	 0.0861472769	 0.0855976088	-4.9517512389	-0.422416
H	 0.9368162626	 2.0295195121	 0.1660331896	 0.113235
H	-0.6436363768	 2.0245803181	-0.6438015016	 0.128882
H	-0.542559486	 1.850227118	 1.1154530433	 0.09982
H	 0.2070915037	-0.3031337663	 2.1612167279	 0.099178
H	 0.7399771192	-1.6557109143	 1.146119652	 0.119571
H	 1.7566865235	-0.2077075604	 1.3140321838	 0.11135
H	-1.8068938185	-0.2066051761	 0.699341951	 0.273982
H	 1.7669150946	-0.0519116014	-1.2220083444	 0.08857
H	 0.7321767739	-1.4738596354	-1.2880162483	 0.097451
H	-0.9917360163	-0.0997248165	-2.5646207933	 0.125329
H	 0.1688970713	 1.2213019741	-2.6516537129	 0.101202
H	 1.7975387425	-0.2839947377	-3.8135892154	 0.07765
H	 0.5844290232	-1.5775790807	-3.7896919101	 0.083658
H	 0.4719185098	-0.3151545091	-5.7359504584	 0.2832
63.7902	76.3293	127.0776	152.1765	230.1121	256.7543	262.727	277.3771	290.0352	302.3501	343.301	397.0076	441.1233	494.9628	534.3863	758.9385	769.0103	860.1506	914.4526	927.9873	960.2599	994.755	1030.3278	1057.0794	1076.1675	1081.7529	1160.8914	1183.9851	1201.1187	1245.4405	1252.3171	1306.3252	1318.5196	1331.9236	1371.1488	1395.9207	1400.1274	1416.5766	1463.2442	1471.9967	1482.5886	1488.1742	1500.5251	1504.4636	1510.6274	1529.2778	2952.0592	2978.5169	3017.9506	3024.311	3031.6112	3047.1071	3057.6115	3087.7469	3095.2467	3104.4341	3114.5031	3127.554	3809.8677	3830.4078
CC(C)(O)CCCO	CC(C)(O)CCCO	
InChI=1S/C6H14O2/c1-6(2,8)4-3-5-7/h7-8H,3-5H2,1-2H3	InChI=1S/C6H14O2/c1-6(2,8)4-3-5-7/h7-8H,3-5H2,1-2H3
