18
gdb 70556	2.68435	1.55239	1.17522	3.7624	72.69	-0.2309	0.0254	0.2563	1078.119	0.148269	-439.105685	-439.097623	-439.096679	-439.138108	31.424	
C	-0.0427312656	 1.4845546012	-0.0302204955	-0.446756
C	-0.0334968295	-0.0282931741	 0.0225814687	 0.287875
C	-0.8398817027	-0.7522524714	 1.0918178568	-0.345069
C	 0.6662297599	-0.7451822434	 1.1443379406	 0.072129
O	 1.3217324119	-1.9365625423	 0.8342560845	-0.249463
C	 2.0659986454	-1.8438983645	-0.373447527	-0.201894
C	 1.1886573277	-1.4770102381	-1.5719623447	 0.38156
O	 1.4092564643	-1.8793735756	-2.6964392507	-0.36908
N	 0.1287121755	-0.6765324944	-1.2493159531	-0.352867
H	 0.8682729794	 1.8648105245	-0.503756218	 0.128529
H	-0.9021812582	 1.8510269525	-0.6040260141	 0.122989
H	-0.1140008878	 1.9094912829	 0.9750372026	 0.12454
H	-1.3874648128	-0.1597089957	 1.8164448279	 0.116279
H	-1.2970416612	-1.6928896533	 0.8089366561	 0.130162
H	 1.1658434918	-0.1412252298	 1.9016640381	 0.095122
H	 2.8856124104	-1.1133310176	-0.2850917727	 0.115202
H	 2.5004089933	-2.8256523228	-0.5650515673	 0.144932
H	-0.5043084518	-0.4551839381	-2.0058333722	 0.24581
89.9107	160.5229	222.785	248.3992	307.2514	403.6927	441.4838	443.9835	479.5009	508.9423	533.7875	597.4117	660.2091	789.0197	841.3797	869.8945	888.9869	940.4938	997.3304	1029.4342	1041.9154	1055.6151	1081.9974	1114.3495	1129.2049	1188.0519	1251.6983	1263.3796	1325.2026	1353.0968	1370.9893	1403.7942	1418.9303	1441.8364	1473.3663	1483.2005	1492.8365	1503.623	1806.7116	2987.6926	3028.4975	3092.1758	3102.8362	3114.4199	3134.3531	3140.2527	3238.1712	3590.1186
CC12CC1OCC(=O)N2	C[C@]12C[C@H]1OCC(=O)N2	
InChI=1S/C6H9NO2/c1-6-2-4(6)9-3-5(8)7-6/h4H,2-3H2,1H3,(H,7,8)	InChI=1S/C6H9NO2/c1-6-2-4(6)9-3-5(8)7-6/h4H,2-3H2,1H3,(H,7,8)/t4-,6+/m1/s1
