16
gdb 23239	2.91892	1.40318	1.11294	0.9298	68.96	-0.251	-0.0261	0.2249	1082.8519	0.123337	-474.92382	-474.915527	-474.914583	-474.957307	30.506	
O	-0.1971039796	 1.2433110698	-0.396927467	-0.381237
N	-0.0524962924	-0.1294134834	-0.1722435029	-0.229091
C	-1.1676595199	-0.6854059118	 0.0591832978	 0.370531
C	-2.6257863542	-0.2460201524	 0.2256707261	 0.030383
O	-3.2842763998	 0.3913104737	-0.8377473418	-0.419202
C	-2.9833080878	-1.7386904278	 0.5678670791	-0.10964
C	-3.2612683044	-2.6187721844	-0.651888206	-0.089463
O	-1.8456526251	-2.8360198637	-0.88442099	-0.289963
C	-1.4867972328	-2.1344200175	 0.3349917369	-0.002187
H	 0.7136652031	 1.5268562776	-0.535607326	 0.312531
H	-2.7491493401	 0.3999964184	 1.1021255045	 0.115474
H	-2.8720458166	 0.1139925347	-1.6620444247	 0.29888
H	-3.5375502865	-1.9153252316	 1.4869042519	 0.087623
H	-3.7723910093	-3.5619042877	-0.4251244206	 0.107845
H	-3.7607541502	-2.1346146584	-1.4988859894	 0.106448
H	-0.8465445542	-2.7237252256	 0.9934934022	 0.091069
44.8974	142.2064	156.1758	225.7548	277.2748	283.3496	375.3106	446.5177	488.5815	548.4749	625.8364	698.7371	769.4672	834.5456	845.5616	925.477	958.9285	986.2369	1003.9979	1019.6264	1069.8441	1112.4379	1143.8656	1166.8399	1180.5079	1216.4047	1229.8378	1274.3886	1287.0795	1311.1884	1356.1079	1411.2878	1414.8917	1526.0189	1763.7971	3023.0099	3051.1795	3067.6167	3102.0544	3140.0643	3808.3335	3825.1677
ON=C1C(O)C2COC12	ON=C1[C@@H](O)[C@H]2CO[C@@H]12	
InChI=1S/C5H7NO3/c7-4-2-1-9-5(2)3(4)6-8/h2,4-5,7-8H,1H2	InChI=1S/C5H7NO3/c7-4-2-1-9-5(2)3(4)6-8/h2,4-5,7-8H,1H2/t2-,4+,5-/m1/s1
