15
gdb 14537	4.51652	1.60958	1.43525	3.5077	65.88	-0.2584	0.0197	0.2781	878.1352	0.118695	-362.630266	-362.623019	-362.622075	-362.661572	26.991	
C	-0.0073471922	 1.5376075692	 0.004638732	-0.478904
C	 0.0372650016	 0.0204387801	-0.0506079637	 0.124304
C	-1.105719333	-0.6512576053	 0.5170168695	 0.231416
N	-2.0223053421	-1.1839879477	 0.9812742523	-0.338167
C	 0.6553824484	-0.7807565147	-1.2096456518	-0.161174
C	 1.9102455698	-0.0696018571	-1.6994302762	-0.117145
O	 2.4428367545	-0.01267675	-0.3431443628	-0.282005
C	 1.3355406382	-0.7637355676	 0.1302412595	 0.080963
H	 0.9854214306	 1.9460292954	-0.1918653595	 0.149336
H	-0.7146361424	 1.9415314752	-0.7253393295	 0.135136
H	-0.3163460768	 1.87001268	 0.9991673679	 0.142633
H	 0.1089329111	-1.5598471236	-1.7219308505	 0.128801
H	 2.5430459731	-0.706601706	-2.3250193135	 0.129663
H	 1.8069292281	 0.9207362576	-2.1538277584	 0.121028
H	 1.497190071	-1.5045681655	 0.9038508243	 0.134115
151.9983	159.8614	172.5802	267.6228	280.1916	411.5581	473.0943	551.1021	558.3491	667.5999	754.3909	836.0439	905.4941	938.6904	955.4617	981.2097	995.1398	1049.4782	1078.9913	1092.5267	1108.9977	1159.8892	1199.8449	1243.8697	1278.0955	1316.841	1383.9887	1412.6066	1488.621	1498.0384	1515.3225	2345.9322	3044.5817	3051.6881	3097.7944	3118.8229	3142.0403	3193.4337	3219.3428
CC1(C#N)C2COC12	C[C@@]1(C#N)[C@H]2CO[C@@H]12	
InChI=1S/C6H7NO/c1-6(3-7)4-2-8-5(4)6/h4-5H,2H2,1H3	InChI=1S/C6H7NO/c1-6(3-7)4-2-8-5(4)6/h4-5H,2H2,1H3/t4-,5+,6+/m0/s1
