16
gdb 97905	5.41553	0.54918	0.52415	4.3212	75.71	-0.26	0.0051	0.2651	2010.0843	0.121386	-437.848022	-437.837586	-437.836642	-437.885641	34.946	
O	 0.1344165351	 0.9655012008	-0.8571036789	-0.408364
C	-0.0792139913	 0.2250311485	 0.3375202539	-0.216259
C	-1.4219397164	-0.3413069644	 0.3280389177	 0.16242
C	-2.5275159827	-0.8150940342	 0.3399561619	 0.027045
C	-3.8607700193	-1.3966578262	 0.3283312308	-0.384977
C	-3.8443572542	-2.8958921837	-0.0689849001	-0.007681
O	-3.0634098727	-3.6939273887	 0.7902354507	-0.397291
C	-5.2316867705	-3.4014151912	-0.158941347	 0.254996
N	-6.3202993891	-3.7874128659	-0.1924376116	-0.312108
H	 1.0300628693	 1.3166843195	-0.8210405796	 0.291934
H	 0.6511925992	-0.5942785425	 0.4377850608	 0.122243
H	 0.0337836132	 0.8624529768	 1.229763801	 0.119251
H	-4.3356961513	-1.3015086783	 1.3139292775	 0.139094
H	-4.5070055419	-0.8565150823	-0.374541633	 0.157904
H	-3.38147682	-2.9902821945	-1.0562347621	 0.155479
H	-3.4471662275	-3.6603874737	 1.6744816378	 0.296311
21.1378	46.631	76.1056	140.0179	167.5222	221.065	235.7958	277.483	322.9351	337.1922	379.0611	461.5076	547.7461	565.5802	590.9548	781.5104	857.9357	933.5664	1017.5991	1027.3429	1052.4193	1099.5397	1156.624	1192.2142	1247.4483	1256.778	1279.7013	1322.1768	1359.9828	1421.5617	1460.7256	1462.4608	1502.3563	2354.9816	2378.2598	2964.7415	2983.6062	3021.2126	3058.5966	3081.3357	3797.7473	3818.955
OCC#CCC(O)C#N	OCC#CC[C@@H](O)C#N	
InChI=1S/C6H7NO2/c7-5-6(9)3-1-2-4-8/h6,8-9H,3-4H2	InChI=1S/C6H7NO2/c7-5-6(9)3-1-2-4-8/h6,8-9H,3-4H2/t6-/m1/s1
