17
gdb 32691	4.61324	0.96232	0.83657	2.5178	83.04	-0.2281	-0.028	0.2	1377.4239	0.137016	-418.033894	-418.025689	-418.024745	-418.067837	29.938	
C	-0.1122564689	 1.5645645633	-0.0162057838	-0.35979
C	 0.0933840995	 0.0466878133	 0.0218580556	-0.13849
N	 0.8122687141	-0.388577424	-1.1632910621	-0.31518
C	 1.9085755524	-1.0314497266	-1.0576233702	 0.356339
C	 2.6353198955	-1.4602912901	-2.2508729268	-0.190203
C	 3.776005565	-2.1414419051	-2.1306841028	 0.054205
O	 4.3107398649	-2.4620267765	-0.9079042618	-0.194662
C	 3.602006131	-2.0353495534	 0.1711874916	 0.129148
N	 2.5141909003	-1.3873938657	 0.1801380968	-0.312391
H	 0.8477585241	 2.0876238247	 0.0394455265	 0.114215
H	-0.6061089503	 1.8642595414	-0.944992719	 0.121439
H	-0.7277559689	 1.8899756165	 0.8286302604	 0.105937
H	 0.5885049661	-0.247869365	 0.9544541156	 0.110363
H	-0.8907613741	-0.4415363398	 0.000937493	 0.100535
H	 2.2319741109	-1.2186576735	-3.2253679342	 0.128009
H	 4.3925967522	-2.5085949074	-2.939835708	 0.145523
H	 4.1057294062	-2.3316604122	 1.0876192591	 0.145005
32.6584	96.5687	160.8577	198.1111	279.9137	365.2044	434.0638	440.8887	506.0626	587.0547	670.9577	760.852	784.3457	826.0843	841.5689	907.5462	936.8767	965.3276	967.1855	1002.9163	1066.9365	1083.2995	1116.2335	1165.7926	1214.3584	1289.8078	1299.6838	1371.8914	1401.4488	1405.6279	1420.9485	1488.1602	1493.0497	1509.209	1645.2015	1710.2781	1731.4618	3007.0461	3036.4518	3056.0602	3106.7851	3116.8829	3178.7599	3220.8718	3241.6821
CCN=C1C=COC=N1	CCN=c1ccocn1	
InChI=1S/C6H8N2O/c1-2-7-6-3-4-9-5-8-6/h3-5H,2H2,1H3	InChI=1S/C6H8N2O/c1-2-7-6-3-4-9-5-8-6/h3-5H,2H2,1H3
