20
gdb 6206	3.62386	1.46119	1.33844	1.3668	77.76	-0.2335	0.0225	0.256	1045.3818	0.175792	-349.031028	-349.022185	-349.021241	-349.063856	33.597	
C	 0.0026573666	 1.5260941129	 0.0714120475	-0.490817
C	-0.0348009243	 0.0323332382	 0.0064338885	 0.326844
C	-0.0670378429	-0.733002085	-1.0862797042	-0.22336
C	-0.012979864	-2.2142284822	-0.7724541872	 0.368819
C	-0.9765953184	-3.0657293652	-1.6020252196	-0.433792
O	 1.3283489454	-2.7205682482	-0.9363243424	-0.474717
C	-0.304905829	-2.2406592283	 0.7468382728	-0.234311
C	 0.0046366255	-0.8170951354	 1.2607033082	-0.303486
H	 0.9064139794	 1.8734801167	 0.5885633934	 0.127665
H	-0.0144131355	 1.978237728	-0.923948306	 0.121639
H	-0.8490691569	 1.9189293883	 0.641215208	 0.124829
H	-0.0733327827	-0.3608013955	-2.1074398963	 0.074944
H	-0.725219153	-3.0082455175	-2.668022459	 0.099089
H	-0.9132506211	-4.1151837377	-1.298258329	 0.120345
H	-2.0104773318	-2.7257375833	-1.4839893176	 0.112689
H	 1.6036204976	-2.5280397448	-1.8390965083	 0.268507
H	-1.3617589038	-2.4720206793	 0.9092810882	 0.096686
H	 0.2874960188	-3.019419012	 1.2318515978	 0.109844
H	 0.995744265	-0.7518618075	 1.7298555598	 0.112059
H	-0.7138455948	-0.4774815822	 2.0166040954	 0.096522
86.1647	143.1881	188.355	235.7208	242.7495	276.0679	333.1406	357.23	406.5158	440.6384	511.2555	579.9654	611.6699	771.5799	833.8851	869.5617	885.9672	926.4079	936.1688	982.2452	995.2897	1023.8012	1047.2622	1103.3722	1123.3306	1167.2297	1189.9014	1210.3062	1262.4377	1294.1967	1325.4257	1349.0205	1377.7449	1402.3689	1413.9427	1472.2188	1480.2796	1487.0236	1489.5008	1491.4747	1492.787	1720.385	3014.7084	3019.4151	3024.2224	3045.3614	3062.7609	3063.7228	3090.269	3110.0396	3110.0873	3116.4045	3164.1866	3805.0301
CC1=CC(C)(O)CC1	CC1=C[C@@](C)(O)CC1	
InChI=1S/C7H12O/c1-6-3-4-7(2,8)5-6/h5,8H,3-4H2,1-2H3	InChI=1S/C7H12O/c1-6-3-4-7(2,8)5-6/h5,8H,3-4H2,1-2H3/t7-/m0/s1
