15
gdb 55257	3.42861	1.21421	0.98052	4.9621	62.53	-0.239	0.0175	0.2566	1151.0972	0.114246	-491.145162	-491.137116	-491.136171	-491.178652	29.339	
O	-0.1405300459	-0.0232894546	 0.5433491807	-0.365408
C	-0.0882884218	 1.2263386316	 0.0650379265	 0.415797
O	 0.9292148507	 1.750458534	-0.3022627878	-0.339118
C	-1.4511477413	 1.9381217396	 0.0494690553	-0.13974
C	-1.7161979744	 2.7013589585	-1.2724652669	-0.117655
O	-2.8489453246	 2.0029168313	-1.843311928	-0.245663
C	-3.2230601191	 1.0821560885	-0.9278087116	 0.500279
N	-4.3362665777	 0.3826018943	-1.2621740151	-0.573618
H	-4.5854516668	 0.3623377453	-2.2372292091	 0.274788
H	-4.5099294937	-0.4548508447	-0.7318716649	 0.276332
N	-2.5490965794	 0.9730480856	 0.1604623718	-0.393897
H	-1.4450653665	 2.62297061	 0.9061076847	 0.12144
H	-2.0048864452	 3.7432294241	-1.1180856679	 0.128185
H	-0.8762405806	 2.6528170982	-1.9671639787	 0.150185
H	-1.0901032437	-0.2120706818	 0.6893979709	 0.308093
57.9804	73.5892	167.2443	240.1608	341.7148	371.3613	411.828	463.7449	505.7461	551.7328	696.5696	720.3422	742.9654	760.1988	814.7954	836.9234	938.8652	1009.107	1022.4091	1054.4797	1078.9869	1172.7576	1204.3204	1227.5639	1268.1253	1321.4614	1347.633	1411.6419	1452.1298	1527.978	1616.9445	1734.7801	1868.3578	3032.8313	3076.7141	3134.8664	3547.7347	3610.9064	3730.6065
[O-]C(=O)C1COC(=[NH2+])N1	OC(=O)[C@H]1COC(=N1)N	
InChI=1S/C4H6N2O3/c5-4-6-2(1-9-4)3(7)8/h2H,1H2,(H2,5,6)(H,7,8)	InChI=1S/C4H6N2O3/c5-4-6-2(1-9-4)3(7)8/h2H,1H2,(H2,5,6)(H,7,8)/t2-/m1/s1
