14
gdb 65798	2.20924	1.65229	1.42415	4.7986	68.02	-0.2716	-0.0801	0.1915	972.3326	0.100641	-436.722749	-436.714844	-436.7139	-436.755484	29.109	
O	 0.0561250698	 1.4311775409	 0.1555178729	-0.44551
C	-0.0249134877	 0.0343754186	 0.0435349597	 0.171409
C	-1.480234829	-0.4652121691	-0.0998518954	-0.31939
C	-1.4260289602	-1.3974707436	-1.284523174	-0.042523
C	-0.251508627	-1.3919187743	-1.9303816809	-0.170856
C	 0.6575450774	-0.432315738	-1.2904903434	 0.338947
O	 1.697994242	 0.0403026839	-1.674623238	-0.329252
C	 0.6524033691	-0.6375300907	 1.172486437	 0.245183
N	 1.1912784627	-1.1654787753	 2.0482865614	-0.329666
H	 0.9272080821	 1.6782962106	-0.191545623	 0.302257
H	-1.860489206	-0.9566160252	 0.7995403656	 0.148238
H	-2.126730634	 0.3963328201	-0.3009040986	 0.156709
H	-2.2883883082	-1.9876121324	-1.574545425	 0.136146
H	 0.005598239	-1.9400709255	-2.8266005783	 0.138308
62.7591	137.2758	188.9362	247.3998	297.7534	381.1369	425.7138	455.1852	507.9904	583.9076	643.904	652.901	721.9517	759.1832	838.3804	903.7242	952.6307	995.9626	1003.2418	1081.1994	1110.5804	1130.4153	1185.952	1228.2998	1327.7771	1359.1201	1395.0005	1464.5593	1640.9833	1827.3807	2347.3258	3055.2919	3102.042	3200.8763	3238.1501	3721.3541
OC1(CC=CC1=O)C#N	O[C@]1(CC=CC1=O)C#N	
InChI=1S/C6H5NO2/c7-4-6(9)3-1-2-5(6)8/h1-2,9H,3H2	InChI=1S/C6H5NO2/c7-4-6(9)3-1-2-5(6)8/h1-2,9H,3H2/t6-/m1/s1
