21
gdb 53551	4.1425	0.77161	0.74213	0.1464	91.53	-0.2366	0.0595	0.2961	1649.0225	0.181628	-349.906787	-349.897118	-349.896174	-349.943177	35.027	
C	 0.0594530318	 1.4933002936	 0.2311681055	-0.495587
C	 0.0507717815	 0.0487978149	 0.0470676044	 0.053881
C	 0.0534756849	-1.1458566123	-0.1036514288	 0.081954
C	 0.0185978905	-2.5962787652	-0.2917403986	-0.478596
C	-1.3729229593	-3.1732476426	-0.1605892794	 0.401827
C	-1.9707407274	-3.5704276196	 1.1586541256	-0.307924
C	-1.822474841	-4.6178545118	 0.0850172132	-0.115906
C	-2.9462879063	-4.4653348024	-0.9461617487	-0.218303
C	-2.493974395	-2.9875391436	-1.1941815554	-0.279685
H	 0.595731236	 1.7768934993	 1.1437584387	 0.144826
H	 0.5466754975	 2.0009270294	-0.6089306259	 0.144637
H	-0.9585365193	 1.8910552901	 0.3107227117	 0.145402
H	 0.4275767391	-2.8442896132	-1.2816046043	 0.120761
H	 0.6813421434	-3.0807369553	 0.438090914	 0.121316
H	-1.2655366885	-3.6448652524	 1.9810520469	 0.107388
H	-2.9580999166	-3.2183671529	 1.4518852213	 0.100301
H	-1.2193333888	-5.5056157213	 0.2383739804	 0.080824
H	-2.8112399285	-5.0925041704	-1.8301735994	 0.101022
H	-3.9633771062	-4.6132565179	-0.5677133963	 0.094583
H	-3.2204966155	-2.1982446871	-0.9770369579	 0.096492
H	-2.1136509423	-2.8378857192	-2.208062377	 0.10079
23.9492	44.7954	71.6921	191.609	204.1858	258.0639	316.498	353.2476	382.2934	417.5896	446.9947	675.3593	728.8467	751.9182	785.0067	854.4852	892.7585	909.9523	936.772	954.6069	972.6791	1022.7634	1027.4109	1053.6447	1054.2421	1085.3439	1103.2401	1147.1847	1160.5535	1178.7903	1219.8086	1239.3884	1261.6842	1269.8331	1320.7265	1335.159	1399.3406	1415.3679	1464.1134	1479.5107	1479.6963	1482.1694	1486.4033	1512.9222	2372.5168	2999.9578	3024.4777	3031.9538	3041.8793	3050.8543	3083.9658	3083.9982	3091.3661	3098.358	3110.3335	3171.3007	3191.9731
CC#CCC12CC1CC2	CC#CC[C@]12C[C@H]1CC2	
InChI=1S/C9H12/c1-2-3-5-9-6-4-8(9)7-9/h8H,4-7H2,1H3	InChI=1S/C9H12/c1-2-3-5-9-6-4-8(9)7-9/h8H,4-7H2,1H3/t8-,9+/m1/s1
