15
gdb 73250	2.34289	1.94479	1.41631	1.9362	60.33	-0.2724	-0.0128	0.2596	924.728	0.113074	-494.914697	-494.907314	-494.906369	-494.946688	27.773	
O	 0.0754680863	 1.4072271614	-0.0692932895	-0.467776
C	 0.0014661973	 0.0204723042	-0.0456344955	 0.20374
C	 0.2016243105	-0.7647511601	-1.3657414893	-0.131427
O	-0.9987446516	-1.5293905727	-1.1157251605	-0.289522
C	-1.3524934439	-0.7153073603	 0.0205163075	 0.052614
C	-1.3169356048	-1.510462434	 1.3215209249	-0.108037
O	 0.0596257455	-1.5035376503	 1.7693020362	-0.220804
C	 0.7802218479	-0.5572161246	 1.1348339675	 0.397057
O	 1.8707943326	-0.1978606066	 1.4834772977	-0.359391
H	 0.913220874	 1.6476548892	 0.3519214737	 0.300956
H	 0.1027507401	-0.1095282548	-2.2392352967	 0.120679
H	 1.0903134464	-1.3966650807	-1.4646392462	 0.123864
H	-2.2708807524	-0.142933077	-0.1335356068	 0.104863
H	-1.9285254143	-1.0555892252	 2.1073851341	 0.128225
H	-1.6198305637	-2.5477907185	 1.168130863	 0.144962
90.6993	170.7935	216.7845	285.7207	303.9858	389.9375	417.2354	511.1606	590.8028	665.8377	740.4608	761.176	807.1422	865.7113	928.4669	989.2403	1013.1535	1059.4189	1060.0963	1081.1738	1106.1605	1153.4176	1174.7149	1207.9693	1242.7337	1283.08	1337.4133	1350.8839	1400.4762	1417.9613	1498.685	1516.5121	1865.9205	3028.2668	3055.9442	3085.1264	3088.158	3128.3538	3742.7597
OC12COC1COC2=O	O[C@]12CO[C@H]1COC2=O	
InChI=1S/C5H6O4/c6-4-5(7)2-9-3(5)1-8-4/h3,7H,1-2H2	InChI=1S/C5H6O4/c6-4-5(7)2-9-3(5)1-8-4/h3,7H,1-2H2/t3-,5+/m0/s1
