12
gdb 131595	4.73161	1.01152	0.83769	3.7841	57.88	-0.2863	-0.1017	0.1846	1238.8233	0.074901	-505.876811	-505.868721	-505.867777	-505.910637	27.337	
O	 0.0033722042	 1.3973800057	 0.0086610186	-0.393739
C	-0.0108893723	-0.0014721149	 0.0027658187	-0.177361
C	-1.4558948984	-0.4744656293	 0.0134271319	 0.322541
O	-2.4120492566	 0.2529865411	 0.0246937183	-0.255001
C	-1.6370986756	-1.9626658085	 0.0079259008	 0.317541
N	-0.6696469859	-2.8379621953	-0.0049746998	-0.127237
O	-1.2694731467	-4.0322290206	-0.0052546022	-0.138727
N	-2.6761270702	-3.8248343481	 0.0083394408	 0.058392
N	-2.8731467751	-2.5927450576	 0.0159942592	-0.169788
H	 0.920149628	 1.6876083239	 0.0017450056	 0.300723
H	 0.4756869722	-0.4404597431	-0.8849845672	 0.131348
H	 0.4911187364	-0.4480367333	 0.8780600352	 0.131308
54.1098	86.0508	148.382	195.7964	227.4833	287.5857	363.6885	489.1027	546.9267	565.549	676.8375	758.2916	762.5858	978.5587	985.2357	1014.2699	1049.5388	1114.2651	1153.8519	1235.2111	1251.5115	1318.516	1448.1702	1484.2578	1504.116	1555.6724	1831.1104	2964.4235	2987.0664	3839.6221
OCC(=O)C1=NON=N1	OCC(=O)c1nonn1	
InChI=1S/C3H3N3O3/c7-1-2(8)3-4-6-9-5-3/h7H,1H2	InChI=1S/C3H3N3O3/c7-1-2(8)3-4-6-9-5-3/h7H,1H2
