18
gdb 23444	3.41942	1.20799	1.0655	1.8423	75.35	-0.2479	-0.0057	0.2421	1162.6222	0.148511	-439.03504	-439.027182	-439.026238	-439.067875	30.215	
O	-0.2742840027	 1.1597087022	-0.5588241624	-0.389495
N	-0.1299787115	-0.2227558674	-0.3572376909	-0.23193
C	-1.2065978704	-0.7372564753	 0.06478005	 0.404158
C	-2.5936739787	-0.2447647169	 0.4237341904	-0.345917
C	-2.9776352316	-1.7175862533	 0.7803296648	-0.043565
C	-3.8375314355	-2.4695484379	-0.2446160777	-0.229852
C	-2.8201677943	-2.8519483584	-1.3350369709	-0.091145
O	-1.6033247124	-3.1129210133	-0.6401266254	-0.245978
C	-1.5175393699	-2.1903599209	 0.4253466654	 0.012504
H	 0.6003148362	 1.4118886198	-0.8748898969	 0.308223
H	-2.6114023091	 0.4570891198	 1.2628333565	 0.128293
H	-3.1512083333	 0.2070419804	-0.4037316686	 0.122409
H	-3.3036161095	-1.8676351699	 1.8091083157	 0.079311
H	-4.2542671077	-3.3740747599	 0.2087272392	 0.109913
H	-4.6662079005	-1.8711423207	-0.6334824954	 0.104516
H	-3.0845906762	-3.7541494399	-1.8914910937	 0.112821
H	-2.6860371334	-2.0296645917	-2.0544832763	 0.101029
H	-0.8889787795	-2.6282724268	 1.2038772561	 0.094704
53.8211	148.0352	196.1434	245.4371	335.9554	379.5854	398.2691	485.1837	558.3553	641.105	659.374	759.9045	787.2292	848.6448	861.558	908.1818	939.6414	958.759	966.3019	985.8184	1049.1125	1075.1469	1102.0447	1142.4545	1159.1206	1181.9141	1212.2526	1233.6626	1246.0014	1265.6837	1304.8495	1325.5911	1344.2879	1387.0155	1402.2356	1456.5508	1485.9307	1517.9293	1774.3317	2989.314	3046.9627	3054.2243	3088.9805	3091.7818	3098.2352	3105.4779	3117.3396	3812.9532
ON=C1CC2CCOC12	ON=C1C[C@H]2CCO[C@@H]12	
InChI=1S/C6H9NO2/c8-7-5-3-4-1-2-9-6(4)5/h4,6,8H,1-3H2	InChI=1S/C6H9NO2/c8-7-5-3-4-1-2-9-6(4)5/h4,6,8H,1-3H2/t4-,6-/m1/s1
