13
gdb 16734	4.05078	1.84029	1.79909	3.8909	56.53	-0.2654	0.0076	0.273	764.0315	0.095868	-398.572435	-398.566025	-398.565081	-398.603134	23.923	
N	 0.4819732443	-0.8023375476	 0.7352564843	-0.327601
C	 0.2257097313	 0.255089578	 0.3476927708	 0.303585
C	-0.1272366671	 1.6026900602	-0.1883063809	 0.036621
O	-0.9092068281	 2.3187152821	 0.7414372152	-0.241935
C	-0.0595323971	 3.2595117402	 1.3680298738	 0.070493
C	 1.2206530339	 2.7589036149	 2.0035733287	-0.363604
C	 1.2049940541	 3.277610258	 0.5808657351	 0.070493
O	 1.0371474207	 2.3465713658	-0.4701609974	-0.241938
H	-0.7000347602	 1.4631917436	-1.1116780014	 0.149107
H	-0.605053406	 4.1216873218	 1.727095495	 0.126781
H	 1.6722269788	 3.4112799199	 2.7439961466	 0.131211
H	 1.3523859999	 1.6996387354	 2.1908398659	 0.160007
H	 1.7500464357	 4.1553945275	 0.2610522241	 0.12678
104.8384	173.1391	276.4216	314.3696	464.4399	516.1506	574.8999	735.4457	755.1789	775.0271	803.1919	905.9828	928.415	961.4355	987.3942	997.1262	1072.7434	1082.1793	1091.8423	1130.8041	1159.1557	1204.1398	1287.9343	1350.2174	1370.1829	1381.1468	1468.5566	2357.0484	3058.6735	3139.6935	3206.0082	3213.7102	3233.7321
N#CC1OC2CC2O1	N#C[C@H]1O[C@H]2C[C@H]2O1	
InChI=1S/C5H5NO2/c6-2-5-7-3-1-4(3)8-5/h3-5H,1H2	InChI=1S/C5H5NO2/c6-2-5-7-3-1-4(3)8-5/h3-5H,1H2/t3-,4+,5-
