16
gdb 125320	4.75142	0.86442	0.78173	2.6416	73.11	-0.2552	-0.0493	0.2059	1433.6386	0.123102	-434.076071	-434.067192	-434.066248	-434.111921	30.052	
C	 0.2341044872	 1.4737698724	-0.128803474	-0.482826
C	 0.0425681903	-0.0052648085	-0.0554256007	 0.309075
C	 0.1018007238	-0.9562485041	-1.0478592494	-0.193534
N	-0.1655226144	-2.1296171273	-0.4177758648	 0.069105
C	-0.1766544505	-3.4725526553	-0.948790782	-0.244992
C	 1.2317567935	-4.0167230266	-1.1859462596	 0.147283
O	 1.4846514118	-4.8400045569	-2.0214271683	-0.218459
N	-0.3691241988	-1.9207599466	 0.9003378747	-0.145756
N	-0.2480325168	-0.6446430361	 1.1170663599	-0.243789
H	 1.0255120707	 1.7985670745	 0.5535516265	 0.145767
H	 0.5044943948	 1.7848726834	-1.1408017058	 0.124629
H	-0.6800522966	 2.0028946241	 0.1586270995	 0.145214
H	 0.2933239292	-0.8982817182	-2.106542545	 0.149457
H	-0.6641669942	-4.1028717329	-0.1970972739	 0.175841
H	-0.7517558761	-3.5282989945	-1.8763788057	 0.153846
H	 2.0022716761	-3.5966178173	-0.5029864915	 0.109139
37.8649	44.4681	65.9474	104.7822	248.6091	268.6612	378.2482	398.593	427.9799	638.8983	668.3604	714.944	728.7398	785.0352	821.9387	995.8709	1026.6187	1038.0894	1049.8173	1066.2407	1068.6947	1152.5616	1190.9408	1287.3675	1320.5666	1329.0235	1375.054	1408.3286	1421.1974	1441.2877	1471.1019	1477.9707	1504.5191	1596.5267	1845.7699	2903.7378	3044.1483	3061.5759	3102.6556	3120.7703	3125.2908	3276.5765
CC1=CN(CC=O)N=N1	Cc1cn(CC=O)nn1	
InChI=1S/C5H7N3O/c1-5-4-8(2-3-9)7-6-5/h3-4H,2H2,1H3	InChI=1S/C5H7N3O/c1-5-4-8(2-3-9)7-6-5/h3-4H,2H2,1H3
