19
gdb 84731	2.48232	1.58941	1.06353	2.2578	84.36	-0.236	-0.0307	0.2052	1148.7811	0.159423	-385.928577	-385.920184	-385.91924	-385.961673	32.342	
C	-0.2658719588	 1.417949995	-0.1285471256	-0.408483
C	 0.2177035688	-0.0286828457	-0.0180875551	-0.126735
C	 1.1720791284	-0.4189023775	-1.1170648204	-0.080507
C	 1.5027456491	-1.6828456993	-1.4318628895	-0.092379
C	 1.0715041692	-2.8401637254	-0.6637494488	-0.08215
C	 0.9639580198	-2.8434751526	 0.6762117188	-0.093814
C	 1.4112826203	-1.7197708935	 1.5666208637	-0.350535
C	 0.7509155845	-0.3415848763	 1.3922069105	 0.385092
O	 0.6713555893	 0.436700247	 2.3064214202	-0.298777
H	 0.5730265371	 2.1151169804	-0.0394392003	 0.126014
H	-0.7527224014	 1.5866319402	-1.0932480055	 0.112321
H	-0.9718403153	 1.6541064444	 0.6696980026	 0.131984
H	-0.6433382638	-0.7167750018	-0.0891170768	 0.117576
H	 1.5610034256	 0.3990013312	-1.7189280511	 0.096434
H	 2.1006597641	-1.8637647374	-2.3225332818	 0.093438
H	 0.8478291515	-3.7526915467	-1.2122346252	 0.093594
H	 0.6014638594	-3.7386143679	 1.1738911082	 0.099377
H	 1.3448217892	-1.981477037	 2.6243849645	 0.127709
H	 2.4729719429	-1.5098918571	 1.3581240213	 0.149841
53.1211	158.1164	186.137	271.1478	287.7339	343.8756	357.9122	375.2087	501.1614	520.2297	588.0392	628.5386	704.4937	752.2211	814.5403	828.6423	897.1294	939.5681	951.4941	987.9198	991.7399	1027.6722	1038.6804	1084.0326	1143.7384	1157.0705	1184.7687	1236.1501	1248.0737	1273.9126	1305.6916	1313.0146	1398.1211	1412.8267	1438.6552	1451.3488	1491.0241	1494.7439	1645.177	1688.2034	1820.931	2958.2451	2992.727	3047.4921	3112.1549	3113.9474	3136.3206	3139.0935	3147.9487	3164.8806	3173.0045
CC1C=CC=CCC1=O	C[C@H]1C=CC=CCC1=O	
InChI=1S/C8H10O/c1-7-5-3-2-4-6-8(7)9/h2-5,7H,6H2,1H3	InChI=1S/C8H10O/c1-7-5-3-2-4-6-8(7)9/h2-5,7H,6H2,1H3/t7-/m0/s1
