14
gdb 60783	2.23391	1.21204	0.95513	1.2131	68.72	-0.2938	-0.0385	0.2553	1220.6726	0.099406	-432.891607	-432.882309	-432.881365	-432.926634	31.159	
C	-0.0622239689	 1.4939937964	 0.0009837726	-0.370169
N	-0.0236551273	 0.0351988339	 0.0056447908	-0.028399
C	-0.0127060755	-0.6696533676	 1.1899624361	 0.172421
O	-0.0330816742	-0.1701910637	 2.2856430298	-0.307285
C	 0.0033539329	-0.6751115704	-1.2514835815	-0.301773
C	-1.2104075127	-0.4256547718	-2.0622706618	 0.32319
N	-2.1739347895	-0.2281213794	-2.6659766402	-0.296194
C	 1.2125496429	-0.361326671	-2.0465869427	 0.323197
N	 2.1720078161	-0.1129005575	-2.6378477504	-0.296195
H	 0.8230709728	 1.9015601409	-0.4972890824	 0.158012
H	-0.9612192011	 1.8543440238	-0.5090002873	 0.158011
H	-0.0775388945	 1.8149265065	 1.0417557437	 0.184658
H	 0.0173984106	-1.7638387374	 1.0185717346	 0.092261
H	 0.0304414384	-1.7502012825	-1.0273716113	 0.188265
49.6659	99.9425	128.9317	147.9834	154.3439	266.8882	309.7683	330.7501	356.0832	375.9656	492.9464	525.7366	586.2437	761.5002	856.8925	927.4316	999.7823	1021.4237	1086.4923	1164.176	1259.1179	1273.5573	1291.2353	1412.7343	1444.3199	1447.6699	1496.9927	1514.1432	1822.1761	2367.0611	2373.3157	2938.789	3031.9727	3041.8447	3105.633	3170.7689
CN(C=O)C(C#N)C#N	CN(C=O)C(C#N)C#N	
InChI=1S/C5H5N3O/c1-8(4-9)5(2-6)3-7/h4-5H,1H3	InChI=1S/C5H5N3O/c1-8(4-9)5(2-6)3-7/h4-5H,1H3
