15
gdb 97216	2.4342	1.43881	1.03121	3.6427	68.38	-0.2755	-0.0105	0.265	1150.0575	0.112425	-453.952772	-453.944194	-453.94325	-453.986975	29.347	
C	-0.1199894778	 1.4579357592	-0.0453443437	-0.341293
N	-0.1417234166	 0.0064060562	-0.1307128311	-0.302791
C	 0.584950465	-0.5888927073	-0.9551960833	 0.423941
O	 1.4394565495	-0.0466268115	-1.8774288602	-0.240311
C	 2.1011305733	-1.1101799577	-2.5534942643	 0.01128
O	 1.2951950615	-2.2568503342	-2.3919839106	-0.228654
C	 0.6565474954	-2.1071112591	-1.1370392849	-0.1532
C	 1.4207160393	-2.7508700447	-0.0496820882	 0.295498
N	 2.0353091064	-3.2593264854	 0.7855150795	-0.314837
H	 0.5559431566	 1.9409181757	-0.7591273571	 0.129363
H	-1.1357688976	 1.8346574956	-0.2040164285	 0.137258
H	 0.1712267688	 1.7443686236	 0.9706710642	 0.141687
H	 2.1718124264	-0.8775781309	-3.6178197323	 0.144673
H	 3.097954721	-1.2524520987	-2.1120773071	 0.129811
H	-0.3410930309	-2.5472832709	-1.1888332424	 0.167575
75.4592	80.1948	114.4979	159.8608	219.8321	242.7985	291.8003	428.294	472.8479	577.105	673.9135	715.3167	748.616	887.8623	938.5024	986.7227	1030.3866	1055.2779	1097.6166	1133.6229	1141.0514	1172.9278	1214.4527	1231.5975	1267.067	1339.3575	1431.81	1439.9107	1493.2274	1496.4902	1540.6896	1834.2907	2361.5639	3007.8753	3025.9202	3093.8701	3099.998	3106.8399	3119.1953
CN=C1OCOC1C#N	CN=C1OCO[C@H]1C#N	
InChI=1S/C5H6N2O2/c1-7-5-4(2-6)8-3-9-5/h4H,3H2,1H3	InChI=1S/C5H6N2O2/c1-7-5-4(2-6)8-3-9-5/h4H,3H2,1H3/t4-/m0/s1
