18
gdb 35997	4.51277	0.57015	0.5397	4.1209	85.01	-0.2664	0.0209	0.2873	2027.4021	0.146717	-364.784011	-364.774407	-364.773463	-364.820995	33.543	
N	 0.0391699321	-0.4905012934	 1.6517995286	-0.302641
C	 0.0683064358	 0.3368632432	 0.8470061117	 0.278847
C	 0.0887835114	 1.3873451127	-0.1807187247	-0.471628
C	 1.406594575	 1.9926769552	-0.3555953252	 0.073442
C	 2.4934244071	 2.4861708192	-0.5017892426	 0.105391
C	 3.8050339837	 3.107229392	-0.6693214038	-0.379148
C	 3.8814977814	 4.5140317205	-0.093237971	 0.040667
C	 4.1767644929	 4.7172284658	 1.3684366512	-0.24759
C	 5.213731444	 5.0750635455	 0.3305475029	-0.277572
H	-0.2648491224	 0.9479766566	-1.1225848788	 0.179397
H	-0.6522901236	 2.1482535428	 0.0969174371	 0.179859
H	 4.5640286559	 2.476609053	-0.1878319623	 0.132482
H	 4.0629411789	 3.1275090261	-1.7366719871	 0.132978
H	 3.182702802	 5.2116792186	-0.545103897	 0.092863
H	 3.669400439	 5.5204869688	 1.8905345472	 0.115411
H	 4.3508523962	 3.835347165	 1.9762865172	 0.118818
H	 6.0856455556	 4.4345438297	 0.2436987456	 0.113078
H	 5.4150722949	 6.123070279	 0.1391010911	 0.115346
15.8355	51.7256	87.7185	110.4344	226.9263	272.4821	328.9957	348.9808	375.4162	391.2361	483.2255	573.7598	765.2607	789.2005	808.26	843.9483	893.7705	925.364	936.3364	957.8037	999.1783	1060.4372	1081.9417	1135.3448	1146.7761	1161.7526	1197.2462	1227.9822	1234.6399	1263.9605	1323.411	1337.4981	1408.3679	1448.649	1463.7022	1474.1634	1508.5557	2369.3541	2381.2363	3014.3988	3023.6025	3045.8123	3052.7697	3130.9693	3136.24	3152.7447	3209.4456	3224.5132
N#CCC#CCC1CC1	N#CCC#CCC1CC1	
InChI=1S/C8H9N/c9-7-3-1-2-4-8-5-6-8/h8H,3-6H2	InChI=1S/C8H9N/c9-7-3-1-2-4-8-5-6-8/h8H,3-6H2
