23
gdb 64122	2.68208	1.19526	1.14776	1.4289	81.23	-0.2557	0.0665	0.3222	1245.5886	0.204136	-425.452759	-425.442872	-425.441928	-425.486853	39.301	
C	 0.0514961132	 1.5607612131	 0.0184194709	-0.455164
C	 0.0311746581	 0.034809809	-0.033397822	 0.392808
O	-1.3252014892	-0.4342794719	-0.1318228245	-0.479211
C	 0.8702994611	-0.5661079625	-1.1831581376	-0.239114
C	 1.1090810063	-2.006377995	-0.7197217044	-0.239112
C	 1.4787476548	-1.8355970939	 0.770702264	 0.39281
C	 1.3010545626	-3.1029038245	 1.6037597559	-0.455165
O	 2.8333361035	-1.3635823783	 0.879237347	-0.479211
C	 0.6007170207	-0.6468156845	 1.2361705162	-0.238666
H	 1.0706985643	 1.9373224355	 0.1485657374	 0.120546
H	-0.3471277384	 1.9886132841	-0.9100872319	 0.099164
H	-0.5633359576	 1.9227469876	 0.848014325	 0.121484
H	-1.7003449827	-0.0690615344	-0.9407256277	 0.27066
H	 0.358621039	-0.4852635536	-2.1482334655	 0.074844
H	 1.8266831631	-0.0389499626	-1.2605196926	 0.104999
H	 0.1824113923	-2.5823797044	-0.8094721783	 0.104999
H	 1.8915143048	-2.5322905446	-1.2773369816	 0.074844
H	 1.9328773965	-3.9141441444	 1.2206510214	 0.099164
H	 1.5832949914	-2.918166329	 2.6446690737	 0.121484
H	 0.2630647367	-3.4485698473	 1.5792237285	 0.120547
H	 3.4107680007	-2.0613657186	 0.5504344809	 0.27066
H	 1.2194714205	 0.035692904	 1.8223394212	 0.108316
H	-0.2331194618	-0.9757192138	 1.8597153539	 0.108316
44.0736	177.1044	239.2504	258.1007	265.2872	295.3243	314.5693	338.426	339.0227	388.6493	394.0219	424.9171	441.8299	497.1924	573.9765	604.387	736.1235	788.4634	852.979	894.7736	905.5062	929.7063	943.337	965.9545	985.0842	997.4579	1079.6	1080.4127	1108.6536	1125.4152	1150.2598	1212.6674	1230.8457	1252.0759	1282.1742	1297.0547	1340.0083	1349.9707	1381.6803	1386.2434	1406.5274	1407.2319	1466.9289	1472.9129	1485.0064	1491.4954	1494.1655	1495.2634	1495.544	3022.1316	3022.5039	3038.8043	3046.4894	3075.3718	3081.3339	3088.6666	3090.6178	3097.3303	3113.996	3114.0846	3128.0588	3798.7831	3799.307
CC1(O)CCC(C)(O)C1	C[C@@]1(O)CC[C@@](C)(O)C1	
InChI=1S/C7H14O2/c1-6(8)3-4-7(2,9)5-6/h8-9H,3-5H2,1-2H3	InChI=1S/C7H14O2/c1-6(8)3-4-7(2,9)5-6/h8-9H,3-5H2,1-2H3/t6-,7-/m1/s1
