14
gdb 97475	7.92757	0.44143	0.41924	5.5297	90.39	-0.2509	-0.0515	0.1994	2430.6741	0.098371	-436.654162	-436.643731	-436.642787	-436.692163	33.852	
N	-0.0550230037	 1.3514190466	 0.0089874097	-0.521656
C	 0.056297952	-0.0079592053	 0.0013068775	 0.209863
O	 1.1192529672	-0.5980369553	-0.0114479087	-0.32592
C	-1.2212124566	-0.7041748583	 0.0097669739	 0.317031
C	-2.245935747	-1.3520916907	 0.0161228717	-0.23406
C	-3.3994671256	-2.0657779621	 0.0233579076	-0.20577
C	-4.4284067041	-2.7031418156	 0.0298082186	 0.315137
C	-5.6855137257	-3.4351105214	 0.0379690579	-0.24306
O	-5.4285023587	-4.8305412796	 0.0278892663	-0.403898
H	 0.7892993904	 1.8997931369	 0.0038052581	 0.269143
H	-0.948831956	 1.8103270897	 0.0194872403	 0.268702
H	-6.2599547393	-3.1343069053	 0.9300492479	 0.129402
H	-6.2770655808	-3.1246716475	-0.8395039654	 0.129399
H	-6.2795805721	-5.2808236621	 0.0332226245	 0.295689
28.3005	54.2881	60.8735	74.1236	128.7319	195.1973	221.7862	251.9213	357.9277	371.5445	501.9778	541.9168	550.5015	614.2385	624.5792	660.4328	774.7559	862.5136	1015.7649	1059.4758	1087.092	1206.985	1242.6648	1258.3492	1362.0956	1462.2431	1493.0162	1608.146	1768.3689	2265.7778	2366.9149	2960.8123	2979.6031	3602.8558	3745.4187	3818.8973
NC(=O)C#CC#CCO	NC(=O)C#CC#CCO	
InChI=1S/C6H5NO2/c7-6(9)4-2-1-3-5-8/h8H,5H2,(H2,7,9)	InChI=1S/C6H5NO2/c7-6(9)4-2-1-3-5-8/h8H,5H2,(H2,7,9)
