20
gdb 42137	2.02685	1.86788	1.1455	1.1748	76.16	-0.2509	0.0033	0.2542	1105.6592	0.172587	-440.263918	-440.255617	-440.254673	-440.296718	31.858	
C	-0.0303584763	 1.5058579908	 0.1309460601	-0.208326
C	 1.3417075491	 2.1558895316	-0.0859579165	-0.060796
O	 1.8308942341	 2.2394125436	-1.4169101815	-0.258268
C	 2.1680460156	 1.0701170089	-2.1347368108	-0.059401
C	 3.068615515	 0.0347213841	-1.4440523942	-0.11159
O	 2.3201906076	-1.0255620071	-0.8306838519	-0.234424
C	 2.0345378004	-0.9460776318	 0.5075805608	 0.093156
N	 0.9360467049	-0.5809478251	 1.0046525312	-0.200826
C	-0.0796204833	-0.038351369	 0.1094351175	-0.169835
H	-0.3720794786	 1.8415836346	 1.1175895187	 0.111844
H	-0.742032409	 1.8961922556	-0.6054587568	 0.10749
H	 1.274344657	 3.2029288141	 0.2257019129	 0.109565
H	 2.0801265886	 1.6803949099	 0.5746444867	 0.097226
H	 1.2752687445	 0.5388302078	-2.497663764	 0.105701
H	 2.7013048836	 1.4447160811	-3.0159790652	 0.111045
H	 3.6823239656	-0.451230247	-2.2087869594	 0.120875
H	 3.7425362148	 0.5131688872	-0.7222825829	 0.118217
H	 2.8396177302	-1.2989105259	 1.1568676767	 0.1115
H	-1.0594464046	-0.354778046	 0.480943192	 0.105459
H	 0.0283814206	-0.4149106974	-0.9127386934	 0.111389
100.9661	136.2951	201.5371	217.9774	292.9915	320.6717	349.7114	406.9657	449.2378	514.6871	597.2282	677.1463	768.2205	800.4479	847.1988	893.5358	944.0048	966.6195	984.3934	1017.168	1061.1022	1081.2944	1094.6985	1102.8861	1136.2127	1170.8455	1241.0263	1256.4236	1273.9599	1334.8943	1346.208	1369.6913	1379.9811	1388.7188	1403.0117	1412.9582	1423.1075	1463.337	1481.1434	1488.2052	1503.9853	1517.8984	1730.6767	2994.2362	3009.8295	3030.3207	3031.6159	3042.8122	3062.0066	3074.7106	3077.2418	3089.7857	3090.2845	3104.8731
C1COCCOC=NC1	C1COCCOC=NC1	
InChI=1S/C6H11NO2/c1-2-7-6-9-5-4-8-3-1/h6H,1-5H2/b7-6-	InChI=1S/C6H11NO2/c1-2-7-6-9-5-4-8-3-1/h6H,1-5H2/b7-6-
