13
gdb 129457	4.59916	1.10124	0.88892	3.6653	61.68	-0.254	-0.0377	0.2163	1200.4138	0.09001	-486.102956	-486.094748	-486.093804	-486.136382	29.516	
N	-0.0986054392	 1.3000634168	 0.0216649407	-0.53359
C	 0.0442088397	-0.0512231938	 0.0077938192	 0.335417
O	 1.1063727777	-0.6342380779	 0.0074459005	-0.337554
C	-1.2689223888	-0.7902690008	-0.0065701353	 0.278953
N	-2.409778307	-0.14931092	 0.0175870009	-0.197612
O	-3.3616551444	-1.1899933392	-0.0055321135	-0.21096
C	-2.6491607114	-2.3282391106	-0.0402137001	 0.511661
N	-3.3312096815	-3.4936192496	-0.1169961774	-0.595534
N	-1.3553468912	-2.1552481514	-0.0399236645	-0.365384
H	 0.7306863437	 1.8690106839	 0.033291025	 0.266437
H	-1.0090855696	 1.7286074489	 0.0207714493	 0.279447
H	-4.2939086109	-3.4910559062	 0.1778400368	 0.280545
H	-2.798596607	-4.3240532	 0.0851297084	 0.288173
39.317	150.8148	178.5433	216.2112	330.3064	357.2813	376.5443	409.9448	443.7262	530.4925	547.6798	650.2753	667.3549	761.279	778.5806	827.2968	928.8278	1001.415	1035.2863	1094.2419	1115.2449	1289.2118	1386.7705	1459.4981	1542.9586	1599.192	1611.7477	1691.8533	1814.9371	3600.5957	3606.5269	3724.1909	3741.5992
NC(=O)C1=NOC(N)=N1	NC(=O)c1noc(N)n1	
InChI=1S/C3H4N4O2/c4-1(8)2-6-3(5)9-7-2/h(H2,4,8)(H2,5,6,7)	InChI=1S/C3H4N4O2/c4-1(8)2-6-3(5)9-7-2/h(H2,4,8)(H2,5,6,7)
