22
gdb 93231	2.73226	1.28197	0.91492	3.753	83.64	-0.2312	0.0338	0.265	1324.0921	0.195426	-404.407636	-404.398225	-404.397281	-404.441778	35.15	
C	 0.0303872702	 1.5739016954	 0.0459804665	-0.404853
C	 0.0227876955	 0.0448395489	-0.0203908713	 0.007209
C	 0.7034835116	-0.5030782274	-1.276457958	-0.209656
C	 0.5700197866	-2.0251917932	-1.3105337292	-0.31711
C	 0.9349561464	-2.7397643332	-0.0123191498	 0.405321
O	 1.2055309061	-3.9300293391	-0.0176861576	-0.390442
N	 0.8974064308	-1.9981733242	 1.1436688835	-0.101212
C	 1.2754698721	-2.6353084507	 2.3938063896	-0.344825
C	 0.707157975	-0.5528194909	 1.2105714629	-0.13423
H	 1.0544894622	 1.964310633	 0.0302244816	 0.118217
H	-0.5023013774	 2.0021407842	-0.8086353755	 0.118223
H	-0.4525033954	 1.9395166215	 0.9585141942	 0.115198
H	-1.0212629186	-0.299459603	-0.0256324074	 0.080747
H	 0.2665719832	-0.0619709474	-2.1794223161	 0.097425
H	 1.7636247135	-0.214553057	-1.2683110283	 0.099714
H	-0.4677812403	-2.3048126574	-1.5348629125	 0.126524
H	 1.1824194214	-2.4791653634	-2.0933346249	 0.127595
H	 1.4144120595	-3.6984843034	 2.205928887	 0.169047
H	 2.209802166	-2.2101822997	 2.7848657335	 0.116525
H	 0.4934673409	-2.4903932215	 3.1490320995	 0.117262
H	 1.6833711197	-0.0596885816	 1.3585783407	 0.098992
H	 0.1141394512	-0.33202286	 2.1078948517	 0.104331
83.496	107.2568	142.6375	210.2158	225.0268	236.9519	268.3808	365.6088	392.843	414.6771	457.3726	529.0057	582.6731	668.0336	747.6636	817.4321	881.9633	926.4123	957.5291	969.389	1016.985	1038.3449	1095.3731	1122.1438	1149.7887	1155.2463	1170.7101	1209.6746	1249.778	1265.9808	1301.816	1318.1929	1331.0777	1352.848	1384.6553	1398.3883	1413.7852	1427.9491	1457.1969	1470.3082	1492.0741	1498.2285	1500.3481	1502.0095	1506.709	1542.7767	1756.5556	2956.3899	3001.4993	3008.7032	3016.8454	3027.5116	3029.8452	3032.3657	3057.8251	3064.2148	3095.1695	3103.9168	3104.5293	3169.7706
CC1CCC(=O)N(C)C1	C[C@H]1CCC(=O)N(C)C1	
InChI=1S/C7H13NO/c1-6-3-4-7(9)8(2)5-6/h6H,3-5H2,1-2H3	InChI=1S/C7H13NO/c1-6-3-4-7(9)8(2)5-6/h6H,3-5H2,1-2H3/t6-/m0/s1
