17
gdb 30617	4.49189	1.00166	0.82726	4.5593	76.88	-0.2353	-0.0275	0.2078	1361.218	0.136858	-418.076432	-418.067883	-418.066939	-418.110588	30.697	
C	-0.0596380232	 1.5056862966	 0.0887429115	-0.382175
C	 0.0272775508	-0.012052202	-0.0418539031	-0.277219
C	 0.7482369007	-0.4629567845	-1.3008812717	 0.279114
O	 1.2044038002	 0.3219031422	-2.1121090487	-0.336429
C	 0.8796744376	-1.9188819276	-1.5115172406	 0.207084
C	 1.4948830564	-2.528373086	-2.5827025176	-0.145373
N	 1.374832331	-3.8702325196	-2.3533244708	-0.236175
C	 0.7014344373	-4.0264578581	-1.1697513742	 0.00923
N	 0.3895788127	-2.8729432799	-0.6386377215	-0.307283
H	 0.9366869751	 1.9551998825	 0.1094550454	 0.126159
H	-0.591602818	 1.9425603697	-0.7605625803	 0.126134
H	-0.5846303905	 1.7844542834	 1.0068638458	 0.104265
H	 0.5383423466	-0.4662120582	 0.8167523597	 0.129894
H	-0.9661397121	-0.4786873601	-0.0401938904	 0.129904
H	 1.9857139099	-2.12091188	-3.4495623562	 0.159768
H	 1.7190367022	-4.6070414101	-2.9470094416	 0.274776
H	 0.4764399231	-5.0005544785	-0.7615359458	 0.138326
51.2732	77.7045	144.5472	169.0687	213.9652	282.6143	365.2315	502.4021	542.7738	571.0176	668.717	707.1821	714.0822	786.5334	815.5239	846.7071	916.4954	946.6144	994.2133	1033.4588	1088.8636	1089.0893	1116.6929	1130.5527	1243.8429	1270.2965	1303.0278	1357.6937	1388.169	1411.8678	1434.8509	1443.9308	1490.6657	1497.4408	1533.7904	1567.8241	1766.6934	3035.6775	3048.2653	3059.1616	3118.4256	3122.4328	3252.6225	3293.1552	3658.5714
CCC(=O)C1=CNC=N1	CCC(=O)c1c[nH]cn1	
InChI=1S/C6H8N2O/c1-2-6(9)5-3-7-4-8-5/h3-4H,2H2,1H3,(H,7,8)	InChI=1S/C6H8N2O/c1-2-6(9)5-3-7-4-8-5/h3-4H,2H2,1H3,(H,7,8)
