18
gdb 37913	2.63989	2.0458	1.46409	2.4145	75.54	-0.2341	0.0339	0.2681	925.1971	0.150835	-401.918435	-401.911626	-401.910682	-401.949558	27.554	
C	-0.0388698706	 1.5429975487	 0.0316093632	-0.268414
C	 1.4919179027	 1.5838667772	 0.0648947885	-0.090483
C	 2.0105313931	 0.8459054461	 1.2499191842	 0.128193
O	 1.4590274523	 0.9300308034	 2.5486176555	-0.238659
C	 0.3630714779	 0.2638226419	 3.0087327058	 0.12975
N	-0.5341336544	-0.4495068141	 2.4925310922	-0.26397
C	-0.7062703285	-0.8226821686	 1.1065155202	-0.167259
C	 0.015333413	-0.0234948561	 0.0280370785	-0.021988
C	 1.5424967638	 0.0270124094	 0.0992312448	-0.134685
H	-0.5410842573	 2.0203085955	 0.8779527852	 0.114825
H	-0.4589759414	 1.9407254426	-0.8934825573	 0.107763
H	 2.1138110028	 2.2832683184	-0.4813162413	 0.090085
H	 3.0911016648	 0.8853848436	 1.3523031381	 0.109702
H	 0.3206387344	 0.4569616507	 4.0815335295	 0.116563
H	-0.4169385016	-1.8800734318	 1.0090768908	 0.111342
H	-1.7866096914	-0.8007174824	 0.9064346119	 0.108205
H	-0.3082238526	-0.3967788846	-0.9486657442	 0.079994
H	 2.2110434928	-0.66380424	-0.4034452955	 0.089035
106.9194	195.2304	289.2798	334.7964	425.8208	462.2941	533.4171	641.6573	709.4298	751.8623	790.5361	797.6951	837.6911	890.4361	908.7455	953.4367	961.3126	978.2044	998.7931	1024.8353	1069.2024	1078.237	1093.5683	1118.4965	1135.1042	1164.7273	1216.0343	1239.3081	1262.9305	1286.926	1323.2351	1340.6602	1371.4019	1399.4309	1432.0307	1454.3424	1474.3658	1496.5423	1776.573	2994.3508	3021.5587	3054.4834	3063.1207	3119.3888	3128.6406	3153.1858	3165.0819	3183.5216
C1C2C3OC=NCC1C23	C1[C@H]2[C@H]3OC=NC[C@@H]1[C@@H]23	
InChI=1S/C7H9NO/c1-4-2-8-3-9-7-5(1)6(4)7/h3-7H,1-2H2	InChI=1S/C7H9NO/c1-4-2-8-3-9-7-5(1)6(4)7/h3-7H,1-2H2/t4-,5-,6+,7-/m1/s1
