21
gdb 96146	2.44664	1.69586	1.26253	0.238	77.48	-0.2439	0.0691	0.313	1064.8987	0.185062	-424.21201	-424.204185	-424.203241	-424.243821	31.947	
O	-0.0683101016	 1.4260696669	 0.1309548406	-0.436346
C	 0.0042705294	 0.0077844936	 0.0019042155	 0.091418
C	 0.8762401602	-0.5527852168	 1.1453461984	-0.106219
O	 0.8720272368	-1.9615929665	 1.2440069336	-0.242081
C	-0.2362929389	-2.5087477158	 1.9437384604	-0.090953
C	-1.6057424188	-2.2097352025	 1.3216028897	-0.013144
C	-1.5295593085	-2.0508751883	-0.2242057318	-0.241065
C	-1.4333771614	-0.5115794727	-0.0142849075	 0.009181
C	-2.0520180137	-0.7203967114	 1.3953875345	-0.239807
H	 0.8270843658	 1.7784630159	 0.094721801	 0.28308
H	 0.469793239	-0.2664878774	-0.9591616901	 0.067686
H	 1.9197371198	-0.2615201746	 0.969337923	 0.091989
H	 0.5613031948	-0.0844247053	 2.0902891924	 0.098082
H	-0.0583030103	-3.589219092	 1.9384156369	 0.106515
H	-0.2230119501	-2.1703362723	 2.9938497662	 0.088187
H	-2.3226995558	-2.9392140319	 1.7113083784	 0.064425
H	-0.6975532988	-2.5418309621	-0.7344739428	 0.10427
H	-2.4676676418	-2.3295562774	-0.7102099034	 0.095258
H	-2.0003754688	 0.1124728057	-0.7092508516	 0.073687
H	-3.1413600022	-0.6328824172	 1.367832184	 0.096582
H	-1.6797558652	-0.105140978	 2.2189342126	 0.099257
135.7493	230.2986	276.1233	292.9625	298.8287	323.4446	378.8621	403.1187	479.7123	546.4609	599.8276	779.6739	785.9803	808.9707	859.2325	903.3259	932.8588	950.5482	961.4694	1014.5406	1034.5059	1051.48	1081.6562	1095.4454	1103.9505	1125.7581	1161.1532	1172.4634	1196.9228	1238.8977	1253.4795	1270.2539	1279.7842	1295.3881	1330.9593	1344.7831	1351.5819	1355.126	1405.1315	1412.6693	1437.8458	1467.072	1488.2944	1493.5248	1509.2639	2962.5267	2963.0721	2989.8549	3045.4077	3048.5904	3056.9197	3062.7344	3072.9709	3079.0944	3105.1416	3117.2469	3809.72
OC1COCC2CC1C2	O[C@H]1COC[C@@H]2C[C@H]1C2	
InChI=1S/C7H12O2/c8-7-4-9-3-5-1-6(7)2-5/h5-8H,1-4H2	InChI=1S/C7H12O2/c8-7-4-9-3-5-1-6(7)2-5/h5-8H,1-4H2/t5-,6+,7-/m0/s1
