22
gdb 101358	3.05499	1.072	0.88777	0.3764	81.56	-0.2289	0.0779	0.3068	1370.5831	0.193934	-404.29613	-404.286642	-404.285697	-404.330532	35.702	
C	 0.8201596278	-0.2595949593	-1.282899661	-0.398866
C	-0.0996459702	-0.009334529	-0.0797924429	 0.008689
C	-1.4588269309	-0.6873383704	-0.2625991618	-0.078198
O	-2.0891655097	-0.1143602047	-1.4014081541	-0.427575
C	 0.5547488539	-0.4889695622	 1.2117912696	 0.064638
C	 1.8217769241	 0.2198191577	 1.7732268824	-0.290803
C	 1.0200922141	 0.4218403535	 3.0569724297	-0.012237
C	-0.2205300851	 1.1679419137	 2.7872076519	-0.242493
N	-0.208808845	-0.2827554901	 2.5067172173	-0.149749
H	 1.0597715717	-1.3258318785	-1.3768764412	 0.107939
H	 0.3297496114	 0.0578096474	-2.2054300912	 0.136418
H	 1.7632329057	 0.2875407837	-1.1863013845	 0.110343
H	-0.2903616256	 1.0697514057	-0.0174816368	 0.079665
H	-1.3105373227	-1.7725696136	-0.3950699042	 0.080401
H	-2.0645447196	-0.5459220119	 0.643441052	 0.106755
H	-2.9454813635	-0.5364921538	-1.5131263341	 0.286145
H	 0.7310619581	-1.5674967238	 1.1336660258	 0.08027
H	 2.6768701852	-0.4497900564	 1.8778137944	 0.109579
H	 2.1532590788	 1.1355459932	 1.2728743486	 0.101999
H	 1.3795881448	 0.2270025929	 4.0622107503	 0.093602
H	-0.8581951229	 1.4155346494	 3.6302399062	 0.119308
H	-0.2565420105	 1.8853548064	 1.9713021335	 0.114168
72.0855	98.4315	150.772	181.4723	226.5428	248.8499	263.7742	343.8273	369.9702	399.5518	468.972	557.1611	725.9776	764.0467	783.0072	826.9703	886.9608	928.2641	933.5083	956.0062	995.2232	998.5351	1045.9394	1063.4689	1089.1113	1104.1556	1107.5637	1128.4039	1137.8177	1169.8523	1198.9328	1228.2599	1251.7682	1265.7799	1268.6711	1293.1836	1314.0876	1355.5913	1369.0125	1397.3315	1407.8205	1458.3497	1487.5654	1494.7575	1503.8926	1505.8753	1523.1961	2959.1428	3016.9766	3027.4785	3029.6554	3044.5431	3049.1649	3094.4658	3111.4092	3117.259	3130.5481	3162.32	3198.6724	3835.2116
CC(CO)C1CC2CN12	C[C@@H](CO)[C@H]1C[C@H]2CN12	
InChI=1S/C7H13NO/c1-5(4-9)7-2-6-3-8(6)7/h5-7,9H,2-4H2,1H3	InChI=1S/C7H13NO/c1-5(4-9)7-2-6-3-8(6)7/h5-7,9H,2-4H2,1H3/t5-,6-,7+,8?/m0/s1
