25
gdb 59563	3.3559	1.03186	0.86822	0.1913	91.91	-0.2575	0.0785	0.3359	1454.084	0.230124	-352.365513	-352.356168	-352.355224	-352.399487	36.949	
C	-0.1050707638	 1.5209025069	-0.000836919	-0.391937
C	 0.0086557358	-0.0107124744	-0.022796919	 0.026262
C	 0.7128599529	-0.4712987294	-1.3077937373	-0.391937
C	 0.7104015534	-0.5483050353	 1.2358320892	 0.085847
C	 0.0433839546	-0.1507191665	 2.5815249345	-0.259129
C	 0.4555493999	-1.2322505363	 3.5803280178	-0.032132
C	-0.3359813092	-2.5153218972	 3.5793745248	-0.277095
C	 0.9478913267	-2.431476435	 2.7936046558	-0.03213
C	 0.8415376641	-2.0948289482	 1.306138581	-0.259129
H	 0.8883471934	 1.985071761	 0.0323018458	 0.108982
H	-0.6106364212	 1.8890417674	-0.8999099238	 0.106571
H	-0.6680735827	 1.8770695135	 0.8666914797	 0.114304
H	-1.0116620883	-0.4248317525	-0.0300958224	 0.064679
H	 1.7463583575	-0.1047519302	-1.3386977861	 0.108982
H	 0.7437438805	-1.5616413309	-1.3892291933	 0.114303
H	 0.2000451528	-0.0854999252	-2.195282239	 0.106572
H	 1.7317126733	-0.1389619421	 1.2510092236	 0.062965
H	 0.36208977	 0.8416271575	 2.9122139261	 0.09821
H	-1.0488617295	-0.1095050635	 2.4724175673	 0.093176
H	 0.9417459925	-0.9320286102	 4.5018568493	 0.078384
H	-0.3376137252	-3.1110932473	 4.4865047393	 0.103364
H	-1.2738642309	-2.5400674301	 3.0301554918	 0.101119
H	 1.7962116076	-3.0133004887	 3.1364883008	 0.078384
H	-0.0360209805	-2.5765408644	 0.8539794127	 0.093176
H	 1.7140596261	-2.4514448788	 0.7518729204	 0.09821
76.2601	85.377	181.7869	232.2	240.0795	298.6747	316.2087	330.4421	411.5726	426.9132	465.4336	567.8161	666.6986	777.3002	811.4567	818.9675	868.0173	878.069	900.0914	928.5796	937.4872	964.6725	980.9196	998.811	1019.7124	1023.2326	1066.7881	1080.3978	1108.7616	1108.9938	1153.3814	1165.1114	1192.0941	1207.8158	1208.5978	1251.1239	1285.582	1288.8351	1329.8294	1339.4232	1345.7599	1358.5313	1377.3417	1392.2655	1400.9357	1421.5718	1483.0067	1488.2778	1489.4319	1494.5139	1502.6886	1506.4888	1512.7286	2978.4256	2992.2491	3012.2901	3018.3875	3022.6932	3027.7339	3080.3002	3083.4635	3085.1356	3091.6097	3104.6939	3106.4528	3111.282	3161.7742	3169.4369	3199.6429
CC(C)C1CC2CC2C1	CC(C)[C@H]1C[C@H]2C[C@H]2C1	
InChI=1S/C9H16/c1-6(2)7-3-8-5-9(8)4-7/h6-9H,3-5H2,1-2H3	InChI=1S/C9H16/c1-6(2)7-3-8-5-9(8)4-7/h6-9H,3-5H2,1-2H3/t7-,8-,9+
