15
gdb 129195	3.30519	1.70266	1.14463	2.3648	67.77	-0.1979	0.0458	0.2437	997.4636	0.116358	-450.129019	-450.121905	-450.12096	-450.160787	26.768	
N	-0.1356704937	 1.3146358759	-0.0859872261	-0.598758
C	-0.0352073876	 0.0439695089	-0.0807271889	 0.405269
N	 1.0432818304	-0.8490589626	-0.1659190791	-0.328505
N	 0.6683924726	-2.1991949327	 0.1019351337	-0.364133
C	-0.6096065914	-2.0999211875	 0.1452258211	 0.52568
O	-1.5691353745	-3.0056052226	 0.3693877561	-0.266775
C	-2.8387732089	-2.3094929721	 0.2324456323	-0.105496
C	-2.519827694	-0.7857509426	 0.2767861495	-0.197022
N	-1.1113642437	-0.8399050723	-0.0303765713	-0.114118
H	 0.7783972895	 1.7583382313	-0.1353477142	 0.212915
H	 1.952319212	-0.5903877253	 0.1825119009	 0.264481
H	-3.2808960775	-2.5981558275	-0.7257674844	 0.138725
H	-3.4871690487	-2.6379870639	 1.0452005788	 0.141788
H	-3.0878634005	-0.2239718896	-0.4677741225	 0.147139
H	-2.701403784	-0.3439032372	 1.2632708843	 0.138809
119.9976	139.6483	173.1207	297.3033	360.4336	419.3065	585.2261	640.8207	677.026	681.7943	724.7363	732.7224	770.9804	804.9273	873.2058	948.1448	1016.7895	1039.5919	1073.8614	1130.3203	1141.3934	1214.277	1239.1644	1246.6438	1304.1829	1365.9486	1377.1052	1414.6555	1489.0307	1522.537	1538.3623	1738.0398	1756.3138	3041.2753	3063.6056	3105.5492	3136.4386	3520.6565	3650.1886
N=C1NN=C2OCCN12	[NH][C]1N[N][C]2OCCN12	
InChI=1S/C4H6N4O/c5-3-6-7-4-8(3)1-2-9-4/h1-2H2,(H2,5,6)	InChI=1S/C4H6N4O/c5-3-6-7-4-8(3)1-2-9-4/h1-2H2,(H2,5,6)
