19
gdb 115422	4.46991	0.92262	0.85784	0.296	78.41	-0.2604	0.0501	0.3105	1387.8402	0.158299	-422.995703	-422.986442	-422.985498	-423.030229	33.651	
C	 0.5236867588	 0.7459090521	 0.9536911591	-0.24267
O	-0.0343553572	-0.4238489457	 0.3834442874	-0.246386
C	-1.2262194815	-0.1926210275	-0.3236200449	 0.212639
C	-1.7148961527	-1.5329629099	-0.8592951814	-0.251275
C	-2.4504565082	-2.09634371	 0.3796726807	-0.203746
C	-3.058835466	-0.8050235205	 0.9876075229	-0.081142
O	-2.2619721276	 0.2839640219	 0.5139869521	-0.26617
C	-3.4304193336	-3.1318320873	 0.1009210986	 0.309502
C	-4.2504239153	-3.9795423003	-0.1318868746	-0.45066
H	 1.4441514227	 0.4473914533	 1.4598748763	 0.125762
H	 0.7670427533	 1.4897521163	 0.1795828137	 0.105029
H	-0.1595857374	 1.2055423583	 1.6769244353	 0.126149
H	-1.0634242074	 0.5802508897	-1.0885521806	 0.073687
H	-2.4180107152	-1.3756913621	-1.6813040257	 0.118343
H	-0.8963202481	-2.1670896398	-1.1993470723	 0.126273
H	-1.6941913159	-2.4860128704	 1.0691223655	 0.123231
H	-4.0908546547	-0.6611907047	 0.6481395679	 0.113027
H	-3.0510429449	-0.8249476117	 2.0819178799	 0.113666
H	-4.9708882693	-4.7325397416	-0.33504924	 0.194741
71.9828	80.7519	124.3894	154.9113	193.2718	230.1586	293.4824	394.9559	494.5334	508.9532	539.1235	586.4271	628.0155	633.6104	773.8688	859.2235	873.5791	932.0479	953.933	998.7345	1046.3958	1075.6632	1080.866	1098.208	1138.5586	1178.2075	1181.9703	1218.297	1243.747	1289.4637	1311.5666	1334.7516	1357.925	1393.223	1400.0349	1476.2734	1482.1501	1483.9334	1514.0691	1526.3305	2239.0406	2989.3764	3008.1996	3035.2543	3051.2045	3065.5951	3079.1188	3083.6839	3125.3265	3145.9226	3504.8639
COC1CC(CO1)C#C	CO[C@H]1C[C@@H](CO1)C#C	
InChI=1S/C7H10O2/c1-3-6-4-7(8-2)9-5-6/h1,6-7H,4-5H2,2H3	InChI=1S/C7H10O2/c1-3-6-4-7(8-2)9-5-6/h1,6-7H,4-5H2,2H3/t6-,7+/m0/s1
