21
gdb 92754	3.55397	0.97657	0.79254	3.0742	86.83	-0.2376	-0.0437	0.1939	1479.1507	0.18156	-387.137564	-387.128063	-387.127119	-387.172334	35.127	
C	-0.049153485	 1.5517569696	 0.004558109	-0.405105
C	 0.0630501901	 0.0286823893	 0.0016203352	 0.042816
C	 0.8947893528	-0.5569886364	-1.1723833437	-0.272203
C	 1.5196570633	-1.7873554198	-0.5792661816	-0.128644
C	 1.4272234143	-1.8123831752	 0.7579701987	 0.229719
C	 0.7156097743	-0.575188658	 1.2757435653	-0.344116
C	 2.0097892716	-2.8999857241	 1.5894101797	 0.288424
C	 1.8924470855	-2.7587149328	 3.0971846675	-0.488613
O	 2.555798403	-3.862955086	 1.0863902198	-0.311603
H	 0.9403258283	 2.017839908	 0.0791318499	 0.114472
H	-0.521039757	 1.9178277109	-0.9135179798	 0.115304
H	-0.6489166991	 1.9063767142	 0.8495267719	 0.114897
H	-0.9457260079	-0.3955501212	-0.076103364	 0.081248
H	 0.2885750435	-0.765713774	-2.0612577015	 0.110664
H	 1.679108459	 0.1440803313	-1.4986086207	 0.11182
H	 2.0238417598	-2.5539934921	-1.1561924591	 0.121712
H	 1.4351930016	 0.1280015172	 1.7216718706	 0.104403
H	-0.0248908533	-0.788505773	 2.054182341	 0.103732
H	 0.8386280467	-2.7446166161	 3.3989537132	 0.137575
H	 2.3990305946	-3.5935560822	 3.5821982744	 0.138327
H	 2.3291130338	-1.8116277295	 3.4341274141	 0.135171
53.7127	81.5029	156.3153	165.7623	197.2862	248.8288	312.1805	356.7991	405.9878	416.0075	471.7736	588.3409	610.215	635.7299	828.3558	845.7523	854.7608	910.026	934.7634	946.2918	971.2429	1004.1882	1042.1684	1059.2694	1074.7655	1109.231	1150.055	1166.2533	1237.1693	1253.3048	1275.4343	1308.1084	1330.2719	1353.2758	1373.1328	1381.2198	1413.3001	1461.4858	1475.4507	1476.3911	1491.3856	1497.3041	1500.6954	1665.5993	1773.5313	2990.3855	2995.4038	3021.2801	3026.362	3033.4193	3055.8799	3062.1599	3092.1972	3093.3048	3096.8441	3153.2034	3210.5417
CC1CC=C(C1)C(C)=O	C[C@H]1CC=C(C1)C(=O)C	
InChI=1S/C8H12O/c1-6-3-4-8(5-6)7(2)9/h4,6H,3,5H2,1-2H3	InChI=1S/C8H12O/c1-6-3-4-8(5-6)7(2)9/h4,6H,3,5H2,1-2H3/t6-/m0/s1
