20
gdb 128091	3.08804	1.20768	0.88768	3.4115	84.26	-0.1851	0.053	0.2381	1345.1546	0.17076	-399.356414	-399.346128	-399.345184	-399.392306	36.238	
C	-0.0513260511	 1.4150732879	 0.3734356184	-0.338871
N	 0.0363458805	 0.0306560263	-0.0629536169	-0.384581
C	-1.095212297	-0.7697063622	-0.0001579622	 0.385196
C	-1.2118577052	-2.1518295607	 0.0400557406	 0.032587
C	-0.0958704308	-3.1496690306	 0.0786670183	-0.526024
C	-2.6136761635	-2.3810801808	 0.0267780488	 0.297889
C	-3.3236075749	-3.6983076516	 0.0565217335	-0.495087
N	-3.3096478343	-1.249959803	-0.0132187796	-0.319366
N	-2.3578490818	-0.2737158751	-0.0242075243	-0.280176
H	 0.9456791293	 1.8593691928	 0.3437735112	 0.133794
H	-0.678487128	 1.9896707359	-0.3182376291	 0.130843
H	-0.4597721215	 1.535801887	 1.3891465992	 0.119956
H	 0.8543088308	-0.4497141468	 0.2832644025	 0.24321
H	 0.6967044222	-2.8574061893	 0.7810920177	 0.106899
H	-0.459461745	-4.1281775987	 0.4058848914	 0.127384
H	 0.3826651057	-3.2943927626	-0.899089069	 0.124604
H	-3.054646863	-4.2832603264	 0.9439330822	 0.120225
H	-4.4030479885	-3.5333826017	 0.0698309205	 0.136661
H	-3.079518053	-4.3106498415	-0.81921905	 0.121831
H	-2.646101301	 0.6867015611	-0.068998583	 0.263027
37.1477	79.141	125.1277	141.592	191.9538	208.1186	238.5015	276.1575	315.5133	337.4476	415.8083	500.6746	541.118	625.294	680.1669	718.195	736.8875	772.018	955.5994	999.6758	1054.9383	1061.0895	1069.2114	1131.1256	1137.165	1156.9171	1186.844	1235.7261	1327.1698	1397.9338	1417.0676	1421.0458	1461.61	1470.1732	1481.1401	1484.4015	1486.5728	1489.1864	1499.557	1517.5125	1529.6984	1573.7039	1644.1262	2979.6724	3002.8332	3027.8355	3041.9333	3055.9396	3075.6541	3098.1098	3123.2167	3129.5272	3593.9721	3696.4165
CNC1=C(C)C(C)=NN1	CNc1c(C)c(C)n[nH]1	
InChI=1S/C6H11N3/c1-4-5(2)8-9-6(4)7-3/h1-3H3,(H2,7,8,9)	InChI=1S/C6H11N3/c1-4-5(2)8-9-6(4)7-3/h1-3H3,(H2,7,8,9)
