17
gdb 78061	2.35884	1.31495	1.19051	3.4157	74.48	-0.2511	-0.0438	0.2073	1127.8553	0.134177	-421.823608	-421.815101	-421.814157	-421.857133	31.172	
C	-0.2725720062	 1.6311826523	-0.011690174	-0.426355
C	 0.0303441865	 0.1397349134	-0.0572426723	-0.101407
C	 0.5652876785	-0.5744772413	-1.3123104347	-0.094674
C	 2.0076153948	-0.2668675946	-1.6293948843	-0.109506
C	 2.7342109212	 1.0098831763	-1.3670137149	 0.145279
O	 3.4368482963	 1.5431503258	-2.1882952176	-0.259431
C	 1.6801258358	-1.2651300778	-0.5126782721	-0.204477
C	 1.2132353404	-0.5156736748	 0.7152565495	 0.383494
O	 1.5205836171	-0.5402864905	 1.8715941964	-0.307947
H	 0.5438931564	 2.2403728279	-0.4066952822	 0.128719
H	-1.1699764823	 1.8627450816	-0.5941488438	 0.127539
H	-0.4537602287	 1.9415538349	 1.0220921955	 0.14151
H	-0.8533159826	-0.413371818	 0.2914814765	 0.118138
H	-0.0567560609	-1.0271131742	-2.0739392688	 0.115297
H	 2.3533392447	-0.7418668112	-2.5438822625	 0.124014
H	 2.6215859653	 1.4326813372	-0.3460830528	 0.095386
H	 2.0685015635	-2.2750582569	-0.551985878	 0.12442
74.3665	111.2011	159.2989	178.5789	244.1777	289.7112	324.5827	448.3003	470.7398	575.386	626.714	678.6003	749.953	807.5804	826.2187	895.4168	921.4476	974.839	1008.7292	1036.1151	1058.3873	1064.3589	1091.0568	1111.1077	1150.5319	1195.6306	1210.5664	1271.1706	1312.7418	1348.4411	1372.3308	1412.0316	1445.7176	1493.7087	1499.2456	1818.1816	1885.365	2903.9876	3018.3056	3043.2757	3108.2819	3123.1447	3156.3984	3195.6224	3205.3852
CC1C2C(C=O)C2C1=O	C[C@H]1[C@H]2[C@@H](C=O)[C@H]2C1=O	
InChI=1S/C7H8O2/c1-3-5-4(2-8)6(5)7(3)9/h2-6H,1H3	InChI=1S/C7H8O2/c1-3-5-4(2-8)6(5)7(3)9/h2-6H,1H3/t3-,4+,5-,6+/m0/s1
