13
gdb 21855	3.99082	1.90402	1.28902	3.3219	66.03	-0.2047	-0.0306	0.1741	866.0969	0.097863	-394.788323	-394.781689	-394.780745	-394.818969	25.432	
O	 0.2646258208	 1.3038718438	-0.0021273405	-0.422374
C	 0.04251008	-0.0279132298	-0.0017367746	 0.510166
C	-1.1545737758	-0.6597232996	-0.0402597159	-0.335138
C	-1.1962183099	-2.1082924351	-0.0328351543	 0.294105
N	-2.3068126733	-2.7640701579	-0.0678022092	-0.559513
C	 0.1458044329	-2.7142769829	 0.0180872005	-0.052556
N	 1.2711601321	-2.0813375415	 0.0540149109	-0.187792
N	 1.2112793797	-0.7332082002	 0.0441297805	-0.271097
H	-0.583121708	 1.7608005906	-0.0347836831	 0.316637
H	-2.0825214369	-0.1017736215	-0.0765306335	 0.103416
H	-2.1211296091	-3.7692714734	-0.0550493369	 0.200926
H	 0.2263118064	-3.7988276003	 0.0273491381	 0.121841
H	 2.0942286312	-0.2504940721	 0.071597418	 0.281379
140.3694	202.7376	345.6936	362.3753	390.5421	477.1629	501.2183	530.7842	547.7422	664.9424	723.9002	748.6445	815.6709	850.0943	937.0422	960.171	1038.4938	1115.5146	1163.8556	1206.4712	1252.7476	1358.253	1395.873	1411.8625	1539.0566	1629.2134	1662.3298	1694.3247	3161.3655	3202.9689	3439.2371	3660.2792	3825.8433
OC1=CC(=N)C=NN1	O[C@@H]1C=C([NH])C=NN1	
InChI=1S/C4H5N3O/c5-3-1-4(8)7-6-2-3/h1-2H,(H3,5,7,8)	InChI=1S/C4H6N3O/c5-3-1-4(8)7-6-2-3/h1-2,4-5,7-8H/t4-/m1/s1
