25
gdb 109769	2.36735	1.06489	0.86017	1.3615	89.55	-0.244	0.0591	0.3032	1514.7558	0.226699	-389.484984	-389.473748	-389.472804	-389.521411	41.431	
C	-0.4122246314	 1.5378850202	-0.6877772142	-0.375625
C	-0.5055509811	 0.0077215431	-0.6190715335	-0.202383
C	 0.5398074043	-0.668555483	-1.4844750085	-0.063366
C	 1.9012609382	-1.0273289612	-0.918732047	 0.053337
O	 2.1350098262	-0.8887098509	 0.4573413639	-0.41715
C	 0.9542341288	-2.1240602774	-1.317872067	-0.045929
C	 0.3427840466	-3.0661658268	-0.2919100926	 0.034408
C	-0.9507156216	-3.6935534728	-0.8321131354	-0.392074
C	 1.3596442553	-4.1453606219	 0.1111806677	-0.391258
H	 0.5633723347	 1.8933451068	-0.3364940925	 0.101618
H	-0.5387871479	 1.8980171561	-1.7147393428	 0.115095
H	-1.1815445918	 2.0121592151	-0.0703599787	 0.111755
H	-0.3926346455	-0.3138277969	 0.4201498891	 0.110234
H	-1.5081109245	-0.3066699796	-0.9353342937	 0.097907
H	 0.5513397158	-0.3037912059	-2.5103040377	 0.074429
H	 2.7809497236	-0.8560465821	-1.5393285347	 0.078659
H	 2.2776389383	 0.0449304307	 0.6445508042	 0.288967
H	 1.2142890014	-2.6297175074	-2.2469235069	 0.075926
H	 0.0995002403	-2.4937373365	 0.6083240868	 0.084023
H	-1.6902410586	-2.9294569186	-1.091174996	 0.112685
H	-0.7523453788	-4.2834006917	-1.7353426111	 0.107318
H	-1.4013446516	-4.363967967	-0.0923808653	 0.106442
H	 2.2538553239	-3.6913293365	 0.5465756072	 0.129267
H	 0.9309171413	-4.8340010047	 0.8473722549	 0.102581
H	 1.667470004	-4.739683761	-0.7579541262	 0.103134
60.6229	65.3573	109.714	146.9417	201.6588	228.1964	246.6837	254.7576	270.4727	298.0452	302.6221	347.8666	410.9137	547.7677	569.5818	615.837	761.5734	767.9634	811.8537	840.0627	904.2674	928.1007	962.6166	969.352	997.5664	1035.8394	1047.8981	1068.6772	1116.5695	1134.7631	1154.0951	1184.7765	1188.5209	1206.3367	1250.8965	1287.872	1294.8709	1314.5351	1339.0582	1343.0777	1395.0044	1398.2673	1404.4567	1413.5728	1418.9445	1463.213	1484.8442	1489.3342	1491.0385	1497.2785	1503.6126	1504.1407	1511.3998	3021.2394	3024.8159	3025.6812	3028.2637	3056.2471	3076.5943	3083.4324	3088.3726	3092.5323	3096.0247	3101.1884	3102.2196	3107.5107	3115.0896	3122.4663	3804.5908
CCC1C(O)C1C(C)C	CC[C@H]1[C@@H](O)[C@H]1C(C)C	
InChI=1S/C8H16O/c1-4-6-7(5(2)3)8(6)9/h5-9H,4H2,1-3H3	InChI=1S/C8H16O/c1-4-6-7(5(2)3)8(6)9/h5-9H,4H2,1-3H3/t6-,7+,8-/m1/s1
