18
gdb 67155	2.58161	1.67647	1.56796	1.9335	75.3	-0.2258	-0.0227	0.2031	962.8356	0.148286	-401.909274	-401.901825	-401.900881	-401.940904	29.538	
C	 0.0489650872	 1.5398143809	 0.126761344	-0.517561
C	-0.0142442387	 0.0518349876	-0.0246014223	 0.378531
C	 0.6151976331	-0.8103513217	-1.1829327996	-0.231186
C	 1.4107579814	-1.5252749576	-0.057371723	-0.185597
N	 0.6124400569	-0.8725713718	 1.0282766401	-0.176053
C	-0.7095504147	-1.5604127124	 1.1738092163	-0.185599
C	-1.3104991695	-0.8422548786	-0.064754199	-0.231182
C	-0.7670238572	-1.450064284	-1.363873668	 0.428098
O	-1.2718082536	-2.0776664012	-2.2511050394	-0.318333
H	 1.0877561607	 1.8840870217	 0.1618461452	 0.131189
H	-0.4482131313	 2.0367322212	-0.713429026	 0.12702
H	-0.4421630094	 1.8584402705	 1.0520236882	 0.131209
H	 1.1390992399	-0.4425125223	-2.0657827783	 0.091898
H	 1.4123562145	-2.6200546067	-0.043553675	 0.113573
H	 2.4454129012	-1.1730278656	-0.0145830838	 0.119263
H	-0.6712084481	-2.6545834837	 1.1662905761	 0.113573
H	-1.1936859123	-1.2333411778	 2.0985018745	 0.119263
H	-2.3457426002	-0.5002500984	-0.0422612399	 0.091896
117.0025	207.4826	216.8019	276.9705	287.8495	422.5647	459.4825	499.8716	595.6648	625.3574	729.3807	753.989	832.7334	848.3414	870.922	907.8889	949.1849	954.9501	975.9755	995.2928	1080.1535	1102.3606	1119.5944	1125.1385	1137.0586	1173.6708	1192.9377	1204.3742	1219.5617	1242.8547	1309.0945	1316.1703	1339.2059	1412.8254	1479.3432	1488.2843	1497.308	1513.2262	1880.6824	3030.8585	3039.7809	3045.0118	3090.9689	3094.132	3102.1105	3102.6567	3110.9798	3111.864
CC12C3CN1CC2C3=O	C[C@@]12[C@H]3CN1C[C@@H]2C3=O	
InChI=1S/C7H9NO/c1-7-4-2-8(7)3-5(7)6(4)9/h4-5H,2-3H2,1H3	InChI=1S/C7H9NO/c1-7-4-2-8(7)3-5(7)6(4)9/h4-5H,2-3H2,1H3/t4-,5+,7-
