20
gdb 121871	2.40767	1.14336	0.90419	5.7567	73.34	-0.2366	0.012	0.2485	1357.866	0.168564	-477.446194	-477.435561	-477.434617	-477.482583	37.725	
C	 0.034907147	 1.7986116275	-0.4361186152	-0.394133
C	-0.0951726793	 0.3914119356	 0.1540820163	 0.029085
O	-1.430775292	 0.2248287512	 0.5350202686	-0.247218
C	-1.7206804162	-0.8770521826	 1.3960033803	-0.098177
C	-3.01877603	-1.5152239522	 0.9232155153	-0.036897
O	-2.8717630617	-2.2120915583	-0.2876736598	-0.435174
C	 0.3085232075	-0.6574783864	-0.9082688685	 0.380259
N	 1.6476582238	-0.8376909948	-1.0547417655	-0.513309
O	-0.5080268135	-1.2492782734	-1.5913282577	-0.354281
H	 1.0584565845	 1.9998358518	-0.7634522635	 0.113506
H	-0.6342496744	 1.8975022866	-1.2948920885	 0.147624
H	-0.2505172982	 2.538308418	 0.3154095047	 0.132684
H	 0.5793454175	 0.2925996726	 1.0220490856	 0.069636
H	-0.9171671228	-1.6248903149	 1.3626881425	 0.100128
H	-1.8150025818	-0.5132635178	 2.4302451414	 0.090835
H	-3.3599872185	-2.2327014681	 1.6805083543	 0.092006
H	-3.7818634617	-0.7205799565	 0.8565091084	 0.08612
H	-2.2728142786	-1.7018046796	-0.8571963068	 0.304343
H	 2.3205976423	-0.3874871245	-0.4596508936	 0.264145
H	 1.974511666	-1.4850098143	-1.7536931581	 0.268816
46.0505	54.3053	129.7701	167.3864	183.9785	187.0394	222.4637	250.3845	293.3109	335.6701	442.7489	446.3065	522.5534	569.1079	585.2687	649.3824	738.4174	775.5852	848.4917	891.2462	943.9784	1029.996	1084.2521	1098.2697	1110.8999	1123.7989	1142.0404	1195.2713	1256.6549	1279.7903	1289.9986	1334.847	1382.3716	1394.8048	1402.6683	1421.8255	1463.975	1480.5719	1496.5808	1502.3922	1504.2816	1618.8271	1787.555	2950.5594	2959.0897	2988.0588	3041.8184	3046.0128	3050.6058	3129.2419	3134.5033	3600.8186	3669.1262	3735.9878
CC(OCCO)C(N)=O	C[C@@H](OCCO)C(=O)N	
InChI=1S/C5H11NO3/c1-4(5(6)8)9-3-2-7/h4,7H,2-3H2,1H3,(H2,6,8)	InChI=1S/C5H11NO3/c1-4(5(6)8)9-3-2-7/h4,7H,2-3H2,1H3,(H2,6,8)/t4-/m1/s1
