18
gdb 53173	2.93696	1.11221	0.96174	1.8729	80.53	-0.2369	0.0266	0.2635	1296.5791	0.146389	-401.872122	-401.862808	-401.861864	-401.907537	33.265	
C	 0.042933873	 1.5219247942	-0.0449267783	-0.501118
C	 0.0084475169	 0.0663638953	-0.0289246169	 0.084356
C	-0.0182179292	-1.1396527253	-0.0595859639	 0.098195
C	-0.0334513118	-2.5873916206	-0.0182997847	-0.236935
C	 0.3567601074	-3.248086307	 1.3580804072	 0.120856
O	 0.8467442498	-2.4530609416	 2.3976741929	-0.428941
C	-1.0677450107	-3.794561194	 1.4034307762	-0.052519
C	-2.0822884254	-2.7431513621	 1.2041058026	-0.249206
N	-1.397685179	-3.2633296728	 0.0094804945	-0.129588
H	 0.9760920411	 1.8998166393	 0.3867045239	 0.155287
H	-0.0302888887	 1.906417997	-1.0679400458	 0.156976
H	-0.7862010403	 1.9471435147	 0.5307754925	 0.152291
H	 0.5365524742	-3.0049700144	-0.8514571737	 0.110278
H	 1.0839120063	-4.049610416	 1.2082989341	 0.102578
H	 0.4476691452	-1.5783348995	 2.3154995047	 0.281863
H	-1.3341212242	-4.8046395789	 1.6974742093	 0.096198
H	-3.1226498075	-3.0487572938	 1.253738333	 0.125574
H	-1.8994701472	-1.7176196445	 1.5138434824	 0.113854
27.7045	82.8356	95.3119	163.804	198.4655	282.4207	291.7034	376.7797	408.3517	482.3824	523.9523	617.2506	722.0465	750.0269	780.2236	809.2127	917.88	949.8446	979.0008	1027.1929	1051.0374	1053.7565	1063.0759	1112.3028	1131.831	1148.2978	1179.5235	1194.4406	1220.346	1263.3897	1326.2768	1342.9383	1372.2046	1413.6141	1441.8752	1476.0096	1477.4999	1505.6552	2352.0807	3030.2133	3075.2896	3090.013	3092.843	3093.3876	3116.7713	3165.2434	3203.1027	3778.0234
CC#CC1C(O)C2CN12	CC#C[C@H]1[C@@H](O)[C@H]2CN12	
InChI=1S/C7H9NO/c1-2-3-5-7(9)6-4-8(5)6/h5-7,9H,4H2,1H3	InChI=1S/C7H9NO/c1-2-3-5-7(9)6-4-8(5)6/h5-7,9H,4H2,1H3/t5-,6+,7+,8?/m0/s1
