17
gdb 128538	3.39038	1.24495	0.92123	1.878	72.77	-0.1906	0.0393	0.2298	1245.8883	0.135317	-455.143255	-455.133717	-455.132773	-455.179275	32.803	
C	 0.0812057142	 1.2846044331	 0.2319300962	-0.248946
O	 0.0528186389	-0.1254646455	 0.124860121	-0.28786
C	 0.6785774896	-0.6342549868	-0.9775123003	 0.134373
C	 0.7443354454	-1.9926750314	-1.2258013406	 0.339295
O	 0.26752145	-3.0579797583	-0.5417267175	-0.443711
N	 1.4291603281	-2.1571547879	-2.3785213148	-0.010632
C	 1.723313535	-3.4021492134	-3.0511924425	-0.324569
N	 1.8164921288	-0.9704663397	-2.9097120188	-0.291919
C	 1.3633840155	-0.0459975227	-2.0591083414	-0.111212
H	 1.111709642	 1.6601408997	 0.2926868964	 0.123107
H	-0.4189662939	 1.760330621	-0.622562791	 0.123213
H	-0.4508127982	 1.5415717876	 1.1495872636	 0.131626
H	-0.1658054499	-2.7176083714	 0.2500157275	 0.315451
H	 0.8157679991	-3.8562827014	-3.462821865	 0.139787
H	 2.4134357736	-3.170213752	-3.8616564492	 0.158427
H	 2.1877432259	-4.1109435793	-2.3600775476	 0.143613
H	 1.5497120659	 0.9984298282	-2.256429716	 0.109957
24.8521	39.428	140.1374	173.7351	206.6435	260.0257	281.7866	297.6917	345.4883	363.0127	559.6731	597.5879	642.9674	682.1125	758.0003	791.2415	829.9923	991.222	1044.5589	1125.0596	1152.2537	1181.601	1196.6959	1237.1961	1240.8484	1299.5909	1334.0356	1394.623	1437.4734	1464.4478	1482.7318	1484.1922	1490.6293	1508.8992	1509.7327	1610.5242	1665.3911	2997.768	3041.3266	3053.014	3103.5135	3131.4994	3165.4419	3249.1305	3809.6361
COC1=C(O)N(C)N=C1	COc1c(O)n(C)nc1	
InChI=1S/C5H8N2O2/c1-7-5(8)4(9-2)3-6-7/h3,8H,1-2H3	InChI=1S/C5H8N2O2/c1-7-5(8)4(9-2)3-6-7/h3,8H,1-2H3
