21
gdb 118717	3.94219	0.8725	0.8351	0.8554	78.67	-0.2309	0.0761	0.307	1453.3497	0.181197	-424.172493	-424.162972	-424.162028	-424.207134	35.307	
C	 0.0240690021	 1.6634166099	-0.250465751	-0.479089
C	-0.0208188201	 0.1548106544	-0.1078803835	 0.295148
C	-1.3072307686	-0.4332737761	 0.4590251486	-0.245045
C	-1.6307911721	 0.0081211375	 1.8849981102	-0.079786
O	-2.789255638	-0.7060374829	 2.2920262475	-0.420058
C	 0.6209833623	-0.7685937773	-1.1419196273	-0.186136
C	 1.9600315786	-0.2142947855	-1.6119885674	-0.112515
O	 2.4080917283	-0.0186509216	-0.2424095318	-0.29015
C	 1.2124692444	-0.6336431275	 0.2457475358	 0.062954
H	 1.0211316572	 2.0030644573	-0.5365378298	 0.137079
H	-0.6930850195	 2.0087652581	-1.0038958023	 0.11322
H	-0.2229317674	 2.1583711496	 0.6941723752	 0.116952
H	-2.1540151962	-0.173843304	-0.1886158572	 0.106275
H	-1.2458461458	-1.5283078609	 0.4618165608	 0.105532
H	-0.7745270309	-0.2075878815	 2.5442891191	 0.087172
H	-1.8053228954	 1.0938426233	 1.9220473214	 0.08929
H	-3.0309981425	-0.4090648638	 3.1739515549	 0.285834
H	 0.0831969843	-1.587732786	-1.6013914153	 0.096282
H	 2.5847470652	-0.9637627158	-2.1110145656	 0.110868
H	 1.9665485368	 0.715342985	-2.1930895072	 0.104782
H	 1.3058469975	-1.3222405423	 1.079172305	 0.101391
68.5723	81.6247	141.6072	170.9594	243.4249	263.3481	282.3158	331.637	333.9891	369.6828	468.2379	584.7973	703.2601	763.4749	797.1923	830.9982	899.9276	949.6409	957.7627	981.7834	999.27	1008.9898	1032.1528	1055.7465	1069.3152	1086.7837	1100.7269	1131.6158	1161.6642	1202.0054	1228.287	1240.6128	1252.4614	1297.1843	1316.8893	1340.7967	1347.3025	1416.5885	1419.7823	1459.8502	1484.6887	1493.9943	1503.4871	1523.607	1528.5598	2969.0772	3000.2646	3024.018	3026.2695	3036.191	3068.5559	3070.3725	3092.7671	3132.1696	3163.1245	3194.88	3831.7913
CC1(CCO)C2COC12	C[C@@]1(CCO)[C@H]2CO[C@@H]12	
InChI=1S/C7H12O2/c1-7(2-3-8)5-4-9-6(5)7/h5-6,8H,2-4H2,1H3	InChI=1S/C7H12O2/c1-7(2-3-8)5-4-9-6(5)7/h5-6,8H,2-4H2,1H3/t5-,6+,7+/m0/s1
