22
gdb 40692	3.39622	1.00103	0.90128	1.3154	87.36	-0.2224	0.0945	0.3169	1403.4006	0.194337	-367.146957	-367.138066	-367.137122	-367.181277	34.225	
C	-0.1291679098	 1.35168895	-0.2900189073	-0.2575
C	 1.2267635619	 1.1025109308	 0.3170519973	-0.278357
C	 0.2989884615	-0.0575216792	 0.0426607374	-0.004669
C	-0.2466368918	-0.858035878	 1.1887730892	-0.012525
C	-1.4263143075	-0.4344448316	 1.9999362277	-0.260271
N	-1.5181690575	-1.5928408942	 1.116402862	-0.103566
C	-2.3270044509	-1.463917239	-0.0657454628	 0.084631
C	-2.407618659	-2.6675535504	-0.9661150428	-0.276194
C	-3.5897180024	-2.2812416296	-0.1080586411	-0.281756
H	-0.8759562747	 1.8313389486	 0.3318488751	 0.114282
H	-0.1840609897	 1.6273244011	-1.3377056976	 0.111947
H	 2.1071142911	 1.2194128441	-0.3049735973	 0.11213
H	 1.3699276633	 1.3913870944	 1.3530416859	 0.115027
H	 0.57129179	-0.6700317959	-0.8140674781	 0.095165
H	 0.5222718897	-1.4326157494	 1.7060278375	 0.089826
H	-1.4660698771	-0.6424196918	 3.0664536439	 0.109393
H	-1.9490063229	 0.4710478127	 1.6986830139	 0.108128
H	-2.3583442352	-0.4864341933	-0.5473385846	 0.082998
H	-2.4655735826	-2.5071988118	-2.0369681097	 0.106856
H	-1.8388513217	-3.5388511317	-0.6629972305	 0.118423
H	-3.7962522326	-2.8981137474	 0.7586293827	 0.119277
H	-4.4636960122	-1.8541330284	-0.5871430207	 0.106755
58.0349	65.8659	122.6668	198.4351	263.578	282.8479	325.5158	432.1072	501.6104	577.7164	705.5665	734.8084	784.9139	799.1103	826.7328	836.2293	890.8179	896.4482	925.2422	941.3613	962.2538	1016.8911	1050.1522	1055.3104	1060.9783	1073.1806	1082.1971	1085.2561	1119.5895	1123.0552	1132.1946	1139.7241	1174.7195	1196.5346	1200.2065	1204.4487	1227.942	1242.519	1329.8815	1388.6521	1393.0115	1414.6493	1454.9167	1468.478	1494.669	1505.1852	1507.4224	3092.4881	3093.2476	3096.6992	3128.2011	3132.1456	3136.4569	3138.708	3141.184	3177.1097	3211.2083	3221.3533	3226.3104	3235.1321
C1CC1C1CN1C1CC1	C1CC1[C@H]1CN1C1CC1	
InChI=1S/C8H13N/c1-2-6(1)8-5-9(8)7-3-4-7/h6-8H,1-5H2	InChI=1S/C8H13N/c1-2-6(1)8-5-9(8)7-3-4-7/h6-8H,1-5H2/t8-,9?/m1/s1
