21
gdb 72744	2.41995	1.73057	1.52771	1.6045	81.57	-0.2261	0.0737	0.2998	1016.9319	0.183014	-387.048515	-387.040488	-387.039544	-387.080667	32.236	
C	-0.082094995	 1.5702761076	-0.002764639	-0.496344
C	-0.0252257252	 0.0600983344	 0.0581473245	 0.229407
C	 0.9978403997	-0.6420250249	-0.8770889923	-0.138013
O	 1.7207408348	-1.2218829122	 0.2411343586	-0.335572
C	 0.7307978639	-0.7619171759	 1.1454055387	 0.462586
C	 0.9410750492	-0.3609539604	 2.5936963177	-0.326254
C	-0.5426929784	-0.7903071209	 2.8545499324	-0.233633
C	-0.602992282	-1.5143762815	 1.4671866007	-0.085372
C	-1.3306969263	-0.7512780878	 0.3293143529	-0.3121
H	 0.9218468179	 2.0089925499	 0.0047723666	 0.121538
H	-0.5854512451	 1.9078137322	-0.9173627662	 0.119143
H	-0.6371299736	 1.9838283594	 0.8464237063	 0.117322
H	 0.5861608823	-1.4105918481	-1.5433081465	 0.097913
H	 1.6407683478	 0.0317043046	-1.4555330033	 0.101562
H	 1.6461814603	-1.0332675183	 3.0927793378	 0.1137
H	 1.2325714524	 0.6724080167	 2.8045065292	 0.096736
H	-0.6888154396	-1.4399136482	 3.7189546197	 0.107305
H	-1.2356385629	 0.0513457808	 2.9363847732	 0.100986
H	-0.6782861923	-2.6014940229	 1.5103171739	 0.068007
H	-2.1819898787	-0.1445635087	 0.6552949353	 0.09475
H	-1.6578139694	-1.3734086158	-0.5096689102	 0.096334
102.6916	177.9695	204.4083	225.4583	331.9458	355.6013	378.4579	463.1584	490.7312	602.0969	684.0467	714.2235	796.4716	807.6853	843.2947	868.5478	914.1409	927.9067	949.5405	965.0199	993.6948	1008.4225	1032.7484	1086.0289	1095.4546	1132.5298	1157.6145	1166.5451	1192.8936	1216.744	1224.3879	1244.2959	1259.46	1264.346	1283.3216	1305.1233	1319.1365	1365.1704	1409.55	1472.4367	1479.9534	1489.846	1491.3676	1497.7126	1518.5403	3011.298	3019.0333	3038.6196	3046.8403	3061.3948	3064.4478	3080.4053	3086.1547	3093.2883	3094.2031	3102.9392	3124.7
CC12COC11CCC1C2	C[C@@]12CO[C@]31CC[C@H]3C2	
InChI=1S/C8H12O/c1-7-4-6-2-3-8(6,7)9-5-7/h6H,2-5H2,1H3	InChI=1S/C8H12O/c1-7-4-6-2-3-8(6,7)9-5-7/h6H,2-5H2,1H3/t6-,7+,8+/m0/s1
