19
gdb 65929	3.42713	1.08475	1.08413	1.846	70.6	-0.2424	0.0507	0.2931	1198.4772	0.15862	-460.106286	-460.097586	-460.096641	-460.140397	31.796	
O	-0.1898374005	 1.4690067758	-0.0279880479	-0.467123
C	 0.019484152	 0.0806622182	-0.0085400669	 0.30174
C	 1.0525677094	-0.5225836273	-1.000239837	-0.129978
O	 1.6740530389	-1.2688448315	 0.0639009353	-0.269046
C	 0.9763128235	-0.50512825	 1.0666184527	-0.129977
C	-1.3354393378	-0.6006131147	-0.052772835	-0.042357
C	-2.4206902215	-0.1239475712	 0.941617701	-0.092271
O	-3.3310383328	 0.1821880312	-0.1330003401	-0.271525
C	-2.3441825832	-0.1414587022	-1.1323125676	-0.092271
H	 0.6640085433	 1.9130558329	-0.0002581293	 0.28415
H	 0.6829239328	-1.1685486478	-1.8042715214	 0.111136
H	 1.7289118286	 0.2343034055	-1.4265916819	 0.088901
H	 1.6198748485	 0.2592620265	 1.5288196117	 0.088901
H	 0.5480274587	-1.1376707449	 1.8520074941	 0.111136
H	-1.1804340363	-1.6816734884	-0.0379267993	 0.092476
H	-2.8260797689	-0.8856973029	 1.6181242019	 0.097302
H	-2.1499193365	 0.7694456749	 1.5161100527	 0.110753
H	-2.0312662489	 0.7422880622	-1.7002780275	 0.110752
H	-2.6991027793	-0.9147602763	-1.8239054656	 0.097302
70.2143	76.7973	105.6979	193.3551	274.5103	293.833	331.0117	354.1143	466.533	489.7456	675.0512	754.1397	850.7431	884.5346	896.8366	940.5942	967.2555	1004.2719	1005.6866	1025.5243	1045.7574	1047.4024	1097.858	1108.2005	1131.3252	1142.6378	1164.2983	1169.4177	1170.9223	1236.5476	1273.0628	1291.9075	1316.6589	1337.8385	1368.7083	1386.8103	1432.3786	1501.9247	1505.727	1528.8853	1534.0166	2978.4835	2990.2144	3015.4511	3025.5609	3063.0682	3064.1468	3065.7816	3066.5618	3091.2582	3812.8784
OC1(COC1)C1COC1	OC1(COC1)C1COC1	
InChI=1S/C6H10O3/c7-6(3-9-4-6)5-1-8-2-5/h5,7H,1-4H2	InChI=1S/C6H10O3/c7-6(3-9-4-6)5-1-8-2-5/h5,7H,1-4H2
