16
gdb 26957	3.1317	1.27414	0.96708	2.6014	72.55	-0.209	0.018	0.227	1181.9269	0.1247	-437.88291	-437.874739	-437.873795	-437.916364	29.89	
N	 0.1237282883	 1.4440189706	 0.3850398647	-0.598439
C	-0.0184339319	 0.0850192046	 0.1032967841	 0.210999
C	-1.1251702433	-0.6586418653	-0.1845163774	 0.254206
C	-0.6597468394	-2.004088402	-0.3870020109	-0.294078
C	 0.680895711	-1.9754108046	-0.1933592096	-0.014622
O	 1.0981407395	-0.7087738708	 0.0936146294	-0.171874
C	-2.5101855687	-0.1629585636	-0.2408404368	-0.050126
C	-3.4672709202	-0.5856333234	-1.2797970583	-0.183257
O	-3.547833278	-1.1164770603	 0.0402589964	-0.236622
H	 0.8681911499	 1.6089338342	 1.053739956	 0.250057
H	 0.3110138633	 2.0032352594	-0.4415093244	 0.251905
H	-1.2674754415	-2.8684186174	-0.6024044525	 0.121089
H	 1.449254612	-2.7305643625	-0.1980378939	 0.13453
H	-2.6591261317	 0.8157114194	 0.2142525129	 0.100988
H	-4.2788032881	 0.0814142746	-1.5700361649	 0.114242
H	-3.1410623012	-1.285429913	-2.0482646848	 0.111001
63.3761	105.817	154.07	170.8166	261.3608	307.1936	438.522	504.2033	616.4838	625.2564	692.4923	737.9728	747.1878	789.1126	833.9326	839.3344	896.2714	922.0574	995.0683	1047.1408	1081.8367	1101.0098	1149.887	1174.0146	1175.5994	1192.5249	1259.0439	1270.616	1303.5256	1420.5028	1459.1248	1522.864	1554.2657	1646.9469	1694.6034	3076.3978	3119.8138	3165.3697	3259.7945	3285.4908	3498.1217	3577.7738
NC1=C(C=CO1)C1CO1	Nc1c(cco1)[C@H]1CO1	
InChI=1S/C6H7NO2/c7-6-4(1-2-8-6)5-3-9-5/h1-2,5H,3,7H2	InChI=1S/C6H7NO2/c7-6-4(1-2-8-6)5-3-9-5/h1-2,5H,3,7H2/t5-/m1/s1
