15
gdb 116843	3.66377	0.64467	0.55202	3.187	76.16	-0.2606	-0.1055	0.1551	1915.714	0.108246	-457.725498	-457.715442	-457.714498	-457.762651	32.52	
C	 0.1347129617	 1.309391051	-0.18325594	-0.223708
O	 0.048875898	-0.0993600481	-0.1456210357	-0.223575
C	 0.7000115415	-0.6397057806	 0.9788498111	-0.204569
C	 0.5910997581	-2.0897187605	 0.9826591608	 0.007515
C	 0.5223334672	-3.2941828621	 1.0211689809	 0.183913
C	 0.4452583141	-4.7265318036	 1.0745803402	 0.104247
O	 0.9325306091	-5.4107776448	 1.9510025284	-0.2581
C	-0.3108432036	-5.4262946663	-0.0656621176	 0.084901
O	-0.8317238964	-4.8551394092	-0.9825857731	-0.210757
H	 1.1796061063	 1.6528081127	-0.235628083	 0.111125
H	-0.3927055277	 1.6364588343	-1.0810854432	 0.140918
H	-0.3374392015	 1.7702299224	 0.6983266383	 0.111128
H	 1.769715583	-0.3629633947	 0.992358243	 0.132679
H	 0.267912341	-0.2478239824	 1.9173565654	 0.132686
H	-0.3147474508	-6.5288755481	 0.0652998346	 0.111595
43.8276	52.7143	72.802	118.6791	153.2244	153.6426	235.2007	261.0489	344.4042	381.5669	467.0979	512.3828	606.7424	678.3155	719.7203	976.6215	1008.289	1027.2744	1028.1471	1153.4279	1182.4557	1221.306	1251.1176	1254.51	1363.9758	1404.9495	1473.0721	1486.7356	1486.8578	1512.4968	1750.5501	1834.9338	2333.4695	2928.9914	2943.273	2960.1564	2976.1357	3023.0187	3131.3437
COCC#CC(=O)C=O	COCC#CC(=O)C=O	
InChI=1S/C6H6O3/c1-9-4-2-3-6(8)5-7/h5H,4H2,1H3	InChI=1S/C6H6O3/c1-9-4-2-3-6(8)5-7/h5H,4H2,1H3
