15
gdb 33642	3.36831	1.49753	1.40014	1.1048	77.03	-0.2315	-0.0139	0.2176	956.9599	0.112563	-383.407855	-383.401047	-383.400102	-383.438843	27.854	
C	-0.0492780386	-1.2189329192	 0.0253491345	-0.357487
C	-0.0306749852	-0.0154282456	 0.00150887	 0.03814
C	 0.0027622075	 1.3990635475	-0.0243696451	 0.201301
C	-0.6323740516	 2.4816757964	 0.7995950896	 0.04289
O	 0.5501197429	 3.1986562676	 1.0229885728	-0.289352
C	 1.2260826413	 2.3832727123	-0.029389727	-0.012968
C	 1.1015041208	 3.1877358312	-1.2938974511	-0.10759
C	-0.1947951532	 3.2101952372	-1.6371476364	-0.058201
C	-0.9750112786	 2.3456818606	-0.7204506053	-0.189451
H	-0.0665795443	-2.2801425269	 0.0506748519	 0.182436
H	-1.3858986715	 2.4770530858	 1.5775591266	 0.126523
H	 2.2012222378	 2.0452902001	 0.3134326592	 0.097959
H	 1.8992624999	 3.7853581851	-1.7135143239	 0.109165
H	-0.6471055333	 3.8235067649	-2.4063420233	 0.11155
H	-1.9677457138	 1.9820429728	-0.9541724625	 0.105083
131.9112	154.7822	383.9625	407.5348	474.3731	492.7487	528.9919	574.5297	616.3763	670.9967	694.5768	734.0981	760.2695	807.6545	822.5011	880.8027	900.6562	924.0652	958.8801	975.8592	1023.4178	1045.3357	1082.4623	1117.0413	1123.9186	1197.3503	1209.6281	1267.5928	1316.1633	1357.5465	1420.2302	1626.5633	2232.5858	3151.3111	3195.0892	3201.614	3209.8491	3233.8761	3502.3922
C#CC12C3OC1C=CC23	C#C[C@@]12[C@H]3O[C@@H]1C=C[C@@H]23	
InChI=1S/C8H6O/c1-2-8-5-3-4-6(8)9-7(5)8/h1,3-7H	InChI=1S/C8H6O/c1-2-8-5-3-4-6(8)9-7(5)8/h1,3-7H/t5-,6-,7+,8+/m1/s1
