16
gdb 47278	3.32897	1.29055	0.97296	2.1241	77.62	-0.2579	-0.0849	0.173	1155.6555	0.125791	-437.917159	-437.909459	-437.908514	-437.949971	28.844	
N	-0.0257755263	 0.6479292713	 1.3268389512	-0.494454
C	 0.0945247119	 0.0713227482	 0.1965118581	 0.353309
O	 1.3054209835	-0.3755172792	-0.2254234785	-0.252059
C	 1.5415768089	-0.6774965081	-1.6026600788	-0.114672
C	 0.8952690065	-1.9856959046	-2.0412837518	-0.315489
C	-0.5882087646	-1.8846766958	-2.3586995691	 0.361172
O	-1.0885759663	-2.5836450014	-3.2175214987	-0.314539
C	-1.4376239406	-0.9195502451	-1.6219427488	-0.181416
C	-1.1401509582	-0.1153833249	-0.5884110873	-0.074411
H	 0.8866351991	 0.7028381628	 1.7854907606	 0.228153
H	 1.21921146	 0.1604955827	-2.2323398256	 0.123536
H	 2.6284035326	-0.7552475414	-1.6758413807	 0.132587
H	 1.3870948655	-2.3780206173	-2.9360654063	 0.135648
H	 1.0371151485	-2.7285026841	-1.2457967599	 0.145173
H	-2.4586281688	-0.9130546002	-1.9936185368	 0.124261
H	-1.9392577715	 0.4879491572	-0.1700365775	 0.143201
63.7465	91.0301	265.6835	283.5336	329.0605	361.1065	423.7844	494.4783	535.1196	597.6559	699.7584	720.9255	769.6845	822.1826	868.5699	918.0203	927.3203	959.4913	1044.852	1049.6713	1077.2275	1162.4989	1183.4044	1225.522	1276.3462	1299.4145	1360.7512	1368.8265	1400.2225	1435.5512	1442.9343	1503.6538	1665.2352	1699.1862	1765.189	3035.9773	3043.2883	3100.8973	3111.3401	3172.1062	3196.2177	3464.4231
N=C1OCCC(=O)C=C1	[NH][C]1OCCC(=O)C=C1	
InChI=1S/C6H7NO2/c7-6-2-1-5(8)3-4-9-6/h1-2,7H,3-4H2	InChI=1S/C6H7NO2/c7-6-2-1-5(8)3-4-9-6/h1-2,7H,3-4H2
