17
gdb 52577	2.28205	1.04326	0.7711	1.9204	83.91	-0.2419	-0.0209	0.221	1509.5913	0.130368	-384.645599	-384.634578	-384.633634	-384.684366	36.914	
C	-0.0800506982	 1.5423580637	-0.0083799757	-0.500893
C	-0.0093395914	 0.0892397334	-0.0200033168	 0.127319
C	 0.0473701172	-1.1113212363	-0.0394761525	 0.09363
C	 0.1268245884	-2.5683060945	-0.0617351586	-0.482661
C	-1.1749555656	-3.2050048151	 0.1640614842	 0.336361
C	-2.2376589176	-3.7424894964	 0.3227033181	-0.46378
C	 0.7438026574	-3.116072904	-1.399694172	 0.393224
C	 1.080778735	-4.5925727881	-1.389511687	-0.484819
O	 0.9464931252	-2.3953811072	-2.3376799338	-0.26654
H	 0.548857827	 1.9659956821	 0.7821900956	 0.148079
H	 0.2578367195	 1.9591141422	-0.9632759498	 0.156109
H	-1.1059296583	 1.8867899187	 0.1614706816	 0.15135
H	 0.8071829853	-2.9075910761	 0.7357916761	 0.140607
H	-3.1829997194	-4.2027599683	 0.4725488017	 0.204261
H	 0.236217467	-5.1826732206	-1.0244862612	 0.157039
H	 1.3641479491	-4.9103693769	-2.3931115223	 0.146624
H	 1.9202098693	-4.7685065767	-0.7058674778	 0.144088
20.5226	27.1906	76.6913	100.5712	112.9045	143.9252	249.5109	266.1753	335.2699	366.3722	407.3372	418.796	522.0511	567.8974	598.4578	620.6051	650.9936	770.4286	836.4878	959.7663	984.3323	1040.0496	1052.0891	1054.4573	1161.3274	1181.4342	1233.1087	1309.7716	1380.9004	1413.4743	1464.3369	1474.6637	1476.8026	1477.563	1843.0041	2235.5402	2384.4305	2978.091	3029.1933	3040.3493	3090.6233	3092.9704	3111.6662	3160.045	3502.7565
CC#CC(C#C)C(C)=O	CC#C[C@@H](C#C)C(=O)C	
InChI=1S/C8H8O/c1-4-6-8(5-2)7(3)9/h2,8H,1,3H3	InChI=1S/C8H8O/c1-4-6-8(5-2)7(3)9/h2,8H,1,3H3/t8-/m1/s1
