18
gdb 113629	3.77819	0.89154	0.84977	1.6902	83.95	-0.2357	-0.0676	0.168	1430.6868	0.144859	-401.894811	-401.885219	-401.884275	-401.929894	34.504	
C	-0.4412812244	 1.5611437865	 0.6960501967	-0.376301
C	-0.1888009812	 0.0556012811	 0.6659463566	-0.132022
N	-1.286201057	-0.6030447469	-0.0508443443	-0.077787
C	-1.1799957803	-0.7741056568	-1.4772539992	-0.238945
C	-1.1336368058	-1.9755316617	-0.5729726846	-0.120555
C	 0.1592683094	-2.7218742091	-0.4674719997	 0.245654
O	 1.252567355	-2.2279531624	-0.6728591552	-0.317375
C	 0.0229523562	-4.1171308847	-0.0829184673	 0.238591
C	-0.1023300161	-5.2748287883	 0.2230363244	-0.395911
H	 0.3372290446	 2.064249831	 1.2772931201	 0.116417
H	-0.4300220625	 1.981517907	-0.3149660899	 0.118638
H	-1.4130475765	 1.7846762765	 1.1452066751	 0.125214
H	 0.7916123481	-0.162244622	 0.2256035542	 0.1301
H	-0.1863759954	-0.3443198203	 1.6864559667	 0.104969
H	-2.0811160222	-0.5959182407	-2.0584438727	 0.121497
H	-0.2396585092	-0.5138158151	-1.9608509669	 0.136049
H	-2.0211095647	-2.5897869526	-0.4502738749	 0.105466
H	-0.194036428	-6.2984026116	 0.4951894907	 0.216301
41.8729	86.4623	132.1069	176.7065	210.1624	240.1258	274.3313	281.3294	399.0002	411.9346	522.8787	603.6149	645.7298	702.3206	726.283	756.2351	814.0349	823.1996	886.9082	944.1716	1011.0571	1044.3559	1082.7892	1107.7574	1119.5732	1126.9519	1147.5025	1204.9989	1311.0437	1326.1154	1385.7209	1392.8602	1410.3228	1487.1848	1489.5527	1499.8052	1518.3887	1738.4498	2210.3587	3028.6515	3039.6108	3068.6834	3093.1445	3109.4708	3120.6064	3150.4215	3186.7541	3494.2576
CCN1CC1C(=O)C#C	CCN1C[C@H]1C(=O)C#C	
InChI=1S/C7H9NO/c1-3-7(9)6-5-8(6)4-2/h1,6H,4-5H2,2H3	InChI=1S/C7H9NO/c1-3-7(9)6-5-8(6)4-2/h1,6H,4-5H2,2H3/t6-,8?/m0/s1
