18
gdb 128208	2.55195	1.33986	0.88961	3.2359	76.68	-0.1923	0.0454	0.2378	1286.5036	0.148357	-435.281621	-435.272326	-435.271381	-435.315803	33.726	
C	-0.1222412002	 1.4013881466	 0.0637967084	-0.323008
N	-0.1145269091	-0.0509129973	-0.0314581667	-0.400632
C	 0.6118701928	-0.6087431455	-1.0759003672	 0.469871
C	 1.2899164297	-0.0213932286	-2.1343157971	-0.434227
C	 1.7629538203	-1.1263309359	-2.8727097129	 0.444475
O	 2.4913243129	-1.0469540114	-4.0079544656	-0.43469
N	 1.4318825364	-2.2918994672	-2.3467825807	-0.392836
N	 0.6974744912	-1.9545668652	-1.2350117294	-0.042422
C	 0.1564842701	-2.9833112157	-0.3848160571	-0.337554
H	 0.8809748494	 1.8399770278	 0.1758955035	 0.119485
H	-0.5770811738	 1.8207847755	-0.8383000749	 0.143893
H	-0.7325201129	 1.6970068204	 0.9202096266	 0.125648
H	 0.0633257076	-0.4970029468	 0.8585125118	 0.239349
H	 1.4313970828	 1.0248683344	-2.3394229337	 0.102735
H	 2.6710993253	-1.9543774912	-4.2844589921	 0.298524
H	 0.8280231271	-3.2372491888	 0.4466621449	 0.125508
H	-0.804970353	-2.6550566644	 0.0209004714	 0.139181
H	 0.0033889933	-3.8772741968	-0.9905533193	 0.1567
78.1364	121.8132	148.1945	181.1879	185.9678	250.9189	284.2848	371.1209	388.4208	420.0533	540.1223	558.657	639.7016	662.8542	691.4445	702.9015	747.4995	852.4441	1016.86	1060.843	1081.9516	1142.4761	1148.5666	1158.0267	1192.4831	1222.6068	1255.4891	1319.8997	1424.4837	1457.1063	1457.4811	1481.6403	1489.6157	1497.6536	1510.8823	1521.2986	1562.7755	1590.3079	1616.0164	2989.5896	3008.8681	3081.3746	3087.2235	3125.3915	3147.006	3287.4009	3566.9705	3793.2217
CNC1=CC(O)=NN1C	CNc1cc(O)nn1C	
InChI=1S/C5H9N3O/c1-6-4-3-5(9)7-8(4)2/h3,6H,1-2H3,(H,7,9)	InChI=1S/C5H9N3O/c1-6-4-3-5(9)7-8(4)2/h3,6H,1-2H3,(H,7,9)
