19
gdb 117825	2.57646	1.06195	0.90374	3.8018	68.59	-0.2451	-0.0276	0.2175	1359.8578	0.155282	-497.285603	-497.274965	-497.274021	-497.32179	37.094	
C	 0.0358802488	 1.3503602173	 0.3304621144	-0.232035
O	-0.0313025127	-0.0587060592	 0.2728936439	-0.263798
C	-1.2946284841	-0.5494210964	-0.1403713195	-0.115885
C	-1.1915634597	-2.0730755974	-0.0878252455	 0.226042
O	-0.6511517357	-2.4955237586	 1.1554287596	-0.485549
C	-2.5649093137	-2.7500481555	-0.2111293548	-0.07901
O	-2.4464886762	-4.1496805705	-0.0710282326	-0.429727
C	-0.2916012367	-2.5694258085	-1.235549333	 0.144809
O	-0.4198320826	-2.2174099408	-2.3778975242	-0.258882
H	 1.03964484	 1.6142214408	 0.6704324307	 0.135448
H	-0.1377356391	 1.8002180138	-0.6574357652	 0.120964
H	-0.7024038684	 1.7604180152	 1.0358173306	 0.113089
H	-2.0846599124	-0.1925128733	 0.5387432193	 0.095173
H	-1.5286594884	-0.2293921179	-1.1648269716	 0.123233
H	 0.0085493921	-1.8344241374	 1.4032853336	 0.296899
H	-3.2377097482	-2.3199912038	 0.5470555407	 0.093094
H	-2.9835325567	-2.5571045911	-1.2030610839	 0.128129
H	-1.9850406139	-4.2980980854	 0.7632274854	 0.297824
H	 0.4871401377	-3.2932554414	-0.912399548	 0.090182
62.2005	83.7847	111.9049	116.3476	142.5087	220.6038	243.3871	262.4509	320.54	354.3021	385.4568	428.7703	441.9114	472.4389	587.978	635.4537	822.5316	897.5992	941.1211	965.2536	1013.6314	1075.5346	1113.9565	1149.8587	1157.5544	1184.1502	1197.1359	1224.8899	1240.1217	1295.2567	1347.5172	1378.2999	1403.3969	1414.177	1433.5781	1477.1874	1486.4805	1493.7474	1499.1549	1520.6378	1833.0369	2907.2431	2977.1259	2985.2864	2990.6912	3039.126	3043.0604	3096.2063	3123.9563	3768.0295	3794.3067
COCC(O)(CO)C=O	COC[C@@](O)(CO)C=O	
InChI=1S/C5H10O4/c1-9-4-5(8,2-6)3-7/h2,7-8H,3-4H2,1H3	InChI=1S/C5H10O4/c1-9-4-5(8,2-6)3-7/h2,7-8H,3-4H2,1H3/t5-/m0/s1
