21
gdb 88071	3.19423	1.24657	1.16393	1.7614	82.22	-0.2521	0.0925	0.3446	1177.7844	0.183319	-387.078181	-387.069897	-387.068953	-387.110857	32.709	
C	-0.1051853556	 1.5191084605	-0.0181213059	-0.409215
C	-0.0147891508	 0.0110354271	 0.0674317316	-0.049434
C	 1.2822687044	-0.7106126644	-0.2139052058	-0.350931
C	 0.7187678051	-0.6771823522	 1.1912259188	 0.361363
C	 1.4158660197	 0.0648555075	 2.3391658909	-0.307335
C	 1.879032159	-1.047906591	 3.3165685647	-0.246927
C	 0.9072820628	-2.1863823589	 3.0684691231	 0.044703
O	-0.4681467634	-1.7765878463	 3.0430895324	-0.27083
C	 0.2208773069	-1.9576683323	 1.7920763803	-0.025682
H	 0.8220276863	 1.9972717331	 0.3117682281	 0.114859
H	-0.2942842193	 1.8409911165	-1.0481298435	 0.11641
H	-0.9182876155	 1.9055668902	 0.6061403329	 0.122118
H	-0.9110760947	-0.5031152815	-0.2733363638	 0.083386
H	 1.2520672657	-1.6445260457	-0.7670661282	 0.106443
H	 2.1644054346	-0.10812548	-0.4101601621	 0.107232
H	 2.2482922671	 0.6858593975	 2.0004067708	 0.097712
H	 0.6999513991	 0.7190730953	 2.8442712494	 0.118281
H	 2.89114976	-1.3940844888	 3.073985958	 0.103375
H	 1.886079945	-0.7136099271	 4.3584234016	 0.10733
H	 1.0911808887	-3.1783380647	 3.4742973402	 0.089599
H	-0.1572078852	-2.7584967149	 1.1602141465	 0.087545
96.4954	150.6326	190.5299	193.65	291.732	356.62	369.7895	420.5122	498.0443	545.3493	672.6149	754.7319	810.7709	825.7389	842.7059	872.0357	887.8297	920.4915	926.7305	941.7945	988.5281	1022.6399	1033.5152	1046.7053	1081.2648	1084.0348	1119.1238	1133.1275	1181.3769	1196.7174	1212.3312	1253.889	1268.727	1299.4286	1315.7144	1325.4827	1363.0035	1407.0075	1424.2362	1443.1082	1479.1891	1488.9079	1491.4122	1495.4766	1506.2324	3029.8156	3037.5731	3061.0862	3085.1368	3089.6283	3100.2262	3108.071	3116.6125	3128.5249	3133.6904	3146.8371	3200.3585
CC1CC11CCC2OC12	C[C@H]1C[C@]21CC[C@H]1O[C@@H]21	
InChI=1S/C8H12O/c1-5-4-8(5)3-2-6-7(8)9-6/h5-7H,2-4H2,1H3	InChI=1S/C8H12O/c1-5-4-8(5)3-2-6-7(8)9-6/h5-7H,2-4H2,1H3/t5-,6+,7+,8-/m0/s1
