21
gdb 87230	4.05192	0.75471	0.71413	4.4542	84.66	-0.2433	0.0271	0.2704	1643.6723	0.181033	-383.264842	-383.254585	-383.253641	-383.300394	37.339	
C	-0.0759801631	 1.414363684	-0.2552846379	-0.417786
C	 0.0372979205	-0.0513603637	 0.1006986593	-0.030353
C	 1.3482193528	-0.7975105164	-0.0073597828	-0.314832
C	 0.7218071157	-0.5638252156	 1.3504908961	 0.324669
C	 1.3803635898	 0.3957137603	 2.3274917947	-0.4657
N	 0.0782387739	-1.733855759	 1.9166888886	-0.332961
C	 0.9801165599	-2.65859636	 2.5970415938	-0.275477
C	 0.2680934328	-3.8738160483	 3.0054790026	 0.257113
N	-0.2948698065	-4.8217847551	 3.3498499418	-0.30099
H	 0.8381074315	 1.9696088888	-0.0267277635	 0.1159
H	-0.2647226326	 1.5304639493	-1.327997368	 0.124106
H	-0.9022090957	 1.896898318	 0.2790178095	 0.118561
H	-0.8308627776	-0.6450624826	-0.17073276	 0.096815
H	 1.3306912362	-1.8044669922	-0.4084887623	 0.11698
H	 2.2369503594	-0.2245818942	-0.2529471247	 0.109246
H	 1.8408740957	 1.2455032924	 1.8187049019	 0.123514
H	 0.6475355909	 0.7919091289	 3.0411765035	 0.114664
H	 2.1714258005	-0.0987540466	 2.9023943633	 0.118473
H	-0.6751091044	-1.4621456575	 2.5412221758	 0.227123
H	 1.7749920137	-2.9411569805	 1.896747295	 0.157495
H	 1.4816517165	-2.2521115801	 3.4917893331	 0.133441
52.6667	99.1723	102.7244	178.3063	179.9366	214.0551	274.1168	278.4088	360.2714	374.6701	402.9408	437.4386	514.1176	548.6791	722.7939	737.3822	798.8988	884.6487	905.2406	925.791	958.2401	984.2506	1012.1218	1034.7444	1056.5801	1091.8001	1121.2387	1135.8769	1146.4145	1191.1438	1243.4615	1272.9911	1308.7684	1370.1972	1401.8909	1415.2839	1424.0957	1472.3169	1485.3134	1486.2458	1491.8618	1497.2725	1500.6178	1518.1358	2366.746	2960.3817	3024.9549	3031.6914	3059.7651	3081.405	3089.5922	3103.3853	3119.7569	3130.0467	3153.2319	3218.9864	3511.1088
CC1CC1(C)NCC#N	C[C@H]1C[C@]1(C)NCC#N	
InChI=1S/C7H12N2/c1-6-5-7(6,2)9-4-3-8/h6,9H,4-5H2,1-2H3	InChI=1S/C7H12N2/c1-6-5-7(6,2)9-4-3-8/h6,9H,4-5H2,1-2H3/t6-,7-/m0/s1
