18
gdb 54317	2.58956	1.5027	1.07912	1.5118	72.08	-0.2479	0.0108	0.2587	1120.9244	0.149456	-435.246894	-435.23828	-435.237336	-435.280427	32.494	
N	 0.9862493124	-0.0274090391	-0.5683175762	-0.551953
C	-0.1316390863	 0.2304256368	 0.164352771	 0.360627
O	-0.2277334938	 1.1835394495	 0.9201440294	-0.380483
C	-1.2778229348	-0.7472255057	-0.0181878185	 0.218258
C	-2.1588377554	-0.9123602467	 1.1753429654	-0.252515
N	-2.6126915914	-0.115282408	 0.0355973358	-0.349235
C	-1.0930986866	-1.8669416137	-0.9954665827	-0.127635
C	-2.2063897686	-2.3762859391	-1.8229520186	-0.237744
N	-1.1312908427	-1.5791108272	-2.4504662433	-0.341282
H	 1.7171349534	 0.6658092124	-0.5435053613	 0.263555
H	 0.9613247102	-0.6665202262	-1.3467372382	 0.284339
H	-2.6722602239	-1.8599732003	 1.3092177832	 0.122031
H	-1.8639322353	-0.3870178092	 2.0778143759	 0.141124
H	-2.4660047648	 0.8676523173	 0.265526251	 0.249556
H	-0.3042867018	-2.566252957	-0.7230551751	 0.101252
H	-2.2234580992	-3.4239320511	-2.10805671	 0.11906
H	-3.1734803021	-1.9029752474	-1.6910520616	 0.14307
H	-1.4851022594	-0.6312002853	-2.5748494563	 0.237976
68.9035	85.72	177.771	220.8081	280.2214	308.7772	398.119	418.4424	433.6413	487.3669	591.5063	620.5596	680.3708	778.9352	834.7381	847.7455	880.1449	914.4649	945.1613	987.5712	1012.4959	1039.6173	1082.5981	1113.2318	1128.6134	1135.7777	1172.8557	1208.8104	1243.9805	1277.0424	1304.3472	1310.7006	1351.7718	1385.9542	1446.6157	1486.2068	1499.4151	1621.9935	1777.9581	3117.9793	3118.967	3123.7265	3218.7772	3218.9927	3472.2051	3473.147	3584.7775	3714.2281
NC(=O)C1(CN1)C1CN1	NC(=O)[C@]1(CN1)[C@H]1CN1	
InChI=1S/C5H9N3O/c6-4(9)5(2-8-5)3-1-7-3/h3,7-8H,1-2H2,(H2,6,9)	InChI=1S/C5H9N3O/c6-4(9)5(2-8-5)3-1-7-3/h3,7-8H,1-2H2,(H2,6,9)/t3-,5+/m1/s1
