17
gdb 129633	3.22295	1.00883	0.81467	3.5235	71.21	-0.209	0.007	0.216	1365.2532	0.137294	-451.31666	-451.307578	-451.306633	-451.351429	32.36	
N	 0.0349844311	 1.4081455265	-0.1963166981	-0.598534
C	-0.0210756983	 0.0179324837	-0.0544705631	 0.238602
C	-1.1294041449	-0.8085913091	-0.0090505693	 0.265695
C	-2.5964110778	-0.5427929285	-0.0696447327	-0.318473
C	-3.0523456147	-0.0766869903	-1.4566758296	-0.068105
O	-4.4427716826	 0.1858796366	-1.3733725451	-0.418142
N	-0.5649148225	-2.0475563792	 0.0602296432	-0.229832
N	 0.7711212708	-2.004599437	 0.0535508364	-0.130477
N	 1.1064827743	-0.7408129058	-0.0120645371	-0.252658
H	 0.9880956587	 1.7302914696	-0.0760954433	 0.254791
H	-0.5717032761	 1.8999941288	 0.4485687603	 0.246091
H	-3.1631694193	-1.4389303007	 0.2064563081	 0.114561
H	-2.8770744023	 0.230219593	 0.6560023812	 0.123233
H	-2.4819286965	 0.8191485597	-1.7424089411	 0.113826
H	-2.8293157106	-0.8599679334	-2.197742364	 0.093117
H	-4.7395154618	 0.517347667	-2.2257802958	 0.29031
H	-1.0287984075	-2.9399487711	 0.1260147902	 0.275996
42.4624	96.7723	111.1343	208.7409	249.7349	255.7725	293.6998	340.0472	387.2311	448.4855	559.6482	688.7303	706.9682	730.0208	779.8869	799.5759	815.6266	1003.9774	1007.8776	1049.5982	1080.291	1105.5805	1121.8556	1203.3195	1235.7574	1244.5757	1273.6919	1308.5548	1331.1067	1366.606	1394.1796	1456.9909	1487.826	1529.1343	1530.0594	1639.3004	1648.676	2979.7945	3016.524	3032.9973	3077.6553	3525.0184	3616.212	3649.7048	3833.4795
NC1=C(CCO)NN=N1	Nc1c(CCO)[nH]nn1	
InChI=1S/C4H8N4O/c5-4-3(1-2-9)6-8-7-4/h9H,1-2H2,(H3,5,6,7,8)	InChI=1S/C4H8N4O/c5-4-3(1-2-9)6-8-7-4/h9H,1-2H2,(H3,5,6,7,8)
