21
gdb 75005	4.02917	1.17397	0.97213	0.5076	91.72	-0.2213	0.0271	0.2484	1276.9233	0.184487	-349.986468	-349.978467	-349.977523	-350.01871	31.992	
C	-0.0888857859	 1.5106853573	 0.0909470118	-0.487437
C	 0.0228454896	 0.0223173174	-0.0058502166	 0.325875
C	-0.0345425615	-0.726807917	-1.1152756036	-0.201367
C	 0.0429576661	-2.2041757257	-0.8058703029	-0.079834
C	 1.0636505872	-3.1562161929	-1.471082621	-0.23124
C	 1.5051189644	-4.0835604468	-0.3013463243	-0.24168
C	 1.3273852909	-3.1906970959	 0.9163737948	-0.226832
C	 0.5200086303	-2.1721066042	 0.637209851	 0.35422
C	 0.185168955	-0.840373972	 1.2479580371	-0.429069
H	 0.8026175183	 1.9469126912	 0.559898822	 0.123903
H	-0.2149751787	 1.9706707591	-0.893124732	 0.122216
H	-0.9422594805	 1.8052913853	 0.7158567404	 0.123117
H	-0.185137095	-0.3281403861	-2.1136476077	 0.082697
H	-0.9644987062	-2.6497340722	-0.884526701	 0.076458
H	 0.6601606003	-3.7055815078	-2.3265402481	 0.087485
H	 1.9286502528	-2.5798443165	-1.8178192094	 0.099916
H	 0.8735544501	-4.9825159998	-0.2430263729	 0.100343
H	 2.5353122874	-4.4388143698	-0.415010661	 0.097909
H	 1.83915463	-3.3649769045	 1.8566190391	 0.083915
H	 0.9608740459	-0.469060733	 1.9287411216	 0.109318
H	-0.7530175004	-0.8509209862	 1.8254640526	 0.110086
110.5029	163.3193	199.692	257.9765	275.7206	360.2441	407.8128	461.5532	529.3909	587.4928	681.4929	706.7729	811.7103	819.8097	853.831	856.0544	879.5459	915.0373	961.0183	966.74	986.9829	1008.196	1051.9895	1063.9379	1078.4662	1142.1975	1158.4685	1165.4198	1189.1432	1218.1216	1249.6446	1276.8853	1285.0612	1306.9243	1316.4947	1346.4462	1351.4317	1412.6825	1472.6676	1478.4002	1484.6647	1487.9836	1498.8461	1697.9351	1742.5355	2937.9449	2980.8285	2997.375	3013.6534	3040.5917	3045.41	3058.1138	3059.5972	3094.2228	3107.9455	3179.0529	3188.6069
CC1=CC2CCC=C2C1	CC1=C[C@H]2CCC=C2C1	
InChI=1S/C9H12/c1-7-5-8-3-2-4-9(8)6-7/h3,6,9H,2,4-5H2,1H3	InChI=1S/C9H12/c1-7-5-8-3-2-4-9(8)6-7/h3,6,9H,2,4-5H2,1H3/t9-/m1/s1
