18
gdb 26174	2.67964	1.32356	1.07614	2.2725	74.71	-0.1948	0.0353	0.2301	1180.6367	0.147117	-439.091826	-439.082957	-439.082013	-439.125504	33.032	
C	 0.0786237329	 1.4223821451	-0.0870221828	-0.323887
N	-0.0148758882	-0.0294079187	 0.0614525604	-0.187132
C	 0.8369370158	-0.5225993587	 1.1429571225	-0.323888
C	-1.3480119713	-0.5167822062	 0.1126861941	 0.077454
C	-1.8626264902	-1.328468978	-0.8535449963	 0.390697
O	-1.3201465584	-1.8240080287	-1.9715434666	-0.416659
O	-3.1342683442	-1.667160039	-0.6052777893	-0.165438
C	-3.4739697901	-1.0484549481	 0.582250497	-0.026121
C	-2.4261883843	-0.3374126213	 1.0612151215	-0.257671
H	 1.118230742	 1.7034828967	-0.2875110895	 0.115554
H	-0.5379601013	 1.7446444712	-0.9293904394	 0.126073
H	-0.2524992331	 1.9707939407	 0.8122531087	 0.100753
H	 0.5604980854	-0.1144226542	 2.1309179908	 0.100753
H	 0.7707156376	-1.6119548604	 1.193281115	 0.126072
H	 1.877830648	-0.244804473	 0.9445491916	 0.115553
H	-0.4149680337	-1.4769553866	-1.9807150326	 0.304265
H	-4.4802631366	-1.2285818639	 0.9175023683	 0.134151
H	-2.4144124303	 0.2424967731	 1.9711395665	 0.109468
58.6669	147.7834	149.8731	234.2614	241.4624	280.0169	302.9995	378.3445	459.6544	504.765	528.6797	601.9557	636.7177	663.6055	740.3859	742.2409	821.5676	898.2403	949.6338	1047.241	1054.1668	1087.1269	1119.1801	1160.556	1182.4038	1215.6171	1228.2927	1238.0078	1316.5042	1384.0762	1439.504	1468.7054	1480.1593	1496.747	1498.4367	1502.4551	1517.5457	1561.2352	1684.6983	2952.7205	2958.1184	3059.5271	3062.0549	3116.7868	3119.4256	3252.2011	3296.9123	3735.8449
CN(C)C1=C(O)OC=C1	CN(C)c1c(O)occ1	
InChI=1S/C6H9NO2/c1-7(2)5-3-4-9-6(5)8/h3-4,8H,1-2H3	InChI=1S/C6H9NO2/c1-7(2)5-3-4-9-6(5)8/h3-4,8H,1-2H3
