21
gdb 61054	2.99168	1.06295	0.86267	2.2985	79.67	-0.2659	-0.035	0.2308	1377.0479	0.180978	-424.226374	-424.216796	-424.215851	-424.261099	35.492	
C	-0.1601732413	 1.5242744293	-0.1182965799	-0.403819
C	 0.0093114339	 0.0086864471	-0.0709665776	 0.00723
C	 1.2240180303	-0.5221473861	-0.8933037552	-0.224507
C	 2.039311932	-0.6427389521	 0.421970436	-0.252381
C	 0.7035839564	-0.5631240154	 1.2116763439	 0.019409
C	 0.6357095859	 0.2492708512	 2.5102434735	 0.023728
O	-0.6926227731	 0.4077414148	 2.9353318748	-0.437672
C	 1.4563076877	-0.4158649743	 3.593534947	 0.134732
O	 0.9682035771	-0.7498397459	 4.647622387	-0.266862
H	 0.787300757	 2.0489595966	 0.0519931835	 0.107398
H	-0.5268716522	 1.8327932441	-1.1030840182	 0.111097
H	-0.8759398469	 1.8645121831	 0.6357818023	 0.140868
H	-0.9480897858	-0.4668039204	-0.2985593176	 0.075833
H	 1.0271278537	-1.4982457458	-1.3443092298	 0.102545
H	 1.6195246606	 0.1431904632	-1.6653913303	 0.097057
H	 2.6535181213	-1.5358428529	 0.5588005007	 0.100847
H	 2.6709276045	 0.2351703916	 0.5936016894	 0.100644
H	 0.3152983391	-1.5661978779	 1.4183868396	 0.080593
H	 1.1011412064	 1.2359415168	 2.3303166757	 0.088374
H	-0.7225585843	 0.0510313263	 3.8374908837	 0.293391
H	 2.5281565978	-0.5874578135	 3.3691492914	 0.101494
69.3315	90.761	112.3615	166.3741	232.3449	263.9344	308.2633	334.0632	371.8467	395.6203	445.2413	509.5112	667.685	750.2825	783.1774	800.3878	874.858	884.9527	910.402	956.8411	968.2023	1005.4684	1025.3468	1054.9869	1108.1055	1156.0228	1159.1945	1171.9686	1220.1054	1240.9098	1260.3777	1269.4129	1282.4058	1288.3908	1306.3627	1364.0231	1375.5818	1394.3198	1409.5439	1436.8106	1480.7111	1497.8536	1498.5785	1504.7742	1806.8113	2930.6103	2947.0216	3027.5483	3044.6719	3049.9848	3056.0779	3067.9024	3091.8032	3097.0609	3110.9557	3115.0058	3686.8318
CC1CCC1C(O)C=O	C[C@H]1CC[C@H]1[C@@H](O)C=O	
InChI=1S/C7H12O2/c1-5-2-3-6(5)7(9)4-8/h4-7,9H,2-3H2,1H3	InChI=1S/C7H12O2/c1-5-2-3-6(5)7(9)4-8/h4-7,9H,2-3H2,1H3/t5-,6+,7-/m0/s1
