19
gdb 12224	3.51847	1.36764	1.10407	3.005	73.68	-0.2266	-0.0263	0.2003	1118.0802	0.163393	-365.053548	-365.044641	-365.043697	-365.087294	31.867	
C	-0.0280359187	 1.525947657	-0.1457467478	-0.403312
C	 0.021954907	 0.009232392	-0.1011957166	 0.090421
C	 0.8596581062	-0.7603074257	-1.1536816213	-0.281467
C	 1.3483239951	-1.6374410668	 0.0391838932	-0.036359
C	 2.8328015188	-1.9168261289	 0.0931305125	 0.154209
O	 3.3405011582	-2.9840147597	-0.1366946691	-0.247783
N	 0.8816237358	-0.5806287421	 0.9496409302	-0.089093
C	 0.2928461123	-0.9613266947	 2.215848855	-0.333713
H	 0.9828277457	 1.9417190236	-0.1948455221	 0.120379
H	-0.5926656025	 1.868428795	-1.0197774248	 0.117224
H	-0.5191206633	 1.930202799	 0.7461993307	 0.118947
H	-1.0029994193	-0.3998517867	-0.0594524821	 0.059447
H	 0.3309447946	-1.2789280188	-1.952363345	 0.119052
H	 1.6592811078	-0.1473478692	-1.5784365243	 0.112755
H	 0.7937924772	-2.5857885314	 0.1087285058	 0.075834
H	 3.4363606269	-1.0140566088	 0.3454142944	 0.075694
H	 1.0457759208	-1.4436746786	 2.8479899563	 0.126598
H	-0.0610297217	-0.0690463479	 2.7424822854	 0.124626
H	-0.559655951	-1.6573236874	 2.1062275096	 0.096542
65.7872	85.5386	195.1394	204.4151	210.5342	228.2477	295.4743	351.3477	391.8008	452.3823	503.6579	645.2301	779.5772	843.558	909.8847	912.6265	953.0717	1021.4879	1064.9361	1074.0861	1128.0381	1136.3348	1165.3273	1179.9208	1221.3706	1235.0105	1249.6824	1275.6551	1304.7617	1329.0937	1387.4257	1401.3028	1416.3071	1453.6803	1483.757	1485.8384	1491.3915	1496.8231	1499.1982	1831.2611	2869.4082	2934.379	2942.9881	2992.3584	3031.1013	3060.346	3071.4566	3097.4922	3101.5501	3112.5701	3146.5999
CC1CC(C=O)N1C	C[C@H]1C[C@@H](C=O)N1C	
InChI=1S/C6H11NO/c1-5-3-6(4-8)7(5)2/h4-6H,3H2,1-2H3	InChI=1S/C6H11NO/c1-5-3-6(4-8)7(5)2/h4-6H,3H2,1-2H3/t5-,6-/m0/s1
