21
gdb 60106	3.57304	1.00894	0.90134	2.2166	79.14	-0.2326	0.0696	0.3022	1377.5088	0.180026	-424.172858	-424.163433	-424.162489	-424.207781	35.328	
C	 0.0657209459	 1.546540997	-0.1154822348	-0.389183
C	-0.0348380277	 0.0263615395	 0.0120891302	 0.12793
C	-1.4752488878	-0.4671847855	-0.0347521043	-0.391127
O	 0.6472235631	-0.6464111011	-1.0635252032	-0.295501
C	 2.0124321701	-0.7130674026	-0.9488170288	 0.359281
C	 2.9816461164	 0.344412687	-1.4540134907	-0.349594
C	 3.0339400923	-1.0597954738	-1.9942577245	 0.00408
O	 3.7645114866	-1.9113885681	-1.1051245377	-0.286164
C	 2.7665871424	-1.713465743	-0.0662572219	-0.137365
H	 1.1025872819	 1.8862739145	-0.063638065	 0.127668
H	-0.3604640914	 1.8754458977	-1.0688168037	 0.121031
H	-0.4891451189	 2.0303636093	 0.6949308332	 0.11449
H	 0.4227521965	-0.2860090953	 0.963345928	 0.073822
H	-1.9370566244	-0.1940782878	-0.9889680954	 0.125399
H	-1.5119128076	-1.5551266043	 0.0633402465	 0.122257
H	-2.0623974348	-0.0213903259	 0.773481392	 0.114013
H	 2.5192509299	 1.0638533816	-2.1225469522	 0.119885
H	 3.7983698943	 0.7209925483	-0.8428846163	 0.11131
H	 2.9640951523	-1.3420960129	-3.0377131111	 0.113904
H	 3.2069856283	-1.3599719899	 0.8731004893	 0.102343
H	 2.1956562627	-2.6335909547	 0.1035053904	 0.111522
32.3532	82.0913	145.0283	214.7404	249.4418	268.7571	314.6224	353.585	394.8378	421.9692	449.6971	496.2477	691.026	737.2314	817.5299	884.1118	903.1569	926.93	928.5045	946.5241	966.709	985.7215	997.3379	1015.1312	1071.4771	1074.3318	1102.1393	1143.934	1150.5353	1163.5394	1198.0188	1224.9948	1285.8514	1301.4574	1366.4664	1375.6005	1398.2461	1410.0718	1415.2713	1478.3473	1480.4814	1486.8702	1493.9498	1510.8773	1513.6712	2984.1217	3023.9347	3038.7865	3043.8273	3077.8753	3107.1408	3108.5127	3116.7557	3124.0305	3127.1859	3189.7436	3211.154
CC(C)OC12CC1OC2	CC(C)O[C@]12C[C@H]1OC2	
InChI=1S/C7H12O2/c1-5(2)9-7-3-6(7)8-4-7/h5-6H,3-4H2,1-2H3	InChI=1S/C7H12O2/c1-5(2)9-7-3-6(7)8-4-7/h5-6H,3-4H2,1-2H3/t6-,7+/m1/s1
