19
gdb 97729	5.92856	0.62386	0.5725	2.1174	93.51	-0.2195	-0.0154	0.2041	1948.5106	0.15857	-385.876254	-385.866704	-385.865759	-385.912472	33.25	
C	-0.0956212229	 1.5217068952	 0.0804886825	-0.364837
C	 0.0160826523	-0.0103826824	-0.0236661203	-0.326214
C	 0.7145044842	-0.4553921795	-1.2232265373	 0.197817
C	 1.2978206469	-0.7880350363	-2.2276598638	-0.127487
C	 1.968593395	-1.2591231167	-3.3772604467	 0.206114
C	 2.5157729414	-0.5649717988	-4.3815820647	-0.231071
C	 3.1195793549	-1.5002208752	-5.3849174076	-0.103922
O	 2.8765857746	-2.8090998858	-4.8769939815	-0.266284
C	 2.1726866809	-2.7386539299	-3.6446969552	-0.168322
H	 0.895431234	 1.9828052784	 0.100564175	 0.130058
H	-0.6408994139	 1.9302697425	-0.7744653905	 0.130057
H	-0.6260847359	 1.8026765582	 0.9949825385	 0.116566
H	 0.5328674783	-0.4025230699	 0.8622385766	 0.132956
H	-0.9879301315	-0.4545023676	-0.0039357054	 0.132961
H	 2.5334684541	 0.5121812221	-4.4791297577	 0.105716
H	 2.6652289875	-1.3950956069	-6.3837711719	 0.107536
H	 4.2033508099	-1.341035763	-5.5085564833	 0.107543
H	 2.7552109197	-3.2197132906	-2.8445893669	 0.11041
H	 1.2141935005	-3.2737186538	-3.72171348	 0.110403
29.8978	71.3757	87.5386	101.9726	176.3176	210.7715	289.7287	398.3371	408.1007	475.7061	536.6561	563.0168	767.4442	784.9004	832.4716	837.2785	919.6266	933.8071	977.6792	1019.2398	1023.5315	1062.2485	1083.8939	1101.8842	1120.2002	1170.1043	1221.6155	1258.8724	1279.9698	1284.9415	1350.4638	1360.0695	1391.0096	1410.9148	1471.8947	1495.3205	1505.2721	1515.0853	1529.0313	1690.6684	2343.3281	2964.751	2977.8635	2984.7727	3006.2619	3016.466	3042.5429	3045.9132	3119.7252	3125.3404	3228.4601
CCC#CC1=CCOC1	CCC#CC1=CCOC1	
InChI=1S/C8H10O/c1-2-3-4-8-5-6-9-7-8/h5H,2,6-7H2,1H3	InChI=1S/C8H10O/c1-2-3-4-8-5-6-9-7-8/h5H,2,6-7H2,1H3
