19
gdb 63361	2.91113	1.12705	1.03241	2.7368	83.23	-0.2346	-0.0238	0.2107	1263.0092	0.155774	-385.873088	-385.863279	-385.862334	-385.907776	36.268	
C	-0.98773158	 1.4512317528	 0.1979853652	-0.445958
C	-0.2103152965	 0.1504336177	 0.0078014353	 0.192562
C	-1.1186404265	-1.0785711101	 0.1592174247	-0.438307
C	 0.7393323579	 0.0656021971	-1.2349756143	-0.289512
C	 1.9393941911	-0.3776188207	-0.3259149171	-0.301932
C	 3.2294538017	 0.2504985614	-0.4808704355	 0.311222
C	 4.2898913511	 0.8045576476	-0.6003766441	-0.429514
C	 1.0489022711	 0.0275691107	 0.8906510282	 0.380323
O	 1.2779029129	 0.2541018907	 2.0392899143	-0.295359
H	-0.3388333917	 2.325420659	 0.0882787267	 0.123739
H	-1.7935448614	 1.530523396	-0.5399136446	 0.11863
H	-1.4340906665	 1.4885759123	 1.1964514968	 0.13457
H	-1.9111612337	-1.0550841122	-0.5965491127	 0.12345
H	-0.5655871014	-2.0155050669	 0.0352430198	 0.120039
H	-1.5876288981	-1.0928362645	 1.1477654995	 0.134411
H	 0.4548950623	-0.6473621698	-2.010201661	 0.110635
H	 0.9218568344	 1.0408041038	-1.689216947	 0.121136
H	 2.0400274333	-1.4704759636	-0.3274999187	 0.131716
H	 5.23034011	 1.2865256487	-0.7032588053	 0.198148
44.8151	121.7795	157.2045	192.0373	199.0979	236.4669	277.635	328.6364	346.797	389.6671	466.6482	533.6365	575.4293	613.8726	637.614	697.9283	765.2031	782.2353	902.5835	927.3931	938.0812	964.9385	999.4543	1019.5359	1083.2885	1088.3605	1166.7667	1202.1095	1217.8485	1247.5317	1293.1162	1315.5818	1397.1069	1417.4976	1481.0066	1482.9155	1489.8732	1501.7736	1505.5687	1894.056	2235.7529	3028.4807	3031.027	3033.1294	3081.0927	3097.5182	3101.9726	3108.2025	3112.094	3140.1656	3504.4757
CC1(C)CC(C#C)C1=O	CC1(C)C[C@@H](C#C)C1=O	
InChI=1S/C8H10O/c1-4-6-5-8(2,3)7(6)9/h1,6H,5H2,2-3H3	InChI=1S/C8H10O/c1-4-6-5-8(2,3)7(6)9/h1,6H,5H2,2-3H3/t6-/m1/s1
