16
gdb 8143	4.19736	1.8592	1.5091	1.7378	65.45	-0.215	0.0552	0.2701	861.9506	0.131497	-379.934591	-379.927382	-379.926438	-379.965498	28.282	
C	-0.0086424813	 1.4938801685	-0.0782697364	-0.472499
C	 0.0568856161	 0.0011500284	 0.0352778173	 0.398977
C	-0.8264650709	-0.8340001698	 0.924578657	-0.352169
C	 0.6822290382	-0.8580245985	 1.1185014549	-0.05748
N	 1.4068293822	-1.908465566	 0.4466412236	-0.343446
C	 1.1885729782	-1.7219011376	-0.8008816204	 0.443342
N	 1.5710400803	-2.5326921406	-1.8361676095	-0.578825
O	 0.4495308719	-0.6400886115	-1.1829480907	-0.276038
H	 0.9465780049	 1.9036277776	-0.4218418348	 0.126337
H	-0.7889239803	 1.804899455	-0.7815006128	 0.129343
H	-0.2406907635	 1.9323378476	 0.8961159538	 0.125433
H	-1.4111874259	-0.2901180774	 1.6593268596	 0.112558
H	-1.3021311144	-1.7191919029	 0.5150212704	 0.121563
H	 1.1176802582	-0.4667105689	 2.0310949991	 0.093656
H	 2.3104254105	-3.1735186236	-1.5910183492	 0.267884
H	 1.7012375856	-2.0615515303	-2.7190138219	 0.261364
169.9668	184.6427	237.7671	295.3173	362.964	414.3618	448.5118	481.4351	577.3012	613.0873	700.9806	744.775	773.4333	828.3794	876.6386	931.1381	957.4736	985.5899	1031.5047	1043.0455	1069.2729	1103.507	1127.2092	1195.4515	1232.5223	1277.3019	1376.0657	1415.2389	1430.8932	1471.9397	1478.2139	1499.8894	1614.5443	1732.2913	3034.3577	3097.8996	3118.0145	3125.8586	3169.954	3219.2792	3579.8354	3692.7036
CC12CC1N=C(N)O2	C[C@]12C[C@H]1N=C(N)O2	
InChI=1S/C5H8N2O/c1-5-2-3(5)7-4(6)8-5/h3H,2H2,1H3,(H2,6,7)	InChI=1S/C5H8N2O/c1-5-2-3(5)7-4(6)8-5/h3H,2H2,1H3,(H2,6,7)/t3-,5+/m1/s1
