21
gdb 84680	2.17017	1.78572	1.37974	1.5789	82.55	-0.2402	0.0112	0.2514	1056.8996	0.183143	-387.092606	-387.084104	-387.08316	-387.125258	33.841	
C	-0.3428901611	 1.3587292751	 0.0651326944	-0.489114
C	 0.0754094672	-0.1009034028	-0.0162297528	 0.342912
C	-1.0725514333	-1.105626707	 0.3395943437	-0.266645
C	-0.3907775656	-1.4095644238	 1.7015525274	-0.224326
C	 0.8877443595	-0.6841043654	 1.192107467	-0.095791
C	 1.9074555948	-1.5683689152	 0.5245345885	-0.084105
C	 1.906694393	-1.4454759886	-0.8030139244	-0.127139
C	 0.8894943201	-0.4381105947	-1.2964357792	 0.027278
O	 0.1167352635	-0.8722948687	-2.4085651935	-0.43217
H	 0.5296605234	 2.0218860015	 0.042284134	 0.112878
H	-0.9855723366	 1.6202154346	-0.7834611635	 0.125577
H	-0.8995014653	 1.5717679794	 0.9845808141	 0.108498
H	-2.0764478022	-0.6765786255	 0.3797312169	 0.101951
H	-1.1101939182	-1.9814960051	-0.3135617032	 0.079213
H	-0.8619850935	-0.8829549516	 2.5355267465	 0.101199
H	-0.2821648558	-2.4626257431	 1.9741929973	 0.094874
H	 1.3436004449	 0.0266692058	 1.8901096813	 0.069762
H	 2.5607137687	-2.2269189173	 1.0894006758	 0.094922
H	 2.5566223292	-1.9749172428	-1.4920006561	 0.097156
H	 1.3895301511	 0.4657258414	-1.6713575225	 0.085576
H	-0.2699076338	-1.7247226663	-2.1815511118	 0.277494
79.8323	182.8273	237.0364	260.6763	273.8036	294.8991	306.1126	366.0945	478.7042	535.8829	584.0265	661.3518	720.3012	761.3022	800.6543	841.7658	854.98	905.6249	931.0205	951.8995	982.203	995.5887	1023.1801	1026.6609	1067.6825	1099.0153	1122.9999	1157.5001	1182.4693	1204.5898	1223.7914	1247.8408	1259.6871	1265.5922	1280.1176	1300.7678	1351.9525	1366.2917	1406.977	1427.3048	1473.2076	1490.4703	1494.8913	1496.0362	1675.9826	3008.3924	3019.4027	3040.895	3053.8369	3059.9853	3086.4732	3088.9135	3097.616	3114.6786	3168.1841	3197.2685	3803.3977
CC12CCC1C=CC2O	C[C@]12CC[C@H]1C=C[C@H]2O	
InChI=1S/C8H12O/c1-8-5-4-6(8)2-3-7(8)9/h2-3,6-7,9H,4-5H2,1H3	InChI=1S/C8H12O/c1-8-5-4-6(8)2-3-7(8)9/h2-3,6-7,9H,4-5H2,1H3/t6-,7-,8+/m1/s1
