18
gdb 122761	5.27836	0.56995	0.52105	4.6837	75.83	-0.3139	-0.0669	0.2469	2060.6758	0.145623	-439.126227	-439.116075	-439.115131	-439.163024	34.251	
C	-0.1217151579	 1.5604027398	 0.0122355374	-0.382871
C	-0.0542712052	 0.0310187434	 0.0025926608	-0.17133
C	-1.4427609772	-0.620059813	 0.0124616866	-0.190863
C	-1.3570299841	-2.1352654002	 0.0027177119	-0.077074
O	-2.7143394794	-2.6532018193	 0.0129521674	-0.226937
C	-2.8263531284	-3.9774339704	 0.0071470027	 0.360536
O	-1.9348012805	-4.7816750276	-0.0056426913	-0.330678
C	-4.245657854	-4.3610014342	 0.0187859873	 0.253233
N	-5.3432430132	-4.7196035836	 0.0279785652	-0.305329
H	 0.8798186283	 2.0001478428	 0.0049153268	 0.119454
H	-0.6592899698	 1.9380228083	-0.8641517179	 0.120385
H	-0.6418165595	 1.9276534462	 0.9034479103	 0.120386
H	 0.500706702	-0.3068347885	-0.8822183303	 0.104454
H	 0.5180144466	-0.3171376478	 0.8722543517	 0.104457
H	-2.001872038	-0.2993104193	 0.8995041658	 0.115843
H	-2.0192213799	-0.2889674798	-0.8595471869	 0.115846
H	-0.8495551689	-2.5169091124	-0.8888192708	 0.135232
H	-0.8322327109	-2.5273254043	 0.8795792932	 0.135255
39.9111	66.1757	81.1669	122.7735	163.1569	178.998	247.3433	249.1423	341.5922	350.74	421.5814	557.3339	615.0894	745.0762	775.7894	807.5995	886.0703	936.9544	948.9684	981.3805	1043.4411	1072.347	1144.6464	1189.588	1252.6601	1269.3091	1297.5686	1310.8274	1328.6288	1387.433	1415.7122	1422.9796	1488.8025	1494.6677	1500.8679	1506.2127	1517.9716	1818.1735	2361.2261	3018.101	3033.1195	3037.0328	3045.6801	3054.5253	3073.7793	3101.4009	3107.8408	3109.9117
CCCCOC(=O)C#N	CCCCOC(=O)C#N	
InChI=1S/C6H9NO2/c1-2-3-4-9-6(8)5-7/h2-4H2,1H3	InChI=1S/C6H9NO2/c1-2-3-4-9-6(8)5-7/h2-4H2,1H3
