20
gdb 114141	4.78136	0.92659	0.87351	1.6622	87.78	-0.2307	0.0221	0.2528	1397.6654	0.169648	-365.938905	-365.929785	-365.928841	-365.97267	34.873	
C	-0.1277172449	 1.6479250262	-0.1979915001	-0.377289
C	 0.0244246778	 0.1275468001	-0.0830551665	-0.203147
C	-1.3045289659	-0.5756079262	 0.1493717676	 0.093042
C	-1.3500070948	-2.0953751703	 0.4624505872	-0.350045
C	-2.1117951224	-1.7257011055	 1.7422909083	 0.180003
C	-1.3066369576	-0.776532811	 2.5474207599	-0.273567
N	-2.0610688012	-0.2192843362	 1.4164612825	-0.176161
C	-3.2741742217	-2.3932393089	 2.2250967325	 0.193478
C	-4.2412641278	-2.9934436939	 2.6157264946	-0.395673
H	 0.8411136067	 2.132345309	-0.3514629089	 0.111347
H	-0.7745651051	 1.9162807096	-1.0402458587	 0.117458
H	-0.577826873	 2.0638872641	 0.7082059783	 0.135995
H	 0.4628452342	-0.279011496	-1.0040282285	 0.101132
H	 0.7332527084	-0.1170637011	 0.7173360254	 0.095492
H	-1.9802615562	-0.3380724669	-0.677935786	 0.088917
H	-1.9478075627	-2.6655542693	-0.2490199637	 0.121058
H	-0.3969650182	-2.6094863893	 0.620477813	 0.103972
H	-1.714537138	-0.4726565139	 3.5058849779	 0.131413
H	-0.221242823	-0.8381511588	 2.514155866	 0.113415
H	-5.0990326846	-3.5124432015	 2.9652924293	 0.189161
78.2957	100.472	139.31	204.9181	227.2822	268.7374	360.2663	399.1256	471.8588	527.2662	553.5022	586.9614	603.1611	655.5342	690.4428	766.6151	792.2575	823.4525	877.5905	943.1372	962.0689	988.3044	997.8579	1071.3516	1105.2435	1120.2993	1121.8626	1136.8503	1202.2697	1229.1106	1256.611	1280.2568	1309.4212	1337.076	1353.2993	1406.3506	1413.4197	1480.2772	1488.6748	1498.3984	1502.7211	1509.8131	2233.0625	3023.0244	3037.3176	3045.3628	3055.4699	3063.5193	3104.4607	3109.4227	3115.2679	3130.6057	3204.3595	3503.1058
CCC1CC2(CN12)C#C	CC[C@H]1C[C@]2(CN12)C#C	
InChI=1S/C8H11N/c1-3-7-5-8(4-2)6-9(7)8/h2,7H,3,5-6H2,1H3	InChI=1S/C8H11N/c1-3-7-5-8(4-2)6-9(7)8/h2,7H,3,5-6H2,1H3/t7-,8-,9?/m0/s1
