15
gdb 75673	2.87975	1.29034	1.13051	1.5943	74.6	-0.2394	-0.0303	0.2091	1099.4589	0.110187	-420.575055	-420.566597	-420.565653	-420.608125	31.618	
O	-0.1026479638	 1.492213066	-0.06478534	-0.429302
C	-0.0263528524	 0.0914801354	 0.0050092949	-0.083607
C	 0.2258365324	-0.5948246209	 1.382848708	 0.404841
O	 1.189936121	-0.6388241041	 2.0944120639	-0.322562
C	-1.1004162005	-1.2823888816	 1.3657060901	-0.243462
C	-2.1813689641	-0.2356852726	 1.158495741	-0.317964
C	-1.3837225347	-0.6297430099	-0.0440771384	 0.208435
C	-1.9310593586	-1.2591649213	-1.1952444548	 0.138765
C	-2.3792532199	-1.7844852191	-2.1804252417	-0.371663
H	 0.7535654077	 1.8460285207	 0.2012118806	 0.299704
H	 0.6695453715	-0.3284830641	-0.7367876959	 0.105261
H	-1.3338286003	-2.281846064	 1.7098431318	 0.129753
H	-3.1905276227	-0.6297810969	 1.1974336579	 0.143246
H	-2.0624568576	 0.7627384549	 1.5641116626	 0.145758
H	-2.7778998481	-2.2465626226	-3.0493897701	 0.192799
80.1953	135.3359	178.9788	198.8567	263.4715	288.038	413.8135	476.9836	498.0619	527.5089	585.7366	599.4669	653.6255	675.803	733.1961	769.1969	835.076	930.5282	972.8179	976.6166	1050.1964	1096.6367	1104.842	1135.4333	1153.045	1223.7472	1241.2421	1292.5364	1353.3705	1417.8646	1491.628	1883.2354	2238.5367	3000.8004	3141.1335	3206.1735	3232.465	3502.3331	3808.0193
OC1C(=O)C2CC12C#C	O[C@H]1C(=O)[C@H]2C[C@@]12C#C	
InChI=1S/C7H6O2/c1-2-7-3-4(7)5(8)6(7)9/h1,4,6,9H,3H2	InChI=1S/C7H6O2/c1-2-7-3-4(7)5(8)6(7)9/h1,4,6,9H,3H2/t4-,6+,7-/m1/s1
