14
gdb 26909	3.21902	1.43052	0.99561	4.2777	70.39	-0.2132	-0.0494	0.1638	1094.012	0.10321	-470.066431	-470.058958	-470.058014	-470.09829	28.626	
N	-0.2527184386	 1.4143399924	 0.0468162378	-0.606692
C	-0.0822794416	-0.005273621	 0.0122505271	 0.117755
C	-1.2369284241	-0.7526384374	 0.0292595968	 0.477402
O	-2.4587393894	-0.2187642432	 0.0751527887	-0.401414
N	-1.1570432706	-2.1021577182	-0.0013098689	-0.407395
C	 0.0649840766	-2.8128423716	-0.0503916929	 0.388016
O	 0.0787793142	-4.0286002088	-0.0761784043	-0.385521
C	 1.2125811518	-1.9091438881	-0.0632478441	-0.150595
N	 1.1273373031	-0.6079505533	-0.0338701789	-0.248137
H	 0.212722354	 1.8181006493	 0.8552735967	 0.251845
H	 0.1611625827	 1.8517680586	-0.7721352081	 0.251807
H	-2.2906092616	 0.7443793702	 0.091542493	 0.309148
H	-2.0056855569	-2.6538261765	 0.0110647881	 0.274632
H	 2.1929602306	-2.3742810122	-0.0999062709	 0.129148
122.8299	178.0136	261.691	297.8912	311.3094	363.7917	467.6282	496.8977	508.363	606.7908	671.5856	701.5717	731.3524	735.8272	779.8682	814.0596	888.0164	899.33	945.6801	1166.7278	1198.8176	1208.8923	1269.1744	1303.0162	1364.4459	1408.5904	1512.2812	1578.7084	1639.8382	1684.7127	1789.3389	3179.7339	3484.0031	3545.8699	3592.2514	3595.1018
NC1=C(O)NC(=O)C=N1	Nc1c(O)[nH]c(=O)cn1	
InChI=1S/C4H5N3O2/c5-3-4(9)7-2(8)1-6-3/h1H,(H2,5,6)(H2,7,8,9)	InChI=1S/C4H5N3O2/c5-3-4(9)7-2(8)1-6-3/h1H,(H2,5,6)(H2,7,8,9)
