20
gdb 14124	3.69094	1.55416	1.33366	1.944	74.17	-0.2281	0.0716	0.2997	1009.831	0.176047	-348.964882	-348.956526	-348.955581	-348.9976	31.759	
C	 0.1803290672	 1.585119773	-0.0753347882	-0.384305
C	 0.0233450617	 0.0559336147	-0.0117661488	-0.079651
C	 0.5063397572	-0.602247011	-1.3109636391	-0.400815
C	 0.6995083619	-0.496476239	 1.2209570969	 0.304933
C	 2.1631733437	-0.8886640892	 1.3474030773	-0.349788
C	 1.0919773373	-1.8856892372	 1.6738972502	 0.038706
O	 0.6076758342	-1.6888666515	 3.0038445965	-0.288424
C	 0.1390365431	-0.3624011427	 2.6403058098	-0.135813
H	 1.2357235719	 1.862229799	-0.1738493119	 0.118272
H	-0.3597607817	 1.9996626747	-0.9328495563	 0.110041
H	-0.2080520759	 2.0661689272	 0.8284718328	 0.113979
H	-1.0494302735	-0.1652497208	 0.0893020596	 0.074821
H	 1.5542524298	-0.3597363056	-1.5175911675	 0.118455
H	 0.4113563699	-1.6921849158	-1.2691170532	 0.114697
H	-0.0848120544	-0.2469520461	-2.1607025097	 0.11494
H	 2.6792723172	-1.0521345385	 0.4067115545	 0.113274
H	 2.7823581296	-0.4931745013	 2.1488295573	 0.110392
H	 0.9878276452	-2.8717450612	 1.2346386006	 0.102004
H	 0.5544173656	 0.4188410702	 3.2885250349	 0.102015
H	-0.9570851399	-0.3222333689	 2.6692477243	 0.102266
56.0117	161.341	199.8127	242.3211	259.0838	299.2962	327.2881	432.7732	439.924	474.5679	631.261	755.8256	847.6517	856.7182	910.1099	926.0434	930.2245	965.4313	985.2089	997.2258	1010.7072	1054.3679	1063.9767	1079.7035	1123.2762	1147.6433	1159.985	1178.4247	1220.2721	1273.3269	1310.8693	1348.0744	1374.6747	1397.7093	1403.3297	1422.0984	1477.8815	1486.9757	1493.1079	1504.7264	1512.1816	1515.3097	2992.4307	3012.6183	3027.8513	3033.0367	3061.2413	3097.0084	3098.4571	3101.957	3104.6597	3111.1461	3172.4238	3206.0649
CC(C)C12CC1OC2	CC(C)[C@]12C[C@H]1OC2	
InChI=1S/C7H12O/c1-5(2)7-3-6(7)8-4-7/h5-6H,3-4H2,1-2H3	InChI=1S/C7H12O/c1-5(2)7-3-6(7)8-4-7/h5-6H,3-4H2,1-2H3/t6-,7-/m1/s1
