17
gdb 16997	3.86404	2.26981	1.99352	1.7799	72.16	-0.2069	0.0065	0.2135	752.8666	0.144841	-326.676756	-326.670632	-326.669688	-326.706482	25.587	
C	-0.0398247688	 1.550072304	 0.1252587544	-0.261861
C	 1.5343313223	 1.6083591349	 0.1290043843	-0.268714
C	 1.5408421001	 0.0954618351	-0.1612986626	 0.222538
N	 0.8077298513	-0.5647627475	 0.9516546681	-0.390223
C	 0.0452362408	 0.0363405718	-0.1545082846	 0.239782
C	-0.4111706924	-0.8119781482	-1.3304048249	-0.363626
C	 0.9197595878	-1.2827734578	-1.9198728999	-0.070784
C	 1.9843217707	-0.7449114807	-1.3017166582	-0.180244
H	-0.5457060659	 1.829401225	 1.052535044	 0.106664
H	-0.4727700427	 2.1085812265	-0.7080060792	 0.101531
H	 1.9326919561	 2.2042034255	-0.6945465519	 0.104774
H	 2.0131651491	 1.9096301908	 1.0632789508	 0.107009
H	 0.8639868753	-1.5698194536	 0.7978637176	 0.22762
H	-1.0610662907	-1.6518372178	-1.0520909771	 0.113683
H	-0.9783703329	-0.2152096452	-2.0566488195	 0.116434
H	 0.9706098143	-2.0189388425	-2.7163220102	 0.096378
H	 3.0188352658	-0.9278325404	-1.5705420311	 0.09904
211.5183	247.6089	323.2671	431.1192	490.6816	541.5721	657.0466	686.9795	731.2208	757.9048	770.5344	817.5127	857.5368	911.1117	927.8185	940.3963	952.585	963.2806	1028.7063	1087.2835	1094.4738	1115.2059	1131.7003	1173.3284	1219.7832	1233.2875	1234.4592	1272.2198	1304.8084	1358.4914	1364.555	1382.4655	1463.764	1472.8504	1485.0101	1625.256	3019.3489	3046.6371	3060.2937	3069.9236	3112.7952	3132.1349	3174.1365	3200.484	3494.6192
C1CC23NC12CC=C3	C1C[C@@]23N[C@@]12CC=C3	
InChI=1S/C7H9N/c1-2-6-4-5-7(6,3-1)8-6/h1-2,8H,3-5H2	InChI=1S/C7H9N/c1-2-6-4-5-7(6,3-1)8-6/h1-2,8H,3-5H2/t6-,7+/m1/s1
