19
gdb 32531	2.56709	1.26543	0.85956	2.636	79.59	-0.1867	0.0442	0.2309	1354.8428	0.159752	-419.207119	-419.197688	-419.196744	-419.241872	34.435	
C	-0.0129850565	 1.431327092	 0.047475053	-0.325783
N	-0.1638382984	-0.0119447652	-0.0234034635	-0.390536
C	 0.5691219466	-0.6686947961	-1.0156284481	 0.174555
C	 1.2456154173	-0.1357267826	-2.0738975582	-0.08479
O	 1.7563264988	-1.1223236837	-2.8655151115	-0.165715
C	 1.4247089852	-2.3101569343	-2.2824525154	-0.084801
C	 0.6873317388	-2.1034414044	-1.1532277964	 0.174606
N	 0.0863556868	-3.0457275237	-0.3141799079	-0.390568
C	 0.470540283	-4.432489936	-0.514381269	-0.325776
H	 1.0338838226	 1.7612961253	 0.1542717674	 0.108339
H	-0.4136386406	 1.8825443589	-0.8670141969	 0.13483
H	-0.5907911944	 1.8150718201	 0.8915600271	 0.121141
H	-0.0728001413	-0.4477299601	 0.8845201865	 0.223436
H	 1.4241116038	 0.8736790896	-2.4005214177	 0.12166
H	 1.7590842744	-3.1971971349	-2.7911714918	 0.121659
H	 0.1193907958	-2.7800541927	 0.6609405131	 0.22344
H	 1.5586471374	-4.6022146632	-0.4557083235	 0.10834
H	-0.0238728518	-5.0570813256	 0.2333077225	 0.121145
H	 0.1340653526	-4.7622499033	-1.5035585797	 0.134819
51.7591	78.8192	152.3759	185.9499	228.6078	240.4676	279.9044	332.4267	403.0905	485.8718	569.3183	585.8364	619.5522	636.0428	669.3746	703.6001	730.6022	780.4877	894.9717	1053.1568	1074.749	1092.0219	1134.1948	1152.8249	1160.9582	1170.1658	1217.2522	1234.888	1267.2105	1345.1814	1384.7617	1455.7621	1461.4831	1473.36	1482.2884	1488.876	1510.3811	1521.6902	1530.9429	1612.8603	1681.8319	2965.0344	2965.9754	3061.5914	3061.8275	3118.0036	3118.1766	3286.7517	3292.106	3556.3287	3561.4954
CNC1=COC=C1NC	CNc1cocc1NC	
InChI=1S/C6H10N2O/c1-7-5-3-9-4-6(5)8-2/h3-4,7-8H,1-2H3	InChI=1S/C6H10N2O/c1-7-5-3-9-4-6(5)8-2/h3-4,7-8H,1-2H3
