19
gdb 35578	2.89164	1.44779	1.22024	2.9038	78.25	-0.2303	0.0237	0.2541	1073.953	0.162548	-382.075613	-382.067979	-382.067035	-382.108157	29.565	
N	-0.7154888235	-0.8311538637	-1.1334528919	-0.34042
C	-0.4765483506	 0.19075392	-0.6465740892	 0.285223
C	-0.1463942529	 1.4576924268	-0.0236483075	-0.169696
C	-0.0808803157	 1.4934832338	 1.5321845305	-0.190461
N	 1.2562798885	 2.1354146254	 1.4782725639	-0.086831
C	 2.3395863417	 1.3821931223	 2.1237838138	-0.172002
C	 2.6658717789	 0.2050877876	 1.1797588243	-0.224171
C	 2.4446747312	 0.819139053	-0.217869708	-0.23878
C	 1.3598037523	 1.8929774995	 0.002235608	 0.01304
H	-0.7890583038	 2.2385720838	-0.4351808476	 0.128579
H	-0.845797008	 2.1060696929	 2.0177233224	 0.117721
H	-0.0881242669	 0.4946412674	 1.983912588	 0.115576
H	 3.2109024666	 2.0398155836	 2.2314815575	 0.106212
H	 2.0359752745	 1.0717006432	 3.1279187752	 0.108951
H	 3.6779395688	-0.1838523013	 1.3162747949	 0.104359
H	 1.9726414038	-0.6264824375	 1.3455583597	 0.115771
H	 3.3598256036	 1.3055324697	-0.5704904984	 0.106932
H	 2.1554933251	 0.0805762426	-0.9696558632	 0.131418
H	 1.5530439866	 2.7957416111	-0.5828342224	 0.088579
57.017	140.7611	206.8542	234.1198	358.5374	378.0836	511.7685	565.9591	584.8	623.8013	728.5881	751.7496	826.3863	878.1605	881.1627	906.6863	933.998	979.1922	999.4113	1037.7133	1039.7679	1080.6154	1086.0664	1139.0129	1178.31	1187.6281	1207.6437	1224.4575	1264.7689	1281.3802	1305.9374	1318.4436	1330.892	1342.8275	1356.776	1366.6905	1484.5153	1492.348	1501.2438	1517.3449	2349.4467	3025.8279	3031.9508	3049.5222	3052.3541	3068.4911	3079.8074	3090.7695	3097.0373	3101.6485	3112.1844
N#CC1CN2CCCC12	N#C[C@H]1CN2CCC[C@@H]12	
InChI=1S/C7H10N2/c8-4-6-5-9-3-1-2-7(6)9/h6-7H,1-3,5H2	InChI=1S/C7H10N2/c8-4-6-5-9-3-1-2-7(6)9/h6-7H,1-3,5H2/t6-,7-/m0/s1
