17
gdb 47380	2.31097	1.48053	1.19003	2.8014	73.67	-0.237	-0.0267	0.2103	1095.3981	0.135237	-421.808258	-421.79993	-421.798986	-421.841498	31.317	
O	-0.0732460156	-0.0563777735	 0.2946336535	-0.29538
C	-0.0457414054	 1.1264948206	 0.0579306798	 0.382482
C	-1.325959862	 1.9622296931	 0.0020133557	-0.171402
O	-1.304619559	 2.9831042865	-0.978788473	-0.232915
C	-0.1770824319	 3.8256140893	-0.8853758599	-0.08066
C	 1.1296679763	 3.0489793222	-1.1512307085	-0.201791
C	 1.2502943453	 1.9075718872	-0.1083906842	-0.322082
C	 1.1748724356	 2.5321717829	-2.5163574226	 0.349102
C	 1.2157940076	 2.0955155759	-3.6350086467	-0.47086
H	-2.1694108012	 1.3069569977	-0.2219244677	 0.140947
H	-1.4814285858	 2.3928391983	 1.0096766622	 0.107919
H	-0.3171029649	 4.6108063206	-1.6314646619	 0.126111
H	-0.1182526073	 4.2952684333	 0.1118406612	 0.088629
H	 1.9692682874	 3.7420923727	-1.009006945	 0.111532
H	 1.4674061151	 2.3587462262	 0.8704979952	 0.126147
H	 2.0600994254	 1.2144125208	-0.3421814042	 0.138842
H	 1.2486811906	 1.7128686863	-4.6251582039	 0.203379
68.6387	97.3559	167.5084	227.6424	326.9893	374.166	393.691	453.4713	461.2895	554.5803	600.0061	636.5604	644.9597	725.923	768.8492	819.368	865.0888	950.2794	963.109	981.5122	1061.2066	1117.3595	1135.482	1182.6885	1222.8248	1254.469	1260.3804	1309.5165	1336.5442	1358.5502	1367.0635	1406.1234	1454.0288	1464.862	1494.6056	1827.8521	2238.8431	2932.601	2960.345	3014.5575	3025.5095	3107.3118	3121.5599	3123.0686	3503.7303
O=C1COCC(C1)C#C	O=C1COC[C@@H](C1)C#C	
InChI=1S/C7H8O2/c1-2-6-3-7(8)5-9-4-6/h1,6H,3-5H2	InChI=1S/C7H8O2/c1-2-6-3-7(8)5-9-4-6/h1,6H,3-5H2/t6-/m1/s1
