18
gdb 5901	3.16122	1.15743	1.05321	2.7734	77.97	-0.2411	-0.0237	0.2174	1231.1766	0.149431	-347.799571	-347.789333	-347.788389	-347.83629	34.754	
C	 0.0123802794	 1.4949101094	 0.0068617511	-0.497445
C	-0.0078701604	 0.039170604	-0.008112878	 0.001672
C	-0.0372452186	-1.1653036477	-0.0312874437	 0.105534
C	-0.0472402203	-2.6305690913	-0.0137960858	-0.007386
C	-1.4775935769	-3.1911871524	-0.0763420471	-0.402139
C	 0.8207672657	-3.1812187502	-1.1745832595	-0.41331
C	 0.6401652188	-3.050346175	 1.2976018157	 0.161097
O	 0.1615844696	-3.7832666495	 2.1199294595	-0.248085
H	 0.9029384248	 1.8867659627	-0.4965031112	 0.149846
H	-0.8655034201	 1.9075150661	-0.5022732805	 0.151966
H	 0.0123927392	 1.8813432482	 1.0319320683	 0.152305
H	-1.9541147725	-2.904085909	-1.0171216205	 0.11702
H	-1.4572064111	-4.2816033563	-0.0045994688	 0.125817
H	-2.0794586047	-2.8102216529	 0.7511207404	 0.133444
H	 1.8543691727	-2.8318197271	-1.0956095696	 0.126571
H	 0.8177054128	-4.2756800757	-1.1654090407	 0.125963
H	 0.4204021619	-2.8372131366	-2.1316748933	 0.133303
H	 1.6546751999	-2.6103393867	 1.4241027738	 0.083825
14.8032	60.9835	108.0457	123.9377	205.4471	243.1095	263.944	290.2057	298.8103	341.1743	342.4244	488.0645	527.3435	551.6874	715.0135	827.851	901.7292	953.896	1016.8248	1042.488	1051.786	1053.639	1077.0608	1167.2003	1227.3547	1268.6168	1392.4269	1403.8506	1414.1949	1424.9682	1477.1507	1477.8815	1478.2167	1482.6878	1494.9205	1504.2601	1835.2359	2361.1567	2883.8585	3028.0788	3037.9218	3052.288	3089.7695	3089.9872	3114.1073	3121.5181	3128.6595	3135.994
CC#CC(C)(C)C=O	CC#CC(C)(C)C=O	
InChI=1S/C7H10O/c1-4-5-7(2,3)6-8/h6H,1-3H3	InChI=1S/C7H10O/c1-4-5-7(2,3)6-8/h6H,1-3H3
