19
gdb 18297	3.0372	2.09916	1.82541	1.1726	70.86	-0.2181	0.0853	0.3034	840.2895	0.167714	-365.032477	-365.025241	-365.024297	-365.063531	28.368	
C	-0.2794359676	 1.4589377485	 0.258719304	-0.332939
N	 0.0112595621	 0.048337745	 0.0331242143	-0.094251
C	 0.5008683434	-0.434654082	-1.2598586465	-0.029526
C	 0.8500135781	 0.5046695379	-2.4121585553	-0.237586
C	 2.2900748019	 1.014096566	-2.3065959993	-0.071591
O	 2.5643697426	 1.5140854529	-1.0087549981	-0.236935
C	 2.5917957404	 0.4868665765	-0.0312940517	-0.11414
C	 1.3811894918	-0.4322136676	-0.0452601194	-0.038728
H	 0.439304973	 2.1606084233	-0.181295743	 0.128873
H	-1.2768069904	 1.6782892919	-0.1369836727	 0.117652
H	-0.3101793442	 1.6328792113	 1.3393925898	 0.119799
H	 0.0366679145	-1.3718809733	-1.5606404778	 0.088227
H	 0.723618334	-0.0268578381	-3.3611846846	 0.100769
H	 0.1597357667	 1.355685286	-2.4364996763	 0.112104
H	 2.9962174695	 0.2036788085	-2.5538261929	 0.088144
H	 2.4721418218	 1.842368263	-2.997537224	 0.106714
H	 3.4904655082	-0.1394707338	-0.1689031487	 0.093834
H	 2.6893885942	 0.9957059336	 0.9341807179	 0.113642
H	 1.5594667299	-1.3661421196	 0.4884744142	 0.085938
150.4036	186.1377	228.8158	262.432	336.1383	422.0922	439.588	497.3148	554.6229	719.5262	746.2841	772.3439	813.9541	880.251	934.4446	989.6161	1018.2802	1040.7426	1058.1064	1089.2063	1135.785	1146.8024	1164.6858	1171.3201	1191.8499	1250.8102	1271.5265	1317.8079	1337.9962	1357.6472	1366.4199	1379.6708	1417.7276	1424.0592	1461.6461	1480.0717	1487.3914	1494.168	1503.5431	1521.3015	2955.2745	2966.8284	3017.5537	3038.8998	3062.2369	3076.8984	3084.083	3085.9445	3093.9905	3096.9145	3116.6238
CN1C2CCOCC12	CN1[C@H]2CCOC[C@@H]12	
InChI=1S/C6H11NO/c1-7-5-2-3-8-4-6(5)7/h5-6H,2-4H2,1H3	InChI=1S/C6H11NO/c1-7-5-2-3-8-4-6(5)7/h5-6H,2-4H2,1H3/t5-,6+,7?/m0/s1
