19
gdb 60520	3.78575	0.98409	0.83363	3.6628	80.84	-0.2206	-0.0668	0.1539	1383.2639	0.158045	-419.185351	-419.175786	-419.174841	-419.220665	34.232	
C	-0.051783678	 1.4913823683	-0.0616663264	-0.35562
N	 0.1688699532	 0.0563334439	-0.0004064478	-0.088795
C	 0.1282512923	-0.593075787	 1.2870519357	 0.096053
C	 0.1529443936	 0.172799553	 2.5789949892	-0.317404
C	-1.0933176285	-0.5841039357	 2.1720280515	-0.268437
C	-0.0295911803	-0.7603590806	-1.0946524004	 0.258278
N	-0.3413792793	-1.9973309697	-0.972134671	-0.512562
C	 0.3071296942	-0.1896574646	-2.4614887852	 0.088467
O	 0.0148050512	-0.7640307338	-3.4789512343	-0.238912
H	-0.1227153016	 1.8268444261	-1.0955045418	 0.136569
H	-0.9927678727	 1.7814212615	 0.4267968136	 0.131856
H	 0.7666071249	 2.0358105241	 0.4198635019	 0.137578
H	 0.6728697404	-1.5288155017	 1.2557185701	 0.124324
H	 0.7713699172	-0.2221021602	 3.3773909882	 0.121115
H	 0.1053208573	 1.2551733796	 2.5606968867	 0.11507
H	-1.9463793529	 0.0054674173	 1.8537801318	 0.115405
H	-1.3523777293	-1.50258076	 2.6853588397	 0.125329
H	-0.3473905556	-2.4166286307	-1.9038086172	 0.234337
H	 0.8980402039	 0.7478719102	-2.4882531845	 0.097348
43.9719	78.5999	107.4822	133.7506	196.984	234.7138	314.3727	353.6888	393.3738	416.4496	507.5089	567.9907	652.8345	754.4894	797.8074	819.7943	871.0324	882.9626	920.8992	983.4635	1027.1319	1050.4926	1066.1765	1080.7933	1113.7147	1130.3036	1148.9671	1192.1778	1212.1551	1268.4366	1308.3586	1378.816	1425.0838	1460.4151	1463.9654	1474.7518	1487.0752	1506.6469	1528.9896	1663.1279	1816.8856	2924.0154	3005.3939	3072.003	3138.0706	3142.6105	3152.1882	3185.9212	3217.2497	3231.7432	3467.9564
CN(C1CC1)C(=N)C=O	CN(C1CC1)C(=N)C=O	
InChI=1S/C6H10N2O/c1-8(5-2-3-5)6(7)4-9/h4-5,7H,2-3H2,1H3	InChI=1S/C6H10N2O/c1-8(5-2-3-5)6(7)4-9/h4-5,7H,2-3H2,1H3
