23
gdb 71575	3.00402	1.44162	1.4365	0.0132	89.44	-0.2637	0.0949	0.3587	1091.4147	0.207079	-351.141492	-351.133428	-351.132483	-351.173192	33.877	
C	-0.035680108	 1.4981795806	 0.093623575	-0.50403
C	 0.0286078542	-0.0098321108	 0.0412615171	 0.341722
C	 0.8878029478	-0.7659390006	-1.0155614964	-0.278314
C	 0.8235066012	-1.9124730951	-0.0001500015	-0.065359
C	 0.7600641357	-0.8819695194	 1.1660830185	-0.065313
C	-0.2694242123	-1.7573882404	 1.8896013642	-0.278315
C	-0.6949022914	-2.1530059828	 0.4441921466	 0.341717
C	-1.4369183471	-3.4346896174	 0.1480652836	-0.504025
C	-1.2893617463	-0.8130186284	-0.0465046907	-0.284958
H	 0.9646393324	 1.9400382085	 0.1598134232	 0.110572
H	-0.5181746614	 1.9038019913	-0.8039864134	 0.113367
H	-0.6110889214	 1.8421775283	 0.9610018881	 0.112393
H	 0.4699840965	-0.8944218913	-2.0206043549	 0.082138
H	 1.9039913083	-0.3640090448	-1.0895398888	 0.089188
H	 1.487801609	-2.7769184931	-0.0020019758	 0.057146
H	 1.6448179802	-0.4524322347	 1.6364766649	 0.057147
H	 0.219856485	-2.5819061021	 2.4191614794	 0.089169
H	-1.023556485	-1.2997596629	 2.5400277183	 0.082147
H	-2.4375221475	-3.4239535726	 0.5971911732	 0.113367
H	-1.561691152	-3.5821960551	-0.9310320655	 0.112393
H	-0.9054360839	-4.3065366397	 0.5451332923	 0.110575
H	-2.0803307884	-0.4442195164	 0.6156028309	 0.08364
H	-1.6848281857	-0.8488461711	-1.0674527482	 0.083634
197.9949	211.5161	218.9487	222.7327	294.9276	338.2626	435.2211	442.6538	487.1616	543.1931	636.5499	651.1895	709.229	812.8491	840.4137	844.395	863.4543	893.5998	920.3915	957.7862	974.9306	981.1232	995.0571	1016.4492	1039.8306	1062.2569	1063.6227	1129.443	1143.2063	1183.0837	1184.2223	1196.1152	1214.2975	1232.152	1239.995	1253.8146	1255.659	1287.7901	1332.0049	1360.3869	1412.4263	1414.4962	1483.9227	1489.6713	1492.4674	1493.8042	1494.8565	1499.393	1518.0563	3018.4049	3018.4933	3026.4988	3027.6679	3036.2615	3074.7113	3080.5451	3080.8495	3082.1051	3085.1161	3088.5345	3089.1509	3105.865	3115.8595
CC12CC3C1CC3(C)C2	C[C@@]12C[C@H]3[C@@H]1C[C@@]3(C)C2	
InChI=1S/C9H14/c1-8-3-7-6(8)4-9(7,2)5-8/h6-7H,3-5H2,1-2H3	InChI=1S/C9H14/c1-8-3-7-6(8)4-9(7,2)5-8/h6-7H,3-5H2,1-2H3/t6-,7-,8-,9-/m0/s1
