13
gdb 133214	3.27633	1.41862	0.99601	0.753	64.5	-0.2746	-0.0672	0.2074	1079.5259	0.088349	-494.023067	-494.015559	-494.014614	-494.055451	27.424	
C	-0.0354502281	 1.489723325	 0.0288790185	-0.456774
C	-0.0097268784	-0.0062927254	 0.012921028	 0.363927
N	-0.0434763938	-0.564408813	-1.1421597224	-0.150612
O	-0.018496453	-1.9972363602	-1.1473346772	-0.238869
C	 0.0366106567	-2.6192348846	 0.0231906971	 0.433172
F	 0.0514066411	-3.910121357	-0.1815579905	-0.030452
N	 0.0725319853	-2.1476374252	 1.1971615397	-0.413703
C	 0.051662906	-0.7518691579	 1.2941881375	 0.287823
N	 0.0813387288	-0.0986019598	 2.3870059863	-0.503756
H	 0.854533316	 1.8652325745	 0.5414782233	 0.163006
H	-0.080759046	 1.8819240525	-0.987450234	 0.146824
H	-0.8968452474	 1.8344216469	 0.607683426	 0.163011
H	 0.1224079929	-0.7517131759	 3.1726319378	 0.236403
76.423	165.8592	188.8748	297.9793	335.41	374.7144	405.1505	482.1752	534.7672	576.1132	725.129	731.5656	775.3631	776.9133	898.6593	934.4547	989.0867	1048.3891	1060.2928	1161.8796	1232.4211	1352.3936	1405.1377	1421.3231	1459.8732	1463.3019	1664.5597	1705.9958	1731.9862	3057.7444	3121.7964	3159.8084	3464.969
CC1=NOC(F)=NC1=N	CC1=NOC(=N[C]1[NH])F	
InChI=1S/C4H4FN3O/c1-2-3(6)7-4(5)9-8-2/h6H,1H3	InChI=1S/C4H4FN3O/c1-2-3(6)7-4(5)9-8-2/h6H,1H3
