19
gdb 36707	4.46893	0.79985	0.76487	1.2897	83.43	-0.2407	0.0275	0.2682	1530.2012	0.157869	-385.851584	-385.842575	-385.84163	-385.886527	33.153	
C	-0.0401477433	-1.187693446	-0.1077331758	-0.419974
C	 0.0219860421	 0.0044634611	 0.0214543466	 0.285939
C	 0.0626457206	 1.4516856476	 0.1895579418	-0.216553
O	 1.3541702191	 1.9349687609	-0.1218550994	-0.258742
C	 1.4696789443	 3.3512183282	-0.0265267139	 0.147296
C	 1.6395814741	 3.8294029053	 1.4458904526	-0.274242
C	 3.1110482212	 4.1436375558	 1.5550726875	-0.055329
C	 3.7241825835	 4.1027914173	 0.374682995	-0.054874
C	 2.7808087072	 3.7498835953	-0.7465417269	-0.2789
H	-0.0878301177	-2.2420567785	-0.2245330535	 0.199398
H	-0.6904165683	 1.9228323446	-0.4663327236	 0.116442
H	-0.2231797959	 1.7041965088	 1.2239639354	 0.118385
H	 0.5894402422	 3.8100752179	-0.4992812316	 0.062478
H	 1.023489132	 4.7133712433	 1.6591037649	 0.103909
H	 1.3210698577	 3.0514327187	 2.1496872193	 0.111574
H	 3.5845536743	 4.3840790235	 2.5004631252	 0.091467
H	 4.77518002	 4.3087844053	 0.2059956129	 0.091823
H	 3.1277294727	 2.912389985	-1.360856661	 0.125219
H	 2.6252408244	 4.5990823059	-1.4246860955	 0.104684
40.3197	59.9698	124.6839	139.2876	270.0712	331.937	356.0883	372.1888	444.3218	537.7903	607.6364	672.9374	697.4772	740.6672	789.2538	855.5153	889.8499	944.3521	956.4561	977.2104	982.3618	984.5715	1031.5154	1054.3877	1073.5362	1115.694	1132.0263	1176.7405	1228.3249	1248.2826	1260.6848	1312.1581	1325.7932	1370.6926	1382.808	1429.3224	1467.0956	1474.7129	1502.7294	1692.7795	2248.0562	2950.4215	2975.6694	2990.5504	3018.4503	3026.6075	3057.8375	3074.7496	3183.8098	3209.3758	3506.8451
C#CCOC1CC=CC1	C#CCO[C@H]1CC=CC1	
InChI=1S/C8H10O/c1-2-7-9-8-5-3-4-6-8/h1,3-4,8H,5-7H2	InChI=1S/C8H10O/c1-2-7-9-8-5-3-4-6-8/h1,3-4,8H,5-7H2
