12
gdb 130543	3.68764	1.20485	0.90814	3.2839	69.04	-0.2804	-0.0829	0.1975	1155.5938	0.076773	-435.453474	-435.445996	-435.445052	-435.486162	26.697	
O	-0.0071121597	-0.0612402762	 0.0028734467	-0.301027
C	-0.0287051962	 1.1548076625	 0.0062803306	 0.178325
C	 1.1943670884	 1.9427553015	 0.0001161992	 0.25157
C	 2.207930471	 2.5917026858	-0.0050323738	-0.432924
C	-1.2823885478	 1.9161104463	 0.0168152927	 0.063229
C	-1.4916983342	 3.2662966145	 0.0218559213	-0.011133
O	-2.7917066312	 3.5386191789	 0.0313382228	-0.160053
N	-3.5144693411	 2.3313721137	 0.0330575159	-0.123034
C	-2.6112128921	 1.391064813	 0.0244205392	-0.031459
H	 3.1151370532	 3.1463701347	-0.0099335447	 0.220854
H	-0.8200294891	 4.110860664	 0.0195627103	 0.17882
H	-2.9108272111	 0.3534218414	 0.0236877799	 0.166833
72.7901	114.3506	176.5929	229.4214	281.1919	444.556	494.0687	602.7549	642.8319	662.0711	676.0599	699.885	783.0439	850.0107	884.2636	928.559	939.6243	970.1599	1065.8133	1167.996	1207.5558	1310.4197	1402.6423	1495.125	1620.8343	1737.4201	2215.5971	3262.1997	3270.0519	3491.5868
O=C(C#C)C1=CON=C1	O=C(C#C)c1conc1	
InChI=1S/C6H3NO2/c1-2-6(8)5-3-7-9-4-5/h1,3-4H	InChI=1S/C6H3NO2/c1-2-6(8)5-3-7-9-4-5/h1,3-4H
