18
gdb 99194	4.93097	0.55779	0.52472	4.7905	79.54	-0.2405	0.0246	0.2651	2087.1882	0.144286	-439.077211	-439.065875	-439.06493	-439.117813	36.821	
C	-0.1462936654	 1.3661569724	-0.2211779604	-0.496475
C	-0.0589181428	-0.069579496	 0.0030096849	 0.065461
C	 0.0241549254	-1.2579846175	 0.1763605837	 0.045249
C	 0.1140057737	-2.6953580453	 0.4129478223	-0.288613
N	-1.1984612243	-3.3271744012	 0.4862244643	-0.321908
C	-1.4812494807	-4.4797045425	-0.1893572952	 0.417208
O	-0.6534798377	-5.1066190107	-0.816973375	-0.353648
C	-2.9602139017	-4.8819068013	-0.1267303274	-0.183366
O	-3.0483775562	-6.2825572656	-0.2042099656	-0.389441
H	 0.621262631	 1.7027793023	-0.9265737087	 0.153603
H	-1.1209020641	 1.6430357497	-0.6379042087	 0.149712
H	-0.0112771187	 1.9270424491	 0.7100759012	 0.148873
H	 0.6484574144	-3.2049333005	-0.3954279698	 0.172395
H	 0.683146829	-2.886467875	 1.3336278475	 0.135585
H	-1.9241092481	-2.8476439373	 0.993205696	 0.24795
H	-3.4193181087	-4.4882855505	 0.7957770908	 0.087247
H	-3.4583318565	-4.3853518893	-0.9755028211	 0.116843
H	-3.9556179487	-6.5136027307	-0.4214918288	 0.293324
16.1523	16.7919	42.7759	57.8766	149.6876	172.0233	190.5299	221.4182	296.0827	310.1719	374.2445	398.0859	421.5665	550.7034	593.0675	712.7829	774.4855	913.9701	1007.6646	1023.7189	1051.5168	1055.2718	1071.1722	1133.3392	1172.4498	1213.2334	1226.321	1257.1656	1290.7555	1376.7085	1414.9915	1454.1887	1477.0723	1479.0134	1492.0987	1497.9406	1529.0261	1800.0213	2375.5606	2955.4121	2988.3493	3003.9915	3028.1496	3080.0999	3089.2285	3090.2492	3646.1641	3841.1204
CC#CCNC(=O)CO	CC#CCNC(=O)CO	
InChI=1S/C6H9NO2/c1-2-3-4-7-6(9)5-8/h8H,4-5H2,1H3,(H,7,9)	InChI=1S/C6H9NO2/c1-2-3-4-7-6(9)5-8/h8H,4-5H2,1H3,(H,7,9)
