14
gdb 50069	2.67615	1.39206	1.18931	3.2537	65.31	-0.2552	-0.0871	0.1681	1050.3634	0.098006	-473.821663	-473.813018	-473.812074	-473.855808	29.446	
O	 0.1696513022	 0.3612071721	 1.0835617311	-0.251366
C	 0.3941692201	 0.9589781727	 0.0618621067	 0.155952
C	 1.5308294226	 1.9288804495	-0.0869657727	-0.120368
C	 1.8466699879	 2.7655791532	 1.1466847018	-0.223199
N	 2.715482353	 1.7177970932	 0.7140824114	-0.073584
C	 3.0817200719	 0.5514911203	 1.3538141939	 0.317027
O	 3.1017458429	-0.542527674	 0.8393743669	-0.327105
C	 3.6065685151	 0.7338226394	 2.7829234521	 0.099815
O	 3.5691470362	 1.7637732915	 3.4001168833	-0.229691
H	-0.2485007118	 0.8465653481	-0.8353702098	 0.103727
H	 1.6895904365	 2.3487447891	-1.0762669866	 0.121773
H	 2.2135530239	 3.778884615	 1.0142580051	 0.143609
H	 1.2231292889	 2.5840548417	 2.0166765433	 0.163018
H	 4.0083111707	-0.2154054019	 3.1909318737	 0.120392
61.258	113.3646	119.6867	148.0692	184.4526	266.6036	304.9678	354.7276	486.9419	586.5176	647.5757	666.5935	769.2709	844.9184	925.5191	972.5777	1021.1413	1025.3151	1052.9599	1101.3951	1131.9191	1155.9852	1197.6807	1347.4528	1370.7652	1415.4797	1442.3704	1497.6575	1782.9343	1821.3597	1829.2205	2924.723	2947.4954	3121.4651	3157.4671	3221.9185
O=CC1CN1C(=O)C=O	O=C[C@H]1CN1C(=O)C=O	
InChI=1S/C5H5NO3/c7-2-4-1-6(4)5(9)3-8/h2-4H,1H2	InChI=1S/C5H5NO3/c7-2-4-1-6(4)5(9)3-8/h2-4H,1H2/t4-,6?/m1/s1
