18
gdb 38668	3.02103	1.81503	1.32453	2.1403	76.48	-0.2414	0.0286	0.27	968.0019	0.150678	-401.931084	-401.924203	-401.923258	-401.962231	27.802	
C	 0.0390044842	 1.4787643414	 0.0980230761	-0.35789
C	 1.3494643803	 0.7488264636	-0.0594971933	-0.093855
C	 1.7489996679	 0.0631277185	 1.2523842402	-0.233465
C	 0.401240184	-0.7409166663	 1.21678256	-0.035826
N	 0.6234081909	-2.1608141486	 1.0228921202	-0.271924
C	 0.3628692354	-2.6687431778	-0.1079910046	 0.128657
O	-0.162664638	-2.1189803953	-1.2309546923	-0.225867
C	-0.6887014581	-0.781155906	-1.130070104	-0.193262
C	 0.0174779117	-0.005999736	-0.0730280494	 0.326553
H	-0.2385516843	 1.9242869709	 1.0516486895	 0.108852
H	-0.2741971454	 2.0572220205	-0.7671391079	 0.112444
H	 2.0126229723	 0.9642985403	-0.8891944818	 0.089076
H	 2.5991065787	-0.6141166854	 1.1582510082	 0.117576
H	 1.9039530201	 0.7223295836	 2.1123496419	 0.097194
H	-0.258263966	-0.5989243904	 2.080930249	 0.074431
H	 0.5698203538	-3.7216635312	-0.2938602858	 0.122109
H	-0.5868440318	-0.3373001884	-2.1249521115	 0.118815
H	-1.7601871057	-0.8666007536	-0.9013229145	 0.116383
140.5384	153.0147	299.7708	347.6524	399.8194	471.8131	501.5569	549.9014	652.3214	747.4276	794.3836	829.4635	878.0301	902.6154	924.5585	956.565	970.5988	981.9649	996.5178	1023.8146	1040.0388	1055.9931	1091.7657	1106.9879	1165.8084	1178.1081	1222.8395	1232.1002	1262.4917	1287.92	1305.8488	1333.4124	1373.9782	1417.2201	1429.9007	1480.1361	1500.5898	1503.3237	1717.6416	3009.4058	3030.2568	3053.4203	3081.0013	3096.8242	3126.3323	3152.3691	3175.4454	3186.3087
C1C2CC3N=COCC123	C1[C@H]2C[C@@H]3N=COC[C@]123	
InChI=1S/C7H9NO/c1-5-2-7(5)3-9-4-8-6(1)7/h4-6H,1-3H2	InChI=1S/C7H9NO/c1-5-2-7(5)3-9-4-8-6(1)7/h4-6H,1-3H2/t5-,6+,7-/m1/s1
