16
gdb 30986	3.30001	1.20272	0.90723	3.5004	70.33	-0.1749	0.0336	0.2085	1227.2418	0.125115	-471.215864	-471.207112	-471.206167	-471.249183	32.671	
N	-0.0627570626	 1.2828004826	-0.2803964313	-0.597023
C	-0.1421327833	-0.0925778536	-0.1610164213	 0.284154
C	-1.1652197844	-0.9450730983	 0.0195084821	 0.156024
C	-2.6327235267	-0.6758946151	 0.0665944711	-0.178839
O	-2.9867746752	 0.4255602169	-0.7674772178	-0.40522
N	-0.5735606917	-2.2015846108	 0.3103361174	-0.404132
C	 0.7899468231	-2.1094155962	 0.1414280344	 0.453791
N	 1.6326365585	-3.0542897478	 0.177881365	-0.602277
O	 1.0609929606	-0.7644864398	-0.0832575092	-0.230386
H	 0.6214473735	 1.5813538454	-0.9662356288	 0.253516
H	-0.9772190557	 1.6744113151	-0.4744364198	 0.260883
H	-3.1915896805	-1.5849702027	-0.2097337984	 0.101159
H	-2.9733748911	-0.3925885293	 1.0705625864	 0.13489
H	-2.7385853511	 0.1855422124	-1.6676360901	 0.285523
H	-1.0285982528	-3.0889168465	 0.1772441492	 0.264582
H	 2.5742920593	-2.7031815723	 0.027849721	 0.223354
82.1908	147.7493	184.4445	210.8363	272.0795	295.8632	355.0196	358.824	404.3524	444.6384	533.0982	627.116	653.1028	708.2346	727.6365	741.5961	784.676	836.2223	947.3654	973.54	1037.893	1053.5702	1075.9827	1187.085	1231.9909	1246.9958	1324.0901	1372.9094	1380.3943	1406.8666	1457.5867	1509.1798	1630.1758	1760.7047	1810.6059	2970.5901	3036.2423	3514.279	3544.2546	3615.6132	3667.0346	3796.6894
NC1=C(CO)NC(=N)O1	NC1=C(CO)N[C@@H]([NH])O1	
InChI=1S/C4H7N3O2/c5-3-2(1-8)7-4(6)9-3/h8H,1,5H2,(H2,6,7)	InChI=1S/C4H8N3O2/c5-3-2(1-8)7-4(6)9-3/h4,6-8H,1,5H2/t4-/m1/s1
