19
gdb 133864	2.83041	1.9984	1.41781	1.9977	91.95	-0.1386	-0.0638	0.0747	942.7307	0.158927	-385.748296	-385.74118	-385.740236	-385.779365	29.845	
C	-1.430214176	 1.4639924898	-0.3632215789	-0.267823
C	-1.2921068452	 0.0700987999	 0.3308510574	-0.028493
C	-1.0380827346	-1.184402065	-0.6479446818	-0.332778
C	 0.1488232568	-1.9340570465	-0.2808166047	 0.049702
O	 1.2935348711	-1.3469353929	-0.0123156862	-0.160162
C	 1.2737800945	 0.012313547	 0.4529703664	 0.093203
C	 1.2058700208	 1.1678627456	-0.6120337571	-0.27083
C	 0.0022637146	 1.804660766	 0.1311779946	-0.016889
C	-0.0341889937	 0.5267710409	 1.0144039234	-0.100023
H	-2.1846837726	 2.0973836414	 0.1113839642	 0.104577
H	-1.6132566144	 1.4773214122	-1.4430211754	 0.089114
H	-2.1321551709	-0.2416283307	 0.9563335191	 0.085788
H	-0.9225341852	-0.7137636145	-1.6325894678	 0.138761
H	-1.9013545644	-1.8519348392	-0.7158703496	 0.11165
H	 0.1957693278	-3.0155854539	-0.2292354291	 0.126965
H	 2.1562377056	 0.0501979633	 1.0939532125	 0.103608
H	 0.9830282272	 0.7924878479	-1.6129539762	 0.110648
H	 2.1171552554	 1.7707619564	-0.6673655668	 0.106778
H	 0.1743551631	 2.8071862325	 0.5287997458	 0.056204
124.9111	227.1431	259.0146	380.728	416.7247	468.3398	500.3355	523.6636	576.7041	644.5902	711.816	742.1435	789.5564	803.6994	867.4433	911.5641	939.5264	949.1654	973.4035	988.184	1003.1015	1031.7168	1071.5125	1093.7863	1096.4591	1134.0907	1163.6921	1173.7924	1201.0774	1206.7795	1235.8339	1249.544	1268.1295	1288.5245	1316.2174	1322.4334	1381.3505	1458.2124	1472.0099	1486.1877	1493.7051	3014.1811	3039.7643	3048.5632	3053.7416	3068.7832	3086.2334	3086.687	3097.0503	3116.3782	3202.7104
C1C2CC3OC4CC1C234	C1[C@H]2C[CH]O[C@H]3C[C@@H]1[C]23	
InChI=1S/C8H10O/c1-4-2-6-8(4)5(1)3-7(8)9-6/h4-7H,1-3H2	InChI=1S/C8H10O/c1-2-9-7-4-6-3-5(1)8(6)7/h2,5-7H,1,3-4H2/t5-,6-,7+/m1/s1
