18
gdb 126891	2.97739	1.20511	0.92683	3.5446	77.32	-0.2137	0.0053	0.219	1293.5365	0.14706	-435.256585	-435.247159	-435.246215	-435.292848	32.382	
C	-0.412892615	 1.3231359626	 0.1911328585	-0.363354
C	 0.2301801035	-0.0530460572	-0.0115451695	-0.13789
N	 0.8307690095	-0.5552577094	 1.2204269348	-0.404904
C	 0.1381818536	-1.2852957841	 1.9802364325	 0.540289
O	-1.1556733761	-1.7213698588	 1.8259056006	-0.262524
N	-1.5192636598	-2.5534553905	 2.9293553444	-0.14328
C	-0.4666849149	-2.5676108869	 3.6734930704	 0.060013
N	 0.5687207723	-1.8310522532	 3.1859128369	-0.127975
C	 1.8943750464	-1.6303239424	 3.7275836265	-0.330356
H	 0.3151199052	 2.0311301418	 0.5983975186	 0.118957
H	-0.786495527	 1.7184151064	-0.7592243371	 0.108561
H	-1.2541452777	 1.2595736687	 0.8883672479	 0.121454
H	-0.5153646141	-0.7503289475	-0.4180018148	 0.106593
H	 1.0316342222	 0.0305967291	-0.7540250645	 0.098131
H	-0.4167068439	-3.1166866058	 4.6024141355	 0.162372
H	 1.9681655991	-2.1400428332	 4.6896369658	 0.137334
H	 2.6491224027	-2.0280509098	 3.0430399602	 0.157217
H	 2.0860665941	-0.5624829797	 3.8626578831	 0.15936
24.4076	43.6712	97.4707	169.812	182.0677	212.8718	253.9091	301.9485	442.4468	553.8953	591.1183	639.7413	725.3596	745.0138	816.3891	879.0587	888.3795	897.9185	946.5658	1067.5711	1079.8455	1118.0823	1136.4183	1161.2565	1184.6098	1233.2122	1306.8251	1354.4268	1376.7811	1401.6216	1435.2318	1463.7799	1469.5961	1489.7342	1496.0595	1515.3516	1524.0317	1655.3029	1792.6012	3006.6184	3034.6906	3048.0669	3052.8267	3106.6587	3112.3063	3113.8518	3145.5205	3256.7353
CCN=C1ON=CN1C	CCN=c1oncn1C	
InChI=1S/C5H9N3O/c1-3-6-5-8(2)4-7-9-5/h4H,3H2,1-2H3	InChI=1S/C5H9N3O/c1-3-6-5-8(2)4-7-9-5/h4H,3H2,1-2H3
