25
gdb 112039	2.18821	1.3373	1.04658	0.117	93.62	-0.2326	0.0277	0.2603	1330.5047	0.228436	-352.380931	-352.370965	-352.370021	-352.415077	39.08	
C	-0.1643310498	 1.7423401349	-0.4490946624	-0.391285
C	-0.282011067	 0.2144061422	-0.4124016043	-0.192051
C	 0.8936548175	-0.5003596652	-1.0985550732	-0.021125
C	 2.2210988461	-0.4102535655	-0.3746708772	-0.069403
C	 2.9343688495	-1.5272052164	-0.4998911628	-0.082152
C	 2.2069945822	-2.5591229654	-1.3250996399	-0.28792
C	 0.7325712663	-2.0466400879	-1.3425963653	 0.28182
C	-0.0307893484	-2.7248606847	-0.1897848533	-0.418848
C	 0.0265514608	-2.3440852722	-2.67014858	-0.441764
H	 0.7336269424	 2.093105884	 0.0701786333	 0.116961
H	-0.1131047514	 2.1100359608	-1.4801658443	 0.11385
H	-1.0266895033	 2.2158664745	 0.0307113428	 0.110417
H	-0.3663445784	-0.118983145	 0.6283404853	 0.098266
H	-1.2170890763	-0.0784025134	-0.907117052	 0.094034
H	 1.0137316285	-0.0225397516	-2.0861219881	 0.068301
H	 2.5477286707	 0.4846842319	 0.1440130835	 0.087599
H	 3.9315158848	-1.6849556186	-0.1032413269	 0.087274
H	 2.6253264679	-2.602324283	-2.3418317912	 0.096744
H	 2.284913777	-3.5748379926	-0.9187712826	 0.093927
H	 0.4563743792	-2.5401106709	 0.7728253306	 0.115847
H	-1.0645805929	-2.3739305978	-0.1204561274	 0.109216
H	-0.0614354564	-3.8086164887	-0.346914272	 0.104693
H	-0.0466923052	-3.4232989458	-2.8464349405	 0.108101
H	-0.9931706604	-1.9418471714	-2.677917677	 0.109388
H	 0.5659782369	-1.9034505523	-3.5155265352	 0.10811
86.9638	110.1997	186.8841	213.5913	243.0242	276.3089	293.6074	311.0359	320.2853	341.7371	410.776	464.2357	508.9337	578.9832	706.6167	743.0294	773.8012	808.475	866.3019	923.9051	945.7316	948.3619	965.0981	968.6644	981.7465	994.7138	1029.5534	1063.6933	1097.206	1126.3832	1136.6994	1154.5621	1202.9351	1226.068	1251.1893	1278.4642	1308.7966	1322.7067	1344.6011	1373.8943	1384.9372	1397.6325	1414.0795	1418.7619	1479.2416	1484.6952	1487.6142	1496.7266	1502.2809	1505.746	1507.0543	1510.8643	1685.1065	2947.9039	2994.1633	3018.7674	3020.1247	3030.9691	3032.0803	3043.0635	3059.6819	3083.9258	3091.094	3096.1166	3098.7611	3101.4341	3110.0122	3176.7112	3202.5034
CCC1C=CCC1(C)C	CC[C@H]1C=CCC1(C)C	
InChI=1S/C9H16/c1-4-8-6-5-7-9(8,2)3/h5-6,8H,4,7H2,1-3H3	InChI=1S/C9H16/c1-4-8-6-5-7-9(8,2)3/h5-6,8H,4,7H2,1-3H3/t8-/m0/s1
