19
gdb 115967	3.03513	1.34814	1.09812	3.369	70.02	-0.2455	0.062	0.3075	1131.3906	0.16092	-460.135642	-460.127594	-460.126649	-460.168881	30.276	
O	 0.034780256	 1.3046523272	-0.2869642152	-0.428262
C	 0.0043215375	-0.1074961654	-0.2147911858	-0.056935
C	-1.3900989676	-0.5851878774	 0.1919376685	 0.058222
O	-2.3602519858	-0.079169286	-0.7443465922	-0.280761
C	-2.6894688386	-1.1030134732	-1.6797654171	-0.103015
C	-2.5963396094	-2.4328504681	-0.9129891451	-0.08829
C	-1.5186158146	-3.422901822	-1.3929666918	-0.087369
O	-0.5550279937	-2.8856126537	-0.4597351154	-0.291076
C	-1.5831639302	-2.1096082713	 0.2062058986	 0.095665
H	-0.7405546885	 1.5543423759	-0.8047992925	 0.28561
H	 0.2915745072	-0.5725519885	-1.1679240488	 0.09421
H	 0.7424186031	-0.4147149912	 0.533290008	 0.112685
H	-1.6467455882	-0.139680162	 1.15924871	 0.0875
H	-3.6916471288	-0.8878683092	-2.0595757816	 0.114655
H	-1.9924378741	-1.096754796	-2.5315258747	 0.098323
H	-3.5665668507	-2.8403170484	-0.6307654493	 0.08945
H	-1.7408232567	-4.4747833154	-1.1748944964	 0.10618
H	-1.1864540607	-3.3318448821	-2.4337710899	 0.108596
H	-1.7826750161	-2.5052030333	 1.2072992308	 0.084613
65.5366	114.091	132.558	198.858	309.3658	370.4584	459.7492	469.3905	483.7283	651.7013	743.1798	794.9956	819.6608	867.7508	883.8278	922.5063	969.8845	996.9604	1013.3659	1046.6808	1072.2876	1090.5578	1095.5007	1108.7014	1134.7917	1174.8763	1213.6907	1224.6336	1243.5854	1264.2305	1297.413	1327.0898	1335.7307	1357.1494	1361.5554	1385.1364	1398.7443	1434.2328	1499.0574	1517.0196	1527.2438	2985.3512	3011.023	3018.0152	3045.3084	3061.5701	3064.7359	3082.5687	3087.8885	3120.0796	3781.7959
OCC1OCC2COC12	OC[C@H]1OC[C@H]2CO[C@@H]12	
InChI=1S/C6H10O3/c7-1-5-6-4(2-8-5)3-9-6/h4-7H,1-3H2	InChI=1S/C6H10O3/c7-1-5-6-4(2-8-5)3-9-6/h4-7H,1-3H2/t4-,5+,6+/m0/s1
