18
gdb 67141	2.07076	1.83901	1.49475	2.923	76.52	-0.2149	0.0062	0.221	1006.709	0.147125	-401.911323	-401.902872	-401.901928	-401.944198	31.708	
C	-0.1379568765	 1.4985554195	-0.0427749483	-0.52684
C	 0.0271827965	 0.017402006	-0.0109726918	 0.300944
C	 0.0584395458	-1.0887250297	-1.001573748	-0.133351
N	 1.3004220944	-1.6570878307	-0.459434498	-0.308985
C	 0.9614016324	-0.9535532784	 0.8130959062	-0.210509
C	-0.3751802717	-1.5573667057	 1.3082679404	 0.381004
O	-0.7698408666	-1.9427217965	 2.3767497743	-0.347269
C	-1.0637797589	-1.1242918307	 0.0558237325	 0.13464
C	-2.5303304331	-1.0575795974	-0.2323068645	-0.511862
H	 0.778600397	 1.9895781744	-0.3867175759	 0.140654
H	-0.9474914886	 1.7848316009	-0.7217415772	 0.13212
H	-0.380105835	 1.8920813332	 0.9501707747	 0.138344
H	-0.1777213844	-1.0796250904	-2.0603702733	 0.104503
H	 1.2816595917	-2.6754977506	-0.3613539345	 0.214481
H	 1.7682911107	-0.6925051607	 1.4942423502	 0.093471
H	-3.0869903551	-0.7267624858	 0.6503182649	 0.140723
H	-2.7463944335	-0.3642191148	-1.0521415564	 0.122048
H	-2.9197625953	-2.0394822126	-0.5220811153	 0.135885
111.3543	133.8901	171.1956	186.3306	214.8549	299.193	316.3901	435.0228	516.3069	611.1972	628.484	652.2723	707.1508	779.4854	801.0062	827.8067	937.9755	962.5932	972.687	1007.547	1041.4927	1082.2184	1088.9964	1109.433	1157.3061	1164.8304	1183.9045	1203.1364	1262.5437	1349.7696	1373.0583	1415.0172	1417.2271	1460.0734	1480.0513	1485.3586	1492.5241	1500.9148	1858.7407	3030.354	3031.6998	3093.5191	3095.3586	3101.6795	3103.0642	3149.2349	3171.4956	3404.6648
CC12C3NC1C(=O)C23C	C[C@@]12[C@H]3N[C@@H]1C(=O)[C@@]23C	
InChI=1S/C7H9NO/c1-6-3-4(9)7(6,2)5(6)8-3/h3,5,8H,1-2H3	InChI=1S/C7H9NO/c1-6-3-4(9)7(6,2)5(6)8-3/h3,5,8H,1-2H3/t3-,5-,6+,7-/m1/s1
