18
gdb 88263	3.06342	1.21023	0.95358	1.6293	76.15	-0.2399	-0.0288	0.2111	1252.8559	0.147155	-435.27741	-435.268022	-435.267078	-435.311828	34.423	
C	 0.3811703994	 1.3598985334	 0.2051958742	-0.403498
C	 0.0389786445	-0.0794194165	-0.0973621526	-0.002472
C	 0.7323985826	-0.8312894554	-1.2069250389	-0.224457
N	 0.9953468147	-1.1282744551	 0.1762782674	-0.071254
C	 2.1304193194	-1.0815045866	 0.9263847324	 0.390322
O	 2.1911697388	-0.5492127114	 2.0238701305	-0.387407
C	 3.341004022	-1.8302211323	 0.3705356345	 0.255232
N	 4.292406739	-1.9902192439	 1.3366945268	-0.527721
N	 3.3516338068	-2.2136999966	-0.8509855061	-0.517796
H	 1.3941051066	 1.6037733249	-0.1283814117	 0.123334
H	-0.3200248414	 2.0265623081	-0.3067625847	 0.121307
H	 0.3273551506	 1.5550644663	 1.2794345775	 0.14882
H	-0.9892968031	-0.3642568951	 0.1215761324	 0.103345
H	 0.2043491936	-1.5999319119	-1.7642348667	 0.127877
H	 1.5121353911	-0.3197830421	-1.7622588706	 0.138788
H	 4.1534739252	-1.4435459499	 2.1743394481	 0.272397
H	 5.2321304322	-2.2342202753	 1.0743797566	 0.250191
H	 4.2291315681	-2.6848035306	-1.0831674591	 0.202995
66.2495	84.3637	132.4671	176.8988	213.3261	307.4562	330.7058	372.3519	394.5411	441.1944	467.6304	520.2971	565.1424	629.12	696.0445	815.6658	839.6658	877.0945	899.2789	903.3865	1042.5563	1070.5065	1090.7027	1121.6021	1131.1795	1145.8624	1158.7881	1192.1715	1200.1008	1381.7227	1410.3761	1422.5881	1478.3454	1485.3779	1495.5204	1523.0552	1595.627	1716.2875	1750.5475	3042.3751	3105.8876	3118.3173	3120.693	3127.1803	3210.45	3438.5085	3573.2253	3711.1335
CC1CN1C(=O)C(N)=N	C[C@H]1CN1C(=O)C(=N)N	
InChI=1S/C5H9N3O/c1-3-2-8(3)5(9)4(6)7/h3H,2H2,1H3,(H3,6,7)	InChI=1S/C5H9N3O/c1-3-2-8(3)5(9)4(6)7/h3H,2H2,1H3,(H3,6,7)/t3-,8?/m0/s1
