21
gdb 75055	2.217	1.62796	1.19331	2.6322	84.27	-0.2353	-0.0139	0.2214	1144.9487	0.180401	-387.140656	-387.130913	-387.129969	-387.174962	36.625	
C	-0.0256471314	 1.5029731829	-0.0164942958	-0.498157
C	-0.0068075898	 0.0054287196	-0.0260657687	 0.310962
C	-0.0208653178	-0.7728216384	-1.1131601995	-0.191155
C	 0.0043742252	-2.241812295	-0.8007108227	-0.381174
C	 0.038611101	-2.2614087465	 0.7315254689	 0.390088
O	 0.06676796	-3.2429769939	 1.4283366397	-0.32643
C	 0.0315872574	-0.807159825	 1.2607045934	 0.065122
C	 1.3090659566	-0.5683631214	 2.0910023461	-0.422895
C	-1.2144169548	-0.6005858346	 2.1457278284	-0.42287
H	 0.8584543057	 1.9126247392	 0.4871808508	 0.129526
H	-0.0511163418	 1.9046840973	-1.0331729094	 0.124571
H	-0.8991307944	 1.8902081544	 0.5222643454	 0.129566
H	-0.0478459368	-0.3942910312	-2.1297214188	 0.090828
H	-0.8734770515	-2.7929154358	-1.1636147943	 0.134197
H	 0.8785706996	-2.7712461362	-1.2025681241	 0.134193
H	 2.2101794557	-0.6772786979	 1.4792406755	 0.11638
H	 1.3113158763	 0.4370056311	 2.5239393089	 0.113963
H	 1.3592688942	-1.2955204792	 2.9065283752	 0.136472
H	-1.2103101697	-1.3277943867	 2.9627426265	 0.136454
H	-1.2238992353	 0.4049315249	 2.5782236331	 0.113979
H	-2.1381222784	-0.7335211574	 1.5736965013	 0.11638
43.9244	164.8147	191.402	227.1342	233.9133	246.5436	254.9502	263.0989	289.6723	356.1196	525.7213	534.1755	554.6315	618.9519	658.4634	686.6931	794.4626	820.9843	941.9435	942.0184	957.5814	965.8624	1024.0388	1036.5863	1064.8868	1079.8157	1127.6382	1146.1426	1178.8753	1239.3999	1259.5171	1289.4841	1345.4305	1387.2549	1408.8551	1416.3899	1446.0091	1474.0291	1485.3376	1487.7171	1489.4986	1502.1685	1509.9715	1711.4449	1843.5219	3020.6434	3022.2347	3032.2488	3035.8431	3045.5314	3070.5254	3102.7959	3104.8659	3109.8755	3114.4823	3117.9591	3182.6776
CC1=CCC(=O)C1(C)C	CC1=CCC(=O)C1(C)C	
InChI=1S/C8H12O/c1-6-4-5-7(9)8(6,2)3/h4H,5H2,1-3H3	InChI=1S/C8H12O/c1-6-4-5-7(9)8(6,2)3/h4H,5H2,1-3H3
