14
gdb 60999	2.18358	1.54529	1.1036	3.4293	62.23	-0.2848	-0.056	0.2288	1075.9001	0.098331	-473.80152	-473.792924	-473.791979	-473.835701	30.074	
O	-1.3320148936	-0.3728502677	-0.5507453898	-0.425388
C	-0.0026519449	-0.5315173379	-0.149803838	 0.008835
C	 0.8263877344	 0.6890818293	-0.5329819551	 0.128892
O	 0.3400443366	 1.5554481663	-1.2167766287	-0.256553
C	 0.027570223	-0.9340697146	 1.3170418062	 0.038813
O	 1.2855219222	-0.956989703	 1.980578413	-0.231445
C	 0.2909783849	-0.0470531259	 2.4698079437	-0.089346
C	 0.5708630105	 1.3646955187	 2.3352469725	 0.30209
N	 0.7881110994	 2.4977405812	 2.2634500784	-0.313032
H	-1.3542724079	 0.4730130515	-1.029715184	 0.30461
H	 0.4759526162	-1.3703942068	-0.6950584836	 0.114283
H	 1.8817426197	 0.7049582715	-0.2099864443	 0.133425
H	-0.6137122914	-1.7918076052	 1.5230405028	 0.131612
H	-0.1398243889	-0.3177257977	 3.432153307	 0.153204
42.4412	100.5752	144.4229	185.0047	239.839	286.578	324.6585	434.8333	467.8798	492.1895	573.4979	664.6365	698.9551	799.4571	829.8332	869.1148	974.9929	1027.0505	1044.5292	1107.6152	1152.2428	1163.1061	1266.9888	1283.362	1330.7448	1380.5115	1386.7544	1440.2906	1463.5164	1811.0245	2360.3395	2909.0813	2993.0615	3112.6693	3136.6754	3663.8384
OC(C=O)C1OC1C#N	O[C@@H](C=O)[C@H]1O[C@H]1C#N	
InChI=1S/C5H5NO3/c6-1-4-5(9-4)3(8)2-7/h2-5,8H	InChI=1S/C5H5NO3/c6-1-4-5(9-4)3(8)2-7/h2-5,8H/t3-,4-,5+/m0/s1
