20
gdb 12375	2.82453	2.05808	1.30875	1.0931	77.84	-0.2335	0.0272	0.2607	993.7366	0.177469	-349.023948	-349.015778	-349.014834	-349.056108	31.396	
C	 0.0579029848	 1.5456286755	-0.0852629711	-0.400379
C	 0.0411395693	 0.0212095588	 0.0364070294	 0.061753
O	 0.5938672784	-0.4672498082	-1.1775793249	-0.261099
C	 0.9038724558	-1.8475091993	-1.1485278997	-0.077443
C	 2.0190613975	-2.1256099462	-0.1420698493	-0.253878
C	 1.6825289328	-1.45945837	 1.1641988189	-0.164877
C	 0.7658813494	-0.4949062778	 1.2689690968	 0.305358
C	 0.3678232746	 0.0998370104	 2.593376466	-0.483337
H	 1.0872882196	 1.9161543093	-0.0869191054	 0.122927
H	-0.4152269058	 1.8358236406	-1.026853216	 0.125091
H	-0.4868604546	 2.0176058363	 0.7360331128	 0.114631
H	-1.0152688018	-0.3068073249	 0.1079075795	 0.066779
H	 0.0097216988	-2.4369564009	-0.8848474804	 0.085607
H	 1.1979044367	-2.1169652921	-2.1671713311	 0.101617
H	 2.1350966795	-3.2079433288	-0.0008404373	 0.098836
H	 2.979215787	-1.7603356289	-0.5322325108	 0.111897
H	 2.1975712303	-1.8077476953	 2.0572450111	 0.076781
H	 0.8506806218	-0.4279425348	 3.4200693935	 0.120426
H	 0.6371624534	 1.160051065	 2.6667661584	 0.127996
H	-0.7180619577	 0.0420066814	 2.7449540994	 0.121315
88.5973	185.2295	220.8567	238.3356	292.4692	316.8169	345.4132	389.7428	465.0371	496.299	593.4942	657.3132	748.4173	848.0917	875.8468	884.1827	939.2838	986.9416	1032.7101	1067.6512	1072.5784	1083.0449	1100.2477	1141.2403	1147.8763	1186.1019	1235.2184	1296.7705	1330.7728	1350.0927	1364.8882	1378.9947	1403.3281	1413.5015	1414.5463	1472.1429	1477.7182	1486.2905	1495.3987	1500.0895	1502.0305	1736.2224	2897.6093	2966.2568	3009.8158	3017.8372	3045.1491	3047.2608	3067.0293	3082.5321	3109.6271	3123.0073	3129.7661	3142.0258
CC1OCCC=C1C	C[C@H]1OCCC=C1C	
InChI=1S/C7H12O/c1-6-4-3-5-8-7(6)2/h4,7H,3,5H2,1-2H3	InChI=1S/C7H12O/c1-6-4-3-5-8-7(6)2/h4,7H,3,5H2,1-2H3/t7-/m1/s1
