19
gdb 72123	2.4671	2.16384	1.72737	1.4433	78.15	-0.2303	0.0099	0.2402	894.2844	0.161584	-385.879197	-385.872433	-385.871489	-385.909765	28.935	
C	 0.0198453621	 1.4839897692	-0.0865348659	-0.507321
C	-0.0510384554	-0.0126111893	-0.0014753594	 0.458279
O	 0.2310765883	-0.7229340189	-1.2305252763	-0.337084
C	-0.3776411139	-1.8598092381	-0.5479943433	 0.050225
C	 0.7239062935	-2.189310715	 0.4635440117	-0.210174
C	 0.7331046726	-0.773153344	 1.1533015433	-0.141975
C	-0.2990969097	-0.8482635795	 2.2553019072	-0.089647
C	-1.5100519543	-0.9710565049	 1.6931977101	-0.098787
C	-1.3432672268	-0.8476311787	 0.211043588	-0.120131
H	 1.0449493129	 1.8057638258	-0.2990318366	 0.128007
H	-0.6290663269	 1.8577489288	-0.8834696802	 0.126742
H	-0.290973504	 1.9311180296	 0.8621493298	 0.129232
H	-0.7534548346	-2.6339957851	-1.2153440774	 0.079091
H	 0.4977051252	-2.9981103753	 1.1610631647	 0.096566
H	 1.6517858214	-2.4046291056	-0.0706804173	 0.108161
H	 1.716520399	-0.3865846076	 1.419189296	 0.06353
H	-0.0621183563	-0.91773616	 3.3103658055	 0.095635
H	-2.4513646819	-1.1336969087	 2.2028096248	 0.096853
H	-2.1997881811	-0.5590285126	-0.3972321246	 0.072799
202.1698	235.4264	273.1444	372.3263	407.4627	518.84	535.1604	606.7852	630.0293	726.8419	754.4218	793.5259	824.733	828.9536	874.5565	888.4594	917.3799	945.3256	953.5602	962.1286	967.6765	1013.6568	1027.3059	1083.2492	1114.4793	1132.4797	1139.2159	1150.3215	1190.4499	1236.6468	1255.285	1279.4318	1291.2624	1314.3974	1356.6669	1368.1684	1413.8346	1476.1013	1479.9527	1492.3095	1635.0435	3039.5285	3071.925	3108.0622	3116.0748	3121.5682	3123.9803	3129.742	3136.0011	3192.5832	3218.6039
CC12OC3CC1C=CC23	C[C@@]12O[C@H]3C[C@@H]1C=C[C@@H]23	
InChI=1S/C8H10O/c1-8-5-2-3-6(8)7(4-5)9-8/h2-3,5-7H,4H2,1H3	InChI=1S/C8H10O/c1-8-5-2-3-6(8)7(4-5)9-8/h2-3,5-7H,4H2,1H3/t5-,6+,7-,8+/m0/s1
