19
gdb 92254	2.63161	1.6687	1.30779	3.0163	74.87	-0.2362	0.0649	0.3012	1024.5622	0.159922	-422.966521	-422.958823	-422.957879	-422.998631	30.467	
O	 0.0476235965	 1.4114480425	-0.2019984526	-0.435187
C	 0.0435441202	 0.0200713874	 0.0179979676	 0.020104
C	 0.2141437456	-0.5340756171	 1.4735238903	-0.28326
C	-1.0359200069	-1.4483424587	 1.2685156194	-0.077836
C	-2.3426885793	-0.9407241782	 1.9347144765	-0.254486
C	-2.5874170955	-0.0474892399	 0.6917456797	 0.082228
O	-3.4322104027	-0.6712403569	-0.3041702892	-0.296521
C	-2.2937552379	-1.0426374659	-1.1241192041	-0.190092
C	-1.3321399023	-0.6130580117	-0.0272530555	 0.318324
H	 0.9587681609	 1.7209738283	-0.1918775693	 0.285201
H	 0.7333593274	-0.4943827093	-0.6693006592	 0.067007
H	 1.1556744495	-1.0473093862	 1.6803591998	 0.099421
H	 0.0591199119	 0.2434017889	 2.2270099091	 0.105803
H	-0.8352603262	-2.520250883	 1.2423248541	 0.065416
H	-3.1259323802	-1.6942551708	 2.0473886371	 0.111097
H	-2.2077104932	-0.4177706689	 2.886637541	 0.096977
H	-2.809051528	 1.0153727054	 0.8184015406	 0.082299
H	-2.3059068971	-2.1047476348	-1.3991423298	 0.098527
H	-2.2447110027	-0.4336079908	-2.0377444855	 0.104977
99.3818	139.5188	233.3752	267.5945	326.0107	385.4557	425.2736	482.8824	540.3365	641.3808	688.2553	788.3944	806.3821	843.1417	887.5881	895.9744	946.4048	988.8056	993.5967	1017.464	1042.38	1087.7147	1097.7094	1121.9676	1128.889	1141.9782	1172.4827	1205.8758	1214.0902	1236.6547	1250.3017	1266.0374	1274.272	1291.9454	1311.3308	1335.4749	1369.6299	1441.2253	1462.5292	1482.716	1516.5804	2974.9441	2998.1032	3046.3992	3048.9033	3058.5058	3076.0328	3094.2607	3111.9267	3120.258	3819.3232
OC1CC2CC3OCC123	O[C@H]1C[C@H]2C[C@@H]3OC[C@]123	
InChI=1S/C7H10O2/c8-5-1-4-2-6-7(4,5)3-9-6/h4-6,8H,1-3H2	InChI=1S/C7H10O2/c8-5-1-4-2-6-7(4,5)3-9-6/h4-6,8H,1-3H2/t4-,5-,6-,7+/m0/s1
