19
gdb 75259	2.77004	1.70739	1.31637	1.9934	80.38	-0.2231	0.0111	0.2342	1036.3588	0.159475	-385.8554	-385.847668	-385.846724	-385.887145	30.953	
C	-0.0525375705	 1.540427172	 0.0050630201	-0.501851
C	 0.0028545181	 0.0466776239	-0.0533902697	 0.241928
C	-0.1763429404	-0.7436347808	-1.1268318255	-0.158875
C	-0.0361098216	-2.2372229502	-0.8339532404	-0.36478
C	 0.1853133138	-2.226962553	 0.6667415887	 0.300596
C	 1.3238481729	-2.6267221973	 1.6282834838	-0.288493
C	 1.3527342093	-1.1354046626	 2.1374369608	-0.299921
C	 0.2234415069	-0.8330652183	 1.132290522	 0.221909
O	-0.8842103624	-1.7014912164	 1.451149381	-0.30162
H	 0.8772010424	 1.9557857881	 0.4134565078	 0.126523
H	-0.2096113008	 1.9756364664	-0.9854134538	 0.124319
H	-0.8618979879	 1.8797189868	 0.6630029364	 0.135573
H	-0.4599489551	-0.3786179442	-2.1098241496	 0.090985
H	-0.9241617653	-2.8040854604	-1.1373621328	 0.123127
H	 0.8182126795	-2.6783536594	-1.3629746538	 0.113102
H	 1.0724840804	-3.399714369	 2.3580725894	 0.110307
H	 2.2443238988	-2.9035328387	 1.1087074421	 0.107441
H	 1.1079999842	-0.9615085763	 3.1875050916	 0.110687
H	 2.2907834577	-0.6311225406	 1.894827042	 0.109044
153.997	175.835	228.0009	249.7385	270.9337	333.0916	469.9178	521.8242	569.1454	598.6463	666.852	739.7512	760.2613	763.2342	818.6733	859.9961	923.0341	926.5001	935.7363	960.7882	1029.9733	1044.5709	1068.9262	1097.3447	1115.4261	1169.9669	1204.5746	1216.6189	1227.6765	1239.6639	1265.6403	1326.0861	1345.1606	1405.1638	1416.5149	1463.3247	1467.5462	1478.5554	1484.6396	1489.4001	1671.6485	3021.3987	3028.1762	3062.4419	3062.9027	3069.0332	3070.3568	3112.567	3114.2411	3131.46	3174.4734
CC1=CCC23CCC12O3	CC1=CC[C@@]23CC[C@@]12O3	
InChI=1S/C8H10O/c1-6-2-3-7-4-5-8(6,7)9-7/h2H,3-5H2,1H3	InChI=1S/C8H10O/c1-6-2-3-7-4-5-8(6,7)9-7/h2H,3-5H2,1H3/t7-,8-/m1/s1
