19
gdb 81663	3.74067	1.27956	1.19571	4.238	74.96	-0.2317	0.0514	0.2831	1100.2725	0.162024	-419.241977	-419.23414	-419.233196	-419.273852	31.465	
C	-0.0575906572	 1.5695529623	 0.0085751877	-0.430603
C	 0.0047832093	 0.0479218902	 0.0095782315	 0.052328
C	 1.1427359073	-0.6038734585	-0.8392154828	-0.014915
C	 2.0667467373	-0.4592540884	 0.408895443	-0.2508
C	 0.7411908173	-0.6190061859	 1.2150364029	-0.014907
N	 0.3463674643	-2.027886279	 1.2355457933	-0.325326
C	 0.5531815568	-2.7948181052	 0.0958275276	 0.407449
O	 0.5066562808	-4.0093519744	 0.0777784627	-0.410091
N	 0.7885703053	-2.0112132022	-1.0269288054	-0.32535
H	 0.9128577731	 2.0364910587	 0.2015751788	 0.118047
H	-0.4147611449	 1.9389318289	-0.9586963668	 0.122732
H	-0.7535235084	 1.9262002878	 0.7754563621	 0.122728
H	-0.9842607908	-0.3739036026	-0.1868537828	 0.08767
H	 1.4293210421	-0.1605733201	-1.7940396009	 0.07443
H	 2.8432248298	-1.213181667	 0.5551269405	 0.104547
H	 2.4921836508	 0.5405722075	 0.4994217904	 0.109765
H	 0.6459343241	-0.1901290156	 2.2136976931	 0.074428
H	 0.4257629855	-2.5505878567	 2.093219566	 0.248939
H	 1.1869502672	-2.5219272097	-1.7986827109	 0.24893
125.008	187.4218	238.8545	270.1923	348.7889	380.72	405.5061	464.5628	478.475	525.8546	559.8201	681.5157	768.9439	806.9456	856.5792	856.9316	866.3344	870.1929	979.7718	1016.6687	1048.6164	1069.1368	1091.2214	1107.9282	1125.5818	1131.368	1153.8391	1219.0781	1247.2335	1260.2605	1273.7857	1323.9373	1386.0825	1386.8903	1410.5129	1434.782	1438.2729	1488.1934	1496.8553	1503.046	1818.6235	3033.1702	3072.4174	3076.6961	3095.8278	3099.804	3102.3234	3107.3948	3142.0457	3642.269	3644.1662
CC1C2CC1NC(=O)N2	C[C@H]1[C@H]2C[C@@H]1NC(=O)N2	
InChI=1S/C6H10N2O/c1-3-4-2-5(3)8-6(9)7-4/h3-5H,2H2,1H3,(H2,7,8,9)	InChI=1S/C6H10N2O/c1-3-4-2-5(3)8-6(9)7-4/h3-5H,2H2,1H3,(H2,7,8,9)/t3-,4+,5-
