16
gdb 49986	3.78722	0.92507	0.84841	2.6064	71.47	-0.2552	-0.0466	0.2086	1333.8281	0.12173	-437.869444	-437.861065	-437.860121	-437.903479	30.685	
O	-0.2067472797	 0.3301584019	 0.7751395848	-0.255265
C	 0.3064339449	 0.7684044243	-0.2229499714	 0.181148
C	 1.4372493422	 1.7376847922	-0.2204702038	-0.19698
N	 2.2394390608	 1.7639442847	-1.4709880777	-0.370439
C	 1.4286723833	 2.9132044472	-1.1438631353	 0.327028
C	 0.2977378606	 3.4392099416	-2.0504582982	-0.413384
C	 0.7764331891	 4.862332776	-1.7025414815	 0.410834
O	 0.405992064	 5.9577425233	-1.9990600633	-0.277281
C	 1.9205336867	 4.3343990808	-0.8069696838	-0.432389
H	-0.0332514211	 0.4818874989	-1.2429305005	 0.087523
H	 1.9337070725	 1.8619470044	 0.7389596158	 0.109974
H	 3.2190846111	 1.9243557382	-1.2481277248	 0.245678
H	 0.4050442238	 3.1770263196	-3.1074702276	 0.149746
H	-0.7280212827	 3.2257879188	-1.7359530237	 0.146188
H	 1.8503889886	 4.642162298	 0.2405560494	 0.147039
H	 2.9198854259	 4.5834825802	-1.1807985785	 0.140582
37.529	94.7486	146.2878	212.8305	327.3122	378.4978	397.122	418.4126	470.1604	518.3228	539.6337	653.2325	714.8318	808.1658	892.0176	926.6996	960.8656	982.4856	994.2558	1042.7954	1064.2318	1074.8974	1096.9513	1185.4993	1188.1228	1199.5211	1217.374	1259.8133	1320.6339	1392.3488	1417.759	1432.1364	1466.4806	1825.7043	1906.9938	2893.4127	3048.0444	3060.1292	3104.2919	3113.7295	3148.9823	3500.1085
O=CC1NC11CC(=O)C1	O=C[C@H]1NC21CC(=O)C2	
InChI=1S/C6H7NO2/c8-3-5-6(7-5)1-4(9)2-6/h3,5,7H,1-2H2	InChI=1S/C6H7NO2/c8-3-5-6(7-5)1-4(9)2-6/h3,5,7H,1-2H2/t5-/m1/s1
