18
gdb 70484	3.05501	1.11804	0.98155	2.6559	74.14	-0.2455	0.0289	0.2743	1248.8108	0.146796	-439.081105	-439.07237	-439.071426	-439.115173	32.096	
C	-0.0451148142	 1.4952657109	-0.0980579551	-0.50962
C	 0.179741065	 0.021959515	-0.020428042	 0.403323
O	-0.7822728115	-0.7851076513	 0.6864815291	-0.302524
C	 0.6055313877	-0.8911346794	 1.0561309928	-0.040995
C	 1.2454697927	-1.8731796011	 0.0740816422	-0.272305
C	 0.7745993001	-0.9207853018	-1.0913507088	-0.02713
N	-0.17501123	-1.4300687107	-2.0451578062	-0.276039
C	 0.0505802538	-1.4786218518	-3.3855264584	 0.153169
O	 1.0676550412	-1.1163250229	-3.9386999127	-0.326888
H	 0.8752624784	 2.0134782746	-0.3849062336	 0.133033
H	-0.8091767019	 1.7298566706	-0.8475322676	 0.136618
H	-0.3826384277	 1.8812879722	 0.867223596	 0.137062
H	 0.8547188985	-0.6858143404	 2.0904789096	 0.109777
H	 2.3338910419	-1.9313648321	 0.1469872321	 0.117686
H	 0.8200770384	-2.8794330744	 0.0757948772	 0.110225
H	 1.6082324803	-0.4952298795	-1.6494760794	 0.124127
H	-1.0600729924	-1.7473990128	-1.6791509458	 0.255365
H	-0.8183911602	-1.8966495854	-3.9313233896	 0.075116
44.4695	115.4269	171.0246	196.8053	222.6548	272.2615	297.6854	420.5516	453.9016	566.2179	605.4078	665.401	701.711	761.3213	852.3372	881.7799	906.8942	921.1182	969.946	1028.4704	1043.8312	1045.2787	1081.9316	1105.8321	1154.5466	1196.7632	1205.9134	1233.7992	1265.5539	1281.6195	1342.8595	1404.3767	1429.9313	1455.3184	1476.592	1485.0182	1494.1069	1528.6774	1802.6327	2937.4093	3037.2312	3068.4935	3100.6615	3124.2863	3124.5245	3136.573	3193.4468	3623.2414
CC12OC1CC2NC=O	C[C@]12O[C@H]1C[C@H]2NC=O	
InChI=1S/C6H9NO2/c1-6-4(7-3-8)2-5(6)9-6/h3-5H,2H2,1H3,(H,7,8)	InChI=1S/C6H9NO2/c1-6-4(7-3-8)2-5(6)9-6/h3-5H,2H2,1H3,(H,7,8)/t4-,5+,6-/m1/s1
