16
gdb 127242	3.80529	1.01791	0.81125	2.0926	75.64	-0.2473	0.0092	0.2565	1348.6503	0.125602	-396.966704	-396.958094	-396.95715	-397.002006	29.741	
C	 0.1729441346	 1.3905730051	 0.00030992	-0.322134
N	 0.0023667953	-0.0474586816	-0.0138927145	 0.048987
C	 0.4309216497	-0.9252720078	-0.9526123151	-0.102832
C	 0.0952157287	-2.1880419769	-0.505285128	 0.171699
C	 0.3335668057	-3.5130306769	-1.181306318	-0.465743
C	 1.0436732675	-3.3800900817	-2.453433281	 0.275969
N	 1.6039271841	-3.2560826912	-3.4561680883	-0.315475
C	-0.5390907586	-1.9560009491	 0.7343272983	-0.079719
N	-0.5906052198	-0.6599061985	 1.0278716547	-0.264127
H	 0.9879262813	 1.6816031531	 0.6703697818	 0.148896
H	 0.3990333435	 1.7333595942	-1.0107436727	 0.144165
H	-0.7517557143	 1.85651449	 0.3447642681	 0.158199
H	 0.9306474686	-0.6035889283	-1.8526385834	 0.157385
H	 0.917100658	-4.1823844756	-0.5364291124	 0.16548
H	-0.6140124205	-4.0315871339	-1.3760034414	 0.165615
H	-0.9635689238	-2.6779043809	 1.4175550719	 0.113633
25.9675	48.5174	105.2556	169.056	272.7495	275.1818	379.7184	409.9712	476.8633	628.6477	662.6376	668.4454	777.1833	807.9152	869.2692	946.472	960.0434	1007.1961	1030.8534	1076.9019	1150.4786	1182.9004	1219.4498	1225.2551	1299.4861	1340.9093	1406.9957	1424.9984	1450.4021	1466.283	1476.7261	1482.4729	1524.1513	1610.7071	2365.6726	3025.9929	3049.5194	3052.058	3122.5608	3153.8053	3238.4774	3264.9025
CN1C=C(CC#N)C=N1	Cn1cc(CC#N)cn1	
InChI=1S/C6H7N3/c1-9-5-6(2-3-7)4-8-9/h4-5H,2H2,1H3	InChI=1S/C6H7N3/c1-9-5-6(2-3-7)4-8-9/h4-5H,2H2,1H3
