17
gdb 83974	2.40992	1.80397	1.3231	2.2079	67.29	-0.2356	-0.0409	0.1947	992.6684	0.135831	-458.96254	-458.954566	-458.953621	-458.995458	29.336	
C	 0.2054889594	 1.642864342	-0.0225298211	-0.406656
C	 0.1212770523	 0.1227709446	-0.014382849	-0.136371
C	 0.7194214215	-0.7133516722	-1.1919117932	 0.04655
O	 1.7976625079	-0.1125480135	-1.8910054858	-0.254658
C	 3.0012774378	-0.4595970938	-1.226104906	 0.006274
O	 2.7867588359	-1.6997750945	-0.5857787779	-0.240031
C	 1.437063914	-1.6768429028	-0.193402883	-0.019808
C	 1.0484078941	-0.6605868871	 0.9372153597	 0.342114
O	 1.4252642094	-0.4858128083	 2.0574969175	-0.287755
H	 1.2044797244	 1.9756322218	-0.3153956623	 0.133158
H	-0.510546558	 2.074082449	-0.7278949173	 0.126332
H	-0.0104462991	 2.0373379144	 0.9743109966	 0.137434
H	-0.9114213869	-0.2086019353	 0.163482752	 0.109197
H	 0.0126082407	-1.1144049329	-1.9184293304	 0.094069
H	 3.8000508387	-0.5730185507	-1.9633686169	 0.129421
H	 3.2698073987	 0.3133811223	-0.4862654626	 0.104013
H	 1.0711211293	-2.6969863729	-0.0671332503	 0.116718
68.6154	158.3163	164.3563	193.8693	223.1343	273.88	488.0866	506.3895	569.3327	635.7351	732.9886	768.1287	809.5767	861.0556	901.0174	945.8967	957.8858	972.2443	1037.5976	1072.1516	1110.2482	1131.5894	1139.3391	1159.5165	1186.5921	1213.2344	1239.7596	1255.4597	1307.2703	1333.4567	1350.9741	1406.1388	1429.5139	1489.6433	1498.7951	1546.2632	1892.7469	2958.9958	3020.0818	3047.9977	3098.4434	3105.7771	3115.7557	3118.121	3127.1125
CC1C2OCOC2C1=O	C[C@H]1[C@H]2OCO[C@H]2C1=O	
InChI=1S/C6H8O3/c1-3-4(7)6-5(3)8-2-9-6/h3,5-6H,2H2,1H3	InChI=1S/C6H8O3/c1-3-4(7)6-5(3)8-2-9-6/h3,5-6H,2H2,1H3/t3-,5-,6+/m1/s1
