20
gdb 88181	3.45249	1.20546	1.0612	1.9667	81.51	-0.2281	0.0272	0.2553	1205.1451	0.172363	-403.156886	-403.148598	-403.147654	-403.189641	32.166	
C	-0.0938786806	 1.5223696741	-0.0894696878	-0.414008
C	 0.0218292513	 0.0196960906	 0.0365939846	-0.040207
C	 1.3298505286	-0.6952896688	-0.1898977892	-0.337241
C	 0.7190439531	-0.6548166329	 1.1996881871	 0.359486
C	 1.3690143125	 0.1502357367	 2.310517542	-0.304558
C	 2.1282226251	-0.8130730232	 3.2181270197	-0.076945
O	 1.2667725383	-1.8572892788	 3.6932360564	-0.226179
C	 0.3827931889	-2.3312254139	 2.7801829017	 0.106929
N	 0.1000593456	-1.879579685	 1.63165503	-0.306134
H	 0.8170650687	 2.0346617256	 0.2343638988	 0.110876
H	-0.2729662616	 1.8081090443	-1.1319584081	 0.119652
H	-0.9258061771	 1.9122377064	 0.5077579245	 0.119112
H	-0.8544272275	-0.5308271018	-0.2933937908	 0.096858
H	 1.3191885917	-1.6454542213	-0.7102329275	 0.118969
H	 2.2168754295	-0.0909098456	-0.3584490592	 0.103204
H	 2.0565778804	 0.9088688065	 1.9266722284	 0.104105
H	 0.6030135692	 0.667825764	 2.9014319404	 0.113203
H	 2.9641576554	-1.2733550908	 2.6754894491	 0.114441
H	 2.5216173773	-0.322439007	 4.1112252541	 0.115919
H	-0.1101351288	-3.2211248292	 3.1659275157	 0.12252
87.1871	160.708	199.8255	207.4084	255.8498	358.1348	376.7607	426.1128	464.2513	539.328	595.3783	689.3238	780.3525	816.9152	871.6037	881.4513	903.7828	931.6805	955.3499	983.8396	998.4626	1033.5716	1049.1269	1093.9341	1120.2827	1127.138	1151.212	1185.6675	1218.5036	1266.5348	1278.2634	1315.8185	1368.2731	1399.852	1404.1429	1416.7073	1425.8629	1476.7181	1483.5693	1494.4841	1505.2836	1507.6302	1720.4462	3022.5873	3028.5435	3034.1058	3087.1579	3091.1322	3102.596	3104.1607	3123.4828	3154.1227	3162.9784	3220.9036
CC1CC11CCOC=N1	C[C@H]1C[C@]21CCOC=N2	
InChI=1S/C7H11NO/c1-6-4-7(6)2-3-9-5-8-7/h5-6H,2-4H2,1H3	InChI=1S/C7H11NO/c1-6-4-7(6)2-3-9-5-8-7/h5-6H,2-4H2,1H3/t6-,7-/m0/s1
