21
gdb 93028	2.3332	1.85327	1.40767	1.7676	82.07	-0.2331	0.0053	0.2385	1030.8605	0.184879	-387.082981	-387.075177	-387.074233	-387.114866	31.707	
C	-0.2454534702	 1.5021747599	 0.2423374198	-0.386081
C	 0.0161372885	 0.0108119895	-0.0164943171	 0.014366
C	 0.8425476582	-0.2066392722	-1.3132703047	-0.285486
C	 2.3508504499	-0.0850822866	-1.2641953771	-0.045697
C	 3.1558850252	-0.4181402848	-0.2532107781	-0.055945
C	 2.6577976701	-0.8891211415	 1.0880789984	 0.065804
C	 1.4798401221	-1.8929954917	 1.0370441783	-0.291246
C	 0.6170546292	-0.6311645741	 1.2432587767	 0.10434
O	 1.782947046	 0.1001782415	 1.7058168623	-0.287776
H	 0.6969149029	 2.0299597631	 0.4073849227	 0.139975
H	-0.7634201669	 1.9603171936	-0.6059402859	 0.103921
H	-0.8667973942	 1.645664368	 1.1328745632	 0.109346
H	-0.9534092495	-0.4801781398	-0.1832463858	 0.068848
H	 0.6119486577	-1.2044402236	-1.715597532	 0.113772
H	 0.4629243703	 0.4889408518	-2.0705301146	 0.101843
H	 2.8094561214	 0.2606799894	-2.1886513639	 0.09091
H	 4.2312051607	-0.3220974639	-0.3782714439	 0.084296
H	 3.4877477684	-1.1424132951	 1.7540767302	 0.071718
H	 1.3441794024	-2.475981669	 0.1254925631	 0.105331
H	 1.4636330699	-2.553942405	 1.9053863071	 0.106713
H	-0.1446235421	-0.6804051396	 2.0304253814	 0.071049
104.6303	209.7883	221.1535	292.5963	316.5025	360.2839	407.0148	435.6782	511.1464	615.9308	695.0862	728.4417	804.5	823.0814	859.9646	898.7595	905.3534	917.9133	943.192	967.7033	996.6519	1022.0722	1034.0384	1046.4776	1097.4156	1100.7874	1123.1571	1172.8851	1224.6401	1243.9296	1257.0068	1263.2462	1308.9565	1313.5884	1346.1507	1360.6734	1388.2582	1389.8324	1408.7352	1420.8174	1473.0477	1493.7344	1498.7298	1503.7883	1712.7088	2990.9218	3006.3067	3032.984	3037.9805	3051.4933	3061.3498	3082.0429	3099.1816	3128.2141	3137.5906	3137.9268	3166.4011
CC1CC=CC2CC1O2	C[C@H]1CC=C[C@@H]2C[C@H]1O2	
InChI=1S/C8H12O/c1-6-3-2-4-7-5-8(6)9-7/h2,4,6-8H,3,5H2,1H3	InChI=1S/C8H12O/c1-6-3-2-4-7-5-8(6)9-7/h2,4,6-8H,3,5H2,1H3/t6-,7+,8+/m0/s1
