14
gdb 132266	2.04415	1.82909	0.9711	1.2161	70.06	-0.2397	-0.0499	0.1899	1124.9915	0.10053	-478.019924	-478.012338	-478.011394	-478.052229	28.161	
C	 0.0251578637	 1.506291875	 0.0072362321	-0.465676
C	-0.0371890822	 0.0121042351	 0.017646795	 0.30633
C	-1.1809720477	-0.6943672674	-0.1180509575	-0.205185
C	-1.1742555748	-2.1363181739	-0.0998284571	 0.393788
N	-2.172491566	-2.8991189556	-0.2161066138	-0.528043
O	 0.1275803445	-2.6996865846	 0.0717064596	-0.23983
C	 1.1663321462	-1.8848425668	 0.1927128486	 0.403249
F	 2.2608785088	-2.5857479374	 0.3396123669	-0.034908
N	 1.2022010989	-0.6188502971	 0.1816255776	-0.422368
H	 0.6827248496	 1.8472672291	-0.7997989862	 0.14975
H	-0.962919932	 1.9511059609	-0.1222285937	 0.131405
H	 0.4638030837	 1.8684826665	 0.9433572018	 0.149744
H	-2.1436055395	-0.2189921271	-0.2453673015	 0.127964
H	-1.9057448233	-3.8817253168	-0.1702878421	 0.233781
134.5339	155.4781	186.3077	209.5625	299.4348	355.5522	482.1626	558.6043	568.3804	573.1875	626.2311	695.7687	759.4694	834.5449	881.6881	881.8814	964.4003	1004.0706	1062.181	1064.6788	1081.9987	1215.335	1240.4372	1370.8482	1394.1581	1420.1725	1469.6787	1480.2061	1653.3268	1706.7202	1774.3044	3040.4115	3096.3685	3141.3781	3235.9913	3507.9031
CC1=CC(=N)OC(F)=N1	C[C@H]1C=C([NH])OC(=N1)F	
InChI=1S/C5H5FN2O/c1-3-2-4(7)9-5(6)8-3/h2,7H,1H3	InChI=1S/C5H6FN2O/c1-3-2-4(7)9-5(6)8-3/h2-3,7H,1H3/t3-/m0/s1
