21
gdb 120013	2.48074	1.12874	0.8797	2.1488	80.26	-0.2244	-0.0232	0.2012	1413.2613	0.17974	-424.231661	-424.221542	-424.220598	-424.267462	36.219	
C	-0.3206932746	 1.3684288383	 0.2197564712	-0.387369
C	 0.2070880078	-0.0539602523	 0.1706977224	-0.048115
O	 0.2200121258	-0.4768007617	-1.1907905339	-0.254168
C	 0.6796447747	-1.7774368944	-1.3716976774	 0.050286
C	 0.7179749843	-2.3081988987	-2.8424087523	-0.061472
C	 0.7778080362	-1.2000082002	-3.8893166689	-0.383268
C	 2.1021933846	-2.9744365418	-2.5512515973	-0.351253
C	 2.1971816574	-2.0765688244	-1.3049649114	 0.364895
O	 3.102135479	-1.6439846014	-0.650607926	-0.300504
H	 0.3250106175	 2.036755518	-0.3567054156	 0.130007
H	-1.3302061522	 1.4205399855	-0.1981136368	 0.124221
H	-0.3529515318	 1.7244561172	 1.2537208903	 0.117361
H	 1.2199029135	-0.1138919442	 0.5888390038	 0.123909
H	-0.4368597953	-0.7299003061	 0.758298131	 0.085439
H	 0.1468511211	-2.4921359926	-0.717798316	 0.082219
H	-0.0845775583	-3.0114281874	-3.0733959032	 0.079394
H	 1.592048911	-0.4980774332	-3.6810055014	 0.126209
H	 0.9411114604	-1.6234581445	-4.88536034	 0.113107
H	-0.1520392917	-0.6256465446	-3.9036122753	 0.130893
H	 2.0361815786	-4.0346920992	-2.2878352673	 0.128313
H	 2.891992392	-2.8441967224	-3.2950352359	 0.129896
61.2412	74.3666	88.0272	124.285	206.8032	223.861	250.3842	273.2303	343.6544	375.6038	430.3831	515.0544	582.5688	713.4456	730.2	823.2658	836.3982	883.1264	894.9529	913.809	1000.9939	1032.0309	1067.879	1083.2096	1096.7306	1139.3128	1163.0214	1187.3811	1200.0343	1206.567	1247.4715	1271.3385	1297.3751	1356.0631	1361.444	1402.6671	1414.1141	1434.5587	1446.5002	1483.2263	1491.8075	1496.5664	1501.2502	1528.8888	1882.9758	2934.814	2965.8532	3038.1906	3044.2063	3045.6031	3059.2101	3082.5643	3107.3245	3117.2637	3120.0868	3120.9471	3122.5306
CCOC1C(C)CC1=O	CCO[C@H]1[C@@H](C)CC1=O	
InChI=1S/C7H12O2/c1-3-9-7-5(2)4-6(7)8/h5,7H,3-4H2,1-2H3	InChI=1S/C7H12O2/c1-3-9-7-5(2)4-6(7)8/h5,7H,3-4H2,1-2H3/t5-,7-/m0/s1
