21
gdb 119614	4.11004	0.95995	0.88611	2.1293	78.67	-0.2261	0.0887	0.3148	1401.6762	0.182089	-424.205615	-424.196651	-424.195707	-424.239637	33.801	
C	-0.2601144153	 1.5134053869	 0.1923758398	-0.386283
C	-0.1952743885	-0.0030563157	 0.1421822781	-0.054558
O	 0.8776372934	-0.4291606598	 0.9745476305	-0.296859
C	 0.9994260742	-1.8064497296	 1.0849653428	 0.412717
C	 0.0674897955	-2.5792981738	 2.00706419	-0.390783
C	 1.5423496029	-2.4179928632	 2.3343154861	 0.044687
O	 2.4285278248	-3.4615360091	 2.0366606687	-0.258996
C	 2.2266528799	-3.8259477483	 0.6678032169	-0.092713
C	 1.6547266276	-2.5859581468	-0.0510941589	-0.306765
H	 0.6786199144	 1.9501974274	-0.1599711679	 0.127607
H	-1.0735116913	 1.8808146629	-0.4405034981	 0.114808
H	-0.4334772926	 1.8567460598	 1.2162540503	 0.126021
H	-1.1389549525	-0.4480643733	 0.4924922388	 0.091884
H	-0.0352572872	-0.3481937992	-0.8909043202	 0.090864
H	-0.6101867055	-1.9796346549	 2.6054890334	 0.118219
H	-0.3220130548	-3.5468571367	 1.7080283358	 0.114049
H	 1.8485964084	-1.8335844234	 3.1931504836	 0.112552
H	 3.1868274178	-4.1577821791	 0.2643397984	 0.114028
H	 1.5250444901	-4.6695288835	 0.6052533019	 0.099876
H	 0.9780132915	-2.8682737357	-0.8628862997	 0.103521
H	 2.4507074272	-1.9593835748	-0.4672213801	 0.116124
69.0291	93.2973	129.4689	213.1978	242.8262	268.071	335.3703	377.249	409.0374	457.3879	635.653	694.9992	706.3821	819.5923	836.8222	861.6209	895.5905	928.7715	931.9007	972.572	1005.2367	1007.4901	1018.6026	1059.0252	1092.9831	1108.0009	1150.816	1163.723	1187.8743	1214.8519	1230.4708	1257.1819	1273.4567	1294.0312	1311.4235	1370.889	1399.2909	1408.8169	1428.8835	1474.2158	1483.2633	1496.5325	1500.3702	1526.0228	1528.2657	2979.8856	3003.2188	3010.4716	3044.8868	3047.7312	3086.4666	3098.9647	3119.2251	3121.7067	3129.5541	3194.5115	3220.7332
CCOC12CC1OCC2	CCO[C@]12C[C@H]1OCC2	
InChI=1S/C7H12O2/c1-2-9-7-3-4-8-6(7)5-7/h6H,2-5H2,1H3	InChI=1S/C7H12O2/c1-2-9-7-3-4-8-6(7)5-7/h6H,2-5H2,1H3/t6-,7-/m1/s1
