16
gdb 69756	3.05257	1.59161	1.32411	4.4192	68.42	-0.2423	0.0207	0.263	982.9189	0.123918	-437.857526	-437.850071	-437.849127	-437.889262	29.043	
C	-0.0913526762	 1.5281109049	 0.0558750813	-0.506152
C	 0.1502126184	 0.0567742832	-0.0032156555	 0.427894
O	-0.7715178404	-0.8217000078	 0.6583111584	-0.268114
C	 0.6153972165	-0.940509699	 0.9787289178	-0.079836
C	 1.287267305	-1.795670281	-0.1480617604	-0.016731
N	 0.4697421896	-2.7976138133	-0.825448184	-0.314474
C	-0.1127593849	-1.9047793672	-1.7201740811	 0.435056
O	-0.9647801621	-2.034705883	-2.5515559593	-0.35251
C	 0.7796292347	-0.7509000417	-1.1841438147	-0.299257
H	 0.8137083453	 2.080724114	-0.2151761782	 0.128734
H	-0.8846596398	 1.8145954298	-0.6431093978	 0.145903
H	-0.3977131685	 1.8226975813	 1.0629547083	 0.138604
H	 0.90027093	-0.8506175978	 2.0215268344	 0.109664
H	 2.3425702121	-2.0334131315	-0.0174921334	 0.095386
H	 0.0554626079	-3.6419631081	-0.4543869114	 0.250912
H	 1.4467559724	-0.2221222227	-1.8609161445	 0.104923
140.6614	153.9692	196.8739	263.1255	345.4341	412.376	472.6113	503.4952	572.1087	646.2386	702.1293	746.6853	785.8321	841.282	874.8245	881.1545	901.1661	962.2715	997.8726	1026.9557	1048.8232	1093.2116	1125.4174	1136.7398	1164.1958	1195.7861	1240.1962	1261.251	1306.4444	1349.1192	1404.6842	1461.4268	1481.4872	1493.411	1899.953	3037.9048	3102.7902	3119.0178	3124.5052	3153.4576	3175.7631	3591.0247
CC12OC1C1NC(=O)C21	C[C@]12O[C@H]1[C@H]1NC(=O)[C@@H]21	
InChI=1S/C6H7NO2/c1-6-2-3(4(6)9-6)7-5(2)8/h2-4H,1H3,(H,7,8)	InChI=1S/C6H7NO2/c1-6-2-3(4(6)9-6)7-5(2)8/h2-4H,1H3,(H,7,8)/t2-,3-,4-,6+/m0/s1
