19
gdb 52253	3.53743	1.00636	0.92639	4.0857	75.31	-0.231	0.0253	0.2563	1304.652	0.160532	-419.179711	-419.171142	-419.170198	-419.214085	31.469	
O	 0.5988595299	 0.4722809054	 1.2051502969	-0.3267
C	 0.3133761107	 1.3150643351	 0.3791117727	 0.158977
N	 1.141761813	 1.7629921771	-0.6005705165	-0.26873
C	 2.5081622573	 1.2803114614	-0.7587746235	-0.194195
C	 3.5448003916	 2.18150979	-0.0875761124	 0.001274
C	 3.6205582442	 2.2654562313	 1.4641378746	-0.187858
N	 5.093187998	 1.9306692703	 1.468845982	-0.124658
C	 5.1798111128	 0.5748440513	 0.9039257355	-0.239803
C	 4.9962054011	 1.703810911	-0.0323545162	-0.052437
H	-0.679217262	 1.8058998549	 0.3364036223	 0.07845
H	 0.8091209809	 2.4998114186	-1.2017563957	 0.248282
H	 2.5340931346	 0.2782628081	-0.3258881913	 0.143223
H	 2.7267204466	 1.1894596983	-1.8293305248	 0.108503
H	 3.4867881894	 3.1856022043	-0.5199594374	 0.074635
H	 3.4614166367	 3.2679491906	 1.8645892917	 0.108481
H	 3.0029852131	 1.5507940849	 2.0155144651	 0.135762
H	 6.1768168956	 0.1501444779	 0.9727731957	 0.120785
H	 4.3739653475	-0.1298552102	 1.0970008535	 0.123942
H	 5.785552319	 2.0250463796	-0.7053608421	 0.092067
48.412	57.5901	142.8791	198.1609	235.4396	303.6331	406.1184	442.3207	506.013	522.4386	709.5802	747.4382	761.526	785.6902	867.6775	908.952	957.1999	975.9614	992.5056	1014.13	1032.486	1064.253	1096.6265	1113.6104	1128.4195	1158.9917	1200.3438	1206.8605	1226.1533	1257.8784	1289.0773	1299.0776	1356.3976	1377.1925	1407.2677	1429.0974	1469.5272	1495.0161	1513.7595	1531.9469	1798.2835	2937.0119	3038.8509	3051.3159	3064.7977	3106.0875	3120.2304	3125.8005	3152.7682	3196.7046	3635.9903
O=CNCC1CN2CC12	O=CNC[C@H]1CN2C[C@@H]12	
InChI=1S/C6H10N2O/c9-4-7-1-5-2-8-3-6(5)8/h4-6H,1-3H2,(H,7,9)	InChI=1S/C6H10N2O/c9-4-7-1-5-2-8-3-6(5)8/h4-6H,1-3H2,(H,7,9)/t5-,6-,8?/m0/s1
