17
gdb 87013	2.08638	1.64238	1.0801	2.4205	77.33	-0.2364	-0.0284	0.208	1136.5556	0.132283	-421.802576	-421.793266	-421.792322	-421.836382	34.997	
C	 0.0860249322	 1.3650954762	 0.381879348	-0.503006
C	-0.031639204	-0.0202144497	-0.2032312805	 0.370678
O	 0.9176939598	-0.5660022838	-0.7506686755	-0.364826
C	-1.334375228	-0.732337145	-0.0683918288	-0.051715
C	-1.6467781119	-1.7718513357	-1.1747907143	-0.346965
C	-1.1824734761	-2.3098617496	 0.1154444091	 0.130743
O	 0.0484880181	-2.8767451384	 0.2972841343	-0.408198
C	-2.4339561781	-0.0893347293	 0.5822409807	 0.205229
C	-3.3732125707	 0.4273484081	 1.1305298004	-0.40285
H	 1.0938494661	 1.746028832	 0.2162003191	 0.141351
H	-0.6531730038	 2.0337226684	-0.0711783029	 0.152757
H	-0.1370936328	 1.340012416	 1.4537729037	 0.156401
H	-2.6930925051	-1.8622786844	-1.4418027843	 0.138966
H	-0.9405383511	-1.7740223071	-1.9984286338	 0.143343
H	-1.9168386997	-2.7236782452	 0.7975561051	 0.134825
H	 0.6824572189	-2.3588551072	-0.2318830158	 0.310432
H	-4.1977884537	 0.8886184046	 1.6150162354	 0.192834
81.44	142.4639	143.1806	162.2186	226.397	253.4815	348.6028	410.3191	469.3778	507.8165	523.6287	534.2392	568.0974	597.3055	639.4727	644.1874	666.8731	705.2276	847.817	917.6003	969.6351	990.8999	1051.7294	1075.1968	1100.6545	1141.395	1204.567	1257.0534	1315.8305	1373.7003	1389.7291	1447.4069	1454.5	1468.6234	1486.6118	1735.3105	2227.3555	3045.1437	3106.4363	3137.4313	3159.6854	3187.3656	3237.8322	3502.1785	3609.4775
CC(=O)C1(CC1O)C#C	CC(=O)[C@]1(C[C@H]1O)C#C	
InChI=1S/C7H8O2/c1-3-7(5(2)8)4-6(7)9/h1,6,9H,4H2,2H3	InChI=1S/C7H8O2/c1-3-7(5(2)8)4-6(7)9/h1,6,9H,4H2,2H3/t6-,7-/m1/s1
