14
gdb 133089	4.12614	1.14019	0.89838	2.718	67.03	-0.2643	-0.0303	0.234	1193.0903	0.101876	-478.033278	-478.025872	-478.024927	-478.065547	26.913	
C	-0.017535946	 1.4041938858	 0.0153857794	-0.236576
O	 0.0166492001	-0.0269798804	-0.0259233573	-0.258154
C	 0.6149826549	-0.5990847153	-1.0728925283	 0.492061
N	 1.1517282566	 0.159645941	-2.028598656	-0.350804
C	 1.7285602282	-0.4947471694	-3.0364935767	 0.068925
N	 1.8270112557	-1.811764229	-3.1929961617	-0.314351
C	 1.2808345564	-2.5254427684	-2.2214229784	 0.373219
F	 1.3627476534	-3.8406161163	-2.3483816946	-0.058835
C	 0.6487219925	-1.9980588106	-1.1142224764	-0.399778
H	 0.9934928213	 1.8185716413	 0.0286420658	 0.143311
H	-0.5513868991	 1.8070122515	-0.8487834659	 0.14333
H	-0.5433446624	 1.6510903135	 0.9379646377	 0.136257
H	 2.1680368145	 0.1185986984	-3.8190498208	 0.130171
H	 0.2128372741	-2.610714142	-0.3380932567	 0.131223
101.891	157.5973	228.7126	231.6586	243.9774	386.3834	485.1005	485.9199	566.8584	641.5448	718.4821	792.5079	828.1284	872.8817	956.1534	1000.7413	1002.4793	1056.5286	1177.3133	1189.5533	1209.2324	1294.8344	1323.7247	1361.4024	1431.2419	1480.8111	1488.8185	1496.7406	1519.387	1606.3402	1636.0344	3051.9377	3128.1209	3157.5407	3170.5723	3237.0985
COC1=NC=NC(F)=C1	COc1ncnc(F)c1	
InChI=1S/C5H5FN2O/c1-9-5-2-4(6)7-3-8-5/h2-3H,1H3	InChI=1S/C5H5FN2O/c1-9-5-2-4(6)7-3-8-5/h2-3H,1H3
