18
gdb 55156	3.57657	1.2287	1.01589	3.8754	72.49	-0.2385	0.0322	0.2707	1176.0926	0.147885	-439.107243	-439.098931	-439.097987	-439.140731	30.618	
C	-0.018676353	 1.495137373	 0.1450414136	-0.498608
C	 0.0312148106	-0.0228330072	 0.0734466236	 0.396499
O	 1.0750321461	-0.6478510524	 0.1631858751	-0.372757
N	-1.1650097091	-0.6627488907	-0.0986587236	-0.090005
C	-2.4814922383	-0.0387167016	-0.2272193106	-0.202125
C	-3.3411479032	-1.1408381916	-0.8098557628	 0.033777
O	-2.8230668221	-1.6706957022	-2.0315579326	-0.248707
C	-2.5696079443	-2.3876784756	-0.8170351919	 0.025832
C	-1.199557965	-2.1213370082	-0.2388997172	-0.183037
H	 0.9856391139	 1.8540732319	 0.366928697	 0.147975
H	-0.3478270946	 1.9235597423	-0.8079487966	 0.141188
H	-0.709399104	 1.8443414434	 0.919130199	 0.132781
H	-2.893181693	 0.2793964079	 0.7425615387	 0.111175
H	-2.4470775806	 0.8367883931	-0.8836796296	 0.128805
H	-4.422749747	-1.0928892131	-0.7231661833	 0.107234
H	-3.0188638651	-3.373215816	-0.7402356982	 0.108025
H	-0.3811624451	-2.4514285809	-0.8838875905	 0.146204
H	-1.0853930862	-2.6283066122	 0.72913477	 0.115742
55.4162	118.2662	145.5063	221.0047	231.261	335.2276	347.423	444.5838	540.6349	597.6558	632.61	694.2241	825.2269	841.4301	868.4504	916.7774	951.5138	991.3112	1004.2809	1036.7976	1050.0122	1064.2693	1102.773	1126.9946	1203.734	1229.2725	1237.8804	1262.5193	1320.1208	1355.1999	1363.1312	1380.6525	1426.7438	1452.5289	1471.852	1484.1437	1501.3583	1510.9659	1762.5897	2990.9761	3017.8558	3040.6373	3068.7145	3096.4646	3102.3331	3157.7721	3162.3825	3170.4218
CC(=O)N1CC2OC2C1	CC(=O)N1C[C@H]2O[C@H]2C1	
InChI=1S/C6H9NO2/c1-4(8)7-2-5-6(3-7)9-5/h5-6H,2-3H2,1H3	InChI=1S/C6H9NO2/c1-4(8)7-2-5-6(3-7)9-5/h5-6H,2-3H2,1H3/t5-,6+
