21
gdb 78765	2.4832	1.55032	1.25255	1.1908	82.14	-0.2384	0.0824	0.3208	1114.3173	0.181274	-387.046138	-387.037337	-387.036393	-387.078724	35.207	
C	-0.0294238335	 1.6028101838	 0.0416234567	-0.426526
C	 0.1093521413	 0.0847766481	 0.0242312055	 0.000878
C	 1.1765276074	-0.6048408295	-0.821275347	-0.15806
C	 1.3347943458	-1.7269576687	 0.1879191594	-0.188633
C	 2.4513470557	-0.7382013678	 0.0396983566	 0.403026
O	 3.6833022545	-1.003849911	-0.5241072001	-0.467635
C	 2.1680773252	-0.1043100292	 1.3969822988	-0.349684
C	 0.7318474895	-0.6960650727	 1.2364612467	 0.305053
C	-0.0982364181	-1.0393129058	 2.4458909889	-0.505789
H	 0.9303399266	 2.104484865	 0.1944998972	 0.112723
H	-0.4377375798	 1.9617077785	-0.9099378695	 0.113043
H	-0.711993298	 1.9304871005	 0.8342885761	 0.112684
H	-0.8656630642	-0.3692016818	-0.1966586317	 0.06533
H	 1.245406697	-0.6895992513	-1.8995268536	 0.078466
H	 1.2928674911	-2.8016626454	 0.0883743294	 0.091939
H	 3.9772768547	-0.2156929417	-0.9941310519	 0.283521
H	 2.7159398152	-0.6286452451	 2.1861630767	 0.098555
H	 2.2759418483	 0.9779725831	 1.5326708093	 0.080726
H	-0.373215251	-0.1344795958	 3.0014017183	 0.11764
H	-1.0251414991	-1.5490104071	 2.1599894999	 0.115341
H	 0.4473880914	-1.6952439659	 3.1329148944	 0.117401
156.807	183.1515	201.6854	211.4626	261.6581	288.6052	297.3198	385.7759	405.7428	478.216	557.0466	579.721	613.2076	701.3276	755.3789	784.3905	840.0794	874.6575	900.9092	914.536	960.0097	977.4579	1004.2172	1049.3272	1060.9368	1101.9741	1111.8585	1116.4792	1146.1365	1176.9983	1194.653	1203.9543	1253.3259	1292.1873	1302.1205	1341.7415	1388.5018	1405.6431	1412.8336	1436.2805	1488.0938	1491.4844	1493.4419	1495.4895	1515.478	3016.3107	3020.5427	3026.8306	3032.6482	3083.4476	3087.2618	3088.0034	3092.7478	3109.12	3182.8832	3226.2885	3791.6817
CC1C2C3C2(O)CC13C	C[C@H]1[C@@H]2[C@H]3[C@]2(O)C[C@@]13C	
InChI=1S/C8H12O/c1-4-5-6-7(4,2)3-8(5,6)9/h4-6,9H,3H2,1-2H3	InChI=1S/C8H12O/c1-4-5-6-7(4,2)3-8(5,6)9/h4-6,9H,3H2,1-2H3/t4-,5+,6+,7-,8-/m0/s1
