25
gdb 118120	3.40266	0.73797	0.66703	1.3539	90.04	-0.2545	0.0756	0.3301	1834.5501	0.226916	-389.487201	-389.475918	-389.474974	-389.524126	41.046	
C	-0.1463691806	 1.5961529381	 0.0858336544	-0.382214
C	 0.0044835161	 0.0756514737	-0.0057435657	-0.165874
C	 0.6605610776	-0.5394729803	 1.2340544471	-0.175696
C	 0.8769132301	-2.0554605466	 1.1262885812	 0.105752
O	 1.6797201584	-2.3877399831	-0.0114521365	-0.435549
C	 1.4562513643	-2.6315816164	 2.4015169396	-0.01661
C	 0.5618956836	-3.1723086978	 3.4955105273	-0.30301
C	 1.4376650098	-4.1123361981	 2.7033230722	-0.002945
C	 0.8465572602	-5.131271511	 1.7527075446	-0.398107
H	 0.8279940561	 2.0853910417	 0.198030614	 0.110137
H	-0.6207366656	 2.0049105212	-0.8119806089	 0.110627
H	-0.7594552832	 1.8853976161	 0.9470317112	 0.110525
H	-0.9826602374	-0.3826904179	-0.1535782895	 0.090976
H	 0.5978399711	-0.1931463331	-0.8860176075	 0.109327
H	 1.6351329047	-0.0594341938	 1.4135290835	 0.077909
H	 0.0529334833	-0.3339978561	 2.1251873635	 0.096406
H	-0.0890879109	-2.529885283	 0.9170252869	 0.079602
H	 2.5768708533	-2.0871274352	 0.1715368542	 0.273317
H	 2.342503996	-2.0973888988	 2.7440158138	 0.069218
H	 0.8092981418	-2.9559247352	 4.5290568584	 0.107383
H	-0.5053640937	-3.2003711632	 3.2940996623	 0.107931
H	 2.3194363907	-4.4709843427	 3.2291828637	 0.07958
H	-0.0861248677	-4.7787032207	 1.3037434393	 0.116054
H	 1.5373336601	-5.3577477021	 0.9345502562	 0.12567
H	 0.6225163619	-6.0651176858	 2.2799246447	 0.109591
51.3851	87.5748	98.1156	101.1785	165.7026	206.615	218.7585	241.1479	252.3419	329.7767	358.5634	380.7691	400.6297	520.3984	586.2553	749.1717	777.9633	829.9129	855.7735	857.0993	897.2425	917.7012	954.0145	997.6957	1035.4346	1045.5406	1067.0509	1082.8925	1103.3865	1109.8413	1122.8778	1149.1842	1170.8097	1198.033	1237.7985	1247.3199	1276.2119	1294.3089	1329.1182	1355.3396	1391.6521	1397.572	1411.9179	1414.6198	1423.3857	1436.584	1478.0347	1490.3446	1494.1694	1495.1575	1499.7277	1503.781	1511.5085	2991.5766	3020.6721	3026.6357	3034.1657	3037.8886	3050.0257	3071.6337	3095.5832	3096.539	3099.6762	3101.3147	3108.7703	3122.4611	3133.926	3206.5478	3797.9597
CCCC(O)C1CC1C	CCC[C@@H](O)[C@H]1C[C@H]1C	
InChI=1S/C8H16O/c1-3-4-8(9)7-5-6(7)2/h6-9H,3-5H2,1-2H3	InChI=1S/C8H16O/c1-3-4-8(9)7-5-6(7)2/h6-9H,3-5H2,1-2H3/t6-,7+,8-/m1/s1
