22
gdb 119381	3.11504	1.04489	0.9109	1.6816	83.71	-0.238	0.0835	0.3215	1408.0587	0.193567	-404.272093	-404.262711	-404.261766	-404.306784	35.116	
C	 0.5367729679	 1.7676058552	-0.3756605188	-0.386014
C	 0.3537326409	 0.2726397155	-0.1831409163	-0.065478
O	 0.8484194033	-0.3922438801	-1.3396990822	-0.295814
C	 0.745198979	-1.7653686685	-1.3012974668	 0.387256
C	 1.4017207659	-2.8030686819	-0.3485722195	-0.23667
N	 0.649097979	-3.6807732451	-1.3579221562	-0.156398
C	-0.5045799519	-2.6812559056	-1.1846197261	-0.251346
C	 1.2127390139	-2.7069789764	-2.4277098466	 0.032613
C	 0.6166176257	-2.7246551685	-3.8207762293	-0.443511
H	 1.5943039944	 2.0102496458	-0.51272429	 0.128275
H	-0.0102658452	 2.1107637281	-1.2583275408	 0.128053
H	 0.1651313951	 2.3123170988	 0.4974806217	 0.115697
H	 0.8967802189	-0.0731952755	 0.7097395978	 0.094933
H	-0.7091867715	 0.0274423351	-0.0348158621	 0.094899
H	 2.4874645838	-2.9241250347	-0.3870467131	 0.101001
H	 1.0173272788	-2.8976594571	 0.6697159806	 0.097842
H	-0.9936831615	-2.7644897349	-0.2109426473	 0.099376
H	-1.238195631	-2.6936070415	-1.9900478662	 0.104077
H	 2.300863227	-2.8173223809	-2.4957079052	 0.072434
H	-0.4602079192	-2.5469396115	-3.8473424961	 0.120482
H	 1.095230734	-1.9497072191	-4.4283201821	 0.128198
H	 0.8127091326	-3.6914717472	-4.2957139453	 0.130096
66.054	72.7797	123.5634	158.2135	229.8647	251.4757	337.2204	340.7472	399.2669	444.9764	579.3921	613.6235	665.7323	751.0681	803.0035	822.0209	846.5127	871.9089	931.6718	973.4714	985.1774	1009.1077	1048.4963	1080.02	1094.185	1115.8797	1131.8196	1163.4861	1173.4742	1183.7989	1186.8622	1195.3143	1219.7724	1253.427	1297.6082	1308.4673	1401.7557	1406.1061	1427.4282	1438.614	1484.0665	1490.6129	1493.3285	1500.1901	1517.7662	1527.1006	1556.1918	2978.8714	3009.0529	3039.4589	3044.9649	3045.3149	3055.4535	3074.0095	3105.2378	3119.3054	3122.8258	3123.7556	3127.7063	3147.3055
CCOC12CN(C1)C2C	CCO[C@@]12CN(C1)[C@H]2C	
InChI=1S/C7H13NO/c1-3-9-7-4-8(5-7)6(7)2/h6H,3-5H2,1-2H3	InChI=1S/C7H13NO/c1-3-9-7-4-8(5-7)6(7)2/h6H,3-5H2,1-2H3/t6-/m0/s1
