19
gdb 111481	2.79857	1.43387	1.06957	3.7495	74.31	-0.2503	-0.0309	0.2193	1140.601	0.160311	-423.044803	-423.036776	-423.035832	-423.077481	31.393	
O	 0.1603759853	 1.3771110178	 0.0395828679	-0.426875
C	 0.1081870652	-0.0315402395	 0.0187071594	-0.063195
C	-1.3388519565	-0.5547243105	 0.0186352425	-0.129956
C	-1.533836814	-2.0569716681	-0.0803932802	-0.056261
C	-1.1582900786	-2.894032912	 1.1208677334	-0.293761
C	-2.5967629767	-2.4922125384	 0.9186416181	-0.045494
C	-3.0742346233	-1.2712271516	 1.6811415305	-0.323491
C	-2.0882785179	-0.1632591636	 1.3005249369	 0.379336
O	-1.9030386455	 0.8550946446	 1.9272146719	-0.332665
H	-0.3611936315	 1.6503114455	 0.8075956666	 0.294835
H	 0.6152453462	-0.3589233485	-0.8953493169	 0.105433
H	 0.6536827947	-0.4752414808	 0.8676644097	 0.086504
H	-1.8629779247	-0.0578241304	-0.8115721066	 0.112767
H	-1.4817100324	-2.5183754398	-1.0595111278	 0.093028
H	-0.896125878	-3.9306369024	 0.9423527878	 0.120109
H	-0.5995933561	-2.4341001203	 1.9316834514	 0.11952
H	-3.3171279682	-3.2567940314	 0.654318531	 0.093126
H	-4.0744818478	-0.9597017104	 1.3509958927	 0.133878
H	-3.1168954005	-1.3850198801	 2.7684545718	 0.133161
80.2035	137.5315	184.1817	233.8349	331.2043	372.42	437.5708	471.8684	560.6063	577.3831	621.7085	657.9171	749.6073	801.0995	825.4668	873.3594	926.4607	942.2862	983.6095	1003.0271	1054.4173	1067.4187	1083.2348	1090.7034	1105.2678	1125.0945	1149.9386	1184.6491	1202.0337	1217.8825	1274.0872	1286.367	1307.281	1356.1237	1384.9228	1391.5478	1452.9824	1458.4072	1492.2347	1511.2431	1814.7494	2969.066	3005.9208	3030.1233	3065.0919	3088.805	3122.8928	3174.5226	3183.123	3212.9304	3734.084
OCC1C2CC2CC1=O	OC[C@H]1[C@H]2C[C@H]2CC1=O	
InChI=1S/C7H10O2/c8-3-6-5-1-4(5)2-7(6)9/h4-6,8H,1-3H2	InChI=1S/C7H10O2/c8-3-6-5-1-4(5)2-7(6)9/h4-6,8H,1-3H2/t4-,5-,6-/m0/s1
