18
gdb 31493	3.23028	1.10984	0.84454	2.4149	76.88	-0.1909	0.0396	0.2306	1354.7068	0.14787	-435.302991	-435.293171	-435.292227	-435.338287	34.66	
C	 0.0887461539	 1.4942978893	 0.0634661388	-0.496418
C	 0.0477305924	 0.0023539957	 0.0004753621	 0.24019
C	 0.0736291994	-0.8042456074	-1.1140429723	 0.172716
N	 0.2006258886	-0.5760362158	-2.499978396	-0.618073
N	 0.014365325	-2.0979025117	-0.6303794765	-0.283384
C	-0.0300885064	-2.0206898517	 0.7269304451	 0.336174
C	-0.1578703179	-3.2408453691	 1.5790586035	-0.193069
O	 0.4041246827	-4.3336793613	 0.8577606963	-0.428687
N	-0.0064015352	-0.7751475897	 1.1426179011	-0.370063
H	 0.0089595591	 1.932438839	-0.9366622576	 0.098736
H	-0.7364154603	 1.8843492459	 0.6687170467	 0.131663
H	 1.0185060226	 1.8573163073	 0.5172189254	 0.128776
H	-0.6981619729	-0.492546947	-2.9665017129	 0.242973
H	 0.7214879051	 0.2727688109	-2.6830981198	 0.246885
H	 0.1132667699	-2.94435564	-1.1659806136	 0.269707
H	 0.3566254174	-3.0575333698	 2.5319634144	 0.122087
H	-1.2181438992	-3.4348604436	 1.8104504344	 0.10607
H	 0.1711187059	-5.1458018112	 1.316096961	 0.293716
55.0926	78.9474	124.0776	145.6466	198.9873	236.8355	255.032	261.6437	348.1176	383.8635	521.5346	576.5808	644.64	654.4434	680.9648	707.8511	778.1912	823.4538	991.5585	1029.6037	1037.1734	1062.5519	1075.3202	1138.2554	1181.4312	1225.9995	1227.7987	1249.395	1298.5992	1407.8519	1430.8916	1458.2413	1474.9582	1477.4107	1496.6773	1513.4933	1572.1636	1630.5939	1663.1733	2964.1615	3025.5469	3028.5831	3079.9481	3100.0667	3490.0877	3590.7301	3669.6346	3839.4446
CC1=C(N)NC(CO)=N1	Cc1c(N)[nH]c(CO)n1	
InChI=1S/C5H9N3O/c1-3-5(6)8-4(2-9)7-3/h9H,2,6H2,1H3,(H,7,8)	InChI=1S/C5H9N3O/c1-3-5(6)8-4(2-9)7-3/h9H,2,6H2,1H3,(H,7,8)
