17
gdb 81452	2.66401	1.77982	1.43014	1.7508	66.75	-0.253	0.0638	0.3168	943.7693	0.136401	-458.910618	-458.903361	-458.902417	-458.942046	29.096	
O	 0.0188351839	 1.4894894198	-0.0674294406	-0.443391
C	-0.0000774873	 0.1027452335	 0.0420149695	 0.151042
C	 0.1106887373	-0.6430991165	 1.4111460887	 0.020007
C	-1.0016499365	-0.0217146386	 2.2776128036	-0.317895
C	-2.0865318125	-0.0315004114	 1.1870334908	 0.443896
C	-3.5328376312	 0.050536869	 1.3437762516	-0.273941
O	-2.7834154686	 1.1839254627	 0.8688725121	-0.300998
C	-1.3190276534	-0.7166562993	 0.0546658992	-0.067949
O	-0.5950469249	-1.7562712739	 0.7705941026	-0.291191
H	-0.826578693	 1.8450675145	 0.2314854362	 0.310783
H	 0.710584042	-0.3184251983	-0.6708221282	 0.106054
H	 1.0560910381	-0.9192700603	 1.8754233214	 0.087303
H	-1.2442239837	-0.654768028	 3.1334815415	 0.120029
H	-0.7810490975	 0.9920365919	 2.6221045434	 0.121488
H	-4.1893072833	-0.412152272	 0.6081067947	 0.123674
H	-3.9603113513	 0.168852744	 2.3382400594	 0.12402
H	-1.8583644281	-1.044650867	-0.8328897059	 0.087068
126.5826	207.3407	259.7316	329.2865	346.4912	377.0452	450.1869	486.8031	590.8292	632.5165	777.3286	798.8647	829.4175	852.0744	876.2123	899.9564	943.0536	948.2672	977.46	1004.4763	1040.3837	1116.9603	1127.707	1141.1776	1167.52	1183.4202	1197.3124	1199.4704	1244.151	1279.5053	1288.5288	1321.6923	1330.7112	1431.0171	1444.6044	1474.7074	1536.7933	3071.1056	3085.2996	3111.3788	3125.3855	3135.7315	3140.1503	3172.9418	3791.5478
OC1C2CC3(CO3)C1O2	O[C@H]1[C@H]2C[C@]3(CO3)[C@@H]1O2	
InChI=1S/C6H8O3/c7-4-3-1-6(2-8-6)5(4)9-3/h3-5,7H,1-2H2	InChI=1S/C6H8O3/c7-4-3-1-6(2-8-6)5(4)9-3/h3-5,7H,1-2H2/t3-,4+,5-,6+/m1/s1
