18
gdb 51627	4.78191	0.95698	0.93618	4.8119	74.62	-0.2465	0.025	0.2715	1294.852	0.1486	-439.053664	-439.045852	-439.044908	-439.087991	29.231	
N	-0.0891882832	 1.2748175037	 0.101758438	-0.44196
C	-0.0575859762	 0.0160017973	 0.0201673009	 0.118565
O	-1.1926703863	-0.6986067806	 0.1326890416	-0.191435
C	-1.0944827965	-2.1155828604	 0.1035621156	 0.153932
C	-1.3764987726	-2.7770580441	 1.4889489632	-0.262113
C	-2.6320445236	-3.5703921122	 1.0674346762	 0.079824
C	-2.2226044072	-4.2164396141	-0.2764547591	-0.238023
C	-2.2945932235	-2.7193711988	-0.6543013511	 0.044825
O	-3.3773127182	-2.5677530665	 0.3089110725	-0.286732
H	 0.8480779981	 1.6524902248	-0.0192440103	 0.228056
H	 0.835116212	-0.6039284253	-0.1487220533	 0.081312
H	-0.134594228	-2.4128950138	-0.3338599707	 0.082017
H	-0.5575665184	-3.4044974677	 1.8496752316	 0.10199
H	-1.6112027926	-2.0161800374	 2.2349316046	 0.133732
H	-3.2182238273	-4.0789038878	 1.8317791137	 0.087701
H	-1.2710520657	-4.7507431733	-0.3502195252	 0.095639
H	-3.0375899403	-4.7823394028	-0.727180223	 0.120541
H	-2.5151336605	-2.339684611	-1.6508945052	 0.092129
14.4593	108.7686	115.451	294.064	345.3762	388.2451	426.5773	560.1848	652.9371	731.7455	813.9802	824.2171	846.8916	870.2629	881.3353	892.258	950.599	969.7842	984.4047	1014.8995	1040.5115	1044.2366	1088.4539	1097.7458	1137.4398	1177.9363	1201.4318	1227.6311	1228.9538	1265.236	1290.5842	1299.1998	1314.2404	1331.7691	1394.1054	1433.39	1472.4569	1491.1591	1744.9876	3007.0826	3040.0719	3062.5415	3073.9745	3131.6776	3135.7385	3139.5794	3149.6973	3519.7577
N=COC1CC2CC1O2	[NH][CH]O[C@H]1C[C@@H]2C[C@H]1O2	
InChI=1S/C6H9NO2/c7-3-8-5-1-4-2-6(5)9-4/h3-7H,1-2H2	InChI=1S/C6H9NO2/c7-3-8-5-1-4-2-6(5)9-4/h3-7H,1-2H2/t4-,5+,6-/m1/s1
