23
gdb 101749	4.62829	0.70743	0.64162	2.3315	82.43	-0.2534	0.0585	0.3119	1776.5712	0.20549	-425.41173	-425.401774	-425.40083	-425.447167	37.21	
O	 0.0657736898	 1.4418655318	-0.1408326628	-0.425451
C	 0.0741383168	 0.0503181875	 0.0889423314	-0.060953
C	-1.3470564058	-0.5191288143	 0.0570293779	 0.096359
O	-1.9862987234	-0.0819367615	-1.1520905027	-0.434553
C	-1.3942223389	-2.0363493019	 0.233807858	-0.253358
C	-2.8005038967	-2.6248952446	 0.2541009872	 0.07615
C	-3.6159692624	-2.7579324827	-1.0644414897	-0.211653
C	-4.1536603105	-4.1194510016	-0.549470444	-0.21609
C	-2.9676316502	-4.1583559243	 0.4518744527	-0.239082
H	-0.5958607504	 1.5774046677	-0.8323811551	 0.283942
H	 0.6894608612	-0.4797896074	-0.6625974872	 0.068764
H	 0.5351093991	-0.1223185091	 1.0679247889	 0.104862
H	-1.9267090622	-0.0349734669	 0.8526581302	 0.095925
H	-1.6255346672	-0.6041166893	-1.8785444451	 0.281845
H	-0.8065955587	-2.5138671154	-0.5660481134	 0.08336
H	-0.8818887536	-2.2859072361	 1.1735318167	 0.10338
H	-3.4039574324	-2.0936904356	 1.0003929436	 0.07194
H	-4.33122158	-1.9694201381	-1.3044942395	 0.105612
H	-2.9523105313	-2.8969996701	-1.9257200907	 0.081431
H	-5.1127245296	-4.0072785174	-0.0354616263	 0.10283
H	-4.2404938396	-4.9386916605	-1.2669040436	 0.094939
H	-2.1127602838	-4.7047991074	 0.0383807817	 0.095232
H	-3.1552655402	-4.5260130328	 1.4640574217	 0.094567
54.6916	85.6072	106.8679	147.0917	187.2458	260.524	294.7459	317.7844	344.4958	428.231	466.944	520.5577	582.1376	640.0286	766.8177	788.887	850.0179	876.2508	904.2878	933.3768	951.958	975.3467	991.6866	1031.0975	1073.491	1092.379	1113.6774	1121.6437	1134.8087	1199.4652	1207.1475	1217.0165	1255.197	1257.0937	1261.2331	1266.4659	1287.7317	1300.031	1333.0937	1355.2832	1388.2863	1398.753	1421.6641	1447.4834	1474.1577	1479.9715	1487.1181	1507.1077	1512.2406	2926.1588	2987.8153	3024.9808	3033.528	3039.3319	3044.9197	3049.3206	3057.4041	3068.072	3094.9437	3107.4045	3119.2868	3758.232	3788.8686
OCC(O)CC1CCC1	OC[C@@H](O)CC1CCC1	
InChI=1S/C7H14O2/c8-5-7(9)4-6-2-1-3-6/h6-9H,1-5H2	InChI=1S/C7H14O2/c8-5-7(9)4-6-2-1-3-6/h6-9H,1-5H2/t7-/m0/s1
