20
gdb 14181	2.64924	2.22469	2.10613	0.2735	79.6	-0.2692	0.0945	0.3637	844.214	0.176744	-311.810612	-311.803032	-311.802088	-311.841693	30.415	
C	-0.0049590843	 1.4793230363	-0.0160492789	-0.522639
C	 0.0284141234	-0.0245291984	-0.0609891951	 0.328997
C	 0.5838154068	-0.9415760721	-1.1736858924	-0.315937
C	 0.0634365645	-1.9185384015	-0.1040936557	-0.075673
C	 0.5256448712	-0.9974076026	 1.0711652982	-0.075671
C	-0.8554359419	-1.0429790584	 1.7492629347	-0.315936
C	-1.1761436396	-1.0119660541	 0.2380632753	 0.328997
C	-2.522392472	-1.0228931162	-0.4343951302	-0.522639
H	 1.0054190146	 1.8985473237	-0.0827487026	 0.118415
H	-0.5882709038	 1.8871578458	-0.849650807	 0.117223
H	-0.4550636461	 1.8412285967	 0.915286074	 0.117863
H	 0.0616958253	-0.9285868508	-2.1370043389	 0.085102
H	 1.6679275433	-0.9169430175	-1.3309916645	 0.084507
H	 0.0736853821	-3.0101281016	-0.1005163985	 0.06214
H	 1.5189034701	-0.9917390586	 1.5240352621	 0.06214
H	-1.1103251886	-1.9649381553	 2.2837473358	 0.084507
H	-1.1528181443	-0.1691592072	 2.3398245258	 0.085103
H	-3.1197507218	-0.1529815914	-0.1379313539	 0.117223
H	-2.4239595087	-1.0043682439	-1.525689247	 0.117864
H	-3.09008214	-1.921154213	-0.1662215112	 0.118415
184.2265	203.7715	205.1711	247.0505	271.953	362.8286	434.5905	444.5838	626.8517	629.9173	693.2577	759.9189	849.7388	853.6503	892.4938	896.7093	942.0965	943.509	1000.699	1008.4144	1009.2607	1022.9316	1122.6805	1140.1314	1150.1126	1152.7734	1163.9487	1173.1441	1192.38	1224.9867	1243.1704	1282.8037	1321.2536	1339.6555	1404.8452	1411.4319	1485.3923	1487.109	1491.4303	1495.6893	1508.3724	1510.4184	3020.9216	3020.9246	3025.7068	3029.0377	3079.6856	3079.6985	3085.3569	3086.0715	3089.2308	3089.4311	3089.9884	3100.3418
CC12CC3C1CC23C	C[C@@]12C[C@H]3[C@@H]1C[C@@]23C	
InChI=1S/C8H12/c1-7-3-6-5(7)4-8(6,7)2/h5-6H,3-4H2,1-2H3	InChI=1S/C8H12/c1-7-3-6-5(7)4-8(6,7)2/h5-6H,3-4H2,1-2H3/t5-,6-,7+,8+/m0/s1
