18
gdb 62499	2.09731	1.43351	1.18342	2.3051	74.3	-0.2518	0.0311	0.2829	1136.6613	0.143888	-439.084647	-439.074591	-439.073647	-439.118733	37.342	
C	-0.1119820778	 1.5533612919	-0.0221630674	-0.466214
C	-0.0003121292	 0.0476362205	 0.056512596	 0.355943
O	-1.1093319107	-0.6325759625	-0.4353347955	-0.443095
C	 1.3666204971	-0.644128158	-0.1990655822	-0.354634
C	 2.5531830795	 0.106311651	-0.4575333119	 0.295482
N	 3.5066075975	 0.737239278	-0.6481300243	-0.359128
C	 0.6833859218	-0.6410591004	 1.1957622882	 0.355928
C	 1.3061869935	 0.1248256229	 2.3409281505	-0.466207
O	 0.0933622351	-1.8440787783	 1.5687907371	-0.443091
H	 0.7942448056	 2.062808517	 0.3077131005	 0.146635
H	-0.2907572507	 1.8556014538	-1.061013714	 0.122482
H	-0.95586148	 1.8979083012	 0.5827565882	 0.137493
H	-1.2654061983	-0.329688412	-1.3371998222	 0.287813
H	 1.2763133669	-1.592070453	-0.7178912592	 0.13617
H	 1.8188872083	 1.0306759873	 2.0150812768	 0.146634
H	 0.538683693	 0.3924328692	 3.0731151357	 0.137492
H	 2.0517099201	-0.5039919617	 2.8422304094	 0.122483
H	 0.7571158784	-2.3670480071	 2.0328964443	 0.287814
119.1429	135.7826	182.6371	184.6525	202.947	246.7975	291.2092	296.0775	334.1178	383.4165	385.0286	417.6522	442.2631	490.8866	551.5616	623.147	699.4786	706.391	857.296	927.2478	967.8859	1009.2868	1046.5506	1080.4881	1095.5986	1132.7193	1195.2548	1248.5309	1292.507	1295.1389	1343.2643	1419.0776	1426.4722	1459.9058	1480.8928	1484.1437	1499.8658	1535.754	2333.3539	3035.0612	3037.523	3099.6851	3101.9222	3140.8674	3150.8086	3180.3437	3794.3775	3794.493
CC1(O)C(C#N)C1(C)O	C[C@@]1(O)[C@@H](C#N)[C@]1(C)O	
InChI=1S/C6H9NO2/c1-5(8)4(3-7)6(5,2)9/h4,8-9H,1-2H3	InChI=1S/C6H9NO2/c1-5(8)4(3-7)6(5,2)9/h4,8-9H,1-2H3/t4-,5-,6+
