15
gdb 54753	3.04294	1.80392	1.42571	2.9755	64.05	-0.2661	-0.0035	0.2626	902.6982	0.114398	-453.946122	-453.939341	-453.938397	-453.977049	27.242	
O	-0.3751089978	 0.3426695746	-1.0363642967	-0.263545
C	-0.1072346237	 1.2875122374	-0.0899932895	 0.452192
O	 0.8843992952	 1.3067195674	 0.5771882103	-0.343519
C	-1.296949562	 2.1982396845	-0.0507690854	-0.207122
C	-1.8296391316	 2.7470743079	-1.3378756814	-0.036043
C	-1.3340833292	 1.9896046252	-2.5603248528	-0.283172
C	-1.6072751133	 0.7222740426	-1.715413544	 0.402614
N	-2.2967431105	-0.3585225914	-2.2823410781	-0.569776
H	-1.7243146057	-0.8400814671	-2.968007481	 0.248815
H	-2.5739486884	-1.020229237	-1.5631633054	 0.250309
N	-2.4290738919	 1.5155883503	-0.708509126	-0.157508
H	-1.5063050611	 2.7251802307	 0.8715111973	 0.129729
H	-2.3637172231	 3.6906045101	-1.344976081	 0.117481
H	-2.046233265	 2.0649342008	-3.3828803946	 0.137278
H	-0.313602642	 2.1512046541	-2.9136622717	 0.122268
148.8807	215.2265	309.5799	331.4547	391.3505	474.5616	490.1423	616.2357	643.816	699.6623	737.7894	783.5125	798.9188	825.364	866.8735	899.2947	923.7145	939.0448	1007.6217	1023.4113	1064.7812	1105.1299	1138.2072	1167.7995	1238.5293	1248.8069	1293.9411	1335.7462	1367.7804	1392.1747	1486.5452	1646.5155	1892.3605	3076.6673	3144.505	3180.9837	3207.9287	3506.152	3593.7525
[O-]C(=O)C1C2CC(=[NH2+])N12	O1C(=O)[C@H]2[C@H]3C[C@]1(N)N23	
InChI=1S/C5H6N2O2/c6-3-1-2-4(5(8)9)7(2)3/h2,4,6H,1H2,(H,8,9)	InChI=1S/C5H6N2O2/c6-5-1-2-3(7(2)5)4(8)9-5/h2-3H,1,6H2/t2-,3-,5+,7?/m1/s1
