15
gdb 11294	4.78646	1.40929	1.20386	3.1298	61.88	-0.2878	0.0053	0.293	984.4486	0.118942	-399.813469	-399.805858	-399.804914	-399.846121	26.942	
C	 0.0282298893	 1.5363643564	-0.0617939089	-0.408679
C	 0.1314981171	 0.0317255027	-0.0383498854	 0.223804
O	 0.9040506863	-0.439429266	-1.1181949348	-0.236955
C	 1.3189714537	-1.7340294442	-0.7410218731	-0.132759
C	 1.4811389918	-1.6127823257	 0.8105211601	-0.038281
O	 0.8282381066	-0.3969986441	 1.1330947253	-0.256733
C	 0.8912281055	-2.7571184794	 1.5239171787	 0.267909
N	 0.4394303849	-3.6683102657	 2.0719926796	-0.314034
H	 1.028668321	 1.9747468034	-0.0536552575	 0.137519
H	-0.5003188185	 1.8569148069	-0.9627680783	 0.136564
H	-0.5252281504	 1.8830408379	 0.8138397716	 0.139704
H	-0.8640021379	-0.4472342261	-0.0552497909	 0.080774
H	 0.5645722671	-2.4916193872	-0.9915630493	 0.125932
H	 2.2553206981	-1.9711903988	-1.2479546087	 0.136643
H	 2.5328953953	-1.5293863201	 1.1039875017	 0.138593
43.2266	149.7164	196.613	207.7676	252.7688	324.3235	475.1483	529.9673	573.7293	691.7605	706.4044	837.6019	873.5123	876.4838	999.9549	1059.4866	1073.1472	1089.3373	1123.2026	1135.3088	1168.7633	1243.7616	1296.9745	1349.7365	1354.8058	1396.1969	1398.7561	1441.0528	1484.2702	1486.3379	1516.663	2358.9973	2946.6344	3020.8911	3056.9215	3059.0081	3124.8897	3140.3517	3144.8279
CC1OCC(O1)C#N	C[C@H]1OC[C@@H](O1)C#N	
InChI=1S/C5H7NO2/c1-4-7-3-5(2-6)8-4/h4-5H,3H2,1H3	InChI=1S/C5H7NO2/c1-4-7-3-5(2-6)8-4/h4-5H,3H2,1H3/t4-,5-/m0/s1
