19
gdb 66632	3.3362	1.80675	1.65258	1.7289	76.54	-0.2447	0.0959	0.3407	902.567	0.162242	-385.873884	-385.867446	-385.866502	-385.904268	27.701	
C	 0.0095923481	 1.5298168762	-0.0193090162	-0.520782
C	-0.0036035868	 0.0311327407	 0.0155316226	 0.358041
C	 0.5014767019	-0.9953738464	-0.9718428433	-0.143283
C	 1.1613780496	-0.8777332951	 0.3901525826	-0.126774
C	 0.5915995374	-2.0537738227	 1.2401660771	 0.046035
C	-0.7079017929	-1.4554260646	 1.8192516286	-0.218037
C	-1.15844179	-0.9001905328	 0.4608708755	-0.143419
C	-0.5878398023	-1.9970939387	-0.5545312211	 0.065046
O	 0.058779313	-2.9658240386	 0.2619283551	-0.25478
H	 0.9658834835	 1.9067851776	-0.3975293501	 0.119704
H	-0.7809427392	 1.9216264948	-0.6696466604	 0.119178
H	-0.1415194278	 1.9557065552	 0.979607795	 0.120127
H	 1.0145229421	-0.8915883749	-1.9200858975	 0.08412
H	 2.1695760501	-0.4995701657	 0.4923969309	 0.084944
H	 1.2790414958	-2.572412177	 1.9054111425	 0.072117
H	-1.357410986	-2.2282667342	 2.2376355573	 0.100755
H	-0.5360016954	-0.6652678578	 2.5561794121	 0.094084
H	-2.1852463702	-0.5636228288	 0.332488528	 0.065908
H	-1.2383879609	-2.4663734972	-1.2885276085	 0.077015
202.6933	217.4981	263.4115	432.5746	536.4482	549.5399	597.6692	694.7945	727.2989	781.4683	808.6501	821.8067	846.0322	865.6038	884.6525	915.0062	930.2239	937.6675	958.7696	967.9492	991.9849	1025.4162	1041.1241	1064.2807	1100.208	1117.9174	1138.0461	1184.0202	1192.5994	1221.6142	1232.7559	1258.5216	1262.6931	1287.1598	1305.6971	1334.2524	1412.3669	1442.6173	1476.1926	1487.6321	1498.4709	3021.3917	3058.118	3080.2898	3092.2577	3116.9113	3137.7118	3144.6405	3153.5122	3185.2127	3210.4498
CC12C3C1C1CC2C3O1	C[C@@]12[C@H]3[C@@H]1[C@H]1C[C@@H]2[C@@H]3O1	
InChI=1S/C8H10O/c1-8-3-2-4-5(8)6(8)7(3)9-4/h3-7H,2H2,1H3	InChI=1S/C8H10O/c1-8-3-2-4-5(8)6(8)7(3)9-4/h3-7H,2H2,1H3/t3-,4-,5+,6+,7+,8+/m1/s1
