14
gdb 130924	4.32694	1.23547	1.08309	2.7325	68.02	-0.2588	-0.0495	0.2093	1067.4025	0.102627	-432.851248	-432.844087	-432.843143	-432.883902	25.256	
O	-0.4329571923	 0.5473128207	-0.648975701	-0.224759
C	 0.2320187114	 0.8920367239	 0.2916381903	 0.15623
C	 1.3507356533	 1.911627127	 0.2102367012	-0.26171
C	 1.4576487522	 2.7244747369	-1.142891638	-0.183164
N	 1.0973840696	 3.9024766944	-0.3220861764	 0.082129
N	 0.9822335322	 5.2395007065	-0.1755921493	-0.277388
C	 0.8216206171	 5.299403272	 1.1527042638	 0.025374
N	 0.8618073873	 4.1102605332	 1.8477140268	-0.376345
C	 1.0440185487	 3.2740198966	 0.8453634831	 0.367037
H	 0.0603246086	 0.485289976	 1.3109001975	 0.107317
H	 2.2887983564	 1.4621620427	 0.5529577074	 0.136079
H	 2.4601777808	 2.7805085601	-1.5700627141	 0.147956
H	 0.7161684932	 2.4567465825	-1.8954038984	 0.167616
H	 0.6638040215	 6.2464842175	 1.6469669771	 0.13363
56.6169	109.756	154.2774	222.2052	332.1011	455.371	625.7874	666.625	714.6787	744.8621	769.0924	864.0492	886.3319	955.4365	986.9689	1036.4104	1064.2998	1121.1902	1138.8751	1155.9925	1171.2644	1245.9483	1256.8334	1288.3776	1327.6429	1396.4992	1414.9505	1478.1991	1509.5769	1570.3766	1831.5599	2912.9899	3068.0956	3090.5407	3161.3728	3262.7059
O=CC1CN2N=CN=C12	O=C[C@H]1Cn2ncnc12	
InChI=1S/C5H5N3O/c9-2-4-1-8-5(4)6-3-7-8/h2-4H,1H2	InChI=1S/C5H5N3O/c9-2-4-1-8-5(4)6-3-7-8/h2-4H,1H2/t4-/m1/s1
