16
gdb 11803	3.47117	1.83595	1.38102	4.0475	65.02	-0.2706	0.0107	0.2813	910.7197	0.12965	-383.755219	-383.747683	-383.746738	-383.786993	28.116	
C	-0.2263833026	 1.4829842247	 0.0034808114	-0.40823
C	-0.0356945825	-0.0286380637	-0.0047025076	-0.289294
C	 1.18687886	-0.5610797824	-0.7653733712	 0.452604
O	 1.6243543942	-0.5271754265	-1.8697869057	-0.325657
O	 1.7376228618	-1.169341352	 0.339254231	-0.269017
C	 0.6494785347	-0.704872555	 1.1807941255	 0.465095
C	 0.9038447928	-0.2483974496	 2.5723855946	-0.331573
C	 0.1364917252	-1.5394830759	 2.2966205298	-0.33574
H	 0.6834017627	 1.9957198663	 0.3283157526	 0.133676
H	-0.4768187523	 1.8363124434	-1.0006221981	 0.143039
H	-1.040131432	 1.7701921992	 0.6766202089	 0.124332
H	-0.9499592237	-0.5406324241	-0.3207825796	 0.117064
H	 1.916351507	-0.3418221474	 2.9489987739	 0.13728
H	 0.3577519603	 0.6134823978	 2.9416587944	 0.124886
H	-0.9330644067	-1.5588582933	 2.4786540761	 0.124531
H	 0.6491652512	-2.4743069714	 2.494347774	 0.137005
99.5376	187.2843	199.5791	214.4501	260.3518	340.3701	486.6262	522.6075	550.1565	695.0989	757.1007	779.1176	832.3877	867.5763	892.2253	963.7138	971.0856	1051.8956	1058.8112	1076.0813	1079.5824	1112.722	1138.0359	1184.8428	1222.468	1271.6278	1333.6745	1395.5228	1413.9917	1450.6978	1493.7052	1497.3279	1507.8229	1940.5821	3042.837	3067.9239	3112.9888	3123.2447	3132.9571	3134.902	3216.579	3229.5464
CC1C(=O)OC11CC1	C[C@H]1C(=O)OC21CC2	
InChI=1S/C6H8O2/c1-4-5(7)8-6(4)2-3-6/h4H,2-3H2,1H3	InChI=1S/C6H8O2/c1-4-5(7)8-6(4)2-3-6/h4H,2-3H2,1H3/t4-/m0/s1
