14
gdb 15470	2.85253	2.06604	1.44313	5.3084	61.41	-0.2492	-0.0486	0.2006	860.16	0.108418	-378.744363	-378.737194	-378.73625	-378.776416	25.874	
O	 0.0219278677	 0.0148425413	-0.1543880496	-0.280076
C	-0.0246008614	 1.1997344003	 0.0023682153	 0.401512
C	-1.2573224135	 2.0850365116	 0.1833815267	-0.329598
C	-0.6739977446	 3.4632130604	 0.5385717401	-0.187936
N	 0.673617445	 3.5222119435	-0.0705062313	-0.279501
C	 1.2168821955	 2.1663567748	 0.0097737162	-0.269437
C	 1.984790128	 1.9653756251	 1.2460627732	 0.320207
N	 2.5601641382	 1.7950323065	 2.233563213	-0.315078
H	-1.7955910448	 2.1101084083	-0.7720806813	 0.141442
H	-1.9304482762	 1.6515180016	 0.9267153243	 0.149448
H	-1.2766863624	 4.2996152963	 0.1819689841	 0.123818
H	-0.5688609687	 3.5694078295	 1.6238150132	 0.140364
H	 0.5988081307	 3.7841676739	-1.0474402967	 0.235465
H	 1.8619481964	 1.931220187	-0.8413090571	 0.149369
56.8352	142.5504	154.9064	278.2184	402.9721	450.7764	521.0365	572.5092	628.0413	663.8404	749.3043	810.2734	840.9292	905.8773	954.9813	998.059	1028.0871	1103.0626	1116.0047	1184.0977	1198.5315	1243.2799	1282.3173	1342.6725	1364.9249	1445.7079	1464.2316	1502.7447	1869.2095	2356.8691	3044.9827	3054.1071	3085.1598	3112.3584	3126.0114	3534.4863
O=C1CCNC1C#N	O=C1CCN[C@H]1C#N	
InChI=1S/C5H6N2O/c6-3-4-5(8)1-2-7-4/h4,7H,1-2H2	InChI=1S/C5H6N2O/c6-3-4-5(8)1-2-7-4/h4,7H,1-2H2/t4-/m0/s1
