21
gdb 102623	1.83952	1.19732	0.90927	1.7125	75.57	-0.2653	0.0098	0.275	1420.303	0.179391	-461.406621	-461.395569	-461.394624	-461.444371	38.186	
C	 0.4408082708	 1.5418739764	-0.0695023512	-0.391102
C	 0.2119415784	 0.0289941527	-0.0671461336	-0.173824
C	-1.2599503302	-0.3694489605	-0.0202126236	 0.0957
C	-1.4852117292	-1.8818265277	-0.0052545086	-0.085398
O	-0.8554654734	-2.5138703677	 1.0946463151	-0.418151
O	-1.8143560634	 0.1641054947	 1.217907915	-0.270975
C	-3.0898945598	 0.6201994202	 1.1879460905	 0.433696
C	-3.4879576491	 1.1618386126	 2.5404754175	-0.479645
O	-3.7938481783	 0.5981414943	 0.2111758522	-0.347397
H	 1.5084494824	 1.7740874379	-0.1231714636	 0.116288
H	-0.0480415428	 2.0183543875	-0.926593031	 0.117155
H	 0.0430164679	 2.0000559711	 0.8402542206	 0.122438
H	 0.6380102549	-0.4153162246	-0.9750880606	 0.102488
H	 0.7280873762	-0.4400505153	 0.7765075585	 0.114472
H	-1.8170360128	 0.0694535872	-0.8528353453	 0.11082
H	-2.5672059771	-2.0793034473	-0.0207277182	 0.105729
H	-1.0528449463	-2.3218161877	-0.9100121089	 0.11268
H	-1.178327909	-2.0711993032	 1.8874959894	 0.286087
H	-3.3560030555	 0.3965818242	 3.3103713274	 0.145382
H	-2.8442463825	 2.0048200252	 2.8080441309	 0.152644
H	-4.5275806112	 1.4851333602	 2.5097408573	 0.150914
34.6828	54.0143	85.5195	99.4157	121.5987	174.8514	220.441	246.4117	284.8782	345.3075	387.5128	439.2068	451.6453	602.3128	626.7831	679.6913	769.7301	856.5424	866.6128	945.4893	964.1087	997.83	1029.0646	1055.1774	1063.7456	1084.6424	1134.0671	1173.2369	1232.6421	1254.4003	1288.1565	1318.8677	1371.9922	1373.8128	1397.3107	1410.0595	1414.651	1425.358	1468.2542	1476.7925	1483.1638	1498.63	1501.7757	1509.3715	1824.2009	3000.4861	3037.1325	3038.7629	3057.2319	3075.3801	3079.3446	3090.0135	3107.1192	3118.0268	3121.5881	3169.9399	3804.611
CCC(CO)OC(C)=O	CC[C@@H](CO)OC(=O)C	
InChI=1S/C6H12O3/c1-3-6(4-7)9-5(2)8/h6-7H,3-4H2,1-2H3	InChI=1S/C6H12O3/c1-3-6(4-7)9-5(2)8/h6-7H,3-4H2,1-2H3/t6-/m0/s1
