15
gdb 32379	6.4469	0.87077	0.77449	5.1965	76.77	-0.2626	-0.0611	0.2016	1413.5084	0.113187	-416.855336	-416.847207	-416.846263	-416.888737	28.966	
C	 0.3632880452	 0.7447253322	 0.9070322466	-0.393686
C	-0.3566356927	 0.3611559793	-0.3881314403	-0.292188
C	 0.559343584	-0.095575222	-1.4782938909	 0.25029
C	 1.9157715227	-0.2214886758	-1.4960695006	-0.100794
O	 2.298842366	-0.6778132903	-2.7206444472	-0.160716
C	 1.1328633298	-0.8086343756	-3.3989165671	 0.284408
N	 0.0757846485	-0.4807755525	-2.7200961203	-0.335444
C	 1.1964531229	-1.2758184727	-4.7375908395	 0.263854
N	 1.2502273722	-1.6566840502	-5.8284423851	-0.322212
H	 0.9212625976	-0.1025069052	 1.319102544	 0.125052
H	 1.0681737864	 1.5664445707	 0.7431696595	 0.125062
H	-0.3556287144	 1.0690297842	 1.6634675726	 0.127464
H	-1.0865076958	-0.4346236482	-0.1953212128	 0.132844
H	-0.9418383835	 1.2098624982	-0.7627971492	 0.13285
H	 2.704787871	-0.0463886222	-0.7860852297	 0.163215
52.0847	132.9054	139.4334	220.6155	222.4178	308.7507	395.9209	497.7347	563.7583	605.3017	644.6686	685.7086	736.8324	777.2239	808.8832	965.2332	981.6033	1034.7307	1080.3642	1114.2539	1140.0979	1219.7327	1259.9605	1283.3287	1332.5579	1384.2311	1415.8386	1478.02	1499.7407	1507.9493	1560.8502	1611.6105	2360.2018	3033.7283	3039.861	3059.6853	3105.3848	3120.1861	3301.9312
CCC1=COC(=N1)C#N	CCc1coc(n1)C#N	
InChI=1S/C6H6N2O/c1-2-5-4-9-6(3-7)8-5/h4H,2H2,1H3	InChI=1S/C6H6N2O/c1-2-5-4-9-6(3-7)8-5/h4H,2H2,1H3
