19
gdb 30016	3.01043	1.61698	1.08129	1.6585	83.66	-0.1686	0.0531	0.2216	1120.2385	0.162682	-382.094915	-382.086862	-382.085918	-382.127553	30.655	
C	 0.019066232	 1.4375979445	 0.0653549298	-0.350391
N	 0.0042944928	-0.0074057053	 0.0161903762	-0.099362
C	 0.0116158189	-0.8008586597	-1.1251410889	-0.104559
C	 0.0062594777	-2.1305263775	-0.7527880641	-0.353377
C	 0.0053185195	-2.1540108322	 0.6690520752	 0.262483
C	 0.0180083201	-0.8523399533	 1.0857796979	 0.322665
N	-0.0386245907	-0.6191615563	 2.4770723491	-0.420649
C	-0.3086310311	-1.9977007685	 3.0072819586	-0.160732
C	 0.0235511525	-3.0434893634	 1.8836910613	-0.357319
H	 1.03544994	 1.8443106519	-0.0069809152	 0.129852
H	-0.5757897739	 1.8435319416	-0.7568150378	 0.138383
H	-0.421380811	 1.7631992554	 1.0108606803	 0.152339
H	 0.0112141974	-0.3410051686	-2.1007132448	 0.107157
H	-0.0075940981	-2.9669101967	-1.4354376284	 0.089923
H	 0.8479423524	-0.2727623756	 2.8374084059	 0.224412
H	 0.2527060201	-2.1593563886	 3.9308248648	 0.099993
H	-1.374941061	-2.0551016828	 3.2490151034	 0.117176
H	-0.7246591257	-3.8425334308	 1.8781294182	 0.105129
H	 1.0001603779	-3.5242928742	 2.0407232086	 0.096878
100.6571	142.7263	147.626	226.4317	247.3196	271.0066	496.1689	594.262	599.3014	619.0918	636.2594	676.7594	744.2354	786.3862	790.5141	806.7869	911.0849	929.7597	983.0625	1029.6994	1051.4342	1075.1962	1110.5254	1151.032	1188.6861	1218.4219	1231.7214	1261.6828	1295.7007	1354.6026	1366.1679	1398.5818	1434.6319	1451.7204	1488.891	1490.1942	1498.1008	1508.273	1512.0067	1562.2499	1614.6948	2992.7434	3021.8213	3044.2519	3066.1682	3092.2705	3103.0621	3130.8306	3237.7609	3262.1511	3454.4874
CN1C=CC2=C1NCC2	Cn1ccc2c1NCC2	
InChI=1S/C7H10N2/c1-9-5-3-6-2-4-8-7(6)9/h3,5,8H,2,4H2,1H3	InChI=1S/C7H10N2/c1-9-5-3-6-2-4-8-7(6)9/h3,5,8H,2,4H2,1H3
