21
gdb 40920	3.47081	1.34327	1.19203	1.6072	81.94	-0.2374	0.0708	0.3082	1125.0649	0.184031	-387.043991	-387.036236	-387.035291	-387.076436	30.83	
C	 0.1674310175	 1.6645337236	-0.0306058247	-0.207147
C	 1.6909932432	 1.412423331	 0.1405096012	-0.279732
C	 1.3664729706	-0.0280016014	 0.5966645888	 0.371885
C	-0.0452742744	 0.1261328949	-0.0275149632	-0.286874
C	 2.2525049332	-1.280191691	 0.3385647213	-0.34566
C	 2.257577904	-1.6080014401	 1.8555427515	-0.073435
C	 3.3422632133	-0.8766411068	 2.6639403237	-0.077377
O	 2.5190035986	 0.3072447396	 2.797733232	-0.289007
C	 1.4159752615	-0.328322978	 2.1196777273	 0.050809
H	-0.2689204487	 2.140252117	 0.8518612334	 0.105662
H	-0.1594182448	 2.2143683381	-0.9159027087	 0.095217
H	 2.2169705242	 1.4212552904	-0.8197393878	 0.094216
H	 2.2434498509	 2.0268514686	 0.8544687689	 0.114456
H	-0.892241365	-0.2777896217	 0.5364740097	 0.09281
H	-0.0787439529	-0.2834248723	-1.0424631786	 0.096708
H	 1.7542351698	-2.0368671726	-0.2745682516	 0.100534
H	 3.2385414098	-1.0832977199	-0.0950681787	 0.097189
H	 1.9774031928	-2.6120600184	 2.1702707971	 0.075557
H	 3.561925569	-1.3155374506	 3.6456559562	 0.099841
H	 4.2873243557	-0.6728574177	 2.1439220895	 0.098624
H	 0.4858597116	-0.2682873027	 2.6943161827	 0.065723
73.1488	125.2086	205.4465	252.5731	323.1636	368.0558	466.8617	496.9293	672.6203	750.7192	771.0354	800.4346	846.095	852.5407	886.718	901.1894	917.4953	934.6991	950.2972	969.4753	1000.8623	1014.2444	1046.5993	1061.9799	1132.5258	1152.1641	1154.8394	1178.1161	1191.186	1204.6422	1215.2097	1229.4858	1252.7667	1258.1015	1271.2038	1280.5967	1292.3512	1306.2277	1324.6632	1358.89	1473.8888	1475.8032	1485.6419	1506.3713	1522.8059	3005.2833	3037.7733	3040.5522	3048.5665	3050.0522	3052.7961	3062.5056	3084.8481	3091.6536	3108.0516	3120.8059	3121.4171
C1CC2(C1)CC1COC21	C1CC2(C1)C[C@H]1CO[C@@H]21	
InChI=1S/C8H12O/c1-2-8(3-1)4-6-5-9-7(6)8/h6-7H,1-5H2	InChI=1S/C8H12O/c1-2-8(3-1)4-6-5-9-7(6)8/h6-7H,1-5H2/t6-,7+/m0/s1
