21
gdb 31703	3.70983	0.87862	0.78714	1.3996	87.9	-0.1809	0.0545	0.2355	1557.9712	0.183403	-383.303609	-383.293741	-383.292797	-383.339444	35.929	
C	 0.2593472026	 1.3779011522	-0.3384762596	-0.359938
C	-0.0252720149	 0.0785694828	 0.4341318749	-0.295912
C	-1.381621266	-0.5018311411	 0.1535990285	 0.301095
C	-2.4422633177	-0.5611414648	 1.0278181653	-0.194335
N	-3.5064284853	-1.1431627018	 0.3763176477	-0.271423
C	-3.1444199607	-1.4623510104	-0.9099765175	 0.31174
N	-4.0701010317	-2.1054666011	-1.7537111679	-0.385448
C	-5.0244612749	-1.2225672297	-2.4373989053	-0.323701
C	-1.8348248406	-1.068657003	-1.0801109503	-0.328054
H	 1.2603604041	 1.7611138165	-0.1132586705	 0.102763
H	 0.1962695583	 1.2148103665	-1.4191917516	 0.114489
H	-0.4700813419	 2.1518148597	-0.0792095672	 0.114326
H	 0.7519656337	-0.6571824211	 0.1879225721	 0.097787
H	 0.0687612591	 0.2701338099	 1.5097123595	 0.092797
H	-2.5251315331	-0.2364820689	 2.0530459585	 0.107735
H	-4.3806822732	-1.4142532594	 0.7914887314	 0.255664
H	-3.5741994615	-2.6701813494	-2.4318762803	 0.232297
H	-4.5453800456	-0.4652587452	-3.0769760909	 0.109684
H	-5.6976932134	-1.8289937839	-3.0505205379	 0.117162
H	-5.6307698798	-0.6967899077	-1.694281583	 0.124123
H	-1.2636881475	-1.1676777802	-1.991984026	 0.07715
38.1509	53.4215	111.5281	168.5191	181.0566	210.4905	297.9237	343.3046	403.9346	423.1846	505.7066	569.9847	658.2369	685.7862	702.5394	718.5147	777.3453	785.866	800.9315	946.958	982.4578	1005.192	1052.474	1062.6774	1087.5524	1122.8061	1141.9111	1158.613	1189.1146	1252.2349	1295.6921	1326.2755	1362.3492	1405.2242	1415.7941	1425.6252	1452.1592	1482.5425	1487.4036	1495.7505	1501.9333	1506.128	1514.1452	1561.2799	1631.6754	2983.6601	3013.4672	3031.2113	3051.7338	3075.5564	3100.304	3106.9352	3113.2365	3231.415	3255.5784	3558.0212	3680.9565
CCC1=CNC(NC)=C1	CCc1c[nH]c(NC)c1	
InChI=1S/C7H12N2/c1-3-6-4-7(8-2)9-5-6/h4-5,8-9H,3H2,1-2H3	InChI=1S/C7H12N2/c1-3-6-4-7(8-2)9-5-6/h4-5,8-9H,3H2,1-2H3
