20
gdb 64109	3.36573	1.00645	0.94027	4.6362	88.68	-0.2588	-0.0386	0.2203	1340.8829	0.170987	-366.058531	-366.0494	-366.048456	-366.092176	34.599	
C	-0.0322636973	 1.5633391297	-0.0279559769	-0.432635
C	-0.0088364225	 0.0265262985	-0.0039994382	 0.26487
C	-1.4555548308	-0.5145706204	 0.0352917386	-0.418769
C	 0.7937142527	-0.5703326057	-1.2013295329	-0.259884
C	 1.5819993247	-1.7798619346	-0.6439827494	-0.319471
C	 1.6139766955	-1.4894747026	 0.8472814527	 0.18983
C	 0.7615959193	-0.5130605161	 1.1827745689	-0.173142
C	 2.4313311029	-2.2208158227	 1.7518490221	 0.197886
N	 3.1120962199	-2.8329598895	 2.4621567079	-0.337633
H	 0.9813352921	 1.9758448185	-0.0097572613	 0.119494
H	-0.5291496037	 1.9258522698	-0.9344412214	 0.119277
H	-0.5774970015	 1.9656585162	 0.8327269155	 0.116365
H	-2.0256532908	-0.1381168829	-0.8209955267	 0.118665
H	-1.4729804101	-1.6083418203	 0.0033204933	 0.120476
H	-1.9719581228	-0.1979384539	 0.9475854484	 0.118179
H	 0.1437793953	-0.8425758986	-2.0370642056	 0.104065
H	 1.4994487936	 0.1807949167	-1.5695360814	 0.107711
H	 1.0764458372	-2.7353353882	-0.8314019373	 0.124634
H	 2.5840354885	-1.8684159009	-1.0737668156	 0.124998
H	 0.5924159379	-0.1642089428	 2.1958705792	 0.115082
90.2454	114.4801	150.0947	229.1461	264.3142	275.7141	318.5029	345.2808	370.6674	490.0889	510.848	566.1314	570.0855	595.9281	757.0801	841.6089	900.1664	916.1077	923.71	940.0165	959.4164	979.1273	1009.2217	1041.6806	1127.2529	1135.1629	1198.2255	1227.062	1253.017	1260.5622	1295.0667	1323.3268	1351.9468	1397.2734	1420.1723	1480.104	1483.6352	1490.0408	1499.7749	1501.9734	1508.6593	1677.3616	2335.8461	3026.4531	3030.0263	3033.1145	3052.4958	3082.1651	3094.6757	3099.8174	3101.3159	3105.8101	3106.0003	3196.7682
CC1(C)CCC(=C1)C#N	CC1(C)CCC(=C1)C#N	
InChI=1S/C8H11N/c1-8(2)4-3-7(5-8)6-9/h5H,3-4H2,1-2H3	InChI=1S/C8H11N/c1-8(2)4-3-7(5-8)6-9/h5H,3-4H2,1-2H3
