16
gdb 49389	2.69716	1.9452	1.53425	2.8027	67.92	-0.2408	-0.0237	0.2171	887.1341	0.124243	-437.791505	-437.784456	-437.783512	-437.822966	27.276	
O	-0.1489412026	-0.0499597887	 0.0629246291	-0.260974
C	-0.0737867833	 1.1502294788	 0.1255441086	 0.146101
C	 1.2140034381	 1.943968169	 0.1529624927	-0.083494
C	 1.567968625	 2.9913108611	 1.1177931888	-0.074491
C	 1.2517966612	 2.5663057213	 2.5561699729	 0.097192
O	 0.1191478605	 1.666906993	 2.6906534905	-0.304596
C	 1.0105611815	 0.5080518344	 2.7795695177	-0.11208
C	 2.1999608445	 1.3835870234	 2.3803889874	-0.0158
N	 2.4590741879	 1.7443573451	 0.9181567663	-0.180528
H	-0.9725414089	 1.796268639	 0.0305258173	 0.092283
H	 1.4755906242	 2.2043093668	-0.8769441209	 0.132769
H	 1.9111253232	 3.9802619983	 0.8298145335	 0.103302
H	 1.3005148304	 3.3230414617	 3.3405533693	 0.094097
H	 1.0782705572	 0.1601676055	 3.8176120606	 0.11001
H	 0.7084736896	-0.3067715021	 2.1221639816	 0.155845
H	 3.1528561215	 1.2680068433	 2.8922005745	 0.100362
137.8561	148.6182	183.7905	309.0704	345.2811	425.0141	590.8748	646.0767	687.0764	709.3515	729.9998	821.4034	873.6688	907.2596	918.6743	929.6606	976.4745	1000.2088	1015.5325	1054.6481	1061.434	1081.2056	1113.4677	1174.0047	1206.7018	1235.6018	1245.2974	1291.05	1306.8345	1340.3617	1350.7694	1413.334	1424.0306	1515.9765	1815.5411	2902.1904	3031.9944	3074.0525	3100.178	3138.981	3142.9412	3159.9911
O=CC1C2C3OCC3N12	O=C[C@H]1[C@H]2[C@H]3OC[C@H]3N12	
InChI=1S/C6H7NO2/c8-1-3-5-6-4(2-9-6)7(3)5/h1,3-6H,2H2	InChI=1S/C6H7NO2/c8-1-3-5-6-4(2-9-6)7(3)5/h1,3-6H,2H2/t3-,4+,5-,6-,7?/m0/s1
