19
gdb 120467	3.78475	0.81288	0.71948	1.9743	73.52	-0.2511	-0.029	0.2222	1582.6774	0.156472	-460.149391	-460.139341	-460.138397	-460.18544	34.753	
C	 0.6392957441	 1.4554470998	 0.2076139097	-0.228259
O	 0.794538218	 0.0553447398	 0.2125848969	-0.23707
C	-0.1968317779	-0.602184211	 0.9696867806	-0.061615
C	 0.0762050466	-2.0913570624	 0.9210188453	-0.127458
C	 1.2857936302	-2.6985031787	 1.7028668754	-0.283339
C	 0.3856032274	-3.9127331112	 2.1381969454	 0.070311
O	 0.4509296544	-4.4586673089	 3.4185131294	-0.433332
C	-0.7920407899	-2.9940274304	 1.808019252	 0.320222
O	-1.8475299755	-2.8407494014	 2.3609339866	-0.315514
H	 0.7030690938	 1.8770382336	 1.223170267	 0.106412
H	 1.447255912	 1.8712483766	-0.3989277634	 0.129571
H	-0.3258321016	 1.7580336845	-0.2283918039	 0.107003
H	-0.1887686642	-0.2489155409	 2.0151491078	 0.090276
H	-1.2026129194	-0.3928373798	 0.5689216711	 0.103088
H	 0.0752886761	-2.4358954327	-0.1186941283	 0.113039
H	 2.1799893248	-2.9378247892	 1.1289650732	 0.120987
H	 1.5493759221	-2.0834714244	 2.5670257883	 0.11927
H	 0.4833461506	-4.7157932798	 1.3961281612	 0.111153
H	-0.2502825915	-4.0493557636	 3.940723026	 0.295255
55.8132	84.1886	99.8721	119.4754	127.4308	226.4847	248.6231	276.2789	329.9774	366.5536	413.0011	534.9596	650.2676	700.7421	810.2629	839.9177	915.2965	942.1403	990.1224	1005.5688	1037.7174	1099.4132	1131.2795	1157.6954	1163.7964	1175.6288	1195.1317	1228.4357	1237.4369	1254.2826	1269.0149	1321.0463	1356.1853	1413.6836	1422.0603	1480.6715	1482.76	1485.6093	1503.3508	1524.7414	1860.6008	2954.4038	2973.7421	2985.9522	3017.0551	3029.328	3061.663	3078.6126	3117.0111	3151.4163	3776.7067
COCC1CC(O)C1=O	COC[C@H]1C[C@@H](O)C1=O	
InChI=1S/C6H10O3/c1-9-3-4-2-5(7)6(4)8/h4-5,7H,2-3H2,1H3	InChI=1S/C6H10O3/c1-9-3-4-2-5(7)6(4)8/h4-5,7H,2-3H2,1H3/t4-,5-/m1/s1
