16
gdb 20758	3.37552	1.95858	1.2616	3.8229	68.55	-0.2076	0.0075	0.2151	951.466	0.129882	-379.928286	-379.919805	-379.918861	-379.961163	30.137	
C	-0.0677124395	 1.5065085166	-0.0120308343	-0.5036
C	-0.0654781634	 0.0138259978	 0.0294478156	 0.377121
N	-0.1731613615	-0.6957227623	-1.0690410514	-0.214542
O	-0.1515916586	-2.0244428079	-0.6716454753	-0.22273
C	-0.0110642769	-2.0901683526	 0.6746901825	 0.387023
C	 0.0290748806	-3.4430733752	 1.2892700226	-0.501563
C	 0.0446457972	-0.8260335222	 1.1818299808	-0.039335
N	 0.0944829312	-0.3831836784	 2.5150470085	-0.610807
H	 0.8877869417	 1.9181879097	 0.3348090096	 0.126473
H	-0.2379760786	 1.8526147057	-1.0331017364	 0.151017
H	-0.8515526922	 1.9111639285	 0.6371121946	 0.141775
H	 0.6616389039	-4.1153640976	 0.7016564692	 0.150112
H	 0.4379446042	-3.3913889819	 2.3029912792	 0.123735
H	-0.9672290848	-3.896336344	 1.3531299947	 0.147463
H	 0.277695384	-1.135679306	 3.1672501045	 0.24154
H	 0.7883556728	 0.3419930599	 2.6563461055	 0.246319
91.6079	135.3432	149.5897	173.6986	239.1805	258.016	321.6256	349.4934	482.9158	573.7132	623.7967	692.0157	717.0377	764.4118	790.7516	942.5484	994.0713	1012.9174	1040.0391	1059.8421	1066.4297	1225.8089	1248.4415	1298.3976	1407.2501	1417.5429	1467.9168	1472.7043	1480.8861	1489.236	1507.9268	1549.4796	1648.2682	1705.8024	3029.49	3031.2419	3085.3177	3087.6142	3112.5117	3139.0334	3519.0658	3608.558
CC1=NOC(C)=C1N	Cc1noc(C)c1N	
InChI=1S/C5H8N2O/c1-3-5(6)4(2)8-7-3/h6H2,1-2H3	InChI=1S/C5H8N2O/c1-3-5(6)4(2)8-7-3/h6H2,1-2H3
