21
gdb 117493	1.83755	1.31243	0.82226	1.2964	83.81	-0.2393	0.021	0.2603	1468.7353	0.181527	-420.385071	-420.374713	-420.373769	-420.421563	36.237	
C	-0.2825173729	 1.3868612975	 0.3308034651	-0.393481
C	-0.0843309031	-0.1031165393	 0.1224884485	-0.027627
O	-1.3675079124	-0.7299977301	 0.2485430875	-0.274449
C	-1.4183760449	-2.079696339	 0.1000390075	 0.412903
N	-0.3639221582	-2.7322493796	-0.1539342363	-0.319083
C	-0.3501383523	-4.169225509	-0.3160246851	-0.329556
C	-2.8189462503	-2.5632673886	 0.280529477	-0.087416
C	-3.6556824935	-1.9906226468	 1.3772638601	-0.228938
N	-3.9561184035	-1.6720326908	-0.0185871603	-0.317201
H	 0.6772985148	 1.9048214847	 0.2446309751	 0.122081
H	-0.9640432585	 1.8003918302	-0.4184287646	 0.125821
H	-0.6961511178	 1.5926191316	 1.3224193062	 0.125146
H	 0.3288908751	-0.3288858259	-0.8659661482	 0.117506
H	 0.5990954615	-0.5347044074	 0.861234689	 0.115878
H	 0.2251164866	-4.4193558001	-1.2143268806	 0.127584
H	 0.1755187192	-4.6275936473	 0.530886686	 0.126899
H	-1.331782653	-4.653865232	-0.4008579306	 0.108822
H	-2.9882646816	-3.59423156	-0.003796923	 0.103506
H	-4.3797735771	-2.6297006484	 1.874649073	 0.121589
H	-3.2018140634	-1.2252692648	 1.9987945563	 0.125292
H	-3.5818404548	-0.749697795	-0.2297886328	 0.244724
58.5861	69.5689	73.7744	119.4416	141.977	227.5239	249.4143	262.4424	314.1624	332.8867	373.7968	536.3645	603.0499	713.2651	776.3191	811.111	832.6161	896.1923	924.432	977.006	1004.1232	1067.1794	1086.0514	1113.5885	1133.3904	1136.888	1143.2468	1159.0313	1184.0359	1189.9677	1276.4714	1285.5966	1300.8316	1316.0406	1385.6695	1399.3037	1422.249	1454.2035	1486.2337	1486.6441	1496.8473	1500.069	1506.8931	1522.475	1755.7495	3003.4475	3043.8557	3047.4788	3060.4723	3074.5619	3082.6873	3116.7197	3118.7725	3121.3339	3186.1642	3209.9318	3509.001
CCOC(=NC)C1CN1	CCOC(=NC)[C@H]1CN1	
InChI=1S/C6H12N2O/c1-3-9-6(7-2)5-4-8-5/h5,8H,3-4H2,1-2H3	InChI=1S/C6H12N2O/c1-3-9-6(7-2)5-4-8-5/h5,8H,3-4H2,1-2H3/t5-/m1/s1
