21
gdb 118956	3.16144	0.89421	0.84624	2.2495	74.78	-0.2457	0.0567	0.3024	1466.073	0.179802	-461.338109	-461.327712	-461.326767	-461.374064	37.478	
C	-0.322815156	 1.4403792228	 0.103248467	-0.411738
C	 0.1312118506	 0.0009129987	-0.0199692562	 0.107602
O	 1.3160401177	-0.1414718355	-0.8408393333	-0.292509
C	 2.0627515408	-0.7439360314	 0.232009602	-0.100801
C	 0.8659209974	-0.6487891913	 1.199411842	 0.314359
O	 1.1805784885	 0.2351283735	 2.2626138595	-0.4688
C	 0.2626935897	-1.9541205163	 1.705837677	-0.256114
C	 1.1460172533	-2.689004314	 2.7082867486	-0.075916
O	 0.4579880073	-3.8687764716	 3.0964642901	-0.420922
H	 0.4482990152	 2.0512346388	 0.5774756456	 0.132993
H	-0.5356074126	 1.8450619724	-0.8908864392	 0.127839
H	-1.2416360608	 1.5083669951	 0.6976100897	 0.105188
H	-0.6814373334	-0.6264220353	-0.41326302	 0.065766
H	 2.3992140104	-1.7578369374	-0.0173455394	 0.096173
H	 2.9212889703	-0.13588387	 0.5382281527	 0.110318
H	 0.3919111572	 0.3474829353	 2.8054694852	 0.279823
H	-0.7093863806	-1.7494175895	 2.1773010753	 0.098269
H	 0.058932109	-2.6174338923	 0.8579763599	 0.117729
H	 2.1168466798	-2.9274636724	 2.2440874281	 0.09017
H	 1.3514612788	-2.0375576738	 3.5694145051	 0.093828
H	 0.9977731273	-4.3312833257	 3.7439864403	 0.286745
45.6155	85.7738	105.9693	131.5875	209.665	259.0432	268.7746	281.7665	310.1095	329.4203	376.9966	433.0909	455.7825	559.9607	717.0085	801.7503	805.9637	880.9549	939.6511	970.1475	999.8612	1011.159	1033.8655	1058.2094	1089.3095	1100.3761	1121.5992	1160.7946	1161.9305	1208.6835	1245.9578	1256.3066	1294.5114	1307.9103	1341.852	1348.2112	1380.1701	1402.424	1409.3138	1460.5909	1484.5973	1485.0111	1490.9262	1515.0071	1529.0311	2969.0904	2997.0439	3009.8619	3017.772	3019.0867	3035.2545	3069.2311	3075.8287	3102.0519	3134.368	3796.6656	3831.1043
CC1OCC1(O)CCO	C[C@H]1OC[C@]1(O)CCO	
InChI=1S/C6H12O3/c1-5-6(8,2-3-7)4-9-5/h5,7-8H,2-4H2,1H3	InChI=1S/C6H12O3/c1-5-6(8,2-3-7)4-9-5/h5,7-8H,2-4H2,1H3/t5-,6-/m1/s1
