19
gdb 53487	3.93584	0.75276	0.73301	3.3473	85.35	-0.2522	0.0263	0.2784	1623.2379	0.156645	-382.061152	-382.050151	-382.049207	-382.098509	38.265	
C	 0.1026091757	 1.5298563585	 0.0499336951	-0.49959
C	 0.0526198639	 0.075071748	 0.0317671728	 0.092489
C	 0.0112885908	-1.1276380015	 0.0069999094	 0.064973
C	-0.015611615	-2.5833527114	-0.0102861947	-0.367455
C	-1.4538344773	-3.1862766376	-0.0180627246	 0.075956
C	-2.2598282094	-2.7272951315	 1.2068463421	-0.393502
N	-2.1478055108	-2.7511394394	-1.2321049836	-0.500248
C	-1.308107929	-4.6651291464	 0.024363815	 0.252389
N	-1.2115034483	-5.8177588531	 0.0138011837	-0.343358
H	 0.9951307653	 1.9013417578	-0.4655036339	 0.150406
H	-0.7715009102	 1.9617806966	-0.4495368991	 0.152038
H	 0.1262550054	 1.9175558289	 1.074279405	 0.14812
H	 0.5182890126	-2.961560163	-0.8916203811	 0.135846
H	 0.516665126	-2.9849625417	 0.8601930417	 0.14366
H	-2.342683209	-1.6393604142	 1.1836561279	 0.149589
H	-3.2626090523	-3.1638434818	 1.1916072696	 0.126148
H	-1.7691952426	-3.0349920261	 2.1336634506	 0.132714
H	-1.6565281	-3.0795529486	-2.0587889709	 0.23983
H	-3.0787031657	-3.1566664333	-1.2643905149	 0.239996
23.661	54.2692	80.2245	160.7513	191.2555	205.1454	240.3694	264.5545	289.1568	349.7453	380.232	385.578	392.5406	468.672	578.2472	586.3056	741.5711	783.4664	863.058	882.6443	936.9548	998.6192	1050.941	1054.5863	1054.8542	1155.5347	1163.2239	1173.3506	1276.3923	1342.7419	1348.4457	1408.3242	1415.0505	1466.9951	1477.5837	1478.9215	1488.7766	1491.0449	1661.7479	2338.4858	2375.9726	3023.3983	3028.2144	3051.3213	3059.4489	3089.071	3090.2396	3123.424	3148.5759	3492.1451	3573.2394
CC#CCC(C)(N)C#N	CC#CC[C@@](C)(N)C#N	
InChI=1S/C7H10N2/c1-3-4-5-7(2,9)6-8/h5,9H2,1-2H3	InChI=1S/C7H10N2/c1-3-4-5-7(2,9)6-8/h5,9H2,1-2H3/t7-/m1/s1
