22
gdb 36842	4.16968	0.99354	0.95425	1.0422	87.3	-0.2312	0.0918	0.323	1344.1483	0.195555	-367.128972	-367.120805	-367.119861	-367.162382	32.125	
C	-0.0308607331	 1.5347806239	-0.1984402719	-0.307814
N	-0.1210850924	 0.07797275	-0.2433648967	-0.062416
C	-0.3084825248	-0.6000835789	 1.0353042081	-0.212568
C	-1.4265697359	-0.49638742	 0.057826879	-0.219812
C	 1.3972606587	 1.9922403774	-0.050324108	 0.38161
C	 2.5932284337	 1.6889680009	-1.0045572272	-0.235831
C	 3.1758650829	 2.5867763075	 0.123035175	-0.046273
C	 1.9015483181	 3.4677257091	-0.0149498208	-0.263247
C	 2.3791748945	 1.7156739857	 1.1340329375	-0.245639
H	-0.4392743776	 1.9238514917	-1.1401740317	 0.10198
H	-0.64218475	 1.9638805469	 0.6189218195	 0.075856
H	 0.2318376978	-1.5338502281	 1.1622592583	 0.114727
H	-0.3767901407	 0.012180649	 1.9335470783	 0.109008
H	-2.2394943442	 0.1850924128	 0.305406095	 0.106712
H	-1.7180981859	-1.3523504971	-0.5443053064	 0.115193
H	 2.934719436	 0.6517433429	-1.0396526181	 0.094902
H	 2.5408976212	 2.1285390044	-2.0051884451	 0.083151
H	 4.2049269023	 2.932921845	 0.2239370255	 0.068047
H	 1.7975299123	 4.0421003164	-0.940641453	 0.085506
H	 1.6167171691	 4.0627727738	 0.8582743454	 0.084
H	 2.1312867895	 2.1794627603	 2.0940619404	 0.081352
H	 2.7133856984	 0.6826367664	 1.261539847	 0.091556
61.502	79.8383	126.5793	275.969	319.9371	355.4254	419.8943	542.704	546.9525	695.3796	766.4933	775.1583	803.4881	840.3268	884.8874	897.9862	912.8537	956.6916	962.222	977.1524	995.3344	1011.9859	1029.5375	1041.1069	1099.4936	1103.5033	1113.0016	1118.1137	1139.2287	1143.6891	1151.4591	1161.6625	1178.9023	1200.4006	1229.3399	1236.14	1239.1501	1297.1865	1319.9842	1323.3887	1393.1321	1482.5984	1491.6483	1497.4487	1498.9556	1520.8098	1556.344	2914.9761	3036.0861	3037.3798	3042.2692	3050.9765	3090.4399	3095.3341	3101.3963	3106.5285	3109.0943	3117.484	3173.6608	3188.0671
C(N1CC1)C12CC(C1)C2	C(N1CC1)[C@@]12C[C@@H](C1)C2	
InChI=1S/C8H13N/c1-2-9(1)6-8-3-7(4-8)5-8/h7H,1-6H2	InChI=1S/C8H13N/c1-2-9(1)6-8-3-7(4-8)5-8/h7H,1-6H2/t7-,8-
