15
gdb 56713	2.74326	1.37512	1.02651	0.7496	69.72	-0.2873	-0.0124	0.2749	1115.8486	0.112958	-412.967811	-412.958957	-412.958012	-413.001642	31.753	
N	-0.3170153865	 1.5669402432	-0.199712009	-0.493285
C	-0.0240229233	 0.1431095218	-0.0959129599	-0.208346
C	-1.2575084137	-0.5812563879	 0.2505341241	 0.292784
N	-2.2264885326	-1.1707174553	 0.4700939226	-0.313958
C	 0.6184330037	-0.499150902	-1.3538852898	 0.126449
C	 0.5093446858	-1.961226803	-1.6399693844	-0.261726
N	-0.204919042	-0.9902890377	-2.4729147785	-0.323332
C	 1.8202145679	 0.21114421	-1.7434052274	 0.274934
N	 2.7820834445	 0.8024173388	-1.9913164473	-0.330652
H	 0.5482565903	 2.0848339307	-0.3196122934	 0.26364
H	-0.9014666628	 1.7566726633	-1.0086511745	 0.250226
H	 0.6790223396	 0.0143460389	 0.7363130918	 0.160571
H	 1.3382156046	-2.464616983	-2.1266749872	 0.151176
H	-0.0556524397	-2.5603203889	-0.9316820299	 0.153947
H	-1.1895690758	-0.963251249	-2.2095349372	 0.257572
54.0116	129.9554	170.1651	202.8511	231.5276	256.9891	295.6279	354.85	422.5927	516.6999	558.9026	574.0764	608.5537	716.5987	846.3894	861.7225	886.5266	922.4342	965.8035	996.2954	1087.8732	1134.5889	1148.2491	1201.1964	1248.8852	1271.7757	1300.4577	1371.007	1408.0588	1504.0646	1661.8577	2356.9928	2363.4675	3045.9687	3123.8391	3218.7889	3479.1803	3498.9268	3585.1468
NC(C#N)C1(CN1)C#N	N[C@@H](C#N)[C@]1(CN1)C#N	
InChI=1S/C5H6N4/c6-1-4(8)5(2-7)3-9-5/h4,9H,3,8H2	InChI=1S/C5H6N4/c6-1-4(8)5(2-7)3-9-5/h4,9H,3,8H2/t4-,5+/m0/s1
