17
gdb 45433	2.59223	1.70617	1.66719	2.2854	67.	-0.2367	-0.0257	0.211	912.1817	0.137987	-458.979545	-458.972513	-458.971569	-459.011094	27.601	
O	-0.0025235226	-0.0448750154	-0.1592176879	-0.319471
C	-0.0238582425	 1.1519058308	-0.032765513	 0.43409
C	-1.2855045765	 2.0064698456	 0.0977965984	-0.335202
C	-0.8352457764	 3.4755790024	 0.0642441356	 0.064499
C	 0.0894451722	 3.747856401	 1.2494129413	-0.077134
O	 1.1504562608	 2.7819712696	 1.2473545985	-0.2809
C	 1.2114971199	 2.0570920297	 0.0147559916	-0.034275
C	 1.1425775871	 3.032526152	-1.1632607862	-0.098276
O	-0.1191503481	 3.7122214275	-1.1513688444	-0.281559
H	-1.95632591	 1.7803520449	-0.7364487717	 0.140891
H	-1.8127742614	 1.7559993851	 1.0255529737	 0.134011
H	-1.6808645418	 4.1669812567	 0.060221374	 0.092833
H	 0.5064848575	 4.7605960161	 1.1744895663	 0.11068
H	-0.4472482918	 3.6616080513	 2.2017113792	 0.111294
H	 2.1332668992	 1.4745093569	 0.0206482278	 0.104081
H	 1.9606582828	 3.7607142353	-1.0759748658	 0.1128
H	 1.2464341515	 2.5061003504	-2.1195663673	 0.121636
85.0953	176.3935	290.2879	337.5837	380.8699	445.0272	493.2737	530.5892	602.4385	657.1519	752.7231	837.576	864.454	875.9834	902.0821	940.0855	968.0021	1010.5408	1051.4934	1093.205	1094.1137	1126.9335	1170.9135	1200.1437	1232.1575	1238.1128	1275.5402	1301.2304	1326.9296	1344.0376	1355.1662	1395.1453	1400.9767	1434.6619	1508.9414	1518.1662	1847.2805	3006.4519	3016.0383	3049.1745	3057.1372	3060.8969	3091.8069	3101.6818	3120.8984
O=C1CC2COC1CO2	O=C1C[C@H]2CO[C@@H]1CO2	
InChI=1S/C6H8O3/c7-5-1-4-2-9-6(5)3-8-4/h4,6H,1-3H2	InChI=1S/C6H8O3/c7-5-1-4-2-9-6(5)3-8-4/h4,6H,1-3H2/t4-,6+/m0/s1
