17
gdb 110821	2.41039	1.37244	1.05617	1.9128	73.85	-0.2437	0.0121	0.2558	1160.6853	0.134254	-421.72944	-421.720805	-421.719861	-421.763069	32.302	
O	-0.143754878	 1.512924034	-0.2798191305	-0.419596
C	-0.0224655405	 0.1733279904	 0.1826042661	-0.106042
C	-1.3536349189	-0.5443024668	 0.1253587185	-0.052197
C	-1.8686962844	-1.2532452973	-1.0890968142	 0.062945
O	-0.8062082284	-1.8920016375	-1.8119435425	-0.294378
C	-0.5896230456	-2.8132766821	-0.6972340924	-0.062803
C	 0.794321555	-2.9798385342	-0.2874927	 0.324023
C	 1.9305036957	-3.1675534719	 0.0575949182	-0.427779
C	-1.5935289893	-2.0438257555	 0.1719005163	-0.180666
H	-0.3449167207	 1.4715522899	-1.2204724986	 0.285041
H	 0.7366418174	-0.378869666	-0.3809379261	 0.115386
H	 0.3202030266	 0.2452424173	 1.2197292471	 0.111967
H	-2.1455423648	-0.0136041571	 0.6521638073	 0.101948
H	-2.7809514615	-1.0343506654	-1.631468677	 0.10917
H	-1.0055977386	-3.7904902039	-0.974318568	 0.118301
H	 2.9362571673	-3.3180308902	 0.3648671234	 0.205617
H	-2.2651394512	-2.5110764936	 0.8787766824	 0.109062
71.5178	103.1469	139.1124	214.2914	236.2163	315.6505	343.2552	447.9881	516.4456	543.5964	613.6227	624.548	682.4818	739.0817	795.3653	814.9263	890.6776	933.5864	968.3776	990.0617	1020.573	1044.0259	1055.4187	1057.9648	1073.816	1114.0575	1174.1949	1228.113	1250.8608	1272.6382	1321.1802	1360.7002	1384.1878	1413.5084	1448.6198	1496.2708	2233.914	3020.5043	3047.2223	3090.4034	3130.9828	3183.4052	3208.7976	3500.8495	3814.5174
OCC1C2OC(C#C)C12	OC[C@H]1[C@H]2O[C@@H](C#C)[C@@H]12	
InChI=1S/C7H8O2/c1-2-5-6-4(3-8)7(6)9-5/h1,4-8H,3H2	InChI=1S/C7H8O2/c1-2-5-6-4(3-8)7(6)9-5/h1,4-8H,3H2/t4-,5+,6-,7-/m1/s1
