19
gdb 65577	2.87287	1.40859	1.24656	1.3962	80.33	-0.2422	0.0426	0.2848	1096.9476	0.158015	-385.845578	-385.837101	-385.836157	-385.878321	33.487	
C	 0.0814298031	 1.4910426673	 0.0578971847	-0.432938
C	 0.0217886506	-0.033481982	-0.02578495	 0.181238
C	 0.7815677747	-0.6342484922	-1.2484961134	-0.287113
C	 1.3595182445	-1.9340909053	-0.6961122082	-0.052303
C	 2.6013543254	-1.8352560785	 0.1715047144	-0.305943
C	 1.2345266135	-1.8286447522	 0.7963664064	 0.095217
O	 0.7223899519	-0.5600704629	 1.1227727501	-0.27873
C	-1.3748105041	-0.5006424185	-0.0088442942	 0.37778
C	-2.5146974906	-0.8824759877	 0.0032201347	-0.517757
H	 1.1253931114	 1.8147841293	 0.081007487	 0.119735
H	-0.4156278544	 1.9388558257	-0.8067951132	 0.126042
H	-0.4169435353	 1.8412521985	 0.9646062484	 0.136697
H	 0.1084100599	-0.8061350277	-2.0902063919	 0.11736
H	 1.5627952983	 0.0601891368	-1.5752801985	 0.103683
H	 1.156120766	-2.8632021883	-1.2136462427	 0.094361
H	 3.2094573656	-2.7274983468	 0.2801678784	 0.111433
H	 3.1508796685	-0.8995218241	 0.1788089835	 0.11538
H	 0.8894665528	-2.6381900391	 1.4308088514	 0.098355
H	-3.5214080518	-1.2206890522	 0.0212566231	 0.197504
79.7241	159.4655	179.9453	236.3111	302.165	319.2612	384.4222	421.6526	501.481	560.875	624.5672	630.6986	657.3906	710.8306	745.5436	791.778	814.7149	861.7378	911.9055	925.6986	944.1881	986.2703	1026.7427	1057.4246	1069.1589	1099.1795	1122.0527	1147.0812	1174.9279	1186.7918	1211.6402	1264.603	1304.5431	1334.9004	1377.9592	1403.8938	1470.189	1479.1475	1488.0666	1496.216	2228.327	3046.1944	3050.3034	3116.1338	3125.2842	3127.9962	3134.0856	3162.5682	3186.5089	3217.6081	3500.4326
CC1(CC2CC2O1)C#C	C[C@]1(C[C@H]2C[C@H]2O1)C#C	
InChI=1S/C8H10O/c1-3-8(2)5-6-4-7(6)9-8/h1,6-7H,4-5H2,2H3	InChI=1S/C8H10O/c1-3-8(2)5-6-4-7(6)9-8/h1,6-7H,4-5H2,2H3/t6-,7-,8-/m1/s1
