22
gdb 40811	3.79584	1.07293	0.88728	1.0267	89.1	-0.2276	0.0268	0.2544	1364.375	0.196303	-367.198357	-367.190051	-367.189107	-367.231377	32.774	
C	-0.1793091298	 1.3474509452	-0.1792900445	-0.223701
C	 1.2493715499	 0.9853045203	 0.0302003291	-0.226092
N	 0.2101447481	-0.0387641541	 0.0555408159	-0.068505
C	-0.1274183642	-0.5907699412	 1.3728261746	 0.018455
C	-1.5693680819	-1.1121292739	 1.3658349127	-0.208543
C	-1.8505712285	-1.9552804777	 2.6147225087	-0.213981
C	-0.9285144939	-3.1828789462	 2.6718576023	-0.239522
C	 0.4877933001	-2.8439593843	 2.2860975527	-0.061074
C	 0.8443199533	-1.6940283809	 1.7170319967	-0.041031
H	-0.6763749633	 1.8827915424	 0.6289483331	 0.106946
H	-0.5548010007	 1.5745314321	-1.1728208726	 0.11474
H	 1.9396195102	 0.9416816564	-0.8074043895	 0.114867
H	 1.6996488834	 1.2824302708	 0.9767040596	 0.108479
H	-0.0443803054	 0.204318917	 2.1436973505	 0.056074
H	-2.2691518534	-0.2720833388	 1.2967775337	 0.088011
H	-1.7047865897	-1.7186009261	 0.4622944952	 0.108807
H	-1.6876957998	-1.3402537908	 3.5094436562	 0.097627
H	-2.8999490803	-2.2674909885	 2.637333669	 0.092046
H	-0.9450393717	-3.6255543902	 3.6760331402	 0.100146
H	-1.3044529727	-3.9706448992	 2.0015900654	 0.108918
H	 1.2454203168	-3.598127643	 2.4884974901	 0.083125
H	 1.8856967434	-1.5073688392	 1.4659041008	 0.084208
91.2353	94.8067	185.809	241.6341	291.1613	331.5885	417.3098	451.5901	480.3576	557.6707	656.3717	739.8812	780.5295	828.0515	858.2105	892.1959	900.7605	917.4212	947.0071	980.9972	1007.488	1027.1924	1054.4129	1071.2891	1080.0063	1109.9618	1112.3416	1116.7182	1152.5987	1172.0697	1184.4056	1221.1546	1250.1216	1271.9892	1313.0027	1334.4306	1341.8756	1370.7684	1376.1675	1378.2167	1422.8711	1474.7387	1491.3191	1492.1091	1498.5393	1519.4466	1726.4428	2864.5372	2996.2732	3019.5464	3032.7479	3038.8133	3069.9544	3077.9226	3090.0502	3094.7945	3139.5205	3164.5015	3173.9045	3188.223
C1CN1C1CCCC=C1	C1CN1[C@H]1CCCC=C1	
InChI=1S/C8H13N/c1-2-4-8(5-3-1)9-6-7-9/h2,4,8H,1,3,5-7H2	InChI=1S/C8H13N/c1-2-4-8(5-3-1)9-6-7-9/h2,4,8H,1,3,5-7H2/t8-/m1/s1
