19
gdb 109596	2.91248	1.05254	1.00184	2.459	79.13	-0.2329	0.0379	0.2708	1281.4282	0.15681	-422.969355	-422.959518	-422.958574	-423.003576	37.118	
C	 0.0532164644	 1.5511311672	-0.1855871985	-0.469314
C	-0.0087461014	 0.044823875	 0.0159160346	 0.071088
C	-1.1489727886	-0.6066263492	-0.5704738227	 0.266253
C	-2.1037229677	-1.1507286186	-1.0614150953	-0.438705
C	 1.3003729676	-0.7469037953	 0.0292731701	 0.075653
O	 2.4939390102	-0.0471299139	-0.1049577089	-0.428455
C	 0.5233487295	-0.6041623029	 1.3119579771	-0.149441
C	 1.1310589304	 0.215652215	 2.4328850991	-0.122399
O	 2.4859370242	-0.17607487	 2.7160739129	-0.414925
H	 1.0553661124	 1.9278069846	 0.0246258026	 0.13837
H	-0.1767807223	 1.7880711753	-1.2278850099	 0.132574
H	-0.6737612155	 2.0717951803	 0.4455228424	 0.12022
H	-2.9456366039	-1.6269665488	-1.4988600017	 0.190053
H	 1.2814001018	-1.7112553034	-0.4751695794	 0.100352
H	 2.9305571376	-0.0768885896	 0.7602546687	 0.298395
H	-0.0301856618	-1.4818649602	 1.6319476293	 0.098992
H	 1.1974780407	 1.2728873059	 2.1729599251	 0.130102
H	 0.5163149265	 0.1402800967	 3.3388481295	 0.109717
H	 2.474103916	-1.099339838	 2.990659675	 0.29147
89.741	128.4382	157.1248	170.8947	209.8165	240.684	294.2998	328.0134	387.8493	406.3957	450.0816	532.2403	536.1854	580.1099	620.6092	642.895	664.838	720.9934	801.6573	852.709	959.191	984.2364	985.9363	1036.7235	1070.0609	1096.0991	1125.9424	1165.2756	1208.0846	1259.0461	1290.352	1350.7806	1373.663	1398.184	1405.7467	1421.9718	1428.1341	1492.2931	1497.2371	1514.4302	2230.1556	3025.6558	3046.14	3111.1508	3117.8863	3122.6278	3141.1599	3153.5664	3503.9748	3689.9768	3810.5077
CC1(C#C)C(O)C1CO	C[C@@]1(C#C)[C@@H](O)[C@H]1CO	
InChI=1S/C7H10O2/c1-3-7(2)5(4-8)6(7)9/h1,5-6,8-9H,4H2,2H3	InChI=1S/C7H10O2/c1-3-7(2)5(4-8)6(7)9/h1,5-6,8-9H,4H2,2H3/t5-,6+,7+/m1/s1
