15
gdb 123592	4.23453	1.61867	1.40636	3.2671	70.5	-0.2315	-0.0127	0.2188	899.2605	0.116072	-416.707855	-416.702015	-416.701071	-416.738072	23.987	
C	-0.0251269164	 1.5195064435	-0.0613284547	-0.16858
C	 1.5364400584	 1.3363990588	 0.000104067	-0.199835
C	 1.1331077584	 0.164740407	 0.9698083449	-0.168578
N	-0.1046415997	-0.0150861504	 0.0678134572	-0.233569
C	 0.6091664337	-0.3513433236	-1.1757084196	 0.20748
C	 1.6655172595	 0.4912523175	-1.2552998232	 0.404061
O	 2.3933672127	 0.2900223199	-2.3373439706	-0.237695
N	 1.774100558	-0.7823444898	-3.0509852729	-0.156848
C	 0.7177157372	-1.1402191439	-2.3340683551	-0.166927
H	-0.4503643209	 1.9970722631	 0.8257989187	 0.117758
H	-0.466305243	 1.9195614075	-0.9754718434	 0.1242
H	 2.247610636	 2.1247581345	 0.2370670405	 0.097343
H	 1.7821498358	-0.7104160846	 1.026257841	 0.124197
H	 0.8306533174	 0.4986784715	 1.9662497681	 0.117752
H	 0.1047079128	-1.9481341411	-2.706942868	 0.139242
126.5952	303.3169	410.4597	502.4553	561.7437	622.6023	665.745	712.26	746.887	793.7323	808.9624	818.3761	835.6025	904.6429	909.7318	958.6985	1000.3884	1024.2797	1047.7243	1093.8476	1112.0973	1167.1641	1178.4087	1195.1859	1231.4695	1238.4892	1294.6697	1380.4388	1395.236	1489.1979	1492.2651	1527.016	1603.6375	3056.7703	3066.746	3137.0694	3141.211	3145.9975	3248.7844
C1C2CN1C1=C2ON=C1	C1[C@H]2CN1c1c2onc1	
InChI=1S/C6H6N2O/c1-5-6(9-7-1)4-2-8(5)3-4/h1,4H,2-3H2	InChI=1S/C6H6N2O/c1-5-6(9-7-1)4-2-8(5)3-4/h1,4H,2-3H2
