14
gdb 20587	3.36611	1.87385	1.21288	5.1757	66.77	-0.246	-0.0382	0.2078	930.8162	0.108262	-378.764015	-378.756576	-378.755632	-378.796698	25.929	
C	-0.0015545887	 1.5123333843	 0.0837749818	-0.504788
C	 0.0111724693	 0.0251497469	-0.0556576933	 0.295118
C	-0.0161843567	-0.814213596	-1.1699999273	 0.029745
C	-0.1003521903	-0.4411832803	-2.5733009663	 0.067504
O	-0.1117462271	-1.2283403727	-3.4958693144	-0.284618
C	 0.0501913261	-2.1292010856	-0.6320437684	-0.062344
N	 0.1125072326	-2.1212674548	 0.6862378839	-0.216824
N	 0.0883140803	-0.8010618216	 1.0088082046	-0.246545
H	 1.0077850083	 1.9081090852	 0.24517042	 0.15371
H	-0.4012789649	 1.9823185023	-0.8164063693	 0.156169
H	-0.6214086662	 1.82613612	 0.9297986762	 0.141055
H	-0.1573338448	 0.6545439865	-2.7655432447	 0.053806
H	 0.0491565735	-3.0596533867	-1.1789343499	 0.142249
H	 0.1222321387	-0.5413896776	 1.9814056372	 0.275764
37.158	145.3552	178.8598	224.2254	298.166	313.9885	534.7074	558.5425	638.5111	674.8147	692.2172	799.7883	918.0034	950.7135	1004.5449	1032.4105	1059.3145	1112.5928	1163.0609	1228.9221	1317.7861	1395.3887	1417.8574	1425.9554	1464.8018	1483.1705	1489.0011	1521.2741	1608.119	1784.3363	2862.758	3036.5289	3092.5369	3135.6997	3263.1491	3657.272
CC1=C(C=O)C=NN1	Cc1c(C=O)cn[nH]1	
InChI=1S/C5H6N2O/c1-4-5(3-8)2-6-7-4/h2-3H,1H3,(H,6,7)	InChI=1S/C5H6N2O/c1-4-5(3-8)2-6-7-4/h2-3H,1H3,(H,6,7)
