13
gdb 21012	6.34716	1.37879	1.14095	6.7239	68.17	-0.2634	-0.0274	0.236	978.8028	0.097455	-357.681	-357.673914	-357.67297	-357.713182	24.731	
C	 0.0063546637	 1.4372431386	 0.0438231111	-0.322083
N	-0.0177427629	-0.0113050966	-0.03315458	 0.057545
C	-0.0862081744	-0.7833869732	-1.149312056	-0.014747
C	-0.0256039021	-2.0941261134	-0.7350399318	-0.308239
C	 0.082348511	-2.0041953235	 0.671834348	 0.254092
N	 0.0882651302	-0.7298763826	 1.0884553881	-0.313949
C	 0.1704745074	-3.0788652094	 1.5997966785	 0.235664
N	 0.2410136209	-3.9797590596	 2.3226029259	-0.340435
H	 1.0245973329	 1.7973047503	 0.2164509704	 0.158172
H	-0.3701938688	 1.8489602867	-0.8936085735	 0.14648
H	-0.6305528557	 1.7598543772	 0.8684435619	 0.167821
H	-0.1733277544	-0.3461208327	-2.1310401502	 0.146296
H	-0.0612244079	-2.9843671319	-1.3396421425	 0.133384
42.5856	145.1393	158.1665	240.3509	366.3822	513.9795	553.8557	579.252	636.608	717.8484	723.3936	779.5494	853.1439	1015.5371	1023.1174	1077.1019	1094.145	1150.8048	1224.8083	1339.4897	1379.4261	1421.4556	1453.208	1478.4545	1489.0758	1520.6365	1542.5875	2356.953	3056.1282	3131.3895	3159.7402	3264.166	3289.1997
CN1C=CC(=N1)C#N	Cn1ccc(n1)C#N	
InChI=1S/C5H5N3/c1-8-3-2-5(4-6)7-8/h2-3H,1H3	InChI=1S/C5H5N3/c1-8-3-2-5(4-6)7-8/h2-3H,1H3
