14
gdb 97532	2.61462	0.78375	0.6294	2.5352	76.24	-0.2796	-0.0014	0.2783	1686.5823	0.097844	-399.470273	-399.460381	-399.459436	-399.507392	33.436	
O	 0.1434164156	 1.3785655914	-0.4068999393	-0.395628
C	 0.0637144473	 0.0630475552	 0.1144563104	-0.199692
C	-1.2931279828	-0.4887419029	 0.0963884283	 0.103549
C	-2.4213943938	-0.9038490267	 0.0988211904	 0.083487
C	-3.7986370412	-1.4143588072	 0.0787199804	-0.498864
C	-3.851990765	-2.8799919478	-0.0115835614	 0.343549
C	-3.9023160903	-4.0742743115	-0.1026638381	-0.413481
C	-4.5583032172	-0.9319489557	 1.2548121454	 0.31349
N	-5.1579997261	-0.5393078841	 2.1593482577	-0.315513
H	-0.4472379693	 1.9359407975	 0.1108851643	 0.293156
H	 0.718651086	-0.550211389	-0.5138296865	 0.150602
H	 0.4604149899	 0.0046642319	 1.1399511831	 0.130141
H	-4.3078598789	-1.0001769836	-0.8054557621	 0.188536
H	-3.9435293441	-5.1334187274	-0.1769741226	 0.216668
13.9708	70.1255	98.434	122.8197	171.9772	236.2736	308.5659	328.991	353.4045	389.0212	483.2155	538.2987	573.6151	601.016	655.9798	676.2296	797.9578	903.0264	983.5339	1018.6668	1056.105	1154.6063	1215.3267	1276.7515	1283.5657	1366.4692	1415.3194	1486.7251	2255.1938	2369.4319	2376.9451	2987.7556	2993.0405	3070.7659	3501.0756	3814.3594
OCC#CC(C#C)C#N	OCC#C[C@@H](C#C)C#N	
InChI=1S/C7H5NO/c1-2-7(6-8)4-3-5-9/h1,7,9H,5H2	InChI=1S/C7H5NO/c1-2-7(6-8)4-3-5-9/h1,7,9H,5H2/t7-/m1/s1
