18
gdb 19553	3.96755	1.82566	1.67314	1.0678	71.46	-0.2278	0.0927	0.3205	863.3483	0.154488	-347.736535	-347.729458	-347.728514	-347.767756	27.551	
C	 0.1023983719	 1.3377549959	 0.2619786827	-0.256858
O	-0.005751637	-0.0035585052	-0.1923678615	-0.276751
C	-1.2674817018	-0.5082075125	-0.1079329731	 0.431418
C	-2.1671275842	-0.8881183383	 1.0454905037	-0.15023
C	-3.3533054166	-0.1346086325	 0.4508310309	-0.217934
C	-2.6309818342	-0.2508784562	-0.9198583004	-0.138513
C	-2.6495541943	-1.7755534185	-1.2244237042	-0.222618
C	-1.7157062402	-1.9309763847	-0.0270348861	-0.140042
H	 1.1518599339	 1.6231390856	 0.1638173538	 0.128294
H	-0.5122709373	 2.01710683	-0.3445084007	 0.114569
H	-0.204346094	 1.4263602479	 1.3126010454	 0.115226
H	-1.9052256449	-1.0394038552	 2.0846889954	 0.08455
H	-4.3497034472	-0.5864730591	 0.5188599038	 0.087987
H	-3.3949766858	 0.8978265527	 0.8096719389	 0.093986
H	-2.8025140433	 0.4784861212	-1.7084409923	 0.069761
H	-3.6261530065	-2.2730423841	-1.2034310715	 0.086561
H	-2.1355988207	-2.0118315408	-2.1601071126	 0.102188
H	-1.1262841478	-2.7879379262	 0.2719779376	 0.088405
99.597	165.2652	179.6692	329.1422	384.3682	427.5746	504.7061	605.8197	692.5049	731.0109	803.6182	856.5842	908.9618	942.3592	946.0239	965.9644	996.4682	1008.8856	1026.9466	1053.4971	1065.4515	1107.7765	1118.4483	1126.367	1175.4341	1179.209	1206.2286	1217.7823	1235.8568	1247.7967	1293.012	1307.8611	1433.9219	1486.6641	1488.204	1498.0174	1505.0297	1515.5025	2998.1017	3028.7825	3036.0869	3055.4809	3090.7996	3097.5612	3125.8181	3139.1004	3196.7663	3206.4826
COC12C3CC1CC23	CO[C@@]12[C@H]3C[C@@H]1C[C@@H]23	
InChI=1S/C7H10O/c1-8-7-4-2-5(7)6(7)3-4/h4-6H,2-3H2,1H3	InChI=1S/C7H10O/c1-8-7-4-2-5(7)6(7)3-4/h4-6H,2-3H2,1H3/t4-,5+,6-,7-
