23
gdb 40284	2.46736	1.519	1.16857	1.1952	84.92	-0.243	0.077	0.32	1170.7905	0.207803	-388.285122	-388.276616	-388.275672	-388.317943	34.167	
C	-0.0833990271	 1.54766355	-0.0634278564	-0.321215
C	 1.288363385	 0.9024902807	-0.0770284254	-0.323556
C	 0.0414830609	 0.0554110658	 0.0261990132	 0.450917
C	-0.3234503515	-0.6596535062	 1.3163321675	-0.270372
C	 0.6226066566	-1.794834894	 1.7712728192	-0.189954
C	 1.3076176886	-2.6060486975	 0.6541469705	-0.189204
C	 0.4506470021	-2.8902324239	-0.589732604	-0.20174
C	 0.3749304468	-1.7131056389	-1.5684216371	-0.072256
O	-0.3946064665	-0.6021303434	-1.1377074724	-0.292759
H	-0.3932370428	 2.0970771809	 0.8188094605	 0.10779
H	-0.451254729	 1.9422745383	-1.0032947728	 0.120249
H	 1.8234001438	 0.8968957738	-1.0199074407	 0.116348
H	 1.9205015151	 1.0039073474	 0.7990329257	 0.110287
H	-0.4020627408	 0.0732461375	 2.1267634305	 0.092244
H	-1.3345263676	-1.0553082012	 1.1654062673	 0.108019
H	 1.4070572045	-1.3792133005	 2.4146717824	 0.094534
H	 0.0458357334	-2.4732983722	 2.4114661511	 0.095587
H	 2.2130697958	-2.0802671423	 0.3254240663	 0.098491
H	 1.654072233	-3.5531777429	 1.0834494708	 0.09028
H	 0.8922827574	-3.729982294	-1.1417487878	 0.093549
H	-0.5635035589	-3.2016982273	-0.3094009211	 0.100745
H	 1.400073622	-1.3909446287	-1.8161658516	 0.081757
H	-0.1032538409	-2.0341107813	-2.4995937757	 0.10026
92.5351	127.8631	201.8171	252.1543	304.8904	333.1485	367.6319	374.124	470.4538	521.7006	574.4919	694.7576	762.4801	773.699	780.722	842.0338	887.997	905.9363	934.6971	946.265	973.2495	992.6996	1016.9602	1033.9084	1048.8811	1076.8803	1106.2099	1119.7633	1131.1333	1188.8823	1193.4566	1224.347	1254.1918	1284.0885	1295.3463	1324.5415	1346.7822	1365.2475	1376.0735	1390.318	1403.2824	1423.3026	1454.1032	1470.9914	1478.0571	1488.5027	1491.8076	1500.2212	1505.872	2967.6997	3017.2326	3020.0912	3023.6952	3037.112	3048.3966	3061.2042	3064.2598	3072.9532	3079.9594	3131.1267	3137.0943	3214.5704	3231.2368
C1CC11CCCCCO1	C1CC21CCCCCO2	
InChI=1S/C8H14O/c1-2-4-8(5-6-8)9-7-3-1/h1-7H2	InChI=1S/C8H14O/c1-2-4-8(5-6-8)9-7-3-1/h1-7H2
