14
gdb 26813	3.88133	1.08423	0.84877	1.4785	78.82	-0.1776	0.0061	0.1837	1259.4225	0.099547	-436.681535	-436.672771	-436.671827	-436.714534	32.755	
O	 0.0550340996	 1.3100740593	 0.1886364162	-0.440685
C	 0.0466402917	-0.0287286092	 0.0138760141	 0.318267
C	 0.0262920902	-0.7889801217	-1.1382334069	 0.188369
O	-0.037569145	-0.212839469	-2.3879387474	-0.467005
C	 0.0125008049	-2.1497281611	-0.7489528578	-0.393086
C	 0.0317571528	-2.186809616	 0.6384117463	 0.186681
N	 0.0418001498	-0.8660205917	 1.0827157415	-0.382886
C	 0.0361636655	-3.2657785133	 1.5355371869	 0.267572
C	 0.0406420951	-4.1819158048	 2.3213752579	-0.45929
H	 0.048701099	 1.7026797734	-0.6933499378	 0.313584
H	 0.6400665353	-0.6048220866	-2.948096114	 0.300295
H	-0.010363331	-3.0130854029	-1.3949619363	 0.107822
H	 0.0499541665	-0.5778124395	 2.0457895151	 0.274641
H	 0.0422724256	-4.9950250469	 3.0033917222	 0.185722
120.8571	141.029	169.7597	247.2761	260.9566	316.1652	372.1227	413.4301	427.0604	435.369	482.2347	525.0605	584.7963	653.2557	665.3232	677.7964	682.1768	794.5764	824.8955	1002.0036	1142.2014	1162.3298	1193.3627	1244.9407	1291.9374	1401.5494	1418.756	1516.0006	1581.6923	1673.7471	2216.8061	3258.3477	3504.636	3684.3558	3799.5641	3809.7695
OC1=C(O)C=C(N1)C#C	Oc1c(O)cc([nH]1)C#C	
InChI=1S/C6H5NO2/c1-2-4-3-5(8)6(9)7-4/h1,3,7-9H	InChI=1S/C6H5NO2/c1-2-4-3-5(8)6(9)7-4/h1,3,7-9H
