19
gdb 48914	2.92784	1.51322	1.28378	3.0547	80.27	-0.2422	-0.0264	0.2157	1045.1053	0.160978	-385.867955	-385.860613	-385.859669	-385.899954	28.947	
O	-0.0144594539	-0.0662636771	 0.0142571921	-0.249822
C	 0.0416642264	 1.1400485826	 0.0060064914	 0.018677
C	 1.3043922542	 1.9205929217	 0.0030052256	 0.259606
C	 2.7497637058	 1.3852937364	 0.0102517859	-0.28506
C	 2.8919845948	 2.9260531344	-0.0012941828	-0.066
C	 1.7306305881	 3.0265934773	-1.0427207983	-0.042062
C	 0.9386595259	 4.3087225176	-0.7939364732	-0.246083
C	 0.9352209124	 4.3207216978	 0.7612940706	-0.246082
C	 1.7260417526	 3.0426033277	 1.0333281402	-0.042113
H	-0.8902042977	 1.7535877531	-0.0001363696	 0.065243
H	 3.071078922	 0.8652707577	 0.9159362372	 0.099682
H	 3.0750009359	 0.8514011355	-0.8859096235	 0.099701
H	 3.8129684992	 3.512407692	-0.0037826517	 0.071574
H	 1.9137741596	 2.7083576044	-2.0708030149	 0.073765
H	 1.4408222599	 5.1823415226	-1.2215833473	 0.103925
H	-0.0676307018	 4.2710111115	-1.2220222266	 0.103692
H	 1.4355068226	 5.2008538383	 1.1776344935	 0.103922
H	-0.0729577205	 4.2895788463	 1.1854490785	 0.103688
H	 1.9046754243	 2.7403388602	 2.0670103927	 0.073746
82.0437	148.5845	205.3314	298.1561	321.1163	428.0712	491.9812	634.9273	708.2627	728.5562	750.8757	833.3718	844.3666	867.5061	920.3784	930.3727	967.9324	976.5451	999.5353	1021.4127	1027.5597	1049.8254	1057.7655	1107.3319	1109.0926	1154.254	1167.7457	1211.0412	1214.7817	1249.5467	1249.8577	1254.0748	1283.3457	1315.4631	1318.1063	1368.7258	1429.4751	1490.2744	1510.187	1520.653	1809.7081	2848.4488	3045.4547	3054.6497	3060.0054	3078.4213	3089.6142	3097.3364	3100.2767	3107.3307	3121.6762
O=CC12CC3C1CCC23	O=C[C@@]12C[C@H]3[C@@H]1CC[C@@H]23	
InChI=1S/C8H10O/c9-4-8-3-5-6(8)1-2-7(5)8/h4-7H,1-3H2	InChI=1S/C8H10O/c9-4-8-3-5-6(8)1-2-7(5)8/h4-7H,1-3H2/t5-,6-,7+,8-
