23
gdb 119573	2.83851	1.07892	0.91792	0.8233	86.61	-0.2398	0.0853	0.3251	1418.1769	0.204309	-388.261151	-388.251337	-388.250393	-388.29611	36.875	
C	 0.1375720661	 1.5428244661	-0.020767417	-0.385748
C	 0.2370095632	 0.029781616	 0.0649111187	-0.059211
O	 0.3857880124	-0.4812857671	-1.2560343964	-0.293966
C	 0.5778799053	-1.8452665828	-1.3235755664	 0.447307
C	 1.9028821089	-2.4752353249	-0.9809579839	-0.342977
C	 1.3557556393	-2.5986403819	-2.3868939892	-0.13767
C	 0.2792920561	-3.6897852376	-2.4215449841	-0.24775
C	-0.563638085	-2.880258873	-1.3711891802	-0.036454
C	-1.023671868	-3.5744295601	-0.0947968173	-0.415493
H	 1.0401372031	 1.9611408175	-0.4755561396	 0.125389
H	-0.7204494441	 1.8379449612	-0.6315126511	 0.126627
H	 0.0182225717	 1.9744963952	 0.9775684614	 0.113612
H	 1.0976242536	-0.2734766275	 0.6799597581	 0.091747
H	-0.6651465209	-0.3894652131	 0.535685869	 0.092839
H	 2.7096998388	-1.7569277953	-0.8744713049	 0.112458
H	 1.9886732822	-3.3498549669	-0.3396515309	 0.100852
H	 1.893948834	-2.2068594965	-3.2407998134	 0.091857
H	-0.2249463411	-3.7893787771	-3.3850310827	 0.102622
H	 0.611420497	-4.6816944739	-2.0952810376	 0.09218
H	-1.4199120699	-2.4217698577	-1.8765290673	 0.078964
H	-0.1816616232	-4.0134850596	 0.4508181746	 0.114326
H	-1.5310490938	-2.8767020075	 0.5804576301	 0.114646
H	-1.7269426157	-4.3836138737	-0.3218221796	 0.113844
63.0191	76.0557	119.1921	194.5692	216.2316	243.4497	258.4352	336.0784	364.3575	385.5013	457.2417	513.0861	654.5332	702.1164	804.4456	818.3788	842.2815	866.6867	908.9439	933.2019	940.2224	975.1169	1018.6108	1026.8421	1064.8321	1074.3194	1092.7889	1111.2676	1138.3765	1151.5679	1184.9274	1186.4573	1224.7358	1232.0546	1258.2951	1292.0845	1298.2769	1359.0479	1380.6222	1402.2509	1409.2348	1432.4795	1478.7812	1482.8394	1494.6871	1496.472	1500.2812	1504.244	1527.9587	2981.9536	3012.5847	3026.9001	3040.4642	3044.039	3051.4609	3089.8176	3097.9709	3102.7096	3106.8252	3118.3433	3120.6063	3189.3925	3200.5181
CCOC12CC1CC2C	CCO[C@]12C[C@H]1C[C@H]2C	
InChI=1S/C8H14O/c1-3-9-8-5-7(8)4-6(8)2/h6-7H,3-5H2,1-2H3	InChI=1S/C8H14O/c1-3-9-8-5-7(8)4-6(8)2/h6-7H,3-5H2,1-2H3/t6-,7-,8+/m1/s1
