22
gdb 11990	2.49332	2.07527	1.70477	0.2207	81.19	-0.249	0.0859	0.3349	944.9391	0.199704	-313.052029	-313.043459	-313.042514	-313.083995	34.104	
C	-0.4310619677	 1.5326333173	 0.3877549697	-0.411642
C	-0.1070464563	 0.0525373557	 0.2140571591	-0.022496
C	 0.2863921422	-0.4577011379	-1.1803339904	-0.050476
C	 1.6105627382	 0.1022312616	-1.6198276386	-0.303567
C	 1.5943527985	-1.0297650916	-0.6335147726	-0.06716
C	 1.2409723854	-0.5594401859	 0.7926727011	 0.320577
C	 2.2286265261	 0.3908320277	 1.469959981	-0.442966
C	 0.9504912584	-1.7535761386	 1.7048501359	-0.441247
H	 0.351633539	 2.1806769166	-0.0171603505	 0.112454
H	-1.3639185331	 1.7826179524	-0.1300778833	 0.112018
H	-0.561476371	 1.7901660425	 1.4447647922	 0.111022
H	-0.9456450785	-0.5342160342	 0.6035074383	 0.065705
H	-0.3995974232	-0.9018150135	-1.8925200165	 0.07744
H	 1.911304193	-0.1722856836	-2.6263820197	 0.107707
H	 1.9269329596	 1.1014002859	-1.3326786624	 0.102817
H	 2.0598453629	-1.9837935511	-0.8573196731	 0.074918
H	 2.4845809264	 1.2480152199	 0.8419643257	 0.109789
H	 1.8212947992	 0.7788117841	 2.410783953	 0.109048
H	 3.1616845866	-0.133619112	 1.7066593715	 0.10951
H	 1.8730202424	-2.2911609514	 1.9550783526	 0.107079
H	 0.4884457872	-1.4288226382	 2.644389457	 0.107854
H	 0.2714920848	-2.4642056755	 1.2217674499	 0.111616
158.0378	198.9978	214.6004	235.8387	252.5487	287.2852	302.4061	347.7012	410.7112	489.6601	534.6811	605.3084	713.0317	782.036	787.3192	867.1728	922.296	939.8172	948.8759	983.6416	995.1238	1010.6829	1017.1925	1049.8256	1068.8414	1087.0708	1101.4854	1127.855	1182.9925	1203.284	1221.6602	1242.8148	1279.4438	1313.8945	1362.4581	1377.4708	1400.4488	1410.614	1423.3696	1481.6936	1483.5177	1489.8125	1496.5623	1499.009	1508.5067	1511.0856	3017.0534	3026.6079	3029.9652	3043.684	3080.3356	3085.9984	3089.9853	3093.1377	3104.4128	3112.4598	3118.2429	3160.0529	3172.5129	3196.7899
CC1C2CC2C1(C)C	C[C@H]1[C@H]2C[C@H]2C1(C)C	
InChI=1S/C8H14/c1-5-6-4-7(6)8(5,2)3/h5-7H,4H2,1-3H3	InChI=1S/C8H14/c1-5-6-4-7(6)8(5,2)3/h5-7H,4H2,1-3H3/t5-,6+,7+/m0/s1
