19
gdb 97569	2.99711	0.73911	0.64915	3.3017	81.81	-0.2472	-0.0295	0.2177	1786.6853	0.155347	-423.021894	-423.010969	-423.010025	-423.060074	37.342	
C	 0.3890695351	 1.42655951	 0.4967479739	-0.365603
C	-0.321228619	 0.331897852	-0.320127843	-0.315606
C	 0.5002368522	-0.2041573214	-1.4003090603	 0.031095
C	 1.2034400372	-0.6431821481	-2.2750303808	 0.090783
C	 2.0427072982	-1.2015449121	-3.3427012379	-0.119233
O	 2.4086732681	-2.5355623552	-3.1110668384	-0.414499
C	 1.2863230108	-1.0963884632	-4.6928897937	 0.374116
C	 0.9571856206	 0.2764876742	-5.2180377638	-0.481259
O	 1.0057146586	-2.1211697783	-5.2712244066	-0.310569
H	 1.3038595588	 1.038634766	 0.952478922	 0.133123
H	 0.6618270017	 2.2726344088	-0.1399410729	 0.126047
H	-0.2659409773	 1.7919132829	 1.2930423608	 0.117295
H	-0.6147523071	-0.4910643386	 0.3438663149	 0.138047
H	-1.256114992	 0.7294067974	-0.7357767088	 0.12983
H	 2.9541119408	-0.5873165277	-3.4329965021	 0.112987
H	 1.9275110377	-3.0430520276	-3.7867057282	 0.293402
H	 1.8866712734	 0.807434418	-5.4552772981	 0.149592
H	 0.3463326722	 0.1963228162	-6.1176489387	 0.149378
H	 0.43950992	 0.8612414467	-4.4530302785	 0.161075
27.5335	39.4795	82.5772	95.5421	118.3477	183.0021	220.3702	283.7059	334.4894	390.3547	411.3556	429.8976	497.5324	538.8617	573.2249	635.3763	771.3451	785.2422	817.0006	963.3068	969.4553	1039.1193	1076.0836	1102.1318	1106.8991	1163.609	1197.0473	1252.2083	1286.5261	1333.1384	1351.0159	1385.4658	1410.7994	1433.3638	1464.4916	1471.8477	1472.9503	1495.3119	1505.243	1811.2744	2356.4431	2967.7924	3022.2207	3044.4352	3045.7023	3050.3911	3113.3438	3119.2617	3125.1198	3159.5274	3658.8042
CCC#CC(O)C(C)=O	CCC#C[C@@H](O)C(=O)C	
InChI=1S/C7H10O2/c1-3-4-5-7(9)6(2)8/h7,9H,3H2,1-2H3	InChI=1S/C7H10O2/c1-3-4-5-7(9)6(2)8/h7,9H,3H2,1-2H3/t7-/m1/s1
