15
gdb 69029	2.75809	1.38672	1.18048	2.0766	77.69	-0.2174	-0.0072	0.2103	1071.1471	0.110832	-416.728342	-416.719957	-416.719013	-416.761112	32.204	
O	 0.1526425858	 1.3771380012	-0.1635370908	-0.430719
C	 0.0673505914	 0.0227417738	-0.0730057414	 0.291885
C	-0.2654482913	-0.8165641572	-1.2686700531	-0.347348
C	-1.1251142286	-1.0240060588	-0.049434037	 0.100915
N	-0.3072552053	-1.8701489622	 0.8879251742	-0.394622
C	 0.6103332301	-0.7851027689	 1.0637594989	 0.297205
N	 1.453194622	-0.4496334074	 1.9398163025	-0.545203
C	-2.5214857684	-0.877431071	 0.0719219012	 0.222109
C	-3.7122265128	-0.7490105639	 0.2036360211	-0.44024
H	 0.27980737	 1.7194770018	 0.7311117477	 0.305937
H	-0.7347443808	-0.2353654802	-2.0567352836	 0.146196
H	 0.3837634691	-1.6242722067	-1.5968291644	 0.129585
H	-0.7905766472	-2.1558170027	 1.733842252	 0.243301
H	 1.5362562345	-1.1476332171	 2.680924613	 0.224422
H	-4.7634030386	-0.6393951407	 0.3059832497	 0.196576
95.3649	115.3693	175.9959	251.1992	331.1509	383.0501	413.1074	465.8401	501.7542	516.6949	534.7291	585.9377	627.2726	676.8532	690.2595	704.7642	759.9393	829.7393	886.7663	936.5109	971.4934	1028.6127	1093.5704	1115.7404	1151.8718	1216.1884	1283.237	1354.7946	1405.7648	1423.1713	1497.0495	1795.0925	2224.5127	3111.6239	3213.4955	3466.8552	3501.1454	3538.5811	3774.5635
OC12CC1(NC2=N)C#C	O[C@]12C[C@]1(N[C]2[NH])C#C	
InChI=1S/C6H6N2O/c1-2-5-3-6(5,9)4(7)8-5/h1,9H,3H2,(H2,7,8)	InChI=1S/C6H6N2O/c1-2-5-3-6(5,9)4(7)8-5/h1,9H,3H2,(H2,7,8)/t5-,6+/m1/s1
