19
gdb 74366	2.70812	1.21505	0.89931	4.6907	82.7	-0.2414	0.0023	0.2437	1305.3219	0.160897	-382.092615	-382.083959	-382.083015	-382.126048	32.623	
C	-0.0098566759	 1.5470290877	 0.0628441008	-0.472959
C	 0.0118386477	 0.0460559772	-0.0194204973	 0.295547
C	 0.0033520628	-0.6037358049	-1.1842067247	-0.148049
C	 0.0073180449	-2.1230122289	-1.2813079744	-0.138944
N	-0.2569401597	-2.8242014268	-0.0181765221	-0.303254
C	 0.4385662063	-2.1772809131	 1.0965459876	-0.174074
C	 0.0466802528	-0.7053565662	 1.2928658509	-0.294754
C	-0.9623832727	-2.5687230543	-2.2945597474	 0.257988
N	-1.7307400239	-2.8948746176	-3.0931517552	-0.318831
H	 0.8844248781	 1.9257776461	 0.5736448542	 0.127298
H	-0.0625640768	 2.008285414	-0.9265953136	 0.126953
H	-0.8718729305	 1.8924776266	 0.6478030174	 0.129667
H	 0.0070421469	-0.0612981402	-2.1258098152	 0.102314
H	 0.9971942292	-2.4494506748	-1.6407231519	 0.138031
H	-1.2579052898	-2.8118206164	 0.1570217358	 0.230477
H	 0.2452549605	-2.757807101	 2.0035421175	 0.110516
H	 1.5155276628	-2.2456837525	 0.897617126	 0.113854
H	 0.7515952142	-0.216237995	 1.9785232737	 0.106991
H	-0.936297967	-0.6327663699	 1.7819902578	 0.111231
77.7314	122.5509	172.954	197.9825	271.5417	327.1905	331.5347	419.712	453.5452	467.8485	549.7852	580.361	677.5098	789.0503	798.7441	839.0433	887.6925	934.3896	961.9544	1000.1091	1028.0923	1047.7028	1070.427	1123.0469	1149.8176	1180.4749	1226.814	1279.3817	1292.2199	1311.5944	1350.4602	1375.499	1397.8652	1413.0784	1470.4074	1478.9799	1486.7061	1488.6218	1499.3775	1738.2371	2362.6659	2970.4435	2998.3825	3018.7464	3025.8925	3041.0429	3066.828	3085.9217	3115.8715	3163.5167	3506.0904
CC1=CC(NCC1)C#N	CC1=C[C@@H](NCC1)C#N	
InChI=1S/C7H10N2/c1-6-2-3-9-7(4-6)5-8/h4,7,9H,2-3H2,1H3	InChI=1S/C7H10N2/c1-6-2-3-9-7(4-6)5-8/h4,7,9H,2-3H2,1H3/t7-/m1/s1
