20
gdb 97462	8.23848	0.48513	0.47322	2.0526	81.8	-0.248	0.0258	0.2738	2309.2772	0.168398	-440.252658	-440.242358	-440.241414	-440.290205	34.884	
C	-0.2103877842	 1.3240641519	-0.1243619089	-0.314218
N	 0.2655059713	-0.0264874545	 0.0873922492	-0.204532
C	 0.5245014851	-0.7140048752	-0.9327057434	 0.130699
O	 0.9468353336	-1.9890721165	-0.814852623	-0.206764
C	 1.3327866291	-2.6394394977	-2.024968277	-0.069624
C	 1.4805786311	-4.1262229994	-1.7255963057	-0.236803
C	 1.9451666912	-4.892628005	-2.9388320292	 0.090146
C	 1.4337373179	-6.2281513579	-3.2661794946	-0.178183
O	 0.9803931407	-5.0780231223	-3.9816323652	-0.236214
H	 0.4580774064	 2.032759295	 0.377890692	 0.12702
H	-0.285716363	 1.6131024095	-1.185885353	 0.094927
H	-1.1992181455	 1.4424214816	 0.3335272854	 0.127779
H	 0.4243901103	-0.3609212342	-1.9720208492	 0.07261
H	 0.5746860706	-2.4859275979	-2.8035676701	 0.125461
H	 2.2827107548	-2.2203184349	-2.386771609	 0.106198
H	 2.2002724537	-4.2564864055	-0.9088367062	 0.120781
H	 0.5184435666	-4.519550409	-1.3828269722	 0.119803
H	 2.939263691	-4.631111511	-3.307863887	 0.094864
H	 2.0514851528	-6.9207980092	-3.8358660633	 0.118072
H	 0.6963789265	-6.6931391578	-2.6130185796	 0.117977
24.1969	53.5954	77.4792	109.4876	131.566	206.134	213.6695	281.483	308.0434	378.2346	444.4111	499.2557	614.9434	780.8591	819.6427	879.5921	950.3643	981.9292	1012.7551	1032.3904	1062.645	1082.3614	1121.0857	1141.225	1155.8264	1156.7851	1162.3071	1179.4148	1230.9812	1262.0377	1292.8855	1309.1288	1318.5248	1394.2076	1432.2717	1449.9359	1453.1184	1478.1565	1480.5933	1504.6796	1520.4103	1532.4448	1781.4585	2963.7756	2981.8498	3001.0944	3043.3827	3050.4306	3056.8374	3076.22	3081.9695	3086.0008	3102.9658	3171.1976
CN=COCCC1CO1	CN=COCC[C@H]1CO1	
InChI=1S/C6H11NO2/c1-7-5-8-3-2-6-4-9-6/h5-6H,2-4H2,1H3	InChI=1S/C6H11NO2/c1-7-5-8-3-2-6-4-9-6/h5-6H,2-4H2,1H3/t6-/m0/s1
