18
gdb 116596	3.65716	0.96327	0.80979	1.2987	78.76	-0.228	-0.0005	0.2275	1426.7178	0.148736	-435.324789	-435.315883	-435.314939	-435.359523	32.447	
C	 0.0021004009	 1.5257639173	-0.1278063734	-0.358053
C	-0.0644695503	 0.0137847486	 0.1164728834	-0.149194
N	-1.4234125404	-0.4825433742	 0.0141708696	-0.341654
C	-1.8072366346	-1.1062425304	-1.0180043264	 0.467478
N	-3.0982103253	-1.5786455695	-1.2073609765	-0.354797
C	-3.1837200785	-2.4713915523	-2.3463744826	-0.289292
C	-1.8318573417	-2.2689148495	-3.0394665942	 0.414559
O	-1.47004006	-2.7095168974	-4.101013804	-0.35294
N	-1.103382358	-1.4728895345	-2.181321346	-0.380909
H	 1.0171780073	 1.9024285367	 0.0352533267	 0.109197
H	-0.2955482504	 1.7716497359	-1.1525544037	 0.111571
H	-0.6773055745	 2.0479751402	 0.5514863491	 0.130365
H	 0.6447160476	-0.4983090076	-0.5574756077	 0.067411
H	 0.2906952914	-0.1963069245	 1.1328115034	 0.108172
H	-3.6430617934	-1.7312756191	-0.3746944721	 0.258252
H	-3.2897698792	-3.5309728486	-2.0752491644	 0.13986
H	-3.9973914668	-2.2156604156	-3.0333858913	 0.14567
H	-0.1655408443	-1.1753065556	-2.3910495198	 0.274303
28.1748	114.8493	130.5911	187.8612	204.607	274.2259	403.2776	440.0134	473.4567	518.36	550.9673	600.7864	627.2497	703.1645	721.7484	808.153	871.2673	914.5153	964.3948	1016.8603	1060.0852	1090.586	1128.5748	1167.6151	1195.4105	1214.2095	1292.2971	1309.2313	1355.5035	1372.5009	1389.6875	1404.2852	1434.5654	1489.1617	1496.6256	1503.8222	1523.7775	1794.0076	1862.6745	2943.0203	3014.8176	3033.7954	3037.3004	3067.3399	3104.5612	3118.9448	3654.7637	3673.7087
CCN=C1NCC(=O)N1	CCN=C1NCC(=O)N1	
InChI=1S/C5H9N3O/c1-2-6-5-7-3-4(9)8-5/h2-3H2,1H3,(H2,6,7,8,9)	InChI=1S/C5H9N3O/c1-2-6-5-7-3-4(9)8-5/h2-3H2,1H3,(H2,6,7,8,9)
