17
gdb 116878	3.35933	0.60025	0.53256	1.7077	78.43	-0.2705	0.0044	0.2749	2005.605	0.134536	-417.970673	-417.960135	-417.959191	-418.008459	35.631	
N	 0.6045542182	 1.5926705696	-0.0589744626	-0.484824
C	 0.0927443357	 0.2199024047	 0.043382375	-0.298815
C	 0.4363869691	-0.6230974594	-1.133230567	 0.272026
N	 0.7120785415	-1.2254974123	-2.0804898441	-0.324782
C	 0.556291714	-0.4268365826	 1.271485832	 0.149299
C	 0.9373546106	-0.9597891916	 2.2802047031	 0.04987
C	 1.4162368854	-1.6223565609	 3.4849632861	-0.328569
C	 2.4377530745	-2.7260980573	 3.1840251124	-0.064291
O	 2.8174777412	-3.2773221759	 4.4316430966	-0.41387
H	 1.620223305	 1.5717002839	-0.0775206964	 0.247395
H	 0.2994327349	 2.0018034057	-0.9381168396	 0.246013
H	-1.0036121329	 0.2862255107	 0.0692395384	 0.160442
H	 1.8795071439	-0.8921672868	 4.1592312584	 0.145849
H	 0.5767399739	-2.0642123416	 4.034769666	 0.144991
H	 1.979586998	-3.4781931715	 2.52515343	 0.105529
H	 3.2958221275	-2.2936414545	 2.648396856	 0.101645
H	 3.4476205994	-3.9855311502	 4.2710385558	 0.292092
20.3277	54.5871	75.8955	131.5327	163.3929	217.0364	241.6122	272.9378	313.2596	345.0731	375.0829	452.4681	503.4024	599.5654	608.7962	791.7246	794.1668	853.7034	948.0681	999.5048	1065.5547	1084.375	1086.8327	1174.1885	1195.2597	1221.5668	1240.0322	1304.0274	1317.4915	1331.8676	1392.2311	1456.4784	1474.4255	1528.2545	1654.7128	2347.5353	2379.2049	2986.8732	3018.7497	3019.5489	3036.2887	3074.8868	3490.0708	3575.879	3836.0749
NC(C#N)C#CCCO	N[C@@H](C#N)C#CCCO	
InChI=1S/C6H8N2O/c7-5-6(8)3-1-2-4-9/h6,9H,2,4,8H2	InChI=1S/C6H8N2O/c7-5-6(8)3-1-2-4-9/h6,9H,2,4,8H2/t6-/m1/s1
