21
gdb 110850	2.17545	1.30907	1.14255	1.6385	79.33	-0.2445	0.0714	0.3159	1222.2503	0.181202	-424.189222	-424.179461	-424.178517	-424.223751	36.526	
C	-0.02732047	 1.5282252429	-0.0581731551	-0.504338
C	 0.0169152971	 0.0251804024	-0.0304312385	 0.31199
C	-0.9250587309	-0.7966016579	 0.8149464487	-0.038719
C	-1.8628274726	-1.8774718895	 0.3356576163	-0.122703
O	-2.1566324589	-2.7109491492	 1.4554359806	-0.423801
C	 0.5528678191	-0.9553245886	 1.0387813018	-0.103515
C	 1.1816904604	-1.8438381394	-0.036648796	-0.284852
C	 0.6979504749	-0.8113380371	-1.1117102027	 0.054814
O	-0.1506433435	-1.2278400327	-2.1658193712	-0.431319
H	 0.9506703529	 1.9529443308	-0.3137331157	 0.111447
H	-0.7491888456	 1.8890914205	-0.8006662309	 0.126267
H	-0.3242148326	 1.9343208609	 0.9141874687	 0.117752
H	-1.383619413	-0.1879318792	 1.5931762004	 0.08617
H	-2.7783269577	-1.4055382297	-0.0557824839	 0.082717
H	-1.42294673	-2.4477135459	-0.4889724908	 0.10125
H	-2.7971972765	-3.3694243743	 1.1707492124	 0.28238
H	 1.0101305303	-0.7160574009	 1.9914245078	 0.083293
H	 2.2707760865	-1.9066407817	 0.022964723	 0.096021
H	 0.7750396258	-2.8557856671	-0.1225524198	 0.103194
H	 1.5591418938	-0.2596309632	-1.514745188	 0.069769
H	 0.3822300004	-1.7029358009	-2.811638617	 0.282183
52.4546	140.7767	173.416	187.3645	217.7966	258.7084	268.7324	281.8034	290.5444	400.5683	423.0464	526.4954	571.4659	638.9263	732.171	790.9541	847.5412	886.247	935.0388	950.391	973.3914	1026.2409	1049.2383	1063.4855	1090.3575	1092.0601	1108.7864	1141.5823	1163.846	1203.117	1226.8249	1250.0422	1255.0813	1259.4899	1289.007	1323.7935	1352.4026	1411.7438	1417.4247	1445.4068	1479.8939	1485.6803	1497.39	1501.9888	1529.2934	2975.0573	2993.6988	3019.7009	3052.1965	3066.1171	3077.3482	3095.1225	3105.3832	3121.7762	3182.7369	3812.0827	3825.0981
CC12C(CO)C1CC2O	C[C@]12[C@@H](CO)[C@H]1C[C@H]2O	
InChI=1S/C7H12O2/c1-7-4(2-6(7)9)5(7)3-8/h4-6,8-9H,2-3H2,1H3	InChI=1S/C7H12O2/c1-7-4(2-6(7)9)5(7)3-8/h4-6,8-9H,2-3H2,1H3/t4-,5+,6-,7-/m1/s1
