14
gdb 74241	2.88108	1.31735	0.90512	11.8653	80.5	-0.16	-0.0103	0.1497	1191.8951	0.102266	-429.057315	-429.048798	-429.047854	-429.090348	31.55	
N	 0.0220115163	 1.363962321	 0.1438972255	-0.60025
C	 0.0225624445	-0.0054829649	 0.0274219378	 0.466112
N	-1.0289195555	-0.8013108534	-0.002965451	-0.347157
H	-1.9883102736	-0.5002873042	-0.0347659969	 0.287143
C	-0.63085327	-2.1685345509	-0.0213182129	 0.083256
C	-1.5781570958	-3.1828672158	-0.0339487636	 0.190099
N	-2.4183053886	-3.9912026699	-0.0488002075	-0.386371
C	 0.7973520185	-2.1948249003	-0.0114616599	 0.259542
N	 1.624221893	-3.1732413514	-0.0176545809	-0.591812
N	 1.1265204331	-0.7756771947	 0.0080738572	-0.368761
H	 0.7334885232	 1.8344667575	-0.400563715	 0.276342
H	-0.8819968019	 1.7989873091	 0.0235526676	 0.272789
H	 2.592851007	-2.8640096096	-0.0013046511	 0.191058
H	 2.0605169499	-0.4269264226	 0.1437738106	 0.268009
108.3904	140.8702	173.7975	175.3839	287.5126	314.2268	385.4603	434.9745	517.704	534.221	551.1366	599.8319	626.3716	628.183	659.639	665.5159	701.0675	814.0358	966.373	1064.1469	1116.94	1171.5312	1199.9384	1263.8558	1328.1712	1466.8811	1575.8024	1641.2958	1694.9884	1742.3896	2285.447	3509.8171	3547.5705	3649.4973	3669.3578	3677.3244
NC1=[NH+][C-](C#N)C(=N)N1	N[C@@H]1NC(=C([NH])N1)C#N	
InChI=1S/C4H5N5/c5-1-2-3(6)9-4(7)8-2/h8H,7H2,(H2,6,9)	InChI=1S/C4H6N5/c5-1-2-3(6)9-4(7)8-2/h4,6,8-9H,7H2/t4-/m1/s1
