15
gdb 22248	2.20216	1.64636	0.94274	4.7888	71.93	-0.1912	-0.0452	0.1459	1153.1079	0.111848	-487.278337	-487.269467	-487.268523	-487.311632	33.334	
N	-0.2260908215	 0.9477063146	 0.1890455898	-0.536016
C	-0.1789583095	-0.3949249194	 0.1262602317	 0.44686
N	 0.9909763114	-1.0265824357	 0.0879016068	-0.553512
H	 0.9124010209	-2.055697509	 0.1105398017	 0.311191
H	 1.8600534246	-0.5315858767	 0.1919248379	 0.257867
C	-1.4056265654	-1.140238723	 0.1205240265	 0.096745
N	-2.4986211018	-0.336692994	 0.0785281632	-0.104373
O	-3.6502607029	-0.8240422815	 0.0823798657	-0.390459
C	-1.3692120666	-2.62299935	 0.1520698813	 0.383759
N	-2.5721437754	-3.224983	 0.1718130797	-0.538495
O	-0.305119916	-3.2667562602	 0.1587410811	-0.448918
H	 0.5777164039	 1.503616583	-0.0462412913	 0.261088
H	-1.1557655594	 1.3396748114	 0.1043115833	 0.282316
H	-3.3980102602	-2.6281976807	 0.1510967092	 0.280055
H	-2.599043312	-4.2310438786	 0.1797947034	 0.251893
91.7518	115.6094	217.2919	264.3729	278.5514	330.1919	383.7927	390.5411	402.0203	423.4316	442.4588	467.5863	586.034	645.9596	667.0276	715.658	768.442	771.3414	804.1935	849.8793	1065.2758	1114.5764	1129.4386	1206.3883	1308.1174	1355.7748	1455.5358	1503.9126	1527.1568	1585.2189	1636.6449	1659.8841	1717.8205	3206.6478	3399.4498	3537.8104	3678.2775	3685.2431	3706.4523
NC(=[NH2+])C(=N[O-])C(N)=O	NC(=[NH2])C(=N[O])C(=O)N	
InChI=1S/C3H6N4O2/c4-2(5)1(7-9)3(6)8/h9H,(H3,4,5)(H2,6,8)	InChI=1S/C3H6N4O2/c4-2(5)1(7-9)3(6)8/h4-5H2,(H2,6,8)
