20
gdb 36807	8.0151	0.49568	0.48712	4.1877	81.99	-0.2421	0.0214	0.2635	2195.1972	0.170802	-399.290425	-399.280613	-399.279669	-399.326655	34.272	
N	-0.0594665933	-1.117569148	-0.0055424244	-0.297312
C	-0.026861753	 0.0362432008	 0.0331849468	 0.255409
C	 0.0188692941	 1.4990222506	 0.1137550599	-0.258601
N	 1.3672952075	 1.996925412	-0.1248062996	-0.300817
C	 1.4597559514	 3.448339258	 0.0057722701	-0.12485
C	 2.8824564797	 3.9192124546	-0.2891794117	-0.158948
N	 2.9637738731	 5.3690794055	-0.18812316	-0.060103
C	 3.3280093975	 5.9124579237	 1.1179981986	-0.220507
C	 4.2971898309	 5.9311278996	-0.0115292608	-0.219427
H	-0.6494411399	 1.9081503615	-0.654367832	 0.158685
H	-0.4096739127	 1.7979541487	 1.0887751815	 0.130745
H	 2.0084053702	 1.5484036574	 0.5225293348	 0.230035
H	 0.779690402	 3.906378999	-0.7217747423	 0.122338
H	 1.1486895217	 3.8127844108	 1.0024502645	 0.086371
H	 3.5906281526	 3.4132109361	 0.3962005117	 0.074612
H	 3.1538026563	 3.622681672	-1.3077904088	 0.121906
H	 2.8085830354	 6.8179104794	 1.417569073	 0.120058
H	 3.5237786906	 5.2094792653	 1.9269303691	 0.107833
H	 5.1379605835	 5.2413117022	 0.0453647514	 0.111758
H	 4.4981408224	 6.8503070209	-0.5539857617	 0.120817
42.8777	70.0899	85.5671	122.2205	143.388	185.6744	292.4434	334.4399	394.3055	406.7955	469.9722	577.8725	770.7903	779.7631	814.2347	850.6504	902.3334	940.3814	995.9931	1018.7365	1027.2695	1058.8313	1104.5756	1114.3393	1119.9715	1140.9351	1149.9731	1175.3968	1189.6355	1235.1818	1279.2356	1310.3821	1325.2698	1326.3626	1378.9643	1429.1882	1487.2555	1490.5986	1495.256	1499.3349	1518.961	1523.5326	2368.7175	2908.4572	2930.8274	2933.2378	3047.431	3056.913	3074.9898	3091.6217	3098.1447	3178.0317	3192.1527	3513.9722
N#CCNCCN1CC1	N#CCNCCN1CC1	
InChI=1S/C6H11N3/c7-1-2-8-3-4-9-5-6-9/h8H,2-6H2	InChI=1S/C6H11N3/c7-1-2-8-3-4-9-5-6-9/h8H,2-6H2
