14
gdb 131715	2.78524	1.50356	0.98233	0.3553	67.74	-0.2478	-0.0749	0.173	1107.3223	0.102134	-470.022893	-470.015131	-470.014187	-470.055631	28.046	
O	 0.0136385459	 1.4328515033	 0.0078783582	-0.401046
C	-0.02326855	 0.0306422684	 0.0020759193	-0.153806
C	-1.4408745447	-0.4598329685	 0.0124511133	 0.204209
N	-2.4508206779	 0.3511579809	 0.0230566451	-0.276449
C	-3.7053586644	-0.2025422691	 0.0320052639	 0.071255
N	-3.9961358393	-1.4692389953	 0.0310648358	-0.178016
N	-2.9328211782	-2.2934206344	 0.0199431392	-0.262615
C	-1.5984488451	-1.9287551373	 0.0095344535	 0.402223
O	-0.6898959921	-2.7414086035	-0.0003633398	-0.381049
H	 0.9369953503	 1.7006501848	-0.0044918564	 0.296073
H	 0.4688052701	-0.4123244974	-0.8810080453	 0.128796
H	 0.4842945228	-0.4199778805	 0.8724409954	 0.128823
H	-4.5444913209	 0.4824853553	 0.0408315345	 0.141119
H	-3.1465131665	-3.2830423966	 0.0190748334	 0.280483
79.1429	137.3068	191.7045	234.5048	260.8623	335.8502	425.5319	527.0696	574.9612	582.1191	592.0186	742.742	771.6102	783.1453	899.4694	933.8156	1009.491	1085.2965	1139.5964	1170.2331	1213.5456	1239.1995	1252.8385	1311.2683	1394.9785	1426.4724	1466.2487	1483.1427	1567.387	1643.3624	1778.1145	2962.9684	2976.7421	3215.3338	3584.2205	3839.4135
OCC1=NC=NNC1=O	OCc1ncn[nH]c1=O	
InChI=1S/C4H5N3O2/c8-1-3-4(9)7-6-2-5-3/h2,8H,1H2,(H,7,9)	InChI=1S/C4H5N3O2/c8-1-3-4(9)7-6-2-5-3/h2,8H,1H2,(H,7,9)
