18
gdb 56326	4.5912	0.64197	0.60207	4.0207	71.27	-0.2564	0.0057	0.2621	1815.6286	0.145576	-476.286923	-476.27662	-476.275676	-476.325	34.235	
C	 0.0379407967	 1.3766079844	-0.1461345057	-0.479568
C	 0.0925897943	-0.1271637348	-0.0299238611	 0.433212
O	 1.0904734671	-0.7992702264	-0.0199647653	-0.340499
O	-1.1549334754	-0.6466905339	 0.0648055041	-0.254947
C	-1.2304596223	-2.0829704381	 0.1672460371	-0.06722
C	-2.6982643746	-2.438296094	 0.3264564098	-0.177258
N	-3.4916312181	-2.0025687724	-0.8077073095	-0.272189
C	-4.236160637	-2.8542628246	-1.5629571657	 0.158669
O	-4.3456140506	-4.0465856149	-1.3713914902	-0.320968
H	 1.0516065064	 1.7738849389	-0.1748647124	 0.153596
H	-0.4968753326	 1.6626468081	-1.0566632065	 0.148425
H	-0.5084878247	 1.8018827076	 0.7001417719	 0.150754
H	-0.8034034725	-2.5314721765	-0.7345694146	 0.13298
H	-0.6450495539	-2.4191630594	 1.0280418305	 0.12884
H	-2.8126422672	-3.5224312877	 0.3940112168	 0.156626
H	-3.083011925	-1.9951006412	 1.2534636317	 0.11958
H	-3.4500064944	-1.0297599739	-1.065877906	 0.253477
H	-4.7469795762	-2.3252957012	-2.3915991249	 0.076491
27.3535	44.4164	56.1822	72.3755	151.1836	200.1339	228.1707	244.4645	344.9251	411.4392	503.4225	556.9564	605.3742	639.2552	753.046	833.154	894.5907	959.8133	1010.9601	1031.1349	1063.8494	1069.8379	1081.9563	1122.2303	1214.0468	1251.3776	1260.5066	1289.7725	1381.7529	1395.281	1413.8292	1429.8603	1469.3379	1476.8654	1482.6069	1502.4347	1528.7079	1807.0576	1832.5803	2939.995	3031.4684	3056.867	3058.9332	3109.9885	3121.5365	3124.598	3170.825	3643.9941
CC(=O)OCCNC=O	CC(=O)OCCNC=O	
InChI=1S/C5H9NO3/c1-5(8)9-3-2-6-4-7/h4H,2-3H2,1H3,(H,6,7)	InChI=1S/C5H9NO3/c1-5(8)9-3-2-6-4-7/h4H,2-3H2,1H3,(H,6,7)
