18
gdb 119449	4.84786	0.80114	0.75633	3.1148	73.74	-0.2426	-0.0214	0.2213	1486.4588	0.14675	-439.05373	-439.044824	-439.043879	-439.088171	32.443	
O	-0.1571420677	 1.4847116394	 0.15638123	-0.417325
C	-0.037465331	 0.0744537748	 0.2330097005	-0.073222
C	-1.3818141484	-0.5192909299	-0.1837733469	-0.281378
C	-1.3691554745	-2.0192721055	-0.1852035553	 0.334962
C	-0.6698175225	-2.9374972196	-1.2112175162	-0.429976
C	-1.9151122868	-3.8658248674	-1.0864003052	 0.420102
O	-2.297041147	-4.808586691	-1.7171809179	-0.306772
C	-2.541606789	-2.9838539967	-0.0354846283	-0.223727
N	-1.5682595353	-2.7474080687	 1.0509554818	-0.347329
H	 0.668828894	 1.8755448147	 0.4555981456	 0.288327
H	 0.7584435506	-0.2965102285	-0.4340062144	 0.087149
H	 0.2059788677	-0.2577270654	 1.2539545979	 0.100666
H	-2.1522818445	-0.1631966264	 0.5067239142	 0.124319
H	-1.6348117684	-0.1478933932	-1.1834485359	 0.114428
H	-0.6120068397	-2.5371807238	-2.2285962483	 0.136331
H	 0.3108480174	-3.3300322101	-0.9252929545	 0.11914
H	-3.5921155341	-2.8145142261	 0.1694307705	 0.115634
H	-0.9218597409	-3.5255620366	 1.1707202324	 0.238672
60.555	87.4871	97.4631	168.3852	254.1525	318.0561	338.4631	390.4843	437.3279	472.6021	580.8167	652.377	732.0313	789.4396	803.4592	845.2389	958.0436	963.3822	993.227	1019.3466	1042.2304	1080.6272	1081.753	1111.6919	1139.7442	1157.8118	1199.1711	1215.7862	1240.8551	1244.5288	1291.7854	1327.7992	1330.1676	1427.2108	1460.3478	1466.0409	1478.2877	1528.3635	1884.6924	2961.8132	2999.1881	3045.4376	3050.0957	3098.3512	3103.1618	3191.7444	3462.4451	3832.5348
OCCC12CC(=O)C1N2	OCC[C@]12CC(=O)[C@H]1N2	
InChI=1S/C6H9NO2/c8-2-1-6-3-4(9)5(6)7-6/h5,7-8H,1-3H2	InChI=1S/C6H9NO2/c8-2-1-6-3-4(9)5(6)7-6/h5,7-8H,1-3H2/t5-,6+/m1/s1
