17
gdb 48891	3.47095	1.48506	1.399	2.9357	72.41	-0.2544	-0.0362	0.2182	967.8387	0.136473	-421.789053	-421.782106	-421.781162	-421.820805	27.507	
O	-0.1766792797	 0.1687722208	-0.3567251822	-0.257362
C	 0.0960496411	 1.1869165964	 0.2286218293	 0.04938
C	 1.3831110196	 1.9227768374	 0.0402000645	 0.331322
C	 2.7495153571	 1.258079977	-0.2381047144	-0.272376
C	 3.1149429132	 2.6688886462	-0.7136141449	-0.077161
C	 2.5873827236	 3.6759324893	 0.4000215673	 0.081373
C	 1.6614098286	 4.3212942265	-0.6538599306	-0.244363
C	 1.6448560033	 2.8962689852	-1.2172565808	-0.09996
O	 1.6778458434	 2.8201040216	 1.1167273032	-0.310579
H	-0.6086292716	 1.6686564215	 0.9410163316	 0.090854
H	 3.2570328657	 0.8181219986	 0.6232432318	 0.107575
H	 2.6980829969	 0.5544393704	-1.0713759996	 0.123577
H	 4.0004704944	 2.9319212887	-1.2887113868	 0.082397
H	 3.2230794016	 4.2320986901	 1.0860797639	 0.086567
H	 0.7419405773	 4.7871453632	-0.2918894706	 0.106751
H	 2.2004855045	 4.9919042957	-1.3289896378	 0.1079
H	 1.267233201	 2.5894412815	-2.189834644	 0.094106
59.5043	180.2721	214.2343	392.1179	435.2495	487.6842	537.2836	641.1519	688.8949	724.5595	786.7072	835.9833	844.1958	879.3432	922.9444	948.5671	963.7027	989.2538	993.8072	1028.8779	1038.3319	1072.0712	1081.8409	1106.8349	1147.2035	1182.6603	1190.6259	1215.7354	1240.3061	1258.5421	1271.8381	1306.8875	1315.5037	1409.352	1480.4945	1483.208	1822.4777	2899.5724	3060.6365	3070.304	3123.19	3136.8086	3138.2618	3145.4364	3152.226
O=CC12CC3C(CC13)O2	O=C[C@@]12C[C@@H]3[C@@H](C[C@H]13)O2	
InChI=1S/C7H8O2/c8-3-7-2-4-5(7)1-6(4)9-7/h3-6H,1-2H2	InChI=1S/C7H8O2/c8-3-7-2-4-5(7)1-6(4)9-7/h3-6H,1-2H2/t4-,5-,6+,7-/m0/s1
