19
gdb 77600	2.2823	1.72884	1.37495	1.5741	75.96	-0.2118	0.0284	0.2401	1032.0526	0.158489	-419.204897	-419.195815	-419.194871	-419.23789	34.743	
C	-0.1191345835	 1.5437994978	-0.0692930941	-0.503714
C	 0.0103002239	 0.048488542	 0.018721721	 0.269934
N	 0.3581442295	-0.6743981204	-1.1904996007	-0.336838
C	 1.1836400018	-1.7188455162	-0.8108997358	 0.023769
N	 1.3990202207	-1.8659389203	 0.4455575352	-0.286377
C	 0.7117751669	-0.7910973174	 1.1254850788	 0.232255
C	 1.3673881364	-0.2594042903	 2.3733661319	-0.484026
C	-0.8060744962	-0.7866679459	 0.969616548	 0.006182
O	-1.5731004663	-0.0630619918	 1.8879852429	-0.42402
H	 0.836182806	 2.0148599817	-0.3258853523	 0.117
H	-0.856605634	 1.8279169811	-0.8296271929	 0.123727
H	-0.4636328194	 1.945994181	 0.8841751858	 0.151337
H	 0.561389369	-0.1563249762	-2.033578128	 0.240876
H	 1.5878202361	-2.3809094996	-1.5702301648	 0.122512
H	 2.3488324371	 0.1700252978	 2.1493055598	 0.121864
H	 0.7524558978	 0.5110146571	 2.8447262842	 0.119057
H	 1.5206149524	-1.0717527722	 3.0922171529	 0.126273
H	-1.2724885596	-1.6911249885	 0.5751999842	 0.087869
H	-1.5595622486	-0.5382016997	 2.725981244	 0.29232
131.834	161.3694	180.1431	205.3526	257.4995	281.8134	295.2966	341.6592	383.5978	409.9425	502.9904	509.5312	597.8671	646.0132	663.8212	775.2701	804.954	918.0035	926.2669	952.1389	980.9373	1044.3934	1080.914	1101.2779	1121.3099	1143.0654	1192.1509	1229.1851	1250.9375	1298.6439	1336.291	1352.5868	1399.9328	1405.9257	1417.3613	1467.1811	1485.431	1491.6858	1495.8125	1506.6763	1644.3141	3027.4417	3036.5311	3082.4558	3083.4676	3096.3941	3123.8746	3144.8211	3192.0747	3592.4259	3797.6696
CC12NC=NC1(C)C2O	C[C@@]12NC=N[C@]1(C)[C@H]2O	
InChI=1S/C6H10N2O/c1-5-4(9)6(5,2)8-3-7-5/h3-4,9H,1-2H3,(H,7,8)	InChI=1S/C6H10N2O/c1-5-4(9)6(5,2)8-3-7-5/h3-4,9H,1-2H3,(H,7,8)/t4-,5-,6+
