21
gdb 94841	3.53319	1.15668	1.01528	0.2952	78.62	-0.2401	0.0695	0.3096	1236.6084	0.183569	-424.220444	-424.212066	-424.211121	-424.252965	33.681	
O	-0.0791726976	 1.4355353383	-0.1057971869	-0.431194
C	 0.0060399443	 0.0210571288	-0.0085912118	 0.112827
C	-1.4137480529	-0.5321107195	 0.0815221945	-0.209755
C	-1.3874469632	-2.0685692854	 0.0251990116	-0.278227
C	-0.5731069331	-2.5356882409	-1.1639884567	 0.463753
C	-0.6673423046	-3.9296610269	-1.6876153262	-0.33731
C	-1.2278954766	-2.7782843064	-2.5047842757	-0.321504
O	 0.7266140244	-1.9962043467	-1.1847185344	-0.289851
C	 0.7128556578	-0.5767376173	-1.2335351376	-0.117291
H	 0.8135658123	 1.7940210004	-0.0708471895	 0.282906
H	 0.565421778	-0.278370876	 0.8928774683	 0.068947
H	-1.8968955774	-0.1760795704	 0.9966255797	 0.100759
H	-1.9869801348	-0.1337897572	-0.7649504018	 0.107045
H	-0.9334609807	-2.466783151	 0.942007236	 0.103002
H	-2.4046133504	-2.4689726227	-0.0314624396	 0.097487
H	 0.2555642695	-4.3801753208	-2.0343379857	 0.123548
H	-1.3592069806	-4.6146092724	-1.2091823137	 0.111055
H	-2.3047389464	-2.6766242895	-2.5890654506	 0.110373
H	-0.6709798652	-2.4838870155	-3.3871317129	 0.117629
H	 0.2068829716	-0.2165636318	-2.1432560986	 0.094992
H	 1.7613221658	-0.2613018672	-1.2751501584	 0.090809
98.7876	191.4186	237.7174	271.3258	289.0822	328.2236	362.0576	390.5069	449.8642	486.2475	500.2283	619.1122	699.3756	775.5622	822.829	870.5509	888.7479	928.5849	950.552	968.2892	996.5711	1003.673	1047.2611	1079.0806	1087.031	1095.2855	1106.5433	1133.3844	1174.6676	1189.4097	1214.0164	1264.826	1281.3544	1305.5561	1329.7403	1349.3027	1354.0183	1387.1254	1403.9058	1442.9859	1453.3212	1480.3306	1488.064	1496.1905	1507.5543	2966.9452	2987.8732	3023.7835	3035.3299	3067.5124	3078.7245	3086.8783	3132.0758	3136.2452	3216.7535	3230.6521	3814.3611
OC1CCC2(CC2)OC1	O[C@H]1CCC2(CC2)OC1	
InChI=1S/C7H12O2/c8-6-1-2-7(3-4-7)9-5-6/h6,8H,1-5H2	InChI=1S/C7H12O2/c8-6-1-2-7(3-4-7)9-5-6/h6,8H,1-5H2/t6-/m0/s1
