23
gdb 100011	2.43189	1.19161	1.12893	2.0289	80.62	-0.2455	0.0629	0.3083	1256.3816	0.203034	-425.40721	-425.396652	-425.395708	-425.441769	40.923	
C	 0.2184274051	 1.5178035594	 0.2981179044	-0.442373
C	 0.057972574	 0.0173072859	 0.002970749	 0.203842
C	 0.6073246796	-0.7814422938	 1.2030937985	-0.459689
C	-1.4468574048	-0.2982326503	-0.1923921794	-0.089447
O	-2.2429561532	-0.0174109049	 0.9526706038	-0.429507
C	 0.7828295311	-0.4307090128	-1.2767873302	 0.409991
O	 0.7183232322	-1.824971735	-1.5008687025	-0.475009
C	 0.7158957856	 0.3471748741	-2.5577365764	-0.3075
C	 2.0250961405	 0.2492140614	-1.7983253395	-0.342195
H	 1.2411905456	 1.7685473462	 0.5947303671	 0.108873
H	-0.0521961421	 2.1394668825	-0.5607979469	 0.1133
H	-0.4505132672	 1.7887856604	 1.1189338945	 0.133529
H	 0.1369946485	-0.4500116731	 2.1337927856	 0.116582
H	 0.4199007622	-1.8554568276	 1.0966342671	 0.106644
H	 1.6869523933	-0.6309768625	 1.3128401132	 0.115017
H	-1.8435198885	 0.336076513	-0.9921921678	 0.10595
H	-1.5588008076	-1.3419074448	-0.5112801588	 0.103998
H	-2.1144342547	-0.7299726812	 1.5849479535	 0.283682
H	 1.3527158619	-2.2461078671	-0.9115084195	 0.281319
H	 0.6180273331	-0.2412541148	-3.4622371379	 0.122989
H	 0.203155321	 1.3014328648	-2.5767991158	 0.115938
H	 2.3972150252	 1.1372790729	-1.3014979177	 0.114069
H	 2.7915348991	-0.3955109228	-2.2144168142	 0.109998
74.9231	122.8198	179.1786	231.9962	255.3594	278.6675	294.0314	297.3908	314.9395	336.9654	352.5207	374.4145	400.5379	465.3889	494.4884	530.921	685.5277	777.7008	808.1765	903.2047	909.6768	917.5334	934.2161	952.8955	983.8686	990.2375	1025.846	1054.139	1068.8644	1083.4169	1135.5625	1180.6912	1191.2728	1229.7986	1258.5538	1284.3275	1314.4348	1357.7892	1383.2543	1392.4536	1406.1143	1422.5444	1451.7891	1488.4442	1497.6193	1498.9832	1504.866	1516.8125	1522.9641	3025.8112	3028.4433	3042.3285	3079.6434	3093.5673	3102.1534	3108.5513	3120.2599	3137.7994	3145.7951	3222.224	3237.2533	3805.5917	3834.2889
CC(C)(CO)C1(O)CC1	CC(C)(CO)C1(O)CC1	
InChI=1S/C7H14O2/c1-6(2,5-8)7(9)3-4-7/h8-9H,3-5H2,1-2H3	InChI=1S/C7H14O2/c1-6(2,5-8)7(9)3-4-7/h8-9H,3-5H2,1-2H3
