18
gdb 65678	4.14882	1.01376	0.95628	3.4481	74.21	-0.2453	0.0173	0.2626	1266.8717	0.146054	-439.027623	-439.018984	-439.01804	-439.061134	32.053	
C	 0.0137341096	 1.5995857613	 0.0424679972	-0.474076
C	 0.0174401835	 0.0949863827	-0.0493514164	 0.381576
O	-1.022354469	-0.5441137082	 0.6697889446	-0.231759
C	-2.2540238306	-0.5176241898	 0.1094894551	 0.117716
N	-3.2363682494	-0.9962747203	 0.7385933044	-0.439074
C	 0.4622425575	-0.7279200907	-1.2561415183	-0.200899
C	 1.7170510522	-0.1162452499	-1.8644512872	-0.103516
O	 2.3708205239	-0.0665345341	-0.56325798	-0.287438
C	 1.2625556787	-0.7361229239	 0.0333079201	 0.038701
H	 0.973777609	 2.0003216013	-0.2882926962	 0.147867
H	-0.7819084371	 2.0476380899	-0.5621822869	 0.117497
H	-0.138712972	 1.8965096784	 1.0844312575	 0.140226
H	-2.2696999806	-0.0659313216	-0.8903351575	 0.093485
H	-4.0823483525	-0.909065494	 0.1791447629	 0.230314
H	-0.1629344875	-1.490525264	-1.6999547779	 0.112268
H	 2.2523472628	-0.8005435376	-2.5314117784	 0.121318
H	 1.6393025594	 0.8715958175	-2.3321931208	 0.111003
H	 1.4433511423	-1.4868597371	 0.7933120378	 0.12479
73.4968	134.8439	148.5808	187.2685	247.9513	256.6724	376.5124	396.4532	407.8105	491.0069	637.2709	708.2655	767.4667	823.5193	853.8168	912.5284	945.5508	960.2503	979.0504	1007.2172	1028.2795	1049.2335	1064.3019	1077.9705	1110.6887	1141.0329	1159.5724	1191.4714	1236.9254	1273.6629	1282.5441	1333.5447	1409.7689	1413.8066	1422.119	1485.8593	1496.0987	1519.3662	1744.6288	3031.3149	3038.0533	3043.1884	3080.4271	3105.7259	3139.3128	3189.2648	3209.1155	3517.3526
CC1(OC=N)C2COC12	C[C@@]1(O[CH][NH])[C@H]2CO[C@@H]12	
InChI=1S/C6H9NO2/c1-6(9-3-7)4-2-8-5(4)6/h3-5,7H,2H2,1H3	InChI=1S/C6H9NO2/c1-6(9-3-7)4-2-8-5(4)6/h3-5,7H,2H2,1H3/t4-,5+,6+/m0/s1
