12
gdb 132234	2.09654	1.85011	0.98282	2.2257	60.72	-0.263	-0.0417	0.2213	1059.6634	0.078059	-513.969942	-513.962913	-513.961969	-514.001891	26.182	
F	 0.0909606263	 0.0651986046	 0.0756786283	-0.023553
C	-0.0829655367	 1.3559117007	-0.0412893937	 0.424582
C	-1.2362668728	 1.9861081283	 0.193285839	-0.485081
C	-1.2778777916	 3.4338705966	 0.0200271906	 0.468281
O	-2.241887453	 4.1448352479	 0.1930698838	-0.362212
N	-0.0490979774	 3.9763344326	-0.3843532297	-0.404728
C	 1.1287206487	 3.309407312	-0.6207404829	 0.487173
N	 2.1890300206	 3.8824057145	-0.9829129659	-0.548278
O	 1.0640506735	 1.9292445452	-0.427449714	-0.235936
H	-2.1215632382	 1.4537423102	 0.5028859204	 0.151157
H	-0.0197492855	 4.9772471285	-0.5196984961	 0.285523
H	 2.9496312561	 3.2195227191	-1.1060671499	 0.243073
107.4009	158.0651	187.4338	349.9423	380.9962	499.2914	508.8494	596.9831	618.066	650.8893	678.9029	701.1831	733.1581	805.2702	824.2211	919.0031	964.4762	1027.5501	1110.6892	1222.0996	1244.113	1380.5492	1396.7083	1418.0261	1723.6924	1801.5922	1816.9893	3266.761	3547.7077	3623.1715
FC1=CC(=O)NC(=N)O1	FC1=CC(=O)N[C]([NH])O1	
InChI=1S/C4H3FN2O2/c5-2-1-3(8)7-4(6)9-2/h1H,(H2,6,7,8)	InChI=1S/C4H3FN2O2/c5-2-1-3(8)7-4(6)9-2/h1H,(H2,6,7,8)
