13
gdb 45642	5.90713	0.90873	0.79528	1.8758	63.54	-0.291	-0.0404	0.2506	1309.5438	0.089222	-452.807038	-452.799343	-452.798399	-452.840245	27.076	
O	 0.1431644044	 0.0043894946	 0.0001230993	-0.293704
C	-0.0157009194	 1.1800566868	 0.0093245618	 0.409307
C	-1.2636804683	 2.0556426142	 0.0324395185	-0.31542
N	-0.775470359	 3.4299801448	 0.0335032478	-0.27817
C	 0.4869177519	 3.3399316811	 0.0147831315	 0.450776
C	 1.4963339251	 4.4486442358	 0.0068934074	-0.469711
C	 0.9013431797	 5.7810297135	 0.0220659767	 0.302612
N	 0.4746462861	 6.852906356	 0.0335077749	-0.29128
O	 1.0565851789	 2.0857186723	-0.0007997579	-0.238812
H	-1.8927255542	 1.8547863108	-0.8410797338	 0.171661
H	-1.8673534445	 1.8444139488	 0.9212801719	 0.171655
H	 2.158962547	 4.3299157606	 0.8729422238	 0.190548
H	 2.1351401422	 4.3391647208	-0.8780557018	 0.190539
45.5359	118.1667	156.3989	243.66	290.151	379.5783	436.8841	517.8768	522.5142	625.9962	697.7663	742.1137	843.8827	920.0616	954.0767	978.7216	989.6234	1038.504	1122.9132	1185.8361	1207.5526	1228.5389	1294.633	1392.6785	1441.6519	1445.6191	1746.5512	1934.9985	2383.7678	3044.3199	3060.5712	3076.1688	3096.4038
O=C1CN=C(CC#N)O1	O=C1CN=C(CC#N)O1	
InChI=1S/C5H4N2O2/c6-2-1-4-7-3-5(8)9-4/h1,3H2	InChI=1S/C5H4N2O2/c6-2-1-4-7-3-5(8)9-4/h1,3H2
