14
gdb 123655	2.69685	1.63771	1.09968	4.7159	75.07	-0.2199	-0.0589	0.161	1033.617	0.10212	-432.864201	-432.856884	-432.85594	-432.896223	27.584	
C	 0.0044953486	 1.4453081292	 0.1342847098	-0.306072
C	 1.3119477168	 0.7047609713	-0.0315106268	 0.016454
N	 2.115958085	 0.4482985646	 1.1260433672	-0.33141
C	 1.5024651441	-0.3405353581	 2.090646937	 0.337879
C	 0.2188009379	-0.7437106835	 1.4662718617	 0.220814
N	-0.6156731953	-1.534458473	 2.056735943	 0.116176
N	-1.3331476089	-2.2329450757	 2.594836421	-0.241288
O	 1.9331371466	-0.5956141668	 3.1926496226	-0.382414
C	 0.0279379563	-0.078566512	 0.1527516157	-0.169566
H	-0.1742478167	 1.9703327083	 1.066090397	 0.128658
H	-0.4154702542	 1.9115900898	-0.7506078984	 0.123946
H	 1.8303005256	 0.7182792444	-0.9837063332	 0.113247
H	 2.8849836018	 1.0382271312	 1.400999535	 0.258468
H	-0.4167339074	-0.6252100298	-0.6699189416	 0.115106
105.7029	145.1253	155.7727	352.0724	416.8894	424.4616	469.2237	523.7683	541.2936	621.5828	700.609	728.4254	744.9989	813.3341	827.4865	941.742	999.4806	1024.2444	1055.0953	1087.0049	1131.7244	1169.104	1204.1404	1262.5791	1298.0268	1377.7522	1405.0006	1448.4564	1469.6276	1816.3565	2205.9147	3132.9403	3167.9141	3183.1679	3228.5341	3646.0008
C1C2NC3=C(N=NO3)C12	C1[C@H]2NC(=O)[C]([N][N])[C@@H]12	
InChI=1S/C5H5N3O/c1-2-3(1)6-5-4(2)7-8-9-5/h2-3,6H,1H2	InChI=1S/C5H5N3O/c6-8-4-2-1-3(2)7-5(4)9/h2-3H,1H2,(H,7,9)/t2-,3+/m0/s1
