19
gdb 121715	6.7314	0.55516	0.51778	6.2286	76.67	-0.24	-0.011	0.229	2056.0314	0.157595	-456.36501	-456.354368	-456.353424	-456.402923	35.895	
O	 0.1994703484	 1.3845897279	 0.0076308483	-0.418186
C	 0.1308179317	-0.0315356649	 0.0008121021	-0.078501
C	-1.3401423647	-0.4250312168	 0.0125171317	-0.155437
C	-1.5348104367	-1.939294148	 0.0066325654	-0.34683
C	-3.012753294	-2.3385502062	 0.018454232	 0.433303
O	-3.9182531772	-1.5448458209	 0.0316828527	-0.302018
N	-3.1866280072	-3.725870222	 0.0121716063	-0.330333
C	-4.3656093197	-4.4684800015	 0.019459455	 0.085798
N	-5.5307542169	-3.9724288775	 0.034827081	-0.396964
H	 1.1256316185	 1.6426441383	-0.000577176	 0.285875
H	 0.6238210384	-0.4510623369	-0.8928112696	 0.080293
H	 0.6404159319	-0.4603927911	 0.8805988728	 0.080296
H	-1.8222927497	 0.0078691989	 0.8939165142	 0.127515
H	-1.8386150134	 0.0167928127	-0.8552718213	 0.127465
H	-1.0601703125	-2.3892955228	-0.8770076923	 0.119189
H	-1.0438836945	-2.3981936424	 0.8766955177	 0.119267
H	-2.3407920026	-4.2735746179	 0.0005526807	 0.250248
H	-4.1329378625	-5.5419075525	 0.0101221942	 0.090768
H	-6.2195278575	-4.7233644565	 0.0370625451	 0.228252
25.0483	47.5512	88.567	93.881	128.1027	174.5879	210.6371	265.8181	283.894	323.1268	483.193	536.7457	548.1464	596.47	763.1277	774.7075	822.83	880.2743	931.7053	1013.9663	1034.8473	1062.8223	1075.8829	1097.8539	1108.1944	1165.555	1207.4006	1241.2154	1261.9233	1298.8629	1308.9447	1312.8464	1388.1845	1432.9707	1464.8322	1467.9108	1493.7626	1527.3879	1533.3676	1738.4782	1836.8067	2948.1286	2971.2328	3006.4962	3021.1872	3037.6742	3067.1625	3110.6374	3495.394	3633.7557	3832.0836
OCCCC(=O)NC=N	OCCCC(=O)NC=N	
InChI=1S/C5H10N2O2/c6-4-7-5(9)2-1-3-8/h4,8H,1-3H2,(H2,6,7,9)	InChI=1S/C5H10N2O2/c6-4-7-5(9)2-1-3-8/h4,8H,1-3H2,(H2,6,7,9)
