19
gdb 45045	2.49938	1.79347	1.25227	2.8037	79.53	-0.2392	-0.0147	0.2245	1041.5677	0.160379	-385.903592	-385.895963	-385.895019	-385.935678	30.591	
O	 0.0493226094	 0.1390392102	-0.5896051624	-0.334429
C	-0.0107617217	 1.2535310019	-0.1292402775	 0.328514
C	-1.285825213	 1.9466846438	 0.3799807917	-0.341732
C	-0.8253961756	 3.2546024417	 0.996981692	-0.045272
C	 0.1355115285	 3.1871696812	 2.1568032433	-0.293844
C	 0.6714963887	 3.4125435072	 0.7626955398	-0.14763
C	 1.1505773773	 2.1981451595	 0.024704446	 0.266395
C	 2.5344849243	 1.5919752059	 0.1607576899	-0.294245
C	 2.1498568508	 2.2552721938	-1.1207523816	-0.310617
H	-1.9447762083	 2.1148224513	-0.4805262934	 0.131653
H	-1.8239803391	 1.2826553371	 1.0642226016	 0.130555
H	-1.4793376232	 4.1157492641	 0.9274224984	 0.090141
H	 0.1479427401	 4.0275283369	 2.8422504756	 0.113219
H	 0.3204202371	 2.2255922425	 2.6281306523	 0.114697
H	 1.0956074547	 4.3787344432	 0.5137782326	 0.087391
H	 3.2285563636	 2.0992398372	 0.8216681861	 0.118625
H	 2.5772162851	 0.508027359	 0.1717816059	 0.134295
H	 1.9395201557	 1.622757587	-1.9762431185	 0.134301
H	 2.5722411755	 3.2273211563	-1.3527307218	 0.117981
75.0536	179.1815	232.1667	250.5169	330.7302	421.9422	463.9831	552.0269	579.2953	652.8417	691.2934	781.7425	806.007	821.5413	838.4014	870.1885	890.1666	953.3199	966.328	1000.6903	1023.4485	1047.8772	1058.5079	1071.6508	1079.8199	1090.5763	1103.392	1122.0114	1184.1244	1202.0997	1208.5645	1263.1061	1294.7754	1303.0544	1370.6354	1405.0564	1451.3221	1451.6156	1484.3912	1488.6205	1823.4572	3041.6571	3082.7538	3120.0941	3130.3704	3133.1376	3167.2295	3177.6581	3209.7474	3217.3879	3232.4964
O=C1CC2CC2C11CC1	O=C1C[C@H]2C[C@H]2C21CC2	
InChI=1S/C8H10O/c9-7-4-5-3-6(5)8(7)1-2-8/h5-6H,1-4H2	InChI=1S/C8H10O/c9-7-4-5-3-6(5)8(7)1-2-8/h5-6H,1-4H2/t5-,6-/m1/s1
