23
gdb 94732	2.58752	1.47691	1.23073	1.3444	84.5	-0.2385	0.0793	0.3178	1161.1778	0.20636	-388.301846	-388.292948	-388.292004	-388.334991	35.166	
C	-0.0434996924	 1.6193990639	-0.0957716388	-0.415364
C	 0.0804596469	 0.0977879681	-0.052807333	 0.015592
C	 0.9762498118	-0.5094412364	-1.1459139106	-0.10445
O	 1.2660810444	-1.8298885398	-0.713347429	-0.297092
C	 1.3939569385	-1.8233522129	 0.7079840015	 0.432753
C	 0.958726381	-3.1759223548	 1.2308930694	-0.460185
C	 2.7633549122	-1.2704810902	 1.2157358374	-0.27236
C	 2.0606316344	 0.0204586204	 1.7203125442	-0.23609
C	 0.6867719058	-0.5198492593	 1.2201244787	-0.086317
H	 0.9285425717	 2.110546475	 0.0141733464	 0.118101
H	-0.4726043253	 1.9498196808	-1.0480451144	 0.11543
H	-0.6944208436	 1.986774547	 0.7040348725	 0.116817
H	-0.9194681628	-0.3380942474	-0.1747262816	 0.077878
H	 0.4929938257	-0.5739512665	-2.1252719775	 0.104533
H	 1.8994723807	 0.0842269306	-1.2638791834	 0.082442
H	 1.586782148	-3.9675741995	 0.8087056554	 0.123868
H	 1.0432149584	-3.2169538362	 2.3210696443	 0.109634
H	-0.0795570959	-3.3805316833	 0.9515960638	 0.116792
H	 3.2293741148	-1.87547643	 1.9977762664	 0.095282
H	 3.4894974915	-1.1265984326	 0.4119425732	 0.10382
H	 2.1069194559	 0.1682391383	 2.8014917987	 0.099671
H	 2.400367959	 0.943532172	 1.244234636	 0.097488
H	-0.0578117407	-0.6550519971	 2.0077546206	 0.061758
74.7155	182.2025	214.9125	219.8613	235.0228	250.2803	323.9135	357.7113	427.3783	500.2588	557.358	616.2902	646.3338	737.0936	787.0727	860.5954	876.104	900.5398	914.9624	950.0647	963.0592	967.9108	980.0088	1047.4587	1081.4499	1090.2886	1141.7038	1160.1539	1171.9441	1182.1269	1198.628	1227.5317	1242.5927	1247.9033	1273.8494	1315.0036	1322.3859	1336.9161	1353.9513	1396.5685	1408.5689	1413.3886	1472.0229	1481.8294	1489.5125	1493.4207	1499.1788	1502.9126	1518.7355	2954.973	3020.1351	3033.3851	3033.7433	3057.9422	3065.2115	3077.8971	3082.4768	3096.0178	3101.4596	3104.687	3106.9004	3110.8286	3122.1174
CC1COC2(C)CCC12	C[C@H]1CO[C@@]2(C)CC[C@@H]12	
InChI=1S/C8H14O/c1-6-5-9-8(2)4-3-7(6)8/h6-7H,3-5H2,1-2H3	InChI=1S/C8H14O/c1-6-5-9-8(2)4-3-7(6)8/h6-7H,3-5H2,1-2H3/t6-,7-,8-/m0/s1
