17
gdb 111717	2.33978	1.4801	1.13492	2.8752	74.88	-0.2332	0.0013	0.2344	1119.4622	0.1361	-417.953787	-417.945263	-417.944319	-417.987218	31.083	
C	-0.4344602602	 0.9449338502	-0.1383918862	-0.239228
O	 0.5996488941	-0.0058719339	 0.0761989528	-0.229412
C	 0.9952898763	-0.6518209583	-1.0723682139	 0.091626
C	 1.4559637439	-2.0675587705	-1.000515405	-0.210335
C	 0.5863876255	-2.8546663555	-0.0126049344	-0.171398
N	-0.6786796485	-2.3781102308	-0.673917525	-0.362415
C	 0.1282407592	-1.7190536627	-1.7240323913	 0.184129
C	-0.2236938779	-1.7315636831	-3.102511261	 0.187021
N	-0.5186740317	-1.7445155216	-4.2228020299	-0.346773
H	-0.1218943787	 1.7215935294	-0.8506592119	 0.112429
H	-1.3431812659	 0.4567518926	-0.5095720054	 0.135841
H	-0.639702335	 1.4086908229	 0.8281789452	 0.133838
H	 1.5286965874	-0.0367181478	-1.8006756437	 0.108487
H	 2.4045889183	-2.3929926824	-1.4076113213	 0.120532
H	 0.732457642	-3.933163305	-0.1106378659	 0.116672
H	 0.6617314465	-2.5609589136	 1.0368293871	 0.130824
H	-1.1884284852	-3.1630237997	-1.0664717503	 0.238161
93.7138	108.1237	159.8109	180.4253	206.136	272.0376	332.0051	484.718	503.5817	523.7964	561.2413	677.2174	770.1816	788.2261	854.1914	892.1284	950.521	996.2345	1014.6525	1039.4485	1044.0664	1119.6552	1144.8269	1175.4216	1188.5527	1213.7617	1226.3028	1261.3654	1303.7078	1327.6464	1361.8257	1441.3428	1487.879	1489.7155	1500.2907	1507.7503	2335.4928	3001.5166	3063.3355	3071.7483	3087.6917	3118.0394	3133.4867	3197.8342	3529.3082
COC1C2CNC12C#N	CO[C@H]1[C@H]2CN[C@@]12C#N	
InChI=1S/C6H8N2O/c1-9-5-4-2-8-6(4,5)3-7/h4-5,8H,2H2,1H3	InChI=1S/C6H8N2O/c1-9-5-4-2-8-6(4,5)3-7/h4-5,8H,2H2,1H3/t4-,5+,6-/m1/s1
