18
gdb 11948	3.5506	1.54285	1.33386	1.6207	68.19	-0.2317	0.07	0.3017	983.937	0.152508	-384.896105	-384.887808	-384.886864	-384.928764	30.866	
C	-0.0110144384	 1.4811468107	-0.0405098937	-0.48481
C	 0.0492006213	-0.0059588426	 0.0894507836	 0.420515
C	 1.2128635104	-0.896369254	-0.2301562828	-0.392043
C	 0.5541576879	-0.9751785092	 1.1451992639	 0.184485
C	 1.2956393386	-0.7893486711	 2.4320037711	-0.171954
O	 1.9427453957	-1.9783991768	 2.8722183414	-0.412639
C	-0.7977455806	-1.6579506781	 0.9697755983	-0.125074
O	-1.174304734	-0.7341292405	-0.0878468822	-0.324619
H	 0.95999131	 1.9299159755	 0.1870008617	 0.123624
H	-0.2789798064	 1.7594675416	-1.0661103834	 0.135874
H	-0.7621902331	 1.9049885357	 0.6328166619	 0.1297
H	 1.0922281776	-1.7007773074	-0.951284223	 0.113993
H	 2.1853929456	-0.4110681477	-0.23723816	 0.110362
H	 2.0126223432	 0.0417274769	 2.3294289679	 0.085776
H	 0.6042691453	-0.5217205659	 3.2390310071	 0.111666
H	 2.5063775653	-2.2785899039	 2.1510635269	 0.282495
H	-0.8082927471	-2.7017122081	 0.6352769635	 0.105106
H	-1.4586571014	-1.541732015	 1.8372155676	 0.107545
77.4425	125.5558	197.1876	225.4472	274.4741	306.1082	361.3558	384.0802	438.6532	493.9654	616.1689	757.1342	782.3425	855.9632	916.2806	936.6556	952.6064	979.3894	988.4869	1035.9705	1055.3982	1065.848	1110.3522	1141.7846	1155.9206	1209.3109	1264.813	1296.4359	1344.8244	1368.6283	1398.3369	1419.6058	1435.0424	1473.3898	1488.6563	1499.6425	1506.2842	1521.9203	2968.4677	3020.7016	3034.3851	3062.1629	3070.3271	3098.478	3105.3931	3118.3932	3196.6222	3806.834
CC12CC1(CO)CO2	C[C@@]12C[C@]1(CO)CO2	
InChI=1S/C6H10O2/c1-5-2-6(5,3-7)4-8-5/h7H,2-4H2,1H3	InChI=1S/C6H10O2/c1-5-2-6(5,3-7)4-8-5/h7H,2-4H2,1H3/t5-,6+/m1/s1
