19
gdb 91642	2.91749	1.73661	1.50839	1.9286	72.99	-0.2526	0.0711	0.3237	946.239	0.162295	-423.017842	-423.010886	-423.009942	-423.048847	29.145	
O	-0.0139593701	 1.4403879229	-0.0692509251	-0.436516
C	 0.0136752965	 0.0275790384	 0.0276675976	 0.131933
C	 0.5989019193	-0.5452942318	 1.363876756	-0.258692
C	-0.6144118158	-1.3391365394	 1.9021980038	 0.057773
O	-1.2187988891	-1.8105821641	 0.6826125274	-0.267457
C	-1.4326836708	-0.5294190005	 0.0781133395	 0.024962
C	-2.2063044327	 0.2458296532	 1.1440001594	-0.019581
C	-3.0783795258	-0.5770220736	 2.0563193836	-0.324607
C	-1.6391552976	-0.3330799133	 2.4282619112	-0.038369
H	 0.8912738676	 1.7546636275	-0.1463635698	 0.286831
H	 0.5390803388	-0.4049097796	-0.8337786774	 0.071318
H	 1.4529500916	-1.2025703479	 1.182743296	 0.097596
H	 0.909195815	 0.2635174802	 2.0314949069	 0.097344
H	-0.3852391126	-2.1926587421	 2.5415946576	 0.076201
H	-1.9160825611	-0.6578383668	-0.890769574	 0.078181
H	-2.3699525344	 1.3058093152	 1.012431748	 0.105389
H	-3.820407719	-0.0303746672	 2.6277884064	 0.107211
H	-3.3785148352	-1.5707718777	 1.744266415	 0.123493
H	-1.3802770945	 0.2906629068	 3.2753202679	 0.08699
139.2783	250.9839	258.1341	333.6024	401.2997	440.3877	528.8933	591.6117	607.048	745.6525	755.332	811.6566	824.285	864.1982	880.8629	921.4985	942.2091	967.134	986.4127	1009.905	1017.6164	1044.8103	1069.934	1079.3196	1087.8479	1101.502	1119.325	1183.7117	1192.4022	1200.5547	1241.2141	1262.0553	1279.1203	1315.4939	1337.1764	1340.0978	1345.5954	1378.1189	1424.0423	1471.9261	1480.8492	3010.9507	3058.8291	3105.5294	3112.4386	3116.4366	3138.1654	3184.4735	3217.8107	3228.4872	3833.0772
OC1CC2OC1C1CC21	O[C@H]1C[C@@H]2O[C@H]1[C@H]1C[C@@H]21	
InChI=1S/C7H10O2/c8-5-2-6-3-1-4(3)7(5)9-6/h3-8H,1-2H2	InChI=1S/C7H10O2/c8-5-2-6-3-1-4(3)7(5)9-6/h3-8H,1-2H2/t3-,4+,5+,6+,7+/m1/s1
