15
gdb 44617	2.99915	1.96582	1.56236	4.3083	62.79	-0.2511	0.001	0.2521	849.9652	0.115215	-457.780604	-457.774476	-457.773532	-457.811181	24.61	
O	-0.0378688286	 0.0409464885	 0.2565269502	-0.336263
C	-0.0113451976	 1.20802679	 0.0078582874	 0.451907
O	-1.1447817718	 1.9472426729	-0.1925694849	-0.209708
C	-0.8103010662	 3.2698626373	-0.5512364787	 0.051654
C	-0.0049159533	 4.1115685525	 0.4234951736	 0.062237
O	 0.3679518224	 3.536903426	 1.6466653742	-0.254971
C	 1.4467918335	 2.6282060249	 1.3984441216	-0.081254
C	 1.2060543614	 2.1445979592	-0.0472789008	-0.221689
C	 0.680044948	 3.413451723	-0.7256890825	-0.16814
H	-1.5436085728	 3.7201056453	-1.2078778692	 0.121344
H	-0.1635829395	 5.1840320898	 0.4554647609	 0.113208
H	 2.4149477446	 3.1426433503	 1.479921767	 0.10572
H	 1.3965651099	 1.8266249535	 2.1393095319	 0.141457
H	 2.0680702762	 1.6633107209	-0.505913774	 0.114395
H	 1.1741242639	 3.887557326	-1.5626176467	 0.110104
121.9531	247.9204	277.4698	462.0784	543.7031	595.428	678.684	742.9529	749.2353	768.2814	789.3903	810.2204	856.6741	928.4153	948.3834	970.0528	1013.1976	1036.8366	1067.3054	1074.4053	1090.4418	1112.145	1151.2224	1181.8702	1209.7161	1231.9166	1272.107	1279.3981	1335.91	1375.4324	1410.7175	1514.7728	1891.5898	3004.4142	3109.4105	3139.8105	3173.1208	3198.8612	3207.9731
O=C1OC2C3OCC1C23	O=C1O[C@H]2[C@H]3OC[C@@H]1[C@@H]23	
InChI=1S/C6H6O3/c7-6-2-1-8-4-3(2)5(4)9-6/h2-5H,1H2	InChI=1S/C6H6O3/c7-6-2-1-8-4-3(2)5(4)9-6/h2-5H,1H2/t2-,3-,4+,5-/m1/s1
