18
gdb 68537	2.59235	1.99755	1.69001	1.3098	74.26	-0.2321	0.0186	0.2508	885.3532	0.149882	-401.90619	-401.899459	-401.898515	-401.936625	29.195	
O	-0.120533931	 1.3706997486	 0.0439876898	-0.515884
C	 0.0388216091	-0.0238780032	 0.0391576834	 0.384186
C	 0.7236149584	-0.7047389501	-1.1905334632	-0.258603
C	 0.5345423333	-2.1274252638	-0.5920092549	-0.102849
C	 1.1393070819	-1.9075006859	 0.7869821363	-0.058053
C	 0.8417681199	-0.6625579416	 1.164337972	-0.143583
C	-1.0315241983	-2.1135832016	-0.4630696316	-0.042462
N	-1.5785359309	-1.8533927463	 0.8870977119	-0.327007
C	-1.3498593813	-0.7333839684	-0.0490196724	-0.056809
H	 0.7561105914	 1.7681786796	 0.062765456	 0.276169
H	 0.1675507645	-0.5438340981	-2.1201177997	 0.090089
H	 1.771783542	-0.4177828403	-1.3175446135	 0.085399
H	 0.9229734499	-2.9691906596	-1.1645717962	 0.061447
H	 1.604761832	-2.6810037083	 1.38381029	 0.09842
H	 0.9968219583	-0.19869359	 2.1301984676	 0.098759
H	-1.6214739306	-2.6718410133	-1.1811252796	 0.089553
H	-2.5723815044	-2.0787703136	 0.8774786641	 0.227349
H	-2.1807164641	-0.1506335842	-0.4295700998	 0.093879
251.4479	291.1621	319.2608	329.6101	386.0078	491.5692	530.0234	564.6344	611.3109	676.8432	756.157	759.1594	776.7152	812.0805	864.7916	909.1569	915.1061	923.0802	926.5611	948.914	957.9781	1038.0884	1060.3884	1080.6609	1086.5391	1116.9977	1128.9431	1156.6143	1192.5597	1226.5525	1248.5552	1273.4132	1287.8095	1298.0758	1356.0857	1372.8381	1390.2215	1491.7762	1646.0433	3044.2227	3104.5766	3115.2227	3170.5921	3184.2676	3201.4848	3226.6265	3475.1357	3814.5261
OC12CC(C=C1)C1NC21	O[C@@]12C[C@@H](C=C1)[C@H]1N[C@@H]21	
InChI=1S/C7H9NO/c9-7-2-1-4(3-7)5-6(7)8-5/h1-2,4-6,8-9H,3H2	InChI=1S/C7H9NO/c9-7-2-1-4(3-7)5-6(7)8-5/h1-2,4-6,8-9H,3H2/t4-,5-,6-,7-/m1/s1
