17
gdb 62277	3.26916	1.53926	1.32162	4.9805	75.19	-0.2641	0.0294	0.2936	991.3389	0.137007	-380.824872	-380.817351	-380.816407	-380.856625	29.275	
C	-0.0459048151	 1.5682828293	 0.0492053231	-0.469616
C	 0.0761102511	 0.0419456648	 0.0118603126	 0.135659
C	-1.2492925228	-0.5658199122	 0.1639394003	 0.262081
N	-2.3126183765	-1.0006436012	 0.2919887948	-0.338044
C	 0.849100888	-0.6498551464	-1.1125419838	-0.075319
C	 2.2952172786	-0.7090083811	-0.7383492245	-0.048826
C	 2.485720433	-0.0986633831	 0.6376068788	-0.263882
C	 1.104083827	-0.7110757205	 0.9211322411	-0.034968
N	 1.340079169	-1.7513880605	-0.2200588781	-0.146357
H	 0.9230106491	 2.0409920049	-0.1211481787	 0.130523
H	-0.7337477539	 1.91302057	-0.72809292	 0.143377
H	-0.4368128549	 1.9035325977	 1.0144639144	 0.140488
H	 0.4934875277	-0.8525598393	-2.1159015116	 0.113866
H	 3.0531658798	-0.9620187882	-1.4708586511	 0.109684
H	 3.2572349193	-0.6411742739	 1.1894746939	 0.126465
H	 2.6385351547	 0.9773867808	 0.7560950973	 0.107002
H	 0.8076034859	-1.0513680609	 1.9102194515	 0.107866
145.4005	153.4329	184.2116	245.1402	294.6061	436.6365	483.5107	506.2195	552.453	640.3232	757.225	782.9774	808.4377	819.3748	869.8925	927.0264	935.0632	958.5597	1001.2617	1030.0122	1049.2949	1061.5299	1113.1006	1134.4502	1167.0485	1176.0594	1199.0244	1213.6594	1250.518	1268.0506	1349.9935	1365.0943	1411.175	1486.3542	1488.036	1508.1081	2354.2627	3049.6461	3059.6528	3113.0218	3118.5606	3138.5821	3155.0725	3182.3372	3194.573
CC1(C#N)C2C3CC1N23	C[C@@]1(C#N)[C@H]2[C@H]3C[C@@H]1N23	
InChI=1S/C7H8N2/c1-7(3-8)5-2-4-6(7)9(4)5/h4-6H,2H2,1H3	InChI=1S/C7H8N2/c1-7(3-8)5-2-4-6(7)9(4)5/h4-6H,2H2,1H3/t4-,5+,6-,7+,9?/m1/s1
