19
gdb 92253	2.55068	1.74279	1.33154	1.6958	74.81	-0.2301	0.0622	0.2923	1016.7254	0.159866	-422.970013	-422.96228	-422.961336	-423.002134	30.586	
O	 0.0117994169	 1.4075465378	-0.2572825777	-0.436263
C	-0.0155071876	 0.0224163607	-0.0150624205	 0.03296
C	 0.1903956708	-0.5212784036	 1.4447848251	-0.285173
C	-1.044059481	-1.4637797788	 1.2766246692	-0.102316
C	-2.3465574427	-0.9848576847	 1.971339676	-0.250752
C	-2.6189676292	-0.0334033042	 0.76955007	-0.140435
C	-3.3865951168	-0.6335765973	-0.4321737768	-0.103456
O	-2.1557007145	-1.0269832522	-1.099907854	-0.334971
C	-1.3915511545	-0.5975186456	 0.0126388887	 0.481881
H	 0.9264582042	 1.6838113735	-0.3679214103	 0.285907
H	 0.6278501615	-0.5276946831	-0.7181947594	 0.077497
H	 1.1435402384	-1.0184028273	 1.6326399052	 0.101912
H	 0.0413991127	 0.2626208123	 2.1920842957	 0.105635
H	-0.8207327141	-2.5294328734	 1.228693003	 0.069941
H	-3.1063328651	-1.7622278592	 2.0986915271	 0.098828
H	-2.1999370894	-0.4884426018	 2.9349966402	 0.100457
H	-2.7648706121	 1.029388869	 0.9560690271	 0.088939
H	-4.0246376583	-1.497182408	-0.2060909666	 0.099281
H	-3.9482359591	 0.084360666	-1.0393710821	 0.110127
103.7724	135.8375	238.4915	246.1125	314.6521	386.3294	421.8986	494.5999	542.539	628.0238	714.3447	782.4761	814.3754	832.761	892.5329	896.8883	963.947	980.9558	989.3347	1013.4906	1026.0413	1052.3385	1095.6221	1105.5031	1129.2861	1133.7404	1160.8196	1184.8652	1206.5589	1224.562	1237.7847	1267.2276	1270.8374	1295.1356	1309.0364	1332.7359	1354.1814	1444.3174	1474.3433	1486.7446	1517.2391	2993.1149	3017.1777	3044.7309	3064.8664	3069.6266	3092.6282	3109.619	3125.3425	3127.9687	3825.8056
OC1CC2CC3COC123	O[C@H]1C[C@H]2C[C@@H]3CO[C@]123	
InChI=1S/C7H10O2/c8-6-2-4-1-5-3-9-7(4,5)6/h4-6,8H,1-3H2	InChI=1S/C7H10O2/c8-6-2-4-1-5-3-9-7(4,5)6/h4-6,8H,1-3H2/t4-,5-,6+,7-/m1/s1
