22
gdb 100542	2.36904	1.23603	0.87883	3.5021	81.11	-0.2335	0.0237	0.2572	1399.6813	0.190975	-441.500747	-441.489305	-441.488361	-441.537853	39.406	
C	 0.1808474357	 1.517444674	-1.6693350787	-0.233345
O	-0.1767259335	 0.1598782449	-1.5360781798	-0.24842
C	 0.830494663	-0.6681108227	-0.9638055381	-0.008561
C	 0.9977762698	-0.4510483148	 0.5363396961	-0.389159
C	 0.411083904	-2.1267632458	-1.2539051731	 0.426149
O	 0.2055068975	-2.9032099155	-0.3347358459	-0.384949
N	 0.2958181473	-2.4956914704	-2.5670944627	-0.085432
C	-0.203515923	-3.826328996	-2.8755979247	-0.344403
C	 0.5089130667	-1.6322081312	-3.7135431576	-0.319981
H	 0.3100916457	 2.0180540341	-0.7003263369	 0.115912
H	 1.112922372	 1.6367990117	-2.2454360547	 0.09925
H	-0.6320765668	 2.0100709154	-2.2087043561	 0.129724
H	 1.7935221612	-0.4680271697	-1.466632046	 0.073775
H	 0.0552901983	-0.6456275317	 1.0512850332	 0.139969
H	 1.745953186	-1.1404138473	 0.9331290513	 0.13176
H	 1.3243811471	 0.5709686197	 0.7466270334	 0.103157
H	-1.1579634959	-3.7671295418	-3.4148326635	 0.120623
H	 0.5122012423	-4.3679231671	-3.5061785562	 0.118669
H	-0.3474165519	-4.3648697682	-1.9409361592	 0.169249
H	-0.4393946589	-1.2698273616	-4.1307718766	 0.128678
H	 1.1161226801	-0.7674717163	-3.4568201129	 0.13942
H	 1.0323811632	-2.1977246498	-4.4934903212	 0.117915
59.0182	80.3593	92.3253	109.1019	141.1614	183.5972	198.1169	224.9349	251.7721	281.2918	340.8292	360.1107	406.6726	426.8685	521.6121	604.2198	703.9059	794.2214	865.9421	964.546	1046.6571	1072.5044	1083.2294	1110.7424	1129.6607	1149.155	1176.483	1179.2496	1182.5698	1216.6619	1283.8128	1346.4952	1373.9617	1406.7366	1426.279	1436.9964	1473.1925	1476.1307	1477.8193	1481.0777	1483.5561	1498.3487	1499.3953	1502.8267	1511.5161	1540.8207	1754.6739	2942.2747	2973.0069	3010.7535	3019.1379	3035.9562	3058.4419	3059.9875	3064.8083	3112.249	3129.8626	3147.3597	3170.2352	3173.0445
COC(C)C(=O)N(C)C	CO[C@@H](C)C(=O)N(C)C	
InChI=1S/C6H13NO2/c1-5(9-4)6(8)7(2)3/h5H,1-4H3	InChI=1S/C6H13NO2/c1-5(9-4)6(8)7(2)3/h5H,1-4H3/t5-/m0/s1
