24
gdb 100643	2.37957	1.07126	0.94149	4.026	89.26	-0.3073	0.0442	0.3515	1426.3667	0.215071	-368.445219	-368.433884	-368.43294	-368.481419	41.693	
C	-0.0713941397	 1.6264718527	 0.0084507065	-0.391991
C	 0.0253269882	 0.0954261831	 0.02567277	-0.199351
C	 0.7532652867	-0.493340739	-1.200135622	 0.040976
C	 2.2172565658	-0.0283413086	-1.2609330468	-0.42571
C	 0.6222137419	-2.0586220956	-1.291410743	 0.081911
C	 1.3046343095	-2.7939564436	-0.1143647875	-0.413191
C	-0.8580559551	-2.5021855501	-1.3900864863	-0.418651
C	 1.2767492777	-2.4896640571	-2.5411017218	 0.275724
N	 1.778491674	-2.8335999531	-3.5245674893	-0.357076
H	 0.9103923477	 2.1025422782	 0.0791545615	 0.123542
H	-0.5500407979	 1.9825311723	-0.9107091813	 0.117644
H	-0.6694142917	 1.9824243697	 0.8528671427	 0.115848
H	 0.5367406092	-0.2199452236	 0.9436607502	 0.100387
H	-0.9902639146	-0.3085503213	 0.0833851281	 0.099111
H	 0.2467175118	-0.1092144678	-2.0964307606	 0.086064
H	 2.7525903773	-0.2635776557	-0.3346228031	 0.116111
H	 2.7523513358	-0.4956148815	-2.0917309897	 0.143749
H	 2.272565046	 1.0533815769	-1.4042572913	 0.122387
H	 0.8274456522	-2.516713707	 0.8290837793	 0.124699
H	 1.2092154838	-3.8761513112	-0.2367422019	 0.132442
H	 2.368418521	-2.5561755401	-0.0501687438	 0.135256
H	-1.3853147869	-1.9470902162	-2.1711609626	 0.130389
H	-0.9213087898	-3.5668996883	-1.6297429131	 0.133663
H	-1.3730081929	-2.342047133	-0.4401891946	 0.126067
47.939	79.6226	143.6464	182.6288	202.2744	230.7943	239.14	258.3746	269.1114	291.0244	325.0002	344.8303	408.4147	411.5344	477.0309	584.128	605.6791	701.415	783.4732	826.3108	889.4198	940.2402	944.4759	979.7888	993.239	1026.3346	1038.002	1078.5958	1132.1039	1164.4237	1200.0637	1221.8816	1234.4313	1301.9148	1338.8431	1364.1965	1384.2653	1399.1027	1413.5443	1420.5561	1424.1543	1481.3721	1484.4794	1491.3425	1497.3696	1501.6561	1502.987	1508.8693	1511.9161	1517.0969	2346.8993	3007.9917	3031.6513	3036.9144	3042.7444	3047.2854	3054.1298	3074.8567	3102.0872	3109.4621	3115.7335	3120.4358	3123.3829	3125.22	3129.9782	3137.3145
CCC(C)C(C)(C)C#N	CC[C@@H](C)C(C)(C)C#N	
InChI=1S/C8H15N/c1-5-7(2)8(3,4)6-9/h7H,5H2,1-4H3	InChI=1S/C8H15N/c1-5-7(2)8(3,4)6-9/h7H,5H2,1-4H3/t7-/m1/s1
