12
gdb 130903	2.78625	1.34	0.90483	1.3411	65.05	-0.2746	-0.0914	0.1832	1151.3438	0.07816	-468.814228	-468.806748	-468.805804	-468.847042	25.526	
O	-0.0114071517	-0.0506450469	-0.0027471439	-0.238814
C	 0.0128426153	 1.1535682188	 0.0060387826	 0.087748
C	 1.2498622252	 1.9632578154	-0.0007317659	 0.157258
N	 2.4668589979	 1.4021437302	-0.0181672833	-0.229957
N	 3.2717993381	 2.4465825396	-0.0185126434	-0.045395
N	 2.7243320229	 3.6460883043	-0.0028780649	-0.229956
C	 1.411848542	 3.3750087939	 0.0089503663	 0.157259
C	 0.390356649	 4.4436666833	 0.0286169704	 0.087747
O	 0.6394958964	 5.6220869159	 0.0356812594	-0.238813
H	-0.9220362605	 1.7521357115	 0.0202943697	 0.089722
H	 4.2756432935	 2.3314818208	-0.0302732843	 0.313478
H	-0.6558275381	 4.0722710831	 0.0356276773	 0.089723
91.3429	128.3963	157.4755	220.8032	245.3545	318.3046	411.2379	545.7387	650.1814	736.3269	741.3612	780.5059	846.5009	1006.1208	1023.1706	1033.8839	1138.307	1224.1278	1264.7226	1351.3784	1418.378	1421.1618	1431.1524	1507.4653	1534.0376	1812.4011	1814.8025	2900.3602	2920.6012	3632.7935
O=CC1=NNN=C1C=O	O=Cc1n[nH]nc1C=O	
InChI=1S/C4H3N3O2/c8-1-3-4(2-9)6-7-5-3/h1-2H,(H,5,6,7)	InChI=1S/C4H3N3O2/c8-1-3-4(2-9)6-7-5-3/h1-2H,(H,5,6,7)
