18
gdb 82060	2.87175	1.50885	1.29677	2.3346	71.03	-0.2277	0.0585	0.2862	1032.2536	0.148255	-439.013821	-439.006039	-439.005095	-439.046313	30.219	
O	 0.3148754483	 1.437761463	 0.1400591528	-0.436268
C	 0.1303514314	 0.0542763502	 0.0536325845	 0.075047
C	 0.314013225	-0.7621795439	 1.3405023853	-0.090147
N	-0.733580012	-0.2236891792	 2.2447310944	-0.366435
C	-1.0787636068	-1.2804929887	 1.2531506292	-0.146827
C	-1.3424518541	-0.51513728	-0.0416816312	 0.452882
C	-2.5644008926	 0.3730500541	-0.300247616	-0.352416
C	-2.7749956729	-0.5276097783	-1.5333703475	-0.08125
O	-1.6043338745	-1.3154019561	-1.2068801584	-0.332737
H	-0.0803450997	 1.6974434992	 0.9837317954	 0.292051
H	 0.7113991471	-0.3225196006	-0.7914556739	 0.10319
H	 1.2121714207	-1.2187936297	 1.737512616	 0.097841
H	-0.6251173704	-0.6740717625	 3.1519065473	 0.237384
H	-1.4898610439	-2.2342270861	 1.5592960544	 0.101544
H	-3.3418647383	 0.3322558086	 0.4639499778	 0.112975
H	-2.3122383745	 1.4133103623	-0.5132824795	 0.121889
H	-3.6847301179	-1.1391494398	-1.532638312	 0.102885
H	-2.6738352351	-0.0374342925	-2.5080600884	 0.108392
85.0267	112.2653	201.2253	240.0368	302.0143	419.7191	450.619	507.2875	581.0011	625.8462	742.6986	788.9861	834.5249	841.0201	866.4691	896.2508	912.4471	959.9928	965.3678	996.5829	1016.9093	1059.1352	1088.4854	1114.8905	1127.6617	1152.3663	1167.67	1190.1538	1208.0471	1217.025	1251.8196	1280.479	1314.9906	1336.2198	1352.7339	1375.9056	1435.7524	1484.948	1529.6561	3025.0913	3068.005	3081.3316	3097.4409	3137.8695	3188.1206	3203.0906	3487.8597	3753.2673
OC1C2NC2C11CCO1	O[C@H]1[C@H]2N[C@H]2[C@]21CCO2	
InChI=1S/C6H9NO2/c8-5-3-4(7-3)6(5)1-2-9-6/h3-5,7-8H,1-2H2	InChI=1S/C6H9NO2/c8-5-3-4(7-3)6(5)1-2-9-6/h3-5,7-8H,1-2H2/t3-,4+,5-,6-/m0/s1
