19
gdb 35738	3.81426	1.03533	0.93184	4.2387	79.94	-0.2503	0.021	0.2713	1286.9843	0.161569	-382.069349	-382.061108	-382.060164	-382.103488	31.389	
N	 0.0814649619	-1.1564128303	 0.0753965857	-0.319787
C	 0.0591856435	-0.0017502005	 0.0360109661	 0.256206
C	 0.0230789941	 1.4589347784	 0.0178160344	-0.080692
C	-0.7374227664	 2.0786404964	 1.2446660279	-0.331418
C	 0.1512959066	 3.2613505631	 1.6462550639	 0.368262
C	-0.372705964	 4.4533198974	 2.3944600919	-0.319156
C	 0.5492323066	 3.4750935963	 3.0860349377	-0.308805
C	 1.1888335896	 3.3931364039	 0.5300420336	-0.253455
N	 1.3814655717	 2.0384945476	-0.0096591551	-0.303417
H	-0.4855170692	 1.7656910543	-0.9047450639	 0.133033
H	-1.7445184619	 2.3872085332	 0.9502537905	 0.116704
H	-0.836961728	 1.3498593594	 2.0527136185	 0.126161
H	 0.0210400607	 5.4316534449	 2.1360524719	 0.115374
H	-1.4187454508	 4.4608503687	 2.6831922688	 0.116232
H	 0.1220402988	 2.8193506137	 3.8381203099	 0.116752
H	 1.5653534915	 3.7933299756	 3.2985222019	 0.113475
H	 0.8081355806	 4.0347050928	-0.2766654995	 0.110437
H	 2.1420048442	 3.8106449173	 0.8635561217	 0.111491
H	 1.9648685104	 1.5114170979	 0.635551344	 0.232601
16.8171	147.4126	158.9648	271.4305	287.7739	335.2668	391.3783	452.0726	553.8178	564.9546	612.2581	763.678	781.8037	814.7989	852.8127	886.2572	918.597	938.8071	973.2749	984.5961	1036.1286	1040.8992	1057.4171	1083.4976	1087.6896	1092.0955	1188.6793	1202.1398	1220.4277	1269.0236	1287.2462	1308.3704	1334.7789	1361.9959	1383.1859	1467.8366	1474.2661	1494.0642	1499.0044	1507.5467	2362.6804	3012.7413	3027.3092	3058.1976	3099.1116	3104.9643	3119.6924	3124.162	3198.0366	3212.9659	3497.5205
N#CC1CC2(CC2)CN1	N#C[C@H]1CC2(CC2)CN1	
InChI=1S/C7H10N2/c8-4-6-3-7(1-2-7)5-9-6/h6,9H,1-3,5H2	InChI=1S/C7H10N2/c8-4-6-3-7(1-2-7)5-9-6/h6,9H,1-3,5H2/t6-/m1/s1
