19
gdb 58666	1.91111	1.53119	1.18376	3.905	76.88	-0.2549	0.0171	0.272	1166.5857	0.156947	-419.186278	-419.176291	-419.175346	-419.220929	36.311	
C	 0.4396886429	-2.4217414479	-1.5830650947	-0.423256
C	 0.1449341012	-1.6949026885	-0.2706175431	 0.058567
O	 0.8265699681	-0.4531464535	-0.1802935683	-0.431463
C	-1.358146923	-1.4964340087	-0.0399019774	 0.152429
C	-2.1638086128	-2.5421063031	 0.6785222452	-0.279026
N	-1.9273778067	-1.2527669315	 1.2901200751	-0.108226
C	-1.0444659418	-1.1553422569	 2.4472577291	-0.3222
C	-1.9849333855	-0.7084637236	-1.0877482084	 0.265362
N	-2.4258082753	-0.080157925	-1.9529836225	-0.349202
H	 1.5206723129	-2.520118139	-1.709970894	 0.132176
H	-0.0077179102	-3.4204422307	-1.5912925045	 0.123957
H	 0.0396272391	-1.8658835181	-2.4378199747	 0.140945
H	 0.5345730721	-2.2889932157	 0.5603114721	 0.096411
H	 0.5535323492	 0.0941237552	-0.9269872648	 0.29477
H	-3.1832686503	-2.7568659845	 0.3711874085	 0.13747
H	-1.6003789658	-3.4018679013	 1.0441040722	 0.117491
H	-0.3166189459	-1.9750434953	 2.5340490877	 0.108191
H	-0.4991378444	-0.2102637632	 2.400888232	 0.15229
H	-1.6674040937	-1.1610142386	 3.3461848204	 0.133311
70.5932	132.9708	143.7444	150.2414	208.2498	232.2554	250.4605	321.3575	345.7089	371.7212	384.8182	485.9975	501.211	576.5389	592.9164	693.6343	821.1435	882.8873	900.0883	931.7004	1023.9892	1056.4279	1085.6737	1120.4838	1129.3777	1133.7757	1154.8764	1199.9632	1254.1161	1290.9837	1323.2872	1387.0351	1408.6653	1422.0847	1449.7914	1484.3483	1491.4339	1496.8485	1503.0808	1509.9615	2348.3487	2995.5546	3039.527	3076.814	3082.2131	3086.6096	3112.7222	3126.3919	3133.1381	3181.9602	3783.9581
CC(O)C1(CN1C)C#N	C[C@@H](O)[C@]1(CN1C)C#N	
InChI=1S/C6H10N2O/c1-5(9)6(3-7)4-8(6)2/h5,9H,4H2,1-2H3	InChI=1S/C6H10N2O/c1-5(9)6(3-7)4-8(6)2/h5,9H,4H2,1-2H3/t5-,6-,8?/m1/s1
