23
gdb 102499	2.08103	1.22304	0.95953	1.7037	78.32	-0.2339	0.0712	0.3051	1365.1707	0.201232	-462.549131	-462.537385	-462.536441	-462.585717	42.486	
C	-1.1598043784	 0.7606263587	 0.3556620252	-0.239143
O	 0.0799780943	 0.1651465276	 0.0222622791	-0.26023
C	 0.7233826577	-0.5407310868	 1.0689708645	 0.110495
C	 0.1241725576	-1.939026966	 1.2837752494	-0.087779
O	-1.150081031	-1.9051277102	 1.9207100049	-0.423873
C	 2.234435374	-0.5707637716	 0.7281493608	 0.320189
C	 2.5085220295	-1.3472355542	-0.5669080894	-0.421826
C	 2.7747936953	 0.8607181884	 0.6264814354	-0.418982
O	 2.8326614611	-1.2346472251	 1.8500841224	-0.47417
H	-1.0522917236	 1.4528955098	 1.2059047707	 0.095928
H	-1.479755741	 1.3312191637	-0.5204034516	 0.118009
H	-1.9204197653	 0.0157875209	 0.6094536213	 0.135396
H	 0.6228260442	 0.0193152906	 2.0158290541	 0.055514
H	-0.047539426	-2.4069890167	 0.3101578495	 0.113806
H	 0.8358837545	-2.5543688214	 1.8466266669	 0.113448
H	-1.0141742301	-1.617140789	 2.829070775	 0.281188
H	 1.9327620329	-0.9272407291	-1.395205312	 0.138732
H	 3.5721732153	-1.2913269573	-0.826114713	 0.098938
H	 2.2446990648	-2.4019932817	-0.4545027688	 0.121856
H	 2.6255013175	 1.3898025607	 1.5724844387	 0.11392
H	 3.8494105701	 0.8460491574	 0.4093876784	 0.096731
H	 2.2700863544	 1.4121780294	-0.1688916665	 0.134973
H	 3.7821657324	-1.2690309378	 1.695185905	 0.27688
61.4172	81.4116	108.2404	177.7631	206.998	220.8086	228.9308	235.17	262.2764	300.7869	310.3339	340.9483	351.4429	364.5636	430.4903	471.5163	517.3644	561.8731	800.0164	862.8454	920.5059	943.1914	979.0096	1013.0021	1032.5596	1044.9668	1087.0701	1136.8031	1145.9542	1183.2249	1189.0822	1203.1261	1228.9074	1243.3551	1318.7062	1368.8194	1383.2149	1392.1808	1400.8025	1413.1802	1414.9915	1478.2148	1480.9604	1484.9308	1487.2751	1497.2269	1502.9217	1514.6733	1521.0898	2944.4344	2980.7073	3030.4752	3035.686	3037.9241	3073.4085	3097.257	3099.3224	3106.7856	3116.8225	3133.1622	3139.2925	3814.5479	3815.6111
COC(CO)C(C)(C)O	CO[C@@H](CO)C(C)(C)O	
InChI=1S/C6H14O3/c1-6(2,8)5(4-7)9-3/h5,7-8H,4H2,1-3H3	InChI=1S/C6H14O3/c1-6(2,8)5(4-7)9-3/h5,7-8H,4H2,1-3H3/t5-/m0/s1
