12
gdb 130897	5.36069	1.0784	0.89779	1.2579	68.17	-0.2696	-0.1081	0.1615	1164.1849	0.078538	-468.833263	-468.826196	-468.825252	-468.865278	25.406	
O	-0.1299205366	-0.0218553085	-0.001540038	-0.238364
C	-0.0170835328	 1.1755691177	 0.0067789447	 0.118295
C	 1.2851252804	 1.9090270932	-0.0014610017	 0.264004
N	 2.395215774	 1.2172479037	-0.0194815911	-0.18123
N	 3.5161904031	 1.9257726998	-0.0260103264	-0.246849
C	 3.6356314736	 3.3230299884	-0.0157206036	 0.418893
O	 4.7122106709	 3.8788056758	-0.0227876715	-0.359047
C	 2.3079989708	 3.9524184323	 0.0042221119	-0.09008
N	 1.202302902	 3.2839635491	 0.010845872	-0.241118
H	-0.8846426723	 1.8662546827	 0.0220590991	 0.104208
H	 4.3753472102	 1.386603758	-0.039957014	 0.293146
H	 2.2792920768	 5.0401528876	 0.0135604485	 0.158142
81.9956	149.4768	201.8137	308.4728	406.36	409.3739	465.8188	514.7451	591.485	651.3768	777.8451	791.9167	817.81	853.026	966.4444	996.8761	1042.6747	1219.2224	1242.0792	1305.5721	1372.395	1415.1454	1430.0076	1544.2606	1620.441	1808.2742	1828.2047	2937.5103	3163.1688	3560.5521
O=CC1=NNC(=O)C=N1	O=Cc1n[nH]c(=O)cn1	
InChI=1S/C4H3N3O2/c8-2-3-5-1-4(9)7-6-3/h1-2H,(H,7,9)	InChI=1S/C4H3N3O2/c8-2-3-5-1-4(9)7-6-3/h1-2H,(H,7,9)
