20
gdb 107131	2.74085	1.30933	1.14611	1.0825	78.91	-0.2039	0.0756	0.2795	1178.2617	0.169674	-403.060928	-403.052161	-403.051217	-403.094075	34.516	
C	-0.0751645015	 1.5542106489	-0.1552909032	-0.377871
C	-0.0383637277	 0.0351852324	 0.0603591351	-0.305605
C	 0.7277845381	-0.3827339841	 1.2809099552	 0.368
N	 0.4981559883	-1.6881859598	 1.958097981	-0.391172
C	 0.3598767762	-0.411406202	 2.7119648187	-0.203648
C	 1.7881910464	 0.0893511996	 3.1061944843	 0.396431
O	 1.9733443657	 1.1039544522	 4.0267714886	-0.457872
C	 2.8759147218	-0.8274931502	 2.6227977958	-0.358398
C	 2.1720517714	 0.102178704	 1.6459882996	-0.169968
H	 0.9308602516	 1.9636319438	-0.2870376669	 0.124457
H	-0.6546080279	 1.8046615552	-1.048883532	 0.113422
H	-0.5314182156	 2.0618730067	 0.7002072841	 0.123478
H	-1.0645494373	-0.3463272178	 0.147245124	 0.09291
H	 0.3958244062	-0.4513345839	-0.8241755762	 0.107173
H	-0.4446688155	-1.9901831282	 1.7095154298	 0.221672
H	-0.5606046657	-0.1345029708	 3.2117132787	 0.091357
H	 2.116777696	 0.7009160635	 4.8908345159	 0.285647
H	 3.8704872419	-0.4806644131	 2.8880884548	 0.106677
H	 2.7434290236	-1.9004569022	 2.5705893088	 0.138391
H	 2.705814674	 0.8641149358	 1.0937883839	 0.094918
80.8086	119.5982	207.1865	241.4486	286.3252	301.0041	349.5468	423.8139	428.9504	482.9271	529.0129	572.3879	645.8995	775.8157	804.6988	822.1105	849.9787	887.8272	915.6784	920.7766	952.1905	966.6248	1001.677	1016.169	1039.0432	1087.2802	1095.4933	1101.4026	1117.0826	1190.4642	1204.6206	1245.4121	1286.8945	1309.3643	1337.5072	1359.7165	1394.5733	1413.1568	1442.2419	1477.6128	1479.446	1500.4345	1507.9364	3006.3428	3039.5528	3040.7646	3110.8511	3112.4054	3134.215	3187.676	3204.9137	3233.0112	3456.6463	3779.7233
CCC12NC1C1(O)CC21	CC[C@]12N[C@H]1[C@@]1(O)C[C@@H]21	
InChI=1S/C7H11NO/c1-2-6-4-3-7(4,9)5(6)8-6/h4-5,8-9H,2-3H2,1H3	InChI=1S/C7H11NO/c1-2-6-4-3-7(4,9)5(6)8-6/h4-5,8-9H,2-3H2,1H3/t4-,5+,6+,7+/m0/s1
