15
gdb 52300	4.33968	0.85721	0.74949	3.2713	63.88	-0.2761	-0.0536	0.2224	1416.8803	0.109978	-494.905141	-494.89644	-494.895496	-494.940171	29.542	
O	 0.3901141995	 0.2178777769	-0.6561767812	-0.266002
C	 0.4110575894	 1.4038834301	-0.5408150234	 0.182046
O	 0.8118230255	 2.0100522035	 0.6025055602	-0.180905
C	 0.8628760156	 3.4361581763	 0.6069979806	-0.107006
C	 2.2363125958	 3.9255184092	 0.1795342621	 0.002609
O	 2.4961260441	 3.7344115014	-1.2311465769	-0.289727
C	 2.700354247	 5.1411214723	-1.4931625641	-0.187769
C	 2.402033124	 5.4440675794	-0.0207418307	 0.330429
O	 2.3069738031	 6.4120196677	 0.6662317071	-0.259884
H	 0.105152703	 2.1222224381	-1.3229532294	 0.088235
H	 0.0897146574	 3.8524200172	-0.0502628404	 0.121583
H	 0.6595453538	 3.7550344769	 1.6325861239	 0.147231
H	 3.0125750081	 3.4619350729	 0.8023859966	 0.130805
H	 3.7227597608	 5.3703440844	-1.8177900423	 0.145487
H	 1.9864742829	 5.5528672138	-2.2169618222	 0.142867
48.0989	64.2783	120.0204	131.3126	167.2133	295.3389	337.2832	407.5283	500.7327	536.8809	667.0355	694.6934	818.5131	867.4001	966.2896	1005.4768	1027.3208	1040.0375	1068.3893	1086.9709	1102.0964	1137.9454	1162.8429	1231.3344	1285.8046	1296.7537	1350.025	1398.6837	1430.6245	1479.8614	1486.8284	1873.6528	1927.5083	2977.0298	3023.6612	3032.2726	3041.5752	3074.4453	3111.0393
O=COCC1OCC1=O	O=COC[C@H]1OCC1=O	
InChI=1S/C5H6O4/c6-3-8-2-5-4(7)1-9-5/h3,5H,1-2H2	InChI=1S/C5H6O4/c6-3-8-2-5-4(7)1-9-5/h3,5H,1-2H2/t5-/m1/s1
