19
gdb 72793	2.52485	1.78383	1.4012	1.2751	76.64	-0.2307	0.0204	0.2511	1001.6775	0.161078	-419.194047	-419.186123	-419.185179	-419.226139	31.161	
C	 0.0752237866	 1.730437803	 0.1274737966	-0.42871
C	-0.0031112709	 0.2082346803	 0.1147330513	 0.324385
C	 0.7634741718	-0.4352679812	-1.1006501595	-0.230671
N	 1.8850899785	-0.7081862142	-0.1513069368	-0.360171
C	 1.0287236986	-0.5437087263	 0.9332734156	 0.337762
N	 0.9407994021	-1.0675689285	 2.0809903901	-0.329339
C	-0.386481378	-0.751771373	 2.6436883587	-0.188718
C	-1.4748724967	-0.9980944487	 1.5869660567	-0.074617
O	-1.3239335479	-0.1998272446	 0.4030060615	-0.326344
H	 1.0819518211	 2.0720061022	-0.1284942318	 0.128237
H	-0.6332987151	 2.1356158685	-0.602150043	 0.127155
H	-0.1904964207	 2.1239699031	 1.1121528435	 0.124751
H	 0.2623723757	-1.3390975105	-1.4605863123	 0.118288
H	 1.0290394776	 0.2199313358	-1.9337677436	 0.109922
H	 2.4701678445	-1.5315796975	-0.2254228003	 0.243098
H	-0.5717853837	-1.4069396346	 3.5003934318	 0.108904
H	-0.4401049003	 0.282518165	 3.0117081843	 0.108083
H	-1.45995746	-2.0644494312	 1.317319431	 0.099587
H	-2.467084753	-0.7590811576	 1.9828604462	 0.108399
99.7801	189.2998	234.1636	242.2224	327.1062	338.7277	379.2284	456.2289	504.356	535.4394	620.455	690.4455	765.3807	784.7396	858.4544	883.747	916.9231	944.6827	962.4172	981.9073	1055.4987	1092.0339	1100.4794	1127.61	1157.1594	1198.593	1212.2693	1227.6118	1246.6135	1283.2328	1320.5402	1345.5754	1369.5456	1402.2573	1407.8138	1482.3769	1490.5135	1496.2697	1506.9547	1512.2394	1793.194	2994.6686	3009.8446	3040.8086	3047.5226	3075.5746	3077.9671	3111.4579	3114.3224	3126.2543	3562.6898
CC12CNC1=NCCO2	C[C@@]12CN[C]1[N]CCO2	
InChI=1S/C6H10N2O/c1-6-4-8-5(6)7-2-3-9-6/h2-4H2,1H3,(H,7,8)	InChI=1S/C6H10N2O/c1-6-4-8-5(6)7-2-3-9-6/h2-4H2,1H3,(H,7,8)/t6-/m1/s1
