16
gdb 24591	4.73336	1.11021	1.0112	1.3213	70.99	-0.2442	-0.0097	0.2345	1175.8707	0.126201	-437.891985	-437.884602	-437.883657	-437.92524	26.647	
C	-0.1286815066	 1.1151186243	-0.0936381903	-0.059608
C	 1.3683130128	 1.4657301196	-0.1986845768	-0.294333
C	 1.5788281565	 0.2415909504	 0.7168589697	 0.026454
O	 0.1529507344	-0.0383641064	 0.732660686	-0.289839
C	 2.373932	-0.8797461528	 0.1430943514	 0.40087
N	 2.6807143041	-1.106460472	-1.09681426	-0.304746
C	 3.378583069	-2.304309483	-1.0731610744	-0.110916
C	 3.4575332289	-2.7428698118	 0.2053638794	-0.040914
O	 2.8202556285	-1.8357266525	 0.9992771599	-0.170912
H	-0.7527808888	 1.8454030217	 0.4348445733	 0.103664
H	-0.6208681829	 0.8336515978	-1.0310628673	 0.113545
H	 1.8032136537	 1.3466507681	-1.1899864541	 0.144387
H	 1.6685865783	 2.4213529237	 0.2316402523	 0.113258
H	 1.9393975194	 0.455169751	 1.7299841172	 0.09317
H	 3.7708435867	-2.7543018137	-1.9711537334	 0.127018
H	 3.892700516	-3.5953288743	 0.697662777	 0.148903
48.3299	67.5078	150.4518	213.6282	373.9167	418.3419	633.0015	666.2635	762.8737	779.2331	802.3755	836.8337	866.8784	926.5842	939.3728	946.1415	979.188	1015.6209	1043.4519	1086.5618	1116.9721	1147.4044	1164.7112	1170.99	1210.5925	1225.6606	1267.1642	1279.1368	1350.2117	1356.0851	1426.4744	1487.1333	1530.2063	1543.0301	1609.0516	3024.6262	3038.6246	3069.1095	3096.5262	3161.182	3264.5021	3299.8424
C1CC(O1)C1=NC=CO1	C1C[C@@H](O1)c1ncco1	
InChI=1S/C6H7NO2/c1-3-8-5(1)6-7-2-4-9-6/h2,4-5H,1,3H2	InChI=1S/C6H7NO2/c1-3-8-5(1)6-7-2-4-9-6/h2,4-5H,1,3H2/t5-/m1/s1
