19
gdb 67954	2.27474	1.7327	1.26308	3.1481	74.84	-0.2382	-0.0239	0.2143	1057.4295	0.159139	-423.044153	-423.035992	-423.035047	-423.077144	31.424	
C	 0.1253067673	 1.5767236513	-0.1533347293	-0.485113
C	-0.005638727	 0.0713222077	 0.0114108492	 0.319675
C	-1.3996926466	-0.4364670638	 0.5166736584	-0.406167
C	-0.7067907226	-1.0070957407	 1.758965729	 0.42981
O	-1.0960728752	-1.5375881457	 2.7589908	-0.302123
C	 0.6882200412	-0.6088143292	 1.257123547	-0.216555
C	 1.4936435916	-1.7674644458	 0.6415492772	-0.101007
O	 0.8928510616	-2.018838846	-0.6218266577	-0.250748
C	 0.5516114758	-0.7490338491	-1.1608962811	-0.137192
H	 1.1677099212	 1.8694265899	-0.3196974999	 0.120343
H	-0.460922111	 1.9327418225	-1.0083700577	 0.123681
H	-0.2340664547	 2.1079166618	 0.7340711495	 0.121997
H	-2.1391707195	 0.340910354	 0.732806965	 0.127103
H	-1.8704877832	-1.2046784285	-0.1053742698	 0.13595
H	 1.2744322602	 0.0082158137	 1.941965036	 0.096184
H	 2.5472058533	-1.4680794213	 0.5212842222	 0.096134
H	 1.455386647	-2.6897608099	 1.2266225768	 0.129445
H	-0.1671790947	-0.9111721053	-1.9691971935	 0.112352
H	 1.4432842552	-0.2518633058	-1.5799908612	 0.08623
45.5859	178.4278	219.4344	239.0365	283.3379	321.653	366.2068	440.0756	527.4139	573.0632	580.7185	698.0558	746.8191	809.8929	848.9785	902.82	935.8594	953.5805	985.2956	997.1673	1019.4248	1074.2462	1087.5283	1119.9103	1153.7334	1166.94	1194.3555	1224.1355	1238.3307	1277.2697	1281.5733	1285.896	1357.2913	1398.5735	1414.0336	1431.0131	1494.3971	1495.74	1501.9286	1513.6838	1889.1595	2957.6009	2974.9009	3026.1017	3049.6155	3086.1832	3090.3513	3093.5137	3098.0355	3100.3524	3104.6118
CC12CC(=O)C1COC2	C[C@]12CC(=O)[C@H]1COC2	
InChI=1S/C7H10O2/c1-7-2-6(8)5(7)3-9-4-7/h5H,2-4H2,1H3	InChI=1S/C7H10O2/c1-7-2-6(8)5(7)3-9-4-7/h5H,2-4H2,1H3/t5-,7-/m1/s1
