20
gdb 126389	3.26149	1.10554	0.88243	2.9422	83.03	-0.2385	0.0178	0.2563	1391.2556	0.171021	-399.380601	-399.370626	-399.369682	-399.417125	34.456	
C	 0.1203050289	 1.4387125951	 0.167556413	-0.372453
C	-0.1283223212	-0.0417852987	-0.1603240495	-0.281534
C	 0.6542494349	-0.5084084054	-1.3462233183	 0.336676
N	 0.0798574239	-0.9419457642	-2.4579720336	-0.316185
N	 1.1454998287	-1.2443775816	-3.248117388	 0.004569
C	 0.9312463108	-1.766747235	-4.5789943613	-0.324958
C	 2.2977412036	-0.9825775026	-2.5868646459	 0.34045
C	 3.6670599135	-1.1945779765	-3.1418993138	-0.506141
N	 2.0200007266	-0.5151831863	-1.3805122717	-0.351411
H	 1.1843964793	 1.6187847652	 0.3423007521	 0.135709
H	-0.1999431806	 2.0816318658	-0.6584100751	 0.117454
H	-0.4325979488	 1.7358489512	 1.0638698371	 0.10836
H	 0.1486482822	-0.6535894197	 0.7067112733	 0.113565
H	-1.1890190396	-0.2201096682	-0.3585223704	 0.115001
H	 1.8959713132	-1.934912745	-5.0591334162	 0.140931
H	 0.3839292931	-2.7121924502	-4.5314727503	 0.151472
H	 0.3524411012	-1.0557825284	-5.174696439	 0.151851
H	 3.8409801569	-0.5963928695	-4.0429600535	 0.138013
H	 4.3931647436	-0.8961943057	-2.3852164112	 0.16053
H	 3.8470152097	-2.2440789102	-3.3990514978	 0.138102
28.9016	43.7616	111.4523	125.7871	193.2932	201.2566	254.9689	277.3748	305.6118	409.906	494.6956	611.4538	661.8695	674.447	760.482	796.468	805.5947	975.1445	1011.0539	1043.5051	1049.2125	1064.32	1084.0714	1103.4302	1152.3614	1215.7458	1280.2342	1308.3429	1346.2895	1388.3175	1405.5207	1408.0742	1446.4857	1460.5834	1473.7493	1476.1305	1489.107	1495.9523	1498.0199	1504.1129	1520.632	1551.773	1567.3894	3035.7295	3037.0209	3039.5334	3050.855	3089.5246	3090.4455	3108.4557	3114.6835	3123.9034	3150.2432	3152.4448
CCC1=NN(C)C(C)=N1	CCc1nn(C)c(C)n1	
InChI=1S/C6H11N3/c1-4-6-7-5(2)9(3)8-6/h4H2,1-3H3	InChI=1S/C6H11N3/c1-4-6-7-5(2)9(3)8-6/h4H2,1-3H3
