18
gdb 66443	2.61951	1.7201	1.33681	2.9345	75.33	-0.1992	0.0603	0.2596	1019.7353	0.145222	-401.831386	-401.822885	-401.821941	-401.863861	32.797	
C	 0.075044403	 1.5232578716	-0.0389213199	-0.523518
C	-0.01572264	 0.0355920546	-0.1072173744	 0.312929
C	 0.8428048022	-0.9869034832	-0.7726043035	-0.225841
N	 0.8345930763	-0.8810208576	 0.7352190275	-0.21033
C	-0.3234179591	-1.8731822297	 0.7693877262	-0.122383
C	-0.3292279398	-2.0162388644	-0.722346341	 0.32539
O	-0.6663661119	-3.1120366321	-1.4671251553	-0.44732
C	-1.221381524	-0.9557933069	-0.0488520788	 0.177206
C	-2.7047548938	-0.7937240162	-0.0830051251	-0.53314
H	 1.1250381602	 1.8289658479	 0.007945093	 0.135791
H	-0.3796693144	 1.9913300452	-0.9192250948	 0.119711
H	-0.4292046739	 1.9108968837	 0.8531587883	 0.126849
H	 1.7580803427	-0.9012611149	-1.3492104057	 0.09385
H	-0.5264279317	-2.5640214418	 1.5785378065	 0.101175
H	-1.0850370021	-2.8164496	-2.2844728511	 0.291539
H	-3.1922441851	-1.7748680602	-0.0695670668	 0.131714
H	-3.0763014419	-0.2285845267	 0.7794886246	 0.128817
H	-3.0357706765	-0.2720952594	-0.9894827896	 0.117561
158.9743	176.6477	189.7048	197.4451	206.3341	299.7464	338.0881	365.4754	437.799	554.8723	629.6796	661.4832	692.5658	749.1193	765.5639	811.1607	854.2218	886.4655	942.7083	975.197	989.0261	1011.8071	1052.6453	1087.0964	1096.4093	1130.3358	1171.3904	1190.5796	1248.6274	1298.3748	1374.1943	1391.2798	1415.7175	1428.3189	1477.3761	1479.4044	1486.8544	1491.7883	1504.4587	3016.6613	3027.0918	3073.026	3090.4823	3090.7725	3106.6568	3162.6315	3187.6036	3771.446
CC12C3N1C1C3(O)C21C	C[C@@]12[C@H]3N1[C@@H]1[C@@]3(O)[C@]21C	
InChI=1S/C7H9NO/c1-5-3-7(5,9)4-6(5,2)8(3)4/h3-4,9H,1-2H3	InChI=1S/C7H9NO/c1-5-3-7(5,9)4-6(5,2)8(3)4/h3-4,9H,1-2H3/t3-,4+,5-,6-,7-,8?/m0/s1
