19
gdb 6705	5.84217	0.80519	0.7398	4.4906	73.58	-0.2819	0.0107	0.2926	1527.2001	0.163122	-365.070819	-365.061103	-365.060159	-365.106168	33.465	
C	-0.0410595055	 1.5486191442	-0.0460172154	-0.383199
C	-0.0335237372	 0.0158613717	 0.0023673683	 0.015535
C	 0.7362477936	-0.5117093303	 1.2195954392	-0.395096
C	-1.4529700401	-0.5465726882	 0.0009029762	-0.040033
O	-2.1037403186	-0.1534789896	-1.1996885858	-0.240918
C	-3.4296592242	-0.6055760936	-1.2659294434	-0.183719
C	-4.0307600643	-0.1627800739	-2.5282460226	 0.263066
N	-4.5314374478	 0.1713722779	-3.5132609924	-0.292309
H	 0.9783024337	 1.9411342061	-0.1134193563	 0.113375
H	-0.6069032183	 1.9100880135	-0.9075690289	 0.135714
H	-0.4985702712	 1.9647358939	 0.8599675144	 0.108426
H	 0.453942236	-0.3573861308	-0.9078535127	 0.090825
H	 0.2719215451	-0.1789296845	 2.155543393	 0.115677
H	 0.7729906921	-1.6062442632	 1.2336660773	 0.113727
H	 1.7661109672	-0.14276171	 1.2143782784	 0.120782
H	-1.433236752	-1.6467958852	 0.0707462128	 0.090975
H	-2.0152027902	-0.1708328416	 0.8737641938	 0.089964
H	-3.4889925354	-1.7058735237	-1.217663359	 0.138372
H	-4.0369500729	-0.2138606725	-0.4327803169	 0.138837
40.8807	87.5071	100.5139	137.1452	217.1773	222.3717	249.7474	301.9311	375.9564	386.7726	429.6495	445.6309	589.0203	831.5634	920.2414	932.6691	947.4326	967.5055	982.6921	1029.5575	1036.8997	1153.5305	1155.6996	1190.4738	1201.264	1252.5636	1275.9816	1328.4483	1373.0722	1386.2387	1401.5274	1418.0489	1446.6594	1487.9629	1490.4673	1494.7712	1504.6066	1512.4682	1521.1112	2374.0975	2949.36	2967.0306	2983.7399	2990.2612	3025.2329	3026.7751	3033.6657	3091.2074	3097.4136	3107.176	3128.526
CC(C)COCC#N	CC(C)COCC#N	
InChI=1S/C6H11NO/c1-6(2)5-8-4-3-7/h6H,4-5H2,1-2H3	InChI=1S/C6H11NO/c1-6(2)5-8-4-3-7/h6H,4-5H2,1-2H3
