14
gdb 131343	3.15266	1.46895	1.00205	4.7016	70.48	-0.2058	-0.0247	0.1811	1086.2886	0.102934	-466.189334	-466.181482	-466.180538	-466.222217	29.64	
O	-0.0654167578	 1.3272933626	-0.169818907	-0.413413
C	 0.0739685186	-0.0078899601	-0.0625499145	 0.526896
N	 1.2012947542	-0.5482960534	 0.1947268724	-0.349194
N	 1.1718197232	-1.9305257965	 0.2714204211	-0.34537
C	 0.0931800546	-2.7779675937	 0.1056123487	 0.369274
N	 0.1184402166	-4.0522887819	 0.1859370624	-0.504034
C	-1.2082928997	-2.0812897113	-0.195581142	 0.371098
N	-2.2781904484	-2.7410660476	-0.3701985027	-0.477673
N	-1.09964775	-0.6871714616	-0.2565001999	-0.431183
H	 0.8083583094	 1.7113448793	-0.0185312531	 0.318427
H	 2.0716449762	-2.3329790748	 0.474287585	 0.260059
H	 1.0605914383	-4.3905066521	 0.3942686966	 0.202186
H	-3.0720115317	-2.1273089516	-0.5651932293	 0.208314
H	-1.9278524634	-0.1446970473	-0.4533471479	 0.264613
49.232	100.6431	288.0277	348.4277	372.6822	399.0892	449.8929	465.3172	485.3068	527.0137	527.3233	597.8109	671.3139	715.9251	773.974	816.8634	823.9341	873.207	1010.2686	1065.5686	1136.1976	1174.8089	1256.8417	1296.0674	1357.9652	1408.8841	1461.3382	1555.885	1701.5552	1740.0195	1767.6235	3446.5007	3452.5227	3618.0331	3652.3494	3794.2512
OC1=NNC(=N)C(=N)N1	Oc1n[nH]c([NH])c([NH])[nH]1	
InChI=1S/C3H5N5O/c4-1-2(5)7-8-3(9)6-1/h(H2,5,7)(H3,4,6,8,9)	InChI=1S/C3H5N5O/c4-1-2(5)7-8-3(9)6-1/h(H2,5,7)(H3,4,6,8,9)
