21
gdb 112410	2.40464	1.18533	0.89856	3.9365	78.26	-0.2326	-0.0104	0.2222	1338.959	0.181798	-424.259092	-424.249622	-424.248678	-424.293531	35.492	
C	 0.2630616604	 1.5698972938	-0.2757437857	-0.397433
C	-0.0147687214	 0.0938875016	 0.0467559682	-0.028238
C	 0.4944985011	-0.8309621919	-1.0747643152	-0.327561
C	 1.9441559774	-1.163729849	-0.6999018668	 0.399205
O	 2.7731143008	-1.6308499401	-1.4371673873	-0.314728
C	 2.1498510899	-0.7980669974	 0.7733143709	-0.322954
C	 0.7465271753	-0.4456035282	 1.2947226194	 0.031788
C	 0.7326710612	 0.4594976633	 2.5161975444	-0.108257
O	 1.3328116069	-0.2594709789	 3.5852048588	-0.42374
H	 1.3311099434	 1.7649829295	-0.4251331173	 0.120775
H	-0.2512200275	 1.8573184678	-1.1983621585	 0.119043
H	-0.0895867564	 2.2349886028	 0.5182179868	 0.118245
H	-1.0934309649	-0.0256225628	 0.1929844136	 0.074246
H	-0.058986405	-1.7796767072	-1.0811058762	 0.126719
H	 0.4309111658	-0.4145508099	-2.0832833817	 0.121278
H	 2.6442521561	-1.6052325384	 1.3168904015	 0.13886
H	 2.8259319876	 0.066517276	 0.8161251331	 0.125993
H	 0.2545334872	-1.3801912757	 1.5950407892	 0.08687
H	 1.2861145191	 1.3883666675	 2.307672153	 0.087002
H	-0.3054053399	 0.7415610076	 2.7595494104	 0.084999
H	 1.3791693927	 0.3199628794	 4.3511788394	 0.287887
70.5367	105.9898	128.3665	182.7325	237.6805	264.6885	299.2214	338.2737	402.3558	456.6658	471.1168	489.924	576.3804	668.1586	755.6388	798.8107	821.3293	894.0168	925.9769	981.8332	1005.6095	1022.0763	1055.9451	1081.5554	1096.4795	1146.7428	1152.968	1184.474	1208.8258	1241.9189	1251.657	1268.8261	1286.4469	1318.5851	1322.7761	1376.2286	1389.2609	1414.7844	1446.4125	1453.899	1464.9827	1495.6942	1503.7968	1524.2073	1846.4026	2959.4341	2994.0075	3019.9443	3027.0438	3031.2986	3035.8517	3049.169	3097.7912	3101.5589	3106.5794	3116.9797	3830.0115
CC1CC(=O)CC1CO	C[C@H]1CC(=O)C[C@H]1CO	
InChI=1S/C7H12O2/c1-5-2-7(9)3-6(5)4-8/h5-6,8H,2-4H2,1H3	InChI=1S/C7H12O2/c1-5-2-7(9)3-6(5)4-8/h5-6,8H,2-4H2,1H3/t5-,6-/m0/s1
