17
gdb 117597	2.17047	1.1077	0.91841	4.7308	73.66	-0.327	-0.0338	0.2932	1352.2436	0.133155	-418.020971	-418.010776	-418.009832	-418.056393	35.566	
C	-0.0655227606	 1.6116916725	-0.021073958	-0.392019
C	-0.0437056457	 0.0808485644	-0.0051427024	-0.192348
C	 0.7490678605	-0.4916633827	-1.183692933	-0.20584
C	 0.7358098329	-2.0438882656	-1.2399846555	 0.050397
O	-0.5747776257	-2.5776035891	-1.2996316649	-0.422818
C	 1.5252324451	-2.490132578	-2.4166051043	 0.27984
N	 2.0902762197	-2.7949833545	-3.3765335687	-0.315147
C	 1.3543527163	-2.6027775896	-0.0176830692	 0.333833
N	 1.855469305	-2.9965891555	 0.9441708353	-0.319762
H	 0.9468288296	 2.0256505971	 0.0354117081	 0.124758
H	-0.5314193251	 1.9960125958	-0.9350776853	 0.118988
H	-0.6321351061	 2.0000209632	 0.829763624	 0.12716
H	 0.3978870468	-0.2740333696	 0.9329137384	 0.132112
H	-1.0650257307	-0.3121215362	-0.0348222874	 0.118043
H	 0.3356510397	-0.1394040324	-2.1373852696	 0.117868
H	 1.7922964538	-0.1584856223	-1.1527433746	 0.139427
H	-0.9808709454	-2.2733352773	-2.1208488128	 0.305508
78.0114	96.1591	116.8595	133.3188	193.0373	224.0337	243.7005	251.6595	301.9114	332.2923	415.827	494.0054	533.5523	577.5038	629.1061	731.044	754.3377	870.5709	907.1663	994.2075	1025.4001	1046.8467	1089.7746	1138.6934	1161.4003	1257.4473	1311.5038	1328.9594	1384.4762	1400.3348	1417.3874	1475.0241	1494.328	1499.9744	1511.306	2359.8138	2375.7452	3029.8909	3034.8662	3048.9015	3072.6221	3088.06	3107.9288	3114.0875	3795.1309
CCCC(O)(C#N)C#N	CCCC(O)(C#N)C#N	
InChI=1S/C6H8N2O/c1-2-3-6(9,4-7)5-8/h9H,2-3H2,1H3	InChI=1S/C6H8N2O/c1-2-3-6(9,4-7)5-8/h9H,2-3H2,1H3
