16
gdb 125277	5.29063	1.23627	1.00841	4.0597	78.61	-0.1911	0.0289	0.2201	1135.1501	0.127236	-396.962307	-396.95453	-396.953586	-396.994325	29.301	
C	-0.0239738483	 1.491604861	 0.0828413436	-0.502729
C	-0.0017967555	 0.0060258508	-0.0495938076	 0.344887
C	-0.047579117	-0.7930718006	-1.1641671836	-0.441009
C	 0.0031521999	-2.1578134858	-0.7164661156	 0.254238
C	 0.0783859291	-2.1028168637	 0.6721120621	 0.448316
N	 0.1297164542	-3.3645901888	 1.1551364736	-0.366279
N	 0.0905896769	-4.2714613874	 0.1258264025	-0.230939
C	 0.0153210678	-3.5506049423	-0.9882938894	-0.153764
N	 0.0764313174	-0.8061050375	 1.0965462145	-0.47178
H	 0.8782215494	 1.878150096	 0.5744764553	 0.125767
H	-0.081975539	 1.9489866314	-0.9072486216	 0.141314
H	-0.8871641855	 1.8441368039	 0.6622716389	 0.126006
H	-0.1103610985	-0.4282158189	-2.177909318	 0.096768
H	 0.1874092031	-3.7032736253	 2.0978962431	 0.265849
H	-0.0268615568	-4.0643981753	-1.9375702358	 0.105502
H	 0.1237156627	-0.4678149674	 2.0406592081	 0.257853
132.2952	148.2667	204.3514	262.2953	275.971	301.6246	370.6969	495.8786	553.9063	621.5553	653.5532	742.4445	768.3433	785.8728	820.4507	870.3349	958.5443	983.5119	1010.9643	1060.041	1062.4999	1163.4418	1191.53	1245.9089	1267.1851	1336.6424	1390.4382	1415.3876	1427.0843	1476.3935	1477.7634	1501.9541	1542.5537	1614.6265	1643.8131	3012.038	3054.2499	3125.1239	3242.3266	3248.7659	3689.622	3700.0166
CC1=CC2=C(NN=C2)N1	Cc1cc2c([nH]nc2)[nH]1	
InChI=1S/C6H7N3/c1-4-2-5-3-7-9-6(5)8-4/h2-3H,1H3,(H2,7,8,9)	InChI=1S/C6H7N3/c1-4-2-5-3-7-9-6(5)8-4/h2-3H,1H3,(H2,7,8,9)
