12
gdb 43438	3.37183	1.28602	0.93095	1.7527	74.	-0.2736	-0.1066	0.167	1134.2291	0.07735	-435.531323	-435.523799	-435.522854	-435.563548	27.829	
O	-0.0155241072	-0.057302254	 0.003991157	-0.338369
C	 0.0015193629	 1.1476531554	 0.0097561621	 0.46462
N	-1.1171359447	 1.9866044151	 0.0297155253	-0.407057
C	-0.76860203	 3.3306293593	 0.0313034469	 0.372597
O	-1.5150593504	 4.272334746	 0.0464739845	-0.319703
C	 0.7556509872	 3.3393069197	 0.0094951811	 0.056337
C	 1.1806007367	 2.0630840298	-0.0028146571	-0.370742
C	 1.4899278031	 4.5386655213	 0.0047570143	 0.272787
C	 2.1010566952	 5.5761200249	 0.0009774177	-0.371739
H	-2.0686594429	 1.6549943777	 0.0416447061	 0.279846
H	 2.1950796974	 1.6934235317	-0.0191925527	 0.149657
H	 2.6379283128	 6.4930044031	-0.0023645651	 0.211766
126.1124	132.1946	141.6932	302.2853	365.8905	428.8228	502.5648	515.9878	531.1808	622.6901	649.4738	650.1956	678.4756	735.6455	756.3156	800.2262	897.7415	932.4068	1078.445	1176.7521	1266.895	1335.9638	1337.1803	1648.9493	1829.3811	1867.812	2230.6828	3255.5654	3498.9594	3656.2255
O=C1NC(=O)C(=C1)C#C	O=C1NC(=O)C(=C1)C#C	
InChI=1S/C6H3NO2/c1-2-4-3-5(8)7-6(4)9/h1,3H,(H,7,8,9)	InChI=1S/C6H3NO2/c1-2-4-3-5(8)7-6(4)9/h1,3H,(H,7,8,9)
