17
gdb 127386	3.90892	1.15395	1.08581	3.7596	74.93	-0.2222	0.0003	0.2225	1154.0917	0.138457	-414.178989	-414.171191	-414.170247	-414.211871	29.013	
C	-0.5581584495	 1.235854888	 0.026632064	-0.321543
N	 0.0351338272	-0.0952076741	 0.0595750857	-0.088496
C	 1.4358634047	-0.2151784058	-0.304663746	-0.252343
C	 1.0173112012	-0.4274521866	 1.1128159967	-0.087224
C	 1.4176623497	 0.5132492519	 2.1797486671	 0.348943
N	 1.9584636426	 1.7099520775	 1.9726615814	-0.27647
N	 2.1268814772	 2.1730666908	 3.2336802737	-0.174805
C	 1.7052016878	 1.2587356101	 4.1284731522	 0.01506
N	 1.2473604447	 0.1951290187	 3.5021057273	-0.307202
H	 0.1284405181	 2.0451008622	 0.310653354	 0.125325
H	-0.9159739527	 1.4221098946	-0.991021994	 0.120155
H	-1.4218022714	 1.2586901446	 0.6991434168	 0.120848
H	 1.7005350728	-1.0699538098	-0.9224004003	 0.112952
H	 1.9934373798	 0.6970286641	-0.5104000175	 0.126417
H	 0.9050736597	-1.4392515555	 1.4907902347	 0.105864
H	 2.5350250029	 3.0810063804	 3.3843274953	 0.28348
H	 1.7525232053	 1.4088115588	 5.1966705687	 0.149039
53.3667	135.3912	188.8084	220.3587	302.262	362.6411	444.1808	491.5323	540.4839	679.8708	684.8162	738.4907	816.4165	856.6162	878.4766	968.7373	997.0333	1019.64	1038.0527	1101.0528	1106.8094	1129.4561	1138.3195	1166.9101	1183.6769	1212.3262	1255.874	1314.5425	1328.7267	1403.6854	1449.1346	1470.4746	1490.4138	1499.1256	1505.168	1515.4216	1550.3057	3005.9541	3077.6704	3093.2295	3100.9844	3155.3937	3181.0306	3258.6805	3663.9428
CN1CC1C1=NNC=N1	CN1C[C@H]1c1n[nH]cn1	
InChI=1S/C5H8N4/c1-9-2-4(9)5-6-3-7-8-5/h3-4H,2H2,1H3,(H,6,7,8)	InChI=1S/C5H8N4/c1-9-2-4(9)5-6-3-7-8-5/h3-4H,2H2,1H3,(H,6,7,8)/t4-,9?/m0/s1
