21
gdb 123242	6.01917	0.44206	0.42582	1.9461	78.19	-0.2556	-0.0256	0.2301	2482.0264	0.179494	-461.35786	-461.346917	-461.345973	-461.396202	36.86	
O	-0.0703344139	 1.4761260728	-0.1810106825	-0.420363
C	-0.0003810851	 0.0775643848	 0.0106957013	-0.059131
C	-1.3867925023	-0.5445702778	 0.0637031445	-0.072159
O	-2.0122944858	-0.2524691749	-1.1737859392	-0.261349
C	-3.3651747376	-0.6480766938	-1.240064896	-0.045404
C	-3.9088834476	-0.2797985127	-2.6144172637	-0.21237
C	-5.3853421167	-0.6724547077	-2.7805098774	-0.276308
C	-5.9470861101	-0.1956599892	-4.1014836562	 0.161087
O	-6.4941829233	-0.8956797928	-4.912631976	-0.233415
H	-0.6628909436	 1.6060723415	-0.9306984773	 0.287666
H	 0.5807631117	-0.4111589755	-0.7876055303	 0.094422
H	 0.5188532968	-0.0957796251	 0.9588731621	 0.109546
H	-1.3232322931	-1.6332913507	 0.2244545233	 0.089321
H	-1.9635395866	-0.1065271315	 0.8939541476	 0.096222
H	-3.4544150452	-1.7343252579	-1.0707346464	 0.09417
H	-3.9509787534	-0.1490927843	-0.4489762817	 0.091241
H	-3.7870144636	 0.8003843156	-2.7611941562	 0.112323
H	-3.2996865884	-0.7738222798	-3.3793589697	 0.12475
H	-5.5317464122	-1.7543480294	-2.7112318804	 0.125454
H	-5.978334245	-0.19783946	-1.9841476463	 0.121607
H	-5.8130902052	 0.8970682285	-4.2847359694	 0.07269
43.6548	47.3007	64.4673	102.7981	109.0622	136.2375	182.8497	241.6598	278.272	365.8188	432.9889	441.0243	524.0325	559.9244	757.9652	815.4769	868.9478	907.0798	927.5777	1000.7872	1039.4267	1056.5896	1085.1276	1115.8833	1138.7141	1156.1462	1159.6185	1218.4769	1236.2513	1262.3326	1268.0827	1294.2717	1316.634	1357.631	1386.0475	1390.5104	1428.1771	1436.8126	1449.2909	1465.9077	1496.9403	1499.3037	1505.3303	1532.1709	1839.6527	2851.4064	2952.61	2969.4854	2979.0112	2982.3974	3007.262	3010.2907	3036.307	3078.177	3080.9444	3100.4924	3797.0192
OCCOCCCC=O	OCCOCCCC=O	
InChI=1S/C6H12O3/c7-3-1-2-5-9-6-4-8/h3,8H,1-2,4-6H2	InChI=1S/C6H12O3/c7-3-1-2-5-9-6-4-8/h3,8H,1-2,4-6H2
