21
gdb 79863	2.78146	1.54861	1.33951	1.6164	81.73	-0.2458	0.0757	0.3215	1061.6209	0.183789	-387.063916	-387.055798	-387.054854	-387.096001	32.638	
C	 0.0499867885	 1.5128410693	-0.026299068	-0.526359
C	 0.0313148713	 0.0077704992	-0.0325524813	 0.2856
C	 0.5793692483	-0.9487221301	-1.1263419747	 0.135034
O	 1.9424252256	-0.9479637488	-1.4670037898	-0.455826
C	 0.0188080361	-1.8952066301	-0.0396388729	-0.119326
C	 0.607909292	-0.9613645383	 1.0690037329	-0.066226
C	-0.3356903366	-0.9584984002	 2.2736447056	-0.246732
C	-1.702052428	-0.9458417373	 1.5331402542	-0.242419
C	-1.2119232659	-0.9420694891	 0.0842148798	-0.035167
H	 1.0736064876	 1.8885208488	-0.1337785169	 0.122419
H	-0.5396927643	 1.9170369831	-0.8566502153	 0.12075
H	-0.360797302	 1.9200245439	 0.9046328578	 0.117137
H	 0.0393419351	-0.9394127714	-2.0779964449	 0.074971
H	 2.4639270595	-1.0086385275	-0.6603212532	 0.28051
H	 0.0006575793	-2.9868892758	-0.03445251	 0.064001
H	 1.6809610888	-0.9683148916	 1.2797700481	 0.043676
H	-0.2026210153	-1.843340856	 2.9041696458	 0.097432
H	-0.1891912089	-0.0797751376	 2.9103074914	 0.096935
H	-2.3141140528	-1.8247544739	 1.7586396214	 0.097786
H	-2.3029989236	-0.0611852747	 1.7675503839	 0.097144
H	-1.9538613148	-0.9337881719	-0.7177148441	 0.05866
165.4804	196.7538	200.9518	220.1304	245.814	279.3829	334.6375	498.2963	521.1073	632.7906	691.918	723.2234	737.8358	811.6896	835.9403	853.6564	911.943	929.6854	938.7754	976.9939	986.8868	996.3654	1025.9036	1071.078	1077.8793	1107.231	1133.2674	1155.6054	1189.7876	1196.2008	1222.8075	1249.2157	1249.6804	1262.996	1274.565	1294.5296	1315.1682	1321.573	1391.1224	1407.0779	1459.9125	1483.6034	1489.2562	1492.2321	1511.4913	3023.5174	3040.0965	3048.8333	3067.9687	3070.4788	3072.6553	3087.1603	3088.9369	3091.8119	3092.6185	3098.346	3819.095
CC12C(O)C3C1CCC23	C[C@@]12[C@@H](O)[C@H]3[C@@H]1CC[C@@H]23	
InChI=1S/C8H12O/c1-8-4-2-3-5(8)6(4)7(8)9/h4-7,9H,2-3H2,1H3	InChI=1S/C8H12O/c1-8-4-2-3-5(8)6(4)7(8)9/h4-7,9H,2-3H2,1H3/t4-,5+,6-,7-,8+/m0/s1
