18
gdb 82963	3.15245	1.52419	1.42443	3.5706	70.8	-0.2136	0.0662	0.2798	979.2513	0.1493	-439.024712	-439.017504	-439.01656	-439.056043	29.747	
O	 0.0437745198	 1.3435156331	 0.1628698892	-0.424379
C	 0.0194789797	-0.0321728312	 0.0320666496	 0.107181
C	-1.3307401262	-0.7355518994	 0.0163859473	-0.135755
N	-2.451759458	 0.1678137071	-0.0896442204	-0.319121
C	-3.2132258112	 0.0022269626	-1.305233143	-0.028853
C	-3.2325561343	 1.154564567	-2.2917242527	-0.317311
C	-2.3220845924	-0.0191801606	-2.5158732711	 0.118206
O	-0.9567749212	 0.1622602722	-2.2518420498	-0.249413
C	-0.4782723068	-0.6830759941	-1.2410972162	 0.04049
H	-0.8773053441	 1.6204663756	 0.0291918227	 0.281997
H	 0.8480539254	-0.5119249455	 0.5436295906	 0.102297
H	-1.4707366296	-1.6873011105	 0.5268082186	 0.081643
H	-3.0210787337	 0.2032790992	 0.743310972	 0.237972
H	-4.0652426814	-0.6756342876	-1.2808312062	 0.086333
H	-4.0912853697	 1.2648615619	-2.9448228698	 0.113426
H	-2.7647821354	 2.0774695653	-1.9694627048	 0.126601
H	-2.5362300813	-0.7116988395	-3.3273924797	 0.091331
H	-0.0032442693	-1.5964303156	-1.5955696064	 0.087355
122.9406	192.9341	286.3848	315.3042	401.3776	487.5128	494.5783	533.9146	595.2255	615.1188	677.9181	738.618	780.1564	793.4411	825.1455	862.6616	913.7745	963.2476	1004.7579	1015.7831	1050.5473	1066.745	1092.0842	1101.9803	1111.348	1132.9358	1135.9804	1154.2457	1180.7154	1217.9005	1243.5856	1314.1297	1338.8403	1345.3797	1384.7683	1416.3713	1432.2136	1472.835	1481.9455	3097.9713	3102.5267	3111.5246	3121.277	3139.7888	3162.6574	3234.7445	3594.3303	3675.1596
OC1C2NC3CC3OC12	O[C@H]1[C@H]2N[C@H]3C[C@H]3O[C@@H]12	
InChI=1S/C6H9NO2/c8-5-4-6(5)9-3-1-2(3)7-4/h2-8H,1H2	InChI=1S/C6H9NO2/c8-5-4-6(5)9-3-1-2(3)7-4/h2-8H,1H2/t2-,3+,4+,5-,6+/m0/s1
