19
gdb 14230	4.83383	1.70728	1.5115	1.7362	75.28	-0.2187	0.085	0.3037	915.9367	0.165872	-327.859253	-327.851918	-327.850974	-327.890191	29.211	
C	-0.082373632	 1.4871121493	 0.0161646161	-0.3992
C	 0.0339870631	-0.0256616027	-0.0241339712	 0.054453
C	 0.8502511769	-0.5926620222	-1.1770946716	-0.125134
C	 2.0643392545	-0.5739872814	-0.2930470674	-0.077667
N	 1.1162902864	-0.5235862852	 0.9280079586	-0.179048
C	 0.9775251995	-2.0249224131	 0.776683153	-0.223765
C	 1.4761169688	-1.9081752657	-0.6562578229	 0.316066
C	 2.0090775746	-2.9748163476	-1.565344426	-0.508733
H	 0.8893344843	 1.9597185394	-0.1586323364	 0.117574
H	-0.7784322857	 1.8435722952	-0.750999405	 0.108644
H	-0.4499563075	 1.812488311	 0.9939585505	 0.122115
H	-0.9432260137	-0.4843199144	 0.1768974066	 0.063706
H	 0.7890758063	-0.386307085	-2.2396521572	 0.082585
H	 3.0510978172	-0.1368795677	-0.3541223617	 0.092574
H	 1.7013300761	-2.5259279515	 1.427113944	 0.100622
H	-0.0281336833	-2.4135118828	 0.9802558353	 0.091511
H	 1.2106270365	-3.6424712905	-1.9096013029	 0.122174
H	 2.4813596265	-2.5413837875	-2.4534522095	 0.120563
H	 2.7610698014	-3.5887588176	-1.0566171024	 0.120963
182.2201	207.4084	222.1011	242.1841	311.6801	337.4847	453.784	495.716	619.2527	754.2795	780.4585	802.2831	834.5712	867.7486	889.5235	921.8186	924.5049	961.8594	1011.6717	1018.5129	1051.3969	1076.1313	1097.4918	1121.127	1146.9906	1152.399	1186.1675	1223.8318	1247.6765	1291.7063	1304.9074	1380.4534	1409.4918	1410.2951	1430.9723	1487.4843	1489.4062	1493.3593	1499.4019	1514.4487	3011.7986	3021.3704	3026.041	3033.9662	3081.6686	3083.0053	3092.3675	3102.8087	3112.842	3176.0274	3213.1194
CC1C2C3N1CC23C	C[C@H]1[C@H]2[C@H]3N1C[C@@]23C	
InChI=1S/C7H11N/c1-4-5-6-7(5,2)3-8(4)6/h4-6H,3H2,1-2H3	InChI=1S/C7H11N/c1-4-5-6-7(5,2)3-8(4)6/h4-6H,3H2,1-2H3/t4-,5-,6+,7-/m0/s1
