16
gdb 97222	2.71723	1.34294	1.04676	1.5812	68.42	-0.2543	-0.0403	0.214	1157.3683	0.122805	-475.030024	-475.021119	-475.020175	-475.064993	30.113	
C	 0.0579233966	 1.4435205499	 0.0499251011	-0.338694
N	 0.0402246276	-0.0113153899	 0.056057106	-0.31781
C	 0.4244403479	-0.6475706046	-0.9546925078	 0.40471
O	 0.8796848122	-0.1418750475	-2.140487424	-0.245423
C	 1.3190795302	-1.2331658112	-2.9527701808	 0.015084
O	 0.7069895085	-2.3929417248	-2.4447554208	-0.230201
C	 0.4939906275	-2.1647945215	-1.0710460936	-0.101603
C	 1.6343720223	-2.6821219921	-0.1877868971	 0.14315
O	 2.6763329626	-3.088595708	-0.6239681711	-0.232483
H	 0.5918212001	 1.7933244485	 0.939608065	 0.132764
H	 0.5209082406	 1.8837626598	-0.8399094692	 0.128249
H	-0.970689971	 1.8124460336	 0.1309058223	 0.133833
H	 0.9841358455	-1.069429887	-3.9799435991	 0.133742
H	 2.4135290389	-1.2984388381	-2.898262456	 0.129715
H	-0.4472552061	-2.6275010874	-0.7586201694	 0.138299
H	 1.4184198266	-2.6191628698	 0.8999802645	 0.106668
49.0029	82.2676	87.305	167.7873	186.6555	225.3656	276.146	309.9374	468.4122	649.7678	667.7896	728.8576	787.4649	806.5918	897.6219	985.6732	1025.8115	1042.483	1060.9499	1123.0023	1134.4591	1149.5682	1175.0372	1214.9827	1235.2976	1245.9518	1334.7632	1398.1561	1437.3488	1439.6255	1493.4574	1496.2426	1542.8147	1811.5778	1843.6864	2913.9702	3022.229	3023.1759	3074.3414	3086.369	3096.6682	3106.33
CN=C1OCOC1C=O	CN=C1OCO[C@H]1C=O	
InChI=1S/C5H7NO3/c1-6-5-4(2-7)8-3-9-5/h2,4H,3H2,1H3	InChI=1S/C5H7NO3/c1-6-5-4(2-7)8-3-9-5/h2,4H,3H2,1H3/t4-/m0/s1
