16
gdb 102290	2.48962	1.16481	1.00192	2.2246	62.06	-0.2589	-0.0286	0.2303	1226.7575	0.121736	-512.201761	-512.192016	-512.191072	-512.237415	33.766	
N	-0.2407256656	 1.2656072163	-0.0336296344	-0.562448
C	 0.0015949186	-0.0752878289	-0.0021368055	 0.519535
O	 1.0863835003	-0.6014606861	-0.0305400162	-0.395763
O	-1.1783671346	-0.7534224089	 0.1405766404	-0.276105
C	-1.081343796	-2.1696581191	 0.0351446923	-0.000818
C	-2.3062805104	-2.7564018875	 0.7344263322	-0.091932
O	-3.5094519236	-2.3665882106	 0.1059227363	-0.414503
C	-1.0298094688	-2.5878065286	-1.4301979962	 0.169579
O	-0.984871625	-1.8189667468	-2.3502955151	-0.238698
H	 0.5336425333	 1.8397050181	-0.3215864837	 0.274332
H	-1.1650141438	 1.5783668825	-0.2792727141	 0.267103
H	-0.1600824553	-2.5213436111	 0.5173212281	 0.133123
H	-2.2629487837	-3.8493647785	 0.6850174255	 0.122269
H	-2.2783741207	-2.4659451102	 1.7946163801	 0.110831
H	-3.5087739043	-1.4034673458	 0.0693602506	 0.295548
H	-1.0313297605	-3.6909218449	-1.57903501	 0.087947
52.6279	78.8675	88.7314	114.8127	185.4872	254.656	272.6338	338.4279	392.5498	411.2503	466.9518	507.903	594.6542	671.4304	708.6842	773.44	833.9118	873.6844	947.9015	1003.8444	1073.8207	1088.0183	1121.6326	1148.7948	1237.6118	1265.3745	1334.6377	1371.7329	1398.3074	1411.6779	1429.3242	1496.0925	1615.9643	1842.06	1853.3571	2885.9162	3005.0904	3044.6958	3083.0047	3611.1488	3736.2928	3808.7229
NC(=O)OC(CO)C=O	NC(=O)O[C@@H](CO)C=O	
InChI=1S/C4H7NO4/c5-4(8)9-3(1-6)2-7/h1,3,7H,2H2,(H2,5,8)	InChI=1S/C4H7NO4/c5-4(8)9-3(1-6)2-7/h1,3,7H,2H2,(H2,5,8)/t3-/m1/s1
