16
gdb 131669	2.71377	1.46523	0.95709	0.4381	76.88	-0.2095	-0.0461	0.1634	1160.118	0.126314	-434.074238	-434.066197	-434.065253	-434.106987	30.099	
O	 0.0228317747	 1.430182874	 0.0064441176	-0.42497
C	 0.0083217683	 0.0150738986	 0.0022106941	-0.161427
C	-1.4077037448	-0.4694643159	 0.0123578367	 0.267494
C	-2.486245655	 0.3488041427	 0.0232778451	-0.209552
C	-3.8042950126	-0.2100213231	 0.0323720844	-0.000108
N	-4.0358918108	-1.4886163478	 0.030784389	-0.189556
N	-2.9504665987	-2.2838893814	 0.019907278	-0.298453
C	-1.6029303387	-1.9157087583	 0.0099758279	 0.323859
N	-0.6053016906	-2.7282647715	-0.0003636884	-0.566025
H	 0.9398454975	 1.7165828946	 0.0001374645	 0.294694
H	 0.513427054	-0.4064120107	-0.8810511708	 0.124642
H	 0.5279100899	-0.4118748617	 0.8743566574	 0.124662
H	-2.3491983271	 1.4229816347	 0.0251340697	 0.132853
H	-4.6831824921	 0.4246606901	 0.0411528003	 0.123889
H	-3.1718107574	-3.2690764738	 0.0190174711	 0.261425
H	-0.9057842364	-3.7041996006	-0.0006126867	 0.196574
93.3617	143.2748	206.0645	209.3085	235.859	346.5056	407.0755	512.1993	549.3942	550.1359	602.2745	657.11	753.3654	782.2898	785.6695	876.1759	886.6777	952.8183	1041.3177	1047.1876	1074.2324	1108.9964	1175.5241	1196.7688	1219.049	1238.0846	1303.7011	1396.5562	1403.5497	1446.7714	1475.4661	1488.0235	1602.3607	1661.1173	1701.4445	2983.3337	3002.475	3195.2268	3219.8548	3458.3744	3607.23	3849.0161
OCC1=CC=NNC1=N	OCC1=C(NN=CC1)[NH]	
InChI=1S/C5H7N3O/c6-5-4(3-9)1-2-7-8-5/h1-2,9H,3H2,(H2,6,8)	InChI=1S/C5H8N3O/c6-5-4(3-9)1-2-7-8-5/h2,6,8-9H,1,3H2
