19
gdb 35856	2.10664	1.72684	1.1731	1.497	80.6	-0.2461	0.0481	0.2942	1110.8679	0.159053	-385.84114	-385.832629	-385.831685	-385.875236	32.498	
C	 0.0309869423	-1.3017050504	 0.2514925328	-0.498568
C	 0.0291703124	-0.1049085494	 0.1358579229	 0.370231
C	 0.024430148	 1.345638607	-0.0190426079	-0.285102
C	-0.6115098702	 2.0668458281	 1.1951713402	-0.088973
O	 0.439225874	 2.2081091796	 2.1304580745	-0.244667
C	 1.6055846211	 2.5641799379	 1.4017702897	-0.140091
C	 1.4389447484	 1.9667773485	-0.0041404934	 0.340832
C	 2.5862815141	 1.3596219766	-0.7563931516	-0.312371
C	 1.9935846252	 2.6698643906	-1.2156106215	-0.321904
H	 0.0312131766	-2.3577502529	 0.3617241228	 0.196539
H	-0.5061670132	 1.6058558324	-0.9414107794	 0.104078
H	-0.9966993846	 3.0491919147	 0.8748437671	 0.088483
H	-1.4173516439	 1.5016889046	 1.6662439228	 0.121846
H	 1.7077227015	 3.6602510041	 1.3485305633	 0.090725
H	 2.4686732969	 2.1631100503	 1.9421758777	 0.112947
H	 3.5652172236	 1.3767523685	-0.2875673171	 0.113662
H	 2.389404098	 0.4678923164	-1.3418791784	 0.125855
H	 1.4027107781	 2.6753298477	-2.126130806	 0.114199
H	 2.5678656517	 3.5774570255	-1.0535610886	 0.112278
21.1065	137.4394	146.0914	258.083	293.469	306.0598	374.6979	450.8143	513.2299	547.9522	624.8807	629.3911	719.3602	776.654	826.3295	848.0399	888.5682	926.7439	947.1072	960.5165	981.4171	1009.7724	1060.3129	1078.8421	1095.3118	1106.1398	1122.0081	1189.1727	1197.4086	1227.3549	1266.8966	1271.4163	1329.6603	1337.4162	1366.289	1408.2855	1469.7342	1501.1927	1508.8274	1522.8	2233.6191	2964.4648	2970.8849	3047.2873	3070.1384	3118.1272	3118.6894	3127.8581	3198.3595	3216.4565	3503.4942
C#CC1COCC11CC1	C#C[C@H]1COCC21CC2	
InChI=1S/C8H10O/c1-2-7-5-9-6-8(7)3-4-8/h1,7H,3-6H2	InChI=1S/C8H10O/c1-2-7-5-9-6-8(7)3-4-8/h1,7H,3-6H2/t7-/m0/s1
