19
gdb 126165	4.02958	0.978	0.81222	5.8627	77.28	-0.2455	0.0082	0.2537	1405.5978	0.161362	-415.388456	-415.379561	-415.378617	-415.422625	32.695	
C	-0.1839228044	 1.703028154	-0.2549074469	-0.397917
C	-0.2211504266	 0.177109615	-0.3626344422	-0.1699
C	 0.9166250499	-0.4067233523	-1.2239893893	-0.11795
N	 2.283749211	-0.1369437097	-0.7438824869	-0.530858
H	 2.8031011842	-2.3969801913	-1.6449507203	 0.2815
H	 2.4999537329	 0.8494164675	-0.8409466318	 0.239659
H	 2.3481934262	-0.3529331696	 0.2484788083	 0.233547
C	 0.76927792	-1.8935590704	-1.3947401697	 0.389817
C	-0.2857532354	-2.7801556065	-1.4163021715	-0.179975
N	 0.1922984543	-4.0362263806	-1.6448414531	-0.193318
N	 1.4894587078	-3.9820960212	-1.7635732581	-0.119856
N	 1.839015572	-2.6929467709	-1.6172733222	-0.228914
H	 0.7408541225	 2.0529865939	 0.2156200141	 0.109769
H	-0.2561548229	 2.1733816741	-1.2422015494	 0.119821
H	-1.0170903141	 2.0720053803	 0.3496472004	 0.124326
H	-0.1715577707	-0.2760231336	 0.6359812286	 0.103858
H	-1.1800844543	-0.1338395565	-0.7940061918	 0.111387
H	 0.8536016316	 0.0576669944	-2.2193062842	 0.108146
H	-1.3396748741	-2.5968214066	-1.285739514	 0.116856
60.1068	87.7708	141.7678	193.2758	238.1559	292.8976	307.0869	351.8363	449.846	478.3289	642.7265	680.2691	746.2558	754.8988	797.1279	845.1533	850.63	939.7395	993.04	1002.0382	1055.5751	1063.7871	1074.262	1101.3033	1131.3105	1150.43	1209.9879	1217.6055	1288.875	1323.3717	1327.4068	1356.6266	1378.7868	1403.87	1414.5393	1437.022	1480.9177	1500.0347	1506.5791	1595.0868	1657.0992	2995.3217	3025.4684	3032.8176	3063.0237	3098.55	3111.0864	3270.1422	3482.9026	3576.403	3646.3765
CCC([NH3+])C1=CN=N[N-]1	CC[C@@H](N)c1cnn[nH]1	
InChI=1S/C5H9N4/c1-2-4(6)5-3-7-9-8-5/h3-4H,2,6H2,1H3/q-1/p+1	InChI=1S/C5H10N4/c1-2-4(6)5-3-7-9-8-5/h3-4H,2,6H2,1H3,(H,7,8,9)/t4-/m1/s1
