21
gdb 32523	1.67573	1.66275	0.95671	0.9724	84.81	-0.2133	0.0265	0.2398	1321.1184	0.182532	-387.131869	-387.12234	-387.121396	-387.166804	34.969	
C	 0.0565633596	 1.5327208043	-0.0346967025	-0.36822
C	-0.0078207004	-0.001919371	 0.0680049235	-0.308234
C	-1.4088161717	-0.5439366946	 0.037578245	 0.158545
C	-2.1479516843	-0.9349185722	 1.1101851643	-0.100984
O	-3.3935194076	-1.3292291824	 0.7348631066	-0.147946
C	-3.4487914789	-1.1869642213	-0.6158750148	-0.100972
C	-2.2739300768	-0.7143314663	-1.1118553196	 0.158509
C	-1.9463899484	-0.4766325612	-2.5588237099	-0.308232
C	-1.114443083	-1.6070431335	-3.1911614332	-0.368208
H	 1.0936964783	 1.8827918969	-0.0136325906	 0.110497
H	-0.4007686346	 1.8910052779	-0.9621683939	 0.122545
H	-0.4793057068	 1.9987460642	 0.7978466477	 0.120375
H	 0.5814100326	-0.4413928706	-0.7457382446	 0.106266
H	 0.4782440134	-0.3184602542	 0.9979419439	 0.104017
H	-1.9374643766	-0.9882807948	 2.1664256361	 0.129173
H	-4.3836972793	-1.4604435395	-1.0784304237	 0.129173
H	-2.879142097	-0.36115104	-3.1226287198	 0.10402
H	-1.4068655941	 0.4715847997	-2.669724881	 0.10627
H	-1.6540153151	-2.5578173981	-3.142649915	 0.120372
H	-0.8952982483	-1.390501034	-4.2417440967	 0.110492
H	-0.161839911	-1.7422777495	-2.6696358316	 0.12254
50.9122	88.2717	146.651	163.8515	176.554	219.4839	272.8642	354.5155	396.4659	437.1745	613.6377	635.7182	658.6088	702.3435	762.8011	776.607	787.4531	792.8594	894.6063	955.4609	974.9563	1062.9149	1067.5852	1079.3474	1089.0333	1090.5043	1183.0576	1189.0383	1249.4934	1274.7061	1303.687	1304.7398	1354.4499	1364.8174	1403.1758	1408.8674	1413.406	1479.8245	1487.6837	1494.8521	1496.7501	1504.2192	1508.5988	1577.6261	1645.1103	3028.9719	3030.5742	3036.0677	3036.1178	3062.7049	3062.9292	3106.0853	3106.2994	3111.3228	3113.1391	3263.76	3268.8423
CCC1=COC=C1CC	CCc1cocc1CC	
InChI=1S/C8H12O/c1-3-7-5-9-6-8(7)4-2/h5-6H,3-4H2,1-2H3	InChI=1S/C8H12O/c1-3-7-5-9-6-8(7)4-2/h5-6H,3-4H2,1-2H3
