13
gdb 129200	3.68712	1.28368	0.95218	3.0334	80.4	-0.229	-0.0937	0.1353	1134.8087	0.090519	-411.75817	-411.750748	-411.749804	-411.790398	27.719	
N	-0.1659096825	 1.3156305507	 0.0080977704	-0.563611
C	 0.0078872537	 0.0540853235	 0.0011521241	 0.429059
N	-1.1361034675	-0.7661897936	 0.0029473303	-0.219088
N	-1.1569822455	-2.0889577134	-0.0034630241	-0.136806
C	-0.0025892562	-2.6852452386	-0.0122163127	-0.067436
C	 1.2236404605	-1.915498293	-0.0145574038	 0.17095
N	 1.233813474	-0.6133001065	-0.0082423349	-0.362416
C	 2.4637597854	-2.6260653922	-0.0243003475	 0.21093
C	 3.4770813992	-3.2744444134	-0.0325921144	-0.328457
H	 0.7423867542	 1.7756877794	 0.0057541521	 0.229168
H	-2.0354768317	-0.3056994421	 0.0097215272	 0.286557
H	 0.0029777102	-3.7669350547	-0.0175870619	 0.137534
H	 4.3845288563	-3.8276607661	-0.0398618948	 0.213618
94.0446	134.45	142.951	341.4373	410.3623	429.9242	479.1359	561.7412	581.2841	661.5595	664.6237	679.7141	725.0322	727.0808	768.4954	838.5401	868.6608	936.8023	1007.8983	1108.6116	1177.9041	1229.9936	1325.6545	1412.9839	1436.8336	1552.0584	1625.9146	1726.1403	2231.9522	3225.7122	3497.4569	3519.1677	3609.2582
N=C1NN=CC(=N1)C#C	[NH]C1=N[C@@H](C=NN1)C#C	
InChI=1S/C5H4N4/c1-2-4-3-7-9-5(6)8-4/h1,3H,(H2,6,8,9)	InChI=1S/C5H5N4/c1-2-4-3-7-9-5(6)8-4/h1,3-4,6H,(H,8,9)/t4-/m1/s1
