24
gdb 101893	4.35146	0.57169	0.53333	3.7266	88.07	-0.2488	0.0347	0.2836	2127.1513	0.21604	-405.588312	-405.576945	-405.576001	-405.626607	39.938	
C	-0.3438093581	 1.402937516	-0.1089676401	-0.392272
C	-0.1869275216	-0.0994754946	 0.1467266333	-0.167803
C	 0.8085056516	-0.4691230132	 1.2640010157	 0.046404
C	 0.3618270775	 0.06588363	 2.6330654352	-0.392714
C	 1.0237704738	-1.9939523708	 1.2899220639	-0.187242
C	 2.1594454501	-2.4561068297	 2.2112430334	-0.173534
N	 2.3894648773	-3.8908409944	 2.1326155513	-0.27306
C	 2.2132224346	-4.7351816191	 3.1836461515	 0.153677
O	 1.8828065443	-4.4070249628	 4.3037667528	-0.322896
H	 0.6224167159	 1.8686325528	-0.3346352902	 0.112551
H	-1.0056742608	 1.5848884317	-0.9614923448	 0.112934
H	-0.7708091993	 1.9251649518	 0.7522458577	 0.12042
H	-1.1670976217	-0.5356392282	 0.3846693746	 0.094397
H	 0.1401781216	-0.5823787619	-0.7832011416	 0.088989
H	 1.7733591892	-0.0005487998	 1.0138844603	 0.066797
H	 1.0853578758	-0.1679636594	 3.4190356654	 0.121814
H	 0.2418305655	 1.1525419844	 2.6200715503	 0.115737
H	-0.59954273	-0.3730363899	 2.9263461014	 0.116174
H	 0.0951470577	-2.4955042189	 1.592717785	 0.106819
H	 1.2405260161	-2.3369475095	 0.2684388392	 0.080807
H	 3.0852620379	-1.9207056462	 1.9601936196	 0.10505
H	 1.9330761122	-2.2526833153	 3.2591035624	 0.152621
H	 2.6431630615	-4.2927909553	 1.243809163	 0.243469
H	 2.4143493189	-5.7875803278	 2.8987610506	 0.070863
27.4468	49.4683	79.2227	98.4494	130.8797	213.7237	226.8856	250.4147	262.4303	311.934	348.0085	392.9039	434.0502	516.2936	540.2845	740.8933	774.2274	804.3948	833.7888	919.3284	953.9499	982.9669	990.3692	1026.9196	1036.5308	1039.6835	1064.6755	1153.1785	1168.4364	1186.5476	1212.9125	1243.0942	1286.9683	1306.5369	1330.5209	1351.6954	1379.6302	1384.729	1403.4621	1413.7018	1417.8483	1431.6728	1477.1136	1487.5878	1496.7385	1499.8647	1500.2749	1507.9611	1514.5653	1536.8365	1806.7651	2929.6832	2980.8611	3003.3477	3011.4944	3013.4899	3032.3613	3034.4309	3042.6766	3053.1015	3097.6961	3100.4757	3107.0522	3115.3797	3130.7795	3629.1368
CCC(C)CCNC=O	CC[C@@H](C)CCNC=O	
InChI=1S/C7H15NO/c1-3-7(2)4-5-8-6-9/h6-7H,3-5H2,1-2H3,(H,8,9)	InChI=1S/C7H15NO/c1-3-7(2)4-5-8-6-9/h6-7H,3-5H2,1-2H3,(H,8,9)/t7-/m1/s1
