15
gdb 45638	3.50577	1.03573	0.85085	4.5287	72.2	-0.2317	-0.0186	0.2131	1292.2541	0.112997	-416.870578	-416.862402	-416.861458	-416.904229	29.693	
O	 0.0989337289	 0.0419417084	 0.2816004579	-0.3551
C	-0.0152422767	 1.2332634645	 0.1344243353	 0.40891
C	-1.2820138289	 2.0536260352	-0.169614293	-0.381636
C	-0.791076995	 3.4764213525	-0.1750046251	-0.232753
C	 0.5271684663	 3.4752850059	 0.0520374174	 0.38887
C	 1.4794507551	 4.6361052381	 0.0864691362	-0.446855
C	 2.3152042425	 4.6548162622	 1.291294741	 0.257183
N	 2.9830807474	 4.6429118662	 2.2336278791	-0.29634
N	 1.0117126468	 2.1669871569	 0.2104008903	-0.376202
H	-1.703670985	 1.7298712721	-1.1285256096	 0.150823
H	-2.0424212547	 1.8472183173	 0.5919118688	 0.153186
H	-1.3994496841	 4.3508720004	-0.3492269709	 0.112073
H	 2.1484341725	 4.6077430413	-0.7842696843	 0.172446
H	 0.9131522817	 5.5697699822	 0.0252286225	 0.173739
H	 1.9396696031	 1.9232581569	 0.5191455144	 0.271657
49.6776	90.6262	149.5112	244.6085	287.5815	382.9977	413.2166	463.1416	496.4035	552.5135	599.6684	662.6904	722.3411	751.5323	853.8269	936.7912	937.1658	951.2174	981.9883	1004.2282	1147.0607	1185.9557	1195.042	1218.5168	1273.6915	1316.9862	1343.5963	1427.1875	1437.6127	1450.3574	1710.5327	1849.5533	2365.9988	3026.5478	3046.9489	3079.5697	3098.7175	3247.3901	3647.1647
O=C1CC=C(CC#N)N1	O=C1CC=C(CC#N)N1	
InChI=1S/C6H6N2O/c7-4-3-5-1-2-6(9)8-5/h1H,2-3H2,(H,8,9)	InChI=1S/C6H6N2O/c7-4-3-5-1-2-6(9)8-5/h1H,2-3H2,(H,8,9)
