19
gdb 40446	3.99525	1.17935	1.06368	0.9629	75.06	-0.2524	0.0886	0.341	1163.5903	0.160341	-422.992107	-422.984348	-422.983404	-423.024623	29.961	
C	 0.5227003546	 1.4026786919	 0.0798749759	-0.17576
O	 0.9822254367	 0.1585851568	-0.4555350007	-0.234906
C	-0.3283304279	 0.2034160816	 0.1104630809	-0.044961
C	-0.5562405833	-0.591609653	 1.3523659606	 0.328248
C	 0.5926808998	-1.0373046081	 2.2174629737	-0.342378
C	-0.2100326706	-2.0638872398	 1.4571276364	-0.099985
C	-1.3632634775	-2.7028887807	 2.2047747817	-0.095714
O	-2.0345985883	-1.6292314304	 2.8623636761	-0.256389
C	-1.8963179455	-0.4601403453	 2.0641088404	-0.152635
H	 1.0176976797	 1.7237649159	 0.9947859337	 0.116553
H	 0.3353849562	 2.1844773661	-0.6545058272	 0.117091
H	-1.1295477442	 0.1389179552	-0.6295144709	 0.091437
H	 1.5855715083	-0.8278420594	 1.8366726913	 0.12884
H	 0.4778091284	-0.9842172923	 3.2957023199	 0.118677
H	 0.2483869065	-2.5910410293	 0.6289447718	 0.101794
H	-2.0336364957	-3.2210072693	 1.4995256626	 0.091898
H	-1.0624368844	-3.4154913843	 2.9800724803	 0.110789
H	-1.9658248772	 0.4015835427	 2.7365868871	 0.109886
H	-2.7081810353	-0.3825794983	 1.3199426964	 0.087513
73.0458	151.7425	193.859	245.4339	300.0473	350.3487	412.237	479.1489	630.2855	682.1842	729.6321	831.3419	866.295	892.7617	911.0384	925.0221	939.9332	946.4873	1028.1229	1042.6193	1053.0351	1084.2103	1096.2282	1104.9055	1114.8967	1129.1933	1153.5997	1173.5194	1213.3687	1244.5321	1251.1257	1268.8195	1306.5063	1351.998	1371.9576	1409.5332	1444.5709	1480.8113	1509.5551	1521.6805	1523.1905	2952.3878	2972.2617	3063.4204	3067.7183	3079.765	3087.2148	3129.5636	3176.5676	3187.691	3226.3165
C1OC1C12CC1COC2	C1O[C@H]1[C@]12C[C@H]1COC2	
InChI=1S/C7H10O2/c1-5-2-8-4-7(1,5)6-3-9-6/h5-6H,1-4H2	InChI=1S/C7H10O2/c1-5-2-8-4-7(1,5)6-3-9-6/h5-6H,1-4H2/t5-,6+,7-/m0/s1
