18
gdb 109404	2.43916	1.40858	1.06133	4.6853	72.65	-0.2397	-0.0277	0.212	1170.0675	0.146491	-439.05219	-439.043285	-439.04234	-439.085847	33.093	
C	-0.0421592915	 1.5496360544	 0.1352715242	-0.508406
C	 0.0879926135	 0.0630073331	 0.0208531026	 0.311847
N	-0.7687272685	-0.8751884356	 0.757578328	-0.360287
C	 0.7292718434	-0.9243126056	 0.9650381492	-0.25394
C	 1.2150300752	-1.7305905126	-0.2162777555	 0.461061
O	 1.8827369665	-2.7158290467	-0.3656307588	-0.329246
C	 0.5844503456	-0.7255392283	-1.2156408642	-0.180337
C	-0.3711001592	-1.3035737278	-2.2565584718	-0.089987
O	 0.3239552317	-2.1812166216	-3.1264271956	-0.423917
H	 0.8527130257	 2.0523394866	-0.2451465387	 0.135701
H	-0.9005717687	 1.9144346642	-0.4397802129	 0.139781
H	-0.1850334454	 1.8526413024	 1.1781873888	 0.124352
H	-1.1386741391	-0.3855847328	 1.5742548152	 0.235937
H	 1.1480317316	-0.8011964135	 1.9560340997	 0.115752
H	 1.4048213061	-0.1951209244	-1.715427619	 0.108151
H	-1.2077096677	-1.8019792321	-1.7485657276	 0.112296
H	-0.787583735	-0.5100601239	-2.8869213516	 0.104727
H	 0.7930774757	-2.8210526058	-2.5768808919	 0.296514
98.5296	102.1402	141.6675	211.3475	229.05	253.646	351.9765	388.236	416.7343	496.8974	524.0226	588.4164	649.7183	732.6912	783.2524	818.4609	908.5713	951.1113	984.4613	996.7489	1054.0921	1061.9068	1080.7378	1090.2778	1117.6187	1136.3482	1166.5181	1211.3977	1290.2885	1305.932	1334.2989	1375.9443	1407.7235	1431.1273	1444.6206	1481.3552	1497.654	1519.5696	1879.6475	3014.3881	3029.1585	3044.1869	3068.4129	3093.6054	3103.5726	3199.4569	3451.4536	3782.9675
CC12NC1C(=O)C2CO	C[C@]12N[C@H]1C(=O)[C@H]2CO	
InChI=1S/C6H9NO2/c1-6-3(2-8)4(9)5(6)7-6/h3,5,7-8H,2H2,1H3	InChI=1S/C6H9NO2/c1-6-3(2-8)4(9)5(6)7-6/h3,5,7-8H,2H2,1H3/t3-,5+,6-/m1/s1
