18
gdb 38327	3.97204	1.49155	1.25367	1.8923	75.62	-0.2416	0.0251	0.2667	1008.8971	0.150383	-401.911765	-401.905028	-401.904083	-401.942995	27.301	
C	-0.1260196094	 1.5143471764	 0.0764520951	-0.235712
C	 1.4196817996	 1.309455824	 0.095936426	-0.118813
C	 1.1663342532	 0.1518024475	 1.1117703274	-0.234959
C	 0.0824563361	-0.0292638534	 0.0033089934	-0.118806
C	 1.1922143906	 0.2745608567	-1.0357930612	 0.487348
C	 0.8941257098	 0.6736606527	-2.501152125	-0.280249
N	 1.7837002794	-0.1580735378	-3.3279314878	-0.268614
C	 2.4358413916	-0.8663522137	-2.5049108515	 0.096092
O	 2.2172906625	-0.7396135129	-1.1767634897	-0.276719
H	-0.5604994498	 1.8839405238	 1.0072499294	 0.100821
H	-0.564678708	 2.0125060174	-0.7904985357	 0.103707
H	 2.1919972444	 2.0787207223	 0.1345169683	 0.078143
H	 1.9323150097	-0.6184706734	 1.1861647136	 0.117645
H	 0.7938850491	 0.4559411368	 2.0930576029	 0.092697
H	-0.684919348	-0.801421682	-0.0647644697	 0.078145
H	-0.1491547938	 0.4872386713	-2.7791772239	 0.121511
H	 1.0959793256	 1.7333377633	-2.6930774672	 0.121509
H	 3.1894821774	-1.6012032491	-2.7667262346	 0.136256
86.269	219.6027	246.0806	388.1388	431.8352	519.9957	536.5417	591.5239	771.4255	784.4228	802.8951	884.0856	891.5446	901.4226	907.5184	961.6211	986.9591	994.8497	1014.6075	1016.8168	1027.718	1087.9157	1102.7936	1105.1836	1120.6747	1166.7965	1188.7466	1193.7535	1201.6068	1215.4378	1246.5542	1253.2081	1288.2691	1334.0513	1341.4681	1492.4385	1500.5355	1539.7337	1709.5991	3033.7818	3065.6462	3067.5563	3070.8469	3106.0384	3111.8485	3132.161	3155.8755	3212.0736
C1C2CC1C21CN=CO1	C1[C@H]2C[C@@H]1[C@]12CN=CO1	
InChI=1S/C7H9NO/c1-5-2-6(1)7(5)3-8-4-9-7/h4-6H,1-3H2	InChI=1S/C7H9NO/c1-5-2-6(1)7(5)3-8-4-9-7/h4-6H,1-3H2/t5-,6+,7-
