25
gdb 114038	2.59226	1.12664	0.93998	0.2296	93.69	-0.2368	0.0832	0.32	1429.6889	0.228243	-352.3406	-352.330432	-352.329487	-352.375173	39.015	
C	 0.3164965643	 1.5683678651	-0.2427935186	-0.377275
C	 0.3011015294	 0.0362989223	-0.2847149657	-0.20245
C	 0.7481033462	-0.5931385275	 1.0342878021	 0.065235
C	-0.1328843204	-0.4894366599	 2.3268068192	-0.325193
C	 0.029127235	-2.0058246835	 2.5489078901	 0.341476
C	 0.3294744833	-2.6177934512	 3.8884450652	-0.495414
C	-0.5587313558	-2.7767494959	 1.3987474647	-0.033751
C	-1.8611828162	-2.4835118258	 0.6795278657	-0.423052
C	 0.790104077	-2.1178987869	 1.2112530396	-0.163756
H	 1.3194815016	 1.9480961514	-0.0165833427	 0.110815
H	 0.0061099918	 1.9985635635	-1.2001901324	 0.109008
H	-0.3613544104	 1.9514493319	 0.5281088336	 0.116201
H	-0.7002743981	-0.3120699567	-0.5567903827	 0.096597
H	 0.9697784329	-0.3147887726	-1.0823149478	 0.091385
H	 1.7422610142	-0.196153802	 1.2741746971	 0.068023
H	 0.3353379907	 0.1082573154	 3.1128607602	 0.096451
H	-1.1589379926	-0.1279578741	 2.1962414958	 0.090378
H	-0.5454929169	-2.5813190081	 4.5500949925	 0.115822
H	 0.6208738513	-3.6688256468	 3.7884121587	 0.114004
H	 1.1459966995	-2.0912291	 4.3971333889	 0.111602
H	-0.4181146001	-3.8477091754	 1.5493214569	 0.077533
H	-1.8269489562	-2.8295791421	-0.3596744682	 0.114906
H	-2.6897159961	-3.0047103236	 1.1729755203	 0.109795
H	-2.1124940086	-1.4212294501	 0.6656496639	 0.120587
H	 1.6620357139	-2.7247529776	 0.9860014034	 0.071075
85.7101	120.2235	156.443	192.2001	210.727	231.1404	248.6861	269.7261	319.804	339.839	416.4521	468.8667	539.8781	644.1185	701.907	735.3528	777.0851	831.8707	882.5609	923.8184	933.4293	956.856	963.436	1002.9132	1012.808	1054.4844	1062.7578	1074.9487	1118.7138	1124.4248	1143.641	1170.385	1192.2524	1234.3127	1256.2041	1270.686	1290.0105	1303.2114	1340.989	1357.8036	1398.8983	1412.1412	1413.1723	1415.7933	1467.2189	1482.5245	1485.389	1496.1012	1498.9653	1500.4985	1505.5617	1506.5953	1511.176	3013.2611	3018.531	3021.942	3027.7721	3029.6784	3039.7974	3068.274	3073.0831	3082.818	3089.2696	3094.2684	3097.232	3098.4377	3100.5507	3127.1145	3150.1532
CCC1CC2(C)C(C)C12	CC[C@H]1C[C@@]2(C)[C@@H](C)[C@@H]12	
InChI=1S/C9H16/c1-4-7-5-9(3)6(2)8(7)9/h6-8H,4-5H2,1-3H3	InChI=1S/C9H16/c1-4-7-5-9(3)6(2)8(7)9/h6-8H,4-5H2,1-3H3/t6-,7-,8-,9-/m0/s1
