14
gdb 23590	3.73098	1.46256	1.38619	1.5627	63.38	-0.2474	-0.0063	0.2411	929.32	0.102043	-473.746036	-473.739635	-473.738691	-473.776863	25.66	
O	-0.1521230931	 1.3357594385	 0.0099590354	-0.393493
N	 0.0325732204	-0.0589937913	 0.0037235888	-0.289435
C	-1.0754591217	-0.6694425954	 0.0104379663	 0.536839
C	-1.3247349242	-2.12902107	 0.0074318826	-0.287914
C	-2.6586709159	-2.226352771	 0.7670668375	 0.048724
O	-3.0476657607	-0.9164372502	 1.1531123728	-0.248513
C	-2.5381733621	-0.2127298463	 0.0236192291	 0.021549
O	-3.0655844433	-0.9087315059	-1.1024207627	-0.248513
C	-2.6705754266	-2.2212319626	-0.7315636134	 0.048724
H	 0.7548340832	 1.6605153871	 0.0038639062	 0.310555
H	-0.5618024148	-2.8911733	-0.0012321808	 0.117959
H	-2.9606065261	-3.0195300845	 1.4336849898	 0.128019
H	-2.8012594196	 0.8373657657	 0.0292962328	 0.127481
H	-2.9831053155	-3.009853234	-1.3987043445	 0.128018
131.5628	202.4329	295.4231	414.5746	484.4716	556.7243	587.7999	713.4645	715.9728	734.1889	784.8092	800.7513	810.0748	877.819	889.9128	962.2194	971.7985	995.1938	1001.7882	1034.95	1040.0436	1077.0848	1092.3228	1176.0445	1228.2214	1248.3735	1266.2424	1327.3469	1361.567	1417.9354	1803.7096	3227.5795	3239.9125	3245.5755	3255.2316	3818.4317
ON=C1C2C3OC1OC23	ON=C1[C@H]2[C@H]3O[C@@H]1O[C@@H]23	
InChI=1S/C5H5NO3/c7-6-2-1-3-4(1)9-5(2)8-3/h1,3-5,7H	InChI=1S/C5H5NO3/c7-6-2-1-3-4(1)9-5(2)8-3/h1,3-5,7H/t1-,3+,4-,5+
