19
gdb 78518	2.46176	1.75007	1.18897	1.261	75.82	-0.2494	0.0695	0.3189	1068.8923	0.157785	-422.951764	-422.943341	-422.942397	-422.983954	33.668	
C	-0.2107424167	 1.5944622838	-0.0190433211	-0.433339
C	-0.0378460345	 0.0828490374	-0.0118379675	-0.001262
C	 1.2056068311	-0.5586113268	-0.6759266025	-0.169733
C	 2.1292070502	-0.2852362938	 0.5493180435	 0.407603
O	 2.8819042889	 0.8659073589	 0.6828613288	-0.47367
C	 2.6067192317	-1.7513847693	 0.6615756368	-0.398328
C	 1.1150647694	-1.8186616125	 0.272976228	 0.415964
O	 0.3030765705	-2.9235481161	 0.1225189286	-0.478509
C	 0.7059515912	-0.6057052403	 1.1596264043	-0.168116
H	 0.7193893354	 2.103674687	 0.2450958701	 0.131985
H	-0.5217086495	 1.9461812002	-1.0094588761	 0.109459
H	-0.9853461615	 1.9010651905	 0.6934912485	 0.107891
H	-0.9734741984	-0.4220854039	-0.2782727362	 0.071689
H	 1.5230680432	-0.5585249172	-1.7211170994	 0.06449
H	 3.2496705722	 0.8864484504	 1.5731527593	 0.285093
H	 3.3348678278	-2.0857352011	-0.0857372713	 0.08945
H	 2.8694071745	-2.1158450024	 1.660980854	 0.089271
H	 0.6355778689	-3.4485439728	-0.6134992317	 0.285319
H	 0.4512378156	-0.656304822	 2.2205374737	 0.064742
178.356	217.7845	225.9967	240.5847	252.6004	290.8307	322.1908	386.8315	432.8332	468.8199	553.5948	606.383	685.1466	691.2059	756.4567	847.3458	850.8934	914.1918	947.2213	992.9812	1031.6366	1034.7324	1068.1182	1078.0802	1083.1324	1089.4914	1133.31	1149.5907	1165.0859	1174.3681	1233.4479	1267.3907	1283.1696	1308.7286	1366.2627	1393.5327	1412.8397	1418.2474	1497.3379	1504.7858	1519.8811	3027.3286	3028.4522	3041.0363	3083.6714	3087.7681	3089.8836	3094.1063	3123.9674	3802.8022	3805.0929
CC1C2C3(O)CC2(O)C13	C[C@H]1[C@H]2[C@]3(O)C[C@@]2(O)[C@H]13	
InChI=1S/C7H10O2/c1-3-4-6(8)2-7(4,9)5(3)6/h3-5,8-9H,2H2,1H3	InChI=1S/C7H10O2/c1-3-4-6(8)2-7(4,9)5(3)6/h3-5,8-9H,2H2,1H3/t3-,4-,5+,6+,7-
