24
gdb 101331	3.34959	0.80653	0.72807	1.2976	87.21	-0.2246	0.07	0.2946	1703.0061	0.215204	-405.521519	-405.510536	-405.509592	-405.557937	40.009	
C	 0.9851359893	 1.5085797755	-3.0155192021	-0.383582
C	 0.7205834629	 0.0169017274	-2.8004639138	-0.186715
C	 0.7393214495	-0.3908741363	-1.3203175411	 0.116105
O	-0.2017091103	 0.3650751228	-0.5528136489	-0.433931
C	 0.4949288605	-1.8789903207	-1.1608813537	-0.013529
C	 1.6222913983	-2.8524668199	-1.0673854856	-0.262929
N	 0.7546906433	-2.6072813163	 0.076928771	-0.087521
C	 1.3172236476	-1.9098483345	 1.2331278307	-0.107261
C	 1.7678514317	-2.9215095471	 2.2836347877	-0.379658
H	 0.2676053667	 2.1105269158	-2.4522618757	 0.129324
H	 1.9890449842	 1.783580563	-2.6733018486	 0.113404
H	 0.9082838806	 1.7759077048	-4.0736118222	 0.108958
H	-0.257213108	-0.2549764419	-3.2244351823	 0.086204
H	 1.4632513566	-0.5853823522	-3.3381787824	 0.101082
H	 1.7120596134	-0.1225316183	-0.8943550325	 0.084871
H	-1.0855356031	 0.0924437057	-0.8253632747	 0.277442
H	-0.4189964816	-2.2108015117	-1.6606320792	 0.077508
H	 1.5542888764	-3.8332078395	-1.5313396603	 0.11217
H	 2.6298233685	-2.435028062	-1.0388691114	 0.103023
H	 2.1671993699	-1.2602573427	 0.9658008402	 0.080922
H	 0.5367531684	-1.2561780728	 1.6352022434	 0.116168
H	 0.9315682566	-3.5560969326	 2.5899223192	 0.124279
H	 2.5561245914	-3.5713294422	 1.8888988553	 0.114549
H	 2.1619239476	-2.4102354143	 3.1675988369	 0.109118
59.8012	84.0649	95.922	113.9205	190.8148	221.2899	233.5455	252.4265	294.8245	301.9406	349.7833	411.0626	453.5567	513.4546	599.1992	736.9079	777.88	809.7408	852.2112	897.1202	928.2874	970.6486	982.2431	1041.8686	1050.7195	1080.9793	1092.2019	1110.428	1113.958	1129.3767	1142.1568	1179.9113	1198.275	1252.2497	1276.3136	1308.0165	1323.9159	1338.7172	1378.1292	1389.6934	1404.0363	1410.6259	1414.5388	1433.587	1480.805	1488.8682	1489.8508	1494.7163	1505.0681	1509.3479	1518.0895	2960.0784	3003.6833	3037.0088	3037.3871	3048.6651	3056.9835	3071.291	3074.3311	3077.6538	3101.7671	3106.5401	3118.6257	3123.93	3166.5289	3792.1695
CCC(O)C1CN1CC	CC[C@@H](O)[C@H]1CN1CC	
InChI=1S/C7H15NO/c1-3-7(9)6-5-8(6)4-2/h6-7,9H,3-5H2,1-2H3	InChI=1S/C7H15NO/c1-3-7(9)6-5-8(6)4-2/h6-7,9H,3-5H2,1-2H3/t6-,7-,8?/m1/s1
