17
gdb 18246	4.71476	1.48256	1.23107	2.3452	69.99	-0.2136	0.0218	0.2354	984.9166	0.142966	-363.832034	-363.824636	-363.823692	-363.86381	27.879	
O	 0.0077115629	 1.4013332259	 0.0159268688	-0.412802
C	-0.0166744202	-0.0136534852	-0.0006999333	-0.188548
C	-1.4303004688	-0.4919650783	 0.022214473	 0.334598
C	-2.5477231897	 0.2364768217	 0.0093720193	-0.190406
C	-3.7658201678	-0.656163058	 0.0802579867	-0.206275
N	-3.2550952194	-2.0484803983	 0.0808578558	-0.099809
C	-2.5429362004	-2.4332374802	-1.1407007056	-0.233675
C	-1.7773906044	-1.9458591424	 0.0430776222	-0.135992
H	 0.9259514059	 1.6848061924	-0.0048467621	 0.290561
H	 0.489303374	-0.4152737115	-0.8968022129	 0.099747
H	 0.5197481482	-0.4373655794	 0.867483398	 0.097304
H	-2.5888413135	 1.3157400544	-0.0547942627	 0.112089
H	-4.3432917309	-0.4890272317	 0.9997546354	 0.11272
H	-4.4596453532	-0.5083756769	-0.7575680091	 0.111049
H	-2.5888678484	-3.495100191	-1.3692641264	 0.112204
H	-2.5868568362	-1.7707054676	-2.0032744706	 0.109025
H	-1.2072737582	-2.6375202438	 0.6599146037	 0.088209
79.6691	179.6476	201.1532	243.8262	294.9454	398.2194	407.8173	572.5988	649.1529	724.7395	767.6494	819.2727	833.9672	890.6367	947.5709	990.0599	1027.1325	1032.0631	1056.6754	1082.1462	1091.9269	1110.612	1152.1557	1180.1886	1209.5122	1217.2818	1248.9213	1262.9656	1290.0745	1334.0726	1374.8965	1469.2169	1487.0899	1500.1952	1507.8218	1717.0275	2938.8298	2950.9437	3007.9007	3039.1646	3091.6061	3126.4173	3181.0804	3227.0062	3838.7761
OCC1=CCN2CC12	OCC1=CCN2C[C@@H]12	
InChI=1S/C6H9NO/c8-4-5-1-2-7-3-6(5)7/h1,6,8H,2-4H2	InChI=1S/C6H9NO/c8-4-5-1-2-7-3-6(5)7/h1,6,8H,2-4H2/t6-,7?/m0/s1
