20
gdb 109470	1.93444	1.81916	1.02531	3.4474	82.2	-0.2024	0.0066	0.209	1208.0343	0.170376	-403.211334	-403.201968	-403.201024	-403.245691	34.587	
C	-0.0491100779	 1.575389383	 0.02516292	-0.381183
C	 0.0103658164	 0.0452422223	-0.0266573415	-0.159708
N	 0.7303824596	-0.4657178255	-1.181270842	-0.130162
C	 0.0905071803	-0.7128214016	-2.3859877677	 0.400293
O	-1.0961246425	-0.5642319698	-2.5878407794	-0.392858
C	 1.1763338168	-1.1931149416	-3.3554787783	-0.391031
C	 2.4253897198	-1.1486560585	-2.5216459851	-0.224757
C	 2.1181689395	-0.7273988901	-1.2871474799	 0.360239
C	 3.0172192854	-0.5451488513	-0.1104189048	-0.502782
H	 0.9513059181	 2.0155320315	 0.0822516596	 0.117367
H	-0.546237091	 1.9637365152	-0.8675836837	 0.144408
H	-0.6153167583	 1.9022623684	 0.9031868708	 0.11837
H	 0.4683124665	-0.3556850674	 0.8824284871	 0.10754
H	-1.0039016434	-0.3575099891	-0.0957397732	 0.140313
H	 0.9201062744	-2.1941087917	-3.722760513	 0.141462
H	 1.1975820603	-0.5362917764	-4.2331942256	 0.140933
H	 3.4140518219	-1.421469654	-2.8585802884	 0.098158
H	 4.0459462257	-0.7771818303	-0.3935130506	 0.13764
H	 2.9907402924	 0.4821559272	 0.2706472799	 0.137326
H	 2.7375180462	-1.2049485302	 0.719431306	 0.138432
62.021	91.4589	146.8311	195.3295	211.1143	245.5667	292.5964	326.8776	396.4538	521.8668	526.4949	569.2592	621.7571	693.3761	709.8681	711.5959	780.2176	938.5889	950.4709	968.3701	988.2346	1031.9621	1067.154	1085.6006	1113.784	1144.2428	1167.0171	1251.1878	1253.4075	1296.7766	1371.5953	1385.9832	1405.6847	1414.6557	1425.8976	1438.32	1472.2975	1477.579	1490.7722	1493.7808	1503.2956	1706.4635	1809.7646	3028.874	3039.8943	3040.271	3057.8773	3070.0488	3078.853	3098.8471	3113.0695	3128.5005	3130.3789	3244.199
CCN1C(=O)CC=C1C	CCN1C(=O)CC=C1C	
InChI=1S/C7H11NO/c1-3-8-6(2)4-5-7(8)9/h4H,3,5H2,1-2H3	InChI=1S/C7H11NO/c1-3-8-6(2)4-5-7(8)9/h4H,3,5H2,1-2H3
