17
gdb 54633	3.89065	1.12805	0.94122	2.982	75.43	-0.2458	-0.0605	0.1853	1228.2676	0.134983	-421.835781	-421.827647	-421.826702	-421.869069	30.308	
C	-0.1942050276	 1.4820191496	-0.0071957572	-0.490477
C	-0.1118087153	-0.0331531864	 0.02639974	 0.302805
O	-0.1243798896	-0.6474902543	 1.0744968035	-0.306787
C	-0.0062136356	-0.7416433941	-1.279600547	 0.212495
C	-0.0060494219	-2.0810771859	-1.3887130132	-0.150512
C	 0.0234514683	-2.4939814725	-2.8177587259	-0.005049
O	-1.1266304696	-2.0158095656	-3.5561671827	-0.250244
C	 0.0734781659	-1.2490083847	-3.6111043212	 0.042807
C	 0.0998771195	-0.0713179733	-2.6445384669	-0.367563
H	 0.669329347	 1.9072464383	-0.5312191899	 0.136695
H	-1.0875027948	 1.8045072149	-0.5546047564	 0.141879
H	-0.2323289014	 1.8665031172	 1.012175477	 0.142756
H	-0.0503405025	-2.7595544662	-0.546763377	 0.133577
H	 0.4178426351	-3.450077791	-3.1457184542	 0.1048
H	 0.5442176312	-1.1826183679	-4.5880909737	 0.103121
H	-0.726678883	 0.6213203744	-2.8403789574	 0.131332
H	 1.0299745542	 0.5016932274	-2.7477124278	 0.118366
54.293	132.6486	143.6413	190.2188	341.0561	345.4077	399.8732	466.3929	521.4079	600.8739	625.951	716.9291	826.7316	840.3814	849.7368	903.6688	937.7029	955.4691	980.8775	1005.4403	1023.1628	1049.0909	1070.6515	1107.4819	1189.5135	1243.8707	1252.8675	1272.1922	1311.0986	1348.1585	1381.2975	1402.7134	1455.1143	1465.384	1474.4835	1648.9724	1774.479	3029.8155	3034.8655	3070.6347	3093.509	3152.3177	3155.6599	3175.1422	3229.3289
CC(=O)C1=CC2OC2C1	CC(=O)C1=C[C@H]2O[C@H]2C1	
InChI=1S/C7H8O2/c1-4(8)5-2-6-7(3-5)9-6/h2,6-7H,3H2,1H3	InChI=1S/C7H8O2/c1-4(8)5-2-6-7(3-5)9-6/h2,6-7H,3H2,1H3/t6-,7+/m1/s1
