15
gdb 71187	2.66022	1.68996	1.37826	3.7674	68.41	-0.2539	0.003	0.2568	946.3267	0.112749	-416.744996	-416.737597	-416.736652	-416.776812	28.376	
O	-0.0693456809	 1.4355473371	 0.009599602	-0.470408
C	-0.0356374414	 0.0621073294	-0.0053390574	 0.356323
C	 0.5100737461	-0.7669848793	-1.2009028714	-0.332448
C	-0.4669019977	-1.8419940519	-0.732939077	-0.023184
C	-1.3081081051	-0.8716929028	 0.0009627866	-0.105492
N	-0.5189232856	-1.870164306	 0.778861803	-0.146456
C	 0.4112273317	-0.7778151141	 1.2301067001	-0.148359
C	 1.8196764349	-1.1181844586	 1.4018239916	 0.277723
N	 2.9465745246	-1.3570386798	 1.5033389184	-0.326945
H	 0.7726031832	 1.778785722	-0.3107829678	 0.298936
H	 0.178231144	-0.332482858	-2.1470585285	 0.122106
H	 1.5807186787	-0.9894495716	-1.2304173873	 0.129112
H	-0.7463794995	-2.7643574481	-1.2229786419	 0.115768
H	-2.3705033791	-0.7066082598	 0.1117251066	 0.117475
H	 0.0112852561	-0.3582811384	 2.156381603	 0.135848
128.3692	148.7803	165.333	311.5356	349.0655	409.6354	426.3497	546.5223	576.8056	651.1076	740.9498	743.9586	827.573	847.3972	902.5975	943.7806	959.8749	973.5794	1019.1536	1021.8377	1042.5433	1093.2983	1144.7371	1163.1147	1174.8218	1209.2907	1239.0309	1279.8477	1340.3192	1355.863	1393.8616	1497.6596	2348.2164	3058.1972	3092.0027	3121.1252	3212.5912	3226.8344	3803.557
OC12CC3C1N3C2C#N	O[C@]12C[C@@H]3[C@H]1N3[C@H]2C#N	
InChI=1S/C6H6N2O/c7-2-4-6(9)1-3-5(6)8(3)4/h3-5,9H,1H2	InChI=1S/C6H6N2O/c7-2-4-6(9)1-3-5(6)8(3)4/h3-5,9H,1H2/t3-,4+,5-,6+,8?/m1/s1
