19
gdb 51089	3.79276	1.07573	1.03253	3.3575	75.67	-0.2388	-0.0194	0.2194	1217.0182	0.159334	-423.016059	-423.008051	-423.007107	-423.049535	30.543	
O	-0.4878749879	 0.7465726556	 0.8417290255	-0.244334
C	 0.0650924235	 1.0362683212	-0.1884648088	 0.158479
C	 1.4048631721	 1.7448568529	-0.2654902683	-0.392296
C	 1.3783018418	 2.9329451073	-1.1992822454	 0.439966
C	 0.4701920062	 4.1834903026	-1.0328476193	-0.268781
C	 1.4289523493	 4.720801566	-2.1401477948	-0.074315
C	 2.5561511344	 3.9205699721	-1.4134346957	-0.276587
C	 1.0974952304	 3.7474266001	-3.2763831315	-0.076095
O	 1.0802800208	 2.4988422029	-2.5453107355	-0.318067
H	-0.3811812304	 0.7924576196	-1.1755534321	 0.098917
H	 1.7045800163	 2.0432246181	 0.7422307985	 0.121262
H	 2.1404004725	 1.0242106989	-0.6505114396	 0.130975
H	-0.5900627472	 4.0685477404	-1.2722322375	 0.103572
H	 0.6027422867	 4.6870771793	-0.0741241745	 0.107717
H	 1.5186961154	 5.7780186761	-2.384105833	 0.077785
H	 2.8907802945	 4.4016714129	-0.4930190156	 0.104837
H	 3.4040497829	 3.560287816	-2.0016477389	 0.100498
H	 0.1191482959	 3.9271968227	-3.7367459088	 0.10336
H	 1.8616504128	 3.7106355454	-4.0612324948	 0.103107
48.7059	74.5957	153.0829	281.1374	339.2936	380.298	451.4304	490.9079	520.4484	643.4413	669.3789	814.8957	825.3299	862.4861	877.2311	910.712	930.3951	958.2287	964.5746	987.4024	1016.3796	1048.7845	1072.972	1095.8326	1115.647	1150.6202	1153.9069	1190.3793	1212.4525	1243.8032	1252.3159	1292.2413	1296.4981	1345.1098	1370.0636	1421.7832	1448.0056	1475.0801	1506.3962	1532.3852	1830.8597	2917.2642	3020.7475	3026.541	3063.2924	3068.8327	3070.0878	3110.0669	3133.1316	3133.5775	3140.5251
O=CCC12CC(C1)CO2	O=CC[C@@]12C[C@@H](C1)CO2	
InChI=1S/C7H10O2/c8-2-1-7-3-6(4-7)5-9-7/h2,6H,1,3-5H2	InChI=1S/C7H10O2/c8-2-1-7-3-6(4-7)5-9-7/h2,6H,1,3-5H2/t6-,7+
