18
gdb 99316	5.70448	0.64861	0.60741	2.2207	69.91	-0.2475	0.012	0.2595	1807.0287	0.146018	-476.218575	-476.208645	-476.2077	-476.255816	33.566	
N	-0.2669019419	 1.2933850533	-0.1588349624	-0.48546
C	-0.0930150201	-0.1170105462	 0.1357789375	-0.273347
C	 0.9655383325	-0.4348586401	 1.1887335028	 0.422178
O	 1.6440546408	 0.3828994249	 1.7580095148	-0.358577
O	 1.0483350242	-1.762855935	 1.4031020597	-0.244386
C	 2.0133403727	-2.1790520719	 2.3862948987	-0.086292
C	 1.9959774226	-3.6781225126	 2.4325622172	 0.075581
C	 2.3580212547	-4.395381526	 3.6607236361	-0.180451
O	 0.9962202785	-4.2853741567	 3.2505645528	-0.225141
H	-0.5099999897	 1.7832694401	 0.6978832141	 0.236328
H	 0.6286822409	 1.6867220357	-0.4351604316	 0.235904
H	-1.0421269877	-0.5501826807	 0.4719917382	 0.14315
H	 0.1702120213	-0.6615075199	-0.7788681824	 0.138799
H	 3.002468824	-1.8027881355	 2.103366664	 0.126395
H	 1.7515657433	-1.7576972627	 3.3612738327	 0.128843
H	 2.1538231788	-4.1730809377	 1.474030688	 0.104685
H	 2.7952512409	-5.3899185981	 3.590720419	 0.122017
H	 2.624195564	-3.833851551	 4.5555991507	 0.119772
27.3666	48.116	61.0541	112.2548	155.5575	222.4929	240.5279	288.364	346.7455	435.9336	512.7992	576.6595	694.4376	800.8211	867.3817	906.0483	920.6976	944.8195	954.7634	995.5205	1016.5594	1101.015	1151.6977	1154.1496	1162.7175	1173.9434	1179.8419	1215.6558	1267.1571	1292.6171	1359.0527	1383.5418	1388.6265	1455.2838	1458.4358	1490.4167	1532.8505	1678.2379	1819.4496	3043.1036	3049.3085	3079.1554	3085.0844	3098.4631	3118.1655	3172.2544	3493.8926	3561.3164
NCC(=O)OCC1CO1	NCC(=O)OC[C@H]1CO1	
InChI=1S/C5H9NO3/c6-1-5(7)9-3-4-2-8-4/h4H,1-3,6H2	InChI=1S/C5H9NO3/c6-1-5(7)9-3-4-2-8-4/h4H,1-3,6H2/t4-/m1/s1
