13
gdb 132785	2.38296	1.82694	1.03479	4.5639	64.53	-0.2361	-0.0101	0.226	1026.763	0.089644	-502.054897	-502.04769	-502.046745	-502.086426	27.746	
N	-0.0274885225	 1.3984425101	 0.1616578168	-0.592885
C	 0.0231987073	 0.027890442	 0.0593077958	 0.248586
C	-1.1581113953	-0.7158490463	 0.0346640228	 0.046582
F	-2.3352337765	-0.0721165235	 0.0518176598	-0.076523
C	-1.094001364	-2.1007011733	-0.0172985642	 0.241593
F	-2.2383839276	-2.7751490779	-0.0430620018	-0.056774
N	 0.0204630786	-2.7920268219	-0.0468913112	-0.343844
C	 1.1613722547	-2.0877718818	-0.0268891564	 0.005752
C	 1.2215200909	-0.7062533956	 0.0244582337	-0.214818
H	 0.7820147024	 1.9093752148	-0.1515026039	 0.261376
H	-0.908728161	 1.826653601	-0.075299791	 0.266665
H	 2.0779032238	-2.6701528547	-0.0541078999	 0.117252
H	 2.1768326993	-0.1934651429	 0.0421749296	 0.097038
146.0992	246.0257	280.6364	306.4731	312.9883	390.9559	485.5916	511.4724	539.1501	557.0866	568.7628	648.9726	722.2312	758.4582	830.952	849.4369	967.5644	1030.3589	1108.3454	1145.5972	1263.5146	1317.5351	1353.6893	1381.6906	1500.0655	1542.1252	1628.1141	1635.4709	1667.1749	3167.3891	3192.6624	3591.1094	3701.493
NC1=C(F)C(F)=NC=C1	Nc1c(F)c(F)ncc1	
InChI=1S/C5H4F2N2/c6-4-3(8)1-2-9-5(4)7/h1-2H,(H2,8,9)	InChI=1S/C5H4F2N2/c6-4-3(8)1-2-9-5(4)7/h1-2H,(H2,8,9)
