22
gdb 6602	4.79503	1.28701	1.24006	0.0175	83.23	-0.2839	0.0915	0.3754	1119.1476	0.200188	-313.039774	-313.031296	-313.030352	-313.072311	33.022	
C	 0.0264566077	 1.5241176603	 0.0093241803	-0.379326
C	-0.0629856936	-0.0064130115	 0.0031652937	-0.307315
C	-1.4791780578	-0.5266794139	 0.0135326322	 0.365571
C	-2.5958472903	-0.2781234994	-1.0492362341	-0.287203
C	-3.2528762454	-1.1954547988	 0.0264596923	 0.338985
C	-4.661399542	-1.7259646395	 0.0367171118	-0.508436
C	-1.9288665229	-2.0189337196	 0.0118676142	-0.301659
C	-2.5771831368	-0.2861473971	 1.0974026171	-0.287207
H	 1.0683327693	 1.8583547441	 0.0013394486	 0.110222
H	-0.4691618679	 1.9524271428	-0.8681759577	 0.117618
H	-0.4530321388	 1.9443490216	 0.8995965109	 0.117629
H	 0.4543313036	-0.4022621417	-0.8810267037	 0.094909
H	 0.4701251977	-0.4102413884	 0.8742704898	 0.094908
H	-2.9880708736	 0.7409824361	-1.1273219033	 0.081907
H	-2.4371875771	-0.7196696096	-2.0388780922	 0.080208
H	-4.859051213	-2.3399978939	-0.8491291865	 0.115664
H	-4.8435215323	-2.3470142104	 0.9209990659	 0.115664
H	-5.3915127904	-0.9087887174	 0.0463596714	 0.115504
H	-1.7181519212	-2.5934471521	-0.8963940145	 0.080119
H	-1.7024057685	-2.6001927764	 0.9120132681	 0.080118
H	-2.4013787861	-0.7350706281	 2.0808084749	 0.080208
H	-2.9679071207	 0.7323263528	 1.189905461	 0.081911
83.7601	149.0404	184.2961	202.6786	259.8669	288.2313	368.7168	412.601	544.9106	544.9697	592.2556	640.0135	748.1793	782.7482	804.6142	923.4349	936.3203	945.1556	961.1601	974.1095	994.0787	1043.4707	1055.2853	1091.7072	1096.2317	1109.882	1145.9508	1146.4625	1172.3991	1188.2975	1211.4936	1215.7576	1307.869	1308.169	1337.638	1381.2186	1409.8301	1411.7295	1480.1814	1489.353	1489.828	1496.6139	1496.6301	1498.9707	1507.02	1560.861	3012.1761	3022.8071	3027.2355	3028.3247	3034.3647	3040.677	3043.2809	3088.877	3089.3859	3090.006	3096.0992	3096.4401	3103.1916	3105.6727
CCC12CC(C)(C1)C2	CC[C@@]12C[C@@](C)(C1)C2	
InChI=1S/C8H14/c1-3-8-4-7(2,5-8)6-8/h3-6H2,1-2H3	InChI=1S/C8H14/c1-3-8-4-7(2,5-8)6-8/h3-6H2,1-2H3/t7-,8+
