14
gdb 34449	3.06665	1.817	1.31259	5.2376	65.68	-0.2653	0.0027	0.268	915.7767	0.101545	-436.617398	-436.610879	-436.609935	-436.648307	25.616	
N	-0.0291938831	-1.1310563984	 0.0542245027	-0.324709
C	-0.0261566715	 0.0235928056	 0.0532621193	 0.229861
C	-0.0082246572	 1.4698469411	 0.0374374433	 0.362424
O	-0.8649848257	 2.0509302207	 0.9795158558	-0.320446
C	-0.6627466756	 3.4711375007	 0.7612411294	-0.123418
C	 0.3586192501	 3.4600101749	-0.3600387316	-0.107629
C	 1.3361921407	 2.2720559025	-0.0982593432	-0.009389
O	 1.4129202163	 1.9599852234	-1.5213897111	-0.300971
C	 0.0039245231	 2.2752501306	-1.3118528889	-0.009392
H	-1.6151436934	 3.9346521907	 0.4835290659	 0.127744
H	-0.2964226827	 3.9314887342	 1.6847743328	 0.127745
H	 0.7422428498	 4.3871564864	-0.7787401624	 0.109761
H	 2.2420707315	 2.2158463083	 0.5028333232	 0.119212
H	-0.6789785024	 2.2228485792	-2.1580122352	 0.119207
152.2885	160.1424	302.3039	405.5471	415.1268	521.6841	533.3147	614.4012	703.9289	723.4396	761.4363	822.7898	900.2842	918.0629	925.9704	951.2837	1006.9892	1008.9629	1059.8037	1079.794	1140.4427	1149.87	1161.7038	1209.6906	1219.0315	1265.8891	1295.4979	1315.2651	1371.719	1520.3506	2372.629	3043.9092	3088.0302	3141.5735	3143.9215	3165.8933
N#CC12OCC3C1OC23	N#C[C@@]12OC[C@H]3[C@@H]1O[C@@H]23	
InChI=1S/C6H5NO2/c7-2-6-4-3(1-8-6)5(6)9-4/h3-5H,1H2	InChI=1S/C6H5NO2/c7-2-6-4-3(1-8-6)5(6)9-4/h3-5H,1H2/t3-,4-,5+,6+
