19
gdb 38057	3.14825	1.70317	1.59709	1.9907	78.02	-0.2312	-0.0035	0.2277	932.4766	0.161647	-385.824072	-385.817334	-385.81639	-385.854956	28.602	
C	-0.0632018421	 1.5605307688	 0.0075201378	-0.19423
C	 1.4224697094	 2.1213798452	 0.0693458022	-0.283282
C	 2.1566708742	 0.8795257335	 0.5542569228	 0.028639
C	 3.3586468961	-0.0446912586	 0.1311393565	-0.072797
O	 2.4452871576	-1.1825731885	 0.4004691538	-0.359302
C	 1.4544698581	-0.2491661539	-0.1971579608	 0.435941
C	-0.0190528681	-0.0270230811	 0.0449041346	-0.362785
C	 2.0187161487	-0.1250063483	-1.630014441	-0.148001
C	 3.323666466	 0.0194510957	-1.4003916519	-0.06431
H	-0.6499840321	 1.9327367596	 0.8510246444	 0.110448
H	-0.5616667919	 1.9108644106	-0.8999524315	 0.107666
H	 1.7497817168	 2.4250860823	-0.927840111	 0.107459
H	 1.4997307664	 2.9847415595	 0.7341511659	 0.095343
H	 2.0002839898	 0.7394512146	 1.6291180057	 0.086267
H	 4.3044371985	-0.1055390178	 0.6674785614	 0.078017
H	-0.3122480161	-0.3998748057	 1.0295844466	 0.117674
H	-0.6823811655	-0.473114083	-0.700725534	 0.10084
H	 1.454923826	-0.1585076628	-2.5513823056	 0.106121
H	 4.1602483582	 0.1408806301	-2.072372216	 0.110292
100.3519	267.335	291.3611	365.5804	507.0979	562.8546	575.7008	635.8293	686.26	711.2904	750.6186	763.8067	804.5723	828.5966	843.548	880.7258	901.9828	904.4939	932.6599	948.2985	974.27	1016.1407	1049.887	1066.1034	1126.5169	1143.5503	1178.4729	1215.0003	1220.4138	1244.5266	1257.4291	1268.0445	1272.4355	1300.0459	1315.2688	1354.6132	1395.0219	1481.0537	1492.966	1505.5677	1621.8455	3054.6176	3058.0326	3064.3722	3071.8597	3094.6023	3110.9754	3123.4874	3135.4041	3224.8855	3254.5043
C1CC2C3OC2(C1)C=C3	C1C[C@@H]2[C@H]3O[C@]2(C1)C=C3	
InChI=1S/C8H10O/c1-2-6-7-3-5-8(6,4-1)9-7/h3,5-7H,1-2,4H2	InChI=1S/C8H10O/c1-2-6-7-3-5-8(6,4-1)9-7/h3,5-7H,1-2,4H2/t6-,7+,8-/m1/s1
