21
gdb 119420	3.27773	0.93322	0.84628	1.9345	79.95	-0.2256	0.0732	0.2988	1475.0747	0.180568	-424.185515	-424.175874	-424.174929	-424.220361	35.931	
C	 0.018022032	 1.531886184	 0.058930254	-0.384807
C	-0.0493609355	 0.0069851079	 0.1676200862	-0.160168
C	-1.4472391573	-0.5498388472	-0.1453051004	-0.295049
C	-1.506851694	-2.0415599796	-0.0768467909	 0.435182
C	-1.6544231186	-2.8916407229	 1.1671942833	-0.401683
C	-2.6012921055	-3.0763233839	-0.0021491396	 0.237776
O	-3.9696313837	-2.9123225665	 0.0744940228	-0.455925
C	-1.8660204954	-3.7730413852	-1.1427599911	-0.136495
O	-0.7925179582	-2.7949014257	-1.0740873786	-0.327451
H	 1.0228466494	 1.9027904776	 0.2835593143	 0.111885
H	-0.2432635105	 1.8691853856	-0.9502926058	 0.115701
H	-0.6779365162	 2.0114078461	 0.7568140456	 0.111593
H	 0.6732650612	-0.4484756066	-0.519276548	 0.117079
H	 0.2437759659	-0.3089353745	 1.1764987201	 0.097112
H	-2.1829987442	-0.1401345993	 0.5577793935	 0.105078
H	-1.7551004403	-0.2296219425	-1.148975851	 0.106788
H	-0.9056572298	-3.6397140777	 1.4159592506	 0.109344
H	-2.1048669727	-2.3763831229	 2.0109381006	 0.114321
H	-4.3191108478	-3.5528739304	 0.7037631569	 0.289301
H	-1.508976342	-4.7984817776	-0.9881061075	 0.098206
H	-2.4012021268	-3.6989972985	-2.096461355	 0.112212
64.4566	88.3486	97.0585	215.4926	241.283	253.1828	295.2612	313.4789	377.2617	379.3788	452.982	545.4124	624.29	732.4557	751.2528	803.4037	862.2485	876.2841	901.916	924.4426	973.2253	989.9712	1006.1723	1043.8161	1056.8832	1063.8271	1121.5373	1143.4427	1170.925	1208.6144	1259.8929	1277.6032	1298.0566	1318.0617	1338.4377	1355.0506	1394.5348	1412.1415	1422.5187	1470.4992	1492.8177	1499.1014	1501.1312	1509.5406	1528.4191	3019.5822	3020.6483	3027.7029	3032.9765	3053.6045	3073.066	3074.3955	3097.3899	3102.1419	3106.3804	3203.2785	3792.7653
CCCC12CC1(O)CO2	CCC[C@@]12C[C@]1(O)CO2	
InChI=1S/C7H12O2/c1-2-3-7-4-6(7,8)5-9-7/h8H,2-5H2,1H3	InChI=1S/C7H12O2/c1-2-3-7-4-6(7,8)5-9-7/h8H,2-5H2,1H3/t6-,7+/m0/s1
