12
gdb 130877	2.70215	1.32981	0.89121	1.9477	64.17	-0.2804	-0.0944	0.186	1166.743	0.076305	-472.621677	-472.614046	-472.613102	-472.654763	26.002	
O	-0.0259552297	-0.0191194029	-0.0018779364	-0.259462
C	-0.0086533933	 1.1897675504	 0.007342847	 0.069488
C	 1.2314045333	 1.9773921089	-0.0002934557	-0.034619
C	 2.5024428972	 1.4750724392	-0.0182019441	 0.052415
O	 3.3915738117	 2.4643996191	-0.0203454031	-0.141816
N	 2.7349141751	 3.6862497276	-0.0037063216	-0.157512
C	 1.4519814928	 3.3962436051	 0.0083855441	 0.210119
C	 0.4340459454	 4.4856179918	 0.028098509	 0.102217
O	 0.696850755	 5.6585803648	 0.035693994	-0.223224
H	-0.949879831	 1.7766290378	 0.0225672791	 0.089688
H	 2.889745301	 0.4684194952	-0.0302610863	 0.197609
H	-0.6149657773	 4.123448683	 0.035312454	 0.095096
77.3503	128.3564	149.6267	211.9844	236.5968	297.9971	407.8069	540.4601	623.088	687.0618	752.1961	817.6455	894.2674	945.0835	946.9429	1024.0701	1036.6967	1153.8101	1180.9917	1302.5524	1377.0343	1423.1135	1476.9034	1482.9918	1589.7055	1793.3463	1823.0129	2907.3737	2926.2741	3279.685
O=CC1=CON=C1C=O	O=Cc1conc1C=O	
InChI=1S/C5H3NO3/c7-1-4-3-9-6-5(4)2-8/h1-3H	InChI=1S/C5H3NO3/c7-1-4-3-9-6-5(4)2-8/h1-3H
