21
gdb 38263	2.9842	1.68771	1.36511	1.3509	81.95	-0.2405	0.0913	0.3317	1019.2027	0.186307	-387.045691	-387.038851	-387.037907	-387.076456	29.634	
C	-0.0252542031	 1.6484176735	 0.1800681655	-0.298468
C	 1.4631694925	 1.229459424	 0.0572437073	-0.102437
C	 1.120933627	 0.0225621338	 1.0081280782	-0.295744
C	-0.0049600403	 0.0922288809	-0.043355164	 0.447298
O	-1.0792325702	-0.7484300879	-0.2489460466	-0.303861
C	-1.6701250303	-0.4600476289	-1.5252044492	-0.090887
C	-0.66176158	-0.4206465692	-2.6905101461	-0.200095
C	 0.4638285541	 0.6233570413	-2.4815973486	-0.280489
C	 1.0787206223	 0.2823665345	-1.1277178056	 0.015746
H	-0.3534881872	 1.9848036887	 1.1667056211	 0.090889
H	-0.4353454896	 2.2840944256	-0.6045298513	 0.091739
H	 2.3312503869	 1.879995972	 0.1392300719	 0.078014
H	 1.7838887678	-0.8451005734	 0.9558643642	 0.093363
H	 0.8633410101	 0.2804212443	 2.0384159506	 0.092738
H	-2.4116908634	-1.2458173821	-1.6897720702	 0.107797
H	-2.2049407894	 0.5011270182	-1.4679682808	 0.094222
H	-0.2143237425	-1.4168163236	-2.798535705	 0.105909
H	-1.217936521	-0.2175750247	-3.6127479905	 0.096651
H	 1.195368804	 0.5661401169	-3.2943097771	 0.093768
H	 0.0419668221	 1.6331042261	-2.5096190273	 0.101225
H	 1.7468248203	-0.5818998802	-1.2234740466	 0.062621
167.034	253.5369	363.9544	376.5471	399.699	447.0493	520.9088	559.2136	587.9655	663.1983	767.4188	797.6308	823.2435	844.8457	897.2034	905.2391	922.811	953.7634	968.7874	991.3598	1010.8954	1053.2436	1060.6891	1074.8995	1114.7992	1134.7617	1140.45	1162.0747	1171.2744	1202.0901	1207.2974	1216.4156	1229.4615	1253.191	1297.1423	1305.4954	1343.2823	1371.3218	1408.8717	1424.8127	1475.8339	1487.6702	1499.0496	1510.6915	1548.3746	2984.7297	3027.1952	3030.4064	3044.1451	3053.515	3070.4512	3071.5136	3087.1428	3095.6084	3122.0631	3137.395	3139.7857
C1C2CC11OCCCC21	C1[C@H]2C[C@]31OCCC[C@@H]23	
InChI=1S/C8H12O/c1-2-7-6-4-8(7,5-6)9-3-1/h6-7H,1-5H2	InChI=1S/C8H12O/c1-2-7-6-4-8(7,5-6)9-3-1/h6-7H,1-5H2/t6-,7-,8-/m0/s1
