20
gdb 93931	3.02271	1.13019	0.96662	3.0047	74.71	-0.2303	0.035	0.2653	1289.5795	0.171605	-440.336065	-440.326817	-440.325872	-440.370749	34.312	
C	-0.3513712861	 1.0757560526	-0.6927071988	-0.415423
C	 0.2215671711	-0.2472021928	-0.1922851065	 0.014808
C	 1.5701373101	-0.6287726933	-0.8147107106	-0.074662
O	 2.1923430291	-1.5446749165	 0.0921391458	-0.288598
C	 1.5738562563	-1.4465519129	 1.3824123006	 0.017744
C	 0.5750388932	-0.2832421154	 1.3045182433	-0.245533
C	 0.8915388803	-2.7660263376	 1.7873261286	 0.362446
N	 1.1102521452	-3.7936882725	 0.930932424	-0.514641
O	 0.2281936811	-2.8417481825	 2.8051000344	-0.3751
H	 0.3385309541	 1.903236768	-0.4910983053	 0.117749
H	-0.5362130551	 1.0491446027	-1.7718915454	 0.117174
H	-1.3012282495	 1.3048735416	-0.2001513108	 0.124516
H	-0.4935167371	-1.0534396993	-0.4007540612	 0.087988
H	 1.4798813778	-1.1166699203	-1.7906344908	 0.104764
H	 2.2077429129	 0.2608721837	-0.935037938	 0.093807
H	 2.3525955656	-1.2640376863	 2.132690032	 0.108691
H	 1.060003993	 0.6544469579	 1.597474785	 0.098928
H	-0.2774288148	-0.4512382297	 1.9638130878	 0.13579
H	 1.7140767289	-3.6505903164	 0.1390253726	 0.270045
H	 0.7634825138	-4.708908011	 1.1630836232	 0.259507
50.1991	63.6004	131.9384	229.4148	236.2241	297.1508	312.6486	336.129	430.8145	476.378	502.9535	552.6247	643.2944	699.7858	757.9378	812.0311	869.393	914.6204	944.5195	957.2892	964.2533	1032.1591	1067.2565	1094.8879	1120.6917	1129.2146	1161.432	1199.0162	1253.7779	1279.6649	1306.5991	1331.2531	1341.8803	1357.0936	1377.0404	1405.129	1417.2188	1493.9603	1497.8492	1501.5677	1523.605	1584.4895	1798.1463	2984.278	3022.2504	3030.1775	3034.8545	3053.7001	3070.5956	3096.2087	3105.1315	3131.6373	3598.7279	3741.3766
CC1COC(C1)C(N)=O	C[C@H]1CO[C@@H](C1)C(=O)N	
InChI=1S/C6H11NO2/c1-4-2-5(6(7)8)9-3-4/h4-5H,2-3H2,1H3,(H2,7,8)	InChI=1S/C6H11NO2/c1-4-2-5(6(7)8)9-3-4/h4-5H,2-3H2,1H3,(H2,7,8)/t4-,5+/m1/s1
