20
gdb 41913	2.22369	2.14607	1.80471	1.3478	76.51	-0.2122	0.0712	0.2833	908.6034	0.175503	-403.133477	-403.126431	-403.125487	-403.165288	28.373	
C	 0.0035634554	 1.499252248	 0.2687766504	-0.238675
C	 1.3609870581	 2.1751410258	-0.0576592221	-0.228361
C	 2.2924379783	 1.3022362703	-0.9106976414	 0.089577
C	 2.4059841942	-0.0982826972	-0.3116889343	-0.157261
N	 1.1244542387	-0.8102223296	-0.3177679237	-0.122094
C	-0.068946937	 0.0125832166	-0.0597771319	-0.019936
C	 0.2375936556	-0.4664977573	-1.4384611322	-0.05191
C	 0.6632409321	 0.5252536575	-2.5139549445	-0.093619
O	 1.8895736178	 1.2017042396	-2.2740529733	-0.273339
H	-0.2224134216	 1.6319930373	 1.3314026578	 0.106115
H	-0.8092159164	 2.0018940009	-0.2704595528	 0.110849
H	 1.206865522	 3.133201217	-0.5618844651	 0.107358
H	 1.8934186461	 2.3942177189	 0.8746144662	 0.103265
H	 3.2798587086	 1.7728240243	-0.9573811758	 0.082211
H	 3.1228345445	-0.6898830859	-0.8908848944	 0.108683
H	 2.7668344628	-0.048361963	 0.722622398	 0.099498
H	-0.8370284198	-0.5242147239	 0.494576036	 0.084424
H	-0.3290924552	-1.3101417893	-1.8295171922	 0.08804
H	 0.7918091533	-0.0053713331	-3.4639219945	 0.111642
H	-0.1460940473	 1.2601025928	-2.6669965701	 0.093531
51.4674	149.0342	339.7325	353.2121	408.5153	449.5233	530.7242	580.5274	694.1734	718.6892	769.8716	796.6427	824.412	847.0203	892.6843	917.3243	948.0439	992.5105	1026.1391	1043.5463	1071.0951	1094.0802	1123.5613	1130.2094	1138.4749	1163.915	1225.7695	1253.876	1267.5993	1293.8447	1305.1819	1320.9543	1354.8481	1359.4576	1372.4817	1378.3985	1389.781	1415.3131	1444.7001	1480.4892	1486.5592	1502.5418	1520.3007	2947.1892	3024.7325	3029.9994	3038.7638	3050.3035	3059.6535	3066.5879	3077.0479	3091.6971	3106.8225	3117.0079
C1CC2CN3C1C3CO2	C1C[C@H]2CN3[C@@H]1[C@H]3CO2	
InChI=1S/C7H11NO/c1-2-6-7-4-9-5(1)3-8(6)7/h5-7H,1-4H2	InChI=1S/C7H11NO/c1-2-6-7-4-9-5(1)3-8(6)7/h5-7H,1-4H2/t5-,6-,7+,8?/m0/s1
