15
gdb 52475	4.4448	0.55336	0.50424	2.2573	95.95	-0.2389	-0.0238	0.2151	2122.1388	0.108613	-383.398884	-383.388466	-383.387522	-383.437816	35.312	
C	-0.0275108072	 1.4992123622	 0.0345323987	-0.518592
C	-0.0037355374	 0.0483290549	 0.0124967877	 0.253846
C	 0.0173007431	-1.1616341713	-0.0050564963	-0.200363
C	 0.0398595981	-2.520542576	-0.0239978721	-0.260293
C	 0.0615592069	-3.7306790726	-0.0410406028	 0.389008
C	 0.0517569377	-5.1985053388	-0.061187861	-0.288593
O	-1.2637236757	-5.7328102291	 0.0538577831	-0.38516
C	 0.7540827704	-5.707265948	-1.2497094449	 0.331582
C	 1.3022146157	-6.13529878	-2.2290083417	-0.450043
H	 0.9820757638	 1.9076718523	 0.1558243747	 0.159822
H	-0.4409839026	 1.9028399854	-0.8965090173	 0.158848
H	-0.6402363076	 1.8726753164	 0.8626682625	 0.159322
H	 0.5710360526	-5.56564821	 0.8340924119	 0.15347
H	-1.7633680899	-5.4307086004	-0.7138970268	 0.291456
H	 1.7937483122	-6.5128293352	-3.0916892657	 0.205689
4.0426	54.7062	72.4262	135.0832	180.8635	203.5296	263.3267	317.9413	343.8638	376.0508	426.9348	501.3126	558.5089	566.6196	602.214	641.7223	675.0324	704.2228	871.9638	1005.236	1038.3008	1047.2832	1048.3291	1256.1503	1271.0482	1316.8837	1409.2133	1414.056	1470.59	1471.336	2237.9412	2277.3682	2384.7966	3024.3654	3025.0079	3088.1072	3088.1187	3502.5148	3798.4529
CC#CC#CC(O)C#C	CC#CC#C[C@@H](O)C#C	
InChI=1S/C8H6O/c1-3-5-6-7-8(9)4-2/h2,8-9H,1H3	InChI=1S/C8H6O/c1-3-5-6-7-8(9)4-2/h2,8-9H,1H3/t8-/m0/s1
