21
gdb 116215	2.18342	1.55572	1.02064	1.9429	78.65	-0.2447	0.0671	0.3118	1229.2876	0.182346	-424.209484	-424.200539	-424.199594	-424.243757	33.588	
C	-0.2957297888	 1.5297711681	 0.026984948	-0.237925
O	-0.1320374007	 0.1697969843	 0.361044292	-0.248468
C	-1.2365098188	-0.6407350098	 0.0173374764	 0.074291
C	-1.3710403867	-0.9618871737	-1.4870882656	-0.24697
C	-2.0808256554	-2.3268733551	-1.5061969017	-0.220122
C	-1.4093377502	-3.0925845993	-0.3501016996	-0.29249
C	-1.1227095188	-2.0153062413	 0.6927727893	 0.414917
C	-0.3168457354	-2.2315737554	 1.8956870338	-0.241621
O	-1.7430677206	-2.1361783734	 1.9793753464	-0.284693
H	 0.5800228008	 2.0626880487	 0.4054094008	 0.126847
H	-0.3604733172	 1.6886654521	-1.0594759504	 0.107245
H	-1.1990528037	 1.9546437817	 0.4920161521	 0.107596
H	-2.1638336	-0.1697669091	 0.3838893403	 0.078673
H	-1.9042167651	-0.1903901328	-2.0482766387	 0.09755
H	-0.3619818038	-1.0502844316	-1.9084523615	 0.107122
H	-3.1495922253	-2.1953573874	-1.2997555038	 0.107511
H	-1.9963961474	-2.8380866491	-2.4684751093	 0.100293
H	-2.0210268263	-3.893535056	 0.0713598506	 0.11369
H	-0.4670756834	-3.5355581434	-0.6942812145	 0.106817
H	 0.0969160835	-3.2214506254	 2.0898510541	 0.10452
H	 0.2346905433	-1.3963904222	 2.3199198111	 0.125216
40.9463	93.6688	181.8517	191.009	242.3743	301.2994	315.4134	371.1305	460.7248	497.7337	517.1837	569.9659	727.0299	816.4088	852.866	881.8168	908.9298	922.4758	971.6125	991.3661	1012.3385	1041.5572	1087.6593	1133.6905	1146.8884	1157.7648	1173.0513	1184.7837	1189.8086	1225.5394	1231.7822	1246.5134	1313.2348	1317.1916	1324.4956	1343.522	1392.4275	1420.6517	1476.6224	1480.3407	1487.321	1492.0447	1505.247	1510.6645	1525.8771	2964.4934	2978.254	3026.1938	3035.0152	3036.586	3042.6865	3081.9277	3094.9766	3100.1654	3108.3096	3113.4168	3181.8669
COC1CCCC11CO1	CO[C@H]1CCC[C@]21CO2	
InChI=1S/C7H12O2/c1-8-6-3-2-4-7(6)5-9-7/h6H,2-5H2,1H3	InChI=1S/C7H12O2/c1-8-6-3-2-4-7(6)5-9-7/h6H,2-5H2,1H3/t6-,7+/m0/s1
