19
gdb 121667	3.75914	0.81831	0.72679	2.4749	74.72	-0.2396	0.0438	0.2835	1579.569	0.158913	-456.344978	-456.335154	-456.33421	-456.381619	34.319	
O	-0.350813534	 1.4753000205	 0.2546789296	-0.424678
C	-0.2348865068	 0.0687872965	 0.0673335164	-0.075923
C	-1.6467213215	-0.5013355068	 0.1006244596	-0.147793
N	-2.4802344537	 0.080635226	-0.9323015123	-0.325382
C	-2.9167883698	-0.6410529805	-2.0054517683	 0.426896
O	-2.7821919623	-1.8434320804	-2.1309347115	-0.386142
N	-3.5230967804	 0.1861570365	-2.9867839056	-0.1376
C	-4.5681646009	-0.39682045	-3.8057911503	-0.208641
C	-4.9026487462	 0.6426897176	-2.789897505	-0.233735
H	 0.5043700164	 1.878592412	 0.082062314	 0.292654
H	 0.2339533979	-0.167078658	-0.8990380985	 0.103377
H	 0.3675599416	-0.394341079	 0.8640148405	 0.091879
H	-1.6271933183	-1.5801577165	-0.0648181057	 0.14514
H	-2.0843130723	-0.3064730111	 1.0877611268	 0.110789
H	-2.4564426596	 1.0847144506	-1.0189006516	 0.255664
H	-4.5328768592	-0.1350397063	-4.8591092199	 0.120069
H	-4.8360377209	-1.4262605352	-3.5878366253	 0.141933
H	-5.4146608373	 0.3163114665	-1.8880809252	 0.130358
H	-5.1066296127	 1.6670368775	-3.0892182075	 0.121136
30.829	47.9777	79.7535	116.98	208.1969	228.6964	267.9273	305.5402	352.8297	472.2184	533.6349	550.6741	607.4102	778.6869	803.0515	831.8418	884.9983	916.4225	937.8779	1003.3145	1043.8809	1085.6981	1104.1594	1117.0939	1130.5585	1137.243	1176.9177	1181.0718	1215.5934	1238.4122	1261.5299	1311.8169	1343.1133	1400.9659	1451.5523	1475.8005	1496.1274	1514.044	1516.7303	1535.643	1784.1556	2981.5996	3016.0339	3038.0326	3107.0554	3120.7688	3129.2252	3192.1025	3213.0675	3636.8051	3839.192
OCCNC(=O)N1CC1	OCCNC(=O)N1CC1	
InChI=1S/C5H10N2O2/c8-4-1-6-5(9)7-2-3-7/h8H,1-4H2,(H,6,9)	InChI=1S/C5H10N2O2/c8-4-1-6-5(9)7-2-3-7/h8H,1-4H2,(H,6,9)
