17
gdb 106456	2.82178	1.2126	1.00255	2.184	69.83	-0.242	-0.0343	0.2077	1192.4756	0.134098	-458.892698	-458.884259	-458.883315	-458.926272	31.198	
O	 0.0163435291	 1.3555560343	-0.0665100893	-0.407756
C	 0.0095624739	-0.0546925351	 0.0179210448	-0.191422
C	-1.3936173227	-0.5749943232	 0.1391308441	 0.368362
C	-2.5214032522	-0.1701702466	 1.1208578093	-0.251407
C	-3.1200640854	-1.0162235144	-0.0204367314	 0.028732
O	-2.3125443019	-0.2453410091	-0.9934875806	-0.353686
C	-1.9495030395	-2.0402326493	 0.1248816026	-0.138969
C	-1.6289464833	-2.907905118	-1.057739562	 0.13632
O	-1.3132455459	-4.0687775546	-0.9559565567	-0.258954
H	-0.5798871891	 1.5959776598	-0.7856717896	 0.298168
H	 0.4960845546	-0.5243914656	-0.8516043824	 0.106864
H	 0.5823879754	-0.3287626552	 0.91001398	 0.126758
H	-2.5010229925	-0.5970586984	 2.125650524	 0.107734
H	-2.7870737766	 0.8863055819	 1.1026708756	 0.120103
H	-4.1601345807	-1.2119887245	-0.2784277456	 0.11265
H	-1.8876607039	-2.6030174337	 1.0586612546	 0.096199
H	-1.7058530893	-2.4073439882	-2.0427681275	 0.100304
73.1713	89.9082	164.8987	220.3064	242.5603	322.8693	386.432	418.0981	451.3498	533.9149	625.9522	678.1062	725.7166	786.9199	879.7503	907.326	959.4047	982.7232	1026.899	1027.4641	1068.6272	1093.961	1100.005	1137.876	1144.384	1187.2035	1210.2093	1220.0733	1239.9876	1308.34	1334.234	1379.0011	1420.7104	1434.2461	1488.6997	1495.8713	1815.4258	2944.5984	2985.4334	3076.1467	3080.7664	3102.7734	3130.4205	3163.377	3795.8603
OCC12CC(O1)C2C=O	OC[C@@]12C[C@@H](O1)[C@H]2C=O	
InChI=1S/C6H8O3/c7-2-4-5-1-6(4,3-8)9-5/h2,4-5,8H,1,3H2	InChI=1S/C6H8O3/c7-2-4-5-1-6(4,3-8)9-5/h2,4-5,8H,1,3H2/t4-,5-,6-/m1/s1
