16
gdb 104953	2.78685	0.85719	0.70668	3.4397	79.17	-0.2686	-0.0683	0.2004	1554.9884	0.122174	-437.822358	-437.812757	-437.811813	-437.858445	32.826	
O	 0.1905179754	 1.2679377678	 0.0204111771	-0.409173
C	-0.0642713157	-0.0686019616	-0.3545874759	-0.136027
C	-1.4617594327	-0.5338481434	 0.0388989098	 0.048322
C	-1.6381022013	-1.9467447405	 0.5094268472	-0.260291
N	-1.7412594988	-0.8467768634	 1.4619759707	-0.317214
C	-2.5272326392	 0.131802494	-0.6610610436	 0.117966
C	-3.365129964	 0.7279411692	-1.2977457919	 0.041239
C	-4.4016247912	 1.4166926407	-2.020661018	 0.018098
O	-4.2026284219	 2.1827017771	-2.9363234927	-0.232111
H	-0.4085194337	 1.8351589966	-0.4785813633	 0.297645
H	 0.0784058329	-0.2257261218	-1.4340466742	 0.10985
H	 0.6755387083	-0.6804521013	 0.1734081098	 0.10731
H	-2.5693456644	-2.4629604979	 0.2994883067	 0.136648
H	-0.7512523627	-2.5763485365	 0.5067186919	 0.12577
H	-0.8780979557	-0.7373826502	 1.9911563305	 0.247574
H	-5.4272851553	 1.1893143911	-1.666527434	 0.104393
42.862	59.2212	91.6933	124.728	187.0214	240.8187	279.678	316.793	366.7775	445.9114	512.5527	563.3768	610.4589	731.6793	821.9345	879.4193	919.7631	972.4546	1008.6686	1021.1191	1038.647	1083.6742	1120.1612	1146.7939	1201.8025	1246.2865	1300.1684	1380.9166	1386.5096	1421.034	1424.3615	1492.5155	1507.928	1763.63	2317.7633	2925.1899	2996.5858	3071.2526	3110.9029	3204.685	3490.987	3799.5288
OCC1(CN1)C#CC=O	OC[C@]1(CN1)C#CC=O	
InChI=1S/C6H7NO2/c8-3-1-2-6(5-9)4-7-6/h3,7,9H,4-5H2	InChI=1S/C6H7NO2/c8-3-1-2-6(5-9)4-7-6/h3,7,9H,4-5H2/t6-/m1/s1
