19
gdb 106285	2.80025	1.30823	1.06638	3.7039	71.88	-0.2448	0.0661	0.311	1176.9503	0.15688	-460.095166	-460.085816	-460.084871	-460.129094	35.045	
C	 0.0380019847	 1.3208255584	 0.0283532541	-0.261297
O	 0.0706899485	-0.0907270359	-0.0723245404	-0.285882
C	 0.6893514487	-0.5688151556	-1.1971367359	 0.408668
C	 0.2744822927	-0.3819078774	-2.6936190812	-0.369022
C	 1.5150421023	-1.3282718801	-2.6946225397	 0.358407
O	 2.1083302254	-1.9644704811	-3.7619130344	-0.467562
C	 2.1779191995	-0.36395168	-1.6523476634	-0.40706
C	 0.8400357029	-2.0846894416	-1.5147519414	 0.081587
O	 1.5509057796	-2.9498877686	-0.6841773622	-0.44564
H	 1.0504381363	 1.7479673597	 0.0502541342	 0.112716
H	-0.5163799686	 1.7731821733	-0.8056876569	 0.114245
H	-0.4695065434	 1.5604820837	 0.964917322	 0.132866
H	-0.6793627278	-0.8178628951	-3.0006752803	 0.1011
H	 0.4326277683	 0.6110434367	-3.1206718438	 0.090457
H	 2.4466740813	-1.2994407673	-4.3710852013	 0.285572
H	 2.4479222672	 0.6301076404	-2.0189652749	 0.092058
H	 2.9718816263	-0.7620972007	-1.0140700753	 0.084339
H	-0.0916621132	-2.5980828871	-1.7650256936	 0.089657
H	 2.3959569893	-2.5541111117	-0.4488672856	 0.28479
76.3394	136.4721	168.4136	173.3655	236.6701	247.2952	281.6335	326.8031	383.5855	448.4274	535.5494	551.7613	600.0673	650.8818	662.1383	739.3118	816.4676	890.1596	982.7388	1001.3416	1017.8405	1053.0187	1099.7133	1108.3908	1110.7575	1118.9003	1136.8685	1162.8368	1180.545	1188.8513	1235.9846	1287.3904	1295.9799	1337.9102	1392.0248	1459.8246	1485.0814	1486.8888	1499.6818	1505.0187	1558.9094	2993.3475	3045.462	3050.3316	3058.9504	3091.3893	3107.4531	3125.4624	3128.7845	3806.9101	3822.2189
COC12CC(O)(C1)C2O	CO[C@@]12C[C@@](O)(C1)[C@H]2O	
InChI=1S/C6H10O3/c1-9-6-2-5(8,3-6)4(6)7/h4,7-8H,2-3H2,1H3	InChI=1S/C6H10O3/c1-9-6-2-5(8,3-6)4(6)7/h4,7-8H,2-3H2,1H3/t4-,5-,6+/m1/s1
