19
gdb 72466	2.52631	1.88731	1.46046	1.9187	74.4	-0.2381	0.0089	0.247	956.9141	0.161555	-423.038027	-423.030696	-423.029752	-423.069246	30.349	
O	-0.0394741829	 1.3976014657	-0.0100712207	-0.491542
C	-0.0003596759	-0.0169012436	 0.0069000927	 0.356314
C	 0.5906332073	-0.5995193218	 1.3260475483	-0.113674
O	-0.2018112362	-1.7382691927	 1.6731703957	-0.265855
C	-1.0579979968	-2.0034466456	 0.5454654034	 0.047863
C	-1.4181917228	-0.5989005716	 0.0540572091	-0.253851
C	-0.2883079027	-2.7447248591	-0.5348058686	-0.062223
C	 0.5403205605	-2.0780609895	-1.3385997373	-0.056291
C	 0.7247264244	-0.5826396305	-1.2297975396	-0.316702
H	 0.8598810307	 1.723084483	-0.1258176476	 0.275842
H	 1.6447364627	-0.8893167871	 1.2154903463	 0.087539
H	 0.5115531262	 0.1466659812	 2.1247673022	 0.105089
H	-1.9031235819	-2.5856760173	 0.9171058637	 0.077203
H	-2.0209889973	-0.0662354116	 0.7943229172	 0.110787
H	-1.923385872	-0.5808360312	-0.9138993832	 0.104003
H	-0.3935520706	-3.8229332988	-0.6045273126	 0.092006
H	 1.1192532071	-2.5974714231	-2.0981332593	 0.093156
H	 0.3437048548	-0.0784990311	-2.1291976691	 0.114755
H	 1.7976220554	-0.3422789851	-1.1766826707	 0.095581
147.5058	268.3713	280.7858	293.8394	356.151	417.4832	457.3518	476.9723	494.4878	592.5817	650.354	729.9523	783.868	866.0557	871.7627	921.7687	929.9828	948.6637	973.1473	992.2489	996.3574	1013.5687	1057.2778	1093.0907	1119.8676	1152.433	1175.6404	1189.9078	1234.9041	1260.7277	1286.9247	1307.761	1338.579	1351.454	1364.8531	1399.9113	1415.3491	1474.5983	1493.7213	1521.361	1705.9982	2990.5248	3004.049	3025.272	3059.4095	3067.0639	3098.397	3124.442	3153.3989	3182.7636	3801.3745
OC12COC(C1)C=CC2	O[C@@]12CO[C@@H](C1)C=CC2	
InChI=1S/C7H10O2/c8-7-3-1-2-6(4-7)9-5-7/h1-2,6,8H,3-5H2	InChI=1S/C7H10O2/c8-7-3-1-2-6(4-7)9-5-7/h1-2,6,8H,3-5H2/t6-,7-/m1/s1
