15
gdb 44790	2.52095	2.21599	1.62245	4.5967	64.92	-0.2729	-0.0037	0.2692	844.9957	0.113663	-457.676049	-457.669763	-457.668819	-457.706518	25.612	
O	 0.0998375992	 0.1132842058	 0.1530813516	-0.351904
C	 0.0858211926	 1.2997724926	 0.0550253138	 0.464202
O	-1.0502364519	 2.0744893334	 0.0591238624	-0.223141
C	-0.4927360483	 3.3858803146	-0.0862739229	 0.014774
C	 0.6858996787	 3.3800828524	 0.99980311	-0.333782
C	 1.2378406992	 2.3168012997	-0.049336521	 0.029587
C	 2.1813242487	 1.8355795052	-1.1807466097	-0.184313
O	 1.1610789519	 2.3237471821	-2.1489525111	-0.308971
C	 0.703686576	 3.2314158874	-1.0995025711	 0.140209
H	-1.2832023161	 4.131639405	-0.1297384039	 0.111536
H	 1.2636921268	 4.3018949982	 1.0497876583	 0.13311
H	 0.3994387826	 3.0312414086	 1.99320485	 0.139513
H	 3.1157919519	 2.3918273266	-1.2964910876	 0.121166
H	 2.3289263009	 0.7576082446	-1.2609325611	 0.151377
H	 1.2242689479	 4.1895179338	-1.2030190676	 0.096639
172.2536	247.3203	304.8294	392.7047	460.8356	525.339	620.0637	656.2485	704.5859	752.9747	792.7604	832.1636	838.9889	890.8224	915.6383	960.0015	989.4984	1005.9258	1028.0216	1065.6716	1082.8528	1121.84	1127.5824	1179.8638	1195.6066	1201.8215	1255.9392	1280.8174	1338.9588	1383.3449	1487.9992	1496.2327	1917.6475	3046.1597	3061.2273	3089.436	3143.8413	3156.9101	3167.3478
O=C1OC2CC11COC21	O=C1O[C@H]2C[C@]31CO[C@@H]23	
InChI=1S/C6H6O3/c7-5-6-1-3(9-5)4(6)8-2-6/h3-4H,1-2H2	InChI=1S/C6H6O3/c7-5-6-1-3(9-5)4(6)8-2-6/h3-4H,1-2H2/t3-,4-,6-/m0/s1
