21
gdb 120334	3.194	0.95967	0.91636	1.269	78.17	-0.2333	0.081	0.3143	1386.435	0.183267	-424.204182	-424.195101	-424.194157	-424.239217	33.354	
O	-0.0608520362	 1.3766459985	-0.0260096692	-0.423528
C	-0.1065893548	-0.0191063588	-0.2858955899	-0.067582
C	-1.4021883423	-0.5616951264	 0.3093266025	-0.199496
C	-1.5081788165	-2.061597279	 0.1537803606	-0.053167
C	-2.8282706692	-2.8243484584	 0.1151790146	-0.108641
C	-4.1214718564	-2.0624411889	-0.1757154538	-0.260138
C	-4.0275290296	-1.7903687169	-1.6941891984	-0.06082
O	-2.638016586	-1.8481595639	-2.0358766147	-0.258828
C	-1.9892359775	-2.7010911483	-1.1265448172	 0.078194
H	 0.7211494238	 1.7355125434	-0.454863844	 0.284136
H	-0.0914943262	-0.2291529649	-1.3659414207	 0.100953
H	 0.7583125699	-0.5351210976	 0.1639871622	 0.076924
H	-1.4440823737	-0.2864676048	 1.370045941	 0.10235
H	-2.234353938	-0.0548618569	-0.1856669225	 0.111905
H	-0.7118236626	-2.6135215799	 0.6510598422	 0.080832
H	-2.8905345169	-3.7580102264	 0.6614390782	 0.088684
H	-4.9972553535	-2.6696178284	 0.0681908998	 0.104535
H	-4.1983282408	-1.1334998544	 0.3975322337	 0.112516
H	-4.5819591629	-2.5539114114	-2.2604879755	 0.09372
H	-4.4007972201	-0.8053214229	-1.9890154986	 0.10885
H	-1.4621557505	-3.5323264138	-1.5860384303	 0.088601
37.9843	84.5264	111.8558	142.0545	241.7739	253.6064	264.8828	401.5039	483.0883	580.9545	654.155	725.1742	772.3357	799.2993	809.301	854.6715	907.0203	953.4703	977.1732	999.9864	1002.3674	1044.328	1061.6867	1082.3963	1088.3176	1117.3901	1141.3255	1149.0122	1206.3554	1222.907	1234.4342	1245.5932	1250.3824	1300.273	1314.4314	1318.9242	1321.4274	1367.8813	1394.9434	1437.1878	1458.1767	1483.6062	1499.1334	1520.4191	1525.4934	2958.4958	2988.5583	3003.6507	3041.7186	3053.9761	3082.2556	3099.0591	3102.5226	3118.1968	3144.3992	3176.9275	3832.0564
OCCC1C2CCOC12	OCC[C@H]1[C@H]2CCO[C@@H]12	
InChI=1S/C7H12O2/c8-3-1-5-6-2-4-9-7(5)6/h5-8H,1-4H2	InChI=1S/C7H12O2/c8-3-1-5-6-2-4-9-7(5)6/h5-8H,1-4H2/t5-,6+,7-/m0/s1
