20
gdb 58885	2.92993	1.28985	1.22679	2.0464	79.46	-0.2203	0.0084	0.2287	1137.1325	0.170641	-403.12637	-403.117601	-403.116657	-403.159862	33.81	
C	-0.0533290296	 1.5672493585	 0.229704798	-0.417683
C	-0.0367707192	 0.0562725658	 0.0075134991	 0.027149
O	 0.8442959243	-0.6078963125	 0.9129821417	-0.430996
C	-1.4281118931	-0.5541162927	 0.0729890818	 0.32776
C	-1.8314323199	-1.6777536206	-0.8188000344	-0.28537
N	-2.3480684784	-0.3251817032	-1.0711520408	-0.147978
C	-3.6889366468	-0.0637103353	-0.498609781	-0.214573
C	-3.526988358	-0.1838061264	 1.0015414599	-0.092338
C	-2.2563381259	-0.4367590843	 1.3131650289	-0.151283
H	 0.9594276251	 1.9730687283	 0.1576518131	 0.121326
H	-0.6850615314	 2.053781208	-0.5186390091	 0.135829
H	-0.4569179265	 1.8142166352	 1.219647867	 0.10722
H	 0.3683542563	-0.1531151957	-0.98831057	 0.093189
H	 0.6813332901	-0.2546848688	 1.7938088604	 0.2784
H	-1.1449615786	-2.0417297761	-1.579662095	 0.114661
H	-2.5062138671	-2.4266117231	-0.4092845189	 0.109027
H	-4.0207382438	 0.9399940575	-0.7967525855	 0.113835
H	-4.422556939	-0.7712548572	-0.9062721555	 0.115123
H	-4.3525848586	-0.100525534	 1.6990521129	 0.101414
H	-1.8580819398	-0.5723463532	 2.3114777674	 0.095289
47.7663	141.3365	194.1806	244.0368	258.7071	288.7293	331.0107	359.3172	473.2642	481.8762	539.4938	652.8749	739.1771	757.2655	778.5414	831.1753	896.5968	918.1899	922.2043	951.0638	957.341	1010.3602	1021.3602	1047.3517	1074.0327	1110.5331	1115.9644	1123.48	1152.2195	1215.7816	1255.666	1284.8596	1312.902	1338.0248	1373.2623	1393.5096	1400.9331	1410.2037	1486.2457	1491.1682	1495.3609	1502.8973	1669.2604	3010.1867	3027.4319	3041.9562	3055.2024	3093.1337	3101.099	3125.6697	3181.5432	3191.0028	3216.0952	3809.7699
CC(O)C12CN1CC=C2	C[C@@H](O)[C@]12CN1CC=C2	
InChI=1S/C7H11NO/c1-6(9)7-3-2-4-8(7)5-7/h2-3,6,9H,4-5H2,1H3	InChI=1S/C7H11NO/c1-6(9)7-3-2-4-8(7)5-7/h2-3,6,9H,4-5H2,1H3/t6-,7+,8?/m1/s1
