18
gdb 23018	2.47306	1.16271	0.84654	3.6083	77.55	-0.2393	-0.008	0.2313	1348.9548	0.144687	-439.044129	-439.034381	-439.033437	-439.080114	34.526	
C	 0.3793214399	 1.516594329	-0.03618975	-0.476276
C	-0.010132485	 0.0658072284	 0.0826399771	 0.352486
N	-0.3024213805	-0.5005180684	 1.1910295106	-0.164082
O	-0.184158105	 0.3809357812	 2.2726811841	-0.402156
C	-0.0596935998	-0.7511520649	-1.1594456268	-0.089519
C	 1.1112742895	-1.5840463359	-1.6092214525	-0.296895
C	-0.1772554147	-2.2697099833	-1.1936881685	-0.11414
C	-0.1773047843	-3.1191617509	 0.0319732192	 0.180479
O	-0.9442757002	-4.0353772536	 0.1962803335	-0.280316
H	 0.5041745277	 1.8109296484	-1.07963372	 0.121943
H	-0.3762297201	 2.1525240978	 0.434633584	 0.153183
H	 1.3180968333	 1.7024326826	 0.4963814334	 0.151257
H	-0.4654229661	-0.1669222583	 3.0134529727	 0.310278
H	-0.5966271969	-0.2549306638	-1.9649300902	 0.109487
H	 1.3848650785	-1.589828059	-2.6579619169	 0.126877
H	 1.9449171056	-1.674176591	-0.9194590136	 0.130431
H	-0.8174357793	-2.665021979	-1.9754409825	 0.109412
H	 0.6156108775	-2.8839953793	 0.7690554265	 0.07755
41.3251	53.9911	73.1454	171.0761	188.425	284.0512	306.5614	324.8485	376.4349	434.9112	445.1946	522.7801	580.4712	652.0032	765.4451	841.7062	862.2165	897.0873	959.4017	986.6977	1030.0958	1039.0596	1049.7025	1072.5077	1110.0467	1135.436	1182.9613	1190.6892	1248.4872	1344.1728	1387.0066	1400.0259	1426.6759	1446.0867	1473.8576	1480.2478	1489.5054	1724.5704	1815.2526	2933.3891	3045.0735	3103.9183	3130.2921	3131.3231	3139.3518	3172.1268	3222.8612	3817.696
CC(=NO)C1CC1C=O	CC(=NO)[C@H]1C[C@H]1C=O	
InChI=1S/C6H9NO2/c1-4(7-9)6-2-5(6)3-8/h3,5-6,9H,2H2,1H3	InChI=1S/C6H9NO2/c1-4(7-9)6-2-5(6)3-8/h3,5-6,9H,2H2,1H3/t5-,6+/m0/s1
