17
gdb 64889	1.99823	1.71653	1.09871	4.2843	80.31	-0.2584	0.0176	0.276	1129.542	0.133902	-380.835277	-380.825695	-380.824751	-380.869082	35.756	
C	-0.0778342727	 1.5362395798	-0.0110861178	-0.462199
C	-0.0045891227	 0.0175549305	-0.0161126157	 0.137071
C	 1.3193839227	-0.6712553079	-0.284354342	-0.33489
C	 0.7600583597	-0.7221241611	 1.1186922217	 0.058713
N	 1.4171140508	 0.1321731362	 2.0821509346	-0.556042
C	 0.2203681062	-1.968953612	 1.601370445	 0.323337
C	-0.2145747491	-2.9930638204	 2.0579096697	-0.466448
C	-1.1878401119	-0.6292861705	-0.5277866206	 0.255101
N	-2.1508794822	-1.1099443418	-0.9515739302	-0.350413
H	 0.8044288921	 1.9480330589	 0.4787553146	 0.149637
H	-0.1330458162	 1.9136888631	-1.0364669748	 0.13616
H	-0.9668902295	 1.8804828496	 0.5251483883	 0.135893
H	 1.3142618251	-1.5855252723	-0.8638591485	 0.14805
H	 2.1716072343	-0.0181402947	-0.4350052963	 0.135644
H	 0.8265617932	 0.2453536219	 2.9013508932	 0.242954
H	 2.2721072446	-0.3158150271	 2.4001476511	 0.243587
H	-0.6123535343	-3.8996051522	 2.4425997278	 0.203843
109.4523	110.0299	179.2442	193.3183	198.2205	258.0293	289.8242	313.6865	399.852	420.8062	468.367	547.6378	584.1121	614.2122	624.2765	655.6323	668.5467	716.5024	822.2116	891.3636	929.4988	952.4784	992.6349	1079.518	1103.2173	1138.0409	1219.1917	1275.9668	1294.9354	1348.3382	1407.1368	1467.4366	1490.5256	1500.3193	1660.761	2231.872	2351.5089	3049.2322	3113.2849	3147.0339	3155.8539	3247.5993	3489.3604	3500.6973	3564.2715
CC1(CC1(N)C#C)C#N	C[C@]1(C[C@]1(N)C#C)C#N	
InChI=1S/C7H8N2/c1-3-7(9)4-6(7,2)5-8/h1H,4,9H2,2H3	InChI=1S/C7H8N2/c1-3-7(9)4-6(7,2)5-8/h1H,4,9H2,2H3/t6-,7+/m0/s1
