19
gdb 49313	3.19233	1.16573	0.89405	4.8704	80.6	-0.231	-0.056	0.175	1293.4496	0.160708	-419.221012	-419.212434	-419.211489	-419.254783	31.754	
O	 0.12647004	-0.0137429316	 0.8305931777	-0.22393
C	 0.1432640348	 1.1518777581	 0.5561234497	 0.133095
C	 1.3689628802	 1.9276986698	 0.0973284697	 0.24899
N	 2.4765260551	 1.3008478127	 0.0972538403	-0.252277
C	 3.7716068859	 1.9065564306	-0.1252736387	-0.145616
C	 3.9555318699	 2.8965304499	-1.2845254629	-0.205118
C	 3.1937719092	 4.2093896674	-1.1042401776	-0.180514
C	 1.6841754079	 4.0439882387	-1.2482248934	-0.15849
N	 1.0582784441	 3.2488017599	-0.1944521413	-0.346341
H	-0.7873709794	 1.7705868408	 0.6200014197	 0.059961
H	 4.0607622262	 2.4178727936	 0.8085772817	 0.108899
H	 4.487718623	 1.0869794086	-0.2513218106	 0.107755
H	 5.0285843167	 3.1056125671	-1.3702055215	 0.099005
H	 3.6534728743	 2.4184102715	-2.2259425645	 0.100697
H	 3.4226679347	 4.6474903579	-0.124429142	 0.103384
H	 3.5167099133	 4.9318091489	-1.8627619834	 0.100703
H	 1.2011064522	 5.0258832989	-1.2247826631	 0.108797
H	 1.4757803415	 3.604105452	-2.2379505078	 0.105803
H	 0.0688516502	 3.440126705	-0.1120418118	 0.235196
55.0744	112.9806	146.743	217.437	236.8257	349.9851	355.9726	367.5513	503.2246	517.2084	575.35	632.3606	736.0429	773.8105	835.7499	889.4846	899.9892	940.3604	1002.4161	1012.2382	1059.6822	1098.6711	1110.7949	1127.6475	1189.9734	1234.083	1267.1397	1302.7076	1321.025	1368.8895	1374.6247	1389.4142	1412.623	1441.1972	1475.3188	1480.2076	1485.4929	1499.9246	1544.7536	1731.6531	1852.2676	2808.7267	2963.6974	2969.8423	3018.1055	3026.1607	3052.6557	3062.3611	3072.1377	3072.8753	3567.122
O=CC1=NCCCCN1	O=CC1=NCCCCN1	
InChI=1S/C6H10N2O/c9-5-6-7-3-1-2-4-8-6/h5H,1-4H2,(H,7,8)	InChI=1S/C6H10N2O/c9-5-6-7-3-1-2-4-8-6/h5H,1-4H2,(H,7,8)
