15
gdb 104968	2.50035	1.35208	1.08459	3.5513	68.41	-0.2657	-0.0702	0.1956	1129.5544	0.109131	-457.704172	-457.694989	-457.694044	-457.738777	32.607	
O	 1.0210445429	 0.5942875383	-0.2210970616	-0.41567
C	 0.1993715409	-0.5110062998	-0.5401729578	-0.1334
C	-1.2285175104	-0.2593469294	-0.1032876399	 0.256324
C	-1.9742039265	-1.2536870867	 0.6986592786	-0.220791
O	-1.3927240935	-0.1142115054	 1.3163992528	-0.264064
C	-2.0273830416	 0.7027753912	-0.9549740163	 0.191387
O	-1.7619916944	 0.8777429156	-2.1235545257	-0.290843
C	-3.1367504595	 1.3768238713	-0.3053149209	 0.281768
C	-4.0735989057	 1.9445839321	 0.1930397225	-0.414315
H	 0.9526648993	 0.7269750543	 0.7316109284	 0.294429
H	 0.2325497299	-0.6260810562	-1.6257134626	 0.141312
H	 0.5625263605	-1.4385302478	-0.0737888636	 0.090243
H	-3.0621296425	-1.2617168387	 0.6709807839	 0.134546
H	-1.496691561	-2.2083976166	 0.9134178684	 0.130629
H	-4.8964248485	 2.4531513279	 0.6342320639	 0.218446
47.5301	81.1372	135.3101	174.3172	235.8506	271.7726	314.1912	334.3974	427.4394	479.3317	491.5926	610.7465	651.9432	684.9594	714.7946	757.6434	817.6268	916.2285	958.6416	977.085	1072.0943	1079.3503	1131.0026	1173.1369	1210.3647	1317.6221	1348.8427	1401.7539	1428.0763	1485.5421	1515.8292	1764.5213	2213.9047	2997.8033	3089.8916	3117.076	3183.2832	3493.3179	3797.0177
OCC1(CO1)C(=O)C#C	OC[C@]1(CO1)C(=O)C#C	
InChI=1S/C6H6O3/c1-2-5(8)6(3-7)4-9-6/h1,7H,3-4H2	InChI=1S/C6H6O3/c1-2-5(8)6(3-7)4-9-6/h1,7H,3-4H2/t6-/m0/s1
