25
gdb 89733	2.3093	1.38444	1.18536	0.2002	92.7	-0.2577	0.0799	0.3377	1246.9901	0.227344	-352.345811	-352.335722	-352.334778	-352.379857	39.742	
C	-0.9113046117	 1.0567840443	-0.1072157572	-0.419324
C	 0.1446091123	-0.0388894701	-0.0969866685	 0.022992
C	 1.5252394236	 0.2393336559	-0.7570772324	-0.334383
C	 2.1820497887	-0.5220945027	 0.3976299802	 0.370616
C	 3.0645283589	-1.7264398809	 0.2377244044	-0.329842
C	 3.6074907642	-0.456629653	 0.8557391513	-0.335564
C	 0.8813954905	-0.436467277	 1.2390511198	 0.237889
C	 0.9481264981	 0.6970039058	 2.2684458404	-0.431865
C	 0.3889486822	-1.7241119532	 1.8933475341	-0.454477
H	-0.5257778701	 1.9982198617	 0.2967638978	 0.11326
H	-1.2518688733	 1.2531652276	-1.1302465281	 0.112073
H	-1.7912229798	 0.7755029899	 0.4826685627	 0.111623
H	-0.2816457577	-0.9505017501	-0.5311355873	 0.06605
H	 1.6804107802	-0.1510212818	-1.7670453679	 0.092973
H	 1.7761220952	 1.3063906825	-0.7576294643	 0.093519
H	 2.9068659492	-2.5784152147	 0.8913815965	 0.108658
H	 3.390111388	-1.9906500626	-0.7639889947	 0.10586
H	 4.3048129784	 0.142083224	 0.2774919681	 0.106417
H	 3.80872736	-0.4609954689	 1.9227858439	 0.106658
H	 1.3236059952	 1.6272431575	 1.8313735678	 0.112201
H	-0.0371000168	 0.9013520025	 2.7023303494	 0.108229
H	 1.6212001584	 0.4281890463	 3.0901986236	 0.108035
H	 1.0401938646	-2.0302782988	 2.7212437463	 0.107331
H	-0.6183554731	-1.5905838255	 2.3057740455	 0.109153
H	 0.3509144448	-2.5481605086	 1.1740826886	 0.111916
70.9863	191.6709	204.3667	211.71	232.1141	236.893	245.5956	280.4247	326.4761	358.5232	403.0634	445.8281	499.4482	544.8521	643.1731	731.4452	780.1441	844.5124	865.1207	904.5015	919.5902	934.5908	946.732	955.4967	982.6822	1009.3168	1042.7091	1050.1507	1075.7569	1104.8673	1119.9476	1165.335	1182.5328	1187.2524	1215.4757	1229.5225	1251.1146	1275.5551	1310.9471	1361.4563	1384.9386	1399.1041	1408.4553	1420.2398	1463.8587	1479.5535	1485.0253	1490.1631	1493.6773	1495.977	1502.594	1505.9921	1508.2805	3017.3924	3024.3177	3026.544	3033.3713	3035.4906	3077.1809	3085.413	3086.0453	3089.3147	3096.435	3098.8388	3103.947	3116.7546	3120.7955	3192.8093	3208.1197
CC1CC2(CC2)C1(C)C	C[C@H]1CC2(CC2)C1(C)C	
InChI=1S/C9H16/c1-7-6-9(4-5-9)8(7,2)3/h7H,4-6H2,1-3H3	InChI=1S/C9H16/c1-7-6-9(4-5-9)8(7,2)3/h7H,4-6H2,1-3H3/t7-/m0/s1
