19
gdb 69503	2.97469	1.39367	1.28193	2.21	74.06	-0.2387	0.0782	0.3169	1063.5022	0.159095	-422.995229	-422.987197	-422.986253	-423.027033	33.095	
O	-0.0386954939	 1.3610805493	-0.0586985556	-0.463503
C	 0.0151373212	-0.0333985151	 0.0215197327	 0.404615
C	-0.4984714863	-0.8399404636	-1.1413467442	-0.367759
C	-1.2592256282	-0.8214071681	 0.1749400345	-0.161217
C	-1.0323555358	-1.9135364173	 1.2097892172	 0.410073
O	-2.0549980804	-2.117825185	 2.1382378194	-0.470949
C	-0.0671885434	-3.033611002	 0.9124380559	-0.366665
C	 0.3940126368	-1.8095414162	 1.6866943557	-0.075165
C	 1.0683510962	-0.6432843233	 0.9647441826	-0.316878
H	 0.6044093433	 1.6469014578	-0.7164432484	 0.281055
H	-0.9450836933	-0.2637186663	-1.9456008447	 0.11005
H	 0.0173392404	-1.736024628	-1.4681409131	 0.109676
H	-2.2199054407	-0.3216621064	 0.206101749	 0.097497
H	-2.7196944116	-2.6815065371	 1.7275650598	 0.281652
H	-0.1992331867	-3.9314157342	 1.5074889291	 0.110998
H	 0.2872847423	-3.2178737277	-0.0959396656	 0.107622
H	 0.6194786631	-1.9612435584	 2.735935046	 0.096777
H	 1.9874603236	-0.935377264	 0.4427079083	 0.095688
H	 1.3363146733	 0.1311221456	 1.6902102014	 0.116432
152.6054	205.4008	279.813	287.0846	326.7176	352.5749	389.2979	415.7066	451.3628	480.0083	584.3647	607.8866	683.9242	753.4251	837.09	847.8929	885.7382	903.8224	910.993	939.3259	981.6557	1005.6003	1026.1516	1041.7024	1052.8009	1067.0732	1087.9887	1102.5287	1183.6022	1205.2886	1244.4209	1249.5607	1281.5285	1299.8344	1333.4962	1347.4142	1389.914	1406.9215	1480.4129	1485.2974	1502.8959	3033.1475	3084.2165	3125.436	3133.2346	3177.7356	3188.5292	3211.3518	3217.6492	3795.5642	3796.4827
OC12CC1C1(O)CC1C2	O[C@]12C[C@H]1[C@@]1(O)C[C@H]1C2	
InChI=1S/C7H10O2/c8-6-1-4-2-7(4,9)5(6)3-6/h4-5,8-9H,1-3H2	InChI=1S/C7H10O2/c8-6-1-4-2-7(4,9)5(6)3-6/h4-5,8-9H,1-3H2/t4-,5-,6-,7-/m1/s1
