14
gdb 128110	2.33271	1.54037	0.93368	3.775	73.35	-0.2313	-0.012	0.2192	1172.3738	0.101674	-432.879074	-432.870702	-432.869758	-432.912831	29.116	
C	-0.0119419439	 1.4689759215	 0.0711449727	-0.336078
N	 0.0906062727	 0.0195641441	 0.0044786867	-0.400998
C	 0.6456186334	-0.7229372744	 0.9743031617	 0.501159
C	 0.7269631712	-2.1001136138	 1.1498682733	-0.065572
C	 1.4740713973	-2.2191183072	 2.3553320279	-0.02773
N	 1.8125644253	-1.0706602838	 2.869205212	-0.153547
O	 1.2691971976	-0.0996083244	 1.9714717203	-0.223423
C	 0.1822537267	-3.0827479798	 0.3050855906	 0.174471
N	-0.2855680176	-3.8605604265	-0.4179377507	-0.362112
H	 0.9536911448	 1.8969358173	 0.348738858	 0.165672
H	-0.2884175553	 1.8420990742	-0.9159089285	 0.145564
H	-0.7613196353	 1.7999644642	 0.8002898412	 0.146259
H	-0.4694426765	-0.4780166661	-0.6686873924	 0.280475
H	 1.7715929297	-3.1286813853	 2.8580409371	 0.155859
77.5303	102.2509	113.5978	175.4024	229.1672	282.4167	390.0977	451.6478	541.1876	545.5343	617.5899	629.7327	733.3076	745.0248	872.0781	922.8044	935.8006	1066.0126	1142.548	1156.9607	1202.1092	1218.9151	1327.5465	1434.067	1445.2262	1482.5516	1486.6202	1515.9082	1593.6606	1676.0612	2331.3402	3031.3161	3109.0739	3149.4914	3248.8616	3646.3204
CNC1=C(C=NO1)C#N	CNc1c(cno1)C#N	
InChI=1S/C5H5N3O/c1-7-5-4(2-6)3-8-9-5/h3,7H,1H3	InChI=1S/C5H5N3O/c1-7-5-4(2-6)3-8-9-5/h3,7H,1H3
