19
gdb 100908	2.47716	1.03051	0.75952	2.6884	72.22	-0.2457	0.0317	0.2774	1467.7026	0.158358	-456.341201	-456.330696	-456.329751	-456.377037	37.212	
N	 0.1433453684	 1.5063848522	-0.0762981499	-0.519634
C	 0.132029947	 0.0470372523	-0.0717040264	-0.170393
C	 0.8656328369	-0.4887747077	 1.1793818491	-0.130325
C	 0.1798681926	-0.0416537808	 2.3949044155	 0.274448
N	-0.3830532443	 0.3165649	 3.3393373685	-0.343611
C	 0.9946438901	-2.0236165889	 1.1526626005	 0.132922
O	 1.7004425448	-2.3517975839	-0.0272697912	-0.446461
C	 1.7333413481	-2.5806473601	 2.368690296	-0.120733
O	 1.8954352934	-3.9718941184	 2.1079189696	-0.432395
H	-0.1945785548	 1.8516590063	-0.9682601295	 0.23413
H	-0.4907080571	 1.8652139494	 0.6321062498	 0.241329
H	-0.8721629257	-0.4077880524	-0.1063031715	 0.094563
H	 0.6851643053	-0.3145464241	-0.940883685	 0.140258
H	 1.8723724874	-0.0545167492	 1.1807769201	 0.13844
H	-0.0154361256	-2.4658642454	 1.1353460385	 0.089314
H	 1.9933011198	-3.2645506888	 0.0950845398	 0.296296
H	 2.708068068	-2.0793970169	 2.4631487492	 0.100703
H	 1.1558131546	-2.4056646073	 3.2857155902	 0.121712
H	 2.5123694712	-4.3380514763	 2.747352577	 0.299436
65.0769	96.5331	119.7064	135.1434	165.7444	229.6191	243.8105	271.3117	302.3209	349.25	369.4984	459.3381	480.9195	498.5089	572.3368	631.8829	828.7988	857.3471	903.0305	999.014	1012.7529	1058.8706	1081.9897	1087.9977	1117.0799	1126.9688	1186.1261	1210.2106	1251.3166	1275.3839	1294.4815	1321.4588	1354.2691	1381.7988	1414.1644	1430.2531	1458.1861	1511.0271	1511.2164	1663.5324	2351.3111	2959.2433	2969.091	2995.0239	3049.1626	3056.2461	3113.82	3497.6469	3578.2428	3768.0928	3844.8717
NCC(C#N)C(O)CO	NC[C@@H](C#N)[C@@H](O)CO	
InChI=1S/C5H10N2O2/c6-1-4(2-7)5(9)3-8/h4-5,8-9H,1,3,6H2	InChI=1S/C5H10N2O2/c6-1-4(2-7)5(9)3-8/h4-5,8-9H,1,3,6H2/t4-,5-/m0/s1
