25
gdb 101835	4.63013	0.57575	0.55268	1.7065	90.28	-0.2617	0.0843	0.346	2115.2788	0.227022	-389.480421	-389.469375	-389.468431	-389.517867	39.703	
C	-0.0661727746	 1.4679474088	 0.237333107	-0.391947
C	 0.1085276184	-0.0410564186	 0.0374221483	-0.166513
C	 0.7736577786	-0.4514033189	-1.2912710925	 0.041525
C	 2.2197407711	 0.057179037	-1.3877837024	-0.390298
C	 0.6887387668	-1.9793506191	-1.467843033	-0.172561
C	 1.1313819205	-2.5051272703	-2.8410333646	-0.23626
C	 0.9377278388	-3.996801922	-2.9658804803	 0.102478
C	 1.858367299	-4.8551707083	-3.7203785877	-0.182337
O	 1.8934626705	-4.824277691	-2.2925241169	-0.237196
H	 0.8932697628	 1.9903722997	 0.2976271216	 0.118016
H	-0.6352914197	 1.9126507554	-0.587217789	 0.111431
H	-0.6095194529	 1.677403788	 1.1642140177	 0.111599
H	 0.6920987978	-0.4565455706	 0.8708333454	 0.093212
H	-0.8777102167	-0.519553838	 0.0930683963	 0.089679
H	 0.1955251814	 0.0112837637	-2.1066613006	 0.0636
H	 2.2729968868	 1.1439046285	-1.278281959	 0.113532
H	 2.8405395512	-0.3890507788	-0.6011433738	 0.113403
H	 2.6756533855	-0.1908726843	-2.3505507093	 0.11296
H	 1.2900248631	-2.4718679188	-0.6921446595	 0.109576
H	-0.3494266869	-2.2935882309	-1.2935097514	 0.086813
H	 0.554745129	-2.0071510237	-3.6332784704	 0.096074
H	 2.1873495442	-2.278491266	-3.0215253712	 0.104488
H	-0.0920114477	-4.3440300719	-2.8519812337	 0.087156
H	 1.5008868918	-5.78520794	-4.1608810719	 0.111503
H	 2.7188194712	-4.4089353601	-4.2182550591	 0.110066
41.6852	53.7243	86.0722	110.8522	130.176	209.1065	237.4059	256.8778	275.6646	332.6666	409.7318	426.2153	454.2346	520.6184	759.107	775.807	792.4413	836.067	871.9854	907.5054	947.3843	955.6583	979.3559	1011.6901	1031.59	1064.8791	1069.8078	1092.5277	1149.8388	1159.4655	1169.0267	1176.9648	1190.2394	1236.5882	1272.3839	1295.0042	1301.7791	1325.6799	1330.5056	1378.5962	1381.9656	1389.5907	1410.6517	1412.5989	1447.3108	1469.9546	1482.0808	1493.3113	1497.2876	1499.0907	1508.2291	1513.1401	1530.9759	2978.8503	3006.3125	3012.1159	3016.2411	3030.4202	3032.3672	3042.4687	3051.1452	3072.5039	3079.4688	3089.589	3096.0427	3098.6741	3104.9064	3112.9503	3164.1132
CCC(C)CCC1CO1	CC[C@@H](C)CC[C@H]1CO1	
InChI=1S/C8H16O/c1-3-7(2)4-5-8-6-9-8/h7-8H,3-6H2,1-2H3	InChI=1S/C8H16O/c1-3-7(2)4-5-8-6-9-8/h7-8H,3-6H2,1-2H3/t7-,8+/m1/s1
