18
gdb 53180	3.15748	1.13397	1.0467	1.875	85.83	-0.2107	0.0098	0.2204	1243.993	0.147615	-364.766432	-364.757896	-364.756952	-364.80099	31.311	
C	 0.1137255496	 1.5466308522	-0.0779206593	-0.499966
C	 0.0616325856	 0.0933799295	-0.0194237478	 0.048109
C	 0.0285437196	-1.1100952841	 0.0444111517	 0.140011
C	 0.0019315514	-2.5432640753	 0.0424215563	-0.221662
C	-0.4547236206	-3.3624695361	 1.2246172807	-0.076514
C	-1.219053522	-2.6605782229	 2.2896009481	-0.074031
C	-2.3593959361	-2.1851985133	 1.7901616706	-0.073335
C	-2.4876582714	-2.547284267	 0.3278257428	-0.20906
N	-1.2672298036	-3.3189777621	-0.0088981364	-0.123389
H	 1.1085356917	 1.9183714089	 0.1920941201	 0.150305
H	-0.115700351	 1.9161661363	-1.0836906136	 0.148958
H	-0.6062140888	 1.9975277323	 0.6139647151	 0.149167
H	 0.7608494517	-2.9998410252	-0.5906228858	 0.109745
H	 0.073988178	-4.2866494073	 1.4471596474	 0.094491
H	-0.8626389549	-2.5560248577	 3.3062348222	 0.101294
H	-3.0939042737	-1.5918223354	 2.3218057959	 0.099813
H	-3.3649736876	-3.1759132542	 0.1284236266	 0.113017
H	-2.5684237979	-1.6619776186	-0.3155519848	 0.123046
25.3058	87.2539	102.7143	225.8018	252.7017	328.6838	386.7902	436.3742	533.8337	584.1889	710.5412	717.4273	757.2837	773.2867	838.3969	865.8114	921.7024	952.2436	961.6792	1018.0684	1028.5299	1051.2953	1053.0041	1078.3299	1098.0621	1125.1701	1171.2253	1214.6054	1270.8922	1308.7171	1346.4072	1369.0622	1379.7556	1414.394	1476.5625	1478.51	1482.3548	1669.4749	2361.6368	3017.7839	3025.7425	3050.1717	3085.1734	3087.9101	3114.4809	3131.3929	3198.6478	3226.1846
CC#CC1C2C=CCN12	CC#C[C@H]1[C@H]2C=CCN12	
InChI=1S/C8H9N/c1-2-4-7-8-5-3-6-9(7)8/h3,5,7-8H,6H2,1H3	InChI=1S/C8H9N/c1-2-4-7-8-5-3-6-9(7)8/h3,5,7-8H,6H2,1H3/t7-,8+,9?/m0/s1
