23
gdb 104713	2.50879	1.11591	0.92039	2.2021	81.7	-0.247	0.0718	0.3188	1390.7494	0.203277	-425.40807	-425.397638	-425.396694	-425.443241	38.971	
C	-0.3362506852	 1.498009744	 0.2718063093	-0.380863
C	 0.0292186895	 0.0640011224	-0.1231993107	-0.250587
C	 0.7346797453	-0.7083631492	 0.9910181326	 0.426603
C	-0.0854075017	-1.0489178411	 2.2658664787	-0.300284
C	 0.5782733996	-2.4513091222	 2.2718103346	 0.166071
O	-0.1673408541	-3.5806825546	 2.6477973492	-0.431273
C	 0.967688058	-2.2407240763	 0.7841951709	-0.327814
O	 1.91484685	-0.053125679	 1.4538788484	-0.29644
C	 2.9464977591	 0.1208438559	 0.5071175478	-0.252236
H	 0.5528356221	 2.0655801581	 0.5593561444	 0.129142
H	-0.8251724274	 2.0211795497	-0.5553824778	 0.109137
H	-1.0215397949	 1.5091441009	 1.1259720702	 0.119182
H	-0.8759363556	-0.4901238992	-0.3985597364	 0.089815
H	 0.6576065359	 0.0701372307	-1.0232117813	 0.096062
H	 0.0694808303	-0.3984090528	 3.1281442209	 0.111464
H	-1.156459533	-1.1183366279	 2.0455123446	 0.085064
H	 1.4650259801	-2.4575795951	 2.9088542442	 0.103328
H	-0.9637594969	-3.6059147321	 2.1068475393	 0.27384
H	 0.21328794	-2.6672624822	 0.1135693875	 0.086674
H	 1.9548979699	-2.5743454472	 0.457399605	 0.102839
H	 3.2130242859	-0.8166025203	-0.0014388413	 0.105772
H	 2.6947823492	 0.867753818	-0.2588727714	 0.107849
H	 3.8209590241	 0.4756852293	 1.0587908113	 0.126656
80.4159	100.1208	120.2219	176.0343	204.0856	210.5986	261.256	307.4096	339.6495	351.4785	376.4841	401.7413	465.8933	527.6074	615.3554	725.6474	785.7909	814.9662	855.761	929.2861	962.5008	987.5715	994.8084	1023.1912	1065.4248	1079.7466	1104.8228	1112.397	1148.3238	1178.5407	1197.2365	1213.0081	1220.2049	1251.7774	1280.7816	1286.987	1322.3578	1335.608	1365.9585	1412.1326	1432.0079	1453.4203	1472.4474	1476.0593	1484.142	1495.9534	1498.8921	1503.9731	1512.9246	2988.9868	3022.6553	3038.4663	3039.9618	3042.9435	3048.3044	3057.2062	3092.2147	3104.5911	3108.3511	3112.2313	3118.9641	3126.2866	3804.0892
CCC1(CC(O)C1)OC	CC[C@]1(C[C@@H](O)C1)OC	
InChI=1S/C7H14O2/c1-3-7(9-2)4-6(8)5-7/h6,8H,3-5H2,1-2H3	InChI=1S/C7H14O2/c1-3-7(9-2)4-6(8)5-7/h6,8H,3-5H2,1-2H3/t6-,7-
