20
gdb 60612	2.26162	1.37103	1.09769	6.0375	75.16	-0.2482	0.029	0.2772	1204.1769	0.170327	-440.30738	-440.297867	-440.296923	-440.342168	34.802	
C	-2.1770939542	 1.056964927	 2.183723494	-0.400945
C	-1.5521947283	-0.2994072567	 1.7862516815	-0.126412
C	-0.0710709838	-0.3118798558	 2.149126231	-0.021738
N	 0.3417853932	-0.9398934426	 3.4244051626	-0.370433
H	 1.0309067093	-0.3929412598	 3.9284091354	 0.245954
H	-1.209676182	-1.5824324509	 3.8078102988	 0.322271
C	 0.8528873832	-1.480243621	 2.1456566162	 0.000323
C	 0.4930309882	-2.8949306332	 1.7583131354	-0.423234
C	-2.4588896599	-1.4002536057	 2.3722332219	 0.390277
O	-3.4639072685	-1.7385838517	 1.8020297266	-0.345688
O	-2.1236825663	-1.8943703472	 3.5697066514	-0.382129
H	-1.6489476516	 1.8831417457	 1.6969958331	 0.11423
H	-3.2261190141	 1.0901268332	 1.8822283169	 0.147505
H	-2.124749159	 1.2088626361	 3.2668520988	 0.127157
H	-1.6399623582	-0.4063177724	 0.7003911723	 0.114322
H	 0.4079610078	 0.6395727036	 1.921138964	 0.094898
H	 1.8879120748	-1.2206507062	 1.9267223871	 0.096456
H	-0.5286494114	-3.1563310003	 2.0345932035	 0.159957
H	 0.606061957	-3.0278737417	 0.6774708645	 0.129106
H	 1.1648959638	-3.6030146606	 2.254426025	 0.128123
49.5946	89.9864	144.7734	162.4325	227.8484	264.3184	273.0696	295.7866	373.078	419.4013	506.0293	570.0231	679.499	753.436	767.9045	781.2376	844.2643	887.8816	956.9861	961.6071	985.7442	1022.9093	1033.5882	1081.5894	1085.6862	1114.9373	1157.0549	1183.6531	1254.1177	1266.8141	1292.4479	1309.9033	1344.6237	1394.9437	1408.0912	1429.972	1459.2696	1484.1718	1493.9535	1496.0953	1504.9888	1506.4024	1846.6364	3037.3498	3044.8427	3063.0978	3103.3355	3104.5982	3107.3333	3117.9349	3132.8739	3153.848	3196.7122	3536.4124
CC(C1[NH2+]C1C)C([O-])=O	C[C@@H]([C@H]1N[C@H]1C)C(=O)O	
InChI=1S/C6H11NO2/c1-3(6(8)9)5-4(2)7-5/h3-5,7H,1-2H3,(H,8,9)	InChI=1S/C6H11NO2/c1-3(6(8)9)5-4(2)7-5/h3-5,7H,1-2H3,(H,8,9)/t3-,4-,5+/m0/s1
