13
gdb 127784	3.66833	1.72628	1.18267	3.9438	66.73	-0.2614	-0.0585	0.2029	947.7013	0.092867	-445.061656	-445.054999	-445.054055	-445.093032	24.381	
C	 0.00400374	 1.4426323559	-0.0275614542	-0.343522
N	-0.0057588643	 0.0008867424	 0.0778434247	-0.115359
N	-0.0734254142	-0.782832733	-1.0600281809	-0.119794
N	-0.0723912634	-2.0411549442	-0.7627615952	-0.27369
C	-0.0031597279	-2.1165036917	 0.605008444	 0.364868
N	 0.0382700309	-3.0139562331	 1.5995500846	-0.29539
N	 0.1005454576	-2.2113394473	 2.6574160906	-0.077634
N	 0.1068230243	-0.87424376	 2.4775403781	-0.345766
C	 0.0391340741	-0.828053403	 1.1467271962	 0.423396
H	 0.9223323886	 1.8541146007	 0.4009566953	 0.153795
H	-0.046763187	 1.6888263665	-1.0883897344	 0.171703
H	-0.8579143902	 1.8728001268	 0.490464819	 0.153778
H	 0.1435515514	-2.5946726199	 3.5894673321	 0.303616
102.2633	153.2041	262.9415	293.1375	382.4547	544.1679	560.814	630.519	654.6019	694.6591	733.9524	810.8826	848.0436	965.6733	991.0483	1139.3408	1154.8182	1168.9097	1215.5784	1225.9551	1329.6511	1363.3044	1446.9409	1463.1252	1481.4663	1486.4836	1510.5459	1522.8867	1650.1845	3047.8041	3112.7151	3161.0564	3654.7574
CN1N=NC2=NNN=C12	Cn1nnc2n[nH]nc12	
InChI=1S/C3H4N6/c1-9-3-2(5-8-9)4-7-6-3/h1H3,(H,4,6,7)	InChI=1S/C3H4N6/c1-9-3-2(5-8-9)4-7-6-3/h1H3,(H,4,6,7)
