16
gdb 45096	2.81364	1.75132	1.27672	2.5649	67.77	-0.2395	-0.024	0.2156	964.6918	0.125928	-437.861157	-437.854256	-437.853312	-437.892538	27.343	
O	 0.039847788	-0.0380585781	 0.0540831745	-0.318867
C	 0.0077631715	 1.1702088571	 0.0033590807	 0.419974
C	-1.2953835652	 1.965750873	-0.0145028371	-0.34808
C	-1.3288392233	 3.0148149766	-1.1250376164	 0.016717
O	-1.0556914177	 4.3717456188	-0.7682839206	-0.234726
C	-0.0771839593	 3.6714140842	-1.5325299286	 0.066956
C	 1.211311031	 3.2795100153	-0.8503426792	-0.071865
N	 1.2163610554	 3.2911561571	 0.6049678151	-0.316715
C	 1.2628631342	 1.9836932083	-0.0835439678	-0.149169
H	-2.1186688827	 1.2558567106	-0.1109592552	 0.124258
H	-1.3877908286	 2.4859427593	 0.9451749384	 0.15993
H	-2.1259379353	 2.9029328735	-1.8586454182	 0.106312
H	 0.0364189191	 4.0179207891	-2.5592127856	 0.093994
H	 2.1206573462	 3.5682416024	-1.3710199063	 0.098417
H	 2.1395353687	 3.5280185385	 0.9571331436	 0.248415
H	 2.1816680981	 1.4056183042	-0.0865181873	 0.104447
97.8188	199.0057	256.8342	378.6346	426.9221	457.4991	476.6596	555.9811	625.4969	714.0031	762.5697	820.8872	833.0179	865.3627	903.6936	922.7441	942.8957	987.1569	1016.1733	1059.9633	1083.879	1118.6551	1144.6128	1174.9451	1203.1766	1223.1459	1262.1502	1292.2263	1303.2522	1372.0945	1389.7198	1436.1923	1445.002	1466.3977	1810.203	3058.5456	3108.8559	3117.5547	3131.8631	3143.6346	3167.6514	3518.976
O=C1CC2OC2C2NC12	O=C1C[C@H]2O[C@H]2[C@H]2N[C@@H]12	
InChI=1S/C6H7NO2/c8-2-1-3-6(9-3)5-4(2)7-5/h3-7H,1H2	InChI=1S/C6H7NO2/c8-2-1-3-6(9-3)5-4(2)7-5/h3-7H,1H2/t3-,4+,5+,6-/m1/s1
