19
gdb 115428	4.30733	0.90743	0.82939	4.8942	76.82	-0.2422	0.0244	0.2665	1405.6031	0.160237	-419.207338	-419.198193	-419.197249	-419.24253	32.66	
C	 0.4859119471	 0.8285452827	-0.4581232673	-0.240943
O	-0.0786727392	-0.3548712669	 0.0598125688	-0.248263
C	-1.4855440781	-0.3061626611	 0.2346811991	 0.097113
C	-2.2514424719	-0.529937126	-1.0987928527	-0.18101
N	-2.5901313673	-1.9697654793	-1.1797765447	-0.312158
C	-1.9719098131	-2.6224340523	-0.0072864647	-0.091516
C	-1.8696403582	-1.5239015047	 1.0771202431	-0.232879
C	-2.7275907757	-3.7992952933	 0.4151320837	 0.260061
N	-3.3390841275	-4.7164959308	 0.7617767541	-0.320244
H	 1.5674750706	 0.6792379776	-0.4934900025	 0.134274
H	 0.1325524927	 1.0576240564	-1.4742062221	 0.110559
H	 0.2660145297	 1.6942249718	 0.1859978625	 0.107802
H	-1.7669245593	 0.6417134559	 0.7146893039	 0.072747
H	-3.1583649673	 0.0811226574	-1.1469382625	 0.107064
H	-1.6152773578	-0.2409206546	-1.9421498151	 0.11846
H	-3.5947059558	-2.0915460071	-1.1318231499	 0.234056
H	-0.9579534529	-2.9460020179	-0.2737757331	 0.140901
H	-1.1274007409	-1.7332030339	 1.8486617151	 0.128905
H	-2.846600385	-1.3751340838	 1.5466952341	 0.115073
31.5985	74.024	117.4201	163.3466	204.5538	251.9993	308.3857	386.7136	441.5051	541.4522	550.9519	594.3789	715.1137	780.9411	814.7149	878.0209	909.8124	947.683	1015.3952	1038.4816	1055.3798	1086.0443	1113.6988	1140.3049	1182.7691	1195.88	1213.7142	1251.6269	1268.9692	1305.6659	1329.6926	1350.2783	1357.5391	1392.3879	1467.0729	1478.8843	1480.2893	1490.8308	1501.0292	1510.6964	2362.3039	2978.0173	3003.7923	3027.2863	3033.4021	3042.8798	3068.4173	3080.0361	3119.0347	3136.091	3545.4614
COC1CNC(C1)C#N	CO[C@H]1CN[C@@H](C1)C#N	
InChI=1S/C6H10N2O/c1-9-6-2-5(3-7)8-4-6/h5-6,8H,2,4H2,1H3	InChI=1S/C6H10N2O/c1-9-6-2-5(3-7)8-4-6/h5-6,8H,2,4H2,1H3/t5-,6+/m0/s1
