15
gdb 33964	3.48885	1.44383	1.25435	3.282	69.42	-0.2503	-0.0122	0.2381	991.8248	0.113869	-416.769876	-416.762995	-416.762051	-416.801125	26.946	
N	-0.0248785116	-1.1227277525	-0.1075168029	-0.326275
C	 0.0228282249	 0.0277140371	-0.0102949979	 0.217222
C	 0.0586555094	 1.4603575372	 0.1449706557	 0.301172
O	 0.3111430703	 2.2323193352	-1.0387665112	-0.276642
C	 1.2852207953	 2.2809247042	 0.0068795231	-0.028269
C	 1.1431267007	 3.4659792935	 0.9490661755	-0.199363
N	-0.1671292264	 3.365454708	 1.6291862926	-0.1048
C	-1.3644774945	 3.4775253897	 0.7861298842	-0.240751
C	-0.8406966876	 2.1376939104	 1.1598825979	-0.117677
H	 2.2577943607	 1.8603425738	-0.2388577316	 0.127438
H	 1.9297925627	 3.4162600864	 1.7099759507	 0.129427
H	 1.2396167915	 4.4215194486	 0.4240582241	 0.134083
H	-2.2348206732	 3.8728571431	 1.3019605083	 0.125584
H	-1.2538501252	 3.7777834531	-0.2505048673	 0.143035
H	-1.3219425272	 1.5034133224	 1.8972124488	 0.115816
138.6324	157.5556	273.7913	325.3996	416.582	473.8072	509.5177	547.2506	623.1796	702.685	714.658	788.1664	823.833	874.9279	916.0732	955.6244	970.8487	1018.6765	1057.2326	1084.3379	1106.7166	1127.6906	1154.9304	1180.6231	1233.5636	1275.1561	1279.2976	1330.7772	1360.7444	1424.1056	1480.4916	1500.0436	2364.2897	3047.1436	3092.9127	3119.69	3148.1481	3168.2638	3215.3956
N#CC12OC1CN1CC21	N#C[C@]12O[C@H]1CN1C[C@@H]21	
InChI=1S/C6H6N2O/c7-3-6-4-1-8(4)2-5(6)9-6/h4-5H,1-2H2	InChI=1S/C6H6N2O/c7-3-6-4-1-8(4)2-5(6)9-6/h4-5H,1-2H2/t4-,5-,6+,8?/m0/s1
