18
gdb 105211	2.1911	1.60079	1.0927	13.0579	70.52	-0.1819	-0.0137	0.1683	1128.4425	0.146311	-476.159935	-476.150761	-476.149817	-476.19389	33.809	
C	-0.6007088814	 0.8993436006	 0.0978165218	-0.269205
O	 0.5474434685	 0.0240099919	 0.1020831326	-0.351362
C	 0.9693886527	-0.4382564274	-1.1724448984	 0.285012
C	 2.1123792212	-1.4078725182	-1.0523315114	-0.327796
C	 0.734639019	-1.9448307492	-1.3089794848	-0.123883
N	 0.0530311251	-2.4603727722	-0.0887399568	-0.416883
H	 0.0707878369	-1.5950200036	 0.5250098411	 0.323717
H	-0.9142052755	-2.7233000233	-0.2772692456	 0.319618
H	 0.5283961309	-3.2424353669	 0.3630767576	 0.31377
C	 0.8752635551	 0.3779743776	-2.5161292873	 0.328005
O	 0.5857790369	 1.5763758968	-2.4192649953	-0.460019
O	 1.1358554271	-0.3600627646	-3.4822383069	-0.475446
H	-0.4192338654	 1.7134634068	-0.6038251395	 0.208387
H	-1.5087671236	 0.3559834362	-0.202928432	 0.085877
H	-0.7090493721	 1.2463687008	 1.1275177501	 0.117043
H	 2.7917319775	-1.4464335964	-1.893272543	 0.174429
H	 2.5443206198	-1.5620716083	-0.0661642959	 0.107836
H	 0.4360389173	-2.3881933807	-2.2474315863	 0.160901
77.6811	107.5412	162.4697	174.8469	234.8187	283.7912	326.7605	352.0657	390.6923	424.9712	480.3305	516.5097	626.647	743.319	768.2035	817.7772	849.0074	885.4444	929.7599	964.677	1018.1764	1061.1971	1084.1517	1128.4505	1160.1445	1181.1275	1192.8674	1220.4585	1241.1945	1330.9042	1350.452	1405.0011	1441.8894	1452.2091	1482.891	1526.6896	1629.6645	1676.9265	1797.5147	2880.4071	2991.7972	3100.4518	3119.3453	3164.1683	3240.4511	3245.6863	3455.3037	3526.1031
COC1(CC1[NH3+])C([O-])=O	CO[C@]1(C[C@H]1[NH3])C(=O)[O]	
InChI=1S/C5H9NO3/c1-9-5(4(7)8)2-3(5)6/h3H,2,6H2,1H3,(H,7,8)	InChI=1S/C5H9NO3/c1-9-5(4(7)8)2-3(5)6/h3H,2H2,1,6H3/t3-,5+/m1/s1
