16
gdb 45712	3.16265	1.60396	1.14661	4.5373	71.48	-0.2188	-0.0193	0.1995	1026.284	0.126501	-437.913287	-437.906006	-437.905062	-437.945342	27.681	
O	-0.0320438355	-0.0269393061	 0.030776092	-0.344041
C	 0.012156855	 1.1756095346	 0.0337890245	 0.372274
N	-1.0795247399	 2.040009523	 0.1242363619	-0.327495
C	-0.6605486656	 3.3734503691	 0.3244027665	-0.131866
C	 0.6529439273	 3.49014737	 0.116733082	 0.175493
C	 1.7718216584	 4.3439980938	 0.6090213144	-0.338392
C	 2.6030733749	 3.2459294113	 1.3297415174	-0.058651
O	 2.3608951762	 1.998158277	 0.6506652692	-0.270859
C	 1.2223633774	 2.1325049194	-0.1835892846	-0.027141
H	-2.0069319066	 1.6993022744	 0.3218968463	 0.260076
H	-1.3768775454	 4.1082087828	 0.6656513164	 0.13168
H	 2.3504600459	 4.7883905047	-0.2098397376	 0.116628
H	 1.4675907954	 5.1432423978	 1.2882691978	 0.115365
H	 3.6802969844	 3.4359633209	 1.3074433469	 0.112165
H	 2.2858602059	 3.1585937159	 2.3775771485	 0.105581
H	 1.5240435524	 1.9949658613	-1.2352429016	 0.109184
88.7551	120.7281	225.4036	286.2723	323.5087	478.114	511.8558	574.4429	623.708	660.1731	716.109	768.9052	845.8134	857.926	895.2504	927.1543	936.2112	974.3875	1047.0469	1080.9206	1091.5752	1168.0258	1182.5732	1210.8906	1221.6202	1279.2549	1299.3664	1329.1978	1355.6438	1380.3297	1393.6433	1486.7742	1521.5048	1731.4714	1855.2646	2966.8618	3012.2111	3031.0069	3082.0367	3110.3178	3229.0313	3646.2687
O=C1NC=C2CCOC12	O=C1N[CH][C]2CCO[C@@H]12	
InChI=1S/C6H7NO2/c8-6-5-4(3-7-6)1-2-9-5/h3,5H,1-2H2,(H,7,8)	InChI=1S/C6H7NO2/c8-6-5-4(3-7-6)1-2-9-5/h3,5H,1-2H2,(H,7,8)/t5-/m1/s1
