19
gdb 126953	4.98352	0.80714	0.70645	2.3662	80.82	-0.18	0.0491	0.2291	1606.4979	0.160859	-415.403498	-415.393896	-415.392952	-415.438416	34.91	
C	 0.0594169243	 1.5554549449	-0.0301041402	-0.394862
C	-0.1385672788	 0.0482013503	-0.1580568363	-0.110387
N	 0.8514657011	-0.5210799452	-1.0623846814	-0.384016
C	 0.8225108931	-1.8856380211	-1.3190725451	 0.427206
N	 1.2199263762	-2.3494876875	-2.4979783178	-0.345342
N	 1.1496853182	-3.7133790933	-2.3524799986	-0.251488
C	 0.6864600056	-4.0878451873	-1.1388525718	 0.402063
N	 0.4523705242	-5.4310709457	-0.8315490066	-0.608315
C	 0.4671571112	-2.9287460032	-0.4190067034	-0.377064
H	 1.0686364369	 1.7846753485	 0.3242112163	 0.12811
H	-0.0817996817	 2.054303457	-0.995975106	 0.11579
H	-0.6633557949	 1.9817853861	 0.6713285844	 0.116734
H	-0.0127032914	-0.4184819368	 0.8259772918	 0.108797
H	-1.1722272792	-0.1687389067	-0.4779935377	 0.09086
H	 0.9525841867	 0.0014899968	-1.9237583482	 0.231061
H	 1.2559519557	-4.2922062614	-3.1665052815	 0.262785
H	 1.2294179088	-6.0351713452	-1.0727845357	 0.248575
H	 0.229320708	-5.55575653	 0.1467665589	 0.254012
H	 0.1411271562	-2.8545887701	 0.6048223189	 0.08548
61.5143	73.7624	121.5663	168.7058	222.4984	258.7727	296.7874	313.0866	359.0199	433.8659	479.3072	613.6178	651.3131	679.8631	703.99	742.133	777.0581	803.1015	819.9976	933.7988	999.264	1048.9329	1075.8827	1108.0001	1136.3174	1149.9734	1197.5056	1211.0129	1292.9794	1333.0596	1369.8318	1409.0301	1431.7347	1475.907	1493.2712	1500.8457	1521.8569	1536.7744	1586.4605	1624.5738	1660.9302	2953.2177	3033.9131	3046.13	3101.7626	3120.396	3266.938	3530.9191	3562.2462	3627.8092	3687.5729
CCNC1=NNC(N)=C1	CCNc1n[nH]c(N)c1	
InChI=1S/C5H10N4/c1-2-7-5-3-4(6)8-9-5/h3H,2H2,1H3,(H4,6,7,8,9)	InChI=1S/C5H10N4/c1-2-7-5-3-4(6)8-9-5/h3H,2H2,1H3,(H4,6,7,8,9)
