21
gdb 95345	2.95186	1.41639	1.11156	1.7236	78.63	-0.2443	0.0853	0.3296	1161.8304	0.183881	-424.22139	-424.213226	-424.212281	-424.25402	31.948	
C	-0.012151104	 1.5293342165	 0.0646761797	-0.399249
C	 0.0336429532	 0.0127805086	-0.0427851023	 0.147838
C	 0.8348125926	-0.4915857266	-1.2463812626	-0.200287
C	 0.781168337	-2.0224596969	-1.3082798622	-0.255507
C	 1.0737231825	-2.6536196551	 0.0403709104	 0.13003
O	 2.4725996871	-2.6529994596	 0.4154830162	-0.297148
C	 2.1308788866	-2.2523772255	 1.7613759294	-0.087022
C	 0.7132905125	-1.8561651446	 1.3205989976	 0.065098
O	 0.6389918152	-0.4556410019	 1.16351171	-0.280399
H	 1.0017022317	 1.935800927	 0.1322089067	 0.1243
H	-0.5039566521	 1.9621773349	-0.8114753547	 0.112584
H	-0.5619793459	 1.831921188	 0.9598965144	 0.121777
H	-0.9985177697	-0.3769087109	-0.1100388799	 0.058041
H	 0.4392327275	-0.0600486861	-2.1721696971	 0.092275
H	 1.8700041355	-0.1499259162	-1.1343574371	 0.114161
H	-0.2223990728	-2.3396949062	-1.6213858102	 0.098278
H	 1.4854553147	-2.4222610276	-2.046424589	 0.113012
H	 0.6762663869	-3.6785384686	 0.083883833	 0.065772
H	 2.1705687263	-3.0981219105	 2.4610962636	 0.092685
H	 2.7503894274	-1.4281706387	 2.1255561784	 0.114264
H	-0.1349493422	-2.2259126599	 1.910994186	 0.069498
103.9843	129.5912	208.0726	223.1654	285.394	340.1303	403.787	453.8756	475.5116	482.8396	644.5979	784.1971	790.4445	841.7622	862.2046	899.0583	928.9713	945.5047	982.4945	1000.1945	1011.695	1055.018	1082.4917	1100.4872	1136.6564	1154.8267	1162.9386	1196.2512	1230.1947	1242.2144	1259.0758	1296.715	1333.0766	1345.3811	1362.9536	1366.8308	1391.3258	1398.9074	1403.6036	1413.9895	1466.4928	1478.5379	1484.4017	1500.8603	1504.6752	2935.1819	2984.5249	3007.125	3021.3347	3028.3171	3038.0692	3043.7972	3070.1879	3087.6012	3094.3209	3116.8024	3121.5973
CC1CCC2OCC2O1	C[C@H]1CC[C@H]2OC[C@H]2O1	
InChI=1S/C7H12O2/c1-5-2-3-6-7(9-5)4-8-6/h5-7H,2-4H2,1H3	InChI=1S/C7H12O2/c1-5-2-3-6-7(9-5)4-8-6/h5-7H,2-4H2,1H3/t5-,6+,7+/m0/s1
