17
gdb 47404	2.77679	1.56033	1.19729	3.3233	68.16	-0.2478	-0.0374	0.2104	1046.6349	0.135774	-458.958401	-458.950483	-458.949539	-458.991636	29.068	
O	-0.1060295956	 0.0121967952	-0.0069385742	-0.306187
C	-0.099197204	 1.2142450596	 0.0152932965	 0.330869
C	-1.2982494656	 2.1587562427	 0.0829828503	-0.341998
C	-0.6385524969	 3.4890607189	 0.4496169506	-0.108325
O	 0.6870218979	 3.4199407817	-0.095944552	-0.298296
C	 1.1488761244	 2.093846134	-0.0161415863	 0.243254
C	 2.2392342653	 1.7689028363	 1.0484263291	-0.114178
O	 3.1865188476	 1.4095790759	 0.0289412428	-0.265841
C	 2.2580873573	 1.7282022775	-1.0228418087	-0.115407
H	-1.7542861714	 2.1998759047	-0.9131214149	 0.146365
H	-2.0513915552	 1.8000756266	 0.7865695275	 0.139866
H	-1.1228459611	 4.3650985116	 0.0146904314	 0.124066
H	-0.5964896446	 3.6222736913	 1.540687424	 0.107242
H	 2.547857375	 2.6513496325	 1.6219474019	 0.110154
H	 2.0196915324	 0.9309107075	 1.7197261101	 0.114543
H	 2.0434274144	 0.8631596187	-1.6601671339	 0.118501
H	 2.5789274802	 2.5832768753	-1.628937214	 0.115373
60.3735	87.4678	165.5294	203.5368	275.8312	391.2748	427.2186	530.1235	553.6527	661.0847	680.9117	799.9381	833.7854	880.845	919.8782	959.3083	981.3003	1010.5247	1018.4103	1050.0522	1093.7364	1101.953	1157.1571	1164.157	1195.6321	1216.8247	1239.2293	1271.8866	1284.1289	1304.4175	1368.3005	1390.1649	1447.7545	1488.3534	1514.4726	1522.3328	1853.7591	2998.2284	3015.7952	3028.5659	3052.3672	3076.3856	3082.2983	3111.8357	3127.3
O=C1CCOC11COC1	O=C1CCOC21COC2	
InChI=1S/C6H8O3/c7-5-1-2-9-6(5)3-8-4-6/h1-4H2	InChI=1S/C6H8O3/c7-5-1-2-9-6(5)3-8-4-6/h1-4H2
