20
gdb 105454	2.69219	1.11986	0.91748	3.4492	79.1	-0.2698	0.0124	0.2822	1336.7833	0.169028	-403.138632	-403.128808	-403.127864	-403.174522	35.634	
C	 0.9175840074	-0.1930815124	 0.9004691619	-0.375964
C	-0.0738611773	-0.1177234551	-0.2657636665	-0.252115
C	-1.4726883909	-0.5679550048	 0.1119965132	 0.434767
C	-2.4039896646	-1.1479933491	-0.9233471274	-0.332917
C	-1.7960038607	-2.0303786533	 0.1487092141	-0.311323
O	-2.0568817709	 0.1520537562	 1.185991575	-0.277543
C	-2.4367881933	 1.4784717189	 0.9084447768	-0.213965
C	-3.7107236399	 1.5936076136	 0.1690278472	 0.265361
N	-4.7138379098	 1.7014031951	-0.3941140495	-0.310431
H	 1.9080473156	 0.1576367144	 0.59633117	 0.113003
H	 0.5814102383	 0.4204897554	 1.7408868733	 0.125757
H	 1.0179129669	-1.2209683705	 1.2631462077	 0.122668
H	-0.0995601182	 0.9036652191	-0.6686401203	 0.097496
H	 0.268666984	-0.7478349792	-1.0940039809	 0.106158
H	-3.4592059315	-0.9225826592	-0.8374239775	 0.145836
H	-2.0421705029	-1.2379615975	-1.9420164463	 0.116677
H	-1.0170295738	-2.7323401684	-0.1281899945	 0.115093
H	-2.4523386631	-2.3644901068	 0.9435160435	 0.128887
H	-2.5636741509	 1.9745357136	 1.8759434931	 0.1592
H	-1.6679906543	 2.03123	 0.3531899572	 0.143356
20.5325	81.2195	121.439	190.3451	203.7357	242.9396	268.0114	342.9147	358.3869	371.7258	443.576	517.216	631.9605	682.5807	770.8117	787.5116	874.2916	904.7128	912.2591	941.9154	968.3123	1006.9954	1048.7894	1056.0973	1080.4272	1084.8159	1099.9911	1120.7716	1189.4296	1245.7021	1283.6165	1308.0292	1343.4052	1385.0904	1394.8993	1410.9612	1458.3139	1468.3837	1487.2604	1494.1435	1500.6177	1510.0839	2356.3771	3016.0677	3031.3976	3042.5657	3064.0431	3086.4602	3110.6765	3119.0984	3139.2672	3145.6436	3226.7798	3242.2525
CCC1(CC1)OCC#N	CCC1(CC1)OCC#N	
InChI=1S/C7H11NO/c1-2-7(3-4-7)9-6-5-8/h2-4,6H2,1H3	InChI=1S/C7H11NO/c1-2-7(3-4-7)9-6-5-8/h2-4,6H2,1H3
