15
gdb 47357	2.59267	1.4838	1.20452	5.1334	67.12	-0.265	-0.0027	0.2622	1043.1914	0.113864	-453.962482	-453.954683	-453.953738	-453.995627	28.354	
N	-0.0160289797	 1.2804953814	 0.4578599232	-0.527146
C	 0.0409752178	 0.1057883205	 0.0127811812	 0.475573
O	 1.2017151674	-0.5729085576	-0.1733573545	-0.264578
C	 1.2552799833	-1.7398855583	-1.0050107233	-0.089692
C	 0.0249790673	-2.6031232257	-0.7962424685	-0.248828
C	-1.2000199923	-1.7125541249	-1.0092056642	-0.021576
O	-1.138584565	-0.5514335991	-0.1888732349	-0.238521
C	-1.3524525941	-1.3357384279	-2.4311517525	 0.279261
N	-1.4590401017	-1.0623198046	-3.5483512004	-0.30961
H	 0.9249747115	 1.6348184281	 0.6154193127	 0.234401
H	 1.3398559346	-1.4302155236	-2.0544317909	 0.143706
H	 2.1733345337	-2.257752283	-0.7219562634	 0.135768
H	 0.0145671494	-3.4458018236	-1.4922059325	 0.141057
H	-0.0042312297	-2.9899863236	 0.2264456376	 0.137781
H	-2.1161516024	-2.224599338	-0.7020689997	 0.152405
59.629	86.6793	168.0263	225.3967	328.8268	407.0568	445.848	486.2267	594.192	600.8002	690.5762	733.4068	787.0679	831.8771	869.9246	917.4748	947.7228	994.2029	1049.6605	1098.7582	1110.6789	1168.2327	1239.3092	1248.2396	1292.6754	1326.2629	1375.025	1389.7049	1436.6517	1470.1077	1515.9231	1770.5679	2359.3591	3034.5469	3065.6873	3082.5881	3116.4774	3123.3347	3531.9412
N=C1OCCC(O1)C#N	[NH][C]1OCC[C@@H](O1)C#N	
InChI=1S/C5H6N2O2/c6-3-4-1-2-8-5(7)9-4/h4,7H,1-2H2	InChI=1S/C5H6N2O2/c6-3-4-1-2-8-5(7)9-4/h4,7H,1-2H2/t4-/m1/s1
