18
gdb 50429	3.20943	1.29121	1.02923	2.7842	77.84	-0.2359	-0.0211	0.2147	1154.1956	0.149083	-401.942882	-401.935048	-401.934104	-401.975827	29.879	
O	-0.2333648427	 0.0849279359	 0.1051546863	-0.249248
C	-0.0459589179	 1.2716463168	 0.0270000034	 0.148499
C	 1.3148142759	 1.9405222155	 0.0002426161	-0.071858
C	 1.4731355791	 2.7583459182	-1.3083507897	-0.286511
C	 2.6406355102	 3.7086294233	-1.2628552415	-0.090772
C	 3.0450343322	 4.2872999864	-0.1316922005	-0.009658
C	 2.3709884323	 4.0023851113	 1.1569204869	-0.09017
N	 0.8879130151	 4.151425374	 1.1944739972	-0.333538
C	 1.4798093672	 2.8097090829	 1.2395553055	-0.0549
H	-0.897160079	 1.9898795296	-0.0252954249	 0.084184
H	 2.0708265828	 1.1486992173	 0.0377300468	 0.095909
H	 1.5746312866	 2.0659658983	-2.1504851075	 0.114434
H	 0.5503853015	 3.3267165558	-1.4832509779	 0.134638
H	 3.1435102418	 3.9272534996	-2.2003926233	 0.096134
H	 3.8852700053	 4.9746379753	-0.1240060364	 0.091003
H	 2.9093552048	 4.2797746649	 2.0587280862	 0.089628
H	 0.5952942204	 4.4346178195	 2.1264283794	 0.234853
H	 1.4550522843	 2.2690508754	 2.1834962139	 0.097372
57.4463	95.5696	214.8144	285.1198	301.2691	366.8972	450.9549	506.1088	513.8868	657.6983	712.2763	749.5341	818.8459	835.617	888.1955	909.923	940.5859	963.2907	982.9732	1001.0491	1031.75	1086.9449	1098.3494	1119.7025	1165.4101	1183.1343	1205.8344	1234.9004	1257.6285	1273.1043	1339.733	1347.4918	1385.2017	1420.2188	1422.0056	1453.6164	1476.7914	1711.8385	1830.9319	2865.7861	3025.2121	3056.3703	3074.1491	3126.8123	3147.0415	3162.7095	3185.4089	3499.6853
O=CC1CC=CC2NC12	O=C[C@H]1CC=C[C@H]2N[C@@H]12	
InChI=1S/C7H9NO/c9-4-5-2-1-3-6-7(5)8-6/h1,3-8H,2H2	InChI=1S/C7H9NO/c9-4-5-2-1-3-6-7(5)8-6/h1,3-8H,2H2/t5-,6-,7+/m1/s1
