19
gdb 90904	3.45468	1.51399	1.41411	1.993	79.9	-0.2267	-0.0062	0.2205	1001.404	0.159033	-385.755931	-385.748605	-385.74766	-385.787093	30.666	
C	-0.3316363772	 1.5154372001	-0.0308860717	-0.402399
C	 0.0030262908	 0.0311421208	-0.0124410496	-0.092367
C	 1.1502138925	-0.4229737014	-1.055583218	-0.300025
C	 2.1577052511	-0.1974386678	 0.1246977047	 0.003929
C	 2.9030895563	-0.8640914596	 1.3533538929	-0.064106
O	 1.9108024692	-0.1212968915	 2.2046878727	-0.368031
C	 1.0188929603	-0.5037097623	 1.0464607921	 0.359302
C	 1.0425172622	-2.0382222715	 1.189444518	-0.137321
C	 2.336679821	-2.2818668192	 1.3915545703	-0.062248
H	 0.5609037525	 2.1420982104	 0.0510280117	 0.127297
H	-0.8432508527	 1.7781981175	-0.9626483128	 0.117728
H	-0.9961527927	 1.7730145307	 0.7997451261	 0.127051
H	-0.9186503233	-0.5584278478	-0.0689069392	 0.076691
H	 1.0191579296	-1.4646958963	-1.3530857934	 0.118607
H	 1.2822348865	 0.2080031098	-1.9380051824	 0.103073
H	 2.3915008055	 0.8684832889	 0.1664298767	 0.096431
H	 3.9376743115	-0.6601294196	 1.6302634884	 0.080805
H	 0.1880044002	-2.6979417751	 1.1362125529	 0.103608
H	 2.8789174467	-3.1991065861	 1.5668680805	 0.111975
174.0883	205.4773	218.4197	328.47	367.7696	426.7897	505.7742	552.2852	591.5424	661.3324	692.3017	717.1991	729.0146	793.9652	834.418	861.4882	890.7646	900.5437	908.801	934.995	999.5296	1035.1531	1046.7418	1055.4869	1081.0635	1110.1457	1140.5284	1176.0104	1192.0605	1197.0362	1236.7519	1249.6986	1262.8322	1311.2915	1356.1356	1382.3929	1413.5764	1466.3468	1494.6192	1497.4974	1622.4968	3037.8613	3042.9315	3065.732	3082.4106	3102.8836	3115.6411	3122.3602	3136.2389	3223.7578	3254.8037
CC1CC2C3OC12C=C3	C[C@H]1C[C@@H]2[C@H]3O[C@@]12C=C3	
InChI=1S/C8H10O/c1-5-4-6-7-2-3-8(5,6)9-7/h2-3,5-7H,4H2,1H3	InChI=1S/C8H10O/c1-5-4-6-7-2-3-8(5,6)9-7/h2-3,5-7H,4H2,1H3/t5-,6+,7-,8-/m0/s1
