18
gdb 18524	5.53407	1.14803	1.07654	2.5805	68.65	-0.2473	0.0799	0.3272	1151.7601	0.152449	-384.888993	-384.880974	-384.88003	-384.922038	29.189	
C	 0.0567365042	 1.4945289944	-0.0184362515	-0.384167
C	-0.1204858917	-0.0021603466	-0.2080054836	-0.036091
O	 0.9300577406	-0.4765555684	-1.0317772227	-0.251225
C	 0.8953028922	-1.85170414	-1.2522779969	 0.143861
C	-0.156208801	-2.4686511061	-2.2631287528	-0.297644
C	 1.0385084108	-3.0333672492	-3.0400730157	 0.030526
O	 1.8070792951	-1.9099105775	-3.4721779537	-0.234719
C	 2.0163787943	-2.3901225573	-2.1418739759	-0.014358
H	 1.0193779907	 1.7092552823	 0.4539812776	 0.127092
H	 0.0273660898	 2.0079343113	-0.9834785721	 0.131171
H	-0.7401169904	 1.8960633204	 0.6147290431	 0.1135
H	-0.1010457784	-0.5227183894	 0.7647780189	 0.084487
H	-1.0964647162	-0.2199539443	-0.6708178304	 0.091317
H	 0.8605889909	-2.4062491752	-0.3004581835	 0.068314
H	-0.8055806129	-3.2167202638	-1.8034972924	 0.103765
H	-0.7478845134	-1.745818311	-2.8286675469	 0.116458
H	 1.1191233886	-3.9492864615	-3.6128840468	 0.105759
H	 3.0282003569	-2.6633778182	-1.8659776148	 0.101954
68.6435	93.8528	119.3974	226.9546	253.771	347.1707	377.4158	473.1193	593.3562	736.3816	811.1125	820.4684	846.272	869.0357	909.3357	922.6441	957.8544	1011.9268	1022.1414	1049.8868	1076.09	1131.3085	1152.0937	1186.2577	1196.0867	1211.7741	1244.4804	1244.7741	1292.7917	1297.8511	1367.7283	1388.2296	1402.9997	1440.5267	1466.2633	1482.9647	1499.5121	1529.0185	2956.3805	2973.7654	2989.6258	3045.6101	3071.3474	3119.7131	3123.7393	3133.2329	3183.4408	3199.1502
CCOC1CC2OC12	CCO[C@H]1C[C@H]2O[C@@H]12	
InChI=1S/C6H10O2/c1-2-7-4-3-5-6(4)8-5/h4-6H,2-3H2,1H3	InChI=1S/C6H10O2/c1-2-7-4-3-5-6(4)8-5/h4-6H,2-3H2,1H3/t4-,5+,6-/m0/s1
