20
gdb 56329	6.76697	0.45762	0.4399	4.2488	77.89	-0.2477	-0.0194	0.2283	2364.0009	0.168034	-440.336546	-440.325476	-440.324532	-440.375419	37.033	
N	 0.0205562946	 1.3416890793	-0.1295918209	-0.52252
C	 0.0587525169	 0.0360203143	 0.267935007	 0.410242
O	 1.057027948	-0.4690016543	 0.7436453989	-0.357417
C	-1.2516651583	-0.7305331801	 0.0836002922	-0.319545
C	-1.0221610009	-2.2347446912	-0.0780221656	-0.16134
C	-2.323807941	-3.0411786386	-0.0719007779	-0.201979
C	-2.0845090032	-4.5505444397	-0.2557042499	-0.272714
C	-3.3645012637	-5.341770801	-0.1241064466	 0.15908
O	-3.8194751234	-6.0731271548	-0.9652081827	-0.23721
H	 0.8280874897	 1.9169784754	 0.0458231499	 0.260882
H	-0.8178049783	 1.7760953916	-0.4721688769	 0.257331
H	-1.8639691454	-0.5410656758	 0.9766355421	 0.127072
H	-1.8149531471	-0.3243214073	-0.7654822719	 0.102159
H	-0.4771687397	-2.4200813866	-1.0116790278	 0.107738
H	-0.3612901501	-2.5697489547	 0.7276711614	 0.12867
H	-2.8564027698	-2.8693447561	 0.8737624304	 0.100764
H	-2.99060026	-2.6842514636	-0.8677586529	 0.107885
H	-1.6335787051	-4.77098143	-1.2276879975	 0.122153
H	-1.3955616508	-4.8994810508	 0.5275045305	 0.121121
H	-3.8941399625	-5.1907952761	 0.8474178381	 0.067626
30.5988	43.107	57.0759	95.8192	122.7421	126.2766	141.3427	225.9762	282.3959	379.2038	457.9181	511.4112	533.4686	613.1117	669.4438	736.1938	785.2963	831.079	872.0092	941.3178	997.341	1030.5857	1066.695	1074.0318	1111.4307	1125.2409	1174.178	1231.4695	1261.9689	1282.4028	1315.4095	1326.4319	1346.8479	1388.2692	1407.9877	1431.3659	1463.8567	1467.4223	1487.1041	1506.8892	1616.9326	1798.1431	1837.161	2842.8011	3007.902	3013.6965	3014.7573	3038.639	3045.3749	3054.0382	3092.6653	3100.45	3602.8937	3740.373
NC(=O)CCCCC=O	NC(=O)CCCCC=O	
InChI=1S/C6H11NO2/c7-6(9)4-2-1-3-5-8/h5H,1-4H2,(H2,7,9)	InChI=1S/C6H11NO2/c7-6(9)4-2-1-3-5-8/h5H,1-4H2,(H2,7,9)
