17
gdb 54821	2.81249	1.58829	1.45242	2.8864	72.41	-0.2366	0.0017	0.2383	970.8084	0.137784	-418.029269	-418.021617	-418.020673	-418.061416	29.956	
N	-0.3291260676	 1.1976645767	 0.2726143825	-0.535211
C	-0.2616061141	-0.1752816175	 0.2115417205	 0.42267
O	 0.6315853365	-0.8249469008	 0.7161249015	-0.37786
N	-1.3071190493	-0.7367300456	-0.5389668769	-0.137081
C	-1.9527143449	-1.9868278975	-0.2023159865	-0.032762
C	-1.8682213883	-2.5115342897	 1.2309100215	-0.278212
C	-2.5427439026	-1.4274305446	 2.0431680178	-0.069081
C	-3.0370634632	-0.4501171821	 1.2784180073	-0.07374
C	-2.7312456543	-0.6923043408	-0.1653846456	-0.097865
H	 0.5211845816	 1.6504235603	 0.5673779121	 0.260905
H	-0.8745147953	 1.6791020026	-0.4236723928	 0.256947
H	-2.0372247852	-2.6927128495	-1.0224701347	 0.098892
H	-2.395083117	-3.4699602816	 1.3183202635	 0.108349
H	-0.8314891754	-2.6728880855	 1.5400316326	 0.156315
H	-2.5718063731	-1.4480611119	 3.1266807961	 0.10328
H	-3.560265	 0.4305230126	 1.6295676439	 0.099281
H	-3.4116935677	-0.3718995951	-0.9487537528	 0.095173
85.2458	131.1896	184.8909	324.4023	373.4921	425.2894	464.5319	491.1122	552.1994	610.625	693.4435	743.7898	758.402	789.0448	819.8863	862.3504	901.0834	948.9047	955.942	968.5695	1007.5735	1026.8218	1062.3579	1111.4736	1121.3524	1141.3873	1200.3816	1265.259	1300.8979	1308.6681	1363.0654	1380.9609	1407.7163	1460.397	1613.9797	1661.6022	1795.9956	3033.7654	3098.0665	3150.7805	3161.4715	3192.9874	3219.6623	3592.6936	3716.6489
NC(=O)N1C2CC=CC12	NC(=O)N1[C@H]2CC=C[C@@H]12	
InChI=1S/C6H8N2O/c7-6(9)8-4-2-1-3-5(4)8/h1-2,4-5H,3H2,(H2,7,9)	InChI=1S/C6H8N2O/c7-6(9)8-4-2-1-3-5(4)8/h1-2,4-5H,3H2,(H2,7,9)/t4-,5+,8?/m1/s1
