20
gdb 80045	2.80422	1.58463	1.36693	1.3672	85.01	-0.2195	0.0083	0.2278	1040.6629	0.171817	-365.974566	-365.966661	-365.965717	-366.006541	31.853	
C	-0.2059217707	 1.4914339928	-0.1423953603	-0.31041
N	 0.0472207107	 0.0696522221	 0.0245253311	-0.101521
C	 1.3841622606	-0.5197753361	-0.1662754792	-0.084859
C	 2.5826204176	 0.3691985444	-0.084922676	-0.102456
C	 2.680865009	 0.9373370676	 1.1230330634	-0.166443
C	 1.6098120523	 0.4559202394	 2.0375693007	 0.362517
C	 1.8996540333	 0.1150878988	 3.4868077394	-0.323218
C	 1.0545149637	 1.3112411329	 3.1623746126	-0.308651
C	 0.7366846753	-0.4513518292	 1.1948088442	-0.142956
H	 0.6127364298	 2.152794067	 0.1712340432	 0.109988
H	-0.4187597894	 1.6850469708	-1.1988818577	 0.116714
H	-1.0988551051	 1.7526251957	 0.4346788805	 0.117029
H	 1.4044232221	-1.4120072037	-0.7859374894	 0.086967
H	 3.2467963351	 0.5467823514	-0.9221655483	 0.096835
H	 3.4158479208	 1.6765212097	 1.4246746809	 0.097018
H	 1.4103296965	-0.7652416951	 3.8922355668	 0.117568
H	 2.9082529663	 0.2752669907	 3.8519902086	 0.115098
H	 1.4831184465	 2.2982361179	 3.3014217161	 0.115311
H	-0.0114222079	 1.2574816128	 3.3545787435	 0.121001
H	 0.2636757636	-1.3049451799	 1.6753823498	 0.084469
117.7451	185.9173	194.9715	275.679	289.9326	296.3362	454.182	494.8577	539.8172	624.0229	724.8837	758.4866	774.5347	781.3898	831.5456	874.806	907.4089	925.6644	938.3476	952.6974	971.7701	986.6623	1011.8912	1056.4296	1070.2998	1078.9067	1109.9937	1126.4477	1157.9548	1177.3018	1193.1043	1278.5338	1280.4272	1317.4454	1324.191	1353.8637	1408.4383	1448.7944	1466.0577	1486.966	1497.6827	1503.7857	1648.1421	3005.4999	3071.9268	3097.8287	3125.061	3125.6628	3131.5006	3143.7349	3179.6889	3206.5631	3210.7929	3222.1545
CN1C2C=CC3(CC3)C12	CN1[C@H]2C=CC3(CC3)[C@@H]12	
InChI=1S/C8H11N/c1-9-6-2-3-8(4-5-8)7(6)9/h2-3,6-7H,4-5H2,1H3	InChI=1S/C8H11N/c1-9-6-2-3-8(4-5-8)7(6)9/h2-3,6-7H,4-5H2,1H3/t6-,7-,9?/m0/s1
