18
gdb 127110	3.96712	1.11702	0.88492	3.2818	76.37	-0.187	0.0508	0.2378	1301.5784	0.149149	-431.470531	-431.461057	-431.460113	-431.504732	33.951	
C	-0.2671295845	 1.338898553	 0.0021505571	-0.347848
N	 0.1665214573	-0.0426804212	-0.0162094463	-0.174135
C	 0.0718781665	-0.7882830064	 1.2296122888	-0.338923
C	 0.050040249	-0.7495193345	-1.1840388377	 0.529092
N	 0.1979417393	-2.0620292573	-1.3113171506	-0.423625
C	 0.0452927638	-2.2513357027	-2.6564032269	 0.399933
N	 0.1988862976	-3.5050538261	-3.2206576954	-0.585372
N	-0.2013380879	-1.1700952949	-3.3731075048	-0.316446
N	-0.1917387997	-0.1932463369	-2.3916255784	-0.304785
H	 0.2158511925	 1.9034200762	-0.8028841544	 0.128901
H	-1.3591234615	 1.455225613	-0.0932057313	 0.119721
H	 0.0422486248	 1.7939859205	 0.9458371134	 0.137253
H	-0.9699647531	-0.9374443061	 1.552528503	 0.114171
H	 0.531842985	-1.7655866353	 1.0889080761	 0.171112
H	 0.6052629412	-0.2446717129	 2.0151740788	 0.120284
H	-0.0485814438	-4.2497037654	-2.5853818533	 0.252103
H	-0.254851776	-3.594077376	-4.1185230709	 0.252226
H	-0.3795107105	 0.7596560732	-2.6419537974	 0.266338
76.1413	124.9789	161.5619	173.4116	213.1831	223.4946	270.4563	305.5336	361.7809	404.2274	418.0854	552.2778	597.9676	640.8188	725.9615	765.8977	795.0226	959.7481	1022.947	1066.0915	1085.8973	1100.3546	1131.3571	1165.8289	1177.5127	1240.323	1281.2422	1359.9575	1429.1688	1444.4288	1469.1488	1486.4196	1490.2412	1502.7722	1505.3989	1517.001	1597.5652	1633.4911	1662.5868	2971.8485	2989.0011	3061.2763	3079.383	3117.6158	3161.7328	3567.851	3673.0665	3706.5906
CN(C)C1=NC(N)=NN1	CN(C)c1nc(N)n[nH]1	
InChI=1S/C4H9N5/c1-9(2)4-6-3(5)7-8-4/h1-2H3,(H3,5,6,7,8)	InChI=1S/C4H9N5/c1-9(2)4-6-3(5)7-8-4/h1-2H3,(H3,5,6,7,8)
