16
gdb 73249	2.34213	1.94385	1.40442	1.4543	65.22	-0.2658	0.0031	0.2689	943.3002	0.125303	-475.015747	-475.00826	-475.007316	-475.047774	28.678	
O	 0.1259257421	 1.3817774121	-0.0777710636	-0.471591
C	 0.0353561574	-0.0024874698	-0.0290633724	 0.262276
C	 0.2092254986	-0.7933527143	-1.3506665067	-0.125248
O	-1.0069994961	-1.5328322649	-1.1001693587	-0.292626
C	-1.3366188799	-0.7205217186	 0.0431836026	 0.05328
C	-1.3064575568	-1.5188808154	 1.3382820906	-0.116132
O	 0.0822874664	-1.5702263062	 1.7477924505	-0.241466
C	 0.7925157509	-0.5856069762	 1.1476327765	 0.369379
N	 1.9225017702	-0.1452718062	 1.4993038499	-0.566559
H	 0.9344055839	 1.6127038071	 0.4038058468	 0.298944
H	 0.122512111	-0.1377552025	-2.225004147	 0.116777
H	 1.0837968575	-1.4443732568	-1.4487386169	 0.11895
H	-2.2430753063	-0.1267284029	-0.1014453491	 0.0999
H	-1.8832793602	-1.0346542554	 2.1343623348	 0.120967
H	-1.6555274899	-2.5435896934	 1.1981101363	 0.139478
H	 2.2680960412	-0.6028152967	 2.3429345265	 0.233671
88.1984	164.7798	223.0255	288.5386	308.2529	398.8205	427.0532	491.4716	575.0367	652.0823	724.9146	739.287	810.9961	865.0241	889.5996	928.4449	961.727	1011.9322	1027.9031	1059.7555	1078.2708	1102.2499	1127.0766	1154.9498	1189.3007	1241.2174	1260.5027	1294.9301	1342.2293	1353.0166	1414.2078	1429.7404	1497.3885	1516.3701	1775.1889	3029.2707	3044.5786	3082.8124	3090.1403	3124.3703	3492.8373	3724.0519
OC12COC1COC2=N	O[C@]12CO[C@H]1CO[C]2[NH]	
InChI=1S/C5H7NO3/c6-4-5(7)2-9-3(5)1-8-4/h3,6-7H,1-2H2	InChI=1S/C5H7NO3/c6-4-5(7)2-9-3(5)1-8-4/h3,6-7H,1-2H2/t3-,5+/m0/s1
