16
gdb 35999	6.07166	0.53392	0.52275	3.4544	78.34	-0.2683	0.0179	0.2861	2037.5717	0.122678	-400.705245	-400.695894	-400.69495	-400.741955	31.813	
N	-0.3173647195	-0.6630107652	 1.0371589895	-0.301032
C	-0.1152770296	 0.2193636424	 0.3205521718	 0.278078
C	 0.1277792177	 1.3415483551	-0.5965476816	-0.471909
C	 1.4901082369	 1.8621315243	-0.5169638624	 0.093397
C	 2.6109159905	 2.2930193389	-0.4641571472	 0.08613
C	 3.9627663944	 2.8348330781	-0.3727068754	-0.38175
C	 4.0209742169	 4.1407237239	 0.4025870905	 0.106252
C	 5.032413586	 5.1598121385	 0.1038530412	-0.180297
O	 3.6744128105	 5.3213298107	-0.3138937006	-0.224134
H	-0.0968159956	 1.003967136	-1.6166059382	 0.182372
H	-0.5995442142	 2.131922425	-0.3702278103	 0.184113
H	 4.6174192254	 2.1011301315	 0.1164801799	 0.142646
H	 4.3686524809	 3.0045104662	-1.3769785534	 0.141131
H	 3.6137649776	 4.0922576251	 1.4127576664	 0.107313
H	 5.3676901831	 5.8371075362	 0.8874781008	 0.12127
H	 5.7495498091	 4.9860529735	-0.697719841	 0.11642
16.9641	54.7462	88.4	105.3164	248.7226	259.8042	346.5091	370.4734	383.6505	393.0931	492.1107	581.8911	786.1563	802.1486	862.4632	926.5568	934.5005	939.0499	961.961	1094.9484	1107.6615	1160.3306	1164.0604	1169.9293	1233.8055	1247.1055	1294.0419	1320.61	1338.4175	1438.5423	1447.8434	1451.9897	1530.7698	2370.2845	2385.1321	3022.4683	3026.1492	3056.0097	3064.4094	3084.6358	3113.7577	3172.0619
N#CCC#CCC1CO1	N#CCC#CC[C@H]1CO1	
InChI=1S/C7H7NO/c8-5-3-1-2-4-7-6-9-7/h7H,3-4,6H2	InChI=1S/C7H7NO/c8-5-3-1-2-4-7-6-9-7/h7H,3-4,6H2/t7-/m0/s1
