16
gdb 45201	3.53353	1.58137	1.3375	3.9566	68.78	-0.2564	-0.0068	0.2496	946.8015	0.126314	-437.826666	-437.820128	-437.819184	-437.857404	26.821	
O	-0.1438260885	-0.0038370321	 0.1741064258	-0.32955
C	-0.0685243663	 1.1834255669	 0.0886331932	 0.324662
N	-1.0462600237	 2.2102299593	 0.0552576819	-0.381424
C	-0.11020843	 3.1703234151	-0.5813584138	 0.048436
C	 0.4478691777	 4.5671938621	-0.2098657385	-0.304538
C	 1.8509157242	 4.03195464	 0.2831499456	 0.056225
C	 1.3973769166	 3.0262680195	 1.3434849815	-0.243134
C	 1.0011937343	 2.3212488241	 0.0302761533	 0.265516
O	 2.2011713932	 2.864187727	-0.5835839156	-0.361319
H	-2.0035041847	 2.0418172596	-0.2238485899	 0.254673
H	-0.1235593329	 3.0562580621	-1.6684339021	 0.103959
H	 0.5023995675	 5.2179692901	-1.0841674552	 0.114088
H	-0.0580279686	 5.1016313258	 0.5970050881	 0.120753
H	 2.680520162	 4.7281643546	 0.4016150354	 0.093952
H	 2.2308967033	 2.5069133829	 1.8159954428	 0.125623
H	 0.6193370859	 3.301549663	 2.0571635775	 0.112077
150.7286	251.8994	268.851	418.8328	434.4172	522.1226	570.8507	627.2322	660.4666	706.5013	715.0106	785.6662	816.7647	844.9313	886.5157	947.9369	977.874	998.8036	1011.3708	1063.2394	1073.8597	1113.3865	1130.3075	1163.9143	1185.9457	1202.7208	1234.3387	1251.2226	1269.295	1299.3297	1319.2763	1421.7375	1476.3308	1496.0583	1904.6284	3062.0705	3078.9417	3084.8278	3131.5068	3134.2965	3159.5589	3591.697
O=C1NC2CC3CC12O3	O=C1N[C@H]2C[C@H]3C[C@@]12O3	
InChI=1S/C6H7NO2/c8-5-6-2-3(9-6)1-4(6)7-5/h3-4H,1-2H2,(H,7,8)	InChI=1S/C6H7NO2/c8-5-6-2-3(9-6)1-4(6)7-5/h3-4H,1-2H2,(H,7,8)/t3-,4-,6-/m0/s1
