17
gdb 27785	2.01442	1.76929	0.9531	6.221	80.03	-0.2291	-0.0444	0.1847	1212.4109	0.1364	-418.097102	-418.088468	-418.087524	-418.130754	31.476	
C	 0.0180226375	 1.5295092158	-0.0483230339	-0.495248
C	-0.0609921734	 0.0334700375	-0.005791853	 0.405937
C	-1.2137398693	-0.6913300435	-0.0791594964	-0.271278
C	-1.1124703892	-2.1160061886	-0.0238108629	 0.336144
C	-2.373792258	-2.9355775785	-0.1025559248	-0.475229
N	 0.0185799411	-2.7652081325	 0.0923219541	-0.377613
C	 1.210695718	-2.0664595461	 0.1697048021	 0.427365
O	 2.3088275655	-2.5670643946	 0.2780716831	-0.387002
N	 1.103539412	-0.6519050873	 0.1146937774	-0.394135
H	 0.6283704293	 1.8632507155	-0.8950438828	 0.15089
H	-0.9768126996	 1.965910311	-0.1462680335	 0.148212
H	 0.4805248155	 1.9210904125	 0.8647074526	 0.150887
H	-2.1722446525	-0.1999509249	-0.1760528334	 0.098115
H	-2.9136543436	-2.7235545204	-1.0324162505	 0.135269
H	-2.1309539281	-3.9970487234	-0.0583412061	 0.151257
H	-3.0485295671	-2.682587411	 0.7232854475	 0.135838
H	 1.9871525819	-0.1644246116	 0.1727144803	 0.260592
86.7273	108.2061	138.1169	171.4005	225.3965	274.4891	331.2701	512.5201	526.9608	553.1189	569.979	620.4596	631.1436	708.1369	808.6287	811.0754	905.1322	970.3705	990.3091	1034.222	1053.4725	1064.5706	1077.659	1140.698	1205.1397	1289.8858	1389.1987	1412.6304	1416.6623	1451.1614	1471.9419	1478.3414	1481.6073	1504.7545	1592.9294	1674.8329	1810.475	3035.7196	3036.3903	3090.2048	3091.8944	3144.5145	3157.8446	3220.8382	3601.5348
CC1=CC(C)=NC(=O)N1	Cc1cc(C)nc(=O)[nH]1	
InChI=1S/C6H8N2O/c1-4-3-5(2)8-6(9)7-4/h3H,1-2H3,(H,7,8,9)	InChI=1S/C6H8N2O/c1-4-3-5(2)8-6(9)7-4/h3H,1-2H3,(H,7,8,9)
