19
gdb 103785	4.23541	0.75961	0.71118	2.9077	82.75	-0.2397	0.0392	0.2789	1638.6288	0.155869	-422.984174	-422.973506	-422.972562	-423.02102	37.377	
C	-0.1168568883	 1.3757289647	-0.0067451699	-0.501188
C	-0.0727237975	-0.0797673826	 0.0207846127	 0.112212
C	 0.0060131808	-1.2836158093	 0.0631886839	 0.024114
C	 0.0155255449	-2.7163276024	 0.0726141445	-0.284822
C	-0.5096781533	-3.4974404208	 1.2818400923	-0.324995
C	-1.3311519938	-3.4275000991	 0.0316397344	 0.389722
O	-2.4911255505	-2.6422873645	 0.0624172579	-0.483382
C	-1.5192335161	-4.6295231426	-0.8649073559	-0.100687
O	-2.6460961789	-5.3909761442	-0.4769566794	-0.419571
H	 0.877311708	 1.8017952989	 0.1675160956	 0.154203
H	-0.4737308039	 1.7508708342	-0.9723044873	 0.14941
H	-0.7838646913	 1.7670022981	 0.7692314818	 0.152189
H	 0.821629226	-3.184205032	-0.4863853446	 0.11312
H	-0.0029269762	-4.424095902	 1.5279166041	 0.122445
H	-0.8574327299	-2.9149522378	 2.1263558467	 0.128258
H	-2.25355488	-1.7445175394	-0.2072850855	 0.287125
H	-1.6109660247	-4.2837472021	-1.9079717853	 0.086851
H	-0.648611627	-5.2908774668	-0.8052717482	 0.101898
H	-3.3757460484	-4.7640603704	-0.4039707578	 0.293099
37.4348	63.8006	76.2645	117.3119	181.2362	189.5695	255.6634	295.8614	328.4467	353.3231	425.9357	432.475	450.2902	512.9634	645.419	702.4231	775.7021	876.1468	903.7607	935.3692	982.5457	1022.0435	1050.4052	1054.1639	1061.5027	1077.6164	1095.6573	1187.3844	1209.854	1235.5236	1309.3627	1341.746	1389.3318	1403.7178	1417.1006	1442.0918	1476.3853	1477.0558	1479.2763	1498.1265	2355.5358	2968.0187	3027.4657	3074.053	3087.578	3090.3936	3138.48	3141.1292	3238.0285	3734.0485	3793.72
CC#CC1CC1(O)CO	CC#C[C@H]1C[C@]1(O)CO	
InChI=1S/C7H10O2/c1-2-3-6-4-7(6,9)5-8/h6,8-9H,4-5H2,1H3	InChI=1S/C7H10O2/c1-2-3-6-4-7(6,9)5-8/h6,8-9H,4-5H2,1H3/t6-,7-/m0/s1
