19
gdb 70729	2.6368	1.60166	1.25017	1.7454	75.82	-0.2466	-0.0097	0.2369	1060.1547	0.159562	-423.00122	-422.993083	-422.992139	-423.033488	31.739	
C	 0.0279027816	 1.5743416337	 0.0677256261	-0.466412
C	 0.1220936697	 0.0649153434	 0.0494987562	 0.384555
O	-0.8314196775	-0.6002739966	 0.8996393041	-0.293737
C	 0.5595747568	-0.6879133609	 1.2413253978	-0.054412
C	 1.171713665	-2.0707875737	 1.0785854899	-0.089474
O	 2.4683378216	-2.0797782755	 0.5052278304	-0.260376
C	 2.6600248413	-1.242490208	-0.6371968159	-0.112231
C	 1.4918413898	-1.1690876056	-1.6021069977	-0.088162
C	 0.3445688199	-0.5673376408	-1.2889659872	-0.129765
H	 0.9544818851	 2.0277714571	-0.2993665504	 0.12659
H	-0.7891919944	 1.9129295613	-0.5787579051	 0.127911
H	-0.1674628503	 1.9330216572	 1.0816148908	 0.130096
H	 0.8402201138	-0.1216355266	 2.1297350411	 0.090921
H	 1.2866658556	-2.5580022206	 2.0518548194	 0.110186
H	 0.4673762551	-2.665382737	 0.483650489	 0.108639
H	 2.9160239529	-0.2256992192	-0.3033448628	 0.101552
H	 3.5430399291	-1.6469815972	-1.1389591565	 0.112004
H	 1.6137193867	-1.6305440356	-2.5782457609	 0.10116
H	-0.4741029619	-0.5085208456	-2.0030381484	 0.100957
146.374	153.9085	199.7521	237.367	280.5202	348.5247	362.4748	401.0233	469.8585	535.411	608.1938	651.4768	757.4824	781.2311	811.6769	907.3542	928.1027	932.1757	986.3331	1000.6753	1036.4575	1053.4438	1082.9346	1112.5758	1125.2708	1140.2691	1219.188	1233.7985	1270.7	1300.1307	1321.4907	1392.6385	1402.7838	1409.6898	1418.1107	1452.8371	1484.3407	1497.3605	1504.4754	1509.5172	1706.7337	2983.8687	3028.0106	3034.782	3081.0837	3087.059	3099.6786	3108.3397	3122.9281	3146.838	3172.5727
CC12OC1COCC=C2	C[C@]12O[C@H]1COCC=C2	
InChI=1S/C7H10O2/c1-7-3-2-4-8-5-6(7)9-7/h2-3,6H,4-5H2,1H3	InChI=1S/C7H10O2/c1-7-3-2-4-8-5-6(7)9-7/h2-3,6H,4-5H2,1H3/t6-,7+/m0/s1
