25
gdb 83578	2.34123	1.57081	1.48063	0.0346	90.24	-0.2822	0.0746	0.3568	1109.5934	0.233887	-352.397896	-352.38987	-352.388925	-352.429669	33.892	
C	-0.0580785681	 1.5329258625	 0.0097110855	-0.432309
C	 0.0453795037	 0.0050044153	 0.0063755568	 0.053142
C	 0.9219924962	-0.5623185092	-1.1344937037	 0.019412
C	 2.3651331358	-0.2720054947	-0.6444932254	-0.217209
C	 2.2767724231	-0.2813875536	 0.9122009665	-0.21721
C	 0.7876434042	-0.5765637486	 1.2322268299	 0.019415
C	 0.5111832032	-2.0923777757	 1.3041489867	-0.214651
C	 1.0122371672	-2.8249434244	 0.0442292284	-0.188265
C	 0.6564759155	-2.0769748104	-1.2554173105	-0.214651
H	 0.9230424984	 2.0145825665	 0.0682176424	 0.115409
H	-0.5471389003	 1.8938323347	-0.9018162098	 0.108954
H	-0.6472415028	 1.8831944998	 0.8644133728	 0.108954
H	-0.9711983958	-0.4039352871	-0.0537961095	 0.054117
H	 0.7151783699	-0.0777574887	-2.0948581397	 0.050139
H	 3.0761511185	-1.011381367	-1.0261469083	 0.092155
H	 2.7062054866	 0.7015852201	-1.0076076388	 0.093277
H	 2.9405213337	-1.0258001789	 1.3629473372	 0.092156
H	 2.5739236331	 0.6875289189	 1.3232478874	 0.093276
H	 0.4731446513	-0.1034140162	 2.1687576945	 0.050139
H	 0.9858718076	-2.5241898987	 2.1936501395	 0.085746
H	-0.5693042414	-2.2469992095	 1.4222262831	 0.087636
H	 2.1019388087	-2.9319335874	 0.1054398532	 0.098587
H	 0.6151118039	-3.8455629066	 0.0155459298	 0.088396
H	-0.4036041012	-2.2294300221	-1.4968521215	 0.087637
H	 1.229063659	-2.4984123589	-2.0906043065	 0.085747
189.7972	196.4789	218.3487	275.5511	278.2121	348.9519	385.2981	426.9642	468.8281	587.6669	720.8476	726.18	769.9141	794.6518	803.6149	853.0616	878.1815	882.54	944.3983	944.8712	959.003	975.7191	1028.32	1044.69	1047.2462	1073.6843	1077.0777	1105.3236	1145.3878	1154.6667	1184.8504	1202.2943	1238.6893	1240.8677	1274.1302	1278.175	1310.4445	1323.3893	1329.8102	1342.9628	1357.7318	1369.3335	1371.8583	1389.6125	1404.3005	1410.2377	1485.7243	1489.8406	1491.0056	1496.3741	1502.6226	1506.679	1519.9144	3012.0093	3014.0255	3019.5448	3028.6609	3028.8991	3038.9398	3042.7473	3048.1666	3053.0112	3053.2381	3061.8464	3071.6494	3075.2239	3091.1466	3095.73	3103.5172
CC1C2CCC1CCC2	C[C@H]1[C@H]2CC[C@@H]1CCC2	
InChI=1S/C9H16/c1-7-8-3-2-4-9(7)6-5-8/h7-9H,2-6H2,1H3	InChI=1S/C9H16/c1-7-8-3-2-4-9(7)6-5-8/h7-9H,2-6H2,1H3/t7-,8+,9-
