20
gdb 58829	3.32049	1.25701	1.09137	2.614	77.99	-0.2196	0.0668	0.2864	1174.3149	0.170103	-403.055138	-403.046534	-403.04559	-403.088252	33.773	
C	 0.0184427583	 1.5431999631	 0.1402323017	-0.409961
C	-0.040139841	 0.0223474344	-0.0215876516	 0.005415
O	 0.7834939998	-0.638179176	 0.933423652	-0.424775
C	-1.4595374132	-0.4960682203	 0.0174156306	 0.359631
C	-2.1670642823	-0.9847164884	 1.2536588798	-0.377545
C	-1.9877844172	-1.9057969857	 0.0727071598	-0.062914
N	-2.8882683839	-1.7120243378	-1.1359039274	-0.139009
C	-3.8542446794	-0.6247363126	-0.8888681896	-0.253143
C	-2.443656269	-0.2743390745	-1.1557389676	-0.101554
H	 1.0531964916	 1.8922954018	 0.0837093902	 0.123953
H	-0.5613184923	 2.0470797512	-0.6397441473	 0.124241
H	-0.4010562176	 1.8430650735	 1.108585773	 0.110888
H	 0.3942336921	-0.246327718	-0.9938710452	 0.093449
H	 0.6079190397	-0.239643309	 1.7926436585	 0.279997
H	-1.4902519221	-1.247714586	 2.0610160963	 0.111954
H	-3.1196388239	-0.5979490344	 1.5977617155	 0.110709
H	-1.4644633065	-2.8502420131	 0.1465026778	 0.111225
H	-4.5468254191	-0.5098335015	-1.7183949501	 0.123012
H	-4.3114448129	-0.4917302342	 0.0845564604	 0.119434
H	-2.1246844412	 0.1853742875	-2.0872193069	 0.094992
64.4352	138.0945	192.5766	250.3586	301.2357	306.1137	325.6766	449.4803	462.7789	486.5953	544.7629	669.7831	686.3236	754.2502	792.8667	834.6144	890.3016	908.9991	943.2659	979.2823	998.1992	1011.7673	1045.663	1055.965	1067.4826	1072.1287	1100.4423	1111.1873	1127.9012	1137.3616	1180.7	1228.0836	1254.5521	1305.7201	1332.4571	1361.2481	1399.8157	1403.2058	1419.9381	1479.9171	1490.3161	1494.7902	1521.9828	3018.9503	3027.2205	3095.6021	3117.4507	3122.7026	3134.182	3144.983	3196.7151	3205.6238	3214.3261	3806.041
CC(O)C12CC1N1CC21	C[C@@H](O)[C@]12C[C@H]1N1C[C@@H]21	
InChI=1S/C7H11NO/c1-4(9)7-2-5(7)8-3-6(7)8/h4-6,9H,2-3H2,1H3	InChI=1S/C7H11NO/c1-4(9)7-2-5(7)8-3-6(7)8/h4-6,9H,2-3H2,1H3/t4-,5-,6+,7-,8?/m1/s1
