19
gdb 72726	2.65674	1.97863	1.57531	2.3446	75.09	-0.2295	0.0451	0.2746	922.1508	0.159509	-422.903194	-422.895967	-422.895023	-422.934182	30.282	
C	-0.0337791914	 1.5330979186	-0.0339657242	-0.453159
C	-0.0160868949	 0.0129035624	 0.0297104822	 0.444253
O	-1.2824373726	-0.3922776789	 0.7141127084	-0.359904
C	-0.4826699672	-0.5376218979	 1.9478289054	-0.219458
C	 0.7565632482	-0.7777688029	 1.0477797783	 0.144656
C	 2.0566238239	-0.3214017963	 0.2937067761	-0.353435
C	 1.0625990444	-0.6182149139	-0.95843311	 0.002289
O	 0.9137283663	-2.0097184906	-0.9298096145	-0.25549
C	 0.6565067854	-2.2198514774	 0.4754875147	-0.091994
H	 0.8107916372	 1.9552126595	-0.5840643471	 0.117451
H	-0.9492395151	 1.8154296868	-0.5644375742	 0.138803
H	-0.0737330492	 2.0002482891	 0.9553906184	 0.119187
H	-0.4878971573	 0.3898748105	 2.5282276978	 0.113505
H	-0.829546659	-1.3716182395	 2.5635294896	 0.116216
H	 2.33965627	 0.7191872065	 0.4286100233	 0.12036
H	 2.9300351541	-0.977003371	 0.3305754761	 0.112198
H	 1.2550796821	-0.2627118817	-1.9720676039	 0.086755
H	 1.4277925161	-2.8729386149	 0.9011142181	 0.097526
H	-0.3272287412	-2.6759832181	 0.6020017455	 0.12024
182.5656	232.0225	297.1398	313.5409	366.9099	401.507	470.8779	480.144	559.7456	611.8306	659.7013	755.9058	794.2617	842.0853	876.211	883.9904	923.9194	930.0985	956.9183	975.1973	1025.0306	1037.6446	1086.5287	1102.5162	1116.5427	1132.4459	1150.6922	1185.2183	1191.5391	1202.5906	1219.7986	1251.1004	1287.582	1307.0814	1384.2106	1412.5401	1476.1782	1486.7895	1496.2085	1512.2944	1518.9404	3030.0045	3036.4659	3049.4653	3078.4557	3100.4291	3105.0447	3111.3869	3113.0652	3116.3655	3177.5697
CC12OCC11CC2OC1	C[C@]12OC[C@@]31C[C@H]2OC3	
InChI=1S/C7H10O2/c1-6-5-2-7(6,3-8-5)4-9-6/h5H,2-4H2,1H3	InChI=1S/C7H10O2/c1-6-5-2-7(6,3-8-5)4-9-6/h5H,2-4H2,1H3/t5-,6-,7-/m1/s1
