19
gdb 79880	2.39051	1.72817	1.39222	1.0202	74.45	-0.2349	0.0619	0.2968	1015.5103	0.158996	-422.951097	-422.942988	-422.942044	-422.983203	32.064	
C	-0.2787516428	 1.5406462161	-0.0045556675	-0.442337
C	 0.0697557414	 0.0603693792	 0.0701916691	-0.069633
C	 1.3265504069	-0.6989834276	-0.3324642563	-0.162494
C	 2.6789845781	-0.1090427043	 0.1213024753	-0.066129
C	 2.8839309083	 1.4116934842	 0.2886413438	-0.113171
O	 2.2873235691	 1.3843123893	 1.6157006903	-0.299321
C	 2.1601810988	-0.0616948377	 1.5644261794	 0.04408
C	 0.8127253794	-0.6941782165	 1.1275396061	 0.331344
O	 0.2544705461	-1.7461934563	 1.8362427601	-0.458163
H	 0.3897165315	 2.1583446162	 0.5897303349	 0.15806
H	-0.2747078112	 1.8920295759	-1.0423653278	 0.113866
H	-1.2938210923	 1.6897257958	 0.3806402835	 0.107791
H	-0.773162948	-0.5597439632	-0.2410059876	 0.094241
H	 1.2512962865	-1.4883414888	-1.0714663838	 0.094294
H	 3.5445913405	-0.7082183923	-0.1567276676	 0.082686
H	 3.9372749127	 1.7104246031	 0.3473700805	 0.10428
H	 2.3558530706	 2.0809708579	-0.3972581466	 0.105565
H	 2.6375066648	-0.5703884495	 2.405985102	 0.087218
H	-0.4941113306	-1.4100624915	 2.3412355321	 0.287822
153.0255	183.7061	204.0535	265.1693	271.6304	302.7407	338.6927	366.8657	518.5835	578.425	648.9743	686.6205	732.2003	825.8202	859.7022	874.128	910.1555	932.866	965.2374	981.9278	995.1112	1036.0178	1045.9157	1094.1989	1128.3844	1137.7731	1163.4199	1189.4534	1198.9474	1218.1804	1256.0848	1288.4624	1309.3563	1325.8666	1349.6042	1355.7021	1407.963	1473.55	1499.6073	1511.5081	1530.0693	3027.5503	3034.2799	3079.8759	3081.172	3084.374	3092.1591	3122.8964	3176.9491	3183.2143	3792.868
CC1C2C3COC3C12O	C[C@H]1[C@H]2[C@H]3CO[C@H]3[C@@]12O	
InChI=1S/C7H10O2/c1-3-5-4-2-9-6(4)7(3,5)8/h3-6,8H,2H2,1H3	InChI=1S/C7H10O2/c1-3-5-4-2-9-6(4)7(3,5)8/h3-6,8H,2H2,1H3/t3-,4+,5-,6+,7+/m0/s1
