18
gdb 124507	4.16456	0.93585	0.91722	1.8712	75.04	-0.2457	0.0021	0.2478	1352.8682	0.147043	-439.097426	-439.08853	-439.087586	-439.131467	32.951	
C	-0.0064535338	 1.565858051	-0.0633245229	-0.386694
C	-0.0186025397	 0.0257492549	-0.0217100613	-0.09066
C	-1.4577434384	-0.5240872635	-0.0017867447	-0.386618
C	 0.7616769012	-0.5496644891	-1.1627772278	 0.496169
C	 1.8752434404	-1.3276918902	-1.2314751616	-0.471223
C	 2.0651760505	-1.4994179284	-2.6297016534	 0.474363
O	 3.0560167312	-2.2059009591	-3.1961876556	-0.419305
N	 1.1555686704	-0.8855874712	-3.3469083955	-0.261807
O	 0.3170485054	-0.2747196224	-2.4048308339	-0.233877
H	 1.0153194142	 1.9551397193	-0.035799809	 0.122612
H	-0.4835035616	 1.93106346	-0.9772303634	 0.137817
H	-0.5520629202	 1.9714199689	 0.7940302866	 0.115559
H	 0.491389344	-0.3015533576	 0.89165188	 0.093302
H	-1.9929391894	-0.238563405	-0.9118700231	 0.13773
H	-1.4641322845	-1.6156981432	 0.0665178899	 0.122619
H	-2.0037257313	-0.1227768839	 0.8573310864	 0.115593
H	 2.4720456865	-1.7210361649	-0.4267604656	 0.123417
H	 2.940532045	-2.1522631455	-4.154556845	 0.311005
41.8521	118.6069	176.4653	220.4514	256.7721	287.4485	294.3501	403.4732	427.8337	459.0445	500.9523	616.1781	693.33	741.9918	742.667	804.5514	877.4392	933.0502	959.6122	966.6991	999.8978	1042.8086	1075.9687	1119.7567	1142.4934	1199.7234	1232.6238	1301.6706	1332.8607	1363.6791	1396.2721	1418.7539	1486.4801	1491.008	1499.8098	1508.632	1541.0018	1554.6331	1656.6693	3039.3305	3042.6645	3042.9407	3111.7335	3114.9998	3118.6891	3123.4666	3285.1125	3778.0284
CC(C)C1=CC(O)=NO1	CC(C)c1cc(O)no1	
InChI=1S/C6H9NO2/c1-4(2)5-3-6(8)7-9-5/h3-4H,1-2H3,(H,7,8)	InChI=1S/C6H9NO2/c1-4(2)5-3-6(8)7-9-5/h3-4H,1-2H3,(H,7,8)
