21
gdb 41529	2.82385	1.50829	1.07514	1.3193	85.26	-0.2336	0.0211	0.2548	1160.4633	0.184986	-387.079495	-387.071613	-387.070668	-387.111706	31.454	
C	 0.003727537	 1.5169501032	-0.1945921003	-0.252263
C	 1.5182498775	 1.5341975014	 0.1921711508	-0.32202
C	 1.3380278578	 0.1090193779	 0.6780676244	 0.359745
C	 1.8772572082	-0.6471260344	 1.6252586057	-0.229122
C	 1.3311740658	-1.9981734227	 2.02145215	-0.263971
C	 0.3751403984	-2.6318077378	 0.9985520573	-0.061786
O	-0.9394572015	-2.1025199091	 0.9323916184	-0.265945
C	-1.0968849836	-0.7021167227	 0.7486231691	-0.065311
C	 0.0118830988	-0.039694113	-0.0557115537	-0.089572
H	-0.6175029385	 1.9873607333	 0.5730869393	 0.107055
H	-0.2678053652	 1.9251231997	-1.1700391346	 0.101179
H	 2.1609436675	 1.6041918655	-0.6930366011	 0.11014
H	 1.8523599946	 2.2806462013	 0.9180451353	 0.108195
H	 2.7498633889	-0.2907256097	 2.1704747417	 0.079709
H	 2.1680667074	-2.6968599048	 2.1600836939	 0.103931
H	 0.8329203532	-1.9419899667	 3.0003570282	 0.11482
H	 0.8561920263	-2.6067111894	 0.0088101116	 0.091601
H	 0.2241975815	-3.684765321	 1.2566281279	 0.102742
H	-2.0677600868	-0.57425857	 0.2539099932	 0.101408
H	-1.1574174116	-0.1991648424	 1.7273897242	 0.083725
H	 0.1124482444	-0.5173425886	-1.0379201216	 0.08574
97.6283	192.474	211.7402	287.0186	302.5923	311.3623	392.8408	430.4786	576.3463	584.8029	692.143	734.8191	800.4976	821.8993	863.8728	901.532	928.9025	930.1778	962.2767	1015.996	1033.6683	1059.4555	1072.1304	1098.0022	1121.9932	1143.5431	1156.343	1204.3387	1225.5836	1235.6064	1252.2499	1264.2317	1288.0844	1308.0314	1330.042	1362.1124	1372.8142	1404.7489	1425.1161	1465.9512	1472.2857	1490.6231	1505.4405	1512.8507	1774.5052	2969.1733	2986.5473	3002.743	3028.3793	3031.4433	3036.3723	3046.5577	3059.521	3073.8869	3089.3612	3119.4545	3136.9978
C1CC2=CCCOCC12	C1CC2=CCCOC[C@@H]12	
InChI=1S/C8H12O/c1-2-7-3-4-8(7)6-9-5-1/h2,8H,1,3-6H2	InChI=1S/C8H12O/c1-2-7-3-4-8(7)6-9-5-1/h2,8H,1,3-6H2/t8-/m1/s1
