15
gdb 133266	3.85514	1.1115	0.86745	2.5324	76.54	-0.208	-0.0423	0.1657	1248.2292	0.112535	-458.088221	-458.080138	-458.079194	-458.121233	29.536	
C	 0.0174278349	 1.4505200252	 0.0070580203	-0.32443
N	 0.0378576852	-0.0020650686	 0.0032699769	-0.319501
C	-1.0776653112	-0.642461589	 0.0097460872	 0.309226
C	-2.4326805779	-0.0547615771	 0.0211538526	-0.058782
N	-3.5498326279	-0.7092984038	 0.0277558364	-0.188199
N	-3.4702423016	-2.0557671137	 0.0239837901	-0.297068
C	-2.2820484134	-2.7269234733	 0.0133998365	 0.421857
F	-2.4319583148	-4.0436617664	 0.0111438154	-0.054475
C	-1.0962311193	-2.0973993803	 0.0062097187	-0.375844
H	 1.0470542054	 1.8183332443	-0.0005190524	 0.120171
H	-0.4874102281	 1.8755740061	-0.8744590742	 0.109849
H	-0.4726892828	 1.8709682469	 0.8990290044	 0.109885
H	-2.5499578419	 1.022341171	 0.0246844215	 0.130329
H	-4.3450168285	-2.5543494148	 0.0287153182	 0.284753
H	-0.1691337882	-2.6529507466	-0.0020576515	 0.13223
81.8532	120.003	171.7542	223.3087	298.2918	371.5467	375.0693	468.8213	478.7187	529.7649	585.6967	642.8912	730.45	735.2997	866.9888	934.294	936.7591	1012.888	1054.0883	1096.9109	1123.9137	1155.304	1228.6724	1301.9236	1367.6943	1377.1637	1434.9499	1484.4171	1505.3567	1507.0778	1626.8192	1679.0227	1714.2913	2967.1372	3013.9985	3091.7649	3206.4368	3238.6016	3657.3365
CN=C1C=NNC(F)=C1	C[N]C1=C[C@H](NN=C1)F	
InChI=1S/C5H6FN3/c1-7-4-2-5(6)9-8-3-4/h2-3H,1H3,(H,7,9)	InChI=1S/C5H7FN3/c1-7-4-2-5(6)9-8-3-4/h2-3,5,9H,1H3/t5-/m0/s1
