17
gdb 131238	4.31529	1.0392	0.89783	3.4833	76.45	-0.2057	0.023	0.2286	1284.3115	0.136976	-417.998099	-417.990012	-417.989068	-418.031775	30.425	
O	 0.2446845097	 1.3674644376	 0.2199812958	-0.440287
C	 0.1282807987	 0.0204987966	 0.0586862985	 0.218361
C	 0.4672470373	-0.779973944	-1.0169101126	-0.188709
N	 0.1423203306	-2.0558472202	-0.654390117	 0.048331
N	-0.3804702088	-2.1182311293	 0.579737786	-0.264556
C	-0.3936522511	-0.8606242425	 1.0237503114	-0.060748
C	 0.2874172132	-3.2711389722	-1.4005545008	 0.101475
C	 0.0766148274	-3.3026924102	-2.889623208	-0.28646
C	 1.4632324228	-3.4915268479	-2.312488425	-0.286486
H	 0.6277319476	 1.7493840028	-0.5751931311	 0.298023
H	 0.8990198071	-0.5418091064	-1.9754992193	 0.12213
H	-0.7712631617	-0.6268262787	 2.0070050642	 0.115988
H	-0.0737330362	-4.0975270489	-0.8032562175	 0.12388
H	-0.4376688816	-4.1586236324	-3.3118445153	 0.126041
H	-0.1405163519	-2.3622015524	-3.3838965274	 0.123486
H	 2.1706836548	-2.6769729523	-2.4219722358	 0.123486
H	 1.9112818323	-4.4785220796	-2.3341554162	 0.126045
28.478	122.0368	169.0031	227.9487	320.5563	369.9624	432.9138	456.8645	584.0156	637.3927	665.7387	719.4549	719.9247	776.6154	809.0812	847.0275	914.7721	940.7803	991.6111	1036.7068	1058.3595	1070.2665	1090.1736	1129.1491	1151.5452	1183.05	1196.1562	1226.3989	1250.1172	1311.6037	1407.9221	1423.9533	1459.6935	1463.145	1498.5814	1512.7041	1629.4613	3136.9365	3139.8415	3210.608	3217.6079	3233.2263	3257.0104	3259.4385	3837.7808
OC1=CN(N=C1)C1CC1	Oc1cn(nc1)C1CC1	
InChI=1S/C6H8N2O/c9-6-3-7-8(4-6)5-1-2-5/h3-5,9H,1-2H2	InChI=1S/C6H8N2O/c9-6-3-7-8(4-6)5-1-2-5/h3-5,9H,1-2H2
