20
gdb 78528	2.33583	1.60456	1.27579	2.4908	79.87	-0.2119	0.0695	0.2814	1103.251	0.168912	-403.063475	-403.054444	-403.0535	-403.096399	35.246	
C	 0.1561050179	 1.4684055656	 0.0751343692	-0.475353
C	-0.1003087683	-0.0063010407	-0.0256860141	 0.331856
C	-0.9952848196	-0.7619655461	 0.8776006655	-0.305294
N	 0.4770205093	-0.9731732512	 0.9708210875	-0.220945
C	 1.0043326416	-1.7977842058	-0.1865091911	 0.318013
C	 2.3762757381	-2.358419917	 0.0338557355	-0.465605
C	 0.0721552475	-2.2644239458	-1.2549357968	 0.042848
O	-1.1851155726	-2.8580785056	-1.0612679645	-0.418711
C	 0.4331800586	-0.8037473925	-1.2306258837	-0.265708
H	 1.1897466786	 1.7084304141	-0.1985054951	 0.12078
H	-0.5079039317	 2.0264356263	-0.5963546084	 0.116955
H	-0.0151774487	 1.8192859196	 1.096605072	 0.127897
H	-1.3566661085	-0.2190364275	 1.7479762994	 0.110039
H	-1.6313784741	-1.5574560176	 0.521820345	 0.149394
H	 2.3441592204	-3.1423912102	 0.7999816833	 0.130591
H	 2.7809276738	-2.7932340281	-0.884855057	 0.113256
H	 3.060425911	-1.5805962997	 0.3864448705	 0.127548
H	 0.6488835501	-2.7690458487	-2.035585319	 0.092338
H	-1.7474495772	-2.5930770422	-1.7979967601	 0.285602
H	 0.9261036736	-0.3189852369	-2.0659750381	 0.084498
126.7982	185.3408	192.6204	206.827	264.0641	270.9333	303.104	317.6574	367.31	447.8867	528.4459	577.5618	605.0397	647.2384	746.2186	751.0818	822.9013	900.4782	905.5363	937.8844	976.5745	988.7017	1011.411	1050.4565	1095.6332	1098.976	1124.2221	1130.2338	1164.3126	1206.0681	1224.1512	1289.9907	1311.453	1359.4525	1381.9549	1413.0026	1418.9834	1471.6851	1475.3252	1481.9289	1494.3515	1497.0414	1506.517	3023.374	3028.6046	3060.3927	3082.9019	3092.8959	3112.7544	3113.4797	3123.2253	3171.3908	3263.4356	3794.1575
CC12CN1C1(C)C(O)C21	C[C@]12CN1[C@@]1(C)[C@@H](O)[C@@H]21	
InChI=1S/C7H11NO/c1-6-3-8(6)7(2)4(6)5(7)9/h4-5,9H,3H2,1-2H3	InChI=1S/C7H11NO/c1-6-3-8(6)7(2)4(6)5(7)9/h4-5,9H,3H2,1-2H3/t4-,5-,6+,7+,8?/m0/s1
