18
gdb 53815	3.32815	1.20222	0.89815	1.9398	76.48	-0.2194	-0.0157	0.2037	1269.7382	0.148538	-435.292717	-435.283521	-435.282577	-435.327882	32.819	
N	-0.0857395448	 1.2763319195	-0.2738173572	-0.513933
C	 0.0561840181	-0.0551387599	-0.1125530862	 0.386
O	 1.1227152799	-0.6438903546	-0.0435596895	-0.382365
C	-1.2872079856	-0.7772391324	-0.0217689041	 0.263562
N	-2.3580471054	-0.0657073539	-0.10564887	-0.570048
N	-1.2114520835	-2.1160569827	 0.1402489102	-0.076001
C	-0.1322611834	-3.1093170523	 0.2595196866	-0.143779
C	-1.2264852204	-4.206819047	 0.3954385639	-0.254921
C	-2.2954850823	-3.0848806924	 0.2607817329	-0.180847
H	 0.7313395842	 1.8567244227	-0.3460952887	 0.260667
H	-1.0211930121	 1.6517152453	-0.3170609192	 0.280092
H	-3.2039691797	-0.6314246631	-0.035135917	 0.209689
H	 0.5053367283	-3.1760263756	-0.6248815299	 0.128566
H	 0.5086254601	-2.9616106175	 1.1316264918	 0.128559
H	-1.2394263181	-4.9416694497	-0.4097890075	 0.117851
H	-1.2359897919	-4.7269259	 1.3535374405	 0.117848
H	-2.9337031637	-2.9285689063	 1.1401643551	 0.114521
H	-2.9374194896	-3.1443482302	-0.6277240118	 0.11454
36.597	71.7211	113.6696	140.8792	180.7448	304.0501	316.2076	385.7074	448.8843	474.3017	620.1351	648.2531	669.6071	764.6912	811.7872	833.9233	852.3674	863.0869	929.8129	941.2735	1003.2179	1098.4281	1139.1338	1141.4978	1168.2822	1198.5626	1226.9912	1244.6393	1271.5439	1293.8839	1332.0001	1358.9403	1480.1803	1496.2518	1509.4652	1531.861	1576.8764	1670.9136	1792.1075	3006.6217	3042.7511	3067.7509	3093.8922	3109.0975	3148.3416	3474.0517	3578.6335	3737.1257
NC(=O)C(=N)N1CCC1	NC(=O)[C]([NH])N1CCC1	
InChI=1S/C5H9N3O/c6-4(5(7)9)8-2-1-3-8/h6H,1-3H2,(H2,7,9)	InChI=1S/C5H9N3O/c6-4(5(7)9)8-2-1-3-8/h6H,1-3H2,(H2,7,9)
