18
gdb 11785	4.18513	1.79341	1.64803	1.0292	71.92	-0.2273	0.0133	0.2406	862.4095	0.154402	-347.758814	-347.75176	-347.750816	-347.789857	28.048	
C	 0.0644916291	 1.3575919052	 0.1176315008	-0.262609
O	-0.1235141402	-0.0289973344	-0.0795083823	-0.299125
C	 0.5862287866	-0.5515962004	-1.1491857181	 0.415977
C	 2.1591826438	-0.5283887367	-1.2609286074	-0.27341
C	 1.8428912727	-1.6766054671	-2.2798784185	-0.082448
C	 0.7002704662	-2.0985071125	-1.2892117462	-0.261055
C	 1.0285828056	-0.9084268108	-3.3321599821	-0.07954
C	 0.201880546	-0.1634114562	-2.5966362979	-0.157363
H	 1.1139699923	 1.5966926496	 0.3426479998	 0.112291
H	-0.2416413848	 1.9448687703	-0.7601427342	 0.108724
H	-0.5551317162	 1.6472938933	 0.9692218343	 0.127432
H	 2.6349643625	 0.3718520402	-1.6554265551	 0.091702
H	 2.6551366473	-0.8787215252	-0.3502986735	 0.096094
H	 2.6066549445	-2.3765740652	-2.6111620657	 0.06706
H	 1.0669285838	-2.5797928065	-0.377570428	 0.097375
H	-0.1587133346	-2.6300181796	-1.703272467	 0.096422
H	 1.123614908	-0.993561656	-4.4055803445	 0.100694
H	-0.5781468225	 0.5260461519	-2.8861349942	 0.101779
99.929	182.2444	207.1774	365.8464	398.897	471.9842	538.5841	546.2636	621.0383	691.2639	710.9689	833.3078	835.3561	894.457	909.0488	940.3197	942.4171	992.9374	1029.2747	1038.4841	1066.1566	1081.4799	1110.4232	1151.5573	1175.062	1182.3608	1213.7434	1220.1025	1234.358	1260.801	1277.1976	1341.4666	1476.1973	1482.9756	1487.4001	1507.707	1516.7868	1630.398	2988.2078	3037.5466	3047.6736	3059.4756	3119.3314	3122.5505	3129.5656	3141.625	3217.2379	3245.536
COC12CC(C1)C=C2	CO[C@@]12C[C@@H](C1)C=C2	
InChI=1S/C7H10O/c1-8-7-3-2-6(4-7)5-7/h2-3,6H,4-5H2,1H3	InChI=1S/C7H10O/c1-8-7-3-2-6(4-7)5-7/h2-3,6H,4-5H2,1H3/t6-,7-
