18
gdb 76071	2.22665	1.35481	1.13919	6.036	78.07	-0.256	-0.0328	0.2233	1183.4807	0.14562	-401.976976	-401.967354	-401.96641	-402.011827	34.27	
C	-0.1481405928	 1.5825119857	-0.0241930704	-0.424325
C	 0.0208704028	 0.0847224407	 0.0836928995	-0.028793
C	 1.3435708654	-0.5951605886	-0.1777098594	-0.199437
C	 2.5244881236	 0.1567910868	-0.5050952266	 0.319129
N	 3.4816571761	 0.7115054024	-0.8417156592	-0.342255
C	 0.7488483555	-0.5917464646	 1.239147044	-0.147845
C	 1.3898219158	 0.1957645746	 2.3436598499	 0.395207
C	 1.2658114579	-0.4115407741	 3.7279062317	-0.484845
O	 1.9635807451	 1.2446252569	 2.1500889062	-0.304423
H	 0.7264695151	 2.1151083221	 0.3481876763	 0.178452
H	-0.311597272	 1.8618142621	-1.069831211	 0.129598
H	-1.0209650044	 1.9075130672	 0.55094227	 0.122102
H	-0.8307423081	-0.4884910957	-0.2729245233	 0.110034
H	 1.3109235053	-1.5578606925	-0.6781523422	 0.13954
H	 0.3465919668	-1.5515958415	 1.5460596786	 0.101904
H	 1.7438007205	-1.397883234	 3.7512351244	 0.145338
H	 1.7371974635	 0.2426844309	 4.4614597014	 0.149004
H	 0.2113115339	-0.5627769085	 3.98630989	 0.141615
52.505	113.1791	130.4759	151.2414	180.3271	216.9239	259.1911	321.9622	371.9797	400.2146	508.9784	587.774	639.4571	660.955	744.3614	788.3047	808.2937	922.8644	961.7332	972.6106	1009.2949	1051.5401	1081.6926	1098.9003	1153.7828	1161.569	1179.3492	1249.2348	1369.048	1378.0901	1396.5586	1415.0805	1424.5687	1463.3223	1474.546	1495.1171	1502.4191	1799.7304	2357.9812	3033.4075	3045.8957	3093.2056	3104.2768	3140.029	3156.4712	3158.1945	3163.0859	3170.1014
CC1C(C#N)C1C(C)=O	C[C@H]1[C@@H](C#N)[C@H]1C(=O)C	
InChI=1S/C7H9NO/c1-4-6(3-8)7(4)5(2)9/h4,6-7H,1-2H3	InChI=1S/C7H9NO/c1-4-6(3-8)7(4)5(2)9/h4,6-7H,1-2H3/t4-,6+,7+/m0/s1
