17
gdb 81132	3.43319	1.13215	1.01854	2.1696	74.23	-0.2401	0.0527	0.2927	1195.5279	0.133331	-421.71815	-421.709535	-421.708591	-421.751623	32.707	
O	 0.0120926969	 1.4717428266	-0.0997702781	-0.432586
C	 0.0108594069	 0.0754108299	-0.0096558609	 0.074577
C	-0.1105960464	-0.659567238	 1.3624921181	-0.005522
C	-1.5357079951	-0.0927352668	 1.5344079471	-0.265062
C	-1.3755950743	-0.6080319665	 0.0795093088	 0.405638
C	-2.3993261868	-0.791015854	-1.0138466414	-0.490455
C	-3.6161722014	-1.4587355169	-0.5683391386	 0.309555
C	-4.6181991973	-2.0023605166	-0.1898248911	-0.449834
O	-0.6708754228	-1.8017123829	 0.6084210996	-0.335939
H	 0.9230304436	 1.7805086676	-0.0765239035	 0.293415
H	 0.698615454	-0.4151707465	-0.7075737804	 0.083383
H	 0.6493603833	-0.8808151477	 2.1114524856	 0.092669
H	-2.2002545029	-0.6918453433	 2.1565501438	 0.114878
H	-1.6422719377	 0.9828349269	 1.6786622566	 0.113592
H	-2.6386341835	 0.2024504133	-1.415075557	 0.149872
H	-1.9324314897	-1.3557777827	-1.8308349872	 0.144121
H	-5.5022741568	-2.4892999624	 0.1395651485	 0.197701
55.1743	107.1606	200.6639	243.2308	279.5436	320.3399	336.207	372.1088	488.0442	570.0244	600.0932	619.3624	641.0743	689.6745	726.9911	843.1455	877.232	909.6414	944.349	954.6466	990.983	1012.7047	1049.6159	1111.5898	1136.7554	1151.9419	1198.2617	1210.4086	1226.8255	1253.9402	1290.5207	1304.4144	1353.3876	1422.5209	1450.1855	1488.6787	2244.3303	3023.3385	3054.1888	3059.6085	3087.1874	3124.4148	3169.2269	3507.2283	3824.5486
OC1C2CC1(CC#C)O2	O[C@H]1[C@H]2C[C@]1(CC#C)O2	
InChI=1S/C7H8O2/c1-2-3-7-4-5(9-7)6(7)8/h1,5-6,8H,3-4H2	InChI=1S/C7H8O2/c1-2-3-7-4-5(9-7)6(7)8/h1,5-6,8H,3-4H2/t5-,6+,7+/m1/s1
