14
gdb 16378	3.08325	2.4887	1.74267	4.7078	61.83	-0.2271	-0.0732	0.1539	755.7362	0.108628	-382.550579	-382.544445	-382.543501	-382.580835	23.796	
O	-0.0251138892	 0.0254424436	-0.0263621171	-0.302967
C	-0.0694487022	 1.2218492786	 0.0026620055	 0.340854
C	-1.2452486799	 2.1817495723	 0.0614521205	-0.135689
C	-0.7903494543	 3.2467342503	-0.9931164606	-0.249946
C	 0.3403847939	 3.5533996975	 0.0464177555	-0.135689
C	-0.7258137184	 3.1954677682	 1.1365222273	-0.249908
C	 1.1203973441	 2.2511256739	-0.0086450842	 0.340853
O	 2.2975876538	 2.0346908768	-0.0483460027	-0.302966
H	-2.2436473987	 1.752136069	 0.0813910365	 0.098085
H	-0.5039025362	 2.9046657037	-1.9908528036	 0.123952
H	-1.5036837386	 4.0705671744	-1.0648873068	 0.125663
H	 0.9093891244	 4.4796682739	 0.051499763	 0.098085
H	-1.4322960312	 4.0138553938	 1.2908647211	 0.125682
H	-0.3800076674	 2.806246134	 2.0974934856	 0.123992
127.6281	218.146	291.6332	452.5279	487.691	544.672	592.9298	691.1083	771.6056	779.7917	845.7033	881.2426	887.0755	948.9567	969.5768	994.5082	1018.074	1044.1043	1101.1387	1113.2608	1202.7019	1226.3061	1235.075	1241.7037	1267.3319	1298.4505	1488.5305	1517.2637	1869.2019	1891.4786	3062.2691	3062.761	3124.9058	3125.1858	3153.0789	3154.7742
O=C1C2CC(C2)C1=O	O=C1[C@@H]2C[C@@H](C2)C1=O	
InChI=1S/C6H6O2/c7-5-3-1-4(2-3)6(5)8/h3-4H,1-2H2	InChI=1S/C6H6O2/c7-5-3-1-4(2-3)6(5)8/h3-4H,1-2H2/t3-,4+
