20
gdb 78385	2.73486	1.60371	1.3221	2.9621	78.57	-0.2212	0.0728	0.2939	1049.8659	0.171928	-403.072849	-403.065181	-403.064237	-403.10451	31.532	
C	-0.2038619393	 1.2560986933	-0.0532741361	-0.325758
N	 0.0612011494	-0.177250619	 0.0562586633	-0.121954
C	 1.4898366971	-0.5102394066	-0.1276299475	-0.041987
C	 0.8777951331	-0.5263115062	 1.2395524779	-0.03424
C	 0.9994825436	-2.0634968043	 1.3081089057	-0.091774
C	-0.1943654431	-2.9145350466	 0.738001282	 0.137097
O	-1.4886204083	-2.4016041993	 0.8563036548	-0.435979
C	 0.4849705443	-2.8999354409	-0.67947597	-0.277223
C	 1.6524392974	-2.047841605	-0.1135590896	-0.058039
H	 0.6219711766	 1.8844049085	 0.3175435073	 0.10474
H	-0.3828922343	 1.5082754423	-1.1029481128	 0.12874
H	-1.103735702	 1.5008741341	 0.5194133186	 0.129708
H	 2.1368551566	 0.2217492485	-0.597641655	 0.092269
H	 0.953844549	 0.1843923552	 2.0543577583	 0.09451
H	 1.5306326159	-2.440524159	 2.1821948804	 0.065892
H	-0.2139116749	-3.9178047871	 1.1734676514	 0.081063
H	-1.4347707019	-1.5214570287	 0.4513711247	 0.28393
H	 0.7951140052	-3.8890421471	-1.0262880972	 0.095283
H	-0.1158354182	-2.4214688501	-1.4552999911	 0.103171
H	 2.6746823139	-2.3925337018	-0.2662075949	 0.070552
152.6342	185.6268	235.3627	282.1979	299.047	379.3971	417.8127	478.141	616.5745	644.0436	677.8828	721.3176	793.9255	816.5233	827.3085	847.5725	880.2685	908.2607	924.1831	987.1532	1012.2252	1021.7051	1041.1752	1086.4139	1096.5113	1127.3224	1138.7506	1154.0849	1170.163	1203.5544	1221.3908	1234.2922	1251.2596	1266.3712	1302.4123	1312.1948	1336.8235	1364.0074	1453.3924	1465.521	1475.0431	1495.0651	1500.1837	2973.9916	3058.7551	3067.1486	3071.7808	3106.9071	3107.5629	3116.4332	3126.2884	3171.0546	3185.1106	3677.6225
CN1C2C1C1C(O)CC21	CN1[C@H]2[C@@H]1[C@H]1[C@@H](O)C[C@@H]21	
InChI=1S/C7H11NO/c1-8-6-3-2-4(9)5(3)7(6)8/h3-7,9H,2H2,1H3	InChI=1S/C7H11NO/c1-8-6-3-2-4(9)5(3)7(6)8/h3-7,9H,2H2,1H3/t3-,4+,5-,6-,7+,8?/m1/s1
