20
gdb 116406	2.77305	1.33947	0.9571	3.5407	76.7	-0.227	0.0232	0.2502	1252.0216	0.172483	-440.322203	-440.313285	-440.312341	-440.356177	33.054	
C	 0.0129958619	 1.4001879988	-0.044205434	-0.244507
O	-0.0956812469	-0.0101870895	 0.0571286673	-0.239228
C	 0.6737487805	-0.6025888095	 1.0723802198	 0.024156
C	 0.0170089759	-1.9327735532	 1.4449480156	-0.2282
C	 0.8982510505	-2.7058085658	 2.4268424887	-0.214513
C	 2.2458178751	-3.0241868078	 1.7838814688	-0.14781
N	 2.8263070214	-1.8295112039	 1.1811509537	-0.308558
C	 2.1515610301	-0.7632455758	 0.6493549456	 0.381797
O	 2.7108437394	 0.0485161634	-0.0659153003	-0.372201
H	 1.0208335069	 1.7055278559	-0.335979159	 0.146853
H	-0.7057048224	 1.7130580956	-0.8059473832	 0.119141
H	-0.2518893534	 1.8847150259	 0.9094742649	 0.093473
H	 0.6907340334	 0.0478391337	 1.9662558438	 0.08506
H	-0.9744019695	-1.7356151671	 1.8627185449	 0.107568
H	-0.1330528691	-2.5149256654	 0.5271836387	 0.114661
H	 1.0559594309	-2.1109221668	 3.3350888732	 0.10929
H	 0.4170070866	-3.6395422068	 2.7329869241	 0.107374
H	 2.9465616899	-3.4141606495	 2.5301036472	 0.111789
H	 2.1126542039	-3.8106393684	 1.0249167016	 0.110075
H	 3.7817017248	-1.8869815437	 0.8545342985	 0.243779
57.8648	120.56	141.6614	188.5325	245.0192	295.3371	323.7799	378.1297	441.107	469.9685	535.1251	592.8724	666.0801	691.5809	796.9085	889.0605	901.2776	932.1448	989.3773	1030.1719	1078.4463	1113.1266	1127.432	1169.9013	1178.2411	1192.5112	1209.6825	1241.8423	1284.4568	1313.8175	1334.3189	1354.0253	1378.8003	1388.7328	1403.4341	1471.476	1477.8271	1478.8571	1489.3408	1502.0307	1521.2444	1527.6531	1781.2391	2935.0461	2977.6653	2982.827	3031.3719	3038.9418	3058.9783	3086.177	3087.6753	3091.1876	3130.1091	3586.3039
COC1CCCNC1=O	CO[C@H]1CCCNC1=O	
InChI=1S/C6H11NO2/c1-9-5-3-2-4-7-6(5)8/h5H,2-4H2,1H3,(H,7,8)	InChI=1S/C6H11NO2/c1-9-5-3-2-4-7-6(5)8/h5H,2-4H2,1H3,(H,7,8)/t5-/m0/s1
