15
gdb 7891	3.51036	1.87394	1.31146	2.1839	62.56	-0.2663	-0.019	0.2472	925.1884	0.118328	-399.868176	-399.860526	-399.859582	-399.900154	27.539	
C	-0.0983831759	 1.5478275263	-0.0113350436	-0.387071
C	 0.0274907071	 0.0216743931	-0.0195269432	-0.123974
N	 0.7963881813	-0.4874433958	-1.1554642869	-0.28943
C	 1.7542555783	-1.1610463069	-0.6653768653	 0.404594
C	 2.8255422633	-1.8847946176	-1.3970456922	-0.477775
O	 1.833268059	-1.2473764679	 0.717594586	-0.232676
C	 0.7631173521	-0.5090323235	 1.2104987869	 0.416866
O	 0.5567657286	-0.3722664316	 2.3751382054	-0.32101
H	 0.8888905675	 2.0181294731	-0.0155087733	 0.13009
H	-0.6419906264	 1.8797241298	-0.8983996762	 0.137509
H	-0.6357376734	 1.8704630226	 0.8839560812	 0.142877
H	-0.9775165173	-0.419438121	-0.0357236332	 0.13202
H	 3.8087373733	-1.5028516475	-1.1045868882	 0.154678
H	 2.8024214747	-2.9500433437	-1.1463906809	 0.155066
H	 2.6831504277	-1.7554636192	-2.4695718964	 0.158235
114.3253	165.2148	171.185	220.4336	232.9438	301.7044	409.7675	528.0121	621.4127	629.4628	675.2423	740.773	811.0939	914.3238	924.6101	1023.5037	1026.8774	1066.2752	1102.0144	1134.7673	1159.7096	1263.778	1303.955	1314.8847	1402.4086	1413.8675	1472.9495	1473.2924	1488.0331	1497.6226	1741.4452	1914.7848	3033.2958	3051.0764	3051.5377	3110.0206	3128.2853	3139.6684	3165.5612
CC1N=C(C)OC1=O	C[C@H]1N=C(C)OC1=O	
InChI=1S/C5H7NO2/c1-3-5(7)8-4(2)6-3/h3H,1-2H3	InChI=1S/C5H7NO2/c1-3-5(7)8-4(2)6-3/h3H,1-2H3/t3-/m1/s1
