19
gdb 77457	1.90343	1.47921	1.44086	4.037	77.46	-0.2316	-0.0044	0.2272	1106.5596	0.156239	-423.02277	-423.013038	-423.012094	-423.057021	35.657	
C	-0.0217943598	 1.5513135202	 0.0407943289	-0.421322
C	 0.1643456428	 0.0455145006	 0.0372043706	-0.140552
C	 1.4127531092	-0.6993256512	-0.2421607941	 0.374852
O	 1.5684278244	-1.6712144056	-1.2033208581	-0.44992
C	 2.6455327762	-0.0065444375	 0.3273077673	-0.416489
C	 1.9780124691	-0.1271371785	 1.7228881607	 0.375659
O	 2.4041299291	 0.0378258463	 2.8344115947	-0.32597
C	 0.7417129932	-0.7820686579	 1.2029608264	 0.105591
C	-0.059744427	-1.8286727652	 1.9223593466	-0.497661
H	 0.8492616772	 2.0726352763	 0.4450821482	 0.134319
H	-0.1959463026	 1.9260013446	-0.9738807177	 0.121081
H	-0.8859864955	 1.8287314325	 0.6530999912	 0.127851
H	-0.7075179416	-0.4827663435	-0.358494469	 0.083368
H	 0.7301001675	-1.8036370061	-1.6570581449	 0.291197
H	 3.5266277441	-0.654198375	 0.2911515534	 0.138613
H	 2.9096069407	 0.9839198026	-0.054629492	 0.114871
H	-0.8059378736	-1.3811950438	 2.5882870307	 0.132746
H	-0.5921133079	-2.4703123071	 1.211339728	 0.11393
H	 0.5894222645	-2.4645255417	 2.5315919391	 0.137835
90.8517	128.462	155.3039	168.4965	195.9891	219.6356	241.076	258.5771	357.6589	440.0736	490.5571	563.55	576.6649	627.6671	658.9788	677.5384	753.6564	843.2602	935.3413	984.0321	1009.2568	1051.1632	1072.7597	1093.1474	1106.9199	1120.4022	1146.667	1201.1985	1215.2419	1306.6447	1345.6548	1399.6131	1414.0867	1421.3104	1451.6941	1476.9891	1485.9376	1495.4808	1498.1129	1506.2728	1862.7275	3027.3937	3035.9775	3053.9836	3069.4678	3086.952	3097.3264	3106.2363	3108.5217	3121.9807	3824.2905
CC1C2(O)CC(=O)C12C	C[C@H]1[C@@]2(O)CC(=O)[C@@]12C	
InChI=1S/C7H10O2/c1-4-6(2)5(8)3-7(4,6)9/h4,9H,3H2,1-2H3	InChI=1S/C7H10O2/c1-4-6(2)5(8)3-7(4,6)9/h4,9H,3H2,1-2H3/t4-,6-,7+/m1/s1
