17
gdb 80083	2.21145	2.05005	1.39598	3.8523	74.16	-0.216	-0.0074	0.2086	966.1753	0.137666	-418.033031	-418.025245	-418.024301	-418.065321	29.931	
C	-0.2241135599	 1.4928575065	 0.1503988871	-0.420075
C	-0.0449690572	 0.0088930782	-0.0509248085	-0.008632
C	 0.6728237279	-0.569280873	-1.2450081713	-0.081555
C	 1.3770569421	 0.2436869179	-2.262952945	-0.137515
C	 2.5704470703	 0.760638327	-1.9590843254	 0.00634
N	 3.1336997603	 0.6125267851	-0.6895722498	-0.344971
C	 2.4056715293	 0.1622880272	 0.407340859	 0.419164
O	 2.7560191536	 0.3836295618	 1.5423437189	-0.359886
N	 1.2772642009	-0.6194867781	 0.095047517	-0.162238
H	 0.4679744644	 2.0717596277	-0.4671688716	 0.130076
H	-1.2443400342	 1.7827998645	-0.1200414546	 0.122017
H	-0.0602937579	 1.7624743987	 1.1984175336	 0.146415
H	-0.8359500108	-0.6040404825	 0.3775627317	 0.101136
H	 0.3200430217	-1.5421855038	-1.5887200368	 0.104243
H	 0.959468579	 0.3547341032	-3.2549624866	 0.102189
H	 3.1709176133	 1.3261252325	-2.6618542709	 0.123759
H	 3.9703259771	 1.1209153669	-0.4509276871	 0.259532
87.9802	136.6656	194.7179	215.3521	373.1045	411.8489	465.4333	521.7938	552.0639	575.3755	597.6917	709.0112	739.0148	772.0668	826.2631	846.1555	931.5769	938.9893	981.921	1019.9545	1074.8065	1087.3058	1110.4067	1151.1217	1169.8304	1190.5272	1241.09	1335.9863	1378.8033	1410.7306	1420.6296	1423.2179	1462.6068	1491.9229	1494.6925	1720.3772	1819.7797	3040.6161	3091.4989	3107.675	3112.9217	3129.7013	3199.4627	3221.8189	3643.8091
CC1C2C=CNC(=O)N12	C[C@H]1[C@H]2C=CNC(=O)N12	
InChI=1S/C6H8N2O/c1-4-5-2-3-7-6(9)8(4)5/h2-5H,1H3,(H,7,9)	InChI=1S/C6H8N2O/c1-4-5-2-3-7-6(9)8(4)5/h2-5H,1H3,(H,7,9)/t4-,5+,8?/m0/s1
