19
gdb 71697	3.49824	1.48261	1.37679	1.395	77.79	-0.2166	0.0803	0.2969	1012.6195	0.159595	-385.846297	-385.838802	-385.837858	-385.877527	31.226	
C	 0.004663959	 1.4184079331	 0.0313266808	-0.494186
C	-0.0139266289	-0.087841883	-0.0279288805	 0.326497
C	-0.4102190742	-0.8214273457	-1.3025310312	-0.283935
C	-0.2698154975	-2.2502640871	-0.8209140595	-0.159602
C	-0.6130076667	-2.3518304098	 0.6707517263	-0.148825
C	-0.4428658919	-0.9028206942	 1.1843715393	-0.109808
C	 1.0099793138	-0.9064323862	 0.7422442355	-0.218955
C	 0.823084075	-2.3643991238	 0.2261300356	 0.396139
O	 1.736090863	-3.3906926503	 0.3342164778	-0.467205
H	 0.7131348148	 1.8372014304	-0.6925642267	 0.116407
H	-0.9842918411	 1.8352817553	-0.1914417443	 0.117736
H	 0.2979713282	 1.7726965802	 1.0247869605	 0.117317
H	-1.4333211447	-0.5756636108	-1.612168178	 0.095416
H	 0.264512929	-0.5908588685	-2.136644715	 0.089727
H	-0.4703265407	-3.1098052798	-1.4497126857	 0.084811
H	-1.2211026538	-3.1356832049	 1.0998089452	 0.090728
H	-0.8831361615	-0.4757145577	 2.0755685767	 0.081417
H	 1.8812955217	-0.5030515368	 1.2413261192	 0.083423
H	 2.3408964663	-3.3378542102	-0.415025546	 0.282898
199.0839	220.7671	237.1513	286.126	319.4425	377.4232	421.1855	522.2227	567.0169	618.8888	707.5991	743.2378	766.1274	806.494	832.4073	871.8351	886.3546	912.2972	930.4867	952.6307	974.2499	1004.923	1013.3425	1026.5168	1068.9366	1103.5183	1128.3116	1145.2828	1188.0892	1204.0643	1219.98	1261.6492	1281.1802	1309.1384	1321.9063	1388.6331	1417.5405	1469.9857	1490.952	1491.2688	1499.909	3020.6863	3024.8542	3061.1155	3082.6364	3096.3136	3189.6712	3192.9117	3203.5715	3216.7997	3777.3853
CC12CC3C4C1C2C34O	C[C@]12C[C@@H]3[C@@H]4[C@H]1[C@H]2[C@]34O	
InChI=1S/C8H10O/c1-7-2-3-4-5(7)6(7)8(3,4)9/h3-6,9H,2H2,1H3	InChI=1S/C8H10O/c1-7-2-3-4-5(7)6(7)8(3,4)9/h3-6,9H,2H2,1H3/t3-,4-,5+,6-,7+,8+/m1/s1
