12
gdb 131349	3.22524	1.49553	1.02175	3.6028	60.79	-0.2403	-0.068	0.1722	1036.129	0.07921	-505.989185	-505.982106	-505.981161	-506.020851	26.837	
O	-0.0348481712	 1.3408062059	 0.0102479983	-0.400122
C	 0.0235405185	-0.0026818885	 0.0027918931	 0.363671
N	 1.1521131309	-0.6240864343	-0.0074636553	-0.258312
N	 1.0917723833	-1.969070807	-0.0142556022	-0.291945
C	-0.062017987	-2.760809016	-0.0117797658	 0.45649
O	 0.01594255	-3.9675464241	-0.017228345	-0.375684
N	-1.2571830625	-2.0405401315	 0.000150506	-0.409898
C	-1.2198652462	-0.7524783602	 0.0067814966	 0.383966
O	-2.3434058228	-0.0362830087	 0.0177619069	-0.377271
H	 0.8754648806	 1.6691954483	 0.0062536727	 0.311697
H	 1.981391224	-2.4457094447	-0.0219467222	 0.281935
H	-3.0756839374	-0.6732738392	 0.0190608368	 0.315472
92.7322	205.7852	308.5063	359.8164	392.2852	392.552	491.0689	507.1785	547.8641	610.9825	615.0288	642.8645	731.4944	765.0203	795.695	829.4891	974.6204	1145.2201	1194.984	1236.6711	1317.4097	1371.953	1439.3265	1540.1825	1624.6527	1691.0925	1820.3728	3625.8179	3730.7849	3767.5055
OC1=NNC(=O)N=C1O	Oc1n[nH]c(=O)nc1O	
InChI=1S/C3H3N3O3/c7-1-2(8)5-6-3(9)4-1/h(H,5,8)(H2,4,6,7,9)	InChI=1S/C3H3N3O3/c7-1-2(8)5-6-3(9)4-1/h(H,5,8)(H2,4,6,7,9)
