17
gdb 42886	2.38797	1.79121	1.56704	1.8402	67.71	-0.2403	-0.0399	0.2004	931.7272	0.13752	-458.954866	-458.947725	-458.946781	-458.986312	28.115	
O	-0.0143318508	 0.0179624313	 0.1311235357	-0.302153
C	-0.0203381713	 1.2078437185	 0.0163795807	 0.366586
C	-1.1196682049	 2.2864255572	 0.0614788584	-0.147838
C	-0.0110090204	 3.258244392	 0.5723275238	-0.258579
C	 1.085245002	 2.3079734841	-0.0156089804	 0.018035
O	 1.5060019766	 2.6591014807	-1.3209261323	-0.252999
C	 0.5494498412	 2.497633767	-2.3454503652	 0.006277
O	-0.6179046158	 3.2551547171	-2.1633242888	-0.235475
C	-1.6165314547	 2.6524751031	-1.3514181783	-0.110934
H	-1.9723711899	 2.0638126835	 0.7081228083	 0.098915
H	-0.0117626053	 4.2636517442	 0.1532561078	 0.129417
H	 0.033755294	 3.2980493993	 1.6630589519	 0.114309
H	 1.9876872794	 2.136534671	 0.5735668164	 0.105131
H	 1.0347463191	 2.8712919845	-3.2486936602	 0.125882
H	 0.2932816028	 1.4307210717	-2.466165107	 0.103691
H	-2.0231069644	 1.7548806321	-1.8424474553	 0.113791
H	-2.4160248676	 3.3948021827	-1.2813362458	 0.125943
122.7505	199.6157	233.3456	343.9118	367.6266	388.2838	460.9499	479.5436	620.3456	646.7985	759.3521	798.6735	831.2434	864.9945	924.6948	938.3499	997.8242	1020.616	1051.7657	1063.5562	1099.1528	1113.9786	1140.0045	1163.9148	1203.9723	1228.5642	1256.091	1274.8667	1298.8306	1331.3336	1356.4066	1396.3343	1440.7211	1466.7531	1493.701	1508.3613	1887.2568	2956.7647	2992.7472	3077.396	3086.3146	3095.6449	3106.4789	3119.23	3155.0274
O=C1C2CC1OCOC2	O=C1[C@H]2C[C@@H]1OCOC2	
InChI=1S/C6H8O3/c7-6-4-1-5(6)9-3-8-2-4/h4-5H,1-3H2	InChI=1S/C6H8O3/c7-6-4-1-5(6)9-3-8-2-4/h4-5H,1-3H2/t4-,5-/m0/s1
