19
gdb 50007	3.62932	1.02494	0.95013	3.3231	82.3	-0.2427	-0.0173	0.2254	1285.8082	0.159342	-385.901399	-385.893217	-385.892273	-385.934605	31.266	
O	-0.174671537	 0.2133158612	-0.7911449881	-0.27382
C	-0.0428432431	 1.257956893	-0.2010832735	 0.164864
C	 1.2375368644	 1.9766196146	-0.0340207444	-0.150907
C	 1.2032190994	 3.5005892183	 0.0535496304	-0.342994
C	 1.5447191361	 2.7091401813	 1.2696895835	 0.33946
C	 0.5991745774	 2.6875972063	 2.4855817407	-0.342938
C	 1.5189896045	 3.0621694146	 3.6229699538	-0.06036
C	 2.7994365908	 3.0743516516	 3.2589628107	-0.060266
C	 2.9867437195	 2.711872641	 1.8061720355	-0.32957
H	-0.9203106571	 1.7673491778	 0.2636547088	 0.063544
H	 2.0748346399	 1.5156703709	-0.5484804348	 0.101902
H	 1.9889310715	 4.0373019255	-0.4675437613	 0.123987
H	 0.2253147732	 3.9719478123	 0.0054903518	 0.120097
H	-0.2408163352	 3.3835435948	 2.3719861917	 0.109597
H	 0.1576480094	 1.6958202102	 2.6571157753	 0.11836
H	 1.1485012832	 3.2624147933	 4.6218922879	 0.096888
H	 3.6362114694	 3.2872555653	 3.9144419899	 0.096946
H	 3.4638516512	 1.7265889427	 1.7054073504	 0.116379
H	 3.6261106126	 3.4216937453	 1.2669537416	 0.10883
64.5792	114.3446	142.3392	240.9822	351.151	371.831	402.4212	422.3474	454.1072	564.3751	697.4931	776.0482	779.511	851.822	871.6388	925.5939	938.6548	972.0071	978.6615	983.9124	993.1928	1039.4118	1043.298	1063.0933	1078.3177	1132.4083	1169.8753	1181.4124	1196.4908	1230.5914	1273.1443	1300.4588	1323.3949	1370.6339	1386.5338	1445.0782	1483.3812	1484.5617	1492.9983	1691.8249	1816.3417	2847.5832	3004.8275	3007.3799	3042.4563	3045.3782	3119.7328	3166.5043	3187.3143	3209.3709	3212.1155
O=CC1CC11CC=CC1	O=C[C@H]1C[C@]21CC=CC2	
InChI=1S/C8H10O/c9-6-7-5-8(7)3-1-2-4-8/h1-2,6-7H,3-5H2	InChI=1S/C8H10O/c9-6-7-5-8(7)3-1-2-4-8/h1-2,6-7H,3-5H2/t7-/m1/s1
