21
gdb 81853	2.67091	1.41315	1.05388	1.7651	84.51	-0.2175	0.0191	0.2366	1208.3705	0.181794	-387.094866	-387.085849	-387.084904	-387.127808	35.664	
C	-0.1483931592	 1.5660888555	 0.0245885659	-0.391555
C	 0.0169297955	 0.0379409079	-0.0030697222	-0.093589
C	 0.7964672612	-0.488398769	-1.2091259596	-0.139685
C	 2.2607953012	-0.1100350409	-1.3775132526	-0.312905
C	 1.9035367424	-1.3945080642	-0.6915110599	 0.403734
O	 2.3076990483	-2.5801474845	-1.3048296622	-0.469796
C	 1.784423133	-1.326370855	 0.7958779921	-0.30418
C	 0.7822072167	-0.5339913669	 1.1922317243	 0.331648
C	 0.410672133	-0.1924720588	 2.601193868	-0.492235
H	 0.8236656279	 2.069223681	 0.0297127496	 0.117885
H	-0.6986389305	 1.9088678395	-0.8570693757	 0.116105
H	-0.7023766096	 1.8936186977	 0.9102625829	 0.111633
H	-0.9947293681	-0.3975060262	-0.0095822833	 0.074387
H	 0.2588897606	-0.7476896499	-2.1139113329	 0.083918
H	 2.6459956427	-0.2012619483	-2.3879641964	 0.116088
H	 2.6943122956	 0.6932485614	-0.7908501248	 0.108606
H	 1.6751614323	-3.2652620181	-1.0604020235	 0.277189
H	 2.4721961168	-1.8509479414	 1.4514285258	 0.088635
H	 1.0159493494	-0.751040371	 3.3202423178	 0.123298
H	 0.5451364499	 0.8763330006	 2.8091876399	 0.129268
H	-0.6463413192	-0.4153123492	 2.7977674668	 0.121551
126.1401	171.0945	192.9602	227.1719	260.9133	272.1247	327.3644	352.3144	404.2987	448.7221	488.9882	544.0506	583.1396	640.1092	740.97	785.2375	852.2659	857.3111	904.176	946.2624	960.2584	997.3269	1011.6062	1023.3855	1055.9773	1073.6295	1088.2737	1111.2091	1127.3073	1161.7804	1228.2726	1255.7781	1295.7571	1328.9505	1333.2114	1356.2168	1399.1768	1409.3059	1414.6495	1473.5547	1478.6714	1487.1512	1498.6528	1502.9281	1703.2985	2975.8338	3015.2903	3035.5464	3060.8201	3102.4061	3108.6432	3109.6296	3124.546	3176.3266	3183.0352	3215.542	3788.6333
CC1C2CC2(O)C=C1C	C[C@H]1[C@H]2C[C@@]2(O)C=C1C	
InChI=1S/C8H12O/c1-5-3-8(9)4-7(8)6(5)2/h3,6-7,9H,4H2,1-2H3	InChI=1S/C8H12O/c1-5-3-8(9)4-7(8)6(5)2/h3,6-7,9H,4H2,1-2H3/t6-,7-,8+/m1/s1
