22
gdb 109996	1.89884	1.38078	0.85834	4.3271	84.85	-0.2377	0.0257	0.2634	1403.8995	0.193404	-404.370879	-404.360824	-404.35988	-404.406424	36.215	
C	 0.2420305337	 1.4973432087	 0.3069557055	-0.394302
C	 0.1440259442	-0.0209796174	 0.1326169355	-0.173624
C	-1.2936817942	-0.5372304504	 0.1281792751	 0.019489
C	-1.5268539804	-2.0935541165	 0.1137272828	-0.014747
C	-0.3407109706	-3.0310952752	-0.0580903384	-0.411766
C	-2.1352025	-1.9583705675	 1.5401816267	-0.184882
N	-1.9761282503	-0.5048811413	 1.4391522684	-0.043593
C	-2.7593435362	 0.4343181233	 2.0217016566	 0.122089
O	-3.5224502073	 0.218050605	 2.9416518014	-0.332512
H	 1.2844979002	 1.8279414532	 0.2801250898	 0.118792
H	-0.2963409295	 2.0254004569	-0.4880574415	 0.115938
H	-0.1805248748	 1.8138399236	 1.2657570419	 0.129433
H	 0.6119468514	-0.3139139427	-0.8159692669	 0.10125
H	 0.7072860248	-0.5187303517	 0.9296701653	 0.103251
H	-1.8623945295	-0.0110367705	-0.6498886809	 0.082691
H	-2.3006960664	-2.3477247091	-0.6152158484	 0.086785
H	 0.446884698	-2.8356585416	 0.6758083027	 0.1236
H	-0.6610749513	-4.0702914816	 0.0719503263	 0.122555
H	 0.0992016268	-2.9452495373	-1.0570607874	 0.121277
H	-3.176139744	-2.269074347	 1.6661211639	 0.127869
H	-1.5354842351	-2.4064387532	 2.3408331721	 0.113341
H	-2.6209724893	 1.4364495024	 1.5668302499	 0.067065
54.2784	92.2348	103.3647	167.737	184.4333	231.4851	241.9157	288.5062	322.6537	374.0943	396.0578	478.0623	585.2629	709.5917	793.5961	813.1726	867.6392	902.9036	919.7808	968.1341	1028.7505	1032.6822	1054.0517	1075.5859	1113.9514	1146.459	1156.0898	1179.8714	1198.815	1256.0764	1271.8705	1293.5407	1313.9775	1344.3448	1367.7787	1396.3734	1400.8101	1411.6162	1416.8047	1434.5918	1475.7113	1496.5916	1498.8298	1501.2264	1507.2136	1518.5551	1785.7421	2924.5946	3011.268	3026.8216	3033.6641	3034.1219	3037.0607	3067.421	3069.6518	3092.9985	3098.9196	3103.298	3110.0244	3111.9994
CCC1C(C)CN1C=O	CC[C@H]1[C@@H](C)CN1C=O	
InChI=1S/C7H13NO/c1-3-7-6(2)4-8(7)5-9/h5-7H,3-4H2,1-2H3	InChI=1S/C7H13NO/c1-3-7-6(2)4-8(7)5-9/h5-7H,3-4H2,1-2H3/t6-,7-/m0/s1
