17
gdb 26586	2.29379	1.84855	1.0309	4.7604	80.45	-0.1957	-0.0134	0.1823	1111.9022	0.138016	-418.093739	-418.085449	-418.084505	-418.126193	32.183	
C	-0.0230185042	 1.5233045327	 0.0374419385	-0.523344
C	-0.0224848135	 0.0192479835	 0.0182285106	 0.064664
C	-1.1913822293	-0.7157997264	 0.052712184	 0.273416
N	-2.4237194772	-0.0965506505	 0.1490758556	-0.582218
C	-1.1587645561	-2.1494409882	 0.040912211	-0.234588
C	 0.0433382183	-2.7730653333	-0.0047354425	 0.036975
N	 1.1926736024	-2.0517020915	-0.0390126867	-0.373137
C	 1.2622006722	-0.6425518654	-0.0296553462	 0.374723
O	 2.3634196572	-0.1045421949	-0.0649583475	-0.417273
H	 1.008456264	 1.8776036792	 0.0169500336	 0.161093
H	-0.5436071673	 1.9503334028	-0.8319827685	 0.110482
H	-0.5097374036	 1.9229635686	 0.9365408995	 0.121842
H	-2.4645349441	 0.871373345	-0.128601393	 0.25633
H	-3.2216291805	-0.6337309325	-0.1517028056	 0.250963
H	-2.0748671847	-2.7247685321	 0.0770274623	 0.09282
H	 0.1491752056	-3.8510517005	-0.0166344346	 0.130673
H	 2.0923552708	-2.5081600864	-0.0734398705	 0.256579
122.1442	148.5403	198.335	256.9055	300.1358	354.5192	391.0357	477.7067	490.5167	511.0223	534.0572	545.7128	628.1606	689.2074	716.7544	758.7487	774.3135	851.2308	915.4535	934.4282	1051.4155	1057.3692	1106.0001	1142.6605	1218.1369	1238.8589	1284.8345	1352.7944	1395.4521	1451.0382	1491.1884	1499.2014	1511.0427	1591.5507	1654.0787	1686.4439	1750.8684	2997.6069	3044.3239	3140.8296	3199.2802	3217.3878	3586.1038	3622.1307	3692.425
CC1=C(N)C=CNC1=O	Cc1c(N)cc[nH]c1=O	
InChI=1S/C6H8N2O/c1-4-5(7)2-3-8-6(4)9/h2-3H,1H3,(H3,7,8,9)	InChI=1S/C6H8N2O/c1-4-5(7)2-3-8-6(4)9/h2-3H,1H3,(H3,7,8,9)
