18
gdb 116591	4.54797	0.86397	0.73608	0.9314	79.58	-0.2423	0.0033	0.2456	1529.7647	0.148223	-435.303588	-435.29461	-435.293666	-435.338463	32.277	
C	 0.3423711735	 1.5372909195	-0.2918179933	-0.373228
C	-0.3899384699	 0.3892316295	 0.3963718684	-0.139156
N	 0.325735014	-0.0321044265	 1.596830146	-0.337062
C	-0.1596103417	-0.9804758777	 2.2764264786	 0.408758
C	 0.4506789552	-1.5436497352	 3.546772521	-0.179097
O	-0.4402651983	-2.5913015976	 3.9579868797	-0.24782
C	-1.4794204172	-2.6957759478	 3.0808430632	 0.482738
N	-2.4451496878	-3.5051635525	 3.1292284565	-0.583901
N	-1.3018604692	-1.7390061908	 2.0921660755	-0.390072
H	 1.3528442535	 1.2296538048	-0.5757162006	 0.124229
H	-0.1901138683	 1.8576183384	-1.1927658657	 0.10729
H	 0.4301131932	 2.3932156452	 0.38344031	 0.124262
H	-1.4145098135	 0.7070083738	 0.6518010579	 0.096052
H	-0.4928729888	-0.4549168115	-0.3057158055	 0.095918
H	 1.4466016908	-1.9593439176	 3.3681537692	 0.148534
H	 0.5156697659	-0.7882023434	 4.3351501112	 0.148575
H	-2.3635999753	-4.1110568891	 3.9425766897	 0.232244
H	-1.962992056	-1.6441145815	 1.3410677281	 0.281735
31.9541	108.7893	127.5792	153.4804	187.1619	277.1804	334.8086	399.6653	471.981	516.793	598.2132	688.0193	717.3419	722.6436	800.5548	805.8624	894.473	922.7694	952.6893	1026.9167	1043.8484	1070.8709	1106.0796	1119.7715	1137.5487	1196.6513	1247.4492	1306.2674	1339.1714	1365.6745	1388.6376	1412.1981	1418.349	1482.8544	1487.0232	1503.0549	1504.53	1785.1758	1812.1581	2954.5275	2983.5302	3041.9035	3058.2674	3102.758	3114.8137	3119.5689	3531.4864	3689.2457
CCN=C1COC(=N)N1	CCN=C1CO[C]([NH])N1	
InChI=1S/C5H9N3O/c1-2-7-4-3-9-5(6)8-4/h2-3H2,1H3,(H2,6,7,8)	InChI=1S/C5H9N3O/c1-2-7-4-3-9-5(6)8-4/h2-3H2,1H3,(H2,6,7,8)
