19
gdb 88512	2.26729	1.40205	1.17452	2.1234	76.39	-0.2572	-0.0397	0.2175	1155.4121	0.15705	-422.998357	-422.989283	-422.988339	-423.032378	33.69	
C	 0.0427119478	 1.6814740802	-0.2928739834	-0.4269
C	-0.0214836336	 0.1917240802	-0.0351651625	 0.002826
C	 1.1643168762	-0.7019188338	-0.2973215995	-0.320343
C	 0.6930998732	-0.479819087	 1.1232517702	-0.096913
C	 1.4816200921	 0.2320448247	 2.1853733853	 0.28001
C	 0.7940045305	 0.6679764366	 3.4304842378	-0.207218
O	 1.5949991337	-0.4956196537	 3.4323906454	-0.264012
C	 2.7565578199	 0.9788118459	 1.9203216685	 0.123816
O	 3.1418235595	 1.3885655833	 0.8548474399	-0.258259
H	 1.0453527864	 2.0747309004	-0.113468005	 0.14689
H	-0.2178673924	 1.8989109216	-1.3344487109	 0.118674
H	-0.6635764723	 2.2278963498	 0.3430334121	 0.107987
H	-0.9925684058	-0.2481348881	-0.2502175092	 0.085488
H	 1.0024915399	-1.6830170492	-0.7301992089	 0.110169
H	 2.08449786	-0.2173123536	-0.5970094597	 0.145591
H	 0.1540423986	-1.307414927	 1.5750047147	 0.099529
H	 1.1752617456	 1.5072800466	 4.0122307338	 0.122182
H	-0.2824147094	 0.5108234995	 3.4831147264	 0.130012
H	 3.3434200002	 1.1270151737	 2.8536106349	 0.10047
51.9284	130.9322	156.0414	194.6602	234.8217	270.0219	335.359	361.405	373.3833	418.444	531.3293	554.9733	733.4048	776.4372	833.679	854.7049	875.4538	900.7731	945.2893	952.6092	1032.837	1053.396	1086.2838	1092.6436	1121.9416	1137.3826	1154.3069	1155.9253	1207.0688	1230.0468	1296.5045	1330.4701	1381.7931	1402.4158	1424.2919	1444.71	1487.4237	1503.9567	1508.1425	1517.989	1823.0657	2897.8141	3030.6017	3077.2001	3084.9564	3122.372	3140.4517	3143.3007	3152.0687	3168.3344	3241.541
CC1CC1C1(CO1)C=O	C[C@H]1C[C@H]1[C@]1(CO1)C=O	
InChI=1S/C7H10O2/c1-5-2-6(5)7(3-8)4-9-7/h3,5-6H,2,4H2,1H3	InChI=1S/C7H10O2/c1-5-2-6(5)7(3-8)4-9-7/h3,5-6H,2,4H2,1H3/t5-,6+,7+/m0/s1
