13
gdb 42634	2.80825	1.74259	1.29104	3.9331	67.29	-0.263	-0.0403	0.2228	932.7466	0.089773	-415.560828	-415.554042	-415.553098	-415.592174	25.733	
O	 0.0140742955	 0.0656111126	 0.1072710902	-0.297851
C	-0.01400787	 1.2551984277	 0.0909438168	 0.43547
C	-1.0724304562	 2.3044690196	-0.0657117769	-0.178574
C	-0.0708543672	 3.1738551109	-0.7842250254	-0.082085
N	-0.5667960329	 3.5868484904	 0.5293640078	-0.130209
C	 0.7638446775	 3.2555894554	 1.1560677437	-0.186601
C	 1.0892574653	 2.3638881016	-0.0642473211	 0.026937
C	 2.4106060286	 2.0636840461	-0.5238260187	 0.170036
N	 3.4801176836	 1.8298400744	-0.8967293666	-0.328829
H	-2.1375556289	 2.2041636703	-0.2166564873	 0.141978
H	-0.1403639351	 3.7102306069	-1.7195915788	 0.14591
H	 1.3574875772	 4.1695914574	 1.1994717358	 0.147589
H	 0.7192555428	 2.7729359867	 2.1369000505	 0.136226
129.8145	151.6262	196.3567	375.5003	418.2578	489.6893	532.7274	605.8105	653.1592	743.3529	758.9569	779.8851	838.6425	865.1969	914.7949	967.9952	984.0015	1029.3412	1067.7559	1095.8757	1140.302	1160.026	1211.2985	1238.6482	1294.6351	1324.9481	1507.9924	1908.0948	2353.2164	3063.1775	3138.1968	3227.9407	3238.4272
O=C1C2C3N2CC13C#N	O=C1[C@@H]2[C@H]3N2C[C@@]13C#N	
InChI=1S/C6H4N2O/c7-1-6-2-8-3(4(6)8)5(6)9/h3-4H,2H2	InChI=1S/C6H4N2O/c7-1-6-2-8-3(4(6)8)5(6)9/h3-4H,2H2/t3-,4+,6+,8?/m0/s1
