13
gdb 21706	8.30442	1.19493	1.04462	11.4705	73.24	-0.1917	-0.0586	0.1331	1044.4065	0.098092	-390.950251	-390.942995	-390.942051	-390.982123	25.395	
N	-0.0327540173	 1.3612155148	 0.0085703705	-0.51472
C	 0.0197095973	 0.023417279	 0.0011791919	 0.201944
N	 1.1126097638	-0.6815021973	-0.0108231799	-0.316961
H	 2.0291765016	-0.2462700147	-0.0154906486	 0.284233
C	 1.1562990019	-2.0925186928	-0.0185842929	 0.389604
N	 2.3310572833	-2.7289178112	-0.0307790789	-0.380135
C	 1.8648062898	-3.9987054462	-0.0337420575	 0.002029
N	 0.5273594208	-4.1073077209	-0.0247756559	-0.236975
N	 0.0541469502	-2.8290489941	-0.0141454816	-0.321613
H	 0.7933745264	 1.9367940886	 0.0053662028	 0.287811
H	-0.9237184451	 1.8246884637	 0.0178682339	 0.301382
H	-0.9057966275	-0.5440026009	 0.0052299307	 0.214107
H	 2.5140239749	-4.863374818	-0.0431772745	 0.089294
98.5647	136.6484	143.3386	193.1444	360.3374	416.8573	461.5788	508.285	695.9772	720.3269	784.2907	798.1431	872.8533	996.2456	1033.9691	1034.663	1075.7768	1104.1454	1180.0247	1270.0962	1294.0783	1324.2171	1372.1999	1414.3138	1441.5925	1545.2402	1653.9367	1759.4396	3210.4577	3236.1045	3561.545	3616.4902	3742.3816
NC=[NH+]C1=NC=N[N-]1	[NH2]=CNc1ncnn1	
InChI=1S/C3H4N5/c4-1-5-3-6-2-7-8-3/h1-2H,(H2-,4,5,6,7,8)/q-1/p+1	InChI=1S/C3H6N5/c4-1-5-3-6-2-7-8-3/h1-2H,4H2,(H2,5,6,7,8)
