19
gdb 125321	5.13937	0.77185	0.71779	1.0383	79.53	-0.2275	0.0245	0.2519	1602.4745	0.159882	-419.226528	-419.217061	-419.216117	-419.262258	33.254	
C	 0.0831658115	 1.5045611885	-0.0088000496	-0.505061
C	 0.0375220188	 0.0068328472	-0.0106075436	 0.182909
C	 0.0367091933	-0.8429856893	-1.0995753023	-0.126104
N	-0.0311502951	-2.1148649472	-0.6258488245	 0.059579
C	 0.0165478508	-3.3543450623	-1.3731094024	-0.178403
C	 1.4089491354	-4.0023906314	-1.3361870681	-0.067877
O	 1.4361706081	-5.2087887179	-2.0763075217	-0.408459
N	-0.0650420717	-2.1512702356	 0.7215082492	-0.273679
C	-0.0270551903	-0.8743818113	 1.0935856884	-0.071475
H	 0.9408905356	 1.8832301404	 0.5583114845	 0.129576
H	 0.1628235224	 1.8979113009	-1.0261731958	 0.121756
H	-0.81653003	 1.9390519401	 0.4417208428	 0.129826
H	 0.0701368577	-0.6397299543	-2.1591165705	 0.127458
H	-0.7225377038	-4.0377725007	-0.9426178905	 0.120867
H	-0.2697110093	-3.1500448699	-2.4080010386	 0.126135
H	 2.1368441276	-3.3329837793	-1.8060634576	 0.118244
H	 1.7122659926	-4.1433215391	-0.2903712721	 0.119917
H	 0.9656823192	-5.8792607022	-1.5710250022	 0.288773
H	-0.0548291127	-0.6241836066	 2.1450536846	 0.106018
44.5375	61.1553	90.3953	95.1164	245.1133	262.5281	298.0186	331.9633	371.286	408.8355	628.8529	648.737	679.9266	785.8187	789.0763	792.944	875.4255	1000.0072	1005.9911	1031.1727	1032.3685	1061.1771	1066.1983	1086.8929	1152.9446	1186.9221	1231.8805	1295.7406	1341.9015	1361.935	1390.5634	1400.4572	1410.2626	1418.6731	1426.1595	1472.1936	1480.0163	1485.9921	1507.664	1511.4147	1615.1056	3023.0961	3029.1192	3054.6503	3078.8417	3082.4952	3107.3165	3117.6242	3233.1032	3250.5191	3820.1426
CC1=CN(CCO)N=C1	Cc1cn(CCO)nc1	
InChI=1S/C6H10N2O/c1-6-4-7-8(5-6)2-3-9/h4-5,9H,2-3H2,1H3	InChI=1S/C6H10N2O/c1-6-4-7-8(5-6)2-3-9/h4-5,9H,2-3H2,1H3
