17
gdb 60720	3.33739	1.12141	0.86376	2.4775	75.86	-0.2495	-0.0471	0.2024	1299.8677	0.136496	-451.360647	-451.351208	-451.350264	-451.395481	33.996	
C	-0.2522770312	 1.554953806	 0.1523474131	-0.314481
N	-0.0904351202	 0.1021042414	 0.0046314925	-0.134451
C	 0.1213421995	-0.6488419467	 1.1682232503	 0.098245
N	 0.1830864143	-0.0959246415	 2.3102390817	-0.469227
C	-0.162788164	-0.5999963388	-1.1815191202	 0.44265
O	-0.1894425006	-1.8223364273	-1.2178669529	-0.385757
C	-0.1711184624	 0.1479197078	-2.5156486534	 0.239671
N	-0.69538776	-0.6475480919	-3.5001507147	-0.523225
N	 0.2992712617	 1.3327185989	-2.6107694272	-0.518133
H	 0.6982252702	 2.0706017574	 0.0080493934	 0.148482
H	-0.9599406791	 1.9268055664	-0.5829806406	 0.144567
H	-0.6116084236	 1.7300552649	 1.1655997791	 0.157448
H	 0.2234503832	-1.7105571592	 0.951013023	 0.145162
H	 0.3471657973	-0.8013337818	 3.0260714759	 0.23313
H	-0.7251160559	-1.6320509431	-3.2738345906	 0.274696
H	-0.4954285758	-0.4065958879	-4.457419814	 0.251754
H	 0.2869384568	 1.6604176355	-3.5792384555	 0.20947
52.6218	67.8998	136.6246	166.4826	232.0728	290.7684	335.0997	366.6036	399.0469	423.9985	475.0433	522.5836	566.8227	611.4617	662.0821	769.2385	814.1383	837.6253	877.7805	963.2084	1085.3096	1094.242	1119.0973	1140.6131	1155.7719	1188.0984	1338.2607	1352.0961	1407.5638	1435.4333	1471.1274	1479.62	1511.8097	1602.2441	1704.8362	1721.952	1743.6738	3081.8487	3153.7514	3156.2569	3194.0804	3442.1308	3506.2329	3564.8491	3692.8443
CN(C=N)C(=O)C(N)=N	CN(C=N)C(=O)C(=N)N	
InChI=1S/C4H8N4O/c1-8(2-5)4(9)3(6)7/h2,5H,1H3,(H3,6,7)	InChI=1S/C4H8N4O/c1-8(2-5)4(9)3(6)7/h2,5H,1H3,(H3,6,7)
