16
gdb 42964	2.63306	2.00773	1.42317	4.7056	67.17	-0.245	-0.0289	0.2161	910.4292	0.126288	-437.855928	-437.849172	-437.848228	-437.887278	26.339	
O	 0.0015042184	 0.0011553342	-0.0562630597	-0.298677
C	-0.0018213349	 1.1983175699	-0.0399297207	 0.380558
C	-1.246258872	 2.0995916826	 0.0874099025	 0.011013
O	-1.6538525825	 2.244087515	 1.475151047	-0.291341
C	-1.4468815003	 3.6782302274	 1.4148067143	-0.092479
C	-0.7529579169	 3.5545233184	 0.044595037	-0.089345
C	 0.7716949383	 3.4251474984	 0.0253395747	-0.043278
C	 1.4820135043	 2.7287120856	 1.1230982779	-0.258702
N	 1.178512122	 2.009485682	-0.1445679955	-0.139995
H	-2.0692863102	 1.7741881972	-0.5558288148	 0.1047
H	-2.4034230904	 4.2133913948	 1.3857030903	 0.113469
H	-0.845672647	 4.0483264614	 2.2515179254	 0.113702
H	-1.1112914071	 4.2047533549	-0.7523445313	 0.093336
H	 1.3274230075	 4.1284494802	-0.5865397824	 0.107975
H	 2.5390463087	 2.9119907564	 1.2892731844	 0.13607
H	 0.9220147722	 2.4296202517	 2.003964771	 0.152993
89.1152	211.9509	237.0429	284.0896	435.5682	482.8662	596.7211	656.7383	694.1762	779.3313	823.3115	833.7054	866.7457	890.9309	922.216	965.0554	1007.5216	1016.0669	1045.9718	1079.3541	1096.6131	1127.9664	1149.0109	1164.8364	1171.9149	1227.5633	1245.8935	1281.0453	1294.2998	1336.2562	1342.2811	1393.1953	1505.4299	1522.5824	1865.0796	3027.1185	3068.5384	3080.7197	3120.2546	3121.5496	3160.5997	3212.9919
O=C1C2OCC2C2CN12	O=C1[C@H]2OC[C@H]2[C@H]2CN12	
InChI=1S/C6H7NO2/c8-6-5-3(2-9-5)4-1-7(4)6/h3-5H,1-2H2	InChI=1S/C6H7NO2/c8-6-5-3(2-9-5)4-1-7(4)6/h3-5H,1-2H2/t3-,4+,5-,7?/m0/s1
