15
gdb 98522	2.36715	1.39784	0.94046	3.2633	63.59	-0.2742	-0.0661	0.2081	1185.6553	0.10866	-494.886027	-494.877009	-494.876065	-494.920733	31.576	
O	 0.0108248105	 1.4285967218	 0.216728434	-0.420976
C	-0.1869782272	 0.094547795	 0.5754926799	-0.138005
C	-1.1978708027	-0.5678618087	-0.3408467171	 0.274374
O	-1.6848737899	 0.0581603146	-1.256905449	-0.320664
C	-1.6275411455	-2.0054633877	-0.1074098888	 0.196886
C	-3.0737672804	-2.3058710318	-0.3430514328	-0.184725
O	-2.1026343694	-2.6852554325	-1.2803050387	-0.231797
C	-0.9223373255	-2.9283855445	 0.8398363955	 0.103204
O	-0.1389971484	-2.590902721	 1.6889746178	-0.250314
H	-0.5324797946	 1.5727295534	-0.5731230157	 0.296497
H	 0.7478476381	-0.4864559427	 0.5346955872	 0.137238
H	-0.5378432708	 0.0009853344	 1.6142207332	 0.133583
H	-3.5460623	-3.1127571915	 0.2166876691	 0.136683
H	-3.7024446293	-1.4643057332	-0.626157391	 0.157586
H	-1.2036307548	-3.9906386454	 0.6739631464	 0.110431
33.7636	122.4299	126.7302	179.512	254.8458	270.9886	323.2224	360.1637	382.2707	393.802	496.1515	564.7638	639.6062	815.979	846.3285	898.9746	919.597	1000.3305	1043.8982	1055.188	1141.5889	1145.4795	1174.9442	1242.4766	1268.0432	1314.6578	1327.2895	1419.1629	1446.1657	1465.7157	1501.6851	1785.0845	1826.6288	2911.2563	2996.4676	3015.5194	3086.9246	3191.9873	3706.4791
OCC(=O)C1(CO1)C=O	OCC(=O)[C@]1(CO1)C=O	
InChI=1S/C5H6O4/c6-1-4(8)5(2-7)3-9-5/h2,6H,1,3H2	InChI=1S/C5H6O4/c6-1-4(8)5(2-7)3-9-5/h2,6H,1,3H2/t5-/m1/s1
