23
gdb 78762	2.46352	1.52901	1.24114	0.2286	89.9	-0.2354	0.0917	0.3271	1169.3223	0.204816	-351.124598	-351.115452	-351.114508	-351.157536	36.393	
C	-0.016671001	 1.6079603633	 0.0556882642	-0.426178
C	 0.1073475378	 0.0898451119	-0.0099601012	-0.001466
C	 0.8328659035	-0.5988967816	-1.1640474806	-0.123782
C	 1.3084813866	-1.7198634355	-0.2689007101	-0.184848
C	 2.3238704938	-0.7315460822	-0.7957984775	 0.355892
C	 3.3863566924	-0.9400119071	-1.8335431424	-0.505417
C	 2.4925101799	-0.1088153722	 0.5897849745	-0.331208
C	 1.0907961391	-0.6949069626	 0.9262474203	 0.312281
C	 0.7063075475	-1.0323185511	 2.3430162244	-0.509011
H	 0.9394972457	 2.1090054336	-0.1187386256	 0.116348
H	-0.7174579148	 1.968565792	-0.7058763521	 0.11168
H	-0.3975572584	 1.9343722563	 1.0305457373	 0.110301
H	-0.8864065168	-0.3637774253	 0.0990251087	 0.06266
H	 0.5176210936	-0.675330574	-2.1983809753	 0.072996
H	 1.2259343995	-2.794694782	-0.3523965689	 0.080352
H	 3.0151443369	-1.5506923156	-2.6639313531	 0.115712
H	 3.7287059978	 0.0138001281	-2.253045414	 0.11671
H	 4.2607416938	-1.4497686858	-1.4123504	 0.114484
H	 3.2754870443	-0.6289606031	 1.1527341491	 0.087168
H	 2.6429986662	 0.9731887797	 0.6852300035	 0.080733
H	 0.6251450636	-0.1245127734	 2.9534653661	 0.116748
H	-0.2604439467	-1.5467748273	 2.3833136886	 0.113876
H	 1.4511286159	-1.6817858264	 2.8163892141	 0.113971
152.2976	181.112	198.9924	200.4437	208.1281	246.1026	290.1654	341.7211	361.3915	479.039	554.52	574.7342	614.4954	704.3119	754.514	784.5559	831.734	875.1263	883.8796	895.5365	938.4673	966.6509	997.4036	1016.2287	1048.1262	1059.2981	1092.892	1111.6874	1117.498	1153.7867	1158.9571	1186.3349	1199.2376	1219.6366	1263.4374	1297.7308	1340.5009	1386.8954	1404.8581	1405.7617	1413.8166	1427.9368	1486.144	1487.6981	1491.4875	1493.0876	1494.2139	1500.196	1514.7132	3017.2537	3017.3607	3018.9101	3022.8784	3029.8487	3071.7833	3076.1198	3081.2525	3085.9814	3088.3884	3088.7687	3110.7927	3176.565	3210.383
CC1C2C3C2(C)CC13C	C[C@H]1[C@@H]2[C@H]3[C@]2(C)C[C@@]13C	
InChI=1S/C9H14/c1-5-6-7-8(5,2)4-9(6,7)3/h5-7H,4H2,1-3H3	InChI=1S/C9H14/c1-5-6-7-8(5,2)4-9(6,7)3/h5-7H,4H2,1-3H3/t5-,6+,7+,8-,9+/m0/s1
