20
gdb 126304	2.88403	1.18847	0.90817	2.0687	84.12	-0.1911	0.0339	0.2249	1338.1593	0.171848	-399.36021	-399.350436	-399.349492	-399.395352	35.344	
C	 0.0467838114	 1.5628613434	 0.1582713552	-0.369155
C	 0.0041633043	 0.0351050597	-0.0313997633	-0.304476
C	-1.3853762111	-0.5232660729	-0.0917129515	 0.395114
C	-2.1804860024	-0.8089276226	-1.1874085159	-0.394534
C	-3.3954955751	-1.2836826466	-0.6419120325	 0.379621
N	-4.5083277098	-1.7675621408	-1.3340937827	-0.591205
N	-3.3664079916	-1.2908688191	 0.6867482219	-0.352601
N	-2.1282720923	-0.8171415182	 1.007415777	-0.021592
C	-1.728594057	-0.824685292	 2.395347196	-0.325259
H	 1.0798828467	 1.9242591022	 0.1693270402	 0.114116
H	-0.4849750206	 2.0665610256	-0.6540801288	 0.126811
H	-0.4263181214	 1.8645132189	 1.0981715736	 0.120888
H	 0.5127008871	-0.2253568634	-0.9650790249	 0.117717
H	 0.5736955116	-0.4507120545	 0.7697303693	 0.107981
H	-1.9147793205	-0.6960173345	-2.2266230625	 0.089273
H	-4.7359194222	-1.2182918631	-2.1520631023	 0.241598
H	-5.3143119837	-1.8400370189	-0.7258459096	 0.245949
H	-1.2623096684	-1.776024804	 2.6805523728	 0.133038
H	-1.0251663846	-0.0132837202	 2.5931946775	 0.133703
H	-2.6216953904	-0.6787793088	 3.0042072103	 0.15301
51.2414	75.4074	130.47	163.3935	202.6518	251.2769	280.6411	301.4207	304.039	421.9238	498.7138	593.5087	648.4933	681.0185	700.9512	750.0876	774.3547	788.1511	820.2436	967.5996	1014.7815	1056.0299	1063.062	1081.2427	1138.0712	1145.9389	1178.7941	1218.6502	1289.7351	1322.4114	1350.5711	1408.5186	1431.4895	1459.1266	1484.052	1489.8102	1494.1283	1497.1834	1509.5032	1521.7732	1539.7309	1601.0825	1647.6222	3024.5311	3036.343	3037.4943	3076.1184	3105.5677	3107.9611	3116.4049	3150.7236	3254.2156	3539.5833	3634.6991
CCC1=CC(N)=NN1C	CCc1cc(N)nn1C	
InChI=1S/C6H11N3/c1-3-5-4-6(7)8-9(5)2/h4H,3H2,1-2H3,(H2,7,8)	InChI=1S/C6H11N3/c1-3-5-4-6(7)8-9(5)2/h4H,3H2,1-2H3,(H2,7,8)
