17
gdb 113128	2.38008	1.22077	0.92713	4.7701	81.45	-0.2351	0.0052	0.2403	1291.5831	0.134059	-380.819017	-380.809489	-380.808544	-380.853491	34.632	
C	 0.0672481507	 1.3210236105	-0.3981213765	-0.317176
N	-0.2040477995	 0.2196766034	 0.5199905025	-0.292034
C	-1.4477294816	-0.4346128326	 0.2858007721	 0.016502
C	-1.6965145183	-1.4012513841	-0.8371912572	-0.322613
C	-1.5692915839	-1.9341947258	 0.6075383379	-0.025814
C	-0.3787468495	-2.6604583543	 0.95884722	 0.248222
C	 0.6297997615	-3.2478870718	 1.2467269434	-0.420897
C	-2.782216651	-2.3662588467	 1.260807141	 0.237847
N	-3.7659607421	-2.6967355724	 1.770801893	-0.340944
H	 1.0407905709	 1.7554488272	-0.1569578654	 0.128343
H	 0.0660689171	 1.0322570702	-1.4626226901	 0.102714
H	-0.6881915258	 2.1030804428	-0.2647047639	 0.129892
H	 0.5570251189	-0.4501083966	 0.5308929695	 0.231041
H	-2.3093664337	 0.1506956506	 0.5983188109	 0.130618
H	-2.681641859	-1.4569778596	-1.2860176901	 0.145371
H	-0.8684294125	-1.6584432312	-1.4875252269	 0.139559
H	 1.5098039681	-3.7826511597	 1.5080298098	 0.209368
72.1233	123.4512	133.2286	143.7298	199.0379	226.8499	265.5597	366.3911	425.3976	474.0441	514.5901	588.9155	595.4977	608.1286	665.5718	680.1858	715.9681	831.0556	866.4625	941.5145	995.7039	1026.1523	1059.8595	1096.0461	1155.2628	1158.7253	1222.4175	1279.0963	1288.9362	1377.7886	1461.5101	1465.7855	1487.1031	1505.2161	1524.9265	2239.5849	2356.8183	2964.5524	3064.6581	3114.937	3140.7373	3142.8354	3241.4763	3498.8727	3538.2261
CNC1CC1(C#C)C#N	CN[C@H]1C[C@]1(C#C)C#N	
InChI=1S/C7H8N2/c1-3-7(5-8)4-6(7)9-2/h1,6,9H,4H2,2H3	InChI=1S/C7H8N2/c1-3-7(5-8)4-6(7)9-2/h1,6,9H,4H2,2H3/t6-,7+/m0/s1
