18
gdb 35499	3.21392	1.36646	1.14881	4.2976	80.69	-0.2529	0.0067	0.2596	1093.3964	0.150222	-364.832946	-364.825521	-364.824577	-364.865139	28.963	
N	-0.9087250363	-0.646766509	-1.2805402487	-0.336718
C	-0.5650568597	 0.3085542524	-0.7262775117	 0.277529
C	-0.1153416617	 1.4988241038	-0.0250264135	-0.148247
C	-0.0719170354	 1.4679849999	 1.5364680702	-0.24805
C	 1.3320797062	 2.1389320458	 1.509504115	-0.010011
C	 2.4752543938	 1.3665894702	 2.1937901202	-0.275932
C	 2.9250739099	 0.4102393617	 1.1114119068	-0.058555
C	 2.3609407699	 0.6578038023	-0.0715425469	-0.073028
C	 1.4209849942	 1.8315234645	-0.023166432	-0.07992
H	-0.6909621932	 2.3561748962	-0.3851507124	 0.120318
H	-0.8762714507	 2.01056299	 2.0358576034	 0.114957
H	-0.0393590937	 0.4483183741	 1.9254060005	 0.126301
H	 1.3006971399	 3.1975431766	 1.77097237	 0.074887
H	 3.2964507627	 2.0247038179	 2.508384553	 0.10914
H	 2.1346966482	 0.8469046324	 3.0987532428	 0.109502
H	 3.6453113277	-0.3789645991	 1.2986824628	 0.100796
H	 2.5457544948	 0.1002548093	-0.9826641035	 0.111824
H	 1.7007624735	 2.6309182409	-0.7158254859	 0.085208
72.5678	131.5459	216.5242	278.0668	354.0517	433.6313	506.4353	556.1665	658.6656	694.2796	753.9283	783.187	784.8825	859.3036	896.4191	921.0529	942.916	959.939	984.9486	1020.1622	1045.6263	1062.4978	1083.1627	1104.039	1136.4345	1197.6213	1200.596	1222.7956	1247.9598	1268.7357	1299.3842	1312.1445	1333.5537	1343.0413	1387.5346	1480.209	1486.9439	1677.0481	2349.8762	3013.719	3042.7228	3056.3124	3072.5472	3076.3902	3098.4013	3135.1646	3185.8125	3210.9393
N#CC1CC2CC=CC12	N#C[C@H]1C[C@H]2CC=C[C@@H]12	
InChI=1S/C8H9N/c9-5-7-4-6-2-1-3-8(6)7/h1,3,6-8H,2,4H2	InChI=1S/C8H9N/c9-5-7-4-6-2-1-3-8(6)7/h1,3,6-8H,2,4H2/t6-,7-,8-/m1/s1
