21
gdb 38455	3.41134	1.28829	1.209	1.8244	80.92	-0.2484	0.0779	0.3263	1129.4936	0.184143	-387.067305	-387.059424	-387.05848	-387.100303	31.162	
C	 0.2580177987	 1.7108401354	-0.0704174318	-0.352171
C	 1.7203509211	 1.2564661717	-0.1383670364	 0.037713
O	 1.9851349534	 0.4822951375	 1.0410907564	-0.252895
C	 1.3372201921	-0.1589633173	-0.0614903327	-0.022
C	-0.1691807899	 0.1989928909	 0.011067106	 0.358302
C	-0.9304170152	-0.3107795435	 1.2497831674	-0.276126
C	-1.7184145015	-1.571510217	 0.7885766531	-0.200221
C	-1.3767838103	-1.7536640081	-0.7103299559	-0.205834
C	-0.9709153302	-0.3465851286	-1.1776317444	-0.278597
H	 0.008006795	 2.3417164906	 0.786663206	 0.105867
H	-0.0892393941	 2.1885888031	-0.9910328935	 0.103129
H	 2.5689932382	 1.7375935289	-0.6105168724	 0.101025
H	 1.8085233649	-1.0490382768	-0.4660482916	 0.094761
H	-0.2388045787	-0.5087348293	 2.0724714788	 0.114762
H	-1.6201777896	 0.4633007998	 1.6027127738	 0.096366
H	-1.4629708614	-2.4590003652	 1.3736500059	 0.098352
H	-2.7940952479	-1.4140068939	 0.9155001294	 0.098698
H	-0.5277672147	-2.4381912819	-0.8246518756	 0.09787
H	-2.203705879	-2.1752521337	-1.2884309944	 0.093697
H	-1.8623064283	 0.2748534025	-1.3342801936	 0.095929
H	-0.4033971327	-0.3430423052	-2.1146781046	 0.091374
38.6883	153.5585	163.6214	237.1386	342.8302	400.7159	449.3551	535.7008	589.79	729.2721	775.793	795.0711	829.6984	838.6659	861.7255	883.8647	893.4615	905.9601	953.688	975.6757	984.7437	1006.7169	1023.3831	1044.8641	1065.2658	1105.9764	1125.8726	1193.0573	1207.5128	1215.7524	1226.9089	1243.087	1254.1485	1267.0859	1291.0598	1318.3749	1328.4453	1342.6662	1357.4076	1387.2398	1469.5925	1488.0355	1490.4993	1496.2971	1517.3883	3021.1008	3033.8713	3042.0249	3053.7668	3055.7865	3072.2621	3080.926	3092.6575	3106.0779	3111.1793	3164.6893	3189.2633
C1C2OC2C11CCCC1	C1[C@H]2O[C@H]2C21CCCC2	
InChI=1S/C8H12O/c1-2-4-8(3-1)5-6-7(8)9-6/h6-7H,1-5H2	InChI=1S/C8H12O/c1-2-4-8(3-1)5-6-7(8)9-6/h6-7H,1-5H2/t6-,7-/m1/s1
