13
gdb 11092	7.58576	1.0808	1.05476	1.4973	63.47	-0.2846	-0.0225	0.2621	1056.1518	0.096966	-357.639066	-357.63185	-357.630906	-357.671067	25.457	
N	-0.0892624305	-1.1965903421	-0.1371842123	-0.3117
C	-0.0378057292	-0.0451918362	-0.0438991712	 0.266615
C	 0.0722162308	 1.4125117436	 0.0689275695	-0.111335
C	-0.1663138244	 1.9449244929	 1.5155196188	-0.249862
C	 1.3852110799	 2.0162791888	 1.6267701599	-0.114424
N	 1.4615463197	 1.9258924491	 0.1495049645	-0.297379
C	 1.9754134792	 3.223028641	 2.2036171337	 0.29917
N	 2.4324411929	 4.1731820722	 2.6759475938	-0.309398
H	-0.5205199448	 1.8765122287	-0.7245274443	 0.140795
H	-0.6322227482	 2.9291886504	 1.5121874114	 0.152735
H	-0.675271551	 1.282476443	 2.2120828437	 0.149786
H	 1.7887415945	 1.1428188962	 2.1549688241	 0.135683
H	 2.1879675611	 1.3243984826	-0.2239504116	 0.249314
64.735	131.0052	198.5945	226.0212	296.5442	471.6086	530.4627	556.0303	585.55	665.5891	776.9744	815.2135	924.0127	971.7038	1001.1119	1039.9157	1063.8525	1101.3255	1146.7276	1224.9246	1257.2469	1279.7234	1333.079	1362.2243	1409.8577	1482.0575	2349.0427	2362.2967	3025.6652	3070.6027	3114.1729	3182.9731	3542.3468
N#CC1CC(N1)C#N	N#C[C@H]1C[C@@H](N1)C#N	
InChI=1S/C5H5N3/c6-2-4-1-5(3-7)8-4/h4-5,8H,1H2	InChI=1S/C5H5N3/c6-2-4-1-5(3-7)8-4/h4-5,8H,1H2/t4-,5-/m1/s1
