20
gdb 78923	4.38926	1.35252	1.32899	1.6637	82.02	-0.217	0.0823	0.2993	1062.2435	0.17164	-365.935751	-365.928082	-365.927137	-365.967427	30.861	
C	-0.0468194478	 1.6402494817	 0.0351466065	-0.425304
C	 0.0415970309	 0.1255193924	 0.0130511974	 0.024905
C	 1.0940361367	-0.6020874397	-0.8489292273	-0.026479
C	 2.4966440354	-0.2356369667	-0.3470648877	-0.150821
C	 2.2253565235	-0.273725461	 1.1789165294	-0.150815
C	 0.7389093673	-0.6519133989	 1.1485655685	-0.026475
N	 1.1088008607	-1.7759148061	 0.1553524285	-0.226927
C	 2.5944162046	-1.5181799622	 0.4258905162	 0.382057
C	 3.6385896733	-2.5673950085	 0.5853108837	-0.523107
H	 0.935409924	 2.0873161084	 0.2206489185	 0.120216
H	-0.4187733153	 2.029433412	-0.9188649301	 0.116242
H	-0.72752409	 1.9860134022	 0.8206688292	 0.116243
H	-0.9355986727	-0.3355355981	-0.17218803	 0.084543
H	 0.9401669403	-0.8246559583	-1.9054520599	 0.069872
H	 3.2754389731	 0.373740064	-0.7875854982	 0.085072
H	 2.7994816824	 0.3069079596	 1.889667611	 0.08507
H	 0.2324322399	-0.9239533595	 2.0753495093	 0.069871
H	 3.7187641657	-3.1838052914	-0.3168415036	 0.127215
H	 4.6157342208	-2.1087285401	 0.771583392	 0.121381
H	 3.4072513672	-3.2285903897	 1.4276716767	 0.127241
162.0197	176.8125	199.3939	205.8366	282.785	303.411	525.3153	596.2622	607.4958	720.5507	750.0973	780.0252	828.9737	840.906	855.5661	859.9901	904.5033	913.7728	934.2634	959.5715	989.2175	1025.2306	1034.8421	1054.4399	1075.1327	1122.4909	1143.8237	1153.8824	1158.8486	1204.8962	1205.5714	1223.2018	1225.1153	1300.0831	1312.762	1374.1146	1401.8407	1408.1094	1469.1826	1475.0012	1494.6116	1497.3499	1498.5712	3025.8415	3029.062	3048.0887	3091.4252	3093.5329	3098.5542	3100.8178	3104.3769	3108.1734	3188.1038	3197.4341
CC1C2C3C4C1N2C34C	C[C@H]1[C@H]2[C@H]3[C@H]4[C@@H]1N2[C@@]34C	
InChI=1S/C8H11N/c1-3-6-4-5-7(3)9(6)8(4,5)2/h3-7H,1-2H3	InChI=1S/C8H11N/c1-3-6-4-5-7(3)9(6)8(4,5)2/h3-7H,1-2H3/t3-,4+,5-,6-,7+,8-
