17
gdb 56602	1.98113	1.57918	1.18202	4.1388	67.81	-0.2603	0.0138	0.2741	1102.172	0.135923	-455.114243	-455.10526	-455.104316	-455.148157	32.967	
N	-0.9699314883	 1.5072669312	-1.4631227909	-0.519121
C	-0.2096856882	 0.8053198764	-0.4269258877	-0.043521
C	-1.2521128316	-0.043025915	 0.3473627451	-0.022485
O	-1.8211801078	-1.0517469376	-0.4543966147	-0.42207
C	-0.7237129412	-0.5761006066	 1.6230363126	 0.277311
N	-0.3177877502	-0.9913516957	 2.6225348504	-0.332897
C	 0.9716491449	 0.0116240101	-0.9874142551	 0.065316
C	 1.7031459157	-1.0790683842	-0.3273757943	-0.198777
O	 0.7539145102	-1.3586728595	-1.3744572724	-0.24858
H	-0.3486261092	 2.0405352788	-2.0633103097	 0.231854
H	-1.4400045906	 0.8206795083	-2.0473990182	 0.245111
H	 0.1948779623	 1.5565113685	 0.2640068081	 0.112448
H	-2.0660949751	 0.6430988423	 0.6036850709	 0.154423
H	-1.0786160112	-1.5619162792	-0.8196559068	 0.305825
H	 1.5263100104	 0.5778025171	-1.7390909602	 0.100881
H	 2.7402181742	-1.2553205803	-0.6060738335	 0.129742
H	 1.4204537656	-1.4200287446	 0.6629216662	 0.16454
57.8535	126.1062	150.1115	228.4067	249.0826	280.1678	289.6823	334.2475	415.4315	437.0071	542.7989	585.9006	652.7278	740.0096	767.7683	840.6046	864.4806	915.8947	951.5441	989.6107	1053.6438	1076.2159	1103.2214	1143.7847	1169.8156	1178.764	1202.9211	1263.094	1295.3556	1327.5522	1359.4639	1390.9507	1438.3386	1470.8147	1532.6168	1647.0294	2349.4849	3031.004	3068.8346	3086.052	3111.9281	3216.5737	3491.8798	3576.1777	3658.5637
NC(C(O)C#N)C1CO1	N[C@@H]([C@@H](O)C#N)[C@H]1CO1	
InChI=1S/C5H8N2O2/c6-1-3(8)5(7)4-2-9-4/h3-5,8H,2,7H2	InChI=1S/C5H8N2O2/c6-1-3(8)5(7)4-2-9-4/h3-5,8H,2,7H2/t3-,4+,5-/m0/s1
