17
gdb 63343	2.58127	1.4425	1.15499	2.45	69.3	-0.2497	-0.0208	0.2289	1093.3276	0.136714	-455.227852	-455.219279	-455.218335	-455.261228	32.329	
C	 0.0620838777	 1.5236639307	 0.0042805145	-0.436474
C	-0.0418283381	-0.0137185766	-0.0543311255	 0.152375
N	-1.4169572005	-0.5177117886	-0.0320256431	-0.550719
C	 0.7738145289	-0.6059955507	-1.2252670265	-0.37236
C	 2.0168412809	-1.2297238008	-0.5996264049	 0.420797
O	 2.9817313679	-1.691777507	-1.1494254061	-0.339435
N	 1.8314767558	-1.188620872	 0.7831496821	-0.363318
C	 0.6584475008	-0.585653131	 1.1952125168	 0.439833
O	 0.2607691228	-0.5046301583	 2.3309121978	-0.367598
H	 1.1026725396	 1.8666003597	-0.0134900704	 0.123768
H	-0.4505519301	 1.9619420652	-0.8588458685	 0.118509
H	-0.4062941993	 1.8966623382	 0.9191053346	 0.137868
H	-1.7974699365	-0.3649114608	 0.899182585	 0.24449
H	-1.9919697345	 0.0180905317	-0.6765226328	 0.228486
H	 0.2062381705	-1.3999216619	-1.7186033959	 0.154561
H	 1.0685999307	 0.1223250734	-1.9840121417	 0.135313
H	 2.4915598633	-1.5989313009	 1.4292770947	 0.273903
49.7188	137.2934	223.9317	254.2314	268.7157	306.8911	340.7412	391.4634	421.3829	551.0358	573.4081	607.643	641.6229	681.3794	742.6946	766.7695	872.2199	904.6706	907.7486	936.0881	983.7466	1083.4718	1100.9508	1167.7012	1208.8446	1237.6175	1295.9172	1334.5967	1361.6005	1362.8468	1402.1706	1457.2972	1485.6833	1498.2815	1645.7307	1832.9529	1878.248	3027.3701	3073.994	3095.6644	3119.3809	3123.9901	3478.987	3559.3204	3614.6489
CC1(N)CC(=O)NC1=O	C[C@@]1(N)CC(=O)NC1=O	
InChI=1S/C5H8N2O2/c1-5(6)2-3(8)7-4(5)9/h2,6H2,1H3,(H,7,8,9)	InChI=1S/C5H8N2O2/c1-5(6)2-3(8)7-4(5)9/h2,6H2,1H3,(H,7,8,9)/t5-/m1/s1
