18
gdb 15724	3.3632	1.74208	1.26079	1.88	63.56	-0.2468	0.0639	0.3107	974.5536	0.154199	-422.060513	-422.052423	-422.051478	-422.093447	29.671	
C	-0.5385789779	 1.083116332	-0.0719532758	-0.254819
O	 0.3897580539	 0.0315681754	 0.1488031445	-0.256532
C	 0.9103727323	-0.5376997723	-1.0416358826	 0.057413
C	 2.3109136837	-1.1150749074	-0.7588073287	-0.104074
O	 2.3557104442	-2.3914192148	-1.3756648234	-0.243463
C	 1.0657151378	-2.9538369443	-1.207802847	-0.111044
C	 0.0810627375	-1.7987164648	-1.4833394533	 0.099728
O	-1.1479638092	-1.911118798	-0.8067600985	-0.431836
H	-0.0732783942	 1.9072811936	-0.6312869838	 0.115103
H	-1.4240436596	 0.7359333082	-0.6179438505	 0.130574
H	-0.8420289899	 1.4500436506	 0.9115680338	 0.130685
H	 0.9335924308	 0.2200831261	-1.8329531934	 0.076405
H	 3.1283388918	-0.5151540766	-1.1645026385	 0.110035
H	 2.4316166068	-1.1890192291	 0.3333677937	 0.102863
H	 0.9686753482	-3.7965940106	-1.8954018355	 0.112111
H	 0.9111083266	-3.317965629	-0.1776781409	 0.087258
H	-0.1461711885	-1.7467602492	-2.5516917524	 0.092898
H	-0.9860959343	-1.56983454	 0.0835989521	 0.286693
48.0861	123.7837	193.0585	235.402	294.7339	306.7609	402.0865	408.1668	471.956	564.2736	630.7902	681.431	798.2549	926.512	965.9765	1000.4902	1023.3959	1067.6256	1091.8726	1115.5617	1140.4995	1146.0119	1181.9461	1207.554	1222.9161	1254.2569	1276.06	1306.7835	1322.2452	1354.4184	1379.2571	1401.6406	1440.2734	1478.7301	1488.4543	1500.8659	1513.5698	1515.0869	2964.3664	2988.9027	2997.5562	3033.7448	3064.9197	3072.7188	3104.8235	3110.0983	3120.3167	3747.1043
COC1COCC1O	CO[C@H]1COC[C@H]1O	
InChI=1S/C5H10O3/c1-7-5-3-8-2-4(5)6/h4-6H,2-3H2,1H3	InChI=1S/C5H10O3/c1-7-5-3-8-2-4(5)6/h4-6H,2-3H2,1H3/t4-,5+/m1/s1
