18
gdb 31085	2.6664	1.27175	0.8991	0.5583	78.11	-0.1739	0.0371	0.211	1308.3368	0.146432	-439.101933	-439.092293	-439.091348	-439.13681	34.326	
C	 0.2076889944	 1.0853885214	-0.4852057541	-0.24712
O	-0.386461479	 0.0547601785	 0.2930197309	-0.284195
C	 0.4530257769	-0.5217287477	 1.2079984096	 0.226876
C	 0.7715356773	-1.8463059178	 1.2292487634	 0.257838
N	 0.5013877857	-2.8965141015	 0.3574718849	-0.60281
O	 1.5556364188	-2.1170804297	 2.3036797288	-0.207581
C	 1.7488873601	-0.9362602341	 2.9879433702	 0.365168
C	 2.5766918735	-1.0141955299	 4.2181206786	-0.48923
C	 1.0996551758	 0.0707921972	 2.350381434	-0.386132
H	 1.073966993	 0.7121971038	-1.0473089197	 0.115549
H	-0.5572498454	 1.4354040731	-1.1823319722	 0.126047
H	 0.5320192461	 1.9274157157	 0.1401543493	 0.116336
H	-0.1633868797	-2.5925201725	-0.344241244	 0.255658
H	 0.1362037298	-3.714690403	 0.834476821	 0.250159
H	 3.59163789	-1.3714155028	 4.0057209569	 0.1336
H	 2.6534795637	-0.0235029151	 4.6722055204	 0.132021
H	 2.1412042522	-1.69515535	 4.9594228496	 0.132271
H	 1.0633308469	 1.1035882345	 2.6602872725	 0.105544
48.8206	126.1109	146.5187	164.5197	198.3423	214.5683	266.3296	272.7557	304.0814	429.657	528.4695	584.9562	630.397	648.7651	691.4786	786.5534	797.0132	832.5013	962.9844	1009.7211	1050.2368	1063.3463	1093.9341	1161.9581	1178.1272	1198.6277	1221.2571	1287.1288	1338.5107	1417.9183	1440.0541	1470.7312	1483.4011	1489.0127	1496.7064	1505.2362	1622.2571	1644.1786	1707.9795	3001.2366	3021.5369	3059.8763	3067.3582	3120.7157	3124.6774	3253.0757	3505.347	3607.2568
COC1=C(N)OC(C)=C1	COc1c(N)oc(C)c1	
InChI=1S/C6H9NO2/c1-4-3-5(8-2)6(7)9-4/h3H,7H2,1-2H3	InChI=1S/C6H9NO2/c1-4-3-5(8-2)6(7)9-4/h3H,7H2,1-2H3
