17
gdb 112383	2.92542	1.28183	0.98414	1.6606	72.35	-0.2542	-0.0133	0.241	1195.1692	0.136639	-455.190061	-455.181538	-455.180594	-455.223888	31.137	
C	-0.2345648293	 1.2723429487	 0.023260175	-0.244024
O	 0.1082974654	-0.1047766274	 0.0077685896	-0.251518
C	 0.7673267247	-0.5320512761	-1.1686565837	 0.056323
C	 1.3210369038	-1.9388486499	-0.9107677177	-0.367692
C	 0.3629570281	-2.8915728968	-1.6196880675	 0.414261
O	 0.3167672601	-4.0932032014	-1.5621503452	-0.347279
N	-0.4653270809	-2.0983339178	-2.4084055969	-0.358284
C	-0.2408639363	-0.7299719227	-2.310608591	 0.382232
N	-0.7565293282	 0.2241095025	-2.9705440273	-0.528442
H	 0.6630374599	 1.9021508232	-0.0709691966	 0.106414
H	-0.9282905558	 1.530793555	-0.783417952	 0.144627
H	-0.7034993662	 1.4619196736	 0.9914209581	 0.126468
H	 1.5325174652	 0.1951509791	-1.4684409961	 0.094453
H	 2.320270556	-2.0779332946	-1.333690335	 0.143048
H	 1.3688604858	-2.1588723066	 0.1564701608	 0.155845
H	-1.1600316079	-2.5153852706	-3.0114207834	 0.260603
H	-1.4424726046	-0.1060478182	-3.6529449111	 0.212965
48.3289	125.4507	137.6608	190.4008	257.4925	316.9412	377.5248	389.4553	529.7363	541.4646	624.1078	633.244	688.8731	708.7493	834.3188	875.7162	886.9539	932.7558	1019.5491	1039.2015	1113.5145	1131.6174	1181.701	1188.6092	1221.7409	1232.7895	1267.1894	1312.5393	1364.0936	1368.3468	1393.1354	1447.2094	1477.7489	1482.9575	1516.5537	1757.1432	1860.7873	2992.4946	3027.9219	3076.9605	3077.7954	3127.2976	3139.0457	3444.7749	3615.4892
COC1CC(=O)NC1=N	CO[C@H]1CC(=O)N[C]1[NH]	
InChI=1S/C5H8N2O2/c1-9-3-2-4(8)7-5(3)6/h3H,2H2,1H3,(H2,6,7,8)	InChI=1S/C5H8N2O2/c1-9-3-2-4(8)7-5(3)6/h3H,2H2,1H3,(H2,6,7,8)/t3-/m0/s1
