25
gdb 61760	2.73665	0.88932	0.81562	2.8542	89.64	-0.2472	-0.0184	0.2288	1564.7308	0.22467	-389.513641	-389.502012	-389.501068	-389.550968	42.531	
C	 0.0724916865	 1.6251369109	 0.0735772342	-0.420849
C	-0.0496104797	 0.097449972	-0.0736933886	 0.023748
C	-1.5473114338	-0.2944125254	-0.0308203967	-0.29238
C	-2.1331621625	-0.1020722919	 1.3487575803	 0.161572
O	-3.0897444812	 0.5795161436	 1.6138463528	-0.243983
C	 0.7130557856	-0.4940496064	-1.3071390861	 0.260818
C	 2.1680022449	 0.0189374149	-1.3122886597	-0.414484
C	 0.7638041942	-2.0319676392	-1.1993815724	-0.414092
C	 0.0423962058	-0.1068629499	-2.6388906665	-0.408645
H	 1.1051002422	 1.940776291	 0.2361354901	 0.119685
H	-0.3069926675	 2.147455167	-0.8111509884	 0.122349
H	-0.5155867231	 1.9774960667	 0.9268989181	 0.128004
H	 0.425329772	-0.3530690554	 0.811427009	 0.070388
H	-2.1400269482	 0.2881296416	-0.7417118462	 0.119593
H	-1.6697305184	-1.3578696084	-0.2726594948	 0.113615
H	-1.5924796616	-0.6615682279	 2.1504280529	 0.068098
H	 2.6633732994	-0.1756384633	-0.3540719258	 0.108288
H	 2.7451459767	-0.4889743133	-2.0921002696	 0.109736
H	 2.2259868511	 1.0924742724	-1.5103159202	 0.115899
H	-0.2284399716	-2.4904164286	-1.2467456359	 0.111924
H	 1.3490492832	-2.4520125575	-2.0240679309	 0.112604
H	 1.2368084381	-2.3483665245	-0.2627999856	 0.109272
H	-0.0216261508	 0.9784645103	-2.7641324726	 0.114337
H	 0.6214231313	-0.4994847866	-3.4816165187	 0.110955
H	-0.9695836327	-0.5153075121	-2.7199041088	 0.113548
38.8436	57.0144	66.8585	188.9249	198.8548	217.1659	247.7871	269.9191	280.9186	298.9549	332.1109	364.2839	381.1849	434.6794	449.5413	507.0522	547.9947	715.9677	791.5911	859.9378	927.3322	930.3114	937.1091	951.2282	959.2686	997.4471	1025.9605	1032.1261	1095.6877	1116.046	1154.2547	1208.5514	1237.1922	1240.9534	1261.1977	1291.4301	1355.8548	1369.661	1399.8461	1400.6551	1412.8093	1428.0651	1435.1877	1460.5377	1480.6001	1485.3187	1486.5473	1496.6218	1504.7594	1507.6419	1512.2426	1523.3562	1833.1443	2838.3168	2984.1382	3025.2321	3028.3557	3031.2104	3035.5451	3041.4837	3089.8552	3093.1583	3096.152	3098.3457	3100.9939	3103.2811	3106.4955	3111.5824	3126.1665
CC(CC=O)C(C)(C)C	C[C@@H](CC=O)C(C)(C)C	
InChI=1S/C8H16O/c1-7(5-6-9)8(2,3)4/h6-7H,5H2,1-4H3	InChI=1S/C8H16O/c1-7(5-6-9)8(2,3)4/h6-7H,5H2,1-4H3/t7-/m0/s1
