16
gdb 45979	2.80194	1.46113	1.0671	1.9315	73.66	-0.2509	-0.0655	0.1854	1100.2979	0.124942	-437.906535	-437.898684	-437.89774	-437.939621	29.156	
N	 0.2761389461	 1.3243200709	-0.1140988164	-0.469893
C	-0.048952362	 0.1088268913	-0.0218621637	 0.351775
C	-1.4738482408	-0.3526836917	-0.1340309281	-0.306703
C	-1.7217757648	-1.4974512542	-1.0733703243	-0.044215
C	-0.8736836102	-2.2791867466	-1.7559651182	-0.143173
C	 0.6052665134	-2.2869273528	-1.8265424372	 0.339192
O	 1.1686416428	-2.9647533604	-2.6635442594	-0.316871
C	 1.4835937258	-1.4748421669	-0.8713580286	-0.209316
O	 0.8277129217	-0.9180515094	 0.2596120434	-0.24867
H	 1.2833928146	 1.4348455334	 0.0273110076	 0.228784
H	-1.814157281	-0.6633904267	 0.8661446554	 0.150464
H	-2.0989509691	 0.500621018	-0.4146494601	 0.15062
H	-2.7820063768	-1.7013336896	-1.2160649038	 0.119078
H	-1.2934562248	-3.0367045542	-2.4128528358	 0.114868
H	 2.2527241332	-2.1473134267	-0.4856771111	 0.151447
H	 1.9876947618	-0.6937202645	-1.4581870997	 0.132614
52.4977	97.8308	182.9844	294.5438	328.6254	366.3211	440.7494	480.5965	545.9505	571.2179	650.4924	703.2852	763.9214	810.1986	876.1448	930.5509	955.9779	976.8281	1023.8041	1040.0386	1056.053	1121.3773	1197.5627	1213.7116	1279.625	1288.6416	1325.6161	1364.7251	1384.5866	1421.0363	1441.9114	1460.2107	1694.7478	1756.5024	1760.0987	3002.4119	3013.3551	3086.0327	3116.4277	3139.2456	3171.9757	3454.99
N=C1CC=CC(=O)CO1	[NH][C]1CC=CC(=O)CO1	
InChI=1S/C6H7NO2/c7-6-3-1-2-5(8)4-9-6/h1-2,7H,3-4H2	InChI=1S/C6H7NO2/c7-6-3-1-2-5(8)4-9-6/h1-2,7H,3-4H2
