17
gdb 85032	2.44464	1.59901	1.01225	0.6177	70.24	-0.2483	-0.0205	0.2278	1140.273	0.136967	-455.225183	-455.216202	-455.215258	-455.25981	31.839	
C	-0.0686495763	 1.4705484982	 0.047629424	-0.350793
N	-0.007793521	 0.019880969	 0.0049162942	-0.130777
C	 0.0324656593	-0.6979771859	-1.1902023729	 0.399899
O	-0.0334517465	-0.1920932633	-2.2826403686	-0.351693
C	 0.2032891595	-2.1718175842	-0.84159624	-0.349247
C	 0.0165703515	-2.2542537503	 0.6803995987	-0.092772
N	 0.9667674763	-3.1289746985	 1.3544857716	-0.508174
C	 0.0533414702	-0.7839280294	 1.1368930827	 0.390212
O	 0.12485749	-0.3857506798	 2.2750784454	-0.364846
H	 0.7463817361	 1.8984132223	-0.5407806521	 0.151261
H	-1.0158814396	 1.8257105157	-0.3667829045	 0.150276
H	 0.0194898182	 1.7704805388	 1.0921067165	 0.163484
H	-0.4957984337	-2.7812433971	-1.4162716116	 0.148507
H	 1.2126837554	-2.4815343644	-1.1339852572	 0.145136
H	-0.9911206158	-2.619462807	 0.9153287247	 0.123087
H	 1.9134545234	-2.7929066278	 1.1913460537	 0.229409
H	 0.8198760829	-3.0516918362	 2.3582588554	 0.247034
52.0058	59.3204	120.3151	206.4233	258.1748	274.7025	286.6648	367.4358	406.2707	555.4518	565.4251	615.3043	615.8778	700.4336	789.5276	903.5037	929.2795	965.6195	1005.8329	1056.6958	1130.2442	1137.6336	1155.1134	1160.4373	1250.5168	1288.531	1301.1533	1307.5075	1400.3306	1412.756	1454.8684	1464.5024	1488.2691	1508.5339	1666.5636	1803.3108	1865.7737	3034.062	3056.57	3062.4699	3123.1203	3125.7598	3162.8711	3474.8212	3551.7681
CN1C(=O)CC(N)C1=O	CN1C(=O)C[C@@H](N)C1=O	
InChI=1S/C5H8N2O2/c1-7-4(8)2-3(6)5(7)9/h3H,2,6H2,1H3	InChI=1S/C5H8N2O2/c1-7-4(8)2-3(6)5(7)9/h3H,2,6H2,1H3/t3-/m1/s1
