16
gdb 78785	2.14409	1.84811	1.67194	4.0035	68.8	-0.2443	-0.0103	0.234	928.5849	0.12316	-437.845944	-437.837884	-437.83694	-437.878353	30.201	
C	-0.0237097824	 1.5682229449	 0.0620007694	-0.510503
C	-0.0062694587	 0.0717099465	 0.067505944	 0.157255
C	-1.2542147808	-0.8019318243	 0.272040434	 0.075517
O	-1.9755958773	-1.0698306337	-0.899599083	-0.424225
C	-0.2886530334	-1.8186389173	 0.8782999631	-0.079246
C	 0.9973117591	-1.8022006749	 0.115570496	-0.191192
N	 0.7129306089	-0.7681417054	 1.2074645443	-0.182166
C	 0.8611445282	-0.730286366	-0.9156191145	 0.45993
O	 1.4202022202	-0.4573254019	-1.937322754	-0.334509
H	 0.9889051562	 1.9711328719	-0.0263947388	 0.142882
H	-0.6037045493	 1.91980082	-0.797504133	 0.148688
H	-0.4813750338	 1.9628692291	 0.9738805343	 0.127853
H	-1.8887227943	-0.3863468212	 1.0664240973	 0.087573
H	-2.8200520567	-1.4688305345	-0.6689444856	 0.292153
H	-0.5016037457	-2.6230823675	 1.5744173963	 0.105634
H	 1.7579947796	-2.5635849656	 0.2298622901	 0.124357
124.5588	141.8342	203.4418	216.9065	226.194	252.298	396.8737	458.8796	575.0299	637.7356	686.9126	711.3361	737.094	786.3559	827.6666	843.2774	918.2239	978.4352	1007.4095	1032.6984	1067.6366	1097.8361	1127.8767	1139.6812	1146.5404	1223.9269	1270.075	1303.7228	1344.0662	1355.3281	1409.7699	1442.5313	1479.0116	1486.3641	1895.0903	3019.014	3042.0922	3113.8155	3120.8897	3172.3993	3212.078	3827.8751
CC12C(O)C3C(N13)C2=O	C[C@]12[C@@H](O)[C@H]3[C@H](N13)C2=O	
InChI=1S/C6H7NO2/c1-6-4(8)2-3(5(6)9)7(2)6/h2-4,8H,1H3	InChI=1S/C6H7NO2/c1-6-4(8)2-3(5(6)9)7(2)6/h2-4,8H,1H3/t2-,3+,4+,6-,7?/m1/s1
