17
gdb 68520	3.03226	1.64739	1.3935	2.799	72.15	-0.2279	-0.028	0.1999	966.9885	0.136158	-421.846879	-421.839572	-421.838627	-421.878272	29.461	
C	 0.0030335047	 1.5018831741	 0.0671537945	-0.485655
C	-0.0131131691	-0.0035580182	-0.0339509986	 0.340538
C	 0.7322432319	-0.6508528918	-1.2386936097	-0.369896
C	 0.9565340213	-2.0720516631	-0.6819382019	 0.428746
O	 1.445452981	-3.0229158993	-1.22456708	-0.31634
C	 0.4007111971	-1.9724195572	 0.7684233426	-0.100038
O	 0.7096114933	-0.6100555162	 1.0643983343	-0.272509
C	-1.1114299317	-1.9362870883	 0.567965776	-0.096354
C	-1.3656517138	-0.7251701337	 0.0729820568	-0.112171
H	 1.0308167948	 1.8754554923	 0.0579034897	 0.13156
H	-0.5331242383	 1.9474880214	-0.7761713615	 0.123207
H	-0.4760037195	 1.8265398432	 0.9951240556	 0.133568
H	 0.1814678267	-0.6601150755	-2.1809285001	 0.12703
H	 1.7029820231	-0.1720883705	-1.4014760308	 0.132033
H	 0.8265257319	-2.6644549646	 1.4909773374	 0.1003
H	-1.7809929914	-2.7734831922	 0.7053073701	 0.12307
H	-2.3067667618	-0.3217714903	-0.2762616143	 0.112911
125.2448	198.695	269.39	288.1695	364.0755	414.6095	486.132	553.081	580.7642	638.2455	657.0135	734.2937	772.8339	793.1421	855.1976	874.8312	896.3385	924.2987	939.6615	968.5153	1023.6042	1063.3852	1086.7301	1099.3328	1171.7271	1188.0066	1202.3002	1218.7802	1283.7041	1307.8837	1342.136	1415.5419	1452.7156	1481.1927	1495.4551	1638.2609	1866.6347	3043.9525	3063.041	3117.8423	3121.5715	3124.3721	3158.8175	3218.3102	3246.4738
CC12CC(=O)C(O1)C=C2	C[C@@]12CC(=O)[C@@H](O1)C=C2	
InChI=1S/C7H8O2/c1-7-3-2-6(9-7)5(8)4-7/h2-3,6H,4H2,1H3	InChI=1S/C7H8O2/c1-7-3-2-6(9-7)5(8)4-7/h2-3,6H,4H2,1H3/t6-,7+/m0/s1
