22
gdb 116558	2.94857	0.93735	0.82406	2.3445	86.62	-0.2431	0.0334	0.2765	1545.3443	0.192532	-404.362264	-404.351887	-404.350943	-404.398597	37.16	
C	 1.0594251024	 0.0826459422	-0.0414060854	-0.359125
C	-0.4249490719	 0.3966089066	-0.2304607143	-0.146705
N	-1.2207098003	-0.8222492168	-0.1047608062	-0.3402
C	-2.1074992582	-1.0687048061	-0.9514972625	 0.46387
O	-2.5140641764	-0.3527740925	-2.067011608	-0.286716
C	-3.4779666502	-1.3969071169	-2.4395070989	 0.136129
C	-3.189066509	-1.9610379325	-3.8135245451	-0.400774
C	-3.0874289701	-2.2042337896	-1.1653325203	-0.174901
C	-2.5156257724	-3.6124669374	-1.2723004485	-0.406864
H	 1.6558312992	 1.0002138624	-0.0714762146	 0.105589
H	 1.2270735793	-0.4121562293	 0.9195749743	 0.122327
H	 1.4193189691	-0.5850108659	-0.8305813374	 0.113952
H	-0.7489442712	 1.0897711309	 0.5572146235	 0.105153
H	-0.5872505776	 0.9043102241	-1.1905509012	 0.107049
H	-4.4892242237	-0.9793750466	-2.3976485275	 0.089561
H	-2.1681655829	-2.3451417393	-3.8829662589	 0.128921
H	-3.8846573537	-2.7742402201	-4.0459649774	 0.123288
H	-3.3119225876	-1.1818689925	-4.5716554067	 0.13254
H	-3.8875435558	-2.1843360312	-0.4188581891	 0.103684
H	-1.7019003219	-3.6701473833	-1.9999583667	 0.124313
H	-2.1115197353	-3.9167924675	-0.3028802489	 0.141721
H	-3.2879804618	-4.3325996886	-1.5606166403	 0.117192
31.3399	77.6694	103.9308	158.0055	193.1551	208.5658	255.4785	263.4087	273.6512	365.7526	394.285	505.2247	542.0717	651.3174	747.5586	774.025	802.1371	844.4082	880.0858	917.4166	1003.1818	1041.8183	1048.9867	1055.876	1089.1768	1106.9512	1136.0041	1157.4514	1172.285	1192.6677	1250.1002	1300.882	1318.0452	1361.7219	1382.7595	1383.2388	1407.6567	1411.8019	1414.2089	1479.5853	1488.3058	1489.788	1492.0337	1497.2159	1507.5132	1509.2742	1838.8021	3006.798	3037.1039	3040.6638	3041.3588	3044.5317	3049.8273	3066.5291	3107.576	3110.7416	3113.6698	3116.7338	3121.0135	3128.5487
CCN=C1OC(C)C1C	CCN=C1O[C@@H](C)[C@H]1C	
InChI=1S/C7H13NO/c1-4-8-7-5(2)6(3)9-7/h5-6H,4H2,1-3H3	InChI=1S/C7H13NO/c1-4-8-7-5(2)6(3)9-7/h5-6H,4H2,1-3H3/t5-,6+/m1/s1
