17
gdb 49688	2.36449	1.33817	0.99979	3.2105	82.48	-0.2363	-0.0308	0.2055	1203.8465	0.134355	-384.635893	-384.627436	-384.626492	-384.669132	31.934	
O	-0.0285168307	-0.007763153	-0.2326249926	-0.263264
C	-0.00694369	 1.1372141508	 0.1516049376	 0.150216
C	 1.2127288274	 1.98245053	 0.1158407554	-0.149317
C	 1.2379428095	 3.4657949906	-0.1815300899	-0.12365
C	 0.0070662517	 4.1981873022	 0.3649539023	-0.239343
C	 0.3599247724	 3.6923133426	 1.7998224605	-0.300636
C	 1.6001610012	 2.9729231214	 1.2258265431	 0.169233
C	 2.8638315831	 2.8795734968	 1.8718352358	 0.178134
C	 3.9226539404	 2.8149624919	 2.4408531319	-0.393913
H	-0.9239721334	 1.6122835357	 0.5585908567	 0.076117
H	 2.0707962466	 1.4472242985	-0.2785203	 0.121034
H	 1.9090415648	 3.8395405189	-0.9452685141	 0.11258
H	 0.106301363	 5.2817761485	 0.2816636832	 0.118871
H	-0.961502719	 3.9093486177	-0.050738975	 0.112977
H	 0.6513613263	 4.508469349	 2.4621678498	 0.126252
H	-0.3705074136	 3.0677196044	 2.319212671	 0.112502
H	 4.8588871404	 2.7522341539	 2.9377344342	 0.192206
76.7717	133.6185	158.3697	206.6785	248.0832	330.1123	415.6862	468.7221	498.7648	533.2047	577.8254	605.817	653.8043	701.1683	794.1871	841.9608	883.7528	934.1371	950.622	993.4863	1034.8058	1058.0856	1076.969	1114.9831	1131.1711	1203.1799	1213.9028	1232.2787	1243.5617	1286.0724	1317.3934	1395.5398	1462.0028	1486.7365	1508.4869	1807.5258	2231.4723	2905.1161	3067.7445	3075.2965	3114.1633	3134.031	3174.1795	3191.7101	3501.864
O=CC1C2CCC12C#C	O=C[C@H]1[C@H]2CC[C@@]12C#C	
InChI=1S/C8H8O/c1-2-8-4-3-6(8)7(8)5-9/h1,5-7H,3-4H2	InChI=1S/C8H8O/c1-2-8-4-3-6(8)7(8)5-9/h1,5-7H,3-4H2/t6-,7+,8-/m1/s1
