16
gdb 131214	5.34204	1.00851	0.88765	2.4131	72.33	-0.2049	0.0461	0.251	1266.2942	0.125696	-434.049824	-434.041806	-434.040862	-434.082723	30.019	
O	 0.2015176818	 1.3302679608	 0.1808109438	-0.432457
C	 0.0998449489	-0.0032613291	-0.0053974563	 0.474725
C	 0.2479362693	-0.8279533947	-1.0996743511	-0.469976
C	-0.0082933023	-2.1238142588	-0.5765566062	 0.409875
N	-0.2852388641	-2.1053330756	 0.7209711791	-0.310135
N	-0.2134257752	-0.780880805	 1.0511755393	-0.257108
N	-0.0424525103	-3.3074062357	-1.3261106652	-0.147436
C	 1.223394931	-3.9930033906	-1.6111731295	-0.232058
C	 0.2459554889	-4.5605241325	-0.6411881709	-0.214602
H	 0.3993444191	 1.7444065241	-0.6647042022	 0.313085
H	 0.4867251243	-0.5534699651	-2.1135218879	 0.099297
H	-0.4151814069	-0.4816925179	 1.9888639416	 0.275463
H	 1.3138264555	-4.4040602533	-2.6123448174	 0.116157
H	 2.1319700423	-3.5556853178	-1.2042756339	 0.120075
H	 0.4919047574	-4.5013177697	 0.4143975705	 0.138638
H	-0.3837582898	-5.3971763191	-0.9284140137	 0.116457
57.8759	138.7188	199.3522	257.0496	272.6904	351.6795	377.9106	470.6741	512.0628	579.1165	680.338	711.1945	728.9172	760.1962	822.787	903.0002	907.7968	998.7863	1038.7643	1053.3532	1111.2691	1129.755	1142.0682	1160.9983	1175.4706	1180.6206	1192.3048	1297.1763	1348.8673	1436.3081	1491.7692	1516.2639	1523.6628	1579.0752	1625.1444	3106.9608	3122.0238	3193.9987	3214.2578	3267.9722	3689.6627	3846.492
OC1=CC(=NN1)N1CC1	Oc1cc(n[nH]1)N1CC1	
InChI=1S/C5H7N3O/c9-5-3-4(6-7-5)8-1-2-8/h3H,1-2H2,(H2,6,7,9)	InChI=1S/C5H7N3O/c9-5-3-4(6-7-5)8-1-2-8/h3H,1-2H2,(H2,6,7,9)
