14
gdb 19218	3.15298	2.02424	1.44892	3.1826	68.36	-0.2381	-0.0173	0.2208	855.907	0.106103	-345.356661	-345.349608	-345.348664	-345.387967	26.736	
O	-0.0753282469	 0.024308852	-0.1243156372	-0.303368
C	-0.1010511537	 1.2085400582	 0.0232720962	 0.410357
C	-1.1607868658	 2.2560180958	-0.0540210006	-0.173569
C	-1.0081173719	 3.2187195937	 1.1234775529	-0.283576
C	-0.0638228997	 3.3505184486	-0.0109386837	-0.049552
C	 1.0531856331	 2.2900169574	 0.1136881322	-0.31494
C	 1.9283252501	 2.318142405	 1.2646007591	 0.330722
C	 2.6319389581	 2.326543599	 2.2398858959	-0.454078
H	-2.0812620247	 2.1988096024	-0.6207850651	 0.117366
H	-1.8020312537	 3.9556665248	 1.1808388706	 0.131549
H	-0.6579227854	 2.8569140802	 2.0849592975	 0.142117
H	-0.001864908	 4.2265111908	-0.6419121214	 0.114239
H	 1.6294161078	 2.2030875753	-0.8151610394	 0.132129
H	 3.2610270808	 2.3332228268	 3.095321653	 0.200604
109.6185	134.0257	187.7358	357.3409	372.413	504.6241	542.7714	605.7838	611.3386	646.2163	689.7025	764.8707	829.2283	848.7124	907.9324	949.0916	976.4142	1002.2366	1057.4538	1072.1841	1090.4648	1112.4227	1143.9993	1186.7546	1286.8	1309.2493	1336.7745	1492.9993	1895.2091	2232.703	3047.6228	3131.3982	3201.344	3211.307	3222.0104	3503.24
O=C1C2CC2C1C#C	O=C1[C@H]2C[C@H]2[C@H]1C#C	
InChI=1S/C7H6O/c1-2-4-5-3-6(5)7(4)8/h1,4-6H,3H2	InChI=1S/C7H6O/c1-2-4-5-3-6(5)7(4)8/h1,4-6H,3H2/t4-,5+,6+/m1/s1
