18
gdb 98777	3.71536	1.06357	1.00723	2.7281	72.05	-0.2506	-0.0376	0.213	1230.3204	0.147013	-439.04429	-439.035773	-439.034829	-439.078425	31.434	
O	-1.0828099643	 1.557695756	-1.3814303086	-0.421648
C	-1.2036252133	 0.1673844973	-1.4102199268	-0.132875
C	-1.4285248861	-0.405053927	-0.0209499209	 0.350455
O	-1.4200421641	 0.3368461016	 0.9419542923	-0.328253
C	-1.7166803017	-1.8846076021	 0.0795983289	-0.046647
C	-1.9300424194	-2.5282180571	 1.4687885646	-0.278053
C	-3.35453549	-2.8337322797	 1.0076324882	-0.008076
C	-4.0565014322	-1.6081047402	 0.5953489701	-0.245694
N	-3.1308811651	-2.2385406239	-0.37903699	-0.155231
H	-1.1150173129	 1.7956904355	-0.4412701101	 0.29316
H	-2.0398033013	-0.1532088457	-2.0520561311	 0.13863
H	-0.2987330968	-0.3106540247	-1.8254734292	 0.114525
H	-1.0210257823	-2.4409012448	-0.5546943882	 0.101237
H	-1.3127371209	-3.4149666279	 1.6168659876	 0.116783
H	-1.8321433519	-1.8657074652	 2.3311320157	 0.129974
H	-3.8613376289	-3.7852792395	 1.1267838862	 0.103189
H	-5.090386551	-1.7018647101	 0.2795832075	 0.129272
H	-3.7995726379	-0.6537372826	 1.0472715238	 0.139252
35.5244	93.5262	150.4524	176.7981	290.3392	334.926	382.7041	412.0108	464.0992	546.882	678.2594	729.39	758.6253	774.8769	822.2028	920.3454	940.7264	957.9267	990.4884	1017.4477	1056.2937	1084.0819	1112.8149	1123.8078	1142.679	1153.6998	1167.0919	1225.3099	1243.0302	1257.2242	1273.9105	1311.9863	1363.269	1389.0682	1448.1686	1486.2253	1490.0334	1503.2475	1781.9485	2959.7514	2999.2494	3069.1969	3080.7443	3120.0625	3136.5843	3171.753	3211.7034	3690.7787
OCC(=O)C1CC2CN12	OCC(=O)[C@H]1C[C@H]2CN12	
InChI=1S/C6H9NO2/c8-3-6(9)5-1-4-2-7(4)5/h4-5,8H,1-3H2	InChI=1S/C6H9NO2/c8-3-6(9)5-1-4-2-7(4)5/h4-5,8H,1-3H2/t4-,5+,7?/m0/s1
