18
gdb 8896	4.43514	1.12149	0.98046	0.3898	64.82	-0.2653	0.0155	0.2808	1213.3705	0.151289	-422.108039	-422.098183	-422.097238	-422.143467	33.403	
C	 0.0435407419	 1.3415201072	-0.0989087072	-0.240596
O	-0.0532217425	-0.0878259385	-0.1047925862	-0.237141
C	-1.2959176897	-0.5838851691	 0.0673479393	 0.447803
O	-2.2737955201	 0.1107097088	 0.2038168531	-0.36623
C	-1.2811818376	-2.1005912703	 0.0787205938	-0.100886
C	-0.5642769352	-2.6298686182	 1.3353611014	-0.398372
C	-2.7083747143	-2.6353741719	-0.0373281914	-0.076569
O	-2.621370429	-4.048400577	-0.1556564548	-0.42676
H	 1.1006625982	 1.568357039	-0.2377971229	 0.132705
H	-0.5496244581	 1.7718476162	-0.9098952642	 0.139999
H	-0.3144055868	 1.7494222496	 0.849834331	 0.139919
H	-0.715945954	-2.4325499457	-0.800336077	 0.110091
H	 0.4744790705	-2.2939800451	 1.3628661316	 0.126909
H	-1.0651687224	-2.2782485731	 2.2441656083	 0.119272
H	-0.5888995929	-3.7209641047	 1.3323805277	 0.141815
H	-3.2846785591	-2.3353971886	 0.8496378095	 0.101047
H	-3.2012459339	-2.1878141242	-0.9119212643	 0.097849
H	-3.5148005748	-4.4024561244	-0.1676982177	 0.289144
35.1293	99.8908	119.2524	140.2816	172.9069	228.9773	246.9488	267.6875	309.5001	359.0723	365.1774	482.3341	685.6837	763.2088	848.8745	900.6854	934.2988	1017.7353	1054.7719	1082.416	1121.0401	1163.6309	1179.1614	1198.5624	1214.1271	1259.785	1267.8561	1342.9046	1354.0526	1398.9127	1460.878	1472.8421	1481.549	1496.588	1498.2419	1505.116	1519.4212	1809.6516	2994.5266	3025.1996	3041.7577	3050.6488	3051.732	3117.9798	3124.9596	3145.0322	3157.9412	3839.3931
COC(=O)C(C)CO	COC(=O)[C@@H](C)CO	
InChI=1S/C5H10O3/c1-4(3-6)5(7)8-2/h4,6H,3H2,1-2H3	InChI=1S/C5H10O3/c1-4(3-6)5(7)8-2/h4,6H,3H2,1-2H3/t4-/m0/s1
