21
gdb 86455	1.92621	1.67691	0.941	3.2973	81.98	-0.2251	0.0257	0.2508	1285.2266	0.183151	-420.418618	-420.40954	-420.408596	-420.452257	34.415	
C	 0.0113969896	 1.5087595337	 0.0907646945	-0.400677
C	-0.0176902619	-0.0008897434	-0.0780281657	 0.122277
C	 0.7992286741	-0.4968755614	-1.2623455414	-0.157633
N	 0.7940739277	-1.9497052161	-1.2721854964	-0.08267
C	 1.3930981658	-2.5070805553	-2.4724572271	-0.316666
C	 1.4433147168	-2.4512034266	-0.0691665174	-0.220688
C	 0.8654861623	-1.8633850071	 1.1996667314	 0.37264
N	 0.8666966033	-2.5352914895	 2.272002059	-0.50771
O	 0.4632910947	-0.5624521625	 1.1629800854	-0.263356
H	 1.0384066387	 1.8645229957	 0.2168039902	 0.127669
H	-0.4239292448	 1.9980935995	-0.7857416952	 0.119815
H	-0.5641249661	 1.8019873728	 0.9721823522	 0.132254
H	-1.0512659572	-0.3476887376	-0.2117585101	 0.09418
H	 0.3392292388	-0.1283869654	-2.1854593099	 0.106873
H	 1.8262186291	-0.0795696618	-1.2113246582	 0.080285
H	 2.4608363519	-2.2386773224	-2.5886662559	 0.094942
H	 1.3217046444	-3.5988355423	-2.4466401668	 0.125396
H	 0.8538806629	-2.1500875042	-3.355229997	 0.11969
H	 1.343864957	-3.5363114291	-0.0086039084	 0.137261
H	 2.5300364699	-2.2204860643	-0.0713993077	 0.099124
H	 0.4956588027	-1.9668198828	 3.0368315645	 0.216994
100.1926	118.6834	159.4642	220.4948	247.3473	266.2932	316.7368	377.298	426.0283	448.8595	468.7498	512.6677	551.6993	632.4417	834.7455	893.2659	897.3931	922.8749	955.4098	976.1705	1016.5571	1064.6403	1086.4024	1129.5927	1145.0935	1161.1568	1174.7612	1180.1842	1228.1119	1282.3274	1310.086	1330.1333	1348.1669	1383.1412	1401.5763	1412.3763	1421.3208	1460.6008	1477.9767	1484.0231	1486.0504	1498.463	1503.056	1505.6983	1753.2989	2879.9134	2895.5183	2927.0338	3017.7554	3045.0071	3063.021	3068.8381	3108.0693	3113.4206	3118.663	3126.9644	3458.1077
CC1CN(C)CC(=N)O1	C[C@H]1CN(C)C[C]([NH])O1	
InChI=1S/C6H12N2O/c1-5-3-8(2)4-6(7)9-5/h5,7H,3-4H2,1-2H3	InChI=1S/C6H12N2O/c1-5-3-8(2)4-6(7)9-5/h5,7H,3-4H2,1-2H3/t5-/m0/s1
