19
gdb 17432	2.70764	2.51126	1.85684	1.7116	74.06	-0.2376	0.0811	0.3187	831.8127	0.166017	-327.881976	-327.874565	-327.873621	-327.91307	29.234	
C	-0.0262279316	 1.6191602387	 0.0189178864	-0.431164
C	 0.1032595825	 0.1016253618	 0.0346304621	-0.000719
C	 1.1671417175	-0.6229115081	-0.7704897744	-0.060049
C	 2.4038145205	-0.7529146901	 0.0597063577	-0.039763
C	 2.1572631094	-0.118938337	 1.413374817	-0.28435
C	 0.7219169483	-0.6654884835	 1.2375819314	 0.329556
C	-0.110761516	-1.1011079845	 2.4081904339	-0.499907
N	 1.2804436597	-1.7387187781	 0.2295965561	-0.194953
H	 0.932955275	 2.1170336358	 0.186470092	 0.1194
H	-0.4097411479	 1.9629684299	-0.9479015928	 0.118615
H	-0.7256402789	 1.9632067457	 0.7892415603	 0.116157
H	-0.8669172067	-0.3601969675	-0.1858967071	 0.079332
H	 1.1715366037	-0.8308328031	-1.8353725904	 0.087181
H	 3.3506644989	-1.0594326045	-0.3710363779	 0.091297
H	 2.6822275229	-0.6699131214	 2.1992006277	 0.106387
H	 2.309861318	 0.9555559308	 1.5565733944	 0.093535
H	-0.4221538381	-0.2340303074	 3.0029294994	 0.119628
H	-1.0113957366	-1.6261858421	 2.074099623	 0.124978
H	 0.4523131095	-1.7753546252	 3.061419001	 0.124839
166.9283	185.0818	193.0195	262.1141	310.6912	314.073	478.4282	557.72	617.4298	693.5572	768.5701	770.2831	806.3626	821.4214	885.6269	917.1632	980.057	1010.5902	1019.0664	1034.103	1057.9891	1096.4107	1105.5497	1117.7987	1132.0711	1151.7334	1215.8301	1244.4531	1248.3543	1320.2981	1340.3054	1378.2613	1396.4981	1407.9915	1417.0124	1480.4149	1490.1998	1493.1235	1494.4182	1509.4806	3027.2679	3030.6297	3034.5656	3045.1735	3092.0388	3094.3461	3096.3187	3105.6143	3110.9642	3165.8243	3179.6649
CC1C2C3CC1(C)N23	C[C@H]1[C@H]2[C@H]3C[C@]1(C)N23	
InChI=1S/C7H11N/c1-4-6-5-3-7(4,2)8(5)6/h4-6H,3H2,1-2H3	InChI=1S/C7H11N/c1-4-6-5-3-7(4,2)8(5)6/h4-6H,3H2,1-2H3/t4-,5+,6-,7-,8?/m0/s1
