18
gdb 45817	2.36735	2.01559	1.17958	3.7523	78.14	-0.2322	0.0081	0.2402	1036.2161	0.150357	-401.980243	-401.972873	-401.971929	-402.012198	28.727	
O	 0.1535620095	 0.0487518503	 0.1386279044	-0.373685
C	 0.0421434606	 1.2478057093	-0.0382541065	 0.366414
C	-1.2912596636	 1.9894246819	 0.0613990117	-0.375922
C	-1.1494513698	 3.3353663206	 0.7330534102	-0.075158
C	-0.01289569	 4.0289838817	 0.7018896166	-0.077444
C	 1.1797739749	 3.5040170337	-0.0251281417	-0.001089
C	 2.5360569151	 3.2494717187	 0.7082336481	-0.256697
C	 2.475715402	 1.7937455314	 0.1638823113	-0.17137
N	 1.1070524219	 2.0559891312	-0.3164475575	-0.088363
H	-1.7138193202	 2.1088348572	-0.9466003153	 0.137014
H	-1.9763418501	 1.3350559668	 0.6057353515	 0.136255
H	-2.0224970957	 3.7314170295	 1.2443590173	 0.102017
H	 0.0715942364	 5.0078908711	 1.1653724598	 0.099362
H	 1.3404177924	 4.0831338524	-0.9473711293	 0.095687
H	 3.3787418814	 3.8618771837	 0.3852664242	 0.110858
H	 2.4412848162	 3.2996798533	 1.7945464242	 0.119146
H	 3.177416836	 1.5805541367	-0.6484607779	 0.116274
H	 2.5159492728	 0.9824651106	 0.8940472589	 0.136702
103.221	128.5711	209.2087	264.6613	387.1737	464.44	496.8405	539.459	625.0564	629.8015	702.4734	744.2086	807.6148	848.5166	929.9797	952.7177	961.5967	965.4002	995.3158	1041.8551	1084.619	1092.6964	1139.8829	1175.7261	1187.2757	1196.1108	1216.0294	1257.2732	1275.3391	1316.3707	1319.2179	1334.2548	1405.5714	1423.4836	1460.8993	1487.7934	1520.4481	1714.6281	1776.3225	2977.2625	3013.2519	3052.705	3080.5943	3102.1253	3111.3668	3141.8141	3157.7633	3180.147
O=C1CC=CC2CCN12	O=C1CC=C[C@H]2CCN12	
InChI=1S/C7H9NO/c9-7-3-1-2-6-4-5-8(6)7/h1-2,6H,3-5H2	InChI=1S/C7H9NO/c9-7-3-1-2-6-4-5-8(6)7/h1-2,6H,3-5H2/t6-/m0/s1
