19
gdb 104262	2.2194	1.42262	1.09459	4.2018	75.87	-0.2374	0.0006	0.238	1185.4493	0.15828	-419.185197	-419.175683	-419.174739	-419.219622	34.556	
C	 0.0670466796	 1.4879544502	-0.0816736602	-0.335644
N	-0.0494025032	 0.0396335111	 0.0604279898	-0.328264
C	-1.3862496984	-0.4957368186	 0.0250066518	 0.265135
C	-2.2299937261	 0.0001550068	 1.1970236507	-0.436271
C	-2.1955780021	-0.5308559205	-1.315243194	-0.120849
O	-2.4133335775	-1.9560718144	-1.1764434746	-0.270034
C	-1.4648195671	-2.0575194842	-0.1045482855	-0.084048
C	-0.2233648862	-2.7195782561	-0.5235432282	 0.301128
N	 0.7628935556	-3.2160696872	-0.8661463415	-0.33405
H	 1.1256019357	 1.7461070431	-0.1651715081	 0.132314
H	-0.4535322031	 1.9015766879	-0.9628242238	 0.102502
H	-0.3232575515	 1.9935354684	 0.8063053908	 0.131529
H	 0.5290905626	-0.4200759993	-0.6344832005	 0.23705
H	-2.428082089	 1.0725641742	 1.1145867464	 0.127129
H	-3.1959323105	-0.5125010417	 1.213957773	 0.132675
H	-1.7110372672	-0.1838690488	 2.1419812499	 0.13446
H	-3.1423072152	 0.0168138968	-1.3531438096	 0.112094
H	-1.5957613466	-0.2988797569	-2.2047714898	 0.1073
H	-1.87442085	-2.5851273007	 0.7638187134	 0.125847
75.3762	99.3723	124.073	196.1034	212.0737	244.6763	277.832	328.9436	374.1354	396.3547	434.6721	540.1523	593.8894	659.221	769.2633	851.9834	880.4937	920.3919	951.8995	971.9528	1017.0483	1037.6776	1098.4261	1120.0238	1144.8112	1159.1945	1170.2099	1211.5158	1244.9312	1303.794	1334.6594	1353.5173	1407.3406	1462.1223	1489.2203	1490.085	1503.6551	1509.2495	1516.9131	1533.7275	2349.6671	2955.4657	3017.4996	3043.5149	3052.5581	3076.1024	3083.2967	3114.8662	3120.8253	3124.1103	3528.1251
CNC1(C)COC1C#N	CN[C@@]1(C)CO[C@H]1C#N	
InChI=1S/C6H10N2O/c1-6(8-2)4-9-5(6)3-7/h5,8H,4H2,1-2H3	InChI=1S/C6H10N2O/c1-6(8-2)4-9-5(6)3-7/h5,8H,4H2,1-2H3/t5-,6-/m0/s1
