19
gdb 15680	3.40919	1.67554	1.19247	3.6231	71.89	-0.2352	0.0357	0.2709	1036.2802	0.167307	-365.121778	-365.11365	-365.112706	-365.154424	30.202	
C	 0.0396798323	 1.5706931656	 0.1528217598	-0.391488
C	-0.0098239725	 0.043649404	 0.0427411869	-0.181408
C	 0.5792048396	-0.5038219077	-1.2639019417	-0.090037
C	 0.7657212383	-2.0323104351	-1.3032451376	-0.232962
C	 0.6377941149	-2.3985141108	-2.7965096634	-0.17198
N	-0.2317738933	-1.3457520975	-3.2904547619	-0.302098
C	-0.2805357494	-0.2225072881	-2.5096044257	 0.413985
O	-0.8888665127	 0.7934873481	-2.7780286995	-0.385609
H	 1.0748108835	 1.930958535	 0.1300714042	 0.104623
H	-0.4975456708	 2.0302512742	-0.6786084959	 0.157646
H	-0.4079351939	 1.9078094741	 1.0930177382	 0.104284
H	 0.5378579242	-0.4066227759	 0.8807983775	 0.090726
H	-1.0473947173	-0.3025894606	 0.1336415837	 0.101319
H	 1.5459329075	-0.0121018744	-1.4495402063	 0.095682
H	 1.7131221529	-2.3647500486	-0.8736007039	 0.107165
H	-0.0432749138	-2.5111549357	-0.7403598665	 0.112364
H	 1.6161090261	-2.3877822001	-3.2992846094	 0.105529
H	 0.1958892971	-3.3880382256	-2.9501854084	 0.113291
H	-0.6194264327	-1.3305371409	-4.22046399	 0.248968
78.7115	127.6663	175.0319	201.3332	256.8658	312.619	377.7986	474.177	532.56	586.0343	689.3139	705.5153	749.5195	824.1993	884.0499	944.4271	946.5915	984.1908	1037.6636	1074.0535	1088.372	1140.5375	1158.1603	1202.9865	1225.8744	1255.9545	1275.0998	1292.8808	1337.491	1343.4864	1375.8675	1380.2786	1409.2918	1446.7828	1486.3425	1494.9387	1497.7125	1517.0739	1535.7778	1814.5624	2993.0014	2998.5711	3016.5136	3033.3666	3046.8204	3052.0074	3068.2507	3095.595	3109.1455	3143.4758	3640.6901
CCC1CCNC1=O	CC[C@H]1CCNC1=O	
InChI=1S/C6H11NO/c1-2-5-3-4-7-6(5)8/h5H,2-4H2,1H3,(H,7,8)	InChI=1S/C6H11NO/c1-2-5-3-4-7-6(5)8/h5H,2-4H2,1H3,(H,7,8)/t5-/m0/s1
