15
gdb 129178	3.02591	1.28827	1.02904	3.4146	73.74	-0.1971	0.016	0.2131	1144.6549	0.112873	-412.954793	-412.946353	-412.945409	-412.988836	30.765	
N	-0.0171152877	 1.3433511055	 0.1906890624	-0.616414
C	 0.0508185672	 0.0754631175	 0.0415537958	 0.458796
N	 1.1200968718	-0.8239312742	-0.0521844598	-0.363142
C	 0.6108985472	-2.0913127078	-0.2220241231	 0.053725
N	-0.6800834984	-2.0989098344	-0.2345149756	-0.224669
N	-1.0345117203	-0.7781449474	-0.0577948732	-0.031908
C	-2.4172512535	-0.3556909504	-0.1006055161	-0.302425
C	-2.9961310139	-0.3610503074	-1.4444655587	 0.325321
C	-3.4854456828	-0.3677523838	-2.5409703617	-0.457747
H	 0.9013121362	 1.770306859	 0.2614026989	 0.206959
H	 2.0879413397	-0.5580728538	-0.0323579632	 0.270702
H	 1.226394436	-2.9708356835	-0.3235362147	 0.151376
H	-3.0005239783	-1.0050990723	 0.5612183133	 0.148228
H	-2.4300515196	 0.6577071548	 0.3132880199	 0.18042
H	-3.9134308137	-0.3711468616	-3.5127265443	 0.200777
36.5095	66.6126	201.1723	227.0766	272.2292	320.6412	369.5158	435.7555	531.5537	613.4637	631.9921	662.9527	664.6977	713.2018	722.9415	803.2942	818.29	937.8856	943.579	953.1002	1047.7346	1098.3242	1155.5575	1212.2399	1300.0008	1341.1638	1390.7294	1404.2809	1431.5096	1456.4909	1626.667	1750.2077	2244.1544	3045.9331	3097.0298	3272.506	3506.4367	3539.9689	3698.292
N=C1NC=NN1CC#C	[NH][C@H]1NC=NN1CC#C	
InChI=1S/C5H6N4/c1-2-3-9-5(6)7-4-8-9/h1,4H,3H2,(H2,6,7,8)	InChI=1S/C5H7N4/c1-2-3-9-5(6)7-4-8-9/h1,4-6H,3H2,(H,7,8)/t5-/m0/s1
