17
gdb 47435	2.65133	1.52142	1.18771	1.8016	67.75	-0.2452	-0.0288	0.2164	1064.2572	0.135764	-458.956489	-458.948538	-458.947594	-458.989578	29.345	
O	-0.1141301835	 0.0141214665	 0.4031364978	-0.309813
C	-0.0378776199	 1.1780302812	 0.1165744528	 0.39058
C	-1.1724249728	 2.1864960239	-0.0444358458	-0.339245
C	-0.4319948441	 3.525096272	-0.0280334191	-0.091085
O	 0.8786890452	 3.2439918131	-0.5545360807	-0.265664
C	 1.2694629117	 1.9484884788	-0.1501865777	-0.047767
C	 2.1505622216	 1.9461006594	 1.0892744088	 0.071724
C	 2.9431290536	 3.120133085	 1.4614810584	-0.177215
O	 1.730341565	 2.7967310618	 2.1561556688	-0.238706
H	-1.6525349194	 2.0028443158	-1.0129075729	 0.141414
H	-1.9240052494	 2.0626975774	 0.7371888649	 0.141418
H	-0.878320925	 4.2858391305	-0.6713172658	 0.116
H	-0.3476098786	 3.9164581695	 0.9917928481	 0.127193
H	 1.8173534197	 1.4668172163	-0.9705643536	 0.115665
H	 2.4792416096	 0.9522422097	 1.3946799771	 0.113748
H	 3.856322827	 2.9910117345	 2.0396585718	 0.119338
H	 2.8891467796	 4.0067351147	 0.8353273071	 0.132415
82.6713	90.722	168.0016	182.7664	262.5955	354.7783	460.2422	537.6487	563.2043	650.0237	696.0957	764.9577	839.0088	844.6659	892.852	927.7197	957.3434	981.052	1005.4026	1067.0806	1103.7893	1130.1418	1154.8495	1165.779	1172.5586	1205.9749	1238.9121	1255.9065	1281.0957	1287.7143	1335.3426	1391.9577	1419.2159	1446.4404	1512.948	1522.4329	1858.6746	3031.4643	3046.7073	3051.1337	3098.0281	3112.8492	3116.1176	3127.6205	3196.9488
O=C1CCOC1C1CO1	O=C1CCO[C@H]1[C@H]1CO1	
InChI=1S/C6H8O3/c7-4-1-2-8-6(4)5-3-9-5/h5-6H,1-3H2	InChI=1S/C6H8O3/c7-4-1-2-8-6(4)5-3-9-5/h5-6H,1-3H2/t5-,6-/m1/s1
