21
gdb 57912	3.33094	0.98496	0.85216	3.0435	79.59	-0.2584	-0.0287	0.2296	1423.3924	0.181519	-424.238402	-424.228778	-424.227834	-424.273647	35.403	
C	 0.004390158	 1.6127553504	 0.4201975322	-0.400685
C	-0.1255933684	 0.1770386664	-0.1122511289	 0.054899
O	 0.4371274955	 0.0779083014	-1.3917781175	-0.439643
C	 0.52654502	-0.8398226324	 0.8261934376	 0.347722
O	 1.4277267997	-1.5368506322	 0.3995489639	-0.344738
C	 0.0481436576	-0.9410531176	 2.2511575318	-0.066805
C	 0.1468932301	-2.3280950145	 2.9486922705	-0.22919
C	 0.6922048385	-1.6268780075	 4.219555518	-0.213534
C	 1.0270422411	-0.3892174965	 3.3482178189	-0.218326
H	 1.0586009296	 1.8819652067	 0.5340965791	 0.128233
H	-0.4460462584	 2.2987194125	-0.3012768886	 0.136763
H	-0.5021696137	 1.7409241764	 1.3812924822	 0.115406
H	-1.1995593364	-0.0823028841	-0.150357469	 0.087895
H	 1.1089419028	-0.6199194357	-1.3171351359	 0.291047
H	-0.9438865833	-0.4947703491	 2.3599455885	 0.078094
H	-0.7763482322	-2.9047144799	 3.0351963842	 0.102728
H	 0.9087485076	-2.9352950695	 2.455018715	 0.130096
H	-0.1011584475	-1.4113702576	 4.9407422263	 0.105355
H	 1.5191512458	-2.1073742111	 4.7464843774	 0.105512
H	 2.0585494567	-0.4137412827	 2.9878865391	 0.122939
H	 0.8111149768	 0.6027351165	 3.7502163652	 0.106234
43.6582	73.8634	114.1802	171.3676	224.6088	244.0892	283.4771	338.627	370.7757	432.467	479.994	597.9115	671.6242	717.8837	778.8189	797.8599	860.0575	906.2313	931.7496	937.8695	947.4347	998.1879	1015.5876	1053.4492	1090.5331	1106.0497	1140.511	1188.7515	1210.7903	1243.7314	1257.4931	1262.0665	1274.1467	1282.6382	1286.1442	1352.118	1381.2633	1399.8704	1435.3637	1475.2112	1486.9305	1489.4724	1500.0111	1506.9537	1777.0994	2938.994	3043.7825	3061.0223	3065.8926	3071.7048	3073.0123	3107.8965	3119.8087	3125.3704	3127.3168	3135.5808	3668.4357
CC(O)C(=O)C1CCC1	C[C@@H](O)C(=O)C1CCC1	
InChI=1S/C7H12O2/c1-5(8)7(9)6-3-2-4-6/h5-6,8H,2-4H2,1H3	InChI=1S/C7H12O2/c1-5(8)7(9)6-3-2-4-6/h5-6,8H,2-4H2,1H3/t5-/m1/s1
