20
gdb 107430	2.8031	1.40353	1.26385	3.1737	77.71	-0.2368	0.0718	0.3085	1114.0797	0.171704	-403.113635	-403.105553	-403.104608	-403.146221	31.862	
C	-0.3670197838	 1.501984101	 0.0975958164	-0.384105
C	 0.1903050054	 0.0728306003	 0.0573276843	-0.29548
C	 0.7660035506	-0.3138369367	-1.2827169529	 0.455733
O	 1.7675016594	-1.3378709142	-1.2823025722	-0.285968
C	 2.1474543538	-0.0328983777	-1.7292745593	-0.034294
C	 2.1862943058	 0.146658818	-3.2443979479	-0.247242
C	 0.7448669127	-0.0677664484	-3.711372101	-0.040063
N	 0.2133012046	-1.4229584283	-3.4800108061	-0.313969
C	-0.1143671667	-0.3406519916	-2.5266806774	-0.136644
H	 0.4110112323	 2.2353675681	-0.1383672535	 0.118993
H	-1.1828715996	 1.6424351678	-0.6189466409	 0.118091
H	-0.7599324971	 1.7361648413	 1.0912992192	 0.118764
H	 0.9813472738	-0.0437665181	 0.8052809658	 0.112148
H	-0.5982839633	-0.6418152732	 0.3268863533	 0.106692
H	 2.8853351339	 0.4701738857	-1.1057093038	 0.086536
H	 2.5070631483	 1.1674160366	-3.4824320044	 0.100848
H	 2.8854768262	-0.5478239444	-3.7203721339	 0.123594
H	 0.3820215983	 0.4933879628	-4.5673284005	 0.085946
H	-0.5878133586	-1.5671293151	-4.0918838722	 0.228054
H	-1.137916956	 0.0101970762	-2.4534739829	 0.082367
82.8581	138.0385	198.0071	259.321	283.0166	338.4694	401.824	463.261	551.6458	592.6235	705.4249	737.7675	784.6822	805.0714	849.2871	861.2087	893.1225	918.9448	942.8298	957.5148	978.8708	1005.4991	1043.457	1069.9955	1101.58	1124.487	1144.585	1169.4614	1209.5693	1219.9065	1239.0531	1272.6068	1309.4402	1322.2292	1357.6402	1371.8673	1411.4692	1421.3155	1457.9599	1465.7685	1487.603	1500.1044	1508.8886	3026.0914	3036.1323	3044.7176	3073.6547	3092.4502	3104.7803	3109.2091	3119.8088	3149.8446	3171.3897	3483.1393
CCC12OC1CC1NC21	CC[C@]12O[C@H]1C[C@H]1N[C@@H]21	
InChI=1S/C7H11NO/c1-2-7-5(9-7)3-4-6(7)8-4/h4-6,8H,2-3H2,1H3	InChI=1S/C7H11NO/c1-2-7-5(9-7)3-4-6(7)8-4/h4-6,8H,2-3H2,1H3/t4-,5+,6-,7+/m1/s1
