16
gdb 33976	2.35099	1.77924	1.2146	1.0374	76.47	-0.2479	0.0092	0.2571	1030.3963	0.122879	-400.640176	-400.632309	-400.631365	-400.672436	30.586	
C	-0.0850583048	-1.1816075388	-0.0824286212	-0.409641
C	 0.0133406228	 0.0161464211	-0.0238869377	 0.180941
C	 0.0571225671	 1.4288969121	 0.1182814758	 0.2762
O	 0.2859563164	 2.2777987851	-1.026667643	-0.288865
C	 1.1569433733	 2.4270519815	 0.0939680557	-0.073223
C	 0.4450126575	 3.3225214498	 1.1231699975	-0.326969
C	-0.6980796853	 2.2803189968	 1.139405925	 0.258085
C	-2.1571036978	 2.3691113765	 1.3240933792	-0.301523
N	-1.2884265957	 1.7715201035	 2.365801803	-0.367197
H	-0.1511535577	-2.2396907017	-0.1506947787	 0.198733
H	 2.2173116785	 2.2776981676	-0.0720646428	 0.121538
H	 0.9520802977	 3.3679204353	 2.0896678696	 0.126826
H	 0.2070010464	 4.3279420905	 0.7698222237	 0.119243
H	-2.6128128514	 3.3147183208	 1.6038476569	 0.125687
H	-2.787436368	 1.7151887654	 0.7268134518	 0.122731
H	-1.344424959	 0.7546893545	 2.3270172953	 0.237431
106.7141	133.633	175.0592	289.6339	313.359	398.1149	471.4969	494.5717	557.5706	584.0117	607.1082	630.3354	678.6147	790.3043	836.7017	876.5561	885.1521	928.8049	935.9804	973.9893	996.8482	1050.0735	1064.6448	1105.5673	1135.0777	1165.472	1226.7338	1256.4092	1268.8933	1273.8183	1405.4751	1422.3216	1470.436	1513.6477	2236.3473	3072.1762	3108.8387	3133.5199	3193.8145	3195.6381	3476.1576	3498.232
C#CC12OC1CC21CN1	C#C[C@]12O[C@H]1C[C@]12CN1	
InChI=1S/C7H7NO/c1-2-7-5(9-7)3-6(7)4-8-6/h1,5,8H,3-4H2	InChI=1S/C7H7NO/c1-2-7-5(9-7)3-6(7)4-8-6/h1,5,8H,3-4H2/t5-,6+,7-/m0/s1
