19
gdb 77369	2.51165	1.6537	1.35418	1.3979	75.2	-0.2426	0.0735	0.3161	1031.8923	0.158227	-422.980717	-422.972246	-422.971302	-423.012957	33.705	
C	 0.0061904383	 1.4789761247	 0.029473725	-0.513811
C	 0.005627559	-0.0194779803	-0.0262010999	 0.344694
C	-0.9433640427	-0.884974986	 0.8153915029	-0.11079
C	-1.0740078483	-2.2479518161	 0.132561315	-0.297835
C	 0.426459236	-2.0839709247	-0.2088659093	 0.337006
O	 1.251852606	-3.1529859338	-0.5111397878	-0.483752
C	 0.5522120229	-1.0182164267	 0.9772289897	-0.237042
C	 0.4669025756	-0.8867725807	-1.1850786975	 0.046066
O	-0.3529139593	-0.892968571	-2.3321812943	-0.445257
H	 0.9858916834	 1.8876295334	-0.2431485416	 0.116822
H	-0.7348027064	 1.8980613589	-0.6600418676	 0.131207
H	-0.2350760409	 1.8364097365	 1.0362235173	 0.116128
H	-1.6392781758	-0.422914467	 1.5036503133	 0.084578
H	-1.2296048188	-3.0434943316	 0.8702735041	 0.081857
H	-1.7642018755	-2.3594244955	-0.7087301375	 0.104854
H	 1.0710527893	-3.8665955059	 0.1097443026	 0.28232
H	 1.2202844319	-0.891472421	 1.8164304804	 0.090293
H	 1.5133690792	-0.6575919775	-1.435293224	 0.067032
H	 0.0523821662	-1.4734323757	-2.9847724807	 0.285628
176.8885	187.1499	212.9184	250.1772	260.953	295.6525	323.4543	362.459	397.5787	522.4171	573.6625	613.2755	647.1854	733.3546	799.2694	829.9678	866.7045	904.9687	911.9961	943.9494	981.4135	1025.0218	1048.2001	1071.2587	1078.0886	1105.5619	1123.8782	1151.232	1163.9796	1230.4387	1236.6517	1249.374	1300.9016	1346.69	1380.906	1400.338	1418.6062	1463.4695	1486.0048	1487.1518	1500.1704	3001.4727	3025.1678	3035.7339	3087.1904	3095.4292	3098.5479	3197.1805	3226.1757	3808.1408	3815.2437
CC12C3CC(O)(C13)C2O	C[C@]12[C@H]3C[C@](O)([C@@H]13)[C@H]2O	
InChI=1S/C7H10O2/c1-6-3-2-7(9,4(3)6)5(6)8/h3-5,8-9H,2H2,1H3	InChI=1S/C7H10O2/c1-6-3-2-7(9,4(3)6)5(6)8/h3-5,8-9H,2H2,1H3/t3-,4+,5-,6-,7-/m0/s1
