19
gdb 120360	3.27331	1.02088	0.83309	2.7946	77.65	-0.2423	-0.0144	0.2279	1415.1456	0.159861	-419.264282	-419.255225	-419.254281	-419.299634	32.258	
C	-0.003213934	 1.5806473686	 0.0504285143	-0.380142
C	 0.0593668684	 0.0517094711	 0.0633442259	-0.176054
C	 0.6548733336	-0.5104655394	-1.233429153	-0.168508
N	 0.7189220291	-1.9613224894	-1.2560941263	-0.095625
C	 1.6945338281	-2.7793407195	-0.6942262048	 0.067609
N	 1.535484117	-4.0397195388	-0.8281283121	-0.257993
C	 0.286021688	-4.1938658856	-1.5793829631	-0.292024
C	-0.2390730669	-2.7810682206	-1.8525557392	 0.388277
O	-1.2272115391	-2.4044524811	-2.4368551228	-0.373795
H	 0.994099542	 2.0201431846	-0.0632974267	 0.117087
H	-0.6228351629	 1.9446501322	-0.7760752471	 0.126139
H	-0.4308569762	 1.9640716864	 0.9809578855	 0.122525
H	 0.6577712782	-0.2926486733	 0.9161528323	 0.10151
H	-0.9445973596	-0.3671139396	 0.194704552	 0.122752
H	 0.0363766674	-0.2185960532	-2.0877052231	 0.143647
H	 1.6625973525	-0.1109385361	-1.3977676742	 0.11411
H	 2.5365178075	-2.3227222107	-0.1822779927	 0.135731
H	 0.4568345289	-4.7310377738	-2.5185960256	 0.152563
H	-0.4464888822	-4.7746143118	-1.0082298394	 0.15219
26.9865	83.7876	89.2309	179.9403	233.1711	271.3632	294.278	355.0867	463.49	507.5111	607.2451	689.5921	738.8641	749.2319	862.5779	898.0891	901.9884	928.1131	985.5768	993.6115	1040.6814	1070.0067	1115.9726	1125.5851	1181.5505	1232.2204	1261.0755	1302.7257	1314.7956	1332.8877	1374.2215	1392.6262	1413.0977	1418.9021	1437.5145	1477.6472	1490.8719	1500.1434	1508.3223	1677.6564	1832.8338	3028.2899	3032.7406	3038.5755	3054.6158	3067.8913	3089.6428	3095.	3106.1003	3112.4552	3184.6401
CCCN1C=NCC1=O	CCCN1C=NCC1=O	
InChI=1S/C6H10N2O/c1-2-3-8-5-7-4-6(8)9/h5H,2-4H2,1H3	InChI=1S/C6H10N2O/c1-2-3-8-5-7-4-6(8)9/h5H,2-4H2,1H3
