17
gdb 32535	2.60344	1.25964	0.85807	2.0886	71.1	-0.2059	0.0321	0.238	1304.8305	0.135199	-458.96447	-458.955431	-458.954487	-458.998989	32.155	
C	-0.0371119486	 1.3478854554	 0.0570534944	-0.251008
O	-0.0048721875	-0.0671499424	 0.0152482173	-0.262649
C	 0.6131372482	-0.5938354968	-1.0683229362	 0.22511
C	 1.2133193546	 0.0123399683	-2.1331129503	-0.155117
O	 1.7005351613	-0.9438762833	-2.9813720359	-0.1575
C	 1.4007482521	-2.151233017	-2.4395545687	-0.068734
C	 0.7338614462	-2.0113834584	-1.2650956652	 0.120685
C	 0.2259995776	-3.0822109672	-0.3576409007	-0.190312
O	 0.560336519	-4.3410596335	-0.9207483335	-0.421136
H	 0.9788800737	 1.765005915	 0.0722607617	 0.123354
H	-0.5752921888	 1.7556432078	-0.8092936876	 0.123343
H	-0.5588541255	 1.6260437923	 0.9739102245	 0.134948
H	 1.3722967954	 1.0347648486	-2.4247001886	 0.13114
H	 1.7194808091	-3.0182588598	-2.9911874965	 0.149965
H	 0.6682309954	-2.9591241817	 0.6449132331	 0.10368
H	-0.8640635381	-2.9747020835	-0.230784953	 0.103649
H	 0.229648906	-5.0265986439	-0.3339981948	 0.290582
48.4817	106.3507	137.4745	206.0327	222.5559	245.0288	259.123	349.0916	364.3078	569.8878	606.0456	639.2316	641.7385	702.6708	751.7106	779.4224	900.3251	1048.9645	1060.4947	1070.5924	1082.3982	1182.5338	1184.3651	1195.611	1223.2115	1227.4422	1242.0444	1261.0207	1328.6055	1412.9435	1473.6221	1478.4257	1485.554	1508.6375	1517.4997	1599.6004	1670.21	2960.0054	2974.9092	2999.8771	3056.1971	3137.2559	3294.0554	3299.13	3840.8549
COC1=COC=C1CO	COc1cocc1CO	
InChI=1S/C6H8O3/c1-8-6-4-9-3-5(6)2-7/h3-4,7H,2H2,1H3	InChI=1S/C6H8O3/c1-8-6-4-9-3-5(6)2-7/h3-4,7H,2H2,1H3
