16
gdb 69214	2.71974	1.68676	1.20258	2.2372	71.71	-0.2651	-0.0178	0.2473	1020.5447	0.125596	-434.103461	-434.095686	-434.094742	-434.135603	29.748	
C	-0.0431704496	 1.5319355839	 0.018858385	-0.470785
C	-0.0033976941	 0.0272404977	 0.0192237008	 0.258292
C	 0.6515423224	-0.7530628829	-1.068059249	-0.281829
N	 1.2812492812	-0.6709957728	 0.2725597757	-0.186968
C	 0.970330611	-1.8339162327	 1.0567410684	 0.416158
O	 1.7456770609	-2.6778114903	 1.4078175815	-0.34516
N	-0.3938699114	-1.8020767396	 1.3464619447	-0.378587
C	-1.0598315967	-0.7102460033	 0.7952320234	 0.349455
N	-2.2618795414	-0.3254851229	 0.9168045044	-0.541881
H	 0.7989893563	 1.9384982552	-0.5455386022	 0.129413
H	-0.9781804297	 1.8734954521	-0.432429618	 0.151052
H	 0.0001756511	 1.9204499827	 1.0401721148	 0.136218
H	 0.2255450941	-1.7058514749	-1.3699493417	 0.139567
H	 1.1871673156	-0.2178417418	-1.8455530496	 0.139946
H	-0.8304365067	-2.5308902523	 1.8898060272	 0.267299
H	-2.808544473	-0.9460950081	 1.5152482446	 0.217809
132.4256	144.397	173.6087	260.5474	306.4519	344.9271	416.6755	539.559	559.4173	600.8248	641.0557	701.8194	740.4443	790.7649	828.867	837.6135	868.5266	925.0804	968.6695	1036.1207	1075.4674	1107.3555	1125.6524	1134.1329	1170.3776	1287.7303	1349.7879	1362.8198	1398.3211	1418.3472	1480.1469	1493.1431	1508.0223	1767.3729	1881.1148	3052.4244	3119.0558	3124.3936	3137.2907	3212.8124	3469.3278	3637.2503
CC12CN1C(=O)NC2=N	C[C@@]12CN1C(=O)N[C]2[NH]	
InChI=1S/C5H7N3O/c1-5-2-8(5)4(9)7-3(5)6/h2H2,1H3,(H2,6,7,9)	InChI=1S/C5H7N3O/c1-5-2-8(5)4(9)7-3(5)6/h2H2,1H3,(H2,6,7,9)/t5-,8?/m0/s1
