16
gdb 49028	2.79552	1.71815	1.33429	2.441	68.49	-0.2415	-0.0491	0.1924	961.8885	0.123825	-437.803141	-437.795892	-437.794948	-437.83494	27.895	
O	-0.3993183398	 0.4971691988	 0.6999117874	-0.250003
C	 0.0649999851	 1.1864432476	-0.1736658547	 0.082521
C	 1.3540037485	 1.9357681323	-0.0392650014	 0.329809
O	 1.5282015169	 2.9869981464	-1.0149403768	-0.339882
C	 2.7879953944	 2.4202071136	-1.4747347971	-0.114473
C	 2.7375690526	 1.3345732596	-0.389996104	-0.06385
N	 3.2780547122	 1.6034200567	 0.996239512	-0.151354
C	 3.1117029436	 3.0354178147	 1.3260222444	-0.259732
C	 1.9133495323	 2.1899873808	 1.371043419	-0.068477
H	-0.4225981029	 1.3041604172	-1.1656173707	 0.092421
H	 2.6934618256	 2.0285027022	-2.494339162	 0.117655
H	 3.6141680782	 3.1376747222	-1.4368032071	 0.119875
H	 2.8956866187	 0.2949832686	-0.669078363	 0.11349
H	 3.5800128723	 3.2784475563	 2.2744676974	 0.133437
H	 3.2015412394	 3.8042466772	 0.5665638545	 0.138096
H	 1.3964708428	 1.8886648356	 2.2746850322	 0.120466
97.6431	162.355	216.9676	269.7519	339.1931	440.2821	463.5479	584.9911	635.5486	694.856	730.8401	781.2371	877.1481	892.3485	904.0722	942.5955	984.5549	1005.5981	1060.6595	1070.4195	1103.9136	1106.8338	1132.3831	1144.5224	1160.7213	1169.5232	1208.8809	1245.6607	1308.7354	1334.1292	1357.2057	1401.1019	1496.4862	1518.3053	1814.8932	2904.9223	3029.406	3080.5233	3134.1511	3138.7341	3187.6213	3219.8031
O=CC12OCC1N1CC21	O=C[C@]12OC[C@H]1N1C[C@@H]21	
InChI=1S/C6H7NO2/c8-3-6-4-1-7(4)5(6)2-9-6/h3-5H,1-2H2	InChI=1S/C6H7NO2/c8-3-6-4-1-7(4)5(6)2-9-6/h3-5H,1-2H2/t4-,5+,6+,7?/m0/s1
