19
gdb 84573	2.62516	1.89785	1.45479	1.185	78.84	-0.2403	0.0159	0.2562	956.3961	0.161282	-385.857375	-385.85008	-385.849136	-385.888749	29.945	
O	 0.0929030827	 1.4673704449	-0.1104805856	-0.426006
C	 0.0637126419	 0.0431361827	-0.0174782982	 0.061457
C	 0.6846351331	-0.4945339092	 1.2635573516	-0.10973
C	-0.1546674254	-1.2284056295	 1.9967394088	-0.079281
C	-1.5101180897	-1.3343865173	 1.3571088624	-0.067233
C	-2.6623170054	-0.4247260406	 1.8610101757	-0.070504
C	-2.2211205478	 1.0054406203	 1.9661050181	-0.275065
C	-2.517056292	 0.4488003801	 0.6054739689	-0.032444
C	-1.3960184305	-0.462103972	 0.0676706439	-0.049043
H	 1.013744858	 1.7388583374	-0.1776768032	 0.279391
H	 0.5698115202	-0.3836057332	-0.8986938849	 0.063917
H	 1.7158805966	-0.2745694728	 1.5270730876	 0.08509
H	 0.0899132076	-1.6823037758	 2.952067442	 0.093152
H	-1.8362394653	-2.3641701085	 1.1884251232	 0.073405
H	-3.5649993081	-0.7872345527	 2.3376798367	 0.078964
H	-2.9804776505	 1.6832316653	 2.3441426577	 0.104433
H	-1.2085246005	 1.2686590031	 2.2506821765	 0.11798
H	-3.2969974743	 0.8703226502	-0.0164426863	 0.081113
H	-1.7040587605	-0.9811657322	-0.8405660049	 0.070403
127.7993	200.2696	242.7476	263.3233	332.0726	455.4459	506.6269	565.5799	652.8251	735.1254	760.2036	776.8987	788.9567	807.3119	864.7375	909.959	927.6911	970.9992	981.5679	986.9143	1008.9384	1035.3506	1054.0861	1062.3278	1069.2431	1086.5059	1110.2591	1128.2641	1179.8235	1185.0285	1215.7185	1251.0162	1278.467	1296.0062	1322.5621	1338.8222	1362.6544	1378.7283	1416.1383	1494.8466	1670.8616	2956.3437	3067.5286	3099.5921	3129.0716	3158.5142	3176.0578	3186.0009	3188.3156	3212.0936	3818.4511
OC1C=CC2C3CC3C12	O[C@H]1C=C[C@H]2[C@H]3C[C@H]3[C@@H]12	
InChI=1S/C8H10O/c9-7-2-1-4-5-3-6(5)8(4)7/h1-2,4-9H,3H2	InChI=1S/C8H10O/c9-7-2-1-4-5-3-6(5)8(4)7/h1-2,4-9H,3H2/t4-,5+,6+,7-,8-/m0/s1
