20
gdb 55737	3.89041	1.11472	1.01481	1.223	80.96	-0.2568	0.03	0.2868	1257.1633	0.171165	-403.114184	-403.105726	-403.104782	-403.147736	32.423	
C	-0.024987861	 1.4296243801	-0.1784151806	-0.466131
C	-0.0220237852	-0.0483571647	 0.1193634203	 0.366283
N	-0.0585913704	-0.6279723544	 1.2475853711	-0.512286
O	 0.0279723623	-0.7438887958	-1.041716597	-0.297059
C	 0.0400771672	-2.1449673082	-0.9991718958	 0.466829
C	-1.0542358174	-3.1096071567	-0.464508685	-0.263656
C	 0.0618796674	-3.9928396649	-1.0986891306	-0.061053
C	 0.0966399363	-2.9867065038	-2.2896307757	-0.275156
C	 1.1099035851	-3.0884470982	-0.3833357745	-0.263655
H	 0.8749036542	 1.7019824246	-0.7383241546	 0.14701
H	-0.8845931514	 1.6851232586	-0.8054851511	 0.147003
H	-0.0655995931	 2.0146977462	 0.7416515789	 0.125124
H	-0.0931692694	 0.0613139433	 1.9954701909	 0.219137
H	-1.1703491153	-3.1550388088	 0.617648842	 0.114683
H	-2.0142540329	-3.0911924054	-0.9876510007	 0.086797
H	 0.0749865768	-5.0775800882	-1.1652517471	 0.081542
H	-0.7864119003	-2.9559838454	-2.9332730744	 0.091553
H	 1.0245934942	-2.9382609636	-2.8654301011	 0.091544
H	 2.1058692028	-3.0509105568	-0.8331072212	 0.086794
H	 1.1455082	-3.1323902877	 0.7045098961	 0.114697
72.6623	89.1581	124.7075	161.4943	344.6885	347.8281	374.824	541.0476	553.0992	558.701	575.3554	713.4201	782.2547	797.9832	855.4708	895.1428	913.0134	951.8281	961.1041	965.8851	968.2804	985.968	1038.9985	1068.027	1099.9088	1101.3222	1108.2972	1129.665	1137.0783	1174.2261	1178.1852	1223.3023	1230.8949	1237.9007	1278.9135	1373.9971	1414.5669	1471.1501	1481.8315	1498.6247	1499.1444	1558.0971	1726.9718	3048.2861	3052.1179	3061.5098	3067.3063	3112.0691	3120.2101	3143.2344	3148.5785	3149.8264	3154.3223	3510.3387
CC(=N)OC12CC(C1)C2	C[C]([NH])O[C@@]12C[C@@H](C1)C2	
InChI=1S/C7H11NO/c1-5(8)9-7-2-6(3-7)4-7/h6,8H,2-4H2,1H3	InChI=1S/C7H11NO/c1-5(8)9-7-2-6(3-7)4-7/h6,8H,2-4H2,1H3/t6-,7-
