17
gdb 68434	2.70485	1.63982	1.27559	1.3942	73.74	-0.2496	0.0255	0.2752	1010.8677	0.13506	-421.761095	-421.753198	-421.752254	-421.793153	31.414	
O	-0.1093338993	 1.3909546899	-0.015240184	-0.473558
C	-0.052071183	 0.0099073587	 0.0284845283	 0.367277
C	 0.3785571744	-0.8352739711	 1.2781015577	-0.304382
C	-0.3721149599	-1.917346296	 0.4709739726	 0.101064
C	-1.3643439964	-0.8160773212	 0.0265458438	-0.275452
O	 0.4674213124	-2.1087656511	-0.6896402245	-0.278422
C	 0.7513908555	-0.7448762934	-1.077104484	-0.157786
C	 0.3412808	-0.4576651956	-2.4437750549	 0.344347
C	 0.0193866354	-0.1975032996	-3.5720356854	-0.430208
H	 0.7850599762	 1.742832931	-0.0868791393	 0.28624
H	 1.4425968967	-0.9985961515	 1.4670696798	 0.097684
H	-0.1445449905	-0.5164988391	 2.1807922618	 0.109183
H	-0.6694890141	-2.8839013905	 0.8688921213	 0.090158
H	-2.0438611399	-0.5012796873	 0.8195494819	 0.110365
H	-1.8858138668	-0.9523580565	-0.9217914337	 0.119252
H	 1.8303241174	-0.557640659	-0.9741128222	 0.095589
H	-0.2701251081	 0.0263689423	-4.5691124795	 0.198649
121.8874	133.8354	219.2227	293.953	335.	390.8102	442.0015	478.2959	519.0557	573.6264	625.0285	629.7932	663.868	697.7152	824.4273	856.6272	912.5371	922.8516	936.6133	959.3153	989.6107	1005.464	1040.6549	1071.3422	1120.4277	1143.8674	1179.4138	1226.8685	1233.9271	1248.5461	1300.3158	1315.3147	1361.6683	1387.801	1471.5168	1512.728	2236.9698	2992.4706	3066.7717	3085.2836	3140.3455	3154.1957	3160.4246	3502.4092	3799.772
OC12CC(C1)OC2C#C	O[C@@]12C[C@@H](C1)O[C@H]2C#C	
InChI=1S/C7H8O2/c1-2-6-7(8)3-5(4-7)9-6/h1,5-6,8H,3-4H2	InChI=1S/C7H8O2/c1-2-6-7(8)3-5(4-7)9-6/h1,5-6,8H,3-4H2/t5-,6-,7-/m0/s1
