19
gdb 38637	2.89726	2.08777	1.80557	1.5611	77.25	-0.2298	0.0095	0.2393	854.7923	0.164349	-385.910235	-385.904305	-385.903361	-385.940064	26.402	
C	-0.0331733364	 1.5725463311	 0.0680067468	-0.229825
C	 1.4727932431	 1.9065244491	-0.0189799291	 0.112331
C	 2.0827311791	 0.863174169	 0.9255445798	-0.2353
C	 1.5109412323	-0.2984120048	 0.1120403014	-0.057147
C	-0.0200010864	 0.000722334	-0.0248199765	-0.063177
C	-0.3215349047	-0.4649731687	-1.4358431275	-0.079454
C	 0.7814978876	-0.4258568851	-2.1815767302	-0.080488
C	 1.9408374076	 0.0599949412	-1.3333806485	 0.077014
O	 1.991407036	 1.515551882	-1.3028437914	-0.300371
H	-0.4411612166	 1.9204821482	 1.0229812627	 0.093028
H	-0.6065487323	 2.0326516427	-0.7393120734	 0.105084
H	 1.7315231624	 2.9540342177	 0.1429992799	 0.069707
H	 3.1752145028	 0.8945529986	 0.9402766716	 0.101233
H	 1.6969631335	 0.9180400633	 1.9474766291	 0.094301
H	 1.7513674195	-1.3174616818	 0.414193874	 0.068506
H	-0.6406275126	-0.4658236543	 0.7434754497	 0.064275
H	-1.321038763	-0.7077261193	-1.779440211	 0.096074
H	 0.8579208597	-0.6290508925	-3.2425098982	 0.096884
H	 2.9249976083	-0.3036959905	-1.643780309	 0.067323
256.5064	306.9918	430.0953	439.4288	520.1258	577.5527	616.2839	753.4672	778.8272	795.4755	812.8164	837.8596	866.3472	876.8729	928.8026	935.1742	960.7865	963.0099	966.7219	980.4872	990.964	1010.0699	1033.3498	1078.0803	1118.8141	1131.0307	1175.8755	1191.5081	1213.8093	1269.4735	1276.4851	1284.9788	1309.3035	1319.1235	1328.6392	1338.2825	1358.5112	1361.8418	1476.1098	1493.8641	1671.4599	3046.2835	3058.8934	3060.8225	3078.4502	3106.6139	3111.5107	3115.5828	3122.5677	3186.8083	3218.1141
C1C2CC3C1C=CC3O2	C1[C@H]2C[C@H]3[C@@H]1C=C[C@H]3O2	
InChI=1S/C8H10O/c1-2-8-7-4-6(9-8)3-5(1)7/h1-2,5-8H,3-4H2	InChI=1S/C8H10O/c1-2-8-7-4-6(9-8)3-5(1)7/h1-2,5-8H,3-4H2/t5-,6+,7+,8-/m1/s1
