21
gdb 104062	2.8089	1.3429	1.20764	2.2333	78.07	-0.2368	0.0771	0.3138	1149.8937	0.181407	-424.181818	-424.172883	-424.171939	-424.215305	34.101	
C	-0.1625956077	 1.4902797943	-0.042824462	-0.250789
O	-0.3249014295	 0.099672156	-0.2196983594	-0.281703
C	 0.5615539315	-0.5152685382	-1.133133352	 0.420896
C	 0.3516484607	-0.0252853559	-2.5650924923	-0.455789
C	 2.078132464	-0.5700973136	-0.7125649175	-0.308326
C	 1.9989942584	-2.1149136394	-0.698584901	 0.120871
O	 1.7445513397	-2.6422702075	 0.6158832479	-0.293272
C	 0.3111643529	-2.63013068	 0.3891479693	-0.091749
C	 0.4807895899	-2.06367895	-1.029628282	-0.134954
H	 0.8748741197	 1.7549018464	 0.2077754763	 0.109837
H	-0.4624952341	 2.0654369173	-0.9298158026	 0.108706
H	-0.8069238518	 1.7797584615	 0.790949155	 0.128303
H	 0.6533672283	 1.020121021	-2.6845492861	 0.117321
H	 0.9488680654	-0.6196319616	-3.2635803144	 0.119402
H	-0.7024171959	-0.1202076012	-2.8457191402	 0.122559
H	 2.76540041	-0.1375114003	-1.44455596	 0.095624
H	 2.2948916434	-0.1654966875	 0.2780302198	 0.113876
H	 2.7539347356	-2.6862686397	-1.2441934569	 0.073205
H	-0.100348342	-3.6459533352	 0.4231752042	 0.09699
H	-0.2217996716	-1.9900449186	 1.0979489611	 0.118765
H	-0.005825357	-2.5917746975	-1.8490946472	 0.070228
79.7636	114.3445	186.8917	200.2802	261.2033	275.5499	314.6444	353.9184	426.774	435.8702	504.1173	621.8036	741.2904	779.42	833.2295	883.2581	918.5514	920.9713	927.7217	983.2543	1005.9216	1014.6478	1062.3717	1096.46	1115.3228	1146.918	1169.1708	1178.3766	1181.5328	1189.3072	1221.2091	1245.2143	1250.4079	1258.4796	1306.8637	1333.8411	1360.6336	1404.4296	1452.6844	1475.4361	1485.3918	1489.9632	1505.1696	1511.3449	1519.8408	2991.4201	3025.0919	3032.8138	3042.9363	3057.9778	3076.8251	3090.6533	3104.7131	3109.3558	3112.9578	3114.1408	3125.6485
COC1(C)CC2OCC12	CO[C@@]1(C)C[C@H]2OC[C@@H]12	
InChI=1S/C7H12O2/c1-7(8-2)3-6-5(7)4-9-6/h5-6H,3-4H2,1-2H3	InChI=1S/C7H12O2/c1-7(8-2)3-6-5(7)4-9-6/h5-6H,3-4H2,1-2H3/t5-,6-,7+/m1/s1
