14
gdb 25851	4.03496	1.2799	0.97168	1.5655	70.35	-0.2546	-0.0688	0.1859	1117.6492	0.104014	-432.958657	-432.951363	-432.950419	-432.990731	27.123	
N	-0.0852474212	 1.3177535587	 0.0078668696	-0.535823
C	 0.0581104744	-0.0267813737	 0.0023894827	 0.35454
O	 1.121842603	-0.6200317507	-0.0081500583	-0.358624
C	-1.2572429181	-0.7776233157	 0.0103082062	 0.237484
N	-2.3947977657	-0.0723706467	 0.0211494531	-0.32597
C	-3.5264146685	-0.7766659106	 0.0277685374	 0.070272
N	-3.6414976485	-2.1050270409	 0.0247233153	-0.247175
C	-2.4939231012	-2.7902504203	 0.0138993362	 0.02138
C	-1.2521817052	-2.1672830209	 0.0061838423	-0.159487
H	 0.7342169466	 1.9001968508	 0.0018422039	 0.266404
H	-1.0110984527	 1.714539388	 0.0151297052	 0.27651
H	-4.4528300027	-0.2076715388	 0.0365189085	 0.126635
H	-2.5775573442	-3.8744063777	 0.0113487644	 0.129308
H	-0.3144042559	-2.7068433215	-0.0026455964	 0.144547
80.1438	154.3619	216.5233	305.8228	373.927	377.3349	468.7437	494.6178	610.3196	638.2414	690.0652	734.5462	786.7906	835.3125	908.3645	996.4369	1013.2226	1033.428	1078.5106	1099.2938	1177.7966	1201.2972	1252.433	1323.922	1381.8054	1424.7775	1497.9885	1586.1027	1600.2995	1621.2462	1796.3782	3162.2968	3169.0513	3232.477	3593.7331	3739.3908
NC(=O)C1=NC=NC=C1	NC(=O)c1ncncc1	
InChI=1S/C5H5N3O/c6-5(9)4-1-2-7-3-8-4/h1-3H,(H2,6,9)	InChI=1S/C5H5N3O/c6-5(9)4-1-2-7-3-8-4/h1-3H,(H2,6,9)
