20
gdb 65252	3.0331	1.39667	1.17615	1.8704	80.11	-0.2264	0.0205	0.2469	1127.2782	0.171379	-403.123519	-403.115039	-403.114095	-403.1567	32.545	
C	 0.1558497935	 1.5214718526	-0.3327711199	-0.480127
C	-0.0501619436	 0.0509829005	-0.0344475576	 0.311959
C	 1.0412540797	-0.9087860185	-0.3351866298	-0.276646
N	 0.7021749461	-0.5717729845	 1.0642415845	-0.344534
C	-1.5061748874	-0.4231453466	-0.142760145	 0.026472
O	-1.603521063	-1.8411848167	-0.0406818877	-0.27254
C	-2.2596573566	-2.2070634394	 1.1719443872	-0.110092
C	-2.7947394447	-0.9166622416	 1.724508282	-0.091164
C	-2.3844808167	 0.0948941477	 0.9706199472	-0.082848
H	 1.2198087267	 1.7781904741	-0.3148449103	 0.115081
H	-0.2328569753	 1.7841398921	-1.3234038766	 0.124143
H	-0.3540824087	 2.1554428071	 0.4018384286	 0.122034
H	 0.7921187821	-1.9249365603	-0.6192993248	 0.132198
H	 1.9620153167	-0.5145902903	-0.7590835684	 0.100253
H	 1.3807847077	 0.0884270639	 1.4367605375	 0.222574
H	-1.8789627639	-0.1251767054	-1.1365845367	 0.078227
H	-3.0500975523	-2.9364346328	 0.9419807835	 0.101628
H	-1.5501847569	-2.6857535648	 1.8634351594	 0.116391
H	-3.4074848098	-0.861290877	 2.6153090859	 0.103897
H	-2.5976164536	 1.1453778301	 1.118967461	 0.103094
75.4314	99.0271	199.572	211.4559	261.5341	333.7103	350.4262	395.593	462.0474	523.1279	686.9886	756.3092	786.6288	818.9197	856.7987	895.1586	936.452	939.8544	954.8104	957.6164	973.9586	1001.6113	1019.6138	1045.2309	1062.8549	1118.9179	1120.5379	1132.1886	1152.9007	1203.2386	1267.7367	1292.439	1303.7494	1352.5995	1367.9184	1376.1041	1391.4203	1416.9958	1486.7355	1498.0368	1505.8387	1513.6963	1692.7249	2964.8958	2989.0144	3012.865	3024.4777	3085.6548	3098.7863	3110.5632	3207.2291	3212.1089	3232.2941	3490.1761
CC1(CN1)C1OCC=C1	C[C@]1(CN1)[C@H]1OCC=C1	
InChI=1S/C7H11NO/c1-7(5-8-7)6-3-2-4-9-6/h2-3,6,8H,4-5H2,1H3	InChI=1S/C7H11NO/c1-7(5-8-7)6-3-2-4-9-6/h2-3,6,8H,4-5H2,1H3/t6-,7-/m0/s1
