20
gdb 95790	2.16332	1.72472	1.01059	4.1193	76.21	-0.2423	0.0182	0.2605	1185.8571	0.172657	-440.335491	-440.326705	-440.325761	-440.368928	33.177	
C	-0.0451511784	 1.4590175661	-0.0044829467	-0.345909
N	 0.0446626952	 0.0108839408	 0.1068273832	-0.101615
C	-1.2345104078	-0.7013053473	 0.0798718166	-0.138761
C	-1.1116249914	-2.1960987773	 0.3748835561	-0.235735
C	 0.0561539734	-2.808308077	-0.3980375349	-0.224073
C	 1.3359799983	-2.116947153	 0.0581726986	 0.059806
O	 2.4556646287	-2.5765951016	-0.6495575879	-0.44436
C	 1.2538065783	-0.5879243254	-0.078983482	 0.387805
O	 2.2866811192	 0.0316271526	-0.3081367707	-0.412438
H	 0.9617163222	 1.8718750846	 0.0168766757	 0.169419
H	-0.531580818	 1.7530284008	-0.9441911724	 0.124186
H	-0.6329209471	 1.8624220616	 0.8274261575	 0.123704
H	-1.9027219169	-0.2246317677	 0.8074308253	 0.110987
H	-1.695886643	-0.5542073507	-0.9098220248	 0.110088
H	-0.9574713662	-2.3482094642	 1.4502060679	 0.111822
H	-2.05940732	-2.6789949007	 0.1188668433	 0.109321
H	 0.1337693128	-3.8852769546	-0.2225701693	 0.111518
H	-0.06778223	-2.6630454008	-1.4781674069	 0.108005
H	 1.4582753915	-2.3088425788	 1.1417359246	 0.084996
H	 3.0293178993	-1.7966586274	-0.7282610432	 0.291232
93.5024	111.9375	143.9698	220.8205	282.7023	302.3545	378.6256	389.6276	430.3376	449.7295	516.0251	560.4393	582.2066	686.9561	786.8545	893.7756	915.5686	927.5804	937.1763	1060.0504	1070.2687	1118.0688	1124.4885	1147.1842	1171.2693	1193.9123	1222.8672	1257.2803	1289.4867	1305.4864	1333.9044	1351.829	1382.4063	1392.6023	1433.5938	1449.3878	1473.5372	1489.6873	1494.8373	1499.7739	1509.5058	1545.7491	1739.4996	2913.8533	2976.4047	3015.076	3029.9502	3038.5931	3046.0747	3071.3288	3087.4444	3091.5514	3171.9549	3678.5863
CN1CCCC(O)C1=O	CN1CCC[C@@H](O)C1=O	
InChI=1S/C6H11NO2/c1-7-4-2-3-5(8)6(7)9/h5,8H,2-4H2,1H3	InChI=1S/C6H11NO2/c1-7-4-2-3-5(8)6(7)9/h5,8H,2-4H2,1H3/t5-/m1/s1
