15
gdb 34275	3.75622	1.55163	1.25389	4.2417	77.66	-0.2363	-0.0617	0.1746	962.5214	0.113275	-379.555585	-379.548755	-379.547811	-379.586597	27.078	
N	 0.0739846715	-1.0765563752	 0.2369180919	-0.332182
C	 0.0219337392	 0.0618493424	 0.0399160032	 0.252412
C	-0.1269518134	 1.4752314031	-0.179227838	 0.177756
C	-1.3885650276	 2.1941692868	 0.3668437579	-0.320967
C	-1.0717078973	 3.6049521114	-0.0892066911	-0.114503
C	-0.080528152	 3.5722010651	-1.0073206344	 0.010371
C	 1.3310563566	 3.663925648	-0.4164691159	-0.17206
N	 1.2936113478	 2.1263746149	-0.4044486727	-0.163992
C	 0.2428545448	 2.1407070718	-1.4433557617	-0.11005
H	-2.2765123683	 1.6882541088	-0.0354068825	 0.141914
H	-1.4753837982	 2.178060528	 1.4578974561	 0.139998
H	-1.147241111	 4.4209670212	 0.6237438224	 0.111238
H	 2.153679648	 3.9194739711	-1.090453799	 0.133692
H	 1.4464986517	 4.160366288	 0.5493814763	 0.126014
H	 0.3638652182	 1.7083071347	-2.4295784625	 0.120359
153.3766	161.5932	271.1526	383.0679	411.5588	478.7934	520.134	552.7047	578.4655	679.5846	733.2124	795.2905	815.8448	864.8754	922.3331	929.3697	956.3435	1006.0627	1032.4891	1057.9965	1067.8682	1108.2067	1156.2341	1171.7131	1196.1683	1257.5848	1262.3432	1306.024	1343.6205	1467.6717	1506.6609	1579.5554	2354.7276	3020.1509	3055.8599	3083.9838	3126.6512	3166.7059	3185.8015
N#CC12CC=C3CN1C23	N#C[C@@]12C[CH][C]3CN1[C@@H]23	
InChI=1S/C7H6N2/c8-4-7-2-1-5-3-9(7)6(5)7/h1,6H,2-3H2	InChI=1S/C7H6N2/c8-4-7-2-1-5-3-9(7)6(5)7/h1,6H,2-3H2/t6-,7-,9?/m1/s1
