23
gdb 105110	2.90204	1.05028	0.95017	1.4275	85.99	-0.2489	0.0748	0.3237	1373.985	0.205951	-388.259344	-388.249813	-388.248869	-388.294038	36.281	
O	-0.1369293478	 1.5743271584	-0.0694647649	-0.422228
C	-0.022740459	 0.1591786524	-0.14487984	-0.169325
C	-1.4007769081	-0.4678843044	-0.0197469016	 0.355873
C	-2.402841892	 0.2166563919	 0.8817543668	-0.305559
C	-2.568880939	 0.2824610913	-0.6180173547	-0.305581
C	-1.4520731766	-1.9796195048	-0.0803082618	-0.019593
C	-0.8421221045	-2.7773374233	-1.2741133485	-0.240288
C	-0.4796743308	-3.9056785838	-0.2717477983	-0.20873
C	-0.6049057371	-2.8715787078	 0.8790009572	-0.240261
H	 0.7441460742	 1.948332543	-0.1521490185	 0.289249
H	 0.4339280368	-0.1381875707	-1.1024173446	 0.087037
H	 0.6295502918	-0.2162898598	 0.6597383168	 0.087032
H	-3.0808702921	-0.4101235752	 1.451788015	 0.099769
H	-2.0880693058	 1.1243670238	 1.3818082395	 0.124378
H	-2.3621065382	 1.2330084169	-1.0942399846	 0.124325
H	-3.3610240812	-0.2990276238	-1.0783351532	 0.099768
H	-2.5020673435	-2.277833719	 0.0223299371	 0.065132
H	-1.5009575508	-3.0184266563	-2.1120409824	 0.094085
H	 0.0578064559	-2.2981663488	-1.6707322444	 0.098263
H	-1.2653471417	-4.6650702643	-0.2184246523	 0.100711
H	 0.4808186904	-4.4101868195	-0.3996485605	 0.093577
H	 0.3642116754	-2.4198948657	 1.1104654032	 0.098276
H	-1.0682011863	-3.1903584406	 1.8160417346	 0.094087
48.0809	109.3377	126.8578	187.2018	230.7402	231.7418	284.9798	334.2874	357.1508	474.9888	515.6343	607.5591	711.523	783.3122	785.9482	818.8159	863.885	898.5748	928.0746	932.5688	959.2304	964.4874	984.428	1043.1119	1044.682	1058.8665	1079.1199	1083.4171	1109.2533	1129.7964	1193.7379	1201.0181	1211.4802	1239.2305	1251.0128	1262.3661	1269.4043	1286.9412	1292.5287	1309.5225	1324.2972	1412.2815	1457.2487	1465.8264	1477.3063	1487.7766	1499.9838	1511.2077	1522.5834	2963.0731	2989.0051	3029.6751	3053.6782	3054.6071	3060.662	3096.349	3104.3804	3118.5931	3132.5275	3136.1817	3221.4894	3234.0918	3844.1353
OCC1(CC1)C1CCC1	OCC1(CC1)C1CCC1	
InChI=1S/C8H14O/c9-6-8(4-5-8)7-2-1-3-7/h7,9H,1-6H2	InChI=1S/C8H14O/c9-6-8(4-5-8)7-2-1-3-7/h7,9H,1-6H2
