19
gdb 30454	3.29907	1.26602	0.93091	3.439	82.	-0.1775	0.0383	0.2158	1279.8131	0.157615	-419.233496	-419.223314	-419.22237	-419.270805	34.695	
C	-0.0287525461	 1.3927894411	 0.0111814305	-0.314523
N	 0.0067369799	-0.0587567966	 0.0162893441	-0.399171
C	 0.5676119483	-0.6395214193	-0.9581286079	 0.509727
O	 1.1625819675	-0.0424355815	-2.0485422429	-0.228557
C	 1.648739166	-1.0491970875	-2.8687514268	-0.154288
C	 1.3815198816	-2.2482456869	-2.335301563	 0.281718
C	 1.6920797935	-3.6179193747	-2.8252260464	-0.497846
N	 0.7026219135	-2.0064408374	-1.1352651938	-0.175171
C	 0.1999365261	-2.9765111336	-0.189963697	-0.348212
H	 0.9762745493	 1.8396633503	 0.0026379262	 0.108749
H	-0.5665047088	 1.7988270252	-0.858195089	 0.108748
H	-0.5410439189	 1.7393496636	 0.9127735582	 0.111379
H	 2.1463962981	-0.7439147842	-3.7716592856	 0.143273
H	 2.2243282908	-3.560955376	-3.7771645785	 0.141029
H	 2.3220750141	-4.1691092594	-2.1173448751	 0.138955
H	 0.7822654859	-4.2094158779	-2.9807250305	 0.138967
H	 1.0076741851	-3.5901790225	 0.2245773958	 0.128269
H	-0.2713588397	-2.4144078482	 0.6174070528	 0.178688
H	-0.5442620261	-3.6368573846	-0.6491628011	 0.128264
15.8534	37.0473	114.9172	118.5828	184.0936	186.7217	251.2771	257.891	318.7841	339.8278	551.574	588.2899	608.7264	661.5299	722.9037	729.3214	772.7904	934.6285	1016.6667	1066.7605	1075.8369	1088.5544	1122.477	1124.149	1155.9004	1179.6117	1206.1841	1274.4381	1362.6941	1412.6804	1428.9045	1447.5749	1464.3071	1474.0493	1490.6878	1498.0312	1498.7075	1499.9751	1512.2395	1713.6388	1791.8926	2982.5741	3022.3908	3025.0296	3029.0986	3074.4756	3078.5974	3093.2257	3128.6322	3149.5235	3300.7631
CN=C1OC=C(C)N1C	CN=c1occ(C)n1C	
InChI=1S/C6H10N2O/c1-5-4-9-6(7-2)8(5)3/h4H,1-3H3	InChI=1S/C6H10N2O/c1-5-4-9-6(7-2)8(5)3/h4H,1-3H3
