16
gdb 28483	3.03937	1.39613	0.96244	1.7256	76.05	-0.2067	-0.0175	0.1893	1162.2224	0.124794	-437.964416	-437.956251	-437.955307	-437.996906	31.21	
C	 0.0630042395	 1.4698430569	-0.0187984915	-0.520855
C	 0.0617601999	-0.0369090941	 0.0171806439	 0.213315
N	 0.0513497134	-0.6837323	-1.1589797345	-0.410827
C	 0.0499038386	-2.0081718499	-1.16857395	 0.418233
O	 0.039262954	-2.6261322847	-2.3747200318	-0.427193
C	 0.0586929413	-2.7877255474	-0.0086817747	-0.212346
C	 0.0694779047	-2.1268363939	 1.2061294938	-0.134718
C	 0.0711428743	-0.7315265825	 1.2295699344	 0.290152
O	 0.0818969571	-0.1101845303	 2.4481925592	-0.443842
H	 0.9536844953	 1.8913301654	 0.4663638494	 0.131108
H	 0.0534246906	 1.8065113114	-1.0559555679	 0.1492
H	-0.8172833428	 1.8931997085	 0.4833903332	 0.131067
H	 0.0345295881	-1.9181800614	-3.032654518	 0.293676
H	 0.0569812305	-3.8682189068	-0.0771295986	 0.110823
H	 0.0767169029	-2.6683906665	 2.145554598	 0.114574
H	 0.0826030724	 0.8429088451	 2.3184647852	 0.297632
115.0593	142.7439	215.6506	275.4626	288.5808	343.0567	377.0729	466.618	487.9023	502.7526	509.5423	588.526	632.4435	734.0702	774.4873	788.0708	856.6529	960.4683	969.8709	1010.3415	1052.3323	1119.9401	1169.9339	1198.9372	1245.8594	1324.9705	1342.3839	1371.744	1400.1294	1472.5813	1488.2323	1502.0033	1512.495	1650.5694	1652.3475	3008.9888	3055.0367	3143.9041	3195.1188	3215.9843	3778.8957	3836.6219
CC1=NC(O)=CC=C1O	Cc1nc(O)ccc1O	
InChI=1S/C6H7NO2/c1-4-5(8)2-3-6(9)7-4/h2-3,8H,1H3,(H,7,9)	InChI=1S/C6H7NO2/c1-4-5(8)2-3-6(9)7-4/h2-3,8H,1H3,(H,7,9)
