23
gdb 62828	2.45161	1.74279	1.44782	0.2206	90.89	-0.2275	0.082	0.3095	1060.3504	0.20614	-351.03301	-351.02476	-351.023816	-351.064887	34.725	
C	-0.1065734815	 1.4919064491	 0.0041907395	-0.474181
C	 0.0367838028	-0.038003617	-0.004998271	 0.361886
C	-1.3005598005	-0.597202707	-0.5173049411	-0.476669
C	 1.3104965566	-0.7016878726	-0.5990124819	-0.121454
C	 2.1477228873	-0.077657379	 0.6007148294	-0.326235
C	 0.8432617884	-0.6796120839	 1.2179875475	 0.252691
C	 0.137505719	-1.5025570545	 2.317453291	-0.330951
C	-0.0554633758	-2.6263031625	 1.2140978027	-0.270924
C	 1.1025559534	-1.9292919777	 0.3821633675	-0.021216
H	 0.6903711314	 2.0221450441	 0.5258132565	 0.114031
H	-0.1540823237	 1.8813097425	-1.0198706289	 0.112712
H	-1.0484325408	 1.7671799438	 0.4926183562	 0.112108
H	-1.6565125449	 0.0398535813	-1.3350800177	 0.107076
H	-1.2274809484	-1.6096013857	-0.9134666198	 0.124238
H	-2.0771072702	-0.5775488218	 0.2565564714	 0.112884
H	 1.6158793645	-0.70055715	-1.6519853153	 0.060459
H	 3.0645638617	-0.6118871307	 0.8599086296	 0.093809
H	 2.3230836032	 0.9982888264	 0.5827077221	 0.092207
H	 0.8140696836	-1.8300289709	 3.1123067947	 0.106979
H	-0.7620087008	-1.0769355334	 2.7725187445	 0.096882
H	 0.2166983302	-3.635602582	 1.5317350328	 0.097857
H	-1.0588392559	-2.6592522842	 0.7986486618	 0.11084
H	 2.0437903104	-2.4415440042	 0.6012934883	 0.064968
162.4303	175.7667	209.3262	259.1332	344.9399	357.0149	400.7984	443.8703	462.5988	534.3594	609.7838	632.8146	695.2429	705.0409	781.7259	801.7471	831.0212	871.1965	896.2135	954.4354	964.3875	980.2246	1001.8894	1012.0964	1015.7399	1038.6846	1090.3198	1100.1902	1118.7148	1159.1439	1168.233	1175.9813	1194.2306	1211.5756	1221.9096	1227.7672	1234.4419	1265.9874	1293.8488	1382.0503	1403.6834	1419.7785	1470.1911	1481.1662	1486.2902	1494.8129	1506.8092	1525.9475	1535.7521	3025.5465	3030.9362	3034.2278	3045.9287	3049.8958	3072.1627	3077.0811	3080.5324	3081.0409	3100.3214	3125.0259	3139.0343	3141.9133	3169.884
CC1(C)C2CC11CCC21	CC1(C)[C@H]2C[C@]31CC[C@@H]23	
InChI=1S/C9H14/c1-8(2)7-5-9(8)4-3-6(7)9/h6-7H,3-5H2,1-2H3	InChI=1S/C9H14/c1-8(2)7-5-9(8)4-3-6(7)9/h6-7H,3-5H2,1-2H3/t6-,7-,9+/m0/s1
