20
gdb 63239	2.25485	1.69249	1.2283	3.3958	81.53	-0.2382	0.0149	0.2531	1103.9771	0.171571	-403.204072	-403.195033	-403.194089	-403.237873	34.33	
C	-0.2482761221	 1.5629662655	 0.0665808091	-0.40458
C	 0.0131042737	 0.0406116191	-0.0120487472	 0.080266
C	-1.3415600706	-0.7057072926	-0.0138165274	-0.404582
C	 0.7769003058	-0.2829595058	-1.269908687	-0.051289
C	 1.9723138247	-0.8585960468	-1.3045855806	-0.091249
C	 2.7219855124	-1.2639933167	-0.0757829327	-0.203592
N	 1.9887404739	-0.9515669325	 1.1349450728	-0.342761
C	 0.7637044023	-0.3665125604	 1.2663927867	 0.413199
O	 0.2787011593	-0.169776797	 2.3684719298	-0.39998
H	 0.6896375604	 2.1265675318	 0.0538483099	 0.115886
H	-0.8514472517	 1.88815255	-0.7875345918	 0.10732
H	-0.7820994464	 1.799032996	 0.9895216899	 0.142089
H	-1.9479562914	-0.3875504024	-0.8682949167	 0.107343
H	-1.1968391133	-1.7880754682	-0.0846928137	 0.11586
H	-1.884487834	-0.4881636031	 0.9083683048	 0.142054
H	 0.2828221537	-0.0112597591	-2.2012042087	 0.091463
H	 2.4673809776	-1.0638469133	-2.2490041974	 0.097764
H	 2.9390649367	-2.3434229824	-0.1150624297	 0.119965
H	 3.7031602053	-0.7631806407	-0.059896061	 0.120003
H	 2.4134439838	-1.1872430513	 2.0207358409	 0.244818
44.5858	116.336	214.9172	244.8526	261.8905	265.623	301.569	327.9599	476.2226	486.6873	507.5217	555.1951	604.3516	665.0606	747.3016	764.4353	828.2165	908.4419	934.36	949.6868	974.9821	1007.3294	1027.92	1030.353	1099.767	1153.4149	1179.6256	1220.2062	1244.1891	1270.4568	1354.0829	1383.4761	1392.019	1396.8124	1435.8787	1478.3518	1489.9863	1490.0525	1497.6664	1512.4951	1526.9301	1745.8496	1772.2084	2972.1225	2981.9908	3034.7377	3038.2616	3102.8488	3105.6259	3131.7848	3135.2626	3138.0821	3178.2647	3602.7901
CC1(C)C=CCNC1=O	CC1(C)C=CCNC1=O	
InChI=1S/C7H11NO/c1-7(2)4-3-5-8-6(7)9/h3-4H,5H2,1-2H3,(H,8,9)	InChI=1S/C7H11NO/c1-7(2)4-3-5-8-6(7)9/h3-4H,5H2,1-2H3,(H,8,9)
