22
gdb 87957	3.77908	1.0008	0.9026	1.5525	92.06	-0.2114	0.0232	0.2347	1411.2939	0.194307	-367.21859	-367.209237	-367.208292	-367.252708	35.555	
C	-0.0675163868	 1.5373057426	-0.0670842788	-0.396103
C	-0.0236559139	 0.033674155	 0.0613038029	-0.055688
N	 1.2761533515	-0.6177190624	-0.181152947	-0.382487
C	 0.6736261444	-0.6667986072	 1.1757942247	 0.343759
C	 1.4068125802	 0.0327370934	 2.3296523507	-0.299477
C	 1.5161933121	-1.0382570691	 3.4473426794	-0.313947
C	 0.6300333652	-2.1742106306	 2.9750852757	 0.313618
C	 0.3632867053	-3.365794344	 3.8377916159	-0.487427
C	 0.1807678656	-1.9494072958	 1.7367686913	-0.253309
H	 0.8468899419	 1.988741034	 0.3254333512	 0.126297
H	-0.1629717754	 1.8334898367	-1.1174243622	 0.117496
H	-0.9222383761	 1.9519045286	 0.4790033824	 0.112783
H	-0.9056766034	-0.4747568085	-0.3302241631	 0.073033
H	 1.1459506208	-1.5112569077	-0.6513404294	 0.221654
H	 2.3794096386	 0.4047187361	 2.0019504312	 0.114779
H	 0.8281570836	 0.8924341286	 2.6823486993	 0.103709
H	 2.5471787298	-1.3909769827	 3.5889057456	 0.106498
H	 1.1957034102	-0.6525434887	 4.4231154907	 0.101166
H	-0.1262529772	-3.0745756275	 4.7762008023	 0.125047
H	-0.2744072905	-4.0981133121	 3.3351610296	 0.121688
H	 1.2990522143	-3.8654766595	 4.120749868	 0.125574
H	-0.4564348301	-2.6221022591	 1.1698703997	 0.081337
62.8708	120.0637	165.407	182.8985	186.7053	273.5989	282.6952	393.8255	414.9133	449.257	509.1492	539.409	591.9754	736.9179	820.3158	832.5359	862.7353	877.9038	893.2598	958.552	981.2058	1011.2445	1014.7256	1036.9572	1046.9417	1081.405	1088.5968	1123.8228	1175.5325	1183.6869	1231.2935	1246.7825	1262.958	1291.3836	1325.2801	1334.7324	1370.4128	1407.0204	1413.5743	1462.4775	1477.8391	1479.3374	1487.9931	1488.6867	1499.6747	1500.0812	1717.0724	3009.7731	3015.3209	3032.3046	3038.7419	3057.112	3058.5218	3092.0513	3092.8054	3108.6736	3112.2048	3125.1223	3171.2422	3481.4507
CC1NC11CCC(C)=C1	C[C@H]1N[C@]21CCC(=C2)C	
InChI=1S/C8H13N/c1-6-3-4-8(5-6)7(2)9-8/h5,7,9H,3-4H2,1-2H3	InChI=1S/C8H13N/c1-6-3-4-8(5-6)7(2)9-8/h5,7,9H,3-4H2,1-2H3/t7-,8-/m1/s1
