22
gdb 110542	3.31424	1.30222	1.25173	1.7792	83.76	-0.2323	0.0862	0.3185	1143.0543	0.197824	-367.215748	-367.208144	-367.2072	-367.247815	31.069	
C	 0.9979379883	-0.1016012336	 1.2736099005	-0.384444
C	 0.0639433862	 0.0719004327	 0.0697502925	-0.207447
C	 0.6485446541	-0.4898833308	-1.2309620601	 0.040155
C	 0.7308338084	-2.0151968202	-1.3182665695	-0.040707
C	-0.5141036609	-2.5061632523	-1.9773845348	-0.029738
C	-1.3725311192	-1.2918433621	-2.3101999664	-0.238156
C	-0.1951596715	-0.3138310734	-2.5227122088	-0.086382
C	 0.6538895259	-1.1458118375	-3.501346733	-0.16173
N	 0.7561234252	-2.4233357784	-2.7473285509	-0.133145
H	 1.193817444	-1.1583832196	 1.482175799	 0.119831
H	 1.9638316887	 0.3852589466	 1.0984714876	 0.114961
H	 0.5630478795	 0.3379713812	 2.1765098108	 0.112451
H	-0.8979628818	-0.404631928	 0.2895272918	 0.09865
H	-0.1454828142	 1.1401446433	-0.0710083136	 0.093691
H	 1.6425927308	-0.0461598273	-1.3800043277	 0.066834
H	 1.3171356573	-2.6144705872	-0.6323628891	 0.086617
H	-0.9258231613	-3.4951304854	-1.817014598	 0.086485
H	-1.9686064053	-1.4304673098	-3.2180860972	 0.099205
H	-2.0462026553	-1.0087112724	-1.4976468124	 0.101621
H	-0.4425225308	 0.7070610856	-2.811097489	 0.06337
H	 0.1703520059	-1.3204467995	-4.4674674512	 0.098356
H	 1.6530436162	-0.7348940919	-3.6751032006	 0.099525
83.5553	177.0975	187.6538	264.4368	358.2023	444.2967	466.5685	510.2	664.8819	700.8383	772.8424	790.7455	815.3119	849.3074	876.6646	915.0559	929.7314	940.7962	945.2057	955.4172	972.1629	1025.5037	1036.4245	1050.2816	1072.1785	1086.3571	1115.388	1145.974	1147.8201	1188.6303	1209.984	1217.8749	1247.7874	1267.0488	1285.3935	1297.1325	1302.1617	1327.7812	1359.1497	1381.2758	1399.3206	1413.3282	1485.1513	1492.7476	1501.2615	1506.5995	1512.4424	3008.5711	3022.3489	3032.6059	3048.7446	3055.9031	3064.3892	3096.6115	3100.2101	3104.6648	3105.4019	3127.5369	3180.6822	3191.2591
CCC1C2C3CC1CN23	CC[C@H]1[C@H]2[C@H]3C[C@@H]1CN23	
InChI=1S/C8H13N/c1-2-6-5-3-7-8(6)9(7)4-5/h5-8H,2-4H2,1H3	InChI=1S/C8H13N/c1-2-6-5-3-7-8(6)9(7)4-5/h5-8H,2-4H2,1H3/t5-,6-,7-,8+,9?/m1/s1
