20
gdb 65480	3.49879	1.07402	0.96575	4.1758	84.2	-0.2831	0.0352	0.3182	1286.4608	0.170593	-366.010559	-366.001681	-366.000737	-366.044059	34.165	
C	-0.2094180566	 1.611015127	-0.0274636538	-0.446118
C	-0.0370237138	 0.0867141592	-0.0031337058	 0.171093
C	 1.1541028975	-0.4123455808	-0.9006714196	-0.337029
C	 1.9982338696	-0.5542646366	 0.3708245462	 0.387859
C	 3.2073206873	-1.4080638743	 0.5905937786	-0.335339
C	 3.3276452159	 0.0994173359	 0.6204214536	-0.317191
C	 0.754307684	-0.4231226756	 1.2567399435	-0.337034
C	-1.3106100244	-0.5814471478	-0.2424948143	 0.232279
N	-2.3168548496	-1.1196204287	-0.4315957151	-0.350244
H	 0.7559166142	 2.0923601398	 0.153837464	 0.129284
H	-0.5869447795	 1.9468529307	-0.9975879588	 0.13509
H	-0.9100961629	 1.9381386915	 0.7461606527	 0.135091
H	 0.9374425445	-1.3689383978	-1.3828357052	 0.122613
H	 1.4922576064	 0.3007611335	-1.6574662169	 0.110612
H	 3.2883028886	-1.9462160456	 1.5297536925	 0.117386
H	 3.6203623205	-1.9372776968	-0.2623516677	 0.117387
H	 3.8217325676	 0.5891337383	-0.2130251839	 0.115516
H	 3.489463642	 0.5801636129	 1.5802526152	 0.115516
H	 0.7975644218	 0.2820304128	 2.0913033121	 0.110613
H	 0.3809832168	-1.3839411377	 1.6199905327	 0.122615
56.388	152.0899	181.6424	236.1558	256.1616	301.6466	323.5118	359.2627	395.0828	460.7059	574.562	589.6687	662.5743	775.0643	821.5563	845.1449	883.9556	899.8671	920.8295	926.2288	954.921	978.1073	1002.4555	1053.8944	1079.0945	1090.6106	1144.0136	1159.7061	1188.4136	1196.3701	1245.8158	1253.599	1258.337	1302.8529	1387.3397	1410.87	1464.0183	1475.5816	1492.8173	1493.6295	1498.6212	1504.714	2348.0284	3040.9467	3054.3164	3058.6306	3111.192	3111.5353	3117.9725	3119.7925	3121.1407	3125.8397	3199.7256	3214.6117
CC1(CC2(CC2)C1)C#N	CC1(CC2(CC2)C1)C#N	
InChI=1S/C8H11N/c1-7(6-9)4-8(5-7)2-3-8/h2-5H2,1H3	InChI=1S/C8H11N/c1-7(6-9)4-8(5-7)2-3-8/h2-5H2,1H3
