13
gdb 133365	2.38075	1.87979	1.05119	4.1458	64.96	-0.2313	-0.0295	0.2018	1021.0267	0.089662	-494.048699	-494.041271	-494.040327	-494.080348	28.547	
N	 0.0155728418	 1.3578582546	 0.1811388552	-0.565485
C	 0.0183676305	-0.0113032616	 0.0663507187	 0.307892
N	-1.1654886656	-0.6383405078	 0.0781163026	-0.288744
N	-1.2136680345	-1.9657693002	 0.0325356827	-0.203321
C	-0.1030315653	-2.6824727677	-0.03630844	-0.062648
C	 1.1763682602	-2.1017201949	-0.0693237298	 0.273736
O	 2.2800047543	-2.8719754905	-0.1506134443	-0.425923
C	 1.2158880602	-0.7284250675	-0.0147777083	 0.086819
F	 2.4033026074	-0.0894267675	-0.0479667556	-0.092334
H	 0.809974761	 1.8495352591	-0.195779865	 0.261359
H	-0.882831631	 1.7782013322	-0.0064812022	 0.266764
H	-0.2094281364	-3.7612345071	-0.0735150663	 0.130514
H	 3.0575200874	-2.2993126811	-0.1563481276	 0.311371
145.0117	241.7998	260.3002	290.4632	306.1221	394.5303	453.5783	491.6966	517.6355	547.2199	580.5985	589.8818	652.5428	708.0494	780.5288	869.4165	898.1999	1036.7094	1110.9406	1169.6671	1212.0281	1273.0262	1304.1094	1383.9324	1445.3679	1537.5863	1604.1127	1624.0057	1666.9069	3193.2489	3579.7947	3698.5805	3789.6896
NC1=NN=CC(O)=C1F	Nc1nncc(O)c1F	
InChI=1S/C4H4FN3O/c5-3-2(9)1-7-8-4(3)6/h1H,(H3,6,8,9)	InChI=1S/C4H4FN3O/c5-3-2(9)1-7-8-4(3)6/h1H,(H3,6,8,9)
