15
gdb 37836	3.0668	1.96847	1.69859	1.0465	63.77	-0.2437	0.0427	0.2865	824.949	0.112086	-457.615325	-457.608872	-457.607928	-457.646267	25.61	
C	 0.0430548573	 1.456894878	-0.2443877685	-0.192898
O	 1.376603714	 1.8748373701	 0.1089406125	-0.276906
C	 2.0259424729	 0.9392983627	 0.9985345942	-0.181662
C	 1.1229884648	-0.2629685676	 1.0419399772	 0.319998
O	 0.152586493	-0.5125392859	 2.1112139302	-0.343119
C	-0.4794134975	-1.1142335453	 0.9496807429	-0.031531
C	 0.8681328044	-1.6148353417	 0.3037111983	-0.026311
O	 0.6363081955	-0.9815300291	-0.9830152323	-0.341905
C	 0.053319706	-0.0272331755	-0.0384081198	 0.340447
H	-0.7027871436	 1.9201693705	 0.4159714732	 0.120259
H	-0.1403269643	 1.7676693944	-1.2754065256	 0.134897
H	 3.0175040994	 0.719812594	 0.592319893	 0.129815
H	 2.134805482	 1.3729370915	 1.9998373548	 0.126897
H	-1.4525372908	-1.5910870386	 1.0655542802	 0.111097
H	 1.3747247768	-2.5795627276	 0.3348638396	 0.11092
89.717	217.0764	259.6178	439.4941	469.3341	527.3588	630.926	729.57	737.4382	767.6674	783.2955	811.2858	848.2788	877.7533	934.3326	940.2501	955.0856	964.5243	1044.4106	1086.6466	1088.9907	1108.8992	1132.6299	1186.6111	1215.9382	1228.3927	1273.0309	1285.4956	1342.6822	1360.5638	1385.0497	1484.266	1494.6072	3015.7365	3035.1797	3089.4214	3107.1371	3118.418	3132.7869
C1OCC23OC4C2OC134	C1OC[C@]23O[C@@H]4[C@H]2O[C@]134	
InChI=1S/C6H6O3/c1-5-3-4(8-5)6(5,9-3)2-7-1/h3-4H,1-2H2	InChI=1S/C6H6O3/c1-5-3-4(8-5)6(5,9-3)2-7-1/h3-4H,1-2H2/t3-,4-,5+,6+/m1/s1
