18
gdb 108007	3.6184	1.56585	1.41922	1.3394	73.93	-0.2243	0.0729	0.2972	967.6917	0.148257	-401.843813	-401.836686	-401.835742	-401.87536	28.455	
C	-0.0015153103	 1.3478751337	-0.024377836	-0.26772
O	-0.0374516503	-0.0682188719	 0.0039451663	-0.295184
C	-1.3118996719	-0.5941108471	-0.0178122069	 0.433585
C	-2.2879521231	-0.4897628735	-1.2258954174	-0.311736
C	-2.9018940604	-1.7460678934	-0.5909766837	 0.003918
C	-1.5413407803	-2.1524860001	 0.051600439	-0.156349
C	-2.1983104269	-2.0063814976	 1.4469098433	-0.050988
C	-2.2148205219	-0.5391753233	 1.2490994469	-0.129191
N	-3.3889863541	-1.3605860626	 0.8072127449	-0.152409
H	 1.0503981732	 1.6396422293	-0.0036829446	 0.132001
H	-0.4652335784	 1.745395266	-0.9379745987	 0.116604
H	-0.5095496324	 1.7878204782	 0.8452979723	 0.113884
H	-2.9179597383	 0.3961490043	-1.3410228242	 0.103214
H	-1.7749654439	-0.7284754737	-2.1628405873	 0.108381
H	-3.5868247318	-2.4110858788	-1.1122984285	 0.080937
H	-0.8280343074	-2.8813698143	-0.3217270163	 0.080917
H	-2.2627818077	-2.6276974473	 2.3314250554	 0.096726
H	-2.3934125242	 0.2695285619	 1.9467656354	 0.093409
89.7523	180.5912	198.0514	341.2409	365.5031	439.2067	540.7445	606.2676	754.9444	756.2437	779.2021	795.6314	836.8799	874.0655	887.6576	930.8151	941.7059	960.8776	1005.9517	1016.4016	1047.9115	1059.4206	1065.3648	1099.575	1147.7887	1150.3236	1181.6267	1188.4489	1208.9202	1230.2309	1241.6719	1252.2803	1267.3359	1308.9281	1351.6791	1473.7907	1488.956	1490.0241	1506.9318	2994.1913	3045.962	3052.2857	3115.3395	3125.6603	3138.9173	3162.5588	3182.7838	3196.4492
COC12CC3C1C1C2N31	CO[C@@]12C[C@H]3[C@@H]1[C@H]1[C@@H]2N31	
InChI=1S/C7H9NO/c1-9-7-2-3-4(7)5-6(7)8(3)5/h3-6H,2H2,1H3	InChI=1S/C7H9NO/c1-9-7-2-3-4(7)5-6(7)8(3)5/h3-6H,2H2,1H3/t3-,4+,5-,6-,7-,8?/m0/s1
