16
gdb 106949	3.04128	1.29557	1.24069	4.3057	64.29	-0.2783	0.01	0.2883	1059.15	0.12521	-475.03261	-475.024838	-475.023894	-475.065259	29.01	
O	 0.0376180417	 1.3242362455	 0.3718888273	-0.411659
C	-0.0165013404	 0.0280830001	-0.1901250798	-0.15465
C	-1.4100599542	-0.5519613456	-0.1051767545	 0.271246
C	-1.6604625232	-1.9725808165	 0.2136057667	-0.305848
N	-1.8735316924	-0.9206972717	 1.2492919627	-0.217294
C	-3.2581891262	-0.542380002	 1.3166757886	 0.455233
O	-3.9844222112	-0.7147086207	 2.2437238181	-0.336441
O	-3.6529528745	 0.070729366	 0.1620316835	-0.230887
C	-2.5542097951	 0.2240462687	-0.7433199664	-0.152489
H	-0.1876516746	 1.2354234986	 1.3056499411	 0.298825
H	 0.2842645064	 0.1330483459	-1.2385301968	 0.122013
H	 0.6915884936	-0.660086004	 0.2929433142	 0.106567
H	-2.5435619257	-2.4535507926	-0.1989449096	 0.144927
H	-0.8304823386	-2.6378635333	 0.4285986693	 0.138995
H	-2.2949108191	 1.2842189461	-0.8166702255	 0.143477
H	-2.8554425067	-0.1509605846	-1.725490919	 0.127984
81.6174	135.7875	155.5598	265.4409	290.6972	372.4124	434.2056	487.5467	559.8347	599.5244	711.0143	743.2661	819.4257	822.4108	868.0246	930.0248	957.4739	992.3083	1063.17	1074.4602	1078.6291	1090.6527	1134.0311	1159.9173	1199.6493	1233.5663	1313.8849	1346.0085	1400.8675	1411.8792	1429.4106	1493.7979	1511.044	1521.008	1906.7288	3006.7886	3056.3014	3074.1262	3106.4943	3117.5079	3210.244	3794.2849
OCC12CN1C(=O)OC2	OC[C@@]12CN1C(=O)OC2	
InChI=1S/C5H7NO3/c7-2-5-1-6(5)4(8)9-3-5/h7H,1-3H2	InChI=1S/C5H7NO3/c7-2-5-1-6(5)4(8)9-3-5/h7H,1-3H2/t5-,6?/m1/s1
