21
gdb 120900	5.64771	0.65857	0.63781	2.7006	79.83	-0.258	0.0728	0.3308	1768.4603	0.181219	-424.188233	-424.178774	-424.17783	-424.223259	34.929	
O	-0.1426360403	 1.4485287677	 0.1020754125	-0.419872
C	-0.0202969608	 0.0343640715	 0.0974713987	-0.07126
C	-1.4136066339	-0.5564961911	-0.0797475879	-0.194698
C	-1.41944813	-2.0783901901	-0.0990703261	 0.03257
C	-1.1144104177	-2.8465267192	 1.2295084854	-0.331262
C	-2.2665590216	-3.7858716792	 0.8726513893	 0.469669
C	-2.2776988855	-5.2489706019	 0.8417040172	-0.266813
O	-3.0523820598	-4.5086289014	 1.79842792	-0.271741
C	-2.8006629083	-2.8030079215	-0.169668931	-0.343497
H	 0.7317860925	 1.8263816102	 0.2327278959	 0.285332
H	 0.6339979269	-0.3069151798	-0.7222209149	 0.082289
H	 0.422592933	-0.3304388905	 1.0386491387	 0.088542
H	-2.0540172835	-0.1909625555	 0.7329008767	 0.103765
H	-1.8394688134	-0.1674526233	-1.0131013928	 0.106213
H	-0.7662295718	-2.445864317	-0.8984469245	 0.072269
H	-0.1210023495	-3.2820871746	 1.3612397413	 0.102316
H	-1.3575992623	-2.2422404729	 2.1104204462	 0.112655
H	-2.8553949019	-5.772740834	 0.0805500746	 0.113515
H	-1.438759199	-5.8082303175	 1.2551294671	 0.112891
H	-3.6028998965	-2.1841292947	 0.2461241276	 0.113412
H	-3.1232267966	-3.2018945251	-1.134361154	 0.103708
51.7985	85.9219	103.1297	153.7953	263.7396	288.3447	299.6404	321.8799	378.9923	428.1423	453.3852	560.1347	745.9715	793.1034	823.053	852.0275	881.7035	887.976	946.1858	974.7337	993.6597	1030.9411	1054.0895	1085.7439	1093.4768	1126.4431	1149.6882	1172.0411	1195.8467	1202.4234	1218.5547	1236.8154	1245.2051	1267.5704	1280.5205	1314.9118	1332.0945	1385.3097	1436.6313	1463.0182	1465.6766	1487.3535	1495.8976	1527.4391	1538.0727	2956.6867	2982.4468	3024.7706	3038.5786	3045.8076	3052.1704	3069.4725	3075.6198	3105.1447	3108.9442	3161.8608	3831.1485
OCCC1CC2(CO2)C1	OCC[C@H]1C[C@]2(CO2)C1	
InChI=1S/C7H12O2/c8-2-1-6-3-7(4-6)5-9-7/h6,8H,1-5H2	InChI=1S/C7H12O2/c8-2-1-6-3-7(4-6)5-9-7/h6,8H,1-5H2/t6-,7+
