19
gdb 9801	2.89344	1.59384	1.30436	1.3594	71.7	-0.2426	-0.0296	0.213	1022.2616	0.163188	-365.046381	-365.037255	-365.036311	-365.080335	32.994	
C	-0.0828320503	 1.5502384022	 0.5203226265	-0.411688
C	-0.0489330626	 0.0836857139	 0.037735717	-0.132504
C	 0.9154127848	-0.6774229802	 0.927266791	 0.14817
O	 1.9789757494	-1.1156372258	 0.5734197942	-0.248253
C	-1.4529393987	-0.5388026412	-0.0134929823	 0.32441
C	-2.3113480361	-0.0466073603	-1.1627122956	-0.44383
C	-1.6725739669	-1.9236641974	 0.4852723089	-0.288224
N	-2.2026723854	-0.7696498064	 1.2363142554	-0.345588
H	 0.9168294662	 1.9928504891	 0.4870314134	 0.133345
H	-0.7403211746	 2.15365604	-0.1098451647	 0.134673
H	-0.4521597466	 1.6202304532	 1.5491449036	 0.123753
H	 0.3783224774	 0.04616748	-0.9702047318	 0.099937
H	 0.5913623133	-0.7782611566	 1.9921681697	 0.067427
H	-1.8604025584	-0.3104865374	-2.1255724574	 0.119263
H	-3.3038099997	-0.4998120646	-1.1060061546	 0.1313
H	-2.4424337934	 1.0398147703	-1.1351313742	 0.121691
H	-2.4273068576	-2.5516361485	 0.0191598448	 0.118509
H	-0.8313677959	-2.4764871976	 0.8962595562	 0.121067
H	-1.6242944447	-0.5873070226	 2.0532851001	 0.226541
61.1335	67.8899	190.1501	202.7872	228.9195	241.6142	314.7917	361.0217	364.7613	431.6855	461.5916	534.6198	722.2387	825.2549	867.6355	911.9683	919.1438	947.51	973.168	1020.0954	1048.1074	1070.2492	1088.9477	1124.9486	1149.9956	1168.47	1255.687	1257.9835	1311.8689	1345.0156	1378.8901	1403.3147	1418.5742	1435.6841	1484.4146	1491.7676	1497.6383	1502.9262	1518.2956	1833.8851	2822.7997	3036.1411	3040.8777	3056.5792	3100.6676	3103.378	3109.7267	3123.5702	3125.8971	3184.9597	3492.1679
CC(C=O)C1(C)CN1	C[C@@H](C=O)[C@@]1(C)CN1	
InChI=1S/C6H11NO/c1-5(3-8)6(2)4-7-6/h3,5,7H,4H2,1-2H3	InChI=1S/C6H11NO/c1-5(3-8)6(2)4-7-6/h3,5,7H,4H2,1-2H3/t5-,6+/m0/s1
