14
gdb 42800	3.38995	1.27544	1.15249	4.3919	75.62	-0.2668	-0.06	0.2068	1055.4849	0.102097	-399.55388	-399.546909	-399.545965	-399.585547	26.662	
O	 0.034112914	 0.0246128586	-0.1185947053	-0.277468
C	 0.0095361488	 1.2034385002	-0.0650442274	 0.42482
C	-1.0791588291	 2.3643432694	 0.0742148675	-0.183497
C	-0.0179876861	 2.9851013956	 1.0426849249	-0.225501
C	 1.0299365346	 2.413463482	 0.037855423	-0.238229
C	 0.6018025616	 3.1147193038	-1.2470357185	 0.229893
C	-0.7531049993	 3.0734620749	-1.2150158624	-0.170566
C	 1.4638554658	 3.5637377282	-2.269965597	 0.171903
N	 2.1938524735	 3.9393440495	-3.0882143003	-0.341587
H	-2.1147534982	 2.1859635905	 0.3488538195	 0.103019
H	-0.0408003605	 4.0738577322	 1.1284695609	 0.125025
H	 0.0104010885	 2.5022506929	 2.023349941	 0.12723
H	 2.0873273618	 2.3006426907	 0.2584537219	 0.111903
H	-1.4503182655	 3.3653520118	-1.9863509477	 0.143055
95.1505	167.095	191.5916	372.1973	431.3126	511.1908	522.7912	568.1371	571.0895	643.82	777.1066	787.353	822.3228	863.8284	882.7864	935.0451	973.4795	992.3961	1028.4994	1068.3157	1112.9566	1161.3366	1169.7616	1216.6607	1241.0448	1252.8263	1302.5338	1482.9723	1604.067	1934.7028	2335.9756	3062.8117	3135.7447	3171.5879	3175.337	3249.4584
O=C1C2CC1C(=C2)C#N	O=C1[C@H]2C[C@@H]1C(=C2)C#N	
InChI=1S/C7H5NO/c8-3-5-1-4-2-6(5)7(4)9/h1,4,6H,2H2	InChI=1S/C7H5NO/c8-3-5-1-4-2-6(5)7(4)9/h1,4,6H,2H2/t4-,6-/m1/s1
