16
gdb 49894	2.58237	1.43202	0.98911	4.8206	72.34	-0.2454	-0.0433	0.202	1153.8061	0.124468	-437.937212	-437.929116	-437.928172	-437.970864	29.558	
O	-0.2121551154	 0.0890863281	 0.5863451207	-0.239297
C	-0.1004383655	 1.2270442901	 0.2185301886	 0.163125
C	 1.2365505758	 1.8765600543	-0.1481407446	-0.096913
N	 2.2924620308	 0.8968443849	-0.1559089287	-0.319087
C	 3.2054363142	 0.6535935321	-1.1477164673	 0.406334
O	 3.969416009	-0.2890111307	-1.094052441	-0.368894
C	 3.2251281913	 1.6333794966	-2.3150458964	-0.381626
C	 2.0377695377	 2.5444591621	-2.4014452213	-0.069409
C	 1.1386633708	 2.6537554367	-1.4300812448	-0.072374
H	-0.9708293042	 1.9173654115	 0.1625525544	 0.091046
H	 1.3917015032	 2.6104308431	 0.6713894083	 0.121053
H	 2.209074722	 0.1508924567	 0.5224009749	 0.257897
H	 4.1553221297	 2.2150254697	-2.2486022838	 0.146671
H	 3.3318101307	 1.0307541093	-3.2236388817	 0.148283
H	 1.9345936049	 3.143535725	-3.3022858951	 0.107939
H	 0.299721785	 3.3385418405	-1.5086123223	 0.105254
50.7634	85.0794	127.9882	232.5815	300.3206	417.9174	466.5995	490.2973	534.2294	544.5831	643.736	671.7743	706.3591	732.6434	892.4508	918.1422	961.7415	977.9842	1003.6525	1015.3253	1039.079	1169.1927	1184.1545	1209.0628	1281.346	1318.9074	1345.5027	1374.1158	1410.5356	1428.098	1449.5045	1478.0715	1740.4155	1797.9213	1839.0468	2873.7419	2895.9321	3022.5361	3071.1485	3158.4264	3182.8156	3591.1939
O=CC1NC(=O)CC=C1	O=C[C@H]1NC(=O)CC=C1	
InChI=1S/C6H7NO2/c8-4-5-2-1-3-6(9)7-5/h1-2,4-5H,3H2,(H,7,9)	InChI=1S/C6H7NO2/c8-4-5-2-1-3-6(9)7-5/h1-2,4-5H,3H2,(H,7,9)/t5-/m0/s1
