22
gdb 99526	1.97723	1.40657	1.02771	3.2037	82.8	-0.2846	0.0192	0.3038	1295.2273	0.190521	-404.363548	-404.352423	-404.351479	-404.39931	40.178	
C	-0.0053695789	 1.3826283764	-0.2091549831	-0.250999
O	-0.0159510805	 0.0113547356	 0.1467653163	-0.240252
C	-1.2857735781	-0.596055378	 0.0944724052	-0.005825
C	-1.7699491447	-0.6630916072	-1.3066014846	 0.282057
N	-2.1359917658	-0.6933206646	-2.4025712856	-0.342627
C	-1.2079680574	-2.0013016364	 0.7536323159	 0.223996
C	-0.773129644	-1.8080519229	 2.2175132404	-0.417243
C	-2.6019553929	-2.6504306516	 0.7089056732	-0.428455
C	-0.1867532082	-2.8767677122	 0.0076195249	-0.415536
H	 1.0226994857	 1.7294635586	-0.0897893478	 0.138074
H	-0.3182299207	 1.534035145	-1.2507165586	 0.136378
H	-0.663159032	 1.9707626116	 0.4477757516	 0.112575
H	-2.0192578741	 0.0096381232	 0.6539242818	 0.104405
H	-1.4971938717	-1.1971279264	 2.7688106693	 0.107113
H	-0.706620676	-2.7782098233	 2.719412047	 0.114684
H	 0.2013237539	-1.3194943159	 2.2785429739	 0.133388
H	-2.9412959317	-2.8148447355	-0.3179822269	 0.13924
H	-2.5755525507	-3.6215057725	 1.2125354525	 0.119846
H	-3.3492231407	-2.0325587554	 1.2196413017	 0.112732
H	 0.8036568842	-2.4156837988	 0.0151355605	 0.132799
H	-0.1135733556	-3.8582214165	 0.4864772738	 0.112313
H	-0.4831417401	-3.0322442431	-1.0345081115	 0.131336
67.0205	96.0798	143.2333	179.7586	186.6213	202.3286	250.2741	254.2754	270.2996	315.6361	330.3244	338.3804	401.7154	415.6262	468.8921	565.999	611.8747	785.8167	879.854	939.2561	942.7667	964.7359	971.7913	984.5721	1051.3308	1063.6269	1142.0977	1184.7524	1204.1948	1230.5027	1255.2936	1271.5267	1335.4091	1361.3749	1397.201	1401.9753	1433.1015	1476.5885	1479.7146	1487.4134	1488.08	1490.1617	1500.8032	1505.1115	1508.5321	1521.9724	2348.211	2959.9958	2992.0006	3030.4804	3034.7214	3042.4045	3053.5252	3096.0498	3101.3444	3106.7951	3114.5504	3126.3773	3131.6232	3132.8797
COC(C#N)C(C)(C)C	CO[C@@H](C#N)C(C)(C)C	
InChI=1S/C7H13NO/c1-7(2,3)6(5-8)9-4/h6H,1-4H3	InChI=1S/C7H13NO/c1-7(2,3)6(5-8)9-4/h6H,1-4H3/t6-/m0/s1
