17
gdb 126352	2.88043	1.3419	0.92578	3.3234	80.36	-0.2248	-0.0669	0.1579	1239.2307	0.137295	-414.199631	-414.191304	-414.19036	-414.233182	30.723	
C	 0.0830234535	 1.5547384163	 0.0080483928	-0.375578
C	-0.0454633947	 0.0339744645	 0.0035052155	-0.283193
C	-1.4628329074	-0.4834892566	 0.0129844268	 0.320909
N	-2.4527096889	 0.3487094722	 0.0230480401	-0.314738
C	-3.7581749686	-0.1415044597	 0.0316295178	 0.4296
N	-4.7525947683	 0.6582637862	 0.0417208236	-0.52793
N	-3.8672406274	-1.5502959419	 0.0282408012	-0.279374
N	-2.8624717778	-2.4261186288	 0.0179839451	-0.146037
C	-1.6699992514	-1.9184544979	 0.0103518157	-0.053696
H	 1.1375152335	 1.844421056	 0.0005435239	 0.108712
H	-0.4064851178	 1.9920353559	-0.8652239698	 0.138425
H	-0.3921643655	 1.9855878209	 0.8923769405	 0.138368
H	 0.4596511398	-0.3970036974	-0.8731121707	 0.124949
H	 0.4737476939	-0.4034720966	 0.8685910228	 0.124906
H	-5.6391266719	 0.1522474525	 0.0470622397	 0.200943
H	-4.7851601864	-1.9704944696	 0.0340682589	 0.269634
H	-0.8419404647	-2.6178233961	 0.0019601661	 0.124101
60.9574	97.8066	168.805	180.9879	241.311	387.325	389.8762	477.324	570.857	575.7467	598.1089	653.7024	718.3633	766.098	800.1805	810.1164	877.7539	924.7179	1000.1206	1015.6637	1068.6582	1096.7995	1119.5396	1155.8403	1204.6454	1282.4304	1305.8036	1375.9431	1417.4538	1419.8597	1447.9296	1459.5458	1490.127	1497.7991	1586.4946	1674.1759	1717.3304	3008.4893	3031.167	3053.8942	3125.9394	3133.4009	3198.0597	3470.8117	3607.7696
CCC1=NC(=N)NN=C1	CCc1nc([NH])[nH]nc1	
InChI=1S/C5H8N4/c1-2-4-3-7-9-5(6)8-4/h3H,2H2,1H3,(H2,6,8,9)	InChI=1S/C5H13N4/c1-2-4-3-7-9-5(6)8-4/h4-9H,2-3H2,1H3
