17
gdb 110540	3.77464	1.14577	1.09065	2.2045	67.03	-0.2353	0.0539	0.2892	1138.7246	0.135219	-458.873081	-458.865053	-458.864109	-458.905893	30.849	
O	 0.1203369519	 1.3773551196	 0.1279206412	-0.423326
C	 0.0627290832	-0.0323638579	-0.0564816903	-0.10027
C	-1.3650375474	-0.5553524882	-0.0133957044	 0.007417
C	-1.6357294463	-2.0608339375	 0.0058648024	-0.194084
C	-1.5685700874	-2.4450172964	 1.5214800192	-0.014815
O	-1.23918338	-1.2669047711	 2.2525180473	-0.284517
C	-2.115809655	-0.5354612825	 1.3532063469	-0.056976
C	-2.8241522362	-1.9047174443	 0.9234203157	 0.330869
O	-4.1085697216	-2.3322406459	 0.7536553068	-0.447188
H	-0.0507595952	 1.5522078297	 1.0584380215	 0.287168
H	 0.4980227056	-0.2271853147	-1.0431349417	 0.105273
H	 0.671979211	-0.5612178197	 0.6876079104	 0.10357
H	-1.9823197307	-0.064702484	-0.7723831948	 0.090085
H	-1.4848632151	-2.8007105578	-0.7697521622	 0.098315
H	-1.2636900043	-3.4125014615	 1.8966084618	 0.115313
H	-2.5413110386	 0.3643645561	 1.7934321571	 0.086472
H	-4.5132308541	-2.4456223638	 1.6221460531	 0.296693
62.7905	137.1117	201.3956	290.4322	306.1026	334.6877	385.1889	406.6913	552.1867	597.9541	650.273	731.156	751.815	811.6459	879.9234	893.5141	933.085	967.1045	981.4196	1008.9144	1036.7018	1042.9157	1067.6149	1093.8507	1109.7726	1141.2221	1171.8016	1215.1269	1222.9869	1242.7574	1310.0432	1319.9992	1352.9071	1401.8202	1415.44	1494.136	1498.8167	3022.951	3064.2308	3079.7439	3141.261	3203.3807	3218.4899	3779.8206	3823.2853
OCC1C2C3OC1C23O	OC[C@H]1[C@H]2[C@H]3O[C@@H]1[C@@]23O	
InChI=1S/C6H8O3/c7-1-2-3-5-6(3,8)4(2)9-5/h2-5,7-8H,1H2	InChI=1S/C6H8O3/c7-1-2-3-5-6(3,8)4(2)9-5/h2-5,7-8H,1H2/t2-,3-,4-,5+,6-/m0/s1
