19
gdb 84520	2.79965	1.72698	1.24805	1.3175	84.94	-0.2144	-0.0203	0.1941	1039.1018	0.161159	-385.901528	-385.893928	-385.892984	-385.933436	29.986	
C	-0.0792336373	 1.5783858899	-0.0092103374	-0.380712
C	-0.0224950703	 0.0419888227	-0.0043492592	-0.100185
C	 0.8760305428	-0.4979682879	-1.1149995862	-0.071442
C	 2.0848923355	-0.8921751634	-0.6714655591	-0.201376
C	 2.1309214268	-0.7017802662	 0.7693817134	 0.338905
C	 2.9577933632	-0.3850357175	 1.7644845826	-0.293641
C	 2.1141473516	 0.0680224582	 2.9413175507	-0.111314
O	 0.7848238476	 0.2264791695	 2.4221967467	-0.279781
C	 0.7039189179	-0.543077443	 1.2360968651	 0.070324
H	 0.9223735347	 2.0045548511	 0.0965613206	 0.123401
H	-0.5113609457	 1.9474506865	-0.9446175706	 0.107104
H	-0.6888645101	 1.9404093001	 0.8227139137	 0.129308
H	-1.042365136	-0.348378187	-0.0928428185	 0.07562
H	 0.5762366478	-0.4763430664	-2.1578094385	 0.100396
H	 2.9079813605	-1.2280835165	-1.2898681117	 0.104736
H	 4.0395685086	-0.3636377025	 1.7659312653	 0.101682
H	 2.115219045	-0.6616219445	 3.7700900169	 0.099564
H	 2.4434306902	 1.0304412285	 3.3537896608	 0.112363
H	 0.2645679073	-1.5324382216	 1.4572777656	 0.075049
110.4008	170.6102	214.38	240.2435	307.1144	352.991	455.5995	558.2446	635.0997	658.948	744.7207	778.1606	790.354	820.6968	829.5459	894.977	934.0246	955.7984	971.9939	992.474	1029.0857	1040.8675	1078.1202	1103.5899	1120.5403	1149.7921	1193.2164	1203.4121	1255.4384	1279.2076	1318.4254	1346.4446	1354.1606	1370.3705	1382.7089	1407.4794	1490.5235	1494.1762	1513.297	1612.8684	1728.7617	2931.7494	2948.6252	3032.5673	3041.0599	3042.0618	3112.5335	3123.9887	3183.463	3214.9144	3220.7004
CC1C=CC2=CCOC12	C[C@H]1C=C[C]2[CH]CO[C@@H]12	
InChI=1S/C8H10O/c1-6-2-3-7-4-5-9-8(6)7/h2-4,6,8H,5H2,1H3	InChI=1S/C8H10O/c1-6-2-3-7-4-5-9-8(6)7/h2-4,6,8H,5H2,1H3/t6-,8-/m0/s1
