17
gdb 82950	2.2285	1.8414	1.56064	1.8964	66.23	-0.2294	0.066	0.2954	939.8907	0.136186	-458.923273	-458.915831	-458.914887	-458.954691	30.231	
O	 0.0488769052	 1.3973901459	-0.1875273875	-0.428681
C	-0.059480073	 0.0247949647	-0.0296821612	 0.055902
C	-0.4263282134	-0.6875750094	 1.260853845	-0.153205
C	-1.1519226074	 0.0697480541	 2.3791011416	-0.275084
C	-2.5201253917	 0.4440841574	 1.8211882672	 0.044508
O	-2.4897238432	 1.3720378813	 0.7164181526	-0.277266
C	-2.6272412643	-0.0428542114	 0.4382843353	-0.041822
C	-1.3498957189	-0.763487531	 0.04505065	 0.278131
O	-1.5120991607	-1.9627297794	-0.6498054084	-0.459755
H	-0.7911264976	 1.7790048763	 0.1109347397	 0.300565
H	 0.7224327628	-0.4848838031	-0.5881960241	 0.106429
H	 0.1778526701	-1.5461900135	 1.5329967722	 0.099154
H	-1.2845186602	-0.580325403	 3.2497861587	 0.116655
H	-0.6040247577	 0.958061126	 2.7137492055	 0.127497
H	-3.371579113	 0.576228652	 2.4834155011	 0.107881
H	-3.5578409227	-0.3352486567	-0.0387209643	 0.110335
H	-1.5000671943	-1.7670839902	-1.5933750334	 0.288756
148.1118	241.1512	258.9286	306.7831	340.4701	349.0313	407.03	541.5215	565.2133	602.332	634.0275	701.7263	734.0543	792.6628	846.2114	854.3196	886.302	932.146	940.2218	1004.4648	1045.6132	1065.5846	1084.2349	1115.4723	1151.8385	1191.2044	1214.4544	1245.832	1263.4313	1297.8828	1316.7735	1336.8719	1338.2581	1384.3373	1441.9311	1471.389	1486.1725	3045.0176	3086.6719	3138.8121	3151.6315	3168.9717	3171.8015	3683.4167	3794.3463
OC1C2CC3OC3C12O	O[C@H]1[C@H]2C[C@H]3O[C@H]3[C@@]12O	
InChI=1S/C6H8O3/c7-4-2-1-3-5(9-3)6(2,4)8/h2-5,7-8H,1H2	InChI=1S/C6H8O3/c7-4-2-1-3-5(9-3)6(2,4)8/h2-5,7-8H,1H2/t2-,3-,4+,5-,6+/m1/s1
