19
gdb 58747	2.46848	1.41812	1.30495	2.7419	75.36	-0.2438	0.0071	0.251	1094.0137	0.158507	-422.996226	-422.987508	-422.986563	-423.029957	33.047	
C	 0.0356543408	 1.5299197547	-0.0725954963	-0.414938
C	-0.0124420236	 0.0051378588	 0.0560999319	-0.025205
O	 0.6025848671	-0.4443283623	 1.2613473343	-0.433666
C	-1.425905647	-0.5224954676	 0.0010705022	 0.222553
C	-2.6064959543	-0.2393043253	-0.9976772331	-0.288806
C	-3.2574219677	-1.2039982725	 0.0550157162	-0.177228
C	-1.9171516006	-2.0159866305	-0.023050537	-0.276135
C	-2.5024217205	-0.3596670911	 1.0865087772	 0.437535
O	-2.6297163474	 0.1406481672	 2.1649814569	-0.354833
H	 1.0663908406	 1.8771671309	 0.0345031923	 0.127423
H	-0.3441511507	 1.8593421538	-1.0451528517	 0.117399
H	-0.5722714975	 2.0024922774	 0.7073620655	 0.128613
H	 0.5838870078	-0.4446506351	-0.7471631469	 0.091233
H	 0.0952518362	-0.074741229	 1.9947517017	 0.293384
H	-2.9909730047	 0.7806169645	-1.0563468697	 0.114816
H	-2.4749075029	-0.6833110851	-1.9875994835	 0.109365
H	-4.2732892246	-1.5907226371	 0.0671609408	 0.097939
H	-1.7574343247	-2.5210938106	-0.9790415435	 0.108058
H	-1.6498279761	-2.6471915012	 0.8250666227	 0.122494
45.5309	121.8203	163.7772	189.8243	248.8211	325.4018	400.2408	431.6003	447.1789	492.957	520.6158	672.5511	760.2797	768.5657	786.0521	820.2592	895.4632	921.0522	949.6615	987.4374	1011.5149	1028.2139	1038.0285	1078.8742	1082.8318	1097.8553	1133.8466	1158.2271	1181.241	1195.8906	1224.3324	1304.0148	1331.5927	1376.5795	1403.2761	1427.3402	1492.8201	1495.2017	1497.8986	1532.9436	1894.6703	3032.4239	3036.6391	3061.9301	3065.8322	3103.2608	3123.1715	3134.3624	3144.3189	3155.1355	3783.2088
CC(O)C12CC(C1)C2=O	C[C@@H](O)[C@@]12C[C@@H](C1)C2=O	
InChI=1S/C7H10O2/c1-4(8)7-2-5(3-7)6(7)9/h4-5,8H,2-3H2,1H3	InChI=1S/C7H10O2/c1-4(8)7-2-5(3-7)6(7)9/h4-5,8H,2-3H2,1H3/t4-,5-,7+/m1/s1
