18
gdb 110810	2.0402	1.89427	1.18635	4.0766	75.73	-0.2563	0.0284	0.2848	1073.8817	0.147872	-401.919585	-401.911126	-401.910181	-401.952794	31.284	
C	 0.1719199619	 0.9834529918	-0.3481081743	-0.239854
O	-0.4316415709	-0.0466169139	 0.4196124205	-0.240928
C	 0.4328226068	-0.6375877651	 1.3277426269	 0.143113
C	 0.1048466195	-1.9744756178	 1.8860381245	-0.121083
C	-0.5685137102	-2.8408837991	 0.8146516304	-0.248519
C	 0.7200481506	-2.7128274153	-0.0742341446	-0.144208
C	 0.5958385589	-2.2277306078	-1.4443537285	 0.291091
N	 0.5163699972	-1.8593662411	-2.5377289347	-0.348596
C	 1.3487951118	-1.7825715942	 0.9784915966	-0.13433
H	 1.000675597	 0.6004055347	-0.9555170049	 0.129771
H	-0.600785351	 1.3773809886	-1.0105682587	 0.136805
H	 0.5409519572	 1.7935031386	 0.2979746885	 0.104306
H	 0.8775040444	 0.057967289	 2.0432632164	 0.092874
H	 0.0593016401	-2.1628257191	 2.9513988276	 0.099373
H	-0.7385849788	-3.8719821477	 1.1256065843	 0.116012
H	-1.4821207895	-2.4280607237	 0.386139587	 0.137094
H	 1.2487428506	-3.668801487	-0.1025332135	 0.12792
H	 2.4027166142	-1.7836088709	 1.2294372965	 0.099156
98.6815	129.5744	143.2409	169.8434	230.7929	266.243	331.0275	495.4986	506.1292	542.0209	609.7226	745.2629	761.0814	813.7426	833.4337	937.0542	961.814	972.7067	1013.1488	1034.6919	1060.4917	1081.1049	1088.5423	1106.4713	1156.527	1183.4254	1195.4633	1227.7792	1252.0881	1265.0563	1290.9125	1336.3077	1345.6296	1434.6652	1480.8868	1487.6106	1493.7044	1506.1381	2350.4015	2995.2409	3065.9444	3079.3099	3082.172	3089.9291	3134.2379	3147.9891	3181.0957	3193.369
COC1C2CC(C#N)C12	CO[C@H]1[C@H]2C[C@@H](C#N)[C@@H]12	
InChI=1S/C7H9NO/c1-9-7-5-2-4(3-8)6(5)7/h4-7H,2H2,1H3	InChI=1S/C7H9NO/c1-9-7-5-2-4(3-8)6(5)7/h4-7H,2H2,1H3/t4-,5-,6+,7-/m0/s1
