16
gdb 65962	2.3495	1.50067	1.36548	2.2062	69.52	-0.2509	0.0001	0.2511	1027.6223	0.122354	-437.850536	-437.84198	-437.841035	-437.883927	31.664	
O	-0.1103935263	 1.3578420533	-0.2844441304	-0.450235
C	 0.0019144488	-0.02174064	-0.0419979526	 0.100849
C	 0.0710472418	-0.482125703	 1.4470651514	-0.113779
O	-1.1902089946	-1.1681343151	 1.3348268161	-0.301202
C	-1.3587135817	-0.7253675703	-0.0094743435	 0.442139
C	-2.6449849228	-0.2088278193	-0.554436463	-0.325143
C	-2.0563705633	-1.5212448401	-1.0550074454	-0.341201
C	 1.0037103159	-0.6346062115	-0.9224006228	 0.235841
N	 1.8089859597	-1.0911179646	-1.6147431233	-0.336167
H	 0.7731450048	 1.7384089859	-0.3505474186	 0.299287
H	 0.8884816564	-1.1584050553	 1.7132871401	 0.126869
H	 0.0271241269	 0.3680751452	 2.136361081	 0.120551
H	-3.5045707897	-0.2630783526	 0.1046694235	 0.132563
H	-2.6080418933	 0.6625087355	-1.1984263774	 0.138387
H	-1.6235084863	-1.5579138322	-2.0494629936	 0.136178
H	-2.5279130464	-2.441155496	-0.7270004517	 0.135063
57.7073	123.5011	183.675	216.9182	260.7772	282.681	354.6304	390.0254	496.9127	515.3158	544.8676	640.6653	663.4125	756.0338	869.136	881.7029	914.2365	966.5806	985.711	995.0726	1027.5936	1053.443	1073.3574	1134.9334	1154.2152	1185.2364	1216.877	1220.63	1317.4112	1347.3327	1407.8522	1447.3838	1488.5792	1513.6206	2351.6022	3037.0879	3101.368	3133.2334	3139.2028	3219.679	3234.7654	3802.2761
OC1(COC11CC1)C#N	O[C@]1(COC21CC2)C#N	
InChI=1S/C6H7NO2/c7-3-5(8)4-9-6(5)1-2-6/h8H,1-2,4H2	InChI=1S/C6H7NO2/c7-3-5(8)4-9-6(5)1-2-6/h8H,1-2,4H2/t5-/m0/s1
