13
gdb 129067	3.67091	1.2953	0.95746	4.665	79.56	-0.2336	-0.065	0.1686	1129.7944	0.090633	-411.75814	-411.750648	-411.749704	-411.790439	27.829	
N	-0.1615184882	 1.3294353363	 0.0082077953	-0.536858
C	-0.0168563976	 0.0585907085	 0.00127577	 0.311295
C	-1.2062834016	-0.8032053756	 0.0031568066	 0.025469
N	-1.1733580031	-2.0909155366	-0.0033365683	-0.175554
N	 0.0709757869	-2.6379799306	-0.0123942936	-0.297093
C	 1.2174026712	-1.8884209663	-0.0145405295	 0.272377
N	 1.2292484174	-0.5948508335	-0.008292275	-0.376401
C	 2.4343133875	-2.6433681646	-0.0245463656	 0.251608
C	 3.431207509	-3.3145526981	-0.0330051772	-0.347897
H	 0.7620639037	 1.7687997125	 0.0056188405	 0.221356
H	-2.1859642873	-0.3373891411	 0.0104603034	 0.148049
H	 0.1027019566	-3.6444352827	-0.0175221687	 0.284871
H	 4.3272242256	-3.8862793783	-0.0404554579	 0.218778
89.8089	133.2231	144.0873	345.8783	406.0593	409.0288	499.7082	530.1786	542.007	567.0198	664.8493	686.7946	706.4103	731.6462	774.4409	911.8712	938.0977	962.2128	1031.5648	1084.3098	1143.6055	1267.608	1323.9637	1387.5926	1475.61	1621.0156	1652.8596	1704.7271	2242.2518	3200.2581	3455.8791	3496.662	3652.0349
N=C1C=NNC(=N1)C#C	[NH]C1=N[C@@H](NN=C1)C#C	
InChI=1S/C5H4N4/c1-2-5-8-4(6)3-7-9-5/h1,3H,(H2,6,8,9)	InChI=1S/C5H5N4/c1-2-5-8-4(6)3-7-9-5/h1,3,5-6,9H/t5-/m0/s1
