18
gdb 82032	2.68275	1.40588	1.23739	3.4111	73.1	-0.2388	-0.038	0.2008	1080.977	0.14628	-439.046151	-439.037567	-439.036623	-439.079162	32.66	
C	-0.0917373127	 1.5398834838	-0.0486692177	-0.396632
C	 0.0300072405	 0.0259826243	-0.017387852	-0.08893
C	 0.6886090109	-0.6880595077	-1.203322979	-0.044578
N	 2.0450666398	-0.1184076152	-1.3255029057	-0.323572
C	 1.7999963764	-1.2100854305	-0.3567859884	-0.127907
C	 1.2092290372	-0.5686330447	 0.9095551657	 0.350605
O	 1.9993470744	 0.3242824759	 1.6143885989	-0.469532
C	 0.6231249871	-1.6017543955	 1.8379772509	 0.106622
O	 0.798893547	-1.5597884589	 3.0330663319	-0.283293
H	 0.8581376084	 1.9913545195	-0.3378131143	 0.154978
H	-0.8634776468	 1.8462922169	-0.7633583219	 0.108271
H	-0.3690335008	 1.9254737691	 0.9368237126	 0.119513
H	-0.9287156163	-0.4388042155	 0.2370523251	 0.075287
H	 0.1945581831	-1.1553037145	-2.0457324289	 0.096692
H	 2.4867441204	-0.5472909315	-2.1382817615	 0.233782
H	 2.3594936937	-2.1362652457	-0.4180023071	 0.098996
H	 1.9036402049	 0.0809046668	 2.549751713	 0.290863
H	 0.0042119927	-2.3921768964	 1.3673468584	 0.098836
99.6365	132.3697	178.9135	214.1436	251.3779	314.8675	324.2648	414.0134	433.6313	518.741	555.9507	611.0643	712.7343	816.0329	829.9466	843.7039	868.2176	885.7247	939.8096	1004.9882	1011.9859	1048.9298	1065.1394	1092.6321	1111.7657	1134.5209	1146.1577	1221.0389	1243.3575	1306.8253	1317.3917	1362.2053	1371.3188	1391.9394	1406.7212	1440.2591	1483.3692	1499.165	1803.4864	2931.8961	3038.896	3047.5952	3104.3235	3148.7147	3177.2174	3199.2467	3476.4086	3676.9166
CC1C2NC2C1(O)C=O	C[C@H]1[C@H]2N[C@H]2[C@]1(O)C=O	
InChI=1S/C6H9NO2/c1-3-4-5(7-4)6(3,9)2-8/h2-5,7,9H,1H3	InChI=1S/C6H9NO2/c1-3-4-5(7-4)6(3,9)2-8/h2-5,7,9H,1H3/t3-,4+,5+,6-/m0/s1
