12
gdb 8606	2.11892	2.09359	1.50261	4.3205	64.44	-0.3127	-0.0185	0.2943	888.8738	0.081378	-340.357948	-340.349655	-340.348711	-340.390469	29.08	
C	-0.0243359882	 1.5488022689	 0.0013277998	-0.398578
C	 0.0059884932	-0.0111868626	 0.0083638073	-0.25747
C	 0.7143376966	-0.5105696568	 1.1945869791	 0.351829
C	 1.2978272584	-0.8841484337	 2.1728653159	-0.416189
C	-1.3846945655	-0.5214901444	 0.0058435854	 0.32062
N	-2.4801874791	-0.8842841189	 0.0158887114	-0.315466
C	 0.6883920739	-0.4867218829	-1.2174455148	 0.320615
N	 1.2354858061	-0.8219112711	-2.1766960599	-0.315464
H	 1.0000042383	 1.9237559375	-0.0058529306	 0.161157
H	-0.5529813077	 1.9051149506	-0.8844151061	 0.162045
H	-0.5348560809	 1.898002571	 0.8998504486	 0.161157
H	 1.8130113648	-1.2290776575	 3.0364413038	 0.225743
122.6393	129.1012	155.9628	220.5692	220.6381	247.9822	360.2442	466.6544	491.9081	560.6663	574.6415	586.5612	650.6008	671.9282	687.4108	939.5396	951.2186	1041.9908	1186.1275	1194.7004	1407.574	1484.8199	1486.1456	2254.0944	2368.4263	2374.1279	3066.6802	3159.1015	3162.5662	3496.0507
CC(C#C)(C#N)C#N	CC(C#C)(C#N)C#N	
InChI=1S/C6H4N2/c1-3-6(2,4-7)5-8/h1H,2H3	InChI=1S/C6H4N2/c1-3-6(2,4-7)5-8/h1H,2H3
