15
gdb 35351	3.93416	1.39085	1.25613	3.8434	71.18	-0.2503	-0.014	0.2363	985.8436	0.11272	-416.630435	-416.623563	-416.622619	-416.661646	27.184	
N	-0.1482134108	-1.2268644429	 0.0417515778	-0.330957
C	-0.0866242158	-0.0724371677	 0.0458225747	 0.333574
C	-0.0226476267	 1.3828465277	 0.0111570379	-0.124962
O	-0.3250503464	 2.0083154209	 1.3218783698	-0.33894
C	 1.0950612168	 2.3494192485	 1.3813749298	 0.353012
C	 2.3021678485	 3.3436587723	 1.4140794727	-0.239163
N	 2.801705698	 2.1101462555	 0.5809866757	-0.16076
C	 2.1411351092	 1.2558086542	 1.6683467078	-0.22489
C	 1.3438069803	 2.1925209434	-0.0616517138	-0.0485
H	-0.7140496724	 1.7543736473	-0.7497530369	 0.150571
H	 2.21642142	 4.2637713772	 0.8349419893	 0.128888
H	 2.8776820096	 3.4712311756	 2.3335671147	 0.128637
H	 2.6673464248	 1.2874590401	 2.62336984	 0.115516
H	 1.9419486945	 0.2327735643	 1.3535987624	 0.148335
H	 1.2631715605	 3.0334849836	-0.7475934519	 0.10964
131.9805	147.4832	320.1974	330.1316	430.9926	453.0848	550.8328	570.5678	582.4454	681.8494	718.4876	815.8824	852.8367	860.9998	882.0147	907.7812	978.8304	995.4975	1022.9038	1054.2987	1067.1203	1113.0804	1153.7238	1155.9226	1178.4964	1200.5726	1241.0776	1292.4264	1310.8202	1366.7227	1504.6597	1547.417	2353.6	3073.4993	3083.1213	3090.5945	3128.6452	3158.7344	3168.8813
N#CC1OC23CN(C2)C13	N#C[C@H]1O[C@@]23CN(C2)[C@@H]13	
InChI=1S/C6H6N2O/c7-1-4-5-6(9-4)2-8(5)3-6/h4-5H,2-3H2	InChI=1S/C6H6N2O/c7-1-4-5-6(9-4)2-8(5)3-6/h4-5H,2-3H2/t4-,5+/m1/s1
