22
gdb 101793	2.9913	0.88234	0.79616	6.1106	79.82	-0.2467	0.03	0.2767	1538.0029	0.193317	-441.518318	-441.508071	-441.507127	-441.554295	37.006	
C	 0.1553109407	 1.130393056	 0.5158348185	-0.404058
C	 0.0329375351	-0.192141785	-0.2385084388	-0.117385
N	-1.3436863214	-0.7106208316	-0.3035490603	-0.088479
H	-2.0674071314	-1.2271954284	 1.2359423536	 0.300593
C	-2.2229353302	 0.1565558696	-1.0907072893	-0.336152
C	-1.3791118671	-2.1035010843	-0.7914689465	-0.160037
C	-2.6474227213	-2.8546517296	-0.3582589928	-0.354863
C	-2.8611682825	-2.9559342616	 1.1575472135	 0.402593
O	-2.4845645709	-1.8784020881	 1.8607496142	-0.376469
O	-3.3575566783	-3.9194890227	 1.6788933577	-0.332289
H	 1.2125083564	 1.3825390728	 0.6400957016	 0.126606
H	-0.3163138375	 1.962512402	-0.0136517217	 0.125577
H	-0.296064476	 1.0534659618	 1.5096211222	 0.136017
H	 0.453795204	-0.0859972761	-1.2547086164	 0.092275
H	 0.6348729535	-0.9478423622	 0.2760162645	 0.116164
H	-2.2757410649	 1.1501306361	-0.6429280348	 0.136614
H	-1.8741826498	 0.2585788569	-2.13268302	 0.10951
H	-3.2361866209	-0.2502373537	-1.107742868	 0.133558
H	-1.2800144543	-2.1421611905	-1.8889258168	 0.100406
H	-0.5072526019	-2.6189651065	-0.3763795826	 0.120384
H	-3.5412182489	-2.3826080709	-0.7842169833	 0.132302
H	-2.6240387523	-3.873730174	-0.7497782744	 0.137133
50.0902	74.6848	93.121	140.8811	203.486	234.1928	251.8977	301.5101	333.9474	386.9491	419.3439	484.5351	509.6939	575.9458	704.7016	778.9781	811.663	822.9161	911.3222	951.319	966.3435	993.472	1052.5327	1070.4951	1078.8591	1123.3192	1165.4082	1172.7519	1238.5886	1247.7463	1280.8738	1296.2773	1335.1018	1364.4083	1381.4345	1409.0162	1429.8448	1453.8646	1472.2912	1486.2837	1490.3082	1497.6654	1500.8472	1503.5449	1513.7551	1520.8171	1859.7973	2945.6609	2964.8996	2970.092	3046.1432	3046.671	3065.4698	3077.4435	3099.9955	3116.8889	3117.7903	3121.2767	3139.2687	3197.966
CC[NH+](C)CCC([O-])=O	CCN(C)CCC(=O)O	
InChI=1S/C6H13NO2/c1-3-7(2)5-4-6(8)9/h3-5H2,1-2H3,(H,8,9)	InChI=1S/C6H13NO2/c1-3-7(2)5-4-6(8)9/h3-5H2,1-2H3,(H,8,9)
