21
gdb 87571	2.48751	1.43482	1.21908	1.2563	82.88	-0.2236	0.0774	0.3009	1154.3798	0.182503	-383.201811	-383.192916	-383.191972	-383.23506	34.419	
C	 0.0458020949	 1.5987554201	-0.0338345812	-0.389877
C	-0.0101294175	 0.0958487205	 0.0806661062	-0.064659
N	 1.2601219605	-0.6418500446	-0.1396826765	-0.408936
C	 0.6347917516	-0.6497664623	 1.1791850683	 0.390153
C	 1.3360585717	-0.1440650813	 2.4241807084	-0.150987
N	 0.2597876012	 0.0039923155	 3.4434441122	-0.339686
C	 0.8606487551	-1.3278823432	 3.1910889115	-0.055159
C	 0.1536294437	-1.9141097231	 1.9508357664	-0.083519
C	-1.3338948066	-2.220722598	 2.042661954	-0.409076
H	 0.9795990226	 1.9810506281	 0.3865190101	 0.120763
H	-0.0065343648	 1.9151041044	-1.0812556976	 0.115155
H	-0.7893795992	 2.058014038	 0.5052190013	 0.122375
H	-0.9098693263	-0.3618889049	-0.3301790667	 0.078825
H	 1.081996142	-1.5223442863	-0.618621226	 0.224247
H	 2.2645138321	 0.4086203047	 2.4892236387	 0.098349
H	 0.6984886843	 0.3721262817	 4.2874983854	 0.22804
H	 1.3473677282	-1.8780312924	 3.9869636742	 0.090905
H	 0.715212609	-2.7841453404	 1.5884387849	 0.075064
H	-1.8678246871	-1.3696768494	 2.4721934326	 0.140178
H	-1.7583833608	-2.4333141508	 1.0550096236	 0.10793
H	-1.5158214248	-3.0982395062	 2.6730900205	 0.109913
103.8122	139.0475	174.3039	184.0239	228.249	258.4845	287.1683	427.8123	453.2011	488.2367	560.8684	630.5688	724.6245	805.464	828.763	838.4265	861.7459	883.4019	905.3929	927.8273	1000.0476	1025.8028	1037.13	1048.5184	1064.908	1081.2475	1111.1468	1114.6228	1134.737	1146.5013	1203.5792	1228.8639	1250.6934	1281.1041	1307.9002	1353.7704	1363.456	1384.7504	1405.0401	1411.6312	1476.1665	1490.5662	1492.0554	1500.7518	1510.0384	3027.8467	3033.7946	3034.8983	3087.575	3098.2077	3102.6892	3124.2181	3125.5484	3185.702	3202.5389	3468.8556	3481.2254
CC1NC11C2NC2C1C	C[C@H]1N[C@]21[C@H]1N[C@H]1[C@H]2C	
InChI=1S/C7H12N2/c1-3-5-6(8-5)7(3)4(2)9-7/h3-6,8-9H,1-2H3	InChI=1S/C7H12N2/c1-3-5-6(8-5)7(3)4(2)9-7/h3-6,8-9H,1-2H3/t3-,4-,5+,6+,7-/m1/s1
