15
gdb 51407	5.4191	0.87589	0.83292	0.8305	68.2	-0.2571	-0.0139	0.2432	1323.6862	0.111652	-457.740206	-457.73242	-457.731476	-457.774687	27.972	
O	-0.0541530516	-0.0203678108	 0.0411780038	-0.266306
C	-0.0413372672	 1.1714434752	 0.0186282927	 0.161093
O	 1.1019278982	 1.8847577617	 0.1095908552	-0.206921
C	 1.0187170635	 3.2985242336	 0.0940993948	 0.179884
C	 1.7620008093	 4.0356068145	 1.2559216227	-0.225916
C	 3.0947883277	 3.5824351689	 0.5485301417	-0.238488
C	 2.1803717491	 4.0198630797	-0.6577861	-0.22422
C	 1.8302832536	 5.2034442231	 0.2592700629	 0.445767
O	 1.732577688	 6.3891975413	 0.2280931892	-0.310724
H	-0.9400857653	 1.8091655983	-0.0806685374	 0.08745
H	-0.0023074673	 3.6188237768	-0.131590853	 0.106992
H	 1.5207437725	 4.0276386164	 2.3155108727	 0.108053
H	 3.9843249849	 4.1826678727	 0.7386366565	 0.125417
H	 3.2928420692	 2.5145763195	 0.6002930043	 0.14928
H	 2.4032042354	 3.9948364091	-1.721031556	 0.108638
12.1818	118.3791	134.1728	234.823	321.1529	373.749	455.051	493.0636	675.9443	700.6293	724.9895	774.7303	824.0532	879.8302	943.7036	967.1279	1023.1034	1033.4438	1039.8855	1069.2782	1094.0014	1128.4423	1134.3964	1175.6316	1187.0414	1200.8092	1238.8729	1241.3619	1401.5594	1452.0438	1513.2486	1871.4044	1928.9824	2960.1844	3070.6279	3099.9679	3162.4473	3165.2242	3184.057
O=COC1C2CC1C2=O	O=CO[C@H]1[C@H]2C[C@@H]1C2=O	
InChI=1S/C6H6O3/c7-2-9-6-3-1-4(6)5(3)8/h2-4,6H,1H2	InChI=1S/C6H6O3/c7-2-9-6-3-1-4(6)5(3)8/h2-4,6H,1H2/t3-,4+,6-
