19
gdb 49972	3.59277	1.15577	1.02218	3.4469	82.49	-0.2429	-0.0133	0.2296	1204.5108	0.159319	-385.830989	-385.82325	-385.822306	-385.863453	30.374	
O	-0.0920907975	 0.0139522638	-0.3469298451	-0.274167
C	 0.0229643891	 1.1536288548	 0.0336915274	 0.170555
C	 1.282060936	 1.9256110694	 0.0409843579	-0.226578
C	 1.1872252073	 3.4561857794	-0.1708110967	-0.416497
C	 1.5317951482	 2.9163411186	 1.1532092145	 0.460355
C	 0.9142309116	 3.0752220701	 2.5585589916	-0.127355
C	 2.0274645444	 2.1027431182	 3.0587012373	-0.215313
C	 2.7466494595	 3.0847438858	 2.0826149454	-0.125882
C	 1.939606369	 4.2327380093	 2.7670642595	-0.216349
H	-0.8562571311	 1.7205169017	 0.4247356104	 0.059678
H	 2.1345870156	 1.4113511569	-0.3915096163	 0.104502
H	 1.9590417715	 3.8977638033	-0.7926108164	 0.128305
H	 0.1928472843	 3.8638617039	-0.3321759989	 0.124404
H	-0.1424212005	 3.0711320368	 2.8262840257	 0.081835
H	 2.3001632836	 2.1872663065	 4.1136500665	 0.094163
H	 1.9507011309	 1.0610410408	 2.7399870524	 0.106305
H	 3.7987499135	 3.0889268036	 1.7958819093	 0.079097
H	 1.783011928	 5.1418245158	 2.1821169751	 0.098196
H	 2.2079563666	 4.4554816211	 3.8029792804	 0.094747
81.5791	131.3178	200.8625	241.9897	357.5241	358.5196	447.9888	495.0546	608.3865	648.4126	769.5016	796.6114	856.2716	872.2857	893.5164	905.2079	915.2585	962.7298	1013.3594	1018.454	1040.6111	1044.6962	1051.622	1069.0494	1086.707	1095.7361	1116.0426	1155.5363	1172.1903	1189.1437	1197.1437	1229.8958	1245.0524	1248.3934	1297.1957	1410.9698	1445.6303	1491.6682	1493.1736	1534.8355	1815.3711	2838.5504	3056.3459	3059.7676	3109.9385	3115.0962	3119.145	3125.6761	3129.6855	3166.7608	3206.279
O=CC1CC11C2CC1C2	O=C[C@H]1C[C@]21[C@H]1C[C@@H]2C1	
InChI=1S/C8H10O/c9-4-7-3-8(7)5-1-6(8)2-5/h4-7H,1-3H2	InChI=1S/C8H10O/c9-4-7-3-8(7)5-1-6(8)2-5/h4-7H,1-3H2/t5-,6+,7-,8-/m1/s1
