18
gdb 51944	5.18658	0.76198	0.71837	5.2009	76.63	-0.2482	-0.0272	0.221	1583.3405	0.146115	-439.082218	-439.072908	-439.071964	-439.117697	32.761	
N	-0.2045371244	 1.0296004228	-0.0873991835	-0.445096
C	-0.4102000553	-0.1937209544	 0.132678888	 0.149997
O	-0.4191683541	-1.0633716294	-0.9053419388	-0.166642
C	-0.6815789515	-2.4110481144	-0.6028253714	-0.204412
C	-2.1252904366	-2.6804476593	-0.1687552516	 0.364162
O	-2.8837037221	-1.7756025164	 0.1014341001	-0.317294
C	-2.5061269391	-4.1149636389	-0.0789374336	-0.1131
C	-3.5143182998	-4.505389685	 0.9941425054	-0.246528
C	-3.9464366299	-4.4726119513	-0.4288809042	-0.244781
H	-0.2130182896	 1.5454438615	 0.7898289103	 0.229389
H	-0.5711121648	-0.6696443453	 1.1074052206	 0.088536
H	-0.4626280962	-2.9801059761	-1.5118409485	 0.146793
H	-0.0111502801	-2.7963216307	 0.1832519675	 0.128998
H	-1.7373552843	-4.8373071405	-0.332039687	 0.092499
H	-3.3685292097	-5.4636627595	 1.4788271628	 0.123728
H	-3.8469681111	-3.6980257325	 1.6362852397	 0.142564
H	-4.5680262072	-3.6430340549	-0.7451913116	 0.146145
H	-4.1051231242	-5.4070789256	-0.9540765442	 0.125043
43.8292	65.5164	85.5539	154.6594	196.5968	250.1385	292.8604	313.7921	366.3302	566.3501	614.3121	696.2382	791.1492	814.1926	829.5614	844.3543	870.406	904.994	974.7713	1031.2405	1033.5504	1051.2724	1086.588	1099.3095	1112.4965	1126.1715	1186.522	1210.7175	1223.4181	1244.0886	1320.9599	1373.7932	1413.6427	1422.6475	1454.9808	1468.6532	1486.4597	1749.612	1802.0359	2980.2093	3045.8737	3086.0121	3142.6634	3144.6416	3166.113	3230.7797	3245.2187	3521.9869
N=COCC(=O)C1CC1	[NH][CH]OCC(=O)C1CC1	
InChI=1S/C6H9NO2/c7-4-9-3-6(8)5-1-2-5/h4-5,7H,1-3H2	InChI=1S/C6H9NO2/c7-4-9-3-6(8)5-1-2-5/h4-5,7H,1-3H2
