16
gdb 12486	3.30401	2.04725	1.44421	3.3923	60.76	-0.263	0.0076	0.2706	859.9945	0.132158	-420.904973	-420.897774	-420.89683	-420.936923	26.266	
O	-0.0299991253	 0.0414720557	 0.6397951245	-0.30792
C	-0.045933808	 1.0956279914	 0.0680604777	 0.403996
C	-1.2537747183	 2.0142749915	 0.0232134763	-0.313331
C	-1.7763893116	 2.2732879254	-1.4038440235	-0.218462
C	-0.6757058201	 2.8480541026	-2.3185549169	-0.084191
O	 0.2816071104	 3.5522693167	-1.5301151779	-0.231855
C	 1.359248196	 2.7778910721	-1.1153734704	 0.011781
O	 1.0603664526	 1.4578758597	-0.6496946711	-0.236434
H	-2.023490032	 1.5409138692	 0.6342661249	 0.129163
H	-0.9915299369	 2.9717776135	 0.4830028808	 0.135462
H	-2.1760598945	 1.3501840027	-1.8369170939	 0.11985
H	-2.6108608665	 2.9776784669	-1.3315020229	 0.114763
H	-0.1824371805	 2.0532400013	-2.8912813722	 0.11644
H	-1.0874066279	 3.5690503142	-3.0294620887	 0.118873
H	 2.0629613462	 2.592301878	-1.9383881639	 0.11633
H	 1.8541837564	 3.3430428489	-0.3180922527	 0.125537
66.7588	129.108	183.1494	296.1446	340.684	404.6375	500.181	552.5534	676.9236	721.7831	758.5099	817.9041	881.3093	927.9706	975.3736	1048.5407	1056.784	1094.1878	1120.7774	1151.7624	1186.7298	1238.3694	1282.9126	1289.6873	1319.0717	1345.2873	1375.758	1404.3722	1464.0729	1475.9399	1493.8568	1510.2871	1523.3997	1846.4741	3010.2442	3030.1543	3048.2897	3066.9766	3073.2097	3084.9881	3103.313	3132.0171
O=C1CCCOCO1	O=C1CCCOCO1	
InChI=1S/C5H8O3/c6-5-2-1-3-7-4-8-5/h1-4H2	InChI=1S/C5H8O3/c6-5-2-1-3-7-4-8-5/h1-4H2
