19
gdb 83433	2.9266	1.29624	1.13454	0.9633	75.75	-0.2422	0.0722	0.3143	1147.5458	0.159064	-422.966114	-422.957755	-422.956811	-422.999193	31.951	
O	-0.4942104752	 1.5290101282	-0.038668415	-0.429934
C	-0.3597320229	 0.1358829898	-0.1105294623	 0.042172
C	-0.4371407892	-0.760149266	 1.0956070871	-0.173098
C	-1.3907906611	-0.1703125663	 2.1402240042	-0.219133
C	-2.5290850052	-0.1346941162	 1.0741685653	-0.294
C	-1.5680241812	-0.7218357071	 0.0272323984	 0.327514
C	-1.9617250915	-1.728778936	-0.9921576363	-0.055275
C	-2.0468240328	-1.4045310386	-2.4256500113	-0.179205
O	-0.9483500409	-2.1576432185	-1.906995413	-0.233728
H	 0.3233717873	 1.886897599	 0.3230789233	 0.286629
H	 0.3295458714	-0.2207979692	-0.8753862537	 0.104811
H	 0.3069391712	-1.5284040192	 1.274881703	 0.089252
H	-1.6058836738	-0.8608863051	 2.9577468287	 0.101782
H	-1.0933809132	 0.7942177248	 2.5609781863	 0.096182
H	-3.3438624739	-0.8212149911	 1.3178957876	 0.099735
H	-2.9469357315	 0.8445919857	 0.8304011093	 0.11249
H	-2.5913688056	-2.5412108282	-0.6232403078	 0.08721
H	-2.7283643355	-1.95879687	-3.0693409232	 0.114783
H	-1.8052089563	-0.3942622059	-2.7514343407	 0.121812
72.7097	139.0402	192.5902	218.6062	242.0287	290.6974	355.4226	418.4315	500.5741	586.3161	661.1623	761.877	794.1517	808.6165	849.9449	874.6026	914.8637	952.1884	962.2461	1005.9744	1007.7318	1044.5485	1081.9278	1098.9457	1137.8079	1150.1146	1152.0257	1172.6744	1207.3252	1223.8985	1248.8861	1256.3473	1291.1623	1293.0881	1296.3902	1348.8094	1429.9036	1471.0756	1478.2705	1510.8389	1521.8517	3058.0614	3064.1474	3082.4926	3087.5854	3105.5133	3119.2117	3122.7981	3172.8591	3176.5194	3806.1101
OC1C2CCC12C1CO1	O[C@H]1[C@H]2CC[C@@]12[C@H]1CO1	
InChI=1S/C7H10O2/c8-6-4-1-2-7(4,6)5-3-9-5/h4-6,8H,1-3H2	InChI=1S/C7H10O2/c8-6-4-1-2-7(4,6)5-3-9-5/h4-6,8H,1-3H2/t4-,5-,6+,7-/m1/s1
