19
gdb 89502	3.03096	1.33372	1.14037	0.3635	78.27	-0.2356	0.0114	0.247	1129.3457	0.159006	-422.999414	-422.991022	-422.990078	-423.03205	33.143	
O	-0.0303793234	 1.4635836794	 0.0236768087	-0.430809
C	 0.0695131544	 0.04367058	-0.0352049359	 0.093431
C	-1.3693536515	-0.5453098681	-0.0014397799	-0.301918
C	-1.2753750714	-1.7883668306	-0.9070479392	 0.35538
O	-1.0919120357	-2.9989238077	-0.1800003133	-0.492962
C	-2.0743539576	-2.028918862	-2.2416764482	-0.287545
C	-0.6914594599	-2.2005673149	-2.9850495392	-0.326715
C	-0.0944062462	-1.4934113067	-1.7918806285	 0.302399
C	 0.6232532939	-0.4593520486	-1.3746851068	-0.279108
H	 0.8538569171	 1.819420071	 0.1552094606	 0.281407
H	 0.6672810074	-0.3192053518	 0.8153740594	 0.077355
H	-1.7142454874	-0.7762941674	 1.0101360722	 0.090602
H	-2.0286057069	 0.2155060808	-0.4305037376	 0.112939
H	-1.9431585577	-3.2360325985	 0.2039145238	 0.276263
H	-2.7426334215	-2.8942187202	-2.2509412072	 0.094079
H	-2.6099540806	-1.138744283	-2.5787727978	 0.109346
H	-0.4111057202	-3.2558507429	-3.0459370699	 0.124436
H	-0.5697255039	-1.7373388112	-3.9665102666	 0.109944
H	 1.4205112811	 0.0593147023	-1.8967254147	 0.091475
84.759	174.7947	227.5744	264.6888	283.754	324.4518	343.0941	388.6967	479.1915	512.0619	551.4545	627.6112	703.7605	768.4884	799.3075	834.7983	874.7377	897.4004	922.7969	945.9679	978.5302	1024.6354	1031.108	1077.1326	1108.2601	1127.1853	1166.8447	1185.8099	1202.4106	1234.6842	1248.7424	1263.3816	1271.4639	1289.9333	1320.0188	1386.8214	1416.5505	1460.4041	1469.1122	1477.4789	1742.308	2973.0277	3054.2641	3057.1982	3062.7838	3108.1778	3112.1489	3129.0327	3186.5444	3798.5852	3821.397
OC1CC2(O)CCC2=C1	O[C@H]1C[C@@]2(O)CC[C]2[CH]1	
InChI=1S/C7H10O2/c8-6-3-5-1-2-7(5,9)4-6/h3,6,8-9H,1-2,4H2	InChI=1S/C7H10O2/c8-6-3-5-1-2-7(5,9)4-6/h3,6,8-9H,1-2,4H2/t6-,7+/m1/s1
