19
gdb 37020	3.12139	1.77588	1.51219	0.056	84.08	-0.2225	0.0191	0.2416	945.4624	0.162191	-348.759161	-348.752455	-348.751511	-348.789679	28.788	
C	 0.0485878108	 1.4125633696	 0.009091461	-0.351426
C	 1.3805331478	 0.6915669364	 0.0250579911	 0.28107
C	 2.0392605202	 0.4246030087	 1.3780222347	-0.364295
C	 1.0272191234	-0.4751007082	 2.0727602524	-0.067789
C	-0.0179235546	-0.7773761838	 1.2939100656	-0.17817
C	 0.0694593255	-0.1013959176	-0.0316450211	 0.28107
C	-0.0128133745	-0.7867799619	-1.3951640212	-0.364295
C	 1.2467640266	-0.2960253402	-2.0944344956	-0.067788
C	 2.0068968602	 0.4771088077	-1.3103661456	-0.17817
H	-0.2986479718	 1.8726286575	 0.9290853894	 0.107954
H	-0.2069840155	 1.9483823347	-0.8998653912	 0.107954
H	 3.0089231437	-0.0783750288	 1.265063068	 0.108049
H	 2.2309599308	 1.3412708716	 1.9503739537	 0.107197
H	 1.1519354842	-0.7996996598	 3.1007244434	 0.090348
H	-0.8480271864	-1.4124310724	 1.5849290477	 0.091348
H	-0.0158067582	-1.8808132951	-1.2999039954	 0.108049
H	-0.9194169801	-0.5223723038	-1.9544256825	 0.107197
H	 1.4663965842	-0.5403155997	-3.1287037192	 0.090348
H	 2.9516086638	 0.922821915	-1.6034848055	 0.091348
192.5256	238.0386	302.9839	381.9479	463.2847	465.8641	558.7342	591.4165	640.5636	735.1812	763.3615	782.1947	785.4791	821.3984	903.2725	917.6416	933.9441	949.4097	952.565	963.4985	964.7741	979.8579	998.0348	1066.321	1080.2206	1123.2012	1151.0922	1162.3368	1188.8974	1232.4051	1248.0804	1303.7849	1305.3255	1357.0668	1363.8616	1397.6568	1465.7656	1478.1194	1483.7455	1654.5684	1656.7992	3014.4873	3015.6386	3043.1564	3044.0558	3115.6293	3174.2599	3174.4643	3198.7154	3199.408	3208.375
C1C23CC=CC12CC=C3	C1[C@@]23CC=C[C@@]12CC=C3	
InChI=1S/C9H10/c1-3-8-5-2-6-9(8,4-1)7-8/h1-3,6H,4-5,7H2	InChI=1S/C9H10/c1-3-8-5-2-6-9(8,4-1)7-8/h1-3,6H,4-5,7H2/t8-,9+/m1/s1
