15
gdb 29327	3.37593	1.28618	0.93271	1.7353	81.75	-0.182	0.0066	0.1887	1181.3107	0.111841	-416.804083	-416.7948	-416.793856	-416.837651	34.191	
N	-0.0363350675	 1.4416769475	-0.1546968523	-0.623633
C	-0.0336639663	 0.0364769568	-0.0597419832	 0.206592
C	-1.115329613	-0.824621476	 0.0106860609	-0.158628
N	-0.6489801365	-2.1126621575	 0.0279028833	-0.344273
C	 0.7338306371	-2.112948404	-0.0449126598	 0.11037
C	 1.5386433522	-3.2595805987	-0.0537931589	 0.208399
C	 2.2702680313	-4.2214092394	-0.0616285639	-0.464029
C	 1.1228426227	-0.7782489126	-0.0959462799	 0.163016
O	 2.3840183866	-0.2731878807	-0.1614700134	-0.458625
H	 0.8883102644	 1.8131257264	 0.0264109206	 0.251045
H	-0.6913166245	 1.8747331465	 0.484517615	 0.239871
H	-2.1708152673	-0.6103072172	 0.0494658254	 0.115734
H	-1.2127287908	-2.9415533758	 0.0676700291	 0.266203
H	 2.9058780717	-5.0713760276	-0.0724007574	 0.187577
H	 3.0054461598	-1.0107712576	-0.1656013554	 0.300382
110.9558	121.4716	140.9345	204.8648	252.0606	268.9527	313.4467	373.2146	392.8743	406.5297	478.9838	516.4331	590.17	618.013	692.6222	695.0748	703.4149	723.8995	765.0203	805.4234	1013.6298	1101.1632	1120.3231	1238.8787	1279.9071	1309.8705	1370.5749	1471.2346	1505.8497	1585.2706	1643.6878	1655.9055	2206.6267	3266.136	3501.21	3527.6406	3615.9468	3706.5412	3797.6355
NC1=CNC(C#C)=C1O	Nc1c[nH]c(C#C)c1O	
InChI=1S/C6H6N2O/c1-2-5-6(9)4(7)3-8-5/h1,3,8-9H,7H2	InChI=1S/C6H6N2O/c1-2-5-6(9)4(7)3-8-5/h1,3,8-9H,7H2
