19
gdb 112336	2.94874	1.15394	0.8825	4.1901	80.27	-0.2301	-0.0356	0.1945	1305.2154	0.158473	-423.068381	-423.059121	-423.058177	-423.102996	33.862	
C	-0.0625245134	 1.5023782198	 0.014316955	-0.480017
C	 0.0137083072	 0.0116884206	-0.0362601322	 0.333523
C	-0.0003223426	-0.7471655368	-1.1453187983	-0.29255
C	 0.0352037774	-2.1827007344	-0.821901217	 0.390375
O	 0.0297705042	-3.1164114848	-1.5920684343	-0.339962
C	 0.0709405117	-2.2884306162	 0.7116383609	-0.369504
C	 0.0870960189	-0.8354860023	 1.2299939793	-0.087536
C	 1.3224644674	-0.560019793	 2.0966113351	-0.089934
O	 1.2273762593	 0.7455946532	 2.6457723349	-0.417694
H	 0.7974171667	 1.9163962208	 0.5481588733	 0.152528
H	-0.1206699068	 1.936113599	-0.9867731511	 0.121775
H	-0.9448851831	 1.818031733	 0.585113587	 0.136863
H	-0.047917029	-0.3841481668	-2.1649564664	 0.104958
H	-0.7988627233	-2.8535382908	 1.0582601382	 0.132454
H	 0.9559542391	-2.8593900488	 1.0121119469	 0.125209
H	-0.787206264	-0.6194275421	 1.8579107065	 0.095763
H	 1.3623038708	-1.3180750742	 2.8937734574	 0.097981
H	 2.2309150994	-0.6750740856	 1.4834686275	 0.09452
H	 2.00779422	 0.9052070596	 3.1846690574	 0.291249
37.2884	131.4748	138.541	192.0882	221.0659	265.5423	296.0719	316.2796	363.4393	498.4737	539.039	573.7903	610.5419	665.0734	778.9427	852.2848	876.2155	911.9649	1001.44	1018.7346	1036.6343	1049.4757	1075.7215	1106.8326	1163.1493	1171.5541	1193.2628	1248.8962	1256.4258	1267.2129	1303.3347	1323.0238	1359.4913	1411.768	1448.9756	1455.0839	1471.3341	1477.9871	1521.2113	1672.8941	1810.2506	2968.3416	3001.1636	3026.8452	3032.9753	3055.5774	3093.4259	3099.5425	3130.6566	3209.7326	3830.5377
CC1=CC(=O)CC1CO	CC1=CC(=O)C[C@H]1CO	
InChI=1S/C7H10O2/c1-5-2-7(9)3-6(5)4-8/h2,6,8H,3-4H2,1H3	InChI=1S/C7H10O2/c1-5-2-7(9)3-6(5)4-8/h2,6,8H,3-4H2,1H3/t6-/m0/s1
