21
gdb 94736	2.8012	1.47453	1.24828	2.2155	77.82	-0.2411	0.0829	0.324	1113.7718	0.182564	-424.22687	-424.218258	-424.217314	-424.25968	33.4	
C	 0.0230089385	 1.6414473752	-0.0920701944	-0.414607
C	 0.1331522512	 0.1270642376	-0.0661095321	 0.135228
O	 1.022997338	-0.2981721858	-1.0993955913	-0.266368
C	 1.3231900366	-1.6617392735	-0.8389947522	-0.128699
C	 1.441906429	-1.787294956	 0.6864081633	 0.429282
C	 1.1590112737	-3.1633967214	 1.2506664565	-0.46603
O	 2.7113216929	-1.2617265022	 1.1538741755	-0.324911
C	 2.0891907446	-0.0691105929	 1.6712032966	-0.08768
C	 0.6916183171	-0.5239059377	 1.2064421953	-0.158484
H	 0.9901863235	 2.1135080435	 0.0995060031	 0.127038
H	-0.3279529279	 1.9746209657	-1.0724799892	 0.130358
H	-0.6901113708	 1.9852646789	 0.6635075805	 0.115714
H	-0.867017898	-0.3072707083	-0.2496239555	 0.062461
H	 0.5183232164	-2.3163152619	-1.213892477	 0.080395
H	 2.2577841198	-1.9145768262	-1.345675759	 0.11787
H	 1.8799248322	-3.8908498286	 0.8613507446	 0.129162
H	 1.2447745949	-3.1570388047	 2.3405236929	 0.12422
H	 0.1533866446	-3.5011261288	 0.9797718693	 0.116505
H	 2.2143120934	 0.0162100183	 2.7576592032	 0.096935
H	 2.4846401974	 0.8350941108	 1.1950697433	 0.106003
H	-0.0545798471	-0.6617773319	 1.9896660665	 0.075609
103.6227	190.685	200.4704	220.4298	240.7797	242.6725	341.7728	349.798	419.2618	513.3768	605.0556	617.7132	711.5405	788.1095	865.9115	871.1739	895.9284	929.8904	979.4049	986.7853	1007.5898	1031.3328	1054.6048	1085.6092	1128.5875	1149.2335	1168.1726	1172.5142	1183.9822	1228.1896	1256.0079	1261.4918	1324.0071	1344.5223	1361.2055	1386.5601	1400.0155	1407.9107	1414.3227	1481.3591	1484.5518	1488.9832	1494.6867	1501.4164	1518.755	2928.0182	2965.3153	3017.481	3034.4876	3046.6332	3062.121	3100.0316	3103.726	3107.48	3117.1704	3118.5062	3125.4702
CC1OCC2(C)OCC12	C[C@H]1OC[C@@]2(C)OC[C@@H]12	
InChI=1S/C7H12O2/c1-5-6-3-9-7(6,2)4-8-5/h5-6H,3-4H2,1-2H3	InChI=1S/C7H12O2/c1-5-6-3-9-7(6,2)4-8-5/h5-6H,3-4H2,1-2H3/t5-,6+,7-/m1/s1
