18
gdb 69440	3.9432	1.16019	1.01246	4.9493	76.36	-0.256	0.0227	0.2787	1188.8217	0.149528	-398.121741	-398.113566	-398.112622	-398.154355	31.24	
C	 0.010685701	 1.4887140469	-0.1018207651	-0.47297
C	-0.0134743055	-0.0096095573	 0.044594943	 0.334063
C	-1.2935822696	-0.7668265064	-0.2945585754	-0.233618
N	-1.0404355086	-2.1139649971	 0.2272735695	-0.321719
C	-0.265727812	-1.9607274424	 1.4633511814	-0.14731
C	 0.4463351544	-3.2039751932	 1.7959743043	 0.288986
N	 0.997973194	-4.1782558251	 2.0804923271	-0.320039
C	 0.6458955947	-0.7738351909	 1.1406295594	-0.065685
N	 1.2442395188	-0.7322664715	-0.1944313661	-0.360826
H	 0.9776420163	 1.8847616666	 0.2160255494	 0.137539
H	-0.1425598114	 1.7793853215	-1.1471888052	 0.126458
H	-0.7770570573	 1.9580127953	 0.4974178449	 0.117296
H	-2.1439142105	-0.2531782743	 0.186219517	 0.095349
H	-1.4965714195	-0.8140726408	-1.3710910292	 0.115485
H	-1.8736314587	-2.6747244585	 0.3481590989	 0.240323
H	-0.8709710509	-1.6859884067	 2.3458377883	 0.11137
H	 1.2110978605	-0.3261712078	 1.9508587581	 0.107695
H	 1.0725733646	-1.6094054782	-0.6837386906	 0.247605
99.5741	142.177	188.4127	228.9363	293.5625	321.7761	390.4115	430.3862	500.7186	535.3459	596.9827	642.4166	704.3643	814.8449	866.3258	880.5675	940.6313	994.5417	1001.3846	1013.0749	1038.8602	1082.4939	1099.7274	1110.6936	1136.8942	1172.0288	1225.3616	1266.7687	1299.9587	1321.3553	1345.3073	1359.1307	1408.7697	1428.9997	1457.3601	1487.6425	1495.6678	1518.6383	2362.1045	2940.4663	2955.7488	3033.8348	3049.4617	3093.9169	3128.4072	3173.3258	3479.6007	3576.0443
CC12CNC(C#N)C1N2	C[C@]12CN[C@@H](C#N)[C@H]1N2	
InChI=1S/C6H9N3/c1-6-3-8-4(2-7)5(6)9-6/h4-5,8-9H,3H2,1H3	InChI=1S/C6H9N3/c1-6-3-8-4(2-7)5(6)9-6/h4-5,8-9H,3H2,1H3/t4-,5+,6-/m0/s1
