17
gdb 62538	2.35691	1.44118	1.22471	3.2388	76.89	-0.2452	0.0136	0.2588	1099.0217	0.133445	-417.963963	-417.954548	-417.953604	-417.997798	35.229	
C	-0.14660074	 1.5820096531	-0.0030102281	-0.424688
C	-0.020136478	 0.0714534233	 0.0853752427	 0.34529
O	-1.2859337815	-0.4508399565	 0.3242711911	-0.451023
C	 0.836498278	-0.5757648657	-1.1084610771	-0.268989
N	 1.9406929084	-0.6907381933	-0.1297620862	-0.328245
C	 1.1356450122	-0.4237239106	 0.9805254074	 0.304023
N	 1.2278533871	-0.5435775421	 2.2334561846	-0.541079
C	 0.3100193046	-1.838487762	-1.591814472	 0.341658
C	-0.1396634807	-2.895485699	-1.9501418387	-0.43816
H	 0.8159473781	 2.0417075815	-0.2402922263	 0.126655
H	-0.8741113006	 1.8491681037	-0.7750083493	 0.129133
H	-0.4956245986	 1.9718745184	 0.9563841223	 0.146983
H	-1.2143011743	-1.4071972712	 0.4258755004	 0.288581
H	 1.0629334302	 0.1019048568	-1.9373902809	 0.106806
H	 2.6546742468	-1.405858424	-0.1717547724	 0.243772
H	 2.1171179034	-0.9608544856	 2.5157766708	 0.211764
H	-0.5291332549	-3.8236676567	-2.2900180085	 0.207522
76.114	120.8876	157.1506	216.9165	232.4964	269.7079	312.7899	321.4618	376.5251	452.2078	471.838	548.6661	605.2691	642.7357	658.0247	694.8717	701.1059	794.839	834.9718	855.5304	975.7206	989.3373	1034.5262	1059.497	1105.3539	1128.2541	1178.6123	1266.0231	1304.2551	1325.389	1361.1187	1389.7731	1415.5353	1480.6213	1494.0352	1798.6577	2227.1971	3047.9316	3058.1334	3125.4131	3133.8709	3452.2314	3499.5938	3584.1292	3796.129
CC1(O)C(NC1=N)C#C	C[C@@]1(O)[C@@H](N[C]1[NH])C#C	
InChI=1S/C6H8N2O/c1-3-4-6(2,9)5(7)8-4/h1,4,9H,2H3,(H2,7,8)	InChI=1S/C6H8N2O/c1-3-4-6(2,9)5(7)8-4/h1,4,9H,2H3,(H2,7,8)/t4-,6+/m0/s1
