17
gdb 91051	2.13684	1.96528	1.6224	1.6172	66.23	-0.2376	0.0619	0.2995	920.7894	0.135218	-458.890316	-458.882748	-458.881803	-458.921835	30.594	
O	 0.1093453223	 1.4179022851	-0.156258332	-0.440996
C	 0.0228521969	 0.0295237352	-0.0002496555	 0.070049
C	 0.2896567164	-0.5993079389	 1.4133632765	-0.280675
C	-1.109216103	-1.2740983138	 1.3792293155	-0.111211
C	-2.2830370927	-0.4339839906	 1.9412046393	 0.018969
O	-2.0026604901	 0.9596315448	 1.6961929513	-0.256868
C	-2.5556342555	 0.1748469712	 0.6284951268	-0.064222
C	-1.3932595585	-0.6425845608	-0.0189689279	 0.347938
O	-1.7572308886	-1.4723487743	-1.0776617783	-0.48231
H	-0.4215914217	 1.7978101402	 0.555830876	 0.295356
H	 0.6539258139	-0.4189396311	-0.7737840048	 0.09197
H	 1.1223527454	-1.3052112685	 1.4331644675	 0.106226
H	 0.4283069415	 0.1404235284	 2.2039003117	 0.109309
H	-1.1935477006	-2.3504677023	 1.517784788	 0.089149
H	-2.9377291846	-0.6448820696	 2.7789217669	 0.111298
H	-3.4738240603	 0.5271894798	 0.1699343701	 0.110216
H	-1.834179421	-0.9291546746	-1.8713272311	 0.285803
148.1784	223.5937	244.0626	282.4815	327.3123	338.2295	439.8057	504.1476	555.5884	564.9767	660.6078	686.6131	779.9316	801.6595	823.1778	850.8972	888.2006	955.7525	979.0452	998.7224	1024.8444	1052.1073	1091.7448	1099.8133	1122.4523	1145.3164	1194.1006	1212.807	1235.3093	1243.4879	1280.4894	1298.3534	1325.5459	1352.7122	1393.865	1443.0794	1467.3076	3064.5967	3074.3778	3129.5604	3139.6575	3169.5202	3188.7887	3767.823	3782.9929
OC1CC2C3OC3C12O	O[C@H]1C[C@H]2[C@H]3O[C@H]3[C@@]12O	
InChI=1S/C6H8O3/c7-3-1-2-4-5(9-4)6(2,3)8/h2-5,7-8H,1H2	InChI=1S/C6H8O3/c7-3-1-2-4-5(9-4)6(2,3)8/h2-5,7-8H,1H2/t2-,3-,4+,5+,6-/m0/s1
