17
gdb 33224	5.49411	0.79206	0.72578	2.7271	71.08	-0.206	0.0394	0.2454	1517.5258	0.137114	-455.160982	-455.15239	-455.151445	-455.195449	30.982	
O	 0.5712046716	 0.1861519044	-1.0905944671	-0.416244
C	-0.0663274377	 0.2068983093	 0.1698686405	-0.067545
C	-1.5700031508	 0.3720683956	 0.0454968586	-0.088044
O	-2.0519632401	-0.7784613177	-0.6560258796	-0.288022
C	-3.3726510711	-0.7685375144	-0.9283912689	 0.407847
C	-4.4125561855	 0.0917628285	-0.6860098144	-0.220303
N	-5.5801630335	-0.4370954947	-1.2075036917	-0.247974
C	-5.2490457093	-1.5807415872	-1.7454477049	 0.008306
N	-3.9070219335	-1.8367252436	-1.6053962224	-0.336352
H	 0.1350277685	-0.4997729122	-1.6079333437	 0.289943
H	 0.1482178843	-0.7045614225	 0.7499188145	 0.099148
H	 0.3425708233	 1.0590463194	 0.7219929694	 0.118526
H	-2.0492940001	 0.4341594715	 1.031859628	 0.112864
H	-1.8131113504	 1.2754991275	-0.5283761544	 0.122835
H	-4.3968119134	 1.0415640435	-0.1777353642	 0.107923
H	-5.912368637	-2.2688042566	-2.2470163172	 0.129632
H	-3.3932912552	-2.6435080408	-1.9175986424	 0.267459
49.4602	59.7099	126.8874	172.0376	290.5658	315.7363	382.7647	455.2503	480.1706	492.8041	670.4522	682.1461	723.0278	779.0384	787.6359	885.7895	908.6984	935.5467	1035.6783	1064.7608	1092.4868	1102.8815	1132.622	1137.3923	1232.4635	1262.9591	1272.9444	1283.9936	1384.2468	1390.0133	1404.4547	1433.682	1455.1609	1495.9635	1504.7389	1530.4177	1628.9096	2986.2837	3010.4022	3061.7975	3086.2125	3254.022	3266.2711	3667.6784	3809.7914
OCCOC1=CN=CN1	OCCOc1cnc[nH]1	
InChI=1S/C5H8N2O2/c8-1-2-9-5-3-6-4-7-5/h3-4,8H,1-2H2,(H,6,7)	InChI=1S/C5H8N2O2/c8-1-2-9-5-3-6-4-7-5/h3-4,8H,1-2H2,(H,6,7)
