18
gdb 50263	3.34699	1.39961	1.27499	2.3413	71.6	-0.222	-0.0321	0.1899	1028.804	0.14868	-439.046104	-439.03869	-439.037746	-439.078283	28.835	
O	-0.3471334181	 0.6120994241	 1.2097614386	-0.243227
C	 0.5119404825	 0.6936784572	 0.3706566865	 0.133655
C	 1.1828807603	 1.9992947884	-0.054782802	 0.002789
C	 1.3974067879	 2.9826229898	 1.1417472751	-0.210536
N	 2.7913305639	 3.0144733445	 1.6045661387	-0.114811
C	 3.6558289146	 3.3658012871	 0.414543642	-0.18264
C	 3.5714484544	 1.8899502864	-0.0167496835	 0.113245
C	 3.3504330306	 1.614397369	 1.4871567011	-0.217974
O	 2.3786468014	 1.683873373	-0.7681953212	-0.282222
H	 0.886984445	-0.1911959898	-0.1907684767	 0.092704
H	 0.4949269033	 2.4526374535	-0.7819647683	 0.118517
H	 1.1146188626	 4.000008229	 0.8584083797	 0.113884
H	 0.7388313188	 2.6667098924	 1.9566564525	 0.138412
H	 3.239240373	 4.1108805948	-0.2681629785	 0.107764
H	 4.6483719451	 3.675839958	 0.7538140353	 0.110022
H	 4.3767601423	 1.4078070041	-0.5756825047	 0.082546
H	 4.2855126077	 1.5373092359	 2.0481618123	 0.117551
H	 2.6817242048	 0.8048707926	 1.7920047132	 0.120319
77.1879	124.0126	201.9159	335.5807	381.0782	448.2426	462.4135	487.3465	577.5991	670.3363	780.1884	808.0877	828.3163	878.515	888.4222	928.3322	939.0062	983.6878	1001.6761	1009.5964	1073.9438	1080.2905	1115.6994	1137.0161	1174.5571	1241.491	1252.5707	1256.5497	1272.6047	1276.6015	1300.78	1330.1784	1351.7809	1377.4652	1390.3657	1485.2466	1500.1138	1516.7602	1827.0003	2891.0141	3012.9713	3050.5063	3055.8067	3060.4872	3086.855	3102.8299	3114.2126	3115.5615
O=CC1CN2CC(C2)O1	O=C[C@H]1CN2C[C@@H](C2)O1	
InChI=1S/C6H9NO2/c8-4-6-3-7-1-5(2-7)9-6/h4-6H,1-3H2	InChI=1S/C6H9NO2/c8-4-6-3-7-1-5(2-7)9-6/h4-6H,1-3H2/t6-/m1/s1
