16
gdb 130952	6.30614	0.72625	0.68911	2.462	71.95	-0.2627	-0.0425	0.2202	1557.1185	0.124504	-434.069251	-434.060867	-434.059923	-434.104685	28.62	
O	-0.2835676229	 0.031424951	-0.2410365324	-0.224587
C	 0.0173401349	 1.1608927133	 0.0418104154	 0.154155
C	 1.3740705671	 1.7809173326	-0.2198825999	-0.274484
C	 1.2547230343	 3.0312469444	-1.1101625891	-0.174471
N	 2.5131782391	 3.7461905432	-1.2256291997	 0.082933
C	 3.5165377789	 3.588468966	-2.1224192636	-0.103298
C	 4.4795458174	 4.4766627037	-1.7089372543	-0.063702
N	 4.0289964214	 5.120473526	-0.5974980277	-0.185171
N	 2.840786169	 4.6760333216	-0.3036414537	-0.151667
H	-0.713897556	 1.8456806231	 0.5312138195	 0.084409
H	 1.7995760073	 2.0931679317	 0.7425847108	 0.152769
H	 2.0289218819	 1.0308824657	-0.6700815194	 0.132287
H	 0.9200924278	 2.7620658861	-2.1154381433	 0.141217
H	 0.5330035772	 3.7345272135	-0.6868373535	 0.152101
H	 3.4569564328	 2.8936001254	-2.9432074718	 0.147743
H	 5.4440193197	 4.6918367627	-2.139073287	 0.129767
30.3556	60.5331	66.1883	109.5524	276.3163	335.758	355.6154	518.3175	655.7101	715.9096	744.9124	777.898	786.1708	860.8904	861.5865	960.4498	988.7459	1037.8503	1070.7507	1087.949	1098.8446	1142.2468	1174.3507	1258.1598	1280.3432	1294.9425	1324.2407	1365.0704	1397.2614	1430.8397	1464.0629	1485.3515	1500.5887	1522.5123	1839.5314	2864.9515	3038.2818	3070.0609	3109.2377	3128.6477	3269.7202	3290.3592
O=CCCN1C=CN=N1	O=CCCn1ccnn1	
InChI=1S/C5H7N3O/c9-5-1-3-8-4-2-6-7-8/h2,4-5H,1,3H2	InChI=1S/C5H7N3O/c9-5-1-3-8-4-2-6-7-8/h2,4-5H,1,3H2
