15
gdb 47316	3.04286	1.3548	1.0345	3.7642	62.51	-0.2781	-0.0221	0.2559	1099.1937	0.113105	-494.95169	-494.943925	-494.942981	-494.984861	28.113	
O	 0.0538700923	 0.0701652729	-0.765168661	-0.295339
C	-0.0354956882	 1.0694400234	-0.1102239502	 0.39348
C	-1.3988019575	 1.6353078562	 0.2768067287	-0.333825
C	-1.5134870791	 2.6274773699	 1.4246751255	-0.11127
O	-0.9348517264	 3.8986547819	 1.112193873	-0.211645
C	 0.4072271936	 4.0127010134	 0.996557725	 0.401014
O	 0.9032724101	 5.0793990112	 0.7701726338	-0.300785
C	 1.240875617	 2.7448760886	 1.2050468848	-0.206215
O	 1.1081713758	 1.7366267377	 0.1993487067	-0.222251
H	-1.7953514196	 2.1085294726	-0.6300066406	 0.165777
H	-2.035963502	 0.7689625053	 0.4745307881	 0.15373
H	-2.567839591	 2.8458722634	 1.6048169789	 0.143201
H	-1.0980100887	 2.2326598426	 2.358317364	 0.125059
H	 2.2824843924	 3.0562131463	 1.1499586607	 0.164045
H	 1.0581913213	 2.3184905147	 2.1986635125	 0.135022
63.1504	83.1654	158.1812	283.1195	356.014	363.4801	441.9026	492.7668	544.5067	558.4222	671.2019	696.4185	773.053	842.0922	919.1976	957.9895	1005.1388	1075.9302	1093.8497	1112.0828	1188.3857	1226.6958	1250.9706	1294.2827	1328.302	1370.237	1397.4291	1418.2711	1442.6911	1493.4651	1523.649	1845.6432	1857.4449	3036.2678	3047.2782	3054.8719	3107.7561	3116.2721	3155.606
O=C1CCOC(=O)CO1	O=C1CCOC(=O)CO1	
InChI=1S/C5H6O4/c6-4-1-2-8-5(7)3-9-4/h1-3H2	InChI=1S/C5H6O4/c6-4-1-2-8-5(7)3-9-4/h1-3H2
