17
gdb 28778	3.2836	1.6708	1.12276	3.4751	82.07	-0.2067	-0.0115	0.1952	1055.9849	0.138561	-380.924861	-380.917505	-380.916561	-380.956682	28.347	
C	-0.0205170703	 1.4911858823	 0.0437094187	-0.496552
C	-0.0104895303	 0.0014772784	-0.0135306953	 0.321192
N	-0.03287872	-0.7347113686	-1.1083025916	-0.318492
C	-0.0109443971	-2.0569940847	-0.7014850962	-0.229815
C	 0.024287144	-2.1270943145	 0.6627489145	 0.300677
C	 0.0623295032	-3.0101996195	 1.8798252742	-0.418634
C	 0.0821896723	-1.9805062595	 3.0017649948	-0.130316
C	 0.0592046323	-0.7424382652	 2.4946783549	-0.024084
N	 0.0242533741	-0.8073920753	 1.0905564905	-0.050385
H	 0.8770556154	 1.8904735094	 0.5309071245	 0.129319
H	-0.0566902926	 1.8740804615	-0.9769600379	 0.156839
H	-0.8906742134	 1.8762902173	 0.5885432925	 0.129066
H	-0.022629595	-2.8606385265	-1.4214121728	 0.105493
H	-0.809013798	-3.673750076	 1.9552116344	 0.137635
H	 0.9472120094	-3.6592340279	 1.9108267447	 0.137628
H	 0.1108680487	-2.2283837095	 4.0526816767	 0.113648
H	 0.0641120473	 0.2137988983	 2.9961729434	 0.136782
106.9027	170.8401	180.3595	249.9471	319.9197	447.6459	504.7232	625.2681	658.377	672.3692	680.4982	731.5567	785.9473	829.5105	885.496	911.5719	936.702	953.5564	990.624	1042.5315	1061.6597	1141.2153	1146.1828	1164.8692	1203.9025	1249.5313	1300.7835	1337.9092	1383.4989	1409.0412	1443.3141	1459.7098	1482.6647	1496.4778	1536.6936	1599.2503	1658.4372	3021.6418	3025.7318	3043.019	3072.9773	3147.2579	3237.5199	3251.6153	3261.8425
CC1=NC=C2CC=CN12	Cc1ncc2CC=Cn12	
InChI=1S/C7H8N2/c1-6-8-5-7-3-2-4-9(6)7/h2,4-5H,3H2,1H3	InChI=1S/C7H8N2/c1-6-8-5-7-3-2-4-9(6)7/h2,4-5H,3H2,1H3
