17
gdb 78649	2.97118	1.58645	1.20103	1.9778	74.17	-0.2397	0.018	0.2577	1044.5855	0.13554	-417.933182	-417.92531	-417.924366	-417.965145	30.902	
C	-0.1737363698	 1.4360152721	 0.0345801279	-0.403948
C	 0.0673627918	-0.0599084844	 0.0129699702	 0.037777
C	 0.9056219868	-0.5900521411	-1.1479866154	-0.127399
C	 2.131730551	-0.4815815544	-0.2987201456	-0.122359
N	 1.224809182	-0.4660152398	 0.9421370009	-0.224739
C	 1.1802298845	-1.9464076511	 0.8105474583	 0.316349
N	 1.0787055519	-2.8770231562	 1.6475919534	-0.57801
C	 1.5619893782	-1.8774997063	-0.6174276537	 0.340174
O	 1.9766213699	-2.8517522248	-1.479415119	-0.457369
H	 0.7480955904	 1.9864530085	-0.1758264814	 0.123942
H	-0.9205131342	 1.7137921948	-0.7169716016	 0.118495
H	-0.5415114532	 1.7451391409	 1.0171791127	 0.129564
H	-0.8533456825	-0.6085752381	 0.2459283971	 0.087027
H	 0.8088600611	-0.4412688252	-2.2175528655	 0.107278
H	 3.1240082461	-0.064597121	-0.3744958939	 0.119322
H	 0.929651056	-2.4973491891	 2.5850977275	 0.229149
H	 2.5387393002	-3.4614304148	-0.986004042	 0.304746
144.0563	189.8715	221.6239	240.2373	251.2218	346.4235	370.782	475.295	495.5867	640.8262	704.3308	745.7786	771.0932	807.3988	818.9643	867.4812	888.0257	904.8329	933.7991	957.8697	962.4216	1006.9698	1049.6433	1079.4811	1121.9752	1144.4803	1175.6787	1232.6775	1278.4679	1285.6606	1355.4917	1382.9666	1410.5102	1460.0734	1487.3507	1492.2484	1815.6509	3035.9909	3038.8452	3108.3546	3118.7404	3183.2014	3242.089	3460.1715	3790.3643
CC1C2C3N1C(=N)C23O	C[C@H]1[C@H]2[C@H]3N1[C]([NH])[C@@]23O	
InChI=1S/C6H8N2O/c1-2-3-4-6(3,9)5(7)8(2)4/h2-4,7,9H,1H3	InChI=1S/C6H8N2O/c1-2-3-4-6(3,9)5(7)8(2)4/h2-4,7,9H,1H3/t2-,3-,4+,6+/m0/s1
