19
gdb 70126	2.57834	1.68796	1.22656	1.3685	83.35	-0.212	-0.0192	0.1929	1057.3497	0.160442	-385.884019	-385.876189	-385.875245	-385.915807	31.888	
O	 0.1077171187	 1.3506231746	 0.0349233584	-0.479373
C	 0.0447439602	-0.0482260387	-0.0521539192	 0.413572
C	-0.6436097191	-0.6648137873	-1.2494647256	-0.370749
C	-1.3264339542	-0.6153467634	 0.1185993425	-0.088063
C	-1.6104125364	-1.8207688615	 0.9376898199	-0.088061
C	-1.0040199052	-2.1702627471	 2.0840385774	-0.088492
C	 0.1338750559	-1.5092912491	 2.7235727833	-0.0598
C	 1.1249626764	-0.8687577941	 2.0890032961	-0.074094
C	 1.2135554292	-0.7837922362	 0.5853660811	-0.326491
H	 0.8265803185	 1.6478807772	-0.5343757745	 0.277309
H	-1.0328045885	 0.0069996326	-2.0060032202	 0.111072
H	-0.2856357389	-1.6210861519	-1.6164587571	 0.108245
H	-2.1090604574	 0.1400003413	 0.1647298338	 0.1092
H	-2.4587054167	-2.4189376775	 0.6074245535	 0.088917
H	-1.4063073944	-3.028428304	 2.6204238505	 0.087198
H	 0.1789288864	-1.5931711794	 3.8076113546	 0.086503
H	 1.9286993513	-0.4300057644	 2.6732132847	 0.089275
H	 1.2377694434	-1.8040925104	 0.1794200866	 0.115626
H	 2.1492947907	-0.3033216708	 0.2765638341	 0.088206
130.8585	172.8954	293.4068	298.9777	338.0728	367.2991	404.755	408.2439	474.7863	557.2263	617.1965	696.192	756.4367	804.9196	822.9045	857.1758	901.4208	928.5372	934.9769	940.8807	989.355	999.8593	1007.6032	1022.007	1043.4604	1100.5977	1110.9239	1188.2107	1232.3541	1245.2995	1256.7751	1290.0037	1339.8255	1355.2009	1407.3409	1426.7471	1452.8557	1461.6305	1495.4465	1671.8996	1701.7811	3014.062	3059.8494	3119.7504	3123.3137	3129.8748	3138.0656	3148.8159	3172.6557	3224.0628	3788.9081
OC12CC1C=CC=CC2	O[C@]12C[C@H]1C=CC=CC2	
InChI=1S/C8H10O/c9-8-5-3-1-2-4-7(8)6-8/h1-4,7,9H,5-6H2	InChI=1S/C8H10O/c9-8-5-3-1-2-4-7(8)6-8/h1-4,7,9H,5-6H2/t7-,8-/m1/s1
