18
gdb 41943	3.43921	1.46678	1.08262	2.1567	71.62	-0.2495	0.0149	0.2643	1076.2695	0.151354	-439.089692	-439.08252	-439.081576	-439.121536	27.613	
C	 0.004885767	 1.5610629647	 0.0876474426	-0.103356
O	 1.3898355253	 1.9118544589	-0.0666313908	-0.273786
C	 2.2227737765	 0.7503516105	 0.0575726226	-0.103463
C	 1.3169990231	-0.2899811263	 0.7100101526	 0.047288
N	 1.6589801228	-1.6947534267	 0.5894571625	-0.2942
C	 0.6544031191	-2.4694543364	 0.615794011	 0.133398
O	-0.6664351275	-2.1800326849	 0.7287524417	-0.238926
C	-1.0853347872	-0.7907004009	 0.7149101455	-0.113008
C	-0.0185889423	 0.0390015695	 0.0363905837	-0.027608
H	-0.3712678708	 1.9418997597	 1.0499050514	 0.094231
H	-0.5686049803	 2.0376334169	-0.7144377635	 0.107352
H	 2.5648106648	 0.4060776521	-0.9290648069	 0.100051
H	 3.0979908911	 1.0136637417	 0.6584853014	 0.109854
H	 1.2407865645	-0.0382333581	 1.7791295666	 0.092538
H	 0.7787795812	-3.5479772911	 0.542758365	 0.128456
H	-2.0472262262	-0.7847125126	 0.1954031014	 0.123233
H	-1.2477851413	-0.4711908684	 1.7515405412	 0.11831
H	 0.0538415301	-0.2821275887	-1.0112356781	 0.099638
109.5143	149.4179	192.0813	309.3773	357.3993	431.2006	488.8838	555.6864	591.052	676.4265	815.7689	862.9934	900.271	918.8248	962.6116	969.9987	982.245	1033.2878	1078.5038	1109.7475	1131.174	1147.8649	1158.209	1176.0831	1189.8089	1226.8251	1251.6813	1309.0625	1326.1876	1341.1155	1356.9862	1380.6201	1405.8619	1411.1147	1424.2549	1514.0809	1523.4109	1532.1029	1699.3332	2979.985	2984.1941	3004.5704	3021.8771	3037.6141	3062.6638	3083.6166	3094.7727	3166.3595
C1OCC2N=COCC12	C1OC[C@@H]2[N][CH]OC[C@@H]12	
InChI=1S/C6H9NO2/c1-5-2-9-4-7-6(5)3-8-1/h4-6H,1-3H2	InChI=1S/C6H9NO2/c1-5-2-9-4-7-6(5)3-8-1/h4-6H,1-3H2/t5-,6+/m1/s1
