19
gdb 119473	4.63711	0.86313	0.80249	2.5846	72.46	-0.249	0.0713	0.3203	1464.1456	0.157269	-460.10668	-460.09748	-460.096536	-460.141349	33.448	
C	-0.1331296863	 1.3916995438	 0.4075180133	-0.221589
O	-0.2698707371	 0.035800709	 0.7644759255	-0.237309
C	 0.9020203401	-0.7126456439	 0.5281098871	-0.190323
C	 0.6137447968	-2.1423456311	 0.8574807875	 0.421465
C	-0.5467637688	-3.025107832	 0.3920481566	-0.34318
C	-0.3584643405	-3.8674966278	 1.7162267342	 0.14204
O	-0.0089016038	-5.2178162294	 1.6049302478	-0.434605
C	 0.7725830945	-2.9004649184	 2.1106987643	-0.084932
O	 1.7438700517	-3.0118642966	 1.0502988838	-0.312704
H	 0.1025645992	 1.5098175547	-0.661834482	 0.107812
H	-1.0872128177	 1.8809610765	 0.6162666151	 0.130914
H	 0.657797071	 1.8894970121	 0.9900882842	 0.107737
H	 1.2112127347	-0.6255112799	-0.5284890861	 0.096514
H	 1.743359992	-0.3574689676	 1.1448785355	 0.102167
H	-1.5006600375	-2.4957181582	 0.3614020199	 0.124729
H	-0.3838359682	-3.5663257079	-0.5434011256	 0.102233
H	-1.2290092266	-3.8074445904	 2.3729494734	 0.097718
H	 0.8348302834	-5.2347004111	 1.1349420624	 0.287817
H	 1.1431956232	-2.6069989416	 3.086602953	 0.103495
64.6762	83.2535	95.7644	168.2145	221.42	263.8906	327.6722	394.9252	427.2668	452.7212	482.9176	611.0011	697.5265	743.7357	818.9794	863.723	931.3564	939.9474	971.9276	998.8074	1018.8245	1052.2687	1114.8128	1133.7778	1160.5035	1177.1026	1191.2268	1199.4205	1227.0966	1244.2656	1264.0643	1285.6241	1323.7733	1390.9893	1435.5958	1458.751	1479.9936	1485.6929	1492.6736	1503.7899	1522.0744	2950.0568	2973.9656	2991.9891	3018.6176	3069.2186	3095.6664	3119.0419	3136.5915	3183.4471	3772.581
COCC12CC(O)C1O2	COC[C@]12C[C@@H](O)[C@H]1O2	
InChI=1S/C6H10O3/c1-8-3-6-2-4(7)5(6)9-6/h4-5,7H,2-3H2,1H3	InChI=1S/C6H10O3/c1-8-3-6-2-4(7)5(6)9-6/h4-5,7H,2-3H2,1H3/t4-,5-,6-/m1/s1
