20
gdb 92722	2.08071	1.6033	0.98288	2.6612	82.92	-0.2123	-0.0275	0.1847	1238.0995	0.168786	-403.160487	-403.150801	-403.149857	-403.195541	34.63	
C	-0.1889317109	 1.5351922669	 0.0971232079	-0.327812
N	-0.0813666339	 0.0935137355	 0.1720165969	-0.072801
C	-1.3366720011	-0.6508037017	 0.0357896229	-0.200471
C	-1.1010308865	-1.8744792994	 0.8712947661	-0.192145
C	 0.0134983064	-1.7728952914	 1.5944799225	 0.314881
C	 0.5664392243	-2.7283104966	 2.6017754225	-0.48969
C	 0.6847825524	-0.4386138024	 1.2928508179	-0.1461
C	 2.1489993711	-0.645207366	 0.9028300486	 0.154753
O	 3.0639746548	-0.6827738427	 1.6836849772	-0.253501
H	 0.8068504277	 1.9897609809	 0.1167953362	 0.124085
H	-0.663878084	 1.8234622268	-0.8462256345	 0.123206
H	-0.7794706715	 1.9754869814	 0.922784452	 0.096907
H	-2.2077285638	-0.0817183944	 0.4152673595	 0.090612
H	-1.5506830218	-0.8768374507	-1.0191937059	 0.107963
H	-1.7950136376	-2.7061783396	 0.9038988852	 0.099906
H	-0.0460137743	-3.6312838674	 2.6639332525	 0.124575
H	 1.5946844342	-3.0205225995	 2.3626123502	 0.144312
H	 0.6034227643	-2.2694730477	 3.5977109792	 0.135371
H	 0.67585113	 0.2019629865	 2.1948216593	 0.082472
H	 2.287071	-0.7905488185	-0.1927298362	 0.083478
50.7408	75.9904	143.6206	186.532	210.9422	223.6625	247.1562	270.5189	379.2715	390.8932	467.3682	536.4707	565.9139	688.4602	814.6042	847.9995	917.4544	955.8407	1019.2433	1037.1259	1038.3694	1054.714	1070.3565	1087.8778	1147.5202	1179.9547	1196.1374	1211.7369	1257.4182	1281.5248	1294.9895	1326.5584	1378.5681	1387.0686	1420.8499	1464.1863	1475.2724	1486.1664	1489.8544	1504.6841	1521.2457	1727.9198	1826.7293	2881.307	2908.2298	2921.7627	2931.5593	2997.1695	3028.1063	3058.098	3079.9146	3100.2026	3119.5077	3203.2738
CN1CC=C(C)C1C=O	CN1CC=C(C)[C@H]1C=O	
InChI=1S/C7H11NO/c1-6-3-4-8(2)7(6)5-9/h3,5,7H,4H2,1-2H3	InChI=1S/C7H11NO/c1-6-3-4-8(2)7(6)5-9/h3,5,7H,4H2,1-2H3/t7-/m1/s1
