24
gdb 80394	2.12722	1.56305	1.34482	0.9155	89.61	-0.2221	0.0802	0.3023	1163.7213	0.215547	-368.376545	-368.366558	-368.365614	-368.410112	39.202	
C	-0.1165973783	 1.4853308241	-0.2965613307	-0.319563
N	 0.1745067712	 0.0829139285	-0.0483631818	-0.122814
C	 1.4524908236	-0.5381214212	-0.2928086722	-0.099098
C	 2.6321297512	 0.3392217193	 0.1630595261	-0.310318
C	 2.0761526535	 0.2982610748	 1.6316357739	 0.281675
C	 2.9648489111	-0.6024793677	 2.4996148848	-0.43234
C	 1.8230681634	 1.6155201553	 2.3687805592	-0.461482
C	 0.842470073	-0.5044894138	 1.0964277598	 0.297676
C	 0.0890532846	-1.5471605172	 1.8767626939	-0.489835
H	 0.7463441622	 2.1633988661	-0.2661351646	 0.107209
H	-0.5649226598	 1.5681596342	-1.2928217006	 0.117483
H	-0.8548860221	 1.8364724005	 0.4311502117	 0.121033
H	 1.5107634823	-1.352639684	-1.0091906142	 0.083465
H	 3.6005406053	-0.1580114162	 0.0696482751	 0.098276
H	 2.7072000245	 1.3229653451	-0.310705605	 0.0949
H	 3.9327856055	-0.1213919282	 2.6796317189	 0.110243
H	 2.5056908953	-0.7990082309	 3.4748391885	 0.111818
H	 3.1545524178	-1.5669607252	 2.0170842304	 0.113233
H	 1.2258980193	 2.3215534379	 1.7910265745	 0.114993
H	 1.298484762	 1.4330144987	 3.3140949925	 0.11208
H	 2.7722311976	 2.1067366358	 2.6148141417	 0.11018
H	-0.5394687293	-1.0832847758	 2.647278187	 0.115748
H	-0.5681173056	-2.1071022245	 1.2068732293	 0.129132
H	 0.7610308518	-2.2502563256	 2.3777781416	 0.116306
146.4686	174.4305	187.3255	197.4055	222.0534	258.9102	276.6903	285.1479	297.2111	361.1471	394.5846	424.3102	509.6628	556.521	632.838	639.3754	727.151	833.426	841.22	905.8289	935.0893	948.9158	965.5581	982.1586	1012.1167	1035.375	1074.9739	1126.8278	1139.9718	1152.7223	1162.1997	1187.6428	1223.6733	1231.1379	1257.3421	1269.6862	1295.7563	1396.1091	1403.1536	1416.8298	1432.0763	1453.9126	1477.6605	1482.1807	1487.6585	1491.2033	1494.7622	1501.0106	1503.4268	1512.2753	1519.5972	3005.9122	3021.6973	3026.7978	3029.9835	3050.1454	3065.6457	3080.0074	3088.4587	3090.9401	3095.6055	3097.8761	3103.2899	3123.198	3142.4547	3147.499
CN1C2CC(C)(C)C12C	CN1[C@H]2CC(C)(C)[C@@]12C	
InChI=1S/C8H15N/c1-7(2)5-6-8(7,3)9(6)4/h6H,5H2,1-4H3	InChI=1S/C8H15N/c1-7(2)5-6-8(7,3)9(6)4/h6H,5H2,1-4H3/t6-,8-,9?/m0/s1
