19
gdb 105951	2.61463	1.60852	1.23365	1.671	78.66	-0.2201	0.0589	0.279	1070.8083	0.157679	-385.777001	-385.768533	-385.767589	-385.81004	32.555	
C	-0.0056127363	 1.4919976885	-0.136713149	-0.528979
C	-0.0327882003	 0.0003543451	-0.0577011362	 0.286246
C	 0.8282053689	-1.0402904766	-0.7626452556	-0.145026
C	 0.824738828	-0.9574476186	 0.7599208451	-0.150304
C	-0.3446955574	-1.9820967557	 0.8097610778	-0.159008
C	-0.342106401	-2.065119118	-0.7097208766	-0.145573
C	-1.2179971781	-1.0353417662	-0.0085485622	 0.291189
C	-2.7004184479	-0.8741918983	-0.0101990615	-0.220201
O	-3.2342016951	-0.4231357941	-1.2524849438	-0.411631
H	 1.0279213338	 1.856290579	-0.1427187989	 0.126271
H	-0.4853030564	 1.8625161288	-1.0519860471	 0.112887
H	-0.5120589725	 1.9551518433	 0.7186000399	 0.122416
H	 1.6439488002	-0.8960006344	-1.4590245259	 0.083542
H	 1.6376069544	-0.7415773295	 1.4411567185	 0.083097
H	-0.6454989235	-2.7177391286	 1.544483113	 0.084886
H	-0.6376388229	-2.8768432373	-1.3611042296	 0.089156
H	-3.1683282217	-1.8480866224	 0.1752760188	 0.111477
H	-3.0105013107	-0.2079044739	 0.8118144584	 0.088461
H	-2.8390912217	 0.4328097688	-1.4450667052	 0.281095
75.6806	129.1699	186.2691	220.2669	246.3832	252.0211	348.2837	404.3987	583.3246	620.9916	674.1677	771.3326	780.8685	821.6936	838.5476	847.1451	855.3859	876.4877	922.6156	937.6724	961.3566	977.8811	1010.492	1023.7445	1046.2865	1099.3779	1101.167	1167.1952	1184.3898	1198.9232	1220.3259	1254.8036	1282.0639	1370.4569	1393.2923	1402.9428	1429.9081	1433.972	1481.9808	1490.2339	1496.1885	2965.2626	3010.1727	3059.2375	3065.4766	3086.0753	3183.91	3196.3526	3198.3079	3207.4685	3821.0526
CC12C3C1C1C3C21CO	C[C@@]12[C@H]3[C@@H]1[C@@H]1[C@H]3[C@]21CO	
InChI=1S/C8H10O/c1-7-3-4(7)6-5(3)8(6,7)2-9/h3-6,9H,2H2,1H3	InChI=1S/C8H10O/c1-7-3-4(7)6-5(3)8(6,7)2-9/h3-6,9H,2H2,1H3/t3-,4+,5-,6+,7+,8-
