23
gdb 118420	1.61359	1.1195	0.76452	2.4039	82.55	-0.2438	-0.0131	0.2307	1605.1559	0.20257	-425.449664	-425.438114	-425.43717	-425.487531	40.341	
C	-0.0352416075	 1.43424809	 0.2187380404	-0.394423
C	 0.0812687846	-0.0808499444	 0.0292287911	-0.180472
C	 0.6730111435	-0.5077625002	-1.3404535654	-0.085476
C	 2.169233695	-0.188423923	-1.4608654398	-0.20673
C	 2.7131476073	-0.3701936372	-2.879878656	-0.068674
O	 4.0909712125	-0.0488327569	-2.9809307745	-0.419024
C	 0.4169421335	-2.0119380021	-1.4991322629	 0.390629
C	-0.8927055598	-2.4151976179	-2.1520610219	-0.481694
O	 1.2118952921	-2.8354454165	-1.1044526673	-0.318317
H	 0.9386123572	 1.9303025229	 0.1756204847	 0.127556
H	-0.6715855091	 1.8812424083	-0.5530079523	 0.116197
H	-0.4793435534	 1.6666189478	 1.1916597056	 0.118392
H	 0.7015047649	-0.5164991894	 0.8215297969	 0.115984
H	-0.9153014023	-0.5254128165	 0.145521853	 0.097772
H	 0.111876853	 0.0207292253	-2.1243613754	 0.071513
H	 2.3695411624	 0.8403584883	-1.1467132099	 0.101748
H	 2.7118992818	-0.8552897138	-0.7802400387	 0.110171
H	 2.5174032327	-1.3952532617	-3.2309530144	 0.095216
H	 2.2016097482	 0.3125888922	-3.5686231702	 0.104246
H	 4.5764130175	-0.6813563032	-2.4415471893	 0.283062
H	-1.7341132222	-1.8404233581	-1.7519183426	 0.135618
H	-0.8394809132	-2.1903677742	-3.2245586009	 0.144899
H	-1.0675843187	-3.4835774895	-2.01950228	 0.141807
44.904	73.5713	79.592	100.3165	144.9382	150.4759	183.9852	238.7195	283.3496	315.6201	325.9587	346.8184	414.4714	487.3143	591.5288	606.7317	743.8368	775.8993	839.135	892.4984	952.0673	986.7732	1011.1257	1022.6315	1041.8718	1081.3204	1104.5046	1116.9477	1128.4857	1168.94	1208.3973	1265.324	1308.7437	1326.9874	1335.4443	1364.0289	1375.9617	1388.73	1408.6048	1413.6313	1425.1043	1462.5817	1474.9608	1475.8431	1488.0441	1500.0998	1506.7067	1511.6917	1805.0347	2985.7652	3005.4388	3022.315	3034.1428	3035.964	3041.028	3056.4	3062.6199	3094.9195	3095.929	3102.5043	3113.9715	3151.2363	3815.503
CCC(CCO)C(C)=O	CC[C@@H](CCO)C(=O)C	
InChI=1S/C7H14O2/c1-3-7(4-5-8)6(2)9/h7-8H,3-5H2,1-2H3	InChI=1S/C7H14O2/c1-3-7(4-5-8)6(2)9/h7-8H,3-5H2,1-2H3/t7-/m0/s1
