18
gdb 37944	3.31638	1.73058	1.33539	2.2101	77.01	-0.2392	0.0168	0.256	964.682	0.151227	-401.898466	-401.891766	-401.890822	-401.929875	26.852	
C	-0.0122041958	 1.6243743468	 0.0087299884	-0.221961
C	 1.4743307459	 1.1771661957	-0.1025940433	-0.089495
C	 1.164223868	 0.1871480049	 1.059096149	 0.010986
C	 2.0609045195	-0.9787430967	 1.4364844189	-0.127426
O	 2.1886668118	-2.0879714988	 0.5413229557	-0.221125
C	 2.2240710668	-1.9162037084	-0.7990586939	 0.112832
N	 1.7567579978	-1.0146595735	-1.5447082073	-0.296152
C	 0.9670865991	 0.1012148192	-1.120743369	 0.090751
C	-0.0467258607	 0.0703629464	 0.0845936053	-0.10023
H	-0.292446411	 2.160679516	 0.9179548515	 0.093853
H	-0.4530865486	 2.079817447	-0.8808184245	 0.097374
H	 2.3549228784	 1.8128090661	-0.2121940823	 0.073948
H	 0.9266210952	 0.7016437293	 1.9993813973	 0.07122
H	 3.071467293	-0.5997005199	 1.6491434558	 0.112589
H	 1.6849929616	-1.4301295655	 2.3596637327	 0.121091
H	 2.7319353935	-2.7713103352	-1.2464952601	 0.119264
H	 0.5344960935	 0.5487210077	-2.0201313756	 0.075819
H	-0.925824638	-0.567535921	 0.1868609715	 0.076663
63.3651	203.897	307.7144	355.2777	415.6727	518.9596	553.2057	679.6343	756.409	787.1169	807.437	832.112	887.56	892.7325	936.4095	961.8332	974.4607	1002.8259	1024.5546	1028.4655	1073.806	1092.5496	1100.4258	1110.5975	1169.3553	1176.2906	1218.6372	1224.0276	1228.0358	1242.7224	1274.2774	1314.6691	1398.7648	1416.4725	1432.109	1456.7952	1498.9749	1520.5442	1760.765	2999.9584	3019.8361	3056.2252	3062.3817	3078.7878	3097.5127	3105.8584	3127.6916	3133.4511
C1C2C3COC=NC2C13	C1[C@H]2[C@@H]3COC=N[C@H]2[C@H]13	
InChI=1S/C7H9NO/c1-4-6-2-9-3-8-7(4)5(1)6/h3-7H,1-2H2	InChI=1S/C7H9NO/c1-4-6-2-9-3-8-7(4)5(1)6/h3-7H,1-2H2/t4-,5+,6-,7+
