23
gdb 114047	2.72122	1.207	1.00102	1.1356	87.2	-0.2392	0.0828	0.322	1326.4853	0.204406	-388.260862	-388.250944	-388.25	-388.295215	37.286	
C	-0.0809205587	 1.385775824	-0.1281240906	-0.23754
O	-0.0418649112	 0.0705247239	 0.376450892	-0.241163
C	-1.2434669166	-0.6352881903	 0.1713018282	 0.158524
C	-1.5726951427	-1.2110621186	-1.250179856	-0.34377
C	-1.7135693014	-2.6039727419	-0.6134547673	 0.337273
C	-2.8210718527	-3.5618753679	-0.9499421587	-0.494179
C	-0.4186972206	-3.0236327799	 0.0252448449	-0.040034
C	 0.9795409474	-2.7710619989	-0.5030456614	-0.418391
C	-1.2905911428	-2.0336856522	 0.7626315899	-0.169036
H	 0.8787242119	 1.85427291	 0.1036198542	 0.12528
H	-0.2302067766	 1.4077595707	-1.2184159243	 0.106375
H	-0.8860500155	 1.9753766904	 0.3391086086	 0.101927
H	-2.0883182548	-0.0299569487	 0.533995936	 0.066815
H	-2.512001618	-0.8247913692	-1.654356342	 0.096366
H	-0.7930868335	-1.1005474033	-2.0099904599	 0.09767
H	-2.6819323905	-3.9964147121	-1.9478721386	 0.118607
H	-2.8608875895	-4.389699731	-0.2341559288	 0.116355
H	-3.7984054087	-3.0646318641	-0.9427437116	 0.112551
H	-0.5195293289	-4.0117134787	 0.4748836299	 0.078285
H	 1.1057435058	-1.7534829583	-0.8724258136	 0.132592
H	 1.716935733	-2.9160643248	 0.2939257047	 0.115043
H	 1.2214135495	-3.4712875061	-1.3113187836	 0.104109
H	-1.687984015	-2.2597495128	 1.7461149181	 0.076342
100.2919	121.1936	164.181	173.888	204.0963	216.422	240.5479	276.0407	331.3802	366.1032	455.9522	477.6513	549.0241	658.8993	719.783	744.8253	843.3277	896.6276	937.7714	957.5025	976.6106	1010.4521	1015.7671	1056.0713	1064.1596	1101.0904	1125.2382	1147.1567	1155.8077	1175.2158	1185.6105	1219.3006	1240.4105	1261.7664	1278.7871	1316.6373	1350.4865	1392.5438	1416.1855	1419.1217	1464.9127	1478.6816	1485.5418	1486.6848	1491.0318	1496.2888	1505.9294	1509.4658	1510.7154	2969.1283	2980.1736	3015.5788	3017.2648	3031.4955	3050.747	3071.2604	3085.7394	3091.7253	3101.1473	3104.3494	3112.6342	3151.8195	3167.5717
COC1CC2(C)C(C)C12	CO[C@H]1C[C@@]2(C)[C@@H](C)[C@@H]12	
InChI=1S/C8H14O/c1-5-7-6(9-3)4-8(5,7)2/h5-7H,4H2,1-3H3	InChI=1S/C8H14O/c1-5-7-6(9-3)4-8(5,7)2/h5-7H,4H2,1-3H3/t5-,6-,7-,8-/m0/s1
