19
gdb 90851	2.96019	1.79165	1.47133	1.5264	77.78	-0.2209	0.019	0.2398	943.8037	0.162325	-385.889495	-385.882574	-385.88163	-385.920387	29.202	
O	-0.0266536788	 1.4338379024	-0.0561556309	-0.442257
C	 0.0031146194	 0.021807652	 0.028935126	 0.16186
C	 0.6127755291	-0.5529639217	 1.3382786261	-0.280396
C	-0.0730781819	-1.9071860476	 1.4965532632	-0.047075
C	-1.5349308667	-1.9803880219	 1.9697399984	-0.083339
C	-2.2570168007	-0.698910803	 2.2182194893	-0.082581
C	-2.2423073367	 0.0811459223	 1.1348772767	-0.071337
C	-1.4350848222	-0.555454986	 0.0132928052	-0.117673
C	-1.2026802562	-2.0036569477	 0.4966098634	-0.083324
H	 0.8800368907	 1.7552895076	-0.051232109	 0.283037
H	 0.547396746	-0.4037235521	-0.8303332285	 0.061184
H	 1.6996718876	-0.6611765776	 1.2708081611	 0.087104
H	 0.3955143319	 0.133581183	 2.1629765691	 0.108835
H	 0.5368991762	-2.7793305659	 1.7046613632	 0.08062
H	-1.8290429257	-2.8856604733	 2.49016014	 0.079678
H	-2.6976898202	-0.4445148853	 3.1753789835	 0.09029
H	-2.6272365867	 1.090816878	 1.070943092	 0.103177
H	-1.8953166601	-0.4629429756	-0.9735428394	 0.07133
H	-1.371756515	-2.8620883974	-0.1411594393	 0.080866
144.466	248.9261	272.8181	321.3695	399.6921	494.8135	520.8626	634.7943	656.3776	718.0841	741.4344	788.0603	800.9346	817.7311	860.5894	907.2489	925.092	947.0722	971.4773	1000.0187	1006.8925	1019.1626	1045.8182	1054.4902	1094.2102	1114.4591	1128.312	1137.6747	1188.2573	1221.5026	1247.581	1276.4205	1287.8082	1312.1626	1324.4485	1364.5002	1373.0745	1388.533	1420.6239	1488.392	1660.7281	2959.5555	3046.6292	3077.6527	3088.4295	3159.9729	3167.8826	3186.8488	3192.521	3223.5579	3822.6823
OC1CC2C3C=CC1C23	O[C@H]1C[C@H]2[C@H]3C=C[C@@H]1[C@@H]23	
InChI=1S/C8H10O/c9-7-3-6-4-1-2-5(7)8(4)6/h1-2,4-9H,3H2	InChI=1S/C8H10O/c9-7-3-6-4-1-2-5(7)8(4)6/h1-2,4-9H,3H2/t4-,5+,6+,7+,8+/m1/s1
