16
gdb 36104	3.4982	1.23656	1.07205	2.8584	72.84	-0.2235	0.043	0.2666	1127.1412	0.122156	-400.605236	-400.597382	-400.596438	-400.637933	30.506	
C	-0.2631651381	-1.2261375916	 0.1931098152	-0.446842
C	-0.1341412916	-0.04281638	 0.0297695869	 0.29701
C	 0.039885272	 1.3943801042	-0.1583715427	-0.481916
C	 1.4768442511	 1.8241914798	-0.0516668858	 0.450364
O	 1.8438824997	 3.105392702	-0.5533542103	-0.261891
C	 2.5669355862	 1.9577941138	-1.0173047436	-0.05553
C	 3.6084048269	 1.5349241509	 0.0799089996	-0.090096
N	 3.4999847671	 2.4942493419	 1.2049124283	-0.314209
C	 2.5123382084	 1.3996351579	 1.0630127447	-0.145237
H	-0.3870307202	-2.2716999918	 0.3308280455	 0.20026
H	-0.3412139948	 1.7032914762	-1.1387819918	 0.148385
H	-0.5527540232	 1.9387941317	 0.590082243	 0.146459
H	 2.6185047509	 1.7830235103	-2.0851998304	 0.111017
H	 4.4835321445	 0.9199476072	-0.0792963334	 0.101366
H	 4.1704089747	 2.1857178236	 1.910362495	 0.232838
H	 2.3469358465	 0.652647144	 1.8269809998	 0.108022
63.1511	100.3039	232.8624	283.7117	343.1404	413.9846	420.348	502.264	614.6458	625.4417	652.9519	669.6483	755.4501	799.0955	807.2471	834.0729	859.167	899.4848	917.9408	965.2661	988.8859	998.196	1024.4534	1089.1443	1097.4485	1133.345	1207.4549	1227.8777	1286.3231	1296.474	1321.9451	1347.4132	1461.9355	1472.597	2242.3693	3014.622	3062.2539	3190.9905	3207.3507	3219.8228	3462.9967	3506.1219
C#CCC12OC1C1NC21	C#CC[C@]12O[C@H]1[C@H]1N[C@@H]21	
InChI=1S/C7H7NO/c1-2-3-7-5-4(8-5)6(7)9-7/h1,4-6,8H,3H2	InChI=1S/C7H7NO/c1-2-3-7-5-4(8-5)6(7)9-7/h1,4-6,8H,3H2/t4-,5+,6-,7+/m0/s1
