17
gdb 52803	1.9124	1.27126	0.85194	1.5095	84.86	-0.2263	0.0305	0.2568	1387.4133	0.131823	-384.614663	-384.604485	-384.60354	-384.652144	36.296	
C	 0.1242573412	 1.5146396496	 0.0102882471	-0.501725
C	 0.0905500109	 0.0606820988	 0.0440275788	 0.055923
C	 0.0575772779	-1.1427050983	 0.0900337237	 0.045324
C	 0.0485887728	-2.5799265057	 0.0786447544	 0.23558
O	 1.1144749865	-3.1918027392	-0.5951946926	-0.444622
C	-0.4343576565	-3.3609771706	 1.2614496759	-0.322158
C	-1.3004761306	-3.3380429233	 0.0103520418	-0.288703
C	-2.5541499803	-2.652741477	-0.0104445819	 0.363076
C	-3.6127522946	-2.0817639253	-0.0387405258	-0.472797
H	 1.1545548596	 1.8870411937	 0.0161270873	 0.151482
H	-0.3689195328	 1.9077099742	-0.8855492057	 0.150378
H	-0.3852283252	 1.9381036796	 0.8828258675	 0.154065
H	 1.1566470436	-2.8082803404	-1.4787273554	 0.286785
H	 0.0984732111	-4.2808705902	 1.4722745347	 0.13405
H	-0.786271866	-2.8064237178	 2.1218459442	 0.138936
H	-1.2351811828	-4.2299786466	-0.605557498	 0.121611
H	-4.5445362747	-1.5739333118	-0.0633673659	 0.192794
6.3811	66.6829	109.5399	156.3566	172.1272	287.4106	305.4773	325.2305	367.8306	376.5245	446.6195	522.1543	559.2534	578.7339	592.9056	637.7391	650.0749	798.2392	848.5921	906.6588	945.7446	1031.4036	1051.1655	1053.4424	1087.0287	1088.0102	1120.7377	1213.8787	1288.6114	1353.8026	1408.2479	1414.413	1470.7415	1474.7236	1478.3392	2235.922	2366.7915	3027.8072	3088.6728	3091.0159	3149.2122	3155.6984	3250.0263	3506.0185	3797.7345
CC#CC1(O)CC1C#C	CC#C[C@@]1(O)C[C@H]1C#C	
InChI=1S/C8H8O/c1-3-5-8(9)6-7(8)4-2/h2,7,9H,6H2,1H3	InChI=1S/C8H8O/c1-3-5-8(9)6-7(8)4-2/h2,7,9H,6H2,1H3/t7-,8-/m1/s1
