16
gdb 5239	7.20014	1.11474	0.9797	4.6697	67.66	-0.2155	0.0327	0.2482	1162.7383	0.131659	-379.94127	-379.93338	-379.932436	-379.975351	27.314	
C	-0.0607451233	 1.4090956429	-0.0487644591	-0.223587
O	-0.0109435967	 0.0053671217	-0.1438998625	-0.221085
C	-1.264565642	-0.5989261787	 0.0588909651	-0.178056
C	-1.0818943258	-2.0807201872	 0.0298164848	 0.28475
C	 0.0305523734	-2.8755905626	 0.1205142762	-0.143629
N	-0.3132883249	-4.2092901569	 0.0633155437	-0.253321
C	-1.6178268029	-4.2255825107	-0.0580524943	 0.009327
N	-2.1379593736	-2.9616862442	-0.0850881048	-0.313995
H	 0.9525535333	 1.7810833529	-0.2148501242	 0.133687
H	-0.7294634711	 1.8463367762	-0.8072288589	 0.105274
H	-0.4046731121	 1.7396227817	 0.9441514037	 0.106773
H	-1.6930749437	-0.2720162805	 1.0254281994	 0.098795
H	-1.9832148419	-0.2804211997	-0.720363364	 0.089676
H	 1.0550680925	-2.554604502	 0.215830798	 0.117226
H	-2.241849517	-5.103816471	-0.1315417976	 0.126784
H	-3.1097494441	-2.7186977919	-0.1824537555	 0.261381
17.37	79.856	138.6998	226.3007	252.2291	355.0069	406.1083	499.8325	648.013	682.3524	749.5379	800.608	857.9849	932.5071	999.1735	1023.5955	1047.9207	1111.413	1138.2368	1168.3273	1183.7018	1219.4217	1240.0411	1252.8813	1273.4693	1362.5983	1427.3148	1446.2126	1481.3252	1485.3477	1501.3255	1509.7817	1527.1979	1619.9623	2914.7553	2925.5116	2970.2242	3014.2922	3121.3213	3249.8105	3270.6174	3659.4652
COCC1=CN=CN1	COCc1cnc[nH]1	
InChI=1S/C5H8N2O/c1-8-3-5-2-6-4-7-5/h2,4H,3H2,1H3,(H,6,7)	InChI=1S/C5H8N2O/c1-8-3-5-2-6-4-7-5/h2,4H,3H2,1H3,(H,6,7)
