21
gdb 13723	5.96666	0.81296	0.76257	1.3311	77.1	-0.2442	0.0804	0.3246	1569.2658	0.187291	-366.232454	-366.222755	-366.221811	-366.267714	34.092	
C	 0.2688664378	 1.5512656691	 0.0115738203	-0.384378
C	 0.0092305478	 0.0548929482	-0.0361775643	-0.023495
O	 0.6357078689	-0.4744817699	-1.1851674442	-0.246926
C	 0.4486691214	-1.8669429014	-1.3300252659	-0.053959
C	 1.1644344232	-2.3060431932	-2.579725976	-0.025115
N	 2.5546208303	-2.7697832876	-2.4372886312	-0.334252
C	 1.5213872483	-3.7183081589	-2.8855871292	 0.000077
C	 1.220566076	-4.8949406774	-1.9859414018	-0.393838
H	 1.3430389296	 1.7518492107	 0.0560824483	 0.12795
H	-0.1335645139	 2.0389757086	-0.8809435253	 0.124075
H	-0.2049171936	 1.9935474662	 0.8931205148	 0.112496
H	 0.4015145488	-0.434609259	 0.8717140416	 0.08547
H	-1.0756910062	-0.1486849566	-0.0647597597	 0.080968
H	 0.8447508812	-2.4043870204	-0.4557716888	 0.093447
H	-0.628580138	-2.1000400835	-1.4081638381	 0.079604
H	 0.933505502	-1.6722029534	-3.434807901	 0.086354
H	 3.1204605861	-2.4502046744	-3.2182646726	 0.229909
H	 1.514430288	-3.9669878478	-3.9469414513	 0.079614
H	 1.2866276981	-4.6176455799	-0.93183288	 0.1276
H	 0.2175891943	-5.2902724749	-2.1809795421	 0.114575
H	 1.93923815	-5.7026101244	-2.1620355835	 0.119826
51.2542	82.8425	102.1475	134.2724	170.3373	210.714	247.9147	304.4743	388.131	411.7503	474.4597	538.7944	771.4703	822.8062	840.8708	880.505	909.7032	965.3098	988.0987	1030.1272	1050.4284	1061.1744	1102.1566	1141.7236	1159.4016	1164.086	1188.5146	1217.8217	1254.1543	1277.5174	1283.8527	1296.9586	1362.3051	1398.4083	1407.761	1422.3268	1447.5735	1476.881	1483.5701	1492.1308	1499.6123	1505.0251	1508.8821	1535.615	2940.7029	2951.8378	2972.1055	3009.6453	3035.6879	3044.4262	3094.138	3097.7127	3118.2832	3120.0402	3121.4736	3132.406	3509.1408
CCOCC1NC1C	CCOC[C@H]1N[C@H]1C	
InChI=1S/C6H13NO/c1-3-8-4-6-5(2)7-6/h5-7H,3-4H2,1-2H3	InChI=1S/C6H13NO/c1-3-8-4-6-5(2)7-6/h5-7H,3-4H2,1-2H3/t5-,6+/m0/s1
