18
gdb 44618	4.17425	1.39934	1.35668	3.2584	76.72	-0.2485	0.0313	0.2797	997.7436	0.151808	-401.95684	-401.950467	-401.949522	-401.987382	26.757	
N	-0.0926704455	 1.2189809843	-0.0317290228	-0.573717
C	-0.070434047	-0.0401338169	-0.0088111421	 0.43048
O	 1.0474950092	-0.8514090739	-0.0309626827	-0.263858
C	 0.4539701324	-2.1674930589	 0.013633532	 0.094237
C	-0.7364905985	-2.1197832959	-0.9846689577	-0.030894
C	-1.5830247747	-3.3542750841	-0.6771464924	-0.243489
C	-1.5308110309	-3.3249522912	 0.8830555245	-0.243488
C	-0.6671740705	-2.0808482919	 1.0867618888	-0.030894
C	-1.2030957576	-1.0201246276	 0.0475150915	-0.138076
H	 0.8576576692	 1.592985702	-0.0705544557	 0.222167
H	 1.2331763778	-2.9282500682	 0.0018584244	 0.089738
H	-0.5598222825	-1.8509342137	-2.0265858087	 0.082027
H	-2.5995385521	-3.2651470804	-1.0697466031	 0.109919
H	-1.1459528417	-4.2658813822	-1.0958890121	 0.105798
H	-2.5189244861	-3.2198800929	 1.3390931904	 0.109919
H	-1.0655808408	-4.2207457268	 1.3055699487	 0.105799
H	-0.4216128683	-1.7732980336	 2.1037155662	 0.082027
H	-2.2150441924	-0.6231213181	 0.0739162267	 0.092305
162.5892	261.2842	278.0487	391.6087	453.0254	555.2157	672.8887	679.2409	680.4596	811.3737	826.3477	862.1445	890.7165	913.2242	921.5847	934.7117	950.0388	961.5399	991.0108	1017.8288	1026.102	1030.4783	1082.8691	1094.2883	1116.4646	1190.6861	1202.9727	1221.7883	1236.9444	1254.7135	1256.9621	1268.557	1289.6173	1318.5896	1338.1269	1381.9111	1492.637	1512.4812	1806.5496	3050.6068	3059.7182	3086.8727	3105.5214	3117.1109	3117.8745	3137.8899	3156.3212	3466.5607
N=C1OC2C3CCC2C13	[NH][C]1O[C@@H]2[C@H]3CC[C@@H]2[C@@H]13	
InChI=1S/C7H9NO/c8-7-5-3-1-2-4(5)6(3)9-7/h3-6,8H,1-2H2	InChI=1S/C7H9NO/c8-7-5-3-1-2-4(5)6(3)9-7/h3-6,8H,1-2H2/t3-,4+,5-,6+
