19
gdb 94274	3.04383	1.49778	1.19001	1.9759	74.8	-0.2414	0.0744	0.3158	1073.6832	0.158535	-422.931924	-422.923999	-422.923055	-422.964552	30.663	
C	-0.2781346478	 1.4916313702	-0.0485772014	-0.404584
C	 0.1103414778	 0.0245819324	-0.1001623149	 0.043884
O	 1.3540691752	-0.1817274262	-0.8147695334	-0.299463
C	 1.9803735291	-0.8263491729	 0.3184868018	-0.163567
C	 0.7168275381	-0.6341691631	 1.1564570161	 0.36956
C	 0.7101421259	-0.1327777263	 2.6182868445	-0.029475
C	-0.7335748498	-0.6619075804	 2.7919274602	-0.235687
C	 0.1136451828	-1.728810142	 2.0611375726	-0.032357
O	 1.216914821	-1.4698732676	 3.0222822583	-0.318735
H	 0.4982263907	 2.0849700765	 0.4439872761	 0.119012
H	-0.4069931538	 1.8758156007	-1.0651412989	 0.131755
H	-1.2221471552	 1.6312787956	 0.4890991295	 0.11675
H	-0.697679373	-0.5654999262	-0.5574454213	 0.075118
H	 2.2518384239	-1.8671314008	 0.1041102169	 0.106661
H	 2.8742620509	-0.2892628235	 0.657213829	 0.108087
H	 1.1929293793	 0.7400722044	 3.0586252148	 0.099088
H	-1.0081943395	-0.9172508998	 3.8158433882	 0.112148
H	-1.5395338757	-0.1705221509	 2.2412399997	 0.103179
H	-0.11848391	-2.7688813601	 1.8288315621	 0.098627
67.9862	157.2248	190.7932	235.4067	269.8567	344.4762	435.8093	469.6844	558.1805	646.5662	736.5289	783.8522	817.5516	874.291	878.4191	883.944	921.2823	996.7736	1006.2214	1013.4862	1026.03	1063.1957	1090.2307	1115.1981	1128.7979	1142.9446	1167.7071	1171.2265	1175.9233	1207.0571	1215.0765	1270.0254	1285.8523	1320.1455	1373.1824	1388.0923	1403.5281	1482.2553	1484.1382	1495.543	1520.3795	2989.4024	3018.9588	3034.8146	3060.1057	3067.3555	3106.9275	3112.1873	3114.4768	3119.3059	3150.4303
CC1OCC11C2CC1O2	C[C@H]1OC[C@]21[C@H]1C[C@@H]2O1	
InChI=1S/C7H10O2/c1-4-7(3-8-4)5-2-6(7)9-5/h4-6H,2-3H2,1H3	InChI=1S/C7H10O2/c1-4-7(3-8-4)5-2-6(7)9-5/h4-6H,2-3H2,1H3/t4-,5-,6+,7+/m1/s1
