17
gdb 36320	4.10924	1.08833	0.94673	5.15	77.32	-0.2494	-0.0047	0.2447	1215.9216	0.138009	-380.865284	-380.857647	-380.856702	-380.897907	29.153	
N	-0.0844533384	-1.1579831092	-0.1333721297	-0.316946
C	-0.065484936	-0.0069837211	-0.0281570861	 0.260718
C	-0.010333215	 1.4461429083	 0.1054102686	-0.338488
C	 1.4316837316	 2.0031282533	 0.0081667772	-0.045374
C	 2.1067394355	 1.7157474795	-1.3237590578	-0.086751
C	 2.5184681786	 2.8269791235	-1.9362048947	-0.053455
C	 2.1480378949	 4.03502164	-1.1403996276	-0.083406
N	 0.6699033036	 4.183084747	-0.9921553534	-0.331457
C	 1.4585589976	 3.5325636674	 0.0762551948	-0.078292
H	-0.6175777206	 1.9098316091	-0.6779492057	 0.174047
H	-0.4535777682	 1.7214122408	 1.069185137	 0.145192
H	 2.0169755778	 1.5790288875	 0.8344477092	 0.100956
H	 2.1909676586	 0.7075665403	-1.71262978	 0.123994
H	 3.020634837	 2.8741350029	-2.8946365304	 0.106878
H	 2.7608102326	 4.9297274229	-1.1407731037	 0.096225
H	 0.4627245375	 5.1370327669	-0.7007032652	 0.232458
H	 1.5449372428	 4.0256155808	 1.0384157775	 0.093702
68.3557	118.8506	173.0633	253.7063	392.3417	398.819	457.4634	489.1262	606.5039	706.2647	761.6588	788.3638	808.3839	852.6918	865.2702	915.5182	942.0842	952.2554	970.1418	987.5988	1032.4653	1073.6093	1084.0493	1120.9924	1154.6824	1164.5078	1203.1025	1241.5132	1283.6887	1313.4726	1331.0959	1352.3395	1394.5112	1411.801	1468.8888	1669.5097	2358.6662	3023.0433	3047.894	3100.2581	3165.9228	3176.476	3197.3132	3221.2107	3479.4185
N#CCC1C=CC2NC12	N#CC[C@H]1C=C[C@H]2N[C@@H]12	
InChI=1S/C7H8N2/c8-4-3-5-1-2-6-7(5)9-6/h1-2,5-7,9H,3H2	InChI=1S/C7H8N2/c8-4-3-5-1-2-6-7(5)9-6/h1-2,5-7,9H,3H2/t5-,6-,7+/m1/s1
