21
gdb 108664	2.12139	1.46235	0.92952	2.365	82.92	-0.2195	0.0266	0.2462	1302.5189	0.180619	-424.234082	-424.223912	-424.222968	-424.26953	36.512	
C	 0.1230047041	 1.5250977896	-0.1176417398	-0.395275
C	-0.0215529433	 0.0246692758	 0.1453952213	 0.062408
O	 0.4282062894	-0.7001881378	-0.9982956298	-0.279095
C	 1.3554404249	-1.6990860639	-0.6028569259	-0.147375
C	 1.5963329775	-1.4932275046	 0.8722465069	 0.174115
C	 2.5918662444	-2.3479440922	 1.5917129856	-0.500285
C	 0.7996639474	-0.5111779065	 1.300768279	 0.180453
C	 0.5996461123	 0.083395247	 2.6602432903	-0.186099
O	 1.0961601557	-0.7659554576	 3.6822644276	-0.408943
H	 1.1765390239	 1.793025529	-0.2430971016	 0.116977
H	-0.4142804197	 1.7942902255	-1.0313317424	 0.126166
H	-0.2956618519	 2.1118798543	 0.7073226504	 0.107607
H	-1.0930765809	-0.1937445666	 0.3121808093	 0.072228
H	 0.9510325586	-2.7058245631	-0.8079724682	 0.095561
H	 2.2792057671	-1.6022152337	-1.1956124635	 0.098733
H	 3.5833205762	-2.2508170959	 1.1300925623	 0.117988
H	 2.6620391829	-2.0838860415	 2.644532437	 0.15439
H	 2.3186018089	-3.4085486819	 1.5144317036	 0.122155
H	 1.088639615	 1.0723691974	 2.6996802495	 0.103363
H	-0.4796980062	 0.2727714566	 2.8008372377	 0.095585
H	 1.029608114	-0.29318391	 4.5168391709	 0.289343
52.3287	79.5438	149.8126	166.6087	191.0436	230.9144	250.0097	259.9997	309.3232	337.9548	406.329	443.6406	540.6725	625.307	683.6192	771.4184	874.6039	933.4922	967.9801	991.5937	1023.4621	1051.3502	1069.3646	1095.7769	1107.4321	1126.6152	1142.2848	1191.72	1201.6114	1245.9627	1260.9965	1283.3299	1339.8108	1372.1059	1384.6709	1397.9516	1410.6112	1469.3381	1484.4049	1487.9595	1494.6609	1495.2732	1509.5221	1524.0972	1760.3194	2918.0767	2939.9319	2949.9539	2954.0959	2980.0773	3017.3148	3034.0732	3056.3622	3106.4081	3118.9154	3177.1615	3833.3127
CC1OCC(C)=C1CO	C[C@H]1OCC(=C1CO)C	
InChI=1S/C7H12O2/c1-5-4-9-6(2)7(5)3-8/h6,8H,3-4H2,1-2H3	InChI=1S/C7H12O2/c1-5-4-9-6(2)7(5)3-8/h6,8H,3-4H2,1-2H3/t6-/m1/s1
