15
gdb 36572	2.64375	0.94801	0.73012	1.3165	80.57	-0.2655	-0.0054	0.2601	1490.0412	0.106973	-383.352835	-383.342935	-383.34199	-383.388319	35.216	
C	-0.0335716988	-1.1668417057	-0.0854838055	-0.41462
C	 0.0367246827	 0.0227067932	 0.060647603	 0.290699
C	 0.0838960508	 1.463397218	 0.2534829058	-0.216159
O	 1.3581524342	 1.9515035402	-0.1528839386	-0.241257
C	 1.4584387502	 3.3687219314	-0.0638183611	-0.21107
C	 1.4005721734	 3.8518152855	 1.3268935549	 0.341434
C	 1.3255280676	 4.2333721384	 2.4632959369	-0.464298
C	 2.7021213982	 3.777368651	-0.7179338833	 0.309359
C	 3.7070331868	 4.1382166335	-1.2648093513	-0.394853
H	-0.0869629925	-2.2191289963	-0.2183695785	 0.203126
H	-0.7125000197	 1.947224193	-0.3371893335	 0.120801
H	-0.1026926924	 1.7091413676	 1.3094197853	 0.138192
H	 0.6138239243	 3.823910897	-0.612763634	 0.12569
H	 1.272975718	 4.5756440261	 3.4677307395	 0.208564
H	 4.6020550171	 4.4489426071	-1.7451441998	 0.204392
47.7576	96.7048	104.273	127.4097	203.1016	221.5315	328.9571	333.4326	336.3623	450.6224	516.6136	558.4135	610.5864	636.1385	641.0387	655.656	679.0072	680.2388	684.5248	893.5122	973.9536	1003.9967	1033.5965	1058.0737	1102.5271	1252.7074	1322.3979	1326.5511	1418.5006	1500.2421	2235.7369	2249.9314	2253.3172	2934.6322	2963.1931	3010.5381	3500.3545	3504.0226	3505.7661
C#CCOC(C#C)C#C	C#CCOC(C#C)C#C	
InChI=1S/C8H6O/c1-4-7-9-8(5-2)6-3/h1-3,8H,7H2	InChI=1S/C8H6O/c1-4-7-9-8(5-2)6-3/h1-3,8H,7H2
