17
gdb 62306	3.54555	1.44829	1.18192	1.114	78.86	-0.2529	0.0351	0.288	1048.2713	0.134677	-384.573132	-384.565441	-384.564497	-384.604925	30.858	
O	-0.0007888039	 1.4210002887	-0.077238087	-0.484345
C	 0.0508743984	 0.0080323495	-0.0436660571	 0.275283
C	 1.007014523	-0.5204360096	-1.0098856708	 0.248863
C	 1.8261340319	-0.9296687922	-1.7902430362	-0.453698
C	 0.0115627858	-0.665113259	 1.3551121633	-0.110203
C	-1.4982235056	-0.2866627813	 1.5543601425	-0.060374
C	-1.8804966347	-1.7362659663	 1.9128850197	-0.274576
C	-0.8110036872	-1.8835028101	 0.8123614897	-0.0492
C	-1.3471863238	-0.6348920655	 0.0313196527	-0.080129
H	 0.9016146752	 1.7506918986	-0.1416015013	 0.28337
H	 2.538514981	-1.2968459656	-2.4872481011	 0.195332
H	 0.78919505	-0.6918991047	 2.1198228703	 0.072984
H	-1.8737235421	 0.6509344512	 1.9591920938	 0.086341
H	-1.6085248029	-2.0854756916	 2.9141256713	 0.093841
H	-2.8963682385	-2.0553466096	 1.6585787464	 0.094775
H	-0.3950135437	-2.7843340448	 0.3627085784	 0.083084
H	-2.1305831728	-0.6220752276	-0.7268199249	 0.078654
126.8587	150.2454	233.2034	273.4148	309.5292	397.5801	483.9163	523.415	558.0832	619.3773	648.1668	667.8551	756.1978	817.5531	846.4933	854.4392	875.9728	919.1363	965.9461	973.7676	998.7242	1031.8476	1038.725	1066.3117	1121.4794	1140.4272	1145.6282	1154.5798	1165.2396	1191.7591	1200.1985	1244.4894	1264.9683	1305.8804	1376.7106	1512.9047	2226.2919	3038.4967	3094.5903	3103.9673	3112.6069	3124.7659	3138.7757	3499.3933	3816.497
OC1(C#C)C2C3CC2C13	O[C@@]1(C#C)[C@H]2[C@@H]3C[C@H]2[C@H]13	
InChI=1S/C8H8O/c1-2-8(9)6-4-3-5(6)7(4)8/h1,4-7,9H,3H2	InChI=1S/C8H8O/c1-2-8(9)6-4-3-5(6)7(4)8/h1,4-7,9H,3H2/t4-,5+,6-,7+,8-
