21
gdb 106528	3.04919	1.35986	1.20635	2.2958	77.08	-0.2397	0.0771	0.3168	1123.2033	0.184813	-424.222644	-424.214585	-424.21364	-424.255046	32.349	
O	 0.0031420667	 1.3855121686	-0.2863819747	-0.420252
C	 0.0575709551	 0.0170282068	 0.0765282997	-0.137852
C	-1.3355416544	-0.5731671278	 0.1783531522	 0.383182
C	-1.5400028491	-2.1038776459	 0.0983847076	-0.314913
C	-2.7065312353	-1.6914550945	-0.8235730412	 0.100804
C	-3.9769408112	-1.3463239858	-0.0473357746	-0.197532
C	-3.5967140576	-0.6878409308	 1.3029169125	-0.223641
C	-2.2465245208	 0.0707886953	 1.2298031453	-0.222976
O	-2.0266214817	-0.4335950723	-1.1120809595	-0.345732
H	-0.5215054372	 1.4252047815	-1.0953085559	 0.295764
H	 0.6407292919	-0.5669281847	-0.652378655	 0.084623
H	 0.5704889749	-0.0367338412	 1.0433513283	 0.105668
H	-0.7342366723	-2.5921052351	-0.4534819124	 0.104735
H	-1.7594987222	-2.6554945198	 1.0142027569	 0.100366
H	-2.8931303152	-2.2733240549	-1.7302506164	 0.074192
H	-4.5630712315	-0.6629180076	-0.6712924284	 0.109564
H	-4.5898791515	-2.2394412466	 0.1214578789	 0.092877
H	-4.3936344688	-0.0216896428	 1.6456584125	 0.100344
H	-3.5170006571	-1.4722108383	 2.0631419478	 0.102767
H	-1.761458503	 0.0713719278	 2.2131055978	 0.092455
H	-2.3839325599	 1.116075748	 0.9397093387	 0.115559
87.938	165.4074	202.4423	272.5872	307.5892	403.5246	432.9898	439.3809	459.6109	534.5691	599.3507	702.3025	788.1875	823.5463	846.156	865.2596	903.4347	923.7589	940.1815	971.8895	1000.2206	1007.5259	1051.0498	1070.3273	1080.4634	1116.773	1171.3927	1194.5863	1205.7228	1223.2825	1248.9285	1269.0069	1276.9722	1320.6871	1336.356	1358.5174	1362.946	1385.3397	1390.2512	1432.5382	1474.6636	1479.1155	1488.5019	1496.3363	1515.3938	2982.8815	3032.6446	3036.2975	3047.6358	3068.2813	3069.8127	3071.9981	3078.6417	3084.8828	3101.6324	3132.1988	3789.8337
OCC12CC(CCC1)O2	OC[C@@]12C[C@@H](CCC1)O2	
InChI=1S/C7H12O2/c8-5-7-3-1-2-6(4-7)9-7/h6,8H,1-5H2	InChI=1S/C7H12O2/c8-5-7-3-1-2-6(4-7)9-7/h6,8H,1-5H2/t6-,7+/m1/s1
