16
gdb 30387	3.97461	1.13076	0.88511	4.939	80.31	-0.1939	-0.0113	0.1825	1262.3489	0.125246	-434.101922	-434.093485	-434.092541	-434.135208	31.062	
C	 0.0486252877	 1.4140894418	 0.1007764987	-0.323899
N	 0.159847227	-0.029715068	 0.0661619406	-0.330577
C	 0.623244323	-0.6107225095	-0.9752494426	 0.373945
C	 0.732065125	-2.0693762205	-1.0015309395	-0.348675
C	 1.2174179165	-2.6922917882	-2.089869615	 0.484177
O	 1.3886517501	-4.0176319259	-2.2913160759	-0.425318
N	 1.6143806514	-1.9531078846	-3.1861500653	-0.36189
C	 1.5010263957	-0.5846437829	-3.1338956387	 0.090838
N	 1.0520385006	 0.0820122393	-2.1420165726	-0.313764
H	 0.6258139633	 1.7991766443	 0.9518411147	 0.109234
H	 0.3859163643	 1.9198458766	-0.8105806741	 0.119372
H	-0.997111355	 1.6900051209	 0.2906419363	 0.109234
H	 0.4134557197	-2.6241888711	-0.1279871677	 0.100624
H	 1.0990519591	-4.4896996656	-1.5026190988	 0.315096
H	 1.9766779609	-2.4277354023	-3.9969549236	 0.272081
H	 1.8340031707	-0.0724285543	-4.0356906866	 0.129523
76.6237	104.1292	161.2507	236.8901	285.3644	353.3285	381.9606	389.8953	465.5827	480.0385	526.9012	645.7992	658.5567	755.6526	779.6527	835.7007	901.1787	953.2171	991.685	1047.5231	1117.5503	1129.2126	1156.4705	1191.3838	1227.246	1287.8571	1403.7928	1423.824	1428.5466	1488.998	1497.2746	1527.107	1663.8257	1703.5204	1744.1791	3001.8672	3045.9737	3081.3626	3139.3253	3208.0761	3654.7626	3823.7512
CN=C1C=C(O)NC=N1	CN=c1cc(O)[nH]cn1	
InChI=1S/C5H7N3O/c1-6-4-2-5(9)8-3-7-4/h2-3H,1H3,(H2,6,7,8,9)	InChI=1S/C5H7N3O/c1-6-4-2-5(9)8-3-7-4/h2-3H,1H3,(H2,6,7,8,9)
