18
gdb 28950	3.08503	1.16978	0.92368	1.1101	79.92	-0.2045	-0.0389	0.1655	1261.009	0.146793	-401.993007	-401.984036	-401.983092	-402.027947	32.173	
C	-0.0877420337	 1.4800619183	 0.1919922474	-0.507651
C	-0.0240233029	-0.0005601059	 0.0003874155	 0.28513
C	-0.0129236819	-0.7493528975	-1.1553969838	-0.227105
C	 0.0755493444	-2.1216623445	-0.7925849398	-0.163085
C	 0.1173009736	-2.1753225532	 0.5776353271	-0.11582
N	 0.0645045562	-0.8849269893	 1.0624069493	-0.02996
C	-0.0031233399	-0.5276099284	 2.4577743884	-0.266967
C	-1.4297453758	-0.237512393	 2.9261871181	 0.151258
O	-1.6936486385	 0.4902072661	 3.8445318592	-0.227315
H	 0.8044593314	 1.8776354479	 0.6927434754	 0.130348
H	-0.1581854353	 1.966762097	-0.7832372791	 0.1388
H	-0.9564332896	 1.7998056876	 0.780925151	 0.133756
H	-0.0561100138	-0.3457498325	-2.1560154755	 0.092236
H	 0.1141272208	-2.9685673039	-1.460134248	 0.096543
H	 0.1887113499	-3.0101742842	 1.2571325834	 0.11393
H	 0.3763158704	-1.3666292112	 3.0533639086	 0.147938
H	 0.6239196656	 0.3391731221	 2.6846612166	 0.147549
H	-2.213191301	-0.7718981054	 2.3428163164	 0.100414
39.5278	60.2631	117.6662	154.8283	235.0721	272.8686	350.7542	396.05	444.4071	622.4214	637.0075	663.7963	701.4784	703.9492	776.7281	803.7691	838.7703	900.0713	992.0096	1035.7352	1037.463	1063.1139	1065.4563	1109.6814	1176.4239	1226.8267	1270.6511	1322.9837	1338.7491	1405.6622	1407.93	1422.3706	1449.7529	1460.9316	1483.6814	1491.1791	1526.014	1602.3062	1840.3316	2887.8685	3015.2836	3045.2242	3058.461	3102.5356	3123.7583	3238.4101	3248.7186	3265.87
CC1=CC=CN1CC=O	Cc1cccn1CC=O	
InChI=1S/C7H9NO/c1-7-3-2-4-8(7)5-6-9/h2-4,6H,5H2,1H3	InChI=1S/C7H9NO/c1-7-3-2-4-8(7)5-6-9/h2-4,6H,5H2,1H3
