18
gdb 119813	5.75815	0.83125	0.73638	3.5681	76.88	-0.2247	0.0175	0.2422	1534.7805	0.148167	-435.301957	-435.292914	-435.29197	-435.336592	32.48	
C	-0.1333400992	 1.5021844147	 0.0127910204	-0.393243
C	-0.0021098404	-0.0074677209	 0.0036497789	-0.041724
O	-1.3366223275	-0.559595753	 0.0103078762	-0.277035
C	-1.4031934739	-1.887122467	 0.0049766007	 0.507741
N	-0.4384495309	-2.7219822011	-0.0053100348	-0.372926
C	-1.0732223818	-4.0461127129	-0.0067233018	-0.239077
C	-2.5865413833	-3.8123495582	 0.0045593081	 0.38829
N	-3.4855860674	-4.7075642424	 0.0066269528	-0.550598
N	-2.6862309816	-2.4215456188	 0.0114997109	-0.412933
H	 0.8613462723	 1.9573548126	 0.0077709158	 0.127057
H	-0.6773093157	 1.8533698448	-0.8685280192	 0.130489
H	-0.6639975156	 1.8438105742	 0.9059019985	 0.13049
H	 0.5221629631	-0.3730193608	-0.8846686823	 0.128662
H	 0.5349741014	-0.3826826799	 0.8801865916	 0.128744
H	-0.7814560143	-4.6229092601	-0.8913029701	 0.139425
H	-0.7695135538	-4.630509028	 0.8688048636	 0.139423
H	-4.4251806261	-4.3073845337	 0.0147992133	 0.206105
H	-3.5341843354	-1.8806645496	 0.0192647175	 0.261109
49.2622	71.6061	143.9611	144.5558	246.6662	283.2452	346.2999	360.615	370.2696	515.5755	529.2049	671.1647	733.2213	746.2318	808.7688	850.862	888.8704	898.6287	993.7444	994.8016	1053.3006	1089.7256	1101.9565	1147.4391	1183.7269	1188.4876	1264.2166	1289.8905	1296.3966	1323.5744	1387.7558	1416.6385	1467.4238	1485.1903	1488.3386	1498.004	1524.2396	1722.6818	1768.3256	3045.961	3047.3342	3055.0593	3076.0181	3093.6511	3122.8389	3127.606	3456.2134	3668.423
CCOC1=NCC(=N)N1	CCOC1=NC[C]([NH])N1	
InChI=1S/C5H9N3O/c1-2-9-5-7-3-4(6)8-5/h2-3H2,1H3,(H2,6,7,8)	InChI=1S/C5H9N3O/c1-2-9-5-7-3-4(6)8-5/h2-3H2,1H3,(H2,6,7,8)
