18
gdb 71629	2.80519	1.69086	1.60301	1.0745	70.96	-0.2399	0.0818	0.3218	937.6551	0.14954	-439.019466	-439.012336	-439.011392	-439.050715	28.627	
C	 0.0106890041	 1.4783874312	-0.0370387623	-0.533603
C	-0.0070289502	-0.0187305618	-0.005185464	 0.267708
N	 0.7007934971	-0.898694151	-1.0176307793	-0.357268
C	 0.0525907848	-1.8824403789	-0.0744535515	-0.148382
C	 0.5831199264	-0.974657774	 1.0770001066	 0.129372
O	-0.0730227679	-1.0023038087	 2.320397813	-0.271
C	-1.3653294763	-1.5473219527	 2.2006415463	 0.014881
O	-2.0662044722	-1.0240991918	 1.0966545887	-0.270563
C	-1.2296883069	-0.9905027233	-0.0381683381	 0.088977
H	 1.0383956828	 1.8545537155	-0.0378588412	 0.132993
H	-0.4987134431	 1.8654821549	-0.9262986057	 0.120452
H	-0.5024763314	 1.8726434235	 0.8457091995	 0.138802
H	 0.1764513832	-0.8874739076	-1.8993993047	 0.208945
H	 0.1564034046	-2.9584003528	-0.2155345832	 0.086698
H	 1.6620633835	-0.938908031	 1.229008574	 0.09835
H	-1.2902544125	-2.6433606596	 2.0979235927	 0.090885
H	-1.9213978205	-1.2893931318	 3.1038207373	 0.122912
H	-1.8533265154	-0.9692598001	-0.937233788	 0.079842
175.4835	186.4055	207.8119	290.7704	374.5463	445.0287	482.6083	548.0041	569.9238	683.7271	730.489	771.5999	844.9168	877.4359	889.331	952.6742	982.8166	1006.9889	1035.3738	1041.6466	1045.3408	1100.7553	1140.1629	1144.2514	1177.2161	1201.4295	1216.651	1228.2307	1273.7714	1281.5211	1291.8757	1330.1904	1343.585	1400.5157	1424.2859	1447.7811	1483.604	1487.8782	1521.9595	2956.0551	3033.4446	3071.528	3100.9578	3111.6375	3113.4235	3115.4582	3124.6021	3374.8831
CC12NC3C1OCOC23	C[C@@]12N[C@H]3[C@@H]1OCO[C@@H]23	
InChI=1S/C6H9NO2/c1-6-4-3(7-6)5(6)9-2-8-4/h3-5,7H,2H2,1H3	InChI=1S/C6H9NO2/c1-6-4-3(7-6)5(6)9-2-8-4/h3-5,7H,2H2,1H3/t3-,4-,5+,6+
