15
gdb 43461	2.85002	1.53221	1.08913	1.9189	66.9	-0.2609	-0.0475	0.2134	1063.2515	0.111591	-457.813677	-457.806055	-457.80511	-457.846248	28.63	
O	 0.0611794242	 0.0203583274	 0.0024133948	-0.318242
C	-0.0313076425	 1.2102133854	 0.0099388672	 0.405197
C	-1.2898779446	 2.066154156	 0.0322168748	-0.495953
C	-0.7746160412	 3.4962409521	 0.0328060289	 0.342337
O	-1.407376899	 4.5208449294	 0.047165545	-0.316654
C	 0.7148605001	 3.3900446061	 0.0110306136	 0.306095
C	 1.567554623	 4.373952388	-0.7478329989	-0.30684
C	 1.5889656423	 4.3659935782	 0.7556487681	-0.30685
O	 1.0731623876	 2.0198547084	-0.0013302073	-0.251321
H	-1.9164180129	 1.8589202416	-0.8402521624	 0.178723
H	-1.8918988026	 1.8493223983	 0.9194827401	 0.178712
H	 2.420742313	 3.955722053	-1.2690711375	 0.145034
H	 1.0416471993	 5.1756945515	-1.2541223966	 0.147365
H	 1.0778088095	 5.1622532905	 1.2851669748	 0.147366
H	 2.4565891638	 3.9424042542	 1.2479247354	 0.145032
78.3183	102.7209	220.8913	228.8467	368.4519	414.1155	494.9192	507.3495	592.4515	603.9884	608.8681	733.4581	775.1516	844.221	855.7522	930.3964	956.0435	979.3195	1004.1816	1056.2893	1073.0201	1086.4885	1142.9458	1202.3095	1223.2162	1237.1382	1285.3092	1351.3176	1409.4485	1440.9292	1474.5295	1844.7185	1899.96	3074.2156	3115.9609	3142.0675	3142.3828	3233.9945	3247.1523
O=C1CC(=O)C2(CC2)O1	O=C1CC(=O)C2(CC2)O1	
InChI=1S/C6H6O3/c7-4-3-5(8)9-6(4)1-2-6/h1-3H2	InChI=1S/C6H6O3/c7-4-3-5(8)9-6(4)1-2-6/h1-3H2
