18
gdb 46619	2.95292	1.61027	1.10855	3.0034	79.26	-0.2459	0.0029	0.2488	1081.9024	0.150596	-401.977381	-401.9701	-401.969156	-402.009275	28.567	
N	 0.0711951792	 1.2735898756	 0.2152610225	-0.540333
C	 0.0033152488	 0.0315225565	 0.0075654768	 0.410075
O	 1.0945720158	-0.7733919775	-0.2372575317	-0.258559
C	 0.7234790515	-2.1748515775	-0.3129521851	-0.190603
C	-0.671290712	-2.1889625307	 0.2162404928	 0.315186
C	-1.4284758021	-2.9307950561	 1.0162698604	-0.226941
C	-2.6846620608	-2.1714330443	 1.4094940034	-0.248601
C	-2.3285334594	-0.6912167548	 1.071094216	-0.2311
C	-1.2475570311	-0.8171486639	-0.0210271915	-0.157892
H	 1.0418241095	 1.5918100265	 0.1866335218	 0.220758
H	 0.7970772047	-2.4943668553	-1.3609884121	 0.121133
H	 1.439094841	-2.7512437842	 0.2795185413	 0.13032
H	-1.2006868085	-3.9284171859	 1.374683874	 0.099879
H	-3.5557425021	-2.5164892392	 0.8345057092	 0.110483
H	-2.9396997945	-2.3102907499	 2.4656092504	 0.109304
H	-3.1926328246	-0.1050450224	 0.7529199339	 0.107883
H	-1.8996958145	-0.1982306501	 1.9481598584	 0.123232
H	-1.6855607609	-0.7343569268	-1.0278546403	 0.105776
95.0869	147.4467	241.0914	258.3789	331.3424	469.1948	563.0397	587.2889	596.6188	679.1633	736.7921	824.5393	841.729	873.0129	895.6042	908.0289	936.9811	971.5273	973.9592	1020.7659	1024.9595	1066.3661	1090.9175	1156.9803	1173.2242	1199.3273	1226.7117	1244.3649	1264.3483	1279.0049	1311.9431	1333.2278	1344.237	1392.1662	1485.1168	1499.3471	1508.3503	1750.2952	1782.8385	2985.0041	3008.77	3015.8662	3061.1393	3073.3448	3090.7139	3120.5859	3196.5645	3466.541
N=C1OCC2=CCCC12	[NH][C]1OCC2=CCC[C@@H]12	
InChI=1S/C7H9NO/c8-7-6-3-1-2-5(6)4-9-7/h2,6,8H,1,3-4H2	InChI=1S/C7H9NO/c8-7-6-3-1-2-5(6)4-9-7/h2,6,8H,1,3-4H2/t6-/m1/s1
