16
gdb 34334	2.98821	1.63465	1.31975	0.2748	74.65	-0.2389	0.0158	0.2547	977.3449	0.123752	-400.623897	-400.616648	-400.615704	-400.655319	29.058	
C	-0.0117748461	-1.1945026067	 0.0739154608	-0.352614
C	-0.0094708087	 0.0072132837	 0.0427683862	 0.22726
C	 0.0007019412	 1.4415571316	-0.0206671574	 0.077756
C	-0.3432363486	 2.1346862509	-1.3596774967	-0.136333
O	 0.8175216793	 2.9975940246	-1.2540190815	-0.29085
C	 1.261528036	 2.3337979561	-0.052799115	 0.053412
C	 0.7960343866	 2.9591563086	 1.2681917502	-0.041273
C	-0.5423159523	 3.5524397178	 1.1337946802	-0.252126
N	-0.4600320301	 2.0857436879	 1.2962433937	-0.18429
H	-0.0164313077	-2.2559492561	 0.1082213003	 0.194089
H	-0.2647512792	 1.4607248118	-2.2194539402	 0.120564
H	-1.2869701346	 2.6885058833	-1.4097269671	 0.116268
H	 2.2845376114	 1.960083464	-0.1105581539	 0.098594
H	 1.4190825968	 3.073382833	 2.1491574946	 0.102235
H	-0.9682373365	 4.02240861	 2.0147376523	 0.129798
H	-0.8378280374	 4.0022081097	 0.1928764333	 0.137509
141.8606	148.3162	238.381	338.2718	389.8691	481.7101	495.091	523.5381	612.0688	630.8186	651.4851	687.1568	746.7172	780.3959	864.5449	893.783	926.6624	964.6643	990.3165	1038.8202	1051.042	1057.5156	1090.3797	1106.0183	1128.4619	1157.5926	1181.2977	1222.4804	1266.2941	1309.2145	1349.9788	1358.3753	1493.9027	1516.6237	2240.2646	3031.0896	3082.899	3109.0797	3134.3438	3166.891	3221.1765	3501.5397
C#CC12COC1C1CN21	C#C[C@]12CO[C@H]1[C@H]1CN21	
InChI=1S/C7H7NO/c1-2-7-4-9-6(7)5-3-8(5)7/h1,5-6H,3-4H2	InChI=1S/C7H7NO/c1-2-7-4-9-6(7)5-3-8(5)7/h1,5-6H,3-4H2/t5-,6+,7+,8?/m1/s1
