16
gdb 15303	4.26228	1.09203	0.93998	2.5443	72.69	-0.2451	-0.0232	0.2219	1198.6251	0.127914	-346.566012	-346.557561	-346.556616	-346.599811	30.183	
O	-0.4636663712	 0.1619617584	-0.0765477843	-0.238513
C	-0.0121084284	 1.2751913284	-0.0014551226	 0.166089
C	 1.3983611672	 1.6663560962	-0.3913498191	-0.304767
C	 1.4127762469	 2.85263353	-1.3341827752	-0.016683
C	 1.2236960627	 4.255020881	-0.8249653145	-0.288676
C	 2.5864213741	 3.8296756224	-1.3506651353	-0.201369
C	 3.6882431874	 3.6684372916	-0.4488906849	 0.333385
C	 4.6160291239	 3.5290289706	 0.3047499899	-0.466395
H	-0.6320109469	 2.1219060332	 0.374983113	 0.073872
H	 1.9396773119	 1.9316447722	 0.5272202897	 0.133857
H	 1.8949389449	 0.7951309738	-0.8283749946	 0.126779
H	 0.9957878458	 2.6474933727	-2.3162020891	 0.106572
H	 0.6522200304	 4.9574907264	-1.4205678584	 0.125553
H	 1.1443604017	 4.4009364805	 0.2465571482	 0.130156
H	 2.8562142878	 4.2103355098	-2.3312125964	 0.119737
H	 5.4377337019	 3.4116946229	 0.9668387938	 0.200404
59.84	70.5203	117.4842	184.3877	237.8758	323.2779	392.4991	491.6746	527.0174	584.5227	609.0376	655.9237	769.1505	776.2276	823.1888	875.5542	929.0573	968.1471	1026.8056	1071.6094	1083.0188	1125.057	1127.3926	1165.3974	1226.0278	1245.1499	1296.0415	1375.0542	1408.2427	1426.3015	1456.197	1487.1226	1835.4761	2234.6191	2863.3129	3026.6287	3097.6623	3140.4358	3145.5642	3155.0461	3230.0125	3504.0375
O=CCC1CC1C#C	O=CC[C@H]1C[C@H]1C#C	
InChI=1S/C7H8O/c1-2-6-5-7(6)3-4-8/h1,4,6-7H,3,5H2	InChI=1S/C7H8O/c1-2-6-5-7(6)3-4-8/h1,4,6-7H,3,5H2/t6-,7+/m1/s1
