14
gdb 27610	3.39839	1.28108	0.93036	1.0834	82.62	-0.2315	-0.0445	0.187	1170.5474	0.102175	-399.589396	-399.582098	-399.581154	-399.621101	28.446	
O	 0.1043914429	 1.3250695378	 0.0714889776	-0.421532
C	 0.0688691586	-0.022453221	 0.0514860598	 0.428179
N	 0.0737570718	-0.6113108204	-1.134625546	-0.417144
C	 0.0385043679	-1.9587625704	-1.1705321694	 0.169537
C	-0.0023243658	-2.7399312121	-0.0137439921	-0.187285
C	-0.0064944203	-2.0921225076	 1.2210388844	-0.064921
C	 0.0294070669	-0.7097154792	 1.2722081408	-0.20132
C	 0.0443865381	-2.5781981873	-2.4592813042	 0.227888
C	 0.0483462163	-3.1276425442	-3.5299226457	-0.370733
H	 0.1278643523	 1.6043150014	-0.8546767578	 0.299729
H	-0.029697555	-3.8189340694	-0.0905911194	 0.110707
H	-0.0377769988	-2.6698258471	 2.1387904488	 0.113397
H	 0.0279195127	-0.1585596526	 2.2038453324	 0.116624
H	 0.0522503323	-3.6009312078	-4.4807430193	 0.196876
136.505	147.0241	218.1083	374.8595	398.1056	463.8605	487.3666	546.2257	556.9828	577.9346	617.9529	653.824	696.3635	726.6465	761.9516	832.0643	903.6736	976.9044	997.4909	998.8672	1097.3285	1168.1518	1204.3324	1264.1366	1330.2274	1360.101	1472.0123	1500.3122	1621.4441	1635.9426	2231.6322	3186.8785	3216.7219	3221.8313	3501.0995	3764.6391
OC1=NC(=CC=C1)C#C	Oc1nc(ccc1)C#C	
InChI=1S/C7H5NO/c1-2-6-4-3-5-7(9)8-6/h1,3-5H,(H,8,9)	InChI=1S/C7H5NO/c1-2-6-4-3-5-7(9)8-6/h1,3-5H,(H,8,9)
