15
gdb 29219	3.19685	1.38968	0.96975	3.9435	75.1	-0.1866	-0.0281	0.1585	1136.2274	0.113737	-453.972706	-453.964753	-453.963809	-454.004918	30.896	
N	 0.0813930183	 1.4097602076	 0.1503971778	-0.593495
C	 0.0248906754	 0.0128315074	 0.0369264239	 0.123205
C	-1.1099885868	-0.7133836443	-0.0013485206	-0.007338
O	-1.1431501836	-2.073153643	-0.0224521882	-0.245541
C	 0.020983506	-2.8356210767	-0.0174397138	 0.392463
N	-0.037053705	-4.1074313381	-0.0354158064	-0.559436
C	 1.2568446775	-2.089006563	 0.0029630945	-0.329455
C	 1.2665413779	-0.7374777175	 0.0297941	 0.396098
O	 2.3848989537	 0.0281420757	 0.0357981736	-0.437029
H	 0.9168865019	 1.7958069251	-0.2680749642	 0.259671
H	-0.7433656422	 1.8784709851	-0.198721989	 0.246817
H	-2.1056161286	-0.2881159231	-0.006895952	 0.121274
H	-1.0080830304	-4.4183641565	-0.0512274932	 0.214077
H	 2.169861003	-2.6724138074	-0.0084207083	 0.109313
H	 3.162542103	-0.5409705614	 0.014054996	 0.309378
101.6883	197.9834	214.6069	312.2557	350.8481	361.3711	373.2168	434.286	454.6957	542.1762	576.9663	676.0433	685.9596	722.9641	755.4928	788.2546	813.7922	826.9219	851.2679	868.1813	1080.0179	1127.0401	1181.557	1212.0877	1251.0833	1299.6358	1312.3023	1391.2132	1514.6149	1633.8222	1642.9856	1700.4496	1747.7288	3202.424	3214.1941	3494.8226	3549.5123	3646.9578	3813.1958
NC1=COC(=N)C=C1O	NC1=COC(=C[C@H]1O)[NH]	
InChI=1S/C5H6N2O2/c6-3-2-9-5(7)1-4(3)8/h1-2,7-8H,6H2	InChI=1S/C5H7N2O2/c6-3-2-9-5(7)1-4(3)8/h1-2,4,7-8H,6H2/t4-/m1/s1
