20
gdb 74883	2.76607	1.53262	1.16559	1.1304	86.47	-0.2117	0.0143	0.226	1123.2075	0.173073	-365.996284	-365.98832	-365.987376	-366.028329	32.115	
C	 0.0891043235	 1.5243571018	 0.1556030859	-0.471119
C	-0.0521634432	 0.0356953206	-0.0106112912	 0.276741
C	-1.234971847	-0.5712835442	 0.1536769406	-0.089793
C	-1.5225132328	-2.0206777048	 0.0544410582	-0.079365
N	-0.7722492309	-2.8521452211	-0.9022354551	-0.338421
C	-0.5530537916	-3.08711373	 0.5364314468	-0.081144
C	 0.7573897123	-2.739282236	 1.1296954324	 0.001645
C	 1.543947657	-1.7240100906	 0.7618992383	-0.093683
C	 1.2282907106	-0.7267213227	-0.3356259712	-0.357022
H	 0.8110776622	 1.7652736332	 0.946941965	 0.12341
H	 0.4730722297	 1.987633916	-0.7630492296	 0.123132
H	-0.8628364579	 2.0009239733	 0.4055650918	 0.115993
H	-2.0908928282	 0.0411350696	 0.4298418951	 0.070899
H	-2.5722654761	-2.271184374	 0.1914771788	 0.079951
H	-1.3775611746	-3.5749499228	-1.2800506091	 0.232592
H	-1.0209562386	-3.9724733839	 0.9608625388	 0.080643
H	 1.0632641986	-3.3587606805	 1.9693221482	 0.079757
H	 2.4663002017	-1.5662193464	 1.3152012874	 0.087716
H	 1.1250890657	-1.2391057853	-1.2950879485	 0.149311
H	 2.0558985196	-0.0182149019	-0.4320958326	 0.088755
111.4474	186.8562	228.1979	284.4861	325.5694	333.2386	374.3614	417.9825	549.1523	591.342	654.4942	683.3043	740.6928	798.4038	814.0781	856.5019	863.3006	907.177	923.9001	958.4575	978.6991	985.7474	1027.6535	1060.1657	1068.808	1122.3468	1150.393	1159.7612	1207.6559	1228.1742	1257.5642	1270.8535	1340.7872	1370.7448	1404.1355	1411.4327	1437.3286	1456.5584	1473.7841	1479.7541	1491.571	1711.8226	1724.7918	3010.3277	3055.5867	3057.9338	3101.2537	3107.62	3117.9166	3127.0942	3144.3551	3146.0577	3167.2577	3511.1763
CC1=CC2NC2C=CC1	CC1=C[C@H]2N[C@H]2C=CC1	
InChI=1S/C8H11N/c1-6-3-2-4-7-8(5-6)9-7/h2,4-5,7-9H,3H2,1H3	InChI=1S/C8H11N/c1-6-3-2-4-7-8(5-6)9-7/h2,4-5,7-9H,3H2,1H3/t7-,8+/m0/s1
