17
gdb 37398	2.83322	2.23066	1.78891	1.0446	68.85	-0.2444	0.0604	0.3048	816.5682	0.139166	-421.760277	-421.754538	-421.753593	-421.790019	25.139	
C	-0.0484312586	 1.5740414915	 0.0594817755	-0.241512
C	 1.5046923407	 1.4674043887	 0.0197052052	-0.13743
C	 2.0181133295	 1.2721223476	 1.443398759	 0.057748
O	 1.0294349853	 1.3300519298	 2.4944257245	-0.25234
C	 1.5027605801	 0.0549091853	 2.0768015762	 0.055173
C	 0.725577918	-0.7746552668	 1.0657240827	 0.019913
O	 1.7619703462	-1.0985609283	 0.0718493466	-0.297267
C	 1.3056943126	 0.0286232908	-0.6778400526	 0.130999
C	-0.0822772341	 0.0391487127	-0.0179245278	-0.07493
H	-0.4944782818	 2.0899903383	 0.9064724137	 0.127777
H	-0.4376866261	 1.9830198419	-0.8779175301	 0.097794
H	 2.0651945403	 2.2209634755	-0.5333453687	 0.068019
H	 2.9875633239	 1.6770227515	 1.7180618002	 0.099915
H	 2.0801024169	-0.4983661124	 2.8149682518	 0.102974
H	 0.259554941	-1.6759867612	 1.4674049462	 0.079781
H	 1.522849481	-0.0307704524	-1.7450239322	 0.085216
H	-0.944824405	-0.4954472724	-0.4165374003	 0.078169
263.4858	341.582	404.8263	469.0729	533.4568	613.5764	657.3888	710.5811	747.9183	802.1761	811.7167	847.1151	857.4987	904.2698	931.8956	952.4986	981.0872	993.938	1033.5541	1044.2064	1055.3587	1069.824	1104.0564	1116.0031	1135.7343	1198.2755	1224.8764	1239.6363	1259.0388	1276.2762	1298.8064	1307.7976	1333.7229	1343.041	1360.6637	1444.5254	1489.9597	3061.8948	3092.8667	3101.8762	3107.7003	3116.5745	3131.3062	3157.065	3157.9972
C1C2C3OC3C3OC2C13	C1[C@H]2[C@H]3O[C@H]3[C@@H]3O[C@H]2[C@H]13	
InChI=1S/C7H8O2/c1-2-4-3(1)6-7(9-6)5(2)8-4/h2-7H,1H2	InChI=1S/C7H8O2/c1-2-4-3(1)6-7(9-6)5(2)8-4/h2-7H,1H2/t2-,3+,4-,5+,6+,7-/m0/s1
