15
gdb 54472	3.68797	1.37422	1.14776	1.9401	65.34	-0.2307	-0.0009	0.2298	1038.3919	0.112018	-453.871071	-453.863461	-453.862517	-453.90324	29.466	
N	 0.9375981966	-0.2051862736	 0.4308411595	-0.540773
C	-0.1549114342	 0.3677516007	-0.1422545169	 0.288285
O	-0.138331143	 1.3810849899	-0.8169286167	-0.365843
C	-1.4243686214	-0.376439239	 0.0865014616	 0.372092
O	-1.5015173232	-1.4281761988	 1.0587813705	-0.270125
C	-1.8416977351	-1.7397728445	-0.2879635942	-0.052119
C	-3.2864641732	-1.214475117	-0.6061481987	-0.091759
N	-3.8130020863	-0.5795142415	 0.6249004602	-0.31648
C	-2.8622067246	 0.1539940486	-0.2376670859	-0.152241
H	 1.8146394679	 0.2861275515	 0.3809703765	 0.264476
H	 0.8130716034	-0.9388909388	 1.1086602373	 0.273384
H	-1.2972565456	-2.5313250236	-0.7886141041	 0.122388
H	-3.9251781503	-1.5631419542	-1.4055621223	 0.107197
H	-4.7434023673	-0.2301457163	 0.3926835445	 0.238341
H	-3.0735693636	 1.1103138364	-0.6928009114	 0.123175
83.174	160.9275	171.6095	330.7292	353.0515	414.8692	431.6951	498.5012	595.793	621.3828	676.4475	735.2678	770.3357	813.1299	819.5825	831.6481	891.0889	910.5629	932.6199	978.6413	1019.9391	1071.3357	1088.0432	1106.234	1122.7096	1208.7177	1268.8375	1284.4066	1331.1528	1356.4129	1453.5366	1602.9054	1790.0923	3193.5464	3215.2458	3236.3028	3470.0854	3596.0837	3733.5727
NC(=O)C12OC1C1NC21	NC(=O)[C@]12O[C@H]1[C@H]1N[C@@H]21	
InChI=1S/C5H6N2O2/c6-4(8)5-2-1(7-2)3(5)9-5/h1-3,7H,(H2,6,8)	InChI=1S/C5H6N2O2/c6-4(8)5-2-1(7-2)3(5)9-5/h1-3,7H,(H2,6,8)/t1-,2+,3-,5+/m0/s1
