16
gdb 16554	3.08704	2.78541	2.30794	1.772	63.1	-0.2547	-0.0101	0.2446	688.5307	0.134184	-383.733368	-383.727718	-383.726774	-383.762723	23.678	
C	-0.0051548651	 1.5428560085	 0.0097034623	-0.223292
C	 1.5179673638	 1.760616695	 0.0201940568	 0.07774
O	 1.9861247638	 1.4096840074	 1.3383955877	-0.278136
C	 1.7486292204	 0.0523813463	 1.6568004168	 0.031969
O	 0.4446915582	-0.3973454724	 1.3444706463	-0.278136
C	 0.019970341	 0.0045025695	 0.0260969667	 0.07774
C	 1.1065723607	-0.2858222604	-1.010403401	-0.093969
C	 1.9725255799	 0.7293450478	-1.0138180878	-0.093967
H	-0.4955979566	 1.9641677044	 0.8888418645	 0.108055
H	-0.4614952329	 1.9290464434	-0.9056797239	 0.098344
H	 1.8592727216	 2.781629775	-0.1534408456	 0.078579
H	 2.490780463	-0.5823878546	 1.151518872	 0.087398
H	 1.8602646006	-0.0392059001	 2.7394604239	 0.116909
H	-0.9350360098	-0.494162416	-0.1424329729	 0.078579
H	 1.1892050778	-1.2165674197	-1.5579188091	 0.106093
H	 2.9028333834	 0.7923419857	-1.5646779465	 0.106093
264.1427	334.2764	407.6352	409.3974	486.078	591.1733	622.1477	771.9021	802.7343	816.904	871.3406	873.4101	901.1458	928.5815	965.5835	984.2627	990.9032	1015.1791	1049.2467	1116.7649	1123.1039	1163.5026	1180.0852	1233.1138	1288.3834	1296.6852	1312.2941	1346.3943	1360.4235	1370.7076	1443.741	1473.6708	1514.5507	1651.261	2994.1525	3066.5073	3104.7495	3109.1324	3112.5015	3131.3761	3197.9952	3223.0276
C1C2OCOC1C=C2	C1[C@H]2OCO[C@@H]1C=C2	
InChI=1S/C6H8O2/c1-2-6-3-5(1)7-4-8-6/h1-2,5-6H,3-4H2	InChI=1S/C6H8O2/c1-2-6-3-5(1)7-4-8-6/h1-2,5-6H,3-4H2/t5-,6+
