25
gdb 59763	2.47444	1.22071	0.95204	1.2989	88.02	-0.2622	0.071	0.3332	1369.7901	0.229415	-389.513516	-389.503359	-389.502414	-389.548285	38.916	
C	-0.1620664031	 1.7003603789	-0.1806853455	-0.411299
C	-0.1108130193	 0.1788690169	-0.0301142281	 0.104149
O	-1.4149455595	-0.3884022187	-0.1721576221	-0.441901
C	 0.7735162673	-0.4925116784	-1.0790995593	 0.064178
C	 2.2712631679	-0.1020286759	-0.9884324603	-0.226802
C	 3.0654640879	-1.3196137774	-1.5419605996	-0.210033
C	 1.9958842235	-2.3570596311	-1.9559879232	-0.212726
C	 0.7725501658	-2.0443468713	-1.0716457413	 0.010716
C	 0.8879559501	-2.6646208441	 0.3277985276	-0.39817
H	 0.8282152574	 2.148385026	-0.0549269978	 0.121138
H	-0.5471859406	 1.973782635	-1.1684721096	 0.121698
H	-0.8209731736	 2.1428146539	 0.5762330768	 0.099844
H	 0.2902239302	-0.0591680483	 0.9695089138	 0.061821
H	-2.0003348079	 0.0562475621	 0.4490017623	 0.277949
H	 0.3919011345	-0.1821878106	-2.0617473539	 0.0687
H	 2.4816702789	 0.8143697227	-1.5464608261	 0.096561
H	 2.5514307195	 0.0990135849	 0.0521313635	 0.093634
H	 3.710291822	-1.0443571553	-2.3810930562	 0.093609
H	 3.7228831552	-1.7297664215	-0.7694014638	 0.098842
H	 1.7275990945	-2.2138286586	-3.0094156724	 0.090565
H	 2.3435041985	-3.3897069047	-1.8517291378	 0.086
H	-0.148280469	-2.4165395505	-1.5293019208	 0.076156
H	 1.7691789103	-2.3060089396	 0.8719478534	 0.106459
H	 0.0026120817	-2.4376358475	 0.9275417297	 0.124158
H	 0.9716808879	-3.7541603368	 0.2544448706	 0.104753
73.642	101.6992	149.265	167.6742	231.588	248.6913	270.6655	301.1311	308.7855	375.0578	404.9152	473.5657	501.0679	634.9145	654.0825	777.8327	805.1268	839.6568	887.9289	899.3531	930.256	966.7617	984.2292	1000.9074	1035.1311	1044.5051	1068.5337	1093.8124	1101.9105	1137.017	1152.578	1207.6688	1215.5453	1248.9235	1259.1407	1296.3793	1304.3844	1320.317	1330.6926	1339.0665	1360.8346	1376.253	1384.2452	1405.2778	1410.6204	1431.3631	1487.779	1491.0101	1495.4538	1499.4836	1501.7779	1511.469	1517.0814	2954.4953	3005.5255	3025.9932	3029.1232	3032.2341	3034.9222	3053.538	3066.7576	3071.9707	3081.0849	3091.3832	3092.5579	3099.9644	3114.3818	3114.5805	3816.038
CC(O)C1CCCC1C	C[C@@H](O)[C@H]1CCC[C@H]1C	
InChI=1S/C8H16O/c1-6-4-3-5-8(6)7(2)9/h6-9H,3-5H2,1-2H3	InChI=1S/C8H16O/c1-6-4-3-5-8(6)7(2)9/h6-9H,3-5H2,1-2H3/t6-,7-,8+/m1/s1
