13
gdb 129072	3.07756	1.49836	1.00773	6.378	77.1	-0.2339	-0.0696	0.1643	1068.3008	0.092427	-411.807185	-411.800015	-411.799071	-411.839084	26.682	
N	-0.0477155727	 1.3392255926	 0.0107918275	-0.523012
C	-0.0169840876	 0.0568276851	 0.0033815561	 0.189406
C	 1.1968115447	-0.7754847397	-0.0084429948	-0.018981
N	 1.2513406112	-2.0661770447	-0.0160562112	-0.181457
N	 0.0664116195	-2.7197432518	-0.0127864959	-0.239405
C	-1.1415580846	-2.1074438036	-0.0022010587	-0.028953
C	-1.24320793	-0.7486233702	 0.0060733633	 0.085974
C	-2.5277009929	-0.1370188143	 0.0171069098	 0.241464
N	-3.58757773	 0.3291746729	 0.0259951341	-0.331433
H	 0.8993750622	 1.7231841575	 0.0073854667	 0.215504
H	 2.1610233601	-0.2724587112	-0.0112703139	 0.136623
H	 0.1468723497	-3.7228331824	-0.0189078299	 0.289605
H	-2.0060876296	-2.75977295	-0.0007890031	 0.164663
92.688	150.7174	202.3511	369.1153	409.664	430.4808	460.7266	534.7493	559.6032	609.4754	620.5095	735.4534	776.0307	852.9734	883.9423	924.9284	953.3673	1017.0028	1100.1855	1218.5283	1248.6678	1326.4485	1368.9846	1415.5606	1506.9828	1633.5181	1642.6673	1684.8545	2343.1211	3165.3104	3218.442	3450.9639	3662.8856
N=C1C=NNC=C1C#N	[NH]C1=C(CNN=C1)C#N	
InChI=1S/C5H4N4/c6-1-4-2-8-9-3-5(4)7/h2-3H,(H2,7,8)	InChI=1S/C5H5N4/c6-1-4-2-8-9-3-5(4)7/h3,7-8H,2H2
