22
gdb 95215	2.42442	1.72065	1.18916	0.4709	81.61	-0.2147	0.0824	0.2971	1120.5641	0.195373	-404.325254	-404.316691	-404.315746	-404.358092	34.072	
C	-0.0213226475	 1.7199496946	 0.2239288048	-0.416005
C	 0.0040646074	 0.2018721254	 0.1285713923	 0.126272
O	 0.5181006804	-0.1477008279	-1.1556768986	-0.254738
C	 0.195911148	-1.4890855087	-1.463859089	-0.1199
C	 0.7601494836	-2.4425649688	-0.4265389218	-0.013519
C	 2.170312963	-2.2618699524	-0.0031286418	-0.244881
N	 1.074385784	-1.9333834264	 0.9129841768	-0.106184
C	 0.8048154999	-0.5120776286	 1.2432987855	 0.037811
C	 2.0983126519	 0.1932914747	 1.6580037789	-0.400724
H	 0.9769320646	 2.1397053647	 0.0758099201	 0.129534
H	-0.679682629	 2.1294729674	-0.5467433718	 0.121716
H	-0.3918757388	 2.0409403781	 1.2023743622	 0.117037
H	-1.0340811515	-0.1683901277	 0.186459792	 0.065369
H	-0.8993803791	-1.6076384751	-1.5250629565	 0.091296
H	 0.6114972377	-1.700497228	-2.4550351202	 0.110969
H	 0.3238526373	-3.4408824451	-0.439814158	 0.085718
H	 2.7790185146	-3.1137509557	 0.2900671883	 0.107751
H	 2.7149018151	-1.4519381955	-0.4810534386	 0.120204
H	 0.150162958	-0.5396805183	 2.1253040985	 0.078832
H	 2.7381588885	 0.416340789	 0.7995221145	 0.124525
H	 1.8826602944	 1.134089737	 2.1710825031	 0.114625
H	 2.6591820376	-0.4458230626	 2.3457799693	 0.124293
62.378	217.8966	237.8231	271.5009	291.2456	311.9051	315.4644	361.6801	406.8165	475.0884	512.9053	643.5917	689.3997	751.849	772.2847	819.3479	873.8862	923.8138	954.2171	991.1992	1009.6388	1032.2476	1060.992	1095.4209	1115.6357	1121.4704	1133.2879	1146.9936	1161.5821	1173.3871	1197.1415	1283.1385	1306.4628	1340.4027	1357.4264	1380.048	1387.2877	1394.2594	1410.1488	1410.2425	1429.0429	1480.2086	1490.2883	1498.8078	1501.7612	1505.4813	1509.5544	2946.396	2961.7423	3001.0956	3043.9987	3047.0597	3065.4353	3101.0242	3107.7436	3116.4452	3117.8429	3120.133	3125.3192	3188.087
CC1OCC2CN2C1C	C[C@H]1OC[C@H]2CN2[C@H]1C	
InChI=1S/C7H13NO/c1-5-6(2)9-4-7-3-8(5)7/h5-7H,3-4H2,1-2H3	InChI=1S/C7H13NO/c1-5-6(2)9-4-7-3-8(5)7/h5-7H,3-4H2,1-2H3/t5-,6+,7+,8?/m0/s1
