18
gdb 39543	3.27708	2.02846	1.618	1.8897	78.34	-0.2272	0.0109	0.2381	866.8556	0.151558	-364.758768	-364.752768	-364.751824	-364.788748	26.008	
C	 0.0077084438	 1.5802111418	 0.0643615912	-0.294522
C	 1.3598296364	 2.2298566803	-0.0641303374	-0.050522
C	 2.4763839664	 1.532888052	-0.274913032	-0.068414
C	 2.4398782844	 0.0425625147	-0.4262923513	 0.015486
C	 1.1401574101	-0.5871461306	-0.9662768945	-0.118861
C	 1.3638164067	-1.7016810399	 0.1146935283	-0.063701
C	 0.7833974462	-0.7475222071	 1.089997621	-0.051453
C	 0.0839080579	 0.0537579391	-0.0151245024	-0.011376
N	 2.2691434216	-0.7730088669	 0.8453158665	-0.156674
H	-0.4513007096	 1.8713532498	 1.0205222413	 0.111506
H	-0.6677778592	 1.9745633692	-0.7094856927	 0.105606
H	 1.3970095111	 3.3132190724	 0.0241498058	 0.089895
H	 3.437235468	 2.0348879272	-0.3422618391	 0.088625
H	 3.3302283466	-0.3445053777	-0.9278968224	 0.074084
H	 0.9454438479	-0.7011027695	-2.030976315	 0.067676
H	 1.4691398291	-2.7778334335	 0.096101256	 0.095779
H	 0.4676163647	-0.9085792073	 2.1130840311	 0.091411
H	-0.902808622	-0.3833213839	-0.1960106743	 0.075454
194.1233	275.9883	395.1997	470.287	514.6971	600.6987	693.0545	706.1045	754.7987	790.9049	809.9917	838.2158	875.8356	907.0024	915.4215	936.0505	962.2834	981.6359	995.959	1000.87	1035.1425	1036.919	1049.0133	1093.1299	1125.4491	1145.4438	1186.0656	1198.4731	1210.4354	1241.9702	1256.6218	1288.1082	1330.2936	1336.0049	1368.6738	1391.0501	1419.3914	1468.7903	1715.3618	2994.5744	3016.6655	3063.5891	3077.4366	3132.153	3148.0226	3174.816	3192.6363	3210.9885
C1C=CC2C3C4C(C13)N24	C1C=C[C@@H]2[C@H]3[C@@H]4[C@H]([C@@H]13)N24	
InChI=1S/C8H9N/c1-2-4-6-5(3-1)9-7(4)8(6)9/h1,3-8H,2H2	InChI=1S/C8H9N/c1-2-4-6-5(3-1)9-7(4)8(6)9/h1,3-8H,2H2/t4-,5+,6-,7-,8+,9?/m0/s1
