14
gdb 43576	3.34481	1.39423	1.11575	4.6158	68.08	-0.273	-0.0086	0.2644	1041.9643	0.102686	-432.856426	-432.849234	-432.84829	-432.88843	26.948	
N	-0.0130348794	 1.1758528637	 0.3914486787	-0.540326
C	-0.0033519582	-0.0249614379	 0.0178807711	 0.471301
O	 1.113824824	-0.7056058983	-0.421633503	-0.253039
C	 0.7555445427	-1.9471727487	-1.0512491341	-0.028639
C	 1.6373322097	-3.0191991204	-0.5735361231	 0.29814
N	 2.3196926539	-3.891211963	-0.2472056132	-0.311814
C	-0.7179372402	-2.1738051499	-0.7259578231	-0.077034
N	-0.9405983124	-2.1812866874	 0.7185001845	-0.315582
C	-1.1783705019	-0.9352821459	-0.0558302692	-0.131541
H	 0.9152351553	 1.5944419598	 0.3139673283	 0.235738
H	 0.8934852583	-1.84104612	-2.1346416864	 0.14169
H	-1.3284334614	-2.759104117	-1.4023754745	 0.125683
H	-1.8353918889	-2.6189977131	 0.925786579	 0.252889
H	-2.1723617015	-0.520091592	-0.151018855	 0.132534
91.1747	134.4635	202.2053	290.5643	375.3259	413.5089	506.417	567.7183	613.5587	713.5611	780.454	834.1628	849.4217	876.1246	884.3212	912.7984	964.3908	1007.8325	1019.6127	1043.8401	1092.6532	1142.9126	1155.2699	1245.1346	1264.3622	1340.2424	1350.907	1373.8604	1411.383	1799.2217	2371.5305	3037.2207	3195.6616	3220.9291	3482.2559	3508.7576
N=C1OC(C#N)C2NC12	[NH][C]1O[C@@H](C#N)[C@H]2N[C@@H]12	
InChI=1S/C5H5N3O/c6-1-2-3-4(8-3)5(7)9-2/h2-4,7-8H	InChI=1S/C5H5N3O/c6-1-2-3-4(8-3)5(7)9-2/h2-4,7-8H/t2-,3+,4+/m0/s1
