19
gdb 63153	2.31363	1.65661	1.30882	2.0123	75.24	-0.2301	-0.0268	0.2034	1057.9438	0.157946	-423.016232	-423.007426	-423.006482	-423.049944	33.363	
C	 0.2594633166	 1.5963659878	 0.0562419126	-0.457952
C	 0.0840453403	 0.0906893199	-0.0038963008	 0.293011
O	-1.2846268576	-0.2854708106	 0.1509339858	-0.470041
C	 0.647169341	-0.7477603632	-1.1929817233	-0.056178
C	 1.9748162281	-0.2732054616	-1.8322694734	-0.239142
C	 2.7886159153	-1.0842153991	-0.7815087923	-0.235703
C	 1.4586821452	-1.6605986141	-0.1875105462	-0.160977
C	 0.91754286	-0.8113000852	 0.9565163884	 0.358298
O	 0.9850149222	-0.8556214586	 2.1531606817	-0.319344
H	 1.3025913608	 1.8954838878	-0.0800137833	 0.120425
H	-0.3502526565	 2.0803967	-0.713154881	 0.12885
H	-0.0621081621	 1.9671265936	 1.0357650084	 0.124695
H	-1.5235739961	-0.120435273	 1.0713873766	 0.289255
H	-0.134504059	-1.1329530551	-1.8452835338	 0.086802
H	 2.1027787588	-0.660095656	-2.8458037788	 0.109652
H	 2.1472690302	 0.8052833358	-1.8640401768	 0.10333
H	 3.4311514795	-1.8545568533	-1.2113723404	 0.116797
H	 3.3884662245	-0.4989183208	-0.0799571359	 0.114622
H	 1.3748757088	-2.7440566543	-0.1022937975	 0.093602
38.9752	155.5623	189.2285	204.1262	259.3723	263.1897	341.5399	366.4808	413.6654	481.0746	616.2247	656.6001	723.4229	762.4099	797.6477	824.5112	850.9864	919.8042	948.7811	959.8744	982.8109	1009.6928	1051.3299	1092.4793	1109.7876	1139.6617	1174.2872	1180.2409	1214.8524	1241.7741	1252.3131	1275.728	1282.8062	1305.7697	1362.7473	1403.6325	1477.0252	1483.9113	1490.0499	1505.1654	1875.479	3034.4535	3063.9823	3069.0777	3101.8525	3103.7971	3113.1786	3117.1069	3124.2422	3133.4425	3784.028
CC1(O)C2CCC2C1=O	C[C@@]1(O)[C@H]2CC[C@H]2C1=O	
InChI=1S/C7H10O2/c1-7(9)5-3-2-4(5)6(7)8/h4-5,9H,2-3H2,1H3	InChI=1S/C7H10O2/c1-7(9)5-3-2-4(5)6(7)8/h4-5,9H,2-3H2,1H3/t4-,5+,7-/m1/s1
