22
gdb 99134	3.65595	0.84258	0.79121	3.1665	83.73	-0.2379	0.0317	0.2697	1584.3321	0.192654	-404.377962	-404.367348	-404.366404	-404.415046	37.854	
C	-0.2745680299	 1.3171434798	-0.074432226	-0.365962
C	 0.1940597734	-0.1327352921	 0.0535013978	-0.299739
C	 0.5444910179	-0.7430173625	-1.3041898964	 0.41846
O	 0.006946051	-0.3966497047	-2.3400226818	-0.372952
N	 1.4813380835	-1.7419578006	-1.2643570026	-0.328867
C	 1.979451352	-2.3597781017	-2.4579843439	 0.048715
C	 2.4772337451	-3.7793345316	-2.3694029836	-0.339965
C	 1.203994841	-3.4723332157	-3.1233202491	 0.030953
C	-0.1378297936	-3.9239395611	-2.5966222041	-0.404721
H	 0.5408170863	 1.9673032408	-0.4057299107	 0.120358
H	-1.0725384092	 1.3855896106	-0.8163795824	 0.14565
H	-0.6437328529	 1.6939522357	 0.8834358951	 0.106887
H	 1.0431649389	-0.2144870053	 0.7426573212	 0.09488
H	-0.6079709882	-0.7480465289	 0.4825826393	 0.128723
H	 1.9929384787	-1.8853332016	-0.408515537	 0.242023
H	 2.5109882658	-1.6824980041	-3.1220152527	 0.102093
H	 3.3765096063	-4.0438672622	-2.9141546621	 0.115777
H	 2.3712476693	-4.2807770068	-1.4117267999	 0.108705
H	 1.2866540697	-3.4776360864	-4.2065920206	 0.089851
H	-0.1611836499	-3.9008874185	-1.5034067175	 0.109112
H	-0.9358576331	-3.2701004001	-2.9610518167	 0.138235
H	-0.3578780321	-4.9485133931	-2.9148641362	 0.111785
35.7001	40.9703	76.2807	127.9889	189.7165	197.194	253.1164	272.6806	315.7493	360.62	434.9431	444.3963	576.5756	593.645	701.6801	782.3107	808.5034	816.3303	843.3345	909.809	928.774	1010.6278	1014.3225	1056.9368	1079.4682	1086.0968	1096.1336	1110.5269	1145.4731	1180.0691	1192.705	1217.8065	1271.1421	1288.8085	1370.2875	1384.7649	1407.3536	1412.1288	1420.1316	1465.1659	1483.284	1492.4974	1495.445	1502.2167	1503.288	1509.9212	1779.443	3023.0292	3037.1939	3047.9884	3058.1287	3101.3904	3112.5469	3113.9699	3125.8841	3128.1207	3139.0746	3150.0363	3213.6787	3628.0169
CCC(=O)NC1CC1C	CCC(=O)N[C@H]1C[C@H]1C	
InChI=1S/C7H13NO/c1-3-7(9)8-6-4-5(6)2/h5-6H,3-4H2,1-2H3,(H,8,9)	InChI=1S/C7H13NO/c1-3-7(9)8-6-4-5(6)2/h5-6H,3-4H2,1-2H3,(H,8,9)/t5-,6+/m1/s1
