15
gdb 49462	2.99027	1.26463	1.1388	4.3389	65.89	-0.2586	-0.0384	0.2203	1084.5566	0.112543	-457.795809	-457.788369	-457.787424	-457.828356	27.6	
O	 0.3116969912	-0.1405578298	 0.5804254224	-0.261528
C	 0.1629534799	 0.9839289499	 0.1683392302	 0.155486
C	 1.2893843363	 1.94036867	 0.015432945	-0.154586
C	 1.4320195565	 2.9039715302	-1.1779317762	-0.107846
C	 0.2206917171	 3.2233499334	-2.0268386732	-0.385807
C	-0.7750265864	 3.8611617461	-1.0511838179	 0.423553
O	-1.890132137	 4.2266100538	-1.2574439938	-0.313248
O	-0.195754859	 3.9489732639	 0.1942507359	-0.211792
C	 1.1197294994	 3.4412167424	 0.1780326647	 0.066749
H	-0.8437360414	 1.3558106339	-0.1127863237	 0.09694
H	 2.2302108588	 1.5414245276	 0.3803603307	 0.123452
H	 2.4211006932	 2.9929386814	-1.6079440173	 0.122949
H	 0.4635868568	 3.9536599276	-2.8048012737	 0.154975
H	-0.2532288131	 2.3726784562	-2.5223531163	 0.157402
H	 1.7954532077	 4.0091569435	 0.8043384734	 0.133301
87.9567	96.6839	207.5454	211.9424	393.4006	426.0994	482.7153	559.1492	572.4041	680.7275	721.2149	772.157	817.4511	841.2939	948.4275	962.396	1010.2019	1013.6765	1055.5993	1076.5193	1104.8676	1134.0706	1153.3915	1187.4809	1206.7289	1287.6647	1334.2377	1345.2961	1396.0279	1460.7296	1465.7459	1810.9414	1900.1455	2917.8191	3069.9732	3111.8143	3175.3158	3195.4216	3205.5933
O=CC1C2CC(=O)OC12	O=C[C@H]1[C@H]2CC(=O)O[C@@H]12	
InChI=1S/C6H6O3/c7-2-4-3-1-5(8)9-6(3)4/h2-4,6H,1H2	InChI=1S/C6H6O3/c7-2-4-3-1-5(8)9-6(3)4/h2-4,6H,1H2/t3-,4+,6-/m1/s1
