14
gdb 27479	2.14823	1.85112	1.00048	3.5811	69.53	-0.2623	-0.0484	0.2138	1109.4484	0.100522	-473.892915	-473.885136	-473.884192	-473.925609	28.374	
C	 0.0597751943	 1.4723211074	-0.0514466412	-0.47259
C	-0.105424192	-0.0033243715	 0.0519078372	 0.386154
C	-1.2141440878	-0.7140325433	-0.1740633294	-0.267993
C	-1.1996809889	-2.1502950965	-0.0269990974	 0.406352
N	-2.1874946663	-2.9116811448	-0.2155978118	-0.514245
O	 0.0408203071	-2.6904472168	 0.3590179478	-0.261535
C	 1.1589966299	-1.9662330894	 0.5864839597	 0.469663
O	 2.1833630453	-2.4707340441	 0.9111717185	-0.33196
O	 1.0684799113	-0.6117172669	 0.4270778284	-0.259411
H	 0.8361101114	 1.7161001213	-0.7844837832	 0.159588
H	-0.876614321	 1.9451521651	-0.3499488034	 0.147218
H	 0.38170159	 1.8858174313	 0.9102126114	 0.159584
H	-2.1402232953	-0.2440527069	-0.4689690459	 0.139563
H	-1.9371800882	-3.8872533646	-0.0513008807	 0.239613
116.1885	121.6215	154.766	186.75	293.1243	375.9473	483.5254	537.7838	539.0647	579.502	640.8498	700.0413	765.4953	848.5775	857.2378	891.1624	957.4503	1005.047	1063.7911	1066.9837	1107.2532	1121.8677	1199.2746	1325.302	1370.7072	1417.9473	1466.3523	1479.2767	1723.6377	1769.0911	1913.4625	3043.7725	3101.0173	3150.2756	3254.7652	3495.1321
CC1=CC(=N)OC(=O)O1	C[C]1C=C([NH])OC(=O)O1	
InChI=1S/C5H5NO3/c1-3-2-4(6)9-5(7)8-3/h2,6H,1H3	InChI=1S/C5H5NO3/c1-3-2-4(6)9-5(7)8-3/h2,6H,1H3
