19
gdb 39115	4.18421	1.11226	1.02956	2.6434	75.19	-0.2328	0.0624	0.2952	1203.4308	0.159599	-422.954825	-422.946864	-422.94592	-422.988138	29.955	
C	-0.282209863	 1.3184529034	 0.2996722847	-0.352835
C	 1.0770002632	 0.8372525411	-0.1034450158	 0.064524
O	 1.8121373	 0.3669205768	 1.0299796544	-0.286349
C	 0.8325681445	-0.6844292566	 1.2359414035	-0.143721
C	-0.040641505	-0.1645260824	 0.0932088129	 0.27581
C	-0.7832025721	-0.9991085451	-0.8979640011	 0.018815
C	-2.2970473994	-1.2652484339	-0.6869807906	-0.291543
C	-2.456302751	-0.6223275222	-2.0765427428	-0.061049
O	-1.0533502118	-0.2755481929	-2.1247085438	-0.293654
H	-0.4304291243	 1.7317636693	 1.2938547601	 0.109573
H	-0.854087644	 1.7772144473	-0.5003481005	 0.127923
H	 1.6300462283	 1.156289483	-0.9787791248	 0.11485
H	 1.275124376	-1.6666298376	 1.0285557228	 0.106411
H	 0.4131239252	-0.6738595185	 2.2490821828	 0.104141
H	-0.2128057256	-1.9165319871	-1.1088231064	 0.071898
H	-2.596214168	-2.3099660576	-0.5941648348	 0.110088
H	-2.7310586955	-0.6854662468	 0.1293572949	 0.114368
H	-2.7274097755	-1.3175315358	-2.8810951044	 0.103367
H	-3.0976325021	 0.2635270557	-2.141562111	 0.107383
59.3284	83.1557	147.3382	219.2518	310.0426	344.1451	444.3188	471.2561	655.3894	757.5063	774.9762	833.6129	855.056	883.1389	930.4928	952.9541	954.59	987.9136	1000.6287	1017.3791	1023.4701	1048.7444	1058.7228	1079.1275	1091.6886	1130.3535	1160.8064	1170.0628	1208.8235	1219.9566	1256.4459	1275.7547	1278.0907	1316.1684	1356.7145	1387.7041	1418.1133	1476.0664	1486.7381	1514.8146	1531.3312	2981.6962	3015.2699	3018.4976	3063.1153	3064.2772	3081.2183	3114.4889	3139.0203	3189.2996	3216.6094
C1C2OCC12C1CCO1	C1[C@H]2OC[C@@]12[C@H]1CCO1	
InChI=1S/C7H10O2/c1-2-8-5(1)7-3-6(7)9-4-7/h5-6H,1-4H2	InChI=1S/C7H10O2/c1-2-8-5(1)7-3-6(7)9-4-7/h5-6H,1-4H2/t5-,6-,7-/m1/s1
