17
gdb 9830	3.48443	1.5856	1.24723	2.1361	65.67	-0.2445	0.0226	0.2671	1011.9842	0.140626	-401.017735	-401.008831	-401.007887	-401.051446	31.316	
C	-0.347965169	 1.4226028921	 0.4463854467	-0.333963
N	-0.2679278837	-0.0128699907	 0.6162927989	-0.312302
C	 0.9123197702	-0.6767896025	 0.6935740807	 0.336722
O	 2.0147020807	-0.1566491564	 0.6457728116	-0.388477
C	 0.7635911184	-2.181899966	 0.867389879	 0.310174
C	 1.805069733	-3.012318012	 0.1613005862	-0.463429
C	 0.1001068893	-2.6648381961	 2.0926259309	-0.205993
O	-0.5896879147	-2.6711785874	 0.8391017688	-0.282242
H	 0.6710890038	 1.8118127479	 0.4642741858	 0.168701
H	-0.8130077776	 1.6871127822	-0.5100349077	 0.127855
H	-0.9242984816	 1.8870506702	 1.2540889261	 0.12586
H	-1.0995044043	-0.5833457247	 0.5887393889	 0.261773
H	 2.7998500558	-2.6614761558	 0.4433578389	 0.154855
H	 1.6982842534	-4.0684035092	 0.4194685685	 0.12063
H	 1.7071267543	-2.9070637536	-0.9237156468	 0.132827
H	 0.3617176293	-3.6469851339	 2.4830481963	 0.124524
H	-0.2708613174	-1.9509149441	 2.8258060172	 0.122483
76.5529	90.5955	127.732	179.317	201.6351	284.2287	318.0245	337.9698	375.1858	504.239	542.6569	618.4868	762.8311	777.8601	850.5541	884.1207	937.168	1008.5012	1070.5789	1101.6465	1135.2824	1154.2148	1166.3446	1179.0842	1212.7991	1307.9969	1373.9436	1409.4229	1441.0443	1478.1279	1492.8798	1498.0125	1499.8742	1520.9162	1570.2497	1778.2275	3027.6457	3050.1637	3079.4634	3088.1098	3119.3644	3145.0118	3148.8769	3179.4082	3621.2702
CNC(=O)C1(C)CO1	CNC(=O)[C@@]1(C)CO1	
InChI=1S/C5H9NO2/c1-5(3-8-5)4(7)6-2/h3H2,1-2H3,(H,6,7)	InChI=1S/C5H9NO2/c1-5(3-8-5)4(7)6-2/h3H2,1-2H3,(H,6,7)/t5-/m1/s1
