19
gdb 94877	2.69103	1.72036	1.38618	1.2716	73.52	-0.2234	0.052	0.2753	1004.8935	0.159594	-422.962156	-422.95445	-422.953506	-422.993997	30.69	
C	-0.0368282399	 1.5510922553	-0.0214453931	-0.40553
C	 0.0317571947	 0.0256013638	 0.0586895486	-0.082899
C	 0.773929268	-0.6198392137	-1.1628395865	-0.109759
O	 1.3806438074	-1.8514222413	-0.7240936253	-0.294668
C	 1.5296219962	-1.75829447	 0.6559864438	 0.272301
C	 2.2957769038	-0.6226988182	 1.299687158	-0.398273
C	 0.7910678532	-0.5899023588	 1.2123501382	 0.333952
O	 0.1723720598	-1.3711114229	 2.2557822034	-0.332609
C	 0.7500416921	-2.5834710354	 1.6794736138	-0.144305
H	 0.9664013807	 1.990151867	-0.0135280532	 0.118953
H	-0.540105941	 1.8784702995	-0.937627478	 0.115986
H	-0.5897809899	 1.9615331387	 0.8280409475	 0.130089
H	-0.9831721983	-0.3848119471	 0.1118591244	 0.099172
H	 0.1058164531	-0.8500423788	-1.9977538138	 0.117695
H	 1.5515946629	 0.06440593	-1.532110604	 0.101428
H	 2.7578638251	-0.7567572637	 2.2723226467	 0.125014
H	 2.839596282	 0.0182983741	 0.6147024621	 0.127687
H	-0.0190887488	-3.2066322464	 1.2111389938	 0.116595
H	 1.3129274189	-3.1641959522	 2.4180948436	 0.109172
121.1403	183.7291	230.2702	256.7024	312.4109	357.2644	427.5167	452.7782	580.0664	590.1897	661.6656	732.1108	797.0923	871.8454	890.5568	906.5286	921.6257	938.4898	965.8966	978.0087	1020.8237	1048.8353	1059.0255	1099.7369	1120.8691	1145.3353	1163.7176	1204.4073	1228.3381	1272.9112	1297.7803	1332.3187	1355.7593	1369.4687	1399.6207	1413.898	1464.9127	1494.2169	1500.5849	1507.9746	1519.8253	2999.5401	3032.2219	3033.7651	3045.9643	3086.0039	3089.2297	3099.7297	3113.5651	3131.1648	3226.4544
CC1COC23CC12OC3	C[C@H]1CO[C@@]23C[C@@]12OC3	
InChI=1S/C7H10O2/c1-5-2-8-6-3-7(5,6)9-4-6/h5H,2-4H2,1H3	InChI=1S/C7H10O2/c1-5-2-8-6-3-7(5,6)9-4-6/h5H,2-4H2,1H3/t5-,6+,7+/m0/s1
