13
gdb 16049	3.68937	1.79904	1.5088	3.8397	59.55	-0.2659	-0.0188	0.2471	828.5886	0.09541	-398.553334	-398.546489	-398.545545	-398.584331	25.473	
O	-0.0182649858	 1.3937043565	 0.0515655794	-0.424275
C	-0.0601006824	 0.0119790159	 0.0579231132	 0.086349
C	-1.3450650372	-0.788871001	 0.0750603171	-0.21765
C	-2.3723752123	-0.0820808802	-0.7966191797	-0.108582
O	-1.4172232288	 0.0429684618	-1.8995302294	-0.328506
C	-0.4581754563	-0.7446336774	-1.1811238608	 0.272885
C	 0.3029001699	-1.7295336197	-1.8759918649	 0.219652
N	 0.9381937036	-2.5326084178	-2.4151105736	-0.339533
H	-0.3698500759	 1.6818340289	-0.8025670567	 0.305652
H	 0.7479538327	-0.4290060576	 0.6336586385	 0.13733
H	-1.5296809526	-1.6096585565	 0.7543546491	 0.130389
H	-3.2115003903	-0.712681876	-1.1011184514	 0.136913
H	-2.7286584447	 0.8928804531	-0.4508508208	 0.129376
139.0239	172.379	224.0298	271.1818	417.1381	450.4623	507.1001	537.8472	568.9602	702.0709	798.0483	819.9046	902.1733	962.2511	972.5104	993.3962	1031.1578	1101.8938	1108.485	1164.1366	1176.1115	1234.279	1306.5911	1326.5511	1371.6932	1453.114	1512.4493	2347.1722	3054.9068	3112.6307	3173.8875	3216.1208	3750.3936
OC1C2COC12C#N	O[C@H]1[C@H]2CO[C@@]12C#N	
InChI=1S/C5H5NO2/c6-2-5-3(1-8-5)4(5)7/h3-4,7H,1H2	InChI=1S/C5H5NO2/c6-2-5-3(1-8-5)4(5)7/h3-4,7H,1H2/t3-,4+,5-/m1/s1
