18
gdb 62201	5.37919	0.56972	0.53033	2.7158	79.3	-0.2691	0.0079	0.277	1972.4824	0.144869	-401.925147	-401.914839	-401.913895	-401.961477	36.181	
O	-0.0815468778	 1.4308554406	 0.062942688	-0.4047
C	 0.0305284581	 0.0196621818	 0.0335455573	-0.028497
C	 0.6868331373	-0.5132631282	-1.2530635142	-0.208202
C	-0.0879844915	-0.1023757021	-2.5075202119	-0.181598
C	 0.5963280775	-0.5927361852	-3.7990868951	-0.362297
C	-0.133875069	-0.2146937081	-5.0025679432	 0.289384
C	-0.7557361965	 0.1085318985	-5.978808696	-0.428112
C	 0.7495020876	-0.4788158265	 1.2253838016	 0.257038
N	 1.3431430726	-0.8506507597	 2.1444546706	-0.313166
H	 0.8067576373	 1.8049856213	 0.0984697364	 0.296116
H	-1.0007367128	-0.3479977071	 0.0890893428	 0.142967
H	 1.7188849328	-0.140085856	-1.2985367216	 0.109583
H	 0.7558793917	-1.6055008949	-1.1814435088	 0.123885
H	-1.1052221104	-0.5091037924	-2.4658667867	 0.115746
H	-0.1896625398	 0.9860074793	-2.5369906362	 0.129644
H	 1.6166659915	-0.1896476235	-3.848424733	 0.131868
H	 0.7053441208	-1.684936308	-3.7656411257	 0.132925
H	-1.2964714694	 0.3885575302	-6.8486249644	 0.197416
46.2758	75.303	86.8936	130.5166	149.548	226.6348	281.8282	306.3982	335.4927	347.7731	422.2265	521.2312	583.6888	593.1826	621.8755	643.2445	744.4497	828.2305	886.5914	959.8606	974.8258	1037.3363	1056.2723	1095.6007	1106.7669	1160.432	1246.5506	1272.3238	1303.302	1322.1115	1336.9644	1366.857	1392.8171	1420.1184	1473.684	1478.7828	1504.6173	2241.2456	2354.9048	3013.9568	3019.9844	3040.4522	3048.7692	3052.8907	3068.307	3104.7998	3506.5873	3797.7795
OC(CCCC#C)C#N	O[C@@H](CCCC#C)C#N	
InChI=1S/C7H9NO/c1-2-3-4-5-7(9)6-8/h1,7,9H,3-5H2	InChI=1S/C7H9NO/c1-2-3-4-5-7(9)6-8/h1,7,9H,3-5H2/t7-/m0/s1
