17
gdb 37674	3.11403	2.41641	2.06483	1.0014	71.35	-0.2247	0.0619	0.2865	755.4359	0.141245	-380.814053	-380.808871	-380.807926	-380.843225	23.424	
C	-0.0520094291	 1.4557016148	-0.0292412019	-0.171566
C	 1.4077337117	 1.9018733078	-0.0215161758	-0.070014
C	 2.1495644767	 1.5729908555	-1.3102216052	-0.053269
C	 2.0259216892	 0.113333542	-1.5638787954	-0.047801
C	 0.9874812855	-0.680619504	-0.8041811642	-0.049228
C	 1.2472884672	-0.4344096912	 0.6437812972	-0.052308
C	 2.2328237636	 0.7329131879	 0.6180991999	-0.032179
N	 3.0949824973	 0.6093672899	-0.6497961945	-0.154423
N	-0.0324202606	-0.0160291139	 0.0350615502	-0.124505
H	-0.5977339133	 1.8118627116	 0.8511258488	 0.107329
H	-0.5910838037	 1.7872569985	-0.9235926973	 0.108346
H	 1.603206089	 2.8976618121	 0.3748932923	 0.082629
H	 2.4769910527	 2.2805869228	-2.0660805775	 0.090544
H	 2.3849866614	-0.2816809434	-2.5075598256	 0.094088
H	 0.6835166014	-1.6432349364	-1.2015882789	 0.0968
H	 1.2319146722	-1.185209885	 1.4258471889	 0.095005
H	 2.8161927787	 0.911932901	 1.5180483691	 0.080552
320.7782	438.3909	537.4247	623.2518	662.5793	718.406	737.0309	758.4732	781.9683	794.0234	805.5076	860.4843	885.3065	901.7265	931.3735	957.4326	985.7325	1004.7332	1015.4772	1044.7962	1061.8351	1068.1195	1082.0564	1095.0108	1165.5351	1177.2073	1225.0352	1236.5775	1248.6359	1278.0153	1295.9206	1305.4484	1319.7996	1352.1911	1373.9685	1402.4631	1490.8659	3038.4755	3082.4692	3118.2353	3146.0816	3152.2835	3160.9045	3174.1243	3183.3189
C1C2C3C4C5C(C2N34)N15	C1[C@@H]2[C@@H]3[C@@H]4[C@H]5[C@@H]([C@H]2N34)N15	
InChI=1S/C7H8N2/c1-2-3-5-6(8(1)5)7-4(2)9(3)7/h2-7H,1H2	InChI=1S/C7H8N2/c1-2-3-5-6(8(1)5)7-4(2)9(3)7/h2-7H,1H2/t2-,3-,4+,5+,6+,7+,8?,9?/m0/s1
