18
gdb 44356	3.43827	1.60343	1.34007	3.4563	75.66	-0.2473	0.0316	0.2789	978.4045	0.150847	-401.939145	-401.932365	-401.931421	-401.970418	27.841	
N	-0.038192408	 1.0564965099	 0.9985094082	-0.520056
C	 0.0196607694	 0.1331354874	 0.133149613	 0.395027
C	-1.2506064284	-0.4980851567	-0.4067397774	-0.32482
C	-1.0918042405	-1.9528801085	-0.8389935341	-0.041696
C	-0.4892933237	-2.3501029371	-2.1640424171	-0.067145
C	 0.5132246287	-1.2876336041	-2.6145715565	-0.269786
C	 1.230448778	-1.4359294765	-1.2298981295	 0.100167
O	 1.2171960108	-0.3088996966	-0.3516242167	-0.25535
C	 0.2784625451	-2.5701764205	-0.8581025919	-0.10132
H	 0.90556113	 1.3724770704	 1.2328907393	 0.214921
H	-1.9979457651	-0.4034891299	 0.3821687452	 0.140043
H	-1.6115165535	 0.1161757312	-1.2413350483	 0.131224
H	-1.8760391457	-2.6222412501	-0.5006088227	 0.098177
H	-0.9535479799	-3.0937543145	-2.7991338441	 0.092235
H	 1.1590385684	-1.6237548913	-3.4287336497	 0.111511
H	 0.1255910039	-0.2944809347	-2.8615368074	 0.106828
H	 2.2810915145	-1.7103564478	-1.3148747394	 0.098013
H	 0.5378873162	-3.4791796705	-0.3311327309	 0.092027
73.41	213.9479	356.666	395.8963	429.774	463.0658	537.7709	584.3314	696.4254	739.1446	773.5739	799.6051	844.8015	867.7487	907.427	927.2421	958.0321	973.0505	983.4401	1015.8835	1025.4193	1052.634	1073.0303	1093.879	1133.8932	1149.3407	1168.7647	1219.5575	1235.6661	1257.5007	1300.8082	1305.173	1326.4926	1343.2813	1409.5199	1424.3312	1466.6167	1492.5868	1744.9908	3032.1617	3053.4237	3106.8729	3119.5385	3123.653	3164.5417	3189.3978	3201.3999	3458.3444
N=C1CC2C3CC(O1)C23	[NH][C]1C[C@H]2[C@H]3C[C@@H](O1)[C@@H]23	
InChI=1S/C7H9NO/c8-6-2-4-3-1-5(9-6)7(3)4/h3-5,7-8H,1-2H2	InChI=1S/C7H9NO/c8-6-2-4-3-1-5(9-6)7(3)4/h3-5,7-8H,1-2H2/t3-,4+,5-,7-/m1/s1
