17
gdb 35727	2.38021	1.52202	1.08447	5.1493	71.75	-0.2575	-0.0049	0.2526	1116.9417	0.136707	-417.956808	-417.948489	-417.947545	-417.991201	29.843	
N	-0.0113567348	-1.2284451822	-0.0255031185	-0.319799
C	 0.0100395394	-0.0768345098	 0.0669874419	 0.295898
C	 0.0139993106	 1.3853337689	 0.1747956147	-0.026902
O	 0.028032756	 1.8374113953	 1.5401032327	-0.269602
C	 1.3023907283	 2.499011683	 1.3730275192	-0.10378
C	 1.3577627029	 2.1312546527	-0.1260953308	-0.074307
C	 2.5334803907	 1.3650027039	-0.6790357196	-0.009614
C	 3.9064188707	 1.6382204764	-0.1778769539	-0.25166
N	 3.2585169753	 0.3471809689	 0.0869248552	-0.297335
H	-0.8556176242	 1.7726009223	-0.3691307948	 0.129274
H	 1.2395298262	 3.5672757654	 1.6019047669	 0.12122
H	 2.0746695761	 2.0448882894	 2.0064255817	 0.110602
H	 1.1694950224	 2.9950232888	-0.7687259702	 0.106958
H	 2.4185239739	 1.0992983492	-1.7284878944	 0.108163
H	 4.7536687788	 1.599020962	-0.8561130109	 0.128326
H	 4.0160569248	 2.3505933336	 0.6371076982	 0.113716
H	 2.9255499029	 0.2890971122	 1.0461885524	 0.238843
26.9399	90.4635	126.9469	214.5779	230.0967	278.6267	398.4885	514.8894	536.6943	603.7158	710.6094	815.6806	827.4327	863.107	915.2334	943.9461	973.0359	981.0999	1036.2394	1048.0835	1063.5762	1082.1384	1143.2442	1150.9091	1166.4971	1186.3097	1224.7931	1245.2568	1267.9881	1306.9774	1341.8228	1354.6347	1386.3813	1415.3782	1513.7962	1525.6112	2356.4731	3023.2063	3039.3643	3070.9545	3085.6668	3104.9891	3123.1743	3190.6568	3501.835
N#CC1OCC1C1CN1	N#C[C@H]1OC[C@H]1[C@H]1CN1	
InChI=1S/C6H8N2O/c7-1-6-4(3-9-6)5-2-8-5/h4-6,8H,2-3H2	InChI=1S/C6H8N2O/c7-1-6-4(3-9-6)5-2-8-5/h4-6,8H,2-3H2/t4-,5+,6+/m0/s1
