21
gdb 114084	3.51302	1.16855	1.0625	2.498	78.98	-0.2365	0.0877	0.3242	1240.7002	0.18202	-424.202615	-424.193914	-424.19297	-424.23573	33.648	
C	-0.0197936257	 1.2902393968	-0.1786227674	-0.237138
O	-0.0452930849	-0.0522594382	 0.2445312812	-0.249675
C	-1.3121298076	-0.6522238174	 0.1445503166	 0.174359
C	-1.7453490004	-1.0676135469	-1.3021146801	-0.299132
C	-1.8329699709	-2.5956907028	-1.0606931385	 0.417197
C	-2.0491389939	-3.5210254172	-2.2242170619	-0.495358
C	-2.6022282926	-2.6868027012	 0.2847990864	-0.278034
C	-1.2647215239	-2.0715248376	 0.7407026613	 0.034599
O	-0.5955717472	-2.8329937363	-0.3056807955	-0.322415
H	 0.9961565348	 1.6606026464	-0.0215837489	 0.127707
H	-0.2717540353	 1.3970270898	-1.2447140366	 0.105279
H	-0.7191768678	 1.913789825	 0.4017409963	 0.100508
H	-2.0666186912	-0.0230057414	 0.6425212172	 0.058744
H	-2.690192647	-0.6247872521	-1.6286964202	 0.093187
H	-0.9633656863	-0.8311217445	-2.0277877658	 0.112368
H	-1.2558714137	-3.3920340088	-2.9679175381	 0.130096
H	-2.048509378	-4.5644237211	-1.8968920807	 0.126555
H	-3.0079015187	-3.3081605205	-2.7083554679	 0.120226
H	-3.5299018676	-2.1213095335	 0.4123529275	 0.090241
H	-2.7114560574	-3.7182601938	 0.6221468794	 0.108409
H	-0.8342872449	-2.1934576849	 1.7336655955	 0.082277
102.9794	132.6327	179.6069	201.7821	241.0066	298.2684	336.7466	394.3708	442.9276	476.2905	571.0142	632.0903	743.1612	806.6345	832.282	851.7145	885.6951	916.873	932.8527	976.7292	1001.8468	1005.5182	1045.379	1091.6522	1105.7599	1154.4736	1174.1748	1184.7315	1201.8761	1215.1074	1227.5714	1234.9893	1269.0327	1295.7274	1311.7882	1344.3454	1396.4801	1414.8439	1468.3801	1480.5995	1482.5102	1487.7123	1492.3609	1495.2277	1510.1696	2967.8875	2978.5972	3016.408	3037.0585	3056.9701	3063.5141	3106.3253	3113.6582	3116.3401	3118.0159	3134.8022	3139.8864
COC1CC2(C)CC1O2	CO[C@H]1C[C@]2(C)C[C@H]1O2	
InChI=1S/C7H12O2/c1-7-3-5(8-2)6(4-7)9-7/h5-6H,3-4H2,1-2H3	InChI=1S/C7H12O2/c1-7-3-5(8-2)6(4-7)9-7/h5-6H,3-4H2,1-2H3/t5-,6+,7+/m0/s1
