21
gdb 70019	3.18611	1.45781	1.28492	1.7144	81.	-0.2321	0.0815	0.3137	1082.4098	0.184339	-387.068938	-387.06096	-387.060015	-387.101355	31.564	
C	-0.1145617533	 1.5107266479	 0.1182419186	-0.499017
C	 0.0136990051	 0.0178594649	 0.0132656002	 0.355083
C	-0.85190309	-0.9376350616	 0.7825347328	-0.345764
C	 0.6373175849	-0.9946496085	 0.9946280508	-0.119882
C	 1.3497044866	-1.6914306824	-0.1766405364	 0.116425
O	 0.9893567816	-3.0090407612	-0.5405992466	-0.269632
C	-0.0169626388	-2.9980675581	-1.5540476027	-0.076385
C	-0.0903605406	-1.5688770148	-2.1584065993	-0.266899
C	 0.7021652862	-0.6958090773	-1.1738836278	-0.10182
H	 0.8331811083	 2.0112753226	-0.112823733	 0.114989
H	-0.8688119515	 1.8964263682	-0.5791510718	 0.118708
H	-0.4153180401	 1.8128898942	 1.1268712826	 0.117679
H	-1.4004693957	-0.4834058068	 1.6028243143	 0.108242
H	-1.3897776904	-1.7523951148	 0.3094414323	 0.111651
H	 1.0765965001	-0.817901306	 1.9698537132	 0.078922
H	 2.4390617778	-1.6434418487	-0.0915575407	 0.076834
H	 0.2555218549	-3.7497727448	-2.3038543483	 0.098716
H	-0.9822386067	-3.3007011283	-1.1260838247	 0.099419
H	 0.3770237801	-1.5481094496	-3.1466069636	 0.105779
H	-1.1261413258	-1.2392185192	-2.2780527597	 0.106049
H	 1.4184485274	-0.0421730055	-1.6754457302	 0.070903
91.4794	136.8536	204.0955	230.9572	253.2488	337.677	443.981	523.2717	588.8168	671.4572	704.4962	764.0775	782.6584	834.657	861.1923	903.277	919.9966	941.1202	963.6804	978.9673	990.2528	1027.1187	1063.0357	1071.834	1073.4457	1100.0247	1110.3228	1140.7388	1183.9106	1219.2166	1238.2234	1242.0686	1255.7992	1286.844	1298.9624	1339.614	1352.1729	1397.2781	1401.148	1424.7465	1485.6441	1489.1532	1498.1147	1507.4149	1539.712	3003.8314	3016.427	3044.2186	3058.3402	3063.1193	3072.5522	3086.7336	3093.6115	3103.7913	3125.4815	3173.2514	3201.3429
CC12CC1C1OCCC21	C[C@]12C[C@H]1[C@H]1OCC[C@@H]21	
InChI=1S/C8H12O/c1-8-4-6(8)7-5(8)2-3-9-7/h5-7H,2-4H2,1H3	InChI=1S/C8H12O/c1-8-4-6(8)7-5(8)2-3-9-7/h5-7H,2-4H2,1H3/t5-,6+,7+,8-/m1/s1
