15
gdb 125512	4.10052	0.98513	0.89786	3.3026	72.02	-0.2698	-0.0127	0.2571	1292.8597	0.113826	-413.026506	-413.018192	-413.017248	-413.060893	28.735	
C	 0.1415139027	 1.4723306531	 0.0930944996	-0.481417
C	 0.0609802094	-0.0144341051	 0.023449703	 0.357327
N	 0.2148578692	-0.6865325722	-1.107854417	-0.291981
N	 0.0756743376	-1.9785452551	-0.7081072976	 0.054693
C	 0.1306088295	-3.0531100513	-1.6737204633	-0.293547
C	-1.1503757119	-3.2813784378	-2.3588144978	 0.283199
N	-2.1524073004	-3.4815331619	-2.8957988814	-0.28605
C	-0.1610550542	-2.0193358915	 0.6223527263	 0.010999
N	-0.1711147102	-0.803486623	 1.1202842482	-0.304123
H	 0.9430796491	 1.783350456	 0.7700131093	 0.143696
H	 0.3300878826	 1.8871319908	-0.8981351128	 0.143564
H	-0.7926171233	 1.8882376742	 0.4826296522	 0.146617
H	 0.8967640126	-2.8089213273	-2.4141607966	 0.190207
H	 0.4311062067	-3.973174638	-1.1639632187	 0.175572
H	-0.3096697296	-2.9419523808	 1.1644416566	 0.151243
35.5573	79.6468	100.7354	224.1042	260.4954	309.7691	364.9903	408.1223	485.5837	641.1609	687.5147	719.2694	791.0538	857.7011	930.6873	956.3523	989.0347	1041.402	1052.7501	1070.3957	1202.0607	1224.9446	1336.6919	1355.1437	1378.7775	1407.5732	1447.7124	1459.738	1477.1057	1479.2236	1495.9402	1571.571	2371.7585	3050.0517	3071.1101	3107.8034	3119.6894	3148.6094	3251.8851
CC1=NN(CC#N)C=N1	Cc1nn(CC#N)cn1	
InChI=1S/C5H6N4/c1-5-7-4-9(8-5)3-2-6/h4H,3H2,1H3	InChI=1S/C5H6N4/c1-5-7-4-9(8-5)3-2-6/h4H,3H2,1H3
