19
gdb 87174	2.51924	1.32598	1.02492	4.1915	72.17	-0.24	-0.026	0.214	1213.1369	0.156156	-460.16463	-460.154991	-460.154047	-460.199137	36.063	
C	-2.0900547217	 0.1341805751	-2.4932134636	-0.474845
C	-2.622031748	-0.847534262	-1.4790849782	 0.412498
O	-3.5188298438	-1.6236013485	-1.7447709628	-0.317511
C	-1.9595872549	-0.8684935174	-0.1006102202	-0.373138
C	-1.2116275325	-2.1795973279	 0.0899257206	 0.363505
O	-0.1314721954	-2.3528985792	-0.7929628424	-0.475195
C	-1.1310917011	-2.8271782239	 1.4563948141	-0.380335
C	-2.0091512634	-3.4201941139	 0.3765106293	 0.089129
O	-3.3848609277	-3.3241991742	 0.5464309261	-0.433641
H	-2.6447576576	 0.0614884726	-3.4290211835	 0.144259
H	-2.1384972663	 1.1565898354	-2.101928536	 0.140685
H	-1.0308326931	-0.0925485816	-2.6650681118	 0.154726
H	-1.2782808371	-0.0200916389	 0.0270279649	 0.094001
H	-2.7518664479	-0.7929783663	 0.6489973113	 0.143734
H	 0.6317328444	-1.8941991906	-0.4236846556	 0.282833
H	-0.2146656519	-3.3520397276	 1.7040960435	 0.113564
H	-1.6324492893	-2.3408712498	 2.2857709545	 0.121335
H	-1.6428367599	-4.3283098654	-0.1022228819	 0.095743
H	-3.7370233429	-2.9410712761	-0.2749505184	 0.298652
49.976	116.7276	161.4967	188.1447	220.5178	244.0058	313.3739	372.3552	380.8631	410.5827	465.0276	508.6089	516.7213	597.4181	635.5645	766.2064	799.5828	847.7935	901.1208	918.7142	938.6038	978.9528	1024.5417	1035.2986	1038.0928	1110.8896	1159.6058	1183.9912	1226.2174	1247.659	1291.3414	1331.1905	1347.2503	1378.3742	1395.3781	1428.6472	1459.0869	1468.902	1473.6374	1483.219	1787.6115	3033.3375	3044.7482	3095.7623	3105.9252	3109.7938	3133.6173	3156.3175	3228.5276	3647.0163	3786.278
CC(=O)CC1(O)CC1O	CC(=O)C[C@@]1(O)C[C@H]1O	
InChI=1S/C6H10O3/c1-4(7)2-6(9)3-5(6)8/h5,8-9H,2-3H2,1H3	InChI=1S/C6H10O3/c1-4(7)2-6(9)3-5(6)8/h5,8-9H,2-3H2,1H3/t5-,6-/m1/s1
