21
gdb 92324	2.24333	1.69277	1.05992	1.7739	86.66	-0.2187	0.0163	0.2351	1191.3145	0.182271	-387.074042	-387.065185	-387.064241	-387.107347	33.736	
C	 0.0208086165	 1.5294909121	 0.258565261	-0.407835
C	 0.0491687444	 0.0329038543	-0.0124099272	-0.053603
C	 1.2487369867	-0.5838117785	-0.8375578792	-0.272653
C	 1.2088545022	-1.8221214645	 0.1270804197	 0.100843
O	 2.3414089563	-2.3224219108	 0.8126937358	-0.280297
C	 2.1433683025	-2.0458348142	 2.2092278717	-0.146933
C	 1.065157132	-0.9638099593	 2.2807211992	 0.146922
C	 0.8922927133	-0.0952580261	 3.484499502	-0.495962
C	 0.4900286592	-0.9278061901	 1.0806686285	 0.105135
H	 0.9605616465	 1.8629476871	 0.710164338	 0.118545
H	-0.1259551428	 2.0896761004	-0.6711489151	 0.117496
H	-0.7956946388	 1.7967642322	 0.937987186	 0.118845
H	-0.8968805961	-0.2850599855	-0.4672387421	 0.083703
H	 1.0844056456	-0.7638039567	-1.9031264838	 0.096635
H	 2.1636885042	-0.0061730386	-0.6856575905	 0.111099
H	 0.630735808	-2.6474639278	-0.3135965952	 0.073158
H	 1.8719842159	-2.9718129721	 2.7438929724	 0.097433
H	 3.0904371259	-1.6891453951	 2.6384393921	 0.104453
H	 1.8412523339	 0.3687811803	 3.7830426946	 0.124815
H	 0.1622810874	 0.6978544654	 3.3064260909	 0.12877
H	 0.5461224972	-0.6777160123	 4.348377551	 0.129428
115.9641	129.6103	163.7644	171.9958	228.1907	286.9775	296.5029	391.0854	400.7272	485.8269	611.1137	648.5183	670.4348	744.7698	804.0251	906.3645	912.577	923.5681	967.8245	982.2666	1013.0457	1035.3315	1083.6744	1084.1652	1117.9946	1134.085	1151.5278	1155.3324	1194.1218	1202.1696	1236.9757	1257.4663	1279.4184	1345.8771	1356.5701	1389.1238	1408.0368	1413.7257	1470.3866	1477.4205	1488.7419	1494.6488	1498.5664	1517.8305	1760.8109	2958.518	2991.0584	3013.1146	3016.3969	3028.162	3030.2202	3057.3737	3058.0325	3095.5244	3104.6822	3117.8975	3127.6621
CC1CC2OCC(C)=C12	C[C@H]1C[C@H]2OC[C](C)[C]12	
InChI=1S/C8H12O/c1-5-3-7-8(5)6(2)4-9-7/h5,7H,3-4H2,1-2H3	InChI=1S/C8H12O/c1-5-3-7-8(5)6(2)4-9-7/h5,7H,3-4H2,1-2H3/t5-,7+/m0/s1
