15
gdb 64608	2.59139	1.57063	1.27886	4.9942	69.56	-0.2233	-0.0384	0.1849	1002.7107	0.11188	-453.959039	-453.950818	-453.949874	-453.991915	30.78	
O	 0.0157141758	 1.4835279883	 0.0062573265	-0.462342
C	 0.0065067215	 0.0909581823	 0.0604539222	 0.241146
C	 0.7589131453	-0.4748175817	-1.1486899311	 0.132049
O	 1.2326883222	 0.2483664098	-1.9869329749	-0.26885
C	 0.5701463975	-0.4844145083	 1.3438552722	-0.192074
C	-0.3266232637	-1.3180851941	 1.8780145518	-0.034911
N	-1.4864015624	-1.4220951913	 1.0951715362	-0.348449
C	-1.4274373605	-0.5216853632	 0.0305603246	 0.318872
N	-2.2929243417	-0.2137502937	-0.8413459652	-0.514648
H	 0.345832579	 1.7097646197	-0.8786750719	 0.296874
H	 0.8395317572	-1.5775425117	-1.1972504503	 0.107124
H	 1.5515307642	-0.2507984806	 1.7247228986	 0.121215
H	-0.252891118	-1.9038947443	 2.7839578671	 0.136109
H	-2.3659516078	-1.7381634734	 1.4725101569	 0.255072
H	-3.1780635587	-0.7036468776	-0.6979337527	 0.212811
78.0371	102.3204	211.8529	271.2222	312.2003	314.5584	400.8694	422.5978	454.2049	538.492	573.9346	665.3749	697.7504	734.5747	807.2293	826.3728	861.6292	915.9928	957.7703	1014.3705	1052.2521	1082.0132	1122.9723	1137.7091	1212.9026	1278.422	1361.4459	1383.832	1416.1063	1440.7837	1665.3658	1752.4659	1818.1589	2955.6924	3231.8011	3268.3659	3454.9529	3631.2827	3681.7842
OC1(C=O)C=CNC1=N	O[C@@]1(C=O)C=CN[C]1[NH]	
InChI=1S/C5H6N2O2/c6-4-5(9,3-8)1-2-7-4/h1-3,9H,(H2,6,7)	InChI=1S/C5H6N2O2/c6-4-5(9,3-8)1-2-7-4/h1-3,9H,(H2,6,7)/t5-/m1/s1
