16
gdb 28677	3.54627	1.05604	0.87827	1.8411	77.27	-0.2317	0.004	0.2357	1319.4365	0.123257	-400.757463	-400.748792	-400.747848	-400.79169	31.193	
C	 0.1915750359	 1.3915222312	-0.2794234578	-0.495457
C	-0.0386883181	-0.0514480856	-0.0245710348	 0.326429
C	-1.0778504097	-0.796310857	 0.4236188823	-0.196592
N	-0.7137856122	-2.1389215505	 0.4554250655	-0.30079
C	 0.5085183505	-2.146982133	 0.034202282	 0.385727
C	 1.4181886809	-3.3269151598	-0.1197880558	-0.447671
C	 1.9206198984	-3.5079418554	-1.479939968	 0.306212
C	 2.3368849667	-3.6589395825	-2.5959706237	-0.449679
O	 0.99611226	-0.9194227565	-0.2773252892	-0.199892
H	 1.0152037952	 1.7813459296	 0.3290374126	 0.142632
H	 0.4408830966	 1.5787550108	-1.3297419693	 0.145156
H	-0.7110316915	 1.9563185421	-0.0357031779	 0.141646
H	-2.0602027638	-0.4671955779	 0.723433469	 0.120567
H	 2.2661165485	-3.2280290356	 0.5715943813	 0.152341
H	 0.8481095577	-4.2046472688	 0.1990480745	 0.168063
H	 2.7019389948	-3.7923408911	-3.5840789607	 0.201308
40.0973	90.7117	143.3858	201.167	249.8974	309.6406	329.2742	385.862	460.713	622.8644	633.6383	649.7086	654.3653	699.3576	793.066	847.0498	920.9882	956.1999	982.071	999.3867	1038.9723	1067.6703	1142.5845	1210.3319	1231.008	1266.3822	1330.0016	1370.6538	1419.0501	1452.9188	1472.1794	1490.9794	1611.1806	1650.8776	2246.7165	3020.028	3033.8937	3086.3461	3091.9236	3130.1439	3263.487	3506.9155
CC1=CN=C(CC#C)O1	Cc1cnc(CC#C)o1	
InChI=1S/C7H7NO/c1-3-4-7-8-5-6(2)9-7/h1,5H,4H2,2H3	InChI=1S/C7H7NO/c1-3-4-7-8-5-6(2)9-7/h1,5H,4H2,2H3
