19
gdb 56914	3.00823	0.99745	0.88673	4.5129	77.03	-0.2616	0.0102	0.2718	1372.4359	0.157172	-419.194084	-419.183963	-419.183019	-419.229416	36.501	
C	 0.0100600185	 1.5439033953	-0.1894617809	-0.437968
C	-0.0298772417	 0.0428824027	 0.0160502464	 0.314906
C	-1.2216488245	-0.6419574461	-0.6259080368	-0.459417
N	 1.2773944574	-0.6415869361	-0.0394977978	-0.358073
C	 0.5432221078	-0.6003336976	 1.2329174322	-0.091066
C	 1.195860215	 0.1792683972	 2.3637953385	-0.014172
O	 0.2540370416	 0.7632111075	 3.2466043374	-0.409445
C	 2.1403928833	-0.6925099878	 3.096205032	 0.256808
N	 2.836250501	-1.4027786561	 3.685115095	-0.318437
H	 0.9422238564	 1.9786382401	 0.1745033665	 0.129397
H	-0.0655064104	 1.7778366681	-1.2569100754	 0.120018
H	-0.8259230567	 2.028666258	 0.324724548	 0.128443
H	-1.205118261	-0.5025967881	-1.712903707	 0.127859
H	-1.2264043949	-1.7175405778	-0.4211136081	 0.115151
H	-2.1632664449	-0.2236629361	-0.2542327002	 0.130001
H	 1.1973069391	-1.5604003469	-0.4678270027	 0.235007
H	 0.0571755705	-1.5166135531	 1.5689583069	 0.089768
H	 1.7678463175	 1.0085363927	 1.941494249	 0.146817
H	-0.2239015141	 0.0551653739	 3.6935652966	 0.294402
44.4795	98.5893	155.945	161.6125	188.3336	232.6803	256.6541	308.3092	354.7665	382.6455	387.01	434.4536	514.3766	545.0603	611.6406	719.4269	834.8579	905.7987	942.6688	960.2609	972.3632	992.854	1056.1606	1077.4204	1082.3967	1129.3676	1153.9965	1203.2885	1266.8769	1296.6552	1313.8972	1354.9447	1407.5526	1414.5536	1426.8126	1458.3634	1477.4768	1489.5839	1500.6454	1514.3128	2353.6724	3026.5389	3040.5586	3092.3992	3094.3417	3100.8721	3102.2155	3108.204	3137.3029	3502.4445	3802.7929
CC1(C)NC1C(O)C#N	CC1(C)N[C@H]1[C@@H](O)C#N	
InChI=1S/C6H10N2O/c1-6(2)5(8-6)4(9)3-7/h4-5,8-9H,1-2H3	InChI=1S/C6H10N2O/c1-6(2)5(8-6)4(9)3-7/h4-5,8-9H,1-2H3/t4-,5-/m0/s1
