21
gdb 39331	2.68325	1.76636	1.30225	1.5121	81.02	-0.2409	0.0856	0.3265	1040.7406	0.185869	-387.098451	-387.091047	-387.090103	-387.130315	30.178	
C	 0.0010276424	 1.4673210584	-0.1195942288	-0.364184
C	 1.3531293976	 0.7926924816	-0.0301372385	-0.082957
C	 1.9889425749	 0.6663003364	 1.3583789841	-0.240612
C	 1.3140054116	-0.5697045549	 2.0041668694	-0.222143
C	-0.0616125262	-0.7281924517	 1.310474036	 0.072419
O	-0.4102093491	-2.0819105817	 1.0153368352	-0.272232
C	-0.0960745086	-2.3469793765	-0.3494294653	-0.082383
C	-0.3567435952	-1.0290821233	-1.0949958332	-0.331161
C	 0.0818985929	-0.0264540876	-0.0490001745	 0.349217
H	-0.3635841987	 2.0148228323	 0.7464622531	 0.10504
H	-0.2768004827	 1.9111407215	-1.0710691486	 0.108519
H	 1.998185211	 0.8378596894	-0.9016053002	 0.081526
H	 3.0730649626	 0.539182052	 1.2922320412	 0.101742
H	 1.8172519346	 1.5712863834	 1.9531769519	 0.099942
H	 1.8944064365	-1.4706711412	 1.7774818867	 0.108028
H	 1.2368862155	-0.5008624967	 3.093032475	 0.095679
H	-0.8734951787	-0.3232507158	 1.9261877507	 0.074641
H	 0.9590856349	-2.6458873547	-0.4593574112	 0.086632
H	-0.7226657239	-3.1800274368	-0.6791465932	 0.105909
H	 0.1989134414	-0.9537615326	-2.0339304002	 0.100353
H	-1.424760433	-0.9232531516	-1.3185142298	 0.106025
83.5204	169.1046	197.6023	336.6786	396.5394	409.6828	524.0686	558.9696	594.7069	645.5623	797.0161	812.8691	823.0958	830.0381	900.4953	923.6659	926.3455	957.0143	963.0401	975.7661	996.6394	1053.7612	1063.2327	1075.9939	1094.9699	1109.7456	1130.5194	1185.7915	1193.1964	1220.1336	1238.9673	1263.5038	1284.2733	1293.4804	1304.0038	1330.3768	1340.5854	1364.9517	1384.353	1414.7458	1482.0504	1486.2774	1492.0342	1503.1623	1517.4307	2970.8958	3028.4864	3032.4114	3037.019	3046.1506	3082.917	3088.3334	3095.6831	3099.1518	3105.333	3159.3252	3191.1936
C1C2CCC3OCCC123	C1[C@H]2CC[C@@H]3OCC[C@]123	
InChI=1S/C8H12O/c1-2-7-8(3-4-9-7)5-6(1)8/h6-7H,1-5H2	InChI=1S/C8H12O/c1-2-7-8(3-4-9-7)5-6(1)8/h6-7H,1-5H2/t6-,7+,8+/m1/s1
