14
gdb 29410	6.67694	0.86907	0.78437	4.2205	66.79	-0.2458	-0.0282	0.2176	1383.6827	0.099818	-473.874776	-473.866583	-473.865639	-473.908531	28.357	
C	-0.1400896185	 1.4600720246	 0.061010623	-0.4889
C	 0.0092170234	-0.018940932	-0.0340978062	 0.258554
C	 0.0601720977	-0.8154113773	-1.1263291688	-0.11845
O	 0.2160658564	-2.1220974628	-0.69970791	-0.186891
C	 0.2360127621	-2.0084200234	 0.643176335	 0.484608
O	 0.4301184417	-3.1291684553	 1.3613641013	-0.213403
C	-0.1760804658	-4.2989497119	 0.9485246744	 0.167962
O	 0.0486013047	-5.3266602556	 1.4957064224	-0.233654
N	 0.1205740573	-0.8175147705	 1.111779876	-0.371065
H	 0.7168226652	 1.9029177574	 0.5787749787	 0.14731
H	-0.216792567	 1.9112446361	-0.931228011	 0.128447
H	-1.0356551601	 1.7235163372	 0.6329327362	 0.145879
H	 0.0085874394	-0.665824893	-2.190249247	 0.153455
H	-0.8563704665	-4.1434708735	 0.0986044661	 0.126147
50.2066	113.9325	138.2045	154.6719	242.4656	296.3611	384.3794	463.3032	526.4246	643.7518	674.0217	715.4083	747.7121	848.0477	971.7246	1000.4564	1026.9626	1031.2426	1067.994	1101.9523	1113.7642	1230.9244	1301.6974	1370.9861	1418.665	1422.3649	1473.7207	1488.5848	1640.5916	1646.3598	1893.0606	3042.1628	3044.187	3100.4281	3127.091	3301.4342
CC1=COC(OC=O)=N1	Cc1coc(OC=O)n1	
InChI=1S/C5H5NO3/c1-4-2-8-5(6-4)9-3-7/h2-3H,1H3	InChI=1S/C5H5NO3/c1-4-2-8-5(6-4)9-3-7/h2-3H,1H3
