18
gdb 47340	3.21731	1.14747	0.88197	2.9199	79.97	-0.2595	0.0139	0.2734	1283.3811	0.148363	-401.936061	-401.927646	-401.926702	-401.969274	32.007	
N	-0.0755046235	 1.3239172091	 0.1708010366	-0.497276
C	-0.0147542294	 0.0788140369	-0.0464716649	 0.363036
C	-1.2680752352	-0.7661788724	-0.0802917711	-0.260736
C	-1.1976554002	-1.9221611715	-1.1025406053	-0.199519
C	 0.1225950015	-2.6826461095	-0.8733858449	-0.213471
C	 1.2899492914	-1.7151955198	-1.0038013608	-0.085745
O	 1.185144702	-0.5732155978	-0.1410668869	-0.253068
C	-2.3642188775	-2.7918336326	-1.0106749987	 0.294488
C	-3.3198537045	-3.5144208815	-0.9142090847	-0.422694
H	 0.8690027379	 1.7151009519	 0.2035122003	 0.218893
H	-1.4036440515	-1.201946297	 0.9177537686	 0.135627
H	-2.1183177831	-0.1100099821	-0.266449416	 0.142543
H	-1.1681114204	-1.4892380724	-2.1131001407	 0.112155
H	 0.1125766714	-3.1359772458	 0.1239892048	 0.120618
H	 0.2388548991	-3.4902019792	-1.6025959507	 0.117494
H	 2.2353617493	-2.1922493187	-0.7351851569	 0.122277
H	 1.3724111137	-1.3621108337	-2.0420713914	 0.108676
H	-4.167762181	-4.1493018539	-0.8386359271	 0.196701
97.4678	106.5947	137.3238	202.0626	306.4375	376.1208	425.3486	440.1253	499.3308	531.1037	582.3846	634.7871	643.8603	648.4746	808.3836	833.3836	896.5535	925.8934	948.0816	969.2189	1027.1114	1066.3819	1093.063	1105.3041	1145.5819	1189.9601	1261.0581	1278.8342	1291.3985	1313.2463	1330.482	1352.7435	1391.3333	1430.0811	1466.6182	1483.803	1509.1185	1749.247	2238.976	2998.5132	3003.2341	3039.2102	3049.3663	3097.1705	3102.9326	3135.82	3456.6577	3503.8429
N=C1CC(CCO1)C#C	[NH][C]1C[C@@H](CCO1)C#C	
InChI=1S/C7H9NO/c1-2-6-3-4-9-7(8)5-6/h1,6,8H,3-5H2	InChI=1S/C7H9NO/c1-2-6-3-4-9-7(8)5-6/h1,6,8H,3-5H2/t6-/m1/s1
