18
gdb 45528	2.89185	1.55337	1.24695	3.7458	77.44	-0.2297	0.0139	0.2436	1038.5621	0.150526	-401.991263	-401.983856	-401.982912	-402.0232	29.208	
O	 0.0336924882	-0.0137580207	-0.3428756782	-0.359874
C	 0.0131297994	 1.1670829481	-0.131850701	 0.432678
N	-1.0060122256	 2.06834087	 0.0624813706	-0.333749
C	-0.1535970422	 3.2686239419	 0.0845537858	 0.040928
C	-0.2485652144	 4.1521483002	 1.3215278102	-0.225858
C	 0.1690198077	 3.419780382	 2.6072173176	-0.255976
C	 1.4893656801	 2.7153308572	 2.4376018502	-0.059266
C	 1.9045291777	 2.2307710728	 1.2654891038	-0.050653
C	 1.0795575603	 2.305108221	 0.0199872022	-0.234394
H	-1.999553746	 1.9627837353	-0.0885461915	 0.245669
H	-0.2615140842	 3.8705525723	-0.8252570389	 0.082927
H	 0.4155990334	 5.0109060678	 1.1636094817	 0.108537
H	-1.2647551903	 4.5523634768	 1.4188499948	 0.097074
H	 0.2174349126	 4.1300776316	 3.4393489609	 0.103203
H	-0.6067127207	 2.6896878794	 2.878397605	 0.120994
H	 2.1143101892	 2.5961095494	 3.3184233297	 0.091353
H	 2.8568577625	 1.713851921	 1.191370167	 0.097376
H	 1.6912632423	 2.4073210238	-0.8798379897	 0.099029
85.7848	163.2073	199.8219	331.1716	373.5909	416.1993	517.5701	521.8312	563.0505	668.6399	689.5017	741.8347	793.065	798.4571	877.8217	915.1774	921.5572	978.5722	996.7573	1006.7544	1057.2452	1080.673	1098.3309	1143.7838	1176.3276	1186.946	1193.5862	1248.2588	1297.2101	1330.5982	1340.587	1376.2714	1380.6359	1398.1201	1421.6041	1475.0252	1484.1014	1710.4495	1895.9937	3011.1355	3022.5594	3038.2656	3063.3147	3070.3024	3083.3227	3156.0173	3178.9348	3593.4805
O=C1NC2CCC=CC12	O=C1N[C@H]2CCC=C[C@@H]12	
InChI=1S/C7H9NO/c9-7-5-3-1-2-4-6(5)8-7/h1,3,5-6H,2,4H2,(H,8,9)	InChI=1S/C7H9NO/c9-7-5-3-1-2-4-6(5)8-7/h1,3,5-6H,2,4H2,(H,8,9)/t5-,6+/m1/s1
