21
gdb 120504	2.91444	1.03842	0.95115	2.4671	80.78	-0.2509	0.001	0.2519	1368.5433	0.18232	-424.228303	-424.218957	-424.218013	-424.26321	34.763	
C	 0.1631008433	 1.4249256009	 0.801183566	-0.383525
C	-0.0639909912	-0.0421618437	 0.4764548626	-0.038747
O	 0.9080795423	-0.8072795677	 1.1668083891	-0.265737
C	 0.8898409439	-2.2100745219	 0.8732113335	 0.077029
C	 2.0509894828	-2.8508674779	 1.6494451194	-0.265968
C	 1.4336973028	-3.217466465	 3.0174129209	 0.104191
O	 1.5576699917	-2.1785456694	 3.9851518465	-0.439676
C	-0.0222868862	-3.4512665374	 2.6529502829	-0.089753
C	-0.3254729236	-2.8975608809	 1.4792198567	-0.086482
H	 1.167368036	 1.7343311901	 0.4984047622	 0.127833
H	-0.5673471575	 2.0490622052	 0.27775337	 0.116004
H	 0.0603906859	 1.6009072335	 1.8759608622	 0.125485
H	-1.0805550878	-0.3457765167	 0.7707084254	 0.090158
H	 0.0261089086	-0.2169016759	-0.608695913	 0.086277
H	 0.9675033652	-2.3463168518	-0.215383999	 0.064171
H	 2.3777179118	-3.7572415059	 1.1307708847	 0.102348
H	 2.9016932751	-2.1740578943	 1.7483297466	 0.113767
H	 1.9105027452	-4.090628087	 3.471870592	 0.080827
H	 1.2129441166	-1.3808931826	 3.5626225602	 0.280013
H	-0.7173772209	-3.9387873473	 3.3274377889	 0.102269
H	-1.309890824	-2.8717003844	 1.0260004622	 0.099517
52.2782	70.1688	104.9047	189.9267	221.8	253.1596	352.662	391.925	418.3342	443.7749	473.0676	595.2086	764.5551	794.3664	801.0995	817.1404	827.0213	881.1561	907.5441	963.8835	979.9567	987.1162	1006.9128	1049.4488	1075.8346	1110.6725	1133.4801	1149.389	1186.684	1203.247	1247.9274	1296.5835	1301.0062	1319.585	1330.7716	1347.3655	1375.6107	1402.2615	1432.2535	1448.0257	1468.4261	1483.842	1499.5238	1527.911	1671.85	2964.5281	2996.4937	2998.5476	3044.3863	3060.7421	3076.3829	3118.0779	3121.7476	3126.0355	3184.8506	3210.3981	3767.3544
CCOC1CC(O)C=C1	CCO[C@H]1C[C@@H](O)C=C1	
InChI=1S/C7H12O2/c1-2-9-7-4-3-6(8)5-7/h3-4,6-8H,2,5H2,1H3	InChI=1S/C7H12O2/c1-2-9-7-4-3-6(8)5-7/h3-4,6-8H,2,5H2,1H3/t6-,7+/m0/s1
