19
gdb 34531	3.80882	1.15694	0.98026	1.2432	92.21	-0.2122	-0.0137	0.1985	1231.7014	0.160709	-348.733696	-348.725751	-348.724807	-348.765854	32.008	
C	 0.0198720719	-1.2285469063	 0.0964699249	-0.419745
C	-0.0303338058	-0.0249826701	 0.0391092819	 0.218252
C	-0.0257018183	 1.3937457321	-0.0350443505	 0.115042
C	-1.1639069837	 2.1097178557	 0.0471417317	-0.125336
C	-1.1961136099	 3.5849554321	 0.0052173839	-0.061173
C	-0.3401982382	 4.3846216674	 0.9873726407	-0.290242
C	 0.0628604961	 4.2971201956	-0.454193984	-0.019275
C	 1.2143162674	 3.4304645997	-0.9265267089	-0.223669
C	 1.3209177103	 2.0834290337	-0.1867171163	-0.321402
H	 0.0452766185	-2.2883516448	 0.1493035817	 0.188014
H	-2.1101912808	 1.5884381128	 0.1543170086	 0.094361
H	-2.1521893241	 4.0246063392	-0.2579953676	 0.084523
H	-0.7437811792	 5.3236922264	 1.3503169993	 0.112996
H	 0.2136758881	 3.8205918047	 1.7293305453	 0.120961
H	-0.0941535902	 5.1949207296	-1.0452036376	 0.086685
H	 1.0716954944	 3.2327984491	-1.9964299454	 0.106612
H	 2.163372443	 3.9706740856	-0.8321726126	 0.100485
H	 1.7645855913	 2.2324984516	 0.8061728907	 0.118605
H	 2.0107349292	 1.423866966	-0.7213778256	 0.114305
103.4019	154.0362	216.3422	271.6599	342.4048	400.0483	457.8877	521.1961	539.3148	565.4423	591.8525	633.8546	642.7145	753.6733	763.1154	827.003	865.4113	873.046	936.5089	949.9892	986.394	1015.4858	1058.0877	1069.8629	1097.6424	1122.9892	1130.6238	1174.6987	1218.5943	1223.4027	1266.6752	1325.2919	1354.1998	1383.9613	1387.7042	1417.3766	1481.0502	1488.4621	1503.0195	1676.165	2214.0003	3022.7092	3025.2953	3061.7274	3081.294	3135.4638	3144.7621	3160.421	3178.8	3222.9339	3505.1035
C#CC1=CC2CC2CC1	C#CC1=C[C@H]2C[C@H]2CC1	
InChI=1S/C9H10/c1-2-7-3-4-8-6-9(8)5-7/h1,5,8-9H,3-4,6H2	InChI=1S/C9H10/c1-2-7-3-4-8-6-9(8)5-7/h1,5,8-9H,3-4,6H2/t8-,9+/m1/s1
