12
gdb 25350	3.89935	1.22086	0.92976	3.4503	65.61	-0.2774	-0.1205	0.1569	1126.7279	0.077289	-472.67909	-472.671896	-472.670952	-472.711487	25.631	
O	-0.9019869704	 1.1860819865	 0.1391633816	-0.231009
C	 0.2237203347	 0.8314188541	-0.0963187187	 0.122155
C	 1.4041623112	 1.7670979606	-0.0234508411	 0.22486
N	 2.5583458001	 1.2321460703	-0.3067390956	-0.36825
C	 3.697292913	 2.0140257426	-0.2657958962	 0.454094
O	 4.8102524762	 1.6609730551	-0.4999778739	-0.311928
O	 3.5248645427	 3.391709237	 0.0934364852	-0.202468
C	 2.3235438569	 3.886566669	 0.3731103718	 0.117183
C	 1.2048086351	 3.1311653422	 0.3363568468	-0.239982
H	 0.4960188889	-0.2017778118	-0.3848415545	 0.120589
H	 2.3594400782	 4.9415070398	 0.6261545759	 0.164193
H	 0.2222823833	 3.5180612746	 0.5607321785	 0.150565
81.6584	108.2532	201.4006	240.0528	394.7723	409.1485	510.1184	577.6554	635.3568	641.4137	762.0624	802.3052	802.6561	833.9036	952.9039	987.0575	1042.3651	1065.6306	1098.1228	1279.8491	1288.8669	1378.111	1458.6095	1575.0693	1675.4084	1820.3644	1882.3994	2967.7178	3194.9415	3257.7193
O=CC1=NC(=O)OC=C1	O=Cc1nc(=O)occ1	
InChI=1S/C5H3NO3/c7-3-4-1-2-9-5(8)6-4/h1-3H	InChI=1S/C5H3NO3/c7-3-4-1-2-9-5(8)6-4/h1-3H
