20
gdb 57930	3.21784	0.97926	0.83885	1.9958	77.39	-0.2719	-0.0065	0.2654	1457.166	0.167543	-440.337135	-440.326413	-440.325469	-440.374298	37.264	
C	-0.7202803944	 1.4330828677	-0.7757423636	-0.393488
C	 0.1479539228	 0.3311775539	-0.133004024	-0.085125
C	-0.6719844348	-0.6055847966	 0.7564383774	-0.385495
C	 0.8534254932	-0.4470792807	-1.2290835113	 0.456706
O	 0.5720646933	-1.5519622022	-1.6114908275	-0.357251
O	 1.8578592081	 0.3055393973	-1.767061778	-0.246488
C	 2.6003358438	-0.2076496075	-2.8364477099	 0.380108
C	 3.4822979679	-1.3670512901	-2.4686308007	-0.477582
N	 2.4917266684	 0.4125161939	-3.925662214	-0.435786
H	-0.1200829965	 2.08865951	-1.4105778092	 0.143153
H	-1.5134462879	 0.9916364849	-1.3879481547	 0.130592
H	-1.1916892065	 2.0379050906	 0.0042044592	 0.119857
H	 0.9298024598	 0.8229948421	 0.4575497353	 0.101998
H	-1.4300351629	-1.129943117	 0.1688163553	 0.135807
H	-0.0407659211	-1.3617388939	 1.2313015658	 0.120635
H	-1.1744967697	-0.034181123	 1.5423827637	 0.112044
H	 2.8639628391	-2.2235462986	-2.1898232351	 0.176571
H	 4.1286068865	-1.641795273	-3.3042178546	 0.128533
H	 4.103236597	-1.1050849493	-1.6056980146	 0.144554
H	 3.117489294	 0.0116299215	-4.6241465696	 0.230657
32.3827	53.7386	67.8392	152.9012	162.764	206.4882	225.6042	244.5638	309.5767	312.6566	399.6406	470.9125	513.8899	575.5521	650.165	749.9406	808.9916	850.6845	913.7573	936.5941	955.6381	973.148	1008.007	1069.9706	1078.0932	1117.7288	1128.3996	1161.3991	1204.3438	1322.0598	1325.1511	1373.3798	1399.6884	1400.9899	1421.174	1469.3477	1486.877	1488.1648	1489.0107	1499.8707	1512.7124	1766.0973	1825.8088	3040.3121	3044.0406	3046.9296	3049.4424	3111.3377	3116.8421	3122.1955	3126.1067	3131.7752	3145.9104	3492.4661
CC(C)C(=O)OC(C)=N	CC(C)C(=O)O[C](C)[NH]	
InChI=1S/C6H11NO2/c1-4(2)6(8)9-5(3)7/h4,7H,1-3H3	InChI=1S/C6H11NO2/c1-4(2)6(8)9-5(3)7/h4,7H,1-3H3
