21
gdb 92198	3.0683	1.5431	1.29719	1.2069	82.6	-0.2469	0.0781	0.325	1051.423	0.185181	-387.042336	-387.03498	-387.034036	-387.073626	31.158	
O	-0.056956886	 1.5168479112	 0.126454981	-0.436752
C	 0.0128055263	 0.1152814355	 0.0339801015	-0.003185
C	 0.3280383245	-0.7468790183	 1.3253000312	-0.336309
C	-0.7245738419	-1.7620662337	 0.7828839482	 0.032834
C	-2.0080382162	-2.4256309147	 1.3530305761	-0.26497
C	-3.0427155449	-1.5428365328	 0.5883297011	-0.0165
C	-2.4970387651	-0.1343166785	 0.9357542982	-0.239849
C	-1.3436693054	-0.5938787869	 0.0013094365	 0.357075
C	-2.4324279102	-1.290516193	-0.8507294032	-0.334741
H	 0.8392638799	 1.863695909	 0.1775451222	 0.283367
H	 0.6635462679	-0.2039469279	-0.7939393345	 0.06915
H	 1.3524233667	-1.1037189369	 1.4575843042	 0.088292
H	 0.0086364783	-0.2143854294	 2.2235916838	 0.110972
H	-0.2108197468	-2.4505073546	 0.1032762503	 0.069021
H	-2.0679520206	-3.4892718148	 1.104805576	 0.090706
H	-2.1355594333	-2.3269707082	 2.4356979925	 0.099107
H	-4.0989260239	-1.7908846741	 0.7034231529	 0.058842
H	-3.073577995	 0.6788494413	 0.4896340255	 0.099221
H	-2.2835017693	 0.0901809661	 1.9837674816	 0.088691
H	-2.1250726116	-2.1524842526	-1.450564879	 0.086535
H	-3.0731741637	-0.6258908066	-1.435425126	 0.098493
150.5538	218.5761	251.4448	302.9753	392.8376	430.288	478.8833	514.0168	586.2128	617.4962	657.4162	784.913	805.1276	843.4737	849.8907	872.7153	905.8564	933.5413	951.4593	978.8271	1005.592	1024.8938	1054.5955	1078.0466	1096.2202	1108.5033	1134.9621	1153.0308	1169.5746	1178.691	1194.5662	1204.5301	1229.2331	1240.2549	1263.4303	1273.0527	1295.186	1303.1698	1318.1332	1377.7754	1435.3258	1481.6902	1489.891	1493.9064	1528.2331	2987.7202	3035.0795	3047.7672	3049.6783	3060.1891	3067.5437	3092.2227	3104.7229	3113.0541	3120.3822	3129.7123	3818.2157
OC1CC2CC3CC12C3	O[C@H]1C[C@H]2C[C@H]3C[C@@]12C3	
InChI=1S/C8H12O/c9-7-2-6-1-5-3-8(6,7)4-5/h5-7,9H,1-4H2	InChI=1S/C8H12O/c9-7-2-6-1-5-3-8(6,7)4-5/h5-7,9H,1-4H2/t5-,6-,7+,8-/m1/s1
