15
gdb 30935	3.12747	1.23086	0.90452	4.0647	64.31	-0.236	0.0084	0.2444	1214.9887	0.111587	-494.952172	-494.9437	-494.942756	-494.985705	30.306	
C	-0.0119713949	 1.4116754648	-0.3836269525	-0.501368
C	-0.1193357954	-0.0417210892	-0.1197039068	 0.237399
C	-1.1339972017	-0.896068053	 0.0349695073	 0.181298
C	-2.6241683467	-0.7727352708	-0.0099315407	-0.176029
O	-3.0553542432	 0.3551665707	-0.7487163476	-0.396335
O	-0.6159354318	-2.1609304296	 0.2880656339	-0.243322
C	 0.7475567169	-2.0579195884	 0.2840033979	 0.489372
O	 1.5152306142	-2.9462754697	 0.4675933102	-0.371732
O	 1.0672295986	-0.7557542767	 0.0273503423	-0.239794
H	 0.5553542285	 1.6040437618	-1.3010623928	 0.145648
H	-1.0122958334	 1.8341324296	-0.4837443694	 0.160893
H	 0.5097175126	 1.9177943773	 0.4360773036	 0.150163
H	-3.0367886502	-1.714835329	-0.4007101383	 0.127425
H	-3.0336192552	-0.6437875674	 0.9987473317	 0.144567
H	-2.8005297182	 0.2189543397	-1.6678286888	 0.291815
62.7762	155.7297	179.7412	202.8325	221.2286	292.4036	321.0534	369.9211	391.8069	578.6839	613.0377	631.279	724.9008	778.398	812.145	941.4719	964.6458	1003.7893	1034.5945	1074.2002	1084.9276	1198.5798	1225.1206	1247.4467	1301.4846	1391.9175	1415.5435	1424.9897	1482.5754	1487.9457	1499.6127	1779.4327	1938.7392	3000.3971	3036.77	3059.2394	3088.8695	3154.1666	3808.5464
CC1=C(CO)OC(=O)O1	Cc1c(CO)oc(=O)o1	
InChI=1S/C5H6O4/c1-3-4(2-6)9-5(7)8-3/h6H,2H2,1H3	InChI=1S/C5H6O4/c1-3-4(2-6)9-5(7)8-3/h6H,2H2,1H3
