21
gdb 73472	2.68571	1.74899	1.49638	1.4017	80.34	-0.2371	0.0771	0.3141	988.0905	0.186274	-387.11064	-387.103352	-387.102408	-387.141792	30.89	
O	-0.0306522037	 1.3643003017	 0.079084603	-0.482923
C	 0.0370292384	-0.0373874895	 0.0468480817	 0.416271
C	 1.1607422916	-0.5994042829	-0.8095817252	-0.279639
C	 1.1359448765	-2.1539858679	-0.8698945607	-0.211983
C	-0.0320213316	-2.723678851	-0.0448707919	-0.02908
C	-1.3565090539	-2.0982488949	-0.5429510874	-0.229145
C	-1.3085732765	-0.7029969168	 0.0614891987	-0.08282
C	-0.4060064916	-0.7749276678	 1.292219151	-0.122724
C	 0.0782033353	-2.212947135	 1.4117815452	-0.227353
H	 0.7393613304	 1.6835730063	 0.5632383719	 0.27496
H	 1.0764885441	-0.1638768886	-1.8110179967	 0.107798
H	 2.1193597831	-0.2465489061	-0.4065810663	 0.085846
H	 1.0436162146	-2.488729629	-1.9085568209	 0.095875
H	 2.0796016578	-2.5636272531	-0.4940873134	 0.093446
H	-0.0353668053	-3.8152591415	-0.1058428159	 0.061464
H	-1.4263860071	-2.1020916608	-1.6370271967	 0.092014
H	-2.224101385	-2.6457357156	-0.155761338	 0.094258
H	-2.1812732515	-0.0609452648	 0.0510336895	 0.086147
H	-0.631208258	-0.1876935923	 2.1754204492	 0.076291
H	-0.5800318941	-2.7793410538	 2.0818288736	 0.093883
H	 1.0993842765	-2.3051719665	 1.8009439594	 0.087415
136.008	257.0147	313.4321	341.077	367.2529	381.1613	454.9637	475.8635	545.3869	634.5386	687.6254	804.8034	813.0372	822.081	863.5396	877.3161	926.3657	932.4034	949.3881	997.1092	1011.0996	1037.8396	1039.2919	1045.071	1097.7819	1103.1596	1155.0162	1172.798	1175.2875	1181.6744	1248.0982	1258.2935	1274.0398	1286.7547	1307.0861	1325.076	1343.7432	1353.9177	1366.2646	1376.6755	1454.985	1489.4842	1491.5536	1498.2187	1518.8031	3012.8805	3021.2487	3026.6211	3036.655	3055.3263	3058.1572	3063.5519	3073.4549	3080.0329	3172.0625	3186.2565	3786.2203
OC12CCC3CC1C2C3	O[C@]12CC[C@@H]3C[C@H]1[C@H]2C3	
InChI=1S/C8H12O/c9-8-2-1-5-3-6(8)7(8)4-5/h5-7,9H,1-4H2	InChI=1S/C8H12O/c9-8-2-1-5-3-6(8)7(8)4-5/h5-7,9H,1-4H2/t5-,6+,7-,8-
