16
gdb 7047	3.08647	0.94689	0.75448	2.1773	78.33	-0.2445	0.0199	0.2644	1516.462	0.126764	-346.546138	-346.535816	-346.534872	-346.584043	33.6	
C	-0.1353790177	 1.5056285019	-0.0008992582	-0.498604
C	-0.016635963	 0.0552550286	-0.0011754118	 0.042053
C	 0.0868137157	-1.1440453709	 0.0020066758	 0.108798
C	 0.1761345768	-2.6116905512	 0.0069249578	-0.245312
O	-1.0900498035	-3.2256210716	 0.2516754138	-0.392213
C	 0.8009854899	-3.1075023377	-1.228270101	 0.108783
C	 1.2866077019	-3.5278939234	-2.2463455976	 0.04202
C	 1.8805727352	-4.0367387797	-3.4735244465	-0.498619
H	 0.5750523139	 1.9605048045	 0.6979430049	 0.151831
H	 0.060655097	 1.9225212147	-0.9947495501	 0.150273
H	-1.1412439561	 1.8189220517	 0.2995821443	 0.151834
H	 0.7899945856	-2.9241253905	 0.8619038128	 0.140509
H	-1.6670420047	-2.9775597359	-0.4799252381	 0.284686
H	 1.3071066251	-4.8826905381	-3.8681194707	 0.151867
H	 1.9144732914	-3.2654023332	-4.2506058429	 0.150217
H	 2.9055668125	-4.3833476492	-3.3024598426	 0.151877
22.8678	27.3924	61.9109	120.1345	142.0629	181.8431	274.8392	294.4657	340.7608	349.4479	400.6188	496.445	498.8925	592.8678	775.4609	820.3576	1005.3802	1051.8543	1052.3835	1053.8292	1054.5178	1135.1353	1178.5945	1256.8354	1314.5566	1410.8479	1412.9955	1416.9326	1476.4746	1476.6366	1478.216	1478.4175	2369.6807	2372.3801	3024.3659	3028.7617	3029.1036	3090.6808	3090.7253	3091.1328	3091.1633	3801.0189
CC#CC(O)C#CC	CC#CC(O)C#CC	
InChI=1S/C7H8O/c1-3-5-7(8)6-4-2/h7-8H,1-2H3	InChI=1S/C7H8O/c1-3-5-7(8)6-4-2/h7-8H,1-2H3
