16
gdb 6354	4.30709	1.17384	1.02492	2.2976	62.99	-0.251	-0.0233	0.2277	1158.9058	0.127402	-420.931432	-420.922178	-420.921234	-420.966972	30.856	
C	-0.3851339308	 1.4594580709	-0.096456015	-0.241021
O	-0.3685756771	 0.1011538718	 0.3688626234	-0.216496
C	-1.1258376797	-0.7563993874	-0.3345907052	 0.433086
O	-1.7831105002	-0.4396149806	-1.2960504439	-0.356462
C	-1.0410906954	-2.1584382745	 0.2459016867	-0.399642
C	-2.4370017751	-2.7149663643	 0.5868968809	 0.383737
C	-3.3013106584	-3.121499395	-0.5844926847	-0.484833
O	-2.7853076771	-2.816504562	 1.7373167831	-0.285904
H	 0.274027703	 2.0083347774	 0.575456799	 0.138867
H	-0.0216259226	 1.517452836	-1.1252176247	 0.143685
H	-1.3988907491	 1.8649120853	-0.0570062749	 0.146136
H	-0.5766518205	-2.7922191027	-0.5180226651	 0.141368
H	-0.4318196601	-2.1593409629	 1.1482993681	 0.144973
H	-2.851534167	-3.9887271399	-1.0835943586	 0.138209
H	-4.3019457586	-3.38158726	-0.2380917313	 0.139689
H	-3.3345425315	-2.3123386319	-1.3197496978	 0.174606
28.4899	55.6503	116.2159	147.7992	165.0785	206.0561	276.6175	343.9351	418.7701	495.9286	540.8342	625.3925	742.8344	808.0555	874.2451	903.963	1011.4596	1048.1753	1059.7409	1151.9777	1178.5381	1196.5846	1214.5019	1256.6828	1322.5375	1383.8784	1454.2871	1469.4202	1473.5016	1475.3017	1481.5499	1495.7814	1802.9209	1827.2874	3036.7846	3055.5781	3056.7311	3107.1565	3132.1992	3155.6695	3159.8831	3165.215
COC(=O)CC(C)=O	COC(=O)CC(=O)C	
InChI=1S/C5H8O3/c1-4(6)3-5(7)8-2/h3H2,1-2H3	InChI=1S/C5H8O3/c1-4(6)3-5(7)8-2/h3H2,1-2H3
