17
gdb 124756	2.51702	1.48873	0.96689	1.8982	70.69	-0.2097	0.0225	0.2323	1175.0295	0.136404	-455.156923	-455.147985	-455.147041	-455.190816	33.002	
C	 0.3258678885	 1.2235324495	-0.4792047262	-0.408878
C	 0.0336280024	-0.0917941438	 0.2403101985	 0.006359
O	 0.2934557054	-0.004424972	 1.6451269599	-0.430756
C	-1.3705620358	-0.5868443263	 0.0141968837	 0.275402
C	-2.2465945208	-0.567095059	-1.0587845577	 0.126942
O	-1.9869972242	 0.005223364	-2.2723896029	-0.449643
C	-3.3973976084	-1.2552395324	-0.6196497231	-0.110373
N	-3.2579278402	-1.6796180379	 0.6378308374	-0.227291
N	-2.0332672121	-1.2722665318	 0.9877167387	-0.238074
H	 1.3600596461	 1.5246770748	-0.2930216857	 0.121805
H	 0.1660776703	 1.1212516929	-1.5549350097	 0.150483
H	-0.3433505059	 2.0140852533	-0.1196162847	 0.112281
H	 0.7460758078	-0.8505683426	-0.1094771405	 0.113156
H	-0.1707721524	 0.7750714092	 1.9727782771	 0.281536
H	-2.7602194395	-0.1012821395	-2.8339283254	 0.300537
H	-4.3112375561	-1.4514923953	-1.1628912631	 0.102668
H	-1.6703212852	-1.4565408131	 1.9081476234	 0.273847
45.4448	160.2668	177.8949	191.4178	254.0212	313.5654	320.2364	353.3911	366.0457	475.0236	525.8339	558.141	634.418	702.3762	719.951	747.9092	837.0386	900.2244	956.122	1033.9393	1065.4456	1097.075	1135.8515	1160.564	1249.9379	1271.1205	1282.9117	1313.3786	1350.8906	1395.9131	1406.9187	1415.7756	1446.8788	1489.3036	1494.19	1536.453	1651.178	3019.3835	3036.2892	3109.6334	3139.6696	3231.2792	3670.9256	3789.0785	3841.0915
CC(O)C1=C(O)C=NN1	C[C@@H](O)c1c(O)cn[nH]1	
InChI=1S/C5H8N2O2/c1-3(8)5-4(9)2-6-7-5/h2-3,8-9H,1H3,(H,6,7)	InChI=1S/C5H8N2O2/c1-3(8)5-4(9)2-6-7-5/h2-3,8-9H,1H3,(H,6,7)/t3-/m1/s1
