18
gdb 19873	3.33834	2.16453	1.96314	2.1227	70.72	-0.2112	0.0699	0.2812	793.4377	0.156181	-343.928302	-343.921506	-343.920562	-343.958917	27.205	
C	-0.2929640482	 1.5804108475	 0.1056476035	-0.429303
C	-0.0095422083	 0.1025709981	-0.0445580922	 0.01714
C	 0.6152956402	-0.6135884135	-1.198371103	-0.048627
C	 1.4836162446	 0.0369640354	-2.2462393933	-0.046601
N	 1.7172734081	 1.4960416048	-2.1369962445	-0.330409
C	 2.6999678542	 0.5547656624	-1.566841452	-0.037994
C	 2.5267452113	 0.2852294896	-0.0715270581	-0.175382
N	 1.309846418	-0.5429279879	 0.1170220251	-0.12873
H	 0.4184158483	 2.2090716432	-0.4223482512	 0.158205
H	-1.2926542313	 1.7972820841	-0.2872190324	 0.114144
H	-0.2987044952	 1.8413176978	 1.1710067216	 0.110086
H	-0.7623608002	-0.4944083889	 0.4742906464	 0.084848
H	 0.2257219424	-1.5906133136	-1.4793648119	 0.082178
H	 1.5224535935	-0.4219762905	-3.2281817276	 0.087849
H	 2.0619540679	 1.8409649693	-3.0302380171	 0.231064
H	 3.6891457467	 0.4977363182	-2.0112915025	 0.089332
H	 3.3794039608	-0.2954659666	 0.2960312766	 0.108105
H	 2.4778912973	 1.2098545304	 0.5136035328	 0.114093
147.7399	178.4491	247.9903	306.777	390.8796	479.2842	599.3839	670.8689	701.0031	730.9141	734.6289	812.5961	863.0601	879.7929	892.6132	946.8663	969.1386	1003.815	1031.0471	1062.9456	1092.7018	1109.9622	1145.847	1161.2969	1173.2196	1176.584	1224.6601	1242.7163	1309.7903	1328.4345	1363.0287	1391.7812	1405.9507	1422.6551	1441.4201	1488.2748	1496.0197	1512.3521	3029.0716	3041.1561	3073.3482	3078.5136	3082.3386	3114.9743	3152.3384	3172.875	3186.084	3488.4507
CC1C2C3NC3CN12	C[C@H]1[C@H]2[C@H]3N[C@H]3CN12	
InChI=1S/C6H10N2/c1-3-6-5-4(7-5)2-8(3)6/h3-7H,2H2,1H3	InChI=1S/C6H10N2/c1-3-6-5-4(7-5)2-8(3)6/h3-7H,2H2,1H3/t3-,4-,5-,6-,8?/m0/s1
