18
gdb 114402	3.41409	1.09424	1.07691	4.793	71.72	-0.2413	0.0014	0.2427	1214.607	0.148013	-439.079791	-439.071603	-439.070659	-439.112974	30.707	
C	 0.0625595919	 1.311212669	-0.38803299	-0.387766
C	-0.0129044887	-0.1825760405	-0.0595323005	-0.175074
C	-1.4434045989	-0.6566125825	 0.1401182787	 0.017623
N	-2.32232389	-0.5813676347	-1.0742801457	-0.331072
C	-2.7866791915	-1.9795287212	-0.8652767572	-0.209222
C	-1.7359938802	-2.1717112047	 0.2454991618	 0.074231
O	-0.9351415517	-3.0022659203	-0.6499513248	-0.259177
C	-1.8842098045	-2.9398173549	-1.6593979969	 0.48903
O	-1.8542396108	-3.4839243813	-2.7119055456	-0.317778
H	 1.0970332124	 1.62652706	-0.5510236277	 0.119285
H	-0.5035292098	 1.5326540377	-1.2982013578	 0.131519
H	-0.3478725347	 1.9219514266	 0.4245205663	 0.107957
H	 0.4384161664	-0.768501077	-0.8659579919	 0.122297
H	 0.5571786847	-0.4006397394	 0.8529394919	 0.097725
H	-1.8971371484	-0.1496338116	 1.0042731823	 0.076668
H	-3.067187075	 0.1005737102	-1.0051252158	 0.232202
H	-3.8564045605	-2.1752770143	-0.806926645	 0.108174
H	-1.8712910306	-2.6508458911	 1.2125371981	 0.103377
75.0524	111.6692	168.6413	212.5774	253.5222	298.2456	426.3505	440.1702	548.2241	646.8034	691.4055	767.8467	783.7454	818.8376	829.3573	899.4512	914.7744	940.1899	971.4722	1009.2027	1036.4747	1060.3565	1108.7461	1113.0988	1150.9018	1174.809	1214.7185	1223.3755	1287.8581	1297.5155	1324.9345	1353.4423	1380.4177	1399.6321	1406.8228	1481.1933	1499.3237	1510.5823	1947.9787	2995.3189	3030.1564	3031.7127	3083.8463	3105.2087	3113.5945	3127.2121	3144.3363	3559.1525
CCC1NC2C1OC2=O	CC[C@H]1N[C@@H]2[C@H]1OC2=O	
InChI=1S/C6H9NO2/c1-2-3-5-4(7-3)6(8)9-5/h3-5,7H,2H2,1H3	InChI=1S/C6H9NO2/c1-2-3-5-4(7-3)6(8)9-5/h3-5,7H,2H2,1H3/t3-,4-,5+/m1/s1
