18
gdb 116944	2.08621	0.5979	0.47691	1.4788	85.23	-0.2414	-0.0525	0.1889	2193.9689	0.138219	-439.082899	-439.068832	-439.067888	-439.129489	41.963	
C	-0.4464088289	-0.0299771075	-1.2403726779	-0.312003
N	-1.2420478464	-1.257527253	-1.1332776244	-0.5041
H	-1.280534073	-1.7191996415	-2.0369363415	 0.229674
H	-0.7891919013	-1.9115513629	-0.5004953496	 0.243296
C	-2.1279689896	-3.1060803698	 1.8577378552	-0.44426
C	-0.8712573483	-3.4191464452	 1.6441190229	 0.138399
C	 0.3411488267	-3.7151753262	 1.4286263742	 0.140843
C	 1.5976004064	-4.0359897666	 1.2247706436	-0.433394
C	-4.0196926345	-0.4186750667	-1.0398660105	 0.585458
O	-4.3198835809	-1.0553314146	-0.1131271227	-0.295845
O	-3.7895713911	 0.2403058802	-1.9702380818	-0.30352
H	 0.5769088508	-0.1713846797	-1.6215829634	 0.098765
H	-0.9601335487	 0.6747024738	-1.9008936623	 0.13208
H	-0.372267564	 0.4370043761	-0.2533920692	 0.126419
H	-2.6728825028	-3.5125552788	 2.7057183248	 0.140906
H	-2.6669116783	-2.4330088287	 1.1969587622	 0.177105
H	 2.1605766629	-3.6413980294	 0.383620407	 0.138057
H	 2.1262065812	-4.7112084996	 1.8921004134	 0.142122
9.7619	16.6072	31.6865	34.0387	60.5525	74.8117	82.9944	113.8727	121.3245	131.5891	167.8206	238.5504	239.441	353.2478	384.9508	574.0614	652.3278	690.5475	790.3045	881.4853	899.9527	907.5782	921.3403	988.469	1018.7036	1044.313	1060.9625	1188.1543	1357.9967	1374.9393	1416.5515	1458.4921	1472.7267	1500.7989	1517.5137	1665.0336	1692.4701	2221.4857	2427.5415	2980.3791	3071.2115	3110.4225	3127.3914	3130.843	3202.0945	3212.5498	3487.5065	3563.6186	9.76	16.6059	31.6863	34.0351	60.5518	74.8107	82.9937	113.8707	121.3228	131.5878	167.8188	238.5503	239.4409	353.2474	384.9491	574.0614	652.3276	690.5474	790.3044	881.4825	899.952	907.5782	921.3427	988.4692	1018.7035	1044.313	1060.9623	1188.1548	1357.9975	1374.9392	1416.5516	1458.4929	1472.7266	1500.7999	1517.5146	1665.0343	1692.47	2221.4856	2427.5416	2980.379	3071.2115	3110.4224	3127.3914	3130.843	3202.0946	3212.5496	3487.5061	3563.6184
C[NH2+]CC#CCC([O-])=O	CN.[CH2]C#C[CH2].C(=O)=O	
InChI=1S/C6H9NO2/c1-7-5-3-2-4-6(8)9/h7H,4-5H2,1H3,(H,8,9)	InChI=1S/C4H4.CH5N.CO2/c1-3-4-2;1-2;2-1-3/h1-2H2;2H2,1H3;
