18
gdb 80108	2.72953	1.49159	1.25601	1.6639	84.33	-0.2287	-0.0001	0.2286	1071.2542	0.146703	-364.754175	-364.745906	-364.744961	-364.786502	32.529	
C	-0.2130487012	 1.4624565392	-0.023299244	-0.321717
N	 0.0743013168	 0.0391974983	 0.0446905522	-0.127616
C	 1.4083731904	-0.5132182162	-0.2125599226	-0.117646
C	 2.5944389655	 0.3870702221	-0.127110883	-0.076125
C	 2.7242237264	 0.915040397	 1.0929731769	-0.081453
C	 1.6787738649	 0.3930474207	 2.0503338918	-0.343941
C	 0.8006653304	-0.5289296037	 1.183237501	 0.110148
C	 0.2279099883	-1.692654811	 1.8009358132	 0.224102
C	-0.2288863015	-2.6580256756	 2.3539417342	-0.369448
H	 0.6159933236	 2.1226365571	 0.2651129394	 0.109109
H	-0.5012837544	 1.7054887271	-1.0509332163	 0.124873
H	-1.0691279772	 1.6705891783	 0.6258516743	 0.127499
H	 1.4205289201	-1.3885706794	-0.8552768685	 0.101767
H	 3.2325334005	 0.5953907833	-0.9778473293	 0.102284
H	 3.4662399919	 1.6490630627	 1.3874399324	 0.102938
H	 2.1251448448	-0.1796876003	 2.8709207867	 0.128511
H	 1.0960577294	 1.198240971	 2.5158567974	 0.120381
H	-0.6427009185	-3.5129729007	 2.8282611543	 0.186333
129.77	157.4349	179.6289	232.9321	256.2436	354.5555	431.6158	472.4074	519.8747	556.4038	586.9627	601.0098	650.6376	702.7854	728.3985	762.9017	837.1622	902.3336	946.9206	954.2682	985.5783	995.0456	1065.2457	1081.5891	1135.2175	1136.552	1161.2739	1172.067	1211.5539	1293.9822	1304.7831	1364.6055	1377.771	1442.1351	1469.2839	1484.2484	1507.6041	1663.9181	2237.8774	3004.2158	3033.3034	3066.8136	3076.2158	3105.0994	3153.3206	3186.4714	3212.1016	3503.2566
CN1C2C=CCC12C#C	CN1[C@H]2C=CC[C@@]12C#C	
InChI=1S/C8H9N/c1-3-8-6-4-5-7(8)9(8)2/h1,4-5,7H,6H2,2H3	InChI=1S/C8H9N/c1-3-8-6-4-5-7(8)9(8)2/h1,4-5,7H,6H2,2H3/t7-,8+,9?/m0/s1
