20
gdb 80043	2.70968	1.57542	1.34913	1.277	85.21	-0.2128	0.0084	0.2212	1053.0484	0.172483	-365.982648	-365.974745	-365.973801	-366.014716	31.823	
C	-0.1051408782	 1.5600701439	-0.0106467766	-0.409179
C	 0.0512511803	 0.0577400733	 0.0505997371	-0.006738
C	 1.34868593	-0.6972000749	-0.2260380332	-0.12111
C	 2.628775033	 0.0610557888	-0.1019981825	-0.090968
C	 2.8265735578	 0.4937084645	 1.1474180899	-0.166587
C	 1.7194910348	 0.0615883643	 2.0496686522	 0.350049
C	 1.9622052267	-0.2689429792	 3.4810152433	-0.299796
N	 1.2047132494	 0.9400474857	 3.1282454077	-0.360627
C	 0.7403816869	-0.6862881964	 1.1710186486	-0.14075
H	 0.8130583255	 2.0813756594	 0.2670778077	 0.118681
H	-0.3778671991	 1.8775520421	-1.0233528132	 0.108162
H	-0.8946454469	 1.8912661602	 0.6714214451	 0.125186
H	-0.8203726224	-0.476688658	-0.3220692149	 0.084239
H	 1.3075363179	-1.5704815527	-0.8682026165	 0.084257
H	 3.2869299993	 0.2490842349	-0.9424203264	 0.097515
H	 3.6514880828	 1.1089158396	 1.4921339549	 0.090984
H	 1.3737844246	-1.0525507534	 3.9530592277	 0.117732
H	 2.9738812558	-0.1680116468	 3.8670982437	 0.10839
H	 1.8009275236	 1.7605250005	 3.2153024847	 0.227788
H	 0.2521608085	-1.5616954758	 1.5836565306	 0.082773
106.2271	173.8298	197.2673	272.4033	298.2878	317.7981	461.2447	492.3243	534.4844	642.1349	733.8956	739.6144	767.6345	799.8056	842.0672	856.9198	905.8476	938.2601	947.3046	951.0404	967.049	985.7781	1015.9617	1047.1179	1077.95	1084.5426	1110.0737	1122.492	1132.9137	1138.0357	1222.172	1261.5988	1282.5987	1302.2451	1344.2214	1368.4666	1402.3962	1420.7065	1430.7098	1494.5925	1498.7136	1506.4076	1657.1674	3035.7352	3094.6197	3095.5974	3117.5176	3132.9267	3160.5293	3172.4904	3177.4034	3181.2258	3205.8918	3485.0408
CC1C2C=CC3(CN3)C12	C[C@H]1[C@H]2C=C[C@]3(CN3)[C@@H]12	
InChI=1S/C8H11N/c1-5-6-2-3-8(4-9-8)7(5)6/h2-3,5-7,9H,4H2,1H3	InChI=1S/C8H11N/c1-5-6-2-3-8(4-9-8)7(5)6/h2-3,5-7,9H,4H2,1H3/t5-,6+,7-,8-/m0/s1
