18
gdb 16536	2.82911	2.20833	1.54423	2.8036	71.4	-0.2325	-0.017	0.2155	883.8442	0.153832	-347.80129	-347.793685	-347.79274	-347.833491	28.595	
C	 0.2218122603	 1.6555970212	 0.0792909642	-0.415654
C	 0.1278621898	 0.1389077377	-0.0051219741	-0.091873
C	 0.7043816257	-0.6958443958	-1.1936298063	-0.05276
C	 2.108045522	-0.2822810235	-1.7195656692	-0.227349
C	 2.7897033494	-1.2986598686	-0.7557566309	-0.224608
C	 1.3942262737	-1.6849304608	-0.1774242831	-0.150103
C	 0.9635218228	-0.7351987449	 0.9496393509	 0.386829
O	 1.2254425592	-0.6620795321	 2.1167589042	-0.3081
H	 1.2476738054	 2.0073290353	-0.0646574822	 0.123286
H	-0.4102013998	 2.1370974576	-0.6737413534	 0.118901
H	-0.1052982669	 1.9962633979	 1.066301842	 0.136738
H	-0.9179021394	-0.1725806026	 0.1373303708	 0.1066
H	-0.0190820102	-1.0254613917	-1.9385191169	 0.069827
H	 2.2601651158	-0.5154869859	-2.7755436875	 0.107175
H	 2.3761639304	 0.766399881	-1.5691383908	 0.104507
H	 3.2670518791	-2.1302696104	-1.2781371914	 0.111207
H	 3.5016685405	-0.8966318656	-0.0308903058	 0.116125
H	 1.1569446923	-2.7430614087	-0.0611931205	 0.089251
56.1129	173.4414	175.7901	214.9858	241.1759	443.9006	471.3325	595.3451	607.9015	707.4685	764.1766	795.4348	834.4385	847.1081	929.8443	945.9504	951.3779	993.2559	1029.7133	1061.9114	1083.7768	1114.208	1134.6321	1150.8727	1199.3256	1216.8375	1225.7148	1251.9732	1275.4675	1285.0702	1317.6805	1333.8604	1404.9686	1477.3534	1490.3382	1496.1174	1503.6771	1879.6257	3002.7187	3038.6582	3063.5628	3068.9304	3099.8628	3106.8433	3108.5757	3112.2133	3114.4647	3126.4312
CC1C2CCC2C1=O	C[C@H]1[C@H]2CC[C@H]2C1=O	
InChI=1S/C7H10O/c1-4-5-2-3-6(5)7(4)8/h4-6H,2-3H2,1H3	InChI=1S/C7H10O/c1-4-5-2-3-6(5)7(4)8/h4-6H,2-3H2,1H3/t4-,5+,6+/m0/s1
