21
gdb 106631	2.56645	1.37775	1.21732	0.7982	77.58	-0.2511	0.0684	0.3196	1133.2097	0.183693	-424.212299	-424.203625	-424.202681	-424.245336	34.055	
O	-0.0641658145	 1.4120313001	 0.0470994485	-0.426792
C	-0.0084745954	-0.0095681537	-0.0125755249	-0.203309
C	-1.41459115	-0.5448730672	 0.0297697727	 0.322741
C	-2.3093218256	-0.485199955	 1.3043948409	-0.261355
C	-3.0966526102	-1.620248259	 0.5894487089	-0.072055
C	-3.672015471	-0.8801251126	-0.6336804923	-0.240527
C	-2.4018284359	-0.0695657547	-1.0596066897	-0.267672
C	-1.7013071185	-2.0807994808	 0.0714050431	 0.124781
O	-1.5535279133	-2.8863706285	-1.0669831333	-0.452046
H	 0.8343373155	 1.7498024757	-0.0098033766	 0.287298
H	 0.4803803591	-0.3504899963	-0.9403771701	 0.089757
H	 0.5706481897	-0.4183728454	 0.8312725071	 0.08198
H	-1.787461513	-0.8236580376	 2.2029575371	 0.094385
H	-2.8378804082	 0.4494449947	 1.5034984761	 0.10008
H	-3.7594637894	-2.2973488159	 1.1285001095	 0.060071
H	-4.0288671754	-1.5647141739	-1.4114775426	 0.088513
H	-4.5125645426	-0.2346141032	-0.365769204	 0.102334
H	-2.5478480592	 1.011035752	-1.0229474374	 0.118756
H	-2.0515646839	-0.3158832445	-2.0687114258	 0.08545
H	-1.1237498921	-2.5709038202	 0.8596515145	 0.083214
H	-2.0881241861	-2.521471294	-1.7792185518	 0.284396
79.9394	155.852	233.4988	246.9503	258.0562	271.4008	306.0114	345.5985	458.3977	488.8574	584.5818	649.0022	732.6818	793.677	826.9768	848.8271	877.0955	890.4423	927.4795	952.4747	983.1028	990.1739	1031.2669	1064.5265	1090.2191	1139.288	1144.9616	1160.5153	1170.754	1191.7159	1218.6661	1225.2183	1244.4065	1257.2996	1282.955	1297.3128	1303.6805	1328.7346	1356.0777	1445.8134	1463.8311	1501.0389	1502.7592	1514.3178	1528.0786	2958.4421	2986.9375	3033.9321	3046.5953	3063.7847	3083.6176	3086.6276	3114.7641	3117.4622	3124.3278	3821.1044	3829.5813
OCC12CC(CC1)C2O	OC[C@@]12C[C@@H](CC1)[C@H]2O	
InChI=1S/C7H12O2/c8-4-7-2-1-5(3-7)6(7)9/h5-6,8-9H,1-4H2	InChI=1S/C7H12O2/c8-4-7-2-1-5(3-7)6(7)9/h5-6,8-9H,1-4H2/t5-,6-,7+/m1/s1
