14
gdb 31945	6.43082	0.84717	0.75729	4.2351	70.7	-0.2594	-0.078	0.1814	1396.5374	0.100471	-473.850798	-473.842686	-473.841741	-473.884311	28.255	
O	 0.4242577926	 0.8937877754	-0.6592393487	-0.396838
C	-0.0370613356	 0.0171439977	 0.3464239716	-0.17672
C	-1.4457913562	-0.4154930274	 0.0922459103	 0.282533
C	-2.263641398	-0.366745323	-1.0006845486	-0.177665
N	-3.4878749335	-0.9055123472	-0.6788122413	-0.265284
C	-3.376837301	-1.2579233717	 0.5680043744	 0.277237
O	-2.1471419849	-0.9810554821	 1.1048406699	-0.191472
C	-4.3473426991	-1.8928322809	 1.4714330807	 0.086074
O	-5.4710981349	-2.1948833512	 1.1573182241	-0.240621
H	-0.0953438754	 1.7035384274	-0.6102803152	 0.293924
H	 0.6358377401	-0.8485381614	 0.3251958897	 0.147745
H	 0.0352485664	 0.4485921407	 1.3567038543	 0.122945
H	-2.0412084462	 0.0136334348	-1.9843456874	 0.144225
H	-3.9386900044	-2.070461421	 2.4881771359	 0.093916
57.401	114.3261	144.3631	223.5068	250.4705	280.2793	355.7934	377.9505	560.1625	651.446	703.5061	709.4384	800.6913	879.051	978.3912	985.8078	1023.594	1024.8549	1094.7872	1134.8262	1198.6854	1227.2561	1243.4761	1321.5847	1396.1596	1416.0498	1442.0281	1492.3334	1544.4222	1607.4829	1810.3459	2918.2727	2991.6426	3055.5879	3275.4147	3810.4389
OCC1=CN=C(O1)C=O	OCc1cnc(o1)C=O	
InChI=1S/C5H5NO3/c7-2-4-1-6-5(3-8)9-4/h1,3,7H,2H2	InChI=1S/C5H5NO3/c7-2-4-1-6-5(3-8)9-4/h1,3,7H,2H2
