16
gdb 32702	5.99389	0.82696	0.73759	1.8978	70.18	-0.2053	0.0448	0.2501	1504.6219	0.122222	-475.031919	-475.022739	-475.021795	-475.068149	31.866	
C	-0.4860449797	 0.5094346593	 1.0855969477	-0.367173
C	 0.443210185	 0.4042036275	-0.1206653601	-0.124693
N	 0.9815276606	-0.9480214772	-0.2264885153	-0.371922
C	 2.0201815059	-1.127653057	-0.8966510967	 0.53941
O	 2.7713594707	-0.2193714394	-1.584779341	-0.232579
C	 3.8498756113	-0.9151530409	-2.1506816778	-0.185482
C	 3.7212147493	-2.1952340812	-1.8155932117	 0.380728
O	 4.4465602277	-3.2794499523	-2.0915681324	-0.415237
O	 2.6007629334	-2.3735773171	-1.0422913443	-0.258663
H	-1.3015429046	-0.2151038348	 1.0056803391	 0.122867
H	 0.057777991	 0.301119073	 2.0119098582	 0.118349
H	-0.9164761136	 1.513525445	 1.1559643122	 0.10484
H	-0.1155452169	 0.6446301955	-1.0366905471	 0.105181
H	 1.2464215085	 1.1511601883	-0.0452185655	 0.103078
H	 4.5623829688	-0.3616051522	-2.730444244	 0.159348
H	 4.0660409626	-4.0281089366	-1.6164405613	 0.32195
10.2728	82.488	111.1156	132.5443	212.2293	288.4885	334.2642	339.4851	371.0752	546.9688	613.8018	658.572	691.3151	723.0443	757.1688	797.4875	867.1797	952.2676	997.6211	1079.697	1091.6317	1122.6381	1137.6336	1157.5622	1205.8192	1304.6594	1317.8854	1384.9044	1396.2853	1412.2706	1485.9758	1488.0302	1507.3836	1796.0406	1851.1693	2990.7531	3020.4776	3038.9495	3110.7292	3116.9141	3329.5895	3814.8521
CCN=C1OC=C(O)O1	CCN=c1occ(O)o1	
InChI=1S/C5H7NO3/c1-2-6-5-8-3-4(7)9-5/h3,7H,2H2,1H3	InChI=1S/C5H7NO3/c1-2-6-5-8-3-4(7)9-5/h3,7H,2H2,1H3
