18
gdb 22508	2.3537	1.20983	1.1063	0.8475	82.25	-0.2469	-0.001	0.2459	1219.3873	0.144333	-401.863873	-401.85418	-401.853235	-401.899113	35.759	
C	-0.1703382465	 1.5513134604	 0.2551658828	-0.437477
C	 0.0008169212	 0.0407924267	 0.0380446493	 0.040704
C	 0.8523978305	-0.374079382	-1.2321435964	-0.263101
C	 1.8763993905	-1.1188438172	-0.3225223709	-0.320414
C	 1.1125126201	-0.6079406489	 0.8765603744	 0.389494
N	 1.2698456555	-0.5811530367	 2.1302597803	-0.233021
O	 2.452178607	-1.242177424	 2.5072250767	-0.38956
C	-1.2737724529	-0.6590426776	 0.1274345528	 0.316157
C	-2.3276827532	-1.2351187502	 0.1850914583	-0.484248
H	 0.7969150702	 2.0573111648	 0.1819341687	 0.115428
H	-0.8449552007	 1.9695381069	-0.4977740859	 0.125258
H	-0.5879417101	 1.7486486459	 1.2453694587	 0.141745
H	 0.3178910255	-0.9962340787	-1.9491326334	 0.118961
H	 1.2691033561	 0.4937207302	-1.747126432	 0.111407
H	 1.8586956913	-2.2088527109	-0.4155265269	 0.1352
H	 2.9179249874	-0.7920518609	-0.3803049486	 0.13005
H	 2.441718532	-1.1447382338	 3.4655434978	 0.307975
H	-3.2564458439	-1.7458887341	 0.2479111842	 0.195441
23.5632	98.0611	162.5896	177.947	220.0531	250.2633	305.3179	354.2979	397.8562	435.5418	491.1398	513.4498	600.6221	620.6483	627.8642	640.2198	748.6514	770.6802	877.6013	917.4013	945.8784	964.0616	986.9832	1082.9271	1109.7433	1138.925	1187.5676	1205.473	1239.2662	1253.107	1278.9948	1397.8541	1406.8734	1457.7739	1482.8836	1485.8298	1494.1252	1780.0963	2231.1533	3039.9312	3059.6558	3081.1274	3103.6497	3114.1893	3127.6453	3147.4974	3502.752	3815.322	23.563	98.0613	162.5898	177.9474	220.0531	250.2631	305.3178	354.298	397.8564	435.5421	491.14	513.45	600.6224	620.6499	627.8653	640.2196	748.6513	770.6802	877.6013	917.4013	945.8784	964.0616	986.9833	1082.927	1109.7434	1138.925	1187.5676	1205.473	1239.2661	1253.107	1278.9948	1397.854	1406.8734	1457.7737	1482.8837	1485.8299	1494.1253	1780.0963	2231.1533	3039.9312	3059.6558	3081.1274	3103.6497	3114.1893	3127.6453	3147.4974	3502.7523	3815.3222
CC1(CCC1=NO)C#C	C[C@]1(CCC1=NO)C#C	
InChI=1S/C7H9NO/c1-3-7(2)5-4-6(7)8-9/h1,9H,4-5H2,2H3	InChI=1S/C7H9NO/c1-3-7(2)5-4-6(7)8-9/h1,9H,4-5H2,2H3/t7-/m1/s1
