18
gdb 84517	2.66878	1.83053	1.45567	2.0197	75.85	-0.2133	-0.0099	0.2034	951.7157	0.149535	-401.890014	-401.882722	-401.881778	-401.92129	29.894	
O	 0.1825565593	 1.4328781987	-0.0961084552	-0.4157
C	 0.0555700959	 0.0177115538	-0.077920847	-0.012825
C	 0.7636576868	-0.6175716935	 1.1215677339	-0.138743
C	-0.0876317799	-1.2185398621	 1.9719091967	-0.183962
C	-1.4625240606	-1.2070631141	 1.4170669921	 0.214796
C	-2.7816228815	-0.5056940314	 1.7953793864	-0.272427
C	-2.685883891	 0.2931306391	 0.4414435492	-0.267807
C	-1.3827801064	-0.464102943	 0.1200660019	 0.211828
N	-1.6932635249	-1.8969657836	 0.1167488772	-0.388362
H	 0.0387418427	 1.7437385833	 0.8046932026	 0.279303
H	 0.4853373376	-0.3137938795	-1.0308324889	 0.098698
H	 1.8431129561	-0.5806211259	 1.2275800571	 0.104996
H	 0.1957134181	-1.6902039007	 2.9070454876	 0.108062
H	-3.6432457867	-1.1657204934	 1.9150196692	 0.111341
H	-2.6914144365	 0.1381342612	 2.6727329688	 0.103373
H	-3.497500075	 0.1490356681	-0.2749866516	 0.111263
H	-2.5203163888	 1.3611962032	 0.5916698388	 0.105777
H	-0.8468991052	-2.4173932603	-0.1067769185	 0.23039
136.443	214.3495	249.5563	323.616	350.7905	426.541	470.4243	531.257	573.7194	683.5557	701.1137	743.5753	761.8813	789.4394	823.5605	848.9452	926.9207	938.2302	949.3733	960.4194	1037.3768	1068.7075	1084.214	1105.3063	1114.9407	1137.6703	1210.9083	1231.4026	1232.9574	1249.5099	1277.5601	1304.7151	1342.3017	1358.6472	1380.3306	1421.1029	1467.4822	1483.869	1614.0568	3040.3133	3067.4327	3074.2126	3119.7546	3137.5847	3176.3395	3199.5036	3494.1869	3802.1814
OC1C=CC23CCC12N3	O[C@H]1C=C[C@@]23CC[C@@]12N3	
InChI=1S/C7H9NO/c9-5-1-2-6-3-4-7(5,6)8-6/h1-2,5,8-9H,3-4H2	InChI=1S/C7H9NO/c9-5-1-2-6-3-4-7(5,6)8-6/h1-2,5,8-9H,3-4H2/t5-,6+,7+/m0/s1
