14
gdb 123819	5.71066	0.98759	0.89222	3.5193	63.8	-0.2811	-0.0677	0.2134	1244.6273	0.100164	-469.919155	-469.911817	-469.910873	-469.952116	26.517	
C	-0.3389741246	 1.1504242748	-0.071408579	-0.277909
C	 1.1355866502	 1.0481719137	 0.2701926433	-0.295293
C	 0.3499480719	-0.1789501456	-0.0370697458	 0.14041
O	 0.1062658323	-1.0311090388	 1.0762401762	-0.244235
C	-0.9139695249	-1.8590713184	 0.9525876518	 0.519774
N	-1.7079999562	-2.0023441479	-0.0738224644	-0.189774
O	-2.5616421438	-2.9902444156	 0.327896932	-0.154903
N	-2.2224002103	-3.3919376056	 1.6075638194	 0.05937
N	-1.2326391611	-2.7163026097	 1.98873353	-0.227759
H	-1.0191084452	 1.3744229614	 0.7420677515	 0.136381
H	-0.6364732882	 1.5421493751	-1.0370320493	 0.133497
H	 1.8727179532	 1.3744572376	-0.4539035495	 0.130652
H	 1.4136047872	 1.200216742	 1.3066416383	 0.140584
H	 0.5142360693	-0.7302736331	-0.9567445146	 0.129206
56.6365	78.8221	149.0005	310.5413	360.6252	403.0662	492.7062	653.3605	734.9146	759.0573	769.8508	775.4753	830.55	851.5447	937.9101	988.6135	1000.4622	1062.303	1063.1005	1081.2977	1115.4727	1120.2039	1174.6217	1191.1209	1240.9803	1331.2142	1393.2894	1455.8947	1496.4042	1517.974	1629.0628	3146.5002	3148.6537	3171.3184	3230.5965	3243.6668
C1CC1OC1=NON=N1	C1CC1Oc1nonn1	
InChI=1S/C4H5N3O2/c1-2-3(1)8-4-5-7-9-6-4/h3H,1-2H2	InChI=1S/C4H5N3O2/c1-2-3(1)8-4-5-7-9-6-4/h3H,1-2H2
