21
gdb 124558	3.97558	0.89035	0.83747	2.6436	84.88	-0.231	0.0248	0.2558	1472.6174	0.183833	-383.306887	-383.297607	-383.296663	-383.341742	34.43	
C	-0.1684615652	 1.4950680964	-0.1897774975	-0.384635
C	 0.0186039521	-0.0187950606	-0.0369416069	 0.05034
C	 0.7493800784	-0.6127482323	-1.2471401039	-0.390734
C	 0.7711254854	-0.3745366307	 1.2702368834	-0.322155
C	 0.0547265239	 0.0047312667	 2.5282258799	 0.380091
C	 0.2566978527	 1.0207584881	 3.4448210284	-0.302352
C	-0.7643984104	 0.85943383	 4.4056915	-0.004409
N	-1.5506843998	-0.1747493316	 4.1253734114	-0.230817
N	-1.0338084074	-0.6730917942	 2.9831862603	-0.244994
H	 0.802047086	 1.9979869758	-0.2823414586	 0.109878
H	-0.7497321284	 1.7287314415	-1.0874373855	 0.112137
H	-0.6858895668	 1.9242853424	 0.67253336	 0.129062
H	-0.9780271395	-0.4797081569	 0.0188536732	 0.070087
H	 1.758078182	-0.1923871176	-1.3386426276	 0.115028
H	 0.8487727042	-1.70042566	-1.1640702239	 0.108845
H	 0.2145156949	-0.3939738983	-2.1767700324	 0.11407
H	 0.9766088582	-1.4534431797	 1.2761259304	 0.103527
H	 1.7479212353	 0.1225265075	 1.2655711125	 0.113674
H	 1.0359225396	 1.7655467565	 3.4167477242	 0.098349
H	-0.9551112408	 1.4505494228	 5.2896411432	 0.107764
H	-1.4629085444	-1.4849187158	 2.5717244292	 0.267245
42.1838	73.1254	109.7536	221.3388	246.8535	282.836	315.2863	335.643	414.8983	417.5247	521.9303	664.9468	690.6773	754.3362	801.2523	828.6043	881.0856	893.6903	930.4477	937.7348	949.5022	967.8907	1037.8377	1061.9104	1091.3988	1134.977	1141.0466	1191.3775	1236.1515	1241.5801	1303.2078	1316.1598	1361.1492	1367.597	1380.9657	1401.6933	1422.3036	1441.2887	1477.5632	1486.6418	1490.9462	1496.307	1503.6049	1510.1004	1604.9256	2999.8464	3014.8629	3024.3501	3029.5086	3067.9354	3089.3416	3094.8995	3101.2736	3114.8951	3241.4937	3265.3594	3667.3931
CC(C)CC1=CC=NN1	CC(C)Cc1ccn[nH]1	
InChI=1S/C7H12N2/c1-6(2)5-7-3-4-8-9-7/h3-4,6H,5H2,1-2H3,(H,8,9)	InChI=1S/C7H12N2/c1-6(2)5-7-3-4-8-9-7/h3-4,6H,5H2,1-2H3,(H,8,9)
