19
gdb 128092	3.11982	1.22491	0.89603	3.7396	81.19	-0.196	0.0263	0.2223	1321.9866	0.158008	-419.216406	-419.206397	-419.205453	-419.251696	35.066	
C	 0.089098537	 1.4727892977	 0.0635409795	-0.328391
N	-0.0955933369	 0.028157211	 0.0796698473	-0.392832
C	 0.5467407481	-0.7417592171	 1.0127497016	 0.460764
C	 0.7151351831	-2.0995346307	 1.1226392219	-0.042725
C	 0.255379183	-3.1698623026	 0.1830596936	-0.526838
C	 1.4165931354	-2.2251656408	 2.3556811082	 0.350866
C	 1.8808396869	-3.4824990426	 3.0194078483	-0.496915
N	 1.6474224844	-1.06887125	 2.9348749853	-0.2438
O	 1.0876831574	-0.1060572401	 2.0596419178	-0.230379
H	 1.1206760952	 1.7764678099	-0.1626944848	 0.127422
H	-0.5788492576	 1.8996936977	-0.6875104542	 0.127068
H	-0.1782004543	 1.8854943399	 1.0383784289	 0.158071
H	-0.1632471044	-0.4077317574	-0.8266452579	 0.250288
H	 1.0039505165	-3.4239808216	-0.5793576923	 0.125076
H	 0.0237484788	-4.0943893101	 0.7215013038	 0.131242
H	-0.6588777069	-2.8722828284	-0.3432311547	 0.120093
H	 2.599466542	-4.0189748936	 2.3905028691	 0.131596
H	 2.3584889617	-3.2471153822	 3.9723290012	 0.147693
H	 1.0416145806	-4.1611111291	 3.2075025577	 0.131699
71.4247	80.8355	126.9568	142.9205	178.5307	184.1168	229.5473	284.0983	319.2973	372.3227	463.0739	536.7462	609.778	649.2143	716.9614	729.8963	771.571	912.2929	958.1223	1023.7521	1055.9303	1059.0982	1072.6764	1126.9824	1153.7898	1177.4018	1232.374	1362.7348	1409.5145	1422.5811	1446.7139	1463.0102	1474.4029	1480.8504	1483.9299	1488.6027	1494.9485	1515.6615	1516.864	1569.2315	1685.6746	3007.9871	3010.4913	3037.282	3062.526	3090.6864	3094.0425	3098.3263	3137.6325	3139.4394	3624.45
CNC1=C(C)C(C)=NO1	CNc1c(C)c(C)no1	
InChI=1S/C6H10N2O/c1-4-5(2)8-9-6(4)7-3/h7H,1-3H3	InChI=1S/C6H10N2O/c1-4-5(2)8-9-6(4)7-3/h7H,1-3H3
