17
gdb 100427	4.65635	0.69104	0.61294	6.6485	68.37	-0.2473	0.0019	0.2493	1713.2629	0.134838	-492.321562	-492.311768	-492.310823	-492.357472	34.516	
N	 0.1519746811	 1.4307291955	-0.2102584192	-0.532183
C	 0.0182909015	 0.0794440613	-0.1357528125	 0.334986
C	 1.3335642406	-0.677136247	-0.2645623722	-0.138255
O	 2.4439965998	 0.0557293275	 0.231652234	-0.410786
N	-1.0689982066	-0.587962949	-0.0318459109	-0.319095
H	-2.0968210556	-2.1203559434	 0.0692228083	 0.302554
C	-2.3400229278	 0.1079616266	 0.0076547216	-0.323746
C	-3.4910492629	-0.9048091634	 0.1179223675	 0.416681
O	-3.0775772643	-2.1761226544	 0.1328087457	-0.360848
O	-4.6451605524	-0.5770147361	 0.1832004024	-0.343746
H	 1.0853476546	 1.8012604308	-0.1250931223	 0.270382
H	-0.6241244116	 2.0409410231	-0.0224862222	 0.269359
H	 1.2176327223	-1.6550861477	 0.2130933711	 0.129068
H	 1.5358148645	-0.844976884	-1.3280984845	 0.145938
H	 2.4307803617	 0.0046120092	 1.1931417326	 0.296724
H	-2.4301326343	 0.7887756716	 0.8683551054	 0.127645
H	-2.5238053005	 0.7130824394	-0.892723825	 0.135321
44.7699	72.8888	87.8565	117.4509	220.3036	281.8635	296.8457	313.7488	360.8431	387.2458	542.3683	570.105	574.2121	607.5862	641.6136	700.1793	823.0827	874.0333	914.1756	979.7892	999.3373	1031.6527	1080.0569	1145.8053	1202.5014	1222.3602	1231.5753	1337.8397	1369.4149	1384.7574	1402.1877	1446.3559	1457.683	1483.9262	1620.8358	1748.2798	1876.2375	2983.436	3019.6214	3047.6755	3095.7571	3447.7712	3597.6941	3727.6585	3815.8342
NC(CO)=[NH+]CC([O-])=O	NC(=NCC(=O)O)CO	
InChI=1S/C4H8N2O3/c5-3(2-7)6-1-4(8)9/h7H,1-2H2,(H2,5,6)(H,8,9)	InChI=1S/C4H8N2O3/c5-3(2-7)6-1-4(8)9/h7H,1-2H2,(H2,5,6)(H,8,9)
