16
gdb 80130	2.51756	1.83175	1.31777	1.9733	68.41	-0.2452	-0.0433	0.2019	973.4617	0.124785	-437.901077	-437.893479	-437.892534	-437.933569	28.192	
C	 0.1289228994	 1.638337341	 0.0254814028	-0.404426
C	 0.0952781476	 0.1164610856	-0.0163784024	-0.114163
C	 0.77262269	-0.6758860603	-1.1842679931	-0.048147
N	 1.8962689581	 0.0124045348	-1.8330019115	-0.253656
C	 2.9548625518	-0.5178914934	-1.3762226794	 0.115234
O	 2.8780784022	-1.5257730034	-0.4640489143	-0.216513
C	 1.4777018611	-1.6322898071	-0.1665880644	-0.034294
C	 0.9992317637	-0.6641620431	 0.9607978736	 0.364944
O	 1.29837068	-0.5225845491	 2.1074559036	-0.280465
H	 1.1327796338	 2.0111561045	-0.1906644163	 0.137896
H	-0.5556863443	 2.0664706575	-0.7119653123	 0.126805
H	-0.1675196842	 1.9898891052	 1.0178318368	 0.134639
H	-0.9339535887	-0.2472593132	 0.1132932516	 0.110675
H	 0.0914321013	-1.0844115218	-1.9323688719	 0.092101
H	 3.9672559353	-0.2530005912	-1.6591782873	 0.151645
H	 1.1997747727	-2.6827484462	-0.0758847155	 0.117725
66.3276	173.5382	182.1988	202.3631	246.8319	404.9019	497.0782	559.7019	583.6564	650.2653	778.4374	808.3428	851.345	879.9588	904.3005	942.8039	961.93	973.7542	1039.946	1068.7469	1105.3815	1111.825	1140.9384	1156.4476	1230.6378	1254.8038	1297.7975	1310.7212	1315.6794	1351.3056	1405.6855	1488.9864	1497.8205	1680.7892	1897.5602	3016.4156	3048.9773	3096.5602	3116.5067	3119.0827	3131.1622	3222.8369
CC1C2N=COC2C1=O	C[C@H]1[C@H]2N=CO[C@H]2C1=O	
InChI=1S/C6H7NO2/c1-3-4-6(5(3)8)9-2-7-4/h2-4,6H,1H3	InChI=1S/C6H7NO2/c1-3-4-6(5(3)8)9-2-7-4/h2-4,6H,1H3/t3-,4+,6+/m0/s1
