21
gdb 31140	1.84148	1.79653	0.97862	1.2548	87.42	-0.1805	0.0541	0.2347	1270.4341	0.182308	-383.307001	-383.296684	-383.295739	-383.342554	37.131	
C	 0.2686243206	 1.4408245235	 0.3027736302	-0.322518
N	-0.1366240769	 0.0925929632	-0.1056920305	-0.381455
C	 0.5853296837	-0.4480104525	-1.2047773947	 0.05446
C	 0.2192757863	-0.2886486041	-2.5272591788	 0.297567
C	-0.9511997483	 0.4220656253	-3.1156521905	-0.509948
N	 1.1639530685	-0.9409165337	-3.2838691099	-0.315938
C	 2.1057725013	-1.5246587575	-2.4698209254	-0.188962
C	 1.785643018	-1.2344871417	-1.1648278801	 0.232341
C	 2.5260415162	-1.6710548307	 0.0628417392	-0.516704
H	 1.3361440035	 1.5341651757	 0.5619832245	 0.099341
H	 0.0644619129	 2.1426994585	-0.5113743683	 0.122417
H	-0.3257957904	 1.7494982079	 1.1690240799	 0.108922
H	-0.0753799744	-0.5316592807	 0.6905154315	 0.218723
H	-0.6814340115	 1.3755960302	-3.5890366473	 0.119736
H	-1.4607916426	-0.1849642998	-3.8741476324	 0.115386
H	-1.6657342974	 0.6357988569	-2.316602256	 0.149761
H	 1.1531787937	-0.9977331201	-4.2866657366	 0.252631
H	 2.9209333781	-2.098663302	-2.881953876	 0.107698
H	 2.8542396051	-0.8198774452	 0.6719057518	 0.121382
H	 1.9116257783	-2.3077413204	 0.7129427641	 0.116179
H	 3.4176092052	-2.2475046128	-0.2010438347	 0.118981
45.0119	97.7286	141.8222	155.0448	173.6241	183.9985	243.6254	261.4385	293.6336	405.5732	437.125	482.3146	560.1677	639.0021	677.2375	699.9361	711.4036	751.4677	806.8249	972.1521	997.6449	1034.6983	1043.7137	1062.0259	1065.1307	1119.8201	1151.7234	1176.5298	1243.5232	1261.9734	1336.7951	1391.1359	1414.3978	1420.2821	1446.6092	1473.4086	1479.1624	1483.9746	1486.6179	1490.9279	1497.6286	1509.906	1521.4363	1570.2298	1652.517	2966.4659	3008.8493	3012.7723	3054.483	3055.9546	3063.22	3100.4706	3104.4556	3118.564	3252.407	3530.577	3684.6805
CNC1=C(C)NC=C1C	CNc1c(C)[nH]cc1C	
InChI=1S/C7H12N2/c1-5-4-9-6(2)7(5)8-3/h4,8-9H,1-3H3	InChI=1S/C7H12N2/c1-5-4-9-6(2)7(5)8-3/h4,8-9H,1-3H3
