20
gdb 99911	2.25154	1.34087	1.19049	3.1115	79.16	-0.2775	0.0209	0.2984	1193.2773	0.16847	-403.138224	-403.128175	-403.127231	-403.173093	36.542	
C	-0.1437631698	 1.4492181813	-0.0129518762	-0.257959
O	-0.0538932244	 0.0340735297	-0.0420303448	-0.263787
C	 0.6731637385	-0.5464018893	-1.1167812241	 0.215679
C	 0.0653763303	-0.2075681689	-2.4919681477	-0.426336
C	 2.0804781376	-0.0641443497	-1.0824691662	 0.261934
N	 3.1670325134	 0.32899072	-1.0524200839	-0.361712
C	 0.6168256129	-2.0488854045	-0.871145803	 0.001329
C	 1.6767940445	-2.9913269267	-1.3793086855	-0.285305
C	 1.5326352967	-2.7379704508	 0.100937542	-0.278512
H	 0.8473808122	 1.9210017813	-0.0410404522	 0.132673
H	-0.7521003193	 1.8470417306	-0.8354068146	 0.114166
H	-0.6279785325	 1.7009945314	 0.9327555852	 0.137329
H	 0.1376110716	 0.8576678931	-2.7206388229	 0.133574
H	 0.5873355566	-0.761198051	-3.2758258018	 0.141625
H	-0.9880988839	-0.5007945011	-2.4915394066	 0.131683
H	-0.409713466	-2.4005935673	-0.9058107922	 0.099472
H	 1.3520147073	-3.9432716441	-1.7835713447	 0.115627
H	 2.5451333638	-2.568212394	-1.8727439912	 0.134211
H	 2.301900913	-2.1435843712	 0.5809477491	 0.137219
H	 1.1098855873	-3.515575099	 0.7264461015	 0.117089
69.3106	104.3815	142.3063	163.3581	187.0419	205.4562	245.4216	296.1731	316.9013	395.2775	427.7314	455.5445	594.2571	611.4995	659.7753	782.6058	829.8768	859.899	890.9503	947.4519	964.8454	1062.5923	1072.7378	1083.09	1089.1142	1113.0824	1133.8087	1164.5332	1181.9298	1197.1083	1213.5218	1231.4155	1276.2518	1388.2961	1402.6648	1467.8313	1475.1476	1484.5052	1487.4861	1503.338	1506.6828	1510.7358	2347.4428	3004.5416	3052.4949	3064.21	3126.2593	3132.8528	3137.2932	3138.0623	3142.751	3157.1163	3218.1896	3232.6226
COC(C)(C#N)C1CC1	CO[C@@](C)(C#N)C1CC1	
InChI=1S/C7H11NO/c1-7(5-8,9-2)6-3-4-6/h6H,3-4H2,1-2H3	InChI=1S/C7H11NO/c1-7(5-8,9-2)6-3-4-6/h6H,3-4H2,1-2H3/t7-/m0/s1
