19
gdb 32913	4.21179	0.8449	0.73912	2.6622	80.32	-0.1953	0.0255	0.2208	1572.9824	0.15977	-419.250775	-419.24144	-419.240496	-419.285781	33.703	
C	 0.1573286153	 1.4774814886	 0.13668871	-0.381002
C	 0.1664132152	-0.0505506342	 0.0603528896	-0.16501
C	 0.5725380658	-0.5671158932	-1.3337431795	-0.293524
C	 0.6004997226	-2.0507753912	-1.4357180168	 0.375685
N	-0.146182078	-2.841728699	-2.1290371874	-0.296195
C	 0.2935628718	-4.1291998137	-1.8205300265	-0.197997
C	 1.3186997216	-4.0365449067	-0.9347686586	 0.334074
N	 2.201706835	-4.9272945502	-0.3439651867	-0.598206
O	 1.5353097897	-2.7183854876	-0.6733609637	-0.205084
H	 1.1474174593	 1.8916902165	-0.0844905623	 0.115592
H	-0.548383991	 1.9063535283	-0.5833339555	 0.117953
H	-0.1329264851	 1.8227150162	 1.1336420496	 0.113819
H	 0.8583144108	-0.4578223469	 0.8065439073	 0.106541
H	-0.8260640195	-0.4445304802	 0.3091931208	 0.107941
H	-0.1322336903	-0.2114504006	-2.0905953948	 0.130245
H	 1.5599520063	-0.1619629976	-1.5926997358	 0.114471
H	-0.15315326	-5.008835799	-2.2539635968	 0.10544
H	 1.8755971816	-5.882691917	-0.3975675103	 0.258065
H	 2.425540609	-4.6840193723	 0.6135230672	 0.257193
48.2888	84.4502	99.3085	176.0913	239.3542	249.0661	288.79	318.3319	389.6064	444.7767	649.1247	670.3338	708.9601	734.1256	749.4137	778.8578	791.5099	872.8925	899.1944	966.5497	1011.8435	1043.1404	1086.491	1105.5608	1110.3729	1156.1032	1236.408	1270.9225	1287.4958	1312.995	1327.8868	1384.2889	1412.5513	1422.5766	1469.5988	1492.7753	1498.4844	1509.414	1619.7181	1638.8156	1675.5775	3019.5699	3029.6471	3036.1576	3064.7946	3094.4224	3104.2789	3106.2572	3267.6211	3537.1963	3638.7584
CCCC1=NC=C(N)O1	CCCc1ncc(N)o1	
InChI=1S/C6H10N2O/c1-2-3-6-8-4-5(7)9-6/h4H,2-3,7H2,1H3	InChI=1S/C6H10N2O/c1-2-3-6-8-4-5(7)9-6/h4H,2-3,7H2,1H3
