21
gdb 39346	2.78133	1.71198	1.27791	1.9087	80.49	-0.247	0.0827	0.3296	1053.3355	0.185784	-387.107017	-387.099547	-387.098603	-387.138904	30.325	
C	-0.085668165	 1.5143958769	 0.2123554949	-0.2055
C	 1.3617381646	 2.0539348403	 0.0585137028	-0.225055
C	 2.2417428554	 0.8639032787	 0.4803302579	-0.055744
C	 3.6822187245	 0.7522958639	-0.0692866221	-0.251428
C	 3.5805024181	-0.0406525384	-1.4032822415	-0.242262
C	 2.2643728974	-0.7847563909	-1.3093737376	-0.033879
O	 2.077162655	-1.5631638486	-0.1070927773	-0.337473
C	 1.4774169071	-0.274094644	-0.1813204405	 0.494008
C	-0.0145778015	-0.01005405	-0.113009337	-0.337012
H	-0.4208181809	 1.656862828	 1.2447362869	 0.10494
H	-0.7959830034	 2.0455211814	-0.4261808624	 0.09936
H	 1.5600944052	 2.3075298416	-0.9906862997	 0.095751
H	 1.5380624887	 2.9572703761	 0.6489112211	 0.095361
H	 2.2280758352	 0.7735958169	 1.5734530191	 0.072175
H	 4.1598535081	 1.7271363963	-0.2033293579	 0.097367
H	 4.293355241	 0.1912950281	 0.6416438827	 0.113284
H	 3.5326146322	 0.6307006899	-2.2695452761	 0.101834
H	 4.4374459417	-0.7034954281	-1.5590754872	 0.108701
H	 1.8006885604	-1.2081697431	-2.1978122632	 0.087383
H	-0.478507538	-0.6121788552	 0.6742365671	 0.112913
H	-0.5186198657	-0.2639852099	-1.04978209	 0.105276
89.2275	169.42	204.005	290.7741	357.3344	427.8297	514.4617	546.4439	627.2562	688.9549	745.0289	776.2759	804.7961	849.7449	862.9667	903.6579	917.0665	921.2471	975.5908	993.0263	1009.4841	1017.2321	1054.2087	1072.1311	1107.2097	1152.5283	1191.3201	1200.8697	1221.2306	1227.5222	1241.3135	1275.936	1299.5532	1305.6248	1324.8098	1328.6532	1338.6488	1349.7567	1369.1238	1468.4886	1483.1215	1485.9644	1492.5417	1495.2272	1510.1767	3023.6451	3034.0334	3035.5059	3047.4329	3056.7997	3063.3238	3078.1032	3083.7798	3090.3293	3105.4295	3107.0368	3136.689
C1CC2CCC3OC23C1	C1C[C@@H]2CC[C@H]3O[C@@]23C1	
InChI=1S/C8H12O/c1-2-6-3-4-7-8(6,5-1)9-7/h6-7H,1-5H2	InChI=1S/C8H12O/c1-2-6-3-4-7-8(6,5-1)9-7/h6-7H,1-5H2/t6-,7-,8+/m1/s1
