17
gdb 42315	3.39517	1.09264	0.90132	1.9813	75.29	-0.2589	-0.0633	0.1956	1270.8726	0.135394	-421.805212	-421.796464	-421.79552	-421.840551	31.122	
O	-0.0183082216	-0.1268888619	-0.0418722424	-0.286685
C	-0.0489080038	 1.0846083928	-0.0171759841	 0.212694
C	 1.1645916889	 1.8655515849	 0.1685122243	 0.26139
C	 2.1538686031	 2.5345274668	 0.3213454957	-0.404322
C	-1.3214865532	 1.9068034099	-0.1321674038	-0.104374
C	-2.5756001564	 1.0992389529	-0.5380354308	-0.26886
C	-3.5729372477	 1.3758859392	 0.6072717764	-0.07814
O	-3.1351419755	 2.5832331055	 1.2197193145	-0.234179
C	-1.7274047504	 2.5164795166	 1.248638604	-0.097731
H	 3.0390281131	 3.1076370223	 0.4572249475	 0.217473
H	-1.1300184092	 2.727658599	-0.8293276645	 0.10379
H	-2.9630001272	 1.454136981	-1.4952090842	 0.110441
H	-2.339378218	 0.0380032061	-0.6320386529	 0.135327
H	-4.6019669054	 1.5254987723	 0.2730548484	 0.112264
H	-3.5600626105	 0.5523540339	 1.3383314671	 0.098617
H	-1.3810416553	 1.8637211378	 2.0673999881	 0.100989
H	-1.3343671809	 3.5214166508	 1.4134117365	 0.121308
25.1719	42.525	126.5565	190.008	260.9355	275.8303	310.12	442.6001	547.1815	643.4209	653.0086	672.9029	705.7411	727.4336	795.9177	871.4742	925.337	942.752	968.1583	1020.5238	1046.1747	1098.9208	1116.4712	1143.696	1216.2077	1240.4096	1261.327	1295.0402	1316.3623	1352.6187	1361.6299	1404.4102	1491.6052	1506.1068	1523.9394	1765.7097	2209.5935	2964.9028	2984.4449	3063.4862	3079.1959	3102.5494	3111.9097	3133.6046	3493.3392
O=C(C#C)C1CCOC1	O=C(C#C)[C@H]1CCOC1	
InChI=1S/C7H8O2/c1-2-7(8)6-3-4-9-5-6/h1,6H,3-5H2	InChI=1S/C7H8O2/c1-2-7(8)6-3-4-9-5-6/h1,6H,3-5H2/t6-/m0/s1
