19
gdb 116430	2.60236	1.45476	1.05641	3.6134	73.44	-0.2378	0.0096	0.2475	1157.6593	0.161743	-456.341369	-456.333022	-456.332078	-456.37457	31.773	
O	 0.2391688209	 1.3930199167	 0.0343111391	-0.417568
C	 0.0387907288	 0.0036585221	 0.0957238463	-0.081936
C	-1.4379869511	-0.423102582	 0.0480362724	-0.063519
N	-2.1535307497	-0.0863267443	 1.2776271469	-0.305206
C	-3.5257582631	-0.5652370594	 1.2149769419	-0.176958
C	-4.2246235998	 0.2141354198	 0.1152475058	-0.056284
O	-3.5213246625	 0.1411582178	-1.138988467	-0.259601
C	-2.1635285736	 0.1916035805	-1.1387368756	 0.434329
N	-1.5195389952	 0.6467563435	-2.132682302	-0.532068
H	-0.0662071264	 1.648918095	-0.8475524119	 0.295007
H	 0.5677856453	-0.522557232	-0.7110686317	 0.101968
H	 0.4641582587	-0.3395820635	 1.0471924897	 0.093839
H	-1.4526096961	-1.5191171795	-0.1368042576	 0.077219
H	-1.6643491929	-0.4798108345	 2.0736437567	 0.22544
H	-3.6004428303	-1.6496951443	 1.0061570693	 0.088717
H	-4.0337496739	-0.3695852597	 2.1648573019	 0.112023
H	-5.2246463662	-0.1759685283	-0.0877071359	 0.117664
H	-4.3005987198	 1.2693786985	 0.4025289389	 0.123104
H	-2.1659803229	 0.9839241538	-2.8484087172	 0.223831
76.5358	115.3742	151.3512	238.5662	301.1366	342.2226	390.7402	454.6837	469.5405	551.6244	561.927	658.7038	677.7369	774.3628	855.3495	896.5991	908.5496	926.6928	953.8547	994.9061	1040.6946	1093.9719	1116.7098	1132.107	1150.1485	1169.889	1243.3547	1262.7906	1273.8005	1291.8864	1334.621	1357.9948	1404.3898	1412.9619	1440.3662	1447.8516	1479.164	1492.2391	1496.5279	1507.1931	1736.6874	2866.1054	2921.4626	3005.5519	3039.7036	3053.3025	3076.6309	3110.6124	3468.922	3532.446	3736.447
OCC1NCCOC1=N	OC[C@H]1NCCO[C]1[NH]	
InChI=1S/C5H10N2O2/c6-5-4(3-8)7-1-2-9-5/h4,6-8H,1-3H2	InChI=1S/C5H10N2O2/c6-5-4(3-8)7-1-2-9-5/h4,6-8H,1-3H2/t4-/m1/s1
