15
gdb 17993	3.91084	1.83033	1.56705	4.2865	64.36	-0.2709	-0.0025	0.2684	832.1679	0.119926	-362.636231	-362.629491	-362.628547	-362.667609	25.108	
N	-0.4094700037	-1.0344709802	-0.7776241717	-0.327073
C	-0.2472647617	 0.0434647619	-0.3934467685	 0.287445
C	-0.0199619417	 1.4130889144	 0.0756171041	-0.005626
O	-0.0558868083	 1.5401737088	 1.5115488235	-0.296463
C	 1.2453573981	 2.1820444769	 1.5371733646	 0.126898
C	 2.394232075	 1.1944338998	 1.8277770431	-0.232014
C	 2.5509578986	 0.9448310613	 0.2922507079	-0.24497
C	 1.4233488039	 1.9724639384	 0.0058413156	-0.100697
H	-0.7642693032	 2.0690319471	-0.3942393762	 0.126058
H	 1.2105614984	 3.1438554213	 2.052846989	 0.088842
H	 3.2684481751	 1.6645297139	 2.2852553553	 0.109472
H	 2.0913002665	 0.3384187669	 2.4334785868	 0.125808
H	 3.5175965663	 1.2628727212	-0.1024384618	 0.114203
H	 2.3550499396	-0.0712457875	-0.0571131438	 0.135513
H	 1.6025601973	 2.7592672157	-0.724120078	 0.092605
63.4985	152.7413	219.4743	345.9714	380.3512	538.6399	560.5304	669.0114	731.252	776.6107	831.1937	864.0019	926.3778	950.2241	960.3009	991.9266	1039.3137	1056.686	1071.9576	1130.2478	1177.7344	1205.9712	1230.336	1253.1248	1274.6418	1298.4074	1300.5328	1324.3771	1362.0619	1463.6212	1490.7594	2354.1755	3022.5067	3067.3044	3075.5991	3091.1756	3118.6546	3131.8625	3138.1794
N#CC1OC2CCC12	N#C[C@H]1O[C@H]2CC[C@@H]12	
InChI=1S/C6H7NO/c7-3-6-4-1-2-5(4)8-6/h4-6H,1-2H2	InChI=1S/C6H7NO/c7-3-6-4-1-2-5(4)8-6/h4-6H,1-2H2/t4-,5+,6-/m1/s1
