13
gdb 131893	2.82298	1.64723	1.04692	4.9194	64.48	-0.2739	-0.0809	0.1929	1039.1317	0.088671	-489.835631	-489.827856	-489.826912	-489.872579	26.545	
C	 0.1196342048	 1.5298680583	 0.0087096256	-0.491156
C	-0.0492387923	 0.057693068	 0.0012999959	 0.325235
C	-1.1043729143	-0.8103930415	 0.0022455903	 0.240823
N	-0.6779269673	-2.1183912024	-0.0074058577	-0.273385
C	 0.6051865676	-2.0095380318	-0.0139389417	 0.070684
O	 1.063486847	-0.7255810425	-0.0092892163	-0.165354
N	-2.4978722125	-0.450252263	 0.0119108181	 0.366915
O	-2.7402346658	 0.7582351707	 0.020409504	-0.398192
O	-3.3272237452	-1.3429975972	 0.0107850759	-0.335238
H	 1.181494225	 1.7821035107	 0.0003639482	 0.147124
H	-0.3704648685	 1.975896789	-0.8608551361	 0.170777
H	-0.3537953361	 1.9653363312	 0.8928182175	 0.170639
H	 1.3494161275	-2.7893773595	-0.0224250637	 0.171127
1.017	76.0743	203.5647	204.3395	269.2333	335.9879	444.7638	548.185	658.8126	666.8902	693.5246	801.5012	840.7504	848.2425	950.4838	968.6374	1059.0578	1105.7609	1140.3751	1258.7759	1276.7344	1362.036	1408.3301	1417.6023	1465.1474	1478.8735	1567.6475	1611.5427	1647.2144	3056.4778	3118.0869	3148.5267	3287.9326
CC1=C(N=CO1)N(=O)=O	Cc1c(nco1)N(=O)=O	
InChI=1S/C4H4N2O3/c1-3-4(6(7)8)5-2-9-3/h2H,1H3	InChI=1S/C4H4N2O3/c1-3-4(6(7)8)5-2-9-3/h2H,1H3
