21
gdb 68257	2.29313	1.48897	1.41876	0.6165	89.41	-0.2488	0.0494	0.2982	1101.5913	0.18087	-349.879649	-349.870504	-349.86956	-349.91272	36.173	
C	 0.4518640095	 1.1939313126	 0.3033534157	-0.517894
C	 0.2204277983	-0.2806157071	 0.1129867459	 0.313251
C	 0.6765587771	-1.1713297796	-1.0868747888	-0.274121
C	-0.0997621327	-2.1260921361	-0.137595523	-0.079342
C	 0.6849427789	-1.4584714345	 1.0258129534	-0.289851
C	-1.1948941394	-1.0008227701	 0.0055977937	 0.157875
C	-2.1454788589	-1.0045059542	 1.2111719349	-0.484666
C	-1.9772140979	-0.689813726	-1.1863318847	 0.251074
C	-2.6790470073	-0.4143130133	-2.124760302	-0.453822
H	 1.5228245436	 1.4242697294	 0.3122999463	 0.11977
H	-0.0109846701	 1.7659884381	-0.5078908918	 0.129284
H	 0.0261246904	 1.5446731671	 1.2500143208	 0.118734
H	 0.230766799	-0.9620183549	-2.0594547468	 0.111639
H	 1.7526682224	-1.3469026404	-1.16290029	 0.084452
H	-0.2945031618	-3.1893290997	-0.2839001769	 0.073638
H	 1.7618956799	-1.6455006426	 1.0315625098	 0.090126
H	 0.282009541	-1.5240932422	 2.0360417765	 0.091277
H	-1.6483253258	-1.2423932936	 2.1522510234	 0.117441
H	-2.6226581591	-0.0251310785	 1.3163889468	 0.127202
H	-2.9420043583	-1.7383546587	 1.054922449	 0.128333
H	-3.2859486587	-0.1788695956	-2.9636610524	 0.185601
112.2188	167.0833	170.8017	192.5714	201.004	295.9014	340.984	363.1217	491.8459	506.7722	532.0761	595.9433	616.4669	631.1886	646.695	654.0218	748.4224	800.6717	891.4943	905.034	916.7035	954.0749	1005.1978	1014.2013	1021.9829	1072.8444	1097.6524	1124.3302	1156.9907	1177.3785	1178.3505	1201.5259	1221.4428	1235.7948	1249.8497	1320.4702	1406.5929	1412.7901	1485.1939	1487.3969	1490.406	1491.2783	1511.8582	1549.8097	2219.4319	3026.7567	3046.1879	3063.5284	3070.0409	3093.449	3098.5732	3105.2958	3105.8488	3127.9248	3140.1773	3145.3154	3501.7466
CC12CC(C1)C2(C)C#C	C[C@@]12C[C@@H](C1)[C@]2(C)C#C	
InChI=1S/C9H12/c1-4-9(3)7-5-8(9,2)6-7/h1,7H,5-6H2,2-3H3	InChI=1S/C9H12/c1-4-9(3)7-5-8(9,2)6-7/h1,7H,5-6H2,2-3H3/t7-,8+,9-/m0/s1
