14
gdb 13163	3.74434	1.54823	1.21488	1.2821	58.48	-0.2578	-0.1045	0.1533	952.0069	0.105424	-419.663176	-419.65535	-419.654406	-419.696944	26.107	
O	-0.875627044	 1.6884688704	 0.5771042936	-0.216391
C	 0.0145450007	 1.1602448109	-0.0359773991	 0.087878
C	 1.2787626391	 1.9067481937	-0.4864235247	 0.277897
O	 2.135970761	 1.2841582404	-1.0691890969	-0.272644
C	 1.3515284778	 3.3653886408	-0.1266341849	-0.147346
C	 1.748229814	 3.6532455008	 1.3532182246	-0.072525
O	 2.9658509091	 4.2905641458	 0.9400985914	-0.264501
C	 2.663454597	 4.0958531334	-0.4594869209	-0.094027
H	 0.0108300022	 0.0896910706	-0.3291597275	 0.114223
H	 0.4256578502	 3.8605406269	-0.4240378995	 0.118898
H	 1.0702709003	 4.3338110207	 1.8800642188	 0.119761
H	 1.9311745577	 2.7725108311	 1.9812705161	 0.111871
H	 3.4118876765	 3.4759822148	-0.9630906855	 0.129521
H	 2.5480085384	 5.0474209498	-0.9901948755	 0.107385
38.77	74.2615	125.7873	154.4041	247.1547	292.2771	497.4539	560.534	640.5206	705.5146	836.6845	882.9366	941.3087	980.0858	1034.783	1047.6764	1061.936	1109.7137	1157.3469	1165.9923	1176.3146	1215.9578	1309.4174	1359.1637	1367.3752	1380.1308	1511.0435	1534.3081	1801.9139	1820.7833	2931.4299	3018.0084	3035.4287	3066.2996	3087.6844	3105.5743
O=CC(=O)C1COC1	O=CC(=O)C1COC1	
InChI=1S/C5H6O3/c6-1-5(7)4-2-8-3-4/h1,4H,2-3H2	InChI=1S/C5H6O3/c6-1-5(7)4-2-8-3-4/h1,4H,2-3H2
