14
gdb 17085	5.52217	1.53129	1.4562	5.0658	69.55	-0.2507	-0.0541	0.1966	860.9644	0.110101	-341.545202	-341.539199	-341.538255	-341.575376	23.508	
N	 0.0614355099	-1.0999404375	-0.0377565955	-0.347351
C	 0.0011523915	 0.0575241255	-0.0132718341	 0.163195
C	-0.0313400857	 1.4657500086	 0.0070223745	 0.299603
C	-1.0595458281	 2.3280091416	 0.0188365306	-0.15635
C	-0.3455831146	 3.6795494489	 0.0455734184	-0.058743
C	 0.7509266186	 3.4581801373	-1.0502822349	-0.220649
C	 1.1843785119	 2.4171138496	 0.0294888361	-0.122446
N	 0.7058717617	 3.3745821364	 1.1103207515	-0.310133
H	-2.1224987875	 2.1412033682	 0.0192141669	 0.139293
H	-0.9374498188	 4.5878444655	 0.1417199243	 0.086429
H	 0.4497144791	 3.1024145363	-2.0396762444	 0.110374
H	 1.4446729333	 4.3007803568	-1.1305200685	 0.105761
H	 2.1809667075	 1.9873212864	 0.1079507033	 0.094959
H	 1.358672541	 4.1639787465	 1.1198088617	 0.216058
136.3711	169.5386	440.5684	479.0033	499.1466	569.8809	600.0336	657.0533	787.5846	806.5447	841.2409	873.6515	886.2719	905.4092	928.4967	1004.6221	1042.5359	1077.0866	1111.7028	1146.4601	1158.0738	1217.2465	1230.794	1246.0923	1257.707	1308.7107	1351.3355	1500.9598	1647.5126	2335.3184	3046.188	3112.3476	3142.6177	3148.1726	3257.028	3405.3616
N#CC1=CC2CC1N2	N#CC1=C[C@@H]2C[C@H]1N2	
InChI=1S/C6H6N2/c7-3-4-1-5-2-6(4)8-5/h1,5-6,8H,2H2	InChI=1S/C6H6N2/c7-3-4-1-5-2-6(4)8-5/h1,5-6,8H,2H2/t5-,6-/m1/s1
