17
gdb 51590	5.83261	0.64054	0.62569	2.6286	76.31	-0.2552	-0.0308	0.2244	1737.366	0.131972	-421.774408	-421.764732	-421.763787	-421.810757	33.561	
O	-0.8057826791	 0.7323221094	 0.4019033056	-0.233797
C	-0.0709151568	 1.6763961614	 0.2749390545	 0.159325
C	 1.328564867	 1.6006768673	-0.3136692822	-0.313376
C	 1.5152799359	 2.6253040717	-1.4138561946	 0.036251
O	 1.5767922938	 4.0032938155	-1.0198040227	-0.250016
C	 2.7312321229	 3.4273594381	-1.629336064	 0.06842
C	 3.9921252935	 3.3160813373	-0.7870022097	-0.386837
C	 4.7682055039	 4.5517468184	-0.7955617588	 0.29398
C	 5.3979230883	 5.5741721122	-0.8244496491	-0.426841
H	-0.3750648473	 2.6973755171	 0.5934094865	 0.100437
H	 2.0347212474	 1.7905324937	 0.5029667851	 0.126103
H	 1.4939659506	 0.5867990986	-0.6904320935	 0.129013
H	 0.8864417473	 2.4514367573	-2.2893779984	 0.106927
H	 2.9157881866	 3.781324898	-2.6444824142	 0.1087
H	 3.7297362916	 3.0538841655	 0.2426674035	 0.139821
H	 4.6054544703	 2.4937837274	-1.1799636725	 0.14023
H	 5.955186714	 6.4779753313	-0.8380061955	 0.201661
35.0305	57.8454	66.2647	118.331	170.083	230.6507	331.6252	350.9846	421.5461	491.5363	503.7746	551.6398	625.9418	651.0037	780.9108	793.5784	864.4557	903.7619	964.4995	992.0291	1014.5934	1078.5981	1090.1755	1150.9997	1162.994	1228.4557	1243.3187	1284.2081	1301.6315	1324.9133	1402.5755	1419.9246	1443.8718	1455.2015	1484.9316	1835.8085	2244.1711	2900.9716	3022.5815	3044.0542	3078.8812	3086.8978	3105.551	3111.7096	3506.615
O=CCC1OC1CC#C	O=CC[C@H]1O[C@H]1CC#C	
InChI=1S/C7H8O2/c1-2-3-6-7(9-6)4-5-8/h1,5-7H,3-4H2	InChI=1S/C7H8O2/c1-2-3-6-7(9-6)4-5-8/h1,5-7H,3-4H2/t6-,7+/m0/s1
