21
gdb 113594	4.21944	0.91805	0.83895	2.2888	78.58	-0.2559	0.0689	0.3249	1431.7843	0.183054	-424.221959	-424.213014	-424.21207	-424.25636	33.773	
O	-0.1027557498	 1.2552304704	-0.9164831937	-0.418228
C	 0.0154692604	 0.2493498341	 0.0765723403	-0.08382
C	-1.3069360073	-0.4373138236	 0.3090425854	-0.064459
O	-1.7328834835	-1.298122589	-0.7638962922	-0.306839
C	-1.460479187	-1.8815585024	 0.524557692	 0.433141
C	-0.3148964916	-2.9043684007	 0.5906091609	-0.289582
C	-0.8979557813	-4.1147031431	 1.3583789137	-0.209931
C	-2.4220057277	-3.9912538331	 1.1730812453	-0.210486
C	-2.6578634132	-2.4750477714	 1.2626137627	-0.278809
H	-0.4623028515	 0.8232165651	-1.6998974732	 0.292504
H	 0.7805521674	-0.4925401977	-0.193089766	 0.090706
H	 0.3436204108	 0.7563759986	 0.9909160387	 0.10893
H	-2.0952540225	 0.2237437139	 0.6766634984	 0.089146
H	-0.0429257949	-3.1756720568	-0.4339248288	 0.120196
H	 0.5833004517	-2.5050485072	 1.0692686904	 0.10643
H	-0.4967745065	-5.0678466843	 1.0046356057	 0.100859
H	-0.651364171	-4.0366697529	 2.4238309238	 0.100691
H	-2.710984137	-4.3532296534	 0.1791882178	 0.108163
H	-2.9911842019	-4.562443619	 1.9110225999	 0.096989
H	-2.6369585578	-2.1567934467	 2.3130351084	 0.10228
H	-3.5989109557	-2.1344136307	 0.8251776704	 0.112119
46.3272	77.8337	139.6973	182.3422	250.5529	314.9396	396.2083	413.6708	421.0443	488.1802	556.9116	619.7501	717.2239	787.863	836.9888	862.85	880.6992	908.9815	945.4352	966.1582	989.7467	1031.4159	1037.293	1068.6093	1082.5611	1115.1303	1170.4753	1186.5674	1204.2632	1229.1118	1241.7994	1262.4173	1300.2136	1313.3639	1335.6359	1341.3083	1355.0112	1379.754	1423.6584	1472.3774	1479.7393	1491.5824	1493.1793	1495.9581	1511.417	3003.5099	3026.5583	3035.7733	3042.2177	3057.2749	3067.9423	3089.1745	3090.8171	3097.1698	3105.843	3110.3011	3798.6742
OCC1OC11CCCC1	OC[C@H]1OC21CCCC2	
InChI=1S/C7H12O2/c8-5-6-7(9-6)3-1-2-4-7/h6,8H,1-5H2	InChI=1S/C7H12O2/c8-5-6-7(9-6)3-1-2-4-7/h6,8H,1-5H2/t6-/m1/s1
