21
gdb 94239	3.16038	0.96293	0.89216	1.2616	79.05	-0.2523	-0.0276	0.2247	1388.4618	0.179374	-424.222199	-424.212105	-424.211161	-424.257981	36.201	
C	-0.458134909	 1.4065090045	-0.0558647108	-0.41391
C	 0.2187446934	 0.0525941537	-0.0526266147	 0.123468
O	 1.5213355812	 0.0718254436	-0.681439507	-0.291483
C	 2.0729409151	-0.7701612954	 0.3456243779	-0.114116
C	 0.8266122025	-0.5663545222	 1.2483899086	 0.241555
C	 1.0717016099	 0.4324113336	 2.3802064519	-0.454575
C	 0.1196299356	-1.8316847798	 1.7578068332	-0.346193
C	 0.9445311914	-2.6011526206	 2.7660778405	 0.161055
O	 0.5759280484	-2.9143293426	 3.8685492934	-0.240062
H	 0.1490879461	 2.1660073164	 0.4417291724	 0.124191
H	-0.6242949052	 1.7282820879	-1.0888758668	 0.132338
H	-1.4329596029	 1.3514513693	 0.4405752608	 0.11943
H	-0.4310186524	-0.6789805316	-0.5597269517	 0.065427
H	 2.217053118	-1.8022160202	-0.0065235336	 0.090891
H	 3.027474905	-0.3874500378	 0.7245748179	 0.105797
H	 1.6071698908	 1.3155371744	 2.0215775412	 0.130067
H	 0.1304505218	 0.7628803818	 2.8319210098	 0.124367
H	 1.6749019278	-0.0197540122	 3.1751664748	 0.127324
H	-0.8459150632	-1.5905862397	 2.2143558573	 0.120735
H	-0.0634822786	-2.5053931716	 0.9084109605	 0.11795
H	 1.9646300045	-2.8784984714	 2.4082200943	 0.07574
53.9236	67.6553	79.0681	171.7551	208.2906	235.1067	269.7628	289.4816	323.0628	362.0455	442.0118	475.5139	521.6234	658.2366	766.6488	828.9745	877.2145	890.4995	934.3969	957.4104	995.9246	1027.382	1041.35	1073.4502	1100.2115	1120.4593	1167.8808	1172.3341	1193.4698	1243.9471	1280.5695	1306.7635	1318.5671	1363.1171	1389.6367	1411.2345	1419.3101	1432.178	1458.5519	1477.7131	1489.5033	1495.7307	1506.4542	1525.5536	1833.6982	2847.8751	2964.6223	2990.9148	3011.9546	3033.0912	3040.9112	3055.9886	3086.5334	3096.4403	3107.0247	3113.5895	3129.3239
CC1OCC1(C)CC=O	C[C@H]1OC[C@]1(C)CC=O	
InChI=1S/C7H12O2/c1-6-7(2,3-4-8)5-9-6/h4,6H,3,5H2,1-2H3	InChI=1S/C7H12O2/c1-6-7(2,3-4-8)5-9-6/h4,6H,3,5H2,1-2H3/t6-,7+/m1/s1
