14
gdb 132984	3.40426	1.35702	0.97614	3.1347	67.	-0.2463	-0.0472	0.1991	1101.9182	0.101828	-478.045511	-478.038044	-478.0371	-478.077785	27.382	
C	-0.0083166779	 1.4427195043	-0.0048661064	-0.336436
N	-0.0049685892	-0.0170077933	-0.0203167636	-0.121343
C	-0.1300926827	-0.7171700776	-1.1653836859	 0.119619
N	-0.1356009264	-2.0154915025	-1.259013693	-0.348251
C	-0.0028428965	-2.6732138	-0.088474804	 0.359224
F	-0.0109746518	-3.9910069893	-0.2047950626	-0.05452
C	 0.1317555125	-2.1029918764	 1.1387799177	-0.408536
C	 0.1394724446	-0.669316492	 1.2504446492	 0.444406
O	 0.2491795169	 0.0065721836	 2.2557743181	-0.397821
H	 0.9257021388	 1.8098365984	 0.4251288542	 0.165417
H	-0.1223892086	 1.8111279296	-1.0250620371	 0.134896
H	-0.8281415588	 1.8040027215	 0.6193211842	 0.165357
H	-0.2332071555	-0.1278031606	-2.0730098884	 0.142971
H	 0.2341489345	-2.6924806458	 2.0387936978	 0.135017
110.2084	125.3559	186.733	294.1864	323.0237	382.8033	449.785	459.89	552.962	623.3022	731.7853	749.5062	763.1395	795.0228	862.8266	968.1671	973.4909	1084.1924	1156.116	1165.8101	1218.1764	1247.4864	1366.2412	1387.8817	1452.9555	1465.5609	1477.1626	1513.9465	1591.4163	1661.6974	1790.4449	3063.6031	3136.9292	3156.2919	3170.2323	3239.0509
CN1C=NC(F)=CC1=O	Cn1cnc(F)cc1=O	
InChI=1S/C5H5FN2O/c1-8-3-7-4(6)2-5(8)9/h2-3H,1H3	InChI=1S/C5H5FN2O/c1-8-3-7-4(6)2-5(8)9/h2-3H,1H3
