17
gdb 42478	4.3705	0.73047	0.64643	2.6061	78.45	-0.2555	-0.0283	0.2272	1673.948	0.13508	-417.966154	-417.956761	-417.955817	-418.001983	33.25	
O	-0.0388146927	 0.0607336531	 0.7599299748	-0.358709
C	 0.0090623412	 1.1068059737	 0.1386220047	 0.293762
N	 1.1452324513	 1.6146905225	-0.422685646	-0.323097
C	 2.4399011315	 0.9652701323	-0.293817624	-0.192265
C	 3.5126858293	 1.9404321046	 0.1267420381	 0.021873
C	 4.9197019481	 1.7223691177	-0.2799993457	-0.24225
N	 4.14397975	 2.8299997105	-0.8684779266	-0.320285
C	-1.164544671	 1.9451665134	-0.0769240329	 0.213289
C	-2.1501544758	 2.6138661661	-0.2403446563	-0.399832
H	 1.0860639293	 2.4990761458	-0.9026203336	 0.26004
H	 2.3118088962	 0.171035667	 0.446484047	 0.158073
H	 2.7282180291	 0.4867157002	-1.2419495268	 0.102797
H	 3.3204490754	 2.4339979228	 1.0771071874	 0.105621
H	 5.7278160197	 2.0256956497	 0.3784680491	 0.127565
H	 5.1420144584	 0.8568874891	-0.8993474361	 0.116037
H	 3.8464903034	 2.5655091867	-1.8061665382	 0.226256
H	-3.0292742733	 3.1955502049	-0.3760864048	 0.211123
32.6213	67.2334	74.3432	158.1997	227.9056	245.8611	297.2539	380.9978	442.6319	488.9447	560.4527	604.5461	660.0167	678.7243	764.247	787.9056	827.4574	894.613	931.6093	955.9432	1022.4538	1062.3694	1090.3166	1129.6065	1160.8815	1208.2313	1230.1771	1260.2551	1280.9103	1309.4167	1353.2732	1434.7892	1490.9489	1512.1734	1532.5525	1759.0239	2227.5333	2992.1011	3103.6484	3111.6245	3135.1902	3198.1853	3475.3067	3495.7851	3634.9437
O=C(NCC1CN1)C#C	O=C(NC[C@H]1CN1)C#C	
InChI=1S/C6H8N2O/c1-2-6(9)8-4-5-3-7-5/h1,5,7H,3-4H2,(H,8,9)	InChI=1S/C6H8N2O/c1-2-6(9)8-4-5-3-7-5/h1,5,7H,3-4H2,(H,8,9)/t5-/m1/s1
