19
gdb 59902	3.2768	0.82179	0.77216	6.3147	77.95	-0.2413	-0.0386	0.2027	1545.5912	0.156444	-419.21948	-419.209136	-419.208192	-419.256352	35.812	
C	-0.5224188304	 1.3657405791	-0.0643527864	-0.317173
N	-0.3796769156	-0.084579057	-0.070286494	-0.068715
C	 1.0196325179	-0.4859060679	 0.0348079386	-0.328931
C	-1.1980871365	-0.7302098454	 0.9447934141	-0.245347
C	-1.4341491427	-2.214988822	 0.6553552963	 0.368667
O	-1.3580234889	-3.0597005053	 1.5072224195	-0.264942
C	-1.8325703351	-2.5304802332	-0.7980395937	-0.447921
C	-1.9030110175	-3.9543512964	-1.09088185	 0.283679
N	-1.9568625235	-5.0788758009	-1.34710911	-0.298788
H	 0.0577226824	 1.7914219155	-0.8885254299	 0.127173
H	-1.5719722964	 1.6375691841	-0.2111885282	 0.12248
H	-0.1726678641	 1.8332593323	 0.8740501374	 0.103977
H	 1.4863531471	-0.1617640973	 0.9827250423	 0.108814
H	 1.1081042531	-1.5754847453	-0.0237395115	 0.132291
H	 1.5892739908	-0.0548670297	-0.7932834285	 0.128551
H	-0.7880167697	-0.6572995305	 1.9664060405	 0.11537
H	-2.1857513424	-0.249433421	 0.9532391049	 0.124132
H	-2.809903475	-2.0658081511	-0.9854662513	 0.171462
H	-1.1376327234	-2.022219698	-1.47351264	 0.185221
26.9277	57.3807	81.4664	139.6768	171.7366	244.6126	253.1509	324.3149	372.4831	378.6133	387.3995	424.7824	444.7969	539.6484	632.0834	801.6558	834.5559	896.6715	970.9133	1007.6216	1062.6616	1067.245	1119.8587	1122.1645	1167.5994	1192.2382	1223.4561	1299.4088	1305.9352	1325.5318	1368.7786	1433.8599	1447.6559	1462.3487	1480.4992	1485.3846	1498.9342	1501.1424	1514.654	1835.9138	2373.9894	2943.4865	2949.6492	2967.2857	3037.704	3042.9993	3065.8362	3067.3844	3094.6147	3109.5809	3112.8031
CN(C)CC(=O)CC#N	CN(C)CC(=O)CC#N	
InChI=1S/C6H10N2O/c1-8(2)5-6(9)3-4-7/h3,5H2,1-2H3	InChI=1S/C6H10N2O/c1-8(2)5-6(9)3-4-7/h3,5H2,1-2H3
