19
gdb 85312	2.36909	1.69099	1.14281	3.9623	74.55	-0.2311	-0.0295	0.2016	1098.5555	0.159928	-423.035904	-423.027831	-423.026887	-423.068666	30.842	
C	-0.1667886846	 1.5511350056	-0.0320064616	-0.408617
C	 0.096393361	 0.0462108107	-0.0564216907	 0.006812
C	 0.9927153467	-0.4432345003	-1.2146066119	-0.339997
C	 1.4855778685	-1.8132586465	-0.7486862341	 0.402616
O	 1.7228310235	-2.7735507734	-1.4324262775	-0.307372
C	 1.5906913213	-1.7538033552	 0.7837019121	 0.017876
O	 2.8314478841	-1.0993173679	 1.1504462604	-0.293706
C	 2.1245357878	 0.0620029799	 1.6439122667	-0.081527
C	 0.7592042124	-0.5243612527	 1.2222858676	-0.090353
H	 0.765091368	 2.120630368	 0.0503523013	 0.119446
H	-0.6697714957	 1.8753246231	-0.9484644423	 0.122686
H	-0.805188412	 1.8271941815	 0.8141858193	 0.117177
H	-0.8705254667	-0.4662002329	-0.1553710978	 0.087008
H	 0.4912789331	-0.5076617692	-2.1818665907	 0.125028
H	 1.8654846141	 0.213026428	-1.335453415	 0.133828
H	 1.4691271273	-2.7282989269	 1.2640092546	 0.090857
H	 2.264411303	 0.1842456944	 2.7244230348	 0.108579
H	 2.4455333481	 0.9816931183	 1.1408705136	 0.105282
H	 0.0464547202	-0.6568445746	 2.0368052311	 0.084376
87.7244	119.5716	220.989	237.1174	241.0357	296.897	443.4029	473.313	515.4821	554.5177	660.2403	762.4408	793.6323	868.7592	884.6804	899.1907	927.8132	958.3531	999.0491	1026.1678	1026.7749	1061.5482	1109.7452	1151.3492	1161.434	1176.111	1192.6867	1244.0987	1246.6319	1262.3851	1286.5743	1323.0156	1339.0367	1370.2973	1373.1326	1413.112	1457.6041	1495.3206	1499.8219	1522.5214	1852.4646	3006.5616	3021.8832	3030.5631	3033.4351	3063.3765	3079.3656	3099.8274	3103.3957	3105.9952	3120.0483
CC1CC(=O)C2OCC12	C[C@H]1CC(=O)[C@H]2OC[C@@H]12	
InChI=1S/C7H10O2/c1-4-2-6(8)7-5(4)3-9-7/h4-5,7H,2-3H2,1H3	InChI=1S/C7H10O2/c1-4-2-6(8)7-5(4)3-9-7/h4-5,7H,2-3H2,1H3/t4-,5-,7-/m0/s1
