16
gdb 50660	2.8267	1.30311	0.95148	4.9553	67.44	-0.2569	-0.0025	0.2544	1177.4006	0.125309	-475.080233	-475.072191	-475.071247	-475.113888	28.777	
O	-0.1616885645	 0.0206713511	 0.1208903412	-0.329048
C	-0.0431580857	 1.2247401164	 0.174757905	 0.15018
N	 1.1378553505	 1.8967112105	 0.0457550192	-0.059097
C	 1.2442533217	 3.3378873997	 0.0718421054	-0.204891
C	 1.8891807407	 3.7986727165	-1.2256361569	-0.061611
O	 3.1628110692	 3.1731369014	-1.4414296209	-0.222154
C	 3.4014197221	 1.8976379928	-1.0523013953	 0.402784
O	 4.4408925305	 1.3755718936	-1.3392106608	-0.313519
C	 2.367294012	 1.1643518463	-0.2020335652	-0.308618
H	-0.8941236974	 1.9159359048	 0.3344451702	 0.080404
H	 0.2460057529	 3.7740212778	 0.1703422732	 0.133065
H	 1.8461934949	 3.6703441124	 0.9294818711	 0.12776
H	 1.2347169309	 3.5698505429	-2.0751155391	 0.128365
H	 2.0881389713	 4.8732014607	-1.2146000675	 0.13365
H	 2.8759456836	 0.9023321728	 0.7358069264	 0.157302
H	 2.1180821574	 0.2210843403	-0.6930808261	 0.185427
52.1479	83.3681	156.8455	220.2567	316.4213	348.6184	397.8225	479.4645	502.691	562.0259	623.8044	689.4165	777.4969	895.9443	934.8953	990.4212	1005.5841	1026.3471	1098.7732	1109.2014	1212.1141	1219.716	1233.4731	1273.4124	1290.5694	1347.7674	1397.7336	1423.7433	1430.6355	1446.7789	1477.3	1486.2981	1507.4624	1797.4129	1855.6282	2938.4537	3008.7592	3024.3186	3040.3048	3096.4894	3107.5062	3116.691
O=CN1CCOC(=O)C1	O=CN1CCOC(=O)C1	
InChI=1S/C5H7NO3/c7-4-6-1-2-9-5(8)3-6/h4H,1-3H2	InChI=1S/C5H7NO3/c7-4-6-1-2-9-5(8)3-6/h4H,1-3H2
