13
gdb 132114	3.15703	1.41931	0.98014	5.0935	68.54	-0.2075	-0.0564	0.1511	1076.671	0.090039	-494.084457	-494.077063	-494.076119	-494.116221	28.28	
N	 0.0429060969	 1.4120633204	 0.1671533933	-0.57846
C	-0.0043995428	 0.040381585	 0.0575284242	 0.288723
C	-1.1670939929	-0.6945480858	 0.0403905075	 0.255866
F	-2.3346521182	-0.0258429739	 0.066620791	-0.095322
N	-1.1994789063	-2.0169473495	-0.000627736	-0.254068
C	-0.083400195	-2.7011285172	-0.0345791958	-0.144003
C	 1.2352065928	-2.0904544958	-0.0249268866	 0.383425
O	 2.3198810746	-2.6439030421	-0.0492244608	-0.393978
N	 1.1535036528	-0.6759380967	 0.0240571548	-0.405024
H	 0.7881760503	 1.8775843502	-0.3322823184	 0.264622
H	-0.8561106445	 1.8511570786	 0.0277156386	 0.27761
H	-0.1308678336	-3.7839866679	-0.0702877034	 0.135922
H	 2.0469174457	-0.2040064953	 0.0781650916	 0.264687
128.7314	197.6488	276.3551	294.381	351.3471	370.8495	467.0218	488.8431	505.2815	589.3796	614.906	642.4565	699.8547	733.2328	768.3884	803.2121	886.5896	941.374	1100.706	1171.0116	1242.2567	1309.4215	1336.7154	1436.7223	1482.9189	1580.0153	1638.2378	1670.3905	1784.8961	3194.4405	3558.138	3592.9261	3663.8765
NC1=C(F)N=CC(=O)N1	Nc1c(F)ncc(=O)[nH]1	
InChI=1S/C4H4FN3O/c5-3-4(6)8-2(9)1-7-3/h1H,(H3,6,8,9)	InChI=1S/C4H4FN3O/c5-3-4(6)8-2(9)1-7-3/h1H,(H3,6,8,9)
