19
gdb 86639	2.27982	1.32344	0.92433	2.8835	76.74	-0.2464	-0.0368	0.2095	1284.2973	0.15795	-423.077896	-423.068938	-423.067993	-423.112176	32.886	
C	-0.0253793452	 1.5087710807	-0.1564712747	-0.402949
C	 0.0556308195	-0.0098878142	-0.0247624278	 0.017069
C	 0.8159500749	-0.7010663711	-1.1824680073	-0.236391
C	 1.2117024411	-2.078936083	-0.644733263	-0.202902
C	 2.5449093366	-2.6259561796	-1.1203992498	 0.144336
O	 3.2614445738	-2.0696028354	-1.9114689406	-0.237561
C	 1.2174821384	-1.932503901	 0.9010131146	 0.381961
O	 1.5093260268	-2.8075293001	 1.6722184273	-0.312176
C	 0.7889181343	-0.5077343666	 1.2324543374	-0.320297
H	 0.9767491167	 1.9524360696	-0.1749931014	 0.1191
H	-0.5344336578	 1.7964421588	-1.0823139711	 0.119046
H	-0.5745367786	 1.9549464601	 0.6789570285	 0.117723
H	-0.9659211594	-0.414255519	 0.0015465671	 0.08114
H	 0.2205337851	-0.755749939	-2.096949978	 0.109977
H	 1.7268231834	-0.1431107852	-1.4277787025	 0.125161
H	 0.4628619087	-2.8551281631	-0.8592041563	 0.12662
H	 2.8263205233	-3.5928761586	-0.6543805208	 0.107112
H	 1.7071099557	 0.077372045	 1.3931715546	 0.133411
H	 0.2142565627	-0.4726817483	 2.1606596737	 0.129621
57.4457	108.9352	113.273	195.6972	242.3781	271.0282	300.5544	411.214	451.0464	495.1227	547.8752	611.4881	647.3184	768.3059	843.0221	861.0216	901.6818	923.6072	951.711	984.1985	1012.9799	1083.6197	1119.5545	1144.3022	1156.7896	1170.5459	1195.7747	1247.984	1262.9562	1293.7519	1332.2107	1347.7204	1383.8472	1412.8743	1416.9615	1447.8196	1495.5097	1498.4679	1502.2836	1816.0897	1848.2773	2924.5551	3002.2462	3015.0695	3018.0499	3028.7596	3053.404	3095.9404	3101.6499	3104.2353	3110.7231
CC1CC(C=O)C(=O)C1	C[C@H]1C[C@@H](C=O)C(=O)C1	
InChI=1S/C7H10O2/c1-5-2-6(4-8)7(9)3-5/h4-6H,2-3H2,1H3	InChI=1S/C7H10O2/c1-5-2-6(4-8)7(9)3-5/h4-6H,2-3H2,1H3/t5-,6-/m0/s1
