17
gdb 35137	5.32583	0.89482	0.8595	2.6361	73.03	-0.2566	-0.007	0.2496	1336.6616	0.136908	-417.966891	-417.958638	-417.957694	-418.000747	29.808	
N	-0.4338538965	-1.0727992829	-0.36142128	-0.311078
C	-0.0823766228	 0.0120788373	-0.1750953086	 0.280742
C	 0.3429215083	 1.3955970578	 0.0658545142	-0.010146
C	-0.1577501269	 2.0304579006	 1.3870062611	-0.311986
C	 1.324087427	 1.9317996902	 1.8270328053	 0.108084
O	 1.7157638654	 1.4810718015	 0.4976099151	-0.292974
C	 2.0328982656	 3.1930848029	 2.238535397	-0.010416
C	 3.4352596161	 3.4306731894	 1.8254067756	-0.239602
N	 2.336583851	 4.2324115794	 1.2474549805	-0.32069
H	 0.1688222667	 1.9791489966	-0.8445513248	 0.13387
H	-0.5172604096	 3.0521642576	 1.2611945253	 0.138352
H	-0.8785584576	 1.4458084989	 1.9563145882	 0.139991
H	 1.5024041716	 1.1403831073	 2.5663249938	 0.103643
H	 1.6972149215	 3.5772359125	 3.2009937929	 0.100639
H	 4.1089907107	 3.9735696243	 2.4812400788	 0.123985
H	 3.9042093048	 2.6835965236	 1.1918586642	 0.13297
H	 2.1405170949	 3.858743103	 0.3198142813	 0.234616
49.038	91.7976	126.2772	192.2224	239.0631	286.271	423.5997	506.066	552.7544	639.4114	705.1647	786.4066	837.7137	855.5282	912.2986	945.4482	961.7045	998.5637	1009.203	1015.7221	1075.4281	1089.5416	1135.223	1140.5135	1160.1622	1190.8556	1249.222	1259.022	1273.6396	1298.453	1306.4814	1355.8384	1385.0627	1421.9316	1489.579	1506.6541	2357.1491	3025.48	3053.0218	3098.1349	3117.5034	3121.5155	3163.0796	3208.9532	3479.1735
N#CC1CC(O1)C1CN1	N#C[C@H]1C[C@@H](O1)[C@H]1CN1	
InChI=1S/C6H8N2O/c7-2-4-1-6(9-4)5-3-8-5/h4-6,8H,1,3H2	InChI=1S/C6H8N2O/c7-2-4-1-6(9-4)5-3-8-5/h4-6,8H,1,3H2/t4-,5-,6-/m1/s1
