15
gdb 51514	4.18485	0.99029	0.85298	3.3231	73.25	-0.2702	-0.0502	0.22	1306.9061	0.112978	-453.960601	-453.952687	-453.951742	-453.99414	28.497	
N	-0.0919121298	 1.288494658	 0.1728530133	-0.430928
C	-0.0425696022	 0.0361095003	 0.0675600728	 0.138278
O	-1.1950356928	-0.6832620118	 0.1016653609	-0.183805
C	-1.0576212715	-2.083996106	 0.0714306346	 0.150067
O	-0.6626225514	-2.5862610268	 1.34357361	-0.2479
C	-1.6500381458	-3.414414932	 1.843319835	 0.398338
N	-1.6077663252	-4.0092802667	 2.9554621241	-0.532396
C	-2.7251083948	-3.4806620098	 0.8416004883	-0.130938
C	-2.3965689055	-2.7160812716	-0.1962020579	-0.119177
H	 0.8444976638	 1.6832414936	 0.1131054942	 0.236217
H	 0.8541320159	-0.5832622002	-0.0632670643	 0.100514
H	-0.2793877007	-2.3632709169	-0.6530415668	 0.105471
H	-0.7509742615	-3.7784404342	 3.4606840007	 0.231967
H	-3.6171405049	-4.069163388	 0.9946797205	 0.144174
H	-2.9581443434	-2.5167624378	-1.0975128654	 0.14012
57.2735	102.3428	117.2928	185.3586	307.0024	394.7349	427.0586	488.966	636.5074	687.5622	722.7805	805.3286	826.2526	836.7437	893.0992	896.0346	971.2538	977.8283	1024.1117	1033.5584	1043.5001	1072.062	1112.1055	1134.2323	1256.7434	1275.3856	1354.4063	1374.9846	1388.3134	1428.5355	1669.624	1756.5163	1774.1828	3006.9909	3039.0192	3241.834	3267.6632	3484.1422	3520.1227
N=COC1OC(=N)C=C1	[NH][CH]O[C@H]1OC(=C[CH]1)[NH]	
InChI=1S/C5H6N2O2/c6-3-8-5-2-1-4(7)9-5/h1-3,5-7H	InChI=1S/C5H6N2O2/c6-3-8-5-2-1-4(7)9-5/h1-3,5-7H/t5-/m0/s1
