18
gdb 54374	3.1549	1.4068	1.28838	2.2031	77.08	-0.236	-0.0175	0.2185	1056.2416	0.147432	-401.894583	-401.886555	-401.885611	-401.927829	30.112	
C	 0.0018501669	 1.4550706346	-0.2035517844	-0.483049
C	 0.0271078276	-0.0329521475	 0.0739515974	 0.217274
O	 1.0445392718	-0.6477954874	 0.3242332785	-0.326543
C	-1.2696368823	-0.7265521449	 0.0275815805	 0.315076
C	-1.8955752036	-1.786173611	 0.9184818262	-0.123635
C	-3.1257663885	-0.8959595039	 1.0103767487	-0.176965
N	-2.6920716359	-0.19360846	-0.2623885641	-0.221299
C	-2.8184637191	-1.3180390457	-1.2728376013	-0.176965
C	-1.6961869433	-2.0599427592	-0.562636329	-0.123661
H	 1.014269531	 1.8560317503	-0.1444761706	 0.137133
H	-0.4260765854	 1.6491708864	-1.1930864873	 0.145761
H	-0.64969077	 1.9635103241	 0.5155326189	 0.145766
H	-1.3847798208	-2.3639383677	 1.677522201	 0.115945
H	-4.1225302691	-1.3481146319	 0.9608296504	 0.103596
H	-3.0779039137	-0.1954846851	 1.8472018183	 0.116005
H	-3.8149578459	-1.7705754493	-1.3243127222	 0.103595
H	-2.5250768776	-0.9548162718	-2.2603706959	 0.116013
H	-1.0361053921	-2.84268989	-0.912586155	 0.115953
55.5332	102.9708	149.0152	149.4196	340.2979	417.6226	444.8906	515.1124	583.0713	615.6442	737.122	768.9156	815.5396	880.6315	883.9226	908.3771	923.4358	967.1898	967.2973	999.2889	1015.5053	1046.5474	1084.7281	1089.1405	1100.6758	1123.9284	1160.4199	1196.178	1258.2855	1260.2599	1301.1406	1307.8176	1378.8139	1426.9456	1454.4957	1467.4034	1500.872	1523.0502	1776.045	3037.9384	3040.4074	3045.9826	3100.2354	3107.432	3110.3872	3155.4007	3205.5074	3214.3792
CC(=O)C12C3CN1CC23	CC(=O)[C@@]12[C@H]3CN1C[C@@H]23	
InChI=1S/C7H9NO/c1-4(9)7-5-2-8(7)3-6(5)7/h5-6H,2-3H2,1H3	InChI=1S/C7H9NO/c1-4(9)7-5-2-8(7)3-6(5)7/h5-6H,2-3H2,1H3/t5-,6+,7-
