19
gdb 40953	3.58302	1.2625	1.11574	2.2473	77.24	-0.2462	0.0085	0.2547	1132.1568	0.160823	-423.00248	-422.994747	-422.993802	-423.034993	29.748	
C	 0.068751136	 1.5510098881	-0.0209242142	-0.127793
O	 1.3112262645	 1.5297590377	 0.7053270095	-0.273303
C	 1.4667721668	 0.1163878149	 0.46797057	-0.116867
C	 0.0226656515	 0.0032838332	-0.0957767455	 0.259932
C	-0.981030986	-0.6072170073	 0.8833903874	-0.1562
O	-0.9394231918	-2.0219117602	 0.841913838	-0.251767
C	-1.365880966	-2.5367817671	-0.4049439437	-0.125507
C	-0.7903127162	-1.7964692985	-1.580459482	-0.084857
C	-0.1423425276	-0.6421125142	-1.4368994276	-0.145192
H	-0.735799212	 2.037186526	 0.5456838995	 0.10213
H	 0.1678831757	 2.047388738	-0.9966374917	 0.094958
H	 2.2557663686	-0.0904539588	-0.2671733766	 0.096544
H	 1.6715881536	-0.446817573	 1.3857172166	 0.112208
H	-0.751960046	-0.3181104741	 1.9134381987	 0.115562
H	-1.993680703	-0.2407529147	 0.6424110445	 0.088239
H	-1.0535133801	-3.5875793213	-0.4241079122	 0.120895
H	-2.4704606209	-2.5335121294	-0.4675203863	 0.100439
H	-0.9294677838	-2.2493248765	-2.5585816799	 0.098076
H	 0.2922349667	-0.1368911028	-2.2965389645	 0.092504
86.3391	104.1775	216.0486	263.4559	322.4986	380.6332	422.5966	475.8938	524.941	659.2496	724.2067	822.0104	848.9505	901.5199	914.4198	962.2754	976.1069	993.7721	998.0942	1006.2693	1037.1836	1042.5178	1105.7528	1128.9401	1155.3116	1161.4497	1181.721	1211.001	1253.6768	1303.3528	1309.9373	1322.5344	1364.9685	1377.8617	1409.9764	1425.6733	1483.9695	1495.4219	1511.5641	1536.0129	1717.4731	2930.5247	2959.4846	2993.4078	3010.8244	3044.0962	3052.2226	3062.814	3083.2686	3144.7495	3171.9164
C1OCC11COCC=C1	C1OCC21COCC=C2	
InChI=1S/C7H10O2/c1-2-7(4-8-3-1)5-9-6-7/h1-2H,3-6H2	InChI=1S/C7H10O2/c1-2-7(4-8-3-1)5-9-6-7/h1-2H,3-6H2
