18
gdb 93108	2.42555	1.80999	1.18666	1.5613	71.85	-0.2481	0.0206	0.2687	1046.2704	0.148293	-439.077524	-439.069531	-439.068587	-439.110032	30.559	
C	-0.0174945112	 1.5441807768	-0.0991330673	-0.425929
C	 0.0791314469	 0.0374241776	 0.0484456381	 0.07
O	 0.6716267968	-0.4830925606	-1.1644795097	-0.237536
C	 1.1567640948	-1.7469745651	-1.1062929959	 0.133607
N	 1.313735981	-2.5071441125	-0.1091009284	-0.269987
C	 0.9820822667	-1.9869205024	 1.2153133298	-0.235699
C	 0.8666414323	-0.4757416904	 1.2440829577	 0.366927
C	 1.8543123263	 0.3487699684	 1.9518074784	-0.233792
O	 0.5501365048	 0.1124634603	 2.5048395954	-0.280874
H	 0.9610671455	 1.9763543725	-0.3238759715	 0.129549
H	-0.6963212052	 1.7984840697	-0.9165739971	 0.130146
H	-0.3998836185	 1.9799260435	 0.8269868019	 0.143835
H	-0.9328015143	-0.3875714392	 0.1206454542	 0.098298
H	 1.4326457741	-2.0797135365	-2.1054089758	 0.126747
H	 0.0331935756	-2.4310539204	 1.5461955558	 0.124083
H	 1.7429819124	-2.3275861468	 1.9248649086	 0.118878
H	 2.6743469643	-0.1428780068	 2.4726978621	 0.121652
H	 2.0481108378	 1.3742726818	 1.6469566538	 0.120096
97.2179	115.7897	232.9142	274.0837	288.2841	366.8078	380.7583	449.4227	478.1654	516.1858	547.7948	713.0329	841.8364	852.715	903.1493	907.8406	939.7835	961.5009	986.5055	1022.5181	1076.4984	1112.9372	1127.5407	1145.7904	1166.7024	1168.5646	1219.9336	1267.5559	1332.4056	1362.0082	1391.7643	1400.3671	1410.0306	1434.2562	1485.65	1492.2947	1501.0711	1533.171	1738.8215	2999.5404	3019.2428	3054.1729	3068.955	3095.5173	3128.7513	3139.1293	3159.6927	3184.5706
CC1OC=NCC11CO1	C[C@H]1OC=NC[C@]21CO2	
InChI=1S/C6H9NO2/c1-5-6(3-9-6)2-7-4-8-5/h4-5H,2-3H2,1H3	InChI=1S/C6H9NO2/c1-5-6(3-9-6)2-7-4-8-5/h4-5H,2-3H2,1H3/t5-,6-/m1/s1
