15
gdb 132145	3.15947	1.31605	0.93448	7.4125	72.78	-0.2168	-0.0185	0.1983	1171.6398	0.112743	-461.96971	-461.961746	-461.960802	-462.002299	29.772	
C	-0.019819367	 1.5182783846	 0.0659650647	-0.49412
C	 0.0017608582	 0.0194410521	-0.0257353729	 0.404319
C	-0.0266167962	-0.6831490609	-1.1902129197	-0.33333
C	-0.0046716897	-2.1410032499	-1.2532661842	 0.293758
O	-0.0279392615	-2.7970218	-2.2877390701	-0.397185
C	 0.0525012675	-2.7539590037	 0.0803787618	 0.118711
F	 0.0777703031	-4.0818302608	 0.1501935183	-0.063225
C	 0.0795355216	-2.0281806235	 1.2192250237	-0.103601
N	 0.0542632835	-0.6554930991	 1.1663332972	-0.380652
H	 0.8781472415	 1.8982662066	 0.5674288269	 0.14072
H	-0.0645439386	 1.9596362828	-0.9299823391	 0.154209
H	-0.8897876652	 1.8688311376	 0.6338173686	 0.140553
H	-0.0679485755	-0.1541687509	-2.13472174	 0.111563
H	 0.1213015819	-2.4858299407	 2.198870322	 0.143181
H	 0.0752712865	-0.1357839541	 2.0277830028	 0.265098
108.2439	123.0411	189.7181	297.2889	303.6792	361.6433	414.5404	438.1665	470.4077	510.6271	597.8481	607.964	737.4212	760.8735	771.4541	864.9321	883.1977	959.6542	1036.7794	1064.3616	1160.5619	1188.0535	1224.5794	1300.556	1372.6723	1386.913	1416.7862	1481.3626	1482.2194	1551.3286	1648.7381	1696.234	1732.9228	3029.6969	3081.5227	3147.5281	3207.848	3220.7498	3656.272
CC1=CC(=O)C(F)=CN1	Cc1cc(=O)c(F)c[nH]1	
InChI=1S/C6H6FNO/c1-4-2-6(9)5(7)3-8-4/h2-3H,1H3,(H,8,9)	InChI=1S/C6H6FNO/c1-4-2-6(9)5(7)3-8-4/h2-3H,1H3,(H,8,9)
