21
gdb 95260	2.66927	1.76739	1.40222	1.3328	81.37	-0.2327	0.0862	0.3189	1020.1986	0.185139	-387.07075	-387.063297	-387.062353	-387.102247	30.816	
C	-0.0652655412	 1.5286645937	-0.0500947532	-0.394396
C	 0.021412795	 0.0080689133	-0.0048321201	 0.107911
O	 0.5294899236	-0.4088215591	-1.2684700748	-0.260563
C	 0.9030488068	-1.775757224	-1.3370729317	-0.087487
C	 1.9642234462	-2.101954055	-0.2914524426	-0.038251
C	 3.0134107034	-0.9572246941	-0.0839960528	-0.236881
C	 2.3480458276	-0.6222942303	 1.2561359843	-0.076497
C	 1.461768699	-1.8673633658	 1.1505145239	-0.108262
C	 0.8402606086	-0.5050731291	 1.1712946886	-0.016804
H	 0.9346297275	 1.9655214851	-0.1284253146	 0.124046
H	-0.652801682	 1.8487745902	-0.9149362027	 0.120628
H	-0.5422855343	 1.9134431512	 0.8567040686	 0.108833
H	-0.997762968	-0.4057686593	 0.1151402844	 0.059966
H	 0.023995683	-2.4305884283	-1.2065567575	 0.082974
H	 1.285346457	-1.9208540744	-2.3530649538	 0.102146
H	 2.4024484196	-3.0862100413	-0.4675391344	 0.069351
H	 4.0153856087	-1.3663348165	 0.0692887351	 0.096151
H	 3.0544814118	-0.1751320605	-0.8453695896	 0.105733
H	 2.8724067614	-0.2505210381	 2.1290824238	 0.080447
H	 1.2519927175	-2.6349746523	 1.8855406998	 0.078082
H	 0.3938238687	-0.2418029254	 2.1282270192	 0.082873
120.03	213.3741	258.8321	292.151	343.8028	365.8167	450.5898	511.9031	591.0911	693.438	738.4509	777.2399	789.8781	826.9389	831.3982	888.6322	939.9645	962.3305	984.4347	990.5483	1012.5411	1051.2499	1065.3865	1078.1392	1088.4459	1112.9232	1122.6272	1148.9327	1163.4628	1193.9033	1225.2667	1261.7486	1285.9862	1305.662	1316.4594	1331.3488	1368.171	1373.5538	1407.5422	1407.7773	1443.6227	1483.4548	1489.8557	1493.0185	1498.8645	2918.4199	2957.7952	3041.4252	3059.6425	3066.2095	3089.4922	3112.9482	3114.9062	3120.9719	3131.2062	3169.3376	3183.6331
CC1OCC2CC3C2C13	C[C@H]1OC[C@H]2C[C@@H]3[C@H]2[C@H]13	
InChI=1S/C8H12O/c1-4-7-6-2-5(3-9-4)8(6)7/h4-8H,2-3H2,1H3	InChI=1S/C8H12O/c1-4-7-6-2-5(3-9-4)8(6)7/h4-8H,2-3H2,1H3/t4-,5-,6+,7-,8+/m1/s1
