18
gdb 47290	2.60428	1.45054	1.08535	1.723	72.83	-0.2479	-0.0302	0.2177	1126.6955	0.148568	-439.114213	-439.106008	-439.105064	-439.147633	30.821	
N	 0.2755461242	 1.3070961581	-0.4001154758	-0.465327
C	-0.1366701119	 0.1501028281	-0.1099016155	 0.35949
C	-1.5561916428	-0.297810743	-0.3141396609	-0.240981
C	-1.6874872138	-1.456853377	-1.3221226204	-0.223617
C	-0.8710197904	-2.7250914198	-0.9804939197	-0.291121
C	 0.6138093441	-2.5885801381	-1.2785167874	 0.35461
O	 1.1709736117	-3.2192366475	-2.1448293166	-0.294213
C	 1.4307364809	-1.6082226135	-0.426460536	-0.198169
O	 0.6570942108	-0.8296109064	 0.4753313613	-0.252309
H	 1.2667323565	 1.4022192274	-0.1649294776	 0.225371
H	-1.9455088164	-0.6267049804	 0.6577695282	 0.122922
H	-2.1466407651	 0.5581278591	-0.6463334084	 0.130643
H	-2.7435322645	-1.7397220106	-1.3737132777	 0.117156
H	-1.41354804	-1.1057294388	-2.3239795472	 0.12478
H	-1.0010005124	-2.9652317076	 0.082240438	 0.123097
H	-1.2284490584	-3.5694178322	-1.5746754735	 0.125349
H	 2.1258831781	-2.1929072716	 0.1841251295	 0.148075
H	 2.0278311895	-0.9773367761	-1.0978037003	 0.134246
46.6155	106.6424	187.6626	231.6833	297.0993	337.8308	445.703	474.6096	483.7693	545.6564	587.145	700.0603	720.0314	797.1919	858.8184	884.7991	934.7526	941.8576	977.0175	1029.5989	1063.8693	1083.131	1106.754	1150.469	1196.3575	1245.1751	1271.3625	1279.3123	1316.2652	1339.9764	1358.8855	1368.9577	1384.1844	1455.4056	1464.6307	1474.2759	1494.4354	1753.3749	1816.7307	3027.8376	3033.3878	3036.7085	3042.348	3084.9351	3092.689	3110.9312	3120.5219	3452.4926
N=C1CCCC(=O)CO1	[NH][C]1CCCC(=O)CO1	
InChI=1S/C6H9NO2/c7-6-3-1-2-5(8)4-9-6/h7H,1-4H2	InChI=1S/C6H9NO2/c7-6-3-1-2-5(8)4-9-6/h7H,1-4H2
