20
gdb 70390	2.37013	1.51311	1.3201	1.5275	85.04	-0.227	0.0529	0.2799	1098.0081	0.168935	-365.944014	-365.934736	-365.933792	-365.977197	36.171	
C	-0.1184661371	 1.5435502341	 0.0928403145	-0.516763
C	 0.0965292031	 0.0636223713	 0.0436517425	 0.314459
N	-0.782285544	-0.8865283761	 0.7665118593	-0.378595
C	 0.684586646	-0.8999878684	 1.0109198017	-0.090658
C	 1.2825195618	-1.7606591004	-0.0991359802	-0.269975
C	 0.6727178823	-0.7503597889	-1.1648186945	 0.095898
C	-0.3555389159	-1.3234061942	-2.1457721128	-0.459388
C	 1.7188362559	-0.0142980616	-1.8587832938	 0.279141
C	 2.5787360021	 0.5958115251	-2.4388353166	-0.462151
H	 0.7472708035	 2.0738886998	-0.313865625	 0.141213
H	-0.9980933036	 1.8358060132	-0.4930386377	 0.127707
H	-0.2750795292	 1.880662824	 1.1234638188	 0.114532
H	-1.2122348152	-0.3624515467	 1.5287892089	 0.22359
H	 1.0796428463	-0.7313779889	 2.0056701714	 0.090405
H	 2.3725810459	-1.7653156351	-0.1194948094	 0.115866
H	 0.8985436258	-2.7823431972	-0.1552048778	 0.107296
H	-1.150824663	-1.8229931108	-1.5893037948	 0.140361
H	-0.7940022452	-0.5290450731	-2.7578909603	 0.11743
H	 0.1176939601	-2.0434412077	-2.820243454	 0.119695
H	 3.3388997703	 1.1285021719	-2.9544856902	 0.189938
121.1094	138.5715	193.2015	203.1817	228.2467	250.2865	314.0788	342.0788	440.8281	469.5251	514.1009	532.0746	616.5906	625.0488	632.8531	655.3187	762.0074	841.9922	861.3841	914.1549	925.5054	936.0266	985.7105	1023.9	1042.6956	1094.0029	1112.6643	1129.8579	1150.059	1183.1686	1236.9727	1260.8919	1300.541	1336.2041	1396.3987	1404.4447	1438.3922	1475.2049	1480.8295	1488.7195	1498.973	1500.5894	2226.5474	3025.7203	3041.3158	3068.3288	3086.1111	3107.3796	3111.138	3137.3446	3139.0824	3184.2273	3466.7812	3501.608
CC12NC1CC2(C)C#C	C[C@]12N[C@H]1C[C@]2(C)C#C	
InChI=1S/C8H11N/c1-4-7(2)5-6-8(7,3)9-6/h1,6,9H,5H2,2-3H3	InChI=1S/C8H11N/c1-4-7(2)5-6-8(7,3)9-6/h1,6,9H,5H2,2-3H3/t6-,7-,8-/m0/s1
