20
gdb 14750	10.24112	0.59805	0.57513	1.2983	79.27	-0.2541	0.0349	0.2889	1934.4233	0.173861	-348.962821	-348.952704	-348.95176	-348.998729	34.895	
C	-0.0205814633	 1.5504351365	 0.0106559547	-0.37973
C	-0.022505313	 0.0194291176	 0.0025170933	-0.166514
C	-1.4351362672	-0.5737933955	 0.0127149155	-0.180352
C	-1.4349716826	-2.0952137233	 0.0045365196	-0.039763
O	-2.7755902963	-2.5481017433	 0.0148909571	-0.246016
C	-2.8678609159	-3.957458581	 0.0081152724	-0.205511
C	-4.265929604	-4.3687563149	 0.0191256521	 0.280542
C	-5.4089841555	-4.7363842982	 0.0278568026	-0.415162
H	 0.9989487147	 1.9480579661	 0.0031496559	 0.111928
H	-0.5417486192	 1.9509238165	-0.8657878258	 0.116384
H	-0.5250697771	 1.9415128384	 0.9009986879	 0.116384
H	 0.5192066607	-0.34207401	-0.8816583597	 0.096471
H	 0.5357934845	-0.3514179663	 0.872388081	 0.096472
H	-1.9823430537	-0.2292064508	 0.8986025369	 0.107074
H	-1.9989998004	-0.2197488549	-0.8588826039	 0.107072
H	-0.9104426128	-2.4767853703	-0.8892781561	 0.084613
H	-0.8935359294	-2.4863052069	 0.8840421154	 0.084611
H	-2.3670323769	-4.3743659736	-0.8832209823	 0.116108
H	-2.3502047371	-4.3839590996	 0.8851787011	 0.116106
H	-6.4223228354	-5.0535873465	 0.0360440822	 0.199281
48.8898	75.424	81.2977	133.4781	140.0235	182.3248	251.7274	293.9957	334.5686	351.0777	467.5806	563.5677	606.4173	674.2198	744.8281	815.0274	906.291	953.0763	968.4364	1020.9587	1032.5888	1036.6392	1073.7563	1145.0174	1148.3066	1194.8392	1247.8713	1258.308	1293.4314	1311.8374	1323.9707	1379.3455	1395.9806	1415.7175	1450.4458	1487.5724	1494.4615	1499.2842	1501.122	1510.8597	1530.0395	2248.1641	2939.6403	2951.2302	2963.2422	2968.689	3012.9671	3029.9385	3034.0837	3039.1208	3075.5235	3098.9936	3103.7039	3506.4081
CCCCOCC#C	CCCCOCC#C	
InChI=1S/C7H12O/c1-3-5-7-8-6-4-2/h2H,3,5-7H2,1H3	InChI=1S/C7H12O/c1-3-5-7-8-6-4-2/h2H,3,5-7H2,1H3
