17
gdb 126985	3.28686	1.07434	0.82217	3.4034	73.31	-0.2291	-0.0327	0.1964	1382.6684	0.133877	-455.126483	-455.117266	-455.116321	-455.16173	31.855	
C	-0.0108585744	 1.4879764373	 0.0471850684	-0.392174
C	 0.0256175186	-0.027209849	 0.0181287834	-0.05093
O	-1.3356405112	-0.4903577019	 0.0206840691	-0.281969
C	-1.5124426802	-1.8178046159	-0.0026548193	 0.275045
C	-2.6987079139	-2.4958491427	-0.004820366	 0.294651
C	-4.116930936	-2.0636611083	 0.0159822419	-0.49842
O	-2.3936219757	-3.8020971979	-0.0321161004	-0.203684
N	-0.9879275281	-3.9138148318	-0.0467789749	-0.027545
N	-0.503598289	-2.741195547	-0.0290776925	-0.209154
H	 1.0092127201	 1.8827050145	 0.0460768606	 0.125873
H	-0.5352368021	 1.8809612693	-0.8282531006	 0.131206
H	-0.5203012544	 1.8473236775	 0.9455935427	 0.131198
H	 0.5336550083	-0.4033365733	-0.8774458314	 0.122652
H	 0.5483894755	-0.4368930261	 0.8901955016	 0.122631
H	-4.6538398744	-2.4179659618	-0.8702626908	 0.152997
H	-4.6381721528	-2.451718694	 0.8974280539	 0.152996
H	-4.1607691905	-0.9728806492	 0.0371861842	 0.154627
48.5238	72.1846	99.3646	133.4576	235.9398	244.6388	263.2085	348.3711	354.5322	502.6533	649.5394	662.4025	725.9518	747.396	778.9701	815.52	924.9848	991.1045	1031.7094	1064.7518	1068.0435	1128.8318	1182.0517	1202.7795	1273.0678	1295.9545	1394.3331	1399.9261	1416.7979	1424.2808	1453.7333	1476.4594	1483.9798	1486.7606	1498.294	1523.571	1688.1914	3032.075	3039.3712	3047.9856	3070.8714	3095.1244	3123.9966	3126.3095	3137.3362
CCOC1=C(C)ON=N1	CCOc1c(C)onn1	
InChI=1S/C5H8N2O2/c1-3-8-5-4(2)9-7-6-5/h3H2,1-2H3	InChI=1S/C5H8N2O2/c1-3-8-5-4(2)9-7-6-5/h3H2,1-2H3
