13
gdb 36575	2.71038	0.91123	0.71277	2.6078	68.14	-0.3076	-0.0472	0.2604	1453.9539	0.088823	-411.789746	-411.780734	-411.77979	-411.824743	30.167	
N	-0.0323094751	-1.1338566137	-0.1036884742	-0.277366
C	-0.0159814437	 0.0139510661	 0.0178506219	 0.267785
C	 0.0069063781	 1.4656290799	 0.1995996572	-0.28287
N	 1.3150206539	 2.0017551423	-0.187766433	-0.2829
C	 1.4054373441	 3.4511030751	-0.067304821	-0.242844
C	 1.1789910684	 3.9616743763	 1.3109830512	 0.293064
N	 0.9500739285	 4.2778996894	 2.3980826412	-0.298548
C	 2.7079830613	 3.9139003131	-0.5726263488	 0.310153
N	 3.7290871277	 4.2735485959	-0.9709834324	-0.282252
H	-0.7580816921	 1.9108890315	-0.4483676979	 0.170579
H	-0.2774246367	 1.6919733396	 1.2399988441	 0.171481
H	 2.057232695	 1.5562402361	 0.3430279029	 0.264859
H	 0.6274586907	 3.8920947882	-0.7061027711	 0.188859
56.6946	94.2819	104.0206	132.5178	210.4875	228.4948	330.6242	377.886	387.1212	480.6779	534.5914	577.6703	648.8211	753.499	877.5674	951.3174	991.1491	1030.1818	1099.6086	1139.7278	1249.9321	1306.9493	1314.9164	1398.3706	1491.5409	1504.2407	2355.6209	2375.6111	2381.7178	2985.145	3027.892	3057.5881	3532.2748
N#CCNC(C#N)C#N	N#CCNC(C#N)C#N	
InChI=1S/C5H4N4/c6-1-2-9-5(3-7)4-8/h5,9H,2H2	InChI=1S/C5H4N4/c6-1-2-9-5(3-7)4-8/h5,9H,2H2
