16
gdb 47022	3.68007	1.39475	1.05412	4.8077	75.02	-0.2216	-0.0298	0.1919	1081.3462	0.126282	-437.883464	-437.876312	-437.875367	-437.915082	27.841	
O	-0.0131024572	-0.0390207893	-0.0350183567	-0.348773
C	 0.018418299	 1.1765899619	 0.0161329746	 0.360033
C	-1.3268360445	 1.9339065494	 0.1990330333	-0.192842
O	-1.2464612085	 3.2715329343	 0.7030728426	-0.259293
C	-0.3192715924	 3.9772382039	-0.0642930921	 0.043652
C	 0.4473446312	 5.1870920389	 0.5534122869	-0.214701
N	 1.6905532364	 4.5046294323	 0.0912209628	-0.375991
C	 1.0298614344	 3.3089277434	-0.0819660642	 0.410192
C	 1.2361230579	 1.9815671184	-0.0390233336	-0.386092
H	-1.8496562092	 1.9265810047	-0.7723409804	 0.115105
H	-1.9274260631	 1.3626772216	 0.9082493046	 0.141097
H	-0.7094358426	 4.2106464863	-1.0670600148	 0.095267
H	 0.2809284944	 6.1750016584	 0.1194687553	 0.123392
H	 0.3448836126	 5.2156585258	 1.6424391958	 0.133441
H	 2.5953641208	 4.594778139	 0.5332925983	 0.253818
H	 2.1999027407	 1.4961815612	 0.0602547675	 0.101693
105.8072	199.1513	220.8101	347.5121	362.4278	448.4731	463.1037	518.4061	560.8659	623.9181	699.2261	778.6932	829.1731	841.1202	861.7964	962.4512	977.4452	1006.79	1037.2194	1081.3379	1138.8616	1163.1884	1216.0142	1229.7497	1245.763	1252.2841	1273.3949	1344.6623	1355.4735	1370.2904	1401.3913	1466.2309	1508.0706	1727.2051	1767.1838	2971.7362	2985.495	3056.1287	3123.1704	3127.6445	3198.6283	3583.3003
O=C1COC2CNC2=C1	O=C1CO[C@H]2CNC2=C1	
InChI=1S/C6H7NO2/c8-4-1-5-6(2-7-5)9-3-4/h1,6-7H,2-3H2	InChI=1S/C6H7NO2/c8-4-1-5-6(2-7-5)9-3-4/h1,6-7H,2-3H2/t6-/m0/s1
