16
gdb 64755	2.63815	1.29512	1.13534	4.9811	69.18	-0.2512	-0.0451	0.2062	1120.4811	0.12197	-437.902511	-437.893455	-437.892511	-437.936901	32.396	
O	 0.0638678541	 1.5381422972	 0.2235286707	-0.46794
C	-0.0164976215	 0.1536077258	 0.0243739199	 0.304087
C	 0.8210395868	-0.6228334122	 1.0687748395	-0.392155
C	 2.2208225176	-0.203931029	 1.0582186467	 0.257397
N	 3.3170303472	 0.1609659497	 1.0402936133	-0.298657
C	-1.4742777347	-0.3775120131	-0.1054635325	-0.284034
C	-1.1235823081	-1.0947594655	-1.4466177734	-0.346665
C	 0.2050638629	-0.3267586872	-1.4407503594	 0.349422
O	 1.029606208	-0.0488786228	-2.2594240353	-0.284342
H	 0.939638474	 1.8319451515	-0.0602357898	 0.307277
H	 0.4013567343	-0.4219415795	 2.0608563524	 0.166192
H	 0.7633780222	-1.7033118266	 0.8963130344	 0.153034
H	-1.8239977926	-1.0143063521	 0.7084054518	 0.113414
H	-2.1646805509	 0.4558433031	-0.2387575158	 0.138425
H	-0.980020282	-2.1757684138	-1.3499907751	 0.139273
H	-1.7690394473	-0.9093923655	-2.3077089875	 0.145273
59.1387	76.259	124.9803	166.8259	240.2292	306.2684	322.7229	384.8099	395.0287	485.9601	506.9046	556.3801	706.5298	729.9644	752.8586	857.6164	907.1693	932.6867	965.6849	1002.6588	1038.1818	1066.8409	1130.5771	1183.6945	1200.9473	1233.2182	1245.5128	1296.983	1313.1037	1379.5912	1441.7676	1451.3905	1483.0898	1896.9028	2362.1495	3044.6426	3062.6482	3088.4616	3090.0862	3120.7355	3150.8955	3776.5791
OC1(CC#N)CCC1=O	O[C@@]1(CC#N)CCC1=O	
InChI=1S/C6H7NO2/c7-4-3-6(9)2-1-5(6)8/h9H,1-3H2	InChI=1S/C6H7NO2/c7-4-3-6(9)2-1-5(6)8/h9H,1-3H2/t6-/m1/s1
