22
gdb 107970	2.68698	1.3379	1.2962	1.9432	86.39	-0.2216	0.086	0.3076	1164.7626	0.193515	-367.132038	-367.123151	-367.122206	-367.165345	34.596	
C	-0.0921827132	 1.570944945	 0.0258034814	-0.377789
C	 0.0282155356	 0.0417541573	-0.0123837663	-0.323588
C	 0.6957258911	-0.4708313824	-1.2661681124	 0.299355
C	 0.2964973723	-0.3227328172	-2.7347264065	-0.242369
N	 1.5705770957	-1.1445440343	-2.8865146023	-0.190096
C	 2.1947551819	-0.3636173976	-1.7043357669	-0.039932
C	 2.6137384651	-1.6575672555	-1.0080114366	-0.308606
C	 1.2140966628	-1.9255330686	-1.5810594476	 0.318395
C	 0.4432967178	-3.211935434	-1.6224957663	-0.519938
H	 0.8937491161	 2.0455755208	-0.0168038261	 0.118516
H	-0.6759348614	 1.9436009359	-0.8224296293	 0.119956
H	-0.5858881046	 1.9060267179	 0.9428351553	 0.113674
H	 0.5908756817	-0.3067191577	 0.8639808403	 0.097645
H	-0.9705427533	-0.4081301217	 0.068613957	 0.099211
H	-0.6059833597	-0.8346190559	-3.087348181	 0.092886
H	 0.3683185013	 0.6700710713	-3.192434489	 0.094746
H	 2.7679729047	 0.5452652793	-1.8975388529	 0.075421
H	 3.4342272172	-2.2101335157	-1.4753726235	 0.10232
H	 2.7127060579	-1.6341421853	 0.0804647441	 0.093796
H	 0.2236314675	-3.5636045562	-0.6085534705	 0.121692
H	-0.5074050204	-3.0934268718	-2.1528119647	 0.122871
H	 1.022195044	-3.9875462036	-2.1343775761	 0.131833
76.2344	137.5212	183.7317	201.0437	247.515	268.6396	297.2895	395.6053	451.0324	493.184	601.453	646.3368	702.9263	769.0225	793.1633	861.5628	872.3195	892.4729	916.7662	946.7656	980.6996	985.2174	1009.9705	1021.9744	1050.8546	1102.2461	1126.3985	1136.2055	1164.6725	1172.0334	1192.599	1215.1394	1245.9217	1262.4159	1312.8639	1319.9233	1322.2899	1375.8479	1407.9461	1410.6412	1477.1959	1482.5503	1485.7225	1492.8625	1500.7117	1506.0987	1521.8989	3011.5119	3028.1423	3031.9002	3035.0385	3042.9645	3051.0702	3083.5943	3095.2948	3098.985	3102.9147	3103.3966	3106.9632	3114.1895
CCC12CN3C1CC23C	CC[C@@]12CN3[C@@H]1C[C@@]23C	
InChI=1S/C8H13N/c1-3-8-5-9-6(8)4-7(8,9)2/h6H,3-5H2,1-2H3	InChI=1S/C8H13N/c1-3-8-5-9-6(8)4-7(8,9)2/h6H,3-5H2,1-2H3/t6-,7+,8-/m1/s1
