18
gdb 86092	3.00351	1.20293	0.97597	4.0224	78.93	-0.2547	0.005	0.2597	1237.1343	0.147448	-401.981838	-401.97301	-401.972066	-402.015343	32.919	
C	-0.0284766502	 1.504552854	 0.0242594906	-0.495138
C	 0.0314626852	 0.0118484636	-0.0213068118	 0.330488
C	-0.0357288774	-0.7640517211	-1.103340621	-0.170554
C	-0.0026443974	-2.2370530242	-0.7427627244	-0.209452
C	 0.8366520535	-3.0702808977	-1.6011098772	 0.258941
N	 1.5163908325	-3.7512173407	-2.2427741773	-0.333058
C	 0.5156389151	-2.2258935882	 0.7441890759	 0.106758
O	 1.9202611908	-2.3293877341	 0.8222298142	-0.426547
C	 0.1456912467	-0.8166174371	 1.240746814	-0.309889
H	 0.8746413148	 1.9163886597	 0.4911561798	 0.137019
H	-0.1262881154	 1.9371596055	-0.9745573485	 0.129781
H	-0.8767050795	 1.8468517813	 0.6305072555	 0.129882
H	-0.1399834951	-0.4237385333	-2.1262877903	 0.109966
H	-1.0161264996	-2.6637362108	-0.7733887844	 0.128645
H	 0.0295196165	-3.0223403966	 1.3232195649	 0.077112
H	 2.1998569707	-3.141981581	 0.3839019402	 0.297931
H	 0.916898969	-0.4540874552	 1.9280970298	 0.128339
H	-0.8040200203	-0.8206814642	 1.7923668	 0.109775
89.3369	122.0825	140.0038	185.4851	274.8202	314.707	360.5585	384.9871	414.5836	442.5166	499.1761	575.6197	627.8078	777.6736	826.4406	846.8877	882.7327	905.978	975.3518	1002.1235	1022.8702	1040.7982	1061.024	1104.9604	1174.4049	1204.2915	1240.1959	1252.188	1281.2848	1313.959	1337.8228	1369.266	1415.3225	1422.2821	1470.3751	1479.2908	1486.551	1722.37	2350.5282	2995.9359	3011.0086	3021.6941	3027.9381	3070.3214	3080.1617	3117.5432	3208.5518	3790.3239
CC1=CC(C#N)C(O)C1	CC1=C[C@@H](C#N)[C@@H](O)C1	
InChI=1S/C7H9NO/c1-5-2-6(4-8)7(9)3-5/h2,6-7,9H,3H2,1H3	InChI=1S/C7H9NO/c1-5-2-6(4-8)7(9)3-5/h2,6-7,9H,3H2,1H3/t6-,7-/m0/s1
