18
gdb 73420	2.61398	2.30364	1.60206	1.2453	72.78	-0.2297	0.0639	0.2936	871.0666	0.14989	-401.889555	-401.882879	-401.881934	-401.920133	28.125	
O	-0.0631184485	 1.3393095689	 0.0508551052	-0.497588
C	 0.0170456498	-0.0620537557	 0.0423898429	 0.426373
C	 0.8425977846	-0.7128332408	 1.1590828626	-0.288351
C	 0.3115399135	-2.1766109043	 1.1885068369	-0.229733
C	-0.8186572596	-2.1757876453	 0.1562543843	 0.032873
C	-1.3844217525	-0.7498944488	 0.0008387338	-0.141652
C	-1.2237840674	-0.9377904782	-1.5411372703	-0.050863
C	 0.220623614	-0.6895429458	-1.350735769	-0.121965
N	-0.3188660139	-2.0944427185	-1.2742598046	-0.158898
H	 0.808328711	 1.6921148223	-0.159051043	 0.278462
H	 1.918304492	-0.6544504479	 0.9607938055	 0.093883
H	 0.6532230165	-0.1913258459	 2.1029696973	 0.104886
H	 1.0743735673	-2.9122184471	 0.9167233807	 0.113262
H	-0.0640803943	-2.4471581964	 2.1801635071	 0.102966
H	-1.5335869144	-2.9959488793	 0.2357613761	 0.07513
H	-2.2204187151	-0.3385340764	 0.5620429273	 0.075825
H	-1.8796220961	-0.8681952146	-2.3975068496	 0.098165
H	 1.0071147231	-0.503909496	-2.0733306131	 0.087227
174.8437	250.2871	308.4693	333.045	388.7695	462.5947	576.1524	666.6627	692.8949	748.6885	784.1377	802.1064	828.3558	845.4993	893.7123	917.0268	936.3162	943.0632	968.7648	1007.1215	1024.701	1030.9096	1085.4939	1106.1509	1137.6575	1158.1486	1179.5196	1197.9111	1218.3073	1235.5567	1242.1824	1283.91	1296.7482	1315.0128	1326.5405	1345.4125	1392.4567	1475.4176	1499.0705	3039.3523	3053.7381	3077.5513	3099.6634	3103.6213	3143.8436	3177.8194	3216.1903	3802.6005
OC12CCC3C1C1C2N31	O[C@@]12CC[C@H]3[C@@H]1[C@H]1[C@@H]2N31	
InChI=1S/C7H9NO/c9-7-2-1-3-4(7)5-6(7)8(3)5/h3-6,9H,1-2H2	InChI=1S/C7H9NO/c9-7-2-1-3-4(7)5-6(7)8(3)5/h3-6,9H,1-2H2/t3-,4+,5-,6-,7-,8?/m0/s1
