18
gdb 22726	3.93128	0.92024	0.82071	1.447	77.61	-0.2324	0.0121	0.2445	1392.247	0.146458	-439.00645	-438.997561	-438.996616	-439.040261	33.423	
O	 0.187385788	 1.328833722	 0.1465791508	-0.410368
C	 0.0462617452	-0.0609442254	-0.1176089728	-0.173814
C	-1.385587804	-0.5044041194	-0.0995311578	 0.326151
C	-2.0999642639	-0.9438236447	 1.1435722965	-0.335377
C	-1.9579417405	-1.9416809112	 0.0072310765	-0.203392
C	-2.919991057	-1.5970449133	-1.0719405002	 0.453794
C	-2.4279156816	-0.1576522121	-1.1872512512	-0.383695
N	-3.7065542773	-2.344438094	-1.7258095964	-0.26801
O	-4.376609875	-1.6087679094	-2.7255636797	-0.395099
H	-0.2199495988	 1.5020797136	 1.0019547452	 0.282918
H	 0.4812390792	-0.21222873	-1.1116087099	 0.115122
H	 0.6304399344	-0.6697803704	 0.5917348993	 0.087523
H	-1.4672177181	-1.16116968	 1.9998051751	 0.11774
H	-3.0773972354	-0.5436011471	 1.3993781869	 0.120666
H	-1.4483257075	-2.887691055	 0.1391379081	 0.106537
H	-3.137038598	 0.6426313585	-0.9582458442	 0.119436
H	-1.9885242272	 0.0323431738	-2.1710106702	 0.133973
H	-4.9135126126	-2.287669326	-3.1473979561	 0.305897
72.3181	93.32	163.5695	221.1524	291.4831	310.5758	356.2311	378.1719	393.8074	434.5774	496.0413	566.3818	669.777	730.548	822.9155	856.0384	914.0103	928.7988	956.9363	985.2317	999.2409	1000.4069	1050.0426	1083.3849	1086.4006	1108.328	1154.875	1200.2644	1221.8878	1257.2581	1295.4595	1363.2308	1392.2313	1412.9692	1427.3883	1466.5266	1492.8563	1504.6017	1787.8923	2971.5645	3057.8481	3067.5157	3106.5583	3110.5424	3193.8377	3201.9432	3808.8388	3821.842
OCC12CC1C(C2)=NO	OC[C@]12C[C@H]1C(=NO)C2	
InChI=1S/C6H9NO2/c8-3-6-1-4(6)5(2-6)7-9/h4,8-9H,1-3H2	InChI=1S/C6H9NO2/c8-3-6-1-4(6)5(2-6)7-9/h4,8-9H,1-3H2/t4-,6+/m0/s1
