23
gdb 108580	2.43089	1.33557	1.1637	1.5667	85.21	-0.2418	0.0811	0.3229	1229.4306	0.206262	-388.292771	-388.283427	-388.282482	-388.326597	35.67	
C	 0.1897598796	 1.5059664962	 0.1742676524	-0.377463
C	-0.0972992446	 0.0294739833	-0.1318886452	-0.280401
C	 0.646849978	-0.4898385999	-1.3433637583	 0.323093
C	 0.2435674663	 0.0405134778	-2.7137979787	-0.142435
O	 0.6191114377	-0.9420871316	-3.6749813238	-0.256907
C	 0.6652630483	-2.2201527068	-3.0428328701	-0.095442
C	 0.9381901978	-1.959567315	-1.5751634005	-0.148178
C	 2.064392034	-1.012977266	-1.2137015813	-0.048874
C	 3.2146447532	-0.6594263623	-2.136077195	-0.431677
H	 1.2587000104	 1.670222024	 0.345994401	 0.118906
H	-0.116152404	 2.1540588685	-0.6539473628	 0.119114
H	-0.3498569902	 1.8353450066	 1.0675943806	 0.111931
H	 0.171264088	-0.5797459724	 0.7395962549	 0.095011
H	-1.1771688418	-0.1089008941	-0.2809777446	 0.094152
H	-0.8458826391	 0.2142693898	-2.730125815	 0.087387
H	 0.7377551477	 0.974896974	-3.0030010653	 0.105185
H	-0.2919637502	-2.7542816563	-3.1573688184	 0.091735
H	 1.4408677663	-2.8024635529	-3.5535539224	 0.105646
H	 0.6261696214	-2.7127623457	-0.859132767	 0.081936
H	 2.372535077	-1.1129075018	-0.173858537	 0.078057
H	 2.8921957824	-0.5690165948	-3.1745792164	 0.145043
H	 3.6717069037	 0.2903152708	-1.8363596722	 0.111864
H	 3.9953618482	-1.4269765213	-2.0880642351	 0.112318
79.2241	141.9436	185.9749	209.4544	213.967	230.0748	245.6602	313.0111	353.9912	459.38	504.592	592.6186	690.4918	732.1114	780.5657	814.0234	865.0572	928.5748	934.6098	973.7041	997.5503	1009.6187	1023.3785	1064.9198	1077.8584	1096.343	1109.4504	1126.9917	1138.2165	1165.5895	1222.2774	1242.1173	1253.859	1261.6139	1328.3075	1355.6407	1364.9955	1367.8263	1381.5506	1409.6152	1417.341	1465.8472	1482.3999	1499.3354	1501.2625	1506.529	1508.14	1519.4127	1525.6496	2957.9095	2972.4233	3010.0816	3031.4717	3033.4389	3048.906	3052.2565	3055.7667	3083.9748	3101.851	3105.2513	3109.5238	3139.7993	3163.0415
CCC12COCC1C2C	CC[C@]12COC[C@H]1[C@H]2C	
InChI=1S/C8H14O/c1-3-8-5-9-4-7(8)6(8)2/h6-7H,3-5H2,1-2H3	InChI=1S/C8H14O/c1-3-8-5-9-4-7(8)6(8)2/h6-7H,3-5H2,1-2H3/t6-,7+,8-/m1/s1
