17
gdb 30145	3.92004	1.12597	1.05222	1.4648	75.25	-0.219	-0.0027	0.2163	1173.3822	0.137318	-418.002111	-417.994321	-417.993377	-418.034905	29.051	
C	 0.3152513298	 1.5353501701	-0.4838814664	-0.322895
N	 0.074178574	 0.1443985041	-0.112573263	-0.092781
C	 1.2263519265	-0.7307801553	 0.0257937541	-0.254016
C	 0.4477087637	-0.3252021549	 1.2347013545	-0.115057
C	 1.0455986147	 0.5429226332	 2.266722373	 0.274844
C	 0.6051449831	 0.749707968	 3.5349586806	-0.12617
O	 1.466314707	 1.60995632	 4.1585506323	-0.137778
C	 2.3937606494	 1.8877405688	 3.2181970047	 0.071166
N	 2.2112078439	 1.2937785211	 2.086275005	-0.30682
H	 1.260357614	 1.9477698005	-0.108678735	 0.134043
H	 0.3138722849	 1.5984887635	-1.5767686873	 0.120371
H	-0.5087404822	 2.1517512825	-0.1098599602	 0.11769
H	 1.1187331548	-1.7350031604	-0.377239032	 0.112059
H	 2.2179465656	-0.2928544305	-0.0722889037	 0.130198
H	-0.2762277799	-1.0271614851	 1.6436996096	 0.088346
H	-0.2264566449	 0.393209798	 4.1174389528	 0.152048
H	 3.1855654858	 2.5640095265	 3.4999047712	 0.154751
65.2328	134.6712	181.0781	209.6839	293.9519	360.313	438.8806	482.8947	638.4355	672.1803	721.336	748.2828	797.5125	846.767	874.8109	935.5286	966.7909	992.8471	1039.7236	1092.1448	1099.7322	1125.8515	1132.0062	1138.1826	1171.463	1211.6231	1235.518	1295.5344	1323.3615	1346.038	1399.4404	1449.7712	1490.5936	1506.0083	1507.6943	1559.164	1621.3597	3014.7526	3084.0322	3094.1805	3099.7774	3122.9127	3182.5773	3275.4275	3295.4904
CN1CC1C1=COC=N1	CN1C[C@H]1c1cocn1	
InChI=1S/C6H8N2O/c1-8-2-6(8)5-3-9-4-7-5/h3-4,6H,2H2,1H3	InChI=1S/C6H8N2O/c1-8-2-6(8)5-3-9-4-7-5/h3-4,6H,2H2,1H3/t6-,8?/m0/s1
