18
gdb 111397	2.24378	1.69277	1.13679	1.5933	72.12	-0.2454	-0.0356	0.2098	1098.4656	0.146089	-439.026025	-439.017354	-439.01641	-439.059655	31.508	
C	-0.0189606424	 1.3337262014	 0.2809292404	-0.25507
O	-0.0428857366	-0.0069053425	-0.1908264678	-0.24308
C	-1.2683612228	-0.6447143792	-0.0219503442	 0.12437
C	-1.3693597478	-1.9979542833	-0.7039579764	-0.058217
C	-0.4633082769	-2.9715319729	-0.0725681042	-0.247428
N	-1.7664522186	-2.7171898358	 0.5793457392	-0.147247
C	-1.5972867486	-1.4187574371	 1.3159793422	-0.126216
C	-0.6085245668	-1.4470234822	 2.4551010847	 0.156373
O	-0.1456319786	-0.4652292388	 2.9792070139	-0.245981
H	 0.9723146955	 1.7303742092	 0.0520653362	 0.129855
H	-0.7748959297	 1.9452451537	-0.2343644466	 0.103729
H	-0.1872857203	 1.3772054544	 1.3622884326	 0.142368
H	-2.098949668	 0.0231746082	-0.2866301947	 0.08135
H	-1.8766559382	-2.1864353634	-1.6432203809	 0.104301
H	-0.4048947862	-3.9603467072	-0.5147038722	 0.130367
H	 0.4560767485	-2.6243909653	 0.3929498345	 0.134488
H	-2.5640471111	-1.1067032282	 1.7263035248	 0.118082
H	-0.3493315815	-2.4712130312	 2.8076555186	 0.097957
79.8193	138.454	144.9858	158.9067	199.5881	249.4873	311.0721	411.1988	452.6524	560.0331	620.0945	716.7719	778.1695	797.8834	832.1896	937.1678	987.1711	1000.4557	1027.2875	1059.8822	1074.2309	1089.9917	1108.4194	1144.72	1155.8757	1187.1361	1208.9809	1213.068	1243.7335	1280.346	1324.5377	1364.869	1393.8063	1411.8925	1481.9166	1489.8165	1503.1445	1515.443	1819.8275	2877.4567	2991.3213	3013.3135	3054.6217	3078.4365	3115.0187	3130.1522	3179.8719	3210.3414
COC1C2CN2C1C=O	CO[C@H]1[C@H]2CN2[C@H]1C=O	
InChI=1S/C6H9NO2/c1-9-6-4-2-7(4)5(6)3-8/h3-6H,2H2,1H3	InChI=1S/C6H9NO2/c1-9-6-4-2-7(4)5(6)3-8/h3-6H,2H2,1H3/t4-,5+,6+,7?/m1/s1
