23
gdb 93091	2.03321	1.45548	0.90212	1.1568	87.26	-0.2373	0.0188	0.2561	1346.6268	0.206771	-388.30712	-388.2978	-388.296856	-388.340817	36.43	
C	-0.0053633141	 1.5782701801	 0.0716316785	-0.397947
C	-0.0142806184	 0.0436899844	 0.0136576922	 0.023629
C	 0.5348144919	-0.4351338178	-1.350271066	-0.241244
C	 0.2825429873	-1.8856246489	-1.6853433694	-0.060525
C	 0.6407526879	-2.9383523698	-0.9504909269	-0.062364
C	 1.3608355902	-2.8873371491	 0.374328413	-0.270996
C	 0.6739793205	-2.0281794528	 1.4533934767	 0.109944
O	 1.2973428907	-2.2351850543	 2.7201070293	-0.439441
C	 0.7642409169	-0.521424343	 1.2117297835	-0.16302
H	 1.0157268313	 1.9684464439	-0.0169379751	 0.113226
H	-0.5975276657	 2.0104673842	-0.741665226	 0.108085
H	-0.4174744154	 1.9416464583	 1.0185644487	 0.111721
H	-1.0573229985	-0.2936791704	 0.0889624112	 0.072382
H	 0.0962380578	 0.1875036451	-2.1373133688	 0.093593
H	 1.6161215007	-0.2283176109	-1.3757827023	 0.104704
H	-0.2340703657	-2.0748568464	-2.623807904	 0.0841
H	 0.3953405707	-3.9294512351	-1.3247893136	 0.083814
H	 1.4552430806	-3.907839392	 0.7659752394	 0.081932
H	 2.3881652307	-2.5160511027	 0.2498683844	 0.113372
H	-0.3888919966	-2.3180014702	 1.5025981272	 0.06271
H	 1.2632072994	-3.176553168	 2.9174745201	 0.277183
H	 1.8259161845	-0.2518629375	 1.1188698909	 0.093756
H	 0.4073594533	-0.0379572271	 2.1283721571	 0.101388
96.6137	117.2409	181.6369	226.0988	278.3756	290.6886	297.0484	348.0825	387.6268	430.3603	468.0919	478.7548	504.3368	691.4854	703.84	835.5858	859.8192	893.7639	914.8196	940.708	975.5018	995.8537	1013.8385	1030.8656	1057.8145	1078.5007	1105.0952	1110.0139	1157.1778	1180.8482	1222.9041	1264.7938	1270.2034	1299.0556	1315.9926	1326.5975	1331.8295	1370.8967	1380.0495	1398.6546	1412.9615	1418.3812	1443.4992	1475.4844	1479.0073	1495.8501	1499.2359	1501.5445	1725.1679	2959.1709	2988.5387	3004.3288	3008.3778	3017.6007	3026.2573	3045.4563	3059.4545	3064.9163	3091.5294	3101.0346	3136.1305	3161.0029	3815.792
CC1CC=CCC(O)C1	C[C@H]1CC=CC[C@@H](O)C1	
InChI=1S/C8H14O/c1-7-4-2-3-5-8(9)6-7/h2-3,7-9H,4-6H2,1H3	InChI=1S/C8H14O/c1-7-4-2-3-5-8(9)6-7/h2-3,7-9H,4-6H2,1H3/t7-,8+/m0/s1
