21
gdb 73551	2.54768	1.68428	1.35739	1.3783	83.96	-0.2359	0.0172	0.2531	1057.4501	0.18408	-387.112391	-387.104256	-387.103312	-387.144808	32.313	
C	-0.0350105575	 1.6302052003	-0.0881745925	-0.427044
C	-0.0002036666	 0.0996431458	-0.0087514227	 0.376293
C	-1.4089333026	-0.5080985773	 0.183133103	-0.270435
C	-1.5177740146	-0.7175279944	 1.7215453666	-0.253246
C	-0.0670649446	-0.8940585577	 2.1353517292	-0.233369
C	 0.7491958492	-0.4481713305	 1.1859999406	 0.291811
C	 2.1748108485	-0.6103158414	 0.7790957858	-0.358984
C	 1.9510239736	-1.0166476478	-0.7029036838	-0.070541
O	 0.7390517054	-0.3905694612	-1.1427367293	-0.324903
H	 0.9713366072	 2.0544200284	-0.0230985882	 0.108859
H	-0.4704920886	 1.9383072237	-1.0438886671	 0.122877
H	-0.6409598935	 2.0517731366	 0.7207682358	 0.112318
H	-2.2094809349	 0.1145656986	-0.2263133594	 0.09083
H	-1.4367168803	-1.4763040596	-0.3252770375	 0.109061
H	-1.9844754636	 0.1467812326	 2.2148915488	 0.106606
H	-2.131353995	-1.5861627345	 1.9849032242	 0.102947
H	 0.2301514907	-1.366442589	 3.0653516802	 0.091409
H	 2.7301355121	 0.3337698968	 0.8366083745	 0.114382
H	 2.7245045179	-1.365104995	 1.3452763815	 0.112016
H	 2.7651517059	-0.6992024859	-1.3628422854	 0.102671
H	 1.8549397312	-2.1093280786	-0.7791613545	 0.096443
93.2131	137.383	238.4956	239.6954	274.2433	338.7606	372.085	443.2903	556.5024	614.9422	670.2252	689.4719	732.5153	820.0134	849.9265	873.9957	894.5494	918.4559	935.9391	944.9921	968.0915	997.0872	1038.077	1068.9808	1097.844	1105.8473	1178.1693	1190.4291	1198.2652	1221.2774	1232.1057	1251.3181	1285.3169	1298.8419	1322.0896	1351.7123	1381.5534	1397.7449	1477.2432	1482.6614	1484.7154	1492.7365	1498.7925	1522.9098	1748.1765	2996.5813	3008.7132	3030.0328	3033.3383	3052.6703	3062.2457	3066.6015	3104.2524	3107.025	3109.4299	3110.9037	3189.4755
CC12CCC=C1CCO2	C[C@]12CC[CH][C]1CCO2	
InChI=1S/C8H12O/c1-8-5-2-3-7(8)4-6-9-8/h3H,2,4-6H2,1H3	InChI=1S/C8H12O/c1-8-5-2-3-7(8)4-6-9-8/h3H,2,4-6H2,1H3/t8-/m0/s1
