18
gdb 41271	3.48337	1.88163	1.50261	2.0877	74.15	-0.212	0.0714	0.2834	893.9481	0.150264	-401.848256	-401.842027	-401.841083	-401.878479	26.468	
C	 0.0065896729	 1.4497766865	 0.1947395707	-0.140877
O	 1.394722296	 1.621125925	-0.2348165887	-0.341133
C	 1.3567373052	 0.3148171059	-0.7746042772	 0.468007
C	 2.4146444191	-0.7340393975	-1.0767300375	-0.27371
N	 1.4837815926	-1.3370621662	-2.110126779	-0.148122
C	 0.3078278713	-2.059701843	-1.5013994714	-0.16589
C	-0.4946321518	-0.7495278695	-1.2855524664	-0.084791
C	 0.0723197912	-0.086982879	-0.0165742503	-0.11009
C	 0.6477054336	-0.0677135704	-2.1136711144	-0.082962
H	-0.1339106267	 1.7893147528	 1.2242620398	 0.116288
H	-0.6844723396	 1.9859253122	-0.4673421508	 0.10817
H	 3.3027843282	-0.3481921304	-1.5883178186	 0.119655
H	 2.7255153895	-1.4026103709	-0.2669461697	 0.104663
H	-0.1356544819	-2.7138387796	-2.2584701163	 0.111524
H	 0.5387678027	-2.6587358366	-0.6124846905	 0.099046
H	-1.5627454215	-0.730603791	-1.507507559	 0.069092
H	 0.1013358089	-0.6661919532	 0.909469377	 0.074778
H	 0.5746947303	 0.5289906151	-3.0216576078	 0.076353
207.9504	268.4569	353.3255	376.5182	420.8557	514.1326	620.9751	702.8519	785.6611	796.3777	822.6673	862.7467	880.0185	899.8849	928.7382	953.4592	965.4115	987.1648	993.955	1027.0036	1084.1284	1099.1163	1118.3317	1146.4942	1169.6086	1176.2441	1191.189	1195.2763	1205.2135	1217.9027	1248.9497	1278.197	1300.9217	1320.2701	1340.0166	1349.7291	1488.9574	1500.4474	1511.0563	3026.1803	3026.7338	3036.3795	3074.2768	3080.362	3088.0686	3093.5801	3097.9675	3124.643
C1OC23CN4CC(C12)C34	C1O[C@@]23CN4C[C@@H]([C@H]12)[C@@H]34	
InChI=1S/C7H9NO/c1-4-5-2-9-7(5)3-8(1)6(4)7/h4-6H,1-3H2	InChI=1S/C7H9NO/c1-4-5-2-9-7(5)3-8(1)6(4)7/h4-6H,1-3H2/t4-,5-,6-,7-/m0/s1
