19
gdb 116873	4.16312	0.56265	0.51667	1.0268	88.51	-0.2478	0.0289	0.2767	2154.2476	0.155094	-385.809608	-385.798606	-385.797661	-385.847875	37.677	
C	-0.3098918652	 1.4895059829	 0.4898366513	-0.218529
O	-0.2581476926	 0.0852945094	 0.5863377814	-0.227824
C	-0.959727839	-0.5444685445	-0.468470292	-0.202014
C	-0.8751608476	-1.9926375103	-0.3344498948	-0.02428
C	-0.8118809754	-3.1907902956	-0.2517594285	 0.198599
C	-0.7484433478	-4.6506012333	-0.1191073367	-0.327429
C	-2.0793213111	-5.2309073804	 0.4221963087	-0.377901
C	-0.3695675859	-5.2894643101	-1.3849119601	 0.344998
C	-0.0769755981	-5.837370194	-2.4128575413	-0.468728
H	 0.250705383	 1.892184917	 1.3362495568	 0.131204
H	 0.1454658742	 1.8537163087	-0.4451180525	 0.105199
H	-1.3444025858	 1.8663217296	 0.5356438409	 0.104324
H	-2.0182551519	-0.22933061	-0.4669693904	 0.113434
H	-0.5440058746	-0.2372369441	-1.4443201607	 0.11673
H	 0.0361718799	-4.8800780588	 0.6167537354	 0.14097
H	-1.9902123392	-6.3123821144	 0.5513792654	 0.127274
H	-2.3198900172	-4.7721088473	 1.3842503938	 0.128631
H	-2.8932085877	-5.0275541837	-0.2771889806	 0.136621
H	 0.1909049419	-6.3116180712	-3.3243620362	 0.198721
14.9238	64.6058	76.7488	109.256	160.8471	203.5334	230.5607	237.2496	294.5592	326.6243	351.0183	463.3111	497.6326	558.4067	574.1878	631.1629	645.0845	762.8191	876.1928	976.1417	1001.0278	1028.4131	1071.1514	1090.2324	1144.8622	1182.3345	1187.6273	1220.4459	1253.1666	1298.1859	1321.763	1403.1031	1410.6953	1477.795	1484.4349	1489.364	1495.6569	1496.7964	1516.7285	2241.6053	2377.7908	2943.0811	2960.4765	2968.4059	2999.8305	3010.8509	3051.5439	3120.5137	3132.9408	3137.8288	3505.0751
COCC#CC(C)C#C	COCC#C[C@@H](C)C#C	
InChI=1S/C8H10O/c1-4-8(2)6-5-7-9-3/h1,8H,7H2,2-3H3	InChI=1S/C8H10O/c1-4-8(2)6-5-7-9-3/h1,8H,7H2,2-3H3/t8-/m0/s1
