19
gdb 54585	2.64598	1.56716	1.18225	2.3604	75.38	-0.2347	-0.0232	0.2115	1095.942	0.157932	-423.014812	-423.006088	-423.005144	-423.048931	32.198	
C	 0.8154339081	 0.8490701591	 0.4747061005	-0.479902
C	-0.4151011374	 0.3162050433	-0.225166826	 0.302817
O	-1.5434336634	 0.5683240727	 0.1392745349	-0.312118
C	-0.1947764761	-0.5941682202	-1.4127531496	 0.348108
C	-1.2609572664	-0.6231855084	-2.5351930841	-0.271081
C	-1.2954492917	-2.1809331903	-2.4699257223	-0.227925
C	-0.2514041064	-2.1639133013	-1.3246665096	-0.124713
C	 1.2135027532	-2.085647809	-1.782574805	-0.09096
O	 1.1628283993	-0.6426764879	-1.8992674769	-0.332138
H	 1.4447873005	 0.0230212184	 0.8233755229	 0.138738
H	 1.4292152401	 1.4192745654	-0.2298105896	 0.154546
H	 0.5157372964	 1.4738030952	 1.3166977231	 0.135099
H	-2.1923656656	-0.152063457	-2.217998468	 0.13181
H	-0.9150911462	-0.1783440251	-3.4700729881	 0.110653
H	-2.2653565695	-2.578878064	-2.1655992777	 0.114099
H	-0.974181626	-2.7093156804	-3.3716312198	 0.103322
H	-0.4737810166	-2.7115001383	-0.4100468253	 0.089438
H	 1.9513077618	-2.3953625341	-1.0317253945	 0.104858
H	 1.450231236	-2.571249408	-2.7373984849	 0.10535
44.2658	87.9883	139.399	168.1347	230.295	329.59	352.8828	406.4103	484.3949	576.2061	614.5466	673.814	742.408	813.8305	860.0027	909.2821	932.534	936.4103	964.9008	996.6895	1014.5966	1038.328	1070.15	1104.6819	1130.1008	1150.3618	1171.0858	1188.9946	1236.7988	1254.3884	1273.1116	1301.2712	1318.7326	1350.2477	1382.5803	1451.7443	1458.8321	1465.7284	1485.3168	1522.3596	1795.226	3010.6308	3043.7035	3055.13	3062.6299	3079.2344	3104.633	3111.7547	3125.3022	3146.0602	3156.5818
CC(=O)C12CCC1CO2	CC(=O)[C@]12CC[C@H]1CO2	
InChI=1S/C7H10O2/c1-5(8)7-3-2-6(7)4-9-7/h6H,2-4H2,1H3	InChI=1S/C7H10O2/c1-5(8)7-3-2-6(7)4-9-7/h6H,2-4H2,1H3/t6-,7+/m0/s1
