16
gdb 11253	4.81053	1.39007	1.22576	3.4247	70.91	-0.2409	-0.0066	0.2344	999.3772	0.131693	-342.798404	-342.790832	-342.789888	-342.830443	28.045	
C	 0.1330951671	 1.6509908012	-0.0194320981	-0.376784
C	-0.0017893573	 0.1282239987	 0.0763526864	-0.002115
N	 0.6089830722	-0.5373836263	-1.0937554586	-0.315737
C	 1.3129502092	-1.7521503194	-0.6628744029	-0.146534
C	 1.4927932996	-1.522335244	 0.8263081855	-0.07577
C	 0.7567261428	-0.4918197258	 1.2223608001	-0.04991
C	 0.5570498499	-2.9994605037	-0.923409605	 0.24912
N	-0.050589116	-3.9559629981	-1.154239517	-0.326061
H	 1.1863842376	 1.9340561873	-0.0962240417	 0.125433
H	-0.3878802762	 2.027413041	-0.9050937443	 0.118466
H	-0.3039863745	 2.1359522876	 0.8599913897	 0.112609
H	-1.0737650254	-0.1170813883	 0.1810335729	 0.08701
H	-0.0513886924	-0.714779824	-1.8392107339	 0.235543
H	 2.2755954667	-1.8512279491	-1.1845890379	 0.128875
H	 2.1203237549	-2.1603390633	 1.4336742142	 0.122406
H	 0.6818864819	-0.1163807139	 2.2355686605	 0.113449
70.7791	141.5311	207.9185	242.1311	300.669	360.5661	482.7047	491.4278	577.939	645.4067	727.3954	775.1699	813.5326	872.9604	917.539	944.0349	967.7541	998.7486	1031.9484	1094.9433	1119.9958	1144.5418	1146.8819	1248.3124	1328.6713	1335.6906	1345.5997	1374.0714	1404.2884	1444.2117	1492.6681	1496.531	1693.4026	2342.3619	2937.0936	2999.269	3036.4017	3106.2918	3122.6633	3208.9041	3237.7002	3575.8095
CC1NC(C=C1)C#N	C[C@H]1N[C@@H](C=C1)C#N	
InChI=1S/C6H8N2/c1-5-2-3-6(4-7)8-5/h2-3,5-6,8H,1H3	InChI=1S/C6H8N2/c1-5-2-3-6(4-7)8-5/h2-3,5-6,8H,1H3/t5-,6+/m1/s1
