18
gdb 68757	2.51659	1.71296	1.24293	3.4655	72.4	-0.2419	0.0211	0.2631	1038.7941	0.147788	-439.121895	-439.113341	-439.112397	-439.154572	32.863	
C	-0.0126169215	 1.5330507624	 0.0019075898	-0.485456
C	-0.0165318387	 0.0268474607	 0.0455755013	 0.244077
C	 1.2308812469	-0.7623507859	-0.303966906	-0.387885
C	 0.6962795218	-0.778981578	 1.1098347104	 0.309648
O	 1.4159750224	-0.2529350345	 2.1655321967	-0.478878
C	-0.2024000703	-1.9321029253	 1.4548003468	 0.363132
O	-0.0369316778	-2.6726024593	 2.4053110204	-0.405081
N	-1.2195986682	-1.9423589998	 0.5450269904	-0.332515
C	-1.3266725232	-0.7158235483	-0.241189161	-0.229333
H	 0.9431883071	 1.9247722856	 0.3596715186	 0.139466
H	-0.1714602622	 1.9043363534	-1.0170404931	 0.120207
H	-0.8007172062	 1.9487388241	 0.6393553443	 0.122431
H	 1.1604818085	-1.6515062521	-0.9241958854	 0.115604
H	 2.1365165353	-0.1784037001	-0.4329045793	 0.125211
H	 1.3971222606	-0.9428609722	 2.8464926233	 0.296796
H	-1.9746294389	-2.6038267533	 0.6308354608	 0.255244
H	-2.1896004746	-0.1164453425	 0.0803475716	 0.111908
H	-1.447919381	-0.9380458449	-1.3086189494	 0.115425
113.7098	177.043	184.8102	198.1831	279.4555	327.2875	342.8067	377.512	470.6773	496.2719	505.1353	565.1478	677.9687	716.405	724.898	814.093	866.7621	906.1558	950.8594	979.5879	1025.2883	1050.4556	1055.918	1109.1457	1123.8052	1209.8338	1222.0754	1252.4388	1297.2281	1348.634	1385.5066	1417.5881	1441.2203	1449.5486	1487.0489	1495.3983	1508.6628	1526.7922	1817.1307	3005.0164	3028.8201	3044.884	3087.679	3115.2321	3117.25	3211.8645	3644.51	3717.629
CC12CC1(O)C(=O)NC2	C[C@@]12C[C@]1(O)C(=O)NC2	
InChI=1S/C6H9NO2/c1-5-2-6(5,9)4(8)7-3-5/h9H,2-3H2,1H3,(H,7,8)	InChI=1S/C6H9NO2/c1-5-2-6(5,9)4(8)7-3-5/h9H,2-3H2,1H3,(H,7,8)/t5-,6-/m0/s1
