19
gdb 118605	1.81759	1.0545	0.69604	3.1684	79.65	-0.248	-0.0258	0.2222	1605.88	0.15443	-422.991648	-422.980932	-422.979988	-423.028847	36.819	
C	-0.1677465577	 1.4770237968	-0.0614198844	-0.386065
C	-0.215450476	-0.0348871906	 0.0695912783	-0.044145
O	 0.7524598586	-0.4265816301	 1.035203032	-0.244931
C	 0.8394940707	-1.825335397	 1.2460670153	-0.09113
C	 2.0956514981	-2.0627862762	 2.1028115488	-0.289074
C	 3.3709909798	-1.661955943	 1.3874721281	 0.14985
O	 4.4036937135	-2.2770188908	 1.4619945498	-0.24209
C	-0.3576204823	-2.3734784735	 1.896596677	 0.336688
C	-1.3311388334	-2.8212406238	 2.4410440875	-0.446792
H	 0.8252260801	 1.8075453126	-0.3792459051	 0.127165
H	-0.8991684978	 1.8148925068	-0.8014308404	 0.119812
H	-0.398005483	 1.9523525984	 0.8960778502	 0.131309
H	-1.214110632	-0.3695519252	 0.3839485626	 0.107272
H	 0.0063458752	-0.5189571713	-0.8956282471	 0.090412
H	 0.9639953363	-2.3351607707	 0.2741879046	 0.101808
H	 1.9997108001	-1.4418848126	 3.0029964615	 0.145823
H	 2.1704501842	-3.1065912064	 2.4147333578	 0.13523
H	 3.2899520682	-0.73321712	 0.7839603145	 0.095013
H	-2.1930984627	-3.2186927735	 2.9182044088	 0.203846
54.5755	61.4966	83.305	96.6813	130.3126	176.3206	227.035	258.3106	285.509	392.4742	413.1597	445.7539	559.3438	612.0054	634.1502	681.8584	784.99	822.3056	858.584	930.2863	981.4953	1042.2859	1083.1665	1096.5699	1127.7847	1156.0519	1188.8063	1234.5192	1276.1817	1297.1375	1341.128	1366.5872	1403.2973	1418.3677	1434.5894	1442.1492	1484.0632	1500.2166	1527.9377	1831.704	2231.7505	2914.9061	2945.3633	2972.5153	3023.4878	3041.4135	3046.2559	3120.965	3123.615	3123.7318	3500.4585
CCOC(CC=O)C#C	CCO[C@@H](CC=O)C#C	
InChI=1S/C7H10O2/c1-3-7(5-6-8)9-4-2/h1,6-7H,4-5H2,2H3	InChI=1S/C7H10O2/c1-3-7(5-6-8)9-4-2/h1,6-7H,4-5H2,2H3/t7-/m1/s1
