14
gdb 129948	2.44812	1.86597	1.06094	2.0031	70.7	-0.2109	-0.054	0.1569	1039.1999	0.101966	-470.005411	-469.997566	-469.996621	-470.037359	30.334	
N	 0.0461584472	 1.3714747217	 0.1577158984	-0.592453
C	-0.0266918753	-0.0124039201	 0.0653028128	 0.114692
C	-1.1736426853	-0.7438468518	 0.0341722795	 0.037176
O	-1.2278743373	-2.0796315263	-0.0178451063	-0.219496
N	-0.0813252737	-2.8527956179	-0.0167061938	-0.192467
C	 1.0533829743	-2.2078589104	 0.0358327681	 0.305949
N	 2.2171453937	-2.9124144325	 0.0921902211	-0.547328
C	 1.2153182368	-0.7405060023	 0.046132849	 0.312381
O	 2.3287595757	-0.2130810815	 0.021796744	-0.412954
H	 0.978592581	 1.6957359957	-0.0693411014	 0.265529
H	-0.6743549951	 1.8877077422	-0.3249767227	 0.250023
H	-2.1720590541	-0.3204265442	 0.0386559145	 0.137942
H	 2.2019711421	-3.8814503862	-0.179030371	 0.265819
H	 3.0406838899	-2.3667413263	-0.1135810222	 0.275186
113.1621	229.3397	283.9576	304.531	315.1184	337.1086	419.9073	448.878	480.6195	506.6123	544.223	565.042	585.8602	667.8214	698.618	808.866	870.7523	878.8844	938.0062	1056.1452	1146.7074	1172.6539	1234.1463	1345.6572	1422.8271	1486.8903	1579.2548	1623.3584	1625.7576	1667.6332	1712.3538	3197.997	3540.8106	3582.0155	3652.3859	3714.1209
NC1=CON=C(N)C1=O	Nc1conc(N)c1=O	
InChI=1S/C4H5N3O2/c5-2-1-9-7-4(6)3(2)8/h1H,5H2,(H2,6,7)	InChI=1S/C4H5N3O2/c5-2-1-9-7-4(6)3(2)8/h1H,5H2,(H2,6,7)
