20
gdb 94276	2.9395	1.60493	1.2112	1.8068	79.58	-0.2115	0.077	0.2885	1072.0008	0.170881	-403.046587	-403.038619	-403.037675	-403.078888	31.423	
C	-0.2204799609	 1.5149075532	-0.1774314134	-0.335171
N	-0.0910841677	 0.1001949416	 0.0932976807	-0.146676
C	-1.2553399463	-0.6332697182	 0.6226651249	-0.173575
C	-0.2890382055	-1.520761999	 1.4443595916	-0.323017
C	 0.7809048132	-0.4671436714	 1.118864465	 0.442887
C	 2.2971785335	-0.7794964326	 1.0030690485	-0.02309
C	 2.6478329969	 0.7043104991	 1.2561707478	-0.23705
C	 1.5553371025	 0.2773128833	 2.2647795281	-0.037002
O	 2.2931423027	-0.9892283159	 2.4726753949	-0.311024
H	 0.665361519	 1.9040773765	-0.6882714129	 0.126077
H	-1.0719071804	 1.6641945127	-0.8496569733	 0.123216
H	-0.3953399767	 2.1256448844	 0.7272146683	 0.095269
H	-1.9080386835	-0.016345922	 1.2607647163	 0.085073
H	-1.8704828977	-1.1169683986	-0.1438149514	 0.099437
H	-0.5217177105	-1.6618860875	 2.4990374675	 0.116144
H	-0.0907287998	-2.4914260056	 0.9860684587	 0.11271
H	 2.8111950934	-1.5217201909	 0.390850861	 0.089343
H	 3.6310512536	 0.8648095227	 1.7011449617	 0.106411
H	 2.4050215633	 1.4416566886	 0.4899592183	 0.099445
H	 1.1922442409	 0.7924030196	 3.155494178	 0.090593
100.0482	157.8127	202.757	248.2827	274.6293	323.3288	419.1894	442.5238	566.1724	616.1057	719.0599	746.9504	796.4104	818.6287	864.5656	881.6474	916.5111	956.4634	973.5012	1010.1512	1015.4229	1064.0551	1101.9928	1124.0907	1133.9011	1147.1013	1165.2022	1167.994	1188.1287	1192.9501	1208.9056	1230.979	1248.3115	1270.1698	1272.7581	1335.8508	1346.9339	1454.8135	1481.6702	1484.4192	1497.0608	1501.7361	1528.914	2938.1777	2972.7176	3053.8764	3061.1222	3077.9047	3087.3098	3099.3373	3104.6066	3114.6698	3146.9717	3153.4528
CN1CCC11C2CC1O2	CN1CC[C@]21[C@H]1C[C@@H]2O1	
InChI=1S/C7H11NO/c1-8-3-2-7(8)5-4-6(7)9-5/h5-6H,2-4H2,1H3	InChI=1S/C7H11NO/c1-8-3-2-7(8)5-4-6(7)9-5/h5-6H,2-4H2,1H3/t5-,6+,7+
