18
gdb 60953	2.63886	1.17972	0.97441	5.0598	72.72	-0.253	-0.0354	0.2175	1250.2698	0.145715	-439.117403	-439.108134	-439.10719	-439.152195	33.243	
C	-0.0581093496	 1.614896234	 0.0670564818	-0.422094
C	 0.0440270536	 0.0861274106	-0.0012015628	-0.078919
C	 0.91140956	-0.4515000531	 1.13068539	 0.164204
O	 1.5657392815	-1.4599082829	 1.0587445584	-0.248624
C	-1.3456140736	-0.5757964564	 0.0284740088	 0.045352
C	-1.4356004563	-2.1305776261	 0.068531543	-0.420921
C	-2.2571610225	-1.9378354923	 1.3636085297	 0.434651
O	-2.8829080737	-2.6357844675	 2.1108503848	-0.348091
N	-2.0311598731	-0.5719246588	 1.3350520548	-0.33517
H	 0.928149808	 2.0847994117	 0.0044495344	 0.132011
H	-0.6663490464	 2.002187867	-0.7556819533	 0.127507
H	-0.5193424706	 1.9376445789	 1.0075778466	 0.123169
H	 0.5215744368	-0.2220288612	-0.9388645237	 0.109976
H	 0.8998650201	 0.1566431919	 2.0631638903	 0.083568
H	-1.9572526798	-0.1395235006	-0.7712149639	 0.089426
H	-1.9947624507	-2.5892466582	-0.7481739349	 0.132816
H	-0.4826432256	-2.6428518581	 0.2070759622	 0.162043
H	-2.5370981581	 0.1637003111	 1.8084994239	 0.249096
57.948	83.3585	93.8462	200.358	217.4191	236.0668	304.2549	356.4099	428.9523	489.7823	514.2115	569.2434	574.3307	726.6198	788.9623	887.9819	937.4587	948.4464	962.17	1006.8801	1032.5946	1076.6061	1091.3491	1136.6908	1156.3516	1173.3019	1205.9169	1264.1891	1288.5999	1327.636	1369.0988	1383.9045	1408.0557	1433.3225	1461.3492	1496.2948	1501.6755	1827.521	1902.4551	2877.7762	3021.8918	3033.2756	3048.9911	3094.1065	3101.1157	3112.1336	3156.0469	3594.4395
CC(C=O)C1CC(=O)N1	C[C@@H](C=O)[C@H]1CC(=O)N1	
InChI=1S/C6H9NO2/c1-4(3-8)5-2-6(9)7-5/h3-5H,2H2,1H3,(H,7,9)	InChI=1S/C6H9NO2/c1-4(3-8)5-2-6(9)7-5/h3-5H,2H2,1H3,(H,7,9)/t4-,5+/m0/s1
