18
gdb 90051	3.79884	1.3266	1.2265	3.8756	78.57	-0.2269	0.0061	0.233	1066.3814	0.146713	-401.828257	-401.820463	-401.819519	-401.86029	30.762	
C	-0.1735959334	 1.6009217251	-0.0519384881	-0.414287
C	 0.0196808131	 0.0882894858	-0.0494107887	 0.056914
C	 1.007295425	-0.5622206477	-1.0844292054	-0.357223
C	 1.9125590559	-0.8330878409	 0.1277099487	 0.136029
C	 2.675293709	 0.3586353556	 0.8103947045	-0.26647
C	 1.9322497058	-0.342990113	 1.9518073829	-0.129037
N	 0.7355142946	-0.6669713022	 1.1003098578	-0.181616
C	 2.4319592367	-1.7328473375	 1.2864291424	 0.405474
O	 2.8113158971	-2.8141487874	 1.5697587068	-0.297879
H	 0.7344918043	 2.1660086316	-0.2711811157	 0.12529
H	-0.9150726818	 1.865892949	-0.8144145987	 0.12473
H	-0.5620513036	 1.9365348465	 0.9150846039	 0.132717
H	-0.9705730867	-0.370820132	-0.0831168844	 0.104881
H	 0.6012259867	-1.4614155198	-1.5502354457	 0.128682
H	 1.4295024449	 0.0940069068	-1.8476414254	 0.114212
H	 3.7691673668	 0.3295756152	 0.8086325497	 0.108482
H	 2.3081164635	 1.3498891147	 0.5597149575	 0.111522
H	 1.875667182	-0.0951086997	 3.0113496081	 0.09758
115.5656	158.5025	175.3144	270.6684	337.309	375.3349	393.8805	501.0529	574.0034	649.4054	704.8413	727.344	762.8565	782.9553	831.1017	844.7839	864.3221	898.4258	942.0944	973.9654	1012.7971	1055.4945	1082.2597	1095.0619	1131.2224	1148.9925	1180.5506	1198.6297	1216.0566	1234.7118	1253.0069	1297.9272	1378.6142	1408.1058	1474.6907	1487.6741	1490.1791	1513.6546	1937.925	3035.6085	3061.5901	3071.5738	3079.723	3097.7335	3123.671	3125.4904	3139.3423	3183.7485
CC1CC23CC(N12)C3=O	C[C@H]1C[C@@]23C[C@@H](N12)C3=O	
InChI=1S/C7H9NO/c1-4-2-7-3-5(6(7)9)8(4)7/h4-5H,2-3H2,1H3	InChI=1S/C7H9NO/c1-4-2-7-3-5(6(7)9)8(4)7/h4-5H,2-3H2,1H3/t4-,5+,7-/m0/s1
