18
gdb 68274	2.39935	1.50963	1.47501	3.2233	76.82	-0.2509	0.029	0.2798	1019.075	0.149052	-398.08354	-398.075071	-398.074126	-398.116072	33.142	
N	-0.1207758072	 1.3858948428	 0.1105799677	-0.626153
C	 0.0310772297	-0.0259068225	 0.0031811423	 0.301667
C	 0.6915423081	-0.9465082365	-1.0860712216	-0.304136
C	 0.096045053	-1.9060735827	-0.0197376222	-0.067348
C	 0.678521964	-0.9579884294	 1.0674333257	-0.271325
C	-1.1945640574	-1.0115194552	-0.0054993498	 0.198852
N	-2.017128189	-0.9970513611	 1.1898612526	-0.574006
C	-2.0119503214	-1.0191003685	-1.2280847069	 0.196328
N	-2.7181374159	-1.0222407426	-2.1453827664	-0.35486
H	 0.7488130327	 1.8266569497	 0.3920037625	 0.238388
H	-0.4006709235	 1.7955432194	-0.7758216779	 0.242511
H	 0.2403177764	-0.9535376626	-2.08036716	 0.123187
H	 1.7817650134	-0.9157176841	-1.1369895197	 0.095865
H	 0.1108472859	-2.9937161043	-0.031458705	 0.090648
H	 1.7691989509	-0.9209198575	 1.1195520313	 0.091463
H	 0.2094107242	-0.9850082267	 2.047687049	 0.128067
H	-2.4045094117	-0.0660999866	 1.3183786184	 0.248639
H	-2.7967607823	-1.6404556315	 1.102489	 0.242213
115.8208	163.6572	181.8136	222.0566	277.8688	330.3141	367.9898	399.3392	511.4881	523.4841	545.9475	612.453	678.7949	687.8802	772.8128	803.9731	846.7156	864.288	923.5016	941.5088	964.1364	995.4585	1034.9253	1081.8175	1107.9072	1113.7274	1158.2074	1190.129	1199.6725	1217.3954	1241.1593	1277.3817	1312.6779	1354.4794	1489.8629	1536.0089	1645.4488	1648.8615	2330.5132	3068.2064	3076.7982	3135.9669	3144.1951	3175.	3496.2519	3498.6857	3578.6197	3581.1199
NC12CC(C1)C2(N)C#N	N[C@@]12C[C@@H](C1)[C@]2(N)C#N	
InChI=1S/C6H9N3/c7-3-6(9)4-1-5(6,8)2-4/h4H,1-2,8-9H2	InChI=1S/C6H9N3/c7-3-6(9)4-1-5(6,8)2-4/h4H,1-2,8-9H2/t4-,5-,6-/m1/s1
