19
gdb 54992	3.54469	1.14471	0.99826	3.0799	77.16	-0.2429	0.0433	0.2862	1237.3626	0.159788	-419.211684	-419.202989	-419.202045	-419.245318	33.034	
N	-0.3814424952	 1.3252781017	-0.3278921022	-0.533487
C	-0.0978475437	 0.008735185	-0.0316247444	 0.398214
O	 0.9634783825	-0.5208650896	-0.2899961304	-0.371138
N	-1.146499851	-0.6487614406	 0.6288415474	-0.169018
C	-2.5003108358	-0.7725408398	 0.0876900245	-0.329438
C	-1.6018008983	-1.957606559	 0.2363931495	 0.37694
C	-1.0841453744	-2.8517938105	-0.8985851627	-0.295452
C	-1.6133518662	-4.0753106118	-0.0917182032	-0.213926
C	-1.7684807545	-3.1642553604	 1.1638826634	-0.301965
H	 0.4260952461	 1.8884309104	-0.5440742771	 0.262034
H	-1.1124244212	 1.7827684949	 0.1932238653	 0.258464
H	-3.3084021137	-0.5997446952	 0.7952695326	 0.117216
H	-2.6778595057	-0.396135597	-0.9180403642	 0.127449
H	-1.5005952247	-2.6842547338	-1.8948983908	 0.099835
H	 0.0050688742	-2.8161072089	-0.9581975117	 0.144648
H	-2.5753514638	-4.4354504952	-0.4640763758	 0.103742
H	-0.9356871643	-4.924995112	 0.0044259857	 0.105722
H	-0.9260723744	-3.2538745819	 1.8550427154	 0.119593
H	-2.7004685459	-3.2358144162	 1.7300549986	 0.100566
72.805	93.1934	145.1254	163.9764	317.2612	350.5415	380.3348	425.4288	455.0013	515.0224	558.8729	655.4583	718.6323	742.9876	782.3024	796.8492	882.0241	900.9442	931.0917	939.0951	949.9596	1044.2134	1069.6073	1104.7346	1118.308	1122.1318	1163.1574	1177.0597	1217.6475	1237.8096	1248.7688	1271.0564	1281.3244	1349.1956	1433.8722	1472.4309	1482.9734	1504.0206	1515.7776	1615.8228	1797.234	3060.0336	3067.2609	3073.9108	3090.78	3108.6303	3122.9322	3137.4331	3178.8447	3586.3063	3708.718
NC(=O)N1CC11CCC1	NC(=O)N1CC21CCC2	
InChI=1S/C6H10N2O/c7-5(9)8-4-6(8)2-1-3-6/h1-4H2,(H2,7,9)	InChI=1S/C6H10N2O/c7-5(9)8-4-6(8)2-1-3-6/h1-4H2,(H2,7,9)
