17
gdb 20555	4.46755	1.40386	1.3909	6.2478	68.43	-0.2457	0.023	0.2688	973.6234	0.143351	-360.065318	-360.057541	-360.056597	-360.098167	28.191	
C	 0.0057436125	 1.5509586303	-0.0188303267	-0.3827
C	-0.0007289361	 0.0197485349	 0.0514733418	 0.022329
C	 0.7775636143	-0.5154569386	 1.2580678219	-0.383616
N	-1.3730312858	-0.5001999347	 0.0394496502	-0.001848
C	-2.3642560699	-0.3262349869	 0.9651010519	 0.015158
N	-3.4616817898	-0.9420166606	 0.6021465854	-0.225214
N	-3.2033344689	-1.5521924068	-0.6084841425	-0.22926
C	-1.9628204126	-1.2752300441	-0.9187649564	 0.016996
H	 1.033087683	 1.9180790777	-0.0979169256	 0.127755
H	-0.5568477762	 1.9052225452	-0.8864974089	 0.136203
H	-0.4394001569	 1.9892829906	 0.8800153766	 0.129271
H	 0.4600883941	-0.3722550977	-0.8612039357	 0.104931
H	 0.3557179118	-0.1427281866	 2.1966850374	 0.1292
H	 0.7568871449	-1.6080076794	 1.2835847924	 0.136417
H	 1.8200534546	-0.1887567908	 1.2058561922	 0.127985
H	-2.2381017329	 0.2467768031	 1.8700842509	 0.138155
H	-1.4432102362	-1.6014824357	-1.8068965248	 0.138237
34.5675	126.9135	213.6928	229.9594	265.4906	319.6505	415.6477	480.7566	641.2619	666.8996	698.5211	816.3802	846.0438	887.3064	933.4082	954.7344	960.5109	1026.769	1066.2471	1110.0166	1148.954	1177.2139	1214.9344	1232.3565	1302.0238	1347.9785	1370.6933	1403.7639	1422.0475	1433.3962	1484.1691	1488.5227	1494.7963	1500.7006	1508.7323	1545.2443	3041.8259	3045.3827	3055.623	3112.3518	3120.0757	3124.7096	3127.1192	3258.4783	3267.7556
CC(C)N1C=NN=C1	CC(C)n1cnnc1	
InChI=1S/C5H9N3/c1-5(2)8-3-6-7-4-8/h3-5H,1-2H3	InChI=1S/C5H9N3/c1-5(2)8-3-6-7-4-8/h3-5H,1-2H3
