15
gdb 133524	2.12678	1.48	1.33064	3.6785	58.05	-0.3354	0.0183	0.3537	1024.4086	0.107169	-548.34115	-548.331941	-548.330997	-548.375061	33.145	
C	-0.0388267798	 1.5549860787	 0.0183495215	-0.424158
C	-0.0022203886	 0.0108883555	 0.0298808245	-0.074352
C	 0.7374028006	-0.5255169126	 1.2752489129	-0.424158
C	-1.3767952611	-0.5139073472	 0.0100960603	 0.281139
N	-2.4624480401	-0.9068423863	 0.0302465974	-0.32654
C	 0.7123585732	-0.4914528317	-1.2429483483	 0.308758
F	 1.9745511974	-0.04061194	-1.275702557	-0.080144
F	 0.754477941	-1.8267452166	-1.2851926653	-0.07112
F	 0.0971862325	-0.0639460478	-2.3499114847	-0.071122
H	 0.9818159705	 1.9438874122	 0.01518633	 0.142828
H	-0.5628624676	 1.9280821045	-0.8631302511	 0.154107
H	-0.5523519841	 1.9181377634	 0.910692276	 0.143912
H	 0.231676668	-0.18313383	 2.1801675155	 0.143912
H	 0.7595809042	-1.6165326091	 1.2783147473	 0.154105
H	 1.7630292241	-0.149968583	 1.2801001009	 0.142832
67.777	140.5951	187.1896	221.741	231.6292	243.044	279.5357	326.8225	398.0998	398.4819	454.5199	553.1603	556.5464	599.1696	633.0801	741.2638	857.9956	958.0519	960.404	1035.5651	1157.0283	1164.5591	1200.5383	1231.7273	1253.7436	1302.7039	1399.2587	1425.4516	1482.8059	1488.6942	1499.6168	1513.5441	2365.2468	3061.3784	3064.0947	3141.6866	3145.344	3149.407	3150.1114
CC(C)(C#N)C(F)(F)F	CC(C)(C#N)C(F)(F)F	
InChI=1S/C5H6F3N/c1-4(2,3-9)5(6,7)8/h1-2H3	InChI=1S/C5H6F3N/c1-4(2,3-9)5(6,7)8/h1-2H3
