22
gdb 106401	2.53245	1.2751	1.21039	2.9161	82.43	-0.2186	0.0686	0.2872	1196.7583	0.193078	-404.260755	-404.25102	-404.250076	-404.295328	36.672	
C	-0.0757486377	 1.5134196593	 0.0153314093	-0.471975
C	 0.019823459	-0.0180136559	 0.0418024691	 0.319644
C	-1.3526283836	-0.5537866204	-0.3756453264	-0.472718
N	 1.2350630843	-0.6206043477	-0.7443651966	-0.189463
C	 2.0946454568	-0.1384295841	 0.4413104683	-0.21257
C	 0.857888136	-0.7301431198	 1.1598130012	 0.301634
C	 0.5783417419	-0.8210240242	 2.6376052479	-0.232615
O	 1.635760653	-1.5602889206	 3.233965382	-0.419915
C	 1.0459878921	-1.8731153399	 0.1378186383	-0.214143
H	-0.0419939739	 1.8606642218	-1.0233139114	 0.131988
H	-1.033294119	 1.8342665172	 0.4367997205	 0.113688
H	 0.7082042291	 2.0318865579	 0.5669890179	 0.116983
H	-1.6271790826	-0.1249281763	-1.3455448599	 0.127397
H	-1.4207464486	-1.6367278486	-0.4663886232	 0.119574
H	-2.1107572911	-0.2343879064	 0.34758995	 0.11554
H	 3.0304535482	-0.6917504392	 0.5383389356	 0.105419
H	 2.2829185586	 0.9329960409	 0.463986399	 0.096896
H	 0.5077993941	 0.1944529617	 3.0619472049	 0.087124
H	-0.3962986731	-1.3110523039	 2.7989519998	 0.086991
H	 1.4641758353	-1.6231727233	 4.1780324382	 0.289578
H	 0.2058582123	-2.5096566951	-0.1314536368	 0.095168
H	 1.9579363589	-2.4664083635	 0.2253593222	 0.105774
68.1537	99.809	133.6763	158.4643	181.6018	247.9008	280.2225	322.5965	423.0671	442.5968	503.7921	543.6746	612.5836	632.0936	707.4025	769.9393	785.3373	888.9084	906.1076	948.8775	951.9874	977.2705	987.8638	1006.3247	1062.8056	1071.4795	1121.626	1143.8464	1148.1049	1167.0755	1183.5811	1218.2081	1228.5077	1250.889	1270.375	1275.2633	1335.0337	1402.7106	1418.4243	1461.395	1475.4089	1485.5042	1502.6052	1511.2713	1513.6704	1536.2801	1573.2156	2954.96	2982.8853	3038.1739	3045.0595	3081.9685	3089.6055	3093.6498	3102.8088	3132.5264	3140.4503	3158.911	3162.9405	3830.1254
CC1(C)N2CC1(CO)C2	CC1(C)N2C[C@]1(CO)C2	
InChI=1S/C7H13NO/c1-6(2)7(5-9)3-8(6)4-7/h9H,3-5H2,1-2H3	InChI=1S/C7H13NO/c1-6(2)7(5-9)3-8(6)4-7/h9H,3-5H2,1-2H3
