13
gdb 131348	3.23097	1.47233	1.01143	3.9477	64.61	-0.2266	-0.0387	0.188	1059.2281	0.091999	-486.107314	-486.100006	-486.099061	-486.139155	27.82	
O	-0.0530831286	 1.3127413755	 0.1276444481	-0.407182
C	 0.0596918418	-0.0176047346	-0.0127408014	 0.546161
N	 1.182522378	-0.6091266902	 0.1742586122	-0.359201
N	 1.1477641678	-1.9838967353	-0.0060471583	-0.305885
C	 0.0819933168	-2.7589706844	-0.3507305872	 0.389223
O	 0.1377834149	-3.9666189686	-0.4890117986	-0.375404
C	-1.2093616616	-1.9992541731	-0.5559129428	 0.293958
N	-2.3100924517	-2.5371758739	-0.879141934	-0.511279
N	-1.1099060484	-0.6257326879	-0.3608865004	-0.399147
H	 0.821342251	 1.6444710575	 0.3724375905	 0.321495
H	 2.0332387632	-2.4447117709	 0.1421787473	 0.276174
H	-2.1511445185	-3.5432867194	-0.9680937484	 0.250179
H	-1.9447017847	-0.0691145947	-0.485314727	 0.280908
117.8661	128.8487	329.0421	329.5393	375.9309	419.5437	471.0745	484.5782	529.4843	594.6874	615.0055	636.5147	694.4183	713.0909	788.2894	823.7912	920.6071	1009.8286	1107.6942	1178.9285	1264.6462	1294.2375	1353.1105	1425.9297	1450.0367	1568.0941	1729.8941	1743.7341	1793.1666	3470.1004	3603.2022	3627.1791	3790.6082
OC1=NNC(=O)C(=N)N1	OC1=NNC(=O)[C]([NH])N1	
InChI=1S/C3H4N4O2/c4-1-2(8)6-7-3(9)5-1/h(H,6,8)(H3,4,5,7,9)	InChI=1S/C3H4N4O2/c4-1-2(8)6-7-3(9)5-1/h(H,6,8)(H3,4,5,7,9)
