19
gdb 41668	2.73975	2.00206	1.57689	1.5642	78.01	-0.23	0.0086	0.2386	912.2292	0.163151	-385.884215	-385.877623	-385.876679	-385.914838	27.889	
C	-0.0645552823	 1.412952501	-0.0533238229	-0.041801
C	 1.295879435	 2.1220729436	-0.0277213471	-0.255491
C	 2.1908074553	 1.5028863513	-1.0910256485	-0.032973
C	 3.2879233977	 0.4754488766	-0.8015323044	-0.097036
C	 3.350102206	-0.0938551091	 0.5741392271	-0.084397
C	 2.2182293522	-0.7247682259	 0.8885484276	-0.092258
C	 1.1989472224	-0.6639480149	-0.2420583277	 0.067
O	 0.00785648	 0.0166746968	 0.1996292327	-0.28479
C	 1.9603360019	 0.0363488022	-1.3748105623	-0.108614
H	-0.734432049	 1.8187795165	 0.7123291934	 0.100441
H	-0.5335311068	 1.590854224	-1.0351465717	 0.083742
H	 1.1455178048	 3.1870442693	-0.230685495	 0.097019
H	 1.7334352999	 2.0389618487	 0.971207888	 0.113002
H	 2.3794736903	 2.1199309807	-1.9644445492	 0.087002
H	 4.1791204015	 0.5188388206	-1.417036311	 0.086275
H	 4.2009605422	 0.0473414339	 1.2316038511	 0.096489
H	 1.9669285063	-1.1605245332	 1.8482751542	 0.098847
H	 0.8507897605	-1.6595789759	-0.5373465192	 0.082318
H	 1.8573562219	-0.3211127962	-2.3913672353	 0.085226
157.4286	215.8818	320.4	387.775	455.0984	510.8147	584.2262	617.9524	727.3623	765.9504	774.0166	784.6642	826.9131	831.4096	921.8406	936.2031	947.1266	965.8468	980.7204	1001.7415	1026.7437	1046.1027	1050.8911	1093.7279	1100.4538	1111.8583	1131.3823	1179.6113	1243.1435	1272.2851	1299.3294	1308.3769	1332.7842	1354.0085	1365.9756	1378.2491	1406.0996	1415.3496	1472.606	1513.242	1670.1116	2965.5403	3042.7914	3049.6783	3064.9528	3095.3188	3147.8599	3173.3664	3185.5497	3189.812	3214.5151
C1CC2C3C=CC(O1)C23	C1C[C@H]2[C@H]3C=C[C@@H](O1)[C@@H]23	
InChI=1S/C8H10O/c1-2-7-8-5(1)6(8)3-4-9-7/h1-2,5-8H,3-4H2	InChI=1S/C8H10O/c1-2-7-8-5(1)6(8)3-4-9-7/h1-2,5-8H,3-4H2/t5-,6+,7-,8-/m1/s1
