17
gdb 74641	4.35491	1.42804	1.31823	1.5073	73.43	-0.2281	0.0461	0.2743	986.5811	0.138655	-417.942209	-417.935524	-417.93458	-417.972819	28.211	
N	 0.0733717596	 1.3524058483	 0.0257580654	-0.581107
C	-0.0750982272	 0.0006804793	-0.0544128144	 0.442965
N	-1.180619204	-0.6584680699	 0.0233622653	-0.387124
C	-0.7295070584	-2.0539192767	 0.0012545011	 0.030227
C	-0.6815362285	-3.1686809448	-1.1208630637	-0.107568
C	-0.0606858132	-2.1255708586	-2.0728765893	-0.27514
C	 0.6096037753	-1.9273456282	-0.6833919364	 0.38788
C	 0.7943198928	-3.4575460403	-0.5826648347	-0.302548
O	 1.1319701287	-0.6638044633	-0.2919242308	-0.321777
H	 1.003530591	 1.6821085368	 0.22760903	 0.266527
H	-0.6781703536	 1.8354150906	 0.491497842	 0.270624
H	-0.75484372	-2.4793138287	 1.0116091706	 0.070513
H	-1.415032648	-3.9354741307	-1.3633539397	 0.088203
H	 0.5776177794	-2.5079417717	-2.8723798742	 0.089724
H	-0.7179403506	-1.325945044	-2.4126686896	 0.118021
H	 0.8755560478	-3.8829676647	 0.4198428708	 0.106396
H	 1.468002259	-3.9385433735	-1.2948160523	 0.104184
160.59	304.4138	341.1547	379.5328	438.6484	482.7154	507.8421	512.2731	561.0624	730.8013	745.5549	758.8327	778.1259	839.9007	864.0119	896.237	923.2308	951.4628	988.1791	1009.8338	1054.0475	1063.7967	1086.7129	1112.6342	1145.5823	1154.8922	1169.9966	1193.0019	1221.909	1238.9305	1251.9194	1373.1684	1390.6216	1490.8383	1531.2962	1602.1924	1701.122	3028.0241	3065.3619	3073.9364	3132.7189	3138.4363	3152.5373	3598.252	3715.9712
NC1=NC2C3CC2(C3)O1	N[C]1[N][C@H]2[C@H]3C[C@@]2(C3)O1	
InChI=1S/C6H8N2O/c7-5-8-4-3-1-6(4,2-3)9-5/h3-4H,1-2H2,(H2,7,8)	InChI=1S/C6H8N2O/c7-5-8-4-3-1-6(4,2-3)9-5/h3-4H,1-2H2,(H2,7,8)/t3-,4-,6-/m0/s1
