19
gdb 127146	4.33164	0.91826	0.89309	5.2831	78.16	-0.2369	0.003	0.2398	1375.2247	0.1606	-415.373392	-415.364603	-415.363659	-415.407467	31.997	
C	 0.332392016	 1.3314595743	-0.0858868755	-0.326819
N	-0.0269800883	-0.079528198	 0.0109121548	-0.072178
C	 0.6260793456	-0.7147960567	 1.1473433541	-0.316698
C	-1.4762645304	-0.2761812101	 0.0358293777	-0.272717
C	-2.0871981889	-0.0106752964	-1.3039161872	 0.337868
C	-3.2778193858	 0.5252665575	-1.7379453834	-0.16925
N	-3.3208778607	 0.4708497116	-3.1002065516	-0.188995
N	-2.2179834432	-0.0648286137	-3.5392493779	-0.117122
N	-1.4736174574	-0.3649164366	-2.4585762095	-0.207292
H	 1.4155581463	 1.4270960323	-0.205226783	 0.123828
H	-0.1494175636	 1.7835221673	-0.9564908845	 0.136681
H	 0.0331539677	 1.9082732546	 0.8089541837	 0.099923
H	 0.3237413428	-0.2834476311	 2.1198175955	 0.099651
H	 0.3938601149	-1.7840537303	 1.162432843	 0.121828
H	 1.7104564102	-0.6031204223	 1.0544320723	 0.124739
H	-1.6629891507	-1.3197603167	 0.3191585429	 0.124053
H	-1.9826676902	 0.3474652049	 0.7954809851	 0.102707
H	-4.0903622735	 0.9373420461	-1.161460023	 0.119808
H	-0.5477823809	-0.7524844968	-2.5554932032	 0.279983
63.0732	84.5011	119.5173	246.3467	249.5364	285.1527	338.0643	354.2214	380.9281	471.6782	626.2205	682.6024	740.5582	759.9627	844.577	857.9606	993.6876	999.2786	1042.496	1065.4973	1070.1885	1076.3262	1122.1988	1134.5221	1173.2388	1204.6996	1227.6106	1287.1365	1302.3647	1333.6311	1367.2474	1387.1635	1443.6191	1447.0333	1476.3049	1481.716	1488.6914	1500.3007	1504.7937	1513.5857	1607.464	2933.4847	2936.5495	2945.5463	3035.2683	3064.5675	3074.2244	3108.8406	3120.7757	3268.4067	3652.0441
CN(C)CC1=CN=NN1	CN(C)Cc1cnn[nH]1	
InChI=1S/C5H10N4/c1-9(2)4-5-3-6-8-7-5/h3H,4H2,1-2H3,(H,6,7,8)	InChI=1S/C5H10N4/c1-9(2)4-5-3-6-8-7-5/h3H,4H2,1-2H3,(H,6,7,8)
