12
gdb 11154	6.14198	1.38999	1.14146	2.9044	64.87	-0.2539	-0.0523	0.2016	953.9054	0.083899	-377.535723	-377.528858	-377.527914	-377.566843	25.312	
O	 0.0394948165	-0.0180450418	 0.0039618047	-0.355186
C	-0.0208405102	 1.1846233059	 0.010187755	 0.399298
C	-1.2324127386	 2.1253247343	 0.0316750334	-0.309693
N	-0.7152261715	 3.492962569	 0.0304334383	-0.298629
C	 0.5650753783	 3.3837318281	 0.0116332443	 0.23204
N	 1.0512213015	 2.0730595731	-0.0012403281	-0.381385
C	 1.4843386534	 4.4708718247	 0.0033644755	 0.276102
C	 2.2932645255	 5.3597304592	-0.0042128944	-0.368235
H	-1.8731055542	 1.9496733228	-0.8398990311	 0.157853
H	-1.8480558349	 1.9417813158	 0.9195213914	 0.157849
H	 2.020982493	 1.8011364597	-0.0162033963	 0.274971
H	 2.9941089011	 6.1589875092	-0.0106488428	 0.215015
117.3036	148.9273	194.8371	377.2723	428.103	487.4217	550.1961	556.7184	577.1952	658.8715	680.6444	687.3436	734.836	886.1497	969.8446	971.4859	1045.1073	1169.718	1174.3947	1236.0723	1286.6986	1416.5457	1432.1758	1648.1532	1859.272	2246.3406	3050.5037	3083.9077	3494.9236	3656.6545
O=C1CN=C(N1)C#C	O=C1CN=C(N1)C#C	
InChI=1S/C5H4N2O/c1-2-4-6-3-5(8)7-4/h1H,3H2,(H,6,7,8)	InChI=1S/C5H4N2O/c1-2-4-6-3-5(8)7-4/h1H,3H2,(H,6,7,8)
