18
gdb 49116	3.17893	1.28306	0.96419	5.083	84.55	-0.2164	-0.0336	0.1827	1201.4733	0.149574	-401.943144	-401.935437	-401.934493	-401.975502	29.582	
O	-0.1821723348	 0.0830605768	 0.0977009227	-0.303603
C	-0.035766575	 1.2874285514	-0.0098575003	 0.050896
C	 1.2315745599	 1.9602061337	-0.1494804093	 0.055728
C	 1.4731841045	 3.2909600741	-0.1878888732	 0.318074
N	 1.0110797038	 4.5614484266	 0.0988282577	-0.381559
C	 2.3667321036	 4.943753017	 0.6181953551	-0.202973
C	 2.9172753944	 3.6712706511	-0.1245074659	-0.064073
C	 3.5513464313	 2.3973520496	 0.4630782348	-0.253086
C	 2.6034835162	 1.2762663972	-0.0879092301	-0.300101
H	-0.9211821298	 1.9669049487	-0.0033939925	 0.037456
H	 0.1541841728	 4.7294437394	 0.6104677482	 0.250239
H	 2.7121596053	 5.9225099906	 0.278602876	 0.121153
H	 2.4384798054	 4.8696066872	 1.7086715481	 0.120339
H	 3.3451589128	 3.9441469223	-1.0941033643	 0.105298
H	 4.5981959256	 2.2546784092	 0.1822293629	 0.102256
H	 3.4934727563	 2.4119077156	 1.5570467797	 0.10731
H	 2.570777778	 0.3973445069	 0.5609745612	 0.127694
H	 2.9410741096	 0.9276428728	-1.0727992307	 0.108953
102.555	153.353	194.0527	223.9876	307.8902	366.1295	428.429	517.3306	591.864	609.7559	686.2601	754.9262	783.6235	841.7286	917.6374	931.3779	946.0316	966.9048	1023.3416	1029.0005	1074.6549	1086.5811	1133.9107	1163.2223	1184.7463	1191.6055	1229.7195	1285.7783	1291.8327	1299.7135	1337.5249	1343.4828	1376.774	1431.6235	1485.9818	1498.7761	1506.8956	1705.8735	1757.6338	2836.1355	3021.9268	3042.7045	3046.7736	3061.2389	3096.3389	3104.4417	3114.8519	3568.6883
O=CC1=C2NCC2CC1	O=C[C]1[C]2NC[C@H]2CC1	
InChI=1S/C7H9NO/c9-4-6-2-1-5-3-8-7(5)6/h4-5,8H,1-3H2	InChI=1S/C7H9NO/c9-4-6-2-1-5-3-8-7(5)6/h4-5,8H,1-3H2/t5-/m1/s1
