14
gdb 29018	3.11058	1.52749	1.02443	4.9922	75.09	-0.2432	-0.0664	0.1768	1071.0689	0.102143	-436.751875	-436.744595	-436.74365	-436.783769	27.373	
O	 0.4784484856	 1.2490061794	 0.3289738094	-0.399514
C	 0.2295338186	-0.0629639402	 0.1481301147	 0.311165
C	 0.2912397575	-0.6700205161	-1.1095218059	-0.197597
C	 0.0233944173	-2.0244508521	-1.2225828289	-0.107571
C	-0.3013627745	-2.7442487412	-0.0713758512	-0.024406
N	-0.3632117084	-2.1797840428	 1.1278796669	-0.297424
C	-0.1070086186	-0.8695586277	 1.2562603118	 0.142264
C	-0.212774284	-0.3706867498	 2.6550808022	 0.109924
O	-0.0312300789	 0.7616791542	 3.0297728167	-0.261
H	 0.6906380274	 1.6537020753	-0.5202854812	 0.302988
H	 0.5477751601	-0.0764995077	-1.9834579374	 0.103678
H	 0.0648060856	-2.5180331699	-2.1873278245	 0.114146
H	-0.5172066169	-3.8076716954	-0.1233118951	 0.115219
H	-0.4901377608	-1.1932147558	 3.3485842724	 0.088128
92.7826	187.2842	212.7683	286.9689	410.6525	419.138	438.6599	467.416	575.67	579.7238	673.1668	762.3651	766.9659	831.2805	895.4363	931.2219	983.693	1048.8504	1080.9038	1127.0013	1174.8407	1253.1603	1286.4664	1333.356	1340.2805	1404.2564	1488.7901	1495.8901	1613.2868	1627.4014	1811.4143	2912.3395	3158.5157	3167.1011	3199.2206	3797.3003
OC1=CC=CN=C1C=O	Oc1cccnc1C=O	
InChI=1S/C6H5NO2/c8-4-5-6(9)2-1-3-7-5/h1-4,9H	InChI=1S/C6H5NO2/c8-4-5-6(9)2-1-3-7-5/h1-4,9H
