14
gdb 7899	3.48253	2.00269	1.36119	4.5349	62.23	-0.2783	-0.0409	0.2374	877.2194	0.107568	-415.887576	-415.880438	-415.879494	-415.919335	26.123	
C	-0.13943387	 1.5413572117	 0.2140765319	-0.4005
C	 0.0842263059	 0.0728528648	-0.0657598544	 0.209959
O	 0.9972758051	-0.1078690723	-1.1463995441	-0.248409
C	 2.0354090604	-0.903861651	-0.7483419558	 0.338448
N	 2.9967540909	-1.291743512	-1.4602658447	-0.497882
C	 1.8140107248	-1.2129710206	 0.6968053125	 0.338446
N	 2.5529069872	-1.9114278746	 1.4368472301	-0.497882
O	 0.6585831952	-0.5807414522	 1.0642960542	-0.248407
H	 0.8093246904	 2.023585412	 0.4627680096	 0.141235
H	-0.568069605	 2.0239246738	-0.6679256142	 0.141472
H	-0.8318854994	 1.6560537422	 1.0518608489	 0.141467
H	-0.8514877459	-0.4419041471	-0.3192200002	 0.112176
H	 2.9112741016	-0.9371154019	-2.414087406	 0.234938
H	 2.1761035088	-1.9635365429	 2.3845535322	 0.234938
74.218	120.8914	233.8847	321.6118	335.7309	414.1634	477.2428	545.061	640.0504	729.8286	768.8898	779.6468	878.8274	901.0242	909.9729	928.8244	1014.5484	1058.1787	1099.8451	1144.023	1177.4336	1239.9079	1347.217	1379.4629	1397.9338	1420.4637	1484.4874	1484.5342	1767.1158	1812.074	3029.8873	3053.6834	3137.0988	3139.9509	3484.1474	3485.0934
CC1OC(=N)C(=N)O1	C[C@H]1OC(=C([NH])O1)[NH]	
InChI=1S/C4H6N2O2/c1-2-7-3(5)4(6)8-2/h2,5-6H,1H3	InChI=1S/C4H6N2O2/c1-2-7-3(5)4(6)8-2/h2,5-6H,1H3
