16
gdb 5564	3.29393	1.87291	1.2614	3.8114	67.31	-0.2127	0.0278	0.2404	942.502	0.131989	-379.961766	-379.95389	-379.952946	-379.994178	28.633	
C	 0.2245887503	 1.4909682519	 0.0067847455	-0.518509
C	 0.1051000228	 0.0054895392	-0.0703868087	 0.238351
C	-0.0209121823	-0.8614360608	-1.1339041257	 0.153776
C	-0.0657199093	-0.5385152031	-2.59865366	-0.171646
O	 0.9166486766	 0.4165774002	-3.000807586	-0.412278
N	-0.1087780441	-2.166547595	-0.6896882816	-0.304548
C	-0.0453675568	-2.0982645346	 0.6176285432	-0.005313
N	 0.086185706	-0.8090488725	 1.0444791806	-0.288727
H	 1.0567158474	 1.8013254761	 0.650591361	 0.121238
H	 0.4094910987	 1.8838410836	-0.9942146638	 0.166021
H	-0.6857702027	 1.9604766282	 0.4004080389	 0.12877
H	 0.0266917051	-1.4806569793	-3.1560211668	 0.110939
H	-1.0240160503	-0.0871195244	-2.8807696993	 0.114244
H	 1.7719573292	 0.071423512	-2.723155344	 0.279464
H	-0.0797828577	-2.932764947	 1.3021951464	 0.126933
H	 0.1728936871	-0.5014474545	 1.9991886405	 0.261285
67.6438	156.1825	174.2368	232.781	256.9635	364.143	368.0404	446.0734	531.1628	651.4087	673.2309	702.3037	756.4219	799.6548	956.1124	970.1719	992.6847	1050.1715	1067.066	1110.5486	1159.3439	1207.8354	1261.2754	1280.1017	1362.7588	1389.5919	1414.6303	1423.1998	1456.9242	1487.8123	1497.5407	1505.7171	1527.9375	1626.6242	3014.5025	3018.1104	3058.4532	3063.665	3141.752	3248.4085	3655.7209	3807.3677
CC1=C(CO)N=CN1	Cc1c(CO)nc[nH]1	
InChI=1S/C5H8N2O/c1-4-5(2-8)7-3-6-4/h3,8H,2H2,1H3,(H,6,7)	InChI=1S/C5H8N2O/c1-4-5(2-8)7-3-6-4/h3,8H,2H2,1H3,(H,6,7)
