18
gdb 18710	3.31701	2.15945	1.50676	1.7533	72.06	-0.2382	0.0029	0.241	875.3024	0.155117	-347.804615	-347.797494	-347.79655	-347.83565	28.022	
C	 0.1145628802	 1.5596493066	 0.0393044634	-0.401224
C	 0.0121300394	 0.0290729381	 0.0099349678	-0.012541
C	 0.6019838923	-0.5469173055	-1.2982166056	-0.261834
C	 0.7902295011	-2.0407232337	-1.2660194765	-0.092482
C	 1.0714010069	-2.6935286046	-0.1371349755	-0.040047
C	 1.1862167517	-1.9663026261	 1.1503654471	-0.008198
O	 2.0685605257	-0.8147137265	 1.1861531878	-0.262698
C	 0.6606636385	-0.5932273285	 1.2311923878	 0.060772
H	 1.1636960533	 1.8737292827	 0.0435610961	 0.129424
H	-0.3686601584	 2.0038789686	-0.8368650856	 0.112942
H	-0.3642622157	 1.974488611	 0.9324155456	 0.112018
H	-1.0504863626	-0.2519453685	 0.0577456683	 0.079312
H	-0.038904865	-0.2606710226	-2.1393023409	 0.100409
H	 1.5747427817	-0.0706660991	-1.4808632754	 0.12787
H	 0.7222777461	-2.5808646203	-2.2063956616	 0.094364
H	 1.2195697142	-3.7688508868	-0.127955084	 0.088821
H	 1.229847733	-2.5659097283	 2.0573607884	 0.08962
H	 0.2915122077	-0.2331901864	 2.1938591628	 0.083472
115.8573	207.8264	247.8797	288.1598	325.6149	418.2929	513.5306	520.9402	630.0631	709.9382	716.8811	815.3154	851.9296	876.7811	929.2424	953.6947	961.0423	983.6623	1012.9671	1051.4296	1072.0554	1108.6756	1140.8025	1168.9432	1193.8968	1239.1258	1282.2196	1317.0185	1340.2997	1360.3534	1389.1351	1407.0577	1420.2417	1458.1103	1473.0038	1497.5138	1501.9696	1708.5559	2997.5984	3020.1356	3031.139	3063.8694	3086.0717	3100.6695	3104.8282	3130.6128	3158.7944	3184.6377
CC1CC=CC2OC12	C[C@H]1CC=C[C@H]2O[C@@H]12	
InChI=1S/C7H10O/c1-5-3-2-4-6-7(5)8-6/h2,4-7H,3H2,1H3	InChI=1S/C7H10O/c1-5-3-2-4-6-7(5)8-6/h2,4-7H,3H2,1H3/t5-,6+,7-/m0/s1
