21
gdb 39744	3.03129	1.64013	1.46201	0.3154	85.18	-0.2368	0.0954	0.3322	1006.7895	0.18531	-349.923035	-349.915926	-349.914982	-349.954153	30.214	
C	-0.0225368376	 1.5234497542	 0.0215123966	-0.333258
C	 1.2696559805	 0.7263188745	-0.0005860638	-0.353767
C	-0.0510980838	 0.0233885821	 0.0156376841	 0.431362
C	-0.5018077692	-0.9408872224	 1.0885651387	-0.157363
C	-1.9033226206	-1.4557621603	 0.7789402643	-0.041227
C	-2.8005916649	-0.6396354182	-0.1534447802	-0.234587
C	-2.0064713407	-0.5884396157	-1.4888940516	-0.201289
C	-0.5716090978	-0.9451026545	-1.0750287604	-0.143565
C	-0.724265472	-2.022764206	 0.0409648738	-0.074656
H	-0.2867473794	 2.0420841187	 0.9379004177	 0.107352
H	-0.3056977135	 2.0513628383	-0.8842279072	 0.107073
H	 1.8472812483	 0.7196408035	-0.9200645005	 0.106995
H	 1.8738914425	 0.7090267442	 0.9015414493	 0.107894
H	-0.0726830953	-1.0325297072	 2.0807317043	 0.076638
H	-2.3553183391	-2.0513949311	 1.5651516709	 0.078456
H	-3.7740704289	-1.123012886	-0.2813425352	 0.092559
H	-2.9892126843	 0.3635869051	 0.2420347161	 0.102543
H	-2.3877158116	-1.3366017285	-2.1936042898	 0.092588
H	-2.0695086301	 0.3884017137	-1.9788818628	 0.092744
H	 0.1137326593	-1.1479409515	-1.8994000218	 0.062367
H	-0.4099114018	-3.0573163728	 0.0197743174	 0.08114
135.0841	217.0862	238.2744	285.9586	403.9009	480.1204	558.5367	643.1401	726.6899	752.4108	772.8757	782.9686	821.4972	845.8428	879.344	897.276	914.3706	919.6297	940.2647	955.8242	980.0775	997.501	1027.0494	1047.6978	1053.1486	1065.6924	1073.7657	1082.1014	1104.7182	1152.5743	1185.3586	1210.6367	1217.6856	1239.7382	1266.0901	1268.6909	1276.074	1314.5649	1336.068	1393.3026	1410.0078	1462.7149	1483.2986	1502.5005	1505.5089	3033.4122	3047.4044	3073.5932	3090.9096	3099.345	3115.7314	3120.2278	3160.0084	3170.1144	3192.5453	3202.9352	3207.7355
C1CC11C2C3CCC1C23	C1CC21[C@H]1[C@H]3CC[C@@H]2[C@@H]13	
InChI=1S/C9H12/c1-2-6-7-5(1)8(7)9(6)3-4-9/h5-8H,1-4H2	InChI=1S/C9H12/c1-2-6-7-5(1)8(7)9(6)3-4-9/h5-8H,1-4H2/t5-,6+,7-,8-/m0/s1
