21
gdb 36811	8.74759	0.42461	0.41005	0.5241	92.09	-0.2575	0.0516	0.3091	2553.9198	0.179172	-349.896418	-349.885515	-349.884571	-349.933394	38.891	
C	-0.0713881274	-1.25291117	-0.0046514846	-0.435229
C	-0.0688360928	-0.0508624823	 0.0027497535	 0.292424
C	-0.0305773112	 1.4063733562	 0.010786221	-0.356828
C	 1.4035713765	 1.9736425017	-0.000715659	-0.1812
C	 1.4293169373	 3.5047710941	 0.0078726225	-0.177895
C	 2.8491875684	 4.0782968673	-0.0034717831	-0.181202
C	 2.8639606488	 5.6205032541	 0.0052958725	-0.356848
C	 4.210383525	 6.1791524197	-0.0053537259	 0.292549
C	 5.3312647986	 6.6133357677	-0.014701424	-0.435336
H	-0.0863780824	-2.3143856276	-0.0112687134	 0.193103
H	-0.5814996531	 1.7908090347	-0.857913027	 0.128775
H	-0.5634216737	 1.7806398649	 0.8950617914	 0.128758
H	 1.946566251	 1.5853718399	 0.868884275	 0.111388
H	 1.9284797873	 1.5955204376	-0.8857558594	 0.111389
H	 0.8751131132	 3.8842928473	-0.8621413387	 0.096361
H	 0.893237618	 3.8741421791	 0.8934729253	 0.096363
H	 3.4075422325	 3.7123691432	 0.8660897658	 0.111389
H	 3.3894224886	 3.7225130362	-0.8885507918	 0.111388
H	 2.3063466598	 5.9952148878	-0.8633847296	 0.128776
H	 2.3244652496	 5.9850802175	 0.8895869377	 0.128764
H	 6.316574866	 7.0084129609	-0.0231660282	 0.193109
58.6272	63.5845	66.5508	138.6957	142.008	142.8354	209.6487	319.9153	348.9927	350.0488	376.4313	530.115	535.7607	615.8624	616.0078	635.4513	636.0158	734.3109	752.4475	828.4076	943.658	949.4438	952.0689	1007.8483	1041.9555	1063.7834	1075.5168	1118.865	1155.3896	1239.4465	1261.0025	1301.0237	1308.9203	1331.7437	1332.1648	1354.5886	1385.9937	1400.9838	1473.1416	1474.4715	1486.0984	1496.3551	1512.415	2238.9298	2239.0831	3003.3328	3014.0215	3014.491	3031.8271	3034.6923	3040.918	3040.958	3042.2783	3076.7108	3087.2166	3507.064	3507.2453
C#CCCCCCC#C	C#CCCCCCC#C	
InChI=1S/C9H12/c1-3-5-7-9-8-6-4-2/h1-2H,5-9H2	InChI=1S/C9H12/c1-3-5-7-9-8-6-4-2/h1-2H,5-9H2
