16
gdb 73993	2.77757	1.97792	1.37055	4.1129	77.75	-0.2277	-0.0841	0.1436	934.1394	0.123285	-400.656256	-400.648824	-400.64788	-400.688284	28.547	
C	-0.1849685866	 1.3746002381	 0.0180415075	-0.475944
C	-0.0712181253	-0.061790024	 0.4032784468	 0.128714
C	-1.0515541989	-1.0000122833	 0.4448296571	-0.03854
C	-1.6780095637	-1.435926038	-0.8796128673	-0.278915
C	-0.557626391	-2.563798057	-0.80633829	-0.038783
C	-0.4300539156	-2.3859367761	 0.6402583467	-0.081423
N	 0.8020618026	-2.2316126814	-0.1421458866	-0.177082
C	 1.1815088129	-0.8301868749	 0.0575925623	 0.351781
O	 2.2520034521	-0.3843057146	-0.2485694197	-0.308371
H	 0.6081782497	 1.6599767778	-0.6783790508	 0.150688
H	-1.1658835489	 1.6001143842	-0.4142469787	 0.125965
H	-0.0732140623	 2.0116124587	 0.905029266	 0.148313
H	-2.6380927585	-1.9594390829	-0.8246026252	 0.131921
H	-1.6867568651	-0.7059658838	-1.6924943312	 0.124277
H	-0.5482042567	-3.4710196877	-1.4011456195	 0.123824
H	-0.4875795547	-3.0682069352	 1.4788720725	 0.113575
81.5031	124.3539	197.0194	266.2113	384.8539	461.7493	471.9546	557.1135	632.1054	688.3493	722.9856	752.6496	788.2128	823.801	868.9262	884.2383	943.8392	977.0456	1009.9178	1020.5686	1033.239	1049.163	1081.7855	1111.9196	1185.1391	1198.1198	1217.7454	1241.4125	1318.6487	1401.1685	1460.0536	1480.5595	1490.2543	1603.2578	1828.6042	3022.6312	3048.5123	3074.1782	3115.6212	3120.1581	3176.2358	3199.8891
CC1=C2CC3C2N3C1=O	C[C]1[C]2C[C@@H]3[C@H]2N3C1=O	
InChI=1S/C7H7NO/c1-3-4-2-5-6(4)8(5)7(3)9/h5-6H,2H2,1H3	InChI=1S/C7H7NO/c1-3-4-2-5-6(4)8(5)7(3)9/h5-6H,2H2,1H3/t5-,6+,8?/m1/s1
