18
gdb 22982	2.78845	1.13604	0.91102	2.1874	76.72	-0.2309	-0.0257	0.2052	1298.7332	0.144891	-439.058328	-439.048823	-439.047879	-439.093564	34.144	
C	-0.2673740916	 1.4672451659	 0.0413815877	-0.498146
C	-0.0232496074	-0.0134931639	 0.1272318639	 0.348436
N	 0.1262165348	-0.6986979143	 1.1956102306	-0.172368
O	 0.0627603115	 0.0830806554	 2.3583814638	-0.394685
C	 0.0142128904	-0.7696794487	-1.1707956565	-0.176697
C	 0.11977615	-2.3231283084	-1.199314069	-0.251117
C	-1.1118865252	-2.4122684599	-2.1507971192	-0.33694
C	-1.3396093286	-0.9125290783	-1.9249719704	 0.393052
O	-2.2322002671	-0.1524555969	-2.161398877	-0.291384
H	 0.6044366223	 1.9689115363	-0.3962726608	 0.132011
H	-1.116798283	 1.6560756003	-0.6229309881	 0.161812
H	-0.4609189284	 1.8962392555	 1.023043661	 0.154654
H	 0.1773929168	-0.5777916202	 3.0489228512	 0.305761
H	 0.7354253155	-0.2916143432	-1.8484614469	 0.109766
H	 1.055561307	-2.718083106	-1.5948681486	 0.109053
H	-0.0648013855	-2.753954182	-0.2163001327	 0.137097
H	-0.8635569751	-2.6312256289	-3.194597593	 0.134025
H	-1.9406476366	-3.0597566727	-1.8529274461	 0.135668
55.5705	62.8493	102.0677	135.8073	203.0334	295.7052	322.5855	380.3678	397.2193	417.9955	502.0799	564.2706	600.5628	676.9544	742.8088	765.0296	883.2264	931.3906	945.5243	998.2809	1005.8595	1029.2642	1069.0098	1077.379	1096.009	1190.1998	1210.4552	1223.6884	1229.2854	1264.8916	1334.1855	1394.9921	1403.876	1437.9955	1482.4984	1490.1943	1494.7309	1729.7849	1884.0802	3016.0646	3036.3725	3057.1721	3095.4975	3099.7804	3110.7039	3160.4072	3168.2189	3823.9407
CC(=NO)C1CCC1=O	CC(=NO)[C@H]1CCC1=O	
InChI=1S/C6H9NO2/c1-4(7-9)5-2-3-6(5)8/h5,9H,2-3H2,1H3	InChI=1S/C6H9NO2/c1-4(7-9)5-2-3-6(5)8/h5,9H,2-3H2,1H3/t5-/m1/s1
