13
gdb 21627	5.17326	1.42809	1.15738	3.9879	56.07	-0.2506	-0.0008	0.2499	966.868	0.096501	-431.921209	-431.913883	-431.912939	-431.953074	26.472	
N	-0.1555999899	 1.2505604138	-0.1003417765	-0.593751
C	-0.0850063138	-0.1008525755	-0.0461133026	 0.507142
N	-1.0494992673	-0.9611225344	-0.2393372703	-0.404517
C	-0.4026076718	-2.1509084547	 0.0018102865	 0.357776
C	-1.1431580798	-3.4519509608	-0.0934714777	-0.159848
O	-1.9554574228	-3.4948361985	-1.2481443436	-0.412385
N	 0.8596013742	-2.0594909336	 0.311694045	-0.195581
O	 1.084410391	-0.6497053806	 0.2899784573	-0.210136
H	 0.710994232	 1.7524211519	-0.2069912187	 0.280235
H	-0.9540646285	 1.6283567664	-0.583448869	 0.282735
H	-0.4310480963	-4.2784780062	-0.1500281991	 0.13896
H	-1.7381201247	-3.5827252131	 0.8253310331	 0.111369
H	-2.4137375023	-2.6469002249	-1.2940755543	 0.298002
72.0319	147.3125	225.3852	329.3382	363.5637	385.1088	418.5131	446.7619	475.3933	638.5498	717.9539	767.392	813.5635	880.1733	997.4407	1022.391	1045.4861	1079.6927	1124.8365	1219.1747	1361.9997	1366.4852	1420.6322	1458.6352	1497.6948	1583.8738	1612.4708	1687.4228	2972.6972	3108.329	3606.1821	3723.0292	3789.7368
NC1=NC(CO)=NO1	Nc1nc(CO)no1	
InChI=1S/C3H5N3O2/c4-3-5-2(1-7)6-8-3/h7H,1H2,(H2,4,5,6)	InChI=1S/C3H5N3O2/c4-3-5-2(1-7)6-8-3/h7H,1H2,(H2,4,5,6)
