18
gdb 26241	3.82491	1.06853	0.88059	3.2399	75.49	-0.2354	0.0019	0.2373	1332.5363	0.146689	-439.131486	-439.122239	-439.121295	-439.166067	33.181	
C	-0.0963108563	 1.4706355588	-0.3731810487	-0.390049
C	-0.0288276026	 0.046919931	 0.1916845429	 0.048637
O	 0.5245193768	 0.0625938476	 1.4898512771	-0.43965
C	-1.3780448636	-0.607908959	 0.2370687482	 0.368417
N	-1.9574765776	-1.0786135745	 1.2933715722	-0.331612
C	-3.1686438461	-1.5841535448	 0.8288185942	-0.195676
C	-3.2570631088	-1.3886431556	-0.5080970829	 0.319563
C	-4.2641477746	-1.6911136318	-1.5538501027	-0.495386
O	-2.0967392261	-0.7547705195	-0.8992239357	-0.212894
H	 0.9064930026	 1.9050295184	-0.3704336614	 0.129621
H	-0.4771678796	 1.4667530396	-1.3985303883	 0.121418
H	-0.7464277195	 2.092998311	 0.2481339704	 0.125578
H	 0.6143843582	-0.5559485864	-0.4715239292	 0.094478
H	-0.1053560837	-0.3874462524	 2.0702147682	 0.298472
H	-3.8830321514	-2.0492985142	 1.4892058411	 0.126143
H	-4.6190317434	-0.7790434577	-2.0464531411	 0.144551
H	-3.8536797838	-2.3467621746	-2.3297671468	 0.144755
H	-5.1231165305	-2.1920523859	-1.1019287375	 0.143633
40.3139	119.9328	145.8421	171.7987	237.5139	253.8488	277.8439	320.3417	349.8433	461.7804	492.3766	644.1967	660.7256	696.6619	759.775	844.1855	913.1642	973.3703	983.1629	1027.2316	1053.8055	1067.724	1100.4605	1153.8215	1159.9026	1229.7372	1246.6055	1298.7698	1345.9476	1366.5645	1401.0215	1418.0454	1448.2943	1471.8841	1487.7011	1491.8421	1499.1498	1610.5916	1652.7883	2958.9542	3034.1112	3045.0942	3086.662	3125.0605	3129.1875	3131.2262	3265.1522	3735.0715
CC(O)C1=NC=C(C)O1	C[C@@H](O)c1ncc(C)o1	
InChI=1S/C6H9NO2/c1-4-3-7-6(9-4)5(2)8/h3,5,8H,1-2H3	InChI=1S/C6H9NO2/c1-4-3-7-6(9-4)5(2)8/h3,5,8H,1-2H3/t5-/m1/s1
