20
gdb 114568	2.58607	1.20582	0.95777	1.8609	86.74	-0.2313	0.0197	0.2509	1310.8619	0.169721	-365.93793	-365.92879	-365.927846	-365.971803	34.801	
C	 0.0870193814	 1.578147543	 0.1312090471	-0.383154
C	-0.1089496843	 0.0629078276	 0.0110872417	-0.205206
C	 0.6320743969	-0.5332402097	-1.1808226129	-0.04121
C	 2.1824845796	-0.6362756286	-1.189962294	-0.181951
N	 2.1603739622	-2.1071399415	-1.5184019596	-0.163179
C	 1.4836055785	-2.7421589335	-0.3843344919	-0.271264
C	 0.6212522474	-2.0584873868	-1.3823542597	 0.143918
C	-0.2775204263	-2.7528369812	-2.2429336765	 0.212441
C	-1.071147906	-3.3048735084	-2.9599266851	-0.404911
H	 1.1451562426	 1.8345426707	 0.2540477249	 0.118448
H	-0.2766528811	 2.0966547836	-0.7627173159	 0.118056
H	-0.4535827133	 1.9802269106	 0.9931739079	 0.116308
H	 0.2222646641	-0.4236784222	 0.9366946967	 0.094641
H	-1.1777292466	-0.1655444705	-0.0895949741	 0.107444
H	 0.2904413527	-0.0497693892	-2.1009143872	 0.087802
H	 2.6669110928	-0.0783466523	-1.9923662682	 0.115246
H	 2.6921987507	-0.4185402715	-0.2441243453	 0.102734
H	 1.5044829788	-3.8263441646	-0.4278835248	 0.131934
H	 1.6045434369	-2.322077662	 0.6126336872	 0.111259
H	-1.7612330671	-3.8009019934	-3.5964175603	 0.190645
77.6315	119.3494	157.2986	160.8991	212.642	268.6528	353.7256	408.9332	455.4415	506.8854	546.1299	590.975	629.9599	655.8225	720.5294	758.4423	789.104	851.0311	871.8247	945.5319	967.9278	988.7917	1013.0883	1077.7911	1103.3318	1125.0019	1143.5365	1163.907	1202.8489	1229.7607	1242.5397	1288.2008	1305.4688	1343.8044	1347.3792	1404.8642	1413.3191	1484.2636	1490.2818	1499.4472	1505.485	1510.7464	2230.4375	3023.5635	3031.2159	3037.7631	3050.9277	3068.5007	3097.4158	3098.995	3106.1732	3118.3021	3200.6168	3502.5099
CCC1CN2CC12C#C	CC[C@H]1CN2C[C@@]12C#C	
InChI=1S/C8H11N/c1-3-7-5-9-6-8(7,9)4-2/h2,7H,3,5-6H2,1H3	InChI=1S/C8H11N/c1-3-7-5-9-6-8(7,9)4-2/h2,7H,3,5-6H2,1H3/t7-,8-,9?/m0/s1
