21
gdb 62807	2.20408	1.52219	1.32614	0.6459	90.25	-0.2526	0.0451	0.2977	1124.7647	0.181164	-349.875385	-349.86618	-349.865236	-349.909082	35.98	
C	-0.1357715686	 1.5314045632	 0.0438557212	-0.47048
C	-0.0172135771	 0.0044968493	-0.0072993505	 0.325312
C	-1.4306031481	-0.5490882105	-0.216898748	-0.470485
C	 1.1839700735	-0.6443545711	-0.7946939754	-0.114875
C	 2.1479655553	-0.125313451	 0.3119687414	-0.274401
C	 0.9098000997	-0.7081277257	 1.0749639894	 0.240269
C	 1.032132359	-1.918185346	 0.0871893371	-0.2744
C	 0.6909398051	-0.7495609464	 2.4918021259	 0.063459
C	 0.4840809454	-0.7695134112	 3.6775453227	-0.375004
H	 0.8088000864	 2.0607431689	 0.1659485578	 0.116792
H	-0.6006881898	 1.8993986346	-0.8777361324	 0.114882
H	-0.7874487017	 1.826282464	 0.873841475	 0.124168
H	-1.8632363975	-0.1277980767	-1.1313588204	 0.114875
H	-1.4906447979	-1.6340435266	-0.2981103202	 0.116787
H	-2.0760927535	-0.2455394304	 0.6147992597	 0.124182
H	 1.3509416503	-0.6131974676	-1.8720877632	 0.070856
H	 3.0734609851	-0.6914584393	 0.4383757516	 0.096149
H	 2.33803183	 0.9427302201	 0.3881170251	 0.099917
H	 0.1612628403	-2.5548221856	-0.0503710872	 0.099919
H	 1.9348266882	-2.520969294	 0.2090011261	 0.096148
H	 0.3071843958	-0.7907027081	 4.7241889444	 0.175929
72.3436	112.6489	126.5724	188.1688	227.939	339.3218	393.7967	421.029	477.1158	517.7157	553.7096	573.3578	584.6669	627.4003	630.8102	692.4818	751.4895	814.6092	901.3213	940.8124	944.5771	949.0313	967.2806	1000.2071	1014.1456	1052.0029	1076.1641	1130.0669	1145.9421	1150.4012	1199.0836	1201.3286	1224.552	1228.973	1271.6941	1293.4853	1406.2484	1424.1916	1475.4189	1482.5637	1504.1071	1510.1468	1522.9666	1557.3305	2227.258	3033.1596	3039.9713	3075.8091	3080.9522	3085.5202	3092.3513	3108.3174	3134.5275	3137.7472	3161.7031	3162.6304	3502.5838
CC1(C)C2CC1(C2)C#C	CC1(C)[C@H]2C[C@@]1(C2)C#C	
InChI=1S/C9H12/c1-4-9-5-7(6-9)8(9,2)3/h1,7H,5-6H2,2-3H3	InChI=1S/C9H12/c1-4-9-5-7(6-9)8(9,2)3/h1,7H,5-6H2,2-3H3/t7-,9+
