15
gdb 48044	7.9739	0.44727	0.42613	2.4591	79.26	-0.2701	-0.0718	0.1983	2339.1671	0.110544	-416.773783	-416.763908	-416.762963	-416.810782	32.039	
O	-0.0698776286	-0.0693094438	 0.0115234693	-0.223217
C	-0.0116408179	 1.1380749532	 0.025570423	 0.019894
C	 1.2176255021	 1.8916530424	 0.0182534853	 0.106075
C	 2.231791509	 2.5464104545	 0.0213389562	 0.032769
C	 3.465268292	 3.316817796	-0.000720642	-0.289523
N	 3.2087478731	 4.7555178433	 0.082834012	-0.297309
C	 4.4363301937	 5.5348904025	-0.0372138966	-0.259548
C	 4.1486529105	 6.9702317815	-0.0021801009	 0.260095
N	 3.9228847743	 8.1026045497	 0.0011793274	-0.288516
H	-0.9256593063	 1.7649584565	 0.0458708915	 0.10656
H	 4.0833260119	 3.0260941211	 0.8604199905	 0.156507
H	 4.0429289475	 3.0256502159	-0.8993685533	 0.131994
H	 2.550595947	 5.0297886006	-0.6391623041	 0.243472
H	 5.0921146993	 5.2924203357	 0.8087865074	 0.162873
H	 5.0178620924	 5.3252208508	-0.9540094259	 0.137876
39.6014	53.8042	80.679	93.7786	138.1675	190.9095	219.3443	304.6735	391.6807	402.1442	453.7379	580.3675	616.2934	766.576	834.1212	952.8147	962.0192	1011.6501	1020.8232	1105.2907	1128.2063	1165.7594	1219.8782	1281.7505	1340.3822	1412.1026	1421.4617	1480.3899	1494.6876	1495.5485	1770.3135	2335.5871	2372.0148	2919.3362	2926.6422	2938.1549	3023.8749	3046.1144	3532.3712
O=CC#CCNCC#N	O=CC#CCNCC#N	
InChI=1S/C6H6N2O/c7-3-5-8-4-1-2-6-9/h6,8H,4-5H2	InChI=1S/C6H6N2O/c7-3-5-8-4-1-2-6-9/h6,8H,4-5H2
