18
gdb 113052	3.07839	0.90973	0.77673	5.018	72.71	-0.2646	0.0232	0.2878	1457.786	0.147193	-439.078204	-439.069098	-439.068154	-439.113428	32.515	
O	-0.0949594455	 1.2276778697	 0.6653308075	-0.416537
C	-0.0159178169	-0.1170517314	 0.2455921775	-0.064563
C	-1.3657828791	-0.6060130277	-0.2467263152	 0.13862
C	-1.6083876564	-2.1253735363	-0.3608278093	-0.350944
C	-2.7125863125	-1.8849521161	 0.6903447297	 0.165437
C	-2.5879264814	-2.6450568996	 2.0144246421	-0.357315
C	-3.5599098481	-2.1994551845	 3.0104641042	 0.26632
N	-4.3371695195	-1.8481844658	 3.7894887427	-0.297865
O	-2.3559027823	-0.4941914634	 0.8156450285	-0.316016
H	-0.8131799441	 1.2700863861	 1.30874039	 0.298132
H	 0.7202068734	-0.1619864138	-0.565434132	 0.112772
H	 0.3364338293	-0.7770921224	 1.0564345852	 0.079145
H	-1.680977681	-0.0214567213	-1.1193185857	 0.093762
H	-1.943882272	-2.4926626672	-1.3303753769	 0.12386
H	-0.7752671653	-2.7403436361	-0.0094184786	 0.113969
H	-3.7333950262	-1.9908093064	 0.3031044447	 0.102573
H	-2.7360167437	-3.7160522542	 1.8296777475	 0.155281
H	-1.5778156688	-2.5159754396	 2.4177426682	 0.153369
37.6133	76.2237	105.8315	144.3601	226.201	326.0716	374.9002	390.9179	397.9701	453.8433	492.812	538.7536	717.9531	848.7032	857.2014	895.6307	925.2522	950.4491	1028.0212	1039.2186	1042.0654	1085.4104	1109.2211	1134.9531	1163.4749	1221.2126	1234.5292	1256.2174	1286.2823	1299.2722	1334.0953	1354.8993	1385.1648	1409.7706	1435.5073	1451.6035	1489.9969	1496.2697	2366.2428	2961.3477	3029.9129	3038.9069	3042.1006	3068.1532	3069.4514	3089.5023	3138.9941	3787.9318
OCC1CC(CC#N)O1	OC[C@H]1C[C@@H](CC#N)O1	
InChI=1S/C6H9NO2/c7-2-1-5-3-6(4-8)9-5/h5-6,8H,1,3-4H2	InChI=1S/C6H9NO2/c7-2-1-5-3-6(4-8)9-5/h5-6,8H,1,3-4H2/t5-,6-/m1/s1
