21
gdb 84883	2.16498	1.75612	1.23699	1.6943	83.46	-0.241	0.0266	0.2676	1109.8606	0.183403	-387.092965	-387.084558	-387.083614	-387.125636	33.204	
C	-0.0960570911	 1.5902619137	-0.0187240965	-0.394261
C	 0.0358426986	 0.0544374788	 0.0291968033	-0.094025
C	 0.7080211096	-0.4736769917	-1.2173270795	-0.053498
C	 1.8945987547	-1.0798529458	-1.2318890362	-0.064147
C	 2.7243162092	-1.3176139414	 0.0028338103	-0.249522
C	 2.2793990427	-0.4160347646	 1.1659309556	-0.286889
C	 0.7695760369	-0.4276898508	 1.2761516828	 0.432856
C	 0.1043739318	-0.3921761117	 2.5831039662	-0.25062
O	 0.2345583886	-1.6255637129	 1.8708198146	-0.291275
H	 0.8866757164	 2.072450247	-0.0230935731	 0.119882
H	-0.61888906	 1.9030093054	-0.9282663271	 0.116185
H	-0.6590406975	 1.9665977386	 0.8411672307	 0.113336
H	-0.9761052713	-0.3686440425	 0.0826742929	 0.091016
H	 0.1641812665	-0.3281328296	-2.1484886553	 0.082985
H	 2.298048875	-1.443782445	-2.1739530514	 0.08488
H	 2.6395775015	-2.3713418542	 0.3032585392	 0.125682
H	 3.785640345	-1.1531185813	-0.2179487757	 0.100216
H	 2.7255365052	-0.7469805581	 2.1081438065	 0.099847
H	 2.618110334	 0.6110142565	 0.9818522619	 0.10373
H	 0.6992296736	-0.3097720647	 3.4926954594	 0.10702
H	-0.9124017993	-0.0077344657	 2.6649654614	 0.106601
94.1577	146.1566	226.0445	239.3709	254.8756	320.1397	391.4352	395.8384	488.4732	513.6344	555.6043	671.7398	723.7097	763.1041	825.8747	852.8698	876.0249	925.9431	940.7603	987.0898	1006.0479	1027.5818	1036.205	1045.51	1096.3358	1112.2528	1130.3568	1156.4692	1170.5309	1204.1077	1253.123	1289.203	1306.6026	1317.6678	1351.8774	1369.4186	1400.3249	1417.5615	1440.369	1469.9349	1481.9006	1495.6317	1500.8328	1532.0393	1722.1982	3013.9204	3018.3291	3031.4585	3034.3081	3053.3604	3071.6438	3089.4863	3103.6142	3107.9064	3137.3824	3154.3598	3161.9373
CC1C=CCCC11CO1	C[C@H]1C=CCC[C@]21CO2	
InChI=1S/C8H12O/c1-7-4-2-3-5-8(7)6-9-8/h2,4,7H,3,5-6H2,1H3	InChI=1S/C8H12O/c1-7-4-2-3-5-8(7)6-9-8/h2,4,7H,3,5-6H2,1H3/t7-,8+/m0/s1
