23
gdb 90995	3.22316	1.48643	1.45402	0.092	87.73	-0.2757	0.0895	0.3652	1055.6753	0.210377	-351.165089	-351.157942	-351.156998	-351.196126	30.921	
C	-0.1692216851	 1.5364889089	 0.018630194	-0.414245
C	 0.0307507684	 0.0179503699	-0.0158364377	 0.044691
C	 0.9086526954	-0.4486003914	-1.2242475326	-0.265511
C	 2.2365160234	-0.8454145373	-0.5679781141	 0.017042
C	 2.2615035832	-2.1597514355	 0.2994773649	-0.027638
C	 3.1747605722	-1.3870677777	 1.289409929	-0.238778
C	 2.3167181245	-0.1830706821	 0.8423727681	-0.02808
C	 0.8352940442	-0.5275711147	 1.1868169947	-0.004603
C	 0.9108172938	-2.0809319212	 1.0387024933	-0.232188
H	 0.7870327384	 2.0708345464	 0.0234407831	 0.114689
H	-0.7294806857	 1.8764824934	-0.8591758169	 0.109949
H	-0.7262817333	 1.8434698925	 0.9108389258	 0.108163
H	-0.9571997601	-0.4563665679	-0.045013659	 0.061434
H	 0.4548773167	-1.2831314793	-1.7692699139	 0.094383
H	 1.0482752329	 0.361940117	-1.9475616009	 0.092034
H	 3.1284031022	-0.7352890254	-1.1872011697	 0.059201
H	 2.5516363132	-3.1229510403	-0.123041601	 0.052399
H	 3.1605991047	-1.6891500015	 2.341572192	 0.082742
H	 4.2078870434	-1.3033287909	 0.9416326233	 0.090864
H	 2.6398285526	 0.8475806797	 0.990039116	 0.056506
H	 0.4736874375	-0.1791241072	 2.1568721215	 0.050121
H	 0.0680828495	-2.4845183369	 0.469153292	 0.087619
H	 0.9475382478	-2.6050698783	 1.998483038	 0.089205
150.6705	238.8143	263.3899	330.9517	379.4328	431.3961	471.8257	599.8716	683.1918	713.1635	777.871	807.7798	829.8369	846.6584	866.3094	897.1644	914.9706	947.2445	951.5843	961.2505	989.8289	1008.8534	1032.0891	1044.7388	1054.5665	1071.7231	1095.773	1105.2102	1127.2565	1173.5624	1185.4547	1201.4846	1223.0692	1238.8195	1249.3205	1262.2983	1281.1298	1290.8524	1316.1364	1319.6446	1335.1961	1352.2542	1375.3987	1410.1973	1490.3263	1497.0316	1498.6031	1501.9273	1519.1248	3025.9368	3027.1685	3040.1223	3042.6481	3046.9009	3074.231	3080.3308	3089.1439	3092.411	3094.7001	3096.3558	3100.1665	3104.14	3115.2943
CC1CC2C3CC2C1C3	C[C@H]1C[C@@H]2[C@H]3C[C@@H]2[C@@H]1C3	
InChI=1S/C9H14/c1-5-2-8-6-3-7(5)9(8)4-6/h5-9H,2-4H2,1H3	InChI=1S/C9H14/c1-5-2-8-6-3-7(5)9(8)4-6/h5-9H,2-4H2,1H3/t5-,6+,7+,8+,9+/m0/s1
