20
gdb 107008	3.11447	1.18388	1.01246	2.8062	74.75	-0.2351	0.054	0.2891	1237.9923	0.170778	-440.237025	-440.227805	-440.226861	-440.270788	34.942	
C	-0.1244658239	 1.5945861271	-0.0971475544	-0.405027
C	-0.0301102338	 0.0935286373	 0.1266063508	-0.016293
C	 0.5225976863	-0.7904144923	-0.9978178264	-0.131537
N	 1.9508580972	-0.4065310196	-1.177446475	-0.391191
C	 1.5736750561	-1.3687708086	-0.1157946041	 0.311242
C	 2.1836699693	-2.7405827255	-0.0747209266	-0.225093
O	 2.2648875985	-3.327238727	-1.3687565734	-0.409703
C	 1.1385564774	-0.4630695334	 1.0509886013	 0.056001
O	 2.10443802	 0.4357749526	 1.5179489361	-0.433188
H	 0.7940221712	 1.9824340489	-0.5443496284	 0.127062
H	-0.9550241281	 1.837372549	-0.7687435972	 0.108268
H	-0.2893031953	 2.1189306537	 0.8491199971	 0.1225
H	-0.9855096551	-0.3051221678	 0.4840740315	 0.069632
H	-0.020271131	-1.2474032073	-1.8179333401	 0.083929
H	 2.3188590332	-0.9735620152	-1.9419211143	 0.239072
H	 3.2150776431	-2.6828514954	 0.2921395271	 0.128974
H	 1.6256247711	-3.3801856707	 0.625453511	 0.101099
H	 1.3696638294	-3.5522158136	-1.6427086733	 0.289201
H	 0.7562194957	-1.0082660459	 1.9177327633	 0.082922
H	 2.5573146689	 0.7550823435	 0.7246299849	 0.29213
92.7505	123.2961	159.1019	187.2242	227.7535	255.8662	310.9148	325.1837	369.0545	507.4648	536.4655	571.6788	645.5706	689.8089	703.6654	798.2	859.0936	881.7626	919.3321	987.5515	1005.0176	1019.2416	1042.1042	1068.9335	1072.3733	1135.1388	1146.4265	1152.0271	1186.5134	1223.1231	1236.7318	1271.1748	1299.0253	1336.8324	1375.4336	1388.5676	1404.4517	1412.4724	1428.0973	1460.5732	1488.9011	1501.1082	1504.083	2993.4495	3037.6104	3049.04	3061.685	3083.0214	3102.0454	3123.0933	3172.3228	3471.7725	3743.3736	3815.2518
CC1C2NC2(CO)C1O	C[C@H]1[C@H]2N[C@@]2(CO)[C@H]1O	
InChI=1S/C6H11NO2/c1-3-4-6(2-8,7-4)5(3)9/h3-5,7-9H,2H2,1H3	InChI=1S/C6H11NO2/c1-3-4-6(2-8,7-4)5(3)9/h3-5,7-9H,2H2,1H3/t3-,4+,5-,6+/m0/s1
