14
gdb 18900	3.2382	2.58109	1.83573	0.1047	60.25	-0.2157	0.0632	0.2789	726.9541	0.105752	-382.411172	-382.404694	-382.40375	-382.44125	26.301	
O	 0.181380117	 1.3839735573	-0.1548604589	-0.452448
C	 0.0560200573	 0.0260745912	-0.0441685438	 0.298083
C	 0.8549737733	-1.0187848193	-0.7893157333	-0.137435
C	 0.8616394427	-1.0005983973	 0.747194903	-0.179793
C	-0.3589283189	-1.9635005677	 0.7560917637	-0.137435
C	-0.3530968195	-1.9973177239	-0.7801577164	-0.179793
C	-1.1899065266	-0.9697126894	-0.0231149051	 0.298083
O	-2.5436949359	-0.7911479853	 0.0619085595	-0.452448
H	-0.0253615424	 1.7805024286	 0.6996883954	 0.292014
H	 1.674366409	-0.8758383407	-1.4811214597	 0.091843
H	 1.6918409158	-0.8634227962	 1.4280928594	 0.087736
H	-0.6900655201	-2.7171348121	 1.458100838	 0.091843
H	-0.6586186407	-2.7907393136	-1.4500922587	 0.087736
H	-2.8709815211	-0.5197307715	-0.8037975829	 0.292014
198.644	250.816	310.8351	369.9067	396.9781	428.0892	586.5146	636.669	649.9461	751.5824	793.3657	841.8607	847.8626	852.4528	886.1424	898.7118	903.6719	935.909	947.6852	1022.3941	1035.4558	1155.2395	1175.9423	1213.7532	1215.229	1236.2467	1299.2898	1308.6505	1456.1761	1461.9207	3186.7128	3195.8798	3203.8056	3208.9807	3778.2639	3778.3814
OC12C3C1C1C3C21O	O[C@@]12[C@H]3[C@@H]1[C@@H]1[C@H]3[C@]21O	
InChI=1S/C6H6O2/c7-5-1-2(5)4-3(1)6(4,5)8/h1-4,7-8H	InChI=1S/C6H6O2/c7-5-1-2(5)4-3(1)6(4,5)8/h1-4,7-8H/t1-,2+,3-,4+,5-,6+
