16
gdb 53222	4.17127	0.85557	0.78085	3.7415	83.15	-0.2501	-0.0314	0.2187	1485.2485	0.123797	-400.744515	-400.735773	-400.734828	-400.780038	30.808	
C	-0.0050608831	 1.5049310795	 0.0016582861	-0.498123
C	 0.0321364219	 0.0509165426	 0.0320038166	 0.043519
C	 0.0678629116	-1.1514246827	 0.0680692688	 0.108992
C	 0.0999613096	-2.610030025	 0.0855829672	-0.122619
O	 0.5880656675	-3.112355443	 1.3480882446	-0.23941
C	-0.3477197949	-3.9499471079	 1.9104015826	 0.393721
N	-0.2136920182	-4.5529293016	 3.0146729386	-0.546466
C	-1.5014430925	-4.0162291041	 1.0029550714	-0.138001
C	-1.2643446174	-3.2510863295	-0.0588218092	-0.08789
H	 0.5609454239	 1.8995461925	-0.8489141893	 0.153338
H	-1.0326361631	 1.8757424759	-0.0767433392	 0.153524
H	 0.4312324187	 1.9237653342	 0.9148494926	 0.159131
H	 0.7864741193	-2.9707140431	-0.6947412967	 0.128256
H	 0.6858736122	-4.3255199422	 3.4410199238	 0.224623
H	-2.3743200078	-4.6118766267	 1.2247008265	 0.134691
H	-1.9004069778	-3.0639262792	-0.9125012143	 0.132714
17.8702	65.4403	95.4851	178.8652	256.2696	312.0396	363.9783	425.9807	461.1581	525.1206	661.0394	699.0292	791.0402	811.5127	845.8036	884.774	904.8539	941.3455	975.2677	1015.1187	1050.3305	1054.3653	1080.2785	1105.3983	1181.8184	1250.3879	1321.4233	1328.2253	1376.6091	1413.49	1475.0239	1477.0721	1665.1701	1762.0323	2374.1955	2994.4113	3030.8982	3093.7989	3094.9348	3234.9401	3262.1575	3481.6492
CC#CC1OC(=N)C=C1	CC#C[C@H]1OC(=C[CH]1)[NH]	
InChI=1S/C7H7NO/c1-2-3-6-4-5-7(8)9-6/h4-6,8H,1H3	InChI=1S/C7H7NO/c1-2-3-6-4-5-7(8)9-6/h4-6,8H,1H3/t6-/m1/s1
