20
gdb 103540	2.49768	1.39847	1.1505	2.1838	74.75	-0.2502	0.0137	0.264	1152.3536	0.170721	-440.30584	-440.296673	-440.295728	-440.339827	34.613	
C	-0.3898658787	 1.4464147838	-0.0105526002	-0.409123
C	 0.1195358969	 0.0168258705	-0.0427523212	 0.069598
O	 1.1877409484	-0.0813124945	-1.0353864528	-0.233047
C	 2.1739924687	-0.7807716907	-0.4413081031	 0.111015
N	 2.0691361878	-1.1228097205	 0.7740782695	-0.312346
C	 0.7674512731	-0.584001249	 1.2506749876	 0.225026
C	 1.0338624699	 0.4177171992	 2.3798935362	-0.419417
C	-0.0468974981	-1.7832312592	 1.7775227014	-0.075655
O	 0.6405449555	-2.4779969115	 2.7926953018	-0.424434
H	 0.3906360378	 2.1448509616	 0.3000630183	 0.131236
H	-0.7389007136	 1.7397112884	-1.0043471364	 0.131055
H	-1.2314031598	 1.5340683684	 0.6832188579	 0.12668
H	-0.6807640058	-0.6455966126	-0.3973834224	 0.090252
H	 3.0213870681	-0.9965910752	-1.0839067559	 0.141708
H	 1.7231487327	 1.2042084182	 2.0622085822	 0.116619
H	 0.1044348767	 0.8841307014	 2.7211780738	 0.111795
H	 1.4780709101	-0.1116561438	 3.2245479687	 0.139078
H	-0.9948213022	-1.4387153347	 2.2084235943	 0.102723
H	-0.2850718562	-2.4447673699	 0.9280407905	 0.082379
H	 1.5301127188	-2.6285711799	 2.4458393597	 0.294858
44.5928	126.4383	205.7074	238.798	263.9607	291.776	293.2971	324.242	347.8784	457.5394	497.5523	510.0074	598.6548	668.333	750.5669	839.1093	845.081	922.7266	946.2541	964.9928	972.8105	1045.3467	1073.0314	1082.9687	1105.0544	1149.2736	1170.2727	1209.8465	1221.6304	1265.4493	1327.0311	1360.3617	1380.908	1385.5907	1410.938	1414.6281	1438.7898	1477.4342	1487.3136	1499.1906	1503.3292	1508.5452	1702.946	2963.0729	3017.536	3044.8491	3050.2932	3055.2484	3114.6324	3120.1362	3132.3076	3141.1099	3205.9565	3762.6714
CC1OC=NC1(C)CO	C[C@H]1OC=N[C@]1(C)CO	
InChI=1S/C6H11NO2/c1-5-6(2,3-8)7-4-9-5/h4-5,8H,3H2,1-2H3	InChI=1S/C6H11NO2/c1-5-6(2,3-8)7-4-9-5/h4-5,8H,3H2,1-2H3/t5-,6-/m1/s1
