19
gdb 97825	5.63541	0.62377	0.59193	1.9069	86.59	-0.2441	0.0211	0.2652	1871.0853	0.159343	-385.866526	-385.857198	-385.856254	-385.90297	33.336	
O	 0.1178845475	 1.3073730626	 1.1033557778	-0.403481
C	 0.098306268	 0.3523917397	 0.0494347166	-0.191562
C	-1.1955608795	-0.3082116851	-0.1167886382	 0.078253
C	-2.2866188403	-0.8056234541	-0.2438985745	 0.027762
C	-3.5912215825	-1.4305971625	-0.4030619464	-0.157287
C	-4.2070477458	-1.3079490109	-1.8332379739	-0.256597
C	-5.0063005219	-2.5816486614	-1.9627520655	-0.064325
C	-4.6928024889	-3.470793251	-1.0222705731	-0.063724
C	-3.624951599	-2.9598645434	-0.0862748438	-0.256355
H	-0.6408784453	 1.8863841972	 0.9768763949	 0.285723
H	 0.4004889987	 0.8091512305	-0.9070844073	 0.114347
H	 0.8700859547	-0.3831697982	 0.3030640128	 0.137194
H	-4.2912182434	-0.9460398848	 0.2891875613	 0.108123
H	-4.8077748404	-0.3985466125	-1.9390519902	 0.108529
H	-3.421204529	-1.2551891245	-2.5984745124	 0.116458
H	-5.7164578789	-2.74264959	-2.7662705047	 0.093968
H	-5.1078701426	-4.4692218588	-0.9400430652	 0.094362
H	-2.6552474211	-3.428805218	-0.2994937317	 0.11769
H	-3.8376145803	-3.1492564049	 0.9708932534	 0.110923
13.115	68.855	95.2536	129.0406	224.9124	259.7769	327.6445	396.4508	449.2525	513.2884	523.8806	586.3054	716.062	775.4185	794.1954	889.2315	920.4253	953.2449	974.3235	978.0638	990.8818	1036.3681	1046.1722	1063.5436	1130.3238	1146.4079	1170.9787	1197.3337	1215.6183	1290.2643	1300.5829	1304.8467	1355.9257	1360.7586	1364.0507	1419.8152	1486.259	1493.2679	1494.4033	1687.5443	2356.2785	2970.8681	3016.8869	3022.4781	3026.5187	3058.2807	3067.4539	3072.3696	3182.8181	3207.9427	3817.6749
OCC#CC1CC=CC1	OCC#C[C@H]1CC=CC1	
InChI=1S/C8H10O/c9-7-3-6-8-4-1-2-5-8/h1-2,8-9H,4-5,7H2	InChI=1S/C8H10O/c9-7-3-6-8-4-1-2-5-8/h1-2,8-9H,4-5,7H2
