16
gdb 55050	3.46335	0.87056	0.85122	2.4375	70.03	-0.2657	-0.0451	0.2206	1383.6001	0.121316	-437.891978	-437.882593	-437.881649	-437.927668	32.256	
C	 0.6356279004	-0.2540738388	-0.4665850611	-0.479441
C	-0.2617632229	 0.8726494812	-0.0090435179	 0.33343
O	 0.1109373596	 2.0147737926	 0.1252452098	-0.291205
C	-1.7251599812	 0.5554761341	 0.2283304878	-0.0564
O	-2.1445490148	-0.8115792966	 0.2517918371	-0.233963
C	-2.2233361635	-0.0758273517	 1.4648527707	 0.079204
C	-1.3099641601	-0.48022712	 2.6115203575	-0.379473
C	-1.8432142213	-1.6189829447	 3.3594774772	 0.264169
N	-2.2761031755	-2.5127831891	 3.9490406389	-0.290137
H	 1.6775912747	 0.0653083502	-0.4319589031	 0.147622
H	 0.4802553656	-1.1660930507	 0.1143505685	 0.150754
H	 0.3693121741	-0.5099603496	-1.5001159755	 0.16007
H	-2.3988640786	 1.2462329435	-0.2791892576	 0.132056
H	-3.2396142429	 0.1680811807	 1.7747083862	 0.127486
H	-0.3104529147	-0.730734987	 2.2469318898	 0.162492
H	-1.2004749189	 0.3693971758	 3.2961138915	 0.173336
41.3246	64.1915	93.2749	126.7654	171.7084	228.1887	365.9735	385.1718	396.5257	475.1295	504.5991	547.3956	618.4863	754.846	818.0961	904.4104	937.9499	956.5802	981.6661	1012.0293	1060.7753	1119.1827	1122.0294	1233.1252	1243.3336	1281.1624	1323.5778	1373.0597	1386.3144	1447.7354	1456.0105	1461.5824	1470.7462	1810.3958	2368.5682	3040.4655	3052.5456	3103.6875	3109.6786	3114.5954	3124.9244	3163.684
CC(=O)C1OC1CC#N	CC(=O)[C@H]1O[C@H]1CC#N	
InChI=1S/C6H7NO2/c1-4(8)6-5(9-6)2-3-7/h5-6H,2H2,1H3	InChI=1S/C6H7NO2/c1-4(8)6-5(9-6)2-3-7/h5-6H,2H2,1H3/t5-,6+/m0/s1
