21
gdb 57417	3.34624	1.00476	0.92969	4.4138	79.23	-0.2335	-0.0084	0.2251	1346.3977	0.179152	-424.244548	-424.234651	-424.233707	-424.278969	37.719	
C	 0.2360221573	 1.5271697193	 0.1799739259	-0.416278
C	-0.0010912223	 0.0201818928	 0.0053787288	 0.315309
C	 0.4620222496	-0.7512054481	 1.2496479522	-0.416276
O	-1.3938833659	-0.2275166707	-0.2279458017	-0.460943
C	 0.7215067576	-0.4952459741	-1.2451363719	 0.029804
C	 0.4269576422	-1.9621246723	-1.6978700087	-0.36798
C	 0.2600675323	-1.4236245829	-3.1249946446	 0.398768
O	 0.2563512672	-1.932578069	-4.2082380995	-0.296392
C	 0.2293658	 0.0294554767	-2.6329211768	-0.367979
H	 1.2991455803	 1.7493227199	 0.3178565449	 0.116373
H	-0.1234380736	 2.0779459674	-0.6932082999	 0.127868
H	-0.2972147161	 1.9009378845	 1.0620407185	 0.103714
H	-0.0691963092	-0.3978277058	 2.1412852297	 0.103714
H	 0.2632390796	-1.820221569	 1.1369385577	 0.127868
H	 1.5335241484	-0.6135246151	 1.4271942133	 0.116373
H	-1.8849870916	 0.0838384594	 0.5389795243	 0.279168
H	 1.7955628739	-0.3312731521	-1.1228501623	 0.075626
H	 1.1927893897	-2.7268307127	-1.5493014522	 0.119866
H	-0.5286482412	-2.3209607644	-1.3026903359	 0.145765
H	-0.7987475057	 0.4014594755	-2.5808751927	 0.145766
H	 0.8483604175	 0.7448045705	-3.1792432092	 0.119866
67.3464	96.9093	178.5255	232.2514	246.3298	264.5753	278.4517	310.0136	346.002	381.9819	428.9493	462.465	516.2932	541.1929	636.444	676.2853	726.6724	831.9777	916.752	923.2801	927.116	959.682	988.5213	1013.1052	1029.5156	1052.7128	1111.0157	1153.2747	1175.3471	1192.1522	1213.2662	1226.7262	1240.7688	1266.2516	1333.3481	1395.1985	1397.6259	1416.4674	1423.875	1446.2572	1480.1664	1483.502	1499.7952	1509.631	1893.2534	3026.0408	3031.918	3059.1781	3064.1481	3070.9034	3090.8863	3098.3376	3119.016	3121.3174	3122.4166	3123.602	3819.4733
CC(C)(O)C1CC(=O)C1	CC(C)(O)C1CC(=O)C1	
InChI=1S/C7H12O2/c1-7(2,9)5-3-6(8)4-5/h5,9H,3-4H2,1-2H3	InChI=1S/C7H12O2/c1-7(2,9)5-3-6(8)4-5/h5,9H,3-4H2,1-2H3
