19
gdb 40482	3.32893	1.49764	1.25729	1.6146	79.57	-0.2611	0.087	0.3481	1043.0069	0.160167	-385.787815	-385.780603	-385.779659	-385.819736	28.825	
C	 0.3313541266	 1.4756091543	 0.1456760084	-0.177651
O	 1.1279447398	 0.3507293101	-0.2265948401	-0.23071
C	-0.2487291197	 0.1248298129	 0.1052684253	-0.090806
C	-0.5340448112	-0.6571780736	 1.3385235301	 0.383573
C	-1.8768152377	-0.7654044012	 2.0966683067	-0.317634
C	-0.9120677046	-1.6593436415	 2.8956417656	-0.044866
C	-0.1891702469	-2.1751517609	 1.6049420303	-0.082305
C	 1.2083980091	-1.8393143251	 2.1637630801	-0.263126
C	 0.3058440889	-0.6958375507	 2.668902197	-0.084775
H	 0.5768750233	 1.9228220443	 1.1075184575	 0.112849
H	 0.1141319086	 2.1801673067	-0.65600638	 0.114216
H	-0.8708928163	-0.1269037489	-0.7565262208	 0.089499
H	-2.2356277382	 0.1443629767	 2.5899749974	 0.090696
H	-2.6977824919	-1.2680218149	 1.5738717954	 0.090753
H	-1.0997778363	-2.2430963187	 3.7975420593	 0.070802
H	-0.5073585791	-3.016226161	 0.9859241886	 0.068747
H	 1.5976405531	-2.5206174447	 2.9276170968	 0.086191
H	 1.9812548633	-1.5713671604	 1.4412901373	 0.117487
H	 0.5593376891	 0.1671450766	 3.2879299551	 0.06706
69.1719	163.9342	190.0149	365.72	382.9156	424.6896	484.128	631.1086	728.8495	768.6828	850.95	865.5764	869.7175	879.1741	891.9657	918.7573	927.665	989.407	999.4254	1012.7537	1030.0522	1058.9257	1079.8461	1112.4679	1114.9432	1128.2111	1152.5895	1158.8722	1165.4212	1172.3039	1186.0553	1220.5247	1243.344	1250.1998	1276.6647	1286.1079	1339.676	1440.3695	1506.9659	1512.43	1526.2007	3031.6527	3046.7922	3081.3131	3086.2206	3088.4508	3090.8746	3093.6639	3111.1483	3125.677	3172.6691
C1OC1C12CC3C1CC23	C1O[C@H]1[C@@]12C[C@H]3[C@@H]1C[C@@H]23	
InChI=1S/C8H10O/c1-5-4-2-8(5,6(1)4)7-3-9-7/h4-7H,1-3H2	InChI=1S/C8H10O/c1-5-4-2-8(5,6(1)4)7-3-9-7/h4-7H,1-3H2/t4-,5-,6+,7-,8-/m1/s1
