16
gdb 133732	2.03816	1.45033	1.00831	1.7174	62.33	-0.2276	0.0097	0.2374	1187.9781	0.118971	-565.570273	-565.560225	-565.55928	-565.606466	34.265	
C	-0.1338993578	 1.4822044539	-0.3167339694	-0.311712
N	-0.1232688543	 0.0348080908	-0.2722613232	-0.323022
C	-1.2701105992	-0.6607487189	-0.0092846714	 0.218386
N	-2.3950506787	-0.0789815036	 0.0948639654	-0.306886
C	-3.6403984296	-0.7900976001	 0.3000817759	-0.335702
C	-1.0431576176	-2.1798003093	 0.1022709525	 0.250325
F	-1.6392646853	-2.8366287118	-0.9002120824	-0.067137
F	 0.2641299424	-2.5035590867	 0.068376868	-0.084224
F	-1.5362567173	-2.6560222913	 1.2512551335	-0.068499
H	 0.8615492168	 1.8324501936	-0.5967685168	 0.121585
H	-0.8596504912	 1.8259105705	-1.0584523839	 0.149399
H	-0.4167596965	 1.9227491395	 0.6478039165	 0.132068
H	 0.7496676996	-0.4401430713	-0.1281650121	 0.256652
H	-4.0298541633	-0.5564050644	 1.2987990935	 0.126171
H	-4.3791305871	-0.4157567402	-0.4177126605	 0.124266
H	-3.5965570607	-1.8799964806	 0.2005927443	 0.118331
26.5058	88.2508	125.0907	136.4785	206.5606	214.4574	249.1477	275.8853	343.3671	366.7249	388.6834	474.5421	516.5134	587.2935	701.4213	730.8779	776.299	1027.366	1054.0818	1129.7467	1151.7734	1158.4777	1185.2535	1194.8654	1219.3416	1244.6945	1337.1244	1449.8437	1459.9262	1473.2618	1487.393	1509.6352	1514.6298	1553.0993	1756.5913	3015.5641	3023.4253	3067.7805	3085.5589	3092.5727	3136.4015	3685.883
CNC(=NC)C(F)(F)F	CNC(=NC)C(F)(F)F	
InChI=1S/C4H7F3N2/c1-8-3(9-2)4(5,6)7/h1-2H3,(H,8,9)	InChI=1S/C4H7F3N2/c1-8-3(9-2)4(5,6)7/h1-2H3,(H,8,9)
