19
gdb 83390	2.81116	1.69221	1.53681	1.7994	74.37	-0.2443	0.0766	0.3209	955.1132	0.161659	-422.957673	-422.950765	-422.94982	-422.988442	29.419	
O	-0.0157130675	 1.5149269371	-0.0120550759	-0.456552
C	-0.0246684578	 0.1219631985	-0.0386010512	 0.151998
C	 0.1485673356	-0.6260169793	 1.2814955248	 0.005265
O	-0.9232926747	 0.0107453786	 2.0678880186	-0.318884
C	-2.0831756625	 0.0154370522	 1.1552852015	-0.201679
C	-1.4151503413	-0.6779273792	-0.0063372206	 0.256016
C	-1.7055371742	-1.5651808346	-1.2222910007	-0.333709
C	-0.5100966856	-2.4706902082	-0.7402374267	-0.274198
C	-0.6114991742	-1.8194265246	 0.685105714	-0.021234
H	-0.2648887632	 1.7666174357	 0.8873851456	 0.293418
H	 0.6202517467	-0.2043513935	-0.8525007882	 0.0876
H	 1.0436911762	-0.6388377137	 1.9046862741	 0.075778
H	-2.9055921373	-0.5485098516	 1.6049063602	 0.108623
H	-2.3954332043	 1.0504829945	 0.9795679671	 0.102755
H	-2.6612744907	-2.0933045	-1.1517617461	 0.108943
H	-1.6313124449	-1.1010023924	-2.2093091466	 0.106683
H	-0.7052366641	-3.5442761622	-0.7424816572	 0.107446
H	 0.4234332437	-2.2963097299	-1.2776067294	 0.117072
H	-1.11758831	-2.4491223576	 1.4185247967	 0.084658
225.3583	244.2996	290.8142	322.321	380.6789	435.7701	531.1962	540.9995	616.4817	668.8582	746.4807	780.6713	824.3043	835.7364	840.1881	857.3423	898.2221	910.0139	956.2207	1002.0713	1030.5407	1070.6913	1099.1585	1100.7853	1128.1299	1168.0234	1198.0778	1199.878	1221.8837	1231.5197	1251.6639	1252.2857	1256.6194	1292.6097	1302.9013	1335.9842	1375.1776	1450.2549	1480.2968	1493.3129	1524.2917	3037.0429	3051.5395	3077.1808	3086.7743	3095.7357	3101.9042	3112.1493	3127.8623	3139.5953	3758.3626
OC1C2OCC11CCC21	O[C@H]1[C@H]2OC[C@]31CC[C@@H]23	
InChI=1S/C7H10O2/c8-6-5-4-1-2-7(4,6)3-9-5/h4-6,8H,1-3H2	InChI=1S/C7H10O2/c8-6-5-4-1-2-7(4,6)3-9-5/h4-6,8H,1-3H2/t4-,5-,6-,7+/m0/s1
