19
gdb 31816	4.50939	0.97961	0.85753	2.7667	88.6	-0.2056	-0.0125	0.1931	1390.4828	0.161269	-382.140722	-382.132069	-382.131125	-382.174423	32.91	
C	-0.2244453219	 1.530770589	 0.0525570368	-0.365388
C	 0.0715484564	 0.0250480213	-0.0312803143	-0.264268
C	 0.7358658624	-0.5043193548	 1.2179820788	 0.302361
N	 1.9900601287	-0.0924652194	 1.4550906538	-0.305206
C	 2.6109739747	-0.5165896514	 2.549112964	-0.062267
C	 2.041169815	-1.3812330447	 3.4966385324	 0.271426
N	 2.7305002973	-1.7376628158	 4.6564698362	-0.592613
C	 0.7361442604	-1.8114634567	 3.2444105718	-0.147374
C	 0.0856760584	-1.3688312008	 2.1006561712	-0.156384
H	 0.6981482457	 2.0845132954	 0.2464882268	 0.135206
H	-0.6598019782	 1.898582093	-0.8819684488	 0.105888
H	-0.9265586937	 1.7499051335	 0.8639719256	 0.110963
H	-0.8551983725	-0.5293142553	-0.2166421704	 0.091138
H	 0.7335992463	-0.1612294314	-0.884949091	 0.111156
H	 3.6296386743	-0.1581605483	 2.6990475202	 0.088747
H	 3.7358556197	-1.6710072583	 4.5834068458	 0.248745
H	 2.4527242467	-2.6211702241	 5.0592740831	 0.247124
H	 0.2395038008	-2.4837433757	 3.9385344175	 0.089094
H	-0.9269893405	-1.6977181656	 1.8908005905	 0.09165
41.9945	101.985	213.995	233.3756	279.806	319.4957	391.3698	410.2688	431.7173	496.5298	550.8112	626.9234	653.8957	738.344	782.7069	799.106	853.8593	863.2089	930.6391	965.135	981.3497	1034.6879	1061.3368	1084.7631	1108.2736	1163.2942	1245.5612	1267.9535	1308.1911	1327.2964	1341.4365	1362.8815	1401.1591	1452.6774	1479.2405	1495.6143	1508.1882	1525.5009	1611.3522	1640.1178	1659.8112	3032.6799	3035.2487	3071.1848	3103.0674	3119.6555	3121.5918	3162.1346	3184.1623	3558.3543	3655.1137
CCC1=NC=C(N)C=C1	CCc1ncc(N)cc1	
InChI=1S/C7H10N2/c1-2-7-4-3-6(8)5-9-7/h3-5H,2,8H2,1H3	InChI=1S/C7H10N2/c1-2-7-4-3-6(8)5-9-7/h3-5H,2,8H2,1H3
