14
gdb 127358	3.39825	1.73531	1.1571	3.1321	69.98	-0.2293	-0.0314	0.1979	978.8758	0.103637	-432.860327	-432.853458	-432.852513	-432.89199	25.459	
C	 0.0290927569	 1.4499291274	 0.0440641299	-0.344412
N	 0.0018189754	 0.0019782954	 0.0205704671	-0.154294
C	-0.1135709165	-0.8316429498	-1.090584304	 0.005026
N	-0.1142175896	-2.1131755171	-0.8476209307	-0.35911
C	 0.0100488792	-2.1703878487	 0.5355422121	 0.149252
C	 0.0958990836	-2.9637553438	 1.6390618202	-0.036154
O	 0.2088591169	-2.1787271418	 2.7339917576	-0.175071
N	 0.2018401645	-0.8076047153	 2.3886736774	-0.293498
C	 0.0828729041	-0.8622300393	 1.0854454009	 0.449411
H	 0.9669937801	 1.8129156307	 0.4751384642	 0.156843
H	-0.0566415522	 1.821362947	-0.978914991	 0.145388
H	-0.8035909858	 1.8436960285	 0.6346950996	 0.156826
H	-0.195145401	-0.3934806955	-2.0772790547	 0.14048
H	 0.0942780743	-4.0248175377	 1.8277567214	 0.159313
88.4491	139.3773	247.4905	291.9178	349.3376	550.4158	573.8983	620.8819	624.0843	719.7848	770.825	809.0593	810.629	870.3428	883.7132	968.2627	1051.7624	1118.2396	1132.4713	1155.7114	1239.9092	1300.2162	1301.9221	1359.8661	1443.5635	1460.3503	1478.5228	1516.8236	1557.8849	1575.7982	1688.4563	3042.2526	3105.2171	3138.6991	3227.198	3278.1744
CN1C=NC2=CON=C12	Cn1cnc2conc12	
InChI=1S/C5H5N3O/c1-8-3-6-4-2-9-7-5(4)8/h2-3H,1H3	InChI=1S/C5H5N3O/c1-8-3-6-4-2-9-7-5(4)8/h2-3H,1H3
