19
gdb 41404	2.46481	2.03988	1.42687	1.8621	73.72	-0.2333	0.0698	0.3031	960.2679	0.16162	-423.002424	-422.995395	-422.994451	-423.033704	28.507	
C	 0.1555997105	 1.3488140103	 0.4768914282	-0.273147
C	 1.5162438061	 1.5719871734	-0.2547766432	-0.325321
C	 1.5237485252	 0.073701363	-0.5689177565	 0.45326
O	 2.1078579574	-0.5071621303	-1.7337307284	-0.329776
C	 2.5311056234	-1.6674127786	-0.9789086722	-0.101643
C	 2.1143156196	-1.0155051173	 0.3593543961	-0.158485
C	 0.9279162367	-1.5852844482	 1.1415330674	-0.106433
O	-0.2561238506	-1.2062919063	 0.4349347849	-0.265562
C	 0.0147650463	-0.0179626128	-0.2764134472	 0.065127
H	 0.2707773612	 1.2134407577	 1.5546425385	 0.11062
H	-0.6295062807	 2.0840538327	 0.296880298	 0.109135
H	 1.3942459867	 2.1608816855	-1.1683496925	 0.119171
H	 2.3552183931	 1.9758222006	 0.3164835142	 0.102048
H	 1.9593719345	-2.5631951197	-1.2511750449	 0.108527
H	 3.6005254904	-1.8638967527	-1.1080363131	 0.106146
H	 2.951182272	-0.7250098846	 0.9952953906	 0.085858
H	 0.9311982723	-2.6774166277	 1.2158338453	 0.111344
H	 0.9166795643	-1.1771069827	 2.1632079955	 0.097217
H	-0.6541594184	 0.0285839778	-1.1380218209	 0.091914
132.1766	187.0049	247.8512	300.3232	377.4614	425.0829	512.2958	623.6319	695.3428	716.9154	787.9854	816.032	846.1443	876.0283	916.4512	925.8427	938.4897	968.0561	1008.3775	1049.7679	1068.993	1092.9908	1120.4338	1130.5812	1161.5654	1167.4229	1170.7085	1212.2582	1224.2408	1238.4045	1240.5301	1273.4227	1288.4063	1333.4169	1347.0899	1352.5068	1401.2156	1475.8751	1492.4168	1516.9834	1523.5615	2992.2526	3022.8084	3061.4132	3072.3901	3075.0373	3078.5644	3098.142	3108.9313	3112.1104	3137.1205
C1CC23OCC2COC13	C1C[C@@]23OC[C@@H]2CO[C@@H]13	
InChI=1S/C7H10O2/c1-2-7-5(4-9-7)3-8-6(1)7/h5-6H,1-4H2	InChI=1S/C7H10O2/c1-2-7-5(4-9-7)3-8-6(1)7/h5-6H,1-4H2/t5-,6-,7+/m0/s1
