17
gdb 73659	2.43194	1.67951	1.41546	3.1998	67.16	-0.2659	-0.004	0.2619	984.8176	0.136944	-459.005709	-458.997995	-458.997051	-459.0378	29.719	
O	 0.1928071306	 1.4213138313	-0.1661190876	-0.473393
C	 0.0981482555	 0.0324833717	-0.0925855162	 0.23172
C	 0.7479036667	-0.6163190888	-1.3242581497	-0.254901
C	 0.0298659918	-1.9653633558	-1.5154571779	-0.230682
C	-1.421463712	-1.688993389	-1.0641052918	-0.228026
C	-1.2636205003	-0.7197753292	 0.0924199205	 0.070168
O	-0.7119391595	-1.3768845677	 1.2936587046	-0.265665
C	 0.4483772824	-0.6486677261	 1.2451451299	 0.378458
O	 1.3244285717	-0.6119150843	 2.0493840394	-0.332043
H	 0.0546692044	 1.7986118878	 0.7093899027	 0.29578
H	 0.5478203552	 0.056984125	-2.1656787762	 0.12112
H	 1.8316878043	-0.704116907	-1.2190894788	 0.125479
H	 0.0906107404	-2.3286544416	-2.5435534142	 0.108338
H	 0.4788878739	-2.7301324525	-0.8739669466	 0.125353
H	-1.9828145326	-1.1859490801	-1.8608486428	 0.11308
H	-1.9743068861	-2.589721126	-0.7846228531	 0.120158
H	-2.1387027063	-0.1280586379	 0.3635320677	 0.095057
111.6059	168.9076	216.1168	253.4258	304.8272	320.5328	376.7449	515.5905	585.2284	608.1236	693.9053	755.0811	784.3494	828.145	864.5634	889.7109	920.8917	954.4058	973.9936	1034.5271	1082.8194	1102.5072	1109.8955	1162.7781	1170.7576	1234.6369	1265.4716	1278.5262	1323.2851	1333.1732	1349.0463	1365.1344	1383.4859	1470.9611	1484.8853	1503.1063	1926.846	3041.9772	3049.3454	3061.759	3100.9279	3107.8976	3113.3451	3116.7729	3811.3044
OC12CCCC1OC2=O	O[C@]12CCC[C@H]1OC2=O	
InChI=1S/C6H8O3/c7-5-6(8)3-1-2-4(6)9-5/h4,8H,1-3H2	InChI=1S/C6H8O3/c7-5-6(8)3-1-2-4(6)9-5/h4,8H,1-3H2/t4-,6-/m1/s1
