19
gdb 9643	4.05485	1.19424	1.06835	0.9887	79.58	-0.2353	0.0393	0.2746	1186.2486	0.163201	-327.878156	-327.868797	-327.867852	-327.912011	34.318	
C	-0.2558756036	 1.5223961822	 0.180812118	-0.375849
C	 0.2358284542	 0.1075530123	-0.1486845947	-0.192964
C	 0.9364984244	-0.5270725288	 1.0317807439	-0.023817
N	 0.0987089812	-1.1295083706	 2.0767758156	-0.366495
C	 1.0084649815	-2.0065929284	 1.2916868616	 0.124673
C	 0.3329768772	-3.0344355269	 0.4014564192	-0.457287
C	 2.202350536	-2.477082094	 1.9526825593	 0.280056
C	 3.1856386126	-2.8884845275	 2.5114796339	-0.456833
H	 0.5768318379	 2.1787151031	 0.4573136658	 0.112512
H	-0.7647740096	 1.9730315334	-0.6764589586	 0.112921
H	-0.9581032143	 1.4984484992	 1.0197732177	 0.130716
H	-0.6134466255	-0.5109404847	-0.451734408	 0.105988
H	 0.9293517326	 0.1397183407	-0.9986242421	 0.100415
H	 1.8112330981	 0.0267743002	 1.3723544439	 0.088284
H	 0.495290249	-0.9608832062	 2.9977347888	 0.236557
H	-0.602985516	-2.6438246347	 0.0003602596	 0.13071
H	 0.9873218143	-3.3185068845	-0.4283878185	 0.124729
H	 0.1048728943	-3.9358148069	 0.9779835556	 0.130056
H	 4.0573980358	-3.245725798	 3.001233439	 0.195628
68.14	124.9407	138.9668	160.6151	217.5852	233.5089	282.557	358.8997	402.2918	458.3376	549.8625	575.6067	598.9511	650.0155	682.9113	766.5858	810.7875	881.6749	926.6964	976.9404	1009.6979	1063.4747	1091.1969	1103.4929	1110.2772	1129.1948	1238.123	1285.4282	1304.5515	1330.5727	1347.7907	1406.3065	1413.2306	1453.444	1474.493	1485.8835	1496.2706	1498.9713	1508.4666	2229.0596	3031.8284	3033.817	3047.1582	3082.9549	3102.3734	3111.2228	3111.6175	3115.1997	3145.3792	3502.5136	3506.8776
CCC1NC1(C)C#C	CC[C@H]1N[C@]1(C)C#C	
InChI=1S/C7H11N/c1-4-6-7(3,5-2)8-6/h2,6,8H,4H2,1,3H3	InChI=1S/C7H11N/c1-4-6-7(3,5-2)8-6/h2,6,8H,4H2,1,3H3/t6-,7-/m1/s1
