12
gdb 20523	5.09441	1.63806	1.24898	3.769	56.18	-0.2676	-0.0749	0.1927	888.4186	0.083389	-414.671242	-414.664332	-414.663388	-414.703196	23.767	
C	 0.8821981984	 0.9964194534	 0.2582180697	-0.480504
C	-0.3569756175	 0.2301074253	-0.1397468526	 0.321937
O	-1.4162954412	 0.3186564829	 0.430739452	-0.271762
C	-0.2026860142	-0.6836059155	-1.3261401305	 0.275774
N	-1.1933622747	-1.4100472478	-1.7842143216	-0.140381
O	-0.6279600111	-2.0854527574	-2.8585153734	-0.13805
C	 0.6468263117	-1.6894121622	-2.9291340161	 0.103682
N	 0.9815653027	-0.8306220613	-2.0228441039	-0.304833
H	 1.6984087992	 0.3047326189	 0.4909680519	 0.155638
H	 1.2317133558	 1.6132254166	-0.5762106105	 0.155637
H	 0.6546107122	 1.6202985334	 1.1224367822	 0.145343
H	 1.2529077787	-2.1150923963	-3.7151025272	 0.177519
54.0212	139.7461	196.9586	204.5154	372.7539	488.7767	557.6298	631.2624	640.7804	756.3643	902.9997	917.1707	962.3083	987.3751	1009.9383	1046.7115	1131.7469	1166.8129	1299.4703	1354.6347	1387.5279	1454.6909	1465.3686	1495.4146	1574.1036	1814.9193	3047.1843	3108.4109	3163.5844	3270.5261
CC(=O)C1=NOC=N1	CC(=O)c1nocn1	
InChI=1S/C4H4N2O2/c1-3(7)4-5-2-8-6-4/h2H,1H3	InChI=1S/C4H4N2O2/c1-3(7)4-5-2-8-6-4/h2H,1H3
