18
gdb 30941	2.37956	1.33054	0.90522	5.2169	75.88	-0.2045	0.031	0.2356	1297.8516	0.147027	-439.161198	-439.151914	-439.15097	-439.195597	33.439	
C	-0.3130370325	 1.6382859006	-0.124882042	-0.370666
C	 0.0426257146	 0.1498333481	 0.0423369619	-0.305519
C	 0.7799676735	-0.4247243544	-1.1203037882	 0.212393
C	 2.0269570278	-0.9105231166	-1.2456803968	 0.258125
C	 3.1607699701	-1.0891431342	-0.3073211841	-0.490053
O	 2.2363476083	-1.318302614	-2.5568225742	-0.24594
C	 1.0884014318	-1.0857454369	-3.2881928073	 0.469817
O	 0.9566772667	-1.3366867898	-4.4554984498	-0.40556
N	 0.2014463151	-0.5332882506	-2.3951901245	-0.421214
H	 0.5902082619	 2.2433329981	-0.2446671105	 0.129905
H	-0.9425502216	 1.8049301969	-1.0049542525	 0.117981
H	-0.860125133	 2.0039985426	 0.7488221684	 0.122493
H	 0.6547513174	 0.0160324393	 0.9391299567	 0.120083
H	-0.8777784488	-0.4256638867	 0.2127043682	 0.115909
H	 3.46079797	-2.1414557822	-0.2452260263	 0.14459
H	 4.0387529524	-0.5186272518	-0.6314811891	 0.144008
H	 2.8847511992	-0.7520954813	 0.6941709418	 0.133265
H	-0.7317906728	-0.274176687	-2.6611389816	 0.270383
62.0894	119.8256	154.355	182.7156	195.9724	232.5892	269.7688	315.0235	390.5183	446.8621	564.2439	603.6189	631.5065	670.2768	765.6894	783.9679	818.3965	944.5187	964.6196	992.0229	1058.0439	1065.514	1080.2221	1107.3573	1232.1043	1247.1436	1293.8158	1326.2976	1359.5392	1411.0587	1419.0573	1435.8712	1467.2087	1477.858	1493.4602	1496.7698	1504.8469	1754.0707	1895.089	3014.4904	3030.5211	3040.5013	3079.9759	3081.9602	3111.1211	3119.6724	3129.5123	3695.5884
CCC1=C(C)OC(=O)N1	CCc1c(C)oc(=O)[nH]1	
InChI=1S/C6H9NO2/c1-3-5-4(2)9-6(8)7-5/h3H2,1-2H3,(H,7,8)	InChI=1S/C6H9NO2/c1-3-5-4(2)9-6(8)7-5/h3H2,1-2H3,(H,7,8)
