15
gdb 61743	3.35049	0.98473	0.8228	2.5804	70.14	-0.2796	-0.1027	0.1768	1344.6902	0.109595	-453.953462	-453.943877	-453.942933	-453.988953	32.413	
C	 0.2069321937	 1.7953401445	-0.1205945474	-0.42118
C	-0.0845103284	 0.3380158463	 0.241713321	-0.00751
O	-1.472872314	 0.2138024007	 0.440844384	-0.17683
C	-1.9216742948	-0.9139360019	 1.0508938349	 0.140345
N	-3.157200178	-1.0674062222	 1.2265682539	-0.432743
C	 0.3944448676	-0.6247430366	-0.8513375227	 0.287744
O	-0.3062865709	-1.4161520136	-1.421841784	-0.250136
C	 1.8410203238	-0.5385050377	-1.1494935541	 0.238326
N	 2.9763285236	-0.4681552599	-1.3577534072	-0.29374
H	 1.2751259129	 1.9511598989	-0.2866854389	 0.154071
H	-0.3422719305	 2.0749735593	-1.0231116967	 0.155231
H	-0.1205386456	 2.437528831	 0.6990764401	 0.15374
H	 0.4729955572	 0.0722359917	 1.1558122704	 0.121771
H	-1.1197607771	-1.5971350796	 1.3584220824	 0.093381
H	-3.3386600197	-1.9460527809	 1.7068598744	 0.237531
42.6054	77.6786	136.6545	146.9928	184.3391	207.3541	254.9476	289.4464	328.5179	439.1038	460.7969	575.8516	641.3557	702.2722	789.3084	820.0178	925.7821	1025.1377	1040.5112	1043.4684	1095.2421	1133.1508	1194.0952	1276.7739	1305.3901	1363.034	1410.2496	1428.1984	1484.845	1498.7615	1755.4504	1810.2858	2336.0887	2970.9405	3037.7257	3060.2426	3141.8936	3147.1399	3524.9958
CC(OC=N)C(=O)C#N	C[C@@H](O[CH][NH])C(=O)C#N	
InChI=1S/C5H6N2O2/c1-4(9-3-7)5(8)2-6/h3-4,7H,1H3	InChI=1S/C5H6N2O2/c1-4(9-3-7)5(8)2-6/h3-4,7H,1H3/t4-/m1/s1
