17
gdb 15882	2.8162	1.86948	1.24408	4.5353	64.89	-0.2553	0.026	0.2813	976.4901	0.142212	-401.020645	-401.012345	-401.011401	-401.053476	30.252	
C	-0.0833113442	 1.565726651	-0.2158584171	-0.400599
C	 0.0013800846	 0.0603692278	-0.0036197337	 0.038072
N	 1.0876282525	-0.620506338	-0.7361724127	-0.33887
C	 1.7395770281	-1.0802250483	 0.3744169182	 0.449768
O	 2.785943183	-1.6584374488	 0.550493064	-0.38716
C	 0.6639009236	-0.493358758	 1.3074973406	-0.192016
C	 1.2686251119	 0.4232498696	 2.3717993815	-0.07532
O	 2.0793492068	-0.3387685688	 3.2439245287	-0.424564
H	 0.8812433676	 2.0528783957	-0.0514995817	 0.129793
H	-0.4062137499	 1.7912992649	-1.2378091195	 0.121476
H	-0.8174875711	 2.0065398426	 0.4661396216	 0.130373
H	-0.9752478164	-0.3970734187	-0.1994182563	 0.090995
H	 1.3404034358	-0.6304791858	-1.7141403267	 0.249604
H	 0.0685417345	-1.2690658868	 1.7957884836	 0.110026
H	 1.8415789943	 1.2356328994	 1.8982119211	 0.089784
H	 0.4887420044	 0.8873551656	 2.9851207948	 0.10887
H	 2.6916866944	-0.8432373534	 2.6897277838	 0.299768
82.6575	125.0078	162.1447	206.9064	229.356	323.4728	398.1372	427.0905	488.2316	509.8721	527.8622	701.8672	744.7239	827.1915	863.5135	898.1049	1009.5972	1044.8444	1071.9362	1079.549	1131.6323	1146.526	1185.5543	1201.2503	1231.9583	1298.0795	1325.8403	1382.3478	1390.6225	1395.344	1414.1976	1454.8462	1489.5822	1499.9188	1516.6712	1865.0111	2979.8868	3034.4564	3039.3883	3063.4112	3090.0364	3102.3938	3124.174	3598.8246	3739.8749
CC1NC(=O)C1CO	C[C@H]1NC(=O)[C@H]1CO	
InChI=1S/C5H9NO2/c1-3-4(2-7)5(8)6-3/h3-4,7H,2H2,1H3,(H,6,8)	InChI=1S/C5H9NO2/c1-3-4(2-7)5(8)6-3/h3-4,7H,2H2,1H3,(H,6,8)/t3-,4+/m1/s1
