13
gdb 42648	3.05257	1.46592	1.21914	3.2276	68.8	-0.2527	-0.032	0.2207	986.6326	0.090456	-415.557055	-415.550307	-415.549363	-415.588504	25.761	
O	 0.0110805364	 0.0699168049	 0.0127227593	-0.315917
C	 0.0111899763	 1.2608115106	 0.0695917306	 0.510688
C	-1.0496779993	 2.3263184497	-0.0032388187	-0.243991
C	-0.4097826455	 3.553826029	 0.6171810639	-0.086722
N	 0.8616113691	 3.1195784152	 1.2348912941	-0.313709
C	 1.1023930415	 2.3517238155	-0.0326830238	-0.244532
C	-0.0139017196	 3.2062222761	-0.7943990749	 0.258672
C	-0.136875387	 3.8017656068	-2.0680584146	 0.136441
N	-0.2096535271	 4.3058534865	-3.108599106	-0.347117
H	-2.1100473089	 2.2457113257	-0.19647904	 0.145042
H	-1.0053734462	 4.3813886466	 0.9797709625	 0.138644
H	 1.4872799218	 3.924344172	 1.2363692496	 0.238521
H	 2.1207407284	 2.1479802715	-0.347976292	 0.12398
98.3481	164.1228	224.4798	419.9999	473.0142	491.6903	525.783	563.2607	608.526	716.8666	754.6201	798.4921	834.9713	888.3417	906.878	990.0303	1001.9398	1021.5989	1047.6322	1081.081	1124.7392	1138.9145	1173.707	1209.9143	1309.3054	1358.9742	1418.5296	1912.5947	2340.0475	3188.8077	3213.2369	3234.896	3470.077
O=C1C2C3NC1C23C#N	O=C1[C@H]2[C@H]3N[C@@H]1[C@@]23C#N	
InChI=1S/C6H4N2O/c7-1-6-2-3(9)5(6)8-4(2)6/h2,4-5,8H	InChI=1S/C6H4N2O/c7-1-6-2-3(9)5(6)8-4(2)6/h2,4-5,8H/t2-,4+,5-,6-/m0/s1
