17
gdb 53624	3.29383	0.78871	0.68763	3.0888	81.32	-0.2466	-0.0615	0.1851	1634.4397	0.133679	-417.997556	-417.987356	-417.986412	-418.034174	35.012	
C	-0.4330267452	 1.3482350551	-0.3085630716	-0.498634
C	-0.2395693219	-0.0778819404	-0.0832459314	 0.036621
C	-0.070683855	-1.2521975828	 0.1309946378	 0.075068
C	 0.1077071119	-2.6867510709	 0.3833894393	-0.3132
N	-1.1164370068	-3.4889046459	 0.3308031217	-0.273783
C	-1.7905355962	-3.4916117228	-0.7606986736	 0.276955
N	-1.5548421755	-2.8480109208	-1.9409371694	-0.55194
C	-3.0074205512	-4.3708375858	-0.7651584365	 0.143815
O	-3.7619485289	-4.443979583	-1.7049525815	-0.268638
H	 0.1699676627	 1.7074139275	-1.1496112937	 0.149511
H	-1.4815775411	 1.5759053009	-0.5294962066	 0.152111
H	-0.1486091652	 1.9286958589	 0.5757484658	 0.154927
H	 0.8374831783	-3.0874557302	-0.3398218465	 0.13517
H	 0.5502899833	-2.8222143595	 1.3758909355	 0.139527
H	-1.0236086153	-1.9903609409	-1.9176348878	 0.26552
H	-2.317175363	-2.8983312332	-2.6027588008	 0.266979
H	-3.1427694908	-4.9347686761	 0.1760174695	 0.109992
40.7848	60.2976	67.0537	131.4471	205.3094	205.9648	260.3388	302.8587	343.8761	377.5242	427.8299	489.8179	572.557	577.3256	646.9	684.2159	784.3506	905.357	983.642	1006.753	1033.9115	1053.533	1055.8502	1146.7454	1160.8532	1257.4254	1342.772	1368.3185	1391.9895	1415.3431	1473.2557	1477.5135	1479.1757	1614.3395	1724.7715	1808.2407	2359.4253	2970.6857	2979.2294	3029.2335	3058.7029	3090.5319	3091.9796	3550.7569	3669.3938
CC#CCN=C(N)C=O	CC#CCN=C(N)C=O	
InChI=1S/C6H8N2O/c1-2-3-4-8-6(7)5-9/h5H,4H2,1H3,(H2,7,8)	InChI=1S/C6H8N2O/c1-2-3-4-8-6(7)5-9/h5H,4H2,1H3,(H2,7,8)
