17
gdb 55670	2.30235	0.99882	0.80026	3.2981	71.16	-0.2594	-0.0459	0.2135	1446.605	0.130461	-459.001425	-458.991175	-458.99023	-459.039026	34.05	
C	-0.3200372783	 1.5774966385	-0.2594714623	-0.476018
C	-0.3800105215	 0.086534872	-0.0007293425	 0.386178
O	-0.8351975641	-0.3725189869	 1.0221848264	-0.286754
C	 0.154635103	-0.8116010599	-1.1145518332	-0.362844
C	 0.2012367779	-2.2847470809	-0.7281747279	-0.17126
C	-0.4474667084	-3.2103809707	-1.7572433718	 0.147955
O	-1.0977883352	-2.8243101337	-2.6922829536	-0.241215
C	 1.586329682	-2.8142476845	-0.3736612505	 0.137119
O	 1.8176508143	-3.9708784274	-0.1394164602	-0.24379
H	 0.7248145907	 1.9023106826	-0.327027552	 0.144794
H	-0.7900370893	 1.8212560059	-1.2182631238	 0.146182
H	-0.8159702484	 2.1168076666	 0.5478962613	 0.149545
H	-0.5002388312	-0.6921539526	-1.987682623	 0.163761
H	 1.1377331627	-0.4398511801	-1.4320403326	 0.121746
H	-0.3932786128	-2.4135985934	 0.1934690585	 0.172995
H	-0.2696673538	-4.2856678597	-1.5635895811	 0.122481
H	 2.3924213026	-2.0454762958	-0.3538807717	 0.089125
26.5688	49.238	77.1043	108.5119	120.1032	182.8141	211.9419	284.8259	344.1608	399.9614	465.1999	543.396	630.8033	657.2484	814.9215	819.7121	855.923	878.4548	965.1047	991.2772	1081.0507	1105.8395	1143.9709	1180.7919	1210.1422	1236.694	1275.3185	1364.8179	1387.376	1404.4231	1415.4589	1448.7221	1463.8927	1476.3625	1809.464	1812.1689	1838.7066	2868.3977	2957.6863	2976.157	3025.2066	3039.4818	3059.9522	3099.6025	3156.8715
CC(=O)CC(C=O)C=O	CC(=O)CC(C=O)C=O	
InChI=1S/C6H8O3/c1-5(9)2-6(3-7)4-8/h3-4,6H,2H2,1H3	InChI=1S/C6H8O3/c1-5(9)2-6(3-7)4-8/h3-4,6H,2H2,1H3
