21
gdb 121098	3.59571	0.85085	0.73361	1.4013	83.22	-0.2271	0.0232	0.2502	1617.0733	0.180946	-424.223535	-424.21364	-424.212696	-424.259108	35.052	
C	 0.7212319137	 1.3478836404	-0.2728432056	-0.222949
O	 0.8441010595	-0.0535528108	-0.2803767595	-0.237105
C	-0.2268990188	-0.6980279136	-0.933160234	-0.069176
C	 0.0212518905	-2.2065159956	-0.8572847129	 0.066716
O	-1.1069400497	-2.8858616954	-1.4137104714	-0.282349
C	-0.6827294289	-3.7789144576	-2.4377253607	-0.150766
C	 0.8064354596	-3.5756672897	-2.5701390013	 0.299099
C	 1.6206692746	-4.3129994173	-3.5827228129	-0.492895
C	 1.1957622231	-2.6840631188	-1.6624767642	-0.206228
H	 0.7030591925	 1.7626046914	-1.2932758633	 0.103983
H	-0.1949364145	 1.6741863661	 0.2444428053	 0.104866
H	 1.5880977019	 1.7511146309	 0.2566898816	 0.125299
H	-1.188143103	-0.4617706656	-0.448274028	 0.093598
H	-0.2969872477	-0.3869140703	-1.9885076113	 0.084849
H	 0.1258476288	-2.4712975968	 0.2078534338	 0.087125
H	-0.9331909603	-4.8177360537	-2.1639313931	 0.098851
H	-1.2212495768	-3.5568121184	-3.3729637897	 0.100574
H	 1.5407393711	-5.3984206197	-3.4419872377	 0.129362
H	 1.2710266804	-4.1043434477	-4.6017829663	 0.128916
H	 2.6771072048	-4.0399773335	-3.5233699104	 0.130018
H	 2.2014622692	-2.3222655141	-1.4937777584	 0.108212
57.6065	90.5724	101.8358	157.2708	171.9937	197.407	235.6121	298.1328	335.8517	406.9205	419.7482	544.6057	604.2384	762.236	842.0936	887.3575	906.5945	956.401	1000.8335	1007.239	1013.8549	1069.9301	1093.5104	1104.5781	1115.1112	1168.2936	1183.641	1199.7287	1215.0605	1229.8536	1234.535	1290.369	1322.8951	1372.5331	1389.584	1407.7652	1416.9941	1479.8812	1480.2846	1485.3835	1489.6459	1502.7222	1523.4245	1525.5917	1733.168	2957.8893	2960.0049	2965.7754	2973.4256	2982.2574	3002.4078	3013.8737	3019.3739	3064.6	3111.3873	3116.7462	3225.2667
COCC1OCC(C)=C1	COC[C@H]1OCC(=C1)C	
InChI=1S/C7H12O2/c1-6-3-7(5-8-2)9-4-6/h3,7H,4-5H2,1-2H3	InChI=1S/C7H12O2/c1-6-3-7(5-8-2)9-4-6/h3,7H,4-5H2,1-2H3/t7-/m0/s1
