23
gdb 95815	2.44472	1.3283	1.0974	1.1654	88.27	-0.2367	0.0258	0.2625	1255.4801	0.206598	-388.297121	-388.287856	-388.286911	-388.330943	35.964	
C	-0.716483374	 1.2603344352	 0.8867765432	-0.383392
C	-0.110502247	-0.1502608782	 0.7110732853	-0.028139
C	 0.1705734285	-0.4716241139	-0.7654332937	-0.207453
C	 1.4166311893	 0.1822746221	-1.361728121	-0.085626
O	 2.5942057549	-0.5288933861	-1.0214848981	-0.255435
C	 3.2194333687	-0.2329948309	 0.2151900002	 0.074047
C	 3.9683013606	 1.1139803876	 0.1703070872	-0.394688
C	 2.3707672862	-0.3275945426	 1.4603331925	-0.056078
C	 1.052014785	-0.3109820786	 1.660546441	-0.083099
H	-0.023760737	 2.0368999095	 0.546820153	 0.117823
H	-1.6456007149	 1.3566399723	 0.3149565011	 0.110598
H	-0.9439240389	 1.4632992787	 1.9380428439	 0.113662
H	-0.8836378919	-0.8574878286	 1.0443957816	 0.078519
H	 0.2918713927	-1.5530780851	-0.8931598729	 0.105737
H	-0.7063971019	-0.1765942837	-1.3564628472	 0.08573
H	 1.3621150891	 0.141987082	-2.4551330993	 0.102908
H	 1.4892763558	 1.2435093665	-1.0846710819	 0.090304
H	 3.9827412834	-1.0190894989	 0.297029819	 0.091697
H	 3.2751470935	 1.9583621824	 0.113876783	 0.118412
H	 4.5750726426	 1.2462338945	 1.0714732259	 0.11478
H	 4.6281378588	 1.1394872168	-0.7013975706	 0.120713
H	 2.9919419643	-0.3958667552	 2.3540464059	 0.085491
H	 0.7346111522	-0.3650822159	 2.7023966918	 0.083489
55.6373	149.1281	199.157	222.9065	230.2525	267.3016	324.4692	349.3484	365.7646	420.3819	475.3891	583.619	603.1047	711.7741	767.0833	785.791	812.1534	847.3954	915.929	950.5693	976.6784	1003.9012	1010.5753	1025.8863	1037.628	1089.5766	1102.0644	1130.0162	1152.7255	1193.5896	1249.8826	1279.3866	1315.1592	1329.497	1334.9769	1375.1501	1383.162	1392.8319	1402.0045	1409.3734	1415.0706	1439.882	1471.6794	1483.7734	1492.7306	1496.278	1498.0895	1505.9004	1737.6976	2993.2266	3006.123	3011.0753	3021.9394	3031.609	3040.3219	3064.1464	3072.4345	3100.8558	3103.0267	3105.7608	3111.7597	3120.895	3130.3338
CC1CCOC(C)C=C1	C[C@H]1CCO[C@@H](C)C=C1	
InChI=1S/C8H14O/c1-7-3-4-8(2)9-6-5-7/h3-4,7-8H,5-6H2,1-2H3	InChI=1S/C8H14O/c1-7-3-4-8(2)9-6-5-7/h3-4,7-8H,5-6H2,1-2H3/t7-,8+/m1/s1
