14
gdb 44870	3.6307	1.69773	1.55116	3.545	59.21	-0.2618	-0.003	0.2588	848.3092	0.103827	-473.817258	-473.811411	-473.810467	-473.84745	23.905	
O	-0.0198398597	 0.023944496	 0.0388998924	-0.33546
C	 0.0155658136	 1.214997346	 0.013884118	 0.467203
O	-1.0931518776	 2.0281870219	 0.0375744692	-0.247177
C	-0.5505645569	 3.3769191517	 0.0513388691	 0.193959
O	 0.6059508258	 3.2790967415	-0.7369436978	-0.220863
C	 1.2024391962	 2.2045969923	-0.0023609272	-0.11641
C	 1.2193526399	 2.7488985096	 1.4409873922	-0.057223
N	 1.309580042	 4.2205426449	 1.4954974552	-0.325698
C	-0.0130480596	 3.5713858681	 1.4783492402	-0.090983
H	-1.2746262846	 4.0688719014	-0.3706532325	 0.118811
H	 2.1219494453	 1.8569021742	-0.463316648	 0.124808
H	 1.5427260991	 2.123597859	 2.2633814671	 0.125267
H	 1.525615858	 4.492416655	 2.4528271212	 0.244018
H	-0.6891204114	 3.6059710484	 2.3229371209	 0.119748
156.3082	310.7533	366.1417	476.5211	496.8091	599.6078	661.2874	742.6564	771.4823	813.9827	839.2573	872.436	878.4394	889.4159	911.2171	948.6647	965.7308	1032.4196	1060.9058	1074.2313	1121.8879	1140.3164	1163.6152	1203.1044	1238.6177	1260.769	1315.0827	1337.4715	1352.1654	1406.1361	1911.746	3169.0233	3180.9548	3199.2112	3209.0664	3497.2035
O=C1OC2OC1C1NC21	O=C1O[C@@H]2O[C@H]1[C@H]1N[C@@H]21	
InChI=1S/C5H5NO3/c7-4-3-1-2(6-1)5(8-3)9-4/h1-3,5-6H	InChI=1S/C5H5NO3/c7-4-3-1-2(6-1)5(8-3)9-4/h1-3,5-6H/t1-,2+,3-,5-/m0/s1
