20
gdb 90472	2.64884	1.35845	1.18989	3.5957	79.33	-0.2466	0.0095	0.256	1145.1907	0.171964	-403.166079	-403.157669	-403.156725	-403.199098	31.972	
C	-0.1945214372	 1.3294793753	-0.0491098211	-0.41724
C	-0.0327775545	-0.1908065791	-0.0226014426	 0.022609
C	 0.8027438414	-0.7504176711	-1.2034439656	-0.232283
C	 1.4642564237	-2.0114902057	-0.6753667661	-0.037046
C	 1.3722868205	-2.0019047388	 0.835728279	-0.05421
C	 0.6680688398	-0.7214621255	 1.2566257026	-0.23734
N	 0.6352855996	-2.955487311	 0.0330001252	-0.057881
C	-0.7107685068	-3.2047254251	-0.0785097143	 0.143973
O	-1.3230877954	-3.2651781917	-1.1198970549	-0.309157
H	 0.7788237335	 1.830743817	 0.0062794461	 0.112882
H	-0.687464505	 1.6569133053	-0.9701843291	 0.121013
H	-0.7996689474	 1.6803995906	 0.7934421311	 0.115988
H	-1.0320295348	-0.6339825711	-0.0790492412	 0.102469
H	 0.1870125561	-0.9383398031	-2.0868964045	 0.131926
H	 1.5924630388	-0.044013931	-1.4891325996	 0.100382
H	 2.3203112059	-2.4303874881	-1.1967130998	 0.101699
H	 2.1563491108	-2.4152582548	 1.4644634588	 0.099335
H	 1.4337091658	-0.0130023527	 1.5991591915	 0.105705
H	-0.0299319191	-0.8608925864	 2.0885325258	 0.109078
H	-1.1692331357	-3.423441323	 0.9066327189	 0.078098
99.8435	136.4468	142.6493	236.2669	239.8339	295.4772	363.1873	411.4869	432.8578	582.7235	646.529	702.2888	808.3215	828.559	866.1569	884.9264	909.0865	956.0105	968.3987	1020.5815	1037.7299	1047.3611	1069.9684	1117.2768	1127.446	1146.6442	1153.3015	1190.7868	1260.654	1299.3379	1306.1729	1316.7209	1351.7726	1356.8695	1384.5387	1411.834	1420.2318	1455.4015	1478.0157	1490.6158	1497.3976	1500.2623	1786.878	2933.2925	3024.8711	3027.6794	3033.1704	3051.7411	3076.8928	3093.8561	3100.4345	3102.2147	3144.9026	3155.4957
CC1CC2C(C1)N2C=O	C[C@H]1C[C@H]2[C@@H](C1)N2C=O	
InChI=1S/C7H11NO/c1-5-2-6-7(3-5)8(6)4-9/h4-7H,2-3H2,1H3	InChI=1S/C7H11NO/c1-5-2-6-7(3-5)8(6)4-9/h4-7H,2-3H2,1H3/t5-,6-,7+,8?
