18
gdb 22152	4.93664	0.576	0.53732	3.9912	74.05	-0.2557	-0.0038	0.2519	1960.569	0.144248	-476.205393	-476.19501	-476.194066	-476.242719	35.162	
C	-0.3516726574	 1.4805953399	-0.1179228972	-0.472344
C	-0.0135235913	 0.0245984538	 0.0647217518	 0.343449
C	 0.1577177078	-0.547428446	 1.448355545	-0.276367
C	 1.4535780873	-0.0675331015	 2.1112299316	-0.090424
O	 1.4970524335	-0.4842343232	 3.4805597115	-0.173143
C	 2.288282675	-1.5271094954	 3.7981609373	 0.17041
O	 2.3599781898	-1.9707728544	 4.9036528494	-0.27149
N	 0.1498199061	-0.7958428465	-0.9028327506	-0.156518
O	-0.0169831084	-0.1672644241	-2.1445364767	-0.396111
H	 0.4346075795	 1.9943134774	-0.6808855632	 0.150461
H	-1.2677900566	 1.5810815831	-0.7085349386	 0.154777
H	-0.490462858	 1.9850317784	 0.840415611	 0.121833
H	-0.6838077723	-0.2481643637	 2.0846116912	 0.126729
H	 0.164680544	-1.6388148841	 1.3867458407	 0.126274
H	 2.3255905817	-0.4521917648	 1.5678031734	 0.124055
H	 1.5160083789	 1.024193168	 2.1232486037	 0.129755
H	 2.8604784787	-1.9101546576	 2.9297761168	 0.079465
H	 0.1073769916	-0.8967834194	-2.760908357	 0.309188
41.8923	52.6251	69.4667	99.6112	138.9643	171.3877	280.5499	332.5639	341.6719	377.1366	394.6255	427.876	551.8236	627.3744	702.0604	786.8283	834.8425	984.9188	998.9091	1016.1165	1039.7057	1048.5814	1065.6817	1093.9326	1158.4038	1248.6982	1284.2272	1312.149	1331.9749	1397.5916	1402.6859	1408.2302	1432.6355	1475.9166	1478.5628	1485.1553	1509.5543	1727.0988	1869.219	2941.3053	3031.5311	3042.8121	3045.0909	3088.786	3101.0676	3113.0149	3133.2098	3819.473
CC(CCOC=O)=NO	CC(=NO)CCOC=O	
InChI=1S/C5H9NO3/c1-5(6-8)2-3-9-4-7/h4,8H,2-3H2,1H3	InChI=1S/C5H9NO3/c1-5(6-8)2-3-9-4-7/h4,8H,2-3H2,1H3
