20
gdb 105615	1.99227	1.34445	1.20181	3.4177	79.2	-0.2789	0.0242	0.3031	1198.8339	0.170527	-403.155104	-403.145553	-403.144609	-403.189258	35.449	
C	-0.6690920642	 1.2348501375	-0.0572090078	-0.422658
C	 0.1469199036	-0.0480083722	-0.1062157524	 0.003984
C	 1.5738362987	-0.0413909118	-0.7206417069	-0.245022
C	 2.0281295936	-1.0410735954	 0.3736828946	-0.25253
C	 0.7684108215	-0.6493936686	 1.2137143741	 0.117231
C	 1.1035050645	 0.3886212873	 2.3054708256	-0.114499
O	 1.9396574931	-0.1464800743	 3.3092625536	-0.4194
C	 0.0320957422	-1.7467868822	 1.8286660477	 0.219021
N	-0.5459352636	-2.6071389915	 2.3438357142	-0.352737
H	-0.1124179781	 2.0632178121	 0.3920474801	 0.121172
H	-0.9451493827	 1.5395430411	-1.0723586756	 0.125517
H	-1.5961360878	 1.1007035643	 0.510134047	 0.12969
H	-0.4452763966	-0.8353103807	-0.5827644583	 0.097299
H	 1.6649409979	-0.3624407076	-1.7598231815	 0.109197
H	 2.0582310058	 0.9342313463	-0.6184478364	 0.109237
H	 1.9849823336	-2.077735273	 0.0347212343	 0.122126
H	 2.9819313804	-0.8690438441	 0.8744046172	 0.129182
H	 1.6631124856	 1.214063366	 1.8562590536	 0.116917
H	 0.1742868492	 0.8007156799	 2.7239345378	 0.107684
H	 1.4483813834	-0.8354416631	 3.7718733391	 0.298591
98.5829	114.9602	146.0899	173.702	199.2827	234.0627	285.0461	321.1811	380.1326	418.3534	476.08	536.1676	563.1955	617.4343	713.0833	794.4839	893.3044	895.393	921.1749	951.7798	962.8872	1023.7906	1062.2072	1084.0121	1126.8469	1139.2709	1170.9505	1192.3124	1230.7006	1257.2706	1269.1821	1270.9783	1321.2095	1377.7398	1385.4968	1412.5161	1422.8789	1487.1024	1494.0808	1495.5954	1501.9806	1509.7324	2338.3472	3004.4148	3032.6372	3054.8728	3062.4204	3081.5103	3090.1005	3099.0245	3104.7598	3116.6874	3140.9675	3794.8743
CC1CCC1(CO)C#N	C[C@H]1CC[C@]1(CO)C#N	
InChI=1S/C7H11NO/c1-6-2-3-7(6,4-8)5-9/h6,9H,2-3,5H2,1H3	InChI=1S/C7H11NO/c1-6-2-3-7(6,4-8)5-9/h6,9H,2-3,5H2,1H3/t6-,7+/m0/s1
