21
gdb 96303	2.07729	1.46667	0.95339	2.3457	78.35	-0.2374	-0.0151	0.2223	1263.4367	0.183421	-424.260187	-424.251286	-424.250342	-424.294218	34.179	
O	 0.012643243	 1.4299516728	-0.0076762626	-0.437958
C	 0.0099695514	 0.0035322598	-0.0140503618	 0.123134
C	-1.4379032797	-0.4185322533	 0.2617588179	-0.187131
C	-1.5936482281	-1.8228575808	 0.8598831033	-0.203129
C	-1.1998502239	-2.9932492789	-0.0505656418	-0.197633
C	 0.2724018115	-2.9871520107	-0.5272089175	-0.2862
C	 0.4944371837	-1.9998623574	-1.662026318	 0.372173
O	 0.6073885151	-2.3817746916	-2.8047283806	-0.308084
C	 0.5635274332	-0.5032864882	-1.3529883433	-0.327397
H	 0.893443254	 1.7311509844	-0.2537394611	 0.279662
H	 0.6418492082	-0.3676289497	 0.8107260465	 0.064028
H	-1.8458554559	 0.3131688733	 0.9665221542	 0.114371
H	-2.0271015121	-0.3240624195	-0.6601084402	 0.100324
H	-1.0045427859	-1.8797015276	 1.7858449171	 0.09772
H	-2.639475833	-1.957950007	 1.1591283172	 0.101397
H	-1.3744962183	-3.9292814864	 0.4911754456	 0.105713
H	-1.8555528203	-3.0237082855	-0.9301289913	 0.112197
H	 0.9313502516	-2.7569455314	 0.3198442873	 0.103355
H	 0.5409183049	-3.9727351057	-0.9151186098	 0.11895
H	 0.055835914	 0.0209973517	-2.1695611514	 0.13769
H	 1.6269938666	-0.2307149483	-1.4320921695	 0.11682
36.9791	132.0802	178.1744	281.1698	291.2105	312.9495	313.4545	361.3451	407.8524	468.1971	502.6697	547.6138	598.2984	765.7221	813.444	825.9904	859.8316	885.6286	941.7319	992.6831	1001.0513	1035.4103	1072.4004	1079.4095	1107.5974	1153.8458	1176.6366	1220.1715	1236.043	1266.7401	1277.7255	1297.421	1307.9661	1344.6994	1360.7386	1378.9921	1389.4802	1395.7992	1434.1199	1452.9224	1477.5919	1486.0664	1487.0237	1497.6284	1800.9857	2949.2978	3004.5961	3011.3083	3024.9584	3025.7774	3029.732	3061.3239	3070.8057	3080.1815	3082.7765	3104.9957	3811.4441
OC1CCCCC(=O)C1	O[C@H]1CCCCC(=O)C1	
InChI=1S/C7H12O2/c8-6-3-1-2-4-7(9)5-6/h6,8H,1-5H2	InChI=1S/C7H12O2/c8-6-3-1-2-4-7(9)5-6/h6,8H,1-5H2/t6-/m0/s1
