19
gdb 59910	4.27183	0.76108	0.70486	6.2301	76.02	-0.2493	-0.0065	0.2427	1638.9818	0.157313	-456.410195	-456.399747	-456.398803	-456.44672	36.42	
C	-0.1162343128	 1.5569914092	 0.1906913402	-0.402279
C	 0.0204569858	 0.0390539864	 0.0639408935	 0.072308
C	 0.7860952296	-0.5812935825	 1.2396078737	-0.386274
N	-1.3117411512	-0.5523171918	-0.0919242585	-0.379239
C	-1.4612701019	-1.77354716	-0.7043710071	 0.52843
O	-0.5661628277	-2.384945655	-1.2356617206	-0.359209
N	-2.811237708	-2.2093612218	-0.6863997156	-0.393945
C	-3.2884586571	-3.4682855984	-1.0191513583	 0.166703
O	-2.6394205824	-4.4395376609	-1.2924483978	-0.258791
H	 0.8703629075	 2.0235760193	 0.2591898423	 0.127303
H	-0.6399820594	 1.9790541236	-0.6714500818	 0.124342
H	-0.6712982868	 1.8299941605	 1.0970545511	 0.109316
H	 0.5525660238	-0.2036573135	-0.8598632653	 0.12321
H	 0.8772789679	-1.6613114143	 1.1030636751	 0.14712
H	 1.7927692667	-0.157141621	 1.310556855	 0.118451
H	 0.2717202736	-0.388317502	 2.1885224635	 0.103729
H	-2.007312919	-0.2696875411	 0.5827582722	 0.232922
H	-3.5170981155	-1.5212847574	-0.469974788	 0.248325
H	-4.398427113	-3.4675616193	-0.9846165435	 0.077577
39.5247	61.5935	86.9455	136.7978	218.0104	229.8086	234.9543	267.2506	288.2938	373.2192	415.7291	452.1177	477.9779	558.2616	593.0589	762.0111	843.6569	870.496	930.3059	951.3147	962.4454	986.4321	1028.523	1146.1206	1159.2142	1172.5195	1198.9662	1225.0145	1342.2069	1379.2927	1397.0201	1418.1207	1449.568	1483.4357	1489.3722	1490.7842	1506.4587	1509.9145	1523.9866	1803.3774	1872.6493	2909.7331	3026.8211	3031.4281	3077.9684	3094.718	3107.6224	3122.3398	3129.7365	3601.83	3613.3412
CC(C)NC(=O)NC=O	CC(C)NC(=O)NC=O	
InChI=1S/C5H10N2O2/c1-4(2)7-5(9)6-3-8/h3-4H,1-2H3,(H2,6,7,8,9)	InChI=1S/C5H10N2O2/c1-4(2)7-5(9)6-3-8/h3-4H,1-2H3,(H2,6,7,8,9)
