18
gdb 11987	2.6516	2.13731	1.77017	1.3948	67.08	-0.2474	0.0727	0.3202	850.7428	0.152425	-384.90716	-384.899012	-384.898068	-384.938893	31.767	
C	-0.1137052934	 1.5932024371	 0.0034777585	-0.447888
C	 0.0282618672	 0.0795578503	 0.0124404641	 0.35731
O	-1.1905455771	-0.5454962428	 0.3992393672	-0.483618
C	 0.6711630416	-0.6143511755	-1.2028690148	-0.107058
C	 2.1120716626	-0.2194869405	-1.3574912035	-0.295398
C	 1.7515820033	-1.2361032979	-0.3117609444	-0.053708
C	 1.1570577787	-0.5553592155	 0.91187404	 0.076287
O	 2.0552179733	 0.2960420742	 1.5879304242	-0.430123
H	 0.8399302936	 2.0910181515	-0.1831783978	 0.129729
H	-0.8201570596	 1.9102508492	-0.7737182235	 0.103783
H	-0.4977551378	 1.9386216466	 0.9690782006	 0.112996
H	-1.8624251332	-0.308084791	-0.2494268355	 0.273337
H	 0.1061538855	-1.0854459289	-1.9992015941	 0.079274
H	 2.6079382871	-0.6236565427	-2.2344046807	 0.111041
H	 2.4632997267	 0.7651411468	-1.0665292026	 0.1216
H	 2.1544269068	-2.2408791716	-0.3262195336	 0.084773
H	 0.6803889725	-1.2723473154	 1.5906785513	 0.082954
H	 1.611829732	 0.639921796	 2.3699939246	 0.284708
137.6523	200.4003	215.9543	265.0865	282.1403	301.8298	331.363	384.5745	453.3656	509.0366	585.4758	633.7445	749.2379	804.4867	831.6977	905.1067	944.2484	961.3378	986.4887	1005.7323	1025.7193	1063.5695	1087.1498	1091.9837	1135.2354	1162.1559	1185.2108	1209.1361	1236.4723	1271.4293	1325.4032	1333.687	1380.2451	1407.1781	1425.7053	1484.8804	1488.557	1503.1796	3026.5312	3038.4088	3090.4969	3126.5436	3130.3603	3173.4146	3190.0415	3210.0652	3797.8735	3817.1468
CC1(O)C2CC2C1O	C[C@@]1(O)[C@H]2C[C@H]2[C@H]1O	
InChI=1S/C6H10O2/c1-6(8)4-2-3(4)5(6)7/h3-5,7-8H,2H2,1H3	InChI=1S/C6H10O2/c1-6(8)4-2-3(4)5(6)7/h3-5,7-8H,2H2,1H3/t3-,4+,5-,6-/m1/s1
