21
gdb 103188	3.12809	1.37279	1.28272	1.4847	81.33	-0.2444	0.0758	0.3202	1093.3011	0.182694	-387.03346	-387.025045	-387.024101	-387.065989	33.58	
C	-0.0135423592	 1.5715564049	-0.003893394	-0.470213
C	 0.0418184234	 0.0448613703	-0.0048411711	 0.336785
C	-1.3601739704	-0.5359408606	 0.1715767317	-0.123985
O	-1.8650263303	-0.1078603447	 1.4329892349	-0.429147
C	 0.7824686784	-0.673901174	-1.1384066091	-0.110578
C	 2.2721846301	-0.7577786776	-0.7551237876	-0.083495
C	 2.4456900754	-0.1191082699	 0.6213486501	-0.254245
C	 1.0449967492	-0.7014433561	 0.9459301508	-0.077821
C	 1.2792486053	-1.7570519102	-0.2149542834	-0.084859
H	 0.9682752305	 2.0218201772	-0.1628347422	 0.11216
H	-0.6682586954	 1.924286743	-0.8102756952	 0.104029
H	-0.4241409984	 1.9427670029	 0.9391062911	 0.131371
H	-2.0101137269	-0.1871157816	-0.6480311455	 0.077114
H	-1.3159687718	-1.6337859273	 0.117204791	 0.084949
H	-2.7595752648	-0.4461885483	 1.5288199632	 0.286109
H	 0.4749511751	-0.7745933743	-2.1732718953	 0.074174
H	 3.0234396751	-0.9239375558	-1.5171976281	 0.08188
H	 3.2230414874	-0.6393257473	 1.1888615559	 0.095821
H	 2.5979279778	 0.9612979822	 0.7110975883	 0.089258
H	 0.7438160073	-0.9158064674	 1.9685359494	 0.075966
H	 1.2375454423	-2.8349502655	-0.2676360648	 0.084726
108.5776	167.6799	189.5477	227.167	258.3564	289.2545	370.1441	425.96	469.6263	552.1662	640.78	750.5303	778.0763	791.9228	798.7152	845.5767	892.5161	920.0966	948.1695	960.1846	989.7003	1003.4593	1012.1674	1032.2025	1044.6067	1055.128	1072.9272	1126.9995	1141.8386	1165.1681	1183.4863	1193.9072	1203.3883	1228.4241	1265.9649	1276.4308	1286.5269	1342.9137	1365.7655	1403.0444	1453.3255	1488.0512	1495.612	1516.2873	1521.9654	2961.6428	3005.4398	3033.1641	3043.4734	3090.9983	3100.3	3133.5246	3147.0823	3173.2844	3191.374	3223.1904	3835.7143
CC1(CO)C2C3CC1C23	C[C@@]1(CO)[C@H]2[C@H]3C[C@@H]1[C@@H]23	
InChI=1S/C8H12O/c1-8(3-9)5-2-4-6(5)7(4)8/h4-7,9H,2-3H2,1H3	InChI=1S/C8H12O/c1-8(3-9)5-2-4-6(5)7(4)8/h4-7,9H,2-3H2,1H3/t4-,5+,6-,7-,8-/m0/s1
