18
gdb 80809	2.14368	1.48642	1.44272	3.2526	78.47	-0.2284	0.0072	0.2356	1057.3861	0.147972	-398.04838	-398.039664	-398.03872	-398.081774	32.882	
C	 0.0218799907	 1.5041524227	 0.0066069555	-0.359876
N	 0.0437762352	 0.0362114133	-0.001319177	-0.126889
C	-1.1106229041	-0.75047157	 0.5951361065	-0.0669
C	-0.1396500966	-1.9632985557	 0.5761488681	-0.240987
C	 0.63922171	-0.7523999775	 1.1575467542	 0.191015
C	 2.0258340436	-0.6481009704	 1.5294003991	 0.151385
N	 3.1237994854	-0.5270540846	 1.8738934995	-0.350844
C	-0.6420246267	-0.4836603816	 2.0675855577	 0.043556
N	-0.9043775195	 0.7347399616	 2.7738067837	-0.544635
H	 0.9613022491	 1.8932579248	 0.4152641605	 0.135923
H	-0.044495013	 1.8482731859	-1.030859413	 0.132093
H	-0.8192716255	 1.9522906048	 0.5493766466	 0.124646
H	-2.1157737626	-0.6907073552	 0.1785488704	 0.097446
H	-0.3440182649	-2.7930166061	 1.2526209529	 0.110132
H	 0.1879358815	-2.2684421954	-0.4148193836	 0.127132
H	-0.8677763521	-1.3144612375	 2.7432117186	 0.091533
H	-0.6359930009	 0.6422107754	 3.7463455853	 0.243076
H	-0.4221729995	 1.5390084156	 2.3994263151	 0.242192
72.98	122.4272	133.2824	202.5716	299.1243	321.0761	352.402	372.2916	514.1438	524.8713	537.5945	576.1689	692.8626	738.5987	772.4935	799.3148	812.769	835.7939	929.735	991.1014	1022.8375	1088.7448	1126.9383	1132.2762	1147.3435	1169.999	1190.2153	1200.1408	1224.4029	1243.1279	1254.2591	1282.2909	1441.7197	1460.4014	1486.91	1504.5805	1529.6958	1673.5066	2342.1031	3010.0528	3059.1694	3072.6638	3091.3285	3099.4001	3127.4442	3188.6166	3543.8266	3636.7063
CN1C2CC1(C#N)C2N	CN1[C@H]2C[C@]1(C#N)[C@H]2N	
InChI=1S/C6H9N3/c1-9-4-2-6(9,3-7)5(4)8/h4-5H,2,8H2,1H3	InChI=1S/C6H9N3/c1-9-4-2-6(9,3-7)5(4)8/h4-5H,2,8H2,1H3/t4-,5-,6-/m0/s1
