18
gdb 47375	2.2316	1.50961	1.21206	2.4347	76.85	-0.2161	-0.0198	0.1962	1099.9704	0.148336	-401.933354	-401.924946	-401.924002	-401.96656	32.116	
O	-0.0374079542	-0.081842586	 0.1591551005	-0.302292
C	-0.0346644008	 1.1201100269	 0.039201382	 0.389353
C	-1.3207861639	 1.9503099067	 0.0259947266	-0.262731
N	-1.3450044574	 3.0248619841	-0.9722218623	-0.281242
C	-0.1463194002	 3.8505939475	-0.9355813164	-0.173323
C	 1.16655261	 3.0453023373	-1.1434023909	-0.185592
C	 1.2536752608	 1.9305607362	-0.0665948119	-0.30947
C	 1.2090759286	 2.483076134	-2.4914003536	 0.326055
C	 1.1992595243	 2.0131904859	-3.5984768215	-0.469002
H	-2.1693377273	 1.278485933	-0.1220736153	 0.128707
H	-1.431493706	 2.4044562275	 1.0230686702	 0.121265
H	-1.433399658	 2.6171311931	-1.898774027	 0.231705
H	-0.2286787959	 4.6282541135	-1.6999110544	 0.11772
H	-0.0973892763	 4.3494480089	 0.0413752756	 0.104908
H	 2.0218997977	 3.722260557	-1.0179228777	 0.107907
H	 1.4111160418	 2.4138608737	 0.9080683688	 0.120414
H	 2.0887015418	 1.2504009267	-0.2446518721	 0.131455
H	 1.2153754151	 1.598826664	-4.5764004206	 0.204165
72.8022	96.5332	167.2983	229.6413	320.769	372.0464	396.9927	460.9507	467.3561	556.4196	602.8124	638.1846	647.1951	717.1668	757.6425	777.8928	858.3146	861.7832	933.3815	958.6447	989.4936	1039.5895	1115.6927	1128.9148	1166.506	1219.3825	1233.039	1244.7984	1319.4952	1329.6367	1341.4094	1369.4137	1382.358	1452.8712	1461.1175	1481.2906	1501.7945	1821.4604	2230.2339	2994.5597	3013.1	3020.7552	3029.9271	3092.9758	3109.6299	3116.9574	3502.0487	3509.7466
O=C1CNCC(C1)C#C	O=C1CNC[C@@H](C1)C#C	
InChI=1S/C7H9NO/c1-2-6-3-7(9)5-8-4-6/h1,6,8H,3-5H2	InChI=1S/C7H9NO/c1-2-6-3-7(9)5-8-4-6/h1,6,8H,3-5H2/t6-/m1/s1
