16
gdb 24933	4.62138	1.25767	1.00083	3.5786	75.99	-0.2043	-0.0153	0.189	1117.2781	0.12688	-400.813411	-400.806344	-400.8054	-400.845081	27.825	
O	-0.0252784575	 0.0571691996	 0.0046584635	-0.298445
C	-0.0201894122	 1.2572031773	 0.0108296227	 0.412941
C	-1.3036308841	 2.1424569791	 0.0333425241	-0.476167
C	-0.699578716	 3.5012227533	 0.0316277548	 0.293386
C	 0.673682099	 3.5321750594	 0.0126026432	 0.291508
C	 1.2485574476	 2.1501861628	-0.0022772819	-0.470288
C	 1.0755024206	 4.8957291768	 0.0137816053	-0.324909
C	-0.0820725263	 5.6446682558	 0.0336714843	-0.070894
N	-1.1635090025	 4.7865277907	 0.0445015566	-0.370396
H	-1.9231037766	 1.8990994621	-0.8399826167	 0.134357
H	-1.898203804	 1.8903205312	 0.9213711241	 0.134359
H	 1.8703663626	 1.8963375202	 0.8659113901	 0.133768
H	 1.8461294457	 1.9050852967	-0.8897764703	 0.133769
H	 2.0784307625	 5.2939522131	 0.0017603526	 0.096215
H	-0.2291308164	 6.7127288592	 0.0410233628	 0.119754
H	-2.1264289323	 5.0732457826	 0.0592921049	 0.261042
70.2816	210.4058	240.3445	342.9409	461.9894	487.807	507.8692	525.6771	630.3989	649.8092	707.6795	711.532	742.1076	798.6197	821.5616	858.4213	934.8694	994.5207	1037.0261	1085.0105	1114.7893	1129.6717	1176.3898	1180.5033	1208.557	1233.4869	1292.2262	1363.6688	1436.3272	1457.1257	1470.7658	1486.0992	1529.064	1609.7685	1855.6313	3015.6312	3023.7026	3042.8911	3049.2869	3246.4129	3270.102	3682.7596
O=C1CC2=C(C1)C=CN2	O=C1Cc2c(C1)cc[nH]2	
InChI=1S/C7H7NO/c9-6-3-5-1-2-8-7(5)4-6/h1-2,8H,3-4H2	InChI=1S/C7H7NO/c9-6-3-5-1-2-8-7(5)4-6/h1-2,8H,3-4H2
