25
gdb 122956	5.99562	0.47191	0.45333	2.3546	87.65	-0.2499	0.07	0.3199	2503.8801	0.225981	-426.622893	-426.610979	-426.610035	-426.661082	41.647	
C	 0.0331224181	 1.5758659054	-0.0791006725	-0.380458
C	-0.0037294004	 0.0481093742	 0.0013028634	-0.186868
C	-1.4274406377	-0.5229101667	 0.0262753958	 0.136284
O	-2.1741285546	-0.109326581	-1.1186729709	-0.427153
C	-1.4401064792	-2.0493829098	 0.1828902246	-0.2079
C	-2.8507209073	-2.6356296443	 0.2868755476	-0.195693
C	-2.8511492687	-4.154924981	 0.3768759404	-0.050935
O	-4.1852492958	-4.6031596875	 0.4780251797	-0.228879
C	-4.2883289676	-6.0015264806	 0.5730158488	-0.226028
H	 1.0601971994	 1.9453901087	-0.1544726991	 0.107757
H	-0.5269349086	 1.9289616748	-0.9488521793	 0.127079
H	-0.4200843785	 2.0268749016	 0.810638724	 0.114108
H	 0.5306893268	-0.3856085815	-0.8573041348	 0.082865
H	 0.5309664522	-0.2962419983	 0.8954785347	 0.095081
H	-1.9709308143	-0.0783863581	 0.8712660876	 0.085341
H	-1.7319376734	-0.4681041981	-1.8969207616	 0.274938
H	-0.9113587889	-2.4935105035	-0.6749280198	 0.082145
H	-0.8535399012	-2.3175741455	 1.0716019746	 0.094934
H	-3.358363732	-2.2333229254	 1.1720286431	 0.103707
H	-3.4422928197	-2.3252173521	-0.5796606379	 0.117811
H	-2.3660916376	-4.5943157693	-0.513670272	 0.078055
H	-2.2676540602	-4.4913411634	 1.2530503311	 0.078618
H	-3.7704141537	-6.3923170143	 1.4641506286	 0.100109
H	-5.350263221	-6.2493054314	 0.6469164429	 0.125191
H	-3.867530056	-6.5059638728	-0.312157719	 0.099892
51.0991	64.2202	81.8064	108.4182	135.4508	146.2025	205.8919	221.5497	240.417	260.9068	305.1406	310.471	401.7801	460.0989	506.7105	546.1653	758.2265	781.2467	843.0639	886.8477	960.1729	984.7321	1013.7442	1032.8706	1057.0174	1071.5902	1105.4817	1125.3584	1148.5119	1168.1657	1179.549	1218.6161	1224.5722	1262.9335	1267.8516	1292.9577	1306.4151	1326.365	1363.3381	1381.5122	1394.9322	1406.9595	1422.2189	1427.8481	1474.2141	1482.8591	1485.859	1486.2746	1495.468	1499.6935	1508.2133	1509.6593	1533.2161	2933.0918	2956.7191	2964.7848	2988.9331	2998.5151	3004.7882	3023.0264	3035.5854	3037.8254	3042.7354	3054.269	3096.5057	3101.4862	3110.2793	3122.1671	3788.726
CCC(O)CCCOC	CC[C@@H](O)CCCOC	
InChI=1S/C7H16O2/c1-3-7(8)5-4-6-9-2/h7-8H,3-6H2,1-2H3	InChI=1S/C7H16O2/c1-3-7(8)5-4-6-9-2/h7-8H,3-6H2,1-2H3/t7-/m1/s1
