21
gdb 101283	2.1383	1.41866	0.99148	1.2497	85.33	-0.2356	0.053	0.2886	1278.8421	0.179458	-387.034975	-387.024643	-387.023699	-387.070512	37.865	
C	-0.0026343865	 1.4655666902	 0.0976837035	-0.235011
O	 0.0341107639	 0.0587023575	 0.0320349361	-0.240908
C	 0.6316004867	-0.5704061342	 1.1569104786	 0.107955
C	-0.4232362429	-0.8685845172	 2.2278688548	-0.397115
C	 1.3201731324	-1.8454395364	 0.6936071661	-0.017978
C	 1.031651289	-2.4408052808	-0.6527128128	-0.289408
C	 2.3976106882	-1.8258226055	-0.3852853586	-0.210558
C	 2.8181508726	-0.608640353	-1.0159806295	 0.357105
C	 3.2389646178	 0.3933581836	-1.5336454205	-0.486086
H	 1.0102708608	 1.8914793677	 0.1333052064	 0.115294
H	-0.5004284312	 1.8152230731	-0.8102997308	 0.124543
H	-0.5701876099	 1.8298617058	 0.9672662964	 0.10054
H	 1.3946849348	 0.102303962	 1.5802617523	 0.074189
H	-1.1710991483	-1.5652425122	 1.8373785659	 0.126195
H	 0.0359899706	-1.3113408708	 3.1178273343	 0.111998
H	-0.9344688104	 0.0483150696	 2.5355126611	 0.115729
H	 1.5159933111	-2.5428193937	 1.5030938198	 0.088163
H	 0.9823878374	-3.5192638226	-0.7516873285	 0.110539
H	 0.3694954962	-1.8781348748	-1.2969936504	 0.14669
H	 3.2052272184	-2.5364330901	-0.2302735659	 0.108301
H	 3.5939911793	 1.2739560917	-2.0079799283	 0.189825
49.5208	78.2523	120.0776	176.3008	186.7263	227.0369	249.2312	255.4827	339.2321	379.8954	440.0167	509.9649	571.2327	577.2938	633.4398	638.8913	766.8677	779.0904	850.7206	871.8773	946.3187	972.3889	1020.2444	1067.8533	1086.1857	1112.2608	1126.2102	1130.8316	1150.2576	1173.8394	1183.9694	1225.6961	1234.6656	1338.8121	1378.2789	1384.8082	1403.5171	1407.487	1475.1774	1483.9668	1486.0157	1494.8234	1496.0498	1504.209	2231.0882	2970.1015	2984.3329	3034.5593	3038.0069	3107.8589	3112.2393	3117.3881	3135.5374	3145.6859	3153.1315	3252.3516	3505.8423
COC(C)C1CC1C#C	CO[C@@H](C)[C@H]1C[C@H]1C#C	
InChI=1S/C8H12O/c1-4-7-5-8(7)6(2)9-3/h1,6-8H,5H2,2-3H3	InChI=1S/C8H12O/c1-4-7-5-8(7)6(2)9-3/h1,6-8H,5H2,2-3H3/t6-,7+,8+/m0/s1
