14
gdb 5666	5.1175	2.13031	1.51829	0.3907	68.72	-0.1976	-0.0043	0.1933	781.7285	0.109835	-345.432255	-345.426553	-345.425609	-345.461824	22.966	
C	-0.0761760311	 1.4768403351	 0.0108451142	-0.417017
C	 1.3949380395	 1.8859596493	-0.0012524631	-0.089197
C	 2.205995563	 0.8075920309	-0.0148955499	-0.202729
C	 1.3801327668	-0.4030620995	-0.0131330578	 0.254671
C	 0.0776143902	-0.0052698043	 0.0016068801	 0.31363
O	-0.7745503192	-1.0486066285	 0.0045087431	-0.19722
C	 0.0266843324	-2.1664510592	-0.0089858168	-0.013502
C	 1.3505048657	-1.8357237815	-0.0201818886	-0.369455
H	-0.5971318992	 1.8585947777	 0.898559817	 0.137412
H	-0.6142190781	 1.8678404126	-0.8625380648	 0.137416
H	 1.7065510424	 2.9217273851	 0.0011618765	 0.099868
H	 3.2879553124	 0.8317369947	-0.0253263457	 0.100746
H	-0.4996139227	-3.1063572882	-0.0087093228	 0.132826
H	 2.172565978	-2.5343632044	-0.0317850714	 0.112552
183.2538	269.4133	430.1148	434.8519	602.8979	642.8123	652.2358	712.6268	721.1623	734.5741	818.9956	854.3832	917.6311	927.0714	936.4817	941.9644	1045.3992	1058.883	1123.2403	1136.4409	1168.5574	1223.8333	1262.5952	1328.2016	1385.0294	1437.6066	1486.03	1511.7454	1564.6764	1625.2677	3030.2684	3059.1769	3210.9101	3234.6094	3252.9019	3286.0632
C1C=CC2=C1OC=C2	C1C=Cc2c1occ2	
InChI=1S/C7H6O/c1-2-6-4-5-8-7(6)3-1/h1-2,4-5H,3H2	InChI=1S/C7H6O/c1-2-6-4-5-8-7(6)3-1/h1-2,4-5H,3H2
