19
gdb 72386	2.77797	2.01461	1.36832	1.3296	79.95	-0.2334	0.0162	0.2496	957.3187	0.161453	-385.854519	-385.847587	-385.846643	-385.885216	29.683	
O	-0.0190509238	 1.4153630778	 0.1170668954	-0.493525
C	 0.0059705771	 0.0085367607	 0.0018434241	 0.469951
C	 1.0275669354	-0.5874169708	 0.9719141707	-0.364595
C	 1.0312893531	-2.0893945131	 0.9375280966	-0.073407
C	 0.1839586963	-2.7010249947	 0.1135374132	-0.089818
C	-0.7216712477	-1.8716818946	-0.7402628255	-0.031769
C	-1.4128764799	-0.6269435389	-0.0778402507	-0.09715
C	-1.5450333127	-0.0268668007	-1.506389768	-0.252118
C	-0.1071077366	-0.6099891351	-1.4404271591	-0.126008
H	 0.8866603452	 1.7358691136	 0.0513166849	 0.275965
H	 2.0289828284	-0.1969662479	 0.7264024573	 0.094652
H	 0.8095186082	-0.2155646774	 1.9827907017	 0.117898
H	 1.7154977661	-2.6303616966	 1.5842565537	 0.08875
H	 0.1308520079	-3.7832142198	 0.0425373838	 0.086343
H	-1.3843546121	-2.4585718184	-1.3791495593	 0.065052
H	-2.1614317626	-0.6486375396	 0.7162291204	 0.069178
H	-2.2370738202	-0.5434331388	-2.1767319622	 0.084235
H	-1.6344638445	 1.0549137882	-1.5762827212	 0.113864
H	 0.6559878925	-0.6148657341	-2.2219155858	 0.062502
210.6945	259.3196	276.7006	384.1226	404.9849	433.716	473.8064	545.2551	564.5864	657.7898	696.3117	785.746	803.5415	814.8023	893.6343	901.6982	922.5881	966.9117	985.6573	996.4347	1001.0771	1045.4816	1057.5524	1081.974	1093.7369	1117.7065	1157.5873	1163.0453	1181.5017	1192.6383	1209.6308	1227.9268	1234.8579	1263.2732	1344.6313	1364.7388	1396.0542	1410.0093	1470.0684	1507.8821	1716.1709	2975.1769	3024.0879	3064.9482	3083.9592	3089.2473	3100.9969	3161.6438	3162.5842	3185.3335	3805.906
OC12CC=CC3C1CC23	O[C@@]12CC=C[C@H]3[C@@H]1C[C@@H]23	
InChI=1S/C8H10O/c9-8-3-1-2-5-6(8)4-7(5)8/h1-2,5-7,9H,3-4H2	InChI=1S/C8H10O/c9-8-3-1-2-5-6(8)4-7(5)8/h1-2,5-7,9H,3-4H2/t5-,6-,7+,8-
