23
gdb 112743	2.41989	1.19838	0.92433	1.5571	85.93	-0.251	0.0778	0.3288	1376.6444	0.204885	-388.271194	-388.261446	-388.260502	-388.305797	37.27	
C	-0.2565679058	 1.7588895168	 0.2247235157	-0.382268
C	-0.2464189048	 0.2605675652	 0.5460210151	-0.193733
C	-1.4108865115	-0.4926170149	-0.0863667713	-0.03422
C	-1.4239363224	-0.6749999356	-1.6363814508	-0.281841
C	-1.9014406653	-2.1410574042	-1.4369570913	 0.085577
O	-1.3599889112	-3.1654659069	-2.2335511191	-0.431881
C	-1.4846517273	-2.026493973	 0.0385068887	 0.30069
C	-0.4675668584	-2.9285603577	 0.68387869	-0.327112
C	-1.8911058514	-2.8865124622	 1.1918417327	-0.332486
H	 0.5928890129	 2.2709545423	 0.6872140204	 0.111482
H	-0.2026605862	 1.9331962768	-0.8553003589	 0.119468
H	-1.1729568793	 2.2353086668	 0.5904306565	 0.114468
H	 0.6969724342	-0.183719593	 0.2030699507	 0.090406
H	-0.2716762136	 0.1226950271	 1.6356379769	 0.093598
H	-2.3554925435	-0.0445363944	 0.2482231926	 0.068611
H	-2.0553924102	-0.0130172383	-2.2328859352	 0.099596
H	-0.4065828686	-0.6521204951	-2.0452297606	 0.08917
H	-2.9871548803	-2.2326326891	-1.5461010517	 0.089407
H	-0.4004517605	-3.1074610324	-2.1667867935	 0.276083
H	-0.1595566382	-3.8121066397	 0.132598086	 0.110172
H	 0.3107785924	-2.486893074	 1.2973402506	 0.11217
H	-2.0748453912	-2.4076829562	 2.1491184969	 0.107965
H	-2.5285946899	-3.7420076685	 0.9898299696	 0.114676
67.66	92.8888	144.9645	204.9854	214.8868	231.7863	282.7699	327.4683	357.2658	437.5812	465.9847	541.3294	547.288	711.9777	768.0464	788.1191	810.3153	869.3485	898.7791	928.197	944.5401	974.7984	983.9248	1011.2879	1048.0127	1071.0074	1071.6303	1079.3227	1109.6667	1152.222	1177.473	1192.2759	1207.3553	1232.7677	1271.4162	1279.0766	1292.7331	1315.4844	1341.8538	1367.9486	1391.0992	1411.7216	1438.2425	1455.2392	1478.6029	1487.965	1498.7959	1499.1852	1506.6914	3009.1096	3015.7581	3031.1453	3036.8905	3046.0684	3057.3206	3097.7989	3102.8372	3108.4243	3117.2551	3120.7275	3195.2846	3210.2633	3801.3574
CCC1CC(O)C11CC1	CC[C@H]1C[C@@H](O)C21CC2	
InChI=1S/C8H14O/c1-2-6-5-7(9)8(6)3-4-8/h6-7,9H,2-5H2,1H3	InChI=1S/C8H14O/c1-2-6-5-7(9)8(6)3-4-8/h6-7,9H,2-5H2,1H3/t6-,7+/m0/s1
