19
gdb 120017	2.15586	1.28322	0.89113	1.4326	72.98	-0.2348	-0.0379	0.1969	1338.6941	0.156299	-460.154806	-460.145025	-460.144081	-460.190577	34.862	
C	 0.3754002494	 1.496187266	-0.270696106	-0.390413
C	 0.3379244932	-0.0075970266	-0.0693507275	-0.048146
O	 0.5365784928	-0.6326517969	-1.3375453742	-0.274775
C	 0.522217004	-2.0423749276	-1.3026086692	-0.041566
C	 0.8480394982	-2.563296913	-2.7449685066	 0.132029
O	 0.6391752051	-1.6509494831	-3.7802660062	-0.437878
C	 2.3196899182	-2.8731718259	-2.3098029191	-0.387973
C	 1.8968308108	-2.6177977687	-0.8576580003	 0.386334
O	 2.4050408506	-2.7918458258	 0.2128156864	-0.29263
H	 1.34478736	 1.808794465	-0.6690610484	 0.130219
H	-0.4042609738	 1.812921207	-0.9693333236	 0.12897
H	 0.2137987133	 2.0062633702	 0.6833200879	 0.125168
H	 1.1172445493	-0.3340373433	 0.6314168325	 0.12461
H	-0.6325739847	-0.3270991598	 0.3410923292	 0.098819
H	-0.3743939827	-2.4271225789	-0.7968004981	 0.082567
H	 0.2963683676	-3.4791498691	-2.9753917246	 0.097296
H	 0.6513841122	-0.7741720315	-3.3726854419	 0.2942
H	 2.7330661712	-3.8592945677	-2.5334526646	 0.132197
H	 3.0171606154	-2.1074663104	-2.6674350056	 0.140971
49.5064	62.7889	86.6419	135.8035	193.9629	251.4959	298.9063	365.1249	387.8022	412.3221	447.6205	521.3331	561.918	682.3052	739.612	820.5775	855.0133	906.7396	915.813	994.3645	1051.5712	1061.3756	1098.0797	1133.53	1144.2132	1161.5275	1173.1677	1187.7325	1245.7317	1261.4584	1299.315	1325.325	1346.708	1402.1164	1421.9028	1434.1437	1446.5067	1484.1404	1500.3414	1529.2563	1884.4875	2987.0104	3008.4714	3042.3647	3045.8805	3054.4018	3070.7227	3119.2569	3122.0237	3122.4061	3752.4554
CCOC1C(O)CC1=O	CCO[C@H]1[C@@H](O)CC1=O	
InChI=1S/C6H10O3/c1-2-9-6-4(7)3-5(6)8/h4,6-7H,2-3H2,1H3	InChI=1S/C6H10O3/c1-2-9-6-4(7)3-5(6)8/h4,6-7H,2-3H2,1H3/t4-,6-/m0/s1
