17
gdb 85351	3.07669	1.19063	0.91242	0.7352	78.76	-0.2519	-0.0996	0.1523	1240.0698	0.135059	-421.88037	-421.871799	-421.870855	-421.914208	31.138	
C	-0.0252589282	 1.6215077045	-0.0280228802	-0.408605
C	 0.0228592937	 0.0837986007	 0.0000320694	-0.094795
C	 0.7564297818	-0.5363993238	-1.2124368882	-0.360757
C	 1.9498813059	-1.3138623228	-0.6414870854	 0.40165
O	 2.7935479718	-1.908053731	-1.268926291	-0.317785
C	 1.8598914111	-1.2036143145	 0.8382648313	-0.290172
C	 0.8003129032	-0.4550887532	 1.188820519	 0.240046
C	 0.4084501299	-0.207762276	 2.5908031961	 0.092471
O	-0.5766736388	 0.4136785675	 2.917970416	-0.25371
H	 0.9849263089	 2.0415631309	-0.0859215291	 0.117507
H	-0.5841440003	 1.9651590305	-0.9035574198	 0.122682
H	-0.5123367813	 2.0093866313	 0.8685507363	 0.149567
H	-1.0084918415	-0.2818910464	 0.0658498062	 0.10634
H	 0.126609368	-1.2259196984	-1.7832609502	 0.140084
H	 1.1172175783	 0.2169808304	-1.9193397042	 0.137825
H	 2.5643363294	-1.6840004231	 1.5074230084	 0.128749
H	 1.0884089881	-0.6529613665	 3.3486183756	 0.088903
55.1212	93.123	181.0699	210.2541	241.9082	271.7072	333.1101	419.4038	502.7512	519.7106	577.5131	638.4251	720.8023	784.6846	844.0746	875.131	920.9902	934.7895	1028.9722	1045.1538	1076.3487	1111.6203	1143.2991	1177.1267	1205.9477	1261.2164	1293.4133	1331.4964	1353.1943	1403.838	1418.8569	1450.6319	1494.77	1508.2351	1656.8177	1785.89	1814.1608	2903.7353	3036.0437	3041.554	3061.2688	3100.9082	3106.0691	3138.5974	3210.1083
CC1CC(=O)C=C1C=O	C[C@H]1CC(=O)C=C1C=O	
InChI=1S/C7H8O2/c1-5-2-7(9)3-6(5)4-8/h3-5H,2H2,1H3	InChI=1S/C7H8O2/c1-5-2-7(9)3-6(5)4-8/h3-5H,2H2,1H3/t5-/m0/s1
