21
gdb 88537	3.38668	1.21767	1.10334	1.0473	82.8	-0.2205	0.0754	0.2959	1189.2162	0.183753	-383.150024	-383.141812	-383.140868	-383.183363	31.994	
C	 2.9427995241	-0.673232147	 0.1461886997	-0.316728
N	 1.5939858536	-1.1871444784	 0.3364232005	-0.086113
C	 1.3718800833	-2.124573488	 1.4267253719	-0.257914
C	 0.7909124497	-0.7488628163	 1.4815235374	-0.154895
C	 1.2210703969	 0.2533685651	 2.5102972584	 0.329925
C	 1.3685434573	 1.7953858013	 2.3885848922	-0.207922
N	 1.6468449356	 1.5742869767	 3.8843156325	-0.148264
C	 0.4595324909	 0.599507046	 3.8158280013	-0.208655
C	 2.4783141888	 0.3716830587	 3.4146416995	-0.21809
H	 3.5423974975	-0.6072662573	 1.0658223374	 0.104774
H	 3.4692248129	-1.3340441797	-0.5501925849	 0.125191
H	 2.8932788009	 0.3218814996	-0.3072598887	 0.123739
H	 0.7466722759	-2.9862071023	 1.2062226744	 0.115221
H	 2.2063779835	-2.3292997421	 2.0980864901	 0.104583
H	-0.263428003	-0.6408073619	 1.2236562279	 0.08773
H	 2.2278790844	 2.1891656327	 1.8385118462	 0.100886
H	 0.4680753772	 2.3852985177	 2.1951503168	 0.101166
H	-0.5103542964	 1.097783149	 3.7278676656	 0.100494
H	 0.4550199937	-0.1416891995	 4.6201753207	 0.100802
H	 2.6262264498	-0.3853779028	 4.1904277856	 0.100732
H	 3.4270064835	 0.6584686885	 2.9539983555	 0.103337
38.604	137.416	181.6788	227.6178	271.7079	353.2155	409.7126	478.9752	574.1804	597.969	649.4689	757.821	795.9791	805.9469	856.0253	912.6465	935.3995	954.7668	975.7914	995.3256	1019.9481	1026.4617	1045.1264	1089.383	1125.0272	1133.2915	1148.8959	1154.2053	1168.2107	1170.3657	1179.0444	1200.311	1201.0831	1207.5036	1270.7975	1315.5085	1344.9245	1417.2684	1450.5017	1491.3088	1501.0672	1510.7052	1511.7641	1512.8009	1564.0618	2994.3017	3042.5189	3044.1207	3053.9043	3069.8541	3081.2154	3091.9315	3100.2852	3108.9887	3114.935	3116.8833	3169.285
CN1CC1C12CN(C1)C2	CN1C[C@H]1[C@@]12CN(C1)C2	
InChI=1S/C7H12N2/c1-8-2-6(8)7-3-9(4-7)5-7/h6H,2-5H2,1H3	InChI=1S/C7H12N2/c1-8-2-6(8)7-3-9(4-7)5-7/h6H,2-5H2,1H3/t6-,8?/m0/s1
