19
gdb 82756	2.26913	2.14882	1.5404	2.2066	73.67	-0.228	0.0692	0.2972	939.0324	0.160031	-422.983641	-422.976172	-422.975228	-423.014947	30.788	
C	-0.024836551	 1.515996977	 0.0054807075	-0.423974
C	 0.0751613671	-0.0039876348	 0.0445940035	 0.002474
C	 1.0640922306	-0.631399916	-0.9627864758	 0.056317
O	 2.322358151	 0.0275915338	-0.6167949345	-0.287711
C	 2.2580291264	-0.794186511	 0.5524629382	 0.031524
C	 1.5060035034	-1.9292690793	-0.169460401	-0.07914
C	 0.5866667553	-2.1326999681	 1.0459238535	-0.323461
C	 0.8160840169	-0.6114702886	 1.2614806326	 0.358428
O	 0.5881278696	 0.0450978461	 2.4624994011	-0.484708
H	 0.9672605219	 1.9706841116	 0.0131025432	 0.136235
H	-0.548467552	 1.84596129	-0.8983989923	 0.104161
H	-0.5802914744	 1.8810970208	 0.8733797085	 0.126199
H	-0.9207314278	-0.4515670693	-0.0472212474	 0.070621
H	 0.8414424848	-0.6153440995	-2.0291960243	 0.077971
H	 3.1714298009	-0.8671557889	 1.1433544885	 0.079512
H	 2.0000726854	-2.7303350059	-0.7135726373	 0.082001
H	-0.4409768485	-2.4801068967	 0.9106895496	 0.101399
H	 1.0900076712	-2.7483373961	 1.8000861225	 0.090582
H	 1.0863006589	-0.3975307549	 3.1568594938	 0.28157
192.4243	205.1055	232.3903	269.3378	339.7608	373.3753	436.5356	506.2146	558.4235	657.2067	695.4661	720.4968	806.7289	819.9269	844.4707	852.6299	903.6725	945.5556	964.7385	993.9571	1006.8022	1033.9881	1058.0276	1083.9581	1099.2592	1113.8889	1145.1034	1184.7211	1196.9057	1220.306	1238.269	1263.3401	1283.9098	1310.7938	1327.2506	1364.174	1399.7495	1409.3638	1490.1822	1499.3633	1507.3382	3039.6833	3040.5604	3046.4703	3099.844	3109.1172	3118.1795	3125.7888	3141.4762	3151.8156	3817.2369
CC1C2OC3C2CC13O	C[C@H]1[C@H]2O[C@@H]3[C@H]2C[C@]13O	
InChI=1S/C7H10O2/c1-3-5-4-2-7(3,8)6(4)9-5/h3-6,8H,2H2,1H3	InChI=1S/C7H10O2/c1-3-5-4-2-7(3,8)6(4)9-5/h3-6,8H,2H2,1H3/t3-,4-,5+,6+,7-/m0/s1
