25
gdb 63140	2.15369	1.86704	1.49702	0.0326	90.19	-0.279	0.0713	0.3503	1075.4781	0.232471	-352.386642	-352.378263	-352.377319	-352.418664	35.314	
C	-0.0746030718	 1.5247485892	 0.0065196566	-0.457318
C	 0.0123570008	-0.0106168769	 0.0054288548	 0.337382
C	-1.424391043	-0.5372298033	-0.147153917	-0.457235
C	 1.0244284795	-0.5962566596	-1.0282060801	-0.015499
C	 2.3779279329	-0.0300858874	-0.5357786745	-0.219239
C	 2.2165135255	-0.040588268	 1.020549866	-0.219215
C	 0.7914345012	-0.6111130433	 1.2171001901	-0.015505
C	 0.8561299266	-2.1168471102	 0.8656582332	-0.219234
C	 1.0177504343	-2.1065520547	-0.6906755353	-0.219225
H	 0.8909742649	 2.0215118729	 0.1094174515	 0.113881
H	-0.5296729209	 1.8814410041	-0.9245796124	 0.108484
H	-0.710730923	 1.8699471951	 0.8295901531	 0.108487
H	-1.8694212632	-0.1666796355	-1.0776950009	 0.108476
H	-1.4964221355	-1.6255071326	-0.1612682382	 0.113897
H	-2.0517656879	-0.1773870632	 0.6763610823	 0.108471
H	 0.8072108168	-0.3757547121	-2.0767758795	 0.046796
H	 3.2154609094	-0.6474148799	-0.8734284384	 0.089576
H	 2.5569534857	 0.9797519527	-0.9144583984	 0.092875
H	 2.9677053249	-0.6635904109	 1.5146659161	 0.089595
H	 2.3127000511	 0.9638563756	 1.4413174583	 0.092863
H	 0.3632772334	-0.4040347113	 2.201530302	 0.046795
H	 1.6930520396	-2.6088457636	 1.3697063236	 0.08956
H	-0.0512810474	-2.6440931286	 1.17199659	 0.09288
H	 0.1933453431	-2.6285358645	-1.1837361014	 0.092881
H	 1.9410449228	-2.5930291743	-1.0184462418	 0.089571
140.6424	202.8019	216.0075	267.1331	278.5451	365.918	392.0823	418.6421	429.6812	502.9928	589.751	610.8893	732.3955	791.4546	810.4602	834.7382	872.4773	885.9919	895.48	940.6236	957.2541	957.2636	959.484	988.9807	998.085	1016.186	1044.9414	1094.3304	1101.3545	1139.3791	1161.7643	1183.7365	1231.631	1236.5645	1236.816	1258.2632	1282.7554	1288.3635	1291.031	1304.5483	1340.9901	1342.6425	1356.6755	1405.9868	1428.2684	1476.368	1486.3288	1496.4653	1501.056	1507.0507	1509.7268	1525.1817	1529.3525	3028.6671	3034.6841	3048.6196	3048.8047	3056.6217	3057.6918	3072.95	3078.4835	3081.2637	3081.4111	3083.0739	3087.92	3096.2016	3103.0532	3132.4425	3133.4263
CC1(C)C2CCC1CC2	CC1(C)[C@H]2CC[C@@H]1CC2	
InChI=1S/C9H16/c1-9(2)7-3-4-8(9)6-5-7/h7-8H,3-6H2,1-2H3	InChI=1S/C9H16/c1-9(2)7-3-4-8(9)6-5-7/h7-8H,3-6H2,1-2H3/t7-,8+
