17
gdb 95610	2.37657	1.79029	1.05985	5.062	71.46	-0.2342	-0.0437	0.1905	1098.422	0.137613	-455.18431	-455.175968	-455.175023	-455.217637	30.315	
C	-0.060826046	 1.3766639846	-0.4455496973	-0.332689
N	-0.0104625319	 0.0576426839	 0.1635764368	-0.107032
C	-1.2158567251	-0.7490549328	 0.1644144929	-0.183563
C	-1.0984289874	-1.8026313228	 1.2453510849	-0.082558
O	 0.0577419764	-2.6294556187	 1.0508949246	-0.227931
C	 1.2107366403	-2.0565735076	 0.6502945341	 0.390588
O	 2.2212436457	-2.7033728052	 0.6180490335	-0.32183
C	 1.2044766494	-0.5886107507	 0.2099720277	 0.228047
N	 2.2989189536	-0.0064580191	-0.0940364923	-0.525799
H	 0.8066470975	 1.9500702945	-0.1195642594	 0.169164
H	-0.0381967599	 1.3272202139	-1.5437281908	 0.126431
H	-0.9789344236	 1.8806449887	-0.1315739018	 0.118696
H	-2.0727937222	-0.1053131981	 0.3871331974	 0.124519
H	-1.4054904442	-1.2234637109	-0.8128757564	 0.117921
H	-1.0333176877	-1.3292620599	 2.2319877063	 0.128988
H	-1.95190235	-2.4834000918	 1.2339550661	 0.133588
H	 3.0626608649	-0.6679021581	 0.0497909138	 0.24346
87.7763	113.0103	123.564	173.2746	301.3501	344.3039	380.6501	449.5222	472.2682	498.0681	565.6444	662.4366	709.251	800.8025	894.0601	903.8343	942.5837	1005.2211	1095.39	1098.7342	1112.5059	1153.7395	1196.6194	1215.0539	1266.6916	1293.3919	1327.1096	1387.8786	1418.7685	1440.3654	1469.1467	1485.4259	1502.6409	1507.1322	1519.0145	1700.0453	1839.0688	2968.8904	3006.0271	3043.8892	3076.933	3089.7828	3118.663	3156.4819	3488.1912
CN1CCOC(=O)C1=N	CN1CCOC(=O)[C]1[NH]	
InChI=1S/C5H8N2O2/c1-7-2-3-9-5(8)4(7)6/h6H,2-3H2,1H3	InChI=1S/C5H8N2O2/c1-7-2-3-9-5(8)4(7)6/h6H,2-3H2,1H3
