14
gdb 20703	3.38532	2.37537	1.40784	1.3394	68.66	-0.2255	-0.0644	0.1611	831.1987	0.109275	-374.915104	-374.908248	-374.907304	-374.946119	25.653	
C	 0.1252085431	 1.473935223	 0.0319412721	-0.460042
C	 0.0065986003	-0.0137628679	-0.0098605679	 0.329657
N	-0.1070237416	-0.6317077003	-1.1428240789	-0.303715
C	-0.212922554	-2.005987627	-1.1198491306	 0.066197
N	-0.2113084978	-2.7621693201	-0.0689612992	-0.178845
N	-0.0926676027	-2.1092931832	 1.1048369047	-0.292134
C	 0.0247076023	-0.7359425093	 1.2804080595	 0.337079
N	 0.1378688642	-0.1105299991	 2.3940502678	-0.548571
H	 1.0543023217	 1.7618389205	 0.5349971391	 0.154781
H	 0.0970269621	 1.8787037255	-0.9796295532	 0.136159
H	-0.6824815414	 1.8975216824	 0.6379975547	 0.154824
H	-0.3070955327	-2.5061143787	-2.0759973774	 0.134378
H	-0.0928750435	-2.7116475639	 1.9155087921	 0.266885
H	 0.1343878801	-0.7467608918	 3.1937653972	 0.203347
111.5772	158.2573	248.1255	308.23	420.0806	471.2666	540.848	546.6177	590.6161	654.3275	733.247	768.0818	813.7127	907.9009	920.7156	981.8406	1051.6296	1095.8845	1144.2735	1218.5668	1232.4075	1367.2996	1395.8859	1407.2126	1453.6349	1457.4943	1461.5953	1580.7028	1647.656	1698.2075	3047.02	3100.8419	3160.4001	3214.6684	3450.5862	3604.6944
CC1=NC=NNC1=N	Cc1ncn[nH]c1[NH]	
InChI=1S/C4H6N4/c1-3-4(5)8-7-2-6-3/h2H,1H3,(H2,5,8)	InChI=1S/C4H11N4/c1-3-4(5)8-7-2-6-3/h3-8H,2H2,1H3
