23
gdb 111209	2.72146	1.0011	0.85615	1.6926	86.46	-0.2568	0.0728	0.3296	1473.4275	0.206201	-388.231782	-388.22239	-388.221446	-388.266488	35.757	
C	-0.1010859367	 1.7321536701	-0.2867643881	-0.373618
C	-0.001072909	 0.2249462315	-0.0187569615	-0.234607
C	-1.3675685449	-0.452829476	-0.0290087513	 0.074662
C	-2.1371105167	-0.7673863572	-1.3575815755	-0.081168
C	-1.1477966468	-1.9457555967	-1.5916872187	-0.231717
C	-1.5280212824	-2.0097658946	-0.0819279237	-0.101513
C	-3.0054805752	-1.796352438	-0.5488911474	 0.038984
C	-4.1231735015	-1.3699909788	 0.389949265	-0.127358
O	-5.3039780724	-1.0293227459	-0.3298023299	-0.417807
H	 0.8802066097	 2.2128573958	-0.2270505712	 0.112138
H	-0.5093592988	 1.931316691	-1.2835011688	 0.116022
H	-0.7564202138	 2.2223333402	 0.442072733	 0.113034
H	 0.685226208	-0.2252144587	-0.7424274791	 0.098025
H	 0.4529958612	 0.063064972	 0.968051692	 0.096068
H	-1.9860513836	 0.0293692982	 0.7335216922	 0.057869
H	-2.4890592765	-0.0527633616	-2.1058948599	 0.060516
H	-1.5135488512	-2.7654823216	-2.2159287834	 0.090597
H	-0.1168338986	-1.6988584724	-1.8436249418	 0.0935
H	-1.1736783332	-2.7335412291	 0.6553657186	 0.065508
H	-3.3857027052	-2.6125612835	-1.1735696207	 0.07044
H	-4.4044032175	-2.2194368835	 1.0228606716	 0.10883
H	-3.8283567936	-0.5549290284	 1.0644616282	 0.090482
H	-5.0853621613	-0.2914605529	-0.9079566195	 0.281113
61.5535	70.6808	158.5792	171.0135	209.1265	267.6566	311.2209	373.4406	394.7607	425.1783	572.5556	576.0855	744.1247	752.3229	809.9215	840.6923	861.8557	896.4472	900.5213	959.0471	1003.1145	1020.9168	1033.444	1052.2477	1055.8187	1064.6292	1092.1153	1113.7631	1136.3944	1145.7306	1161.0528	1189.1352	1206.5267	1211.0306	1246.011	1247.5726	1268.3134	1295.2563	1346.1591	1358.3358	1406.0624	1409.8546	1433.0684	1445.3142	1484.8242	1499.5623	1505.7651	1509.8626	1532.2926	3006.4593	3021.503	3029.5225	3040.6521	3056.0026	3061.2306	3065.9267	3076.4045	3077.0122	3089.9718	3099.7907	3103.0818	3137.4079	3815.8851
CCC1C2CC1C2CO	CC[C@H]1[C@H]2C[C@@H]1[C@H]2CO	
InChI=1S/C8H14O/c1-2-5-6-3-7(5)8(6)4-9/h5-9H,2-4H2,1H3	InChI=1S/C8H14O/c1-2-5-6-3-7(5)8(6)4-9/h5-9H,2-4H2,1H3/t5-,6+,7-,8-
