23
gdb 80553	2.76504	1.26274	1.14521	0.261	91.23	-0.2259	0.022	0.2479	1237.8041	0.207413	-351.164927	-351.156152	-351.155208	-351.197969	35.034	
C	-0.1010644796	 1.6059187426	 0.0088026614	-0.409111
C	-0.0011933985	 0.0976529159	-0.0064332882	-0.014293
C	 0.6623724624	-0.6818078137	-1.1274671443	-0.070124
C	 1.3861240684	 0.0207359022	-2.2747772478	-0.226371
C	 2.9246880397	-0.0004826315	-2.1377503973	-0.011531
C	 3.5853884407	 0.9201102891	-3.1717089314	-0.399931
C	 3.3449651736	 0.3528895739	-0.7264437397	-0.04279
C	 2.6043787895	 0.0697125159	 0.3468160245	-0.093144
C	 1.3065105544	-0.6418892178	 0.2410626018	-0.08964
H	 0.8386069286	 2.0820126592	-0.281877434	 0.12315
H	-0.8851703443	 1.9598259707	-0.6705963984	 0.112601
H	-0.3499067483	 1.9632997976	 1.0141850053	 0.112623
H	-0.8721140427	-0.39578476	 0.4190357852	 0.078598
H	 0.1740870731	-1.6127744808	-1.3984296477	 0.077429
H	 1.1010652908	-0.4430407084	-3.2257305386	 0.091884
H	 1.0672503867	 1.0674299007	-2.3455335894	 0.099164
H	 3.2690565242	-1.0269877509	-2.3409304799	 0.08275
H	 3.2913325918	 1.9636957659	-3.0102036769	 0.114634
H	 4.6777133672	 0.8683094304	-3.1105833218	 0.110099
H	 3.2931847479	 0.6440400087	-4.1904509266	 0.109266
H	 4.3061681976	 0.8490459063	-0.6072774151	 0.079003
H	 2.9555701451	 0.3398558273	 1.3405364361	 0.082107
H	 1.2272871817	-1.5337533935	 0.8586849529	 0.083626
77.3018	159.4472	197.9766	242.6212	261.163	302.3552	325.8417	415.7723	451.8655	481.816	531.6929	600.4192	726.4075	729.4171	761.2308	812.5851	857.6032	872.8717	928.3449	936.4034	959.0848	989.9994	1001.51	1057.2742	1065.6362	1091.164	1098.4018	1114.8777	1146.2695	1148.2625	1160.4741	1211.5125	1241.4736	1260.2398	1309.24	1330.4818	1352.7588	1373.1732	1379.9541	1405.3801	1417.3988	1426.8429	1436.1418	1486.6826	1497.1699	1499.5367	1500.7149	1509.0904	1704.5664	2972.2129	3024.122	3028.1021	3030.5688	3063.3637	3083.8626	3093.1088	3096.8873	3112.031	3120.6306	3130.3426	3133.7128	3149.2749	3157.2948
CC1C2CC(C)C=CC12	C[C@H]1[C@H]2C[C@@H](C)C=C[C@@H]12	
InChI=1S/C9H14/c1-6-3-4-8-7(2)9(8)5-6/h3-4,6-9H,5H2,1-2H3	InChI=1S/C9H14/c1-6-3-4-8-7(2)9(8)5-6/h3-4,6-9H,5H2,1-2H3/t6-,7+,8-,9+/m0/s1
