16
gdb 90218	3.06198	1.85645	1.63259	2.6662	68.51	-0.2216	0.0428	0.2643	860.5743	0.124099	-437.693503	-437.686832	-437.685888	-437.724236	27.617	
O	 0.1763245713	 1.2422612229	-0.3210885199	-0.419222
C	 0.061470619	-0.1141460515	-0.0070585971	 0.047291
C	 0.1764749125	-0.4543747195	 1.5364278522	-0.341373
C	-1.3698703118	-0.4436656683	 1.6128099974	 0.153799
N	-2.1690445555	 0.8277263054	 1.5088224809	-0.390464
C	-2.80935033	-0.055171963	 0.4796607069	-0.121891
C	-2.5148992697	-1.4300192647	 1.2378488303	 0.030928
O	-1.7858983086	-2.0284062121	 0.1306225965	-0.339458
C	-1.4242541014	-0.6115794961	 0.0722187593	 0.311937
H	-0.4694455901	 1.7098965741	 0.2301170103	 0.295487
H	 0.7120761705	-0.6746892036	-0.6822710833	 0.108852
H	 0.5856150875	-1.4510003722	 1.712406227	 0.13402
H	 0.7023995415	 0.2798580689	 2.1495725638	 0.122331
H	-2.7678789154	 0.968774721	 2.3243160479	 0.221602
H	-3.6802336862	 0.2450169341	-0.1114916727	 0.093153
H	-3.1693266737	-2.0821858454	 1.8268579406	 0.093009
131.8508	234.7764	339.3893	393.6857	449.9311	486.2581	527.1668	561.6548	641.4064	729.5082	737.4647	772.6517	808.2515	828.1977	867.8377	902.4146	931.0723	958.1841	1015.0005	1038.4968	1082.4469	1095.8769	1120.3715	1140.1264	1164.8062	1178.7102	1212.0915	1226.7829	1255.8782	1269.8061	1277.3716	1301.1125	1333.9247	1435.9083	1456.8339	3049.4806	3071.1089	3077.1312	3090.6633	3144.3261	3422.4359	3710.7399
OC1CC23NC4C2OC134	O[C@H]1C[C@]23N[C@@H]4[C@H]2O[C@]134	
InChI=1S/C6H7NO2/c8-2-1-5-4-3(7-5)6(2,5)9-4/h2-4,7-8H,1H2	InChI=1S/C6H7NO2/c8-2-1-5-4-3(7-5)6(2,5)9-4/h2-4,7-8H,1H2/t2-,3+,4+,5-,6-/m0/s1
