20
gdb 14024	3.29322	1.58284	1.3153	1.1219	75.89	-0.2327	0.0789	0.3116	1028.3402	0.176365	-348.964881	-348.956481	-348.955537	-348.99787	31.259	
C	-0.0021711599	 1.0460247054	 0.4856546941	-0.234763
O	-0.1701268068	-0.0105747913	-0.4378924637	-0.231135
C	-1.3785745873	-0.6839454709	-0.27231079	 0.065916
C	-1.4883088	-2.031599615	-0.9165193905	-0.400958
C	-1.4367215954	-1.9212943808	 0.5859624703	 0.339853
C	-0.3209735629	-2.3902279694	 1.5266431024	-0.28377
C	-1.3657142019	-2.3893207834	 2.6836275385	-0.201752
C	-2.5086496331	-2.2493235221	 1.6328220416	-0.294167
H	 0.9691500373	 1.5026874842	 0.28107286	 0.126299
H	-0.785565976	 1.8107569364	 0.3689027129	 0.105569
H	-0.0204941278	 0.6915341416	 1.5260859646	 0.107217
H	-2.2579235569	-0.0347073696	-0.2828381017	 0.075737
H	-2.4238531462	-2.2999840135	-1.3974775054	 0.109387
H	-0.5964273025	-2.4005006704	-1.4136730426	 0.121143
H	 0.0398255358	-3.3955065083	 1.2862108988	 0.09935
H	 0.5440947405	-1.730454149	 1.6283174919	 0.104615
H	-1.3928628358	-3.2754789145	 3.3211379671	 0.097322
H	-1.278448613	-1.5070326225	 3.3227850679	 0.101219
H	-3.2682402605	-1.4846344082	 1.8221373494	 0.093721
H	-3.0171894378	-3.1990407287	 1.4358905844	 0.099197
76.7406	127.2905	153.1443	162.3405	222.7292	315.7033	343.6904	454.4298	493.826	590.3767	712.3712	778.1262	805.0219	852.2327	880.1189	897.7665	932.5815	952.703	1012.7767	1040.6505	1069.7015	1082.6948	1126.0956	1140.033	1174.5216	1181.5778	1186.965	1219.1508	1225.1125	1245.3228	1252.6839	1272.7727	1280.4629	1339.8842	1407.7777	1468.0222	1478.0038	1482.2752	1485.2134	1495.226	1504.9171	1512.6368	2980.7599	3031.4404	3038.8064	3048.7207	3063.8764	3065.758	3083.5822	3098.5277	3116.5205	3120.2304	3121.5905	3209.9104
COC1CC11CCC1	CO[C@H]1CC21CCC2	
InChI=1S/C7H12O/c1-8-6-5-7(6)3-2-4-7/h6H,2-5H2,1H3	InChI=1S/C7H12O/c1-8-6-5-7(6)3-2-4-7/h6H,2-5H2,1H3/t6-/m0/s1
