17
gdb 92917	2.63277	1.38326	1.09531	4.3901	73.17	-0.2718	-0.0012	0.2706	1134.5676	0.137366	-418.039935	-418.031764	-418.030819	-418.072942	30.281	
C	 0.0594242884	 1.5665080795	 0.0874743246	-0.407751
C	 0.0055990068	 0.0547045409	-0.0355599215	 0.134599
C	 0.7246437833	-0.5007646498	-1.2601401793	-0.247928
C	 0.7226170045	-2.0414647548	-1.1905224883	-0.137369
N	 1.1380050387	-2.5502419495	 0.1211289553	-0.264801
C	 1.0610974791	-1.7525986904	 1.1050386718	 0.143293
O	 0.6079923539	-0.4877307759	 1.1652396761	-0.232021
C	-0.6030422738	-2.5811754273	-1.5387481135	 0.299341
N	-1.6534490078	-2.9724734959	-1.8196934104	-0.329471
H	 1.0955533439	 1.9178275223	 0.0982835472	 0.129853
H	-0.4585650721	 2.0299874126	-0.7571047506	 0.12918
H	-0.4252456927	 1.8906669696	 1.0118452056	 0.137576
H	-1.0385621569	-0.284371037	-0.0463905461	 0.1181
H	 0.246325499	-0.1443612296	-2.1762722823	 0.130436
H	 1.764477963	-0.1565506547	-1.2627098687	 0.121614
H	 1.4280255716	-2.4397696845	-1.9291563362	 0.137158
H	 1.4083145908	-2.0719370253	 2.0860841264	 0.138191
85.3821	104.0336	196.5249	228.6281	277.824	308.6512	412.1205	446.8448	464.5456	518.3784	609.7942	664.1086	786.2005	811.7694	885.4302	908.6568	934.076	984.1548	987.8049	1042.9017	1112.0191	1128.5828	1163.2835	1199.9138	1242.094	1278.6046	1334.3603	1344.239	1381.347	1404.2823	1407.9615	1418.5428	1475.1747	1486.2189	1498.3905	1715.2044	2357.0765	3027.0874	3040.0693	3046.0616	3055.9588	3108.1256	3122.5941	3128.468	3162.998
CC1CC(N=CO1)C#N	C[C@H]1C[C@@H](N=CO1)C#N	
InChI=1S/C6H8N2O/c1-5-2-6(3-7)8-4-9-5/h4-6H,2H2,1H3	InChI=1S/C6H8N2O/c1-5-2-6(3-7)8-4-9-5/h4-6H,2H2,1H3/t5-,6+/m0/s1
