15
gdb 45727	2.63643	1.43519	1.11414	4.162	72.84	-0.2624	-0.0126	0.2498	1091.93	0.111628	-420.625211	-420.617119	-420.616174	-420.659042	29.766	
O	-0.1022312978	 0.1910967984	 0.9049189104	-0.317899
C	-0.0734970994	 1.1356267804	 0.1674156168	 0.421271
C	-1.3325817551	 1.813616941	-0.3522468895	-0.405069
C	-1.1231828702	 3.2044099815	-0.8710355872	-0.071519
C	 0.0768120901	 3.6138663295	-1.2571719485	-0.069931
C	 1.2731663891	 2.6998166945	-1.1734950344	-0.09172
O	 1.1308626362	 1.64278475	-0.2015327529	-0.22926
C	 1.6030392965	 2.1366789903	-2.4858121145	 0.340399
C	 1.86622734	 1.691671213	-3.5700451434	-0.466226
H	-1.7443942777	 1.1675948868	-1.1409839193	 0.159171
H	-2.0619995009	 1.7801094361	 0.461970539	 0.151073
H	-1.9862854407	 3.8599604611	-0.9352547788	 0.112438
H	 0.2574341197	 4.6010281529	-1.6675131258	 0.118643
H	 2.1395516419	 3.266673508	-0.8118086105	 0.13837
H	 2.1037877483	 1.2918203464	-4.5252148115	 0.210259
33.4106	72.374	158.5383	234.819	359.8684	444.4712	455.3868	480.6099	563.9419	572.1285	609.7148	629.4707	683.8671	713.997	774.0747	892.7829	929.1931	969.6642	971.6346	1001.9732	1024.9781	1090.0291	1163.0957	1201.8495	1228.7673	1312.9088	1340.372	1379.0711	1403.7882	1449.1896	1741.9401	1852.1319	2236.8492	3019.4358	3036.6566	3090.6815	3172.4675	3201.6369	3501.3921
O=C1CC=CC(O1)C#C	O=C1CC=C[C@@H](O1)C#C	
InChI=1S/C7H6O2/c1-2-6-4-3-5-7(8)9-6/h1,3-4,6H,5H2	InChI=1S/C7H6O2/c1-2-6-4-3-5-7(8)9-6/h1,3-4,6H,5H2/t6-/m0/s1
