17
gdb 20304	4.1415	1.79512	1.65042	1.1861	67.15	-0.2264	0.0853	0.3117	842.392	0.143271	-363.778876	-363.771986	-363.771041	-363.810132	26.327	
C	 0.3715707539	 1.3678680565	 0.1270157419	-0.183617
O	 0.880390961	 0.2777199447	-0.6502441572	-0.230739
C	-0.3547961022	 0.093166925	 0.039773367	 0.059825
C	-0.4808908015	-0.8605751441	 1.1903070812	-0.017585
C	-0.0859498719	-2.2825214122	 1.238100238	-0.051877
C	 1.2439100791	-2.5654470476	 0.5390467614	-0.251903
C	 1.8571140317	-1.4960817681	 1.4729109179	-0.144912
N	 0.5392937058	-1.2504781823	 2.1818363047	-0.174883
H	 0.9344941198	 1.5938364183	 1.0308612974	 0.127371
H	 0.0325741397	 2.2284172854	-0.4466545631	 0.119595
H	-1.2222979499	 0.0608677886	-0.6241610134	 0.097692
H	-1.4191972331	-0.6633703538	 1.7120798797	 0.100585
H	-0.7663697719	-3.0445466597	 1.6079815659	 0.091988
H	 1.6201177544	-3.5707492992	 0.7360003781	 0.107792
H	 1.2767225819	-2.3755353951	-0.535608123	 0.11985
H	 2.5545745705	-1.9128111723	 2.2022499505	 0.106363
H	 2.2977351426	-0.6175241242	 1.004666013	 0.124455
80.9509	168.0078	207.5512	305.7248	331.6994	483.5342	624.251	739.9199	766.7861	778.751	792.7375	796.3245	890.412	930.2079	956.9201	970.2099	1003.0171	1036.3113	1063.8313	1081.8812	1104.296	1142.7058	1162.0902	1172.753	1182.5786	1224.5347	1241.4767	1268.2307	1297.5156	1302.2687	1362.7914	1421.5123	1459.6914	1482.9183	1503.4253	1526.7285	3073.6934	3075.7707	3080.5876	3091.2175	3095.9799	3123.763	3148.0767	3152.4722	3182.4704
C1OC1C1C2CCN12	C1O[C@H]1[C@H]1[C@H]2CCN12	
InChI=1S/C6H9NO/c1-2-7-4(1)6(7)5-3-8-5/h4-6H,1-3H2	InChI=1S/C6H9NO/c1-2-7-4(1)6(7)5-3-8-5/h4-6H,1-3H2/t4-,5-,6-,7?/m1/s1
