21
gdb 89726	2.51645	1.47528	1.06813	1.499	86.92	-0.206	0.0229	0.2289	1216.7907	0.180998	-387.094888	-387.085718	-387.084774	-387.128734	35.21	
C	 0.1930067862	 1.5288559932	-0.1700360632	-0.386874
C	-0.0420562234	 0.0389156291	 0.0787993332	 0.075245
O	 0.4203439776	-0.7195762966	-1.0497650122	-0.322514
C	 1.3203246668	-1.7169396125	-0.6176545634	 0.383925
C	 1.2487735513	-3.0586597514	-1.3060555702	-0.330196
C	 2.4086707253	-2.1198089911	-1.5769719905	-0.32752
C	 1.5027445977	-1.5373859178	 0.8481486614	 0.264623
C	 2.4243783384	-2.3767492143	 1.672400922	-0.506032
C	 0.7158718495	-0.5373409208	 1.2443499262	-0.236625
H	 1.2626291613	 1.73599714	-0.2669635184	 0.118654
H	-0.3089471416	 1.8410406249	-1.0904165578	 0.122843
H	-0.2067496841	 2.1241660107	 0.6580103996	 0.108554
H	-1.1270380094	-0.1302207503	 0.1903814326	 0.07854
H	 1.4305489266	-3.9601046616	-0.7301498812	 0.109599
H	 0.4936496104	-3.1548629478	-2.0780087302	 0.124374
H	 2.4187635869	-1.5995576788	-2.5281880282	 0.124382
H	 3.3882517241	-2.3752502488	-1.1866055135	 0.110143
H	 3.4611202656	-2.29143978	 1.3250250801	 0.132498
H	 2.3952369612	-2.0776394089	 2.7228684002	 0.129175
H	 2.1575459881	-3.4390302885	 1.6160617114	 0.132019
H	 0.6117890816	-0.1654490489	 2.2563835021	 0.095184
54.5594	131.8887	179.4809	228.4082	230.1732	235.2461	294.3526	381.6449	420.1941	468.5141	527.81	595.3037	647.2377	738.2754	762.4972	817.4837	848.9329	883.0194	896.2351	922.0422	942.743	994.9233	1012.9495	1046.3993	1058.1295	1061.989	1068.3199	1103.004	1132.4627	1166.1559	1192.2439	1237.2977	1298.2528	1343.7127	1373.5688	1392.6755	1401.2809	1416.7044	1446.0936	1482.3897	1484.7379	1486.7604	1492.0681	1494.9583	1719.8075	2945.3414	3025.0676	3035.5855	3072.7261	3108.6447	3118.4176	3120.4629	3128.6894	3131.2364	3207.095	3213.9241	3228.8163
CC1OC2(CC2)C(C)=C1	C[C@H]1OC2(CC2)C(=C1)C	
InChI=1S/C8H12O/c1-6-5-7(2)9-8(6)3-4-8/h5,7H,3-4H2,1-2H3	InChI=1S/C8H12O/c1-6-5-7(2)9-8(6)3-4-8/h5,7H,3-4H2,1-2H3/t7-/m1/s1
