17
gdb 72046	2.48486	1.68192	1.3066	4.6688	78.65	-0.259	0.0029	0.2619	1022.7892	0.136823	-380.82726	-380.819584	-380.81864	-380.859302	29.611	
C	-0.1292461773	 1.4763986427	-0.0280000564	-0.491738
C	 0.0057702616	-0.0108299108	-0.0780633158	 0.280019
C	 0.9200057405	-0.8586217981	-0.9695246204	-0.287187
C	 0.0991480834	-2.0812254599	-0.4854511605	-0.134641
C	 0.4020693592	-2.0956772279	 1.0195939494	-0.15461
N	-0.310491508	-0.7802917966	 1.1726408057	-0.204764
C	-1.056286919	-1.0685801354	-0.1029951803	 0.254284
C	-2.4616218292	-1.0425099784	-0.2720322284	 0.125511
N	-3.6062872142	-1.0330903513	-0.4481437487	-0.358494
H	 0.7785793807	 1.9273403445	 0.3872432032	 0.133608
H	-0.2877999087	 1.8876172444	-1.0296189948	 0.131046
H	-0.9709896734	 1.7635131089	 0.6068140953	 0.149368
H	 0.7422783735	-0.6303279187	-2.0230800859	 0.120441
H	 1.9955225583	-0.8628681915	-0.7632445175	 0.104527
H	 0.0044954123	-2.9820720849	-1.0865032504	 0.098537
H	-0.1541150651	-2.8522551649	 1.5769308581	 0.126584
H	 1.4514991955	-2.089509522	 1.3331674573	 0.107507
116.5059	149.5768	183.4537	262.1121	304.8157	418.4532	436.3608	515.7768	556.3332	586.2074	620.533	704.8326	782.4595	844.9295	878.4483	933.6914	947.9951	974.0258	989.0206	1021.6581	1045.5649	1093.4752	1143.6092	1150.0844	1175.1405	1198.3308	1228.3994	1261.837	1305.6252	1315.5623	1400.6784	1437.4205	1482.1153	1488.4834	1494.1184	1515.0046	2341.3369	3039.1363	3044.8836	3051.1338	3103.7844	3114.0002	3118.9943	3128.2693	3153.9952
CC12CC3CN1C23C#N	C[C@@]12C[C@H]3CN1[C@@]23C#N	
InChI=1S/C7H8N2/c1-6-2-5-3-9(6)7(5,6)4-8/h5H,2-3H2,1H3	InChI=1S/C7H8N2/c1-6-2-5-3-9(6)7(5,6)4-8/h5H,2-3H2,1H3/t5-,6-,7+,9?/m0/s1
