14
gdb 127569	3.3071	1.4653	1.0219	2.1991	68.07	-0.2619	-0.0682	0.1937	1078.2275	0.102393	-470.070975	-470.063194	-470.06225	-470.103928	27.915	
C	-0.0208223006	 1.4494688854	-0.0397236626	-0.314999
N	-0.0016327095	-0.0097658666	-0.003400742	-0.091585
N	-0.055763753	-0.6530568166	-1.1841461913	-0.147154
C	-0.0413445608	-1.9422009581	-1.2015243841	-0.103971
C	 0.0315427047	-2.7853806524	-0.0001703124	 0.408351
O	 0.046673981	-3.9959315521	 0.0162686361	-0.352368
N	 0.0834391056	-2.016491853	 1.1630856827	-0.44485
C	 0.0711212076	-0.6334381548	 1.2415495769	 0.527677
O	 0.1182981435	-0.0149559789	 2.2805779542	-0.380689
H	 0.8855954619	 1.8525647117	 0.4180935267	 0.155802
H	-0.079056866	 1.7404838351	-1.0867663297	 0.155532
H	-0.8837853424	 1.8315912323	 0.5106861415	 0.155797
H	-0.0859666238	-2.4310794277	-2.1669314838	 0.153812
H	 0.1355710518	-2.5064243444	 2.0472058378	 0.278643
63.1517	112.1407	160.2258	230.9362	321.6137	382.9874	438.877	483.0539	529.9827	621.6636	694.6483	732.8452	754.2243	776.2231	801.5783	898.6921	978.4377	1015.522	1155.6187	1203.2999	1239.6807	1287.9438	1373.2351	1386.9349	1418.6608	1449.585	1475.8913	1510.0015	1634.1053	1807.5406	1819.2712	3061.307	3126.7472	3181.0881	3217.1406	3600.6388
CN1N=CC(=O)NC1=O	Cn1ncc(=O)[nH]c1=O	
InChI=1S/C4H5N3O2/c1-7-4(9)6-3(8)2-5-7/h2H,1H3,(H,6,8,9)	InChI=1S/C4H5N3O2/c1-7-4(9)6-3(8)2-5-7/h2H,1H3,(H,6,8,9)
