16
gdb 55062	2.48352	1.36229	1.02719	1.9812	69.13	-0.2566	0.0223	0.2789	1148.8427	0.123959	-434.09296	-434.083795	-434.082851	-434.128074	32.312	
N	 0.6198623963	-0.4246931442	 0.3537789937	-0.520211
C	-0.4882509041	 0.0418903619	-0.2823356125	 0.396154
O	-0.4669166967	 0.7969677381	-1.2322099716	-0.365114
N	-1.6877770933	-0.4424636722	 0.3131023989	-0.125475
C	-2.8681578885	-0.5159786759	-0.5286662033	-0.248807
C	-2.2138875286	-1.7647030423	-0.0459135768	-0.008104
C	-1.474173546	-2.6566353897	-1.0341855855	-0.365378
C	-0.4465921156	-3.4712795803	-0.3819855967	 0.268387
N	 0.3462937566	-4.1150442886	 0.1582072297	-0.310735
H	 1.5157729178	-0.0758748836	 0.060509138	 0.271578
H	 0.5512711114	-0.9434066111	 1.211703874	 0.274851
H	-3.7930607652	-0.176971849	-0.072139551	 0.129551
H	-2.7306778477	-0.2387655298	-1.5706429833	 0.145283
H	-2.6550515773	-2.3043016483	 0.789246452	 0.11905
H	-2.1910308517	-3.3290514592	-1.5197252166	 0.161464
H	-1.0109352474	-2.0551977757	-1.8234720888	 0.177505
33.4487	66.0937	129.8923	160.8391	212.1242	258.6358	364.9546	388.3108	399.353	490.4535	549.2261	569.3254	599.6106	730.6998	778.8901	845.7415	899.1092	947.4704	968.8512	1024.2433	1083.7709	1103.8529	1130.8609	1141.9693	1171.5108	1244.4692	1289.9619	1311.3163	1381.1863	1418.4562	1457.7942	1509.5512	1613.5267	1803.7691	2363.2392	3046.6516	3090.2432	3116.8535	3135.2377	3206.7405	3619.4723	3753.8434
NC(=O)N1CC1CC#N	NC(=O)N1C[C@H]1CC#N	
InChI=1S/C5H7N3O/c6-2-1-4-3-8(4)5(7)9/h4H,1,3H2,(H2,7,9)	InChI=1S/C5H7N3O/c6-2-1-4-3-8(4)5(7)9/h4H,1,3H2,(H2,7,9)/t4-,8?/m1/s1
