17
gdb 36110	3.72198	1.12874	1.03285	2.7515	75.66	-0.2372	0.0233	0.2606	1173.6743	0.136361	-380.792937	-380.785239	-380.784295	-380.825644	29.644	
N	-0.1480763325	-1.1353891469	 0.3095239114	-0.304797
C	-0.0891621696	 0.0015043561	 0.1121629135	 0.264754
C	 0.0113020638	 1.4427918794	-0.1415993763	-0.457349
C	 1.4313316611	 1.9447351252	-0.0629308154	 0.352776
C	 2.1118958202	 2.3859728756	 1.2026872771	-0.349671
C	 1.9624346422	 3.3526848955	 0.0554836939	-0.072473
N	 2.8812281783	 3.1968789627	-1.1421211767	-0.137931
C	 3.8384565039	 2.0940778101	-0.9176761297	-0.248737
C	 2.4334388584	 1.7609651157	-1.2248929458	-0.082971
H	-0.4156142672	 1.6483569507	-1.131415361	 0.157316
H	-0.6159777092	 1.9683332057	 0.58706875	 0.154655
H	 1.4233336531	 2.6013378814	 2.0152562033	 0.123328
H	 3.0549112539	 1.9761793534	 1.5443668524	 0.125952
H	 1.4461017544	 4.2995482243	 0.1522071572	 0.1111
H	 4.5441828206	 2.0077392999	-1.7389940423	 0.131127
H	 4.2785791293	 1.9216127428	 0.0569588659	 0.126503
H	 2.1265089392	 1.3347399184	-2.1755048376	 0.106418
57.2568	103.9191	230.3556	287.6128	380.7545	390.8437	445.2715	465.4731	539.9345	678.046	695.8066	757.6812	799.5204	849.1048	894.2796	914.3496	928.0144	964.8492	995.9388	1006.7364	1031.2467	1047.6501	1073.1051	1097.066	1112.5136	1136.1956	1170.4578	1221.8945	1250.3321	1278.5377	1329.5559	1346.3651	1404.506	1454.4606	1483.067	1524.2893	2361.7512	3032.37	3076.2217	3127.7057	3137.7686	3154.1825	3190.4952	3207.9006	3220.0576
N#CCC12CC1N1CC21	N#CC[C@]12C[C@H]1N1C[C@@H]21	
InChI=1S/C7H8N2/c8-2-1-7-3-5(7)9-4-6(7)9/h5-6H,1,3-4H2	InChI=1S/C7H8N2/c8-2-1-7-3-5(7)9-4-6(7)9/h5-6H,1,3-4H2/t5-,6+,7+,9?/m1/s1
