17
gdb 17876	3.29571	2.05785	1.87464	1.8538	67.53	-0.2371	-0.0088	0.2283	799.8772	0.145382	-363.862577	-363.856018	-363.855074	-363.893192	25.864	
O	 0.0003829725	 0.0146267717	-0.0843195548	-0.32376
C	-0.013766531	 1.2059476611	 0.0296114341	 0.428241
C	-1.0862168126	 2.3055938006	-0.0076176152	-0.126037
C	-1.3039561886	 2.8675044744	 1.4114042813	-0.205799
C	-0.0171299881	 3.5769965836	 1.8922204564	-0.186289
C	 1.272980034	 2.9018473924	 1.372340798	-0.205799
C	 1.0273847642	 2.3337610344	-0.0396569516	-0.126037
N	-0.0510406343	 3.1658225698	-0.7063143335	-0.322636
H	-2.0135032849	 2.1192014963	-0.5537212297	 0.088813
H	-2.1391506689	 3.5753323266	 1.413699775	 0.107297
H	-1.5846632929	 2.0416415204	 2.0754572521	 0.112939
H	-0.0365895422	 4.5982436947	 1.5063535348	 0.123886
H	-0.0015438874	 3.6487847847	 2.9835219805	 0.096578
H	 2.0887048682	 3.6316772845	 1.3496095783	 0.107297
H	 1.5955867091	 2.0840251231	 2.0272483871	 0.112939
H	 1.9423322337	 2.1719189432	-0.613686392	 0.088813
H	-0.0628663807	 2.9272400786	-1.6962120006	 0.229555
118.3564	207.8032	232.488	421.1107	436.5315	493.8011	496.9799	675.8941	726.0923	805.9665	829.7456	854.3661	872.1323	877.5164	932.5461	935.5103	1054.5322	1058.8476	1074.6458	1078.1826	1105.6788	1108.996	1147.4543	1220.8508	1247.5254	1284.8043	1299.3341	1320.3683	1342.4954	1363.224	1373.2132	1383.0616	1480.968	1490.3655	1502.384	1885.7078	3037.1428	3037.2274	3064.4061	3073.7821	3076.5793	3094.4941	3095.8426	3112.1994	3484.3583
O=C1C2CCCC1N2	O=C1[C@H]2CCC[C@@H]1N2	
InChI=1S/C6H9NO/c8-6-4-2-1-3-5(6)7-4/h4-5,7H,1-3H2	InChI=1S/C6H9NO/c8-6-4-2-1-3-5(6)7-4/h4-5,7H,1-3H2/t4-,5+
