21
gdb 40219	2.14948	1.93952	1.28505	1.345	81.71	-0.2288	0.0881	0.3169	1070.985	0.183199	-387.065949	-387.057622	-387.056678	-387.100474	32.665	
C	 0.3981589144	 1.5140071992	-0.0774920494	-0.333868
C	 1.4617173432	 0.4727256049	 0.1887996239	-0.306094
C	 0.0225489926	 0.0647949826	-0.0054507036	 0.325511
C	-0.7885619694	-0.5431526638	 1.1420527514	-0.337517
C	-1.2553028923	-1.9042087809	 0.5563476971	-0.082832
O	-0.6188628944	-2.0498636395	-0.7137935563	-0.286817
C	-0.396309592	-0.7494560251	-1.2008279893	 0.379199
C	-1.3175763589	-0.2294997458	-2.280051838	-0.33332
C	 0.120418815	-0.6224768072	-2.5883937684	-0.350186
H	 0.0950908732	 2.1620132733	 0.7385827864	 0.111313
H	 0.3942770249	 2.0007753671	-1.0484511668	 0.111796
H	 2.1685584806	 0.2513883657	-0.6037924077	 0.115719
H	 1.8773228821	 0.4124486839	 1.1896034565	 0.108621
H	-0.1857862362	-0.6679883036	 2.0452530413	 0.106971
H	-1.648896761	 0.0813885366	 1.4015387798	 0.106418
H	-0.9651860481	-2.7624500996	 1.1680259922	 0.107245
H	-2.3478859671	-1.9207897966	 0.4362499728	 0.093033
H	-2.097042238	-0.8987139475	-2.6267031661	 0.116649
H	-1.5748428965	 0.8242779249	-2.2862184157	 0.110004
H	 0.8367512705	 0.1634553717	-2.8071083254	 0.112225
H	 0.2822214876	-1.5440509103	-3.1359419748	 0.125932
9.0964	132.014	212.3588	217.2999	306.1045	341.9652	376.4254	512.3311	547.091	573.9385	701.7556	770.6296	779.5403	808.0047	851.615	878.0819	893.8818	919.2606	936.8521	957.5731	975.0321	996.2048	1001.6447	1037.5914	1057.5071	1067.3505	1078.7367	1079.2692	1112.9985	1184.1318	1187.5932	1191.0546	1230.1313	1250.2402	1267.3502	1285.8074	1342.3804	1393.1804	1411.5113	1450.0302	1466.6051	1494.5599	1499.8377	1507.6916	1526.2155	2998.1164	3052.0202	3081.5292	3101.3723	3120.1014	3126.6123	3128.1634	3132.1083	3197.8869	3213.2468	3215.4014	3228.0969
C1CC11CCOC11CC1	C1CC21CCOC12CC1	
InChI=1S/C8H12O/c1-2-7(1)5-6-9-8(7)3-4-8/h1-6H2	InChI=1S/C8H12O/c1-2-7(1)5-6-9-8(7)3-4-8/h1-6H2
