14
gdb 35306	6.03489	0.96214	0.90866	3.8168	74.56	-0.2731	-0.0128	0.2603	1226.0493	0.099344	-399.480736	-399.472809	-399.471865	-399.513388	29.448	
C	 0.0720390334	-1.2556185369	-0.0944974458	-0.442399
C	 0.0385188907	-0.0563432156	-0.0274658294	 0.331995
C	-0.0041795559	 1.3880883686	 0.0558291353	-0.208648
C	-0.3025492875	 2.0672233881	 1.4541095171	-0.319021
C	 1.0373096717	 2.8077660931	 1.3224616598	 0.314405
O	 2.0637372218	 1.8130824602	 1.2110363954	-0.251155
C	 1.3451932107	 2.1460792188	 0.0337098627	-0.04557
C	 1.3846876491	 4.1043281809	 1.8132982206	 0.204538
N	 1.6205392354	 5.1609081416	 2.2195986672	-0.33175
H	 0.1073350661	-2.3155923196	-0.1521496988	 0.206517
H	-0.6757044611	 1.8016807575	-0.70298582	 0.124814
H	-1.1739851032	 2.7217910386	 1.4205495827	 0.137908
H	-0.3589055237	 1.3970054554	 2.3117194641	 0.141862
H	 1.9105006725	 2.4951967895	-0.8221884908	 0.136505
80.4123	110.5439	186.6796	210.603	310.2536	412.431	457.6791	503.8712	557.5741	584.4428	634.158	645.104	655.8246	731.4539	806.2561	890.4017	916.1291	965.9579	973.5769	1032.5986	1080.5331	1134.2448	1167.4891	1199.5807	1248.9459	1260.2496	1336.0319	1417.916	1471.7347	2241.768	2359.5958	3064.748	3094.3884	3161.3363	3199.609	3502.66
C#CC1CC2(OC12)C#N	C#C[C@H]1C[C@]2(O[C@@H]12)C#N	
InChI=1S/C7H5NO/c1-2-5-3-7(4-8)6(5)9-7/h1,5-6H,3H2	InChI=1S/C7H5NO/c1-2-5-3-7(4-8)6(5)9-7/h1,5-6H,3H2/t5-,6-,7-/m0/s1
