20
gdb 87903	2.57839	1.46015	1.19296	1.6794	79.48	-0.233	0.0239	0.2569	1138.7507	0.170647	-403.157442	-403.148584	-403.14764	-403.191285	33.368	
C	 0.0761716144	 1.6011796949	 0.14311237	-0.405918
C	-0.008117614	 0.0911710857	 0.1056096542	-0.072196
C	 1.2013474082	-0.741240799	-0.2965547644	-0.357079
C	 0.7092061125	-0.7543797572	 1.1163755816	 0.408038
O	 1.5222436354	-0.0576033484	 2.076573814	-0.249078
C	 1.4509468894	-0.8083094666	 3.2007308409	 0.103061
N	 0.757788259	-1.8676764478	 3.2148871888	-0.272921
C	 0.1546946906	-1.9818192483	 1.868166284	-0.058426
C	-1.3686933506	-2.0620759108	 1.9669590382	-0.385349
H	 1.0479513246	 1.9315793142	 0.5178661293	 0.131621
H	-0.0680640755	 2.0232217498	-0.8569651912	 0.118072
H	-0.6923773519	 2.022916335	 0.7996734744	 0.120283
H	-0.9702717744	-0.2995517964	-0.2160014025	 0.091014
H	 1.0539829465	-1.6331923272	-0.8983470019	 0.114187
H	 2.1274538707	-0.2090866831	-0.4892874809	 0.121784
H	 2.0243663973	-0.4170875167	 4.0340065582	 0.137866
H	 0.5260626786	-2.9066717088	 1.4081958666	 0.091378
H	-1.7800511748	-1.1443195363	 2.3978287872	 0.120743
H	-1.8222470099	-2.2175516549	 0.98290845	 0.112239
H	-1.6507332459	-2.8995966481	 2.6100781037	 0.130682
41.9522	143.3453	175.1747	190.7875	239.3279	269.0032	315.1059	401.629	430.2598	523.0941	552.2653	595.599	743.5762	796.079	852.479	858.105	885.5609	923.0393	947.9305	961.0651	993.4117	1044.857	1065.8655	1095.0687	1105.3776	1129.544	1136.3431	1157.8593	1186.216	1222.9439	1279.9532	1311.3857	1341.3419	1358.7108	1403.8324	1408.349	1424.1032	1481.7862	1489.5132	1492.9533	1494.7828	1505.4976	1705.4222	3014.9897	3036.0199	3039.6344	3094.9574	3110.7635	3117.8771	3120.4147	3124.4483	3142.2258	3210.0811	3213.3766
CC1CC11OC=NC1C	C[C@H]1C[C@]21OC=N[C@H]2C	
InChI=1S/C7H11NO/c1-5-3-7(5)6(2)8-4-9-7/h4-6H,3H2,1-2H3	InChI=1S/C7H11NO/c1-5-3-7(5)6(2)8-4-9-7/h4-6H,3H2,1-2H3/t5-,6-,7+/m0/s1
