16
gdb 55569	2.66957	1.11381	0.79152	2.9846	74.27	-0.2289	-0.0111	0.2179	1368.3431	0.123197	-434.081438	-434.071988	-434.071044	-434.116647	34.424	
N	 0.9412942938	-0.0559718624	 0.5472677172	-0.523509
C	 0.1025178302	-0.3624086767	-0.4805750024	 0.439293
N	 0.0695396668	 0.315481823	-1.5631957351	-0.556908
N	-0.694455023	-1.5220646635	-0.2670769724	-0.393536
C	-0.8811454397	-2.2348352598	 0.8810925581	 0.457085
O	-0.3637847677	-1.9940264945	 1.9575577413	-0.378168
C	-1.8355507887	-3.4410582902	 0.7621445346	-0.482047
C	-2.4637423326	-3.6576969517	-0.5312753223	 0.277473
C	-2.9680309259	-3.8109190432	-1.6122562096	-0.412251
H	 1.3698455752	 0.8521099645	 0.4871398775	 0.261631
H	 0.7499310538	-0.4649446172	 1.4510023034	 0.282594
H	-0.5839152228	-0.0731478897	-2.2382135665	 0.204858
H	-1.2253299633	-1.8298589488	-1.0701853261	 0.261456
H	-1.2501699965	-4.3187847961	 1.0597333029	 0.175132
H	-2.5912837884	-3.3066585709	 1.5440872601	 0.174226
H	-3.4242360713	-3.9641435828	-2.5595515407	 0.212674
37.2109	83.6908	116.4906	123.3876	246.2888	327.0952	348.3262	419.4187	449.7189	493.6556	525.4747	543.38	561.9493	635.4419	652.699	669.0886	679.8301	727.7111	770.2673	932.8508	946.5944	974.2883	1003.2348	1135.2219	1164.8928	1217.7682	1236.1655	1306.1266	1411.4391	1442.1887	1519.5187	1604.4718	1754.7908	1781.9009	2235.5354	3047.4822	3081.5637	3500.3049	3519.3508	3551.0355	3589.1961	3710.2912
NC(=N)NC(=O)CC#C	NC(=N)NC(=O)CC#C	
InChI=1S/C5H7N3O/c1-2-3-4(9)8-5(6)7/h1H,3H2,(H4,6,7,8,9)	InChI=1S/C5H7N3O/c1-2-3-4(9)8-5(6)7/h1H,3H2,(H4,6,7,8,9)
