23
gdb 96333	1.99119	1.46033	0.91814	0.5277	81.78	-0.2409	0.074	0.3149	1334.7895	0.206668	-425.431102	-425.421719	-425.420775	-425.464841	36.321	
C	 0.0290090209	 1.5830920912	 0.0181052376	-0.399324
C	-0.0164272017	 0.0480784784	 0.0011250429	 0.028866
C	 0.6796464653	-0.4943362758	-1.2651613563	-0.222249
C	 0.2268388169	-1.8934965748	-1.7142556121	-0.07627
O	-0.0789952179	-2.8046412242	-0.6729630653	-0.242414
C	 0.867627015	-2.8991534625	 0.3723881459	-0.104567
C	 0.4674459158	-1.9978778208	 1.5496255381	 0.088385
O	 1.2685071744	-2.2865133043	 2.6922266426	-0.433108
C	 0.6342157157	-0.5021032718	 1.2850795248	-0.172397
H	 1.0642019824	 1.945241705	 0.0199400177	 0.113574
H	-0.4681273292	 2.0039164409	-0.8620287741	 0.108413
H	-0.463771668	 1.9862885524	 0.9087338507	 0.111652
H	-1.0705860727	-0.26088219	-0.0206196288	 0.079039
H	 0.5002719383	 0.1815216447	-2.1105397468	 0.093955
H	 1.7645184742	-0.4781117908	-1.1002132202	 0.098711
H	-0.7040260699	-1.8153075335	-2.2863134804	 0.107037
H	 0.9878895739	-2.3235631542	-2.3861341929	 0.087027
H	 0.8644788484	-3.9441985352	 0.7113082768	 0.08656
H	 1.8893477728	-2.6707903478	 0.0362887558	 0.095955
H	-0.5953888555	-2.2060196243	 1.7540740255	 0.071319
H	 1.086485191	-3.1919947441	 2.9636810215	 0.282013
H	 1.7112202012	-0.2843795368	 1.2608381524	 0.099366
H	 0.2356094388	 0.0293437981	 2.1565908449	 0.098458
99.3911	138.7687	178.3364	229.6619	247.8627	285.0297	295.7397	351.4106	354.9519	385.321	448.1533	468.6241	513.0724	604.4707	801.2372	831.7344	882.547	890.1755	924.2377	968.4365	985.3438	1030.8483	1043.6765	1057.0572	1087.2429	1112.1473	1128.0389	1155.6429	1178.6572	1226.8225	1258.7689	1277.0589	1280.873	1312.5128	1324.3723	1338.6008	1346.044	1375.8825	1392.856	1404.0109	1413.6267	1420.3427	1442.6371	1480.5072	1490.2997	1498.2253	1501.7166	1502.0802	1511.8625	2967.1574	2969.7222	2995.5242	3009.3745	3016.7927	3021.5803	3028.8543	3039.9414	3047.5208	3066.1436	3072.075	3091.2612	3100.4377	3813.455
CC1CCOCC(O)C1	C[C@H]1CCOC[C@@H](O)C1	
InChI=1S/C7H14O2/c1-6-2-3-9-5-7(8)4-6/h6-8H,2-5H2,1H3	InChI=1S/C7H14O2/c1-6-2-3-9-5-7(8)4-6/h6-8H,2-5H2,1H3/t6-,7-/m0/s1
