17
gdb 31288	1.94194	1.6593	0.95109	4.2621	83.75	-0.2275	-0.0186	0.2089	1224.0105	0.137713	-380.936985	-380.928425	-380.927481	-380.97093	31.335	
C	 0.0555827108	 1.5682492158	 0.2183834786	-0.367001
C	-0.0099269812	 0.0687853818	-0.1211350105	-0.316933
C	-1.4017150885	-0.4884821422	-0.0610971326	 0.204869
C	-2.1916268384	-0.8471454461	-1.1486569486	 0.132262
N	-3.4092249123	-1.2921626336	-0.6679910271	-0.311613
C	-3.4076476894	-1.2255416983	 0.6909976672	-0.075274
C	-2.1844210237	-0.7329565352	 1.0963523318	-0.223409
C	-1.9060242508	-0.8103960822	-2.5287544695	 0.202993
N	-1.6735096149	-0.7823198851	-3.6652401036	-0.362242
H	 1.0874018643	 1.9300844765	 0.1746418265	 0.116202
H	-0.5416781697	 2.1539677068	-0.4868041984	 0.126624
H	-0.3295984715	 1.7630624317	 1.2241905027	 0.118219
H	 0.4022398791	-0.0961267908	-1.1222032834	 0.122414
H	 0.6314185218	-0.4861729018	 0.5742986682	 0.1114
H	-4.1646826396	-1.6210880649	-1.2443473369	 0.278587
H	-4.2683738586	-1.5345965008	 1.2623172957	 0.135165
H	-1.8791086775	-0.5692106514	 2.1186207098	 0.107737
41.5435	134.1902	149.605	170.613	220.9938	329.1199	379.2895	476.372	522.179	549.6904	593.7154	644.0105	674.3728	721.9318	765.6679	792.3199	847.4351	914.3507	968.7322	1044.6892	1075.9252	1091.9982	1123.9245	1189.7343	1260.0798	1277.7296	1324.4641	1357.05	1408.4856	1443.3953	1475.4452	1485.0043	1496.1855	1496.82	1510.0976	1597.2833	2327.7953	3031.6532	3037.9853	3073.8141	3110.1807	3114.947	3247.3918	3270.6427	3680.301
CCC1=C(NC=C1)C#N	CCc1c([nH]cc1)C#N	
InChI=1S/C7H8N2/c1-2-6-3-4-9-7(6)5-8/h3-4,9H,2H2,1H3	InChI=1S/C7H8N2/c1-2-6-3-4-9-7(6)5-8/h3-4,9H,2H2,1H3
