16
gdb 71985	2.90744	1.67035	1.22476	1.3098	76.49	-0.2232	0.032	0.2551	1004.201	0.123378	-400.627613	-400.619947	-400.619003	-400.659349	30.579	
O	-0.1340809816	 1.3374208046	 0.104152031	-0.444854
C	 0.0141702587	-0.0252718329	 0.0843240326	 0.312276
C	 1.1237136973	-0.9037843099	 0.6359376637	-0.238791
N	 0.5169414478	-2.0596342958	-0.1408962356	-0.174242
C	-0.7858086722	-2.2689747497	 0.6038617443	-0.236268
C	-1.2639766099	-0.9166003729	 0.0901015602	 0.17199
C	-2.5731023972	-0.3713484765	 0.0424605696	 0.120472
C	-3.6977926135	 0.0564652672	 0.0186811089	-0.371167
C	-0.2142299018	-1.0223676745	-1.0134807983	-0.171024
H	 0.557492779	 1.7304630138	-0.4401755114	 0.293805
H	 2.1026253245	-0.6579322197	 0.2123681934	 0.106603
H	 1.2143597571	-1.0679586439	 1.7147287729	 0.108288
H	-1.3362806367	-3.1012471553	 0.1592206442	 0.120338
H	-0.6779181754	-2.4252243567	 1.6824903199	 0.106411
H	-4.6856265624	 0.4445597019	-0.0032059616	 0.181987
H	-0.2745191637	-1.0092694597	-2.0923162637	 0.114177
129.46	145.0525	257.6186	310.5592	336.6505	431.1116	478.2284	502.46	512.2971	581.8063	591.7203	658.2989	658.5018	693.6804	795.8107	846.7989	849.8415	912.2863	930.7849	1007.5949	1053.0345	1066.766	1088.8821	1111.9172	1146.2016	1175.2081	1207.7529	1240.26	1283.9934	1292.3015	1361.8924	1427.9557	1501.2902	1522.6809	2234.0222	3037.3446	3046.2572	3095.6463	3109.9687	3223.0551	3503.8469	3795.668
OC12CN3CC1(C#C)C23	O[C@@]12CN3C[C@]1(C#C)[C@@H]23	
InChI=1S/C7H7NO/c1-2-6-3-8-4-7(6,9)5(6)8/h1,5,9H,3-4H2	InChI=1S/C7H7NO/c1-2-6-3-8-4-7(6,9)5(6)8/h1,5,9H,3-4H2/t5-,6+,7+/m0/s1
