19
gdb 40342	3.54241	1.31961	1.25173	1.0117	79.17	-0.2284	0.0713	0.2997	1084.8565	0.161599	-381.971155	-381.963833	-381.962889	-382.003363	28.955	
C	 0.0230059656	 1.5542577875	-0.0034876157	-0.24117
N	 1.2238496471	 0.7148376315	-0.1485510092	-0.316396
C	-0.0896341657	 0.0726584708	 0.0501617017	-0.22146
C	-0.2741291265	-0.6657657826	 1.3112639629	 0.461994
C	-0.2300767218	-2.100869111	 1.6880134271	-0.098618
C	 0.5853077108	-1.8093244749	 2.945102711	-0.239976
C	 0.0251280541	-0.3659711916	 2.8366570947	-0.13598
C	-1.4826899955	-0.5868835527	 3.0333197937	-0.148327
N	-1.5369369145	-1.3408841193	 1.7364100997	-0.202338
H	-0.0160508502	 2.1335463704	 0.9147648575	 0.118786
H	-0.3757140528	 2.0631098315	-0.8771194393	 0.114303
H	 1.4948017027	 0.6568606014	-1.1263364085	 0.234499
H	-0.5580736208	-0.4113794242	-0.8053458509	 0.092562
H	-0.2205042286	-2.9776320659	 1.0534056411	 0.09586
H	 0.3696996028	-2.3670123323	 3.8632915232	 0.092145
H	 1.6548282161	-1.8478885672	 2.7254615272	 0.114439
H	 0.5652321556	 0.4787783283	 3.2587060872	 0.07945
H	-1.8139769625	-1.146330685	 3.9166868494	 0.093576
H	-2.0802303758	 0.3218096954	 2.9248004973	 0.106651
67.4183	136.4121	154.3416	369.2423	388.238	431.9448	514.4667	591.3912	724.3669	750.3428	830.9927	848.1458	871.9683	887.4128	897.9895	929.7414	944.9288	970.1443	976.8099	988.2191	996.907	1041.3723	1059.0193	1089.0617	1116.9534	1125.5816	1139.4073	1154.3717	1193.1508	1208.6467	1224.5426	1242.4306	1260.2213	1280.8464	1283.2499	1317.6756	1361.8164	1484.8125	1493.0555	1512.2529	1521.2648	3028.5327	3040.9313	3100.0799	3108.4378	3110.4371	3121.6222	3139.8472	3194.0293	3200.4779	3508.0159
C1NC1C12C3CC1CN23	C1N[C@H]1[C@@]12[C@H]3C[C@@H]1CN23	
InChI=1S/C7H10N2/c1-4-3-9-6(1)7(4,9)5-2-8-5/h4-6,8H,1-3H2	InChI=1S/C7H10N2/c1-4-3-9-6(1)7(4,9)5-2-8-5/h4-6,8H,1-3H2/t4-,5-,6-,7-,9?/m1/s1
