19
gdb 100150	3.70535	0.82577	0.80777	2.0241	68.93	-0.2736	0.0028	0.2764	1462.4772	0.155919	-497.317498	-497.307129	-497.306185	-497.35339	36.938	
C	-0.1094166086	 1.6222618238	-0.0230638956	-0.44283
C	-0.05510641	 0.1107778548	-0.2485276617	 0.298458
O	 0.8204507408	-0.5142025497	 0.7034627689	-0.476391
C	-1.4232177301	-0.5486473349	 0.0045105397	-0.062265
O	-1.843148199	-0.3626950332	 1.3368748394	-0.421153
C	 0.4389422744	-0.241277713	-1.6592957814	-0.111785
O	 1.7681007873	 0.248058051	-1.8543378928	-0.186548
C	 2.7848545812	-0.6219463075	-1.6708986724	 0.162921
O	 3.9279964807	-0.278325977	-1.6703117937	-0.27516
H	 0.8834374771	 2.0667234536	-0.1430814775	 0.13211
H	-0.7765485341	 2.1003098237	-0.7470014822	 0.124174
H	-0.48837123	 1.8309830917	 0.9794621727	 0.138627
H	 1.5342590094	 0.0980290077	 0.9094242705	 0.299192
H	-2.1845561291	-0.1002005222	-0.6417316839	 0.110914
H	-1.3516837679	-1.6195156654	-0.2462019252	 0.090957
H	-1.0958878434	-0.6429297741	 1.8808612657	 0.28949
H	 0.4164406653	-1.3291306489	-1.798323006	 0.115481
H	-0.1838163479	 0.2253086288	-2.4274541626	 0.124741
H	 2.4390871838	-1.6639144493	-1.5406468419	 0.089067
53.6345	61.5136	125.8112	148.6942	204.2786	237.8375	285.9025	308.1859	322.5971	361.6182	372.4702	418.7284	447.0645	483.7967	629.9119	686.571	780.1471	894.2774	919.7235	970.7106	998.3712	1029.4272	1047.8773	1085.7008	1116.1692	1151.849	1179.3748	1208.3707	1254.1096	1322.2042	1368.1457	1385.377	1395.0132	1412.6499	1429.8964	1439.63	1488.7613	1491.5859	1499.9745	1505.0368	1864.8507	2971.7057	2973.3583	3031.5733	3044.1544	3079.9697	3101.6523	3112.3842	3138.1201	3777.2341	3822.4703
CC(O)(CO)COC=O	C[C@@](O)(CO)COC=O	
InChI=1S/C5H10O4/c1-5(8,2-6)3-9-4-7/h4,6,8H,2-3H2,1H3	InChI=1S/C5H10O4/c1-5(8,2-6)3-9-4-7/h4,6,8H,2-3H2,1H3/t5-/m1/s1
