21
gdb 91829	3.16747	1.1581	0.9853	0.9501	89.62	-0.2316	0.0522	0.2838	1288.7811	0.182538	-349.930236	-349.921428	-349.920484	-349.963368	34.948	
C	 0.035103369	 1.580377133	-0.0052324705	-0.408541
C	 0.0767703679	 0.0540205558	-0.0046743196	 0.065148
C	 0.8572900813	-0.5718525382	-1.1885621782	-0.247277
C	 1.2894612754	-1.9547491514	-0.7060745699	-0.077997
C	 2.5274924873	-2.050632577	 0.1347803766	-0.318804
C	 1.1746780878	-1.9763267497	 0.8261624386	 0.185464
C	 0.7131546214	-0.5728063104	 1.2587355707	-0.308068
C	 0.6841095504	-3.1230096447	 1.5286987179	 0.193997
C	 0.2642010708	-4.0790948239	 2.1279253762	-0.420531
H	 1.0460389811	 2.0003425606	 0.0588489531	 0.111298
H	-0.4278631355	 1.9661116469	-0.9198555035	 0.11344
H	-0.5394265103	 1.9648307138	 0.8442059009	 0.114652
H	-0.952089486	-0.325064325	-0.0642528463	 0.07865
H	 0.2396867627	-0.6319400038	-2.0892685064	 0.102123
H	 1.7292994545	 0.0449680264	-1.4430104857	 0.096182
H	 0.9898371999	-2.8306061786	-1.2692678376	 0.098666
H	 3.0444355078	-3.0028904065	 0.1718957631	 0.121784
H	 3.173452185	-1.1799600748	 0.2102313665	 0.108506
H	 1.565955795	 0.0262144514	 1.6024360584	 0.096808
H	 0.0046497341	-0.6287282703	 2.08817184	 0.111514
H	-0.1032708298	-4.9246549937	 2.6538412758	 0.182984
82.0995	140.178	162.0684	237.4393	296.4716	306.6173	391.1699	423.9805	459.6235	511.6755	550.1191	568.8447	590.6973	638.8382	738.413	804.4945	842.3742	862.1151	885.6685	925.5787	944.8377	952.5773	982.2982	1035.246	1059.9582	1082.233	1091.7096	1119.1269	1162.6604	1181.3234	1242.846	1253.9438	1283.8589	1299.1284	1303.5819	1352.2423	1373.7811	1389.8989	1413.7337	1481.7092	1489.846	1496.7306	1497.5136	1505.7306	2230.6595	3010.4428	3020.1284	3024.0056	3031.0912	3082.794	3091.0804	3096.2186	3103.6031	3119.0088	3181.1249	3214.7897	3504.8584
CC1CC2CC2(C1)C#C	C[C@H]1C[C@H]2C[C@]2(C1)C#C	
InChI=1S/C9H12/c1-3-9-5-7(2)4-8(9)6-9/h1,7-8H,4-6H2,2H3	InChI=1S/C9H12/c1-3-9-5-7(2)4-8(9)6-9/h1,7-8H,4-6H2,2H3/t7-,8-,9+/m0/s1
