17
gdb 38629	3.50666	1.99545	1.68673	1.3056	69.98	-0.2429	0.0661	0.3091	828.4527	0.139194	-421.749509	-421.743837	-421.742893	-421.779153	25.025	
C	 0.010129216	 1.5044451104	 0.0304939316	-0.241178
C	 1.5366489511	 1.6753837395	-0.0068969725	 0.020374
O	 1.9176016417	 1.0441489538	-1.3047544629	-0.358712
C	 1.5696004356	-0.1460583642	-0.6167396474	 0.405913
C	 1.8573360471	-1.6249538954	-0.6018546676	-0.170846
O	 1.3399885649	-1.8571499251	 0.7423621295	-0.299822
C	 0.8357758974	-0.5535444817	 1.1933353798	 0.076233
C	 0.0768599473	-0.0245409623	-0.0254067689	-0.109885
C	 1.9720970606	 0.3931409285	 0.7737611882	-0.103988
H	-0.4475112836	 1.9041844571	 0.940072396	 0.104982
H	-0.4676726634	 1.9485416445	-0.8457049833	 0.114886
H	 1.9998402482	 2.6504042325	 0.1304972137	 0.088835
H	 1.2968004839	-2.2239506548	-1.3269071613	 0.11125
H	 2.920203193	-1.8826256233	-0.6462743291	 0.114837
H	 0.4264917846	-0.6849355827	 2.1938824245	 0.081749
H	-0.7499170109	-0.5970811082	-0.4408997005	 0.076954
H	 2.9932365266	 0.2959117914	 1.1350536703	 0.088418
309.1879	361.851	400.7449	450.1613	519.5563	606.599	663.5259	719.4285	761.579	804.9532	843.0713	872.3155	877.2874	905.3905	931.7904	947.0496	965.7761	984.6892	1006.9216	1016.653	1036.2169	1082.9686	1117.0788	1151.5644	1169.1122	1175.3765	1215.4934	1221.3985	1232.099	1260.3043	1278.4953	1286.3733	1321.0445	1351.1058	1368.6201	1484.5166	1525.9018	3038.3577	3062.4711	3085.9592	3116.9321	3129.0431	3142.0004	3143.2111	3154.7439
C1C2OC34COC(C13)C24	C1[C@@H]2O[C@]34CO[C@H]([C@@H]13)[C@H]24	
InChI=1S/C7H8O2/c1-3-6-5-4(1)9-7(3,5)2-8-6/h3-6H,1-2H2	InChI=1S/C7H8O2/c1-3-6-5-4(1)9-7(3,5)2-8-6/h3-6H,1-2H2/t3-,4+,5+,6-,7-/m1/s1
