16
gdb 60751	4.66455	0.85853	0.73169	4.7073	74.08	-0.2693	-0.0341	0.2352	1459.4993	0.123379	-434.108157	-434.098634	-434.097689	-434.143715	32.591	
C	-0.0169673589	 1.4892082155	-0.0107383486	-0.355026
N	-0.0053523688	 0.0268276385	 0.0142517887	-0.129848
C	-0.001095228	-0.6288455135	 1.2527877043	 0.103153
N	-0.0070756455	 0.0193106536	 2.3435587063	-0.469978
C	 0.0016998148	-0.7577143147	-1.1322382556	 0.455155
O	 0.0111206419	-1.9670086169	-1.1103427322	-0.326385
C	-0.0036304818	 0.0295271267	-2.4527386857	-0.507249
C	 0.0044071088	-0.8503892389	-3.6156641221	 0.300279
N	 0.01046362	-1.5044000119	-4.5663340625	-0.290373
H	 0.8723161523	 1.8869510326	-0.5082648322	 0.138124
H	-0.9115313296	 1.8727445034	-0.5099469434	 0.138117
H	-0.0206011389	 1.8234375216	 1.0255521096	 0.189746
H	 0.0075919662	-1.7107768742	 1.1287965076	 0.154282
H	-0.0025810578	-0.6221842218	 3.1338186786	 0.239989
H	-0.8848433365	 0.6795473701	-2.5001998139	 0.180015
H	 0.866966192	 0.6937840599	-2.4988494789	 0.179999
31.9653	87.5605	123.8031	127.4003	174.7955	259.1549	291.3784	342.733	381.4178	404.1799	439.2553	549.0263	567.6361	731.0895	824.2268	834.9794	940.9019	950.8752	1002.3681	1086.4766	1100.6632	1152.2975	1176.1801	1225.7306	1296.2908	1350.9312	1371.1041	1407.7687	1439.9389	1459.662	1502.8678	1511.5781	1717.6257	1797.0342	2381.3901	3042.2003	3048.7934	3084.5686	3105.9547	3152.5212	3165.9645	3514.6796
CN(C=N)C(=O)CC#N	CN(C=N)C(=O)CC#N	
InChI=1S/C5H7N3O/c1-8(4-7)5(9)2-3-6/h4,7H,2H2,1H3	InChI=1S/C5H7N3O/c1-8(4-7)5(9)2-3-6/h4,7H,2H2,1H3
