21
gdb 81381	2.39477	1.57837	1.24725	0.7432	77.38	-0.2307	0.0734	0.304	1104.2725	0.183903	-424.208181	-424.199924	-424.19898	-424.240394	33.152	
C	-0.5901360537	 1.3787402466	 0.0512786832	-0.414843
C	 0.0960885679	 0.0115443688	-0.0205269371	-0.004189
C	 1.1038429962	-0.0267519331	-1.1983663033	-0.076331
O	 2.1904007057	-0.9363286147	-1.0179293978	-0.282309
C	 2.5589590329	-1.1297455953	 0.3386630064	 0.0901
C	 1.4051179205	-1.801012386	 1.1275418843	-0.254073
C	 0.8391346783	-0.3591588651	 1.2787138661	-0.02725
C	 2.3045920317	 0.147604125	 1.201134528	 0.104001
O	 2.8955865097	 0.0813983238	 2.4841873132	-0.447525
H	 0.128662689	 2.1702431108	 0.2927383571	 0.119493
H	-1.0625376119	 1.6386742971	-0.9024738534	 0.114787
H	-1.3674837475	 1.3862335503	 0.8216738452	 0.117589
H	-0.6733594241	-0.753811247	-0.183939999	 0.079191
H	 0.6088869096	-0.3187609387	-2.1296674549	 0.106996
H	 1.505004194	 0.9863717164	-1.352522996	 0.092987
H	 3.5561211319	-1.5784190473	 0.3379184796	 0.067259
H	 0.805294511	-2.5324793319	 0.5803966382	 0.091113
H	 1.7427094887	-2.2128084991	 2.0788660441	 0.110628
H	 0.2701981443	-0.1011253419	 2.1753453184	 0.067006
H	 2.4958864554	 1.1193850509	 0.7272880884	 0.062314
H	 3.8482207004	 0.1731724104	 2.3772110293	 0.283057
142.4356	198.396	240.3072	267.7142	291.8559	299.959	340.8187	406.7583	440.0734	460.9962	512.0518	603.5905	775.822	850.0933	882.2933	903.3204	922.6421	935.581	954.0003	957.3712	1004.8848	1031.9956	1060.7586	1084.8523	1126.6052	1133.2258	1141.1083	1168.6453	1190.6282	1202.8841	1250.8747	1264.4419	1279.599	1301.3104	1319.2061	1339.5838	1352.4745	1362.6704	1410.0032	1419.0191	1424.5574	1474.9336	1496.6663	1498.7183	1519.2511	2980.2669	3013.5083	3017.0618	3028.3518	3066.3948	3072.4066	3075.0214	3081.8114	3093.4758	3103.3809	3140.2671	3807.3046
CC1COC2CC1C2O	C[C@H]1CO[C@@H]2C[C@H]1[C@H]2O	
InChI=1S/C7H12O2/c1-4-3-9-6-2-5(4)7(6)8/h4-8H,2-3H2,1H3	InChI=1S/C7H12O2/c1-4-3-9-6-2-5(4)7(6)8/h4-8H,2-3H2,1H3/t4-,5+,6+,7+/m0/s1
