21
gdb 120451	3.54585	0.82168	0.72973	1.981	79.84	-0.2359	-0.0179	0.218	1608.4501	0.180497	-424.236478	-424.226235	-424.225291	-424.272477	36.473	
C	 0.2347576689	 1.6982151085	-0.0081108191	-0.40597
C	 0.1193273833	 0.1805258624	-0.0035363747	-0.077874
C	 0.6451604128	-0.6667208441	-1.207325234	-0.281141
C	 1.3255037111	-1.6740160382	-0.2240416123	-0.099737
C	 2.7482251705	-2.1569480774	-0.4837500621	-0.198564
C	 3.288989692	-3.0304580044	 0.6440583075	-0.078689
O	 4.5915193962	-3.4554208018	 0.2692894172	-0.422821
C	 1.0996562145	-0.6170612858	 0.8726609717	 0.38219
O	 1.6202153734	-0.4017183183	 1.9319484657	-0.30958
H	 1.2498594037	 2.0134496168	-0.2705857584	 0.121539
H	-0.4563899322	 2.1466990414	-0.7286757889	 0.119361
H	 0.0066492296	 2.1035825165	 0.9821564843	 0.134969
H	-0.9041752092	-0.124807107	 0.2507279299	 0.10195
H	-0.1060688387	-1.0768360306	-1.8834379989	 0.106533
H	 1.3873634856	-0.1152813411	-1.7920050269	 0.111733
H	 0.6595958691	-2.5276575296	-0.0372331482	 0.098232
H	 2.7832592056	-2.7270733229	-1.4199853176	 0.10894
H	 3.4173603074	-1.2977896574	-0.6114164138	 0.106979
H	 3.3018839827	-2.4534238345	 1.5788142076	 0.117695
H	 2.6183034969	-3.8934137263	 0.7965644063	 0.078229
H	 4.9842284268	-3.9108445562	 1.0193471347	 0.286028
47.0981	88.408	97.5775	157.0554	182.8482	194.3225	236.5684	250.651	327.9215	349.0379	393.9202	530.2708	600.3404	681.6919	743.877	810.6071	842.5645	919.2679	930.5406	958.0939	987.545	1010.2176	1053.767	1089.375	1097.0444	1124.9978	1144.1804	1169.9456	1209.3424	1227.6885	1246.5677	1260.6172	1264.3512	1312.7157	1326.0162	1332.6152	1368.3028	1406.9454	1461.839	1488.1713	1492.8155	1494.436	1495.803	1533.0103	1872.0673	2955.6301	3018.8469	3025.8678	3027.8542	3033.5991	3036.264	3063.9588	3075.7695	3104.9558	3112.2131	3127.1628	3833.7122
CC1CC(CCO)C1=O	C[C@H]1C[C@@H](CCO)C1=O	
InChI=1S/C7H12O2/c1-5-4-6(2-3-8)7(5)9/h5-6,8H,2-4H2,1H3	InChI=1S/C7H12O2/c1-5-4-6(2-3-8)7(5)9/h5-6,8H,2-4H2,1H3/t5-,6+/m0/s1
