21
gdb 69485	2.94707	1.42157	1.32266	1.3712	81.72	-0.2263	0.0874	0.3137	1104.5516	0.181974	-387.069002	-387.060583	-387.059639	-387.10124	34.096	
C	-0.0607727809	 1.4945773624	-0.050768386	-0.45985
C	 0.0217034965	-0.0041009873	 0.0318420579	 0.441197
C	-0.8210541414	-0.8117705737	 0.9868125916	-0.363991
C	 0.6943969367	-0.8117109574	 1.1159808907	-0.181267
C	 1.5408738763	-1.8607634457	 0.4144305708	 0.329004
C	 2.9200792017	-2.1223735533	 0.9729943642	-0.488558
C	 0.8297602031	-2.9289032213	-0.3999644006	-0.377129
C	 1.2621819032	-1.6380893815	-1.0521961321	 0.055813
O	 0.3235046348	-0.6043614533	-1.2171012524	-0.298675
H	 0.884427033	 1.9190771629	-0.4045766125	 0.120755
H	-0.8504192038	 1.799782792	-0.7456475572	 0.128515
H	-0.2902728356	 1.9219107228	 0.9294876358	 0.114989
H	-1.3688866219	-0.260200813	 1.7446825525	 0.107842
H	-1.3352273968	-1.6933156752	 0.6251043219	 0.116549
H	 1.1360855152	-0.3333969527	 1.983297259	 0.084651
H	 2.8677671202	-2.6417929829	 1.9369273415	 0.120983
H	 3.5080253903	-2.747758039	 0.294174261	 0.115664
H	 3.4711038229	-1.187218343	 1.1261387963	 0.118021
H	 1.4096919679	-3.8135595019	-0.6460357829	 0.106712
H	-0.226051164	-3.1203401718	-0.2539941289	 0.115602
H	 2.0239944326	-1.6427155171	-1.8258380504	 0.093174
140.4513	200.9949	205.0041	223.0653	281.4032	327.5343	356.6232	375.8855	483.414	492.5313	583.0243	627.6137	705.7253	770.1172	807.1559	831.6871	848.7664	895.3083	941.5601	950.0762	969.4881	995.2568	1014.0458	1030.0229	1047.0883	1053.2299	1083.0963	1108.7726	1122.3547	1133.8265	1153.5973	1220.1246	1235.5236	1306.3034	1309.4765	1374.5003	1401.204	1418.1993	1423.2259	1476.7311	1478.4957	1490.9165	1497.2221	1501.6592	1501.969	3022.7959	3034.1623	3082.4688	3098.4583	3099.7477	3114.9299	3129.0643	3135.4556	3152.7191	3167.7047	3218.4508	3227.1798
CC12CC1C1(C)CC1O2	C[C@]12C[C@H]1[C@@]1(C)C[C@H]1O2	
InChI=1S/C8H12O/c1-7-4-6(7)9-8(2)3-5(7)8/h5-6H,3-4H2,1-2H3	InChI=1S/C8H12O/c1-7-4-6(7)9-8(2)3-5(7)8/h5-6H,3-4H2,1-2H3/t5-,6+,7+,8-/m0/s1
