21
gdb 109382	2.25989	1.35087	0.89133	1.5469	81.13	-0.2284	0.0278	0.2561	1324.7924	0.182873	-424.234893	-424.225441	-424.224497	-424.269073	35.493	
O	 0.0781346537	 1.4466503148	 0.1015267078	-0.413507
C	 0.0134008326	 0.0450579757	-0.0855832064	-0.172458
C	-1.4128511446	-0.4378083393	-0.03455259	 0.276825
C	-2.4499874521	 0.4001514581	-0.0026135696	-0.136043
C	-3.8893284776	-0.0367376711	 0.0529630702	-0.246007
C	-4.0340934756	-1.527971522	 0.3879261625	-0.216449
C	-3.0054894216	-2.359694715	-0.3818924415	-0.196032
C	-1.5823316667	-1.9477250223	-0.0126306373	 0.009757
O	-0.7000069312	-2.5954680278	-0.9411909829	-0.432097
H	 0.9536895427	 1.7413658267	-0.1620892259	 0.288405
H	 0.4507742563	-0.2504730073	-1.0519553538	 0.10719
H	 0.5987807945	-0.4816777462	 0.6937050067	 0.075131
H	-2.2523056622	 1.4675737824	-0.0201573292	 0.102623
H	-4.4338934998	 0.5737215853	 0.7845618837	 0.10054
H	-4.3667681871	 0.1788297493	-0.9153375176	 0.107232
H	-3.8835884373	-1.6734807499	 1.4658455666	 0.096773
H	-5.0489471778	-1.8738136346	 0.1652702175	 0.093097
H	-3.1318224116	-3.4303693777	-0.1929053504	 0.093678
H	-3.1266877552	-2.2076651984	-1.4616098145	 0.107492
H	-1.3567450382	-2.3131337952	 1.0043940423	 0.070166
H	 0.1569265087	-2.7030153754	-0.5195708785	 0.283682
77.4275	111.3586	186.0703	209.5874	220.3015	239.3928	284.5799	302.2267	353.5289	444.2243	462.546	479.501	646.3733	652.6261	758.8929	824.6815	870.5721	887.8178	933.9815	974.0028	1035.602	1042.4429	1078.0717	1082.835	1087.6676	1102.2362	1146.3793	1159.9979	1224.8401	1230.3492	1261.0836	1266.6341	1289.5144	1328.7662	1355.4589	1364.9083	1378.751	1387.832	1417.4199	1454.6032	1476.9337	1490.2555	1498.8283	1515.147	1741.1423	2905.6095	2941.9319	2986.3732	2991.771	3018.5002	3034.4883	3038.787	3071.5366	3083.206	3179.2652	3838.8052	3844.1595
OCC1=CCCCC1O	OCC1=CCCC[C@H]1O	
InChI=1S/C7H12O2/c8-5-6-3-1-2-4-7(6)9/h3,7-9H,1-2,4-5H2	InChI=1S/C7H12O2/c8-5-6-3-1-2-4-7(6)9/h3,7-9H,1-2,4-5H2/t7-/m1/s1
