22
gdb 117353	3.32332	0.78427	0.75153	2.9735	80.43	-0.2214	-0.0176	0.2038	1662.5182	0.190616	-441.467032	-441.455944	-441.455	-441.504297	38.585	
C	 0.3165862336	 0.9068891772	-0.07132224	-0.241144
O	 0.6775427694	-0.3597801408	 0.4466531896	-0.214491
C	 1.0200871617	-1.3040710539	-0.5233936335	-0.167098
C	-0.1714478564	-1.873433285	-1.2997786785	 0.341055
O	-1.3030629576	-1.4913899313	-1.1217231894	-0.293065
C	 0.1603408738	-2.9166074049	-2.3721953952	-0.243644
N	 1.1721672148	-3.8735426427	-1.9482024666	-0.06213
C	 0.637503817	-4.8243256897	-0.9810954541	-0.324473
C	 1.8002807516	-4.5543290695	-3.0712729995	-0.313227
H	 0.1524782469	 1.5627441032	 0.7868912684	 0.127426
H	 1.1267485129	 1.3295010978	-0.6873298042	 0.095774
H	-0.6011296644	 0.8586411547	-0.666954153	 0.132492
H	 1.7433303887	-0.9055897779	-1.2590887241	 0.101285
H	 1.5318753827	-2.1295074911	-0.0187979408	 0.142739
H	-0.7896476287	-3.3804764923	-2.6918403775	 0.104642
H	 0.5524484701	-2.3592108009	-3.2339642885	 0.119365
H	-0.1543447983	-5.4682827717	-1.4072816373	 0.10189
H	 1.4414006875	-5.4689541482	-0.6134398697	 0.123039
H	 0.2092622632	-4.2945074903	-0.1243917825	 0.130039
H	 2.252540932	-3.8211673314	-3.7460875378	 0.119452
H	 2.5937148688	-5.2118844691	-2.7026461077	 0.122068
H	 1.0937217807	-5.1714360724	-3.6572939383	 0.098004
36.5287	62.6975	97.1403	128.2909	141.3704	188.4745	241.1604	256.5103	282.1977	332.9324	376.1882	386.0282	415.3405	451.2617	530.6396	641.3649	797.7972	842.8408	907.1212	964.0384	1043.7604	1065.0037	1067.8208	1122.9171	1129.5175	1158.5902	1178.6209	1195.0637	1206.4842	1231.9296	1297.2528	1303.4918	1307.014	1367.0823	1388.4476	1436.465	1447.2048	1461.1452	1479.7719	1480.7049	1483.4328	1484.5084	1499.018	1500.4233	1513.9828	1514.5516	1819.2305	2933.337	2939.6294	2945.3308	2954.1199	2978.0543	3036.6186	3061.7138	3064.262	3071.9835	3085.8467	3105.5038	3108.9334	3122.0282
COCC(=O)CN(C)C	COCC(=O)CN(C)C	
InChI=1S/C6H13NO2/c1-7(2)4-6(8)5-9-3/h4-5H2,1-3H3	InChI=1S/C6H13NO2/c1-7(2)4-6(8)5-9-3/h4-5H2,1-3H3
