22
gdb 62037	3.87658	0.68918	0.61054	1.3271	89.69	-0.2337	0.0571	0.2909	1848.8686	0.192086	-367.148559	-367.138253	-367.137309	-367.184585	37.785	
C	 0.0869986959	 1.6281858997	 0.2193873259	-0.386609
C	 0.0229572029	 0.1026415552	-0.0044873213	-0.161081
C	 0.6647565543	-0.339683976	-1.3414809542	-0.173778
C	-0.0595107132	 0.18598809	-2.5822174769	-0.156299
N	 0.5749459565	-0.3241052632	-3.7924409908	-0.059859
C	 0.0803058813	-1.6018989777	-4.2943616126	-0.219329
C	-0.2408884792	-0.3304071197	-5.0000277243	-0.221339
C	 0.6504874438	-0.6033684167	 1.1123599254	 0.317212
C	 1.1866387769	-1.1751923224	 2.0241154607	-0.460705
H	 1.1250622617	 1.9743463252	 0.2044828051	 0.127337
H	-0.4668081597	 2.1627306553	-0.5570442359	 0.117676
H	-0.3441096225	 1.8932565073	 1.1880551753	 0.126198
H	-1.037218702	-0.1898014591	-0.0290598382	 0.102388
H	 1.7112460995	-0.0170222975	-1.3689491172	 0.116546
H	 0.6753941173	-1.4345070898	-1.3773322134	 0.109312
H	-1.1315653263	-0.0880064201	-2.5318988801	 0.074203
H	-0.0116746045	 1.279842637	-2.6246848229	 0.106737
H	 0.8302154091	-2.2812497085	-4.6890871063	 0.117706
H	-0.7314444084	-2.08469348	-3.751160828	 0.107839
H	-1.2657620504	 0.0312276798	-4.9269573971	 0.107263
H	 0.2710729052	-0.0619335201	-5.9197873947	 0.116756
H	 1.6504170718	-1.6844042886	 2.8321037613	 0.191827
49.8919	72.9288	102.0448	139.1931	184.338	212.8138	261.4718	286.1238	365.317	403.0343	417.4314	533.5081	562.5469	624.5937	632.5997	762.852	784.2587	831.2557	847.4886	902.5364	935.0217	972.8612	1013.6216	1033.1964	1060.9388	1086.9493	1113.0645	1116.734	1122.1972	1155.7179	1177.0215	1190.6627	1249.1675	1286.3235	1318.1174	1327.44	1339.4428	1355.9766	1406.6475	1409.9316	1482.9434	1492.0291	1494.8204	1500.2674	1504.5011	1523.7694	2234.1127	2911.5209	2995.4059	3042.2411	3045.2025	3057.515	3089.2059	3090.7901	3094.661	3117.9624	3122.7416	3174.5791	3188.8642	3505.562
CC(CCN1CC1)C#C	C[C@@H](CCN1CC1)C#C	
InChI=1S/C8H13N/c1-3-8(2)4-5-9-6-7-9/h1,8H,4-7H2,2H3	InChI=1S/C8H13N/c1-3-8(2)4-5-9-6-7-9/h1,8H,4-7H2,2H3/t8-/m1/s1
