18
gdb 12025	4.34428	1.39285	1.25528	0.8038	68.24	-0.249	0.079	0.328	1011.805	0.151962	-384.901565	-384.893235	-384.892291	-384.934026	31.408	
C	 0.2224553237	 1.5324501534	-0.0603687591	-0.463706
C	 0.0539962509	 0.0345573258	 0.05383498	 0.400163
O	-1.1446101662	-0.4542047126	-0.4987871542	-0.46835
C	 1.255074715	-0.8827541577	-0.010902688	-0.361121
C	 0.4737225352	-0.7279792819	 1.2800048492	-0.069331
C	 1.0830462597	-0.0667527695	 2.4756405162	 0.04674
C	 2.3802968156	-0.4911194681	 3.0224815987	-0.171937
O	 2.2610397714	 0.7202899933	 2.2729728331	-0.230214
H	 1.1375845125	 1.8695862835	 0.4296901052	 0.151577
H	 0.2731037219	 1.8301805347	-1.1154219984	 0.103252
H	-0.6313192794	 2.0481962392	 0.3913596077	 0.121277
H	-1.1150081126	-0.2918744004	-1.4485262522	 0.278731
H	 1.145501201	-1.8142104311	-0.5544278737	 0.108314
H	 2.2379388605	-0.4249626533	-0.0461224855	 0.125506
H	-0.195033284	-1.5471060061	 1.5309701169	 0.100898
H	 0.3735520815	 0.3856214154	 3.1708913951	 0.096536
H	 2.5934137541	-0.3625597722	 4.0824545867	 0.114874
H	 2.9267137589	-1.2908748824	 2.5254190622	 0.116791
91.2883	160.0126	165.4784	238.7192	286.4205	312.5554	329.856	379.4526	425.9202	523.2874	587.4256	712.296	760.0183	848.456	885.4772	919.5725	932.5685	956.4844	994.2704	1019.6748	1060.1843	1087.5449	1100.1376	1123.2159	1129.0369	1163.3774	1174.8836	1234.8034	1278.9022	1301.0415	1353.5508	1401.4575	1418.9135	1432.2921	1477.1649	1494.1791	1510.8756	1524.3889	3024.5727	3085.6764	3086.5996	3093.5039	3133.1495	3139.8202	3149.4434	3177.0078	3229.0243	3789.4625
CC1(O)CC1C1CO1	C[C@@]1(O)C[C@H]1[C@H]1CO1	
InChI=1S/C6H10O2/c1-6(7)2-4(6)5-3-8-5/h4-5,7H,2-3H2,1H3	InChI=1S/C6H10O2/c1-6(7)2-4(6)5-3-8-5/h4-5,7H,2-3H2,1H3/t4-,5+,6+/m0/s1
