15
gdb 50981	2.38786	0.99835	0.7335	3.3174	65.22	-0.2689	-0.0603	0.2086	1440.3651	0.107823	-494.926204	-494.916562	-494.915618	-494.962774	31.503	
O	 0.0881891773	-0.1500923865	-0.0084376305	-0.224897
C	 0.0048879829	 1.0490043806	-0.0479720474	 0.151678
C	 1.2079969975	 1.9756427157	 0.0276997135	-0.306388
C	 1.2510374339	 2.9724531512	-1.1390081776	-0.015336
O	 0.1291325428	 3.8322903028	-1.0120681702	-0.188029
C	-0.1582023939	 4.6575127918	-2.0540153985	 0.187979
O	-1.0435342572	 5.4509318707	-2.0000319619	-0.261488
C	 2.5626302744	 3.7584845591	-1.1399194051	 0.154637
O	 2.6189097181	 4.9541274731	-1.2228972878	-0.219452
H	-0.9733001293	 1.5642555632	-0.1427163368	 0.112122
H	 1.1474827434	 2.550138698	 0.9611465612	 0.153595
H	 2.1136431399	 1.363724127	 0.0464293028	 0.135413
H	 1.2130313294	 2.4188653334	-2.0927615151	 0.12545
H	 0.4856872067	 4.4846147635	-2.9342847429	 0.091138
H	 3.4727113939	 3.1231768863	-1.0732246136	 0.103577
38.021	64.4674	87.6112	103.8107	164.5568	202.2232	223.5724	308.488	352.2704	418.1033	521.2679	596.128	717.0047	812.7151	871.0467	952.8137	985.7884	1032.3764	1056.2424	1109.4388	1136.9454	1164.6905	1236.3776	1268.5266	1337.6817	1352.667	1407.4056	1422.4587	1438.441	1450.5832	1835.0997	1842.4283	1881.4163	2900.908	2926.6846	2969.8759	2987.5908	3037.5332	3113.5274
O=CCC(OC=O)C=O	O=CC[C@@H](OC=O)C=O	
InChI=1S/C5H6O4/c6-2-1-5(3-7)9-4-8/h2-5H,1H2	InChI=1S/C5H6O4/c6-2-1-5(3-7)9-4-8/h2-5H,1H2/t5-/m1/s1
