15
gdb 24466	4.01623	1.6171	1.1529	6.6371	85.08	-0.1796	-0.0401	0.1395	984.8495	0.117825	-379.732276	-379.726149	-379.725205	-379.762539	25.305	
N	-0.0210223555	 1.3393653933	 0.0098010856	-0.312382
C	 1.1242116883	 2.1176006797	 0.0028145223	-0.018199
C	 2.3555458648	 1.5338388074	-0.0122111976	-0.250368
C	 2.4546860534	 0.1225992012	-0.0206314176	 0.231875
C	 3.4632160433	-0.8208715726	-0.0353090155	-0.181927
N	 2.9563217085	-2.0996779735	-0.0372956911	-0.244103
C	 1.6305238359	-2.0196139338	-0.0240307062	-0.168046
C	 1.2077391293	-0.6626139229	-0.0127033819	 0.201651
C	 0.0037623616	-0.0154760527	 0.0023941357	-0.095528
H	-0.9136585292	 1.8058507653	 0.0209268151	 0.270544
H	 0.9578873811	 3.1854288803	 0.0100871084	 0.129388
H	 3.2362267069	 2.1664194654	-0.0173693044	 0.11014
H	 4.5319406554	-0.6561454785	-0.0447311672	 0.090851
H	 1.0054216598	-2.9035071825	-0.0226993487	 0.09327
H	-0.9608597836	-0.509993526	 0.0091049729	 0.142835
202.9382	240.648	395.7569	415.6378	554.5147	557.6121	602.8389	607.1591	652.0259	732.51	767.3764	774.2464	800.1373	826.8959	887.7857	904.6722	909.4213	935.6778	1011.2578	1116.5888	1152.7778	1216.8055	1243.139	1272.0516	1278.8897	1340.7907	1369.6177	1401.7933	1468.6594	1519.8445	1570.3619	1622.181	1659.5245	3193.6903	3199.9725	3208.0556	3222.7039	3235.6397	3647.0917
N1C=CC2=CN=CC2=C1	[nH]1ccc2cncc2c1	
InChI=1S/C7H6N2/c1-2-8-4-7-5-9-3-6(1)7/h1-5,8H	InChI=1S/C7H6N2/c1-2-8-4-7-5-9-3-6(1)7/h1-5,8H
