19
gdb 22347	3.37118	1.08155	0.83546	2.9857	88.26	-0.1768	-0.0074	0.1694	1373.2763	0.158234	-419.184758	-419.175279	-419.174335	-419.218781	34.854	
C	-0.0652033292	 1.3375260726	-0.1247500131	-0.336339
N	 0.0388067138	-0.0529316986	 0.2565964974	-0.111691
C	-1.1495609313	-0.9015464866	 0.1055572059	-0.254323
C	-0.5699399858	-2.3038920317	 0.0102433963	 0.391821
C	 0.8622679169	-2.149489792	-0.1098176808	-0.35896
C	 1.1620513175	-0.8293725465	 0.0121139364	 0.386538
C	 2.5188691365	-0.2065624296	-0.0430280067	-0.499723
N	-1.3300030087	-3.335019758	 0.0592278354	-0.27316
O	-0.5616199423	-4.5183924367	-0.0556198654	-0.404509
H	 0.856367884	 1.8684422433	 0.1224619683	 0.133481
H	-0.2682160421	 1.4757795408	-1.2006494385	 0.112459
H	-0.8802485797	 1.8090734598	 0.4333389935	 0.132589
H	-1.8403562757	-0.7792868446	 0.9456501583	 0.131559
H	-1.6903967816	-0.6365454295	-0.8158232006	 0.119945
H	 1.5693360264	-2.9566693286	-0.2013178274	 0.1119
H	 3.2835907005	-0.9807222501	-0.1229406975	 0.14185
H	 2.6231481538	 0.4630393318	-0.904974364	 0.137597
H	 2.7197406073	 0.3878322053	 0.8557223526	 0.139875
H	-1.2389218205	-5.198831631	 0.0066625897	 0.299093
92.9881	150.3905	169.2436	190.5992	195.5401	235.7964	254.7216	296.7587	356.725	374.059	500.1296	537.9849	605.0038	651.1196	682.2133	770.6241	782.4215	905.3866	964.6311	989.3935	1009.5956	1027.5766	1058.5015	1139.5871	1158.204	1201.7962	1206.2022	1259.4681	1267.6848	1318.7211	1393.2412	1410.8506	1437.2948	1463.2049	1475.0009	1481.1766	1493.7244	1497.4248	1527.1679	1636.4587	1722.6318	2957.432	2988.3129	3029.6541	3069.537	3071.0004	3080.2097	3125.3481	3137.8955	3276.55	3829.6453
CN1CC(C=C1C)=NO	CN1CC(=NO)C=C1C	
InChI=1S/C6H10N2O/c1-5-3-6(7-9)4-8(5)2/h3,9H,4H2,1-2H3	InChI=1S/C6H10N2O/c1-5-3-6(7-9)4-8(5)2/h3,9H,4H2,1-2H3
