17
gdb 124158	6.5305	0.72669	0.6593	2.3849	90.24	-0.2142	0.0057	0.2199	1706.7389	0.135941	-380.883521	-380.874049	-380.873105	-380.920674	32.543	
C	 0.0534149403	 1.4648677328	-0.0115487001	-0.509299
C	 0.0311489456	 0.0108240627	-0.007348607	 0.21833
C	 0.0243366713	-1.1948947693	-0.0033489861	-0.070538
C	-0.0261313166	-2.6119900649	-0.0006042355	 0.195795
N	 1.0867139101	-3.3567812706	 0.0529919443	-0.297393
N	 0.6331249402	-4.6227271667	 0.0367200474	-0.253958
C	-0.7222876116	-4.7284680149	-0.024958575	 0.383076
C	-1.4299571739	-6.0434177295	-0.052680672	-0.512347
C	-1.1862199629	-3.4316779128	-0.0508027373	-0.397481
H	 1.0815429655	 1.842598539	-0.0325756858	 0.15214
H	-0.4667023519	 1.870216779	-0.8869993226	 0.147526
H	-0.4322621854	 1.8752618821	 0.881234347	 0.147639
H	 1.303299403	-5.3728568633	 0.070080681	 0.270303
H	-1.2208254428	-6.6378211742	 0.8441919865	 0.137622
H	-2.5089581069	-5.8852629909	-0.1027059724	 0.145767
H	-1.1398516588	-6.6441552055	-0.922385424	 0.13762
H	-2.2129818653	-3.108340573	-0.0989425285	 0.105198
8.1536	59.5997	86.0562	93.7512	218.8976	274.173	320.7471	351.2914	447.3129	485.7372	524.9649	546.061	667.5996	689.1897	733.2677	820.2913	951.3945	992.2585	1037.1943	1051.9842	1052.7961	1056.7753	1063.2673	1174.4274	1210.0251	1293.0815	1406.5924	1412.8349	1422.8807	1441.8334	1475.8772	1477.3543	1483.1281	1487.1613	1507.9336	1611.9838	2365.9528	3023.2915	3029.7836	3079.8212	3080.6728	3087.6941	3131.2881	3270.5932	3664.3846
CC#CC1=NNC(C)=C1	CC#Cc1n[nH]c(C)c1	
InChI=1S/C7H8N2/c1-3-4-7-5-6(2)8-9-7/h5H,1-2H3,(H,8,9)	InChI=1S/C7H8N2/c1-3-4-7-5-6(2)8-9-7/h5H,1-2H3,(H,8,9)
