17
gdb 32538	2.6456	1.17053	0.81978	3.5934	70.57	-0.2115	0.0321	0.2436	1336.7221	0.135024	-458.969907	-458.960606	-458.959662	-459.005196	32.56	
O	-0.0447436794	 1.4315478485	 0.0072956142	-0.416456
C	 0.0133085464	 0.0148620114	 0.0016877697	-0.195188
C	-1.3821875065	-0.5198880156	 0.0120891342	 0.14355
C	-2.5319257046	 0.2036545157	 0.0234836173	-0.086529
O	-3.6162113706	-0.6163621929	 0.0307383181	-0.154482
C	-3.145960089	-1.8918861991	 0.0234332621	-0.086528
C	-1.7875484439	-1.9032806588	 0.0120051404	 0.143551
C	-0.9013486297	-3.1066135439	 0.0013116683	-0.195188
O	-1.71477729	-4.2679328135	 0.0098819506	-0.416457
H	 0.855237738	 1.7687960968	 0.001085074	 0.290618
H	 0.550510959	-0.3578063822	-0.8881039994	 0.096406
H	 0.5661167328	-0.3642594742	 0.8791055081	 0.096398
H	-2.7275882723	 1.2613910193	 0.0278629433	 0.148441
H	-3.8815389598	-2.6767514368	 0.027935528	 0.148441
H	-0.2497509914	-3.0838914096	-0.8898164847	 0.096449
H	-0.2295998552	-3.0847152029	 0.8773583775	 0.096355
H	-1.1391472538	-5.0375669921	 0.0024709284	 0.290618
41.0612	64.6641	131.2492	211.646	212.6656	225.7163	241.0001	298.2895	345.8128	543.9002	619.1931	630.108	648.9201	751.1685	755.8988	784.3124	909.7993	1039.4937	1055.4967	1065.7474	1076.4355	1089.4208	1160.3925	1179.5561	1215.4134	1225.559	1245.8119	1248.148	1261.8085	1305.7935	1385.1248	1465.8066	1481.6143	1515.4949	1518.0391	1589.4408	1660.0367	2939.1164	2943.9323	2951.8491	2954.6431	3297.3758	3302.1765	3839.5836	3839.7742
OCC1=COC=C1CO	OCc1cocc1CO	
InChI=1S/C6H8O3/c7-1-5-3-9-4-6(5)2-8/h3-4,7-8H,1-2H2	InChI=1S/C6H8O3/c7-1-5-3-9-4-6(5)2-8/h3-4,7-8H,1-2H2
