16
gdb 34500	4.40975	1.0739	0.93552	4.9085	79.79	-0.2318	-0.0473	0.1845	1226.9499	0.125838	-396.937109	-396.929325	-396.928381	-396.969589	29.444	
N	 0.0601387325	-1.0911313598	 0.0177719545	-0.319002
C	-0.0259218432	 0.0614716239	 0.0069748994	 0.255493
C	-0.0768760885	 1.4963216253	 0.0064695053	 0.261889
N	-1.1607405425	 2.1608309587	 0.1679648257	-0.315576
C	-0.7757589933	 3.5527023639	 0.097751893	 0.353788
C	-1.6505779001	 4.4755898363	-0.7194375655	-0.303447
C	-1.6360963287	 4.5761938451	 0.7846575461	-0.317443
C	 0.7629035492	 3.6181018319	 0.071615364	-0.258361
N	 1.0887904464	 2.2158692718	-0.2296554323	-0.359121
H	-1.1554339697	 5.2509877822	-1.2951174102	 0.117664
H	-2.5194990974	 4.0334407309	-1.1919466834	 0.135244
H	-2.4961686572	 4.2043014039	 1.3288628223	 0.134826
H	-1.135722596	 5.4247517864	 1.2406032874	 0.117239
H	 1.1521449719	 4.2888491436	-0.6999583803	 0.124241
H	 1.1770193319	 3.9266768418	 1.0418651311	 0.114844
H	 1.9643997449	 1.832366494	 0.0948508028	 0.25772
89.8834	138.3846	154.6686	288.4799	314.8084	366.6471	474.8375	499.123	531.4239	569.2494	619.3151	708.8298	775.2483	823.3969	873.0885	914.0169	936.5318	975.7351	1016.5642	1041.024	1056.534	1068.5783	1090.9515	1192.9115	1202.0044	1218.6799	1263.6112	1298.4437	1377.5187	1453.3815	1455.7724	1494.1278	1524.1403	1659.901	2362.7683	2999.4231	3071.7591	3131.6602	3135.1366	3221.1826	3235.4035	3611.2954
N#CC1=NC2(CC2)CN1	N#C[C]1[N]C2(CC2)CN1	
InChI=1S/C6H7N3/c7-3-5-8-4-6(9-5)1-2-6/h1-2,4H2,(H,8,9)	InChI=1S/C6H7N3/c7-3-5-8-4-6(9-5)1-2-6/h1-2,4H2,(H,8,9)
