19
gdb 57685	3.30314	0.95364	0.91004	4.1929	81.31	-0.248	0.0209	0.2689	1349.979	0.156522	-382.036666	-382.026322	-382.025378	-382.07254	37.901	
C	-0.8118714583	 1.221634924	-0.5804512868	-0.410096
C	-0.1555090262	-0.0633533079	-0.0195952124	 0.096271
C	 0.5340963496	 0.2306655376	 1.3263096997	-0.413594
N	-1.0710667569	-1.2143222789	 0.0998679675	-0.289834
C	-1.9658006909	-1.3173566627	 1.2510101289	-0.335246
C	-3.015779806	-0.2975580674	 1.4030480006	 0.316868
C	-3.8899107507	 0.5196728658	 1.5260480671	-0.462595
C	 0.8875271189	-0.4917425553	-0.9836472365	 0.292432
N	 1.6933072285	-0.8012474474	-1.7518725553	-0.341531
H	-0.0627691839	 2.0049699005	-0.7290896626	 0.130124
H	-1.2855621876	 1.0198962485	-1.5456468227	 0.125245
H	-1.5729407186	 1.5813357077	 0.1135416143	 0.143026
H	-0.1849714746	 0.6434806815	 2.038572462	 0.13526
H	 0.9766013087	-0.6772319503	 1.7431950022	 0.143161
H	 1.327083466	 0.9670305432	 1.1806376911	 0.139801
H	-1.5957703296	-1.3193908496	-0.7611602514	 0.23222
H	-2.4475889569	-2.2997867778	 1.1806705855	 0.146226
H	-1.364395643	-1.3524019851	 2.1647362176	 0.147584
H	-4.6624030084	 1.2410901636	 1.6324440812	 0.204678
19.1758	102.601	158.6877	190.0806	202.019	242.3942	289.1516	297.1838	351.1139	360.3982	377.3742	412.0305	550.9877	578.1937	604.2988	628.3188	662.4781	680.9815	733.5122	865.0703	914.4777	927.5589	940.7327	1021.803	1041.0883	1108.0196	1172.2505	1220.6558	1241.959	1307.4075	1367.3303	1395.5175	1417.1941	1462.5312	1478.5687	1482.2497	1501.3771	1506.5	1518.8973	2224.152	2355.587	3040.6973	3045.2939	3053.5829	3080.0961	3114.9335	3131.8989	3137.6693	3148.2642	3500.3969	3540.4518
CC(C)(NCC#C)C#N	CC(C)(NCC#C)C#N	
InChI=1S/C7H10N2/c1-4-5-9-7(2,3)6-8/h1,9H,5H2,2-3H3	InChI=1S/C7H10N2/c1-4-5-9-7(2,3)6-8/h1,9H,5H2,2-3H3
