21
gdb 57293	3.31484	0.68038	0.64777	0.6335	93.28	-0.2465	0.0423	0.2888	1850.2338	0.178085	-349.903392	-349.892149	-349.891205	-349.94204	40.561	
C	 0.3820444974	 1.4676081076	 0.1279463536	-0.390929
C	-0.0613902296	-0.0075196201	 0.0021287423	 0.076863
C	 0.503323704	-0.8223258266	 1.187932789	-0.389759
C	-1.6047650025	-0.0879052821	 0.0053400346	-0.390925
C	 0.4528059331	-0.5651721144	-1.2555170395	 0.15465
C	 0.875841141	-1.0244236315	-2.2846473912	-0.004078
C	 1.38901704	-1.5810902717	-3.5387972112	-0.49267
C	 2.2785922851	-2.7297557607	-3.3523456143	 0.319934
C	 3.0092899926	-3.6721717928	-3.2132230435	-0.447191
H	 1.4726444086	 1.549127897	 0.1263550308	 0.120493
H	-0.0045581148	 2.0645543163	-0.7030209409	 0.118445
H	 0.0057610711	 1.8955419302	 1.063464566	 0.109402
H	 0.128335548	-0.4178939454	 2.1343897455	 0.108596
H	 0.20385593	-1.8717938132	 1.1185365771	 0.121819
H	 1.5960185842	-0.7820166663	 1.2044230292	 0.121824
H	-2.0278367161	 0.4804451795	-0.827904593	 0.118445
H	-1.9420891537	-1.1243583908	-0.0843083772	 0.120489
H	-2.0014448085	 0.3241065382	 0.9395825149	 0.109403
H	 0.5486839147	-1.8784505045	-4.1816587909	 0.158297
H	 1.9234245844	-0.8001708718	-4.0977484361	 0.158297
H	 3.6547744712	-4.505168597	-3.0841690449	 0.198596
4.5497	63.9342	109.3142	147.0775	214.9308	267.9267	271.5369	277.0857	307.3046	322.8101	328.0786	360.7786	362.1774	513.6082	549.1674	560.304	619.9592	643.9796	674.5511	835.3008	931.1801	931.2744	934.5596	938.7997	964.7321	1049.5968	1049.797	1080.1479	1222.3736	1223.4517	1232.2503	1290.9842	1335.0246	1394.589	1394.8682	1427.5955	1453.9919	1474.2264	1485.123	1485.2836	1498.2455	1498.3684	1517.9649	2246.2947	2367.985	3004.7493	3027.9659	3031.1095	3031.5271	3038.0135	3102.9671	3103.7756	3109.8271	3113.6548	3117.2676	3118.7098	3507.5483	4.5508	63.9343	109.3142	147.0775	214.9308	267.9267	271.5369	277.0857	307.3045	322.8096	328.0786	360.7786	362.1774	513.6082	549.1674	560.304	619.9589	643.9793	674.5512	835.3008	931.1801	931.2744	934.5596	938.7996	964.7321	1049.5967	1049.797	1080.1479	1222.3736	1223.4517	1232.2504	1290.9842	1335.0246	1394.589	1394.8682	1427.5955	1453.992	1474.2264	1485.123	1485.2836	1498.2454	1498.3684	1517.9649	2246.2946	2367.985	3004.7493	3027.9659	3031.1095	3031.5271	3038.0135	3102.9671	3103.7756	3109.8271	3113.6548	3117.2676	3118.7098	3507.5483
CC(C)(C)C#CCC#C	CC(C)(C)C#CCC#C	
InChI=1S/C9H12/c1-5-6-7-8-9(2,3)4/h1H,6H2,2-4H3	InChI=1S/C9H12/c1-5-6-7-8-9(2,3)4/h1H,6H2,2-4H3
