16
gdb 14693	5.17242	0.70129	0.62471	0.9317	74.62	-0.2494	0.0384	0.2878	1705.5975	0.127428	-346.533394	-346.523718	-346.522774	-346.570835	32.753	
O	-0.0585532041	 1.2521106737	-0.4794939428	-0.41574
C	-0.5829231754	-0.0609278575	-0.5792284388	-0.062937
C	-0.5651297153	-0.6553468554	 0.8336925127	-0.324032
C	-1.0840346513	-2.0163331259	 0.8710659968	 0.038216
C	-1.5171695011	-3.1386354625	 0.8719752274	 0.101529
C	-2.0416409794	-4.5059073227	 0.8914558918	-0.491718
C	-2.4516857421	-4.9954272143	-0.4266749362	 0.318344
C	-2.7913767696	-5.4083557405	-1.5015827371	-0.446355
H	-0.0602264011	 1.6451852299	-1.3568248093	 0.289332
H	-1.6140710998	-0.0614049786	-0.9623566829	 0.100371
H	 0.0201246646	-0.6923107257	-1.2483607648	 0.100405
H	 0.4654616975	-0.6264099967	 1.2078749198	 0.136957
H	-1.1518232098	-0.0020334133	 1.490916141	 0.136954
H	-1.2849338604	-5.185437588	 1.3077949719	 0.159728
H	-2.8975929112	-4.563032246	 1.5783236183	 0.15971
H	-3.0906763916	-5.7699471664	-2.4539034979	 0.199237
6.0635	54.736	88.5915	150.0354	212.8184	239.4431	306.5549	321.0197	367.5873	389.8519	439.7212	591.5805	620.5233	647.0345	795.0979	807.5517	935.5537	946.1738	1001.8009	1080.6753	1088.7475	1158.8633	1220.913	1231.0799	1238.7298	1304.0291	1332.7821	1336.4393	1454.3853	1455.1176	1479.2982	1528.0295	2246.6469	2378.9805	2985.3155	3005.8035	3016.3002	3029.3685	3030.4647	3067.9542	3507.3855	3835.3451	6.0329	54.7355	88.5908	150.0352	212.8184	239.4447	306.5541	321.016	367.5874	389.8565	439.7214	591.5806	620.5211	647.0322	795.0981	807.5517	935.5537	946.1737	1001.8011	1080.6754	1088.7484	1158.8638	1220.9141	1231.0796	1238.7301	1304.0306	1332.7827	1336.4392	1454.3851	1455.118	1479.3	1528.0307	2246.6471	2378.981	2985.3155	3005.8035	3016.3002	3029.3686	3030.4646	3067.9541	3507.3848	3835.3453
OCCC#CCC#C	OCCC#CCC#C	
InChI=1S/C7H8O/c1-2-3-4-5-6-7-8/h1,8H,3,6-7H2	InChI=1S/C7H8O/c1-2-3-4-5-6-7-8/h1,8H,3,6-7H2
