17
gdb 20992	3.45797	2.02828	1.30994	5.7921	70.68	-0.2353	0.0267	0.262	939.8263	0.142073	-360.080645	-360.072037	-360.071093	-360.115082	29.767	
C	 0.0952706667	 1.4611138604	 0.0098862108	-0.346755
N	 0.0137239205	 0.0143136147	 0.0020072673	-0.0886
C	-0.0124676332	-0.8198772187	-1.0908039244	 0.343514
C	-0.0074639262	-0.356709981	-2.5061165367	-0.507565
N	-0.0466329622	-2.0693192896	-0.6996738433	-0.27062
N	-0.0381221539	-2.07723026	 0.680463557	-0.270615
C	 0.0009530061	-0.8323457941	 1.0854231546	 0.343511
C	 0.0234512413	-0.3853389617	 2.5057479794	-0.507561
H	 1.134813865	 1.8078812995	 0.0072959555	 0.145311
H	-0.4081864356	 1.8653745982	-0.8705346405	 0.149526
H	-0.4004779475	 1.8554237345	 0.8991714004	 0.149507
H	 0.8914375219	 0.2218249722	-2.7480403003	 0.132663
H	-0.0365490737	-1.2360572798	-3.1508663459	 0.164341
H	-0.8770547363	 0.2695009133	-2.7381353283	 0.133174
H	 0.9253110049	 0.1904764603	 2.7431159525	 0.132661
H	-0.8431509359	 0.2381615156	 2.7555715686	 0.13317
H	 0.0022550681	-1.2719552738	 3.1407764234	 0.164339
13.9598	141.2185	157.3011	168.8558	230.324	270.869	271.5284	330.3561	476.076	598.006	675.4573	701.7417	716.382	762.3479	991.8822	994.3791	1035.5853	1063.6786	1068.6673	1086.5605	1151.9419	1177.9161	1271.6893	1380.6826	1405.7007	1407.7417	1442.6424	1466.3229	1479.5717	1483.2435	1484.301	1493.3497	1510.664	1512.5616	1565.756	1578.9725	3028.0589	3028.8679	3037.3745	3077.9053	3078.5339	3109.0746	3139.7842	3147.415	3147.4375
CN1C(C)=NN=C1C	Cn1c(C)nnc1C	
InChI=1S/C5H9N3/c1-4-6-7-5(2)8(4)3/h1-3H3	InChI=1S/C5H9N3/c1-4-6-7-5(2)8(4)3/h1-3H3
