14
gdb 129421	4.96768	1.02915	1.00961	1.2189	63.89	-0.242	0.0098	0.2518	1175.1302	0.103255	-466.210481	-466.202697	-466.201753	-466.243816	28.333	
N	-0.2597926052	 1.2863751715	-0.1721527918	-0.556247
C	 0.0013480008	-0.0348366372	 0.124016263	 0.447851
N	 0.8582997471	-0.550265837	 0.8987036263	-0.538364
O	-0.8966254355	-0.8119755895	-0.5662697923	-0.272414
C	-0.9384056872	-2.1349084291	-0.2687614279	 0.477361
N	-0.3835956216	-3.0259202158	-1.0670557371	-0.275926
N	-0.7369568049	-4.1814176224	-0.4518979127	-0.17761
C	-1.4686012031	-3.9237629985	 0.6497808732	 0.028434
N	-1.6239999715	-2.6223813419	 0.794003313	-0.304397
H	 0.5109611329	 1.9220860172	-0.0466492108	 0.257124
H	-0.796018693	 1.4418695675	-1.0124312939	 0.263521
H	 1.4379977013	 0.1580353046	 1.3412879274	 0.214736
H	-0.4447533929	-5.0626816971	-0.8403280476	 0.285315
H	-1.8617267272	-4.6936086523	 1.2963876112	 0.150615
52.6749	71.1635	127.6162	349.4511	366.6405	397.4469	467.7246	511.1059	523.9704	586.5081	680.8523	718.0291	727.9171	782.1195	842.6272	853.6694	966.7597	995.5954	1045.107	1082.2934	1108.2682	1123.8203	1182.2797	1304.9493	1354.3985	1405.3719	1475.5794	1504.6605	1568.3247	1633.5925	1765.4692	3260.3386	3528.0866	3587.4184	3669.7123	3702.2956
NC(=N)OC1=NNC=N1	NC(=N)Oc1n[nH]cn1	
InChI=1S/C3H5N5O/c4-2(5)9-3-6-1-7-8-3/h1H,(H3,4,5)(H,6,7,8)	InChI=1S/C3H5N5O/c4-2(5)9-3-6-1-7-8-3/h1H,(H3,4,5)(H,6,7,8)
