12
gdb 14597	5.45036	0.8085	0.72127	4.1476	70.29	-0.2883	-0.0644	0.2238	1433.304	0.082846	-377.492001	-377.483881	-377.482936	-377.526087	26.756	
N	-0.2456497788	 1.1086006513	-0.1232269257	-0.421789
C	-0.3756250138	-0.1196652781	 0.1112422631	 0.136352
O	-0.4498751313	-0.990220106	-0.9295249236	-0.166371
C	-0.6616728	-2.3546669043	-0.5910876219	-0.256721
C	-2.0452302297	-2.6429717671	-0.2213833903	 0.155769
C	-3.1897095473	-2.8716251196	 0.0874559476	-0.013131
C	-4.4825526234	-3.135993955	 0.4398607976	 0.224998
N	-5.5802382388	-3.3633243973	 0.7430034441	-0.325524
H	-0.1847956408	 1.6316854054	 0.7476575477	 0.239815
H	-0.4304966074	-0.6056854203	 1.0945227639	 0.098519
H	-0.3894974687	-2.9269683199	-1.4827730542	 0.174231
H	 0.00948941	-2.6698939491	 0.2203975916	 0.153852
45.2036	80.6633	122.3918	144.8354	252.7006	336.085	350.3053	465.1694	574.2646	581.3784	646.3409	737.5828	820.7225	944.0998	1023.7654	1038.5497	1118.8481	1162.2761	1232.4965	1313.8368	1387.4839	1422.8876	1471.9808	1756.0208	2268.7607	2405.1627	3012.108	3031.5346	3091.758	3525.7976
N=COCC#CC#N	[NH][CH]OCC#CC#N	
InChI=1S/C5H4N2O/c6-3-1-2-4-8-5-7/h5,7H,4H2	InChI=1S/C5H4N2O/c6-3-1-2-4-8-5-7/h5,7H,4H2
