20
gdb 124591	3.75163	1.04757	0.90838	1.7204	83.2	-0.1935	0.0367	0.2302	1352.4505	0.172062	-399.359783	-399.35049	-399.349546	-399.394337	34.971	
C	 0.1542122859	 1.4571803385	 0.019644589	-0.379294
C	-0.0172594878	-0.0649523174	-0.068700698	 0.076939
C	-1.4801168108	-0.4927527024	 0.0467573543	-0.410025
N	 0.5963010637	-0.5825899569	-1.2898340042	 0.038976
C	 0.0351374786	-0.8781601707	-2.4840480026	-0.007318
C	 1.0562721562	-1.2060069994	-3.3526340957	-0.322097
C	 2.2300879165	-1.069807108	-2.5747440193	 0.37884
N	 3.5529974431	-1.2276894764	-2.9931009328	-0.589259
N	 1.9520588413	-0.6940451177	-1.3285880674	-0.346346
H	 1.2087646236	 1.7214040978	-0.0849658886	 0.142784
H	-0.4098747772	 1.9572440498	-0.7748422811	 0.117374
H	-0.2068323573	 1.8273851242	 0.9844537741	 0.112622
H	 0.5512965627	-0.5245066441	 0.7465702726	 0.104614
H	-2.1023560354	-0.0166930981	-0.7182408888	 0.122969
H	-1.5881509595	-1.5772768826	-0.0417784411	 0.128441
H	-1.8709420029	-0.1868223552	 1.020933046	 0.123973
H	-1.0312867098	-0.8422710312	-2.635937934	 0.124267
H	 0.9682959144	-1.4986837668	-4.386293546	 0.092905
H	 3.6803789399	-2.0091969881	-3.6217875808	 0.242657
H	 4.1818914247	-1.3054478454	-2.2038725058	 0.246979
28.753	104.4424	196.9397	239.1163	252.9383	270.8846	299.9003	319.1008	384.0881	429.5838	502.2367	629.8082	634.6952	678.4465	719.5271	737.3949	783.559	817.765	885.2443	934.013	953.7833	999.9874	1018.7659	1072.957	1111.7058	1118.3784	1148.7253	1192.8087	1257.2152	1274.7579	1356.3788	1376.7587	1397.5897	1417.9539	1425.0119	1476.1717	1485.7986	1488.7031	1501.2228	1512.6214	1533.037	1590.242	1647.276	3036.623	3041.9382	3055.524	3105.0114	3113.7137	3122.8184	3132.9271	3256.5443	3275.5741	3542.1394	3637.5111
CC(C)N1C=CC(N)=N1	CC(C)n1ccc(N)n1	
InChI=1S/C6H11N3/c1-5(2)9-4-3-6(7)8-9/h3-5H,1-2H3,(H2,7,8)	InChI=1S/C6H11N3/c1-5(2)9-4-3-6(7)8-9/h3-5H,1-2H3,(H2,7,8)
