17
gdb 126677	6.60922	0.71589	0.6538	3.7315	71.4	-0.2667	-0.0365	0.2302	1677.7766	0.135266	-455.1027	-455.09406	-455.093116	-455.137208	30.408	
C	 0.0324896803	 1.5113901347	 0.008773069	-0.385902
C	-0.0329619849	-0.0186440416	 0.0022368418	-0.19325
C	-1.4660130743	-0.5203750462	 0.0127334417	-0.056492
O	-1.4278139544	-1.9630059247	 0.0058313853	-0.265985
C	-2.6038550953	-2.5782907494	 0.0130466713	 0.411732
N	-3.7734469498	-1.9922345248	 0.0259395594	-0.181873
O	-4.6860586897	-3.0261621334	 0.0288752265	-0.16857
N	-4.0657980512	-4.2415131441	 0.0177317161	-0.051118
C	-2.7891800075	-3.9939290777	 0.0078950617	-0.117382
H	 1.0701888071	 1.8552091069	 0.00105412	 0.124447
H	-0.4659120794	 1.9364237603	-0.8689797158	 0.123786
H	-0.450033528	 1.9281855891	 0.8992560897	 0.123785
H	 0.4742422674	-0.4173135446	-0.8835804447	 0.113912
H	 0.4899766827	-0.4254972046	 0.875089835	 0.113916
H	-2.0098764332	-0.1855718735	 0.9040391532	 0.127546
H	-2.0256818749	-0.1775230362	-0.8656296642	 0.12756
H	-2.0528904047	-4.7813286603	-0.002215806	 0.153887
55.4492	78.0392	109.0389	153.7365	234.6037	285.856	334.8434	357.1749	505.3644	624.0462	726.2601	764.9669	765.6848	880.0805	896.0842	906.5187	912.5862	920.3987	1012.0319	1032.1449	1054.5057	1076.5785	1150.3962	1188.054	1219.7515	1269.3573	1316.2329	1335.3143	1406.7856	1419.5415	1452.7505	1492.1204	1501.8625	1503.0254	1513.3894	1526.8843	1633.8597	3029.4322	3036.8301	3043.4636	3063.8923	3084.7024	3107.2902	3115.7888	3278.3085
CCCOC1=NON=C1	CCCOc1nonc1	
InChI=1S/C5H8N2O2/c1-2-3-8-5-4-6-9-7-5/h4H,2-3H2,1H3	InChI=1S/C5H8N2O2/c1-2-3-8-5-4-6-9-7-5/h4H,2-3H2,1H3
