17
gdb 54736	4.27864	1.15899	1.05689	3.1771	73.05	-0.2198	0.0364	0.2562	1150.154	0.1363	-417.955086	-417.947376	-417.946432	-417.98755	30.419	
N	-0.0854334807	 1.3243949226	 0.0972353204	-0.536843
C	-0.0035141893	-0.0492947587	 0.0303144039	 0.393194
O	 0.9048711944	-0.6928489331	 0.5116510398	-0.366938
N	-1.0795569366	-0.616252521	-0.6837827493	-0.147731
C	-2.4228217353	-0.6664722888	-0.0641736834	-0.059913
C	-3.4525400672	-1.1935346532	-1.1069689845	-0.085452
C	-2.8090719182	-1.535579367	-2.4249431802	-0.284399
C	-2.6144401702	-2.4611497054	-1.2556161204	-0.084404
C	-1.6057571236	-1.8944883644	-0.2107598843	-0.024879
H	 0.7710638776	 1.7853747619	 0.3606935695	 0.262436
H	-0.6533330603	 1.7963622304	-0.5881576646	 0.25942
H	-2.6373432626	-0.0778272531	 0.8182197748	 0.113558
H	-4.5225432704	-1.1009459778	-0.9765502245	 0.095429
H	-3.5005044106	-1.903019306	-3.1767722307	 0.111654
H	-1.9828703865	-0.9474529229	-2.804774633	 0.132623
H	-2.9454338427	-3.4909058404	-1.2543020128	 0.09736
H	-1.0488677478	-2.4525872133	 0.5287318194	 0.124885
61.868	149.3296	165.1398	323.5354	377.3969	450.2732	467.4533	518.2225	541.6022	631.3401	721.3427	732.24	763.7529	790.5699	808.9518	862.5995	874.0945	892.1565	942.947	943.9503	1016.7589	1024.2684	1047.4602	1073.5007	1088.7435	1101.701	1115.4404	1160.993	1222.6767	1239.3772	1283.8522	1312.1115	1356.6242	1385.0792	1464.0382	1614.3718	1801.6248	3138.1831	3195.0921	3204.0243	3207.5703	3226.6378	3229.3389	3588.3531	3712.0099
NC(=O)N1C2C3CC3C12	NC(=O)N1[C@H]2[C@H]3C[C@H]3[C@@H]12	
InChI=1S/C6H8N2O/c7-6(9)8-4-2-1-3(2)5(4)8/h2-5H,1H2,(H2,7,9)	InChI=1S/C6H8N2O/c7-6(9)8-4-2-1-3(2)5(4)8/h2-5H,1H2,(H2,7,9)/t2-,3+,4-,5+,8?
