19
gdb 103664	2.69679	1.21768	0.99659	2.3115	77.51	-0.2525	0.0175	0.27	1244.2981	0.156786	-422.975232	-422.965749	-422.964805	-423.009642	35.593	
C	-0.521181558	 1.6657107422	-0.1179039635	-0.445698
C	 0.0232231882	 0.2510115583	-0.1834102685	 0.409068
C	-1.0428078848	-0.8056087492	 0.1202969674	-0.09287
O	-1.4698913004	-0.7039167826	 1.4630871266	-0.421844
C	 0.9665177648	-0.0987089071	-1.3564262208	-0.364699
C	 2.0255370366	-0.3807776759	-0.2575333036	-0.041859
O	 1.11424229	 0.0634952503	 0.7825857628	-0.336612
C	 2.4567760413	-1.7609380063	-0.099658232	 0.34202
C	 2.8150218502	-2.9021785221	 0.02152993	-0.464488
H	 0.2860552492	 2.3979052913	-0.204875101	 0.11643
H	-1.2357768406	 1.8351173478	-0.931045875	 0.11709
H	-1.0401304004	 1.8199401171	 0.8317356745	 0.141358
H	-1.9241855334	-0.6568336984	-0.5138480768	 0.10512
H	-0.6325253917	-1.8042758087	-0.0952783466	 0.091642
H	-0.6621758829	-0.7453694105	 1.9917930749	 0.292737
H	 0.6792635076	-0.958947408	-1.9619585836	 0.122018
H	 1.21765873	 0.7420449449	-2.0042009678	 0.114856
H	 2.9024019307	 0.2762388677	-0.2971815604	 0.110445
H	 3.1336476936	-3.9092381511	 0.1339450236	 0.205286
47.161	119.858	144.8341	217.6484	227.5946	245.8381	318.0156	338.4958	403.4619	465.5551	490.9175	531.7423	564.6186	624.7996	672.4609	706.1492	791.8866	870.3387	891.2244	910.9403	974.2692	975.2791	981.0247	1046.4986	1078.9016	1105.5508	1140.9166	1204.4432	1233.9658	1262.8083	1277.9184	1301.5822	1363.8539	1387.1097	1410.6737	1431.1911	1478.4544	1489.0264	1495.4068	1502.1808	2233.181	2985.7227	3031.7505	3037.8169	3067.8908	3084.8908	3109.4083	3128.792	3144.3286	3502.014	3770.7034
CC1(CO)CC(O1)C#C	C[C@@]1(CO)C[C@@H](O1)C#C	
InChI=1S/C7H10O2/c1-3-6-4-7(2,5-8)9-6/h1,6,8H,4-5H2,2H3	InChI=1S/C7H10O2/c1-3-6-4-7(2,5-8)9-6/h1,6,8H,4-5H2,2H3/t6-,7-/m0/s1
