12
gdb 25419	5.3315	1.06398	0.88697	2.4104	68.44	-0.2703	-0.1016	0.1687	1174.945	0.077375	-472.668431	-472.661325	-472.660381	-472.700534	25.541	
O	-0.1042730424	-0.0280144166	-0.2224305385	-0.250082
C	-0.0267256747	 1.1713672954	-0.1493785731	 0.102955
C	 1.2274003115	 1.9279530552	 0.0529037287	 0.128766
C	 1.1905717237	 3.2813822977	 0.119056172	 0.053628
O	 2.2833372726	 4.0263033156	 0.2994666	-0.19786
C	 3.5423353623	 3.409951594	 0.4304915292	 0.402561
O	 4.50512288	 4.0973354625	 0.5912401685	-0.299542
C	 3.4940141956	 1.9404650442	 0.3473088329	-0.107639
N	 2.427335322	 1.2444613479	 0.172577711	-0.233209
H	-0.9262780776	 1.8227021037	-0.2317280434	 0.076153
H	 0.2865660318	 3.8756481059	 0.0332772958	 0.165956
H	 4.4539206351	 1.4387287644	 0.4451445767	 0.158313
76.1855	153.6662	194.4422	308.6798	397.7805	401.4296	451.2686	524.972	606.7696	664.4277	762.807	776.601	818.7637	910.1975	947.2472	955.3487	1028.7396	1124.2152	1239.1912	1268.0641	1330.7193	1400.4341	1445.517	1594.664	1656.179	1818.1286	1868.0604	2874.513	3168.4998	3196.0274
O=CC1=COC(=O)C=N1	O=Cc1coc(=O)cn1	
InChI=1S/C5H3NO3/c7-2-4-3-9-5(8)1-6-4/h1-3H	InChI=1S/C5H3NO3/c7-2-4-3-9-5(8)1-6-4/h1-3H
