20
gdb 92208	3.02502	1.71879	1.43407	1.2742	77.19	-0.2138	0.0694	0.2832	984.5114	0.173219	-403.109959	-403.102716	-403.101772	-403.141481	29.486	
C	-0.1572341836	 1.5775508687	-0.0387582768	-0.402727
C	 0.0492901509	 0.072558955	 0.0193671341	 0.130866
O	 0.8217092924	-0.3349689389	-1.1205294791	-0.288819
C	 1.588278333	-1.4935407203	-0.8154349652	 0.092511
C	 3.0771138889	-1.1782949933	-0.5245461724	-0.189667
N	 2.8592544868	-1.2421177721	 0.9591154576	-0.144633
C	 2.2473203677	 0.0273537391	 1.4857213869	-0.187227
C	 0.7973837867	-0.482266597	 1.2339133855	-0.062296
C	 1.4557049603	-1.7704247696	 0.7027359324	-0.027672
H	 0.7945824302	 2.1117078056	 0.0291515459	 0.12181
H	-0.6347060108	 1.8549731495	-0.9823823421	 0.129556
H	-0.8031931263	 1.9059186674	 0.7816852766	 0.114365
H	-0.9369556365	-0.4217309641	-0.0226841221	 0.067718
H	 1.366553336	-2.2897048517	-1.532623586	 0.076238
H	 3.7561955894	-1.9796143129	-0.8325356102	 0.105041
H	 3.4433000235	-0.2212854256	-0.9079680432	 0.106833
H	 2.4852008133	 0.1600915536	 2.5447672566	 0.107528
H	 2.5525660595	 0.9294544236	 0.9458852231	 0.104814
H	 0.1644688164	-0.5590593538	 2.1193663502	 0.074963
H	 1.1853773523	-2.7607329532	 1.0707983281	 0.070795
95.269	212.3059	224.7631	308.0696	347.0303	425.7803	501.5677	583.085	643.9132	730.6348	762.3689	784.6967	830.5615	872.6326	894.4784	940.1135	948.3385	954.9018	968.8817	975.2294	1030.4378	1036.1356	1076.5509	1118.5691	1125.7722	1159.0942	1187.2703	1201.8288	1210.9046	1215.6793	1255.0985	1257.9872	1297.0428	1312.3996	1319.1976	1335.6631	1375.1873	1388.8785	1409.3234	1477.6186	1483.8365	1493.5176	1501.0033	2945.8239	3038.7846	3042.0028	3044.7351	3057.3024	3086.9843	3097.0314	3101.8041	3108.5201	3115.8905	3121.7571
CC1OC2CN3CC1C23	C[C@H]1O[C@H]2CN3C[C@@H]1[C@@H]23	
InChI=1S/C7H11NO/c1-4-5-2-8-3-6(9-4)7(5)8/h4-7H,2-3H2,1H3	InChI=1S/C7H11NO/c1-4-5-2-8-3-6(9-4)7(5)8/h4-7H,2-3H2,1H3/t4-,5+,6+,7+/m1/s1
