22
gdb 105193	1.86721	1.47657	1.03358	3.3283	83.28	-0.2412	0.033	0.2742	1290.093	0.193069	-404.384381	-404.374004	-404.37306	-404.419369	38.863	
C	-0.1880825265	 1.4691131784	-0.7057822489	-0.380649
C	-0.0773882142	 0.1559131976	 0.0840391072	-0.299808
C	-1.405587949	-0.5604894977	 0.2844773254	 0.226226
C	-1.9994932389	-1.3217861932	-0.8932071811	-0.311892
C	-1.4817455639	-2.0953279043	 0.2761958028	-0.01929
C	-0.2632719456	-2.986104182	 0.1834321313	-0.422506
C	-2.4466547122	 0.04586538	 1.1966013887	 0.357379
N	-2.0502850088	 1.1021218105	 1.9728302762	-0.542713
O	-3.5892786425	-0.3788316917	 1.2505527707	-0.378103
H	 0.7958530257	 1.9312622673	-0.83375378	 0.110622
H	-0.6059308838	 1.2847844911	-1.7004077597	 0.124566
H	-0.8396599142	 2.1911049543	-0.2055558443	 0.124373
H	 0.6059548777	-0.5116736222	-0.4485669325	 0.102161
H	 0.4100679197	 0.3375941431	 1.0529121981	 0.087447
H	-3.0719945851	-1.2496733577	-1.0254486553	 0.136785
H	-1.4102103572	-1.3275161714	-1.8054350817	 0.102793
H	-2.2593030624	-2.4684724816	 0.9359291675	 0.11051
H	 0.4577973698	-2.637653039	-0.5611576116	 0.117045
H	 0.2562693266	-3.0655370457	 1.1449690678	 0.117496
H	-0.5653407626	-3.9970914733	-0.1115501188	 0.123962
H	-1.0843007192	 1.3514557898	 2.0867293627	 0.25592
H	-2.7055569434	 1.4134827177	 2.6716213057	 0.257678
59.1391	133.9928	155.301	175.1942	208.5845	223.2598	236.6627	269.3738	324.7418	352.4593	416.72	441.1097	499.138	560.1021	573.9783	677.2235	736.8009	784.3196	830.2435	882.415	905.4616	924.1526	984.4677	1010.1099	1044.3177	1074.2417	1089.5652	1099.4209	1134.7603	1139.7322	1202.4057	1223.3809	1294.6405	1311.0126	1361.8978	1371.4392	1403.3215	1414.1795	1427.9743	1470.2669	1491.8942	1497.3164	1498.1077	1505.2447	1515.2044	1612.9994	1768.367	2999.7179	3031.389	3040.6254	3075.8378	3088.5351	3107.5562	3108.0051	3117.7395	3128.9479	3160.2503	3230.183	3603.5549	3738.4002
CCC1(CC1C)C(N)=O	CC[C@]1(C[C@H]1C)C(=O)N	
InChI=1S/C7H13NO/c1-3-7(6(8)9)4-5(7)2/h5H,3-4H2,1-2H3,(H2,8,9)	InChI=1S/C7H13NO/c1-3-7(6(8)9)4-5(7)2/h5H,3-4H2,1-2H3,(H2,8,9)/t5-,7-/m1/s1
