12
gdb 129253	3.48641	1.68335	1.14344	3.6274	64.64	-0.2747	-0.0814	0.1933	949.6326	0.078874	-468.773686	-468.76723	-468.766286	-468.804646	24.184	
N	-0.034107621	 1.3296392151	 0.0106433048	-0.527767
C	-0.0441687827	 0.0705496994	 0.0037286993	 0.365166
O	 1.0679298339	-0.7546318291	-0.0068796387	-0.270233
C	 0.7284961314	-2.167495277	-0.0128978312	-0.19094
C	-0.7606074653	-2.1226963852	-0.0045854796	 0.224538
C	-1.1892819899	-0.8405545892	 0.0048607721	 0.287913
O	-2.4978044285	-0.7830036329	 0.012182027	-0.233392
N	-2.9072702715	-2.2269647028	 0.0065441442	-0.013241
N	-1.8650360792	-2.9221627216	-0.0030715244	-0.192503
H	 0.9209609849	 1.6901341666	 0.007468759	 0.241441
H	 1.1619812952	-2.6243986817	-0.9084384784	 0.154509
H	 1.1716247727	-2.6342980216	 0.8727633858	 0.154508
156.2165	203.935	260.4374	298.2725	399.4931	545.5921	591.2984	622.7638	640.3723	671.1763	771.0365	793.7805	885.3109	947.5195	992.6403	1033.501	1035.0303	1147.4736	1183.3826	1235.6092	1328.1415	1406.8908	1456.0805	1489.6596	1506.5648	1608.4197	1781.6593	3048.3784	3089.0222	3492.1036
N=C1OCC2=C1ON=N2	[NH][C]1OCc2c1onn2	
InChI=1S/C4H3N3O2/c5-4-3-2(1-8-4)6-7-9-3/h5H,1H2	InChI=1S/C4H3N3O2/c5-4-3-2(1-8-4)6-7-9-3/h5H,1H2
