18
gdb 109186	4.42964	0.9657	0.80483	2.9311	77.62	-0.2212	0.0142	0.2354	1421.2976	0.147273	-435.29174	-435.28217	-435.281226	-435.327013	33.099	
C	-0.0289118112	 1.3497615314	-0.0078183385	-0.237631
O	 0.0280352828	-0.0818462392	 0.043180042	-0.266262
C	 0.6601349051	-0.5806179222	 1.1027884	 0.51464
N	 1.2094000505	 0.0610962278	 2.0584154201	-0.377286
C	 1.7560544672	-0.9678255394	 2.9533506217	-0.262504
C	 1.4154909003	-2.3196765044	 2.3241755586	 0.40972
N	 0.7215771147	-1.9659725613	 1.1637215956	-0.429888
N	 1.7073985735	-3.4657027367	 2.7742877674	-0.323955
C	 1.2775590274	-4.6209827995	 2.003183086	-0.339117
H	 0.979158956	 1.7709110491	-0.0351276413	 0.146368
H	-0.5725898823	 1.5898064974	-0.9214637352	 0.134144
H	-0.5512584276	 1.7421782552	 0.8682004183	 0.146563
H	 2.8400639614	-0.8548643122	 3.0658516734	 0.137751
H	 1.3214995345	-0.8870709552	 3.9559646438	 0.137741
H	 0.3405912657	-2.5883010074	 0.4731720569	 0.268458
H	 1.7202743026	-4.6390925314	 0.9943912576	 0.107009
H	 1.5869016589	-5.5367445637	 2.5126936309	 0.127688
H	 0.1829062306	-4.6625836482	 1.8845157225	 0.106561
56.5649	63.0099	139.0917	163.2618	164.8883	203.858	251.1387	286.1567	348.6689	455.5151	501.2102	600.0054	690.3364	714.6539	737.3658	890.6465	969.6882	987.3978	1036.7268	1040.2247	1097.1277	1108.5152	1159.5021	1182.9313	1186.6942	1213.3842	1235.6981	1288.4758	1310.2509	1436.855	1440.931	1469.2458	1477.8142	1488.1539	1497.7145	1506.297	1509.9089	1725.8495	1787.4515	2963.6449	3009.1316	3043.679	3052.8782	3073.2476	3101.9436	3129.1482	3161.1061	3687.477
COC1=NCC(N1)=NC	COC1=NCC(=NC)N1	
InChI=1S/C5H9N3O/c1-6-4-3-7-5(8-4)9-2/h3H2,1-2H3,(H,6,7,8)	InChI=1S/C5H9N3O/c1-6-4-3-7-5(8-4)9-2/h3H2,1-2H3,(H,6,7,8)
