20
gdb 118209	4.53004	0.67859	0.6139	6.7863	73.23	-0.2479	0.0307	0.2786	1789.5705	0.17019	-477.448583	-477.438523	-477.437578	-477.484345	35.66	
C	-0.0020369756	 1.4304198462	 0.0049104922	-0.232387
O	 0.0336589747	 0.0209885536	-0.0102261158	-0.24288
C	 0.671241398	-0.5099433302	-1.1500657273	-0.058005
C	 0.6217525079	-2.0332494137	-1.0416751854	-0.018946
N	-0.7513807226	-2.5520796851	-0.8836094259	-0.522558
H	-1.3320915415	-2.2292582742	-1.6554838916	 0.237497
H	-0.2046439681	-4.2113212615	-1.1723244392	 0.316059
H	-1.1579748654	-2.1657591435	-0.0369542995	 0.256561
C	 1.2885647332	-2.7152660259	-2.2439741445	-0.339368
C	 1.4456071727	-4.2396006501	-2.1282467707	 0.398384
O	 0.454771792	-4.8796750714	-1.4962911547	-0.37236
O	 2.3881074166	-4.8208953012	-2.5982436774	-0.333058
H	 1.0102743862	 1.8622244001	 0.0026606871	 0.113172
H	-0.549912269	 1.8327018819	-0.8613004374	 0.108841
H	-0.5142438514	 1.7340212528	 0.9206893507	 0.133523
H	 0.1603645984	-0.1770788902	-2.0723535857	 0.082295
H	 1.7166015789	-0.164802267	-1.212617629	 0.098466
H	 1.1600976276	-2.3133120502	-0.1278628553	 0.115007
H	 0.699191562	-2.5125127311	-3.1499730392	 0.123095
H	 2.2861896154	-2.3083625495	-2.4208428915	 0.136662
66.2353	87.8271	100.1641	131.9998	149.2999	235.0543	270.557	317.1309	349.2847	377.5238	413.9505	463.5847	543.2894	616.7001	700.3982	871.8225	875.525	920.2478	941.6654	980.5536	1002.9752	1022.9996	1092.1975	1144.8197	1147.2586	1169.4867	1185.7063	1223.1857	1242.9815	1276.4406	1290.3842	1319.1063	1363.0506	1418.6736	1421.336	1462.5428	1480.8152	1486.4366	1500.3643	1501.6688	1524.0364	1654.9457	1858.6151	2937.4962	2977.7958	2984.5655	3016.3255	3025.8945	3047.5426	3116.5562	3120.1272	3231.9296	3476.9313	3566.7671
COCC([NH3+])CC([O-])=O	COC[C@@H](N)CC(=O)O	
InChI=1S/C5H11NO3/c1-9-3-4(6)2-5(7)8/h4H,2-3,6H2,1H3,(H,7,8)	InChI=1S/C5H11NO3/c1-9-3-4(6)2-5(7)8/h4H,2-3,6H2,1H3,(H,7,8)/t4-/m0/s1
