14
gdb 13327	5.60063	1.38487	1.12597	4.3468	61.34	-0.2419	-0.0097	0.2322	998.1693	0.108597	-415.896829	-415.889449	-415.888505	-415.929692	25.179	
O	-0.4199772846	 0.109201402	 0.2855158342	-0.255181
C	-0.1028791357	 1.2572364589	 0.1409381618	 0.158814
N	 1.1821043473	 1.7423065928	-0.0405346832	-0.399179
C	 2.3644929245	 1.0254200338	-0.0933403188	 0.533983
N	 2.5422021663	-0.2233927676	 0.0100007708	-0.31127
C	 3.9902125179	-0.4303977176	-0.1202692226	-0.182019
C	 4.5869200158	 0.9911508684	-0.3207488024	-0.111772
O	 3.4300458685	 1.8581674822	-0.2852524596	-0.274173
H	-0.8238733399	 2.0992056891	 0.1344910971	 0.085459
H	 1.2904382044	 2.7394954629	-0.1479173361	 0.267916
H	 4.3815811514	-0.9208150048	 0.7773030331	 0.120637
H	 4.2002444637	-1.0908522075	-0.968212322	 0.120638
H	 5.2673382534	 1.2983546799	 0.4778748348	 0.123069
H	 5.0844824869	 1.1265329676	-1.2847202771	 0.123079
55.9785	70.9498	164.1076	183.9464	312.3875	358.8277	572.4319	626.0034	715.9637	751.3677	831.9731	851.7437	925.8088	968.0209	1008.9915	1024.0244	1058.6553	1122.5768	1161.1087	1219.9713	1242.2075	1244.059	1337.2767	1375.7042	1445.7432	1508.0768	1524.348	1551.6874	1757.5338	1855.2491	2933.5633	3040.8334	3059.2729	3068.3935	3108.135	3631.4811
O=CNC1=NCCO1	O=CNC1=NCCO1	
InChI=1S/C4H6N2O2/c7-3-6-4-5-1-2-8-4/h3H,1-2H2,(H,5,6,7)	InChI=1S/C4H6N2O2/c7-3-6-4-5-1-2-8-4/h3H,1-2H2,(H,5,6,7)
