16
gdb 69411	3.35805	1.19936	1.1307	3.0624	73.65	-0.2683	-0.0243	0.2441	1125.2021	0.123993	-400.754147	-400.746272	-400.745328	-400.786574	29.861	
C	-0.1750623885	 1.5559949767	 0.0319873749	-0.492587
C	 0.1058842881	 0.0826078724	-0.0203390113	 0.382275
O	-0.6843754295	-0.7592769198	 0.8690998557	-0.291672
C	 0.7236059931	-0.7221488652	 1.0491738645	-0.032468
C	 1.4459066996	-1.9177358596	 0.4010600844	-0.225002
C	 1.1394693546	-1.728155667	-1.0838362865	-0.084699
C	 0.4234861807	-0.6263911127	-1.3026857729	-0.123605
C	 2.8820727692	-1.9215709579	 0.6837116502	 0.263257
N	 4.0148764427	-1.9098992623	 0.9123848119	-0.320318
H	 0.6547474574	 2.122576284	-0.402530361	 0.13596
H	-1.0813465999	 1.7962624666	-0.5340860985	 0.135146
H	-0.322009285	 1.8818698649	 1.0640768312	 0.138919
H	 1.087119228	-0.3176611949	 1.9896072701	 0.119389
H	 1.0210161189	-2.8589231448	 0.773028122	 0.151261
H	 1.4578218216	-2.4513998025	-1.8237920518	 0.127883
H	 0.074343709	-0.2825051279	-2.2686827629	 0.116262
91.8495	149.2182	190.5596	255.1128	288.5607	352.3655	447.5126	453.1679	521.8908	588.0248	617.5612	717.1477	771.8819	796.5803	835.1866	911.8797	925.347	963.6152	1007.8715	1030.1399	1045.575	1058.8169	1098.9738	1142.7882	1227.7766	1244.1208	1262.8286	1308.5555	1357.4622	1411.0699	1443.0007	1483.6191	1494.4373	1670.2464	2358.2332	3039.0065	3040.4009	3103.7954	3131.0911	3157.8577	3203.6592	3227.8481
CC12OC1C(C=C2)C#N	C[C@]12O[C@H]1[C@@H](C=C2)C#N	
InChI=1S/C7H7NO/c1-7-3-2-5(4-8)6(7)9-7/h2-3,5-6H,1H3	InChI=1S/C7H7NO/c1-7-3-2-5(4-8)6(7)9-7/h2-3,5-6H,1H3/t5-,6-,7+/m0/s1
