18
gdb 91208	2.06583	1.64532	1.5325	2.9833	71.97	-0.2413	0.0142	0.2555	1016.132	0.147127	-439.093543	-439.084871	-439.083927	-439.126646	32.76	
C	-0.1819135434	 1.5551863384	-0.0255112474	-0.416244
C	 0.0571552357	 0.052177766	-0.0288658251	-0.009175
C	 1.1734774298	-0.556566968	-0.9385196248	-0.260536
C	 1.7882100125	-1.2789037545	 0.2868797099	-0.061856
N	 2.7708925006	-0.4803994037	 1.0242755122	-0.322409
C	 1.8679050567	 0.1607675198	 1.8500330386	 0.32499
O	 1.9927074983	 0.9892727665	 2.7135577555	-0.365016
C	 0.686021656	-0.620794177	 1.2258402782	 0.271577
O	-0.2290785451	-1.2475328104	 2.0532732379	-0.471804
H	 0.7434397318	 2.1098370048	 0.1606328331	 0.125725
H	-0.5841490357	 1.8861040783	-0.9889732761	 0.114588
H	-0.8989267859	 1.8349090944	 0.7527958896	 0.132126
H	-0.8849990811	-0.4757921183	-0.208628456	 0.095967
H	 0.7931515755	-1.2277150903	-1.7114674659	 0.109512
H	 1.8442078224	 0.1701581105	-1.4048233198	 0.098496
H	 1.9973323404	-2.347450584	 0.2429676488	 0.090251
H	 3.6846579518	-0.1592979138	 0.7332431425	 0.247221
H	 0.1607363096	-1.3554094089	 2.9278024689	 0.296585
96.7168	116.2492	192.4193	206.8378	239.684	305.33	341.5174	385.0922	427.1525	516.1735	535.2565	624.9608	705.8059	739.4788	775.0397	844.4787	869.8915	916.5616	955.4551	982.3926	1005.6786	1078.2035	1104.0098	1122.1655	1127.3698	1179.6637	1205.6998	1225.9671	1263.6814	1318.5872	1331.1622	1356.8732	1362.4344	1380.9338	1413.7097	1479.6211	1492.5035	1495.6707	1877.3647	3033.143	3054.8804	3062.4785	3100.77	3107.6135	3112.4506	3122.551	3583.5086	3805.9978
CC1CC2NC(=O)C12O	C[C@H]1C[C@H]2NC(=O)[C@@]12O	
InChI=1S/C6H9NO2/c1-3-2-4-6(3,9)5(8)7-4/h3-4,9H,2H2,1H3,(H,7,8)	InChI=1S/C6H9NO2/c1-3-2-4-6(3,9)5(8)7-4/h3-4,9H,2H2,1H3,(H,7,8)/t3-,4+,6+/m0/s1
