17
gdb 112449	2.15012	1.57814	1.02598	3.2442	65.07	-0.2626	0.0092	0.2718	1158.0732	0.134912	-496.133372	-496.12453	-496.123586	-496.167242	31.831	
C	 0.4233818663	 1.2228196507	 0.1931685511	-0.246815
O	 0.4729835671	-0.19134091	 0.0673421892	-0.220073
C	 0.4415249674	-0.6431725229	-1.2362217208	 0.189562
O	 1.6620605393	-0.3228636285	-1.9302555335	-0.230565
C	 2.5769504752	-1.3356232585	-1.783090481	 0.431396
O	 3.6930222983	-1.2460366818	-2.1960806623	-0.327188
C	 1.9042637376	-2.5031953765	-1.0727528271	-0.4084
C	 0.4140562193	-2.182957649	-1.2424085383	 0.089071
O	-0.4574588944	-2.6611357163	-0.2506113188	-0.423101
H	 1.3020165398	 1.6962044065	-0.2590932764	 0.136644
H	-0.4833336396	 1.6281871104	-0.2782472768	 0.114483
H	 0.3997062357	 1.4420162673	 1.2618127141	 0.136697
H	-0.3667123692	-0.1721601189	-1.809338911	 0.086984
H	 2.2359710227	-3.4515032791	-1.4972474414	 0.131084
H	 2.1684312705	-2.4760220111	-0.0107937252	 0.158432
H	 0.0882403197	-2.4921385117	-2.246878695	 0.089375
H	-0.5420271557	-3.6131710007	-0.3598774268	 0.292413
87.7633	124.396	129.6541	181.6094	215.6218	239.1297	299.9421	378.6473	489.5466	508.494	523.3718	584.8438	668.1679	747.9129	840.5021	905.8723	936.7266	993.409	1039.0828	1075.5975	1132.8348	1145.5465	1162.6008	1181.1262	1192.4354	1213.3139	1254.8422	1268.9851	1353.5913	1373.4503	1399.1053	1444.5482	1466.2495	1482.7832	1486.8179	1510.4979	1896.7161	2992.2262	3002.5283	3039.5116	3071.5566	3075.1705	3135.657	3137.5673	3829.5618
COC1OC(=O)CC1O	CO[C@H]1OC(=O)C[C@H]1O	
InChI=1S/C5H8O4/c1-8-5-3(6)2-4(7)9-5/h3,5-6H,2H2,1H3	InChI=1S/C5H8O4/c1-8-5-3(6)2-4(7)9-5/h3,5-6H,2H2,1H3/t3-,5+/m1/s1
