19
gdb 35734	3.21859	1.22154	1.09856	1.5541	81.08	-0.2301	0.0399	0.2699	1180.847	0.158533	-385.84567	-385.837185	-385.836241	-385.879932	32.848	
C	 0.3267762728	-0.9749577935	 0.764469041	-0.487629
C	 0.1488444755	 0.1384164634	 0.3475620602	 0.355525
C	-0.079075647	 1.4984387798	-0.1566944738	-0.07298
C	-0.907298335	 2.3605304765	 0.8199332865	-0.234267
C	 0.1874501582	 2.896406796	 1.7539995294	-0.308441
C	 1.3686576534	 3.0493920691	 0.8073664604	 0.472769
C	 2.0560182389	 4.3536944233	 0.5283422262	-0.327699
C	 2.7837574629	 3.2310283	 1.255473809	-0.329882
O	 1.1490739879	 2.2109124127	-0.3211058038	-0.294995
H	 0.4910630109	-1.96041746	 1.1248203008	 0.199202
H	-0.5476345379	 1.4370900954	-1.1449497085	 0.109169
H	-1.3747655135	 3.176970109	 0.261511586	 0.110425
H	-1.6852404196	 1.7910683816	 1.3302127704	 0.115541
H	-0.0848647931	 3.8355874125	 2.2402117852	 0.108133
H	 0.4116352633	 2.1604781366	 2.533435013	 0.119782
H	 2.3439643226	 4.5444024045	-0.499548835	 0.121631
H	 1.7589286939	 5.2324700146	 1.0916623721	 0.10868
H	 2.9830319996	 3.3399359774	 2.3169585004	 0.110376
H	 3.5450829063	 2.6939404111	 0.7012083605	 0.124659
15.9574	116.841	183.887	255.6496	295.913	322.235	431.1376	460.8883	494.6012	577.2297	628.5599	660.8831	695.2466	756.4066	773.2053	839.4689	858.7333	891.8835	908.8459	933.2452	966.4208	973.5568	1015.1466	1042.4045	1066.0323	1071.2168	1101.1283	1167.3051	1188.1038	1198.7654	1238.2451	1297.9648	1310.8725	1341.9537	1368.1244	1378.8837	1451.4886	1481.2147	1495.1634	1501.2136	2231.2483	3046.634	3051.2905	3065.2588	3108.3381	3126.5874	3129.723	3130.614	3212.5712	3226.9513	3502.6614
C#CC1CCC2(CC2)O1	C#C[C@H]1CCC2(CC2)O1	
InChI=1S/C8H10O/c1-2-7-3-4-8(9-7)5-6-8/h1,7H,3-6H2	InChI=1S/C8H10O/c1-2-7-3-4-8(9-7)5-6-8/h1,7H,3-6H2/t7-/m0/s1
