16
gdb 109031	3.03884	1.36295	1.01251	3.2855	71.86	-0.2487	-0.0471	0.2016	1140.1569	0.124599	-437.887135	-437.879161	-437.878217	-437.920027	29.484	
O	-0.0050617939	 1.4302890043	-0.0597183193	-0.42191
C	-0.0102362187	 0.0197184927	 0.0612998062	-0.172339
C	-1.4202948602	-0.4621341471	 0.083603707	 0.195889
C	-2.5608419163	 0.2408199889	 0.0458719966	-0.191499
C	-3.7210846036	-0.6888612613	 0.0287818453	-0.075053
C	-3.8668196444	-1.6123293343	-1.1401093022	-0.238396
N	-3.1870126777	-2.0519219559	 0.0957158914	-0.128065
C	-1.747495563	-1.9140526321	 0.0283360872	 0.307132
O	-0.9805924295	-2.8367247237	-0.0787723281	-0.327767
H	 0.9081916934	 1.729445002	-0.0349647223	 0.294249
H	 0.5177968592	-0.4725734345	-0.7717233882	 0.118153
H	 0.4960038369	-0.3147555727	 0.9818177095	 0.116696
H	-2.6439286341	 1.3191277873	 0.0403919939	 0.137579
H	-4.5903900346	-0.4747482212	 0.6441487886	 0.114963
H	-4.8207251797	-2.0945280396	-1.3342410498	 0.1352
H	-3.2504676237	-1.4201521227	-2.0146707957	 0.135169
75.1425	137.9625	173.5886	223.6558	255.6835	336.5384	389.0065	450.0271	552.4671	614.1651	724.8835	783.6373	798.7167	838.6171	868.4454	896.2497	955.9173	991.8072	1041.2222	1046.6545	1066.3871	1096.12	1117.9136	1156.0587	1205.6406	1224.294	1241.1551	1267.7314	1318.0892	1358.5247	1467.0486	1496.9497	1502.7695	1692.9022	1826.8119	2969.5703	2987.4167	3109.9119	3153.624	3205.2679	3235.0374	3838.8393
OCC1=CC2CN2C1=O	OCC1=C[C@H]2CN2C1=O	
InChI=1S/C6H7NO2/c8-3-4-1-5-2-7(5)6(4)9/h1,5,8H,2-3H2	InChI=1S/C6H7NO2/c8-3-4-1-5-2-7(5)6(4)9/h1,5,8H,2-3H2/t5-,7?/m0/s1
