17
gdb 88495	2.36121	1.45812	1.14436	3.3553	72.7	-0.2758	0.0114	0.2871	1116.3418	0.135429	-417.971782	-417.963093	-417.962149	-418.005353	31.825	
C	 0.4754421639	 1.3878243595	-0.4559576921	-0.44428
C	 0.0488369203	 0.0319653245	 0.0412513672	 0.09755
O	 1.0641412372	-0.9779237926	 0.2360002844	-0.264162
C	 0.352221309	-0.5071010907	 1.3764305854	-0.0626
C	 1.1930360654	 0.2369933058	 2.3914091434	 0.13285
C	 2.3592510749	-0.4763510954	 3.000097072	-0.26573
N	 2.5754384815	 0.609346258	 2.0433190049	-0.330558
C	 0.4511704153	 1.1965077689	 3.1815661004	 0.273223
N	-0.183497909	 1.9328418817	 3.8071622414	-0.330919
H	 1.3138886533	 1.7960299199	 0.1107045043	 0.152698
H	 0.7607332915	 1.3285999405	-1.5111470822	 0.136102
H	-0.3635925229	 2.0865219966	-0.3749345701	 0.142149
H	-0.8434181759	-0.3698624391	-0.4405018521	 0.107066
H	-0.3429979134	-1.2243954026	 1.8140371389	 0.116093
H	 2.642256544	-0.2564905493	 4.0242788227	 0.145274
H	 2.5209069546	-1.500468261	 2.6741178906	 0.139199
H	 2.7571473705	 0.2048684655	 1.124295061	 0.256045
65.3448	134.8391	170.7432	191.6005	230.3143	256.3863	319.831	390.0653	481.9302	503.5374	575.693	594.7018	716.9559	789.9651	836.3073	888.1665	916.9182	959.8875	992.3239	1012.8508	1027.1953	1085.5186	1123.907	1135.3893	1175.5282	1179.9836	1268.9362	1296.6624	1316.3338	1354.5737	1395.5773	1424.102	1461.5699	1492.3654	1502.4195	1506.3949	2357.8427	3046.3874	3099.6809	3108.4591	3111.4044	3116.7479	3146.3613	3213.6302	3470.9367
CC1OC1C1(CN1)C#N	C[C@H]1O[C@H]1[C@]1(CN1)C#N	
InChI=1S/C6H8N2O/c1-4-5(9-4)6(2-7)3-8-6/h4-5,8H,3H2,1H3	InChI=1S/C6H8N2O/c1-4-5(9-4)6(2-7)3-8-6/h4-5,8H,3H2,1H3/t4-,5-,6-/m1/s1
