21
gdb 86268	1.75257	1.61329	1.12993	1.8174	84.76	-0.242	0.051	0.293	1216.2602	0.179949	-387.052171	-387.042148	-387.041204	-387.086228	38.549	
C	-0.8789275763	 1.1535773537	-0.0484745104	-0.417132
C	 0.0800145811	-0.0209448168	-0.1604249927	 0.018988
C	 1.4635476761	 0.1779736773	-0.8342989104	-0.307237
C	 2.0632052441	-0.8159661368	 0.1868389929	 0.135547
O	 3.3587718751	-0.6312947133	 0.6837427204	-0.426133
C	 0.8138594117	-0.5699744469	 1.1276340197	 0.068697
C	 1.1043686987	 0.495755373	 2.195027784	-0.459741
C	 0.2262527534	-1.7527643806	 1.7292728422	 0.256006
C	-0.2640250104	-2.7420759287	 2.2084157691	-0.451488
H	-0.4040936592	 2.0288398991	 0.4061010243	 0.112871
H	-1.2362305818	 1.4515030422	-1.0403019237	 0.118488
H	-1.7553929731	 0.8939850524	 0.5550127674	 0.124438
H	-0.4338286545	-0.8640053711	-0.6316863349	 0.086623
H	 1.5619876818	-0.0622019111	-1.8950211972	 0.104717
H	 1.8459017853	 1.1932097832	-0.6739655901	 0.091028
H	 2.032467416	-1.8399228672	-0.192560837	 0.102988
H	 3.4591254743	 0.2923100686	 0.935876342	 0.281336
H	 1.5152198919	 1.4117086765	 1.7564734525	 0.1029
H	 0.1926957052	 0.7671425377	 2.7331960284	 0.13152
H	 1.8255236252	 0.1093422051	 2.9202096133	 0.13658
H	-0.6916919542	-3.6159662263	 2.6334405502	 0.189005
110.6277	120.4671	162.878	209.6398	239.6848	245.3756	276.1744	313.8461	322.1735	382.5501	449.9771	492.3395	534.3751	554.555	565.6658	613.133	621.3976	693.2384	818.1649	866.7375	905.4093	943.8122	946.9747	1006.3026	1069.502	1074.1999	1130.9792	1159.6386	1163.5139	1184.8221	1214.1831	1242.9136	1253.5617	1312.2564	1323.5559	1375.4799	1406.2409	1412.1016	1444.0512	1489.7297	1491.0654	1493.8202	1504.226	1505.8947	2225.196	3030.2481	3034.8957	3042.2638	3060.006	3088.1829	3094.6426	3102.5135	3106.1174	3113.2609	3124.5327	3502.6069	3816.9098
CC1CC(O)C1(C)C#C	C[C@H]1C[C@@H](O)[C@]1(C)C#C	
InChI=1S/C8H12O/c1-4-8(3)6(2)5-7(8)9/h1,6-7,9H,5H2,2-3H3	InChI=1S/C8H12O/c1-4-8(3)6(2)5-7(8)9/h1,6-7,9H,5H2,2-3H3/t6-,7+,8+/m0/s1
