18
gdb 50704	3.05401	1.39384	1.06378	3.4243	71.78	-0.2427	-0.024	0.2188	1124.9627	0.148494	-439.066645	-439.058649	-439.057704	-439.099936	29.866	
O	-0.9063024909	 1.1773009382	 0.072512879	-0.25769
C	 0.2250279593	 0.7802149641	-0.0201334567	 0.149742
C	 1.4365562864	 1.7058523226	-0.0339545175	 0.033187
O	 2.5796401618	 0.8892210413	-0.1547532517	-0.25962
C	 3.7778884785	 1.6404958795	-0.2750564962	-0.075355
C	 3.8533753654	 2.3796194047	-1.6155194706	-0.211724
C	 2.5386432625	 3.0826781482	-1.9275751851	-0.03794
N	 1.4839801376	 2.2295638376	-2.5081538703	-0.325422
C	 1.3210497802	 2.7406406421	-1.1425181709	-0.057386
H	 0.4823523465	-0.2973361896	-0.1042073027	 0.098807
H	 1.4515668335	 2.2466471002	 0.9311686608	 0.091397
H	 3.8475923772	 2.3597962254	 0.5581405107	 0.08928
H	 4.5983211615	 0.9256238638	-0.1710604	 0.11217
H	 4.6723756888	 3.1061571671	-1.5767954941	 0.099012
H	 4.0752496116	 1.6710312754	-2.4194062598	 0.122564
H	 2.6131226127	 4.1005413572	-2.3022773502	 0.09071
H	 0.9048037922	 2.7645680183	-3.1493044507	 0.23569
H	 0.5747051651	 3.5076331139	-0.955801234	 0.102579
51.5045	96.1711	173.4731	233.2445	294.5981	372.9307	419.6663	473.3721	560.0407	597.5889	701.9686	770.9772	789.1681	880.0583	897.158	907.3278	930.4537	998.5114	1004.2272	1069.5287	1086.0669	1089.5892	1125.0828	1145.9171	1169.4161	1216.1357	1257.2138	1261.5533	1285.7663	1314.1891	1337.2058	1365.0262	1380.8419	1400.6777	1421.5269	1454.1933	1472.0469	1501.2629	1838.5768	2912.4027	2931.4678	2967.1864	3045.073	3087.5161	3097.2899	3132.9276	3153.3191	3509.9476
O=CC1OCCC2NC12	O=C[C@H]1OCC[C@H]2N[C@@H]12	
InChI=1S/C6H9NO2/c8-3-5-6-4(7-6)1-2-9-5/h3-7H,1-2H2	InChI=1S/C6H9NO2/c8-3-5-6-4(7-6)1-2-9-5/h3-7H,1-2H2/t4-,5-,6-/m1/s1
