23
gdb 66152	4.02538	0.78813	0.75771	0.8829	87.1	-0.2431	0.0876	0.3307	1637.6125	0.204095	-388.256523	-388.246639	-388.245694	-388.292064	37.07	
C	 0.0605113277	 1.5884273306	-0.1216933065	-0.461624
C	-0.0581440934	 0.0792969664	-0.0377273171	 0.366407
C	-1.363871629	-0.4797460837	-0.5492588888	-0.126884
O	-1.4840694769	-0.1781051368	-1.9333821795	-0.256107
C	-2.6925985511	-0.590703765	-2.4850792405	 0.157841
C	-3.9080223433	 0.2931117407	-2.3493344659	-0.287538
C	-3.1773463292	 0.1720775662	-3.6734131197	-0.288161
C	 1.1798427989	-0.7583499461	-0.2436708989	-0.286479
C	 0.5723747093	-0.6363203651	 1.1334005314	-0.314591
H	 1.0348049514	 1.9294135219	 0.241528458	 0.108453
H	-0.0572464745	 1.9265012794	-1.1553045273	 0.13141
H	-0.7117351081	 2.0790466367	 0.4834215458	 0.10863
H	-1.3991800142	-1.57090374	-0.3968638381	 0.078526
H	-2.2128588116	-0.0435740153	 0.0019824225	 0.087347
H	-2.8491308406	-1.6708160146	-2.4659814257	 0.07922
H	-4.8838751884	-0.1681109497	-2.2435862473	 0.110822
H	-3.7792079316	 1.2202526135	-1.8019735294	 0.118215
H	-2.5711464872	 1.0164765383	-3.9808394632	 0.124477
H	-3.6454361264	-0.3730683637	-4.4851813562	 0.112507
H	 1.0770271687	-1.7029720101	-0.7668435965	 0.111753
H	 2.1150752655	-0.2443367413	-0.4378937061	 0.10913
H	 1.0903288691	-0.0329729725	 1.8714435868	 0.109121
H	 0.0652814449	-1.5018314199	 1.5479337624	 0.107526
47.8659	58.0537	122.8829	143.8726	213.1935	251.4543	300.3104	344.5998	363.3691	398.1268	461.3648	498.4326	728.8914	763.2239	782.491	817.6622	836.4681	874.1383	913.6178	948.798	956.5896	971.6751	977.1179	1022.5114	1047.596	1049.0699	1070.6791	1076.3134	1086.1313	1093.7909	1126.9271	1134.5297	1186.2894	1193.6329	1203.1578	1240.8618	1252.0206	1330.3867	1358.5155	1379.9739	1411.1646	1439.5648	1453.6789	1468.5744	1484.9499	1496.5662	1503.3446	1511.331	1518.5783	2959.8324	2993.291	3025.6461	3082.1192	3089.1706	3112.2621	3125.6916	3132.9231	3134.5445	3141.4492	3203.8263	3218.9375	3219.294	3233.8857
CC1(COC2CC2)CC1	CC1(COC2CC2)CC1	
InChI=1S/C8H14O/c1-8(4-5-8)6-9-7-2-3-7/h7H,2-6H2,1H3	InChI=1S/C8H14O/c1-8(4-5-8)6-9-7-2-3-7/h7H,2-6H2,1H3
