20
gdb 80332	2.08566	1.48037	1.3167	4.166	83.4	-0.2663	0.0294	0.2958	1129.1156	0.170769	-366.00991	-366.00084	-365.999896	-366.043315	34.269	
C	-0.076643916	 1.5398337587	-0.0992022197	-0.426723
C	 0.0760777562	 0.03860384	 0.0379893156	-0.04995
C	 1.3283746759	-0.7555983403	-0.2304757923	-0.121901
C	 2.5742416195	-0.019217164	 0.2708512003	-0.256615
C	 1.9728591007	-0.040025722	 1.7214458476	-0.199637
C	 1.8469697019	 1.2052944578	 2.4694333719	 0.27521
N	 1.7501267713	 2.1913127491	 3.0665097293	-0.342807
C	 0.6994162277	-0.7299890143	 1.1766451285	 0.322691
C	-0.0264818227	-1.7899073212	 1.9552504949	-0.498893
H	 0.8023350344	 2.0959973606	 0.2312014783	 0.137395
H	-0.2641234295	 1.8048978125	-1.1455376526	 0.116297
H	-0.9240856108	 1.8987673939	 0.4936900961	 0.128374
H	-0.8013731024	-0.4979727165	-0.3219245496	 0.08948
H	 1.3488750535	-1.5734655971	-0.9413353784	 0.090627
H	 3.4893572437	-0.6101206536	 0.2124185493	 0.117083
H	 2.7671209779	 0.9674862209	-0.157011734	 0.119485
H	 2.5350004244	-0.7439572549	 2.3422866515	 0.123902
H	-0.5814698633	-1.3540586275	 2.7947296149	 0.134027
H	-0.7470938721	-2.3166531755	 1.3218344203	 0.124379
H	 0.6660444996	-2.5341870866	 2.3657672081	 0.117576
110.1515	126.1331	179.4879	196.2619	213.8172	263.0699	282.7457	313.6592	425.9501	502.4309	521.1155	568.5691	639.7921	732.5203	741.8169	812.728	885.2483	931.0243	963.955	975.8372	1008.4476	1044.1148	1058.0624	1070.1657	1114.4079	1123.629	1142.3219	1160.7035	1204.6962	1245.7504	1261.854	1292.5534	1339.7772	1345.4871	1417.7024	1421.5984	1465.1662	1485.1984	1488.7379	1496.655	1504.9523	1507.5088	2346.8534	3021.0491	3039.084	3064.6329	3071.9449	3079.0664	3096.7339	3099.9258	3111.8081	3126.306	3136.8005	3179.0021
CC1C2CC(C#N)C12C	C[C@H]1[C@H]2C[C@@H](C#N)[C@@]12C	
InChI=1S/C8H11N/c1-5-7-3-6(4-9)8(5,7)2/h5-7H,3H2,1-2H3	InChI=1S/C8H11N/c1-5-7-3-6(4-9)8(5,7)2/h5-7H,3H2,1-2H3/t5-,6-,7+,8+/m0/s1
