17
gdb 82170	2.95313	1.66535	1.31756	3.4748	66.32	-0.2511	0.0487	0.2998	987.7309	0.135186	-458.923854	-458.91611	-458.915166	-458.955756	30.326	
C	-0.0955314095	 1.5184402016	 0.0616814667	-0.503415
C	 0.1524264556	 0.0404050611	-0.031496949	 0.403239
O	-0.5266995573	-0.8040862466	 0.9083296463	-0.284882
C	 0.9082876898	-0.7788522751	 0.9308708085	-0.08107
C	 1.5314090273	-1.9947714157	 0.2283497367	 0.098028
O	 1.0821161388	-3.222855091	 0.7554724775	-0.434702
C	 1.1614926336	-1.8107991889	-1.2527663865	-0.012184
O	-0.2461136005	-1.9376549906	-1.4870136331	-0.24231
C	 0.3093432749	-0.623811116	-1.4031251373	-0.038677
H	 0.6705269083	 2.0763695196	-0.4876483597	 0.126962
H	-1.0706956254	 1.7744061914	-0.3666885928	 0.137261
H	-0.083282944	 1.8445605863	 1.1042621842	 0.137508
H	 1.3511045035	-0.3868638136	 1.8441088695	 0.099569
H	 2.6203405482	-1.9783944662	 0.3466301096	 0.089954
H	 0.1215632726	-3.2088430273	 0.6471357658	 0.300637
H	 1.8021738007	-2.2091531075	-2.0356775798	 0.104369
H	 0.2523516035	-0.0230079514	-2.3069436866	 0.099713
134.1138	185.1556	192.8704	255.1568	299.2185	361.3887	427.8055	502.1819	544.1087	571.5896	592.1953	727.0564	779.5187	839.361	850.3731	886.1929	891.9902	927.5532	973.2159	1029.6114	1061.7591	1070.8806	1085.4571	1112.6784	1117.4712	1221.1504	1257.5897	1276.8473	1287.4544	1308.7619	1329.7607	1411.7164	1418.4174	1441.2723	1459.9295	1485.2664	1495.9486	3036.0958	3061.9227	3098.4716	3127.2781	3135.7838	3141.5683	3155.4278	3770.0816
CC12OC1C(O)C1OC21	C[C@]12O[C@H]1[C@@H](O)[C@H]1O[C@@H]21	
InChI=1S/C6H8O3/c1-6-4(9-6)2(7)3-5(6)8-3/h2-5,7H,1H3	InChI=1S/C6H8O3/c1-6-4(9-6)2(7)3-5(6)8-3/h2-5,7H,1H3/t2-,3+,4-,5+,6-/m0/s1
