22
gdb 120394	3.3471	0.86219	0.73859	3.8789	84.78	-0.238	0.0398	0.2778	1605.5055	0.193248	-404.384482	-404.374234	-404.373289	-404.420341	36.544	
C	 0.0293678903	 1.6501807544	-0.0546809197	-0.379566
C	-0.0856813612	 0.1274011087	 0.0580384419	-0.176342
C	 0.7843596272	-0.453060001	 1.1802594954	-0.181397
C	 0.7533795005	-1.9744169257	 1.2868329414	 0.041019
C	 1.5488464849	-2.6159537049	 2.4638963379	-0.41326
C	 0.1974846754	-3.2172738353	 2.9023207771	 0.410789
O	-0.193998684	-3.9665228488	 3.760219844	-0.376818
N	-0.458081804	-2.5779362362	 1.8778861868	-0.070173
C	-1.8097079348	-2.7474806482	 1.4070161705	-0.347882
H	 1.0625327459	 1.9541508779	-0.2562399231	 0.116229
H	-0.596486154	 2.0387087496	-0.8638045101	 0.114629
H	-0.2833702249	 2.1406148878	 0.8736832811	 0.117828
H	-1.1346655734	-0.1461475402	 0.2229209614	 0.102951
H	 0.202763499	-0.3338431933	-0.8959245661	 0.096791
H	 1.827926179	-0.1522166172	 1.0135007503	 0.101597
H	 0.4870885513	-0.0250092673	 2.1467402606	 0.099235
H	 0.9968501917	-2.4245333804	 0.3136238961	 0.075497
H	 2.2988628422	-3.357037272	 2.1820684406	 0.128911
H	 1.9818250886	-1.9052347568	 3.1712473026	 0.126566
H	-2.290627088	-3.4824273361	 2.0579358069	 0.159351
H	-2.3857172294	-1.8161585303	 1.4479356299	 0.129872
H	-1.8283977224	-3.1221485647	 0.3758498744	 0.124171
69.9012	76.6239	102.6901	131.2321	173.387	193.9881	246.5368	251.7269	315.3428	335.9167	465.5018	526.9699	565.9658	721.4009	724.7752	762.7282	853.244	882.464	908.1486	968.7721	991.7617	1045.2746	1072.3664	1085.1375	1088.8853	1120.6838	1148.7258	1179.5601	1200.1699	1235.4501	1268.0732	1289.3595	1308.4132	1332.7877	1378.6244	1404.9515	1409.3458	1416.8383	1444.2684	1466.5219	1474.6883	1486.1478	1492.4583	1500.5904	1509.3257	1518.1785	1875.1647	2998.3929	3010.2586	3015.0523	3021.9099	3031.6393	3044.7999	3065.192	3069.9021	3081.3055	3099.2657	3105.0875	3122.8546	3139.1774
CCCC1CC(=O)N1C	CCC[C@H]1CC(=O)N1C	
InChI=1S/C7H13NO/c1-3-4-6-5-7(9)8(6)2/h6H,3-5H2,1-2H3	InChI=1S/C7H13NO/c1-3-4-6-5-7(9)8(6)2/h6H,3-5H2,1-2H3/t6-/m0/s1
