22
gdb 120882	4.79744	0.80022	0.75874	1.5762	84.19	-0.221	0.0808	0.3017	1604.184	0.19335	-404.296881	-404.287212	-404.286268	-404.331706	35.705	
C	-0.0498111727	 1.3880570941	 0.1008047661	-0.222101
O	-0.0393405467	-0.0172573699	 0.112168661	-0.23611
C	-1.317972514	-0.5779940242	-0.1170172183	-0.067605
C	-1.1963300429	-2.0857146897	-0.0269524046	 0.006418
C	-0.8980739414	-2.727027438	 1.3764659174	-0.277144
C	-2.1971199756	-3.5399368354	 1.2439702433	 0.353345
C	-2.4553641057	-4.9195569782	 1.7637250347	-0.506666
N	-3.2779962473	-2.5267917751	 1.1374213869	-0.368306
C	-2.4933673539	-2.9046511057	-0.0721194744	-0.139354
H	 0.9712659168	 1.7273453408	 0.2941091287	 0.122003
H	-0.3772827889	 1.7887111182	-0.8726384764	 0.098662
H	-0.7141528733	 1.8004006184	 0.8772501066	 0.102328
H	-2.0425317746	-0.2165803108	 0.6278030539	 0.106607
H	-1.6920369148	-0.2825860531	-1.1140611251	 0.074358
H	-0.4774250666	-2.4405405873	-0.7706956889	 0.078117
H	 0.0026493787	-3.3446540604	 1.3690834664	 0.099616
H	-0.8620863661	-2.0382851489	 2.223767713	 0.104871
H	-2.5698577466	-4.9173933435	 2.8544588581	 0.128038
H	-3.3708446058	-5.3401609976	 1.3323670405	 0.114465
H	-1.6279267447	-5.5941784734	 1.518480885	 0.124176
H	-4.1587144016	-3.0394039973	 1.0815498517	 0.220129
H	-2.9952713623	-3.3054781728	-0.9457884157	 0.08415
65.1007	97.7069	111.2538	170.1301	213.6391	232.9835	285.4145	297.8699	374.5984	403.768	467.8144	544.3843	643.4809	692.3058	829.0511	854.9156	902.3746	922.0497	936.8136	965.23	997.1208	1016.2867	1038.5083	1081.4135	1094.2234	1136.505	1142.4689	1159.7113	1177.3206	1199.727	1215.3938	1234.1413	1244.4713	1263.0464	1306.9179	1324.1047	1369.593	1406.4372	1420.0554	1446.4107	1480.5567	1481.5841	1483.5741	1484.4242	1499.0779	1504.4349	1530.1213	2940.7723	2964.7768	3005.3223	3012.8356	3020.4548	3065.8164	3073.5748	3081.9905	3092.8394	3107.2281	3124.2144	3173.2236	3459.2081
COCC1CC2(C)NC12	COC[C@H]1C[C@@]2(C)N[C@@H]12	
InChI=1S/C7H13NO/c1-7-3-5(4-9-2)6(7)8-7/h5-6,8H,3-4H2,1-2H3	InChI=1S/C7H13NO/c1-7-3-5(4-9-2)6(7)8-7/h5-6,8H,3-4H2,1-2H3/t5-,6+,7-/m1/s1
