19
gdb 38782	2.84657	1.9881	1.6516	1.6611	76.5	-0.2253	0.0813	0.3066	895.152	0.162811	-385.845143	-385.838779	-385.837835	-385.875418	27.596	
C	 0.0195886062	 1.5584160006	-0.2316003477	-0.302681
C	 1.3103929712	 0.7966896279	-0.0410302313	-0.031647
C	 2.1469751542	 0.9316074565	 1.2242450181	-0.242135
C	 1.4023874382	 0.5423632875	 2.497712816	 0.104004
O	 0.2093098221	 1.3663939817	 2.7139071086	-0.301713
C	-0.6116316081	 0.2013294464	 2.6451055027	 0.071624
C	-0.4502836879	-0.535422489	 1.3388238052	-0.056501
C	-0.017469951	 0.067771214	 0.0282532548	-0.03124
C	 0.5510471989	-0.7351755003	 2.4638685279	-0.174207
H	-0.2982450511	 2.2173490777	 0.5651001419	 0.137297
H	-0.2222569436	 1.8954391369	-1.2343393824	 0.098035
H	 1.8981263203	 0.6297650884	-0.9386645741	 0.07927
H	 3.0298800288	 0.282521303	 1.1505205613	 0.099404
H	 2.5224927135	 1.956541159	 1.3354216952	 0.10954
H	 2.0535354549	 0.6098845683	 3.3749906375	 0.081964
H	-1.4945804709	 0.1700569096	 3.2730680977	 0.102162
H	-1.1539656866	-1.3593827019	 1.2496146611	 0.086076
H	-0.2618409303	-0.5563191042	-0.8258504484	 0.077787
H	 0.7991614012	-1.6828676422	 2.921735266	 0.092962
213.6836	248.2645	340.3769	388.6509	472.7232	494.846	665.6692	704.5717	706.4211	767.0953	778.9736	817.9836	822.9877	857.2003	899.2394	911.4014	942.9094	969.0247	1004.0633	1024.2158	1052.4034	1058.4693	1067.2693	1076.3359	1088.9313	1105.4762	1132.6293	1141.6378	1152.3533	1221.1371	1239.8207	1255.2352	1296.9602	1308.6236	1338.4249	1376.9593	1393.8343	1418.3956	1436.5098	1469.8419	1485.6876	3015.9147	3052.0025	3056.1848	3134.4266	3136.9768	3143.8407	3154.4299	3178.0089	3203.0469	3243.8949
C1C2CC3OC4C(C12)C34	C1[C@H]2C[C@H]3O[C@H]4[C@@H]([C@@H]12)[C@@H]34	
InChI=1S/C8H10O/c1-3-2-5-7-6(4(1)3)8(7)9-5/h3-8H,1-2H2	InChI=1S/C8H10O/c1-3-2-5-7-6(4(1)3)8(7)9-5/h3-8H,1-2H2/t3-,4-,5+,6-,7+,8-/m0/s1
