18
gdb 37436	2.66461	2.03685	2.01819	0.539	73.97	-0.2201	0.0028	0.2229	834.4353	0.151481	-401.9111	-401.90497	-401.904026	-401.941039	26.823	
C	 0.0553342972	 1.5157852425	-0.1530851944	-0.272983
C	 1.2980771592	 0.7156356212	-0.0127441414	-0.000198
C	 1.99089035	 0.6201373363	 1.3516945453	 0.02377
O	 1.1543790811	 1.2270702914	 2.3572155796	-0.273645
C	-0.1006900794	 0.5590884869	 2.4933374764	-0.086102
C	-0.2204974785	-0.5188407001	 1.3975264387	-0.063092
C	 0.9294406084	-1.4742100454	 1.6513638392	-0.058245
C	 2.1162735968	-0.8650942056	 1.6404449857	-0.067228
N	-0.0075503191	 0.0498651059	 0.030665502	-0.100391
H	-0.2047420941	 2.1878147634	 0.6556615064	 0.134468
H	-0.2677576334	 1.8413010431	-1.1381595809	 0.11413
H	 1.9221712575	 0.4929133577	-0.8773373677	 0.089532
H	 2.9375721468	 1.1605329419	 1.3866268381	 0.081384
H	-0.1749441895	 0.0985240517	 3.487914472	 0.098727
H	-0.9028505845	 1.3027913542	 2.4055972893	 0.102034
H	-1.1989221177	-1.0023394194	 1.4332638553	 0.077595
H	 0.7651459327	-2.523309827	 1.8656079874	 0.100383
H	 3.0714195263	-1.3413840488	 1.826268119	 0.09986
283.8334	333.9578	352.2205	402.497	444.388	536.377	611.4933	632.8132	684.9345	720.2102	740.6066	828.379	859.7456	884.6586	899.6547	940.7046	963.3383	980.9131	993.4757	1025.3819	1043.5632	1074.8873	1087.2311	1098.8366	1108.8319	1146.2805	1156.8263	1220.5378	1265.3891	1290.0823	1297.6031	1309.5451	1332.1248	1370.1148	1382.0489	1395.7359	1498.2362	1526.9459	1670.4384	3004.0016	3039.0633	3087.0731	3103.8268	3112.2369	3125.7914	3189.8654	3213.3748	3222.2187
C1C2C3OCC(C=C3)N12	C1[C@H]2[C@H]3OC[C@H](C=C3)N12	
InChI=1S/C7H9NO/c1-2-7-6-3-8(6)5(1)4-9-7/h1-2,5-7H,3-4H2	InChI=1S/C7H9NO/c1-2-7-6-3-8(6)5(1)4-9-7/h1-2,5-7H,3-4H2/t5-,6-,7-,8?/m0/s1
