18
gdb 126263	1.98623	1.70194	0.98042	2.3411	74.73	-0.1961	0.0456	0.2418	1202.4398	0.148244	-435.290806	-435.281285	-435.28034	-435.324989	34.932	
C	 0.0473880065	 1.6154824527	-0.2155996185	-0.36389
C	 0.0013671106	 0.1194469457	 0.1436915288	-0.330693
C	-1.3746060506	-0.4730451332	 0.0892116537	 0.01927
C	-2.1848055129	-0.8658945893	 1.1382776944	 0.377709
O	-2.0057723889	-0.8892704757	 2.4781891728	-0.432818
N	-3.356719643	-1.2923598273	 0.6302152516	-0.270257
N	-3.3822122563	-1.2223014803	-0.7385576106	-0.322319
C	-2.1953543347	-0.7214967367	-1.0495633008	 0.303333
N	-1.867395222	-0.425218272	-2.3769199083	-0.587618
H	 1.0743271584	 1.9954184722	-0.2006812984	 0.10502
H	-0.3680465018	 1.7802067899	-1.2137711187	 0.139642
H	-0.5473345527	 2.2038568315	 0.4900720026	 0.114926
H	 0.676598604	-0.430497561	-0.5271632564	 0.101701
H	 0.4287853952	-0.026707328	 1.1467844926	 0.075085
H	-1.1331391195	-0.5327560916	 2.6745599078	 0.308457
H	-4.1487104977	-1.6484224583	 1.1341209148	 0.272591
H	-2.5369787417	-0.8416760305	-3.0131229074	 0.248127
H	-0.9298544528	-0.7159934982	-2.6254827301	 0.241733
65.0389	128.7902	189.7589	197.44	242.1417	258.573	268.0577	285.6453	318.029	411.8611	442.4073	534.703	584.7489	664.4268	696.0899	724.3006	761.1148	797.6686	828.922	964.3248	1009.6699	1072.5854	1086.5298	1151.5035	1175.756	1198.235	1263.2019	1298.8338	1352.9014	1371.6416	1408.6738	1461.0763	1483.3268	1495.2923	1510.6782	1536.1977	1596.9648	1636.4709	1661.9411	2990.033	3015.658	3035.7082	3104.9859	3117.9461	3524.9206	3618.9464	3698.9745	3828.848
CCC1=C(O)NN=C1N	CCc1c(O)[nH]nc1N	
InChI=1S/C5H9N3O/c1-2-3-4(6)7-8-5(3)9/h2H2,1H3,(H4,6,7,8,9)	InChI=1S/C5H9N3O/c1-2-3-4(6)7-8-5(3)9/h2H2,1H3,(H4,6,7,8,9)
