18
gdb 54698	3.49965	1.3704	1.30677	3.5593	74.69	-0.238	-0.0174	0.2206	1045.1224	0.147301	-401.893824	-401.885939	-401.884995	-401.926922	29.815	
C	-0.1396215655	 1.5229973209	-0.038437334	-0.487335
C	 0.0400082674	 0.0180535809	 0.0665787562	 0.379591
O	 0.14048077	-0.5514931449	 1.1288453311	-0.298596
C	 0.1094164809	-0.7281813857	-1.2530766373	-0.0444
C	 1.4758589176	-0.8658940255	-1.9802392586	-0.109865
C	 2.3695996242	-1.55931536	-0.9151789663	-0.246372
C	 1.396001372	-2.7286789037	-1.0299252822	-0.016294
C	 0.9432165817	-2.2978540296	-2.3715552299	-0.053269
N	-0.0094008758	-2.2185164243	-1.2249341028	-0.142772
H	 0.5775695411	 1.9552362672	-0.7454847608	 0.13548
H	-1.140856654	 1.7509706201	-0.4228250569	 0.144754
H	-0.0175041114	 1.981304088	 0.9435812513	 0.144365
H	-0.6541555991	-0.3458432706	-1.939829949	 0.089651
H	 1.8666751579	-0.0893916557	-2.6350363619	 0.076469
H	 3.3410690943	-1.8280866677	-1.337762385	 0.107325
H	 2.5005906671	-1.0718188878	 0.0542913166	 0.116903
H	 1.4735109604	-3.7241912626	-0.6151666624	 0.103192
H	 0.7378856112	-2.8058222689	-3.304043208	 0.101171
46.1185	118.4124	153.4772	177.2887	336.6482	394.1332	456.6952	580.984	603.3366	714.481	758.3719	793.2939	823.0663	840.7694	890.7169	915.2439	941.0394	965.3884	973.7548	986.5459	1013.5793	1033.3397	1060.7131	1081.197	1123.83	1137.9842	1168.6349	1200.0267	1209.0615	1218.4562	1252.0427	1285.3932	1337.1261	1372.9011	1385.5879	1462.3767	1475.0912	1496.4603	1809.7346	3032.7413	3049.39	3061.8198	3093.1225	3117.6516	3133.2979	3151.9216	3204.2079	3220.2457
CC(=O)C1C2CC3C2N13	CC(=O)[C@H]1[C@H]2C[C@@H]3[C@H]2N13	
InChI=1S/C7H9NO/c1-3(9)6-4-2-5-7(4)8(5)6/h4-7H,2H2,1H3	InChI=1S/C7H9NO/c1-3(9)6-4-2-5-7(4)8(5)6/h4-7H,2H2,1H3/t4-,5-,6+,7+,8?/m1/s1
