19
gdb 33202	5.65734	0.73551	0.65968	4.5916	79.06	-0.2145	0.0339	0.2484	1692.4545	0.15991	-419.235272	-419.226053	-419.225109	-419.271316	32.302	
C	-0.0636614637	 1.4927839611	-0.034263881	-0.387201
C	 0.0293896285	-0.0226104316	-0.0025020305	-0.022853
O	 0.6463574826	-0.4588743525	-1.1978429949	-0.233164
C	 0.7815531702	-1.8553083404	-1.2740714917	-0.180512
C	 1.4919813955	-2.1887211904	-2.544880285	 0.284065
C	 2.1218369245	-1.4115916799	-3.4809622553	-0.144841
N	 2.6481938938	-2.1889834693	-4.4908231981	-0.254147
C	 2.3436550671	-3.4226753036	-4.1722305012	 0.009271
N	 1.6412311784	-3.4828339757	-3.0006531084	-0.314034
H	 0.9327437666	 1.9364841499	-0.1128747002	 0.130547
H	-0.6545614127	 1.8223856699	-0.8932968804	 0.130759
H	-0.5389724061	 1.8637397998	 0.8785737878	 0.116029
H	 0.614640231	-0.3588154068	 0.8703226871	 0.087783
H	-0.9742599561	-0.4716226468	 0.0907432302	 0.08673
H	 1.3417355567	-2.235824151	-0.398662593	 0.096514
H	-0.2100537865	-2.3461634997	-1.2418446869	 0.091021
H	 2.2169389807	-0.3380549771	-3.4789188497	 0.116569
H	 2.5954226543	-4.3090085893	-4.735416949	 0.126301
H	 1.2915211351	-4.3159945266	-2.55748725	 0.261161
20.1743	68.9333	99.8691	112.944	234.4455	253.7111	271.9106	345.8657	491.0721	498.7984	646.9759	682.2687	738.5144	799.884	822.8862	857.701	908.1771	933.0717	1023.9383	1046.4641	1051.1502	1110.7077	1137.9403	1147.3374	1174.8209	1188.8923	1233.8364	1250.9838	1272.3559	1295.6725	1356.6435	1395.3127	1412.4851	1433.3758	1463.4286	1483.4217	1499.5139	1507.6127	1515.1511	1536.6545	1621.1116	2914.0888	2924.1205	2954.8597	2978.5614	3046.7838	3121.3778	3124.3627	3249.9541	3272.44	3659.7122
CCOCC1=CN=CN1	CCOCc1cnc[nH]1	
InChI=1S/C6H10N2O/c1-2-9-4-6-3-7-5-8-6/h3,5H,2,4H2,1H3,(H,7,8)	InChI=1S/C6H10N2O/c1-2-9-4-6-3-7-5-8-6/h3,5H,2,4H2,1H3,(H,7,8)
