15
gdb 48053	3.24999	1.06086	0.90674	2.3899	68.47	-0.2448	-0.1119	0.1328	1278.2737	0.109414	-457.770783	-457.761681	-457.760737	-457.806364	30.864	
O	-0.5871792994	 1.2517471112	-0.9649917941	-0.201958
C	 0.0874447074	 1.0408540965	 0.0044917832	 0.09293
C	 1.2565077689	 1.9417330688	 0.428633905	 0.211472
O	 2.1897341144	 1.4508973355	 1.0173096294	-0.260489
C	 1.1843349195	 3.4427884851	 0.1017395405	 0.309055
O	 0.0980234823	 3.9808043464	 0.1370301227	-0.309966
C	 2.4646251605	 4.1304070108	-0.1547694982	-0.12228
C	 2.4411562911	 5.254679718	-1.1905731653	-0.248599
C	 2.5626303778	 5.5986546536	 0.2485582282	-0.247931
H	 0.0065593441	 0.1230619209	 0.6252546944	 0.111748
H	 3.354233554	 3.5190919495	-0.080087961	 0.116202
H	 3.3108544448	 5.3390634839	-1.831410263	 0.129177
H	 1.4847860347	 5.4270835443	-1.6713994705	 0.146081
H	 1.6878471219	 6.0032918761	 0.7442818721	 0.145004
H	 3.5195102379	 5.9296497596	 0.6344411967	 0.129554
36.2589	56.3158	96.0969	144.1482	198.1842	238.2156	272.6742	341.8617	501.0079	532.2028	569.2624	735.6423	776.7558	808.3934	822.4926	874.5585	897.9661	983.7209	1034.8609	1070.0171	1097.7735	1109.8125	1129.9139	1210.6217	1218.6786	1246.1005	1375.3664	1413.7015	1457.4419	1487.6701	1772.4631	1796.7723	1830.9811	2916.0986	3142.9661	3146.0911	3205.8212	3231.4426	3246.7035
O=CC(=O)C(=O)C1CC1	O=CC(=O)C(=O)C1CC1	
InChI=1S/C6H6O3/c7-3-5(8)6(9)4-1-2-4/h3-4H,1-2H2	InChI=1S/C6H6O3/c7-3-5(8)6(9)4-1-2-4/h3-4H,1-2H2
