15
gdb 66040	2.43181	1.35015	1.13295	3.5216	70.5	-0.2681	-0.0163	0.2517	1102.6901	0.113411	-412.972455	-412.963822	-412.962877	-413.005866	31.197	
N	-0.0371061446	 1.497562486	-0.0513350054	-0.52831
C	 0.0297379706	 0.0512476889	-0.0524456424	 0.130298
C	 0.1465984341	-0.5281682112	 1.3919990664	-0.186381
N	-1.3182094928	-0.7261820479	 1.4165356709	-0.298459
C	-1.4030717838	-0.6091542344	-0.0496484489	-0.155456
C	-2.5032973216	 0.2023761126	-0.5680978113	 0.321797
N	-3.3599615721	 0.8357348684	-1.0151170083	-0.320712
C	 0.957087522	-0.512710738	-1.0412180874	 0.227412
N	 1.7020374403	-0.9229627844	-1.8250231745	-0.329203
H	 0.8808616672	 1.8942498814	 0.1257850903	 0.250288
H	-0.3549302374	 1.8477557937	-0.950848216	 0.258659
H	 0.7437687352	-1.4467097098	 1.4247088923	 0.123594
H	 0.5140832238	 0.1836558637	 2.1358353931	 0.13306
H	-1.6441745935	-1.6083459935	 1.7926796986	 0.240727
H	-1.3867023874	-1.5626713455	-0.5931691274	 0.132686
85.3045	131.8989	149.131	196.424	246.312	251.2547	355.6882	381.3405	479.0725	512.8297	565.4766	591.226	612.5186	716.1683	843.3811	879.378	935.2389	948.2362	993.7217	1021.3872	1065.1176	1146.5159	1162.5513	1210.0383	1267.7947	1290.6673	1330.9444	1361.2628	1396.2439	1505.7845	1656.4813	2343.2791	2360.8164	3023.9486	3034.4344	3098.5165	3496.9357	3554.2975	3579.9722
NC1(CNC1C#N)C#N	N[C@]1(CN[C@H]1C#N)C#N	
InChI=1S/C5H6N4/c6-1-4-5(8,2-7)3-9-4/h4,9H,3,8H2	InChI=1S/C5H6N4/c6-1-4-5(8,2-7)3-9-4/h4,9H,3,8H2/t4-,5-/m0/s1
