17
gdb 98431	2.66803	1.30251	1.0147	2.5309	66.76	-0.2295	-0.0027	0.2268	1193.6052	0.133009	-496.108481	-496.098936	-496.097992	-496.142944	34.509	
C	-0.0436476527	 1.3499968102	-0.0596540168	-0.244676
O	-0.0680003406	-0.085058059	-0.0143888307	-0.248801
C	-1.2806290701	-0.6385197238	 0.1451749232	 0.425683
O	-2.3067867042	 0.0089831286	 0.2445889357	-0.410648
C	-1.2325133585	-2.1193112069	 0.0989618289	 0.193307
O	 0.0105925266	-2.7419615086	 0.0464774285	-0.452211
C	-2.3027120489	-2.873160921	 0.8685694533	-0.351721
C	-2.4410616664	-2.7742612276	-0.6171279299	 0.083043
O	-3.4345499184	-2.0404383757	-1.233433245	-0.420866
H	 1.0037144127	 1.6226153484	-0.1855827637	 0.139449
H	-0.6414400404	 1.7170586066	-0.8972072614	 0.146848
H	-0.4403308438	 1.7672613808	 0.8685106307	 0.148754
H	 0.5365971969	-2.2988088694	-0.6285920069	 0.289999
H	-1.9766039211	-3.8142416457	 1.2972089418	 0.136004
H	-2.9677604542	-2.2743159151	 1.4812463456	 0.137387
H	-2.167572523	-3.6478889969	-1.199779408	 0.124131
H	-3.4990583336	-1.1922000249	-0.7651696653	 0.304318
69.7778	102.2714	154.2013	170.2419	214.953	250.291	276.8743	344.856	348.3542	445.0537	472.3272	490.9866	528.0483	571.9455	765.275	799.1074	837.5804	867.7883	933.9053	970.7243	1017.7179	1059.8251	1100.7533	1144.18	1178.3074	1198.9128	1223.7474	1240.1242	1324.2626	1370.2129	1395.5574	1434.5417	1473.6679	1479.474	1481.4416	1496.3431	1760.5257	3057.3055	3135.2948	3136.1769	3165.9773	3176.1402	3235.6689	3676.3249	3807.1385
COC(=O)C1(O)CC1O	COC(=O)[C@@]1(O)C[C@H]1O	
InChI=1S/C5H8O4/c1-9-4(7)5(8)2-3(5)6/h3,6,8H,2H2,1H3	InChI=1S/C5H8O4/c1-9-4(7)5(8)2-3(5)6/h3,6,8H,2H2,1H3/t3-,5-/m1/s1
