19
gdb 89454	2.32352	1.55764	1.39803	2.2583	70.9	-0.2396	0.055	0.2946	1044.2561	0.157178	-460.131865	-460.122789	-460.121845	-460.165558	34.312	
C	-0.4940320776	 1.4647420223	 0.044638961	-0.471182
C	 0.0025323008	 0.0462249577	-0.001322526	 0.364477
C	 1.1372244566	-0.3689469622	-0.978217201	-0.32233
C	 1.8370937846	-1.1751258755	 0.1511592877	 0.062251
O	 3.102240262	-0.6812790054	 0.5777643746	-0.445764
C	 0.7132145877	-0.7617330335	 1.153957412	 0.291469
O	 1.1395032902	-0.292533624	 2.3795041686	-0.468159
C	-0.5325428371	-1.6473505734	 1.1205887321	-0.132596
O	-1.0658140227	-0.9339860286	-0.0204598353	-0.332027
H	 0.3395338204	 2.1684289888	 0.1384177546	 0.109784
H	-1.0458195491	 1.7091795889	-0.8703713072	 0.127779
H	-1.1643054816	 1.6090041357	 0.8965940593	 0.133396
H	 0.8022817733	-0.9430591916	-1.8439550792	 0.119949
H	 1.747692531	 0.4727914493	-1.3281705412	 0.090629
H	 1.9477744848	-2.2516417909	-0.0122887418	 0.088313
H	 3.2831801161	 0.1444695086	 0.1184102625	 0.290171
H	 2.0992888599	-0.1796099027	 2.2896798252	 0.28533
H	-0.3877171027	-2.7168802061	 0.9201799555	 0.097294
H	-1.1652258664	-1.5243826175	 2.0082389085	 0.111216
62.4433	127.2773	176.476	193.1219	227.8678	293.1212	328.8697	357.1117	422.7007	476.1501	511.9447	574.7501	607.889	691.1962	736.1576	817.3401	867.6267	882.7592	922.0517	947.108	999.2931	1040.1514	1058.8735	1090.1933	1122.458	1150.5929	1159.98	1188.2484	1221.5679	1253.5331	1291.3977	1307.0268	1318.8063	1357.1445	1393.7995	1408.6454	1432.864	1455.9475	1479.3045	1488.3693	1515.0109	3010.0177	3027.9469	3032.9269	3057.1311	3060.6665	3097.5241	3115.6701	3119.7721	3688.4472	3825.8162
CC12CC(O)C1(O)CO2	C[C@@]12C[C@@H](O)[C@]1(O)CO2	
InChI=1S/C6H10O3/c1-5-2-4(7)6(5,8)3-9-5/h4,7-8H,2-3H2,1H3	InChI=1S/C6H10O3/c1-5-2-4(7)6(5,8)3-9-5/h4,7-8H,2-3H2,1H3/t4-,5-,6-/m1/s1
