22
gdb 94614	3.39719	0.98394	0.8424	1.9667	82.8	-0.2291	0.0794	0.3085	1448.0747	0.193749	-404.295374	-404.285931	-404.284986	-404.330766	34.513	
C	-0.5313537493	 1.297262335	-0.2095592838	-0.410672
C	 0.0523468417	-0.1012409883	-0.0533561719	-0.050578
C	 1.4840791585	-0.3429674774	-0.5802562113	-0.075778
O	 1.9424142628	-0.7884466852	 0.7109335158	-0.292542
C	 0.6443920759	-0.5499559252	 1.3139058437	 0.142282
C	 0.710214897	 0.4508363518	 2.457225807	-0.165474
N	 1.2927820701	-0.169688243	 3.6401166479	-0.070363
C	 2.7527287434	-0.1749040702	 3.7103780186	-0.204767
C	 1.9536282146	 0.7262231056	 4.5841919635	-0.228293
H	 0.158309946	 2.0697226609	 0.1443520619	 0.121083
H	-0.745520986	 1.504106877	-1.2637517955	 0.117405
H	-1.4709832714	 1.4050390198	 0.3424077473	 0.121085
H	-0.6586477986	-0.8375615626	-0.4374818341	 0.082101
H	 1.5958471382	-1.1196934446	-1.3467040333	 0.099423
H	 2.0128729316	 0.5604308056	-0.9152117199	 0.093636
H	 0.2244831666	-1.4872866937	 1.7000072477	 0.084381
H	 1.272156146	 1.3443831396	 2.1319071948	 0.08017
H	-0.3084054649	 0.7732274112	 2.7105198745	 0.100742
H	 3.1980903311	-1.0799270808	 4.1128732916	 0.11486
H	 3.2985935406	 0.2715234972	 2.8836018709	 0.122397
H	 1.9704479422	 1.7904672473	 4.3526144644	 0.104925
H	 1.807079484	 0.4940748199	 5.6353167902	 0.113977
43.9249	69.4472	96.7181	133.019	214.623	243.7532	331.0636	361.709	371.2646	461.2979	509.8239	725.1448	768.7488	831.0139	845.3907	883.7171	903.3179	914.2116	932.5101	1000.4927	1020.0216	1027.3167	1048.5423	1072.6215	1112.9894	1115.6866	1128.967	1144.2549	1160.7527	1170.8747	1183.6734	1196.8812	1265.1678	1268.3582	1294.4288	1320.1008	1334.18	1365.2285	1387.0879	1411.674	1414.901	1475.0597	1495.532	1497.6095	1498.4037	1523.8816	1530.3937	2941.7511	2999.4024	3025.2139	3032.2507	3040.8431	3042.5357	3069.4706	3092.1823	3095.3074	3108.16	3114.7206	3177.4591	3201.0675
CC1COC1CN1CC1	C[C@H]1CO[C@H]1CN1CC1	
InChI=1S/C7H13NO/c1-6-5-9-7(6)4-8-2-3-8/h6-7H,2-5H2,1H3	InChI=1S/C7H13NO/c1-6-5-9-7(6)4-8-2-3-8/h6-7H,2-5H2,1H3/t6-,7-/m0/s1
