15
gdb 97702	3.09046	0.78447	0.67946	2.257	78.45	-0.2614	-0.0098	0.2516	1623.2941	0.108811	-420.518885	-420.50928	-420.508336	-420.554843	33.63	
O	 0.4084714039	 0.7853105365	-0.8191519272	-0.398144
C	-0.0118527965	 0.0458655258	 0.3173173831	-0.202971
C	-1.3736614751	-0.47595954	 0.2062166227	 0.100788
C	-2.5061659499	-0.8713486373	 0.0969062123	-0.016391
C	-3.863561514	-1.3438056412	-0.0265733181	 0.122863
C	-4.3496548001	-1.8239547549	-1.3495899827	-0.204896
O	-4.0171622493	-2.7506000736	-0.3335676891	-0.251767
C	-4.8148109799	-0.8090205062	 0.920048406	 0.26846
C	-5.6004424205	-0.3520432786	 1.7052405431	-0.449858
H	-0.2377074002	 1.4839774464	-0.9662206616	 0.289492
H	 0.695660561	-0.785146412	 0.4124231411	 0.149291
H	 0.0709026797	 0.640223798	 1.2410022618	 0.125411
H	-5.4097282962	-1.7243276448	-1.5762426754	 0.130841
H	-3.6666709457	-1.7791555084	-2.1960534819	 0.131756
H	-6.2942469874	 0.0459614402	 2.404197066	 0.205125
26.4775	78.2314	96.5452	172.0395	215.276	231.4488	275.4231	348.5454	413.4921	479.507	521.4337	562.1398	593.4623	627.5011	630.5211	665.2988	810.7873	858.3791	942.8452	978.9018	1022.4444	1067.6619	1137.4968	1168.1389	1214.6745	1274.1546	1326.3671	1362.3874	1415.7778	1486.3095	1511.5789	2245.3131	2360.9327	2982.4475	3067.587	3087.5839	3186.1684	3501.2528	3816.0694
OCC#CC1(CO1)C#C	OCC#C[C@]1(CO1)C#C	
InChI=1S/C7H6O2/c1-2-7(6-9-7)4-3-5-8/h1,8H,5-6H2	InChI=1S/C7H6O2/c1-2-7(6-9-7)4-3-5-8/h1,8H,5-6H2/t7-/m0/s1
