18
gdb 119757	4.80628	0.80414	0.69845	7.4886	78.67	-0.2245	-0.0064	0.218	1586.439	0.147833	-439.14267	-439.133632	-439.132688	-439.17725	32.447	
C	-0.0346771295	 1.5819190414	-0.0974123827	-0.410489
C	 0.0687739533	 0.0666910446	 0.0333898102	-0.110909
N	 0.6444538663	-0.5206298253	-1.1672243304	-0.382884
C	 0.7652975397	-1.8559640231	-1.3361420983	 0.39544
C	 0.3034863262	-2.8871918834	-0.5940432251	-0.42968
C	 0.6782822125	-4.1401765142	-1.2425283031	 0.46435
O	 0.4769343259	-5.2807793451	-0.9322124976	-0.365349
O	 1.3893057224	-3.8295018023	-2.4044075355	-0.241035
C	 1.4844830222	-2.4253755735	-2.5382416053	-0.16835
H	 0.9535612201	 2.0356883274	-0.2331683763	 0.124529
H	-0.6619365757	 1.8610997706	-0.9493777601	 0.134025
H	-0.4739951241	 2.0108063199	 0.8064808175	 0.136344
H	 0.6672898303	-0.2011768639	 0.9168999398	 0.116103
H	-0.9270182863	-0.368036727	 0.1821757574	 0.128005
H	 1.2193530907	 0.0799026784	-1.7369722436	 0.245414
H	-0.2491845011	-2.8619488497	 0.3308561189	 0.111613
H	 1.0165394018	-2.1064989651	-3.4790304951	 0.12941
H	 2.5410003055	-2.1245970297	-2.5634282207	 0.123465
48.1147	102.9509	125.7725	177.5798	223.4657	262.1335	316.6742	331.3854	404.6949	524.9242	546.2456	675.0252	719.3054	739.9136	806.5245	821.9378	875.0646	917.1483	952.5369	1030.9295	1067.2607	1091.9142	1146.3489	1162.6361	1172.4219	1207.4871	1284.2082	1289.4677	1303.9058	1370.4554	1398.4784	1418.7668	1493.5158	1500.2305	1501.0561	1527.5217	1542.8029	1687.3885	1870.6653	2994.2385	3009.0734	3037.1585	3042.6105	3046.9758	3106.4688	3127.1424	3265.8546	3622.7021
CCNC1=CC(=O)OC1	CCNC1=CC(=O)OC1	
InChI=1S/C6H9NO2/c1-2-7-5-3-6(8)9-4-5/h3,7H,2,4H2,1H3	InChI=1S/C6H9NO2/c1-2-7-5-3-6(8)9-4-5/h3,7H,2,4H2,1H3
