18
gdb 112458	3.66537	1.06612	0.86783	2.3649	73.97	-0.2771	-0.028	0.2491	1325.2169	0.147935	-439.14097	-439.132508	-439.131564	-439.174485	31.207	
C	-0.0425304677	 1.5695122183	 0.0835563544	-0.38936
C	 0.0534243131	 0.043833434	 0.036837368	-0.176469
C	 0.634414269	-0.4837988744	-1.2807076132	 0.034575
C	 0.8516659773	-2.0047550667	-1.2472080727	-0.36756
C	 1.2573722909	-2.5331683509	-2.6013737669	 0.425364
O	 2.0433797956	-3.4016740575	-2.8277414679	-0.29758
O	 0.5930327197	-1.9405640108	-3.6629681807	-0.215628
C	-0.1979558083	-0.8339441066	-3.4278880318	 0.131932
N	-0.2329762763	-0.1114131195	-2.3999652509	-0.242357
H	 0.9486381114	 2.0303602537	 0.0060804275	 0.112564
H	-0.6520604135	 1.9415646797	-0.7435575621	 0.142144
H	-0.4926764466	 1.9039767889	 1.0227594592	 0.113833
H	 0.6792082953	-0.3211402347	 0.8606700788	 0.097701
H	-0.9408564322	-0.3992739473	 0.1751369573	 0.102962
H	 1.6037315612	 0.0114090897	-1.4486649733	 0.101423
H	 1.6065169265	-2.3094987202	-0.5205602704	 0.141143
H	-0.0935907567	-2.4939392663	-0.9736451494	 0.141427
H	-0.8048947686	-0.6279947593	-4.305326906	 0.143886
82.9939	111.9408	134.2286	188.1994	237.4257	345.4578	365.9805	437.2607	472.2986	560.3487	574.5208	656.72	765.1535	795.1447	824.1816	901.327	936.1593	960.6761	981.9124	1025.8563	1068.4432	1098.1435	1136.6142	1146.6858	1155.5978	1232.0213	1278.5348	1296.3545	1343.4202	1365.1872	1385.0342	1406.7576	1410.4197	1459.1989	1481.6514	1495.7275	1510.2808	1742.2759	1887.3268	2985.2224	3023.9793	3029.6472	3037.6674	3063.2049	3103.3559	3124.6488	3128.2091	3182.7134
CCC1CC(=O)OC=N1	CC[C@H]1CC(=O)OC=N1	
InChI=1S/C6H9NO2/c1-2-5-3-6(8)9-4-7-5/h4-5H,2-3H2,1H3	InChI=1S/C6H9NO2/c1-2-5-3-6(8)9-4-7-5/h4-5H,2-3H2,1H3/t5-/m0/s1
