20
gdb 92197	3.23034	1.60175	1.35512	1.5608	79.04	-0.2203	0.0744	0.2946	1013.8273	0.172594	-403.061498	-403.05424	-403.053295	-403.092734	30.199	
C	-0.0116161734	 1.5747815036	-0.116372277	-0.330749
N	 0.0765502108	 0.1335040663	 0.0109515278	-0.190908
C	 1.0652128797	-0.6119331683	-0.8499102095	-0.259084
C	 1.1514903659	-1.625593118	 0.3398123759	 0.120063
O	 2.2231961109	-2.1789209687	 1.1050576193	-0.299031
C	 2.0615500228	-1.3856441652	 2.3190964794	 0.101365
C	 2.1073790088	 0.0420998742	 1.7566283706	-0.277023
C	 0.7253965153	-0.4500504809	 1.1860191454	 0.326827
C	 0.5071688345	-1.1614039962	 2.5518271437	-0.332327
H	 0.9599268051	 2.0866184265	 0.0011287425	 0.097105
H	-0.4141813757	 1.832323939	-1.1013913074	 0.122137
H	-0.7004596086	 1.966739373	 0.6389626066	 0.123264
H	 0.6535575113	-0.9769657126	-1.7943008432	 0.106379
H	 1.9883764682	-0.0474572121	-1.0339513572	 0.101997
H	 0.3700569687	-2.3800601573	 0.2090700262	 0.089641
H	 2.7191518927	-1.7614921984	 3.1000438424	 0.089144
H	 1.9870278754	 0.823956732	 2.5091834911	 0.097862
H	 2.9315920868	 0.2670024955	 1.0786032552	 0.103644
H	-0.1499479003	-2.0332712006	 2.5671234616	 0.107117
H	 0.3370276112	-0.5210744619	 3.4197639267	 0.102576
162.9959	196.5596	227.2782	314.2485	404.8238	445.6652	490.2954	526.2783	576.4544	623.3568	646.5698	787.726	798.0745	856.0638	870.5481	910.5513	928.6419	949.0292	990.9137	1018.2356	1023.319	1055.2732	1086.2024	1105.0228	1121.6045	1126.9545	1151.7277	1170.5819	1181.6532	1209.8898	1223.4688	1230.4021	1246.8731	1288.1743	1312.9457	1315.4767	1394.1498	1448.0242	1474.1934	1484.9766	1499.2088	1508.2956	1515.0732	2950.2933	3021.0598	3053.838	3062.0226	3068.4417	3076.6324	3098.0064	3102.1887	3136.7593	3141.7186	3151.2035
CN1CC2OC3CC12C3	CN1C[C@H]2O[C@H]3C[C@@]12C3	
InChI=1S/C7H11NO/c1-8-4-6-7(8)2-5(3-7)9-6/h5-6H,2-4H2,1H3	InChI=1S/C7H11NO/c1-8-4-6-7(8)2-5(3-7)9-6/h5-6H,2-4H2,1H3/t5-,6-,7-/m1/s1
