19
gdb 88092	3.2432	1.25291	1.16701	2.8868	74.72	-0.2366	0.0691	0.3057	1125.733	0.159105	-422.997026	-422.98861	-422.987666	-423.030846	31.816	
O	 0.1310796718	 1.3558706397	-0.1179291104	-0.423614
C	 0.0193423973	-0.0360550685	-0.0453376168	 0.093858
C	-0.3715802727	-0.7588589421	 1.2153007681	-0.398471
C	-1.3144589886	-0.725974409	 0.0158708466	 0.30393
C	-2.6303814921	 0.0623255244	 0.0456048244	-0.314887
C	-3.7466015248	-1.0087154124	-0.0768993057	-0.246088
C	-3.0754048617	-2.1675160304	-0.789992687	 0.046942
O	-2.3344175029	-1.7769533671	-1.9544320131	-0.266013
C	-1.6189466267	-1.9925362729	-0.725056216	-0.033945
H	-0.5128215609	 1.7519272182	 0.4770829179	 0.285569
H	 0.7913167233	-0.484647866	-0.6626995349	 0.110173
H	 0.1344636121	-1.6861278537	 1.4678435708	 0.11413
H	-0.6526710007	-0.1608094194	 2.0781624108	 0.107487
H	-2.7485587168	 0.6674526076	 0.9493005462	 0.090925
H	-2.6664531848	 0.7382239775	-0.8133400876	 0.129742
H	-4.0787639061	-1.3506782777	 0.9106405186	 0.10521
H	-4.6260376466	-0.6350167122	-0.6096716967	 0.111236
H	-3.5544977843	-3.1420852905	-0.845904122	 0.092585
H	-0.9130748747	-2.8199179356	-0.7304690633	 0.09123
39.5851	91.6204	150.7292	198.0077	289.9015	363.1588	378.8972	452.4245	499.1945	597.1957	672.8839	759.8387	824.1277	826.0597	838.8313	874.2991	907.1236	921.5568	931.2896	988.3875	1002.2891	1032.3438	1038.0415	1077.383	1094.4126	1113.6037	1137.2368	1190.5341	1211.6894	1253.5232	1256.3308	1294.2288	1307.4812	1318.1377	1338.1074	1371.3715	1429.9889	1442.3007	1478.8196	1487.4432	1493.1524	3039.3617	3053.3729	3084.4164	3100.5591	3111.3768	3136.4425	3148.9155	3162.9204	3197.181	3830.727
OC1CC11CCC2OC12	O[C@H]1C[C@]21CC[C@H]1O[C@@H]21	
InChI=1S/C7H10O2/c8-5-3-7(5)2-1-4-6(7)9-4/h4-6,8H,1-3H2	InChI=1S/C7H10O2/c8-5-3-7(5)2-1-4-6(7)9-4/h4-6,8H,1-3H2/t4-,5+,6-,7+/m1/s1
