20
gdb 78103	2.61901	1.28659	1.03632	3.0272	80.09	-0.2366	-0.0232	0.2133	1231.1643	0.16885	-403.120886	-403.111579	-403.110635	-403.15502	34.457	
C	-0.2301902824	 1.5239238036	-0.0142328119	-0.427379
C	-0.0046787844	 0.0408557557	 0.1640129364	-0.014914
N	 1.1925114123	-0.6963619447	-0.3187454333	-0.21464
C	 2.3936233164	 0.1687338701	-0.0280152943	-0.030336
C	 2.1070559909	 0.2077534454	 1.4831871673	-0.336605
C	 0.8522287181	-0.6181596633	 1.1776699964	 0.332016
C	 0.4258681176	-1.8172901993	 1.9726311831	-0.490419
C	 3.6316386675	-0.5924389988	-0.4518913165	 0.149498
O	 4.5625168214	-0.8516040619	 0.2658346355	-0.241227
H	 0.5948335429	 2.1395140879	 0.3505926654	 0.124949
H	-0.3912817606	 1.7641552287	-1.0709900577	 0.129531
H	-1.1291534927	 1.8252530201	 0.533550785	 0.126546
H	-0.8884489346	-0.5444741871	-0.0876961728	 0.095385
H	 2.3901219112	 1.1218211952	-0.575060973	 0.091214
H	 2.8639965758	-0.3472642048	 2.040187372	 0.134413
H	 1.9608464712	 1.1820853399	 1.9565941124	 0.10278
H	-0.0087943301	-1.5096125311	 2.931370876	 0.122981
H	-0.325863793	-2.3984980594	 1.430831382	 0.12815
H	 1.2766848282	-2.4731349765	 2.1853395323	 0.129138
H	 3.6049489041	-0.9151036096	-1.5159805345	 0.088921
64.3677	131.8793	165.8152	180.158	201.0147	227.309	299.203	328.7829	348.3671	455.089	539.5653	609.53	650.9865	700.4362	760.2109	841.0488	861.2659	906.6323	938.6635	976.8988	998.0787	1045.9617	1063.6879	1086.1611	1113.3265	1137.2502	1157.8316	1171.4463	1220.2984	1242.341	1304.4547	1333.4103	1350.9626	1411.385	1412.2154	1413.2127	1456.8668	1480.3736	1491.0869	1491.9819	1504.2176	1509.2577	1832.7539	2897.0965	3011.5811	3027.1582	3037.8852	3066.2023	3089.7279	3096.6858	3107.7501	3112.152	3126.4675	3128.0308
CC1N2C(CC12C)C=O	C[C@H]1N2[C@@H](C[C@@]12C)C=O	
InChI=1S/C7H11NO/c1-5-7(2)3-6(4-9)8(5)7/h4-6H,3H2,1-2H3	InChI=1S/C7H11NO/c1-5-7(2)3-6(4-9)8(5)7/h4-6H,3H2,1-2H3/t5-,6+,7+,8?/m1/s1
