21
gdb 102170	1.93101	1.23887	0.94584	5.7197	79.65	-0.2137	0.0445	0.2582	1346.8468	0.180352	-420.3975	-420.386593	-420.385649	-420.434196	38.342	
C	 0.099914863	 1.5771812685	-0.1570181235	-0.315987
N	-0.0177898123	 0.1351111247	 0.0097046574	-0.036933
C	 0.8796091283	-0.369819655	 1.0328324591	-0.326415
C	-1.3651725852	-0.4190458376	 0.0827570197	 0.036373
C	-2.2902423086	 0.1499906396	 1.1760003687	-0.115272
O	-2.7578410861	 1.4277389483	 0.7701413759	-0.410608
C	-2.0761561641	-0.3455237541	-1.2904971296	-0.362551
C	-1.3326928662	-1.0325033135	-2.3423357742	 0.273559
N	-0.766351288	-1.5921345462	-3.1796607476	-0.315391
H	 1.1379301229	 1.8150302795	-0.4125290129	 0.117624
H	-0.5321985413	 1.9256826118	-0.976035295	 0.12356
H	-0.1744389364	 2.1535729002	 0.7418432213	 0.098585
H	 0.6539212723	-0.0058501058	 2.0536397123	 0.089988
H	 0.8531857038	-1.4639347911	 1.0487011467	 0.122256
H	 1.9037158161	-0.062131437	 0.7983590306	 0.124879
H	-1.2369149862	-1.4814387739	 0.3214636204	 0.095834
H	-3.1298436246	-0.5471137162	 1.330033559	 0.092725
H	-1.7326160934	 0.2082513298	 2.1225709724	 0.100419
H	-3.3107865219	 1.7890063375	 1.4687006191	 0.294417
H	-3.0697502899	-0.8002309991	-1.2094303342	 0.145198
H	-2.2411399524	 0.6954998399	-1.5784292556	 0.167741
31.3616	81.0433	106.7637	145.447	210.1877	230.6165	234.713	249.359	261.3255	293.5768	365.8897	395.0548	416.7709	438.7145	579.3568	651.2324	753.3607	886.7362	921.3387	954.0019	1000.133	1051.1973	1073.5141	1102.2909	1121.4222	1127.6677	1183.6039	1188.4247	1204.3763	1261.1881	1281.4133	1300.7443	1329.771	1365.0547	1408.9805	1444.4846	1446.8791	1461.8185	1475.4955	1482.6492	1492.5265	1500.0845	1512.319	1519.0835	2364.8536	2919.2063	2967.9423	2968.892	3009.8965	3041.6257	3056.4976	3058.6579	3064.6391	3102.249	3110.3618	3123.1457	3835.2227
CN(C)C(CO)CC#N	CN(C)[C@@H](CO)CC#N	
InChI=1S/C6H12N2O/c1-8(2)6(5-9)3-4-7/h6,9H,3,5H2,1-2H3	InChI=1S/C6H12N2O/c1-8(2)6(5-9)3-4-7/h6,9H,3,5H2,1-2H3/t6-/m1/s1
