16
gdb 18835	4.07564	2.29969	1.9329	1.9416	62.81	-0.2173	0.07	0.2873	738.3873	0.13137	-383.690926	-383.684764	-383.683819	-383.720906	24.906	
C	 0.0080969169	 1.5459121332	-0.00094649	-0.404447
C	 0.0376395266	 0.0279638223	 0.0278290392	 0.147182
O	 0.7716446323	-0.4594868054	-1.1165722641	-0.279149
C	 1.5466020967	-1.5503600619	-0.6908230706	 0.077377
C	 2.5304194254	-1.3132897173	 0.4447017735	 0.061483
O	 2.1763905389	-0.112743245	 1.1312473058	-0.296583
C	 0.7932111915	-0.5890960397	 1.2037459878	 0.047647
C	 1.2062000519	-1.9921966138	 0.7036371005	-0.20635
H	 1.0222117535	 1.9370724929	 0.1028313776	 0.14346
H	-0.4135791783	 1.8973247159	-0.9461575524	 0.126806
H	-0.6117670385	 1.9317206496	 0.8151372694	 0.109852
H	-0.9870686702	-0.3799444797	-0.0017289047	 0.069112
H	 1.7837576479	-2.2605100341	-1.4739895976	 0.108183
H	 3.5591433857	-1.6513149444	 0.4957442546	 0.106564
H	 0.3576587335	-0.4559524514	 2.194679577	 0.087123
H	 0.9096260364	-2.9665116911	 1.0660752541	 0.10174
165.706	236.5599	276.3825	391.6987	515.8926	550.2664	662.7162	734.4548	773.1394	802.5343	830.9928	834.4018	882.3684	895.5033	953.1433	1010.4744	1015.3688	1035.6048	1043.5758	1076.8257	1093.4446	1107.8739	1123.382	1150.8195	1214.6452	1241.0691	1264.472	1305.3625	1354.5371	1374.9178	1399.2196	1404.2513	1486.4627	1500.3585	2959.9382	3045.7171	3112.9908	3116.1375	3141.95	3178.504	3192.1124	3208.7965
CC1OC2C3OC1C23	C[C@H]1O[C@H]2[C@H]3O[C@@H]1[C@@H]23	
InChI=1S/C6H8O2/c1-2-4-3-5(7-2)6(3)8-4/h2-6H,1H3	InChI=1S/C6H8O2/c1-2-4-3-5(7-2)6(3)8-4/h2-6H,1H3/t2-,3+,4+,5-,6+/m1/s1
