20
gdb 105941	4.14714	1.30895	1.23744	1.627	81.76	-0.214	0.0825	0.2964	1103.0439	0.172334	-365.922408	-365.914979	-365.914035	-365.954369	29.914	
C	-0.3178936059	 1.4878002482	 0.0211112031	-0.373135
C	 0.1005174167	 0.0117451767	 0.0609196096	-0.335262
C	 0.8051401372	-0.4339549614	-1.1817924328	 0.369292
C	 1.1038968124	-1.804569566	-1.7759134771	-0.165964
C	 0.3249011737	-0.7445206756	-2.5709943713	-0.083824
N	 1.3927612501	 0.0209666789	-3.2834578453	-0.152967
C	 2.3768543115	-1.0371121033	-3.7277573583	-0.17889
C	 2.5283937482	-1.4270067308	-2.2452923198	-0.075485
C	 2.0938467475	 0.0399219296	-1.9081194803	-0.077263
H	 0.5525800355	 2.1407982822	-0.1009403043	 0.119469
H	-0.9957987249	 1.6811993784	-0.8159572089	 0.124995
H	-0.8255680681	 1.7773211427	 0.9461920338	 0.1106
H	 0.7450455147	-0.1657463787	 0.9325111124	 0.100674
H	-0.7845426522	-0.621193732	 0.2072530216	 0.101516
H	 0.696139804	-2.7703926205	-1.5084656062	 0.085539
H	-0.6735653505	-0.8803608812	-2.9673652166	 0.086606
H	 1.9856658176	-1.7712693832	-4.4388146731	 0.099116
H	 3.2663846915	-0.5498656574	-4.139003951	 0.103686
H	 3.3887282998	-1.9436338187	-1.8207229492	 0.06669
H	 2.7523159212	 0.8738243521	-1.6694791762	 0.074605
85.4609	135.0625	189.3823	287.6349	351.0925	447.1766	560.5796	602.8357	735.647	765.0114	785.3073	811.8978	828.1261	842.2307	856.4334	885.8073	900.06	922.3004	953.9884	971.6979	995.1631	1025.7703	1034.7126	1050.4821	1064.5061	1101.5913	1133.1935	1155.3689	1164.9372	1187.1275	1208.4208	1220.1645	1230.7775	1255.1295	1294.334	1311.5656	1354.2018	1410.374	1456.9933	1479.0492	1495.3915	1498.4815	1507.1018	3011.4199	3036.8466	3043.1302	3044.8929	3104.1204	3105.0608	3111.1291	3115.8383	3127.091	3188.8492	3205.1522
CCC12C3C1N1CC3C21	CC[C@@]12[C@H]3[C@@H]1N1C[C@H]3[C@H]21	
InChI=1S/C8H11N/c1-2-8-5-4-3-9(6(4)8)7(5)8/h4-7H,2-3H2,1H3	InChI=1S/C8H11N/c1-2-8-5-4-3-9(6(4)8)7(5)8/h4-7H,2-3H2,1H3/t4-,5-,6-,7+,8+/m1/s1
