17
gdb 26698	2.26665	1.61543	0.9551	1.6922	73.16	-0.1707	0.0521	0.2228	1192.6843	0.135468	-455.169563	-455.159942	-455.158998	-455.203459	35.365	
C	-0.0001015178	 1.5897513629	 0.034312494	-0.521401
C	 0.0160469571	 0.0947499876	 0.0372309453	 0.098035
C	 0.045682588	-0.7463193412	-1.0289406918	 0.322824
O	 0.0348558152	-0.4692039082	-2.3478749266	-0.433197
O	 0.0804434634	-2.0448528076	-0.6790154782	-0.230895
C	 0.0557997255	-2.0691852675	 0.7329671517	 0.185918
N	 0.1017259301	-3.2790175855	 1.4144659735	-0.600305
C	 0.0254893961	-0.7869073042	 1.1843008333	 0.144116
N	 0.0891896919	-0.3689326518	 2.5183545197	-0.612228
H	 0.8057451593	 1.9990594618	 0.6549614795	 0.129973
H	 0.1281344017	 1.9740455713	-0.9808726127	 0.135345
H	-0.9431888601	 1.9992786389	 0.4206704648	 0.114954
H	 0.1559740832	-1.2986003603	-2.8240404571	 0.302867
H	-0.6626888981	-3.9062433145	 1.1847568804	 0.238615
H	 0.9754519128	-3.7851149506	 1.3027491782	 0.239318
H	-0.0703753578	-1.1453118149	 3.1497533876	 0.245978
H	-0.5569009602	 0.3824414337	 2.7273140883	 0.240084
104.0491	138.665	187.4049	210.6057	222.1698	251.2345	262.6839	301.8269	329.8813	332.1274	390.9056	542.0717	613.3962	622.2375	637.8816	689.1172	727.9768	767.3256	798.7004	881.7774	980.9535	1066.4883	1100.5569	1116.8168	1200.4563	1208.432	1266.6686	1336.9231	1381.9497	1419.6231	1473.5189	1484.4978	1505.53	1637.0891	1654.095	1710.9548	1755.0126	3011.0035	3059.0544	3114.7683	3476.8612	3519.4887	3537.3814	3612.5852	3820.7255
CC1=C(O)OC(N)=C1N	Cc1c(O)oc(N)c1N	
InChI=1S/C5H8N2O2/c1-2-3(6)4(7)9-5(2)8/h8H,6-7H2,1H3	InChI=1S/C5H8N2O2/c1-2-3(6)4(7)9-5(2)8/h8H,6-7H2,1H3
