19
gdb 40127	2.83253	1.64694	1.28783	2.1207	80.5	-0.228	0.0141	0.2421	1029.7681	0.162344	-382.02843	-382.021127	-382.020183	-382.05993	29.944	
C	-0.0940587915	 1.4930252973	-0.0194708756	-0.292116
N	 1.2120702964	 0.8054158385	-0.0099746845	-0.351992
C	-0.0341011874	 0.0112146118	 0.0137465935	 0.384522
C	-0.2884107457	-0.7425423623	 1.3133060554	-0.337106
C	 0.1492250052	-2.1849926554	 1.2336974078	-0.076515
C	 0.1677177468	-2.8674902732	 0.088407949	-0.020808
C	-0.2447713821	-2.2378095505	-1.1912582821	-0.083898
N	-1.5833655533	-1.579705602	-1.2040463719	-0.342812
C	-0.3701728758	-0.7514340195	-1.2320966361	-0.127998
H	-0.3234358589	 2.0476373909	 0.8869817902	 0.1159
H	-0.4292737425	 1.9739512582	-0.9356251547	 0.105716
H	 1.6123101255	 0.8063139208	-0.9462174184	 0.223336
H	 0.2392650945	-0.2255034198	 2.1201831534	 0.113234
H	-1.359979915	-0.7009818834	 1.5490230516	 0.127641
H	 0.4372726135	-2.6711326424	 2.1614830662	 0.09082
H	 0.4819350881	-3.9065862709	 0.0621479589	 0.085078
H	 0.0606048985	-2.7413833832	-2.1042523002	 0.083924
H	-1.9821452432	-1.6332553001	-2.1383135586	 0.231205
H	-0.1177504031	-0.2435225047	-2.162704464	 0.07187
102.921	209.8008	284.8965	298.1751	360.8344	413.4886	500.4965	529.0553	545.982	694.0648	715.1483	808.4729	813.2751	843.6795	892.0608	905.2166	924.9608	947.4821	955.4209	981.7875	984.001	1000.2539	1012.1831	1073.4138	1096.2597	1134.8619	1154.474	1182.247	1199.401	1231.0604	1251.3302	1262.8946	1310.6188	1330.1259	1376.8287	1397.8565	1432.5498	1455.6854	1470.1058	1514.0426	1712.527	3023.5378	3082.9135	3098.8305	3103.6348	3143.3335	3158.8161	3181.4701	3181.7964	3480.144	3496.2087
C1NC11CC=CC2NC12	C1N[C@]21CC=C[C@H]1N[C@@H]21	
InChI=1S/C7H10N2/c1-2-5-6(9-5)7(3-1)4-8-7/h1-2,5-6,8-9H,3-4H2	InChI=1S/C7H10N2/c1-2-5-6(9-5)7(3-1)4-8-7/h1-2,5-6,8-9H,3-4H2/t5-,6-,7+/m1/s1
