24
gdb 116675	1.79487	0.99251	0.68214	2.6535	91.14	-0.247	0.0233	0.2703	1762.6575	0.214117	-405.555869	-405.544065	-405.54312	-405.594232	40.706	
C	-0.0821865467	 1.5566264635	 0.0611957012	-0.393699
C	 0.0058144208	 0.031618809	-0.0219018594	-0.161493
C	 0.7041934059	-0.4853656808	-1.2924015461	 0.049564
C	 0.8654409492	-2.0154443859	-1.2465132164	-0.161496
C	 1.660026224	-2.5913914657	-2.4200559299	-0.393702
N	-0.0815743792	-0.1164267974	-2.4605855947	-0.2114
C	 0.4490195651	 0.6245786551	-3.3268910525	 0.132032
O	-0.2341866831	 0.9967538032	-4.4287488273	-0.195431
C	 0.4725350611	 1.8354595782	-5.3336634666	-0.249431
H	 0.9143087787	 2.0138547471	 0.0376934695	 0.103308
H	-0.6579556699	 1.9639505339	-0.7747136873	 0.1271
H	-0.568603664	 1.8721387027	 0.9894366467	 0.110053
H	 0.5512755601	-0.3542567738	 0.8482149812	 0.087998
H	-1.0009893153	-0.4011547026	 0.0157605687	 0.105087
H	 1.7156255171	-0.0346579232	-1.3357926955	 0.046728
H	 1.3589867569	-2.2782629107	-0.3026541052	 0.088001
H	-0.134494652	-2.464588485	-1.2188873845	 0.105092
H	 1.1662117237	-2.3781856674	-3.3723453206	 0.127092
H	 2.6701319592	-2.1665368294	-2.4624259368	 0.103315
H	 1.7619182407	-3.6773678804	-2.3303020676	 0.110058
H	 1.4751199448	 1.0224100888	-3.2714570692	 0.072121
H	 0.7621877975	 2.7828985029	-4.8626600315	 0.126546
H	 1.3686020035	 1.3395633341	-5.7267823278	 0.126543
H	-0.210454968	 2.0422731436	-6.1584009386	 0.146013
41.4158	63.0127	82.851	102.5755	144.0353	144.0955	185.7202	217.8629	223.338	258.3401	332.4489	354.3078	398.181	471.7122	518.1825	580.5583	769.9956	796.284	873.9575	931.0122	977.5743	989.552	1025.8563	1044.7059	1058.8826	1061.6736	1121.755	1151.6423	1177.6334	1180.4217	1182.8719	1273.5047	1279.0957	1304.9296	1308.6264	1372.5007	1378.2472	1381.7378	1404.15	1406.5033	1423.2252	1470.9824	1481.2339	1486.181	1494.9095	1496.3176	1496.5784	1501.5257	1507.6525	1508.5621	1767.7059	2900.1429	2983.904	3013.9265	3022.8817	3029.2122	3029.9261	3030.2328	3062.3286	3069.6194	3074.8286	3094.9107	3095.909	3113.6999	3114.5897	3143.8506
CCC(CC)N=COC	CCC(CC)N=COC	
InChI=1S/C7H15NO/c1-4-7(5-2)8-6-9-3/h6-7H,4-5H2,1-3H3	InChI=1S/C7H15NO/c1-4-7(5-2)8-6-9-3/h6-7H,4-5H2,1-3H3
