17
gdb 88068	2.24018	1.44012	1.10168	2.7896	68.87	-0.243	-0.0342	0.2089	1134.8095	0.133226	-458.919215	-458.910289	-458.909345	-458.95376	31.904	
O	 0.0330150474	 1.2433503719	 0.0109362268	-0.421662
C	-0.0198195632	-0.1525295218	 0.0200091264	 0.033746
C	-0.5790546849	-0.8738632177	 1.2263707369	-0.390904
C	-1.3936473174	-0.7308906656	-0.0269980869	 0.258593
C	-2.6958464527	 0.0252787834	-0.2529759371	-0.13174
O	-3.1538759516	-1.0042313845	-1.1688755552	-0.296579
C	-1.9714672425	-1.7975473052	-0.966301816	-0.024776
C	-1.1913153439	-2.0226883518	-2.2461446354	 0.129135
O	-0.1714143203	-2.6622926668	-2.2916106811	-0.249157
H	 0.7891458364	 1.5189700429	 0.5396919396	 0.29385
H	 0.7586137078	-0.6591788282	-0.5497592406	 0.113944
H	-0.1753821007	-1.8503454436	 1.4750203864	 0.126637
H	-0.8790947949	-0.2654666193	 2.0743897408	 0.120463
H	-3.3547751084	 0.1116869283	 0.6192223431	 0.108253
H	-2.5992831726	 1.0008856486	-0.7407589469	 0.127062
H	-2.1863687144	-2.7650330592	-0.491602401	 0.106886
H	-1.626938524	-1.5164685913	-3.1364242799	 0.096249
46.74	81.234	132.4098	177.2153	203.4939	290.323	314.1482	417.2686	444.6552	474.8661	510.3577	611.773	816.4308	825.8183	879.0075	899.5616	967.7548	993.8175	1023.6278	1034.544	1046.7308	1084.8216	1105.8288	1115.8565	1150.3875	1172.3075	1216.3325	1228.9745	1289.2069	1307.594	1317.77	1369.2409	1390.449	1426.9921	1497.783	1524.5968	1823.075	2892.6047	3012.1237	3026.2186	3079.305	3112.9595	3121.4077	3213.1188	3808.8956
OC1CC11COC1C=O	O[C@H]1C[C@]21CO[C@H]2C=O	
InChI=1S/C6H8O3/c7-2-5-6(3-9-5)1-4(6)8/h2,4-5,8H,1,3H2	InChI=1S/C6H8O3/c7-2-5-6(3-9-5)1-4(6)8/h2,4-5,8H,1,3H2/t4-,5-,6+/m0/s1
