19
gdb 94180	2.42805	1.34633	1.16906	3.0104	71.87	-0.2404	-0.0265	0.214	1162.5823	0.155307	-460.161554	-460.15144	-460.150496	-460.197327	35.988	
C	 0.0990471731	 1.6303232873	 0.0194288962	-0.399324
C	-0.0595389906	 0.1302142274	 0.1098166299	 0.139812
O	 0.6595904112	-0.5758463698	-0.9266850133	-0.288388
C	 1.3006501215	-1.4307605853	 0.0324723205	-0.11104
C	 0.7270012408	-0.6368381091	 1.2293833096	 0.190166
O	 1.6390656944	 0.2085752654	 1.8987120973	-0.470598
C	-0.1715069304	-1.4269571437	 2.1849350518	 0.320374
C	-0.1567548653	-1.0348482737	 3.6472255938	-0.47622
O	-0.877937498	-2.3107549836	 1.7536891543	-0.303046
H	 1.1477813592	 1.9164954685	 0.1110352084	 0.134421
H	-0.2819955648	 1.9720682301	-0.9480168421	 0.128543
H	-0.4727038986	 2.1283765602	 0.8092764429	 0.117509
H	-1.1168697567	-0.1625657797	 0.0995610687	 0.090504
H	 0.9419264912	-2.4635474019	-0.0248208668	 0.12194
H	 2.3949979069	-1.3985178593	-0.0478609326	 0.093888
H	 2.41453818	-0.30649725	 2.144280814	 0.286501
H	 0.8265640723	-1.236360555	 4.0865580192	 0.133553
H	-0.3233063994	 0.0407745947	 3.7603599864	 0.15069
H	-0.9195604768	-1.6024797624	 4.1808260718	 0.140715
31.4264	75.9049	134.8905	170.4943	189.8123	213.2122	242.0763	281.5466	342.3384	400.2841	418.1298	475.7944	569.9762	601.9618	622.8039	778.3704	876.775	888.6745	912.3084	962.5166	1016.4641	1035.0181	1057.2105	1083.7177	1105.1578	1150.6405	1171.3413	1220.5453	1261.754	1304.3318	1324.434	1358.922	1373.2201	1382.1906	1404.7585	1451.9516	1467.1041	1479.7379	1488.9071	1498.7781	1801.7761	3012.0099	3029.9756	3043.7667	3044.7643	3081.8592	3104.1179	3110.5014	3145.9765	3157.683	3814.1313
CC1OCC1(O)C(C)=O	C[C@H]1OC[C@]1(O)C(=O)C	
InChI=1S/C6H10O3/c1-4(7)6(8)3-9-5(6)2/h5,8H,3H2,1-2H3	InChI=1S/C6H10O3/c1-4(7)6(8)3-9-5(6)2/h5,8H,3H2,1-2H3/t5-,6+/m1/s1
