16
gdb 22620	2.6717	1.5316	1.22954	1.4579	72.99	-0.2346	-0.0117	0.2228	1046.8571	0.122501	-437.787765	-437.779701	-437.778756	-437.820142	31.023	
C	-0.0254148386	 1.5252763724	-0.0522778237	-0.516355
C	-0.0642870278	 0.0298017506	 0.0393759799	 0.291953
O	 0.3196051711	-0.7116686501	-1.1828487907	-0.317783
C	-0.3138678036	-1.861935198	-0.5272851241	-0.072466
C	 0.5588937035	-2.0227292088	 0.7260065381	-0.081935
C	 0.7310368589	-0.7520295321	 1.1063051199	-0.1202
C	-1.3335385651	-0.8389051537	-0.003324376	 0.46061
N	-2.5613631158	-0.6301355804	 0.1602794169	-0.319018
O	-3.3264400016	-1.7836553372	-0.1336168147	-0.397448
H	 0.9978823768	 1.8683068566	-0.2311995806	 0.135836
H	-0.6627534878	 1.8760915973	-0.8667549779	 0.143958
H	-0.3809858775	 1.9682276177	 0.8826486222	 0.136047
H	-0.5481321865	-2.7000528144	-1.1767751732	 0.106014
H	 0.8877410187	-2.9473102663	 1.1764022488	 0.122697
H	 1.2454010108	-0.3321688461	 1.9584715208	 0.120364
H	-4.2235820353	-1.4705058176	 0.0231565343	 0.307725
119.7082	152.6637	177.6944	263.2484	269.1183	328.3575	394.3874	439.526	544.7025	598.4519	636.29	688.821	716.7889	757.5994	789.898	854.8991	865.5192	894.4967	910.1543	938.3747	958.5852	1034.9718	1082.6635	1121.6837	1154.3593	1187.0202	1248.3815	1290.8338	1343.6853	1405.906	1421.255	1478.181	1489.744	1604.6801	1814.5174	3049.107	3119.7636	3134.7729	3178.3396	3232.5369	3259.5054	3820.6665
CC12OC(C=C1)C2=NO	C[C@@]12O[C@@H](C=C1)C2=NO	
InChI=1S/C6H7NO2/c1-6-3-2-4(9-6)5(6)7-8/h2-4,8H,1H3	InChI=1S/C6H7NO2/c1-6-3-2-4(9-6)5(6)7-8/h2-4,8H,1H3/t4-,6+/m0/s1
