23
gdb 92361	2.31925	1.80188	1.33087	1.6318	83.79	-0.2349	0.0771	0.312	1081.2441	0.207783	-388.315024	-388.30672	-388.305776	-388.347133	34.107	
C	-0.1128680322	 1.5619124843	-0.0197245777	-0.426587
C	 0.0322289013	 0.037763765	-0.0051607861	 0.018934
C	 0.8882760138	-0.4999690449	-1.2013770145	-0.235034
C	 1.9754564932	-1.3228355183	-0.4898727013	 0.103254
C	 2.2635414046	-0.4861054077	 0.7616598979	-0.265129
C	 0.790717827	-0.5452479316	 1.236042129	 0.289496
C	 0.4476368511	 0.0583017533	 2.5879655671	-0.495081
C	 0.5937211525	-2.0756509515	 1.175582742	-0.096218
O	 1.3622377974	-2.5076336387	 0.042034013	-0.282454
H	 0.8572050666	 2.065785949	 0.0602947268	 0.113559
H	-0.571625461	 1.8885793598	-0.9591677007	 0.114778
H	-0.7451408412	 1.9206189104	 0.7984464711	 0.11402
H	-0.974807997	-0.3943549367	-0.0353491406	 0.067566
H	 0.3164385419	-1.1244473189	-1.8915690501	 0.103344
H	 1.327464644	 0.3239339419	-1.7760358866	 0.089469
H	 2.8198834605	-1.6273963884	-1.1094971342	 0.068525
H	 2.9606264915	-0.9739075347	 1.4486256398	 0.097633
H	 2.6151506835	 0.5258644329	 0.5443942703	 0.094619
H	 0.6777861725	 1.1268908141	 2.6272567077	 0.119641
H	-0.6183962513	-0.0587294113	 2.8168950349	 0.114387
H	 1.0124318315	-0.4324888825	 3.3881876902	 0.113803
H	 0.9714580915	-2.5684490422	 2.0829578572	 0.086481
H	-0.4589183719	-2.3592889534	 1.0449233349	 0.090996
129.8744	223.5443	230.5433	255.8007	292.7098	317.9702	348.0345	408.6718	442.4168	492.5306	589.6197	612.2114	742.1396	780.7683	836.2192	860.5358	897.4844	909.1458	929.2947	957.1883	964.4053	989.9309	1007.4279	1032.2644	1048.1787	1091.8873	1096.2179	1137.1288	1176.4402	1186.2954	1210.9174	1222.473	1258.5645	1272.3785	1275.1872	1311.2554	1325.4961	1342.1733	1369.1581	1392.669	1406.5519	1418.1101	1478.831	1490.1245	1492.9391	1497.6822	1500.4837	1508.3536	1528.2938	2992.2208	3024.6497	3026.5419	3027.7049	3034.6551	3038.6738	3060.4491	3086.4598	3091.4605	3098.4967	3104.2303	3106.4982	3111.6922	3113.7265
CC1CC2CC1(C)CO2	C[C@H]1C[C@H]2C[C@]1(C)CO2	
InChI=1S/C8H14O/c1-6-3-7-4-8(6,2)5-9-7/h6-7H,3-5H2,1-2H3	InChI=1S/C8H14O/c1-6-3-7-4-8(6,2)5-9-7/h6-7H,3-5H2,1-2H3/t6-,7-,8+/m0/s1
