21
gdb 71764	3.06944	1.78423	1.5581	0.049	84.04	-0.2387	0.0891	0.3277	964.4916	0.18613	-349.969155	-349.962252	-349.961307	-349.999822	29.823	
C	-0.0290636532	 1.4947535628	 0.0012540136	-0.489193
C	-0.0040451895	-0.0146250768	-0.0354330256	 0.336863
C	 0.9752582546	-0.7018369181	-0.9845374207	-0.288366
C	 0.4366418975	-2.1142555407	-1.1517271829	-0.063837
C	 0.0854890746	-2.8690701537	 0.1105186253	-0.062266
C	 0.312191312	-2.143388843	 1.4289161109	-0.243186
C	-0.3416260221	-0.7836233131	 1.2263023815	-0.105137
C	-1.2774738112	-0.8453085827	 0.0277128288	-0.10696
C	-1.0049559866	-2.1610367393	-0.6760030004	-0.069985
H	 0.9269398159	 1.9024736127	 0.3518171696	 0.114038
H	-0.2228423772	 1.9143317532	-0.9931797933	 0.112365
H	-0.809397082	 1.8624613693	 0.675621197	 0.112395
H	 0.9833885543	-0.1816160669	-1.9510156255	 0.092314
H	 2.0045659129	-0.6846235744	-0.602274743	 0.094553
H	 0.7527297573	-2.6938992528	-2.0124975235	 0.075799
H	 0.167221839	-3.9505754981	 0.0877057192	 0.075874
H	-0.1787319349	-2.6812639108	 2.2490562152	 0.096268
H	 1.3764022621	-2.0641318443	 1.6859355557	 0.096363
H	-0.6088630061	-0.1997969888	 2.1017938667	 0.072277
H	-2.2642590406	-0.3994466515	 0.029485887	 0.073486
H	-1.7860347866	-2.6884535026	-1.2076533257	 0.076337
208.6925	230.5266	270.2278	305.9476	428.5041	440.4034	553.9791	664.4771	691.3181	697.8551	731.5029	774.433	784.7279	836.1528	871.5903	916.0456	928.9006	945.8888	982.2452	988.0484	1004.7508	1021.9403	1024.8669	1041.0084	1070.3636	1075.8626	1094.2978	1120.6575	1129.4553	1189.1554	1203.1714	1218.548	1263.7391	1274.8348	1300.0316	1310.3953	1341.8725	1345.9601	1406.1731	1417.6307	1432.3425	1486.976	1491.0108	1497.0939	1505.1776	3012.3569	3018.2539	3021.0981	3045.1527	3053.0911	3075.0462	3093.146	3152.3649	3157.9349	3167.6678	3185.9156	3200.6381
CC12CC3C4CC1C2C34	C[C@@]12C[C@H]3[C@H]4C[C@@H]1[C@@H]2[C@@H]34	
InChI=1S/C9H12/c1-9-3-5-4-2-6(9)8(9)7(4)5/h4-8H,2-3H2,1H3	InChI=1S/C9H12/c1-9-3-5-4-2-6(9)8(9)7(4)5/h4-8H,2-3H2,1H3/t4-,5+,6-,7-,8-,9-/m1/s1
