16
gdb 33840	4.60677	1.07371	1.00256	4.5389	75.78	-0.2743	-0.0031	0.2712	1185.7506	0.123773	-400.702028	-400.694356	-400.693412	-400.734258	29.463	
N	 0.0820920639	-1.1449211701	 0.1510063263	-0.337943
C	 0.0807999468	 0.0072083534	 0.0498432706	 0.209026
C	 0.0523758416	 1.4250862902	-0.1236247508	 0.308639
C	-0.7259224267	 2.2392447665	-1.1796281756	-0.389261
C	 0.4341331308	 3.266574643	-1.1346705391	 0.361144
C	 1.0793939109	 3.9348573615	-2.312226765	-0.327509
C	 0.3972412393	 4.7589597784	-1.2427252893	-0.316402
C	 1.1444866252	 2.4295439041	-0.0911888501	-0.131023
O	 0.2547584372	 2.2656602597	 1.018177207	-0.265874
H	-0.804707724	 1.7232571322	-2.1390150509	 0.132939
H	-1.7102406629	 2.5754386631	-0.8474216923	 0.128151
H	 2.1636021547	 3.9524809966	-2.3584386712	 0.123623
H	 0.5945867059	 3.8401949076	-3.2782198312	 0.123812
H	-0.5541996863	 5.2202483059	-1.4855825996	 0.125859
H	 1.0143405194	 5.33983553	-0.5656707988	 0.126288
H	 2.204469164	 2.2982701977	 0.0946459101	 0.128531
87.7848	145.3509	218.2217	262.9463	300.6028	397.6023	450.7029	510.6334	552.1954	585.7874	653.1592	770.8064	793.2688	853.4253	880.0796	910.9299	919.7782	959.3065	977.9585	1021.4688	1054.3856	1059.3512	1083.0973	1137.021	1164.6669	1186.3972	1209.0978	1235.9517	1255.3942	1397.8303	1402.5884	1464.7809	1471.3366	1506.8838	2356.9721	3072.6981	3128.3392	3134.0245	3134.2261	3192.2172	3207.9516	3222.7754
N#CC12CC3(CC3)C1O2	N#C[C@]12CC3(CC3)[C@H]1O2	
InChI=1S/C7H7NO/c8-4-7-3-6(1-2-6)5(7)9-7/h5H,1-3H2	InChI=1S/C7H7NO/c8-4-7-3-6(1-2-6)5(7)9-7/h5H,1-3H2/t5-,7-/m1/s1
