21
gdb 99971	2.74706	1.12153	0.95847	2.7414	80.33	-0.2528	0.0525	0.3053	1312.4927	0.17821	-424.190245	-424.179184	-424.17824	-424.225821	41.134	
C	 0.0032135643	 1.586967016	-0.0853530705	-0.40224
C	 0.0399058039	 0.0446236868	-0.0094943027	-0.178889
C	 0.6525072078	-0.4880994627	-1.227528394	 0.347075
C	 1.1354080655	-0.8892303334	-2.2526419616	-0.473447
C	 0.7486952517	-0.497750688	 1.2690061277	 0.367863
C	 0.8578660342	-2.0304837153	 1.2356370584	-0.431826
O	 2.0441333896	 0.0873031986	 1.3085817361	-0.473121
C	-0.0157630143	-0.0640212721	 2.5337432347	-0.124933
O	 0.7900538217	-0.4539177834	 3.6455835049	-0.434014
H	 1.013610332	 1.9865036332	 0.0141143702	 0.14899
H	-0.4077214132	 1.9016255691	-1.0473395473	 0.122613
H	-0.6237341398	 2.0136177583	 0.7020149998	 0.107437
H	-0.9939752472	-0.3272184886	 0.0291800235	 0.099696
H	 1.5691252509	-1.2520990268	-3.1511949974	 0.191195
H	 1.4994515515	-2.336722844	 0.4084922385	 0.137907
H	 1.2852470652	-2.3921385137	 2.1740272258	 0.124666
H	-0.1253427165	-2.4967328723	 1.1066928115	 0.10406
H	 2.3533450217	-0.0345606114	 2.2154298142	 0.28394
H	-0.1587694983	 1.0221978716	 2.5337357501	 0.096176
H	-1.002541907	-0.5491281393	 2.571421741	 0.09142
H	 0.502888186	 0.0372756774	 4.4195926072	 0.295431
48.1599	124.8969	142.8274	180.7351	227.291	233.6221	240.2948	252.0365	290.6293	344.8245	358.6342	392.2359	418.4576	440.8396	484.549	563.1013	615.0044	636.8008	660.0331	760.3434	840.4441	918.0824	938.688	961.7756	1015.1784	1044.7276	1079.6552	1112.8958	1138.7419	1179.6477	1200.7037	1248.6098	1280.5154	1324.4022	1336.3782	1386.925	1399.7412	1409.8271	1445.1689	1489.4494	1497.4851	1497.6038	1502.0667	1512.1145	2234.0588	2991.5121	3005.5799	3042.1947	3051.5171	3062.7106	3114.6173	3122.5052	3148.4321	3149.9687	3505.0822	3772.4534	3848.5575
CC(C#C)C(C)(O)CO	C[C@@H](C#C)[C@@](C)(O)CO	
InChI=1S/C7H12O2/c1-4-6(2)7(3,9)5-8/h1,6,8-9H,5H2,2-3H3	InChI=1S/C7H12O2/c1-4-6(2)7(3,9)5-8/h1,6,8-9H,5H2,2-3H3/t6-,7-/m0/s1
