20
gdb 114766	4.00556	1.10888	0.93872	1.4056	81.76	-0.2171	0.0105	0.2276	1286.8662	0.171757	-403.110363	-403.101973	-403.101029	-403.143539	32.019	
C	 0.0147640083	 1.4592972173	 0.0445402166	-0.238556
O	-0.1038857754	 0.055765562	 0.0774052954	-0.241868
C	 0.6400071909	-0.5645571311	 1.1152894939	 0.083458
C	-0.0210214801	-1.9245101969	 1.3690911649	-0.186013
N	 0.7313958515	-2.7342244449	 2.3427294365	-0.108517
C	 1.4346812982	-3.9069885221	 1.8190790773	-0.243196
C	 2.1938446131	-2.6893009811	 2.2301628512	-0.04603
C	 2.8004022558	-1.7697758531	 1.2358461949	-0.081096
C	 2.0911431073	-0.7589447918	 0.7361771518	-0.08887
H	 1.0485586916	 1.7924090685	-0.1327048071	 0.105308
H	-0.6097680197	 1.816864026	-0.7777943229	 0.128593
H	-0.3346819735	 1.9172646252	 0.983158943	 0.107283
H	 0.5713860378	 0.0503359452	 2.0294428236	 0.081554
H	-1.0351107257	-1.7751980378	 1.7535090192	 0.10734
H	-0.1081927933	-2.4220738721	 0.3945675769	 0.106586
H	 1.4227128948	-4.7895429154	 2.4541625716	 0.112656
H	 1.3585411604	-4.1066120073	 0.7517906985	 0.112888
H	 2.703678591	-2.7237979045	 3.1938607656	 0.09773
H	 3.8427455581	-1.9222861474	 0.9670548245	 0.094325
H	 2.522503369	-0.0614003188	 0.0243872647	 0.096426
81.8649	103.2254	178.2602	196.1662	283.641	343.8717	386.3898	436.48	487.9245	508.6823	586.6052	722.4547	735.5142	798.6413	816.8885	917.9735	943.8821	982.9304	1017.3182	1031.4905	1049.4373	1065.6333	1101.6276	1117.668	1126.634	1150.9904	1160.9467	1182.8034	1201.3473	1222.8915	1243.8703	1308.6056	1330.4469	1344.0931	1363.2464	1400.2702	1422.772	1479.1253	1488.7152	1497.0172	1509.7231	1516.9961	1706.022	2947.7028	2975.6408	3018.9587	3021.3742	3070.5722	3089.584	3092.4322	3113.8877	3151.6109	3179.7027	3179.9981
COC1CN2CC2C=C1	CO[C@H]1CN2C[C@H]2C=C1	
InChI=1S/C7H11NO/c1-9-7-3-2-6-4-8(6)5-7/h2-3,6-7H,4-5H2,1H3	InChI=1S/C7H11NO/c1-9-7-3-2-6-4-8(6)5-7/h2-3,6-7H,4-5H2,1H3/t6-,7-,8?/m1/s1
