18
gdb 113507	3.72271	0.98091	0.87025	4.232	74.29	-0.2468	0.0128	0.2596	1370.8014	0.146398	-439.086453	-439.077353	-439.076409	-439.120809	32.693	
C	-0.0017529021	 1.4794012496	-0.3798017421	-0.376301
C	-0.0019791785	 0.1272075771	 0.343821239	-0.213885
C	-1.3751002155	-0.4956075487	 0.3826271229	-0.024746
O	-1.8526186706	-1.0960276179	-0.8392088324	-0.278285
C	-1.6033003424	-1.9363720713	 0.2594169675	 0.265904
C	-0.6401773185	-3.1433007475	 0.2756362438	-0.245577
N	-1.7235275421	-3.8668881193	 0.9535831413	-0.347819
C	-2.6416232815	-2.83629384	 0.9542786813	 0.37379
O	-3.7639639552	-2.7282150288	 1.3635326199	-0.360697
H	 1.0017730109	 1.9137615687	-0.3984839575	 0.117419
H	-0.3435527591	 1.3628113375	-1.412316712	 0.137022
H	-0.6675269583	 2.1936603359	 0.1161462088	 0.121701
H	 0.6910979147	-0.5626700408	-0.1501893163	 0.105053
H	 0.3500619702	 0.2520936563	 1.376056357	 0.107562
H	-2.1442046673	 0.0772817403	 0.9041539942	 0.1137
H	-0.3896662849	-3.5302409735	-0.716599089	 0.128271
H	 0.2685106532	-3.0197106663	 0.8737630884	 0.118895
H	-1.7473064529	-4.7776668212	 1.3845403353	 0.257994
73.9675	103.0736	122.268	151.0695	210.8493	252.1419	272.184	340.8012	463.369	472.0518	574.1592	640.2944	726.0058	766.2195	792.7055	858.0805	908.4579	944.0424	975.9071	998.6232	1059.4041	1084.6113	1098.602	1150.9005	1155.3306	1157.1101	1184.0682	1278.8441	1291.384	1332.0856	1362.558	1387.2827	1411.7498	1473.0988	1497.9889	1505.2135	1518.9014	1525.1797	1901.7155	3027.6247	3039.7389	3041.9068	3068.9882	3093.1617	3101.5164	3110.5248	3119.4909	3635.8898
CCC1OC11CNC1=O	CC[C@H]1O[C@]21CNC2=O	
InChI=1S/C6H9NO2/c1-2-4-6(9-4)3-7-5(6)8/h4H,2-3H2,1H3,(H,7,8)	InChI=1S/C6H9NO2/c1-2-4-6(9-4)3-7-5(6)8/h4H,2-3H2,1H3,(H,7,8)/t4-,6+/m1/s1
