16
gdb 13032	4.0064	1.39648	1.10094	2.9729	70.97	-0.2387	-0.0213	0.2173	1060.5314	0.128394	-346.578085	-346.569912	-346.568968	-346.611336	29.626	
O	 0.046993707	-0.0030418968	 0.0011968525	-0.283952
C	-0.0254892083	 1.1896028987	 0.0378665973	 0.391978
C	-1.1727816029	 2.1840076151	 0.2868932245	-0.334404
C	-0.0863521621	 3.2444250852	 0.6390524775	-0.262676
C	 1.0236251444	 2.3214146335	 0.0425536828	-0.079565
C	 2.3269718863	 2.1093626853	 0.8256454953	-0.375294
C	 3.2792233963	 1.2471686116	 0.1373277988	 0.312973
C	 4.0652718548	 0.5537644734	-0.4497739981	-0.441963
H	-1.7145544633	 2.4115861411	-0.6369181207	 0.133986
H	-1.8969021841	 1.9029685668	 1.0550122386	 0.130635
H	-0.1942911228	 4.2257774254	 0.1762087305	 0.112294
H	 0.0267453156	 3.3726147943	 1.7188467163	 0.114621
H	 1.2538985978	 2.6069980043	-0.9903772879	 0.114923
H	 2.7886755341	 3.0882149165	 1.0106060273	 0.135015
H	 2.0921935873	 1.6894246187	 1.8123034397	 0.13386
H	 4.7534172898	-0.0740391533	-0.9591338646	 0.197568
53.4149	82.9316	142.116	196.6304	312.5045	338.4587	421.6604	475.0594	546.067	620.507	643.5081	690.6432	731.8331	756.431	879.4416	925.3034	935.3629	963.5642	1021.9461	1056.8248	1084.879	1120.8232	1192.0225	1196.7063	1230.0876	1253.6926	1265.7062	1320.4227	1354.6114	1442.95	1468.3897	1492.3989	1892.9687	2242.5392	3016.3358	3042.561	3056.0429	3060.5236	3071.6767	3116.4254	3134.6406	3507.7503
O=C1CCC1CC#C	O=C1CC[C@H]1CC#C	
InChI=1S/C7H8O/c1-2-3-6-4-5-7(6)8/h1,6H,3-5H2	InChI=1S/C7H8O/c1-2-3-6-4-5-7(6)8/h1,6H,3-5H2/t6-/m1/s1
