21
gdb 115534	2.5244	1.07714	1.02395	1.9927	84.83	-0.2489	0.0284	0.2773	1342.895	0.179525	-387.044912	-387.034708	-387.033764	-387.080411	37.499	
C	 0.0197782658	 1.6415754122	-0.0840670178	-0.384549
C	-0.2252700559	 0.1390805643	-0.268337003	-0.204023
C	 0.7878047429	-0.49492803	-1.2128261701	-0.066014
C	 2.2247516253	-0.7269743311	-0.7039972118	-0.085366
O	 2.1723616573	-2.1314682179	-1.023776419	-0.311051
C	 0.7793496615	-2.0498500735	-1.4470160296	 0.20144
C	-0.1053624019	-2.9076774014	-0.5439484768	-0.433297
C	 0.618892056	-2.4370557244	-2.8462943519	 0.326592
C	 0.4694003448	-2.7433262992	-3.9993905491	-0.473717
H	 1.0157008698	 1.8351601674	 0.3294794565	 0.120415
H	-0.0513220829	 2.1737573476	-1.0388345496	 0.119456
H	-0.7131696745	 2.0802011561	 0.5994810074	 0.116777
H	-0.1898472548	-0.3564501257	 0.7088460599	 0.100554
H	-1.2371858656	-0.0208004479	-0.6612128161	 0.104454
H	 0.7734763748	 0.0313120229	-2.1704117644	 0.088946
H	 3.0254490526	-0.2132733436	-1.2478163521	 0.106006
H	 2.3651930011	-0.5612196358	 0.3732698187	 0.095034
H	 0.0388652751	-2.6376368727	 0.504594948	 0.119943
H	-1.1616893097	-2.7908835702	-0.8034616628	 0.12516
H	 0.1654884833	-3.9593129117	-0.6696192929	 0.135692
H	 0.3479390749	-3.0180840255	-5.0181147636	 0.197548
41.0898	86.1472	138.4279	171.2972	187.3172	226.4162	237.3544	291.5004	364.7196	376.735	426.7452	533.2234	568.9057	617.026	626.6838	662.0115	763.21	804.0086	881.0698	923.5751	927.2683	965.2299	973.1894	1026.0098	1048.8019	1106.0934	1133.0338	1151.4444	1166.1765	1193.7086	1218.3466	1278.1787	1304.2592	1330.9078	1356.4303	1399.336	1403.8481	1413.6099	1475.8359	1488.2018	1489.4408	1499.6077	1507.0903	1526.7061	2229.6508	3002.2745	3025.7394	3032.1342	3046.5189	3053.0804	3058.5229	3082.8233	3100.1	3107.081	3122.6085	3130.955	3500.725
CCC1COC1(C)C#C	CC[C@H]1CO[C@]1(C)C#C	
InChI=1S/C8H12O/c1-4-7-6-9-8(7,3)5-2/h2,7H,4,6H2,1,3H3	InChI=1S/C8H12O/c1-4-7-6-9-8(7,3)5-2/h2,7H,4,6H2,1,3H3/t7-,8+/m0/s1
