19
gdb 87176	2.44383	1.29586	1.11423	2.5923	72.36	-0.2413	0.0079	0.2492	1202.9837	0.1551	-460.180274	-460.170007	-460.169063	-460.215866	36.678	
C	-2.4735903822	 0.8014730697	-1.7443319051	-0.476137
C	-2.1288452987	-0.6583182591	-1.5659235022	 0.411781
O	-2.2335035705	-1.5108079958	-2.4051626945	-0.334276
O	-1.6574455281	-0.8718513589	-0.3031481048	-0.302423
C	-1.254235033	-2.2003174904	 0.0404130544	 0.405366
C	-0.060357566	-2.7333403255	-0.7098159242	-0.473024
C	-1.4181647684	-2.4641741545	 1.52144628	-0.397283
C	-2.3796313904	-3.0773566623	 0.5261993497	 0.103673
O	-3.7052900441	-2.6588804239	 0.4543807898	-0.422971
H	-2.9274939731	 0.9475232961	-2.7236014228	 0.152138
H	-3.1559666345	 1.1362702399	-0.9584432456	 0.143872
H	-1.5659675968	 1.4071427602	-1.6637431261	 0.154205
H	 0.8044286834	-2.0747166604	-0.5714870658	 0.120481
H	 0.2061654255	-3.7197781428	-0.3192747497	 0.120814
H	-0.2727521714	-2.8273576062	-1.7756516221	 0.156232
H	-0.6821078659	-3.0878768345	 2.0173988997	 0.117876
H	-1.7976249985	-1.6425293245	 2.1204185885	 0.119127
H	-2.3123720952	-4.1409107728	 0.3228780344	 0.11495
H	-3.713788092	-1.6962126442	 0.4882894363	 0.285599
57.656	83.7181	89.5596	163.2497	197.2098	217.8317	244.8206	267.7971	321.3864	396.3	399.2203	464.2389	556.4589	612.0395	621.2598	768.521	801.5099	847.177	885.7395	951.4841	972.6553	1025.5954	1032.9488	1047.2843	1062.6443	1097.467	1131.6768	1163.63	1228.9287	1257.8447	1300.2323	1345.4247	1393.9879	1411.1177	1432.6064	1468.3313	1475.745	1480.9061	1484.8028	1512.1001	1838.1323	3039.5876	3056.8733	3105.2452	3121.0931	3128.0505	3144.8019	3170.2496	3171.8394	3219.274	3812.7629
CC(=O)OC1(C)CC1O	CC(=O)O[C@@]1(C)C[C@H]1O	
InChI=1S/C6H10O3/c1-4(7)9-6(2)3-5(6)8/h5,8H,3H2,1-2H3	InChI=1S/C6H10O3/c1-4(7)9-6(2)3-5(6)8/h5,8H,3H2,1-2H3/t5-,6+/m1/s1
