16
gdb 28356	3.21365	1.39217	0.97801	3.6719	77.09	-0.2149	-0.0218	0.1931	1158.5804	0.12647	-434.158195	-434.150016	-434.149072	-434.190752	30.93	
C	-0.0354020813	 1.5221913421	-0.0014894849	-0.478131
C	-0.000466281	 0.0229055334	-0.0222483813	 0.119855
C	-0.0566992898	-0.729960157	-1.1587424158	-0.071505
N	-0.0379533394	-2.0957571841	-1.2280991633	-0.352149
C	 0.0659832902	-2.7236533097	-0.0893287808	 0.48298
N	 0.1613959746	-4.0949607588	-0.0698725341	-0.569919
N	 0.1382176547	-2.075002372	 1.1054977665	-0.393641
C	 0.1079834195	-0.6669607545	 1.2478506599	 0.364828
O	 0.178288035	-0.1730132891	 2.3595829192	-0.387929
H	 0.8664101309	 1.9308173745	 0.4674362118	 0.138212
H	-0.1158409543	 1.9272639955	-1.0137787129	 0.114644
H	-0.8818396925	 1.8885576578	 0.5897070431	 0.137271
H	-0.1324001751	-0.2330705568	-2.1238601325	 0.107203
H	-0.0755254557	-4.5116001567	-0.9582733127	 0.272517
H	-0.2188850249	-4.5795844462	 0.7289139442	 0.258975
H	 0.2653866891	-2.5815925483	 1.9718472336	 0.25679
120.9498	137.4438	170.1721	267.7455	320.6602	341.2665	356.4885	432.4987	467.8251	550.7782	572.6365	588.4141	656.9131	751.3596	755.4281	792.3413	799.8935	972.4229	986.5398	1040.2697	1072.0045	1093.0119	1142.2867	1246.6269	1310.5034	1335.6035	1399.1477	1415.6456	1470.1478	1492.0627	1526.6974	1604.344	1640.609	1663.3553	1783.9737	3032.7093	3085.1094	3116.0042	3149.2063	3575.6777	3589.8342	3687.3169
CC1=CN=C(N)NC1=O	Cc1cnc(N)[nH]c1=O	
InChI=1S/C5H7N3O/c1-3-2-7-5(6)8-4(3)9/h2H,1H3,(H3,6,7,8,9)	InChI=1S/C5H7N3O/c1-3-2-7-5(6)8-4(3)9/h2H,1H3,(H3,6,7,8,9)
