20
gdb 113979	3.97359	0.6522	0.60951	4.1898	80.91	-0.2758	0.0355	0.3113	1850.4651	0.169522	-403.153339	-403.143325	-403.14238	-403.189768	35.118	
C	-0.0959454963	 1.3763937962	-0.6414801716	-0.376044
C	-0.0147385097	 0.1952033208	 0.3342250238	-0.217673
C	-1.336845134	-0.5244839293	 0.4469758207	 0.078726
O	-1.727983774	-1.368099312	-0.6471382155	-0.267061
C	-1.5189076977	-1.9740142993	 0.6348272899	 0.041011
C	-0.4046463697	-2.9885373946	 0.7318121124	-0.229455
C	-0.7497299857	-4.2424467037	-0.1018443722	-0.327496
C	 0.291888392	-5.2635358421	-0.0338574942	 0.254804
N	 1.1268271503	-6.0595438152	 0.034478261	-0.30428
H	 0.8650186893	 1.893571436	-0.7120702337	 0.118333
H	-0.3722973207	 1.0300015137	-1.6416635909	 0.135882
H	-0.8467532664	 2.1060407905	-0.3195393515	 0.11813
H	 0.7652617818	-0.4978617549	 0.0065035165	 0.108565
H	 0.2711649515	 0.5515637891	 1.3323606918	 0.106096
H	-2.1525154048	 0.1082414458	 0.8074187055	 0.090382
H	-2.4474183867	-2.2924172441	 1.1168863759	 0.09198
H	 0.538599365	-2.5722025747	 0.3728791469	 0.129095
H	-0.2601234133	-3.2711669085	 1.7804110541	 0.125484
H	-1.6930650797	-4.6827147298	 0.2419738352	 0.151639
H	-0.897740821	-3.950297114	-1.1468283241	 0.17188
45.7715	69.0625	77.2806	107.6833	182.9208	211.367	240.9359	287.4365	395.5987	429.3728	483.4302	527.656	574.6816	740.0989	773.4611	818.369	827.2176	932.4716	954.2438	970.5891	1019.2678	1037.3124	1047.5164	1108.7397	1115.4997	1164.1574	1185.3943	1217.6321	1278.9725	1292.5921	1305.0311	1316.1626	1342.8632	1372.7936	1408.6132	1419.8061	1465.7395	1472.327	1484.75	1496.1472	1499.1293	1509.7239	2363.0255	3031.3689	3038.6015	3044.5724	3056.2119	3062.9683	3075.7183	3086.7236	3089.6911	3110.6837	3119.0799	3123.1456
CCC1OC1CCC#N	CC[C@H]1O[C@H]1CCC#N	
InChI=1S/C7H11NO/c1-2-6-7(9-6)4-3-5-8/h6-7H,2-4H2,1H3	InChI=1S/C7H11NO/c1-2-6-7(9-6)4-3-5-8/h6-7H,2-4H2,1H3/t6-,7+/m1/s1
