15
gdb 13913	3.14629	1.70475	1.56716	5.4403	57.74	-0.2493	0.0202	0.2694	868.1578	0.119039	-436.946682	-436.938829	-436.937885	-436.978982	28.829	
N	-0.0713519683	 1.1134934007	 0.0199049416	-0.522636
H	-0.6860302439	 0.6808234485	-0.6611349869	 0.259416
H	 1.1304139047	 0.0939849764	 0.8080974752	 0.322523
H	 0.3565925127	 1.9321180267	-0.3973701799	 0.254267
C	-0.7870537765	 1.4557568893	 1.2296620715	-0.06702
C	-1.3566155869	 0.3118495039	 2.0093504568	 0.081623
O	-1.2220450254	-0.9479267185	 1.4349666113	-0.412169
C	-0.1461455331	 1.059019543	 2.5630187674	-0.222669
C	 1.1914463434	 0.3734165959	 2.6881745372	 0.400553
O	 1.7567859246	 0.3098571569	 3.7510309368	-0.349375
O	 1.6906046292	-0.1827183325	 1.5802701048	-0.382038
H	-1.3530138044	 2.3852207742	 1.2307862611	 0.103646
H	-2.29768604	 0.4798341069	 2.5312797588	 0.106876
H	-0.9059474638	-1.5666963342	 2.1021695927	 0.30669
H	-0.3458987322	 1.700356763	 3.4126269716	 0.120313
75.4403	142.2898	197.5668	233.7438	293.6056	349.1688	390.5918	427.3011	512.0813	593.8774	700.7237	762.999	795.7038	821.5559	879.6535	895.3181	939.7195	1005.3736	1040.6212	1055.1586	1130.3856	1163.6275	1236.5122	1253.6981	1281.9254	1313.752	1351.0981	1385.5338	1454.9362	1505.104	1643.0145	1842.7812	3107.9711	3120.1299	3194.1581	3231.2766	3514.8044	3599.6856	3809.3091
[NH3+]C1C(O)C1C([O-])=O	N[C@H]1[C@@H](O)[C@H]1C(=O)O	
InChI=1S/C4H7NO3/c5-2-1(3(2)6)4(7)8/h1-3,6H,5H2,(H,7,8)	InChI=1S/C4H7NO3/c5-2-1(3(2)6)4(7)8/h1-3,6H,5H2,(H,7,8)/t1-,2+,3-/m0/s1
