27
gdb 110138	1.3825	1.38148	0.80632	0.037	96.83	-0.2564	0.0787	0.3351	1630.1518	0.250819	-353.558585	-353.547054	-353.54611	-353.595859	42.089	
C	 0.0633145979	 1.472836585	 0.1143434892	-0.376055
C	-0.2551500231	-0.0006427083	-0.1716452927	-0.193483
C	 0.6128278536	-0.5773196391	-1.2749114281	-0.030619
C	 1.9923751817	-1.1601455344	-1.0291855975	-0.030107
C	 2.6401033876	-1.2468830738	 0.3406268678	-0.19344
C	 3.7626392829	-2.2916234098	 0.3915038927	-0.376071
C	 0.8547387945	-2.0631750913	-1.468351133	-0.03037
C	 0.2333763621	-3.1274568991	-0.582550097	-0.193393
C	-1.1678859977	-3.5368527428	-1.0550744681	-0.376242
H	 1.0962325809	 1.5948831744	 0.4560249509	 0.119486
H	-0.0595819219	 2.0839647624	-0.7868040771	 0.112331
H	-0.597780981	 1.8807002147	 0.8857844947	 0.107293
H	-0.1505376243	-0.5772364169	 0.7526835694	 0.09411
H	-1.3103633357	-0.0899792392	-0.4626778924	 0.094233
H	 0.523949161	-0.009751962	-2.200078029	 0.072494
H	 2.7200991633	-0.9430465522	-1.8097203654	 0.07243
H	 3.0520696107	-0.2638503829	 0.6052384598	 0.094195
H	 1.8988094983	-1.477390442	 1.1119764753	 0.094093
H	 4.2393265476	-2.3166012154	 1.3766950972	 0.10728
H	 3.3790895861	-3.2941661134	 0.1762141535	 0.119473
H	 4.5393464095	-2.0703688014	-0.3489915583	 0.112366
H	 0.9036090346	-2.3785655904	-2.509492138	 0.072447
H	 0.883222697	-4.0127727029	-0.5756769335	 0.094218
H	 0.1774410197	-2.7900686057	 0.4571129173	 0.094205
H	-1.8570721156	-2.6865384318	-1.0305695925	 0.119447
H	-1.1423767564	-3.9102021219	-2.0849419579	 0.112369
H	-1.5858060032	-4.3282730597	-0.4245428276	 0.107311
58.8407	68.6562	75.142	139.7511	143.938	195.128	208.5409	237.7513	241.1418	295.1449	329.4692	330.1943	521.6297	533.3472	536.566	751.5725	752.7648	776.6289	812.857	812.9586	820.2516	956.4962	957.166	985.867	987.3164	1003.0022	1061.6311	1062.1049	1069.8764	1097.1011	1132.1216	1132.8985	1158.117	1198.1926	1200.3133	1272.4744	1290.1367	1292.6549	1293.7923	1333.7373	1334.9159	1356.5206	1403.4415	1403.8981	1407.174	1413.7516	1414.3852	1466.827	1484.3447	1488.8547	1490.321	1497.3107	1497.7597	1498.5378	1505.5184	1506.7518	1510.3417	3016.6785	3017.2767	3018.4195	3030.3692	3030.5516	3030.9141	3061.948	3063.1635	3077.0776	3096.4588	3096.6374	3100.8029	3103.4602	3103.5259	3104.0217	3106.5321	3106.8766	3124.3677
CCC1C(CC)C1CC	CC[C@H]1[C@@H](CC)[C@H]1CC	
InChI=1S/C9H18/c1-4-7-8(5-2)9(7)6-3/h7-9H,4-6H2,1-3H3	InChI=1S/C9H18/c1-4-7-8(5-2)9(7)6-3/h7-9H,4-6H2,1-3H3/t7-,8+,9-
