17
gdb 13546	3.80433	1.34749	1.09365	2.2794	70.9	-0.2477	0.0299	0.2776	1093.9732	0.139848	-363.793246	-363.784135	-363.78319	-363.827356	32.704	
C	 0.0498746046	 1.5465384262	-0.2447038909	-0.390302
C	 0.0145014146	 0.0601310384	 0.0175748874	-0.001093
N	 1.2930767772	-0.6728753124	-0.0124074635	-0.334255
C	 0.5384793928	-0.5938015086	 1.245895137	-0.03643
C	 1.1881999906	 0.1823747375	 2.3836411111	-0.044814
O	 0.2140462142	 0.8505769685	 3.1837895605	-0.418401
C	 2.0385452241	-0.6969284267	 3.1917123786	 0.293188
C	 2.6822430536	-1.449545827	 3.8735362473	-0.44636
H	 0.961681495	 2.0010406991	 0.1480245492	 0.128387
H	 0.0195690641	 1.7438015764	-1.3215009252	 0.115948
H	-0.8096843114	 2.0410714568	 0.2186009854	 0.12708
H	-0.8439750029	-0.4449714206	-0.4252864198	 0.082263
H	 1.187384357	-1.588260256	-0.4396779346	 0.233393
H	 0.0160438152	-1.4895649734	 1.5811422934	 0.081227
H	 1.8053229867	 0.9746391984	 1.9501731013	 0.126057
H	-0.1986186197	 0.190568542	 3.751512988	 0.284546
H	 3.2738717841	-2.0973535786	 4.4722052647	 0.199568
41.0195	108.4924	152.0331	170.9914	224.9429	240.1852	285.5971	388.4786	418.2762	490.1068	546.4491	599.0718	633.8284	670.4325	789.8434	849.1644	886.3027	949.0139	976.5329	1014.6779	1047.4408	1064.2735	1095.082	1153.2065	1193.0037	1244.9834	1262.3539	1275.6271	1302.434	1400.4103	1405.2681	1427.6832	1467.1892	1490.2154	1502.2705	2231.515	3040.6543	3075.2448	3097.784	3103.2401	3111.0082	3133.7152	3503.3274	3513.9776	3808.859
CC1NC1C(O)C#C	C[C@H]1N[C@H]1[C@@H](O)C#C	
InChI=1S/C6H9NO/c1-3-5(8)6-4(2)7-6/h1,4-8H,2H3	InChI=1S/C6H9NO/c1-3-5(8)6-4(2)7-6/h1,4-8H,2H3/t4-,5+,6-/m1/s1
