23
gdb 83515	2.64044	1.6795	1.51719	0.103	87.26	-0.2569	0.0878	0.3446	1033.9676	0.210086	-351.162962	-351.155574	-351.15463	-351.194098	31.869	
C	-0.0704105011	 1.5852008235	 0.0092625362	-0.438222
C	 0.0383103743	 0.060069675	 0.0098403356	 0.034372
C	 0.9904862466	-0.5741342076	-1.0352052339	-0.032073
C	 2.3764660162	-0.0737916828	-0.5385859046	-0.202725
C	 2.2165972154	-0.0845742352	 1.0196765762	-0.202724
C	 0.7593680915	-0.589748356	 1.2176407932	-0.032071
C	 0.8038296586	-2.0738928298	 0.8393814432	-0.01272
C	-0.2577505542	-2.6872894952	-0.0395686629	-0.345696
C	 0.9593043395	-2.0633889199	-0.6761908078	-0.012719
H	 0.8931928336	 2.090104144	 0.1114655523	 0.118291
H	-0.5274170193	 1.9359753813	-0.9226325501	 0.11189
H	-0.7073512766	 1.9238167324	 0.8338674031	 0.11189
H	-0.9772049786	-0.3272945821	-0.0970250501	 0.065382
H	 0.7745994019	-0.3385064132	-2.080414192	 0.050671
H	 3.1831814745	-0.7286349982	-0.8799688021	 0.090438
H	 2.5987791252	 0.9296845149	-0.9124501196	 0.090655
H	 2.9381316178	-0.7451402594	 1.5087492459	 0.090438
H	 2.356926481	 0.9133828626	 1.4445908903	 0.090655
H	 0.3354298612	-0.3681749777	 2.2003775936	 0.050671
H	 1.4009546034	-2.7316139258	 1.4629291425	 0.078541
H	-0.2739413186	-3.7725593159	-0.0487527108	 0.104699
H	-1.2439270511	-2.248405645	-0.1376915875	 0.111815
H	 1.6715101987	-2.7133391298	-1.1744822308	 0.078542
179.0455	254.2596	260.8442	280.8887	340.1252	356.4532	497.0875	540.9285	577.0406	716.0455	730.933	792.0196	804.7087	825.9932	876.779	879.5358	881.792	890.245	944.9697	957.328	994.2768	1008.8929	1019.4265	1055.3915	1063.5158	1064.4522	1075.1747	1096.8681	1125.3763	1133.3413	1160.8966	1195.4863	1202.2468	1215.4862	1238.3014	1277.0626	1293.701	1301.0959	1321.952	1327.1921	1340.6366	1377.7226	1406.6634	1413.5247	1485.8386	1494.0366	1499.3741	1509.9515	1516.9103	3034.1028	3048.3913	3057.4572	3071.8867	3075.5309	3081.8166	3083.6548	3090.2196	3100.8278	3120.9723	3131.6499	3151.116	3160.8751	3206.6322
CC1C2CCC1C1CC21	C[C@H]1[C@H]2CC[C@@H]1[C@H]1C[C@@H]21	
InChI=1S/C9H14/c1-5-6-2-3-7(5)9-4-8(6)9/h5-9H,2-4H2,1H3	InChI=1S/C9H14/c1-5-6-2-3-7(5)9-4-8(6)9/h5-9H,2-4H2,1H3/t5-,6+,7-,8-,9+
