18
gdb 67784	2.75439	2.40207	1.67534	1.6878	77.95	-0.2149	0.0065	0.2215	855.3692	0.149541	-364.747078	-364.74062	-364.739676	-364.77729	27.858	
C	-0.0310728933	 1.4638237208	 0.0410551425	-0.484295
C	 0.0245109511	-0.0455946834	-0.0387306495	 0.314156
C	 0.3527575196	-0.6686857851	-1.3692203537	-0.125406
C	-0.1839604692	-1.8918582338	-1.4023041832	-0.083777
C	-0.8678213051	-2.1167068966	-0.0867109762	-0.055934
C	 0.0787239692	-2.1734320799	 1.1439433488	-0.10096
C	-0.657685503	-1.0288210897	 1.7586686356	-0.049995
C	 0.6907969696	-0.765169945	 1.1741497623	-0.123881
N	-1.2818868389	-0.7286221426	 0.3879536396	-0.195641
H	 0.9528227037	 1.9013567577	-0.1618742714	 0.111048
H	-0.743351076	 1.8578967534	-0.6898836524	 0.126633
H	-0.3465808173	 1.7873086018	 1.0376648353	 0.121096
H	 0.9746927542	-0.2026566508	-2.1240560492	 0.099366
H	-0.087961361	-2.6309993886	-2.1877249522	 0.102175
H	-1.6884411721	-2.8347894978	-0.0587968728	 0.074416
H	 0.5598614266	-3.0214670752	 1.6149061458	 0.088837
H	-1.1242684816	-0.8505062712	 2.716189306	 0.096656
H	 1.6317887935	-0.557607564	 1.6687757349	 0.085507
221.4275	267.7398	282.1349	388.0101	428.5492	544.3798	621.326	677.0241	733.5906	734.5372	810.343	816.2146	821.2932	841.1426	875.6536	889.5169	913.8375	932.2557	947.23	980.8998	995.884	1023.1134	1035.2504	1052.2164	1060.1387	1099.6845	1126.8467	1174.3276	1188.0213	1212.5951	1251.8416	1255.4037	1304.2637	1362.0957	1367.9752	1410.5991	1486.6824	1490.2709	1646.935	3032.8888	3101.0505	3102.4464	3113.3077	3184.9561	3192.4518	3195.2207	3220.9366	3226.2135
CC12C=CC3C4C(C14)N23	C[C@@]12C=C[C@H]3[C@@H]4[C@@H]([C@H]14)N23	
InChI=1S/C8H9N/c1-8-3-2-4-5-6(8)7(5)9(4)8/h2-7H,1H3	InChI=1S/C8H9N/c1-8-3-2-4-5-6(8)7(5)9(4)8/h2-7H,1H3/t4-,5-,6+,7-,8+/m0/s1
