21
gdb 120316	3.19667	0.8934	0.80991	1.1376	78.84	-0.2451	0.0783	0.3235	1482.3745	0.181495	-424.18458	-424.174972	-424.174028	-424.219449	35.855	
O	-0.0746127854	 1.3944495205	 0.0665272572	-0.422778
C	-0.1003061371	-0.0140118922	 0.2452786607	-0.06102
C	-1.4356151955	-0.5296959475	-0.2808255412	-0.216225
C	-1.5560961063	-2.0353175539	-0.1662049335	-0.081894
C	-1.9044977784	-2.8044734345	 1.1000833595	-0.125706
C	-2.9806735618	-2.0742333878	 1.9148412934	-0.226528
C	-3.9389510276	-2.1302328152	 0.6795239624	-0.295622
C	-2.8293069971	-2.8348971287	-0.1129732369	 0.36354
O	-3.0633565292	-3.906446688	-0.9608459461	-0.461064
H	 0.7614634866	 1.7257925331	 0.4065839492	 0.284437
H	 0.7265011792	-0.5000782783	-0.2989595803	 0.081215
H	 0.0069116039	-0.2868442642	 1.3073525269	 0.090213
H	-2.2371787384	-0.0225745001	 0.2650767342	 0.11009
H	-1.5351920786	-0.2225875589	-1.3295790797	 0.100077
H	-0.8047806906	-2.578440194	-0.7395425066	 0.083936
H	-1.2502278863	-3.5804206069	 1.4789985629	 0.087219
H	-3.3509174111	-2.6664335389	 2.7540609084	 0.105085
H	-2.7180381686	-1.0783538726	 2.2845330166	 0.099304
H	-4.7824861106	-2.8023736018	 0.8509487795	 0.10983
H	-4.3170011953	-1.1823122007	 0.2825634947	 0.092343
H	-3.1398740117	-3.5705566893	-1.8604947913	 0.283547
55.94	89.1453	123.4432	208.5508	247.9641	259.0476	267.8657	297.2935	357.9494	396.4544	483.345	567.7633	628.6245	718.8926	784.5273	809.0457	834.9068	902.1199	922.2806	957.8996	985.7869	1007.9334	1034.6967	1056.8329	1075.1423	1100.0211	1121.6741	1146.5374	1203.6751	1220.6441	1221.877	1232.996	1239.5209	1253.4599	1297.1312	1310.6056	1315.8975	1327.7832	1356.661	1458.1075	1469.0974	1476.4052	1495.7885	1512.4254	1526.2566	2959.6705	2987.8897	3032.7676	3045.1537	3055.2294	3082.4923	3100.4144	3115.0318	3118.4686	3183.6285	3795.56	3830.7096
OCCC1C2CCC12O	OCC[C@H]1[C@H]2CC[C@@]12O	
InChI=1S/C7H12O2/c8-4-2-6-5-1-3-7(5,6)9/h5-6,8-9H,1-4H2	InChI=1S/C7H12O2/c8-4-2-6-5-1-3-7(5,6)9/h5-6,8-9H,1-4H2/t5-,6+,7+/m1/s1
