15
gdb 125518	4.58887	0.91244	0.80417	1.2303	68.98	-0.2738	-0.0505	0.2232	1377.7901	0.111534	-450.12447	-450.115767	-450.114823	-450.160184	28.887	
C	 0.0589600746	 1.4638123597	-0.1495221446	-0.479423
C	 0.0028507683	-0.0202952452	-0.0435364379	 0.391476
N	 0.1231240113	-0.8489916449	-1.0769729234	-0.293969
N	 0.0002406836	-2.0362093508	-0.4876702827	 0.128786
C	 0.0995255063	-3.2850543622	-1.2063071498	-0.232796
C	 1.4968587946	-3.509798067	-1.78799384	 0.156896
O	 1.7124502831	-4.327845553	-2.637137529	-0.216903
N	-0.1760136273	-1.9653394199	 0.8275034476	-0.1199
N	-0.1806967224	-0.6935546373	 1.1236378071	-0.25236
H	 0.8504985612	 1.8651934342	 0.4896092693	 0.152705
H	 0.2497059819	 1.7598170994	-1.1819148203	 0.148795
H	-0.8846586408	 1.9094975938	 0.178807155	 0.15313
H	-0.1217118219	-4.0817342987	-0.4903418537	 0.182321
H	-0.6368099875	-3.3194925962	-2.0127406172	 0.171588
H	 2.2923997451	-2.8702438917	-1.3498916704	 0.109655
39.2451	46.5899	68.3668	99.267	242.6412	283.5481	372.0037	415.5804	434.3062	672.2443	703.3646	728.6797	736.8158	838.7219	997.3794	1024.9232	1047.5823	1049.6258	1072.0338	1102.8899	1170.7016	1259.7321	1317.1459	1336.3924	1401.6434	1406.5594	1413.7466	1428.8228	1441.2183	1478.2588	1484.5053	1548.0899	1849.6359	2915.4498	3054.6409	3076.8968	3114.0664	3133.1301	3151.1799
CC1=NN(CC=O)N=N1	Cc1nn(CC=O)nn1	
InChI=1S/C4H6N4O/c1-4-5-7-8(6-4)2-3-9/h3H,2H2,1H3	InChI=1S/C4H6N4O/c1-4-5-7-8(6-4)2-3-9/h3H,2H2,1H3
