17
gdb 50681	2.11529	1.63475	1.00389	3.5223	74.31	-0.246	-0.028	0.218	1159.2988	0.134211	-421.798753	-421.789864	-421.78892	-421.833648	31.813	
O	-0.6288453848	 0.3564972122	 0.1466144258	-0.23693
C	 0.4651794205	 0.534686238	-0.3152168832	 0.156628
C	 1.3256633565	 1.7622820058	-0.0287066785	 0.038125
O	 2.6458273056	 1.3082471519	 0.2382367645	-0.270647
C	 3.5881041893	 1.9913150795	-0.5880266971	-0.076365
C	 2.8136636376	 2.3839715955	-1.8415288209	-0.230624
C	 1.430364044	 2.7457225056	-1.2491768152	-0.232291
C	 0.3259584521	 2.6791033446	-2.1920734163	 0.31436
C	-0.5836737066	 2.6152274745	-2.9747769283	-0.436105
H	 0.9609696429	-0.2077970377	-0.9798931744	 0.080186
H	 0.9036632872	 2.273549638	 0.8439651454	 0.104252
H	 3.9790981147	 2.8790475538	-0.06750002	 0.099626
H	 4.4216785729	 1.3105584111	-0.7797299327	 0.119099
H	 3.2597114955	 3.2173304278	-2.3882005622	 0.119684
H	 2.7188947848	 1.533609264	-2.5225068014	 0.125065
H	 1.4832262604	 3.7617249722	-0.8404965458	 0.122253
H	-1.3941871026	 2.5578027131	-3.6587393898	 0.203683
33.3782	63.5114	129.9216	157.8146	242.1338	300.7755	344.0059	425.0721	498.6603	512.6104	584.7398	640.9637	646.1465	703.7248	831.4008	879.7536	923.0721	971.4246	988.223	1016.0939	1058.7748	1098.6698	1107.3543	1124.2121	1190.2052	1234.4937	1271.1112	1292.636	1306.334	1327.9196	1362.8245	1387.1389	1412.3781	1489.5403	1523.5449	1843.3299	2239.9141	2885.6088	2988.8179	3030.847	3050.9415	3068.7565	3093.8515	3125.6962	3503.497
O=CC1OCCC1C#C	O=C[C@H]1OCC[C@H]1C#C	
InChI=1S/C7H8O2/c1-2-6-3-4-9-7(6)5-8/h1,5-7H,3-4H2	InChI=1S/C7H8O2/c1-2-6-3-4-9-7(6)5-8/h1,5-7H,3-4H2/t6-,7-/m1/s1
