19
gdb 106584	2.70066	1.4946	1.31494	2.4757	75.65	-0.2395	-0.0007	0.2388	1061.4774	0.15908	-422.97993	-422.971805	-422.97086	-423.012323	32.222	
C	 0.0261172294	 1.3592315122	 0.0690901689	-0.262442
O	-0.0161215823	-0.0382951905	-0.1410863053	-0.301312
C	-1.2792682808	-0.5945890437	-0.0440977098	 0.366397
C	-2.1648948022	-0.5647187062	 1.2559024921	-0.283965
C	-2.8748590795	-1.7487509522	 0.5211519336	-0.135865
C	-3.3842556035	-1.0393138222	-0.7385384116	-0.101732
C	-2.3480883364	-0.2798952138	-1.1129638837	-0.18253
C	-1.4222587885	-2.1581691967	 0.047529346	 0.129504
O	-1.2187965893	-2.9752347613	-1.0528352102	-0.437072
H	 1.0652677897	 1.6704850427	-0.0580722718	 0.130234
H	-0.5986666684	 1.9039497025	-0.6534297694	 0.108029
H	-0.3053588363	 1.6273417515	 1.0825363686	 0.113108
H	-1.6204740908	-0.8657777938	 2.1560612437	 0.102159
H	-2.7669542378	 0.327708686	 1.4317809379	 0.099484
H	-3.5312465402	-2.4429655703	 1.0407853055	 0.070864
H	-4.3551609201	-1.1613888827	-1.1985096433	 0.106935
H	-2.2307080341	 0.3803305834	-1.9606544111	 0.107649
H	-0.8202913494	-2.5685139076	 0.8623184562	 0.095732
H	-1.7361333993	-2.6006825874	-1.7791491163	 0.274822
96.6247	172.7346	177.9489	262.1578	281.0823	376.2578	416.7933	472.865	493.2016	569.8083	603.8516	641.3719	732.9969	777.8611	799.6177	827.3836	891.4293	917.0209	929.1626	948.9701	1010.6952	1032.3063	1060.7685	1093.8649	1111.3791	1143.662	1172.4595	1179.5737	1183.4701	1212.3136	1227.1337	1253.6171	1274.066	1309.371	1347.6572	1447.4203	1483.0956	1487.4572	1500.7877	1507.1417	1617.4443	2989.1148	3039.1017	3058.4588	3094.6987	3120.8371	3136.0877	3144.9535	3215.2655	3242.7556	3741.8855
COC12CC(C=C1)C2O	CO[C@@]12C[C@@H](C=C1)[C@H]2O	
InChI=1S/C7H10O2/c1-9-7-3-2-5(4-7)6(7)8/h2-3,5-6,8H,4H2,1H3	InChI=1S/C7H10O2/c1-9-7-3-2-5(4-7)6(7)8/h2-3,5-6,8H,4H2,1H3/t5-,6-,7-/m1/s1
