20
gdb 60362	3.54452	0.67494	0.58829	4.1947	76.67	-0.277	0.0132	0.2902	1849.4731	0.168211	-440.296374	-440.285611	-440.284666	-440.333121	38.155	
C	 0.0271324255	 1.5706054648	 0.0606543252	-0.406045
C	 0.0122627718	 0.0426797398	 0.0405941813	 0.127747
O	 0.7214689928	-0.498589321	 1.1537524085	-0.426684
C	-1.4120689815	-0.5229150837	-0.043454148	-0.196975
C	-1.4348365317	-2.0516204591	-0.113291615	-0.198839
C	-2.8653280065	-2.6126961671	-0.1482205782	-0.029847
O	-3.6303360319	-2.1365566945	-1.242775316	-0.408196
C	-2.84612501	-4.0911047842	-0.1249430928	 0.257686
N	-2.815285737	-5.2462158602	-0.13940164	-0.315678
H	 1.0536698088	 1.9388587608	 0.1357738508	 0.127962
H	-0.4268623902	 1.9847805934	-0.8451738577	 0.120189
H	-0.5387030881	 1.9532175857	 0.9197942817	 0.108522
H	 0.5793049549	-0.3068835379	-0.8320887972	 0.09058
H	 0.3427896844	-0.1180304636	 1.9544363265	 0.277523
H	-1.9782341865	-0.1858009676	 0.8380935224	 0.087605
H	-1.9246099143	-0.1027592228	-0.9154192179	 0.111588
H	-0.8996386554	-2.4002730897	-1.0068919995	 0.105787
H	-0.9029951777	-2.469893598	 0.7468467266	 0.134804
H	-3.4072848541	-2.2746977118	 0.742948766	 0.137685
H	-3.2310610232	-2.4698080732	-2.0550221167	 0.294587
41.4051	64.5149	97.5019	151.532	189.716	229.7643	243.4156	270.5873	297.6496	327.9621	361.0922	439.458	469.2723	483.992	585.9207	592.8306	773.0611	843.1646	887.5393	930.4367	953.6399	995.5569	1048.949	1076.7087	1096.2568	1111.523	1146.3624	1176.5526	1253.9104	1274.3115	1310.5348	1325.1406	1343.738	1374.8473	1395.2313	1406.7028	1418.1011	1422.0727	1475.4122	1490.0847	1495.0118	1497.6638	2354.386	2998.9609	3022.2694	3024.9115	3033.3052	3054.2052	3072.9975	3094.1001	3098.3763	3121.2359	3794.3099	3797.8905
CC(O)CCC(O)C#N	C[C@@H](O)CC[C@@H](O)C#N	
InChI=1S/C6H11NO2/c1-5(8)2-3-6(9)4-7/h5-6,8-9H,2-3H2,1H3	InChI=1S/C6H11NO2/c1-5(8)2-3-6(9)4-7/h5-6,8-9H,2-3H2,1H3/t5-,6-/m1/s1
