18
gdb 73423	2.65229	2.30927	1.61004	0.935	72.79	-0.2087	0.0713	0.2799	866.4276	0.149945	-401.882188	-401.87562	-401.874676	-401.912628	28.027	
O	-0.0810683429	 1.3343455592	 0.0368662228	-0.501313
C	 0.0369386942	-0.061054849	 0.0227513082	 0.436492
C	 1.0141180289	-0.6957786732	 1.0191967643	-0.301344
C	 1.2583501679	-2.1016063437	 0.3895830822	-0.168214
N	 0.4553989102	-2.1705567927	-0.8558654033	-0.108793
C	-0.9990617838	-2.1294384957	-0.6022074557	-0.03412
C	-1.2429050294	-0.9854679198	-1.5311818299	-0.112649
C	-1.3358948932	-0.7340632216	-0.038428937	-0.117997
C	 0.2921371949	-0.7683350144	-1.3623945397	-0.114342
H	 0.8029208891	 1.7080587164	-0.0530517171	 0.27458
H	 1.9423869221	-0.1132232563	 1.0749174077	 0.083834
H	 0.5943974088	-0.7379919466	 2.0281018997	 0.107885
H	 2.3131243345	-2.2459288915	 0.1345647657	 0.102758
H	 0.9664004228	-2.9233541486	 1.0492748906	 0.106902
H	-1.5886675438	-3.0155874165	-0.4025030357	 0.092805
H	-1.9361462419	-0.8487611363	-2.3460076794	 0.098965
H	-2.2038061401	-0.5318616366	 0.5756905891	 0.088274
H	 1.0120893516	-0.3894737932	-2.0882741126	 0.066277
182.8309	272.8682	327.88	342.8097	393.2172	499.9564	597.52	670.5512	706.1723	745.4864	788.4956	806.5999	822.7242	845.8391	856.8481	896.8984	942.4502	950.6924	974.7791	1010.0451	1023.7857	1047.1749	1053.9456	1091.6578	1116.6731	1142.2497	1150.6758	1181.8062	1192.266	1211.1864	1224.9316	1269.5644	1281.0774	1293.1792	1348.1857	1363.9211	1407.8096	1484.3883	1502.5405	3024.298	3049.858	3081.8861	3102.2752	3111.579	3189.4073	3203.6488	3242.277	3791.3298
OC12CCN3C4C(C14)C23	O[C@@]12CCN3[C@@H]4[C@@H]([C@H]14)[C@@H]23	
InChI=1S/C7H9NO/c9-7-1-2-8-5-3(4(5)7)6(7)8/h3-6,9H,1-2H2	InChI=1S/C7H9NO/c9-7-1-2-8-5-3(4(5)7)6(7)8/h3-6,9H,1-2H2/t3-,4+,5-,6+,7+/m1/s1
