15
gdb 125743	3.42389	1.2812	0.93886	4.0508	80.98	-0.2117	-0.0308	0.1809	1192.1422	0.111387	-416.77577	-416.767019	-416.766074	-416.808976	32.263	
C	-0.0446280726	 1.5088579765	-0.012233902	-0.513891
C	-0.0158262846	 0.0161669064	 0.0174176405	 0.355707
N	-0.015995456	-0.6878647066	-1.0917501796	-0.190224
O	 0.0015626155	-2.0146658454	-0.7286594575	-0.227448
C	 0.0245732837	-2.0992732165	 0.6350396215	 0.272034
C	 0.0545552742	-3.3575112245	 1.2523171772	 0.20322
C	 0.0878484969	-4.4182876819	 1.8245469762	-0.394962
C	 0.0099827151	-0.8344047473	 1.1645627646	-0.028421
N	-0.0567923561	-0.4436325449	 2.4954981721	-0.618107
H	 0.8555068217	 1.9349201433	 0.4466668734	 0.130923
H	-0.1010754123	 1.8594663951	-1.0441671498	 0.156964
H	-0.9088887761	 1.8935019679	 0.5398840913	 0.144287
H	 0.1096439336	-5.3596671692	 2.3155838335	 0.198638
H	 0.1784119714	-1.1846338469	 3.1429321574	 0.257832
H	 0.4674067957	 0.3949481939	 2.706017591	 0.25345
109.6584	126.7413	137.0113	232.2361	251.16	273.3213	352.9003	386.4404	462.9919	514.3552	529.0484	575.5258	645.643	670.6055	699.9201	719.2607	754.1249	760.3743	985.0689	994.7704	1043.8128	1066.0174	1192.8624	1223.7764	1304.197	1412.8136	1463.2495	1480.4794	1505.35	1540.6538	1637.8217	1678.0471	2222.3544	3032.1152	3086.3461	3141.2185	3500.6833	3542.6584	3637.5149
CC1=NOC(C#C)=C1N	Cc1noc(C#C)c1N	
InChI=1S/C6H6N2O/c1-3-5-6(7)4(2)8-9-5/h1H,7H2,2H3	InChI=1S/C6H6N2O/c1-3-5-6(7)4(2)8-9-5/h1H,7H2,2H3
