21
gdb 98294	2.64149	1.01923	0.86423	4.2777	80.34	-0.2358	0.0307	0.2665	1442.528	0.181834	-420.413981	-420.403499	-420.402555	-420.450671	36.851	
C	 0.8724888645	 1.0504233828	 0.4035846898	-0.333995
N	 0.5219367366	-0.3095832645	 0.0420844599	-0.321737
C	 0.1109089169	-0.6535171647	-1.2122787866	 0.435548
O	-0.0020797545	 0.1518251651	-2.1211331445	-0.389748
C	-0.189763178	-2.1419229211	-1.4250627513	-0.140508
C	-1.6115960925	-2.3080817468	-1.9842027085	-0.391424
C	 0.8493892982	-2.704509927	-2.3834015049	 0.057504
C	 2.1139445083	-3.2899750167	-1.8783627425	-0.249126
N	 1.0752179236	-4.1539779006	-2.4749144216	-0.329943
H	 0.7228832261	 1.6676070588	-0.4829649881	 0.173766
H	 0.2361328507	 1.424563915	 1.2131961082	 0.125393
H	 1.9195784638	 1.123635952	 0.718259433	 0.1259
H	 0.5916986533	-1.0294743643	 0.7409551316	 0.243555
H	-0.1052089458	-2.6831069151	-0.4717289777	 0.052851
H	-1.8102614936	-3.3550969474	-2.2305213404	 0.117013
H	-2.363074618	-1.9748957671	-1.2617014237	 0.1141
H	-1.7216637001	-1.7062176157	-2.8893832271	 0.149059
H	 0.8649601533	-2.1974492241	-3.3449657559	 0.113875
H	 3.0292538099	-3.2063863864	-2.4568676835	 0.123228
H	 2.2649425774	-3.3267821644	-0.8016300648	 0.099205
H	 0.5636414598	-4.6312856278	-1.7350923813	 0.225487
30.9677	75.5613	94.9838	120.7077	183.6922	206.756	221.8257	255.8424	314.8362	357.2372	397.1361	460.9272	499.3284	702.4302	742.7445	801.4482	866.3517	868.9334	918.979	960.5382	972.5435	1023.555	1051.1258	1092.3637	1107.4672	1140.1744	1153.9198	1167.9213	1171.1721	1210.1697	1229.19	1254.188	1284.5061	1312.4874	1359.4125	1400.0841	1417.2695	1439.1129	1489.3272	1491.971	1501.4755	1502.3465	1512.5792	1557.2292	1772.2354	2996.3438	3027.8346	3042.6589	3079.8908	3103.5237	3111.1706	3131.7869	3145.3483	3155.0428	3189.8409	3481.2054	3656.2528
CNC(=O)C(C)C1CN1	CNC(=O)[C@@H](C)[C@H]1CN1	
InChI=1S/C6H12N2O/c1-4(5-3-8-5)6(9)7-2/h4-5,8H,3H2,1-2H3,(H,7,9)	InChI=1S/C6H12N2O/c1-4(5-3-8-5)6(9)7-2/h4-5,8H,3H2,1-2H3,(H,7,9)/t4-,5+/m0/s1
