18
gdb 23183	2.30863	1.58796	1.04052	1.2061	75.87	-0.2375	0.0013	0.2387	1150.1796	0.147471	-439.031915	-439.023551	-439.022606	-439.065008	31.698	
O	-0.1586624105	 1.3072773782	 0.1385504782	-0.396816
N	 0.0073740615	-0.0904492251	 0.2121376423	-0.241665
C	-1.0995583683	-0.6849261538	 0.0198705649	 0.304615
C	-2.4644951637	-0.084516854	-0.2350046017	-0.161079
O	-3.3046909155	-1.1814071211	-0.5654547689	-0.254786
C	-2.7721239664	-2.3472144013	 0.0562794937	-0.168854
C	-1.2604267521	-2.1620819196	 0.0219760742	 0.25722
C	-0.3464611248	-3.0376635815	-0.815076449	-0.292259
C	-0.2811830858	-3.0902941111	 0.685905413	-0.315436
H	 0.7348704494	 1.6290283125	 0.2975218689	 0.307574
H	-2.8168251636	 0.4470076334	 0.6644347017	 0.117292
H	-2.4611952473	 0.6291732077	-1.0638783503	 0.138307
H	-3.1310910972	-2.4301089958	 1.0961216951	 0.094114
H	-3.1239331432	-3.2187939861	-0.5023100207	 0.113267
H	-0.7971636241	-3.8713889997	-1.34383622	 0.117016
H	 0.4582310165	-2.5365502884	-1.3412475586	 0.13054
H	 0.5692665533	-2.630359963	 1.1767194499	 0.135074
H	-0.6830414882	-3.9654457014	 1.1870461274	 0.115875
74.5567	167.4774	172.3911	194.0387	276.9545	309.0197	351.8087	430.2308	494.4834	533.7497	569.6484	667.0053	777.0454	787.7207	850.4292	914.8411	940.3388	956.9026	978.1216	988.2712	1032.2163	1061.9337	1073.3218	1095.5171	1106.5505	1150.9365	1197.124	1202.2505	1245.0392	1285.1396	1324.2465	1355.7563	1382.4923	1432.2313	1459.4981	1488.8004	1494.8531	1518.1224	1761.2372	2960.0655	2974.3805	3084.1582	3087.9949	3128.0686	3130.6496	3214.4897	3229.04	3821.337
ON=C1COCC11CC1	ON=C1COCC21CC2	
InChI=1S/C6H9NO2/c8-7-5-3-9-4-6(5)1-2-6/h8H,1-4H2	InChI=1S/C6H9NO2/c8-7-5-3-9-4-6(5)1-2-6/h8H,1-4H2
