18
gdb 34095	3.2857	1.50895	1.29082	4.2984	78.96	-0.2754	0.0313	0.3067	1012.1663	0.150634	-364.814611	-364.807578	-364.806634	-364.845862	28.556	
N	 0.0441891146	-1.125948178	 0.0403242396	-0.347716
C	 0.023008258	 0.0301217395	 0.0139891984	 0.179935
C	-0.0017245995	 1.4772401054	-0.0192148408	 0.187707
C	-0.982122678	 2.1790428802	 0.9944923925	-0.274563
C	-1.4800581201	 3.0526862027	-0.1555693921	-0.067148
C	-0.3130776473	 3.59026738	-0.9689048539	-0.042051
C	 1.0747829518	 3.6361757706	-0.3294142761	-0.252446
C	 1.385847707	 2.1547045335	 0.011194717	-0.251879
C	-0.7804714946	 2.1796403757	-1.1814421419	-0.107832
H	-1.7533166663	 1.4884402065	 1.3400168227	 0.127989
H	-0.5140816413	 2.6616467232	 1.8591547185	 0.102884
H	-2.46130542	 3.5069518923	-0.2165347765	 0.09415
H	-0.5771971225	 4.3292084907	-1.7171013223	 0.093886
H	 1.8142379458	 4.0457790385	-1.0229366395	 0.109718
H	 1.0886658947	 4.27026232	 0.5629996519	 0.109072
H	 1.8754207602	 2.0266129674	 0.9805899827	 0.114891
H	 2.0292542902	 1.7049842095	-0.7512105016	 0.119192
H	-1.1243009928	 1.7284531623	-2.1015188286	 0.104211
149.3287	153.4937	229.0048	353.9303	402.8485	488.0902	536.7725	560.6381	622.1723	702.7153	739.9135	781.0933	819.2044	851.0818	907.8849	928.0491	943.2468	975.8364	991.4028	1001.9483	1026.307	1056.0426	1078.5814	1100.2156	1133.1843	1163.1629	1192.366	1218.3568	1223.946	1251.4246	1277.8667	1309.3532	1314.7646	1351.3548	1396.1088	1486.3558	1492.3756	1511.219	2352.4095	3043.8657	3049.6951	3056.7314	3087.3097	3107.7368	3119.5841	3177.0127	3188.029	3216.8137
N#CC12CC3C(CC1)C23	N#C[C@@]12C[C@H]3[C@@H](CC1)[C@@H]23	
InChI=1S/C8H9N/c9-4-8-2-1-5-6(3-8)7(5)8/h5-7H,1-3H2	InChI=1S/C8H9N/c9-4-8-2-1-5-6(3-8)7(5)8/h5-7H,1-3H2/t5-,6+,7-,8+/m1/s1
