17
gdb 84618	2.42921	1.64225	1.26427	2.2859	73.97	-0.256	-0.0389	0.2171	1038.4356	0.13483	-421.827292	-421.819226	-421.818281	-421.85989	30.473	
C	-0.389355626	 1.3580784799	-0.1172795132	-0.407434
C	-0.0108051602	-0.1213275277	 0.0480420538	-0.109251
C	 0.8244504743	-0.6794112889	-1.0887185615	-0.080276
C	 1.9645111887	-1.2378448	-0.6748454819	-0.094053
C	 2.1053703501	-1.09276651	 0.8040090349	-0.066379
O	 2.146173327	 0.2664166509	 1.261836446	-0.289598
C	 0.8713377583	-0.3928439224	 1.2650956683	 0.297003
C	 0.2956307052	-0.6441003988	 2.610774399	 0.094285
O	-0.8782032918	-0.8340792244	 2.8149904741	-0.264358
H	 0.5091734385	 1.9800020261	-0.1491592984	 0.136301
H	-0.9513196115	 1.5136802875	-1.0430359644	 0.117342
H	-1.01530253	 1.689404001	 0.716229821	 0.132753
H	-0.9311738448	-0.7074086033	 0.1691114826	 0.113458
H	 0.5120195591	-0.5858982705	-2.1233796188	 0.109398
H	 2.713642453	-1.7140859243	-1.2946859479	 0.111933
H	 2.6613098904	-1.7982124026	 1.4153452753	 0.10958
H	 1.0516657598	-0.6394548225	 3.4257724511	 0.089296
91.0469	162.2076	186.1937	225.5946	247.6903	291.5038	417.9108	459.7066	535.9918	573.1666	669.574	717.5586	761.4226	797.1301	850.1053	884.7784	915.1835	958.7481	983.5727	1024.4089	1037.8189	1072.9487	1096.3016	1117.2754	1147.0667	1222.4328	1260.9507	1308.5243	1336.7829	1357.5994	1383.5341	1403.3713	1426.6744	1496.3385	1504.5202	1660.3358	1812.6304	2903.2285	3032.2941	3042.9695	3112.9404	3126.0585	3157.882	3189.0123	3220.724
CC1C=CC2OC12C=O	C[C@H]1C=C[C@H]2O[C@@]12C=O	
InChI=1S/C7H8O2/c1-5-2-3-6-7(5,4-8)9-6/h2-6H,1H3	InChI=1S/C7H8O2/c1-5-2-3-6-7(5,4-8)9-6/h2-6H,1H3/t5-,6+,7-/m0/s1
