22
gdb 105113	3.32578	1.0736	0.92328	2.5919	81.97	-0.2334	0.0642	0.2976	1343.2576	0.194924	-404.306274	-404.296944	-404.296	-404.340549	35.214	
O	-0.0252341679	 1.4808850748	 0.340471068	-0.424667
C	 0.0078676601	 0.0627559214	 0.4214587206	-0.161195
C	-1.3441510188	-0.495385223	 0.0091957573	 0.306268
C	-2.5610698339	 0.2848635496	 0.3413170629	-0.280812
N	-2.076049977	 0.2061592636	-1.05497795	-0.354253
C	-1.3748978182	-2.0067499181	-0.0514123832	-0.024087
C	-2.6667753475	-2.7255924669	-0.5297889444	-0.239477
C	-1.7771852002	-3.7316316506	-1.3082616748	-0.220455
C	-0.6084809754	-2.7164117462	-1.2098387797	-0.224771
H	 0.8637314247	 1.8154132888	 0.4844966189	 0.294442
H	 0.7827810242	-0.3480909852	-0.2451540118	 0.097347
H	 0.2423020589	-0.2719367808	 1.4447617623	 0.094781
H	-3.4985509469	-0.2318499867	 0.5273253482	 0.109933
H	-2.4344074951	 1.224625663	 0.8689584951	 0.122846
H	-1.5801738146	 1.0704514187	-1.2637096242	 0.237213
H	-1.0523513001	-2.4104799312	 0.9167799535	 0.061805
H	-3.3398351321	-3.1224038846	 0.234240752	 0.087206
H	-3.2279277123	-2.0796196379	-1.2094086118	 0.128351
H	-1.5786428161	-4.636364373	-0.7258818027	 0.096159
H	-2.1061340912	-4.0280967216	-2.3068813529	 0.096045
H	-0.5657676704	-2.068887813	-2.0907036637	 0.110665
H	 0.3920671596	-3.1057665311	-1.0040215897	 0.086655
74.439	102.3893	135.5624	168.3006	210.6192	265.0567	277.8422	348.3612	381.8804	448.4393	567.1179	633.5866	718.4468	785.7312	811.9573	860.2647	896.4935	930.8414	937.6589	950.7792	963.1722	992.4896	999.0673	1045.5753	1071.2091	1086.2549	1115.0594	1136.2003	1147.6002	1203.3366	1211.2817	1240.4263	1258.3721	1260.0871	1264.4703	1280.7235	1287.9895	1293.1115	1312.7601	1386.8976	1402.0347	1455.0578	1474.3067	1486.2628	1502.855	1511.8718	1518.1016	2966.4829	2995.4576	3023.5431	3050.2535	3054.3432	3062.686	3096.8257	3110.1688	3115.316	3125.494	3206.7502	3494.6609	3847.3604
OCC1(CN1)C1CCC1	OC[C@]1(CN1)C1CCC1	
InChI=1S/C7H13NO/c9-5-7(4-8-7)6-2-1-3-6/h6,8-9H,1-5H2	InChI=1S/C7H13NO/c9-5-7(4-8-7)6-2-1-3-6/h6,8-9H,1-5H2/t7-/m1/s1
