18
gdb 100445	4.00874	0.61307	0.55283	2.6024	79.88	-0.2509	-0.0167	0.2342	1949.8795	0.144843	-439.087322	-439.076164	-439.07522	-439.126128	37.509	
C	 0.2033775533	 1.1029531618	-0.6855159354	-0.385562
C	 0.0746067834	-0.2164528655	 0.1018770594	-0.152159
C	 0.6124383964	-0.07777377	 1.5372900946	-0.068756
O	 1.9886887732	 0.2479167138	 1.4408804926	-0.419694
C	-1.3032434808	-0.6964318118	 0.1279301544	 0.035936
C	-2.4473402024	-1.0759517769	 0.1719369772	 0.052485
C	-3.8223148153	-1.5363160898	 0.2990031627	 0.258813
N	-4.4282226629	-1.7988634243	-0.8966729836	-0.520165
O	-4.3800939674	-1.6650910727	 1.3720942645	-0.336239
H	 1.2418161211	 1.4381643961	-0.6630840253	 0.141142
H	-0.1074163195	 0.96848923	-1.7245300049	 0.119741
H	-0.4257734542	 1.8790318633	-0.2389097305	 0.125116
H	 0.6961188484	-0.9750226252	-0.393762497	 0.120366
H	 0.0429987748	 0.7045275189	 2.0618397546	 0.101982
H	 0.4568177827	-1.0234446846	 2.0756692908	 0.104935
H	 2.3292953874	 0.3886915768	 2.3287102283	 0.29254
H	-3.9240093808	-1.7478552192	-1.7641664113	 0.264781
H	-5.3639084875	-2.1702383406	-0.8846764812	 0.264739
11.8122	65.1949	79.776	100.5307	138.6593	173.5484	220.7334	230.6246	247.5434	316.469	355.8029	471.7402	501.6124	542.2889	574.9618	614.7893	723.3257	774.3371	853.9167	932.0642	986.186	1077.0809	1081.9929	1088.9889	1117.5672	1170.3996	1237.7946	1262.3634	1322.6419	1338.1732	1352.7151	1398.2549	1453.548	1492.8082	1501.1658	1521.575	1606.8942	1772.346	2343.8679	2984.324	3011.5676	3029.0099	3048.5137	3119.4575	3143.2919	3602.7769	3745.5067	3838.1291
CC(CO)C#CC(N)=O	C[C@@H](CO)C#CC(=O)N	
InChI=1S/C6H9NO2/c1-5(4-8)2-3-6(7)9/h5,8H,4H2,1H3,(H2,7,9)	InChI=1S/C6H9NO2/c1-5(4-8)2-3-6(7)9/h5,8H,4H2,1H3,(H2,7,9)/t5-/m1/s1
