14
gdb 76605	3.11052	1.11642	1.07031	3.0168	67.58	-0.2704	-0.1002	0.1702	1139.0968	0.098685	-473.814737	-473.806151	-473.805207	-473.848316	31.112	
O	 0.1600106643	 1.3662904751	-0.0309870624	-0.403604
C	 0.0684802316	 0.002504177	 0.0520399939	 0.093165
C	-0.3958046588	-0.7227785711	 1.2460603074	 0.093209
O	-0.7888030466	-0.1159189728	 2.4090050544	-0.403615
C	-1.3466931374	-0.7157276344	-0.0270168381	-0.309504
C	-2.4810266565	 0.1671404387	 0.0676868789	 0.346261
O	-2.4799231795	 1.2221498561	 0.7085500265	-0.40424
C	-3.6958893373	-0.2369982008	-0.6496208547	 0.251451
N	-4.6483692645	-0.5636148038	-1.2179989463	-0.298093
H	-0.6216916744	 1.7624483868	 0.3868327084	 0.309457
H	 0.8134339629	-0.4799893359	-0.5728296119	 0.142142
H	 0.0313062729	-1.7018859926	 1.4387887898	 0.142157
H	-1.3244345285	 0.664711476	 2.1938459836	 0.309454
H	-1.4490520381	-1.6185290382	-0.6150641296	 0.13176
56.3953	148.067	161.6372	199.8744	265.0252	281.4669	342.1879	400.6391	452.0062	544.9618	590.2981	598.8449	624.1991	691.5271	761.811	803.962	878.1109	942.8725	942.9371	1054.37	1091.2446	1139.9378	1151.2978	1247.7297	1350.99	1377.7905	1398.8099	1418.2853	1494.6894	1663.2011	2341.8695	3167.8604	3176.2644	3203.5917	3667.8052	3685.0309
OC1C(O)C1C(=O)C#N	O[C@H]1[C@@H](O)[C@H]1C(=O)C#N	
InChI=1S/C5H5NO3/c6-1-2(7)3-4(8)5(3)9/h3-5,8-9H	InChI=1S/C5H5NO3/c6-1-2(7)3-4(8)5(3)9/h3-5,8-9H/t3-,4+,5-
