17
gdb 75072	2.27128	1.78705	1.01266	4.9239	78.37	-0.2267	-0.023	0.2036	1135.2362	0.136642	-418.062192	-418.053989	-418.053045	-418.094874	30.897	
C	-0.0254969132	 1.5073462099	 0.0450162896	-0.504595
C	-0.0096048362	 0.0164121297	-0.0219575891	 0.38136
C	-0.0260487076	-0.7700450661	-1.1009441439	-0.225182
C	 0.0003260631	-2.2192087383	-0.7077220688	-0.340911
C	 0.0358951991	-2.1708878336	 0.8128126715	 0.378861
N	 0.0658539085	-3.1698027109	 1.5815705811	-0.52562
N	 0.0279014883	-0.7738849694	 1.1652149857	-0.180501
C	 0.0528541652	-0.2911157552	 2.4501947518	 0.152438
O	 0.0848990394	-0.9768341831	 3.451141761	-0.323416
H	 0.8652008469	 1.9042112197	 0.5457864015	 0.144518
H	-0.0544088883	 1.9135356778	-0.9678503641	 0.142488
H	-0.9003802213	 1.8834998087	 0.5878803741	 0.144515
H	-0.054502341	-0.4103213001	-2.1190864015	 0.110358
H	-0.8791666542	-2.7784776387	-1.0474611988	 0.146406
H	 0.8756115685	-2.7578286721	-1.0891449871	 0.146407
H	 0.0855596023	-2.8730725402	 2.558014753	 0.255584
H	 0.0411108705	 0.8110547217	 2.4905161441	 0.09729
92.9071	172.5974	217.6741	243.2119	251.893	282.2268	312.7228	476.2545	517.6579	524.2225	603.5873	607.2151	706.0855	756.2039	771.685	948.5173	961.0392	985.9904	1016.0335	1019.553	1037.882	1065.9507	1071.0926	1158.8926	1239.837	1277.0979	1295.2519	1327.9214	1397.6803	1421.5056	1453.7749	1457.1639	1479.3773	1492.1194	1714.4217	1746.1172	1805.026	2991.7349	3030.668	3040.5898	3067.4251	3081.3773	3132.3418	3241.0841	3485.3602
CC1=CCC(=N)N1C=O	CC1=CC[C]([NH])N1C=O	
InChI=1S/C6H8N2O/c1-5-2-3-6(7)8(5)4-9/h2,4,7H,3H2,1H3	InChI=1S/C6H8N2O/c1-5-2-3-6(7)8(5)4-9/h2,4,7H,3H2,1H3
