20
gdb 15709	2.69034	1.79385	1.25728	2.0885	70.29	-0.2393	0.0759	0.3152	1024.5822	0.177652	-386.139304	-386.13063	-386.129686	-386.172746	31.651	
C	-0.4979931157	 1.4423048626	-0.0647236943	-0.42096
C	 0.0399821439	 0.0127475435	 0.0052869098	-0.011742
C	 1.1292696849	-0.2991078991	-1.0507472199	-0.071279
O	 2.0784573586	-1.1712463918	-0.4432511324	-0.263507
C	 1.5709437219	-1.5997911308	 0.8169447596	-0.080544
C	 0.7150783604	-0.434869225	 1.326105383	-0.010877
C	 1.5796674392	 0.6337490765	 1.9926919342	-0.0865
O	 2.1381304403	 0.0536804874	 3.1653139053	-0.423865
H	 0.2993010678	 2.1832422565	 0.0532804532	 0.120028
H	-0.9741947733	 1.6270767096	-1.0336348332	 0.116789
H	-1.2488555092	 1.6264273829	 0.7105587203	 0.118329
H	-0.799876428	-0.6722050038	-0.1627780845	 0.080307
H	 0.6978730579	-0.7690963444	-1.945619095	 0.092401
H	 1.6543391592	 0.6099561911	-1.374075153	 0.093495
H	 0.961324988	-2.5113199903	 0.7056645216	 0.07967
H	 2.4178017545	-1.8236640181	 1.4692021906	 0.121244
H	-0.0242712805	-0.7735430567	 2.059138869	 0.077916
H	 2.3690158708	 0.9623182672	 1.2990042045	 0.097548
H	 0.9689402089	 1.5128064804	 2.2461620113	 0.084786
H	 2.7494633403	 0.6868600822	 3.5520349899	 0.28676
64.4701	104.978	161.5552	202.0034	256.339	259.8702	297.2834	338.1495	442.314	492.3138	639.5756	707.1833	837.6697	868.463	914.0917	938.1127	955.747	991.3423	1010.4828	1056.3518	1080.4803	1092.0066	1134.4865	1161.3843	1188.5137	1204.4053	1234.5038	1244.9003	1266.0928	1294.0169	1332.2098	1353.8395	1367.8072	1378.4575	1406.7542	1418.198	1459.3055	1498.5187	1504.32	1520.1741	1520.8562	1532.9755	2969.0214	2977.9156	2997.0194	3009.6976	3016.684	3032.5248	3036.9181	3064.3404	3095.9052	3104.8637	3108.7408	3833.9659
CC1COCC1CO	C[C@H]1COC[C@H]1CO	
InChI=1S/C6H12O2/c1-5-3-8-4-6(5)2-7/h5-7H,2-4H2,1H3	InChI=1S/C6H12O2/c1-5-3-8-4-6(5)2-7/h5-7H,2-4H2,1H3/t5-,6+/m0/s1
