19
gdb 117749	1.94827	1.22995	0.9534	2.1193	73.97	-0.2572	-0.0612	0.196	1330.2764	0.154249	-460.167834	-460.157043	-460.156099	-460.204663	36.456	
C	 0.3129410961	 1.434008623	 0.2184150373	-0.229639
O	 0.1736697116	 0.032081945	 0.1594127666	-0.246889
C	 0.790225367	-0.5375577962	-0.9748082488	-0.08872
C	 0.5405328078	-2.0442276049	-0.9205484254	 0.032705
C	 1.1753575716	-2.7271718334	 0.3021494389	-0.436868
C	-0.9780747904	-2.2908806508	-0.9346820398	 0.150921
O	-1.5159494979	-3.2258436452	-0.4057379242	-0.247299
C	 1.0779349902	-2.7108273544	-2.190343112	 0.128394
O	 1.4822636543	-2.1181236474	-3.1560054526	-0.245212
H	 1.3707911145	 1.7333860632	 0.2727952009	 0.111311
H	-0.139173969	 1.9243316824	-0.6572528222	 0.110806
H	-0.1995133711	 1.7742027416	 1.1209406144	 0.133767
H	 0.370434513	-0.1199749813	-1.9032060375	 0.107693
H	 1.8712840145	-0.3296433332	-0.9901821554	 0.103227
H	 0.8529559406	-2.2156654669	 1.2107091313	 0.152393
H	 0.8588091867	-3.7703049747	 0.3634042711	 0.142836
H	 2.2675742969	-2.6865299828	 0.2476379092	 0.120151
H	-1.5532737904	-1.5396498147	-1.5173597864	 0.096044
H	 1.0674315141	-3.8216226393	-2.1484742154	 0.104377
48.9503	82.2378	87.1327	116.9281	137.144	189.2388	233.313	257.5004	272.5178	306.289	350.5969	368.7129	424.6689	593.8678	671.6218	787.0402	873.7803	921.9961	959.1322	980.5537	1009.8111	1059.0382	1149.663	1172.4783	1177.1001	1201.0388	1232.8239	1237.3453	1286.4131	1391.2216	1402.2992	1420.8005	1426.0869	1481.0988	1485.7212	1486.5179	1502.5773	1502.8213	1522.6888	1802.7217	1841.8859	2900.2613	2902.6469	2974.523	2985.016	3012.73	3026.8489	3051.4756	3121.9929	3127.9376	3148.5141
COCC(C)(C=O)C=O	COCC(C)(C=O)C=O	
InChI=1S/C6H10O3/c1-6(3-7,4-8)5-9-2/h3-4H,5H2,1-2H3	InChI=1S/C6H10O3/c1-6(3-7,4-8)5-9-2/h3-4H,5H2,1-2H3
