16
gdb 75682	2.97551	1.27581	1.07051	1.6055	72.05	-0.2521	-0.0614	0.1907	1131.9627	0.122513	-437.867574	-437.859133	-437.858189	-437.900813	30.704	
C	-0.0504054744	 1.6682480599	-0.133089898	-0.416879
C	 0.0114476746	 0.1505998991	-0.0276467628	-0.191647
C	 1.0909008315	-0.6340864838	-0.8365912929	 0.451784
O	 1.2708358763	-0.8163353307	-2.0025478465	-0.297681
C	 1.6838523392	-1.2377254289	 0.4254618866	-0.220368
N	 2.0195324093	-0.1015774707	 1.3043510222	-0.352335
C	 0.6118339288	-0.4960914932	 1.2354700225	 0.237753
C	-0.0492473529	-1.113706587	 2.3970775886	 0.054398
O	 0.5528882135	-1.4666236064	 3.3865762247	-0.274875
H	 0.8948630521	 2.1124798149	 0.1861595559	 0.148463
H	-0.2403597644	 1.9634799172	-1.1691497991	 0.138084
H	-0.8545478301	 2.0755745704	 0.4876821679	 0.122651
H	-0.9567025978	-0.3069744231	-0.2706001192	 0.111493
H	 2.0991848466	-2.2240386607	 0.5950789655	 0.136718
H	 2.3894215954	-0.4995087162	 2.1715183782	 0.262111
H	-1.1464066376	-1.2512633808	 2.3011901465	 0.090329
87.6692	133.0491	182.3542	202.5983	207.3585	255.8241	324.5561	408.3291	490.5245	551.4077	640.7764	695.0779	761.3702	766.169	800.6266	889.0921	958.0364	1005.2726	1009.8987	1055.4035	1084.4454	1095.8916	1124.7575	1139.3849	1189.4975	1269.5097	1297.9355	1354.8943	1389.615	1405.71	1433.3362	1491.4854	1503.3261	1783.6514	1901.391	2917.5399	3035.7093	3044.8869	3111.1704	3135.1696	3198.4893	3443.9886
CC1C(=O)C2NC12C=O	C[C@H]1C(=O)[C@H]2N[C@@]12C=O	
InChI=1S/C6H7NO2/c1-3-4(9)5-6(3,2-8)7-5/h2-3,5,7H,1H3	InChI=1S/C6H7NO2/c1-3-4(9)5-6(3,2-8)7-5/h2-3,5,7H,1H3/t3-,5+,6-/m0/s1
