18
gdb 95925	2.20645	1.53226	1.27268	3.2862	71.82	-0.2815	0.0143	0.2958	1085.3734	0.146658	-439.103314	-439.094349	-439.093405	-439.137071	32.961	
C	-0.1857979885	 1.5520356023	-0.0660695144	-0.422774
C	 0.1493765025	 0.0753769713	-0.0563025016	 0.067664
O	 1.1820372409	-0.2080045241	-0.9892159336	-0.242987
C	 1.6248980452	-1.4864267277	-0.6319624393	 0.008208
O	 1.6572417675	-1.5211641845	 0.7883033467	-0.286029
C	 0.7478328455	-0.5268982215	 1.2696389726	 0.21622
C	 1.5291663155	 0.4578253125	 2.1431935672	-0.42706
C	-0.3205556932	-1.1745596108	 2.0560152603	 0.263001
N	-1.1737286395	-1.6548822295	 2.6696554184	-0.336939
H	 0.6933790712	 2.1622299312	 0.1507451553	 0.135023
H	-0.5657798931	 1.833772719	-1.0511689469	 0.140362
H	-0.9619838933	 1.7696195771	 0.6733371937	 0.138062
H	-0.7456480832	-0.5125762444	-0.3124913335	 0.096589
H	 0.9401690332	-2.2642725484	-1.0112180556	 0.100764
H	 2.6351952994	-1.6431721334	-1.0181112762	 0.129568
H	 2.2788817949	 0.9633768693	 1.5304659343	 0.138251
H	 0.8701865338	 1.1995608031	 2.6014968106	 0.134445
H	 2.0406580613	-0.0926877714	 2.9356752722	 0.147631
53.0034	147.7584	184.4666	221.4326	247.886	262.9118	271.7181	340.1161	380.5483	489.2699	527.8483	560.4764	605.314	726.4907	735.5432	888.7317	895.6929	917.3028	1001.901	1032.3712	1094.5059	1118.7829	1131.1754	1155.3636	1174.2097	1196.4615	1218.2047	1241.548	1362.3068	1387.7246	1408.4192	1417.8921	1426.7234	1475.3323	1483.8114	1494.9514	1502.8991	1542.092	2355.6926	2959.2717	2985.0185	3052.7656	3055.9979	3100.8923	3126.7218	3136.2739	3137.5359	3141.9384
CC1OCOC1(C)C#N	C[C@H]1OCO[C@]1(C)C#N	
InChI=1S/C6H9NO2/c1-5-6(2,3-7)9-4-8-5/h5H,4H2,1-2H3	InChI=1S/C6H9NO2/c1-5-6(2,3-7)9-4-8-5/h5H,4H2,1-2H3/t5-,6-/m1/s1
