20
gdb 117731	2.23758	1.02101	0.92393	5.3153	80.26	-0.2719	-0.0422	0.2297	1421.3587	0.167563	-403.179362	-403.168589	-403.167645	-403.21589	37.474	
C	-0.0955165484	 1.615650497	-0.04904139	-0.384041
C	 0.0119737226	 0.0893254692	 0.023165606	-0.193898
C	-1.3672224274	-0.5808354135	 0.0202298116	-0.198467
C	-1.3538012987	-2.1406523596	 0.0017048226	-0.052063
C	-0.6579689752	-2.736100836	 1.2498136602	-0.426827
C	-2.8226517188	-2.5897892961	 0.0297404194	 0.161905
O	-3.3964901305	-3.1792867253	-0.8407118676	-0.229011
C	-0.6993070124	-2.6252431172	-1.2180912423	 0.309145
N	-0.1473644875	-2.987813046	-2.1657889252	-0.339895
H	 0.8957125238	 2.0780212555	-0.042870162	 0.12241
H	-0.6065294231	 1.9340187074	-0.9638475743	 0.124434
H	-0.6562065949	 2.0174151166	 0.8022346071	 0.116666
H	 0.5951975153	-0.2809526003	-0.8275450345	 0.130825
H	 0.563752278	-0.1915767089	 0.9272767167	 0.104426
H	-1.9336265233	-0.2669039935	 0.90674875	 0.106115
H	-1.9333891109	-0.2369585629	-0.853403354	 0.127414
H	-1.1510681312	-2.3751027381	 2.1578245471	 0.129408
H	-0.7059180197	-3.8279325506	 1.2368071728	 0.14937
H	 0.3922495871	-2.4429481425	 1.2871915708	 0.151905
H	-3.3315679846	-2.2934407052	 0.9754452554	 0.090179
56.9706	68.6464	83.7723	151.8784	164.7216	199.3631	222.3829	245.1233	303.1246	325.9836	348.4453	381.7432	453.7105	584.9776	698.1089	722.5523	749.1899	862.1757	878.1567	919.9161	955.5502	995.8646	1041.001	1049.1581	1109.1413	1157.33	1177.1377	1235.8899	1292.0054	1322.7944	1342.5535	1390.65	1402.303	1414.9467	1425.1509	1477.8261	1490.5971	1493.5932	1498.9988	1502.2767	1510.5711	1847.688	2362.4473	2874.9481	3021.1799	3032.8723	3038.6319	3048.4318	3060.3605	3079.0035	3103.6496	3110.7913	3122.4017	3143.0656
CCCC(C)(C=O)C#N	CCC[C@@](C)(C=O)C#N	
InChI=1S/C7H11NO/c1-3-4-7(2,5-8)6-9/h6H,3-4H2,1-2H3	InChI=1S/C7H11NO/c1-3-4-7(2,5-8)6-9/h6H,3-4H2,1-2H3/t7-/m1/s1
