20
gdb 115189	4.1404	0.97343	0.82392	4.0823	83.89	-0.2258	-0.0479	0.178	1411.3006	0.171837	-403.175201	-403.166418	-403.165474	-403.208912	33.204	
C	-0.1111003398	 1.5808051235	 0.0418345687	-0.402646
C	-0.0289080111	 0.0530504289	-0.0168704779	-0.17854
C	 0.7186136452	-0.4852341427	-1.2513584295	 0.003839
N	 2.1051547744	-0.0308163421	-1.2468725893	-0.317403
C	 2.9345367014	-0.6298904504	-2.2871230501	-0.280257
C	 2.9648636753	-2.1488131826	-2.1448846926	 0.397764
O	 3.917986461	-2.8099690358	-2.5017852337	-0.330164
C	 1.719153744	-2.7500458611	-1.6322278905	-0.184109
C	 0.6765986625	-1.98800422	-1.2826760562	-0.020128
H	 0.8770324862	 2.0370616389	 0.1605816705	 0.124121
H	-0.5701234889	 1.9913888267	-0.8649841815	 0.115766
H	-0.7162198732	 1.9027871636	 0.8943724372	 0.122191
H	 0.4702965895	-0.3299088087	 0.8802303157	 0.114418
H	-1.0432962187	-0.364132046	-0.0258204306	 0.096863
H	 0.1649254625	-0.1317321579	-2.150661754	 0.069185
H	 2.1378099673	 0.9788130769	-1.3212593748	 0.225519
H	 2.5861292769	-0.4136449254	-3.3180683126	 0.099385
H	 3.9583823751	-0.256818686	-2.2066676242	 0.127098
H	 1.6769575825	-3.8345923998	-1.6171073593	 0.107954
H	-0.2666556122	-2.4451627001	-0.9916331152	 0.109145
62.2924	110.4275	165.2764	210.0328	250.5766	296.7578	364.4002	407.8152	430.9337	512.4698	537.913	621.458	696.9768	746.9041	772.9389	786.8725	878.0441	933.3871	964.1443	1005.1606	1016.3029	1024.88	1062.3686	1101.7358	1136.8067	1143.7907	1195.2469	1234.09	1262.5608	1284.218	1293.1551	1332.0705	1371.2773	1397.8429	1409.0636	1412.4	1476.1891	1480.4376	1488.094	1498.8096	1515.4749	1683.9054	1788.814	2839.417	2894.5186	3030.116	3032.1059	3072.1803	3098.4659	3101.68	3106.8452	3153.4656	3189.1401	3545.296
CCC1NCC(=O)C=C1	CC[C@H]1NCC(=O)C=C1	
InChI=1S/C7H11NO/c1-2-6-3-4-7(9)5-8-6/h3-4,6,8H,2,5H2,1H3	InChI=1S/C7H11NO/c1-2-6-3-4-7(9)5-8-6/h3-4,6,8H,2,5H2,1H3/t6-/m1/s1
