18
gdb 95539	2.96418	1.36593	1.10317	2.3585	72.04	-0.2472	-0.0288	0.2185	1112.141	0.147699	-439.107701	-439.099217	-439.098273	-439.14098	31.137	
C	 0.2475485987	 1.7940857969	-0.0030641547	-0.406197
C	 0.1144679474	 0.265757639	 0.071899647	-0.036519
C	 0.655525563	-0.4121528778	-1.1875380808	-0.084019
O	 2.0882770627	-0.2860815677	-1.2873194664	-0.225224
C	 2.7706467148	-0.3123540669	-0.1232555816	 0.136036
N	 2.3333900531	-0.3640686128	 1.0635655133	-0.289738
C	 0.8858055132	-0.3629210667	 1.2504492431	-0.060357
C	 0.5678195584	 0.2353246555	 2.6156972198	 0.148575
O	-0.4859470481	 0.7390629023	 2.9073648926	-0.254501
H	 1.2944285968	 2.10733587	-0.0559057931	 0.130413
H	-0.2591264355	 2.1744784216	-0.8956545531	 0.113351
H	-0.2076780837	 2.2626620394	 0.8707359003	 0.14732
H	-0.9455995065	 0.0094514053	 0.1675740213	 0.09871
H	 0.4081789145	-1.4807022531	-1.1995788613	 0.113789
H	 0.2607111584	 0.044309442	-2.0984087742	 0.121851
H	 3.8406279935	-0.2716693753	-0.3190043809	 0.13164
H	 0.5611902003	-1.4138289371	 1.3568569458	 0.116488
H	 1.4020261391	 0.1333075755	 3.3431507126	 0.098383
83.3333	135.6662	180.649	184.4762	202.0086	271.8204	362.2009	382.0524	474.5705	558.6963	631.4606	653.2714	740.2801	848.2572	878.3231	914.4376	962.3041	970.1587	981.8507	1000.7352	1074.4664	1108.2915	1125.4691	1166.2409	1196.9178	1265.6762	1279.277	1294.1935	1328.1846	1370.2229	1390.4055	1397.3363	1411.1669	1422.6816	1495.4744	1505.4169	1514.871	1727.1232	1831.1828	2907.8288	2946.9638	3031.7282	3046.7587	3061.2725	3102.5378	3110.3851	3142.925	3160.8522
CC1COC=NC1C=O	C[C@H]1COC=N[C@H]1C=O	
InChI=1S/C6H9NO2/c1-5-3-9-4-7-6(5)2-8/h2,4-6H,3H2,1H3	InChI=1S/C6H9NO2/c1-5-3-9-4-7-6(5)2-8/h2,4-6H,3H2,1H3/t5-,6-/m0/s1
