13
gdb 127772	3.69256	1.68893	1.16749	6.9447	66.45	-0.2608	-0.0435	0.2173	956.5084	0.091657	-445.054762	-445.04789	-445.046946	-445.086221	25.208	
C	-0.0141555687	 1.4647171627	-0.0561096133	-0.352629
N	-0.0072369834	 0.0246969374	 0.068941936	-0.125541
N	-0.0452581072	-0.7765844431	-1.0787313593	-0.135885
N	-0.0304555476	-2.0228385827	-0.7449216204	-0.258047
C	 0.0166764892	-2.081266117	 0.6166760259	 0.354751
C	 0.031592598	-0.7959909448	 1.130839122	 0.474739
N	 0.0781160488	-0.9539959523	 2.4648942135	-0.37163
N	 0.0910196912	-2.3227741848	 2.7465522857	-0.101793
N	 0.0538957838	-2.9838466607	 1.6399070192	-0.252547
H	 0.895027467	 1.8990037595	 0.3706221489	 0.149933
H	-0.054567439	 1.689333202	-1.1223093865	 0.180888
H	-0.8902027254	 1.8959960053	 0.4376701041	 0.149859
H	 0.1032156035	-0.3014726116	 3.2292354244	 0.287903
115.2226	155.6507	263.0708	265.5327	351.513	414.1645	538.9223	621.0268	648.4096	691.2105	724.1879	795.3087	833.1884	884.1704	935.3131	1021.224	1153.4288	1167.0719	1206.949	1275.2162	1337.9086	1349.497	1409.6466	1445.3228	1466.9077	1484.8812	1494.9716	1516.1345	1671.8838	3042.7416	3107.0566	3159.3464	3685.6037
CN1N=NC2=C1NN=N2	Cn1nnc2c1[nH]nn2	
InChI=1S/C3H4N6/c1-9-3-2(5-8-9)4-7-6-3/h1H3,(H,4,6,7)	InChI=1S/C3H4N6/c1-9-3-2(5-8-9)4-7-6-3/h1H3,(H,4,6,7)
