19
gdb 94596	3.25651	0.92132	0.83749	3.5371	73.04	-0.2481	0.0497	0.2978	1425.5318	0.159013	-456.367018	-456.35734	-456.356396	-456.402919	34.797	
C	-0.3292816822	 1.4445265342	 0.0484731691	-0.395964
C	 0.0703039861	-0.0177837685	 0.0176945454	 0.134639
O	 1.1794122209	-0.2744851573	-0.8808640244	-0.291247
C	 2.0289841989	-0.7218407991	 0.1905226408	-0.098532
C	 0.8818798766	-0.5946090388	 1.2172172284	-0.021584
N	 1.0947191904	 0.2220901292	 2.3792858283	-0.346576
C	 0.8867831074	-0.2689853463	 3.6535483116	 0.454892
N	 1.2778228496	 0.6079241891	 4.6584958227	-0.569204
O	 0.4332738489	-1.3732844256	 3.884926428	-0.385398
H	 0.5140669071	 2.0896748552	 0.3153888497	 0.101838
H	-0.6854990986	 1.7514359988	-0.9394345188	 0.13091
H	-1.1345190508	 1.6080394573	 0.7721194633	 0.121321
H	-0.7943127732	-0.635538108	-0.2582486407	 0.08152
H	 2.4219624267	-1.7309720703	 0.0209035476	 0.112173
H	 2.8744496652	-0.0396106744	 0.3639210312	 0.088594
H	 0.4987039324	-1.5473637127	 1.5791484645	 0.133113
H	 1.6671248548	 1.0450289749	 2.2790819127	 0.239977
H	 1.1980424729	 1.5974635294	 4.4770100161	 0.246908
H	 0.9295414866	 0.3302343329	 5.5636545544	 0.262619
34.0011	59.4685	79.7064	183.3178	210.5365	242.3617	341.7768	370.7605	393.9237	435.0239	449.2795	549.1651	562.862	634.692	763.9451	775.3674	849.7799	878.6372	917.5158	983.8913	1009.9367	1037.6654	1084.5595	1087.7181	1105.3803	1150.3522	1160.4341	1224.7685	1271.1212	1283.2535	1305.6653	1352.672	1382.5316	1392.536	1408.8951	1480.7262	1494.9589	1524.1389	1544.2592	1628.0727	1806.6301	2990.2252	3016.569	3035.704	3053.8367	3107.0866	3113.9038	3139.4393	3573.0746	3629.6705	3687.0364
CC1OCC1NC(N)=O	C[C@H]1OC[C@H]1NC(=O)N	
InChI=1S/C5H10N2O2/c1-3-4(2-9-3)7-5(6)8/h3-4H,2H2,1H3,(H3,6,7,8)	InChI=1S/C5H10N2O2/c1-3-4(2-9-3)7-5(6)8/h3-4H,2H2,1H3,(H3,6,7,8)/t3-,4-/m1/s1
