17
gdb 8120	3.90295	1.85113	1.50355	3.1311	69.39	-0.2446	0.0276	0.2722	881.624	0.142866	-363.878529	-363.87134	-363.870396	-363.909746	28.061	
C	-0.0778598789	 1.5956191032	 0.1805971289	-0.468708
C	 0.1185607187	 0.1133238499	 0.064777025	 0.428143
C	-0.8189786132	-0.912577337	 0.6393148716	-0.343996
C	 0.6163217644	-0.8183245889	 1.136077864	-0.110736
C	 1.635550115	-1.7187883909	 0.4698452076	-0.310651
C	 1.5365442154	-1.3575932333	-1.0054718141	 0.385181
N	 2.1132763526	-1.9656570995	-1.9482694914	-0.535458
O	 0.7235274146	-0.2655793269	-1.1685476063	-0.267436
H	 0.8765988067	 2.1240434188	 0.0912760776	 0.129354
H	-0.7465314733	 1.9629274714	-0.6045898586	 0.133924
H	-0.5222514199	 1.8431546053	 1.148500053	 0.122961
H	-1.5982576405	-0.5633860681	 1.3081869059	 0.118483
H	-1.0998561721	-1.7545815707	 0.0140877735	 0.12526
H	 0.7960306494	-0.4635531158	 2.1438011559	 0.097615
H	 2.6496108897	-1.5085066558	 0.8254322365	 0.135791
H	 1.4595414952	-2.7885805645	 0.6084492943	 0.138321
H	 1.886322106	-1.533725917	-2.8454066034	 0.221951
96.7588	203.2961	215.3511	292.0388	392.5601	433.4698	456.9441	530.1059	598.9875	663.8031	739.1664	831.6172	845.6706	862.5772	891.6833	935.6243	957.9753	960.848	1037.4372	1050.997	1070.3525	1098.0046	1104.2296	1134.3633	1194.7607	1226.0299	1270.9142	1306.5265	1338.3338	1397.7402	1429.8283	1471.1254	1479.0294	1487.0943	1505.1302	1776.7622	3038.4281	3058.8395	3101.1695	3104.6932	3119.42	3126.5558	3182.0523	3217.2649	3475.3998
CC12CC1CC(=N)O2	C[C@]12C[C@H]1C[C]([NH])O2	
InChI=1S/C6H9NO/c1-6-3-4(6)2-5(7)8-6/h4,7H,2-3H2,1H3	InChI=1S/C6H9NO/c1-6-3-4(6)2-5(7)8-6/h4,7H,2-3H2,1H3/t4-,6+/m1/s1
