19
gdb 100553	2.22587	1.27703	0.90229	2.6456	72.7	-0.267	-0.0435	0.2235	1317.349	0.156724	-460.152932	-460.143258	-460.142314	-460.187986	34.819	
C	-0.2831053333	 0.668884535	 0.7502345322	-0.382373
C	-0.0359049586	-0.6214706133	-0.0360647973	-0.204984
C	 0.6954429552	-0.3420216279	-1.3659153211	 0.057132
O	 1.8753844657	 0.3858753126	-1.1414790689	-0.439441
C	 1.044390726	-1.6106145536	-2.1467729522	 0.312586
O	 2.2084178554	-1.8784866425	-2.3693722884	-0.332898
C	-0.0249829915	-2.4950000397	-2.7220496637	-0.000421
C	-0.9249799794	-3.313404933	-1.8853771183	-0.174546
O	-1.3942202634	-2.1406842903	-2.5409854438	-0.214169
H	 0.6600903345	 1.1807153738	 0.9517703272	 0.142932
H	-0.9273500149	 1.3535388749	 0.1877522405	 0.116786
H	-0.7744488997	 0.4530158059	 1.7036578473	 0.109982
H	 0.5741104106	-1.3096456122	 0.5624241027	 0.098651
H	-0.9893058266	-1.1107166588	-0.2544156642	 0.11776
H	 0.0131373403	 0.2409220793	-2.0083201734	 0.100866
H	 2.5941945671	-0.1763052111	-1.4727682067	 0.293206
H	 0.2364124738	-2.8824337412	-3.7061774731	 0.129625
H	-1.2890603584	-4.2561840663	-2.2889166322	 0.136679
H	-0.861190773	-3.2566940115	-0.8015232067	 0.132627
59.266	94.9171	120.3116	157.2827	200.6096	231.5738	272.6306	317.7332	370.1556	419.8594	458.245	517.0126	588.2794	669.5274	787.9179	845.9664	885.8426	890.24	929.6901	969.9216	1001.7858	1070.0443	1079.3158	1121.2185	1150.5556	1158.4418	1166.4772	1205.3215	1265.2484	1289.8634	1292.9375	1337.4607	1366.3215	1398.0351	1407.1948	1439.2552	1482.3427	1493.7086	1508.6112	1525.3299	1776.3218	2963.6027	3030.4061	3039.7574	3094.7368	3101.288	3105.2687	3126.5605	3136.4589	3194.6896	3678.2956
CCC(O)C(=O)C1CO1	CC[C@@H](O)C(=O)[C@H]1CO1	
InChI=1S/C6H10O3/c1-2-4(7)6(8)5-3-9-5/h4-5,7H,2-3H2,1H3	InChI=1S/C6H10O3/c1-2-4(7)6(8)5-3-9-5/h4-5,7H,2-3H2,1H3/t4-,5-/m1/s1
