19
gdb 85679	2.22861	1.374	1.17013	4.8116	75.89	-0.2613	0.0028	0.2641	1164.3483	0.157751	-419.200539	-419.190809	-419.189864	-419.235225	35.693	
C	-0.7806376836	 1.3336308241	-0.0259726345	-0.414591
C	 0.0152316608	 0.0480108277	-0.0554581129	 0.161539
O	 1.2616221032	 0.1875417434	-0.7905208821	-0.305306
C	 1.9955468833	-0.5127554236	 0.2245660144	 0.008172
C	 3.2266800831	 0.174646839	 0.6146940009	 0.277471
N	 4.1973447256	 0.7039445546	 0.9516388258	-0.330776
C	 0.7728412669	-0.4773945544	 1.2031980384	 0.157456
C	 0.9079688817	 0.4986176688	 2.3687980506	-0.454454
N	 0.3417655916	-1.8191394364	 1.5845473899	-0.548504
H	-0.2049351965	 2.1584405683	 0.4000741842	 0.13073
H	-1.0653360329	 1.6090600668	-1.046135921	 0.13805
H	-1.6998819594	 1.2045303468	 0.5555914286	 0.119024
H	-0.5831582035	-0.7639045593	-0.4900176138	 0.08572
H	 2.2349896058	-1.5406206318	-0.074174833	 0.124605
H	 1.2779664894	 1.4787422538	 2.0565377768	 0.142707
H	-0.0600624681	 0.6367115608	 2.8616818421	 0.115277
H	 1.6129181643	 0.1051212003	 3.1090769487	 0.128158
H	 0.8766871839	-2.1394023281	 2.3891870107	 0.232273
H	-0.6268457055	-1.7866108608	 1.8946617962	 0.23245
39.7572	136.8505	150.3463	202.4765	226.9666	239.4628	287.8436	303.8538	357.059	380.8332	422.0188	490.1077	546.6864	565.4911	663.7844	773.7096	842.3884	891.8833	899.4795	974.2358	980.1192	1022.5874	1046.6058	1070.409	1102.7607	1154.1592	1183.6357	1235.1585	1257.994	1312.5706	1332.6526	1344.9307	1394.5174	1414.3869	1422.6133	1476.0637	1486.5953	1494.9461	1506.1143	1653.5685	2354.6833	3015.6738	3033.9392	3036.9348	3042.017	3101.4195	3108.9942	3117.5877	3131.3223	3469.46	3544.9717
CC1OC(C#N)C1(C)N	C[C@H]1O[C@@H](C#N)[C@]1(C)N	
InChI=1S/C6H10N2O/c1-4-6(2,8)5(3-7)9-4/h4-5H,8H2,1-2H3	InChI=1S/C6H10N2O/c1-4-6(2,8)5(3-7)9-4/h4-5H,8H2,1-2H3/t4-,5+,6-/m1/s1
