17
gdb 126669	6.48603	0.71997	0.65596	3.1982	71.97	-0.2404	-0.0388	0.2016	1671.7518	0.134744	-455.114446	-455.10567	-455.104726	-455.149373	30.728	
C	 0.0088717233	 1.5123818437	 0.0086962257	-0.385507
C	-0.0463892616	-0.01761712	 0.0028776446	-0.190508
C	-1.4761797064	-0.5314456954	 0.0135048578	-0.054203
O	-1.4204413452	-1.9697500298	 0.0070923399	-0.276649
C	-2.5893107393	-2.612516674	 0.0148483895	 0.343068
C	-2.8164512379	-3.9561898765	 0.0110403588	-0.07418
O	-4.1423887084	-4.1416494088	 0.0216801866	-0.152879
N	-4.7397367914	-2.8709615471	 0.0338777767	-0.009116
N	-3.8173392536	-2.0003622425	 0.0285818112	-0.20575
H	 1.0440302553	 1.8641838671	 0.0009093539	 0.122858
H	-0.4923844918	 1.9338793252	-0.8692493027	 0.122574
H	-0.4766056603	 1.9265841317	 0.8988949691	 0.122576
H	 0.4636979463	-0.4140464607	-0.8823887931	 0.112213
H	 0.4793689387	-0.4212961867	 0.8756113564	 0.112216
H	-2.0187591631	-0.1933685559	 0.9045938267	 0.121749
H	-2.0345344391	-0.1860838363	-0.8649584731	 0.121733
H	-2.1817695155	-4.8240796041	 0.0013905419	 0.169804
46.897	63.1484	111.4036	131.9602	234.9867	286.6065	340.804	343.237	511.9812	643.9515	714.2303	731.5401	747.7616	765.5299	783.0401	896.5591	914.8896	986.6267	1012.6344	1052.1293	1075.5861	1128.3703	1145.3955	1187.5953	1269.0952	1307.4738	1316.5299	1330.4278	1342.3888	1412.1955	1422.1945	1436.4475	1492.503	1502.0402	1505.5862	1520.7311	1660.9422	3025.0092	3035.9392	3042.222	3060.2475	3081.848	3105.8934	3114.1152	3305.039
CCCOC1=CON=N1	CCCOc1conn1	
InChI=1S/C5H8N2O2/c1-2-3-8-5-4-9-7-6-5/h4H,2-3H2,1H3	InChI=1S/C5H8N2O2/c1-2-3-8-5-4-9-7-6-5/h4H,2-3H2,1H3
