15
gdb 14897	4.82988	1.53293	1.21225	4.7276	67.1	-0.2656	-0.0004	0.2651	948.3844	0.120155	-362.675375	-362.668399	-362.667455	-362.706632	25.99	
N	-0.0126542999	-1.1443829409	-0.0740300185	-0.314897
C	 0.0122252005	 0.0090280886	-0.0274112068	 0.28166
C	-0.0134121327	 1.4758617445	 0.0475877628	-0.025751
C	-0.7066630314	 1.9719942932	 1.3293304077	-0.255872
C	-0.4814678882	 3.4551610033	 1.4616053532	-0.076618
C	 0.4655084379	 4.0822346564	 0.7687494246	-0.063282
C	 1.4019145259	 3.3483865317	-0.1490330174	-0.11817
O	 1.3246233225	 1.9361877192	-0.0154159131	-0.256258
H	-0.5808723789	 1.8424882034	-0.8242000819	 0.117873
H	-1.7768178774	 1.7406712549	 1.2786092472	 0.126255
H	-0.3081426945	 1.4310735924	 2.1963118551	 0.138874
H	-1.1306032848	 4.0026358	 2.1384176406	 0.10245
H	 0.6000989212	 5.1578536842	 0.8394022056	 0.102421
H	 1.2192191824	 3.6442712029	-1.1977731675	 0.108842
H	 2.4432147775	 3.6046693162	 0.0755475983	 0.132473
115.6491	158.9911	191.0605	313.5239	395.8586	430.17	500.7822	549.647	574.1903	673.7835	773.1987	872.0095	926.2624	956.9875	995.3974	998.4566	1038.698	1063.1332	1069.6305	1119.6552	1207.9921	1213.8415	1261.1506	1308.3775	1358.8419	1378.7419	1396.3501	1411.0938	1470.0976	1486.641	1727.6952	2370.0333	2948.1206	2969.1655	3034.4121	3063.8733	3071.9648	3162.491	3183.9286
N#CC1CC=CCO1	N#C[C@H]1CC=CCO1	
InChI=1S/C6H7NO/c7-5-6-3-1-2-4-8-6/h1-2,6H,3-4H2	InChI=1S/C6H7NO/c7-5-6-3-1-2-4-8-6/h1-2,6H,3-4H2/t6-/m1/s1
