19
gdb 41655	3.15099	1.96021	1.62105	1.3878	76.98	-0.2418	0.0942	0.336	885.7648	0.163145	-385.843907	-385.837753	-385.836809	-385.874025	26.706	
C	-0.0014199804	 1.5870769048	-0.004647309	-0.105233
O	 1.2650371256	 2.2190569131	-0.0761670926	-0.241674
C	 2.0562519037	 1.7629396798	-1.1598489644	-0.105232
C	 2.2050101179	 0.2453922191	-1.173514795	-0.018761
C	 2.4992545783	-0.4932147849	 0.1360375932	-0.064517
C	 1.1635140618	-0.6073464254	 0.8859616618	-0.064518
C	 1.5248193581	-1.598390716	-0.1945549204	-0.104824
C	 0.8753680358	-0.5678138925	-1.1945077632	-0.092513
C	 0.1069206671	 0.0660769	 0.0043935643	-0.01876
H	-0.46659907	 1.9572746016	 0.9153638919	 0.104061
H	-0.6392311414	 1.9015651149	-0.8509820002	 0.079735
H	 1.6237938154	 2.0949883775	-2.1214682467	 0.079736
H	 3.0278273256	 2.2559305433	-1.0464477109	 0.104062
H	 2.8814461279	-0.0741777264	-1.9727167117	 0.066716
H	 3.4395819649	-0.5684664703	 0.6670432413	 0.08194
H	 1.1423789085	-0.7647461056	 1.9567670598	 0.08194
H	 1.618172234	-2.6740310738	-0.191974385	 0.088813
H	 0.3688064837	-0.7932326461	-2.1311128814	 0.062313
H	-0.8768516167	-0.3953885432	 0.1372734482	 0.066717
232.9881	244.0378	372.9606	375.5407	458.2235	610.7132	695.7529	743.8872	782.8573	790.3082	796.529	827.9444	860.5614	877.754	884.0904	907.2148	983.4696	997.9522	1013.5462	1029.8204	1033.421	1044.2744	1063.1568	1079.767	1116.984	1138.2736	1161.6474	1173.6473	1183.2726	1228.8704	1253.6529	1274.8725	1295.1183	1331.2448	1348.8235	1354.4515	1368.4756	1389.7182	1423.419	1485.4443	1496.2986	2938.4561	2944.8988	3057.9648	3058.1275	3066.0808	3069.004	3130.3426	3190.2588	3197.7239	3228.6923
C1OCC2C3C4C3C2C14	C1OC[C@H]2[C@H]3[C@@H]4[C@H]3[C@H]2[C@H]14	
InChI=1S/C8H10O/c1-3-5-4(2-9-1)7-6(3)8(5)7/h3-8H,1-2H2	InChI=1S/C8H10O/c1-3-5-4(2-9-1)7-6(3)8(5)7/h3-8H,1-2H2/t3-,4+,5-,6+,7-,8+
