21
gdb 103358	3.09543	1.41407	1.2749	1.4491	82.33	-0.2185	0.0209	0.2393	1100.5741	0.182524	-387.054472	-387.046027	-387.045083	-387.086991	34.145	
C	 0.8174746426	-0.4516148561	 1.293931874	-0.37575
C	 0.0373619745	-0.0384122404	 0.0396696417	-0.269017
C	-1.3876533646	-0.6073053584	-0.0056982288	 0.476621
O	-2.1084440122	-0.1143164741	 1.1020135547	-0.480548
C	-2.1003780285	-0.6027944801	-1.4339214725	-0.15586
C	-1.2680935015	-1.8986421894	-1.7265654954	-0.225603
C	-1.5653672776	-2.1601357447	-0.2108050131	-0.122659
C	-3.0974173718	-2.2553291638	-0.2699998514	-0.074962
C	-3.4427519707	-1.2434483892	-1.0701668564	-0.077248
H	 1.7888070171	 0.0505339414	 1.3331080823	 0.108954
H	 0.2611576961	-0.1995394805	 2.2002444058	 0.124989
H	 1.0002602932	-1.5309589029	 1.3068500352	 0.119774
H	-0.05081369	 1.0588166617	 0.008798969	 0.083933
H	 0.6048955646	-0.3074364916	-0.8537614552	 0.10384
H	-1.9448143803	 0.8323654704	 1.1678005722	 0.273166
H	-2.0835405779	 0.2673472865	-2.0918727402	 0.050697
H	-1.7221363132	-2.6033733643	-2.4239768169	 0.098003
H	-0.2176700832	-1.7380948185	-1.9763777831	 0.092882
H	-1.0157423533	-2.8905902578	 0.3828033482	 0.058517
H	-3.7125181066	-2.9685778649	 0.2589235497	 0.096237
H	-4.4209813466	-0.8993300433	-1.3734805297	 0.094033
94.3634	153.3003	207.3255	260.5243	284.9824	311.8984	391.7532	413.9135	508.6364	547.9517	579.2961	635.3119	730.4315	772.3496	789.4774	822.4476	832.8568	892.8688	910.9491	924.5552	939.2885	968.1235	986.5199	1001.0846	1042.786	1085.5337	1093.4517	1104.3372	1127.1161	1130.1312	1199.9564	1213.9824	1224.6052	1239.6857	1254.2434	1285.2584	1315.6168	1359.5792	1386.4602	1407.7307	1479.2054	1495.8729	1503.913	1515.0375	1626.3277	2989.7421	3041.7365	3071.5937	3095.593	3104.6069	3105.7322	3117.4346	3125.4182	3139.9031	3221.2582	3248.4633	3806.3482
CCC1(O)C2CC1C=C2	CC[C@@]1(O)[C@H]2C[C@@H]1C=C2	
InChI=1S/C8H12O/c1-2-8(9)6-3-4-7(8)5-6/h3-4,6-7,9H,2,5H2,1H3	InChI=1S/C8H12O/c1-2-8(9)6-3-4-7(8)5-6/h3-4,6-7,9H,2,5H2,1H3/t6-,7+,8-
