17
gdb 33426	2.66677	1.13617	0.84048	1.1427	80.63	-0.2545	0.0074	0.2619	1356.4565	0.131762	-384.577311	-384.567806	-384.566862	-384.61243	34.836	
C	 0.6195824932	-1.0480491328	-0.1314923805	-0.46883
C	 0.3496246018	 0.121252139	-0.0848163969	 0.361879
C	-0.002309451	 1.5502004087	-0.0199469115	-0.240803
O	 1.1349849332	 2.4057443818	 0.0719789249	-0.243131
C	 1.7363950671	 2.415766401	 1.3364978293	 0.151879
C	 2.8558167963	 1.4565731813	 1.6455457579	-0.280899
C	 3.14046724	 2.9216061838	 1.3826786627	-0.294325
C	-0.7769490111	 1.9508212752	-1.1973258259	 0.313516
C	-1.4347644306	 2.2732506187	-2.1475651021	-0.408715
H	 0.8615237398	-2.08137367	-0.1786734501	 0.204096
H	-0.6340546297	 1.7006709567	 0.872516985	 0.125119
H	 1.0562402169	 2.6935426644	 2.1426756732	 0.086817
H	 2.9456409354	 1.0756798374	 2.6569592972	 0.11277
H	 3.1225689435	 0.7545126147	 0.8658772964	 0.13168
H	 3.590703283	 3.1742254578	 0.4295863011	 0.130721
H	 3.4292880022	 3.5623033216	 2.2079356445	 0.115682
H	-2.0098380402	 2.5587440207	-2.9937776752	 0.202545
36.3942	90.0215	129.6798	133.3787	213.9421	261.6837	330.907	377.3224	409.8443	515.1008	560.9092	603.7937	635.607	639.2525	674.3311	675.3332	755.9626	818.1347	841.2895	895.2731	972.558	977.062	1041.9701	1049.865	1065.3682	1074.1747	1124.1943	1192.6613	1198.4721	1240.856	1322.1262	1325.6303	1406.1169	1455.2648	1497.4621	2236.7714	2251.1309	2952.6292	3092.4094	3141.5272	3145.9885	3227.3152	3242.9787	3500.551	3503.6308
C#CC(OC1CC1)C#C	C#CC(OC1CC1)C#C	
InChI=1S/C8H8O/c1-3-7(4-2)9-8-5-6-8/h1-2,7-8H,5-6H2	InChI=1S/C8H8O/c1-3-7(4-2)9-8-5-6-8/h1-2,7-8H,5-6H2
