20
gdb 107763	3.55955	1.42098	1.37994	1.3754	76.59	-0.2252	0.0812	0.3064	1028.0116	0.173397	-403.131022	-403.123571	-403.122627	-403.162956	30.064	
C	-0.046153535	 1.3471245806	 0.0518467599	-0.260092
O	 0.0447157033	-0.0596417914	-0.0456986943	-0.310878
C	 0.6863523335	-0.5511419973	-1.1826670061	 0.390679
C	 2.179574977	-0.1977608862	-1.4390902523	-0.292702
C	 2.3237302409	-1.037489156	-2.6982435356	-0.033737
C	 1.4187601903	-2.2156143808	-2.5610238633	-0.036459
C	 0.7181336188	-2.0930052407	-1.218633856	-0.274267
N	 1.0207658048	-1.0679073135	-3.4240985435	-0.12958
C	 0.0992738804	-0.2642623442	-2.5899744964	-0.209604
H	 0.9427784327	 1.8242941997	 0.095570435	 0.111054
H	-0.6092597062	 1.7864457731	-0.7833170664	 0.112263
H	-0.5779110152	 1.562583702	 0.9814441117	 0.129414
H	 2.3501732779	 0.8682785248	-1.6168818165	 0.099778
H	 2.8309473127	-0.5311292516	-0.6254386318	 0.105456
H	 3.2200452394	-1.0373571719	-3.306959339	 0.090259
H	 1.5901384785	-3.164068694	-3.0552549394	 0.090414
H	 1.2965890031	-2.5147926942	-0.3913886788	 0.105562
H	-0.2874500993	-2.5231827167	-1.2040128446	 0.106731
H	-0.9292274827	-0.6203255182	-2.7018489918	 0.106034
H	 0.149121395	 0.7865427065	-2.8894408012	 0.099676
66.3768	190.1396	218.2728	332.9043	381.5008	440.9878	462.2779	476.2072	607.1836	659.0961	671.4978	787.0098	802.0211	837.8933	915.6077	942.4892	945.4504	958.8216	978.1371	1013.6972	1035.0755	1055.9316	1059.06	1124.1421	1133.1216	1164.8711	1181.26	1186.3643	1216.4025	1223.9187	1232.646	1253.892	1260.9081	1277.6438	1325.1602	1335.2278	1389.0187	1483.6145	1484.2776	1490.497	1491.3413	1507.7793	1518.3183	2993.7768	3042.046	3052.2203	3053.0698	3059.616	3097.8415	3103.0441	3106.267	3118.0193	3178.531	3189.9268
COC12CC3C(C1)N3C2	CO[C@@]12C[C@H]3[C@@H](C1)N3C2	
InChI=1S/C7H11NO/c1-9-7-2-5-6(3-7)8(5)4-7/h5-6H,2-4H2,1H3	InChI=1S/C7H11NO/c1-9-7-2-5-6(3-7)8(5)4-7/h5-6H,2-4H2,1H3/t5-,6+,7-,8?
