23
gdb 120495	3.18528	0.92147	0.82428	1.2957	82.44	-0.2418	0.0733	0.3152	1525.4581	0.20377	-425.404472	-425.393929	-425.392984	-425.440888	37.745	
C	-0.5408917332	 1.349413197	-0.1833276434	-0.224144
O	-0.7292862965	-0.0196402814	-0.449922731	-0.236288
C	-0.760228342	-0.8096026019	 0.7188650423	-0.077485
C	-0.9216323146	-2.259754284	 0.298553273	 0.119493
O	-0.9172783929	-3.1347191417	 1.4448505213	-0.319523
C	-2.1386546447	-3.7906994668	 1.0175404708	 0.156607
C	-3.1690468831	-3.8633144117	 2.126816001	-0.400409
C	-2.3046186265	-2.7911044198	-0.1656124199	-0.066982
C	-3.489542922	-1.8326936637	-0.1699085447	-0.414448
H	-0.5306082807	 1.8725694805	-1.142702611	 0.12649
H	-1.3523359021	 1.7609469207	 0.4376314897	 0.104258
H	 0.4133397989	 1.5357714869	 0.3342962791	 0.105925
H	 0.1772653602	-0.7109275772	 1.29229966	 0.095158
H	-1.5811397455	-0.5002722876	 1.3848368074	 0.085852
H	-0.1111718678	-2.5075141857	-0.4008739537	 0.077488
H	-1.9129187466	-4.8080718737	 0.6663097931	 0.070232
H	-3.4140115384	-2.8719281482	 2.5164778061	 0.118048
H	-4.0893306069	-4.3377021652	 1.7689335621	 0.114679
H	-2.7778631496	-4.4640653022	 2.954152053	 0.126217
H	-2.2468710681	-3.2879299941	-1.137190463	 0.076219
H	-3.6374471357	-1.3415136825	 0.7956907594	 0.117583
H	-3.3354954719	-1.0498767871	-0.9181346144	 0.132928
H	-4.4162746405	-2.3617933907	-0.4150418773	 0.112102
35.0071	71.6184	97.4662	166.1111	207.2701	215.1442	224.4141	269.5716	286.0414	348.1138	380.5802	419.0427	486.0005	549.7119	758.1731	766.8029	813.0899	893.5269	984.3958	996.2579	999.1764	1039.8369	1046.8387	1057.7679	1095.4759	1150.7762	1168.3401	1169.7673	1188.4983	1194.5346	1226.354	1234.9102	1270.1622	1279.6616	1324.2548	1366.9475	1378.9431	1388.9569	1407.8906	1416.1488	1436.5318	1478.3181	1481.1736	1485.3522	1491.642	1495.2208	1505.1236	1510.898	1529.2039	2960.4342	2973.6662	2989.4383	2992.3072	3012.2551	3015.6512	3036.4394	3042.0453	3071.5284	3104.2334	3107.1147	3113.0341	3115.9615	3123.4039
COCC1OC(C)C1C	COC[C@H]1O[C@@H](C)[C@H]1C	
InChI=1S/C7H14O2/c1-5-6(2)9-7(5)4-8-3/h5-7H,4H2,1-3H3	InChI=1S/C7H14O2/c1-5-6(2)9-7(5)4-8-3/h5-7H,4H2,1-3H3/t5-,6+,7-/m1/s1
