19
gdb 115537	2.60367	1.11414	1.01677	2.5436	76.9	-0.2428	0.0123	0.2551	1285.8198	0.158311	-419.194853	-419.185232	-419.184288	-419.229429	35.075	
C	 0.0109768485	 1.5353559973	-0.210726095	-0.394578
C	 0.0541766264	 0.0258910687	 0.0478266884	-0.170514
C	-1.3427781356	-0.5709880771	 0.0967981344	 0.013468
N	-2.0998571463	-0.545983048	-1.1811683764	-0.322182
C	-2.5913567664	-1.9231700914	-0.9693698915	-0.214592
C	-1.4898776835	-2.1304412026	 0.1157283013	 0.23944
O	-0.3118337998	-2.7504457749	-0.3418714626	-0.451771
C	-1.9386976573	-2.7260462872	 1.3788017955	 0.225904
N	-2.2957697913	-3.2175364675	 2.3626128084	-0.338791
H	 1.0205538259	 1.953178126	-0.2592395697	 0.119064
H	-0.4851849144	 1.7502356532	-1.1626686885	 0.126448
H	-0.5307475535	 2.0641107922	 0.5820174775	 0.111358
H	 0.6218228534	-0.4766258622	-0.7392104619	 0.121915
H	 0.5605414859	-0.1832850395	 0.998099722	 0.103752
H	-1.9066602543	-0.1441942712	 0.939223012	 0.081647
H	-2.8254945201	 0.1588154642	-1.235802169	 0.226276
H	-3.6050450812	-2.0054487111	-0.5576811014	 0.11364
H	-2.4971722813	-2.5795182379	-1.8413071596	 0.114172
H	-0.479321465	-3.6945316809	-0.4408963538	 0.295344
78.6259	90.6365	150.6575	165.1252	204.9379	236.9213	277.8703	296.8567	381.0766	398.9471	486.2832	533.8016	598.5423	619.926	729.9396	768.4067	862.78	917.9134	952.2625	978.4149	996.0493	1022.7734	1049.5424	1104.9131	1127.8623	1146.1765	1172.395	1207.5205	1263.274	1289.4056	1312.7537	1352.1227	1369.3235	1377.9083	1401.1028	1410.7949	1479.492	1500.111	1500.935	1509.6482	2348.292	2992.7206	3017.636	3031.2807	3040.2911	3071.5568	3090.0236	3110.9516	3113.8366	3544.794	3805.2215
CCC1NCC1(O)C#N	CC[C@H]1NC[C@]1(O)C#N	
InChI=1S/C6H10N2O/c1-2-5-6(9,3-7)4-8-5/h5,8-9H,2,4H2,1H3	InChI=1S/C6H10N2O/c1-2-5-6(9,3-7)4-8-5/h5,8-9H,2,4H2,1H3/t5-,6-/m1/s1
