16
gdb 20937	7.34144	1.07057	0.94714	4.2172	67.47	-0.2095	-0.0015	0.208	1196.7438	0.131324	-379.904864	-379.897211	-379.896266	-379.937382	27.682	
C	-0.0118268605	 1.5353108694	-0.0062930396	-0.402494
C	-0.0420494708	 0.0128464798	 0.0606318918	-0.115787
N	-1.3990787873	-0.4880494038	-0.1161209868	-0.402643
C	-1.5926841245	-1.8621296291	-0.0379152065	 0.18784
C	-0.6882614541	-2.8840863796	-0.0661990788	-0.006146
O	-1.3310566276	-4.0752795471	-0.0336568216	-0.172158
N	-2.6907820665	-3.8539726409	 0.030833297	-0.126954
C	-2.8410934761	-2.5532077105	 0.0227326844	-0.047938
H	 1.0124291556	 1.9034525049	 0.0964811374	 0.12622
H	-0.4154979419	 1.890369153	-0.9587298096	 0.133617
H	-0.6049699219	 1.9780142852	 0.8023477515	 0.118151
H	 0.5743313058	-0.4058390989	-0.7451377431	 0.116051
H	 0.4020946994	-0.3356165117	 1.0094096276	 0.095529
H	-2.0800232967	 0.0351758178	 0.4184482208	 0.23349
H	 0.3863984245	-2.9296654007	-0.1143199929	 0.139142
H	-3.8365695074	-2.1327408678	 0.0610721285	 0.124079
75.513	98.289	140.9271	249.2231	334.6539	344.5345	420.3792	567.	610.9864	671.6495	760.4251	768.3113	824.0507	885.5022	922.7082	932.1553	940.6565	1030.0475	1083.9445	1132.5346	1151.9453	1164.6463	1225.5326	1291.9117	1309.0987	1347.468	1403.1427	1422.3523	1481.5166	1490.2334	1499.3249	1518.0146	1527.6402	1677.2877	2950.9049	3032.6758	3038.8583	3104.0797	3124.8172	3237.6792	3285.6662	3566.3204
CCNC1=CON=C1	CCNc1conc1	
InChI=1S/C5H8N2O/c1-2-6-5-3-7-8-4-5/h3-4,6H,2H2,1H3	InChI=1S/C5H8N2O/c1-2-6-5-3-7-8-4-5/h3-4,6H,2H2,1H3
