17
gdb 6750	7.22217	0.67307	0.62281	3.8941	76.27	-0.2486	-0.0143	0.2343	1770.0135	0.140193	-363.877388	-363.86739	-363.866446	-363.915195	33.247	
C	-0.0253346948	 1.5596502674	-0.0028669254	-0.383813
C	-0.0007808437	 0.0302826343	 0.00279692	-0.155658
C	 0.7400509155	-0.5358195093	 1.2321239617	-0.345352
C	 0.7781915114	-1.9914230031	 1.2622222513	 0.000918
C	 0.7921003694	-3.197408612	 1.2576762587	 0.098246
C	 0.7776746482	-4.6508209425	 1.1906711724	 0.258532
N	 1.3732837861	-5.257392601	 2.2606654196	-0.520288
O	 0.2726336915	-5.2674262395	 0.2720082605	-0.335852
H	 0.9887679478	 1.9744186469	-0.0193272908	 0.116893
H	-0.554441179	 1.9403000492	-0.8812645949	 0.119771
H	-0.5300985758	 1.9533796553	 0.8864535108	 0.11697
H	-1.0219018462	-0.3656934712	-0.006879531	 0.117492
H	 0.4839606333	-0.344936648	-0.9048443543	 0.117481
H	 1.7675869821	-0.1477746797	 1.253218095	 0.133408
H	 0.2629226836	-0.1682411762	 2.1508340587	 0.133561
H	 1.8487623261	-4.7254550947	 2.9680185519	 0.263753
H	 1.4527979544	-6.261013816	 2.2542517558	 0.26394
7.3635	66.587	72.2181	103.5934	166.9879	172.6385	241.2127	300.3653	385.7368	429.1011	500.3529	567.627	612.4516	721.1915	740.3885	773.6224	869.5199	888.8391	1036.7688	1083.9598	1088.9162	1108.8828	1119.9911	1256.8397	1302.865	1322.7046	1348.7342	1381.5974	1413.8033	1465.2177	1491.3808	1499.1717	1508.1686	1606.6292	1772.3349	2346.7935	3011.0995	3030.0943	3038.8442	3047.0184	3077.3105	3102.4511	3108.5543	3602.3535	3745.1245
CCCC#CC(N)=O	CCCC#CC(=O)N	
InChI=1S/C6H9NO/c1-2-3-4-5-6(7)8/h2-3H2,1H3,(H2,7,8)	InChI=1S/C6H9NO/c1-2-3-4-5-6(7)8/h2-3H2,1H3,(H2,7,8)
