15
gdb 23985	6.43911	1.02358	0.89321	7.1288	82.04	-0.2264	-0.0034	0.223	1231.4312	0.115488	-379.695487	-379.688277	-379.687333	-379.727454	26.964	
N	 0.1084373009	-1.1556152778	-0.317842794	-0.35406
C	 0.0479522193	-0.0103771692	-0.1485875047	 0.200521
C	-0.0168434902	 1.389285155	 0.0586549815	 0.171281
C	-1.199518632	 2.1341449503	 0.1165068136	-0.23545
N	-0.7972794094	 3.4092678782	 0.3263562203	 0.017362
C	-1.0482699982	 4.8479351174	 0.5307355896	-0.170002
C	 0.5183835321	 5.0132533829	 0.6272598727	-0.37722
C	 0.5612297446	 3.5102258349	 0.4036341158	 0.384519
C	 1.1137453775	 2.2666603517	 0.242174041	-0.462686
H	-2.2258956454	 1.8220484148	 0.0227457861	 0.150075
H	-1.5246035044	 5.333977143	-0.324036736	 0.139683
H	-1.6055633996	 5.0686499463	 1.4442312413	 0.139679
H	 0.9579106324	 5.6290889154	-0.160837746	 0.13578
H	 0.8774455506	 5.3652419257	 1.5971640888	 0.135779
H	 2.1489898616	 1.9687581713	 0.2447823198	 0.12474
89.459	152.2791	161.4288	237.0269	438.824	497.973	501.344	589.1436	637.8617	660.474	734.5605	793.4564	801.6061	816.6819	818.3183	912.9526	999.8407	1058.211	1086.0576	1130.2646	1140.9069	1182.8355	1194.0358	1234.3712	1274.6428	1330.0659	1399.1807	1452.9704	1488.3235	1494.5709	1529.4601	1581.9722	2338.3263	3066.2903	3072.0783	3113.2161	3127.8157	3274.8452	3279.7549
N#CC1=CN2CCC2=C1	N#Cc1cn2CCc2c1	
InChI=1S/C7H6N2/c8-4-6-3-7-1-2-9(7)5-6/h3,5H,1-2H2	InChI=1S/C7H6N2/c8-4-6-3-7-1-2-9(7)5-6/h3,5H,1-2H2
