17
gdb 34885	2.25533	1.76123	1.21559	5.4192	76.91	-0.2466	0.0269	0.2735	1047.8679	0.136814	-380.817672	-380.809972	-380.809028	-380.849944	29.793	
N	-0.127812437	-1.1760215685	-0.0915776013	-0.341408
C	-0.0735429443	-0.0234700378	-0.0210006247	 0.305543
C	 0.0016412184	 1.4296651331	 0.0298847243	-0.261688
C	-0.2483884393	 2.1228779139	 1.3877339353	-0.049724
N	 0.8185245947	 1.6789762635	 2.3057214534	-0.321094
C	 1.0879025225	 2.7763073573	 1.3416698427	-0.159833
C	 1.413205122	 2.1000259035	 0.0266141082	 0.40837
C	 2.7122789357	 1.5262568137	-0.434162743	-0.316125
C	 2.0905308996	 2.6950109227	-1.169099448	-0.344324
H	-0.6331471064	 1.8538901914	-0.7534351449	 0.126029
H	-1.2023113907	 2.4832709609	 1.7491297959	 0.110697
H	 0.6254810652	 2.1047852719	 3.2122488723	 0.236177
H	 1.391286063	 3.7612157267	 1.6739174499	 0.105857
H	 3.5898227444	 1.7050578935	 0.1775155084	 0.123234
H	 2.6878511289	 0.5520814488	-0.9109588006	 0.137785
H	 1.6554178075	 2.5146217411	-2.146937789	 0.121588
H	 2.546250126	 3.6739977543	-1.0587574689	 0.118916
100.3521	129.784	187.4576	255.2859	302.8272	385.1449	484.0607	510.2198	555.3562	649.3709	753.9991	769.1303	826.139	838.8139	882.2674	899.7897	934.5729	964.9925	977.8571	984.1125	1036.4387	1046.803	1059.5487	1081.8859	1109.0156	1111.3586	1171.971	1184.8573	1220.0662	1265.822	1300.2436	1335.6409	1357.9378	1410.7713	1465.0167	1507.2129	2356.7643	3074.377	3125.0464	3135.9084	3192.8541	3205.7384	3208.2051	3224.3572	3475.0373
N#CC1C2NC2C11CC1	N#C[C@H]1[C@H]2N[C@H]2C21CC2	
InChI=1S/C7H8N2/c8-3-4-5-6(9-5)7(4)1-2-7/h4-6,9H,1-2H2	InChI=1S/C7H8N2/c8-3-4-5-6(9-5)7(4)1-2-7/h4-6,9H,1-2H2/t4-,5+,6+/m0/s1
