21
gdb 111630	2.13284	1.49677	1.21114	1.2487	83.83	-0.2233	0.0232	0.2465	1165.145	0.182577	-387.084691	-387.075681	-387.074737	-387.11829	34.607	
C	 0.215713954	 1.4471059901	-0.105922457	-0.487134
C	 0.0886075902	-0.0525609903	 0.0316172965	 0.319159
C	-1.1749167761	-0.7204421056	-0.407230316	-0.133177
C	-1.5288877953	-1.7247332528	 0.3977943725	-0.079853
C	-0.5582795222	-1.893772664	 1.5484481223	-0.282254
C	 0.5181311416	-0.8422343661	 1.2674947484	-0.127339
C	 1.3392999414	-0.9224203369	-0.0001957336	-0.036642
C	 1.4976524174	-2.1631481377	-0.8344539356	-0.108991
O	 1.8686569809	-1.7548383442	-2.1487162996	-0.425628
H	 1.151644531	 1.8049994198	 0.3346256939	 0.113884
H	 0.2133217769	 1.747514389	-1.160177576	 0.122614
H	-0.6109912233	 1.9662717216	 0.3924110415	 0.114418
H	-1.7118131685	-0.4080764309	-1.2966487243	 0.090632
H	-2.3849067788	-2.3750923216	 0.2545369799	 0.090401
H	-1.0454064803	-1.7109214672	 2.5157017478	 0.106386
H	-0.1562152756	-2.9145717696	 1.6022948043	 0.106223
H	 0.9684176781	-0.335229534	 2.1140186801	 0.079527
H	 2.2596090318	-0.3428354594	 0.0398808692	 0.085543
H	 2.2780762555	-2.8008013899	-0.3868857942	 0.079784
H	 0.5660936443	-2.7439857539	-0.8520652309	 0.089709
H	 1.999069497	-2.5473063464	-2.6779538391	 0.282738
66.8896	131.099	199.6512	217.0869	227.1904	257.3386	297.4354	342.9028	424.2203	507.3704	546.5884	602.972	710.1952	760.3836	771.3192	833.8691	848.2432	931.5272	945.2458	951.3644	962.7612	1004.3337	1031.8915	1051.5617	1063.1541	1093.294	1105.3841	1121.6631	1159.9433	1187.2573	1227.5952	1251.7202	1272.7936	1291.7707	1312.4785	1344.7101	1375.9423	1415.5221	1429.3602	1476.3932	1481.8616	1488.5694	1501.4513	1514.8077	1670.3667	2962.9171	3011.2062	3022.8676	3023.9872	3033.9495	3083.243	3098.2477	3126.1258	3163.3504	3178.6112	3203.8737	3824.2156
CC12C=CCC1C2CO	C[C@]12C=CC[C@H]1[C@H]2CO	
InChI=1S/C8H12O/c1-8-4-2-3-6(8)7(8)5-9/h2,4,6-7,9H,3,5H2,1H3	InChI=1S/C8H12O/c1-8-4-2-3-6(8)7(8)5-9/h2,4,6-7,9H,3,5H2,1H3/t6-,7+,8-/m0/s1
