19
gdb 31771	2.98714	1.27287	0.96439	2.4922	78.45	-0.1927	0.0488	0.2415	1247.849	0.159836	-419.258538	-419.249137	-419.248193	-419.293207	33.953	
C	-0.2464882817	 1.4899143166	-0.0426783699	-0.370752
C	 0.0974957887	-0.0101106439	 0.0263909619	-0.302346
C	 0.7904522896	-0.5455015092	-1.1829562229	 0.265345
C	 2.0973087535	-0.8692380778	-1.4126590747	-0.18108
N	 2.2925630104	-1.3160229548	-2.710292152	-0.378236
C	 1.1043565137	-1.258146051	-3.2439371591	 0.428397
O	 0.774540051	-1.5996305899	-4.505636245	-0.43221
N	 0.1395651252	-0.8072995563	-2.3986330174	-0.109579
C	-1.2673506395	-0.6632219267	-2.7119892438	-0.3492
H	 0.6582277437	 2.0843116795	-0.1998427812	 0.126478
H	-0.9346840981	 1.7105216974	-0.8648666204	 0.115022
H	-0.7209203941	 1.8230481994	 0.8860563897	 0.112588
H	 0.7566304795	-0.1869880169	 0.8829287659	 0.117884
H	-0.8177455054	-0.5826579269	 0.2312962817	 0.101544
H	 2.918505854	-0.8110000237	-0.7140348806	 0.10246
H	 1.59068088	-1.9134145876	-4.9145348212	 0.31275
H	-1.8814125996	-1.075194776	-1.9065438418	 0.139535
H	-1.5441513972	 0.3859323451	-2.862091304	 0.139463
H	-1.4772279636	-1.2133530673	-3.629633835	 0.161936
48.0252	109.466	111.217	185.8967	199.2695	276.1768	291.3773	315.6491	397.9971	421.698	511.6441	590.3285	670.273	716.9236	723.3663	759.6974	797.6557	822.1849	953.9454	989.7098	1065.817	1082.9321	1130.5163	1152.1373	1187.2368	1223.4495	1269.4569	1286.3371	1310.555	1356.0596	1385.839	1408.6402	1452.9086	1475.9124	1491.9341	1498.4528	1503.3914	1509.7738	1578.7093	1595.7943	1621.5357	3010.6878	3035.6988	3038.8197	3068.8675	3099.6313	3105.1853	3115.4895	3152.8107	3245.0703	3807.5546
CCC1=CN=C(O)N1C	CCc1cnc(O)n1C	
InChI=1S/C6H10N2O/c1-3-5-4-7-6(9)8(5)2/h4H,3H2,1-2H3,(H,7,9)	InChI=1S/C6H10N2O/c1-3-5-4-7-6(9)8(5)2/h4H,3H2,1-2H3,(H,7,9)
