18
gdb 47000	2.6347	1.82004	1.42969	3.8123	70.5	-0.2318	0.027	0.2587	956.6331	0.151835	-439.137076	-439.129957	-439.129013	-439.168707	28.169	
O	-0.0185527465	-0.0501544841	-0.042154447	-0.378816
C	-0.0350504112	 1.1647017535	-0.0005262447	 0.397508
N	-1.1898104828	 1.8987971807	 0.0013221716	-0.317465
C	-1.2613451618	 3.3453474053	 0.1780261446	-0.164689
C	 0.1235027944	 3.950420857	-0.0700618396	 0.088845
C	 0.6202511714	 3.7779921372	-1.5306532141	-0.237793
C	 1.5143712924	 2.5119799573	-1.4575581519	-0.226005
C	 1.2402696951	 2.0146710125	-0.0228845209	-0.032179
O	 1.0574135721	 3.2175251708	 0.7251009573	-0.25694
H	-2.0378528067	 1.3542403066	 0.0678915188	 0.247254
H	-1.9916104521	 3.7721971342	-0.5206202791	 0.109226
H	-1.5864270706	 3.5940597737	 1.1974877164	 0.115226
H	 0.1356695009	 4.9885134459	 0.2689122947	 0.087738
H	-0.212766876	 3.6587460081	-2.2276566561	 0.111129
H	 1.1927656788	 4.6521350755	-1.8468721443	 0.112851
H	 1.2688914742	 1.7625466167	-2.2127681266	 0.124929
H	 2.5714506795	 2.7672309205	-1.5611017471	 0.112454
H	 2.0503620288	 1.4388097687	 0.423334578	 0.106725
95.5076	159.1807	224.6814	343.6412	424.9707	441.2216	485.4618	567.4697	652.3227	690.3931	745.3929	797.6447	824.5627	827.5149	901.0172	913.9066	938.6649	985.2277	1032.1912	1041.2792	1054.9512	1090.8332	1101.0167	1173.5627	1226.5265	1241.471	1249.9316	1286.8648	1308.9543	1312.6834	1329.6569	1356.374	1369.8835	1398.8284	1477.5133	1483.8991	1505.196	1521.2244	1801.9699	3006.1906	3046.7659	3068.1946	3075.4447	3092.2371	3110.7095	3127.6498	3133.5682	3603.5836
O=C1NCC2CCC1O2	O=C1NC[C@@H]2CC[C@H]1O2	
InChI=1S/C6H9NO2/c8-6-5-2-1-4(9-5)3-7-6/h4-5H,1-3H2,(H,7,8)	InChI=1S/C6H9NO2/c8-6-5-2-1-4(9-5)3-7-6/h4-5H,1-3H2,(H,7,8)/t4-,5+/m0/s1
