18
gdb 74292	2.79911	1.18468	1.11071	4.7661	79.38	-0.2587	-0.0066	0.2522	1210.0523	0.146057	-401.975658	-401.96649	-401.965546	-402.009524	33.56	
C	 0.0373245047	 1.52248434	-0.0021919729	-0.494388
C	-0.0072065274	 0.0302189071	-0.0307765391	 0.303727
C	-1.0483403187	-0.779862139	 0.1348388463	-0.239844
C	-0.6095092373	-2.226851054	 0.0373185261	 0.206428
C	-1.3648900493	-3.0542841216	-1.0097966144	-0.412104
O	 0.7700926485	-2.1550265591	-0.3271917797	-0.286877
C	 1.2282427944	-0.8065843012	-0.2456785989	-0.168344
C	-0.7288608049	-2.8851227656	 1.368426783	 0.25768
N	-0.8345721393	-3.3873207672	 2.40404714	-0.339664
H	 0.71251173	 1.8780271104	 0.785777994	 0.140863
H	 0.4193705863	 1.9243633935	-0.9484504041	 0.136576
H	-0.9513493064	 1.9503297447	 0.1781924019	 0.136861
H	-2.0739328662	-0.5002794992	 0.3364425325	 0.117585
H	-1.2904265444	-2.5528699923	-1.9775189235	 0.128776
H	-0.9246107015	-4.0512016799	-1.0875671785	 0.145798
H	-2.4185244379	-3.1567994631	-0.7357196061	 0.132723
H	 1.7569987594	-0.5561559007	-1.1758244909	 0.116275
H	 1.9456521499	-0.6903299328	 0.5823542545	 0.117928
75.3311	128.0959	165.1176	192.4835	212.9323	232.7819	288.7582	359.2716	384.6384	467.9479	502.6165	566.7843	608.9893	643.1835	824.457	836.0443	891.6854	905.3467	937.9086	998.871	1015.8063	1068.4243	1093.8579	1098.3031	1159.7158	1186.5281	1207.2105	1242.6657	1309.3491	1383.9328	1401.7076	1416.0126	1479.4436	1480.5472	1486.7981	1487.3855	1518.1053	1731.0084	2347.879	2980.5586	3022.2507	3026.8037	3050.0123	3075.0267	3124.1436	3131.0773	3138.8993	3224.8859
CC1=CC(C)(OC1)C#N	CC1=C[C@@](C)(OC1)C#N	
InChI=1S/C7H9NO/c1-6-3-7(2,5-8)9-4-6/h3H,4H2,1-2H3	InChI=1S/C7H9NO/c1-6-3-7(2,5-8)9-4-6/h3H,4H2,1-2H3/t7-/m1/s1
