23
gdb 60394	3.419	0.79129	0.71132	2.4579	82.92	-0.2366	0.0757	0.3123	1691.177	0.202857	-425.402418	-425.391674	-425.39073	-425.439147	39.207	
C	-0.7188545448	 1.2054655866	 0.2679794288	-0.382621
C	 0.0191702906	-0.1286741242	 0.1012800096	 0.017491
C	 0.9737503327	-0.0936514344	-1.0989492367	-0.392805
C	 0.786879434	-0.5081132534	 1.3661832888	-0.042009
O	-0.1319062737	-0.711341148	 2.4334624945	-0.273737
C	 0.4658293953	-0.9982387105	 3.6596225833	 0.064669
C	 1.0028572922	 0.152310711	 4.491988183	-0.350329
C	-0.320087157	-0.503720289	 4.8359958883	 0.118845
O	-1.5140385589	 0.1710114277	 4.5945076426	-0.434147
H	-0.0084136661	 2.0270619003	 0.4209072201	 0.110837
H	-1.310035065	 1.4394057293	-0.6230328874	 0.112629
H	-1.3947431456	 1.1832054061	 1.1262982588	 0.121876
H	-0.7249463707	-0.9184140198	-0.0678480212	 0.084886
H	 1.7521111474	 0.6664427116	-0.9618227936	 0.115309
H	 1.4701337038	-1.058122024	-1.2490125936	 0.113273
H	 0.4328967348	 0.1517202761	-2.0179291823	 0.117159
H	 1.3628834468	-1.432138709	 1.2004705214	 0.088243
H	 1.5036824858	 0.2838844389	 1.6349097829	 0.092748
H	 0.9688837467	-1.9643141497	 3.7036434461	 0.088819
H	 1.8649526137	-0.019432486	 5.1277549195	 0.111442
H	 0.9378501351	 1.1413686209	 4.0510109564	 0.121264
H	-0.3695619748	-1.125359532	 5.7254325944	 0.099249
H	-1.6569982124	 0.1307862914	 3.6398573862	 0.296911
32.3252	59.0408	103.6984	150.9991	210.5705	219.5295	251.6469	274.5078	306.6614	359.5007	380.601	428.148	433.7103	510.533	642.7503	757.0052	808.5405	831.8697	910.1659	923.0821	928.9144	962.3527	975.3625	997.3498	1017.3739	1056.4192	1085.5104	1116.1075	1137.8657	1155.9139	1184.1375	1193.0037	1200.9736	1243.8179	1274.2439	1327.1645	1350.206	1362.7657	1376.3618	1397.7843	1413.123	1424.2897	1437.3259	1479.1129	1488.2962	1490.3184	1503.9494	1510.8408	1519.1099	2971.4754	3002.8996	3024.249	3026.8748	3032.7547	3091.3094	3096.9078	3097.9634	3105.6294	3119.7476	3130.7219	3149.1118	3225.4501	3764.1625
CC(C)COC1CC1O	CC(C)CO[C@H]1C[C@H]1O	
InChI=1S/C7H14O2/c1-5(2)4-9-7-3-6(7)8/h5-8H,3-4H2,1-2H3	InChI=1S/C7H14O2/c1-5(2)4-9-7-3-6(7)8/h5-8H,3-4H2,1-2H3/t6-,7+/m1/s1
