20
gdb 68636	2.47124	1.61104	1.34906	3.4292	78.81	-0.2322	-0.0316	0.2006	1051.838	0.171726	-403.124288	-403.116151	-403.115206	-403.156796	31.788	
C	-0.026371451	 1.5134869336	 0.0890455263	-0.506955
C	 0.0175650132	 0.0049047267	 0.0302776282	 0.306976
C	 0.3353461158	-0.8052798057	-1.2557059465	-0.20434
N	-0.373608725	-1.9702602621	-0.591929075	-0.135549
C	 0.58201623	-2.2135160098	 0.5379623237	-0.170914
C	 0.8817001015	-0.7656718921	 1.0514600546	-0.273919
C	-1.2694146959	-0.908770804	 0.0013987184	-0.095123
C	-2.0700743301	-1.1470669564	 1.2486658548	 0.140023
O	-2.0512360078	-2.1306831482	 1.9456623746	-0.249058
H	 0.9722489886	 1.9358928053	-0.0702067234	 0.125442
H	-0.6887886725	 1.9259469849	-0.679478415	 0.117702
H	-0.3789323566	 1.8679863516	 1.0638179553	 0.123431
H	-0.2161389883	-0.4723749712	-2.1387748783	 0.104185
H	 1.3830662008	-0.9942878171	-1.5086464118	 0.099806
H	 0.1128914751	-2.8486737567	 1.2859250023	 0.14055
H	 1.4678534734	-2.7155206824	 0.1421418337	 0.101625
H	 1.9373154802	-0.4876383875	 0.9768418583	 0.098086
H	 0.5622563566	-0.602064122	 2.0848327612	 0.106756
H	-1.9662747599	-0.5506610369	-0.767445518	 0.094818
H	-2.7276575382	-0.2816587901	 1.5042732364	 0.076458
84.5946	180.1808	210.1056	231.0685	275.9969	298.7504	360.2771	455.3605	504.2328	590.793	650.0387	748.6264	788.7778	838.3448	846.9562	873.1203	891.3516	922.4094	938.2518	977.3616	993.262	1028.3123	1050.7032	1091.0376	1143.67	1162.3616	1179.5237	1194.7486	1234.4641	1245.3741	1252.3366	1261.9367	1324.3808	1342.9856	1385.9537	1415.309	1428.2146	1491.8997	1493.0159	1498.1575	1503.4015	1525.4292	1822.4247	2843.9635	3026.6117	3031.7242	3048.7826	3052.5588	3079.5211	3091.3109	3095.3308	3096.1248	3112.4887	3165.1263
CC12CN(CC1)C2C=O	C[C@@]12CN(CC1)[C@H]2C=O	
InChI=1S/C7H11NO/c1-7-2-3-8(5-7)6(7)4-9/h4,6H,2-3,5H2,1H3	InChI=1S/C7H11NO/c1-7-2-3-8(5-7)6(7)4-9/h4,6H,2-3,5H2,1H3/t6-,7-/m0/s1
