23
gdb 72394	2.97711	1.44084	1.34982	0.1845	89.65	-0.2316	0.0246	0.2562	1114.8791	0.207135	-351.181677	-351.173307	-351.172363	-351.213569	34.963	
C	-0.0205109668	 1.5165945115	 0.0057741242	-0.489861
C	-0.0066270878	-0.0022302068	 0.0217870916	 0.286628
C	 0.7301164389	-0.674577145	-1.1927182007	-0.233121
C	 0.9648271251	-2.1339092502	-0.7087115328	-0.233121
C	 0.3379575723	-2.1447998306	 0.7323919917	 0.286629
C	 0.7563076955	-3.3135652663	 1.607748152	-0.489861
C	 0.7162137025	-0.7147710873	 1.1917797423	-0.264062
C	-1.160062055	-1.9524109726	 0.5147746341	-0.11766
C	-1.3615040811	-0.6998827435	 0.099377309	-0.117661
H	 0.997471111	 1.9212999172	-0.0152841788	 0.109768
H	-0.5457387872	 1.899912551	-0.8768020615	 0.111243
H	-0.5236625645	 1.9190902737	 0.8915941176	 0.113383
H	 0.1348500225	-0.61582294	-2.1078578511	 0.092137
H	 1.6787506657	-0.1614541284	-1.3850317771	 0.090383
H	 0.4992690624	-2.8816064629	-1.3563836413	 0.092137
H	 2.0336285497	-2.3679396501	-0.653214329	 0.090383
H	 1.8445094326	-3.3454789204	 1.731505512	 0.109768
H	 0.306848481	-3.2449566428	 2.6043026105	 0.113383
H	 0.4464430704	-4.2693240734	 1.1692886906	 0.111243
H	 1.7986020049	-0.5366566056	 1.2039481431	 0.078337
H	 0.2918470428	-0.4594549965	 2.1673742933	 0.087239
H	-1.8898693824	-2.7510938098	 0.5857415843	 0.086344
H	-2.2909116226	-0.2574843814	-0.2412607541	 0.086343
213.9912	215.0833	223.5949	230.6526	261.1256	322.4697	370.8218	386.294	490.7804	492.2931	561.3466	633.5768	671.7864	740.5556	783.1943	803.5165	840.5175	886.1045	896.0977	909.5911	910.0703	945.4733	969.1133	1001.1524	1008.4852	1081.494	1082.9814	1104.939	1144.755	1165.8912	1198.7378	1216.2459	1221.0205	1262.1632	1264.8376	1271.3639	1307.0621	1326.218	1381.1732	1413.4055	1414.4603	1484.6807	1488.743	1494.4066	1494.5638	1496.2468	1499.2487	1512.3339	1648.2969	3022.5809	3022.6683	3031.0251	3036.027	3049.5572	3080.9175	3086.4262	3086.5706	3090.4091	3092.8774	3094.213	3100.411	3179.2098	3205.8902
CC12CCC(C)(C1)C=C2	C[C@@]12CC[C@@](C)(C1)C=C2	
InChI=1S/C9H14/c1-8-3-5-9(2,7-8)6-4-8/h3,5H,4,6-7H2,1-2H3	InChI=1S/C9H14/c1-8-3-5-9(2,7-8)6-4-8/h3,5H,4,6-7H2,1-2H3/t8-,9+
