15
gdb 24203	4.19474	1.61696	1.41452	1.2833	70.01	-0.2132	-0.0075	0.2057	896.8374	0.117025	-416.755604	-416.749737	-416.748792	-416.785908	23.865	
C	-0.0130624967	 1.5467517756	-0.1406403689	-0.198562
C	 1.5382564134	 1.3043397067	 0.0278252778	-0.147668
N	 1.1235650106	 0.2433638502	 1.0130281447	-0.279278
C	-0.001026733	-0.0208119905	 0.0386732516	-0.12957
C	 0.7658763221	-0.4266903183	-1.2262559614	 0.229601
C	 1.7995942212	 0.4454655319	-1.2095450122	 0.272028
O	 2.4083062533	 0.4309044786	-2.4197982261	-0.192599
C	 1.692537213	-0.5245718415	-3.1044842351	 0.024186
N	 0.6888635988	-1.0452327458	-2.4581540706	-0.345365
H	-0.4539473644	 2.0753375013	 0.7077350256	 0.117691
H	-0.3620588939	 1.9438965847	-1.0945855562	 0.110683
H	 2.2387891282	 2.0708721009	 0.3523050409	 0.091207
H	 1.7903236578	-0.5298285987	 1.0464763904	 0.208096
H	-0.8615624281	-0.58632413	 0.3895191999	 0.089463
H	 2.0635772576	-0.7801538752	-4.0845029003	 0.150085
114.6274	303.2411	396.2455	493.8832	514.6554	639.0051	687.3451	698.6773	751.7044	783.6295	797.1051	824.4742	899.553	910.8743	939.0582	1017.591	1036.4184	1038.3525	1060.2272	1109.3351	1126.6764	1141.3974	1208.2657	1235.9095	1253.0958	1260.9771	1271.4862	1343.0323	1348.7625	1388.6606	1484.4393	1489.381	1578.4767	3071.8371	3144.1563	3145.989	3147.3971	3277.2671	3434.6374
C1C2NC1C1=C2OC=N1	C1[C@H]2N[C@@H]1c1c2ocn1	
InChI=1S/C6H6N2O/c1-3-5-6(4(1)8-3)9-2-7-5/h2-4,8H,1H2	InChI=1S/C6H6N2O/c1-3-5-6(4(1)8-3)9-2-7-5/h2-4,8H,1H2/t3-,4+/m0/s1
