21
gdb 94733	2.70886	1.52498	1.26087	0.8719	77.62	-0.2455	0.0727	0.3182	1106.0654	0.182694	-424.227063	-424.218449	-424.217505	-424.259893	33.377	
C	 0.0319199134	 1.6148926774	 0.0179847896	-0.413013
C	 0.0868269382	 0.0896391657	-0.0251717266	-0.004419
C	 0.979819954	-0.4923818744	-1.1367075822	-0.108367
O	 1.2988398085	-1.8194406761	-0.7251551255	-0.300475
C	 1.421587339	-1.8355939672	 0.6888636888	 0.364431
C	 1.0834384019	-3.2175519207	 1.1998390655	-0.466052
C	 2.6981262865	-1.1422661251	 1.2304165095	-0.12337
O	 1.9474227363	 0.0262620685	 1.6285729431	-0.298075
C	 0.6933567557	-0.5675617513	 1.2157614601	 0.05158
H	 1.01894261	 2.0219097348	 0.2528743481	 0.138033
H	-0.2939769478	 2.0254027706	-0.943395025	 0.113272
H	-0.6682469268	 1.9650424095	 0.7829119149	 0.116955
H	-0.9238440017	-0.3219848532	-0.1459295041	 0.077815
H	 0.4868966157	-0.5554419202	-2.1103143281	 0.108423
H	 1.890990991	 0.1152696827	-1.2506689799	 0.097535
H	 1.7707657992	-3.9572042864	 0.7766936822	 0.130013
H	 1.1593834651	-3.2607213095	 2.2899402054	 0.119835
H	 0.0668771198	-3.4948829689	 0.9059434595	 0.124746
H	 3.1699777258	-1.6335435573	 2.0903310787	 0.097067
H	 3.4590388088	-0.917460574	 0.4739857026	 0.105324
H	-0.0009851527	-0.6675957249	 2.0567422234	 0.068744
100.1865	191.1037	208.1909	217.4648	230.3901	243.1097	328.433	359.9719	433.7368	517.3548	602.4688	627.5172	670.6193	847.479	864.9902	888.5883	913.9007	935.357	956.1942	960.8395	986.1227	1016.6264	1067.1397	1078.1425	1128.9675	1150.6487	1165.8373	1178.9426	1200.6327	1216.1006	1250.6659	1287.2703	1317.7988	1330.0566	1345.3768	1368.4225	1396.3946	1410.3679	1412.1343	1483.6406	1493.5307	1496.5637	1506.2438	1511.4845	1522.368	2985.1453	3015.3284	3023.7754	3038.4823	3040.0482	3054.5533	3067.9213	3093.6418	3101.205	3110.3419	3120.3218	3123.2706
CC1COC2(C)COC12	C[C@H]1CO[C@@]2(C)CO[C@@H]12	
InChI=1S/C7H12O2/c1-5-3-9-7(2)4-8-6(5)7/h5-6H,3-4H2,1-2H3	InChI=1S/C7H12O2/c1-5-3-9-7(2)4-8-6(5)7/h5-6H,3-4H2,1-2H3/t5-,6-,7-/m0/s1
