16
gdb 25624	3.60663	0.97091	0.76926	2.7718	88.41	-0.1773	0.0089	0.1862	1446.707	0.125478	-396.954085	-396.945027	-396.944082	-396.989221	32.326	
C	-0.0814406736	 1.4923568941	 0.0011561006	-0.510769
C	-0.0273129642	 0.0392047889	-0.0117659489	 0.214214
C	 0.0169194544	-1.1697450924	-0.0320145928	-0.129147
C	 0.0951777582	-2.5684736169	-0.0490379626	 0.135758
C	 1.1795089234	-3.438277746	-0.0221697596	 0.1791
N	 2.5273025037	-3.1174380403	-0.031136906	-0.604927
N	 0.7651939968	-4.7405412195	-0.0472685191	-0.296216
C	-0.5529660126	-4.6894295907	-0.0950366222	 0.000071
N	-1.0130730583	-3.4202880022	-0.0998382591	-0.329049
H	 0.6815145071	 1.9255858159	-0.6560350814	 0.149909
H	-1.0555817487	 1.8498183737	-0.351657462	 0.149228
H	 0.0746077787	 1.9018881292	 1.0064926233	 0.144856
H	 2.7387692975	-2.2192050387	 0.3801530709	 0.249206
H	 3.1000601385	-3.8570106885	 0.3511977214	 0.25141
H	-1.2106078354	-5.545108161	-0.125382726	 0.12985
H	-1.9720433854	-3.1188796457	-0.1290941364	 0.266506
24.36	80.9811	104.6394	235.1943	260.8699	300.9717	314.8464	386.0736	463.5774	480.16	483.287	560.2429	642.4811	662.3814	731.2068	771.7889	805.7996	954.4453	984.1395	1050.2857	1051.6503	1064.7261	1135.6258	1189.8138	1301.8495	1338.8741	1405.1952	1416.0647	1472.8038	1480.3836	1497.0983	1516.5149	1609.879	1647.7618	2335.893	3018.0965	3072.7487	3083.0185	3253.5003	3555.6381	3659.8169	3673.873
CC#CC1=C(N)N=CN1	CC#Cc1c(N)nc[nH]1	
InChI=1S/C6H7N3/c1-2-3-5-6(7)9-4-8-5/h4H,7H2,1H3,(H,8,9)	InChI=1S/C6H7N3/c1-2-3-5-6(7)9-4-8-5/h4H,7H2,1H3,(H,8,9)
