21
gdb 63218	2.22819	1.55076	1.16022	0.5731	89.33	-0.2425	0.0214	0.2639	1163.9194	0.180967	-349.941834	-349.932434	-349.93149	-349.975332	36.698	
C	 0.4171009528	 1.4011411752	-0.4354300299	-0.419559
C	 0.0172527513	-0.0407823201	-0.0642081907	 0.252233
C	-1.4656887079	-0.0806382919	 0.3309488394	-0.436346
C	 0.3506770529	-0.9753907245	-1.2139112468	-0.081805
C	 1.4587417365	-1.6829288153	-1.0097761268	-0.094277
C	 2.0806655149	-1.3827856381	 0.3318846544	-0.277241
C	 0.9245801849	-0.648884969	 1.0740778495	-0.204717
C	 1.3573201392	 0.2838639937	 2.1021850726	 0.334574
C	 1.7179170043	 1.0507449199	 2.956061034	-0.473208
H	 1.4832602115	 1.471513043	-0.6699048705	 0.117143
H	-0.1424830423	 1.7342177992	-1.3160546251	 0.106228
H	 0.2045800591	 2.09091377	 0.3866252948	 0.123905
H	-2.0960390533	 0.3205023209	-0.4701942172	 0.110534
H	-1.7950969928	-1.1042518456	 0.5374871731	 0.112265
H	-1.6431516846	 0.5226559783	 1.2279976118	 0.122697
H	-0.2494101874	-0.9918292727	-2.1184040901	 0.089871
H	 1.905361138	-2.3705404494	-1.7196008217	 0.094162
H	 2.4075856723	-2.2745873411	 0.8765785367	 0.110704
H	 2.9638676158	-0.7388726516	 0.2292373851	 0.117769
H	 0.3198483587	-1.4273796682	 1.5567536093	 0.103668
H	 2.037973076	 1.7256167174	 3.7106164882	 0.191399
80.3209	142.1204	195.7522	221.8552	246.2407	254.5187	317.3252	344.2779	363.5432	487.8853	499.6107	533.4487	580.7511	618.7768	632.4188	698.1949	755.6864	767.7573	869.073	940.9759	954.9684	962.4578	973.8658	994.6352	1018.6783	1035.0097	1057.1682	1116.3187	1141.0234	1189.87	1229.9667	1238.9504	1294.39	1312.398	1346.5495	1363.4369	1396.0169	1419.3689	1481.0182	1484.1141	1490.9705	1500.5607	1505.3934	1687.3205	2230.8426	3015.4851	3024.9659	3026.3486	3034.558	3070.0997	3094.503	3098.7099	3103.0732	3113.9272	3173.0452	3200.6143	3504.3559
CC1(C)C=CCC1C#C	CC1(C)C=CC[C@H]1C#C	
InChI=1S/C9H12/c1-4-8-6-5-7-9(8,2)3/h1,5,7-8H,6H2,2-3H3	InChI=1S/C9H12/c1-4-8-6-5-7-9(8,2)3/h1,5,7-8H,6H2,2-3H3/t8-/m1/s1
