17
gdb 12673	2.68193	2.30176	1.52809	2.5289	64.72	-0.2684	0.0193	0.2878	866.6357	0.143087	-401.022703	-401.015004	-401.01406	-401.054497	29.069	
C	 0.6417192204	 1.4795542171	-0.0407976194	-0.394685
C	-0.0285879267	 0.1055167614	 0.0311018624	-0.05324
C	 0.3812849532	-0.8224757898	-1.1270027659	-0.099379
O	 1.612943263	-1.4621972041	-0.7044162343	-0.236224
C	 1.7267114302	-1.3664199589	 0.6404212015	 0.397091
N	 2.7176731324	-1.6955323157	 1.3500143936	-0.573024
C	 0.4763945181	-0.7366092385	 1.2225684651	 0.064949
O	 0.7334029034	-0.0303695891	 2.4025829925	-0.436862
H	 1.7284674243	 1.3878574476	-0.1410297455	 0.127782
H	 0.2690355679	 2.0450525281	-0.9003133721	 0.111329
H	 0.4416570055	 2.0480705997	 0.8692404341	 0.142453
H	-1.1153844318	 0.2213723104	 0.0594262008	 0.086931
H	-0.3647225653	-1.6016675701	-1.3217241577	 0.11626
H	 0.5927718368	-0.2937934654	-2.0590071363	 0.124612
H	 3.4879146972	-2.069308856	 0.7963098087	 0.229996
H	-0.2492589788	-1.5482673359	 1.409135131	 0.09399
H	 1.58751715	-0.3619533109	 2.7201016114	 0.298021
101.6441	169.5008	212.8741	251.9911	280.1697	346.7307	397.4399	482.8497	510.3832	597.3504	698.7731	730.875	821.0031	870.3778	877.9497	923.8305	955.6396	975.8969	1056.5052	1085.8011	1109.4214	1163.1777	1171.4486	1235.6161	1241.6055	1272.9185	1305.997	1359.7458	1382.7749	1401.9882	1427.6336	1436.5925	1492.8448	1500.4284	1517.89	1782.3705	2944.7394	3037.9769	3042.1626	3073.6355	3107.8506	3109.5485	3137.0759	3497.1448	3707.9375
CC1COC(=N)C1O	C[C@H]1CO[C]([NH])[C@H]1O	
InChI=1S/C5H9NO2/c1-3-2-8-5(6)4(3)7/h3-4,6-7H,2H2,1H3	InChI=1S/C5H9NO2/c1-3-2-8-5(6)4(3)7/h3-4,6-7H,2H2,1H3/t3-,4-/m0/s1
