18
gdb 32076	3.47724	1.13367	0.8641	0.3357	82.57	-0.2393	-0.0162	0.2231	1324.5745	0.148132	-402.013428	-402.004533	-402.003589	-402.04815	32.011	
C	-0.0073387484	 1.4787811152	-0.0509562919	-0.468053
C	-0.0081510266	-0.0270926202	 0.0146283341	 0.31885
N	 0.0408887539	-0.6732087629	-1.1565091956	-0.369293
C	 0.0425888184	-2.0092794603	-1.1542045071	 0.291262
C	 0.0998088991	-2.6448418507	-2.5241528687	-0.152653
O	 0.0963524192	-4.0555918241	-2.4031485059	-0.41964
C	-0.0043481526	-2.7713138073	 0.0117673168	-0.1678
C	-0.0552516631	-2.0984904242	 1.2269865112	-0.076867
C	-0.0573926104	-0.708829169	 1.2335550111	-0.170605
H	 0.893475245	 1.8382998696	-0.5587213616	 0.137274
H	-0.8637500418	 1.8361537028	-0.631801044	 0.137273
H	-0.0492751966	 1.9276598144	 0.9444628381	 0.115421
H	-0.7605800125	-2.2825182157	-3.1081900813	 0.109563
H	 1.004597718	-2.2806087539	-3.035372332	 0.109557
H	 0.1332581666	-4.4315688587	-3.2863822248	 0.292498
H	-0.0003928431	-3.8510084793	-0.0492945654	 0.11885
H	-0.0929075265	-2.6520171966	 2.1601053405	 0.102495
H	-0.0964803385	-0.1553114289	 2.1653254165	 0.091867
46.0662	48.0042	178.7047	200.0232	204.1896	231.8089	331.6435	437.849	458.4263	544.782	564.2049	607.8664	735.3094	756.9583	802.4638	910.7185	918.943	1001.3776	1005.83	1025.1705	1039.9873	1060.1953	1104.8106	1117.9553	1179.6251	1195.1412	1242.4466	1259.8516	1288.8077	1313.7052	1408.4264	1432.0607	1467.8434	1476.4753	1483.6114	1498.0999	1506.0232	1622.6714	1630.9059	2975.9127	3000.9298	3039.89	3099.6839	3123.6408	3172.8215	3192.175	3230.6622	3847.5295
CC1=NC(CO)=CC=C1	Cc1nc(CO)ccc1	
InChI=1S/C7H9NO/c1-6-3-2-4-7(5-9)8-6/h2-4,9H,5H2,1H3	InChI=1S/C7H9NO/c1-6-3-2-4-7(5-9)8-6/h2-4,9H,5H2,1H3
