16
gdb 11519	4.74933	1.04049	0.94214	2.8047	65.68	-0.2573	0.006	0.2633	1209.0373	0.130394	-379.895382	-379.887043	-379.886099	-379.928792	29.621	
O	-0.331177993	 1.3002585519	 0.0802997716	-0.406974
C	 0.0383894212	-0.0584096252	-0.061109281	-0.011106
C	 0.8874181141	-0.319232187	-1.3232592633	-0.246547
C	 0.1385561105	 0.0381135004	-2.5860797104	 0.030954
C	 0.4636939425	-0.6330821629	-3.8665769021	-0.251241
N	-0.8133973268	-0.9147825506	-3.1849033612	-0.314313
C	 0.7390360351	-0.5487182749	 1.1441912244	 0.255316
N	 1.3177342035	-0.9101519205	 2.076872225	-0.311887
H	 0.467415714	 1.8167748471	 0.241149912	 0.295867
H	-0.9079876988	-0.604148303	-0.146089794	 0.148784
H	 1.8121193819	 0.2681739718	-1.2443542113	 0.11626
H	 1.1866038852	-1.3743642425	-1.3437456107	 0.117137
H	-0.2154130139	 1.0652931737	-2.6178574442	 0.110412
H	 0.3735920886	-0.0921834308	-4.8040028433	 0.126175
H	 1.2378565526	-1.3967541046	-3.8589339733	 0.113973
H	-0.7518156167	-1.8140689929	-2.7112357881	 0.22719
72.0158	91.6157	125.474	205.6672	252.3566	322.0291	345.5169	411.6119	471.6192	559.8618	593.3032	793.7372	822.032	864.4662	925.9115	943.3835	971.2959	1019.3442	1059.6892	1100.8946	1130.7517	1146.2745	1173.4136	1247.1304	1254.9286	1285.7186	1300.2609	1321.0394	1360.1583	1418.9564	1429.4798	1469.2505	1515.0944	2354.6435	3019.2092	3057.6277	3071.7582	3108.5864	3147.3568	3194.457	3481.7148	3796.7702
OC(CC1CN1)C#N	O[C@@H](C[C@H]1CN1)C#N	
InChI=1S/C5H8N2O/c6-2-5(8)1-4-3-7-4/h4-5,7-8H,1,3H2	InChI=1S/C5H8N2O/c6-2-5(8)1-4-3-7-4/h4-5,7-8H,1,3H2/t4-,5-/m0/s1
