20
gdb 74378	2.54268	1.28684	0.88958	3.9937	87.1	-0.2079	0.0022	0.2101	1321.116	0.172493	-403.204703	-403.196051	-403.195107	-403.23801	32.749	
C	 0.0155949459	 1.5351394932	 0.0609670145	-0.469858
C	-0.0127133122	 0.034205433	 0.0129894307	 0.206599
C	-0.0769923824	-0.6244204944	-1.1504322986	-0.03782
N	-0.0524490675	-2.0236703417	-1.2526274824	-0.073731
C	 0.2844890886	-2.7906760255	-0.0582570482	-0.169155
C	-0.3946482168	-2.1767162428	 1.1672731236	-0.219281
C	 0.0232035435	-0.7079591146	 1.3289618655	-0.291521
C	-0.2608820602	-2.6362229862	-2.4616607779	 0.144301
O	-0.4955000215	-2.0658181121	-3.5049374333	-0.331747
H	 0.9204449991	 1.9007685512	 0.5651982609	 0.12106
H	-0.0092565934	 1.9722411573	-0.9408409822	 0.125838
H	-0.8368351127	 1.9329476631	 0.627456345	 0.121003
H	-0.148988103	-0.1310375418	-2.1113729425	 0.135049
H	-0.0295904729	-3.826864316	-0.2120960846	 0.116591
H	 1.3744338645	-2.7898391278	 0.0861670312	 0.114621
H	-1.4809821713	-2.2399559856	 1.0385300229	 0.115407
H	-0.1368772238	-2.7568810896	 2.058516009	 0.104271
H	 1.0302426315	-0.6435011163	 1.7676527217	 0.10855
H	-0.6393693005	-0.2107981987	 2.0492063321	 0.106666
H	-0.1891338147	-3.7378089147	-2.3762419073	 0.073158
84.9469	145.6896	195.656	202.0391	249.4896	309.7986	350.7304	375.2604	425.3539	462.955	513.0318	571.4303	692.9403	787.7721	861.7884	896.9745	914.4255	922.7472	998.495	1017.3718	1043.756	1047.6309	1053.7055	1108.2259	1162.5506	1202.6672	1224.772	1264.3424	1301.7146	1338.6098	1366.4499	1378.5384	1391.4215	1413.5924	1431.419	1445.7702	1475.0626	1478.9796	1488.4917	1493.8069	1502.6638	1737.9444	1792.3175	2943.1517	2994.3472	3002.0933	3008.9663	3032.9891	3048.2009	3050.4965	3087.3049	3092.7525	3110.8034	3221.1588
CC1=CN(CCC1)C=O	CC1=CN(CCC1)C=O	
InChI=1S/C7H11NO/c1-7-3-2-4-8(5-7)6-9/h5-6H,2-4H2,1H3	InChI=1S/C7H11NO/c1-7-3-2-4-8(5-7)6-9/h5-6H,2-4H2,1H3
