18
gdb 81093	2.06783	1.63008	1.25906	1.1392	73.56	-0.2508	-0.0458	0.205	1084.0409	0.14636	-439.019107	-439.010369	-439.009425	-439.052616	32.518	
C	-0.2849103624	 1.5487835065	-0.0741853694	-0.442105
C	-0.0364689581	 0.0564387812	 0.0245050936	 0.027232
C	 1.2012085436	-0.580938205	-0.6709320092	-0.075775
N	 2.0689516487	 0.1069276136	 0.3755926782	-0.362896
C	 0.9223060041	-0.5191219842	 1.140452888	 0.185223
C	 0.7411780807	-0.456291143	 2.6154995263	 0.013496
O	 0.1892099406	-1.3398436131	 3.2304030574	-0.260891
C	 1.0673510131	-1.805563425	 0.2739795851	 0.101486
O	-0.0098688296	-2.6771831901	 0.0955377154	-0.433413
H	 0.6374952368	 2.1168087718	 0.0555681772	 0.143693
H	-0.7080926528	 1.7921857816	-1.055126817	 0.120436
H	-1.0101674164	 1.8734040425	 0.679708795	 0.117837
H	-0.9449414075	-0.5347896725	-0.0859619159	 0.101722
H	 1.4686942027	-0.564054597	-1.7282008304	 0.089211
H	 2.9193766141	-0.4477711463	 0.5281153649	 0.210819
H	 1.1284978709	 0.4542540303	 3.1222728994	 0.094629
H	 2.0127022036	-2.3408895094	 0.4493144842	 0.070187
H	-0.2457219921	-3.0213189218	 0.9649445571	 0.299112
75.0173	104.6184	187.67	212.2311	238.1923	297.9106	341.124	370.7142	386.9757	473.6951	590.2435	633.8786	720.1401	781.4009	801.6212	822.2763	907.1153	946.1759	996.7044	1040.0944	1057.8825	1072.0692	1124.6114	1136.1711	1153.1984	1180.4781	1202.1014	1218.3715	1250.0789	1296.9112	1311.7597	1325.5446	1388.6723	1402.9751	1412.7067	1424.4583	1491.839	1505.5132	1797.0362	2897.8155	2995.168	3036.8871	3091.5692	3110.1558	3122.9935	3144.9895	3363.3911	3801.3663
CC1C2NC1(C=O)C2O	C[C@H]1[C@H]2N[C@]1(C=O)[C@H]2O	
InChI=1S/C6H9NO2/c1-3-4-5(9)6(3,2-8)7-4/h2-5,7,9H,1H3	InChI=1S/C6H9NO2/c1-3-4-5(9)6(3,2-8)7-4/h2-5,7,9H,1H3/t3-,4+,5-,6-/m0/s1
