17
gdb 12765	3.29646	1.67794	1.36773	4.0159	69.28	-0.2236	-0.0181	0.2054	947.4511	0.14149	-363.829702	-363.821903	-363.820959	-363.862038	28.908	
C	-0.0523785078	 1.5454809006	 0.0736266544	-0.507795
C	 0.1148495756	 0.0589265797	 0.0364805763	 0.322513
N	-0.7892169708	-0.8613684258	 0.7732945027	-0.368031
C	 0.6757068873	-0.9173172892	 1.0113515373	-0.097822
C	 1.2395900492	-1.796743898	-0.1058588127	-0.245285
C	 0.665165836	-0.767137605	-1.1564749496	-0.120258
C	-0.3433465877	-1.2734845058	-2.1534723091	 0.147504
O	-0.2206787824	-1.1763798078	-3.3505959324	-0.262451
H	 0.8421892129	 2.0514100135	-0.3042805354	 0.131497
H	-0.9012560654	 1.8659715237	-0.5415493867	 0.136562
H	-0.2292686999	 1.8936262497	 1.0974215357	 0.120507
H	-1.1998712561	-0.3222541541	 1.5356931682	 0.227354
H	 1.0770818304	-0.7599126162	 2.0052294403	 0.096939
H	 2.3295297471	-1.8327043456	-0.1412527633	 0.115409
H	 0.8356430961	-2.8116094669	-0.1456792821	 0.116044
H	 1.4626257649	-0.2455913333	-1.6896470516	 0.090559
H	-1.2346896294	-1.7533292497	-1.698293182	 0.096753
65.6126	145.0515	203.1772	223.3488	290.479	333.2704	428.9467	445.312	525.1789	623.6747	707.4058	826.8288	857.2851	888.8448	910.3465	947.1741	982.5539	1026.655	1054.3809	1075.6941	1096.8239	1108.0238	1143.3737	1185.4272	1212.1078	1239.169	1282.2437	1301.6692	1344.5333	1406.9627	1418.8793	1445.3917	1478.1067	1482.3143	1497.0752	1816.7343	2923.1997	3024.8605	3068.1983	3088.4567	3095.6473	3098.6052	3131.5667	3188.2389	3468.0225
CC12NC1CC2C=O	C[C@]12N[C@H]1C[C@H]2C=O	
InChI=1S/C6H9NO/c1-6-4(3-8)2-5(6)7-6/h3-5,7H,2H2,1H3	InChI=1S/C6H9NO/c1-6-4(3-8)2-5(6)7-6/h3-5,7H,2H2,1H3/t4-,5-,6+/m0/s1
