22
gdb 120090	3.94882	0.9132	0.84152	0.7649	86.93	-0.2083	0.0693	0.2776	1486.727	0.193563	-367.114329	-367.105442	-367.104498	-367.148391	34.43	
C	-0.8990605016	 1.5069813842	 0.1615002438	-0.383652
C	-0.5627036412	 0.0264176107	 0.3531590157	-0.169577
C	 0.7194403712	-0.1878423247	 1.1664698675	-0.127157
N	 0.9881172741	-1.6174186477	 1.3159338201	-0.063528
C	 2.1795480338	-2.3971378224	 1.1705526988	-0.07019
C	 3.446917547	-1.9330087653	 1.9738247315	-0.068341
C	 3.2671399788	-0.6761674688	 2.7798298108	-0.309277
C	 2.6313970948	-1.952887082	 3.2565501936	-0.06827
C	 1.3726600477	-2.4164148748	 2.4395204602	-0.070215
H	-0.0960574587	 2.0341626181	-0.3665493412	 0.112278
H	-1.8165943374	 1.6340756732	-0.4208487792	 0.113563
H	-1.0450162454	 2.0114962053	 1.1236528571	 0.112277
H	-1.3874527857	-0.4887522709	 0.8595149569	 0.098805
H	-0.445608566	-0.4662086523	-0.6192713788	 0.098796
H	 1.5564358388	 0.3072644571	 0.6576249166	 0.105233
H	 0.6056038516	 0.2844563668	 2.1506398168	 0.10523
H	 2.2423802547	-3.1351625451	 0.3767886179	 0.091302
H	 4.4198203642	-2.3751797746	 1.8022236545	 0.087362
H	 4.1510972186	-0.3941956004	 3.3461997787	 0.11093
H	 2.6970726287	 0.17129183	 2.4306498938	 0.115764
H	 2.8950262834	-2.4124737186	 4.2003644703	 0.087361
H	 0.6906613687	-3.1721834878	 2.8168525749	 0.091305
57.9787	93.5587	116.6071	226.7508	256.1028	288.2659	356.4006	360.8576	479.1143	647.1869	696.1023	715.6544	722.0122	759.1763	763.0194	847.6065	873.8003	883.7082	904.9835	935.1713	942.112	962.9114	1017.9907	1030.6698	1043.3951	1057.7559	1060.3548	1081.7575	1088.4655	1126.84	1178.2575	1182.0111	1251.2542	1266.095	1273.0239	1278.8049	1314.537	1327.6774	1333.5003	1386.9601	1413.3906	1431.0957	1475.639	1490.3575	1497.0413	1501.6071	1510.0311	3001.3539	3027.282	3034.3618	3046.1996	3069.8028	3094.8976	3102.9737	3136.7298	3147.0283	3157.6027	3189.0748	3199.8958	3249.6368
CCCN1C2C3CC3C12	CCCN1[C@H]2[C@H]3C[C@H]3[C@@H]12	
InChI=1S/C8H13N/c1-2-3-9-7-5-4-6(5)8(7)9/h5-8H,2-4H2,1H3	InChI=1S/C8H13N/c1-2-3-9-7-5-4-6(5)8(7)9/h5-8H,2-4H2,1H3/t5-,6+,7-,8+,9?
