20
gdb 83797	2.43755	1.78584	1.5532	1.1415	78.17	-0.2128	0.0836	0.2965	980.8211	0.172879	-403.091932	-403.084301	-403.083356	-403.123484	30.981	
C	-0.1741100666	 1.4713778087	-0.1056745117	-0.332196
N	 0.0257103578	 0.0303376902	-0.0291017684	-0.09634
C	 1.2843594373	-0.6311459513	-0.2934024264	-0.043419
C	 2.6068529889	 0.1187628068	-0.3565051872	-0.111139
O	 2.7525465189	 1.1179208898	 0.6509488232	-0.25351
C	 2.6314736636	 0.6434098881	 1.9604139466	 0.087926
C	 1.4924023523	 1.2009253788	 2.7675963582	-0.333602
C	 1.428817976	-0.2182324263	 2.2389668081	-0.043977
C	 0.6330621937	-0.7239780374	 1.0587237895	-0.049871
H	 0.7141810546	 2.0792268603	 0.0918194179	 0.135125
H	-0.532172163	 1.7045814049	-1.1147374846	 0.116541
H	-0.9665524774	 1.7552459691	 0.5943440176	 0.12104
H	 1.2403367487	-1.470466939	-0.9891117534	 0.083529
H	 3.4277067166	-0.6153193491	-0.3022922176	 0.096833
H	 2.7069654374	 0.6565048765	-1.305201056	 0.115447
H	 3.5825489045	 0.4253147289	 2.4439956706	 0.08818
H	 1.6387043451	 1.3179550326	 3.8358132794	 0.112565
H	 0.8870593211	 1.9699582646	 2.308568916	 0.129076
H	 1.5594576067	-0.9915786456	 2.9903368836	 0.089109
H	 0.0655490738	-1.6211768906	 1.3013491446	 0.088684
179.3007	191.1848	236.5699	245.8573	283.6283	385.6704	421.6343	473.2755	541.5175	629.5643	705.0792	723.3581	788.104	808.4644	815.9952	859.6441	934.3278	974.0025	1003.7329	1027.3967	1049.6324	1073.868	1077.578	1106.8248	1122.0638	1133.6173	1151.9512	1163.5121	1181.4947	1197.4397	1238.6314	1297.334	1336.2671	1351.4124	1377.4552	1390.8328	1413.3046	1423.5494	1470.3455	1480.6676	1492.9771	1497.0384	1527.3134	2972.9045	3023.0885	3070.7212	3083.8493	3089.8236	3101.0214	3104.4695	3108.5529	3144.9296	3152.2241	3250.0537
CN1C2COC3CC3C12	CN1[C@H]2CO[C@H]3C[C@H]3[C@@H]12	
InChI=1S/C7H11NO/c1-8-5-3-9-6-2-4(6)7(5)8/h4-7H,2-3H2,1H3	InChI=1S/C7H11NO/c1-8-5-3-9-6-2-4(6)7(5)8/h4-7H,2-3H2,1H3/t4-,5+,6+,7-,8?/m1/s1
