15
gdb 126089	2.04272	1.82749	1.00748	2.8302	75.16	-0.2422	-0.0716	0.1707	1115.7954	0.111434	-453.943105	-453.934737	-453.933793	-453.976631	29.705	
C	 0.0902060967	 1.518502332	 0.0828423633	-0.398361
C	 0.1201529784	-0.0012223587	 0.0959888583	 0.041061
O	 0.765320189	-0.4658905665	-1.0908620084	-0.257992
C	 1.4493553572	-1.6811678044	-0.8509663172	-0.181597
C	 1.7821127862	-1.7160042412	 0.649901404	 0.296237
C	 0.9524943384	-0.6426908468	 1.1916255334	 0.171529
N	 0.9014301613	-0.3494710047	 2.4507642401	 0.134267
N	 0.8818785072	-0.1203114459	 3.561199247	-0.226182
O	 2.5353599079	-2.4762025048	 1.2097238412	-0.336628
H	 1.1065831078	 1.9195055896	 0.0584318364	 0.133205
H	-0.4477967838	 1.8663481389	-0.803111313	 0.139032
H	-0.4253649823	 1.9021920402	 0.9688250636	 0.123796
H	-0.9130281218	-0.389162337	 0.1270662806	 0.093407
H	 0.8329917454	-2.5609418452	-1.097284983	 0.12481
H	 2.3576210724	-1.7120168355	-1.4589538362	 0.143415
74.9784	125.3951	139.3246	161.1683	229.0241	294.9051	424.3465	458.6252	512.607	532.6389	595.8946	606.8724	668.9983	718.9885	869.243	988.9897	1008.3609	1060.607	1086.4508	1111.6952	1124.4899	1212.6235	1233.3065	1310.8252	1350.0871	1380.1974	1406.5929	1419.5213	1482.8819	1489.8391	1495.4231	1807.0524	2215.0219	2942.3874	2981.623	3045.5931	3094.5252	3120.0358	3132.8793
CC1OCC2=C1N=NO2	C[C@H]1OCC(=O)[C]1[N][N]	
InChI=1S/C5H6N2O2/c1-3-5-4(2-8-3)9-7-6-5/h3H,2H2,1H3	InChI=1S/C5H6N2O2/c1-3-5(7-6)4(8)2-9-3/h3H,2H2,1H3/t3-/m1/s1
