21
gdb 118181	2.44608	0.86637	0.71679	1.6104	76.12	-0.2656	0.0171	0.2827	1641.3231	0.178907	-461.405212	-461.393954	-461.39301	-461.443174	38.55	
C	 0.0572492581	 1.5256449752	 0.0316772746	-0.410306
C	 0.0005782728	 0.0026106967	-0.0136740575	 0.125917
C	 0.7315669128	-0.5891949594	-1.2127386912	-0.179179
C	 0.6096905262	-2.1045025632	-1.3174470678	-0.081632
O	 1.2854271576	-2.5058106958	-2.4999626514	-0.421081
O	 0.6420726342	-0.5425824996	 1.1730186128	-0.256147
C	-0.1030987425	-0.623751368	 2.295459299	 0.432068
C	 0.7092122702	-1.2059393418	 3.4285480321	-0.477832
O	-1.2562225053	-0.2790579516	 2.3704070141	-0.356137
H	 1.0945567652	 1.8723762705	 0.0739873663	 0.121524
H	-0.4100554924	 1.9458406929	-0.8641790298	 0.120891
H	-0.480063387	 1.9003459234	 0.9054197327	 0.140596
H	-1.0441137744	-0.3237144518	 0.0029993251	 0.107018
H	 0.3219850576	-0.1421531858	-2.1254777792	 0.110738
H	 1.7922677717	-0.3165822083	-1.1705984753	 0.112747
H	 1.0482979983	-2.5731821258	-0.424879706	 0.095821
H	-0.4553992861	-2.3889684568	-1.3501666453	 0.085065
H	 1.2561064282	-3.4653901496	-2.5514718127	 0.286256
H	 1.5840155843	-0.5787527583	 3.6223053402	 0.149398
H	 0.0910267816	-1.2691769393	 4.3231601078	 0.147231
H	 1.0769485288	-2.1993999436	 3.1566699017	 0.147043
45.5928	58.7265	77.2094	81.825	128.336	179.8094	199.7276	240.9785	262.6847	318.4757	333.511	431.0356	481.7952	500.6917	612.6293	640.5631	783.5232	849.9983	920.0829	954.0075	981.3357	1014.8662	1035.1249	1063.7145	1065.9018	1110.6066	1145.798	1177.368	1234.3684	1252.4293	1267.803	1314.207	1321.1803	1378.5353	1392.3544	1399.2329	1407.3188	1462.6071	1468.9889	1476.2882	1479.6731	1489.4863	1502.7008	1530.9076	1817.2716	2962.0581	3012.1513	3040.1025	3044.8572	3056.4538	3064.2862	3089.0297	3115.0898	3121.0974	3133.9969	3168.2957	3832.3324
CC(CCO)OC(C)=O	C[C@@H](CCO)OC(=O)C	
InChI=1S/C6H12O3/c1-5(3-4-7)9-6(2)8/h5,7H,3-4H2,1-2H3	InChI=1S/C6H12O3/c1-5(3-4-7)9-6(2)8/h5,7H,3-4H2,1-2H3/t5-/m0/s1
