14
gdb 129003	3.95339	1.73519	1.20591	4.5015	80.61	-0.2091	-0.0584	0.1507	938.9256	0.106235	-395.769079	-395.76322	-395.762275	-395.799126	24.037	
N	-0.0948523686	 1.3292877944	 0.0099712154	-0.299969
N	 1.0730966335	 1.9718997713	 0.0026283184	-0.199894
H	 0.9771920817	 2.9763496145	 0.0091869558	 0.285839
C	 2.312644077	 1.4171701121	-0.0121324872	 0.017444
C	 2.4714130296	 0.0503966527	-0.0213228038	-0.252037
C	 1.3028578998	-0.7178383303	-0.0146819142	 0.313241
N	 1.1137443093	-2.0289978246	-0.0202844358	-0.363
C	-0.2589641465	-2.1769339848	-0.0082412081	-0.02742
C	-0.9794643416	-0.9957819315	 0.0051643623	-0.270359
C	 0.0127089066	 0.0142793465	 0.0015540391	 0.320673
H	 3.1321486581	 2.1236886925	-0.0158430922	 0.139627
H	 3.459067479	-0.393248284	-0.0330908389	 0.127945
H	-0.6761435354	-3.177456357	-0.0099627825	 0.104263
H	-2.0495110525	-0.8647841517	 0.0159364717	 0.103647
232.8608	247.1498	429.5466	446.18	568.5826	580.4013	609.3622	609.5749	688.4927	756.9602	766.07	794.8831	840.8183	880.7514	927.4102	940.6956	949.5132	1032.6128	1072.6768	1111.762	1142.3857	1232.4752	1301.1406	1356.1389	1394.4436	1407.0144	1462.3134	1514.4703	1576.1113	1598.7674	1625.796	3204.3483	3211.4832	3228.2635	3265.1381	3625.0806
[N-]1[NH+]=CC=C2N=CC=C12	n1[nH]ccc2nccc12	
InChI=1S/C6H5N3/c1-3-7-5-2-4-8-9-6(1)5/h1-4,8H	InChI=1S/C6H5N3/c1-3-7-5-2-4-8-9-6(1)5/h1-4,8H
