17
gdb 133742	2.41124	1.22208	1.18552	1.7357	56.86	-0.2656	0.0643	0.3299	1113.3485	0.131408	-586.653385	-586.643896	-586.642952	-586.687427	35.306	
C	-0.0533317272	 1.5477148936	 0.0173109382	-0.425357
C	-0.0633940178	 0.0159897867	 0.0115313369	 0.058233
N	 0.5441409335	-0.4834587118	 1.2501678698	-0.551422
C	-1.5169706408	-0.5221666506	-0.0139147685	-0.064301
O	-2.2025153709	-0.1431594195	 1.1553808314	-0.426556
C	 0.6944229979	-0.5011910111	-1.2196879656	 0.270978
F	 1.9507920925	-0.0279487678	-1.2624737735	-0.082862
F	 0.7827860182	-1.8460176159	-1.2079579541	-0.088348
F	 0.0913578641	-0.1525410901	-2.3665763669	-0.07823
H	 0.9591709211	 1.9360157646	 0.1584787074	 0.121867
H	-0.4386430749	 1.936581243	-0.9281000856	 0.135963
H	-0.6922489167	 1.9024203851	 0.8271166073	 0.144694
H	 0.7457338189	-1.4762144487	 1.1682160184	 0.242177
H	 1.4232898288	-0.0123179839	 1.4364414451	 0.242378
H	-2.0586168149	-0.107805865	-0.8682298401	 0.120099
H	-1.4889388215	-1.617085816	-0.133004357	 0.09282
H	-1.5756978003	-0.3035631528	 1.8763607867	 0.287867
76.7285	136.5436	177.4201	217.5333	242.8179	286.2811	317.2229	338.8134	351.6184	369.1566	437.6372	462.7385	552.5185	570.3756	581.752	681.6056	761.4752	863.5735	896.8571	955.7502	1011.6127	1049.0968	1086.4256	1131.422	1176.0631	1197.3766	1203.9312	1272.0682	1301.0389	1350.2819	1384.3546	1409.4183	1446.2014	1491.9357	1499.8795	1517.307	1659.2526	2980.0492	3056.2577	3096.3209	3128.1082	3151.2236	3498.8208	3582.3293	3722.4616
CC(N)(CO)C(F)(F)F	C[C@@](N)(CO)C(F)(F)F	
InChI=1S/C4H8F3NO/c1-3(8,2-9)4(5,6)7/h9H,2,8H2,1H3	InChI=1S/C4H8F3NO/c1-3(8,2-9)4(5,6)7/h9H,2,8H2,1H3/t3-/m1/s1
