19
gdb 117301	4.36203	0.75745	0.71906	3.3173	75.67	-0.2541	0.0158	0.2699	1667.2493	0.157026	-456.398328	-456.387724	-456.38678	-456.436439	36.173	
C	-0.2488222596	 1.3885267284	 0.2928320145	-0.372903
C	-0.0091613755	 0.0168907496	-0.3405955063	-0.141119
N	-1.2245765826	-0.7715930233	-0.458133496	-0.342287
C	-1.4352367144	-1.900366175	 0.2570365122	 0.527091
O	-0.6778431888	-2.4309513205	 1.0228503582	-0.377062
O	-2.7514598943	-2.3299292655	 0.0434306882	-0.290831
C	-2.9864268484	-3.6643312197	-0.1847598607	 0.389003
C	-4.3567377026	-4.0349306818	 0.3118292802	-0.460844
N	-2.121536737	-4.3708732907	-0.7712794456	-0.4729
H	 0.6891468361	 1.9496614064	 0.3498202398	 0.122303
H	-0.9571753873	 1.9813813152	-0.2962549714	 0.112985
H	-0.6509930973	 1.2843685816	 1.3046218367	 0.133
H	 0.442296227	 0.1311129605	-1.3336552414	 0.112006
H	 0.6781604575	-0.5760743963	 0.266111452	 0.154035
H	-1.9689047145	-0.4619173218	-1.0608237977	 0.253277
H	-4.6142731684	-5.0563215198	 0.0273022321	 0.128639
H	-4.3928076645	-3.9438994599	 1.4021977231	 0.154383
H	-5.1054780687	-3.3482235445	-0.0947658362	 0.14535
H	-2.4521701267	-5.3278497131	-0.8774625814	 0.225874
22.6571	40.2701	61.2206	82.5475	152.6842	184.0751	226.7746	298.1458	331.5454	409.655	470.3829	494.313	548.4776	554.5494	687.6678	763.683	798.6171	864.2655	891.202	912.6868	968.1538	1034.4462	1068.7308	1074.7527	1092.216	1137.5066	1178.5102	1221.7807	1316.7635	1350.2097	1394.6448	1409.8162	1413.6088	1471.1997	1480.4975	1487.4778	1492.8475	1504.0422	1542.2775	1746.1601	1865.8147	3033.6562	3035.6436	3046.6634	3098.6397	3110.0659	3117.7515	3128.9002	3143.6336	3511.7001	3652.6958
CCNC(=O)OC(C)=N	CCNC(=O)O[C](C)[NH]	
InChI=1S/C5H10N2O2/c1-3-7-5(8)9-4(2)6/h6H,3H2,1-2H3,(H,7,8)	InChI=1S/C5H10N2O2/c1-3-7-5(8)9-4(2)6/h6H,3H2,1-2H3,(H,7,8)
