19
gdb 78541	2.30257	1.55319	1.22783	2.1862	75.3	-0.2066	0.0781	0.2847	1101.1503	0.156716	-422.934464	-422.92547	-422.924526	-422.967619	35.135	
C	-0.1779327376	 1.6000533462	-0.0293387754	-0.437861
C	 0.155402462	 0.1098214827	 0.0542981181	-0.081829
C	 1.4380723658	-0.6492720268	-0.2726441246	-0.226778
C	 2.7681898372	-0.1040012965	 0.3377123572	 0.398797
O	 3.9827964076	-0.6439337137	-0.0457579785	-0.453674
C	 2.6564617577	 1.1720803757	 1.1217876002	-0.374422
C	 2.1708352085	-0.1386840503	 1.7199617629	-0.189752
C	 0.8458371438	-0.7057604138	 1.1176585461	 0.360424
O	 0.2519199789	-1.8110102314	 1.7056509563	-0.451738
H	 0.4867781312	 2.1376611539	-0.7115869776	 0.127797
H	-1.1966116199	 1.7268788474	-0.4086781232	 0.11263
H	-0.1363219705	 2.0939117086	 0.9453272848	 0.127596
H	-0.6658363655	-0.5054466062	-0.3144245468	 0.097857
H	 1.4605076896	-1.4321646617	-1.0205824083	 0.098639
H	 4.3011783133	-0.1505902326	-0.8108656176	 0.283527
H	 3.6126915711	 1.4781857747	 1.5392667655	 0.114591
H	 2.0059772552	 1.9952090093	 0.8631949047	 0.109879
H	 2.595907955	-0.5523188225	 2.624852441	 0.101466
H	-0.3498744136	-1.4983301131	 2.3913531151	 0.28285
76.2877	178.0039	207.4888	248.189	266.7718	289.1232	321.0528	347.2982	395.3611	422.3531	499.6859	566.2426	590.8469	657.3143	726.4723	822.8233	840.4901	851.289	916.339	921.5891	962.3549	990.0768	1004.8368	1056.4907	1064.9561	1083.2051	1102.2759	1117.8415	1152.0367	1187.6476	1232.9661	1262.2979	1300.6241	1308.0082	1352.4457	1400.3882	1414.8756	1471.7242	1493.5217	1502.0313	1509.9075	3038.1476	3092.3981	3109.4467	3112.5631	3133.3247	3192.5764	3205.3265	3238.3488	3775.9973	3776.6526
CC1C2C3(O)CC3C12O	C[C@H]1[C@H]2[C@@]3(O)C[C@H]3[C@@]12O	
InChI=1S/C7H10O2/c1-3-5-6(8)2-4(6)7(3,5)9/h3-5,8-9H,2H2,1H3	InChI=1S/C7H10O2/c1-3-5-6(8)2-4(6)7(3,5)9/h3-5,8-9H,2H2,1H3/t3-,4+,5-,6+,7-/m0/s1
