23
gdb 82481	3.15895	1.41813	1.32289	0.1425	88.8	-0.2512	0.0851	0.3364	1117.8266	0.206904	-351.128569	-351.120343	-351.119398	-351.16059	33.901	
C	-0.1552968738	 1.6046105862	-0.0051798581	-0.419496
C	 0.0509836571	 0.0971325318	 0.0173974821	 0.050748
C	 1.0650190672	-0.5908043264	-0.9382515423	-0.057565
C	 2.4956886777	 0.0029450862	-0.896147369	-0.279979
C	 2.7807851055	-0.7282330134	 0.4445169763	 0.371786
C	 4.1596421147	-1.3095626833	 0.6590019579	-0.498475
C	 2.0936264445	-0.0140279801	 1.6407601487	-0.280002
C	 0.7212751275	-0.605310005	 1.230679401	-0.057551
C	 1.459167376	-1.5662660753	 0.2294459474	-0.089796
H	 0.7805291235	 2.1511813778	 0.1465195797	 0.115666
H	-0.5739423259	 1.929066858	-0.9648184066	 0.111458
H	-0.8503635369	 1.9173851774	 0.7825385317	 0.111461
H	-0.9161022949	-0.3977926785	-0.1391830983	 0.067623
H	 0.6906764104	-0.9088257658	-1.9126340659	 0.056353
H	 3.1072899619	-0.422246043	-1.6991872158	 0.091591
H	 2.6112831435	 1.0922364944	-0.9201004915	 0.086143
H	 4.9054543331	-0.5134925589	 0.7813944493	 0.113251
H	 4.1955716227	-1.9358849978	 1.5578338016	 0.10961
H	 4.4719407186	-1.925732298	-0.1920441232	 0.109626
H	 2.4278271128	-0.4509405752	 2.5879315541	 0.091591
H	 2.1938784498	 1.074616628	 1.7135154458	 0.086141
H	 0.0646596289	-0.9352443287	 2.0373339124	 0.056353
H	 1.388074156	-2.6519667007	 0.2109245427	 0.053461
153.173	189.0677	214.999	219.3022	277.5914	331.9392	383.3037	410.7266	527.454	541.4005	624.2619	684.009	755.9568	815.1512	840.4035	843.8268	875.9688	913.4961	918.7996	942.764	965.0583	973.6684	996.9302	1055.3767	1057.9172	1098.7554	1100.1657	1133.6984	1138.5582	1152.247	1182.4613	1189.7155	1228.6288	1231.4263	1249.3421	1250.3477	1283.6516	1319.0462	1330.8553	1348.2461	1376.9303	1409.8752	1410.1996	1474.8486	1483.8611	1490.5054	1492.8087	1501.0375	1503.3042	3012.6929	3017.0871	3026.5719	3028.5791	3033.4391	3074.3226	3074.5933	3077.8692	3084.9124	3086.9159	3087.1629	3087.8447	3102.696	3132.4807
CC1C2CC3(C)CC1C23	C[C@H]1[C@H]2C[C@@]3(C)C[C@@H]1[C@@H]23	
InChI=1S/C9H14/c1-5-6-3-9(2)4-7(5)8(6)9/h5-8H,3-4H2,1-2H3	InChI=1S/C9H14/c1-5-6-3-9(2)4-7(5)8(6)9/h5-8H,3-4H2,1-2H3/t5-,6+,7-,8+,9-
