18
gdb 85000	2.29862	1.54713	0.97179	4.4268	78.33	-0.2182	-0.0178	0.2004	1193.1346	0.147386	-439.139322	-439.130012	-439.129068	-439.173618	34.461	
C	 0.0645512549	 1.5715238005	 0.0147586022	-0.5357
C	-0.005268611	 0.0758877012	 0.0196981016	 0.098098
C	-1.1109517428	-0.7126201889	 0.0081477998	 0.240256
N	-2.4218269653	-0.3549273983	-0.0119018763	-0.577468
C	-0.7871810384	-2.1951880469	 0.0816491079	 0.045851
O	-1.530214013	-2.9513268756	-0.872266203	-0.434282
C	 0.7422998827	-2.2384071646	-0.0455457768	-0.374298
C	 1.1895717875	-0.766768269	 0.0300796259	 0.333358
O	 2.3454268557	-0.3936235437	 0.0709211877	-0.362833
H	 1.1141943262	 1.8761736667	 0.0312711	 0.156809
H	-0.4004200092	 2.008242428	-0.8789447452	 0.114219
H	-0.4322985941	 2.0109801578	 0.8883235002	 0.124138
H	-2.666210724	 0.5893545971	-0.2639978297	 0.261583
H	-3.0681465714	-1.0690737384	-0.3133648647	 0.265396
H	-1.1191698275	-2.5915843463	 1.0480285724	 0.113021
H	-1.2058692629	-2.7146512853	-1.7491285773	 0.282204
H	 1.2322057444	-2.8350156795	 0.727688417	 0.129198
H	 1.0420849781	-2.6623577248	-1.0108518618	 0.120451
65.01	85.6759	121.6197	229.3901	231.7971	293.297	333.5721	375.0388	406.0044	480.5107	517.2305	547.7692	566.5866	598.5603	614.2858	679.3134	750.4336	855.6389	941.0405	983.3063	1027.4185	1057.3251	1076.8274	1095.924	1137.6727	1206.9286	1259.0973	1278.6736	1294.1031	1318.3197	1385.7347	1419.2962	1426.8577	1462.6925	1490.8193	1495.354	1635.5154	1702.4568	1790.7449	3012.3157	3048.0686	3052.0851	3060.181	3107.3665	3118.9883	3576.375	3690.6026	3791.0259
CC1=C(N)C(O)CC1=O	CC1=C(N)[C@@H](O)CC1=O	
InChI=1S/C6H9NO2/c1-3-4(8)2-5(9)6(3)7/h5,9H,2,7H2,1H3	InChI=1S/C6H9NO2/c1-3-4(8)2-5(9)6(3)7/h5,9H,2,7H2,1H3/t5-/m0/s1
