13
gdb 21141	7.09521	1.36491	1.15416	3.1029	59.02	-0.2281	0.0241	0.2523	983.9802	0.095125	-431.902577	-431.894939	-431.893995	-431.9351	26.705	
C	-0.0922441265	 1.3697743135	 0.0746057125	-0.33245
N	-0.1739999494	-0.0675168081	-0.1375627801	-0.364305
C	 0.5005840457	-0.5819770474	-1.0507122518	 0.547002
O	 1.3517661801	-0.0140347136	-1.9477820477	-0.257787
N	 1.9314604729	-1.0503801251	-2.75964224	-0.222886
C	 1.3514937624	-2.1158242329	-2.3279042782	 0.486662
N	 1.4770281896	-3.376799331	-2.8239139952	-0.588349
O	 0.482450564	-1.943953961	-1.3097318354	-0.22035
H	 0.8249576895	 1.8246046938	-0.3183529523	 0.128647
H	-0.9485417265	 1.8663730332	-0.3974419137	 0.131327
H	-0.152204428	 1.5705923309	 1.148008995	 0.129302
H	 2.2640846343	-3.5022510639	-3.4431867027	 0.282833
H	 1.354086302	-4.1163451884	-2.1480125904	 0.280355
48.2292	113.6155	195.7464	266.2191	274.3172	334.0677	380.8648	551.3573	568.7888	676.3655	687.7668	736.7771	760.5278	901.9509	931.8904	1003.9776	1098.9988	1126.7015	1140.2745	1168.3945	1208.0442	1444.8753	1478.1508	1492.8458	1504.6498	1623.6697	1728.4247	1851.4099	3015.0774	3074.1418	3098.416	3579.5556	3688.8188
CN=C1ON=C(N)O1	CN=c1onc(N)o1	
InChI=1S/C3H5N3O2/c1-5-3-7-2(4)6-8-3/h1H3,(H2,4,6)	InChI=1S/C3H5N3O2/c1-5-3-7-2(4)6-8-3/h1H3,(H2,4,6)
