18
gdb 79693	2.65233	1.81018	1.3922	3.2936	75.86	-0.224	0.009	0.233	973.9177	0.148417	-401.892365	-401.8848	-401.883856	-401.924436	29.719	
C	-0.0562705625	 1.5440174192	-0.0152214732	-0.341414
N	 0.034384996	 0.0879064136	-0.0222401785	-0.071161
C	 0.7166895595	-0.7402634219	-1.0431861559	-0.158691
C	 2.2332404375	-0.6836315049	-0.7606202658	-0.05282
C	 2.7995700912	 0.4672224185	 0.0284197276	-0.31576
C	 2.2062469109	-0.6928572362	 0.7833530148	-0.052813
C	 0.6807574333	-0.7524927883	 1.0120154378	-0.158687
C	 0.3386852999	-1.875737519	-0.0286038786	 0.468289
O	-0.0625276839	-2.9926771632	-0.0422637975	-0.319126
H	 0.4334765173	 1.9848758286	-0.8900187358	 0.131627
H	-1.1088158413	 1.8529972709	-0.0322837904	 0.122125
H	 0.401633399	 1.9742456639	 0.881829188	 0.131635
H	 0.3518883965	-0.7010041116	-2.0678371887	 0.089434
H	 2.8914322276	-1.3272602607	-1.3321505793	 0.101627
H	 3.8844259833	 0.5062766808	 0.0476067644	 0.119248
H	 2.3377586971	 1.4433762571	 0.0262140178	 0.115428
H	 2.844163893	-1.3434246088	 1.3698226924	 0.101626
H	 0.2803356756	-0.725345748	 2.0236759308	 0.089434
88.1456	123.5665	246.5826	261.6868	305.7909	386.0886	540.2611	558.3971	640.5249	692.5536	695.0519	751.4543	752.0014	798.9019	869.0041	882.5646	888.2093	1001.4776	1010.9582	1034.5652	1054.6067	1072.1931	1084.0406	1097.734	1100.2837	1116.6764	1167.951	1178.6028	1212.7761	1220.049	1244.6631	1303.5367	1313.9919	1359.4207	1449.0269	1482.7244	1503.4335	1517.3103	1927.2754	3010.2125	3062.0764	3093.1889	3139.1198	3141.7382	3147.6598	3180.6698	3188.7819	3249.8496
CN1C2C3CC3C1C2=O	CN1[C@H]2[C@H]3C[C@H]3[C@@H]1C2=O	
InChI=1S/C7H9NO/c1-8-5-3-2-4(3)6(8)7(5)9/h3-6H,2H2,1H3	InChI=1S/C7H9NO/c1-8-5-3-2-4(3)6(8)7(5)9/h3-6H,2H2,1H3/t3-,4+,5-,6+
