14
gdb 131938	2.69105	1.61275	1.01468	3.7464	67.59	-0.2557	-0.0794	0.1764	1079.1247	0.100782	-473.77382	-473.766185	-473.765241	-473.806478	27.633	
C	-0.0346009485	 1.5511508062	 0.0003928489	-0.489928
C	-0.0128119804	 0.0567321324	 0.0296048216	 0.147334
C	-0.0268276681	-0.7903492186	-1.0320704378	-0.072901
O	 0.0013889508	-2.1014900317	-0.6325379574	-0.137668
C	 0.0342611595	-2.1117683771	 0.7069608958	-0.015993
C	 0.0273760059	-0.8272421347	 1.1660049132	 0.205337
N	 0.0564454351	-0.4776052723	 2.5578650694	 0.350381
O	 0.0890808417	-1.3968240569	 3.370391238	-0.374681
O	 0.0467379513	 0.7163192533	 2.8432022579	-0.37307
H	 0.847700774	 1.967997533	 0.4932738132	 0.151244
H	-0.0639382449	 1.9110477129	-1.0312785346	 0.122355
H	-0.9042645966	 1.9432631555	 0.534367507	 0.151204
H	-0.0550633404	-0.6300796265	-2.0968824382	 0.154546
H	 0.0598754708	-3.0643932555	 1.206230403	 0.18184
68.8222	163.4416	201.5373	213.5569	275.2463	321.8683	438.3732	542.1839	615.6867	629.0551	678.089	756.8674	784.1101	840.3449	848.5207	892.7787	1022.3368	1069.0696	1076.5496	1153.6968	1195.7822	1238.1282	1305.5045	1401.5407	1419.3244	1431.739	1475.4697	1487.3643	1555.1667	1607.9356	1647.8391	3050.5353	3115.1822	3126.7512	3283.3239	3304.4466
CC1=COC=C1N(=O)=O	Cc1cocc1N(=O)=O	
InChI=1S/C5H5NO3/c1-4-2-9-3-5(4)6(7)8/h2-3H,1H3	InChI=1S/C5H5NO3/c1-4-2-9-3-5(4)6(7)8/h2-3H,1H3
