13
gdb 25322	2.28283	1.59589	0.93926	2.6488	79.21	-0.2388	-0.0684	0.1704	1141.2508	0.088387	-419.435483	-419.427823	-419.426879	-419.467942	28.052	
O	-0.0406129344	-0.0647303884	 0.0001535011	-0.271582
C	 0.0034908998	 1.1459193695	 0.0096760243	 0.047385
C	 1.2467320653	 1.9147688327	 0.0021069918	 0.038097
C	 1.3600807013	 3.2908069382	 0.0123227433	 0.1801
O	 2.6745362182	 3.6416471063	 0.0004804647	-0.178555
C	 3.3987091378	 2.4863674824	-0.0173259937	-0.022571
C	 2.5848096142	 1.4036099818	-0.0172471	-0.25366
C	 0.3982081813	 4.3132685545	 0.031673827	 0.274611
C	-0.4385085921	 5.1796304297	 0.0485787512	-0.404861
H	-0.9211342036	 1.7598947603	 0.0253170019	 0.082598
H	 4.4682559293	 2.6160755718	-0.0282732311	 0.150778
H	 2.8674988712	 0.3637362744	-0.0291432858	 0.148858
H	-1.1767473782	 5.9435200369	 0.0641573053	 0.208801
119.9647	136.9301	163.7657	214.964	278.1147	429.7408	447.7379	575.4315	575.5906	595.9597	621.9131	696.5266	716.3447	782.5673	790.3658	864.9841	913.7252	1038.5305	1058.3443	1083.9551	1164.293	1246.8726	1297.8752	1422.7925	1447.1252	1526.3729	1596.5537	1783.7589	2230.3491	2914.5872	3271.2627	3292.4338	3497.7413
O=CC1=C(OC=C1)C#C	O=Cc1c(occ1)C#C	
InChI=1S/C7H4O2/c1-2-7-6(5-8)3-4-9-7/h1,3-5H	InChI=1S/C7H4O2/c1-2-7-6(5-8)3-4-9-7/h1,3-5H
