17
gdb 65634	3.46109	1.2705	1.17299	2.2091	73.92	-0.243	0.0221	0.2651	1086.6722	0.134113	-421.746174	-421.737798	-421.736854	-421.779163	32.06	
O	 0.048846453	 1.4947453713	-0.3890828362	-0.46046
C	 0.013334558	 0.1094259849	-0.1029218457	 0.213955
C	 0.1591897896	-0.306441512	 1.4152935221	-0.300713
C	-1.2743385922	-0.8832477854	 1.3856349189	 0.124334
O	-2.2642225312	 0.0606549263	 1.8315046607	-0.292464
C	-2.4962091042	 0.523620788	 0.4764406139	-0.092878
C	-1.4463596127	-0.4451075728	-0.094364374	-0.116094
C	 0.9059404046	-0.6366595883	-0.9836145525	 0.26398
C	 1.6635384008	-1.2365906115	-1.6998302079	-0.453332
H	 0.9712871434	 1.7581798659	-0.476487026	 0.286664
H	 0.9538649093	-1.0320584126	 1.598328599	 0.111525
H	 0.2619037031	 0.5478661179	 2.0872827977	 0.1186
H	-1.4420057529	-1.8896346113	 1.7749700492	 0.079627
H	-3.5217512701	 0.3058623099	 0.1557086162	 0.099763
H	-2.2883930641	 1.5898775714	 0.3529341365	 0.127499
H	-1.7335676427	-1.09109092	-0.9207826228	 0.089121
H	 2.3264528283	-1.7662897216	-2.338848599	 0.200873
65.9015	137.1937	167.3075	248.1144	269.5515	340.0829	395.3504	436.0939	500.0807	545.2753	620.0511	642.1597	665.6206	732.3248	787.2594	836.7469	908.6647	922.6412	931.3655	978.9723	1004.78	1037.6473	1055.6774	1103.1862	1107.9058	1161.1628	1182.7406	1221.5492	1225.9433	1252.4242	1284.8796	1311.4814	1355.7659	1367.1328	1447.2216	1517.2315	2227.6018	3028.2026	3071.0404	3087.2582	3095.4631	3139.0926	3140.6134	3498.8831	3812.977
OC1(CC2OCC12)C#C	O[C@]1(C[C@H]2OC[C@@H]12)C#C	
InChI=1S/C7H8O2/c1-2-7(8)3-6-5(7)4-9-6/h1,5-6,8H,3-4H2	InChI=1S/C7H8O2/c1-2-7(8)3-6-5(7)4-9-6/h1,5-6,8H,3-4H2/t5-,6-,7+/m1/s1
