16
gdb 71865	3.07001	1.71026	1.36965	5.225	68.07	-0.2727	0.0087	0.2813	952.2403	0.125133	-437.889006	-437.882035	-437.881091	-437.920262	27.487	
C	-0.0559959804	 1.5235656596	 0.0013373961	-0.491632
C	-0.0105579915	 0.0309788206	-0.0744797028	 0.30815
C	 0.819147821	-0.8203066527	-1.0501835743	-0.302962
C	-0.1097242194	-2.0160997056	-0.6935988542	 0.06071
O	 0.4752781132	-2.7434359067	 0.3928074697	-0.231717
C	 0.5199222043	-1.8817436763	 1.4576589483	 0.451798
O	 1.1354232571	-2.0918017679	 2.4542578288	-0.336657
N	-0.3070604202	-0.7341797143	 1.1929487294	-0.224516
C	-1.0773087185	-1.0110465556	-0.0217458906	-0.106213
H	 0.8963900303	 1.9203976282	 0.3687309692	 0.140154
H	-0.2410556899	 1.9522887378	-0.9891611595	 0.125697
H	-0.8449896019	 1.8502184915	 0.6824908806	 0.144541
H	 0.660529998	-0.4771764324	-2.0761963964	 0.119408
H	 1.887993297	-0.9599356406	-0.8634854377	 0.122569
H	-0.4323257485	-2.7126563378	-1.4620299235	 0.107984
H	-2.1596437703	-0.9702982878	-0.0054493431	 0.112686
145.2115	194.9539	203.87	295.3459	409.2919	452.0608	507.2557	588.1019	669.0307	694.4179	731.8876	820.5701	868.2282	888.1583	896.1451	918.2948	927.2487	997.2496	1007.3737	1027.7099	1042.3619	1110.4752	1124.5468	1159.315	1174.0451	1207.1155	1249.8347	1280.5426	1341.9608	1394.8413	1432.3108	1480.9431	1485.5565	1492.0933	1909.0347	3038.5912	3055.2929	3101.4654	3114.24	3130.1542	3167.0642	3192.825
CC12CC3OC(=O)N1C23	C[C@@]12C[C@H]3OC(=O)N1[C@@H]23	
InChI=1S/C6H7NO2/c1-6-2-3-4(6)7(6)5(8)9-3/h3-4H,2H2,1H3	InChI=1S/C6H7NO2/c1-6-2-3-4(6)7(6)5(8)9-3/h3-4H,2H2,1H3/t3-,4-,6+,7?/m1/s1
