20
gdb 52160	4.13409	0.77964	0.74964	2.7875	80.58	-0.2433	-0.0214	0.2219	1559.9721	0.170124	-403.105069	-403.096223	-403.095279	-403.140048	32.35	
O	-0.2262163241	-0.006976904	-0.1396731759	-0.236235
C	 0.0669663864	 1.1300703353	 0.1263109793	 0.156052
C	 1.345642826	 1.818840672	-0.286430498	-0.265314
C	 1.0705281873	 3.0999806886	-1.0884254326	-0.156405
N	 2.3081322415	 3.847914668	-1.255797021	-0.073608
C	 3.2512015422	 3.594135805	-2.3253859788	-0.041212
C	 2.5752282591	 3.2535795909	-3.6684931115	-0.246008
C	 1.7807585998	 4.5948699012	-3.5812765335	-0.24467
C	 2.479806651	 4.8932575883	-2.2396868632	-0.043142
H	-0.625286164	 1.7728810767	 0.7213424807	 0.070048
H	 1.8927853567	 2.1014428856	 0.6232668243	 0.129767
H	 1.9606961917	 1.1161701032	-0.8553285813	 0.122363
H	 0.5735162982	 2.8352689957	-2.0330307465	 0.105402
H	 0.3759934636	 3.7426531174	-0.5330747501	 0.107911
H	 4.2795538376	 3.3744438218	-2.0590963088	 0.093711
H	 3.2874787033	 3.251613788	-4.4959583988	 0.109944
H	 2.000625542	 2.3230996045	-3.7071440673	 0.105667
H	 2.0768452649	 5.298014318	-4.3624185171	 0.109557
H	 0.6882813316	 4.5396876739	-3.5631082767	 0.102624
H	 2.7956590952	 5.8718804899	-1.8935609034	 0.09355
46.1964	69.2121	85.1862	150.7123	267.6752	283.8322	330.638	419.7652	526.0371	547.2267	736.7171	771.0503	784.4793	802.0328	836.6582	872.8185	907.3754	948.545	956.8291	981.7613	1005.7423	1040.6033	1061.6202	1093.4041	1103.7196	1128.0719	1144.8745	1217.4835	1221.2453	1224.4027	1250.3854	1273.9691	1277.9323	1286.4749	1320.297	1377.8791	1404.1026	1429.8324	1466.6605	1477.3616	1495.2303	1513.5309	1836.1762	2845.6325	2996.8975	3028.5871	3046.3834	3054.7787	3061.5734	3104.643	3106.2403	3121.6469	3160.7887	3172.8156
O=CCCN1C2CCC12	O=CCCN1[C@H]2CC[C@@H]12	
InChI=1S/C7H11NO/c9-5-1-4-8-6-2-3-7(6)8/h5-7H,1-4H2	InChI=1S/C7H11NO/c9-5-1-4-8-6-2-3-7(6)8/h5-7H,1-4H2/t6-,7+,8?
