22
gdb 7191	4.88306	0.718	0.65301	2.6598	75.28	-0.2615	0.0766	0.3381	1714.302	0.198154	-387.332486	-387.321773	-387.320829	-387.368899	37.258	
C	-0.1163032975	 1.6483345453	 0.0120051582	-0.391617
C	-0.0161647039	 0.1138089728	 0.0027863099	 0.01186
C	 0.6835279502	-0.4121609243	-1.2634181045	-0.162611
C	-0.0407317307	-0.115161979	-2.5716588005	-0.087201
O	 0.6582545517	-0.7909929578	-3.6084500575	-0.420858
C	 0.7074760498	-0.4256975056	 1.249688576	-0.162612
C	 0.0083408286	-0.142830788	 2.5746227588	-0.087202
O	 0.7268600566	-0.8297533109	 3.5905623411	-0.420859
H	 0.8820728066	 2.1024461157	 0.0049673876	 0.114861
H	-0.6583143448	 2.0249482177	-0.8602195708	 0.113324
H	-0.6416083271	 2.0154728913	 0.8983763792	 0.113324
H	-1.0398410463	-0.2915967958	 0.010357993	 0.068135
H	 1.7008368791	-0.0040738292	-1.3245939831	 0.100746
H	 0.7919078033	-1.5009509732	-1.192337388	 0.104546
H	-1.0854346705	-0.4637369427	-2.5043790383	 0.080936
H	-0.0706761498	 0.9679741951	-2.7633737442	 0.085481
H	 0.2380499731	-0.5725414538	-4.4452089122	 0.284017
H	 0.8143284307	-1.5136531427	 1.1648513953	 0.104547
H	 1.7258237651	-0.0182250948	 1.2958337789	 0.100746
H	-0.0177660263	 0.938177499	 2.7785212	 0.085481
H	-1.0375117913	-0.490706028	 2.5235285596	 0.080936
H	 0.3227105632	-0.6203554209	 4.4374827115	 0.284017
60.5287	75.8284	88.5845	123.281	124.4012	231.5234	254.2428	264.9806	265.83	312.4295	334.9536	390.3687	478.225	547.716	787.6129	799.9055	864.3644	941.6895	955.0273	995.7258	1024.9538	1044.4741	1061.5749	1070.0018	1121.8918	1169.7264	1184.8912	1220.5285	1238.209	1249.7461	1263.9421	1307.9547	1315.4998	1323.5586	1353.1359	1376.6252	1384.0756	1415.2349	1462.4886	1465.3574	1482.985	1496.2591	1500.1164	1509.7082	1528.6778	1529.1869	2956.3872	2956.418	2983.9396	2996.3964	2997.2872	3023.6912	3027.8743	3033.205	3066.7354	3074.6373	3097.8442	3107.9834	3829.4563	3829.4827
CC(CCO)CCO	CC(CCO)CCO	
InChI=1S/C6H14O2/c1-6(2-4-7)3-5-8/h6-8H,2-5H2,1H3	InChI=1S/C6H14O2/c1-6(2-4-7)3-5-8/h6-8H,2-5H2,1H3
