20
gdb 110502	2.61341	1.41129	1.14529	1.3212	77.6	-0.2349	0.066	0.301	1145.599	0.170958	-403.074595	-403.066092	-403.065148	-403.107727	32.862	
C	-0.0093333205	 1.5668215586	 0.0444847082	-0.514157
C	 0.0390542784	 0.0618286747	 0.0407957662	 0.258316
C	-1.2070265282	-0.8193803991	 0.2652310581	-0.188873
N	-0.3391410394	-1.9159455756	 0.8047298685	-0.150356
C	 0.9259880015	-1.8480362629	-0.01664889	-0.069186
C	 0.7130155842	-0.9061676706	 1.1030105684	-0.101471
C	 0.8305284877	-0.7276965611	-1.055630923	-0.035602
C	 0.2590239913	-0.9808241572	-2.4465096073	-0.108403
O	 1.153840723	-1.7389964854	-3.2522492798	-0.418825
H	 0.9960130359	 2.0001506726	 0.0142030623	 0.122782
H	-0.5589376029	 1.9438276165	-0.8260760655	 0.124371
H	-0.5118066634	 1.945024087	 0.9415724282	 0.12108
H	-1.8325656803	-0.4516376603	 1.0841459079	 0.105441
H	-1.8435164585	-1.0857326853	-0.5860598555	 0.095543
H	 1.5226216835	-2.7514385536	-0.034335712	 0.094058
H	 1.1869184463	-0.7743220479	 2.0671279959	 0.096326
H	 1.8239254875	-0.2780364988	-1.1686478396	 0.083397
H	-0.7250328031	-1.4668947819	-2.3933852499	 0.091658
H	 0.1239447006	-0.028754065	-2.9727956253	 0.108835
H	 1.2253928966	-2.6154487848	-2.860797506	 0.285065
65.2954	168.1697	189.8811	219.1359	253.4183	295.8214	307.8652	394.5862	506.9191	566.82	612.0239	696.7859	764.7744	796.8492	825.3914	869.6908	876.5035	943.7365	955.7265	983.1504	1012.5072	1017.8717	1041.544	1066.8835	1104.1716	1143.0406	1150.3274	1159.0221	1177.4269	1206.4703	1214.3761	1244.0542	1267.7998	1324.7607	1352.8684	1358.2554	1402.849	1414.672	1425.1574	1489.4376	1493.9361	1502.1636	1517.7278	3002.6192	3024.3475	3038.4315	3045.3568	3066.1596	3088.0879	3092.1899	3095.42	3188.7299	3203.6136	3816.8612
CC12CN3C(C13)C2CO	C[C@]12CN3[C@H]([C@@H]13)[C@H]2CO	
InChI=1S/C7H11NO/c1-7-3-8-5(6(7)8)4(7)2-9/h4-6,9H,2-3H2,1H3	InChI=1S/C7H11NO/c1-7-3-8-5(6(7)8)4(7)2-9/h4-6,9H,2-3H2,1H3/t4-,5+,6+,7-,8?/m1/s1
