20
gdb 17785	5.81114	1.14628	1.12091	0.9515	76.49	-0.2472	0.0969	0.344	1164.5817	0.177515	-348.94928	-348.941452	-348.940508	-348.981986	29.608	
C	-0.0565395959	 1.4902271879	-0.0231355373	-0.385375
C	-0.1334595018	-0.0007305766	 0.2579989802	-0.042963
O	-1.3119036504	-0.5108631083	-0.3403881453	-0.268432
C	-1.4547894097	-1.894021395	-0.2078377559	 0.202147
C	-2.0374552321	-2.5031776591	 1.1135444637	-0.089132
C	-3.4000366018	-1.8594956009	 0.7156396463	-0.216652
C	-2.8333667747	-2.4739498508	-0.6015261215	-0.086966
C	-2.4410285168	-3.7230631699	 0.2393200171	-0.223263
H	 0.8461362698	 1.9172033656	 0.4240881758	 0.113579
H	-0.0332238063	 1.6761145828	-1.1006662034	 0.126608
H	-0.9271506476	 2.0047405078	 0.3935718795	 0.126291
H	 0.750485098	-0.5178781322	-0.1516706173	 0.08601
H	-0.143251141	-0.1900953275	 1.3432255021	 0.089882
H	-0.575098824	-2.416060649	-0.6150792763	 0.055787
H	-1.5758677426	-2.5279953004	 2.1016554425	 0.066487
H	-4.2949090445	-2.3365163874	 1.1240926457	 0.084828
H	-3.4598799571	-0.772533972	 0.7573099302	 0.106799
H	-3.287671602	-2.4580759233	-1.5928364654	 0.070988
H	-1.632526344	-4.3505733451	-0.1480860594	 0.088103
H	-3.2707229654	-4.3257478267	 0.6144675886	 0.095271
69.6158	82.0169	149.1685	243.5485	336.7347	351.7391	408.1858	543.5889	623.8672	770.8402	805.4666	820.923	876.5298	899.0224	904.7464	913.5259	920.7103	1017.7731	1019.4022	1024.5384	1068.7973	1088.6959	1104.1391	1117.4274	1144.7963	1161.937	1180.613	1191.7001	1197.682	1216.8117	1247.5304	1258.3702	1278.847	1297.7939	1385.1833	1406.2449	1443.0365	1483.6709	1492.2416	1499.5573	1525.387	1533.1978	2960.8212	2984.7627	2991.9082	3044.5211	3050.3519	3063.8457	3101.1266	3109.1517	3118.801	3120.1208	3121.4013	3147.4755
CCOC1C2CC1C2	CCO[C@H]1[C@H]2C[C@@H]1C2	
InChI=1S/C7H12O/c1-2-8-7-5-3-6(7)4-5/h5-7H,2-4H2,1H3	InChI=1S/C7H12O/c1-2-8-7-5-3-6(7)4-5/h5-7H,2-4H2,1H3/t5-,6+,7-
