18
gdb 114729	2.41798	1.49791	1.1066	3.8448	71.62	-0.2262	-0.0227	0.2035	1118.5548	0.149042	-439.079275	-439.071205	-439.070261	-439.112206	31.001	
O	 0.184633696	 1.1354693753	-0.5726457658	-0.421298
C	 0.0437276734	-0.2351170806	-0.2768813346	-0.046007
C	-1.3963632135	-0.5416676524	 0.1748336239	-0.145348
N	-2.379242663	-0.0460973259	-0.8143665791	-0.331323
C	-3.1106598585	-1.1928523715	-1.3500467386	 0.003554
C	-2.31232302	-2.1905023769	-2.1077597067	-0.293442
C	-2.6822324263	-2.4700813139	-0.6446149436	-0.17484
C	-1.6593790012	-2.0505075164	 0.3584841197	 0.412672
O	-1.138306035	-2.7365537527	 1.2029489869	-0.334657
H	-0.542644126	 1.3352143436	-1.1782970545	 0.282017
H	 0.3089145814	-0.8619785585	-1.1436326171	 0.086112
H	 0.7384669359	-0.4791224302	 0.5314099292	 0.127873
H	-1.5508048785	-0.0461873522	 1.1390323597	 0.114577
H	-3.038734457	 0.5686229019	-0.3539689617	 0.235281
H	-4.1412225751	-1.0018694339	-1.6232756786	 0.106335
H	-2.828874672	-2.8069612219	-2.8345536052	 0.131669
H	-1.282638543	-1.9638596622	-2.3607513734	 0.133309
H	-3.3241919174	-3.3098175016	-0.4128397806	 0.113516
78.2324	121.9542	174.2294	196.6301	320.6924	389.7376	419.0574	507.8955	542.0966	593.9103	614.3864	716.7828	770.9638	802.5868	828.5105	843.9415	902.077	958.3054	993.6843	997.0214	1047.189	1056.4757	1079.9593	1089.6496	1092.7567	1151.9783	1173.1369	1194.2847	1218.6943	1247.4052	1312.2179	1317.4874	1384.1972	1399.7653	1428.5401	1451.3284	1486.4616	1507.8007	1829.9432	2971.2888	3057.224	3098.0381	3138.8215	3187.4093	3202.3381	3228.3153	3552.1358	3744.1856
OCC1NC2CC2C1=O	OC[C@H]1N[C@H]2C[C@H]2C1=O	
InChI=1S/C6H9NO2/c8-2-5-6(9)3-1-4(3)7-5/h3-5,7-8H,1-2H2	InChI=1S/C6H9NO2/c8-2-5-6(9)3-1-4(3)7-5/h3-5,7-8H,1-2H2/t3-,4+,5-/m1/s1
