17
gdb 11319	4.26188	1.52621	1.20129	2.8616	76.03	-0.2309	-0.0243	0.2066	1027.2765	0.141866	-363.890163	-363.882064	-363.88112	-363.923309	29.077	
C	-0.0304533236	 1.4424187709	-0.0304438501	-0.33396
N	-0.0753328567	-0.0089919117	-0.044827238	-0.335081
C	 0.5069994611	-0.6419235632	-0.9701850259	 0.427112
O	 1.2095459763	-0.078096654	-2.0159411761	-0.264997
C	 1.7352241289	-1.1105237938	-2.8671599062	 0.066256
C	 3.2519876451	-0.9700654227	-2.9811229308	-0.391963
C	 1.2648287583	-2.3883956915	-2.2248156431	-0.100371
C	 0.5624449303	-2.0998174036	-1.1302588274	-0.165618
H	 0.6349860298	 1.8844963324	-0.7804392219	 0.120802
H	-1.0421984	 1.8365059337	-0.1886059319	 0.123729
H	 0.2837755209	 1.7791063042	 0.9641133353	 0.121893
H	 1.2836315501	-0.9799459554	-3.8620138936	 0.101948
H	 3.7218805071	-1.0943056389	-2.0016365443	 0.130998
H	 3.6525422464	-1.7284277512	-3.6614157508	 0.119871
H	 3.510905246	 0.0168255574	-3.3733964921	 0.133708
H	 1.495346273	-3.3661606474	-2.6267832641	 0.118716
H	 0.0878987669	-2.7724685351	-0.4314058792	 0.126956
43.5993	106.9869	169.1817	206.996	239.7021	312.3146	378.0877	500.6619	513.2752	669.4316	701.7077	766.0949	815.4376	854.5666	886.2804	955.6891	973.0656	1036.5437	1053.9577	1095.2722	1125.756	1129.0015	1132.9746	1149.8448	1211.5645	1339.9566	1348.2326	1374.3747	1403.4587	1436.979	1485.9155	1492.6769	1494.8744	1497.0413	1661.5677	1777.9057	2994.439	3012.5396	3042.741	3067.4902	3085.9235	3117.547	3128.7079	3222.8421	3258.8476
CN=C1OC(C)C=C1	CN=C1O[C@@H](C)C=C1	
InChI=1S/C6H9NO/c1-5-3-4-6(7-2)8-5/h3-5H,1-2H3	InChI=1S/C6H9NO/c1-5-3-4-6(7-2)8-5/h3-5H,1-2H3/t5-/m0/s1
