13
gdb 20418	6.40147	1.54658	1.31003	4.9276	62.25	-0.2393	-0.0261	0.2133	878.2923	0.095944	-394.723692	-394.717178	-394.716233	-394.754917	23.567	
C	-0.121764985	 1.2781446315	-0.3433360162	-0.227997
C	 1.2831558001	 1.0442269811	 0.1043760499	-0.222039
N	 0.30249468	-0.037128402	 0.1261412045	-0.145406
C	-0.1650395213	-0.5474094213	 1.3122268963	 0.452314
C	-1.4338677249	-0.7526668852	 1.7927240106	-0.212109
N	-1.2946431789	-1.3914976558	 2.9930341683	-0.095661
N	-0.0931333683	-1.5866953639	 3.2848978216	-0.023791
O	 0.709225435	-1.0337875598	 2.1821343434	-0.226339
H	-0.7665136429	 1.8578676897	 0.3120180581	 0.13951
H	-0.3566953914	 1.3350880466	-1.4011702002	 0.139909
H	 2.0765133463	 0.926666112	-0.6261283919	 0.141421
H	 1.5864947818	 1.4632536631	 1.0593675737	 0.146826
H	-2.3913482105	-0.5069755059	 1.3692972518	 0.133361
65.9635	162.8402	192.0618	361.692	448.4121	558.4184	603.3659	683.1702	745.1595	776.0983	817.7819	906.7019	930.6941	977.7801	1044.2319	1045.1045	1126.3355	1134.3992	1141.5623	1175.1391	1176.3254	1227.767	1353.8839	1387.813	1471.2274	1494.4685	1520.9494	1611.3507	3118.6272	3126.6202	3208.2264	3222.6461	3297.5931
C1CN1C1=CN=NO1	C1CN1c1cnno1	
InChI=1S/C4H5N3O/c1-2-7(1)4-3-5-6-8-4/h3H,1-2H2	InChI=1S/C4H5N3O/c1-2-7(1)4-3-5-6-8-4/h3H,1-2H2
