21
gdb 126394	2.56905	1.24306	0.90414	1.9739	87.46	-0.2192	0.0304	0.2496	1373.9278	0.182312	-383.310447	-383.300281	-383.299337	-383.34665	35.697	
C	-0.0524069778	 1.4826065748	 0.0726252216	-0.371266
C	-0.0519656852	-0.0472452597	-0.0930505552	-0.281181
C	 0.7582717202	-0.515135868	-1.2652760798	 0.280605
N	 0.1657666388	-0.7919387547	-2.4278966539	-0.339995
N	 1.165423776	-1.1387922839	-3.2622240139	 0.054785
C	 0.8601857965	-1.5857943034	-4.6020951917	-0.317262
C	 2.3748054178	-1.09999176	-2.6491884346	-0.117887
C	 2.1653513058	-0.6943589589	-1.3465031937	 0.121696
C	 3.191631224	-0.4887007721	-0.2743997954	-0.513066
H	 0.961585436	 1.8684226709	 0.2199378233	 0.115453
H	-0.4662711228	 1.9649756679	-0.8178830533	 0.125658
H	-0.6547396186	 1.7828798861	 0.9361663655	 0.108177
H	 0.3309683795	-0.5107324066	 0.8246775913	 0.097083
H	-1.079692043	-0.4002263245	-0.2232514106	 0.114929
H	 1.7623505365	-1.5279225557	-5.2145357265	 0.134335
H	 0.4919285338	-2.6176844566	-4.6044478598	 0.139734
H	 0.0914740713	-0.9388111233	-5.0289839904	 0.15166
H	 3.2809097803	-1.3614548191	-3.1747271715	 0.12224
H	 3.3065429569	 0.5686595763	-0.0070423329	 0.127931
H	 2.9270771857	-1.0220153728	 0.6460501914	 0.126734
H	 4.1729858581	-0.8522880967	-0.5927707001	 0.119636
43.826	57.8572	94.5077	131.2495	181.9328	196.6532	251.7689	270.3599	291.0324	405.9263	476.035	606.5575	625.3446	630.9594	745.0499	763.0858	785.898	812.345	971.6091	1002.5735	1034.5174	1059.5143	1061.788	1082.3084	1101.6313	1148.7338	1194.1506	1204.634	1281.5741	1341.8267	1353.8669	1402.9903	1406.2231	1418.3559	1449.2565	1468.517	1475.4287	1481.3751	1484.7478	1488.5196	1497.1626	1502.8495	1516.7251	1526.4253	1609.3522	3022.321	3028.7631	3033.9455	3037.4395	3069.3059	3078.4108	3102.2509	3103.6244	3109.4646	3113.3313	3144.4373	3245.3812
CCC1=NN(C)C=C1C	CCc1nn(C)cc1C	
InChI=1S/C7H12N2/c1-4-7-6(2)5-9(3)8-7/h5H,4H2,1-3H3	InChI=1S/C7H12N2/c1-4-7-6(2)5-9(3)8-7/h5H,4H2,1-3H3
