23
gdb 119337	3.71582	0.96404	0.92156	0.4696	89.87	-0.2326	0.0905	0.3231	1430.8058	0.206847	-351.115087	-351.106387	-351.105443	-351.148855	33.901	
C	-0.0967400009	 1.6431180024	 0.1025667458	-0.380238
C	-0.136849425	 0.1131235947	 0.103756551	-0.157278
C	 0.8299140786	-0.5125298472	 1.1216551322	-0.356165
C	 0.8164260834	-2.0070073162	 1.1293546109	 0.403412
C	-0.166181193	-3.0304739061	 1.6568462551	-0.111797
C	-0.2116574878	-3.7685626375	 0.3223644864	-0.224339
C	 1.1671132225	-3.1150575266	 0.0343573442	-0.10935
C	 2.1194237561	-3.7684652177	 1.0719224017	-0.225697
C	 1.3011400352	-3.0323821898	 2.1287763203	-0.135414
H	 0.9057177186	 2.0134259993	-0.1400759291	 0.113021
H	-0.7920761972	 2.060807408	-0.6322467052	 0.110304
H	-0.3677274392	 2.0475325974	 1.0844186925	 0.112749
H	-1.1554677554	-0.23218675	 0.3203084717	 0.098296
H	 0.1057669103	-0.2617268984	-0.8988905277	 0.097068
H	 1.848512697	-0.1494995903	 0.9200256464	 0.094779
H	 0.5781654399	-0.1535071932	 2.129639257	 0.096177
H	-0.9711779638	-2.8692923863	 2.363778815	 0.077136
H	-0.2576060564	-4.8646106262	 0.3200007169	 0.082809
H	-0.9952305368	-3.3682237991	-0.3272814702	 0.095397
H	 1.4956202836	-2.9336840142	-0.9876707192	 0.064136
H	 2.162811003	-4.8643301176	 1.0953022885	 0.083087
H	 3.1335818394	-3.3641556744	 1.0040944523	 0.094226
H	 1.5438173078	-2.866815471	 3.1716146734	 0.077682
79.3952	85.0297	106.0256	245.1731	263.1905	295.0326	337.2071	432.456	483.469	649.8149	712.4211	737.2066	747.1412	804.8456	849.9193	878.9446	904.8241	913.8644	927.5602	946.1558	967.9448	987.851	1013.4965	1020.2455	1043.0979	1059.2276	1079.0485	1112.7917	1125.4935	1134.4105	1174.1305	1181.669	1220.795	1223.839	1251.7028	1267.7292	1298.3537	1304.7435	1319.4936	1330.9201	1386.3952	1412.6531	1455.2141	1474.0721	1491.6908	1493.525	1500.1777	1509.37	1510.6281	2993.8307	3020.4579	3021.3143	3025.1912	3027.5008	3028.7363	3057.0992	3087.5969	3089.7985	3095.0008	3101.0658	3126.5066	3180.1627	3190.5767
CCCC12C3CC1CC23	CCC[C@@]12[C@H]3C[C@@H]1C[C@@H]23	
InChI=1S/C9H14/c1-2-3-9-6-4-7(9)8(9)5-6/h6-8H,2-5H2,1H3	InChI=1S/C9H14/c1-2-3-9-6-4-7(9)8(9)5-6/h6-8H,2-5H2,1H3/t6-,7+,8-,9+
