14
gdb 27483	2.08714	1.8429	0.98468	3.2629	67.16	-0.2725	-0.0486	0.2239	1116.4805	0.101605	-473.927642	-473.919972	-473.919028	-473.9601	28.203	
C	 0.0895935342	 1.4768220851	 0.0203274192	-0.469646
C	-0.0656055918	-0.0058443866	 0.0011679464	 0.410815
C	-1.2121819422	-0.6863932148	-0.1506055556	-0.350121
C	-1.2141729768	-2.1417411503	-0.1496267714	 0.455433
O	-2.1751726403	-2.8665727796	-0.2766357228	-0.358991
N	 0.0745501608	-2.6825065365	 0.0219976257	-0.441793
C	 1.2579473856	-2.0040303344	 0.1796269001	 0.485454
O	 2.3328275215	-2.5077252764	 0.3240367303	-0.353568
O	 1.1390755258	-0.6284161516	 0.1617746258	-0.257308
H	 0.7665253002	 1.7949056162	-0.7794576912	 0.160017
H	-0.8745689268	 1.9700368978	-0.1073432916	 0.146176
H	 0.536143428	 1.7965599045	 0.9676205529	 0.160009
H	-2.1560026709	-0.1765044829	-0.2762839271	 0.132713
H	 0.1432730126	-3.6914090605	 0.0325997892	 0.280811
133.5664	141.1097	165.2976	188.7538	295.9783	388.4421	498.0775	517.0377	558.6197	589.6611	642.3823	684.5883	747.3452	770.6987	854.7828	895.9359	960.064	1009.423	1056.5933	1066.5022	1152.8824	1215.6607	1348.2118	1379.4067	1406.7605	1421.7403	1467.7148	1478.229	1701.4345	1815.2369	1887.3971	3045.6644	3103.8984	3151.5857	3246.7066	3612.0826
CC1=CC(=O)NC(=O)O1	Cc1cc(=O)[nH]c(=O)o1	
InChI=1S/C5H5NO3/c1-3-2-4(7)6-5(8)9-3/h2H,1H3,(H,6,7,8)	InChI=1S/C5H5NO3/c1-3-2-4(7)6-5(8)9-3/h2H,1H3,(H,6,7,8)
