13
gdb 24882	3.48577	1.32335	0.9592	2.8458	83.34	-0.2318	-0.0851	0.1467	1129.5938	0.089225	-415.591666	-415.58425	-415.583306	-415.623779	27.8	
N	-0.0394951271	 1.2721140946	 0.3438403021	-0.530789
C	-0.0218717561	 0.06362913	-0.0357061885	 0.352128
O	 1.145911886	-0.5566375142	-0.4581661395	-0.259592
C	 1.1128533033	-1.863881396	-0.8583971283	 0.199748
C	-0.0445508646	-2.5649187146	-0.8491604125	-0.139754
N	-1.2423843061	-2.0066821002	-0.4402241472	-0.227562
C	-1.2200870724	-0.7760833505	-0.0617053999	-0.002062
C	 2.365587465	-2.3777365881	-1.2643371379	 0.256057
C	 3.4284247015	-2.8233871088	-1.6117590812	-0.375737
H	 0.8894791607	 1.6918447676	 0.2919995755	 0.232006
H	-0.0606203325	-3.5983603929	-1.1675190098	 0.133132
H	-2.1383509344	-0.2973731698	 0.2675745214	 0.148836
H	 4.3664427066	-3.2169761572	-1.9184767342	 0.213588
115.6077	133.191	143.9484	336.8205	395.7672	443.5396	481.3011	535.1373	558.2994	608.953	660.1841	691.9186	709.1666	725.9441	861.3831	880.0397	902.8084	956.9226	984.8489	1080.3478	1131.753	1211.0269	1291.9922	1365.8349	1376.937	1569.4865	1655.8834	1732.0532	2230.9871	3177.7566	3227.3815	3488.6227	3499.2191
N=C1OC(=CN=C1)C#C	[NH]C1=C[N]C=C(O1)C#C	
InChI=1S/C6H4N2O/c1-2-5-3-8-4-6(7)9-5/h1,3-4,7H	InChI=1S/C6H4N2O/c1-2-5-3-8-4-6(7)9-5/h1,3-4,7H
