21
gdb 41572	2.79191	1.72902	1.67588	1.4225	79.	-0.2488	0.0735	0.3223	952.4919	0.187266	-387.089588	-387.082836	-387.081892	-387.120938	28.651	
C	-0.0324527549	 1.5977635082	 0.2320106986	-0.247322
C	 1.5252967459	 1.6304745928	 0.2156022988	-0.24733
C	 1.5574019881	 0.0959112711	-0.0564337308	-0.001799
C	-0.0058317037	 0.0630395187	-0.039771054	-0.001821
C	-0.3039644331	-0.5546837686	-1.4308138139	 0.057717
C	-0.0387793913	 0.4182085636	-2.5991250568	-0.22403
C	 1.5205364699	 0.4511919693	-2.6157490347	-0.224037
C	 1.8514831395	-0.5091928164	-1.4538632247	 0.057698
O	 0.7925355202	-1.4810531828	-1.5598316944	-0.264833
H	-0.4660759047	 1.8547702312	 1.2010917437	 0.099441
H	-0.5280859736	 2.2120488449	-0.5228260802	 0.100244
H	 1.9787554631	 2.2648281976	-0.5490856487	 0.100242
H	 1.9680162717	 1.9056952517	 1.1755271533	 0.099443
H	 2.0589005869	-0.4894673417	 0.7164531438	 0.072482
H	-0.4656869466	-0.5424279858	 0.743468556	 0.072481
H	-1.2438848903	-1.1037182585	-1.4963863763	 0.070653
H	-0.4340642136	-0.0039061586	-3.5258791229	 0.104339
H	-0.4930234494	 1.4015330069	-2.4655348284	 0.100716
H	 1.9134815946	 0.0458704849	-3.5509556806	 0.104344
H	 1.9355210448	 1.4528967315	-2.4913115983	 0.100717
H	 2.8121085763	-1.01811031	-1.5398357796	 0.070655
54.8502	285.6985	299.7691	366.0178	466.749	554.3871	576.3582	696.6622	707.3139	748.7262	778.1801	827.212	829.7184	853.2957	896.9527	898.7225	935.62	959.3964	974.1374	986.5167	986.6417	1018.5218	1067.7186	1069.0133	1092.3801	1117.7127	1123.4107	1175.3584	1224.5504	1229.58	1245.8222	1250.3229	1259.5051	1264.5107	1276.9954	1305.804	1317.3411	1337.3361	1340.8718	1348.2455	1356.6863	1467.368	1487.0131	1496.1858	1516.9699	3060.6916	3066.6839	3069.9173	3076.2781	3079.3056	3088.2446	3099.7602	3108.941	3113.2388	3116.4694	3118.6836	3129.7247
C1CC2C1C1CCC2O1	C1C[C@H]2[C@@H]1[C@H]1CC[C@@H]2O1	
InChI=1S/C8H12O/c1-2-6-5(1)7-3-4-8(6)9-7/h5-8H,1-4H2	InChI=1S/C8H12O/c1-2-6-5(1)7-3-4-8(6)9-7/h5-8H,1-4H2/t5-,6+,7-,8+
