15
gdb 61689	2.24704	1.1901	0.96976	2.071	70.5	-0.2832	-0.0602	0.223	1228.7355	0.10961	-416.832349	-416.822706	-416.821762	-416.867611	32.919	
C	-0.1175665102	 1.5901700753	-0.0891212949	-0.40634
C	-0.0147905637	 0.0422821913	-0.0335940517	-0.113797
C	 0.7527736963	-0.4266746017	 1.2436163104	-0.292094
C	 2.1889293098	 0.0726675348	 1.2976740554	 0.141626
O	 2.6567700127	 0.6301022281	 2.2540391296	-0.225591
C	-1.3704862772	-0.5354857331	 0.0033116217	 0.307591
N	-2.4390661206	-0.9676692599	 0.0704739978	-0.312091
C	 0.6736497345	-0.452163337	-1.2424939893	 0.305637
N	 1.2441912648	-0.8180651362	-2.177477302	-0.318109
H	 0.8825182202	 2.0279937183	-0.1259449223	 0.157503
H	-0.6745261283	 1.9070792712	-0.9721598598	 0.164301
H	-0.6305106787	 1.9505778017	 0.8051635325	 0.157556
H	 0.2218904612	-0.0766335867	 2.1313562782	 0.154229
H	 0.7737563851	-1.5230740621	 1.2592040468	 0.161964
H	 2.7949541242	-0.134316394	 0.3896288574	 0.117618
54.4908	80.6603	131.8809	142.7796	184.1771	224.0887	240.0131	300.327	358.976	451.9614	487.5308	526.6226	587.6252	599.1468	688.28	815.3147	918.8558	951.7081	978.1289	1050.5169	1118.4656	1163.9812	1184.5792	1265.8284	1316.2499	1415.6983	1428.4213	1456.93	1483.9482	1495.8371	1837.2117	2362.0867	2368.3353	2911.0499	3048.0774	3060.4363	3126.3457	3143.7427	3153.1142
CC(CC=O)(C#N)C#N	CC(CC=O)(C#N)C#N	
InChI=1S/C6H6N2O/c1-6(4-7,5-8)2-3-9/h3H,2H2,1H3	InChI=1S/C6H6N2O/c1-6(4-7,5-8)2-3-9/h3H,2H2,1H3
