17
gdb 28592	5.28853	0.97982	0.88525	2.3208	78.22	-0.1906	0.0247	0.2153	1317.5395	0.137417	-418.028389	-418.020167	-418.019222	-418.062631	30.483	
N	 0.2096709481	 1.3274817335	 0.3242870252	-0.597833
C	-0.0233628831	-0.0173609668	 0.0739634751	 0.323716
C	-1.118823419	-0.7975311915	-0.1093461051	-0.19278
N	-0.7115499264	-2.1291911815	-0.1923702145	-0.31982
C	 0.5735349599	-2.0958558131	-0.0738596318	 0.404536
O	 1.0734575703	-0.8281708916	 0.1006398592	-0.206446
C	 1.5467299005	-3.1929374312	-0.1239154954	-0.12164
C	 1.1153057979	-4.5809074165	 0.3030529252	-0.256597
C	 1.3691474763	-4.3025391924	-1.1473671533	-0.256433
H	 1.0101950644	 1.6889566762	-0.1814035039	 0.256645
H	-0.6058497686	 1.8944771664	 0.1349271733	 0.257095
H	-2.1542140229	-0.5075931618	-0.1826132969	 0.105648
H	 2.5600855483	-2.8870582403	 0.1071691819	 0.099355
H	 1.8317889967	-5.1802017089	 0.8535047279	 0.114606
H	 0.0845724204	-4.6810031509	 0.6223421553	 0.140834
H	 0.5087367134	-4.2176575118	-1.8008538229	 0.134875
H	 2.2635607538	-4.7058320979	-1.6092261594	 0.114241
16.3561	147.8926	156.8097	183.8086	283.769	316.0096	407.072	464.646	647.6793	661.3474	703.7566	734.478	764.5464	784.312	793.6152	819.9065	904.1156	911.639	979.8769	1011.3259	1063.7286	1083.3831	1087.6553	1113.095	1124.8621	1157.1194	1205.1014	1206.7826	1222.7437	1286.7725	1383.8327	1445.392	1459.5305	1497.9241	1621.2742	1632.0555	1677.1739	3137.0818	3141.1127	3184.3129	3224.7712	3240.0657	3266.4699	3530.3052	3633.7356
NC1=CN=C(O1)C1CC1	Nc1cnc(o1)C1CC1	
InChI=1S/C6H8N2O/c7-5-3-8-6(9-5)4-1-2-4/h3-4H,1-2,7H2	InChI=1S/C6H8N2O/c7-5-3-8-6(9-5)4-1-2-4/h3-4H,1-2,7H2
