20
gdb 30768	3.02791	1.19708	0.92297	0.9782	83.54	-0.1749	0.0554	0.2302	1324.9586	0.170028	-403.187006	-403.176899	-403.175955	-403.222974	35.988	
C	-0.2017312459	 1.5248429456	 0.0728182223	-0.355668
C	 0.0977183242	 0.0152472914	 0.0483098355	-0.314467
C	 0.757692686	-0.4562009016	-1.2148019492	 0.148038
C	 2.0916897625	-0.755571925	-1.3887402454	 0.273915
O	 3.1531180981	-0.7635638758	-0.5345972827	-0.447376
N	 2.3287007058	-1.1165597135	-2.6858645747	-0.03759
C	 3.6013331442	-1.5648728843	-3.2080363333	-0.333623
C	 1.1279470767	-1.0619302112	-3.3733576372	-0.113323
C	 0.1546270234	-0.6568025168	-2.499247771	-0.254519
H	 0.7189181427	 2.1092403182	-0.0255524966	 0.111012
H	-0.8549688953	 1.8021677446	-0.7602521635	 0.121514
H	-0.6966913388	 1.8181909605	 1.0050319712	 0.103692
H	 0.7235197095	-0.239164211	 0.9170624527	 0.070901
H	-0.8385998769	-0.5361332601	 0.2027484903	 0.107409
H	 2.848851019	-0.4450915252	 0.3206832106	 0.304346
H	 3.7947612311	-2.6169408483	-2.9670716888	 0.134856
H	 3.6004522761	-1.4480187661	-4.2936391227	 0.134558
H	 4.4099976257	-0.9624426699	-2.7885653031	 0.149002
H	 1.0907287858	-1.3178903225	-4.4196383977	 0.109829
H	-0.888144074	-0.5099386589	-2.7392043268	 0.087494
38.5909	55.0676	105.7268	159.9307	200.0184	207.1056	275.9711	284.6435	291.8701	392.459	509.7373	571.4149	617.8292	634.1976	710.3048	733.3971	739.1389	786.7057	791.1987	950.4671	1006.5175	1043.6557	1070.1863	1088.1491	1106.416	1151.5185	1210.0037	1233.3626	1286.6266	1299.0022	1348.9688	1385.5234	1398.7454	1408.4563	1451.8595	1482.8248	1485.2643	1495.0123	1506.2932	1510.8384	1533.8285	1564.211	1632.9076	2989.3466	3029.9351	3030.593	3034.3479	3099.7084	3101.7634	3107.7165	3138.9761	3236.2766	3268.1087	3841.1292
CCC1=C(O)N(C)C=C1	CCc1c(O)n(C)cc1	
InChI=1S/C7H11NO/c1-3-6-4-5-8(2)7(6)9/h4-5,9H,3H2,1-2H3	InChI=1S/C7H11NO/c1-3-6-4-5-8(2)7(6)9/h4-5,9H,3H2,1-2H3
