20
gdb 55353	3.08015	1.29851	1.14914	1.7953	78.39	-0.2382	-0.0147	0.2235	1156.1923	0.171436	-403.154985	-403.14641	-403.145466	-403.188836	32.356	
C	-0.8743068578	 0.9294699987	 0.3041345175	-0.476917
C	 0.3868679008	 0.1559246239	-0.0121182196	 0.392991
O	 1.3237510097	 0.0918383521	 0.7507630055	-0.304441
C	 0.3864417247	-0.5892124545	-1.3541216738	-0.05531
C	 1.7653054326	-1.1056198022	-1.8091708283	-0.256431
C	 1.4434275713	-2.4214725044	-2.5478650233	-0.233549
C	 0.1390440485	-2.8857262882	-1.9202975712	-0.0034
C	 0.030362085	-2.861490172	-0.4412350555	-0.258839
N	-0.5359358803	-1.7557747232	-1.2430650535	-0.116909
H	-0.9537145675	 1.7912385779	-0.3697579129	 0.139052
H	-1.7498522677	 0.2992112238	 0.1195706841	 0.159475
H	-0.8574700263	 1.2786885753	 1.3370968688	 0.137131
H	-0.0575849712	 0.0638480756	-2.1159600155	 0.083008
H	 2.2813022527	-0.3828685632	-2.4453045201	 0.104059
H	 2.3984050198	-1.2705657242	-0.9348460965	 0.133737
H	 1.2845058449	-2.2428351233	-3.6171628766	 0.10585
H	 2.2445793933	-3.1616093128	-2.4585181752	 0.109765
H	-0.5056453263	-3.5457408506	-2.4940353612	 0.09098
H	-0.7159546616	-3.4739228591	 0.0554942995	 0.117149
H	 0.9237258853	-2.6737372995	 0.1475332678	 0.1326
40.9166	115.2132	140.9805	177.5941	269.7924	334.9168	351.3265	424.311	548.4955	597.165	638.804	654.8531	737.221	821.0075	839.1097	864.7014	917.9568	934.0099	962.6384	974.6715	992.2866	1025.5367	1068.0365	1099.6916	1110.71	1118.9954	1167.3989	1171.0268	1206.7892	1217.3558	1260.5406	1296.9597	1315.5429	1333.1444	1370.3524	1382.7627	1391.5873	1464.8086	1472.7802	1492.5134	1498.5526	1525.0885	1810.7024	3023.1888	3037.0685	3042.7215	3077.426	3084.7272	3102.2161	3117.5326	3123.6475	3146.0983	3154.9235	3203.4063
CC(=O)C1CCC2CN12	CC(=O)[C@H]1CC[C@H]2CN12	
InChI=1S/C7H11NO/c1-5(9)7-3-2-6-4-8(6)7/h6-7H,2-4H2,1H3	InChI=1S/C7H11NO/c1-5(9)7-3-2-6-4-8(6)7/h6-7H,2-4H2,1H3/t6-,7+,8?/m0/s1
