17
gdb 75127	3.04244	1.34099	1.02268	3.9756	71.44	-0.221	-0.017	0.2041	1144.4556	0.137073	-455.172653	-455.16423	-455.163286	-455.206264	31.287	
N	 0.0016426973	 1.4078924886	 0.0753047357	-0.532886
C	-0.0298366015	 0.0383027271	-0.0346303894	 0.424138
N	-1.1225469287	-0.6044303188	-0.030591875	-0.323437
C	-1.1836736233	-2.0574391122	-0.0245480437	-0.237935
C	-0.4931863658	-2.7593368877	-1.1959052249	 0.371408
O	-1.1178120191	-3.3783824903	-2.0252358868	-0.296147
C	 1.0252545909	-2.6595698053	-1.2469990624	-0.295842
C	 1.5446851917	-1.2229710349	-1.3115388382	-0.098708
O	 1.2531734834	-0.4498311655	-0.1428424347	-0.26578
H	 0.8905012364	 1.8056679403	 0.3294463565	 0.259762
H	-0.8148291196	 1.8281452212	 0.4897974088	 0.264409
H	-0.7488793631	-2.4550039928	 0.9073783657	 0.108021
H	-2.2341536541	-2.3543712024	-0.0553597542	 0.123368
H	 1.4380950901	-3.1351823011	-0.3481001412	 0.124313
H	 1.375349455	-3.2116936642	-2.1237019832	 0.124216
H	 2.6356309478	-1.2307446529	-1.377645865	 0.123847
H	 1.1513327125	-0.707697839	-2.196358678	 0.127253
50.6412	85.3418	194.0271	229.1275	308.5256	348.8511	389.5668	429.6213	472.7372	501.4741	538.8348	633.8708	690.4523	749.6392	791.4613	830.3634	874.9889	922.2148	998.0412	1007.6475	1075.083	1101.2439	1174.9016	1209.2007	1245.9552	1269.5014	1286.9921	1329.704	1345.5814	1362.9018	1420.6158	1455.4401	1481.0135	1501.7055	1612.5646	1766.9383	1812.7435	2971.777	3030.7068	3037.0266	3100.3329	3101.2723	3105.7877	3598.9069	3722.7072
NC1=NCC(=O)CCO1	NC1=NCC(=O)CCO1	
InChI=1S/C5H8N2O2/c6-5-7-3-4(8)1-2-9-5/h1-3H2,(H2,6,7)	InChI=1S/C5H8N2O2/c6-5-7-3-4(8)1-2-9-5/h1-3H2,(H2,6,7)
