20
gdb 122475	3.07964	0.79763	0.68248	0.5706	83.06	-0.2325	0.031	0.2635	1672.5375	0.168311	-403.062732	-403.052594	-403.05165	-403.09888	36.074	
C	 0.5216598494	 1.074197242	 0.3587825946	-0.236124
O	 0.8212296345	 0.5049698462	-0.8957079192	-0.229256
C	-0.1296596579	-0.4356112246	-1.3503245159	-0.067577
C	 0.040547248	-1.8142800033	-0.7016029874	-0.1569
N	-0.943674492	-2.7294118793	-1.2717845737	-0.087076
C	-0.5289796459	-3.5212810157	-2.4172880594	-0.244912
C	-0.7422844214	-4.1784006966	-1.0848851884	-0.17718
C	 0.3758832597	-4.6973791932	-0.3457440031	 0.34356
C	 1.2826027128	-5.1450201182	 0.3060807741	-0.47076
H	-0.4707673326	 1.551669586	 0.3595487424	 0.105214
H	 0.5502847204	 0.3407490207	 1.1778047002	 0.107728
H	 1.2792856009	 1.8374837943	 0.5536368782	 0.127474
H	-1.1567741589	-0.0750155828	-1.1870071392	 0.096415
H	 0.0220787436	-0.5235459383	-2.4319720516	 0.106542
H	 1.0786872704	-2.1525564317	-0.8390966336	 0.106875
H	-0.1430747788	-1.7562888754	 0.3765075226	 0.109719
H	-1.2659067571	-3.6553517022	-3.2044982262	 0.122588
H	 0.5026108209	-3.4354950667	-2.7547445649	 0.123767
H	-1.6727665274	-4.7196056867	-0.9281997069	 0.118582
H	 2.0895028615	-5.5415281946	 0.8711911077	 0.201322
49.3843	77.3095	92.3631	118.5997	181.0046	200.5151	231.4865	317.198	373.7853	406.1451	469.4787	531.7324	598.2544	621.2971	665.0017	762.3433	804.1479	831.2275	913.1362	959.9037	1025.5468	1037.6903	1064.6069	1110.8319	1118.2907	1135.5847	1143.1463	1180.9062	1195.819	1229.8153	1282.8471	1315.6214	1327.6738	1345.9871	1372.6275	1419.9112	1477.5282	1487.3858	1493.2313	1499.6979	1509.776	1514.9034	2232.5137	2976.0043	2988.8784	2998.6233	3025.9589	3058.5261	3080.8511	3095.7334	3111.2071	3127.7904	3186.831	3503.172
COCCN1CC1C#C	COCCN1C[C@H]1C#C	
InChI=1S/C7H11NO/c1-3-7-6-8(7)4-5-9-2/h1,7H,4-6H2,2H3	InChI=1S/C7H11NO/c1-3-7-6-8(7)4-5-9-2/h1,7H,4-6H2,2H3/t7-,8?/m1/s1
