21
gdb 118990	3.44875	0.89562	0.87292	2.3841	80.11	-0.2474	0.0114	0.2588	1437.795	0.181975	-424.231954	-424.222302	-424.221358	-424.266834	36.072	
O	 0.0158213307	 1.5594331648	 0.0041107182	-0.421811
C	 0.0786074164	 0.1390466072	 0.0280119673	-0.074648
C	-1.3098515566	-0.4985451682	-0.075290596	-0.229901
C	-1.3183157745	-2.0320382263	-0.0511550998	 0.349645
O	-0.6716836574	-2.3921336707	 1.184466344	-0.471792
C	-2.7611628227	-2.6178581186	-0.1435494369	-0.266862
C	-2.6901530951	-3.8371087184	-1.0968079589	-0.269363
C	-1.3377818064	-3.6872523248	-1.7490579217	-0.072155
C	-0.615813917	-2.702662793	-1.2162712681	-0.128424
H	-0.4416175047	 1.8424607472	 0.802213203	 0.278781
H	 0.691544117	-0.1357934342	-0.8369142027	 0.104933
H	 0.5910602681	-0.2306518843	 0.9248909461	 0.108567
H	-1.9209552693	-0.1482828879	 0.7686411081	 0.090291
H	-1.7965841348	-0.1490861566	-0.9918475719	 0.104156
H	-0.4930474492	-3.337849702	 1.1495012283	 0.273026
H	-3.1200511131	-2.8689772996	 0.8572572836	 0.106466
H	-3.4394474707	-1.8643691132	-0.5541075509	 0.104205
H	-2.7673464797	-4.7970074927	-0.5686062076	 0.10706
H	-3.5038698809	-3.8352390709	-1.8310537057	 0.110968
H	-1.00702276	-4.3353711745	-2.5543079272	 0.09778
H	 0.3925708799	-2.4337999034	-1.5095978613	 0.099075
58.1112	86.5818	112.8622	166.4965	240.829	292.1695	316.4892	328.8303	358.9552	386.1064	441.3163	513.8273	692.259	732.0254	772.1521	786.2907	801.1488	837.5303	922.5022	955.2742	969.432	981.9159	1013.3306	1030.4189	1073.3514	1080.8617	1107.2428	1111.9911	1154.3834	1171.7417	1208.381	1250.8253	1280.3699	1309.1635	1316.2977	1335.048	1356.8528	1399.2237	1406.0321	1424.1248	1473.3731	1476.3994	1495.9072	1517.6212	1682.3435	3011.4159	3018.1632	3027.7093	3050.5369	3063.6124	3068.7583	3089.1386	3111.2627	3178.5464	3207.1553	3808.1844	3814.7013
OCCC1(O)CCC=C1	OCC[C@@]1(O)CCC=C1	
InChI=1S/C7H12O2/c8-6-5-7(9)3-1-2-4-7/h1,3,8-9H,2,4-6H2	InChI=1S/C7H12O2/c8-6-5-7(9)3-1-2-4-7/h1,3,8-9H,2,4-6H2/t7-/m0/s1
