19
gdb 70893	3.52174	1.50398	1.43103	1.6518	73.48	-0.2327	0.088	0.3207	1005.8241	0.15949	-423.031449	-423.023794	-423.02285	-423.062996	31.022	
C	-0.0264411831	 1.4968458394	 0.0640428186	-0.501551
C	 0.0196080527	-0.0004461175	-0.0484266943	 0.223608
C	 0.2537876364	-0.763271729	-1.3453473725	-0.310013
C	 0.1688948823	-2.1674153999	-0.697651303	 0.443371
C	 0.3290896781	-3.4192704851	-1.5079820152	-0.487817
O	 1.1309217727	-2.0765073771	 0.3604798505	-0.280453
C	 0.6234876468	-0.9270560131	 1.0061138883	-0.002454
C	-0.8659192657	-0.9538304676	 0.7529741892	-0.002437
O	-1.0912170363	-2.1163981534	-0.0172417458	-0.280466
H	 0.9183092452	 1.9505197771	-0.2565137165	 0.123157
H	-0.8275476156	 1.9191180534	-0.5532456556	 0.123159
H	-0.2077490973	 1.8117074225	 1.0974722098	 0.117994
H	-0.5328072182	-0.6079239079	-2.0879577684	 0.106222
H	 1.2356227807	-0.5761883508	-1.7873139903	 0.106221
H	 1.3115735988	-3.4330253418	-1.9851366019	 0.132656
H	 0.2362092878	-4.2937349994	-0.8602503146	 0.141882
H	-0.4414468315	-3.4658196293	-2.2807970563	 0.132701
H	 1.1352824059	-0.634826482	 1.9119049307	 0.107111
H	-1.6580165197	-0.6850290185	 1.4371652072	 0.10711
171.1479	207.6925	211.909	228.3638	325.4575	333.9489	450.1278	547.7047	562.2252	611.2666	669.3927	717.9487	744.7182	805.2743	824.4287	884.5692	890.1569	897.5692	954.2966	974.8898	1030.1759	1041.8848	1049.6857	1071.8497	1076.1365	1141.9678	1144.3897	1190.5255	1191.0345	1247.9784	1278.7074	1294.0619	1357.7892	1408.1219	1421.1512	1436.5489	1478.9861	1480.6302	1488.2833	1491.0035	1501.2859	3022.7351	3060.0566	3065.7514	3084.3572	3089.7137	3122.0792	3140.0455	3140.9105	3219.1908	3227.9717
CC12CC3(C)OC1C2O3	C[C@@]12C[C@@]3(C)O[C@@H]1[C@@H]2O3	
InChI=1S/C7H10O2/c1-6-3-7(2)8-4(6)5(6)9-7/h4-5H,3H2,1-2H3	InChI=1S/C7H10O2/c1-6-3-7(2)8-4(6)5(6)9-7/h4-5H,3H2,1-2H3/t4-,5+,6-,7+
