16
gdb 45651	3.33212	1.59973	1.26451	3.1071	75.01	-0.208	-0.0119	0.1961	979.1127	0.126208	-400.725379	-400.718562	-400.717617	-400.756532	27.439	
O	-0.1675946871	-0.0595167318	-0.0529874324	-0.362162
C	-0.0158844191	 1.1314646263	 0.0701908502	 0.376582
N	-1.052051683	 2.0648043306	 0.2362233414	-0.313395
C	-0.5835830548	 3.3673992444	 0.4934104971	-0.10744
C	 0.7369868162	 3.4106984953	 0.2633227319	 0.108998
C	 2.0179232276	 3.7705533383	 0.9862654183	-0.136306
C	 2.0984649332	 2.8600958951	 2.1927866581	-0.271612
C	 2.4466184628	 2.2940466583	 0.8445783395	-0.071923
C	 1.2240226723	 2.0287175213	-0.0780560294	-0.1622
H	-2.0184827089	 1.7800780806	 0.2485990547	 0.258716
H	-1.2562084907	 4.0983367153	 0.9225924657	 0.126894
H	 2.6183299319	 4.6645300094	 0.8804800593	 0.099076
H	 2.9549117652	 3.0152774937	 2.8433345098	 0.116144
H	 1.1909765505	 2.5680182396	 2.7127632237	 0.118327
H	 3.4336080472	 1.9002840461	 0.6376865371	 0.098386
H	 1.5762255969	 1.9217462975	-1.110998135	 0.121914
120.0554	168.43	301.1142	334.466	472.4018	513.5224	519.1293	622.849	644.962	683.6793	744.3	769.7343	819.7291	845.3314	888.936	914.6016	943.785	989.6692	1020.7719	1037.8575	1056.2442	1071.8288	1086.5877	1120.224	1165.9381	1170.6733	1183.8547	1262.6999	1272.2562	1318.0033	1347.3969	1387.1582	1481.4812	1671.4111	1834.6922	3044.3692	3115.0302	3189.0281	3194.0065	3204.8193	3217.6597	3648.2554
O=C1NC=C2C3CC3C12	O=C1N[CH][C]2[C@H]3C[C@H]3[C@@H]12	
InChI=1S/C7H7NO/c9-7-6-4-1-3(4)5(6)2-8-7/h2-4,6H,1H2,(H,8,9)	InChI=1S/C7H7NO/c9-7-6-4-1-3(4)5(6)2-8-7/h2-4,6H,1H2,(H,8,9)/t3-,4+,6+/m0/s1
