23
gdb 85859	2.08423	1.52068	1.22138	1.5059	85.18	-0.2509	0.0765	0.3274	1185.9785	0.20418	-388.273604	-388.263874	-388.26293	-388.307413	38.284	
C	-0.682182986	 1.4432524838	 0.155304325	-0.447875
C	-0.0912867407	 0.0466359206	-0.0168155853	 0.249801
C	-1.1557216561	-0.9342921319	-0.5209658689	-0.431864
C	 1.2293530446	-0.0317956718	-0.8549915556	-0.312721
C	 1.8652656929	-0.9312675153	 0.2409614178	 0.086099
O	 3.1927651171	-0.6933138241	 0.6430522974	-0.434982
C	 0.71478064	-0.5279163966	 1.1766957263	 0.30297
C	 0.9333921615	 0.1101562282	 2.520302332	-0.337878
C	 0.2378020126	-1.2270268	 2.4110292827	-0.334713
H	 0.0689062205	 2.1571134868	 0.5077280542	 0.107716
H	-1.0785025505	 1.8154365667	-0.7965256107	 0.112802
H	-1.5092368532	 1.4427802314	 0.8756733965	 0.110541
H	-1.5646417027	-0.602615096	-1.48225387	 0.109694
H	-0.7460150451	-1.9398003071	-0.6596878934	 0.114964
H	-1.9882676415	-1.0113820216	 0.1873149437	 0.11068
H	 1.1586119339	-0.4427640072	-1.8654907442	 0.097005
H	 1.7363033664	 0.9378923265	-0.9059186647	 0.08725
H	 1.8337208557	-1.9929773363	-0.0229195015	 0.089285
H	 3.2608918606	 0.2378090671	 0.8816481431	 0.275744
H	 1.9471242494	 0.1177312785	 2.9099175913	 0.111341
H	 0.3393598896	 0.9765548567	 2.7916807132	 0.111246
H	-0.8305329213	-1.2584308629	 2.603139466	 0.108482
H	 0.7762662126	-2.1119010056	 2.7367857949	 0.114413
65.4861	197.4365	204.2192	228.6574	229.7882	252.2449	286.7124	330.5183	338.8509	348.3091	428.995	486.7724	538.4082	559.9233	643.8171	762.4505	797.7572	855.1257	878.1755	923.8697	938.5947	953.0216	976.1183	979.9199	1002.3266	1035.676	1051.3522	1079.0843	1084.9907	1109.6684	1179.0171	1193.1903	1207.6466	1228.454	1253.1441	1268.9929	1305.1505	1312.6289	1367.5862	1400.35	1419.4496	1436.7556	1459.869	1477.0619	1482.4898	1488.4131	1498.191	1504.8983	1506.8316	3019.3386	3025.1136	3042.42	3059.874	3081.5031	3089.9035	3096.2627	3099.5747	3103.9788	3117.8317	3121.7534	3195.8879	3211.5307	3801.126
CC1(C)CC(O)C11CC1	CC1(C)C[C@@H](O)C21CC2	
InChI=1S/C8H14O/c1-7(2)5-6(9)8(7)3-4-8/h6,9H,3-5H2,1-2H3	InChI=1S/C8H14O/c1-7(2)5-6(9)8(7)3-4-8/h6,9H,3-5H2,1-2H3/t6-/m1/s1
