20
gdb 87232	3.1725	0.99767	0.88968	3.426	79.8	-0.2652	0.0144	0.2796	1383.3728	0.168334	-403.140696	-403.130611	-403.129667	-403.176733	36.433	
C	-0.0315206839	 1.2636172194	-0.250412998	-0.419729
C	-0.236369362	-0.0769091876	 0.4184412839	-0.040067
C	 0.669236374	-1.2630579957	 0.1456155116	-0.349633
C	 0.6492345357	-0.6100075499	 1.5098106438	 0.409155
C	 1.8406731367	 0.1618168803	 2.0290731886	-0.461045
O	-0.1044529357	-1.2593315839	 2.5239481873	-0.273635
C	 0.5253905742	-2.3219273236	 3.1954638	-0.208118
C	 0.6229965231	-3.5658669672	 2.4033843115	 0.260923
N	 0.6940493909	-4.5515945386	 1.8047736634	-0.312057
H	 1.0250465921	 1.4726886159	-0.4414815647	 0.116068
H	-0.5446497775	 1.2873546297	-1.2176549896	 0.124901
H	-0.4306925076	 2.0825164772	 0.3581499939	 0.121875
H	-1.2781819808	-0.3463693339	 0.5694920807	 0.101425
H	 0.2154263493	-2.2395760178	 0.0354063026	 0.141121
H	 1.5493729031	-1.1020847927	-0.4697316096	 0.111765
H	 2.3182956599	 0.7264071506	 1.2258116649	 0.128551
H	 1.532688216	 0.8666503742	 2.8085003552	 0.127528
H	 2.6077183368	-0.4989444029	 2.4477449093	 0.120281
H	 1.5320241665	-2.0629052057	 3.549083537	 0.141265
H	-0.086058341	-2.5334229876	 4.0784234584	 0.159427
17.9565	92.8009	163.3143	171.0114	189.7561	209.5182	277.7016	310.5717	357.2631	372.533	412.8292	428.1997	510.1117	626.3753	682.4202	796.189	873.5867	883.1064	904.0181	937.709	953.7543	1018.0414	1045.1036	1055.561	1091.7438	1122.4128	1126.4202	1143.1803	1189.0314	1233.6766	1298.8808	1327.9099	1392.233	1408.9533	1416.3818	1426.8935	1467.254	1482.3097	1486.5797	1494.4505	1500.5521	1515.3061	2355.8992	3026.0946	3031.6253	3038.1273	3085.6312	3092.8931	3094.3204	3101.7988	3129.5297	3135.601	3151.0549	3233.9118
CC1CC1(C)OCC#N	C[C@H]1C[C@]1(C)OCC#N	
InChI=1S/C7H11NO/c1-6-5-7(6,2)9-4-3-8/h6H,4-5H2,1-2H3	InChI=1S/C7H11NO/c1-6-5-7(6,2)9-4-3-8/h6H,4-5H2,1-2H3/t6-,7-/m0/s1
