19
gdb 57015	2.42735	1.3173	0.90103	2.9961	82.07	-0.237	-0.0198	0.2172	1297.8828	0.156475	-385.86728	-385.857718	-385.856773	-385.902147	35.141	
C	 0.0667695843	 1.6128752734	-0.0503088146	-0.392615
C	-0.0027013452	 0.07157781	-0.030801082	-0.183622
C	 0.6031212984	-0.4884637927	-1.2373510397	 0.34109
C	 1.1259928555	-0.9098188063	-2.23397398	-0.462387
C	 0.6600221769	-0.5012665392	 1.2344576376	-0.077463
C	 0.0843161519	-0.1392987843	 2.6420203854	-0.262762
C	 0.1835046811	-1.6315841024	 3.0787457368	-0.338654
C	 0.4138792524	-1.9814761853	 1.598996392	 0.386521
O	 0.3088063391	-2.9851320106	 0.9581048581	-0.287003
H	 1.1073735888	 1.9504149147	-0.0661850332	 0.126656
H	-0.4311420613	 2.0076027679	-0.9394937229	 0.130148
H	-0.4204300785	 2.0321580755	 0.8349190921	 0.117971
H	-1.0619367473	-0.222300136	-0.0114469345	 0.107015
H	 1.5738646814	-1.3095111491	-3.1097607687	 0.196216
H	 1.7404119265	-0.3139250954	 1.1964154021	 0.109913
H	 0.6576948657	 0.5791880268	 3.2282199321	 0.111546
H	-0.9532621414	 0.2004503288	 2.5831730147	 0.11417
H	 1.0700988557	-1.8468740781	 3.6840721074	 0.133346
H	-0.6838142441	-2.0943549776	 3.5552606972	 0.129914
48.865	95.3274	114.6901	176.1888	204.5385	237.7325	286.2064	338.7677	423.7887	494.1785	522.2539	575.8572	632.5409	641.5121	689.578	728.0393	768.1628	864.8657	915.4283	930.5136	971.4158	993.4089	1037.9048	1078.5446	1096.4755	1105.2705	1165.1087	1193.9379	1225.6277	1237.3569	1256.0189	1281.6019	1324.2141	1356.5671	1406.3771	1443.6733	1491.3591	1493.6635	1497.9432	1891.8689	2237.663	3002.0633	3040.1218	3042.2495	3059.5981	3069.9187	3115.6246	3115.8675	3123.361	3134.3967	3506.2316
CC(C#C)C1CCC1=O	C[C@@H](C#C)[C@H]1CCC1=O	
InChI=1S/C8H10O/c1-3-6(2)7-4-5-8(7)9/h1,6-7H,4-5H2,2H3	InChI=1S/C8H10O/c1-3-6(2)7-4-5-8(7)9/h1,6-7H,4-5H2,2H3/t6-,7+/m0/s1
