20
gdb 96636	3.07639	1.11167	0.8454	2.4842	81.54	-0.2285	0.0085	0.2369	1384.5774	0.169188	-436.507411	-436.496666	-436.495722	-436.544001	38.028	
C	-0.8735825446	 1.6719289296	 0.9748229059	-0.322887
N	-1.1048222637	 0.244677256	 1.0816501005	-0.285492
C	-1.3477548955	-0.4519860566	 0.0439589175	 0.393732
C	-1.3854793976	 0.0794575726	-1.3700582866	-0.462875
N	-1.5318328938	-1.8483339063	 0.2362310273	-0.182617
C	-1.2104529383	-2.4084850336	 1.5514757473	-0.360963
C	-2.1329350198	-2.663048519	-0.7261513614	 0.451234
N	-2.0858052603	-4.0158053984	-0.4357626093	-0.557583
O	-2.7043547009	-2.2535247225	-1.7198661711	-0.399108
H	-1.6789606311	 2.2035504019	 0.4499607546	 0.118011
H	-0.8009003438	 2.0913773484	 1.9820198519	 0.120523
H	 0.0679978667	 1.9045981722	 0.4565969247	 0.118684
H	-0.8194464095	 1.0110992868	-1.4183311666	 0.115952
H	-0.972821214	-0.6332739359	-2.0823455072	 0.144107
H	-2.4127509073	 0.270774426	-1.6880645067	 0.161335
H	-2.0200535042	-3.0546127346	 1.8964420525	 0.139748
H	-0.2756913524	-2.984762382	 1.524256704	 0.114462
H	-1.0842878546	-1.5753931191	 2.2386310688	 0.176246
H	-1.325623015	-4.3901399062	 0.1081660936	 0.254968
H	-2.3830940201	-4.5828380193	-1.2142329796	 0.262525
30.2355	67.2384	113.2051	160.6239	164.2488	183.991	226.5414	287.2175	340.7032	398.6086	414.4192	423.9747	454.6243	535.2038	561.0501	601.0042	627.0865	728.0164	779.2132	918.3863	1001.79	1049.1532	1078.6191	1100.9077	1111.4807	1144.8129	1153.9768	1185.0545	1233.9626	1319.2482	1387.7256	1406.8854	1440.3954	1448.8565	1458.1598	1477.2226	1497.8551	1505.2876	1512.5547	1517.145	1618.9848	1721.8248	1788.6683	2989.5625	3009.9915	3041.5427	3071.2189	3093.0567	3105.7441	3138.394	3161.6208	3177.4052	3590.4022	3709.6367
CN=C(C)N(C)C(N)=O	CN=C(C)N(C)C(=O)N	
InChI=1S/C5H11N3O/c1-4(7-2)8(3)5(6)9/h1-3H3,(H2,6,9)	InChI=1S/C5H11N3O/c1-4(7-2)8(3)5(6)9/h1-3H3,(H2,6,9)
