17
gdb 53757	7.11771	0.49352	0.46548	3.0492	87.51	-0.2568	-0.0492	0.2075	2255.0687	0.131797	-384.651016	-384.640496	-384.639552	-384.688562	35.665	
C	-0.0478712724	 1.5147145499	 0.0106163514	-0.477211
C	 0.0725512947	 0.0041501607	 0.0013822939	 0.250192
O	 1.1393244645	-0.5725794362	-0.0118513296	-0.276251
C	-1.1844632248	-0.7215508832	 0.0094680274	 0.08093
C	-2.233603249	-1.3196430353	 0.0163174928	 0.019941
C	-3.4705736767	-2.0848156523	 0.0240498671	-0.357061
C	-3.2264367933	-3.6177087078	 0.0136463869	-0.33995
C	-4.474975689	-4.36757331	 0.0216787959	 0.291123
C	-5.5230889956	-4.9554519646	 0.0283246407	-0.432557
H	 0.9475496624	 1.9610767194	 0.0036994358	 0.143152
H	-0.6171817203	 1.8515835135	-0.8624390095	 0.146032
H	-0.600754079	 1.8421658204	 0.8976966127	 0.146026
H	-4.0636939312	-1.8191221515	 0.9070307471	 0.152852
H	-4.0803572059	-1.8098800098	-0.8446360848	 0.152853
H	-2.6338800416	-3.8786920333	-0.870308363	 0.149763
H	-2.6171300748	-3.887933544	 0.883317202	 0.149753
H	-6.4394937079	-5.4919377957	 0.033707763	 0.200412
34.1463	52.3849	56.4442	118.826	142.7647	158.7059	186.2394	340.3828	390.5813	393.1398	451.6841	498.4728	602.8418	611.5863	625.4584	656.6102	689.7025	761.6581	958.5029	966.8926	1004.0815	1027.6776	1043.2326	1055.9032	1194.2591	1246.2028	1285.521	1306.8014	1368.5189	1381.6055	1460.5765	1462.0005	1468.755	1478.0127	1768.4169	2241.3404	2330.8628	3035.2401	3039.382	3045.8003	3063.9879	3085.7111	3103.6348	3152.0092	3505.8033
CC(=O)C#CCCC#C	CC(=O)C#CCCC#C	
InChI=1S/C8H8O/c1-3-4-5-6-7-8(2)9/h1H,4-5H2,2H3	InChI=1S/C8H8O/c1-3-4-5-6-7-8(2)9/h1H,4-5H2,2H3
