15
gdb 15860	2.91184	1.98508	1.3126	1.8529	63.13	-0.2626	-0.0384	0.2242	913.0872	0.117379	-399.808503	-399.800647	-399.799702	-399.841165	27.859	
C	-0.3929375576	 1.4170283688	 0.1443284982	-0.391307
C	 0.0895152469	-0.0131986928	 0.0758112961	 0.123678
O	 1.3021350253	-0.139417152	-0.7611832958	-0.26409
C	 2.0356843322	-0.656992092	 0.2766963721	 0.428044
N	 3.2386201084	-0.9973863177	 0.3625817483	-0.54323
C	 0.8768328958	-0.6394081366	 1.2565752131	-0.253708
C	 1.0945420701	 0.0961834729	 2.5605574293	 0.13947
O	 0.3362571252	 0.9059076193	 3.0269592281	-0.239617
H	 0.393598863	 2.0869965008	 0.4981498596	 0.134819
H	-0.7091589468	 1.742706247	-0.8511207192	 0.128086
H	-1.2391719214	 1.4967281072	 0.8306730248	 0.144627
H	-0.683693128	-0.6753358591	-0.3236406118	 0.102446
H	 3.7357247514	-0.8544776152	-0.5179677082	 0.233691
H	 0.5557077606	-1.6566250633	 1.5116047702	 0.140898
H	 2.0326990251	-0.1965450874	 3.0782522153	 0.116192
72.5238	107.1452	174.7483	218.7313	231.2637	336.0905	394.2119	452.1018	608.2452	656.0892	740.3361	764.1103	852.578	865.191	916.6808	1002.2083	1015.2126	1044.8483	1068.7808	1095.668	1170.1409	1184.5498	1231.3306	1309.3138	1339.1473	1382.1974	1417.3572	1418.8414	1475.6709	1492.624	1812.2831	1834.4897	2913.8215	3049.3758	3052.3642	3073.2219	3127.7501	3140.9125	3481.3195
CC1OC(=N)C1C=O	C[C@H]1O[C]([NH])[C@H]1C=O	
InChI=1S/C5H7NO2/c1-3-4(2-7)5(6)8-3/h2-4,6H,1H3	InChI=1S/C5H7NO2/c1-3-4(2-7)5(6)8-3/h2-4,6H,1H3/t3-,4+/m1/s1
