18
gdb 8932	3.6443	1.07269	1.0294	2.9342	64.69	-0.2481	-0.0277	0.2204	1197.5428	0.15099	-422.075793	-422.06622	-422.065276	-422.110799	33.571	
C	-0.1907698282	 1.5761941922	 0.0254817726	-0.439912
C	 0.0339906039	 0.0507161872	-0.0014649729	-0.070667
C	-1.3198802906	-0.63969369	 0.0401582914	 0.150052
O	-1.7867286858	-1.1675288039	 1.016183112	-0.248228
C	 0.8281851083	-0.4414100921	-1.2319519075	 0.071111
O	 0.284153561	 0.0330206543	-2.4681893047	-0.44259
C	 2.3252749054	-0.1204108388	-1.1789277313	-0.073539
O	 2.9784480567	-0.6086403979	-2.3292506698	-0.421514
H	 0.7539357011	 2.1248796798	-0.0243829066	 0.132798
H	-0.8252644022	 1.9046678945	-0.8056989476	 0.125003
H	-0.6953699997	 1.8649929034	 0.951149858	 0.145607
H	 0.5709392017	-0.2508857629	 0.9047293557	 0.102425
H	-1.8735215196	-0.6121653372	-0.9252069576	 0.091578
H	 0.7338692786	-1.5317111372	-1.3043887322	 0.109714
H	 0.314331814	 0.9969688139	-2.4566413786	 0.288092
H	 2.4704948144	 0.9691768684	-1.068093466	 0.078491
H	 2.7838724492	-0.6010266499	-0.3079816583	 0.115067
H	 2.3824268019	-0.4231756939	-3.0665754865	 0.286514
45.3865	66.8223	126.2737	170.0968	218.0174	269.0932	284.3959	308.8815	371.7224	397.6894	440.1084	494.971	523.1557	684.9325	843.1278	882.433	914.6406	978.9755	1014.6608	1058.5178	1081.244	1105.4393	1140.1308	1163.498	1205.1631	1265.846	1287.0722	1331.1013	1343.872	1387.638	1401.8176	1421.7732	1428.2754	1440.8786	1499.0602	1508.7986	1509.6651	1833.1611	2886.2674	2945.2866	3036.2747	3044.4149	3056.1786	3072.6059	3104.9317	3121.1289	3767.5994	3793.8086
CC(C=O)C(O)CO	C[C@@H](C=O)[C@@H](O)CO	
InChI=1S/C5H10O3/c1-4(2-6)5(8)3-7/h2,4-5,7-8H,3H2,1H3	InChI=1S/C5H10O3/c1-4(2-6)5(8)3-7/h2,4-5,7-8H,3H2,1H3/t4-,5-/m0/s1
