17
gdb 22806	2.77385	1.40849	1.00236	3.173	73.56	-0.2273	-0.0558	0.1714	1157.6001	0.136786	-455.109686	-455.101452	-455.100508	-455.142888	31.	
O	-0.0005659264	 1.3356263607	 0.0722071474	-0.358772
N	 0.0287743336	-0.0459653101	 0.0443793618	-0.17434
C	-1.1228617068	-0.6098725116	 0.0365456908	 0.261412
C	-1.1396046173	-2.1202833368	-0.0063163685	-0.258454
C	-2.1730789307	-2.6260707769	-1.0196723964	-0.170112
N	-3.4751632651	-2.0703844218	-0.6644441128	-0.299898
C	-3.525443595	-0.6211891611	-0.8340466887	-0.271669
C	-2.4608996454	 0.0921818697	 0.0041440435	 0.347117
O	-2.6820417857	 1.1494728619	 0.542606609	-0.285821
H	 0.9361238324	 1.557820894	 0.0203683678	 0.312572
H	-0.1345581526	-2.4819611877	-0.2368584571	 0.117837
H	-1.4231853218	-2.5046172695	 0.9817268407	 0.126326
H	-1.8502086201	-2.3521273529	-2.0422758482	 0.086203
H	-2.2328391318	-3.7175847651	-0.9743864581	 0.107043
H	-4.2094281179	-2.5026450214	-1.2134984265	 0.227568
H	-3.3469598202	-0.296938608	-1.8812468097	 0.103801
H	-4.5011678193	-0.2349962934	-0.530382795	 0.129187
50.8647	127.7472	223.3039	272.9895	286.4083	362.6899	386.7506	438.8845	450.1269	502.9921	544.8229	653.8922	659.9351	700.3346	793.7901	899.6584	959.0045	970.1965	1006.1837	1036.2837	1082.0909	1134.1609	1163.8846	1185.8095	1204.0481	1274.0246	1286.4039	1319.8176	1352.4938	1409.2177	1417.5832	1468.5474	1474.7749	1481.8549	1507.3139	1685.9728	1809.8056	2884.3738	2921.1369	3030.43	3078.0705	3102.2389	3106.0265	3532.2744	3802.9611
ON=C1CCNCC1=O	ON=C1CCNCC1=O	
InChI=1S/C5H8N2O2/c8-5-3-6-2-1-4(5)7-9/h6,9H,1-3H2	InChI=1S/C5H8N2O2/c8-5-3-6-2-1-4(5)7-9/h6,9H,1-3H2
