20
gdb 81018	2.44618	1.87811	1.37525	2.2696	77.91	-0.2404	0.0215	0.262	1014.9831	0.171989	-403.15621	-403.148214	-403.14727	-403.187986	32.223	
C	-0.1056377805	 1.5287147726	-0.0921583708	-0.429964
C	 0.021623588	 0.0125545152	-0.008487124	-0.019514
C	 1.1978494415	-0.6249441285	-0.8224168729	-0.007431
C	 2.0916964385	-0.4074978751	 0.4346299355	-0.285199
C	 0.7735407041	-0.5569115221	 1.2374001118	 0.422484
C	 0.6025647861	 0.0013591728	 2.6256432608	-0.481628
O	 0.4632645042	-1.9807630062	 1.308268003	-0.273231
C	 0.5971897893	-2.6089073342	 0.114949572	 0.096973
N	 0.945023764	-2.0623007662	-0.9749462881	-0.259962
H	 0.8452317672	 2.0457132719	 0.0702743355	 0.118147
H	-0.4702575393	 1.8203919981	-1.0826990472	 0.124604
H	-0.8194459486	 1.9072000866	 0.6472197231	 0.120952
H	-0.9509337503	-0.4550049368	-0.1907755411	 0.080943
H	 1.4879114659	-0.1819458984	-1.7755323044	 0.071101
H	 2.8831255768	-1.1363114727	 0.620229137	 0.108252
H	 2.489974136	 0.6053959004	 0.5061266878	 0.10696
H	 0.8144536635	 1.0736840478	 2.6344347532	 0.122259
H	-0.4201119456	-0.1564778457	 2.9828041888	 0.128469
H	 1.2861901962	-0.4927735639	 3.3229453043	 0.129946
H	 0.3703549931	-3.6691620254	 0.1932495855	 0.125838
201.4576	208.382	217.4918	237.6592	264.7066	334.0908	397.2598	421.2171	475.5582	500.2829	600.7709	635.2492	773.5862	817.6299	846.3126	866.4895	880.7056	926.8848	954.0221	964.1117	997.896	1045.6557	1071.18	1089.0325	1130.0461	1147.3851	1155.6271	1192.0613	1211.8577	1242.9752	1262.6239	1307.1988	1323.1589	1369.5515	1378.4009	1411.4292	1416.5422	1479.25	1484.1095	1491.3402	1499.1028	1503.5638	1699.1842	3032.8427	3041.3637	3057.0601	3076.8935	3096.5006	3103.1658	3104.2714	3110.0897	3124.4777	3139.2186	3175.4279
CC1C2CC1(C)OC=N2	C[C@H]1[C@H]2C[C@]1(C)O[CH][N]2	
InChI=1S/C7H11NO/c1-5-6-3-7(5,2)9-4-8-6/h4-6H,3H2,1-2H3	InChI=1S/C7H11NO/c1-5-6-3-7(5,2)9-4-8-6/h4-6H,3H2,1-2H3/t5-,6+,7-/m0/s1
