18
gdb 52216	4.72178	0.63912	0.58702	0.9099	78.	-0.2571	-0.0287	0.2284	1821.6251	0.145664	-439.072302	-439.062693	-439.061748	-439.109002	32.902	
N	-0.0935242705	 1.2727949924	-0.5522535909	-0.435492
C	-0.0935142874	 0.1140525326	-0.0543206825	 0.130397
O	-1.072080984	-0.756479418	-0.3737844382	-0.18197
C	-0.9312938798	-2.0911168012	 0.1171396064	-0.108602
C	-2.3026429489	-2.7143307944	 0.1185258343	-0.006637
C	-2.8448079536	-3.4091964842	-1.0821401659	-0.291844
C	-2.5076146174	-4.2306508056	 0.1567137185	-0.119032
C	-1.3671466662	-5.1746646827	 0.0985986954	 0.161495
O	-1.3019822655	-6.1990098581	 0.7316763178	-0.263847
H	 0.6943894774	 1.8063869022	-0.1910740949	 0.231214
H	 0.6406388438	-0.2920970816	 0.6562590356	 0.085973
H	-0.237451798	-2.6445519279	-0.5274236525	 0.112843
H	-0.5115931252	-2.0763633919	 1.1323132781	 0.116554
H	-3.0160246908	-2.1613011231	 0.7221712422	 0.116812
H	-3.8917635522	-3.295282517	-1.3357433189	 0.137587
H	-2.1841734949	-3.5236241498	-1.9364854155	 0.13168
H	-3.3270592554	-4.5851768925	 0.7721170619	 0.115357
H	-0.5520123014	-4.8855114992	-0.6048207208	 0.067512
28.8141	54.5795	74.8631	120.9811	160.1138	242.4062	254.7342	344.2016	398.1625	433.0698	522.3273	644.3365	820.778	821.8419	847.2922	879.3487	909.8992	962.2906	999.2767	1044.4491	1046.8975	1053.8121	1080.6106	1129.9693	1136.455	1171.6211	1194.5787	1233.0208	1270.2468	1303.9336	1339.1583	1375.2326	1420.2198	1433.1009	1458.8303	1490.9548	1511.9085	1749.5125	1819.1682	2858.3647	3002.4086	3019.0276	3052.1262	3135.772	3159.5828	3181.787	3227.5985	3519.4943
N=COCC1CC1C=O	[NH][CH]OC[C@H]1C[C@H]1C=O	
InChI=1S/C6H9NO2/c7-4-9-3-6-1-5(6)2-8/h2,4-7H,1,3H2	InChI=1S/C6H9NO2/c7-4-9-3-6-1-5(6)2-8/h2,4-7H,1,3H2/t5-,6+/m0/s1
