19
gdb 51426	4.00798	0.96846	0.94258	1.0419	75.66	-0.2401	-0.0253	0.2148	1292.2651	0.15972	-423.005706	-422.997749	-422.996805	-423.039482	30.052	
O	 0.8023697841	 2.6082424802	 2.151516109	-0.23752
C	 0.3303559263	 2.6368741305	 1.0447494689	 0.167293
C	 0.8910415031	 1.9046825219	-0.1568725258	-0.331751
C	 1.2009617514	 2.8856952919	-1.2896875843	 0.019022
C	 2.5122022352	 3.747426738	-1.1797002075	-0.077893
C	 3.2779649829	 2.5080572314	-1.7461176703	-0.246066
C	 1.9623608926	 2.3737601521	-2.5478449409	 0.089235
O	 1.9740483782	 3.5326358507	-3.3949267156	-0.281244
C	 2.3746450636	 4.5718897897	-2.4646355168	-0.085056
H	-0.5817247194	 3.2417457653	 0.8268881538	 0.073327
H	 1.7577514606	 1.3272914404	 0.1708847454	 0.124228
H	 0.1212650243	 1.1992175556	-0.5031580781	 0.121149
H	 0.2970677748	 3.452694705	-1.5411615887	 0.078523
H	 2.8077266758	 4.2639806595	-0.2672186619	 0.085247
H	 4.1865512578	 2.6884427295	-2.3248354741	 0.104423
H	 3.4433229623	 1.7214489355	-1.011727349	 0.110693
H	 1.6716265472	 1.4968688517	-3.1251269513	 0.08057
H	 1.5992423324	 5.3446804941	-2.4110985798	 0.102248
H	 3.314130417	 5.029888607	-2.7946325129	 0.103573
42.6979	59.4592	166.2791	276.845	325.8111	368.2529	439.9722	500.0408	566.6429	653.7353	760.5375	831.7729	848.8725	878.249	907.159	920.461	942.1211	965.8527	985.4337	1025.0349	1042.3653	1065.9036	1080.6638	1110.1241	1117.0321	1135.2126	1177.2709	1209.2093	1225.1858	1231.6012	1262.5191	1270.2979	1290.9689	1296.3827	1361.4563	1403.3305	1428.2935	1462.4986	1500.2802	1529.2346	1835.5385	2852.0252	3010.5977	3025.6858	3039.9212	3066.8898	3081.224	3116.8138	3127.6275	3132.8152	3154.8124
O=CCC1C2CC1OC2	O=CC[C@H]1[C@H]2C[C@@H]1OC2	
InChI=1S/C7H10O2/c8-2-1-6-5-3-7(6)9-4-5/h2,5-7H,1,3-4H2	InChI=1S/C7H10O2/c8-2-1-6-5-3-7(6)9-4-5/h2,5-7H,1,3-4H2/t5-,6-,7-/m0/s1
