18
gdb 55406	2.36728	1.59704	1.13333	1.8475	73.24	-0.2517	-0.025	0.2267	1110.9763	0.147877	-439.132728	-439.124072	-439.123128	-439.166577	31.603	
C	-0.328001233	 1.3219945931	 0.1826368941	-0.486694
C	-0.0769219722	-0.161057293	 0.0531551208	 0.376993
O	-0.0313738634	-0.9155156538	 0.9967470194	-0.29942
C	 0.1105429628	-0.6840438973	-1.3857931325	-0.194712
C	 0.6701881761	-2.1108124843	-1.4396962765	-0.248507
C	-0.6031561471	-2.9654565738	-1.4666131565	-0.085552
O	-1.6094129768	-2.1408265477	-2.0905441243	-0.232525
C	-1.2638318847	-0.829828265	-2.0339760482	 0.406126
N	-1.9750405994	 0.1310964457	-2.444291992	-0.538461
H	 0.5869244049	 1.8669527161	-0.0807227618	 0.139639
H	-1.1001842698	 1.6297081197	-0.5295964763	 0.180375
H	-0.6130639025	 1.5684233263	 1.205923692	 0.138857
H	 0.6898139437	 0.0462029271	-1.9545040166	 0.116215
H	 1.2513463127	-2.2548469213	-2.3542921954	 0.112581
H	 1.29403646	-2.3434414437	-0.5762144645	 0.131855
H	-0.513845765	-3.8786428446	-2.0584601609	 0.120449
H	-0.9373397246	-3.218371389	-0.455974181	 0.136441
H	-2.8618749418	-0.2091136846	-2.8191093699	 0.22634
67.2131	89.3741	168.0181	178.4732	180.5886	274.0983	356.7285	440.4258	519.2939	563.8398	646.6737	676.7347	682.9978	795.8435	851.6601	883.7156	917.3274	939.6419	959.4415	988.9562	1041.315	1071.6301	1103.2119	1117.4442	1183.5563	1202.4127	1227.754	1267.5644	1287.2677	1313.9766	1353.0082	1385.9666	1409.2619	1465.6154	1476.5299	1477.7794	1521.8164	1757.7435	1811.8153	3034.6126	3061.171	3070.0432	3095.9422	3102.0188	3116.6806	3139.6696	3156.4786	3477.3017
CC(=O)C1CCOC1=N	CC(=O)[C@H]1CCO[C]1[NH]	
InChI=1S/C6H9NO2/c1-4(8)5-2-3-9-6(5)7/h5,7H,2-3H2,1H3	InChI=1S/C6H9NO2/c1-4(8)5-2-3-9-6(5)7/h5,7H,2-3H2,1H3/t5-/m1/s1
