12
gdb 129291	3.22306	1.34713	0.95004	4.0288	67.95	-0.2741	-0.1385	0.1356	1113.1483	0.076146	-468.766015	-468.758436	-468.757492	-468.800054	26.234	
N	 0.0109251595	 1.3054908446	 0.0097517441	-0.482794
C	-0.0207381536	 0.043879897	 0.0026280963	 0.45731
O	 1.1898086222	-0.6833538391	-0.0076371706	-0.267346
N	 1.2261352167	-2.0600564375	-0.0153062622	-0.029329
C	 0.0890073671	-2.6565052767	-0.0125700519	-0.010435
C	-1.172893643	-1.9353000177	-0.0019951422	 0.194639
C	-2.4636520333	-2.7255601671	 0.0005093714	 0.112418
O	-3.5527894209	-2.224982701	 0.0088858177	-0.203499
N	-1.2222343897	-0.6512703254	 0.0052670619	-0.266571
H	 0.9739088433	 1.6435823829	 0.0066372203	 0.244046
H	 0.1330489714	-3.7408885278	-0.018702909	 0.154289
H	-2.3190257697	-3.8279630121	-0.0064116456	 0.097271
20.4002	82.7182	185.6307	190.3084	364.8489	404.8724	466.4509	587.1475	612.3806	645.2278	734.0611	761.0851	873.2559	875.1542	900.805	927.2739	1002.8926	1022.3269	1087.9671	1171.3782	1278.0484	1356.2978	1433.632	1613.7311	1670.7223	1729.1033	1837.6881	2898.6526	3191.2501	3499.0566
N=C1ON=CC(C=O)=N1	[NH]C1=N[C](C=NO1)C=O	
InChI=1S/C4H3N3O2/c5-4-7-3(2-8)1-6-9-4/h1-2,5H	InChI=1S/C4H3N3O2/c5-4-7-3(2-8)1-6-9-4/h1-2,5H
