12
gdb 23729	5.60268	1.55379	1.21644	1.7906	62.18	-0.2171	-0.0583	0.1588	880.9976	0.084211	-422.64568	-422.639473	-422.638528	-422.676146	23.661	
F	-0.0072660453	 0.005855942	 0.0030759824	-0.074478
C	-0.0312109282	 1.3417956219	 0.0105750089	 0.176514
C	-1.1936875565	 2.0109856945	 0.0294770125	-0.048459
O	-1.2366472672	 3.3653473308	 0.0373429467	-0.237118
C	-0.0738470353	 4.1424399365	 0.0262715451	 0.392612
N	-0.1448232244	 5.4102941015	 0.0339797183	-0.534382
C	 1.1796465246	 3.4087844981	 0.0057538466	-0.140578
C	 1.2089172069	 2.0606470457	-0.0018909487	-0.179029
H	-2.1727062425	 1.5515603119	 0.0398919147	 0.149224
H	-1.1162833782	 5.7209978064	 0.0484410017	 0.224313
H	 2.0775624443	 4.0122256668	-0.0028440141	 0.138506
H	 2.1385169618	 1.5029667438	-0.0171499143	 0.132873
104.3511	318.2955	349.3714	370.9261	435.0226	478.7215	500.0586	628.7721	714.1438	770.7339	791.8017	828.9412	856.2448	864.5092	962.5042	998.9212	1048.3915	1158.5034	1200.0711	1273.7994	1285.3605	1353.1303	1460.5266	1609.7004	1696.1924	1743.4277	3201.8874	3231.8466	3233.9222	3494.2491
FC1=COC(=N)C=C1	FC1=COC(=CC1)[NH]	
InChI=1S/C5H4FNO/c6-4-1-2-5(7)8-3-4/h1-3,7H	InChI=1S/C5H5FNO/c6-4-1-2-5(7)8-3-4/h2-3,7H,1H2
