18
gdb 12234	3.11673	1.5052	1.18059	2.8232	68.3	-0.2364	-0.015	0.2214	1048.2188	0.15202	-384.945209	-384.936473	-384.935529	-384.978668	31.582	
C	-0.5445175795	 1.4176262994	 0.1242929896	-0.415677
C	 0.026877185	 0.0090117738	 0.021520912	-0.104713
C	 0.6282114629	-0.5805537033	-1.3056019046	-0.01864
C	 1.0879957731	 0.456324059	-2.3158948853	-0.083597
O	 1.7956551647	-0.231487033	-3.3364429119	-0.420554
C	 1.8121160861	-1.1930861947	-0.4937606203	-0.340598
C	 1.3837943617	-0.2999861377	 0.6801560063	 0.38508
O	 1.9271943821	 0.105956826	 1.667021053	-0.300036
H	 0.1462685844	 2.16789318	-0.2714167326	 0.123354
H	-1.4921616288	 1.5077483989	-0.4159064857	 0.119806
H	-0.7286846759	 1.6654521584	 1.1738454142	 0.136472
H	-0.6981904559	-0.7127919637	 0.4210528091	 0.105704
H	-0.0078703631	-1.3099107354	-1.8109785726	 0.082173
H	 0.2191759726	 0.9959282433	-2.7243845934	 0.090871
H	 1.7333595777	 1.2022802952	-1.8220799102	 0.088813
H	 2.1233505596	 0.4169667498	-3.9665007904	 0.288441
H	 1.6828664826	-2.2552317053	-0.2632867031	 0.127448
H	 2.8187205907	-1.0419412707	-0.890006684	 0.135653
63.8924	127.3692	172.5676	183.8243	195.1379	271.8967	297.0876	397.0568	427.3868	500.8081	543.7054	696.2704	730.1615	820.0169	852.9921	896.8782	958.168	1004.6849	1031.438	1070.4234	1085.4299	1112.2441	1152.8184	1162.1682	1181.7232	1227.524	1244.3715	1270.643	1289.353	1341.0706	1364.9163	1406.438	1444.1769	1464.314	1494.3144	1495.8943	1522.0087	1886.4534	2958.6236	2992.6487	3022.984	3039.6944	3062.4296	3091.3158	3108.1796	3112.7587	3122.9018	3829.8453
CC1C(CO)CC1=O	C[C@H]1[C@@H](CO)CC1=O	
InChI=1S/C6H10O2/c1-4-5(3-7)2-6(4)8/h4-5,7H,2-3H2,1H3	InChI=1S/C6H10O2/c1-4-5(3-7)2-6(4)8/h4-5,7H,2-3H2,1H3/t4-,5+/m0/s1
