21
gdb 58610	2.31705	1.37402	1.09835	1.5917	78.46	-0.2443	-0.022	0.2223	1228.104	0.17889	-424.234467	-424.224121	-424.223176	-424.269846	37.723	
C	 0.5646533145	 1.5893743623	-0.274891922	-0.3997
C	 0.0648837528	 0.1604434443	 0.0046219802	-0.029776
C	 0.2220638562	-0.7263742321	-1.2349221651	-0.420347
C	 0.7726207207	-0.3850922559	 1.2415767844	 0.29539
C	 1.3001612961	-1.7652224336	 1.3345306629	-0.231102
O	 2.1778360979	-0.6670593388	 1.1201416374	-0.268382
C	 0.3695812257	 0.2642948813	 2.5560644104	 0.334068
C	 1.428240666	 0.3802463864	 3.6332188796	-0.478691
O	-0.7572885416	 0.6821327398	 2.7037295535	-0.311066
H	 1.6356101707	 1.5858683685	-0.5033123252	 0.126224
H	 0.0362068764	 2.0200373362	-1.1304709085	 0.114015
H	 0.3972080075	 2.246248786	 0.5835289198	 0.124995
H	-0.994823218	 0.2181806528	 0.2748686501	 0.10513
H	 1.2794299468	-0.9069134134	-1.4567457013	 0.129755
H	-0.2774706497	-1.6925588849	-1.1166324547	 0.113437
H	-0.2208128725	-0.2333417756	-2.1053145078	 0.115524
H	 1.3823200695	-2.2518065253	 2.305749383	 0.115903
H	 1.173464052	-2.4392355695	 0.4916344753	 0.128102
H	 2.2075934169	 1.0733203947	 3.2982486086	 0.155546
H	 0.9673769299	 0.7540004972	 4.5479706986	 0.138964
H	 1.9297557222	-0.5726746104	 3.8225735509	 0.142011
64.3842	70.2366	113.1987	180.3093	208.3087	237.6603	257.2637	288.8792	318.108	334.5644	405.1968	464.9489	487.9584	572.8443	618.3969	654.458	810.1246	855.87	897.7536	930.026	948.5118	960.7056	979.2784	1038.1457	1094.0322	1106.5895	1131.388	1150.7346	1168.7701	1199.5641	1277.2305	1345.4007	1359.7245	1367.1975	1387.4242	1395.0185	1418.7598	1452.0678	1468.8262	1491.0113	1494.4139	1506.7948	1515.1477	1529.1503	1799.2643	3034.1441	3038.8297	3049.2445	3059.1834	3092.5854	3105.0124	3106.2272	3112.1298	3112.5351	3114.3198	3158.1857	3185.551
CC(C)C1(CO1)C(C)=O	CC(C)[C@]1(CO1)C(=O)C	
InChI=1S/C7H12O2/c1-5(2)7(4-9-7)6(3)8/h5H,4H2,1-3H3	InChI=1S/C7H12O2/c1-5(2)7(4-9-7)6(3)8/h5H,4H2,1-3H3/t7-/m1/s1
