16
gdb 55203	3.28506	1.23597	0.99592	6.0611	66.47	-0.2277	0.0257	0.2534	1157.1143	0.127034	-471.264222	-471.256189	-471.255245	-471.297313	30.157	
N	-0.1923061612	 1.3366693276	-0.058707295	-0.578788
C	-0.0361123368	-0.0259600711	-0.0345610775	 0.436524
N	-1.1614772019	-0.8202887067	 0.1035758694	-0.337528
H	-2.0191344941	-0.4878890798	-0.313303539	 0.24745
C	-0.7464690167	-2.2002117948	-0.1916719637	-0.195143
C	 0.7982782361	-2.070964842	-0.1083052385	-0.124491
N	 1.0980727554	-0.6326753843	-0.1466103962	-0.362198
C	 1.3720288366	-2.7036294343	 1.1742628174	 0.418817
O	 1.0362032618	-3.7813835642	 1.5881767857	-0.341684
O	 2.3041402969	-1.9472651286	 1.7678672393	-0.368293
H	 0.6758306198	 1.8418651316	 0.0410696257	 0.268806
H	-0.9408892471	 1.7024924769	 0.510818945	 0.261382
H	-1.1316184475	-2.9140048452	 0.5393148086	 0.145918
H	-1.0723577755	-2.5063182628	-1.1920420994	 0.110661
H	 1.2858686926	-2.5934846243	-0.9397145395	 0.115394
H	 2.3169872517	-1.1084444481	 1.2588720977	 0.303173
75.3008	85.1047	176.6758	264.8949	355.1515	381.4487	404.2515	487.9354	515.9755	567.6018	603.4943	693.3345	715.8491	745.6878	785.7977	823.9917	838.2614	978.7273	1004.9475	1018.9195	1078.083	1087.868	1163.5769	1198.3293	1226.3142	1269.1546	1309.4633	1323.6093	1369.6993	1418.6268	1503.5523	1542.1077	1623.5917	1708.7925	1866.6841	3030.5704	3044.6349	3110.7672	3504.2857	3575.3148	3600.8491	3682.3827
NC1=[NH+]CC(N1)C([O-])=O	N[C]1NC[C@@H]([N]1)C(=O)O	
InChI=1S/C4H7N3O2/c5-4-6-1-2(7-4)3(8)9/h2H,1H2,(H,8,9)(H3,5,6,7)	InChI=1S/C4H7N3O2/c5-4-6-1-2(7-4)3(8)9/h2H,1H2,(H,8,9)(H3,5,6,7)/t2-/m1/s1
