17
gdb 114195	3.658	1.09332	0.92603	3.3857	70.41	-0.253	-0.0497	0.2033	1249.2877	0.134502	-458.936852	-458.928284	-458.92734	-458.970574	31.395	
O	-0.5145094977	 1.6201190806	-0.1640408916	-0.42005
C	-0.1333376557	 0.2821772721	-0.3979173178	-0.074577
C	-1.2425537142	-0.6832470553	 0.0327494425	-0.129313
C	-0.9426517327	-2.213593784	 0.1500773412	-0.376896
C	-1.4505131098	-2.1790988695	 1.6042475387	 0.354367
C	-2.3918333824	-3.0717124524	 2.3029637249	-0.245492
O	-1.0212250523	-2.9779815679	 2.6827208772	-0.25142
C	-1.4875906135	-0.6609502259	 1.5528735423	 0.326828
O	-1.5347127006	 0.2253199152	 2.3620161889	-0.325263
H	-0.7410756187	 1.6904799377	 0.7726917821	 0.298959
H	 0.0628672509	 0.1879975472	-1.47106803	 0.115598
H	 0.7996111299	 0.0221277129	 0.1296347145	 0.091532
H	-2.1575985466	-0.4618425259	-0.5253872401	 0.115626
H	-1.4807949832	-2.8695198408	-0.5349973847	 0.121182
H	 0.1267961458	-2.4368995836	 0.1001400836	 0.130344
H	-3.1040193917	-2.6524605142	 3.0114532488	 0.138715
H	-2.6850306275	-4.0013994362	 1.8174176392	 0.129858
53.7541	123.0891	174.9599	196.4654	235.9727	283.0701	337.9991	375.8178	486.0687	532.5904	589.027	706.2443	728.2389	815.2345	861.3003	894.1121	917.2806	965.0978	1001.5417	1057.4918	1079.4892	1099.7012	1125.7322	1132.5578	1161.8704	1170.6111	1181.5936	1234.762	1249.1316	1312.7491	1380.7795	1410.4322	1441.6641	1480.3308	1513.2726	1519.5211	1866.047	2965.6291	3065.1931	3070.5305	3076.1007	3086.5444	3132.8996	3182.7038	3764.3997
OCC1CC2(CO2)C1=O	OC[C@H]1C[C@]2(CO2)C1=O	
InChI=1S/C6H8O3/c7-2-4-1-6(3-9-6)5(4)8/h4,7H,1-3H2	InChI=1S/C6H8O3/c7-2-4-1-6(3-9-6)5(4)8/h4,7H,1-3H2/t4-,6+/m1/s1
