21
gdb 58717	1.9883	1.42439	1.1767	3.0819	78.11	-0.2537	-0.0314	0.2223	1201.055	0.179828	-424.215392	-424.205326	-424.204381	-424.251026	35.978	
C	-0.2020031513	 1.4890206822	 0.0778874408	-0.402713
C	 0.0830939911	-0.0175363275	-0.0018792824	-0.04626
C	 0.8420206471	-0.374341083	-1.2900025702	-0.409406
C	 0.7871245799	-0.5303532692	 1.2751978659	 0.197004
C	-0.0573853576	-0.5511044732	 2.5687840974	-0.128863
O	 0.1139674199	-1.9787971298	 2.7085260851	-0.270021
C	 0.8186793352	-2.0742549991	 1.4616149767	-0.130608
C	 2.1582236792	 0.0849359644	 1.4542459612	 0.106193
O	 2.4575173107	 0.8681701783	 2.3195449703	-0.252437
H	 0.7253940537	 2.0714046372	 0.1017165106	 0.129068
H	-0.7786512825	 1.8163365941	-0.7927425674	 0.117639
H	-0.7752455844	 1.7446937421	 0.974357048	 0.125415
H	-0.8815131217	-0.5428833993	-0.0308837153	 0.085104
H	 1.7807650606	 0.1822823036	-1.3786395047	 0.122885
H	 1.0771517262	-1.4425762317	-1.3435275591	 0.119353
H	 0.2345487247	-0.1256909337	-2.1656584132	 0.123104
H	 0.3629033089	 0.0053574476	 3.4112248066	 0.129246
H	-1.1118742304	-0.2791227807	 2.4329730525	 0.096238
H	 0.25410468	-2.6337465994	 0.7030579247	 0.100089
H	 1.8086535002	-2.5353570133	 1.5774405438	 0.105684
H	 2.9154448707	-0.2529462397	 0.710581229	 0.083288
47.0068	80.3092	82.8187	187.0382	214.5171	248.2917	248.3994	262.3646	308.206	351.2005	434.2593	451.663	557.9431	695.4152	830.5094	861.5337	910.9621	929.1321	947.5992	963.1392	977.8643	1001.8204	1042.5724	1067.8846	1090.9678	1151.1359	1162.1618	1165.5838	1169.8312	1214.7982	1266.2288	1307.5214	1350.4103	1367.2561	1376.61	1403.2393	1421.5437	1426.8646	1483.9683	1492.8243	1505.5012	1507.1379	1509.988	1534.6729	1820.4449	2868.5344	2995.0825	3004.7855	3020.8024	3032.4889	3036.1819	3038.7338	3091.7768	3100.2726	3102.3083	3105.3451	3107.7426
CC(C)C1(COC1)C=O	CC(C)C1(COC1)C=O	
InChI=1S/C7H12O2/c1-6(2)7(3-8)4-9-5-7/h3,6H,4-5H2,1-2H3	InChI=1S/C7H12O2/c1-6(2)7(3-8)4-9-5-7/h3,6H,4-5H2,1-2H3
