17
gdb 80284	2.43581	1.61158	1.33132	5.1829	68.24	-0.2626	0.0168	0.2793	1025.1008	0.13522	-458.992207	-458.984032	-458.983087	-459.024694	31.299	
C	-0.1438485921	 1.447304617	-0.0330402112	-0.469525
C	 0.0600838581	-0.0382645324	 0.0070525205	 0.396817
O	-1.0647159818	-0.7609277174	-0.4586672085	-0.241029
C	-1.2267776992	-1.9395956777	 0.2160063111	 0.428823
O	-2.087746317	-2.7191731	-0.058745523	-0.330366
C	-0.1690520967	-2.0444813587	 1.3195365783	-0.375383
C	 0.7083177508	-0.8293535032	 1.1302830388	-0.191324
C	 1.3873090094	-0.7035511332	-0.2301467817	 0.024583
O	 1.4188854845	-1.7871541226	-1.1020516055	-0.406601
H	 0.7483544843	 1.9628926491	 0.3328530005	 0.122636
H	-0.3398087479	 1.7837208216	-1.0557991885	 0.142185
H	-0.9926254319	 1.7387854357	 0.5934542209	 0.132569
H	-0.6714063734	-2.0432836691	 2.2913316217	 0.14188
H	 0.3434280633	-3.0051875202	 1.2186985487	 0.134382
H	 1.1449630983	-0.3356623435	 1.9905879641	 0.099599
H	 2.2479138904	-0.0356590102	-0.2769894987	 0.095076
H	 2.0863312709	-2.4087868653	-0.7919740375	 0.295677
99.1028	202.6378	205.355	226.4305	259.876	300.8715	319.8127	481.8296	522.9228	561.1094	586.6644	612.571	699.797	747.9917	826.4978	836.3717	894.4819	954.4911	995.8132	1026.156	1059.7655	1068.7222	1123.321	1149.1922	1177.1778	1198.533	1229.2524	1283.4646	1292.4625	1303.5808	1357.1293	1419.4316	1454.9931	1478.0067	1479.5416	1505.7406	1892.9721	3040.7533	3065.3745	3099.2876	3104.5508	3110.0158	3120.9615	3177.7226	3802.0963
CC12OC(=O)CC1C2O	C[C@]12OC(=O)C[C@H]1[C@H]2O	
InChI=1S/C6H8O3/c1-6-3(5(6)8)2-4(7)9-6/h3,5,8H,2H2,1H3	InChI=1S/C6H8O3/c1-6-3(5(6)8)2-4(7)9-6/h3,5,8H,2H2,1H3/t3-,5+,6-/m0/s1
