15
gdb 11313	4.49967	1.42551	1.15094	3.9075	64.29	-0.2618	-0.0753	0.1865	1015.4574	0.118394	-399.81999	-399.812273	-399.811329	-399.852812	26.848	
C	 0.047266416	 1.5419063181	 0.001759518	-0.389079
C	-0.0089086011	 0.0148638376	-0.0109047308	 0.022287
C	 0.7776262457	-0.6427224994	-1.1825177214	-0.126245
O	 1.7095048056	-1.5358528086	-0.5288860398	-0.25589
C	 1.508824469	-1.3557089799	 0.804298983	 0.306491
C	 2.4199096097	-2.1765263057	 1.6681251535	 0.108221
O	 2.3981713396	-2.1593394523	 2.86855884	-0.218117
N	 0.6118253503	-0.5514066441	 1.2022261953	-0.281368
H	 1.0850004092	 1.8897201848	 0.0267870379	 0.124642
H	-0.4334444651	 1.9521169357	-0.8924504496	 0.117958
H	-0.4657784322	 1.9335895843	 0.8832791584	 0.139993
H	-1.0597938744	-0.2986716628	-0.0220689164	 0.101054
H	 0.1547907046	-1.2336561895	-1.8581820073	 0.125806
H	 1.3534086423	 0.0813900843	-1.7680833783	 0.120755
H	 3.1231327109	-2.8073845124	 1.0870075177	 0.103491
61.2004	95.2501	177.8089	198.1432	247.1762	345.8526	422.3747	476.4372	621.8842	705.5629	747.876	850.847	930.1575	935.8559	976.8458	1007.2728	1030.6688	1085.7888	1120.4689	1159.9408	1217.1821	1229.211	1314.9787	1354.4408	1377.6049	1407.2021	1429.8776	1488.449	1496.7647	1519.2568	1707.2307	1837.41	2931.5786	3028.5601	3037.9731	3050.8557	3104.5482	3109.4675	3129.1386
CC1COC(C=O)=N1	C[C@H]1COC(=N1)C=O	
InChI=1S/C5H7NO2/c1-4-3-8-5(2-7)6-4/h2,4H,3H2,1H3	InChI=1S/C5H7NO2/c1-4-3-8-5(2-7)6-4/h2,4H,3H2,1H3/t4-/m0/s1
