19
gdb 73016	2.78083	1.46027	1.18383	1.4001	75.22	-0.2406	0.0652	0.3057	1094.7217	0.158962	-422.962647	-422.954383	-422.953439	-422.995436	31.638	
O	 0.0387460121	 1.4394529074	 0.244835416	-0.454584
C	-0.0002969075	 0.0613221623	 0.1317004641	 0.324443
C	-0.8223029773	-0.7048689847	-0.9110193378	-0.301808
C	-1.1751903673	-1.7610957754	 0.1902989048	-0.228497
C	-0.3737536391	-0.9502784908	 1.2182770638	-0.198441
C	 1.0461879494	-0.8125684133	 0.7518884654	 0.240045
C	 2.0494622102	-1.8049607665	 0.1647713469	-0.15059
O	 3.1143584883	-1.2032253049	 0.9357452736	-0.277005
C	 2.2108164545	-0.276291243	 1.5771306974	-0.153107
H	 0.7653574179	 1.7723650832	-0.2949289924	 0.287904
H	-1.7000150186	-0.1364515093	-1.2258311147	 0.114951
H	-0.2901581959	-1.0582335027	-1.8007064182	 0.093187
H	-2.2442529672	-1.7942829052	 0.4075613862	 0.110705
H	-0.8230618228	-2.7821252895	 0.0139374342	 0.10108
H	-0.64305381	-0.7878076396	 2.2558403334	 0.094431
H	 1.8936757034	-2.8579993595	 0.4353442028	 0.101319
H	 2.2354521094	-1.7373458984	-0.9154561316	 0.098236
H	 2.4893060116	 0.7703727205	 1.3952379367	 0.094341
H	 2.151155929	-0.4423305905	 2.6609384093	 0.103392
92.2719	162.8483	170.903	215.8068	247.3846	285.6172	377.4728	424.8434	511.6665	550.8735	664.4594	707.8275	797.3521	857.8561	909.5907	926.8204	948.1204	966.3296	977.563	989.3016	1028.1166	1040.5711	1080.5649	1108.5382	1138.5095	1149.4455	1161.2798	1178.0695	1210.933	1215.5199	1251.5041	1252.0983	1296.0702	1304.0123	1337.5065	1371.7077	1468.036	1480.3696	1510.2142	1512.0399	1537.2455	2993.9312	3005.3666	3037.654	3038.4074	3043.6465	3056.2346	3103.9704	3121.2435	3177.2079	3781.4562
OC12CCC1C21COC1	O[C@]12CC[C@H]1C12COC1	
InChI=1S/C7H10O2/c8-7-2-1-5(7)6(7)3-9-4-6/h5,8H,1-4H2	InChI=1S/C7H10O2/c8-7-2-1-5(7)6(7)3-9-4-6/h5,8H,1-4H2/t5-,7+/m0/s1
