18
gdb 37482	2.8998	1.79138	1.46291	1.651	70.73	-0.2253	0.0734	0.2987	939.4152	0.150286	-439.020485	-439.013556	-439.012611	-439.051775	27.851	
C	 0.0372337989	 1.3762389572	 0.0606638439	-0.078647
C	 1.4570336685	 1.9144588037	 0.0052618187	-0.083611
O	 2.0759079649	 1.5826095303	-1.23894876	-0.277578
C	 1.9438707225	 0.2364319456	-1.6086933963	 0.109163
C	 2.9284455421	-0.8225330361	-1.1027238079	-0.09271
N	 2.7299588832	-0.9576153545	 0.3572611935	-0.328809
C	 1.8035756561	-1.652261208	-0.5645109572	-0.069879
C	 0.7607954379	-0.6162238153	-0.9909570489	 0.072361
O	 0.019955314	-0.0458852196	 0.0597019906	-0.262981
H	-0.4535022205	 1.6834631137	 0.9890758669	 0.109534
H	-0.5416760726	 1.7767957202	-0.7878849201	 0.089664
H	 1.4499904612	 3.0081335084	 0.0517773161	 0.100546
H	 2.0361038784	 1.5146424637	 0.8452022055	 0.127866
H	 1.8955179138	 0.210232232	-2.701649081	 0.089014
H	 3.852544719	-1.136147812	-1.5731655676	 0.093537
H	 3.3996611559	-1.6525148454	 0.6857790329	 0.232443
H	 1.6907923636	-2.7281900038	-0.5375537378	 0.096529
H	 0.0863199833	-0.9922635702	-1.7718135014	 0.073558
134.3156	138.9751	280.31	325.756	429.202	448.1766	522.1777	605.5931	637.4482	739.2926	791.5085	837.4697	852.0189	881.1251	902.0181	919.2835	972.8366	1002.3985	1022.5744	1055.4329	1065.8052	1103.6434	1115.8515	1127.0532	1159.962	1168.1068	1188.6554	1260.0097	1277.7148	1296.5486	1311.8106	1328.1184	1355.8104	1380.4355	1390.2739	1404.9809	1424.4282	1488.3766	1492.2077	2972.3079	3008.1478	3040.3382	3062.4554	3086.4565	3095.2796	3184.7081	3204.5205	3475.865
C1COC2C3NC3C2O1	C1CO[C@H]2[C@H]3N[C@H]3[C@H]2O1	
InChI=1S/C6H9NO2/c1-2-9-6-4-3(7-4)5(6)8-1/h3-7H,1-2H2	InChI=1S/C6H9NO2/c1-2-9-6-4-3(7-4)5(6)8-1/h3-7H,1-2H2/t3-,4+,5-,6+
