16
gdb 97528	2.36711	0.82946	0.67931	3.992	83.48	-0.2723	0.0114	0.2836	1681.5584	0.121277	-363.554213	-363.544053	-363.543109	-363.591338	34.825	
C	 0.2771704217	 0.9728374115	 0.7592018537	-0.368152
C	-0.2618311449	 0.3929559794	-0.5615175904	-0.319257
C	-1.5299242208	-0.3089447742	-0.3983031218	 0.117348
C	-2.5732942528	-0.8831195503	-0.23362402	 0.086002
C	-3.851867361	-1.5837662492	-0.0576465423	-0.501776
C	-3.681096297	-2.9749705277	 0.3860605047	 0.345492
C	-3.5479253141	-4.1162901852	 0.7284402394	-0.419415
C	-4.7359545232	-0.8447032408	 0.8727607346	 0.314921
N	-5.4358862045	-0.2618786349	 1.5816825712	-0.31917
H	 1.2259417508	 1.4881166127	 0.5850155766	 0.12015
H	-0.430770441	 1.6868016195	 1.1877737518	 0.136986
H	 0.4437277485	 0.1796631098	 1.4925778605	 0.134306
H	-0.3890420373	 1.1981325344	-1.2958405635	 0.137694
H	 0.4749422393	-0.2966956899	-0.9921196958	 0.13795
H	-4.3769053657	-1.6002660151	-1.0255783883	 0.183479
H	-3.4260432479	-5.12484106	 1.0393720597	 0.213443
17.6453	69.6293	82.284	131.4759	184.8554	201.8895	279.1326	313.3428	353.2718	380.9899	454.0124	539.7163	568.9365	577.9604	651.7105	672.1285	777.7995	785.9869	881.4341	979.3687	1017.2236	1080.2796	1105.4338	1166.5878	1279.1705	1283.0487	1285.7876	1348.7417	1410.7366	1473.1856	1495.1264	1505.2674	2253.8274	2369.622	2379.7861	2990.3657	3026.8342	3048.9154	3056.0485	3123.7566	3129.502	3501.7112
CCC#CC(C#C)C#N	CCC#C[C@@H](C#C)C#N	
InChI=1S/C8H7N/c1-3-5-6-8(4-2)7-9/h2,8H,3H2,1H3	InChI=1S/C8H7N/c1-3-5-6-8(4-2)7-9/h2,8H,3H2,1H3/t8-/m1/s1
