14
gdb 26712	2.36414	1.57209	0.94832	0.9365	60.13	-0.1576	0.0461	0.2037	1128.7059	0.098452	-510.962266	-510.952516	-510.951572	-510.996277	34.612	
O	-0.0614774204	 1.3630206831	 0.2005256332	-0.44507
C	 0.0447009914	 0.0201596681	 0.0205198765	 0.309758
C	 0.1657757779	-0.7514719779	-1.1015605531	 0.040867
O	 0.1644581563	-0.2690929698	-2.3943253612	-0.465693
C	 0.1825180065	-2.1268055383	-0.6685776423	 0.041134
O	 0.3667600839	-3.2564699521	-1.4390860206	-0.465718
C	 0.0838319912	-2.1185208646	 0.6949907406	 0.309655
O	 0.0922370627	-3.1148337148	 1.6192719203	-0.445082
N	-0.0023681104	-0.8107198734	 1.1176565687	-0.36559
H	-0.0497818773	 1.7586827576	-0.6786701482	 0.308842
H	 0.9902818223	-0.5327354752	-2.8160023272	 0.297325
H	-0.36537094	-3.3191949955	-2.0630582474	 0.297329
H	 0.1990485488	-3.939677095	 1.1315400486	 0.308843
H	-0.0900083229	-0.5113057523	 2.072423852	 0.273401
124.4396	153.8699	177.3136	198.9642	210.7393	258.0063	259.0635	286.2918	298.5518	305.9125	376.3327	386.6627	545.7158	617.0979	644.0983	648.8258	657.9393	763.9667	954.8062	1106.8924	1159.1944	1173.75	1229.6261	1262.8778	1296.4841	1348.6072	1416.688	1532.16	1543.8048	1678.4319	1711.0661	3695.8149	3778.8999	3779.1592	3816.1411	3817.2001
OC1=C(O)C(O)=C(O)N1	Oc1c(O)c(O)c(O)[nH]1	
InChI=1S/C4H5NO4/c6-1-2(7)4(9)5-3(1)8/h5-9H	InChI=1S/C4H5NO4/c6-1-2(7)4(9)5-3(1)8/h5-9H
