20
gdb 71253	2.24943	2.08038	1.60706	0.9801	77.86	-0.2239	0.079	0.3029	958.637	0.171498	-403.106047	-403.09824	-403.097296	-403.137645	31.953	
C	-0.1275118141	 1.4783975782	 0.0251697848	-0.508684
C	 0.0223987648	-0.0140545473	 0.0217313169	 0.386863
C	 0.5449361983	-0.7678319951	-1.2208377278	-0.218353
C	 0.7460387992	-2.0751503061	-0.4423861485	-0.082015
N	 1.8404655818	-1.6351453461	 0.4989954841	-0.367752
C	 0.7494762982	-0.8702111255	 1.1701494664	 0.2669
C	 0.9389794193	-0.3004673882	 2.5453581133	-0.526159
C	-0.3591665515	-1.8199935563	 0.6909516588	 0.051817
O	-1.2194280719	-0.7577788337	 0.2785023932	-0.334779
H	 0.8444871187	 1.9556384579	-0.1340633558	 0.127952
H	-0.7988971056	 1.7958692411	-0.7796187348	 0.131429
H	-0.5405269735	 1.834543824	 0.9730859068	 0.125768
H	-0.2237008683	-0.8018683323	-1.9955155142	 0.10122
H	 1.4912862336	-0.398043816	-1.6188868508	 0.106493
H	 0.8784435139	-3.0146800947	-0.975665769	 0.070075
H	 2.0694494603	-2.4174669918	 1.1146116193	 0.208948
H	 1.7196808001	 0.4677104352	 2.5474457151	 0.130285
H	 0.0085607541	 0.151662073	 2.9023295585	 0.135127
H	 1.230431995	-1.0785644772	 3.259524443	 0.116172
H	-0.8306457124	-2.6397776091	 1.2342599206	 0.078693
184.0754	197.7347	210.1663	233.3515	298.4688	334.3892	465.2672	504.6751	524.18	603.1953	644.016	696.017	747.9694	789.9202	834.7801	862.7263	879.222	906.7713	928.6187	936.0861	975.5765	1016.1393	1027.8427	1060.4645	1074.8001	1136.262	1159.6561	1167.1453	1175.2436	1226.847	1244.3785	1262.3048	1280.1516	1337.0922	1339.4773	1370.216	1411.7154	1413.8751	1464.5028	1478.2236	1483.3554	1494.798	1496.0259	3030.4895	3038.1979	3076.5407	3093.8471	3106.9009	3109.3049	3113.1445	3116.4556	3138.2339	3140.3717	3437.6093
CC12CC3NC1(C)C3O2	C[C@@]12C[C@H]3N[C@]1(C)[C@H]3O2	
InChI=1S/C7H11NO/c1-6-3-4-5(9-6)7(6,2)8-4/h4-5,8H,3H2,1-2H3	InChI=1S/C7H11NO/c1-6-3-4-5(9-6)7(6,2)8-4/h4-5,8H,3H2,1-2H3/t4-,5+,6-,7-/m1/s1
