21
gdb 96450	2.4016	1.63027	1.11689	1.0826	78.29	-0.2457	0.0845	0.3302	1149.4663	0.183966	-424.216018	-424.207661	-424.206716	-424.248789	32.593	
C	 0.4569485872	 1.6309151083	-0.0026463803	-0.40379
C	-0.0604532271	 0.1819563573	-0.042280519	-0.038254
C	 0.4425083943	-0.5045577854	-1.3199021689	-0.078745
O	-0.1439519712	-1.7629241374	-1.5825956905	-0.251503
C	 0.4621865216	-2.8580844885	-0.9258286649	-0.081502
C	-0.0221018784	-3.0642209377	 0.5095515661	-0.247887
C	 0.332343169	-1.975781938	 1.4988094312	 0.047556
O	 1.5547140351	-1.2447807434	 1.3178171351	-0.265101
C	 0.3110093241	-0.5272142555	 1.2492427624	 0.070849
H	 1.550889482	 1.6536813932	 0.0527384065	 0.130003
H	 0.1518695763	 2.184277862	-0.8961596912	 0.115781
H	 0.0687139695	 2.1650148707	 0.8699174737	 0.1169
H	-1.1582615643	 0.2048658667	-0.0916674161	 0.088413
H	 0.1820020911	 0.1304285891	-2.1736844106	 0.099455
H	 1.5383635428	-0.5890599654	-1.2841466913	 0.10383
H	 0.2012685629	-3.7452127732	-1.5126837899	 0.101585
H	 1.556447291	-2.7546504585	-0.9380237439	 0.106059
H	-1.1124243607	-3.1907817225	 0.5104462211	 0.113825
H	 0.4009155769	-4.0109469014	 0.8722128133	 0.104788
H	 0.1643738425	-2.2728974432	 2.5371323806	 0.085745
H	 0.1348815852	 0.0941350328	 2.1318927066	 0.081992
86.3929	176.002	202.4377	240.8659	249.9201	307.581	384.2065	402.2641	447.2074	535.9661	582.1474	620.5293	747.5271	788.5888	857.2776	880.5481	923.0917	941.74	970.4886	994.0872	1032.3119	1060.9572	1082.4292	1108.8303	1145.1074	1153.9513	1168.5287	1185.2174	1253.0427	1282.3512	1307.9423	1311.5765	1336.9185	1378.4085	1381.6017	1396.7528	1405.2001	1421.7349	1432.3365	1466.3889	1480.7172	1492.6592	1499.1336	1500.8087	1507.5542	3000.263	3006.5181	3014.9815	3017.3906	3033.6955	3057.2434	3060.9143	3067.6291	3072.8365	3078.4566	3103.4408	3107.1084
CC1COCCC2OC12	C[C@H]1COCC[C@H]2O[C@@H]12	
InChI=1S/C7H12O2/c1-5-4-8-3-2-6-7(5)9-6/h5-7H,2-4H2,1H3	InChI=1S/C7H12O2/c1-5-4-8-3-2-6-7(5)9-6/h5-7H,2-4H2,1H3/t5-,6+,7-/m0/s1
