20
gdb 80971	2.78993	1.43653	1.16559	2.1272	81.04	-0.216	0.0126	0.2286	1142.5241	0.171051	-403.117313	-403.108743	-403.107799	-403.149886	33.938	
C	 0.0036174678	 1.4711356282	 0.0622976775	-0.512932
C	-0.035145643	-0.0172188644	 0.0058459039	 0.345055
C	-0.0380862397	-0.8782458946	-1.023491193	-0.265924
C	 0.0332521739	-2.2472567207	-0.344857419	 0.259836
C	-0.0176967372	-3.5245443245	-1.1401051868	-0.507655
N	-0.8913809024	-2.1018614953	 0.8469116585	-0.368809
C	 0.0278581631	-0.9692078941	 1.2053182087	-0.168588
C	 1.1766028402	-1.9443098874	 0.7242902843	 0.185447
O	 1.5090330279	-2.9879741287	 1.5771956822	-0.450086
H	 0.907541746	 1.8265181634	 0.5733738753	 0.132139
H	-0.0101668849	 1.909939799	-0.9394007157	 0.127182
H	-0.8482511859	 1.8761926568	 0.6233827382	 0.127126
H	-0.0014534443	-0.6828710107	-2.087128998	 0.098371
H	 0.7087265255	-3.5002035498	-1.9590493869	 0.120373
H	 0.2174485431	-4.3806879433	-0.501414609	 0.12539
H	-1.0106286372	-3.6824499366	-1.5752415496	 0.118173
H	-1.8203007771	-1.7747484918	 0.5745390403	 0.19882
H	-0.0188736399	-0.571455124	 2.2202033293	 0.066037
H	 2.0968374602	-1.4912834521	 0.3534192717	 0.084055
H	 0.6613307337	-3.3381128394	 1.889375348	 0.285989
156.9113	165.063	182.4881	217.5057	232.8819	280.1275	359.3569	428.5201	496.5753	539.1893	575.3968	599.0227	634.6925	677.0403	772.3622	796.8666	829.6898	895.0411	903.3207	908.0075	973.7794	1027.8552	1057.3596	1060.2671	1091.72	1113.5599	1153.9862	1156.6888	1186.9296	1202.5754	1243.3819	1295.6654	1298.4681	1315.8562	1338.6114	1412.0886	1414.7941	1440.0833	1478.4389	1485.7582	1486.4684	1489.5716	1674.6715	3015.6112	3033.7063	3060.5587	3098.9094	3106.6632	3108.408	3113.5234	3119.3525	3217.1002	3430.0048	3730.0973
CC1=CC2(C)NC1C2O	CC1=C[C@]2(C)N[C@H]1[C@H]2O	
InChI=1S/C7H11NO/c1-4-3-7(2)6(9)5(4)8-7/h3,5-6,8-9H,1-2H3	InChI=1S/C7H11NO/c1-4-3-7(2)6(9)5(4)8-7/h3,5-6,8-9H,1-2H3/t5-,6-,7+/m1/s1
