21
gdb 57626	3.12559	0.93963	0.89948	1.5217	84.9	-0.2594	0.0562	0.3156	1411.8477	0.179134	-387.038044	-387.027784	-387.02684	-387.073316	38.185	
C	 0.1666662663	 1.5648432237	 0.0722729225	-0.40958
C	-0.0068779571	 0.0287779767	 0.0225545196	 0.051765
C	 0.6562452299	-0.6117489574	 1.2643540009	-0.399943
C	-1.5140626742	-0.3630306095	-0.0664512999	-0.228385
C	-2.3792663938	 0.112249476	 1.0760063436	 0.076485
C	-3.5319482856	-0.668634415	 1.5442350416	-0.184843
O	-2.3220692271	-0.6301456949	 2.3007283397	-0.231049
C	 0.6499836807	-0.4802521135	-1.1874707495	 0.341531
C	 1.1799102341	-0.9003862037	-2.1818595083	-0.491096
H	 1.2276270049	 1.8264064287	 0.0418131622	 0.126037
H	-0.3241541331	 2.0460183413	-0.7789847583	 0.118722
H	-0.2539138759	 1.9736972812	 0.995725714	 0.118074
H	 0.1829062225	-0.2533326826	 2.1813429396	 0.136351
H	 0.5620136255	-1.7005529225	 1.2380247579	 0.122556
H	 1.7206030771	-0.3623519008	 1.2953538516	 0.116373
H	-1.9219470912	 0.0435582594	-1.0002530887	 0.110156
H	-1.5884654336	-1.4534317903	-0.1337590852	 0.111287
H	-2.4245220081	 1.1913843634	 1.2266546754	 0.094946
H	-4.3839870877	-0.1619241179	 1.9954009233	 0.114119
H	-3.7576789409	-1.6241578899	 1.0721611467	 0.114671
H	 1.6535181174	-1.2704149223	-3.0573034987	 0.191823
46.1107	101.0378	127.8975	178.673	207.4666	249.6285	265.4967	322.1933	323.4211	371.6224	391.6474	484.7612	552.0285	556.6226	625.8472	633.6583	725.9535	792.3764	861.2495	894.4833	913.7415	947.2712	951.3222	996.6481	1036.4984	1077.6846	1093.6374	1157.8342	1162.2379	1188.4318	1218.2333	1226.6182	1291.8264	1298.2536	1342.7809	1399.686	1422.5526	1445.424	1465.2215	1480.113	1489.0749	1500.5667	1509.3275	1529.4461	2230.1244	3032.5491	3039.9848	3048.1563	3079.0874	3081.9533	3105.5112	3114.935	3118.2526	3120.8402	3133.0225	3168.1151	3501.7234
CC(C)(CC1CO1)C#C	CC(C)(C[C@H]1CO1)C#C	
InChI=1S/C8H12O/c1-4-8(2,3)5-7-6-9-7/h1,7H,5-6H2,2-3H3	InChI=1S/C8H12O/c1-4-8(2,3)5-7-6-9-7/h1,7H,5-6H2,2-3H3/t7-/m0/s1
