18
gdb 98092	4.25068	0.91838	0.79956	1.1083	77.07	-0.2328	-0.0656	0.1673	1441.4973	0.147849	-435.259489	-435.249926	-435.248982	-435.294814	33.606	
C	 0.1250156427	 1.4348865756	 0.1673870038	-0.310706
N	-0.0732155498	 0.0135448481	-0.0065094607	-0.291406
C	-1.3105561375	-0.5382694148	-0.0389370375	 0.263273
N	-2.3748507142	 0.1468354746	 0.1843873476	-0.538975
C	-1.2669587888	-2.0192352606	-0.3896344756	 0.352602
O	-0.2489686992	-2.5149253166	-0.8384133384	-0.353328
C	-2.4952705304	-2.8411234922	-0.1900870748	-0.126176
C	-2.9789297886	-3.6119882819	-1.3866129178	-0.216435
N	-2.3364323088	-4.2988390648	-0.2792271395	-0.302513
H	 1.1943597501	 1.6380460516	 0.2512182134	 0.123075
H	-0.2878631413	 2.0127307885	-0.6696814201	 0.132362
H	-0.3776774732	 1.7742799322	 1.0777104454	 0.149572
H	 0.6707902038	-0.5683618637	-0.3567648885	 0.261801
H	-3.2051435641	-0.4371332988	 0.1319359464	 0.221183
H	-3.2153572687	-2.4970004613	 0.5434707443	 0.116312
H	-4.0460526932	-3.7824484085	-1.4945438625	 0.133943
H	-2.4265816862	-3.4781741192	-2.3127714718	 0.134602
H	-1.3604158227	-4.4742707783	-0.5228943937	 0.250814
54.2924	72.0935	105.6182	132.2301	175.5926	257.1369	278.0438	333.8769	355.1887	465.2682	473.8432	555.2962	723.7584	791.7303	800.2716	831.0912	856.3799	888.5611	957.7121	998.9206	1012.0624	1112.4757	1126.649	1156.7828	1157.6021	1176.0997	1183.2205	1195.1598	1288.2428	1316.6015	1332.6957	1406.6671	1455.179	1475.27	1501.2662	1511.4633	1561.1073	1695.0906	1755.3722	3020.5137	3086.5002	3113.7325	3134.6639	3177.0045	3207.414	3460.5933	3529.6154	3642.4012
CNC(=N)C(=O)C1CN1	CNC(=N)C(=O)[C@H]1CN1	
InChI=1S/C5H9N3O/c1-7-5(6)4(9)3-2-8-3/h3,8H,2H2,1H3,(H2,6,7)	InChI=1S/C5H9N3O/c1-7-5(6)4(9)3-2-8-3/h3,8H,2H2,1H3,(H2,6,7)/t3-/m1/s1
