23
gdb 79700	2.57199	1.62402	1.26809	0.3237	88.91	-0.2446	0.0894	0.334	1122.9426	0.207929	-351.110383	-351.102188	-351.101244	-351.142478	33.861	
C	-0.0726241453	 1.6706734452	 0.0797348587	-0.462158
C	 0.0449138736	 0.1369286331	 0.0510740779	 0.058047
C	 0.9423257144	-0.6929963158	-0.9199393105	-0.08008
C	 2.4001189814	-0.4025524815	-0.5171951354	-0.032493
C	 2.7848526915	 0.7970376082	 0.314261952	-0.319115
C	 2.2634676225	-0.4412803705	 1.0021115016	-0.032509
C	 0.7585606733	-0.7451428937	 1.1232651007	-0.080071
C	 0.6631142657	-1.9101961126	 0.0544195605	 0.076992
C	-0.6194636016	-2.7231307615	-0.0816775319	-0.447908
H	 0.4637396242	 2.1454866849	-0.7471832515	 0.126759
H	-1.1213516732	 1.9713328678	-0.0065495362	 0.104485
H	 0.3061279666	 2.1005554087	 1.0117556305	 0.126771
H	-0.9689544915	-0.2493497436	-0.0500096895	 0.074478
H	 0.7169441608	-0.7472776163	-1.9869357033	 0.050788
H	 3.1800853492	-0.9511699767	-1.0340479371	 0.08089
H	 3.8578233861	 0.9389700927	 0.4144004668	 0.103005
H	 2.241443841	 1.7272514349	 0.2890555533	 0.111825
H	 2.9412856224	-1.0188242431	 1.62136145	 0.080891
H	 0.34681039	-0.8523241988	 2.1288485559	 0.050787
H	 1.5064604774	-2.6063191469	 0.1125002681	 0.05978
H	-1.528521692	-2.1195829289	-0.1481428008	 0.118398
H	-0.5773396021	-3.3501132301	-0.9796649473	 0.115218
H	-0.7354030545	-3.3947788855	 0.7766407675	 0.115219
141.133	169.1925	241.1752	241.2826	257.3078	309.4143	414.153	427.9332	505.7613	624.4514	654.5928	716.0016	738.5093	788.443	807.2967	819.9265	880.0504	881.3657	903.755	988.341	995.6308	1026.0108	1040.1187	1048.4835	1059.7019	1072.8148	1086.8251	1100.0083	1111.4808	1111.5418	1131.0081	1165.149	1186.0357	1199.9109	1229.6531	1237.2167	1279.087	1290.7629	1327.88	1359.4347	1394.7549	1408.3928	1413.4475	1451.0496	1487.8074	1495.8544	1502.2186	1508.5481	1518.053	3028.9929	3035.7155	3043.4136	3083.4125	3084.7291	3089.0314	3092.2843	3104.3011	3106.2109	3116.6473	3137.2972	3159.7201	3170.7619	3268.8804
CC1C2C3CC3C1C2C	C[C@H]1[C@H]2[C@H]3C[C@H]3[C@@H]1[C@H]2C	
InChI=1S/C9H14/c1-4-8-5(2)9(4)7-3-6(7)8/h4-9H,3H2,1-2H3	InChI=1S/C9H14/c1-4-8-5(2)9(4)7-3-6(7)8/h4-9H,3H2,1-2H3/t4-,5-,6-,7+,8-,9+
