19
gdb 37364	2.88518	1.82264	1.60949	1.2448	72.52	-0.2481	0.0861	0.3342	910.096	0.163221	-423.018108	-423.011651	-423.010706	-423.04855	27.424	
C	-0.0050419652	 1.5379072865	-0.0278231236	-0.233376
C	 1.5095955376	 1.8387663059	-0.0128464415	-0.082242
C	 2.0448083584	 1.439045623	 1.3776546663	-0.078839
O	 1.8465526234	 0.057512056	 1.651861616	-0.253414
C	 0.5403894638	-0.4370151786	 1.3825770893	-0.078839
C	 0.0303754807	-0.0058617716	-0.008002135	-0.082243
C	 1.1238780557	-0.3094613158	-1.0303960924	 0.072777
O	 1.1719756269	 0.5884819598	-2.1482528347	-0.275643
C	 2.0408853107	 0.8340671014	-1.0333941187	 0.072776
H	-0.5217510672	 1.9545441743	 0.8414522714	 0.089485
H	-0.4775179636	 1.9144073355	-0.934522753	 0.118252
H	 1.7581453711	 2.8819829824	-0.229164189	 0.071676
H	 3.1258878381	 1.5954257744	 1.456335431	 0.108038
H	 1.5577066817	 2.0645712592	 2.1440705227	 0.090481
H	 0.6228166011	-1.525991587	 1.4645211819	 0.108038
H	-0.1740510135	-0.0949979985	 2.149742445	 0.090481
H	-0.934480431	-0.475793164	-0.2203426625	 0.071676
H	 1.4455795789	-1.3285565367	-1.226014609	 0.095458
H	 3.1050240623	 0.7408075137	-1.231444504	 0.095459
233.0917	250.3624	329.6774	337.1206	438.1466	460.9834	511.3977	633.428	762.7485	789.5206	825.9759	830.2717	868.6907	875.1587	892.9323	933.7929	937.5287	981.3532	1004.9553	1045.178	1047.2118	1056.3715	1085.0335	1119.2642	1131.0197	1180.7054	1213.6218	1243.9157	1252.0224	1276.5287	1302.6472	1316.1221	1333.8008	1341.0156	1342.24	1391.5936	1410.4709	1433.4999	1491.795	1496.5659	1510.5755	2965.5721	2971.2579	3062.1676	3065.053	3070.776	3071.1092	3075.7174	3134.6143	3149.462	3161.8108
C1C2COCC1C1OC21	C1[C@H]2COC[C@@H]1[C@H]1O[C@@H]21	
InChI=1S/C7H10O2/c1-4-2-8-3-5(1)7-6(4)9-7/h4-7H,1-3H2	InChI=1S/C7H10O2/c1-4-2-8-3-5(1)7-6(4)9-7/h4-7H,1-3H2/t4-,5+,6-,7+
