15
gdb 43142	2.53645	2.0297	1.62915	2.7379	64.59	-0.2293	-0.0332	0.1961	859.9835	0.113198	-457.671295	-457.664697	-457.663753	-457.70216	26.207	
O	 0.0606244894	-0.0133484508	 0.1107424233	-0.309117
C	-0.0340308602	 1.1728826977	 0.1023943006	 0.380499
C	-1.0937803558	 2.2580112915	-0.0117893652	-0.066166
O	-0.7731923938	 3.011701245	 1.2154564768	-0.296014
C	 0.7001131729	 3.1164391698	 1.2736837701	-0.16326
C	 0.9491444919	 2.4155075385	-0.0424274345	 0.300111
O	 1.9580155311	 2.315314182	-1.0254643504	-0.336571
C	 0.8819974965	 2.3893421045	-2.0366731786	-0.150453
C	-0.1245120296	 2.9731131045	-0.9909171457	-0.098311
H	-2.1727368495	 2.1538932487	-0.0848648781	 0.106583
H	 0.9888013515	 4.1713029769	 1.297715951	 0.123024
H	 1.0661413955	 2.6018307428	 2.1671319134	 0.128024
H	 1.1562627694	 3.074379516	-2.8400164466	 0.130374
H	 0.6547059197	 1.397317921	-2.4368468346	 0.138845
H	-0.2560664389	 4.0532166021	-1.0399453914	 0.112431
135.0308	253.4272	266.2025	309.3811	415.315	483.674	564.8907	643.3919	682.2715	763.0191	780.5191	820.9215	833.3592	874.665	906.4155	918.342	1001.3988	1016.4845	1044.9836	1075.6762	1114.1192	1149.5179	1160.2142	1202.0596	1210.576	1229.7739	1265.7268	1301.3574	1315.4802	1359.7411	1501.7726	1528.654	1922.6499	3044.7682	3062.9188	3097.3488	3125.3161	3138.0535	3168.797
O=C1C2OCC11OCC21	O=C1[C@H]2OC[C@]31OC[C@@H]23	
InChI=1S/C6H6O3/c7-5-4-3-1-9-6(3,5)2-8-4/h3-4H,1-2H2	InChI=1S/C6H6O3/c7-5-4-3-1-9-6(3,5)2-8-4/h3-4H,1-2H2/t3-,4-,6-/m0/s1
