17
gdb 127376	3.85922	1.16486	1.08756	1.8855	76.98	-0.2327	-0.0199	0.2128	1152.1718	0.136722	-417.968629	-417.960786	-417.959842	-418.001535	29.231	
C	-0.3943215279	 1.3120345968	 0.0207414045	-0.328157
N	 0.1105990257	-0.057430695	 0.0166239571	-0.086147
C	 1.4922416373	-0.2724370229	-0.369261937	-0.252484
C	 1.0727739594	-0.4824083077	 1.051937517	-0.11951
C	 1.5511818787	 0.3953720039	 2.1313691597	 0.452448
C	 1.5242838806	 0.2487580739	 3.4875223165	-0.349757
C	 2.1435636046	 1.4313556622	 3.9655159963	 0.035448
N	 2.5131556892	 2.2288525464	 2.9943683135	-0.140311
O	 2.14105127	 1.5686912806	 1.8222837809	-0.217586
H	 0.3560518583	 2.0724274007	 0.2734402461	 0.133853
H	-0.7879827136	 1.5285767149	-0.9769387712	 0.127729
H	-1.2201437077	 1.385079483	 0.734935403	 0.126889
H	 1.6875254261	-1.134931284	-1.0014206735	 0.121657
H	 2.1144131026	 0.5982839582	-0.5685317718	 0.132958
H	 0.8948064714	-1.4961537112	 1.4012695275	 0.104845
H	 1.1212668712	-0.5743360283	 4.0531334016	 0.123058
H	 2.3323449843	 1.7311953585	 4.9868741399	 0.135066
58.6479	128.7152	178.461	212.526	287.4789	357.351	444.2231	470.1098	644.5526	652.6676	719.8638	769.4575	816.198	871.6082	914.8758	920.0554	941.5696	970.5297	1013.4398	1035.8517	1055.7887	1092.776	1126.0795	1131.0619	1169.0991	1210.0048	1210.8747	1275.4322	1326.7762	1340.7156	1405.8207	1452.3415	1492.0614	1504.2979	1510.1467	1515.04	1627.5272	3015.7744	3087.333	3096.9773	3108.9996	3140.5108	3185.0258	3243.1135	3282.0576
CN1CC1C1=CC=NO1	CN1C[C@H]1c1ccno1	
InChI=1S/C6H8N2O/c1-8-4-5(8)6-2-3-7-9-6/h2-3,5H,4H2,1H3	InChI=1S/C6H8N2O/c1-8-4-5(8)6-2-3-7-9-6/h2-3,5H,4H2,1H3/t5-,8?/m0/s1
