17
gdb 80133	2.51881	1.74251	1.314	2.6304	72.7	-0.2389	-0.0281	0.2108	993.9468	0.136481	-421.839402	-421.831617	-421.830673	-421.871945	29.627	
O	 0.726292771	 0.5929416272	 1.0196741885	-0.421261
C	 0.1391870911	-0.3554626668	 0.1848866284	 0.054754
C	-1.4255433449	-0.484313939	 0.028766004	-0.136003
C	-2.1810299847	 0.8178892755	 0.0788243203	-0.085863
C	-2.5845891114	 1.2293251975	-1.125521474	-0.059543
C	-2.1973384214	 0.2796192568	-2.2376795264	-0.266335
C	-1.2594476014	-0.706346505	-1.5155161241	-0.151507
C	 0.1792621181	-0.1695489113	-1.344051801	 0.331261
O	 0.9220550303	 0.419681528	-2.0759604217	-0.302288
H	 0.603932078	 1.4600634835	 0.6165673026	 0.292949
H	 0.5561042071	-1.3330165902	 0.4572932077	 0.115829
H	-1.8737651666	-1.2757806489	 0.6342176614	 0.081568
H	-2.3687505167	 1.3400269432	 1.0103454054	 0.104314
H	-3.1474450727	 2.1374397031	-1.3134854413	 0.100647
H	-3.0768524036	-0.2164228627	-2.6673473207	 0.111439
H	-1.6807971628	 0.7829033664	-3.0632233595	 0.130959
H	-1.3050632692	-1.7359273673	-1.8740046896	 0.09908
71.4679	154.1264	160.9714	232.6187	286.4438	357.673	506.0195	527.9504	580.2869	658.4825	717.0215	759.0244	794.3553	844.7714	853.8661	907.2084	936.9378	965.2335	980.5654	1014.4549	1036.3645	1044.0386	1096.1961	1133.7315	1155.4777	1174.9185	1200.2649	1236.8826	1257.2853	1280.7115	1310.0548	1330.1122	1378.192	1424.6909	1481.387	1671.5791	1878.0944	3025.9039	3041.6183	3064.802	3079.0184	3105.0402	3183.8788	3208.5548	3800.0578
OC1C2C=CCC2C1=O	O[C@H]1[C@H]2C=CC[C@H]2C1=O	
InChI=1S/C7H8O2/c8-6-4-2-1-3-5(4)7(6)9/h1-2,4-6,8H,3H2	InChI=1S/C7H8O2/c8-6-4-2-1-3-5(4)7(6)9/h1-2,4-6,8H,3H2/t4-,5+,6-/m0/s1
