16
gdb 26776	3.65741	1.08518	0.84275	6.0579	84.6	-0.1985	-0.0103	0.1882	1308.6277	0.125541	-396.989977	-396.981023	-396.980079	-397.023751	32.46	
C	-0.0493810023	 1.5396919509	-0.0025356815	-0.51912
C	-0.0270289592	 0.0407088689	 0.018239156	 0.249541
C	 0.0258722129	-0.7952198647	-1.0924746523	 0.241682
N	-0.0025793473	-0.5025107921	-2.4570706721	-0.610968
N	 0.0393359594	-2.0887548104	-0.6648459326	-0.3609
C	-0.0061865474	-2.1182068686	 0.7243146562	 0.214345
C	-0.0529838786	-0.8040693108	 1.1541945786	-0.325338
C	 0.0154333655	-3.3273828489	 1.4410178882	 0.192756
N	 0.030877325	-4.334703401	 2.0185872382	-0.361109
H	 0.5491364641	 1.9423394143	-0.8288787664	 0.112712
H	-1.0632482272	 1.9458136329	-0.108357828	 0.133144
H	 0.3666272389	 1.9482219813	 0.9227628853	 0.134821
H	-0.0227479906	 0.4941560558	-2.6262992108	 0.256273
H	 0.7623948829	-0.9145393703	-2.9800550893	 0.252795
H	-0.0137722621	-2.8983952468	-1.259389731	 0.273323
H	-0.0762047541	-0.4915690904	 2.1869622315	 0.116044
79.0506	118.7187	144.3781	186.5418	231.2018	255.5355	309.3606	407.8127	450.1906	510.6733	520.5906	597.7652	635.1343	654.8222	669.7757	749.5709	805.1707	841.1539	994.5807	1013.7415	1061.8661	1107.5571	1171.7591	1222.9617	1260.5566	1371.036	1398.6092	1419.4639	1485.5278	1498.7332	1506.9383	1556.4295	1627.638	1660.7025	2321.751	3016.3195	3062.9367	3103.46	3254.2412	3520.8158	3626.0606	3674.7779
CC1=C(N)NC(=C1)C#N	Cc1c(N)[nH]c(c1)C#N	
InChI=1S/C6H7N3/c1-4-2-5(3-7)9-6(4)8/h2,9H,8H2,1H3	InChI=1S/C6H7N3/c1-4-2-5(3-7)9-6(4)8/h2,9H,8H2,1H3
