25
gdb 76485	2.84282	1.00806	0.93293	0.1028	94.18	-0.2456	0.085	0.3306	1468.6279	0.227473	-352.345858	-352.335419	-352.334475	-352.381226	39.353	
C	 0.3830091276	 0.5332580384	-2.4533977608	-0.408591
C	 0.2979767786	-0.4719654048	-1.3242942237	-0.092102
C	 1.3570926148	-0.5889805114	-0.2406544617	-0.077985
C	 2.5995518247	 0.2743240275	-0.2073688351	-0.408558
C	-0.0130197902	-0.0463465731	 0.0845116863	 0.353297
C	-0.3279185292	 1.3604026862	 0.617191939	-0.315141
C	-1.0555135611	 0.6932432857	 1.8257009351	 0.064384
C	-2.4117630639	 1.2414398474	 2.2413880153	-0.404798
C	-1.0094318365	-0.6703823565	 1.0698519539	-0.317715
H	 0.7697405307	 1.4992714181	-2.1174279509	 0.116909
H	 1.0353101133	 0.1774234711	-3.2590249358	 0.113819
H	-0.6070816843	 0.7146664339	-2.8871194189	 0.11376
H	-0.1473331141	-1.4200208138	-1.6222821587	 0.073829
H	 1.5312635965	-1.6062860801	 0.106907452	 0.074598
H	 2.4014269453	 1.2996461722	-0.5306665502	 0.116694
H	 3.013111592	 0.3265547766	 0.8064785181	 0.113025
H	 3.3805335318	-0.1307821761	-0.8609087969	 0.114537
H	 0.5162080229	 2.0149108428	 0.8527600014	 0.093609
H	-1.0212479864	 1.9131284097	-0.0279018547	 0.092164
H	-0.3860560491	 0.66294858	 2.6918589065	 0.069339
H	-3.0980483133	 1.2777244257	 1.3871669498	 0.109897
H	-2.8751775789	 0.6165040309	 3.0133681965	 0.111772
H	-2.3262576207	 2.2577112374	 2.6427722634	 0.111415
H	-1.9713686774	-0.9136460504	 0.6025382303	 0.090446
H	-0.6706330429	-1.5425027472	 1.6376142398	 0.091395
44.7218	140.1863	150.6188	161.895	166.3346	217.4608	235.5348	249.8136	316.7758	367.4551	440.1044	449.8867	517.8538	543.4181	713.2131	767.5014	782.6201	838.7133	887.2754	898.7182	913.9795	944.5879	994.7508	1009.4823	1025.7996	1060.5451	1067.3865	1104.3926	1134.1555	1138.1912	1148.7657	1164.113	1176.0482	1216.5477	1233.2119	1235.6267	1258.0625	1288.0657	1329.3982	1366.4797	1368.6451	1410.2243	1411.9734	1419.4441	1463.3598	1475.4242	1486.8964	1492.4574	1494.1217	1495.6	1499.1477	1500.7607	1513.5418	3019.4182	3025.3739	3025.579	3028.6622	3032.6588	3041.1165	3079.3215	3080.699	3082.579	3082.9117	3088.256	3092.2039	3095.5607	3106.5831	3112.3797	3124.54
CC1C(C)C11CC(C)C1	C[C@H]1[C@@H](C)[C@]21C[C@@H](C)C2	
InChI=1S/C9H16/c1-6-4-9(5-6)7(2)8(9)3/h6-8H,4-5H2,1-3H3	InChI=1S/C9H16/c1-6-4-9(5-6)7(2)8(9)3/h6-8H,4-5H2,1-3H3/t6-,7-,8+,9-/m0/s1
