19
gdb 63046	2.62974	2.03827	1.55694	1.875	73.83	-0.2131	0.0652	0.2783	915.7234	0.161493	-419.138673	-419.131361	-419.130416	-419.169741	30.605	
C	-0.0273531833	 1.5202457058	-0.0013135533	-0.460414
C	 0.0609251472	 0.0008501979	-0.0083140493	 0.459838
O	-1.2400473836	-0.5760108547	-0.1007605651	-0.495744
C	 1.0572636647	-0.6272260345	-1.0157654469	-0.132455
N	 2.3239983692	 0.0840236206	-0.6171300455	-0.338629
C	 2.2372925626	-0.7948478957	 0.5799535749	-0.001701
C	 1.4785750487	-1.9210256099	-0.142296105	-0.018519
N	 0.608202009	-2.0997730214	 1.0238433028	-0.312738
C	 0.7872576263	-0.6350628351	 1.2142635988	-0.067228
H	 0.960384071	 1.9712922946	 0.0934622088	 0.148912
H	-0.4741491337	 1.8882176889	-0.9341551961	 0.097771
H	-0.6630987511	 1.8460908017	 0.8279286287	 0.116902
H	-1.6776767018	-0.1869431961	-0.864656284	 0.277613
H	 0.78912927	-0.6512605714	-2.0723868907	 0.057908
H	 3.0874990692	-0.2770162243	-1.189636539	 0.216946
H	 3.0930851616	-0.9170034733	 1.2407268458	 0.082277
H	 1.9202513528	-2.7850873004	-0.6409072643	 0.07139
H	-0.3566837486	-2.3420371953	 0.8050109394	 0.228455
H	 0.5985703798	-0.2190251272	 2.2038817502	 0.069415
213.4759	223.5365	249.6679	251.2667	377.3357	393.2658	479.6792	516.8272	558.9895	606.5862	730.4105	771.2196	797.839	822.8534	849.7362	862.4009	922.9998	951.7131	957.0812	976.2314	1007.8146	1029.0133	1041.7274	1067.5434	1109.4382	1126.4593	1143.0951	1149.866	1187.2041	1192.6083	1203.9917	1229.7676	1268.3228	1303.8464	1329.7597	1346.7184	1366.0346	1382.2333	1398.6063	1487.57	1503.5846	3023.1246	3090.2167	3103.2774	3116.4315	3118.0667	3144.4336	3153.4297	3450.4447	3482.3288	3817.2009
CC1(O)C2NC3C2NC13	C[C@@]1(O)[C@H]2N[C@@H]3[C@H]2N[C@H]13	
InChI=1S/C6H10N2O/c1-6(9)4-2-3(8-4)5(6)7-2/h2-5,7-9H,1H3	InChI=1S/C6H10N2O/c1-6(9)4-2-3(8-4)5(6)7-2/h2-5,7-9H,1H3/t2-,3-,4+,5+/m1/s1
