15
gdb 54024	2.25906	1.68049	0.96364	1.3954	65.55	-0.27	-0.0136	0.2563	1132.2863	0.11343	-487.355711	-487.347074	-487.34613	-487.389861	31.729	
N	-0.0040265375	 1.4772882771	-0.2696551617	-0.565258
C	 0.1798657615	 0.150086731	-0.2573393673	 0.512379
O	 1.234706172	-0.403710153	-0.4949180177	-0.398081
N	-1.0018884506	-0.6513066182	 0.0709346999	-0.269647
C	-0.7428761127	-2.0259090001	 0.0671285331	 0.151145
N	-1.6034548774	-2.931905088	 0.3205116988	-0.517009
C	-2.2861700631	-0.070051205	 0.3637745397	 0.522016
N	-3.2580283329	-0.9503466659	 0.643117785	-0.551894
O	-2.4691146448	 1.1415048905	 0.3560052389	-0.425885
H	 0.8024514316	 2.0333957292	-0.494362463	 0.265806
H	-0.9224234209	 1.8569183474	-0.0586526918	 0.300819
H	 0.2997495416	-2.2050802786	-0.1836866781	 0.170502
H	-1.1761972287	-3.8515426192	 0.2549410296	 0.240949
H	-3.0607473725	-1.9533957944	 0.6386310468	 0.298902
H	-4.1595021055	-0.5554589428	 0.8494863277	 0.265256
48.3908	54.6096	173.66	262.2452	333.0637	362.8605	398.6258	423.6562	440.7658	454.6023	491.3115	634.1847	638.8277	701.0525	739.0082	749.2047	780.6527	794.1661	830.8832	1051.1101	1093.0858	1134.1871	1172.3284	1197.1473	1330.6574	1346.2959	1369.1885	1418.5804	1561.2638	1603.6631	1712.8086	1777.1433	1834.0936	3170.5309	3324.4301	3450.0617	3527.6552	3694.1887	3709.7284
NC(=O)N(C=N)C(N)=O	NC(=O)N(C=N)C(=O)N	
InChI=1S/C3H6N4O2/c4-1-7(2(5)8)3(6)9/h1,4H,(H2,5,8)(H2,6,9)	InChI=1S/C3H6N4O2/c4-1-7(2(5)8)3(6)9/h1,4H,(H2,5,8)(H2,6,9)
