20
gdb 54831	2.59842	1.36312	1.11239	3.2836	80.7	-0.2314	0.0293	0.2607	1183.6966	0.170958	-403.161927	-403.15278	-403.151836	-403.195864	34.776	
C	 0.0977980749	 1.4345622685	-0.0339438744	-0.493056
C	-0.0267794861	-0.0575783313	 0.0957048435	 0.324821
C	-1.3655918098	-0.8204450227	 0.0696246729	-0.271477
C	-0.8187478034	-1.7906657966	 1.1637460711	-0.216733
C	 0.5046564054	-1.0156829979	 1.1551494212	-0.125142
C	 1.1431110142	-0.9737571653	-0.2253976367	-0.161604
C	 1.1353521548	-2.0995874442	-1.2153983476	 0.407452
N	 2.3126324931	-2.2406854433	-1.9066386278	-0.533267
O	 0.1840626953	-2.830406696	-1.4349747322	-0.377969
H	 1.1030064693	 1.7798664206	 0.2305539079	 0.112682
H	-0.1065086603	 1.7621948241	-1.0605056503	 0.123729
H	-0.6153849064	 1.945220126	 0.6233987204	 0.118586
H	-2.180905666	-0.1942267575	 0.4422390891	 0.090072
H	-1.6524486924	-1.2708082594	-0.8799620266	 0.123657
H	-1.3433524413	-1.6800897542	 2.1158020621	 0.093192
H	-0.7685745572	-2.8455486096	 0.8944086966	 0.123234
H	 1.1212101081	-0.8052838209	 2.0229682577	 0.0809
H	 2.0810693796	-0.4220388583	-0.206722531	 0.069933
H	 3.1543032722	-1.7691030029	-1.6258465907	 0.254617
H	 2.3979922758	-3.0466295289	-2.5050091454	 0.256375
44.6988	151.5518	198.981	213.0129	231.8324	234.0784	310.9789	348.8877	390.2426	440.88	561.2256	606.0643	657.7821	696.8152	785.9744	803.3248	826.4931	855.3536	932.6004	940.503	960.1456	975.3508	1008.1896	1055.2068	1079.3196	1099.6019	1127.4911	1153.5604	1217.8775	1237.2356	1246.7953	1249.8873	1287.8021	1300.0403	1369.9725	1414.8064	1467.3227	1470.8789	1485.1258	1495.0899	1499.9551	1616.0414	1776.1495	3019.1656	3062.5535	3074.1804	3079.2519	3091.8647	3121.3788	3131.6543	3144.6322	3161.2806	3597.5612	3733.3921
CC12CCC1C2C(N)=O	C[C@]12CC[C@H]1[C@H]2C(=O)N	
InChI=1S/C7H11NO/c1-7-3-2-4(7)5(7)6(8)9/h4-5H,2-3H2,1H3,(H2,8,9)	InChI=1S/C7H11NO/c1-7-3-2-4(7)5(7)6(8)9/h4-5H,2-3H2,1H3,(H2,8,9)/t4-,5-,7-/m0/s1
