23
gdb 84879	2.0541	1.75388	1.32064	1.068	86.59	-0.2393	0.0257	0.265	1126.394	0.20535	-388.308166	-388.298883	-388.297939	-388.341111	37.161	
C	-0.0880685041	 1.5477294709	-0.0596138102	-0.406913
C	 0.0136461561	 0.0107008464	-0.0137136352	-0.02475
C	 0.722310221	-0.4828974296	-1.2539411697	-0.077708
C	 1.9787679677	-0.9179647531	-1.2341155813	-0.065972
C	 2.7703699969	-0.9769084618	 0.0387543372	-0.12482
O	 2.144117324	-0.3199790464	 1.122778338	-0.295024
C	 0.7288776813	-0.5433316889	 1.2519541974	 0.349076
C	 0.3462132714	 0.2051740764	 2.5295547135	-0.424059
C	 0.4213972248	-2.041044939	 1.4307121649	-0.431607
H	 0.9021359719	 1.9962722069	 0.062722628	 0.129732
H	-0.4853387558	 1.8733992261	-1.0264784917	 0.10726
H	-0.7483542306	 1.9390316073	 0.7192699541	 0.112387
H	-1.0086932543	-0.3929719011	-0.0165747845	 0.069988
H	 0.169860378	-0.4365087993	-2.1896781888	 0.085667
H	 2.4746993255	-1.2667667767	-2.1363048764	 0.087831
H	 2.9949590876	-2.0299550329	 0.2892822633	 0.096025
H	 3.7405164853	-0.4803845335	-0.0904295437	 0.113961
H	 0.6927164487	 1.2397252906	 2.4942266822	 0.124717
H	-0.7387033349	 0.201915737	 2.6738647531	 0.108431
H	 0.8109357773	-0.2765849042	 3.3944810527	 0.115266
H	 1.044194472	-2.4562355554	 2.2287634972	 0.11733
H	-0.6275450368	-2.1805237993	 1.7100954519	 0.111852
H	 0.599815697	-2.6092466904	 0.5146386782	 0.12133
113.1572	204.5379	233.9092	238.1598	258.6699	271.1046	318.914	321.4493	366.3624	389.0198	474.3202	499.4872	516.5781	567.7321	693.3263	725.9429	826.1708	833.2834	909.4959	937.2325	945.8542	948.3242	996.2187	1004.0815	1019.3322	1043.2256	1087.3306	1104.624	1120.6798	1180.0798	1213.6094	1227.0029	1245.8083	1274.6485	1327.3465	1355.8371	1389.5091	1393.9477	1403.7484	1410.5408	1420.2101	1476.4682	1484.8493	1489.501	1499.2508	1503.0305	1505.268	1520.0529	1727.3534	2936.4023	3004.3082	3037.0333	3037.5704	3040.6487	3047.3603	3102.5018	3108.6115	3115.0165	3119.8362	3124.2654	3135.5775	3143.1253	3169.2945
CC1C=CCOC1(C)C	C[C@H]1C=CCOC1(C)C	
InChI=1S/C8H14O/c1-7-5-4-6-9-8(7,2)3/h4-5,7H,6H2,1-3H3	InChI=1S/C8H14O/c1-7-5-4-6-9-8(7,2)3/h4-5,7H,6H2,1-3H3/t7-/m0/s1
