16
gdb 44397	3.78385	1.60623	1.45051	4.5335	66.96	-0.2521	-0.006	0.2461	905.764	0.127647	-437.860851	-437.854773	-437.853829	-437.891274	25.002	
O	-0.1236043727	 0.0785259452	 0.1664762796	-0.317155
C	-0.0235983002	 1.2523116982	 0.0243491057	 0.438426
O	-1.0317688888	 2.1527088303	-0.2606254676	-0.263676
C	-0.0944339507	 3.2803108103	-0.3124258513	 0.118481
C	-0.0148060797	 4.1696732884	 0.9328514796	-0.076258
C	 1.5381186109	 4.3252695218	 0.9961629699	-0.177052
N	 1.5606944512	 2.8352604894	 1.3426262158	-0.131803
C	 0.2475279493	 3.1349759474	 2.0511643221	-0.198641
C	 1.0793955801	 2.3261000696	 0.0268204245	-0.186948
H	-0.1597630273	 3.7908987674	-1.2719120428	 0.103156
H	-0.7133150187	 5.0009274643	 1.0272859555	 0.081356
H	 2.0863094226	 4.5970800233	 0.0893129056	 0.11202
H	 1.8903502087	 4.915309755	 1.844028226	 0.123562
H	 0.4610098363	 3.5939421138	 3.0173188395	 0.119249
H	-0.4292085397	 2.289644881	 2.1824425092	 0.138672
H	 1.9026726985	 2.1764639647	-0.6702761914	 0.116612
142.1971	243.6372	343.2349	478.1162	503.2887	573.078	656.6721	699.936	793.831	825.0312	838.5678	853.3307	868.4748	887.2503	927.4331	966.5979	980.2753	1005.9317	1026.5338	1035.5864	1078.8336	1101.2158	1109.2583	1188.0244	1203.119	1205.2301	1233.6992	1237.6647	1285.1207	1291.8793	1312.11	1341.2726	1504.9537	1540.9189	1939.8401	3060.2783	3086.3559	3118.9719	3127.8664	3131.5148	3137.9528	3145.4233
O=C1OC2C3CN(C3)C12	O=C1O[C@H]2[C@@H]3CN(C3)[C@@H]12	
InChI=1S/C6H7NO2/c8-6-4-5(9-6)3-1-7(4)2-3/h3-5H,1-2H2	InChI=1S/C6H7NO2/c8-6-4-5(9-6)3-1-7(4)2-3/h3-5H,1-2H2/t4-,5+/m1/s1
