16
gdb 131845	5.72752	0.78467	0.71446	1.5074	70.13	-0.2262	-0.0272	0.199	1506.8176	0.12486	-467.341578	-467.332833	-467.331889	-467.376172	30.837	
O	-0.5147882423	 1.55161305	 0.2420722785	-0.421614
C	 0.0590754776	 0.2629379815	 0.277136692	-0.04603
C	-0.9291314073	-0.7870600167	-0.2313349991	-0.167702
N	-1.3651931026	-0.3853008715	-1.5619987473	-0.398465
C	-2.1828873909	-1.1449708004	-2.1695053699	 0.568222
N	-2.7889869607	-2.3498114217	-1.8426405744	-0.313051
N	-3.6083368685	-2.8010336854	-2.8406468747	-0.079334
N	-3.5643879036	-1.9633909974	-3.7872683548	-0.057281
N	-2.7266239069	-0.9568174289	-3.4290113358	-0.3189
H	-0.9187432302	 1.6163417885	-0.6340288356	 0.28591
H	 0.9746271921	 0.2131038436	-0.3348788887	 0.08509
H	 0.3359472335	 0.0548620673	 1.31612459	 0.098461
H	-0.4427030833	-1.7780182268	-0.2330279902	 0.082585
H	-1.7809875133	-0.8368252107	 0.4678143352	 0.094172
H	-2.6995044317	-2.8786275109	-0.9938028737	 0.29413
H	-2.5496155518	-0.1905189006	-4.0547399913	 0.293806
35.5527	100.4914	139.0385	156.656	216.3321	293.352	347.4849	433.2899	464.5026	494.4537	505.3443	703.7282	721.8598	758.2109	904.5358	908.8304	989.1618	1020.2263	1026.8056	1075.7583	1097.4579	1106.1719	1116.9599	1228.6004	1255.434	1307.734	1370.9792	1372.4422	1389.0628	1397.0759	1445.2447	1480.0568	1505.5662	1522.128	1790.7607	2942.7176	2964.1557	2986.6732	3072.9864	3697.6428	3708.7365	3752.8156
OCCN=C1NN=NN1	OCCN=c1[nH]nn[nH]1	
InChI=1S/C3H7N5O/c9-2-1-4-3-5-7-8-6-3/h9H,1-2H2,(H2,4,5,6,7,8)	InChI=1S/C3H7N5O/c9-2-1-4-3-5-7-8-6-3/h9H,1-2H2,(H2,4,5,6,7,8)
