18
gdb 30066	3.03368	1.24712	1.00292	1.7236	84.68	-0.1994	0.0371	0.2365	1211.9457	0.147374	-364.81341	-364.804445	-364.8035	-364.847449	33.157	
C	 0.2790028149	 1.3533867017	 0.2049273439	-0.351155
N	 0.1124774458	-0.0808046242	 0.0778012302	-0.028041
C	-0.0155868206	-0.7575879078	-1.1113091967	-0.106314
C	-0.2101021739	-2.0903435853	-0.837576847	-0.161546
C	-0.2024053234	-2.2290078801	 0.5757135693	-0.234741
C	-0.0041064602	-0.9779695815	 1.1184900003	 0.296844
C	 0.0771293598	-0.5641299042	 2.5616407605	-0.470621
C	 1.3982131836	-0.0903395147	 2.9840937919	 0.317674
C	 2.4816862511	 0.3070339211	 3.3209692407	-0.463444
H	 1.1029108762	 1.5864348611	 0.8841256153	 0.156684
H	 0.5052136183	 1.7705965487	-0.7777802917	 0.13861
H	-0.6325027958	 1.8329715627	 0.581317222	 0.132835
H	 0.0432977517	-0.2256663412	-2.0479776044	 0.110837
H	-0.3369633219	-2.8750700525	-1.5671756251	 0.092658
H	-0.3191431717	-3.1417915526	 1.1408145367	 0.090398
H	-0.666601608	 0.2128595252	 2.7909536152	 0.134325
H	-0.2041711323	-1.4307297202	 3.1700052057	 0.147383
H	 3.4421962264	 0.6440017437	 3.6231513731	 0.197614
65.2835	92.0712	107.2455	196.4837	250.7879	272.8146	336.0319	410.2673	449.5892	617.6322	621.0757	627.1772	639.9992	695.2708	713.925	753.0431	783.961	834.6383	897.7784	926.3412	948.4306	1031.449	1076.4313	1114.9049	1152.7742	1180.4603	1217.8092	1275.4322	1322.0662	1345.3682	1402.4282	1450.3578	1453.9719	1468.7335	1487.5252	1517.7449	1532.7477	1593.3411	2234.1057	2999.5755	3029.3675	3066.487	3100.163	3140.3642	3237.0184	3248.0445	3265.7352	3505.5702
CN1C=CC=C1CC#C	Cn1cccc1CC#C	
InChI=1S/C8H9N/c1-3-5-8-6-4-7-9(8)2/h1,4,6-7H,5H2,2H3	InChI=1S/C8H9N/c1-3-5-8-6-4-7-9(8)2/h1,4,6-7H,5H2,2H3
