15
gdb 10475	3.31197	1.29255	1.00201	2.2474	77.91	-0.2332	0.0182	0.2513	1175.9833	0.116267	-325.434915	-325.426038	-325.425093	-325.469848	31.09	
C	-0.019117283	 1.4489040302	 0.0085911431	-0.501538
C	 0.0067868677	-0.0059026872	 0.0169577347	 0.074894
C	 0.0370913661	-1.2101265389	 0.0222533596	 0.011896
C	 0.0621729634	-2.6527291401	 0.0091527345	 0.004786
C	-0.5316320451	-3.3736387327	 1.1921752432	-0.258097
N	-1.2445371662	-3.3786765307	-0.0799623675	-0.337344
C	 1.1545488916	-3.260886456	-0.7136689715	 0.300075
C	 2.0789675255	-3.7606940495	-1.2954931406	-0.455502
H	 0.8972903023	 1.8519793314	-0.4359638222	 0.156813
H	-0.8650138241	 1.8296419682	-0.5743462061	 0.151626
H	-0.1025969576	 1.8540753874	 1.0229852043	 0.150498
H	-0.1000274271	-4.3276606651	 1.4788044277	 0.13586
H	-0.8928704415	-2.755344544	 2.0086989885	 0.126395
H	-1.9867582211	-2.6823815022	-0.0653382129	 0.242954
H	 2.8897404791	-4.2031169607	-1.8192067848	 0.196684
16.9917	84.1106	130.3763	186.5297	217.7948	303.5244	309.9047	448.1707	473.0688	539.4724	579.9224	586.6912	612.4535	651.3481	803.8533	852.268	932.2351	988.0346	1029.5123	1051.206	1053.8993	1099.6348	1145.4669	1258.1351	1317.3349	1343.286	1414.118	1475.6577	1477.6372	1497.7281	2245.5436	2368.5762	3027.9078	3088.5219	3091.9205	3115.6815	3211.2904	3501.031	3504.2914
CC#CC1(CN1)C#C	CC#C[C@]1(CN1)C#C	
InChI=1S/C7H7N/c1-3-5-7(4-2)6-8-7/h2,8H,6H2,1H3	InChI=1S/C7H7N/c1-3-5-7(4-2)6-8-7/h2,8H,6H2,1H3/t7-/m0/s1
