16
gdb 83454	3.05243	1.20862	1.05612	3.3899	68.12	-0.2519	0.0208	0.2727	1146.2768	0.123735	-437.846464	-437.838241	-437.837297	-437.879781	30.402	
O	-0.4816136741	 1.7247208808	 0.3345484804	-0.434423
C	-0.515501798	 0.4432187378	-0.2000028109	 0.086565
C	-0.2416421879	-0.816766897	 0.6164229063	-0.219852
C	-0.8573009318	-0.6269095084	 1.99377693	-0.110006
O	-2.1341782071	-0.2098106261	 1.4089457555	-0.34266
C	-1.6372121231	-0.4944553106	 0.09221184	 0.384424
C	-2.6206697674	-1.1538575434	-0.8412773746	-0.458043
C	-2.0188548364	-1.4909027078	-2.12837759	 0.26877
N	-1.5210210406	-1.7537632771	-3.1369809424	-0.304987
H	-1.2399381674	 1.7930306002	 0.930719308	 0.297113
H	-0.1142025344	 0.4033460963	-1.2084320251	 0.135139
H	 0.4724627352	-1.5751185832	 0.3251864322	 0.117873
H	-0.9916204751	-1.5517861716	 2.561784349	 0.123723
H	-0.426360019	 0.1514529147	 2.6315698342	 0.122864
H	-3.0191175135	-2.0651518573	-0.3800934669	 0.164445
H	-3.4723665096	-0.4820036173	-1.0084443457	 0.169055
54.3043	112.6414	211.5997	226.646	266.9785	318.2795	389.5481	426.8849	469.7956	529.6809	649.2172	686.4189	789.0613	799.811	884.3247	951.2652	958.7096	972.6623	978.2725	1022.1227	1032.2745	1105.0144	1116.4825	1159.6014	1166.8051	1227.6968	1243.8327	1299.5225	1323.4772	1348.5132	1378.7966	1462.168	1483.5315	1516.0223	2368.7909	3032.6411	3046.6227	3071.0715	3101.0712	3169.2821	3208.6821	3753.3352
OC1C2COC12CC#N	O[C@H]1[C@H]2CO[C@@]12CC#N	
InChI=1S/C6H7NO2/c7-2-1-6-4(3-9-6)5(6)8/h4-5,8H,1,3H2	InChI=1S/C6H7NO2/c7-2-1-6-4(3-9-6)5(6)8/h4-5,8H,1,3H2/t4-,5+,6-/m1/s1
