18
gdb 57327	1.83037	1.63257	1.07635	4.6341	77.35	-0.2832	0.0133	0.2965	1178.3146	0.143112	-401.929183	-401.918702	-401.917758	-401.964118	38.189	
C	-0.0196891516	 1.5573837619	 0.060938238	-0.419714
C	 0.0085138947	 0.024743936	 0.0698358305	 0.335401
C	 0.6451853993	-0.5208938778	 1.3502331909	-0.440675
O	-1.3090619898	-0.4891091268	-0.1083390112	-0.454899
C	 0.7510945373	-0.4970156777	-1.2103446323	-0.32644
C	 2.1214859495	-0.0024392092	-1.3353027351	 0.329305
C	 3.2446720804	 0.407700225	-1.4416177441	-0.431423
C	 0.7288327124	-1.9684879321	-1.2683157515	 0.308079
N	 0.7289038621	-3.1221618438	-1.3170618797	-0.334083
H	 0.986268391	 1.9803941982	 0.1157728754	 0.135137
H	-0.509708819	 1.9239125548	-0.8456607965	 0.125989
H	-0.5900961647	 1.917511993	 0.9231946197	 0.112936
H	 0.0983668197	-0.1502934527	 2.2244787924	 0.112033
H	 0.6188980908	-1.6133801529	 1.3597586601	 0.151839
H	 1.6842077946	-0.1934246794	 1.4432437384	 0.138031
H	-1.776213731	-0.4211335825	 0.730360372	 0.286978
H	 0.1579782586	-0.1369355675	-2.0614077752	 0.161989
H	 4.2404388557	 0.7648755335	-1.5395122018	 0.209516
69.8373	134.6266	145.3046	160.3983	180.2507	225.9513	257.7304	310.7617	319.2809	367.906	384.903	403.0591	449.2769	508.9001	581.9734	584.051	649.6952	670.3771	772.3312	877.5913	930.7455	960.0792	1002.8305	1011.0391	1044.0864	1137.743	1165.7046	1223.4918	1291.3849	1315.0961	1359.5015	1400.5524	1418.4354	1480.7369	1483.9318	1498.8301	1507.8129	2246.5544	2366.8008	3029.8903	3036.5993	3043.222	3106.8274	3112.0974	3130.7895	3133.6622	3501.5199	3824.8619
CC(C)(O)C(C#C)C#N	CC(C)(O)[C@@H](C#C)C#N	
InChI=1S/C7H9NO/c1-4-6(5-8)7(2,3)9/h1,6,9H,2-3H3	InChI=1S/C7H9NO/c1-4-6(5-8)7(2,3)9/h1,6,9H,2-3H3/t6-/m0/s1
