18
gdb 31230	1.86793	1.65931	0.95804	1.517	74.4	-0.2314	0.0025	0.2339	1239.3308	0.148027	-439.120701	-439.11172	-439.110775	-439.155242	32.166	
C	-0.3930740461	 1.4176475015	-0.0427430181	-0.374257
C	 0.1199910369	-0.0301230863	 0.052161764	-0.304861
C	 0.895031316	-0.4609918686	-1.1431776162	 0.280607
C	 2.1911272733	-0.7989474298	-1.3888643988	 0.107472
C	 3.36148835	-0.8745584991	-0.4513734461	-0.176033
O	 3.0133646302	-1.3049573719	 0.8592571185	-0.404921
N	 2.3368219764	-1.1026069398	-2.7433249114	-0.304037
C	 1.1563366405	-0.9336176192	-3.2363306119	 0.056173
O	 0.2207790016	-0.5507183819	-2.340264662	-0.17992
H	 0.4385861967	 2.12250141	-0.1353995543	 0.123838
H	-1.043546462	 1.5469330907	-0.9124071147	 0.129108
H	-0.9646562984	 1.6801121186	 0.8522510559	 0.117331
H	 0.7748403714	-0.1510506128	 0.9186234458	 0.139923
H	-0.7329425126	-0.7065654092	 0.1950600707	 0.114655
H	 4.1235146367	-1.5203907959	-0.9091785873	 0.116875
H	 3.8190594613	 0.1121851035	-0.3160345994	 0.126554
H	 2.6250267078	-2.1827513653	 0.7785436172	 0.28404
H	 0.8291017002	-1.0658545546	-4.2558102219	 0.147454
60.146	68.3379	151.9776	171.5027	210.3886	253.3233	330.9211	373.1864	412.5316	455.0839	651.4488	682.5169	683.5868	761.7748	796.3483	834.0875	957.2931	970.399	976.1134	1027.0936	1063.8183	1084.1045	1125.7289	1158.7902	1194.3419	1223.7115	1283.8917	1301.914	1344.2147	1369.7164	1391.9157	1410.1505	1422.9872	1484.7671	1496.7876	1502.5259	1507.5652	1559.0133	1659.4944	3013.4184	3023.8092	3042.3306	3060.8805	3101.8254	3115.0965	3123.8479	3273.2416	3808.5706
CCC1=C(CO)N=CO1	CCc1c(CO)nco1	
InChI=1S/C6H9NO2/c1-2-6-5(3-8)7-4-9-6/h4,8H,2-3H2,1H3	InChI=1S/C6H9NO2/c1-2-6-5(3-8)7-4-9-6/h4,8H,2-3H2,1H3
