16
gdb 27768	1.9969	1.8467	0.96514	3.0405	77.9	-0.2083	-0.0172	0.1911	1169.6995	0.126264	-434.135121	-434.127188	-434.126244	-434.167483	30.498	
C	 0.0183887883	 1.4969188279	 0.0039398379	-0.464569
C	-0.024704099	-0.002200178	-0.0018895484	 0.313774
C	-1.1819000077	-0.7036768643	-0.0988125775	-0.189098
C	-1.1933698017	-2.1509378318	-0.1017978029	 0.37218
N	-2.2583033393	-2.8565209469	-0.1914346002	-0.556253
N	 0.1147452661	-2.6848238218	 0.0062516415	-0.409861
C	 1.2154444463	-1.9008008732	 0.0979923204	 0.499494
O	 2.3567734375	-2.599278011	 0.1915906804	-0.407025
N	 1.2207870006	-0.6112662546	 0.1001946037	-0.442572
H	 0.6347277251	 1.8593964561	-0.8260471115	 0.137877
H	-0.9798069579	 1.9309239396	-0.0786458416	 0.126007
H	 0.4886608714	 1.8567578341	 0.9256627552	 0.137875
H	-2.1421246549	-0.2124229707	-0.1778251896	 0.109078
H	-2.0563838913	-3.8570470187	-0.1761386243	 0.195043
H	 0.2394004078	-3.6869841794	 0.0148850047	 0.262865
H	 3.0632887888	-1.9407097073	 0.2513029622	 0.315185
139.5783	157.0799	186.2997	219.3381	296.9598	350.1959	510.258	518.8135	544.7949	555.3064	574.48	606.618	629.8955	695.1086	765.5127	799.8004	874.8612	949.5538	977.3171	1009.2563	1064.4373	1085.4026	1124.7025	1190.3003	1243.2122	1313.7822	1335.8474	1401.6474	1428.1488	1471.5784	1481.3068	1547.899	1627.3647	1669.7385	1735.2745	3037.334	3092.1586	3135.4452	3227.937	3461.5872	3613.0278	3774.4107
CC1=CC(=N)NC(O)=N1	C[C@H]1C=C([NH])NC(=N1)O	
InChI=1S/C5H7N3O/c1-3-2-4(6)8-5(9)7-3/h2H,1H3,(H3,6,7,8,9)	InChI=1S/C5H8N3O/c1-3-2-4(6)8-5(9)7-3/h2-3,6H,1H3,(H2,7,8,9)/t3-/m0/s1
