16
gdb 50414	1.9314	1.81136	1.02972	5.4353	74.37	-0.2577	-0.0362	0.2215	1123.2669	0.124116	-400.777678	-400.769348	-400.768404	-400.811952	29.689	
O	 0.0188637775	-0.0766068291	-0.2206754782	-0.242754
C	 0.014103188	 1.098241163	 0.0320319539	 0.161798
C	 1.258075237	 1.9724787569	 0.0203750766	-0.102307
C	 1.1400550553	 2.9970579351	-1.1534393303	-0.290464
C	 0.8111228225	 4.2996339525	-0.4723993691	-0.06472
C	 0.9286283412	 4.2363924104	 0.8492644209	-0.060049
C	 1.3860027044	 2.8616062984	 1.3093389625	-0.204561
C	 0.6408581698	 2.3584626705	 2.4684134545	 0.266673
N	 0.056716437	 1.9756735591	 3.3894111039	-0.320183
H	-0.9319554044	 1.641871985	 0.2522822844	 0.098812
H	 2.1167231699	 1.3097467114	-0.0913030907	 0.110901
H	 2.0812031045	 3.0625583483	-1.712966761	 0.131113
H	 0.3754294221	 2.6992313573	-1.8816985344	 0.129135
H	 0.5404083133	 5.1904241358	-1.0276498165	 0.115935
H	 0.769355007	 5.0444060803	 1.5520172599	 0.126028
H	 2.4401601849	 2.9020128152	 1.6162091636	 0.144643
34.8034	69.9065	150.2183	175.758	306.437	317.7662	384.6799	424.5987	512.4617	565.1137	690.968	766.0495	790.7557	857.0554	888.2456	929.2443	977.8316	982.1654	1018.5884	1030.9614	1071.8167	1094.4012	1138.5998	1192.0423	1218.2178	1270.8212	1290.4221	1314.5584	1329.2769	1365.2961	1425.6091	1487.1548	1696.0076	1838.2592	2355.1376	2885.771	3013.5623	3027.5922	3054.2963	3113.5067	3198.2302	3226.3755
O=CC1CC=CC1C#N	O=C[C@H]1CC=C[C@H]1C#N	
InChI=1S/C7H7NO/c8-4-6-2-1-3-7(6)5-9/h1-2,5-7H,3H2	InChI=1S/C7H7NO/c8-4-6-2-1-3-7(6)5-9/h1-2,5-7H,3H2/t6-,7+/m0/s1
