21
gdb 83585	2.5469	1.65905	1.56438	2.3252	76.3	-0.2471	0.0786	0.3258	1004.8952	0.185961	-424.248172	-424.240607	-424.239663	-424.279696	30.837	
C	-0.0366742689	 1.5305001293	 0.0349591206	-0.429815
C	 0.035700069	 0.0038459777	-0.0103073633	 0.000538
C	 0.9230221092	-0.5814217673	-1.131818438	-0.041954
C	 2.3215726789	-0.2847235256	-0.5642027633	-0.094608
O	 2.1743197605	-0.369122034	 0.8642908432	-0.27221
C	 0.8091742329	-0.6071883911	 1.1679397707	 0.21332
O	 0.5217239705	-1.9864838908	 1.28528077	-0.267231
C	 0.9901082658	-2.7471422238	 0.1734276805	-0.069835
C	 0.659767441	-2.1008424876	-1.1849592864	-0.244469
H	 0.9507816569	 1.9834199917	 0.1615564031	 0.131354
H	-0.4769893643	 1.9283392109	-0.8852794141	 0.114112
H	-0.6598498216	 1.8628537237	 0.8718581728	 0.118817
H	-0.9736558258	-0.414860707	-0.0440449209	 0.07721
H	 0.7640088275	-0.1137121124	-2.107284708	 0.066673
H	 3.0783877133	-1.0073565851	-0.890824249	 0.102115
H	 2.6712591812	 0.7195739432	-0.832668391	 0.100544
H	 0.5981087154	-0.17468304	 2.1486036613	 0.082891
H	 2.0763544263	-2.8843722597	 0.2633406449	 0.106809
H	 0.5236929133	-3.7314962366	 0.2651570301	 0.10648
H	-0.391639408	-2.2728466353	-1.4416550284	 0.102859
H	 1.2665994768	-2.5802224501	-1.9621217947	 0.0964
183.3007	210.9758	221.0708	267.9267	285.4693	362.769	433.4886	455.3017	528.5498	634.1159	758.8595	765.5084	813.5564	835.2988	884.6862	912.3801	947.5658	958.6249	976.859	996.8554	1021.7077	1058.169	1071.9484	1101.4216	1120.0372	1126.7191	1140.5292	1199.6948	1218.1007	1262.4082	1270.3335	1305.5258	1316.3016	1327.252	1358.4823	1362.2579	1389.7347	1404.0055	1415.9176	1417.5371	1486.4456	1496.553	1502.5512	1508.1605	1532.4893	3011.8013	3022.1796	3030.8871	3036.1287	3058.0741	3068.3811	3073.3372	3075.3096	3093.0065	3096.0878	3099.1519	3115.7956
CC1C2COC1OCC2	C[C@H]1[C@H]2CO[C@@H]1OCC2	
InChI=1S/C7H12O2/c1-5-6-2-3-8-7(5)9-4-6/h5-7H,2-4H2,1H3	InChI=1S/C7H12O2/c1-5-6-2-3-8-7(5)9-4-6/h5-7H,2-4H2,1H3/t5-,6+,7-/m0/s1
