21
gdb 31953	3.19008	0.97014	0.81571	1.2738	88.4	-0.1777	0.0508	0.2285	1502.0019	0.183472	-383.305438	-383.295615	-383.29467	-383.341092	35.805	
C	-0.5254203809	 1.7103164735	-0.2694897429	-0.363235
C	-0.1937516139	 0.2260352508	-0.0283279441	-0.301132
C	-1.3956732454	-0.641024319	 0.1743402932	 0.303033
C	-1.8751786249	-1.2786523252	 1.2963530261	-0.22242
C	-3.0850483456	-1.947235893	 0.9461986638	-0.2171
C	-3.3093716385	-1.7119412173	-0.392194631	 0.278553
N	-4.3075288847	-2.1354952878	-1.2912738161	-0.388523
C	-5.4187814574	-1.1955460622	-1.4903439642	-0.323071
N	-2.2818085243	-0.9159783512	-0.8471445654	-0.313052
H	 0.3872276733	 2.2991041826	-0.4077833054	 0.109572
H	-1.144774355	 1.8403391428	-1.1632955651	 0.107443
H	-1.078805111	 2.1258076682	 0.5778996388	 0.123838
H	 0.4100059688	-0.1468796453	-0.8681746269	 0.097871
H	 0.4385386113	 0.1344655484	 0.8607704119	 0.112629
H	-1.4088227283	-1.2562900603	 2.2703183203	 0.083633
H	-3.7197329878	-2.5288822612	 1.5978902896	 0.079123
H	-4.6655018246	-3.0370003271	-1.0014149974	 0.231774
H	-5.0328252219	-0.2592535488	-1.9037227988	 0.123413
H	-6.1208714576	-1.6180839473	-2.2154072638	 0.116139
H	-5.9645644626	-0.9544756057	-0.5650725684	 0.109185
H	-2.159961829	-0.671923465	-1.815321204	 0.252326
47.9189	53.055	110.9383	170.275	181.4771	203.9117	289.5426	343.7957	424.2625	434.5966	484.4221	592.2599	654.9087	681.9606	705.3044	766.8604	778.4217	789.0893	816.2071	945.9505	987.6053	1013.3846	1052.539	1053.7408	1076.2278	1085.781	1141.7407	1159.5968	1212.3569	1249.3612	1291.5228	1303.0063	1356.4762	1405.0912	1409.6089	1442.7734	1450.8953	1481.6323	1487.6277	1494.6248	1498.2157	1504.942	1514.9863	1553.5817	1635.1792	2983.6686	3002.1581	3032.9661	3071.4458	3074.242	3101.4894	3111.9245	3112.4991	3232.381	3247.9123	3556.5721	3669.7861
CCC1=CC=C(NC)N1	CCc1ccc(NC)[nH]1	
InChI=1S/C7H12N2/c1-3-6-4-5-7(8-2)9-6/h4-5,8-9H,3H2,1-2H3	InChI=1S/C7H12N2/c1-3-6-4-5-7(8-2)9-6/h4-5,8-9H,3H2,1-2H3
