21
gdb 77505	1.8387	1.74449	1.25862	2.3125	79.	-0.2369	0.0683	0.3053	1138.4319	0.18039	-424.17938	-424.169563	-424.168618	-424.213224	37.556	
C	-0.1177066443	 1.6235893464	 0.3212502033	-0.447989
C	 0.0132359327	 0.1123462836	 0.1963764044	-0.030174
C	 1.0842094704	-0.552233765	-0.7162636873	 0.389358
O	 1.1100628011	-0.3727698061	-2.0860881764	-0.476292
C	 2.1750026486	-0.1626095351	 0.3326795374	-0.385585
C	 0.9472595817	-0.7162171083	 1.1251594599	 0.389367
O	 0.7693817922	-0.7806692338	 2.4939105584	-0.476292
C	 0.8935463543	-1.8914074119	 0.0833851254	-0.098275
C	-0.3201021665	-2.7909138251	-0.0869417565	-0.44286
H	 0.8350186729	 2.1443718856	 0.4381857704	 0.116881
H	-0.6094627876	 2.0309815088	-0.5683195914	 0.12317
H	-0.7394935235	 1.8746665675	 1.1869696428	 0.123177
H	-0.9832489309	-0.3194167753	 0.0838370302	 0.066619
H	 1.8779730075	-0.8334728954	-2.4408338877	 0.283034
H	 3.0775634006	-0.7825610348	 0.3445887414	 0.07645
H	 2.4163091698	 0.8931055249	 0.4446316942	 0.098673
H	 1.4830542101	-1.3062328249	 2.8710479986	 0.283036
H	 1.8064334932	-2.5018967748	 0.0969283772	 0.04769
H	-0.2437211915	-3.3590899457	-1.0206498499	 0.116662
H	-0.3740529893	-3.5153185244	 0.7333053852	 0.116666
H	-1.2701254117	-2.2531358359	-0.1096375894	 0.126683
120.2205	146.462	178.2928	187.7561	217.5422	234.8467	243.2289	289.5354	317.7138	413.9414	461.8826	516.0386	558.9486	611.1718	627.3681	673.2932	724.5111	782.0092	787.7719	875.0991	994.0111	1024.9517	1037.1663	1065.2958	1075.0116	1116.2612	1118.9815	1144.2265	1149.8559	1162.8426	1162.8461	1178.5408	1267.7457	1334.1043	1345.0116	1373.9226	1402.5527	1412.3685	1428.2414	1449.7982	1494.5896	1497.1945	1501.5042	1509.3702	1539.8345	3008.6737	3036.1818	3040.2892	3051.6974	3087.0985	3088.5701	3098.483	3121.9104	3128.4462	3150.1327	3808.0468	3808.6612
CC1C2(O)CC1(O)C2C	C[C@H]1[C@@]2(O)C[C@]1(O)[C@H]2C	
InChI=1S/C7H12O2/c1-4-6(8)3-7(4,9)5(6)2/h4-5,8-9H,3H2,1-2H3	InChI=1S/C7H12O2/c1-4-6(8)3-7(4,9)5(6)2/h4-5,8-9H,3H2,1-2H3/t4-,5-,6-,7+
