21
gdb 100211	2.25917	1.18729	1.011	0.1906	90.16	-0.2567	0.0381	0.2947	1311.4677	0.178106	-349.896881	-349.885994	-349.885049	-349.93234	40.595	
C	-0.0836253524	 1.5452209816	 0.1388293881	-0.403786
C	 0.0363348572	 0.0228721456	 0.0405850733	-0.183384
C	 0.7371888182	-0.5163850154	-1.2369715288	 0.038525
C	 0.7862725009	-2.0590802301	-1.1734197746	-0.414278
C	-0.0154063643	-0.0677196195	-2.5362420359	-0.374324
C	-1.413845696	-0.4754972559	-2.5813050453	 0.320127
C	-2.5680953345	-0.8115722997	-2.6128911185	-0.461238
C	 2.1052844304	 0.0049629049	-1.3196510437	 0.352685
C	 3.2283567082	 0.4279704014	-1.3990899931	-0.490659
H	 0.8944702072	 2.0264065589	 0.0442966511	 0.128654
H	-0.7415898311	 1.9534524972	-0.6347846376	 0.12148
H	-0.5072061329	 1.8297586296	 1.1067579039	 0.11377
H	 0.594994063	-0.3547249426	 0.9043781503	 0.101581
H	-0.9597554031	-0.4310352755	 0.0836387605	 0.111315
H	-0.2288529122	-2.4654312502	-1.1533230381	 0.129446
H	 1.3080569342	-2.4695255143	-2.0426488853	 0.119869
H	 1.3142771333	-2.3878789124	-0.2744064794	 0.1224
H	 0.0530454211	 1.0208969232	-2.6310280412	 0.140596
H	 0.5171031625	-0.482329692	-3.3999474851	 0.137164
H	-3.5880412035	-1.104444643	-2.6512858513	 0.196091
H	 4.2217216937	 0.798080368	-1.4628372194	 0.193965
59.1768	111.4038	120.4919	163.7242	187.6557	238.6454	246.8275	259.0652	332.2626	356.7541	371.887	414.8227	489.3826	547.3413	575.166	617.3236	628.4238	640.2595	643.4452	711.0779	784.4327	876.5075	906.705	937.6478	977.9389	1015.6899	1051.63	1075.8941	1119.18	1196.3897	1210.702	1270.1292	1310.2007	1348.4403	1368.1943	1408.9268	1411.6213	1468.3416	1478.6737	1494.441	1497.8506	1501.1143	1507.7158	2227.8705	2233.8331	3036.8369	3038.7219	3041.4023	3044.3805	3076.1912	3078.0803	3105.678	3115.054	3118.0769	3123.8285	3500.73	3505.2922
CCC(C)(CC#C)C#C	CC[C@@](C)(CC#C)C#C	
InChI=1S/C9H12/c1-5-8-9(4,6-2)7-3/h1-2H,7-8H2,3-4H3	InChI=1S/C9H12/c1-5-8-9(4,6-2)7-3/h1-2H,7-8H2,3-4H3/t9-/m0/s1
