19
gdb 12366	2.96931	2.07841	1.53373	2.041	71.28	-0.2444	0.0249	0.2693	902.0435	0.166709	-365.084522	-365.076594	-365.07565	-365.116463	30.028	
C	-0.099909544	 1.6048252655	-0.0839488918	-0.39412
C	 0.01210425	 0.0754426069	-0.0106945416	-0.030915
C	 0.7468108572	-0.4908961688	-1.2265878807	-0.078523
O	 2.1357903827	-0.1197712357	-1.2254649194	-0.227316
C	 2.7258192984	-0.0838798795	-0.0062362918	 0.124777
N	 2.2131096932	-0.2335332762	 1.1388092554	-0.277408
C	 0.7626235629	-0.4470675893	 1.2378340293	 0.059923
C	 0.2695889038	 0.1350417129	 2.5634414367	-0.396515
H	 0.8815113151	 2.0854048103	-0.0359232943	 0.134391
H	-0.5743155825	 1.908828886	-1.0229391154	 0.110693
H	-0.7055229835	 1.9987982237	 0.7358319996	 0.121387
H	-0.9999034177	-0.3492619698	-0.0140895757	 0.076253
H	 0.6850596983	-1.586510515	-1.2425541819	 0.108781
H	 0.3425364051	-0.1089364298	-2.167720339	 0.113308
H	 3.7904369705	 0.1150064267	-0.1205546214	 0.122065
H	 0.6019191791	-1.5343989517	 1.2824161167	 0.083325
H	 0.4721455107	 1.2077031471	 2.6257181663	 0.122384
H	-0.8070334242	-0.0244184574	 2.6874534359	 0.103107
H	 0.792591475	-0.347377216	 3.3931300632	 0.124403
106.4031	177.8697	179.8935	234.9323	280.9173	327.0762	367.5982	423.0592	488.1537	587.0765	660.4638	747.5443	841.3055	866.6126	896.8793	942.3567	967.2315	972.9566	1009.4025	1039.4216	1087.8362	1123.4343	1155.5725	1168.8345	1202.568	1270.1938	1309.0897	1322.9957	1359.5604	1375.5839	1393.8304	1404.2631	1413.1994	1425.5306	1483.992	1492.4294	1497.4834	1503.7547	1513.3596	1729.5559	2986.2751	3018.2754	3031.869	3038.3159	3043.05	3094.0062	3106.1224	3111.5189	3120.2985	3124.7253	3152.1427
CC1COC=NC1C	C[C@H]1COC=N[C@H]1C	
InChI=1S/C6H11NO/c1-5-3-8-4-7-6(5)2/h4-6H,3H2,1-2H3	InChI=1S/C6H11NO/c1-5-3-8-4-7-6(5)2/h4-6H,3H2,1-2H3/t5-,6-/m0/s1
