18
gdb 126694	3.16161	1.24795	0.96793	1.78	74.75	-0.2154	-0.0081	0.2073	1229.9897	0.147962	-435.26609	-435.257095	-435.256151	-435.300559	31.679	
C	-0.0225586942	 1.5138372204	-0.0202012002	-0.384692
C	 0.0261127605	-0.0184924557	-0.0266406095	-0.15447
N	 0.6752652269	-0.5912448609	-1.2018688302	-0.15218
C	 2.125785893	-0.6538770386	-1.2311771214	-0.350493
C	-0.0431063557	-0.7125164529	-2.3471483822	 0.492673
N	-1.3314525036	-0.4198879033	-2.4292061036	-0.254349
O	-1.6446151018	-0.7658439435	-3.7674633596	-0.165119
C	-0.5150497799	-1.1943077679	-4.3113176165	 0.117643
N	 0.5109261147	-1.1930515811	-3.5250035904	-0.34665
H	 0.9817486102	 1.9477905214	-0.0565497047	 0.116507
H	-0.593417381	 1.8811135875	-0.876672563	 0.145172
H	-0.5090696666	 1.869955949	 0.893298757	 0.118598
H	 0.5680432827	-0.3857219748	 0.8520792226	 0.101982
H	-0.989713848	-0.4209105757	 0.0206962928	 0.141
H	 2.4855160096	-1.1797856181	-0.3402455019	 0.124326
H	 2.4454176426	-1.1983882779	-2.118442496	 0.168153
H	 2.5877206885	 0.3436258242	-1.2505260393	 0.120576
H	-0.5506088578	-1.503065212	-5.3465460841	 0.161323
75.9381	86.6092	96.4746	149.2118	203.1823	255.0629	296.4324	373.6939	416.0824	536.2888	602.4571	611.4265	773.0273	792.3091	893.3206	906.2612	908.3306	966.4559	982.3576	1047.4614	1095.6122	1112.7162	1157.4471	1176.662	1230.8095	1249.3441	1319.0806	1358.9974	1392.9769	1404.2742	1408.209	1453.7386	1477.9349	1489.1015	1497.9427	1505.2882	1510.7708	1589.5549	1644.8922	2999.5525	3040.7863	3041.0242	3067.0814	3091.5839	3110.9322	3129.5222	3162.8755	3256.7839
CCN(C)C1=NOC=N1	CCN(C)c1nocn1	
InChI=1S/C5H9N3O/c1-3-8(2)5-6-4-9-7-5/h4H,3H2,1-2H3	InChI=1S/C5H9N3O/c1-3-8(2)5-6-4-9-7-5/h4H,3H2,1-2H3
