20
gdb 37234	3.88964	1.35256	1.19799	1.6	82.48	-0.2011	0.0676	0.2686	1095.5731	0.171856	-365.905237	-365.897749	-365.896805	-365.937318	30.611	
C	 0.1350539156	 1.4275312529	-0.420677502	-0.221323
C	 1.4818629146	 1.6679407842	 0.3224000487	-0.263475
C	 1.4322672436	 0.2148628235	 0.824699624	 0.370369
C	-0.0167145903	 0.0638079417	 0.3141780256	-0.302968
C	 2.3910428872	-0.9324438709	 0.6783400095	-0.138561
C	 3.8402741117	-0.6129150344	 1.1429239625	-0.063838
N	 3.9188836944	 0.8167896196	 1.5548726987	-0.336144
C	 3.3566340867	-0.2075952653	 2.4745039399	-0.061594
C	 1.8876116753	-0.5012163336	 2.0643386273	-0.145925
H	-0.6586742004	 2.1572997539	-0.2455797676	 0.093436
H	 0.261049486	 1.311563332	-1.5001317229	 0.098565
H	 2.3427802315	 1.9296710081	-0.2913566506	 0.107888
H	 1.4107756249	 2.3950791106	 1.1353052303	 0.099031
H	-0.7533464308	 0.0929249824	 1.1235240942	 0.098237
H	-0.2273528303	-0.8104558027	-0.3089599604	 0.095824
H	 2.1397929518	-1.8270988939	 0.1205564024	 0.082759
H	 4.7273878617	-1.161945472	 0.8549879137	 0.090782
H	 4.8812815113	 0.9796800952	 1.8525450652	 0.225173
H	 3.7799482549	-0.3738102026	 3.4566401347	 0.09053
H	 1.1872493107	-1.0144273986	 2.7130802767	 0.081232
59.7502	180.4305	197.9993	294.8044	373.3728	454.1812	483.0263	658.0569	709.8806	733.6445	741.7963	761.5917	782.6697	844.6862	849.6675	883.0156	905.3606	918.6352	925.4251	944.2505	965.8516	993.7605	996.7245	1031.506	1059.1145	1086.9587	1106.99	1130.7812	1143.1207	1202.1759	1217.1605	1228.4953	1230.3745	1247.9072	1264.2963	1276.6828	1301.3481	1306.4032	1363.6597	1419.6627	1470.6646	1479.0309	1502.6788	3040.6011	3061.3382	3072.5152	3084.8491	3111.1124	3138.7621	3168.3406	3178.2604	3188.8283	3202.0789	3461.8599
C1CC2(C1)C1C3NC3C21	C1CC2(C1)[C@H]1[C@H]3N[C@H]3[C@@H]21	
InChI=1S/C8H11N/c1-2-8(3-1)4-5(8)7-6(4)9-7/h4-7,9H,1-3H2	InChI=1S/C8H11N/c1-2-8(3-1)4-5(8)7-6(4)9-7/h4-7,9H,1-3H2/t4-,5+,6-,7+
