23
gdb 121561	6.73877	0.39168	0.38482	1.1456	93.84	-0.2421	0.0618	0.3039	2923.2472	0.203002	-388.263858	-388.252122	-388.251178	-388.303944	39.633	
C	-0.3657702026	 1.4533557929	 0.2805785616	-0.381445
C	-0.2430001544	-0.0693363813	 0.361987798	-0.152185
C	 1.1779637482	-0.5244123892	 0.752838067	-0.334851
C	 1.3189592194	-1.9741296207	 0.8363516916	 0.042553
C	 1.40901761	-3.1744660973	 0.8860085911	 0.078135
C	 1.5273244076	-4.624171473	 0.9831609992	-0.353363
C	 1.5414300725	-5.1129484002	 2.4351509699	-0.041525
O	 1.6571894653	-6.5172078254	 2.4143927016	-0.226759
C	 1.6819355017	-7.0842743854	 3.7017252575	-0.228472
H	 0.3210754486	 1.8683518428	-0.4656586701	 0.115382
H	-1.3802003687	 1.7542033896	 0.0020866857	 0.114102
H	-0.1314746214	 1.9233313916	 1.2424183092	 0.114859
H	-0.9551708094	-0.4671290608	 1.0936390914	 0.106986
H	-0.5062998422	-0.521422249	-0.6007824158	 0.108366
H	 1.8976438346	-0.1259202862	 0.0245032176	 0.12342
H	 1.4489422213	-0.0723115245	 1.7169008856	 0.122301
H	 0.696081061	-5.1140957886	 0.4614276885	 0.134026
H	 2.445541304	-4.969756716	 0.4926012893	 0.134128
H	 2.384673678	-4.6567346163	 2.9789872263	 0.09485
H	 0.6161613754	-4.8020015712	 2.9471878335	 0.094415
H	 2.5364540825	-6.7190900551	 4.2935635952	 0.104092
H	 0.7596634095	-6.8653963099	 4.2632956549	 0.10396
H	 1.7730902692	-8.1665769768	 3.5816170211	 0.127024
9.489	57.9273	63.9224	98.1314	104.8519	121.4978	230.0587	238.9042	242.2545	284.7237	291.9755	366.6644	417.9428	503.3007	524.9155	742.7644	797.0347	800.5223	872.1645	895.4396	994.4236	1041.4218	1054.2624	1086.2718	1108.9829	1122.4881	1157.3706	1169.9949	1182.3222	1227.1118	1233.0945	1259.2184	1300.0262	1305.7771	1316.876	1321.5433	1381.7373	1412.4962	1418.2523	1473.3779	1478.1378	1481.758	1485.4642	1491.8127	1498.9784	1504.7824	1508.9414	1531.6967	2368.8145	2960.0407	2972.8758	2994.1102	3006.0133	3011.7406	3028.0915	3028.7771	3031.915	3040.2023	3063.8844	3071.7905	3098.9469	3104.5332	3112.7708	9.4864	57.9265	63.9227	98.1315	104.8517	121.4978	230.0587	238.9041	242.2544	284.7239	291.9756	366.6652	417.9429	503.301	524.916	742.7643	797.0347	800.5223	872.1646	895.4396	994.4236	1041.4218	1054.2624	1086.2718	1108.983	1122.4883	1157.3706	1169.9949	1182.3222	1227.1118	1233.0943	1259.2186	1300.026	1305.7772	1316.876	1321.5436	1381.7374	1412.4963	1418.2522	1473.378	1478.1377	1481.758	1485.4642	1491.8129	1498.9786	1504.7824	1508.9417	1531.6965	2368.8147	2960.0407	2972.8758	2994.1102	3006.0132	3011.7406	3028.0915	3028.7771	3031.915	3040.2023	3063.8844	3071.7904	3098.9469	3104.5332	3112.7708
CCCC#CCCOC	CCCC#CCCOC	
InChI=1S/C8H14O/c1-3-4-5-6-7-8-9-2/h3-4,7-8H2,1-2H3	InChI=1S/C8H14O/c1-3-4-5-6-7-8-9-2/h3-4,7-8H2,1-2H3
