21
gdb 70575	2.50666	1.69322	1.36644	2.4269	81.67	-0.2238	0.0719	0.2957	1052.7749	0.185574	-383.236384	-383.228596	-383.227652	-383.268057	32.134	
C	-0.0071765422	 1.5019492473	-0.0325917571	-0.487304
C	 0.0154214637	-0.0114687885	 0.0146390168	 0.355709
N	-0.3369578065	-0.6904322742	 1.2738625705	-0.354874
C	 1.0677079485	-0.7091725636	 0.8046573449	-0.086558
C	 1.6175278459	-2.0385414117	 0.3028970644	-0.2148
C	 1.7659028756	-2.0596028017	-1.2321726986	-0.214515
C	 0.4806698483	-1.6594238857	-1.9315214401	-0.017287
N	-0.7600245051	-2.0980267009	-1.2755373206	-0.328396
C	-0.4214299243	-0.6670101405	-1.2766728723	-0.08542
H	 0.5627448642	 1.8823635067	-0.8881640438	 0.122564
H	-1.0334543888	 1.8778538667	-0.1268828584	 0.120684
H	 0.4281665201	 1.9299848042	 0.8760017205	 0.111981
H	-0.4422817921	 0.006682371	 2.0084409847	 0.219149
H	 1.7716524803	-0.0714945955	 1.3363058692	 0.072467
H	 2.5887592189	-2.2424052306	 0.7646576887	 0.086571
H	 0.9313287431	-2.8325762858	 0.6046569089	 0.13601
H	 2.5621370918	-1.3716039141	-1.5481321281	 0.092177
H	 2.0696522058	-3.0618206116	-1.5578351707	 0.098309
H	 0.5138989745	-1.6630987731	-3.0195661651	 0.074998
H	-1.4882711589	-2.2796236524	-1.9598721287	 0.229195
H	-1.0064860028	-0.0223109958	-1.9300711852	 0.069339
152.1722	201.9648	234.4996	275.8943	329.0126	343.0305	447.9077	482.571	495.5425	539.7148	617.3965	723.2377	779.0034	804.7404	852.595	873.361	905.3689	923.4222	942.9121	957.5076	970.125	1038.2528	1042.1371	1059.0999	1094.8568	1117.1357	1135.4444	1149.6229	1179.3055	1188.0989	1228.8644	1253.2822	1277.7999	1284.2082	1335.1928	1362.1561	1383.9582	1411.6098	1414.5178	1448.321	1464.7369	1479.2184	1485.9497	1488.6573	1503.5212	3014.246	3019.1529	3050.3281	3057.334	3079.7447	3097.7648	3109.736	3112.5021	3121.4173	3123.9106	3479.764	3513.7214
CC12NC1CCC1NC21	C[C@]12N[C@H]1CC[C@H]1N[C@@H]21	
InChI=1S/C7H12N2/c1-7-5(9-7)3-2-4-6(7)8-4/h4-6,8-9H,2-3H2,1H3	InChI=1S/C7H12N2/c1-7-5(9-7)3-2-4-6(7)8-4/h4-6,8-9H,2-3H2,1H3/t4-,5+,6-,7+/m1/s1
