19
gdb 80995	2.63081	1.56983	1.23505	4.6383	75.31	-0.2569	0.0186	0.2755	1077.687	0.159402	-423.057638	-423.049499	-423.048555	-423.089847	31.993	
C	-0.1850219843	 1.5512739322	-0.0698247021	-0.441843
C	 0.0183738508	 0.0444703323	-0.007141449	-0.010681
C	 1.1980300614	-0.575128487	-0.8535771924	-0.204483
C	 2.1444455722	-0.1982910603	 0.3354040289	-0.288627
C	 0.8765840035	-0.5609458872	 1.1477874002	 0.429444
C	 0.6731982453	-0.3099073991	 2.6127628667	-0.498938
O	 0.7547828188	-1.9982397363	 0.8500424694	-0.281538
C	 0.9691999042	-2.0379250165	-0.5079370271	 0.45069
O	 0.9515657936	-3.034608373	-1.1646527125	-0.355796
H	 0.7439437259	 2.1201673023	 0.0206213307	 0.122759
H	-0.6504743543	 1.8285437329	-1.0210503739	 0.130639
H	-0.8567907043	 1.8797366927	 0.7305965958	 0.127344
H	-0.9437391562	-0.4636023545	-0.1306480149	 0.092636
H	 1.3943964085	-0.3362997985	-1.8954485	 0.094652
H	 3.0291657527	-0.8168443891	 0.5017316762	 0.118501
H	 2.4061784702	 0.8587760281	 0.3656572237	 0.113933
H	 0.7472275478	 0.7602588301	 2.8265030097	 0.125895
H	-0.3127295045	-0.661432031	 2.9313305354	 0.13719
H	 1.4305713888	-0.833956158	 3.2031026153	 0.138222
162.6678	193.213	199.9197	202.8596	258.5717	299.3966	362.4682	487.5819	498.4075	529.2552	601.1904	664.6614	738.9105	794.0763	821.3538	851.7324	889.7463	895.6394	938.8085	989.1483	1040.3164	1045.8455	1065.1444	1095.1174	1121.9977	1138.1895	1194.4588	1224.1208	1229.2415	1244.2627	1264.7059	1333.2891	1388.6117	1415.7815	1420.6078	1480.1482	1490.4277	1494.8796	1496.5118	1513.4537	1909.9467	3038.4791	3043.3795	3054.2673	3082.0732	3099.472	3115.8915	3116.9322	3119.6014	3151.5535	3160.9551
CC1C2CC1(C)OC2=O	C[C@H]1[C@H]2C[C@]1(C)OC2=O	
InChI=1S/C7H10O2/c1-4-5-3-7(4,2)9-6(5)8/h4-5H,3H2,1-2H3	InChI=1S/C7H10O2/c1-4-5-3-7(4,2)9-6(5)8/h4-5H,3H2,1-2H3/t4-,5+,7-/m0/s1
