12
gdb 5467	3.60433	1.97645	1.27648	3.7723	65.26	-0.2216	-0.0183	0.2033	860.2639	0.085876	-377.572597	-377.565816	-377.564872	-377.603532	25.207	
O	 0.0959774452	 1.3547384785	 0.1125097161	-0.428717
C	 0.0580626548	 0.0081111295	 0.0448589603	 0.281992
C	 0.0304974355	-0.7873630912	-1.100071809	 0.091974
N	-0.0041335435	-2.10829105	-0.669644514	-0.317446
C	 0.0010917384	-2.1402045716	 0.6871073184	-0.060549
C	 0.0393050357	-0.8460709824	 1.1690046147	-0.226348
C	 0.0353661623	-0.3890826016	-2.4444600308	 0.176016
N	 0.0412294432	-0.0128705446	-3.5440011977	-0.369065
H	 0.1020907411	 1.7206962486	-0.7802889601	 0.312497
H	-0.0290149414	-2.9049774367	-1.2813874814	 0.280679
H	-0.0225952398	-3.077939365	 1.218712441	 0.138862
H	 0.0525333885	-0.5397704535	 2.2020129327	 0.120105
130.3016	151.2414	306.9754	372.3274	383.9467	403.1928	517.1459	536.9362	623.1444	635.7044	698.0183	723.9882	761.8199	839.2322	909.4168	1081.2732	1097.7106	1165.1238	1260.4669	1274.9986	1365.7672	1461.2578	1491.2111	1554.8601	1607.7027	2313.5696	3262.6244	3279.8262	3690.0215	3795.429
OC1=C(NC=C1)C#N	Oc1c([nH]cc1)C#N	
InChI=1S/C5H4N2O/c6-3-4-5(8)1-2-7-4/h1-2,7-8H	InChI=1S/C5H4N2O/c6-3-4-5(8)1-2-7-4/h1-2,7-8H
