22
gdb 121445	2.23759	0.92189	0.71277	3.1297	82.84	-0.2426	0.0109	0.2535	1664.2993	0.191778	-441.477882	-441.466649	-441.465705	-441.515924	38.705	
C	 1.4095129659	 1.1424979131	 0.244408656	-0.376876
C	 0.428758279	 0.4237666242	-0.6963074416	-0.23068
C	-0.7913315118	-0.0958685323	 0.0258721877	 0.383785
O	-0.4146841497	-1.0053008884	 0.9765409592	-0.258311
C	-1.250477038	-2.1173090418	 1.2902938416	-0.240132
N	-1.9451772445	 0.340661756	-0.2543130208	-0.310505
C	-3.1668537522	 0.0583767894	 0.4851554667	-0.16416
C	-4.1564288628	 1.1829414273	 0.1578773692	-0.051297
O	-4.3321365507	 1.305699757	-1.2355452653	-0.421795
H	 2.2827380917	 1.4936458111	-0.3125861011	 0.117164
H	 0.9358220957	 2.0107270849	 0.7131609543	 0.123786
H	 1.7533979135	 0.4725432915	 1.0360647781	 0.133023
H	 0.0839102605	 1.0985896074	-1.4816194581	 0.117652
H	 0.9392448374	-0.4229798189	-1.1709702716	 0.110189
H	-0.5847432115	-2.8957032986	 1.6699784927	 0.134746
H	-1.990660186	-1.8781604467	 2.0583816728	 0.130439
H	-1.7623040866	-2.4885465506	 0.397494471	 0.133908
H	-3.6070788411	-0.8926378803	 0.1593734167	 0.108789
H	-3.0069883314	 0.0089480593	 1.57054395	 0.096411
H	-5.1356898158	 0.9642671179	 0.5976800212	 0.097041
H	-3.7889324698	 2.1225258411	 0.6034015776	 0.081577
H	-3.4326928619	 1.2855125673	-1.5925217662	 0.285246
36.9273	57.2425	63.3183	107.9815	159.5819	172.8089	197.5965	221.6055	245.6206	331.4576	348.8225	398.7954	518.6654	535.6771	584.8628	719.8284	794.9327	800.0835	899.2863	910.4303	965.5225	1017.3213	1068.3176	1086.2682	1101.4211	1111.0496	1129.4733	1171.7249	1207.4927	1226.2937	1236.5887	1262.397	1292.8595	1352.5487	1370.3528	1385.5028	1405.4619	1444.4151	1467.2353	1475.6805	1479.7292	1495.8141	1497.731	1507.4773	1509.8083	1510.4431	1760.3502	2964.0339	2999.3571	3037.3842	3038.5671	3044.2688	3051.0439	3068.6565	3109.0337	3114.943	3115.2846	3125.2621	3133.7044	3734.3672
CCC(OC)=NCCO	CCC(=NCCO)OC	
InChI=1S/C6H13NO2/c1-3-6(9-2)7-4-5-8/h8H,3-5H2,1-2H3	InChI=1S/C6H13NO2/c1-3-6(9-2)7-4-5-8/h8H,3-5H2,1-2H3
