15
gdb 130386	4.72119	0.51104	0.5071	8.9819	104.04	-0.2541	-0.1269	0.1272	2191.5792	0.106778	-412.900736	-412.889431	-412.888487	-412.941946	35.708	
N	-0.8452713239	 0.0913650447	-0.5775043426	-0.710379
H	-1.5063015404	-0.665162796	-0.4200021111	 0.246546
H	-0.1289650237	-0.2890119694	-1.1908403015	 0.245938
H	-1.3433436593	 0.7854390754	-1.1287549658	 0.249513
C	-0.0422597058	 2.0081166315	 1.6765952836	-0.350497
C	-0.2204022888	 3.3112512931	 1.6164226879	 0.214498
C	-0.3953533775	 4.5526413649	 1.5499962239	 0.111056
C	-0.5921355346	 5.8681870404	 1.4821041617	 0.124049
C	 0.2799416467	 6.9301854365	 1.0310659974	-0.121736
N	-0.3329451288	 8.0627077595	 1.1391188073	-0.175694
N	-1.6366332549	 7.7567266468	 1.670256841	-0.096679
N	-1.7907970366	 6.5183254909	 1.8675923877	-0.220163
H	-0.8190474023	 1.3435234594	 2.0379957886	 0.175515
H	 0.8841228637	 1.54168802	 1.3594494039	 0.171452
H	 1.289467546	 6.8357827824	 0.6568152979	 0.136582
16.2679	19.3576	22.7676	81.2416	101.5571	139.4263	166.6578	181.6901	285.2767	304.2393	429.8006	502.532	511.7744	574.4355	657.0677	713.5139	754.0491	914.24	925.1185	932.2545	1009.1074	1018.0783	1100.6785	1107.4348	1162.7017	1275.7526	1426.2483	1450.7635	1554.8276	1677.9933	1681.2206	1691.6088	2204.9423	3160.2193	3240.3302	3245.0272	3465.084	3581.3838	3583.5586
[NH3+]CC#CC1=CN=N[N-]1	N.[CH2]C#Cc1cnnn1	
InChI=1S/C5H5N4/c6-3-1-2-5-4-7-9-8-5/h4H,3,6H2/q-1/p+1	InChI=1S/C5H4N3.H3N/c1-2-3-5-4-6-8-7-5;/h4H,1H2,(H,6,7,8);1H3
