20
gdb 73639	2.37645	1.61344	1.42258	2.3518	78.42	-0.2275	-0.0226	0.205	1045.2917	0.171314	-403.161683	-403.15335	-403.152405	-403.194487	32.313	
C	-0.1714834427	 1.4805934515	 0.0919897372	-0.444544
C	 0.0159583924	-0.0240417417	-0.0410324715	 0.196779
C	-1.3082453851	-0.8221705415	-0.1485818997	-0.265629
C	-1.0224427367	-2.1441048291	 0.5856167315	-0.226904
C	-0.002292069	-1.7183350194	 1.6634649638	-0.175109
N	 0.8368129059	-0.6775052128	 1.053651503	-0.122304
C	 1.8544482062	-1.1774458816	 0.084227592	-0.308033
C	 1.10262572	-0.4590695756	-1.0415130685	 0.370372
O	 1.2736013906	-0.2986861971	-2.213966981	-0.300841
H	 0.7887703862	 1.9916616592	 0.2026195926	 0.123549
H	-0.6729842277	 1.8788023068	-0.7962110088	 0.129906
H	-0.7836874443	 1.7118034483	 0.9697129896	 0.12033
H	-2.1026991255	-0.2630384634	 0.3588917753	 0.105267
H	-1.6160909435	-0.9582371997	-1.1885667667	 0.121256
H	-1.9222119799	-2.6008186231	 1.0059226436	 0.103449
H	-0.5762758802	-2.8752169435	-0.0983012758	 0.107506
H	-0.5244441607	-1.2898081675	 2.5279210071	 0.104618
H	 0.6175533651	-2.5401376368	 2.0333679511	 0.106834
H	 2.8705222751	-0.819130621	 0.2827803191	 0.132242
H	 1.8912482339	-2.2686026821	-0.0452517438	 0.121256
74.1551	167.5793	188.439	203.0778	273.2353	290.4129	374.6069	486.2223	530.6784	574.6147	592.3515	640.6374	715.6855	764.4755	854.6101	876.6416	903.0248	913.5206	962.5139	967.7922	1007.2124	1033.0598	1058.0817	1082.2212	1117.943	1175.8896	1179.4318	1188.986	1220.2442	1256.676	1269.4374	1286.3528	1319.2756	1341.924	1356.6508	1402.3848	1462.132	1480.0697	1485.5433	1491.0091	1493.342	1507.5281	1900.6322	3006.1035	3027.3036	3034.1817	3039.269	3043.0093	3064.9874	3088.8286	3096.4634	3104.5479	3107.524	3115.6745
CC12CCCN1CC2=O	C[C@]12CCCN1CC2=O	
InChI=1S/C7H11NO/c1-7-3-2-4-8(7)5-6(7)9/h2-5H2,1H3	InChI=1S/C7H11NO/c1-7-3-2-4-8(7)5-6(7)9/h2-5H2,1H3/t7-/m1/s1
