21
gdb 110506	2.58898	1.51202	1.2408	1.2164	81.18	-0.2347	0.0599	0.2946	1116.235	0.182042	-387.041978	-387.033277	-387.032333	-387.075327	34.016	
C	-0.2082032416	 1.5143394516	 0.0082383638	-0.383018
C	 0.0744788764	 0.0084702263	 0.0785676325	-0.214174
C	 0.6699100789	-0.5550970366	-1.2090242021	-0.021292
C	 0.7999521825	-2.0628361501	-1.4301461726	-0.092852
C	-0.5041649252	-2.5634567714	-2.0801466651	-0.062717
C	-1.429933267	-1.3622488578	-2.2671877364	-0.30436
C	-0.124220737	-0.5651879637	-2.562036555	 0.36766
O	-0.1047429749	 0.5182824735	-3.4281813828	-0.484113
C	 0.5818441348	-1.932261208	-2.9159640154	-0.132352
H	 0.691048835	 2.0763591094	-0.2672454136	 0.119033
H	-0.984023252	 1.74390537	-0.7325254887	 0.101325
H	-0.5613828473	 1.9011088496	 0.9691000389	 0.115951
H	 0.7755433412	-0.1895650412	 0.9001349419	 0.095046
H	-0.8447433028	-0.5290221247	 0.3375003964	 0.099817
H	 1.638632893	-0.0815371809	-1.4132964768	 0.070702
H	 1.4646040409	-2.7509363451	-0.9229162711	 0.08163
H	-0.7766223731	-3.6099730936	-2.0404152548	 0.084857
H	-2.0193781934	-1.461443208	-3.1828755976	 0.102294
H	-2.0750039519	-1.0375427524	-1.4425624012	 0.082847
H	-0.5476822951	 1.2593961796	-3.0007138007	 0.280529
H	 1.1444068887	-2.2713466164	-3.7725759097	 0.093189
60.8435	133.842	149.1878	213.7336	279.276	319.5956	353.0538	373.1966	497.6347	546.6214	626.7824	690.8146	752.3866	784.1154	793.8244	808.8288	866.7907	914.0919	924.0579	943.5704	971.6251	993.5447	1008.5048	1023.553	1035.3315	1077.1824	1097.1226	1122.4724	1150.3524	1158.1647	1171.66	1202.9577	1232.055	1265.5843	1288.3511	1298.0498	1332.7124	1369.2983	1377.8145	1406.3815	1412.8481	1483.0688	1499.7771	1502.8625	1512.8315	3019.4521	3024.1792	3027.4449	3031.3446	3060.8225	3086.5856	3098.271	3102.5556	3188.3402	3200.2167	3234.1878	3807.6095
CCC1C2C3CC1(O)C23	CC[C@H]1[C@H]2[C@H]3C[C@]1(O)[C@@H]23	
InChI=1S/C8H12O/c1-2-5-6-4-3-8(5,9)7(4)6/h4-7,9H,2-3H2,1H3	InChI=1S/C8H12O/c1-2-5-6-4-3-8(5,9)7(4)6/h4-7,9H,2-3H2,1H3/t4-,5+,6-,7-,8-/m1/s1
