21
gdb 65764	3.08826	1.0521	0.98821	2.9202	84.58	-0.2399	-0.0202	0.2198	1305.3724	0.181449	-387.115928	-387.106584	-387.10564	-387.150869	34.676	
C	 0.0457671872	 1.5986971446	-0.0713061274	-0.439188
C	 0.0313075605	 0.0632298195	-0.0074356172	 0.248592
C	-1.4459190356	-0.4468541918	-0.001833698	-0.30107
C	-2.2178796205	-0.0536045232	 1.2347757488	 0.15454
O	-3.1616787729	 0.6964570908	 1.2473306379	-0.246806
C	 0.8043670271	-0.5808687556	-1.1998797553	-0.250756
C	 1.5604654539	-1.8013474886	-0.6197138589	-0.260671
C	 1.6178079046	-1.4845225152	 0.8554747764	-0.076174
C	 0.8035336969	-0.4840569843	 1.1840218045	-0.094606
H	 1.0731788686	 1.9746453542	-0.0504468172	 0.11621
H	-0.4287823313	 1.9551151606	-0.9922300198	 0.119316
H	-0.4954616186	 2.045983004	 0.7689566712	 0.125845
H	-1.9791025739	-0.0591812781	-0.875755249	 0.11483
H	-1.433806259	-1.5439395972	-0.0520388929	 0.111758
H	-1.8480679233	-0.5139207819	 2.17986757	 0.074065
H	 0.1431511103	-0.8397114486	-2.0315866652	 0.096805
H	 1.5304173349	 0.1456218444	-1.5791644281	 0.102347
H	 1.0259778761	-2.7456729416	-0.7957861674	 0.107519
H	 2.5523551182	-1.9282217612	-1.0673265328	 0.106972
H	 2.2381810284	-2.0390467727	 1.5513744728	 0.09561
H	 0.6689064885	-0.0933961481	 2.1874076675	 0.094861
40.7908	69.9418	111.1355	205.1048	237.9271	270.8541	303.9808	351.0841	394.036	485.9122	522.9377	603.3548	695.096	769.7405	782.5062	848.6737	859.4756	910.6293	923.9682	952.1179	979.1681	980.3599	1008.3966	1024.328	1062.7098	1121.9148	1123.2869	1165.0629	1194.7079	1210.1594	1241.0009	1269.4275	1301.7592	1324.4353	1325.2977	1386.4435	1414.4773	1429.3094	1461.0727	1483.2756	1493.551	1497.1825	1500.8176	1685.886	1826.8264	2866.7115	3008.5465	3019.4063	3029.8522	3045.2873	3060.3908	3089.3691	3094.5267	3097.9116	3107.5467	3175.6182	3201.7946
CC1(CC=O)CCC=C1	C[C@@]1(CC=O)CCC=C1	
InChI=1S/C8H12O/c1-8(6-7-9)4-2-3-5-8/h2,4,7H,3,5-6H2,1H3	InChI=1S/C8H12O/c1-8(6-7-9)4-2-3-5-8/h2,4,7H,3,5-6H2,1H3/t8-/m0/s1
