14
gdb 57244	2.0505	1.47628	1.2282	3.2586	69.26	-0.2829	-0.0958	0.187	1079.9064	0.096136	-436.660549	-436.650722	-436.649778	-436.695514	34.395	
C	-0.4101981036	 1.7116925682	-0.0629406795	-0.410188
C	 0.037256552	 0.2518485339	-0.0021828409	 0.080925
O	 0.9221175344	 0.1157381405	 1.1038722416	-0.432985
C	-1.0885325371	-0.6818899904	 0.0794724073	 0.296861
C	-1.9754302032	-1.4916954098	 0.1330386538	-0.458627
C	 0.8321036336	-0.1143019455	-1.2861589936	 0.297027
O	 0.8453615851	 0.5226455637	-2.302246614	-0.265771
C	 1.6342707515	-1.3514526623	-1.1463729765	 0.230023
N	 2.2447112179	-2.3272088238	-1.0361349522	-0.299716
H	 0.4712318136	 2.3566992209	-0.0755178976	 0.143702
H	-0.9962030494	 1.8939509706	-0.9642004204	 0.150115
H	-1.0102802735	 1.939252125	 0.8192814722	 0.140951
H	 0.9682097804	-0.814361443	 1.3559465252	 0.306308
H	-2.7687098118	-2.197406078	 0.1857078745	 0.221375
40.9416	108.2734	144.2744	171.9564	212.3973	251.7132	271.6704	296.3093	329.7478	388.3186	440.1577	450.4038	569.7072	624.1967	658.8921	672.7138	687.0051	767.4956	853.0001	955.5039	1037.5594	1116.7984	1171.0175	1186.8037	1365.5372	1407.5886	1477.0692	1485.9681	1814.1346	2228.7898	2337.1909	3067.1778	3149.2355	3162.8208	3495.2243	3801.232
CC(O)(C#C)C(=O)C#N	C[C@@](O)(C#C)C(=O)C#N	
InChI=1S/C6H5NO2/c1-3-6(2,9)5(8)4-7/h1,9H,2H3	InChI=1S/C6H5NO2/c1-3-6(2,9)5(8)4-7/h1,9H,2H3/t6-/m1/s1
