14
gdb 125514	4.14467	1.0152	0.90066	3.004	68.63	-0.297	-0.0424	0.2546	1264.4818	0.101485	-429.046174	-429.037921	-429.036977	-429.080786	27.848	
C	 0.0482443739	 1.4632403625	-0.0108736776	-0.480096
C	 0.0207399019	-0.0248403842	-0.0145904665	 0.397301
N	 0.0724877613	-0.7714327154	-1.1125564744	-0.284733
N	 0.0175629138	-1.9984947579	-0.6032069958	 0.142973
C	 0.0565563618	-3.2043417743	-1.4072976652	-0.275552
C	 1.3794882678	-3.4542196441	-1.990048146	 0.288477
N	 2.4104668221	-3.6720382595	-2.4605267722	-0.282726
N	-0.0624136806	-2.0317512541	 0.7242020052	-0.112506
N	-0.0646996243	-0.7877429448	 1.1114268598	-0.246929
H	 0.9085300481	 1.8286991182	 0.5572219042	 0.156772
H	 0.1112149647	 1.8401171274	-1.0324027851	 0.151803
H	-0.852514307	 1.8632546229	 0.4633812401	 0.154035
H	-0.221859867	-4.0295344975	-0.7479367928	 0.200397
H	-0.6843049866	-3.1227027192	-2.2072950935	 0.190783
43.3742	54.1624	83.1326	219.1578	264.8729	323.491	366.7904	410.3759	485.4658	667.6078	707.3644	736.2556	816.2566	943.3109	954.6799	999.1338	1043.6259	1072.1857	1100.0819	1168.7749	1261.6349	1336.2851	1377.2459	1399.3596	1403.6973	1431.4174	1450.1254	1477.6261	1483.0401	1552.0929	2376.8712	3055.6094	3078.5632	3115.6646	3134.3133	3153.3053
CC1=NN(CC#N)N=N1	Cc1nn(CC#N)nn1	
InChI=1S/C4H5N5/c1-4-6-8-9(7-4)3-2-5/h3H2,1H3	InChI=1S/C4H5N5/c1-4-6-8-9(7-4)3-2-5/h3H2,1H3
