19
gdb 33501	2.66215	1.24393	0.94037	1.8772	82.51	-0.2312	0.0367	0.268	1280.324	0.15814	-381.968617	-381.959567	-381.958623	-382.002766	33.988	
C	-0.3359946516	-1.1461477482	 0.3442442877	-0.471453
C	-0.2332921164	 0.045542003	 0.2135492563	 0.304557
C	-0.0943749641	 1.4718934774	 0.0564954061	 0.145424
C	-1.2237749549	 2.1977294123	-0.6571534971	-0.213069
N	-1.4188945325	 1.6981492306	-2.01076417	-0.057306
C	-2.4284828667	 0.6581202962	-2.1855679629	-0.210282
C	-2.6872353763	 2.0506701711	-2.6408273936	-0.223723
C	 0.6788393481	 2.1943492179	 1.1163597524	-0.272547
N	 1.2595364019	 2.0117016639	-0.216142789	-0.334521
H	-0.4294480689	-2.1978682997	 0.4573010856	 0.197572
H	-2.142041985	 2.1240896933	-0.0453143332	 0.08342
H	-0.945203187	 3.2543561845	-0.7219518153	 0.113228
H	-2.1809631687	-0.1221851647	-2.8988991195	 0.117642
H	-2.9639656564	 0.313440394	-1.3029454763	 0.112505
H	-3.3999800531	 2.6371304344	-2.0621201334	 0.105825
H	-2.633552781	 2.3119607823	-3.6937656216	 0.116891
H	 0.4047444397	 3.2174843209	 1.3608571849	 0.121248
H	 1.0559622831	 1.6076558139	 1.9484803525	 0.123234
H	 1.9354880598	 1.2520744269	-0.2031182836	 0.241351
63.4069	88.4312	136.6194	182.4195	230.1636	286.0858	346.6332	412.4952	420.4726	551.7466	565.2487	594.5147	657.4414	724.7967	767.1979	826.0251	841.4874	902.6329	922.8041	936.4338	984.6039	1021.6043	1031.4139	1053.5898	1086.2725	1113.0551	1116.6503	1138.6577	1170.8701	1184.8825	1254.9707	1275.7525	1321.9588	1325.6575	1353.2669	1401.3272	1474.9155	1493.5395	1506.4747	1522.1273	2230.9784	2931.0447	3075.2097	3092.0974	3102.9718	3110.1212	3177.4856	3193.8758	3200.8857	3501.8691	3510.2149
C#CC1(CN2CC2)CN1	C#C[C@@]1(CN2CC2)CN1	
InChI=1S/C7H10N2/c1-2-7(5-8-7)6-9-3-4-9/h1,8H,3-6H2	InChI=1S/C7H10N2/c1-2-7(5-8-7)6-9-3-4-9/h1,8H,3-6H2/t7-/m0/s1
