18
gdb 39037	3.14281	1.6914	1.27156	2.0975	77.04	-0.2306	0.0026	0.2331	999.2091	0.150584	-401.925595	-401.918637	-401.917692	-401.956865	27.987	
C	-0.0248666048	 1.4875491705	-0.0558561397	-0.196864
O	 1.143866735	 1.8650444751	 0.6871758384	-0.27309
C	 2.1979659553	 0.9097834325	 0.4854417336	-0.172798
C	 1.5064145361	-0.3468195957	-0.0097606293	 0.266625
N	 2.0691930598	-1.2233913031	-1.0443895291	-0.373326
C	 1.5704199025	-1.8230724043	 0.2026028861	-0.107414
C	 0.1222095372	-2.3317029326	 0.2246207967	-0.280633
C	-0.7197596789	-1.0839504345	-0.0140371726	-0.267521
C	 0.0565870288	-0.0040673193	-0.095280849	 0.299249
H	-0.8968339992	 1.8851006781	 0.4705411261	 0.122793
H	-0.0020512042	 1.9273369612	-1.067448573	 0.10195
H	 2.915060315	 1.2684381355	-0.2660058175	 0.108241
H	 2.7202831806	 0.7928634526	 1.4398507586	 0.115949
H	 1.4016534639	-1.3545712637	-1.8039619862	 0.222777
H	 2.3234921911	-2.319161118	 0.806576167	 0.098781
H	-0.0439947955	-3.1199225135	-0.5222698033	 0.115578
H	-0.1216573639	-2.7775427759	 1.1976953161	 0.119723
H	-1.8016198889	-1.1136242751	-0.074179223	 0.09998
118.289	194.3263	265.2451	292.7021	397.3748	444.1108	557.9871	601.8241	637.1686	758.1936	772.981	799.4609	828.5843	851.896	908.792	920.5302	964.6652	985.124	1030.1351	1049.9905	1059.3077	1083.5869	1094.4313	1134.3288	1153.7919	1201.0933	1217.2923	1225.026	1250.8302	1287.5556	1303.4255	1330.9187	1338.1249	1386.4313	1429.8322	1471.2385	1503.6924	1516.7188	1730.389	2955.9915	3007.5301	3017.8179	3045.9821	3074.9649	3086.353	3160.476	3196.0818	3456.2563
C1OCC23NC2CC=C13	C1OC[C@@]23N[C@@H]2CC=C13	
InChI=1S/C7H9NO/c1-2-6-7(8-6)4-9-3-5(1)7/h1,6,8H,2-4H2	InChI=1S/C7H9NO/c1-2-6-7(8-6)4-9-3-5(1)7/h1,6,8H,2-4H2/t6-,7+/m1/s1
