20
gdb 19528	3.33923	1.71676	1.63252	1.002	74.33	-0.2341	0.0784	0.3126	930.8926	0.178806	-348.99401	-348.986251	-348.985307	-349.026078	29.496	
C	-0.4685412148	 0.9918620365	-0.0385228799	-0.23508
O	 0.4034925149	-0.102685086	-0.2359080711	-0.235268
C	 0.9047329061	-0.6117787605	 0.9619951161	 0.128282
C	 0.1851771808	-1.6747063314	 1.7622731881	-0.095863
C	-0.9488067224	-2.4563374816	 1.1082469493	-0.211164
C	-0.4124149862	-2.9190685249	-0.2683310294	-0.209614
C	 1.127263161	-2.9668286224	-0.1219132323	-0.204046
C	 1.4716632965	-1.9964179526	 1.0013403049	-0.105393
H	 0.045172182	 1.8303067175	 0.4570762199	 0.105211
H	-0.8060831289	 1.3189101086	-1.0248513532	 0.12499
H	-1.3415148861	 0.7161324315	 0.5696748776	 0.111416
H	 1.4369057236	 0.1370006199	 1.5536228924	 0.077351
H	 0.1781918782	-1.5742467589	 2.8430823184	 0.075526
H	-1.1820628569	-3.3194031142	 1.7432734148	 0.096897
H	-1.873841704	-1.8772756551	 1.0123304122	 0.094555
H	-0.8281869111	-3.8856708941	-0.5668820866	 0.086645
H	-0.6823591162	-2.1904225179	-1.0331594489	 0.117864
H	 1.4598747524	-3.9686932825	 0.1742355193	 0.094747
H	 1.6336458884	-2.7238991715	-1.0614907805	 0.103664
H	 2.4165343527	-2.1339719304	 1.5169867591	 0.079278
98.2643	138.4677	171.3258	216.4248	244.433	317.255	509.3455	518.0091	659.6496	711.8696	757.8762	790.4395	814.5093	885.5232	887.1113	922.5385	983.9973	1004.5734	1044.4031	1050.3645	1089.6626	1101.8956	1116.2838	1122.5954	1182.1367	1188.8704	1206.4133	1215.8863	1253.7047	1263.0291	1316.4534	1321.9884	1333.5657	1362.0776	1368.2314	1436.5473	1483.9511	1485.4711	1486.8276	1491.2303	1509.1946	1512.4684	2980.4267	3029.5497	3033.3598	3034.1858	3064.098	3067.0416	3068.3206	3075.6006	3116.7985	3129.4894	3150.9402	3161.925
COC1C2CCCC12	CO[C@H]1[C@H]2CCC[C@@H]12	
InChI=1S/C7H12O/c1-8-7-5-3-2-4-6(5)7/h5-7H,2-4H2,1H3	InChI=1S/C7H12O/c1-8-7-5-3-2-4-6(5)7/h5-7H,2-4H2,1H3/t5-,6+,7-
