21
gdb 122085	3.14638	0.73774	0.62502	2.7397	81.13	-0.2339	0.0138	0.2477	1839.7437	0.180716	-420.398165	-420.387163	-420.386219	-420.435403	37.621	
C	 0.6284242492	 0.9485145039	-0.9847623507	-0.391005
C	-0.1276978594	 0.1823397783	 0.095883855	-0.099488
N	 0.7979293117	-0.5466277943	 0.9608492779	-0.30939
C	 0.1363330614	-1.3348951143	 1.9843551229	-0.158214
C	 1.1623224957	-1.9274257017	 2.9618601634	-0.008668
O	 0.4548773693	-2.6227515863	 3.9571449214	-0.230538
C	 1.2546184795	-3.058571299	 5.0432841196	-0.248937
C	 2.1101858949	-2.8183456954	 2.247591238	 0.262514
N	 2.8379121185	-3.5156108337	 1.6814521287	-0.333869
H	 1.176675069	 0.2641621653	-1.6423371449	 0.118164
H	-0.0629774977	 1.523227586	-1.6077086737	 0.11789
H	 1.3506521929	 1.6362987823	-0.5359897313	 0.128611
H	-0.6891267293	 0.8849819561	 0.7253162553	 0.104368
H	-0.8782177634	-0.4805974467	-0.3736871021	 0.082553
H	 1.3788496812	-1.1530358053	 0.3877075396	 0.228502
H	-0.513957766	-0.6798390247	 2.5736986979	 0.120712
H	-0.4927982021	-2.1562079062	 1.5998980946	 0.106435
H	 1.7539290556	-1.1034775678	 3.3903318655	 0.121783
H	 0.5815812327	-3.5431264116	 5.7527988513	 0.139369
H	 2.0180994577	-3.7793174417	 4.7213000663	 0.134833
H	 1.7522929787	-2.2116802932	 5.5380345752	 0.114374
52.0371	76.557	89.349	105.5567	144.6403	171.1908	208.7728	256.1981	257.3866	271.3702	325.8101	415.3163	484.2251	587.7014	619.8941	788.1234	808.447	822.7013	919.1974	990.6199	1035.3205	1050.172	1086.9088	1139.6117	1156.1293	1166.1919	1174.937	1185.1093	1220.9399	1256.6391	1305.5898	1316.8809	1359.2103	1368.6971	1403.0061	1421.9744	1480.3169	1485.7008	1489.4146	1497.9543	1507.7883	1508.355	1512.6195	1526.7117	2348.0792	2928.4138	2957.8363	2991.7737	2996.2299	3031.5234	3037.4917	3053.3384	3073.3572	3103.0237	3121.5393	3133.273	3497.9902
CCNCC(OC)C#N	CCNC[C@@H](OC)C#N	
InChI=1S/C6H12N2O/c1-3-8-5-6(4-7)9-2/h6,8H,3,5H2,1-2H3	InChI=1S/C6H12N2O/c1-3-8-5-6(4-7)9-2/h6,8H,3,5H2,1-2H3/t6-/m0/s1
