21
gdb 116358	2.35122	1.41673	0.93312	0.667	82.07	-0.2346	0.0212	0.2558	1294.6531	0.181877	-424.222037	-424.212555	-424.211611	-424.256619	34.741	
C	 0.0620508969	 1.4058784936	 0.0245271513	-0.233889
O	-0.0717679664	 0.0046431242	-0.0637988125	-0.248256
C	 0.6126481565	-0.5875079305	-1.1609575903	 0.018321
C	 2.109482528	-0.7528643656	-0.8529306957	-0.105491
O	 2.745132705	-1.5361282326	-1.8417402683	-0.246476
C	 2.2702726661	-2.8697291194	-1.8574190407	-0.122063
C	 0.7753782084	-2.9722790429	-1.7492649377	-0.176598
C	-0.0107618068	-1.9408032079	-1.4386893375	 0.300026
C	-1.5089355197	-2.032756111	-1.3650646748	-0.477574
H	 1.0917223568	 1.7226993621	 0.2444030223	 0.109759
H	-0.2595684246	 1.9021870407	-0.9042556402	 0.106502
H	-0.5823585187	 1.7379448968	 0.8424225017	 0.128242
H	 0.4920600977	 0.0561773627	-2.0506395452	 0.075065
H	 2.6268064168	 0.2103176763	-0.8459015677	 0.102236
H	 2.205078857	-1.204639974	 0.1476710544	 0.095894
H	 2.6174219996	-3.3045757626	-2.8025499321	 0.116124
H	 2.7449330965	-3.4545005004	-1.0470075691	 0.097845
H	 0.3465514867	-3.9533611015	-1.9423798605	 0.08505
H	-1.8540258427	-3.0422658872	-1.6032204206	 0.113801
H	-1.8690526991	-1.7575227392	-0.369611088	 0.142366
H	-1.9800464942	-1.3350650815	-2.0697515488	 0.119113
62.6249	84.082	167.1078	182.4934	212.1223	251.3343	294.0333	305.6451	367.3935	437.0929	448.4331	504.5168	580.4182	733.3575	777.9691	833.4407	900.9486	981.8963	1016.2995	1024.9536	1042.1617	1057.5424	1074.2341	1100.4009	1147.3155	1170.9961	1181.3742	1204.8214	1222.1101	1243.9654	1297.4359	1330.8719	1336.7703	1373.2534	1388.7717	1406.9879	1422.3802	1472.8881	1476.9226	1488.5801	1491.7063	1492.5991	1502.5401	1509.8825	1745.2835	2929.3566	2939.9985	2979.1264	2982.1976	3023.7251	3028.1976	3045.4824	3085.7498	3090.389	3111.7545	3120.793	3150.2331
COC1COCC=C1C	CO[C@H]1COCC=C1C	
InChI=1S/C7H12O2/c1-6-3-4-9-5-7(6)8-2/h3,7H,4-5H2,1-2H3	InChI=1S/C7H12O2/c1-6-3-4-9-5-7(6)8-2/h3,7H,4-5H2,1-2H3/t7-/m0/s1
