19
gdb 62935	2.60112	1.67732	1.51976	2.0935	70.34	-0.2381	0.0689	0.307	971.3033	0.159041	-460.135203	-460.127086	-460.126142	-460.167156	32.141	
C	-0.1080482582	 1.6150547537	-0.0100562231	-0.495073
C	 0.0394071841	 0.1020236808	 0.0008534044	 0.437986
O	-1.2280854713	-0.5262899964	-0.0868031747	-0.479294
C	 1.0959029948	-0.6253023337	-0.8864331203	-0.003702
C	 2.4353573619	 0.0983304423	-0.9065180907	-0.07955
O	 2.7098660293	 0.703157224	 0.3574718419	-0.277413
C	 2.1097308806	 0.0757943083	 1.4916041581	-0.083078
C	 0.8276230734	-0.6461180152	 1.1042539984	 0.025375
O	 1.212096078	-1.6588393335	 0.1305991805	-0.302148
H	 0.8485622015	 2.123265169	 0.1141415383	 0.150687
H	-0.5492258333	 1.9423654232	-0.960395288	 0.106419
H	-0.7882498752	 1.9234148699	 0.789942325	 0.127906
H	-1.6721744042	-0.1878553138	-0.8718252551	 0.27553
H	 0.7910555276	-1.013929249	-1.8632853211	 0.076592
H	 3.2162937988	-0.6320179485	-1.1645827007	 0.108628
H	 2.4553390725	 0.9072335088	-1.6463782879	 0.103965
H	 2.7954480707	-0.6605871251	 1.9352817569	 0.109293
H	 1.9282047882	 0.8709328742	 2.2239737559	 0.107288
H	 0.2688978907	-1.0516511391	 1.9516826822	 0.090588
198.3682	205.5801	220.9409	227.9104	254.6284	292.9795	391.4717	428.1658	435.0607	440.4621	604.6454	639.5955	724.4964	846.2569	862.7061	884.6172	893.5496	966.0988	971.2733	972.4461	1020.7323	1028.7863	1081.9318	1116.0846	1148.0423	1171.1564	1193.8447	1216.6157	1247.5513	1267.5855	1284.6009	1318.2668	1335.6336	1367.6908	1389.2408	1406.7963	1425.4781	1485.7969	1488.4759	1500.3391	1508.8757	2997.004	3004.0374	3025.5558	3057.8731	3062.6921	3068.1656	3088.7929	3092.279	3146.0059	3803.7973
CC1(O)C2COCC1O2	C[C@@]1(O)[C@H]2COC[C@@H]1O2	
InChI=1S/C6H10O3/c1-6(7)4-2-8-3-5(6)9-4/h4-5,7H,2-3H2,1H3	InChI=1S/C6H10O3/c1-6(7)4-2-8-3-5(6)9-4/h4-5,7H,2-3H2,1H3/t4-,5+,6-
