13
gdb 5653	5.21099	2.19103	1.55728	1.5811	65.75	-0.2088	-0.0251	0.1837	752.0293	0.098338	-361.491674	-361.486168	-361.485223	-361.521115	21.761	
C	-0.064937817	 1.5020929053	 0.0107444533	-0.410963
C	 1.4192747704	 1.8651900104	-0.001771642	-0.077474
C	 2.2083588969	 0.7653150974	-0.0150125559	-0.213652
C	 1.3081905331	-0.3692635471	-0.0121281368	 0.317572
C	 0.0062150962	 0.0073878385	 0.002390745	 0.235393
N	-0.8030601525	-1.1113765162	 0.0044557579	-0.338692
C	 0.0506604145	-2.0910313568	-0.0088376124	 0.028075
O	 1.3753614067	-1.7236253591	-0.0197472388	-0.199675
H	-0.5671748791	 1.9103256042	 0.8968779576	 0.14238
H	-0.5842048083	 1.9193326732	-0.8612644225	 0.142378
H	 1.7676872174	 2.8892694037	 0.0001024029	 0.109032
H	 3.2884830451	 0.7391782795	-0.0255836405	 0.117703
H	-0.1454100335	-3.151081933	-0.0123885777	 0.147923
196.7687	278.2413	429.118	443.1348	638.5538	645.6428	674.6987	724.0546	732.4983	793.0302	864.4877	918.6325	926.3714	933.0998	949.2277	1066.2913	1067.637	1126.1316	1148.9185	1221.5587	1267.9701	1322.0021	1373.5717	1429.1146	1459.3551	1505.0738	1549.8804	1621.5574	3038.3398	3068.8219	3222.1925	3245.4131	3284.0915
C1C=CC2=C1N=CO2	C1C=Cc2c1nco2	
InChI=1S/C6H5NO/c1-2-5-6(3-1)8-4-7-5/h1,3-4H,2H2	InChI=1S/C6H5NO/c1-2-5-6(3-1)8-4-7-5/h1,3-4H,2H2
