17
gdb 108547	2.78622	1.65599	1.2436	0.2298	66.68	-0.2415	0.0585	0.3	1002.3509	0.136178	-458.880903	-458.87352	-458.872576	-458.912826	28.88	
O	 0.0878835422	 1.4011986743	 0.0555136019	-0.416
C	 0.0091982915	-0.0079667853	-0.1311785882	-0.195058
C	-1.4113873682	-0.5113588439	-0.0933882801	 0.273251
C	-2.4472350938	 0.0110630991	-1.0778354147	-0.143915
O	-3.6304059125	-0.7215703516	-0.6820303456	-0.275626
C	-3.167117227	-1.5030888066	 0.382051461	 0.105462
C	-1.7242549896	-2.0326257927	 0.1232051553	-0.03826
O	-1.407324948	-1.941509573	 1.5516690639	-0.316771
C	-2.1622030944	-0.7180507082	 1.2737245882	-0.032387
H	-0.1292122806	 1.5867804549	 0.974580863	 0.286689
H	 0.4506295977	-0.2006181798	-1.115550496	 0.113172
H	 0.600318904	-0.5555009988	 0.6150497007	 0.113926
H	-2.6221932295	 1.0874197597	-0.9847094166	 0.121592
H	-2.2021788683	-0.2180043308	-2.1220767937	 0.110449
H	-3.9405496413	-2.1363151082	 0.8104786762	 0.106585
H	-1.3679202638	-2.9015466313	-0.4302404146	 0.096056
H	-2.3336003184	-0.0193065079	 2.0935243093	 0.090834
93.4537	161.2269	254.7825	287.9519	314.5073	390.055	432.1802	543.4476	670.1919	695.3492	715.2521	777.3663	816.7767	879.5554	886.5606	926.908	943.0383	962.8223	1038.6002	1050.2259	1082.2838	1092.3056	1098.4987	1149.0734	1157.0865	1168.6442	1193.463	1211.9754	1250.1634	1270.5749	1291.7615	1335.2533	1386.5503	1398.1623	1413.2091	1497.8856	1520.973	3017.4471	3031.6037	3070.7015	3082.2709	3110.8233	3120.7431	3163.5973	3819.8342
OCC12COC3C1OC23	OC[C@@]12CO[C@H]3[C@@H]1O[C@@H]23	
InChI=1S/C6H8O3/c7-1-6-2-8-3-4(6)9-5(3)6/h3-5,7H,1-2H2	InChI=1S/C6H8O3/c7-1-6-2-8-3-4(6)9-5(3)6/h3-5,7H,1-2H2/t3-,4-,5+,6+
