14
gdb 128191	7.13823	0.8761	0.7855	7.245	73.93	-0.2318	-0.0427	0.1891	1369.1513	0.101365	-432.868649	-432.860343	-432.859399	-432.902008	29.251	
C	-0.102979472	 1.4645251525	 0.0823472209	-0.33593
N	-0.0202365375	 0.0226031062	-0.108384143	-0.402344
C	-1.1191676784	-0.7695974858	-0.0403799937	 0.558265
C	-1.2933279412	-2.1308006273	 0.0290587299	-0.480773
C	-2.7029990582	-2.2636132085	 0.0094071774	 0.312813
N	-3.3407528158	-1.1086430076	-0.0602828199	-0.212444
O	-2.3142136082	-0.1565781007	-0.0869464606	-0.207391
C	-3.4470323837	-3.4801194474	 0.0565889807	 0.252495
N	-4.0125418328	-4.4875853763	 0.0973580557	-0.324646
H	 0.8701098668	 1.8992253228	-0.1517821221	 0.139401
H	-0.843012279	 1.8836600669	-0.6021682912	 0.164972
H	-0.3825730249	 1.7438939449	 1.1064493616	 0.138883
H	 0.8424109528	-0.4235250852	 0.1569751101	 0.263634
H	-0.550590418	-2.9068894945	 0.0767858642	 0.133065
73.7484	119.447	141.5662	165.3258	228.5233	311.7042	392.5327	454.0117	512.5816	559.495	609.1287	686.5848	716.0809	737.2766	757.3949	941.4384	997.6287	1028.6106	1072.2635	1144.4409	1156.5196	1199.3535	1345.4053	1422.0435	1454.8504	1486.8866	1493.9452	1512.0212	1520.8454	1667.888	2366.3505	3021.4321	3107.5288	3147.3127	3294.8002	3647.3393
CNC1=CC(=NO1)C#N	CNc1cc(no1)C#N	
InChI=1S/C5H5N3O/c1-7-5-2-4(3-6)8-9-5/h2,7H,1H3	InChI=1S/C5H5N3O/c1-7-5-2-4(3-6)8-9-5/h2,7H,1H3
