19
gdb 63617	3.48679	1.00501	0.90991	3.4514	80.11	-0.2451	-0.0718	0.1733	1342.7035	0.156747	-419.198578	-419.188873	-419.187929	-419.233194	35.23	
C	 0.269776604	 1.3008101868	 0.3431922206	-0.439593
C	 0.0031004682	-0.163275843	 0.0548568715	 0.316843
C	-1.422936813	-0.6178061506	 0.293855766	-0.444396
C	 0.810129907	-0.8372502603	-1.0237863126	-0.300399
N	 1.0172376817	-1.1555966195	 0.3846432958	-0.10659
C	 2.1919874895	-0.9425589358	 1.0835662912	 0.238264
N	 2.2643651103	-0.254037787	 2.1545051959	-0.489383
C	 3.3733283036	-1.7229151921	 0.5365394453	 0.114799
O	 4.4654448895	-1.6705723839	 1.0402477461	-0.240469
H	 1.2933571378	 1.5869304106	 0.0930187037	 0.123124
H	-0.416220685	 1.918893377	-0.2456280934	 0.116846
H	 0.1165528485	 1.5209840839	 1.4025745446	 0.149936
H	-2.1147213788	-0.0638048378	-0.349362884	 0.120474
H	-1.5322763069	-1.6855602528	 0.0896712851	 0.125412
H	-1.7111458827	-0.4382246615	 1.3346855423	 0.134402
H	 0.3698362773	-1.6272348157	-1.6271057571	 0.122775
H	 1.5651594341	-0.2381980761	-1.5293637045	 0.123882
H	 3.2188028927	-0.3377249818	 2.5164786377	 0.238127
H	 3.1661366821	-2.3524023104	-0.3535092041	 0.095945
64.0524	112.0419	147.8806	180.148	194.8961	222.6651	269.7212	342.0887	361.727	385.4083	400.8162	514.4479	570.4993	613.864	738.6728	820.7433	890.2604	901.9141	922.1911	964.9416	987.6365	1026.701	1036.387	1040.5087	1107.0716	1133.0762	1146.0196	1215.9518	1289.9489	1341.2755	1395.0491	1410.5687	1421.782	1452.576	1474.5569	1482.0424	1493.0737	1503.314	1515.5593	1685.1843	1824.8992	2922.3169	3037.199	3045.7822	3094.663	3104.0421	3116.493	3125.1293	3133.4347	3183.996	3438.8199
CC1(C)CN1C(=N)C=O	CC1(C)CN1[C]([NH])C=O	
InChI=1S/C6H10N2O/c1-6(2)4-8(6)5(7)3-9/h3,7H,4H2,1-2H3	InChI=1S/C6H10N2O/c1-6(2)4-8(6)5(7)3-9/h3,7H,4H2,1-2H3
