18
gdb 36093	3.61729	1.20067	1.10577	4.9499	75.05	-0.2599	0.03	0.2899	1137.5522	0.149106	-401.949266	-401.94159	-401.940646	-401.981804	29.77	
N	-0.0576310066	-1.1464307168	-0.3521532659	-0.312318
C	-0.0281902497	-0.0026539468	-0.1929015787	 0.276338
C	 0.012489399	 1.4435864158	 0.0238992059	-0.451848
C	 1.4227853394	 2.0007482308	 0.0644593281	 0.425708
C	 1.7124820956	 3.5179800479	 0.1562775801	-0.283338
C	 2.9624426707	 3.0037759542	-0.5912780354	 0.07804
C	 3.7149301116	 2.1728885857	 0.4681734621	-0.21644
C	 2.4836229873	 1.3729189288	 1.000323309	-0.263991
O	 2.1135243741	 1.992046235	-1.2239586783	-0.323262
H	-0.5507681729	 1.9388586296	-0.7737552919	 0.161614
H	-0.4918615316	 1.670058231	 0.9707533334	 0.156829
H	 1.0568522395	 4.0985698265	-0.4941584994	 0.111833
H	 1.8248952378	 3.9831486647	 1.1390863876	 0.098564
H	 3.5279174239	 3.6103143723	-1.29712957	 0.086888
H	 4.4662591811	 1.529019757	 0.0077252782	 0.117557
H	 4.1991553913	 2.7900030128	 1.2294600073	 0.102696
H	 2.2712953781	 1.5470560076	 2.0586533824	 0.101997
H	 2.5683771416	 0.2982311339	 0.8310797856	 0.133133
64.2644	112.7967	247.979	282.5645	352.7262	387.0876	430.3313	468.7758	560.3946	655.0756	741.3659	808.1505	827.8859	834.3937	874.627	887.4511	933.7615	950.6247	965.5922	982.4405	1013.4377	1039.544	1098.3056	1134.0151	1159.8054	1185.1943	1227.9867	1237.517	1258.9651	1273.8318	1291.4628	1315.8088	1326.5602	1367.3428	1448.6083	1479.7204	1481.9422	1506.5178	2365.838	3046.237	3064.0755	3065.9193	3075.1173	3090.7902	3117.1466	3132.6219	3135.3555	3141.8628
N#CCC12CC(CC1)O2	N#CC[C@@]12C[C@@H](CC1)O2	
InChI=1S/C7H9NO/c8-4-3-7-2-1-6(5-7)9-7/h6H,1-3,5H2	InChI=1S/C7H9NO/c8-4-3-7-2-1-6(5-7)9-7/h6H,1-3,5H2/t6-,7-/m1/s1
