18
gdb 39353	2.90133	1.79181	1.31087	2.416	70.61	-0.2428	0.0605	0.3033	973.3641	0.150393	-439.054046	-439.04691	-439.045966	-439.085799	27.847	
C	 0.0057776651	 1.5004280158	 0.3159246727	-0.077649
O	 1.2987276607	 1.9964876728	-0.0545136712	-0.280577
C	 2.0083988522	 1.034377231	-0.8171400657	 0.066977
C	 1.9525020034	 1.1804582192	-2.3486170371	-0.104129
O	 2.1008653905	-0.148948876	-2.8517726717	-0.264705
C	 1.5153795267	-1.0800719239	-1.9373624439	-0.17711
C	 1.2834725367	-0.2883506729	-0.6694528935	 0.298613
N	 1.0881101691	-0.7424426677	 0.7062571182	-0.398295
C	 0.010506011	 0.017364722	 0.0158778802	-0.128922
H	-0.1513458798	 1.7335505497	 1.3747374981	 0.116444
H	-0.7829725877	 1.9932904055	-0.271252243	 0.098236
H	 3.0415879701	 1.017133038	-0.4544395441	 0.096448
H	 0.9880889968	 1.6223491694	-2.6454581806	 0.092987
H	 2.7582135298	 1.7838172485	-2.7724527406	 0.115108
H	 0.5847023317	-1.4972021159	-2.3486043644	 0.100645
H	 2.2232958633	-1.9056146407	-1.7902148964	 0.113439
H	 0.8394776583	-1.7307968933	 0.7114141182	 0.233001
H	-0.9157883678	-0.4877902015	-0.2370874852	 0.099487
90.8968	164.3326	198.5232	312.8981	376.6774	419.8576	522.1801	573.7673	668.0558	738.0523	776.1162	855.5165	874.0616	923.5933	930.7963	961.2764	984.6277	1012.3222	1038.5881	1071.6701	1082.6722	1087.4909	1113.0517	1130.5665	1170.9294	1212.2423	1216.969	1229.0729	1268.171	1309.6348	1322.2227	1327.5799	1360.3984	1385.0895	1410.1373	1462.3407	1510.4313	1513.9016	1524.3478	2981.0511	2994.3486	2998.8688	3037.1516	3056.7743	3063.8047	3105.8463	3169.5564	3476.4467
C1OC2COCC22NC12	C1O[C@@H]2COC[C@]32N[C@@H]13	
InChI=1S/C6H9NO2/c1-4-6(7-4)3-8-2-5(6)9-1/h4-5,7H,1-3H2	InChI=1S/C6H9NO2/c1-4-6(7-4)3-8-2-5(6)9-1/h4-5,7H,1-3H2/t4-,5+,6-/m0/s1
