17
gdb 24641	4.44366	1.19311	1.0153	1.2843	82.9	-0.244	-0.0346	0.2094	1174.5634	0.13907	-380.918194	-380.91099	-380.910046	-380.950295	27.696	
C	-0.1458872881	 1.4183033485	-0.1477108511	-0.257209
C	 1.2571531656	 0.9783464319	 0.113298608	-0.257196
C	 0.1478474493	-0.0587606245	 0.0555133968	-0.078812
C	-0.2936602947	-0.7311501494	 1.2966832604	 0.374013
N	-0.2831968878	-0.0190064699	 2.434648045	-0.294905
C	-0.6848760716	-0.6451351051	 3.5378399792	 0.009386
C	-1.0997283695	-1.9722613456	 3.5358891757	-0.14039
C	-1.071800642	-2.6163681517	 2.3051781025	 0.008334
N	-0.6741550941	-2.0135597829	 1.1845577025	-0.294077
H	-0.6709540911	 1.916129252	 0.658954929	 0.131516
H	-0.4206954981	 1.7330885832	-1.1481052978	 0.114434
H	 1.9702828304	 0.9832720666	-0.703290046	 0.114447
H	 1.669669127	 1.1821374422	 1.0943884241	 0.131487
H	 0.1079839857	-0.7021290477	-0.8142341524	 0.099955
H	-0.6739225417	-0.0623475897	 4.4570268168	 0.115534
H	-1.4248774271	-2.4730206354	 4.4393774298	 0.108365
H	-1.3793411319	-3.6560279325	 2.2099664375	 0.115118
68.6447	140.7141	193.7054	304.8999	404.3014	412.3235	551.5576	594.3691	645.026	774.4431	806.5689	814.796	824.8385	835.1513	920.3075	937.127	1004.1872	1005.6467	1010.735	1059.1199	1070.9772	1089.0735	1096.0209	1126.1805	1137.559	1207.4733	1218.1073	1241.4919	1264.9328	1317.6057	1406.6504	1454.6391	1463.822	1477.2249	1492.3186	1597.0217	1623.8047	3139.2892	3141.5293	3146.6769	3148.8411	3196.2347	3211.1624	3226.6988	3240.8885
C1CC1C1=NC=CC=N1	C1CC1c1ncccn1	
InChI=1S/C7H8N2/c1-4-8-7(9-5-1)6-2-3-6/h1,4-6H,2-3H2	InChI=1S/C7H8N2/c1-4-8-7(9-5-1)6-2-3-6/h1,4-6H,2-3H2
