19
gdb 84929	2.45673	1.58535	1.0989	4.099	77.4	-0.2485	0.0032	0.2517	1139.4933	0.160225	-423.070092	-423.061784	-423.06084	-423.102904	31.913	
C	-1.2073451571	 0.5607188795	 0.1506149916	-0.408521
C	 0.2750843249	 0.1904962279	 0.0342769353	-0.189415
C	 0.8579827403	 0.6646214078	-1.2893037482	-0.041234
C	 2.1367833182	 0.6999170376	-1.6624098634	-0.064724
C	 3.3313085561	 0.2526617904	-0.8661700568	-0.257473
C	 2.9985771743	-0.4584583326	 0.4391142458	-0.090231
O	 2.3467263847	 0.4025672322	 1.3782588406	-0.228135
C	 1.0486872224	 0.7678551204	 1.2270158846	 0.431693
O	 0.5633754815	 1.5156097571	 2.0302886986	-0.316626
H	-1.3359972633	 1.6455693747	 0.1264912292	 0.1388
H	-1.768464074	 0.1206102401	-0.6793791602	 0.1087
H	-1.6293584952	 0.1992032985	 1.0902172245	 0.129213
H	 0.3561049659	-0.9037564074	 0.0903366369	 0.111971
H	 0.1138868432	 1.0343626066	-1.9910293009	 0.097408
H	 2.36527564	 1.0992610956	-2.6483964695	 0.094428
H	 3.9443016884	-0.4250550154	-1.4768218498	 0.11477
H	 3.9746928534	 1.1164784772	-0.6470097496	 0.12966
H	 2.4008495801	-1.3580581911	 0.2561022866	 0.115434
H	 3.9158525762	-0.7687307892	 0.9446814847	 0.124282
100.7955	107.1139	224.8148	263.7036	291.7877	311.2585	355.934	414.1134	443.22	546.8934	569.2773	660.9524	697.0491	745.5801	827.3532	854.8298	889.6334	959.6998	1006.3332	1016.6616	1038.4544	1077.5735	1091.6543	1112.4049	1128.9866	1179.8904	1234.5882	1257.7909	1279.2608	1307.5917	1341.4386	1395.3299	1408.0041	1415.1401	1428.4378	1460.7729	1490.3424	1493.7327	1511.418	1726.7669	1842.5657	3005.1382	3009.755	3033.3694	3049.3056	3053.8763	3107.8895	3122.7641	3137.1599	3139.9127	3162.2698
CC1C=CCCOC1=O	C[C@H]1C=CCCOC1=O	
InChI=1S/C7H10O2/c1-6-4-2-3-5-9-7(6)8/h2,4,6H,3,5H2,1H3	InChI=1S/C7H10O2/c1-6-4-2-3-5-9-7(6)8/h2,4,6H,3,5H2,1H3/t6-/m0/s1
