16
gdb 129712	3.03705	1.31952	0.95342	1.2766	68.2	-0.1969	0.0247	0.2217	1178.6673	0.126004	-471.208955	-471.200164	-471.19922	-471.242394	32.409	
N	 0.1021105304	 1.3768309184	-0.1807903151	-0.618148
C	-0.0131837018	-0.0185987968	-0.0653851741	 0.257888
C	-1.0851958737	-0.8851009839	-0.1618482812	 0.159783
O	-2.3879722491	-0.5355756443	-0.3564814764	-0.465569
C	-0.5367301239	-2.1800109767	-0.0171429732	 0.196597
C	-1.3263103637	-3.4492638187	-0.0374939568	-0.19132
O	-2.3954861081	-3.3642376939	-0.9965409943	-0.420577
N	 0.7851766701	-2.1332352921	 0.1525471602	-0.305802
N	 1.0765959938	-0.8190701369	 0.1230638188	-0.232708
H	 0.1636826249	 1.8349256336	 0.7244159421	 0.249414
H	-0.7163098767	 1.7479231628	-0.651138927	 0.257869
H	-2.8425308138	-1.3501669706	-0.6217296412	 0.29824
H	-0.6720409595	-4.3081591157	-0.230455767	 0.123263
H	-1.8314473562	-3.6250366433	 0.9188498696	 0.12799
H	-1.9891088834	-3.2936292806	-1.8679134069	 0.292056
H	 2.0341602906	-0.5167102913	 0.1787262426	 0.271023
91.7108	128.2471	146.2288	209.0782	259.2162	296.2209	340.2712	387.0491	421.5691	474.2719	527.8457	610.6395	625.9774	671.1123	721.746	741.4465	819.66	843.0771	971.372	1022.151	1051.6664	1151.288	1172.6555	1195.8426	1272.8419	1329.0737	1347.746	1366.9369	1409.8093	1449.2963	1498.9894	1512.5638	1555.4259	1650.0203	1687.7335	3029.9157	3071.6536	3489.2971	3578.4679	3675.4673	3703.189	3800.5877
NC1=C(O)C(CO)=NN1	Nc1c(O)c(CO)n[nH]1	
InChI=1S/C4H7N3O2/c5-4-3(9)2(1-8)6-7-4/h8-9H,1H2,(H3,5,6,7)	InChI=1S/C4H7N3O2/c5-4-3(9)2(1-8)6-7-4/h8-9H,1H2,(H3,5,6,7)
