19
gdb 32435	3.09325	1.19697	0.8738	0.8625	79.8	-0.1608	0.0585	0.2193	1320.0815	0.158335	-419.233096	-419.222854	-419.22191	-419.268145	36.717	
C	 0.0062705956	 1.4099100157	 0.0340626032	-0.317186
N	-0.098260856	-0.0358724061	-0.0253033166	-0.382381
C	 0.6002558358	-0.6779376329	-1.0575475441	 0.23237
C	 1.2106951966	-0.1042206078	-2.1479777471	-0.195431
N	 1.6993334874	-1.1462948588	-2.9361652531	-0.318327
C	 1.411721261	-2.3311017994	-2.3380197204	 0.327608
O	 1.8167363097	-3.4701982459	-2.9611446223	-0.439652
C	 0.7235133324	-2.1079940668	-1.1669207291	 0.038601
C	 0.1817545392	-3.1244489119	-0.2107850363	-0.531826
H	 1.0455791069	 1.7783443637	 0.0793316522	 0.101678
H	-0.4604145849	 1.8453731666	-0.8568277214	 0.127421
H	-0.5342451207	 1.7786899339	 0.9095548945	 0.114403
H	 0.075792043	-0.4667246106	 0.8731070207	 0.22624
H	 1.3317399292	 0.921200345	-2.4480145929	 0.106335
H	 2.202305716	-1.0557522665	-3.7998022615	 0.259789
H	 1.5690823174	-4.2174940314	-2.4083320882	 0.302245
H	 0.7434251028	-3.1736492346	 0.7329521575	 0.11698
H	-0.8621903829	-2.9103168568	 0.0481903802	 0.134598
H	 0.1981864516	-4.1355806454	-0.6364267553	 0.096536
71.4998	104.8058	147.2213	170.8285	186.2981	209.0729	243.3724	252.7564	284.2165	351.1944	412.2001	522.852	552.7837	575.5526	632.0391	657.7	707.3363	756.9726	771.0849	940.0933	1054.3811	1060.258	1079.8621	1124.864	1155.8875	1176.7192	1192.3371	1231.6556	1296.3813	1364.8735	1399.667	1420.5766	1454.5351	1475.0908	1477.6029	1495.2191	1507.4584	1523.6962	1567.832	1602.1644	1666.329	2955.6285	2996.3803	3043.9967	3055.0863	3070.449	3110.8275	3287.8477	3558.9341	3702.5824	3841.9315
CNC1=CNC(O)=C1C	CNc1c[nH]c(O)c1C	
InChI=1S/C6H10N2O/c1-4-5(7-2)3-8-6(4)9/h3,7-9H,1-2H3	InChI=1S/C6H10N2O/c1-4-5(7-2)3-8-6(4)9/h3,7-9H,1-2H3
