14
gdb 20384	4.89358	2.05428	1.48325	3.8789	63.31	-0.2031	-0.0067	0.1964	795.4118	0.110815	-378.697632	-378.691723	-378.690779	-378.727672	22.767	
C	 0.0153244445	 1.4453456147	 0.0425337672	-0.166468
C	 1.5135456852	 1.8957262682	-0.0759058656	-0.352962
C	 2.1639918078	 0.5609586923	 0.0741186284	 0.365947
C	 1.2850304986	-0.458487722	-0.0553621769	 0.177192
N	-0.0275202208	-0.0125322642	-0.307968073	-0.411338
C	 2.1029523792	-1.6123346085	-0.0108205284	-0.101008
N	 3.3745185431	-1.2838985757	 0.1412150538	-0.147048
O	 3.4203370434	 0.1174321535	 0.1751073401	-0.223055
H	-0.3221052329	 1.6025096745	 1.0754170753	 0.111323
H	-0.6411044319	 2.0128890148	-0.6208759035	 0.119842
H	 1.7263364423	 2.3389780799	-1.0571039659	 0.133204
H	 1.7799564874	 2.6343742313	 0.6847830987	 0.129995
H	-0.746649499	-0.5023462671	 0.2105160151	 0.235535
H	 1.8478315931	-2.6607759618	-0.0666852854	 0.128841
143.3392	213.9077	311.97	426.8012	574.6695	624.1732	661.3639	701.1357	728.0238	824.0514	856.5875	886.6994	895.2324	938.9439	975.5808	1015.1606	1074.8542	1134.277	1182.6087	1203.9663	1237.5827	1286.5179	1337.1256	1359.9637	1382.5245	1442.1905	1488.5466	1513.5825	1527.7116	1674.464	3014.7825	3025.8301	3086.0057	3100.2355	3246.6027	3545.0856
C1CC2=C(N1)C=NO2	C1Cc2c(N1)cno2	
InChI=1S/C5H6N2O/c1-2-6-4-3-7-8-5(1)4/h3,6H,1-2H2	InChI=1S/C5H6N2O/c1-2-6-4-3-7-8-5(1)4/h3,6H,1-2H2
