17
gdb 35903	3.16859	1.41891	1.09282	2.5724	74.14	-0.2557	0.0328	0.2885	1101.3107	0.135807	-421.767545	-421.759739	-421.758794	-421.799913	30.147	
C	 0.0101440711	-1.1896979909	-0.0745200143	-0.412052
C	-0.0063004945	 0.0072494088	 0.0156025016	 0.297557
C	 0.0078575635	 1.4665706245	 0.0748664299	-0.079377
O	-0.7113451767	 1.8865997874	 1.2227827746	-0.255756
C	-0.6999831202	 3.2970454419	 1.3748281527	-0.069076
C	 0.690849204	 3.8159132688	 1.7539361421	-0.239243
C	 1.7611714096	 3.1879288042	 0.8786560955	 0.038866
O	 2.181735862	 1.8680117657	 1.2523614469	-0.236618
C	 1.4352462505	 2.0113399551	 0.0558723802	 0.02382
H	 0.0210607101	-2.2497485509	-0.1390671354	 0.199494
H	-0.4880847492	 1.8609314033	-0.8328489495	 0.095757
H	-1.0379071109	 3.7765168428	 0.440427572	 0.08957
H	-1.433997493	 3.5231837906	 2.1524024233	 0.114707
H	 0.7159263517	 4.9065008147	 1.6519133558	 0.102569
H	 0.9130759764	 3.5779311248	 2.7994054777	 0.129442
H	 2.5795797668	 3.832827077	 0.5600389013	 0.09681
H	 1.9803570188	 1.8142826822	-0.8675904344	 0.103528
86.6236	135.8073	198.6667	289.7697	339.8752	373.9566	446.853	452.7121	530.36	621.8958	630.597	676.9187	736.537	791.6515	820.6451	889.8055	904.9734	941.5198	994.0957	1047.1024	1052.9532	1072.8838	1108.7159	1134.8527	1167.0469	1250.8577	1280.1182	1288.5346	1328.1047	1344.3075	1362.6266	1371.1798	1418.2284	1462.1175	1471.4693	1499.8805	2247.7561	2920.1602	2963.7881	3043.7953	3086.5279	3097.5078	3105.7861	3118.4342	3504.4122
C#CC1OCCC2OC12	C#C[C@H]1OCC[C@H]2O[C@@H]12	
InChI=1S/C7H8O2/c1-2-5-7-6(9-7)3-4-8-5/h1,5-7H,3-4H2	InChI=1S/C7H8O2/c1-2-5-7-6(9-7)3-4-8-5/h1,5-7H,3-4H2/t5-,6-,7+/m1/s1
