19
gdb 40840	3.9095	1.02332	0.8631	2.18	71.26	-0.2605	0.0844	0.345	1322.4359	0.160684	-460.133669	-460.125685	-460.124741	-460.166773	30.079	
C	 0.2916941745	 1.514197758	 0.0314620765	-0.181337
O	 1.1634130517	 0.4128422	-0.2264423484	-0.239149
C	-0.2162592837	 0.1358076393	 0.0318793848	 0.073615
C	-0.5275200909	-0.6101697179	 1.305649315	-0.038715
C	-2.0161686493	-0.5094535492	 1.6764959742	-0.100729
O	-2.3081836132	-1.3156102373	 2.8072775294	-0.234205
C	-1.9420506996	-2.6528116957	 2.5874850413	 0.014988
O	-0.5695837185	-2.8085125633	 2.3513780652	-0.233996
C	-0.1656800865	-2.1001491052	 1.1888723151	-0.097751
H	 0.4531814472	 2.0244202115	 0.9802275746	 0.117549
H	 0.0952621494	 2.1652689322	-0.8190328385	 0.118026
H	-0.7665775647	-0.1969743209	-0.8515420385	 0.093865
H	 0.0630132268	-0.1804606673	 2.1221974724	 0.09556
H	-2.2970129389	 0.5140059579	 1.9388606106	 0.116014
H	-2.6375442333	-0.8248362244	 0.8192115111	 0.087256
H	-2.176896456	-3.2029610742	 3.5004272679	 0.119941
H	-2.517841187	-3.0606640051	 1.7329253796	 0.072627
H	-0.6523159416	-2.532656089	 0.2963631454	 0.085603
H	 0.9132347835	-2.2363330795	 1.0892592223	 0.130838
68.137	119.6869	168.5379	259.3475	281.962	373.3605	426.9874	455.8646	473.3625	519.574	661.8451	855.1199	876.1954	901.7223	913.6973	951.4753	965.3466	978.9047	1067.218	1077.6594	1085.3025	1129.2231	1149.3461	1160.8396	1180.1117	1184.3339	1208.9683	1236.1184	1266.1529	1291.0666	1323.8193	1328.7915	1347.7617	1381.7941	1419.4111	1444.1231	1451.1253	1493.7309	1494.5084	1509.5197	1530.0587	2907.1027	2946.7902	2955.5314	3055.4159	3081.0822	3085.2966	3091.28	3108.4638	3118.0344	3171.2234
C1OC1C1COCOC1	C1O[C@H]1C1COCOC1	
InChI=1S/C6H10O3/c1-5(6-3-9-6)2-8-4-7-1/h5-6H,1-4H2	InChI=1S/C6H10O3/c1-5(6-3-9-6)2-8-4-7-1/h5-6H,1-4H2/t6-/m1/s1
