17
gdb 9361	5.33312	0.94226	0.84313	2.8296	62.69	-0.2564	0.0581	0.3145	1357.0122	0.140876	-438.172512	-438.16288	-438.161936	-438.208682	32.055	
C	-0.2097222072	 1.308927074	 0.0509500873	-0.329505
N	-0.0943168948	-0.1183360017	-0.1589551554	-0.358312
C	 0.658160897	-0.6462904033	-1.1594414284	 0.527319
O	 1.2732994319	-0.0245376103	-1.9960252604	-0.407603
O	 0.6224076894	-2.0076010512	-1.0906592056	-0.295913
C	 1.3718021741	-2.692928972	-2.1093751853	-0.068336
C	 1.1205000227	-4.1739583152	-1.893077582	-0.068366
O	-0.2436689729	-4.5127516201	-2.0487782496	-0.418925
H	 0.3146259498	 1.8036003717	-0.7673012841	 0.171916
H	-1.2578913919	 1.6272472529	 0.0456596159	 0.127395
H	 0.2452011716	 1.6176386205	 0.9995071304	 0.12662
H	-0.5183488197	-0.7600789009	 0.489112308	 0.250808
H	 1.022238881	-2.372387626	-3.0948622921	 0.129538
H	 2.4348920858	-2.4463136139	-2.0192213778	 0.117347
H	 1.6782773451	-4.743660794	-2.643423015	 0.115619
H	 1.4991793198	-4.4663924656	-0.9006188477	 0.093266
H	-0.7377170118	-3.921594695	-1.4702408681	 0.287132
27.5293	64.3401	83.7107	119.9123	152.667	195.4706	290.6055	321.0789	386.8083	456.2975	472.7531	518.6811	721.3464	777.7478	863.1422	898.8403	969.0977	1041.2421	1094.65	1128.978	1159.5408	1169.6493	1176.8015	1230.4599	1250.1658	1264.324	1385.1392	1391.9671	1435.5989	1447.2108	1494.2671	1498.2051	1498.8952	1507.4576	1569.2106	1823.4465	2982.1299	3025.7319	3051.5729	3077.109	3082.5937	3107.0045	3154.3672	3660.8967	3808.9178
CNC(=O)OCCO	CNC(=O)OCCO	
InChI=1S/C4H9NO3/c1-5-4(7)8-3-2-6/h6H,2-3H2,1H3,(H,5,7)	InChI=1S/C4H9NO3/c1-5-4(7)8-3-2-6/h6H,2-3H2,1H3,(H,5,7)
