19
gdb 12079	3.54138	1.75387	1.54078	1.6455	70.91	-0.2296	0.0782	0.3078	920.4676	0.164557	-365.005163	-364.997048	-364.996104	-365.037262	30.857	
C	 0.0146121765	 1.3338361714	 0.1432554889	-0.251993
O	-0.1046023184	-0.0550950868	-0.0788535613	-0.28615
C	 0.6220247047	-0.5628390956	-1.1835850293	 0.41518
C	 0.1339186169	-0.0038652908	-2.5171438355	-0.460371
C	 2.1789173523	-0.6103956123	-1.0488849927	-0.230239
N	 2.1936642585	-2.1122022936	-1.1573279958	-0.129883
C	 1.4200915851	-2.5889085628	 0.003274956	-0.24405
C	 0.6699494095	-2.0876137305	-1.1606870342	-0.070962
H	 1.0659738606	 1.6538676869	 0.2005085269	 0.105569
H	-0.4860854089	 1.9315653562	-0.6310520339	 0.109872
H	-0.464156276	 1.5422664663	 1.1032425663	 0.128608
H	 0.3487639773	 1.0647874367	-2.6127425942	 0.118163
H	 0.627891808	-0.5177326447	-3.34659796	 0.130886
H	-0.946991441	-0.1498015499	-2.6126212582	 0.124193
H	 2.7164552524	-0.1619153501	-1.8870505123	 0.107715
H	 2.5930647778	-0.2376635313	-0.1065408629	 0.103171
H	 1.4730023957	-3.6655382472	 0.132505839	 0.119674
H	 1.4284118796	-2.0108967006	 0.9236576968	 0.120823
H	 0.0896031493	-2.7323387713	-1.8134877135	 0.089791
106.8762	151.1843	184.59	242.0945	254.4791	316.0557	375.4779	439.4118	460.3326	528.9179	630.6236	751.6058	781.5502	843.4375	910.8506	923.8031	945.9333	971.3491	1005.4216	1057.8113	1102.1826	1108.9422	1110.4639	1172.0847	1180.2224	1197.6995	1198.2633	1216.3404	1245.745	1257.0989	1284.1909	1383.9918	1405.0143	1474.959	1482.2839	1486.7258	1491.5419	1502.992	1506.5107	1511.7351	2984.7919	3033.4098	3040.29	3046.9894	3108.2961	3110.5885	3112.4521	3113.2632	3117.8941	3158.6614	3204.6339
COC1(C)CN2CC12	CO[C@@]1(C)CN2C[C@@H]12	
InChI=1S/C6H11NO/c1-6(8-2)4-7-3-5(6)7/h5H,3-4H2,1-2H3	InChI=1S/C6H11NO/c1-6(8-2)4-7-3-5(6)7/h5H,3-4H2,1-2H3/t5-,6-,7?/m0/s1
