21
gdb 103961	2.48566	1.46085	1.14926	2.4768	78.14	-0.2412	0.0656	0.3068	1161.8547	0.181198	-424.183725	-424.174485	-424.173541	-424.217228	35.785	
C	 0.5367685406	 1.7603610485	-0.6472285224	-0.425072
C	 0.536330474	 0.2617132725	-0.4309982287	-0.027022
C	 1.7678353664	-0.5780855462	-0.3550765429	 0.07209
O	 2.8251629212	 0.0826685943	 0.3532833206	-0.343821
C	 2.060806015	-0.0212696992	 1.6107455065	 0.387795
C	 2.6871893818	-1.1012925678	 2.4843833112	-0.42324
C	 2.0396745205	 1.3284194692	 2.3298935188	-0.114485
O	 3.360413822	 1.8192256598	 2.4890584923	-0.42515
C	 0.8364247719	-0.5273831868	 0.8406481582	-0.215888
H	 1.4956087909	 2.200285655	-0.3677696209	 0.132557
H	 0.3705146186	 1.9793896542	-1.7074934051	 0.114791
H	-0.2547853758	 2.2586310274	-0.0779079278	 0.119285
H	-0.250517492	-0.2556045186	-0.9799332876	 0.09216
H	 2.0500697823	-1.3732846029	-1.036194072	 0.101089
H	 3.656294944	-0.7579382965	 2.8538400437	 0.138352
H	 2.0429363551	-1.311097398	 3.3458933188	 0.111781
H	 2.8238775507	-2.026542826	 1.9193957973	 0.117316
H	 1.4087356336	 2.0467626755	 1.7952882334	 0.093322
H	 1.6235379628	 1.2045584254	 3.3356920196	 0.106002
H	 3.7576291729	 1.7985633699	 1.6094888406	 0.293871
H	 0.1582609934	-1.2821125897	 1.2179943866	 0.094266
85.9799	144.1478	174.2561	237.0732	247.221	258.8633	289.1313	357.171	373.4806	451.3558	463.5688	535.1844	630.5538	677.8479	724.1368	816.7592	836.8437	883.766	905.6159	939.2775	973.7268	996.6311	1028.0063	1037.5083	1059.0593	1068.383	1087.6885	1122.5013	1142.2258	1171.7037	1204.1343	1246.9006	1260.6191	1290.6068	1342.2014	1378.4959	1400.875	1409.1502	1429.2734	1441.031	1481.6451	1492.6509	1497.022	1498.293	1517.3387	3035.2677	3036.898	3040.7512	3079.2249	3092.3868	3110.178	3112.4235	3136.0297	3136.755	3170.2492	3193.0974	3783.3504
CC1C2OC(C)(CO)C12	C[C@H]1[C@H]2O[C@@](C)(CO)[C@@H]12	
InChI=1S/C7H12O2/c1-4-5-6(4)9-7(5,2)3-8/h4-6,8H,3H2,1-2H3	InChI=1S/C7H12O2/c1-4-5-6(4)9-7(5,2)3-8/h4-6,8H,3H2,1-2H3/t4-,5+,6-,7+/m1/s1
