17
gdb 124131	3.73713	0.98599	0.78791	2.8762	90.1	-0.2181	-0.0096	0.2085	1437.0421	0.136151	-380.878578	-380.869231	-380.868287	-380.915354	31.821	
C	-0.0824681289	 1.4622936976	-0.0430052655	-0.510161
C	-0.0205796207	 0.0096079745	-0.0370246678	 0.165868
C	 0.039635372	-1.1962356339	-0.0317072581	-0.060296
C	 0.1156300673	-2.6045494945	-0.0248765005	 0.258885
C	 1.2118050711	-3.4603556298	-0.0475072669	-0.341841
C	 0.6588373884	-4.7490224021	-0.0280809099	-0.012045
N	-0.6738071643	-4.7164878942	 0.0048669758	-0.253458
N	-0.9916740386	-3.4124645019	 0.0019245998	-0.049136
C	-2.3790579313	-3.0089808194	 0.0875468181	-0.325106
H	 0.8809137702	 1.8955691081	 0.2471679654	 0.156674
H	-0.3348640604	 1.8496309897	-1.0367007896	 0.153143
H	-0.8371287899	 1.8314605097	 0.6603769031	 0.152816
H	 2.2483347767	-3.169130286	-0.0818780939	 0.108416
H	 1.1690895332	-5.7008144217	-0.0423569684	 0.111201
H	-2.7377652201	-3.0527248275	 1.1212816591	 0.14221
H	-2.4740828167	-1.9868617837	-0.2806429646	 0.148991
H	-2.9782673181	-3.6840810949	-0.524876396	 0.15384
15.885	40.3141	90.1387	107.1909	196.2633	279.3058	281.8965	379.3957	468.1301	476.6954	546.7566	660.5171	693.7416	728.0454	800.6385	888.6185	939.4117	974.9631	1044.9	1051.4091	1052.2441	1078.6481	1150.3017	1196.4007	1250.0309	1321.0392	1365.8415	1413.0655	1422.8061	1451.63	1473.4569	1476.4895	1479.3553	1487.2981	1510.6724	1565.1454	2353.7033	3025.3003	3045.7015	3084.2663	3090.8441	3121.8927	3160.6324	3244.9801	3277.4837
CC#CC1=CC=NN1C	CC#Cc1ccnn1C	
InChI=1S/C7H8N2/c1-3-4-7-5-6-8-9(7)2/h5-6H,1-2H3	InChI=1S/C7H8N2/c1-3-4-7-5-6-8-9(7)2/h5-6H,1-2H3
