19
gdb 125491	5.10724	0.97878	0.8841	1.9676	84.46	-0.2206	0.0273	0.2479	1365.3999	0.160228	-382.081972	-382.073431	-382.072486	-382.116971	31.622	
C	 0.3797590884	 1.4282045807	-0.062844699	-0.489738
C	 0.0728054958	-0.0326930839	 0.0437986851	 0.355779
N	 0.0940380382	-0.8081793758	-1.0414197765	-0.327832
N	-0.221971183	-2.0479767103	-0.6041434302	 0.036025
C	-0.4428675082	-2.0726880203	 0.7333949729	-0.025962
C	-0.2623517424	-0.7852197326	 1.1923897891	-0.31264
C	-0.278938686	-3.1159608088	-1.5595886813	 0.099726
C	 0.1694392093	-4.5067479512	-1.2022368654	-0.285577
C	-1.2969752021	-4.2168696342	-1.4387524184	-0.285593
H	 1.2439610319	 1.7031822586	 0.5520114706	 0.125752
H	 0.6008871999	 1.6865307844	-1.1006462536	 0.137285
H	-0.4640351542	 2.0416247303	 0.2722126943	 0.125788
H	-0.7063838754	-2.981594468	 1.2509351152	 0.127526
H	-0.3584485995	-0.4400203223	 2.2095090493	 0.097362
H	-0.04403346	-2.7290900968	-2.541834174	 0.122617
H	 0.720522069	-5.0707073633	-1.9463603168	 0.125225
H	 0.4905720806	-4.6805966046	-0.1810763604	 0.124519
H	-1.9526701979	-4.1976469985	-0.5751472165	 0.124516
H	-1.7646743845	-4.5794191133	-2.3471996842	 0.125222
13.0499	86.3455	139.5797	177.506	268.0669	304.4171	415.3538	445.4516	612.1162	638.6516	685.8177	690.4823	761.1551	775.6064	809.9431	823.4167	906.9169	942.6239	983.1481	1006.1928	1038.6237	1059.6747	1064.2915	1072.5206	1075.7041	1096.9685	1130.2096	1196.4782	1207.5953	1241.2912	1265.3921	1400.6799	1403.7715	1421.7349	1440.3513	1462.6958	1484.136	1491.3163	1503.6949	1513.0902	1573.014	3033.2639	3083.4244	3130.4405	3136.5255	3139.427	3212.3166	3217.2229	3233.1037	3249.0187	3268.1904
CC1=NN(C=C1)C1CC1	Cc1nn(cc1)C1CC1	
InChI=1S/C7H10N2/c1-6-4-5-9(8-6)7-2-3-7/h4-5,7H,2-3H2,1H3	InChI=1S/C7H10N2/c1-6-4-5-9(8-6)7-2-3-7/h4-5,7H,2-3H2,1H3
