18
gdb 8160	3.65158	1.74062	1.58543	2.6708	66.96	-0.2372	0.0688	0.306	877.1437	0.154388	-384.93439	-384.926937	-384.925992	-384.965465	29.956	
O	-0.6662990953	 1.1405281385	 0.8652380597	-0.424935
C	-0.0229045892	 0.1165176631	 0.106519672	 0.09317
C	 0.8947162006	-0.7832641335	 0.9795331701	-0.242701
C	 0.0205931193	-1.9351078079	 1.4438175579	-0.108763
C	-1.3438855193	-1.6000661656	 2.0289906094	-0.320483
C	-1.2290388616	-1.9572186907	 0.5817625104	 0.419184
O	-1.8633183252	-3.1352886857	 0.1860145143	-0.473625
C	-1.1215987965	-0.8208553586	-0.4275712528	-0.274711
H	 0.019100055	 1.6573239973	 1.3009453628	 0.280136
H	 0.5435055689	 0.5748807065	-0.7159662677	 0.067133
H	 1.7255397066	-1.1648293707	 0.3728290964	 0.095535
H	 1.3389597495	-0.202784142	 1.7985084914	 0.087495
H	 0.4860118566	-2.8627819028	 1.7580006023	 0.081298
H	-1.7852180759	-2.3656406697	 2.6574309516	 0.113732
H	-1.5671032243	-0.5758874289	 2.3026107561	 0.12975
H	-1.3706414521	-3.50420665	-0.5560714817	 0.275125
H	-2.0564769962	-0.2739624075	-0.5787992576	 0.118984
H	-0.8168747107	-1.2366153117	-1.3971754647	 0.083675
157.9199	194.502	301.5745	311.8176	341.0827	393.1633	401.8725	415.2703	459.0509	572.476	687.1685	747.1568	817.1865	837.2659	886.3639	929.7237	942.1736	948.0251	976.4238	1027.6775	1060.9521	1070.4926	1092.0697	1113.8834	1172.6956	1198.0025	1241.536	1252.8104	1260.3341	1295.639	1330.8371	1342.6311	1370.2709	1412.5852	1427.0461	1469.5808	1478.252	1497.4735	2993.3563	3016.3561	3026.9187	3053.3426	3093.9694	3141.3393	3171.2204	3237.3114	3784.6746	3814.9364
OC1CC2CC2(O)C1	O[C@H]1C[C@H]2C[C@@]2(O)C1	
InChI=1S/C6H10O2/c7-5-1-4-2-6(4,8)3-5/h4-5,7-8H,1-3H2	InChI=1S/C6H10O2/c7-5-1-4-2-6(4,8)3-5/h4-5,7-8H,1-3H2/t4-,5-,6+/m0/s1
