15
gdb 29439	3.82392	1.06625	0.83377	2.5504	73.57	-0.184	0.006	0.1899	1292.1118	0.113255	-453.964685	-453.956412	-453.955467	-453.997727	30.734	
O	-0.6932180675	 1.1382409209	-0.0576802229	-0.442286
C	-0.0095051268	-0.0358832384	-0.0510580974	 0.329497
C	 1.2638371099	-0.2003963536	-0.4944908201	-0.135561
O	 1.627472887	-1.5258181803	-0.3328045372	-0.201114
C	 0.5668861061	-2.1594925336	 0.2102809757	 0.497479
N	 0.7771264549	-3.5069352273	 0.4349409725	-0.391747
C	-0.12074542	-4.3935293613	 0.9737969889	 0.077197
N	-1.2947071474	-4.0563278181	 1.3407492451	-0.452281
C	-0.4799235848	-1.3121386502	 0.414238614	-0.443573
H	-1.5690109958	 0.982290587	 0.3069846908	 0.302529
H	 2.0037874261	 0.4511044148	-0.9207162397	 0.133012
H	 1.6857280317	-3.849303609	 0.1686662987	 0.263551
H	 0.3067817162	-5.4000905534	 1.0395613019	 0.09694
H	-1.7898322944	-4.8642289112	 1.7099580633	 0.22501
H	-1.4339501452	-1.5775843462	 0.8341515864	 0.141347
80.6151	156.5865	158.8863	230.5379	283.1791	321.3447	383.6711	439.6084	446.786	554.3827	599.8914	664.2763	687.4982	715.6755	767.6419	795.4874	811.0034	978.9996	1007.4099	1030.4198	1094.1437	1147.6261	1161.3334	1190.4901	1247.2635	1291.7916	1321.1541	1412.3067	1438.8185	1570.7526	1626.3519	1689.8427	1722.58	3058.1947	3294.8467	3309.4971	3520.4516	3656.0587	3845.7073
OC1=COC(NC=N)=C1	Oc1coc(NC=N)c1	
InChI=1S/C5H6N2O2/c6-3-7-5-1-4(8)2-9-5/h1-3,8H,(H2,6,7)	InChI=1S/C5H6N2O2/c6-3-7-5-1-4(8)2-9-5/h1-3,8H,(H2,6,7)
