19
gdb 63558	2.50377	1.48671	1.14701	1.401	78.13	-0.2419	-0.0292	0.2127	1136.7904	0.156389	-423.017387	-423.008202	-423.007258	-423.051004	34.362	
C	-0.1011489272	 1.5051765332	 0.016938085	-0.446481
C	-0.0117311327	-0.0073062528	-0.0357121095	 0.240685
C	-1.1721995441	-0.7155005058	-0.7087319908	-0.461026
C	 1.3630499196	-0.6293761024	-0.144099962	-0.391061
C	 0.6199002416	-0.6855977301	 1.1636158194	 0.29746
O	 1.04227454	 0.007524726	 2.3460906616	-0.316964
C	 0.6027268736	-1.0677723256	 3.2108646686	-0.18985
C	 0.1579233772	-1.8589272444	 1.9679202683	 0.281441
O	-0.3319299083	-2.9271380403	 1.7444755469	-0.302151
H	 0.7253531257	 1.9372694418	 0.585831007	 0.134906
H	-0.0824378192	 1.9240160059	-0.9954387224	 0.11985
H	-1.034971248	 1.8219856561	 0.493773513	 0.121332
H	-1.206484743	-0.4625581663	-1.7748514971	 0.118226
H	-1.0892785078	-1.8014597835	-0.6155582733	 0.14352
H	-2.1262872162	-0.4138182654	-0.26279273	 0.119957
H	 1.4830290573	-1.5607587356	-0.6889051827	 0.129482
H	 2.2214778399	 0.034473181	-0.163045905	 0.130109
H	 1.4247549065	-1.5118894897	 3.7832039138	 0.135864
H	-0.2041923548	-0.763957422	 3.8875391094	 0.134701
109.4366	117.8494	144.7125	197.4783	226.1444	255.8331	307.7093	345.1538	377.195	450.3259	504.4647	550.5949	619.7419	702.6761	734.0424	854.1235	870.4097	913.2913	979.1776	990.0408	1003.5509	1012.692	1016.6956	1041.269	1056.1932	1136.8905	1146.2724	1172.8214	1216.4356	1282.1097	1306.648	1387.2748	1411.2365	1425.5108	1462.6431	1480.9407	1482.7457	1491.242	1500.9619	1513.5832	1903.7073	3027.3342	3032.736	3033.3264	3086.4988	3088.1832	3093.1566	3118.4234	3122.9062	3125.516	3216.8791
CC1(C)CC11OCC1=O	CC1(C)C[C@]21OCC2=O	
InChI=1S/C7H10O2/c1-6(2)4-7(6)5(8)3-9-7/h3-4H2,1-2H3	InChI=1S/C7H10O2/c1-6(2)4-7(6)5(8)3-9-7/h3-4H2,1-2H3/t7-/m0/s1
