18
gdb 88047	2.32915	1.38127	1.10164	3.9073	76.79	-0.2642	0.0261	0.2904	1158.9017	0.147309	-401.932934	-401.924247	-401.923303	-401.966463	32.54	
O	-0.0795377779	 1.366426713	-0.1102569892	-0.419299
C	-0.0235140101	-0.021762691	 0.0269602708	 0.041272
C	-0.5030943197	-0.6715305209	 1.3070244895	-0.399308
C	-1.3428493379	-0.7218764835	 0.0608788886	 0.329158
C	-2.6800981979	-0.0424702501	-0.2458710082	-0.296172
C	-2.8803497959	-1.0575083305	-1.4080255986	-0.227775
C	-1.7340560326	-1.939609147	-0.805604919	-0.225348
C	-0.7362789437	-2.4910521752	-1.7070672912	 0.283121
N	 0.0748076486	-2.908204924	-2.4184875958	-0.339701
H	 0.6508938913	 1.7470085089	 0.3882890896	 0.292964
H	 0.7882002073	-0.5121016927	-0.5109729756	 0.111767
H	-0.0059923979	-1.5765871296	 1.6427844186	 0.120789
H	-0.846033183	-0.012349649	 2.0987300072	 0.119537
H	-3.4153499546	-0.1674378515	 0.554595465	 0.107276
H	-2.6210198155	 1.0121598606	-0.5168993626	 0.132333
H	-3.8528863632	-1.54323197	-1.496325852	 0.115075
H	-2.5958935175	-0.6425054429	-2.3760274824	 0.132528
H	-2.1410374498	-2.7484097445	-0.1898415745	 0.121782
76.3211	109.3015	156.532	209.9226	249.3153	273.7698	345.0978	431.4876	481.6964	507.852	571.6637	580.8236	711.3059	781.1385	819.4683	872.6819	898.8511	944.3865	946.1068	1006.9623	1034.91	1045.0299	1089.7693	1101.1733	1110.24	1171.3312	1194.132	1224.6013	1234.2173	1262.592	1270.005	1293.8117	1341.543	1344.1747	1424.546	1479.5334	1493.5439	1499.5016	2349.8932	3055.9023	3060.9569	3084.4804	3103.8266	3121.041	3127.3037	3146.1965	3211.4405	3810.9187
OC1CC11CCC1C#N	O[C@H]1C[C@]21CC[C@H]2C#N	
InChI=1S/C7H9NO/c8-4-5-1-2-7(5)3-6(7)9/h5-6,9H,1-3H2	InChI=1S/C7H9NO/c8-4-5-1-2-7(5)3-6(7)9/h5-6,9H,1-3H2/t5-,6-,7+/m0/s1
