19
gdb 76948	2.29029	1.26947	1.01026	3.743	78.29	-0.2331	-0.0197	0.2135	1251.6318	0.157295	-423.002566	-422.993393	-422.992449	-423.037024	33.152	
C	-0.0091358341	 0.7386938869	-2.3498940133	-0.419216
C	-0.0129525384	-0.3021758284	-1.2498772267	-0.112724
C	 1.2438783441	-0.6379087195	-0.4095280226	-0.210518
C	 2.5157058921	 0.0923767888	-0.5604559934	 0.159341
O	 3.6072418187	-0.3901498218	-0.3667748523	-0.273477
C	 0.0183100268	 0.0585886534	 0.180655253	 0.434732
C	-0.0783947483	 1.4088702384	 0.8888630767	-0.361448
C	-0.8630920192	 0.6049293321	 1.9485726951	-0.075157
O	-0.7706893036	-0.605541143	 1.1557667542	-0.2985
H	 0.4774803234	 1.667878324	-2.0408513892	 0.124202
H	 0.5094625024	 0.3729126602	-3.2417858365	 0.13317
H	-1.0365554464	 0.986615082	-2.6366354318	 0.127867
H	-0.6002916273	-1.1909142229	-1.4669142215	 0.113069
H	 1.3588421139	-1.6791637517	-0.1261502634	 0.117004
H	 2.4174907782	 1.1610419202	-0.8592149321	 0.06175
H	 0.8595243867	 1.8505299078	 1.2266316671	 0.126989
H	-0.6631672288	 2.160538199	 0.3548064742	 0.12172
H	-0.3621704134	 0.4912838426	 2.9158772476	 0.116716
H	-1.9045140568	 0.9011776719	 2.108871245	 0.114478
65.3726	98.4768	140.3234	182.6487	188.3457	223.7734	247.3123	408.0329	427.1381	477.0578	519.795	569.8291	750.9584	798.4744	871.9672	901.4976	919.1687	964.9216	994.3757	1013.8482	1029.7201	1049.6235	1098.55	1102.6648	1123.5748	1161.0535	1166.9916	1201.1593	1216.777	1248.8026	1287.2191	1329.6931	1361.4175	1416.321	1438.566	1456.4433	1489.3294	1494.6016	1505.2608	1532.3585	1802.8416	2861.3908	3037.023	3037.7184	3078.8897	3085.1859	3100.0559	3109.802	3136.39	3146.459	3175.1348
CC1C(C=O)C11CCO1	C[C@H]1[C@@H](C=O)[C@]21CCO2	
InChI=1S/C7H10O2/c1-5-6(4-8)7(5)2-3-9-7/h4-6H,2-3H2,1H3	InChI=1S/C7H10O2/c1-5-6(4-8)7(5)2-3-9-7/h4-6H,2-3H2,1H3/t5-,6+,7+/m0/s1
