18
gdb 24246	3.80497	1.55165	1.20886	1.6682	82.46	-0.1833	0.0493	0.2326	1025.915	0.151938	-364.840779	-364.834066	-364.833122	-364.871543	28.158	
C	-0.0437638519	 1.4627500791	 0.0997303994	-0.279374
C	 1.2842702559	 0.7536880666	 0.0261274607	-0.014691
C	 2.0477090864	 0.4311660458	 1.3281536634	-0.370254
C	 1.0938390047	-0.4876192131	 2.0524875419	 0.277521
C	 0.000891732	-0.7677728002	 1.2691715963	 0.311794
N	-0.8449058953	-1.5802296405	 1.9712592281	-0.376138
C	-0.2858341055	-1.8292469516	 3.2104546488	-0.080515
C	 0.9159451975	-1.154853797	 3.2946708381	-0.32263
C	-0.0186267982	-0.0514840758	-0.0223137327	-0.195465
H	-0.3647760172	 1.88313075	 1.0474820994	 0.114144
H	-0.3433298228	 2.0336152065	-0.7741452351	 0.104499
H	 1.8623176683	 0.8863968593	-0.8810848127	 0.082883
H	 3.0073496626	-0.0520215019	 1.1018455882	 0.102523
H	 2.2843119511	 1.3431413657	 1.8903455026	 0.106387
H	-1.7302277196	-1.9351795484	 1.6558612273	 0.256672
H	-0.7777575163	-2.4821478493	 3.9138296425	 0.11136
H	 1.5791321892	-1.1681940468	 4.146593579	 0.088236
H	-0.3668055809	-0.5218319086	-0.9358553455	 0.083049
143.571	228.7076	326.7325	406.8156	417.6524	463.4849	586.9996	627.8873	677.5056	690.9795	713.0807	761.5253	788.5122	811.6064	815.649	878.2051	931.7462	958.9705	987.285	1027.2221	1064.5477	1072.7593	1085.2748	1091.5266	1105.1033	1165.6682	1181.1789	1200.1349	1229.7644	1287.1597	1303.9908	1346.6562	1389.4517	1439.0901	1471.821	1483.4316	1493.6729	1528.5461	1604.376	3013.6324	3043.1369	3118.4442	3158.9655	3175.2054	3208.07	3239.1558	3264.6256	3683.3273
C1C2CC3=C(NC=C3)C12	C1[C@H]2Cc3c([nH]cc3)[C@@H]12	
InChI=1S/C8H9N/c1-2-9-8-5(1)3-6-4-7(6)8/h1-2,6-7,9H,3-4H2	InChI=1S/C8H9N/c1-2-9-8-5(1)3-6-4-7(6)8/h1-2,6-7,9H,3-4H2/t6-,7+/m1/s1
