21
gdb 64214	2.95984	1.20277	1.10318	2.717	78.1	-0.2411	0.0775	0.3186	1218.6307	0.180685	-424.192179	-424.182818	-424.181874	-424.226428	34.997	
C	-0.0948118051	 1.5614674635	 0.0703607589	-0.436069
C	 0.0029666744	 0.0403183061	 0.0480519722	 0.416997
C	-1.2549884287	-0.6065421477	-0.5149923557	-0.427126
O	 1.1754998147	-0.380814837	-0.7103164651	-0.322619
C	 1.8176243274	-0.9207191493	 0.4580501477	-0.100883
C	 0.581855595	-0.6419517863	 1.3342222461	-0.123556
C	 0.7536240706	 0.1639505077	 2.5934634204	 0.062126
C	 1.9128406955	-0.0011347671	 3.48117896	-0.188799
O	 1.7979991302	 1.1413158932	 2.6310542419	-0.225238
H	 0.8121513264	 2.009130754	 0.4804615988	 0.146335
H	-0.2343504465	 1.9307409525	-0.9506749155	 0.119662
H	-0.9491685377	 1.8940485963	 0.6704439189	 0.107554
H	-1.4496034863	-0.2401386231	-1.5281446005	 0.123932
H	-1.1442683537	-1.6936999822	-0.5615690633	 0.115364
H	-2.1263444441	-0.370633452	 0.1062895987	 0.111349
H	 2.0945439721	-1.9732723038	 0.3282315201	 0.096772
H	 2.7052258805	-0.3413550205	 0.7390605443	 0.112482
H	 0.0223178153	-1.5490287559	 1.5848987571	 0.080248
H	-0.1766891662	 0.5053390894	 3.0518664987	 0.095489
H	 1.8135446024	 0.1971582085	 4.5471297359	 0.11895
H	 2.700074524	-0.7042827761	 3.2118963506	 0.11703
58.35	100.9232	165.4163	201.4822	234.8764	252.3367	276.4889	328.6422	355.5629	421.7302	490.6095	595.2647	647.541	737.45	837.5804	863.1651	894.9703	922.4882	941.0975	967.8583	986.3704	1011.2024	1035.2167	1041.5362	1094.6084	1131.8106	1162.5554	1168.2822	1173.7881	1186.4798	1200.1225	1263.5354	1272.5555	1300.9078	1342.2302	1388.2429	1401.1512	1414.204	1427.8331	1474.744	1483.1401	1495.6513	1505.4709	1518.9304	1529.2801	3019.8058	3029.7622	3037.9193	3051.0313	3068.1004	3083.861	3090.6255	3098.1526	3105.4089	3112.5368	3139.4931	3171.0509
CC1(C)OCC1C1CO1	CC1(C)OC[C@H]1[C@H]1CO1	
InChI=1S/C7H12O2/c1-7(2)5(3-9-7)6-4-8-6/h5-6H,3-4H2,1-2H3	InChI=1S/C7H12O2/c1-7(2)5(3-9-7)6-4-8-6/h5-6H,3-4H2,1-2H3/t5-,6+/m0/s1
