16
gdb 5787	5.96198	1.38396	1.2135	0.7409	71.5	-0.1963	0.0498	0.2461	986.7475	0.133549	-342.789536	-342.782648	-342.781704	-342.821022	26.362	
C	 0.0553263076	 1.5606654579	 0.0062553513	-0.226276
N	 1.2578068148	 0.7145541626	-0.0130991671	-0.313291
C	-0.0681061919	 0.0723223921	 0.0355796613	-0.149913
C	-0.4035734862	-0.6773210544	 1.2662697989	 0.319663
C	 0.3937802882	-0.8066566593	 2.3826221868	-0.17769
N	-0.2895293121	-1.559764157	 3.3031392515	-0.237447
C	-1.5112317539	-1.9220626653	 2.7959594452	-0.069631
C	-1.6120695222	-1.3891306828	 1.5327626136	-0.267778
H	-0.0921210506	 2.1168262258	 0.9274959031	 0.116888
H	-0.2324346693	 2.0876082851	-0.9005588678	 0.105192
H	 1.6349140666	 0.6652565864	-0.9552223284	 0.230167
H	-0.4341033818	-0.3775701963	-0.8864062875	 0.078846
H	 1.3845476854	-0.4299797778	 2.5729310657	 0.130725
H	 0.0620421411	-1.8217332382	 4.206823765	 0.259439
H	-2.1969477817	-2.5241513344	 3.370100977	 0.115109
H	-2.4571000439	-1.4913328744	 0.8683447616	 0.085999
62.1303	158.274	187.0991	385.1409	447.6878	475.3827	635.841	640.8341	675.3443	691.9953	786.6119	820.6817	863.4539	883.9038	905.776	908.6713	960.5876	987.7984	1072.0414	1091.628	1106.0418	1113.7791	1160.759	1179.6649	1225.4873	1257.2343	1284.4537	1301.3963	1398.9851	1444.7895	1468.3439	1504.2006	1528.3583	1613.9646	3102.2229	3110.4875	3193.7793	3239.3932	3267.9148	3281.6354	3509.055	3688.5353
C1NC1C1=CNC=C1	C1N[C@H]1c1c[nH]cc1	
InChI=1S/C6H8N2/c1-2-7-3-5(1)6-4-8-6/h1-3,6-8H,4H2	InChI=1S/C6H8N2/c1-2-7-3-5(1)6-4-8-6/h1-3,6-8H,4H2/t6-/m1/s1
