17
gdb 53255	4.11653	0.77583	0.7487	3.7115	85.55	-0.2542	0.0018	0.2561	1567.2314	0.133833	-380.839496	-380.829455	-380.828511	-380.876226	34.561	
C	 0.0967697803	 1.4921216573	 0.0245018162	-0.502261
C	 0.0373020017	 0.0386922129	 0.0374496103	 0.150728
C	-0.0096523084	-1.1646835219	 0.0576043993	 0.101635
C	-0.0419892946	-2.5990032298	 0.0437404165	-0.312282
N	-0.5686906	-3.3031880288	 1.2311306478	-0.338736
C	-1.3484959374	-3.3668300541	-0.0177902174	 0.167703
C	-2.6888653306	-2.6638718202	-0.0126676742	-0.449364
C	-1.2987776281	-4.6051159858	-0.7657907505	 0.242593
N	-1.2633464783	-5.6037573419	-1.3492155831	-0.339043
H	 1.0719370931	 1.8432513771	-0.3296763932	 0.156033
H	-0.6692625423	 1.9158931871	-0.6339651471	 0.154326
H	-0.0609743427	 1.901727587	 1.0280010717	 0.157256
H	 0.7885282046	-3.0722195151	-0.4756282159	 0.130251
H	-0.0513573887	-4.1673376598	 1.3768212941	 0.253373
H	-2.6042495296	-1.7286738168	 0.5421293873	 0.149534
H	-3.012906613	-2.4443265957	-1.0338154443	 0.138211
H	-3.4452392459	-3.2924804214	 0.4653509825	 0.140044
16.8365	76.7661	84.1085	162.9346	172.6884	205.3871	248.4009	323.7689	357.066	374.728	460.3133	523.7651	575.2506	595.4693	687.7296	769.3059	829.2013	896.8701	987.1175	1031.6737	1051.881	1052.0168	1087.9282	1105.6225	1165.1148	1221.2919	1269.677	1332.4992	1413.1947	1415.097	1431.2798	1475.2751	1475.9703	1481.136	1490.243	2345.2777	2372.1957	3030.4902	3052.6294	3092.7851	3094.8474	3122.6851	3131.4043	3151.5712	3504.3665
CC#CC1NC1(C)C#N	CC#C[C@H]1N[C@]1(C)C#N	
InChI=1S/C7H8N2/c1-3-4-6-7(2,5-8)9-6/h6,9H,1-2H3	InChI=1S/C7H8N2/c1-3-4-6-7(2,5-8)9-6/h6,9H,1-2H3/t6-,7-/m1/s1
