18
gdb 74968	2.50891	1.62904	1.43292	2.0037	77.48	-0.2129	-0.0008	0.2121	1011.2754	0.149588	-401.961406	-401.953772	-401.952828	-401.993351	29.908	
C	-0.0729424726	 1.4837692006	 0.0457942451	-0.512285
C	-0.0223607694	-0.0063608099	-0.0111811277	 0.329918
C	-0.0413969703	-0.812771452	-1.0909097545	-0.156348
C	 0.0398263009	-2.239175977	-0.6149882144	-0.161751
N	 1.4045329558	-2.4778398662	-0.0380830603	-0.300298
C	 1.4792738538	-1.5934347622	 1.1701424647	-0.175647
C	 0.0913928057	-0.8897935766	 1.2185362605	-0.231732
C	-0.7792706993	-2.0648448877	 0.6842544315	 0.430024
O	-1.7221540762	-2.6342386013	 1.1459684724	-0.330371
H	 0.8354014685	 1.8962857023	 0.5026064063	 0.133042
H	-0.1783449855	 1.9165803046	-0.9528866352	 0.130096
H	-0.9150913491	 1.826204563	 0.6597866098	 0.13546
H	-0.0956652271	-0.5059458443	-2.127695366	 0.103973
H	-0.2538429348	-3.0268837773	-1.3050762937	 0.083307
H	 1.4521801534	-3.4482401983	 0.2604946616	 0.224548
H	 1.6526689472	-2.1765488527	 2.0809712649	 0.106379
H	 2.2960588487	-0.8720100234	 1.064786096	 0.108861
H	-0.1886796297	-0.4557522016	 2.1764378589	 0.082825
119.278	175.036	196.0187	225.758	293.1652	400.8929	466.8602	533.7519	571.8614	652.6255	707.9353	768.3457	782.0449	816.2621	859.1166	885.407	913.3835	926.6933	981.7533	1001.335	1004.3603	1057.1472	1082.5938	1093.5907	1149.5225	1171.0867	1206.8067	1218.3478	1269.9628	1276.3004	1326.6993	1359.5329	1411.9722	1423.4022	1477.0812	1484.353	1514.7138	1665.2337	1887.2382	3019.8958	3031.6506	3068.6917	3071.3957	3111.356	3140.6878	3150.3953	3210.5213	3499.6142
CC1=CC2NCC1C2=O	CC1=C[C@H]2NC[C@@H]1C2=O	
InChI=1S/C7H9NO/c1-4-2-6-7(9)5(4)3-8-6/h2,5-6,8H,3H2,1H3	InChI=1S/C7H9NO/c1-4-2-6-7(9)5(4)3-8-6/h2,5-6,8H,3H2,1H3/t5-,6+/m0/s1
