19
gdb 105674	1.95337	1.46716	1.29332	1.0689	71.54	-0.2445	-0.0312	0.2133	1128.714	0.156309	-460.149365	-460.139577	-460.138633	-460.184307	35.046	
C	 0.5019741389	-0.6071614229	 1.4457983941	-0.407567
C	 0.0623626008	 0.0838985837	 0.1510846781	-0.22753
C	 0.794105077	-0.3999685674	-1.1082138423	 0.286285
O	 2.223893368	-0.5787631466	-0.919092301	-0.328341
C	 2.1264770588	-2.0010003402	-1.172701942	-0.090222
C	 0.6409074346	-1.8909441626	-1.5400043162	 0.016221
O	-0.1913810487	-2.738469275	-0.7914966527	-0.416327
C	 0.5597967156	 0.592138562	-2.2306999953	 0.109316
O	-0.3248285157	 0.4929180149	-3.0427121531	-0.26073
H	 0.2570771758	-1.6705277563	 1.4259549717	 0.140702
H	 1.5805410906	-0.4988557764	 1.5846546083	 0.133843
H	-0.000446714	-0.1514763401	 2.3040642367	 0.111181
H	-1.0122149475	-0.0508501602	-0.0223230021	 0.110024
H	 0.2248201758	 1.1662151224	 0.246188048	 0.105893
H	 2.8132484703	-2.3239048061	-1.9617333036	 0.112296
H	 2.2948779243	-2.5919317892	-0.2656278412	 0.117503
H	 0.4347815059	-1.9770828371	-2.6116099327	 0.099283
H	-1.0752489458	-2.708456528	-1.1705383614	 0.29598
H	 1.2862758654	 1.4355760453	-2.2420442433	 0.092193
60.3626	94.0106	115.1474	179.3169	206.2362	242.9189	258.1714	294.2065	318.5017	391.46	422.5517	510.7703	582.7741	683.5267	775.0986	782.6935	895.7979	936.9512	976.9252	1000.4964	1014.6678	1031.5366	1053.5028	1137.4511	1142.9985	1154.9477	1177.3812	1229.4505	1243.321	1300.5883	1309.4477	1338.9239	1375.2668	1399.5856	1401.4596	1459.252	1472.5708	1496.3169	1510.8908	1523.7548	1823.5394	2886.7486	3015.1672	3034.7988	3052.1629	3055.3791	3060.2643	3090.0469	3120.3808	3144.2659	3827.7942
CCC1(OCC1O)C=O	CC[C@]1(OC[C@H]1O)C=O	
InChI=1S/C6H10O3/c1-2-6(4-7)5(8)3-9-6/h4-5,8H,2-3H2,1H3	InChI=1S/C6H10O3/c1-2-6(4-7)5(8)3-9-6/h4-5,8H,2-3H2,1H3/t5-,6+/m1/s1
