18
gdb 70232	4.09712	1.09672	0.96769	1.0678	89.06	-0.2166	-0.0256	0.191	1248.9863	0.146891	-364.77083	-364.762477	-364.761533	-364.803385	32.674	
C	 0.0325840565	 1.5349166139	 0.0760461286	-0.480156
C	-0.0253749704	 0.0292701143	-0.0077367488	 0.313951
C	-0.8542008673	-0.7915338112	 0.9292320674	-0.27573
N	 0.6063424263	-0.7865382159	 1.0645185652	-0.140523
C	 1.2821962902	-1.920504639	 0.4082699685	-0.274522
C	 0.9882855573	-1.7788234789	-1.0847018006	 0.171052
C	 0.2763130114	-0.6600347861	-1.2941843998	-0.251388
C	 1.4225155156	-2.7257285881	-2.038250813	 0.204373
C	 1.8252392358	-3.5615143307	-2.8081568215	-0.416223
H	 1.0017837804	 1.9112625997	-0.2674867158	 0.125452
H	-0.747298417	 1.9879116592	-0.5461577433	 0.119425
H	-0.1161292731	 1.8662595014	 1.1065892758	 0.130953
H	-1.3789578863	-0.3093089799	 1.7507474626	 0.113716
H	-1.340707714	-1.678352984	 0.5282157416	 0.112432
H	 2.3605597673	-1.8695693512	 0.6025723438	 0.122731
H	 0.9254842263	-2.8743931795	 0.8139425849	 0.122956
H	-0.0499427203	-0.2934823402	-2.2592870614	 0.108208
H	 2.1722933912	-4.2883967639	-3.4998878742	 0.193296
109.027	143.6637	187.2744	236.895	283.3032	335.7578	426.1197	491.9558	520.8105	533.3139	539.8083	592.4312	622.2926	638.6698	752.9617	781.2155	867.6038	893.6982	913.8177	945.9311	980.0123	1010.9364	1061.4603	1098.0245	1116.7622	1153.8484	1172.6972	1212.2494	1243.7365	1314.972	1338.5115	1353.1816	1414.0477	1484.5536	1488.9109	1495.6404	1503.4335	1662.4615	2219.1993	3025.9542	3034.1438	3063.6555	3092.4133	3097.1025	3123.2818	3181.2803	3215.7457	3503.1089
CC12CN1CC(=C2)C#C	C[C@]12CN1CC(=C2)C#C	
InChI=1S/C8H9N/c1-3-7-4-8(2)6-9(8)5-7/h1,4H,5-6H2,2H3	InChI=1S/C8H9N/c1-3-7-4-8(2)6-9(8)5-7/h1,4H,5-6H2,2H3/t8-,9?/m0/s1
