21
gdb 105062	2.16705	1.54695	1.26661	1.4306	78.41	-0.2355	0.0705	0.306	1134.3403	0.179447	-424.176566	-424.166624	-424.16568	-424.211522	37.249	
C	 1.2527993693	 0.7639955876	 0.58910767	-0.241867
O	 0.1454399883	 0.4565378382	-0.242180148	-0.289128
C	 0.4262831857	-0.4164012267	-1.3036930603	 0.400271
C	-0.3434608007	-0.0877695202	-2.5489209696	-0.32576
C	 1.1464688156	 0.1674313362	-2.4942972428	-0.310932
C	 0.715297907	-1.8386147728	-0.9037032992	 0.346382
O	 2.0904620655	-1.9870814117	-0.6142768196	-0.474669
C	-0.2959099252	-2.5738512571	-0.0706119205	-0.323006
C	-0.0265844376	-3.0075249479	-1.5010822039	-0.326793
H	 1.6271027484	-0.1185110795	 1.1198287025	 0.115263
H	 2.0835494314	 1.1926923387	 0.0117023208	 0.106064
H	 0.9008441638	 1.5027456367	 1.313709635	 0.115433
H	-0.7072137878	-0.8902076675	-3.1789897882	 0.111264
H	-0.9987910652	 0.7722433601	-2.476275037	 0.121767
H	 1.475483382	 1.1970490829	-2.4145214242	 0.115207
H	 1.8060120228	-0.483351544	-3.0562710422	 0.122867
H	 2.2162296919	-2.814255963	-0.1384164985	 0.278235
H	 0.068245405	-3.2077540323	 0.7330411589	 0.102669
H	-1.2290120688	-2.0685030384	 0.1510350459	 0.131737
H	-0.7980644698	-2.8410437285	-2.2437145473	 0.118429
H	 0.5468102282	-3.9172176106	-1.6512637719	 0.106566
37.6624	107.6303	150.9824	182.2074	209.4512	230.4347	290.9815	299.23	342.9778	384.8997	421.7646	544.7881	577.8726	595.6408	764.2534	774.1901	831.7087	886.0015	902.7914	926.0237	956.5888	969.9723	983.8497	1000.5392	1046.9969	1052.3069	1068.1183	1085.9329	1102.4934	1143.9923	1184.2783	1185.8801	1190.7775	1220.5751	1259.2511	1286.0723	1308.7932	1438.3092	1450.831	1461.4457	1476.5748	1487.761	1495.048	1499.2734	1508.276	3004.9403	3070.1824	3115.1694	3123.1464	3129.2175	3141.6049	3145.0873	3207.7715	3221.7215	3225.9315	3239.5108	3818.2141
COC1(CC1)C1(O)CC1	COC1(CC1)C1(O)CC1	
InChI=1S/C7H12O2/c1-9-7(4-5-7)6(8)2-3-6/h8H,2-5H2,1H3	InChI=1S/C7H12O2/c1-9-7(4-5-7)6(8)2-3-6/h8H,2-5H2,1H3
