21
gdb 94210	3.09856	1.04375	0.96001	1.7207	84.08	-0.2512	0.0517	0.303	1321.9133	0.179822	-387.048883	-387.038848	-387.037904	-387.08351	37.956	
C	-0.0252403467	 1.5946330403	 0.1606990417	-0.436718
C	-0.0166385792	 0.0695954013	 0.0418871415	 0.303506
C	-1.4339920648	-0.4804755718	-0.213215659	-0.429167
C	-2.0139675157	-0.0460007891	-1.4791757536	 0.315323
C	-2.4703195322	 0.3142046863	-2.5318033062	-0.455232
C	 1.1127639524	-0.4482330792	-0.9039717137	-0.252901
C	 2.0200947603	-0.6709226521	 0.33736695	-0.277265
C	 0.743590681	-0.6161849121	 1.2158363435	 0.107404
O	 0.7518028531	 0.1168688503	 2.4184018236	-0.432283
H	 0.9822837727	 1.9918028697	 0.3093855442	 0.114637
H	-0.4394048071	 2.0377540883	-0.7498111614	 0.1241
H	-0.6315592703	 1.9159581595	 1.0126489956	 0.123844
H	-1.4019257271	-1.5778234856	-0.1950695701	 0.119275
H	-2.0900763497	-0.178473948	 0.6145945329	 0.132571
H	-2.8840704341	 0.6293455328	-3.4573205584	 0.192691
H	 0.8413116192	-1.3861949925	-1.3962216124	 0.10069
H	 1.4686630889	 0.2503048796	-1.6637595729	 0.105096
H	 2.622622098	-1.5817822325	 0.3741174884	 0.09215
H	 2.6642984377	 0.1891840411	 0.5373020744	 0.109795
H	 0.3473541596	-1.6306832932	 1.3789284976	 0.058249
H	 1.2674505942	-0.3706117632	 3.0683926241	 0.284234
61.0132	118.0067	131.9977	219.4624	224.848	248.9726	260.0646	329.2822	352.6848	359.5394	403.5399	472.2631	559.2643	614.3088	627.4373	642.5636	734.1859	800.0282	880.7053	904.1941	933.7968	937.728	965.5254	969.272	995.1975	1103.3937	1113.8392	1150.2037	1169.3009	1194.4111	1209.7013	1243.6304	1248.412	1280.9709	1312.316	1333.3267	1340.0926	1406.7337	1428.0288	1465.0636	1478.8956	1494.2993	1497.1269	1500.8767	2233.9858	2971.419	3009.7837	3042.6184	3043.3699	3059.7092	3064.5166	3108.2726	3114.7218	3117.608	3124.345	3506.9604	3818.9992
CC1(CC#C)CCC1O	C[C@@]1(CC#C)CC[C@H]1O	
InChI=1S/C8H12O/c1-3-5-8(2)6-4-7(8)9/h1,7,9H,4-6H2,2H3	InChI=1S/C8H12O/c1-3-5-8(2)6-4-7(8)9/h1,7,9H,4-6H2,2H3/t7-,8-/m1/s1
