16
gdb 49210	4.51959	1.00394	0.82972	1.6547	74.79	-0.2519	-0.0664	0.1855	1297.4225	0.125195	-437.949155	-437.940997	-437.940053	-437.982824	29.434	
O	-0.0656745027	-0.0441875626	 0.148731569	-0.27214
C	-0.0178191781	 1.1652645318	 0.1683583025	 0.098538
C	 1.2198779392	 1.9420515404	-0.0038703036	 0.205546
C	 1.1829890528	 3.2786165861	 0.0314261955	-0.139415
C	 2.3907047691	 4.138370192	-0.1344570524	-0.379046
C	 3.7045337586	 3.3935691501	-0.351526981	 0.395605
O	 4.7506602432	 3.9964462546	-0.4978227411	-0.372963
N	 3.6426027208	 2.0316068358	-0.3723009176	-0.328408
C	 2.4865783915	 1.1674682001	-0.2150406566	-0.241895
H	-0.931248096	 1.781417802	 0.3219692147	 0.077317
H	 0.2276541602	 3.777090694	 0.1887723815	 0.112417
H	 2.2642501964	 4.8284344341	-0.978987059	 0.155937
H	 2.5267764212	 4.7910688854	 0.7378180394	 0.155931
H	 4.5394092905	 1.5906484396	-0.5189418366	 0.252534
H	 2.6316327467	 0.4827738418	 0.6321230864	 0.140026
H	 2.3672943866	 0.5217237847	-1.0961454211	 0.140014
47.8921	101.8986	133.8454	194.8965	301.6847	381.4825	435.6433	454.6194	511.9751	575.6974	615.7074	657.2613	767.7	778.1474	834.7869	938.4517	979.2667	1015.3812	1025.1666	1050.6969	1119.2346	1199.6734	1203.6087	1242.2919	1295.1463	1338.3891	1395.1395	1410.9128	1429.9739	1439.747	1490.6536	1517.0363	1728.3643	1789.3309	1795.1216	2889.8392	3008.127	3024.8957	3030.9394	3053.0425	3142.6888	3607.7161
O=CC1=CCC(=O)NC1	O=CC1=CCC(=O)NC1	
InChI=1S/C6H7NO2/c8-4-5-1-2-6(9)7-3-5/h1,4H,2-3H2,(H,7,9)	InChI=1S/C6H7NO2/c8-4-5-1-2-6(9)7-3-5/h1,4H,2-3H2,(H,7,9)
