19
gdb 71683	2.80815	2.18113	1.67071	1.595	76.93	-0.2344	0.0839	0.3183	879.5284	0.161373	-385.841435	-385.834938	-385.833994	-385.871833	27.935	
C	-0.042584539	 1.4391469198	 0.0028951088	-0.507168
C	 0.0650540058	-0.0577129	-0.033421493	 0.458007
O	-1.2191211139	-0.7464484722	-0.1410896034	-0.340047
C	-0.4577385367	-1.8337100678	-0.6834789528	 0.080962
C	 0.6253621562	-2.2253950661	 0.3780928562	-0.069547
C	 1.7981547637	-1.7077195723	-0.5247520834	-0.062528
C	 2.3140052209	-0.8336885213	 0.6347632051	-0.252513
C	 0.8272052778	-0.8238703023	 1.0759347768	-0.08581
C	 0.6593713924	-0.9092345587	-1.2263289073	-0.140673
H	 0.9487550863	 1.8972523968	 0.0736467303	 0.12317
H	-0.5360998376	 1.8177037262	-0.8965719559	 0.127243
H	-0.6287750094	 1.7545638745	 0.8729414109	 0.12989
H	-1.0360768696	-2.5814688837	-1.2243969732	 0.076999
H	 0.6395309609	-3.1413543217	 0.9641266859	 0.068749
H	 2.4386055736	-2.3490209791	-1.1283349508	 0.065827
H	 2.9484167385	-1.3987028802	 1.3238939197	 0.100742
H	 2.7926894559	 0.1252804979	 0.4059946737	 0.090079
H	 0.5208579976	-0.6260505078	 2.1029439807	 0.066747
H	 0.7012173665	-0.4870061019	-2.228625958	 0.069873
187.0527	250.5873	262.5402	404.6143	480.5217	531.0397	592.9803	691.3022	749.2655	786.7244	807.5991	819.7071	839.7727	856.584	875.6896	890.111	918.9156	942.9633	969.0432	988.689	1007.3077	1014.6697	1063.8319	1086.1861	1122.6164	1134.375	1143.9218	1172.6711	1179.6841	1208.3882	1211.7324	1241.9044	1253.9218	1275.4412	1285.6016	1306.2224	1358.8312	1415.4692	1478.6224	1490.8505	1500.6802	3034.0164	3037.3458	3093.3292	3105.6098	3115.6084	3116.9393	3121.8525	3126.0617	3137.0751	3147.9014
CC12OC3C4C(CC14)C23	C[C@]12O[C@@H]3[C@H]4[C@H](C[C@@H]14)[C@H]23	
InChI=1S/C8H10O/c1-8-4-2-3-5(4)7(9-8)6(3)8/h3-7H,2H2,1H3	InChI=1S/C8H10O/c1-8-4-2-3-5(4)7(9-8)6(3)8/h3-7H,2H2,1H3/t3-,4+,5-,6-,7+,8-/m0/s1
