16
gdb 50885	7.16725	0.62116	0.57565	5.2123	73.87	-0.2573	-0.0282	0.2291	1800.5483	0.123469	-434.11073	-434.101012	-434.100068	-434.148147	32.455	
N	 0.3693984392	 1.2247078157	 0.0029572422	-0.392194
C	 0.0704135476	-0.0043162104	 0.0007131827	 0.084533
N	-1.2364801152	-0.4977549767	 0.0106495005	-0.337633
C	-2.4376355233	 0.2033943214	 0.0272288846	 0.443248
O	-2.5326860261	 1.4052305002	 0.0359274066	-0.305238
C	-3.6580133969	-0.7226754731	 0.0331245432	-0.339973
C	-4.9561237976	 0.098195614	 0.0506348097	-0.332231
C	-6.1395033247	-0.7574441984	 0.0571231883	 0.252572
N	-7.0642038823	-1.4503428162	 0.0618838437	-0.303047
H	 1.3826902683	 1.3308118421	-0.005888034	 0.233912
H	 0.7859208592	-0.8366147726	-0.0094500102	 0.099432
H	-1.3108419433	-1.503078486	 0.0054959307	 0.257064
H	-3.6302406253	-1.3728778001	-0.8491607383	 0.146146
H	-3.6134751267	-1.3836878984	 0.9066543555	 0.146144
H	-4.9731517929	 0.7507927865	 0.9283231286	 0.173639
H	-4.9902242701	 0.7611398822	-0.8187709938	 0.173625
14.556	42.8973	84.5824	98.3136	176.4071	187.9177	280.3961	340.7906	391.9889	535.8704	537.1276	543.357	599.6966	778.8512	787.4016	825.0141	919.7906	969.5224	1017.9204	1031.5076	1065.3435	1082.3821	1175.6034	1175.8888	1259.0378	1291.7884	1305.6391	1380.2605	1433.0711	1456.6894	1469.6955	1539.0184	1740.2321	1830.1207	2364.5939	3032.2531	3039.1288	3072.6215	3076.0827	3112.3848	3499.6757	3631.3768
N=CNC(=O)CCC#N	N=CNC(=O)CCC#N	
InChI=1S/C5H7N3O/c6-3-1-2-5(9)8-4-7/h4H,1-2H2,(H2,7,8,9)	InChI=1S/C5H7N3O/c6-3-1-2-5(9)8-4-7/h4H,1-2H2,(H2,7,8,9)
