21
gdb 6089	4.28311	0.97721	0.95796	3.4701	76.42	-0.2405	0.0379	0.2784	1352.4416	0.186559	-366.312903	-366.302493	-366.301549	-366.349822	36.151	
C	 0.2477113604	 1.5151933255	 0.288849973	-0.373887
C	 0.0090822726	 0.0267098964	 0.0117009354	 0.032207
C	 0.6584069597	-0.410359287	-1.3074887032	-0.385908
C	 0.5228177113	-0.8595810773	 1.1614266047	-0.15352
N	-0.1339188004	-0.6130566084	 2.4334734806	-0.31381
C	 0.516723716	-0.1062904825	 3.5240311324	 0.407804
C	-0.344076616	 0.062499114	 4.7680728373	-0.482208
O	 1.6991901963	 0.1857613304	 3.5158898417	-0.375164
H	 1.319097364	 1.7291742399	 0.3720973729	 0.125539
H	-0.1585241276	 2.1331953669	-0.5184184035	 0.107144
H	-0.2256561652	 1.82777909	 1.2237582824	 0.113984
H	-1.0761463959	-0.1368815354	-0.0752124157	 0.061833
H	 1.7457180396	-0.2749390701	-1.2710011629	 0.119966
H	 0.4616904857	-1.4661253263	-1.52343305	 0.109272
H	 0.2792001623	 0.1801032407	-2.14722423	 0.113528
H	 0.4020457929	-1.916559575	 0.889162473	 0.096417
H	 1.5875981782	-0.6792807276	 1.3335340007	 0.146044
H	-1.1125874148	-0.8333058357	 2.5160497937	 0.239599
H	-1.4005109121	-0.1724031337	 4.6123534097	 0.107195
H	 0.0492331462	-0.5839522347	 5.5575794257	 0.151947
H	-0.2549843833	 1.0938643598	 5.1180080821	 0.152018
33.0637	40.3219	64.066	91.1754	210.4882	237.9764	255.4484	305.875	315.0159	397.3871	414.0976	446.367	511.9785	626.7525	636.4084	819.7397	861.7301	924.9625	935.6878	966.3803	971.0057	997.1403	1050.231	1108.7198	1145.5684	1182.4603	1195.953	1255.8103	1294.1267	1333.3497	1373.8152	1390.8694	1397.2021	1401.4703	1424.3589	1470.5078	1479.5953	1486.5854	1487.0031	1493.1389	1502.7938	1510.3664	1541.917	1780.1505	2983.7306	3014.5751	3027.1153	3034.3594	3048.4755	3091.6659	3098.7497	3103.3585	3107.0198	3111.807	3124.0994	3130.9908	3644.8896
CC(C)CNC(C)=O	CC(C)CNC(=O)C	
InChI=1S/C6H13NO/c1-5(2)4-7-6(3)8/h5H,4H2,1-3H3,(H,7,8)	InChI=1S/C6H13NO/c1-5(2)4-7-6(3)8/h5H,4H2,1-3H3,(H,7,8)
