18
gdb 103690	2.36585	1.3375	1.00469	3.3311	73.3	-0.2651	0.0328	0.2979	1207.9381	0.145262	-439.082517	-439.072662	-439.071718	-439.116886	36.106	
C	-0.0247127895	 1.5072920727	 0.0087187413	-0.457043
C	 0.0032315754	-0.0145216608	 0.0205946828	 0.07789
C	 1.3429743108	-0.7413626332	-0.1603450063	-0.371345
C	 0.6688313563	-0.7334802366	 1.1839954609	 0.418498
O	 1.1762433237	 0.1047468845	 2.1745781278	-0.474222
C	 0.0789775843	-2.00353111	 1.7515103691	-0.162345
O	 1.1184066831	-2.5866017276	 2.536638759	-0.433792
C	-1.1593063921	-0.6399204151	-0.5611171248	 0.252352
N	-2.0980639775	-1.1340862986	-1.024238148	-0.360538
H	 0.8502351801	 1.8992681461	 0.5278179116	 0.147591
H	-0.0304906303	 1.8809258222	-1.0191011405	 0.133802
H	-0.9178067886	 1.8829180247	 0.5157100751	 0.138597
H	 1.352306174	-1.6565058853	-0.7409586613	 0.134998
H	 2.2073962462	-0.0988651305	-0.2816313564	 0.131395
H	 1.66484832	-0.4797831215	 2.770275778	 0.296144
H	-0.7911106956	-1.7523397117	 2.3740552578	 0.112172
H	-0.2513181731	-2.6765326554	 0.950823648	 0.116633
H	 0.7272102828	-3.2326530538	 3.1311679959	 0.299214
96.6529	121.1731	136.8339	179.2453	209.6439	250.2485	255.0868	308.6756	365.1052	392.7914	425.3435	450.0535	486.2778	575.6405	620.6156	709.2018	764.3062	886.8814	910.1525	943.7632	977.0775	1018.2418	1055.49	1058.9678	1107.4871	1136.8432	1220.0008	1228.992	1263.6516	1291.3364	1329.6598	1413.2717	1417.9957	1456.019	1487.4748	1490.1703	1501.0845	1509.5379	2343.6906	3005.918	3052.0164	3056.3663	3117.6858	3141.5212	3153.2868	3238.738	3759.0993	3843.4845
CC1(CC1(O)CO)C#N	C[C@]1(C[C@]1(O)CO)C#N	
InChI=1S/C6H9NO2/c1-5(3-7)2-6(5,9)4-8/h8-9H,2,4H2,1H3	InChI=1S/C6H9NO2/c1-5(3-7)2-6(5,9)4-8/h8-9H,2,4H2,1H3/t5-,6-/m0/s1
