15
gdb 133814	3.65198	2.79108	2.08318	1.9278	73.02	-0.1927	-0.0475	0.1451	682.0696	0.118677	-325.361867	-325.355627	-325.354682	-325.391543	25.595	
C	-3.9817759212	-0.3667665287	-0.7490047107	-0.184365
N	-2.9778818168	-1.5370883369	-0.434505651	-0.182533
C	-1.8264157879	-0.9600876425	-1.315453666	-0.173117
C	-1.2202887019	 0.1361537252	-0.9319210732	 0.14843
C	-1.2527262637	 1.1414421087	-0.0703009856	-0.188102
C	-2.6451794636	 1.6521734715	 0.4358373633	-0.316777
C	-3.3750315986	 0.3255759473	 0.4666868901	 0.093554
C	-2.8489335683	-0.857153223	 0.8521678071	-0.033306
H	-5.0076187999	-0.7161979177	-0.6014964116	 0.119633
H	-3.8758745234	 0.0707111068	-1.7427754095	 0.114601
H	-1.8331998956	-1.4096618614	-2.2997826163	 0.123187
H	-0.3987741357	 1.3842361284	 0.5609640078	 0.115062
H	-3.1383060138	 2.3815883689	-0.2121796524	 0.128695
H	-2.4920581072	 2.1195474964	 1.4136213222	 0.127211
H	-2.2065675023	-1.1963165731	 1.6562423257	 0.107828
204.3554	264.6046	315.7954	415.4314	468.8605	509.8845	596.9389	628.6841	691.5525	736.1676	748.5262	790.6494	813.869	838.2207	877.4443	916.7175	941.4585	994.3654	1057.3391	1079.4894	1120.8623	1146.2983	1204.6474	1223.9994	1242.9382	1261.8428	1293.683	1382.3694	1459.1497	1501.1518	1600.9073	1887.7215	3053.1054	3059.6314	3102.2162	3122.6016	3125.8349	3197.814	3216.2121
C1N2C3C4=CCC13C24	C1N2[CH][C][CH]C[C]1[CH]2	
InChI=1S/C7H7N/c1-2-7-3-8-5(7)4(1)6(7)8/h1,5-6H,2-3H2	InChI=1S/C7H7N/c1-2-4-8-5-7(3-1)6-8/h1,4-5H,3,6H2
