18
gdb 84156	2.82235	1.34135	1.08203	4.5102	74.71	-0.2447	-0.0082	0.2365	1163.8553	0.148149	-439.118891	-439.11004	-439.109096	-439.152631	32.602	
C	 0.04437597	 1.532167959	 0.0893970437	-0.486005
C	-0.0883991945	 0.0420858532	-0.0195358771	 0.300746
C	-1.1933113996	-0.6482892985	 0.2514319478	-0.170373
C	-1.2221064393	-2.1347652655	 0.0141773972	-0.177024
N	-1.4804963527	-2.4137690285	-1.4170720099	-0.52356
C	 0.1331426275	-2.7735930146	 0.3231767359	 0.44857
O	 0.2438027244	-3.8861599877	 0.7639578211	-0.343494
O	 1.2344085217	-2.0429801824	 0.0536821101	-0.225555
C	 1.1222712531	-0.7213873473	-0.4920234812	-0.141461
H	 0.8099641907	 1.8095175611	 0.8246175181	 0.135535
H	 0.3548388055	 1.9724642199	-0.8669298207	 0.133936
H	-0.9001908039	 1.9961798968	 0.3833358244	 0.13054
H	-2.0980429126	-0.1614728314	 0.6046615977	 0.09311
H	-1.9420292183	-2.6197370649	 0.6865559387	 0.090156
H	-1.6331712244	-3.4121762482	-1.5368013274	 0.241668
H	-2.3379511441	-1.9478638141	-1.6993861511	 0.229925
H	 1.1190512891	-0.7953939837	-1.5876611727	 0.139456
H	 2.0457137975	-0.2164562433	-0.1929268648	 0.123829
59.2315	131.7894	162.3101	189.5704	240.0954	291.8977	309.6904	394.9611	432.6702	453.1216	502.8891	614.4777	739.7733	747.1841	781.6011	838.9848	891.1455	948.3051	952.7347	993.3793	1036.5847	1077.9399	1088.7446	1095.8913	1162.5849	1208.9695	1260.0843	1267.8863	1334.9505	1364.6675	1387.154	1415.4556	1426.865	1478.3931	1487.8738	1493.3476	1642.8994	1748.6576	1844.4877	3010.9259	3018.2983	3023.4332	3067.5152	3082.7187	3119.1911	3165.3592	3478.5613	3564.4342
CC1=CC(N)C(=O)OC1	CC1=C[C@@H](N)C(=O)OC1	
InChI=1S/C6H9NO2/c1-4-2-5(7)6(8)9-3-4/h2,5H,3,7H2,1H3	InChI=1S/C6H9NO2/c1-4-2-5(7)6(8)9-3-4/h2,5H,3,7H2,1H3/t5-/m1/s1
