18
gdb 54455	3.42067	1.39417	1.14238	2.4398	76.47	-0.2332	-0.0236	0.2096	1097.9005	0.146546	-401.880777	-401.872684	-401.87174	-401.91347	31.334	
C	 0.1257859481	 1.1975014192	-0.7686829327	-0.50512
C	-0.080047078	 0.0965658447	 0.2530855829	 0.3159
O	 0.6841463809	-0.0855346638	 1.1784631067	-0.309748
C	-1.2801364601	-0.770508084	 0.1058447283	 0.214715
C	-2.0286010354	-0.9890280426	-1.1626921729	-0.287387
N	-2.6622496462	-0.1584148832	-0.1411997616	-0.17516
C	-3.1630548727	-1.0152285591	 1.0109913875	 0.007897
C	-2.9445972018	-2.4996673257	 0.9405777429	-0.315789
C	-1.7979262695	-1.5953398336	 1.2972990968	-0.118367
H	 0.8887847253	 1.8847176941	-0.4017019494	 0.143313
H	 0.4644064427	 0.7719996611	-1.7204528487	 0.140591
H	-0.8101160253	 1.7320791908	-0.9565193189	 0.156751
H	-1.7175634602	-0.4091772834	-2.0260681152	 0.128645
H	-2.4137240092	-1.9710095735	-1.4114413565	 0.128787
H	-3.8839932049	-0.5471022206	 1.6676569091	 0.110958
H	-3.3637651313	-3.0187251572	 1.7976824902	 0.125909
H	-2.9898944389	-3.085987183	 0.0297242694	 0.117349
H	-1.2472917134	-1.6455579202	 2.2244740122	 0.120754
75.2194	150.7177	163.2837	191.5713	312.0505	397.9055	460.9419	474.6519	546.4391	581.1058	627.1565	695.6754	741.8713	767.5804	815.6363	892.8365	919.1025	935.3056	960.0778	966.2457	1021.8142	1046.3861	1065.0762	1070.5451	1092.5201	1108.1094	1124.1061	1141.4518	1191.949	1245.3047	1303.7291	1322.7217	1368.4461	1389.9029	1466.8072	1474.1242	1479.9885	1528.215	1779.9488	3039.4542	3106.6612	3128.3495	3140.3233	3154.6986	3199.8329	3206.1531	3218.0712	3236.3147
CC(=O)C12CN1C1CC21	CC(=O)[C@]12CN1[C@H]1C[C@@H]21	
InChI=1S/C7H9NO/c1-4(9)7-3-8(7)6-2-5(6)7/h5-6H,2-3H2,1H3	InChI=1S/C7H9NO/c1-4(9)7-3-8(7)6-2-5(6)7/h5-6H,2-3H2,1H3/t5-,6+,7+,8?/m1/s1
