13
gdb 129538	5.26613	1.05842	0.88146	2.7408	60.47	-0.2501	-0.004	0.2461	1201.3334	0.091147	-486.102747	-486.094903	-486.093959	-486.136383	27.61	
N	-0.1575900921	 1.287157648	 0.2429056294	-0.562751
C	-0.5967529414	 0.118979781	-0.2887501687	 0.497693
O	-1.1910007353	-0.012481972	-1.327773752	-0.370729
O	-0.2671780643	-0.89796121	 0.5751006184	-0.268835
C	-0.624174154	-2.1783417292	 0.2846531791	 0.390454
N	-0.2504785539	-3.1152801334	 1.1487990804	-0.290748
N	-0.741369102	-4.2200504274	 0.596769132	-0.070839
N	-1.3960055131	-4.0787035472	-0.5427431964	-0.195416
C	-1.3404558167	-2.7659580923	-0.7768074222	-0.141819
H	-0.2133544492	 2.1076837184	-0.3331493471	 0.278115
H	 0.4436500268	 1.2849129454	 1.0477023102	 0.276853
H	-0.6177216421	-5.1195797456	 1.030923949	 0.296671
H	-1.7859002627	-2.3148812656	-1.6424033321	 0.161352
35.657	82.5129	185.6643	199.9876	354.9555	383.9656	396.5878	486.1943	531.4431	633.4346	717.6206	726.4951	765.8736	769.4	880.7134	967.4013	996.0803	1058.527	1110.206	1159.9421	1225.3251	1261.5652	1342.5887	1369.0344	1424.8905	1499.0757	1569.952	1610.9896	1857.0178	3333.6448	3629.47	3677.9191	3764.672
NC(=O)OC1=NNN=C1	NC(=O)Oc1n[nH]nc1	
InChI=1S/C3H4N4O2/c4-3(8)9-2-1-5-7-6-2/h1H,(H2,4,8)(H,5,6,7)	InChI=1S/C3H4N4O2/c4-3(8)9-2-1-5-7-6-2/h1H,(H2,4,8)(H,5,6,7)
