20
gdb 110602	3.61348	1.04809	1.01666	3.1493	79.09	-0.2063	0.0723	0.2786	1275.578	0.170205	-403.050936	-403.042167	-403.041223	-403.084488	34.035	
C	 0.0313995114	 1.5670940098	-0.0215249974	-0.510672
C	 0.1141177341	 0.0753414889	 0.0253836393	 0.349071
N	-0.8362241312	-0.7596579236	 0.8019188004	-0.373799
C	 0.6350682377	-0.8640372729	 1.0373165026	-0.118092
C	 1.2600414825	-1.7669734789	-0.0602613591	-0.097408
C	 0.2793261579	-2.2601396647	-1.0954504137	-0.048879
C	-1.100638548	-2.9040383852	-0.9231639529	-0.086559
O	-1.193966748	-4.101946885	-1.6955175681	-0.429599
C	 0.6984487667	-0.8085336997	-1.1176647089	-0.133122
H	 0.9697274488	 2.0016553324	-0.3832298287	 0.127665
H	-0.7696745167	 1.8990053208	-0.6932051687	 0.129756
H	-0.1681774861	 1.9809051365	 0.9730893348	 0.115873
H	-1.2101770117	-0.1700223859	 1.5465468638	 0.221649
H	 1.0548224707	-0.6804914257	 2.0183525624	 0.090476
H	 2.2703902555	-2.1490826136	 0.0201332596	 0.085939
H	 0.8113235268	-2.7861457644	-1.8891683157	 0.093498
H	-1.3230793962	-3.0927916927	 0.1300426423	 0.106124
H	-1.8815899906	-2.2429309072	-1.3055129465	 0.115874
H	-0.6441804414	-4.7652728465	-1.2672765465	 0.276302
H	 1.2164012477	-0.3752398722	-1.9652016189	 0.085902
48.1128	152.7339	189.8039	212.6375	279.1033	295.5737	338.0867	364.1629	436.0737	503.824	587.125	673.148	710.5049	744.825	813.4599	839.7992	864.0159	903.8382	945.2105	960.4574	972.1093	988.8287	1013.7662	1020.0162	1045.7341	1068.1712	1092.2073	1109.5504	1148.8342	1188.7912	1218.0021	1232.0533	1288.4242	1303.7877	1341.2541	1352.8108	1398.8341	1411.0869	1421.342	1461.2676	1480.9268	1485.4906	1499.7236	3020.1053	3063.338	3081.9548	3094.245	3106.4674	3112.8844	3174.3362	3183.7267	3194.14	3455.4156	3819.0271
CC12NC1C1C(CO)C21	C[C@]12N[C@H]1[C@H]1[C@@H](CO)[C@@H]21	
InChI=1S/C7H11NO/c1-7-5-3(2-9)4(5)6(7)8-7/h3-6,8-9H,2H2,1H3	InChI=1S/C7H11NO/c1-7-5-3(2-9)4(5)6(7)8-7/h3-6,8-9H,2H2,1H3/t3-,4+,5-,6+,7-/m1/s1
