17
gdb 17216	4.38093	1.80355	1.56309	2.4682	67.41	-0.2189	0.0637	0.2826	851.5826	0.142931	-363.787585	-363.780863	-363.779918	-363.818632	26.13	
C	-0.3745975715	 1.3849500802	 0.1707807938	-0.266844
O	 0.9702133418	 0.9389768273	-0.0556548648	-0.265318
C	-0.0472410192	-0.0363814626	 0.0403330408	 0.435201
C	-0.051174887	-1.1841930841	 1.0557053066	-0.271021
N	-0.4640437514	-2.1475364277	-0.0151804247	-0.125903
C	-1.9518170368	-2.2028318519	-0.2106715487	-0.16342
C	-1.8814025343	-1.2230325044	-1.4125603848	-0.246666
C	-0.3897435179	-1.0422102845	-1.0617868055	-0.074275
H	-0.5673320796	 1.8073971544	 1.1564201669	 0.11711
H	-0.8362271699	 1.916295397	-0.660994225	 0.117241
H	 0.9470180438	-1.4148840055	 1.4419433996	 0.121768
H	-0.7490720316	-1.10826015	 1.8971362683	 0.105476
H	-2.3002465078	-3.2124112764	-0.4454487284	 0.110201
H	-2.5201504954	-1.8362035268	 0.6524830487	 0.098226
H	-2.0418749509	-1.7034374689	-2.3797142233	 0.113161
H	-2.5030022468	-0.3261554382	-1.3591363278	 0.104496
H	 0.3534872846	-1.1350538779	-1.8585354016	 0.090567
74.5633	186.6713	278.4245	330.4298	398.7264	453.6644	544.141	712.8536	757.7391	789.2931	839.7065	874.5871	900.4212	914.1258	942.0232	971.7263	983.4697	1006.1253	1065.4732	1115.1528	1126.0273	1155.243	1165.3063	1189.247	1195.7387	1198.5183	1224.9316	1261.122	1279.9519	1306.0103	1324.723	1433.6038	1480.9113	1483.954	1512.2511	1533.1275	3026.9631	3033.5367	3065.3563	3074.0698	3077.5105	3081.0057	3084.3824	3122.7594	3163.8495
C1OC11CN2CCC12	C1O[C@]21CN1CC[C@@H]21	
InChI=1S/C6H9NO/c1-2-7-3-6(4-8-6)5(1)7/h5H,1-4H2	InChI=1S/C6H9NO/c1-2-7-3-6(4-8-6)5(1)7/h5H,1-4H2/t5-,6-/m0/s1
