22
gdb 23367	1.82593	1.45651	0.94785	0.6709	85.89	-0.2323	0.0133	0.2455	1344.1404	0.192451	-404.299746	-404.289556	-404.288612	-404.334801	38.288	
C	 0.3598923484	 1.2919859235	-0.3522338346	-0.39029
C	-0.0053264003	-0.1330092052	 0.1163653346	-0.043614
C	 0.0473798495	-1.1071904703	-1.0680095676	-0.381745
C	 0.8619288272	-0.574879011	 1.2869520431	 0.327151
N	 1.781066156	-1.4250323235	 1.0135098883	-0.182436
O	 2.552423217	-1.7681619808	 2.1380070414	-0.403984
C	 0.6206122396	-0.0905944483	 2.6761191191	-0.048408
C	 0.9675351852	 1.3187221631	 3.1314277261	-0.25818
C	-0.4683194381	 0.8840271688	 3.0544066598	-0.290454
H	 1.399141234	 1.3248573061	-0.6953611184	 0.125041
H	-0.2825926766	 1.5899685723	-1.1872527964	 0.114223
H	 0.2415746017	 2.0395422419	 0.4365269352	 0.116465
H	-1.0388513519	-0.107256735	 0.4858607444	 0.084433
H	 1.052794231	-1.1577317407	-1.4928288749	 0.128845
H	-0.231460952	-2.1190229963	-0.763623795	 0.116266
H	-0.6431208068	-0.7763045139	-1.8506831288	 0.098926
H	 3.1378908997	-2.4413647725	 1.7765459281	 0.302761
H	 0.8497883219	-0.853815395	 3.4108004875	 0.112317
H	 1.432793519	 1.4219984907	 4.1052207417	 0.118494
H	 1.3323711069	 2.0185123236	 2.3891905717	 0.121638
H	-1.0843922912	 1.3076362874	 2.2696799662	 0.118081
H	-1.0036086301	 0.6975468949	 3.9788974987	 0.114471
58.8712	84.0395	175.627	195.7575	227.1615	235.6562	254.9475	277.3572	342.5603	351.7143	402.9287	440.2521	510.5656	598.8234	657.9391	714.647	792.9433	839.2875	873.6632	909.0539	932.4929	954.6781	968.729	978.6647	1036.4893	1061.1474	1083.9145	1122.0771	1130.3736	1141.2606	1186.482	1200.7266	1218.1244	1264.9527	1333.6365	1360.6496	1381.936	1397.325	1406.9654	1423.5882	1469.9799	1485.1031	1488.6843	1497.4683	1510.1563	1512.3228	1702.789	3017.9915	3035.4035	3042.6287	3103.0496	3112.3181	3115.2271	3127.438	3138.4141	3143.4044	3174.1863	3216.5284	3232.4151	3822.68
CC(C)C(=NO)C1CC1	CC(C)C(=NO)C1CC1	
InChI=1S/C7H13NO/c1-5(2)7(8-9)6-3-4-6/h5-6,9H,3-4H2,1-2H3	InChI=1S/C7H13NO/c1-5(2)7(8-9)6-3-4-6/h5-6,9H,3-4H2,1-2H3
