15
gdb 128439	4.55498	1.0783	0.87671	2.0776	70.84	-0.2589	-0.0411	0.2177	1257.6568	0.114268	-453.999177	-453.991081	-453.990137	-454.032607	28.439	
C	-0.0686251817	 1.2913304177	-0.0856937177	-0.244872
O	 0.0315695375	-0.1327993378	 0.0432282455	-0.262401
C	 0.6848976251	-0.5664940961	 1.1486815167	 0.397436
O	 1.1596744128	 0.1630709056	 1.9830455766	-0.371367
C	 0.7309852192	-2.0311217166	 1.1835757418	 0.264289
C	 1.2901336868	-2.8901697197	 2.1147586599	-0.283899
C	 1.0202696776	-4.1747253647	 1.6144764166	-0.003331
N	 0.3455503911	-4.1272636809	 0.4607973412	-0.210406
N	 0.1832623547	-2.8238666935	 0.2223294043	-0.253038
H	 0.9251446925	 1.7432043127	-0.133186657	 0.146679
H	-0.6139459476	 1.4676790937	-1.0126606218	 0.135537
H	-0.6083834275	 1.716533364	 0.7639369081	 0.146704
H	 1.8102752638	-2.6045781625	 3.0135646189	 0.131571
H	 1.2842684602	-5.1321649997	 2.0376652095	 0.122042
H	-0.3038084147	-2.512495692	-0.6019465827	 0.285057
82.9673	106.7042	132.8187	145.0667	232.4102	311.2104	404.391	489.6105	573.1846	638.8848	702.1001	781.9334	804.9831	843.8379	909.8102	937.7248	969.8801	1041.3973	1059.1781	1136.9531	1179.4917	1185.8771	1214.529	1267.9041	1305.3779	1358.5047	1447.8508	1472.3851	1476.2036	1481.3546	1498.6123	1594.1035	1813.5313	3054.4303	3130.5343	3161.9465	3253.6349	3285.9913	3670.4852
COC(=O)C1=CC=NN1	COC(=O)c1ccn[nH]1	
InChI=1S/C5H6N2O2/c1-9-5(8)4-2-3-6-7-4/h2-3H,1H3,(H,6,7)	InChI=1S/C5H6N2O2/c1-9-5(8)4-2-3-6-7-4/h2-3H,1H3,(H,6,7)
