20
gdb 59510	2.42439	1.14274	0.86483	4.5346	77.94	-0.2539	0.027	0.2809	1382.4069	0.168728	-440.262619	-440.252575	-440.251631	-440.298196	36.239	
C	 0.2411692418	 1.183341105	-0.1706132307	-0.401931
C	 0.0290986138	-0.2907775492	 0.1740357028	 0.107323
O	 0.5943498923	-0.6081426624	 1.44934999	-0.43174
C	-1.4326676528	-0.6876084539	 0.118467101	-0.04523
C	-2.0799619466	-1.085363101	-1.1932226928	-0.327556
C	-1.8459303258	-2.1174601657	-0.1375522378	 0.094304
O	-0.8781926507	-3.0885689125	-0.4462192641	-0.195886
C	-0.2078414128	-3.6184629819	 0.6091972158	 0.131158
N	 0.5234408905	-4.6296702033	 0.4274938937	-0.441984
H	 1.301657862	 1.4392037965	-0.100117512	 0.12785
H	-0.1086652175	 1.4058226761	-1.1830228206	 0.124458
H	-0.3148348763	 1.8280885257	 0.522121237	 0.104843
H	 0.5882520579	-0.9123131871	-0.5324376539	 0.110395
H	 0.1959601863	-0.0189416462	 2.0998105961	 0.275729
H	-2.0641343281	-0.1405407958	 0.8174454267	 0.079855
H	-3.0949974292	-0.7702387322	-1.4048394869	 0.11954
H	-1.4325774276	-1.1488671516	-2.0617582763	 0.134643
H	-2.7013570463	-2.5129998427	 0.405212608	 0.102635
H	-0.3603234451	-3.0663264311	 1.5420847652	 0.103006
H	 0.9768986042	-4.884686797	 1.3028456191	 0.228589
64.1245	68.7832	107.5942	158.6365	167.9172	239.768	271.0996	286.4479	340.4936	376.5645	450.2822	506.3771	554.0616	661.2583	778.5465	819.217	829.2082	857.8877	906.7047	986.4068	991.9391	1038.4712	1042.9047	1066.8891	1083.9833	1088.1433	1108.2623	1129.9042	1176.4512	1186.1892	1240.1508	1284.7355	1289.9634	1323.3795	1384.0316	1402.8428	1416.156	1421.2308	1429.5478	1484.8906	1491.3474	1494.6053	1744.362	3024.642	3068.3584	3077.9811	3097.9843	3113.704	3123.4682	3130.074	3138.6287	3226.551	3512.7094	3796.9706
CC(O)C1CC1OC=N	C[C@@H](O)[C@H]1C[C@H]1O[CH][NH]	
InChI=1S/C6H11NO2/c1-4(8)5-2-6(5)9-3-7/h3-8H,2H2,1H3	InChI=1S/C6H11NO2/c1-4(8)5-2-6(5)9-3-7/h3-8H,2H2,1H3/t4-,5-,6-/m1/s1
