17
gdb 104958	2.52642	1.34842	1.03365	5.0832	74.05	-0.2739	-0.0835	0.1904	1183.2459	0.134519	-418.003877	-417.994574	-417.99363	-418.038379	33.183	
C	-0.3900961671	 1.1582008304	-0.6260557946	-0.389105
C	-0.3195120214	-0.2018035159	 0.0814038352	-0.273669
C	 0.6829640617	-0.2397361516	 1.2199347934	 0.19211
C	 1.5148133911	-1.472940381	 1.4467211487	-0.28061
N	 2.1378638108	-0.2543812883	 0.9505364774	-0.327568
C	 0.3090726842	 0.5551345431	 2.430080063	 0.296141
O	-0.7848682827	 1.0289322062	 2.6187298062	-0.287427
C	 1.3658029368	 0.7259653365	 3.4545064235	 0.245242
N	 2.1350960748	 0.8678114009	 4.3056266459	-0.320032
H	 0.5834244957	 1.449275284	-1.0348543764	 0.117544
H	-1.1016886593	 1.1197031175	-1.4554855724	 0.123954
H	-0.717604648	 1.9415668789	 0.0616880611	 0.14658
H	-1.3063192661	-0.4608211609	 0.4783292288	 0.130086
H	-0.0507106943	-0.984789836	-0.6373258294	 0.098196
H	 1.8101329461	-1.7623148594	 2.4510124133	 0.149064
H	 1.3257674718	-2.2985664334	 0.765609106	 0.132676
H	 2.2885683258	-0.301139531	-0.0545953298	 0.246819
50.7968	102.9206	143.1932	188.0409	217.4867	241.5203	291.9513	323.8109	349.9031	456.5509	475.159	566.37	667.3961	737.5992	763.2358	839.2532	861.623	939.9738	967.6594	996.3095	1034.0698	1079.1409	1112.2004	1122.8197	1143.9617	1246.3972	1281.0535	1327.1854	1378.6782	1394.1586	1413.6772	1473.5422	1497.3327	1507.4463	1510.4179	1780.6442	2341.3605	3038.2488	3043.0901	3083.0604	3111.1636	3112.287	3130.1466	3202.7186	3501.3882
CCC1(CN1)C(=O)C#N	CC[C@]1(CN1)C(=O)C#N	
InChI=1S/C6H8N2O/c1-2-6(4-8-6)5(9)3-7/h8H,2,4H2,1H3	InChI=1S/C6H8N2O/c1-2-6(4-8-6)5(9)3-7/h8H,2,4H2,1H3/t6-/m0/s1
