17
gdb 51138	4.40237	1.05839	0.95538	3.9156	74.15	-0.2453	0.0032	0.2484	1221.2104	0.135767	-421.841442	-421.833649	-421.832704	-421.874102	29.58	
O	 0.0668760049	 0.0184596036	-0.2529104934	-0.271453
C	 0.1181959487	 1.2088921623	-0.3181769563	 0.15176
O	 1.0581610662	 1.9310174392	 0.3335852076	-0.232913
C	 0.9785836953	 3.3356233344	 0.2112054686	 0.415826
C	 1.2604150295	 3.9701163516	-1.1226353693	-0.333745
C	 2.2496088318	 4.130914489	 0.0267431018	-0.144601
C	 2.0680958373	 5.3463167686	 0.8728624248	-0.071032
C	 0.8908986928	 5.3366218042	 1.5036489841	-0.079022
C	 0.1053771114	 4.0723540999	 1.2262686293	-0.332368
H	-0.5730356969	 1.8401450025	-0.9067199753	 0.084808
H	 1.5568690784	 3.2965119109	-1.9198685801	 0.126809
H	 0.6794688622	 4.832011292	-1.4344602046	 0.12263
H	 3.2119906386	 3.6401735832	-0.059608983	 0.110515
H	 2.8071972151	 6.1366272391	 0.9281978448	 0.10464
H	 0.5112405799	 6.1248500356	 2.1426868433	 0.10316
H	-0.9035577691	 4.274973586	 0.8462092364	 0.115423
H	-0.0126481861	 3.4600160579	 2.1299790413	 0.129564
75.0832	139.3266	151.3114	274.2871	328.442	370.3453	405.4536	487.3583	522.7657	700.3523	735.1089	757.7378	783.3015	879.0275	913.6679	942.238	956.8179	974.6395	1001.2205	1011.8038	1046.8514	1052.822	1071.6661	1072.9954	1143.0968	1148.8746	1189.7517	1234.0272	1264.081	1314.2903	1366.5313	1380.1573	1421.5124	1465.3825	1480.8358	1667.6577	1868.6686	2969.9472	3023.2264	3055.5702	3126.8629	3184.2669	3195.7899	3218.868	3220.7617
O=COC12CC1C=CC2	O=CO[C@]12C[C@H]1C=CC2	
InChI=1S/C7H8O2/c8-5-9-7-3-1-2-6(7)4-7/h1-2,5-6H,3-4H2	InChI=1S/C7H8O2/c8-5-9-7-3-1-2-6(7)4-7/h1-2,5-6H,3-4H2/t6-,7-/m1/s1
