14
gdb 44523	4.5556	1.37496	1.23646	3.6906	70.8	-0.251	-0.0512	0.1998	975.1872	0.101841	-436.620792	-436.614389	-436.613444	-436.65166	25.309	
N	-0.1102665169	 1.2176325506	 0.259148734	-0.534216
C	-0.0427714937	-0.018881898	 0.0134624101	 0.41182
O	 1.1465198423	-0.7139438253	-0.2236924498	-0.260974
C	 0.7894445085	-2.0285807882	-0.6062578377	 0.052843
C	 1.0127236681	-3.377446544	 0.1445193177	-0.026852
O	 0.2911269751	-3.4100878915	 1.3711640017	-0.216387
C	-0.4621434148	-3.5974060374	 0.1582272543	-0.076093
C	-0.6709444868	-2.1693981304	-0.3073195261	 0.186108
C	-1.1746092638	-0.983915517	 0.0276709556	-0.264947
H	 0.8194911319	 1.6385214898	 0.2710589044	 0.229661
H	 1.0503405652	-2.1933589626	-1.6612157012	 0.110215
H	 1.8269431288	-4.0817256076	 0.0219526418	 0.118906
H	-1.0506818	-4.4983711257	 0.0551784408	 0.130772
H	-2.1469107038	-0.7041310526	 0.4047746244	 0.139143
114.912	221.8324	264.5418	365.2935	499.1702	583.3471	627.5218	674.5889	718.7451	765.5467	828.9413	841.7377	861.115	871.4845	887.3313	910.0413	938.1399	982.9378	1022.0989	1028.7436	1080.6804	1102.3947	1182.5177	1212.4864	1241.7945	1253.6207	1287.6002	1334.7535	1366.9406	1700.4877	1757.2194	3014.2071	3193.8647	3224.474	3253.7895	3488.2005
N=C1OC2C3OC3C2=C1	[NH]C1=C[C]2[C@@H](O1)[C@H]1O[C@@H]21	
InChI=1S/C6H5NO2/c7-3-1-2-4(8-3)6-5(2)9-6/h1,4-7H	InChI=1S/C6H5NO2/c7-3-1-2-4(8-3)6-5(2)9-6/h1,4-7H/t4-,5+,6-/m1/s1
