16
gdb 129968	5.72062	0.97529	0.89213	2.3897	72.29	-0.2346	0.0063	0.2408	1291.7057	0.125853	-434.0679	-434.060002	-434.059058	-434.1014	29.557	
N	-0.032905367	 1.3320448828	-0.079606273	-0.59425
C	-0.0561157887	-0.0234010861	 0.0017318813	 0.492846
N	-1.0944986476	-0.8091616058	-0.0867618198	-0.396406
C	-0.5232414632	-2.0437216893	 0.133756705	 0.380722
N	 0.7705084811	-2.0324424733	 0.3389524777	-0.222862
O	 1.0956178269	-0.6496776063	 0.2498272648	-0.207759
C	-1.3250960432	-3.2788014779	 0.1330972708	-0.106724
C	-0.7309060078	-4.5728804173	-0.3924459493	-0.258049
C	-0.9730421846	-4.4149931968	 1.0761652516	-0.25721
H	 0.8537801705	 1.7567030816	-0.2996825144	 0.275557
H	-0.8396119847	 1.7474389356	-0.5168843111	 0.279973
H	-2.3746417181	-3.0948099807	-0.0591168444	 0.104087
H	-1.3843922914	-5.2238828993	-0.9622673716	 0.116303
H	 0.292635712	-4.5242695584	-0.744988617	 0.138282
H	-0.1134387351	-4.2591311201	 1.7172862264	 0.138807
H	-1.7954868791	-4.9556292487	 1.5309154228	 0.116682
23.1669	154.9783	169.3479	283.8536	323.2708	376.4311	419.596	471.1256	475.0972	639.9317	723.8651	765.0706	786.5975	797.9486	829.531	910.1777	915.0797	921.4432	1013.064	1039.1876	1066.3415	1089.4804	1107.6839	1126.3538	1133.6905	1207.6385	1222.2979	1286.6402	1406.8271	1464.2621	1471.5923	1500.6534	1572.9983	1604.5079	1683.7935	3139.7162	3142.8424	3193.0614	3225.907	3241.1304	3600.8158	3716.1471
NC1=NC(=NO1)C1CC1	Nc1nc(no1)C1CC1	
InChI=1S/C5H7N3O/c6-5-7-4(8-9-5)3-1-2-3/h3H,1-2H2,(H2,6,7,8)	InChI=1S/C5H7N3O/c6-5-7-4(8-9-5)3-1-2-3/h3H,1-2H2,(H2,6,7,8)
