12
gdb 21125	5.2983	1.63738	1.26051	2.3234	65.11	-0.2571	-0.0931	0.1641	890.2738	0.081646	-410.734461	-410.727263	-410.726319	-410.766679	25.079	
C	 0.0278664917	 1.4450341398	-0.1000016785	-0.342241
N	-0.0118791857	-0.0025667497	-0.1407307745	-0.266692
C	-1.0934821301	-0.6381168952	 0.057258168	 0.363287
C	-1.1477634365	-2.083955809	 0.0195181486	 0.021965
N	-2.2152749386	-2.7701645601	 0.2128791211	-0.042497
O	-3.3689776494	-2.0714814739	 0.4704091666	-0.241492
N	-3.3816145664	-0.6127151758	 0.5221918645	 0.067133
N	-2.3452448447	 0.0085896265	 0.332953918	-0.156275
H	 0.7615683851	 1.7445301291	 0.6570226494	 0.145469
H	 0.4130185113	 1.8024603863	-1.061773128	 0.145467
H	-0.9313400768	 1.9265590286	 0.1107476039	 0.1444
H	-0.2419705698	-2.6469130366	-0.1831978791	 0.161475
43.4282	123.0093	207.9258	243.2382	421.7591	432.9929	468.8285	481.5954	581.866	667.5464	767.8953	773.5643	886.6367	945.7949	1009.3608	1067.3272	1122.5814	1149.374	1268.9886	1330.5142	1427.7461	1484.7876	1486.808	1615.1811	1685.1218	1732.9194	3026.0829	3083.4518	3112.0624	3190.1807
CN=C1C=NON=N1	C[N]C1=N[N]ON=C1	
InChI=1S/C3H4N4O/c1-4-3-2-5-8-7-6-3/h2H,1H3	InChI=1S/C3H4N4O/c1-4-3-2-5-8-7-6-3/h2H,1H3
