13
gdb 23918	3.42221	1.62002	1.44664	2.2977	47.28	-0.2883	0.0712	0.3595	866.2175	0.09072	-530.087946	-530.080345	-530.079401	-530.120645	26.876	
C	-0.1195309969	 1.5339590917	-0.1744975529	-0.4343
C	-0.0541090804	 0.049699602	 0.0741075472	 0.087047
O	 1.2050341998	-0.6203208728	-0.1006495202	-0.239538
C	 0.6295663898	-0.6162881508	 1.193872083	-0.116324
C	 1.3918946825	 0.1028841235	 2.2865011996	 0.278816
F	 2.0841764828	 1.1563316612	 1.8472741687	-0.064724
F	 0.542341205	 0.5272788935	 3.236405966	-0.075951
F	 2.2594894513	-0.7353130901	 2.8721159103	-0.074579
H	 0.7360824702	 2.0557359644	 0.2501696482	 0.149098
H	-0.1479639276	 1.7234119319	-1.2521162823	 0.134779
H	-1.0377921191	 1.9422887534	 0.2606193994	 0.131796
H	-0.8914651587	-0.513471355	-0.342830531	 0.103313
H	 0.2534281513	-1.575665703	 1.550933894	 0.120566
43.5247	158.4355	200.418	219.7069	290.9863	391.1238	406.0609	479.412	527.7721	606.6245	690.6929	787.8843	811.8369	896.9322	1007.0198	1030.7507	1095.2673	1161.3811	1171.2493	1189.5399	1195.9502	1281.8537	1320.5408	1406.2539	1425.6413	1474.7797	1498.0395	1515.8851	3048.3362	3090.6151	3106.36	3114.5095	3176.1339
CC1OC1C(F)(F)F	C[C@H]1O[C@H]1C(F)(F)F	
InChI=1S/C4H5F3O/c1-2-3(8-2)4(5,6)7/h2-3H,1H3	InChI=1S/C4H5F3O/c1-2-3(8-2)4(5,6)7/h2-3H,1H3/t2-,3-/m1/s1
