19
gdb 94657	3.79588	0.80014	0.72415	3.4148	73.32	-0.2572	0.0032	0.2604	1559.5164	0.157539	-460.163166	-460.153625	-460.152681	-460.199208	32.973	
C	-0.3614896762	 1.4104948394	-0.1988923425	-0.409974
C	 0.23159341	 0.0243705714	-0.0408425846	 0.141053
O	 1.6170676187	-0.0432591049	-0.4542118164	-0.288155
C	 1.9665625265	-0.8285096516	 0.7036353298	-0.082338
C	 0.594890324	-0.5582550478	 1.3553727466	-0.060734
C	 0.6158292516	 0.4214075783	 2.5155435619	-0.105431
O	 1.1039874194	-0.2501376543	 3.6854634871	-0.180297
C	 2.2021604974	 0.2334724826	 4.2969878724	 0.170048
O	 2.668920448	-0.2654735798	 5.2752645341	-0.271468
H	 0.1986186227	 2.1632759277	 0.3623379771	 0.12123
H	-0.3379886481	 1.6962169621	-1.2550841318	 0.13617
H	-1.4057813993	 1.4257996693	 0.1309486126	 0.121449
H	-0.3689714454	-0.6949714372	-0.6174733621	 0.078892
H	 2.1497038634	-1.8801310849	 0.449162261	 0.10784
H	 2.848864772	-0.4312154651	 1.220119262	 0.103958
H	 0.0287191964	-1.4445955154	 1.6481611214	 0.095305
H	 1.2499496396	 1.2887106455	 2.2926588086	 0.11768
H	-0.3907646052	 0.7845370786	 2.7471371454	 0.125508
H	 2.6119835445	 1.1319234263	 3.7941798275	 0.079265
41.8112	65.7211	78.4225	133.1655	182.1984	213.084	257.8869	365.6562	384.4481	425.5937	485.8237	670.9792	740.1738	855.9574	876.3726	893.3584	936.2978	999.5048	1021.37	1044.5151	1045.0945	1087.2799	1106.9105	1148.1273	1154.1275	1168.6411	1217.3756	1239.1383	1290.0773	1307.3947	1355.0004	1374.0708	1389.9372	1406.3712	1409.1254	1435.371	1480.4553	1495.4368	1506.7424	1528.0163	1868.2802	2941.154	2985.7643	3014.6084	3024.6196	3039.5211	3056.5158	3077.3795	3098.1635	3109.1322	3119.2522
CC1OCC1COC=O	C[C@H]1OC[C@H]1COC=O	
InChI=1S/C6H10O3/c1-5-6(3-9-5)2-8-4-7/h4-6H,2-3H2,1H3	InChI=1S/C6H10O3/c1-5-6(3-9-5)2-8-4-7/h4-6H,2-3H2,1H3/t5-,6-/m1/s1
