14
gdb 125116	3.34048	1.31359	0.94843	4.566	68.16	-0.2416	-0.0697	0.1719	1142.6459	0.100249	-470.017979	-470.009775	-470.008831	-470.050893	29.201	
C	-0.0373369314	 1.5735081344	 0.0941963634	-0.514402
C	 0.0170578009	 0.0888952183	-0.0155442837	 0.25523
C	 0.0553822148	-0.735482309	-1.1062330433	 0.295921
O	 0.0528682759	-0.3818647382	-2.4026760237	-0.426064
N	 0.0993156789	-2.0419764018	-0.7071398079	-0.249917
N	 0.0912289288	-2.0977473218	 0.5834822657	-0.113289
N	 0.0411722627	-0.8111195304	 1.0367209049	-0.081795
C	 0.0197348584	-0.5202357616	 2.4158303977	 0.191732
O	 0.0427257347	-1.3413723999	 3.2834936318	-0.242777
H	 0.8297086234	 1.983986614	 0.6236900354	 0.147455
H	-0.0442272402	 1.9968674096	-0.9123747656	 0.163914
H	-0.9403419241	 1.9202208589	 0.6089826504	 0.147464
H	 0.0863530783	-1.1962722996	-2.9207004736	 0.313966
H	-0.0207419113	 0.5691796271	 2.5869520985	 0.112561
104.7753	152.8464	178.1034	205.2261	250.8278	275.3064	361.0107	367.6307	412.6726	536.5225	660.1731	666.101	738.3681	785.7328	818.6237	966.1066	1028.056	1066.1099	1118.8156	1142.351	1193.1186	1305.1791	1344.7851	1405.2076	1420.8193	1439.2567	1477.7447	1486.3626	1498.2437	1706.6029	1853.131	2994.8411	3031.9969	3083.7191	3132.5364	3795.2975
CC1=C(O)N=NN1C=O	Cc1c(O)nnn1C=O	
InChI=1S/C4H5N3O2/c1-3-4(9)5-6-7(3)2-8/h2,9H,1H3	InChI=1S/C4H5N3O2/c1-3-4(9)5-6-7(3)2-8/h2,9H,1H3
