19
gdb 83615	2.44424	1.897	1.25582	0.9877	74.94	-0.2435	0.06	0.3034	1029.8633	0.159659	-422.960844	-422.953131	-422.952187	-422.992918	30.028	
C	-0.1150373067	 1.5401910715	 0.0217722694	-0.410974
C	 0.0513666216	 0.0276039301	-0.0006024858	-0.021843
C	 1.152851317	-0.5718015435	-0.9214190811	 0.064677
O	 0.8310258658	-1.8857015324	-1.4459543977	-0.29757
C	 1.6970799055	-2.5475418598	-0.4862367792	-0.19178
C	 1.8680017834	-1.2466403674	 0.2756514506	 0.255657
C	 2.8881222157	-0.5409928533	 1.1472743555	-0.186182
O	 1.8256908423	 0.2088120962	 1.7950576735	-0.29388
C	 0.7933475172	-0.6236356828	 1.2040373573	 0.05891
H	 0.8265792693	 2.0325277348	 0.2785627202	 0.130725
H	-0.446932482	 1.9078314499	-0.9547699448	 0.115477
H	-0.8587803514	 1.8423207388	 0.7663860969	 0.119602
H	-0.9021787306	-0.4736784356	-0.1965273971	 0.08682
H	 1.6380742955	 0.0678628476	-1.666673553	 0.071399
H	 1.1972618794	-3.3762655558	 0.0290508906	 0.108418
H	 2.6114453615	-2.9222697144	-0.9674832929	 0.104324
H	 3.4103854103	-1.1882058981	 1.8658717975	 0.10467
H	 3.6181345298	 0.109058789	 0.6509310217	 0.10884
H	 0.2218122565	-1.1645055649	 1.9651485985	 0.07271
103.3099	202.6837	231.1202	236.2212	254.2608	332.244	366.384	507.6388	534.5932	676.0277	762.8444	803.2843	863.1123	874.1686	916.801	958.5926	965.4807	975.3669	994.489	1008.8669	1054.5626	1096.064	1119.0184	1128.4429	1137.0823	1168.3079	1175.7203	1194.3458	1244.0119	1263.3734	1268.889	1287.241	1314.3167	1338.4212	1356.5661	1395.7913	1407.8623	1489.8532	1502.7997	1518.534	1521.6028	2998.3568	3002.1252	3036.3717	3047.9449	3050.9786	3054.907	3056.6969	3063.5934	3100.8243	3120.1882
CC1C2OCC22COC12	C[C@H]1[C@@H]2OC[C@]32CO[C@@H]13	
InChI=1S/C7H10O2/c1-4-5-7(2-8-5)3-9-6(4)7/h4-6H,2-3H2,1H3	InChI=1S/C7H10O2/c1-4-5-7(2-8-5)3-9-6(4)7/h4-6H,2-3H2,1H3/t5-,6-,7+/m0/s1
