16
gdb 42227	3.57499	1.16613	0.93183	3.7123	79.01	-0.2437	-0.0393	0.2044	1228.3664	0.123005	-400.685495	-400.677286	-400.676342	-400.718763	30.432	
O	-0.1432343586	 0.0306409772	 0.3460692804	-0.330604
C	-0.1014822083	 1.1838279063	-0.0303499903	 0.225861
C	 1.1187680222	 1.9742020867	 0.0010921196	 0.260869
C	 2.1412012228	 2.6044322086	 0.0635262923	-0.424949
N	-1.1724011974	 1.8492111493	-0.6088407885	-0.095984
C	-1.7877194435	 3.0532095939	-0.0551302539	-0.044596
C	-2.6988823524	 3.6316891206	-1.1447335964	-0.238148
C	-3.4687984246	 2.2609169246	-1.1795801861	-0.243561
C	-2.5243459812	 1.7354819328	-0.0891207021	-0.03001
H	 3.0506300668	 3.1516129573	 0.1186382467	 0.211114
H	-1.3157691663	 3.5604863717	 0.7776464161	 0.117954
H	-3.3248161571	 4.4481142128	-0.7792870611	 0.113417
H	-2.1927704997	 3.9411760286	-2.0613781296	 0.118241
H	-4.4988620019	 2.3575488839	-0.8315751783	 0.114559
H	-3.4508359152	 1.7051625844	-2.1191117311	 0.119765
H	-2.7229864855	 1.0272963515	 0.7050269723	 0.126071
71.2193	107.3573	139.3735	220.6084	273.9395	296.6471	383.2518	528.1423	582.7362	654.202	690.9495	701.0387	749.1565	768.9372	788.8205	849.2852	890.0511	927.6128	953.4318	985.7965	1013.2635	1055.2709	1083.6683	1133.3702	1181.6268	1220.1799	1237.2502	1251.3754	1287.6542	1304.4776	1415.0402	1467.9298	1487.9401	1749.0815	2223.1851	3072.4479	3079.2015	3124.3224	3140.3978	3194.1706	3211.7802	3496.6914
O=C(C#C)N1C2CCC12	O=C(C#C)N1[C@H]2CC[C@@H]12	
InChI=1S/C7H7NO/c1-2-7(9)8-5-3-4-6(5)8/h1,5-6H,3-4H2	InChI=1S/C7H7NO/c1-2-7(9)8-5-3-4-6(5)8/h1,5-6H,3-4H2/t5-,6+,8?
