15
gdb 29378	4.9488	0.91018	0.84964	3.8827	72.28	-0.2497	-0.0134	0.2362	1349.967	0.112913	-416.862407	-416.854099	-416.853155	-416.896474	29.206	
C	 0.2113497702	 1.5260510852	-0.0738297116	-0.49201
C	 0.0279366671	 0.0473913455	-0.0344023414	 0.248736
C	-0.3251523376	-0.8130452372	-1.0197435683	-0.1131
O	-0.3624947183	-2.0798249308	-0.4975767266	-0.165755
C	-0.0270822774	-1.9119557307	 0.8000817596	 0.390384
C	 0.047107574	-3.1272907724	 1.6709764488	-0.434946
C	-1.2230410588	-3.8525737537	 1.7613982349	 0.266763
N	-2.2197456284	-4.4307911285	 1.8346819546	-0.297138
N	 0.2146055054	-0.6884055795	 1.1381875854	-0.336865
H	 1.2303615374	 1.8002588676	 0.2178996688	 0.14282
H	 0.0220738447	 1.918282462	-1.0760331355	 0.128571
H	-0.4703707797	 2.0212105844	 0.6252188388	 0.145354
H	-0.5702189322	-0.7173730253	-2.0633108231	 0.15152
H	 0.8137973582	-3.8177567303	 1.298791374	 0.176037
H	 0.3522980355	-2.7993261063	 2.6677232216	 0.189631
34.9579	96.753	135.834	215.4116	250.8379	328.345	375.1741	389.163	476.5215	632.843	659.1313	711.4935	764.5549	798.5199	916.43	940.0106	977.7796	1015.8171	1028.5971	1068.5518	1131.18	1204.8447	1237.336	1290.5713	1328.2131	1369.9546	1419.7835	1446.8546	1475.3189	1490.1666	1615.6666	1642.0442	2371.4158	3041.3935	3044.6395	3098.8593	3116.3701	3125.8745	3295.6599
CC1=COC(CC#N)=N1	Cc1coc(CC#N)n1	
InChI=1S/C6H6N2O/c1-5-4-9-6(8-5)2-3-7/h4H,2H2,1H3	InChI=1S/C6H6N2O/c1-5-4-9-6(8-5)2-3-7/h4H,2H2,1H3
