17
gdb 110762	2.45064	1.32404	1.11674	2.1684	69.15	-0.2246	0.006	0.2306	1143.0885	0.135997	-455.117908	-455.109019	-455.108075	-455.151859	32.812	
N	-0.1203856856	 1.5017832397	-0.0675625022	-0.600658
C	-0.052222266	 0.0879338041	 0.0031131911	 0.128948
C	-0.2694252955	-0.7680123979	-1.2536681311	-0.034779
C	 0.6964080215	-1.811783797	-1.7546815864	-0.126425
O	-0.0605728214	-2.7960157768	-2.447004216	-0.417213
C	-1.1724433489	-0.9513998267	-0.0724158665	-0.042959
N	-0.5359256311	-1.7102634791	 1.0074379985	-0.340584
C	 0.556004976	-0.8202625275	 1.081316677	 0.330434
O	 1.54542712	-0.8216118389	 1.7587764377	-0.344867
H	-0.2679863893	 1.9058236861	 0.8519370402	 0.243439
H	 0.7435139931	 1.8905583125	-0.4322842877	 0.243241
H	-0.7268276931	-0.1747073993	-2.0429643798	 0.112018
H	 1.432498733	-1.3317405098	-2.4175512156	 0.095797
H	 1.2576591634	-2.2551476212	-0.9193974502	 0.100401
H	 0.554209015	-3.3999329027	-2.8746564455	 0.289777
H	-2.2403281926	-0.7821133394	-0.076130767	 0.117502
H	-0.4119082584	-2.716149336	 0.9766618435	 0.245929
49.529	116.9894	172.4439	238.6448	246.7395	273.1453	300.09	315.8286	431.4711	508.9211	559.6354	649.7095	701.9646	741.4269	754.5538	799.7871	840.5242	919.3128	936.9164	979.9794	1000.3936	1066.7705	1082.6448	1102.0244	1147.9971	1206.6012	1241.6618	1254.8672	1273.8518	1307.0919	1315.942	1351.0867	1445.2211	1488.817	1519.6403	1663.6773	1886.2147	2983.3388	3013.0552	3143.8835	3216.664	3500.12	3547.4751	3574.1013	3825.0483
NC12C(CO)C1NC2=O	N[C@]12[C@@H](CO)[C@H]1NC2=O	
InChI=1S/C5H8N2O2/c6-5-2(1-8)3(5)7-4(5)9/h2-3,8H,1,6H2,(H,7,9)	InChI=1S/C5H8N2O2/c6-5-2(1-8)3(5)7-4(5)9/h2-3,8H,1,6H2,(H,7,9)/t2-,3+,5+/m0/s1
