25
gdb 86538	3.06995	0.96768	0.91646	1.3128	88.84	-0.2583	0.065	0.3233	1469.9103	0.226661	-389.495263	-389.484584	-389.48364	-389.530327	41.059	
C	-0.3889462817	 1.4090709964	 0.2105565509	-0.389763
C	-0.1342212034	-0.0880273155	 0.3595861121	 0.026963
C	 0.858502474	-0.6751238051	-0.6877588239	-0.268312
C	 1.982813449	-0.6359078988	 0.3889489735	 0.06621
C	 0.8857398929	-0.4605704143	 1.4756029383	-0.256226
C	 2.9524913163	-1.8240903683	 0.5110173908	 0.306378
C	 3.8271896826	-1.9357114126	-0.7455038466	-0.42562
C	 3.8176645692	-1.6728025745	 1.7650097418	-0.394233
O	 2.2310459146	-3.0487178877	 0.7062174261	-0.458468
H	 0.5501888415	 1.9707414183	 0.1434221377	 0.111488
H	-0.9687494649	 1.6245762368	-0.6939338368	 0.110428
H	-0.9470288186	 1.8008039118	 1.0681860044	 0.112506
H	-1.0917887997	-0.6139295006	 0.4223851775	 0.064154
H	 0.5868374171	-1.6976299268	-0.9713534331	 0.076394
H	 1.0151381491	-0.0969119805	-1.6029962752	 0.092012
H	 2.5757680857	 0.2787264502	 0.2806012716	 0.062874
H	 1.0597761385	 0.2869058275	 2.2548435659	 0.087191
H	 0.6514169539	-1.4195023686	 1.9442162964	 0.111402
H	 4.4407915784	-1.0397777363	-0.8845073917	 0.1135
H	 4.4910428146	-2.8019132519	-0.6690394812	 0.118864
H	 3.2100777675	-2.0555332587	-1.6439167377	 0.107774
H	 3.1904328874	-1.6361449259	 2.6597724568	 0.12497
H	 4.496476927	-2.5248969126	 1.8610459426	 0.116289
H	 4.4119798753	-0.7553457239	 1.7197166232	 0.107534
H	 1.8039273937	-3.2761143887	-0.1259200733	 0.275692
73.0912	92.9662	155.7628	212.2646	230.9603	248.0392	258.4491	291.4068	304.0472	320.9828	377.5511	387.6054	410.758	491.3661	553.7079	619.2773	782.3871	814.3872	835.4867	882.7593	903.8095	932.1774	939.1198	957.7854	965.4429	999.6382	1007.1265	1046.3427	1071.1017	1126.7798	1134.0267	1146.7398	1202.8072	1228.8884	1246.6031	1254.6352	1271.794	1280.5038	1285.6928	1342.615	1365.1055	1381.1875	1399.6338	1410.8987	1415.2281	1468.6773	1478.2837	1485.9618	1491.9647	1497.4347	1497.8382	1499.1999	1507.2553	3021.3268	3025.8274	3034.4751	3040.1167	3044.282	3046.8958	3056.6513	3087.1738	3089.7136	3092.0769	3092.951	3109.8974	3113.6017	3118.2174	3120.1126	3813.8228
CC1CC(C1)C(C)(C)O	C[C@H]1C[C@@H](C1)C(C)(C)O	
InChI=1S/C8H16O/c1-6-4-7(5-6)8(2,3)9/h6-7,9H,4-5H2,1-3H3	InChI=1S/C8H16O/c1-6-4-7(5-6)8(2,3)9/h6-7,9H,4-5H2,1-3H3/t6-,7-
