19
gdb 105621	2.04387	1.3517	1.20081	2.8954	76.	-0.2465	0.0205	0.267	1174.9165	0.159152	-419.195316	-419.185874	-419.18493	-419.229419	34.687	
C	-0.5908092434	 1.2925275194	-0.0327356017	-0.406904
C	 0.188162713	-0.0105561158	-0.0677250984	 0.018447
N	 1.5775298771	 0.067710498	-0.5774361335	-0.326628
C	 2.0248190577	-0.963625162	 0.3844623821	-0.198567
C	 0.7730784805	-0.6349993441	 1.2526368436	 0.11288
C	 1.0955181437	 0.3755817614	 2.3725083779	-0.118209
O	 1.9140118185	-0.1927387686	 3.3724286186	-0.419558
C	 0.0487873451	-1.7653335591	 1.8123900083	 0.215716
N	-0.5224058824	-2.647978681	 2.2956834149	-0.349445
H	-0.0304333722	 2.0847712642	 0.4691016415	 0.130199
H	-0.7965403661	 1.626675381	-1.0552379108	 0.124799
H	-1.5530588629	 1.1589857888	 0.4726778497	 0.126993
H	-0.4098047343	-0.7810189027	-0.5775633507	 0.083439
H	 1.6950620911	-0.1686603987	-1.5565937874	 0.225022
H	 2.0020375639	-1.9923806738	 0.0032363003	 0.110319
H	 2.9898907569	-0.7719070023	 0.8611243472	 0.13121
H	 1.6661022176	 1.1996790922	 1.9379671585	 0.136258
H	 0.162478229	 0.7818056449	 2.7880168671	 0.105696
H	 1.4032675272	-0.8696206917	 3.8314481228	 0.298332
97.4802	119.0986	147.1765	172.4112	199.9505	223.516	287.1731	330.1277	386.8044	430.3792	492.8234	538.9521	563.7671	621.8919	703.7762	815.5947	904.1991	931.3885	956.6165	1007.9757	1032.546	1036.9562	1083.7953	1092.7789	1133.7099	1141.792	1173.9581	1200.7005	1260.6118	1282.0329	1350.7235	1372.1866	1384.1003	1393.6582	1411.6827	1420.0041	1485.6671	1494.6217	1505.0789	1522.0872	2343.8447	2983.0457	3005.2884	3020.2311	3039.255	3091.9667	3102.6788	3107.9053	3128.944	3530.4726	3796.2985
CC1NCC1(CO)C#N	C[C@H]1NC[C@]1(CO)C#N	
InChI=1S/C6H10N2O/c1-5-6(2-7,4-9)3-8-5/h5,8-9H,3-4H2,1H3	InChI=1S/C6H10N2O/c1-5-6(2-7,4-9)3-8-5/h5,8-9H,3-4H2,1H3/t5-,6+/m1/s1
