21
gdb 76473	2.96756	1.04131	0.9734	2.9905	83.93	-0.2396	-0.0183	0.2213	1336.2579	0.179939	-387.092631	-387.082996	-387.082052	-387.127405	35.978	
C	 0.0291541623	 0.7356639347	-2.2048702872	-0.411094
C	 0.0767548673	-0.3463399195	-1.1477085406	-0.080972
C	 1.300560691	-0.6077157685	-0.2859801124	-0.080971
C	 2.5804081347	 0.1907721135	-0.4084406687	-0.411094
C	 0.0533243212	-0.0229755083	 0.3231590827	 0.324316
C	-0.0965570845	 1.3744194697	 0.9598685208	-0.426248
C	-0.9901957783	 0.7155055723	 2.029396655	 0.409046
O	-1.5748855582	 1.1314142762	 2.9860039257	-0.288604
C	-0.8403896712	-0.6796331384	 1.3932222932	-0.428481
H	 0.5527360691	 1.6433921937	-1.892836572	 0.11896
H	 0.4877092666	 0.3953415945	-3.1399176299	 0.120331
H	-1.0059958487	 1.0168122588	-2.4290692097	 0.118748
H	-0.4787846687	-1.2417409079	-1.421121632	 0.082329
H	 1.4674976523	-1.6574216283	-0.0506686104	 0.08233
H	 2.3911123829	 1.2507624397	-0.5983390679	 0.11896
H	 3.1711279786	 0.1246452896	 0.5121689765	 0.118749
H	 3.2039359243	-0.1847689446	-1.2273347956	 0.120332
H	 0.8145855766	 1.8256705612	 1.3673209821	 0.128855
H	-0.6150101151	 2.1308859394	 0.3608745124	 0.12886
H	-1.7859473621	-1.1061674224	 1.0400991705	 0.127826
H	-0.3547281101	-1.4120001351	 2.0478028274	 0.127821
38.6706	144.3966	160.9154	169.7532	179.7931	225.9537	249.6156	383.6355	415.4299	439.9882	487.6984	517.8216	549.4719	682.8976	716.3443	764.5984	778.6688	894.665	911.3899	983.0429	994.2672	1015.4585	1048.5117	1059.743	1092.9295	1093.162	1138.7429	1141.8709	1174.826	1189.4857	1199.4469	1217.1869	1222.8134	1323.0901	1368.0277	1413.8233	1420.8822	1428.3733	1443.9203	1463.975	1487.504	1493.0849	1500.3738	1513.5202	1896.5236	3028.9825	3032.6915	3037.1163	3044.1751	3086.0046	3086.4258	3087.7408	3090.6511	3098.922	3109.3613	3116.8691	3128.9008
CC1C(C)C11CC(=O)C1	C[C@H]1[C@@H](C)C21CC(=O)C2	
InChI=1S/C8H12O/c1-5-6(2)8(5)3-7(9)4-8/h5-6H,3-4H2,1-2H3	InChI=1S/C8H12O/c1-5-6(2)8(5)3-7(9)4-8/h5-6H,3-4H2,1-2H3/t5-,6+
