16
gdb 9606	5.21618	1.20982	1.11474	1.5164	67.7	-0.2591	0.0157	0.2747	1069.5747	0.127278	-383.682708	-383.673931	-383.672986	-383.715913	31.884	
C	-0.2643490675	 1.6430718215	 0.1097570907	-0.464122
C	-0.1961596609	 0.1358306334	 0.1142067098	 0.359022
C	-1.3808454598	-0.5915451618	-0.4974452499	-0.113149
O	-1.4807840066	-0.3184235956	-1.8837541253	-0.413917
O	 1.059622345	-0.4365057336	-0.2962761187	-0.287503
C	 0.6565610176	-0.6015706755	 1.0771755495	-0.228681
C	 1.4413310247	 0.0577294387	 2.0858411512	 0.335393
C	 2.0874010258	 0.5798111401	 2.9547589465	-0.410646
H	 0.6739418239	 2.0765346957	 0.4580211626	 0.139479
H	-0.4719734423	 1.9938352972	-0.9048110085	 0.140218
H	-1.0748214775	 1.9891829262	 0.7599500928	 0.124742
H	-1.2877633457	-1.6707520245	-0.3058951288	 0.092705
H	-2.3167051625	-0.2456831375	-0.0460092882	 0.114749
H	-0.6517973076	-0.6093363716	-2.2816688743	 0.294983
H	 0.3664426734	-1.6224800521	 1.327205256	 0.112828
H	 2.6624618799	 1.0453206394	 3.7169161648	 0.2039
71.2654	124.3437	144.3588	184.8138	249.6357	315.558	341.892	396.2754	420.5902	445.1716	558.5309	621.5269	642.5267	671.1569	721.733	837.4794	898.9139	937.452	983.5723	1050.9037	1066.8431	1100.1346	1119.8989	1203.1092	1268.1293	1326.3937	1385.0258	1413.24	1425.5522	1441.6952	1480.0345	1493.9691	1500.5317	2240.2442	2994.7897	3047.1567	3078.9021	3103.7336	3114.5107	3149.1288	3501.5457	3796.1071
CC1(CO)OC1C#C	C[C@@]1(CO)O[C@H]1C#C	
InChI=1S/C6H8O2/c1-3-5-6(2,4-7)8-5/h1,5,7H,4H2,2H3	InChI=1S/C6H8O2/c1-3-5-6(2,4-7)8-5/h1,5,7H,4H2,2H3/t5-,6-/m0/s1
