18
gdb 30846	2.34366	1.38839	0.91333	0.7787	78.53	-0.1638	0.05	0.2138	1280.0663	0.148449	-435.278172	-435.268718	-435.267774	-435.312225	35.113	
C	-0.4648999412	 1.1873327145	-0.1439614587	-0.321541
N	 0.4326326892	 0.058736665	 0.1207934706	-0.393274
C	 0.7990239523	-0.7200690209	-0.9643459077	 0.23159
C	 0.6370612585	-2.0473401956	-1.2170365317	 0.230085
N	 0.0776048193	-2.9932932418	-0.3487788132	-0.613563
C	 1.2338829168	-2.3188041011	-2.498390495	-0.351702
C	 1.720994572	-1.1215006252	-2.9354535308	 0.384673
N	 2.3190829083	-0.7274482866	-4.1262139192	-0.595255
O	 1.4956654027	-0.1377974548	-2.0475302447	-0.216339
H	-0.0344976725	 1.9476168957	-0.8116946276	 0.114108
H	-1.3817315175	 0.8111772814	-0.6069997182	 0.125922
H	-0.729219859	 1.6675447231	 0.803676054	 0.110933
H	 1.2199419887	 0.3521985264	 0.6910253479	 0.22511
H	-0.4127082825	-2.5335957976	 0.4100260799	 0.242004
H	-0.5477093862	-3.6356066149	-0.8199188393	 0.238007
H	 1.3009277234	-3.2700794218	-3.0018736281	 0.085779
H	 2.7754439139	-1.4921369034	-4.6043870393	 0.251905
H	 2.959632664	 0.0457979577	-3.9973658488	 0.251557
87.0904	125.3498	160.0912	192.6481	212.7724	255.5177	296.0402	315.4529	337.5413	423.8658	548.4261	602.7527	626.2006	641.1381	664.9509	704.5796	742.5934	748.216	801.685	829.2937	1015.3076	1032.5849	1038.9089	1101.6787	1133.166	1145.2172	1173.5649	1213.4346	1317.5236	1392.147	1449.6809	1465.4989	1483.5223	1493.7359	1520.3486	1613.127	1637.8123	1661.6782	1725.7122	2997.1562	3070.6472	3110.7293	3254.0242	3485.1704	3517.1444	3542.6728	3609.7413	3643.2667
CNC1=C(N)C=C(N)O1	CNc1c(N)cc(N)o1	
InChI=1S/C5H9N3O/c1-8-5-3(6)2-4(7)9-5/h2,8H,6-7H2,1H3	InChI=1S/C5H9N3O/c1-8-5-3(6)2-4(7)9-5/h2,8H,6-7H2,1H3
