13
gdb 130262	3.44153	1.30824	0.95069	5.7554	70.73	-0.237	-0.0502	0.1869	1127.5184	0.09076	-448.92725	-448.919253	-448.918308	-448.959735	29.484	
N	 0.0018889493	 1.3488548352	 0.1086407598	-0.602843
C	 0.0522016059	-0.0335812163	 0.0265404712	 0.387637
N	-1.0142004765	-0.7980993015	 0.0645689408	-0.200816
O	-0.5638920825	-2.1069046506	 0.0383136241	-0.233288
C	 0.7982842247	-2.0926799935	-0.0210610367	 0.310131
C	 1.5025480574	-3.3115555607	-0.0455850463	 0.219436
N	 2.1342324127	-4.2837488027	-0.0629675879	-0.342258
C	 1.2578823541	-0.804885295	-0.0302638874	 0.018882
N	 2.5359870066	-0.2859459147	-0.1354414334	-0.624518
H	 0.5880039576	 1.8083572745	-0.5780861572	 0.263087
H	-0.9461741532	 1.7021525455	 0.0677577562	 0.268759
H	 3.2734308611	-0.9693116957	-0.0231739311	 0.270701
H	 2.6919880429	 0.5172047556	 0.4614732479	 0.265091
115.2757	131.1997	216.4912	237.3527	285.5831	377.9006	388.4787	430.7654	495.8172	515.22	608.1529	638.1305	684.1839	706.1776	748.8721	784.1966	801.2397	984.1098	1009.8892	1153.103	1208.8567	1236.3641	1352.9315	1511.1712	1576.6815	1629.6605	1651.3129	1700.4025	2333.4653	3531.5293	3534.4322	3628.1164	3631.904
NC1=NOC(C#N)=C1N	Nc1noc(C#N)c1N	
InChI=1S/C4H4N4O/c5-1-2-3(6)4(7)8-9-2/h6H2,(H2,7,8)	InChI=1S/C4H4N4O/c5-1-2-3(6)4(7)8-9-2/h6H2,(H2,7,8)
