18
gdb 80047	2.84392	1.63463	1.39878	1.9201	77.57	-0.229	-0.0119	0.2171	991.4195	0.147762	-401.895965	-401.888284	-401.88734	-401.927881	30.225	
C	-0.1989599487	 1.5126554887	-0.0298439234	-0.31316
N	 0.0566571025	 0.0815225847	 0.0561722201	-0.098722
C	 1.3792398554	-0.5138327973	-0.1834841034	-0.083911
C	 2.5886606413	 0.3683562526	-0.1003260355	-0.092412
C	 2.7238756677	 0.892954479	 1.1211337415	-0.177299
C	 1.6650898009	 0.3724408024	 2.0354982208	 0.441577
C	 1.8568549757	 0.1635718063	 3.4796841666	-0.247262
O	 1.0860985417	 1.2643986909	 3.0057593618	-0.283384
C	 0.7619059568	-0.5014576715	 1.1869037868	-0.147899
H	 0.6283035621	 2.1572096946	 0.2935349679	 0.117944
H	-0.4461448461	 1.7575947829	-1.0676991945	 0.117393
H	-1.068844215	 1.7389749264	 0.5930121869	 0.131302
H	 1.3828170044	-1.3853570664	-0.8313640731	 0.094435
H	 3.2242749944	 0.5779402827	-0.9524635469	 0.107489
H	 3.4534225442	 1.6273053365	 1.4416259756	 0.110992
H	 1.2939247482	-0.6246241459	 3.9805212237	 0.116492
H	 2.8108249341	 0.4186598226	 3.9400707008	 0.114017
H	 0.2924574504	-1.3661771992	 1.6474545144	 0.092407
107.2357	178.0241	199.6787	284.4961	308.2159	328.249	463.3005	503.8916	545.191	625.5985	734.7319	749.3823	783.6452	821.3178	870.5316	885.8309	909.9509	949.9935	960.1345	981.4463	1007.7688	1070.3631	1105.2828	1120.0615	1130.2215	1158.2591	1161.6678	1176.0668	1247.662	1290.0642	1309.4585	1340.164	1356.6679	1428.6649	1451.3486	1486.615	1503.5271	1523.437	1657.3186	3013.8619	3071.9323	3081.0792	3111.3722	3142.2882	3152.8715	3160.1609	3193.8414	3217.3612
CN1C2C=CC3(CO3)C12	CN1[C@H]2C=C[C@]3(CO3)[C@@H]12	
InChI=1S/C7H9NO/c1-8-5-2-3-7(4-9-7)6(5)8/h2-3,5-6H,4H2,1H3	InChI=1S/C7H9NO/c1-8-5-2-3-7(4-9-7)6(5)8/h2-3,5-6H,4H2,1H3/t5-,6-,7-,8?/m0/s1
