20
gdb 41026	3.19547	1.79656	1.49053	1.8992	83.84	-0.2056	0.059	0.2647	953.7271	0.172768	-365.848407	-365.841593	-365.840649	-365.879078	29.333	
C	 0.0691367059	 1.544527879	 0.2636781878	-0.21662
C	 1.5506046636	 1.5464478527	-0.2275289326	-0.33659
C	 1.4128468955	 0.0828636796	-0.6418977407	 0.384076
C	-0.1041302829	 0.0437328593	-0.0657972681	-0.124267
C	 0.4243196034	-0.9082215122	 1.0986669709	-0.357044
C	 1.7008577069	-1.092981135	 0.2371185817	 0.224756
C	 3.1932242797	-0.9146437391	-0.1932353002	-0.263655
N	 2.4132461039	-0.7136842724	-1.5444113085	-0.235684
C	 1.5884541653	-1.9139797039	-1.0673624227	-0.186195
H	-0.0871862864	 1.8099207763	 1.3126901419	 0.100323
H	-0.5702794349	 2.1816153649	-0.3519528536	 0.106555
H	 1.7102124002	 2.2115645634	-1.0808453143	 0.116241
H	 2.3154527299	 1.7756046579	 0.5232393715	 0.095964
H	-1.0140623275	-0.2650131155	-0.5805239061	 0.075283
H	 0.5551675564	-0.3651130877	 2.0386868247	 0.106679
H	-0.1484172669	-1.8185273816	 1.2940165974	 0.104455
H	 3.7178405715	-0.0199657571	 0.1466981341	 0.11025
H	 3.8605651621	-1.7816096428	-0.2266930018	 0.10252
H	 2.1280520419	-2.864163374	-1.116784722	 0.092116
H	 0.6110639725	-1.9857968018	-1.5514408194	 0.100836
157.9186	253.5993	305.9448	359.167	430.3419	463.8472	548.1251	592.7222	669.0381	716.4221	751.0903	784.2452	810.4889	859.8025	875.7597	898.5497	937.6804	940.7634	953.0725	980.65	1001.671	1019.045	1061.3565	1091.3604	1102.2969	1134.4755	1137.8678	1154.6727	1188.6785	1192.6556	1201.6579	1224.1807	1233.8509	1241.2031	1260.431	1286.9273	1294.3623	1313.9567	1473.6149	1478.001	1495.7201	1506.3218	1540.6828	3035.342	3047.3188	3052.0327	3055.843	3058.6436	3085.8115	3103.5	3109.1731	3113.9097	3119.9623	3130.8304
C1CC23C1CC21CN3C1	C1C[C@]23[C@H]1C[C@@]12CN3C1	
InChI=1S/C8H11N/c1-2-8-6(1)3-7(8)4-9(8)5-7/h6H,1-5H2	InChI=1S/C8H11N/c1-2-8-6(1)3-7(8)4-9(8)5-7/h6H,1-5H2/t6-,8+/m1/s1
