21
gdb 58822	3.00316	1.25542	1.21633	1.8222	81.23	-0.2258	0.0668	0.2925	1174.8979	0.180875	-387.022198	-387.01338	-387.012436	-387.055569	34.536	
C	 0.1142405811	 1.6081105657	 0.1173188673	-0.395449
C	-0.0342120544	 0.0837294993	-0.0011313766	-0.095295
C	 0.7706465577	-0.651639373	 1.0829243262	-0.394671
C	-1.4751645913	-0.3355059183	 0.0436990608	 0.456742
O	-1.8267896673	-1.6255212559	-0.4903694581	-0.300678
C	-2.5285653642	-0.4602411405	-0.9603462242	-0.084169
C	-3.6264635584	-0.0694843741	 0.0772505976	-0.085925
C	-3.6164800746	-0.9957530574	 1.263591572	-0.288035
C	-2.5397588307	 0.0496248743	 1.137288857	-0.136284
H	 1.1656340928	 1.897412313	 0.0248012174	 0.115626
H	-0.4505855222	 2.1271670424	-0.6633180384	 0.11587
H	-0.2417482614	 1.9697971964	 1.0881435152	 0.118429
H	 0.3434961926	-0.2285952843	-0.9829478748	 0.085494
H	 0.4101456107	-0.3901171941	 2.0842344101	 0.117484
H	 0.6835028251	-1.7353632997	 0.9654082778	 0.131658
H	 1.8304394554	-0.3834162277	 1.0284566518	 0.11038
H	-2.5402362129	-0.2846383317	-2.0300331772	 0.101754
H	-4.4317104603	 0.620514319	-0.1362480191	 0.091376
H	-4.3707018422	-0.7799045039	 2.0138471296	 0.108857
H	-3.3775159506	-2.0433973767	 1.1339035807	 0.135544
H	-2.400451445	 0.8438961176	 1.8582828251	 0.091293
61.885	131.2039	176.3607	225.6872	250.9141	302.9926	333.404	412.0849	470.138	505.6638	565.2718	618.9944	732.7503	759.7132	800.9258	842.024	874.0663	914.3022	920.1165	929.7774	940.8402	970.6506	989.8507	1003.8955	1029.3294	1050.0029	1060.4686	1101.4497	1129.839	1166.4792	1186.7026	1199.7842	1260.8481	1275.1709	1298.7945	1334.4998	1342.7044	1397.1939	1417.2194	1456.7471	1479.0961	1488.4259	1491.0321	1502.971	1516.8358	3027.5536	3030.9577	3035.0494	3097.0579	3102.8218	3107.0436	3115.7611	3140.0159	3179.3599	3198.5151	3208.1433	3233.6175
CC(C)C12OC1C1CC21	CC(C)[C@]12O[C@H]1[C@H]1C[C@@H]21	
InChI=1S/C8H12O/c1-4(2)8-6-3-5(6)7(8)9-8/h4-7H,3H2,1-2H3	InChI=1S/C8H12O/c1-4(2)8-6-3-5(6)7(8)9-8/h4-7H,3H2,1-2H3/t5-,6+,7-,8+/m0/s1
