17
gdb 54295	2.42089	1.6331	1.05563	7.2979	70.22	-0.2528	0.0017	0.2544	1105.7529	0.136128	-455.187717	-455.179214	-455.17827	-455.220954	32.634	
N	 0.1183588938	 1.0224998399	 0.88121044	-0.592163
C	 0.0009488287	 0.0455755364	 0.0515658538	 0.359964
N	 0.9791825271	-0.3286895755	-0.8341711039	-0.551434
H	 0.9393688288	-1.2300276013	-1.2777814858	 0.264073
H	 1.9074745093	 0.0339679561	-0.6873906547	 0.258861
C	-1.29424122	-0.7037244103	 0.0010180731	 0.090105
C	-1.7509531502	-1.2832245665	-1.3420950052	-0.285398
C	-1.2642874931	-2.2093890288	-0.2892936842	-0.292855
C	-2.4587365026	-0.2956095229	 0.9075314457	 0.401587
O	-2.2685894771	 0.7256698683	 1.7223494605	-0.381853
O	-3.500200685	-0.908637242	 0.853505175	-0.374094
H	 1.0220864536	 1.487656898	 0.8556658781	 0.21647
H	-1.3276414375	 1.0665583755	 1.5862111464	 0.336099
H	-2.8201536143	-1.2401136737	-1.5061864514	 0.159942
H	-1.1317682344	-1.074387017	-2.2066112291	 0.12055
H	-0.2945794708	-2.6854022701	-0.3881469094	 0.108768
H	-2.0069611563	-2.7817687261	 0.2517543211	 0.161377
60.6533	99.036	274.1325	293.8818	305.7464	311.7815	359.8385	420.3021	432.3572	446.1131	526.1447	613.0771	691.7773	742.4874	754.8663	792.9003	803.1187	887.7099	892.1812	970.7762	984.7913	985.8132	1068.5835	1097.22	1102.8063	1139.801	1209.7219	1211.528	1275.0606	1321.262	1451.4495	1458.3564	1487.7752	1582.8937	1644.6977	1691.0026	1828.6906	2924.0305	3140.4826	3150.3034	3236.7441	3250.7068	3510.4663	3603.0824	3717.0353
NC(=[NH2+])C1(CC1)C([O-])=O	N=C(N)C1(CC1)C(=O)O	
InChI=1S/C5H8N2O2/c6-3(7)5(1-2-5)4(8)9/h1-2H2,(H3,6,7)(H,8,9)	InChI=1S/C5H8N2O2/c6-3(7)5(1-2-5)4(8)9/h1-2H2,(H3,6,7)(H,8,9)
