16
gdb 54974	3.27116	1.01765	0.95066	4.2485	68.1	-0.2621	-0.047	0.2151	1261.2264	0.120715	-475.044607	-475.034887	-475.033943	-475.079765	33.871	
C	 0.1816898863	 1.6203014397	-0.4611403254	-0.48437
C	-0.036095846	 0.1841768747	-0.0684619071	 0.266485
O	 1.1012272327	-0.6866343426	 0.0069634537	-0.253188
C	 0.4387098786	-0.410330083	 1.2200999827	-0.104017
C	 1.1765057205	 0.4319732678	 2.2435972	 0.402384
N	 0.6971564216	 0.2773306043	 3.5102339895	-0.530206
O	 2.0901024219	 1.1781437523	 1.961884863	-0.349394
C	-1.2364368279	-0.5142867695	-0.6491408223	 0.130591
O	-2.1512858565	 0.0492137809	-1.1895018315	-0.24545
H	 1.0545930553	 2.0270847778	 0.0468319876	 0.172178
H	 0.3263158794	 1.683831372	-1.5436564019	 0.137811
H	-0.7066137767	 2.207840057	-0.2141051008	 0.138669
H	-0.1251225679	-1.2535607312	 1.627690263	 0.094278
H	-0.0272061989	-0.3782214353	 3.744469256	 0.265889
H	 1.1291848565	 0.8063089585	 4.2499890748	 0.271639
H	-1.1964955592	-1.6213103534	-0.5366317314	 0.0867
57.4681	82.7773	135.2685	154.4363	182.6539	203.4494	263.4408	308.9948	367.1109	425.7388	439.7624	533.9622	586.0348	649.2035	736.984	776.8437	818.3276	888.4398	923.7823	1012.6725	1060.6679	1085.4265	1095.4752	1121.1037	1270.3906	1296.3762	1340.7844	1397.1945	1420.5573	1453.6909	1489.6606	1496.3105	1619.4613	1806.845	1832.1552	2884.4794	3057.3533	3070.9949	3120.429	3174.264	3606.0389	3740.6525
CC1(OC1C(N)=O)C=O	C[C@]1(O[C@H]1C(=O)N)C=O	
InChI=1S/C5H7NO3/c1-5(2-7)3(9-5)4(6)8/h2-3H,1H3,(H2,6,8)	InChI=1S/C5H7NO3/c1-5(2-7)3(9-5)4(6)8/h2-3H,1H3,(H2,6,8)/t3-,5-/m0/s1
