21
gdb 103537	2.39939	1.39998	1.15538	1.5961	79.26	-0.2431	0.0215	0.2646	1165.6202	0.181595	-424.229039	-424.21947	-424.218526	-424.262919	36.592	
C	-0.0501686402	 1.592807544	 0.0276421438	-0.428972
C	 0.0251671321	 0.0597927842	 0.0082214875	 0.205648
C	-1.4010087426	-0.5196785664	-0.0439587938	-0.096938
O	-1.9980545742	-0.1377662954	-1.2751585485	-0.425552
C	 0.8469112439	-0.4884216252	-1.1472789985	-0.077139
C	 1.6357627844	-1.4964927804	-0.7771012594	-0.099916
C	 1.4902645429	-1.8083580274	 0.6942189077	-0.28883
C	 0.7756380891	-0.5478189528	 1.2453916393	 0.082634
O	 1.7056547723	 0.3550184329	 1.8242397356	-0.432426
H	 0.9413471837	 2.0482169901	-0.0259428088	 0.101035
H	-0.6390130262	 1.9429052832	-0.8237492126	 0.128483
H	-0.5265955642	 1.9488955376	 0.9466147377	 0.114297
H	-1.3582367774	-1.6164107116	 0.0465029989	 0.08422
H	-1.9788027865	-0.1344212864	 0.8123089169	 0.084865
H	-2.8925873567	-0.4889307809	-1.2988457503	 0.287916
H	 0.7458474227	-0.1007054533	-2.1540211367	 0.100253
H	 2.2831247263	-2.0620201914	-1.4386581183	 0.091619
H	 0.8946678245	-2.7185388211	 0.8493019793	 0.107132
H	 2.4390527033	-1.9647754671	 1.2192227638	 0.106193
H	 0.0799553852	-0.7833138515	 2.0568818994	 0.075806
H	 2.3742761075	 0.546801629	 1.1565649969	 0.27967
84.4707	123.2602	185.0228	209.2209	229.6843	249.8119	299.2035	350.0812	355.044	381.0003	432.5282	466.3522	556.7143	653.8949	742.898	780.3033	821.6579	866.5109	908.4	941.4452	962.0122	968.4922	981.541	1014.471	1053.0511	1092.0781	1114.3392	1160.9963	1172.9172	1185.7674	1193.3471	1247.1813	1274.9155	1294.5237	1303.7345	1314.4076	1382.6637	1402.9906	1434.6784	1452.8827	1480.7231	1485.9676	1499.8154	1514.9083	1677.5734	2959.8107	2995.5397	3014.0202	3044.5837	3062.951	3065.5006	3113.1573	3127.503	3183.6638	3212.6414	3793.1768	3834.7782
CC1(CO)C=CCC1O	C[C@@]1(CO)C=CC[C@H]1O	
InChI=1S/C7H12O2/c1-7(5-8)4-2-3-6(7)9/h2,4,6,8-9H,3,5H2,1H3	InChI=1S/C7H12O2/c1-7(5-8)4-2-3-6(7)9/h2,4,6,8-9H,3,5H2,1H3/t6-,7+/m1/s1
