14
gdb 9203	7.41332	0.88769	0.80064	2.8035	61.27	-0.2722	0.0101	0.2822	1332.95	0.103469	-419.655085	-419.646006	-419.645062	-419.690187	30.316	
O	 0.0653302042	 1.3368644914	 0.0077052255	-0.392943
C	-0.049092576	-0.0616659584	 0.0027037092	-0.188083
C	-1.523622073	-0.4293422914	 0.0145253083	 0.450684
O	-2.450393952	 0.3319636322	 0.0273689132	-0.328763
O	-1.6411116227	-1.7765583422	 0.0083850518	-0.247107
C	-3.0002340957	-2.2597837237	 0.0188218069	-0.227688
C	-2.9806226807	-3.7119959643	 0.0101478199	 0.285869
C	-3.0009255057	-4.9122295156	 0.0035808898	-0.412269
H	 1.0013096595	 1.5566807924	-0.0005405042	 0.296373
H	 0.4003188016	-0.5299149619	-0.8871409064	 0.123878
H	 0.4161990393	-0.5374561771	 0.8803389567	 0.123869
H	-3.5132341608	-1.8738598756	 0.9063909977	 0.155033
H	-3.5303756436	-1.8636618742	-0.8540456436	 0.155051
H	-3.0166325645	-5.9742152116	-0.0016124347	 0.206094
30.822	66.2593	109.6128	148.6124	212.0408	228.4455	308.6007	328.0066	394.6593	544.5359	590.9709	618.5191	686.1341	694.3626	910.5073	981.9703	1013.3739	1028.112	1039.4052	1133.5395	1196.1357	1245.8138	1249.6784	1258.5384	1393.4766	1459.0938	1488.5512	1497.4393	1849.8387	2251.8697	2980.3846	3006.8702	3045.7018	3080.0656	3505.7668	3840.0535
OCC(=O)OCC#C	OCC(=O)OCC#C	
InChI=1S/C5H6O3/c1-2-3-8-5(7)4-6/h1,6H,3-4H2	InChI=1S/C5H6O3/c1-2-3-8-5(7)4-6/h1,6H,3-4H2
