21
gdb 100534	2.55819	0.99217	0.8241	1.8832	76.04	-0.2726	-0.039	0.2335	1481.444	0.179088	-461.386484	-461.375699	-461.374755	-461.422876	38.895	
C	-0.1114041939	 1.5120178689	 0.109253904	-0.3844
C	-0.1221576911	-0.0100951489	 0.2647785438	-0.193275
C	-1.4693242759	-0.6208114143	-0.1779090525	 0.050719
O	-1.7768228689	-0.2466453146	-1.4960309267	-0.438304
C	-1.4618162446	-2.1424096521	-0.0648159822	 0.335743
O	-1.6407408981	-2.8120208738	-1.0664836256	-0.356246
C	-1.2271165006	-2.8492517036	 1.2678692346	 0.062369
C	-2.2495632853	-2.4301993488	 2.3351976726	-0.40498
O	-1.265189849	-4.2401068465	 1.0836553038	-0.439564
H	 0.8614472612	 1.9242783868	 0.3922681547	 0.1143
H	-0.3190112759	 1.7898672656	-0.926288335	 0.145943
H	-0.872701452	 1.9790154675	 0.7439823284	 0.114532
H	 0.6753803718	-0.4548748417	-0.342951562	 0.109633
H	 0.0751925186	-0.2831118701	 1.3081541581	 0.102852
H	-2.2546439817	-0.2437328188	 0.4991348358	 0.096352
H	-1.842753097	-1.0750507069	-1.9960563061	 0.294934
H	-0.2230964061	-2.5498416114	 1.613844064	 0.100173
H	-3.2694679552	-2.6183998556	 1.9870833635	 0.131911
H	-2.0795537795	-3.0297217068	 3.2324789044	 0.141209
H	-2.1517534449	-1.3737161624	 2.6010514077	 0.121508
H	-1.4133942819	-4.3782809927	 0.1354326846	 0.294592
39.1172	76.1438	105.5855	153.3795	193.7573	235.5724	240.0203	286.7595	327.6996	385.8998	387.2765	402.8905	431.4085	443.7842	508.729	604.5978	759.1339	773.2425	839.243	904.5146	939.1455	999.3285	1018.8372	1063.1524	1070.2509	1091.7776	1131.7402	1176.0079	1209.2049	1252.9015	1286.8954	1293.7804	1342.196	1356.1017	1373.5204	1399.5169	1407.35	1431.3564	1437.2783	1476.0499	1488.7634	1494.2227	1497.222	1509.7229	1764.3946	2962.9958	2963.8244	3028.5847	3039.3975	3044.6389	3070.3711	3105.5351	3121.2286	3130.5938	3135.0179	3694.3354	3704.7105
CCC(O)C(=O)C(C)O	CC[C@@H](O)C(=O)[C@@H](C)O	
InChI=1S/C6H12O3/c1-3-5(8)6(9)4(2)7/h4-5,7-8H,3H2,1-2H3	InChI=1S/C6H12O3/c1-3-5(8)6(9)4(2)7/h4-5,7-8H,3H2,1-2H3/t4-,5-/m1/s1
