22
gdb 120088	3.85261	0.9071	0.83101	1.7524	86.06	-0.2033	0.0732	0.2765	1496.4421	0.194191	-367.119117	-367.110271	-367.109327	-367.153534	34.212	
C	 0.0467433286	 1.5964252724	 0.2798562627	-0.382528
C	 0.174679021	 0.0819605015	 0.1027110401	-0.183893
C	 0.4008165207	-0.3343019575	-1.3581567526	-0.162
C	 0.5236371664	-1.8538304937	-1.4949742915	-0.016172
C	-0.0474241945	-2.7973905905	-2.5287954787	-0.094275
C	 0.1529908577	-2.3624401825	-4.0078438387	-0.056218
N	 0.8120815383	-1.0307095541	-4.0487378213	-0.331377
C	 1.6095144266	-2.2624569275	-3.811115148	-0.056216
C	 1.4687308189	-2.6932993644	-2.3240111161	-0.094281
H	 0.950845371	 2.1121914068	-0.0630109674	 0.112398
H	-0.7952856537	 1.9923058621	-0.299141962	 0.112398
H	-0.1136395852	 1.8668282822	 1.3285598067	 0.10565
H	 1.0040470341	-0.2907614496	 0.719597953	 0.09004
H	-0.7304594852	-0.40984903	 0.4850323194	 0.090042
H	-0.4218149754	 0.0346357934	-1.9769520876	 0.104036
H	 1.3005527635	 0.1528707018	-1.7440216755	 0.104023
H	 0.4255303255	-2.3394973805	-0.5216853914	 0.084407
H	-0.6991818871	-3.6205397796	-2.2622512384	 0.083487
H	-0.4179665938	-2.7318843021	-4.8495449678	 0.090694
H	 0.9287867221	-0.7922508637	-5.0339918864	 0.225607
H	 2.4267019023	-2.5366177559	-4.4653191948	 0.090694
H	 2.1313340882	-3.4262055785	-1.879923644	 0.083486
34.868	89.5498	135.1115	225.0211	250.9344	274.9142	351.3059	426.6767	488.9352	672.4003	706.5619	720.4767	724.3357	746.8793	832.1645	843.6797	868.2995	871.77	905.3678	910.0269	945.3731	969.5107	994.7874	1003.6714	1039.8499	1055.443	1074.7298	1113.5981	1122.9876	1126.7203	1149.6858	1202.054	1253.0918	1261.7798	1263.1268	1292.3795	1316.3562	1325.7341	1348.996	1368.1996	1387.3367	1411.5867	1444.5024	1472.378	1491.2573	1499.9733	1509.2128	3005.0337	3026.9741	3033.1578	3060.1377	3084.0995	3090.0909	3097.4378	3100.6078	3174.7092	3185.101	3192.632	3205.846	3460.7634
CCCC1C2C3NC3C12	CCC[C@H]1[C@H]2[C@H]3N[C@H]3[C@@H]12	
InChI=1S/C8H13N/c1-2-3-4-5-6(4)8-7(5)9-8/h4-9H,2-3H2,1H3	InChI=1S/C8H13N/c1-2-3-4-5-6(4)8-7(5)9-8/h4-9H,2-3H2,1H3/t4-,5+,6-,7+,8-
