18
gdb 105933	3.3496	1.55838	1.36359	2.2223	73.83	-0.218	0.0554	0.2734	980.6145	0.148882	-401.840965	-401.833752	-401.832807	-401.872848	28.632	
O	 0.0533347905	 1.3257369791	 0.50651741	-0.411081
C	-0.0926532565	 0.0742164892	-0.1593405026	-0.217203
C	-1.4896744888	-0.4569570517	-0.1078673816	 0.341017
C	-2.0037102123	-1.8932417746	-0.1172348029	-0.184975
C	-2.1329521411	-1.0790350961	 1.1361421173	-0.064312
N	-3.5908142014	-0.7865095456	 0.9770146952	-0.157848
C	-3.6268366363	 0.6248510209	 0.4364180931	-0.183792
C	-2.7834530317	 0.119856162	-0.7495188463	-0.154867
C	-3.3847283588	-1.296908606	-0.4666053049	-0.004237
H	-0.4598536533	 1.977554707	 0.0189855011	 0.284914
H	 0.2582203966	 0.1448492709	-1.2011646227	 0.090852
H	 0.5822065831	-0.6189971333	 0.3561250467	 0.113163
H	-1.5194406301	-2.8387603559	-0.3197155878	 0.096019
H	-1.6423116678	-1.1628383405	 2.0972184641	 0.097166
H	-4.6551619446	 0.8800709294	 0.1628428254	 0.105686
H	-3.2092590496	 1.3874903587	 1.1006649863	 0.105159
H	-2.7284622716	 0.5951287611	-1.7299589859	 0.064485
H	-4.2217132265	-1.7633153747	-0.9823955743	 0.079854
77.3527	125.9852	233.9702	302.2762	387.2183	432.9136	546.8699	663.9284	751.8864	764.3204	800.6806	825.6573	838.0473	854.2521	887.6539	892.5133	924.7469	959.3985	980.785	995.1666	1012.942	1042.6973	1046.2517	1078.7222	1125.1873	1138.5496	1156.997	1184.296	1200.4831	1212.431	1229.3066	1250.0421	1279.487	1306.4932	1378.224	1392.6896	1428.8846	1493.0927	1496.0282	2975.78	3046.4816	3059.8743	3102.5731	3107.6434	3134.254	3195.985	3209.602	3821.0985
OCC12C3C1N1CC2C31	OC[C@@]12[C@H]3[C@@H]1N1C[C@@H]2[C@@H]31	
InChI=1S/C7H9NO/c9-2-7-3-1-8-5(3)4(7)6(7)8/h3-6,9H,1-2H2	InChI=1S/C7H9NO/c9-2-7-3-1-8-5(3)4(7)6(7)8/h3-6,9H,1-2H2/t3-,4-,5+,6+,7-/m1/s1
