16
gdb 40333	4.71998	1.31077	1.2652	0.8762	70.97	-0.2198	0.0528	0.2726	1005.8223	0.12411	-400.590897	-400.584068	-400.583124	-400.622625	26.611	
C	 0.7480354205	 1.0535592348	-0.0908856915	-0.168677
O	 0.0481305141	 0.0454449137	-0.8236628039	-0.230077
C	-0.5449806284	 0.5364902999	 0.3826374471	-0.107912
C	-0.6301308072	-0.4499851392	 1.4762342036	 0.433318
C	-1.3030412098	-1.7979096173	 1.5862995516	-0.17157
C	-1.5524241636	-1.4777480357	 3.0802960448	-0.052494
C	-0.0934756692	-1.3330117024	 3.3189128347	-0.050854
C	 0.2079861694	-1.6490109858	 1.832255034	-0.173668
N	-0.9102684155	-0.1197724814	 2.9487697458	-0.225971
H	 1.66214747	 0.723834943	 0.3986399627	 0.117405
H	 0.790226815	 2.0307486624	-0.5688075715	 0.119536
H	-1.4309926333	 1.1558298469	 0.2351169745	 0.100512
H	-1.8147671875	-2.3931371406	 0.8442518618	 0.105539
H	-2.3804982243	-1.659370207	 3.7546373602	 0.099582
H	 0.498560113	-1.3724741193	 4.2254048761	 0.099024
H	 1.0299647367	-2.1148897521	 1.3089021399	 0.10631
66.0949	153.3019	171.525	362.6109	437.8777	605.3751	675.3031	763.733	775.1526	795.8052	833.3062	849.9114	864.9878	866.4522	902.6675	909.7122	916.0662	963.7307	988.8386	1012.6646	1027.4481	1050.2653	1067.6167	1101.907	1147.1535	1163.0667	1165.5108	1170.1287	1213.085	1267.5423	1275.1989	1319.3623	1394.177	1483.0527	1521.4729	3090.6154	3100.3679	3176.4028	3183.7473	3190.6926	3222.2947	3231.8133
C1OC1C12C3C4C(C13)N24	C1O[C@H]1[C@@]12[C@@H]3[C@H]4[C@@H]([C@H]13)N24	
InChI=1S/C7H7NO/c1-2(9-1)7-3-4(7)6-5(3)8(6)7/h2-6H,1H2	InChI=1S/C7H7NO/c1-2(9-1)7-3-4(7)6-5(3)8(6)7/h2-6H,1H2/t2-,3-,4+,5-,6+,7+,8?/m1/s1
