18
gdb 17340	3.37652	2.11756	1.75543	1.5807	69.86	-0.2331	0.0827	0.3158	820.1676	0.155316	-347.778713	-347.771971	-347.771027	-347.809024	28.131	
O	-0.0279270829	 1.4049805822	 0.0584034054	-0.47255
C	 0.071807107	 0.0130643403	 0.0225796053	 0.423715
C	-0.5750547124	-0.7262998051	 1.1490788805	-0.32994
C	 0.9364419289	-0.7844580067	 0.9833927181	-0.110708
C	 1.5904991671	-1.9351328572	 0.2145619742	-0.250558
C	 1.1233144182	-1.8211092701	-1.2447101395	-0.029363
C	-0.3306860853	-2.0412779705	-1.5744529627	-0.292678
C	 0.181119838	-0.6389572137	-1.3509593499	-0.114212
H	 0.7815435299	 1.7688717929	-0.3176863175	 0.278302
H	-0.9284256681	-0.1051916431	 1.9653401233	 0.117688
H	-1.1880038147	-1.6000806609	 0.9599491806	 0.110527
H	 1.5199051163	-0.2763311504	 1.7439168908	 0.084946
H	 2.6791488434	-1.8199642635	 0.2553485983	 0.10074
H	 1.3637704298	-2.9177241903	 0.6458106014	 0.102604
H	 1.8509280714	-2.0328249282	-2.0210653816	 0.081651
H	-0.566247315	-2.3202375647	-2.5965933395	 0.107551
H	-0.9849511888	-2.4996218966	-0.8415720576	 0.112152
H	 0.1962317472	 0.0461341256	-2.1914916496	 0.080134
185.6222	251.3653	310.6602	356.9317	377.1465	435.1914	477.9516	597.7851	667.3983	687.6842	795.937	808.5572	829.5325	846.2544	900.4366	916.1225	961.6146	987.2357	1016.7129	1031.4498	1045.4685	1063.1919	1081.7616	1098.3676	1106.4485	1125.9259	1201.6576	1214.2097	1229.3528	1248.7861	1290.9421	1326.6472	1353.9168	1379.1854	1414.072	1484.6259	1488.2648	1506.5937	3030.2926	3065.8012	3129.2102	3137.0212	3157.9877	3163.9857	3170.5707	3210.5942	3220.7025	3788.4557
OC12CC1CC1CC21	O[C@]12C[C@H]1C[C@H]1C[C@@H]21	
InChI=1S/C7H10O/c8-7-3-5(7)1-4-2-6(4)7/h4-6,8H,1-3H2	InChI=1S/C7H10O/c8-7-3-5(7)1-4-2-6(4)7/h4-6,8H,1-3H2/t4-,5+,6+,7+/m0/s1
