23
gdb 111633	2.28365	1.41187	1.12449	0.096	90.74	-0.2206	0.0238	0.2445	1248.2625	0.206013	-351.164566	-351.155349	-351.154405	-351.198161	35.918	
C	 0.0372269886	 1.4521124359	-0.2727396317	-0.371666
C	 0.0033393805	 0.0235750328	 0.2864784694	-0.21116
C	-1.3616431116	-0.6176092509	 0.1445766811	-0.02938
C	-1.8700071096	-1.2806704187	-1.1194613656	-0.105638
C	-0.8719371455	-1.7583538745	-2.1769632583	-0.284108
C	-0.059611833	-2.8121347491	-1.4533174259	-0.07488
C	-0.4911019309	-2.9997651691	-0.2044570402	-0.134315
C	-1.6466050321	-2.1148229866	 0.1428157846	 0.284269
C	-2.7639590571	-2.6739488055	 0.9942155266	-0.485445
H	 1.0293119741	 1.900048745	-0.1561956606	 0.107729
H	-0.215322286	 1.4660429102	-1.3382529134	 0.117077
H	-0.6817921578	 2.0984496812	 0.243060645	 0.110426
H	 0.7634228914	-0.5861385849	-0.2107160516	 0.102976
H	 0.2796600218	 0.0440336847	 1.3492429319	 0.091115
H	-2.1398550233	-0.0523188445	 0.6577972441	 0.07302
H	-2.8770748067	-1.0383602454	-1.4418483323	 0.076052
H	-1.3874474995	-2.177010253	-3.051661353	 0.104982
H	-0.2370635646	-0.9478100892	-2.5603125666	 0.108498
H	 0.7880788393	-3.312358974	-1.9089263646	 0.090002
H	-0.0667463426	-3.7005557683	 0.5073155806	 0.086746
H	-2.4164091417	-2.9030242522	 2.0090488012	 0.114369
H	-3.5876367669	-1.9585184138	 1.0833871556	 0.113266
H	-3.1679181368	-3.59864883	 0.5660003438	 0.116066
79.2066	151.0339	187.5856	197.3286	225.6494	249.028	273.361	337.6826	374.2214	509.0744	553.7738	608.4657	713.7317	735.1713	766.2594	798.4072	838.2419	851.3469	918.4577	932.5091	951.8685	963.394	973.675	1013.0845	1041.4618	1054.4867	1093.8744	1111.5525	1120.8967	1125.3018	1164.5412	1194.1575	1241.671	1275.7769	1292.7006	1312.6882	1333.3601	1358.5032	1389.5395	1407.6842	1418.2557	1450.4553	1475.5614	1488.2555	1493.3929	1497.7551	1502.2366	1508.7933	1671.4541	3010.5121	3018.8359	3020.1442	3029.1649	3033.1627	3075.3198	3077.3096	3095.0171	3097.7917	3101.396	3106.6076	3161.3297	3174.5943	3201.2726
CCC1C2CC=CC12C	CC[C@H]1[C@H]2CC=C[C@@]12C	
InChI=1S/C9H14/c1-3-7-8-5-4-6-9(7,8)2/h4,6-8H,3,5H2,1-2H3	InChI=1S/C9H14/c1-3-7-8-5-4-6-9(7,8)2/h4,6-8H,3,5H2,1-2H3/t7-,8+,9-/m0/s1
