18
gdb 92787	3.01909	1.1257	0.9188	1.6352	78.06	-0.246	0.0199	0.2659	1307.1267	0.146626	-401.940816	-401.931745	-401.930801	-401.975652	32.935	
C	 0.5775884325	 1.7281618971	-0.3407054114	-0.395059
C	 0.2994953651	 0.3388889155	 0.2100696521	 0.100101
C	 0.2430637256	-0.7894647995	-0.8578024581	-0.197773
N	 1.4061987094	-1.6440277377	-0.5789049241	-0.310358
C	 1.9495312751	-1.167906331	 0.4645726144	 0.413005
C	 3.1649627243	-1.7350779729	 1.146893943	-0.42903
C	 4.2743190332	-0.7897566895	 1.2284332396	 0.311877
C	 5.1952406186	-0.0218779792	 1.2910796859	-0.456704
O	 1.4096212557	-0.073994959	 1.0570272165	-0.256951
H	 1.4754248214	 1.7188924184	-0.9666417915	 0.132344
H	-0.266282962	 2.0643467762	-0.9522730992	 0.120854
H	 0.7262628354	 2.4480944712	 0.4685590844	 0.130977
H	-0.59015749	 0.3513897626	 0.8468727362	 0.091956
H	-0.6760926465	-1.3822019307	-0.7964970842	 0.114841
H	 0.305331672	-0.3903698061	-1.8765951774	 0.113913
H	 2.8779318004	-2.0505324615	 2.1587425612	 0.152282
H	 3.4589543085	-2.6314330399	 0.5943748841	 0.163599
H	 6.007529301	 0.6594750359	 1.3485078386	 0.200124
43.5376	58.0811	110.6037	229.1759	243.1421	292.2328	333.2515	366.1937	427.2542	445.5403	617.9126	623.6775	650.1845	720.0711	767.214	835.9452	907.6355	929.9151	946.6527	958.3321	970.7893	1033.5809	1069.3228	1117.8461	1140.3131	1203.957	1232.0376	1271.2527	1316.2461	1340.1864	1360.0813	1394.9376	1410.3619	1452.0983	1485.2345	1494.9627	1502.8861	1739.181	2247.0331	3028.9744	3034.4638	3039.1917	3055.1757	3072.7051	3100.6319	3112.2901	3122.6137	3506.3367
CC1CN=C(CC#C)O1	C[C@H]1CN=C(CC#C)O1	
InChI=1S/C7H9NO/c1-3-4-7-8-5-6(2)9-7/h1,6H,4-5H2,2H3	InChI=1S/C7H9NO/c1-3-4-7-8-5-6(2)9-7/h1,6H,4-5H2,2H3/t6-/m0/s1
