19
gdb 41789	2.50668	1.98421	1.49024	1.3855	81.23	-0.2172	-0.0342	0.183	949.5075	0.163569	-385.902651	-385.895741	-385.894797	-385.933788	28.376	
C	 0.0904270235	 1.5714905932	 0.09275568	-0.085381
O	 1.4251694067	 1.9454892489	-0.2618491193	-0.257923
C	 2.2567981597	 0.8038457285	-0.0336958072	 0.05173
C	 1.399713935	-0.3474098925	-0.5616309388	-0.233804
C	 0.0151784258	 0.0068345195	 0.0231367571	-0.085251
C	-0.1950099985	-0.6367001368	 1.3717046252	-0.096646
C	 0.6826485972	-0.5921461734	 2.3857346184	-0.068278
C	 1.9697312655	 0.1051182063	 2.4224073994	-0.070681
C	 2.6477346782	 0.7012036411	 1.4276745277	-0.08771
H	-0.1536345645	 1.9243001396	 1.1015798371	 0.106806
H	-0.5853283518	 2.0578683934	-0.6183078872	 0.103872
H	 3.1585731167	 0.9563341912	-0.6342063348	 0.076751
H	 1.3786681395	-0.2927950494	-1.653780746	 0.10315
H	 1.7489513419	-1.3375049611	-0.262179047	 0.109351
H	-0.787171055	-0.3014844723	-0.6503389889	 0.074523
H	-1.1262147647	-1.1767095673	 1.5211039699	 0.09111
H	 0.4094669501	-1.0927174798	 3.31148862	 0.087358
H	 2.4175152734	 0.156784618	 3.4131956015	 0.088667
H	 3.5699008511	 1.2141571729	 1.6893641329	 0.092356
107.1514	229.4127	259.0011	346.9438	412.7607	456.0171	537.747	593.169	702.7693	724.3376	789.6747	804.7223	815.0038	845.234	872.7674	916.9832	930.9158	948.9394	993.8935	1008.0637	1014.8994	1032.0927	1069.1322	1075.3372	1107.529	1193.8077	1210.3742	1237.7906	1253.8513	1267.4698	1313.6644	1323.2664	1359.8088	1378.7187	1384.1662	1418.3349	1450.9032	1485.0429	1517.995	1663.8718	1702.4592	3027.1573	3056.4566	3067.233	3069.9062	3087.0426	3121.0739	3131.8812	3147.9475	3161.9844	3171.6732
C1OC2CC1C=CC=C2	C1O[C@@H]2C[C@H]1C=CC=C2	
InChI=1S/C8H10O/c1-2-4-8-5-7(3-1)6-9-8/h1-4,7-8H,5-6H2	InChI=1S/C8H10O/c1-2-4-8-5-7(3-1)6-9-8/h1-4,7-8H,5-6H2/t7-,8+/m1/s1
