17
gdb 71176	2.56902	1.69662	1.36165	4.6059	75.5	-0.2577	0.0075	0.2652	991.777	0.136601	-380.820755	-380.813193	-380.812249	-380.852607	29.447	
C	-0.029538089	 1.5624438906	 0.0251801887	-0.517044
C	 0.0229199184	 0.0605450407	 0.0670511733	 0.286775
C	-1.2595725333	-0.8138068516	 0.1867178914	-0.297222
C	-0.3483718971	-1.8825461685	 0.7803627129	-0.028977
C	 0.6844581847	-0.8912112947	 1.150728193	-0.110647
N	 0.9830945099	-1.8748280191	 0.06718458	-0.147411
C	 0.8756550044	-0.7619904658	-0.9363558381	-0.127507
C	 0.3235402201	-1.0920988559	-2.2493043475	 0.289833
N	-0.1320296714	-1.3325132433	-3.2843256478	-0.330603
H	 0.9748808376	 1.9991263366	 0.0286724879	 0.125901
H	-0.5418256166	 1.9037116344	-0.8815243706	 0.140463
H	-0.5739252895	 1.9623391525	 0.8866440665	 0.129147
H	-1.9317144942	-0.4148850027	 0.9508772966	 0.11339
H	-1.8175648756	-1.0304423866	-0.7289200418	 0.128088
H	-0.6079141651	-2.8155204474	 1.2613899038	 0.11101
H	 1.3117331384	-0.7371074647	 2.0182767377	 0.108891
H	 1.8754773684	-0.3366575645	-1.0636240561	 0.125912
124.8809	148.0542	213.4524	272.6574	293.0944	398.6714	424.7445	541.3273	561.0359	628.0396	736.585	758.296	814.9592	834.5848	855.45	926.6479	943.4829	971.096	976.2823	1018.6928	1029.2573	1040.6712	1112.3989	1129.6387	1164.3735	1177.6339	1202.4565	1221.7721	1261.1683	1314.0951	1341.3498	1372.9485	1417.8695	1487.8211	1492.7765	1499.9026	2350.868	3029.7779	3057.3804	3073.2116	3096.7694	3102.0264	3114.9132	3206.1549	3221.4316
CC12CC3C1N3C2C#N	C[C@]12C[C@@H]3[C@H]1N3[C@H]2C#N	
InChI=1S/C7H8N2/c1-7-2-4-6(7)9(4)5(7)3-8/h4-6H,2H2,1H3	InChI=1S/C7H8N2/c1-7-2-4-6(7)9(4)5(7)3-8/h4-6H,2H2,1H3/t4-,5+,6-,7-,9?/m1/s1
