23
gdb 116477	3.04683	1.05971	0.84432	1.326	88.01	-0.2402	0.0109	0.251	1444.2109	0.206809	-388.294265	-388.285012	-388.284068	-388.328768	35.307	
C	 0.271741151	 1.5242288079	 0.0420489104	-0.390484
C	 0.0818141886	 0.0079319149	 0.1493013732	-0.187925
C	-1.3779400494	-0.4604804092	-0.0210401187	-0.019777
C	-1.4437040211	-1.9850163268	-0.2399409813	-0.203236
C	-2.7989385332	-2.5187771333	-0.7113337974	-0.082465
O	-3.8169125639	-2.5025765129	 0.2682405457	-0.232878
C	-4.3755951121	-1.2291191442	 0.5343060152	-0.130072
C	-3.5143823523	-0.3057404666	 1.3679206916	-0.094502
C	-2.2423390404	 0.013177892	 1.1312531311	-0.022915
H	 1.3244289318	 1.7971314943	 0.1651732505	 0.113724
H	-0.0553787317	 1.8912589131	-0.9373284796	 0.114458
H	-0.2991511562	 2.0669248414	 0.8022165033	 0.119446
H	 0.6974016243	-0.4797694738	-0.6160155559	 0.090884
H	 0.460194767	-0.3479414659	 1.1170531487	 0.097679
H	-1.7617806233	 0.0092593451	-0.9429892417	 0.079626
H	-0.7049904266	-2.2585905256	-1.005295542	 0.088443
H	-1.1598400749	-2.5067186387	 0.6817082123	 0.105343
H	-3.1267437462	-1.961321837	-1.607073801	 0.078196
H	-2.6918471321	-3.5695073374	-1.0017512996	 0.102165
H	-4.6443673398	-0.7351072707	-0.4176146258	 0.093283
H	-5.311541009	-1.4291123214	 1.0645449563	 0.108396
H	-4.0028064777	 0.1339036428	 2.2348225143	 0.087286
H	-1.7594588729	 0.6891664722	 1.8342975305	 0.085324
38.7256	103.6543	181.9495	190.0709	228.7416	294.5644	323.4506	387.8876	392.33	431.1375	496.3365	545.2258	697.5347	705.3152	776.5033	831.6311	863.6513	913.3735	925.2652	971.5706	993.6006	1019.677	1021.2166	1048.9068	1057.8532	1088.0787	1126.0617	1164.6396	1174.0382	1217.6877	1269.813	1275.1798	1289.4362	1301.4269	1337.9435	1356.6906	1375.3887	1376.616	1397.5676	1414.7489	1423.1508	1429.3778	1468.4456	1479.7038	1488.9729	1494.073	1500.9888	1506.7605	1721.57	2934.2333	2947.154	2955.097	3014.2299	3019.8909	3033.0785	3052.8135	3064.0402	3070.1351	3075.9117	3099.0887	3104.9299	3132.0146	3157.5679
CCC1CCOCC=C1	CC[C@H]1CCOCC=C1	
InChI=1S/C8H14O/c1-2-8-4-3-6-9-7-5-8/h3-4,8H,2,5-7H2,1H3	InChI=1S/C8H14O/c1-2-8-4-3-6-9-7-5-8/h3-4,8H,2,5-7H2,1H3/t8-/m1/s1
