23
gdb 96599	2.20918	1.39325	0.98674	1.3833	81.55	-0.245	0.0738	0.3188	1277.1311	0.207694	-425.423883	-425.414897	-425.413952	-425.457182	35.404	
O	-0.2699609419	 1.532027413	-0.2316666217	-0.44272
C	-0.0019780388	 0.1363592983	-0.06994085	 0.125394
C	-1.3985469989	-0.5075629033	-0.0286115238	-0.177518
C	-1.5204447942	-2.0179220792	-0.2694845619	-0.203045
C	-0.8568141019	-2.9573678724	 0.7453380943	-0.198851
C	 0.6758811042	-2.8719083655	 0.7928034683	-0.062928
O	 1.2459182219	-2.7735157709	-0.5055678972	-0.244884
C	 1.8602377007	-1.53862648	-0.8186565272	-0.081448
C	 0.9219274694	-0.3810431002	-1.1925395905	-0.223596
H	 0.5639251033	 2.0058484172	-0.1526143751	 0.27523
H	 0.5071541275	-0.0155328753	 0.8951071688	 0.05833
H	-1.8667158584	-0.238914832	 0.9260668229	 0.096488
H	-1.9783381435	 0.0070561234	-0.8047100388	 0.109946
H	-2.5903026733	-2.2557383657	-0.2985594608	 0.092867
H	-1.1310973631	-2.2663709544	-1.2618863416	 0.110782
H	-1.2455078497	-2.7779250263	 1.7568192539	 0.091179
H	-1.1401090594	-3.9837378148	 0.4835291792	 0.101626
H	 1.0007026838	-2.027562215	 1.4137375568	 0.09244
H	 1.0767491001	-3.7799817895	 1.262252714	 0.095887
H	 2.5069652607	-1.2199526911	 0.016404108	 0.08428
H	 2.5150487521	-1.7471996597	-1.6718456773	 0.105852
H	 0.335805704	-0.6380393543	-2.0823098194	 0.11043
H	 1.5758855554	 0.4504114478	-1.490643871	 0.084258
96.4797	155.4615	195.6139	233.0505	262.4332	311.7614	315.4692	357.0344	420.3431	440.4455	465.0216	534.5051	543.282	770.8148	792.3443	814.8891	839.1805	876.212	916.4848	983.6569	1000.1247	1019.8173	1034.7489	1065.0364	1090.43	1124.7441	1143.9621	1159.2527	1187.8403	1229.3967	1236.3636	1279.9365	1304.1247	1310.2798	1312.484	1355.3963	1367.8307	1385.1271	1388.6017	1400.9117	1411.5917	1427.4506	1432.676	1470.266	1478.7424	1486.6532	1491.2294	1498.2822	1513.2736	2958.4207	2963.306	3006.6366	3014.6362	3020.6929	3026.2457	3037.6803	3042.2687	3061.5535	3064.5274	3065.4701	3070.6218	3087.3771	3816.5587
OC1CCCCOCC1	O[C@H]1CCCCOCC1	
InChI=1S/C7H14O2/c8-7-3-1-2-5-9-6-4-7/h7-8H,1-6H2	InChI=1S/C7H14O2/c8-7-3-1-2-5-9-6-4-7/h7-8H,1-6H2/t7-/m0/s1
