16
gdb 51271	5.92739	0.81596	0.73159	3.4988	73.36	-0.2394	-0.0297	0.2097	1466.1083	0.123863	-434.101174	-434.092482	-434.091538	-434.136208	30.551	
N	-0.0195882792	 1.3247839631	 0.1236724033	-0.54613
C	 0.0105806958	 0.0593689847	 0.0456943659	 0.384069
C	-1.1942003199	-0.8770606099	-0.0057524915	-0.23923
N	-0.6608777911	-2.2407408462	-0.1060823195	-0.298811
C	 0.6130355593	-2.1308294891	-0.1064739039	 0.390027
C	 1.5696639008	-3.2792498692	-0.2034601836	-0.419281
C	 0.8714510068	-4.6331924131	-0.194734491	 0.18425
O	 1.2204351334	-5.5528135311	-0.8857050971	-0.239665
N	 1.0917439967	-0.8252136577	-0.0121416818	-0.386717
H	 0.9161701912	 1.7329601495	 0.1451903022	 0.208847
H	-1.8146455054	-0.7687028003	 0.8901984883	 0.148191
H	-1.8333497527	-0.6487942394	-0.8650838209	 0.150135
H	 2.1890957012	-3.2080739094	-1.1040173678	 0.150007
H	 2.2566245425	-3.2522966986	 0.6565898745	 0.145336
H	 0.0300157759	-4.7162406481	 0.5194955273	 0.111767
H	 2.0602401748	-0.5523368652	-0.0278414443	 0.257206
31.6118	52.0991	111.6543	175.822	239.1424	330.4595	362.8398	440.5621	490.7091	510.0091	622.5509	668.3501	712.9732	806.5101	853.1476	891.91	979.4463	984.3679	1022.7195	1053.7407	1068.1225	1093.9579	1164.7613	1183.1306	1209.0763	1277.3478	1313.2667	1331.4789	1421.1445	1435.3563	1454.8606	1460.4278	1707.3907	1767.9809	1838.8277	2957.1086	3007.1766	3054.2652	3080.3153	3086.3799	3458.1841	3658.351
N=C1CN=C(CC=O)N1	[NH][C]1CN=C(CC=O)N1	
InChI=1S/C5H7N3O/c6-4-3-7-5(8-4)1-2-9/h2H,1,3H2,(H2,6,7,8)	InChI=1S/C5H7N3O/c6-4-3-7-5(8-4)1-2-9/h2H,1,3H2,(H2,6,7,8)
