21
gdb 83280	2.76489	1.36661	1.22155	0.8515	78.54	-0.223	0.0801	0.3031	1151.2511	0.182308	-424.205648	-424.196643	-424.195699	-424.239514	33.892	
C	-0.4304704908	 1.4350924005	-0.1556751224	-0.406191
C	-0.0541469239	-0.0247102614	-0.0413330605	-0.0819
C	 1.3529927681	-0.5198275529	-0.3117192049	 0.070584
O	 2.3929159909	 0.3464716506	-0.6649123132	-0.270905
C	 2.9939833413	 1.1288239554	 0.363947947	-0.062367
C	 2.7741070408	 0.5673270094	 1.763908893	 0.107905
C	 3.2989176231	 1.4943253895	 2.8471131072	-0.406328
O	 1.3685578062	 0.4045307895	 1.9754249011	-0.263982
C	 0.8194565292	-0.5318423727	 1.0951574689	 0.025754
H	-0.4152717698	 1.7671429939	-1.1986585752	 0.120646
H	-1.4380962303	 1.6030111038	 0.2380808062	 0.116535
H	 0.2515338587	 2.0674311132	 0.4152632011	 0.127157
H	-0.8305941823	-0.7204533048	-0.3508227552	 0.083321
H	 1.4616327471	-1.4672036161	-0.8321466808	 0.097185
H	 4.0646258223	 1.1773226084	 0.1344950634	 0.105133
H	 2.5924352867	 2.1527734208	 0.3302989301	 0.099036
H	 3.2638901776	-0.416407617	 1.8411031358	 0.075284
H	 2.8092887659	 2.4710375046	 2.7868412543	 0.127312
H	 3.0955875435	 1.0709994349	 3.8339566779	 0.129767
H	 4.3788217453	 1.6374070598	 2.7451361167	 0.119079
H	 0.5756756402	-1.4810079792	 1.5711388596	 0.086975
60.6436	118.7262	160.3598	180.7891	212.9403	256.8221	297.6524	447.7698	465.9565	485.2489	509.7825	609.2511	734.2764	756.1493	766.7518	866.9426	893.7092	912.1526	952.1052	964.2632	1013.9102	1055.7555	1098.6016	1111.3967	1116.6021	1142.4312	1158.3859	1171.4731	1177.4566	1194.6268	1264.5457	1276.4102	1338.3394	1349.5353	1367.8211	1390.2063	1410.4892	1415.1402	1421.488	1443.5692	1483.9448	1495.2664	1496.7635	1500.3881	1510.0733	2976.72	2994.8688	3041.1796	3044.771	3059.9365	3098.1615	3098.5428	3118.2499	3125.4634	3125.7047	3137.4537	3146.15
CC1C2OCC(C)OC12	C[C@H]1[C@H]2OC[C@@H](C)O[C@@H]12	
InChI=1S/C7H12O2/c1-4-3-8-6-5(2)7(6)9-4/h4-7H,3H2,1-2H3	InChI=1S/C7H12O2/c1-4-3-8-6-5(2)7(6)9-4/h4-7H,3H2,1-2H3/t4-,5+,6-,7+/m1/s1
