18
gdb 74662	3.61564	1.45644	1.39711	1.3137	74.83	-0.2397	0.0271	0.2669	1003.5466	0.149394	-401.942109	-401.934879	-401.933935	-401.973681	28.712	
C	-0.0252012383	 1.4765534354	 0.0678687939	-0.478247
C	 0.0119090032	-0.0088937312	-0.0502752007	 0.394576
N	-0.0045535756	-0.6815320587	-1.1335748287	-0.305044
C	 0.0480643133	-2.0870046068	-0.7363160627	-0.03528
C	 1.416628694	-2.8068620661	-0.7559704208	-0.043719
C	 2.4569805163	-2.0028680772	-0.0422311825	-0.294588
C	 1.4637819372	-2.762619943	 0.7905808683	-0.067717
C	 0.0997969266	-2.0716081273	 0.8144967523	 0.063919
O	 0.0557583399	-0.6709972088	 1.152637218	-0.26516
H	 0.8632898899	 1.8393797935	 0.5941015352	 0.144144
H	-0.0720043128	 1.9227132943	-0.9248372764	 0.151204
H	-0.8964342067	 1.7856809863	 0.6538992209	 0.144861
H	-0.7521129965	-2.6650448126	-1.2030659788	 0.081226
H	 1.6715296742	-3.627109129	-1.4152003776	 0.090882
H	 3.4519969482	-2.4358256713	-0.0514304611	 0.115775
H	 2.4500098479	-0.91853997	-0.079305193	 0.126561
H	 1.7724921448	-3.5340025746	 1.4852680099	 0.088294
H	-0.6763527357	-2.5943195928	 1.3745538137	 0.088314
130.5517	146.2371	182.0852	315.4899	328.6041	481.9034	526.6432	620.5548	644.9199	704.6717	759.364	785.0866	840.0734	879.7261	904.724	924.4232	951.9121	969.6749	992.0243	1011.5727	1037.8044	1059.4272	1067.1778	1079.5418	1087.7823	1105.4217	1180.3387	1203.3249	1237.4293	1272.4663	1299.5346	1320.7828	1351.4063	1370.5038	1410.8255	1474.6022	1475.5419	1493.8779	1710.1019	3050.5521	3085.5061	3106.8286	3107.4837	3131.8246	3165.9944	3183.5783	3193.1427	3213.1305
CC1=NC2C3CC3C2O1	CC1=N[C@H]2[C@H]3C[C@H]3[C@H]2O1	
InChI=1S/C7H9NO/c1-3-8-6-4-2-5(4)7(6)9-3/h4-7H,2H2,1H3	InChI=1S/C7H9NO/c1-3-8-6-4-2-5(4)7(6)9-3/h4-7H,2H2,1H3/t4-,5+,6-,7+/m0/s1
