21
gdb 102823	2.64398	0.98666	0.78664	2.8102	80.1	-0.2411	-0.0192	0.2218	1487.6279	0.17973	-424.207914	-424.197627	-424.196682	-424.244463	36.122	
C	 0.9429142912	 1.5797699986	-0.0458809639	-0.243262
O	 0.1990371538	 0.3788428708	-0.1030001982	-0.249931
C	 0.5959123266	-0.5212431448	-1.1334657075	 0.059722
C	 0.7130005056	-1.9255005751	-0.5091912259	-0.270561
C	 1.7879075875	-2.0067531689	 0.549411016	 0.145381
O	 2.6775217359	-2.8202797808	 0.5597403583	-0.242982
C	-0.3980901872	-0.5257393663	-2.2854073385	 0.019573
C	-1.8804189897	-0.5167821317	-2.0147756956	-0.255772
C	-1.2178639022	 0.6877309048	-2.6377161	-0.284518
H	 2.0027551431	 1.3886001751	 0.1792232657	 0.111838
H	 0.8861090564	 2.1505941821	-0.9827109531	 0.114636
H	 0.5156020164	 2.1818428566	 0.7600215735	 0.13068
H	 1.5827610195	-0.2213054242	-1.5181504912	 0.080396
H	-0.2526959216	-2.1542866993	-0.0390773752	 0.129595
H	 0.9142702554	-2.679041498	-1.2754392852	 0.11615
H	 1.7034766124	-1.2382130555	 1.348748137	 0.085213
H	-0.0674842538	-1.1359493897	-3.121933526	 0.086974
H	-2.5231001298	-1.1378299329	-2.6283330327	 0.110707
H	-2.1940744085	-0.4163601132	-0.9816636114	 0.124298
H	-1.1235833713	 1.5676960077	-2.013387721	 0.120161
H	-1.3929472896	 0.8957709246	-3.6873921851	 0.111703
45.2287	73.1292	79.8881	116.8929	165.3513	175.9168	234.3178	266.9128	340.345	374.2085	434.9681	552.3838	581.6753	780.0124	792.0053	818.8973	836.6526	882.0789	929.9577	986.5213	1007.6102	1061.3864	1080.8267	1088.2081	1100.4665	1129.9168	1137.819	1152.6986	1183.2076	1197.279	1206.7025	1228.8108	1249.5508	1279.7718	1351.4208	1386.8182	1399.8403	1421.2658	1448.3733	1457.7235	1481.9655	1489.0713	1502.3902	1512.92	1828.6027	2894.5767	2979.5481	2990.8905	3032.6626	3041.5263	3107.4633	3114.8887	3137.1943	3139.3863	3145.7242	3220.8045	3235.5704
COC(CC=O)C1CC1	CO[C@@H](CC=O)C1CC1	
InChI=1S/C7H12O2/c1-9-7(4-5-8)6-2-3-6/h5-7H,2-4H2,1H3	InChI=1S/C7H12O2/c1-9-7(4-5-8)6-2-3-6/h5-7H,2-4H2,1H3/t7-/m0/s1
