20
gdb 56573	3.51542	1.01831	0.90896	2.1465	80.94	-0.2408	0.0405	0.2813	1335.0483	0.169405	-403.085628	-403.075791	-403.074847	-403.120154	36.775	
C	 0.067691423	 1.601082237	 0.0768725071	-0.395049
C	 0.0062825185	 0.0622511164	 0.0059135146	-0.180863
C	-1.3786190809	-0.4085486647	-0.0240573831	 0.277984
C	-2.5147116994	-0.7915375906	-0.1309075062	-0.44268
C	 0.7514282597	-0.5248687717	-1.2311898939	 0.099758
O	 0.1554019528	-0.0932191555	-2.4419347818	-0.441772
C	 2.2158380268	-0.1294724945	-1.2634577137	 0.005157
C	 2.994597488	-0.2280882924	-2.5195268288	-0.252958
N	 2.6489106133	 1.0921688505	-1.9561541168	-0.321644
H	 1.103993107	 1.9410648228	 0.138839609	 0.144986
H	-0.3867093229	 2.0397197145	-0.8147348643	 0.129829
H	-0.4761507786	 1.9644906394	 0.9520914853	 0.123193
H	 0.4951626837	-0.3537192264	 0.897375874	 0.108039
H	-3.5198757621	-1.1313546746	-0.1814749815	 0.200052
H	 0.6937092444	-1.6223674543	-1.1487602654	 0.082945
H	-0.7845774332	-0.3045480127	-2.3902377872	 0.292588
H	 2.7300642829	-0.3096525515	-0.320788282	 0.087563
H	 4.0501338139	-0.4820697858	-2.4829169047	 0.112952
H	 2.4660363183	-0.5546631373	-3.4095525178	 0.125881
H	 1.8505530448	 1.4527266115	-2.4750841727	 0.24404
72.7554	103.0327	132.7714	196.2897	227.4136	235.9187	271.1201	304.9408	362.7061	391.7174	419.9197	534.5263	622.5636	635.8012	653.4872	699.7165	790.477	810.1809	856.1771	905.2637	952.7511	994.09	998.399	1019.1627	1090.6783	1107.6306	1119.3439	1134.7678	1156.7703	1201.0336	1253.5869	1285.0742	1291.5222	1311.9922	1319.4724	1365.2678	1405.7891	1413.1192	1447.9771	1492.78	1505.066	1506.1157	2224.0146	2968.3428	3017.9012	3054.711	3115.2146	3120.9382	3130.2595	3137.0097	3207.9166	3498.0708	3501.1939	3785.3861
CC(C#C)C(O)C1CN1	C[C@@H](C#C)[C@@H](O)[C@H]1CN1	
InChI=1S/C7H11NO/c1-3-5(2)7(9)6-4-8-6/h1,5-9H,4H2,2H3	InChI=1S/C7H11NO/c1-3-5(2)7(9)6-4-8-6/h1,5-9H,4H2,2H3/t5-,6+,7+/m0/s1
