23
gdb 100155	3.886	0.6712	0.65984	3.128	83.82	-0.2473	-0.0172	0.2301	1802.0888	0.201677	-425.446455	-425.435175	-425.434231	-425.483351	40.653	
C	 0.141503929	 1.525967694	 0.2731833412	-0.393343
C	-0.0252120642	 0.035240441	-0.0357980926	-0.201996
C	 0.6329402509	-0.4406712198	-1.3506740442	 0.345461
C	 0.0735665927	 0.296887617	-2.5696545876	-0.402609
O	 2.0342696499	-0.134314727	-1.3371251142	-0.454562
C	 0.4395490428	-1.9715498608	-1.4755368877	-0.22679
C	 1.1357578271	-2.601109983	-2.6935653873	-0.283392
C	 1.2530548501	-4.0994089258	-2.5572515398	 0.159742
O	 0.8527715587	-4.9059272775	-3.3563608722	-0.24036
H	 1.1921628646	 1.8203818883	 0.2010135068	 0.125783
H	-0.4301199983	 2.1523337101	-0.4176007265	 0.120986
H	-0.2092346288	 1.750236085	 1.2849249648	 0.111844
H	 0.4103992572	-0.5531950871	 0.7850261195	 0.08317
H	-1.0898769659	-0.2283396165	-0.0577922485	 0.099063
H	 0.2372420461	 1.3722088518	-2.475192162	 0.127036
H	 0.5727997823	-0.0334845857	-3.4832529639	 0.127291
H	-1.0001120341	 0.1140322855	-2.6743831482	 0.113585
H	 2.4110839302	-0.5117391817	-0.5341047241	 0.275824
H	 0.8356791552	-2.4344241202	-0.55930984	 0.08569
H	-0.6316357288	-2.2040600363	-1.494196772	 0.110296
H	 0.6196928759	-2.3799697887	-3.6306952495	 0.121936
H	 2.1521856784	-2.1867583384	-2.7502279982	 0.132147
H	 1.7595773689	-4.431216854	-1.6180183039	 0.063198
53.3531	71.4205	104.5429	110.6969	156.0388	204.7034	241.8235	278.8873	294.3057	329.6948	353.1536	360.7115	414.0193	447.1493	536.375	586.9269	751.0023	770.3093	787.6931	840.2906	912.5462	941.0005	984.8367	1003.0467	1013.0077	1057.7687	1081.8051	1093.3477	1145.9994	1176.9839	1189.8444	1226.7859	1261.6788	1289.0702	1309.8691	1367.3589	1372.8553	1391.3939	1408.1245	1426.7353	1433.7666	1464.2466	1477.1188	1487.3966	1490.5298	1496.2289	1508.9546	1515.7666	1836.4026	2834.3651	2995.2616	3004.5856	3023.704	3044.8333	3049.185	3053.131	3062.6423	3109.7829	3111.7374	3121.0724	3126.9855	3136.4162	3794.8431
CCC(C)(O)CCC=O	CC[C@@](C)(O)CCC=O	
InChI=1S/C7H14O2/c1-3-7(2,9)5-4-6-8/h6,9H,3-5H2,1-2H3	InChI=1S/C7H14O2/c1-3-7(2,9)5-4-6-8/h6,9H,3-5H2,1-2H3/t7-/m1/s1
