17
gdb 23483	3.66295	1.39163	1.21528	0.6331	75.52	-0.2175	0.0013	0.2188	1033.9439	0.137439	-417.894067	-417.887014	-417.886069	-417.925515	28.231	
O	-0.1396689465	 1.3266663355	-0.040999087	-0.395963
N	 0.0136952227	-0.0745382933	-0.0324618652	-0.268463
C	-1.1127496267	-0.6548480744	-0.0240427557	 0.446622
C	-2.5599905719	-0.2220306465	 0.099573169	-0.155576
C	-3.3588035059	-0.539150928	-1.1936779782	-0.177562
N	-3.4131175947	-2.0076581561	-0.8849412672	-0.146111
C	-2.1009836235	-2.6578659361	-1.2137733334	-0.177549
C	-1.4267311293	-2.1294618852	 0.0820022524	-0.153359
C	-2.8781692989	-1.7033129366	 0.5089921454	 0.004236
H	 0.7741597363	 1.6284614605	-0.0031881863	 0.307027
H	-2.7830335431	 0.6795690837	 0.6677381707	 0.094938
H	-4.3700022259	-0.1227833916	-1.154805489	 0.114584
H	-2.9048240823	-0.2802200215	-2.1553393232	 0.111688
H	-2.2197315699	-3.745501219	-1.1897080374	 0.11376
H	-1.6637641101	-2.3687896875	-2.1747206271	 0.110639
H	-0.7440070462	-2.7739136298	 0.6345945228	 0.088436
H	-3.4182338439	-2.0322023341	 1.3945751193	 0.082654
105.2659	185.1956	255.3388	342.7319	390.6527	423.3965	474.1668	593.271	669.3848	710.2995	747.9442	810.4721	833.7867	883.3408	897.0718	911.3414	971.6007	985.5522	991.191	994.0725	996.7744	1103.4497	1111.0521	1149.1488	1178.9243	1190.9691	1195.1023	1211.4996	1217.4079	1239.5381	1272.7885	1310.677	1321.666	1408.5081	1492.2361	1505.7047	1777.4672	3038.5444	3043.4222	3092.0685	3095.0476	3117.9284	3125.9687	3137.8774	3818.8665
ON=C1C2CN3CC1C23	ON=C1[C@H]2CN3C[C@@H]1[C@@H]23	
InChI=1S/C6H8N2O/c9-7-5-3-1-8-2-4(5)6(3)8/h3-4,6,9H,1-2H2	InChI=1S/C6H8N2O/c9-7-5-3-1-8-2-4(5)6(3)8/h3-4,6,9H,1-2H2/t3-,4+,6-
