19
gdb 119452	4.50294	0.80313	0.75385	3.8142	77.16	-0.2396	-0.0069	0.2327	1508.1285	0.158096	-423.013451	-423.004422	-423.003478	-423.047883	33.335	
O	-0.1526778746	 1.4877215998	-0.0515157951	-0.417199
C	-0.0179811922	 0.0801386797	-0.155105345	-0.067275
C	-1.3758597289	-0.536081858	 0.1779931056	-0.301771
C	-1.3611299119	-2.0369903427	 0.117054771	 0.360945
C	-1.5576993012	-2.8296449697	-1.1266570048	-0.324771
C	-2.5822629309	-2.9987682188	-0.0066136053	-0.237277
C	-1.9918742426	-3.8394820328	 1.0802104132	 0.432323
O	-2.4137770609	-4.7326014651	 1.7589694933	-0.319535
C	-0.7179939061	-2.9560643353	 1.1776880241	-0.422121
H	 0.6996841739	 1.8886811907	-0.2444196205	 0.287929
H	 0.28566572	-0.2233113489	-1.1697880576	 0.089916
H	 0.7448731391	-0.3027856061	 0.5420431344	 0.091411
H	-1.6718621009	-0.1988730026	 1.1786646369	 0.11368
H	-2.117863839	-0.1379243956	-0.5237399014	 0.1111
H	-1.9470918135	-2.290051355	-1.9849623776	 0.125317
H	-0.8908725916	-3.6485809244	-1.383127228	 0.120762
H	-3.6322177019	-2.7890595905	-0.172296622	 0.109558
H	 0.2450143589	-3.4118563424	 0.9289291696	 0.116424
H	-0.6569313856	-2.5077176723	 2.1744432093	 0.130584
64.458	90.7386	98.4786	170.6101	257.807	322.146	334.5025	367.9146	412.7928	469.9777	554.8265	632.6999	728.5459	776.8874	801.0662	836.4194	919.7274	956.8236	967.5367	987.4507	1015.9096	1029.2053	1063.2093	1081.8484	1096.5	1107.3801	1134.6554	1204.8175	1207.3691	1230.759	1251.6727	1282.3229	1323.3229	1336.6888	1402.2288	1457.3823	1460.1343	1487.1809	1503.5367	1527.7227	1881.4707	2964.882	2992.1041	3032.887	3051.3216	3077.0684	3105.2689	3112.5742	3190.8674	3200.0867	3832.2806
OCCC12CC1C(=O)C2	OCC[C@]12C[C@H]1C(=O)C2	
InChI=1S/C7H10O2/c8-2-1-7-3-5(7)6(9)4-7/h5,8H,1-4H2	InChI=1S/C7H10O2/c8-2-1-7-3-5(7)6(9)4-7/h5,8H,1-4H2/t5-,7+/m0/s1
