22
gdb 111874	2.58173	1.32154	1.23695	1.1458	82.14	-0.2181	0.0835	0.3016	1178.188	0.196116	-404.323384	-404.314832	-404.313888	-404.356444	33.283	
C	 1.0308373548	 1.1554066249	 0.6634758229	-0.373846
C	-0.0451794144	 0.3567302448	-0.0696754572	-0.132519
N	 0.5555044694	-0.4034229021	-1.16421303	-0.094775
C	 1.0479265818	-1.7725774823	-0.9807159402	-0.034985
C	 0.8571015351	-2.5585537694	 0.3154481454	-0.24192
C	-0.4995015864	-3.2683583029	 0.3526175927	-0.071448
O	-1.5524197916	-2.3825641188	 0.0127976199	-0.236181
C	-1.5099580353	-2.0000759652	-1.3518294749	-0.115363
C	-0.1599230609	-1.482989479	-1.8215913292	-0.0436
H	 1.7576588298	 0.4916426962	 1.1437334597	 0.114439
H	 1.5762551929	 1.7957834076	-0.0355555334	 0.123364
H	 0.5839452678	 1.7837051395	 1.4403610146	 0.109089
H	-0.612737475	-0.2642188943	 0.6359400786	 0.109216
H	-0.7651904174	 1.0474571859	-0.5255247204	 0.09917
H	 1.9968484471	-1.9485965681	-1.4832239087	 0.088071
H	 1.6560759294	-3.3023051031	 0.4032399816	 0.100675
H	 0.9490149976	-1.8995658593	 1.1862644165	 0.11452
H	-0.4951679894	-4.1290225541	-0.3372241113	 0.08796
H	-0.7256236773	-3.6418619832	 1.3556054595	 0.106585
H	-1.7816110464	-2.8580069531	-1.9914968381	 0.092702
H	-2.2884849981	-1.2389042778	-1.4736792827	 0.113443
H	-0.0679743936	-1.485409826	-2.9082466652	 0.085401
92.1557	141.2293	157.9416	213.4639	277.4058	289.6152	359.8638	439.901	460.0217	517.9553	556.4462	715.719	747.7572	775.4302	808.6243	814.9716	879.7553	936.9719	957.551	995.5534	1029.5373	1050.458	1058.6131	1090.8508	1106.2636	1146.2359	1151.6271	1174.8789	1181.8294	1251.1806	1271.1692	1308.1233	1318.8946	1338.1944	1357.3347	1366.3258	1379.2464	1386.5952	1408.1559	1418.0386	1443.7776	1478.7699	1488.0192	1490.9152	1501.5675	1503.532	1522.3667	2954.8046	2965.9871	3017.4483	3036.3809	3039.5803	3049.7767	3063.7473	3076.6011	3085.5719	3094.5857	3104.074	3117.1364	3118.2708
CCN1C2CCOCC12	CCN1[C@H]2CCOC[C@@H]12	
InChI=1S/C7H13NO/c1-2-8-6-3-4-9-5-7(6)8/h6-7H,2-5H2,1H3	InChI=1S/C7H13NO/c1-2-8-6-3-4-9-5-7(6)8/h6-7H,2-5H2,1H3/t6-,7+,8?/m0/s1
