18
gdb 24156	5.14954	0.92646	0.84931	2.614	78.04	-0.2151	0.037	0.2521	1365.1396	0.14997	-398.131446	-398.123489	-398.122545	-398.165062	29.701	
C	-0.0850597199	 1.6528175218	 0.2120854138	-0.271008
N	-0.3032193215	 0.3478104841	-0.4053895064	-0.062275
C	-0.1620486157	-0.808199982	 0.4738954873	-0.216414
C	-1.5056421675	-0.361429992	 0.0122094396	-0.218769
C	 1.3520227152	 2.0632343956	 0.1109313496	 0.283783
C	 2.3229202262	 1.5643994601	-0.7181915504	-0.168124
N	 3.4562343579	 2.2962738933	-0.4319463136	-0.234081
C	 3.124970762	 3.1887692297	 0.5418357742	 0.006531
N	 1.8651504188	 3.0759982167	 0.8937325103	-0.311416
H	-0.7230961633	 2.3786115914	-0.3097284008	 0.116708
H	-0.3898892183	 1.6774174533	 1.2734776578	 0.096243
H	 0.3094702665	-1.6838774145	 0.0370531773	 0.111649
H	 0.0925233207	-0.6247533457	 1.5164792389	 0.115215
H	-2.1483634056	 0.1174909699	 0.7495493827	 0.109859
H	-2.0333194905	-0.9030414761	-0.7678707312	 0.114142
H	 2.3072488164	 0.7850118237	-1.4596251425	 0.137078
H	 4.3610809096	 2.1798952009	-0.8554985928	 0.26468
H	 3.838965719	 3.8870067298	 0.9527613262	 0.126198
44.5303	74.4729	137.3	260.9611	332.3318	357.3101	429.4534	518.1924	654.8165	690.3661	738.399	747.8532	774.2864	816.7448	842.4708	907.9334	949.1676	983.6514	1013.239	1031.5884	1057.0097	1089.8905	1115.6485	1118.7023	1135.135	1171.6389	1178.724	1237.5568	1252.3702	1270.5806	1323.9234	1350.4415	1395.6427	1457.0165	1484.5761	1494.6403	1521.322	1526.3667	1601.3643	2945.284	3026.0336	3093.2285	3098.6785	3175.3911	3190.1423	3250.04	3293.537	3669.0985
C(N1CC1)C1=CNC=N1	C(N1CC1)c1c[nH]cn1	
InChI=1S/C6H9N3/c1-2-9(1)4-6-3-7-5-8-6/h3,5H,1-2,4H2,(H,7,8)	InChI=1S/C6H9N3/c1-2-9(1)4-6-3-7-5-8-6/h3,5H,1-2,4H2,(H,7,8)
