14
gdb 33574	2.17729	1.6471	1.19794	3.0223	67.92	-0.2862	-0.0186	0.2676	1041.3722	0.099678	-436.641325	-436.633074	-436.63213	-436.6749	29.532	
C	 0.0271290812	-1.2481160252	-0.064614745	-0.430099
C	 0.0232824726	-0.0485363888	-0.0350700552	 0.32937
C	-0.0057014598	 1.4121036541	 0.0272269143	 0.039407
C	-0.6009079508	 1.9559879229	 1.3848034123	-0.153389
O	 0.5525640166	 2.2895924621	 2.1200448449	-0.220777
C	 1.4495887056	 2.7800776894	 1.1631010877	 0.013329
O	 1.3235242497	 1.9337556715	 0.0262080754	-0.266069
C	-0.762476883	 1.9557523734	-1.12204936	 0.272761
N	-1.3692749592	 2.4011372195	-1.9980147009	-0.331413
H	 0.0382025698	-2.3101980393	-0.1000800063	 0.216275
H	-1.2276871581	 2.8355235917	 1.1851173478	 0.128562
H	-1.169756348	 1.1996005496	 1.9233901575	 0.153351
H	 1.2083653271	 3.8199061764	 0.8851877543	 0.107409
H	 2.4687669164	 2.7054639426	 1.5476395131	 0.141284
44.6966	123.52	164.048	179.9591	263.0765	291.5934	461.7031	496.2978	509.9398	576.5682	583.4612	654.635	682.8308	733.512	779.5203	941.5622	969.9479	1000.6647	1047.2545	1080.7879	1114.7574	1173.4126	1188.4186	1226.2492	1280.0498	1357.1086	1422.7259	1504.7244	1540.0284	2247.996	2360.7567	2966.6664	3019.4079	3116.8952	3150.931	3497.901
C#CC1(COCO1)C#N	C#C[C@]1(COCO1)C#N	
InChI=1S/C6H5NO2/c1-2-6(3-7)4-8-5-9-6/h1H,4-5H2	InChI=1S/C6H5NO2/c1-2-6(3-7)4-8-5-9-6/h1H,4-5H2/t6-/m1/s1
