21
gdb 104018	2.97796	1.50947	1.33323	0.7672	78.03	-0.2454	0.0945	0.34	1069.5156	0.182483	-424.205954	-424.19753	-424.196586	-424.238525	33.404	
C	 0.1307141033	 1.3113926326	 0.1056374277	-0.258774
O	-0.010086789	-0.084776622	-0.0915328642	-0.289523
C	 0.6258077053	-0.6179168259	-1.2307628719	 0.52684
C	 0.029386134	-0.0557593213	-2.5171404039	-0.456179
O	 2.0501130049	-0.3655482527	-1.1958997511	-0.329469
C	 2.5890938012	-1.6846114392	-0.9633281008	 0.103321
C	 1.8345256694	-2.5425956146	-2.0062018936	-0.240154
C	 0.6371990725	-2.1540866652	-1.0809170231	-0.115204
C	 1.6478241978	-2.2906641315	 0.1038102198	-0.236615
H	 1.1822628074	 1.6149074625	 0.0557396212	 0.128642
H	-0.4469734439	 1.8965322091	-0.622953004	 0.105718
H	-0.2583866073	 1.5232493034	 1.1043480956	 0.122729
H	 0.3277280106	 0.9867073626	-2.6537843655	 0.129117
H	 0.3754477346	-0.6128672015	-3.3892064079	 0.121118
H	-1.0623782085	-0.1071076126	-2.4750002046	 0.122396
H	 3.6728180723	-1.6261794291	-0.8750388507	 0.077585
H	 1.8472941144	-2.1988049079	-3.0421171713	 0.09975
H	 2.0702550208	-3.606753428	-1.950194072	 0.10185
H	-0.3288610335	-2.6553683646	-1.1048409375	 0.076373
H	 1.8806354619	-3.331346673	 0.3352449923	 0.095932
H	 1.4573225319	-1.709196671	 1.0040527753	 0.114547
105.207	167.2051	193.8627	209.3601	247.8966	316.8711	393.3746	429.649	500.6456	530.7199	569.9261	618.4772	752.586	831.2406	843.3208	848.3249	874.5941	902.9355	931.0915	956.1693	985.4252	1036.2011	1048.0616	1057.9598	1082.2884	1110.2415	1120.3768	1160.6269	1179.0978	1182.937	1209.0256	1215.2943	1234.5761	1250.8285	1257.6522	1322.0701	1330.0572	1404.5908	1467.7573	1472.092	1484.1929	1486.9232	1504.4323	1511.4835	1514.6594	3005.4329	3053.116	3073.8787	3074.5321	3087.684	3118.9555	3125.8143	3133.5234	3133.8011	3137.564	3140.3522	3163.7565
COC1(C)OC2CC1C2	CO[C@@]1(C)O[C@@H]2C[C@H]1C2	
InChI=1S/C7H12O2/c1-7(8-2)5-3-6(4-5)9-7/h5-6H,3-4H2,1-2H3	InChI=1S/C7H12O2/c1-7(8-2)5-3-6(4-5)9-7/h5-6H,3-4H2,1-2H3/t5-,6+,7-/m0/s1
