18
gdb 99730	1.88187	1.58534	0.98251	1.6339	70.32	-0.2429	-0.0329	0.2099	1231.1692	0.144467	-476.264931	-476.254774	-476.25383	-476.30053	35.932	
C	 0.0023958449	 1.3479986971	 0.6370575581	-0.247837
O	-0.1194080529	-0.021048543	 0.9911577677	-0.231006
C	 1.0541719742	-0.6149171078	 1.4538537077	-0.083219
C	 0.7097425773	-1.9039814894	 2.2197985163	 0.358016
C	-0.7421221435	-2.2969542754	 2.2975508961	-0.462035
O	 1.5964089618	-2.5543091136	 2.7341011285	-0.3174
C	 2.072786329	-0.8910658056	 0.3021153125	 0.355109
N	 3.2352095298	-1.4577988577	 0.7222543497	-0.511944
O	 1.8372795884	-0.5573653561	-0.8396741109	-0.346402
H	 0.6759865528	 1.480599182	-0.213861759	 0.147834
H	-0.9991500041	 1.6891725262	 0.3667891145	 0.129673
H	 0.3618672737	 1.943299115	 1.4907478882	 0.101755
H	 1.5741904131	 0.0331156998	 2.1816291431	 0.116132
H	-1.3196413807	-1.50357923	 2.7813630136	 0.155167
H	-1.1542925677	-2.3951857604	 1.2883430448	 0.163
H	-0.8358405324	-3.2330635324	 2.8482975696	 0.137574
H	 3.2311219408	-1.9452066857	 1.6091268704	 0.275732
H	 3.8728927456	-1.764977543	 0.0037535891	 0.259851
50.5504	79.0887	133.8506	150.7958	182.9922	204.8116	229.3154	300.3587	345.255	421.806	484.8386	494.5922	508.9402	563.0747	599.4541	647.9105	705.6774	826.9023	856.2091	984.9016	1040.6432	1041.6553	1131.4485	1168.0059	1177.7623	1220.9001	1232.7107	1245.9867	1315.9366	1368.3387	1383.4142	1449.8748	1460.2616	1476.7633	1480.904	1516.1225	1618.2931	1790.697	1812.4077	2955.0337	2987.7233	3051.6729	3091.1506	3114.9455	3134.1861	3162.5837	3533.8939	3679.0559
COC(C(C)=O)C(N)=O	CO[C@@H](C(=O)C)C(=O)N	
InChI=1S/C5H9NO3/c1-3(7)4(9-2)5(6)8/h4H,1-2H3,(H2,6,8)	InChI=1S/C5H9NO3/c1-3(7)4(9-2)5(6)8/h4H,1-2H3,(H2,6,8)/t4-/m0/s1
