23
gdb 89273	2.22086	1.73762	1.28652	0.1509	89.88	-0.2319	0.0283	0.2601	1126.2458	0.206775	-351.168241	-351.159552	-351.158608	-351.201138	34.91	
C	-0.6079145591	 1.3483536433	-0.1393990165	-0.406634
C	-0.0089004921	-0.0499326643	-0.0315243125	 0.040092
C	 1.2559450622	-0.3165676037	-0.9031740314	-0.294188
C	 2.0994700117	-0.5718389706	 0.3877870749	 0.334136
C	 2.8700987158	-1.8878191552	 0.4328026347	-0.470827
C	 2.9199886716	 0.6155455178	 0.8287676489	-0.12961
C	 2.3832064272	 1.2700443448	 1.8580742489	-0.066577
C	 1.0773463953	 0.6619029456	 2.3203792348	-0.283783
C	 0.8009622985	-0.4261889468	 1.2611480102	-0.073315
H	 0.1430759082	 2.125340527	 0.0363392046	 0.120921
H	-1.0157654971	 1.5075287914	-1.144039905	 0.10994
H	-1.4251272806	 1.4986735663	 0.5749234785	 0.110226
H	-0.7984945622	-0.7825834708	-0.2253170803	 0.065947
H	 1.1722640903	-1.1940728469	-1.5513810494	 0.088377
H	 1.5858244764	 0.529593655	-1.5138361926	 0.090053
H	 3.7056066285	-1.8810774589	-0.2777811051	 0.111051
H	 3.2835427419	-2.0719821665	 1.4305640906	 0.113875
H	 2.2223998452	-2.7323446517	 0.1721540742	 0.108646
H	 3.8556522814	 0.8763409767	 0.3422627396	 0.084674
H	 2.8204245305	 2.1405723769	 2.3368111209	 0.087948
H	 1.1719740213	 0.2395621049	 3.3302862379	 0.098886
H	 0.2731787719	 1.4052681545	 2.3819889567	 0.102772
H	 0.4472866631	-1.357040309	 1.7104639774	 0.057391
64.1635	211.4209	220.6802	246.2941	263.1608	278.9647	305.7356	389.0169	457.5389	472.8728	612.6898	628.9218	745.7893	763.4638	781.5894	816.7541	865.759	893.418	916.6397	935.2485	955.4778	971.7753	984.7446	995.9217	1016.6121	1090.4381	1104.9466	1112.3778	1142.1626	1168.7821	1184.5011	1212.5693	1219.7499	1263.3697	1275.4862	1283.6925	1315.3588	1327.2977	1363.4981	1383.018	1405.3167	1409.7786	1480.0123	1484.6333	1491.7465	1494.7799	1498.3145	1506.0171	1680.3473	3009.4874	3017.6072	3025.6435	3038.5325	3044.2264	3046.7986	3075.4948	3082.4713	3087.6079	3090.2566	3094.168	3103.2931	3163.5468	3191.7848
CC1CC2(C)C=CCC12	C[C@H]1C[C@@]2(C)C=CC[C@@H]12	
InChI=1S/C9H14/c1-7-6-9(2)5-3-4-8(7)9/h3,5,7-8H,4,6H2,1-2H3	InChI=1S/C9H14/c1-7-6-9(2)5-3-4-8(7)9/h3,5,7-8H,4,6H2,1-2H3/t7-,8-,9+/m0/s1
