18
gdb 48249	2.52194	1.07028	0.81207	1.3013	78.62	-0.2463	-0.0313	0.2151	1398.8121	0.144947	-401.888502	-401.878766	-401.877821	-401.924478	34.27	
O	-0.3154221481	 0.0130249961	 0.1619653439	-0.245128
C	-0.1425209205	 1.1734963909	-0.0990069468	 0.175383
C	 1.1974740017	 1.8892862378	 0.0045989294	-0.100806
C	 1.4401753295	 2.7984967213	-1.224563308	-0.383382
C	 1.5005413996	 2.0559085192	-2.4770785045	 0.282306
C	 1.5411293865	 1.4110856369	-3.4902570529	-0.417579
C	 1.212632473	 2.7045553098	 1.2901461805	 0.009016
C	 1.5542149359	 2.0613766839	 2.5811864429	-0.249036
N	 2.4849774006	 3.0213247306	 1.9579931696	-0.323868
H	-0.9903628427	 1.8289541661	-0.4096881985	 0.077476
H	 1.9695313225	 1.114436062	 0.0588136443	 0.102234
H	 0.6398058295	 3.5492466853	-1.2772083915	 0.137014
H	 2.3692431137	 3.3598657111	-1.0711926192	 0.145988
H	 1.5768819424	 0.8506130566	-4.3915580098	 0.20217
H	 0.5089611704	 3.5359962236	 1.3016526219	 0.099324
H	 1.090198411	 2.4049849751	 3.5007142084	 0.126965
H	 1.8032466113	 1.0036397355	 2.5651959092	 0.128422
H	 3.2466555438	 2.5156078784	 1.510240581	 0.2335
48.5241	56.7723	82.6152	113.5298	190.1752	253.6336	287.3716	343.1616	393.5439	416.1782	500.6213	574.1069	633.8584	650.368	805.0018	849.8919	854.8313	927.7439	950.6579	959.3	992.6598	1055.3756	1078.2287	1087.4765	1128.5237	1161.404	1192.1023	1214.8144	1246.6402	1271.9685	1308.908	1315.7192	1350.8006	1414.7634	1427.4922	1471.6981	1515.4448	1837.9241	2241.2477	2853.089	3019.0465	3055.2493	3066.2621	3113.5147	3116.5795	3202.2802	3487.2893	3506.0622
O=CC(CC#C)C1CN1	O=C[C@@H](CC#C)[C@H]1CN1	
InChI=1S/C7H9NO/c1-2-3-6(5-9)7-4-8-7/h1,5-8H,3-4H2	InChI=1S/C7H9NO/c1-2-3-6(5-9)7-4-8-7/h1,5-8H,3-4H2/t6-,7-/m1/s1
