15
gdb 35392	4.31311	1.33033	1.2174	3.7021	68.83	-0.2539	0.0065	0.2603	998.236	0.114935	-416.741376	-416.734899	-416.733954	-416.772476	25.503	
N	-0.0954419107	-1.1644630114	-0.0607662851	-0.319893
C	-0.0679891577	-0.0103152204	-0.0171344314	 0.289124
C	-0.0038378926	 1.4568584906	 0.0113385266	-0.059377
O	-0.4742093334	 1.9657267006	 1.2742933918	-0.272853
C	 0.6472727998	 2.6709515617	 1.7641543111	 0.15326
C	 1.3609967931	 3.4421454715	 0.6205784684	-0.08418
N	 2.6625261015	 3.2506026108	 1.3533518333	-0.332548
C	 1.9690139579	 1.9161317757	 1.4563516823	-0.069105
C	 1.4246559036	 2.0091677991	-0.0091781849	-0.075936
H	-0.6280506118	 1.8523043406	-0.7989354171	 0.135334
H	 0.4508424268	 3.1223081412	 2.7324122054	 0.117569
H	 1.077564967	 4.3806178372	 0.1436588768	 0.094537
H	 3.4262330482	 3.1824819194	 0.6755366128	 0.217964
H	 2.402820814	 1.0556184276	 1.9644136249	 0.106398
H	 2.0687702843	 1.7949902559	-0.8611262848	 0.099706
102.8087	159.5077	322.944	416.8223	451.0861	490.246	579.099	695.8212	737.957	800.5812	819.0884	884.4441	900.8734	911.1641	931.8453	975.1971	986.8078	1007.879	1015.5402	1072.1885	1121.1065	1131.2325	1150.3001	1155.6231	1173.8579	1243.741	1256.3458	1266.4715	1292.3639	1304.5989	1350.1084	1369.5217	2360.2427	3041.7365	3117.0608	3127.2877	3139.8622	3180.773	3406.6468
N#CC1OC2C3NC2C13	N#C[C@H]1O[C@@H]2[C@H]3N[C@@H]2[C@@H]13	
InChI=1S/C6H6N2O/c7-1-2-3-4-6(9-2)5(3)8-4/h2-6,8H	InChI=1S/C6H6N2O/c7-1-2-3-4-6(9-2)5(3)8-4/h2-6,8H/t2-,3-,4-,5+,6+/m1/s1
