19
gdb 72229	2.56559	1.90607	1.33815	1.2086	74.48	-0.2344	0.0661	0.3005	992.9169	0.15941	-422.995772	-422.987892	-422.986948	-423.027484	31.758	
C	-0.0655338196	 1.5101788867	 0.056915671	-0.501209
C	 0.0198363494	 0.0129783109	 0.0067088509	 0.291112
C	 0.8366325584	-0.7985800277	-1.0052199552	-0.304153
C	-0.1234942592	-2.00301105	-0.7472192498	 0.082086
O	 0.4005346254	-2.8924845281	 0.2381166164	-0.265135
C	 0.5570358772	-2.1291478422	 1.4335183639	-0.150556
C	-0.2712412193	-0.8598203212	 1.2158579161	 0.327029
O	-0.7638554031	-0.1856101137	 2.3274578503	-0.474738
C	-1.0969174503	-1.0440991155	-0.033245742	-0.219496
H	 0.9048640684	 1.9471744342	 0.3212812464	 0.120569
H	-0.358263204	 1.9177245075	-0.917244856	 0.113375
H	-0.7911415463	 1.8368964782	 0.8051298783	 0.135503
H	 0.709574437	-0.393847421	-2.0141873906	 0.100263
H	 1.9015281899	-0.9736075106	-0.8162477272	 0.09481
H	-0.4502249295	-2.5935220291	-1.6012845673	 0.084876
H	 0.1660275037	-2.7040741508	 2.2838112632	 0.091454
H	 1.6177791441	-1.9179815453	 1.6264751737	 0.101525
H	-1.4280622678	-0.7430328655	 2.7485754571	 0.286791
H	-2.1743114544	-0.9584456967	-0.0918503892	 0.085894
180.4725	198.8934	223.1542	260.8527	291.8362	353.021	386.9434	416.2849	461.2006	594.7747	614.6583	694.228	727.6972	777.6244	849.5973	890.3137	907.7436	937.4924	956.6887	963.1794	1008.9621	1040.4152	1055.0216	1107.7059	1124.9455	1162.2623	1181.7605	1203.3292	1213.9943	1224.3739	1254.5253	1298.4147	1311.8718	1346.9392	1376.8399	1414.9793	1443.4306	1488.3724	1488.8904	1500.0033	1524.174	3000.6447	3026.7971	3032.3278	3037.1323	3081.5813	3089.9584	3125.5946	3133.9195	3198.1005	3788.8089
CC12CC3OCC1(O)C23	C[C@@]12C[C@H]3OC[C@]1(O)[C@@H]23	
InChI=1S/C7H10O2/c1-6-2-4-5(6)7(6,8)3-9-4/h4-5,8H,2-3H2,1H3	InChI=1S/C7H10O2/c1-6-2-4-5(6)7(6,8)3-9-4/h4-5,8H,2-3H2,1H3/t4-,5-,6+,7+/m1/s1
