17
gdb 11532	5.81038	0.96823	0.91393	2.7555	65.98	-0.2477	-0.0425	0.2052	1253.3807	0.140888	-400.973788	-400.965363	-400.964419	-401.007449	30.01	
O	-0.2237846578	 1.3774994115	 0.0008173448	-0.433574
C	 0.040778686	 0.0042848461	-0.0786113322	 0.059136
C	 0.8867862095	-0.3259820406	-1.3264089155	-0.248966
C	 0.1689706738	 0.0388961668	-2.606127749	 0.042072
C	 0.4657902705	-0.6803426422	-3.8669016496	-0.250326
N	-0.8311265502	-0.8732471443	-3.1886764303	-0.316081
C	 0.7384434352	-0.4731608975	 1.1775486139	 0.13521
O	 1.0138510761	 0.2808546363	 2.07920993	-0.257335
H	 0.1164563791	 1.6610191704	 0.8641769311	 0.295704
H	-0.9052198746	-0.5651721051	-0.1471867502	 0.099386
H	 1.8294665436	 0.2309258738	-1.2547823728	 0.118851
H	 1.1344855314	-1.3967364001	-1.3331065516	 0.0893
H	-0.1228131837	 1.0842104214	-2.6629960594	 0.117213
H	 0.4119237849	-0.1617801923	-4.8197446578	 0.122863
H	 1.1961538665	-1.4855539741	-3.8329818046	 0.107812
H	-0.8211248935	-1.7606973616	-2.689393078	 0.22195
H	 0.9862057032	-1.5538873284	 1.2239760013	 0.096784
67.9861	80.8939	111.1641	173.4034	296.2222	325.9216	346.2261	416.8245	443.5444	504.3949	750.01	781.6657	821.9588	841.6997	897.4639	937.18	965.2224	979.2127	1042.3954	1066.8823	1125.6789	1142.8758	1167.405	1200.096	1239.6261	1263.3873	1271.6611	1305.241	1314.1782	1359.7538	1397.655	1426.4021	1437.4713	1461.3363	1514.278	1814.2222	2919.807	2941.7654	3009.1001	3060.4246	3105.4992	3151.3173	3191.3431	3480.0026	3691.6688
OC(CC1CN1)C=O	O[C@@H](C[C@H]1CN1)C=O	
InChI=1S/C5H9NO2/c7-3-5(8)1-4-2-6-4/h3-6,8H,1-2H2	InChI=1S/C5H9NO2/c7-3-5(8)1-4-2-6-4/h3-6,8H,1-2H2/t4-,5-/m0/s1
