23
gdb 57527	2.66624	1.1609	1.05305	2.8479	81.39	-0.2491	0.0707	0.3198	1301.9779	0.202578	-425.420579	-425.410167	-425.409223	-425.455576	39.95	
C	-0.049402331	 1.4897628378	 0.2348717664	-0.417905
C	 0.0485774004	-0.0322672584	 0.031793162	 0.3641
C	 0.8699338358	-0.6639203055	 1.1587872727	-0.394326
O	-1.2466110724	-0.6202339087	 0.127545593	-0.476959
C	 0.6861439657	-0.4044996157	-1.3342148108	-0.318455
C	-0.0021589005	 0.1846621992	-2.5685183735	 0.408197
C	 0.6766128604	 1.3637219627	-3.2303989014	-0.460213
C	-0.8994140655	-0.6583598246	-3.3758496055	-0.220679
O	-1.4478966569	 0.3164692131	-2.4799515089	-0.282817
H	 0.9350118542	 1.9691619691	 0.1900468308	 0.101553
H	-0.691334617	 1.9484869663	-0.5225681873	 0.124377
H	-0.487550012	 1.6975871704	 1.2150998252	 0.118915
H	 0.3829229186	-0.4734145163	 2.1193381787	 0.120713
H	 0.9366102567	-1.7473520657	 1.0233409974	 0.114566
H	 1.882617055	-0.2506854296	 1.1932028885	 0.104229
H	-1.7382259945	-0.312202621	-0.6471848816	 0.286676
H	 1.7350773094	-0.0879608418	-1.3429369026	 0.098008
H	 0.6825420388	-1.4971845208	-1.3948583976	 0.106555
H	 1.6525354583	 1.0648567651	-3.6282080761	 0.125049
H	 0.0673238944	 1.7494656695	-4.0515386924	 0.127314
H	 0.8422686326	 2.1740018583	-2.5139636665	 0.133052
H	-1.0490227542	-0.4409124174	-4.4324502161	 0.115745
H	-1.0642612362	-1.694932546	-3.0864924744	 0.122307
43.8642	104.0967	192.4643	214.3358	220.0016	261.5552	289.9465	307.3804	341.5716	370.4994	388.7348	421.4608	431.4146	462.3582	559.6172	596.9445	717.2021	767.2175	838.0012	875.0433	910.4497	925.0907	930.4193	955.1274	988.684	1013.2428	1036.0709	1091.2649	1127.738	1135.3706	1163.8439	1184.4597	1239.4647	1258.1942	1306.9258	1338.7519	1389.1369	1393.0774	1409.4137	1417.6289	1435.8644	1471.117	1481.699	1484.2091	1491.8253	1497.2327	1500.4674	1512.7415	1527.5361	3031.1233	3036.4625	3038.9762	3044.6878	3084.821	3085.3995	3102.8838	3104.5961	3114.8049	3115.808	3119.0724	3125.0376	3174.3203	3722.638
CC(C)(O)CC1(C)CO1	CC(C)(O)C[C@@]1(C)CO1	
InChI=1S/C7H14O2/c1-6(2,8)4-7(3)5-9-7/h8H,4-5H2,1-3H3	InChI=1S/C7H14O2/c1-6(2,8)4-7(3)5-9-7/h8H,4-5H2,1-3H3/t7-/m0/s1
