17
gdb 91278	2.91172	1.50804	1.24341	3.5222	67.86	-0.2626	0.0073	0.2699	1036.1379	0.13644	-458.999127	-458.991491	-458.990547	-459.031688	28.878	
C	 0.3036879577	 1.5615035394	 0.0036981848	-0.407415
C	 0.1137820262	 0.0647025044	 0.0848990037	 0.12826
O	 0.9523844438	-0.6748607014	-0.8484446393	-0.314385
C	 1.3680309338	-1.6031062078	 0.1758687024	 0.098713
C	 2.8542021088	-1.55174264	 0.4631161048	-0.383459
C	 3.0022466198	-0.4461563054	 1.5084355545	 0.426324
O	 4.0030347118	 0.0421645171	 1.9367461027	-0.322097
O	 1.7618990445	-0.0635525383	 1.9540657134	-0.222736
C	 0.7092301782	-0.7306561339	 1.2679432429	 0.026025
H	 1.3333435157	 1.8427928702	 0.233342411	 0.140507
H	 0.0612275267	 1.9072487998	-1.0055992681	 0.132835
H	-0.3619318886	 2.068260979	 0.7098105585	 0.126139
H	-0.9411054788	-0.2036868239	-0.0697940206	 0.081344
H	 0.962056336	-2.6055670311	 0.0128806849	 0.089069
H	 3.2384117584	-2.4855069725	 0.8863022256	 0.141755
H	 3.4439602702	-1.3119789553	-0.4236117152	 0.158521
H	 0.0264408459	-1.1614809901	 2.000383184	 0.100603
86.7026	92.5991	196.2383	249.322	360.1075	378.2234	459.5618	557.1772	562.2094	632.2506	688.6819	801.0203	838.1789	844.4073	871.4229	913.2232	932.6761	1015.6806	1022.1955	1047.367	1097.8567	1126.4276	1145.5318	1161.8222	1181.1253	1239.273	1259.2216	1294.1848	1325.2562	1343.4958	1372.2612	1393.4154	1413.7671	1440.1655	1484.3253	1490.2084	1892.6776	3002.569	3046.5316	3060.8637	3073.1915	3113.3972	3114.9874	3129.3793	3138.8733
CC1OC2CC(=O)OC12	C[C@H]1O[C@H]2CC(=O)O[C@@H]12	
InChI=1S/C6H8O3/c1-3-6-4(8-3)2-5(7)9-6/h3-4,6H,2H2,1H3	InChI=1S/C6H8O3/c1-3-6-4(8-3)2-5(7)9-6/h3-4,6H,2H2,1H3/t3-,4+,6+/m1/s1
