16
gdb 95615	2.35617	1.7314	1.04184	3.9191	67.72	-0.2685	-0.0729	0.1956	1089.7724	0.124655	-475.043366	-475.035348	-475.034404	-475.076357	29.964	
O	-0.0045352217	 1.4129059457	 0.0698213722	-0.442958
C	-0.0553608381	 0.0206889227	 0.0059734892	 0.060649
C	-1.4833728976	-0.5198179401	-0.1150677979	-0.257996
C	-1.4234161906	-2.0387860186	-0.1265263413	-0.086932
O	-0.6101154327	-2.5670353432	-1.1900358023	-0.256767
C	 0.5459052116	-1.956913871	-1.5698913049	 0.308737
N	 1.4171181827	-2.5300811765	-2.2850042698	-0.466359
C	 0.7484762562	-0.5004307112	-1.174821643	 0.299029
O	 1.4871441706	 0.2339245442	-1.7851876753	-0.29946
H	 0.6829212536	 1.6790100246	-0.5618167976	 0.298137
H	 0.3982010023	-0.4305482539	 0.9113277421	 0.100007
H	-2.0863470974	-0.1778030756	 0.7314692736	 0.129596
H	-1.9484273363	-0.1401874318	-1.0315751318	 0.127612
H	-1.0292825008	-2.4136427246	 0.8279155085	 0.120255
H	-2.4094492775	-2.4810226036	-0.2808522595	 0.132961
H	 1.1364745257	-3.4956663571	-2.4742017921	 0.233488
65.3866	96.4636	252.6872	275.512	323.7384	355.0964	415.3291	436.4874	442.504	509.8065	595.3435	638.5855	702.6446	811.3393	897.5637	910.1988	925.4538	974.3117	1043.8875	1086.8545	1112.8315	1150.7301	1181.3726	1190.6199	1268.159	1278.2427	1314.054	1338.5548	1385.382	1424.2703	1436.1666	1485.8303	1513.5679	1723.1832	1812.2222	2907.969	3018.334	3051.2718	3101.9543	3113.4519	3459.9751	3690.0906
OC1CCOC(=N)C1=O	O[C@H]1CCO[C]([NH])C1=O	
InChI=1S/C5H7NO3/c6-5-4(8)3(7)1-2-9-5/h3,6-7H,1-2H2	InChI=1S/C5H7NO3/c6-5-4(8)3(7)1-2-9-5/h3,6-7H,1-2H2/t3-/m0/s1
