17
gdb 48079	2.96966	1.2195	0.88405	2.2889	78.23	-0.2465	-0.0982	0.1483	1271.5898	0.135338	-421.862474	-421.853935	-421.852991	-421.896656	30.417	
O	-0.8804217637	 1.2911463632	-0.1693474515	-0.232609
C	 0.1900022658	 1.0088263977	 0.3012980764	 0.089864
C	 1.3731956821	 1.9717897765	 0.4763910082	 0.179863
O	 2.3961834597	 1.4771263936	 0.9166966958	-0.301179
C	 1.233022859	 3.3921557219	 0.107849307	 0.232398
C	 2.2866218339	 4.2265895112	 0.1263390226	-0.109942
C	 1.9302572338	 5.6119666334	-0.3274209704	-0.259519
C	 0.3800836381	 5.5974838236	-0.3275600583	-0.220089
C	-0.0230895149	 4.0998701026	-0.3731040027	-0.312311
H	 0.4502871656	-0.0116381894	 0.6551296281	 0.109182
H	 3.2883574323	 3.9182437421	 0.4033779715	 0.126128
H	 2.3561234184	 6.3898292544	 0.316120078	 0.117374
H	 2.3455595393	 5.7915061634	-1.3302979344	 0.122139
H	 0.0157049635	 6.044979391	 0.602380722	 0.111535
H	-0.047925311	 6.1732091133	-1.1511330117	 0.105678
H	-0.2814130782	 3.7736579726	-1.387684374	 0.119496
H	-0.8995998936	 3.8814931389	 0.2404237733	 0.121992
50.5652	104.715	122.7562	167.3455	199.0663	271.0958	395.917	423.644	543.2758	599.8198	646.6449	663.624	812.648	838.4568	871.455	912.6698	921.1679	963.8516	1024.1328	1032.3614	1060.9621	1070.874	1154.8401	1213.145	1229.7525	1269.0918	1289.1821	1321.9975	1329.1536	1357.5122	1372.4146	1472.115	1480.8648	1502.6497	1645.5369	1745.5468	1825.2018	2920.6076	3003.695	3039.363	3051.7472	3064.7064	3099.5441	3111.6432	3209.1476
O=CC(=O)C1=CCCC1	O=CC(=O)C1=CCCC1	
InChI=1S/C7H8O2/c8-5-7(9)6-3-1-2-4-6/h3,5H,1-2,4H2	InChI=1S/C7H8O2/c8-5-7(9)6-3-1-2-4-6/h3,5H,1-2,4H2
