16
gdb 124390	3.25664	1.23175	0.95337	4.7556	75.64	-0.2524	0.0027	0.255	1197.9684	0.124555	-396.896944	-396.888523	-396.887579	-396.931162	30.689	
C	-0.1477544881	 1.6290892726	 0.8495167373	-0.381647
C	-0.0903076253	 0.2672050586	 0.1135525916	-0.302848
C	 0.852824544	-0.6427556835	 0.7662833256	 0.307917
C	 1.6092543188	-1.3887994399	 1.3289040426	-0.442979
C	-1.4594236021	-0.3564317019	-0.0021072014	 0.37543
C	-2.6085735054	 0.0161869107	-0.6646975916	-0.162088
N	-3.5832621651	-0.9013278683	-0.4142890932	-0.189215
N	-3.1055920386	-1.8276378048	 0.3676655503	-0.118631
N	-1.8250548556	-1.5007459346	 0.6206153578	-0.23953
H	 0.8465069215	 2.0810598001	 0.8851231928	 0.132979
H	-0.8264848252	 2.3080616566	 0.3276090636	 0.131465
H	-0.5084259266	 1.495632969	 1.8722048326	 0.138374
H	 0.2740966019	 0.4557193847	-0.9051027326	 0.13682
H	 2.298617131	-2.0389616168	 1.8095423709	 0.209609
H	-2.786428875	 0.8719097989	-1.2960302403	 0.121225
H	-1.2467116403	-2.0948870413	 1.195612074	 0.283119
22.7949	124.7835	158.7555	200.102	238.2969	321.6181	377.8434	472.8059	533.9806	624.1177	639.5736	663.0195	685.7819	726.6327	736.1873	847.3621	869.0484	989.9115	1012.5148	1059.4228	1076.9437	1080.089	1116.6758	1140.6268	1231.2302	1279.6652	1312.1364	1339.2112	1373.8447	1408.0449	1448.8837	1490.1568	1496.0907	1594.3255	2235.5141	3018.6012	3051.2635	3132.2778	3135.4309	3267.0032	3499.4213	3641.1911
CC(C#C)C1=CN=NN1	C[C@@H](C#C)c1cnn[nH]1	
InChI=1S/C6H7N3/c1-3-5(2)6-4-7-9-8-6/h1,4-5H,2H3,(H,7,8,9)	InChI=1S/C6H7N3/c1-3-5(2)6-4-7-9-8-6/h1,4-5H,2H3,(H,7,8,9)/t5-/m0/s1
