17
gdb 72571	2.46478	1.94622	1.50583	3.4212	66.49	-0.2715	0.0073	0.2788	920.9012	0.138236	-459.018999	-459.011951	-459.011006	-459.050099	28.653	
O	 0.0736783455	 1.3861831202	 0.0844256458	-0.496525
C	 0.0112889519	 0.0009130901	 0.0759771506	 0.286324
C	 0.7024423292	-0.7220736655	 1.2760862951	-0.267982
C	 0.1938949828	-2.1856426863	 1.1341589246	-0.22573
C	-0.7111148461	-2.0851382092	-0.1086547503	 0.086132
C	-1.3645283071	-0.7053138875	 0.0384694134	-0.286314
O	 0.1743282931	-1.8914135207	-1.2634302471	-0.235672
C	 0.6203529674	-0.6162940343	-1.1789540653	 0.405324
O	 1.3581878948	-0.0841508544	-1.9616764804	-0.376136
H	 0.6596206489	 1.6363926088	-0.6454302001	 0.295344
H	 1.789974795	-0.6319927386	 1.2300168139	 0.121239
H	 0.365441067	-0.2484341443	 2.2014395863	 0.119071
H	 0.9952165765	-2.9089816369	 0.9713349453	 0.123448
H	-0.3830895981	-2.5097232591	 2.0043238073	 0.113686
H	-1.342816136	-2.9428923062	-0.3277179948	 0.099325
H	-1.93899697	-0.59080524	 0.9606262083	 0.115728
H	-1.9731912248	-0.4199000962	-0.8224054127	 0.122739
154.3765	225.2318	284.8629	340.1903	392.4299	405.1394	440.9409	540.2737	564.9528	644.634	736.4971	745.1368	805.7977	829.4478	885.8166	899.776	937.9041	949.9444	976.1652	1010.2631	1058.7147	1096.1652	1137.6268	1154.5531	1189.8659	1196.2511	1243.5131	1254.2683	1288.276	1326.3828	1346.4631	1378.6352	1419.9833	1482.2723	1489.5282	1511.2898	1876.9072	3065.9099	3071.24	3075.8128	3110.3493	3127.1709	3132.8417	3150.3863	3724.3303
OC12CCC(C1)OC2=O	O[C@@]12CC[C@@H](C1)OC2=O	
InChI=1S/C6H8O3/c7-5-6(8)2-1-4(3-6)9-5/h4,8H,1-3H2	InChI=1S/C6H8O3/c7-5-6(8)2-1-4(3-6)9-5/h4,8H,1-3H2/t4-,6-/m0/s1
