17
gdb 32000	3.85318	1.28929	0.98634	2.9622	76.66	-0.1928	0.0473	0.2401	1182.323	0.137649	-417.993898	-417.985904	-417.98496	-418.027102	29.025	
C	 0.9467186331	 0.54287531	-0.0006412267	-0.247581
O	-0.3995443329	 0.9801120471	 0.1095035884	-0.25967
C	-1.2864387854	-0.0047152908	 0.3434653784	 0.343177
C	-1.2006536904	-1.3780547307	 0.5042771901	-0.246292
N	-2.4577379435	-1.951353323	 0.7215646035	-0.359009
C	-3.2464293648	-0.9146609798	 0.7296504075	 0.358139
C	-4.6367236519	-0.3104379473	 0.618161791	-0.361996
C	-3.8644986378	 1.029762931	 0.2934688988	-0.172245
N	-2.6145141842	 0.2759809077	 0.5376716434	-0.089171
H	 1.5465523288	 1.4321286056	-0.1973890548	 0.136876
H	 1.2818426269	 0.0683801735	 0.9302551956	 0.129786
H	 1.0611938909	-0.1706839831	-0.826371519	 0.129791
H	-0.3095372692	-1.9849030955	 0.4963719967	 0.104858
H	-5.2530057355	-0.6844527159	-0.2025170598	 0.134309
H	-5.2325429122	-0.2854407008	 1.5337551887	 0.130857
H	-3.9684477961	 1.3729808509	-0.738536969	 0.136347
H	-4.0166465158	 1.862822421	 0.983138857	 0.131823
64.1	96.2972	186.911	196.3858	225.3776	345.8499	371.6095	570.912	643.471	653.8725	680.2831	751.0362	758.4262	804.9437	834.5203	898.1391	1035.9494	1050.2651	1095.5496	1122.818	1136.9023	1178.4581	1183.6325	1202.8219	1215.0613	1231.1515	1257.5232	1283.8123	1387.5892	1448.0163	1465.7696	1483.0962	1483.9167	1509.2672	1513.8659	1589.2686	1599.3534	3010.367	3066.7852	3070.2719	3071.4614	3114.603	3129.2423	3143.7632	3258.2346
COC1=CN=C2CCN12	COc1cnc2CCn12	
InChI=1S/C6H8N2O/c1-9-6-4-7-5-2-3-8(5)6/h4H,2-3H2,1H3	InChI=1S/C6H8N2O/c1-9-6-4-7-5-2-3-8(5)6/h4H,2-3H2,1H3
