21
gdb 120404	2.80692	0.97373	0.855	3.2811	80.5	-0.2373	-0.016	0.2213	1464.1791	0.179508	-424.234438	-424.224264	-424.22332	-424.270469	36.312	
C	-0.0544869165	 1.4775388323	 0.0990740802	-0.385722
C	-0.2145944431	-0.0148099171	-0.1351537809	-0.039151
O	 0.8579168705	-0.4576434964	-0.9481050855	-0.250092
C	 0.8434772888	-1.8354769047	-1.2196839104	 0.10512
C	-0.1380497	-2.232820049	-2.3725201257	-0.372811
C	 1.0835046833	-2.2403123744	-3.309647472	 0.392185
O	 1.223006657	-2.1971182828	-4.4967686127	-0.296437
C	 2.0634842616	-2.2067223492	-2.1231738683	-0.114811
C	 3.2873761804	-1.3057387546	-2.1894887589	-0.406906
H	 0.8989044592	 1.6883696556	 0.5915373147	 0.128477
H	-0.0769197014	 2.0197998185	-0.850387211	 0.129552
H	-0.8641308392	 1.8521663337	 0.7322622146	 0.117022
H	-0.2076754259	-0.5632869544	 0.8215604655	 0.089304
H	-1.1803217241	-0.2277184301	-0.6208049033	 0.090949
H	 0.7428195008	-2.412869965	-0.2911301738	 0.064793
H	-0.5775993614	-3.2292900132	-2.2604828471	 0.126469
H	-0.9286781047	-1.5191557343	-2.6156590205	 0.131702
H	 2.3555092311	-3.2440214986	-1.9099795746	 0.103274
H	 2.992282275	-0.2614392407	-2.3064994782	 0.13871
H	 3.8918159184	-1.3888777434	-1.2813615225	 0.117454
H	 3.9094384203	-1.5891794022	-3.0434547194	 0.130918
43.866	77.0175	112.373	133.3536	161.9884	195.8391	248.4539	277.1285	343.0361	414.0702	463.4623	519.453	532.5093	700.6367	727.5592	820.2695	822.0668	888.4777	909.1496	919.3726	1001.8353	1015.8477	1047.0235	1083.7165	1117.2899	1143.8158	1157.8075	1170.1225	1189.195	1209.0221	1245.3239	1275.0354	1299.1985	1335.1918	1366.7867	1399.818	1404.7074	1422.6583	1440.5384	1483.6165	1487.3809	1499.4787	1500.4264	1528.529	1894.3965	2963.8314	2992.57	3010.4089	3027.3581	3046.1675	3047.8428	3059.7155	3113.4278	3121.1157	3121.7598	3123.3336	3138.4463
CCOC1CC(=O)C1C	CCO[C@H]1CC(=O)[C@H]1C	
InChI=1S/C7H12O2/c1-3-9-7-4-6(8)5(7)2/h5,7H,3-4H2,1-2H3	InChI=1S/C7H12O2/c1-3-9-7-4-6(8)5(7)2/h5,7H,3-4H2,1-2H3/t5-,7+/m1/s1
