15
gdb 28335	4.89531	1.27861	1.03058	3.9011	67.23	-0.1853	0.0447	0.23	1088.1244	0.11564	-453.976832	-453.969737	-453.968793	-454.008391	27.035	
O	-0.0479925664	 1.3059836558	-0.0241649712	-0.433312
C	 0.0186906915	-0.0403077012	-0.0796287606	 0.352904
C	-0.1508376666	-0.8269747073	-1.1888712882	-0.277404
N	-0.0678718142	-2.131440969	-0.6729063422	-0.047112
C	 0.2122233582	-3.4771361264	-1.1240863352	-0.202568
C	 0.2244064277	-4.1953048104	 0.2557670045	-0.101269
O	 0.4995455694	-3.1732918182	 1.2423288935	-0.266223
C	 0.2153165452	-2.0007611288	 0.6395998804	 0.490268
N	 0.2595802975	-0.7716741746	 1.0727879357	-0.473777
H	 0.1205555647	 1.5449570327	 0.8952111736	 0.302519
H	-0.4132884656	-0.6055219663	-2.2066488633	 0.127501
H	-0.5633641189	-3.8774297313	-1.7823809196	 0.131919
H	 1.1789686097	-3.5378149568	-1.6408240037	 0.129149
H	-0.7549598783	-4.6334484451	 0.4750619592	 0.13119
H	 0.9941926461	-4.9628385133	 0.3394798773	 0.136216
117.1715	159.9037	270.7445	318.7005	326.1737	363.325	528.7031	571.8618	607.51	683.9968	716.6988	733.497	760.414	861.9489	889.2097	945.8242	1005.2091	1036.9569	1130.4578	1154.0589	1157.3948	1213.8478	1232.9751	1258.523	1306.2785	1361.8089	1386.6905	1413.1091	1495.1673	1517.4181	1545.0295	1625.2905	1663.3873	3017.7916	3051.5202	3087.992	3134.4314	3302.971	3806.2443
OC1=CN2CCOC2=N1	Oc1cn2CCOc2n1	
InChI=1S/C5H6N2O2/c8-4-3-7-1-2-9-5(7)6-4/h3,8H,1-2H2	InChI=1S/C5H6N2O2/c8-4-3-7-1-2-9-5(7)6-4/h3,8H,1-2H2
