17
gdb 73651	2.37504	1.71614	1.46685	2.0285	67.77	-0.2348	-0.04	0.1948	974.753	0.134825	-458.969278	-458.96118	-458.960235	-459.002243	30.199	
C	-0.2265335531	 1.4947689618	-0.0478553816	-0.469845
C	-0.0215737591	-0.0008511519	 0.0159732226	 0.293159
O	-1.2686259089	-0.6719460486	-0.0026487275	-0.276804
C	-1.0648552405	-1.9048801656	 0.6526524024	-0.002764
O	-0.1090304985	-1.6833046468	 1.670506288	-0.253299
C	 0.7668441922	-0.6788804756	 1.1956716951	 0.027737
C	 1.8854448306	-1.1588006852	 0.2251548361	-0.385379
C	 1.0627610454	-0.5979344716	-0.9509819128	 0.344303
O	 1.1831462306	-0.6132812018	-2.1393377997	-0.29016
H	 0.7280152685	 2.0238717774	 0.0299098797	 0.123443
H	-0.6893354955	 1.7668788372	-1.0005469079	 0.149459
H	-0.8791935237	 1.8187052095	 0.7678139253	 0.134826
H	-2.0045385914	-2.2286226426	 1.10700149	 0.129104
H	-0.7061516573	-2.6681273443	-0.0600263946	 0.097787
H	 1.0821744835	-0.0637965555	 2.0384659109	 0.09684
H	 2.8461687623	-0.6504481837	 0.3549762073	 0.138921
H	 2.0620458749	-2.2377620226	 0.2029017766	 0.142671
53.2661	161.6476	193.3408	213.0275	275.4418	282.6926	397.4606	469.2391	504.6331	596.4043	667.9299	730.6308	765.4733	794.4522	872.1235	920.6162	946.4459	984.929	1010.5188	1043.9203	1093.1439	1118.5771	1152.5509	1168.0196	1185.6274	1195.95	1214.1747	1241.4801	1298.5794	1350.741	1405.2031	1417.5751	1426.0514	1478.5477	1489.6496	1542.3468	1895.6469	2948.5272	3042.9964	3058.4144	3099.5882	3111.6058	3117.3643	3120.3229	3124.3107
CC12OCOC1CC2=O	C[C@]12OCO[C@H]1CC2=O	
InChI=1S/C6H8O3/c1-6-4(7)2-5(6)8-3-9-6/h5H,2-3H2,1H3	InChI=1S/C6H8O3/c1-6-4(7)2-5(6)8-3-9-6/h5H,2-3H2,1H3/t5-,6+/m0/s1
