17
gdb 30927	2.11432	1.84634	1.02043	2.4444	72.12	-0.1807	0.0389	0.2196	1142.178	0.135624	-455.164235	-455.154844	-455.1539	-455.199031	32.801	
C	 0.2120596446	 1.2870931878	 0.3210134025	-0.25423
O	-0.0453971389	 0.0838578435	-0.4048934114	-0.281121
C	-1.2354429175	-0.5008316641	-0.1319670839	 0.252443
C	-1.9477379144	-0.7814338618	 1.0084487511	 0.230518
O	-1.604559664	-0.4646276869	 2.2854427332	-0.448778
N	-3.1035496457	-1.4366031591	 0.7073632968	-0.353609
C	-3.1000454432	-1.5717789647	-0.6052662385	-0.013629
N	-1.9944088062	-1.0159215854	-1.1712586612	-0.053693
C	-1.6337079416	-0.9842120385	-2.5723040911	-0.334191
H	 1.1942412198	 1.6354453471	-0.0035155587	 0.129588
H	-0.5446960709	 2.0485083857	 0.0949813722	 0.11713
H	 0.2213135673	 1.1020052072	 1.3994569705	 0.15153
H	-2.3373905721	-0.7627917799	 2.8375500369	 0.298263
H	-3.8575890282	-2.0658569305	-1.1940733706	 0.125847
H	-2.4637375206	-1.3878802454	-3.1548066128	 0.140031
H	-1.4365755906	 0.04142834	-2.8956364886	 0.145344
H	-0.7387542678	-1.5840130748	-2.7633668064	 0.148556
55.4071	75.2546	143.8692	167.6139	182.851	263.7598	290.3202	318.4058	332.9432	418.6365	545.2737	586.1364	644.0965	699.7744	728.2721	748.3272	798.6482	1052.5561	1064.1481	1083.2466	1154.5774	1166.1194	1182.9367	1220.0096	1261.3283	1319.0133	1358.6759	1416.6819	1451.1083	1458.2863	1477.3595	1484.3916	1500.8172	1508.8405	1526.7524	1540.9004	1698.5962	3019.7742	3045.7342	3095.9023	3107.9969	3138.0385	3141.35	3253.0328	3804.1113
COC1=C(O)N=CN1C	COc1c(O)ncn1C	
InChI=1S/C5H8N2O2/c1-7-3-6-4(8)5(7)9-2/h3,8H,1-2H3	InChI=1S/C5H8N2O2/c1-7-3-6-4(8)5(7)9-2/h3,8H,1-2H3
