14
gdb 27024	2.95744	1.3569	0.93204	4.0641	79.28	-0.1844	-0.0021	0.1823	1171.9991	0.10078	-432.858373	-432.849951	-432.849007	-432.891105	31.816	
N	 0.1536963879	 1.3958884287	 0.1703741209	-0.614043
C	 0.0244384718	 0.0277059378	 0.0360716292	 0.206448
C	-1.0759471483	-0.764724711	 0.0048967685	 0.15931
O	-0.648762481	-2.1113621767	-0.0299539529	-0.256208
C	 0.7191754074	-2.1283409132	-0.0265536353	 0.445127
N	 1.4908554995	-3.1306126826	-0.018579151	-0.60958
N	 1.1297005911	-0.7985704974	-0.0330785832	-0.35409
C	-2.4321694297	-0.4455332388	 0.0004426172	 0.215937
C	-3.6019707862	-0.1444091501	-0.0063212259	-0.419238
H	 0.79602331	 1.8151516813	-0.4923145866	 0.259588
H	-0.7437038147	 1.8633425536	 0.1402340982	 0.26844
H	 0.9560298317	-3.9951708052	-0.0076771491	 0.229
H	 2.0712661054	-0.5404665355	 0.2084918519	 0.278338
H	-4.631795625	 0.1128614691	-0.004856912	 0.190972
120.7288	128.4394	179.7723	281.6047	317.1119	322.9102	377.3088	401.8479	428.5612	490.3728	549.7142	612.1694	656.1	666.7407	716.6083	718.1052	748.6001	771.0059	820.0237	974.4389	1047.1014	1070.8978	1160.2062	1295.221	1302.7457	1344.3843	1505.8872	1635.7614	1722.3936	1793.3371	2208.7541	3503.1167	3523.2398	3541.1395	3622.9363	3677.8815
NC1=C(OC(=N)N1)C#C	NC1=C(O[C@H]([NH])N1)C#C	
InChI=1S/C5H5N3O/c1-2-3-4(6)8-5(7)9-3/h1H,6H2,(H2,7,8)	InChI=1S/C5H6N3O/c1-2-3-4(6)8-5(7)9-3/h1,5,7-8H,6H2/t5-/m1/s1
