18
gdb 99086	4.22027	0.7332	0.72685	3.7255	71.06	-0.2519	-0.0435	0.2084	1589.4576	0.144675	-476.252993	-476.242752	-476.241807	-476.28992	34.798	
C	-0.1495303053	 1.4122941264	 0.0897662501	-0.354219
N	 0.0351705685	-0.0283265055	 0.0019369819	-0.010109
C	-0.0529892073	-0.8132114863	 1.2024679869	-0.306706
C	-1.4666599742	-0.933907979	 1.7753544398	 0.349116
O	-2.4479162514	-0.5470589983	 1.182666843	-0.301429
C	-1.6166102327	-1.5745858494	 3.1487474824	-0.124963
O	-2.9575286853	-1.6895682624	 3.5133026376	-0.416319
C	 0.2239166707	-0.6227883985	-1.2153568086	 0.163777
O	 0.282040755	-0.0466305523	-2.2776841243	-0.331647
H	 0.5843180261	 1.8509287582	 0.7764347425	 0.120994
H	-0.0020690421	 1.8219635743	-0.9092949883	 0.173392
H	-1.1578727712	 1.6560219983	 0.4369221229	 0.147589
H	 0.3036586115	-1.8309286591	 0.9966444861	 0.14918
H	 0.6093152498	-0.4120217967	 1.9836485677	 0.13395
H	-1.1211998528	-2.5596512599	 3.1355482422	 0.119255
H	-1.0518820386	-0.9591743206	 3.8709187416	 0.118795
H	-3.4567950706	-1.2709494252	 2.79414062	 0.297818
H	 0.3338168401	-1.7218115939	-1.1192392237	 0.071527
34.6159	44.3377	89.8315	123.8558	146.2853	232.9503	287.8496	326.4024	354.308	373.7895	381.6885	384.965	474.2739	678.3609	724.3909	828.5601	873.545	887.0917	1025.5157	1039.4426	1060.4546	1110.5411	1149.3708	1157.9871	1213.627	1265.3977	1290.7404	1313.6582	1381.9412	1421.6383	1438.5789	1442.5091	1449.9197	1459.3525	1490.9978	1496.4803	1520.639	1804.4591	1812.9024	2927.5723	2961.3076	2984.2281	3004.8351	3029.5267	3054.3077	3096.1266	3161.4796	3692.3225
CN(CC(=O)CO)C=O	CN(CC(=O)CO)C=O	
InChI=1S/C5H9NO3/c1-6(4-8)2-5(9)3-7/h4,7H,2-3H2,1H3	InChI=1S/C5H9NO3/c1-6(4-8)2-5(9)3-7/h4,7H,2-3H2,1H3
