14
gdb 132305	2.04573	1.82829	0.96623	2.9369	69.13	-0.2184	0.0038	0.2222	1110.9918	0.102968	-474.240494	-474.232896	-474.231952	-474.272258	29.705	
N	-0.0512846251	 1.3515936571	 0.1464851453	-0.56826
C	 0.0153681658	-0.0102892651	 0.0440376222	 0.416443
N	-1.1556025752	-0.6582786989	 0.0053361888	-0.385119
C	-1.0911666285	-1.9932040403	-0.0499848274	 0.439517
N	-2.2760376602	-2.6626184684	-0.1326441654	-0.556116
H	-3.1071334871	-2.1512418143	 0.1103008448	 0.260687
H	-2.2532181222	-3.6509124167	 0.0526095441	 0.264462
N	 0.0214556066	-2.7499337874	-0.0653653325	-0.383172
C	 1.1426180693	-2.0636035249	-0.0297159239	 0.343999
F	 2.2589442739	-2.7831288637	-0.044565938	-0.070003
C	 1.2464069729	-0.6872882397	 0.0228844183	-0.379222
H	 0.7577798656	 1.89294424	-0.1070694259	 0.258178
H	-0.948023455	 1.7596535087	-0.064320556	 0.259666
H	 2.2028449092	-0.1854669763	 0.0596719156	 0.098939
182.913	211.4905	233.9895	326.099	344.5572	374.244	393.3421	478.7139	505.086	527.9697	562.9052	583.4552	656.7491	707.1071	717.2196	788.9065	819.8717	982.118	1003.4239	1041.4208	1131.6548	1172.4778	1212.249	1338.7723	1460.8039	1488.7759	1506.0534	1608.3217	1623.4174	1650.9602	1658.6793	3226.3035	3598.8884	3613.3786	3721.5514	3743.8098
NC1=NC(=[NH2+])[N-]C(F)=C1	Nc1nc(N)nc(F)c1	
InChI=1S/C4H4FN4/c5-2-1-3(6)9-4(7)8-2/h1H,(H3-,6,7,8,9)/q-1/p+1	InChI=1S/C4H5FN4/c5-2-1-3(6)9-4(7)8-2/h1H,(H4,6,7,8,9)
