20
gdb 16177	4.09241	1.61138	1.39361	0.998	74.5	-0.2421	0.0899	0.332	976.5852	0.178145	-348.99822	-348.990417	-348.989473	-349.030113	30.22	
C	-0.3860313966	 1.3263369197	-0.16259188	-0.252531
O	 0.0578200782	 0.0012055544	 0.0570531891	-0.288962
C	 0.7987923086	-0.5265217215	-0.9969983258	 0.464443
C	 0.0686543958	-1.0442298004	-2.2142450157	-0.355964
C	 0.7479234166	-2.0073361023	-1.2529418437	-0.094846
C	 2.1511438703	-2.4841316623	-1.5938245658	-0.213855
C	 2.9184761138	-1.1947083072	-1.9778021833	-0.226867
C	 2.2399350963	-0.0603835198	-1.1772353688	-0.274302
H	 0.4507914492	 2.035332313	-0.2383654134	 0.107582
H	-0.9899521903	 1.4036946277	-1.0781699569	 0.106258
H	-1.0022735975	 1.6032672544	 0.6962015013	 0.123345
H	-1.0142803715	-1.0158828412	-2.1621662294	 0.112544
H	 0.4748439107	-0.8894231266	-3.2092791088	 0.105171
H	 0.1044964365	-2.6325217416	-0.6444832485	 0.089406
H	 2.5981501452	-2.9469162912	-0.7057278339	 0.101041
H	 2.1755106695	-3.2317529114	-2.3940284006	 0.095657
H	 3.9889079056	-1.2683425748	-1.7692260285	 0.098921
H	 2.8226013786	-1.0046536661	-3.0514928018	 0.104675
H	 2.3349977396	 0.9104438647	-1.6751990754	 0.09323
H	 2.6835923411	 0.0365764325	-0.1787740199	 0.105055
95.1174	167.8741	184.2612	235.4357	295.7421	366.5668	398.8343	451.0521	587.9434	622.6385	684.3837	811.4228	835.0082	888.6231	900.6049	913.0732	962.7612	973.7093	998.795	1021.5702	1049.2431	1069.3087	1112.0614	1126.351	1178.981	1183.111	1194.6728	1217.584	1255.8308	1262.5574	1279.9003	1318.0035	1336.4809	1348.4098	1395.5009	1470.8946	1485.2416	1488.6901	1493.5738	1495.8856	1508.4096	1517.3586	2987.7325	3030.4575	3032.1387	3039.1313	3049.9431	3070.1704	3073.8519	3099.8363	3114.9346	3124.2051	3177.8579	3212.9449
COC12CC1CCC2	CO[C@]12C[C@H]1CCC2	
InChI=1S/C7H12O/c1-8-7-4-2-3-6(7)5-7/h6H,2-5H2,1H3	InChI=1S/C7H12O/c1-8-7-4-2-3-6(7)5-7/h6H,2-5H2,1H3/t6-,7-/m1/s1
