12
gdb 24799	3.89257	1.29515	0.97181	4.3734	74.55	-0.2623	-0.077	0.1853	1104.7717	0.077965	-431.651523	-431.644259	-431.643315	-431.683849	26.468	
N	-0.0243833354	 1.327610536	 0.0103589135	-0.487629
C	 0.0105101721	 0.0580237219	 0.0029398628	 0.366829
N	 1.2283223908	-0.6782320201	-0.0072717959	-0.284892
C	 1.1484451507	-1.9400587766	-0.0141529433	 0.117064
O	 0.0018492957	-2.6791161331	-0.0128045166	-0.210353
C	-1.1587983975	-1.9260012019	-0.0027766081	 0.231211
N	-1.2044375585	-0.6563407671	 0.004810583	-0.289231
C	-2.32107415	-2.7480092424	-0.0016669235	 0.246046
C	-3.2990286265	-3.4457160904	-0.0007607108	-0.299254
H	 0.9355096527	 1.6768693297	 0.0076265841	 0.231992
H	 2.0209699526	-2.5870119455	-0.0221462299	 0.158842
H	-4.1714690566	-4.0532057304	 0.0001186746	 0.219375
73.2546	128.6675	147.1947	342.7452	423.415	437.21	498.7665	555.4312	579.9205	674.389	685.1276	714.4799	767.2803	801.3364	890.2617	924.8307	934.9586	973.6311	1038.3309	1149.2647	1210.8618	1347.5662	1406.9912	1642.4386	1714.6195	1742.1055	2249.2465	3190.1682	3481.8764	3496.3902
N=C1N=COC(=N1)C#C	[NH]C1=N[C@@H](OC=N1)C#C	
InChI=1S/C5H3N3O/c1-2-4-8-5(6)7-3-9-4/h1,3,6H	InChI=1S/C5H4N3O/c1-2-4-8-5(6)7-3-9-4/h1,3-4,6H/t4-/m0/s1
