17
gdb 34435	3.08943	1.75145	1.30282	4.4886	76.7	-0.25	0.0075	0.2575	967.6865	0.138769	-380.824981	-380.81817	-380.817225	-380.856047	27.418	
N	 0.0119682934	-1.1003866205	-0.0150612837	-0.342676
C	 0.0211760464	 0.0555527405	 0.0048263681	 0.204161
C	 0.0355711077	 1.5037533621	 0.0698203977	 0.24931
C	-0.9195147383	 2.1683500742	 1.0639382228	-0.295529
C	-0.6427612663	 3.6501772406	 0.7012736306	-0.251016
C	 0.3903780181	 3.4388235203	-0.3924634438	 0.017777
C	 1.3770193831	 2.2962429499	-0.0360559521	-0.107265
C	 1.3659028416	 1.9536235959	-1.5295398287	-0.193602
N	-0.11556235	 2.2698430764	-1.2821400831	-0.17891
H	-1.9523212585	 1.865513328	 0.8782434909	 0.132472
H	-0.6670184711	 1.9126675074	 2.0958615754	 0.12227
H	-1.5303881764	 4.1623291499	 0.3221095043	 0.123163
H	-0.2432364058	 4.2301348796	 1.537576474	 0.11267
H	 0.7505534333	 4.2996962195	-0.9566092345	 0.087022
H	 2.2030988483	 2.293985204	 0.6829067097	 0.079872
H	 1.8430013596	 2.6561906579	-2.2165865237	 0.109488
H	 1.5506104149	 0.9201959443	-1.8304348438	 0.130794
153.5359	156.4088	251.8882	359.186	430.2762	522.2937	533.4447	573.0268	684.5132	697.317	739.1188	794.0749	834.1309	877.3407	916.6801	925.8131	964.5425	1006.4608	1029.2155	1053.6882	1069.7167	1113.8175	1128.1194	1151.3286	1187.1875	1199.8146	1215.4862	1243.3061	1251.1777	1274.5409	1289.5429	1322.5784	1355.0955	1478.0928	1499.5529	1534.3427	2352.9713	3048.4387	3064.5907	3069.2707	3075.1898	3106.9561	3119.8298	3126.4092	3132.195
N#CC12CCC3C1CN23	N#C[C@@]12CC[C@H]3[C@@H]1CN23	
InChI=1S/C7H8N2/c8-4-7-2-1-6-5(7)3-9(6)7/h5-6H,1-3H2	InChI=1S/C7H8N2/c8-4-7-2-1-6-5(7)3-9(6)7/h5-6H,1-3H2/t5-,6-,7-/m0/s1
