14
gdb 7229	4.80769	1.30588	1.0334	1.7839	61.28	-0.2598	-0.0766	0.1831	1067.1142	0.106233	-415.915014	-415.906784	-415.90584	-415.948311	28.253	
C	-0.1162877173	 1.5919086671	 0.05843732	-0.471201
C	-0.0752570108	 0.0901182347	 0.0019717872	 0.375378
O	 0.9508492344	-0.5581835101	-0.0204481688	-0.320773
C	-1.4096687889	-0.6412897092	-0.0275271568	 0.26766
N	-2.4972917647	 0.0151447325	-0.0054455617	-0.490009
N	-1.225140835	-2.0255341176	-0.0781044974	-0.335546
C	-2.2117834255	-2.975288394	-0.1149274686	 0.165512
O	-3.4014014152	-2.7467424812	-0.1086347101	-0.300147
H	 0.9011102596	 1.9828453662	 0.0685335604	 0.140676
H	-0.6731804788	 1.9833325097	-0.7976246984	 0.164597
H	-0.6636826614	 1.9169035886	 0.9479605783	 0.164425
H	-3.299589325	-0.6181639481	-0.030209554	 0.261397
H	-0.2513664174	-2.3075106392	-0.0868350794	 0.274622
H	-1.7954263641	-3.9989070795	-0.1518957607	 0.103409
72.1774	93.7645	123.2893	187.7023	260.6647	287.3916	349.7278	419.7755	504.1835	571.2778	697.1297	700.0617	734.8286	927.2775	948.0334	972.7945	1030.8366	1038.7586	1061.1076	1178.5557	1216.3266	1351.6073	1392.691	1434.5721	1452.1339	1459.4537	1521.8573	1711.7513	1788.3724	1806.4801	2966.763	3057.8996	3121.6531	3165.8265	3466.173	3557.8065
CC(=O)C(=N)NC=O	CC(=O)C(=N)NC=O	
InChI=1S/C4H6N2O2/c1-3(8)4(5)6-2-7/h2H,1H3,(H2,5,6,7)	InChI=1S/C4H6N2O2/c1-3(8)4(5)6-2-7/h2H,1H3,(H2,5,6,7)
