16
gdb 53083	3.74386	0.94308	0.76047	3.5539	86.18	-0.233	-0.0377	0.1953	1470.9803	0.123933	-400.781089	-400.77199	-400.771046	-400.817141	31.505	
C	-0.0701390654	 1.4645437886	 0.0195906422	-0.509618
C	 0.005718014	 0.0133606986	 0.0141212817	 0.220972
C	 0.0633555035	-1.1916063905	 0.0087921568	-0.078583
C	 0.0873521779	-2.6013182372	-0.0036177745	 0.089446
C	 1.1320111156	-3.4350353421	 0.1364080384	-0.23277
C	 0.6866235856	-4.8682826877	 0.0566300172	-0.198716
N	-0.735211181	-4.7334845755	-0.1452127496	-0.332661
C	-1.1680545114	-3.4283827062	-0.1924292307	 0.320014
O	-2.3049910044	-3.0473122623	-0.3507163979	-0.370563
H	 0.5335208588	 1.8965372721	-0.7865839193	 0.151915
H	-1.1022798298	 1.8047210115	-0.1159408703	 0.159426
H	 0.2972890746	 1.8776656452	 0.9657659533	 0.15185
H	 2.1653026187	-3.1545074267	 0.2873185234	 0.116458
H	 1.1793108216	-5.3987919595	-0.7722344958	 0.128213
H	 0.9289160613	-5.4184237092	 0.9784964365	 0.128213
H	-1.3747503798	-5.5027067089	-0.2452287514	 0.256404
14.7309	81.519	87.4237	118.1966	262.5199	272.7088	382.3397	403.1319	415.768	462.6504	513.1142	597.5004	727.5706	793.1033	794.6503	833.3901	950.1849	961.1515	1011.1519	1049.2282	1051.7357	1079.4796	1183.7073	1196.9175	1251.8853	1308.3048	1342.5015	1411.9711	1426.6475	1473.7471	1475.0958	1499.2146	1671.185	1830.3491	2358.4767	2989.1455	3007.4102	3026.1381	3084.9571	3093.087	3231.3215	3675.1937
CC#CC1=CCNC1=O	CC#CC1=CCNC1=O	
InChI=1S/C7H7NO/c1-2-3-6-4-5-8-7(6)9/h4H,5H2,1H3,(H,8,9)	InChI=1S/C7H7NO/c1-2-3-6-4-5-8-7(6)9/h4H,5H2,1H3,(H,8,9)
