15
gdb 125031	2.30699	1.88961	1.04606	7.033	72.65	-0.2349	-0.0618	0.1731	1070.7858	0.112165	-453.964477	-453.956168	-453.955224	-453.997347	30.847	
C	-0.0183897811	 1.5207856034	 0.0304991692	-0.524842
C	-0.0189115485	 0.0189340325	 0.0129282522	 0.039313
C	-1.1623207341	-0.7274223746	 0.0411232805	 0.246967
N	-2.42215845	-0.1926001221	 0.1284988935	-0.587998
C	-1.0348862865	-2.1649017293	 0.0273095267	-0.001695
N	 0.0764899222	-2.8104216568	-0.0145516258	-0.058819
O	 1.2298321037	-2.0697105721	-0.0445650635	-0.264555
C	 1.2565534638	-0.6635119157	-0.0295634089	 0.40433
O	 2.3478364899	-0.1535645593	-0.0585015276	-0.346053
H	 1.0084493742	 1.8842018773	-0.0125878533	 0.172475
H	-0.5649095911	 1.9373089814	-0.8265674527	 0.124209
H	-0.4878953928	 1.913437799	 0.9412404571	 0.134548
H	-2.5343477466	 0.7839591615	-0.0910193609	 0.267867
H	-3.20262621	-0.7734866048	-0.1316005991	 0.265125
H	-1.9192376032	-2.7966920603	 0.0557350126	 0.129126
93.2865	121.7563	172.1249	263.0247	283.0754	344.2003	390.9748	419.7785	485.2045	510.742	536.7948	546.6091	669.4981	693.6643	761.3204	851.7405	900.3978	923.963	962.2643	1043.7892	1053.1244	1066.6851	1226.3528	1284.832	1350.0278	1392.9727	1429.9742	1489.8338	1495.4393	1619.5203	1652.8228	1693.1476	1819.5751	3010.1664	3057.5409	3150.938	3165.0282	3596.4736	3706.1294
CC1=C(N)C=NOC1=O	Cc1c(N)cnoc1=O	
InChI=1S/C5H6N2O2/c1-3-4(6)2-7-9-5(3)8/h2H,6H2,1H3	InChI=1S/C5H6N2O2/c1-3-4(6)2-7-9-5(3)8/h2H,6H2,1H3
