17
gdb 79480	2.21939	1.89323	1.20363	2.0127	79.33	-0.2355	0.0298	0.2654	1047.8033	0.133973	-384.56298	-384.555095	-384.554151	-384.595138	30.987	
C	-0.1482943114	 1.5996016177	 0.0106350345	-0.417423
C	-0.0422196955	 0.083135869	 0.0023581954	-0.078971
C	 1.1632299468	-0.589935548	-0.6906320707	-0.123412
C	 2.1095569702	-0.3617693425	 0.5298901816	 0.039916
O	 2.532520951	-1.7493389494	 0.6181223223	-0.325097
C	 1.1236288024	-1.8192630238	 0.2653661563	 0.038706
C	 0.6919410088	-0.6136129501	 1.1842002938	 0.241448
C	 0.3521029993	-0.6331321029	 2.5712057517	 0.087638
C	 0.0491748971	-0.6312757653	 3.7359154065	-0.390106
H	 0.8126572583	 2.0716696613	 0.2411360941	 0.116712
H	-0.4795235115	 1.9746016269	-0.9636221528	 0.120302
H	-0.872346052	 1.934961691	 0.7603069917	 0.129388
H	-1.0073032564	-0.3779093322	-0.2363899461	 0.078917
H	 1.4555107959	-0.5990770567	-1.7395595261	 0.088293
H	 2.8387943997	 0.4195266232	 0.7374555083	 0.106118
H	 0.6517734847	-2.7942545397	 0.1493682211	 0.104913
H	-0.2102097872	-0.6363821984	 4.7656450684	 0.182656
115.5387	156.7197	211.7876	213.039	271.9927	410.7355	471.1127	534.12	548.1432	627.3369	635.5609	640.4535	731.6288	752.2029	819.5455	829.5328	896.364	908.7733	912.1183	943.3144	1034.9336	1052.042	1081.9249	1095.4181	1119.8526	1142.043	1159.5891	1173.1606	1229.2654	1255.4806	1285.5144	1328.6167	1400.2513	1415.8789	1492.721	1499.5396	2229.7822	3032.1581	3043.1091	3099.0804	3102.8816	3126.9638	3131.6707	3144.3908	3501.0045
CC1C2C3OC2C13C#C	C[C@H]1[C@H]2[C@@H]3O[C@H]2[C@]13C#C	
InChI=1S/C8H8O/c1-3-8-4(2)5-6(8)9-7(5)8/h1,4-7H,2H3	InChI=1S/C8H8O/c1-3-8-4(2)5-6(8)9-7(5)8/h1,4-7H,2H3/t4-,5-,6-,7+,8+/m0/s1
