18
gdb 112053	2.64184	1.44358	1.05264	2.4154	72.18	-0.2408	0.0105	0.2513	1144.346	0.14836	-439.077633	-439.069502	-439.068558	-439.110777	30.889	
O	 0.0354545333	 1.4720745159	-0.2514045129	-0.423693
C	 0.1177823934	 0.0723790689	-0.1124640156	-0.048284
C	-1.2708352323	-0.5310594506	 0.1339327712	-0.104418
N	-2.151673809	-0.1512841645	-0.993517794	-0.293129
C	-2.5778817525	-1.2388688847	-1.4866764861	 0.107814
O	-2.2087654961	-2.4168506918	-0.9413184113	-0.244179
C	-1.3430390183	-2.0635928968	 0.1546254361	 0.417144
C	-0.2291882931	-3.0201379417	 0.4446439088	-0.331154
C	-1.4328159047	-2.9279784125	 1.3683576699	-0.324184
H	-0.6936104435	 1.6316136858	-0.8650880078	 0.295528
H	 0.5613043261	-0.4063871911	-1.0011670683	 0.086951
H	 0.7784088799	-0.127148281	 0.7387563869	 0.101891
H	-1.6747505865	-0.0933690861	 1.0548484322	 0.099256
H	-3.239556862	-1.3280335123	-2.3412210234	 0.145331
H	-0.1549073097	-3.8942957986	-0.1921526943	 0.132271
H	 0.7211026247	-2.6234535399	 0.7843385991	 0.128238
H	-1.3095264608	-2.4546930506	 2.3374236718	 0.124246
H	-2.1459551786	-3.7440682085	 1.3445426576	 0.130369
59.0763	121.8867	170.5529	269.5019	281.3849	316.7249	438.7072	483.0648	508.2214	531.2315	605.8403	762.0549	798.9594	844.6991	873.4166	905.7498	939.2858	961.0973	973.8966	1003.7402	1051.497	1057.1746	1078.9283	1096.3448	1110.1777	1162.529	1188.4769	1219.3112	1231.0292	1283.2741	1324.9923	1341.2206	1368.7204	1388.5693	1441.1403	1454.0964	1499.0191	1506.4668	1701.0554	2968.7923	3032.6776	3063.7069	3131.4302	3138.9036	3215.2565	3218.3295	3232.3963	3767.8354
OCC1N=COC11CC1	OC[C@H]1N=COC21CC2	
InChI=1S/C6H9NO2/c8-3-5-6(1-2-6)9-4-7-5/h4-5,8H,1-3H2	InChI=1S/C6H9NO2/c8-3-5-6(1-2-6)9-4-7-5/h4-5,8H,1-3H2/t5-/m1/s1
