18
gdb 36128	4.036	1.10755	0.99278	1.6745	82.52	-0.2335	0.0149	0.2484	1223.2504	0.147612	-364.759034	-364.750903	-364.749959	-364.791946	31.751	
C	-0.1180971666	-1.1581361845	 0.4756264754	-0.450273
C	-0.0846705468	-0.0009174576	 0.1537752692	 0.315339
C	-0.0224850631	 1.4038339859	-0.2436784464	-0.472581
C	 1.3876823348	 1.9644073669	-0.240068272	 0.324943
N	 2.0369983099	 2.3481502336	 1.0441763467	-0.360138
C	 1.7167125743	 3.3897256059	 0.0401326803	-0.110453
C	 2.9025850823	 3.7890257934	-0.8322938162	-0.264028
C	 3.2362219083	 2.4998851449	-1.5591053086	-0.073392
C	 2.3971813204	 1.5103577676	-1.2491539842	-0.108866
H	-0.1507946511	-2.1792292867	 0.7650595874	 0.198428
H	-0.4528655235	 1.5159313014	-1.2477255625	 0.138399
H	-0.6521565675	 2.003711653	 0.4264679034	 0.12517
H	 1.3255611268	 2.3775845648	 1.774512618	 0.22367
H	 0.9461469949	 4.116850257	 0.276070308	 0.08482
H	 2.6390486791	 4.5954219802	-1.5293950651	 0.105052
H	 3.7448787883	 4.1486963804	-0.2291752958	 0.121875
H	 4.0893566976	 2.4135094399	-2.2226365593	 0.096664
H	 2.4328013417	 0.4951726339	-1.6253540983	 0.105371
56.0794	106.6509	234.3311	269.8789	329.8113	353.6157	412.2927	459.1575	503.3703	625.5885	643.5874	700.2233	712.891	747.9012	785.7849	861.6331	889.3828	913.8801	930.8809	949.4464	958.6161	982.042	1011.4398	1043.0983	1080.2855	1120.7391	1156.7743	1189.7595	1198.8314	1272.2232	1294.5018	1325.1114	1347.4313	1388.0971	1428.68	1461.0853	1464.6791	1670.3855	2239.903	3013.1797	3021.2393	3046.1686	3059.7877	3157.7263	3190.6645	3217.4384	3461.6557	3506.2909
C#CCC12NC1CC=C2	C#CC[C@]12N[C@H]1CC=C2	
InChI=1S/C8H9N/c1-2-5-8-6-3-4-7(8)9-8/h1,3,6-7,9H,4-5H2	InChI=1S/C8H9N/c1-2-5-8-6-3-4-7(8)9-8/h1,3,6-7,9H,4-5H2/t7-,8+/m0/s1
