22
gdb 78346	2.56501	1.40412	1.10982	1.2141	87.94	-0.2117	0.0949	0.3066	1220.3668	0.193244	-367.149461	-367.140482	-367.139538	-367.182543	35.316	
C	 0.0119112222	 1.5785593974	-0.0737017606	-0.404789
C	 0.0231632527	 0.0595683885	 0.0145405889	-0.100431
C	 0.9898339579	-0.7074226056	-0.9114955911	-0.032956
C	 1.6606801157	-1.3582261751	 0.2546080225	-0.144702
N	 2.3652200307	-0.3280877373	-0.5403250021	-0.103681
C	 3.3692972822	-0.8901374303	-1.439218298	-0.315914
C	 0.7491681568	-0.6245346566	 1.2133605844	 0.387598
C	 1.08869575	-0.0625244859	 2.558365153	-0.31549
C	 0.0978125768	-1.2009368688	 2.4336789198	-0.342838
H	 1.0331910456	 1.9652865627	-0.0343339617	 0.136564
H	-0.4504802824	 1.9134678455	-1.0089958949	 0.107039
H	-0.5583518086	 2.0200333503	 0.7513289996	 0.107021
H	-0.9897309274	-0.3468446329	-0.0842724957	 0.07247
H	 0.7835389823	-1.1051211754	-1.8986093956	 0.085783
H	 2.0759073199	-2.3553788962	 0.3511095932	 0.087163
H	 3.1100828417	-1.8873179319	-1.8355196813	 0.094289
H	 3.510324359	-0.213683639	-2.2884389685	 0.121799
H	 4.3223379141	-0.9731456652	-0.9069279176	 0.121169
H	 2.0698238636	-0.2729978873	 2.9713396893	 0.111291
H	 0.7023080757	 0.9198238947	 2.8108957148	 0.111493
H	-0.9534711034	-0.9869945211	 2.6019395544	 0.108653
H	 0.4065919849	-2.1881453205	 2.7640175472	 0.108472
116.5187	170.7515	193.5428	215.1902	222.3237	240.6223	294.6542	352.5274	406.6345	463.5818	564.7767	589.8537	724.7233	777.8451	822.9165	838.7265	851.6264	885.9698	901.1211	925.216	953.5033	977.2341	1018.1158	1050.3363	1056.9865	1073.661	1089.9404	1123.6099	1127.178	1140.666	1155.2805	1185.0156	1212.1267	1235.7785	1251.9992	1287.2332	1350.1077	1359.6219	1399.9081	1404.9061	1453.4958	1464.1331	1489.9177	1493.3075	1499.1781	1499.904	1508.191	2952.5143	3028.9697	3043.566	3062.8848	3087.3251	3099.615	3117.7958	3124.7225	3126.079	3169.1586	3183.2542	3195.6282	3212.4372
CC1C2C(N2C)C11CC1	C[C@H]1[C@@H]2[C@@H](N2C)C21CC2	
InChI=1S/C8H13N/c1-5-6-7(9(6)2)8(5)3-4-8/h5-7H,3-4H2,1-2H3	InChI=1S/C8H13N/c1-5-6-7(9(6)2)8(5)3-4-8/h5-7H,3-4H2,1-2H3/t5-,6+,7+,9?/m0/s1
