14
gdb 109105	3.466	1.18262	0.88661	5.1595	66.48	-0.2373	-0.091	0.1463	1207.7373	0.100276	-473.865809	-473.85724	-473.856296	-473.899839	30.	
O	-0.0354946184	 1.4574407021	 0.0078992334	-0.424377
C	 0.0232668786	 0.040559428	 0.001282739	-0.180778
C	-1.3736246485	-0.4833745762	 0.0117724428	 0.126806
C	-2.5172362543	 0.2369318223	 0.0236974348	-0.073613
N	-3.666045914	-0.553711623	 0.0312776888	-0.359229
C	-3.3303897858	-1.8995364188	 0.0247133182	 0.36091
O	-4.0775397269	-2.839473674	 0.0286010446	-0.314433
C	-1.7524121011	-1.8949869502	 0.0110719868	 0.200449
O	-1.0702252006	-2.8917808653	 0.0025038987	-0.301143
H	 0.8638634479	 1.7965305425	 0.0023309203	 0.295944
H	 0.5527021536	-0.3400618317	-0.8874045229	 0.114681
H	 0.5687535939	-0.3478236696	 0.8767806145	 0.114714
H	-2.605989288	 1.3139023573	 0.0276710387	 0.16672
H	-4.6112310065	-0.2095789734	 0.0407221223	 0.273348
45.2698	102.8889	160.31	213.0065	247.4422	294.3292	300.5282	355.1658	455.2073	543.7806	562.8559	647.2349	721.5574	799.2029	825.7378	917.06	920.2913	1050.5639	1068.0313	1100.1627	1119.9942	1219.4888	1237.2184	1312.68	1340.3196	1407.777	1472.2007	1515.3611	1676.7134	1811.2975	1863.8992	2966.661	2983.56	3248.7475	3667.4102	3841.9704
OCC1=CNC(=O)C1=O	OCC1=CNC(=O)C1=O	
InChI=1S/C5H5NO3/c7-2-3-1-6-5(9)4(3)8/h1,7H,2H2,(H,6,8,9)	InChI=1S/C5H5NO3/c7-2-3-1-6-5(9)4(3)8/h1,7H,2H2,(H,6,8,9)
