19
gdb 83783	2.80304	1.85995	1.65513	1.5484	73.05	-0.2442	0.0727	0.3169	904.8492	0.162455	-422.990553	-422.983771	-422.982827	-423.021275	28.591	
O	 0.079328296	 1.4876647519	 0.0396454851	-0.456474
C	-0.0462882884	 0.0887777392	 0.027251135	 0.160226
C	 0.1695164815	-0.6839051996	 1.3516653737	 0.041275
O	-0.3808970789	 0.064813989	 2.4335579206	-0.289868
C	-1.7331255137	 0.493206299	 2.184507339	-0.095775
C	-2.3789526061	-0.4321258682	 1.1621642113	-0.053635
C	-2.1088782488	-1.8969542617	 1.606253095	-0.235712
C	-0.8032725808	-1.7959946027	 0.8079750331	-0.043711
C	-1.4076260611	-0.6393868305	-0.0664099425	-0.095116
H	 0.1893341956	 1.7448940759	 0.962330627	 0.294924
H	 0.6020088464	-0.313312228	-0.7620780805	 0.080987
H	 1.1778562452	-0.9649438811	 1.6597181804	 0.079803
H	-2.2565482428	 0.4487690011	 3.1462482529	 0.10694
H	-1.7458109075	 1.5316415237	 1.8313586816	 0.098116
H	-3.4058083156	-0.1322076254	 0.9455108896	 0.072908
H	-2.0530665882	-2.094506254	 2.6812036465	 0.101609
H	-2.7976410122	-2.6067838027	 1.1404751163	 0.101005
H	-0.312119654	-2.67816065	 0.3960126595	 0.06735
H	-1.8899932164	-0.7932233161	-1.0320199837	 0.065147
191.9211	224.3086	268.4522	363.1185	407.9596	464.6824	547.0834	583.8358	626.8798	724.9886	776.776	795.0895	823.9575	842.2844	865.7056	921.8995	954.9871	983.2064	1008.307	1033.5008	1055.4007	1077.0149	1082.7208	1092.3599	1135.8928	1152.1168	1176.9805	1201.6391	1230.6229	1232.1067	1252.3547	1281.2439	1287.9935	1314.3042	1332.0968	1347.3116	1358.8709	1408.6673	1417.6215	1488.0262	1519.5642	3019.8904	3024.5659	3047.6321	3063.9793	3090.2863	3096.0846	3103.0961	3103.7066	3112.5954	3793.6794
OC1C2OCC3CC2C13	O[C@H]1[C@H]2OC[C@@H]3C[C@H]2[C@H]13	
InChI=1S/C7H10O2/c8-6-5-3-1-4(5)7(6)9-2-3/h3-8H,1-2H2	InChI=1S/C7H10O2/c8-6-5-3-1-4(5)7(6)9-2-3/h3-8H,1-2H2/t3-,4-,5+,6+,7-/m0/s1
