23
gdb 114098	3.15266	1.1134	0.96757	1.6896	85.52	-0.2351	0.0796	0.3147	1352.7966	0.205123	-388.270889	-388.261482	-388.260538	-388.305215	35.902	
C	 0.1679010622	 1.5138845201	-0.2212751905	-0.379378
C	 0.0923719831	-0.0103536369	-0.080378629	-0.200492
C	-1.3333992008	-0.5108218922	 0.1267679569	 0.050548
C	-2.3363385557	-0.4396546778	-1.0737324065	-0.29853
C	-2.6742154662	-1.9412141833	-0.8722933706	 0.463239
C	-4.110415635	-2.3886557247	-0.8105995565	-0.476627
O	-1.8639984972	-2.7809146383	-1.7364183243	-0.3279
C	-0.872844158	-2.9724371841	-0.7013303015	-0.090591
C	-1.6109888255	-2.0371466411	 0.2689963177	-0.172875
H	 1.1970302349	 1.8488588872	-0.3832290649	 0.111895
H	-0.4325179412	 1.8625680372	-1.0684587602	 0.120655
H	-0.208428669	 2.0138097229	 0.6783485014	 0.112427
H	 0.5226395356	-0.4758653644	-0.9757954747	 0.101533
H	 0.7162783558	-0.3330331343	 0.7641057095	 0.092528
H	-1.7605302949	 0.0032149837	 0.9956017071	 0.068902
H	-3.1725654209	 0.2504755383	-0.9326403303	 0.094489
H	-1.880392364	-0.2509140527	-2.0492874461	 0.1048
H	-4.5794905097	-2.2836382588	-1.7958229881	 0.127713
H	-4.1808980155	-3.4389355165	-0.5119664851	 0.120674
H	-4.6791489553	-1.7818284977	-0.0984063302	 0.114142
H	-0.8381931483	-4.0199623509	-0.3741229523	 0.096624
H	 0.1322160694	-2.6765959475	-1.0247896745	 0.098194
H	-1.8147517738	-2.4204618985	 1.2692898027	 0.068031
52.9021	102.6055	166.2393	211.9758	222.6842	249.0782	290.3123	335.0943	397.6298	412.4559	480.8063	627.4615	656.1331	763.3267	785.7752	834.6134	873.1911	906.0295	919.5248	928.2926	956.9715	1003.5317	1014.8581	1025.0137	1039.1479	1088.1814	1112.9374	1142.3994	1163.9495	1177.6164	1194.6589	1204.4009	1234.5487	1265.2338	1290.8506	1313.8284	1330.9029	1341.8028	1358.3259	1391.5348	1407.7523	1412.4345	1465.8997	1480.3324	1487.9776	1488.9546	1500.4283	1507.2911	1528.4936	3007.6445	3015.8574	3027.2402	3029.0191	3030.7938	3049.9127	3054.2227	3056.4174	3096.8071	3097.3888	3102.2099	3103.6203	3108.6146	3112.5345
CCC1CC2(C)OCC12	CC[C@H]1C[C@@]2(C)OC[C@@H]12	
InChI=1S/C8H14O/c1-3-6-4-8(2)7(6)5-9-8/h6-7H,3-5H2,1-2H3	InChI=1S/C8H14O/c1-3-6-4-8(2)7(6)5-9-8/h6-7H,3-5H2,1-2H3/t6-,7-,8+/m0/s1
