17
gdb 68638	2.44025	1.52781	1.25867	3.8715	68.61	-0.2427	-0.0302	0.2125	1041.7375	0.13538	-458.937475	-458.929555	-458.928611	-458.970141	30.274	
O	-0.0986150482	 1.3770124355	 0.0626219858	-0.470901
C	 0.0020097031	-0.0014127843	-0.0093361768	 0.335151
C	 0.3833294899	-0.8125372686	-1.2962276072	-0.301934
C	-0.3015347285	-1.9262061887	-0.4768118096	 0.074663
O	 0.5722827607	-2.1108485055	 0.6542872966	-0.270929
C	 0.8582094268	-0.7509103556	 1.0311147796	-0.145203
C	-1.3216151096	-0.8488356225	 0.0113520633	-0.11695
C	-2.0964276907	-1.0803533769	 1.2766399568	 0.131777
O	-3.2602372885	-0.7887131178	 1.4061581355	-0.255261
H	 0.7854844928	 1.7584366651	 0.0157755503	 0.289074
H	-0.1861786838	-0.4972526101	-2.1708384404	 0.117637
H	 1.4420682935	-0.9494592751	-1.5302261008	 0.101961
H	-0.6013373052	-2.890547859	-0.878458868	 0.09985
H	 1.9300837503	-0.5388756002	 0.9246499175	 0.099803
H	 0.5598163417	-0.5601700411	 2.0670477098	 0.114184
H	-1.9980095994	-0.5166342726	-0.7774655517	 0.105324
H	-1.535347095	-1.5685083227	 2.1009023892	 0.091754
64.7834	159.851	219.7003	240.7409	318.7697	355.2488	404.5841	440.1637	534.4108	560.4182	602.2103	685.8955	795.3073	859.2856	902.1844	908.8449	955.6369	968.516	1013.2958	1022.3556	1074.4822	1097.8035	1111.9485	1151.0064	1159.2015	1180.4813	1209.3978	1220.1507	1272.0601	1290.1414	1331.2902	1343.7027	1392.7736	1438.5518	1491.1859	1534.9232	1817.769	2910.9558	3017.7868	3069.2878	3073.2813	3114.7698	3147.6465	3162.617	3799.4011
OC12CC(OC1)C2C=O	O[C@@]12C[C@@H](OC1)[C@H]2C=O	
InChI=1S/C6H8O3/c7-2-4-5-1-6(4,8)3-9-5/h2,4-5,8H,1,3H2	InChI=1S/C6H8O3/c7-2-4-5-1-6(4,8)3-9-5/h2,4-5,8H,1,3H2/t4-,5-,6+/m1/s1
