17
gdb 35462	3.31074	1.51674	1.42071	1.7167	77.28	-0.2444	0.0049	0.2493	970.7372	0.137139	-384.647088	-384.640022	-384.639078	-384.678365	28.958	
C	-0.1016441405	-1.2273908588	-0.1357642812	-0.448064
C	-0.0442069448	-0.0322274591	-0.0237899767	 0.334253
C	 0.0159888942	 1.4227033561	 0.0613569054	-0.068836
O	-0.5464135144	 1.9124762158	 1.2911796166	-0.286957
C	 0.4916501727	 2.7431218996	 1.9031742226	 0.066415
C	 1.1215658262	 3.4084887544	 0.6716305961	-0.228221
C	 1.470385191	 2.028054215	 0.0574810903	-0.102382
C	 2.1932692789	 1.3772924786	 1.2237274578	-0.07347
C	 1.6087833452	 1.8126540623	 2.3455579215	-0.070708
H	-0.1546946514	-2.2844699523	-0.2222490697	 0.194848
H	-0.5538749197	 1.8512756505	-0.774594452	 0.105749
H	 0.0093070036	 3.3645930725	 2.6550877682	 0.079104
H	 0.4032108126	 3.9922863057	 0.0890202263	 0.102944
H	 2.0079969267	 4.0027616683	 0.8966316687	 0.106466
H	 1.9541180521	 1.9977708403	-0.9173215208	 0.078115
H	 2.9540424633	 0.6146433227	 1.124774655	 0.107255
H	 1.7844499341	 1.4826021984	 3.3607399017	 0.103489
112.4754	151.024	297.1462	386.5176	458.3695	492.9094	515.0867	548.3183	621.8963	657.043	683.7767	755.7512	793.4091	831.9638	844.0556	877.3052	914.5553	932.2698	940.2989	952.6492	976.8876	997.8669	1032.9964	1051.4603	1127.5639	1138.1171	1191.8067	1228.1479	1271.5725	1282.2572	1294.6276	1320.2078	1356.7367	1365.3279	1490.2376	1635.924	2237.4763	3003.8775	3065.319	3133.808	3135.6451	3143.4439	3210.4561	3235.0324	3503.5707
C#CC1OC2CC1C=C2	C#C[C@H]1O[C@@H]2C[C@H]1C=C2	
InChI=1S/C8H8O/c1-2-8-6-3-4-7(5-6)9-8/h1,3-4,6-8H,5H2	InChI=1S/C8H8O/c1-2-8-6-3-4-7(5-6)9-8/h1,3-4,6-8H,5H2/t6-,7+,8-/m1/s1
