17
gdb 127066	5.56299	0.74199	0.67288	4.3164	71.1	-0.2748	-0.043	0.2318	1634.1264	0.134819	-455.09621	-455.087381	-455.086437	-455.131693	30.317	
C	-0.0576548958	 1.4995960442	 0.1541444306	-0.387888
C	-0.0258559815	-0.0084259751	-0.0176802967	-0.027588
O	-1.3480312965	-0.5038217592	 0.1148089917	-0.250426
C	-1.4316322814	-1.9010788843	-0.0355099352	-0.168541
C	-2.8730224894	-2.2851402299	 0.0710991742	 0.322388
N	-3.2726571539	-3.4388182598	 0.5319511214	-0.156302
O	-4.6373546494	-3.4233204082	 0.4441999509	-0.147464
N	-5.0894892341	-2.2401924669	-0.0669080075	-0.061737
C	-4.021963467	-1.5308637095	-0.3026054838	-0.09267
H	 0.9506175226	 1.9126587773	 0.0584777619	 0.121696
H	-0.6947884492	 1.9601561878	-0.606081466	 0.128587
H	-0.4502018557	 1.765552405	 1.1394254554	 0.132988
H	 0.3796516742	-0.2814036487	-1.0062021135	 0.092938
H	 0.6261091118	-0.4738142385	 0.7394696051	 0.095907
H	-1.0353488395	-2.2106169121	-1.0183074221	 0.116058
H	-0.8475222784	-2.4340565064	 0.7297091964	 0.124645
H	-4.0808099268	-0.5333556958	-0.7059672627	 0.157409
29.5969	73.4796	97.5889	114.0316	244.2589	262.6616	302.805	353.4932	487.1878	648.0777	684.3946	747.5915	822.0887	890.3298	901.4236	909.3574	933.293	1019.0471	1034.6828	1043.9879	1070.3905	1146.2366	1160.9032	1188.5569	1199.0001	1248.3471	1297.9486	1376.6068	1405.3655	1425.6618	1440.7846	1477.0907	1483.8569	1498.8404	1507.2595	1533.1228	1621.0028	2953.6347	2964.5981	2990.8455	3008.5855	3047.1258	3122.3124	3124.5365	3286.8913
CCOCC1=NON=C1	CCOCc1nonc1	
InChI=1S/C5H8N2O2/c1-2-8-4-5-3-6-9-7-5/h3H,2,4H2,1H3	InChI=1S/C5H8N2O2/c1-2-8-4-5-3-6-9-7-5/h3H,2,4H2,1H3
