12
gdb 21712	8.42776	1.16643	1.03333	5.9169	62.61	-0.2384	-0.0375	0.2009	1042.6656	0.084523	-410.806079	-410.799011	-410.798067	-410.837818	24.665	
N	-0.002528772	 1.3444491877	 0.0896063672	-0.489328
C	-0.0775919848	 0.007550848	-0.0634133994	 0.133005
N	-1.15433374	-0.6455052693	 0.1980185214	-0.352287
C	-1.1034116608	-2.0207410311	 0.1272612122	 0.374255
N	-0.0368405909	-2.7714737195	 0.302917745	-0.172875
O	-0.4647800988	-4.0667738058	 0.1608569615	-0.160134
N	-1.8082906265	-4.124646698	-0.0927393103	-0.065335
C	-2.2140125927	-2.8892115563	-0.1095748519	-0.09742
H	 0.7904200539	 1.8592270124	-0.2470387604	 0.274614
H	-0.8249979382	 1.851695748	 0.3743839482	 0.273683
H	 0.8443865796	-0.465658347	-0.4146319036	 0.137696
H	-3.2462590687	-2.6332289091	-0.2885755899	 0.144127
88.8048	147.8524	162.5771	201.5726	384.7448	441.7112	463.6839	619.8607	633.1668	736.623	790.8596	895.3648	901.6923	929.9598	1019.3033	1028.7606	1057.7498	1105.0792	1214.5964	1318.2403	1360.3152	1427.5218	1500.9589	1595.1226	1628.648	1723.4875	3090.017	3273.5487	3609.8986	3749.6393
NC=NC1=NON=C1	NC=Nc1nonc1	
InChI=1S/C3H4N4O/c4-2-5-3-1-6-8-7-3/h1-2H,(H2,4,5,7)	InChI=1S/C3H4N4O/c4-2-5-3-1-6-8-7-3/h1-2H,(H2,4,5,7)
