16
gdb 15964	3.06139	1.94363	1.37217	4.6592	69.12	-0.2487	0.012	0.2607	908.7011	0.131609	-342.753921	-342.746581	-342.745637	-342.785657	27.461	
N	-0.2587254843	-0.8880445928	-0.818240774	-0.332891
C	-0.146902744	 0.1684661932	-0.3629096798	 0.311311
C	 0.0184775448	 1.523689725	 0.1681231689	-0.202871
N	 0.1554408051	 1.6134802007	 1.641709834	-0.307129
C	 1.2995305611	 2.5573525965	 1.5217169398	-0.240285
C	 1.4103752543	 2.1790301569	 0.0430125826	 0.348778
C	 2.5983142062	 1.6215459901	-0.6737594407	-0.313411
C	 1.9832484757	 2.9322742661	-1.1131098428	-0.328314
H	-0.7740648931	 2.1560459934	-0.2575702344	 0.110121
H	-0.6641726082	 1.9753521946	 2.1153698417	 0.229533
H	 1.0383937689	 3.6130474986	 1.6794518521	 0.100416
H	 2.1476834723	 2.3013327482	 2.1653953587	 0.117232
H	 3.5531623165	 1.6481208006	-0.1590511992	 0.12166
H	 2.4473328665	 0.7482801459	-1.2999018879	 0.141457
H	 1.422426686	 2.9467820787	-2.0423276609	 0.123985
H	 2.5203355923	 3.8516322741	-0.9021949281	 0.120408
93.5311	126.475	208.7892	280.7113	313.2932	376.497	509.3148	543.6038	577.7341	697.2648	774.4858	839.4707	872.2345	912.7579	959.2414	975.9304	987.9765	1020.1293	1055.0572	1064.2863	1086.1975	1114.3053	1141.0999	1188.2261	1221.113	1237.2187	1307.905	1355.2031	1390.5276	1399.7859	1464.7283	1508.5822	1521.0234	2354.9108	2995.3126	3002.9224	3063.8699	3125.9669	3131.6639	3205.7762	3221.8448	3542.7288
N#CC1NCC11CC1	N#C[C@H]1NCC21CC2	
InChI=1S/C6H8N2/c7-3-5-6(1-2-6)4-8-5/h5,8H,1-2,4H2	InChI=1S/C6H8N2/c7-3-5-6(1-2-6)4-8-5/h5,8H,1-2,4H2/t5-/m1/s1
