16
gdb 85641	2.3904	1.43252	1.02416	4.5831	69.67	-0.2687	-0.0526	0.2161	1162.6605	0.12322	-437.919622	-437.91113	-437.910186	-437.953341	30.721	
C	 0.0251846081	 1.5857543513	 0.0610078651	-0.407732
C	 0.0625973536	 0.0811206994	-0.1109522963	 0.12256
C	 0.9166950067	-0.4474699675	-1.2687769268	-0.355388
C	 1.4267455937	-1.7879133141	-0.752837231	 0.387077
O	 1.9915178594	-2.6585463795	-1.3454298148	-0.275481
C	 1.0809616327	-1.8020054637	 0.7723117308	-0.146577
O	 0.6765679944	-0.4891853712	 1.069970487	-0.250767
C	 0.0253645615	-2.7949623018	 1.0446099719	 0.284316
N	-0.8224395683	-3.5551496905	 1.2414293017	-0.315278
H	 1.0391145425	 1.9862676541	 0.1547009193	 0.129405
H	-0.4591999104	 2.0538425569	-0.8008344684	 0.129188
H	-0.5371297544	 1.8510763758	 0.959927429	 0.140994
H	-0.9604991418	-0.3144647108	-0.1958150675	 0.101981
H	 0.3869346995	-0.5735050919	-2.2149983147	 0.15079
H	 1.7814969519	 0.2036732572	-1.4466069804	 0.146958
H	 1.9710798009	-2.0524547737	 1.3574549251	 0.157953
64.6756	93.6971	138.3387	227.0056	251.4237	288.6739	403.2762	434.2869	465.5298	520.2429	567.5013	616.3342	689.8655	811.8631	834.1591	890.9835	916.5759	953.3675	1038.5983	1086.8857	1095.7897	1142.9513	1155.6989	1206.1042	1233.9479	1258.0873	1330.1465	1363.0774	1394.0688	1417.4471	1444.6142	1483.8765	1497.7904	1878.806	2352.711	2997.2295	3045.1112	3047.2802	3076.9465	3120.4428	3123.853	3127.9248
CC1CC(=O)C(O1)C#N	C[C@H]1CC(=O)[C@@H](O1)C#N	
InChI=1S/C6H7NO2/c1-4-2-5(8)6(3-7)9-4/h4,6H,2H2,1H3	InChI=1S/C6H7NO2/c1-4-2-5(8)6(3-7)9-4/h4,6H,2H2,1H3/t4-,6-/m0/s1
