21
gdb 53665	4.37306	0.55871	0.52074	1.3487	88.76	-0.2366	0.0657	0.3022	2148.446	0.179974	-387.050729	-387.039868	-387.038923	-387.0896	37.774	
C	 0.0760995881	 1.5062082685	-0.0543084867	-0.496998
C	 0.0281713862	 0.0559849446	 0.0696341864	 0.104429
C	-0.0030746146	-1.1431522577	 0.1767414122	 0.027396
C	-0.0751326563	-2.5958706015	 0.2901974093	-0.350352
C	-1.371451155	-3.1859180206	-0.3062577322	-0.191674
C	-1.4183155516	-4.6941594605	-0.1903742694	-0.012437
C	-1.850775361	-5.3495979545	 1.1110625142	-0.32691
C	-2.7278353293	-5.42345755	-0.1146108129	 0.082736
O	-3.8906170526	-4.6483063439	-0.1807183174	-0.416336
H	 0.8577949165	 1.8229218979	-0.7540249845	 0.143743
H	-0.8756633754	 1.9069040156	-0.4210942679	 0.145014
H	 0.2841252726	 1.9835857018	 0.9099766869	 0.143681
H	 0.7924823059	-3.0480441653	-0.2097664452	 0.118734
H	 0.0010904889	-2.8916154617	 1.344893727	 0.123804
H	-2.2388444554	-2.7494105642	 0.195309907	 0.118685
H	-1.4446995839	-2.8909390943	-1.3594716046	 0.107771
H	-0.6345258399	-5.2119346363	-0.7389342635	 0.084315
H	-1.3443589263	-6.2449126676	 1.4552093226	 0.10894
H	-2.1863810293	-4.6833523159	 1.900041668	 0.113247
H	-2.7948379089	-6.3823113105	-0.6291640316	 0.084271
H	-4.5329002886	-5.0256220937	 0.4289439423	 0.287941
11.3954	47.4771	67.4427	75.2235	162.606	209.6261	246.1821	289.9511	299.5874	352.1699	387.468	453.4119	485.4202	582.3656	745.113	765.2934	780.7091	839.0853	900.3743	940.719	982.9615	1027.4714	1046.8381	1052.8075	1055.3723	1072.7884	1130.9189	1138.9779	1167.5293	1177.7455	1226.2277	1238.4248	1275.1152	1300.283	1310.0469	1361.2762	1402.7778	1415.2376	1425.576	1474.0616	1479.6871	1479.9482	1488.235	1497.1029	2373.2332	3008.6338	3023.8111	3034.9046	3047.7846	3082.6549	3083.1503	3092.4596	3102.1505	3125.3169	3131.8053	3214.462	3810.0938
CC#CCCC1CC1O	CC#CCC[C@H]1C[C@H]1O	
InChI=1S/C8H12O/c1-2-3-4-5-7-6-8(7)9/h7-9H,4-6H2,1H3	InChI=1S/C8H12O/c1-2-3-4-5-7-6-8(7)9/h7-9H,4-6H2,1H3/t7-,8+/m0/s1
