23
gdb 86569	2.72708	1.05232	0.90971	2.5144	86.54	-0.2375	-0.0085	0.2291	1427.9619	0.203393	-388.314365	-388.303821	-388.302877	-388.35085	38.269	
C	-0.1867914586	 1.531541475	-0.0941180831	-0.395033
C	 0.0356455222	 0.0214308905	-0.0606722797	-0.00283
C	 1.2767226704	-0.4421751805	-0.8772097135	-0.247134
C	 2.0777127232	-0.5696832637	 0.4660518342	-0.091315
C	 0.7260085914	-0.5475369591	 1.224213281	 0.032229
C	 0.639231409	 0.195171566	 2.5488408487	-0.422131
C	 2.9471607478	-1.804596016	 0.58736701	 0.369217
C	 4.3823883528	-1.6680907116	 0.110331943	-0.481118
O	 2.5121749487	-2.8537439276	 1.009455844	-0.306388
H	 0.7314145292	 2.086570904	 0.1290306771	 0.111671
H	-0.5262353687	 1.8463963008	-1.0869541909	 0.11296
H	-0.9458052963	 1.8425733259	 0.6313434463	 0.1165
H	-0.8979899901	-0.4833112566	-0.3275883296	 0.067878
H	 1.1273781748	-1.4172915825	-1.3482250919	 0.11173
H	 1.6706488565	 0.2557746992	-1.6206723136	 0.097665
H	 2.6743535535	 0.3317684413	 0.6416819979	 0.068891
H	 0.4182295249	-1.5878281514	 1.3661722197	 0.09645
H	 0.9638956565	 1.2370623177	 2.4581508967	 0.109439
H	-0.3858011261	 0.1989154887	 2.9362152054	 0.115525
H	 1.2725859782	-0.2868582779	 3.3017361536	 0.119823
H	 4.9308986091	-0.9966140351	 0.7818057774	 0.139807
H	 4.8703917853	-2.6434219143	 0.0955928646	 0.139365
H	 4.4174069962	-1.2143125128	-0.8864781072	 0.136803
25.5212	70.5966	130.9369	145.2348	189.6603	217.5245	227.5523	260.9509	283.8249	365.0867	388.9621	499.6172	562.8202	601.5587	641.0525	776.9767	790.7293	868.1447	896.4829	903.7546	953.1834	970.1289	982.8798	1011.356	1041.6802	1078.3001	1108.3177	1132.1437	1154.4132	1187.9021	1204.54	1237.0818	1252.7683	1277.7594	1278.1657	1344.1162	1371.7435	1378.285	1397.2896	1410.4364	1411.8645	1462.9769	1475.3914	1483.958	1489.6787	1490.4778	1502.7261	1502.7909	1802.0893	3024.6291	3028.2431	3032.2247	3043.7705	3049.2783	3057.0773	3068.8415	3090.6043	3091.5063	3092.7205	3096.8529	3099.7172	3112.715	3149.6432
CC1CC(C1C)C(C)=O	C[C@H]1C[C@@H]([C@H]1C)C(=O)C	
InChI=1S/C8H14O/c1-5-4-8(6(5)2)7(3)9/h5-6,8H,4H2,1-3H3	InChI=1S/C8H14O/c1-5-4-8(6(5)2)7(3)9/h5-6,8H,4H2,1-3H3/t5-,6-,8-/m0/s1
