22
gdb 119168	3.36818	0.99721	0.86447	0.8466	83.45	-0.221	0.0883	0.3093	1433.0647	0.192721	-404.28394	-404.27425	-404.273306	-404.318791	35.953	
C	-0.3032605727	 1.2765312666	-1.0942297202	-0.223064
O	-0.0955545943	-0.0677637662	-0.7367968136	-0.2371
C	-1.2978629001	-0.767632014	-0.5060938266	-0.101166
C	-0.998943253	-2.2026633064	-0.1101281249	 0.311672
C	 0.2133225611	-2.8808621623	-0.7063378045	-0.316426
C	 0.1903458634	-2.4805556336	 0.7573564629	-0.294137
N	-2.2522722178	-2.8780685741	 0.1559831088	-0.123457
C	-2.8731549781	-3.6385877985	-0.9278931285	-0.225814
C	-2.3057444969	-4.327009037	 0.263782614	-0.23482
H	 0.678903187	 1.7308559339	-1.2462798528	 0.1262
H	-0.8850138117	 1.3664628498	-2.0253764085	 0.104138
H	-0.8344034026	 1.8314946109	-0.3049963741	 0.10596
H	-1.8811758871	-0.289727584	 0.29774966	 0.098026
H	-1.9266760261	-0.7587400924	-1.4138365998	 0.085016
H	 0.1672669749	-3.9374796563	-0.9469981881	 0.104621
H	 0.8258912292	-2.2907300615	-1.3769661151	 0.125933
H	 0.8012919323	-1.6387284645	 1.0600761995	 0.124858
H	 0.0949097305	-3.2709405899	 1.4944566502	 0.109191
H	-3.9465850072	-3.5159671487	-1.0405270672	 0.114553
H	-2.318017159	-3.7363241024	-1.8590013411	 0.114438
H	-1.3970316837	-4.9059171139	 0.1161342702	 0.115036
H	-2.9569446083	-4.7080502453	 1.0457522293	 0.116343
71.8903	90.4675	107.0595	152.5153	229.0343	242.7276	267.7848	332.7024	347.896	392.6499	497.7622	522.1964	675.9093	778.5229	803.5918	840.5645	867.8835	900.1284	944.5976	973.277	1005.2264	1008.658	1041.8034	1054.4894	1079.9198	1102.4205	1116.5894	1121.7808	1163.5091	1173.0681	1179.6109	1188.5247	1193.9041	1214.4488	1243.521	1262.4344	1330.4017	1361.622	1421.8273	1448.8606	1477.738	1484.5916	1487.7426	1499.6109	1505.1813	1520.9634	1525.7112	2947.2817	2971.6404	2987.6866	3014.8714	3098.6927	3104.3342	3113.1784	3136.4883	3139.9082	3178.0268	3192.4912	3222.441	3234.3859
COCC1(CC1)N1CC1	COCC1(CC1)N1CC1	
InChI=1S/C7H13NO/c1-9-6-7(2-3-7)8-4-5-8/h2-6H2,1H3	InChI=1S/C7H13NO/c1-9-6-7(2-3-7)8-4-5-8/h2-6H2,1H3
