20
gdb 92688	2.94583	1.29901	0.93546	3.8107	83.14	-0.2373	-0.024	0.2132	1282.3998	0.171744	-403.214966	-403.205965	-403.205021	-403.248415	34.174	
C	 0.0152827893	 1.5806118507	 0.0231908664	-0.411459
C	 0.0456526406	 0.0547321897	-0.0033468386	 0.054819
C	 0.6189816258	-0.5017238088	-1.3098179053	-0.247015
C	 0.8965715057	-1.9761124748	-1.2001316137	-0.179361
C	 1.162240871	-2.5757056739	-0.0337519264	 0.218999
C	 1.4716706445	-4.0366278052	 0.1183530396	-0.47109
C	 1.2273749587	-1.7658100763	 1.2233697467	 0.350498
O	 1.6278306586	-2.2324697469	 2.2779361567	-0.375218
N	 0.8510555882	-0.4490307233	 1.106402319	-0.344169
H	 1.0253934858	 1.9902246239	-0.0770682965	 0.128001
H	-0.5992863228	 1.9643476072	-0.7965189931	 0.123886
H	-0.4132604126	 1.9501276318	 0.9611412382	 0.118463
H	-0.9893745618	-0.3160897908	 0.0908333701	 0.080805
H	-0.0830509606	-0.3019472034	-2.1266703803	 0.109622
H	 1.5488340193	 0.0309033756	-1.562966006	 0.118087
H	 0.9116018229	-2.5555854196	-2.1208299316	 0.094888
H	 2.4550813681	-4.1752679652	 0.5777046941	 0.144957
H	 0.7532448712	-4.5213256775	 0.7879386333	 0.136447
H	 1.4514332372	-4.5465766624	-0.8481213103	 0.109696
H	 0.7792300606	 0.0269404893	 1.9953144077	 0.239145
92.2673	129.0799	156.0278	247.4303	267.9272	270.4486	304.0973	354.8438	408.5216	442.1897	528.7599	555.5356	607.2507	690.9675	716.4091	770.29	861.5117	885.0908	921.6545	982.4407	999.2279	1065.3319	1071.9908	1080.9091	1112.7161	1180.0431	1212.4643	1222.1998	1296.4741	1331.3759	1368.7263	1380.3837	1410.4415	1414.4814	1417.393	1452.5383	1469.5677	1472.1725	1487.3338	1495.2206	1500.3745	1715.392	1771.4461	2948.4213	2993.431	3034.3817	3040.4761	3065.5529	3097.8824	3102.6896	3116.3472	3123.5966	3149.7886	3593.4976
CC1CC=C(C)C(=O)N1	C[C@H]1CC=C(C)C(=O)N1	
InChI=1S/C7H11NO/c1-5-3-4-6(2)8-7(5)9/h3,6H,4H2,1-2H3,(H,8,9)	InChI=1S/C7H11NO/c1-5-3-4-6(2)8-7(5)9/h3,6H,4H2,1-2H3,(H,8,9)/t6-/m0/s1
