12
gdb 28999	3.09843	1.59549	1.05318	5.2494	71.97	-0.2695	-0.0866	0.1829	1020.1956	0.079929	-431.733511	-431.726687	-431.725743	-431.765	25.351	
O	 0.1120636526	 1.3363376082	 0.0624844562	-0.389828
C	 0.0762015819	 0.0018822976	 0.0232201816	 0.402913
N	 0.0906197956	-0.6049380705	-1.1544549865	-0.330588
C	 0.0534554683	-1.9388245078	-1.1461802465	-0.006386
C	 0.0018686341	-2.6660072412	 0.040089548	-0.040029
N	-0.0127853702	-2.0594275668	 1.2261244484	-0.285177
C	 0.0239210419	-0.727123103	 1.2332393152	 0.115524
C	 0.0092525949	-0.0465866624	 2.4955608068	 0.276322
N	-0.0019477439	 0.5169734839	 3.5055373227	-0.3234
H	 0.1449825873	 1.6477339148	-0.8540297448	 0.312502
H	 0.0653115419	-2.4360880385	-2.1118053134	 0.136612
H	-0.0280669144	-3.7504794446	 0.0371101523	 0.131536
114.4615	151.2162	239.8404	386.2504	417.5384	492.1558	500.9614	575.7927	582.1007	614.3848	616.4874	738.6911	834.2918	885.1342	912.6615	988.334	1088.2195	1135.629	1233.9421	1279.6659	1286.9141	1351.5904	1481.1289	1492.8946	1592.5802	1617.4266	2351.6475	3173.3099	3194.1981	3755.4396
OC1=NC=CN=C1C#N	Oc1nccnc1C#N	
InChI=1S/C5H3N3O/c6-3-4-5(9)8-2-1-7-4/h1-2H,(H,8,9)	InChI=1S/C5H3N3O/c6-3-4-5(9)8-2-1-7-4/h1-2H,(H,8,9)
