18
gdb 61424	2.59443	1.16443	0.94038	2.5356	69.73	-0.2482	-0.0028	0.2454	1296.1581	0.144996	-476.303116	-476.292848	-476.291904	-476.339527	35.839	
C	-0.4799418851	 1.9861429664	-0.5786677183	-0.394219
C	-0.1692749899	 0.5914681769	-0.076346274	 0.023411
O	-1.4447076104	-0.0558165185	 0.2008820504	-0.247711
C	-1.4874880894	-0.9903449497	 1.1642197976	 0.437018
C	-2.902648462	-1.456150343	 1.3965930187	-0.474821
O	-0.5159669343	-1.3979932634	 1.7624338278	-0.370002
C	 0.6039938695	-0.2396590072	-1.1291735654	 0.389002
N	 1.1513220468	-1.3786359836	-0.6333008078	-0.524015
O	 0.7129292546	 0.1229446236	-2.2838055206	-0.357745
H	 0.4513072043	 2.5305982954	-0.7528649928	 0.134281
H	-1.0203219409	 1.9367563068	-1.525358291	 0.149138
H	-1.0758365691	 2.5288655659	 0.1592880609	 0.115018
H	 0.3984242134	 0.6096855277	 0.8582986623	 0.115941
H	-3.3330776208	-1.8210557829	 0.4600466343	 0.158033
H	-2.9078420333	-2.2461829068	 2.1461873033	 0.150901
H	-3.520084515	-0.6181207528	 1.7322970169	 0.155812
H	 0.953191648	-1.6717243471	 0.3126968314	 0.281446
H	 1.6071548136	-2.0060375576	-1.2758089838	 0.258512
43.8108	47.1967	93.5391	131.1345	190.963	214.206	249.477	306.9562	328.6701	393.8436	441.0658	488.1158	582.2705	614.7222	639.5244	660.6793	751.4392	822.4119	859.1832	961.4639	1022.3608	1042.9538	1065.7621	1087.5723	1131.1661	1170.3519	1274.8585	1302.6764	1358.9735	1397.8534	1402.6278	1414.1639	1467.3119	1474.7048	1480.6271	1486.4595	1616.3756	1789.6449	1807.2717	3058.9033	3059.2664	3076.4793	3124.8123	3133.0949	3150.4214	3171.8836	3552.635	3703.8361
CC(OC(C)=O)C(N)=O	C[C@@H](OC(=O)C)C(=O)N	
InChI=1S/C5H9NO3/c1-3(5(6)8)9-4(2)7/h3H,1-2H3,(H2,6,8)	InChI=1S/C5H9NO3/c1-3(5(6)8)9-4(2)7/h3H,1-2H3,(H2,6,8)/t3-/m1/s1
