18
gdb 55468	3.42576	1.16662	0.93408	2.0958	68.24	-0.246	0.0314	0.2774	1228.4264	0.149035	-476.260182	-476.251743	-476.250799	-476.293931	31.571	
N	 0.7580569451	-0.1109602876	 0.6326079738	-0.517485
C	-0.1459620963	 0.3006936663	-0.2874497058	 0.36251
O	 0.0089606799	 1.2442934068	-1.0397634707	-0.377292
C	-1.4343492918	-0.5240774003	-0.3391244685	 0.028318
C	-1.6729276004	-1.1004334081	-1.7407790891	-0.201995
C	-2.9011724051	-2.009252391	-1.6928864335	-0.104169
O	-2.7607719528	-2.9771454351	-0.655275755	-0.229692
C	-2.5621809805	-2.3630358233	 0.5823682965	 0.013852
O	-1.391492474	-1.5768793904	 0.6221875783	-0.268087
H	 1.6327918756	 0.3797965728	 0.7098912175	 0.262083
H	 0.5640535545	-0.9144185504	 1.2053762127	 0.275489
H	-2.2590619487	 0.1637229055	-0.0870216764	 0.097967
H	-1.8009143218	-0.2837890248	-2.4554117241	 0.128901
H	-0.7975058343	-1.6864050215	-2.0399118843	 0.115979
H	-3.8123904611	-1.4114342723	-1.5214377877	 0.09408
H	-3.0303449265	-2.5684875631	-2.6223500317	 0.118471
H	-3.4321991457	-1.7278299982	 0.8376122018	 0.080332
H	-2.4385972161	-3.1541841452	 1.3241857259	 0.120737
36.955	120.4287	197.3842	254.5581	273.2814	321.1096	357.9731	429.2183	491.1902	504.4141	552.6548	621.51	666.3167	727.1951	855.9621	873.5197	926.9197	963.9034	1016.1696	1046.7829	1064.6941	1100.8671	1112.5525	1146.696	1202.1458	1227.1779	1264.5521	1297.2457	1331.7712	1348.272	1376.0466	1388.5672	1401.4814	1445.7949	1470.5083	1495.4768	1507.6499	1597.5831	1801.1491	2920.312	2965.8431	2972.6602	3056.1762	3102.1776	3116.5231	3119.1343	3603.4834	3744.6667
NC(=O)C1CCOCO1	NC(=O)[C@H]1CCOCO1	
InChI=1S/C5H9NO3/c6-5(7)4-1-2-8-3-9-4/h4H,1-3H2,(H2,6,7)	InChI=1S/C5H9NO3/c6-5(7)4-1-2-8-3-9-4/h4H,1-3H2,(H2,6,7)/t4-/m1/s1
