21
gdb 22504	2.69781	0.8735	0.82341	9.2336	82.82	-0.1434	0.013	0.1564	1533.942	0.181595	-457.430588	-457.420291	-457.419347	-457.466619	36.944	
C	-0.8246808919	 0.9907688555	-0.8585601331	-0.405043
C	-0.044263406	-0.185037144	-0.281878719	-0.145116
N	 0.8312788811	-0.8298995577	-1.2946031817	-0.254317
H	 0.3111507203	-1.2115779385	-2.1155109702	 0.299481
H	 1.4962911004	-0.1652773483	-1.6970086992	 0.288477
C	 1.7604363759	-2.0715746532	-0.845810882	-0.245765
C	 2.1207261491	-2.7480568433	-2.087085791	 0.131758
C	 1.0327040569	-3.4499876062	-2.839195501	-0.161767
O	 0.2751153781	-2.4485355992	-3.5929183694	-0.449551
N	 3.0651720899	-2.0967032547	-2.7824314764	-0.081534
O	 3.0411665155	-2.259793223	-4.0481057309	-0.464
H	-0.1536863477	 1.7760141655	-1.2210619597	 0.140094
H	-1.4637509992	 0.6737541404	-1.6881331421	 0.152013
H	-1.4642810629	 1.4270782059	-0.0864855379	 0.147223
H	 0.5954225904	 0.1273552926	 0.5489310226	 0.14377
H	-0.717029763	-0.9620636348	 0.0914292999	 0.149006
H	 2.604817138	-1.6072032879	-0.3335242372	 0.136112
H	 1.1273503744	-2.6288393231	-0.1510978638	 0.120117
H	 1.4508130512	-4.174148596	-3.5438135197	 0.12509
H	 0.3124135523	-3.9554394739	-2.1879624128	 0.080954
H	 0.975116227	-2.133838626	-4.1981598753	 0.293
51.2152	78.5844	97.6427	141.6076	202.7713	215.0835	272.3875	279.0811	306.8887	359.2176	396.5734	436.66	579.3195	677.951	713.9614	768.0108	800.1863	854.4822	877.4236	899.621	921.4016	941.983	993.5835	1044.2428	1099.2229	1135.612	1170.3457	1242.4192	1283.4124	1304.1726	1322.371	1337.9378	1360.3538	1383.8209	1398.4112	1403.0423	1420.787	1429.9422	1438.8361	1460.6643	1479.1209	1492.3901	1497.555	1510.6179	1680.9345	3043.6854	3047.1815	3063.3181	3067.3171	3098.3671	3101.0648	3106.0656	3123.0566	3127.686	3140.1918	3452.8425	3578.5379
CC[NH2+]CC(CO)=N[O-]	CC[NH2]C[C](CO)[N][O]	
InChI=1S/C5H12N2O2/c1-2-6-3-5(4-8)7-9/h6,8-9H,2-4H2,1H3	InChI=1S/C5H12N2O2/c1-2-6-3-5(4-8)7-9/h8H,2-4,6H2,1H3
