21
gdb 69974	2.4117	1.82832	1.36783	1.7642	81.62	-0.2426	0.0791	0.3217	1046.7146	0.181483	-387.045877	-387.037377	-387.036432	-387.078208	33.973	
C	-0.1337386919	 1.5279695418	 0.096538219	-0.512253
C	 0.1460750484	 0.0616175981	 0.0151031545	 0.370403
O	-0.7531726794	-0.8197607768	 0.7061120694	-0.282538
C	 0.6511141922	-0.9296904269	 0.9881223642	-0.06112
C	 1.2906468449	-1.7888588407	-0.1233278238	-0.105574
C	 0.3907134223	-2.8846611339	-0.7647216142	-0.219216
C	-0.147583897	-1.8425307217	-1.7945935021	-0.279773
C	 0.7717493991	-0.7436236139	-1.1722253357	 0.294189
C	 1.7173492324	 0.0221862495	-2.0702597712	-0.498226
H	 0.7338188613	 2.1156532784	-0.2185659399	 0.124717
H	-0.9762048521	 1.7992860613	-0.5505255384	 0.129268
H	-0.3923847711	 1.8062080368	 1.121842534	 0.133314
H	 0.9424715162	-0.8288621893	 2.0291532491	 0.095027
H	 2.3583523269	-1.981176356	-0.006809783	 0.065211
H	 0.9638616171	-3.6955622924	-1.2202452008	 0.093581
H	-0.3609538581	-3.31179141	-0.0990901675	 0.109318
H	 0.1097257435	-2.0727879354	-2.8322440909	 0.09045
H	-1.2181502771	-1.6405037034	-1.731222868	 0.105308
H	 1.1760488591	 0.7248049479	-2.7159332301	 0.117388
H	 2.446441866	 0.5996477603	-1.489404766	 0.113848
H	 2.2779691573	-0.6586310636	-2.7196933286	 0.116676
143.2475	188.9836	209.7013	224.9041	253.4738	273.3312	328.7389	381.2575	468.7974	533.886	591.5688	647.4851	730.0677	758.7577	790.2341	829.9648	859.2928	876.0855	908.427	945.7647	968.1732	996.79	999.1294	1039.5873	1091.4495	1101.466	1121.7326	1147.9008	1176.426	1219.9765	1224.5071	1248.3177	1252.1648	1279.0014	1296.7378	1320.9058	1399.7252	1411.2913	1448.8293	1461.2587	1480.2783	1482.1597	1490.8943	1495.1261	1497.6704	3016.6236	3032.6316	3057.6359	3069.1381	3077.4693	3089.5486	3095.9077	3099.7693	3114.6711	3120.1699	3131.9135	3160.8737
CC12OC1C1CCC21C	C[C@]12O[C@H]1[C@H]1CC[C@@]21C	
InChI=1S/C8H12O/c1-7-4-3-5(7)6-8(7,2)9-6/h5-6H,3-4H2,1-2H3	InChI=1S/C8H12O/c1-7-4-3-5(7)6-8(7,2)9-6/h5-6H,3-4H2,1-2H3/t5-,6+,7-,8+/m1/s1
