20
gdb 79857	2.9227	1.73321	1.26998	0.385	79.71	-0.2074	0.0936	0.301	1039.8688	0.170577	-403.074995	-403.066767	-403.065823	-403.107965	32.001	
C	-0.8893968728	 1.430963434	-0.1602082799	-0.334013
N	-0.6339172102	-0.0024080009	-0.0957905218	-0.098134
C	-1.3726917244	-0.8803276497	 0.8710695191	-0.121648
C	-0.2658186798	-1.9560341048	 0.6225838526	-0.041507
C	-0.0729721191	-2.7331149553	 1.9021314699	-0.117165
O	-0.2036751466	-1.6857057643	 2.8729862687	-0.308027
C	-0.436478018	-0.5171112634	 2.0939823337	 0.466627
C	-0.5736117479	 0.6313131167	 3.0633106692	-0.501215
C	 0.4428254406	-0.5709826006	 0.7831456614	-0.120741
H	-0.0573063015	 1.9040191746	-0.6928991172	 0.120852
H	-1.7913377028	 1.5874929351	-0.7622492679	 0.121296
H	-1.0291216878	 1.9651406713	 0.7879667948	 0.100615
H	-2.4563435568	-1.0135511936	 0.8405824775	 0.074939
H	-0.2298328947	-2.4454407351	-0.3477195628	 0.085294
H	-0.839585937	-3.5007269902	 2.067631999	 0.103164
H	 0.9150209764	-3.2036672963	 1.9843208115	 0.103151
H	 0.3127381031	 0.6604046767	 3.7049527658	 0.132028
H	-0.6800130849	 1.5993175397	 2.5799553367	 0.129507
H	-1.4417389284	 0.4641631293	 3.7086768159	 0.130587
H	 1.5011036528	-0.338646593	 0.6448248137	 0.074391
46.5602	142.5206	203.2328	259.8075	276.086	321.8912	380.5991	439.6942	506.4906	634.3794	677.7006	714.6428	757.3331	785.3321	792.6211	896.7745	903.9089	926.6267	971.6988	988.8483	1042.1121	1056.6659	1092.7468	1119.5315	1121.7123	1123.0873	1144.9066	1161.8962	1183.178	1196.25	1201.3349	1225.2753	1285.176	1320.8571	1326.0173	1376.6124	1414.564	1447.8356	1474.8324	1481.9042	1498.9709	1510.3883	1525.2664	3013.7463	3015.5395	3050.4348	3050.5854	3068.6851	3088.7513	3092.034	3094.7131	3107.3383	3157.3773	3177.6534
CN1C2C3COC2(C)C13	CN1[C@H]2[C@@H]3CO[C@@]2(C)[C@H]13	
InChI=1S/C7H11NO/c1-7-5-4(3-9-7)6(7)8(5)2/h4-6H,3H2,1-2H3	InChI=1S/C7H11NO/c1-7-5-4(3-9-7)6(7)8(5)2/h4-6H,3H2,1-2H3/t4-,5-,6+,7+
