20
gdb 111508	2.48223	1.58842	1.13193	1.4969	74.81	-0.2267	0.0576	0.2843	1124.8057	0.171148	-440.239357	-440.23053	-440.229586	-440.272783	33.287	
C	-0.1446602582	 1.3862572152	 0.0588428662	-0.239741
O	-0.0389092048	-0.0258134114	 0.0271461911	-0.247085
C	 0.6158704795	-0.5469305825	-1.1126761387	 0.070786
C	 1.1486891205	-1.9480375382	-0.8290038509	-0.051263
C	 0.3669885553	-2.8163721574	 0.0807257192	-0.229854
N	 0.2036056568	-2.9728962918	-1.3694312875	-0.107255
C	-0.9387469694	-2.2143681585	-1.9241853596	-0.214112
C	-0.3529971433	-0.834954331	-2.2879295845	 0.126394
O	-1.2961610911	 0.2010764217	-2.4631855317	-0.432028
H	 0.8490843553	 1.858277989	 0.0054850732	 0.098482
H	-0.7655244029	 1.7712704455	-0.7555325573	 0.134492
H	-0.601116775	 1.6442595405	 1.017934239	 0.12081
H	 1.42358505	 0.1316480305	-1.4190163193	 0.065612
H	 2.2038698519	-2.1390122463	-0.9983235669	 0.090058
H	 0.8610681769	-3.648916873	 0.574324476	 0.110894
H	-0.4341754774	-2.3518770819	 0.647955929	 0.132738
H	-1.3342219273	-2.7438538918	-2.7965886769	 0.096061
H	-1.7534038519	-2.0850216113	-1.2015132475	 0.11237
H	 0.2712330479	-0.9557843048	-3.1881573973	 0.073705
H	-1.8120589928	 0.0104464776	-3.2521852756	 0.288935
86.4519	125.8525	184.8375	202.2474	215.6594	246.035	351.2278	360.9436	425.755	469.4824	578.4321	625.9885	696.8532	792.4904	807.4438	863.8378	920.3192	949.69	1005.0385	1024.2025	1061.9654	1081.0923	1105.8344	1120.3449	1133.6141	1151.0958	1163.4241	1182.009	1214.3533	1216.9413	1250.375	1266.1813	1286.318	1313.3349	1366.0822	1380.6941	1394.7789	1433.6644	1478.7828	1485.4038	1498.0791	1517.3006	1520.3391	2970.1301	2983.2326	3012.581	3031.1515	3079.6136	3079.7812	3111.2229	3121.7554	3151.0258	3201.7835	3828.1554
COC1C2CN2CC1O	CO[C@H]1[C@H]2CN2C[C@H]1O	
InChI=1S/C6H11NO2/c1-9-6-4-2-7(4)3-5(6)8/h4-6,8H,2-3H2,1H3	InChI=1S/C6H11NO2/c1-9-6-4-2-7(4)3-5(6)8/h4-6,8H,2-3H2,1H3/t4-,5-,6+,7?/m1/s1
