17
gdb 32126	3.92101	1.18087	0.91796	2.4312	79.55	-0.2371	-0.0245	0.2127	1264.7499	0.137538	-414.266136	-414.257203	-414.256258	-414.301114	30.887	
C	 0.01320394	 1.4421735512	 0.05504838	-0.315488
N	-0.071415258	-0.0031225179	 0.0094369525	-0.346815
C	-1.2290617537	-0.6937509949	 0.0132854086	 0.466896
N	-2.3845046817	-0.0049406173	-0.0033998576	-0.323179
C	-3.4641509242	-0.7798852488	-0.0143004244	 0.067899
N	-3.4996740962	-2.1088757542	-0.0039918692	-0.305271
C	-2.2836875802	-2.6903263613	 0.0185257058	 0.35483
C	-2.249860475	-4.1908654428	 0.0343913907	-0.457919
N	-1.1266770003	-2.0413481769	 0.0274847569	-0.353697
H	 1.0397925876	 1.7385166493	-0.1693136121	 0.126609
H	-0.656347159	 1.8851262781	-0.6855734317	 0.15469
H	-0.2626511653	 1.8416075037	 1.0385557302	 0.134822
H	 0.7630932328	-0.5616944456	 0.0752468417	 0.257941
H	-4.4242632719	-0.2658037685	-0.03120698	 0.117809
H	-2.758116601	-4.5830948557	-0.8521700044	 0.144286
H	-1.2221902416	-4.5531977903	 0.0609396908	 0.132545
H	-2.7988787424	-4.5659235381	 0.9037693223	 0.144043
41.9106	60.3432	98.8377	176.708	205.512	215.4734	342.127	444.455	485.9839	495.4288	574.6415	650.8961	662.5211	818.0805	843.932	939.5702	991.7678	1020.2804	1022.0078	1068.9636	1110.2468	1158.3487	1189.0007	1239.3336	1301.0205	1355.886	1388.9425	1403.3787	1447.0588	1464.2566	1475.9828	1476.2896	1481.8602	1514.911	1584.8	1600.0443	1630.9768	3029.4516	3049.4802	3100.0168	3107.8359	3139.4752	3146.012	3157.7771	3660.2449
CNC1=NC=NC(C)=N1	CNc1ncnc(C)n1	
InChI=1S/C5H8N4/c1-4-7-3-8-5(6-2)9-4/h3H,1-2H3,(H,6,7,8,9)	InChI=1S/C5H8N4/c1-4-7-3-8-5(6-2)9-4/h3H,1-2H3,(H,6,7,8,9)
