19
gdb 65614	3.23061	1.26569	1.18526	4.6082	79.18	-0.2294	0.0293	0.2587	1122.8043	0.160112	-382.039997	-382.031665	-382.030721	-382.07315	31.695	
C	 0.2257881789	 1.4412813496	-0.1416626099	-0.455853
C	 0.0277304169	-0.0752724121	-0.0411980181	 0.123597
C	 0.9624938995	-0.9633974448	-0.9413440438	-0.216775
N	 1.5391665669	-1.6618949671	 0.2392007349	-0.112878
C	 2.7654573332	-0.9973988084	 0.790379728	-0.167366
C	 1.9266557923	-0.2367105905	 1.8540081676	-0.266692
C	 0.681245369	-0.8388957553	 1.1718684898	 0.001448
C	-1.3871254999	-0.4007833958	-0.1896409959	 0.246664
N	-2.5083553622	-0.66103	-0.3030743419	-0.345043
H	 1.2855417886	 1.699108309	-0.0775636486	 0.125944
H	-0.1535552189	 1.8087756874	-1.0995509312	 0.141576
H	-0.3086196255	 1.9639301633	 0.6569607707	 0.14032
H	 0.4297077401	-1.6444013508	-1.6094132667	 0.130347
H	 1.6890432003	-0.3890507754	-1.5273167741	 0.107507
H	 3.4827122406	-1.7198223033	 1.1891839888	 0.115539
H	 3.2852889447	-0.3645974975	 0.061427867	 0.101152
H	 2.0652413595	-0.6024791568	 2.8731961151	 0.119474
H	 2.0105713712	 0.8514692996	 1.8672767327	 0.112178
H	-0.0303309853	-1.369524961	 1.8085482955	 0.09886
53.2205	147.6223	173.454	213.33	282.6093	311.6494	391.8745	410.2437	515.1287	565.1936	611.5389	712.5332	765.7502	787.6748	857.2433	898.2648	912.4177	930.246	969.1324	989.2841	1002.0042	1028.8196	1084.1487	1142.3548	1162.2403	1185.1742	1196.3372	1214.5581	1227.8862	1247.3619	1269.2091	1295.6381	1318.3444	1347.903	1412.0647	1476.5499	1490.0971	1494.1482	1500.1772	1517.1234	2347.7205	3030.3255	3035.9699	3044.8559	3074.1463	3082.5233	3085.5057	3098.5141	3117.6858	3123.3787	3130.0167
CC1(CN2CCC12)C#N	C[C@]1(CN2CC[C@@H]12)C#N	
InChI=1S/C7H10N2/c1-7(4-8)5-9-3-2-6(7)9/h6H,2-3,5H2,1H3	InChI=1S/C7H10N2/c1-7(4-8)5-9-3-2-6(7)9/h6H,2-3,5H2,1H3/t6-,7+/m0/s1
