20
gdb 14876	3.78457	1.2286	1.01098	2.1622	71.38	-0.2401	0.0698	0.3099	1203.5427	0.17621	-386.117795	-386.108622	-386.107678	-386.152169	32.551	
C	-0.0801669309	 1.6257183074	-0.1633214909	-0.384566
C	-0.0517198763	 0.1931887383	 0.3808644314	-0.193038
C	-1.3151285948	-0.5695609644	 0.0166734444	 0.141313
O	-1.4764680543	-0.7329502681	-1.4143414858	-0.296492
C	-1.8102623945	-2.1292180336	-1.2591206115	-0.072164
C	-1.434881834	-2.1024840021	 0.2355739316	-0.049347
C	-0.1755511113	-2.8712400402	 0.5914242944	-0.096339
O	-0.5081568965	-4.2519205206	 0.5295053366	-0.425285
H	 0.8452218298	 2.1583627034	 0.0747519632	 0.109654
H	-0.2014657378	 1.6170830813	-1.2500465905	 0.140101
H	-0.91416847	 2.1940154898	 0.2631398742	 0.113265
H	 0.8233074461	-0.3324125811	-0.0170616328	 0.098331
H	 0.0472449721	 0.2052590876	 1.4744185062	 0.094713
H	-2.1851827273	-0.0363952585	 0.4327111699	 0.066276
H	-2.8705877996	-2.3213211557	-1.4672386013	 0.097032
H	-1.198911016	-2.7761333573	-1.8985808426	 0.10582
H	-2.2328906046	-2.4048467449	 0.917600738	 0.082512
H	 0.6308930323	-2.628254292	-0.117371344	 0.093009
H	 0.1716984369	-2.587905553	 1.5979411166	 0.087568
H	 0.2915589807	-4.7624566565	 0.6858571127	 0.287637
65.2083	90.9811	111.9532	142.3943	218.5017	247.7755	272.7723	311.0171	403.0198	457.9615	522.3564	747.5143	821.0827	837.8869	881.5107	926.7095	956.1747	975.4302	1017.7131	1043.9059	1069.7926	1103.066	1117.6744	1148.9991	1168.8056	1173.9311	1219.2553	1255.3172	1280.1976	1286.0502	1303.8608	1330.8831	1361.0241	1376.6502	1407.071	1416.2295	1460.4098	1474.9368	1498.7553	1509.295	1518.497	1531.4233	2965.7696	2968.1878	2999.9136	3014.5381	3024.206	3036.8901	3061.9023	3069.5136	3086.6544	3104.2873	3120.8908	3830.5687
CCC1OCC1CO	CC[C@H]1OC[C@H]1CO	
InChI=1S/C6H12O2/c1-2-6-5(3-7)4-8-6/h5-7H,2-4H2,1H3	InChI=1S/C6H12O2/c1-2-6-5(3-7)4-8-6/h5-7H,2-4H2,1H3/t5-,6-/m1/s1
