17
gdb 84974	2.8749	1.22989	0.90794	3.5561	86.19	-0.2412	-0.0553	0.1859	1275.7591	0.134541	-384.703935	-384.695186	-384.694242	-384.737791	32.556	
C	-0.1216139115	 1.5765298716	 0.0023718832	-0.397794
C	 0.020075909	 0.0455765305	-0.0200737488	-0.028323
C	 0.8074128447	-0.5041137169	-1.2283457895	-0.345282
C	 1.9393898889	-1.3609721872	-0.647627442	 0.301418
O	 2.7487664233	-1.996583615	-1.2728539277	-0.309659
C	 1.841830971	-1.2518820449	 0.8481260419	 0.050299
C	 0.784828672	-0.4815344323	 1.1682049834	-0.165286
C	 2.7497565327	-1.8906175353	 1.7235254565	 0.244761
C	 3.5399991963	-2.4472689374	 2.4409989879	-0.406132
H	 0.8608900043	 2.0593447613	-0.0228249785	 0.126184
H	-0.6941213472	 1.9233273481	-0.863223211	 0.125282
H	-0.6399085765	 1.9126507859	 0.906283474	 0.120461
H	-0.99221999	-0.3821160537	 0.0005235761	 0.098373
H	 0.2012263663	-1.111806651	-1.9057272201	 0.136184
H	 1.249165404	 0.29605388	-1.8315101383	 0.136033
H	 0.4895702245	-0.242203444	 2.1846348504	 0.116726
H	 4.2371396683	-2.9393680696	 3.0730188325	 0.196756
51.7183	106.333	133.6658	244.109	248.3919	311.7465	400.2514	405.4028	485.7037	513.8602	588.4556	610.7159	634.5882	640.8212	679.2629	762.7442	857.796	908.2589	920.276	961.769	1026.0397	1041.6979	1076.9509	1130.7729	1205.7401	1207.5202	1266.1672	1302.7158	1314.5115	1339.5192	1408.4329	1451.7156	1497.039	1498.4739	1656.3228	1826.9156	2232.0954	3003.5514	3033.0869	3058.919	3102.2246	3106.1264	3109.7704	3191.5131	3502.8944
CC1CC(=O)C(=C1)C#C	C[C@H]1CC(=O)C(=C1)C#C	
InChI=1S/C8H8O/c1-3-7-4-6(2)5-8(7)9/h1,4,6H,5H2,2H3	InChI=1S/C8H8O/c1-3-7-4-6(2)5-8(7)9/h1,4,6H,5H2,2H3/t6-/m1/s1
