21
gdb 114483	3.07564	1.28566	1.12087	1.011	83.63	-0.229	0.0313	0.2603	1189.7592	0.183794	-387.080829	-387.072465	-387.071521	-387.114648	32.004	
C	 0.2859516073	 1.112155592	 0.3573581252	-0.237039
O	-0.096645657	-0.1803386983	-0.0515783538	-0.234252
C	 0.4977078013	-0.579957099	-1.2597612873	 0.151588
C	 2.0006647016	-0.997686097	-1.2180872011	-0.270975
C	 1.6025873072	-2.4128562141	-1.7569853578	-0.051594
C	 1.7048977713	-3.5406728639	-0.7687454739	-0.078949
C	 0.5376654085	-3.8098310749	-0.1845985583	-0.05524
C	-0.5906890038	-2.9322756701	-0.677053234	-0.272432
C	 0.0886529281	-2.0086498602	-1.7171409521	-0.072367
H	 1.3696302077	 1.1863879995	 0.5330013899	 0.108176
H	 0.0067925265	 1.8720496015	-0.3900320216	 0.102728
H	-0.2364105619	 1.3270776888	 1.2927956975	 0.125528
H	 0.3019648739	 0.177395269	-2.0350340095	 0.0573
H	 2.6665899658	-0.4130607743	-1.8579616945	 0.092335
H	 2.409500684	-1.0215405248	-0.2045534334	 0.103614
H	 2.0276753659	-2.6500839644	-2.736481204	 0.066261
H	 2.6430417749	-4.0405248973	-0.5499400773	 0.086693
H	 0.3846523978	-4.5701689757	 0.5745263735	 0.087578
H	-1.3980754961	-3.526301766	-1.1238051198	 0.09622
H	-1.0413182406	-2.3533409317	 0.1360766556	 0.12841
H	-0.4385581823	-2.0131864693	-2.6723816532	 0.066418
31.0525	110.6405	181.8594	203.8298	250.698	323.9348	431.2679	459.6053	505.1224	641.1174	728.8745	745.717	762.6528	807.9478	843.7998	889.1942	922.4998	962.2171	965.4065	987.8414	1013.7754	1042.8976	1071.5942	1085.5537	1118.1228	1128.2497	1160.7168	1183.1508	1187.7081	1196.2	1236.6452	1247.56	1256.0571	1293.1019	1302.4528	1325.4952	1330.701	1374.7933	1391.2604	1467.7551	1479.8252	1485.5351	1489.2802	1510.1453	1682.3975	2966.3125	2975.3772	3021.4221	3022.2359	3054.0818	3059.8984	3071.6322	3091.6397	3112.9528	3113.7248	3172.3326	3198.302
COC1CC2C=CCC12	CO[C@H]1C[C@H]2C=CC[C@@H]12	
InChI=1S/C8H12O/c1-9-8-5-6-3-2-4-7(6)8/h2-3,6-8H,4-5H2,1H3	InChI=1S/C8H12O/c1-9-8-5-6-3-2-4-7(6)8/h2-3,6-8H,4-5H2,1H3/t6-,7-,8+/m1/s1
