18
gdb 124925	2.26476	1.83684	1.02699	1.7503	84.8	-0.204	-0.0445	0.1595	1144.1036	0.148752	-398.157924	-398.149157	-398.148213	-398.191555	32.489	
C	 0.0760811944	 1.5343074308	 0.0774844986	-0.505876
C	-0.0156339665	 0.0278144476	 0.0246791676	 0.191075
C	-1.1972411155	-0.6511918931	-0.0059195244	 0.191412
C	-2.5517563652	-0.0131844379	 0.0082700726	-0.477604
C	-1.1849585116	-2.114458117	-0.0566764834	 0.326548
N	-2.2763690649	-2.7956604898	-0.086829263	-0.557603
N	 0.0982717143	-2.6653112113	-0.0682726192	-0.305008
N	 1.2753447667	-2.0210621938	-0.0387729639	-0.201899
C	 1.2106559423	-0.7264072786	 0.0058604711	-0.056759
H	 1.1190931158	 1.8603121349	 0.0942047187	 0.128011
H	-0.4029534913	 1.9986541301	-0.7906324506	 0.142878
H	-0.4120432927	 1.9374986474	 0.9707463715	 0.142882
H	-3.1191353861	-0.3182826505	-0.8774430864	 0.151271
H	-3.1296867467	-0.3794738144	 0.8634296601	 0.151299
H	-2.5003833607	 1.0753189873	 0.0467769753	 0.110812
H	-2.0946956212	-3.8000191046	-0.1206537242	 0.193008
H	 0.1845828275	-3.6705085121	-0.1026133728	 0.260272
H	 2.1667137816	-0.213571775	 0.0293720727	 0.115281
73.2588	115.2056	123.7619	174.2641	265.4849	313.3415	331.9543	484.5937	490.8427	504.4112	555.8922	576.7193	662.0509	671.4707	759.9018	788.5333	846.1992	896.1505	920.6203	1012.1656	1036.5436	1069.2848	1082.8712	1152.1099	1173.4108	1205.888	1273.658	1376.504	1406.9251	1414.0329	1419.2476	1455.6779	1464.8044	1470.4079	1491.372	1499.9972	1595.4408	1661.2005	1692.4065	3038.7023	3045.1812	3092.7151	3096.1323	3117.2053	3146.781	3183.1367	3456.2664	3609.8959
CC1=C(C)C(=N)NN=C1	C[C@@H]1C(=C([NH])NN=C1)C	
InChI=1S/C6H9N3/c1-4-3-8-9-6(7)5(4)2/h3H,1-2H3,(H2,7,9)	InChI=1S/C6H10N3/c1-4-3-8-9-6(7)5(4)2/h3-4,7,9H,1-2H3/t4-/m0/s1
