17
gdb 61157	3.21764	0.98566	0.86513	3.3459	77.59	-0.2395	-0.0719	0.1677	1347.8046	0.133291	-417.966665	-417.956772	-417.955828	-418.002215	34.605	
C	-0.3430514562	 1.3410643526	 0.0422186806	-0.351025
N	 0.1290304795	-0.0366378669	-0.0268171869	-0.084124
C	 0.0186975699	-0.7784972963	 1.2311048734	-0.325208
C	-1.3587803187	-0.9724612157	 1.6912693815	 0.337976
C	-2.4903121167	-1.0956984125	 2.0764724837	-0.464339
C	 0.0508946435	-0.7732955866	-1.1938374434	 0.271461
N	-0.1352859002	-2.0381533725	-1.1934396031	-0.504307
C	 0.3734839898	-0.0443620517	-2.4889137381	 0.09747
O	 0.1961613814	-0.5576275187	-3.5632387225	-0.235445
H	-0.2580915946	 1.8376828112	-0.9238265038	 0.134628
H	-1.3939476175	 1.3869910733	 0.3575823999	 0.144632
H	 0.2585743294	 1.9006005476	 0.7664179051	 0.132859
H	 0.4971863791	-1.7489199486	 1.0825587272	 0.172868
H	 0.5821220958	-0.2259974414	 1.9936824695	 0.130447
H	-3.4894609224	-1.2309604424	 2.4101703115	 0.202677
H	-0.0610255432	-2.3761299799	-2.154693216	 0.238302
H	 0.842666051	 0.9556968984	-2.4040642387	 0.101129
54.3021	72.3607	113.8199	127.6966	152.6198	262.4528	297.4199	319.5378	359.2105	386.5987	430.1599	559.085	607.3526	618.6978	649.9499	671.236	840.3071	884.2895	923.2698	946.8001	1006.1954	1027.5589	1087.8564	1153.2637	1200.8827	1233.5782	1335.1554	1378.7263	1398.157	1442.5254	1461.1114	1475.9813	1480.6756	1528.5358	1676.0942	1820.1989	2235.6194	2932.183	3016.8333	3028.1615	3076.4625	3110.7954	3149.8225	3469.8475	3504.7051
CN(CC#C)C(=N)C=O	CN(CC#C)C(=N)C=O	
InChI=1S/C6H8N2O/c1-3-4-8(2)6(7)5-9/h1,5,7H,4H2,2H3	InChI=1S/C6H8N2O/c1-3-4-8(2)6(7)5-9/h1,5,7H,4H2,2H3
