18
gdb 17385	4.75209	1.60968	1.50743	2.0315	70.8	-0.2422	0.0736	0.3159	895.1823	0.154756	-347.747579	-347.740627	-347.739682	-347.779074	26.838	
C	-0.0133496913	 1.445801135	 0.1276881355	-0.282975
C	 1.3003506681	 0.7650580128	-0.125728072	-0.033273
C	 1.8159530816	 0.1299374198	 1.1715818764	-0.320093
C	 0.5015953846	-0.7047539754	 1.2681465451	 0.314353
C	 0.5670956995	-2.241818678	 1.375133475	-0.139381
O	-0.3082553841	-2.2496470195	 2.5193846995	-0.275796
C	-0.3777049714	-0.8084349065	 2.531047697	-0.131748
C	 0.0104594852	-0.052139911	-0.0237678468	-0.115704
H	-0.2219599249	 1.9013763837	 1.0939127956	 0.10629
H	-0.4315729123	 1.9869245745	-0.7150467079	 0.113214
H	 1.899699853	 0.9835398355	-1.000631044	 0.087801
H	 2.6882524207	-0.5130147512	 1.0249808819	 0.105562
H	 2.024847854	 0.8195975055	 1.9974574839	 0.096271
H	 0.1444537704	-2.7989550755	 0.5283011684	 0.098888
H	 1.5588923959	-2.6518272854	 1.6113839893	 0.094629
H	 0.0599334558	-0.3862023309	 3.4458942563	 0.095639
H	-1.4070123529	-0.4423131275	 2.4241201305	 0.099986
H	-0.5504908719	-0.5590045759	-0.8009697237	 0.086338
63.4419	135.1166	235.6043	344.2918	384.5407	437.3064	512.8507	739.5829	787.7759	821.6871	851.3472	859.2712	915.5778	932.6334	968.5392	980.0354	986.0285	993.819	1038.4756	1041.5595	1061.9429	1083.6556	1134.3876	1151.557	1158.6525	1166.3671	1194.3895	1216.3728	1242.1011	1252.8812	1306.9963	1313.2982	1362.2673	1383.7616	1478.9556	1493.739	1504.8712	1531.2803	2990.4533	3003.6876	3034.1494	3037.4488	3044.596	3093.4786	3101.6164	3170.5016	3186.7429	3200.5471
C1C2CC3(COC3)C12	C1[C@H]2CC3(COC3)[C@@H]12	
InChI=1S/C7H10O/c1-5-2-7(6(1)5)3-8-4-7/h5-6H,1-4H2	InChI=1S/C7H10O/c1-5-2-7(6(1)5)3-8-4-7/h5-6H,1-4H2/t5-,6-/m0/s1
