12
gdb 24862	2.68919	1.853	1.31178	3.3293	63.11	-0.2866	-0.1146	0.172	912.8715	0.078088	-468.821688	-468.814762	-468.813818	-468.853479	25.349	
N	-0.3017827434	 1.3519072159	 0.1394028931	-0.469806
C	 0.011074232	 0.149602124	-0.0394990593	 0.412672
O	 1.3225208905	-0.2741053874	-0.2227138018	-0.232525
C	 1.6272766441	-1.2741936136	-1.1197290213	 0.443297
O	 2.6063025684	-1.9362779893	-0.978837538	-0.290642
N	 0.7996885896	-1.364546602	-2.2596277012	-0.216049
C	-0.4436038451	-1.6162898707	-2.1497110995	-0.013425
C	-1.1618654619	-1.6862962821	-0.8516078611	-0.012611
N	-0.9406014136	-0.8796510705	 0.1074805524	-0.173417
H	 0.5068094394	 1.958277118	 0.0043061506	 0.248659
H	-1.0207088565	-1.7677952663	-3.0647360181	 0.152415
H	-1.9366894635	-2.4442293162	-0.7230935358	 0.151431
96.8935	107.8142	251.1416	337.3057	405.5284	451.2404	460.0081	578.2049	685.3756	714.3844	749.5689	829.6381	842.1688	887.4698	912.0471	926.2991	959.5158	1027.9241	1060.7466	1107.5006	1291.1535	1389.0221	1398.8432	1697.3034	1722.593	1767.4176	1879.0915	3107.3443	3123.8517	3509.436
N=C1OC(=O)N=CC=N1	[NH][C]1OC(=O)N=CC=N1	
InChI=1S/C4H3N3O2/c5-3-6-1-2-7-4(8)9-3/h1-2,5H	InChI=1S/C4H3N3O2/c5-3-6-1-2-7-4(8)9-3/h1-2,5H
