21
gdb 95255	2.6562	1.73287	1.35772	1.5741	80.65	-0.224	0.0796	0.3036	1037.4351	0.185144	-387.068071	-387.060629	-387.059685	-387.099575	30.848	
C	-0.0333178567	 1.5677582228	-0.0054146167	-0.39443
C	 0.0308682196	 0.0349951558	-0.0073526745	 0.009972
C	 0.5508617814	-0.4922895714	-1.3630494996	-0.197276
C	 0.9922610148	-1.9649890903	-1.3332558999	-0.237303
C	 1.9326767664	-2.1945618175	-0.1558257288	 0.110564
O	 2.8787589061	-1.0832045175	-0.0093231527	-0.304792
C	 2.3037630139	-0.7584989869	 1.2560629078	 0.08497
C	 1.3362642929	-1.9128497696	 1.2308039976	-0.183877
C	 0.8173538063	-0.4935777322	 1.1874927512	-0.040363
H	 0.9696743622	 1.998106548	-0.100194982	 0.121442
H	-0.6377550398	 1.9376156249	-0.8407932057	 0.108394
H	-0.4755525961	 1.9494323428	 0.9213209686	 0.105358
H	-0.994416113	-0.3437921988	 0.1238171886	 0.068917
H	-0.2232042326	-0.3454950497	-2.1245503332	 0.085034
H	 1.4135649685	 0.10837707	-1.6652747482	 0.116639
H	 0.1350630531	-2.6434035466	-1.22838595	 0.097449
H	 1.4878974589	-2.2198733632	-2.2768449381	 0.100034
H	 2.4801324688	-3.139766826	-0.2197734946	 0.078019
H	 2.9672080251	-0.3747458539	 2.0231368033	 0.099421
H	 1.0727404215	-2.6521517407	 1.9753562541	 0.090216
H	 0.4298319487	-0.1628035602	 2.1506584429	 0.081612
116.147	231.2916	261.1383	293.1045	340.3543	372.2928	439.1731	504.6948	638.8091	661.6735	716.1074	770.8548	797.6774	807.6353	876.6811	907.467	911.6838	955.5806	980.9956	989.8859	999.786	1031.141	1050.5549	1057.2978	1087.7691	1105.9876	1115.8396	1126.3117	1172.8412	1219.8154	1233.3522	1255.8383	1298.1729	1324.9067	1345.9711	1348.4527	1371.1901	1377.547	1391.4526	1409.7976	1442.3477	1475.9761	1488.6372	1498.7035	1500.4896	2979.862	3021.0797	3025.8052	3042.2726	3057.723	3067.0349	3091.7564	3093.6415	3099.2536	3117.1355	3172.3851	3197.447
CC1CCC2OC3C2C13	C[C@H]1CC[C@H]2O[C@@H]3[C@H]2[C@H]13	
InChI=1S/C8H12O/c1-4-2-3-5-7-6(4)8(7)9-5/h4-8H,2-3H2,1H3	InChI=1S/C8H12O/c1-4-2-3-5-7-6(4)8(7)9-5/h4-8H,2-3H2,1H3/t4-,5+,6-,7+,8-/m0/s1
