23
gdb 119000	2.55958	1.13371	0.9872	0.9195	81.64	-0.2469	0.0849	0.3318	1371.5996	0.204551	-425.44532	-425.4353	-425.434356	-425.480514	36.992	
C	-0.0067411044	 1.5794201643	 0.1913973255	-0.386932
C	 0.0070096389	 0.0488914602	 0.1581498526	-0.174267
C	-1.3893627564	-0.5492425795	-0.0279076605	-0.199797
C	-1.4190108607	-2.0800824256	-0.0757732621	 0.447286
C	-2.8441678161	-2.6263596869	-0.1800109747	-0.416536
O	-0.6290455897	-2.5146558396	-1.1790821205	-0.284775
C	 0.0552916704	-3.6872700689	-0.7714286151	-0.109214
C	 0.3087733822	-3.4223146688	 0.712877051	-0.091346
O	-0.8086338809	-2.6348813428	 1.0989291989	-0.302683
H	 1.0016074607	 1.9828832553	 0.3278845258	 0.1093
H	-0.4069748683	 1.9945348714	-0.7405514434	 0.11227
H	-0.6282723808	 1.9548971218	 1.0122695346	 0.111972
H	 0.6531121668	-0.2995746219	-0.6546177632	 0.103746
H	 0.4343964728	-0.3372028139	 1.0903976939	 0.105522
H	-2.0467442533	-0.2276813025	 0.7890206223	 0.099069
H	-1.837373193	-0.1783333397	-0.9580614238	 0.100711
H	-3.3515967531	-2.2066422998	-1.0529349011	 0.119317
H	-2.8273465845	-3.7154200039	-0.273301938	 0.113739
H	-3.4126152357	-2.3693650446	 0.7178061745	 0.123626
H	-0.5626869841	-4.5854284208	-0.9192204847	 0.097838
H	 0.9657994757	-3.7830609941	-1.3678062699	 0.113576
H	 0.334618355	-4.3322613681	 1.3204783869	 0.107877
H	 1.2449366584	-2.8668372216	 0.8639014812	 0.0997
73.2555	85.2395	99.5306	167.0391	216.0822	219.5438	249.2119	314.9625	333.4487	354.0614	393.067	565.7805	659.8325	667.0606	746.7674	794.8055	835.401	891.4736	897.6252	913.5556	952.8593	957.7344	1043.9735	1047.5481	1069.5784	1077.4941	1111.5466	1156.763	1170.2477	1181.5741	1229.6906	1242.8	1270.915	1274.7835	1321.2027	1327.227	1378.4927	1385.0304	1398.8659	1404.4657	1413.2595	1468.6974	1483.8896	1487.5685	1496.8597	1500.3935	1512.214	1516.2789	1525.3526	2991.4426	3004.782	3025.2577	3028.1786	3041.5167	3046.927	3061.212	3076.7212	3077.4834	3098.8219	3099.9224	3100.7894	3123.7107	3125.8881
CCCC1(C)OCCO1	CCCC1(C)OCCO1	
InChI=1S/C7H14O2/c1-3-4-7(2)8-5-6-9-7/h3-6H2,1-2H3	InChI=1S/C7H14O2/c1-3-4-7(2)8-5-6-9-7/h3-6H2,1-2H3
