19
gdb 31729	4.83899	0.88589	0.75733	0.991	80.56	-0.1603	0.074	0.2344	1508.621	0.159441	-419.218733	-419.209125	-419.208181	-419.253161	35.029	
C	 0.2131526801	 1.1537213514	 0.0813961766	-0.317034
N	-0.1994118853	-0.1309640388	 0.6133157598	-0.381822
C	-1.4198073152	-0.6442175593	 0.1546342176	 0.312905
C	-2.4009021563	 0.0216944122	-0.5426334174	-0.182934
N	-3.4609247574	-0.8689475754	-0.7143560198	-0.348434
C	-3.13845865	-2.0645652506	-0.1540458299	 0.4462
O	-4.0515052383	-3.0576546993	-0.2384448865	-0.261046
C	-3.6677057686	-4.2749662068	 0.3752419667	-0.242666
C	-1.8827102493	-1.98079601	 0.4037771796	-0.42352
H	 1.2065922952	 1.4029236718	 0.4628486262	 0.114229
H	 0.23793295	 1.190908791	-1.0214016891	 0.100951
H	-0.4800233367	 1.931149431	 0.4229998268	 0.126459
H	 0.539148915	-0.8196181471	 0.5676052155	 0.225847
H	-2.4570895691	 1.0279778713	-0.9176284334	 0.105217
H	-4.3229746855	-0.6860111924	-1.1947341492	 0.257611
H	-4.494794462	-4.9712485925	 0.2291029445	 0.132182
H	-2.7590394687	-4.6814291783	-0.0871688809	 0.12428
H	-3.4882330669	-4.136854926	 1.4491296174	 0.126376
H	-1.356052381	-2.7534890023	 0.9392030957	 0.0852
73.2957	104.9669	163.2846	183.8987	201.57	238.5355	249.4393	274.0836	403.5455	435.2036	491.8631	562.5086	581.6035	652.9249	676.3086	688.0007	723.9482	750.1821	973.9806	1000.9266	1074.828	1096.2931	1118.1929	1147.8946	1162.897	1184.6669	1200.4538	1239.3094	1282.8544	1313.5611	1402.8376	1455.9737	1469.7793	1478.6671	1483.1741	1491.8475	1508.9656	1522.2302	1528.0306	1597.3647	1647.3791	2954.7519	3007.2618	3053.057	3065.3118	3111.0485	3137.4922	3260.213	3289.859	3569.4737	3700.6996
CNC1=CNC(OC)=C1	CNc1c[nH]c(OC)c1	
InChI=1S/C6H10N2O/c1-7-5-3-6(9-2)8-4-5/h3-4,7-8H,1-2H3	InChI=1S/C6H10N2O/c1-7-5-3-6(9-2)8-4-5/h3-4,7-8H,1-2H3
