18
gdb 96902	3.1114	1.28484	1.06348	2.9536	75.74	-0.2476	0.0083	0.2559	1190.3906	0.146088	-439.055219	-439.046396	-439.045451	-439.089121	31.953	
C	-0.1668256977	 1.423947692	 0.2986211731	-0.341389
N	-0.123529338	-0.0293866783	 0.3782241338	-0.337477
C	-1.0998429579	-0.6951604291	-0.0233154198	 0.472463
O	-2.3320659566	-0.2850609334	-0.5452531781	-0.314319
C	-2.8119202964	-1.6670772269	-0.6320680689	 0.39011
C	-4.1681041338	-1.8526806746	-0.0182548501	-0.484715
C	-2.4114205818	-2.3013695919	-1.9748726533	-0.122247
O	-1.1207254061	-2.6980635123	-1.4478909435	-0.286027
C	-1.4294680981	-2.1678566404	-0.1406150653	-0.108265
H	 0.6230513315	 1.7658954758	-0.3793481897	 0.133204
H	-1.1260298956	 1.8259304175	-0.0474011987	 0.126669
H	 0.0582062332	 1.8400873007	 1.2862408133	 0.129294
H	-4.9209052686	-1.2921568219	-0.5829979588	 0.139807
H	-4.452369007	-2.9088890367	-0.0240069028	 0.13232
H	-4.1790600501	-1.4906543564	 1.0134247893	 0.137911
H	-3.0039390294	-3.177425991	-2.265131936	 0.109181
H	-2.3349270484	-1.602526468	-2.8139831041	 0.11993
H	-1.1997428591	-2.8517989653	 0.6764600096	 0.10355
68.1862	92.9289	178.4467	181.5468	209.7457	245.1888	327.082	355.8302	415.7867	494.1357	613.8666	694.0304	740.3155	817.6094	843.4673	913.3157	957.8693	972.1297	1000.4104	1010.1546	1035.0456	1084.7448	1130.6233	1146.1435	1152.8996	1181.1926	1207.7314	1234.8613	1281.615	1293.2913	1375.7941	1417.7034	1437.4822	1482.1106	1490.1129	1492.2014	1495.5948	1503.6566	1847.4713	3018.9107	3025.4445	3040.5769	3085.9689	3087.1506	3091.3817	3109.2014	3120.5817	3123.8439
CN=C1OC2(C)COC12	CN=C1O[C@@]2(C)CO[C@@H]12	
InChI=1S/C6H9NO2/c1-6-3-8-4(6)5(7-2)9-6/h4H,3H2,1-2H3	InChI=1S/C6H9NO2/c1-6-3-8-4(6)5(7-2)9-6/h4H,3H2,1-2H3/t4-,6-/m0/s1
