17
gdb 50041	3.28232	1.078	1.00082	2.2529	70.66	-0.2467	-0.0276	0.2191	1217.5577	0.135093	-458.949513	-458.941294	-458.94035	-458.983522	29.771	
O	 0.1444131775	-0.0677329912	-0.2536304461	-0.265478
C	 0.1263803314	 1.1053530181	 0.0289345151	 0.158868
C	 1.3133165991	 1.9814329339	 0.0806086798	-0.179164
C	 1.1326266331	 3.4880298114	-0.1637872185	-0.369357
C	 1.4566047997	 3.0247737113	 1.1971775932	 0.395797
C	 0.5386638334	 3.0911443054	 2.4300872694	-0.177382
O	 1.4242919179	 3.444650261	 3.4844038261	-0.235692
C	 2.6956083785	 3.0209304942	 3.0634963677	 0.009423
O	 2.7528126858	 3.2694554779	 1.6727170558	-0.265544
H	-0.8347298495	 1.6190086287	 0.2759331873	 0.062294
H	 2.2410115361	 1.5305545999	-0.2529825081	 0.121853
H	 1.9126440425	 3.9848739858	-0.7285515464	 0.144684
H	 0.1232460052	 3.8371461082	-0.361636415	 0.129397
H	-0.2300807186	 3.8646596412	 2.3525367154	 0.128272
H	 0.056539753	 2.1251167464	 2.631707153	 0.11695
H	 3.4611965547	 3.6179190115	 3.5638399158	 0.129961
H	 2.8441555003	 1.9455329062	 3.2672658255	 0.095118
35.8333	95.3366	144.1853	223.9272	262.7566	349.676	379.7126	437.9565	508.1999	543.9935	743.3535	792.4696	834.3046	858.7255	897.7011	963.2172	986.2966	1028.0372	1047.1903	1053.6405	1073.9726	1090.3608	1113.2239	1165.9258	1174.0228	1211.2898	1228.8889	1254.8542	1296.1768	1352.7338	1385.7706	1431.3507	1446.4892	1479.4724	1518.1906	1539.5812	1814.6056	2830.1418	2948.001	3011.7899	3089.4237	3110.8556	3128.8792	3189.1707	3227.2133
O=CC1CC11COCO1	O=C[C@H]1C[C@]21COCO2	
InChI=1S/C6H8O3/c7-2-5-1-6(5)3-8-4-9-6/h2,5H,1,3-4H2	InChI=1S/C6H8O3/c7-2-5-1-6(5)3-8-4-9-6/h2,5H,1,3-4H2/t5-,6-/m1/s1
