19
gdb 53374	3.67593	0.81305	0.74443	1.8096	87.97	-0.2351	0.0189	0.254	1621.8766	0.157286	-385.873065	-385.86315	-385.862206	-385.909871	34.402	
C	-0.0469476271	 1.4203661574	 0.1989920676	-0.49735
C	-0.0312471005	-0.0259698206	 0.0368620579	 0.025651
C	-0.0123597629	-1.223239381	-0.0903268315	 0.117289
C	 0.0047389627	-2.6809111636	-0.2596572653	-0.094866
O	 0.7611642225	-3.3291993829	 0.7752897326	-0.263882
C	-0.0907600741	-4.1640709749	 1.5496570207	-0.150943
C	-1.4330900183	-4.1411156529	 0.8627145331	 0.299131
C	-2.588995345	-4.9531576683	 1.3487461762	-0.492888
C	-1.3707423392	-3.30367177	-0.1671867023	-0.198909
H	 0.5001365561	 1.7196071072	 1.0998877307	 0.15163
H	 0.4207487799	 1.9239522716	-0.6542345415	 0.147599
H	-1.0698778621	 1.8018674567	 0.2916700955	 0.146504
H	 0.489240392	-2.9132543756	-1.2213687575	 0.106162
H	 0.3388266669	-5.176816321	 1.5954225016	 0.103317
H	-0.1587457616	-3.7952731461	 2.5870544979	 0.102373
H	-2.8455689366	-4.6939076705	 2.383618136	 0.132067
H	-3.4763817187	-4.799011723	 0.7300488258	 0.130154
H	-2.3509554213	-6.0241364507	 1.3443668681	 0.130613
H	-2.1686598928	-3.0469977819	-0.8517074754	 0.106347
20.3601	51.6724	88.9513	153.2815	169.312	205.2363	284.0949	325.3542	333.1897	426.7467	459.7537	528.2402	610.2299	770.7811	796.6112	858.9883	904.7549	919.1155	978.369	1000.9697	1035.0673	1051.2478	1054.9286	1090.1363	1095.2658	1150.3364	1199.6986	1215.376	1280.3217	1313.0067	1350.0976	1384.8191	1413.7921	1415.9872	1477.0627	1478.9811	1480.2158	1489.5167	1519.4181	1736.2485	2367.4057	2961.8576	2969.7692	2992.2193	3021.7254	3026.7903	3068.1799	3086.9408	3088.5938	3118.0586	3221.6941
CC#CC1OCC(C)=C1	CC#C[C@H]1OCC(=C1)C	
InChI=1S/C8H10O/c1-3-4-8-5-7(2)6-9-8/h5,8H,6H2,1-2H3	InChI=1S/C8H10O/c1-3-4-8-5-7(2)6-9-8/h5,8H,6H2,1-2H3/t8-/m1/s1
