19
gdb 77725	2.73013	1.61435	1.47358	1.2286	74.18	-0.2342	0.0508	0.285	997.9466	0.160507	-422.96966	-422.962035	-422.96109	-423.00134	30.177	
C	-0.0721862601	 1.4792381336	 0.0195839926	-0.428236
C	 0.0744153456	-0.0207744997	-0.0762417763	-0.093399
C	 0.7075772022	-0.7367751934	-1.2628553498	 0.089404
C	 1.9904322996	-0.023264597	-1.7101849577	-0.144603
O	 2.512404772	 0.0324644832	-0.3518471423	-0.319326
C	 1.380644368	-0.7256201269	 0.1005742428	 0.326809
C	 1.4613531323	-2.1620215746	 0.5560372889	-0.156761
O	 0.4614963591	-2.8302569473	-0.2254194569	-0.263206
C	 0.3531585304	-2.1836421232	-1.510593575	-0.151999
H	 0.8585825436	 1.985787957	-0.2451770179	 0.137824
H	-0.8676979256	 1.8404375416	-0.6397712729	 0.119874
H	-0.3249587622	 1.7709821863	 1.044016902	 0.12379
H	-0.7569810444	-0.5933963743	 0.3284645575	 0.109224
H	 2.6257045264	-0.6509133129	-2.3459194052	 0.111324
H	 1.8964236017	 0.9739861885	-2.153665097	 0.110868
H	 2.4743837713	-2.5423194036	 0.3536486365	 0.104938
H	 1.2128187518	-2.3496821263	 1.6044259534	 0.114843
H	-0.6667719743	-2.3723914848	-1.8582296825	 0.113684
H	 1.0556099024	-2.6237100961	-2.2359893599	 0.094949
174.7232	193.8427	226.7711	251.3047	253.845	336.8321	385.2179	481.3952	578.7501	660.4481	690.9329	741.4311	772.991	855.3273	900.6757	946.5204	969.3921	977.1982	996.185	1012.8475	1045.7417	1057.7248	1115.5747	1124.5327	1157.5787	1163.8896	1211.6839	1228.6417	1242.7504	1261.4805	1301.7338	1328.8445	1354.469	1383.6575	1414.9201	1456.5743	1492.3116	1503.4419	1506.8541	1514.053	1522.5107	2982.0683	2993.7381	3025.4284	3041.4065	3075.1131	3079.2712	3085.9608	3101.2288	3125.4463	3149.0325
CC1C23COC12COC3	C[C@H]1[C@@]23CO[C@@]12COC3	
InChI=1S/C7H10O2/c1-5-6-2-8-4-7(5,6)9-3-6/h5H,2-4H2,1H3	InChI=1S/C7H10O2/c1-5-6-2-8-4-7(5,6)9-3-6/h5H,2-4H2,1H3/t5-,6+,7-/m0/s1
