19
gdb 19062	4.10456	2.01669	1.8626	1.4361	74.55	-0.2173	0.0896	0.3069	813.3237	0.168569	-327.860603	-327.854164	-327.85322	-327.890826	26.814	
C	-0.1123851532	 1.5767043846	 0.0369817812	-0.435585
C	 0.0174388587	 0.0630148651	-0.1035207157	 0.018514
C	 0.4782873765	-0.7766629163	-1.2490614051	-0.050926
C	 1.5747410572	-0.3582702072	-2.2350414445	-0.051609
C	 2.7383716342	-1.251096393	-1.659138755	-0.198773
C	 2.5459240084	-0.2794071322	-0.4505327319	 0.010305
C	 2.3074240297	 0.8133851841	-1.5311822615	-0.243188
N	 1.2288254216	-0.7837873407	 0.049564461	-0.135124
H	-0.2065402555	 2.0923652016	-0.9219296274	 0.13256
H	-1.0144310933	 1.8003465343	 0.6137214945	 0.116372
H	 0.730838424	 2.0134646478	 0.5789815753	 0.134568
H	-0.7804479746	-0.4384307787	 0.4441080887	 0.094634
H	-0.0829536786	-1.675813712	-1.4986985441	 0.086571
H	 1.3215874983	-0.3377583991	-3.2948208322	 0.063829
H	 2.5260468346	-2.305975548	-1.4718238973	 0.102311
H	 3.687277183	-1.1253474853	-2.1854462834	 0.093155
H	 3.2800338589	-0.170435867	 0.347001159	 0.069726
H	 3.2405210966	 1.052866005	-2.0456055256	 0.09677
H	 1.7851451836	 1.733173207	-1.2951124359	 0.095889
130.5424	235.0717	285.7053	398.0062	499.9258	546.4957	647.9973	682.6738	707.1877	717.3347	826.2561	835.8666	860.414	886.7	898.9942	953.9534	977.7772	1004.8925	1034.6251	1046.5149	1068.8467	1079.5257	1100.5512	1110.2404	1120.4055	1138.1395	1165.601	1213.8324	1238.3279	1242.0281	1278.2328	1296.6239	1304.4516	1377.1829	1411.2084	1434.8898	1484.9479	1501.4348	1506.9261	1539.3987	3043.8045	3064.238	3088.3358	3089.8058	3108.0534	3114.0459	3116.4781	3120.4797	3125.133	3132.3193	3200.7304
CC1C2C3CC(C3)N12	C[C@H]1[C@H]2[C@@H]3C[C@@H](C3)N12	
InChI=1S/C7H11N/c1-4-7-5-2-6(3-5)8(4)7/h4-7H,2-3H2,1H3	InChI=1S/C7H11N/c1-4-7-5-2-6(3-5)8(4)7/h4-7H,2-3H2,1H3/t4-,5-,6+,7-,8?/m0/s1
