18
gdb 113598	3.41135	0.7152	0.62329	1.9745	97.37	-0.2348	-0.0175	0.2173	1787.8927	0.145779	-364.736212	-364.726553	-364.725609	-364.771404	35.192	
C	 0.2771031074	 1.5849045517	 0.0494604775	-0.378952
C	-0.2599844308	 0.1783134814	-0.2365264995	-0.191352
C	 0.515421718	-0.509832604	-1.3343302951	 0.018426
N	 1.7944928814	-1.1165792838	-0.9595939079	-0.315503
C	 0.6846509098	-2.0006425112	-1.404828967	-0.339676
C	 0.1142035009	-2.8939609719	-0.4410242206	 0.48893
C	-0.3936710627	-3.6683163961	 0.3398471338	-0.223686
C	-0.9613519708	-4.5334539229	 1.2218516881	 0.297085
C	-1.4671168113	-5.3026172695	 2.0039710353	-0.565785
H	 1.3277606671	 1.5398681934	 0.3520039524	 0.131375
H	 0.2082840059	 2.2274045955	-0.8357722579	 0.109625
H	-0.2879540332	 2.0655333507	 0.853367099	 0.116027
H	-0.2071354653	-0.4352254935	 0.6679047283	 0.121633
H	-1.3168727943	 0.2271886323	-0.5272613373	 0.101478
H	 0.4679886326	-0.0168364109	-2.3061208317	 0.088426
H	 2.4730953742	-1.0333196334	-1.7123098124	 0.237266
H	 0.7598777933	-2.4194562523	-2.4068604526	 0.11399
H	-1.9097487722	-5.9779925453	 2.6930864276	 0.190691
58.3595	80.828	108.0281	167.0223	218.3878	249.3278	266.5488	361.8958	426.3735	493.2984	516.3957	542.9009	566.9475	599.5036	616.3847	711.0229	768.179	820.3749	877.0086	896.4338	947.9857	1025.113	1030.8438	1092.1621	1130.3797	1157.3764	1210.1641	1233.8612	1265.5844	1306.0484	1344.656	1407.5849	1412.145	1459.727	1477.5543	1499.5753	1508.2519	2181.2063	2356.2269	3033.2021	3034.9071	3081.4287	3097.2164	3107.8245	3114.9984	3120.1487	3502.8229	3505.1863
CCC1NC1C#CC#C	CC[C@H]1N[C@H]1C#CC#C	
InChI=1S/C8H9N/c1-3-5-6-8-7(4-2)9-8/h1,7-9H,4H2,2H3	InChI=1S/C8H9N/c1-3-5-6-8-7(4-2)9-8/h1,7-9H,4H2,2H3/t7-,8+/m1/s1
