18
gdb 83082	2.36795	1.74084	1.50985	2.0196	77.56	-0.2281	-0.0081	0.22	985.7897	0.148472	-401.936609	-401.928939	-401.927994	-401.968474	30.144	
C	-0.0162933089	 1.4475003641	-0.1072191026	-0.336644
N	 0.0275573231	-0.0102894348	 0.01820022	-0.090465
C	-0.9542621149	-0.5417226918	 1.038150411	-0.117908
C	-1.16304499	-2.0396718466	 0.7692786498	-0.26436
C	 0.1855411436	-2.7094010178	 0.6254839974	-0.066853
C	 1.3017849012	-1.9842573112	 0.7047635754	-0.050392
C	 1.1532622228	-0.4908840523	 0.9075234303	-0.164124
C	 0.1629160338	-0.2902397043	 2.0762683625	 0.429366
O	 0.211406219	 0.1593507181	 3.1820897637	-0.322124
H	 0.818954563	 1.7754317719	-0.7328091681	 0.127167
H	-0.945853704	 1.7303987265	-0.610123569	 0.126477
H	 0.0358041843	 1.9915127481	 0.8516597728	 0.115804
H	-1.887257954	 0.0184238677	 1.1381499374	 0.088835
H	-1.7291220782	-2.4884640726	 1.5967032019	 0.119124
H	-1.7683266161	-2.1781690451	-0.136353874	 0.118347
H	 0.2143249989	-3.7829991976	 0.464928442	 0.099187
H	 2.2926796026	-2.4207770104	 0.6484820936	 0.102766
H	 2.0810925737	 0.0803984183	 0.8642142258	 0.085799
107.5424	204.4702	226.4612	233.4502	312.1255	386.8411	447.797	485.9013	529.3929	544.3611	652.1885	768.9154	781.3191	802.9165	869.2068	904.6104	956.6918	969.0588	981.7736	1013.5486	1050.1209	1078.0011	1116.1266	1124.6322	1149.1399	1168.5569	1200.7831	1212.2586	1265.2754	1275.2531	1323.4378	1360.7312	1392.092	1454.6446	1469.8389	1494.945	1503.0567	1698.0996	1884.326	2960.0061	3012.7903	3042.7935	3072.4677	3090.0397	3111.4736	3115.6799	3169.4135	3197.2576
CN1C2CC=CC1C2=O	CN1[C@H]2CC=C[C@@H]1C2=O	
InChI=1S/C7H9NO/c1-8-5-3-2-4-6(8)7(5)9/h2-3,5-6H,4H2,1H3	InChI=1S/C7H9NO/c1-8-5-3-2-4-6(8)7(5)9/h2-3,5-6H,4H2,1H3/t5-,6+/m1/s1
