16
gdb 11929	3.30195	1.87079	1.45692	1.912	72.84	-0.2377	0.0217	0.2594	903.257	0.128203	-346.543049	-346.535225	-346.534281	-346.574793	29.82	
C	 0.0350339013	 1.5398651821	-0.0004840281	-0.495286
C	-0.0893279485	 0.0585258808	 0.1316929219	 0.321606
C	-1.3359774033	-0.8281126529	-0.0437078031	-0.281109
C	-0.7142594806	-1.8451323639	 0.9721358398	-0.306995
C	 0.5013822574	-0.9083259427	 1.1009584895	 0.221703
O	 1.032336594	-0.751133739	-0.2331230257	-0.317334
C	 1.3677012568	-0.7274575887	 2.2138220478	 0.197932
C	 2.0681142204	-0.5936987833	 3.1828186382	-0.387125
H	 0.9979742698	 1.8753071087	 0.3927848044	 0.143356
H	-0.0303899894	 1.8387290202	-1.0529072299	 0.133445
H	-0.7669334788	 2.0469540042	 0.5449506065	 0.126675
H	-2.2513991773	-0.3656806999	 0.3330383934	 0.107857
H	-1.4990622719	-1.1863622925	-1.0626848993	 0.112075
H	-1.2887174135	-1.9267859232	 1.8967560974	 0.117133
H	-0.4762497128	-2.8415467468	 0.5945628273	 0.11521
H	 2.6965477062	-0.473753413	 4.0304389298	 0.190858
119.9054	155.7953	186.8271	228.8168	306.8331	355.0648	457.4508	530.2579	560.049	566.5808	605.0879	669.0677	685.4786	728.7321	776.8743	866.5936	911.678	939.589	995.0607	1059.7584	1080.1259	1155.8946	1187.6463	1212.5959	1217.3012	1230.0259	1298.653	1402.6422	1449.5734	1465.4684	1479.5469	1487.5568	1500.8393	2237.1613	3035.4573	3066.5141	3076.8583	3098.9889	3119.5214	3126.2986	3138.9014	3501.6865
CC12CCC1(O2)C#C	C[C@]12CC[C@]1(O2)C#C	
InChI=1S/C7H8O/c1-3-7-5-4-6(7,2)8-7/h1H,4-5H2,2H3	InChI=1S/C7H8O/c1-3-7-5-4-6(7,2)8-7/h1H,4-5H2,2H3/t6-,7+/m0/s1
