15
gdb 19776	3.10552	2.72782	1.78793	4.1487	63.92	-0.2484	-0.0133	0.2351	744.1494	0.120927	-362.646329	-362.640304	-362.63936	-362.676303	24.132	
O	-0.0280707867	 0.0026556953	 0.0946540026	-0.314398
C	-0.0496658957	 1.2008220196	 0.0338189493	 0.374657
C	-1.2782160549	 2.083083496	-0.0365416284	-0.135734
C	-1.551812621	 2.9081647381	 1.2085008433	-0.301827
C	-0.7865545768	 3.5101870583	 0.0677647402	-0.049494
C	 0.7315077765	 3.4218916902	 0.0573257131	-0.029642
C	 1.5045134635	 2.7921527176	 1.1608305593	-0.263217
N	 1.1386348311	 2.0144455078	-0.0458451801	-0.124889
H	-2.1114349085	 1.7521891826	-0.6437170142	 0.115316
H	-2.5781668954	 3.2343383549	 1.3362912837	 0.128955
H	-1.0558542204	 2.6632370899	 2.1400442404	 0.128541
H	-1.2371709399	 4.311293442	-0.5042394918	 0.10159
H	 1.2458670122	 4.1047480734	-0.6129901321	 0.104595
H	 2.5678069138	 2.9928761652	 1.2590513076	 0.132577
H	 1.0098584422	 2.549904989	 2.095327677	 0.132969
154.9612	219.2662	341.4076	453.2279	472.6011	614.834	678.1629	684.8588	758.6496	800.7342	831.9947	857.223	865.2383	960.531	965.8907	999.7205	1036.3457	1055.9779	1063.3653	1086.0571	1103.0398	1115.3527	1154.0209	1159.796	1197.2789	1286.5267	1318.0172	1361.8469	1391.0272	1488.7448	1520.7729	1852.496	3120.931	3142.132	3147.0601	3190.1352	3196.6295	3208.7386	3225.2546
O=C1C2CC2C2CN12	O=C1[C@H]2C[C@H]2[C@H]2CN12	
InChI=1S/C6H7NO/c8-6-4-1-3(4)5-2-7(5)6/h3-5H,1-2H2	InChI=1S/C6H7NO/c8-6-4-1-3(4)5-2-7(5)6/h3-5H,1-2H2/t3-,4+,5-,7?/m1/s1
