17
gdb 18711	3.37821	2.28418	1.57939	2.2604	68.35	-0.2321	0.0212	0.2534	831.412	0.143857	-363.866486	-363.859519	-363.858575	-363.89755	26.992	
C	 0.1143745785	 1.5358437424	-0.0590059803	-0.391593
C	-0.0113119468	 0.0242498787	 0.0613325054	 0.112891
O	 0.427266758	-0.5263764659	-1.2038556332	-0.247798
C	 0.867745771	-1.808326027	-1.2300369346	 0.115814
N	 1.2903819676	-2.5244075151	-0.2763847913	-0.25822
C	 1.3525163577	-1.9271043991	 1.0231720363	 0.007848
C	 2.2366115788	-0.7085526325	 1.216972896	-0.301192
C	 0.7373329966	-0.567297037	 1.2372229639	-0.055043
H	 1.1639142041	 1.82562095	-0.1612084786	 0.127926
H	-0.435331671	 1.8984251455	-0.9318190712	 0.126991
H	-0.2925390722	 2.0180984867	 0.8351124571	 0.11828
H	-1.071500003	-0.2477712684	 0.1668018584	 0.09016
H	 0.8471183215	-2.1916770712	-2.2482692166	 0.122205
H	 1.320409028	-2.652092809	 1.8289756667	 0.095735
H	 2.7733263159	-0.6066319726	 2.1536263164	 0.11635
H	 2.7784165934	-0.3600409929	 0.3438915851	 0.128308
H	 0.2664401918	-0.3658716225	 2.1953908006	 0.091338
92.6807	205.8257	234.3312	314.982	336.5866	437.055	546.1967	580.4543	629.1506	736.6558	806.4355	829.0208	870.024	878.7905	940.694	964.8341	998.7797	1019.0822	1053.7242	1086.7765	1117.3852	1128.9933	1135.8053	1173.9353	1180.2335	1218.833	1355.7649	1364.7253	1383.8897	1404.5438	1408.1385	1415.746	1481.0867	1485.9222	1494.434	1720.3124	2998.3554	3043.7972	3118.8796	3124.9664	3132.9395	3146.0576	3159.9651	3166.6451	3222.3781
CC1OC=NC2CC12	C[C@H]1OC=N[C@H]2C[C@@H]12	
InChI=1S/C6H9NO/c1-4-5-2-6(5)7-3-8-4/h3-6H,2H2,1H3	InChI=1S/C6H9NO/c1-4-5-2-6(5)7-3-8-4/h3-6H,2H2,1H3/t4-,5+,6+/m1/s1
