20
gdb 70685	2.21381	1.8989	1.23832	3.0327	80.28	-0.2515	0.0225	0.274	1072.3404	0.172701	-403.161567	-403.153291	-403.152347	-403.194328	32.365	
C	 0.0631287265	 1.5356292505	 0.024151164	-0.457111
C	 0.0580072082	 0.0211896873	-0.0040571362	 0.268773
C	-0.8640529982	-0.7076203946	 0.9640257239	-0.305174
C	 0.6213750343	-0.7563737253	 1.1787989372	-0.082691
C	 1.3701276688	-2.0596572628	 0.9186228868	-0.239014
C	 1.7860266403	-2.1490364014	-0.5435114368	-0.086154
O	 0.6899562745	-1.8645440746	-1.4265907092	-0.257433
C	 0.1788840157	-0.5923250888	-1.3603812242	 0.321013
N	-0.2309909747	 0.0086954978	-2.3974936388	-0.520625
H	 1.0072471977	 1.9348701118	-0.360316368	 0.118666
H	-0.7406935475	 1.9321913446	-0.6000696577	 0.146551
H	-0.0710587191	 1.9003376342	 1.0473603158	 0.103138
H	-1.4720566047	-0.0900222343	 1.6159957737	 0.115675
H	-1.3484143865	-1.6144475385	 0.6167998777	 0.122786
H	 1.0097384885	-0.1408092094	 1.983989675	 0.090074
H	 2.2670338104	-2.1178239786	 1.5442612098	 0.107237
H	 0.7453171663	-2.9216571684	 1.1775788072	 0.112763
H	 2.6047058934	-1.4477794067	-0.755303863	 0.107643
H	 2.1207768257	-3.153472031	-0.8134268405	 0.116508
H	-0.0685529797	-0.5766535019	-3.2194488666	 0.217374
63.5248	175.8806	213.9136	227.1754	297.166	313.084	400.6953	425.5987	478.8575	515.8887	605.3014	688.0303	727.9972	784.2836	858.2211	874.3056	900.6854	921.0171	955.873	964.9798	981.7592	1033.0962	1065.6816	1092.0693	1113.1968	1129.4236	1131.55	1144.6761	1231.3157	1258.1859	1279.2978	1291.4077	1364.3919	1367.6608	1409.2568	1416.6614	1429.6183	1477.6846	1483.2764	1491.046	1502.0016	1509.9156	1739.3622	3014.0533	3038.3228	3038.6709	3080.2078	3102.7203	3103.1562	3127.257	3129.4792	3155.042	3218.5343	3464.5719
CC12CC1CCOC2=N	C[C@]12C[C@H]1CCO[C]2[NH]	
InChI=1S/C7H11NO/c1-7-4-5(7)2-3-9-6(7)8/h5,8H,2-4H2,1H3	InChI=1S/C7H11NO/c1-7-4-5(7)2-3-9-6(7)8/h5,8H,2-4H2,1H3/t5-,7+/m1/s1
