25
gdb 118183	3.83551	0.62127	0.58785	2.4159	90.37	-0.2415	-0.008	0.2335	2040.9386	0.225187	-389.530722	-389.518835	-389.51789	-389.569225	41.806	
C	 0.1622431707	 1.594934008	 0.0814977849	-0.378507
C	-0.0830038577	 0.0868146246	-0.0249018158	-0.176023
C	 0.652765934	-0.5506826905	-1.2099501149	-0.171399
C	 0.5295581196	-2.0823912613	-1.3067708469	 0.042969
C	-0.9169167405	-2.5458278018	-1.5361495831	-0.399275
C	 1.451500787	-2.6215013167	-2.4098797132	-0.312795
C	 1.708784496	-4.1240878083	-2.3576876897	 0.382145
C	 2.3896620896	-4.7259244099	-3.5756164562	-0.472224
O	 1.4055902214	-4.8009177401	-1.401225932	-0.296873
H	 1.2282656641	 1.8157171263	 0.2073286439	 0.112139
H	-0.1768462237	 2.1158569319	-0.8210631323	 0.112335
H	-0.3701405467	 2.0276321101	 0.9343150481	 0.110791
H	 0.2383257115	-0.4036960799	 0.9036192372	 0.096132
H	-1.1603369469	-0.0967242554	-0.1089561022	 0.099862
H	 0.2943747275	-0.0964522086	-2.1458813679	 0.086029
H	 1.7176383481	-0.2873367673	-1.1381571628	 0.084416
H	 0.8753298934	-2.518031763	-0.360931209	 0.091377
H	-0.9683983216	-3.6352161388	-1.604356979	 0.1303
H	-1.5740624882	-2.2378998224	-0.7184241242	 0.116127
H	-1.3205036521	-2.1221038451	-2.4647187302	 0.101998
H	 1.0706584121	-2.3605966407	-3.4075819011	 0.108024
H	 2.4408416781	-2.1422830502	-2.3512346634	 0.116903
H	 3.268456576	-4.1403272792	-3.8660474095	 0.133034
H	 2.677233757	-5.7577879604	-3.370279428	 0.14128
H	 1.7002420912	-4.7065906215	-4.4281437428	 0.141234
41.2972	54.8332	67.815	113.4946	117.1972	125.3763	215.4999	235.7822	253.5833	289.5913	317.8055	360.8907	438.0813	480.0661	486.8552	605.2636	742.463	807.9532	820.3094	842.6787	879.1442	911.8531	949.5108	970.5352	985.4031	1024.3122	1049.5462	1082.044	1138.5001	1147.5131	1170.5725	1195.7173	1240.849	1266.1968	1288.4759	1328.7969	1333.8146	1372.3449	1379.3282	1389.3893	1393.9578	1407.9342	1412.852	1445.2046	1464.1784	1477.0411	1480.6313	1493.1327	1497.8438	1499.6143	1508.4865	1512.635	1808.5963	2991.9707	3000.5055	3019.0673	3019.7623	3026.6602	3027.6475	3029.107	3035.5771	3044.5715	3060.8559	3094.5388	3096.4125	3100.1426	3101.5049	3123.9509	3150.7975
CCCC(C)CC(C)=O	CCC[C@@H](C)CC(=O)C	
InChI=1S/C8H16O/c1-4-5-7(2)6-8(3)9/h7H,4-6H2,1-3H3	InChI=1S/C8H16O/c1-4-5-7(2)6-8(3)9/h7H,4-6H2,1-3H3/t7-/m1/s1
