18
gdb 51349	5.58373	0.91084	0.89635	3.0274	77.27	-0.2292	-0.0221	0.2071	1320.5573	0.14662	-401.848479	-401.840791	-401.839847	-401.881608	29.144	
O	-0.3014618127	-0.0505328754	 0.3742127907	-0.240203
C	-0.1225352981	 1.0722153556	-0.020088643	 0.157708
C	 1.2204070758	 1.782086089	-0.0166436858	-0.242537
N	 1.2915326603	 2.735219697	-1.1178389654	-0.137414
C	 1.8211293924	 2.2100926642	-2.419706977	-0.009361
C	 2.3445427727	 3.619157328	-2.8314292428	-0.052508
C	 3.7346015783	 3.0751447799	-3.2143849028	-0.274681
C	 3.3382030395	 2.2182688561	-1.9958287474	-0.069322
C	 2.6028129114	 3.4279306023	-1.3059495331	 0.001037
H	-0.9522780981	 1.6993440455	-0.417009429	 0.086016
H	 1.2679158619	 2.3501729815	 0.9253384633	 0.127463
H	 2.0210133223	 1.0266778701	 0.0176468349	 0.109137
H	 1.290672066	 1.4807520012	-3.0342418424	 0.089449
H	 1.7463862668	 4.411861622	-3.2788756468	 0.085645
H	 3.8101452975	 2.5565157859	-4.1743995604	 0.101181
H	 4.5810616546	 3.754928972	-3.0806761867	 0.100204
H	 3.9016526574	 1.4182829026	-1.5165443083	 0.084665
H	 3.0025988321	 4.1496768925	-0.5909766877	 0.083521
52.5659	85.5815	149.8227	259.3574	330.8519	432.6735	445.2288	607.7021	710.5605	733.4031	785.005	824.5009	833.4846	858.3907	882.1501	908.9706	932.4082	963.5858	1022.3552	1032.8096	1058.4066	1076.5508	1097.6917	1118.1587	1132.5371	1154.4596	1157.2858	1175.0547	1180.8609	1191.7543	1244.3566	1255.3475	1295.9814	1320.6675	1336.8363	1405.9434	1455.5787	1514.897	1837.64	2887.5976	2980.103	3023.2501	3049.2942	3096.7686	3101.6023	3105.0975	3121.4426	3131.9681
O=CCN1C2C3CC2C13	O=CCN1[C@H]2[C@@H]3C[C@H]2[C@H]13	
InChI=1S/C7H9NO/c9-2-1-8-6-4-3-5(6)7(4)8/h2,4-7H,1,3H2	InChI=1S/C7H9NO/c9-2-1-8-6-4-3-5(6)7(4)8/h2,4-7H,1,3H2/t4-,5+,6-,7+
