17
gdb 39913	4.12346	1.49138	1.36681	1.1448	81.4	-0.2144	-0.0447	0.1698	963.3439	0.137316	-380.711733	-380.705094	-380.70415	-380.742479	27.572	
C	-0.1272384143	 1.4608693586	 0.0927547654	-0.295021
N	 1.2195325643	 0.8793422553	 0.0082427648	-0.356162
C	 0.0475019978	-0.0162627996	 0.0410793759	 0.346465
C	-0.361635682	-0.9347330683	 1.152167247	-0.197815
C	-0.5999686429	-2.1552030734	 0.6135055327	 0.009778
C	-2.0179344823	-2.3798926286	 0.0864083586	-0.16754
N	-1.4674203753	-1.8939648765	-1.2642832839	-0.161181
C	-0.0934850776	-2.2544446736	-0.8300679717	-0.082493
C	-0.30486561	-0.8495501931	-1.1857130165	-0.104512
H	-0.356274231	 1.9446470649	 1.0386563805	 0.125216
H	-0.5548717506	 1.9454031763	-0.7821874535	 0.117842
H	 1.5814388134	 0.9485757524	-0.9411831908	 0.232737
H	-0.9634070765	-0.545756572	 1.9692365906	 0.10048
H	-2.3395608335	-3.4106931345	-0.0871538493	 0.121806
H	-2.8232598437	-1.7893345371	 0.5313696837	 0.114173
H	 0.5069862632	-3.021159506	-1.3061539448	 0.099337
H	-0.1329143589	-0.4593153051	-2.1856836786	 0.09689
122.7539	261.1415	303.8191	353.2156	456.5025	490.1868	563.1948	616.1662	715.0494	744.2868	767.3102	805.6479	843.6611	866.0816	889.2881	909.9426	953.5058	959.4105	981.0702	1010.4743	1018.0738	1044.4667	1062.7614	1072.2824	1122.2236	1129.2162	1179.3923	1237.6954	1249.7092	1254.1969	1287.1053	1291.7689	1323.9939	1397.2	1504.7287	1508.944	1558.3391	3049.722	3100.5877	3114.4644	3151.2778	3158.0665	3175.2874	3187.6956	3482.9866
C1NC11C=C2CN3C2C13	C1N[C@]21[CH][C]1CN3[C@H]1[C@H]23	
InChI=1S/C7H8N2/c1-4-2-9-5(4)6(9)7(1)3-8-7/h1,5-6,8H,2-3H2	InChI=1S/C7H8N2/c1-4-2-9-5(4)6(9)7(1)3-8-7/h1,5-6,8H,2-3H2/t5-,6-,7+,9?/m1/s1
