20
gdb 120080	5.40957	0.83381	0.82315	2.3741	79.69	-0.23	0.078	0.308	1451.6201	0.171277	-403.039646	-403.031408	-403.030464	-403.0731	31.468	
O	 0.2352829564	 1.4071407935	 0.1294743142	-0.420124
C	 0.0905283736	-0.000161254	 0.0081943762	-0.05716
C	-1.3598571946	-0.4649532607	 0.176389966	-0.245327
C	-1.4918998115	-1.9755390299	 0.1062958169	 0.053581
C	-2.8381460897	-2.6593620945	-0.1270534676	-0.090417
C	-2.7415896374	-2.3472290269	-1.6522948728	-0.006219
C	-2.9390788617	-3.8037473101	-2.079745405	-0.257843
C	-2.0888517017	-3.8440574079	-0.8087977007	 0.002566
N	-1.2542959685	-2.6166978548	-1.2681711117	-0.173923
H	-0.2126232812	 1.812883256	-0.619354011	 0.279632
H	 0.488679602	-0.3687576759	-0.9482180403	 0.110432
H	 0.7120196052	-0.429176646	 0.8022583965	 0.108592
H	-1.7357596243	-0.1085453299	 1.1436398672	 0.106635
H	-1.9827084969	 0.0065813779	-0.5955523486	 0.08364
H	-0.8578034944	-2.4504631097	 0.8680318112	 0.068146
H	-3.7380661803	-2.6999721854	 0.4972578247	 0.063606
H	-3.028078292	-1.4335012823	-2.1740174706	 0.082018
H	-3.9526491657	-4.2065224554	-2.0113229159	 0.099837
H	-2.440577025	-4.1070879099	-3.0040605738	 0.109688
H	-1.5959966821	-4.684393084	-0.3161165349	 0.082639
69.1846	89.6905	124.9161	254.6585	290.9574	330.6324	354.5456	455.4315	581.3795	707.3375	727.315	806.714	819.574	852.1198	863.2296	887.4403	903.4607	938.8993	1019.6623	1022.0599	1026.7066	1032.6429	1066.6596	1073.7422	1101.9299	1124.8747	1143.2448	1151.4577	1159.9202	1185.2848	1208.1412	1229.8009	1243.4555	1271.8997	1301.2195	1312.2105	1320.462	1389.5498	1418.8063	1428.3237	1482.7616	1490.3975	1514.6825	3003.2232	3008.1902	3019.8845	3037.0806	3052.953	3057.5788	3076.5237	3098.3067	3109.1947	3123.7406	3817.8939
OCCC1C2C3CC2N13	OCC[C@H]1[C@H]2[C@@H]3C[C@H]2N13	
InChI=1S/C7H11NO/c9-2-1-4-7-5-3-6(7)8(4)5/h4-7,9H,1-3H2	InChI=1S/C7H11NO/c9-2-1-4-7-5-3-6(7)8(4)5/h4-7,9H,1-3H2/t4-,5-,6+,7-/m0/s1
