13
gdb 29116	3.08803	1.5154	1.01866	3.6805	65.58	-0.2207	-0.0503	0.1704	1061.447	0.088534	-489.882473	-489.874612	-489.873667	-489.915653	28.652	
O	 0.0905733163	 1.3726163575	 0.0684358413	-0.410634
C	-0.0310955756	 0.0353068558	 0.0053734806	 0.345447
C	-1.162741783	-0.6104830171	-0.2443134025	-0.133042
O	-1.1898217452	-1.9843824069	-0.3989280209	-0.224695
C	-0.060881918	-2.7250876454	-0.2035599006	 0.33883
N	-0.0505599648	-3.9791966031	-0.3463042575	-0.464708
C	 1.1974154132	-1.9999986301	 0.1934981403	 0.32245
N	 2.2517198178	-2.6177669461	 0.4915364233	-0.449593
O	 1.1587247474	-0.6163741083	 0.193541913	-0.255695
H	 0.835319243	 1.5834928494	 0.645634947	 0.311432
H	-2.1211117954	-0.1368509028	-0.3740940808	 0.150871
H	-0.9801634178	-4.3068334084	-0.6168044311	 0.234535
H	 2.998477132	-1.9605436644	 0.7243964479	 0.234802
48.0566	91.6823	185.8263	318.7123	344.725	375.6408	423.5112	469.4932	505.4989	577.9744	599.996	682.9899	745.0548	768.0719	806.6141	876.9734	928.2517	965.8507	1003.0785	1101.1185	1160.7337	1233.668	1248.9701	1311.9232	1362.0885	1385.0169	1734.9763	1756.329	1821.5082	3280.1185	3475.1813	3479.7384	3792.3915
OC1=COC(=N)C(=N)O1	OC1=COC(=C([NH])O1)[NH]	
InChI=1S/C4H4N2O3/c5-3-4(6)9-2(7)1-8-3/h1,5-7H	InChI=1S/C4H4N2O3/c5-3-4(6)9-2(7)1-8-3/h1,5-7H
