19
gdb 106686	2.78134	1.25587	1.08088	2.1336	72.68	-0.2261	0.0629	0.289	1193.4327	0.156993	-460.109145	-460.099844	-460.098899	-460.143133	34.888	
C	 0.153171193	 1.3065544525	 0.2023834116	-0.257364
O	-0.2528404954	-0.0070617071	-0.1516182074	-0.284461
C	 0.453794637	-0.5493291346	-1.1965789855	 0.33913
C	 1.8912304929	-1.0251792158	-1.0603997748	-0.399867
C	 0.8491072007	-2.0098887042	-1.4889470042	 0.322405
O	 0.6692448233	-3.2047184396	-0.8374950645	-0.451308
C	 0.4682438957	-1.8260703016	-2.9582706807	 0.077739
O	-0.6478577632	-2.6349435073	-3.3046453057	-0.446574
C	 0.1363446998	-0.3239225701	-2.6858082612	-0.346108
H	 1.2145754905	 1.3340907696	 0.4836018352	 0.115477
H	-0.0108306861	 2.0177162135	-0.6194051912	 0.111508
H	-0.455015187	 1.6074953166	 1.0581465208	 0.129698
H	 2.686460945	-0.6902389949	-1.7266214606	 0.099496
H	 2.1934312248	-1.1702988269	-0.0266511163	 0.127569
H	-0.0478050378	-3.650939392	-1.3095742702	 0.287011
H	 1.2410459941	-2.0434366036	-3.7025084982	 0.088241
H	-1.4305519718	-2.2608500818	-2.8836524388	 0.285707
H	-0.9219911794	-0.1146182522	-2.8719939281	 0.101581
H	 0.7416518339	 0.4170085496	-3.2191109203	 0.100119
78.6654	109.4363	151.4087	183.7017	224.5031	284.1369	304.9996	376.529	416.7521	450.9289	473.6521	526.9159	582.9098	621.1727	731.49	783.5133	845.7738	882.9267	932.402	974.6596	1003.6664	1027.5842	1066.2714	1089.5214	1120.1109	1142.8866	1178.2777	1194.1642	1207.9963	1233.5419	1242.6133	1287.6342	1333.4675	1360.1513	1417.9122	1428.8603	1475.8584	1482.971	1487.7366	1504.3748	1523.6069	2994.3453	3036.1035	3050.4063	3062.4574	3079.6744	3091.2324	3123.2292	3188.3269	3747.1672	3793.2274
COC12CC1(O)C(O)C2	CO[C@@]12C[C@]1(O)[C@@H](O)C2	
InChI=1S/C6H10O3/c1-9-5-2-4(7)6(5,8)3-5/h4,7-8H,2-3H2,1H3	InChI=1S/C6H10O3/c1-9-5-2-4(7)6(5,8)3-5/h4,7-8H,2-3H2,1H3/t4-,5-,6-/m0/s1
