19
gdb 8221	5.28844	1.01943	0.99465	3.4405	74.23	-0.2409	0.0357	0.2767	1261.7317	0.165282	-365.093279	-365.084393	-365.083449	-365.129199	31.344	
C	 0.2716085408	 1.474527715	-0.1056049539	-0.484387
C	 0.1855361031	-0.0432233177	-0.0341377569	 0.405614
O	 1.1670748093	-0.7501009666	-0.1741031138	-0.372609
N	-1.0673616644	-0.5441463347	 0.1979350312	-0.330024
C	-1.35220032	-1.9514261891	 0.3006330235	 0.086223
C	-2.1026494385	-2.489277431	 1.5503807039	-0.237811
C	-2.837686577	-3.4859447701	 0.6128643375	-0.209818
C	-2.4669592712	-2.5714076584	-0.586614441	-0.237815
H	 0.6900402016	 1.7563138683	-1.0753843483	 0.152405
H	-0.6881599457	 1.9806256202	 0.0287129826	 0.107298
H	 0.9675907925	 1.8225957243	 0.6622872293	 0.152352
H	-1.832686718	 0.102142725	 0.3035893773	 0.236515
H	-0.3998236437	-2.4639695407	 0.1579844455	 0.125972
H	-1.5030231698	-2.8850912617	 2.3731757637	 0.10608
H	-2.7915379527	-1.7364145959	 1.9493189155	 0.091683
H	-2.3220900387	-4.4485639898	 0.561964218	 0.110441
H	-3.8972952048	-3.6682281637	 0.8005095089	 0.100113
H	-3.2585572814	-1.841701924	-0.7901416005	 0.091686
H	-2.1683492814	-3.0350803195	-1.5295096025	 0.106083
13.3526	46.5319	95.1136	119.2957	227.7268	337.2845	380.1061	449.7681	469.7764	571.2555	633.9404	670.8709	786.6088	788.8395	906.4971	925.4902	942.2881	945.9859	977.682	1011.8905	1038.0908	1052.9365	1130.818	1185.255	1196.7122	1232.3421	1249.3284	1260.2048	1264.8161	1281.2539	1299.3472	1372.526	1396.6529	1470.2477	1475.9844	1485.9911	1487.4274	1509.2509	1536.9859	1780.3173	3041.9831	3046.3929	3048.157	3066.5822	3099.3183	3106.2899	3117.4224	3126.2378	3127.5906	3128.288	3635.1539
CC(=O)NC1CCC1	CC(=O)NC1CCC1	
InChI=1S/C6H11NO/c1-5(8)7-6-3-2-4-6/h6H,2-4H2,1H3,(H,7,8)	InChI=1S/C6H11NO/c1-5(8)7-6-3-2-4-6/h6H,2-4H2,1H3,(H,7,8)
