20
gdb 121898	3.84132	0.67463	0.60589	3.4774	73.39	-0.2521	0.0179	0.2699	1837.0098	0.168348	-477.444825	-477.433888	-477.432944	-477.482124	37.803	
C	 0.0021599421	 1.3777465482	 0.092884507	-0.228255
O	-0.0797661299	-0.0220443302	-0.0207970001	-0.234486
C	 0.6687628062	-0.5268653521	-1.1058873026	-0.050801
C	 0.56149815	-2.046088639	-1.0919199992	-0.21376
C	 1.3184186047	-2.6803085822	-2.271365499	 0.026627
O	 2.6702716866	-2.3042463463	-2.2643054803	-0.437156
C	 1.2490041607	-4.2168751193	-2.2236053939	 0.385409
N	 0.0292930489	-4.7823786771	-2.3823866733	-0.517882
O	 2.2693666508	-4.8642774224	-2.0509386329	-0.376554
H	 1.0392950899	 1.7160461233	 0.2454375623	 0.105918
H	-0.3933374533	 1.8859998982	-0.801536289	 0.10092
H	-0.5965188673	 1.6725855962	 0.9583795393	 0.12472
H	 0.282213577	-0.1245870213	-2.060097095	 0.077546
H	 1.7242015563	-0.2271170168	-1.0312496767	 0.114146
H	 0.9739824829	-2.4279113524	-0.1515454809	 0.118587
H	-0.4989935725	-2.3243004213	-1.1208468087	 0.090195
H	 0.8520439013	-2.3464789301	-3.2140541777	 0.083241
H	 3.1537267348	-3.1383650342	-2.1274685715	 0.293835
H	-0.8002659824	-4.2343190518	-2.5259843483	 0.267967
H	-0.0506279169	-5.7850957594	-2.3406611696	 0.269783
46.4412	64.541	86.0679	109.868	133.6124	189.8989	221.3609	232.6923	303.6447	332.4591	419.9935	447.7217	488.0911	512.2355	570.1157	651.8689	729.5021	803.4433	862.879	954.0269	995.0272	1074.3889	1091.8225	1112.6465	1155.3549	1165.482	1184.5956	1221.9379	1236.3766	1254.4495	1303.8923	1317.4397	1356.3085	1380.6075	1422.1125	1465.9928	1479.1376	1481.4424	1484.9931	1505.8083	1534.1402	1620.8523	1784.7367	2939.7604	2959.8884	2968.1669	3010.4102	3016.0923	3035.2648	3086.0015	3111.5219	3606.6849	3631.6085	3740.9482
COCCC(O)C(N)=O	COCC[C@@H](O)C(=O)N	
InChI=1S/C5H11NO3/c1-9-3-2-4(7)5(6)8/h4,7H,2-3H2,1H3,(H2,6,8)	InChI=1S/C5H11NO3/c1-9-3-2-4(7)5(6)8/h4,7H,2-3H2,1H3,(H2,6,8)/t4-/m1/s1
