19
gdb 31536	3.20136	1.13209	0.85587	0.8154	82.69	-0.1591	0.0528	0.2119	1368.2936	0.159074	-419.23012	-419.220232	-419.219287	-419.265069	35.674	
C	 0.0383177478	 1.443940072	-0.1352416164	-0.328221
N	 0.3715322683	 0.0444760234	 0.1127310181	-0.388985
C	 0.714073663	-0.7551742574	-0.9633731917	 0.427776
C	 0.5557424278	-2.086761427	-1.2128363316	-0.371379
C	 1.2312507133	-2.3305079318	-2.4621047602	 0.152653
N	 1.2471951831	-3.5703871786	-3.1260740101	-0.611345
C	 1.7403450081	-1.1400866059	-2.8838798598	 0.284809
C	 2.4926699397	-0.6930777065	-4.081390994	-0.499125
O	 1.411472431	-0.1572400481	-1.9512361736	-0.223077
H	 0.8896679423	 1.9407398328	-0.6039911232	 0.150555
H	-0.838140696	 1.5802528981	-0.78704096	 0.113309
H	-0.1561399723	 1.9309439295	 0.823216111	 0.121466
H	-0.2885594778	-0.4211259155	 0.7186826206	 0.24036
H	 0.0205756281	-2.8033322103	-0.6099838063	 0.085166
H	 1.4186347581	-4.3386445054	-2.4883801283	 0.239721
H	 1.9389247138	-3.6047060034	-3.8646202599	 0.23539
H	 2.8153898559	-1.5605016979	-4.66588806	 0.116413
H	 1.8963070797	-0.0563402752	-4.7493839874	 0.126456
H	 3.3922686661	-0.1265253225	-3.8102238173	 0.128057
56.8974	111.4324	134.1961	180.9927	184.232	220.8313	245.2045	267.4432	339.1279	385.4424	510.3447	558.0511	637.268	641.236	679.4298	696.56	711.0038	783.7979	813.6533	955.3136	1008.8289	1054.5439	1063.5198	1078.3263	1144.4919	1158.237	1201.738	1215.5768	1271.151	1376.7487	1416.7876	1436.9185	1454.2949	1465.5436	1489.8565	1495.0316	1501.9029	1516.9958	1645.9686	1656.9806	1706.9203	2987.1049	3003.1899	3047.6518	3094.1652	3096.8903	3138.1008	3251.4963	3522.4346	3600.2494	3611.1264
CNC1=CC(N)=C(C)O1	CNc1cc(N)c(C)o1	
InChI=1S/C6H10N2O/c1-4-5(7)3-6(8-2)9-4/h3,8H,7H2,1-2H3	InChI=1S/C6H10N2O/c1-4-5(7)3-6(8-2)9-4/h3,8H,7H2,1-2H3
