17
gdb 66796	3.46158	2.01122	2.0044	0.3462	73.19	-0.197	0.029	0.2261	800.8738	0.13813	-380.726366	-380.720423	-380.719479	-380.756302	25.187	
C	-0.0807553613	 1.5241869739	 0.0253044895	-0.525442
C	 0.0549621743	 0.0342639553	 0.0137737904	 0.379366
C	 0.6912782717	-0.8723693159	-1.075935937	-0.073384
C	-0.6010067701	-1.7202246175	-1.0743892454	-0.014602
C	 0.0484959816	-2.6308139826	-0.0055833468	-0.014489
C	-0.5898820538	-1.7359225477	 1.0830027756	-0.014599
C	 0.7024098715	-0.8880845466	 1.0835589355	-0.0734
N	 1.3248911762	-1.7743417189	-0.0059351912	-0.190103
N	-1.2240553863	-0.8331538982	 0.0140588079	-0.226474
H	 0.9024064807	 2.0079772343	 0.022124798	 0.122752
H	-0.6374547088	 1.8670493073	-0.8537003096	 0.128088
H	-0.6255337157	 1.8545442818	 0.9164854268	 0.128052
H	 1.2930810562	-0.5645532354	-1.9321829017	 0.073163
H	-1.2107011058	-2.017325881	-1.9278755505	 0.0758
H	 0.1411388799	-3.7169599522	-0.0139624408	 0.076308
H	-1.1907628979	-2.0454588819	 1.9383184341	 0.0758
H	 1.3130315476	-0.5927178948	 1.9379447252	 0.073165
213.1612	242.6415	259.008	561.3171	632.9519	643.6172	676.0129	792.4791	824.2618	837.7247	851.4363	860.4182	865.4127	869.5005	896.7026	897.4791	940.2173	962.0324	967.8746	977.8345	1049.2483	1125.8206	1140.9532	1160.1846	1167.4999	1173.1785	1186.1039	1203.3731	1219.7232	1235.9195	1251.0722	1254.8681	1256.4872	1347.2364	1410.9439	1478.7947	1483.6453	3025.4232	3089.8186	3090.5739	3097.4525	3097.6655	3097.8852	3101.4841	3114.8204
CC12C3C4C5C(C1N35)N24	C[C@@]12[C@@H]3[C@H]4[C@@H]5[C@@H]([C@H]1N35)N24	
InChI=1S/C7H8N2/c1-7-5-3-2-4(9(3)7)6(7)8(2)5/h2-6H,1H3	InChI=1S/C7H8N2/c1-7-5-3-2-4(9(3)7)6(7)8(2)5/h2-6H,1H3/t2-,3-,4+,5+,6-,7-
