22
gdb 61637	2.80274	0.9249	0.74853	2.0249	83.63	-0.2257	-0.0191	0.2066	1567.7357	0.191331	-404.330976	-404.320539	-404.319595	-404.367317	37.35	
C	 0.1742048164	 1.6947116203	-0.0171327231	-0.406519
C	-0.056156232	 0.1739045356	 0.0408943648	-0.077455
C	 0.5949617006	-0.5979342134	-1.1110492587	-0.140201
N	-0.0232617905	-0.2294934899	-2.3812464508	-0.094232
C	 0.7230529557	 0.6332400267	-3.2958142735	-0.254617
C	 0.4995671538	-0.8017277849	-3.6257096708	 0.030146
C	 1.6436624346	-1.7918316052	-3.6585515478	-0.412066
C	 0.3815259541	-0.3595856774	 1.3890978358	 0.153221
O	 1.1279944524	-1.2897236343	 1.5631311129	-0.250378
H	 1.2440237312	 1.9312705023	-0.0182241577	 0.122022
H	-0.270345075	 2.1102224625	-0.9237287663	 0.142524
H	-0.2802915418	 2.1974942288	 0.8431370317	 0.118056
H	-1.1438071731	 0.0072187149	-0.0075985078	 0.108754
H	 1.6830145597	-0.4276418857	-1.08649293	 0.092927
H	 0.4429523481	-1.6687476392	-0.9434088671	 0.116668
H	 0.156523834	 1.4206736276	-3.7869357769	 0.110728
H	 1.7353518411	 0.9173016571	-3.0077102509	 0.105241
H	-0.2941081359	-1.0308609603	-4.3364291674	 0.088778
H	 2.4653200858	-1.5020104365	-2.9994287799	 0.123837
H	 1.3092369356	-2.7926032669	-3.3632224767	 0.125901
H	 2.0422927896	-1.8653139536	-4.6758741955	 0.121896
H	-0.0531223246	 0.1915550615	 2.2568683359	 0.074766
42.3739	74.9053	111.2157	112.3718	188.3285	230.5818	235.4533	256.982	306.0381	389.074	397.8295	438.8428	511.5426	644.7866	758.7325	814.4426	828.3962	900.1976	917.247	919.2935	941.0688	952.0871	1035.4987	1056.437	1099.1161	1114.8787	1141.0061	1149.1133	1158.0685	1189.9079	1192.3668	1281.8815	1296.6931	1329.1493	1336.4019	1391.9664	1399.5701	1407.8643	1420.5553	1430.5849	1481.1272	1491.9321	1496.7837	1499.5541	1505.4793	1513.1746	1825.6181	2850.0402	2974.0775	2997.7869	3034.4114	3035.9767	3078.3436	3082.0965	3093.8253	3097.5401	3099.1005	3126.7555	3129.8979	3168.1785
CC(CN1CC1C)C=O	C[C@@H](CN1C[C@H]1C)C=O	
InChI=1S/C7H13NO/c1-6(5-9)3-8-4-7(8)2/h5-7H,3-4H2,1-2H3	InChI=1S/C7H13NO/c1-6(5-9)3-8-4-7(8)2/h5-7H,3-4H2,1-2H3/t6-,7+,8?/m0/s1
