18
gdb 57285	2.26714	1.43666	1.26849	3.3523	71.17	-0.2627	0.0133	0.276	1101.4807	0.145773	-439.075956	-439.066503	-439.065558	-439.110377	34.077	
C	-0.0413340822	 1.5278077317	-0.0320008066	-0.407142
C	 0.00137509	-0.0007896429	 0.0071607528	 0.175159
O	 0.6169270774	-0.3741708334	 1.2318650507	-0.441332
C	-1.3752024683	-0.5502951371	-0.0552001034	 0.262843
N	-2.4268164523	-1.0291533741	-0.0827038651	-0.350305
C	 0.8293760174	-0.5429928015	-1.176953422	 0.136197
C	 0.7699904398	-2.0545454401	-1.4922790473	-0.330315
C	 0.1816526556	-1.5973113947	-2.8436167414	-0.060487
O	 0.2497443396	-0.2048563646	-2.4470855562	-0.290247
H	 0.9763621583	 1.9090828095	 0.0864844507	 0.133489
H	-0.4452297537	 1.8639355143	-0.9886363022	 0.157872
H	-0.6587518127	 1.9123780198	 0.782036956	 0.142118
H	 0.5831367299	-1.334420576	 1.3143316928	 0.295148
H	 1.8414213665	-0.1332477434	-1.06180154	 0.092046
H	 1.7359279559	-2.5573939896	-1.5407162024	 0.120377
H	 0.0861883693	-2.6365149855	-0.8705691504	 0.124343
H	 0.8058468247	-1.795253863	-3.7217298844	 0.11133
H	-0.8477610253	-1.9069489093	-3.0475407518	 0.128906
71.026	86.8534	151.3604	187.1838	188.7954	229.6575	316.2427	328.0807	329.7887	426.9905	439.9703	600.4423	637.4917	665.38	792.3347	826.048	890.6105	942.9471	951.9034	995.8614	1038.0558	1043.7638	1059.9972	1118.2973	1166.6189	1172.0934	1214.8197	1236.564	1261.611	1277.0281	1335.159	1358.4149	1385.5651	1405.4023	1485.0186	1487.2134	1491.1767	1525.2142	2349.8021	3021.6976	3038.3775	3057.7901	3079.2134	3088.8742	3137.2833	3140.029	3153.4676	3799.5112
CC(O)(C#N)C1CCO1	C[C@@](O)(C#N)[C@H]1CCO1	
InChI=1S/C6H9NO2/c1-6(8,4-7)5-2-3-9-5/h5,8H,2-3H2,1H3	InChI=1S/C6H9NO2/c1-6(8,4-7)5-2-3-9-5/h5,8H,2-3H2,1H3/t5-,6-/m1/s1
