22
gdb 116556	3.88278	0.81823	0.80219	2.5585	87.13	-0.2421	0.0349	0.2771	1605.0749	0.191783	-404.36788	-404.357599	-404.356655	-404.403907	37.66	
C	-0.574826207	 1.3151767343	 0.0311863968	-0.358272
C	 0.1383939306	-0.0237545118	 0.224726751	-0.147987
N	 0.7260816482	-0.4708308435	-1.0358728398	-0.338194
C	 1.9263851903	-0.8231063493	-1.060964623	 0.456888
C	 2.8681072332	-1.3158399356	-2.1339187722	-0.435615
C	 3.9099637098	-1.3665737877	-0.9840550527	 0.418143
C	 4.3754694318	-2.7515578821	-0.5694735776	-0.43023
C	 5.0387078341	-0.3535376673	-1.0673494705	-0.429847
O	 2.8679488406	-0.8845965538	-0.0470491219	-0.300678
H	 0.1369492967	 2.0979869707	-0.249368395	 0.11427
H	-1.3220075473	 1.2397027875	-0.7640551978	 0.122807
H	-1.0759933015	 1.6237657328	 0.954339176	 0.105387
H	 0.8810264457	 0.0545142479	 1.0297658069	 0.106418
H	-0.5952457006	-0.7792295948	 0.5356189781	 0.104057
H	 2.6006220225	-2.2795658038	-2.5717998363	 0.128853
H	 3.073478446	-0.5989801742	-2.931311475	 0.128626
H	 5.0778469176	-3.1546761809	-1.3065340112	 0.122043
H	 4.8820830466	-2.7122551545	 0.3997835791	 0.128947
H	 3.5283557668	-3.4379416765	-0.4865732635	 0.126761
H	 4.655197301	 0.6353964465	-1.333050455	 0.126602
H	 5.5556877356	-0.2747898516	-0.1060111562	 0.128933
H	 5.7690381194	-0.6571043123	-1.8246999302	 0.122087
28.4065	70.4296	133.2152	164.103	207.3975	244.0912	263.281	316.231	330.2495	380.0803	388.1432	443.3805	517.7879	581.0416	641.7925	779.029	817.6627	858.2453	901.1524	903.8287	950.6128	963.1114	993.6879	1016.4159	1062.9739	1087.9621	1097.0782	1115.7936	1168.106	1206.821	1257.2168	1286.7089	1288.4599	1303.5292	1382.0449	1405.8444	1406.0899	1418.043	1467.601	1474.929	1483.0602	1488.3787	1492.7687	1494.9587	1505.3974	1510.1161	1838.4289	3006.6846	3034.959	3036.2946	3040.1512	3041.6275	3078.3907	3105.9814	3106.6711	3112.3302	3116.2663	3116.6472	3119.2787	3131.8772
CCN=C1CC(C)(C)O1	CCN=C1CC(C)(C)O1	
InChI=1S/C7H13NO/c1-4-8-6-5-7(2,3)9-6/h4-5H2,1-3H3	InChI=1S/C7H13NO/c1-4-8-6-5-7(2,3)9-6/h4-5H2,1-3H3
