15
gdb 45078	2.4692	1.768	1.17852	4.089	69.73	-0.2634	0.0003	0.2637	1016.6742	0.112202	-420.613472	-420.605933	-420.604989	-420.645762	28.865	
O	-0.0441952167	 0.0414474612	-0.3966594505	-0.316953
C	-0.0140579705	 1.1742256241	-0.030581901	 0.429961
O	-1.1257343119	 1.8512194036	 0.3742001354	-0.214697
C	-0.8031272779	 3.157456626	 0.8139387471	 0.088897
C	 0.0278892699	 3.2542906874	 2.0571090659	-0.318218
C	 0.6771755871	 3.3810586569	 0.6935146039	-0.066812
C	 1.2282871488	 2.1098719981	 0.0639188838	-0.359085
C	 2.3353214548	 1.4765496903	 0.7640976973	 0.354756
C	 3.2476308483	 0.9672321636	 1.3559340821	-0.454161
H	-1.564193484	 3.8794901768	 0.549401626	 0.121813
H	-0.0558691999	 4.159698402	 2.6474228817	 0.12939
H	 0.1942809598	 2.3474562698	 2.6294944724	 0.143101
H	 1.0868366681	 4.3331896422	 0.383062893	 0.113369
H	 1.5278436759	 2.3132126881	-0.9728936671	 0.144135
H	 4.0544348584	 0.50749157	 1.87123151	 0.204502
77.3825	134.5375	169.5279	307.9846	397.0252	429.558	487.8908	523.0266	622.6073	639.5306	646.5196	691.4019	707.518	802.0215	820.1238	851.5207	957.9238	971.9275	1024.82	1033.1247	1061.9218	1090.9851	1095.2899	1136.2168	1165.4787	1202.5512	1239.7785	1310.1439	1347.319	1388.9806	1477.7487	1896.9376	2245.3879	3025.4197	3136.2686	3195.5995	3205.7555	3228.9647	3504.2803
O=C1OC2CC2C1C#C	O=C1O[C@H]2C[C@H]2[C@H]1C#C	
InChI=1S/C7H6O2/c1-2-4-5-3-6(5)9-7(4)8/h1,4-6H,3H2	InChI=1S/C7H6O2/c1-2-4-5-3-6(5)9-7(4)8/h1,4-6H,3H2/t4-,5+,6+/m1/s1
