18
gdb 8280	7.0464	0.90909	0.8902	4.1556	70.28	-0.2754	0.011	0.2864	1316.3349	0.152637	-384.957823	-384.949396	-384.948451	-384.99179	29.987	
C	-0.2908446691	 1.4193809506	-0.032527641	-0.392287
C	 0.0155675133	-0.0751515462	 0.0049733802	 0.020847
C	 1.2895153144	-0.4992581924	-0.7913662005	-0.262442
C	 2.0653480934	-0.5309787608	 0.542377879	 0.155656
C	 0.7252603889	-0.5623177966	 1.3072450866	-0.262455
O	 2.9146727402	-1.6589482843	 0.7366729472	-0.186888
C	 4.1965569965	-1.453684043	 1.0897884272	 0.161437
O	 4.9705454551	-2.3446550079	 1.271498004	-0.276709
H	 0.5890744732	 2.0213830367	 0.2228369807	 0.112938
H	-0.6227066089	 1.7277500605	-1.029748757	 0.119563
H	-1.0832583409	 1.6762683866	 0.6786395774	 0.119566
H	-0.8836432039	-0.6393057985	-0.253730332	 0.079431
H	 1.2028441564	-1.5083613575	-1.2013211849	 0.121784
H	 1.6532587477	 0.1748086386	-1.5712456321	 0.102378
H	 2.6343836242	 0.3877075016	 0.7229521007	 0.087694
H	 0.6390836965	 0.0614376954	 2.2007847488	 0.102366
H	 0.4600011445	-1.5913697994	 1.561330049	 0.121771
H	 4.4461109083	-0.3784941133	 1.1907029366	 0.075351
38.3184	68.9111	145.6535	238.3357	246.9222	291.3757	330.5045	404.7579	446.7578	559.7378	756.2131	811.3756	816.8778	888.0884	916.0549	955.4001	962.0322	1035.5356	1044.3572	1060.667	1111.1101	1135.4924	1161.4269	1203.5303	1215.2746	1253.8097	1265.6926	1279.7271	1287.3861	1366.9119	1388.3395	1414.4751	1441.8474	1467.9155	1493.0997	1496.7287	1499.8841	1865.5959	2936.7635	3025.4488	3041.87	3060.9984	3061.894	3070.8832	3094.6593	3097.2175	3120.4887	3123.7106
CC1CC(C1)OC=O	C[C@H]1C[C@@H](C1)OC=O	
InChI=1S/C6H10O2/c1-5-2-6(3-5)8-4-7/h4-6H,2-3H2,1H3	InChI=1S/C6H10O2/c1-5-2-6(3-5)8-4-7/h4-6H,2-3H2,1H3/t5-,6-
