19
gdb 31772	2.94622	1.29045	0.97193	2.8719	78.74	-0.1899	0.0457	0.2356	1241.9068	0.159204	-419.249591	-419.23992	-419.238976	-419.284655	34.445	
C	 0.0671263046	 1.4888145838	 0.1566878404	-0.375656
C	-0.0456995976	-0.0301666406	-0.0683148356	-0.292544
C	 0.6621411889	-0.5175432415	-1.2915723456	 0.326692
N	 0.0835495042	-0.8150086566	-2.4307735948	-0.302845
C	 1.0919300908	-1.1850702998	-3.2990020704	-0.233213
C	 2.2939706025	-1.1060052094	-2.653122536	 0.321163
O	 3.5862299767	-1.3476983901	-2.993794912	-0.443129
N	 2.0345400358	-0.6840102516	-1.3708975282	-0.089722
C	 3.0389365447	-0.4631645922	-0.3494071377	-0.343556
H	 1.1061229343	 1.8017058184	 0.3041758217	 0.111721
H	-0.3259636411	 2.0324404951	-0.7070690846	 0.133669
H	-0.5006480183	 1.79286661	 1.0417469509	 0.11332
H	 0.3124888212	-0.5611357806	 0.8235810584	 0.099441
H	-1.0962658847	-0.3044280047	-0.1956035246	 0.132358
H	 0.8937474667	-1.4870746073	-4.3159585282	 0.094321
H	 3.5999166356	-1.7105022947	-3.8845849441	 0.310595
H	 3.4126353479	 0.5667237388	-0.3629253352	 0.140083
H	 2.6154083342	-0.6701750719	 0.6350741767	 0.141889
H	 3.8792037736	-1.1378377352	-0.5216261011	 0.155411
57.0665	71.4253	110.4017	181.1495	208.9949	227.6307	285.649	293.8428	318.9103	416.4643	505.6401	594.5368	666.6736	714.0551	728.3908	749.262	760.7762	793.4506	955.902	989.1534	1059.9347	1080.4043	1131.7188	1151.8055	1178.8738	1205.7894	1270.4189	1289.8595	1309.5509	1348.601	1402.8792	1415.5197	1449.0689	1475.2354	1488.8517	1498.1892	1503.1472	1512.616	1534.6496	1564.0572	1620.3086	3020.1707	3035.8562	3038.9286	3090.487	3107.8997	3111.4256	3118.7483	3147.3458	3243.5679	3847.3084
CCC1=NC=C(O)N1C	CCc1ncc(O)n1C	
InChI=1S/C6H10N2O/c1-3-5-7-4-6(9)8(5)2/h4,9H,3H2,1-2H3	InChI=1S/C6H10N2O/c1-3-5-7-4-6(9)8(5)2/h4,9H,3H2,1-2H3
