18
gdb 34583	3.41523	1.1492	0.89108	5.0589	91.83	-0.2343	-0.0661	0.1682	1276.6026	0.150196	-364.852486	-364.844432	-364.843488	-364.885635	30.438	
N	 0.0474647767	-1.1902385662	-0.0271229201	-0.343841
C	-0.0284327333	-0.0328971819	-0.0175415927	 0.218989
C	-0.075974077	 1.3943458725	-0.0124573188	 0.112822
C	-1.2869106024	 1.9899338223	 0.0741703164	-0.117451
C	-1.6216384673	 3.403502233	 0.0591537754	-0.069465
C	-0.8313519937	 4.489130072	 0.1223640037	-0.058329
C	 0.6554831224	 4.5864809625	 0.2880709851	-0.256123
C	 1.390532165	 3.3401973084	 0.7878094814	-0.2137
C	 1.2601604817	 2.1011221435	-0.1128028072	-0.297758
H	-2.1449892841	 1.3254989284	 0.128946224	 0.112402
H	-2.6890160332	 3.591532855	-0.02942358	 0.096074
H	-1.3341749095	 5.4523605304	 0.0544226023	 0.101488
H	 1.0894118247	 4.917041924	-0.66826185	 0.121578
H	 0.8608864941	 5.4132941907	 0.982026116	 0.116153
H	 2.4532572044	 3.589475428	 0.8784454544	 0.106424
H	 1.0429087177	 3.0878269532	 1.7956734128	 0.116397
H	 2.0464994398	 1.3854946772	 0.1438695397	 0.127508
H	 1.440936584	 2.3816173369	-1.1595708425	 0.126833
46.8153	151.2007	164.6236	249.771	326.9868	346.4087	383.638	499.9198	533.3223	578.6336	599.0746	691.6608	733.7501	806.0862	855.1453	881.8494	930.3901	959.8184	964.6946	1018.5947	1046.868	1073.8576	1104.9638	1151.3493	1179.3339	1264.895	1285.0059	1294.1802	1361.6659	1376.0952	1396.0942	1409.2839	1452.5727	1459.8265	1476.8258	1490.3164	1653.5675	1697.2446	2320.4278	2993.9187	3019.1954	3024.5492	3043.5015	3082.0297	3084.5968	3135.4066	3156.1223	3172.3155
N#CC1=CC=CCCC1	N#CC1=CC=CCCC1	
InChI=1S/C8H9N/c9-7-8-5-3-1-2-4-6-8/h1,3,5H,2,4,6H2	InChI=1S/C8H9N/c9-7-8-5-3-1-2-4-6-8/h1,3,5H,2,4,6H2
