19
gdb 41723	3.33808	1.72436	1.706	2.571	72.51	-0.2452	0.0846	0.3298	895.6001	0.164086	-423.047716	-423.041528	-423.040584	-423.077959	26.478	
C	-0.0312257365	 1.5842279573	-0.0091584839	-0.217742
C	 1.4844864118	 1.9547381185	-0.0008020779	-0.235454
C	 2.1848049488	 0.5947520433	-0.1843706954	-0.062491
C	 2.0370095699	-0.3282055802	 1.0399579906	 0.21424
O	 2.3840530857	-1.609165068	 0.5661684566	-0.260034
C	 1.7057105623	-1.7155449129	-0.7027254002	-0.099078
C	 1.1748002758	-0.2979913018	-0.9553495008	-0.085302
C	 0.038157008	 0.0560146818	 0.0310385926	 0.105645
O	 0.6347392543	-0.2890742905	 1.3108109318	-0.295366
H	-0.5729347344	 1.9725384545	 0.8557522561	 0.109607
H	-0.5337131536	 1.9391503919	-0.9154838121	 0.093619
H	 1.7407582848	 2.6359847428	-0.8166302018	 0.101642
H	 1.7861270267	 2.4405971673	 0.9315360468	 0.107768
H	 3.2039082813	 0.6284553609	-0.56966805	 0.075257
H	 2.5952584242	-0.1221544512	 1.9525359272	 0.088289
H	 2.4227791249	-2.0396037556	-1.4654600895	 0.10345
H	 0.9046452941	-2.462105869	-0.6366669197	 0.105136
H	 0.9755157273	-0.0490533569	-1.9979107393	 0.076623
H	-0.9050994452	-0.4824320722	-0.0774533513	 0.074191
221.4079	241.9513	338.2645	354.1555	520.5552	535.1191	646.6725	743.336	774.169	799.4057	842.7597	887.6888	897.7625	907.9311	934.3356	944.2565	958.5601	961.246	983.4823	1004.3922	1036.8765	1039.1252	1087.6938	1101.5511	1141.8078	1171.5609	1206.38	1225.0283	1250.3303	1270.0814	1273.3498	1293.0464	1299.7204	1316.8044	1328.5411	1353.0961	1359.902	1395.8217	1479.8634	1503.8256	1521.1186	3022.1523	3047.1423	3059.4871	3061.4258	3092.7914	3101.2491	3114.0609	3115.1165	3121.0267	3138.1715
C1CC2C3OCC2C1O3	C1C[C@H]2[C@@H]3OC[C@H]2[C@H]1O3	
InChI=1S/C7H10O2/c1-2-6-5-3-8-7(9-6)4(1)5/h4-7H,1-3H2	InChI=1S/C7H10O2/c1-2-6-5-3-8-7(9-6)4(1)5/h4-7H,1-3H2/t4-,5-,6+,7-/m1/s1
