16
gdb 49131	3.53711	1.13685	0.87997	1.6845	79.16	-0.2657	-0.0878	0.1779	1245.8654	0.125379	-437.923433	-437.915615	-437.914671	-437.956142	28.95	
N	-0.090807416	 1.2681846859	 0.2386818065	-0.511092
C	-0.0127139823	 0.0283452906	-0.0369684016	 0.393166
O	 1.1804470752	-0.601927827	-0.2183753492	-0.259523
C	 1.1637118225	-1.8745004761	-0.8899768552	-0.098554
C	 0.1408092453	-2.8294608874	-0.2887437458	-0.317583
C	-1.1848800495	-2.1279386092	-0.1865409221	 0.179051
C	-2.432871925	-2.91443619	-0.1827038459	 0.098248
O	-2.4686209493	-4.1201113201	-0.2769442206	-0.264716
C	-1.2300017627	-0.7884029468	-0.0984101495	-0.187207
H	 0.8452664321	 1.6794867111	 0.2629688941	 0.227979
H	 0.946335904	-1.7090599169	-1.953322592	 0.117723
H	 2.1823189017	-2.2562980863	-0.8014227157	 0.127836
H	 0.043877802	-3.7277286786	-0.9059694208	 0.141477
H	 0.4630997137	-3.1675996984	 0.7043697568	 0.137023
H	-3.3610008327	-2.310035489	-0.0883084217	 0.08313
H	-2.1638742791	-0.2424572819	-0.0189750674	 0.13304
96.4962	120.6207	191.8757	241.3177	261.2885	380.8618	428.424	441.4309	518.3359	611.5633	690.3048	727.5626	803.9125	852.778	905.5501	930.8931	934.1148	1006.13	1033.2766	1054.5403	1087.8798	1142.7536	1168.6491	1226.1788	1277.3067	1300.3	1356.5018	1397.0236	1420.3446	1434.4548	1467.5488	1508.9356	1679.4194	1715.046	1787.4389	2899.4129	3023.1518	3036.6541	3093.969	3117.2168	3199.9546	3463.8
N=C1OCCC(C=O)=C1	[NH]C1=C[C](CCO1)C=O	
InChI=1S/C6H7NO2/c7-6-3-5(4-8)1-2-9-6/h3-4,7H,1-2H2	InChI=1S/C6H7NO2/c7-6-3-5(4-8)1-2-9-6/h3-4,7H,1-2H2
