17
gdb 105598	2.10873	1.45795	1.19903	2.7164	70.55	-0.2567	-0.0631	0.1936	1126.1575	0.132187	-458.968082	-458.958714	-458.95777	-459.002779	32.827	
C	 0.0993627637	 1.4011621001	 0.2718602343	-0.399221
C	-0.162977607	-0.0154056766	-0.2490875377	-0.218659
C	 0.7855072624	-0.4109721704	-1.3809099005	 0.178697
O	 2.1940455826	-0.3483015318	-1.0383475695	-0.322232
C	 2.4208270335	-1.762463338	-1.2051398358	-0.190802
C	 0.9500849053	-1.9468661434	-1.5832554946	 0.303416
O	 0.2309366987	-2.8484416585	-1.8701762867	-0.257487
C	 0.5157610907	 0.3409367149	-2.6772029971	 0.123926
O	-0.5835089005	 0.6349596394	-3.0650850596	-0.239261
H	 1.1324657342	 1.5016756655	 0.6153710475	 0.136564
H	-0.0793894067	 2.1495365971	-0.5059459929	 0.132707
H	-0.564329287	 1.6258646975	 1.1113039553	 0.122312
H	-0.0661399861	-0.7404135624	 0.5662721589	 0.10492
H	-1.1784503234	-0.1037748445	-0.6481777316	 0.141459
H	 3.133699969	-1.9908546012	-2.0077969749	 0.141613
H	 2.7390113948	-2.2616243451	-0.2818981106	 0.143258
H	 1.4413217659	 0.5813757174	-3.2443950046	 0.098791
77.5441	95.4973	101.0473	146.7876	205.0467	215.5308	267.1721	304.6588	388.5068	490.2552	525.5473	553.1908	709.4696	725.8245	798.6854	876.5641	926.2221	972.0905	1010.9343	1024.4746	1027.1254	1055.9442	1127.9766	1139.6024	1172.1546	1192.9294	1293.1959	1311.4332	1357.9121	1391.7839	1409.1198	1470.5081	1480.7882	1498.6319	1507.3269	1817.8481	1930.0283	2901.2458	3021.6257	3045.2408	3047.4136	3071.0829	3093.4343	3117.4811	3126.3211
CCC1(OCC1=O)C=O	CC[C@]1(OCC1=O)C=O	
InChI=1S/C6H8O3/c1-2-6(4-7)5(8)3-9-6/h4H,2-3H2,1H3	InChI=1S/C6H8O3/c1-2-6(4-7)5(8)3-9-6/h4H,2-3H2,1H3/t6-/m0/s1
