18
gdb 18394	3.22475	2.21017	1.51129	2.1064	71.59	-0.2505	0.0051	0.2556	861.916	0.156164	-347.7926	-347.785803	-347.784859	-347.82324	27.184	
C	 0.0371979743	 1.5256613299	-0.1150449023	-0.196455
C	 1.439241339	 2.1502041327	 0.1138012511	-0.252027
C	 2.2403040447	 1.5102649441	 1.2285420997	-0.046277
C	 2.7348055564	 0.2734468903	 1.1538083134	-0.092087
C	 2.5261801992	-0.5841414971	-0.0477872872	 0.017368
O	 1.7602106996	-1.7901023563	 0.1108579515	-0.2631
C	 1.1823205299	-0.7121692673	-0.6370155352	 0.055478
C	 0.0022148901	-0.0111141005	 0.009127811	-0.224764
H	-0.677780977	 1.9398994357	 0.6046573832	 0.103583
H	-0.3135892497	 1.8384028522	-1.1054439203	 0.099393
H	 2.0095018209	 2.0690557649	-0.8185355481	 0.113935
H	 1.3233884132	 3.22177661	 0.3022129544	 0.099313
H	 2.4148403145	 2.0983620345	 2.1265613908	 0.092323
H	 3.3196036949	-0.1463869872	 1.9687942359	 0.096037
H	 3.3938201342	-0.7182085355	-0.6980857839	 0.092869
H	 1.1135446389	-0.9059505789	-1.7085420398	 0.085097
H	 0.0134003229	-0.2920318149	 1.0650912623	 0.121516
H	-0.9359553861	-0.3937151166	-0.4082582364	 0.097797
167.3122	193.837	280.6984	318.347	341.8007	445.1604	531.4699	580.8776	683.8451	739.8243	808.5015	832.9064	846.6486	853.8993	922.7097	958.8435	995.9469	1011.6196	1014.6644	1069.4543	1092.2834	1106.4564	1142.2308	1203.0962	1218.8736	1239.4802	1286.985	1295.5344	1324.4394	1353.5187	1372.7558	1390.2108	1416.7385	1467.3873	1484.4258	1494.3951	1502.7522	1707.4336	3029.8633	3036.1973	3049.0622	3064.9246	3072.926	3082.9782	3093.0848	3109.5719	3144.6163	3167.4074
C1CC=CC2OC2C1	C1CC=C[C@H]2O[C@H]2C1	
InChI=1S/C7H10O/c1-2-4-6-7(8-6)5-3-1/h2,4,6-7H,1,3,5H2	InChI=1S/C7H10O/c1-2-4-6-7(8-6)5-3-1/h2,4,6-7H,1,3,5H2/t6-,7+/m1/s1
