19
gdb 33068	4.86192	0.74413	0.67884	1.5826	79.59	-0.21	0.0244	0.2344	1662.0134	0.158558	-423.058978	-423.049493	-423.048549	-423.094215	33.832	
C	 0.0571744956	 1.4873129012	-0.0467765776	-0.488321
C	-0.0788205714	 0.0079097947	 0.004384732	 0.380285
C	-1.1258203527	-0.8443587232	-0.159926655	-0.382724
C	-0.6180029509	-2.1807590943	 0.0197806729	 0.254625
C	-1.3779765178	-3.4681911177	-0.0791372238	-0.306612
C	-1.7895920688	-3.8024015036	-1.5144479664	-0.060317
O	-2.5230488006	-5.0165331567	-1.4799790943	-0.418395
C	 0.7069097485	-2.0225204493	 0.2779648086	-0.123915
O	 1.0529462202	-0.7045256008	 0.2737151293	-0.180943
H	 0.7667870433	 1.8000906236	-0.8213455417	 0.137115
H	-0.9113942498	 1.9412672335	-0.2674828069	 0.134162
H	 0.4160361537	 1.8917840419	 0.9065788164	 0.1379
H	-2.1455133975	-0.5618470012	-0.3752758165	 0.102307
H	-0.7748638653	-4.2961748883	 0.308028386	 0.109547
H	-2.2871044897	-3.4282569832	 0.5327395942	 0.11425
H	-2.3939415431	-2.9793674447	-1.928018361	 0.087289
H	-0.8880056057	-3.8907716069	-2.1406207793	 0.089289
H	-2.7751558934	-5.2416936531	-2.380033688	 0.28577
H	 1.5047201553	-2.7169352319	 0.4861378512	 0.128687
54.3825	88.588	95.2154	126.093	219.7453	255.3729	266.6948	342.2924	375.4337	396.847	619.2325	638.2505	671.5573	739.4528	770.1446	799.7213	816.1661	942.6729	992.5329	1008.5236	1020.2994	1058.3344	1064.6661	1078.7581	1162.5366	1171.3746	1211.3828	1237.7121	1249.5127	1292.4509	1309.826	1344.5603	1406.406	1415.6077	1455.1915	1472.662	1488.4776	1490.9966	1526.0961	1589.7576	1660.4106	2969.868	2998.6894	3030.0095	3036.1158	3079.8438	3082.8912	3129.0967	3244.1109	3270.2393	3832.129
CC1=CC(CCO)=CO1	Cc1cc(CCO)co1	
InChI=1S/C7H10O2/c1-6-4-7(2-3-8)5-9-6/h4-5,8H,2-3H2,1H3	InChI=1S/C7H10O2/c1-6-4-7(2-3-8)5-9-6/h4-5,8H,2-3H2,1H3
