17
gdb 114915	3.08101	1.3039	0.95399	0.6442	71.92	-0.2296	-0.063	0.1665	1207.1357	0.1359	-455.165769	-455.156827	-455.155883	-455.19984	32.438	
C	-0.0701438854	 1.4223522038	-0.0740093663	-0.247382
O	 0.1531326704	 0.0282027768	 0.069732891	-0.240282
C	 0.6470026875	-0.5997757635	-1.0868628653	-0.002473
C	 1.1509624228	-2.0234387581	-0.7766665021	-0.201975
N	 0.5985959908	-2.9433748302	-1.7820502236	-0.28679
C	-0.2533871471	-2.3181936114	-2.5111421676	 0.298428
N	-0.9730141575	-2.8252187694	-3.5456027334	-0.568054
C	-0.4235338792	-0.8691070542	-2.1553035842	 0.325352
O	-1.2555244785	-0.1206570479	-2.6101045278	-0.326692
H	 0.8587967284	 1.9432073057	-0.3541998003	 0.104793
H	-0.836923796	 1.6384751512	-0.8251099717	 0.14146
H	-0.4007041016	 1.7874408663	 0.900991783	 0.128387
H	 1.4439571584	 0.0057727703	-1.5523868496	 0.094562
H	 2.2429822586	-2.094776369	-0.7767407675	 0.113415
H	 0.8072713458	-2.3124179694	 0.2228616206	 0.132636
H	-1.0580933725	-3.8255989975	-3.6235035335	 0.264924
H	-1.7555334348	-2.2674314135	-3.8506417918	 0.269692
43.4544	119.1807	179.6161	212.82	249.2496	277.0046	296.6884	379.433	401.558	454.6274	500.3517	580.7436	607.8908	695.2429	721.3671	838.9715	919.6689	974.4836	1028.517	1067.543	1077.4693	1156.9292	1170.6198	1182.8935	1201.6428	1242.9817	1263.9068	1317.9921	1373.9209	1422.5524	1476.3375	1483.826	1494.98	1516.3442	1609.2963	1719.7093	1825.2611	2954.633	2986.2824	3045.2595	3076.4534	3081.631	3126.644	3587.6362	3709.5477
COC1CN=C(N)C1=O	CO[C@H]1CN=C(N)C1=O	
InChI=1S/C5H8N2O2/c1-9-3-2-7-5(6)4(3)8/h3H,2H2,1H3,(H2,6,7)	InChI=1S/C5H8N2O2/c1-9-3-2-7-5(6)4(3)8/h3H,2H2,1H3,(H2,6,7)/t3-/m0/s1
