21
gdb 60363	3.64658	0.72157	0.69722	5.2491	80.43	-0.2329	0.0316	0.2646	1695.7543	0.180518	-420.409219	-420.398389	-420.397445	-420.445942	38.797	
C	-0.0953615363	 1.463913674	-0.1504734835	-0.403813
C	-0.3480008467	-0.0411999927	-0.1640452878	 0.125908
O	 0.8067748162	-0.7769535337	 0.2430995955	-0.428845
C	-1.5537900113	-0.4371826435	 0.7093362456	-0.163506
N	-1.7538251922	-1.8752026342	 0.8472612247	-0.288757
C	-2.7434235136	-2.5037541924	-0.018884926	-0.102174
C	-2.4192324665	-2.5848814709	-1.5284360286	-0.391591
C	-3.0106041102	-3.8611068636	 0.4953572499	 0.277176
N	-3.2105558632	-4.9355831518	 0.8697862881	-0.321195
H	 0.7846556198	 1.7082253117	-0.7509765785	 0.13117
H	-0.9532646618	 2.0127364396	-0.5527585638	 0.121123
H	 0.0768877667	 1.8212797689	 0.8726558725	 0.112629
H	-0.5215176908	-0.3709327296	-1.1941965657	 0.09172
H	 1.0808036476	-0.4420284332	 1.1052882598	 0.281806
H	-1.3944433187	-0.0058046198	 1.7106442112	 0.094576
H	-2.4679427083	 0.0257575915	 0.3192327834	 0.10261
H	-0.8564448391	-2.3461971877	 0.7854846896	 0.23324
H	-3.6784229457	-1.9403637375	 0.1010521233	 0.130598
H	-1.474774315	-3.1120706904	-1.6901389603	 0.138014
H	-3.2087737321	-3.1173593691	-2.0672361409	 0.135682
H	-2.3369250489	-1.5796871957	-1.9495243087	 0.123629
37.2506	66.4094	79.5261	168.6646	215.9047	235.9827	239.6984	256.1019	306.5445	342.0913	364.007	428.7408	447.1021	500.8374	565.9973	587.3164	719.907	805.0642	857.4303	896.1719	926.1638	933.5808	1051.2677	1063.1281	1081.5163	1102.4481	1147.7292	1163.458	1165.2651	1260.1586	1306.2915	1326.7388	1328.9867	1361.1164	1395.5479	1402.9729	1405.6151	1422.6966	1477.109	1488.4655	1489.8209	1493.4903	1496.2669	1505.1468	2361.0005	2973.6095	3026.055	3026.184	3042.9913	3052.921	3063.4849	3096.3498	3119.4067	3121.0609	3128.1967	3525.1795	3786.0433
CC(O)CNC(C)C#N	C[C@@H](O)CN[C@@H](C)C#N	
InChI=1S/C6H12N2O/c1-5(3-7)8-4-6(2)9/h5-6,8-9H,4H2,1-2H3	InChI=1S/C6H12N2O/c1-5(3-7)8-4-6(2)9/h5-6,8-9H,4H2,1-2H3/t5-,6+/m0/s1
