21
gdb 60974	2.25299	1.17089	0.92628	2.9198	79.9	-0.2422	-0.0181	0.2241	1354.2222	0.178624	-424.224734	-424.214189	-424.213245	-424.26075	38.327	
C	-0.1818267992	 1.4744889128	 0.1082710239	-0.409842
C	 0.0540135803	-0.0322084762	-0.1004044315	-0.094237
C	 0.8598753529	-0.25450307	-1.3683186144	 0.174303
O	 0.4838591481	-0.8708303724	-2.331608491	-0.255268
C	 0.803187667	-0.6364049214	 1.0782598679	-0.034161
C	 0.0669587743	-1.1538359772	 2.3044178973	-0.367008
C	 0.8202203171	-2.1040794575	 1.3998347461	 0.392201
C	 0.083516288	-3.1327972844	 0.5713099552	-0.452933
O	 2.0813570815	-2.5365700618	 1.8498362693	-0.467882
H	 0.7686081886	 2.0172256832	 0.1640227367	 0.122168
H	-0.7692005754	 1.9018359411	-0.7098140249	 0.126462
H	-0.7182022646	 1.6457238692	 1.0459354541	 0.129679
H	-0.906684612	-0.5362855229	-0.2426525897	 0.090488
H	 1.8742686489	 0.212138688	-1.3452570774	 0.071558
H	 1.7493643939	-0.1472579971	 1.2980956879	 0.099335
H	 0.4972855897	-0.9368504576	 3.2756900876	 0.114648
H	-1.018510739	-1.1691740474	 2.2753497776	 0.109768
H	-0.8876885373	-2.7674184835	 0.2298083848	 0.124727
H	 0.671943159	-3.4153782372	-0.3065374404	 0.139917
H	-0.0969551775	-4.0366361657	 1.1665315136	 0.106468
H	 1.9403740157	-3.276270432	 2.4518001372	 0.27961
47.3355	54.1702	133.9612	166.4403	219.973	223.4113	275.5389	296.3351	308.9236	334.7227	394.5598	418.1725	438.6499	509.4536	546.6881	715.7769	823.4977	880.0263	906.3043	923.6159	948.0242	954.8439	986.6114	1045.5102	1054.4102	1077.632	1101.6951	1122.5346	1157.0542	1188.314	1235.7509	1273.626	1292.3208	1321.2072	1365.9673	1402.0221	1416.5403	1426.3418	1427.7354	1477.8323	1487.8429	1496.3984	1497.5437	1510.8843	1832.9295	2843.3828	3028.4074	3034.0073	3066.3383	3095.8168	3104.0566	3116.27	3124.1977	3129.5538	3139.3027	3217.5885	3788.8754
CC(C=O)C1CC1(C)O	C[C@@H](C=O)[C@H]1C[C@]1(C)O	
InChI=1S/C7H12O2/c1-5(4-8)6-3-7(6,2)9/h4-6,9H,3H2,1-2H3	InChI=1S/C7H12O2/c1-5(4-8)6-3-7(6,2)9/h4-6,9H,3H2,1-2H3/t5-,6+,7-/m0/s1
