13
gdb 27507	2.11392	1.9752	1.02187	5.8973	65.65	-0.249	-0.0248	0.2242	1059.0982	0.091136	-486.144727	-486.137137	-486.136193	-486.17716	28.287	
N	 0.0149331972	 1.3513801862	 0.1203440976	-0.568596
C	-0.04564667	-0.0064798716	 0.0305061735	 0.48871
N	-1.1823600779	-0.6125588255	 0.02151314	-0.34043
C	-1.2031940349	-1.9813558284	 0.0011206345	 0.428415
N	-2.2593225756	-2.6690030738	 0.0152853947	-0.515642
O	 0.0507207212	-2.675755644	-0.0532133484	-0.256594
C	 1.2447251426	-2.0556902956	-0.0319952256	 0.488672
O	 2.2863774935	-2.6461495894	-0.0366183281	-0.365173
N	 1.1644308955	-0.6668812824	-0.0061038715	-0.423466
H	 0.8146689956	 1.8342589341	-0.2563836873	 0.267582
H	-0.8745218033	 1.8116884932	-0.0004078147	 0.285371
H	-2.0357094021	-3.6625293488	-0.0121736292	 0.234654
H	 2.0456201884	-0.1866953539	 0.0910868743	 0.276497
83.4038	125.5798	196.6415	343.1948	347.8214	384.4241	502.9356	523.9584	536.9971	545.6818	605.9631	667.1442	707.1719	746.0114	770.8313	859.6627	888.1406	988.973	1000.9599	1078.4483	1175.4133	1234.324	1332.328	1364.5421	1530.7754	1629.423	1727.6217	1767.4248	1883.6209	3517.5308	3589.721	3640.2443	3707.0505
NC1=NC(=N)OC(=O)N1	N[C]1N=C([NH])OC(=O)N1	
InChI=1S/C3H4N4O2/c4-1-6-2(5)9-3(8)7-1/h(H4,4,5,6,7,8)	InChI=1S/C3H4N4O2/c4-1-6-2(5)9-3(8)7-1/h(H4,4,5,6,7,8)
