18
gdb 9884	4.95221	0.95253	0.88241	2.8503	69.19	-0.2511	-0.0218	0.2293	1305.7302	0.150804	-384.934233	-384.925216	-384.924272	-384.968995	31.488	
C	 0.1853497155	 1.6127932648	-0.1580168191	-0.462505
C	-0.0143510357	 0.1128051099	-0.1820656741	 0.428706
C	-1.442750461	-0.3906133075	-0.3126910552	-0.274687
C	-2.2955053975	-0.0820761886	 0.9340549653	-0.271332
C	-3.6313620719	-0.7851302977	 0.8797914769	 0.155805
O	-4.703466113	-0.2424772203	 0.9502047656	-0.235959
C	 1.0912839861	-0.7582423727	-0.609234157	-0.230496
O	 0.7683052478	-0.6161767765	 0.7774551533	-0.275569
H	 1.244297915	 1.8550327256	-0.0425337197	 0.130325
H	-0.1782320451	 2.0676091626	-1.0857630503	 0.124137
H	-0.3578168959	 2.0698322034	 0.6749822343	 0.132463
H	-1.9078262191	 0.0527217263	-1.2016190468	 0.114268
H	-1.4182337803	-1.4749594932	-0.4694620351	 0.107898
H	-1.7544202064	-0.4560518156	 1.8145820761	 0.138418
H	-2.4736824207	 0.9885874952	 1.0619297093	 0.12256
H	-3.5578092043	-1.8925117043	 0.7590347216	 0.071171
H	 0.8778465645	-1.7350413837	-1.0421067358	 0.111565
H	 2.039517902	-0.3170112478	-0.9144560893	 0.113231
51.3561	64.6437	88.8143	163.901	193.7457	286.797	349.4385	364.0345	411.2183	477.3454	539.6297	727.3067	769.4232	834.8453	854.14	918.3282	930.1551	995.1552	1013.9306	1065.5024	1096.259	1116.9755	1134.4643	1169.6172	1202.4607	1261.8428	1271.2576	1321.3536	1363.3347	1406.8751	1423.4334	1431.1751	1461.4157	1479.5024	1489.9604	1498.9697	1531.6608	1836.6369	2847.5682	3021.5719	3032.3824	3040.758	3072.5085	3078.4193	3103.7278	3110.8406	3127.0995	3163.5779
CC1(CCC=O)CO1	C[C@@]1(CCC=O)CO1	
InChI=1S/C6H10O2/c1-6(5-8-6)3-2-4-7/h4H,2-3,5H2,1H3	InChI=1S/C6H10O2/c1-6(5-8-6)3-2-4-7/h4H,2-3,5H2,1H3/t6-/m1/s1
