22
gdb 101797	2.92113	0.8061	0.67191	3.5618	81.3	-0.2379	0.0409	0.2788	1738.0869	0.191258	-441.519552	-441.508093	-441.507149	-441.558215	39.289	
C	-0.1818713194	 1.4046015135	 0.1155524591	-0.238025
O	-0.022586662	 0.0056319805	 0.1837081018	-0.255768
C	-1.2296538297	-0.7454812411	 0.0581725526	 0.127562
C	-1.7348420069	-0.797747833	-1.3835027414	-0.404105
C	-0.904617683	-2.1404149049	 0.592147499	-0.164406
N	-0.3980088259	-2.0846739902	 1.9470433987	-0.314347
C	-0.9717269822	-2.7629474529	 2.9825385425	 0.406424
C	-0.332134066	-2.5226475164	 4.3423913134	-0.480233
O	-1.9185680879	-3.5175074729	 2.8400750926	-0.378569
H	 0.7925638664	 1.8502194214	 0.331564594	 0.127588
H	-0.5047940283	 1.7453541462	-0.8782025129	 0.111717
H	-0.9102634877	 1.7666095716	 0.8577327674	 0.107124
H	-1.9983914714	-0.2923774286	 0.7059462194	 0.073652
H	-1.9724675095	 0.1991949433	-1.7639167451	 0.119188
H	-0.9778228378	-1.2429247781	-2.0368597855	 0.125897
H	-2.6459389724	-1.4011889261	-1.4448475314	 0.125978
H	-1.7981479465	-2.7674223423	 0.609987574	 0.145582
H	-0.1675159227	-2.6092107343	-0.0739022059	 0.107534
H	 0.3366878152	-1.4189037091	 2.1209806917	 0.247873
H	 0.0528096404	-3.4729641098	 4.7222469105	 0.151007
H	 0.4813915495	-1.7927286548	 4.3242832563	 0.109252
H	-1.1038433523	-2.1831096521	 5.0380013193	 0.149074
30.8752	44.8821	69.7751	82.9708	105.3859	198.5347	217.4677	238.9721	267.3194	297.3124	333.4807	436.7075	498.5444	501.5406	540.1971	626.7026	647.552	804.3079	880.2974	919.037	961.4932	997.9927	1050.5447	1081.3824	1117.3746	1132.4034	1140.6832	1170.5422	1183.734	1216.2768	1256.013	1290.7914	1332.0438	1379.8948	1394.4008	1403.9781	1410.8514	1471.4051	1476.9978	1480.1003	1484.9329	1486.0549	1494.4516	1502.5355	1512.6638	1535.1416	1776.6532	2968.7741	2981.948	3017.4204	3033.1558	3042.3016	3049.2293	3110.3778	3112.6938	3117.3373	3125.9319	3126.6274	3129.7458	3653.6041
COC(C)CNC(C)=O	CO[C@@H](C)CNC(=O)C	
InChI=1S/C6H13NO2/c1-5(9-3)4-7-6(2)8/h5H,4H2,1-3H3,(H,7,8)	InChI=1S/C6H13NO2/c1-5(9-3)4-7-6(2)8/h5H,4H2,1-3H3,(H,7,8)/t5-/m0/s1
