20
gdb 92242	2.57739	1.7026	1.32145	0.6497	78.29	-0.2112	0.0623	0.2735	1047.1001	0.171955	-403.084664	-403.076826	-403.075882	-403.116814	31.22	
C	-0.1975312406	 1.5781940431	-0.0298027834	-0.417743
C	 0.0417300667	 0.0765513341	 0.0247091764	-0.077268
C	 1.1694995698	-0.5717390375	-0.8611602142	-0.241146
C	 1.6448994945	-1.4355337405	 0.3511382722	-0.089678
N	 2.8741842149	-0.9140036364	 1.0154793224	-0.327418
C	 2.0494692325	-0.0714672469	 1.9150209644	-0.117848
C	 1.3851418466	-0.7098955889	 3.163235397	-0.104733
O	 0.1381510756	-0.9446689515	 2.4534086927	-0.331815
C	 0.734867036	-0.5374482807	 1.2331710515	 0.478443
H	 0.7346621451	 2.1304702699	 0.1321862223	 0.115637
H	-0.5981650085	 1.8803057474	-1.0032290675	 0.116702
H	-0.9135668737	 1.8913375459	 0.7376153908	 0.122475
H	-0.8996438606	-0.4621631335	-0.1409343633	 0.084475
H	 0.8129347666	-1.1280789146	-1.7301160438	 0.102532
H	 1.9387391295	 0.1370197082	-1.1760928635	 0.110394
H	 1.5416966943	-2.5182054989	 0.2620642396	 0.072036
H	 3.419244618	-1.6222946044	 1.4980694178	 0.215193
H	 2.384766304	 0.9620944418	 2.0257196798	 0.083428
H	 1.8480482559	-1.6427175186	 3.5097433988	 0.097222
H	 1.2307764734	-0.039597898	 4.01631445	 0.109113
105.1296	149.2385	213.8382	236.4146	317.0768	389.6157	430.6459	478.0436	520.0483	627.4117	682.1923	752.6296	819.325	845.1719	854.7072	890.2051	921.3365	946.8219	981.0385	1000.5159	1019.8756	1041.788	1080.0169	1102.3538	1115.0353	1125.8757	1138.6033	1162.5874	1176.2698	1210.3124	1239.3911	1271.236	1295.3483	1296.7686	1322.344	1352.6319	1375.3739	1383.4283	1408.6625	1475.8022	1496.3712	1497.6993	1508.0059	3013.5371	3028.6101	3031.0049	3064.8093	3068.6364	3084.4599	3097.1302	3097.6672	3098.6327	3130.2646	3507.6028
CC1CC2NC3COC123	C[C@H]1C[C@H]2N[C@@H]3CO[C@]123	
InChI=1S/C7H11NO/c1-4-2-5-7(4)6(8-5)3-9-7/h4-6,8H,2-3H2,1H3	InChI=1S/C7H11NO/c1-4-2-5-7(4)6(8-5)3-9-7/h4-6,8H,2-3H2,1H3/t4-,5+,6+,7+/m0/s1
