16
gdb 126890	4.12331	1.12078	0.94392	2.7002	78.7	-0.2483	-0.0974	0.1509	1240.5906	0.123786	-434.031306	-434.023071	-434.022127	-434.065288	29.572	
C	 0.3358306518	 1.3400569915	 0.3339095901	-0.370699
C	-0.0639215698	-0.0397859876	-0.2051231941	-0.136089
N	 0.7449077437	-0.4109287309	-1.3576852297	-0.282505
C	 1.8329851543	-1.0250325319	-1.2034259561	 0.468789
O	 2.3118631868	-1.3106504516	 0.0977005025	-0.277046
N	 3.3279484132	-2.2189518121	 0.3200030501	-0.031782
C	 3.9298631408	-2.65552373	-0.7269642223	 0.008314
C	 3.5982423672	-2.1947153766	-2.0620062667	-0.00497
N	 2.6088199784	-1.4120527132	-2.291392243	-0.249116
H	 1.3544656744	 1.3217295689	 0.7318388126	 0.126568
H	 0.2889871173	 2.0907409271	-0.4599456416	 0.128883
H	-0.3414239868	 1.6422145379	 1.1386824155	 0.114778
H	 0.0033898213	-0.7818113621	 0.6007372464	 0.109704
H	-1.1045342188	-0.0056347923	-0.5437923733	 0.106412
H	 4.7280318804	-3.3671174087	-0.5444237171	 0.148579
H	 4.2127661557	-2.5116323184	-2.9038716333	 0.14018
42.5287	67.9364	147.5845	201.7814	279.4291	318.6644	411.4404	526.0613	557.3566	594.012	604.0524	737.0781	767.0233	819.9068	870.6868	890.0693	915.56	983.0352	1004.0076	1025.2951	1055.3989	1107.6688	1126.5779	1197.0207	1309.3636	1335.3185	1369.2934	1399.8961	1415.0343	1489.8701	1497.3987	1516.4765	1612.7054	1690.8983	1749.6146	3018.6019	3041.1803	3066.0835	3114.8139	3122.3799	3138.6743	3197.9298
CCN=C1ON=CC=N1	CC[N]C1=N[CH]C=NO1	
InChI=1S/C5H7N3O/c1-2-6-5-7-3-4-8-9-5/h3-4H,2H2,1H3	InChI=1S/C5H7N3O/c1-2-6-5-7-3-4-8-9-5/h3-4H,2H2,1H3
