20
gdb 119794	5.02448	0.90309	0.82731	0.8594	81.31	-0.2281	0.0311	0.2592	1458.4243	0.171766	-403.159344	-403.150846	-403.149901	-403.192902	32.251	
C	-0.1183448764	 1.4686641793	 0.0764353603	-0.391753
C	-0.011549212	-0.0424701745	 0.0078790798	-0.035846
O	-1.3482838516	-0.574676207	 0.001653923	-0.26352
C	-1.4510285864	-1.9045392536	-0.0429840544	 0.414205
N	-0.4681681003	-2.7188230433	-0.0779339214	-0.314895
C	-1.012308875	-4.0591546948	-0.054270876	 0.013863
C	-1.716193107	-4.4691777269	 1.2133621453	-0.284239
C	-2.5307749085	-3.9828789123	 0.0341075388	-0.053331
C	-2.8503685559	-2.4978229818	-0.0257755083	-0.345808
H	 0.8819076631	 1.9118231176	 0.0833435848	 0.121241
H	-0.6633696011	 1.8612598085	-0.7867639792	 0.127944
H	-0.6409477199	 1.7826909387	 0.9845175585	 0.127521
H	 0.5073878331	-0.3781337051	-0.8963042569	 0.120005
H	 0.5296262104	-0.4591609106	 0.8640729382	 0.11943
H	-0.4825441346	-4.7976125038	-0.6444470972	 0.088698
H	-1.7741726668	-5.5282532654	 1.4427870491	 0.11055
H	-1.6021447882	-3.8228353029	 2.0789833062	 0.110621
H	-3.1739233251	-4.6863714518	-0.479547137	 0.088304
H	-3.4273165432	-2.122287949	 0.8261405138	 0.124815
H	-3.3988555046	-2.218300281	-0.9329960477	 0.122194
58.1961	113.363	157.0934	198.5371	260.4179	330.1101	348.2231	438.1033	484.1842	554.9262	704.8538	718.071	793.7388	798.0001	808.9363	879.8758	900.2218	912.3383	959.6138	992.0858	1036.9112	1053.5453	1064.5216	1077.9016	1098.5151	1122.0413	1156.0469	1177.9186	1183.9239	1195.8704	1268.7142	1288.9834	1326.4935	1353.5188	1372.4765	1405.288	1431.5263	1468.411	1479.6227	1485.8327	1497.1909	1520.9338	1692.2584	3040.2423	3044.8704	3045.5842	3077.6102	3081.4582	3118.6955	3120.2941	3123.9007	3177.1689	3187.0161	3210.1809
CCOC1=NC2CC2C1	CCOC1=N[C@H]2C[C@H]2C1	
InChI=1S/C7H11NO/c1-2-9-7-4-5-3-6(5)8-7/h5-6H,2-4H2,1H3	InChI=1S/C7H11NO/c1-2-9-7-4-5-3-6(5)8-7/h5-6H,2-4H2,1H3/t5-,6-/m0/s1
