20
gdb 56171	3.51882	0.84723	0.79143	3.536	76.15	-0.2415	0.0384	0.28	1514.9474	0.168556	-440.301337	-440.291187	-440.290243	-440.337662	36.92	
C	 0.2863991084	 1.5926657822	-0.0534712697	-0.456954
C	-0.273875112	 0.1948284754	 0.0864829121	 0.453417
C	 0.6458500006	-0.984379462	 0.2888984429	-0.316408
C	-0.2484581808	-0.4973854019	 1.4142619727	-0.314114
O	-1.4501511905	-0.0451722225	-0.6494171926	-0.30277
C	-1.279809774	-0.1383933978	-2.0526019752	-0.172796
C	-2.5524906668	-0.6504372474	-2.7287660526	 0.356438
N	-3.5520758867	-0.984716067	-1.8762622573	-0.507243
O	-2.6127807992	-0.7444326275	-3.9391070918	-0.366874
H	 1.1470164546	 1.7278223046	 0.607334357	 0.121201
H	 0.6209379242	 1.7970388846	-1.0759820704	 0.124593
H	-0.4718514598	 2.3361147416	 0.213447747	 0.127026
H	 0.3714898224	-1.9186888697	-0.1876906414	 0.121211
H	 1.7135272682	-0.8060095513	 0.3558391832	 0.116568
H	 0.2028166612	 0.0179073923	 2.2550084496	 0.114724
H	-1.1078007278	-1.1094119974	 1.6626434992	 0.119177
H	-1.0426196026	 0.833898135	-2.5039666264	 0.126915
H	-0.4643916377	-0.8286483303	-2.3089769398	 0.124874
H	-3.4410310457	-0.828001398	-0.8892405472	 0.271129
H	-4.432028466	-1.291164293	-2.2550035593	 0.259888
25.9245	54.7401	117.1735	152.5276	218.4126	250.5483	275.2794	311.6952	352.541	402.0519	445.4255	518.8719	538.1745	557.9776	685.0895	726.7677	776.4664	859.5521	878.5906	927.6422	937.1113	973.2125	1032.5791	1038.9983	1058.7529	1078.3706	1094.9438	1112.4642	1137.2181	1188.2569	1246.2249	1282.3691	1339.0503	1364.0521	1389.6226	1418.0863	1453.205	1483.7717	1489.5869	1492.6456	1508.3897	1594.8685	1808.8255	3011.7126	3035.6881	3050.756	3099.9895	3116.5088	3134.9168	3139.2524	3218.3944	3232.4523	3603.9679	3745.6822
CC1(CC1)OCC(N)=O	CC1(CC1)OCC(=O)N	
InChI=1S/C6H11NO2/c1-6(2-3-6)9-4-5(7)8/h2-4H2,1H3,(H2,7,8)	InChI=1S/C6H11NO2/c1-6(2-3-6)9-4-5(7)8/h2-4H2,1H3,(H2,7,8)
