14
gdb 33636	3.18974	1.55993	1.36293	2.855	73.74	-0.2512	-0.0837	0.1674	939.8172	0.101653	-395.599111	-395.592388	-395.591443	-395.630219	26.311	
N	-0.199783737	-1.2403228234	-0.0120639735	-0.352596
C	-0.1492101704	-0.0837906417	 0.0272642272	 0.159903
C	-0.0669939921	 1.3277241409	 0.0626398324	 0.144941
C	-0.8897372494	 2.3830115287	 0.7347603694	-0.111318
C	 0.0596439291	 3.0177795313	 1.7742842079	-0.187456
N	 1.313468879	 3.1415101868	 0.98416715	-0.134751
C	 1.1737110713	 2.3375033467	 0.0160894814	 0.0967
N	 0.8202944723	 2.9187955707	-1.2882060583	-0.327591
C	-0.5723006315	 2.4179570322	-0.8146151349	-0.072224
H	-1.9352314478	 2.1961623347	 0.9667803516	 0.122177
H	-0.2120042104	 4.0362116819	 2.0666722227	 0.145164
H	 0.1189995926	 2.40299058	 2.6832608974	 0.13413
H	 1.0381825068	 2.2658543227	-2.048831392	 0.241879
H	-1.3743383324	 2.3874197584	-1.5449490414	 0.141043
127.2927	155.2381	293.106	398.837	428.4097	506.5592	539.9626	542.1558	632.6967	677.6568	721.2709	773.3787	869.2619	887.1898	939.0691	956.6285	971.4142	1000.4094	1017.7447	1055.4542	1093.2374	1128.4478	1163.7286	1188.8116	1260.25	1298.7074	1300.5797	1416.6112	1476.838	1627.7682	2341.2321	3015.3663	3090.3746	3160.7983	3179.7894	3384.0164
N#CC12C3CN=C1NC23	N#C[C@@]12[C@H]3C[N][C]1N[C@@H]23	
InChI=1S/C6H5N3/c7-2-6-3-1-8-5(6)9-4(3)6/h3-4H,1H2,(H,8,9)	InChI=1S/C6H5N3/c7-2-6-3-1-8-5(6)9-4(3)6/h3-4H,1H2,(H,8,9)/t3-,4+,6-/m0/s1
