17
gdb 53945	2.22454	1.43389	1.22886	5.3304	65.1	-0.2324	0.0079	0.2403	1097.8973	0.134253	-492.343662	-492.333766	-492.332822	-492.379011	36.501	
C	-0.1695285856	 1.5968780108	-0.1290721515	-0.391708
C	-0.0255875414	 0.0738011503	-0.0436877269	 0.145061
O	 0.7051470389	-0.2176830658	 1.1551923744	-0.482306
C	-1.4483088446	-0.5521420559	 0.0149579393	 0.349465
N	-1.8319099211	-0.8998350952	 1.2872216371	-0.53578
O	-2.1458504867	-0.7174768925	-0.9575288414	-0.332007
C	 0.7241127387	-0.4190847755	-1.3089419863	 0.37309
N	 1.8155764633	-1.2070786307	-1.0413255179	-0.539333
O	 0.3556158597	-0.1366217478	-2.4255842038	-0.342727
H	 0.8183322	 2.0641962712	-0.0894557826	 0.12809
H	-0.6512020685	 1.8527382353	-1.0729775466	 0.171825
H	-0.767301016	 1.9728681465	 0.7054391334	 0.117144
H	 0.6249024801	-1.1654556293	 1.3189948526	 0.288385
H	-1.3467603372	-0.5016936534	 2.0748766679	 0.265169
H	-2.8033412697	-1.1447968097	 1.4020755776	 0.264241
H	 2.2714327741	-1.0909850589	-0.1506134156	 0.259975
H	 2.403230156	-1.4096439896	-1.8361132897	 0.261415
25.2416	70.7671	178.9389	221.5912	228.9541	259.2858	315.3431	357.464	363.0976	418.502	452.0737	497.7951	531.5381	567.8401	592.4978	612.6282	677.8141	687.1396	747.6768	790.2258	888.1382	948.5038	1061.9217	1087.2288	1099.0184	1158.2013	1177.3274	1314.6445	1332.8735	1361.6047	1397.5425	1485.2429	1492.0148	1591.2145	1602.3788	1796.4425	1840.081	3051.5542	3122.2164	3163.9155	3579.2244	3580.7717	3705.7273	3712.5587	3783.3569
CC(O)(C(N)=O)C(N)=O	CC(O)(C(=O)N)C(=O)N	
InChI=1S/C4H8N2O3/c1-4(9,2(5)7)3(6)8/h9H,1H3,(H2,5,7)(H2,6,8)	InChI=1S/C4H8N2O3/c1-4(9,2(5)7)3(6)8/h9H,1H3,(H2,5,7)(H2,6,8)
