18
gdb 68753	2.51184	1.73445	1.2571	2.4373	73.89	-0.2422	0.0181	0.2603	1035.3164	0.147448	-439.096629	-439.088148	-439.087204	-439.12927	32.596	
C	 0.0040523692	 1.5081299601	 0.0078855343	-0.487241
C	 0.004979891	 0.0019868148	 0.0199861819	 0.219745
C	 1.257656247	-0.7916456628	-0.2877296447	-0.388452
C	 0.6702135002	-0.8232920896	 1.1052993642	 0.334159
O	 1.3656281304	-0.3067237343	 2.1801031914	-0.476176
C	-0.2594203467	-1.9455820439	 1.384830994	 0.367283
N	-0.1454379886	-2.6888095538	 2.4008967886	-0.581002
O	-1.2288488406	-2.0011724141	 0.4347002045	-0.24729
C	-1.2770485745	-0.7515896223	-0.2992325584	-0.145919
H	 0.9307722006	 1.8924639564	 0.4422939298	 0.142314
H	-0.0831854716	 1.9029208403	-1.0105031809	 0.122628
H	-0.8287565401	 1.9065251809	 0.5977294176	 0.123509
H	 1.2024813206	-1.6709742082	-0.9233687565	 0.119783
H	 2.1766203629	-0.2204445668	-0.3653231445	 0.128309
H	 1.2484977475	-0.9554142863	 2.8909008951	 0.300659
H	-0.9124135148	-3.3559989401	 2.47753447	 0.22997
H	-2.1616501576	-0.1941742433	 0.0315470961	 0.116492
H	-1.3909807646	-1.002011997	-1.3586172923	 0.121229
113.522	176.2508	189.2983	195.5713	287.5613	307.3087	330.0904	378.1034	466.5407	504.3343	549.7787	648.2316	692.4407	706.4724	796.962	863.6157	884.2073	916.3369	950.0409	968.5642	991.0212	1028.6572	1052.2812	1083.1473	1114.4231	1129.3094	1223.9474	1234.4251	1269.8718	1315.8965	1374.2741	1415.8385	1424.0916	1447.7603	1487.9418	1495.7876	1506.3796	1520.0815	1775.2126	3028.4462	3032.9785	3082.6928	3090.5428	3116.6369	3118.6125	3216.4465	3500.0052	3720.1867
CC12CC1(O)C(=N)OC2	C[C@@]12C[C@]1(O)[C]([NH])OC2	
InChI=1S/C6H9NO2/c1-5-2-6(5,8)4(7)9-3-5/h7-8H,2-3H2,1H3	InChI=1S/C6H9NO2/c1-5-2-6(5,8)4(7)9-3-5/h7-8H,2-3H2,1H3/t5-,6-/m0/s1
