20
gdb 96958	2.84085	1.33688	1.07892	2.1922	81.8	-0.2435	0.0288	0.2723	1205.361	0.170546	-403.134322	-403.125351	-403.124407	-403.168476	33.011	
C	 0.0077427107	 1.4058719881	 0.2361975057	-0.341125
N	-0.080669299	-0.0342886427	 0.4356501821	-0.335986
C	-1.0908504129	-0.6461717928	 0.0241687685	 0.472579
O	-2.2280284927	-0.1701030381	-0.629920879	-0.284737
C	-2.8180402868	-1.5050673126	-0.6462280696	 0.110778
C	-2.4937753034	-2.2634983073	-1.9484571993	-0.264029
C	-1.234748319	-2.8938864422	-1.2614944918	 0.024409
C	 0.1254381512	-2.7232419855	-1.919814524	-0.403415
C	-1.5522554317	-2.0822085923	 0.0440319522	-0.215842
H	 0.8778517093	 1.6290073901	-0.3916641936	 0.125786
H	-0.8810004889	 1.8503785199	-0.226737648	 0.12581
H	 0.1816118063	 1.8900849335	 1.2033313855	 0.125825
H	-3.8272180439	-1.5004963055	-0.2356027366	 0.09142
H	-3.2509075874	-2.9922957295	-2.2472698154	 0.107099
H	-2.2916630697	-1.5959462374	-2.7895041369	 0.115373
H	-1.4160846219	-3.9539462595	-1.0609712616	 0.082863
H	 0.3412461372	-1.6703163116	-2.1244191133	 0.129448
H	 0.9261006287	-3.1050266565	-1.2779360557	 0.124713
H	 0.1647951354	-3.2683408176	-2.8692265765	 0.113718
H	-1.5240172113	-2.6033014605	 0.9990450172	 0.095314
77.314	86.0442	98.7015	201.9605	221.4962	239.9296	329.0049	392.4217	414.7816	505.5417	635.4231	706.8995	728.6468	817.2084	848.743	868.2505	897.9581	934.6205	964.9982	979.8711	1044.4161	1054.5986	1100.9949	1114.3355	1122.0671	1131.7253	1159.1187	1174.4883	1201.7774	1222.7554	1244.2591	1273.6108	1318.2228	1321.7362	1363.3555	1415.0792	1438.9424	1467.3728	1492.24	1493.106	1494.5001	1497.3507	1838.6126	3016.3195	3033.1322	3055.016	3066.2463	3080.2012	3087.0928	3099.3808	3110.4628	3116.5673	3124.9698	3137.0169
CN=C1OC2CC(C)C12	CN=C1O[C@H]2C[C@@H](C)[C@@H]12	
InChI=1S/C7H11NO/c1-4-3-5-6(4)7(8-2)9-5/h4-6H,3H2,1-2H3	InChI=1S/C7H11NO/c1-4-3-5-6(4)7(8-2)9-5/h4-6H,3H2,1-2H3/t4-,5+,6-/m1/s1
