19
gdb 88260	2.97923	1.19264	0.92526	3.6055	78.75	-0.2426	-0.0585	0.1841	1289.4506	0.157299	-419.203715	-419.194012	-419.193068	-419.238733	34.894	
C	 0.0314691907	 1.0762063004	 0.0535260152	-0.397603
C	-0.2615156249	-0.3842102254	 0.305574186	 0.018397
C	 0.8453378956	-1.3969815357	 0.3236782229	-0.265479
N	 0.1110964289	-1.0598554295	 1.5368513892	-0.089739
C	 0.6482496707	-0.4515200238	 2.6633663286	 0.218834
N	 0.2617823478	 0.6892072465	 3.0781408223	-0.480942
C	 1.6288955424	-1.3021366674	 3.4874464954	 0.347479
C	 1.8616334188	-2.7442647586	 3.1001388675	-0.48776
O	 2.1646609473	-0.7940620415	 4.4453086258	-0.292612
H	 1.0335496964	 1.3522157897	 0.388366993	 0.126028
H	-0.0439133709	 1.2771273535	-1.0206120904	 0.11599
H	-0.6789461136	 1.7149549175	 0.5823584374	 0.151966
H	-1.2231555135	-0.7242993591	-0.0762998941	 0.102532
H	 0.6932402701	-2.4022323548	-0.0608477578	 0.124074
H	 1.8582274021	-1.0119489939	 0.2175244942	 0.124618
H	 0.735157723	 0.8711951263	 3.9678253772	 0.238896
H	 2.4118431182	-2.7991722524	 2.1545539704	 0.146895
H	 2.4412970454	-3.2373135566	 3.8811483959	 0.143742
H	 0.9091184155	-3.2581849554	 2.9419150913	 0.154685
60.3949	71.4047	140.7928	161.7994	187.4164	212.5033	267.4569	360.812	394.237	426.6817	448.9021	482.4213	606.3747	683.8726	712.5251	827.2595	859.6328	907.5414	932.3162	976.9934	1000.5328	1044.6279	1052.345	1084.6166	1123.57	1152.5972	1162.7548	1194.332	1204.6713	1312.0246	1383.2507	1396.5946	1417.9961	1443.2097	1463.4439	1468.2291	1482.523	1489.1307	1512.6975	1682.3318	1804.3467	3045.8263	3046.3064	3093.0741	3110.4262	3111.2947	3122.1789	3140.4383	3156.6377	3182.7164	3439.9977
CC1CN1C(=N)C(C)=O	C[C@H]1CN1[C]([NH])C(=O)C	
InChI=1S/C6H10N2O/c1-4-3-8(4)6(7)5(2)9/h4,7H,3H2,1-2H3	InChI=1S/C6H10N2O/c1-4-3-8(4)6(7)5(2)9/h4,7H,3H2,1-2H3/t4-,8?/m0/s1
