18
gdb 117417	5.1548	0.65384	0.61359	2.2392	76.83	-0.2534	0.0289	0.2823	1826.8986	0.144893	-439.092607	-439.082114	-439.08117	-439.130769	35.811	
C	 0.4344641203	 1.2882166719	 0.0527971347	-0.370892
C	-0.4616578547	 0.1110254269	-0.3398252526	-0.145246
N	 0.0371974727	-0.6371269603	-1.4810864023	-0.362618
C	 0.7093322981	-1.8085082143	-1.341676603	 0.538435
O	 0.8841419547	-2.4165841319	-0.3077952642	-0.412282
O	 1.1605764401	-2.2264381807	-2.5583045362	-0.277019
C	 1.8640012326	-3.478110388	-2.5186223353	-0.220246
C	 2.3263835881	-3.7949752568	-3.8601556872	 0.285136
C	 2.7227288757	-4.0881764241	-4.9548534838	-0.417226
H	 1.4326540203	 0.9370788465	 0.3296260246	 0.134328
H	 0.5391616778	 2.0011080797	-0.772230659	 0.113078
H	 0.0082287903	 1.823810169	 0.9071126123	 0.120116
H	-0.5371667148	-0.6015989222	 0.4841923955	 0.148598
H	-1.4744093698	 0.4637291045	-0.5670564027	 0.108411
H	 0.0395917302	-0.2142519106	-2.3950809826	 0.253283
H	 2.703566229	-3.4053874636	-1.8187910068	 0.151146
H	 1.1992971254	-4.2612057671	-2.1372144721	 0.150158
H	 3.0729010238	-4.3463098787	-5.9236570193	 0.20284
21.5999	25.2806	72.2954	111.3929	139.1965	206.9705	262.2721	328.2336	331.0497	368.5295	450.5384	470.9353	560.8477	613.5133	683.6299	709.4779	777.5652	804.6782	900.8024	971.1502	988.1252	1016.3063	1045.398	1098.3702	1168.0529	1179.1737	1246.8804	1249.9302	1327.3918	1387.8989	1400.3667	1411.9214	1481.1109	1490.9939	1493.1386	1502.0054	1552.7462	1812.5764	2250.6534	3035.2577	3039.5616	3043.1238	3076.2255	3098.5148	3116.2186	3127.518	3505.8747	3645.5667
CCNC(=O)OCC#C	CCNC(=O)OCC#C	
InChI=1S/C6H9NO2/c1-3-5-9-6(8)7-4-2/h1H,4-5H2,2H3,(H,7,8)	InChI=1S/C6H9NO2/c1-3-5-9-6(8)7-4-2/h1H,4-5H2,2H3,(H,7,8)
