18
gdb 37077	3.34227	1.62997	1.38389	1.7518	70.22	-0.2455	0.0801	0.3256	957.7416	0.151073	-439.056106	-439.049253	-439.048309	-439.087106	27.575	
C	-0.0099048148	 1.5746159287	 0.0419536303	-0.17284
O	 0.939576537	 1.9582497509	-0.9596190599	-0.26164
C	 2.0480746488	 1.0531004687	-0.8981823472	-0.17284
C	 1.4441521933	-0.2621764733	-0.457444636	 0.2181
C	 2.0583599978	-1.3297682885	 0.4155569729	-0.13421
O	 0.994705292	-1.8019130924	 1.2469021605	-0.258396
C	-0.0215806828	-0.8026855324	 1.3657316662	-0.13421
C	 0.1277164674	 0.0714238776	 0.1439390432	 0.2181
N	 0.197605768	-0.6846781446	-1.1177130166	-0.394464
H	 0.2161681032	 2.0396416142	 1.0150935935	 0.10078
H	-0.9879131206	 1.9329138583	-0.2945020219	 0.117965
H	 2.5078864493	 1.0470434662	-1.8914677549	 0.117965
H	 2.8025818348	 1.38421145	-0.166441515	 0.10078
H	 2.4442332672	-2.1940739004	-0.1329310014	 0.117788
H	 2.8763998074	-0.8965053828	 1.0141874319	 0.090268
H	-0.9798149692	-1.3263768847	 1.4312734546	 0.117787
H	 0.1133404249	-0.1963075533	 2.2764278998	 0.090267
H	 0.0043555264	-0.0506001623	-1.8924664601	 0.2388
180.9605	217.0245	238.5173	324.2614	340.2251	450.8232	503.0445	558.0471	637.1014	707.6947	795.779	823.5022	882.7085	918.4822	936.3201	985.5066	996.4229	1029.5174	1041.7072	1071.192	1092.7444	1094.3736	1128.7256	1146.0549	1202.1882	1224.8399	1234.19	1258.2786	1286.9946	1297.8364	1343.3888	1362.35	1411.3373	1414.4507	1434.2019	1502.2396	1510.7763	1511.0859	1522.6251	2968.6536	2973.7633	2979.2026	2986.0262	3074.094	3076.2289	3079.4378	3082.3197	3475.9953
C1OCC23COCC12N3	C1OC[C@@]23COC[C@@]12N3	
InChI=1S/C6H9NO2/c1-5-2-9-4-6(5,7-5)3-8-1/h7H,1-4H2	InChI=1S/C6H9NO2/c1-5-2-9-4-6(5,7-5)3-8-1/h7H,1-4H2/t5-,6+
