25
gdb 101739	3.64031	0.71754	0.70035	1.5156	89.87	-0.2403	0.0799	0.3202	1800.1502	0.228039	-389.483731	-389.47307	-389.472125	-389.520634	38.619	
C	-0.2740598079	 1.4753155121	-0.0392846692	-0.391625
C	-0.0272844081	-0.0361409471	-0.0838442391	-0.170134
C	 0.8638789775	-0.5156753152	-1.2456958828	 0.051947
C	 2.2818850551	 0.0682231881	-1.1606784524	-0.397611
C	 0.8798965297	-2.056855192	-1.292931863	-0.210416
C	 1.4568879944	-2.6395510184	-2.5713485203	 0.153361
C	 1.2080276742	-4.1367378391	-2.8677988162	-0.299774
C	 0.5426557759	-3.6223800018	-4.1591553604	-0.056594
O	 0.6981732506	-2.249497275	-3.7474417494	-0.292944
H	 0.6456507926	 2.0382956929	 0.1458096361	 0.116855
H	-0.6982130856	 1.8330654235	-0.9843927482	 0.114875
H	-0.9788538438	 1.7315665282	 0.7581776034	 0.109809
H	 0.4167037527	-0.3638360822	 0.8671240601	 0.087663
H	-0.9952648031	-0.5482558385	-0.1567830186	 0.090644
H	 0.4055270509	-0.1738474345	-2.1837491957	 0.092567
H	 2.2689604978	 1.1613398619	-1.1873279724	 0.115181
H	 2.774240881	-0.2364013233	-0.2284408615	 0.106348
H	 2.9093037412	-0.2639681787	-1.9928063813	 0.116669
H	 1.4503260999	-2.4532165058	-0.439728098	 0.088301
H	-0.1473054349	-2.4294361665	-1.1879520931	 0.087745
H	 2.5106354803	-2.3521233992	-2.6919372385	 0.071803
H	 2.093772837	-4.761189274	-2.9928344617	 0.107253
H	 0.524020942	-4.6183083935	-2.1653132956	 0.107508
H	 1.0979230326	-3.8367751106	-5.0818778503	 0.098051
H	-0.5096032818	-3.8892277711	-4.312562932	 0.102519
41.1012	62.4365	86.1407	111.9842	146.0039	210.6074	241.8159	283.671	310.2928	349.9515	413.719	474.2255	494.2645	737.2049	773.251	801.1415	830.9742	864.5705	883.7878	927.1127	956.8304	973.4491	987.0091	1006.3706	1030.2986	1047.8534	1074.4387	1113.3896	1146.8206	1163.0306	1178.8773	1185.1524	1215.5622	1242.9246	1256.6649	1295.6136	1296.3091	1307.1458	1344.5916	1366.865	1382.7882	1384.6798	1406.6051	1414.7239	1416.9391	1467.5076	1484.7025	1492.0538	1497.846	1499.0595	1507.9339	1516.2044	1534.0323	2998.998	3000.3214	3003.9419	3010.8874	3019.2328	3029.6667	3032.9852	3041.3207	3051.9506	3053.2529	3074.4775	3096.0873	3097.2886	3105.1508	3112.7225	3130.5462
CCC(C)CC1CCO1	CC[C@@H](C)C[C@H]1CCO1	
InChI=1S/C8H16O/c1-3-7(2)6-8-4-5-9-8/h7-8H,3-6H2,1-2H3	InChI=1S/C8H16O/c1-3-7(2)6-8-4-5-9-8/h7-8H,3-6H2,1-2H3/t7-,8-/m1/s1
