15
gdb 80225	2.13365	1.61521	1.19294	3.3321	68.54	-0.2512	-0.0411	0.2101	1053.8203	0.110153	-457.753974	-457.74551	-457.744566	-457.787304	30.515	
O	 0.2244613889	 1.0992211742	-0.0820343093	-0.403436
C	-0.1440620232	-0.2220524076	 0.0616496666	 0.109166
C	-0.6771064548	-0.8525328631	 1.268269924	-0.148499
C	-1.5954579867	 0.0977429725	 2.0510869722	-0.393116
C	-2.5058912829	 0.1808744739	 0.793148777	 0.341453
O	-3.5913626021	 0.6510704253	 0.6045184228	-0.303421
C	-1.6258353305	-0.7206725	-0.0095304235	 0.050953
C	-1.9953638904	-1.738844204	-1.0041535835	 0.048035
O	-1.254344121	-2.6302451419	-1.3550067733	-0.273853
H	-0.093570857	 1.6175221628	 0.6645578851	 0.300654
H	 0.4671208858	-0.8592378447	-0.571277974	 0.156991
H	-0.3158186558	-1.8044412959	 1.636526906	 0.13563
H	-2.1312584014	-0.3953693445	 2.8661249183	 0.152544
H	-1.1609084625	 1.024238046	 2.441746049	 0.123008
H	-3.0197593264	-1.6334601129	-1.4168645673	 0.103893
95.823	122.6623	157.7856	178.8075	218.2136	257.2078	349.6232	403.3382	550.6051	577.4755	594.9029	633.7425	701.8792	757.4586	857.9256	901.1827	966.0439	971.475	1007.1342	1038.3274	1076.4282	1098.8799	1145.6045	1208.4001	1223.873	1284.8087	1325.2724	1348.1577	1424.1446	1458.7072	1475.0056	1783.7831	1876.6423	2922.8622	3047.4691	3112.7674	3173.8076	3203.9709	3819.2265
OC1C2CC(=O)C12C=O	O[C@H]1[C@H]2CC(=O)[C@@]12C=O	
InChI=1S/C6H6O3/c7-2-6-3(5(6)9)1-4(6)8/h2-3,5,9H,1H2	InChI=1S/C6H6O3/c7-2-6-3(5(6)9)1-4(6)8/h2-3,5,9H,1H2/t3-,5+,6+/m1/s1
