19
gdb 61228	3.51883	0.98338	0.86211	1.327	78.06	-0.253	0.0447	0.2977	1364.9431	0.155996	-422.973329	-422.963526	-422.962582	-423.007864	37.161	
O	-0.3839536686	 1.1950639069	 0.1817237018	-0.438692
C	 0.0449866433	-0.1461210986	 0.0622711258	 0.06113
C	 0.8975546259	-0.3535408598	-1.2135883354	-0.360413
C	 0.1598736152	 0.0390494711	-2.4067406723	 0.258174
C	-0.5043206694	 0.4071713734	-3.3404761915	-0.427386
C	 0.84012465	-0.514460304	 1.3047362831	 0.400926
O	 1.271273809	-1.8525770654	 1.2908206783	-0.46884
C	 1.8065252815	 0.4609266135	 1.901049528	-0.290023
C	 0.5215487678	 0.1148508389	 2.6326133173	-0.340683
H	-0.7637210861	 1.4493863548	-0.6681718149	 0.290647
H	-0.8256870586	-0.8232756214	-0.0025727581	 0.064227
H	 1.8107974848	 0.2467937041	-1.1235456646	 0.138049
H	 1.2046456714	-1.4027185352	-1.2660380173	 0.143338
H	-1.0631464123	 0.7083654357	-4.1918504237	 0.198358
H	 0.5150878984	-2.4082852729	 1.5117039852	 0.283195
H	 2.7321185547	 0.0503362202	 2.2866870184	 0.118905
H	 1.8745214043	 1.4430518399	 1.4489986892	 0.127779
H	-0.258667296	 0.8649330481	 2.6689716117	 0.132868
H	 0.6040944748	-0.5262082391	 3.5036034792	 0.10844
68.9826	85.1293	124.628	213.2379	251.0161	308.8761	340.2317	353.8121	379.1467	394.5671	398.073	482.1232	519.7735	562.8016	624.4776	655.1521	747.4254	785.2619	865.8325	900.882	934.6752	945.4423	989.9104	1002.386	1038.93	1054.1468	1084.8402	1113.5327	1196.7077	1217.7388	1244.1631	1267.9401	1285.0332	1302.4126	1368.8553	1385.0789	1438.4892	1449.1956	1466.1255	1493.7412	2228.5211	2936.404	3041.1449	3090.786	3139.6856	3146.9339	3232.4487	3245.4345	3504.4403	3778.928	3788.9253
OC(CC#C)C1(O)CC1	O[C@@H](CC#C)C1(O)CC1	
InChI=1S/C7H10O2/c1-2-3-6(8)7(9)4-5-7/h1,6,8-9H,3-5H2	InChI=1S/C7H10O2/c1-2-3-6(8)7(9)4-5-7/h1,6,8-9H,3-5H2/t6-/m0/s1
