14
gdb 35414	3.13394	1.72202	1.41543	5.8316	64.45	-0.2761	-0.0035	0.2725	897.793	0.10111	-436.609162	-436.60246	-436.601515	-436.640408	25.767	
N	-0.1717698213	-1.190258462	-0.1792991953	-0.328765
C	-0.0603177058	-0.0510128048	-0.022668727	 0.307052
C	 0.0350172718	 1.4053078693	 0.0777195156	-0.019619
O	-0.1735272975	 1.934780222	 1.4081251091	-0.284694
C	 1.0735009886	 2.6579542526	 1.3670737249	 0.08764
C	 2.3037778486	 1.9120829666	 1.9603347762	-0.001135
O	 2.1409090885	 0.5293056233	 1.6609927595	-0.206118
C	 2.6335299846	 1.3660906696	 0.6218138832	 0.016761
C	 1.4277320023	 2.091455669	-0.0258023374	-0.151421
H	-0.6907974658	 1.8413381272	-0.61980169	 0.130141
H	 0.9762590794	 3.7205458404	 1.5943178723	 0.099433
H	 2.9237494237	 2.1698884884	 2.8109428259	 0.119115
H	 3.5790799699	 1.0985671558	 0.1663420339	 0.124477
H	 1.6282946732	 2.7177869025	-0.891391961	 0.107134
120.3956	141.7982	275.7708	296.5757	423.0216	516.7052	564.0261	645.3493	725.9361	785.9147	801.8573	833.8515	882.5474	884.8925	943.8451	965.2261	981.4272	999.2741	1025.6736	1049.3777	1070.3837	1163.0691	1196.8998	1224.3472	1229.5783	1256.2167	1281.5442	1314.7504	1353.7336	1384.7521	2359.5343	3032.56	3107.513	3152.8056	3187.4902	3203.4948
N#CC1OC2C3OC3C12	N#C[C@H]1O[C@H]2[C@H]3O[C@H]3[C@@H]12	
InChI=1S/C6H5NO2/c7-1-2-3-4(8-2)6-5(3)9-6/h2-6H	InChI=1S/C6H5NO2/c7-1-2-3-4(8-2)6-5(3)9-6/h2-6H/t2-,3+,4-,5+,6-/m1/s1
