23
gdb 56665	2.51184	1.21766	1.05182	0.5765	90.86	-0.2561	0.0538	0.3099	1293.2439	0.203637	-351.120479	-351.110312	-351.109368	-351.15505	39.008	
C	-0.0608280606	 1.6199883593	 0.0575122907	-0.404553
C	-0.1678419488	 0.0817491432	 0.009457106	-0.225576
C	-1.5633321493	-0.3454160461	-0.0972966381	 0.339654
C	-2.7103022503	-0.6935244218	-0.1989767138	-0.476967
C	 0.7065686398	-0.5608572382	-1.0968359787	 0.371535
C	 0.2971480664	-0.1209264126	-2.5038719655	-0.456475
C	 2.2490069431	-0.4420981075	-0.8665191486	-0.264605
C	 2.3927710816	-1.9543958033	-1.1849853926	-0.218225
C	 0.8606049537	-2.1125561886	-0.9956133705	-0.256722
H	 0.9877298796	 1.9261455841	 0.1249888219	 0.118129
H	-0.4993127891	 2.0784739974	-0.8321807791	 0.129109
H	-0.5900967186	 2.012583095	 0.9296720268	 0.124007
H	 0.2183028441	-0.3011571295	 0.9651339022	 0.095354
H	-3.7226911018	-1.0034581859	-0.278560922	 0.191785
H	 0.436019793	 0.9555034073	-2.6486573226	 0.112134
H	 0.9025532931	-0.6317551398	-3.2596198015	 0.110685
H	-0.753644458	-0.3592725329	-2.6960175149	 0.127818
H	 2.79040664	 0.2616096878	-1.5048202332	 0.093556
H	 2.4919095464	-0.217431213	 0.1771374847	 0.093635
H	 2.7084460709	-2.1355178424	-2.2155931494	 0.103358
H	 3.0371749987	-2.5395427306	-0.5252999434	 0.096732
H	 0.6020827241	-2.4835417276	 0.000498957	 0.098061
H	 0.3176853019	-2.7079050444	-1.7338710253	 0.097571
71.8378	116.1193	132.3359	202.626	218.3452	238.1493	264.2431	315.7497	341.2053	365.7596	422.2352	474.53	550.3758	619.296	630.9978	668.5229	711.9885	791.4185	840.1299	866.9382	920.9441	924.6136	929.6382	944.288	992.9589	1031.7638	1041.4023	1082.4336	1115.5609	1168.991	1182.1836	1211.5058	1214.3848	1256.3627	1276.0153	1276.9858	1304.1732	1332.5995	1344.6881	1403.0235	1412.7029	1473.3247	1481.4535	1490.3961	1492.5291	1499.8585	1505.5491	1508.6987	2228.3377	2994.9896	3031.8126	3043.1182	3045.5802	3053.775	3064.1467	3091.4854	3096.1819	3101.6868	3107.4088	3116.394	3119.3057	3126.1804	3503.9451
CC(C#C)C1(C)CCC1	C[C@@H](C#C)C1(C)CCC1	
InChI=1S/C9H14/c1-4-8(2)9(3)6-5-7-9/h1,8H,5-7H2,2-3H3	InChI=1S/C9H14/c1-4-8(2)9(3)6-5-7-9/h1,8H,5-7H2,2-3H3/t8-/m0/s1
