16
gdb 45451	2.76971	1.69951	1.19699	4.7434	70.79	-0.2534	-0.0687	0.1847	1016.302	0.125464	-437.902524	-437.895141	-437.894197	-437.935456	27.809	
N	 0.0893927306	 1.2337911785	 0.2853511832	-0.496452
C	 0.0679628204	 0.022204498	-0.0663955351	 0.297457
O	 1.0953488308	-0.6706187277	-0.6301985532	-0.243611
C	 0.7429849318	-2.0481863021	-0.8654094307	 0.088703
C	 1.1488806736	-3.0242689597	 0.2703139968	-0.240726
C	-0.3551936732	-3.3253555882	 0.5389267098	-0.236188
C	-0.747492547	-2.2354096226	-0.5119580683	-0.162759
C	-1.1438871098	-0.8934404542	 0.0749134456	 0.332087
O	-2.1928972945	-0.588023513	 0.570811315	-0.279665
H	 1.0035276729	 1.6517094427	 0.0971634483	 0.231898
H	 1.0802849486	-2.3038601111	-1.8702082755	 0.100296
H	 1.7525653966	-3.8771116844	-0.0451170878	 0.117155
H	 1.6640265228	-2.5128163063	 1.086186883	 0.125402
H	-0.6643531909	-4.325283867	 0.2310913797	 0.122693
H	-0.7192877074	-3.1473309884	 1.5524426635	 0.128251
H	-1.4462798452	-2.5378406243	-1.2930659645	 0.115458
35.3114	97.2663	204.871	330.5325	383.3902	420.4997	515.1193	594.9412	654.687	694.954	724.7574	791.2031	795.8061	880.1385	902.3938	914.8257	948.1792	963.7336	1005.8894	1047.7575	1057.4523	1112.2099	1160.7614	1192.1028	1224.1475	1241.7423	1258.4148	1272.2546	1293.4609	1302.5275	1376.104	1472.2755	1494.8511	1753.7501	1856.503	3075.4395	3080.4034	3101.3524	3111.2338	3124.4019	3141.2317	3463.5244
N=C1OC2CCC2C1=O	[NH][C]1O[C@H]2CC[C@H]2C1=O	
InChI=1S/C6H7NO2/c7-6-5(8)3-1-2-4(3)9-6/h3-4,7H,1-2H2	InChI=1S/C6H7NO2/c7-6-5(8)3-1-2-4(3)9-6/h3-4,7H,1-2H2/t3-,4+/m1/s1
