23
gdb 113588	3.86768	0.89931	0.82383	1.4393	86.16	-0.2567	0.0766	0.3333	1487.3764	0.206864	-388.288179	-388.278843	-388.277899	-388.323152	35.441	
O	-0.1817890718	 1.3631729687	-0.8117694295	-0.418751
C	-0.0317265205	 0.1797600872	-0.0356175251	-0.103992
C	-1.3739712045	-0.4941331878	 0.0546961127	-0.050753
C	-1.8371339666	-1.4204934934	-1.0433407784	-0.332771
C	-1.5099742425	-1.972428478	 0.324694415	 0.370621
C	-0.3073678282	-2.9204885415	 0.5220490783	-0.286105
C	-0.8160547449	-4.0295353325	 1.4778318691	-0.201009
C	-2.3481085015	-3.9898146162	 1.3427653583	-0.201961
C	-2.6391047294	-2.486346365	 1.221467088	-0.273126
H	 0.6597120883	 1.8291026539	-0.8075627867	 0.282718
H	 0.7015248666	-0.5029701334	-0.4934167634	 0.081088
H	 0.3368584894	 0.4201354715	 0.9756656611	 0.081514
H	-2.1374767422	 0.1396850929	 0.5005964055	 0.082592
H	-2.8764343694	-1.3769317554	-1.3536932981	 0.104826
H	-1.1386981195	-1.6200335859	-1.8513651682	 0.104931
H	 0.0046059713	-3.3482498945	-0.4364905985	 0.099706
H	 0.5679733654	-2.4132831858	 0.9395778915	 0.096512
H	-0.3871093927	-5.0095040562	 1.2510293766	 0.092868
H	-0.5372466201	-3.7887613549	 2.5104896751	 0.097062
H	-2.6598697467	-4.5042417013	 0.4254331322	 0.098254
H	-2.8660874918	-4.4658300617	 2.1802811812	 0.090497
H	-2.5779572777	-2.0194065385	 2.2141285897	 0.093269
H	-3.6317804612	-2.2625348023	 0.8194770135	 0.092009
30.6582	90.4259	134.6715	178.1635	251.0139	268.6413	314.3592	353.8664	416.9956	441.1464	554.535	600.6799	720.3257	814.2307	846.62	861.7264	877.7181	906.8245	914.1724	924.9312	968.9642	978.5799	1024.9193	1031.231	1054.1059	1066.7085	1087.6312	1094.6043	1166.9159	1171.0505	1188.0098	1222.3279	1248.6134	1253.3683	1258.1991	1282.371	1295.9017	1316.4281	1338.0233	1342.7004	1358.9918	1411.1899	1467.9323	1486.7892	1490.6675	1493.4002	1497.0557	1512.9101	1521.7002	2957.0871	2987.8505	3011.9717	3031.1356	3035.7745	3040.7665	3073.0531	3079.3261	3087.5588	3096.4411	3115.2855	3130.4349	3200.2652	3823.0243
OCC1CC11CCCC1	OC[C@H]1CC21CCCC2	
InChI=1S/C8H14O/c9-6-7-5-8(7)3-1-2-4-8/h7,9H,1-6H2	InChI=1S/C8H14O/c9-6-7-5-8(7)3-1-2-4-8/h7,9H,1-6H2/t7-/m1/s1
