19
gdb 81436	3.36328	1.42278	1.31966	2.7584	74.15	-0.2405	0.0764	0.3169	1044.7267	0.159511	-422.965724	-422.95803	-422.957086	-422.997235	31.583	
C	-0.0193016172	 1.5997713594	-0.009891813	-0.426272
C	-0.0524060735	 0.0772079605	-0.0002124276	 0.017309
C	 1.1279368787	-0.6127366416	-0.7351126329	 0.05598
O	 1.9651469981	-0.2905324166	 0.435020478	-0.300286
C	 0.7232065599	-0.5933092403	 1.1651786523	-0.022748
C	 0.6119463074	-2.1202349615	 0.932498394	 0.417531
O	 1.2774499641	-2.9636499861	 1.8151127514	-0.459739
C	-0.4056055306	-2.6668507771	-0.0367895676	-0.378961
C	 0.9212143606	-2.129455469	-0.5458311909	-0.105954
H	 0.985932834	 1.9685923774	 0.202462417	 0.139544
H	-0.333295848	 1.9857707078	-0.9859228243	 0.112598
H	-0.7060443715	 2.0068804796	 0.740296409	 0.111616
H	-1.0632983049	-0.2751411949	-0.211976874	 0.064251
H	 1.5367557644	-0.2531091153	-1.6798175336	 0.076716
H	 0.7126331525	-0.229768044	 2.1936307389	 0.073601
H	 0.6662571375	-3.2002091737	 2.5208710986	 0.284026
H	-0.4664765289	-3.7516544544	-0.0361166028	 0.11618
H	-1.350099483	-2.1784560065	-0.2446294121	 0.116565
H	 1.6465289906	-2.8161360738	-0.9639334603	 0.108044
194.4818	228.9996	229.6041	263.2803	291.5234	358.0281	410.6416	442.7151	511.5919	610.4491	627.1808	743.9704	796.0572	832.9884	844.4624	865.2393	884.3433	892.0194	944.965	973.3034	1013.0012	1029.7636	1048.9677	1061.6254	1078.5408	1088.2874	1124.1712	1174.512	1198.2166	1236.4924	1241.8191	1261.7423	1280.1565	1284.5196	1327.1489	1384.3084	1402.5446	1421.4252	1491.9524	1497.9635	1508.5453	3034.0901	3086.3756	3090.959	3115.2934	3119.2116	3127.6859	3136.8528	3195.7279	3210.4399	3799.2284
CC1C2OC1C1(O)CC21	C[C@H]1[C@H]2O[C@@H]1[C@@]1(O)C[C@@H]21	
InChI=1S/C7H10O2/c1-3-5-4-2-7(4,8)6(3)9-5/h3-6,8H,2H2,1H3	InChI=1S/C7H10O2/c1-3-5-4-2-7(4,8)6(3)9-5/h3-6,8H,2H2,1H3/t3-,4-,5+,6-,7+/m0/s1
