18
gdb 34881	2.21649	1.76533	1.21678	4.2057	79.92	-0.2657	0.0263	0.292	1063.9709	0.148384	-364.782752	-364.774938	-364.773993	-364.815097	30.521	
N	-0.0957440522	-1.1766389023	-0.109724255	-0.343737
C	-0.0705373795	-0.0223105707	-0.0432114504	 0.290426
C	 0.0001483159	 1.4321012247	 0.0379261489	-0.255644
C	-0.261528292	 2.0900975233	 1.4091166976	-0.049131
C	 0.8002795647	 1.7159565424	 2.4032618251	-0.289249
C	 1.1135036746	 2.762419385	 1.3690389806	-0.135701
C	 1.4109891636	 2.0920867762	 0.0429784768	 0.380711
C	 2.7023996315	 1.5060371553	-0.4399952308	-0.326477
C	 2.0825371578	 2.6898314013	-1.1528862174	-0.343016
H	-0.6305359644	 1.8649109619	-0.7436402466	 0.124815
H	-1.2193012477	 2.4987882783	 1.70258728	 0.103886
H	 0.6281879365	 2.0878939422	 3.4080164417	 0.11996
H	 1.2779598936	 0.7407821396	 2.3603119305	 0.13171
H	 1.373749836	 3.782170549	 1.6247690748	 0.097447
H	 3.5907564316	 1.6738498815	 0.159874653	 0.119933
H	 2.6667616935	 0.5391538096	-0.9312193718	 0.134692
H	 1.6380301293	 2.5244940339	-2.1292957694	 0.120126
H	 2.5516546671	 3.6616558188	-1.0361130476	 0.11925
97.1257	128.383	185.7611	253.6839	302.9849	380.309	472.3571	496.7262	551.7158	617.4224	743.7476	770.2564	791.1385	821.1461	891.2664	919.9214	935.8448	951.1212	979.747	995.0655	1009.9626	1051.5136	1056.875	1065.99	1078.273	1083.1605	1091.9012	1170.8992	1186.7609	1203.1604	1226.5118	1281.4543	1315.1485	1345.3643	1398.8911	1464.0038	1489.411	1506.236	2349.9433	3073.8821	3119.7534	3124.1065	3131.1659	3186.7547	3199.1331	3204.3488	3211.8884	3220.7908
N#CC1C2CC2C11CC1	N#C[C@H]1[C@H]2C[C@H]2C21CC2	
InChI=1S/C8H9N/c9-4-7-5-3-6(5)8(7)1-2-8/h5-7H,1-3H2	InChI=1S/C8H9N/c9-4-7-5-3-6(5)8(7)1-2-8/h5-7H,1-3H2/t5-,6+,7-/m0/s1
