18
gdb 16691	4.09226	1.64335	1.52009	1.3381	73.47	-0.2192	0.023	0.2422	913.4185	0.154414	-347.774684	-347.767423	-347.766479	-347.805684	28.998	
C	-0.0198972056	 1.4293303351	 0.0839434686	-0.518421
C	-0.0372179475	-0.0591881467	 0.0225275244	 0.34835
C	-0.0436377072	-0.9047085539	-1.0202664058	-0.194404
C	 0.0176224437	-2.28544323	-0.3770062771	-0.110678
C	-1.0003659245	-2.1019112572	 0.7958314809	-0.241778
C	 0.0239617476	-1.0021680183	 1.2265023969	-0.163732
C	 1.1489692091	-1.9923455448	 0.6976371179	 0.195625
O	 1.584409658	-3.0271938773	 1.529797265	-0.446866
H	 0.8745941314	 1.7982597075	 0.6021845484	 0.128024
H	-0.0338204861	 1.8678013137	-0.918230044	 0.124433
H	-0.8827504214	 1.8209958828	 0.6378863674	 0.125421
H	-0.030798882	-0.6851705214	-2.0791483186	 0.093666
H	 0.0363493565	-3.1717346284	-1.010971597	 0.06143
H	-2.0087134558	-1.7721118502	 0.5348196964	 0.097493
H	-1.0622720957	-2.9552860911	 1.4828304123	 0.075447
H	 0.0511565981	-0.5771100463	 2.2306240132	 0.059452
H	 2.0509996225	-1.5142546107	 0.3094664624	 0.084896
H	 0.8217266091	-3.4878348027	 1.8945814789	 0.281642
160.6839	181.7518	239.7693	300.9599	323.1401	390.0326	490.3401	514.0676	575.2527	614.1848	767.6306	789.9313	842.4507	862.1311	867.4298	926.2421	945.3774	990.2208	1001.3944	1038.4625	1061.3309	1076.4754	1102.8116	1116.5338	1178.288	1210.3334	1216.4012	1227.2691	1249.4132	1253.6969	1288.1573	1318.1023	1414.526	1427.9651	1478.0901	1487.8341	1505.7518	1678.9362	3013.9792	3022.9483	3058.6236	3094.7619	3103.8033	3104.6728	3111.2438	3120.7469	3222.0356	3813.6685
CC1=CC2CC1C2O	CC1=C[C@@H]2C[C@H]1[C@H]2O	
InChI=1S/C7H10O/c1-4-2-5-3-6(4)7(5)8/h2,5-8H,3H2,1H3	InChI=1S/C7H10O/c1-4-2-5-3-6(4)7(5)8/h2,5-8H,3H2,1H3/t5-,6-,7+/m1/s1
