14
gdb 21189	3.48927	1.83175	1.21467	2.9472	60.22	-0.2054	0.009	0.2144	937.5767	0.107745	-415.83917	-415.831735	-415.830791	-415.870987	27.2	
C	-0.1339818647	 1.4233613639	-0.0141672737	-0.329868
N	 0.1860380588	 0.0136258492	 0.1204986855	-0.398442
C	 0.6777401419	-0.639936804	-0.9997551051	 0.121597
C	 1.221082767	-0.1771448646	-2.1594627297	 0.003133
O	 1.6253863041	-1.2092185226	-2.9419462109	-0.186887
N	 1.3306785121	-2.4042559613	-2.2966279645	-0.24709
C	 0.7807221988	-2.0560489278	-1.1636346658	 0.385396
O	 0.3414411784	-2.9433938648	-0.2522114511	-0.427975
H	 0.7833035293	 1.991298231	-0.2065455777	 0.134757
H	-0.8420113878	 1.6368879817	-0.8315073657	 0.114026
H	-0.5592292438	 1.7872041683	 0.9235076256	 0.130296
H	-0.5211163145	-0.5252223621	 0.6002865775	 0.247419
H	 1.3936401492	 0.8091948793	-2.5564915918	 0.140342
H	 0.5052819313	-3.8296926964	-0.6005510926	 0.313297
92.5397	163.1932	194.9198	280.469	308.1409	368.6286	449.9378	522.6952	570.3506	582.1677	660.4791	728.561	767.4443	795.7856	913.4288	972.3447	1079.9837	1130.8222	1153.8736	1171.7519	1211.7778	1282.791	1316.3459	1461.1963	1476.0778	1488.8311	1517.299	1526.3654	1588.2802	1705.7623	2972.3846	3060.7253	3124.1432	3279.494	3589.1739	3786.4568
CNC1=CON=C1O	CNc1conc1O	
InChI=1S/C4H6N2O2/c1-5-3-2-8-6-4(3)7/h2,5H,1H3,(H,6,7)	InChI=1S/C4H6N2O2/c1-5-3-2-8-6-4(3)7/h2,5H,1H3,(H,6,7)
