20
gdb 96383	2.41596	1.60455	1.2792	0.4947	74.26	-0.2442	0.0725	0.3167	1066.0023	0.173092	-440.261273	-440.253209	-440.252265	-440.293545	32.157	
O	 0.0246888786	 1.4571205234	 0.0318059573	-0.440411
C	-0.0200249572	 0.0387267556	-0.0220018051	 0.047648
C	 0.7040166162	-0.5530786312	 1.1919044927	-0.118617
O	 0.0282355274	-0.1600850622	 2.3789762828	-0.263618
C	-1.2815333284	-0.7239277912	 2.4470552428	-0.080708
C	-2.162456212	-0.2356376614	 1.2922797476	-0.281202
C	-1.4550231971	-0.4792150773	-0.0294465951	 0.345134
C	-2.194848627	-0.548526603	-1.3057351507	-0.30252
N	-1.721206788	-1.7903718631	-0.6542355443	-0.364081
H	-0.0520381721	 1.6939930889	 0.9647403117	 0.28792
H	 0.485786476	-0.2597541672	-0.9496038628	 0.069509
H	 0.7557550566	-1.6512026484	 1.1186503168	 0.095847
H	 1.7194576111	-0.1533294532	 1.2636407117	 0.114968
H	-1.2099364733	-1.8226568541	 2.4222874057	 0.10464
H	-1.6892041952	-0.4274680289	 3.4170849931	 0.10984
H	-3.1246357469	-0.7560612233	 1.3044019685	 0.110381
H	-2.3567724154	 0.8373082274	 1.4088104296	 0.106693
H	-3.2744852625	-0.4244220347	-1.3152698891	 0.116636
H	-1.6916436554	-0.2059967053	-2.2064114224	 0.115887
H	-0.8884795154	-2.1278509907	-1.1342305608	 0.226054
111.9164	159.257	223.8937	280.812	305.1347	386.4209	403.8147	430.8699	435.7152	492.3935	580.5525	669.9632	747.5594	838.6962	862.425	878.4614	910.9455	927.5217	967.6043	982.756	1001.9218	1038.4409	1072.9051	1091.6043	1119.3859	1126.9425	1149.3628	1219.7247	1238.6459	1257.4317	1271.6535	1295.9433	1323.3656	1336.1497	1361.4192	1382.6347	1407.9081	1419.6557	1434.1832	1469.8604	1484.3939	1499.9404	1513.6122	2981.8498	2988.6407	3025.6697	3038.7323	3091.7576	3093.8969	3097.1106	3105.5265	3190.4285	3474.3095	3776.7369
OC1COCCC11CN1	O[C@H]1COCC[C@]21CN2	
InChI=1S/C6H11NO2/c8-5-3-9-2-1-6(5)4-7-6/h5,7-8H,1-4H2	InChI=1S/C6H11NO2/c8-5-3-9-2-1-6(5)4-7-6/h5,7-8H,1-4H2/t5-,6+/m0/s1
