13
gdb 25133	3.69483	1.21313	0.91327	3.9577	78.28	-0.2397	-0.0911	0.1485	1163.3038	0.090908	-415.651873	-415.644715	-415.643771	-415.683786	26.709	
N	-0.0245217139	 1.3348956631	 0.0106473175	-0.523079
C	-0.0177382224	 0.066818503	 0.0032741709	 0.402091
O	 1.190171376	-0.6421033949	-0.0071249143	-0.235269
C	 1.2151402874	-1.9909289324	-0.0150616704	 0.086589
C	 0.1138331385	-2.7570015952	-0.0137535387	-0.258196
C	-1.1711207371	-2.0891184169	-0.0031884257	 0.174737
C	-1.2262134407	-0.7339627973	 0.0049414853	-0.236977
C	-2.3686850354	-2.8711934722	-0.0014701791	 0.226024
N	-3.3244368532	-3.5237438297	-0.0002630251	-0.315101
H	 0.9249415317	 1.7085578632	 0.0078592495	 0.231884
H	 2.2295936136	-2.3696952183	-0.0225428866	 0.153092
H	 0.1875578923	-3.8345002419	-0.0203742273	 0.139053
H	-2.1608889666	-0.1901932606	 0.012961934	 0.155152
130.4313	139.0196	152.3203	350.7467	413.7248	432.0385	458.0924	561.6541	585.1555	672.5867	709.6277	731.29	792.4079	834.5638	854.4406	922.7144	943.2313	988.1734	1060.6743	1110.1877	1166.0237	1254.7351	1299.269	1342.7027	1448.7097	1594.7705	1673.5003	1730.309	2347.9279	3219.8617	3238.7354	3249.7665	3494.4912
N=C1OC=CC(=C1)C#N	[NH]C1=C[C@@H](C=CO1)C#N	
InChI=1S/C6H4N2O/c7-4-5-1-2-9-6(8)3-5/h1-3,8H	InChI=1S/C6H5N2O/c7-4-5-1-2-9-6(8)3-5/h1-3,5,8H/t5-/m1/s1
