16
gdb 67868	2.62095	1.70579	1.40863	3.9603	69.57	-0.2457	-0.0155	0.2302	962.0862	0.125695	-437.916403	-437.908805	-437.907861	-437.948399	29.076	
N	-0.0923264326	 1.4476115866	-0.1522407203	-0.598754
C	-0.0101394058	 0.0117754373	-0.0426184365	 0.111979
C	 0.7614669082	-0.7366713885	-1.1063559981	-0.156877
C	 0.0874448423	-1.7770555825	-1.5982956225	-0.056999
C	-1.273716586	-1.9506963418	-0.9623926117	-0.296196
C	-1.2884723825	-0.8768847861	 0.1213369392	 0.10187
O	-0.761426628	-1.3730546748	 1.4064772768	-0.263695
C	 0.298307717	-0.5109373832	 1.3741882149	 0.430237
O	 1.101252051	-0.2890885147	 2.2234684994	-0.336207
H	 0.5065670531	 1.8898938025	 0.5371017578	 0.250766
H	 0.1978446671	 1.7670380216	-1.069225196	 0.234687
H	 1.7603067665	-0.429300248	-1.3951649153	 0.108249
H	 0.4604278525	-2.4523080998	-2.3603377769	 0.109238
H	-2.0861701056	-1.8201597557	-1.6877329369	 0.119638
H	-1.4042910624	-2.9430136849	-0.5145125467	 0.136416
H	-2.2306841149	-0.3570033081	 0.2871596331	 0.105647
119.8118	158.0958	189.1967	235.2157	316.3937	337.6738	439.199	535.8316	663.3362	686.2999	716.4707	745.9176	780.1404	808.7653	844.8573	858.1491	934.6168	951.1635	971.8167	1007.5008	1021.6662	1096.1466	1128.5491	1135.0294	1172.9841	1225.3824	1279.3831	1303.9641	1325.427	1343.3756	1382.9907	1460.9999	1654.8859	1672.8887	1927.2701	3032.8511	3069.1515	3133.4533	3187.9797	3211.8915	3511.8421	3595.1099
NC12C=CCC1OC2=O	N[C@]12C=CC[C@H]1OC2=O	
InChI=1S/C6H7NO2/c7-6-3-1-2-4(6)9-5(6)8/h1,3-4H,2,7H2	InChI=1S/C6H7NO2/c7-6-3-1-2-4(6)9-5(6)8/h1,3-4H,2,7H2/t4-,6-/m1/s1
