15
gdb 125434	3.08596	1.46677	1.00171	5.7391	72.62	-0.2226	-0.0692	0.1533	1115.2857	0.11403	-450.168597	-450.160587	-450.159643	-450.201096	30.232	
C	-0.0513167378	 1.4983383974	-0.0033903512	-0.495956
C	-0.0100320426	-0.0035362224	-0.0127848849	 0.309085
N	-0.0057131183	-0.6208034496	-1.1510115407	-0.35503
C	 0.0169027613	-2.0211897236	-1.1813560793	 0.444411
O	 0.0237982917	-2.6813225684	-2.1969041033	-0.380326
N	 0.0278342494	-2.6283562412	 0.0715931633	-0.273401
N	 0.0490796835	-2.02539891	 1.2734977266	-0.246514
C	 0.0182484823	-0.7262636393	 1.252037307	 0.319742
N	-0.0719148354	-0.0396320834	 2.4591806606	-0.566166
H	 0.8667673859	 1.9128234031	 0.4333891227	 0.136095
H	-0.1478598656	 1.8657697884	-1.0246419295	 0.161637
H	-0.8886034176	 1.8568369591	 0.6050337613	 0.153036
H	 0.039575644	-3.6380213592	 0.0945707432	 0.278096
H	 0.0831375538	-0.6451102097	 3.2552244655	 0.259843
H	 0.4833616256	 0.8026119688	 2.5155192688	 0.255447
81.3541	173.2519	205.8444	297.8007	304.2893	367.827	372.3799	413.3266	505.6033	535.1968	584.1238	617.2393	684.3368	711.0359	735.2921	801.6501	822.2587	927.9428	1041.4033	1051.3961	1098.137	1158.3124	1243.1593	1300.9301	1395.8357	1420.7689	1459.8914	1468.6979	1478.7054	1581.4582	1634.6701	1685.4391	1811.6318	3025.6033	3086.487	3160.4605	3547.2183	3613.0482	3649.556
CC1=NC(=O)NN=C1N	Cc1nc(=O)[nH]nc1N	
InChI=1S/C4H6N4O/c1-2-3(5)7-8-4(9)6-2/h1H3,(H2,5,7)(H,6,8,9)	InChI=1S/C4H6N4O/c1-2-3(5)7-8-4(9)6-2/h1H3,(H2,5,7)(H,6,8,9)
