18
gdb 126750	4.87471	0.93996	0.83522	2.6184	75.74	-0.2234	0.0151	0.2385	1415.4554	0.148645	-435.291679	-435.282711	-435.281767	-435.326215	31.491	
C	-0.1494792831	 1.5277928106	 0.1094920312	-0.374096
C	 0.1207123101	 0.0271202099	 0.0083121307	-0.143126
N	 0.7394386242	-0.5072997424	 1.2087962592	 0.060216
C	 0.2552667297	-1.3766396919	 2.1082137902	 0.000957
N	 1.1343606463	-1.5912197662	 3.0762154662	-0.369763
C	 2.16890446	-0.7952881023	 2.6971072115	 0.463573
O	 3.3120646084	-0.6771269555	 3.3761059328	-0.251053
C	 3.4099944894	-1.4574052454	 4.5653123633	-0.229726
N	 1.9921693412	-0.1121497195	 1.5741132502	-0.357941
H	 0.7827749587	 2.0661304032	 0.2926767855	 0.156943
H	-0.5882741685	 1.8916823816	-0.8241283883	 0.121638
H	-0.8425121015	 1.7459832385	 0.9272305251	 0.12639
H	-0.8069136015	-0.5325006635	-0.1446080058	 0.12139
H	 0.7835280597	-0.1864634784	-0.8361794757	 0.136004
H	-0.7228630668	-1.8267290776	 2.0237890592	 0.141012
H	 3.3238149358	-2.5258071934	 4.3446708802	 0.133948
H	 4.3942269041	-1.2377193072	 4.9809037368	 0.129729
H	 2.628870494	-1.1850885803	 5.2817510078	 0.133906
60.0104	76.7576	126.8638	162.829	192.3223	245.2086	302.2866	355.1767	432.0236	521.6658	646.251	672.4993	741.7278	772.1161	799.7925	840.4062	973.0681	1010.3222	1033.9948	1094.015	1119.2415	1134.4027	1182.5696	1204.4211	1233.058	1270.3464	1349.2735	1361.5287	1393.3307	1409.7809	1446.3553	1478.379	1481.7879	1482.5199	1488.3002	1501.9795	1509.0376	1534.6168	1602.8785	3037.4222	3048.4857	3054.0715	3097.7749	3105.7321	3121.5316	3141.9813	3146.5027	3250.9951
CCN1C=NC(OC)=N1	CCn1cnc(OC)n1	
InChI=1S/C5H9N3O/c1-3-8-4-6-5(7-8)9-2/h4H,3H2,1-2H3	InChI=1S/C5H9N3O/c1-3-8-4-6-5(7-8)9-2/h4H,3H2,1-2H3
