18
gdb 35416	2.61764	1.67867	1.36045	1.0554	81.7	-0.2156	0.0205	0.2361	1006.6715	0.148631	-364.757385	-364.749745	-364.748801	-364.789605	30.203	
C	 0.1700557454	-1.1167566814	 0.6952529888	-0.49583
C	 0.1061664347	 0.0429264888	 0.3805066367	 0.359086
C	 0.0128773444	 1.4387855532	-0.0178181681	-0.135565
C	-0.5808935417	 2.4083870494	 1.0531990803	-0.269467
C	 0.8244686429	 3.057578175	 1.1258261187	-0.007118
C	 1.7458631881	 2.6433746639	 2.2424856917	-0.085841
C	 2.7057199444	 1.8431126834	 1.7828317608	-0.060475
C	 2.5499034908	 1.5984641664	 0.2962421248	-0.226615
N	 1.2797750101	 2.2548161562	-0.0519498848	-0.108797
H	 0.2215012662	-2.139335894	 0.9773867497	 0.199513
H	-0.4984170625	 1.488402767	-0.9862341355	 0.107047
H	-1.3609068841	 3.0619628903	 0.6593204187	 0.109428
H	-0.9317076695	 1.9280003866	 1.9665289098	 0.117124
H	 0.8387145088	 4.1440591926	 0.9649722553	 0.078254
H	 1.639961086	 2.9983284355	 3.2610443877	 0.096678
H	 3.5220160615	 1.430196037	 2.364453365	 0.097195
H	 3.3828121295	 2.0381156999	-0.272217226	 0.104206
H	 2.5177908151	 0.5327147604	 0.0431784565	 0.121175
64.5459	152.2773	216.4087	248.6967	365.8254	447.3645	499.7831	561.1324	606.8511	654.7756	676.7463	690.8808	737.9063	763.3103	818.858	862.3263	920.1807	932.766	959.389	984.2309	1016.5324	1055.364	1069.0263	1076.6975	1115.9815	1135.7435	1148.331	1223.7521	1240.4217	1262.5321	1273.3912	1311.3657	1345.408	1348.6729	1363.2697	1482.533	1494.2408	1674.0313	2223.0535	2991.8077	3003.8953	3026.966	3059.426	3083.1008	3144.7233	3190.3139	3215.1735	3501.6558
C#CC1CC2C=CCN12	C#C[C@H]1C[C@H]2C=CCN12	
InChI=1S/C8H9N/c1-2-7-6-8-4-3-5-9(7)8/h1,3-4,7-8H,5-6H2	InChI=1S/C8H9N/c1-2-7-6-8-4-3-5-9(7)8/h1,3-4,7-8H,5-6H2/t7-,8+/m0/s1
