19
gdb 26366	4.05201	0.98713	0.88662	3.3705	77.8	-0.1942	0.0338	0.228	1355.9876	0.159786	-419.253283	-419.244249	-419.243304	-419.287799	33.817	
C	 0.0125938967	 1.4279486067	-0.2271092993	-0.376132
C	 0.0265696655	-0.0689643841	 0.1117647606	 0.043545
C	 0.7086048387	-0.3487176412	 1.4524900389	-0.402385
N	-1.3285764643	-0.6270293251	 0.0701826224	 0.019038
C	-2.2236963001	-0.7445358913	 1.0826621281	 0.002016
N	-3.3915206488	-1.2074154071	 0.6684172691	-0.366628
C	-3.2409260663	-1.3853953639	-0.6738121892	 0.335058
O	-4.2478445826	-1.8615436867	-1.4404527172	-0.437469
C	-1.9811508247	-1.0347215804	-1.0870436637	-0.232449
H	 1.034357278	 1.8164035476	-0.280406428	 0.119505
H	-0.4747255199	 1.6048023623	-1.1894228104	 0.131655
H	-0.5307079849	 1.9904417778	 0.5388714075	 0.127271
H	 0.5842954484	-0.5976639014	-0.66967158	 0.100656
H	 0.6827812067	-1.4139286657	 1.696217549	 0.134183
H	 1.7533777982	-0.0302507088	 1.4025314218	 0.125226
H	 0.2366847117	 0.2066000186	 2.2690345596	 0.128354
H	-1.9862970657	-0.4908554528	 2.1030267945	 0.126713
H	-4.9879027527	-2.0131173463	-0.8401020188	 0.298228
H	-1.4969513338	-1.0473274881	-2.0475080648	 0.123617
24.2611	105.3101	196.1317	238.4656	266.9867	297.0123	320.5927	378.4706	403.6391	444.0206	498.71	616.7013	648.3467	654.8549	729.6602	739.0735	797.3608	884.8201	933.2193	953.413	1015.6506	1034.3241	1112.7516	1140.3613	1159.5401	1182.0539	1224.1101	1279.6591	1305.629	1356.0555	1377.858	1399.7106	1401.77	1421.7096	1462.6031	1483.7112	1489.2119	1500.0395	1511.151	1535.9962	1657.1312	3038.402	3039.883	3045.9587	3109.9896	3117.2444	3122.2377	3126.2564	3268.6084	3285.7554	3801.7203
CC(C)N1C=NC(O)=C1	CC(C)n1cnc(O)c1	
InChI=1S/C6H10N2O/c1-5(2)8-3-6(9)7-4-8/h3-5,9H,1-2H3	InChI=1S/C6H10N2O/c1-5(2)8-3-6(9)7-4-8/h3-5,9H,1-2H3
