18
gdb 6342	5.03435	1.09723	0.91604	0.8694	72.53	-0.2517	-0.0073	0.2443	1271.2964	0.152717	-381.177126	-381.167702	-381.166757	-381.212432	32.643	
C	 0.1216909006	 1.401858657	-0.3976195981	-0.37032
C	-0.3876585648	 0.3015645589	 0.5294461885	-0.307291
C	-1.4877404797	-0.5424767487	-0.1129534269	 0.426366
O	-1.8989550174	-0.3461104104	-1.2381636538	-0.35603
N	-1.9566655359	-1.5413168051	 0.7183662286	-0.335812
C	-2.9464780278	-2.5114554203	 0.5057985644	 0.355982
C	-3.6540595507	-2.5235932613	-0.82358778	-0.443383
N	-3.1479674449	-3.3019268289	 1.4867871607	-0.505187
H	 0.9059894211	 1.9835314712	 0.0944645404	 0.110512
H	 0.5283782532	 0.9777350393	-1.3186665991	 0.134616
H	-0.6880733351	 2.0783504363	-0.6808212625	 0.134586
H	 0.4298312865	-0.3677858166	 0.8281640843	 0.126314
H	-0.7803846999	 0.7267506326	 1.4624700226	 0.126281
H	-1.5450638407	-1.6191460513	 1.6386499787	 0.255244
H	-2.9466662434	-2.6632132399	-1.6440922719	 0.157442
H	-4.390358407	-3.3302130395	-0.8301471938	 0.112804
H	-4.1502106498	-1.569310314	-1.0138154184	 0.157512
H	-3.8773123144	-3.9741050592	 1.2566832062	 0.220364
33.8692	65.5286	102.9894	159.601	172.1369	195.6381	300.7126	348.0867	413.1429	535.4213	537.1608	585.4021	683.6695	696.8218	813.6593	836.4361	859.8553	938.3376	1020.8246	1038.4512	1071.6438	1083.6171	1098.4128	1136.4104	1207.02	1285.1361	1365.6808	1389.9746	1414.8702	1428.9513	1462.0599	1464.3535	1464.5198	1490.6241	1497.3514	1504.6884	1715.8111	1795.8431	3022.5444	3053.8746	3054.2239	3057.9411	3125.8321	3132.4675	3132.9771	3141.7225	3503.3084	3595.5167
CCC(=O)NC(C)=N	CCC(=O)NC(=N)C	
InChI=1S/C5H10N2O/c1-3-5(8)7-4(2)6/h3H2,1-2H3,(H2,6,7,8)	InChI=1S/C5H10N2O/c1-3-5(8)7-4(2)6/h3H2,1-2H3,(H2,6,7,8)
