16
gdb 15663	3.57497	1.82833	1.27734	4.4278	66.84	-0.2492	-0.0569	0.1923	924.0076	0.13166	-383.775752	-383.768545	-383.767601	-383.807441	27.071	
O	 0.0208041596	 1.451210199	-0.0884188845	-0.426271
C	 0.0680005633	 0.0458166067	-0.06536615	-0.061265
C	-1.3389377518	-0.5722300541	 0.0235718002	-0.124622
C	-1.402447921	-2.1120928339	 0.0017555177	-0.302296
C	-2.2353748725	-2.4691320324	 1.2073735709	-0.044159
C	-2.5807293929	-1.4050469872	 1.943828939	-0.164134
C	-2.0178236256	-0.1798555764	 1.3441635493	 0.386965
O	-2.0363110294	 0.9437391634	 1.8116004992	-0.362358
H	-0.5605191373	 1.7157767893	 0.6408065337	 0.297195
H	 0.5571215057	-0.2783085584	-0.9910952187	 0.105132
H	 0.6786458677	-0.3341651092	 0.77347131	 0.083306
H	-1.9350284322	-0.1441999239	-0.7910431739	 0.116475
H	-1.8390227014	-2.5098854346	-0.9211841904	 0.126188
H	-0.4047489462	-2.5652752286	 0.083658117	 0.127384
H	-2.4970122918	-3.4970257358	 1.4364203756	 0.121455
H	-3.1497293142	-1.3997014039	 2.8643008548	 0.121004
74.1364	169.386	217.7882	266.6732	359.1963	399.9822	483.7175	574.8136	634.5322	680.5188	761.6303	775.7267	809.3036	906.587	951.6078	1001.9676	1002.5804	1048.0301	1090.4148	1099.2902	1114.9184	1185.1302	1194.7991	1205.969	1278.5122	1287.3043	1339.0442	1365.3419	1383.1436	1467.6566	1471.26	1515.1146	1645.1732	1779.8365	2942.6842	3019.7607	3043.8818	3056.6229	3065.1667	3190.2438	3230.5597	3702.2411
OCC1CC=CC1=O	OC[C@H]1CC=CC1=O	
InChI=1S/C6H8O2/c7-4-5-2-1-3-6(5)8/h1,3,5,7H,2,4H2	InChI=1S/C6H8O2/c7-4-5-2-1-3-6(5)8/h1,3,5,7H,2,4H2/t5-/m1/s1
