18
gdb 7151	7.16354	0.72015	0.66507	0.2333	64.89	-0.2479	-0.0129	0.235	1627.043	0.150629	-422.083396	-422.073356	-422.072412	-422.119699	33.675	
O	-0.2040582617	 1.474956237	 0.0121130852	-0.424742
C	 0.0134101367	 0.0714489242	 0.0027775633	-0.074349
C	-1.3549297737	-0.5935634472	 0.0118220685	-0.279416
C	-1.2869064666	-2.1109478313	 0.0031392494	 0.358109
O	-0.2283092383	-2.7031473566	-0.0100040028	-0.307571
C	-2.6155513789	-2.8470093178	 0.0117499808	-0.279416
C	-2.466209493	-4.3610418869	 0.0028008359	-0.074349
O	-3.7760165391	-4.9101621802	 0.0120095648	-0.424742
H	 0.6538738948	 1.9089643501	 0.0064299805	 0.287553
H	 0.5731437835	-0.2489668301	-0.8873093635	 0.101672
H	 0.5893158459	-0.2581967333	 0.8790772925	 0.101656
H	-1.924934089	-0.2657585446	 0.8910904722	 0.131172
H	-1.9408793977	-0.2565696083	-0.8533890692	 0.131185
H	-3.193258981	-2.5327573259	 0.8909379326	 0.131168
H	-3.2092538683	-2.5240884391	-0.8535439039	 0.131189
H	-1.9001580931	-4.6703953543	-0.887203514	 0.101675
H	-1.8840395818	-4.6792622401	 0.8791855113	 0.101653
H	-3.6969129375	-5.8683660216	 0.0064479562	 0.287553
47.1626	57.027	92.9844	109.1529	110.1062	233.5531	273.0588	275.291	307.357	384.6872	434.1568	476.3653	698.5148	723.6642	816.4589	895.5768	970.454	976.9805	1048.0705	1050.4017	1081.5327	1114.4716	1124.1213	1196.3413	1226.7991	1249.309	1257.6735	1297.2604	1311.8544	1330.2641	1372.0913	1445.2724	1451.4893	1467.2022	1474.3648	1522.908	1523.2702	1792.8659	2996.8114	2997.6168	3024.2505	3025.4583	3026.1063	3035.5253	3060.1693	3070.035	3831.2342	3831.2778
OCCC(=O)CCO	OCCC(=O)CCO	
InChI=1S/C5H10O3/c6-3-1-5(8)2-4-7/h6-7H,1-4H2	InChI=1S/C5H10O3/c6-3-1-5(8)2-4-7/h6-7H,1-4H2
