25
gdb 106967	3.14365	1.04758	0.96967	0.2575	93.29	-0.2413	0.0859	0.3272	1414.877	0.227593	-352.346028	-352.335954	-352.33501	-352.380374	39.356	
C	 0.0811633455	 1.5101093162	-0.2201897942	-0.371796
C	-0.1183864621	 0.0120602951	 0.0495688527	-0.299367
C	 0.6284504919	-0.4710008711	 1.2634834028	 0.412904
C	 2.0746953741	-0.884551393	 1.2300843168	-0.35026
C	 1.0419691707	-1.885414145	 1.6779933995	-0.147458
C	 0.5797981213	-1.63298414	 3.1285841353	 0.349561
C	-0.6880351039	-2.4306935807	 3.4409937877	-0.437757
C	 1.6168576298	-1.8193975546	 4.2351103023	-0.444275
C	 0.2371758787	-0.152168731	 2.7176789746	-0.351323
H	 1.1382493137	 1.7408835679	-0.3880183143	 0.11727
H	-0.4805387281	 1.8324794742	-1.1025797939	 0.108302
H	-0.2584768033	 2.1126924397	 0.6291509173	 0.117467
H	-1.1905985085	-0.1940531158	 0.1721284554	 0.092238
H	 0.2056859264	-0.5648319184	-0.8262919884	 0.093081
H	 2.4811034394	-1.0640981348	 0.238659333	 0.104328
H	 2.7958749562	-0.4661060215	 1.9285122668	 0.099672
H	 0.8938588504	-2.8194373398	 1.1444312489	 0.072057
H	-0.4659670173	-3.5007533962	 3.5304198742	 0.108219
H	-1.1377249883	-2.1022384736	 4.3850252508	 0.108319
H	-1.4358103184	-2.3105162951	 2.6499671651	 0.110456
H	 2.5402031004	-1.2708746173	 4.028029765	 0.109866
H	 1.2291602998	-1.4638994817	 5.1971693357	 0.108797
H	 1.8774729888	-2.8776747906	 4.3535212624	 0.109445
H	 0.8229559272	 0.6346817604	 3.2056842108	 0.086514
H	-0.8247354141	 0.0780665868	 2.8444066039	 0.093739
77.8135	104.9966	175.7829	219.2934	230.114	250.2452	264.0822	322.5991	344.4388	387.9059	400.1967	421.364	487.6798	594.907	676.4262	785.6838	791.6738	835.9245	861.7071	900.22	938.4717	949.5241	970.7496	981.4421	986.4222	996.5857	1026.6162	1047.4151	1061.7914	1082.3859	1089.7751	1142.2799	1200.6249	1206.169	1233.5427	1253.1583	1273.501	1306.4717	1325.0749	1356.6257	1398.9337	1401.937	1410.4426	1423.9547	1477.8973	1479.2964	1483.06	1487.0703	1498.6464	1500.0544	1505.8594	1507.6659	1509.1691	3007.5679	3017.7324	3023.7669	3031.8931	3034.8014	3042.2341	3080.6627	3086.2193	3088.5545	3094.8121	3098.8031	3100.47	3104.2873	3104.8605	3152.27	3187.2184
CCC12CC1C(C)(C)C2	CC[C@]12C[C@H]1C(C)(C)C2	
InChI=1S/C9H16/c1-4-9-5-7(9)8(2,3)6-9/h7H,4-6H2,1-3H3	InChI=1S/C9H16/c1-4-9-5-7(9)8(2,3)6-9/h7H,4-6H2,1-3H3/t7-,9+/m0/s1
