21
gdb 75604	2.29655	1.5429	1.08168	0.9432	80.61	-0.2341	0.002	0.236	1184.6629	0.183399	-424.20921	-424.200475	-424.199531	-424.242249	33.693	
C	 0.0429417706	 1.5456641708	-0.0365608954	-0.480098
C	 0.0830682918	 0.0427727794	 0.0003204918	 0.301613
C	 0.0584604181	-0.7100775215	-1.1041994386	-0.153582
C	-0.0111211626	-2.2210126007	-1.1274573441	-0.132296
O	-1.3255181005	-2.7349336341	-0.9217502789	-0.243002
C	-1.787891255	-2.7744879581	 0.4167209211	-0.095987
C	-2.2163228596	-1.4247208677	 1.0234674774	-0.071718
O	-1.2834335161	-0.7667467196	 1.8704828782	-0.258899
C	 0.0411069387	-0.5921509164	 1.3715287967	-0.155404
H	 0.9279337324	 1.9764358179	 0.4492104617	 0.124923
H	-0.0077145201	 1.9290251844	-1.0589904241	 0.120771
H	-0.8279295932	 1.9185174703	 0.5167402439	 0.139156
H	 0.0175197393	-0.2167063492	-2.0734946118	 0.086478
H	 0.2828763835	-2.5869855115	-2.1152394099	 0.107915
H	 0.6801333695	-2.6668605758	-0.3968838258	 0.097167
H	-2.674002812	-3.4167776473	 0.374672528	 0.110975
H	-1.0576486677	-3.2678107257	 1.0785567628	 0.096424
H	-2.5414565676	-0.776503718	 0.1977954808	 0.102574
H	-3.0793379585	-1.5932782214	 1.67611759	 0.10642
H	 0.5750923079	-1.5514668713	 1.3697443733	 0.091547
H	 0.5303854114	 0.0500056455	 2.1106596129	 0.105024
114.5459	161.9451	169.1569	203.5005	265.8572	300.833	347.4398	374.6269	401.0995	471.0979	500.0009	568.0052	638.2851	772.5611	801.8966	878.548	889.5506	964.4821	977.4684	991.5208	1007.2721	1059.319	1067.0388	1072.4616	1107.0469	1138.0761	1146.3295	1213.5529	1265.8676	1286.8467	1313.8485	1347.503	1359.6862	1386.5511	1397.8126	1405.3666	1410.7935	1414.7522	1475.8345	1477.6313	1485.1794	1486.6705	1491.713	1520.2475	1728.2867	2979.9254	2988.9654	3011.5738	3016.6163	3018.673	3065.643	3067.6272	3075.0138	3079.8509	3083.147	3114.1139	3143.6444
CC1=CCOCCOC1	CC1=CCOCCOC1	
InChI=1S/C7H12O2/c1-7-2-3-8-4-5-9-6-7/h2H,3-6H2,1H3/b7-2-	InChI=1S/C7H12O2/c1-7-2-3-8-4-5-9-6-7/h2H,3-6H2,1H3/b7-2-
