14
gdb 17424	3.12688	2.75893	1.87717	1.6805	62.16	-0.2579	0.0151	0.273	717.5167	0.107915	-378.654738	-378.648431	-378.647486	-378.684844	25.036	
O	 0.1111837584	 1.4346695954	-0.0951022102	-0.464491
C	 0.0040519374	 0.0753028219	-0.0466265978	 0.32327
C	 0.5057603884	-0.7965483859	-1.2230742335	-0.285859
C	-0.4521336253	-1.8666212766	-0.6937739253	-0.030063
C	-1.2924556759	-0.9032836467	 0.0210776793	-0.136165
N	-0.4255788403	-1.8655069431	 0.8234696156	-0.201894
C	 0.4028459509	-0.721173193	 1.1617896203	 0.350746
N	 1.0028569141	-0.3784344099	 2.2106254849	-0.572729
H	 0.2595025479	 1.7463658911	 0.8079291959	 0.304908
H	 0.1576652053	-0.4074559619	-2.1829235765	 0.124544
H	 1.578744656	-1.0088103037	-1.2610311337	 0.114867
H	-0.7231369487	-2.8120941545	-1.1433003831	 0.115815
H	-2.3474109285	-0.7801835803	 0.2184867047	 0.124362
H	 0.9858323202	-1.1250384227	 2.9087314495	 0.232689
157.3279	224.3522	329.7019	394.102	413.1184	485.4902	628.8309	676.1771	691.2387	759.8902	810.9296	830.6343	851.1023	881.7001	930.0533	948.4014	986.3429	1007.7132	1030.584	1074.6042	1122.2727	1138.4609	1210.7337	1231.9559	1270.598	1330.0946	1376.5507	1416.4482	1498.5563	1816.613	3055.1526	3120.7233	3211.2112	3233.1456	3460.7643	3763.762
OC12CC3C1N3C2=N	O[C@]12C[C@@H]3[C@H]1N3[C]2[NH]	
InChI=1S/C5H6N2O/c6-4-5(8)1-2-3(5)7(2)4/h2-3,6,8H,1H2	InChI=1S/C5H6N2O/c6-4-5(8)1-2-3(5)7(2)4/h2-3,6,8H,1H2/t2-,3-,5-,7?/m1/s1
