17
gdb 89688	2.74421	1.29358	1.06941	3.3637	71.28	-0.242	-0.0198	0.2222	1142.4928	0.133464	-458.938643	-458.929621	-458.928677	-458.972352	33.192	
O	-0.0426091878	 1.4514154721	-0.128176285	-0.43823
C	 0.0179531532	 0.0539278306	 0.0472391073	 0.059093
C	 0.2591906483	-0.5276225396	 1.4863389611	-0.340693
C	-1.0657605864	-1.2757051797	 1.3874505002	 0.201555
C	-2.1953229769	-0.279004977	 1.1626698465	-0.397864
C	-1.3474773312	-0.6173235276	-0.0077366947	 0.348659
O	-1.8419499177	-1.2282595365	-1.138955335	-0.455228
C	-1.3010175277	-2.6718369852	 1.7603682452	 0.060589
O	-0.4866363502	-3.3764214134	 2.311984536	-0.272236
H	 0.8554593064	 1.797804071	-0.1255514581	 0.288757
H	 0.6882363938	-0.419447486	-0.6814170366	 0.089364
H	 1.1217840306	-1.1913848921	 1.5578140038	 0.127494
H	 0.3065378633	 0.2292680901	 2.2744228475	 0.10366
H	-3.1870879117	-0.7223582876	 1.1342454481	 0.124881
H	-2.137073502	 0.6923311085	 1.6455739898	 0.134855
H	-2.5767838139	-0.7045558332	-1.4760592808	 0.297382
H	-2.3046004701	-3.0620469444	 1.4762038547	 0.067962
89.499	121.5745	161.9809	168.9026	242.4906	277.2662	297.8733	348.6384	425.5144	453.7673	480.8097	577.2321	666.351	704.7391	802.0184	802.9273	852.2589	959.3785	963.8767	1003.3157	1038.4021	1076.9962	1096.3064	1124.7918	1153.3364	1187.3514	1214.7677	1238.8289	1288.303	1331.0105	1368.0776	1384.7167	1435.5763	1440.3169	1472.9942	1500.9549	1795.2055	2872.1332	3027.9137	3061.9848	3114.1997	3133.2531	3203.9283	3804.3343	3817.6964
OC1CC2(CC12O)C=O	O[C@H]1C[C@]2(C[C@@]12O)C=O	
InChI=1S/C6H8O3/c7-3-5-1-4(8)6(5,9)2-5/h3-4,8-9H,1-2H2	InChI=1S/C6H8O3/c7-3-5-1-4(8)6(5,9)2-5/h3-4,8-9H,1-2H2/t4-,5-,6+/m0/s1
