17
gdb 20856	5.31711	1.25612	1.09022	2.9794	71.55	-0.247	0.	0.247	1124.9894	0.141801	-363.879759	-363.871559	-363.870615	-363.91299	29.182	
C	 0.0953650571	 1.3591176961	-0.5556161537	-0.375359
C	-0.1074226275	 0.1467608626	 0.3673635794	-0.29135
C	-1.4578940716	-0.4852857256	 0.2126399908	 0.397695
N	-2.3168776449	-0.4534473027	 1.2042863528	-0.209917
O	-3.4607676053	-1.1062251509	 0.7383327132	-0.212618
C	-3.2551821034	-1.5147369204	-0.5269877559	 0.443312
C	-4.3737296286	-2.2383384765	-1.1894620724	-0.490721
C	-2.0061298206	-1.1530249057	-0.9231278193	-0.420158
H	 1.0925891745	 1.7865434222	-0.4154745671	 0.118076
H	-0.0058519321	 1.0807279268	-1.6093921881	 0.118462
H	-0.6430261918	 2.1376811259	-0.3427378669	 0.131078
H	 0.6648481351	-0.6040104369	 0.1597152676	 0.112534
H	 0.0088754998	 0.4454558928	 1.4131175291	 0.127564
H	-4.6342482276	-3.1471809245	-0.6371306792	 0.150468
H	-5.2716994827	-1.6134922876	-1.2354484246	 0.150393
H	-4.0926743021	-2.5181351847	-2.2064152818	 0.139771
H	-1.5408883084	-1.3359432209	-1.8778144041	 0.110769
55.371	102.3736	130.0457	199.65	245.577	292.6828	389.5918	428.5619	582.8456	643.7913	707.8436	739.3929	793.9703	811.4096	921.1474	967.9641	1009.0546	1017.3123	1035.6671	1065.7342	1074.6389	1098.9229	1161.3978	1275.7504	1299.2592	1353.0802	1408.8063	1412.522	1449.0843	1474.425	1479.9753	1490.5071	1497.8356	1505.9609	1528.7884	1648.8697	3035.122	3039.7452	3042.6607	3088.5738	3099.0394	3112.3546	3117.9711	3138.1175	3269.8862
CCC1=NOC(C)=C1	CCc1noc(C)c1	
InChI=1S/C6H9NO/c1-3-6-4-5(2)8-7-6/h4H,3H2,1-2H3	InChI=1S/C6H9NO/c1-3-6-4-5(2)8-7-6/h4H,3H2,1-2H3
