16
gdb 50141	3.90164	1.13979	0.94832	6.361	75.93	-0.246	-0.0273	0.2187	1215.5505	0.124756	-434.047311	-434.039029	-434.038084	-434.080708	29.777	
N	 0.0585381839	 1.3001440379	-0.031398255	-0.411271
C	-0.0199830189	 0.0339241427	-0.0227819865	 0.072913
N	-1.2267381571	-0.640985506	-0.0009768713	-0.121433
C	-1.4826766248	-2.0917549038	-0.0103807698	-0.262954
C	-2.9821168662	-1.7439715409	-0.0293442238	 0.168574
C	-4.092554888	-2.3974306241	-0.7585575843	-0.2899
N	-4.0822349071	-2.3413051514	 0.7120295063	-0.341781
C	-2.5934082725	-0.2710640708	 0.0139535488	 0.421303
O	-3.1549682741	 0.7802983061	 0.0291725151	-0.325775
H	 1.0352761355	 1.5887643138	-0.0455960897	 0.231518
H	 0.8272532909	-0.6647222492	-0.0300958994	 0.096658
H	-1.1000859334	-2.6047681672	-0.8984104273	 0.126676
H	-1.1386196857	-2.6031539052	 0.8955020805	 0.124482
H	-4.8504979563	-1.7800416274	-1.231407582	 0.147931
H	-3.8818866476	-3.3410700167	-1.2558293438	 0.122328
H	-3.7956937887	-3.2360028478	 1.1031647422	 0.24073
64.0064	144.4559	166.4048	173.3732	227.2362	248.4957	352.6998	425.2306	540.2855	611.8101	717.6438	779.0795	813.7473	839.7237	862.2077	938.0862	952.8515	984.0712	1007.3132	1061.6274	1085.9198	1100.4809	1133.518	1151.328	1222.521	1249.2042	1263.9309	1282.2327	1393.2289	1416.8701	1440.9883	1510.5498	1517.3563	1717.0797	1910.3063	3026.2505	3034.405	3083.5478	3109.7345	3202.2414	3496.3144	3503.1489
N=CN1CC2(CN2)C1=O	[NH][CH]N1C[C@]2(CN2)C1=O	
InChI=1S/C5H7N3O/c6-3-8-2-5(1-7-5)4(8)9/h3,6-7H,1-2H2	InChI=1S/C5H7N3O/c6-3-8-2-5(1-7-5)4(8)9/h3,6-7H,1-2H2/t5-/m1/s1
