15
gdb 78133	2.55497	1.57738	1.31128	4.4225	68.25	-0.2557	-0.0201	0.2356	995.0099	0.112179	-453.925059	-453.917037	-453.916093	-453.957915	29.376	
O	-0.6039184229	 1.4183808552	 0.0721723806	-0.411594
C	-0.2718558305	 0.074152166	-0.0051926442	 0.099367
C	-1.3610236429	-0.9477425653	-0.0133062026	-0.072417
C	-0.4742936594	-0.7672077955	-1.2616758589	-0.241825
C	-1.7119800346	-0.2892565131	-1.972907853	 0.406736
N	-1.945285966	 0.1179266371	-3.1367543524	-0.543565
N	-2.5027443574	-0.4650776099	-0.7920884684	-0.096499
C	-3.5980062355	 0.2582685525	-0.3842583383	 0.144083
O	-4.3228357851	 0.8594922554	-1.1421743148	-0.301426
H	-0.1281945738	 1.8977494594	-0.6148757983	 0.304594
H	 0.612084751	-0.2215455205	 0.5629643861	 0.111127
H	-1.4542496019	-1.7922898424	 0.6560869044	 0.129636
H	 0.2927667373	-1.4086486916	-1.6707231887	 0.126491
H	-2.924836155	 0.3926517858	-3.2288985575	 0.253229
H	-3.7625317633	 0.1940308668	 0.7085588759	 0.092063
79.3956	125.9894	171.701	227.948	248.9336	307.6274	407.4072	449.6956	513.6285	657.628	707.5949	724.8554	800.6238	821.3503	870.0992	920.639	942.886	981.015	1017.4315	1031.1033	1060.3765	1070.3547	1151.2617	1202.8484	1233.7245	1278.4373	1292.1124	1318.9735	1375.777	1424.7197	1438.0267	1768.897	1833.678	2952.1541	3095.2703	3209.4478	3230.8814	3485.3898	3810.8893
OC1C2C1C(=N)N2C=O	O[C@H]1[C@@H]2[C@H]1[C]([NH])N2C=O	
InChI=1S/C5H6N2O2/c6-5-2-3(4(2)9)7(5)1-8/h1-4,6,9H	InChI=1S/C5H6N2O2/c6-5-2-3(4(2)9)7(5)1-8/h1-4,6,9H/t2-,3+,4-/m1/s1
