21
gdb 61882	5.32341	0.64224	0.60226	3.5829	80.29	-0.2494	-0.0217	0.2276	1818.793	0.179462	-424.216152	-424.205899	-424.204955	-424.252792	35.962	
C	 0.0853924378	 1.6219830358	 0.1772985326	-0.390931
C	 0.0360030984	 0.0934994321	 0.0333879879	 0.009437
C	 0.7152011059	-0.3611992832	-1.2755574318	-0.281584
C	-0.0191152993	 0.1165735859	-2.5078313427	 0.160528
O	 0.4802271149	 0.6973798817	-3.4362099201	-0.240406
C	 0.6660872541	-0.6282650764	 1.2405635438	-0.221946
C	-0.0643477254	-0.3979285552	 2.5421467366	 0.087249
C	 0.6189166345	-0.4298678079	 3.84122182	-0.181982
O	 0.2204167494	 0.8102245213	 3.2554312959	-0.22905
H	 1.1230447064	 1.9709959485	 0.2262596778	 0.121835
H	-0.3885480017	 2.1157801628	-0.6772997232	 0.119568
H	-0.4167524335	 1.9550969038	 1.0877150966	 0.143436
H	-1.0198269151	-0.2142903219	-0.0195770357	 0.076668
H	 1.7537898328	-0.0187278407	-1.3301919502	 0.119984
H	 0.719412152	-1.4608523675	-1.3174472563	 0.113552
H	-1.1102071794	-0.1231943667	-2.5047044312	 0.068467
H	 0.6805625632	-1.7094692104	 1.0461565528	 0.099105
H	 1.7094956425	-0.3110709507	 1.3604327157	 0.106256
H	-1.1262744283	-0.6547772155	 2.5295885007	 0.090074
H	 0.0726844723	-0.7228073077	 4.7366627289	 0.115587
H	 1.6935617584	-0.6055365678	 3.8757798116	 0.114154
50.762	57.7119	71.022	109.9027	151.1678	232.662	252.5069	273.6369	335.6552	405.8592	435.7275	484.0087	545.9352	770.2473	794.6457	858.0131	865.6833	911.5137	939.8336	958.458	986.6591	1027.4289	1056.4922	1085.418	1134.2902	1156.8881	1159.0121	1160.4583	1179.0867	1217.0459	1261.9503	1278.5727	1296.3352	1332.7513	1373.1564	1378.8581	1423.2775	1429.212	1447.9198	1456.0782	1469.1792	1497.0434	1498.3749	1531.7945	1836.6216	2838.3265	2986.3011	3005.334	3014.8398	3036.5217	3059.2332	3081.7406	3086.0621	3087.1479	3098.1836	3133.5145	3168.8345
CC(CC=O)CC1CO1	C[C@@H](CC=O)C[C@H]1CO1	
InChI=1S/C7H12O2/c1-6(2-3-8)4-7-5-9-7/h3,6-7H,2,4-5H2,1H3	InChI=1S/C7H12O2/c1-6(2-3-8)4-7-5-9-7/h3,6-7H,2,4-5H2,1H3/t6-,7-/m0/s1
