22
gdb 107615	2.41598	1.46815	1.08198	2.4559	81.56	-0.2235	0.0646	0.2881	1203.7843	0.195486	-404.34179	-404.332662	-404.331718	-404.375239	35.233	
C	-0.3603730876	 1.4293093184	-0.4686687705	-0.40842
C	-0.1096730263	-0.0561409467	-0.1990694646	-0.025264
C	 0.8291053246	-0.7184559364	-1.2423072566	-0.224645
C	 1.5229433367	-1.8913256341	-0.5117566065	-0.222905
C	 1.556292781	-1.4451207135	 0.9373647397	-0.070121
N	 2.0204468311	-0.0425838185	 1.1087837397	-0.389851
C	 0.5751915133	-0.3531331953	 1.1342312904	 0.349782
C	-0.194576658	-0.1610293995	 2.4160172125	-0.199074
O	 0.6270152325	-0.5646611102	 3.50447842	-0.42271
H	 0.5784184507	 1.9870847859	-0.3925936457	 0.132455
H	-0.7687253394	 1.5832029264	-1.4730191554	 0.109333
H	-1.0719972481	 1.860872195	 0.2438413605	 0.102878
H	-1.072681027	-0.588205855	-0.1947460624	 0.061729
H	 0.288470155	-1.0367419555	-2.1379386051	 0.088066
H	 1.5803418278	 0.0120110961	-1.5534516098	 0.117102
H	 0.9317188752	-2.8124562995	-0.58760871	 0.092843
H	 2.5169820722	-2.1047844498	-0.9180109906	 0.099736
H	 1.7732134097	-2.1506090166	 1.731932531	 0.092306
H	 2.3185990208	 0.0590374757	 2.0775060003	 0.234987
H	-0.4854409351	 0.8967741852	 2.5200778251	 0.09461
H	-1.1234799485	-0.7533441367	 2.3766996843	 0.093226
H	 0.1967839095	-0.3042033055	 4.3231651336	 0.293937
107.2818	129.9779	190.3727	214.0157	230.7057	248.4172	267.0191	324.0272	422.3256	449.4559	536.262	591.3457	648.4781	680.1297	829.3043	848.9013	865.2373	911.1732	925.66	964.3138	988.3887	1001.8287	1042.5693	1072.4086	1073.8878	1107.926	1128.1234	1135.0067	1152.6055	1206.7847	1217.7925	1243.2046	1255.0429	1298.3539	1311.3309	1325.6909	1345.5288	1359.5136	1380.0367	1404.808	1447.2642	1466.2062	1481.6822	1494.9655	1499.688	1502.8398	1519.6906	2961.6115	2987.0799	2995.0818	3029.7148	3030.6303	3061.6855	3075.5399	3091.9377	3105.8058	3110.2423	3176.1742	3489.8732	3845.5906
CC1CCC2NC12CO	C[C@H]1CC[C@H]2N[C@@]12CO	
InChI=1S/C7H13NO/c1-5-2-3-6-7(5,4-9)8-6/h5-6,8-9H,2-4H2,1H3	InChI=1S/C7H13NO/c1-5-2-3-6-7(5,4-9)8-6/h5-6,8-9H,2-4H2,1H3/t5-,6+,7-/m0/s1
