18
gdb 94957	3.57759	1.33859	1.15557	3.967	71.51	-0.2472	0.0279	0.2751	1087.5981	0.149015	-439.116522	-439.108635	-439.107691	-439.148952	30.235	
C	 0.3962041846	 1.3843104104	-0.2663924529	-0.406012
C	-0.1683144032	 0.0329343378	 0.1754894751	 0.103686
O	-0.0577959172	-0.9587869199	-0.849487282	-0.261133
C	 1.2259774308	-1.5686921009	-0.7466273351	-0.10407
C	 1.5257858292	-1.6358466889	 0.751866085	-0.212502
C	 0.5864973698	-0.553949244	 1.379213408	 0.009697
N	-0.0890113716	-1.6484192627	 2.0861949807	-0.328244
C	 0.64680772	-2.6621556667	 1.5158143903	 0.431242
O	 0.5844996495	-3.8587244769	 1.5824324474	-0.359834
H	 1.4790501044	 1.3401246905	-0.4237408898	 0.120503
H	-0.0724331756	 1.6954938019	-1.2032384488	 0.132405
H	 0.1994118964	 2.1497991008	 0.4915188832	 0.117572
H	-1.2392304148	 0.1330717997	 0.3847033691	 0.085129
H	 1.1636261341	-2.5545863591	-1.2145365654	 0.134353
H	 1.9936968834	-0.9813603033	-1.2723308124	 0.096365
H	 2.5827755189	-1.6276644855	 1.0152328157	 0.103768
H	 1.0239513425	 0.199679189	 2.0380694743	 0.088494
H	-0.984699871	-1.6782439024	 2.5530274275	 0.248581
89.5998	138.2777	220.9065	254.4495	267.3434	339.1291	416.4143	479.6285	489.6673	630.2851	688.0929	754.0553	782.9908	844.6228	862.7236	893.2951	910.1065	987.3867	1019.1972	1034.9218	1059.6362	1069.0398	1115.8832	1138.0092	1170.1014	1176.5408	1225.0602	1265.939	1279.8905	1311.4517	1340.2086	1359.6452	1385.8155	1395.6727	1403.3313	1488.4775	1496.4748	1515.7809	1899.1914	2987.6708	3037.7317	3047.9198	3083.8952	3097.0583	3104.9351	3124.8814	3130.5391	3596.079
CC1OCC2C1NC2=O	C[C@H]1OC[C@H]2[C@@H]1NC2=O	
InChI=1S/C6H9NO2/c1-3-5-4(2-9-3)6(8)7-5/h3-5H,2H2,1H3,(H,7,8)	InChI=1S/C6H9NO2/c1-3-5-4(2-9-3)6(8)7-5/h3-5H,2H2,1H3,(H,7,8)/t3-,4+,5-/m1/s1
