15
gdb 43867	3.81234	1.03421	0.90855	4.465	72.32	-0.2631	0.0161	0.2792	1236.0267	0.112256	-416.825095	-416.816988	-416.816044	-416.858313	29.928	
O	 0.06498258	-0.0146729409	 0.04140143	-0.343035
C	-0.0228638197	 1.1789459626	 0.0206654706	 0.442762
C	-1.1677204517	 2.2285603589	-0.0082899279	-0.478764
C	-0.0342598826	 3.2649324198	-0.0247920875	 0.416232
C	 0.0750898287	 4.5554466455	-0.7500215699	-0.345462
C	 0.0721197971	 4.5452190316	 0.787492135	-0.25881
C	-1.073304979	 5.0225508307	 1.5054349347	 0.297132
N	-2.0125515218	 5.3838470412	 2.077150347	-0.333866
N	 0.924201393	 2.1883258564	 0.0023615669	-0.389138
H	-1.7835156771	 2.1924668673	-0.9082285991	 0.145839
H	-1.800515752	 2.2390911079	 0.8803723189	 0.161184
H	 1.0168089527	 4.8148371442	-1.2215955204	 0.136361
H	-0.807176417	 4.9432874046	-1.246570323	 0.15245
H	 1.0239929458	 4.7379949325	 1.2720113255	 0.138622
H	 1.9335075436	 2.1712927577	-0.0015138907	 0.258493
58.7758	113.0293	156.5767	287.2669	297.0791	323.7009	419.0326	495.5602	506.4344	542.8586	559.6245	621.49	774.1246	796.7318	855.9681	897.9424	939.5585	976.8794	1016.7338	1052.9368	1079.8264	1105.7998	1115.9373	1139.1558	1198.6187	1266.3689	1271.531	1363.01	1431.4226	1460.0988	1493.3141	1913.6473	2350.4752	3092.7819	3138.5621	3153.0466	3165.9747	3231.378	3611.652
O=C1CC2(CC2C#N)N1	O=C1C[C@]2(C[C@H]2C#N)N1	
InChI=1S/C6H6N2O/c7-3-4-1-6(4)2-5(9)8-6/h4H,1-2H2,(H,8,9)	InChI=1S/C6H6N2O/c7-3-4-1-6(4)2-5(9)8-6/h4H,1-2H2,(H,8,9)/t4-,6-/m0/s1
