16
gdb 23329	2.22325	1.57953	1.08246	1.2117	79.4	-0.2391	0.0306	0.2697	1120.695	0.122965	-400.60776	-400.599665	-400.59872	-400.640418	31.235	
O	-0.0998608569	 1.3762197717	-0.1263215536	-0.403678
N	 0.0602250216	-0.0320312742	-0.1028615367	-0.323421
C	-1.0536221206	-0.6115143901	-0.0281601871	 0.514927
C	-2.5600834512	-0.3960240806	 0.0220037201	-0.143468
C	-2.6223516851	-1.5465859697	-1.041493447	-0.244861
C	-1.5564587805	-2.039571276	-0.0038902593	-0.131842
C	-2.5687303602	-1.5469024403	 1.108253499	-0.187713
C	-2.0919044703	-1.278583888	 2.4463920652	 0.308214
C	-1.7108060215	-1.0656868515	 3.5664729118	-0.425602
H	 0.814909896	 1.675391011	-0.1562873349	 0.304992
H	-3.1192205009	 0.5349160094	 0.0493716932	 0.107121
H	-3.555548732	-2.1154643343	-1.0646279851	 0.104681
H	-2.2574895129	-1.3092981253	-2.040818022	 0.119063
H	-0.985122587	-2.9646344339	-0.005102479	 0.100874
H	-3.5035086468	-2.1162142384	 1.1177248401	 0.104493
H	-1.3656692318	-0.8717294099	 4.5518026352	 0.196221
82.7734	157.7026	195.6058	207.2232	312.0279	382.6498	420.3233	492.6973	511.5473	543.6255	628.5318	645.9638	720.9394	739.5019	760.3351	835.1107	887.7377	899.044	945.93	989.5107	1021.3067	1053.9296	1062.5899	1093.5299	1119.3711	1129.315	1183.2224	1211.8002	1219.9697	1240.1147	1368.03	1410.0615	1511.3582	1834.1809	2238.0561	3059.0818	3064.1492	3147.5343	3155.4553	3166.6907	3504.358	3822.346
ON=C1C2CC1C2C#C	ON=C1[C@H]2C[C@@H]1[C@H]2C#C	
InChI=1S/C7H7NO/c1-2-4-5-3-6(4)7(5)8-9/h1,4-6,9H,3H2	InChI=1S/C7H7NO/c1-2-4-5-3-6(4)7(5)8-9/h1,4-6,9H,3H2/t4-,5-,6+
