21
gdb 122408	5.86675	0.55742	0.52952	3.5752	80.23	-0.2397	-0.0169	0.2228	2033.4844	0.180355	-424.232354	-424.222297	-424.221353	-424.268794	35.951	
O	-0.0154630181	 1.391778853	-0.2104082465	-0.420815
C	 0.0440585319	-0.0186730384	-0.0647200218	-0.073775
C	-1.3843175906	-0.5448726347	-0.0142698266	-0.166415
C	-1.4576815484	-2.0665869269	 0.1441690871	-0.21274
C	-2.8853726155	-2.599987441	 0.180448636	 0.029868
C	-3.7146401748	-2.5434988778	-1.145117328	-0.354355
C	-4.0685972442	-4.0232241788	-0.9274579279	 0.404132
O	-4.8667668773	-4.7662653327	-1.4193637419	-0.289278
C	-3.0654353444	-4.1514308817	 0.2299561008	-0.371842
H	 0.8839926514	 1.7298957972	-0.2441924865	 0.28604
H	 0.582330649	-0.4847418848	-0.9068607507	 0.083726
H	 0.5780225316	-0.3029627271	 0.8573042806	 0.083966
H	-1.9053725048	-0.0541930135	 0.8170750164	 0.106483
H	-1.899580899	-0.2335268235	-0.9311464636	 0.110179
H	-0.9164504224	-2.5518945982	-0.681166727	 0.09193
H	-0.9399365056	-2.3667381484	 1.0654958959	 0.09928
H	-3.4384601985	-2.1235503865	 0.9961499369	 0.081914
H	-4.5587937228	-1.8520316683	-1.2043382929	 0.129897
H	-3.0935657961	-2.4062253472	-2.0386178838	 0.127508
H	-2.1657257139	-4.6994355005	-0.0745380449	 0.126633
H	-3.4480323174	-4.6010496802	 1.1498754684	 0.127666
41.2589	62.8659	84.6228	116.0638	154.2278	262.2162	270.2457	286.2469	396.0542	415.4548	465.1623	503.6236	654.4989	669.8325	757.7284	769.1292	853.559	916.4098	929.7597	979.3674	991.9684	1031.8872	1054.1589	1078.7748	1085.3149	1120.3536	1136.3989	1191.8595	1196.2442	1225.2263	1238.7297	1245.4341	1269.239	1301.5435	1312.0385	1322.8301	1364.3331	1397.6697	1425.5268	1445.9718	1463.4508	1486.2676	1501.0711	1528.9026	1893.5865	2955.6126	2980.3877	3000.1181	3029.883	3032.3635	3041.32	3045.7838	3057.5248	3076.1732	3108.4767	3110.6232	3831.3861
OCCCC1CC(=O)C1	OCCCC1CC(=O)C1	
InChI=1S/C7H12O2/c8-3-1-2-6-4-7(9)5-6/h6,8H,1-5H2	InChI=1S/C7H12O2/c8-3-1-2-6-4-7(9)5-6/h6,8H,1-5H2
