20
gdb 115161	2.42566	1.32029	1.04677	2.1939	74.58	-0.2324	-0.0323	0.2001	1225.2063	0.1709	-440.303254	-440.294086	-440.293142	-440.337253	34.45	
C	 0.2943204376	 1.3801665292	 0.3163763559	-0.387912
C	 0.3936729709	-0.1286084085	 0.0873823715	-0.154122
C	 0.4852759606	-0.4958994796	-1.3971651984	-0.05303
N	 1.7473325947	-0.0046026011	-2.0130664602	-0.296804
C	 2.7798285268	-1.032711984	-1.8100041992	-0.283706
C	 2.0249643622	-2.3077756514	-1.4454822468	 0.35858
O	 2.4555719062	-3.3384957519	-0.9909744875	-0.32828
C	 0.5382516815	-2.0239964541	-1.6352669331	 0.04967
O	-0.2597160622	-2.8336307714	-0.8220743712	-0.435739
H	 1.1438648635	 1.8955092492	-0.1400402486	 0.130523
H	-0.6217221359	 1.7861987639	-0.1281899108	 0.109667
H	 0.2775239944	 1.617746617	 1.3841431015	 0.110629
H	 1.2703677576	-0.5279067076	 0.6157043999	 0.09346
H	-0.4720664439	-0.6474777699	 0.5104305648	 0.119504
H	-0.3547983097	-0.0395018124	-1.9289100934	 0.081288
H	 1.6030660065	 0.1475538835	-3.0035807202	 0.22699
H	 3.4027138886	-1.1797654845	-2.6980066974	 0.135637
H	 3.4587336188	-0.7775309082	-0.9862624639	 0.143557
H	 0.3176782577	-2.1990775081	-2.7059949316	 0.08766
H	 0.3157550043	-3.5539890202	-0.5206116614	 0.292428
79.0448	102.6518	146.7998	190.3049	233.6267	269.4808	291.6592	401.484	428.9516	457.0334	511.1255	596.1373	647.9093	706.2153	744.5069	763.3316	782.1762	856.0525	937.0211	982.9787	1011.0297	1037.5638	1078.7831	1105.3294	1115.9575	1127.8569	1183.5877	1212.655	1232.5346	1281.0675	1301.1695	1312.9883	1341.0982	1363.0054	1393.9673	1406.8128	1412.6126	1462.385	1466.7207	1486.5594	1497.7558	1511.9182	1843.1612	2919.9025	3017.7928	3029.6958	3034.2133	3065.5973	3081.3448	3083.6875	3100.1278	3120.8575	3549.6374	3698.6424
CCC1NCC(=O)C1O	CC[C@H]1NCC(=O)[C@H]1O	
InChI=1S/C6H11NO2/c1-2-4-6(9)5(8)3-7-4/h4,6-7,9H,2-3H2,1H3	InChI=1S/C6H11NO2/c1-2-4-6(9)5(8)3-7-4/h4,6-7,9H,2-3H2,1H3/t4-,6+/m1/s1
