23
gdb 119139	2.3304	1.0265	0.84684	0.6922	81.52	-0.263	0.0692	0.3322	1469.4934	0.2036	-425.406514	-425.395772	-425.394828	-425.442452	39.888	
C	 0.5915495837	-0.054382819	 1.2560288859	-0.415531
C	 0.0260317289	-0.1613760822	-0.1622165641	 0.051655
O	 0.9110054584	-0.9069609045	-0.9959400312	-0.431731
C	-1.4077287635	-0.7132344079	-0.1992236756	 0.361763
C	-2.4513943283	 0.0768728302	 0.5790897507	-0.266782
C	-2.6649091988	 1.5033292263	 0.077317394	-0.076404
O	-3.7447299284	 2.0544416645	 0.8180784654	-0.420512
C	-1.867218268	-1.3746514248	-1.4760692377	-0.303812
C	-1.5906509415	-2.212287913	-0.2499485446	-0.325441
H	 1.6270175404	 0.2949100254	 1.2152837377	 0.121702
H	 0.0197369133	 0.6435131357	 1.8735749403	 0.125628
H	 0.5719693977	-1.0314044219	 1.7548252477	 0.112228
H	 0.0192003842	 0.8381621761	-0.6146792358	 0.086496
H	 1.1702201497	-1.6996401543	-0.5146370039	 0.280092
H	-3.4152737612	-0.4400578903	 0.5102938566	 0.104133
H	-2.2027248233	 0.114773556	 1.6461165117	 0.104007
H	-1.7514126045	 2.1037242975	 0.2125492741	 0.085553
H	-2.8856948899	 1.4851662094	-1.0017950733	 0.091021
H	-3.882950135	 2.9582319758	 0.520526522	 0.284944
H	-2.8996231053	-1.2345209624	-1.7790512992	 0.104769
H	-1.1522651748	-1.4424693666	-2.2865855579	 0.125786
H	-0.7124377892	-2.8488520967	-0.2741747579	 0.091153
H	-2.4278920047	-2.6412409436	 0.290207775	 0.109283
52.5879	91.7381	96.3667	161.0032	227.7104	253.8809	266.445	272.9114	307.5417	343.274	351.443	384.0159	428.7274	491.5744	595.815	695.3887	786.445	796.2831	878.3287	904.92	918.1434	951.798	962.569	1028.1374	1050.2712	1058.9338	1070.4649	1082.4215	1085.2333	1090.0736	1137.69	1190.867	1220.6542	1242.9369	1270.8704	1303.4092	1306.5514	1334.3568	1360.7568	1370.6358	1399.7494	1424.54	1456.1684	1462.3289	1484.7164	1494.8756	1498.6453	1502.8024	1528.8204	2967.6619	2993.6289	3025.7763	3031.9406	3036.0263	3074.0571	3101.2788	3120.6842	3127.766	3136.1673	3206.0357	3231.9756	3810.9184	3830.4317
CC(O)C1(CCO)CC1	C[C@@H](O)C1(CCO)CC1	
InChI=1S/C7H14O2/c1-6(9)7(2-3-7)4-5-8/h6,8-9H,2-5H2,1H3	InChI=1S/C7H14O2/c1-6(9)7(2-3-7)4-5-8/h6,8-9H,2-5H2,1H3/t6-/m1/s1
