21
gdb 56271	5.65859	0.56732	0.55125	3.4963	80.89	-0.2409	0.0607	0.3016	2032.5874	0.182929	-420.43708	-420.426952	-420.426008	-420.473976	36.648	
N	-0.0433787259	 1.3243611842	 0.0157492764	-0.565091
C	-0.0137183772	-0.0610620941	-0.1425454646	 0.44561
O	 0.9126198135	-0.6354421597	-0.6844868135	-0.389102
N	-1.1072895807	-0.7007225484	 0.3929971303	-0.339667
C	-1.1885184728	-2.1504686392	 0.4542109982	-0.151172
C	-2.4802473671	-2.6945079524	-0.1693333023	-0.209391
C	-2.5606112595	-4.2042742796	-0.101610608	 0.040597
C	-3.0789514981	-4.8893420416	 1.1401263317	-0.254789
C	-3.8930747564	-4.9069846625	-0.1305633168	-0.277602
H	 0.6391952564	 1.7809421726	-0.5708229764	 0.258678
H	-0.9488375204	 1.7707330394	-0.0031821368	 0.242986
H	-1.7015914403	-0.1742414911	 1.0128814526	 0.235596
H	-0.313740483	-2.5237248563	-0.0833112104	 0.149419
H	-1.1054364505	-2.4969309464	 1.4934582748	 0.102457
H	-3.348817781	-2.2619167416	 0.3470906077	 0.080208
H	-2.5388051406	-2.3550637949	-1.2110200794	 0.105601
H	-1.7483061383	-4.7150333346	-0.6136362196	 0.087293
H	-2.6055354661	-5.8097263272	 1.4633855597	 0.112324
H	-3.429502835	-4.2633001969	 1.9549051545	 0.105732
H	-4.7876846485	-4.2935225678	-0.1671688398	 0.108381
H	-3.9739190686	-5.839428572	-0.6780959883	 0.111933
27.1199	55.9648	74.6092	100.5948	184.9566	266.4398	302.8812	355.4243	392.8014	409.7527	439.1165	535.564	572.903	660.3819	769.0635	776.5305	778.4067	823.4028	841.9798	901.5438	944.5519	981.0615	1033.1894	1060.8426	1066.5459	1080.7397	1093.6025	1140.6413	1149.7357	1190.6054	1198.6181	1229.1959	1254.27	1297.8119	1323.2334	1334.3112	1401.5246	1420.6951	1468.6804	1484.5229	1501.4224	1508.2743	1547.0009	1627.8772	1803.0253	3007.9087	3011.8352	3053.2476	3116.1061	3126.6227	3131.1767	3134.8495	3204.8303	3220.2127	3567.4869	3630.7629	3680.0502
NC(=O)NCCC1CC1	NC(=O)NCCC1CC1	
InChI=1S/C6H12N2O/c7-6(9)8-4-3-5-1-2-5/h5H,1-4H2,(H3,7,8,9)	InChI=1S/C6H12N2O/c7-6(9)8-4-3-5-1-2-5/h5H,1-4H2,(H3,7,8,9)
