18
gdb 33109	6.43609	0.77981	0.70475	0.3174	75.97	-0.2275	0.0136	0.2411	1607.4329	0.146556	-439.114995	-439.105637	-439.104692	-439.150363	32.194	
C	 0.0093598855	 1.3905666864	 0.0239844566	-0.222324
O	-0.0524350809	-0.015419832	 0.0277301818	-0.234638
C	 0.7343166631	-0.5935522761	 1.0434760435	-0.172325
C	 0.6035008125	-2.0767094243	 0.9645547492	 0.219012
C	-0.1184196897	-2.8311464557	 0.1063187617	-0.104864
O	 0.0840862696	-4.1479021702	 0.4339233011	-0.175956
C	 0.9328784314	-4.1141178321	 1.4914497755	 0.380407
C	 1.3507456002	-5.409895364	 2.0867076334	-0.48924
N	 1.2744186684	-2.9155055265	 1.8496506864	-0.354157
H	 1.0359002496	 1.7535916817	-0.1425289502	 0.106875
H	-0.6269222414	 1.7431883715	-0.7910681679	 0.128424
H	-0.3555371922	 1.8177323442	 0.971445769	 0.106871
H	 1.7942435923	-0.303643209	 0.9362293412	 0.106349
H	 0.4155384126	-0.2406742722	 2.0399012327	 0.106346
H	-0.7720058119	-2.6248567203	-0.7211322837	 0.152469
H	 1.8627393981	-6.0361455662	 1.3487744269	 0.145486
H	 2.0269446842	-5.2148335774	 2.9191861879	 0.155777
H	 0.4858943885	-5.9730140479	 2.452560385	 0.145488
49.7056	71.7842	93.1671	121.5755	200.3459	226.1216	304.7341	317.1044	348.1862	440.9311	639.7329	693.3109	698.307	765.2372	767.7017	941.2096	995.2574	1018.6567	1047.2911	1050.2866	1066.3252	1128.4726	1163.3873	1184.7073	1218.2029	1227.0753	1240.5058	1273.6818	1343.6867	1412.4525	1430.2412	1475.5797	1481.1057	1481.8794	1484.5107	1501.2035	1522.1232	1621.0227	1648.3793	2947.75	2966.6445	2972.4693	3015.7429	3044.46	3098.3753	3116.754	3157.9403	3315.2882
COCC1=COC(C)=N1	COCc1coc(C)n1	
InChI=1S/C6H9NO2/c1-5-7-6(3-8-2)4-9-5/h4H,3H2,1-2H3	InChI=1S/C6H9NO2/c1-5-7-6(3-8-2)4-9-5/h4H,3H2,1-2H3
