19
gdb 36312	3.21445	1.16278	1.09147	4.6858	78.88	-0.2428	0.0287	0.2715	1183.5631	0.161265	-382.062596	-382.054408	-382.053464	-382.096388	30.653	
N	-0.909018668	 1.1759620436	 2.5454498976	-0.307463
C	-0.5584791965	 1.2692028415	 1.4488632796	 0.283868
C	-0.1364644944	 1.4048201275	 0.0496393611	-0.291643
N	 1.1834650722	 2.0126757468	-0.0240878933	-0.095684
C	 1.645839814	 2.7489848212	-1.1977615334	-0.030374
C	 0.6552806664	 3.2764798342	-2.2276296016	-0.234002
C	-0.3438516064	 4.1871517894	-1.461207491	-0.228085
C	 0.2648375956	 4.4367172604	-0.0536806426	-0.237351
C	 1.4121800379	 3.4486168375	 0.1065074924	-0.02141
H	-0.0713758314	 0.400979597	-0.386690346	 0.157113
H	-0.9403867459	 1.928887976	-0.4867952863	 0.13575
H	 2.6351782439	 2.4608268366	-1.5441686285	 0.096098
H	 1.2181049347	 3.8488481498	-2.9726663034	 0.111896
H	 0.1485503206	 2.4738082528	-2.7755977476	 0.106211
H	-0.5084069993	 5.1275500962	-1.9935557423	 0.10858
H	-1.3264048777	 3.7128401906	-1.3834728535	 0.113488
H	 0.6756482833	 5.448870299	 0.0241067974	 0.111533
H	-0.4796869171	 4.342924768	 0.7442120259	 0.122337
H	 2.2183763081	 3.7093726118	 0.7867991855	 0.099139
30.5727	115.5072	154.7295	220.0765	250.0595	379.5646	412.1824	460.5591	527.2417	687.5436	718.813	762.3791	787.6595	809.2811	877.0987	898.4157	921.0486	945.3056	979.4342	1012.7297	1036.0829	1055.5223	1066.7461	1125.4258	1131.1708	1186.8394	1232.1437	1250.8043	1259.4642	1297.364	1310.6561	1322.3913	1330.8856	1354.58	1367.8501	1419.6077	1477.8649	1491.4793	1493.1327	1522.1436	2366.518	3007.1978	3038.5443	3044.5172	3056.1632	3058.415	3069.3638	3076.9912	3101.4076	3136.9729	3148.8531
N#CCN1C2CCCC12	N#CCN1[C@H]2CCC[C@@H]12	
InChI=1S/C7H10N2/c8-4-5-9-6-2-1-3-7(6)9/h6-7H,1-3,5H2	InChI=1S/C7H10N2/c8-4-5-9-6-2-1-3-7(6)9/h6-7H,1-3,5H2/t6-,7+,9?
