19
gdb 102687	2.65236	0.93152	0.82974	1.966	74.36	-0.2554	0.0263	0.2817	1452.3437	0.156847	-460.101562	-460.091495	-460.09055	-460.137123	36.34	
O	 0.2485294206	 1.0925649351	-0.3462985887	-0.424098
C	 0.0132279287	-0.2365637972	 0.0612212901	-0.080889
C	-1.4799432696	-0.60001828	 0.1406653924	 0.092125
C	-2.1982231865	 0.1493053731	 1.2653127744	-0.082948
O	-2.1903515221	 1.5548180927	 1.0256305322	-0.422944
O	-2.2239628665	-0.2462620891	-1.0211996919	-0.274875
C	-1.6652202332	-0.6527087105	-2.2625502611	-0.235259
C	-2.6303292827	-0.4079950586	-3.3259922776	 0.276081
C	-3.4032404389	-0.21251766	-4.2238817728	-0.399913
H	-0.346959201	 1.646295619	 0.1796507134	 0.288556
H	 0.5254258479	-0.8833296023	-0.6596778764	 0.109339
H	 0.4563518589	-0.4584425756	 1.0475794303	 0.0876
H	-1.5539836459	-1.6863301914	 0.3264856354	 0.069642
H	-3.2278457602	-0.2230513399	 1.353673119	 0.108957
H	-1.6890654022	-0.0143000067	 2.2193680025	 0.116663
H	-2.6043434021	 1.6643784786	 0.159091742	 0.300614
H	-0.7410804425	-0.0946417016	-2.4650523872	 0.150848
H	-1.4108071523	-1.7248881045	-2.2363509944	 0.1192
H	-4.0892233502	-0.037642561	-5.0154970116	 0.201302
55.1846	94.4238	100.8425	149.4297	181.0207	257.8607	266.6652	326.8256	345.246	359.029	432.2728	522.0417	543.0181	610.8529	676.8182	679.2934	792.512	804.1565	915.8031	960.9698	966.5219	992.3277	1039.5336	1064.647	1084.4675	1123.9639	1142.3419	1223.4045	1236.7016	1261.6759	1327.3738	1344.4122	1390.18	1398.7156	1419.8525	1435.5274	1472.0974	1495.3425	1501.379	1519.2549	2248.2055	2949.2551	2962.4746	2972.5495	3017.1229	3031.0344	3061.3337	3096.4496	3506.2054	3715.9304	3773.451
OCC(CO)OCC#C	OCC(CO)OCC#C	
InChI=1S/C6H10O3/c1-2-3-9-6(4-7)5-8/h1,6-8H,3-5H2	InChI=1S/C6H10O3/c1-2-3-9-6(4-7)5-8/h1,6-8H,3-5H2
