19
gdb 77991	3.06521	1.23048	1.03563	0.5302	84.46	-0.2269	0.0358	0.2627	1212.3622	0.157584	-385.828923	-385.819845	-385.8189	-385.862087	35.184	
C	-0.3026936333	 1.5673326661	 0.0844308835	-0.417261
C	 0.0240636227	 0.0785543198	 0.0457389562	 0.043762
C	 1.1417802475	-0.4541128389	-0.9084640172	-0.312172
C	 1.7892382477	-1.2132640771	 0.2677242127	 0.126748
C	 2.3062508053	-2.5359286354	 0.2142678511	 0.16583
C	 2.7472829957	-3.6557111882	 0.1582183836	-0.401436
C	 2.1733596403	-0.2252018756	 1.3486294189	 0.052112
O	 2.6230850241	 1.0661679544	 1.0615961542	-0.412295
C	 0.7331000543	-0.5738111321	 1.2427764378	-0.164042
H	 0.5943554337	 2.1623704559	 0.2625883854	 0.142827
H	-0.7535171252	 1.8866754554	-0.8621336582	 0.107746
H	-1.0221702228	 1.7861503037	 0.881598157	 0.110278
H	-0.8914484871	-0.4879060617	-0.1531705073	 0.080096
H	 0.7667322344	-1.1183695122	-1.6876430525	 0.11254
H	 1.7846562057	 0.3058136014	-1.3608365004	 0.097351
H	 3.1328738629	-4.6434089399	 0.1093516034	 0.181352
H	 2.6739563374	-0.6984006047	 2.1937672689	 0.098992
H	 3.5340268521	 1.001820844	 0.7540633388	 0.290691
H	 0.2231570148	-1.0555568849	 2.069793444	 0.09688
115.458	140.9495	188.3781	208.9103	232.4494	300.6617	306.1156	370.8522	424.0363	495.8839	511.0286	554.9606	573.4749	641.7331	646.1742	703.3667	792.6077	854.5214	876.754	899.2073	979.3637	991.0036	1027.1851	1071.1043	1098.6377	1115.7493	1142.6269	1187.8231	1215.9193	1245.4398	1255.3522	1289.6058	1318.1672	1342.8522	1374.436	1407.9553	1465.5222	1489.0522	1495.4429	1507.6554	2224.9095	3031.0036	3047.5744	3064.7947	3087.88	3105.5873	3129.7227	3142.4254	3174.3701	3504.269	3800.3106
CC1CC2(C#C)C(O)C12	C[C@H]1C[C@@]2(C#C)[C@@H](O)[C@@H]12	
InChI=1S/C8H10O/c1-3-8-4-5(2)6(8)7(8)9/h1,5-7,9H,4H2,2H3	InChI=1S/C8H10O/c1-3-8-4-5(2)6(8)7(8)9/h1,5-7,9H,4H2,2H3/t5-,6+,7-,8+/m0/s1
