23
gdb 114248	4.2944	0.89151	0.87733	1.3955	86.38	-0.2359	0.0785	0.3144	1483.2991	0.205411	-388.2791	-388.269801	-388.268857	-388.313856	35.333	
C	 0.3193494768	 1.3806881428	-0.3457004861	-0.380216
C	 0.0915012448	-0.1085421144	-0.071905732	-0.186855
C	 0.4492323999	-0.4972541126	 1.3521302127	 0.158085
C	 0.5527662091	-1.9976055311	 1.694792726	-0.386482
C	 2.0240084456	-1.6780580035	 2.0371075662	 0.476931
C	 2.5789113952	-1.9929940235	 3.4463249756	-0.285886
C	 3.370218861	-3.1735147627	 2.8180271219	-0.214368
C	 3.1783601502	-2.5039587704	 1.4287889642	-0.283908
O	 1.8589812163	-0.3068099649	 1.6419824046	-0.33366
H	 1.361588736	 1.6473933123	-0.148800518	 0.136676
H	 0.0909787973	 1.6339095588	-1.3852429566	 0.109655
H	-0.3134900457	 2.0024722854	 0.2973858242	 0.111755
H	-0.9596529197	-0.3746715475	-0.2481599138	 0.092909
H	 0.6934557298	-0.7140505967	-0.761036332	 0.095167
H	-0.1622793524	 0.0784625306	 2.0619493545	 0.068554
H	-0.0636077244	-2.3430105196	 2.5269981653	 0.105168
H	 0.4151373263	-2.6661596852	 0.8410578713	 0.103813
H	 3.2442257221	-1.1877768874	 3.7716602707	 0.111824
H	 1.8612523604	-2.2062032605	 4.2432454757	 0.092229
H	 4.3941214299	-3.3299293662	 3.1618219547	 0.101267
H	 2.8286145784	-4.1198964734	 2.8965216717	 0.103317
H	 2.9532458595	-3.136493948	 0.5656684213	 0.092028
H	 4.0147555237	-1.8444199924	 1.1788775678	 0.111997
38.2469	89.6431	126.1345	170.031	226.4302	286.8724	331.6819	363.3261	425.6391	461.6994	520.1567	689.9346	757.9688	783.4126	797.4774	853.3467	893.2195	900.8608	917.3975	926.5475	958.0831	969.0859	984.7088	1017.0268	1022.4179	1079.3392	1108.0448	1159.2098	1166.3316	1191.5117	1195.6926	1214.381	1243.2625	1244.1582	1267.2772	1273.9792	1284.4903	1305.104	1318.9743	1350.6862	1405.1486	1412.7258	1465.5819	1473.1681	1481.3388	1490.1864	1496.6117	1504.9869	1508.679	2994.4295	3016.0062	3035.4867	3050.1689	3054.7198	3056.8609	3063.6483	3067.3064	3101.8341	3102.1977	3106.6267	3118.1607	3119.8558	3125.272
CCC1CC2(CCC2)O1	CC[C@H]1CC2(CCC2)O1	
InChI=1S/C8H14O/c1-2-7-6-8(9-7)4-3-5-8/h7H,2-6H2,1H3	InChI=1S/C8H14O/c1-2-7-6-8(9-7)4-3-5-8/h7H,2-6H2,1H3/t7-/m0/s1
