21
gdb 103734	2.66886	1.1989	0.96897	2.2747	80.82	-0.2447	-0.0276	0.2171	1297.8323	0.179008	-424.22989	-424.21958	-424.218636	-424.264679	38.391	
C	 0.0611666394	 1.4272080334	-0.3239918636	-0.383829
C	-0.1021461397	 0.0360395841	 0.3026581259	-0.231463
C	-1.4989384372	-0.5485743686	 0.1216210901	 0.306993
C	-2.5976091744	 0.1690771913	 0.8836367079	-0.478591
C	-1.8310685136	-1.1667450227	-1.2071085832	-0.376193
C	-1.5688163029	-2.0867027359	-0.0269461556	 0.207306
O	-0.3514236308	-2.7767603786	 0.0567895816	-0.455744
C	-2.7036585694	-2.8506046833	 0.5613804937	 0.106611
O	-3.8776847099	-2.5939470671	 0.4290183505	-0.270514
H	 1.0886808026	 1.7831626809	-0.2012566037	 0.114428
H	-0.1600949515	 1.4064184598	-1.3965107684	 0.11551
H	-0.6000513129	 2.1667062401	 0.1374973955	 0.119601
H	 0.6333448609	-0.6486956738	-0.1249327826	 0.11274
H	 0.1189393422	 0.0901209248	 1.3763192552	 0.099014
H	-2.6935733591	 1.1982658649	 0.522679852	 0.11998
H	-3.5637447893	-0.3210577578	 0.7618622991	 0.155054
H	-2.364720139	 0.2123892303	 1.9536547463	 0.115468
H	-2.8581869069	-1.1283948399	-1.5556021381	 0.134747
H	-1.0694165387	-1.1618976682	-1.9807844443	 0.114089
H	-0.3027847127	-3.3935029318	-0.6812917732	 0.290688
H	-2.3591019571	-3.7280131519	 1.1529586849	 0.084105
68.4146	117.4266	160.1781	206.0921	219.03	230.8854	257.7091	292.0372	315.2464	333.1813	375.8169	408.3193	458.9063	521.3992	637.5113	675.6976	719.0214	790.8448	833.3799	919.1424	945.1092	966.9169	1023.6091	1039.6291	1053.7611	1062.5389	1075.0181	1125.0074	1177.4903	1203.736	1269.6371	1308.225	1327.5165	1359.4067	1377.2043	1409.8808	1411.4902	1422.9096	1463.5988	1488.3167	1497.3638	1501.8176	1510.8239	1515.4605	1802.9446	2889.2939	3029.2983	3036.1201	3037.8669	3092.0984	3096.7403	3104.2058	3117.0252	3123.4315	3148.5705	3218.4102	3802.6401
CCC1(C)CC1(O)C=O	CC[C@@]1(C)C[C@]1(O)C=O	
InChI=1S/C7H12O2/c1-3-6(2)4-7(6,9)5-8/h5,9H,3-4H2,1-2H3	InChI=1S/C7H12O2/c1-3-6(2)4-7(6,9)5-8/h5,9H,3-4H2,1-2H3/t6-,7-/m0/s1
