18
gdb 45806	2.61828	1.66869	1.23401	3.6846	76.95	-0.2293	-0.006	0.2234	1034.6108	0.149464	-401.947512	-401.939891	-401.938947	-401.980033	29.9	
O	-0.0102252315	 0.1236934008	 0.6453432663	-0.305561
C	-0.0568522263	 1.229905303	 0.1640124922	 0.397911
C	-1.4089180321	 1.8227758007	-0.255937141	-0.340902
C	-1.4056919883	 2.9862670525	-1.2147183673	-0.116263
C	-0.7150337773	 4.1231162105	-1.0935624466	-0.015248
C	 0.2493821421	 4.463837837	-0.0215833407	-0.066199
N	 0.0886937374	 3.8478210677	 1.3180358337	-0.34055
C	 1.2260854995	 3.4475243764	 0.4842050381	-0.028213
C	 1.2286292172	 2.028987475	-0.0604258666	-0.325842
H	-1.9952752191	 0.9907984059	-0.6556051342	 0.122566
H	-1.8900282659	 2.114466515	 0.6852462022	 0.165943
H	-2.0491358316	 2.8802483875	-2.0840829677	 0.096839
H	-0.8164502298	 4.8740710241	-1.8730164187	 0.088516
H	 0.6054002832	 5.4908070434	-0.0410482684	 0.085887
H	 0.3804739831	 4.5025376481	 2.0376189665	 0.237121
H	 2.2094573993	 3.8194497244	 0.7647962164	 0.09365
H	 2.0372899852	 1.4459064782	 0.3871138324	 0.123222
H	 1.4054602552	 2.0626170697	-1.1449708465	 0.127123
42.407	172.2018	269.3917	275.3639	325.5752	408.3925	478.7755	509.4804	570.3233	602.0043	677.8949	751.9869	775.8911	816.1473	822.2965	891.5067	917.8475	948.6117	980.3648	989.4914	1010.6335	1039.0935	1099.9263	1137.7528	1172.4752	1201.0049	1212.0042	1236.5606	1264.0787	1273.3465	1324.8836	1343.225	1395.6407	1426.3877	1439.088	1454.6651	1467.6023	1716.7729	1810.1162	3019.3511	3046.3615	3095.2238	3100.02	3122.7175	3135.1326	3150.4466	3171.4372	3515.1022
O=C1CC=CC2NC2C1	O=C1CC=C[C@H]2N[C@H]2C1	
InChI=1S/C7H9NO/c9-5-2-1-3-6-7(4-5)8-6/h1,3,6-8H,2,4H2	InChI=1S/C7H9NO/c9-5-2-1-3-6-7(4-5)8-6/h1,3,6-8H,2,4H2/t6-,7+/m1/s1
