19
gdb 105960	2.94193	1.58104	1.22839	0.7709	79.15	-0.1991	0.0838	0.2828	1077.1367	0.157142	-385.766053	-385.757652	-385.756708	-385.798981	32.28	
C	-0.014188121	 1.3960039807	 0.0230927516	-0.261254
O	 0.0210433826	-0.0164437249	-0.0398993542	-0.276324
C	 0.6527757508	-0.5203218741	-1.1435717613	 0.395518
C	 0.6118658872	-0.1882265108	-2.6306417019	-0.197162
C	 0.8124462995	-1.6961918169	-2.9579054563	-0.136356
C	 2.1380026644	-1.6938906982	-2.2003105703	-0.136351
C	 1.9538826248	-0.1858882343	-1.8636717809	-0.197171
C	 0.8425447426	-2.0343406353	-1.4710693526	 0.266772
C	 0.4279822978	-3.2690512292	-0.7418637874	-0.523503
H	 0.9984324326	 1.8224790294	 0.0531176702	 0.115238
H	-0.5530493372	 1.8234311819	-0.8343200504	 0.115217
H	-0.5400319865	 1.6599988828	 0.9425826319	 0.132012
H	 0.152290947	 0.6224866103	-3.1797243297	 0.086101
H	 0.4828970187	-2.3134060599	-3.7846799912	 0.080699
H	 3.0192597626	-2.3089851372	-2.3350734478	 0.080694
H	 2.6581575504	 0.6268228112	-1.747695097	 0.086112
H	 0.8773633854	-3.3178630877	 0.256499373	 0.125295
H	-0.6600925247	-3.3199818204	-0.6212371228	 0.125318
H	 0.7443158031	-4.1612251474	-1.293812933	 0.119146
71.5132	152.6326	191.2192	206.4799	228.9025	261.6905	363.2036	445.4544	550.9115	644.5615	658.9004	760.3797	777.896	800.8887	843.408	852.763	875.4224	892.7478	895.778	936.8023	950.2808	1002.1703	1014.8006	1058.3435	1102.456	1108.9304	1160.6255	1178.6615	1181.0095	1210.4232	1226.7804	1246.2867	1271.8551	1404.7441	1410.8478	1437.0912	1480.1196	1486.7266	1494.4215	1501.9459	1507.4382	2991.9238	3021.6781	3045.1567	3082.5194	3090.9758	3127.4447	3176.0428	3188.5186	3198.102	3207.4607
COC12C3C4C(C13)C24C	CO[C@@]12[C@@H]3[C@H]4[C@@H]([C@H]13)[C@@]24C	
InChI=1S/C8H10O/c1-7-3-4(7)6-5(3)8(6,7)9-2/h3-6H,1-2H3	InChI=1S/C8H10O/c1-7-3-4(7)6-5(3)8(6,7)9-2/h3-6H,1-2H3/t3-,4+,5-,6+,7+,8+
