21
gdb 105787	2.599	1.2622	1.08775	3.0805	78.55	-0.2542	-0.0293	0.2249	1213.1266	0.183106	-424.253277	-424.244273	-424.243329	-424.287399	34.061	
O	 0.1555741984	 1.2399626081	-0.4088460424	-0.428025
C	-0.040531237	-0.1523021403	-0.2958100829	-0.118307
C	-1.4741916065	-0.5342508104	 0.1252986269	 0.213752
C	-2.528466876	-0.0282730126	-0.907398512	-0.254877
C	-2.7826593878	-1.2319005533	-1.8270645372	-0.204677
C	-2.7856835364	-2.4181646368	-0.8531936228	-0.196385
C	-1.6591433225	-2.0888483782	 0.1520182963	-0.281984
C	-1.7944555103	 0.0537791955	 1.4800587356	 0.121789
O	-1.1087692688	 0.8442829569	 2.0863803382	-0.281282
H	 0.0400325021	 1.5890053758	 0.4847517998	 0.295109
H	 0.1712110495	-0.5809875039	-1.2818977097	 0.103949
H	 0.6689911145	-0.6047429827	 0.415040612	 0.094001
H	-3.4628616699	 0.2418993428	-0.3975053103	 0.0951
H	-2.1614598235	 0.8668789421	-1.4134702319	 0.129795
H	-3.7102138525	-1.1391199997	-2.3988263321	 0.10069
H	-1.9637381887	-1.3345499749	-2.5492149682	 0.10636
H	-3.7500571093	-2.4632106114	-0.3335174072	 0.101687
H	-2.6393482145	-3.3852916785	-1.342116883	 0.101602
H	-0.7162130747	-2.5609702597	-0.1447790623	 0.112378
H	-1.8846330154	-2.4633343581	 1.1562616902	 0.104088
H	-2.7620550704	-0.2931989906	 1.912075593	 0.085238
48.5339	97.9768	163.7893	206.3171	249.0351	292.0932	342.8686	359.697	424.6619	469.3216	561.265	580.7688	684.6866	784.9426	821.4963	872.4925	879.7848	912.6732	914.1299	942.509	1001.6314	1023.897	1043.4539	1071.759	1080.9711	1100.0785	1131.8281	1188.1778	1234.3586	1253.0879	1255.6048	1296.7158	1322.7979	1338.7348	1349.8481	1359.7754	1385.0057	1427.9125	1442.2467	1484.9901	1489.369	1492.2772	1497.4484	1512.011	1801.8971	2861.8372	2980.468	3018.7263	3033.5707	3038.8268	3040.562	3062.9273	3073.1263	3090.657	3097.9698	3115.0873	3765.4766
OCC1(CCCC1)C=O	OCC1(CCCC1)C=O	
InChI=1S/C7H12O2/c8-5-7(6-9)3-1-2-4-7/h5,9H,1-4,6H2	InChI=1S/C7H12O2/c8-5-7(6-9)3-1-2-4-7/h5,9H,1-4,6H2
