20
gdb 70257	3.62832	1.08272	0.95154	4.2941	83.3	-0.2756	0.0384	0.314	1280.9669	0.172503	-366.041461	-366.033063	-366.032119	-366.074227	32.728	
C	-0.6670712988	 1.5121351333	 0.3163898923	-0.480295
C	-0.0781732931	 0.1383998616	 0.100115525	 0.35303
C	-0.817683484	-1.0855262391	 0.5915259233	-0.334475
C	 0.4996091482	-0.6985204919	 1.2249097915	-0.071468
C	 1.755428645	-1.3962452995	 0.7326543166	-0.228718
C	 1.6314633309	-1.3509720575	-0.8195938244	-0.167468
C	 0.8159406135	-0.0606584215	-1.1190519459	-0.276259
C	 2.9175533293	-1.3980598784	-1.5057616486	 0.262037
N	 3.939805001	-1.426617861	-2.0450687512	-0.326664
H	 0.115858351	 2.278811469	 0.3509455809	 0.119095
H	-1.3583898119	 1.7808949765	-0.4909096702	 0.121188
H	-1.224852349	 1.5602624884	 1.2567706986	 0.117681
H	-1.7122954983	-0.9083599452	 1.1791454913	 0.112044
H	-0.8779884472	-1.9764817211	-0.026442176	 0.109065
H	 0.4894969374	-0.3342133286	 2.2466106104	 0.088493
H	 2.6418826212	-0.8382676146	 1.0519428343	 0.123202
H	 1.8671694301	-2.4236347027	 1.0925935125	 0.116253
H	 1.0587784808	-2.2210876007	-1.1562023063	 0.129295
H	 0.2649092203	-0.1447558557	-2.0612518082	 0.11416
H	 1.4949263239	 0.7942543487	-1.213723716	 0.119804
99.1473	150.0843	199.5538	218.4188	284.9119	314.5642	364.4317	396.0396	502.4433	544.7797	560.4416	586.6171	710.4596	820.6233	843.8215	872.8313	899.6954	921.5752	959.3915	984.6779	1028.667	1038.46	1053.9632	1072.061	1096.2406	1104.7321	1123.519	1184.3064	1233.0243	1251.2384	1292.7646	1298.5345	1313.8441	1335.4382	1366.9264	1409.7557	1422.0863	1487.7897	1489.4165	1493.3221	1499.3178	1510.6723	2356.3687	3022.5183	3041.826	3049.0982	3054.9462	3081.4269	3085.781	3093.3202	3099.7546	3122.8694	3167.1278	3204.5032
CC12CC1CC(C2)C#N	C[C@]12C[C@H]1C[C@@H](C2)C#N	
InChI=1S/C8H11N/c1-8-3-6(5-9)2-7(8)4-8/h6-7H,2-4H2,1H3	InChI=1S/C8H11N/c1-8-3-6(5-9)2-7(8)4-8/h6-7H,2-4H2,1H3/t6-,7+,8-/m0/s1
