21
gdb 108117	2.97477	1.48289	1.34054	1.709	81.38	-0.236	0.0855	0.3215	1073.5686	0.184058	-387.054797	-387.047149	-387.046205	-387.086847	31.175	
C	-0.0915278044	 1.5781549741	 0.0299269134	-0.379568
C	-0.0293936603	 0.044713921	-0.0074805827	-0.305736
C	 0.6558700321	-0.4881361551	-1.2426097591	 0.346213
C	 0.1139518751	-0.3410794928	-2.6776671149	-0.293251
C	 1.1931089814	-1.3976235575	-2.9849780828	 0.072204
O	 2.4069834156	-0.6526447729	-2.7885649938	-0.271006
C	 2.2484442741	-0.4278896066	-1.379645476	 0.041637
C	 2.3336251569	-1.86328348	-0.8133417682	-0.249199
C	 0.9874651862	-2.0075055722	-1.5349689436	-0.120274
H	 0.9113036107	 2.017626324	 0.0148550056	 0.118679
H	-0.638257262	 1.9730652831	-0.832456099	 0.121864
H	-0.5965072414	 1.9291437896	 0.9349013681	 0.112959
H	 0.4859928546	-0.3207194914	 0.8903131901	 0.096575
H	-1.0479607551	-0.3624055961	 0.0412801427	 0.096532
H	-0.903007977	-0.7401939186	-2.7444270498	 0.094515
H	 0.1936919553	 0.6122248458	-3.2068755374	 0.097927
H	 1.2367150573	-1.9837395884	-3.9013582577	 0.075944
H	 2.8666392543	 0.4030139301	-1.0421634187	 0.074571
H	 3.1909762737	-2.4620342641	-1.1299735307	 0.099026
H	 2.2096032504	-1.9083013797	 0.2715284969	 0.100576
H	 0.2794309024	-2.8233891925	-1.3971710025	 0.069813
83.7373	158.9195	205.0702	301.9149	333.8445	434.6877	466.3371	526.3991	578.2465	672.3443	711.7561	778.7256	813.085	841.3388	896.6	903.2359	925.7206	929.5509	950.7002	977.2493	988.7677	993.4556	1019.2042	1044.4049	1073.8004	1088.9287	1136.3397	1143.4011	1170.8191	1187.7262	1213.0364	1227.0627	1241.0901	1253.1604	1275.8851	1306.6005	1317.7996	1342.5447	1371.4308	1411.4696	1478.5023	1480.2921	1485.7837	1499.508	1507.0553	3013.212	3035.9539	3043.3861	3049.4841	3062.8928	3104.1646	3107.1262	3111.3144	3122.7125	3127.0625	3129.2975	3138.0419
CCC12CC3OC1CC23	CC[C@@]12C[C@H]3O[C@@H]1C[C@@H]23	
InChI=1S/C8H12O/c1-2-8-4-6-5(8)3-7(8)9-6/h5-7H,2-4H2,1H3	InChI=1S/C8H12O/c1-2-8-4-6-5(8)3-7(8)9-6/h5-7H,2-4H2,1H3/t5-,6-,7-,8+/m1/s1
