17
gdb 49753	3.52042	1.33437	1.17894	3.3079	73.19	-0.2361	-0.0387	0.1974	1060.497	0.136884	-421.813362	-421.806064	-421.80512	-421.845566	28.22	
O	-0.1034223532	 0.0102195188	-0.237783026	-0.251981
C	-0.004601218	 1.168770124	 0.0743381165	 0.145906
C	 1.3026707952	 1.9547676133	 0.0583656337	-0.115665
C	 1.3341653273	 2.8338459859	-1.1852515517	-0.097203
C	 1.3631912887	 4.1578755803	-1.0353002742	-0.054103
C	 1.3875612367	 4.6676374475	 0.3907764401	 0.042969
C	 2.509322161	 3.9328275709	 1.1668729443	-0.249743
C	 1.4013790223	 2.8678312165	 1.3019213285	 0.055397
O	 0.3998953389	 3.9168929624	 1.1699268091	-0.29315
H	-0.8845603933	 1.7726073644	 0.3825042595	 0.102459
H	 2.1196067419	 1.2239315905	 0.033290455	 0.10054
H	 1.3142893597	 2.3458717808	-2.1544879607	 0.114535
H	 1.4042652005	 4.8472313528	-1.8715591132	 0.103311
H	 1.2631883266	 5.7463314499	 0.4940474844	 0.084344
H	 3.4300576027	 3.6856035509	 0.6367185843	 0.108467
H	 2.720163409	 4.4008681057	 2.1295460915	 0.115693
H	 1.304636064	 2.3165751754	 2.2410733386	 0.088225
64.5354	124.0443	236.4963	349.2837	377.1416	413.3371	456.0531	554.6165	610.044	712.7762	742.1942	852.9524	865.2607	889.073	906.4908	931.5378	959.9186	973.0863	984.2142	1021.529	1066.5434	1078.9191	1107.5845	1127.8042	1165.9431	1204.603	1242.5409	1249.5977	1282.85	1315.0098	1325.8924	1356.2794	1388.0362	1411.1434	1485.1709	1685.9062	1825.8044	2913.8945	3046.9836	3072.9488	3082.1291	3107.0549	3145.0693	3174.5815	3198.2678
O=CC1C=CC2CC1O2	O=C[C@H]1C=C[C@@H]2C[C@H]1O2	
InChI=1S/C7H8O2/c8-4-5-1-2-6-3-7(5)9-6/h1-2,4-7H,3H2	InChI=1S/C7H8O2/c8-4-5-1-2-6-3-7(5)9-6/h1-2,4-7H,3H2/t5-,6-,7-/m1/s1
