17
gdb 23610	3.53519	1.04795	0.92362	1.6423	72.51	-0.2463	-0.0087	0.2375	1275.3107	0.135452	-455.041472	-455.032946	-455.032002	-455.075322	31.029	
O	-0.2702261477	 1.3874827067	-0.1249612654	-0.388009
N	 0.0115209939	 0.0270372711	 0.0710844507	-0.222349
C	-1.0399282988	-0.6663550201	 0.00836548	 0.362281
C	-2.5167758049	-0.4736185841	-0.215080736	-0.169013
O	-2.7059059476	-1.9103881139	-0.107706709	-0.300402
C	-1.2921769299	-2.1534060136	 0.1457869793	-0.000053
C	-0.665469415	-3.0872094927	-0.8638962276	-0.005915
C	-1.4317916862	-4.2633037752	-1.3377012905	-0.240391
N	-1.1644973889	-3.1253660418	-2.2406912499	-0.318173
H	 0.6031171998	 1.7901890871	-0.0654537991	 0.313168
H	-3.0471717922	 0.0764146186	 0.5715341954	 0.134934
H	-2.8106915394	-0.0793431729	-1.19523687	 0.134795
H	-1.1323090918	-2.5357858067	 1.1639841951	 0.108402
H	 0.4164481609	-3.154915619	-0.7698414099	 0.108056
H	-0.9143643934	-5.1846567171	-1.5880137219	 0.120091
H	-2.4435252571	-4.3852231192	-0.961553036	 0.126933
H	-2.013227302	-2.5633213072	-2.2861076653	 0.235647
63.6087	106.6816	122.1202	201.9382	245.3362	292.6413	349.8386	379.61	482.6779	588.2421	619.1677	749.2743	782.5399	854.6344	883.0312	932.6571	965.5546	977.9259	997.5924	1000.2531	1033.4454	1073.9669	1123.4541	1134.6804	1140.969	1180.795	1185.4508	1247.8509	1281.9607	1298.3081	1319.9476	1344.7945	1404.609	1417.726	1497.6413	1506.4482	1817.1049	3006.0374	3025.12	3068.4326	3115.4183	3134.3014	3204.7125	3482.7966	3815.4774
ON=C1COC1C1CN1	ON=C1CO[C@H]1[C@H]1CN1	
InChI=1S/C5H8N2O2/c8-7-4-2-9-5(4)3-1-6-3/h3,5-6,8H,1-2H2	InChI=1S/C5H8N2O2/c8-7-4-2-9-5(4)3-1-6-3/h3,5-6,8H,1-2H2/t3-,5+/m1/s1
