16
gdb 45232	3.61457	1.72107	1.54103	3.0455	68.81	-0.2566	0.0167	0.2733	881.0816	0.128009	-437.883561	-437.877658	-437.876714	-437.913715	24.9	
N	-0.0347043674	 1.30204487	-0.1718751113	-0.557649
C	-0.0124565949	 0.0542323735	 0.0009739913	 0.427538
O	 1.1216166599	-0.7266595504	 0.1184826461	-0.236758
C	 0.6554628818	-2.0235080157	 0.5003203296	 0.183138
O	 0.084943912	-1.9132640473	 1.799316674	-0.26766
C	-1.2941161657	-1.6876510637	 1.4419554867	 0.084191
C	-1.612044505	-2.948062114	 0.6092784381	-0.250517
C	-0.6102619404	-2.2778810926	-0.3597685817	-0.098723
C	-1.1748869396	-0.8866143536	 0.0838475473	-0.14432
H	 0.9149252359	 1.6788166495	-0.1959601104	 0.226013
H	 1.495976187	-2.7131437984	 0.4863940999	 0.104783
H	-1.8585421698	-1.3387599425	 2.3032241343	 0.101222
H	-1.3568387428	-3.9094057098	 1.0591071825	 0.111596
H	-2.6254537243	-2.957883454	 0.2024048368	 0.114101
H	-0.4634415834	-2.557258062	-1.4009901032	 0.093897
H	-2.1089363235	-0.5390942689	-0.3469046699	 0.109147
153.4313	322.5793	402.2382	468.8493	533.4732	579.8834	636.3746	696.6863	800.691	827.4772	859.617	871.8079	898.5229	903.6177	923.9786	940.7894	948.007	957.2175	1011.5143	1023.3209	1048.7576	1091.0953	1101.7256	1120.425	1182.0193	1226.4398	1236.4843	1247.1909	1260.2514	1272.4247	1315.1537	1348.1457	1374.6969	1489.8282	1795.1478	3072.518	3137.4318	3144.0812	3157.744	3161.6048	3176.753	3469.2926
N=C1OC2OC3CC2C13	[NH][C]1O[C@H]2O[C@@H]3C[C@H]2[C@H]13	
InChI=1S/C6H7NO2/c7-5-4-2-1-3(4)8-6(2)9-5/h2-4,6-7H,1H2	InChI=1S/C6H7NO2/c7-5-4-2-1-3(4)8-6(2)9-5/h2-4,6-7H,1H2/t2-,3+,4-,6+/m0/s1
