18
gdb 34053	3.15045	1.32897	1.10152	4.9903	76.29	-0.2435	0.0185	0.262	1119.6203	0.151295	-398.116939	-398.109251	-398.108307	-398.14904	30.043	
N	-0.0024840442	-1.1422336141	 0.0287743155	-0.34128
C	 0.0187989906	 0.0138524887	 0.0574467581	 0.261375
C	 0.0188925949	 1.4595679568	 0.0327295589	 0.12395
C	-1.1935108776	 2.0974737207	-0.6857348259	-0.261871
N	-0.8877879912	 3.1888141553	-1.6001124877	-0.265104
C	 0.0794437003	 4.1339934263	-1.0512299963	-0.188596
C	 1.446489421	 3.495893094	-0.7417225277	-0.24001
C	 1.3317941444	 2.1954218281	 0.0285565735	-0.0298
N	 0.5552240592	 2.0911547131	 1.2628078474	-0.34433
H	-1.7285080723	 1.321849753	-1.2384609479	 0.135411
H	-1.8860074059	 2.4671315213	 0.0834485249	 0.124604
H	-0.5317458493	 2.8117496954	-2.4732978261	 0.223535
H	 0.2104434729	 4.9598297135	-1.7568225751	 0.116198
H	-0.3579361362	 4.5723650892	-0.1434980839	 0.109149
H	 1.9659370658	 3.285527254	-1.6855422494	 0.11239
H	 2.083114814	 4.1957980403	-0.1857058711	 0.115764
H	 2.2367225904	 1.5926835468	 0.0503853993	 0.116101
H	 0.0348720032	 2.9489929775	 1.4411845735	 0.232514
113.6813	148.3543	198.4997	286.0093	358.9971	381.5347	411.8627	496.5874	551.2759	597.999	607.069	693.8904	769.0576	823.7468	848.9599	889.6621	934.7885	943.0851	986.2206	1007.8124	1050.7892	1104.2072	1133.8884	1160.2664	1189.5394	1216.5626	1259.0421	1276.0176	1327.7363	1347.393	1361.3072	1375.0243	1398.3298	1438.4697	1476.8624	1479.5891	1491.487	1502.7521	2350.9588	3010.174	3016.6181	3021.5044	3059.0047	3082.7896	3103.9944	3138.0087	3478.6159	3510.7375
N#CC12CNCCC1N2	N#C[C@]12CNCC[C@H]1N2	
InChI=1S/C6H9N3/c7-3-6-4-8-2-1-5(6)9-6/h5,8-9H,1-2,4H2	InChI=1S/C6H9N3/c7-3-6-4-8-2-1-5(6)9-6/h5,8-9H,1-2,4H2/t5-,6+/m1/s1
