15
gdb 124332	2.8435	1.5931	1.02769	3.5741	70.29	-0.2155	-0.0314	0.1841	1089.1191	0.112592	-450.154908	-450.146367	-450.145422	-450.18899	30.248	
C	-0.0545050129	 1.5216255089	-0.0994945196	-0.509406
C	 0.115014729	 0.0124608218	-0.0864379345	 0.420554
O	 1.1852698446	-0.5304701206	-0.1258896551	-0.277683
N	-1.0959323237	-0.718020286	-0.0244425238	-0.176429
C	-2.3840943345	-0.1863353544	 0.0287062102	 0.05552
N	-3.3014345847	-1.0863903072	 0.0739657574	-0.206554
N	-2.6157621698	-2.2758577939	 0.0326571818	-0.322701
C	-1.234023493	-2.1392172512	 0.0017834206	 0.461166
N	-0.2925450815	-2.9902278884	-0.0097463995	-0.551019
H	 0.9406872141	 1.9608159265	-0.1513371472	 0.160259
H	-0.6397861458	 1.8523069965	-0.9634913093	 0.149364
H	-0.5576567187	 1.8763532049	 0.8057867296	 0.149292
H	-2.5836725781	 0.8709376501	 0.0306129616	 0.159027
H	-3.1174971711	-3.1378170259	 0.1475511077	 0.274987
H	-0.6653253838	-3.937999241	 0.0134616501	 0.213623
55.016	67.5444	138.0512	187.7234	218.897	321.1219	355.5789	456.3509	511.549	575.4225	646.7213	650.1497	726.9715	749.1545	761.1694	825.5394	909.9902	955.9928	1051.9756	1055.079	1091.1718	1094.9774	1258.1348	1269.428	1299.3631	1383.2385	1390.8177	1398.8606	1474.1846	1484.4896	1647.0364	1744.4386	1842.4407	3044.6486	3109.618	3168.1827	3300.0997	3500.3446	3700.5171
CC(=O)N1C=NNC1=N	CC(=O)N1C=NN[C@H]1[NH]	
InChI=1S/C4H6N4O/c1-3(9)8-2-6-7-4(8)5/h2H,1H3,(H2,5,7)	InChI=1S/C4H7N4O/c1-3(9)8-2-6-7-4(8)5/h2,4-5,7H,1H3/t4-/m1/s1
