22
gdb 107200	3.73003	1.19831	1.0787	1.4922	84.74	-0.2248	0.0848	0.3095	1223.4382	0.195622	-367.179811	-367.171521	-367.170577	-367.212463	33.272	
C	 0.0680910418	 1.5074382272	 0.3415609222	-0.374699
C	-0.0345914477	 0.0550779513	-0.1418996356	-0.277055
C	-1.4453163573	-0.4954283975	-0.1035477503	 0.38509
C	-1.9928790906	-1.0586991203	 1.1890125472	-0.348037
C	-1.7561348353	-1.9722163082	 0.0051001995	-0.065965
N	-2.8153516595	-2.3625150541	-0.9238729159	-0.102197
C	-4.1728624911	-1.8738413397	-0.6470443292	-0.249736
C	-3.2930492327	-1.1261616	-1.5808582695	-0.008251
C	-2.4795560205	 0.074242621	-1.0904684567	-0.327443
H	 1.1030685711	 1.8619586654	 0.310248488	 0.110821
H	-0.531078616	 2.1786783982	-0.2829287747	 0.116953
H	-0.291401543	 1.6048477535	 1.3714108009	 0.117216
H	 0.3564667133	-0.0189601215	-1.1659218971	 0.095555
H	 0.6108980412	-0.5793820961	 0.4781086682	 0.094628
H	-1.2945464036	-1.1624181784	 2.0145808152	 0.106798
H	-2.9973501961	-0.8076604803	 1.5088872159	 0.109454
H	-0.9651918892	-2.7105846994	 0.0836856605	 0.091802
H	-4.9642343742	-2.505619662	-1.0425775704	 0.112342
H	-4.4003864793	-1.4424029789	 0.3223452307	 0.111466
H	-3.4824286402	-1.1960590333	-2.6494406351	 0.088545
H	-3.1082846857	 0.8542090631	-0.6470343715	 0.107499
H	-1.9589001054	 0.53099632	-1.9388786222	 0.105213
87.1404	133.6167	203.7197	253.2372	265.8054	355.8481	369.4163	442.642	512.3986	614.0951	666.371	719.5977	761.6186	786.7218	816.9838	856.6278	873.7052	899.185	929.4839	942.8102	991.6421	1001.3078	1048.6313	1056.106	1061.8438	1082.2008	1096.1242	1115.3445	1119.5182	1134.3078	1163.485	1193.3032	1251.7239	1256.7089	1285.3285	1305.9783	1328.6211	1358.5305	1388.5544	1397.0653	1411.2432	1476.4732	1483.2503	1493.7036	1499.4416	1507.2853	1523.9107	3011.2969	3031.9989	3039.508	3048.385	3075.4812	3100.2955	3103.8389	3110.7653	3127.866	3130.4361	3161.8822	3192.6269	3211.2204
CCC12CC1N1CC1C2	CC[C@]12C[C@H]1N1C[C@H]1C2	
InChI=1S/C8H13N/c1-2-8-3-6-5-9(6)7(8)4-8/h6-7H,2-5H2,1H3	InChI=1S/C8H13N/c1-2-8-3-6-5-9(6)7(8)4-8/h6-7H,2-5H2,1H3/t6-,7-,8+,9?/m1/s1
