21
gdb 101097	3.21202	1.0841	0.96061	1.6424	78.48	-0.2351	0.0728	0.3079	1301.9903	0.181338	-424.157305	-424.148112	-424.147168	-424.191433	34.912	
C	-0.0688262016	 1.5616388019	-0.0050171073	-0.398774
C	 0.0956196055	 0.037211803	 0.0229062337	-0.160517
C	 0.8222854569	-0.4784445799	-1.2317362595	-0.074599
O	 0.1227709547	-0.1761727528	-2.4304236154	-0.419951
C	 0.8045398041	-0.4165450975	 1.269818306	 0.450082
C	 2.2879750074	-0.2313688259	 1.7126313535	-0.26065
C	 1.5954134471	-1.2359048352	 2.6576099625	 0.045684
C	 0.3698205375	-0.3014039727	 2.7576835494	-0.268495
O	 0.9752717458	-1.8864765707	 1.4820441083	-0.355806
H	 0.9048822548	 2.059900946	 0.0654163917	 0.116643
H	-0.5320734581	 1.864069447	-0.9467782441	 0.133184
H	-0.6908639313	 1.9160478997	 0.8222429621	 0.11454
H	-0.9013706124	-0.4289065169	 0.04281677	 0.075275
H	 1.7949061585	 0.0182106353	-1.3248535537	 0.109519
H	 1.0096488886	-1.5556156754	-1.1324613305	 0.113609
H	-0.6760114191	-0.7130229142	-2.4460739894	 0.282645
H	 3.0330868069	-0.6639060864	 1.0438581006	 0.107648
H	 2.5872042737	 0.7386189291	 2.1179739744	 0.095625
H	 2.0329329551	-1.8865079622	 3.414356067	 0.095107
H	 0.4928107569	 0.6620115086	 3.2590910853	 0.095044
H	-0.5715462912	-0.7959481006	 3.0019593053	 0.104188
62.3977	105.8502	144.2083	202.6017	229.5692	277.0848	310.7324	361.6446	393.1512	462.3315	533.4771	598.8399	696.7389	736.6153	801.0731	874.5252	903.756	913.0613	916.2183	940.4742	977.1423	987.0083	1031.8213	1061.3345	1087.3473	1101.1197	1108.2515	1119.9836	1146.9356	1157.1103	1212.3352	1225.5127	1237.8712	1250.427	1305.2542	1345.8416	1359.5691	1400.3308	1403.8547	1418.8993	1467.1867	1494.7727	1504.2149	1509.5131	1514.6308	2992.8578	3019.3553	3036.4917	3058.1274	3066.2296	3072.7814	3102.2787	3122.7885	3129.5508	3141.8761	3146.9265	3816.1679
CC(CO)C12CC(C1)O2	C[C@@H](CO)[C@@]12C[C@@H](C1)O2	
InChI=1S/C7H12O2/c1-5(4-8)7-2-6(3-7)9-7/h5-6,8H,2-4H2,1H3	InChI=1S/C7H12O2/c1-5(4-8)7-2-6(3-7)9-7/h5-6,8H,2-4H2,1H3/t5-,6-,7+/m0/s1
