27
gdb 88946	2.80793	0.87035	0.82261	0.1399	96.33	-0.2596	0.0767	0.3362	1636.5495	0.249804	-353.55984	-353.548521	-353.547577	-353.596208	43.072	
C	 0.1948576468	 1.612938565	-0.2557642683	-0.402667
C	 0.0103304067	 0.1255284444	-0.0420431686	-0.008386
C	 1.1815064104	-0.8241179365	-0.1012257619	-0.288432
C	 0.4648010889	-0.5947684101	 1.2118858765	-0.004095
C	 1.1221011601	 0.128910861	 2.3720274768	-0.213139
C	 1.8672819222	-0.757021489	 3.4069373335	 0.271243
C	 3.0098119358	-1.5425776543	 2.7385618735	-0.395508
C	 2.4585869252	 0.1729858026	 4.4827500901	-0.403948
C	 0.8957293404	-1.7420783902	 4.0838451067	-0.401526
H	 1.1561205429	 1.9665433008	 0.1271975821	 0.115513
H	 0.1605971327	 1.8564059616	-1.3235908278	 0.113986
H	-0.5928919926	 2.19102502	 0.2408946849	 0.114085
H	-0.9152498032	-0.2569886243	-0.4660616998	 0.078213
H	 1.0678584275	-1.7769020457	-0.6077166051	 0.10386
H	 2.1684676877	-0.3835978395	-0.2101007039	 0.105487
H	-0.1994496391	-1.3992397056	 1.5166225247	 0.079219
H	 1.8349792622	 0.8670922201	 1.9850843097	 0.08531
H	 0.3564357897	 0.7035784551	 2.9130534327	 0.087508
H	 3.7268358217	-0.8674274484	 2.2579148455	 0.102414
H	 3.5579803961	-2.1338002796	 3.4808040415	 0.103091
H	 2.6331831888	-2.2282839757	 1.9745812169	 0.118305
H	 1.6726126979	 0.7455768459	 4.9879733603	 0.105821
H	 2.9969943251	-0.399650483	 5.245980237	 0.105124
H	 3.1628749826	 0.8885294546	 4.0437027527	 0.105369
H	 0.4876997296	-2.4669842896	 3.372876118	 0.11157
H	 1.4064056729	-2.3088867319	 4.8701761851	 0.106206
H	 0.0545935912	-1.2143083481	 4.5477314071	 0.105376
33.2867	93.7822	128.9753	188.6156	209.3128	224.8386	258.8721	267.6204	284.3241	326.5965	342.5596	382.3537	408.574	426.2287	461.5375	516.8121	746.9471	759.8406	833.7462	860.4988	874.5398	905.3754	927.9027	935.1356	942.8466	958.8056	972.1541	1028.2779	1040.8472	1063.4216	1083.0514	1110.2879	1136.5155	1154.5554	1199.6662	1221.4272	1228.7995	1250.0095	1269.2249	1312.6343	1345.178	1395.7981	1398.814	1401.408	1418.6028	1427.9195	1435.1435	1474.3358	1480.6881	1484.9277	1486.373	1492.7893	1494.7678	1505.0509	1507.8339	1510.3843	1517.7796	2999.0034	3020.4763	3023.5173	3028.5341	3030.9655	3048.244	3084.1707	3085.6093	3087.3909	3091.1402	3094.4492	3100.3752	3105.3887	3109.6702	3121.2567	3127.8947	3140.6716	3203.8548
CC1CC1CC(C)(C)C	C[C@H]1C[C@H]1CC(C)(C)C	
InChI=1S/C9H18/c1-7-5-8(7)6-9(2,3)4/h7-8H,5-6H2,1-4H3	InChI=1S/C9H18/c1-7-5-8(7)6-9(2,3)4/h7-8H,5-6H2,1-4H3/t7-,8-/m0/s1
