21
gdb 41904	2.15799	1.95649	1.70576	1.9897	76.14	-0.2443	0.0696	0.3139	961.9159	0.186838	-424.240144	-424.232806	-424.231862	-424.271663	29.953	
C	 0.0451596341	 1.5242089659	 0.0964147208	-0.073321
O	 1.3134620412	 2.0470211358	-0.2967401364	-0.258636
C	 2.3742519263	 1.1314912876	-0.1789161495	 0.206448
C	 2.6208849009	 0.6547658054	 1.2760702151	-0.243125
C	 1.9438211055	-0.6818755746	 1.6005064353	-0.188685
C	 0.426836599	-0.6910760864	 1.3480802561	-0.210408
C	 0.0021615991	-0.0138329583	 0.0268751887	-0.058033
C	 0.8662410127	-0.4329554251	-1.1703602408	-0.069201
O	 2.2132655249	 0.0323347381	-1.0613406674	-0.269709
H	-0.214290803	 1.8775271299	 1.1053852162	 0.090922
H	-0.6814022817	 1.9534276374	-0.6023269829	 0.106704
H	 3.2499277266	 1.6751804808	-0.5443146751	 0.088339
H	 3.7011749727	 0.5457491151	 1.4204705839	 0.101875
H	 2.2941601188	 1.452073673	 1.9542346324	 0.10479
H	 2.4147712979	-1.4526853059	 0.9823598844	 0.114338
H	 2.1431503398	-0.9532299212	 2.6430752153	 0.090809
H	 0.0715564062	-1.7283924396	 1.3527614419	 0.094873
H	-0.0947522186	-0.1868315789	 2.1716547631	 0.094454
H	-1.032586006	-0.3068951186	-0.1853792459	 0.075889
H	 0.9112357598	-1.5239381677	-1.2654815283	 0.102707
H	 0.4220202939	-0.0341568228	-2.0942761367	 0.098972
104.3717	230.1455	243.3895	306.5956	341.9461	404.206	469.0245	525.7712	538.2267	662.3872	750.6443	792.2028	835.6023	862.1177	882.1185	913.3065	931.3675	973.4337	989.557	1007.7228	1021.3832	1039.7543	1075.9489	1128.8275	1138.92	1175.8634	1195.9724	1227.3129	1250.5436	1273.6383	1282.1062	1340.6068	1343.9797	1362.1249	1364.66	1378.7609	1391.5612	1399.7649	1417.3203	1422.1051	1480.84	1484.1001	1495.9611	1512.1844	1523.4467	2990.5868	2992.9557	3017.8921	3034.4134	3038.5237	3042.4064	3052.533	3055.4783	3060.9499	3067.1264	3078.5028	3089.1938
C1OC2CCCC1CO2	C1O[C@H]2CCC[C@@H]1CO2	
InChI=1S/C7H12O2/c1-2-6-4-8-7(3-1)9-5-6/h6-7H,1-5H2	InChI=1S/C7H12O2/c1-2-6-4-8-7(3-1)9-5-6/h6-7H,1-5H2/t6-,7+
