15
gdb 124166	3.68056	0.98395	0.78076	1.811	81.42	-0.2073	-0.011	0.1963	1411.6654	0.113899	-412.975406	-412.966557	-412.965613	-413.01024	31.198	
C	-0.0229779837	 1.4723478636	 0.0002975012	-0.510158
C	 0.0132277206	 0.018762356	-0.0083447614	 0.219281
C	 0.0648987798	-1.1870840289	-0.0093526846	-0.100381
C	 0.0547256781	-2.5977376862	-0.01145311	 0.174377
N	 1.1522075771	-3.3707091322	-0.0895743696	-0.27989
N	 0.666295936	-4.5928929033	-0.0676275168	-0.11657
N	-0.6653219979	-4.7206976221	 0.015710363	-0.258826
C	-1.0783560458	-3.4567893002	 0.0573907423	 0.215038
N	-2.4024127145	-3.0971040037	 0.2067509601	-0.606755
H	 0.9722960262	 1.8850303123	 0.1981471688	 0.157442
H	-0.362647664	 1.8732765629	-0.9615657682	 0.149502
H	-0.6983410072	 1.8498684964	 0.776250877	 0.15133
H	 1.2659991936	-5.3994710044	-0.1112008701	 0.290621
H	-3.0548228982	-3.8032065574	-0.1027484041	 0.258135
H	-2.6171534801	-2.181796783	-0.1622403176	 0.256854
28.6586	81.3948	110.0328	252.5008	267.5722	297.7393	341.9863	391.7844	428.0885	479.1612	517.3969	568.3068	627.3922	694.9167	747.2502	797.517	982.1322	1006.9606	1050.9816	1052.6655	1095.0333	1191.7897	1222.6573	1302.0175	1381.586	1412.5985	1466.7963	1474.2287	1477.1546	1550.7248	1580.5417	1647.3978	2358.3669	3025.1439	3083.2363	3091.1008	3563.2227	3666.4981	3681.2058
CC#CC1=NNN=C1N	CC#Cc1n[nH]nc1N	
InChI=1S/C5H6N4/c1-2-3-4-5(6)8-9-7-4/h1H3,(H3,6,7,8,9)	InChI=1S/C5H6N4/c1-2-3-4-5(6)8-9-7-4/h1H3,(H3,6,7,8,9)
