25
gdb 115291	2.71702	1.104	0.82878	0.1892	96.99	-0.2144	0.0389	0.2533	1508.973	0.228367	-352.394386	-352.383909	-352.382965	-352.429537	39.246	
C	 0.9480145441	-0.3446987067	 1.2832812734	-0.382238
C	 0.1251911539	 0.0940821747	 0.0675910259	-0.184449
C	 0.7350152844	-0.3437599762	-1.2737342092	-0.043493
C	 0.8187917515	-1.8807732821	-1.4520344515	-0.219375
C	 0.5919121274	-2.1313346308	-2.95684084	-0.300711
C	-0.1155455016	-0.8766691776	-3.4251659402	 0.213537
C	-0.7332743899	-0.8362724206	-4.7886433077	-0.495232
C	-0.037468378	 0.1006389373	-2.510969918	 0.228111
C	-0.5383459767	 1.5083533503	-2.630654779	-0.504229
H	 1.0290138316	-1.4348841942	 1.3425177483	 0.117921
H	 1.9657235699	 0.0596375055	 1.2358219642	 0.111326
H	 0.4945604574	 0.0049203055	 2.2161167584	 0.108468
H	-0.8934707553	-0.3103130528	 0.1439672998	 0.090676
H	 0.0238438599	 1.1861683624	 0.0826778647	 0.091663
H	 1.7478598427	 0.0930318171	-1.3249560041	 0.064228
H	 1.7563772163	-2.3051555144	-1.0836220865	 0.092426
H	 0.0071839081	-2.3465601533	-0.8800695287	 0.09609
H	 1.5414065038	-2.2561561929	-3.4995618969	 0.096698
H	 0.0128520123	-3.042818762	-3.1517850966	 0.092785
H	 0.0138568985	-1.0510188063	-5.5645168032	 0.121246
H	-1.5101052093	-1.6055916574	-4.8896837435	 0.121436
H	-1.1882375795	 0.1293413447	-5.0217112538	 0.119115
H	-0.9730032779	 1.713857497	-3.611680992	 0.118262
H	-1.3020558391	 1.7333521725	-1.8760461195	 0.125852
H	 0.2755373156	 2.2282319704	-2.4698415442	 0.119887
81.2222	108.4789	151.3974	157.7668	182.1883	188.3039	237.923	292.3584	299.5352	319.0623	409.2737	444.7951	533.2925	580.3578	617.6698	712.7514	776.5669	849.976	879.0514	929.9164	949.5507	967.8351	994.6103	1008.2366	1028.257	1055.5497	1068.5859	1099.6915	1128.3358	1143.0844	1186.0503	1204.6171	1236.0523	1262.0005	1280.6255	1302.4106	1327.1997	1347.9079	1357.4582	1377.8405	1407.9489	1412.0334	1420.7531	1477.7709	1481.2628	1483.7387	1486.6478	1491.2032	1495.2495	1499.303	1503.5889	1508.1895	1738.5598	2943.473	2990.4442	3012.0163	3012.9676	3015.8374	3027.0802	3030.0212	3042.7542	3050.6043	3053.1361	3059.1344	3091.5954	3095.8005	3103.7039	3110.7812	3117.9524
CCC1CCC(C)=C1C	CC[C@H]1CCC(=C1C)C	
InChI=1S/C9H16/c1-4-9-6-5-7(2)8(9)3/h9H,4-6H2,1-3H3	InChI=1S/C9H16/c1-4-9-6-5-7(2)8(9)3/h9H,4-6H2,1-3H3/t9-/m0/s1
