19
gdb 91232	2.45653	1.6089	1.37273	3.4178	74.25	-0.226	-0.0316	0.1943	1033.4041	0.159395	-423.040614	-423.032516	-423.031572	-423.073525	31.177	
C	 0.7104456256	 1.3344620616	-0.055821955	-0.39908
C	-0.020355708	-0.0077394072	-0.0051191402	 0.111288
C	 0.2107807616	-0.9180520388	-1.2391081164	-0.250596
C	 1.2940042649	-1.9230800224	-0.8069453593	-0.053456
C	 2.7839010733	-1.4993089598	-0.9783323164	-0.371334
C	 2.8248050689	-1.1506451354	 0.5239080463	 0.379638
O	 3.6316989968	-0.6305123852	 1.2353603426	-0.289771
C	 1.3764822842	-1.702028977	 0.7398271811	 0.002695
O	 0.3836735451	-0.7889173074	 1.1322314028	-0.255914
H	 1.7844017511	 1.2178497885	-0.2284425225	 0.128667
H	 0.3032596474	 1.9545617342	-0.861702475	 0.113526
H	 0.5793985701	 1.867309995	 0.8896760856	 0.132789
H	-1.0884263181	 0.1857471256	 0.1404704987	 0.086847
H	-0.7105644608	-1.4545463892	-1.4807187001	 0.11116
H	 0.4965951	-0.3412076693	-2.1231407723	 0.107435
H	 1.074853169	-2.9370326063	-1.139320124	 0.082669
H	 3.4617553013	-2.3213011542	-1.2301850022	 0.134262
H	 2.9919680873	-0.667875035	-1.6583707479	 0.129203
H	 1.3345963402	-2.5751086676	 1.3986047742	 0.099972
62.2807	111.4174	198.7631	231.3196	325.1248	357.1431	415.6951	428.8649	536.595	586.0356	715.5387	723.6332	759.7752	790.408	848.0937	871.1335	896.5825	922.0893	961.2444	1030.7077	1044.8089	1050.983	1098.4544	1102.9971	1143.2512	1145.1897	1167.3441	1218.3042	1231.3307	1250.9588	1292.1591	1317.3471	1339.2303	1360.7283	1390.3282	1411.2907	1434.1504	1486.2476	1494.2494	1496.1079	1893.0365	3040.2692	3044.8785	3053.6382	3061.5109	3066.2446	3100.9847	3102.9265	3111.4274	3118.6362	3124.993
CC1CC2CC(=O)C2O1	C[C@H]1C[C@H]2CC(=O)[C@H]2O1	
InChI=1S/C7H10O2/c1-4-2-5-3-6(8)7(5)9-4/h4-5,7H,2-3H2,1H3	InChI=1S/C7H10O2/c1-4-2-5-3-6(8)7(5)9-4/h4-5,7H,2-3H2,1H3/t4-,5-,7-/m0/s1
