23
gdb 102049	1.90071	1.32169	0.97135	3.8699	82.13	-0.2401	-0.0163	0.2237	1346.4507	0.201715	-425.434864	-425.423619	-425.422675	-425.470911	41.199	
C	 0.0221258539	 1.5204636166	 0.1347108812	-0.41773
C	 0.0035037704	-0.0146974184	-0.0020060193	 0.237161
C	 0.6023874955	-0.6414885432	 1.2746380691	-0.419855
C	-1.4614194788	-0.4703359453	-0.146916195	-0.410587
C	 0.7929422849	-0.4502693127	-1.2882527347	-0.057647
C	 2.1838772215	 0.1642975198	-1.4430502791	-0.125311
O	 2.709786048	-0.3557111926	-2.658694276	-0.419004
C	 0.9356991305	-1.9661511989	-1.3559863167	 0.174126
O	 0.1044724192	-2.7160783769	-1.7997875338	-0.267078
H	 1.0179157851	 1.9064225489	 0.3729219778	 0.111715
H	-0.3212201682	 2.0073420638	-0.7844744599	 0.114828
H	-0.6480930263	 1.8292370532	 0.9441908607	 0.113038
H	 0.0615348787	-0.2814610113	 2.155996177	 0.116163
H	 0.5228570214	-1.7333990062	 1.2684643824	 0.12411
H	 1.6570124208	-0.3798168961	 1.4091425401	 0.110704
H	-1.944140172	 0.0296381033	-0.9934311995	 0.111623
H	-1.5384657148	-1.5470785063	-0.3128394811	 0.140736
H	-2.025594572	-0.2189147488	 0.7576034092	 0.1051
H	 0.1950917473	-0.1539846194	-2.1581286583	 0.102384
H	 2.1263195384	 1.2594074184	-1.4744161446	 0.099328
H	 2.8222306816	-0.1118308417	-0.5884555549	 0.091197
H	 3.6188806238	-0.0565165909	-2.7530020687	 0.290605
H	 1.886329321	-2.3612197351	-0.9298230759	 0.074391
53.3781	93.7974	115.8738	187.1391	226.2429	243.3825	258.0852	261.0567	292.5224	299.5666	320.1698	339.8132	366.7532	419.7412	453.3681	512.6988	566.8758	746.0591	863.8068	917.0008	934.0242	941.2657	965.7173	994.1441	1019.115	1040.2832	1078.1391	1092.8341	1135.9965	1194.5213	1231.3199	1248.986	1257.603	1267.1526	1312.398	1344.7486	1401.8765	1406.1612	1434.1534	1436.412	1451.6448	1481.7747	1484.4062	1487.851	1506.1439	1508.8466	1517.2261	1526.2212	1828.6977	2864.2195	2974.4588	3026.8857	3030.3097	3036.074	3036.6509	3052.533	3093.7531	3095.6475	3100.6361	3101.0231	3104.6188	3128.906	3830.0905
CC(C)(C)C(CO)C=O	CC(C)(C)[C@@H](CO)C=O	
InChI=1S/C7H14O2/c1-7(2,3)6(4-8)5-9/h4,6,9H,5H2,1-3H3	InChI=1S/C7H14O2/c1-7(2,3)6(4-8)5-9/h4,6,9H,5H2,1-3H3/t6-/m1/s1
