14
gdb 73943	3.1443	1.31155	0.93627	0.4872	72.7	-0.2927	-0.0899	0.2028	1153.9355	0.100933	-436.758196	-436.750052	-436.749108	-436.791373	28.675	
C	 0.0477533019	 1.5405204511	 0.0204133431	-0.506804
C	-0.0303158184	 0.0569829563	 0.0273422373	 0.031404
C	-1.0801020396	-0.7745433735	-0.0667343608	 0.086774
C	-0.5975364324	-2.2052426837	-0.0056275311	-0.179819
O	 0.8135478695	-2.1034851653	 0.1308624895	-0.228034
C	 1.1942554299	-0.7873199808	 0.1549938061	 0.440032
O	 2.3323850665	-0.434261873	 0.2624439157	-0.334716
C	-2.4475778841	-0.431458058	-0.2033429549	 0.224108
N	-3.5702043889	-0.168781229	-0.3153217956	-0.321809
H	 0.6884604777	 1.8789514132	-0.800930865	 0.163609
H	-0.9379015066	 1.9982230318	-0.0803176458	 0.151554
H	 0.518105508	 1.8959459433	 0.9435052409	 0.163609
H	-1.0090675425	-2.748311297	 0.8528152233	 0.155045
H	-0.8366598311	-2.7657361552	-0.9166008829	 0.155046
100.2529	112.0196	134.1994	205.3929	256.535	260.2991	395.2516	464.716	494.8187	607.6909	623.8692	640.6293	762.348	764.1858	892.8871	1021.7373	1056.5326	1074.0973	1084.3296	1102.8548	1170.4819	1202.3463	1331.5421	1370.1192	1416.3808	1468.925	1473.5886	1497.2212	1707.3852	1872.2739	2340.7732	3039.1612	3042.6485	3078.3279	3097.6544	3141.1497
CC1=C(COC1=O)C#N	CC1=C(COC1=O)C#N	
InChI=1S/C6H5NO2/c1-4-5(2-7)3-9-6(4)8/h3H2,1H3	InChI=1S/C6H5NO2/c1-4-5(2-7)3-9-6(4)8/h3H2,1H3
