17
gdb 80192	2.30181	1.75887	1.49526	3.9401	67.33	-0.247	-0.0189	0.2282	958.9181	0.135776	-458.96741	-458.959394	-458.95845	-458.999654	31.124	
O	-0.0090713102	 1.3400831235	-0.1474308971	-0.408269
C	-0.0252218349	-0.0527342266	-0.0278632272	 0.09495
C	-0.4742092637	-0.6938248484	 1.2666411434	-0.118727
C	-1.0969971703	 0.2447570735	 2.2918260788	-0.33522
C	-2.173255878	 0.9866355256	 1.5045537182	 0.357463
O	-2.633182808	 2.0790780751	 1.7190527486	-0.332672
C	-2.5838147298	 0.1314923433	 0.2983429167	 0.082064
O	-3.0658773981	 0.9089537827	-0.7614128012	-0.441167
C	-1.3632903218	-0.7220512107	 0.0140796665	-0.120421
H	 0.7547924346	 1.678133572	 0.3328047997	 0.293346
H	 0.7532623211	-0.5708445952	-0.5867382363	 0.095378
H	 0.0295218045	-1.5882546204	 1.6142774302	 0.09272
H	-1.5718489371	-0.3225938362	 3.102121136	 0.133782
H	-0.4047134848	 0.9538108129	 2.7543185186	 0.124788
H	-3.3790782461	-0.54814433	 0.6619435405	 0.091278
H	-3.2000671082	 1.7956303309	-0.3947126437	 0.292334
H	-1.4994046493	-1.6359607421	-0.5512540416	 0.098372
114.6133	140.1314	216.4336	274.4532	324.5896	343.6361	352.6862	440.8291	499.025	575.0211	596.0393	666.0962	728.3284	757.1731	786.2336	819.7762	925.9439	960.2024	1006.9258	1027.8059	1055.356	1075.3486	1108.2422	1130.0207	1172.0077	1189.1655	1220.5438	1234.3573	1271.7002	1293.4409	1335.5735	1359.1045	1373.0681	1419.7006	1450.3133	1467.5166	1847.2243	2916.5885	3039.6802	3093.5742	3108.2957	3173.6613	3185.8399	3721.808	3800.6798
OC1C2CC(=O)C(O)C12	O[C@H]1[C@H]2CC(=O)[C@@H](O)[C@@H]12	
InChI=1S/C6H8O3/c7-3-1-2-4(5(2)8)6(3)9/h2,4-6,8-9H,1H2	InChI=1S/C6H8O3/c7-3-1-2-4(5(2)8)6(3)9/h2,4-6,8-9H,1H2/t2-,4+,5-,6+/m0/s1
