21
gdb 82839	2.71844	1.62193	1.55668	0.9456	82.37	-0.1902	0.0764	0.2666	1016.7119	0.183258	-383.200186	-383.192091	-383.191146	-383.232166	32.338	
C	-0.183423884	 1.5420095842	 0.0037940877	-0.331272
N	 0.101414045	 0.1239075598	 0.0163773704	-0.061027
C	 0.976601776	-0.4963569407	-0.9926836101	-0.071198
C	 2.4240898264	 0.0514865312	-1.0342022613	-0.192839
N	 2.8011979985	-0.687723802	 0.2201940715	-0.187365
C	 2.2345168352	 0.0350016309	 1.4112923435	-0.192844
C	 0.8113073728	-0.5107387849	 1.1398588635	-0.071207
C	 1.4847441827	-1.4743741354	 0.1128397062	 0.379981
C	 1.4872346857	-2.96992571	 0.1029408576	-0.525035
H	 0.7043175974	 2.1936424863	 0.0774848198	 0.096184
H	-0.7081178726	 1.7971990111	-0.9236100458	 0.121302
H	-0.8459145562	 1.7852500097	 0.8419165071	 0.121296
H	 0.480951997	-0.7621030824	-1.9320809739	 0.065866
H	 2.9944890809	-0.3468312738	-1.8806886762	 0.103733
H	 2.5721574524	 1.1358980304	-0.9954852954	 0.097519
H	 2.6680866867	-0.3752037035	 2.3301502347	 0.103737
H	 2.3856320969	 1.1196823627	 1.4103928363	 0.097523
H	 0.1770876431	-0.7885847667	 1.9879873683	 0.065875
H	 0.4666230928	-3.3579138381	 0.01729234	 0.126829
H	 2.0728839192	-3.3528987105	-0.7396544819	 0.126511
H	 1.929376094	-3.3650743083	 1.0238146177	 0.12643
159.5709	195.4135	214.4156	223.9881	246.799	273.7608	412.4751	437.9611	480.6257	577.7161	639.6936	711.7375	761.7344	835.2685	835.7589	867.7595	880.5792	949.6086	969.1864	970.6325	985.8321	1054.91	1093.8178	1124.5064	1132.361	1151.8484	1156.3503	1171.528	1195.6955	1206.5522	1246.344	1258.4035	1287.322	1292.199	1301.2692	1336.2119	1358.7354	1414.2377	1445.7983	1478.7748	1479.3116	1481.9714	1487.3311	1502.8345	1509.0908	2954.6526	3027.9225	3028.6715	3030.8303	3045.1222	3049.8431	3051.7305	3078.3466	3082.6957	3093.2121	3097.5624	3102.2618
CN1C2CN3CC1C23C	CN1[C@H]2CN3C[C@@H]1[C@@]23C	
InChI=1S/C7H12N2/c1-7-5-3-9(7)4-6(7)8(5)2/h5-6H,3-4H2,1-2H3	InChI=1S/C7H12N2/c1-7-5-3-9(7)4-6(7)8(5)2/h5-6H,3-4H2,1-2H3/t5-,6+,7+
