15
gdb 12049	4.0647	1.72216	1.53578	1.8295	66.81	-0.2436	0.0216	0.2652	854.7735	0.117493	-362.569342	-362.561913	-362.560969	-362.600637	28.634	
O	 0.079742716	 1.4014959249	 0.1406942123	-0.458974
C	 0.0200844329	-0.0102176159	 0.04627224	 0.20202
C	 0.1796451446	-0.7022776567	 1.4330770956	-0.202456
N	-1.1565451966	-1.3822168792	 1.3284041275	-0.124835
C	-2.1420066399	-0.2929842468	 1.2212080964	-0.250623
C	-1.3809574498	-0.656728444	 0.0122828911	-0.071562
C	 0.9077273675	-0.5145030038	-0.9945103788	 0.274893
C	 1.6215072779	-0.8990570109	-1.8823381652	-0.457196
H	 0.0587841276	 1.7641555985	-0.7521368628	 0.283928
H	 0.9847250267	-1.435909309	 1.4648419721	 0.129501
H	 0.267006191	-0.0049337849	 2.2713317966	 0.119053
H	-3.1677260884	-0.6427346195	 1.2827633234	 0.123064
H	-1.944188549	 0.6568664447	 1.7116402203	 0.129558
H	-1.81427492	-1.1512018538	-0.8505376875	 0.100805
H	 2.2624246996	-1.2460389735	-2.6552285507	 0.202823
129.0247	158.5441	204.1465	281.0915	336.8599	442.8429	480.8653	522.7328	537.7904	630.3829	649.8028	669.5939	750.8202	787.0558	854.6561	920.6253	953.3658	992.6037	1036.3966	1060.9344	1094.2328	1110.0487	1120.2336	1180.0488	1215.7112	1238.0942	1284.0184	1332.4759	1380.3948	1482.6584	1504.4154	2232.6613	3063.8361	3113.2689	3142.8716	3170.3567	3206.8349	3498.9236	3802.2028
OC1(CN2CC12)C#C	O[C@]1(CN2C[C@@H]12)C#C	
InChI=1S/C6H7NO/c1-2-6(8)4-7-3-5(6)7/h1,5,8H,3-4H2	InChI=1S/C6H7NO/c1-2-6(8)4-7-3-5(6)7/h1,5,8H,3-4H2/t5-,6-,7?/m0/s1
