20
gdb 110547	3.48787	1.38086	1.34257	2.1057	77.15	-0.2351	0.0835	0.3186	1055.3798	0.173854	-403.131631	-403.124256	-403.123312	-403.163516	29.426	
C	-0.083357776	 1.37756702	-0.0166815063	-0.241396
O	 0.142849145	-0.0122597802	 0.0655292741	-0.257352
C	 0.6805508345	-0.5724960154	-1.1101349913	 0.157743
C	 1.0614013337	-2.0269506802	-0.8648271192	-0.067846
C	-0.1356354654	-2.8542723202	-1.1822754234	-0.025245
C	-1.2489202584	-1.9073403994	-1.617088925	-0.229632
C	-0.3265435449	-0.8520099528	-2.2611475916	-0.114051
C	 0.5567338181	-1.7478012909	-3.1446665611	-0.15964
N	 0.9907309834	-2.765506957	-2.148113138	-0.133609
H	 0.8405501104	 1.923533739	-0.2636108667	 0.10613
H	-0.8452007395	 1.6338514396	-0.7674146917	 0.1073
H	-0.434891154	 1.7058583488	 0.9643934066	 0.128524
H	 1.5319342907	 0.0335754027	-1.4594442525	 0.061736
H	 1.8305500311	-2.309412538	-0.1571580494	 0.09102
H	-0.3215833647	-3.8223244551	-0.7343205789	 0.09047
H	-1.9427432307	-2.3588523966	-2.3328668232	 0.096438
H	-1.8102062145	-1.5143498347	-0.7664847029	 0.11527
H	-0.7979306241	 0.0092427158	-2.7311861883	 0.06737
H	 0.014314713	-2.2313359148	-3.9626465945	 0.103954
H	 1.4321619122	-1.2361834209	-3.5569453866	 0.102818
90.9041	163.9869	186.1928	290.1986	382.7409	424.6367	465.0215	534.0363	689.8948	724.2318	792.0667	816.0497	851.9248	902.1766	921.3647	930.1072	950.9162	954.1814	969.4823	1014.306	1038.431	1060.8929	1079.1009	1086.128	1150.7455	1155.3153	1181.165	1190.4182	1206.9495	1216.5143	1229.3392	1253.905	1279.3693	1293.0657	1306.2637	1337.5258	1384.1997	1398.2835	1478.5534	1483.5692	1488.3369	1507.2178	1510.8246	2972.4014	2980.8444	3027.1222	3049.6446	3059.8398	3096.7572	3115.0055	3116.7737	3135.7261	3189.075	3199.2792
COC1C2C3CC1CN23	CO[C@H]1[C@H]2[C@H]3C[C@@H]1CN23	
InChI=1S/C7H11NO/c1-9-7-4-2-5-6(7)8(5)3-4/h4-7H,2-3H2,1H3	InChI=1S/C7H11NO/c1-9-7-4-2-5-6(7)8(5)3-4/h4-7H,2-3H2,1H3/t4-,5-,6-,7-,8?/m1/s1
