19
gdb 63006	2.47276	1.76077	1.54943	3.1384	73.14	-0.2582	0.0571	0.3154	973.7177	0.158437	-422.99379	-422.98583	-422.984886	-423.025655	31.749	
C	 0.0928301511	 1.5139625279	 0.0122460316	-0.423115
C	-0.0164760048	-0.0167809048	 0.0018101789	 0.210771
C	-1.4806689306	-0.4835485388	-0.0010943984	-0.43767
C	 0.7007838887	-0.6364816412	-1.2114981043	 0.010981
O	 2.0918119241	-0.3426094512	-1.3340830743	-0.241547
C	 1.7211357324	-1.6018657541	-0.7694029221	 0.000145
C	 1.7214222385	-1.612237363	 0.7506707906	 0.000142
O	 2.0923207379	-0.3608035698	 1.3323401226	-0.241549
C	 0.7012437029	-0.6529748064	 1.2062777427	 0.010986
H	 1.1430397171	 1.8121617543	 0.0139949239	 0.151634
H	-0.3919041056	 1.9462527183	-0.8695948561	 0.110672
H	-0.3913909013	 1.9341353479	 0.9002066042	 0.110675
H	-2.00790712	-0.1045955298	-0.8826694483	 0.120561
H	-1.5553718557	-1.5766833811	-0.0084649793	 0.117847
H	-2.0076134324	-0.1165396343	 0.8856944105	 0.120561
H	 0.1617352698	-0.7205891427	-2.154510797	 0.090881
H	 2.0139036318	-2.4857242937	-1.3287228565	 0.098572
H	 2.0143927748	-2.5036484119	 1.2977651086	 0.098573
H	 0.1625425111	-0.7499311855	 2.1482552726	 0.090881
149.2817	196.396	226.3157	248.4473	308.7961	328.0071	329.0456	417.5638	542.309	569.1068	580.0156	721.5677	813.0265	824.3325	854.5792	882.4446	893.5153	935.7071	952.0776	952.9295	962.4181	1017.0811	1050.2945	1053.3429	1092.6463	1107.9068	1199.0541	1232.6663	1240.6543	1259.5893	1272.5821	1294.6825	1345.5458	1394.8537	1405.0198	1422.9921	1434.1689	1487.2717	1488.9372	1503.0157	1511.2463	3028.1806	3035.1106	3096.1338	3096.8839	3102.4344	3114.1095	3117.5893	3136.6988	3151.6309	3165.734
CC1(C)C2OC2C2OC12	CC1(C)[C@H]2O[C@H]2[C@H]2O[C@@H]12	
InChI=1S/C7H10O2/c1-7(2)5-3(8-5)4-6(7)9-4/h3-6H,1-2H3	InChI=1S/C7H10O2/c1-7(2)5-3(8-5)4-6(7)9-4/h3-6H,1-2H3/t3-,4+,5-,6+
