16
gdb 32136	2.81365	1.43052	0.95405	0.8261	76.26	-0.2144	-0.0082	0.2062	1178.6522	0.126004	-437.960614	-437.952852	-437.951908	-437.992945	29.455	
C	-0.0523482427	 1.4187361269	 0.0414852782	-0.229709
O	-0.0459205274	-0.0050824306	-0.0068160979	-0.262421
C	-1.2375334188	-0.6325802161	 0.0117545518	 0.459858
C	-1.2269543299	-2.0309707461	-0.0352683943	-0.246435
C	-2.4547944158	-2.6754781825	-0.0160307031	-0.046971
C	-3.6366941395	-1.9427767633	 0.0476912011	-0.236586
C	-3.5157793394	-0.5567941589	 0.089996102	 0.437838
O	-4.6318756437	 0.2010415825	 0.1523623677	-0.418061
N	-2.3508968978	 0.0916049385	 0.0729364365	-0.460751
H	 0.9970102275	 1.7161296288	 0.0173636007	 0.128889
H	-0.5839815649	 1.8423341389	-0.8158854132	 0.130174
H	-0.5262803797	 1.7824306311	 0.9581304944	 0.1302
H	-0.2862122488	-2.5625153761	-0.0842202073	 0.104697
H	-2.4948602051	-3.7594043322	-0.0508951918	 0.108321
H	-4.6136798756	-2.406490695	 0.0646314181	 0.106028
H	-4.3307960483	 1.119452264	 0.173018677	 0.294928
110.7065	169.7495	215.3363	218.0831	257.9238	413.1887	461.9573	481.0015	522.5185	564.9853	613.0506	700.1919	744.6876	759.5068	815.5732	867.848	989.7575	991.4301	1001.6824	1071.0839	1092.226	1160.2526	1179.2026	1198.8128	1233.9988	1307.1976	1340.4173	1383.2331	1462.9228	1480.8584	1484.425	1503.5177	1526.219	1627.2137	1660.2953	3038.3804	3106.9074	3144.4255	3184.4167	3221.9845	3225.7047	3776.5352
COC1=CC=CC(O)=N1	COc1cccc(O)n1	
InChI=1S/C6H7NO2/c1-9-6-4-2-3-5(8)7-6/h2-4H,1H3,(H,7,8)	InChI=1S/C6H7NO2/c1-9-6-4-2-3-5(8)7-6/h2-4H,1H3,(H,7,8)
