23
gdb 119002	3.60886	0.87618	0.8578	1.2677	81.38	-0.2462	0.0709	0.3171	1506.9731	0.205614	-425.438378	-425.428541	-425.427597	-425.473438	36.84	
C	-0.3285392396	 1.5893234994	-0.0316259759	-0.383067
C	-0.1084221655	 0.0749741943	 0.0056551834	-0.172681
C	 0.7447823251	-0.4264828283	-1.1665714807	-0.219934
C	 0.9068764203	-1.9431047944	-1.2209140639	 0.399291
O	-0.3996270915	-2.507153734	-1.3477674053	-0.483158
C	 1.8153470285	-2.4448659269	-2.3773913145	-0.294088
C	 2.4814418019	-3.7157360245	-1.7918595061	-0.089166
O	 1.9289773042	-3.8923537568	-0.4824146624	-0.265638
C	 1.6099686112	-2.5873653589	-0.0149446343	-0.136827
H	 0.6221731012	 2.1332129254	 0.0104769123	 0.109817
H	-0.8396975116	 1.8913545306	-0.9526039641	 0.114996
H	-0.9398580301	 1.9236325961	 0.8124041309	 0.111
H	 0.3716707996	-0.1978213289	 0.954615545	 0.091635
H	-1.0704010836	-0.4463104732	-0.0145825606	 0.119951
H	 0.289573536	-0.1006774549	-2.1106019788	 0.103255
H	 1.7418884392	 0.0303877015	-1.1268314483	 0.088966
H	-0.3044773405	-3.4543581844	-1.1890396737	 0.282051
H	 1.2039186608	-2.6489002484	-3.2582682276	 0.11562
H	 2.5639266787	-1.695083146	-2.6477676468	 0.101389
H	 2.2765948802	-4.626206217	-2.360802095	 0.110987
H	 3.5722012687	-3.5946896733	-1.7222116484	 0.097019
H	 2.5194751951	-2.0296679592	 0.265438523	 0.083601
H	 0.9629764117	-2.6871195881	 0.8587071616	 0.114982
64.737	89.909	101.672	154.7154	212.2254	247.9735	308.1071	328.5989	358.3154	416.3443	453.6159	471.7732	676.0848	704.0556	747.2052	808.5717	815.3967	866.7701	900.1316	933.167	951.5687	968.3564	981.6921	1037.4814	1053.9281	1091.8913	1092.2657	1110.4207	1166.888	1184.8551	1231.4448	1241.2085	1267.6913	1273.9208	1297.8537	1316.0479	1335.8371	1344.3463	1387.7412	1394.763	1413.4334	1424.4187	1474.8806	1482.2821	1494.4693	1499.6615	1500.0014	1511.1868	1524.064	2964.7993	2997.2784	3017.878	3024.2973	3028.2939	3056.5152	3066.257	3078.0448	3087.9851	3100.3792	3101.6946	3112.8552	3122.5333	3781.4781
CCCC1(O)CCOC1	CCC[C@@]1(O)CCOC1	
InChI=1S/C7H14O2/c1-2-3-7(8)4-5-9-6-7/h8H,2-6H2,1H3	InChI=1S/C7H14O2/c1-2-3-7(8)4-5-9-6-7/h8H,2-6H2,1H3/t7-/m1/s1
