24
gdb 117667	2.87812	0.90644	0.83569	2.101	85.98	-0.2237	0.0775	0.3012	1522.3739	0.214708	-405.510598	-405.49963	-405.498686	-405.5469	40.54	
C	 0.3707772841	 1.5870809045	 0.4420912343	-0.434546
C	 0.1044113365	 0.0924313016	 0.1697942168	 0.251249
C	 0.7749318372	-0.7591131265	 1.2601387233	-0.397273
C	-1.4133639613	-0.1870273995	 0.0871976478	-0.164402
C	-2.2501347009	 0.1703667406	 1.3110947582	-0.096263
O	-3.5934219209	-0.1882947886	 1.0101697093	-0.419776
N	 0.6383913296	-0.419443854	-1.1144427736	-0.071829
C	 0.6987913561	 0.4048120167	-2.3096414291	-0.22791
C	 1.9456571731	-0.031850912	-1.6148476957	-0.233957
H	 1.4363483603	 1.8285574639	 0.3840619613	 0.113731
H	-0.168532913	 2.2341202113	-0.25638539	 0.116466
H	 0.042710909	 1.8532318248	 1.450743966	 0.118683
H	 0.4095548879	-0.4995248528	 2.2575900767	 0.10867
H	 0.585753658	-1.8211513523	 1.0818338214	 0.122882
H	 1.8587572947	-0.6031376301	 1.2518794027	 0.109928
H	-1.8232897177	 0.3598851693	-0.7705248201	 0.10083
H	-1.553585543	-1.2510791595	-0.1280811905	 0.112456
H	-1.890281202	-0.3734811538	 2.1982822016	 0.085544
H	-2.1759125618	 1.2458364602	 1.5342191706	 0.082997
H	-4.137423291	 0.0250373411	 1.7737760824	 0.283487
H	 0.3754453436	-0.0749599063	-3.2299990792	 0.113331
H	 0.4511605379	 1.4621180306	-2.2436255903	 0.106773
H	 2.5131038927	 0.740640561	-1.0992772997	 0.106377
H	 2.5532918109	-0.8401098002	-2.0142891542	 0.112551
49.9872	70.9095	95.2504	151.7347	228.7045	241.7634	265.7329	270.38	299.5052	328.338	335.5805	377.5185	402.3297	490.9291	536.8765	697.5236	797.2049	799.8539	825.3519	919.4596	925.0457	958.0027	985.8168	987.0209	1026.1905	1034.0529	1059.5286	1071.2996	1109.8959	1118.5959	1163.7792	1167.6841	1178.4788	1205.6326	1250.7927	1259.0043	1274.9329	1320.553	1327.1641	1344.094	1395.046	1418.0928	1463.4002	1477.7915	1485.6722	1487.1345	1491.2269	1510.5785	1511.9105	1523.8029	1530.9155	2972.9369	2998.1399	3037.155	3038.1495	3043.4961	3088.4939	3092.1697	3100.0355	3104.8677	3109.7316	3110.8327	3121.3863	3167.7832	3183.4451	3829.3506
CC(C)(CCO)N1CC1	CC(C)(CCO)N1CC1	
InChI=1S/C7H15NO/c1-7(2,3-6-9)8-4-5-8/h9H,3-6H2,1-2H3	InChI=1S/C7H15NO/c1-7(2,3-6-9)8-4-5-8/h9H,3-6H2,1-2H3
