14
gdb 20393	4.94301	2.06802	1.48952	3.51	62.88	-0.2005	0.02	0.2205	790.967	0.111207	-378.722958	-378.716905	-378.715961	-378.753218	22.978	
C	 0.051202347	 1.3736345146	-0.1711537431	-0.084402
C	 1.4962226763	 1.8708574667	 0.1948138053	-0.380062
C	 2.081026533	 0.5561634974	 0.6012600498	 0.275358
C	 1.1019621622	-0.3909235103	 0.7109463716	 0.29232
O	-0.1510226043	 0.051466635	 0.3979695343	-0.289939
C	 1.724544031	-1.5615644224	 1.1718128546	-0.148069
N	 3.0362158281	-1.3344075978	 1.3392122352	-0.224837
N	 3.2302075065	-0.0408860065	 0.9984903715	-0.317352
H	-0.7361474051	 2.0250795167	 0.2129974213	 0.122563
H	-0.0544465641	 1.2917494976	-1.2589879621	 0.11857
H	 1.9733865287	 2.3490291938	-0.6661448582	 0.122979
H	 1.4865838387	 2.6005895011	 1.0145112532	 0.125024
H	 1.3154478351	-2.535655564	 1.3877349231	 0.115748
H	 4.163851257	 0.3295199281	 1.0333849236	 0.2721
114.4964	201.2613	313.1979	439.0156	457.8931	609.9486	674.3141	688.4393	733.2756	767.3998	845.92	856.4979	928.1584	975.6519	990.9868	1074.9123	1102.3292	1138.4251	1195.0381	1228.1317	1245.11	1276.1024	1335.6212	1371.0476	1407.9249	1458.4654	1492.1943	1515.4636	1565.4426	1627.7336	3019.2938	3036.5155	3071.4223	3113.6273	3261.7874	3681.
C1CC2=C(O1)C=NN2	C1Cc2c(O1)cn[nH]2	
InChI=1S/C5H6N2O/c1-2-8-5-3-6-7-4(1)5/h3H,1-2H2,(H,6,7)	InChI=1S/C5H6N2O/c1-2-8-5-3-6-7-4(1)5/h3H,1-2H2,(H,6,7)
