17
gdb 100162	2.46429	0.97161	0.86266	4.8472	74.96	-0.2467	-0.0355	0.2112	1429.6994	0.130963	-458.934099	-458.923199	-458.922255	-458.971727	36.862	
C	-0.1987750341	 1.4700242571	 0.0092762214	-0.502025
C	-0.1002203241	 0.0189659763	-0.0156685482	 0.067895
C	-0.0078925967	-1.182763409	-0.0307746138	 0.040385
C	 0.0929543429	-2.636910158	-0.0589905574	 0.060102
O	-1.1998634701	-3.2599578382	-0.1038387134	-0.46773
C	 0.9373465822	-3.1394077863	-1.2503978881	-0.072264
O	 0.8514814433	-4.5398067236	-1.3506881395	-0.424629
C	 0.7212252079	-3.0995937118	 1.2786461969	 0.152827
O	 1.899993339	-3.1279047877	 1.4889110364	-0.237798
H	 0.6815282576	 1.9101478635	 0.4897151331	 0.163753
H	-0.2688339669	 1.8823889307	-1.0028553122	 0.15658
H	-1.082028372	 1.7967701872	 0.5682656963	 0.157204
H	-1.7997616987	-2.6595845862	-0.5586290456	 0.294376
H	 0.59147526	-2.631773968	-2.1644022156	 0.085568
H	 1.9836288776	-2.8775406187	-1.0756827301	 0.138966
H	-0.0892736454	-4.7508396361	-1.2913332573	 0.287135
H	-0.0425398528	-3.3855898312	 2.0323681771	 0.099656
21.8757	70.2289	87.0249	102.489	136.6762	220.9379	242.4249	267.7368	285.7917	321.9867	363.1862	434.9904	484.3815	505.5599	521.8446	612.4283	760.8117	862.0217	916.4289	1024.7689	1049.1855	1053.0562	1071.331	1102.1067	1135.8055	1185.3688	1236.2792	1324.325	1367.5222	1396.009	1412.7008	1430.3528	1473.9601	1475.5119	1494.2206	1848.2113	2357.8836	2916.1715	2982.8496	3032.1247	3095.9488	3097.2715	3110.8178	3770.8354	3822.5285
CC#CC(O)(CO)C=O	CC#C[C@@](O)(CO)C=O	
InChI=1S/C6H8O3/c1-2-3-6(9,4-7)5-8/h4,8-9H,5H2,1H3	InChI=1S/C6H8O3/c1-2-3-6(9,4-7)5-8/h4,8-9H,5H2,1H3/t6-/m0/s1
