15
gdb 131144	3.76176	1.26119	1.02713	3.1036	67.46	-0.2536	-0.0399	0.2137	1113.194	0.111841	-453.902116	-453.894476	-453.893531	-453.934638	28.885	
O	 0.0661444406	 1.3731496137	 0.2181978618	-0.455377
C	-0.014416763	-0.0169166324	 0.0531473266	 0.284651
C	-0.6946499815	-0.8382822377	 1.1253961495	-0.325503
C	-1.4007709337	-0.5589029485	-0.178319996	-0.286797
C	 1.1273980357	-0.583513183	-0.6921410509	 0.226524
C	 2.1489827025	 0.0391637314	-1.3368154956	-0.073298
O	 2.9491146646	-0.8856893823	-1.8716570698	-0.160293
N	 2.3835387494	-2.1448324509	-1.539580213	-0.002649
N	 1.3424599287	-1.9355821077	-0.862270703	-0.200426
H	 0.6815471707	 1.5501173892	 0.939173504	 0.287452
H	-0.3213684101	-1.8397260547	 1.3052393959	 0.141713
H	-1.0281113336	-0.2942465336	 2.0021098009	 0.120408
H	-2.1972298421	 0.1757808945	-0.1749383952	 0.132423
H	-1.5108334675	-1.3706503296	-0.8876662142	 0.136566
H	 2.4059693194	 1.0728289116	-1.490106581	 0.174607
63.3626	159.7356	173.1926	318.828	326.767	358.6011	456.8554	500.4464	541.4431	648.9593	668.0818	734.9336	776.3209	842.7545	869.6017	907.3523	933.2548	984.2417	995.1148	1038.5819	1061.9785	1085.3018	1138.2885	1166.9473	1196.6864	1259.3086	1312.9163	1343.1619	1367.8854	1446.3308	1456.592	1485.3606	1627.3103	3138.6996	3145.2043	3230.2343	3244.5264	3299.8535	3787.3268	63.3623	159.7354	173.1924	318.8279	326.7666	358.6008	456.8554	500.4463	541.4431	648.959	668.0811	734.9335	776.3209	842.7533	869.6017	907.352	933.2549	984.2416	995.1147	1038.582	1061.9785	1085.3019	1138.2882	1166.9471	1196.6865	1259.3085	1312.9162	1343.1618	1367.8854	1446.331	1456.5916	1485.3607	1627.3103	3138.6996	3145.2043	3230.2343	3244.5265	3299.8533	3787.3266
OC1(CC1)C1=CON=N1	OC1(CC1)c1conn1	
InChI=1S/C5H6N2O2/c8-5(1-2-5)4-3-9-7-6-4/h3,8H,1-2H2	InChI=1S/C5H6N2O2/c8-5(1-2-5)4-3-9-7-6-4/h3,8H,1-2H2
