18
gdb 80530	2.29119	1.48565	1.26834	3.2393	74.35	-0.2179	-0.0315	0.1864	1086.4133	0.14568	-439.038685	-439.029725	-439.028781	-439.072037	33.09	
C	-0.2382307221	 1.4977128791	-0.125210548	-0.339615
N	 0.1163722777	 0.09014774	 0.0086919713	-0.135883
C	 1.2272715217	-0.4666483082	-0.8017592912	-0.176759
C	 1.8526954794	-1.0929038982	 0.4481661845	-0.194026
C	 2.1508147415	-0.0460203839	 1.4705185091	 0.051835
O	 2.5990048298	 1.2310239263	 1.1280157259	-0.417579
C	 0.7014520203	-0.3927722642	 1.250650833	 0.204919
C	-0.1376804289	-0.9851923899	 2.312381555	 0.094223
O	 0.2897367664	-1.4520920053	 3.3424995843	-0.276665
H	 0.6187457343	 2.178794573	-0.0414712266	 0.127954
H	-0.7268019683	 1.652116775	-1.0932560071	 0.11676
H	-0.9628135683	 1.7544269259	 0.6544496044	 0.121694
H	 0.8789707303	-1.1899791958	-1.5450723097	 0.113588
H	 1.8567266341	 0.2857825217	-1.2933366658	 0.100997
H	 2.1657042372	-2.1235267558	 0.5546518469	 0.114983
H	 2.5244294648	-0.4409105312	 2.4153830266	 0.122784
H	 3.521300233	 1.1595434125	 0.8570293425	 0.291033
H	-1.2226500927	-0.9901240709	 2.0668369949	 0.079756
109.3146	171.8806	172.7247	196.9214	216.0485	241.2626	273.7463	298.6876	350.5292	492.1047	534.0511	645.4756	653.3812	727.4411	773.3801	896.1187	901.5039	954.0728	975.9499	1011.3469	1068.0614	1085.6594	1114.1166	1135.717	1164.2391	1183.017	1231.1221	1241.8713	1257.2958	1304.7123	1324.0631	1332.1919	1412.6248	1445.7402	1456.1816	1480.1346	1506.0877	1512.4356	1801.2398	2892.0128	3010.6655	3022.1084	3075.8504	3078.3201	3099.225	3118.8293	3203.2935	3793.4563
CN1CC2C(O)C12C=O	CN1C[C@H]2[C@@H](O)[C@@]12C=O	
InChI=1S/C6H9NO2/c1-7-2-4-5(9)6(4,7)3-8/h3-5,9H,2H2,1H3	InChI=1S/C6H9NO2/c1-7-2-4-5(9)6(4,7)3-8/h3-5,9H,2H2,1H3/t4-,5+,6-/m0/s1
