19
gdb 99657	2.48102	1.22099	0.93638	3.3116	77.28	-0.2367	0.0106	0.2473	1293.8131	0.157436	-419.16557	-419.1557	-419.154756	-419.200817	34.806	
C	 0.2064948216	 1.5202792936	-0.3814473701	-0.255015
O	-0.1470376564	 0.1985005886	-0.7623030571	-0.225967
C	 0.9223895063	-0.555471403	-1.2813870529	-0.041037
C	 1.9287346548	-0.8395873333	-0.2278543872	 0.267472
N	 2.7079208977	-1.045565897	 0.6000768645	-0.319442
C	 0.4360533071	-1.8798387949	-1.873794916	-0.023483
C	-0.9534083148	-2.3624565485	-1.6398510052	-0.237444
N	-0.5125079227	-1.9656830931	-2.9732878437	-0.096822
C	-1.0760943242	-0.7598937225	-3.5697490664	-0.328238
H	 0.9484161927	 1.5194438078	 0.4272580622	 0.141589
H	 0.6074788993	 2.0872891272	-1.2337945915	 0.117464
H	-0.7090614793	 1.998240068	-0.0296059077	 0.142092
H	 1.4423002483	 0.0201783662	-2.0674755997	 0.119939
H	 1.2468600602	-2.6030173398	-1.9395294235	 0.115841
H	-1.1466231277	-3.4218554742	-1.4942828423	 0.119782
H	-1.6118112545	-1.6875492869	-1.0991394438	 0.132468
H	-1.319646219	 0.029857659	-2.8478367989	 0.123831
H	-0.3694268208	-0.36136457	-4.3056653936	 0.120119
H	-1.9886723686	-1.0383833171	-4.105271387	 0.126849
50.1685	98.1905	135.0559	176.9825	185.7266	204.192	242.493	271.388	329.7481	383.5478	421.5117	515.5984	588.3233	627.0692	742.1881	884.3742	904.0888	943.9997	973.2215	1037.4657	1060.0462	1108.3452	1130.8266	1136.688	1164.2043	1181.7218	1186.8846	1209.1719	1219.6804	1314.0488	1340.9863	1360.6739	1408.5624	1447.097	1479.1881	1488.5624	1492.5925	1506.3038	1508.3197	1515.4152	2353.0644	2952.8896	2998.1786	3015.4493	3062.2003	3083.1342	3100.9159	3107.6745	3123.4578	3137.7864	3196.9418
COC(C#N)C1CN1C	CO[C@@H](C#N)[C@H]1CN1C	
InChI=1S/C6H10N2O/c1-8-4-5(8)6(3-7)9-2/h5-6H,4H2,1-2H3	InChI=1S/C6H10N2O/c1-8-4-5(8)6(3-7)9-2/h5-6H,4H2,1-2H3/t5-,6+,8?/m1/s1
