20
gdb 76088	2.29467	1.24349	0.99767	4.1116	84.32	-0.2655	0.0322	0.2977	1286.6275	0.170705	-366.007152	-365.99786	-365.996916	-366.041825	34.262	
C	-0.1366360622	 1.5460002847	-0.073083794	-0.412718
C	 0.0251945039	 0.0475875834	 0.0496945486	-0.038438
C	 1.37318339	-0.634636979	-0.1990409453	-0.214919
C	 2.5359986077	 0.1618967309	-0.4643266533	 0.296405
N	 3.4718972982	 0.8100161374	-0.6752808178	-0.354296
C	 0.7408838705	-0.609726412	 1.1974751476	-0.036922
C	 1.3654212565	 0.1500616347	 2.322994031	 0.020019
C	 0.7121335081	 0.1362719253	 3.6851808743	-0.277565
C	 2.0073264734	-0.6022305692	 3.4636559614	-0.269784
H	 0.7618305758	 2.0858285212	 0.2332618101	 0.142519
H	-0.3484211922	 1.8253802151	-1.1099181179	 0.128847
H	-0.9693011873	 1.8933656961	 0.5471177891	 0.125687
H	-0.8120913499	-0.5187109786	-0.3496523372	 0.099625
H	 1.3630133471	-1.5794902892	-0.7317783094	 0.128754
H	 0.3406735412	-1.5745939974	 1.5003063871	 0.094121
H	 1.8563167981	 1.0747360144	 2.0402907153	 0.105038
H	 0.7282698627	 1.0495502351	 4.2692491613	 0.117324
H	-0.1918802627	-0.4514553012	 3.8075968665	 0.111961
H	 1.9736090626	-1.6865286027	 3.4363911622	 0.112852
H	 2.9164998684	-0.1982587491	 3.8937714905	 0.121489
50.1777	101.1827	126.1751	156.4932	189.3556	251.0502	302.3921	368.8923	386.3592	515.9589	611.6487	630.418	739.6221	762.1577	797.6287	825.7976	831.3775	912.8044	932.6158	950.5107	989.7014	1021.7527	1039.0742	1061.4454	1078.2665	1099.0867	1128.0696	1144.7929	1148.805	1197.6024	1208.1214	1226.6733	1265.9473	1319.2098	1359.7448	1405.3762	1425.1802	1459.9787	1470.9131	1491.7959	1500.7024	1510.2047	2345.7069	3042.8107	3103.4291	3123.5651	3130.5509	3131.3444	3136.5979	3145.7161	3168.2269	3171.655	3210.3667	3226.0063
CC1C(C#N)C1C1CC1	C[C@H]1[C@@H](C#N)[C@H]1C1CC1	
InChI=1S/C8H11N/c1-5-7(4-9)8(5)6-2-3-6/h5-8H,2-3H2,1H3	InChI=1S/C8H11N/c1-5-7(4-9)8(5)6-2-3-6/h5-8H,2-3H2,1H3/t5-,7+,8+/m0/s1
