16
gdb 8528	4.61093	1.89491	1.62762	2.7294	63.49	-0.2281	0.0644	0.2925	807.2912	0.129013	-383.640783	-383.633924	-383.63298	-383.671282	27.437	
C	-0.1521416481	 1.5873646596	-0.0393895949	-0.466289
C	-0.0403667179	 0.0713428953	-0.0193099686	 0.401514
O	-1.2911970485	-0.5474010783	-0.2668736381	-0.47908
C	 1.1794882716	-0.5921242543	-0.7085210757	-0.165458
C	 2.090708389	-0.3446055217	 0.5339356446	 0.078245
O	 2.5318390842	-1.7295448662	 0.6419030537	-0.333125
C	 1.1237415614	-1.8116359015	 0.2666181569	 0.089777
C	 0.6836091814	-0.606341884	 1.1570877	-0.130074
H	 0.801501326	 2.068411979	 0.1978334478	 0.122444
H	-0.4606856802	 1.9418869133	-1.0311629015	 0.109776
H	-0.9004732116	 1.923833864	 0.68485367	 0.129829
H	-1.6617652777	-0.1682004243	-1.0708249248	 0.27743
H	 1.4857110557	-0.6011383206	-1.7551392396	 0.078243
H	 2.8087190566	 0.4495540391	 0.7324827665	 0.096345
H	 0.6673269823	-2.7900766379	 0.1399700681	 0.106589
H	 0.4232236159	-0.6300172514	 2.2148709556	 0.083833
196.6261	224.4073	252.9759	278.5248	366.1611	373.1376	568.441	578.9779	622.063	765.0288	801.1939	808.6454	830.7925	880.5728	892.775	912.5357	959.9746	967.8662	1030.6087	1080.0517	1106.068	1115.2939	1143.5301	1151.8194	1168.0357	1179.2617	1203.4017	1208.5469	1280.257	1330.2697	1394.9427	1412.6858	1487.7091	1496.6947	3023.5348	3088.2346	3112.0816	3113.9209	3123.3573	3134.5702	3157.4266	3807.2905
CC1(O)C2C3OC2C13	C[C@@]1(O)[C@H]2[C@@H]3O[C@H]2[C@H]13	
InChI=1S/C6H8O2/c1-6(7)2-4-3(6)5(2)8-4/h2-5,7H,1H3	InChI=1S/C6H8O2/c1-6(7)2-4-3(6)5(2)8-4/h2-5,7H,1H3/t2-,3+,4-,5+,6-
