15
gdb 34430	3.09855	1.7344	1.27424	1.1411	70.81	-0.2429	0.0276	0.2705	951.017	0.112047	-420.515577	-420.508688	-420.507744	-420.546723	27.649	
C	-0.0109082508	-1.1835212423	 0.0389436577	-0.370824
C	-0.0040621856	 0.0187582686	 0.0327635118	 0.151999
C	-0.0189098007	 1.4526445643	 0.0508489604	 0.167402
C	-0.9052914308	 2.1870267566	 1.0574804299	-0.158688
O	-0.628818492	 3.5668853345	 0.74491542	-0.272919
C	 0.2936327937	 3.4724392528	-0.302094831	 0.082356
C	 1.3022223376	 2.3064154578	-0.0853133104	-0.023907
O	 1.3689913249	 2.0667903411	-1.5238024495	-0.308108
C	-0.049433277	 2.3074629975	-1.276257805	-0.023914
H	-0.0072577406	-2.2455020198	 0.0337566431	 0.188988
H	-1.9707281565	 1.9747633044	 0.9174334203	 0.122189
H	-0.6323964839	 1.9737271711	 2.0966414967	 0.122188
H	 0.6201023243	 4.4409651209	-0.6717645939	 0.112438
H	 2.2187077528	 2.2388661799	 0.499410133	 0.105399
H	-0.7449568253	 2.2411628626	-2.1118780132	 0.1054
136.4736	156.9853	288.7945	405.9965	415.8625	491.8104	503.2434	622.6641	634.7644	640.5202	689.5954	720.1161	748.4227	813.8492	886.7081	888.0525	941.3013	968.3085	1039.1685	1070.7294	1084.376	1094.18	1146.5525	1162.0417	1169.7836	1201.4215	1202.9614	1247.9656	1278.8031	1320.3862	1391.1472	1519.1057	2239.526	3037.8882	3082.3239	3130.8007	3134.7336	3173.2328	3502.2418
C#CC12COC3C1OC23	C#C[C@@]12CO[C@H]3[C@@H]1O[C@@H]23	
InChI=1S/C7H6O2/c1-2-7-3-8-4-5(7)9-6(4)7/h1,4-6H,3H2	InChI=1S/C7H6O2/c1-2-7-3-8-4-5(7)9-6(4)7/h1,4-6H,3H2/t4-,5-,6+,7+
