16
gdb 98057	3.20641	0.9885	0.88346	2.8905	66.69	-0.239	-0.0828	0.1562	1358.2737	0.120731	-475.08056	-475.070292	-475.069348	-475.117898	34.61	
C	 0.0536430859	 1.4878285544	-0.0815762828	-0.386612
C	-0.1739172205	-0.0151870996	-0.2220732825	-0.306092
C	-1.4261456954	-0.4999425779	 0.4640232456	 0.344001
O	-2.2186428744	 0.1943476842	 1.0529499604	-0.289054
C	-1.6752237494	-2.0175012015	 0.4941840908	 0.231367
O	-0.9874494743	-2.7620245542	 1.1522535835	-0.30182
C	-2.8749119088	-2.5103196262	-0.3329136947	 0.338498
N	-3.2311236854	-3.7773631142	-0.0338417892	-0.526872
O	-3.3708470079	-1.7910541272	-1.1775639436	-0.33955
H	 0.958380049	 1.7898125903	-0.6153137257	 0.117923
H	-0.7925079083	 2.0481696894	-0.4867526647	 0.141376
H	 0.1609766753	 1.7693210723	 0.9690091856	 0.135767
H	-0.257316088	-0.314786247	-1.2773083068	 0.141737
H	 0.6647639143	-0.6010723954	 0.1778094747	 0.143314
H	-2.6807585572	-4.2958038715	 0.6319580769	 0.281505
H	-3.9569473349	-4.2340891158	-0.5603785878	 0.274511
15.465	64.4841	70.3445	145.4688	163.6861	193.7268	264.0221	307.5599	320.0768	344.6763	453.4983	477.6548	602.4401	614.831	647.511	718.9619	806.692	811.9377	926.071	1004.2197	1068.6522	1095.741	1100.7713	1196.4323	1273.0571	1364.8541	1380.9666	1414.1405	1444.0804	1493.3332	1498.3681	1597.9698	1793.0465	1801.4872	1815.7112	3015.3977	3049.5972	3054.5474	3127.709	3130.7015	3593.6199	3731.1165
CCC(=O)C(=O)C(N)=O	CCC(=O)C(=O)C(=O)N	
InChI=1S/C5H7NO3/c1-2-3(7)4(8)5(6)9/h2H2,1H3,(H2,6,9)	InChI=1S/C5H7NO3/c1-2-3(7)4(8)5(6)9/h2H2,1H3,(H2,6,9)
