19
gdb 108705	2.55891	1.50443	1.01484	2.2347	79.81	-0.2187	0.0159	0.2346	1176.8553	0.159302	-422.988279	-422.979765	-422.978821	-423.021788	31.679	
O	-0.1365053468	 1.4618223376	 0.0010164498	-0.412303
C	-0.0827119417	 0.0462433815	-0.0342127082	-0.184819
C	-1.4532857656	-0.5020792978	 0.173088656	 0.142729
C	-2.6097521466	 0.1268583219	 0.3555162997	 0.137725
C	-3.4015597808	 1.3258829441	-0.1185030992	-0.305552
C	-4.328178217	 0.2626531678	-0.8260179074	-0.253538
C	-3.7475905345	-0.818229875	 0.1609547013	 0.097726
O	-3.190130682	-2.0507594013	-0.2566919552	-0.279415
C	-1.7767988859	-1.984842588	-0.0013756818	-0.155922
H	 0.7595167972	 1.7971988743	-0.0937361603	 0.289855
H	 0.3133030837	-0.3176423988	-1.0002665704	 0.095316
H	 0.5981803641	-0.3490385941	 0.7412703573	 0.098408
H	-3.9328578465	 1.8513591173	 0.6808963653	 0.111382
H	-2.8713251705	 2.0503536644	-0.7356071437	 0.125469
H	-5.4063306563	 0.4384723141	-0.7988841237	 0.098524
H	-4.0004225384	 0.0656460901	-1.8484015496	 0.115372
H	-4.4216077856	-0.9717201789	 1.016182761	 0.075065
H	-1.2413193984	-2.4137341347	-0.8603686865	 0.104896
H	-1.5247618883	-2.5988208045	 0.8793716255	 0.09908
68.1902	125.0135	165.1372	174.6943	244.4415	267.8215	377.9018	385.0291	449.2523	646.7712	668.5468	704.2672	749.4662	798.9046	878.593	908.0459	960.6879	977.2037	993.413	1053.1312	1059.4425	1074.5436	1098.4575	1117.8709	1132.829	1170.8004	1187.6766	1205.6901	1222.2016	1242.6498	1250.3473	1255.0744	1284.0217	1343.4514	1380.3567	1467.4403	1470.4644	1487.4503	1508.6858	1520.1681	1771.2212	2931.1605	2942.2938	2961.2882	2994.6095	3012.5858	3059.4969	3065.7593	3131.8604	3143.6542	3835.4271
OCC1=C2CCC2OC1	OC[C]1[C]2CC[C@H]2OC1	
InChI=1S/C7H10O2/c8-3-5-4-9-7-2-1-6(5)7/h7-8H,1-4H2	InChI=1S/C7H10O2/c8-3-5-4-9-7-2-1-6(5)7/h7-8H,1-4H2/t7-/m1/s1
