18
gdb 58023	1.84123	1.63039	0.90686	7.4899	73.15	-0.2549	0.0172	0.2721	1258.1938	0.147335	-435.311049	-435.301214	-435.30027	-435.346248	35.849	
C	 0.0784174141	 1.4291855154	 0.0361438501	-0.403975
C	-0.1412291495	-0.0645188056	 0.3012512533	 0.015612
N	-0.0299486785	-0.4150246852	 1.730650776	-0.51668
C	-1.5277073874	-0.5733818319	-0.216274673	-0.282112
C	-1.8636344814	 0.0060060434	-1.5174854436	 0.320852
N	-2.1084276445	 0.5204688818	-2.5218362067	-0.332308
C	-1.6549689308	-2.1253792397	-0.3077831499	 0.40675
N	-1.3025645448	-2.7710564212	 0.830366362	-0.52683
O	-2.0761893079	-2.6671548783	-1.3072363785	-0.342608
H	 1.048011451	 1.7368637798	 0.4407666136	 0.112907
H	 0.0611645831	 1.6620233919	-1.0305858138	 0.160637
H	-0.698356219	 2.0298478817	 0.5246342278	 0.120066
H	 0.6328038186	-0.635872473	-0.2238064404	 0.115622
H	 0.9299927147	-0.2875050159	 2.0369086236	 0.243807
H	-0.5913874138	 0.2301468261	 2.28278587	 0.236951
H	-2.2880452418	-0.2284639119	 0.4992688941	 0.140808
H	-0.7994139123	-2.2591706821	 1.5493312863	 0.271682
H	-1.2958101596	-3.7780877154	 0.8016868992	 0.258821
38.5531	72.6261	161.1748	207.0492	222.4324	262.302	288.4202	349.1848	361.6627	420.1049	444.5065	476.2518	489.7553	537.274	612.4406	662.9336	766.4747	853.3246	876.1393	919.9608	966.8145	1001.9671	1049.9868	1108.61	1148.5636	1167.9996	1178.2535	1253.6612	1311.7164	1353.6918	1357.7711	1406.2115	1416.6919	1489.8961	1498.773	1607.4854	1653.1703	1809.4778	2369.4634	3014.1654	3030.5073	3050.9148	3098.2886	3133.8929	3454.9166	3478.2357	3561.4779	3677.5562
CC(N)C(C#N)C(N)=O	C[C@@H](N)[C@@H](C#N)C(=O)N	
InChI=1S/C5H9N3O/c1-3(7)4(2-6)5(8)9/h3-4H,7H2,1H3,(H2,8,9)	InChI=1S/C5H9N3O/c1-3(7)4(2-6)5(8)9/h3-4H,7H2,1H3,(H2,8,9)/t3-,4-/m1/s1
