15
gdb 43646	3.65816	1.07304	0.8696	4.6816	74.46	-0.264	-0.0494	0.2145	1260.5585	0.113616	-416.844473	-416.836672	-416.835727	-416.87758	28.552	
N	-0.0360951869	 1.3075822086	-0.0131604598	-0.538417
C	-0.0442063739	 0.0444375922	-0.0077931303	 0.396436
O	 1.0777203039	-0.7602790108	-0.007002761	-0.243577
C	 0.6907907879	-2.1355610373	-0.0009398287	 0.049999
C	 1.2840275421	-2.8378792425	 1.2388989135	-0.349972
C	 2.7445193838	-2.864363966	 1.224640276	 0.271396
N	 3.8988689495	-2.896015642	 1.2043589151	-0.295131
C	-0.8145298905	-2.1036500524	-0.0031676917	-0.10958
C	-1.2214859202	-0.8355063093	-0.0038714925	-0.138978
H	 0.9197617096	 1.6663832987	-0.014164827	 0.23274
H	 1.093207723	-2.6115182004	-0.9052170217	 0.127992
H	 0.9371539089	-2.3242991889	 2.1413300183	 0.166064
H	 0.9135242371	-3.8683955558	 1.2812475592	 0.157124
H	-1.4225890463	-2.9985052182	-0.0056922018	 0.131605
H	-2.229456288	-0.4485451859	-0.0068366474	 0.142299
63.0356	114.7793	136.406	244.1825	329.683	392.4966	443.4622	456.2878	555.871	664.0738	691.1408	789.789	820.1128	861.0202	885.5018	918.3724	949.1556	978.1509	992.0046	1028.0242	1066.437	1090.8609	1123.0393	1233.5184	1253.3458	1290.2022	1350.6604	1365.9549	1384.4844	1453.3665	1662.361	1767.6372	2368.8103	3022.6534	3050.7812	3098.3162	3226.4287	3263.5196	3485.586
N=C1OC(CC#N)C=C1	[NH]C1=C[CH][C@@H](O1)CC#N	
InChI=1S/C6H6N2O/c7-4-3-5-1-2-6(8)9-5/h1-2,5,8H,3H2	InChI=1S/C6H6N2O/c7-4-3-5-1-2-6(8)9-5/h1-2,5,8H,3H2/t5-/m1/s1
