19
gdb 98078	3.27746	0.96898	0.82242	1.5002	75.26	-0.2371	-0.0693	0.1678	1438.6899	0.157132	-456.366421	-456.355829	-456.354885	-456.402622	37.218	
C	 0.0516934903	 1.4026723263	-0.1543848178	-0.310793
N	-0.0841061277	-0.0359238047	-0.199445191	-0.289149
C	-1.282158711	-0.6482847839	-0.0393064356	 0.27008
N	-2.3768846767	 0.0155648377	 0.0800192897	-0.536021
C	-1.1495255056	-2.164086988	-0.0096976559	 0.324349
O	-0.0527020786	-2.6818713887	 0.0759363939	-0.347779
C	-2.3874854283	-3.0531687059	-0.106539609	 0.043302
C	-2.9920698016	-2.9685339192	-1.5219290597	-0.403708
O	-2.0419085245	-4.3758518046	 0.209924463	-0.437968
H	 1.0869688946	 1.6692734425	-0.3747420131	 0.124257
H	-0.6054887755	 1.8672245858	-0.8957306	 0.14851
H	-0.2248775052	 1.8072360599	 0.8273998578	 0.136026
H	 0.7263561423	-0.6310609964	-0.147189272	 0.26333
H	-3.17669124	-0.6031658812	 0.1789364859	 0.224085
H	-3.1312931397	-2.7003472728	 0.6227141733	 0.099362
H	-2.2534582706	-3.2885675024	-2.2630284714	 0.129825
H	-3.8474240979	-3.645815855	-1.5764863501	 0.139931
H	-3.3214149211	-1.9552021203	-1.7659260141	 0.129889
H	-1.0725942332	-4.403712929	 0.2100514961	 0.292472
50.8877	80.5942	95.6929	126.0551	167.2562	215.3953	228.981	298.6804	348.3448	371.5219	391.9783	427.1096	463.1167	507.4808	529.5543	725.6167	781.4281	809.2824	826.8828	916.9974	967.1736	1039.279	1085.341	1115.5963	1157.5486	1180.7375	1186.4854	1199.788	1275.9173	1332.3894	1350.0601	1393.8103	1440.1849	1454.9102	1473.5588	1488.5915	1496.8653	1511.3323	1559.9714	1692.3371	1767.896	3002.2648	3024.3537	3045.9169	3085.2183	3124.2115	3134.6727	3135.7616	3536.2206	3650.2885	3701.427
CNC(=N)C(=O)C(C)O	CNC(=N)C(=O)[C@@H](C)O	
InChI=1S/C5H10N2O2/c1-3(8)4(9)5(6)7-2/h3,8H,1-2H3,(H2,6,7)	InChI=1S/C5H10N2O2/c1-3(8)4(9)5(6)7-2/h3,8H,1-2H3,(H2,6,7)/t3-/m1/s1
