19
gdb 7167	2.41412	1.40307	0.94725	4.3583	72.7	-0.2655	0.0376	0.303	1254.1105	0.16319	-365.081499	-365.07177	-365.070825	-365.116936	33.65	
C	-0.0714172718	 1.5076394508	-0.0672636357	-0.385152
C	-0.0006356197	-0.001491947	 0.0907730797	-0.043224
O	-1.3187363956	-0.5166996508	-0.0046797409	-0.25242
C	-1.4216162813	-1.9265440348	 0.0117308199	 0.142488
C	-1.4029496723	-2.4924466052	 1.4335449269	-0.407039
C	-2.7471161566	-2.260385567	-0.6980023831	-0.347737
C	-2.7460737813	-1.8501306917	-2.1001626891	 0.268666
N	-2.7362843696	-1.5434705664	-3.2139172253	-0.309846
H	 0.9303691229	 1.9429911885	-0.0062197119	 0.116593
H	-0.5087126431	 1.7687631383	-1.03462446	 0.137819
H	-0.6897654056	 1.9478534192	 0.720103016	 0.126659
H	 0.6299345952	-0.44455181	-0.6965720389	 0.09707
H	 0.4528508358	-0.2637307167	 1.0594734734	 0.08926
H	-0.5951613154	-2.3660802939	-0.5688472396	 0.085722
H	-2.2362358297	-2.0873764093	 2.0163354937	 0.128222
H	-1.4805541039	-3.5843028619	 1.4220231872	 0.119746
H	-0.4716442561	-2.23082114	 1.9423932574	 0.127676
H	-2.9444679397	-3.3359915157	-0.6428220079	 0.14732
H	-3.5630997922	-1.7470737165	-0.1774003917	 0.158177
48.5559	61.2792	100.9537	158.3183	197.61	226.4021	249.9428	310.9557	380.2832	393.3216	446.2821	473.7471	575.7598	816.5956	824.176	878.557	907.3979	946.6471	984.1406	1068.7919	1111.0345	1120.0125	1145.4063	1166.4276	1187.7751	1258.3936	1298.0457	1310.1583	1367.3739	1380.0896	1404.1059	1406.2198	1438.2816	1453.989	1483.0381	1489.0178	1496.4307	1500.3703	1529.0464	2366.3961	2969.4551	2983.0292	3000.256	3040.6021	3047.0284	3051.9086	3095.6647	3113.4348	3120.7858	3121.7062	3126.9547
CCOC(C)CC#N	CCO[C@@H](C)CC#N	
InChI=1S/C6H11NO/c1-3-8-6(2)4-5-7/h6H,3-4H2,1-2H3	InChI=1S/C6H11NO/c1-3-8-6(2)4-5-7/h6H,3-4H2,1-2H3/t6-/m0/s1
