25
gdb 118522	2.80696	0.7649	0.66227	0.7222	95.24	-0.2575	0.0561	0.3136	1819.7887	0.22615	-352.336956	-352.325356	-352.324411	-352.374411	42.091	
C	-0.7704640877	 1.4812119138	-0.8777743112	-0.379684
C	-0.4893378896	 0.0570623391	-0.3893097208	-0.182877
C	-1.7636314295	-0.7849846208	-0.2547881824	-0.16651
C	-1.530888953	-2.2649238255	 0.1026610202	 0.017309
C	-0.7788281307	-2.4856373669	 1.4325163024	-0.185514
C	-1.443775141	-1.9008406762	 2.6847813431	-0.382501
C	-2.8851586304	-3.0213037665	 0.0590731274	-0.371385
C	-2.767888091	-4.4629312972	 0.2422258894	 0.302094
C	-2.6529757498	-5.6513673036	 0.3859746059	-0.445431
H	 0.1521956522	 2.0636330779	-0.9635291749	 0.111251
H	-1.2534860446	 1.4749146306	-1.8613240737	 0.113461
H	-1.436042487	 2.0125860012	-0.1881265975	 0.113503
H	 0.2001724845	-0.4394048576	-1.0852969106	 0.095235
H	 0.0328410024	 0.1032264386	 0.5736652396	 0.101741
H	-2.4278581978	-0.3227616094	 0.4883163765	 0.09401
H	-2.311366616	-0.7430523917	-1.2065375284	 0.087914
H	-0.9046596659	-2.7007599605	-0.6877410351	 0.079144
H	-0.6472210149	-3.5646432589	 1.5689527606	 0.11088
H	 0.2302317536	-2.069204875	 1.3359815095	 0.094959
H	-0.8417286848	-2.1198821959	 3.5720912702	 0.114073
H	-1.5521991731	-0.8130038816	 2.6249882791	 0.114756
H	-2.437994256	-2.3256751814	 2.8574285649	 0.119334
H	-3.5625049142	-2.6113590114	 0.8194074592	 0.127779
H	-3.3676894893	-2.8229546352	-0.9065690463	 0.12504
H	-2.5627597565	-6.7014852359	 0.5131363429	 0.19142
48.36	61.7864	90.0388	112.2212	143.7169	194.5572	233.6469	246.8875	264.1515	312.1173	352.8838	368.3867	391.9165	525.9854	565.2247	613.3442	631.8479	740.6518	776.1923	779.2828	871.7583	887.1681	941.4667	958.4917	978.4083	999.4247	1032.2014	1049.4007	1092.1472	1124.0927	1151.1117	1173.5057	1221.9716	1255.763	1284.966	1306.5639	1323.45	1330.7678	1366.9415	1376.4594	1386.6719	1400.1336	1413.0022	1413.5217	1469.0076	1484.3552	1491.7703	1493.1726	1499.3167	1504.7046	1506.8377	1512.7227	2234.3287	3003.5215	3007.0257	3017.5891	3020.8507	3028.39	3032.5376	3036.6542	3041.6671	3051.6884	3059.9425	3070.0379	3094.9881	3101.2967	3102.1519	3104.3155	3506.8348
CCCC(CC)CC#C	CCC[C@@H](CC)CC#C	
InChI=1S/C9H16/c1-4-7-9(6-3)8-5-2/h1,9H,5-8H2,2-3H3	InChI=1S/C9H16/c1-4-7-9(6-3)8-5-2/h1,9H,5-8H2,2-3H3/t9-/m0/s1
