21
gdb 53384	2.83878	0.93935	0.84214	1.4523	88.46	-0.2358	0.0555	0.2913	1501.5482	0.179745	-387.065446	-387.054881	-387.053937	-387.103687	38.085	
C	 0.3047171462	 1.4725046559	-0.5439669405	-0.499118
C	 0.1784016732	 0.0523368481	-0.247855918	 0.077939
C	 0.0858374573	-1.1254270767	-0.0081575237	 0.051912
C	-0.0492881329	-2.5339365747	 0.2986977584	-0.183949
C	-0.1430492766	-3.0002005142	 1.7866804191	-0.237461
C	-1.1774246394	-4.0691704839	 1.352260399	-0.281429
C	-1.4046888767	-3.2744813436	 0.0280574587	 0.404617
C	-2.6329395815	-2.3756180468	 0.0563363105	-0.447317
O	-1.3352980885	-4.0147680226	-1.1741337178	-0.475192
H	 1.3503091557	 1.7973469678	-0.4975856322	 0.146766
H	-0.0672271031	 1.7045894786	-1.5483060478	 0.14655
H	-0.2624414721	 2.0834928112	 0.1673402733	 0.143816
H	 0.7261543887	-3.1135227713	-0.2135182687	 0.108449
H	 0.7839331815	-3.347346465	 2.2456151015	 0.105345
H	-0.5801091847	-2.2252770522	 2.4202110231	 0.109354
H	-0.7072618908	-5.0309728075	 1.1330373583	 0.106714
H	-2.0445225361	-4.229615182	 1.998090032	 0.091396
H	-2.6704300617	-1.7722912961	 0.9678171412	 0.124385
H	-2.6277166624	-1.6966401104	-0.8006163393	 0.132186
H	-3.5461976234	-2.9835725888	 0.0232553822	 0.101014
H	-2.2161306326	-4.3470560959	-1.3777206993	 0.274022
3.7624	75.7981	88.1984	161.9843	235.8131	249.9389	253.2392	270.9955	321.8988	353.8482	395.9959	427.3157	483.0173	548.2808	602.0054	710.6406	774.3862	873.706	898.2244	914.3941	953.5447	962.0512	991.9411	1052.1436	1053.6919	1073.3477	1113.9419	1162.4591	1189.1259	1195.3468	1211.2873	1242.5967	1264.1944	1287.493	1360.564	1368.0222	1412.3927	1414.8441	1476.8863	1478.789	1479.3294	1488.7914	1491.7399	1498.2493	2363.7382	3023.4549	3023.9456	3051.274	3060.1703	3073.873	3083.1402	3083.7272	3096.1102	3112.8853	3123.1756	3132.5232	3804.5312
CC#CC1CCC1(C)O	CC#C[C@H]1CC[C@]1(C)O	
InChI=1S/C8H12O/c1-3-4-7-5-6-8(7,2)9/h7,9H,5-6H2,1-2H3	InChI=1S/C8H12O/c1-3-4-7-5-6-8(7,2)9/h7,9H,5-6H2,1-2H3/t7-,8-/m0/s1
