18
gdb 57995	3.24099	0.87341	0.79801	5.0217	75.09	-0.2458	0.0188	0.2646	1483.5424	0.146609	-435.308321	-435.297867	-435.296923	-435.345443	35.194	
C	-0.7210836395	 1.1566374308	 0.0076381758	-0.344707
N	 0.0050881868	-0.102785663	-0.0164045923	-0.128226
C	 0.4537344709	-0.6438327715	 1.2526985689	-0.356332
C	 0.1284717622	-0.7658805077	-1.2116135414	 0.522939
O	-0.2109422501	-0.2922167505	-2.2850694549	-0.418529
N	 0.7267854605	-2.0263578982	-1.1322483222	-0.37854
C	 0.7287446835	-2.8491645536	-2.3260978946	-0.277096
C	-0.337180246	-3.863942924	-2.328820773	 0.248962
N	-1.1611976842	-4.6732485843	-2.2947002521	-0.303958
H	-0.1015782573	 1.9500202891	 0.4423867758	 0.122304
H	-0.9778167313	 1.4207639589	-1.0164653179	 0.175495
H	-1.6408038334	 1.0717147433	 0.6007427618	 0.122768
H	-0.2589678123	-1.3569204706	 1.6940004549	 0.129775
H	 1.4277594064	-1.1311537312	 1.1504044063	 0.140979
H	 0.5771808779	 0.178826237	 1.9612354886	 0.141333
H	 0.6815558048	-2.5238963482	-0.2579926822	 0.253328
H	 0.5856075082	-2.1733551237	-3.1734056164	 0.198134
H	 1.691951043	-3.3574153426	-2.444398565	 0.151371
27.6953	57.5701	101.6069	117.1225	141.24	189.3847	226.4583	267.6522	335.2075	370.7849	396.5599	480.6284	488.4789	618.1347	625.0969	761.5506	823.4194	917.9692	983.1091	1052.6409	1088.1689	1127.1701	1132.8635	1170.9287	1210.0388	1279.0663	1297.2244	1365.5327	1399.8692	1435.411	1453.7149	1473.7243	1496.1946	1501.3217	1506.1885	1521.723	1544.0307	1766.5162	2358.7697	2990.4325	3014.5889	3049.9743	3063.5176	3076.9752	3114.0925	3117.7748	3173.7633	3641.8369
CN(C)C(=O)NCC#N	CN(C)C(=O)NCC#N	
InChI=1S/C5H9N3O/c1-8(2)5(9)7-4-3-6/h4H2,1-2H3,(H,7,9)	InChI=1S/C5H9N3O/c1-8(2)5(9)7-4-3-6/h4H2,1-2H3,(H,7,9)
