22
gdb 57952	3.52656	0.90875	0.81391	2.123	83.72	-0.261	0.033	0.294	1525.4203	0.192451	-404.347437	-404.337261	-404.336317	-404.383229	37.374	
C	 1.0463807497	 1.2838421749	-0.7237798163	-0.378968
C	 0.159235584	 0.5137126435	 0.2562379349	-0.037773
C	-0.4647934085	-0.734347508	-0.3994191721	-0.388327
C	 0.9100790585	 0.1149519889	 1.5097812372	 0.408326
N	 2.1721292067	 0.1563904625	 1.6030509186	-0.529314
O	 0.0158496323	-0.2907481283	 2.4690086644	-0.251458
C	 0.5303785896	-0.6813169128	 3.7145550835	 0.115572
C	-0.2986449101	-1.6635402445	 4.475023372	-0.292406
C	 1.0308544485	-2.090830932	 3.8889547264	-0.283458
H	 1.8865612541	 0.6673396475	-1.0531180973	 0.13211
H	 0.4645284802	 1.5808073858	-1.6022278015	 0.101022
H	 1.4626631257	 2.1823869204	-0.2618558404	 0.120182
H	-0.6649556256	 1.1600811502	 0.5849380964	 0.091938
H	 0.3175993815	-1.4192848827	-0.7436392191	 0.121915
H	-1.1082905587	-1.2704545951	 0.3022489234	 0.122088
H	-1.0661884915	-0.4458650771	-1.2667872123	 0.114228
H	 2.5036223145	-0.1824444911	 2.5052073589	 0.219817
H	 1.02311814	 0.1235381908	 4.2551035589	 0.107285
H	-0.3834593601	-1.5395481227	 5.5483304978	 0.121863
H	-1.1963939287	-2.0197461957	 3.9833698963	 0.131463
H	 1.0050450461	-2.7281293022	 3.0127291419	 0.132343
H	 1.8679403919	-2.2653040623	 4.5558653284	 0.121553
45.668	73.3964	92.5917	152.8027	211.7685	235.4566	268.6224	301.5783	316.4926	387.717	417.8267	482.7559	614.6503	706.3514	756.7874	799.4363	829.3943	840.2053	882.3457	916.7691	934.8147	971.8355	979.7203	991.3326	1057.9359	1072.9624	1084.0515	1122.5065	1132.1155	1136.4985	1185.3373	1194.3165	1199.5225	1239.1352	1280.3711	1332.7705	1374.2554	1393.1658	1409.2934	1420.576	1455.907	1484.2467	1488.1212	1495.708	1498.9305	1513.9741	1735.7117	3025.1086	3037.6453	3044.7706	3105.8439	3115.3073	3123.7504	3128.131	3131.5813	3140.149	3145.8636	3225.0126	3239.0268	3496.137
CC(C)C(=N)OC1CC1	CC(C)[C]([NH])OC1CC1	
InChI=1S/C7H13NO/c1-5(2)7(8)9-6-3-4-6/h5-6,8H,3-4H2,1-2H3	InChI=1S/C7H13NO/c1-5(2)7(8)9-6-3-4-6/h5-6,8H,3-4H2,1-2H3
