18
gdb 77971	3.25388	1.24946	1.05605	1.7071	74.24	-0.2376	-0.0307	0.2069	1149.8397	0.145718	-439.00235	-438.993893	-438.992949	-439.035621	31.843	
C	 0.1733711911	 1.4528779245	 0.2277679865	-0.342587
N	 0.1825504392	 0.0032538574	 0.1046526836	-0.135224
C	-1.0360353939	-0.7897551499	 0.5364572573	-0.118326
C	-0.0745954501	-2.030156754	 0.4742467939	 0.210913
O	 0.4031121205	-2.441074797	-0.7531176676	-0.448157
C	 0.6744373183	-0.8854861666	 1.2409856827	-0.092474
C	-0.636950703	-0.6686404984	 2.0410241028	-0.056428
C	-0.8644476703	 0.5372508669	 2.9114572909	 0.09526
O	-0.0197963265	 1.0240310385	 3.6220803632	-0.248352
H	 1.2056620601	 1.8156098164	 0.2437326475	 0.134863
H	-0.3173082444	 1.8695690793	-0.6581920252	 0.125773
H	-0.3364739646	 1.8576982546	 1.1132294834	 0.120246
H	-2.0119132527	-0.6530906838	 0.0671600162	 0.090403
H	-0.362697351	-2.9043690111	 1.0589941677	 0.091951
H	 0.6403701391	-1.6130490186	-1.2023206775	 0.283347
H	 1.703286098	-0.8483745844	 1.5982923186	 0.099848
H	-0.959198455	-1.533090528	 2.6430495643	 0.109393
H	-1.9134932349	 0.9150441342	 2.9239251317	 0.079548
68.3992	129.4908	173.0167	220.348	248.9149	296.6024	342.6428	406.0024	477.4966	629.1204	650.8145	689.238	742.1405	756.6524	787.1111	808.2653	859.99	931.6612	1016.3359	1048.0994	1060.3994	1095.2431	1109.7996	1129.0223	1136.1872	1165.0781	1192.9321	1196.6328	1207.3293	1234.2692	1283.2554	1316.138	1367.2359	1417.3497	1448.0297	1464.0209	1485.0267	1499.5834	1808.2482	2857.4515	2989.2383	3003.662	3070.478	3104.5343	3106.4048	3118.4676	3129.557	3684.6978
CN1C2C(O)C1C2C=O	CN1[C@H]2[C@@H](O)[C@@H]1[C@H]2C=O	
InChI=1S/C6H9NO2/c1-7-4-3(2-8)5(7)6(4)9/h2-6,9H,1H3	InChI=1S/C6H9NO2/c1-7-4-3(2-8)5(7)6(4)9/h2-6,9H,1H3/t3-,4+,5-,6+
