21
gdb 89160	2.16192	1.64867	1.29117	2.6815	77.72	-0.2429	0.064	0.3069	1107.305	0.181677	-424.203225	-424.194278	-424.193333	-424.236739	34.803	
C	 0.5646259489	 1.4137080677	-0.2299299934	-0.41862
C	 0.2083347292	-0.0230625854	 0.0848294779	 0.120897
O	 0.9272775992	-0.987482515	-0.7450292572	-0.332874
C	 1.2562575373	-1.7988742362	 0.4053954792	 0.026857
C	 2.7006820155	-1.4754624428	 0.8728340655	 0.151142
O	 3.5677392277	-1.0739547973	-0.1492662992	-0.439995
C	 2.1194054536	-0.3794328856	 1.8327959993	-0.344285
C	 0.6700843599	-0.7350298681	 1.3846356813	 0.277291
C	-0.3675766618	-0.9983460003	 2.4521702427	-0.502066
H	 1.6378582754	 1.5984723227	-0.1369658287	 0.127943
H	 0.2668455487	 1.6547486165	-1.2554478818	 0.130547
H	 0.0324154784	 2.0939516086	 0.4439469111	 0.121922
H	-0.8719828439	-0.1709126158	-0.0620324075	 0.07683
H	 0.9253467951	-2.8353572718	 0.2965499607	 0.070674
H	 3.1765004477	-2.2968921055	 1.4171396723	 0.08256
H	 2.9899465518	-0.7221390339	-0.8434546068	 0.286266
H	 2.2977858062	-0.5945685225	 2.8900479977	 0.100866
H	 2.4621335645	 0.636810956	 1.6282412426	 0.103767
H	-0.6384655312	-0.071077493	 2.971916071	 0.121917
H	-1.2841259417	-1.4217757721	 2.0268387545	 0.118864
H	 0.0071577593	-1.6969165863	 3.2078974489	 0.119498
48.8539	188.4647	191.8661	215.2854	261.6708	279.4277	307.1315	370.6438	429.3412	510.8468	529.6613	550.8571	626.2607	667.9997	793.2069	809.9116	852.5933	886.1956	895.9925	940.7036	969.1123	1029.3174	1036.9669	1070.0457	1092.7485	1133.4901	1142.1887	1160.1799	1191.3846	1211.8924	1245.0291	1261.8322	1267.5689	1302.6539	1329.6593	1356.1297	1394.448	1412.3768	1414.5514	1445.7654	1473.5304	1481.7867	1492.8505	1494.1646	1505.4057	2987.0678	3021.128	3038.3467	3055.8205	3062.5859	3075.4938	3083.466	3095.2543	3105.2431	3116.5875	3124.5473	3709.5491
CC1OC2C(O)CC12C	C[C@H]1O[C@H]2[C@@H](O)C[C@@]12C	
InChI=1S/C7H12O2/c1-4-7(2)3-5(8)6(7)9-4/h4-6,8H,3H2,1-2H3	InChI=1S/C7H12O2/c1-4-7(2)3-5(8)6(7)9-4/h4-6,8H,3H2,1-2H3/t4-,5+,6+,7+/m1/s1
