19
gdb 119584	2.92727	1.05445	0.95384	1.9246	72.35	-0.2484	0.0711	0.3196	1330.36	0.15734	-460.10718	-460.097972	-460.097028	-460.141876	33.432	
C	-0.354882305	 1.4510829982	 0.4277970368	-0.22149
O	-0.6691392607	 0.1100571269	 0.7239186644	-0.238555
C	-0.7914882283	-0.6910163453	-0.4313158296	-0.203015
C	-1.012859143	-2.1007754242	 0.0104144512	 0.379181
O	-1.5312828581	-3.0310329	-0.9549264983	-0.313935
C	-2.2250584622	-2.8839199525	 0.3026206895	-0.035146
C	-1.4968246979	-3.7707492965	 1.3118272111	-0.291987
C	-0.1794601173	-2.9614356249	 0.9818571323	 0.088291
O	 0.9056530652	-3.645671691	 0.422124071	-0.437506
H	-0.2713512619	 1.9832815526	 1.3780969652	 0.130384
H	 0.599964859	 1.5355560928	-0.1142538949	 0.109265
H	-1.1386415414	 1.9290720346	-0.1806389449	 0.106614
H	-1.6318538279	-0.3656864889	-1.06580667	 0.101063
H	 0.1253695971	-0.6321384828	-1.0434047984	 0.1009
H	-3.2677785636	-2.5938761009	 0.251843185	 0.109326
H	-1.8299617638	-3.6305585155	 2.3428397675	 0.112587
H	-1.4719374642	-4.8361299152	 1.0702731162	 0.108452
H	 0.1906012063	-2.3966328104	 1.8389697492	 0.109199
H	 0.5784444677	-4.0324908672	-0.4004572234	 0.286371
59.456	82.1947	122.2074	162.8725	213.4913	242.5398	327.6101	370.371	421.8584	467.1134	500.0289	634.2446	700.9491	738.1465	814.8302	868.6393	902.1463	937.1797	978.0466	1010.5165	1032.2876	1061.9813	1115.2394	1145.7442	1155.5919	1176.2694	1187.6436	1196.8441	1226.9398	1237.9028	1265.6797	1292.0524	1318.6249	1391.4699	1437.7925	1461.1022	1478.3311	1485.7205	1493.2117	1502.4319	1521.3597	2953.4186	2974.2846	2991.9144	3018.933	3066.3397	3110.0347	3118.7907	3127.9688	3193.8776	3770.0788
COCC12OC1CC2O	COC[C@]12O[C@H]1C[C@H]2O	
InChI=1S/C6H10O3/c1-8-3-6-4(7)2-5(6)9-6/h4-5,7H,2-3H2,1H3	InChI=1S/C6H10O3/c1-8-3-6-4(7)2-5(6)9-6/h4-5,7H,2-3H2,1H3/t4-,5+,6-/m1/s1
