21
gdb 81840	2.25215	1.57033	1.19591	2.6989	83.17	-0.2347	-0.0218	0.2128	1149.4381	0.18075	-387.0789	-387.069443	-387.068499	-387.113042	35.267	
C	-0.2184903126	 1.5265819213	 0.1022338461	-0.40565
C	 0.0824009971	 0.0338151789	 0.0394798491	 0.011595
C	 0.736828486	-0.5516118793	-1.2184129658	-0.107839
C	 2.1769656252	-0.128997646	-1.3394352948	-0.335887
C	 1.8226110694	-1.2418326302	-0.3904558385	 0.345007
C	 2.3846032963	-2.6315774921	-0.4769899311	-0.499196
C	 1.219382254	-0.6250404135	 0.9112738973	-0.169102
C	 2.2056891584	 0.1863300828	 1.7023936295	 0.140791
O	 2.4679664224	 1.3521358537	 1.5235949719	-0.256159
H	 0.6601033451	 2.13471081	-0.1151716641	 0.139945
H	-1.0037550135	 1.7742527448	-0.6213847761	 0.105536
H	-0.5780173104	 1.8143088747	 1.0957700139	 0.11217
H	-0.8379804861	-0.5197553547	 0.253793057	 0.077208
H	 0.1929653806	-0.9502158003	-2.0677426246	 0.082585
H	 2.6740433934	-0.4554670068	-2.2478162984	 0.109298
H	 2.5126608471	 0.8351981924	-0.9696196933	 0.134742
H	 2.5351744929	-2.9233809749	-1.5216851569	 0.122714
H	 3.3557787242	-2.7084095918	 0.0266188568	 0.12301
H	 1.7128797767	-3.3665342158	-0.0181155189	 0.116425
H	 0.8222848729	-1.4141876788	 1.5583328713	 0.078657
H	 2.7562351106	-0.3967186543	 2.4789708297	 0.074153
64.58	118.4905	173.0151	194.9632	212.6749	229.1709	234.1148	331.2891	359.3743	423.559	503.1856	574.9381	684.0869	723.1081	779.8999	817.3664	860.7814	892.0544	963.7183	971.2772	989.5258	1019.0676	1038.9782	1044.4113	1083.5494	1099.1246	1120.217	1126.7052	1160.1972	1185.4097	1231.4925	1266.3515	1294.8635	1356.7273	1371.0879	1395.0415	1414.9284	1422.9295	1433.0884	1484.6194	1487.4387	1492.8937	1498.346	1502.5662	1810.8829	2843.0151	3019.3867	3032.4537	3039.5153	3057.1341	3077.0726	3092.6721	3094.8699	3122.2491	3144.5014	3169.4608	3205.7998
CC1C2CC2(C)C1C=O	C[C@H]1[C@H]2C[C@@]2(C)[C@H]1C=O	
InChI=1S/C8H12O/c1-5-6-3-8(6,2)7(5)4-9/h4-7H,3H2,1-2H3	InChI=1S/C8H12O/c1-5-6-3-8(6,2)7(5)4-9/h4-7H,3H2,1-2H3/t5-,6+,7-,8+/m0/s1
