18
gdb 65196	3.31727	1.15194	1.04014	4.4175	74.32	-0.2448	0.014	0.2588	1196.7183	0.146133	-439.056234	-439.047443	-439.046499	-439.090016	32.853	
O	-0.2941539867	 1.3227010733	 0.5759993401	-0.450528
C	-0.112142631	-0.0246351571	 0.244625084	 0.387344
C	 0.8464639005	-0.2596901712	-0.8874717599	-0.295065
C	 1.2332424823	-0.6526686758	 0.5223841548	-0.325222
C	-1.3399882878	-0.8839002849	 0.3471005437	-0.063306
C	-2.3941264794	-0.6427799392	 1.3949080403	-0.269019
N	-2.6512497983	-0.3662838438	 0.0014972316	-0.069752
C	-2.9540120359	 0.8991653687	-0.483589376	 0.155652
O	-3.710955443	 1.6693990259	 0.0528079005	-0.298669
H	-0.3598202304	 1.3999829623	 1.5343352921	 0.291307
H	 0.621491664	-1.0438195687	-1.601814559	 0.122207
H	 1.3137281905	 0.6237741278	-1.3056752684	 0.134093
H	 1.9602951355	-0.0297432332	 1.0308072644	 0.123525
H	 1.2758217368	-1.7060705193	 0.7780297251	 0.119718
H	-1.1724693755	-1.9143254401	 0.0353483083	 0.100627
H	-2.9251988935	-1.4845017164	 1.8307549908	 0.127724
H	-2.2930173979	 0.2226415171	 2.0454996838	 0.122452
H	-2.4902637402	 1.0829736445	-1.4694906861	 0.086914
53.9717	102.517	192.952	204.0095	264.2819	306.6974	330.1805	356.6782	414.7413	481.8358	536.6981	644.8521	737.5785	774.1346	826.1433	898.0019	921.5117	927.285	966.8042	997.2061	1012.5035	1038.318	1058.2407	1080.5605	1093.6115	1112.5878	1137.3917	1166.7103	1191.0156	1249.8531	1303.181	1340.5725	1383.6497	1418.1343	1432.0386	1452.8609	1494.7099	1512.229	1801.3013	2973.2813	3108.9317	3113.9439	3134.6052	3142.7102	3194.615	3221.3164	3237.8539	3799.9685
OC1(CC1)C1CN1C=O	OC1(CC1)[C@H]1CN1C=O	
InChI=1S/C6H9NO2/c8-4-7-3-5(7)6(9)1-2-6/h4-5,9H,1-3H2	InChI=1S/C6H9NO2/c8-4-7-3-5(7)6(9)1-2-6/h4-5,9H,1-3H2/t5-,7?/m1/s1
