15
gdb 24098	6.98146	0.72448	0.6803	4.5567	71.33	-0.2587	-0.0112	0.2476	1540.4801	0.114133	-416.85696	-416.849031	-416.848087	-416.89079	27.911	
N	-0.0390028203	-1.1647423007	-0.1049270772	-0.304475
C	-0.0364095613	-0.0110570727	-0.0385344934	 0.25552
C	-0.0071475651	 1.4462948023	 0.0489424356	-0.33024
C	 1.4337943259	 2.0091223367	 0.0112385791	-0.319267
C	 1.4339096043	 3.5019703197	 0.0479663046	 0.259234
C	 2.0263368285	 4.3555880927	 0.9178880021	-0.120784
O	 1.740271494	 5.6348378593	 0.526912031	-0.134814
C	 0.9734031291	 5.4812706357	-0.5736102302	 0.079949
N	 0.7533182704	 4.2542347884	-0.9110080552	-0.302888
H	-0.5813158781	 1.8697415586	-0.7811004131	 0.177665
H	-0.5080275416	 1.7546893311	 0.9730645366	 0.153564
H	 2.0105401857	 1.613139667	 0.8516915095	 0.129339
H	 1.9204029391	 1.6603417023	-0.9061825826	 0.143827
H	 2.6416586362	 4.2452557784	 1.7939525708	 0.154859
H	 0.6267539831	 6.3824489412	-1.0545529375	 0.158511
58.19	71.6968	102.086	195.824	313.0727	374.6465	405.4423	511.7752	640.4419	686.4311	748.0509	766.9195	786.5892	854.0587	937.0766	954.4094	980.5181	1021.4814	1032.806	1097.9857	1135.2662	1181.8443	1247.1591	1281.1517	1285.8248	1311.3838	1351.5793	1378.5307	1469.6619	1484.3938	1558.9564	1632.9772	2362.8834	3046.7599	3058.1543	3089.9129	3109.6981	3277.7309	3295.3669
N#CCCC1=COC=N1	N#CCCc1cocn1	
InChI=1S/C6H6N2O/c7-3-1-2-6-4-9-5-8-6/h4-5H,1-2H2	InChI=1S/C6H6N2O/c7-3-1-2-6-4-9-5-8-6/h4-5H,1-2H2
