17
gdb 44804	3.16283	1.35751	1.07718	2.6797	73.48	-0.2388	-0.0245	0.2143	1129.1074	0.134888	-421.788737	-421.780806	-421.779862	-421.821687	30.004	
O	-0.6040606407	 0.1655415915	-0.8824263802	-0.294903
C	-0.3105721371	 1.2014536251	-0.3667727456	 0.375287
C	-1.1378313647	 2.405518283	 0.1884193568	-0.373325
C	 0.1984214506	 3.1523370549	 0.2574860231	-0.049944
O	 1.0151191735	 2.4086735431	 1.1589079671	-0.277136
C	 1.0000987561	 1.9875481284	-0.2261376774	 0.30693
C	 2.2793198431	 1.838316738	-0.947589156	-0.148126
C	 3.4951073828	 2.6169124492	-0.5057386812	-0.272233
C	 3.4366583102	 1.1313725183	-0.2758146017	-0.257056
H	-1.8407510309	 2.7692269605	-0.5671238152	 0.132978
H	-1.6485697949	 2.2678383054	 1.1431403422	 0.13754
H	 0.4102579183	 4.2059550114	 0.125777589	 0.122339
H	 2.1572662503	 1.6646153621	-2.0121448275	 0.10139
H	 4.1539938806	 3.0000303389	-1.2763912389	 0.115479
H	 3.3805316517	 3.257156372	 0.3608237356	 0.129105
H	 3.2850272819	 0.7892759608	 0.7414188495	 0.131773
H	 4.0524922691	 0.4827702373	-0.8877428096	 0.119903
67.0567	118.8211	170.081	184.2828	293.3801	388.5745	470.4663	552.9826	563.8813	651.2077	698.3189	787.6209	800.8719	829.8273	868.5991	891.4386	909.986	947.2795	968.0005	987.7697	1037.1126	1067.2725	1090.3539	1115.7281	1125.0818	1128.0525	1161.6677	1202.2871	1206.4436	1222.6319	1250.5131	1359.7928	1441.4955	1462.1364	1471.675	1503.1894	1896.0904	3068.0026	3131.4592	3142.345	3145.1593	3159.2596	3205.1348	3225.9419	3239.9019
O=C1CC2OC12C1CC1	O=C1C[C@H]2O[C@@]12C1CC1	
InChI=1S/C7H8O2/c8-5-3-6-7(5,9-6)4-1-2-4/h4,6H,1-3H2	InChI=1S/C7H8O2/c8-5-3-6-7(5,9-6)4-1-2-4/h4,6H,1-3H2/t6-,7+/m1/s1
