19
gdb 89665	2.82417	1.29567	1.0777	4.1887	82.22	-0.2312	0.009	0.2402	1187.2719	0.158788	-382.05112	-382.042058	-382.041114	-382.084585	34.107	
C	-0.1417340467	 1.5279840873	-0.0085763526	-0.396372
C	 0.1059137991	 0.0303198168	 0.0154358564	 0.005755
N	 1.2441617189	-0.449093198	-0.8542080345	-0.381767
C	 1.7667433509	-1.2405718664	 0.2850990503	 0.21932
C	 2.2013681517	-0.2684576192	 1.351818696	-0.355152
C	 0.7414438086	-0.6290121783	 1.2563961647	 0.233368
C	-0.0297160955	-1.2388014745	 2.3889985053	-0.4917
C	 2.2374923724	-2.5772386861	 0.1583689336	 0.17764
N	 2.6001400551	-3.6716171814	 0.0443519889	-0.353778
H	 0.7629939015	 2.0832826478	 0.2523897762	 0.124562
H	-0.4553498674	 1.8481421464	-1.007328776	 0.125445
H	-0.9344222168	 1.7988000535	 0.6973312202	 0.118062
H	-0.819027851	-0.5072470304	-0.2280487905	 0.083274
H	 0.9036188118	-1.0555748695	-1.5940409118	 0.233403
H	 2.715542131	-0.7024404715	 2.2031000182	 0.134144
H	 2.5811373858	 0.692396977	 1.0177948207	 0.129782
H	-0.4275253868	-0.4612433933	 3.0522439974	 0.130467
H	-0.8736425688	-1.8334343316	 2.0239176707	 0.128088
H	 0.6066818862	-1.8930937485	 2.9924619269	 0.135461
107.5302	122.3654	170.7411	186.6054	212.449	255.3244	312.9646	357.1003	454.6231	467.1564	550.5437	568.1661	602.4451	690.4708	707.277	805.3257	832.7876	873.1273	956.2037	964.2104	981.3613	1047.6078	1077.8272	1082.2658	1101.3355	1125.1066	1178.3439	1235.8156	1249.655	1272.9365	1367.4223	1371.5468	1402.2082	1414.0444	1432.7892	1484.0296	1486.2937	1488.4218	1494.2887	1499.0721	2336.7893	3023.0701	3026.5943	3037.7799	3087.6504	3104.3187	3107.7525	3120.2188	3124.5279	3218.7889	3522.6279
CC1NC2(CC12C)C#N	C[C@H]1N[C@]2(C[C@@]12C)C#N	
InChI=1S/C7H10N2/c1-5-6(2)3-7(6,4-8)9-5/h5,9H,3H2,1-2H3	InChI=1S/C7H10N2/c1-5-6(2)3-7(6,4-8)9-5/h5,9H,3H2,1-2H3/t5-,6+,7-/m1/s1
