20
gdb 88805	3.05972	1.09961	0.88608	2.5521	81.16	-0.226	-0.0216	0.2045	1346.1117	0.169559	-403.120711	-403.11157	-403.110625	-403.155655	33.553	
C	-0.2714794507	 1.4003407877	-0.1418989534	-0.312807
N	 0.0164963809	-0.0171943203	 0.0050980172	-0.089805
C	 1.3800154582	-0.4626624622	-0.2474862685	-0.249998
C	 0.8205794551	-0.4944317436	 1.135461605	 0.011919
C	 1.3738324061	 0.3989154589	 2.2145371504	-0.11377
C	 0.5860963498	 0.5870023089	 3.5538356855	-0.258153
C	 1.8809799872	 0.3131117617	 4.3757042716	-0.338791
C	 2.5373060181	-0.1619187415	 3.0688776296	 0.385907
O	 3.5082563876	-0.8099550064	 2.8102278604	-0.291281
H	 0.5729806064	 2.0705795575	 0.0865309616	 0.098006
H	-0.5681576086	 1.5877654564	-1.1787942277	 0.127038
H	-1.1120315301	 1.671987152	 0.505131611	 0.122941
H	 1.4929762067	-1.3775249555	-0.8228120702	 0.118714
H	 2.1350826195	 0.2965839622	-0.4522526383	 0.107349
H	 0.4721331512	-1.4554436547	 1.5134877266	 0.090816
H	 1.6855845015	 1.3673291754	 1.8077655152	 0.099986
H	 0.1151297408	 1.5596717227	 3.6996221863	 0.110182
H	-0.1659896839	-0.1933725566	 3.6936123022	 0.117578
H	 2.3583867436	 1.2209986967	 4.7589862106	 0.132838
H	 1.8372554205	-0.4212064393	 5.1837321049	 0.131332
36.3095	82.8993	110.5932	186.2652	204.6268	252.6151	350.0601	404.4645	438.2	473.7312	570.1685	675.5504	719.0606	740.6663	796.7412	872.7445	903.1098	931.2602	958.5419	1009.8021	1028.829	1042.283	1077.673	1098.3584	1117.058	1130.9614	1160.9667	1186.7557	1198.3814	1205.7494	1223.7398	1231.5803	1252.4262	1284.6746	1341.6917	1419.4764	1443.1454	1450.0349	1488.7553	1492.2575	1500.1041	1513.9439	1889.0706	2968.2243	3052.3588	3058.8444	3064.5428	3074.7439	3086.417	3100.9307	3102.5792	3113.1463	3134.8801	3175.6808
CN1CC1C1CCC1=O	CN1C[C@H]1[C@H]1CCC1=O	
InChI=1S/C7H11NO/c1-8-4-6(8)5-2-3-7(5)9/h5-6H,2-4H2,1H3	InChI=1S/C7H11NO/c1-8-4-6(8)5-2-3-7(5)9/h5-6H,2-4H2,1H3/t5-,6+,8?/m1/s1
