19
gdb 72201	3.29833	1.8522	1.60387	1.2819	77.39	-0.2215	0.0839	0.3054	911.9284	0.161141	-385.849601	-385.842951	-385.842007	-385.880102	28.478	
C	-0.0093372224	 1.438374089	-0.0254004866	-0.478421
C	 0.0481053021	-0.0603887545	 0.0324648883	 0.452938
O	-0.1458094059	-0.658641399	-1.2327909728	-0.299301
C	 0.0166449386	-2.0554665819	-1.0538054557	 0.072365
C	-1.2423881359	-2.661884244	-0.3771688001	-0.249995
C	-0.5914944279	-2.3076891375	 0.9776462885	-0.046304
C	-0.4532568268	-0.7932015279	 1.2654782011	-0.15574
C	 1.0406521655	-0.8111339738	 0.857987675	-0.160273
C	 0.8170437671	-2.2299030163	 0.3107067853	-0.078077
H	 0.7298136709	 1.8212344312	-0.7358527748	 0.127996
H	-0.9994103401	 1.7761823499	-0.3470543472	 0.128202
H	 0.1980956702	 1.8689880624	 0.9578590886	 0.120513
H	 0.3853539545	-2.4891786555	-1.9850098982	 0.072945
H	-2.1986734985	-2.2073710182	-0.6477930283	 0.098667
H	-1.2923144717	-3.7463582367	-0.5183873376	 0.095076
H	-0.7736074349	-2.9183145457	 1.8629685209	 0.066144
H	-0.9377767138	-0.2588134747	 2.0759862225	 0.079298
H	 1.9235031434	-0.3961551636	 1.3276028444	 0.084793
H	 1.5669929655	-3.0117105531	 0.3954310168	 0.069174
203.8402	212.0426	301.1468	351.8568	417.8511	559.2441	578.1428	639.3643	704.8957	712.2318	775.3992	810.0261	836.3545	863.2493	876.8983	905.305	922.262	938.9225	944.8376	990.6192	1008.5063	1035.3384	1044.3461	1071.3997	1100.157	1111.6853	1133.6755	1176.9462	1188.325	1197.1833	1237.8751	1250.6472	1262.1562	1277.0508	1324.7652	1354.5499	1406.2881	1432.3144	1471.6368	1478.5062	1504.3	3040.5786	3047.8624	3093.9898	3096.7591	3106.7441	3110.2305	3120.8754	3151.8793	3161.1621	3190.3968
CC12OC3CC4C1C2C34	C[C@]12O[C@@H]3C[C@@H]4[C@H]1[C@H]2[C@H]34	
InChI=1S/C8H10O/c1-8-6-3-2-4(9-8)5(3)7(6)8/h3-7H,2H2,1H3	InChI=1S/C8H10O/c1-8-6-3-2-4(9-8)5(3)7(6)8/h3-7H,2H2,1H3/t3-,4+,5-,6-,7+,8-/m0/s1
