17
gdb 99253	4.92864	0.68985	0.61513	9.0776	68.56	-0.2432	0.0004	0.2436	1724.5297	0.135817	-492.326185	-492.316752	-492.315808	-492.362185	33.049	
N	-0.1919930733	 0.9130751849	-0.0237977943	-0.528069
H	-0.7385572279	 0.078373088	-0.2065366317	 0.254551
H	 1.2618837008	 0.4679705591	 1.1425276366	 0.308115
H	-0.2372962142	 1.4941302495	-0.8514116385	 0.255135
C	-0.6800625972	 1.6238842557	 1.1643172068	-0.267821
C	 0.0663293054	 1.1215761292	 2.3947170587	 0.417226
O	 1.2339948669	 0.524095254	 2.12442767	-0.385214
N	-0.3932652101	 1.2989769119	 3.5612489276	-0.335637
C	 0.3752829292	 0.8487041238	 4.711476719	-0.29433
C	-0.4096725412	 1.1053027449	 6.0034050529	 0.404087
O	-1.5981882529	 1.6931120487	 5.806559171	-0.363679
O	 0.0060260163	 0.8072208393	 7.0906200042	-0.341939
H	-0.4498097371	 2.6884061474	 1.0476969183	 0.148706
H	-1.7569202585	 1.5439628839	 1.343366563	 0.137151
H	-1.6649208895	 1.8125154702	 4.834737531	 0.301436
H	 0.610418489	-0.2217332656	 4.6641058474	 0.144949
H	 1.3380288343	 1.3682866251	 4.7955854581	 0.145335
29.7546	73.4209	93.0423	111.9054	226.8553	274.4864	298.5666	321.0291	386.2411	546.8433	564.8553	600.447	626.2115	710.9247	802.4793	829.378	856.7833	881.5525	923.0906	966.2898	989.0624	1037.3265	1088.2239	1165.4588	1218.5014	1228.1599	1265.8138	1317.9716	1337.9121	1382.648	1426.6265	1436.6261	1449.5362	1481.3477	1661.6974	1801.7315	1875.7753	3029.2102	3048.5517	3064.3511	3091.3635	3458.7427	3500.7247	3525.6777	3609.4884
[NH3+]CC(=O)NCC([O-])=O	NCC(=NCC(=O)O)O	
InChI=1S/C4H8N2O3/c5-1-3(7)6-2-4(8)9/h1-2,5H2,(H,6,7)(H,8,9)	InChI=1S/C4H8N2O3/c5-1-3(7)6-2-4(8)9/h1-2,5H2,(H,6,7)(H,8,9)
