15
gdb 35118	3.19256	1.49462	1.15872	4.6878	69.01	-0.2743	-0.0032	0.2711	1018.1249	0.11462	-416.80812	-416.800915	-416.799971	-416.840255	27.144	
N	-0.3709902948	-1.0864176405	-0.823623241	-0.326412
C	-0.2264362762	-0.0323245161	-0.3743802181	 0.301914
C	-0.0038303182	 1.3227554567	 0.1688276044	-0.146282
N	-0.5635167396	 1.3933448955	 1.5170435607	-0.266336
C	 0.1139626061	 1.9183579526	 2.4474087743	 0.133623
O	 1.3650859185	 2.4256824838	 2.44088586	-0.214268
C	 2.1064418438	 2.322910107	 1.2460697002	 0.100465
C	 2.5325929377	 0.9650927181	 0.7709676073	-0.314843
C	 1.4598098431	 1.7325201229	 0.0283159232	-0.078786
H	-0.6018223046	 2.0042495515	-0.4511257309	 0.146607
H	-0.3123909453	 2.0106083056	 3.4436866571	 0.142413
H	 2.7757170266	 3.1696125492	 1.1578603069	 0.12396
H	 3.5072104522	 0.8618602201	 0.30892481	 0.133564
H	 2.2164305979	 0.1125158921	 1.3633453574	 0.14887
H	 1.7217458228	 2.1577696115	-0.9343401016	 0.115511
63.7924	143.3127	217.5632	305.7847	383.6635	442.2678	497.6373	563.4201	592.4072	653.8686	762.6976	809.8643	836.9008	861.5439	937.6255	971.7963	1011.2665	1015.4234	1039.5474	1063.0958	1109.5028	1125.02	1148.8848	1204.3163	1240.9687	1303.6987	1320.749	1362.7318	1399.3905	1423.4858	1482.2814	1729.5356	2363.7147	3019.6479	3140.5258	3167.6704	3173.4266	3191.4634	3231.8226
N#CC1N=COC2CC12	N#C[C@H]1N=CO[C@H]2C[C@@H]12	
InChI=1S/C6H6N2O/c7-2-5-4-1-6(4)9-3-8-5/h3-6H,1H2	InChI=1S/C6H6N2O/c7-2-5-4-1-6(4)9-3-8-5/h3-6H,1H2/t4-,5+,6-/m0/s1
