17
gdb 48968	3.9167	1.35468	1.19296	1.5302	72.84	-0.2482	-0.0321	0.2161	1034.9908	0.136941	-421.808377	-421.801221	-421.800277	-421.840095	27.783	
O	-0.2203471805	 0.3403175075	-0.7335367459	-0.270098
C	 0.1062657612	 1.0724151229	 0.1729820238	 0.042086
C	 1.3480574486	 1.8635748009	 0.2015329407	 0.226304
C	 1.8094398227	 2.8470526147	 1.2815407225	-0.329768
C	 2.5871460888	 3.6243581277	 0.1694854468	 0.081597
O	 3.9350470097	 3.1985854887	 0.0795767607	-0.261407
C	 3.9095478546	 1.8055396945	-0.2614751954	-0.110468
C	 2.4953716144	 1.54001962	-0.7630709845	-0.110905
C	 1.8018263127	 2.8399295135	-0.9132991657	-0.106212
H	-0.5496656577	 1.2099485244	 1.0629050833	 0.071419
H	 0.9707657119	 3.4294217065	 1.6745550887	 0.108722
H	 2.4137972104	 2.4715863324	 2.1131660174	 0.106473
H	 2.5619998173	 4.7122501908	 0.1877476723	 0.09345
H	 4.6537991879	 1.6236883283	-1.0446926036	 0.116309
H	 4.1721961926	 1.1934232435	 0.6113065414	 0.106234
H	 2.290669931	 0.7356430662	-1.458120872	 0.124193
H	 1.2411149345	 3.1869329875	-1.7696735905	 0.112073
100.332	186.2146	195.136	240.3139	380.3728	429.779	506.5673	657.2441	681.8311	736.9708	757.7249	840.9465	854.4548	887.5274	910.6135	943.4534	977.3235	996.6584	1002.4601	1030.851	1039.5974	1084.1795	1114.3568	1160.8422	1182.7424	1201.4945	1218.1741	1228.8388	1257.2539	1293.1875	1325.0224	1369.6507	1412.3948	1431.4123	1489.2718	1524.0373	1795.5559	2870.0074	3015.4797	3045.894	3062.5301	3100.0273	3140.0023	3209.5398	3221.9303
O=CC12CC3OCC1C23	O=C[C@@]12C[C@H]3OC[C@@H]1[C@@H]23	
InChI=1S/C7H8O2/c8-3-7-1-5-6(7)4(7)2-9-5/h3-6H,1-2H2	InChI=1S/C7H8O2/c8-3-7-1-5-6(7)4(7)2-9-5/h3-6H,1-2H2/t4-,5-,6-,7+/m1/s1
