22
gdb 62829	2.50491	1.76467	1.45985	1.3016	87.65	-0.2018	0.0803	0.2822	1037.2619	0.193767	-367.071245	-367.063017	-367.062073	-367.103128	34.342	
C	-0.0573125752	 1.4960685944	-0.2651075068	-0.471683
C	 0.0271263352	-0.014336356	 0.0054660387	 0.349602
C	-1.32910124	-0.6148947748	-0.3963803526	-0.476645
C	 1.2685672486	-0.8302122476	-0.4424289692	-0.075521
C	 2.162885535	-0.0289587276	 0.5885111224	-0.290721
C	 0.8516151145	-0.4892652808	 1.2976480099	 0.23234
C	 0.1525440928	-1.1184691715	 2.5156295987	-0.327732
C	-0.0331927247	-2.3621623724	 1.5658604414	-0.186029
N	 1.1271365203	-1.8381741154	 0.7230413028	-0.157811
H	 0.7559204582	 2.0814448192	 0.163853975	 0.11609
H	-0.0825173201	 1.6948675167	-1.3433540131	 0.115156
H	-0.9917136872	 1.889147082	 0.1521444527	 0.114709
H	-1.6852267149	-0.1024217401	-1.2974860313	 0.109317
H	-1.2797145238	-1.6761116127	-0.63821822	 0.127914
H	-2.09372373	-0.4643188346	 0.374575665	 0.115416
H	 1.5521670004	-1.1329946804	-1.4555509287	 0.074882
H	 3.0444142329	-0.5725891862	 0.9241142119	 0.109646
H	 2.3684652	 1.0188487744	 0.3766119162	 0.093508
H	 0.8294323632	-1.3290447707	 3.346518412	 0.117305
H	-0.7486316919	-0.6252052385	 2.8869148226	 0.1004
H	 0.2415617669	-3.3333379824	 1.9834505869	 0.106291
H	-1.03522253	-2.4344735252	 1.1430550256	 0.103566
157.2472	172.3694	215.3538	263.5073	334.1658	363.4311	402.0392	439.3489	468.0431	525.4137	603.58	618.6274	678.6613	728.2477	774.8197	820.0841	825.5829	873.5974	915.3952	941.6185	956.6813	968.596	1002.234	1012.9839	1040.3729	1054.022	1101.8435	1130.4761	1143.8831	1160.5386	1170.8521	1189.8469	1199.3179	1210.2178	1223.8046	1248.8319	1281.6447	1304.9691	1404.1679	1419.67	1472.3937	1476.8777	1488.9394	1493.7237	1507.0976	1517.2301	1532.4211	3025.3988	3031.476	3056.7764	3066.4448	3073.8918	3078.2381	3080.6877	3098.7662	3117.599	3132.292	3136.8586	3145.2757	3175.3445
CC1(C)C2CC11CCN21	CC1(C)[C@H]2C[C@]31CCN23	
InChI=1S/C8H13N/c1-7(2)6-5-8(7)3-4-9(6)8/h6H,3-5H2,1-2H3	InChI=1S/C8H13N/c1-7(2)6-5-8(7)3-4-9(6)8/h6H,3-5H2,1-2H3/t6-,8+/m1/s1
