16
gdb 48756	3.83291	1.22915	1.06559	0.9084	71.33	-0.2606	-0.0405	0.2201	1113.9147	0.124029	-437.902458	-437.894733	-437.893789	-437.935007	29.119	
N	-0.2315978814	 1.1007188736	-0.6091638432	-0.523819
C	-0.0992016368	-0.0017462596	-0.0177084645	 0.381798
C	-1.2312576312	-0.9510103046	 0.3550109861	-0.315303
C	-0.5384156447	-2.1911901779	 0.8803671757	-0.096435
C	 0.4371363318	-2.8934596488	-0.0177382224	-0.330202
C	 0.9408356405	-1.8211253836	 0.9202673845	 0.305006
O	 1.11137796	-0.5299766256	 0.3814365089	-0.274988
C	 1.8062071607	-2.138077419	 2.077200484	 0.085915
O	 1.8415983596	-3.2250757236	 2.601456817	-0.267367
H	 0.6733864511	 1.5515036117	-0.7512556987	 0.229994
H	-1.8553704026	-0.4861033903	 1.1239288642	 0.146835
H	-1.8672496386	-1.1303698643	-0.5155101966	 0.148979
H	-0.9600928317	-2.7394829341	 1.7133741833	 0.126401
H	 0.7097707336	-3.9080392637	 0.2495665655	 0.151883
H	 0.4523060773	-2.6549758064	-1.0764179605	 0.135783
H	 2.4173700924	-1.2820879139	 2.4337316669	 0.09552
82.7358	118.944	193.1985	211.1622	368.1472	387.6167	433.19	511.0556	528.387	655.9688	708.8799	742.1865	819.1999	848.3072	875.9341	892.8882	927.2862	962.2653	1014.8477	1048.1532	1072.5368	1076.7722	1093.7267	1101.4518	1192.9139	1218.4599	1267.1991	1301.9479	1316.1596	1385.6526	1417.6933	1456.5233	1473.0035	1786.2422	1812.1566	2915.8454	3067.7914	3108.3607	3133.3312	3197.1743	3234.7449	3482.3579
N=C1CC2CC2(O1)C=O	[NH][C]1C[C@H]2C[C@]2(O1)C=O	
InChI=1S/C6H7NO2/c7-5-1-4-2-6(4,3-8)9-5/h3-4,7H,1-2H2	InChI=1S/C6H7NO2/c7-5-1-4-2-6(4,3-8)9-5/h3-4,7H,1-2H2/t4-,6-/m0/s1
