15
gdb 123328	4.26566	1.22222	1.03867	2.4661	78.4	-0.2425	0.0213	0.2638	1118.5952	0.114156	-379.614828	-379.60748	-379.606536	-379.647113	27.62	
C	-0.1756800351	-1.282789675	-0.1463070501	-0.454097
C	-0.0747276417	-0.0878601687	-0.0718467625	 0.349634
C	 0.0388036308	 1.3544686433	 0.0216016486	-0.367887
C	-0.2204717637	 1.9986683866	 1.4630095712	-0.179668
N	 1.1547716773	 2.4922474288	 1.355311743	 0.093097
N	 2.1223756399	 3.2264972976	 1.9130833005	-0.305374
C	 3.0889408949	 3.1348916343	 0.9808225469	 0.017293
C	 2.7278395339	 2.3589648891	-0.1562828984	-0.403901
C	 1.4402645762	 1.9688587832	 0.1568771703	 0.400623
H	-0.2577502541	-2.3395187926	-0.2141576397	 0.2065
H	-0.5702748445	 1.8374280432	-0.7492568378	 0.131177
H	-0.9814538117	 2.7822999864	 1.4909225991	 0.138982
H	-0.3777640892	 1.2747421874	 2.264666503	 0.146951
H	 4.031178875	 3.6345660302	 1.1547909852	 0.113999
H	 3.3259568019	 2.1432873662	-1.0248952795	 0.11267
75.468	113.698	164.7982	279.1861	398.936	476.861	540.9975	633.7394	647.8891	648.9725	667.4821	757.9199	774.4189	787.9027	854.7944	875.8421	946.6161	994.9273	1035.6168	1058.858	1109.548	1137.9941	1176.1541	1191.1967	1265.5134	1299.4292	1314.9156	1367.7855	1408.104	1483.7445	1520.042	1564.9705	2242.5941	3057.9959	3069.3267	3134.314	3243.4118	3283.5705	3503.0363
C#CC1CN2N=CC=C12	C#C[C@H]1Cn2nccc12	
InChI=1S/C7H6N2/c1-2-6-5-9-7(6)3-4-8-9/h1,3-4,6H,5H2	InChI=1S/C7H6N2/c1-2-6-5-9-7(6)3-4-8-9/h1,3-4,6H,5H2/t6-/m0/s1
