17
gdb 14224	4.0806	1.80362	1.75716	1.4263	67.63	-0.2427	0.0641	0.3068	832.4749	0.142727	-363.808444	-363.801322	-363.800378	-363.839321	27.858	
C	-0.0569733581	 1.4618811929	 0.0539754111	-0.499284
C	 0.1101828628	-0.0226253063	-0.0460754656	 0.346477
C	 0.0760187676	-0.8800784272	-1.3048500645	-0.282463
C	-0.2615182045	-2.0190110057	-0.3325409473	-0.065869
C	 1.0078432248	-2.2247412308	 0.5291067433	 0.136942
O	 2.2631112123	-2.4085673554	-0.0820169857	-0.437374
C	 0.7076467689	-0.8429499341	 1.0526956744	-0.111273
N	-0.7656733742	-0.9825252983	 0.7202910675	-0.205098
H	 0.837116094	 1.9793828045	-0.3115565833	 0.124967
H	-0.9134226064	 1.8005429581	-0.5382564839	 0.12397
H	-0.224422872	 1.7641539067	 1.09233202	 0.128807
H	-0.782910577	-0.6161464922	-1.9281112474	 0.101829
H	 0.9794021733	-0.9754751298	-1.9133605164	 0.107262
H	-0.9038040745	-2.8517734616	-0.6135260015	 0.075722
H	 0.8194596541	-2.9719696258	 1.3109905605	 0.080467
H	 2.3898121472	-3.3483414007	-0.2457825607	 0.28488
H	 1.0333041918	-0.4017357646	 1.9880544593	 0.090036
164.3203	187.2554	246.343	261.7352	312.9578	368.6945	486.6628	572.7997	632.6301	724.2666	757.3935	797.7006	809.4986	909.78	933.7081	975.7743	994.2236	1003.1282	1021.743	1047.0099	1076.9029	1124.705	1153.8988	1173.9166	1199.0568	1242.8977	1246.3294	1278.5559	1310.5451	1341.9825	1401.6778	1422.6505	1444.973	1482.1004	1490.4622	1495.2876	3023.7005	3030.851	3054.4928	3096.0252	3107.9345	3110.6617	3132.5276	3179.7996	3820.361
CC12CC3C(O)C1N23	C[C@@]12C[C@H]3[C@@H](O)[C@@H]1N23	
InChI=1S/C6H9NO/c1-6-2-3-4(8)5(6)7(3)6/h3-5,8H,2H2,1H3	InChI=1S/C6H9NO/c1-6-2-3-4(8)5(6)7(3)6/h3-5,8H,2H2,1H3/t3-,4+,5-,6+,7?/m0/s1
