18
gdb 117506	2.48784	0.81157	0.63777	4.7863	82.34	-0.2679	0.0221	0.29	1768.7815	0.144505	-401.923156	-401.912235	-401.911291	-401.961814	35.867	
C	 0.0900568943	 1.3801746692	-0.0950771099	-0.232781
O	-0.0319900302	-0.0190255962	 0.0393608772	-0.22799
C	 0.7097095458	-0.5375227277	 1.1094354784	-0.051423
C	 0.5808458557	-2.0766707981	 1.0588613821	-0.338864
C	 1.1685218834	-2.6037658277	-0.1855464683	 0.302175
N	 1.6362970898	-3.0218398094	-1.1549524582	-0.325834
C	 1.1824467874	-2.7019258547	 2.2362402749	 0.05071
C	 1.6789456195	-3.1901932121	 3.2166636804	 0.110679
C	 2.2805342758	-3.7963293535	 4.3948231883	-0.500111
H	 1.133590669	 1.6796022785	-0.2740171632	 0.115407
H	-0.5166609575	 1.6753054339	-0.9534838913	 0.138199
H	-0.2747222755	 1.907682109	 0.7997015755	 0.108819
H	 1.7709845121	-0.2533327629	 1.0454242431	 0.113778
H	 0.3226673827	-0.1902619886	 2.0800206612	 0.106875
H	-0.4942146252	-2.2995575825	 1.0257893841	 0.160879
H	 3.0457298996	-4.5265580307	 4.1111090587	 0.160448
H	 2.7580094168	-3.0414152707	 5.0284657341	 0.153946
H	 1.5302073566	-4.3157511259	 5.0002378129	 0.155087
15.3752	63.7055	77.2007	86.4826	110.389	184.2328	225.383	252.8772	272.8114	320.5117	387.4563	395.4346	475.4635	546.783	596.1437	810.1036	858.1919	996.4814	1051.6684	1052.2117	1063.0904	1070.1146	1163.8919	1176.9388	1186.2243	1226.4851	1243.1276	1283.8385	1336.5387	1405.4873	1414.311	1475.9918	1476.4774	1480.3324	1486.9751	1501.4702	1526.5481	2366.868	2382.9347	2973.9876	2984.729	3014.1374	3028.2953	3031.4541	3032.4247	3095.5291	3097.1658	3126.1494
COCC(C#N)C#CC	COC[C@@H](C#N)C#CC	
InChI=1S/C7H9NO/c1-3-4-7(5-8)6-9-2/h7H,6H2,1-2H3	InChI=1S/C7H9NO/c1-3-4-7(5-8)6-9-2/h7H,6H2,1-2H3/t7-/m1/s1
