14
gdb 19760	3.91141	2.35141	2.27549	1.7009	53.95	-0.2393	0.0832	0.3225	663.0209	0.109515	-419.652448	-419.646987	-419.646043	-419.681772	22.608	
O	 0.0955351147	 1.3923300691	 0.11478156	-0.447002
C	 0.0123179236	-0.0071079921	 0.0468511299	 0.164543
C	-1.375938035	-0.5747157682	-0.2530420709	-0.220616
C	-1.4298136942	-0.5726536879	-1.7769795394	 0.025125
O	-0.1876817271	-0.0719958001	-2.2589953168	-0.26593
C	 0.6506502819	-0.6103755187	-1.2332400075	 0.092328
O	 0.3192499503	-1.9838360531	-1.1633546277	-0.2421
C	-1.0897809836	-1.8416007663	-1.0412182679	 0.044765
H	-0.1658097948	 1.723237907	-0.7542533976	 0.289216
H	 0.4591286347	-0.4143878304	 0.9554452623	 0.10515
H	-2.234499822	-0.4336827489	 0.3869341651	 0.106058
H	-2.2837026381	-0.3832004542	-2.4093522188	 0.119982
H	 1.7019990378	-0.4484097905	-1.4515782818	 0.107048
H	-1.6484727382	-2.7652984358	-1.0270864888	 0.121433
214.2495	321.034	435.1065	524.6364	587.7589	619.3438	724.2912	771.054	802.7343	807.9439	824.6107	900.2314	909.9092	971.0848	996.8554	1012.0131	1027.0339	1038.9123	1048.9549	1087.4907	1100.6661	1125.0512	1215.8917	1224.8397	1252.7273	1282.82	1310.1109	1338.766	1375.9773	1436.3645	3110.6609	3186.0464	3228.3797	3235.0426	3246.0571	3777.081
OC1C2C3OC1OC23	O[C@H]1[C@H]2[C@H]3O[C@@H]1O[C@@H]23	
InChI=1S/C5H6O3/c6-2-1-3-4(1)8-5(2)7-3/h1-6H	InChI=1S/C5H6O3/c6-2-1-3-4(1)8-5(2)7-3/h1-6H/t1-,2-,3+,4-,5+/m0/s1
