19
gdb 89865	3.71889	0.9974	0.87864	1.5881	84.59	-0.2174	0.0329	0.2503	1366.5166	0.15782	-381.976401	-381.967417	-381.966473	-382.010111	33.968	
C	-0.0067716192	 1.5469931073	 0.1495534164	-0.31824
N	-0.0175220312	 0.1021621586	 0.1132781896	-0.0699
C	-1.2680687525	-0.5983545879	 0.4949603327	-0.237769
C	-0.4086772866	-1.6051420314	 1.2528181192	 0.348313
C	 0.7604312547	-0.6255975447	 1.1385627547	-0.253127
N	-0.8343725599	-2.4169450568	 2.3696921364	-0.369447
C	-0.3698215797	-3.0880817697	 1.1183296303	-0.334667
C	-1.3474951166	-3.8076033604	 0.3522835965	 0.390891
C	-2.1494496174	-4.4005810562	-0.3193133836	-0.443059
H	 0.9980494792	 1.9176461984	-0.0796713223	 0.120662
H	-0.68958698	 1.9405473097	-0.6106049019	 0.124072
H	-0.3103445179	 1.9625001344	 1.1301611776	 0.089869
H	-1.9127501185	-0.0199995078	 1.1761342418	 0.094025
H	-1.8648671123	-0.9693956586	-0.344157562	 0.118898
H	 1.7314210581	-1.007082131	 0.8015707206	 0.106768
H	 0.9051739103	-0.052289945	 2.0715409573	 0.086849
H	-0.10079807	-2.4743752402	 3.0737808969	 0.235289
H	 0.6200108872	-3.5403085165	 1.1403810204	 0.111672
H	-2.8637342777	-4.9276905822	-0.9019242705	 0.1989
71.5774	111.9944	151.521	228.0297	259.607	299.2708	313.0764	379.1712	406.6448	490.0162	546.7905	578.1844	609.115	660.3125	737.3217	816.0197	869.2368	931.2636	944.0003	975.2752	985.1755	1024.9321	1060.1053	1095.9375	1119.4155	1143.8953	1188.5298	1191.0163	1213.5944	1217.692	1262.4144	1302.1346	1324.7548	1369.1631	1452.8101	1477.5738	1487.3459	1494.0378	1498.5402	1521.8334	2239.8238	2919.0132	2945.273	2978.0777	3044.4929	3056.8737	3072.1326	3099.396	3122.8357	3483.9246	3503.8058
CN1CC2(C1)NC2C#C	CN1CC2(C1)N[C@H]2C#C	
InChI=1S/C7H10N2/c1-3-6-7(8-6)4-9(2)5-7/h1,6,8H,4-5H2,2H3	InChI=1S/C7H10N2/c1-3-6-7(8-6)4-9(2)5-7/h1,6,8H,4-5H2,2H3/t6-/m0/s1
