15
gdb 25365	5.88208	1.05635	0.90586	7.3954	77.91	-0.2365	-0.034	0.2025	1220.7204	0.114382	-416.821547	-416.814285	-416.813341	-416.853719	26.571	
O	-0.0241587437	-0.0820883224	-0.1801225803	-0.271355
C	 0.0329109741	 1.1247436541	-0.1896060051	 0.085054
C	 1.2238327458	 1.9357923368	 0.0621611713	 0.150798
C	 1.2369241933	 3.3328788138	 0.0395150969	-0.215848
N	 2.5324298645	 3.6382029739	 0.3245231205	 0.011513
C	 3.7090905104	 4.5026669632	 0.5710436468	-0.172675
C	 4.5321308701	 3.1674126231	 0.7798931833	-0.372317
C	 3.2085494438	 2.4744155291	 0.4969889869	 0.392345
N	 2.4813301305	 1.4042579638	 0.3533665975	-0.393624
H	-0.8709731447	 1.74313638	-0.403433643	 0.054553
H	 0.4584438409	 4.0532141528	-0.1479604553	 0.154403
H	 3.9958423735	 5.1038621872	-0.294319214	 0.143551
H	 3.6054017618	 5.1368411538	 1.4539861307	 0.143527
H	 5.323699436	 3.0011836981	 0.0465192623	 0.145048
H	 4.9350952238	 3.0336234727	 1.7857606615	 0.145027
86.424	141.144	179.2202	226.1105	310.4703	423.7339	507.3723	648.7228	691.8365	711.3536	761.0968	805.0818	823.1041	841.8784	920.8337	993.1883	1027.5472	1055.8298	1100.6353	1135.6204	1147.9405	1179.3773	1225.6684	1263.4155	1306.2389	1383.6233	1415.2147	1446.1904	1480.1811	1501.1963	1515.6564	1599.834	1804.7812	2846.8227	3073.3539	3082.1117	3126.1618	3139.3702	3279.5185
O=CC1=CN2CCC2=N1	O=Cc1cn2CCc2n1	
InChI=1S/C6H6N2O/c9-4-5-3-8-2-1-6(8)7-5/h3-4H,1-2H2	InChI=1S/C6H6N2O/c9-4-5-3-8-2-1-6(8)7-5/h3-4H,1-2H2
