18
gdb 32089	3.23017	1.13341	0.90006	1.5187	82.24	-0.2303	-0.0162	0.2141	1308.9089	0.149536	-402.031833	-402.023617	-402.022673	-402.065599	31.041	
C	 0.026039431	 1.5395076025	-0.115986743	-0.36729
C	-0.0325980557	 0.006557997	 0.0089923243	-0.290235
C	 0.6870945408	-0.498013704	 1.2369567562	 0.335364
C	 2.0793735534	-0.6747451483	 1.2390579705	-0.212925
C	 2.6986508958	-1.1063116393	 2.4000933594	 0.002457
N	 2.0436387541	-1.370586413	 3.538556421	-0.371718
C	 0.7272686918	-1.2018751081	 3.5269351758	 0.446953
O	 0.0595877355	-1.4694618183	 4.6698984918	-0.41924
C	 0.0000482428	-0.7713677895	 2.4121794999	-0.303546
H	 1.061250103	 1.8895809994	-0.1736098464	 0.123965
H	-0.4975059495	 1.8751554004	-1.0162863938	 0.116962
H	-0.4401455361	 2.0200218098	 0.7496376222	 0.125656
H	-1.0787060257	-0.3163807983	 0.0400113349	 0.108073
H	 0.4130649049	-0.4460595931	-0.884229924	 0.109159
H	 2.6645012415	-0.4824654649	 0.3463828024	 0.090008
H	 3.7752580594	-1.2551164659	 2.4287879744	 0.108533
H	 0.732176118	-1.750212652	 5.3061693318	 0.295934
H	-1.0761750548	-0.6635538344	 2.4837245224	 0.101888
27.3946	130.8171	210.4201	220.4029	309.0591	312.9677	451.6013	472.8789	521.8435	549.2107	575.5221	678.3091	766.3895	776.1275	792.3431	846.4732	896.9467	933.7817	979.8356	997.6673	1007.9122	1073.6751	1084.9116	1126.9951	1178.7558	1215.9066	1268.1185	1324.7125	1331.8452	1348.83	1366.4674	1405.9205	1486.7263	1488.7207	1494.7341	1508.8435	1523.699	1610.7638	1659.6024	3035.9438	3038.0845	3074.1594	3111.6061	3114.1892	3156.7401	3190.2299	3195.8276	3764.9102
CCC1=CC=NC(O)=C1	CCc1ccnc(O)c1	
InChI=1S/C7H9NO/c1-2-6-3-4-8-7(9)5-6/h3-5H,2H2,1H3,(H,8,9)	InChI=1S/C7H9NO/c1-2-6-3-4-8-7(9)5-6/h3-5H,2H2,1H3,(H,8,9)
