19
gdb 119341	4.04681	1.04136	0.98892	1.3024	75.82	-0.2252	0.0803	0.3055	1288.7492	0.158406	-422.944248	-422.936014	-422.93507	-422.977747	31.174	
C	 0.0895193339	 1.5745896116	 0.0685963395	-0.388793
C	 0.1797973868	 0.0661346085	-0.0660651093	-0.059253
O	 0.4761961187	-0.4794833776	 1.2247773545	-0.285757
C	 0.6092535731	-1.8291000078	 1.2354037923	 0.36938
C	 1.3302096674	-2.7285528663	 2.2116607535	-0.184468
C	 0.0863241762	-3.5807053596	 2.4501232295	-0.227842
C	-0.3734520066	-3.0899397039	 1.0534480177	-0.015899
O	 0.5746255785	-3.7001651066	 0.1398604912	-0.280552
C	 1.566142278	-2.8278524071	 0.6691552852	-0.013103
H	 1.0358787295	 1.9862052445	 0.430652109	 0.129082
H	-0.1380378386	 2.0273900139	-0.9009805438	 0.119197
H	-0.697958257	 1.8524892681	 0.7747509854	 0.129573
H	-0.7674142425	-0.3540635052	-0.4332457822	 0.102132
H	 0.9681582358	-0.2258911409	-0.7735557833	 0.10337
H	 2.1323581608	-2.4689853735	 2.8903447382	 0.096353
H	 0.195181117	-4.663712774	 2.5612915688	 0.101554
H	-0.5331892223	-3.1681094491	 3.2503300431	 0.107916
H	-1.4043477314	-3.1399720428	 0.7096018482	 0.087232
H	 2.5356371728	-2.7653458525	 0.1938373426	 0.109877
61.943	91.4082	120.7419	238.0335	312.7734	324.1784	376.848	490.8683	551.2123	648.6845	731.73	777.2395	813.4582	820.3581	852.5391	918.0549	925.0554	934.3341	964.8246	971.0473	1031.16	1051.0256	1067.9511	1073.9658	1098.0614	1133.1714	1145.2675	1153.7319	1184.3756	1214.1176	1233.7341	1267.995	1293.9069	1313.0482	1393.5787	1415.8457	1473.5458	1483.0038	1495.2298	1498.9493	1526.3373	2998.4903	3034.0702	3045.8863	3053.1446	3116.5625	3120.6135	3123.2433	3146.3402	3204.5244	3215.8977
CCOC12C3CC1OC23	CCO[C@@]12[C@H]3C[C@@H]1O[C@@H]23	
InChI=1S/C7H10O2/c1-2-8-7-4-3-5(7)9-6(4)7/h4-6H,2-3H2,1H3	InChI=1S/C7H10O2/c1-2-8-7-4-3-5(7)9-6(4)7/h4-6H,2-3H2,1H3/t4-,5-,6+,7-/m0/s1
