20
gdb 41294	3.57189	1.71552	1.6076	1.5925	81.83	-0.2075	0.0743	0.2818	927.2317	0.174641	-365.917904	-365.911652	-365.910708	-365.947968	27.848	
C	-0.0302965998	 1.4828844677	 0.1979965603	-0.27157
C	 1.4972927618	 1.6143611988	-0.1764030348	-0.347709
C	 1.3735181568	 0.2120418162	-0.796127017	 0.328028
C	 2.0240101746	-1.1613771672	-0.8639440458	-0.34456
C	 0.747381871	-1.7801972979	-1.5572819528	-0.002674
C	 0.798675072	-1.0897504374	-2.931504677	-0.238537
C	 0.4141316389	 0.1110978857	-2.0805082721	-0.027514
N	-0.443336203	-0.7989104814	-1.1930573916	-0.17791
C	 0.0968447007	-0.0690141914	-0.0091440076	 0.046916
H	-0.300311012	 1.7844544605	 1.2114429602	 0.103639
H	-0.7024557724	 1.9845335628	-0.5000296792	 0.117028
H	 1.7949464814	 2.4385223056	-0.830318001	 0.099032
H	 2.1280032895	 1.6301687863	 0.7176790072	 0.106645
H	 2.9016766678	-1.2788474733	-1.5055675648	 0.096637
H	 2.2494858204	-1.5684208805	 0.125126074	 0.096291
H	 0.5499145233	-2.8427392416	-1.4267600571	 0.076789
H	 1.7431883342	-1.0980578352	-3.4802546282	 0.093704
H	-0.0322221804	-1.3773340492	-3.57927258	 0.112806
H	-0.0236805549	 1.0229350243	-2.485271633	 0.070313
H	 0.1156643201	-0.6398449728	 0.9245516601	 0.062645
253.0769	282.191	335.3841	429.7393	475.3793	543.3416	659.0545	679.3701	698.2684	740.8567	804.0271	809.2916	837.2119	877.9568	889.7716	908.204	921.349	947.0924	975.446	1010.0051	1024.3604	1030.4823	1048.139	1074.7348	1118.1828	1132.8679	1164.1853	1174.7356	1180.1716	1209.6841	1216.5967	1232.7059	1234.4671	1250.2502	1263.1315	1270.2117	1292.7857	1332.6658	1350.5794	1475.1318	1478.2497	1490.6721	1513.1741	3049.4672	3053.1184	3057.4846	3065.7186	3079.3	3100.6076	3103.8217	3116.6324	3127.1746	3133.7697	3136.1534
C1CC23CC4CC2N4C13	C1C[C@]23C[C@@H]4C[C@H]2N4[C@H]13	
InChI=1S/C8H11N/c1-2-8-4-5-3-7(8)9(5)6(1)8/h5-7H,1-4H2	InChI=1S/C8H11N/c1-2-8-4-5-3-7(8)9(5)6(1)8/h5-7H,1-4H2/t5-,6+,7+,8+/m0/s1
