16
gdb 82010	2.59406	1.4471	1.34005	4.8726	68.75	-0.2449	0.0189	0.2637	1014.7184	0.125135	-434.019774	-434.011539	-434.010594	-434.052331	31.476	
N	-0.1112140203	 1.481546935	 0.1830481661	-0.555624
C	-0.0073841334	 0.0488623503	 0.0433527823	 0.101632
C	 0.8760366863	-0.5132647823	 1.0626581893	 0.266056
N	 1.5933310377	-0.9878184045	 1.8351395628	-0.336095
C	-1.3518406604	-0.6941918514	-0.0291135278	-0.064501
N	-2.0016519663	-0.1941913351	-1.2627493796	-0.377459
C	-1.0272546486	-1.3134978524	-1.340527687	-0.079152
C	 0.3290563534	-0.6100172839	-1.4140203254	 0.08849
O	 0.525882631	 0.2829575763	-2.4589969381	-0.425059
H	 0.7638482736	 1.9260616693	-0.0782244276	 0.246236
H	-0.8263842615	 1.8101832276	-0.458379275	 0.244326
H	-1.9313559412	-1.07255999	 0.8024845551	 0.122515
H	-2.9423122029	-0.5806438521	-1.3023456024	 0.247941
H	-1.3132071868	-2.2761426685	-1.7440593263	 0.110805
H	 1.1877743303	-1.2800907286	-1.362734957	 0.115973
H	-0.3309324909	 0.7029564503	-2.6172787193	 0.293917
114.1662	152.4638	175.2187	217.7824	280.7907	301.0678	427.4589	481.4089	495.8384	513.9323	577.094	629.5115	672.7939	768.7018	835.0024	850.818	858.3322	920.3507	940.8925	962.5215	1006.	1044.9968	1095.9833	1120.135	1143.0933	1198.0794	1199.6586	1283.6671	1292.6131	1319.3582	1357.2388	1375.3325	1442.473	1646.9213	2354.1076	3117.9691	3200.0997	3214.2959	3500.1325	3505.399	3582.9434	3751.2522
NC1(C#N)C2NC2C1O	N[C@@]1(C#N)[C@H]2N[C@H]2[C@H]1O	
InChI=1S/C5H7N3O/c6-1-5(7)3-2(8-3)4(5)9/h2-4,8-9H,7H2	InChI=1S/C5H7N3O/c6-1-5(7)3-2(8-3)4(5)9/h2-4,8-9H,7H2/t2-,3+,4-,5+/m1/s1
