23
gdb 39399	2.25254	2.00987	1.61872	0.0568	87.13	-0.2583	0.0769	0.3352	993.2295	0.210812	-351.137526	-351.130453	-351.129509	-351.168476	30.641	
C	-0.0935252592	 1.5145998454	 0.0187291609	-0.244841
C	 1.467687295	 1.4907995687	-0.055438023	-0.013169
C	 2.1815728012	 1.7027238738	 1.2912732019	-0.214307
C	 1.3553118755	 1.3131236759	 2.5339352871	-0.195209
C	 0.7039878702	-0.0970162428	 2.5559579109	-0.212134
C	 0.4861324677	-0.813547916	 1.2162048444	-0.007714
C	 1.7980641269	-1.0910015869	 0.4145504626	-0.240038
C	 1.3835028321	 0.0041868957	-0.5758377786	-0.011705
C	-0.0799746409	-0.0223250558	-0.0302349001	-0.020295
H	-0.5752751678	 2.0208470319	 0.859100864	 0.08955
H	-0.5226437925	 1.9153959606	-0.9052927296	 0.09169
H	 1.8943333823	 2.1729896291	-0.7953413452	 0.062844
H	 3.14221373	 1.1730156495	 1.2797951879	 0.097177
H	 2.4330803823	 2.7656225738	 1.3920742342	 0.089845
H	 1.9898376139	 1.4218840238	 3.4207123039	 0.088112
H	 0.5680302428	 2.0639195197	 2.654224024	 0.102845
H	 1.323737886	-0.7708655379	 3.161647084	 0.096341
H	-0.2532778053	-0.024590594	 3.0867861964	 0.091562
H	-0.0912997169	-1.7205527318	 1.4178794592	 0.065519
H	 2.746714883	-0.9844355074	 0.9502651547	 0.087524
H	 1.7844320179	-2.0785450618	-0.0569166833	 0.090016
H	 1.6219086621	-0.113382517	-1.6348739314	 0.053157
H	-0.8949203061	-0.5370174165	-0.5435713651	 0.053229
142.412	265.9694	285.2485	350.1326	361.2783	427.4248	499.5832	611.9631	654.4773	716.4476	731.8724	798.8699	815.4702	819.3186	854.0109	890.2518	903.5152	919.3101	964.0515	990.7075	1011.427	1017.1754	1050.7321	1063.1936	1080.9631	1115.3086	1137.8245	1154.0765	1166.414	1197.0037	1207.4128	1221.1159	1239.8861	1265.6278	1273.7026	1285.3448	1300.9572	1313.827	1326.7375	1339.7569	1346.6449	1377.1903	1390.1074	1395.8174	1476.6355	1482.1049	1489.6087	1502.3561	1518.2815	3012.4037	3020.1754	3034.7624	3039.1166	3042.9441	3045.8706	3050.5949	3053.3607	3062.3682	3075.5538	3076.181	3083.6767	3091.9765	3097.4458
C1C2CCCC3CC2C13	C1[C@H]2CCC[C@@H]3C[C@H]2[C@H]13	
InChI=1S/C9H14/c1-2-6-4-9-7(3-1)5-8(6)9/h6-9H,1-5H2	InChI=1S/C9H14/c1-2-6-4-9-7(3-1)5-8(6)9/h6-9H,1-5H2/t6-,7-,8-,9-/m1/s1
