19
gdb 112460	2.57749	1.32812	0.95079	3.3111	78.49	-0.2111	0.0145	0.2256	1258.2208	0.161113	-419.270818	-419.261951	-419.261007	-419.305024	33.155	
C	-0.0997376401	 1.550173076	-0.0881089985	-0.399006
C	-0.0309185615	 0.0234361603	 0.0041429695	-0.154823
C	 0.8064842035	-0.4950651449	 1.196956732	-0.020406
N	 0.2639564838	-0.0686695206	 2.4902236322	-0.356996
C	-0.4232278215	-0.8207698844	 3.4058140358	 0.454176
O	-0.9609719689	-0.3564982547	 4.3939634905	-0.410965
N	-0.4385967903	-2.1828269759	 3.1291768224	-0.370439
C	 0.3019617453	-2.7443967128	 2.0963205868	 0.015323
C	 0.9198195971	-1.9956899559	 1.1826628491	-0.130637
H	 0.9017413041	 1.990492377	-0.1593571336	 0.11485
H	-0.6632241269	 1.8646889657	-0.9712953854	 0.121292
H	-0.5986259627	 1.9855107847	 0.7842271805	 0.119471
H	-1.0389447183	-0.4006404154	 0.079976828	 0.106549
H	 0.4135215754	-0.3808297188	-0.914104841	 0.095859
H	 1.8120941343	-0.0547072617	 1.102467279	 0.087835
H	 0.2448317127	 0.9160038298	 2.7014233486	 0.252103
H	-0.836649182	-2.7530807032	 3.8556587614	 0.260444
H	 0.3387938435	-3.827499225	 2.0918708824	 0.117832
H	 1.4820735227	-2.45888468	 0.3827616001	 0.097538
48.8737	99.9176	108.477	213.9754	240.4288	331.6492	412.4642	438.0048	478.3074	509.3879	551.6258	563.2982	612.9405	731.2289	749.1053	765.9768	841.0936	894.9573	946.1113	947.1102	1000.3974	1030.0609	1064.2449	1090.1927	1123.1089	1170.6424	1206.4414	1282.5798	1300.064	1332.2661	1376.8199	1390.2251	1407.4331	1446.8312	1462.8579	1473.3318	1481.4447	1499.6764	1509.6903	1739.9364	1813.7698	2962.8249	3026.8379	3030.3177	3067.6353	3098.5115	3106.818	3197.2282	3222.7738	3647.57	3673.0389
CCC1NC(=O)NC=C1	CC[C@H]1NC(=O)NC=C1	
InChI=1S/C6H10N2O/c1-2-5-3-4-7-6(9)8-5/h3-5H,2H2,1H3,(H2,7,8,9)	InChI=1S/C6H10N2O/c1-2-5-3-4-7-6(9)8-5/h3-5H,2H2,1H3,(H2,7,8,9)/t5-/m1/s1
