21
gdb 92203	2.84535	1.68908	1.39089	1.7842	80.29	-0.2364	0.0743	0.3107	1021.4589	0.185085	-387.076299	-387.068914	-387.06797	-387.108106	30.31	
C	-0.6174635193	 1.4528202557	 0.0399258516	-0.404776
C	 0.0052402041	 0.0571681087	-0.0181806587	 0.034105
C	 0.858772244	-0.2146450446	-1.2923458387	-0.24816
C	 2.0872780042	-1.016700246	-0.8372155686	 0.120007
O	 3.2245789251	-0.1564098684	-0.5379487909	-0.31203
C	 3.0873963714	-0.3770482264	 0.8792178241	 0.119707
C	 2.114831739	 0.6288950328	 1.5351013365	-0.253743
C	 0.9089136176	-0.310170685	 1.1782539541	-0.037208
C	 1.9220951235	-1.3738699349	 0.6599483869	-0.117234
H	 0.1510549768	 2.2328324021	 0.0235101757	 0.120307
H	-1.2775583191	 1.6241791438	-0.8169831637	 0.113585
H	-1.2128762212	 1.5872561576	 0.9496023945	 0.109627
H	-0.8149656293	-0.6738494501	-0.0115552084	 0.069718
H	 0.2793075265	-0.7592387094	-2.0446738534	 0.094537
H	 1.2049386575	 0.7128285431	-1.7599778546	 0.111633
H	 2.3845801272	-1.8090156088	-1.5316215037	 0.071617
H	 4.0459227062	-0.5870947856	 1.359210118	 0.071933
H	 2.2592565237	 0.7083687664	 2.6166356558	 0.098202
H	 2.1329211342	 1.6319194273	 1.1022826911	 0.104128
H	 0.3188693416	-0.5903548149	 2.053525715	 0.065695
H	 1.8877281965	-2.4104881334	 0.9884234873	 0.06835
68.784	223.4801	236.4948	316.677	340.2509	402.9387	479.2032	569.0734	658.2657	683.5546	733.2189	810.5684	834.5237	846.7953	894.144	898.0496	934.2511	953.346	964.4675	965.5909	1014.4634	1029.7049	1043.7085	1064.1886	1110.4308	1131.0801	1161.1398	1176.5508	1192.8165	1207.4013	1228.0661	1254.6441	1269.1038	1284.4502	1299.4626	1319.1974	1332.0266	1349.5913	1361.1152	1375.279	1412.0744	1465.1928	1479.5588	1497.5513	1500.4524	3000.2391	3028.7339	3041.5232	3052.5993	3054.9258	3078.5533	3081.7874	3089.9114	3095.2428	3099.1107	3113.4734	3133.9079
CC1CC2OC3CC1C23	C[C@H]1C[C@H]2O[C@H]3C[C@@H]1[C@@H]23	
InChI=1S/C8H12O/c1-4-2-6-8-5(4)3-7(8)9-6/h4-8H,2-3H2,1H3	InChI=1S/C8H12O/c1-4-2-6-8-5(4)3-7(8)9-6/h4-8H,2-3H2,1H3/t4-,5-,6+,7-,8-/m0/s1
