21
gdb 52470	4.38469	0.54392	0.54392	0.0412	108.42	-0.2248	0.0035	0.2283	2197.1626	0.178702	-349.930925	-349.919454	-349.91851	-349.969839	40.33	
C	-0.0181096414	 1.4906228017	 0.0101800575	-0.517161
C	 0.0015410359	 0.0387003573	 0.0023036316	 0.215557
C	 0.0179245601	-1.1716246259	-0.0042853405	-0.182591
C	 0.036350713	-2.5320761679	-0.0117302049	-0.388938
C	 0.0527687922	-3.7435877014	-0.0184009096	 0.498919
C	 0.0726641722	-5.2085657316	-0.026554992	 0.015013
C	-1.3799052747	-5.7395753307	-0.0372829548	-0.390739
C	 0.8160907732	-5.7027267174	-1.2895658692	-0.390734
C	 0.8026686254	-5.7170276544	 1.2386007761	-0.390734
H	 0.9767422076	 1.9027679938	-0.1941509069	 0.153886
H	-0.7024756024	 1.883060924	-0.750727697	 0.153887
H	-0.3447337053	 1.8785084623	 0.9818822966	 0.153886
H	-1.9170250736	-5.3908652154	-0.923629857	 0.122821
H	-1.3772081446	-6.8349078208	-0.0434812245	 0.11094
H	-1.9264492288	-5.4009041959	 0.8471956711	 0.122824
H	 1.8466828975	-5.3375323332	-1.3044985101	 0.122821
H	 0.8371850411	-6.7977517412	-1.3061972924	 0.110939
H	 0.3179055633	-5.3534100199	-2.1981360127	 0.122825
H	 0.2949171248	-5.3778850949	 2.1457278791	 0.122819
H	 0.8235397914	-6.8121731463	 1.243115654	 0.110939
H	 1.833058533	-5.352184292	 1.2685356355	 0.122824
7.2187	65.177	65.3943	163.0067	163.0596	214.4841	270.3679	271.428	306.7062	312.3279	312.3428	361.5143	361.5731	509.9311	509.9393	552.4502	582.903	582.9206	770.157	911.8194	930.2475	930.3033	965.8565	1046.8732	1046.9313	1049.653	1049.7019	1205.9525	1219.8018	1219.8157	1323.805	1394.2821	1394.3914	1412.9789	1427.6762	1473.0289	1473.0351	1473.8176	1484.8981	1485.0095	1497.7443	1497.8399	1518.0329	2272.7403	2383.307	3021.467	3032.4396	3032.4579	3038.8055	3082.5462	3082.5769	3105.1701	3105.1858	3111.3762	3116.2234	3120.2353	3120.2547
CC#CC#CC(C)(C)C	CC#CC#CC(C)(C)C	
InChI=1S/C9H12/c1-5-6-7-8-9(2,3)4/h1-4H3	InChI=1S/C9H12/c1-5-6-7-8-9(2,3)4/h1-4H3
