15
gdb 24090	3.71709	1.04068	0.92902	1.2715	71.6	-0.2054	0.01	0.2154	1244.1769	0.113025	-416.788126	-416.779994	-416.77905	-416.821842	29.738	
C	 0.2603775911	-0.1135757607	-1.2199586625	-0.457683
C	 0.093184149	 0.5702294489	-0.2458145774	 0.315885
C	-0.0810846414	 1.3984822171	 0.9544141775	-0.334669
N	 1.0535797104	 2.2399305878	 1.3060571684	-0.367972
C	 1.411640146	 3.2644017749	 0.4454003015	 0.307343
C	 0.7294053095	 3.8688505436	-0.566035931	-0.117142
O	 1.5256230413	 4.8917795755	-1.0412711592	-0.142408
C	 2.6368025027	 4.8246892964	-0.2939887481	 0.084465
N	 2.6413600403	 3.8906471701	 0.6021249007	-0.322111
H	 0.4063857336	-0.7146800686	-2.0832997892	 0.203053
H	-0.9584255234	 2.0461934236	 0.8312797398	 0.146638
H	-0.2989011792	 0.7554934464	 1.8137700292	 0.144245
H	 1.8616471126	 1.7322864517	 1.6401759375	 0.250204
H	-0.2143450556	 3.7229363319	-1.0568768009	 0.140663
H	 3.4133682832	 5.5435254914	-0.5036621363	 0.149488
51.6958	62.9351	176.8378	210.1435	325.0142	346.7135	420.4574	562.8818	609.6443	625.6353	632.3304	648.1121	665.7588	708.3153	742.5771	843.2861	922.165	935.0668	969.3629	1040.7139	1079.5414	1114.3156	1163.4881	1236.7201	1278.3429	1303.1402	1356.3134	1374.8856	1465.603	1495.199	1566.1325	1661.8907	2232.729	3029.7796	3072.2259	3274.6069	3315.5968	3503.9905	3588.1697
C#CCNC1=COC=N1	C#CCNc1cocn1	
InChI=1S/C6H6N2O/c1-2-3-7-6-4-9-5-8-6/h1,4-5,7H,3H2	InChI=1S/C6H6N2O/c1-2-3-7-6-4-9-5-8-6/h1,4-5,7H,3H2
