15
gdb 35891	2.11242	1.68606	1.02134	5.2898	69.06	-0.2997	0.0004	0.3001	1107.3332	0.114268	-416.830038	-416.821987	-416.821043	-416.86417	28.532	
N	-0.3356985801	-1.1664482589	-0.0354819887	-0.310213
C	-0.1799773759	-0.0219847106	-0.0097894012	 0.287202
C	-0.0338180938	 1.4256678442	 0.0464700587	-0.183387
C	-0.5752646577	 2.0351071062	 1.3762890202	-0.097736
O	 0.202807641	 3.1934396938	 1.5840736931	-0.227434
C	 1.5342416581	 2.8183196537	 1.3068024921	-0.097741
C	 1.4452892244	 1.9748962795	-0.0022818455	-0.183373
C	 2.496446119	 0.9718501924	-0.0981524787	 0.287199
N	 3.3589085056	 0.2054691348	-0.1575212579	-0.310211
H	-0.581367004	 1.8523598668	-0.7973945752	 0.149247
H	-1.6246879994	 2.3250904097	 1.3116812782	 0.140954
H	-0.4480465954	 1.3132897094	 2.1958021843	 0.127646
H	 2.1348454075	 3.720917432	 1.1878643703	 0.140955
H	 1.956063937	 2.2058670188	 2.1166004381	 0.127646
H	 1.5321182737	 2.6372447183	-0.8669995978	 0.149247
21.3393	112.592	185.9405	188.8367	280.6538	310.9284	466.5828	476.0868	541.4608	558.8051	607.3984	690.2807	767.3889	919.4002	957.2559	1017.3092	1018.145	1050.2344	1079.2142	1090.8145	1128.2204	1220.4753	1250.6972	1286.985	1302.4403	1318.3523	1339.9845	1371.4201	1400.934	1504.7218	1520.4051	2364.5123	2366.0461	3006.6528	3010.8383	3075.6223	3089.8395	3128.1394	3130.7388
N#CC1COCC1C#N	N#C[C@H]1COC[C@H]1C#N	
InChI=1S/C6H6N2O/c7-1-5-3-9-4-6(5)2-8/h5-6H,3-4H2	InChI=1S/C6H6N2O/c7-1-5-3-9-4-6(5)2-8/h5-6H,3-4H2/t5-,6+
