19
gdb 52877	2.91913	0.97835	0.8097	1.8119	85.46	-0.2314	0.0504	0.2817	1473.5639	0.15717	-385.831536	-385.821832	-385.820888	-385.868365	34.44	
C	-0.3461965182	 1.6058554016	-0.1031580292	-0.502024
C	-0.1747986681	 0.1607052804	-0.0600965325	 0.117305
C	-0.0408665478	-1.0363444579	-0.0153232655	-0.031122
C	 0.1515191864	-2.4625248044	 0.0033823231	 0.169308
C	-0.123195669	-3.2324332319	 1.2843073595	-0.307048
C	-1.0715675461	-3.3629196489	 0.1284260272	-0.298257
C	 1.2705059882	-2.9384564293	-0.8898052535	-0.026637
C	 2.6188090467	-3.214071224	-0.3825719825	-0.169843
O	 1.7154315681	-4.280075194	-0.7055826575	-0.236426
H	 0.619971957	 2.1201996134	-0.1551932517	 0.147397
H	-0.9342595732	 1.9165004296	-0.9741524937	 0.146739
H	-0.8639236996	 1.9694786213	 0.7915418676	 0.148324
H	 0.5271115481	-4.0754251336	 1.4869547201	 0.134313
H	-0.4328090286	-2.6568996607	 2.1479756762	 0.120601
H	-2.0385840011	-2.8787115036	 0.189404233	 0.122743
H	-1.0490169543	-4.2896513408	-0.4341303035	 0.131144
H	 1.1679828004	-2.6393290077	-1.9337038656	 0.098622
H	 3.4789528673	-3.1200159061	-1.0430129052	 0.117866
H	 2.822851554	-3.0857305935	 0.6788127536	 0.116997
11.1761	66.8896	94.1978	139.8848	218.6832	240.2771	285.6828	302.1335	408.5068	431.6389	517.8409	562.4782	630.8487	781.232	810.162	871.3331	882.5867	903.8914	947.4376	985.6037	1051.9143	1052.2774	1054.331	1062.9293	1080.9878	1094.5063	1102.6134	1153.0789	1174.4415	1200.6583	1272.0497	1302.5973	1337.4959	1414.3064	1429.9241	1450.5886	1477.2403	1479.7452	1485.6236	1524.9474	2365.7612	3024.5623	3083.5117	3085.8104	3089.9058	3103.6489	3141.0072	3145.6224	3180.4562	3230.0819	3244.4385
CC#CC1(CC1)C1CO1	CC#CC1(CC1)[C@H]1CO1	
InChI=1S/C8H10O/c1-2-3-8(4-5-8)7-6-9-7/h7H,4-6H2,1H3	InChI=1S/C8H10O/c1-2-3-8(4-5-8)7-6-9-7/h7H,4-6H2,1H3/t7-/m1/s1
