19
gdb 57877	2.5899	1.21901	0.93043	3.3962	75.32	-0.2526	-0.006	0.2467	1298.0563	0.15752	-456.396829	-456.386235	-456.385291	-456.433293	35.803	
C	-0.5722106601	 1.1296759716	 0.2095771857	-0.330852
N	 0.2081534816	-0.0973109069	 0.1229080668	-0.11787
C	 1.0390220213	-0.3790988536	 1.2873469055	-0.349756
C	 0.4450463607	-0.5912073581	-1.137498588	 0.45713
O	 0.170057121	 0.0085495707	-2.1579195187	-0.386372
N	 1.0234724677	-1.8883227994	-1.1986221457	-0.155898
C	 1.7653806509	-2.2161542831	-2.4181926094	-0.340239
C	 0.5933438186	-2.9218484212	-0.3847413815	 0.1513
O	 0.9367844244	-4.0748958057	-0.4998835307	-0.317013
H	 0.0724495269	 2.0190362322	 0.2140241768	 0.127326
H	-1.2398222822	 1.1932349627	-0.6477786588	 0.163677
H	-1.1563157863	 1.1194857191	 1.1353454982	 0.124113
H	 1.5405760359	 0.5414958731	 1.6132408084	 0.131337
H	 0.4398189529	-0.7530995729	 2.1258668094	 0.133688
H	 1.8052312349	-1.1140877881	 1.0479083536	 0.155981
H	 2.5897084846	-1.5124335491	-2.5506841899	 0.13542
H	 2.1482726397	-3.2285815146	-2.3027504329	 0.162176
H	 1.1124604827	-2.1566902712	-3.2917067813	 0.154004
H	-0.1184755854	-2.5794976856	 0.3836107326	 0.101848
53.0794	86.8871	91.5341	111.867	141.6976	166.1533	228.4213	280.6157	318.9031	344.1006	362.4887	387.4623	462.6171	545.4707	684.2602	776.8004	821.7286	932.3597	1045.5886	1048.1526	1082.6534	1124.3229	1134.3222	1158.9175	1174.2403	1257.3427	1289.3183	1336.0304	1406.9085	1436.9743	1442.5538	1444.4872	1474.4655	1487.6389	1489.912	1497.2534	1506.2927	1511.3676	1536.1571	1766.8395	1807.607	3005.7026	3012.4889	3017.8595	3063.8394	3064.3989	3080.3656	3131.1248	3164.4386	3169.4871	3177.9642
CN(C)C(=O)N(C)C=O	CN(C)C(=O)N(C)C=O	
InChI=1S/C5H10N2O2/c1-6(2)5(9)7(3)4-8/h4H,1-3H3	InChI=1S/C5H10N2O2/c1-6(2)5(9)7(3)4-8/h4H,1-3H3
