19
gdb 108091	2.5719	1.5286	1.27191	1.8907	75.69	-0.2238	0.0719	0.2957	1081.052	0.158486	-422.9509	-422.942513	-422.941569	-422.983684	32.428	
C	-0.2698998908	 1.1849974588	 0.0777183649	-0.256984
O	 0.321730529	-0.0986254459	-0.0409548938	-0.287221
C	 0.8935557486	-0.5532843634	 1.1180686251	 0.398329
C	 2.2161092733	-0.1309826216	 1.7535813746	-0.299814
C	 2.073204482	-1.4202176539	 2.617574431	-0.137987
C	 0.8497604715	-1.1379829023	 3.5351917497	-0.225158
C	 0.0093136427	-1.1725970989	 2.2638269332	-0.223933
C	 1.0550358195	-1.9810024168	 1.5143302374	 0.302215
O	 1.0174870882	-3.1114766344	 0.7472583993	-0.449506
H	 0.4731432934	 1.9511452446	 0.3387861813	 0.113203
H	-0.7016833586	 1.4271311577	-0.8957390072	 0.127837
H	-1.0615766876	 1.191713358	 0.8395463771	 0.110158
H	 3.0370555949	-0.2084822135	 1.0355005412	 0.107723
H	 2.2767657906	 0.8205525493	 2.2938403804	 0.087192
H	 2.9593299712	-1.9281724447	 2.9914113647	 0.074261
H	 0.6256271275	-1.9779169343	 4.2003689755	 0.092727
H	 0.8789497374	-0.2109491937	 4.1193333321	 0.088394
H	-1.0659154672	-1.1975918591	 2.1361282732	 0.087788
H	 0.6785742442	-3.837440696	 1.2832997403	 0.290776
92.2422	147.4746	174.5119	227.1594	284.0588	323.4995	371.4452	415.6733	431.5051	559.7686	583.4964	657.3157	724.6822	763.6198	838.4729	899.1666	925.3106	944.9451	979.1881	989.3586	1012.1056	1059.3947	1069.247	1111.7567	1115.3752	1142.436	1171.2992	1180.8958	1197.3603	1220.1176	1228.6132	1265.3377	1280.7038	1297.2779	1349.3687	1474.6866	1483.7294	1487.4452	1500.0805	1505.851	1540.8799	2995.3263	3027.7849	3036.3	3050.0812	3082.7732	3101.9258	3123.2874	3141.3387	3195.0321	3786.4352
COC12CC3CC1C23O	CO[C@@]12C[C@H]3C[C@@H]1[C@@]23O	
InChI=1S/C7H10O2/c1-9-6-3-4-2-5(6)7(4,6)8/h4-5,8H,2-3H2,1H3	InChI=1S/C7H10O2/c1-9-6-3-4-2-5(6)7(4,6)8/h4-5,8H,2-3H2,1H3/t4-,5+,6+,7-/m1/s1
