19
gdb 97330	4.36496	0.72447	0.6634	1.4135	78.36	-0.2434	-0.021	0.2224	1743.7879	0.156663	-456.370485	-456.359851	-456.358907	-456.407085	36.616	
C	-0.0027976318	 1.3381043073	 0.1365313274	-0.318915
N	 0.1326145197	-0.1053891581	 0.1072176419	-0.190767
C	 0.5783514043	-0.6169933334	-0.9457982697	 0.111045
O	 0.7227145294	-1.9854609259	-0.9952252753	-0.224489
C	 1.18290667	-2.5436214793	-2.1560720084	 0.483256
O	 1.4732489039	-1.9178251011	-3.1399448316	-0.349223
C	 1.2186045179	-4.0557959864	-2.0329819568	-0.066413
C	-0.2257674245	-4.5914495369	-2.1653887934	-0.406878
N	 2.1673238881	-4.5701046584	-3.0136817206	-0.522967
H	 0.5948929228	 1.7380045462	 0.9626573015	 0.13717
H	 0.3054758569	 1.8377901869	-0.7944881532	 0.107425
H	-1.0466695509	 1.5968214417	 0.3438797545	 0.136078
H	 0.882675209	-0.1093111969	-1.8633980474	 0.13501
H	 1.5757712295	-4.2895079803	-1.0228845134	 0.1144
H	-0.6404677486	-4.3381866241	-3.1465968294	 0.126217
H	-0.2212349996	-5.6812162436	-2.0649142551	 0.121602
H	-0.8776710571	-4.180599316	-1.3891137716	 0.138848
H	 1.9725457751	-5.5468711443	-3.2064521135	 0.227236
H	 2.054861556	-4.0561166774	-3.882949886	 0.241366
48.5612	66.9883	92.2804	124.1852	199.0524	211.8041	233.7234	245.6658	299.5436	328.807	348.4829	389.6792	441.7508	582.2494	681.0894	749.7407	846.3801	893.2672	933.7294	988.1009	1033.3276	1063.4239	1078.9736	1104.9265	1141.638	1172.5643	1175.8966	1191.1233	1246.4055	1343.1196	1367.7079	1394.7162	1420.974	1447.2091	1480.4758	1492.6933	1501.0724	1502.1705	1640.8099	1779.1372	1835.7439	2985.4035	3034.0553	3039.6905	3072.2901	3090.4184	3109.6632	3115.1218	3119.5784	3498.2007	3583.5259
CN=COC(=O)C(C)N	CN=COC(=O)[C@@H](C)N	
InChI=1S/C5H10N2O2/c1-4(6)5(8)9-3-7-2/h3-4H,6H2,1-2H3	InChI=1S/C5H10N2O2/c1-4(6)5(8)9-3-7-2/h3-4H,6H2,1-2H3/t4-/m1/s1
