15
gdb 46747	2.82939	1.87134	1.4564	3.0153	63.34	-0.2423	-0.0312	0.2112	891.4012	0.112826	-457.728189	-457.72146	-457.720516	-457.759547	26.103	
O	-0.0366321329	 0.073783291	 0.3543158378	-0.307407
C	-0.0479592824	 1.244445495	 0.085015745	 0.404866
C	-1.2991218413	 2.0884764338	-0.1932372673	-0.184391
O	-0.8761556201	 3.3395987947	-0.7220644316	-0.265376
C	 0.5026973189	 3.5306438458	-0.4838807829	 0.085877
C	 0.9348791684	 4.147679527	 0.8717537482	-0.002825
O	 0.3836795762	 3.3279537462	 1.9098635735	-0.239068
C	 1.5796686197	 2.8815184788	 1.2655637304	 0.02233
C	 1.1464459004	 2.1848334931	-0.0478079273	-0.236927
H	-1.9531946789	 1.5913150061	-0.9178672475	 0.1317
H	-1.8474378276	 2.2132362688	 0.7500291148	 0.14337
H	 0.9540068947	 4.0305244869	-1.3442681031	 0.098464
H	 1.1646287987	 5.1764592874	 1.1229470843	 0.115298
H	 2.4426106354	 2.6759550364	 1.8858727584	 0.123114
H	 1.9512526109	 1.7812920389	-0.6611364625	 0.110974
98.4893	165.1952	216.9974	355.7119	447.2449	541.9141	582.1121	648.1315	667.4998	765.5522	784.577	843.7313	873.8696	888.0165	916.9441	943.4212	981.9495	1010.2873	1022.7891	1052.6498	1096.83	1166.8915	1170.0514	1204.3576	1220.3446	1229.511	1251.5748	1265.8546	1323.7683	1363.6124	1379.9447	1475.8358	1857.8618	3021.518	3074.2915	3087.4227	3130.2703	3188.5033	3209.4637
O=C1COC2C3OC3C12	O=C1CO[C@H]2[C@H]3O[C@H]3[C@@H]12	
InChI=1S/C6H6O3/c7-2-1-8-4-3(2)5-6(4)9-5/h3-6H,1H2	InChI=1S/C6H6O3/c7-2-1-8-4-3(2)5-6(4)9-5/h3-6H,1H2/t3-,4+,5-,6+/m0/s1
