14
gdb 80236	2.33988	1.85248	1.35713	2.0795	63.67	-0.2515	-0.0515	0.2	938.5338	0.101056	-473.809672	-473.802487	-473.801543	-473.841295	27.716	
O	 0.1385281313	 1.4294462275	-0.0955436276	-0.433304
C	 0.0334002113	 0.0519804753	-0.0206433412	 0.171731
C	 0.0974050049	-0.6464375214	 1.3721849762	-0.103362
O	-0.9970596722	 0.0124280434	 2.0702237017	-0.27371
C	-2.0279203769	 0.0031376164	 1.1260917787	 0.436553
N	-3.1882406482	 0.4536198036	 1.2887647575	-0.56144
C	-1.4023350622	-0.6494381577	-0.077062277	-0.309788
C	-0.6551424854	-1.7986878936	 0.6647841951	 0.447444
O	-0.5945511538	-2.9822266318	 0.595427445	-0.286519
H	-0.3538660625	 1.818260847	 0.6386647546	 0.303946
H	 0.7216155306	-0.3811360519	-0.7485452366	 0.128643
H	 0.9728275832	-0.7253807235	 2.0094079246	 0.119749
H	-3.3147927508	 0.8239716744	 2.2324684879	 0.234095
H	-2.0030551894	-0.7716091076	-0.970678949	 0.125962
126.9966	161.3967	221.1045	303.2151	370.1605	428.8438	478.5524	557.4873	610.9562	676.2413	685.6371	749.9902	799.957	832.7276	864.6702	878.5663	934.5427	960.2916	1038.0774	1073.7938	1088.7779	1127.611	1154.8754	1182.8838	1215.315	1261.1025	1301.5707	1331.7465	1441.7008	1805.9717	1934.6988	3113.401	3182.4622	3206.0381	3475.5312	3781.4513
OC1C2OC(=N)C1C2=O	O[C@H]1[C@H]2O[C]([NH])[C@@H]1C2=O	
InChI=1S/C5H5NO3/c6-5-1-2(7)4(9-5)3(1)8/h1-2,4,6-7H	InChI=1S/C5H5NO3/c6-5-1-2(7)4(9-5)3(1)8/h1-2,4,6-7H/t1-,2+,4+/m0/s1
