17
gdb 88244	3.52906	0.71882	0.62904	3.9617	82.81	-0.2537	0.0124	0.2662	1732.9839	0.134956	-380.829086	-380.819496	-380.818552	-380.865917	33.307	
C	-0.5204863009	 1.4047320371	 0.4273236869	-0.397009
C	-0.0222413387	 0.0146399363	 0.1275803178	 0.020469
N	 1.3652197982	-0.1155496638	-0.3236503051	-0.320629
C	 0.9829110321	-0.6897831112	 0.9916422712	-0.259743
C	 1.5486251113	-0.0894548999	 2.1679691673	 0.168149
C	 2.0043325543	 0.3907095183	 3.1726752868	 0.094861
C	 2.5729689381	 0.98140318	 4.380876317	-0.476171
C	 1.5711447737	 1.643349108	 5.2286315474	 0.279333
N	 0.7928392292	 2.1657667771	 5.9026640809	-0.30127
H	 0.259846512	 1.9977000053	 0.9086338926	 0.138912
H	-0.81650562	 1.911172453	-0.4971294123	 0.122963
H	-1.390175978	 1.3692994713	 1.0913126768	 0.125546
H	-0.7549861374	-0.6476622785	-0.3327191789	 0.091377
H	 1.4584287294	-0.8675797523	-1.0017296235	 0.236904
H	 0.8821758751	-1.7718018812	 1.0486846224	 0.110017
H	 3.0777317485	 0.2153850554	 4.9838340025	 0.181745
H	 3.342365343	 1.7199815853	 4.1206648002	 0.184546
12.5806	58.4926	112.9459	140.5602	189.9666	254.4356	320.5771	364.6789	378.637	402.0774	466.4808	562.1535	615.3906	752.8627	783.3839	857.638	909.9924	932.1923	936.1414	984.8388	1010.6751	1069.0959	1127.4063	1157.2731	1207.5516	1235.4101	1245.8958	1264.4743	1338.5102	1394.9592	1422.8706	1445.9383	1454.2662	1486.3576	1496.1301	2368.7495	2377.9939	3024.8955	3041.6818	3055.0041	3105.1591	3106.5647	3124.5929	3138.6729	3502.4721
CC1NC1C#CCC#N	C[C@H]1N[C@H]1C#CCC#N	
InChI=1S/C7H8N2/c1-6-7(9-6)4-2-3-5-8/h6-7,9H,3H2,1H3	InChI=1S/C7H8N2/c1-6-7(9-6)4-2-3-5-8/h6-7,9H,3H2,1H3/t6-,7+/m1/s1
