22
gdb 14800	13.04886	0.51836	0.50807	0.0001	77.52	-0.2507	0.0898	0.3404	2197.499	0.197823	-387.320603	-387.309962	-387.309018	-387.357336	35.565	
C	-0.0225542777	 1.3842916724	-0.0006947157	-0.227054
O	 0.0014572934	-0.0213874949	-0.0007956691	-0.230921
C	 0.6703370758	-0.5596580687	 1.118968756	-0.049271
C	 0.6392828693	-2.0787299022	 1.0218558606	-0.199966
C	 1.3448095889	-2.7559701362	 2.1998701354	-0.199966
C	 1.3137525117	-4.2750420962	 2.1027589113	-0.049271
O	 1.982645473	-4.8133123449	 3.2225156164	-0.230921
C	 2.0065648832	-6.2189930805	 3.2224692347	-0.227054
H	 0.9927634943	 1.8126411888	-0.0210075477	 0.101504
H	-0.5571342134	 1.7041540134	-0.8986368558	 0.125138
H	-0.5428644377	 1.7863458405	 0.883836863	 0.101503
H	 1.7134741673	-0.1982345168	 1.1535987309	 0.083242
H	 0.1860243389	-0.2245283218	 2.05336229	 0.083243
H	-0.4075769023	-2.4015207607	 0.9674730531	 0.106291
H	 1.1071983872	-2.3754551221	 0.0752435156	 0.10629
H	 2.3916702811	-2.4331821485	 2.2542510092	 0.106292
H	 0.8768960736	-2.4592422794	 3.1464826701	 0.10629
H	 0.2706154456	-4.6364660147	 2.0681442486	 0.083242
H	 1.7980519198	-4.6101716723	 1.1683579907	 0.083243
H	 2.5268818716	-6.6211175379	 2.3379732721	 0.101503
H	 2.5410895892	-6.5388561562	 4.1204439824	 0.125138
H	 0.9912175972	-6.6472729509	 3.242759978	 0.101504
48.5924	80.7656	84.607	101.9386	142.2594	145.342	214.2153	237.6524	242.2048	286.4606	365.682	489.3652	513.9772	756.0754	819.3089	948.5066	978.2929	979.9575	1046.4911	1060.4762	1102.6863	1162.5925	1169.3662	1169.4237	1179.8609	1201.4232	1215.3166	1231.3284	1235.8928	1281.6004	1286.6209	1314.097	1319.5864	1370.424	1428.1615	1430.1388	1481.8813	1482.6955	1485.5214	1485.5318	1492.3079	1499.5252	1504.8332	1509.7813	1532.2055	1535.6133	2940.1533	2940.2674	2965.0341	2965.8813	2966.2504	2966.4104	3006.3343	3006.4176	3026.6345	3035.4277	3058.8548	3083.1832	3111.2923	3111.3545
COCCCCOC	COCCCCOC	
InChI=1S/C6H14O2/c1-7-5-3-4-6-8-2/h3-6H2,1-2H3	InChI=1S/C6H14O2/c1-7-5-3-4-6-8-2/h3-6H2,1-2H3
