17
gdb 42301	3.38187	1.17137	0.98199	2.5519	81.09	-0.2399	-0.057	0.1829	1214.7757	0.135085	-384.680391	-384.671777	-384.670833	-384.714866	31.369	
O	-0.1351391562	-0.134202513	-0.0261707578	-0.28905
C	-0.1075504157	 1.0762594561	-0.0000801622	 0.232816
C	 1.1284159274	 1.7979249356	 0.2662644179	 0.261827
C	 2.141804997	 2.4158474484	 0.4679732713	-0.409158
C	-1.3370124827	 1.9632559642	-0.2223446995	-0.146734
C	-2.6112646976	 1.1631929493	-0.5878720102	-0.239437
C	-3.4823945196	 1.1339141865	 0.6969897098	-0.250608
C	-2.8574109278	 2.1904348584	 1.5730298612	-0.046108
C	-1.709976824	 2.652960186	 1.0817722857	-0.084225
H	 3.0469209098	 2.9429152464	 0.6499130038	 0.214061
H	-1.0585991436	 2.6956589011	-0.9917157354	 0.098444
H	-3.1423471004	 1.6818425286	-1.3899196948	 0.101173
H	-2.3565628588	 0.1632960278	-0.9412644794	 0.127926
H	-4.5381508802	 1.338293284	 0.4851639362	 0.105822
H	-3.4539203315	 0.1543818869	 1.1919198916	 0.119887
H	-3.3028137143	 2.5131475693	 2.5080362603	 0.097939
H	-1.0698892918	 3.3943737444	 1.5445645516	 0.105425
42.0478	53.0851	130.2789	184.3567	259.1104	283.1017	413.3692	448.0901	577.7564	643.3325	674.6783	694.7094	708.1695	730.1029	788.37	813.609	874.7556	916.5198	926.4454	976.1832	993.1757	1042.3595	1059.1238	1113.8549	1131.8328	1177.1045	1218.9945	1266.2481	1297.8099	1315.6101	1341.7207	1373.0022	1474.5025	1493.9979	1684.0533	1768.7386	2208.8474	3016.9259	3024.1426	3053.2163	3075.2252	3131.1944	3185.8968	3215.4462	3494.3539
O=C(C#C)C1CCC=C1	O=C(C#C)[C@H]1CCC=C1	
InChI=1S/C8H8O/c1-2-8(9)7-5-3-4-6-7/h1,3,5,7H,4,6H2	InChI=1S/C8H8O/c1-2-8(9)7-5-3-4-6-7/h1,3,5,7H,4,6H2/t7-/m1/s1
