18
gdb 27532	3.92095	1.08428	0.90951	4.718	80.68	-0.2037	0.0283	0.2319	1298.6888	0.149916	-398.153229	-398.14484	-398.143896	-398.186909	30.944	
C	-0.1109530758	 1.4501956251	-0.0212175343	-0.49925
C	-0.0411738042	-0.0401976985	-0.0338571475	 0.348499
N	-0.1592857604	-0.8108953667	-1.0936195726	-0.368352
C	-0.0287347038	-2.1120390914	-0.6462478306	 0.313001
C	 0.1773514078	-2.1207431888	 0.7075652235	-0.210484
N	 0.1621461258	-0.7920278119	 1.0874733597	-0.280852
C	-0.0978642216	-3.246056674	-1.5862527175	-0.108183
C	-1.0362126591	-3.1903340238	-2.7419192527	-0.237038
N	 0.4105608454	-3.0637963651	-2.9619236908	-0.326979
H	 0.8182500763	 1.8996899322	 0.3476077796	 0.13328
H	-0.2807797356	 1.7999169391	-1.0401441606	 0.158449
H	-0.929035509	 1.8157141328	 0.6100952411	 0.132932
H	 0.3281535947	-2.9174727594	 1.4164898852	 0.128903
H	 0.2898490849	-0.4437920887	 2.0226844038	 0.262558
H	 0.1345782318	-4.2156763192	-1.1530345835	 0.080102
H	-1.4817257609	-4.1067495824	-3.120173102	 0.109562
H	-1.650626026	-2.2990020684	-2.8284827414	 0.122354
H	 0.6296541799	-2.0741719609	-3.0707767393	 0.241497
70.7074	78.9757	151.8322	155.1503	261.493	338.1952	432.2591	444.6416	515.0337	616.1226	666.4412	715.3309	731.1129	751.885	828.9233	882.0122	970.6017	976.4002	994.0843	1010.5267	1054.5695	1061.6118	1105.6171	1111.4342	1140.8414	1183.1271	1221.675	1277.0334	1306.4419	1314.6787	1368.7643	1400.505	1413.3904	1446.3203	1483.1586	1496.4589	1504.8169	1580.0665	1617.6715	3030.8784	3080.4189	3107.4638	3137.4689	3149.3205	3200.9499	3274.5978	3479.9168	3664.4512
CC1=NC(=CN1)C1CN1	Cc1nc(c[nH]1)[C@H]1CN1	
InChI=1S/C6H9N3/c1-4-7-3-6(9-4)5-2-8-5/h3,5,8H,2H2,1H3,(H,7,9)	InChI=1S/C6H9N3/c1-4-7-3-6(9-4)5-2-8-5/h3,5,8H,2H2,1H3,(H,7,9)/t5-/m1/s1
