16
gdb 9535	2.83479	1.95378	1.58497	1.747	61.64	-0.2483	0.0134	0.2617	862.7181	0.131464	-417.043977	-417.036112	-417.035168	-417.076025	29.33	
N	-0.0355535114	 1.5324968402	 0.1757483264	-0.557882
C	-0.0440674703	 0.091358412	 0.0585123552	 0.140006
C	 0.8154795291	-0.5092882873	 1.1778541849	-0.096098
O	 2.1600726785	-0.1006764223	 1.0276977997	-0.424302
C	-1.42198271	-0.5723834359	-0.1841960825	-0.121478
O	-0.9165247569	-1.1851718905	-1.4201533057	-0.257115
C	 0.3057395926	-0.5793720267	-1.2708568736	 0.39867
N	 1.3534331755	-0.6223166764	-1.9646339609	-0.56492
H	 0.9150970201	 1.823468314	 0.3904027518	 0.248111
H	-0.289321937	 1.974519477	-0.7025509673	 0.23386
H	 0.4739491506	-0.1295603864	 2.146371614	 0.120949
H	 0.7142403886	-1.6052045461	 1.1775872238	 0.095778
H	 2.4398744071	-0.3653822994	 0.1384415029	 0.302187
H	-1.7432328777	-1.3385483033	 0.5254747063	 0.124156
H	-2.2337749765	 0.1266356544	-0.3956220636	 0.126374
H	 1.2517364475	-1.2114522334	-2.7925569016	 0.231705
109.1704	133.1783	192.452	252.0875	305.7587	321.5226	369.6023	442.9675	530.2839	551.9737	696.3719	742.5096	767.7205	862.7648	885.0611	924.4365	945.5396	958.7397	1017.2487	1071.9684	1077.7738	1098.904	1147.1474	1214.4452	1244.9117	1283.8926	1328.5328	1375.1657	1405.4858	1446.5353	1500.2866	1509.9585	1663.2695	1805.7368	2990.1503	3066.7129	3080.4792	3131.7475	3475.4297	3490.4351	3568.2055	3719.282
NC1(CO)COC1=N	N[C@@]1(CO)CO[C]1[NH]	
InChI=1S/C4H8N2O2/c5-3-4(6,1-7)2-8-3/h5,7H,1-2,6H2	InChI=1S/C4H8N2O2/c5-3-4(6,1-7)2-8-3/h5,7H,1-2,6H2/t4-/m0/s1
