16
gdb 32465	2.88281	1.40175	1.00347	12.4307	75.22	-0.1187	-0.0087	0.11	1134.7395	0.124574	-474.978895	-474.970628	-474.969684	-475.011546	31.567	
N	-0.4219864791	 1.1698219951	-0.1407152066	-0.417615
H	-0.5239820411	 0.1805984663	-0.3696923147	 0.299143
H	 0.4785344691	 1.5124974043	-0.4786349348	 0.309735
H	-1.1826284283	 1.758383249	-0.6013944153	 0.34078
C	-0.552228302	 1.4904789066	 1.3685207543	-0.341161
C	-0.6602353069	 2.9561384926	 1.4226668117	 0.18506
C	 0.0570885489	 3.8966671003	 2.1128147648	-0.168066
O	-0.3406779933	 5.1435675626	 1.7409296796	-0.214331
C	-1.3165653007	 5.038684083	 0.6845706457	 0.315803
O	-1.7212344373	 6.0180403569	 0.0694172954	-0.472215
C	-1.5496321412	 3.6687163335	 0.5787464822	-0.05928
O	-2.2515432462	 3.0535968183	-0.4906569534	-0.488947
H	-1.4584766581	 0.9537131115	 1.6722217058	 0.151154
H	 0.3136509891	 1.0689523326	 1.8817753194	 0.148345
H	 0.725718577	 3.8231505118	 2.9561518588	 0.108412
H	-2.3850931598	 3.7598824856	-1.140568303	 0.303184
96.314	166.1161	204.0113	260.9226	300.6306	314.0746	394.9079	460.6326	464.51	530.1124	552.5264	573.8284	622.4882	691.1723	708.2064	742.6599	787.0255	886.6299	916.7488	1046.5986	1085.8512	1106.9714	1142.3852	1242.5279	1263.4861	1300.9788	1359.1913	1381.2373	1482.3181	1509.2374	1518.9594	1599.6901	1629.0873	1679.1017	1805.9804	2745.6331	3038.697	3126.9533	3249.099	3445.2471	3528.6635	3720.2029
[NH3+]CC1=COC([O-])=C1O	[NH3]CC1=C(C(=O)O[CH]1)O	
InChI=1S/C5H7NO3/c6-1-3-2-9-5(8)4(3)7/h2,7-8H,1,6H2	InChI=1S/C5H7NO3/c6-1-3-2-9-5(8)4(3)7/h2,7H,1H2,6H3
