16
gdb 44403	3.58051	1.52138	1.48351	3.5168	74.27	-0.2299	-0.0412	0.1887	924.5285	0.125175	-400.629368	-400.622784	-400.62184	-400.660124	27.351	
O	-0.0370273639	-0.0292356455	-0.117014236	-0.279781
C	-0.0658019062	 1.1557728493	-0.0391136582	 0.314542
C	-1.2429571691	 2.2232578684	 0.2026392047	-0.389903
C	-0.169731047	 2.9539219791	 1.0478279479	 0.025642
C	 0.8957675939	 4.1279966216	 1.0058439241	-0.123293
N	 1.9324258174	 2.9840461733	 1.1097827639	-0.375235
C	 0.9236960886	 2.3380961312	 0.1670157731	 0.1318
C	 0.9303325485	 3.3010290142	-1.0588940678	-0.150363
C	 0.9242777923	 4.5002892223	-0.4778442177	-0.064481
H	-1.5232191924	 2.7124512986	-0.7323437493	 0.136522
H	-2.1264538797	 1.8444957623	 0.7182188046	 0.127922
H	-0.1345698707	 2.5052329819	 2.0432297208	 0.115621
H	 0.9468270639	 4.8988367363	 1.7746470644	 0.083634
H	 2.7924073946	 3.2368486924	 0.6187396988	 0.210133
H	 0.9456999816	 3.0073464832	-2.098439656	 0.118488
H	 0.9343846281	 5.4949119112	-0.8994093273	 0.118752
113.5555	259.0646	315.1289	428.0265	503.676	525.5822	554.072	605.619	663.669	675.401	723.0584	763.8804	808.6483	840.7068	871.1912	904.4058	914.5506	930.8352	987.6787	1018.733	1026.5996	1060.512	1104.0026	1112.3615	1132.5255	1169.0476	1204.3267	1208.9269	1239.9439	1286.7068	1304.6243	1379.6498	1445.7534	1615.0057	1895.2165	3080.3562	3085.7555	3123.5957	3148.9493	3227.3144	3255.4326	3431.596
O=C1CC2C3NC12C=C3	O=C1C[C@@H]2[C@H]3N[C@@]12C=C3	
InChI=1S/C7H7NO/c9-6-3-4-5-1-2-7(4,6)8-5/h1-2,4-5,8H,3H2	InChI=1S/C7H7NO/c9-6-3-4-5-1-2-7(4,6)8-5/h1-2,4-5,8H,3H2/t4-,5+,7-/m1/s1
