17
gdb 50510	3.7698	0.96201	0.86467	1.9283	69.19	-0.2543	-0.0439	0.2105	1312.7195	0.134417	-458.97926	-458.970514	-458.969569	-459.014711	30.334	
O	-0.2214258002	 0.1224909526	-0.1578025017	-0.248006
C	 0.0265558547	 1.2890673018	-0.0041440788	 0.155017
C	 1.4132464064	 1.8937957007	-0.0198498959	-0.075901
C	 1.5112676427	 3.0045221999	-1.1015048203	-0.126426
O	 1.3142477799	 4.2413888034	-0.4279779712	-0.246564
C	 1.9293716664	 4.1141666969	 0.8447187008	 0.012685
C	 1.6997327442	 2.6632955264	 1.3021369515	-0.28186
C	 3.4104057201	 4.4932249433	 0.7510572962	 0.127417
O	 4.2834990022	 4.0161817541	 1.4265727605	-0.227959
H	-0.7854887174	 2.0372307206	 0.1616235596	 0.082896
H	 2.1310843301	 1.0923395076	-0.2016813528	 0.106994
H	 2.5002074252	 2.9669282316	-1.5815281003	 0.112561
H	 0.7497197098	 2.9318335657	-1.8832505443	 0.127744
H	 1.4576420714	 4.8523102481	 1.5063930858	 0.117878
H	 0.8458275311	 2.6079358117	 1.9829969325	 0.117997
H	 2.5758336418	 2.2770264217	 1.8250687407	 0.147593
H	 3.6107124117	 5.278959624	-0.0115194922	 0.097933
24.4937	75.9388	78.4484	156.7915	218.7582	311.5964	343.1668	397.4112	444.168	584.0905	703.2548	737.5479	830.2196	860.322	913.9796	940.2085	950.5527	974.1644	1031.7915	1050.4499	1099.1906	1117.4937	1141.5019	1204.7357	1242.5981	1256.2729	1294.7115	1298.6815	1330.8039	1344.7988	1379.5092	1396.2595	1425.6182	1492.801	1514.0393	1834.6986	1838.7644	2850.0035	2891.2201	2995.8214	3032.4169	3068.0012	3088.8319	3104.4754	3131.5037
O=CC1COC(C1)C=O	O=C[C@H]1CO[C@@H](C1)C=O	
InChI=1S/C6H8O3/c7-2-5-1-6(3-8)9-4-5/h2-3,5-6H,1,4H2	InChI=1S/C6H8O3/c7-2-5-1-6(3-8)9-4-5/h2-3,5-6H,1,4H2/t5-,6-/m0/s1
