21
gdb 38902	2.54761	1.78815	1.49976	1.8119	80.15	-0.259	0.0806	0.3395	995.3476	0.185641	-387.079291	-387.071874	-387.07093	-387.111079	30.169	
C	 0.3442539467	 1.5420515886	 0.5332720436	-0.215989
C	 1.6315029053	 1.5238523618	-0.3356132287	-0.215988
C	 1.2911701517	 0.0846068715	-0.828089002	 0.001961
C	 2.324937489	-1.0118602187	-0.5449632744	-0.268192
C	 2.3713292427	-1.4577060714	 0.8998627649	 0.062739
O	 2.1861787593	-0.459641144	 1.9158799279	-0.259622
C	 1.1554260138	-1.4405137463	 1.720573934	 0.062739
C	-0.1583585059	-0.976751681	 1.1312113821	-0.268193
C	-0.0131616814	 0.1030508473	 0.05231647	 0.001963
H	 0.5341272056	 1.6177482912	 1.6050399736	 0.108707
H	-0.3903997631	 2.3022639814	 0.2550112105	 0.086798
H	 1.6628348579	 2.2732278348	-1.1309260932	 0.086799
H	 2.5558601841	 1.5891828133	 0.2403774969	 0.108706
H	 1.0583319611	 0.0642925952	-1.8963348773	 0.064145
H	 2.1121096364	-1.9056013968	-1.1487032529	 0.099696
H	 3.3182698098	-0.6650130498	-0.8593230792	 0.105837
H	 3.1450576028	-2.188182054	 1.1408770619	 0.084108
H	 1.0754972407	-2.1589190836	 2.5377910416	 0.084108
H	-0.6560008674	-1.8664670211	 0.7197136275	 0.099696
H	-0.8144571114	-0.6065925017	 1.9301802487	 0.105837
H	-0.9171022876	 0.0922382634	-0.5629473356	 0.064144
88.7025	146.7038	288.3889	299.542	351.5045	364.5553	471.6715	610.6096	655.1915	728.4501	730.6483	761.3122	815.7754	822.2635	863.7918	865.4445	949.1824	960.6996	965.3383	1003.5765	1013.1566	1060.2585	1065.5963	1097.3615	1114.0442	1151.6807	1154.6272	1211.449	1233.1063	1237.0054	1246.5499	1272.472	1275.9317	1308.5336	1313.4819	1325.3002	1335.9217	1372.4108	1394.7276	1398.032	1467.677	1471.9607	1474.9764	1489.6522	1497.6832	3004.3753	3006.3088	3038.1657	3040.1613	3046.5621	3058.4935	3058.7577	3071.1679	3090.9118	3103.9207	3112.5991	3128.7554
C1CC2CC3OC3CC12	C1C[C@H]2C[C@H]3O[C@H]3C[C@@H]12	
InChI=1S/C8H12O/c1-2-6-4-8-7(9-8)3-5(1)6/h5-8H,1-4H2	InChI=1S/C8H12O/c1-2-6-4-8-7(9-8)3-5(1)6/h5-8H,1-4H2/t5-,6+,7+,8-
