17
gdb 109029	2.90076	1.44735	1.04655	0.7503	76.77	-0.2198	-0.0519	0.1679	1145.8803	0.136941	-418.029319	-418.020985	-418.020041	-418.062656	30.662	
C	-0.0523298393	 1.4226101338	-0.0162219297	-0.320213
N	-0.0074491235	-0.0167637335	 0.1246886161	-0.351043
C	 0.6770582091	-0.6341642899	 1.1065853723	 0.284025
N	 1.27468963	-0.0843122708	 2.1081759063	-0.317346
C	 1.800917982	-1.1494136789	 2.9456124701	 0.00295
C	 0.7795187371	-1.9747649264	 3.6554966241	-0.282222
C	 1.4348329194	-2.4996827344	 2.3624511765	-0.183947
C	 0.7330350575	-2.1556383799	 1.0965719821	 0.360827
O	 0.3174194092	-2.858349962	 0.2056941102	-0.342406
H	 0.8994951386	 1.8362774295	-0.3754634798	 0.130962
H	-0.8431772585	 1.6933520182	-0.7188570087	 0.127339
H	-0.2664085058	 1.8751330759	 0.9556376802	 0.154243
H	-0.2880123371	-0.6125654108	-0.639064297	 0.260645
H	 2.7684711062	-0.9654943121	 3.3974126573	 0.103674
H	 1.0580357058	-2.510153685	 4.557636826	 0.12602
H	-0.2525632115	-1.6415253279	 3.6170573635	 0.130391
H	 2.0437639708	-3.3917879659	 2.4139928405	 0.116103
82.485	99.342	148.8706	178.6079	229.4087	330.5836	449.2518	452.1028	518.3877	564.5872	613.085	690.3867	788.5804	795.0074	813.1888	847.6043	944.328	971.179	973.9047	1049.2804	1076.0556	1092.7357	1100.9353	1154.0208	1174.2188	1189.7388	1203.5666	1295.6783	1325.9623	1333.573	1453.5558	1477.08	1480.9729	1510.5647	1560.6188	1708.2648	1824.0091	3015.52	3090.238	3126.1773	3134.6458	3183.3231	3210.6007	3220.9575	3627.1439
CNC1=NC2CC2C1=O	CNC1=N[C@H]2C[C@H]2C1=O	
InChI=1S/C6H8N2O/c1-7-6-5(9)3-2-4(3)8-6/h3-4H,2H2,1H3,(H,7,8)	InChI=1S/C6H8N2O/c1-7-6-5(9)3-2-4(3)8-6/h3-4H,2H2,1H3,(H,7,8)/t3-,4+/m1/s1
