19
gdb 81299	2.70689	1.59907	1.29002	4.0731	75.7	-0.2141	0.0299	0.244	1046.1365	0.16187	-419.21465	-419.206895	-419.205951	-419.246591	30.64	
C	-0.1683870248	 1.4092633745	 0.053436545	-0.327679
N	 0.0521149591	-0.028918645	-0.0076836555	-0.103697
C	 0.8524253103	-0.489695112	-1.1952519185	 0.007053
C	 2.1648457306	-0.3281960392	-0.3875829771	-0.245222
C	 1.216312871	-0.5099473732	 0.8242806012	-0.109087
C	 0.9871830786	-2.0043296987	 1.0543951498	 0.431004
O	 1.0661426634	-2.5566254643	 2.1322356408	-0.386903
N	 0.7138783086	-2.6568395468	-0.1194444445	-0.308043
C	 0.5127222508	-1.9670623478	-1.3900310289	-0.157363
H	 0.7328237834	 2.0295801241	-0.0975490728	 0.093656
H	-0.9013836844	 1.6891511644	-0.7104430793	 0.121682
H	-0.5917403118	 1.6632326565	 1.0302078977	 0.129274
H	 0.7105157993	 0.0774147461	-2.1186579903	 0.07416
H	 2.96953254	-1.0526171879	-0.5356684098	 0.111501
H	 2.5670012125	 0.6839106296	-0.4503740081	 0.113211
H	 1.3969625138	 0.0027222551	 1.768618062	 0.088569
H	 0.4934793529	-3.638054351	-0.0408443366	 0.247283
H	-0.5317685327	-2.0529465415	-1.7168624959	 0.115068
H	 1.1534081095	-2.4062766927	-2.1665460494	 0.105532
121.2496	200.2785	212.0437	252.4557	301.009	372.263	425.9077	463.9048	514.2121	538.7646	665.5843	731.2319	788.5136	801.7302	857.4968	887.3143	916.0718	944.6833	992.2965	1020.1121	1084.4548	1089.6829	1108.4953	1140.7058	1168.1947	1177.5795	1205.7361	1241.3729	1250.1953	1284.483	1312.8191	1327.4391	1337.901	1386.958	1451.031	1470.9502	1484.8661	1500.6434	1504.3004	1515.932	1814.364	2947.2001	3006.383	3042.3652	3060.9031	3068.4834	3083.1904	3102.4203	3124.5139	3129.4232	3622.4989
CN1C2CC1C(=O)NC2	CN1[C@H]2C[C@@H]1C(=O)NC2	
InChI=1S/C6H10N2O/c1-8-4-2-5(8)6(9)7-3-4/h4-5H,2-3H2,1H3,(H,7,9)	InChI=1S/C6H10N2O/c1-8-4-2-5(8)6(9)7-3-4/h4-5H,2-3H2,1H3,(H,7,9)/t4-,5+/m0/s1
