13
gdb 49338	2.35113	1.85846	1.04485	3.8697	62.29	-0.2762	-0.0539	0.2224	1035.7855	0.089401	-489.947531	-489.939937	-489.938992	-489.980209	26.92	
N	 0.0645104988	 1.3325151055	 0.0101650711	-0.524013
C	 0.0492522926	 0.0799396782	 0.0036532971	 0.495303
O	 1.1415605892	-0.7472513748	-0.0080216081	-0.249852
C	 0.7485805748	-2.1152787117	-0.0128923238	-0.21837
C	-0.77013578	-2.0925278712	-0.002594625	 0.413467
O	-1.5300626073	-3.0224462453	-0.0028729289	-0.33676
N	-1.1085205596	-0.7321785218	 0.0069568432	-0.219987
C	-2.4622110007	-0.3145234369	 0.0186490104	 0.172837
O	-2.8319265767	 0.8210498862	 0.0277165208	-0.242724
H	 1.0249417204	 1.6737755369	 0.0056188321	 0.242676
H	 1.1248736076	-2.6184534327	-0.90938195	 0.1634
H	 1.13672059	-2.6282147597	 0.872953119	 0.163386
H	-3.1158778589	-1.2007534328	 0.0181379623	 0.140638
78.6329	161.4638	166.1006	211.6513	231.3275	360.7748	460.105	576.5836	580.4671	641.0707	714.8864	717.604	779.3394	846.4968	986.2308	1025.4408	1044.1664	1047.4468	1100.3556	1187.6388	1203.0833	1238.2864	1342.7508	1394.744	1436.9773	1489.364	1786.6327	1851.3776	1884.2117	3029.7159	3053.8146	3099.3376	3514.4195
N=C1OCC(=O)N1C=O	[NH][C]1OCC(=O)N1C=O	
InChI=1S/C4H4N2O3/c5-4-6(2-7)3(8)1-9-4/h2,5H,1H2	InChI=1S/C4H4N2O3/c5-4-6(2-7)3(8)1-9-4/h2,5H,1H2
