18
gdb 61785	2.33005	1.0286	0.94151	5.7469	73.73	-0.2903	-0.0053	0.285	1346.4114	0.144765	-439.129277	-439.119109	-439.118164	-439.165449	34.992	
C	-0.0150453799	 1.6407242194	 0.037887147	-0.408196
C	 0.0137768343	 0.1178158881	 0.0361358428	 0.100097
O	 0.7377590255	-0.3478249766	 1.1854256906	-0.185921
C	 1.9946785838	-0.8070837198	 1.0109865415	 0.174864
O	 2.6766302887	-1.1810681399	 1.9143429626	-0.265043
C	-1.3870635368	-0.5359784797	 0.0609688449	-0.142403
C	-1.3212484314	-2.0744045039	 0.0451810099	-0.408599
C	-2.1782343786	-0.0596372377	 1.2019048495	 0.292686
N	-2.8163677609	 0.3124105515	 2.0902863337	-0.322875
H	 1.0019778194	 2.0377831111	-0.0175478396	 0.132302
H	-0.5771227243	 2.0145032665	-0.823502434	 0.127637
H	-0.4841298881	 2.0145043758	 0.9514179889	 0.166344
H	 0.5160630377	-0.2470628586	-0.8707162377	 0.094592
H	 2.3088150094	-0.8004722531	-0.0517784542	 0.07994
H	-1.9018794505	-0.1935142037	-0.8458323088	 0.133534
H	-0.770895686	-2.4141537466	-0.8374128754	 0.123675
H	-0.8174888043	-2.4467784986	 0.9389524481	 0.162732
H	-2.3256061878	-2.5015017844	 0.0099223702	 0.144634
41.6697	56.4866	132.1509	151.5843	204.6018	220.2214	231.9869	244.4534	289.1031	354.4803	403.4993	480.8852	575.5518	599.8862	693.9256	782.5141	891.9163	944.7746	1003.3536	1036.9192	1042.0811	1064.5312	1108.8891	1148.8023	1177.2744	1191.2323	1306.8396	1321.5196	1362.2873	1381.4584	1411.3409	1416.7756	1439.2753	1485.8188	1491.7797	1497.4044	1505.2302	1872.0826	2361.0392	2939.1238	3010.1498	3036.9913	3048.3383	3052.3405	3121.2822	3127.1742	3135.5498	3148.0589
CC(OC=O)C(C)C#N	C[C@@H](OC=O)[C@@H](C)C#N	
InChI=1S/C6H9NO2/c1-5(3-7)6(2)9-4-8/h4-6H,1-2H3	InChI=1S/C6H9NO2/c1-5(3-7)6(2)9-4-8/h4-6H,1-2H3/t5-,6+/m0/s1
