19
gdb 117516	2.25954	1.0944	0.81214	3.2665	79.32	-0.2449	-0.0194	0.2255	1473.5212	0.153745	-422.997779	-422.986788	-422.985844	-423.035403	37.651	
C	-0.0130455773	 1.5198676721	-0.0297833049	-0.384356
C	-0.1350468776	 0.008850297	-0.114585061	-0.040822
O	 0.8417976017	-0.4579483818	-1.0354899427	-0.222701
C	 0.8712740081	-1.849013555	-1.1875179784	-0.119962
C	-0.32631152	-2.3897659427	-1.8462235542	 0.326515
C	-1.3016354974	-2.8176382176	-2.404467173	-0.48894
C	 2.1387089427	-2.2229716985	-2.0119090559	 0.363984
C	 2.4487417411	-3.7041918498	-2.0838412352	-0.487587
O	 2.8179781687	-1.3746954908	-2.5217308806	-0.266926
H	 0.9874268876	 1.8073948625	 0.3048009603	 0.130591
H	-0.1899311894	 1.9727608031	-1.0090627802	 0.133783
H	-0.7466843722	 1.9190801715	 0.6769508624	 0.114959
H	 0.0330371135	-0.453412224	 0.8727771446	 0.085643
H	-1.1410059018	-0.2851793868	-0.4473380947	 0.103519
H	 0.9754550969	-2.3460579621	-0.2039850048	 0.100258
H	-2.1654608315	-3.1946211495	-2.8947713699	 0.206739
H	 1.5649841171	-4.2758047241	-2.3799885208	 0.154172
H	 3.2634497809	-3.871932152	-2.7887729249	 0.147797
H	 2.7512995291	-4.0637486113	-1.0929057858	 0.143333
30.5606	67.691	86.6231	98.0121	129.4101	142.0638	227.47	251.0508	306.1325	336.7666	406.7011	424.0215	557.6184	583.7108	622.0763	640.0729	683.1362	816.9519	824.7648	884.2247	955.168	979.464	1041.5881	1062.3279	1144.9018	1155.7204	1183.874	1188.2956	1277.9687	1297.2674	1337.6395	1381.1723	1402.2953	1433.7869	1465.0541	1473.9157	1482.6378	1499.9563	1527.5389	1848.1022	2223.4374	2920.4604	2964.0221	3016.412	3040.7352	3047.0658	3110.3195	3121.3307	3126.3244	3158.6577	3499.8544
CCOC(C#C)C(C)=O	CCO[C@@H](C#C)C(=O)C	
InChI=1S/C7H10O2/c1-4-7(6(3)8)9-5-2/h1,7H,5H2,2-3H3	InChI=1S/C7H10O2/c1-4-7(6(3)8)9-5-2/h1,7H,5H2,2-3H3/t7-/m0/s1
