17
gdb 83177	2.96914	1.44699	1.25385	3.5878	68.42	-0.2506	0.0022	0.2528	1044.552	0.136109	-458.972568	-458.964636	-458.963692	-459.005327	29.656	
C	-0.4862990047	 1.4151858169	 0.1003162023	-0.401722
C	-0.0699540424	-0.0326583111	-0.0206331457	-0.079239
C	 0.7229424455	-0.5304192073	-1.2112427866	 0.041099
O	 1.177372618	 0.4230135109	-2.1249534708	-0.238783
C	 2.5905370199	 0.5316783757	-2.092942557	-0.226624
C	 3.1197959286	 0.9146310694	-0.7148940127	 0.405377
O	 4.1243179652	 1.5424101479	-0.5404127362	-0.314164
O	 2.3574377707	 0.5278579909	 0.3424349159	-0.215098
C	 1.3680653647	-0.4638214846	 0.1443687424	 0.043382
H	 0.2491942879	 2.0812001063	-0.3515079828	 0.136624
H	-1.4425193126	 1.5798988216	-0.4054017649	 0.125878
H	-0.6029358465	 1.6963630257	 1.1511966328	 0.127407
H	-0.7867173229	-0.7514232525	 0.3682091648	 0.098052
H	 0.4917029845	-1.4995418398	-1.6513022769	 0.099906
H	 3.0753883522	-0.4033118101	-2.4137885418	 0.128071
H	 2.8780371457	 1.3212388899	-2.7883230627	 0.15362
H	 1.6041514862	-1.3691534899	 0.6936981199	 0.116214
85.4024	125.8302	153.5414	204.9992	281.4414	412.6779	436.9747	491.3785	540.4886	605.2989	620.5202	754.5263	773.7402	812.6604	837.2283	915.546	974.9663	1014.6878	1038.1277	1064.1889	1108.9237	1116.6344	1148.2842	1165.2227	1179.5353	1213.786	1252.4585	1286.1624	1344.4674	1370.2486	1380.5203	1418.8177	1435.7459	1475.3346	1491.001	1499.6056	1865.5536	2994.4555	3049.0869	3108.45	3108.9196	3133.0582	3138.3033	3152.4371	3163.6937
CC1C2OCC(=O)OC12	C[C@H]1[C@H]2OCC(=O)O[C@@H]12	
InChI=1S/C6H8O3/c1-3-5-6(3)9-4(7)2-8-5/h3,5-6H,2H2,1H3	InChI=1S/C6H8O3/c1-3-5-6(3)9-4(7)2-8-5/h3,5-6H,2H2,1H3/t3-,5+,6-/m0/s1
