18
gdb 52044	2.6301	1.12983	0.89353	3.3761	80.81	-0.252	0.0258	0.2778	1329.7897	0.145583	-401.894509	-401.885058	-401.884114	-401.929569	34.357	
N	-0.3725037356	 1.1843636094	-0.3049904773	-0.444915
C	-0.6020885259	 0.0700238507	 0.2399724953	 0.135581
O	-0.5637587055	-1.058714976	-0.4991218342	-0.178207
C	-0.9068772351	-2.2799885488	 0.1466968518	-0.163706
C	-2.3732563682	-2.6378226571	-0.0324375383	 0.159041
C	-2.7982455734	-3.1748282529	-1.3903436288	-0.279468
C	-2.7086268784	-4.112938463	-0.2254756102	-0.300769
C	-3.3015439513	-1.8203182639	 0.70117966	 0.262558
C	-4.0585297044	-1.1273505898	 1.3293205345	-0.460825
H	-0.4211692801	 1.9246269738	 0.3918612591	 0.227344
H	-0.8298468064	-0.1088468443	 1.2987515546	 0.091619
H	-0.2837587609	-3.0486381829	-0.3191627328	 0.115137
H	-0.6538288515	-2.2318080582	 1.2134975978	 0.114667
H	-3.7800644052	-2.8894546195	-1.746852084	 0.135555
H	-2.0322276282	-3.2186702772	-2.1564098847	 0.133238
H	-1.8833763237	-4.8162339213	-0.1860523502	 0.121919
H	-3.6274407205	-4.4689454999	 0.2238265006	 0.133515
H	-4.7358722255	-0.5154116592	 1.8717503567	 0.197718
51.7786	62.6887	140.2198	151.283	204.4319	248.7571	276.7766	382.5535	402.6849	534.2786	547.4777	588.5392	655.8064	658.8075	705.7584	785.0239	816.0879	885.1628	926.8115	942.8481	957.8094	993.5828	1039.2759	1050.0179	1070.5222	1089.4961	1134.729	1192.7891	1241.1127	1290.1058	1313.0828	1364.5914	1403.0495	1426.8867	1467.9627	1490.7213	1500.435	1744.2925	2233.0081	3023.451	3038.7129	3092.6563	3139.6719	3147.3476	3227.3446	3242.1824	3502.5499	3518.2502
N=COCC1(CC1)C#C	[NH][CH]OCC1(CC1)C#C	
InChI=1S/C7H9NO/c1-2-7(3-4-7)5-9-6-8/h1,6,8H,3-5H2	InChI=1S/C7H9NO/c1-2-7(3-4-7)5-9-6-8/h1,6,8H,3-5H2
