17
gdb 33569	2.17408	1.58746	1.19032	1.9113	80.14	-0.2529	0.0143	0.2672	1106.4625	0.133731	-384.616764	-384.607843	-384.606898	-384.650727	33.429	
C	 0.2153811084	-1.0885228878	 0.097399695	-0.489951
C	 0.0827778851	 0.1029116536	 0.0184554548	 0.356849
C	-0.0711033754	 1.5687556258	-0.0379533865	 0.017982
C	-0.729967477	 2.1040684399	 1.2664448009	-0.251113
C	 0.4848317926	 2.2599222516	 2.1846112226	-0.246018
C	 1.5558859882	 2.7463478026	 1.2031305095	-0.064688
O	 1.2264884473	 2.1882019085	-0.0758335719	-0.28355
C	-0.8241165145	 1.9490415623	-1.2374464755	 0.295317
C	-1.464547263	 2.2695294742	-2.2012539906	-0.426293
H	 0.3357843307	-2.1425972429	 0.1486559238	 0.200888
H	-1.1882290349	 3.072725907	 1.0492026816	 0.120475
H	-1.4971934334	 1.4265437092	 1.641878748	 0.125067
H	 0.3146354419	 2.9621441243	 3.0038697128	 0.108697
H	 0.7634683821	 1.2924596735	 2.6122592534	 0.122907
H	 1.5554861553	 3.8419727232	 1.1211888423	 0.103326
H	 2.5661978544	 2.4231342405	 1.4734113765	 0.112316
H	-2.0201319279	 2.5470329945	-3.0628404166	 0.197791
44.1294	125.2102	149.1094	168.0221	215.4474	278.196	452.0797	478.4347	505.3654	560.212	571.663	615.8541	633.6603	640.3124	656.8004	663.906	736.4466	874.6314	876.3104	932.2274	961.9448	985.1315	1034.3836	1061.6222	1118.5659	1178.3913	1201.87	1218.3391	1262.3685	1318.3458	1343.3743	1385.6167	1481.4924	1492.3288	1528.5626	2233.8166	2243.2595	3008.9994	3060.5757	3071.422	3074.565	3116.177	3139.635	3500.5786	3501.8143
C#CC1(CCCO1)C#C	C#CC1(CCCO1)C#C	
InChI=1S/C8H8O/c1-3-8(4-2)6-5-7-9-8/h1-2H,5-7H2	InChI=1S/C8H8O/c1-3-8(4-2)6-5-7-9-8/h1-2H,5-7H2
