20
gdb 62178	4.90936	0.56817	0.52474	3.5394	86.48	-0.2693	0.0322	0.3015	2024.6716	0.168631	-366.004451	-365.993895	-365.992951	-366.041011	37.378	
C	 0.1340232132	 1.5928513549	-0.0228695002	-0.388454
C	 0.02374961	 0.0542900052	-0.0398558377	-0.16864
C	-1.4394438224	-0.449157651	 0.0269207989	-0.181427
C	-2.163119674	-0.0908605259	 1.3284022884	-0.193651
C	-3.5758302713	-0.7079384553	 1.3761147122	-0.345453
C	-4.2928367042	-0.374742726	 2.6051163699	 0.257324
N	-4.8430782777	-0.0998041322	 3.5833785082	-0.303364
C	 0.6848218078	-0.4943342214	-1.2236093418	 0.315079
C	 1.2088311143	-0.9369657798	-2.2109366538	-0.455602
H	 1.1789124778	 1.9019381285	-0.1033458751	 0.132137
H	-0.4123893605	 2.0267004889	-0.8660854079	 0.126874
H	-0.2714516079	 2.0068862205	 0.9041063348	 0.121101
H	 0.5476863414	-0.3323378766	 0.8463873194	 0.108676
H	-1.9901654396	-0.0456683739	-0.8323406235	 0.110588
H	-1.4325524202	-1.5385620157	-0.0956387181	 0.112087
H	-1.5887750451	-0.4501744235	 2.1902689772	 0.121701
H	-2.2515241764	 0.9939650182	 1.4408870748	 0.127014
H	-4.1701312	-0.3608905115	 0.5225846814	 0.153848
H	-3.5171457105	-1.7995134176	 1.2928491932	 0.153783
H	 1.6827672653	-1.331690356	-3.0752688004	 0.19638
44.7195	81.8341	86.7934	122.5358	149.0227	204.4349	248.7272	295.1712	301.189	386.2364	399.6693	519.5716	535.9808	577.9956	631.1223	640.1169	741.2095	807.8183	848.8362	919.1726	954.1357	987.6564	1016.8105	1052.2649	1088.0293	1118.835	1143.1837	1206.4715	1256.0326	1293.5748	1322.6649	1327.784	1345.6836	1366.6791	1395.2456	1410.4216	1468.509	1481.8677	1495.2652	1501.438	1505.1233	2235.3436	2362.8967	2999.7361	3026.2322	3036.7599	3045.0331	3047.8918	3062.8644	3073.5607	3100.2669	3118.6885	3126.3377	3505.2234
CC(CCCC#N)C#C	C[C@@H](CCCC#N)C#C	
InChI=1S/C8H11N/c1-3-8(2)6-4-5-7-9/h1,8H,4-6H2,2H3	InChI=1S/C8H11N/c1-3-8(2)6-4-5-7-9/h1,8H,4-6H2,2H3/t8-/m1/s1
