16
gdb 84468	4.04532	1.19032	1.04983	4.5683	75.	-0.256	-0.0163	0.2397	1121.6163	0.125073	-400.752027	-400.744199	-400.743254	-400.784286	29.986	
O	-0.0718701252	 1.4675122681	-0.0322329422	-0.427363
C	 0.0193859701	 0.0460542795	 0.0122917558	 0.050901
C	 0.6502058146	-0.4785974352	 1.2946406974	-0.112784
C	-0.1579145316	-1.2957872977	 1.9657069657	-0.149046
C	-1.4835073814	-1.4382719707	 1.2755881046	 0.164824
C	-2.2873170023	-0.1401403921	 1.1674149055	-0.294714
C	-1.3892531486	-0.5444425199	 0.0390725707	-0.081835
C	-2.1639982274	-2.6997896791	 1.2633622378	 0.196946
N	-2.7113884194	-3.7193495297	 1.266564963	-0.34611
H	 0.8204184839	 1.8222506317	-0.1010190795	 0.287591
H	 0.5651411632	-0.3195016664	-0.8713761111	 0.084192
H	 1.6355053028	-0.1631154444	 1.6197665455	 0.105889
H	 0.0533807017	-1.7876375608	 2.9073035413	 0.123214
H	-3.3548066408	-0.2380634252	 1.006274629	 0.138845
H	-1.981189586	 0.6738486315	 1.8129288218	 0.142842
H	-1.8435759236	-0.8612612095	-0.890329385	 0.116608
107.4802	143.1967	189.5664	249.8254	284.1828	386.5881	441.9986	490.0329	556.1263	580.146	608.0024	719.4329	754.5384	792.6535	851.9511	909.461	955.5321	958.8357	963.7118	996.7205	1033.5198	1072.7815	1084.6893	1100.6262	1138.2079	1220.3513	1251.297	1259.9043	1333.8251	1342.6444	1394.7894	1420.5989	1476.9899	1678.7686	2350.9432	2977.5358	3146.6275	3190.4573	3204.2877	3218.909	3244.5187	3818.259
OC1C=CC2(CC12)C#N	O[C@H]1C=C[C@]2(C[C@@H]12)C#N	
InChI=1S/C7H7NO/c8-4-7-2-1-6(9)5(7)3-7/h1-2,5-6,9H,3H2	InChI=1S/C7H7NO/c8-4-7-2-1-6(9)5(7)3-7/h1-2,5-6,9H,3H2/t5-,6-,7-/m0/s1
