17
gdb 9532	2.75091	1.94825	1.6088	2.5685	65.15	-0.2308	0.028	0.2588	891.0489	0.140705	-401.009948	-401.001264	-401.00032	-401.042986	30.955	
C	-0.1200192474	 1.3865627247	 0.0262770506	-0.261773
O	 0.1550023116	-0.0083943478	 0.051015727	-0.289035
C	 0.7414445811	-0.5300631195	-1.1187213294	 0.269286
C	 2.1376265426	 0.0072456489	-1.4041911142	-0.460834
C	 0.5859687942	-2.0826012917	-1.1337408816	-0.205293
N	-0.2354780455	-1.9265214941	-2.3388285243	-0.329623
C	-0.2245053036	-0.5569263629	-2.3564140064	 0.390475
O	-0.7682175828	 0.2650475799	-3.0482502532	-0.372698
H	 0.7983956837	 1.9878129292	 0.065961256	 0.10888
H	-0.6930397813	 1.6683686555	-0.8638331752	 0.146726
H	-0.710645544	 1.5967882297	 0.9207745397	 0.127215
H	 2.7756499118	-0.1117562954	-0.5226652144	 0.126388
H	 2.5907474235	-0.5306638139	-2.2420470449	 0.126385
H	 2.1041584952	 1.0665376959	-1.6723248744	 0.137669
H	 1.5068613606	-2.6529922599	-1.2868341651	 0.109891
H	 0.0432970021	-2.4550750639	-0.2612797818	 0.124669
H	-0.7748213617	-2.5927747747	-2.8717786582	 0.251672
97.6147	116.6358	150.6745	198.0346	218.4759	264.047	298.0979	336.2234	423.3595	481.6089	552.7502	698.1838	742.9253	770.0986	887.7812	912.8412	955.2193	998.9405	1091.348	1134.2407	1154.1935	1180.6134	1183.7052	1201.9726	1243.7227	1261.5784	1299.5901	1390.6469	1404.2491	1474.1391	1482.2997	1488.1824	1501.89	1514.067	1520.1767	1880.4471	3006.4548	3040.7306	3049.866	3078.5273	3107.4962	3115.1482	3120.5645	3125.1683	3607.8473
COC1(C)CNC1=O	CO[C@@]1(C)CNC1=O	
InChI=1S/C5H9NO2/c1-5(8-2)3-6-4(5)7/h3H2,1-2H3,(H,6,7)	InChI=1S/C5H9NO2/c1-5(8-2)3-6-4(5)7/h3H2,1-2H3,(H,6,7)/t5-/m0/s1
