14
gdb 55667	2.74525	0.98825	0.84179	6.1217	64.73	-0.2761	-0.0509	0.2251	1339.0922	0.099292	-470.052978	-470.043593	-470.042649	-470.088357	32.216	
N	-0.0395810956	 1.3924769861	-0.2693886595	-0.567612
C	 0.0287435687	 0.0730515689	 0.1051861797	 0.489592
O	 1.003773737	-0.4331039657	 0.6239656673	-0.374148
N	-1.1312878539	-0.6545358339	-0.168911782	-0.365262
C	-1.0761445411	-2.0982469238	-0.047636048	-0.213109
C	-2.1715965443	-2.5985700198	 0.9102558845	 0.165516
O	-2.8420200705	-3.5745621773	 0.7379347178	-0.216109
C	-1.1135988189	-2.7821059786	-1.3450206637	 0.289436
N	-1.1590282867	-3.2807740099	-2.3853896624	-0.306938
H	 0.702451763	 1.9661522694	 0.0988326336	 0.275257
H	-0.9367171394	 1.8425938109	-0.3563697941	 0.260109
H	-1.7700884664	-0.2876590334	-0.8587390969	 0.26119
H	-0.1104755277	-2.3036143783	 0.4418073601	 0.195907
H	-2.2683109043	-1.9394162145	 1.7993003937	 0.106171
50.2195	70.293	94.5381	146.3256	192.0527	278.0795	340.9815	370.136	392.5534	448.5249	480.1835	537.5513	575.9062	635.0209	723.3915	770.2136	817.7647	955.6716	1024.4286	1075.8734	1107.9799	1164.3349	1261.4053	1299.5281	1352.6331	1403.7305	1514.852	1629.1342	1810.0164	1853.5079	2367.6797	2915.5428	3005.0679	3592.2278	3615.6682	3711.1196
NC(=O)NC(C=O)C#N	NC(=O)N[C@@H](C=O)C#N	
InChI=1S/C4H5N3O2/c5-1-3(2-8)7-4(6)9/h2-3H,(H3,6,7,9)	InChI=1S/C4H5N3O2/c5-1-3(2-8)7-4(6)9/h2-3H,(H3,6,7,9)/t3-/m1/s1
