16
gdb 25874	4.26774	1.01122	0.82169	4.0736	74.51	-0.2019	-0.0203	0.1816	1328.8297	0.123881	-437.946376	-437.937607	-437.936662	-437.980085	32.119	
C	-0.0198502125	 1.4868855901	 0.0529928293	-0.493367
C	 0.0202366855	-0.0342465453	-0.0069368984	 0.300813
O	 1.0800500227	-0.6322972891	-0.0526377635	-0.328013
C	-1.2610124161	-0.7518976202	-0.0083453989	 0.202307
C	-2.5333416186	-0.2161950997	 0.0392351053	-0.179321
N	-3.4236849333	-1.2590437974	 0.0167096967	-0.301294
C	-2.7358902223	-2.4462504536	-0.044290196	 0.414076
O	-3.4749786077	-3.5812805294	-0.0735630692	-0.432901
C	-1.3950765161	-2.1820428323	-0.0617913501	-0.414725
H	 1.0007835279	 1.8707182211	 0.0496680176	 0.136912
H	-0.5649057562	 1.8946559796	-0.8051831156	 0.1319
H	-0.533851582	 1.8265034695	 0.9586457505	 0.13171
H	-2.8761496376	 0.8039520449	 0.0864559762	 0.130885
H	-4.4271077008	-1.1914083244	 0.0401735756	 0.271013
H	-2.876150471	-4.3330966629	-0.1151482378	 0.312654
H	-0.580709752	-2.8864591909	-0.1064348014	 0.117351
74.2932	112.1037	149.7405	164.2628	248.0763	320.0993	336.5786	417.6191	482.2922	516.7746	569.9578	601.9519	656.1925	685.3896	713.1463	719.5023	800.3238	928.448	979.8657	1001.833	1043.046	1094.8217	1130.3505	1159.8314	1229.799	1287.8327	1361.5921	1385.6121	1426.6102	1470.8967	1477.4769	1510.9263	1563.7994	1641.5169	1761.752	3037.9682	3100.3255	3152.0549	3268.1657	3274.0046	3673.0638	3847.7345
CC(=O)C1=CNC(O)=C1	CC(=O)c1c[nH]c(O)c1	
InChI=1S/C6H7NO2/c1-4(8)5-2-6(9)7-3-5/h2-3,7,9H,1H3	InChI=1S/C6H7NO2/c1-4(8)5-2-6(9)7-3-5/h2-3,7,9H,1H3
