14
gdb 13589	3.94381	1.42355	1.24823	1.5595	61.35	-0.2537	-0.0993	0.1544	963.1281	0.10515	-419.678947	-419.671292	-419.670348	-419.711304	27.643	
O	-0.0298114705	 1.4666109653	 0.1100191453	-0.407628
C	-0.097188301	 0.1144851459	-0.1199831442	 0.156825
C	-0.3305720979	-0.8730880983	 0.9512237714	-0.326841
C	-1.4735485041	-0.6395007646	-0.0484714319	-0.204041
C	-2.5979362285	 0.1826536714	 0.3747338658	 0.313316
O	-2.5260443019	 1.1018019325	 1.1825562771	-0.360255
C	-3.9609284596	-0.0832593672	-0.2715103409	 0.09974
O	-4.162011136	-0.9494615363	-1.0808092239	-0.219236
H	-0.7065141372	 1.6907893666	 0.7712385611	 0.308488
H	 0.5199342711	-0.1670108339	-0.9665475471	 0.129718
H	 0.1538471199	-1.8416453733	 0.8991182461	 0.133674
H	-0.5041736344	-0.4888451996	 1.9515932567	 0.140761
H	-1.6888159999	-1.4003047935	-0.7870279065	 0.125639
H	-4.7461384201	 0.611210565	 0.0934757509	 0.109839
70.9184	144.8045	186.5598	199.8649	267.5109	422.2596	461.6806	533.7264	539.0892	639.6256	657.9018	683.6126	785.5225	841.2179	903.0445	1009.2945	1037.6077	1062.594	1083.4833	1112.2668	1137.8313	1175.3557	1237.1971	1361.1333	1365.3469	1416.7883	1450.1379	1482.5003	1729.7896	1824.5125	2931.7662	3131.0601	3178.6739	3208.8087	3228.2211	3653.7833
OC1CC1C(=O)C=O	O[C@H]1C[C@H]1C(=O)C=O	
InChI=1S/C5H6O3/c6-2-5(8)3-1-4(3)7/h2-4,7H,1H2	InChI=1S/C5H6O3/c6-2-5(8)3-1-4(3)7/h2-4,7H,1H2/t3-,4+/m1/s1
