17
gdb 82928	2.5249	1.94487	1.473	3.5464	66.66	-0.2196	0.0584	0.278	921.7551	0.135698	-458.911387	-458.903766	-458.902822	-458.943005	30.648	
O	 0.0248191224	 1.4060074165	 0.111878432	-0.423589
C	-0.0727692526	 0.0201998482	 0.0408459999	 0.068486
C	-0.5333264755	-0.7795896638	 1.2407775511	 0.074226
O	-1.0888174989	-0.1012540857	 2.343647731	-0.250622
C	-2.2527024825	 0.5506924993	 1.9037082822	 0.074413
C	-3.47195925	-0.2812187044	 1.5352163466	-0.384071
C	-2.5359235263	 0.2543188653	 0.4712138175	 0.343115
O	-2.915943757	 1.3053822733	-0.3777846956	-0.47615
C	-1.4289991288	-0.6631700745	 0.02342391	-0.257671
H	-0.7346706706	 1.7804577608	-0.3518761597	 0.299384
H	 0.7046503854	-0.4522209055	-0.5594247375	 0.093116
H	-0.0223485622	-1.692006123	 1.5247679537	 0.105026
H	-2.3861722434	 1.5422186798	 2.3183342426	 0.11841
H	-3.4751177528	-1.3455038256	 1.744108362	 0.121248
H	-4.4264616793	 0.223933586	 1.6391805037	 0.120685
H	-3.4472447479	 0.9397960219	-1.0944631837	 0.286647
H	-1.63802262	-1.4886539685	-0.6509756457	 0.087345
144.7425	162.7351	254.7813	294.8675	348.2126	381.1267	426.6173	440.8122	571.3982	582.6855	629.1564	725.943	766.1284	781.7473	832.7308	853.6013	906.0601	955.8007	985.0219	1010.048	1019.6625	1056.4648	1071.1765	1077.1129	1102.4024	1109.3125	1157.1692	1211.4956	1230.9343	1240.9198	1303.9077	1339.5111	1369.5662	1377.9019	1401.6976	1421.1132	1474.9264	3102.9896	3131.0819	3142.7682	3184.5611	3195.9719	3228.4655	3770.4238	3788.74
OC1C2OC3CC3(O)C12	O[C@H]1[C@H]2O[C@@H]3C[C@]3(O)[C@@H]12	
InChI=1S/C6H8O3/c7-4-3-5(4)9-2-1-6(2,3)8/h2-5,7-8H,1H2	InChI=1S/C6H8O3/c7-4-3-5(4)9-2-1-6(2,3)8/h2-5,7-8H,1H2/t2-,3+,4-,5+,6-/m1/s1
