21
gdb 91924	2.37724	1.44829	1.00747	1.8749	77.68	-0.2522	0.0671	0.3194	1209.3789	0.183884	-424.221354	-424.212716	-424.211771	-424.254235	34.305	
O	-0.1238608635	 1.4591841949	-0.0331139226	-0.440174
C	 0.020202417	 0.0444608778	-0.0136264149	 0.13169
C	-1.3924072981	-0.5422572395	 0.0295309037	-0.218424
C	-1.4257813048	-2.0520227514	-0.2035836097	-0.048704
C	-1.4725468582	-2.6004908704	-1.6091209109	-0.277807
C	-0.2213629255	-2.76812532	-0.7896528066	-0.003649
C	 1.0355679355	-1.9932293408	-1.1158594198	 0.104336
O	 1.5811757326	-2.5384009277	-2.3154421616	-0.438581
C	 0.7868178226	-0.4827458913	-1.2307416477	-0.274671
H	 0.7563524069	 1.8484387734	-0.0411561883	 0.277386
H	 0.5598827212	-0.2672599321	 0.8976375808	 0.06114
H	-1.8441764799	-0.3017292437	 0.9962624196	 0.104164
H	-1.9864064136	-0.0173845565	-0.7281856492	 0.110702
H	-1.9820000232	-2.6134464082	 0.5400178607	 0.083499
H	-2.07006292	-3.4837041089	-1.8058602535	 0.10808
H	-1.458257756	-1.8877113197	-2.4272434152	 0.115935
H	-0.0266718863	-3.7712411649	-0.4230175671	 0.085004
H	 1.7438719858	-2.1535595652	-0.2846537736	 0.060987
H	 2.4216553682	-2.0988466829	-2.4824828498	 0.275969
H	 0.2274912675	-0.2605458745	-2.1467151036	 0.112502
H	 1.7538596616	 0.0334892316	-1.3154209708	 0.070618
99.0927	162.9661	213.6066	270.2587	273.3025	308.3178	352.89	410.9543	425.1039	431.7311	479.8159	588.4545	629.2182	760.1583	819.9865	861.0704	876.5211	910.6462	933.4517	991.1941	1012.5208	1049.8921	1058.9234	1067.3555	1086.9031	1109.2031	1119.2546	1133.5651	1159.5824	1191.0144	1222.3255	1236.7071	1263.931	1279.5616	1296.7607	1332.8734	1368.2893	1380.1042	1400.1294	1419.4026	1434.1803	1444.495	1489.783	1491.2102	1508.6444	2939.1924	2948.9709	3005.9858	3037.4146	3069.6041	3084.6548	3132.5769	3147.0514	3157.468	3215.4969	3806.6408	3815.1568
OC1CC2CC2C(O)C1	O[C@H]1C[C@H]2C[C@H]2[C@@H](O)C1	
InChI=1S/C7H12O2/c8-5-1-4-2-6(4)7(9)3-5/h4-9H,1-3H2	InChI=1S/C7H12O2/c8-5-1-4-2-6(4)7(9)3-5/h4-9H,1-3H2/t4-,5-,6+,7-/m0/s1
