16
gdb 32045	3.79102	1.2268	0.93231	2.272	77.6	-0.2096	-0.0236	0.186	1211.6543	0.126991	-434.118491	-434.110608	-434.109664	-434.151097	29.324	
C	 0.0558843997	 1.3656052348	 0.0067174895	-0.232786
O	-0.0495428042	-0.0640329456	 0.0038249253	-0.26071
C	-1.2846254056	-0.5679375863	 0.0115778203	 0.555308
N	-2.3444611426	 0.179832192	 0.0214666135	-0.407295
C	-3.536885726	-0.5101014357	 0.0283490357	 0.000534
C	-3.6549720019	-1.8598624559	 0.0255243548	-0.194552
C	-2.4683263066	-2.6944402106	 0.0144735884	 0.361555
N	-2.3281018858	-3.9678841652	 0.0099854113	-0.566361
N	-1.2915242968	-1.9214937959	 0.0078729041	-0.384496
H	 1.1258494724	 1.5732943805	-0.0017522975	 0.13702
H	-0.4272586301	 1.788535206	-0.8767615731	 0.147272
H	-0.4121768551	 1.7837995835	 0.9005319557	 0.14721
H	-4.4225965464	 0.1189592859	 0.0366130216	 0.113869
H	-4.6251308463	-2.3405446606	 0.0313799302	 0.099492
H	-3.2406968635	-4.4192727343	 0.0155138012	 0.213333
H	-0.4155293012	-2.4262994026	 9.3993*^-6	 0.270608
98.7069	148.1489	172.2796	227.9758	228.1284	385.5243	420.3617	499.2203	540.2189	639.811	657.2057	717.3676	769.885	779.5419	790.8918	843.8203	937.1761	998.8302	999.3161	1068.3506	1096.3784	1155.6768	1181.5218	1206.8535	1295.842	1314.365	1350.6805	1439.7294	1461.6716	1478.1889	1498.0716	1525.867	1603.7643	1641.7733	1720.2765	3057.3246	3136.4618	3162.6092	3169.3877	3213.5437	3505.035	3604.8691
COC1=NC=CC(=N)N1	COC1=NCC=C([NH])N1	
InChI=1S/C5H7N3O/c1-9-5-7-3-2-4(6)8-5/h2-3H,1H3,(H2,6,7,8)	InChI=1S/C5H8N3O/c1-9-5-7-3-2-4(6)8-5/h2,6H,3H2,1H3,(H,7,8)
