18
gdb 85664	2.18027	1.50305	1.06684	4.3908	78.75	-0.2579	-0.005	0.2529	1186.964	0.146509	-401.975459	-401.966365	-401.965421	-402.009662	33.006	
C	 0.348489279	 1.4609870005	-0.2589425172	-0.389511
C	 0.0022295048	 0.0043253033	 0.0471960494	 0.080018
O	 0.4232963591	-0.8499321217	-1.0369901698	-0.270295
C	 1.3702645328	-1.7945469599	-0.5771378312	-0.103477
C	 2.6746900978	-1.6103518347	-1.2559623465	 0.273732
N	 3.7047066355	-1.4807757082	-1.7634334968	-0.329691
C	 1.4842617136	-1.5834865433	 0.9262470277	 0.308724
C	 2.3674205184	-2.4340808561	 1.776535959	-0.500521
C	 0.6931552905	-0.567027898	 1.2527499436	-0.211628
H	 1.4311099957	 1.5898541551	-0.3442598178	 0.131753
H	-0.116022953	 1.7669309602	-1.2001702248	 0.133201
H	-0.0217117544	 2.1162448426	 0.5365428819	 0.116369
H	-1.0908293972	-0.0932369681	 0.1313734277	 0.093575
H	 1.0230315274	-2.8114969663	-0.8196144586	 0.127501
H	 3.4091448961	-2.3780325615	 1.4395723087	 0.156042
H	 2.3270131741	-2.1238522412	 2.8230881955	 0.135633
H	 2.0730586506	-3.4895257777	 1.7209486053	 0.135818
H	 0.5493506392	-0.1705421151	 2.250400314	 0.112755
49.7275	134.0984	137.2825	182.8426	231.8543	243.5516	295.7054	361.7816	402.2949	481.2233	510.1723	596.374	630.812	737.8818	835.129	848.2807	895.606	923.4106	980.4419	1012.6742	1026.9119	1069.2403	1081.3774	1103.4742	1131.6438	1206.7466	1267.82	1314.107	1340.8838	1351.6188	1371.4567	1403.4122	1418.3789	1478.9428	1486.2339	1489.1857	1493.6116	1739.6202	2353.4321	2979.4518	2987.551	3026.643	3040.3661	3077.7793	3114.5389	3124.7093	3127.1231	3212.738
CC1OC(C#N)C(C)=C1	C[C@H]1O[C@@H](C#N)C(=C1)C	
InChI=1S/C7H9NO/c1-5-3-6(2)9-7(5)4-8/h3,6-7H,1-2H3	InChI=1S/C7H9NO/c1-5-3-6(2)9-7(5)4-8/h3,6-7H,1-2H3/t6-,7+/m1/s1
