15
gdb 66431	2.84083	1.58126	1.28007	1.9395	65.08	-0.2126	0.0636	0.2763	980.8958	0.108759	-457.625041	-457.616748	-457.615804	-457.657811	31.905	
O	-0.062851843	 1.373377301	 0.0098029647	-0.45722
C	 0.0534284198	 0.002654626	 0.0020651779	 0.414716
C	 0.9192066953	-0.9770110782	-0.7763344788	-0.279192
C	 0.914746837	-0.9859209644	 0.7737773102	-0.279412
C	-0.2637014753	-2.0179558946	 0.745228841	 0.348691
O	-0.625633182	-3.025050416	 1.5934880213	-0.447112
C	-1.1352154479	-0.9921343964	-0.0071595065	-0.349544
C	-0.2593432613	-2.0092204494	-0.7663298973	 0.348771
O	-0.6165070792	-3.0064415688	-1.6281613543	-0.447143
H	 0.8198384702	 1.759636414	 0.0223208862	 0.287619
H	 1.7748132661	-0.837872638	-1.4261146601	 0.090924
H	 1.7665669668	-0.8541923285	 1.4300685545	 0.090878
H	-1.0819958622	-2.6410499024	 2.3514003666	 0.290401
H	-2.2095295227	-0.8683353251	-0.0095444606	 0.097212
H	-1.0683586516	-2.6136383893	-2.3842616547	 0.290411
55.6154	190.8662	228.7122	258.8506	295.4511	324.7848	327.2176	433.2207	444.1673	546.7156	592.9204	684.1681	721.9479	748.7454	757.8605	817.5802	818.5582	866.0532	889.0527	931.7762	1005.1498	1021.4544	1027.961	1070.7693	1141.4365	1149.2996	1178.2952	1267.514	1292.8401	1349.3229	1378.2533	1442.1473	1523.603	3181.5154	3191.8549	3217.2449	3779.2556	3779.3371	3808.2601
OC12C3C1C1(O)C2C31O	O[C@@]12[C@H]3[C@@H]1[C@@]1(O)[C@@H]2[C@@]31O	
InChI=1S/C6H6O3/c7-4-1-2(4)6(9)3(4)5(1,6)8/h1-3,7-9H	InChI=1S/C6H6O3/c7-4-1-2(4)6(9)3(4)5(1,6)8/h1-3,7-9H/t1-,2+,3+,4+,5+,6-
