25
gdb 93675	2.06861	1.52757	1.21504	1.4659	87.18	-0.2415	0.0681	0.3096	1220.2962	0.228296	-389.509786	-389.499658	-389.498714	-389.544025	39.593	
C	 0.6740835315	 1.3156476805	-0.4970823253	-0.408535
C	-0.0461386318	 0.1115070376	 0.1177132743	 0.101469
O	-0.1830024498	-0.9541616206	-0.8213968758	-0.259641
C	 1.0095932446	-1.7228627247	-0.7719627459	-0.121681
C	 1.5491559266	-1.6714462154	 0.6889327511	 0.292316
C	 1.3191324729	-3.012674486	 1.4048810467	-0.437045
C	 3.0524395188	-1.3502711986	 0.6942862834	-0.44565
C	 0.6434773397	-0.5585541233	 1.3296920498	-0.010316
C	 1.3086126952	 0.3864574218	 2.3301238198	-0.421734
H	 1.7112016365	 1.0899496998	-0.7631697082	 0.117286
H	 0.151992965	 1.6222665227	-1.407873661	 0.123216
H	 0.681417241	 2.1640298886	 0.1941857817	 0.114173
H	-1.0663018701	 0.4175032054	 0.3768756816	 0.07555
H	 0.7584963888	-2.7379584914	-1.0954978786	 0.099977
H	 1.7591244526	-1.3249591695	-1.473739984	 0.080406
H	 1.9379100567	-3.8063487031	 0.9709196178	 0.108178
H	 1.5717638521	-2.941823134	 2.4692911463	 0.109976
H	 0.2712721571	-3.3212511721	 1.3283947379	 0.118897
H	 3.2733499987	-0.392095612	 0.2141569088	 0.115444
H	 3.456524532	-1.317739871	 1.7110421508	 0.113306
H	 3.6047515733	-2.1239349516	 0.1488021435	 0.111851
H	-0.1557000739	-1.0849485352	 1.8642757855	 0.074671
H	 2.1214331266	 0.9660373371	 1.8848136889	 0.119932
H	 0.5776788731	 1.0961701421	 2.7328437338	 0.113066
H	 1.7225634127	-0.1677332372	 3.1790070272	 0.114889
55.8533	159.915	220.9744	235.0671	258.9963	263.9135	277.8338	285.2524	313.0574	340.7722	384.2454	427.8623	432.1705	513.3542	594.4461	695.0757	712.5052	806.2367	875.6092	900.6279	939.7075	960.8668	972.8533	981.4043	1018.6837	1039.7894	1059.5659	1079.3544	1125.0465	1140.3004	1173.1315	1208.3575	1220.9814	1245.6556	1268.7528	1320.2651	1347.7333	1372.5204	1382.3296	1392.8757	1401.8003	1408.1111	1411.8669	1428.9299	1481.3016	1487.4355	1490.7474	1495.2319	1500.4123	1500.9673	1511.0706	1513.2829	1526.3015	2974.9198	3019.5218	3022.6417	3030.2226	3034.3724	3040.9228	3043.1376	3067.9669	3084.8596	3091.2645	3094.0857	3097.0284	3105.1965	3112.1574	3112.9317	3117.7908
CC1OCC(C)(C)C1C	C[C@H]1OCC(C)(C)[C@H]1C	
InChI=1S/C8H16O/c1-6-7(2)9-5-8(6,3)4/h6-7H,5H2,1-4H3	InChI=1S/C8H16O/c1-6-7(2)9-5-8(6,3)4/h6-7H,5H2,1-4H3/t6-,7+/m0/s1
