18
gdb 32148	3.78665	1.14218	0.8872	1.0696	83.87	-0.2248	-0.0105	0.2143	1313.0566	0.148573	-402.02014	-402.01155	-402.010605	-402.053831	31.339	
C	 0.0047885351	 1.4043225908	 0.0283209851	-0.229508
O	-0.0217720582	-0.0210811151	 0.0380645763	-0.264281
C	-1.2338474056	-0.6117429526	 0.0210377751	 0.467941
N	-2.325541269	 0.1372924993	-0.003612793	-0.374801
C	-3.5025766349	-0.5082512572	-0.0195619979	-0.002958
C	-3.6293419188	-1.8842845395	-0.0117369462	-0.209146
C	-2.465417545	-2.6728559864	 0.0145309159	 0.33128
C	-2.550053212	-4.1769850864	 0.0244592751	-0.492154
C	-1.2467938233	-2.016228962	 0.0311202683	-0.312336
H	 1.0615320417	 1.6756969904	 0.0453519429	 0.124122
H	-0.4751500302	 1.8030665118	-0.8701199251	 0.132594
H	-0.5070322192	 1.8157957756	 0.9031044233	 0.132614
H	-4.3864263086	 0.1251053367	-0.0397911196	 0.105778
H	-4.6116952294	-2.3437367652	-0.0257122313	 0.088448
H	-3.0811434133	-4.5454976146	-0.8601105142	 0.137069
H	-1.5580138172	-4.6345607395	 0.0407069359	 0.127969
H	-3.1037320977	-4.5324826584	 0.9005124767	 0.137196
H	-0.3066710843	-2.5552059279	 0.0515536528	 0.100173
61.7761	100.3791	173.2908	222.0004	222.1482	240.8868	331.4165	464.7007	465.5969	519.5691	612.429	633.4768	773.4958	774.2903	837.4455	896.4422	927.4637	979.8581	999.3726	1016.0318	1062.0572	1080.2144	1133.7178	1179.0266	1186.4368	1209.8512	1294.43	1325.1666	1355.5812	1411.5513	1428.5683	1479.2338	1479.5705	1482.9061	1494.1903	1504.679	1522.0129	1603.1601	1652.3043	3034.6249	3040.7014	3089.4631	3110.5017	3121.9634	3143.2033	3152.3866	3189.693	3196.9373
COC1=NC=CC(C)=C1	COc1nccc(C)c1	
InChI=1S/C7H9NO/c1-6-3-4-8-7(5-6)9-2/h3-5H,1-2H3	InChI=1S/C7H9NO/c1-6-3-4-8-7(5-6)9-2/h3-5H,1-2H3
