14
gdb 132151	3.25415	1.32631	0.94773	2.9818	66.91	-0.2439	-0.0371	0.2067	1134.2081	0.100256	-481.842885	-481.835266	-481.834321	-481.875195	28.208	
C	-0.0302826056	 1.4951248232	-0.0054593541	-0.472695
C	-0.0067372181	-0.0031868952	-0.0123335529	 0.085319
C	-0.0376660256	-0.7207994017	-1.1443234849	-0.01015
O	-0.0172617647	-2.0904217253	-1.1838858332	-0.200369
C	 0.0366774808	-2.7349465912	-0.019749155	 0.407094
F	 0.049819425	-4.0308082058	-0.2249305545	-0.034695
C	 0.0727451524	-2.1576575808	 1.1902983662	-0.456161
C	 0.0531809032	-0.7012634589	 1.294647133	 0.346685
O	 0.0835008517	-0.0929093683	 2.3544951038	-0.369207
H	 0.8593521934	 1.8840088627	 0.4998534815	 0.151191
H	-0.0759661397	 1.9078305425	-1.0162959016	 0.116861
H	-0.8900681913	 1.8560990903	 0.5676471785	 0.151229
H	-0.0816533414	-0.3177169225	-2.1472909162	 0.14725
H	 0.1159977098	-2.765688309	 2.0832077794	 0.137647
117.205	142.4295	182.1806	271.8833	337.1706	371.7591	417.794	438.4279	522.5711	591.69	677.5572	732.3308	762.1226	770.4258	863.8467	887.5349	946.0336	1021.2756	1064.6711	1145.6153	1170.5577	1240.1208	1290.4758	1395.7343	1414.0807	1419.9637	1465.5351	1482.7572	1661.767	1719.0754	1744.4164	3043.2039	3103.2257	3126.0148	3229.6988	3236.1963
CC1=COC(F)=CC1=O	Cc1coc(F)cc1=O	
InChI=1S/C6H5FO2/c1-4-3-9-6(7)2-5(4)8/h2-3H,1H3	InChI=1S/C6H5FO2/c1-4-3-9-6(7)2-5(4)8/h2-3H,1H3
