16
gdb 84536	3.32462	1.28588	1.20796	2.9205	70.38	-0.2514	-0.0215	0.2299	1056.3539	0.12454	-437.875836	-437.868101	-437.867157	-437.908291	29.143	
O	 0.2018433456	 1.2406106844	-0.1693126324	-0.420102
C	-0.0816669878	-0.1495343641	-0.1365662525	 0.090355
C	 0.5874154531	-0.8798502419	 1.0097233191	-0.145175
C	-0.29556854	-1.4293056297	 1.8483023555	-0.059642
C	-1.6997116626	-1.2122619775	 1.3807051329	-0.078829
C	-1.5794162886	-0.420781822	 0.0920286405	-0.119762
N	-2.0467215874	-1.7846981852	 0.0923602209	-0.064375
C	-1.5168771264	-2.9075904997	-0.5133956495	 0.154183
O	-1.2599936476	-3.9418836498	 0.0505027173	-0.29604
H	 0.1180442801	 1.5724902963	 0.7319138338	 0.283347
H	 0.2478205533	-0.5298634388	-1.1110116768	 0.108655
H	 1.66638931	-0.9440962845	 1.0883898838	 0.114732
H	-0.0583313926	-1.9996045333	 2.7374648957	 0.122994
H	-2.5167174939	-1.0965751132	 2.0857893716	 0.111154
H	-2.283154778	 0.3499230654	-0.2090225727	 0.113419
H	-1.4295864571	-2.7710256765	-1.6095658773	 0.085086
94.206	109.5992	221.0444	247.4996	304.1591	360.1809	411.1099	443.132	604.8818	646.7717	718.7451	767.9317	800.0732	851.0911	886.777	925.5639	967.6205	993.281	1028.5542	1033.4606	1039.5967	1079.6946	1107.3493	1125.0739	1143.3857	1245.72	1278.896	1295.9642	1319.2225	1368.1011	1407.6952	1414.718	1434.0418	1656.3045	1802.363	2937.0495	3045.2024	3157.8363	3167.6905	3200.2284	3225.9877	3798.9436
OC1C=CC2C1N2C=O	O[C@H]1C=C[C@H]2[C@@H]1N2C=O	
InChI=1S/C6H7NO2/c8-3-7-4-1-2-5(9)6(4)7/h1-6,9H	InChI=1S/C6H7NO2/c8-3-7-4-1-2-5(9)6(4)7/h1-6,9H/t4-,5-,6-,7?/m0/s1
