27
gdb 121916	3.40124	0.67347	0.59115	0.9123	94.28	-0.2482	0.0844	0.3326	2034.4607	0.24913	-390.699494	-390.687336	-390.686391	-390.737779	43.542	
C	-0.0477016647	 1.5405093937	 0.0902812039	-0.385272
C	-0.0042449235	 0.0227735039	 0.0287308866	-0.026409
O	 0.6733075086	-0.4568174743	 1.1698902627	-0.244592
C	 0.7779027523	-1.8657302798	 1.2090439955	-0.062715
C	 1.5175641226	-2.2795529528	 2.4867723612	 0.027474
C	 0.7591193932	-1.7475320367	 3.713350606	-0.406736
C	 1.7486690041	-3.8117904468	 2.542663242	 0.044499
C	 2.5624234318	-4.336568008	 1.3473281927	-0.396422
C	 2.4369972601	-4.240007979	 3.8488114087	-0.397108
H	 0.9652942722	 1.9522876608	 0.1140056646	 0.125707
H	-0.5667634303	 1.9437633455	-0.7844400779	 0.112949
H	-0.5731165915	 1.8733256418	 0.9900238532	 0.125363
H	-1.026338077	-0.3921057909	-0.0107725901	 0.082987
H	 0.5105819684	-0.3117209189	-0.8886577728	 0.082474
H	-0.2284732071	-2.3235960949	 1.1923898885	 0.077181
H	 1.3078757884	-2.2166200868	 0.3112199508	 0.083059
H	 2.5030062446	-1.7918323677	 2.4534563859	 0.074745
H	-0.1784237523	-2.2984533479	 3.8611563367	 0.103436
H	 1.3478577934	-1.8365027352	 4.629314608	 0.110992
H	 0.5112764634	-0.6942180098	 3.5696532992	 0.131277
H	 0.7594636322	-4.2941770838	 2.5155981211	 0.067874
H	 3.5328877581	-3.8295379712	 1.2823464797	 0.112498
H	 2.7587500768	-5.4079991676	 1.4591329371	 0.10834
H	 2.0498746288	-4.199765125	 0.3917711128	 0.114184
H	 1.8359976555	-4.0097954766	 4.731587881	 0.116093
H	 2.6216252509	-5.3192171212	 3.8484762267	 0.107393
H	 3.4066222209	-3.739753241	 3.9626159962	 0.110728
42.6802	53.0261	83.0237	109.628	145.7846	195.8032	208.3496	238.2548	245.8586	266.8144	313.018	342.3935	365.4202	404.1862	460.8871	491.7544	525.9419	795.203	822.2558	882.4949	905.7691	925.1409	930.3453	954.3434	969.6705	995.7086	1038.9445	1080.1962	1123.1352	1159.8981	1164.0853	1182.0211	1185.5359	1193.4932	1203.0249	1271.7315	1296.2746	1300.474	1344.2049	1359.0933	1376.6907	1388.9017	1400.877	1405.2268	1409.2906	1424.984	1449.7467	1483.528	1487.4788	1491.6242	1499.4419	1500.1727	1505.2754	1509.5655	1513.3521	1521.8333	1537.6532	2933.8272	2950.8207	2971.345	2983.483	2996.5233	3009.5046	3026.8581	3030.8476	3032.4186	3044.1499	3087.7843	3094.8762	3104.647	3112.8626	3118.3321	3118.7502	3120.3256	3136.362
CCOCC(C)C(C)C	CCOC[C@@H](C)C(C)C	
InChI=1S/C8H18O/c1-5-9-6-8(4)7(2)3/h7-8H,5-6H2,1-4H3	InChI=1S/C8H18O/c1-5-9-6-8(4)7(2)3/h7-8H,5-6H2,1-4H3/t8-/m1/s1
