16
gdb 54737	4.35063	1.16438	1.05972	3.8489	70.07	-0.2157	0.0376	0.2533	1129.1652	0.124547	-433.986015	-433.978429	-433.977485	-434.018398	29.652	
N	-0.0770330824	 1.3106887713	 0.036057215	-0.539791
C	-0.0002231388	-0.0661841098	-0.0107553735	 0.393132
O	 0.9208854319	-0.7065188874	 0.4513005655	-0.370065
N	-1.0979128457	-0.636774696	-0.6812173043	-0.104209
C	-2.4199511956	-0.6750919602	-0.035604175	-0.067167
C	-3.4684789188	-1.2254758515	-1.0611387922	-0.087196
N	-2.7759121465	-1.4871959793	-2.3436743182	-0.312285
C	-2.6582417731	-2.4549255071	-1.2282746126	-0.087792
C	-1.6060210642	-1.9103879027	-0.2027247155	-0.029565
H	 0.7948948344	 1.7653567785	 0.258199355	 0.261072
H	-0.6409196125	 1.7633714736	-0.6665053025	 0.261611
H	-2.6230389037	-0.0955773423	 0.8552000662	 0.117072
H	-4.5399953911	-1.0882544738	-1.0018272793	 0.10177
H	-3.4793660163	-1.8649828477	-2.9794690912	 0.232879
H	-2.9623308406	-3.4880507381	-1.3291844158	 0.103533
H	-1.044562847	-2.4780471173	 0.5258583682	 0.127001
66.686	141.2937	165.6681	316.9467	391.0917	462.6838	496.0547	523.11	570.8572	643.0957	751.5885	763.3277	778.4981	787.5179	808.1178	853.8534	861.7363	905.4234	922.3473	928.4522	1014.8793	1018.0477	1079.9436	1103.5763	1115.1634	1125.6645	1180.0207	1224.9788	1257.3143	1304.2176	1339.6537	1364.6635	1389.2258	1615.2149	1800.1151	3197.1521	3208.6847	3212.0688	3228.8205	3465.6481	3582.5023	3704.1079
NC(=O)N1C2C3NC3C12	NC(=O)N1[C@H]2[C@H]3N[C@H]3[C@@H]12	
InChI=1S/C5H7N3O/c6-5(9)8-3-1-2(7-1)4(3)8/h1-4,7H,(H2,6,9)	InChI=1S/C5H7N3O/c6-5(9)8-3-1-2(7-1)4(3)8/h1-4,7H,(H2,6,9)/t1-,2+,3-,4+,8?
