17
gdb 47101	2.62507	1.78382	1.28539	2.1667	67.24	-0.2478	-0.032	0.2157	983.2783	0.137555	-458.984216	-458.976881	-458.975936	-459.016909	27.533	
O	-0.0421371271	 0.0641701315	 0.0692393246	-0.304442
C	-0.0172870181	 1.2656441979	 0.0732887669	 0.383219
C	-1.2005302092	 2.1984810905	 0.3037817283	-0.188219
O	-0.7683703675	 3.4989984859	-0.0318699941	-0.269211
C	 0.6644279148	 3.5829091166	-0.0484868446	 0.094766
C	 1.245940337	 4.1371426684	 1.2661276565	-0.105278
O	 1.5754777414	 2.9999236654	 2.0541158446	-0.245999
C	 2.1288156844	 2.0591225805	 1.1492852184	-0.095751
C	 1.2243194484	 2.1453250988	-0.1009693914	-0.192001
H	-2.0571074814	 1.9178687823	-0.3181751006	 0.136536
H	-1.5042802221	 2.1209067403	 1.3600560914	 0.133533
H	 0.9293963128	 4.2068794953	-0.905294874	 0.093472
H	 2.14804777	 4.7355744349	 1.0564233632	 0.090303
H	 0.5262205684	 4.7493373238	 1.8128642703	 0.125237
H	 3.1658538161	 2.3237016471	 0.8878976991	 0.096909
H	 2.1212774373	 1.0728074265	 1.6185330193	 0.134932
H	 1.7462555149	 1.8802647143	-1.0216084579	 0.111994
55.6544	85.596	186.6683	298.256	391.5898	451.9244	518.048	574.7466	654.4696	717.5622	754.7722	809.9546	845.2875	924.5667	940.5409	961.8508	964.7947	990.81	1058.168	1088.2454	1110.1907	1111.7616	1177.2553	1202.601	1209.7634	1225.1184	1265.0306	1281.8307	1289.5726	1333.9046	1347.7488	1376.0315	1399.3547	1480.9448	1495.3684	1518.475	1856.0216	2969.6014	2979.4849	2985.4825	3071.7899	3082.5679	3108.5328	3109.9807	3117.5553
O=C1COC2COCC12	O=C1CO[C@H]2COC[C@@H]12	
InChI=1S/C6H8O3/c7-5-2-9-6-3-8-1-4(5)6/h4,6H,1-3H2	InChI=1S/C6H8O3/c7-5-2-9-6-3-8-1-4(5)6/h4,6H,1-3H2/t4-,6-/m0/s1
