18
gdb 91027	2.63677	1.88457	1.30593	3.0954	71.2	-0.2018	0.0457	0.2475	978.8443	0.147974	-439.007656	-438.999942	-438.998998	-439.039511	31.006	
O	-0.0619444349	 1.4139673664	-0.1733076678	-0.436668
C	-0.0306280393	 0.0028091931	-0.0142684669	 0.103322
C	 0.2139358977	-0.5740854508	 1.3997804967	-0.205993
N	-1.1315794819	-1.2494672128	 1.4182041956	-0.134194
C	-2.1198218178	-0.3319183488	 2.0249379766	-0.106627
C	-3.4697034763	-0.5863100778	 1.4122969699	-0.335059
C	-2.5046634329	 0.2755357903	 0.6630522969	 0.408707
O	-2.860227951	 1.5246817983	 0.2133350791	-0.46146
C	-1.4399903265	-0.6150590226	 0.0377127861	-0.108049
H	 0.8337896637	 1.7576922409	-0.1009705669	 0.292121
H	 0.6062965312	-0.4521203648	-0.7824316162	 0.08104
H	 1.0281222646	-1.3010494369	 1.4643942381	 0.105365
H	 0.3413475486	 0.1824933461	 2.18078912	 0.102066
H	-1.9690240409	 0.075241326	 3.0183833802	 0.092136
H	-3.7440746089	-1.582265085	 1.069538039	 0.109725
H	-4.2734848843	-0.0174814014	 1.8697390464	 0.121226
H	-2.029045426	 1.9971589211	 0.0645732069	 0.294067
H	-1.7270673552	-1.2696307011	-0.7894986038	 0.078276
100.5732	207.2632	216.4923	300.8782	359.3712	373.8862	410.62	460.8931	550.4795	567.8072	612.6055	702.6884	781.5075	817.6447	845.8305	868.3324	931.2567	937.8227	950.5335	998.7115	1019.8928	1038.657	1054.0388	1083.2459	1118.3254	1149.083	1180.8228	1193.7149	1194.8496	1221.3037	1274.7256	1289.0367	1319.2372	1323.6916	1378.3669	1406.3329	1443.6168	1483.0857	1498.3148	3023.1815	3042.5263	3074.4305	3099.3957	3099.6702	3177.1461	3202.5439	3744.6891	3823.9968
OC1CN2C3CC3(O)C12	O[C@H]1CN2[C@@H]3C[C@]3(O)[C@@H]12	
InChI=1S/C6H9NO2/c8-3-2-7-4-1-6(4,9)5(3)7/h3-5,8-9H,1-2H2	InChI=1S/C6H9NO2/c8-3-2-7-4-1-6(4,9)5(3)7/h3-5,8-9H,1-2H2/t3-,4+,5+,6+/m0/s1
