21
gdb 113568	3.73253	1.031	0.93588	0.9194	86.83	-0.2185	0.0284	0.247	1350.9279	0.182404	-387.077197	-387.068219	-387.067274	-387.111456	33.698	
C	 0.1239594489	 1.2190208711	 0.2190327036	-0.230026
O	-0.4364980174	 0.084892799	-0.4115140321	-0.235988
C	 0.3997568569	-0.4758727123	-1.3716552424	 0.076111
C	 1.494354398	-1.4192012349	-0.9413418874	-0.383994
C	 0.2457615988	-1.955253499	-1.6247677197	 0.302537
C	-0.7987808656	-2.7915649793	-0.867216476	-0.301891
C	-1.5346013554	-3.6150613086	-1.9631623916	-0.26363
C	-0.6954114721	-3.4020611583	-3.201138685	-0.07821
C	 0.2629132417	-2.4959609079	-3.0099710237	-0.137285
H	 1.0666019223	 0.9750754857	 0.7294808171	 0.109156
H	 0.3202628131	 2.027093425	-0.5019375752	 0.105761
H	-0.6030100475	 1.5710699932	 0.9548178066	 0.126116
H	 0.5925314985	 0.1730847442	-2.228787033	 0.078944
H	 2.4337595719	-1.4207941249	-1.4856182088	 0.107149
H	 1.5823667871	-1.6117041715	 0.1236266712	 0.114517
H	-0.2993881394	-3.4627643716	-0.161515464	 0.101261
H	-1.4739978285	-2.1571564011	-0.2905442496	 0.121941
H	-1.62166213	-4.6746508951	-1.6952011529	 0.101875
H	-2.5612049561	-3.258745304	-2.1233361532	 0.107806
H	-0.8891488197	-3.9174198338	-4.1353652863	 0.089842
H	 0.9739856746	-2.1585003556	-3.7566529374	 0.08801
48.9957	93.7471	154.043	162.7432	219.267	268.7934	337.1603	402.642	463.9619	512.645	571.2914	740.8655	753.6945	802.9407	825.0779	852.6379	898.2464	909.364	940.2157	966.5156	990.1839	1015.128	1034.1376	1052.0459	1066.6235	1110.2033	1125.2233	1172.1241	1178.8255	1184.0472	1219.9188	1239.7199	1266.514	1293.6359	1303.1527	1326.312	1379.3386	1414.6488	1466.4883	1483.1106	1485.817	1490.0753	1503.4269	1509.5545	1681.5075	2983.3036	3014.7161	3034.8004	3042.2554	3058.6385	3073.754	3116.7824	3116.9228	3117.9827	3178.0694	3204.1441	3208.2803
COC1CC11CCC=C1	CO[C@H]1C[C@]21CCC=C2	
InChI=1S/C8H12O/c1-9-7-6-8(7)4-2-3-5-8/h2,4,7H,3,5-6H2,1H3	InChI=1S/C8H12O/c1-9-7-6-8(7)4-2-3-5-8/h2,4,7H,3,5-6H2,1H3/t7-,8+/m0/s1
