20
gdb 86165	2.66633	1.18997	0.88439	4.5197	88.58	-0.2581	-0.0393	0.2188	1348.5824	0.171331	-366.059432	-366.050297	-366.049353	-366.093312	34.18	
C	-0.1145096618	 1.5928114009	-0.0080164346	-0.400561
C	 0.0272249915	 0.0670983095	 0.0285784893	-0.018796
C	 0.8029369164	-0.5336603793	-1.1727787188	-0.234438
C	 1.5806463752	-1.759660659	-0.6301759697	-0.090473
C	 2.9383611435	-1.9933141544	-1.2968780943	-0.406601
C	 1.6468956358	-1.4429632085	 0.8619888724	 0.197643
C	 0.8056632709	-0.4602224151	 1.2087994566	-0.165789
C	 2.476195849	-2.1719160566	 1.7575916619	 0.210017
N	 3.1674020095	-2.7876231972	 2.4549730681	-0.346755
H	 0.8681808787	 2.0758883633	-0.0258725829	 0.122092
H	-0.6627916146	 1.9096159269	-0.9008941907	 0.12163
H	-0.658138589	 1.9640364831	 0.8668223317	 0.119265
H	-0.9853160775	-0.3647302657	 0.0718004261	 0.09396
H	 0.1517856525	-0.7887482037	-2.0127304905	 0.104724
H	 1.5242409313	 0.2100437327	-1.5338168058	 0.104884
H	 0.9771891197	-2.6705607018	-0.7545034323	 0.095197
H	 3.5821769304	-1.1136488421	-1.1908069565	 0.120442
H	 3.4580973386	-2.8474324569	-0.8524728335	 0.137659
H	 2.8118470617	-2.1936805047	-2.3654544897	 0.11899
H	 0.6618636082	-0.1005968213	 2.2217871932	 0.116911
85.5804	112.3469	134.6008	226.7057	233.0802	269.631	282.6146	366.3303	404.2115	480.9377	524.6218	555.7273	599.2836	646.5655	774.5771	858.1809	896.9011	902.8697	918.4115	954.287	1009.3923	1036.6315	1069.5852	1116.7911	1118.9358	1159.575	1189.2564	1228.1943	1268.857	1306.2894	1315.1626	1323.8969	1349.4153	1371.2191	1410.3867	1413.1987	1489.8124	1496.5095	1498.6323	1499.4546	1500.5747	1673.1276	2332.9853	2976.6106	2996.9976	3031.7068	3033.5158	3037.2279	3097.498	3103.8507	3105.3041	3106.3163	3111.7744	3199.39
CC1CC(C)C(=C1)C#N	C[C@H]1C[C@@H](C)C(=C1)C#N	
InChI=1S/C8H11N/c1-6-3-7(2)8(4-6)5-9/h4,6-7H,3H2,1-2H3	InChI=1S/C8H11N/c1-6-3-7(2)8(4-6)5-9/h4,6-7H,3H2,1-2H3/t6-,7+/m0/s1
