16
gdb 125573	3.16643	1.43705	0.99459	3.2891	78.75	-0.2116	-0.0234	0.1881	1144.7801	0.126872	-430.270917	-430.262785	-430.261841	-430.303664	30.743	
C	-0.1532723959	 1.5029182995	 0.0071317478	-0.483915
C	-0.0457367245	 0.0110328351	-0.058238044	 0.430297
N	 0.1771002563	-0.5645147446	-1.1869281062	-0.282025
N	 0.2604578766	-1.940338787	-1.1523893613	-0.335979
C	 0.1354714889	-2.7727174109	-0.0651911469	 0.348608
N	 0.2155825471	-4.0493282812	-0.0498427044	-0.54744
C	-0.1235374533	-2.0662625299	 1.2334953343	 0.368086
N	-0.2727603256	-2.627929443	 2.3617313855	-0.524661
N	-0.1944677474	-0.684802456	 1.1204789897	-0.39682
H	 0.6072772246	 1.9231465265	 0.6751546235	 0.141164
H	-0.0146176989	 1.9158157633	-0.9914734544	 0.160456
H	-1.1345476422	 1.8102475249	 0.3865434136	 0.141224
H	 0.4352439046	-2.3464291467	-2.0580107408	 0.260036
H	 0.3931099612	-4.4384854588	-0.9764250314	 0.208648
H	-0.1852676861	-3.6366015029	 2.2257000189	 0.248629
H	-0.3683501553	-0.1890310483	 1.9830063158	 0.263693
89.4652	122.1677	157.5846	298.6864	304.8843	359.3546	424.5237	478.8842	511.7891	534.3257	575.333	600.6459	651.8354	705.9637	776.7284	798.9941	821.535	912.37	980.0137	1015.7359	1065.2801	1110.3458	1144.6858	1206.0499	1268.6532	1343.7983	1412.297	1437.8533	1462.2994	1479.5141	1482.9711	1513.378	1702.1045	1721.9068	1738.9469	3034.14	3086.8408	3162.212	3472.2898	3480.2109	3611.7191	3631.9134
CC1=NNC(=N)C(=N)N1	Cc1n[nH]c([NH])c([NH])[nH]1	
InChI=1S/C4H7N5/c1-2-7-3(5)4(6)9-8-2/h1H3,(H2,6,9)(H2,5,7,8)	InChI=1S/C4H7N5/c1-2-7-3(5)4(6)9-8-2/h1H3,(H2,6,9)(H2,5,7,8)
