19
gdb 108206	3.1875	1.43492	1.30789	2.0731	69.59	-0.2492	0.0701	0.3192	1040.7071	0.160567	-460.150985	-460.143226	-460.142282	-460.183266	30.191	
C	-0.0198778711	 1.3762541243	 0.0083874153	-0.265201
O	 0.0346725752	-0.0376366733	-0.0603953844	-0.305162
C	 0.6790583822	-0.5607052804	-1.180647998	 0.343363
C	 2.195197037	-0.2638402117	-1.3330407175	-0.121671
O	 2.6364473709	-1.2857218142	-2.2472563837	-0.266824
C	 1.4754466136	-2.047754621	-2.5491770152	 0.204541
C	 0.7207394842	-2.0987671378	-1.224526179	-0.308813
O	 0.6119931711	-1.3076557378	-3.4015131118	-0.266825
C	 0.0333042744	-0.2872620223	-2.5656602786	-0.121671
H	 0.9806669691	 1.8285737955	 0.0460865803	 0.116678
H	-0.5692045964	 1.8117661076	-0.8375875479	 0.116678
H	-0.5488017052	 1.6227306983	 0.9313752114	 0.135264
H	 2.4080982158	 0.7224067935	-1.7604883703	 0.102579
H	 2.7165625871	-0.359790672	-0.3719077055	 0.104773
H	 1.7751034313	-2.9617961893	-3.0573771078	 0.095458
H	 1.2952981497	-2.539042663	-0.4081207115	 0.114741
H	-0.267138688	-2.5559705143	-1.2989560629	 0.114741
H	-1.0576542549	-0.400678255	-2.5238069056	 0.104773
H	 0.276581714	 0.699313783	-2.9757896575	 0.102579
82.8979	178.4092	210.6578	213.3013	355.501	362.7123	455.1269	490.6172	501.7402	575.6147	610.4156	797.5836	810.1323	894.3064	924.608	951.3325	952.7225	956.4541	1007.511	1030.8776	1045.6888	1089.7232	1095.0871	1162.4588	1179.1141	1182.0407	1209.3242	1235.1078	1247.704	1259.1169	1266.6287	1313.4389	1318.6391	1368.5601	1397.7606	1484.4597	1490.3713	1494.37	1505.5675	1520.6707	1537.9445	2995.6422	3013.5948	3018.1059	3049.5166	3062.2764	3066.8064	3082.4644	3124.0119	3145.5517	3156.3273
COC12COC(C1)OC2	CO[C@@]12CO[C@@H](C1)OC2	
InChI=1S/C6H10O3/c1-7-6-2-5(8-3-6)9-4-6/h5H,2-4H2,1H3	InChI=1S/C6H10O3/c1-7-6-2-5(8-3-6)9-4-6/h5H,2-4H2,1H3/t5-,6-
