16
gdb 22935	2.74212	1.5409	1.09902	1.7955	75.3	-0.2392	-0.0507	0.1885	1083.9832	0.123324	-437.835784	-437.827751	-437.826807	-437.868111	30.778	
C	-0.0863855744	 1.512259963	-0.0161691564	-0.491299
C	 0.1223616535	 0.0262846515	-0.0187962641	 0.317193
O	-0.7260282749	-0.7593043188	 0.8463454322	-0.291789
C	 0.7024288672	-0.7894839591	 1.0650259002	-0.074222
C	 1.3665381538	-1.970864595	 0.4268981034	-0.090897
C	 1.1962464241	-1.9381501949	-0.9050449249	-0.166538
C	 0.4649106439	-0.7210864688	-1.2839438798	 0.355278
N	 0.1462152533	-0.2568378705	-2.4316741501	-0.237601
O	 0.5496551596	-1.1018522575	-3.4672703384	-0.380682
H	 0.7972512618	 2.0281722458	-0.403207776	 0.129501
H	-0.9335895108	 1.7773783704	-0.6551706446	 0.144425
H	-0.28989524	 1.8610103263	 0.9988635093	 0.12745
H	 1.0377759841	-0.3776881804	 2.0121577106	 0.099962
H	 1.8725783138	-2.7486657197	 0.9848501438	 0.117322
H	 1.5132068244	-2.6829939348	-1.6205279439	 0.130148
H	 0.2447884007	-0.6303293276	-4.2500090413	 0.311749
120.585	173.5006	200.0681	226.0696	302.0549	321.9863	388.3316	452.4643	490.7163	523.3667	597.8938	690.8221	746.2415	768.7103	821.9329	843.0196	865.6377	957.7647	969.3362	985.0874	1006.5651	1051.3648	1100.021	1127.0998	1149.8685	1274.0483	1300.9551	1362.3033	1404.4049	1410.2494	1441.2456	1479.5131	1492.8651	1622.7788	1727.1827	3047.951	3116.0546	3132.1796	3162.169	3213.067	3249.1443	3816.2975
CC12OC1C=CC2=NO	C[C@]12O[C@H]1C=CC2=NO	
InChI=1S/C6H7NO2/c1-6-4(7-8)2-3-5(6)9-6/h2-3,5,8H,1H3	InChI=1S/C6H7NO2/c1-6-4(7-8)2-3-5(6)9-6/h2-3,5,8H,1H3/t5-,6+/m0/s1
