21
gdb 74960	2.35768	1.82062	1.43131	1.6291	82.48	-0.2307	0.0231	0.2538	1038.1909	0.183416	-387.110052	-387.101807	-387.100863	-387.142174	33.178	
C	 0.0175566938	 1.5016263181	 0.0158116215	-0.509934
C	-0.0578520236	 0.0126047521	-0.0281272469	 0.322632
C	-0.0889190071	-0.8203527213	-1.0709803058	-0.207074
C	-0.0034825894	-2.2211135552	-0.4852325001	 0.013186
C	 1.468802453	-2.427448966	 0.0019492619	-0.212467
C	 1.5000481318	-1.4564246613	 1.2148583219	-0.248354
C	 0.0303047087	-0.902382778	 1.206436783	 0.299482
C	-0.509684345	-0.3909397488	 2.5211642306	-0.492923
O	-0.6886004018	-2.0657190665	 0.7623024389	-0.275874
H	 0.9405805112	 1.8393847516	 0.5058464094	 0.126698
H	-0.0043775337	 1.93199875	-0.9890791223	 0.126175
H	-0.8127354731	 1.9322131032	 0.5888150621	 0.130392
H	-0.0543738148	-0.5738322315	-2.1245291991	 0.092934
H	-0.4322722955	-3.0395745741	-1.0628647292	 0.073271
H	 1.6206588224	-3.4628059641	 0.3169223882	 0.101946
H	 2.2041789047	-2.1904813577	-0.7702058018	 0.096095
H	 1.6861741671	-1.9923164267	 2.1495506929	 0.099035
H	 2.2465896738	-0.6633594761	 1.1232114273	 0.09503
H	 0.0694998994	 0.4695779906	 2.8702680127	 0.117111
H	-1.5554378844	-0.0860724224	 2.4204213042	 0.126712
H	-0.4520337276	-1.1729498161	 3.2837880406	 0.125927
156.0131	180.3196	211.3565	225.7769	238.8537	304.6134	396.1732	417.3298	521.0747	582.1807	613.917	643.2388	731.4569	807.4808	823.0967	838.4224	864.3525	880.9388	887.4056	933.4217	966.8654	990.9801	1016.6855	1031.3354	1064.6227	1104.8243	1138.5464	1167.4457	1195.718	1208.6103	1234.9495	1257.2113	1288.0237	1319.5402	1332.0935	1344.3945	1412.2419	1416.3512	1475.8585	1478.2441	1482.1625	1491.8178	1497.3186	1501.1721	1700.8333	3015.1492	3041.2361	3056.1269	3061.5049	3068.514	3099.0104	3108.6553	3113.389	3115.8979	3118.517	3124.1587	3213.1052
CC1=CC2CCC1(C)O2	CC1=C[C@H]2CC[C@]1(C)O2	
InChI=1S/C8H12O/c1-6-5-7-3-4-8(6,2)9-7/h5,7H,3-4H2,1-2H3	InChI=1S/C8H12O/c1-6-5-7-3-4-8(6,2)9-7/h5,7H,3-4H2,1-2H3/t7-,8+/m1/s1
