18
gdb 76157	2.14461	1.48392	1.2022	6.5864	73.99	-0.2396	0.0306	0.2702	1120.675	0.146474	-435.248817	-435.238991	-435.238047	-435.282675	36.885	
C	-0.001021957	 1.5339458897	 0.0978912372	-0.458522
C	-0.0042699477	 0.0221962224	-0.0190544545	 0.189483
N	-1.1652474365	-0.6976955287	 0.4409977012	-0.54099
C	 0.6695909202	-0.6718509375	-1.186938741	-0.133675
N	 1.4352461046	 0.0916464587	-2.1368243478	-0.528427
C	 1.3202687262	-0.716280314	 0.2084657265	 0.249173
O	 2.4784258914	 0.0338958731	 0.3500257089	-0.460997
C	 1.3280411645	-1.9479961667	 0.9592126505	 0.290494
N	 1.351410234	-2.925896897	 1.5762150379	-0.359831
H	 0.9541138865	 1.972769302	-0.1934036756	 0.133315
H	-0.7920861669	 1.9676713548	-0.5258291656	 0.109165
H	-0.1979718282	 1.8250002845	 1.1350273675	 0.12828
H	-1.309896931	-0.5478084229	 1.4354073337	 0.240611
H	-2.0003313197	-0.3766479474	-0.0406499166	 0.229434
H	 0.1762621423	-1.5806894092	-1.518550269	 0.115336
H	 1.8343284442	-0.510335617	-2.8478793634	 0.25358
H	 0.8765948258	 0.7984742858	-2.6019853892	 0.250409
H	 2.6945114373	 0.3209950593	-0.5574976706	 0.293161
118.7726	149.2311	157.1951	202.2769	227.4971	247.7298	252.5183	310.6798	338.2523	380.9832	440.741	462.5516	547.0258	574.4344	608.862	612.5293	700.0715	745.7739	803.2894	833.5338	907.9639	972.6636	1017.2671	1055.4485	1093.4848	1145.4942	1209.7365	1233.8899	1276.6206	1285.713	1307.1271	1401.4434	1419.8064	1446.0392	1489.2036	1494.9978	1650.3708	1658.7829	2352.8993	3029.2076	3090.2523	3141.1284	3152.1298	3485.609	3516.6803	3566.0758	3584.2467	3596.4515
CC1(N)C(N)C1(O)C#N	C[C@@]1(N)[C@@H](N)[C@]1(O)C#N	
InChI=1S/C5H9N3O/c1-4(8)3(7)5(4,9)2-6/h3,9H,7-8H2,1H3	InChI=1S/C5H9N3O/c1-4(8)3(7)5(4,9)2-6/h3,9H,7-8H2,1H3/t3-,4-,5-/m1/s1
