18
gdb 127075	2.5729	1.3549	1.08782	3.5895	75.56	-0.235	-0.0312	0.2038	1184.3535	0.145503	-435.240327	-435.230899	-435.229955	-435.2752	33.367	
C	 0.2639402098	 1.0403092159	-0.5420638931	-0.330838
N	 0.0101918354	-0.1130705806	 0.3231085282	-0.177398
C	 0.4162372491	 0.124645388	 1.7093990089	-0.330823
C	-1.2792609015	-0.6423381693	 0.1950889051	 0.181934
C	-1.6571352339	-1.8671389066	-0.2785623235	 0.355744
C	-0.8604826534	-3.0060893891	-0.7970590467	-0.4921
O	-2.98115554	-1.9555329526	-0.2244710519	-0.225498
N	-3.4533755436	-0.6887606073	 0.3232287017	-0.025935
N	-2.4479455879	 0.0184980538	 0.5443825106	-0.148361
H	 1.3307249913	 1.2834814812	-0.5109462456	 0.120091
H	-0.0029492813	 0.7902852127	-1.5718763845	 0.125533
H	-0.3053310767	 1.9347276878	-0.2424383401	 0.121089
H	-0.1410497414	 0.9477954406	 2.1844492448	 0.121118
H	 0.2586335759	-0.783149891	 2.2970412572	 0.125548
H	 1.4825496206	 0.3707099381	 1.7330107377	 0.120085
H	-1.0271517312	-3.907018062	-0.1980849652	 0.153071
H	-1.1365431726	-3.2406405108	-1.8300252922	 0.153064
H	 0.1979405313	-2.7414549988	-0.7600159416	 0.153676
32.1066	147.2361	148.6299	162.1641	219.108	227.6899	243.3472	277.1966	366.224	469.4661	481.9827	589.6634	615.504	673.346	706.356	771.3461	951.7571	993.8899	1020.2977	1060.7086	1070.6701	1117.824	1133.298	1185.0538	1201.2144	1229.1473	1328.8185	1377.0673	1419.5544	1440.8838	1467.1228	1478.0539	1481.1533	1482.4551	1489.0542	1496.097	1500.7939	1522.8968	1655.441	2979.0212	2983.8297	3044.3273	3071.5956	3072.5197	3103.2922	3116.9351	3119.654	3142.4932
CN(C)C1=C(C)ON=N1	CN(C)c1c(C)onn1	
InChI=1S/C5H9N3O/c1-4-5(8(2)3)6-7-9-4/h1-3H3	InChI=1S/C5H9N3O/c1-4-5(8(2)3)6-7-9-4/h1-3H3
