23
gdb 120889	4.43558	0.75324	0.72248	1.4313	87.37	-0.2226	0.0847	0.3074	1709.7693	0.204562	-388.26876	-388.25906	-388.258116	-388.304138	36.391	
C	-0.1341834121	 1.469960394	-0.4465093832	-0.381892
C	-0.0927769596	-0.0228686298	-0.1110896839	-0.162619
C	-1.482642045	-0.6243886576	 0.1249642707	-0.18437
C	-1.439486206	-2.1142560441	 0.4112885044	 0.145568
C	-2.7722906117	-2.898927979	 0.3820933612	-0.394695
C	-2.1185807562	-3.6680889213	-0.7586741661	 0.474771
C	-2.0788520401	-5.1363176752	-1.0267738937	-0.333863
C	-2.6836290752	-4.1727065119	-2.0432773394	-0.331508
O	-0.927865472	-2.8807058982	-0.7170459535	-0.322009
H	 0.8715001248	 1.869338409	-0.6108195851	 0.111685
H	-0.7178208803	 1.6553800498	-1.3551291867	 0.1142
H	-0.5935483015	 2.0479986269	 0.3635235821	 0.110454
H	 0.3908623875	-0.5761606825	-0.9240185513	 0.118298
H	 0.5266083912	-0.1827534254	 0.7815737867	 0.091556
H	-1.9733903052	-0.1232880352	 0.9717669664	 0.090874
H	-2.1161881293	-0.4534855756	-0.7554015781	 0.095501
H	-0.8297928267	-2.3135883825	 1.3034456344	 0.073093
H	-3.0030176747	-3.4802702427	 1.2768156139	 0.109084
H	-3.6426487398	-2.3003148238	 0.1011535416	 0.107326
H	-1.1126754582	-5.5676302776	-1.2661336299	 0.12296
H	-2.7426241762	-5.7874483249	-0.4665322218	 0.111168
H	-3.7607260315	-4.1642178721	-2.1782404211	 0.111685
H	-2.1107365022	-3.9772434402	-2.9435790476	 0.122734
38.5748	90.674	99.4807	144.9396	246.3986	269.2392	290.102	304.038	391.1659	425.8445	492.3172	564.7059	746.8998	756.9245	798.1601	833.3873	864.7974	888.7385	900.4363	914.1475	921.28	966.6032	992.0166	1028.0213	1046.9487	1052.4096	1064.9047	1091.1306	1125.1444	1138.7262	1186.823	1195.1092	1224.6854	1245.1972	1262.4474	1283.7073	1324.7156	1339.2166	1367.7893	1388.2718	1411.035	1417.9411	1448.1535	1472.5939	1487.8117	1494.4388	1499.7536	1506.0394	1510.2447	3003.9549	3006.3245	3020.6142	3028.2295	3047.8958	3063.9084	3069.0071	3096.5387	3101.1799	3118.9294	3124.2539	3127.1562	3207.844	3222.2429
CCCC1CC2(CC2)O1	CCC[C@H]1CC2(CC2)O1	
InChI=1S/C8H14O/c1-2-3-7-6-8(9-7)4-5-8/h7H,2-6H2,1H3	InChI=1S/C8H14O/c1-2-3-7-6-8(9-7)4-5-8/h7H,2-6H2,1H3/t7-/m0/s1
