16
gdb 123433	4.89217	0.94508	0.85597	4.2088	70.66	-0.2491	-0.0419	0.2072	1316.0496	0.125053	-434.012741	-434.005003	-434.004059	-434.046384	28.069	
C	 0.6863698581	 0.6192994181	 0.6885162353	-0.366003
C	-0.1523679799	-0.0059514533	-0.415517313	 0.037979
C	-1.6062893346	-0.2206667659	-0.2131535852	-0.246078
N	-1.1261315887	 0.8021497003	-1.1573497003	-0.304036
C	 1.7317932239	 1.554409569	 0.1699132788	 0.269431
C	 3.075208782	 1.4339733249	 0.0082494283	-0.04834
O	 3.5592704277	 2.556705296	-0.518994496	-0.159878
N	 2.4408224012	 3.4273897018	-0.6922190596	 0.002201
N	 1.417519982	 2.8208511798	-0.2892409462	-0.169344
H	 0.0309258939	 1.1720901987	 1.3719878124	 0.123643
H	 1.1660112886	-0.1709913374	 1.2767757562	 0.119765
H	 0.3935622275	-0.7054995398	-1.0466042435	 0.096088
H	-2.1051206211	-1.0699120567	-0.6712658426	 0.121698
H	-2.0363142301	 0.0975955375	 0.7338818281	 0.111361
H	-1.1927055749	 1.7320071685	-0.7494408204	 0.242353
H	 3.7795291946	 0.6460692185	 0.2194718878	 0.169157
51.2512	62.1613	121.08	296.2528	314.913	358.5574	443.1873	635.0205	637.4939	693.8484	764.4265	794.0348	827.1898	853.4565	917.7232	938.2177	968.3891	986.6203	1044.8659	1055.2081	1120.1355	1130.6087	1154.9573	1172.0339	1242.3403	1253.1063	1264.2366	1310.1249	1328.7532	1355.9937	1419.7424	1461.2962	1469.3785	1513.9503	1621.5897	3033.6982	3077.4528	3105.1106	3120.3023	3190.0973	3283.5971	3499.6719
C(C1CN1)C1=CON=N1	C([C@H]1CN1)c1conn1	
InChI=1S/C5H7N3O/c1(4-2-6-4)5-3-9-8-7-5/h3-4,6H,1-2H2	InChI=1S/C5H7N3O/c1(4-2-6-4)5-3-9-8-7-5/h3-4,6H,1-2H2/t4-/m0/s1
