19
gdb 95729	3.01065	1.25144	0.95214	2.8657	73.48	-0.2289	0.0212	0.25	1222.683	0.16139	-456.338219	-456.329728	-456.328784	-456.371349	32.648	
O	-0.2639270441	 1.5546890069	-0.226014785	-0.41972
C	 0.0346535716	 0.1777920496	-0.0433972203	 0.081356
C	-1.1595910911	-0.4103709936	 0.7206246567	-0.16884
N	-1.1314839873	-1.8416803804	 0.9657459857	-0.283872
C	-1.0921451353	-2.7075981896	-0.2068907211	-0.246495
C	 0.2653965538	-2.8632481016	-0.8719759117	 0.372557
N	 0.809926267	-4.0057737478	-0.9431500388	-0.499127
O	 0.912116846	-1.7536259381	-1.3383694885	-0.245915
C	 0.2537950949	-0.4884168903	-1.4103915584	-0.106103
H	 0.5227283163	 1.9997597846	-0.5570030849	 0.288775
H	 0.953730089	 0.0394590133	 0.5493363985	 0.074723
H	-1.2481157698	 0.1092790318	 1.6797365915	 0.114918
H	-2.0664761955	-0.17120321	 0.148956131	 0.115038
H	-0.3990829888	-2.094632023	 1.6195235155	 0.226734
H	-1.3968348274	-3.7183918253	 0.0725448459	 0.137521
H	-1.8293987917	-2.3331294249	-0.9281230829	 0.119293
H	 1.7171682085	-3.9328524789	-1.4102336548	 0.216368
H	-0.6941610604	-0.5615643696	-1.9578437676	 0.11615
H	 0.9285417741	 0.1347536069	-2.0055453108	 0.10664
67.3148	143.2553	241.0044	278.8945	287.0304	323.4955	324.5014	364.4055	449.7018	470.0424	516.9429	589.4928	694.2836	702.4795	817.0795	890.5654	899.0389	925.6667	970.224	1016.0046	1032.5017	1071.8856	1090.932	1120.284	1160.8262	1188.5273	1206.9319	1253.6546	1287.4554	1321.6442	1337.1803	1349.6163	1367.5348	1383.9874	1407.9671	1439.9621	1466.0208	1479.8517	1503.7766	1506.6878	1738.0234	2972.7646	3023.8016	3030.7072	3040.3671	3083.9814	3087.4167	3109.8258	3451.8543	3537.8285	3816.9729
OC1CNCC(=N)OC1	O[C@H]1CNC[C]([NH])OC1	
InChI=1S/C5H10N2O2/c6-5-2-7-1-4(8)3-9-5/h4,6-8H,1-3H2	InChI=1S/C5H10N2O2/c6-5-2-7-1-4(8)3-9-5/h4,6-8H,1-3H2/t4-/m0/s1
