24
gdb 121873	3.35296	0.63054	0.59692	3.3796	86.93	-0.239	0.0382	0.2772	2000.756	0.21527	-405.601518	-405.589587	-405.588643	-405.640639	41.407	
C	 0.1424896941	 1.5069499338	-0.1689808595	-0.380525
C	 0.242788275	-0.0169943883	-0.0621207974	-0.163117
C	 0.6839202053	-0.496292207	 1.3260813469	-0.176913
C	 0.7742186864	-2.0228593687	 1.4255354269	-0.166542
C	 1.3010759902	-2.5567652329	 2.7774369499	-0.094986
C	 0.3687185301	-2.2397218054	 3.9547416572	-0.388076
C	 1.4541531513	-4.0760565178	 2.6544192835	 0.408965
N	 2.7367635365	-4.5303787364	 2.5401006139	-0.526467
O	 0.4966463294	-4.826702665	 2.6306403007	-0.377503
H	 1.1077795526	 1.983107034	 0.0371891279	 0.111677
H	-0.1744578402	 1.817939813	-1.1693624361	 0.111531
H	-0.5818542506	 1.9074127254	 0.5490666008	 0.113955
H	-0.728156103	-0.4673639896	-0.3066140128	 0.098609
H	 0.9477067042	-0.3924174881	-0.8157645908	 0.093334
H	 1.6610186446	-0.0534682167	 1.5679024423	 0.08639
H	-0.0186077009	-0.1094761801	 2.074618854	 0.099632
H	-0.2086789042	-2.4726575921	 1.240623366	 0.117635
H	 1.4321056164	-2.3889933265	 0.6255819208	 0.091794
H	 2.2853391984	-2.1059027514	 2.9657619265	 0.058439
H	 0.2093133803	-1.1636965323	 4.0589819456	 0.112009
H	-0.5961413138	-2.7305272404	 3.8035050046	 0.142052
H	 0.7868537614	-2.6088572682	 4.8965861343	 0.113847
H	 3.5324324341	-3.9195509906	 2.5822096284	 0.256205
H	 2.8865944626	-5.5204721689	 2.4332780765	 0.258056
22.3501	57.537	85.0843	93.4728	104.8059	138.8667	203.2429	222.2109	246.0231	279.5356	307.2078	348.4023	413.9487	503.4742	594.0949	622.916	737.7576	771.7558	785.9339	805.3578	901.981	908.6922	918.8176	1015.9332	1030.4274	1041.8378	1067.8797	1075.8143	1126.9758	1134.7256	1193.4143	1238.6013	1264.0712	1294.1467	1313.0933	1333.4282	1349.5652	1367.382	1398.3478	1403.9185	1405.7027	1413.6742	1482.4174	1486.7622	1494.691	1499.0799	1500.3393	1506.2431	1513.2662	1613.8334	1791.4192	3002.598	3005.8314	3012.4022	3018.0716	3028.3879	3037.8981	3045.2183	3054.1485	3073.5302	3095.1265	3100.9924	3110.9924	3131.448	3602.3407	3742.9577
CCCCC(C)C(N)=O	CCCC[C@@H](C)C(=O)N	
InChI=1S/C7H15NO/c1-3-4-5-6(2)7(8)9/h6H,3-5H2,1-2H3,(H2,8,9)	InChI=1S/C7H15NO/c1-3-4-5-6(2)7(8)9/h6H,3-5H2,1-2H3,(H2,8,9)/t6-/m1/s1
