19
gdb 17630	3.30132	1.43618	1.08657	1.5043	67.48	-0.2463	0.0608	0.307	1109.1619	0.163596	-402.162369	-402.152888	-402.151944	-402.197018	34.077	
C	-0.0605498093	 1.5374199634	 0.2771442537	-0.407772
C	-0.0597803907	 0.0169419132	 0.151720274	 0.117649
O	 0.1922467898	-0.6246348365	 1.3969085025	-0.426036
C	-1.3572207525	-0.5146010991	-0.4919941436	 0.068147
O	-1.5437435313	 0.0501311488	-1.790961693	-0.429458
C	-1.3920601502	-2.0276207518	-0.5309971712	 0.012588
C	-2.2846010971	-2.7934192424	 0.3705059911	-0.235162
N	-2.5858575422	-2.7010323377	-1.0663247037	-0.325392
H	 0.8944183083	 1.8887713678	 0.6765204231	 0.121494
H	-0.2405735159	 2.0029244472	-0.6944757051	 0.135998
H	-0.8577376736	 1.8656139893	 0.957282171	 0.103203
H	 0.7760446018	-0.292639257	-0.491402423	 0.081392
H	-0.4574308359	-0.3015354499	 2.0310765727	 0.278312
H	-2.2164401004	-0.1501979379	 0.0905487445	 0.06919
H	-0.9576162139	-0.4131538587	-2.4000312652	 0.28603
H	-0.4555522573	-2.4932419635	-0.8385451848	 0.089286
H	-1.9898049555	-3.7793883188	 0.7176341766	 0.121382
H	-2.8983073489	-2.2339123345	 1.0725981195	 0.103775
H	-3.312415145	-2.0078373719	-1.2338980391	 0.235375
40.3335	70.8357	158.2855	227.9975	235.7533	253.6559	272.1	286.241	341.2303	416.6717	459.0808	489.5157	564.6527	812.9196	864.293	871.5763	919.7121	952.5103	967.3179	1043.9597	1052.3881	1067.39	1107.0661	1125.961	1148.0079	1156.4762	1200.5129	1234.3186	1247.3838	1281.389	1306.7755	1319.4491	1385.9795	1395.0148	1407.231	1417.0678	1435.5521	1491.7947	1496.7587	1513.6003	2998.7201	3016.9768	3027.532	3101.034	3104.5306	3106.6957	3136.7535	3190.8031	3489.9284	3798.5563	3799.9739
CC(O)C(O)C1CN1	C[C@@H](O)[C@@H](O)[C@H]1CN1	
InChI=1S/C5H11NO2/c1-3(7)5(8)4-2-6-4/h3-8H,2H2,1H3	InChI=1S/C5H11NO2/c1-3(7)5(8)4-2-6-4/h3-8H,2H2,1H3/t3-,4-,5-/m1/s1
