17
gdb 115138	3.00111	1.30304	0.94271	5.6063	71.65	-0.246	-0.0649	0.181	1199.1294	0.137319	-455.167225	-455.158824	-455.15788	-455.200642	31.23	
O	-0.0558959667	 1.4826190796	-0.1814436588	-0.422025
C	 0.031644823	 0.0796001291	-0.1648850637	-0.06704
C	-1.3429593654	-0.5721409059	 0.0552519524	-0.126058
C	-1.3765583573	-2.1105141146	 0.0141607686	-0.207499
N	-2.342736267	-2.4638914016	 1.0527870779	-0.340884
C	-2.584915901	-1.478252583	 1.9824204492	 0.285258
N	-3.2199123895	-1.482969347	 3.0864615889	-0.514413
C	-1.9158987292	-0.231104278	 1.4269183202	 0.374135
O	-1.8194076387	 0.830979332	 1.990193223	-0.313717
H	-0.4961987383	 1.7386242034	 0.6418279055	 0.300376
H	 0.4386094806	-0.2304592764	-1.1338963428	 0.110841
H	 0.7274411372	-0.283258285	 0.6112858671	 0.091189
H	-2.0359211425	-0.1597756091	-0.6893149424	 0.130627
H	-1.6941882056	-2.4952235722	-0.9592720187	 0.124419
H	-0.3806883837	-2.5256994364	 0.2293590589	 0.116566
H	-2.5368320448	-3.4293929953	 1.2654621854	 0.24909
H	-3.5898130711	-2.4102542796	 3.3082326192	 0.209137
59.7876	128.2754	161.7868	207.4434	285.5886	341.922	388.3473	428.0895	464.0199	560.9204	566.0696	598.6259	696.9754	724.9956	790.61	859.1966	933.0309	972.2689	1021.9422	1070.9088	1094.2065	1097.3949	1117.2685	1154.0319	1203.4148	1215.6577	1269.0815	1297.4819	1339.5604	1380.3975	1391.8056	1441.179	1460.7878	1512.8199	1531.3372	1739.2566	1835.3306	2956.627	2992.1219	3037.3532	3061.8297	3074.2954	3444.3343	3635.3363	3732.4298
OCC1CNC(=N)C1=O	OC[C@H]1CN[C]([NH])C1=O	
InChI=1S/C5H8N2O2/c6-5-4(9)3(2-8)1-7-5/h3,8H,1-2H2,(H2,6,7)	InChI=1S/C5H8N2O2/c6-5-4(9)3(2-8)1-7-5/h3,8H,1-2H2,(H2,6,7)/t3-/m1/s1
