23
gdb 122113	2.52379	0.71941	0.587	1.9708	84.54	-0.2426	-0.0293	0.2132	1958.7305	0.20197	-425.432704	-425.42122	-425.420275	-425.470833	39.352	
C	 0.1009258773	 1.5097722111	 0.2220866972	-0.380559
C	 0.0019761458	-0.0147773763	 0.1205598914	-0.167259
C	-1.443530339	-0.5144187054	 0.0272553674	-0.167186
C	-1.5428037917	-2.0403109469	-0.0715193424	-0.212345
C	-2.9885918061	-2.5399672103	-0.2014944287	 0.029406
O	-3.5323624574	-2.0257277546	-1.4005371903	-0.240766
C	-4.9407561383	-2.1184687188	-1.4698153144	-0.24208
C	-2.9875488416	-4.0666191385	-0.227648414	 0.134117
O	-2.9568423305	-4.7658864049	 0.750599565	-0.246021
H	 1.1426969467	 1.8393943	 0.2838121636	 0.11208
H	-0.3512933495	 1.9940090275	-0.6505284515	 0.114982
H	-0.4192055367	 1.8818174432	 1.111844468	 0.113818
H	 0.5614919427	-0.3608071422	-0.7585689842	 0.096578
H	 0.4912098045	-0.4731829839	 0.990298696	 0.095493
H	-2.0054543937	-0.1724268173	 0.9076051022	 0.090993
H	-1.9350929249	-0.0698259665	-0.8450069223	 0.113928
H	-0.9731482801	-2.3951362529	-0.9403540648	 0.106209
H	-1.1043236195	-2.5127937755	 0.8149947904	 0.117014
H	-3.5722038795	-2.2096208532	 0.6728797647	 0.086659
H	-5.2446883199	-1.6982797501	-2.4311124876	 0.133564
H	-5.2941978696	-3.1591523051	-1.4128676715	 0.113003
H	-5.4219859352	-1.5488079751	-0.6606901486	 0.113879
H	-2.9778904839	-4.4866777945	-1.2612423458	 0.084494
55.7487	63.2838	75.8489	85.999	143.7518	152.3241	184.7897	243.6675	246.3824	270.7215	292.1435	376.4724	453.5198	512.6836	562.2732	737.9253	784.4227	886.8962	899.5156	922.8789	988.7063	1021.25	1048.5959	1069.3678	1074.5979	1135.0619	1144.8142	1163.5797	1184.3018	1225.3924	1249.6432	1262.7224	1307.8761	1320.01	1330.9933	1348.6849	1376.0513	1396.0204	1401.0738	1413.787	1475.2203	1482.268	1486.8804	1489.0253	1499.413	1500.0968	1507.6933	1513.1595	1836.2379	2859.7955	2977.2137	2985.186	3010.6127	3015.7397	3028.4645	3028.6069	3030.2018	3042.4576	3065.5879	3085.8102	3097.429	3102.4818	3121.2786
CCCCC(OC)C=O	CCCC[C@@H](OC)C=O	
InChI=1S/C7H14O2/c1-3-4-5-7(6-8)9-2/h6-7H,3-5H2,1-2H3	InChI=1S/C7H14O2/c1-3-4-5-7(6-8)9-2/h6-7H,3-5H2,1-2H3/t7-/m1/s1
