14
gdb 26642	3.40736	1.27495	0.93341	4.8811	72.4	-0.2111	-0.024	0.1871	1159.7741	0.102517	-432.904148	-432.895922	-432.894977	-432.936783	30.617	
N	-0.0479302379	 1.4026262991	 0.0202374534	-0.601824
C	-0.0842875235	 0.0145605406	-0.0046263229	 0.24588
C	-1.1503420525	-0.8354852156	-0.009736005	 0.102692
N	-2.4961013686	-0.5047101487	-0.057918496	-0.620389
C	-0.5973574907	-2.170604471	-0.0449158247	 0.120508
C	 0.7642531402	-2.0187035012	-0.0613014595	-0.112098
O	 1.0979385336	-0.7249985786	-0.0476706357	-0.160871
C	-1.3273421016	-3.3810527159	-0.0441585674	 0.196565
N	-1.9589963282	-4.3525728379	-0.0333283211	-0.351636
H	 0.5066344478	 1.7766533398	 0.7830970199	 0.250545
H	 0.2725374196	 1.8195223973	-0.8483609542	 0.251934
H	-2.6698894048	 0.4519085332	 0.2211578864	 0.256265
H	-3.1012148746	-1.1530607391	 0.4274415442	 0.260057
H	 1.5674701312	-2.7370358319	-0.0735019275	 0.16237
113.9507	128.3152	227.858	253.478	283.711	303.8296	327.1467	427.144	512.3913	539.8458	590.5621	610.5222	663.568	716.2876	739.288	756.915	780.3393	784.5843	958.7499	1100.8565	1205.2893	1210.9299	1218.2289	1302.7859	1321.9638	1463.8802	1575.6351	1637.9485	1654.3703	1725.0224	2342.7474	3277.4559	3492.9732	3545.1259	3560.9981	3645.2659
NC1=C(N)C(=CO1)C#N	Nc1c(N)c(co1)C#N	
InChI=1S/C5H5N3O/c6-1-3-2-9-5(8)4(3)7/h2H,7-8H2	InChI=1S/C5H5N3O/c6-1-3-2-9-5(8)4(3)7/h2H,7-8H2
