22
gdb 8178	2.5963	2.41756	1.65347	0.0976	81.22	-0.2822	0.0842	0.3664	910.7184	0.202038	-313.075299	-313.067609	-313.066665	-313.106459	31.573	
C	-0.0927968555	 1.536176344	 0.0163249744	-0.422236
C	 0.0665355814	 0.0163159796	 0.0302494592	 0.023599
C	 1.0079252216	-0.5542856037	-1.0868832726	-0.230747
C	 1.9827837871	-1.3605122191	-0.2095513631	-0.012569
C	 2.2880556588	-0.3568596109	 0.9349174712	-0.260829
C	 0.779357126	-0.583143474	 1.276464486	 0.357341
C	 0.2017593043	-0.2771531503	 2.6400240279	-0.50489
C	 1.0179307538	-2.049768316	 0.7941484843	-0.259906
H	 0.8681677394	 2.0485629284	 0.1350208025	 0.113608
H	-0.5253174953	 1.8701006183	-0.9330831268	 0.111845
H	-0.7557712092	 1.8796271771	 0.8176419536	 0.111572
H	-0.9320937248	-0.4311158854	-0.0526724662	 0.061296
H	 0.4752682228	-1.1793211621	-1.8101841095	 0.089955
H	 1.5147663499	 0.2417173562	-1.6433283746	 0.089698
H	 2.775388007	-1.9119646618	-0.7166600029	 0.053283
H	 2.9469468665	-0.7761622358	 1.7000990355	 0.089149
H	 2.6248140407	 0.649612624	 0.6683482016	 0.084029
H	 0.2262310186	 0.7966739066	 2.8567084961	 0.115961
H	-0.843265361	-0.6034629358	 2.7087699504	 0.111536
H	 0.7616312929	-0.7867921179	 3.4314148085	 0.109983
H	 0.1626977733	-2.6052959077	 0.394181648	 0.08057
H	 1.5416464719	-2.6525700637	 1.5409212266	 0.087751
173.0314	213.9133	227.0852	252.682	309.9545	345.0113	418.3572	477.5014	521.1878	579.076	661.7444	779.7144	823.3658	836.2805	870.6252	899.0168	915.5235	921.8737	977.1881	982.1129	1007.7838	1024.7772	1057.5714	1077.3335	1104.1562	1111.5933	1156.6005	1171.1353	1197.4666	1210.4072	1249.2433	1263.9694	1273.6129	1288.6788	1317.5997	1341.3547	1375.6514	1407.1042	1415.3556	1483.8714	1491.0046	1494.1187	1495.6151	1500.2404	1505.4083	1528.0986	3014.3861	3020.8824	3027.6737	3037.6008	3040.0677	3049.5418	3082.1382	3083.0358	3090.3279	3093.2734	3096.6264	3101.4005	3103.8232	3108.7133
CC1CC2CC1(C)C2	C[C@H]1C[C@H]2C[C@]1(C)C2	
InChI=1S/C8H14/c1-6-3-7-4-8(6,2)5-7/h6-7H,3-5H2,1-2H3	InChI=1S/C8H14/c1-6-3-7-4-8(6,2)5-7/h6-7H,3-5H2,1-2H3/t6-,7-,8+/m0/s1
