21
gdb 77514	2.36948	1.75511	1.27362	1.1063	82.8	-0.2246	0.0149	0.2394	1079.6283	0.181131	-387.064053	-387.055105	-387.054161	-387.096641	35.926	
C	-0.1614994013	 1.5339221191	 0.0933065801	-0.436753
C	 0.0257012696	 0.0240559102	 0.0332107467	-0.012959
C	 0.8290614111	-0.6076633627	-1.1866610544	 0.286967
C	 0.5877899418	-0.2043644329	-2.6223694739	-0.50949
C	 2.1349976193	-0.2146585498	-0.4042087235	-0.328718
C	 1.2298482307	-0.6051010597	 0.816217981	 0.369463
O	 1.463159186	-0.1836949448	 2.123117604	-0.494549
C	 0.9972944384	-2.096324267	 0.5122397481	-0.179528
C	 0.7362280011	-2.0934110473	-0.7966315755	-0.120664
H	 0.7487695244	 2.0987018287	-0.1226266539	 0.116605
H	-0.9290368783	 1.8519769623	-0.6210775387	 0.11281
H	-0.4982777385	 1.8264070386	 1.0931892472	 0.129651
H	-0.928745812	-0.4734405618	 0.2305553412	 0.064412
H	 0.6506659545	 0.8810562861	-2.7495900208	 0.117406
H	 1.3287258408	-0.659860551	-3.2891330443	 0.11728
H	-0.404518271	-0.5228734902	-2.9622085735	 0.116296
H	 3.0235300776	-0.8242506362	-0.5878050516	 0.083805
H	 2.3785691352	 0.8493857505	-0.4506650025	 0.094734
H	 2.2648175592	-0.6106724097	 2.443402137	 0.278373
H	 1.0175647321	-2.9026748699	 1.232828964	 0.097625
H	 0.4883960693	-2.9082350726	-1.4641563765	 0.097233
170.5673	195.3965	201.533	206.287	228.3637	257.4643	332.9221	386.5149	421.8942	476.2439	546.4271	558.0064	595.8623	657.944	670.9387	696.9462	795.2698	831.1341	886.7787	894.6868	901.1453	980.4886	1012.924	1047.77	1052.3073	1076.942	1093.2779	1120.8716	1143.4455	1170.7933	1191.4638	1215.5064	1241.0474	1307.5725	1339.6478	1349.7986	1382.9692	1406.4148	1414.9079	1486.1839	1490.7419	1495.4786	1496.9653	1508.5812	1628.0467	3025.2151	3035.647	3054.0312	3060.9867	3086.7742	3096.3236	3098.2441	3113.0826	3126.0746	3203.5338	3233.063	3807.6587
CC1C2(C)CC1(O)C=C2	C[C@H]1[C@@]2(C)C[C@]1(O)C=C2	
InChI=1S/C8H12O/c1-6-7(2)3-4-8(6,9)5-7/h3-4,6,9H,5H2,1-2H3	InChI=1S/C8H12O/c1-6-7(2)3-4-8(6,9)5-7/h3-4,6,9H,5H2,1-2H3/t6-,7+,8+/m0/s1
