13
gdb 26811	3.86726	1.12819	0.87745	5.1929	71.72	-0.2218	-0.0322	0.1897	1206.5314	0.091317	-448.97141	-448.963478	-448.962534	-449.003894	29.116	
N	-0.1871239297	 1.4059570841	-0.0065252397	-0.624529
C	-0.0412058084	-0.0007313607	-0.017418762	 0.097437
C	-1.1204013109	-0.858203507	-0.0967028838	 0.399714
O	-2.4346376146	-0.6185811221	-0.1750423292	-0.424417
N	-0.6187204474	-2.1199694294	-0.0835582881	-0.361369
C	 0.7581929468	-1.9893949287	 0.0046744827	 0.228494
N	 1.118193439	-0.7200862904	 0.0444151135	-0.315945
C	 1.6087556408	-3.1178262896	 0.0419166947	 0.231324
N	 2.2711902018	-4.0685799929	 0.0697820633	-0.343128
H	 0.3052756067	 1.8322518819	-0.7866506823	 0.252436
H	 0.2058134853	 1.8093037751	 0.8394541215	 0.252447
H	-2.5238773949	 0.3466682796	-0.1664432159	 0.316737
H	-1.1471475746	-2.9764631097	-0.1287402945	 0.290798
123.4665	150.1534	175.9224	246.4513	267.9262	336.6271	450.4924	496.637	523.1141	538.3069	538.4656	620.608	674.0777	708.8422	714.2887	835.6566	880.0715	1014.9265	1166.8832	1219.3722	1225.0783	1245.8542	1335.4584	1421.2822	1512.1117	1563.0822	1638.7922	1684.2311	2337.3283	3489.1341	3551.2512	3657.6353	3740.1984
NC1=C(O)NC(=N1)C#N	Nc1c(O)[nH]c(n1)C#N	
InChI=1S/C4H4N4O/c5-1-2-7-3(6)4(9)8-2/h9H,6H2,(H,7,8)	InChI=1S/C4H4N4O/c5-1-2-7-3(6)4(9)8-2/h9H,6H2,(H,7,8)
