18
gdb 122706	2.84779	0.80305	0.72876	1.6137	77.51	-0.249	0.0202	0.2691	1608.3001	0.144499	-439.032202	-439.021933	-439.020989	-439.069124	35.681	
O	-0.9245349277	 1.4156520101	-1.0466320743	-0.416748
C	-0.5028518425	 0.4274022952	-0.1260129925	-0.063135
C	-1.6651197204	-0.4414502113	 0.343652369	-0.092219
O	-2.2301432929	-1.1368499412	-0.7676869208	-0.21227
C	-3.3139156123	-0.5822237993	-1.3494944062	 0.122013
N	-3.69302848	-0.997738087	-2.4766371775	-0.248778
C	-4.901323884	-0.4445650899	-3.0762184372	-0.259235
C	-5.6104680527	 0.6125484342	-2.347960883	 0.28656
C	-6.1782348642	 1.478866593	-1.7368373021	-0.467539
H	-1.1064470606	 0.9759965485	-1.8837389535	 0.300407
H	 0.2835020717	-0.2133123869	-0.549929594	 0.106995
H	-0.0775217388	 0.9538813112	 0.7358978414	 0.114339
H	-1.3203576869	-1.2012568895	 1.0522470204	 0.116348
H	-2.4270782124	 0.1791393441	 0.831561339	 0.116228
H	-3.8032169103	 0.2019948684	-0.7606048926	 0.107909
H	-4.6352368647	-0.0719547404	-4.0744033809	 0.142351
H	-5.5931449343	-1.2782954651	-3.25673491	 0.14483
H	-6.691784157	 2.2468147557	-1.2127800554	 0.201944
30.2656	45.3542	100.0993	133.8525	172.9153	225.7968	265.5891	309.1279	330.0624	376.1734	429.0622	471.8766	544.5356	616.9385	654.0489	670.6817	880.7529	895.2312	924.3	957.1753	1016.8436	1024.8284	1062.5532	1072.6695	1128.3337	1215.4532	1236.707	1266.2435	1320.6702	1348.8161	1387.6157	1400.913	1410.4359	1418.1453	1469.5001	1489.8426	1495.553	1765.0364	2227.3332	3006.8676	3016.2156	3027.9607	3034.5545	3059.7294	3075.5885	3092.5455	3503.0282	3819.9933
OCCOC=NCC#C	OCCOC=NCC#C	
InChI=1S/C6H9NO2/c1-2-3-7-6-9-5-4-8/h1,6,8H,3-5H2	InChI=1S/C6H9NO2/c1-2-3-7-6-9-5-4-8/h1,6,8H,3-5H2
