25
gdb 36960	6.14338	0.51275	0.50709	0.0759	94.13	-0.2643	0.0944	0.3587	2282.2563	0.228966	-352.335155	-352.325055	-352.324111	-352.37151	37.628	
C	 0.1246812336	 1.4279065693	 0.0064980654	-0.160869
C	 0.0941253233	-0.1005323249	 0.1338243749	-0.206914
C	-1.3059371213	-0.6636513183	 0.2590750575	 0.0368
C	-2.1313638572	-0.9400971268	-0.9733816979	-0.253747
C	-1.6044537898	-2.0852994008	-0.1418888258	-0.276997
C	 1.5424067318	 1.9993133352	-0.1231877829	-0.206915
C	 1.571497403	 3.5082850252	-0.2461691719	 0.036798
C	 1.5396383144	 4.3761713773	 0.9877113084	-0.253747
C	 2.7954443911	 4.2914606378	 0.1532779394	-0.276996
H	-0.4724790028	 1.7286060602	-0.8646737273	 0.094236
H	-0.3664295495	 1.8780201472	 0.8795203854	 0.094236
H	 0.5848425337	-0.5496522642	-0.7409648689	 0.087571
H	 0.69180578	-0.4048482197	 1.0047375248	 0.091779
H	-1.8592101645	-0.2921633662	 1.1190298573	 0.077726
H	-3.1950739113	-0.7304596661	-0.947923148	 0.107828
H	-1.6693174638	-0.7643318975	-1.939905478	 0.106842
H	-0.7914695179	-2.6757481676	-0.5524258487	 0.107469
H	-2.3082247367	-2.656395042	 0.4537787763	 0.107842
H	 2.1384907567	 1.6986627428	 0.7497729334	 0.087571
H	 2.0370932171	 1.5499587087	-0.995934115	 0.091779
H	 1.0258608697	 3.8949554583	-1.1043082177	 0.077727
H	 0.9659571886	 5.2961971583	 0.9649567246	 0.107828
H	 1.5415198656	 3.8803283693	 1.9534669883	 0.106842
H	 3.6369725603	 3.7404247564	 0.561081551	 0.107469
H	 3.0781519358	 5.153064918	-0.4416824248	 0.107842
49.0007	54.3242	93.2304	119.1236	141.997	215.4922	271.7179	357.8639	362.73	416.5049	482.6883	739.292	768.1922	776.0067	799.7565	810.745	831.3634	833.0892	868.7218	915.8953	918.1927	959.976	986.6396	1029.6962	1039.0808	1053.6489	1061.7595	1063.0189	1077.0047	1077.3016	1115.2167	1140.9871	1144.2857	1197.7953	1198.6732	1199.3582	1227.1169	1228.8562	1245.5019	1263.4953	1309.0794	1327.5841	1341.1936	1385.5434	1416.3757	1419.8847	1468.0408	1468.4907	1480.3569	1483.8892	1503.1979	1507.3127	1508.4011	2998.4131	3001.8014	3016.975	3025.3654	3032.2208	3061.4847	3125.7986	3125.8237	3126.8119	3126.8792	3131.9892	3132.215	3203.2976	3203.3018	3218.6846	3218.7276
C(CC1CC1)CC1CC1	C(CC1CC1)CC1CC1	
InChI=1S/C9H16/c1(2-8-4-5-8)3-9-6-7-9/h8-9H,1-7H2	InChI=1S/C9H16/c1(2-8-4-5-8)3-9-6-7-9/h8-9H,1-7H2
