19
gdb 47808	2.09217	1.9351	1.15537	4.4142	75.38	-0.2204	-0.02	0.2004	1079.7387	0.161785	-419.184733	-419.176825	-419.175881	-419.217298	30.801	
O	-0.0179937006	-0.0603386563	-0.2692452045	-0.290863
C	-0.0208297805	 1.1277317138	-0.0709544236	 0.403522
C	-1.3124548992	 1.9482546465	 0.0327064719	-0.252959
N	-1.6323996196	 2.2098229254	 1.4384331606	-0.286536
C	-0.8391748936	 3.2325979436	 2.1194518849	-0.157573
C	 0.5717122698	 2.7315797982	 2.4728631035	-0.198045
C	 1.5269059165	 2.7417753246	 1.2927605532	-0.020563
N	 2.270306422	 1.4961553865	 1.0110058013	-0.320817
C	 1.2482013754	 1.9462231119	 0.0693390148	-0.134792
H	-1.1996311891	 2.8751771741	-0.5641273117	 0.080662
H	-2.1171542972	 1.347450091	-0.3976290081	 0.11995
H	-2.6146719825	 2.4447733677	 1.5056964193	 0.226644
H	-0.7627745368	 4.1716651723	 1.5370489944	 0.074791
H	-1.3682330291	 3.4752906425	 3.0467155972	 0.102592
H	 0.9870203106	 3.3493513945	 3.2771900753	 0.096207
H	 0.4894159645	 1.7092770457	 2.8544502337	 0.131955
H	 2.0520864474	 3.6823101543	 1.1320398172	 0.084188
H	 3.2001421714	 1.6969310055	 0.6527249602	 0.235098
H	 1.5612467404	 2.3818047483	-0.8811849696	 0.106539
66.525	162.3837	208.0911	278.6509	316.2204	371.6182	397.6163	457.5806	520.3686	568.0135	634.5394	709.6374	771.748	850.972	875.2476	899.9648	919.7298	950.6477	978.702	985.6123	1041.8654	1061.1534	1115.8908	1150.8276	1156.5775	1167.213	1195.1458	1248.5711	1254.2949	1269.9374	1309.5213	1330.364	1358.6058	1402.0355	1414.6664	1460.1551	1474.5573	1479.1402	1489.6416	1499.9574	1831.6002	2903.5364	2910.6629	3039.2882	3069.6409	3088.7424	3094.2672	3101.7095	3116.9486	3505.1831	3549.7418
O=C1CNCCC2NC12	O=C1CNCC[C@H]2N[C@@H]12	
InChI=1S/C6H10N2O/c9-5-3-7-2-1-4-6(5)8-4/h4,6-8H,1-3H2	InChI=1S/C6H10N2O/c9-5-3-7-2-1-4-6(5)8-4/h4,6-8H,1-3H2/t4-,6-/m1/s1
