16
gdb 133660	2.41719	1.27004	1.00847	1.9889	53.91	-0.2702	0.0564	0.3266	1170.4364	0.117917	-606.526038	-606.516279	-606.515335	-606.561307	34.893	
C	-0.1321676531	 1.5700973999	 0.004264838	-0.406645
C	 0.0093919646	 0.0507578685	 0.0758138142	 0.109684
O	-1.2211715418	-0.5843450479	 0.376843334	-0.422565
C	 0.6615493877	-0.5016290722	-1.2141140165	-0.062841
O	 1.9295716449	 0.0814859381	-1.4363505715	-0.415708
C	 0.805355623	-2.03001316	-1.2189990872	 0.270327
F	-0.3673437579	-2.6647767073	-1.2191677482	-0.061934
F	 1.4825319822	-2.4363534534	-2.2998940862	-0.06834
F	 1.5040708506	-2.4332682803	-0.1371783458	-0.098452
H	 0.829945084	 2.0464073783	-0.1951797598	 0.136309
H	-0.8200994227	 1.8533425352	-0.8027591407	 0.108902
H	-0.5359600977	 1.9490902036	 0.9462275827	 0.128525
H	 0.6686212505	-0.2172483016	 0.9109847328	 0.097072
H	-1.8634643391	-0.3377882876	-0.2980339868	 0.282191
H	 0.0476048515	-0.2389639072	-2.0842219327	 0.109049
H	 2.5211343035	-0.2223361961	-0.7370087163	 0.294426
35.3443	82.8202	177.4428	211.5287	243.8662	265.0157	281.055	313.6843	326.6959	371.2696	427.1631	459.4432	505.2866	549.2551	589.3569	702.6949	830.2372	886.5389	962.346	1052.8851	1088.0736	1104.9808	1146.9944	1177.4117	1222.0039	1236.1472	1271.0759	1317.0332	1333.7746	1384.1316	1399.588	1422.4016	1430.6275	1489.8437	1496.728	3027.8367	3037.6976	3058.0974	3107.5986	3141.5156	3790.8045	3801.1782
CC(O)C(O)C(F)(F)F	C[C@@H](O)[C@@H](O)C(F)(F)F	
InChI=1S/C4H7F3O2/c1-2(8)3(9)4(5,6)7/h2-3,8-9H,1H3	InChI=1S/C4H7F3O2/c1-2(8)3(9)4(5,6)7/h2-3,8-9H,1H3/t2-,3-/m1/s1
