18
gdb 115419	2.90518	1.12295	0.93411	3.9798	71.96	-0.289	0.0148	0.3038	1295.2107	0.147414	-439.097655	-439.088652	-439.087707	-439.132571	31.806	
C	 0.0217492728	 1.508582233	-0.0350072376	-0.385832
C	-0.0567012587	-0.0084778089	 0.1552008447	-0.207649
C	 0.8845844342	-0.5250592945	 1.2304141363	 0.101401
C	 0.8712602046	-2.0516340245	 1.4534851808	-0.111582
O	 2.2517577432	-2.4154406627	 1.5908506037	-0.248699
C	 3.0038256633	-1.2301873353	 1.5232256401	 0.058906
O	 2.2476741807	-0.2858451171	 0.8333383184	-0.24074
C	 3.3381034791	-0.7503806352	 2.9022240793	 0.271993
N	 3.6039001007	-0.3766428537	 3.9623896192	-0.323774
H	 1.0337726374	 1.8118541164	-0.3153288487	 0.140591
H	-0.6641535538	 1.8383368391	-0.820297856	 0.118919
H	-0.2444876478	 2.0369071058	 0.8866664214	 0.121523
H	-1.0767748245	-0.3023096556	 0.4328059149	 0.108645
H	 0.178851504	-0.5242085919	-0.7834186508	 0.112449
H	 0.7001548215	-0.0037114919	 2.1811506974	 0.098734
H	 0.3172294512	-2.3356483815	 2.3532823144	 0.124653
H	 0.4607157658	-2.5886391109	 0.5915498343	 0.117691
H	 3.9333299864	-1.4159002403	 0.9768764882	 0.14277
39.8889	86.0416	109.0893	172.4707	219.1012	239.6742	281.4653	391.3187	430.2444	528.1459	586.8773	663.9927	775.4311	812.3166	857.5406	915.8293	957.9637	967.2738	985.167	1016.653	1050.3341	1098.5858	1123.2105	1147.4618	1180.1865	1222.4345	1298.7097	1313.358	1329.8969	1361.7648	1377.1938	1384.7011	1413.4889	1421.2144	1474.3806	1499.2365	1507.5053	1524.1175	2354.2772	3000.3535	3029.0457	3041.1007	3042.3437	3069.0051	3079.7299	3090.5753	3110.1098	3126.3842
CCC1COC(O1)C#N	CC[C@H]1CO[C@@H](O1)C#N	
InChI=1S/C6H9NO2/c1-2-5-4-8-6(3-7)9-5/h5-6H,2,4H2,1H3	InChI=1S/C6H9NO2/c1-2-5-4-8-6(3-7)9-5/h5-6H,2,4H2,1H3/t5-,6-/m0/s1
