16
gdb 49108	3.78766	1.43711	1.19079	3.1348	79.6	-0.2376	-0.0835	0.1541	1016.2232	0.125086	-400.658918	-400.652048	-400.651104	-400.690283	26.834	
O	-0.0617310275	 0.2365378064	 0.519590493	-0.281586
C	 0.0352502718	 1.3787810386	 0.1137319133	 0.072876
C	 1.2662511323	 1.9685704834	-0.3804770573	 0.141949
C	 1.4782906096	 3.3028703673	-0.530626129	 0.041418
C	 1.4136538123	 4.2461601046	 0.6541164259	-0.271804
C	 2.9496210061	 3.9267469205	 0.6249161205	-0.059303
C	 3.4610765734	 2.6023383582	 0.0193352379	-0.034375
C	 2.6390708512	 1.3277855063	-0.2040394821	-0.322035
N	 2.879485332	 3.6412032018	-0.8431593496	-0.113037
H	-0.8468364482	 2.0560192066	 0.0898097686	 0.068862
H	 1.2956045125	 5.3096630121	 0.4259803638	 0.135661
H	 0.7866025406	 3.9514384696	 1.4952182294	 0.131467
H	 3.6851125463	 4.6401219409	 0.9955608051	 0.114929
H	 4.5483817026	 2.5401742531	 0.0019122374	 0.104671
H	 2.6014181681	 0.62987337	 0.637552151	 0.143693
H	 3.0407886168	 0.7827777606	-1.067928228	 0.126615
106.3552	183.5322	228.484	310.6772	424.3925	485.1444	500.3684	639.358	678.4642	749.9597	768.6739	806.3225	850.3409	891.1065	937.5318	969.4297	999.0941	1022.2677	1031.9911	1045.1654	1076.6585	1094.1911	1118.9001	1154.7477	1177.6037	1222.0206	1264.2356	1298.2187	1322.0856	1364.4582	1412.1467	1481.6526	1493.638	1592.2248	1755.2795	2884.13	3025.3373	3059.9819	3092.2316	3114.8915	3133.3239	3139.7856
O=CC1=C2CC3C(C1)N23	O=C[C]1[C]2C[C@H]3[C@@H](C1)N23	
InChI=1S/C7H7NO/c9-3-4-1-6-7-2-5(4)8(6)7/h3,6-7H,1-2H2	InChI=1S/C7H7NO/c9-3-4-1-6-7-2-5(4)8(6)7/h3,6-7H,1-2H2/t6-,7+,8?/m1/s1
