19
gdb 73981	3.3644	1.46191	1.23627	1.9594	83.74	-0.1991	-0.027	0.1722	1062.7493	0.158409	-385.793172	-385.785215	-385.78427	-385.825028	32.106	
C	-0.2161853546	 1.3466882664	-0.1017634324	-0.472155
C	-0.0477466357	-0.0725695596	 0.3322590775	 0.2686
C	-1.0522689289	-0.9776779781	 0.4314820159	-0.046181
C	-1.7826359298	-1.2992337084	-0.884224665	-0.326442
C	-0.6955302099	-2.4383633446	-0.9423180335	 0.364515
O	-0.8649843624	-3.5946725514	-1.687173323	-0.452237
C	 0.7358020581	-2.1833420685	-0.2623218467	-0.105163
C	 1.282071486	-0.8069959912	 0.1459272797	-0.31348
C	-0.5028918208	-2.4139213677	 0.5328594639	-0.160414
H	 0.3036317921	 1.5454625186	-1.049058932	 0.120161
H	-1.2722514142	 1.6081033928	-0.2131550849	 0.126866
H	 0.2172719034	 2.037095078	 0.6344986149	 0.131268
H	-2.7658341324	-1.7777036678	-0.8067063586	 0.108767
H	-1.8058394114	-0.5160346547	-1.6493389814	 0.091527
H	-0.5774358714	-3.415658672	-2.5891611917	 0.285227
H	 1.4108497922	-3.0139758185	-0.4590823022	 0.079888
H	 1.8604514855	-0.2913043526	-0.6319624486	 0.101097
H	 1.9426124526	-0.8898570655	 1.0222443616	 0.105465
H	-0.7221608286	-3.1603539251	 1.2854760565	 0.092691
132.4447	182.9308	245.529	253.8382	332.9939	364.4342	386.7681	438.3424	476.3936	554.2547	581.3051	650.162	733.0466	787.5567	862.7273	892.9044	922.5814	929.8693	946.4864	972.1379	989.2448	1003.0822	1029.5466	1063.1983	1090.5258	1094.256	1151.3045	1177.7184	1191.11	1211.868	1235.8144	1257.2113	1285.6009	1322.1109	1404.2065	1416.22	1463.4265	1481.4034	1487.2786	1500.7933	1616.1581	2986.7092	3005.9355	3024.1564	3034.4784	3049.0111	3081.1209	3107.6085	3136.0067	3194.5979	3795.102
CC1=C2CC3(O)C(C1)C23	C[C]1[C]2C[C@@]3(O)[C@@H](C1)[C@@H]23	
InChI=1S/C8H10O/c1-4-2-6-7-5(4)3-8(6,7)9/h6-7,9H,2-3H2,1H3	InChI=1S/C8H10O/c1-4-2-6-7-5(4)3-8(6,7)9/h6-7,9H,2-3H2,1H3/t6-,7+,8+/m0/s1
