17
gdb 51243	3.55829	1.12189	0.98149	3.1032	68.99	-0.2622	-0.0063	0.2559	1203.2408	0.134778	-458.943091	-458.934811	-458.933867	-458.977418	29.637	
O	-0.0042923294	 0.0076109584	-0.1732632633	-0.266919
C	 0.0062893904	 1.1963220343	-0.0692967898	 0.147658
O	 1.1493705822	 1.9153617539	-0.064790839	-0.236038
C	 1.0192034373	 3.3186935388	 0.0598722112	 0.360769
C	 0.4639272353	 4.1204855973	-1.1473187169	-0.297127
C	 1.7168686329	 5.0540293544	-1.0885891412	-0.232771
C	 2.2632525563	 4.2383556416	 0.1079971	 0.055405
O	 1.8519233288	 4.776608728	 1.3821229088	-0.28424
C	 0.7121098495	 3.8915078937	 1.4570619446	-0.124733
H	-0.9008363035	 1.82261826	 0.0327069512	 0.083055
H	 0.4299972254	 3.5116722346	-2.0532536726	 0.125186
H	-0.5114632282	 4.59021708	-0.9999386823	 0.110443
H	 2.3398144995	 5.0015628363	-1.9841429472	 0.116364
H	 1.5272010624	 6.0996647881	-0.842149901	 0.1224
H	 3.2990057889	 3.8937222925	 0.1034350084	 0.096189
H	-0.2340915138	 4.4317490266	 1.58100222	 0.107268
H	 0.825367456	 3.1526475016	 2.2601560792	 0.117091
31.7306	87.8535	134.5917	152.8574	289.1695	337.348	395.9548	432.4259	504.3337	664.2783	740.3741	764.1034	872.1085	879.5067	928.3158	943.9599	981.8698	1005.4266	1031.4703	1046.2507	1094.2597	1112.35	1146.6166	1178.7561	1191.374	1208.9446	1220.5214	1249.2928	1275.8052	1280.4819	1312.5652	1368.1299	1430.7194	1463.6116	1481.9342	1515.2931	1869.0553	2952.7479	3014.9982	3065.6536	3067.5012	3075.7641	3099.8978	3119.6005	3141.0856
O=COC12CCC1OC2	O=CO[C@]12CC[C@H]1OC2	
InChI=1S/C6H8O3/c7-4-9-6-2-1-5(6)8-3-6/h4-5H,1-3H2	InChI=1S/C6H8O3/c7-4-9-6-2-1-5(6)8-3-6/h4-5H,1-3H2/t5-,6+/m1/s1
