20
gdb 110396	5.68664	0.96975	0.95714	1.2609	80.5	-0.2302	0.0749	0.305	1324.9309	0.170126	-403.0374	-403.028957	-403.028012	-403.070569	31.957	
C	 0.0093200419	 1.388179385	-0.2793126234	-0.239006
O	-0.0549510442	 0.1490817239	 0.3947734362	-0.256933
C	-1.2781202504	-0.5058197227	 0.2331973799	 0.148884
C	-1.4973298004	-1.3909728329	-1.0056445884	-0.056466
C	-0.5679178938	-2.5285440391	-0.4828681698	-0.075106
C	-1.716269378	-3.5166532975	-0.6933654515	 0.065594
C	-1.8571850118	-4.767703741	 0.1494274883	-0.419665
N	-2.4876679663	-2.2815120048	-0.2054299926	-0.186571
C	-1.3108072651	-1.9359447621	 0.7556291698	-0.070162
H	 0.9822482729	 1.8301819077	-0.0528722348	 0.129211
H	-0.0816259318	 1.2699626536	-1.369227611	 0.108493
H	-0.7814594055	 2.0744251944	 0.0603985706	 0.108852
H	-2.1313348335	 0.129875972	 0.5129914586	 0.077283
H	-1.7149661121	-1.1349445106	-2.0442952335	 0.077418
H	 0.5096508496	-2.6425416176	-0.6303986538	 0.071357
H	-1.9589936959	-3.7315036399	-1.7425451058	 0.068076
H	-1.6033687932	-4.5885785417	 1.1984629983	 0.11773
H	-2.885844508	-5.1408008533	 0.1085818127	 0.127865
H	-1.1976827762	-5.5577895397	-0.2258488752	 0.118016
H	-1.301499898	-2.2853859137	 1.7877834255	 0.085128
73.0538	134.0414	171.0299	199.6751	226.3511	285.4625	309.3965	449.6653	501.4833	594.0035	723.4862	760.1568	813.957	838.5526	850.8018	856.0348	921.8403	955.6389	1024.5905	1029.666	1042.0951	1057.1906	1071.9245	1116.4148	1131.2242	1147.5602	1166.6167	1171.0646	1184.0901	1197.2887	1228.2914	1247.7401	1254.2848	1272.2722	1317.3559	1390.8932	1400.3577	1416.8699	1483.7855	1489.3655	1492.0185	1493.7729	1508.4996	2979.432	3002.6601	3018.0346	3028.6882	3034.9979	3065.2537	3098.324	3100.4148	3109.6959	3118.7232	3120.7568
COC1C2C3C(C)N2C13	CO[C@H]1[C@H]2[C@@H]3[C@@H](C)N2[C@H]13	
InChI=1S/C7H11NO/c1-3-4-5-7(9-2)6(4)8(3)5/h3-7H,1-2H3	InChI=1S/C7H11NO/c1-3-4-5-7(9-2)6(4)8(3)5/h3-7H,1-2H3/t3-,4-,5+,6-,7-/m1/s1
