19
gdb 88888	4.88706	0.63323	0.60002	2.0865	88.62	-0.2337	-0.0203	0.2134	1863.2512	0.158521	-419.228361	-419.218896	-419.217952	-419.263439	34.064	
C	 0.6398074138	 1.2104753175	-0.917895155	-0.39994
C	-0.0607323316	 0.0681854592	-0.2181627819	-0.010935
C	 0.649025932	-1.2322546961	 0.0420310365	-0.308317
C	 0.2973528491	-0.3250133158	 1.2058708576	 0.062399
N	 1.3640801844	 0.3574075557	 1.846721215	-0.239322
C	 1.2955731622	 0.5364604036	 3.0986708405	 0.104062
N	 2.3156179839	 1.2024682764	 3.770401714	-0.309746
C	 2.3228471943	 1.4374442724	 5.124168844	 0.159039
O	 1.4513708241	 1.097269937	 5.8895268363	-0.299319
H	 1.6866037061	 1.271564979	-0.6128489725	 0.129362
H	 0.6037521521	 1.0798566913	-2.0049737508	 0.112856
H	 0.1672468309	 2.1699289494	-0.6800984624	 0.113854
H	-1.1214658149	-0.0150925254	-0.4413781306	 0.086587
H	 0.1084280011	-2.1670790983	-0.0566847499	 0.112362
H	 1.7014473071	-1.2840988686	-0.2148299691	 0.118777
H	-0.5293866979	-0.6446675927	 1.8434510299	 0.077408
H	 0.4871941206	 0.2121692755	 3.758058747	 0.138188
H	 3.0890219831	 1.523992818	 3.2055096484	 0.263291
H	 3.2332020294	 1.9828656721	 5.436821553	 0.089395
49.6624	103.7177	126.0924	175.9419	191.6069	206.6009	302.4965	331.9067	383.5407	429.2502	492.0641	571.9901	647.498	761.4284	797.3983	838.563	874.1741	924.4601	974.4284	1011.9742	1027.2814	1037.6173	1060.3343	1090.8589	1106.789	1141.505	1188.8449	1197.9369	1240.1937	1247.604	1338.8714	1383.9499	1414.6421	1421.1214	1438.0414	1481.8585	1495.0417	1502.3082	1509.7388	1746.7014	1815.0605	2958.3656	3033.3409	3073.6626	3089.4381	3109.9827	3122.9206	3134.8649	3141.9032	3224.5101	3612.4202
CC1CC1N=CNC=O	C[C@H]1C[C@H]1N=CNC=O	
InChI=1S/C6H10N2O/c1-5-2-6(5)8-3-7-4-9/h3-6H,2H2,1H3,(H,7,8,9)	InChI=1S/C6H10N2O/c1-5-2-6(5)8-3-7-4-9/h3-6H,2H2,1H3,(H,7,8,9)/t5-,6+/m0/s1
