13
gdb 123499	4.27052	1.72236	1.22735	2.3174	73.47	-0.2438	-0.0658	0.178	908.1911	0.09386	-411.816553	-411.810889	-411.809944	-411.846565	22.47	
C	-0.0185742778	 1.3055938259	 0.0096647153	-0.18014
C	 1.2920729236	 1.775688465	-0.000516965	 0.343933
C	 2.0120100699	 2.9950986808	-0.000738579	-0.07186
N	 3.319902585	 3.0461983124	-0.013260359	-0.271063
C	 4.0043846519	 1.859876529	-0.0265998226	-0.033191
C	 3.4052730133	 0.6367243455	-0.027568532	-0.010311
N	 2.0379904226	 0.6108121553	-0.0143285516	-0.013104
N	 1.2471793459	-0.4784121969	-0.0125865433	-0.167773
N	 0.0046736655	-0.0388855027	 0.001814968	-0.17144
H	-0.9418658564	 1.8611188353	 0.0217750553	 0.140589
H	 1.4667510032	 3.9354519786	 0.009838557	 0.137996
H	 5.0858556087	 1.9290776766	-0.0367727608	 0.134193
H	 3.9090709648	-0.3193583348	-0.0378128124	 0.162171
209.061	243.4356	410.5049	435.677	566.1521	608.927	654.6902	698.7714	776.4294	805.9799	821.5483	841.4425	907.6621	949.8355	967.3787	977.7654	1047.1196	1144.2358	1182.4661	1205.0549	1252.3248	1300.0078	1336.2183	1373.1835	1378.2085	1482.7599	1526.5788	1551.8875	1651.0428	3165.4427	3203.1665	3248.6232	3276.1989
C1=C2C=NC=CN2N=N1	c1c2cnccn2nn1	
InChI=1S/C5H4N4/c1-2-9-5(3-6-1)4-7-8-9/h1-4H	InChI=1S/C5H4N4/c1-2-9-5(3-6-1)4-7-8-9/h1-4H
