16
gdb 99402	2.06196	1.45503	0.86227	6.3365	77.32	-0.2492	-0.0981	0.1511	1293.0288	0.121806	-434.077249	-434.066946	-434.066002	-434.113691	34.367	
C	-0.3892310281	-0.7219972874	-1.31570955	-0.312162
N	 0.0613175481	-0.108710094	-0.0702389924	-0.369395
C	 0.492772309	-0.7089057156	 1.0736422201	 0.329182
N	 0.8836684456	-0.1350088695	 2.1558264858	-0.268963
C	 0.8829517255	 1.3091246453	 2.2128343832	-0.353123
C	 0.5407548291	-2.2068466072	 1.1418187711	 0.236938
O	 0.2266887521	-2.9670472143	 0.2584200167	-0.292157
C	 1.0250078152	-2.7350231569	 2.4333291879	 0.282519
N	 1.3817842539	-3.2988285794	 3.3778048903	-0.320288
H	-1.2668553029	-1.3553724691	-1.1673786191	 0.150753
H	-0.6549194658	 0.0871642934	-1.9992763906	 0.126214
H	 0.3912816716	-1.3288455519	-1.780454137	 0.150679
H	 0.0556674995	 0.8962962801	-0.0457837538	 0.25426
H	 1.539784282	 1.7541333357	 1.446973301	 0.121442
H	-0.1256672359	 1.7288459056	 2.062848573	 0.121502
H	 1.239714421	 1.6368941251	 3.1910039739	 0.1426
30.8688	73.6993	122.7275	142.0691	170.6999	189.5704	222.6237	264.3122	303.5463	358.1441	359.3427	443.6128	540.188	585.6068	647.3624	730.8133	812.933	1003.3193	1056.3032	1093.3395	1129.8715	1153.5503	1170.2784	1217.1953	1403.6645	1429.3951	1464.0094	1483.5613	1484.4189	1499.2377	1503.1682	1521.5225	1690.8352	1782.9142	2339.2999	2957.3334	3001.6376	3052.0314	3116.9134	3119.5078	3132.5362	3662.6798
CNC(=NC)C(=O)C#N	CNC(=NC)C(=O)C#N	
InChI=1S/C5H7N3O/c1-7-5(8-2)4(9)3-6/h1-2H3,(H,7,8)	InChI=1S/C5H7N3O/c1-7-5(8-2)4(9)3-6/h1-2H3,(H,7,8)
