18
gdb 83089	2.44874	1.73867	1.48148	2.4083	70.53	-0.2425	0.0138	0.2562	973.1034	0.149002	-439.072757	-439.065008	-439.064064	-439.10452	30.474	
C	-0.1527554382	 1.5726027307	-0.0127617167	-0.43068
C	 0.0599506796	 0.0714620578	 0.0320217887	 0.009688
C	 1.1550795513	-0.6139940301	-0.8309155421	 0.044419
O	 2.398849928	 0.1140304417	-0.7297333825	-0.237324
C	 2.7048371093	 0.410786206	 0.5602204923	 0.099238
N	 2.0101558278	 0.1052368459	 1.5752359262	-0.256501
C	 0.7867773675	-0.6305312996	 1.2340904454	-0.034446
C	 1.169487073	-1.7541000017	 0.2308188097	 0.107305
O	 0.114500176	-2.6762648728	 0.0879879294	-0.434576
H	 0.7669631036	 2.1304720604	 0.1773316982	 0.131886
H	-0.5334949842	 1.8778555451	-0.9936111708	 0.11571
H	-0.8875847513	 1.8778355363	 0.7395322158	 0.122552
H	-0.8736055658	-0.463638525	-0.1495461295	 0.102244
H	 1.0022340482	-0.8278936533	-1.8899515625	 0.079418
H	 3.6356054193	 0.9675711288	 0.6304571621	 0.130989
H	 0.2253623557	-0.8966027922	 2.1291568837	 0.081627
H	 2.1358229976	-2.2426985002	 0.4050375749	 0.080664
H	 0.2926573826	-3.2221587676	-0.6852508323	 0.287784
165.102	203.994	231.3771	253.9214	288.6217	306.9423	361.312	451.5897	530.5929	553.4825	650.7565	692.6718	834.5035	840.2104	914.9148	929.1133	943.416	955.4289	966.5536	1036.7822	1076.1366	1080.7912	1132.1047	1148.6382	1149.6958	1167.4386	1204.6965	1233.4449	1271.1122	1298.6633	1315.5701	1343.4549	1374.5837	1380.3551	1414.751	1416.8988	1492.1548	1496.3664	1699.6821	3031.709	3037.447	3096.7319	3097.4583	3104.152	3117.2063	3126.2254	3180.0492	3805.7093
CC1C2OC=NC1C2O	C[C@H]1[C@H]2O[CH][N][C@@H]1[C@H]2O	
InChI=1S/C6H9NO2/c1-3-4-5(8)6(3)9-2-7-4/h2-6,8H,1H3	InChI=1S/C6H9NO2/c1-3-4-5(8)6(3)9-2-7-4/h2-6,8H,1H3/t3-,4+,5-,6-/m1/s1
