21
gdb 74362	2.64827	1.18443	0.87302	1.075	91.84	-0.2331	0.0232	0.2563	1375.4361	0.182564	-349.949648	-349.940534	-349.93959	-349.983251	35.322	
C	-0.0151958044	 1.5484592937	 0.0782816189	-0.472447
C	 0.0198536927	 0.0465554295	-0.0093601182	 0.301546
C	-0.02340927	-0.5934072123	-1.1797585276	-0.13847
C	-0.01958226	-2.1055839882	-1.3349852181	-0.200171
C	-0.3455602211	-2.807094876	 0.0032698208	-0.200009
C	 0.4551832652	-2.1750519047	 1.1435292298	-0.223
C	 0.0977045979	-0.6924852836	 1.3081516333	-0.276371
C	-0.9333340329	-2.5280958002	-2.3969082025	 0.308588
C	-1.6922599146	-2.8722250016	-3.2636371967	-0.460756
H	 0.8902828658	 1.9385741434	 0.5609855845	 0.120612
H	-0.1036786687	 2.0117142814	-0.9078601764	 0.121041
H	-0.8619152788	 1.8861078365	 0.6903739014	 0.122548
H	-0.071725308	-0.0251744963	-2.1051253757	 0.08725
H	 0.994165223	-2.4148797791	-1.6387895737	 0.109299
H	-1.4192543797	-2.7055032935	 0.200164898	 0.108984
H	-0.1361635879	-3.8775614535	-0.0839410961	 0.101839
H	 0.2753779623	-2.7137296157	 2.0798939117	 0.09302
H	 1.5275166629	-2.2693401517	 0.9278904993	 0.09927
H	 0.8296011022	-0.1970049262	 1.9598581643	 0.099162
H	-0.8665725368	-0.5914746269	 1.8293744404	 0.107625
H	-2.3582655892	-3.1768680051	-4.0321674172	 0.19044
86.8416	123.0196	162.0113	196.5188	261.8514	309.1395	327.3768	408.5061	442.8333	446.3234	517.6568	556.8304	608.5328	628.7316	635.1562	782.0935	828.5554	854.1917	898.6294	920.0988	960.4399	995.6038	1031.9446	1043.9695	1073.861	1086.3537	1130.3548	1159.353	1188.9988	1224.7075	1275.0956	1294.4698	1319.7171	1333.3564	1374.3416	1379.4827	1396.2541	1413.2714	1474.4585	1479.8692	1488.4962	1491.446	1498.1997	1737.7392	2233.8841	2961.92	2993.5988	3013.5864	3018.7382	3035.3063	3039.4332	3058.9804	3072.1633	3087.0348	3111.8183	3157.8614	3505.4601
CC1=CC(CCC1)C#C	CC1=C[C@@H](CCC1)C#C	
InChI=1S/C9H12/c1-3-9-6-4-5-8(2)7-9/h1,7,9H,4-6H2,2H3	InChI=1S/C9H12/c1-3-9-6-4-5-8(2)7-9/h1,7,9H,4-6H2,2H3/t9-/m1/s1
