19
gdb 104145	2.72609	1.24047	1.08123	2.8463	72.92	-0.2281	0.0478	0.2759	1194.631	0.159899	-456.371868	-456.362746	-456.361802	-456.405847	34.51	
C	 0.0060549337	 1.5081456969	 0.0051843631	-0.422383
C	-0.0435510863	-0.0222555896	-0.0326594557	 0.250936
C	-1.5027951826	-0.5196017114	-0.0872151592	-0.072661
O	-2.1974899933	-0.195531338	 1.0958082754	-0.425322
C	 0.8140042167	-0.6233688254	-1.1842470905	-0.156961
O	 1.7758858965	-1.4725316099	-0.521633522	-0.253126
C	 1.5185115419	-1.3450464921	 0.8059653619	 0.473667
N	 2.389165472	-2.0329575121	 1.601389227	-0.578571
N	 0.5619853404	-0.5917276077	 1.1887861814	-0.39739
H	 1.0301281328	 1.8576934306	 0.1646683621	 0.112983
H	-0.3649948494	 1.9316358986	-0.9353195707	 0.106319
H	-0.6214064486	 1.8788075529	 0.8184355537	 0.136437
H	-2.0408397714	-0.0503896438	-0.9198422047	 0.097794
H	-1.4947486794	-1.6091536398	-0.2635845616	 0.07263
H	-1.5932476075	-0.4374671299	 1.8117197048	 0.29017
H	 0.2362387168	-1.2404577005	-1.8803032624	 0.114232
H	 1.3612504944	 0.1356046087	-1.7505633941	 0.116186
H	 2.8328754825	-2.8319977714	 1.1771261092	 0.265738
H	 2.0797309408	-2.1622614961	 2.5512086125	 0.269324
46.5453	132.248	169.6642	232.4613	250.4957	311.2684	331.1693	368.7782	407.864	464.0185	507.4295	524.4445	526.0035	645.9452	720.2349	744.7569	835.0669	898.6639	930.0162	943.6311	976.8479	984.8756	1049.9414	1087.1733	1143.0497	1167.5214	1194.6737	1204.3533	1252.7679	1277.658	1350.7821	1379.1738	1402.9713	1433.2393	1445.0255	1483.247	1497.8125	1505.8909	1523.1123	1618.1589	1750.3803	2951.4054	3032.8596	3043.4854	3053.1883	3091.7984	3103.4777	3135.143	3598.1176	3713.6575	3744.8517
CC1(CO)COC(N)=N1	C[C@@]1(CO)COC(=N1)N	
InChI=1S/C5H10N2O2/c1-5(2-8)3-9-4(6)7-5/h8H,2-3H2,1H3,(H2,6,7)	InChI=1S/C5H10N2O2/c1-5(2-8)3-9-4(6)7-5/h8H,2-3H2,1H3,(H2,6,7)/t5-/m1/s1
