21
gdb 38533	3.01364	1.61189	1.18959	0.5289	90.09	-0.2122	0.0363	0.2485	1095.8547	0.185538	-349.943346	-349.935958	-349.935014	-349.974739	30.884	
C	-0.0856462041	 1.4149588297	 0.2367360546	-0.332684
C	 1.2911028861	 0.8674308968	-0.0077519424	-0.135524
C	 1.7812494104	 0.127429266	 1.2587875859	-0.346397
C	 0.5793770501	-0.8023023114	 1.0905072029	 0.329992
C	 0.2046479928	-2.0260230429	 1.4423211706	-0.255433
C	-0.9268206092	-2.705726485	 0.6992505803	-0.232647
C	-1.67168949	-1.7764232893	-0.286865842	-0.203945
C	-0.7230214438	-0.8572604952	-1.0931514653	-0.335443
C	 0.0498752015	-0.055915949	-0.0803446268	 0.332359
H	-0.3765779124	 1.75673158	 1.2283909679	 0.103353
H	-0.4971195511	 2.0082409067	-0.5756416702	 0.107732
H	 1.924783225	 1.2233082651	-0.8110360105	 0.090591
H	 2.7348600779	-0.3935770695	 1.1338988481	 0.113495
H	 1.8343259293	 0.7384753612	 2.1669669116	 0.102616
H	 0.7275462801	-2.5929291489	 2.2088649359	 0.076103
H	-0.5196785143	-3.5718362828	 0.1550859953	 0.101668
H	-1.6513438488	-3.1286104444	 1.4079145909	 0.100098
H	-2.2823398655	-2.380856832	-0.9658406703	 0.089314
H	-2.3638398329	-1.1398720004	 0.2777064415	 0.10373
H	-0.0408855826	-1.4723276045	-1.6949169405	 0.098814
H	-1.2924635583	-0.2287808001	-1.7855272276	 0.092207
132.0183	202.6166	263.5472	315.471	367.3109	414.4989	444.5562	507.0823	592.8922	669.3399	708.8997	789.5854	817.3371	820.5441	842.2565	881.9549	903.3665	919.1258	946.1923	977.2304	996.7305	1016.1167	1045.7052	1076.0596	1082.7352	1088.7879	1102.5474	1137.1563	1176.6472	1190.7373	1236.0857	1249.4165	1265.6311	1274.6722	1325.1885	1357.1918	1365.0512	1380.3719	1402.2971	1475.4855	1477.4545	1485.9151	1494.7459	1501.6629	1768.4614	2988.8	3017.1379	3022.1795	3035.7576	3036.4218	3070.9101	3076.2596	3089.1993	3094.0305	3152.6668	3179.5476	3190.0871
C1C2CC3=CCCCC123	C1[C@H]2CC3=CCCC[C@]123	
InChI=1S/C9H12/c1-2-4-9-6-8(9)5-7(9)3-1/h3,8H,1-2,4-6H2	InChI=1S/C9H12/c1-2-4-9-6-8(9)5-7(9)3-1/h3,8H,1-2,4-6H2/t8-,9-/m1/s1
