25
gdb 108471	1.99864	1.54349	1.17101	0.1808	91.94	-0.2532	0.0756	0.3289	1248.8656	0.228953	-352.343634	-352.333954	-352.33301	-352.378054	37.551	
C	-0.0251898337	 1.5395878649	 0.1761700583	-0.382294
C	 0.0373604839	 0.0099692499	 0.073591834	-0.288457
C	 0.6613598009	-0.4905147563	-1.2168451291	 0.393533
C	-0.203611544	-0.3413884235	-2.5118643906	-0.292134
C	-0.1732167293	-1.8851950372	-2.7219865206	-0.218636
C	 0.8240424207	-2.0223740888	-1.5499031567	-0.076182
C	 2.3093199356	-1.7659237982	-1.9277887999	-0.255982
C	 2.2011180139	-0.2988461831	-1.4087402195	-0.004984
C	 2.7598065511	 0.8217756484	-2.2758042153	-0.41819
H	 0.9768797268	 1.9809105101	 0.1611722199	 0.118578
H	-0.589775259	 1.9710801737	-0.6574758828	 0.116504
H	-0.5112315806	 1.8543874638	 1.1049808354	 0.110151
H	 0.6049343626	-0.3890231123	 0.9255968202	 0.088177
H	-0.9773701582	-0.4017392818	 0.1654741256	 0.088172
H	-1.2011968643	 0.0678679433	-2.3292146753	 0.096342
H	 0.2505596631	 0.2450785509	-3.314079262	 0.095625
H	-1.1395374473	-2.3543623384	-2.5173553884	 0.095942
H	 0.1782616722	-2.2428773919	-3.6948441114	 0.090825
H	 0.6415454359	-2.8053750721	-0.8108859728	 0.05447
H	 3.0435782633	-2.3879569108	-1.4100068345	 0.094882
H	 2.5032503783	-1.8430310922	-3.0034505775	 0.089913
H	 2.6558737499	-0.2328186007	-0.4124600312	 0.063682
H	 2.3682194277	 0.7806608216	-3.2978061644	 0.113472
H	 2.5208594352	 1.8099226445	-1.8676888026	 0.114473
H	 3.8511514054	 0.7466792463	-2.3448907088	 0.11212
56.4569	98.1788	155.752	201.3947	218.3814	255.0519	287.6995	319.4415	377.4523	412.3949	468.7429	591.3824	624.0023	743.3865	758.3721	791.403	827.8221	876.3976	880.5157	915.8191	940.0141	942.5944	986.7027	991.0979	1024.6769	1043.3793	1064.3376	1108.7587	1120.9051	1142.1011	1152.4712	1188.4307	1210.4572	1223.8172	1246.7599	1253.1832	1263.8157	1279.6815	1307.5279	1319.8012	1328.256	1362.662	1376.2151	1405.5132	1411.1723	1473.1687	1480.4501	1484.0692	1489.8049	1494.6553	1501.9461	1504.4434	1507.9864	3002.1673	3017.8067	3024.3523	3032.6161	3033.3008	3038.4197	3043.7339	3057.9256	3076.8799	3086.414	3088.9112	3093.2278	3098.4983	3100.1756	3102.283	3111.1386
CCC12CCC1CC2C	CC[C@]12CC[C@H]1C[C@H]2C	
InChI=1S/C9H16/c1-3-9-5-4-8(9)6-7(9)2/h7-8H,3-6H2,1-2H3	InChI=1S/C9H16/c1-3-9-5-4-8(9)6-7(9)2/h7-8H,3-6H2,1-2H3/t7-,8+,9-/m1/s1
