15
gdb 98962	3.49488	0.93706	0.74238	1.7137	66.29	-0.2671	-0.098	0.169	1444.5855	0.111245	-491.125624	-491.116406	-491.115461	-491.160491	31.448	
C	-0.5379939453	 1.6022145626	-0.9520653964	-0.228982
O	-0.7371015481	 0.1959746548	-0.7834045018	-0.260173
C	 0.3769976241	-0.5208352415	-0.5471057806	 0.518447
N	 1.5358817562	-0.0270078599	-0.4716538315	-0.571555
N	-0.0103634977	-1.8659702565	-0.4101372791	-0.400325
C	 0.8161754665	-2.918057601	-0.1632692215	 0.320359
O	 2.0231033085	-2.8889362773	-0.0179964726	-0.33894
C	 0.0575057755	-4.2467132835	-0.0745317484	 0.109616
O	-1.1345173787	-4.3347182287	-0.2105593277	-0.2407
H	-0.0926260957	 2.0376295515	-0.0540697042	 0.145693
H	 0.1233991573	 1.7976620882	-1.799822642	 0.145699
H	-1.5298704853	 2.017457692	-1.131877925	 0.132808
H	 2.2251869751	-0.7525378131	-0.2866857301	 0.25746
H	-0.9951865609	-2.08386767	-0.5019363222	 0.281498
H	 0.7236590384	-5.1071292075	 0.1267416632	 0.129095
81.1035	83.1781	133.7933	152.3284	179.2077	186.3017	248.0542	320.7964	400.4683	521.8176	583.8902	590.7627	693.1187	734.156	754.2459	890.5257	938.7387	974.2753	1026.1481	1079.6138	1132.1765	1183.9959	1218.1623	1222.1373	1359.2499	1371.0971	1474.016	1476.0921	1499.5186	1536.9621	1738.8134	1801.2894	1826.3456	2972.4426	3052.2208	3127.8777	3158.417	3528.0869	3579.4559
COC(=N)NC(=O)C=O	COC(=N)NC(=O)C=O	
InChI=1S/C4H6N2O3/c1-9-4(5)6-3(8)2-7/h2H,1H3,(H2,5,6,8)	InChI=1S/C4H6N2O3/c1-9-4(5)6-3(8)2-7/h2H,1H3,(H2,5,6,8)
