13
gdb 9994	2.79978	1.4322	0.9964	1.9151	64.57	-0.2621	-0.0551	0.207	1104.7977	0.091473	-398.550724	-398.542002	-398.541057	-398.585751	28.925	
N	-0.2407491811	 1.3780931828	 0.1258048127	-0.429368
C	-0.1476627526	 0.12524592	 0.0624441407	 0.133255
O	-1.2778212288	-0.6246319257	-0.0006781866	-0.188434
C	-1.1151750755	-2.0422719298	 0.0887975313	-0.146258
C	-1.2949522612	-2.4541372183	 1.5661137312	 0.154202
O	-0.5292358837	-3.1680926915	 2.1498348551	-0.223067
C	-2.1276148181	-2.7033439899	-0.7192758736	 0.295608
C	-2.9828550892	-3.2918902949	-1.3230902471	-0.402786
H	 0.685349154	 1.7999351095	 0.1398477098	 0.238015
H	 0.7743807276	-0.4707182274	 0.0366835331	 0.102114
H	-0.1076952164	-2.3466858379	-0.2223913116	 0.133093
H	-2.1954627644	-2.0074251894	 2.0352349094	 0.116107
H	-3.7305155906	-3.8032116976	-1.8788899843	 0.217519
31.6258	65.9344	96.6094	146.9337	173.9793	318.8584	330.3509	441.3428	479.1819	493.5304	646.2684	675.9646	692.486	817.7671	934.5608	1000.5049	1039.2082	1042.4102	1064.8823	1111.841	1251.1526	1273.0771	1342.7764	1396.257	1425.3484	1750.3213	1843.2907	2241.9165	2933.5929	3029.5235	3036.7664	3499.9972	3523.7473
N=COC(C=O)C#C	[NH][CH]O[C@@H](C=O)C#C	
InChI=1S/C5H5NO2/c1-2-5(3-7)8-4-6/h1,3-6H	InChI=1S/C5H5NO2/c1-2-5(3-7)8-4-6/h1,3-6H/t5-/m1/s1
