20
gdb 40797	3.97461	1.0704	0.89544	2.4909	80.05	-0.2434	0.0301	0.2735	1319.4903	0.172978	-403.152711	-403.144564	-403.14362	-403.185919	31.167	
C	-0.1451359315	 1.4027746633	-0.1931266812	-0.273239
C	 1.268777052	 0.9865715198	 0.1207176242	-0.270849
C	 0.1792566559	-0.0510012773	 0.0510381969	 0.013199
C	-0.3106047901	-0.7170885085	 1.3066704263	 0.128115
C	-1.6985088055	-1.3418591439	 1.1833354415	-0.239135
C	-2.0267824945	-2.1053747087	 2.470162238	-0.164835
N	-0.9355088303	-2.9664541741	 2.9189797576	-0.267369
C	 0.2244140434	-2.7265947977	 2.4772804057	 0.129678
O	 0.6547648254	-1.736707117	 1.6576625544	-0.244591
H	-0.6986534404	 1.9364203428	 0.5729332127	 0.113051
H	-0.3857154137	 1.708881543	-1.2046752302	 0.116724
H	 2.0036070426	 1.008171328	-0.675730485	 0.116908
H	 1.6663650631	 1.2340111769	 1.0991690991	 0.118281
H	 0.1826387772	-0.7033817128	-0.8179013996	 0.089374
H	-0.3139642489	 0.016600213	 2.1268759382	 0.079126
H	-2.4377048849	-0.5610483203	 0.9782631263	 0.106174
H	-1.7021393117	-2.0304962772	 0.3296932722	 0.109784
H	-2.2751083417	-1.4057151296	 3.2801985131	 0.109253
H	-2.9148901731	-2.7313268846	 2.329670281	 0.110562
H	 1.0637537065	-3.3659854349	 2.7473390589	 0.119789
74.8474	94.4716	161.1952	206.0832	289.7757	374.9299	436.623	473.9196	520.9814	553.6765	763.2817	789.7184	829.7093	848.925	864.9132	899.4565	924.6069	958.9824	965.7439	991.722	1030.5961	1057.9072	1066.2693	1078.7073	1122.2502	1131.7823	1159.9499	1196.3756	1198.1287	1223.6338	1236.2436	1258.8335	1313.1834	1350.047	1365.1819	1384.5325	1411.0809	1441.4908	1470.9067	1478.5085	1491.9488	1507.9081	1733.5283	2991.2501	3013.1071	3035.4887	3058.9591	3088.7207	3132.6351	3138.1961	3147.3043	3151.3746	3211.9091	3227.0755
C1CC1C1CCN=CO1	C1CC1[C@H]1CCN=CO1	
InChI=1S/C7H11NO/c1-2-6(1)7-3-4-8-5-9-7/h5-7H,1-4H2	InChI=1S/C7H11NO/c1-2-6(1)7-3-4-8-5-9-7/h5-7H,1-4H2/t7-/m1/s1
