18
gdb 48277	2.4113	1.13882	0.84549	4.127	76.03	-0.2534	-0.0283	0.225	1362.3283	0.148004	-435.256863	-435.247664	-435.24672	-435.292471	32.277	
N	 0.1826013846	 1.133825497	-0.0434774695	-0.454853
C	 0.0160568363	-0.1230787191	-0.0905278697	 0.10841
N	-1.2311671002	-0.7326554444	 0.0375919975	-0.063061
C	-1.3408735183	-2.1939248219	 0.0768231662	-0.230248
C	-1.2980182878	-2.757834831	 1.4794560746	 0.036401
C	-0.7926904808	-4.1328619103	 1.7031250102	-0.243403
N	-0.0186572981	-2.9704472189	 2.1760652721	-0.3103
C	-2.3945571419	 0.0158736687	 0.1598854461	 0.165189
O	-3.486616286	-0.4841812657	 0.3057796552	-0.325137
H	 1.1622541553	 1.3699988822	-0.1797636646	 0.236705
H	 0.8117852448	-0.8615109806	-0.2440149264	 0.095472
H	-2.2925430699	-2.4522174169	-0.3935180117	 0.152377
H	-0.5309029561	-2.6168822813	-0.5283334525	 0.104813
H	-2.0867798998	-2.3830726953	 2.1265929798	 0.121689
H	-1.2222906407	-4.7500052008	 2.4862808306	 0.129013
H	-0.4269459514	-4.6883252466	 0.8423427432	 0.111579
H	 0.7612487274	-2.8007856238	 1.5440744282	 0.222063
H	-2.2015888176	 1.0950921989	 0.1019796708	 0.143291
31.0101	66.9894	98.107	164.7739	230.735	248.7576	295.451	328.6453	402.1091	460.7774	591.5261	711.2482	788.9739	805.1031	830.7498	882.621	934.2708	942.3847	990.5369	1049.604	1055.3374	1064.4437	1120.2671	1131.5684	1165.3029	1205.644	1249.7415	1257.7638	1280.758	1304.7041	1365.0887	1395.9733	1420.1616	1432.6211	1439.8869	1464.3293	1514.9698	1726.157	1793.0368	3037.7773	3049.9896	3065.6543	3107.1313	3111.5032	3151.2093	3194.5874	3482.2996	3524.1328
N=CN(CC1CN1)C=O	N=CN(C[C@H]1CN1)C=O	
InChI=1S/C5H9N3O/c6-3-8(4-9)2-5-1-7-5/h3-7H,1-2H2	InChI=1S/C5H9N3O/c6-3-8(4-9)2-5-1-7-5/h3-7H,1-2H2/t5-/m1/s1
