18
gdb 120473	2.70275	1.07964	0.88067	2.6253	70.51	-0.2393	0.0263	0.2656	1336.1014	0.146488	-476.226606	-476.216855	-476.21591	-476.262406	33.848	
O	-0.2274246842	 1.5063489297	 0.2523294352	-0.414565
C	 0.0354916934	 0.1346658895	-0.0045830791	-0.074489
C	-1.3070907211	-0.5718140398	-0.1600522292	-0.168557
N	-2.0472429912	-0.1478869318	-1.3232831336	-0.081037
C	-2.6600505391	 1.1349773407	-1.7056505172	-0.173117
C	-3.1086436578	 0.4465696179	-3.022850786	-0.01503
O	-2.5821200288	 1.0374023631	-4.1846998102	-0.432408
C	-2.3434092029	-0.7954327793	-2.4923931768	 0.370257
O	-2.0674628538	-1.8899398509	-2.9190158519	-0.388607
H	 0.608087572	 1.9821593939	 0.2566494625	 0.292938
H	 0.6255829091	 0.0008100657	-0.9230266844	 0.105257
H	 0.5878772191	-0.3317103108	 0.82657982	 0.09321
H	-1.1447871592	-1.6490200673	-0.2648479237	 0.138018
H	-1.9035523016	-0.3992296275	 0.7452388525	 0.119465
H	-3.4599390099	 1.4636751896	-1.034666555	 0.108746
H	-1.9395628571	 1.9401928286	-1.8578616932	 0.130591
H	-4.1940055589	 0.2890392768	-3.0905507859	 0.090825
H	-2.501153038	 0.3412034818	-4.8466165241	 0.298503
39.5416	74.5674	114.8474	143.708	177.1136	224.6401	257.912	293.9444	342.2022	403.3971	469.0419	536.2495	645.9526	766.3927	796.2579	863.761	898.4194	928.4196	991.943	1037.647	1093.1993	1095.8487	1136.969	1151.2452	1172.7795	1194.1968	1250.6896	1257.3783	1281.0696	1317.5027	1343.6247	1392.7393	1408.8823	1431.0943	1453.9328	1463.0982	1514.84	1520.9901	1867.1635	2976.2137	3010.4368	3013.0371	3032.35	3054.5626	3099.7708	3123.9534	3802.5215	3834.6083
OCCN1CC(O)C1=O	OCCN1C[C@@H](O)C1=O	
InChI=1S/C5H9NO3/c7-2-1-6-3-4(8)5(6)9/h4,7-8H,1-3H2	InChI=1S/C5H9NO3/c7-2-1-6-3-4(8)5(6)9/h4,7-8H,1-3H2/t4-/m1/s1
