17
gdb 48783	3.6539	1.38024	1.22375	0.8331	72.95	-0.2356	-0.0425	0.193	1031.4198	0.137568	-417.966998	-417.959825	-417.958881	-417.998491	28.278	
O	-0.0655029529	 0.1464606498	-0.5902815649	-0.279497
C	 0.0582501364	 1.1137760056	 0.1265199796	 0.059636
C	 1.2789051396	 1.9503909565	 0.1525263551	 0.258465
N	 2.2630265122	 1.7571779374	-0.934385605	-0.364983
C	 2.6131050276	 1.2761091702	 0.3921398727	-0.06697
C	 3.4446939567	 2.2370999419	 1.2358922329	-0.175321
N	 2.6409248117	 3.4507401697	 1.5097646295	-0.106225
C	 2.3043441837	 4.2895995735	 0.3493469018	-0.246977
C	 1.3269174857	 3.2877433458	 0.845561342	-0.124213
H	-0.7492244327	 1.4257377998	 0.8217812224	 0.089471
H	 1.9252897517	 0.9725326332	-1.4953764563	 0.251505
H	 2.6662205784	 0.204899818	 0.5677822663	 0.114044
H	 3.6797413467	 1.7654281141	 2.1958510348	 0.116752
H	 4.3880571257	 2.5003569778	 0.7471066681	 0.124768
H	 2.1671070956	 5.3408345066	 0.588067312	 0.114525
H	 2.7763484129	 4.0797930955	-0.6047109515	 0.143672
H	 0.4463315009	 3.5814071345	 1.4116722406	 0.09135
124.0029	203.1966	221.8059	278.8428	357.5109	411.9862	452.2801	550.349	692.8516	694.8719	742.6493	787.7976	825.4458	850.3505	884.0774	938.4997	963.5176	1013.4488	1030.643	1072.5925	1076.583	1086.7916	1111.7392	1125.5057	1154.5083	1194.7898	1228.7971	1252.5298	1274.4227	1293.6818	1347.0123	1392.3342	1420.3179	1437.5048	1485.2546	1499.6521	1792.7921	2913.3053	3046.2814	3090.0807	3113.697	3138.6882	3152.2441	3211.2283	3448.8532
O=CC12NC1CN1CC21	O=C[C@]12N[C@H]1CN1C[C@@H]21	
InChI=1S/C6H8N2O/c9-3-6-4(7-6)1-8-2-5(6)8/h3-5,7H,1-2H2	InChI=1S/C6H8N2O/c9-3-6-4(7-6)1-8-2-5(6)8/h3-5,7H,1-2H2/t4-,5-,6-,8?/m0/s1
