18
gdb 111024	2.54316	1.29277	1.01092	5.1174	78.66	-0.2344	0.0084	0.2428	1220.9246	0.148851	-398.054534	-398.046106	-398.045162	-398.087993	31.515	
C	 0.1736534683	 1.528619067	 0.1385043793	-0.324466
N	-0.2447707203	 0.1704707322	-0.1927425477	-0.307618
C	 0.5343392182	-0.4711519694	-1.2004806099	 0.053484
C	 1.882644688	-1.2794245274	-0.9867704594	-0.079169
C	 1.0678593637	-2.4057629333	-0.3045383573	-0.246036
C	 0.2844326713	-1.9705885321	-1.5784788453	 0.191717
N	 1.6245634292	-2.0094996197	-2.2935606989	-0.327275
C	-0.9128429096	-2.5561989351	-2.1332779869	 0.160906
N	-1.885624869	-3.0041937423	-2.5684440019	-0.346286
H	 1.1996685666	 1.6074400462	 0.5347512048	 0.104219
H	 0.1132138408	 2.1551033809	-0.7579887658	 0.131227
H	-0.5122754093	 1.9460873674	 0.8803183952	 0.129545
H	-0.3377683211	-0.3924639964	 0.6433267353	 0.226615
H	 0.5784423082	 0.1817619549	-2.0805761118	 0.085383
H	 2.8784279828	-0.921884137	-0.7282377863	 0.095576
H	 1.5067592378	-3.4010906425	-0.36308959	 0.130592
H	 0.6118685051	-2.2064151491	 0.6652205639	 0.103831
H	 1.6071630994	-1.3366031643	-3.0684114171	 0.217757
68.9102	112.2285	172.9005	192.1438	218.7208	336.2258	369.6119	508.8196	525.7125	554.2893	589.3173	635.806	701.3589	766.4701	839.8412	901.9537	932.7101	944.4593	970.6344	1031.5132	1040.6612	1087.4982	1129.3427	1142.312	1156.7413	1184.7121	1200.1181	1206.7146	1244.0458	1264.1284	1275.4435	1299.2716	1385.5897	1459.9329	1489.7631	1505.4837	1506.578	1525.193	2354.367	2965.6273	3042.1255	3065.4038	3092.5678	3112.7264	3130.0271	3167.4198	3373.0709	3557.4982
CNC1C2CC1(N2)C#N	CN[C@H]1[C@H]2C[C@@]1(N2)C#N	
InChI=1S/C6H9N3/c1-8-5-4-2-6(5,3-7)9-4/h4-5,8-9H,2H2,1H3	InChI=1S/C6H9N3/c1-8-5-4-2-6(5,3-7)9-4/h4-5,8-9H,2H2,1H3/t4-,5+,6-/m1/s1
