18
gdb 23073	3.4963	1.08383	1.02231	2.0359	76.51	-0.244	-0.0068	0.2372	1231.5598	0.146607	-439.0075	-438.999095	-438.998151	-439.04081	31.892	
C	 0.5134454928	 1.504377367	-0.1875675489	-0.40953
C	 0.1659380901	 0.0492143768	 0.0426146594	 0.160688
O	 0.9496714562	-0.8625895525	-0.7791049701	-0.309114
C	 1.2399760945	-1.716911683	 0.3511762339	 0.009402
C	 0.5771789384	-0.6941582165	 1.3329012874	-0.109672
C	 1.9811655442	-0.3585696382	 1.9233559363	-0.352448
C	 2.5743432178	-1.4034227204	 0.9904989797	 0.440805
N	 3.7037344498	-1.9470032476	 0.815271851	-0.236908
O	 4.6782258339	-1.365973376	 1.64182034	-0.387934
H	 1.5752841127	 1.7003955036	-0.0188310825	 0.128063
H	 0.2828224966	 1.780886542	-1.2211882108	 0.132244
H	-0.0756213242	 2.1480041803	 0.4749544379	 0.118267
H	-0.9028716454	-0.1085625637	-0.1643769319	 0.077303
H	 0.9494261494	-2.756779974	 0.1859106534	 0.086727
H	-0.2081018491	-0.9499307873	 2.0412539446	 0.083468
H	 2.3447162417	 0.6650666973	 1.8030921951	 0.127566
H	 2.091443072	-0.6306642195	 2.977664886	 0.13175
H	 5.4661699186	-1.8722365182	 1.4156725995	 0.309322
54.4499	141.9827	197.6563	213.9572	262.6744	350.2452	372.3414	405.8647	481.2481	516.9612	552.787	669.5854	758.3511	774.1598	825.3562	887.5751	915.1464	946.9286	970.5386	991.347	1013.3096	1074.6636	1095.2824	1122.4345	1138.2796	1158.6042	1191.2177	1218.2734	1244.7264	1287.9019	1308.7199	1329.6084	1387.469	1406.541	1411.5308	1458.0615	1479.9291	1501.7016	1777.9329	2988.2426	3038.6808	3060.0632	3088.9676	3104.4984	3106.8238	3122.8472	3133.5514	3814.2333
CC1OC2C1CC2=NO	C[C@H]1O[C@@H]2[C@H]1CC2=NO	
InChI=1S/C6H9NO2/c1-3-4-2-5(7-8)6(4)9-3/h3-4,6,8H,2H2,1H3	InChI=1S/C6H9NO2/c1-3-4-2-5(7-8)6(4)9-3/h3-4,6,8H,2H2,1H3/t3-,4+,6-/m1/s1
