20
gdb 94838	3.73004	1.19831	1.04842	2.4442	75.8	-0.243	0.0759	0.3189	1206.153	0.171976	-440.26376	-440.255504	-440.25456	-440.296366	32.214	
C	 0.0924397471	 1.4924729462	-0.0010338801	-0.409676
C	 0.0373204927	-0.0189465483	 0.0005460878	 0.229611
O	 0.6570535565	-0.4855719385	-1.1812584532	-0.248535
C	 0.6369603332	-1.9031296776	-1.2548085229	-0.164952
C	 1.2801828855	-2.5069717589	-0.0231349309	 0.318285
C	 1.8022961057	-3.8909080107	-0.0672020094	-0.297873
N	 2.7298293353	-2.7464232177	 0.0106537882	-0.337098
C	 0.6910446013	-1.9063277226	 1.2367345232	-0.140763
O	 0.6959031857	-0.4863217328	 1.1532940542	-0.248255
H	 1.1355700579	 1.817118158	-0.0156321126	 0.138242
H	-0.4163464222	 1.884072778	-0.8846322672	 0.124751
H	-0.3897239293	 1.8836679567	 0.8974506851	 0.12659
H	-1.0091048695	-0.3874755027	 0.0136389197	 0.048937
H	-0.4043588814	-2.2595414998	-1.3435023062	 0.092729
H	 1.1718425792	-2.1852537929	-2.1676234411	 0.100904
H	 1.7710919724	-4.5172699637	 0.8208170734	 0.119101
H	 1.7159584408	-4.4379127946	-1.0039073993	 0.11044
H	 3.1403048204	-2.5627630101	-0.9023517043	 0.231015
H	-0.340627142	-2.2717249256	 1.3801587083	 0.085539
H	 1.2887902809	-2.1760589122	 2.1095133073	 0.121006
90.8176	190.3785	221.8199	226.2714	259.5072	326.7335	363.8931	411.4386	459.6365	517.757	568.743	634.59	784.9915	838.3215	871.4973	895.1796	925.2569	928.397	955.9164	998.7839	1054.9712	1057.3229	1080.693	1093.7734	1126.4724	1138.6676	1164.7597	1179.1628	1258.8035	1262.5653	1281.7625	1347.2874	1364.2411	1375.4349	1389.9415	1408.6923	1432.6839	1440.7652	1479.3586	1481.1383	1491.0489	1492.1836	1516.5929	2891.195	2951.3668	2962.7781	3059.1804	3070.891	3098.2009	3112.8948	3141.4856	3142.1001	3180.369	3490.0073
CC1OCC2(CN2)CO1	C[C@H]1OC[C@]2(CN2)CO1	
InChI=1S/C6H11NO2/c1-5-8-3-6(2-7-6)4-9-5/h5,7H,2-4H2,1H3	InChI=1S/C6H11NO2/c1-5-8-3-6(2-7-6)4-9-5/h5,7H,2-4H2,1H3/t5-,6+
