17
gdb 50367	4.07158	1.10199	0.94064	1.6246	76.4	-0.242	-0.0352	0.2068	1217.202	0.135732	-421.800074	-421.792294	-421.79135	-421.833055	28.927	
O	-0.0911257536	-0.0054933965	 0.0371633309	-0.246707
C	 0.0844186597	 1.1618681457	 0.2692518399	 0.167988
C	 1.3705559097	 1.9076902044	 0.0248869436	-0.174327
C	 1.2700723177	 3.2285595651	-0.8528443155	-0.288688
C	 2.246345264	 3.9259259004	 0.1663827016	 0.100203
O	 1.9693835108	 5.1566882345	 0.7982808521	-0.278487
C	 1.7152536691	 4.8813557714	 2.191313908	-0.107381
C	 1.4416033262	 3.3848154778	 2.2689612746	-0.234541
C	 1.8387413149	 2.8538792556	 1.11842051	 0.203218
H	-0.7271928424	 1.8015771223	 0.6878205547	 0.075729
H	 2.1310760565	 1.2201244431	-0.3515798058	 0.107961
H	 1.5892631137	 3.141102715	-1.893058971	 0.118953
H	 0.2701741354	 3.6649075084	-0.7925033312	 0.125507
H	 3.2806248105	 3.9012916538	-0.2036387175	 0.087367
H	 2.5740674453	 5.2061029533	 2.7996337088	 0.110881
H	 0.8434176455	 5.4650680835	 2.513298099	 0.117576
H	 0.8943373469	 2.9249008225	 3.0815182479	 0.114748
67.5488	104.2063	143.7357	261.6831	329.0557	367.1825	423.7067	444.8097	658.1272	717.5567	731.8163	796.7218	821.623	870.3366	917.6794	921.8013	970.8826	991.2089	1028.648	1037.9525	1060.5232	1110.7888	1126.955	1139.3996	1187.9155	1199.7891	1231.7668	1240.4531	1278.2898	1306.2085	1342.4445	1384.9385	1423.8309	1466.9881	1516.0012	1715.3531	1831.6713	2864.1626	2979.8224	3007.2936	3036.7126	3068.9162	3093.3018	3139.8972	3219.7245
O=CC1CC2OCC=C12	O=C[C@H]1C[C@H]2OC[CH][C]12	
InChI=1S/C7H8O2/c8-4-5-3-7-6(5)1-2-9-7/h1,4-5,7H,2-3H2	InChI=1S/C7H8O2/c8-4-5-3-7-6(5)1-2-9-7/h1,4-5,7H,2-3H2/t5-,7-/m1/s1
