19
gdb 53682	6.389	0.53213	0.51256	3.5297	82.24	-0.2366	0.055	0.2916	2143.0615	0.157885	-419.228832	-419.217784	-419.216839	-419.267647	37.54	
C	 0.064354019	 1.4186648074	 0.0673549567	-0.496614
C	-0.0644405057	-0.0298955932	 0.1429901046	 0.08811
C	-0.1633382718	-1.2275758897	 0.2211257177	 0.036522
C	-0.3150844964	-2.6760977222	 0.2798649227	-0.334533
C	-1.3881556441	-3.1889877342	-0.7044183938	-0.147316
N	-1.5012116399	-4.6407045494	-0.6851225527	-0.335062
C	-2.2562504881	-5.255360874	 0.2875894755	 0.441963
N	-2.4471841552	-6.6191681355	 0.084855711	-0.564678
O	-2.7379109392	-4.6550955391	 1.2312090227	-0.388026
H	 1.056530697	 1.7477993492	 0.3961263262	 0.145719
H	-0.0796164764	 1.7804276903	-0.95697306	 0.143635
H	-0.6760487194	 1.9192863834	 0.7012122801	 0.147218
H	 0.6388944263	-3.1700572493	 0.0556787013	 0.116405
H	-0.6077484388	-2.991096681	 1.287431277	 0.154099
H	-2.3505764688	-2.7380726706	-0.4448366733	 0.138444
H	-1.130909493	-2.8829597533	-1.7216464315	 0.10652
H	-1.3686422968	-5.1275617698	-1.5558896426	 0.241573
H	-1.7088245261	-7.1286419612	-0.3778079261	 0.245458
H	-2.7988618126	-7.0793645879	 0.9110934645	 0.260564
18.1497	44.1938	59.7493	66.3878	120.2766	209.7642	267.1952	285.6299	319.9504	348.6926	389.9138	422.2882	464.4875	526.3431	568.8055	665.8246	760.8426	779.905	803.4263	911.2589	1022.8344	1052.3602	1054.6283	1073.5008	1103.875	1150.5844	1169.215	1240.4401	1304.8263	1327.1202	1344.5189	1403.1477	1415.5246	1470.3854	1478.9869	1480.1824	1483.6194	1532.4333	1627.7525	1799.5699	2373.3939	3024.9299	3025.7649	3058.5196	3071.7365	3083.9845	3085.1584	3113.1649	3571.336	3642.5868	3684.2081
CC#CCCNC(N)=O	CC#CCCNC(=O)N	
InChI=1S/C6H10N2O/c1-2-3-4-5-8-6(7)9/h4-5H2,1H3,(H3,7,8,9)	InChI=1S/C6H10N2O/c1-2-3-4-5-8-6(7)9/h4-5H2,1H3,(H3,7,8,9)
