18
gdb 62168	2.02742	1.16137	0.89419	3.0642	70.11	-0.2652	0.0044	0.2696	1343.4076	0.145739	-476.272588	-476.262601	-476.261657	-476.308962	34.135	
C	-0.0061795873	 2.082770951	-0.1752881432	-0.423882
C	-0.062484176	 0.5686247991	 0.0208526659	 0.050657
C	 0.2928441007	-0.2053285608	-1.2567018709	-0.103234
O	 1.6098874014	 0.1348450594	-1.7003476062	-0.181842
C	 2.59806199	-0.7571546052	-1.483826368	 0.163769
O	 3.7431013083	-0.5175105737	-1.7219975936	-0.276662
N	 0.8122193539	 0.176028717	 1.1227393938	-0.277348
C	 0.660216107	-0.9988171647	 1.7879661253	 0.148977
O	-0.1757710286	-1.8366673543	 1.5154046047	-0.32799
H	 0.9968357626	 2.398485769	-0.4780072565	 0.144836
H	-0.7028143297	 2.3898750484	-0.9599340545	 0.132512
H	-0.2795555399	 2.6033462785	 0.7466412012	 0.127952
H	-1.0785745472	 0.2600669525	 0.2924382095	 0.116453
H	 0.2151399992	-1.2804167353	-1.065024801	 0.143878
H	-0.3943978954	 0.0612812483	-2.0648336994	 0.123883
H	 2.2260766812	-1.718592431	-1.08133532	 0.091918
H	 1.5493958551	 0.8032989972	 1.4037601455	 0.258327
H	 1.3882980347	-1.1121711352	 2.6145172273	 0.087794
39.2587	61.1379	81.8313	168.7704	183.157	216.3078	229.0423	288.2473	320.2123	389.9251	422.5235	500.7357	591.5296	699.1191	760.4209	859.2953	936.8993	948.347	1006.934	1034.8984	1047.083	1073.6462	1132.5042	1156.0795	1189.9272	1225.6447	1307.9968	1341.8051	1368.9949	1398.8829	1413.3201	1425.3896	1432.3847	1491.2555	1500.1295	1506.4444	1517.0336	1794.07	1864.6683	2948.3347	2961.3026	3045.3645	3048.2839	3057.1683	3106.8325	3121.5112	3123.5961	3633.8555
CC(COC=O)NC=O	C[C@@H](COC=O)NC=O	
InChI=1S/C5H9NO3/c1-5(6-3-7)2-9-4-8/h3-5H,2H2,1H3,(H,6,7)	InChI=1S/C5H9NO3/c1-5(6-3-7)2-9-4-8/h3-5H,2H2,1H3,(H,6,7)/t5-/m0/s1
