16
gdb 98928	3.72152	0.87975	0.74017	2.3762	76.1	-0.2474	-0.0774	0.17	1485.3874	0.121294	-437.896943	-437.886936	-437.885991	-437.933809	33.96	
C	-0.7761287596	 1.4439783058	 0.3245024717	-0.334218
N	-0.9924562892	 0.0130876408	 0.4169552174	-0.302444
C	-0.7423298803	-0.8214161308	-0.6192351313	 0.400224
O	-0.2697444788	-0.4829742859	-1.6891318106	-0.374501
C	-1.0311243861	-2.3144582615	-0.3578222965	-0.426953
C	-2.2200345261	-2.6734658239	 0.5170323249	 0.226317
O	-2.5505917372	-2.0390901122	 1.5025775362	-0.307064
C	-2.9420502104	-3.8652131136	 0.1232450178	 0.266615
C	-3.5237747572	-4.8619943903	-0.2191532826	-0.384646
H	-0.2194635661	 1.6395574898	-0.592362805	 0.166997
H	-1.7237844437	 1.9941979674	 0.2873028719	 0.1285
H	-0.1990882577	 1.8032431441	 1.1826037985	 0.126137
H	-1.4777140166	-0.3772769674	 1.2141046693	 0.268112
H	-1.1025256263	-2.8037304996	-1.3295605206	 0.153688
H	-0.1452847152	-2.7336651647	 0.1408755416	 0.169332
H	-4.0494041398	-5.7393942878	-0.5101896427	 0.223904
25.1767	61.0826	69.3624	122.8984	168.8547	206.9467	240.886	304.5732	380.4481	417.647	521.0713	613.735	636.4269	647.606	696.808	701.0314	718.7026	863.2017	883.3051	952.9092	1078.2664	1122.2128	1151.8443	1177.879	1186.3728	1266.2841	1330.7187	1436.2967	1438.7346	1496.346	1501.9998	1588.965	1742.4826	1789.5527	2212.2219	3027.8996	3028.6002	3083.4847	3135.3547	3155.034	3492.1328	3566.6007
CNC(=O)CC(=O)C#C	CNC(=O)CC(=O)C#C	
InChI=1S/C6H7NO2/c1-3-5(8)4-6(9)7-2/h1H,4H2,2H3,(H,7,9)	InChI=1S/C6H7NO2/c1-3-5(8)4-6(9)7-2/h1H,4H2,2H3,(H,7,9)
