20
gdb 22100	3.71734	0.76393	0.72528	0.6458	85.28	-0.2433	0.0083	0.2516	1613.0073	0.166767	-403.084691	-403.073786	-403.072842	-403.121371	39.066	
C	 0.0501198854	 1.6010006297	-0.0512901931	-0.381092
C	 0.0075179568	 0.0605648831	-0.0431829588	-0.16647
C	-1.4499919456	-0.4794975817	 0.041463493	-0.270968
C	-2.1360207185	-0.1448357115	 1.3394379344	 0.352417
C	-1.6548759602	-0.7619550014	 2.6265426614	-0.473394
N	-3.1258158207	 0.6625177612	 1.264959622	-0.16537
O	-3.6910113622	 0.9069485127	 2.5281916947	-0.399954
C	 0.6790295989	-0.4898934761	-1.2187144067	 0.322675
C	 1.2132234037	-0.9370665561	-2.1986573405	-0.462203
H	 1.0826160911	 1.9588234709	-0.0663310767	 0.1237
H	-0.4598805518	 1.992864578	-0.9361787582	 0.129942
H	-0.449101504	 2.0028999284	 0.8342653111	 0.125914
H	 0.5501789739	-0.2911803699	 0.8454034236	 0.107819
H	-2.0335759549	-0.0702601108	-0.7872146816	 0.123937
H	-1.4200018394	-1.5691918297	-0.0773357506	 0.115438
H	-1.2005294699	-0.0055274416	 3.2761565721	 0.146102
H	-2.4997554487	-1.178394037	 3.1823272369	 0.150471
H	-0.9208005901	-1.5492148288	 2.4425768492	 0.120923
H	-4.4270853309	 1.4879195857	 2.3096560645	 0.306172
H	 1.6948778571	-1.3332450552	-3.0579653668	 0.193942
42.8128	70.9676	82.5223	123.6566	168.9689	215.9419	259.1994	296.6298	298.5732	381.6839	388.9458	420.7988	495.5978	532.845	556.8518	626.2614	636.9101	660.1515	817.795	827.5155	894.0546	927.2623	982.8364	1017.4365	1027.072	1074.4393	1099.711	1137.0196	1227.728	1269.6734	1297.2756	1335.1864	1363.0459	1398.2689	1401.1834	1411.1371	1474.6105	1475.7691	1485.5205	1491.3174	1500.2182	1724.4533	2234.413	3006.2959	3036.6406	3042.2948	3046.9736	3100.9689	3105.9627	3121.7366	3127.1272	3132.5292	3505.3145	3822.2754
CC(CC(C)=NO)C#C	C[C@@H](CC(=NO)C)C#C	
InChI=1S/C7H11NO/c1-4-6(2)5-7(3)8-9/h1,6,9H,5H2,2-3H3	InChI=1S/C7H11NO/c1-4-6(2)5-7(3)8-9/h1,6,9H,5H2,2-3H3/t6-/m1/s1
