23
gdb 78316	2.79675	1.37333	1.17997	0.1611	89.33	-0.2275	0.0912	0.3187	1199.3674	0.205854	-351.11368	-351.105044	-351.1041	-351.146122	35.113	
C	-0.0480384463	 1.4399733669	 0.0010337392	-0.421874
C	 0.0532840967	-0.0717996442	 0.0323057367	-0.02121
C	 1.4116409963	-0.6692530315	-0.2156561316	-0.06745
C	 0.7897305664	-0.6826297882	 1.1916490522	-0.111717
C	 0.7905854313	-2.2341331226	 1.1894520765	 0.368511
C	 1.519433074	-2.864227214	 2.3553814322	-0.489169
C	-0.4766718796	-2.9634745427	 0.6329155848	-0.293725
C	 0.1498275236	-2.9571913336	-0.800295177	-0.239497
C	 1.4017490185	-2.2129387872	-0.247684983	-0.072742
H	 0.8565879302	 1.905010529	 0.4075683664	 0.114353
H	-0.1786347436	 1.8069650415	-1.0229037584	 0.115944
H	-0.8983252294	 1.7927966021	 0.5948843331	 0.115769
H	-0.8281660614	-0.572338432	-0.3609372162	 0.077979
H	 2.2197020903	-0.0534511661	-0.5959356385	 0.075674
H	 1.0496448067	-0.0838326518	 2.0594559298	 0.071555
H	 0.9463626727	-2.7559959787	 3.2851820051	 0.113046
H	 1.6861864458	-3.9344583392	 2.1898184041	 0.109058
H	 2.4957717734	-2.3911836713	 2.5123685951	 0.113916
H	-0.6053799858	-3.967871229	 1.0459140581	 0.091994
H	-1.422683348	-2.427790045	 0.7472396296	 0.096256
H	 0.3782745947	-3.9580837121	-1.1745492635	 0.094939
H	-0.4166257976	-2.4295688876	-1.572088874	 0.098591
H	 2.3767498612	-2.6652884827	-0.4374311306	 0.0598
171.9936	187.9843	215.1344	221.1292	239.6023	262.3218	328.3562	360.0169	423.8165	484.9967	603.9157	694.3292	738.2387	767.5303	810.5361	846.5927	867.461	897.2526	901.0498	937.3636	940.8961	979.329	1001.2081	1014.1824	1033.6914	1045.3014	1079.6578	1124.0566	1130.3116	1146.6999	1164.5772	1196.8285	1211.7422	1218.0082	1232.6369	1250.0758	1264.9478	1289.7182	1313.0274	1337.027	1409.4147	1414.7108	1422.8947	1472.5833	1489.6779	1491.1698	1494.3259	1495.0733	1501.8583	3013.9639	3026.082	3051.2712	3059.6069	3075.8199	3087.6653	3088.0352	3090.0347	3092.5031	3096.0305	3114.0877	3128.8815	3146.9959	3163.4169
CC1C2C1C1(C)CCC21	C[C@H]1[C@H]2[C@@H]1[C@@]1(C)CC[C@@H]21	
InChI=1S/C9H14/c1-5-7-6-3-4-9(6,2)8(5)7/h5-8H,3-4H2,1-2H3	InChI=1S/C9H14/c1-5-7-6-3-4-9(6,2)8(5)7/h5-8H,3-4H2,1-2H3/t5-,6-,7+,8+,9-/m0/s1
