16
gdb 127868	3.93475	1.13203	0.8846	2.3579	82.52	-0.2068	-0.0483	0.1585	1270.2301	0.123827	-434.041015	-434.032375	-434.03143	-434.074876	31.574	
C	-0.052438781	 1.4580713493	-0.0127733919	-0.327649
N	-0.0111857271	 0.0057745984	-0.0287253048	-0.316864
C	 0.5768373489	-0.6241379589	 0.9263722354	 0.304152
C	 1.2409623891	-0.0027593745	 2.0896856896	-0.025738
N	 1.8279711448	-0.5974379583	 3.0625483423	-0.07527
O	 1.8563537156	-1.9937883658	 3.031928158	-0.277096
C	 1.2849050509	-2.6685747471	 1.9995479726	 0.468923
N	 1.5017080516	-4.0166591501	 2.1516600144	-0.563253
C	 0.6517228084	-2.0603497068	 0.9704613961	-0.314527
H	 0.9473199799	 1.9168655207	-0.053703814	 0.112839
H	-0.6010903332	 1.8035242151	-0.8930714046	 0.122353
H	-0.5669807293	 1.8662859119	 0.8706604509	 0.111482
H	 1.26475636	 1.0775272331	 2.1909177319	 0.139033
H	 1.6655635988	-4.3138127934	 3.1025595124	 0.268228
H	 0.8764946954	-4.6163676727	 1.6360318883	 0.267831
H	 0.2075493272	-2.6418926906	 0.1730557833	 0.105556
44.5161	103.6594	158.2418	221.4753	278.9383	300.4224	366.0916	410.9816	460.1065	520.4546	551.8074	587.819	672.1343	722.4755	729.9172	835.9674	890.2813	947.5463	964.7783	993.5496	1028.4697	1094.818	1109.4334	1151.8486	1263.2594	1319.3788	1347.7628	1421.6158	1434.1948	1489.3894	1508.8843	1625.4857	1640.5411	1687.0935	1713.3036	2970.5284	3019.0295	3092.9721	3191.6282	3215.4148	3578.1108	3689.4346
CN=C1C=NOC(N)=C1	C[N]C1=C[C](ON=C1)N	
InChI=1S/C5H7N3O/c1-7-4-2-5(6)9-8-3-4/h2-3H,6H2,1H3	InChI=1S/C5H7N3O/c1-7-4-2-5(6)9-8-3-4/h2-3H,6H2,1H3
