16
gdb 20281	5.29153	2.12639	2.03699	1.8812	66.51	-0.2515	0.0769	0.3284	709.7307	0.133276	-346.529128	-346.523921	-346.522977	-346.558071	22.532	
C	-0.0770558687	 1.546262404	 0.0097449268	-0.253155
C	 1.4442456085	 1.2849594785	-0.0055253795	-0.060556
C	 1.2341898234	 0.1161506189	 1.0332129639	-0.047501
C	 2.241231528	-0.9802853541	 0.7061409556	 0.01366
O	 1.6791712438	-2.0876314554	-0.0251153125	-0.255557
C	 2.2278624622	-0.9727321633	-0.7550393454	 0.013661
C	 1.2151111985	 0.1269362316	-1.0522763532	-0.047502
C	 0.0648455313	 0.0048185995	 0.0004753938	-0.030855
H	-0.4908558045	 1.9953857631	 0.9169758246	 0.091673
H	-0.5073431007	 2.0047045926	-0.8850699986	 0.091673
H	 2.2522902476	 2.0197134741	-0.009116762	 0.071146
H	 1.0101777461	 0.3571562771	 2.0728584153	 0.0672
H	 3.1059202075	-1.2016780541	 1.32297063	 0.097451
H	 3.0810998605	-1.187647413	-1.3898452925	 0.09745
H	 0.9721387675	 0.3786607973	-2.0851011708	 0.0672
H	-0.724009871	-0.7453748567	 0.0038119644	 0.084013
294.5194	369.9493	434.3596	547.5629	699.2249	736.3424	772.959	805.5454	817.3799	873.5457	886.5226	905.3673	913.8594	932.2256	954.3368	1000.3481	1006.6842	1007.8972	1055.7887	1068.13	1100.2619	1100.3606	1127.1026	1157.925	1189.9163	1222.9405	1226.9558	1245.7362	1267.2054	1269.0178	1308.3321	1327.2862	1412.6935	1520.0169	3048.4167	3088.0468	3107.287	3112.1661	3113.0019	3131.437	3165.1387	3177.4949
C1C2C3C4OC4C2C13	C1[C@H]2[C@@H]3[C@H]4O[C@H]4[C@H]2[C@H]13	
InChI=1S/C7H8O/c1-2-4-3(1)5(2)7-6(4)8-7/h2-7H,1H2	InChI=1S/C7H8O/c1-2-4-3(1)5(2)7-6(4)8-7/h2-7H,1H2/t2-,3+,4-,5+,6-,7+
