18
gdb 86260	1.8092	1.64527	1.17125	5.0264	72.55	-0.2697	0.0346	0.3043	1129.4462	0.145402	-439.084267	-439.074349	-439.073405	-439.118843	35.69	
C	-0.0582960094	 1.5539859047	 0.0043605111	-0.424296
C	-0.0065878821	 0.0191582476	 0.0029927317	 0.087117
C	-1.3276907276	-0.5472037131	-0.2429817985	 0.229916
N	-2.363318399	-1.0247053412	-0.4360678504	-0.350904
C	 1.1434593901	-0.5634060329	-0.8910947058	 0.106877
O	 1.5326059502	 0.2976704882	-1.9269389499	-0.419649
C	 2.0381241346	-0.6785527634	 0.3725480397	-0.328494
C	 0.7534136815	-0.578468843	 1.2385606014	 0.106869
O	 0.7480707224	 0.2673852663	 2.3567687499	-0.419655
H	 0.9310624529	 1.9741282009	 0.1886928874	 0.134204
H	-0.4114254282	 1.9149995848	-0.9630894403	 0.141784
H	-0.7325036428	 1.902630544	 0.7885049852	 0.141779
H	 0.861387954	-1.5515373641	-1.274059422	 0.091396
H	 2.1331118066	-0.1745001444	-2.5114885313	 0.293075
H	 2.6623695634	-1.5679839148	 0.4805830125	 0.101566
H	 2.6492697179	 0.2193834148	 0.4908400205	 0.123945
H	 0.3564059469	-1.5710290702	 1.4831716305	 0.091397
H	 1.1036085686	-0.2142461042	 3.1096810881	 0.293075
99.6779	121.8134	148.6742	152.24	180.5784	199.5421	247.6416	249.4012	341.3786	405.8554	479.1036	510.3889	544.9822	580.1376	596.4596	710.8852	848.0571	892.6835	906.592	958.459	1056.4937	1065.7749	1114.0828	1123.3244	1161.7203	1171.5981	1202.2061	1221.4517	1232.0157	1293.8026	1294.7673	1329.3988	1411.6325	1417.5414	1446.3142	1485.0977	1488.5597	1493.2767	2348.1646	3026.1535	3031.949	3068.1458	3071.4045	3132.7485	3148.5502	3152.6056	3830.263	3830.666
CC1(C#N)C(O)CC1O	C[C@@]1(C#N)[C@@H](O)C[C@H]1O	
InChI=1S/C6H9NO2/c1-6(3-7)4(8)2-5(6)9/h4-5,8-9H,2H2,1H3	InChI=1S/C6H9NO2/c1-6(3-7)4(8)2-5(6)9/h4-5,8-9H,2H2,1H3/t4-,5+,6+
