16
gdb 98156	2.40889	1.12055	1.09084	3.8203	66.23	-0.2806	-0.0574	0.2232	1211.2474	0.119923	-475.037674	-475.027518	-475.026574	-475.073395	35.559	
C	-0.2830680819	 1.5889490832	-0.0695922433	-0.417442
C	 0.1184058873	 0.1088185063	-0.0125359038	 0.117819
O	 0.957847756	-0.1898553436	 1.089476751	-0.438564
C	-1.0879210008	-0.7496695836	 0.0256848765	 0.260062
N	-2.0262402621	-1.42092251	 0.0949386337	-0.319116
C	 0.9116370782	-0.281134189	-1.2917418132	 0.339371
O	 0.5870739586	 0.1506597065	-2.3712509744	-0.316232
C	 2.0831582274	-1.2306481408	-1.1497101778	-0.127771
O	 2.6586954786	-1.5114974113	-2.3895775976	-0.422168
H	 0.6217278779	 2.200820337	-0.0401401032	 0.143199
H	-0.8260090731	 1.7946653193	-0.993302654	 0.167471
H	-0.9168082957	 1.8431582977	 0.784211394	 0.132154
H	 0.4631220674	-0.0474118267	 1.9041497185	 0.303114
H	 2.8102712232	-0.7793226274	-0.4587854595	 0.142216
H	 1.7208462001	-2.1424646754	-0.6472742443	 0.137996
H	 2.131255089	-1.0338598722	-3.0471890527	 0.297892
27.8563	102.614	145.4743	182.7318	206.2125	225.9213	259.5853	295.8185	334.0129	350.3498	382.4727	421.8482	476.0441	541.0638	597.8391	647.5136	787.3496	845.9425	928.9235	1003.3863	1047.4956	1113.8702	1144.853	1154.4872	1181.6318	1241.4072	1305.4426	1360.0534	1400.1518	1442.0413	1472.9547	1482.9785	1487.7566	1812.5392	2349.2859	2988.5897	3019.3665	3054.0762	3133.2681	3155.0273	3717.1332	3812.6937
CC(O)(C#N)C(=O)CO	C[C@@](O)(C#N)C(=O)CO	
InChI=1S/C5H7NO3/c1-5(9,3-6)4(8)2-7/h7,9H,2H2,1H3	InChI=1S/C5H7NO3/c1-5(9,3-6)4(8)2-7/h7,9H,2H2,1H3/t5-/m1/s1
