18
gdb 108291	2.68073	1.43341	1.09799	1.433	73.21	-0.2607	0.0207	0.2814	1128.3683	0.147919	-439.067447	-439.059181	-439.058237	-439.100605	31.368	
O	 0.0379227373	 1.4441457431	 0.0286698881	-0.414238
C	 0.0935028701	 0.0386976028	 0.1960450857	-0.156664
C	-1.2710205031	-0.5776153751	 0.042516452	 0.429283
C	-2.4039733804	-0.3450785816	 1.0658829071	-0.276055
C	-2.7796693303	-1.857723237	 0.9760404095	-0.23114
C	-1.6288909781	-2.0896816742	-0.0555968726	-0.241251
C	-2.0300247335	-1.7447395628	-1.4678173901	 0.435641
N	-2.4589599125	-2.3939088244	-2.4503491201	-0.549159
O	-1.767276049	-0.3880316744	-1.3351316584	-0.313535
H	-0.3266180729	 1.6045149003	-0.8495337631	 0.296139
H	 0.7892445578	-0.4315566895	-0.516360495	 0.097519
H	 0.4734161208	-0.1429076614	 1.2068212683	 0.114813
H	-2.0389168974	-0.0408475971	 2.0494258049	 0.115946
H	-3.1604507055	 0.3676348282	 0.7347223202	 0.120821
H	-2.6117732593	-2.3969160601	 1.9097882275	 0.115987
H	-3.779579683	-2.0965771067	 0.6107265922	 0.125581
H	-0.9410468398	-2.9195169947	 0.0933844077	 0.102926
H	-2.6301076812	-1.7862861454	-3.2535873339	 0.227385
75.0972	112.8616	152.186	211.5072	312.935	371.1946	391.875	419.6318	445.3627	609.1123	676.7556	730.3125	745.1404	804.9189	865.1642	884.2335	905.7555	937.4599	949.3897	990.4658	1005.0521	1049.0679	1083.2587	1094.7532	1130.7428	1144.5466	1212.9493	1225.108	1232.688	1253.1466	1277.8885	1306.1127	1328.9643	1384.1095	1430.3704	1467.2188	1489.726	1495.1772	1821.4731	2987.0343	3074.5685	3078.884	3082.2779	3125.379	3139.0197	3144.1998	3473.8897	3799.9906
OCC12CCC1C(=N)O2	OC[C@]12CC[C@H]1[C]([NH])O2	
InChI=1S/C6H9NO2/c7-5-4-1-2-6(4,3-8)9-5/h4,7-8H,1-3H2	InChI=1S/C6H9NO2/c7-5-4-1-2-6(4,3-8)9-5/h4,7-8H,1-3H2/t4-,6+/m0/s1
