19
gdb 105463	2.65694	0.99903	0.8232	2.0096	78.27	-0.2561	0.0263	0.2824	1432.3757	0.155914	-422.953965	-422.94403	-422.943086	-422.989841	36.2	
O	-0.2359890689	 1.4374277218	-0.7745249941	-0.42271
C	-0.0430814452	 0.1493828163	-0.2228607546	-0.113463
C	-1.3641621926	-0.5497406516	 0.0120983897	 0.417377
C	-2.0335152144	-1.2857479891	-1.1048643007	-0.307839
C	-1.4569432361	-2.0516862261	 0.0707207898	-0.332432
O	-2.2461466012	 0.2087467552	 0.8111757522	-0.304153
C	-1.9528601513	 0.1737445841	 2.2072026939	-0.23411
C	-2.9617225097	 0.9341962261	 2.9307648382	 0.286126
C	-3.7791716973	 1.5586228383	 3.5500320872	-0.420718
H	-0.9995819882	 1.8115454663	-0.3181972581	 0.289722
H	 0.560523452	-0.4271696406	-0.9314754817	 0.105547
H	 0.5313073645	 0.2036086359	 0.7178768343	 0.084146
H	-3.1126769412	-1.2057836946	-1.1589556568	 0.129341
H	-1.525874329	-1.3316355146	-2.0616458711	 0.122276
H	-0.5527624879	-2.633821073	-0.0731004147	 0.118581
H	-2.1640461802	-2.4818223009	 0.7712724594	 0.122545
H	-1.9374231017	-0.8667745903	 2.5635748323	 0.126895
H	-0.9581872584	 0.5962783891	 2.4127919486	 0.129151
H	-4.505049063	 2.1112576576	 4.0937463665	 0.203718
28.7286	71.8128	127.0741	146.6606	214.812	248.5274	322.3477	329.0723	355.6749	400.3186	441.0499	505.6943	576.5098	613.0455	678.9184	764.8934	777.4497	902.9857	913.5933	925.837	966.8599	1006.3589	1033.4062	1050.5743	1059.9569	1073.5055	1078.6993	1083.3895	1186.7179	1198.75	1249.0007	1292.1735	1340.4339	1360.5637	1403.7051	1443.2988	1454.6592	1496.9543	1500.6868	1513.7283	2248.7897	2955.3072	2989.8102	3015.0157	3071.3951	3132.8389	3143.8245	3217.2963	3236.9296	3505.5065	3783.3428
OCC1(CC1)OCC#C	OCC1(CC1)OCC#C	
InChI=1S/C7H10O2/c1-2-5-9-7(6-8)3-4-7/h1,8H,3-6H2	InChI=1S/C7H10O2/c1-2-5-9-7(6-8)3-4-7/h1,8H,3-6H2
