22
gdb 73022	2.77332	1.27378	1.08066	1.0775	87.89	-0.231	0.0902	0.3213	1246.4513	0.194326	-367.154101	-367.145328	-367.144384	-367.187504	34.074	
C	-0.044959987	 1.5640747562	 0.0241528124	-0.49581
C	-0.0212780481	 0.0618309743	 0.0178670939	 0.307517
C	-0.7817619491	-0.8127275028	-0.9942434119	-0.270465
C	-1.107030313	-1.8370524952	 0.1370865439	-0.21642
C	-0.3366563635	-0.9631078609	 1.1328106115	-0.147278
C	 1.073091498	-0.7425781294	 0.6602218017	 0.00845
N	 1.7921230566	-1.7619832565	-0.0549939755	-0.058659
C	 3.1805573412	-1.4667347197	-0.392940665	-0.224654
C	 2.85131735	-2.4491218497	 0.6769365121	-0.222181
H	 0.4977544831	 1.9730785901	-0.837583508	 0.117712
H	-1.0712445446	 1.9469220168	-0.0226541476	 0.11472
H	 0.4203500341	 1.9693890266	 0.9291051205	 0.11278
H	-1.6782380047	-0.3152360855	-1.3737167555	 0.091645
H	-0.1944779408	-1.1853823967	-1.837206974	 0.101291
H	-2.175387206	-1.8855238829	 0.3589443262	 0.093656
H	-0.7233979208	-2.8507261081	-0.00180669	 0.103937
H	-0.6127053142	-0.7925804789	 2.1680858058	 0.075057
H	 1.6722623397	-0.1545393552	 1.364890858	 0.061473
H	 3.5141077219	-1.8032839493	-1.3706293244	 0.114976
H	 3.5871410312	-0.5063855689	-0.0790977345	 0.108522
H	 3.0369196409	-2.1463388048	 1.7063635879	 0.108791
H	 2.9390074752	-3.5165676595	 0.4946774824	 0.11494
73.0273	147.5784	163.8647	204.8393	216.7665	287.6767	336.4947	350.2147	492.3544	522.7531	613.0527	765.6773	780.7501	791.4034	815.6707	861.4228	894.2665	919.2375	950.6658	954.8522	972.5013	1005.3086	1010.875	1043.0345	1074.3545	1103.5468	1116.174	1117.2503	1136.3467	1148.2111	1174.4997	1193.621	1225.7294	1240.231	1250.3601	1265.029	1306.4411	1325.1641	1342.1136	1413.7317	1461.0119	1471.4499	1485.8271	1491.5709	1496.4949	1503.7033	1521.5059	3014.9094	3030.4277	3055.3137	3064.8651	3072.2855	3089.924	3091.8414	3096.1838	3101.1527	3119.4378	3162.794	3173.3972	3188.0501
CC12CCC1C2N1CC1	C[C@]12CC[C@H]1[C@H]2N1CC1	
InChI=1S/C8H13N/c1-8-3-2-6(8)7(8)9-4-5-9/h6-7H,2-5H2,1H3	InChI=1S/C8H13N/c1-8-3-2-6(8)7(8)9-4-5-9/h6-7H,2-5H2,1H3/t6-,7+,8-/m0/s1
