20
gdb 76779	2.24008	1.60028	1.0691	3.6779	82.27	-0.2369	0.0369	0.2737	1190.9189	0.169977	-403.165981	-403.156452	-403.155508	-403.200353	34.583	
C	-0.0232749437	 1.6236722329	 0.0064369813	-0.403686
C	 0.0552099825	 0.1043776929	 0.017150107	-0.031771
N	 1.1414999357	-0.4806793369	-0.7932137421	-0.104278
C	 1.3751969976	-0.5258076879	-2.2114616199	-0.3478
C	 1.7601032801	-1.1294156637	 0.2523456949	 0.386938
O	 2.7260350966	-1.8493411641	 0.3065725498	-0.395896
C	 0.7353794059	-0.5791589245	 1.2242483671	 0.171413
C	 0.9904946854	-0.0739372987	 2.6144368323	-0.31984
C	 0.1448140212	-1.3018512363	 2.3989158629	-0.320982
H	 0.9415563591	 2.0642794366	 0.2740498411	 0.126115
H	-0.3137106905	 1.9972787456	-0.9812959373	 0.1204
H	-0.7749994852	 1.9725811826	 0.7223809329	 0.12176
H	-0.9219769413	-0.3334365241	-0.2303549571	 0.08054
H	 1.533391582	 0.475043585	-2.6306382926	 0.127153
H	 2.2771164445	-1.1203027358	-2.3774756229	 0.16135
H	 0.54048833	-0.9973457869	-2.7468742153	 0.124036
H	 1.9930919394	-0.2007428803	 3.0087739825	 0.134762
H	 0.4933557347	 0.8410563049	 2.9198656478	 0.117464
H	-0.9253080003	-1.2196757013	 2.5588322737	 0.117299
H	 0.5701961764	-2.2692993802	 2.6441504438	 0.135025
85.6739	99.841	148.4768	186.9791	209.3242	215.0215	223.2984	251.2689	335.7573	484.4258	515.8758	568.3167	725.6397	751.9099	759.5273	799.9783	877.5086	921.7402	952.2754	976.5417	1028.5729	1057.777	1067.9372	1073.0679	1084.3318	1129.8679	1151.4317	1194.2657	1213.7234	1224.0028	1284.5663	1376.9861	1397.6304	1408.8166	1416.6079	1449.8361	1459.0308	1482.4773	1489.1404	1494.9519	1504.4077	1518.5156	1871.5902	3004.5149	3009.3085	3033.8211	3060.1438	3099.1791	3116.1616	3125.1503	3128.7202	3131.0121	3210.173	3224.227
CC1N(C)C(=O)C11CC1	C[C@H]1N(C)C(=O)C21CC2	
InChI=1S/C7H11NO/c1-5-7(3-4-7)6(9)8(5)2/h5H,3-4H2,1-2H3	InChI=1S/C7H11NO/c1-5-7(3-4-7)6(9)8(5)2/h5H,3-4H2,1-2H3/t5-/m1/s1
