13
gdb 129619	3.37288	1.31484	0.97435	1.6228	64.84	-0.2354	-0.048	0.1874	1103.0737	0.089405	-448.912534	-448.904607	-448.903663	-448.94571	28.319	
N	-0.1495665224	 1.2958566421	-0.4801813104	-0.607953
C	-0.105460036	-0.0461000132	-0.1585079918	 0.21655
C	-1.0784191531	-0.9954135498	-0.0266496538	 0.352899
C	-2.5603699411	-1.023762521	-0.2274342995	-0.45864
C	-2.9847703172	-0.0123156132	-1.1961995815	 0.27693
N	-3.2755448232	 0.8100854243	-1.9536732682	-0.305236
O	-0.4876493428	-2.1345997098	 0.3867574546	-0.215046
N	 0.8817136323	-1.8644510713	 0.5106869635	-0.006344
N	 1.0795549586	-0.6577908487	 0.18910258	-0.170454
H	 0.7484937135	 1.6508258765	-0.7785001869	 0.267321
H	-0.8939053426	 1.5590476054	-1.1126250699	 0.275737
H	-2.8639735425	-2.0135619674	-0.5865675859	 0.189149
H	-3.0980278036	-0.8541139639	 0.7153862998	 0.185086
46.8634	116.4187	211.0382	263.7627	285.7895	339.4842	375.9274	426.7971	485.3453	629.6435	662.0848	723.7586	737.2687	765.2146	789.8508	944.4814	952.7929	1014.1966	1078.9189	1186.8355	1245.7274	1275.0803	1331.0837	1434.3505	1456.2907	1457.1601	1640.7729	1701.8202	2366.1262	3022.503	3073.7106	3550.8726	3652.0953
NC1=C(CC#N)ON=N1	Nc1c(CC#N)onn1	
InChI=1S/C4H4N4O/c5-2-1-3-4(6)7-8-9-3/h1,6H2	InChI=1S/C4H4N4O/c5-2-1-3-4(6)7-8-9-3/h1,6H2
