16
gdb 91228	2.13499	1.68474	1.54168	2.2577	65.75	-0.2637	0.0002	0.2639	968.0765	0.123242	-474.995462	-474.987093	-474.986149	-475.028469	31.272	
O	 0.3775292884	 1.2175097732	-0.5202488827	-0.424662
C	 0.1110982917	-0.0397757646	 0.0258710385	 0.090234
C	 0.1039839524	-0.2634295408	 1.5816942782	-0.284301
C	-1.2770089895	-0.9238605884	 1.4730444844	 0.01712
O	-2.3315959987	 0.0861197146	 1.659449089	-0.261826
C	-2.4169578827	 0.3284816731	 0.3109065975	 0.322401
N	-3.1856773557	 1.0642617902	-0.3570498519	-0.548556
C	-1.3204602214	-0.6381918772	-0.0827326803	 0.266243
O	-1.5398682423	-1.4985441201	-1.1394924066	-0.465012
H	-0.3739345152	 1.7973873299	-0.3501212465	 0.292698
H	 0.8003506794	-0.7410809086	-0.4533548565	 0.114933
H	 0.9032700285	-0.9198468126	 1.9304369321	 0.118178
H	 0.0959909204	 0.6486299917	 2.1814405434	 0.120984
H	-1.5228459982	-1.8609564001	 1.9672815915	 0.104944
H	-3.8565672537	 1.5543650914	 0.2378714982	 0.235624
H	-2.4601857734	-1.4193160418	-1.4161485383	 0.300997
89.3319	105.6211	174.3665	226.4211	289.7949	311.3698	364.0204	425.4818	444.2412	522.3184	595.8224	698.2861	728.787	777.4453	836.9922	876.0502	890.3552	955.204	974.7566	1016.8254	1031.3801	1058.0668	1107.7298	1153.018	1164.3783	1184.5065	1235.5571	1255.8579	1307.0457	1325.9152	1371.6599	1377.6461	1438.626	1465.1738	1808.2585	3076.0631	3080.4606	3137.4462	3150.3936	3472.8601	3792.5766	3798.8209
OC1CC2OC(=N)C12O	O[C@H]1C[C@H]2O[C]([NH])[C@@]12O	
InChI=1S/C5H7NO3/c6-4-5(8)2(7)1-3(5)9-4/h2-3,6-8H,1H2	InChI=1S/C5H7NO3/c6-4-5(8)2(7)1-3(5)9-4/h2-3,6-8H,1H2/t2-,3+,5+/m0/s1
