14
gdb 45037	2.47997	1.78731	1.15164	3.0706	63.19	-0.2678	-0.0439	0.2239	999.0959	0.102402	-473.879648	-473.872585	-473.871641	-473.911562	26.579	
O	-0.058967483	-0.0086157564	 0.3402456481	-0.332746
C	-0.0756070445	 1.1798616785	 0.1296154778	 0.42023
C	-1.361325124	 1.9513812108	-0.1346723682	-0.373373
C	-1.2674124083	 3.4405528238	 0.0724129492	 0.048698
O	-0.6723324662	 3.8612123408	 1.2934942226	-0.2388
C	 0.0495996697	 4.1000782091	 0.0747162534	-0.09178
C	 1.2909334086	 3.2750120269	-0.1020709593	 0.457558
O	 2.3746180718	 3.7573346949	-0.332858679	-0.33703
N	 1.1109308916	 1.9037231105	 0.039294299	-0.380531
H	-1.6518953332	 1.7433219777	-1.1725362592	 0.151817
H	-2.1374063605	 1.5148888118	 0.4999154432	 0.160166
H	-2.1304037147	 4.0273394092	-0.2398176003	 0.115897
H	 0.1685405246	 5.1416898869	-0.2089585073	 0.129315
H	 1.9589431479	 1.3501753657	 0.0755484001	 0.270578
87.7859	132.3847	255.8308	330.4686	378.6911	469.5478	522.9156	541.623	566.616	657.0383	715.5286	778.0826	808.5525	869.3796	903.5414	929.6974	964.0426	1024.2946	1074.3044	1132.0894	1222.6857	1256.7014	1276.3765	1340.394	1353.9921	1374.6045	1411.3485	1443.498	1466.5566	1813.4539	1825.501	3043.669	3103.8728	3123.5542	3170.1312	3580.4755
O=C1CC2OC2C(=O)N1	O=C1C[C@H]2O[C@H]2C(=O)N1	
InChI=1S/C5H5NO3/c7-3-1-2-4(9-2)5(8)6-3/h2,4H,1H2,(H,6,7,8)	InChI=1S/C5H5NO3/c7-3-1-2-4(9-2)5(8)6-3/h2,4H,1H2,(H,6,7,8)/t2-,4-/m1/s1
