19
gdb 39056	2.47255	1.97593	1.33565	2.1644	79.78	-0.2218	0.0113	0.2331	989.8202	0.163358	-382.018915	-382.011904	-382.010959	-382.049894	29.31	
C	-0.0076714136	 1.4736433912	-0.1595788318	-0.271545
C	 1.364851034	 2.1052703179	-0.0442796411	-0.095141
C	 2.1511236694	 2.0316859842	 1.0332154575	-0.007945
C	 1.837011583	 1.3700931831	 2.3285672621	-0.077588
N	 0.4314523712	 1.3595348232	 2.7856496685	-0.323513
C	 1.0577115458	 0.0849451401	 2.4489788701	-0.032513
C	 0.5713304702	-0.6728852671	 1.2508686499	-0.014131
N	-0.8716569129	-0.6874007817	 0.9354427816	-0.33531
C	 0.067266977	-0.0362771792	 0.0053810524	-0.023882
H	-0.6666603169	 1.8692582607	 0.6152370913	 0.154776
H	-0.4528944628	 1.7109179313	-1.1310681632	 0.08724
H	 1.742217577	 2.6413332407	-0.9117438697	 0.085814
H	 3.1313202509	 2.5011203234	 0.9921141866	 0.080401
H	 2.595136102	 1.5188949492	 3.0948372481	 0.079424
H	 0.3812611685	 1.4794077447	 3.7926067554	 0.234197
H	 1.3509492192	-0.5567331603	 3.2792778952	 0.079733
H	 1.1146145204	-1.6070640678	 1.1115074136	 0.074958
H	-1.1386382278	-1.6042162853	 0.5863871343	 0.226955
H	 0.3086370255	-0.5746956382	-0.9102193607	 0.078071
183.6999	218.9407	285.904	323.6298	336.5516	428.3535	511.5669	579.2433	662.2161	703.3283	738.5735	774.1322	797.3895	828.7179	876.0666	913.543	923.4208	949.4184	968.8485	984.2717	989.9037	1012.86	1042.1924	1096.9367	1125.3727	1159.9225	1166.6848	1198.2083	1218.9561	1227.5899	1262.3198	1274.4209	1288.9782	1338.4992	1388.2894	1421.6693	1435.3226	1463.8921	1476.6399	1480.6682	1714.4938	3051.9987	3095.641	3103.6604	3113.1841	3120.3583	3123.9202	3143.1505	3165.6189	3499.4522	3517.0412
C1C=CC2NC2C2NC12	C1C=C[C@H]2N[C@H]2[C@H]2N[C@@H]12	
InChI=1S/C7H10N2/c1-2-4-6(8-4)7-5(3-1)9-7/h1-2,4-9H,3H2	InChI=1S/C7H10N2/c1-2-4-6(8-4)7-5(3-1)9-7/h1-2,4-9H,3H2/t4-,5+,6-,7+/m1/s1
