16
gdb 130956	6.21881	0.73837	0.70101	2.2215	72.52	-0.2574	-0.0366	0.2209	1543.1856	0.125111	-434.076954	-434.068628	-434.067683	-434.112433	28.307	
O	-0.1729117839	-0.0158759898	-0.0432537526	-0.226306
C	-0.0202217398	 1.1765435017	-0.0719212831	 0.156824
C	 1.3209507054	 1.8749891883	-0.1377494441	-0.278281
C	 1.3866426063	 2.8627668279	-1.3145851565	-0.152067
N	 2.5810401453	 3.6868342368	-1.2679055346	 0.150959
N	 2.6997252904	 4.7022571427	-0.4197861764	-0.234902
C	 3.9367569531	 5.1513895356	-0.6423783801	-0.05613
C	 4.5259284675	 4.3613118131	-1.638247993	-0.060046
N	 3.6466648532	 3.4323703024	-2.0196597705	-0.224564
H	-0.8954938724	 1.867911084	-0.0433130083	 0.078466
H	 1.4438954398	 2.4489471219	 0.7905572168	 0.148885
H	 2.1165141078	 1.1290084622	-0.1998606476	 0.141108
H	 1.4123443496	 2.3372297653	-2.2701283449	 0.156592
H	 0.5229810956	 3.5337113406	-1.3012905485	 0.141385
H	 4.3273648513	 5.9965105096	-0.0986470971	 0.128764
H	 5.5041763108	 4.4176953178	-2.0877438595	 0.129314
25.5803	65.1071	65.7536	113.7959	267.3396	332.1789	378.7625	518.645	680.7339	693.848	765.5309	777.1219	849.0712	859.661	899.2222	981.4265	988.2322	1004.2712	1076.9807	1091.2689	1101.0118	1170.2002	1225.4955	1275.1341	1287.7783	1296.2488	1384.6736	1397.0261	1405.8706	1431.5131	1445.6969	1463.7308	1481.1442	1506.275	1840.6972	2854.8489	3033.168	3071.8805	3118.1552	3143.3106	3265.8417	3283.1531
O=CCCN1N=CC=N1	O=CCCn1nccn1	
InChI=1S/C5H7N3O/c9-5-1-4-8-6-2-3-7-8/h2-3,5H,1,4H2	InChI=1S/C5H7N3O/c9-5-1-4-8-6-2-3-7-8/h2-3,5H,1,4H2
