17
gdb 49229	3.69977	1.13871	0.94747	2.6215	76.41	-0.2223	-0.0683	0.1539	1229.2745	0.136352	-418.012306	-418.004303	-418.003359	-418.045131	30.23	
O	-0.8002662443	 1.3759071503	-0.2229050672	-0.265407
C	 0.3035049364	 0.9286462069	-0.0213923576	 0.112811
C	 1.4993419731	 1.7903170336	 0.1539490065	 0.262455
N	 2.6813357155	 1.2999612918	 0.2694795316	-0.28783
C	 3.5812860182	 2.4611613191	 0.3768637528	-0.240145
C	 2.7107966527	 3.6956253265	 0.0679651304	 0.363615
C	 3.0539955717	 5.0894650131	 0.4879090203	-0.3246
C	 3.0547254065	 4.7142366609	-0.9849115879	-0.320453
N	 1.3659416038	 3.1607808105	 0.1971468792	-0.387795
H	 0.5221720313	-0.1547921438	 0.0268909452	 0.110472
H	 3.9874328681	 2.500796506	 1.3971793775	 0.122694
H	 4.4310326269	 2.3531028495	-0.3055315697	 0.120013
H	 2.2511132295	 5.7246257146	 0.8470734653	 0.121184
H	 4.007436566	 5.2541200399	 0.9803446998	 0.1213
H	 4.0080496285	 4.6169073334	-1.4953520758	 0.120968
H	 2.2540259344	 5.1050257853	-1.6055147085	 0.115483
H	 0.5840543916	 3.5772992424	-0.287813022	 0.255234
85.1046	116.2039	163.5551	274.8682	300.7615	322.8926	429.138	466.8563	536.7294	554.4286	628.9691	740.7003	770.5852	820.7155	876.3543	927.3541	934.5337	977.9335	991.4847	1024.8699	1030.26	1054.4861	1056.2052	1077.9086	1186.3154	1205.0157	1238.6134	1269.9775	1294.7784	1381.8671	1398.6089	1459.5885	1473.2551	1485.7234	1504.4726	1672.7295	1803.5853	2966.8858	3010.8438	3062.9664	3118.96	3126.2893	3201.0264	3217.4455	3609.9262
O=CC1=NCC2(CC2)N1	O=C[C]1[N]CC2(CC2)N1	
InChI=1S/C6H8N2O/c9-3-5-7-4-6(8-5)1-2-6/h3H,1-2,4H2,(H,7,8)	InChI=1S/C6H8N2O/c9-3-5-7-4-6(8-5)1-2-6/h3H,1-2,4H2,(H,7,8)
