18
gdb 79805	4.2765	1.43498	1.24077	2.0977	75.06	-0.2467	0.0146	0.2614	1025.7117	0.150567	-401.91635	-401.909546	-401.908602	-401.947237	27.782	
C	-0.1924892626	 1.5860750322	-0.0218344345	-0.442669
C	 0.0239104879	 0.0796476508	 0.0256490569	 0.044122
C	 1.1901108754	-0.6088543225	-0.7396695473	-0.129809
C	 2.1481242694	-0.1002929556	 0.3730521849	 0.145193
O	 3.3596872623	-0.8249910261	 0.5762457751	-0.247427
C	 3.1882662578	-2.1649150743	 0.5591647989	 0.115531
N	 2.08209173	-2.7554231958	 0.3837892531	-0.297611
C	 0.9693643959	-1.8499725877	 0.1952466273	 0.048257
C	 0.8852575359	-0.5937037753	 1.1322038601	-0.129833
H	 0.7221708637	 2.1663751485	 0.1236006745	 0.12074
H	-0.6172111254	 1.8783944052	-0.9881737538	 0.122539
H	-0.9028781146	 1.8922144601	 0.753580517	 0.122532
H	-0.929731762	-0.4386918929	-0.1254748926	 0.07485
H	 1.3807607031	-0.6297365006	-1.8127354423	 0.079487
H	 2.4237883603	 0.9505161703	 0.4094252657	 0.088565
H	 4.1240901603	-2.6947125672	 0.7158555571	 0.128812
H	 0.037945899	-2.3991379859	 0.0480001828	 0.077229
H	 0.7255527235	-0.5971910233	 2.2105052371	 0.079492
188.6525	210.2893	238.8454	317.9359	369.8023	484.3066	546.0023	602.1157	616.2332	764.6584	789.6021	831.122	834.0319	898.176	898.8317	961.0805	979.8809	1002.4411	1010.5672	1034.0616	1064.5517	1111.643	1117.2231	1122.8044	1145.3269	1168.5227	1187.9813	1192.3833	1225.8911	1255.0448	1269.5567	1347.5395	1381.514	1405.8935	1426.3941	1434.5648	1495.9178	1505.0182	1712.2479	3036.1833	3041.7239	3094.5162	3095.4714	3111.3692	3113.3538	3117.871	3152.2199	3179.9477
CC1C2C3OC=NC2C13	C[C@H]1[C@H]2[C@@H]3O[CH][N][C@H]2[C@H]13	
InChI=1S/C7H9NO/c1-3-4-6-5(3)7(4)9-2-8-6/h2-7H,1H3	InChI=1S/C7H9NO/c1-3-4-6-5(3)7(4)9-2-8-6/h2-7H,1H3/t3-,4+,5-,6+,7-
