14
gdb 29049	2.8192	1.72961	1.11569	5.1592	77.7	-0.2409	-0.0754	0.1655	1013.0008	0.10323	-432.911663	-432.904328	-432.903384	-432.943748	27.623	
N	 0.0598888247	 1.3223429206	 0.2664998919	-0.521819
C	-0.0353335692	 0.0027798006	 0.0676579836	 0.258384
C	-1.2345351725	-0.680442673	 0.0356309972	-0.1924
C	-1.4164942425	-2.0585748065	-0.2007048099	 0.03616
N	-0.5838496151	-3.0705674047	-0.1453155213	-0.278978
C	 0.7252665363	-2.9135446524	 0.1718137852	 0.094217
N	 1.5565495308	-1.9202942872	 0.0835974815	-0.286388
C	 1.3067766427	-0.6203990334	-0.2531040073	 0.350735
O	 2.1651839894	 0.1235754146	-0.7008627312	-0.360599
H	 0.9476737697	 1.7384135655	 0.0160158169	 0.289372
H	-0.7476130997	 1.9026536104	 0.4174582107	 0.272294
H	-2.1450402497	-0.0884180037	 0.0965208096	 0.093037
H	-2.445775684	-2.3433619265	-0.4299256447	 0.119287
H	 1.1758216689	-3.8414654044	 0.5308706077	 0.126698
62.4117	164.8337	307.3943	335.0145	355.7066	377.8951	422.3102	484.007	569.2985	614.9032	646.403	687.7403	771.8432	827.7733	858.1501	893.9057	974.7414	991.6266	1036.6112	1063.8916	1155.0999	1240.5321	1386.5106	1412.4691	1459.4136	1462.0835	1499.4015	1595.2419	1636.6384	1662.8822	1737.642	3102.2302	3109.7565	3148.9095	3550.7299	3706.5718
NC1=CC=NC=NC1=O	Nc1ccncnc1=O	
InChI=1S/C5H5N3O/c6-4-1-2-7-3-8-5(4)9/h1-3H,(H2,6,7,8,9)	InChI=1S/C5H5N3O/c6-4-1-2-7-3-8-5(4)9/h1-3H,(H2,6,7,8,9)
