14
gdb 11228	5.13379	1.40769	1.20374	1.8531	64.73	-0.2309	0.0376	0.2685	969.4278	0.107775	-378.705633	-378.698088	-378.697143	-378.738031	27.728	
N	 0.0206964651	 1.402856078	-0.2278999365	-0.574236
C	-0.0416132993	 0.0444844275	-0.1022380315	 0.479793
N	-1.0497488846	-0.6378099246	 0.280152936	-0.342195
C	-0.6620120731	-2.0506428422	 0.1284333836	-0.162749
C	 0.8504531018	-1.9929405656	-0.2753355304	-0.1197
O	 1.0966568537	-0.592346953	-0.4929233747	-0.250576
C	-0.8882655571	-2.8394400966	 1.337454439	 0.338993
C	-1.0481156442	-3.5120692961	 2.3202325228	-0.465409
H	 0.9422642847	 1.8043713471	-0.1532995353	 0.264863
H	-0.705346366	 1.8968556059	 0.2664371918	 0.271593
H	-1.252398411	-2.4977293601	-0.6835423771	 0.111103
H	 1.5053639985	-2.3476468363	 0.5245746938	 0.126962
H	 1.0722966515	-2.5327227076	-1.1981905392	 0.124116
H	-1.20413754	-4.0971804365	 3.1925174276	 0.197442
39.154	148.8289	190.2091	273.1521	363.8864	424.8277	488.842	531.5597	543.9419	619.133	648.8531	700.2336	707.8504	750.979	856.1293	937.771	1003.355	1033.9379	1052.3883	1068.8263	1172.5152	1225.1134	1275.8133	1330.3426	1363.3699	1431.9064	1523.353	1617.9894	1754.7259	2239.4141	2997.5239	3065.0066	3120.2257	3504.594	3593.5651	3708.2886
NC1=NC(CO1)C#C	NC1=N[C@@H](CO1)C#C	
InChI=1S/C5H6N2O/c1-2-4-3-8-5(6)7-4/h1,4H,3H2,(H2,6,7)	InChI=1S/C5H6N2O/c1-2-4-3-8-5(6)7-4/h1,4H,3H2,(H2,6,7)/t4-/m1/s1
