15
gdb 69043	3.04876	1.36478	1.14207	2.9943	71.84	-0.2478	-0.0451	0.2027	1062.3291	0.111497	-453.914686	-453.90653	-453.905586	-453.947478	30.518	
O	-0.086697867	 1.2849659641	-0.2681039856	-0.416842
C	-0.0067177098	-0.0493229193	-0.0616796443	 0.323773
C	-0.2576951007	-1.0122066003	-1.1740660724	-0.359817
C	-1.1330983329	-1.2038319888	 0.0385800427	 0.129097
N	-0.3933856203	-1.7571290895	 1.1751335129	-0.395507
C	 0.597558904	-0.7297213637	 1.1305484211	 0.290518
N	 1.5584396218	-0.3776760819	 1.8659612109	-0.534552
C	-2.5771468444	-0.9754038889	 0.0814886363	 0.089442
O	-3.2238603644	-0.5398349703	-0.8449857822	-0.275791
H	-0.0547636612	 1.7299557834	 0.5884334206	 0.310904
H	-0.7734891586	-0.5586259831	-2.0157556069	 0.164761
H	 0.4721120471	-1.7768987634	-1.4288665387	 0.124162
H	-0.0856258404	-2.7244138516	 1.1273381139	 0.241064
H	 1.7027075046	-1.0291937389	 2.6395389604	 0.228568
H	-3.0347055877	-1.2100432078	 1.0667678011	 0.080221
89.4501	113.4991	205.3851	221.9929	288.6719	379.2338	401.5797	421.0064	481.474	534.0588	638.6099	670.0011	684.6931	711.8278	794.4605	828.1136	877.1313	956.5786	969.1316	1026.1247	1057.2212	1093.9829	1107.8602	1189.146	1268.4954	1305.8191	1338.9546	1391.1631	1418.9661	1428.9842	1486.0141	1786.0981	1796.8058	2901.8242	3109.8852	3210.8395	3468.3098	3505.1386	3782.8344
OC12CC1(NC2=N)C=O	O[C@]12C[C@]1(N[C]2[NH])C=O	
InChI=1S/C5H6N2O2/c6-3-5(9)1-4(5,2-8)7-3/h2,9H,1H2,(H2,6,7)	InChI=1S/C5H6N2O2/c6-3-5(9)1-4(5,2-8)7-3/h2,9H,1H2,(H2,6,7)/t4-,5-/m0/s1
