22
gdb 101871	3.27791	0.65979	0.57634	4.0005	84.37	-0.269	0.0336	0.3026	1940.0928	0.191716	-404.370068	-404.359003	-404.358059	-404.407669	38.482	
C	 0.0872728171	 1.5208116338	 0.1083455887	-0.38605
C	-0.0010474152	-0.0064635336	 0.0824374244	-0.173961
C	-1.4325532945	-0.5355047799	-0.0191847253	 0.150852
C	-1.4776985663	-2.0592735344	-0.1502385014	-0.405573
O	-2.1185026961	-0.0911638599	 1.1545475884	-0.259887
C	-3.5206547511	-0.0897454507	 1.0712252773	-0.05843
C	-4.0319134053	 0.5719487895	 2.3586088565	-0.338244
C	-5.4891244132	 0.6314062844	 2.4055368786	 0.246565
N	-6.6437162938	 0.6701588488	 2.4244891649	-0.302879
H	 1.1250573552	 1.8531542382	 0.204831611	 0.113306
H	-0.3172010881	 1.9568513843	-0.8121846685	 0.110918
H	-0.4806925353	 1.9253000017	 0.949673287	 0.12666
H	 0.5696835268	-0.4032438235	-0.7654264729	 0.09728
H	 0.4523797674	-0.4248703759	 0.9896926969	 0.105034
H	-1.9188868554	-0.0812230916	-0.8996262516	 0.067118
H	-2.5033308273	-2.4323217027	-0.2219092988	 0.118693
H	-0.9473838466	-2.3792947636	-1.0524741167	 0.119842
H	-1.0012841138	-2.5290915914	 0.7161132071	 0.124908
H	-3.8671148134	 0.4781224342	 0.1936172915	 0.108881
H	-3.9344006538	-1.105492701	 0.9915768501	 0.111948
H	-3.6627435891	 0.0109192062	 3.2234114146	 0.162186
H	-3.6229620682	 1.5848212271	 2.4330522978	 0.160831
40.9261	53.3691	96.0032	111.0957	133.0195	188.2151	218.9479	247.5255	266.6381	327.2229	400.8237	425.186	452.0621	494.343	567.947	771.5566	796.0729	833.3706	901.0806	961.244	980.735	1001.4529	1035.9252	1059.1387	1093.551	1124.4851	1137.0137	1162.0119	1199.4432	1228.231	1295.503	1302.7321	1308.177	1331.3127	1373.9235	1395.6678	1407.5325	1408.221	1436.1181	1471.0214	1474.8838	1491.933	1496.5482	1499.2513	1510.2333	1529.9553	2365.9442	2955.9345	2982.2717	3018.0489	3030.1392	3037.2207	3041.2026	3057.3284	3068.3072	3100.3154	3102.2637	3112.3562	3115.2178	3125.5356
CCC(C)OCCC#N	CC[C@@H](C)OCCC#N	
InChI=1S/C7H13NO/c1-3-7(2)9-6-4-5-8/h7H,3-4,6H2,1-2H3	InChI=1S/C7H13NO/c1-3-7(2)9-6-4-5-8/h7H,3-4,6H2,1-2H3/t7-/m1/s1
