25
gdb 101439	2.60435	1.02425	0.85317	1.6105	89.11	-0.2396	0.0769	0.3165	1516.9117	0.227699	-389.485513	-389.474796	-389.473851	-389.521486	39.382	
C	-1.1211937708	 1.3100396876	-0.4493322798	-0.393867
C	-0.7445732778	-0.1743272353	-0.485444108	-0.169747
C	 0.474588467	-0.4989642526	-1.371474475	 0.010918
C	 1.7761832728	 0.1090583378	-0.8271348384	-0.40575
C	 0.6243290806	-2.0107118587	-1.5034378837	 0.147351
O	-0.5879935315	-2.6727794818	-1.9437917894	-0.297379
C	 0.1525661412	-3.510050391	-2.8516176915	-0.078679
C	 1.4333535288	-2.6681698354	-2.6645020846	-0.052523
C	 1.8051868402	-1.8095756377	-3.8684650064	-0.408699
H	-0.3296512373	 1.9276659822	-0.0133870505	 0.113464
H	-1.3223238188	 1.6908789101	-1.4571923359	 0.112286
H	-2.0243130651	 1.4672011177	 0.1488239501	 0.112003
H	-0.5471418229	-0.5295270858	 0.5358097495	 0.086799
H	-1.5949513908	-0.7559679801	-0.8546962282	 0.121685
H	 0.2800991166	-0.0849300471	-2.3697072234	 0.068207
H	 2.6393229719	-0.1600055233	-1.4440896777	 0.114369
H	 1.7257670257	 1.2005300053	-0.7947478323	 0.119163
H	 1.9740582842	-0.2454248456	 0.1916009773	 0.114002
H	 0.933493498	-2.4192958585	-0.5265246589	 0.060512
H	 0.2224766356	-4.544878596	-2.4890510731	 0.092707
H	-0.2862080259	-3.5141434796	-3.8571241432	 0.097908
H	 2.3041602691	-3.235177799	-2.3254692466	 0.072966
H	 0.9419685586	-1.2533968252	-4.2472151054	 0.127142
H	 2.5960392851	-1.0901565136	-3.6349669965	 0.120104
H	 2.1695427758	-2.4455366843	-4.6828191484	 0.115055
67.2693	78.5261	98.1313	145.7807	196.6509	216.4478	241.991	263.9046	274.0896	351.2545	356.5517	414.4322	466.7256	527.5411	773.5987	777.1363	824.2437	845.6492	871.1554	924.8754	948.9931	971.565	987.7338	1021.8083	1031.7874	1048.1634	1057.4316	1115.7756	1138.0915	1154.477	1180.3456	1194.8919	1201.0822	1256.6947	1279.9184	1293.3767	1304.3994	1351.0689	1354.7306	1374.2472	1380.532	1409.0435	1413.6732	1416.6549	1418.0763	1486.4498	1494.6128	1496.6183	1500.0782	1504.3127	1507.5014	1511.4123	1525.5096	2953.1633	3000.3208	3009.8241	3023.8077	3031.8678	3032.9977	3034.6323	3047.0348	3070.0038	3076.8899	3093.6994	3097.2275	3098.7579	3104.5747	3111.1476	3115.2195
CCC(C)C1OCC1C	CC[C@@H](C)[C@H]1OC[C@H]1C	
InChI=1S/C8H16O/c1-4-6(2)8-7(3)5-9-8/h6-8H,4-5H2,1-3H3	InChI=1S/C8H16O/c1-4-6(2)8-7(3)5-9-8/h6-8H,4-5H2,1-3H3/t6-,7-,8-/m1/s1
