19
gdb 97364	3.55795	0.73745	0.66387	7.344	79.37	-0.2317	0.008	0.2397	1720.4034	0.157705	-456.388803	-456.378415	-456.377471	-456.42551	35.823	
C	-0.1288979013	 1.5026665423	 0.0028499722	-0.325648
N	 0.1743802987	 0.0901298178	 0.0955734008	-0.279589
H	-0.2484813608	-0.4414763852	 0.8421993664	 0.252626
C	 0.6918677874	-0.6396562766	-0.9238156855	 0.13265
N	 0.7348601333	-1.9155248364	-0.9234452431	-0.294262
C	 1.3756064911	-2.5902536553	-2.0410465237	-0.103281
C	 2.8046191015	-3.0381855834	-1.6921151259	-0.377267
C	 0.5450829838	-3.8326834641	-2.4215034294	 0.424539
O	-0.4365790059	-4.1179194184	-1.5546901391	-0.367768
O	 0.7741304074	-4.4986695489	-3.3957932964	-0.350856
H	 0.5010188038	 1.9549415626	-0.7676296202	 0.144855
H	-1.1779643034	 1.6978363591	-0.257129298	 0.134075
H	 0.0907960472	 2.0022751268	 0.9510412195	 0.140412
H	 1.0979779001	-0.0265782754	-1.7398620315	 0.099628
H	-0.3863495929	-3.4096601877	-0.8768403951	 0.297611
H	 1.4165145806	-1.9586616928	-2.9417438363	 0.091432
H	 2.8009962127	-3.6470322915	-0.7830846404	 0.127166
H	 3.2176648995	-3.6294058123	-2.512618655	 0.144064
H	 3.4430991974	-2.1671637106	-1.5182004292	 0.109613
42.9443	68.648	89.4693	128.4029	141.4004	214.5035	233.6826	249.459	312.9186	387.378	435.4092	469.0745	592.6313	608.1275	658.3683	741.7879	800.8568	833.896	918.0319	1011.4617	1028.119	1057.3057	1096.9134	1128.8028	1152.4385	1192.4303	1228.5407	1300.2834	1320.9906	1344.4612	1390.0696	1394.7026	1427.9638	1469.5388	1484.9875	1488.1434	1490.503	1499.2867	1532.6364	1752.7303	1868.5407	2987.633	3011.5681	3033.3145	3042.4742	3081.3004	3115.4167	3122.3246	3135.3904	3491.82	3615.2192
C[NH+]=CNC(C)C([O-])=O	CNC=N[C@@H](C)C(=O)O	
InChI=1S/C5H10N2O2/c1-4(5(8)9)7-3-6-2/h3-4H,1-2H3,(H,6,7)(H,8,9)	InChI=1S/C5H10N2O2/c1-4(5(8)9)7-3-6-2/h3-4H,1-2H3,(H,6,7)(H,8,9)/t4-/m0/s1
