15
gdb 29672	2.40288	2.00191	1.09954	3.3673	70.52	-0.2527	-0.0392	0.2135	1026.5904	0.114397	-454.010002	-454.002283	-454.001339	-454.042515	28.51	
C	 0.1006617717	 1.4331203173	 0.0589981427	-0.333032
N	 0.007176674	-0.0294811582	 0.0184306968	-0.218929
C	-0.0863968084	-0.6290505093	-1.2191525976	 0.492287
O	-0.0978372561	-0.0558455199	-2.2724209293	-0.36377
O	-0.1731031688	-2.0102183703	-1.2283903377	-0.219304
C	-0.1653057276	-2.7191115687	-0.0750974588	 0.071628
C	-0.075888447	-2.1599220879	 1.1310954275	-0.227351
C	 0.0199941025	-0.7128044263	 1.2506373025	 0.377563
N	 0.1116611322	-0.0173055098	 2.319918732	-0.543391
H	 1.0266926631	 1.7266967723	 0.5573739081	 0.150873
H	 0.077990434	 1.7975117544	-0.9644672943	 0.165959
H	-0.7338613934	 1.8371416441	 0.6355966565	 0.150834
H	-0.2404303614	-3.7822880038	-0.2671858668	 0.151101
H	-0.0734486739	-2.7670920895	 2.0257322353	 0.123274
H	 0.110278529	-0.6274124745	 3.135442923	 0.222259
91.7218	137.1459	144.7262	227.8771	364.4534	407.7159	410.2703	510.74	540.4312	578.2277	702.6112	718.9702	759.3495	794.3313	853.2688	861.6258	959.5311	972.8618	1051.7447	1095.2603	1131.8971	1161.4141	1216.3894	1277.159	1339.6698	1401.5409	1430.529	1474.8841	1487.4285	1506.9468	1662.6502	1727.3259	1856.7238	3070.2725	3133.3784	3198.1996	3215.1223	3237.5335	3502.405
CN1C(=O)OC=CC1=N	CN1C(=O)O[CH]C=C1[NH]	
InChI=1S/C5H6N2O2/c1-7-4(6)2-3-9-5(7)8/h2-3,6H,1H3	InChI=1S/C5H6N2O2/c1-7-4(6)2-3-9-5(7)8/h2-3,6H,1H3
