18
gdb 113526	3.47295	0.99738	0.87417	1.9753	74.78	-0.2499	-0.0356	0.2143	1337.8808	0.146951	-439.06205	-439.053172	-439.052228	-439.096353	32.436	
O	-0.0211250769	 1.3633143781	-0.5641373486	-0.415727
C	 0.0058630251	 0.1843104094	 0.2198131599	-0.059245
C	-1.3507342651	-0.4795417976	 0.2515646959	-0.108771
N	-1.7152681268	-1.1796727172	-0.9840585285	-0.387823
C	-1.4993342164	-1.965075224	 0.231840524	 0.241504
C	-0.5008710303	-3.1144857909	 0.4610517278	-0.329009
C	-1.5588749329	-3.8237631966	 1.3707784793	-0.348077
C	-2.5660401578	-2.720582393	 0.9860588097	 0.340264
O	-3.7422228156	-2.5458846459	 1.1409324585	-0.313077
H	-0.3058782787	 1.0959819522	-1.4458455413	 0.292109
H	 0.753977019	-0.5311311601	-0.1523025975	 0.094273
H	 0.3027267149	 0.4904042979	 1.2283161903	 0.113563
H	-2.1357577288	 0.0752115957	 0.7629812847	 0.11254
H	-2.7181708733	-1.1105615348	-1.1535917294	 0.250527
H	-0.2710435461	-3.6646722396	-0.4533761303	 0.125379
H	 0.4316534426	-2.8405687631	 0.9567129646	 0.116927
H	-1.8584390653	-4.8330437413	 1.0778788458	 0.137264
H	-1.3199884076	-3.8279123693	 2.4380752151	 0.137378
66.1754	88.3291	127.8881	136.0137	236.7438	273.9155	392.7363	421.348	456.6432	503.2967	568.7357	625.0022	731.4965	754.4173	817.6818	865.3311	924.3078	965.1302	1006.6344	1016.4168	1031.6392	1064.8636	1086.0384	1089.2133	1112.1705	1176.4933	1194.9101	1213.3687	1239.8972	1263.7477	1268.4741	1334.8865	1377.312	1421.7391	1439.1318	1470.5544	1487.9536	1495.9331	1877.3024	2997.0295	3067.2851	3078.7443	3081.2197	3117.4764	3130.7266	3136.9103	3474.2443	3796.7256
OCC1NC11CCC1=O	OC[C@H]1N[C@]21CCC2=O	
InChI=1S/C6H9NO2/c8-3-4-6(7-4)2-1-5(6)9/h4,7-8H,1-3H2	InChI=1S/C6H9NO2/c8-3-4-6(7-4)2-1-5(6)9/h4,7-8H,1-3H2/t4-,6+/m1/s1
