19
gdb 86313	1.93862	1.80194	1.16417	2.4406	70.94	-0.2316	0.0544	0.286	1108.0741	0.158209	-460.125303	-460.116358	-460.115414	-460.159021	33.584	
O	 0.5260986403	 0.9705623034	-0.7353209634	-0.433211
C	 0.2205317685	-0.145684351	 0.0656157547	 0.066178
C	 0.027033015	 0.0400632264	 1.5976472387	-0.33443
C	-1.1962334233	-0.9118347796	 1.4971355514	 0.084895
O	-2.3297320045	-0.7035376677	 2.2983439274	-0.42826
C	-1.2455952618	-0.6168664193	-0.025367832	 0.388363
C	-2.3166218545	 0.3320766782	-0.6000973869	-0.353538
C	-2.5955484787	-0.825344303	-1.5785352214	-0.075615
O	-1.5954230689	-1.6548059884	-0.9466094924	-0.321108
H	 1.463552369	 1.1662250217	-0.6441589993	 0.287739
H	 0.8827333512	-0.9950765944	-0.1520790193	 0.082726
H	 0.8418403009	-0.2342959959	 2.2695518452	 0.104722
H	-0.2891124715	 1.067760906	 1.8084837027	 0.100762
H	-0.9057847373	-1.95568922	 1.6499345421	 0.103819
H	-2.543747461	 0.2349908631	 2.2757706984	 0.280235
H	-3.1371688952	 0.554146423	 0.0851604981	 0.099791
H	-1.9290715597	 1.2502387275	-1.0395136396	 0.133938
H	-3.5929804603	-1.275001462	-1.5196815057	 0.106301
H	-2.3514923183	-0.6238589979	-2.6279462687	 0.106693
76.7252	96.5299	196.8341	222.1074	229.2252	259.1203	303.7225	324.5632	475.4474	505.2944	516.5589	559.5414	668.1844	787.7805	834.0069	868.4886	875.8769	893.9025	975.4864	1023.2481	1034.5275	1066.1382	1081.4217	1113.0625	1147.532	1166.5581	1169.5127	1177.0432	1211.9824	1231.2842	1241.2768	1258.329	1281.3344	1312.4033	1325.1513	1358.4156	1420.6696	1444.4315	1477.7736	1483.2527	1527.756	3010.99	3025.5657	3050.4804	3068.4322	3074.4477	3082.04	3123.1103	3151.5882	3812.3856	3824.2717
OC1CC(O)C11CCO1	O[C@H]1C[C@@H](O)[C@]21CCO2	
InChI=1S/C6H10O3/c7-4-3-5(8)6(4)1-2-9-6/h4-5,7-8H,1-3H2	InChI=1S/C6H10O3/c7-4-3-5(8)6(4)1-2-9-6/h4-5,7-8H,1-3H2/t4-,5+,6+
