17
gdb 62502	1.8753	1.58459	1.12315	6.3995	78.4	-0.3028	-0.0086	0.2942	1153.2473	0.13461	-380.89655	-380.887204	-380.88626	-380.930495	33.791	
C	-0.0774516584	 1.5472088423	 0.0210547192	-0.458428
C	 0.0103417557	 0.0346801211	 0.0197809335	 0.277418
C	-1.2028333794	-0.6772128515	-0.5465332658	-0.451625
C	 1.3601612919	-0.6211319078	-0.2329526021	-0.231774
C	 2.5340305451	 0.164518276	-0.4886013542	 0.315821
N	 3.4763390461	 0.7932679558	-0.7210216155	-0.329676
C	 0.7281716173	-0.6589596516	 1.1685026986	-0.231777
C	 1.298142804	 0.0905675496	 2.2519763835	 0.315815
N	 1.7353287641	 0.6891006062	 3.1396233889	-0.329668
H	 0.8169401305	 2.0150931474	 0.436649229	 0.163555
H	-0.2099467247	 1.9165136742	-1.0007035873	 0.135306
H	-0.9376004531	 1.8729242183	 0.6143383162	 0.135318
H	-1.37143651	-0.376707675	-1.585734654	 0.138488
H	-1.0871014915	-1.7650633731	-0.5236161831	 0.123859
H	-2.0990004264	-0.4201293193	 0.0274553502	 0.138488
H	 1.3516869469	-1.5718323225	-0.7565540522	 0.144439
H	 0.3495970517	-1.6318148599	 1.465647515	 0.144439
95.8093	128.6158	155.214	168.331	188.6474	242.0252	315.0963	349.5795	370.7767	378.5354	470.7961	557.4126	562.5875	657.9988	710.0705	806.5583	810.6231	959.3046	978.3777	997.0741	998.4272	1065.5308	1084.5813	1142.6361	1148.7055	1236.1889	1320.6536	1349.9451	1411.4767	1419.881	1437.8247	1477.3295	1490.0252	1497.6627	1510.7295	2358.6387	2359.2607	3035.2576	3045.5237	3105.5531	3109.3112	3110.3066	3137.5206	3161.6318	3168.7894
CC1(C)C(C#N)C1C#N	CC1(C)[C@@H](C#N)[C@H]1C#N	
InChI=1S/C7H8N2/c1-7(2)5(3-8)6(7)4-9/h5-6H,1-2H3	InChI=1S/C7H8N2/c1-7(2)5(3-8)6(7)4-9/h5-6H,1-2H3/t5-,6+
