20
gdb 119797	5.00008	0.84524	0.77334	1.5038	82.26	-0.2225	0.0208	0.2433	1520.7512	0.171305	-403.116273	-403.107558	-403.106614	-403.150267	32.387	
C	-0.045114913	 1.4009468909	-0.0667783374	-0.223146
O	 0.0188429361	-0.0007614003	 0.0285899832	-0.226778
C	 0.5930673761	-0.6009048513	-1.1075511025	-0.152432
C	 0.6114848747	-2.0865271912	-0.9599777376	 0.272755
C	 0.0984312019	-2.8033550492	 0.0445313401	-0.140472
C	 0.2337480783	-4.2629324047	-0.2258421746	-0.080736
N	-0.5141170563	-4.6890471857	-1.4488017603	-0.334869
C	 0.929417846	-4.3815138029	-1.535346977	-0.042671
C	 1.2277071507	-2.9711041226	-2.0338755972	-0.308492
H	 0.9552869832	 1.8509449611	-0.1716888576	 0.102718
H	-0.6571796332	 1.7257153012	-0.92346974	 0.104505
H	-0.5029340088	 1.7706431187	 0.8538349148	 0.127635
H	 0.0308089821	-0.3224757767	-2.0193394424	 0.096494
H	 1.6228971921	-0.2253387878	-1.2655164516	 0.088582
H	-0.3919398344	-2.3868728011	 0.9136576926	 0.10647
H	 0.361028016	-4.9801233563	 0.5781026013	 0.084669
H	-0.6166370944	-5.7030554495	-1.4252014631	 0.223286
H	 1.6224301342	-5.187338054	-1.7515462558	 0.084606
H	 0.7863535335	-2.788992559	-3.0216455839	 0.116446
H	 2.3086241847	-2.7976282594	-2.1286035809	 0.101429
71.1392	79.9185	139.7197	172.8429	232.0722	338.7333	357.8112	380.3299	428.7198	514.726	696.7267	717.5574	801.1245	828.4041	861.9018	879.255	924.5354	952.0582	961.2456	985.2294	1003.4272	1049.0374	1084.3349	1127.6532	1143.3153	1164.6965	1176.8471	1184.4437	1198.0225	1223.9174	1252.1585	1258.936	1276.5615	1334.4316	1363.4587	1409.3957	1430.3179	1465.8342	1479.0656	1485.013	1497.293	1521.0252	1706.5958	2915.2941	2928.6623	2967.4081	3009.8899	3012.5856	3052.3213	3114.9814	3162.0565	3171.9621	3231.5186	3467.7702
COCC1=CC2NC2C1	COCC1=C[C@H]2N[C@H]2C1	
InChI=1S/C7H11NO/c1-9-4-5-2-6-7(3-5)8-6/h2,6-8H,3-4H2,1H3	InChI=1S/C7H11NO/c1-9-4-5-2-6-7(3-5)8-6/h2,6-8H,3-4H2,1H3/t6-,7+/m1/s1
