20
gdb 52240	5.14687	0.68974	0.66566	4.0433	80.47	-0.2326	-0.015	0.2176	1684.448	0.170443	-403.109916	-403.100987	-403.100043	-403.14493	32.572	
O	-0.6305301603	 0.7519752774	 0.7808842737	-0.240368
C	 0.0118629223	 1.0202883488	-0.2017287028	 0.159543
C	 1.3254487959	 1.765509205	-0.2077112765	-0.273593
C	 1.2640692069	 3.0207052075	-1.0971872969	-0.215153
C	 2.606543159	 3.7353253445	-1.206067307	 0.025941
C	 3.7883009882	 3.0352443326	-1.9845312692	-0.241101
C	 3.8393913992	 4.2507231576	-2.9144599983	-0.038776
N	 2.502692107	 4.3305593639	-3.5531074479	-0.331587
C	 2.7110239198	 4.904287535	-2.2000557686	-0.076943
H	-0.3483672922	 0.7278827431	-1.2170146648	 0.070191
H	 1.5933401613	 2.0097636608	 0.8248638013	 0.115806
H	 2.0897014803	 1.0817819184	-0.6058861358	 0.119524
H	 0.9295690981	 2.7515250988	-2.1052056913	 0.124944
H	 0.5173200068	 3.7146945272	-0.6895599168	 0.10437
H	 2.9529423226	 4.0485329598	-0.2157913001	 0.075877
H	 4.6819036373	 2.9120142073	-1.3695617173	 0.104508
H	 3.5519661065	 2.0903785277	-2.4818925978	 0.103654
H	 4.7074298652	 4.6872436882	-3.392642858	 0.0941
H	 2.5291803138	 5.1089303492	-4.2112962058	 0.22883
H	 2.5128654624	 5.9523424873	-2.00915512	 0.090233
55.7609	61.8266	96.2998	134.7047	204.5035	297.1997	340.3947	435.793	500.688	567.9376	678.0797	763.4115	799.7029	816.8763	839.0794	860.8029	908.9946	946.6841	969.7231	983.5509	999.5584	1026.0109	1071.1362	1089.6568	1103.5627	1118.9215	1140.258	1168.2332	1198.4525	1225.7825	1250.6301	1268.6544	1290.1167	1317.7195	1327.5898	1344.7342	1387.2249	1390.4785	1431.3919	1463.1029	1475.9066	1496.4335	1835.1007	2848.8524	3007.9614	3025.0683	3051.3029	3060.8107	3074.5891	3095.8274	3121.148	3179.3588	3195.078	3473.2442
O=CCCC1CC2NC12	O=CCC[C@H]1C[C@H]2N[C@@H]12	
InChI=1S/C7H11NO/c9-3-1-2-5-4-6-7(5)8-6/h3,5-8H,1-2,4H2	InChI=1S/C7H11NO/c9-3-1-2-5-4-6-7(5)8-6/h3,5-8H,1-2,4H2/t5-,6+,7-/m0/s1
