17
gdb 41773	3.59337	1.61291	1.15162	3.6393	77.29	-0.2004	0.0078	0.2082	1034.4857	0.139393	-418.029834	-418.022603	-418.021659	-418.06179	27.472	
C	 0.0384355356	 1.4095834287	-0.2054645363	-0.165493
C	 1.5168719953	 1.8426117436	 0.0410859728	-0.200166
N	 2.153580312	 0.5457530419	 0.2631528894	-0.139759
C	 3.3918912649	 0.3321114541	 0.8482648534	 0.016219
C	 3.7647328884	-0.9141426517	 1.1538366868	-0.167456
C	 2.8142157608	-2.0161105803	 0.7960488739	-0.143044
O	 1.4290217771	-1.599552054	 0.9059176606	-0.258115
C	 1.1195585226	-0.3856679415	 0.4471614991	 0.482431
N	-0.0682030243	 0.005921788	 0.2133794139	-0.354762
H	-0.6647622574	 2.0337362073	 0.3539834791	 0.113523
H	-0.227541007	 1.4982919503	-1.2661032456	 0.111369
H	 1.9606135343	 2.3653002265	-0.8109964822	 0.117802
H	 1.6193611592	 2.4812475051	 0.9288865879	 0.111681
H	 3.9910869494	 1.2154210901	 1.0381389066	 0.116295
H	 4.7066172147	-1.1350766379	 1.6351697946	 0.105444
H	 2.9720777051	-2.3759642033	-0.2320961008	 0.122238
H	 2.8992170193	-2.8733910068	 1.4668420768	 0.131793
101.5903	129.8512	159.3341	269.8961	409.4632	440.2174	549.1975	591.2933	662.3608	683.9314	730.8488	777.678	853.3628	863.6803	926.7058	942.8145	946.1826	996.8887	1027.8303	1079.3508	1112.2662	1159.1875	1201.4153	1214.2349	1251.0736	1257.1219	1263.4613	1296.6239	1331.6148	1379.1656	1432.8699	1447.2674	1501.1848	1507.7763	1528.7212	1707.0504	1744.4819	2987.4123	3007.2054	3025.4106	3067.741	3081.7411	3106.0331	3196.2198	3236.7575
C1CN2C=CCOC2=N1	C1CN2C=CCO[C]2[N]1	
InChI=1S/C6H8N2O/c1-3-8-4-2-7-6(8)9-5-1/h1,3H,2,4-5H2	InChI=1S/C6H8N2O/c1-3-8-4-2-7-6(8)9-5-1/h1,3H,2,4-5H2
