19
gdb 45412	2.5389	1.6975	1.65959	3.0009	78.29	-0.2253	-0.0121	0.2132	950.5625	0.162824	-385.936126	-385.929118	-385.928173	-385.967379	28.903	
O	 0.0157445546	-0.037031471	-0.0337691674	-0.332353
C	 0.0002273595	 1.1683411585	-0.0138676345	 0.425264
C	-1.277924666	 2.0116194863	 0.0396968505	-0.316879
C	-0.8939242626	 3.5093235823	 0.0454784287	-0.064817
C	-0.0557810225	 3.7706936178	 1.3300136835	-0.201853
C	 1.2160312993	 2.8803897987	 1.3021810323	-0.221076
C	 1.2542953892	 2.0503289406	-0.02180063	-0.147229
C	 1.1011987177	 3.0032719693	-1.1862396487	-0.087596
C	 0.0012657076	 3.7590251213	-1.1489650717	-0.071459
H	-1.9028606297	 1.7579216135	-0.8220937935	 0.130339
H	-1.8401334323	 1.7290218473	 0.9375064307	 0.122384
H	-1.7865586785	 4.1387283393	 0.0337746604	 0.068245
H	 0.2102257178	 4.8293342784	 1.3847081115	 0.103033
H	-0.6668233955	 3.5472800528	 2.2111881531	 0.099197
H	 2.1221437507	 3.48980967	 1.3515044239	 0.10972
H	 1.2415480576	 2.1988708747	 2.1581128752	 0.111093
H	 2.1434719862	 1.4225119193	-0.0795227242	 0.079658
H	 1.8458475451	 3.0422013115	-1.9731045093	 0.100269
H	-0.2476140681	 4.5014806393	-1.8991712905	 0.09406
95.6775	198.449	337.9304	348.5101	407.7959	449.3855	556.3868	572.6373	618.129	641.7294	717.0993	750.195	821.8988	828.2316	867.1562	914.0684	956.6318	967.8484	972.4554	990.3562	1013.9854	1037.3162	1070.0773	1097.781	1140.7117	1182.6465	1193.4023	1216.988	1245.0669	1270.4417	1288.8673	1318.9974	1327.9854	1351.7732	1367.9631	1389.211	1446.7306	1490.5124	1508.5753	1675.7321	1829.9412	3041.1967	3043.0665	3055.3072	3080.6401	3083.6272	3090.8608	3103.5859	3114.4899	3178.8822	3202.4219
O=C1CC2CCC1C=C2	O=C1C[C@H]2CC[C@@H]1C=C2	
InChI=1S/C8H10O/c9-8-5-6-1-3-7(8)4-2-6/h1,3,6-7H,2,4-5H2	InChI=1S/C8H10O/c9-8-5-6-1-3-7(8)4-2-6/h1,3,6-7H,2,4-5H2/t6-,7+/m1/s1
