17
gdb 106863	2.00158	1.69557	1.11616	5.7295	74.34	-0.2489	0.0174	0.2663	1112.0652	0.136417	-417.970126	-417.96157	-417.960625	-418.003671	31.719	
O	 0.63372875	 0.1757703284	 0.7611882485	-0.399738
C	-0.1323194247	 0.2098814214	-0.425995746	-0.160141
C	-1.4909790673	-0.4312109464	-0.2816345522	 0.276913
C	-2.2110849685	-0.6453060652	 1.0139456435	-0.377961
C	-1.8991253747	-1.8561240738	 0.1465513016	 0.134563
C	-2.838246839	-1.8677678865	-1.0669449434	-0.223394
N	-2.369794436	-0.5031105113	-1.4514287824	-0.359349
C	-1.1030366512	-2.9489202645	 0.5902740278	 0.210132
N	-0.4756210446	-3.8588871682	 0.9349449299	-0.352884
H	 0.2932324218	 0.8479515767	 1.3594390527	 0.290582
H	-0.2752556158	 1.2366938628	-0.800637802	 0.101356
H	 0.440693328	-0.3276004118	-1.1877671585	 0.13706
H	-1.596408802	-0.5823487946	 1.9051468808	 0.139436
H	-3.2477159127	-0.3386102956	 1.1363912096	 0.1135
H	-2.5660344052	-2.6097691238	-1.8217243842	 0.135747
H	-3.9048908386	-1.9612104566	-0.8333582554	 0.112274
H	-3.1007471396	 0.204109929	-1.4566794904	 0.221905
58.5785	112.1084	171.4272	220.7966	246.0658	312.2965	378.7431	403.1656	448.201	555.8107	573.2578	587.0294	698.0863	734.7163	824.5981	872.8454	940.2917	962.8847	976.5821	1015.8697	1056.8379	1082.7182	1089.2949	1130.8196	1170.4906	1212.9354	1215.562	1274.7483	1327.5924	1358.4344	1389.6748	1399.4905	1411.5155	1480.1818	1495.2668	1513.3222	2346.5057	2976.362	3036.0657	3083.6403	3098.3282	3107.3787	3216.6214	3487.1038	3825.8012
OCC12CC1(CN2)C#N	OC[C@]12C[C@]1(CN2)C#N	
InChI=1S/C6H8N2O/c7-2-5-1-6(5,4-9)8-3-5/h8-9H,1,3-4H2	InChI=1S/C6H8N2O/c7-2-5-1-6(5,4-9)8-3-5/h8-9H,1,3-4H2/t5-,6-/m1/s1
