17
gdb 84175	3.60525	1.18858	0.98617	4.0958	76.75	-0.2539	-0.0658	0.1882	1197.8905	0.135382	-421.829368	-421.821337	-421.820392	-421.862109	30.026	
C	-0.135145879	 1.5571290388	 0.0791973277	-0.396659
C	 0.0256033011	 0.0301840789	 0.0014628129	-0.064169
C	 0.8471934286	-0.4424548585	-1.1801518718	-0.165327
C	 1.8725682625	-1.2341770937	-0.8214752297	 0.243435
C	 2.8110503958	-1.8835446823	-1.7379529616	 0.070915
O	 3.7000430272	-2.6269665159	-1.3861033571	-0.270799
C	 1.9224175798	-1.355638502	 0.6700443578	-0.08656
O	 2.1239715411	-0.0784447674	 1.3162230199	-0.253251
C	 0.7895170528	-0.5699789705	 1.1866916162	 0.027882
H	 0.8414921788	 2.0288372847	 0.2118995917	 0.145274
H	-0.5947007892	 1.9525207728	-0.8316083141	 0.118848
H	-0.7708770031	 1.834919005	 0.925137676	 0.124446
H	-0.9732060696	-0.4275117927	-0.0536628345	 0.098239
H	 0.6280944807	-0.1382719713	-2.1995874406	 0.117628
H	 2.6425671534	-1.6519942534	-2.8133862491	 0.070377
H	 2.373365448	-2.2100229685	 1.1609885968	 0.119042
H	 0.277841511	-0.792244524	 2.1193185094	 0.100677
89.4809	160.2497	183.8074	213.7789	237.4956	281.4334	414.4357	465.2394	549.4098	591.715	693.3507	738.7255	824.8166	852.2916	875.8396	883.2905	913.3543	936.7741	1016.2156	1034.6406	1042.4495	1088.8486	1113.6141	1124.1964	1202.6508	1248.8302	1274.1095	1298.4995	1322.3487	1370.4152	1400.4688	1416.2394	1422.9624	1494.1751	1504.9536	1663.4942	1785.7091	2882.0426	3002.8155	3043.2328	3111.0112	3130.7489	3150.0398	3180.8071	3194.6508
CC1C=C(C=O)C2OC12	C[C@H]1C=C(C=O)[C@H]2O[C@@H]12	
InChI=1S/C7H8O2/c1-4-2-5(3-8)7-6(4)9-7/h2-4,6-7H,1H3	InChI=1S/C7H8O2/c1-4-2-5(3-8)7-6(4)9-7/h2-4,6-7H,1H3/t4-,6-,7+/m0/s1
