15
gdb 32392	6.86437	0.87259	0.77802	1.5421	81.6	-0.2087	-0.0194	0.1893	1403.0537	0.111329	-420.607752	-420.599423	-420.598479	-420.64077	30.73	
C	-0.015358352	 1.4164902062	 0.007285023	-0.253429
O	 0.0246085953	-0.0002594881	 0.0026872669	-0.260322
C	-1.1798945561	-0.6084829485	 0.0105414241	 0.378427
C	-2.4404954508	-0.074562556	 0.0219643646	-0.193719
O	-3.3655796145	-1.0754585624	 0.0264937152	-0.182269
C	-2.6838423041	-2.259207073	 0.0178139254	 0.274813
C	-1.3356033748	-2.0261008624	 0.0078967836	-0.4518
C	-3.4321198678	-3.4494948496	 0.0204035192	 0.250641
C	-4.0614769378	-4.4765070953	 0.0225224255	-0.411011
H	 1.0198301447	 1.7597781448	 0.0003050529	 0.139469
H	-0.53443074	 1.7998050638	-0.8814219326	 0.124792
H	-0.5206007356	 1.7943842065	 0.9062209879	 0.124793
H	-2.8294036117	 0.9278624688	 0.0278470238	 0.136463
H	-0.5504475204	-2.7638572315	-0.0003055418	 0.12758
H	-4.6174926144	-5.3810325334	 0.0244023823	 0.195574
78.3427	135.4914	156.7647	210.279	240.8294	346.1449	416.5107	462.6572	540.8801	542.8676	600.523	629.5577	687.0566	688.5908	696.7827	702.0117	822.9127	955.1765	997.6573	1068.2631	1164.4816	1179.5175	1181.6764	1212.0048	1239.1434	1321.9517	1418.087	1473.4268	1484.6127	1507.0405	1552.6831	1646.8275	2232.1097	3000.7105	3058.2209	3141.2333	3275.8442	3295.175	3503.7429
COC1=COC(=C1)C#C	COc1coc(c1)C#C	
InChI=1S/C7H6O2/c1-3-6-4-7(8-2)5-9-6/h1,4-5H,2H3	InChI=1S/C7H6O2/c1-3-6-4-7(8-2)5-9-6/h1,4-5H,2H3
