16
gdb 125156	2.9447	1.48891	1.03845	4.7923	73.62	-0.2282	-0.0217	0.2065	1117.4465	0.123481	-434.019581	-434.01125	-434.010306	-434.053758	29.513	
C	 0.3348974046	 1.3963463815	-0.053353219	-0.502459
C	 0.0552108226	-0.0682345054	-0.0295061041	 0.167836
C	-0.1467562795	-0.9604271406	-1.0534716221	 0.372534
O	-0.3862739086	-2.1658680865	-0.5460322774	-0.223564
N	-0.3301038652	-2.0049914571	 0.9010976524	-0.036034
N	-0.0745907062	-0.7968291315	 1.1254782287	-0.158838
N	-0.2215844134	-0.7880298978	-2.4193131348	-0.15196
C	 0.9628699565	-0.396883946	-3.1893650109	-0.22816
C	 0.3847987846	-1.7643230705	-3.3192302097	-0.222617
H	 1.3855330385	 1.6214821843	 0.1630061699	 0.13678
H	 0.0941039179	 1.8151162107	-1.0338455148	 0.134662
H	-0.2714662561	 1.9143636027	 0.694928347	 0.14941
H	 0.7845188295	 0.3495648087	-3.9564831474	 0.137234
H	 1.8998706841	-0.2972473787	-2.648271051	 0.138959
H	 0.9275011758	-2.5894471404	-2.8679141094	 0.147836
H	-0.2168932051	-2.0214696033	-4.1847609574	 0.138381
44.3519	59.891	156.1896	168.5092	257.2371	298.574	380.091	484.18	560.5008	615.8942	681.3206	705.3777	750.0569	819.7118	915.9997	921.8875	989.8655	1013.0441	1044.5762	1068.5935	1121.6575	1140.2359	1161.8599	1176.6959	1205.8428	1244.6658	1317.221	1409.2206	1455.398	1458.4781	1481.8936	1495.0848	1496.7868	1521.4948	1646.6553	3035.4144	3095.298	3119.4251	3125.117	3127.2125	3208.1515	3222.3573
CC1=C(ON=N1)N1CC1	Cc1c(onn1)N1CC1	
InChI=1S/C5H7N3O/c1-4-5(8-2-3-8)9-7-6-4/h2-3H2,1H3	InChI=1S/C5H7N3O/c1-4-5(8-2-3-8)9-7-6-4/h2-3H2,1H3
