18
gdb 102765	1.67961	1.12944	0.75207	3.7068	79.72	-0.2581	0.0163	0.2744	1552.4943	0.144536	-439.048233	-439.037424	-439.03648	-439.086742	35.947	
C	 0.4498628991	 1.077183819	-0.0945882611	-0.499289
C	 0.1419199511	-0.3429464634	-0.0232573947	 0.03533
C	-0.1231774296	-1.5162963436	 0.0259294257	 0.13627
C	-0.4417186994	-2.9385774761	 0.1033205594	-0.111771
C	-1.9465590468	-3.2320356053	-0.0043493726	-0.062665
O	-2.4803137242	-2.8151107533	-1.2352890541	-0.412645
O	 0.1376671562	-3.6874659839	-0.9886532679	-0.203719
C	 1.4854334925	-3.7087487304	-1.0764067043	 0.133646
N	 2.0371332815	-4.3702407828	-1.9975036126	-0.439678
H	 1.0847241667	 1.2962079525	-0.9598619527	 0.157027
H	-0.46325434	 1.6737249934	-0.193357937	 0.158615
H	 0.9786825584	 1.4172311801	 0.8022695816	 0.151479
H	-0.0732096274	-3.3547488817	 1.052492816	 0.107245
H	-2.0866013215	-4.3110806069	 0.1634773299	 0.100539
H	-2.4741990826	-2.6873131395	 0.7834815466	 0.120089
H	-1.944667535	-3.2285123508	-1.9228939896	 0.299086
H	 1.9846369132	-3.116967364	-0.2999524612	 0.099755
H	 3.0492610978	-4.2900221132	-1.9239154615	 0.230686
18.9272	57.9881	77.4189	86.9005	103.5591	152.937	215.7293	278.3112	305.4058	356.4553	423.2013	431.6784	485.4153	628.6106	669.8841	800.435	821.6414	911.1386	965.9426	1037.1095	1041.1095	1051.1224	1054.0259	1095.8852	1121.9952	1161.7316	1241.2496	1287.1862	1313.9303	1345.9388	1402.627	1413.2975	1422.2954	1432.1498	1474.9513	1477.0491	1493.3848	1745.5551	2370.0671	2986.3916	3001.2688	3030.9457	3051.864	3093.7305	3095.3382	3096.4219	3517.9989	3795.5793
CC#CC(CO)OC=N	CC#C[C@@H](CO)O[CH][NH]	
InChI=1S/C6H9NO2/c1-2-3-6(4-8)9-5-7/h5-8H,4H2,1H3	InChI=1S/C6H9NO2/c1-2-3-6(4-8)9-5-7/h5-8H,4H2,1H3/t6-/m0/s1
