17
gdb 52367	6.00386	0.544	0.50935	3.9577	77.63	-0.2527	-0.0639	0.1887	2024.005	0.131355	-421.815608	-421.805383	-421.804439	-421.852846	34.448	
O	-0.5617735791	 0.7738628911	 0.8845581364	-0.234769
C	 0.0625648527	 1.0093701026	-0.1167208614	 0.161955
C	 1.3393320781	 1.8190582751	-0.1734759959	-0.287189
C	 1.2511942349	 2.9567648615	-1.2033475988	-0.196122
C	 2.5658590484	 3.7246636523	-1.333784591	-0.305017
C	 2.5067684395	 4.8406296502	-2.3644144386	 0.226601
O	 1.5221210123	 5.0791589608	-3.0288512634	-0.284934
C	 3.7293916519	 5.6155101271	-2.5069676665	 0.24615
C	 4.7511010111	 6.243791788	-2.6083850071	-0.38618
H	-0.2792277233	 0.6276540642	-1.1081414789	 0.073607
H	 1.5590152741	 2.1915821073	 0.8316719109	 0.123115
H	 2.1481921387	 1.130604776	-0.4618213365	 0.119157
H	 0.9696415777	 2.5563120032	-2.1835891614	 0.123387
H	 0.4530917084	 3.6526029944	-0.924229655	 0.13054
H	 2.8695430336	 4.1679302642	-0.3755659535	 0.137964
H	 3.3938522059	 3.0576962072	-1.6129361432	 0.134643
H	 5.6444721951	 6.8107819249	-2.712409396	 0.217094
39.2436	50.2183	78.8713	101.2323	115.4808	177.849	244.2472	276.7581	327.4207	481.2393	525.4435	569.6269	608.4692	648.7971	707.1152	739.2697	797.7146	843.8237	910.7231	989.9682	1050.4397	1074.0983	1101.0509	1125.2499	1177.2753	1257.8677	1277.9604	1322.3813	1344.6382	1393.7468	1430.1024	1447.	1462.8601	1495.038	1770.3478	1838.4873	2211.6598	2852.1444	3004.4353	3017.6101	3045.6702	3049.5085	3081.7868	3099.6506	3493.6564	39.2436	50.2206	78.8703	101.2322	115.4797	177.8492	244.2462	276.7581	327.4207	481.2393	525.4435	569.6263	608.4688	648.796	707.114	739.2696	797.7145	843.8237	910.7231	989.9681	1050.4397	1074.0983	1101.0513	1125.2502	1177.2756	1257.8679	1277.9612	1322.3823	1344.6387	1393.7473	1430.1018	1447.0011	1462.8602	1495.039	1770.3479	1838.4874	2211.6597	2852.1442	3004.4353	3017.6101	3045.6701	3049.5085	3081.7867	3099.6506	3493.6562
O=CCCCC(=O)C#C	O=CCCCC(=O)C#C	
InChI=1S/C7H8O2/c1-2-7(9)5-3-4-6-8/h1,6H,3-5H2	InChI=1S/C7H8O2/c1-2-7(9)5-3-4-6-8/h1,6H,3-5H2
