15
gdb 15859	2.83914	1.98684	1.30543	3.3213	63.09	-0.2545	-0.0324	0.222	915.8288	0.117399	-399.830535	-399.822444	-399.8215	-399.863781	28.365	
C	-0.1753072576	 1.5311213016	 0.097778679	-0.382551
C	 0.0266284778	 0.0235246941	 0.1055882612	 0.045514
N	 1.0794374703	-0.4686518274	-0.8041846944	-0.328185
C	 1.8430531694	-1.095288975	 0.1384730267	 0.423206
O	 2.8634021975	-1.7250396347	 0.1042669862	-0.352128
C	 0.8292690218	-0.6666760971	 1.2564662309	-0.274353
C	 1.4220787279	 0.0911317376	 2.4128664737	 0.146057
O	 1.1668622572	 1.2257576473	 2.7268985944	-0.244142
H	 0.7645338471	 2.0626953926	 0.2529279908	 0.137256
H	-0.5991884439	 1.8386292551	-0.8648729207	 0.109478
H	-0.8671239422	 1.8307772521	 0.8881497494	 0.138328
H	-0.9302135815	-0.482979482	-0.0693880806	 0.092828
H	 1.174321908	-0.431163703	-1.8087609517	 0.255225
H	 0.3387266635	-1.5607440878	 1.6593021042	 0.129422
H	 2.1567947747	-0.5151352234	 2.9875402812	 0.104045
47.2281	86.4626	184.9105	213.6446	240.1883	322.7262	392.6128	412.652	492.4152	649.6952	677.2475	747.0291	775.4864	861.6695	910.7447	1008.9934	1038.0706	1062.6355	1085.3145	1144.8177	1155.2704	1195.1014	1276.6084	1333.1095	1384.5597	1393.1652	1419.369	1428.6078	1480.7062	1492.4156	1822.8413	1899.9061	2892.536	3028.6954	3042.9065	3057.1575	3117.6394	3149.1319	3607.83
CC1NC(=O)C1C=O	C[C@H]1NC(=O)[C@H]1C=O	
InChI=1S/C5H7NO2/c1-3-4(2-7)5(8)6-3/h2-4H,1H3,(H,6,8)	InChI=1S/C5H7NO2/c1-3-4(2-7)5(8)6-3/h2-4H,1H3,(H,6,8)/t3-,4+/m1/s1
