15
gdb 12457	3.73685	1.99019	1.3744	4.0952	64.44	-0.2244	0.0055	0.23	864.3194	0.121641	-399.846611	-399.839822	-399.838878	-399.877769	25.586	
O	-0.0252196083	-0.0817921451	-0.1557112675	-0.371886
C	-0.0206628486	 1.1077078943	 0.0337152326	 0.452188
N	-1.1890023372	 1.793103261	 0.3480104335	-0.375984
C	-1.5545918431	 3.1345134771	 0.1687007299	 0.012971
C	-0.7845560185	 4.2134938249	 0.016521243	-0.089404
C	 0.7138245355	 4.2498101912	 0.0536345655	-0.267801
C	 1.3105988743	 3.0169276782	 0.716381438	-0.090979
O	 1.1178002499	 1.8239255973	-0.059698271	-0.232819
H	-1.9567725134	 1.1415876699	 0.402620161	 0.264226
H	-2.6335429664	 3.2490587771	 0.1616386366	 0.113001
H	-1.3020208168	 5.1557191514	-0.1290929646	 0.094729
H	 1.138739769	 4.3524272035	-0.9543640912	 0.126838
H	 1.0480739681	 5.1344322449	 0.6124811422	 0.11138
H	 2.3953723135	 3.1106850095	 0.8020463528	 0.127561
H	 0.8956879019	 2.8743993049	 1.7201715293	 0.125979
100.9274	135.8735	282.4698	330.5707	406.5406	463.5047	522.2978	611.0715	655.9976	732.3024	762.5319	783.8849	855.2062	888.8008	960.862	968.3732	990.7688	1074.1691	1102.8075	1134.1943	1227.5944	1251.5196	1296.5969	1328.9535	1388.264	1425.1518	1448.1309	1468.6602	1490.1758	1505.1728	1747.5113	1836.3311	3011.7188	3036.2243	3054.476	3113.128	3174.2751	3194.7614	3632.3081
O=C1NC=CCCO1	O=C1NC=CCCO1	
InChI=1S/C5H7NO2/c7-5-6-3-1-2-4-8-5/h1,3H,2,4H2,(H,6,7)	InChI=1S/C5H7NO2/c7-5-6-3-1-2-4-8-5/h1,3H,2,4H2,(H,6,7)
