25
gdb 100676	2.30012	1.04869	0.98085	1.5092	85.42	-0.2482	0.0689	0.3171	1447.0097	0.224722	-426.626349	-426.614362	-426.613417	-426.663259	43.694	
C	-0.1066695427	 1.5823574887	 0.0867214064	-0.394535
C	-0.0958079614	 0.0569642117	-0.0625608007	-0.210012
C	 0.7080968254	-0.4707234785	-1.2687924625	 0.335214
C	 0.2228072687	 0.1210146048	-2.5939501032	-0.410219
O	 2.0855449389	-0.0868475441	-1.1670069909	-0.47497
C	 0.6364770908	-2.0243289102	-1.3573608939	 0.133641
C	 1.3049392802	-2.7621507698	-0.1926295919	-0.438197
O	-0.739365372	-2.3695714138	-1.4755041527	-0.25096
C	-0.9934390234	-3.6320402007	-2.0447862758	-0.233404
H	 0.9090404536	 1.9872553405	 0.047068474	 0.120283
H	-0.689464822	 2.0664783507	-0.7021630595	 0.120224
H	-0.5506721264	 1.8708281781	 1.0444117976	 0.10725
H	 0.3310744038	-0.3818695536	 0.8498545787	 0.08059
H	-1.1163318374	-0.331057348	-0.1322351234	 0.118998
H	 0.2946227418	 1.2101627259	-2.5820471426	 0.118324
H	 0.8496326076	-0.2448949977	-3.4128265607	 0.113571
H	-0.8109090413	-0.1721366421	-2.7861878421	 0.125912
H	 2.3741818164	-0.2510092546	-0.263492192	 0.276412
H	 1.1618606285	-2.3041677698	-2.285186808	 0.065153
H	 0.7954689909	-2.5648074471	 0.7547242809	 0.12494
H	 1.288876378	-3.842618182	-0.3605707506	 0.118866
H	 2.3551912997	-2.4702821498	-0.1045107845	 0.115502
H	-0.5149371718	-3.7358593299	-3.0311013337	 0.105005
H	-0.6524422439	-4.4615730355	-1.4083896599	 0.106473
H	-2.076213652	-3.717158793	-2.1686533993	 0.12594
64.5726	70.7824	97.0418	175.4101	187.8926	191.8764	214.6655	242.1885	258.8194	297.9512	319.0297	346.0828	354.5297	363.093	425.7297	469.6088	512.3347	607.2542	714.6572	789.8624	855.7494	903.8029	929.9321	1001.6648	1005.5927	1032.2594	1063.6003	1077.2952	1109.5966	1143.7417	1152.5645	1182.2115	1198.031	1215.2177	1241.5788	1286.0798	1341.6944	1370.8437	1373.9194	1389.6078	1397.726	1408.3868	1419.8083	1478.0329	1481.8142	1486.9173	1487.7412	1492.4787	1498.1487	1506.7719	1510.8856	1512.3135	1515.2713	2968.1973	2979.2796	3014.5448	3027.0347	3041.3114	3046.8521	3053.1125	3085.6672	3106.1944	3108.0412	3113.2781	3116.0353	3121.9062	3123.4925	3146.434	3815.3307
CCC(C)(O)C(C)OC	CC[C@@](C)(O)[C@@H](C)OC	
InChI=1S/C7H16O2/c1-5-7(3,8)6(2)9-4/h6,8H,5H2,1-4H3	InChI=1S/C7H16O2/c1-5-7(3,8)6(2)9-4/h6,8H,5H2,1-4H3/t6-,7-/m1/s1
