18
gdb 41235	3.37668	1.86443	1.73072	2.3608	73.08	-0.2422	0.0667	0.3089	854.2416	0.151837	-401.881951	-401.876081	-401.875137	-401.911774	25.696	
C	 0.0657242262	 1.5097903031	-0.1387413493	-0.209428
O	 1.4952609357	 1.4861541971	 0.1834034298	-0.319221
C	 1.254674593	 0.2553525575	 0.9365454885	 0.1649
C	 1.8758238905	-1.123063119	 0.8634372816	-0.126204
C	 0.6350071071	-2.0013389492	 0.9242543992	-0.027659
C	-0.6606337406	-1.1368266848	 0.8833739139	-0.344675
C	 0.0155805642	-0.0116505882	 0.0981808669	 0.224985
C	 0.6332391446	-0.8090981552	-1.0753528496	-0.177863
N	 1.3984437196	-1.8354387582	-0.3356796264	-0.119489
H	-0.4920690734	 2.1136453981	 0.5879184396	 0.106876
H	-0.1166649231	 1.8771583864	-1.1524155608	 0.113511
H	 1.0508775462	 0.5257497715	 1.9821770471	 0.077864
H	 2.8260887943	-1.4194168931	 1.2892259558	 0.096411
H	 0.6470017482	-2.9833933071	 1.3813734893	 0.098947
H	-1.4742853341	-1.6579206944	 0.3705196472	 0.107932
H	-0.9955879431	-0.8432812982	 1.8814636553	 0.109986
H	-0.1245269658	-1.2825677044	-1.7079372387	 0.099931
H	 1.3092738306	-0.2136816522	-1.6914734794	 0.123196
284.8659	310.6293	377.1336	434.1029	481.4789	562.9169	685.0146	735.7602	748.0449	783.5581	834.7552	864.2515	877.2352	905.773	936.8915	944.6027	977.2707	981.5892	1007.6076	1023.9407	1049.0746	1060.2342	1095.5913	1119.2174	1149.6167	1188.5013	1207.5618	1217.1449	1238.8659	1262.4938	1270.7702	1290.1253	1296.3513	1341.2017	1358.2273	1384.0329	1485.9753	1503.451	1517.0206	3004.3324	3024.285	3053.2041	3059.9134	3092.9868	3109.8017	3125.3858	3187.0613	3198.7709
C1OC2C3C4CC12CN34	C1O[C@@H]2[C@H]3[C@H]4C[C@@]12CN34	
InChI=1S/C7H9NO/c1-4-5-6-7(1,3-9-6)2-8(4)5/h4-6H,1-3H2	InChI=1S/C7H9NO/c1-4-5-6-7(1,3-9-6)2-8(4)5/h4-6H,1-3H2/t4-,5-,6-,7-,8?/m1/s1
