18
gdb 36091	3.65074	1.19199	1.13012	4.9345	75.46	-0.2537	0.0347	0.2884	1129.9834	0.149287	-401.945406	-401.937843	-401.936898	-401.977788	29.533	
N	 0.0130439058	-1.163939224	-0.1472981995	-0.312574
C	 0.0226649405	-0.023197991	 0.0338318365	 0.276299
C	 0.0265411048	 1.4256614478	 0.2377390361	-0.451221
C	 1.3941485	 2.0400916183	 0.0191757406	 0.459394
C	 2.2352197054	 1.9191497811	-1.2771964232	-0.268397
C	 3.0431186291	 3.0443194891	-0.5544901096	-0.077629
C	 1.664496262	 3.566565547	-0.0369156801	-0.283766
C	 3.5218607374	 2.2744541271	 0.6816714425	-0.075781
O	 2.2989725323	 1.5890637261	 1.0419931217	-0.311186
H	-0.6957383931	 1.8786529622	-0.449192849	 0.152379
H	-0.3065470585	 1.6430828552	 1.2587196442	 0.162395
H	 2.7228187073	 0.9597508837	-1.461858885	 0.118588
H	 1.7152759789	 2.2760378823	-2.1676689329	 0.105874
H	 3.7582672071	 3.6823613591	-1.0702779194	 0.081454
H	 1.0921190522	 4.0836534136	-0.8089069277	 0.10488
H	 1.6344295227	 4.1112184867	 0.9100151149	 0.104381
H	 4.3110269653	 1.5457693932	 0.465991217	 0.109815
H	 3.8441787808	 2.9207834625	 1.5058208229	 0.105095
68.919	109.832	273.3014	296.8274	376.9614	389.9055	453.051	495.5428	517.5652	650.6192	708.4137	828.0608	857.0406	869.506	898.6688	910.7248	942.1968	960.4148	984.1971	988.3441	1002.3326	1059.118	1092.8991	1107.7656	1145.9169	1149.9197	1191.072	1210.8488	1246.7376	1269.1099	1292.6671	1306.3617	1352.4483	1374.5052	1451.377	1475.5631	1507.6511	1534.5761	2367.2546	3031.3162	3050.77	3066.307	3074.3474	3076.8357	3094.5562	3134.8901	3138.3113	3143.9219
N#CCC12CC(C1)CO2	N#CC[C@@]12C[C@@H](C1)CO2	
InChI=1S/C7H9NO/c8-2-1-7-3-6(4-7)5-9-7/h6H,1,3-5H2	InChI=1S/C7H9NO/c8-2-1-7-3-6(4-7)5-9-7/h6H,1,3-5H2/t6-,7+
