13
gdb 26841	3.55833	1.16067	0.87603	5.4022	73.61	-0.2052	-0.0633	0.142	1209.3612	0.088698	-489.917415	-489.909253	-489.908309	-489.950156	29.444	
N	 0.2031776117	 1.3696436604	-0.1153777271	-0.601985
C	-0.0048499898	 0.012986058	-0.0494313159	 0.289013
C	-1.1346612314	-0.7773565161	-0.0810028062	 0.268998
O	-2.4089336977	-0.3288100254	-0.1089112313	-0.44169
N	-0.7795314889	-2.0809414185	-0.0783160303	-0.343176
C	 0.5311093182	-2.0867844532	-0.0435606176	 0.269829
O	 1.0575779738	-0.8110837582	-0.0298786721	-0.182056
C	 1.4833918516	-3.1814698976	-0.0077490189	 0.074673
O	 1.1892727902	-4.3565264592	-0.0169833279	-0.273589
H	 1.0078545659	 1.6971512393	 0.402965518	 0.270315
H	-0.6280609747	 1.9056963067	 0.0920379136	 0.276956
H	-2.983582083	-1.1039287204	-0.1099530551	 0.313541
H	 2.5361824441	-2.8282458957	 0.0280788108	 0.07917
118.7851	170.7259	195.1582	231.3998	260.7381	280.4692	312.6709	397.5162	434.6419	534.5191	615.6786	666.8677	685.1259	714.779	768.211	860.8276	1001.665	1011.456	1073.0279	1154.5414	1196.4246	1359.6961	1364.4902	1435.1895	1500.0638	1548.5049	1632.3091	1703.5803	1784.3315	2904.291	3550.5727	3655.7001	3810.0974
NC1=C(O)N=C(O1)C=O	Nc1c(O)nc(o1)C=O	
InChI=1S/C4H4N2O3/c5-3-4(8)6-2(1-7)9-3/h1,8H,5H2	InChI=1S/C4H4N2O3/c5-3-4(8)6-2(1-7)9-3/h1,8H,5H2
