25
gdb 60044	2.43469	0.98309	0.90898	1.7012	89.56	-0.2545	0.0828	0.3373	1516.2021	0.225723	-389.494313	-389.483085	-389.48214	-389.530622	41.614	
C	 2.3128829976	 0.964118739	-0.2655822485	-0.389968
C	 0.966284623	 0.5631918721	 0.352470432	 0.036546
C	 0.2875785603	-0.5322224899	-0.4820707311	-0.379522
C	 1.1679434433	 0.136054512	 1.8222497791	-0.255909
C	-0.1029649562	-0.1370720999	 2.6114464199	 0.391124
C	-1.0793576348	 1.0193355437	 2.7160764098	-0.461508
O	-0.7371825016	-1.4125085524	 2.3788773512	-0.299084
C	-0.1518969434	-1.1746171228	 3.664637875	 0.026342
C	 0.9816334903	-2.070967668	 4.095328934	-0.426657
H	 3.0081000579	 0.1159074955	-0.2747050103	 0.111145
H	 2.1871561513	 1.2987120348	-1.30055228	 0.109291
H	 2.7875216301	 1.776840402	 0.294971967	 0.10618
H	 0.3222390206	 1.4526991959	 0.3379018714	 0.072793
H	 0.9043739223	-1.4385488443	-0.5047096679	 0.109757
H	-0.6859328618	-0.8133318379	-0.0745473126	 0.135793
H	 0.1467731769	-0.1996342127	-1.5161335503	 0.102215
H	 1.8038178336	-0.7544944547	 1.8364006371	 0.096854
H	 1.7234550441	 0.926416192	 2.3460491159	 0.091772
H	-1.4621500155	 1.3035355968	 1.7310872851	 0.129418
H	-1.933649904	 0.7455200492	 3.3399334773	 0.123323
H	-0.5959164373	 1.8998132667	 3.1538328898	 0.116471
H	-0.8951033141	-1.0111316425	 4.4499596535	 0.076867
H	 1.7052813504	-2.2386728121	 3.296086512	 0.128342
H	 1.5034389566	-1.6392177429	 4.9566224115	 0.120074
H	 0.5877831102	-3.0464770795	 4.4002429189	 0.128341
41.2602	90.0909	137.2848	172.2319	184.664	224.9177	243.9342	250.7625	257.301	317.2976	362.0947	372.1914	420.8501	466.9957	484.263	521.8	723.7028	774.176	821.4726	885.5697	896.0114	931.2151	941.4512	970.4615	981.3061	998.485	1037.22	1088.5355	1117.4931	1138.79	1151.2274	1181.5925	1196.4038	1250.9585	1287.2902	1315.2048	1354.1111	1368.8643	1392.8243	1402.3929	1409.5765	1414.0266	1425.6165	1460.8188	1465.7713	1482.2877	1484.5359	1491.7779	1495.4528	1498.577	1505.4101	1507.6289	1516.2143	3012.4224	3015.6556	3022.6732	3031.208	3037.6072	3038.406	3064.8282	3080.9903	3086.7792	3093.6035	3096.484	3098.0937	3102.2269	3121.403	3126.3146	3139.8941
CC(C)CC1(C)OC1C	CC(C)C[C@@]1(C)O[C@H]1C	
InChI=1S/C8H16O/c1-6(2)5-8(4)7(3)9-8/h6-7H,5H2,1-4H3	InChI=1S/C8H16O/c1-6(2)5-8(4)7(3)9-8/h6-7H,5H2,1-4H3/t7-,8+/m0/s1
