19
gdb 128470	3.75975	1.05843	0.8611	1.2551	78.17	-0.2362	0.0255	0.2617	1352.0144	0.159705	-419.219973	-419.210814	-419.20987	-419.255014	33.044	
C	-0.1392183707	 1.3564057169	 0.0531511508	-0.23145
O	 0.052985062	-0.0346420891	-0.0376930405	-0.245652
C	 0.6716625233	-0.6218198083	 1.1005126966	 0.031324
C	-0.2864837985	-0.7591239501	 2.2881924901	-0.397518
C	 1.2111893724	-1.9545865854	 0.649658856	 0.336899
N	 1.6280321666	-2.8590547778	 1.5344067436	-0.310592
N	 2.0634977994	-3.8877280267	 0.7819889507	-0.177838
C	 1.9316212407	-3.6665417212	-0.5480316383	-0.030358
C	 1.3798363206	-2.4108475797	-0.6778488559	-0.274372
H	 0.8045339661	 1.8847335708	 0.2633466869	 0.102649
H	-0.5208872278	 1.6911061986	-0.9149127179	 0.124767
H	-0.8679770274	 1.6353805099	 0.8278505738	 0.107603
H	 1.5207697195	 0.0151824192	 1.405878947	 0.077869
H	-1.1719703622	-1.3268022765	 1.9883311324	 0.122617
H	 0.2102970873	-1.294902055	 3.100197126	 0.141072
H	-0.6030698271	 0.2194453349	 2.660250513	 0.105718
H	 2.427206929	-4.7054038708	 1.240296112	 0.272742
H	 2.231508903	-4.4023046556	-1.2775539557	 0.131198
H	 1.1219477137	-1.8897766143	-1.5829680206	 0.113322
28.5074	75.9121	163.2598	170.4065	205.8797	247.078	326.11	371.2741	436.7612	477.0421	500.841	656.8528	687.9212	756.1808	778.6803	856.0167	864.2422	948.1786	978.2026	1032.746	1060.7997	1086.7664	1101.3929	1116.4209	1161.3616	1184.1427	1205.7304	1228.9991	1284.1188	1355.0613	1365.3081	1394.8557	1401.628	1476.2056	1476.6932	1482.9964	1487.6142	1496.7173	1501.2861	1514.0781	1570.2312	2940.228	2975.3341	3025.5649	3047.1599	3108.4939	3118.8281	3135.6899	3260.198	3297.6513	3678.5763
COC(C)C1=NNC=C1	CO[C@@H](C)c1n[nH]cc1	
InChI=1S/C6H10N2O/c1-5(9-2)6-3-4-7-8-6/h3-5H,1-2H3,(H,7,8)	InChI=1S/C6H10N2O/c1-5(9-2)6-3-4-7-8-6/h3-5H,1-2H3,(H,7,8)/t5-/m0/s1
