21
gdb 103777	3.22305	1.06963	0.96954	3.0704	79.07	-0.2383	0.0621	0.3004	1319.5562	0.180582	-424.186739	-424.177105	-424.176161	-424.221219	35.86	
C	-0.329539506	 1.5333670341	 0.1268384197	-0.395905
C	 0.1558653684	 0.0925869595	-0.071585716	-0.226747
C	 0.8229843563	-0.4862301251	 1.1612629979	 0.345876
O	 1.9855736113	 0.1883632788	 1.5744948978	-0.471061
C	-0.0117875628	-1.1456445273	 2.2432900067	-0.429509
C	 0.8963801461	-1.9634903694	 1.3643972321	 0.249087
C	 0.5794990744	-3.0989414011	 0.3973796267	-0.141627
O	 1.7895508158	-3.78699941	 0.7785497523	-0.27867
C	 2.1287101098	-2.7698948362	 1.7520745456	-0.13049
H	 0.5070150116	 2.2010246876	 0.3594923225	 0.114377
H	-0.8078772332	 1.9160090472	-0.7792114842	 0.119151
H	-1.0558629498	 1.5995664607	 0.9443120717	 0.117579
H	-0.6893869754	-0.546008618	-0.3532928942	 0.097745
H	 0.8699460718	 0.0569912866	-0.9038496351	 0.108443
H	 1.7200854599	 1.0113940165	 1.998284605	 0.285431
H	 0.2987251789	-0.9981820143	 3.2733085509	 0.113424
H	-1.0851325295	-1.2282504235	 2.0963519215	 0.111015
H	-0.3189509056	-3.6857040025	 0.6332265194	 0.097616
H	 0.5693911192	-2.8424690065	-0.6703705345	 0.10029
H	 3.0920468211	-2.2932240069	 1.5395212637	 0.116864
H	 2.1373304478	-3.1700216201	 2.7744806805	 0.09711
75.3481	104.7547	131.9465	163.0337	232.1677	238.1266	290.7731	297.5689	387.122	423.2779	438.6762	473.1485	652.9327	697.4107	787.1961	860.7398	877.5395	901.2968	907.7526	970.7574	985.1174	1002.6084	1027.5555	1030.255	1051.9765	1090.5466	1129.699	1150.0933	1161.1677	1179.5451	1191.5006	1265.4381	1302.6277	1308.102	1311.9713	1357.2769	1373.6274	1406.1507	1428.2966	1475.8311	1497.0487	1504.4926	1510.643	1511.2428	1535.9478	2995.1888	3012.4176	3026.3474	3032.5604	3037.1767	3063.9686	3065.7229	3100.5774	3109.1405	3113.6403	3203.1807	3806.2602
CCC1(O)CC11COC1	CC[C@@]1(O)CC21COC2	
InChI=1S/C7H12O2/c1-2-7(8)3-6(7)4-9-5-6/h8H,2-5H2,1H3	InChI=1S/C7H12O2/c1-2-7(8)3-6(7)4-9-5-6/h8H,2-5H2,1H3/t7-/m1/s1
