19
gdb 107755	2.79814	1.37385	1.23047	1.864	75.15	-0.233	0.065	0.2981	1093.8908	0.158934	-422.959879	-422.951475	-422.950531	-422.992774	32.712	
O	-0.032587222	 1.3581960847	-0.0170893342	-0.424124
C	 0.0334187943	-0.0634970615	-0.0049080773	-0.202057
C	-1.3700852054	-0.5910895459	 0.0271271219	 0.262397
C	-2.288805023	-0.3851430433	 1.2673521914	-0.259306
C	-2.9860333428	-1.6754916233	 0.8475482597	-0.114131
C	-3.0269200256	-1.6838650432	-0.7137305078	-0.155853
C	-2.3415319289	-0.4007724483	-1.1746613914	-0.259456
C	-1.8095583703	-2.1382360232	 0.0485927579	 0.313923
O	-1.1142225309	-3.3176876868	 0.1275077662	-0.452717
H	 0.8664322129	 1.6998231119	-0.0075008375	 0.287259
H	 0.5552859759	-0.4435858086	-0.8999069736	 0.076052
H	 0.5872711095	-0.4304014613	 0.8745216455	 0.090451
H	-1.7379578455	-0.5138405932	 2.2037376391	 0.096993
H	-2.8669199679	 0.54384128	 1.3030631163	 0.095225
H	-3.6816700822	-2.2887536254	 1.405737328	 0.087267
H	-3.7599336544	-2.2916922617	-1.2290926333	 0.084171
H	-2.9195876146	 0.5286221186	-1.1934799725	 0.097631
H	-1.8323369771	-0.5345387323	-2.1344774388	 0.086941
H	-0.7883572321	-3.542740657	-0.7511532793	 0.289333
75.9961	129.135	218.0763	256.5089	271.6669	330.5012	354.26	397.7165	488.4283	495.1961	593.5412	701.198	715.2754	742.202	861.608	891.9468	905.5243	926.3097	946.6818	989.4322	992.6854	1020.9246	1056.2763	1080.4153	1106.5457	1108.5953	1126.7186	1170.5048	1204.3649	1225.8679	1237.5729	1252.3637	1268.6941	1295.8252	1317.1789	1339.6682	1466.5596	1475.9619	1489.1	1509.7154	1518.6177	2950.2689	2981.9934	3037.2122	3044.0462	3090.7325	3098.1998	3192.0136	3202.5676	3786.4014	3825.2947
OCC12CC3C(C1)C23O	OC[C@@]12C[C@H]3[C@@H](C1)[C@@]23O	
InChI=1S/C7H10O2/c8-3-6-1-4-5(2-6)7(4,6)9/h4-5,8-9H,1-3H2	InChI=1S/C7H10O2/c8-3-6-1-4-5(2-6)7(4,6)9/h4-5,8-9H,1-3H2/t4-,5+,6+,7+
