20
gdb 103870	4.33735	0.75175	0.70808	4.5613	80.42	-0.2754	0.0378	0.3132	1601.3592	0.169281	-403.149244	-403.13909	-403.138146	-403.18482	36.524	
C	-0.0072178482	 1.5936853526	-0.0663328299	-0.469697
C	-0.06546711	 0.0814825839	 0.0506275613	 0.32962
C	-1.3201094776	-0.5248895837	-0.5426021816	-0.138266
O	-1.343104884	-0.2334206602	-1.9332987435	-0.419357
C	 1.2080519378	-0.7228972577	-0.0747341123	-0.307583
C	 0.501701492	-0.6400969152	 1.2560764883	-0.05105
C	 1.1164243364	 0.1088389726	 2.4300507396	-0.374478
C	 2.0448316374	-0.7299132137	 3.1914303385	 0.266516
N	 2.7699365827	-1.403295586	 3.7880753136	-0.306557
H	 0.9584001238	 2.0006914758	 0.2442614527	 0.111995
H	-0.1697187433	 1.8822684618	-1.1079373318	 0.145256
H	-0.7871285599	 2.070958202	 0.5395232291	 0.112044
H	-1.3252643568	-1.6121577324	-0.3664564873	 0.08475
H	-2.2057825234	-0.1046531434	-0.0378054174	 0.086486
H	-2.1977216491	-0.5009823302	-2.2835155527	 0.289606
H	 1.1830243257	-1.6623728325	-0.6153801076	 0.122432
H	 2.1379133137	-0.1737948756	-0.1849816265	 0.1161
H	-0.034118599	-1.5337606266	 1.5648864462	 0.099819
H	 1.6599415506	 0.9953864095	 2.0901218711	 0.150651
H	 0.3370752112	 0.4639187191	 3.1155499402	 0.151715
48.4451	81.8374	121.1715	173.7317	186.4688	243.105	251.8648	298.5868	349.2323	367.2393	390.1411	417.5467	492.3723	613.9836	705.9389	850.3727	864.7883	894.7342	936.5832	941.5273	978.5708	1003.0313	1027.1767	1071.4692	1080.7077	1111.6111	1127.9141	1168.7065	1233.7629	1241.4066	1250.7883	1289.7995	1323.2894	1361.0009	1414.4255	1429.4195	1460.5133	1462.4491	1488.3831	1496.8569	1513.9514	1518.8431	2362.0236	2959.4838	2992.4539	3030.1663	3040.08	3088.9442	3100.1988	3123.1617	3132.4068	3143.4064	3216.8312	3832.71
CC1(CO)CC1CC#N	C[C@@]1(CO)C[C@H]1CC#N	
InChI=1S/C7H11NO/c1-7(5-9)4-6(7)2-3-8/h6,9H,2,4-5H2,1H3	InChI=1S/C7H11NO/c1-7(5-9)4-6(7)2-3-8/h6,9H,2,4-5H2,1H3/t6-,7+/m1/s1
