22
gdb 114626	3.33632	1.00154	0.89545	2.5909	81.66	-0.2362	0.072	0.3081	1405.5657	0.194398	-404.304694	-404.295356	-404.294412	-404.338884	35.413	
C	 0.2234705814	 1.6450586005	 0.0573708489	-0.380736
C	-0.0788729426	 0.142649522	 0.0364418111	-0.20206
C	 0.5578994433	-0.5694301122	-1.153720627	-0.052406
C	 2.0986307753	-0.7721537332	-1.2228349076	-0.178669
N	 1.9598384831	-2.253651269	-1.4704179313	-0.18656
C	 1.2808575668	-2.7891613601	-0.2704531376	-0.276739
C	 0.4548587592	-2.0951328133	-1.2773420056	 0.280366
C	-0.4625226308	-2.8456377544	-2.214559891	-0.155882
O	 0.1054400131	-4.0834676241	-2.5911306154	-0.417328
H	 1.3015080215	 1.83329071	 0.1108090598	 0.11904
H	-0.152895454	 2.1370289425	-0.8463524402	 0.116185
H	-0.2410219033	 2.1317865989	 0.9201023039	 0.11575
H	 0.2685751538	-0.3134587877	 0.9713266944	 0.096575
H	-1.1652907785	-0.0131873672	 0.006484247	 0.09975
H	 0.2055909963	-0.1032440057	-2.0811629646	 0.076877
H	 2.5845833703	-0.2885309742	-2.0719566655	 0.111857
H	 2.6628765944	-0.5413165531	-0.3117777447	 0.102488
H	 1.232214877	-3.8727003004	-0.268068785	 0.13275
H	 1.4912633245	-2.3334779233	 0.6942617301	 0.109513
H	-1.424335234	-3.0652929205	-1.7354420242	 0.110904
H	-0.6710729507	-2.2130713369	-3.0946400407	 0.083761
H	 1.0305066138	-3.8902639286	-2.8009998249	 0.294562
83.7598	96.6091	143.7831	178.3455	227.6777	242.3029	312.2421	319.4808	436.2926	464.5531	520.0397	594.663	638.6391	720.2763	777.8517	791.4216	840.0336	879.2053	945.2368	964.6507	986.8055	1001.6138	1041.2406	1074.4179	1080.8834	1102.5426	1124.0201	1144.5445	1164.1938	1206.7538	1217.4141	1232.3388	1261.1373	1288.9215	1307.525	1344.2393	1359.0451	1388.6334	1408.12	1414.1692	1445.4528	1485.265	1488.4097	1500.374	1505.6123	1508.9766	1512.3214	2954.1187	3020.2811	3030.6295	3034.4798	3037.4868	3049.5814	3057.7021	3097.1842	3105.8806	3111.7456	3112.8447	3210.8442	3736.2182
CCC1CN2CC12CO	CC[C@H]1CN2C[C@@]12CO	
InChI=1S/C7H13NO/c1-2-6-3-8-4-7(6,8)5-9/h6,9H,2-5H2,1H3	InChI=1S/C7H13NO/c1-2-6-3-8-4-7(6,8)5-9/h6,9H,2-5H2,1H3/t6-,7+,8?/m0/s1
