13
gdb 20637	7.11198	1.28448	1.09542	6.9872	67.7	-0.2618	-0.0266	0.2352	1014.3506	0.097531	-357.688554	-357.681421	-357.680477	-357.720387	25.234	
C	-0.0345692601	 1.5211444886	 0.0620207679	-0.507296
C	-0.0023127727	 0.0328503991	-0.0557817555	 0.391573
C	-0.0378717563	-0.8056516726	-1.149407427	-0.376516
C	 0.03051705	-2.113365602	-0.6087811776	 0.248562
N	 0.1016883301	-2.0961479031	 0.7265004227	-0.274707
N	 0.0804779536	-0.7916173325	 1.0257860028	-0.240377
C	 0.026970253	-3.3421223918	-1.3269765181	 0.241704
N	 0.0213650784	-4.317820349	-1.9488326836	-0.340326
H	 0.8908852213	 1.912369647	 0.4990592192	 0.14711
H	-0.1539293658	 1.9701102219	-0.9255117113	 0.153568
H	-0.8678832492	 1.859037674	 0.6877232021	 0.145235
H	-0.1032279542	-0.5253696502	-2.1872399074	 0.128862
H	 0.1247404218	-0.5227706995	 1.9956832058	 0.282608
67.5805	140.344	156.4169	281.3573	331.3848	520.6147	528.6315	572.6501	579.7853	672.949	714.3149	728.2931	828.5521	993.4682	1009.4194	1045.0144	1064.9834	1161.6656	1212.0064	1299.9851	1413.1249	1431.6586	1438.0244	1458.4843	1483.3656	1505.807	1611.4645	2357.824	3036.5152	3089.7472	3137.7688	3281.1427	3656.6824
CC1=CC(=NN1)C#N	Cc1cc(n[nH]1)C#N	
InChI=1S/C5H5N3/c1-4-2-5(3-6)8-7-4/h2H,1H3,(H,7,8)	InChI=1S/C5H5N3/c1-4-2-5(3-6)8-7-4/h2H,1H3,(H,7,8)
