16
gdb 20725	3.40027	1.94744	1.25769	0.9481	68.24	-0.2006	0.0309	0.2315	950.327	0.129999	-379.951397	-379.942568	-379.941624	-379.985197	30.585	
C	 0.0185900073	 1.4794371606	-0.0220443895	-0.521193
C	 0.0205707275	-0.0141075223	 0.0484481952	 0.250098
N	-0.0293446409	-0.7679712302	-1.0506048172	-0.286771
N	-0.0101493258	-2.0345853184	-0.5992754351	-0.264831
C	 0.0508055527	-2.1374982893	 0.7603614997	 0.301662
C	 0.0833189721	-3.4272297312	 1.5073671557	-0.51345
C	 0.0717747911	-0.8307901868	 1.2039360719	 0.111546
O	 0.1312369085	-0.4601349286	 2.5185297409	-0.452276
H	 0.9241041099	 1.9132021409	 0.4211722042	 0.122661
H	-0.02787259	 1.7963822002	-1.0659518458	 0.148942
H	-0.8430469012	 1.9146300065	 0.5002134961	 0.12262
H	-0.0406429975	-2.7878044427	-1.2642446181	 0.266501
H	 0.9568911244	-4.035507436	 1.243898448	 0.131293
H	 0.1309662875	-3.221393191	 2.5788538619	 0.154197
H	-0.8107655459	-4.0346085054	 1.322314513	 0.131271
H	 0.1326132403	 0.5002939036	 2.5647583892	 0.29773
49.9721	93.8904	146.0461	159.9936	239.6674	244.9111	317.2348	337.4538	435.2535	498.8632	575.2333	669.5595	712.9215	726.867	775.3482	984.6895	1004.347	1027.3208	1062.5317	1063.6209	1197.9253	1247.0002	1284.4363	1309.5331	1405.7543	1417.9774	1443.8624	1482.7611	1484.0689	1485.8018	1495.5995	1512.0844	1548.1049	1674.517	3015.3259	3023.3291	3059.5968	3070.3078	3129.3505	3129.4913	3678.3119	3842.1267
CC1=NNC(C)=C1O	Cc1n[nH]c(C)c1O	
InChI=1S/C5H8N2O/c1-3-5(8)4(2)7-6-3/h8H,1-2H3,(H,6,7)	InChI=1S/C5H8N2O/c1-3-5(8)4(2)7-6-3/h8H,1-2H3,(H,6,7)
