19
gdb 73481	2.50728	2.17983	1.55784	1.2551	73.	-0.2328	0.0869	0.3197	913.6814	0.161711	-423.007826	-423.00102	-423.000076	-423.038516	28.643	
C	 0.029903827	 1.4938492937	 0.0126096838	-0.4999
C	 0.0398821749	-0.0173490956	-0.0699471443	 0.312625
C	 0.6839090037	-0.650855572	-1.3005657493	-0.1596
O	 0.0067663827	-1.9074085483	-1.4698195951	-0.272646
C	-0.6701466603	-2.1570094801	-0.2421487546	 0.075022
C	 0.3624548858	-2.2483793692	 0.9160283948	-0.243257
C	 0.2778596414	-0.7603959791	 1.3008223441	 0.020988
O	-1.1532177702	-0.6453921784	 1.5814995926	-0.30521
C	-1.2947233596	-0.7782700582	 0.1490396636	 0.033481
H	 1.0481851362	 1.8933328439	 0.0822255231	 0.117873
H	-0.4401623311	 1.9357525155	-0.8726333431	 0.118467
H	-0.5241021907	 1.8196871015	 0.8971659229	 0.138723
H	 0.5258110482	-0.0466974699	-2.2015992717	 0.10552
H	 1.76647312	-0.8054939259	-1.1835062625	 0.096345
H	-1.3370130186	-3.0056792694	-0.3825838631	 0.083103
H	 0.0361587638	-2.870127796	 1.7521484804	 0.111058
H	 1.3344655459	-2.5939333848	 0.556306097	 0.107823
H	 0.9188974671	-0.3597960042	 2.0868345446	 0.077394
H	-2.2627787663	-0.4842527534	-0.254621283	 0.082189
229.66	249.5726	256.848	311.6305	389.9097	449.5921	507.4603	595.0897	612.8996	705.6137	756.3968	838.4868	850.785	877.3106	910.7686	922.3363	951.3239	960.4375	974.1469	1002.0437	1016.6529	1034.6779	1060.6711	1118.5725	1143.6646	1170.3589	1196.8271	1222.734	1231.5424	1239.3274	1269.5306	1282.972	1303.2533	1318.2084	1345.6765	1398.8172	1410.9015	1475.9814	1494.7875	1501.5839	1522.7092	2995.5601	3029.649	3050.2782	3072.2677	3089.5188	3115.8593	3117.4657	3126.9174	3131.0246	3142.7089
CC12COC3CC1OC23	C[C@@]12CO[C@H]3C[C@@H]1O[C@@H]23	
InChI=1S/C7H10O2/c1-7-3-8-4-2-5(7)9-6(4)7/h4-6H,2-3H2,1H3	InChI=1S/C7H10O2/c1-7-3-8-4-2-5(7)9-6(4)7/h4-6H,2-3H2,1H3/t4-,5-,6+,7+/m0/s1
