23
gdb 58439	2.42793	1.30051	1.24212	1.2934	84.85	-0.2406	0.0681	0.3087	1208.011	0.204644	-388.262969	-388.253339	-388.252395	-388.296771	37.645	
C	 0.08897027	 1.4027370596	-0.2914853378	-0.412721
C	 0.0812521852	-0.0764876079	 0.1262504156	-0.022554
C	 0.6761377433	-0.266926658	 1.5290964231	-0.389244
C	-1.3279279516	-0.6521994221	 0.0597566177	 0.434239
O	-2.2334510678	-0.0253188222	 0.9466357426	-0.488891
C	-2.0069043643	-1.1483951191	-1.1949935133	-0.135686
C	-1.0525566515	-1.9046418161	-2.1264816291	-0.246819
C	-0.6952539411	-2.8757606287	-0.9518951557	-0.247291
C	-1.6603251615	-2.111855241	-0.0386260977	-0.098899
H	 1.1091538694	 1.7982755844	-0.3126170176	 0.113557
H	-0.3454879852	 1.5393315971	-1.2879149682	 0.112347
H	-0.4796358328	 2.0163247876	 0.4169931231	 0.109383
H	 0.7061355029	-0.6231064404	-0.5881831359	 0.075607
H	 0.0456954572	 0.2204336865	 2.2785411303	 0.1264
H	 0.7418819844	-1.3283519668	 1.7886619774	 0.113697
H	 1.6817403827	 0.1613850338	 1.5924411697	 0.10173
H	-2.4632887833	 0.83228433	 0.5738061313	 0.282454
H	-2.9790770743	-0.7551382959	-1.4710896107	 0.078229
H	-1.5803959114	-2.4197008655	-2.9321777599	 0.104114
H	-0.2338599491	-1.3288990128	-2.5703106973	 0.09608
H	-1.0312848265	-3.8956475226	-1.1502592044	 0.104837
H	 0.3520156774	-2.9178094611	-0.6360859936	 0.09834
H	-2.3260791425	-2.5520605588	 0.6936013904	 0.091093
72.4186	167.1591	186.0436	213.3899	239.3825	272.9597	283.0998	291.771	349.3984	360.2333	473.3268	509.7127	522.4056	674.7749	738.8395	782.3752	834.397	879.0596	889.0584	926.4569	929.7022	963.2328	971.7174	982.7268	1013.0939	1023.1899	1051.2411	1096.8631	1117.6195	1136.3286	1162.8224	1195.1569	1219.1279	1243.8253	1251.9333	1274.4421	1286.1704	1323.2894	1340.6775	1351.096	1392.8514	1415.2669	1445.907	1483.9547	1486.6686	1494.7199	1504.5067	1505.3506	1515.895	3025.466	3035.2536	3043.561	3046.6609	3053.8546	3091.4876	3093.6753	3099.418	3102.4409	3112.2469	3115.9831	3167.8774	3189.8581	3805.0997
CC(C)C1(O)C2CCC12	CC(C)[C@@]1(O)[C@H]2CC[C@@H]12	
InChI=1S/C8H14O/c1-5(2)8(9)6-3-4-7(6)8/h5-7,9H,3-4H2,1-2H3	InChI=1S/C8H14O/c1-5(2)8(9)6-3-4-7(6)8/h5-7,9H,3-4H2,1-2H3/t6-,7+,8+
