15
gdb 25552	3.38054	1.11417	0.88658	4.1514	67.9	-0.2051	-0.0356	0.1696	1237.8055	0.112501	-454.004607	-453.996323	-453.995378	-454.038663	29.501	
O	 0.1411818737	-0.1492329894	 0.2511164238	-0.22812
C	 0.0782758744	 0.965957521	-0.1910099003	 0.152897
C	 1.1967975396	 1.9927704733	-0.0610320979	-0.260236
N	 1.2485332136	 2.9060927159	-1.1736700506	-0.104283
C	 1.6439904591	 2.6307841583	-2.4849111468	-0.116157
C	 1.5625678666	 3.7786961751	-3.1860723821	-0.085983
N	 1.1149064284	 4.7659030687	-2.3119812403	-0.366761
C	 0.9137002882	 4.2554818631	-1.040404269	 0.472303
O	 0.538799519	 4.8271222715	-0.0335267795	-0.440445
H	-0.82207609	 1.3440707279	-0.7263257362	 0.093454
H	 0.9875195252	 2.6082768839	 0.8242678449	 0.17711
H	 2.1480017118	 1.4735890374	 0.0935531393	 0.138829
H	 1.9509623353	 1.645572137	-2.791556363	 0.147475
H	 1.7772279303	 3.9814672772	-4.2205416423	 0.1466
H	 0.9594386849	 5.7349464189	-2.5251733899	 0.273318
52.2201	74.0189	109.6879	228.0309	267.845	331.7869	425.7386	441.3582	550.5695	602.5566	659.4529	678.028	759.4935	767.2129	770.9874	823.2666	904.7838	1036.2593	1047.3658	1097.5448	1101.5334	1187.8538	1193.2844	1291.4031	1324.2873	1359.3414	1395.9715	1411.7397	1437.4761	1461.7327	1635.4169	1824.8459	1842.8062	2884.0013	3033.1944	3091.5614	3278.3961	3300.8164	3698.2383
O=CCN1C=CNC1=O	O=CCn1cc[nH]c1=O	
InChI=1S/C5H6N2O2/c8-4-3-7-2-1-6-5(7)9/h1-2,4H,3H2,(H,6,9)	InChI=1S/C5H6N2O2/c8-4-3-7-2-1-6-5(7)9/h1-2,4H,3H2,(H,6,9)
