20
gdb 57977	3.57068	0.76136	0.71688	3.0744	83.24	-0.2454	0.0247	0.27	1665.1859	0.168109	-403.153922	-403.143126	-403.142182	-403.191213	38.218	
C	 0.0005012993	 1.337220739	-0.235110142	-0.378945
C	 0.0108430584	-0.1409906108	 0.1824491967	-0.08402
C	 0.7511056394	-0.3410988092	 1.5153728394	-0.378906
C	-1.4294504945	-0.6337306496	 0.3376677793	 0.435276
O	-2.2142931684	-0.1067880383	 1.108124272	-0.390877
N	-1.7737549234	-1.7006580693	-0.4443030223	-0.327153
C	-3.0802623153	-2.3364801207	-0.341872851	-0.289697
C	-2.9819005554	-3.780827073	-0.1549271309	 0.284678
C	-2.8883532257	-4.9719670793	-0.0282760691	-0.445293
H	 1.0216156668	 1.7260524919	-0.2950357553	 0.110747
H	-0.4744054315	 1.4752380434	-1.211642657	 0.114053
H	-0.5568253015	 1.9254894662	 0.4985038163	 0.143548
H	 0.5154794654	-0.7278996979	-0.5959249559	 0.064318
H	 0.2293699882	 0.1935921593	 2.3136380731	 0.142974
H	 0.8019404155	-1.3988513819	 1.7924990017	 0.116128
H	 1.7734709815	 0.0427496046	 1.4465012888	 0.111891
H	-1.077190855	-2.1397743358	-1.0230601806	 0.251426
H	-3.579262111	-1.8590894785	 0.5077530184	 0.178235
H	-3.6870080278	-2.1217334385	-1.2322788331	 0.13802
H	-2.8169431348	-6.0237627217	 0.1000369714	 0.203597
27.3352	42.2004	72.3726	181.4349	214.3991	226.6277	259.8557	275.207	298.6026	321.8921	329.065	444.2807	466.8363	569.3766	618.3294	657.9244	667.9399	769.5001	843.8992	914.895	933.4055	955.4495	974.6124	1033.0182	1074.8077	1114.2177	1120.2525	1199.1465	1214.1116	1257.4967	1333.1467	1361.7377	1388.6574	1392.1818	1413.3073	1485.1656	1485.682	1492.797	1499.945	1512.5546	1525.2734	1769.6443	2241.7496	3011.1436	3016.3664	3037.2392	3040.428	3084.4142	3104.8563	3107.4231	3123.3943	3128.2107	3505.249	3652.1779
CC(C)C(=O)NCC#C	CC(C)C(=O)NCC#C	
InChI=1S/C7H11NO/c1-4-5-8-7(9)6(2)3/h1,6H,5H2,2-3H3,(H,8,9)	InChI=1S/C7H11NO/c1-4-5-8-7(9)6(2)3/h1,6H,5H2,2-3H3,(H,8,9)
