20
gdb 17889	3.62657	1.88592	1.67658	1.3999	73.79	-0.2316	0.0868	0.3184	884.4176	0.179614	-348.994647	-348.987562	-348.986618	-349.02542	28.673	
C	-0.1402491154	 1.4930533286	 0.0303932872	-0.429736
C	 0.0277933194	-0.0212585567	-0.0096792399	 0.039987
C	 0.8697323839	-0.5899414789	-1.1978696024	-0.020379
C	 2.1319375713	-0.4166641008	-0.2996805393	-0.270164
C	 1.152244747	-0.6167066494	 0.8892096372	 0.128802
O	 0.8799397772	-1.9903339712	 1.1402234422	-0.278661
C	 0.9689377473	-2.8118269827	-0.023101108	-0.063551
C	 0.5471175945	-2.0883176046	-1.3233135426	-0.237921
H	 0.8068028091	 2.0244934234	-0.1081018893	 0.114699
H	-0.8218486679	 1.829222649	-0.7587927383	 0.115475
H	-0.5604606637	 1.8138081905	 0.9901288227	 0.116899
H	-0.9410132518	-0.5094228108	 0.1424332168	 0.062909
H	 0.828170517	-0.0703205295	-2.1590451157	 0.056966
H	 2.9646481777	-1.1151359331	-0.4102582054	 0.097163
H	 2.523742308	 0.6013010432	-0.3239231761	 0.103017
H	 1.3675938319	-0.157892636	 1.8576304991	 0.068391
H	 2.0017674977	-3.1724464455	-0.1316047263	 0.094904
H	 0.3432549513	-3.6877551764	 0.170876185	 0.105219
H	-0.524828952	-2.2134457366	-1.5157561494	 0.101096
H	 1.0821091874	-2.5422574924	-2.1657830576	 0.094887
193.3452	199.4813	242.6633	282.9891	319.4736	440.7435	449.8475	495.956	621.2933	802.9493	807.0251	820.3463	845.7345	874.7269	916.2506	933.1551	938.6892	1004.2731	1040.5484	1057.1545	1071.621	1092.0995	1118.6069	1145.7346	1152.9821	1167.0168	1227.8629	1244.3085	1267.2397	1270.4466	1297.1683	1306.2082	1344.2771	1353.4331	1391.0594	1412.1125	1414.3283	1486.7197	1492.2664	1497.7811	1501.988	1527.1772	2994.4026	3026.6009	3028.4513	3042.852	3062.6033	3066.5985	3070.8707	3080.9873	3082.619	3090.4266	3100.0485	3125.7492
CC1C2CC1OCC2	C[C@H]1[C@H]2C[C@@H]1OCC2	
InChI=1S/C7H12O/c1-5-6-2-3-8-7(5)4-6/h5-7H,2-4H2,1H3	InChI=1S/C7H12O/c1-5-6-2-3-8-7(5)4-6/h5-7H,2-4H2,1H3/t5-,6+,7-/m0/s1
