16
gdb 71558	2.70706	1.47727	1.40922	3.1591	70.92	-0.2447	-0.0332	0.2115	989.9038	0.12359	-437.794592	-437.787042	-437.786097	-437.826663	29.185	
O	 0.1658674378	 1.3317629553	-0.1022802196	-0.457663
C	 0.1088396284	-0.0298832072	-0.1025525855	 0.398038
C	 0.5839906802	-0.9511384615	-1.2251233348	-0.314633
C	 0.025053884	-1.9191106571	-0.1553678413	-0.116294
C	 0.5201426869	-1.0306516325	 1.0333014437	-0.090031
N	-0.8059434787	-0.8905329699	 1.7149205569	-0.392955
C	-1.1514514929	-0.9535367835	 0.2651101091	 0.197441
C	-2.5245260646	-0.9200879965	-0.2791813926	 0.024487
O	-3.522607746	-0.8530923384	 0.3966771402	-0.255588
H	-0.1788247506	 1.6388267638	 0.7473358837	 0.304414
H	 0.046834931	-0.8935924056	-2.1747991997	 0.112238
H	 1.6639227826	-0.9863630843	-1.3932883886	 0.109638
H	-0.0318450981	-3.0059862077	-0.1731312259	 0.095116
H	 1.4687461542	-1.0902056236	 1.5682956541	 0.091414
H	-1.0779845865	-1.7538220074	 2.190520195	 0.218419
H	-2.5749023977	-0.9655149639	-1.3909705545	 0.075959
86.0666	170.1003	212.8836	270.6918	356.1575	373.6	433.413	513.0336	561.4912	657.98	690.4727	698.7373	808.7881	840.9346	893.4848	923.3494	943.7286	992.855	1009.6782	1031.5941	1046.2268	1076.4848	1119.5969	1139.0136	1143.1137	1199.4678	1217.1889	1259.0376	1267.2394	1315.5332	1336.7838	1410.5566	1427.2143	1522.6242	1805.849	2870.8595	3058.9324	3111.7993	3118.3114	3142.043	3425.0215	3767.6254
OC12CC3C1NC23C=O	O[C@@]12C[C@H]3[C@@H]1N[C@@]23C=O	
InChI=1S/C6H7NO2/c8-2-5-3-1-6(5,9)4(3)7-5/h2-4,7,9H,1H2	InChI=1S/C6H7NO2/c8-2-5-3-1-6(5,9)4(3)7-5/h2-4,7,9H,1H2/t3-,4-,5+,6-/m0/s1
