19
gdb 36366	2.53209	1.16888	0.99115	0.7212	81.88	-0.2262	0.0335	0.2597	1272.8878	0.158352	-381.963163	-381.954063	-381.953119	-381.997557	33.795	
C	-0.7640696841	 0.1302465349	-1.1722239581	-0.457639
C	-0.0562643331	 0.3942632009	-0.2359008487	 0.299261
C	 0.8407490867	 0.6901180743	 0.885127393	-0.282989
N	 1.759288168	 1.8313767615	 0.7630919158	-0.101436
C	 1.9869414995	 2.4827826217	-0.5209239065	-0.267882
C	 1.2670692482	 3.1979732834	 0.5745446099	-0.004639
C	-0.1837377261	 3.548442814	 0.4671041286	-0.001163
C	-0.8529760972	 4.2086869613	 1.6197682501	-0.246691
N	-0.56844374	 4.9699976995	 0.3924173249	-0.32431
H	-1.4003443591	-0.1029154192	-1.990256905	 0.203859
H	 0.2512386345	 0.8353226903	 1.7980235461	 0.142313
H	 1.4645196363	-0.195482877	 1.0599180246	 0.142972
H	 3.0232115445	 2.7146612257	-0.754112151	 0.114207
H	 1.3852570565	 2.1608828157	-1.3685067823	 0.128204
H	 1.8297730324	 3.9238393171	 1.1665027037	 0.080663
H	-0.7782336617	 2.9067726528	-0.1748150401	 0.11347
H	-1.9066795374	 4.0306045319	 1.8148971907	 0.120794
H	-0.2543667343	 4.405483674	 2.5062359337	 0.111352
H	 0.2529713965	 5.5550425872	 0.5336815308	 0.229656
64.828	74.0606	126.4181	174.6976	226.2379	316.2649	329.9828	350.3571	431.4252	512.5385	584.588	617.3657	665.7285	742.0543	800.7478	853.0621	877.7347	909.028	939.8972	951.8043	966.6162	1002.1516	1063.4492	1075.0912	1100.2332	1128.4354	1136.031	1163.71	1171.0799	1239.9537	1251.9695	1281.6048	1292.7936	1324.0569	1339.0688	1367.8956	1457.2482	1468.8387	1505.7503	1511.9712	2224.0406	3025.621	3060.3763	3071.0706	3097.4721	3103.9929	3169.5081	3183.4254	3191.2585	3483.3053	3501.4865
C#CCN1CC1C1CN1	C#CCN1C[C@H]1[C@H]1CN1	
InChI=1S/C7H10N2/c1-2-3-9-5-7(9)6-4-8-6/h1,6-8H,3-5H2	InChI=1S/C7H10N2/c1-2-3-9-5-7(9)6-4-8-6/h1,6-8H,3-5H2/t6-,7+,9?/m1/s1
