20
gdb 115759	3.54652	0.84868	0.73384	3.9055	79.53	-0.2768	0.0341	0.3109	1525.4694	0.170832	-403.147473	-403.137936	-403.136991	-403.182523	34.489	
O	-0.0754674717	 1.4701830915	-0.3206560965	-0.422167
C	 0.0396965951	 0.1036418068	 0.0437752948	-0.08548
C	-1.3642177629	-0.4823582095	 0.0300082099	-0.01241
C	-1.9461956561	-0.6451254727	-1.4042254959	-0.21852
C	-1.5814485329	-2.1545137127	-1.3595409755	-0.228941
C	-1.4559200492	-2.0351138951	 0.1827634473	 0.02026
C	-0.3392752727	-2.7995881776	 0.9100493734	-0.378308
C	-0.5417030997	-4.2465548425	 0.8496671237	 0.264083
N	-0.7203481021	-5.3867662972	 0.78903346	-0.306922
H	 0.8063777579	 1.8527623708	-0.346731463	 0.288245
H	 0.6900547539	-0.4382016838	-0.6631416453	 0.083954
H	 0.4855103071	-0.0032023727	 1.04652075	 0.084439
H	-1.9759005048	 0.0920644956	 0.7312566577	 0.080445
H	-3.0261488462	-0.4815834461	-1.4303908748	 0.105909
H	-1.4829468233	-0.0328018403	-2.1799821403	 0.112495
H	-2.3088500469	-2.8706289947	-1.7459708513	 0.112964
H	-0.6156966893	-2.3595329399	-1.8320890162	 0.103998
H	-2.4099598264	-2.2922116432	 0.6524042036	 0.097373
H	 0.6387526964	-2.5735648259	 0.4705955288	 0.147292
H	-0.2905547762	-2.5016690011	 1.9643330096	 0.15129
60.7051	96.8452	111.2158	138.1797	185.4101	258.6903	278.8023	344.6931	398.5096	404.4009	495.3396	517.5475	700.2908	766.8867	839.5834	869.2754	894.1445	928.0089	940.5291	957.8504	986.9454	1067.1491	1075.3545	1100.4465	1124.445	1156.8928	1188.9737	1225.3438	1238.9039	1255.4943	1263.055	1268.3897	1290.0331	1299.4069	1329.9861	1366.2784	1384.4866	1461.1051	1467.0744	1482.4889	1498.0302	1524.2717	2360.3889	2953.798	2979.9435	3039.4103	3053.8223	3059.7619	3066.416	3075.2328	3083.7947	3113.1992	3128.3927	3831.0004
OCC1CCC1CC#N	OC[C@H]1CC[C@H]1CC#N	
InChI=1S/C7H11NO/c8-4-3-6-1-2-7(6)5-9/h6-7,9H,1-3,5H2	InChI=1S/C7H11NO/c8-4-3-6-1-2-7(6)5-9/h6-7,9H,1-3,5H2/t6-,7+/m0/s1
