16
gdb 124660	3.37109	1.06746	0.97481	2.3077	72.53	-0.2517	-0.0433	0.2084	1232.7887	0.123235	-437.891638	-437.883131	-437.882186	-437.926176	29.825	
C	-0.0138933621	 1.5487901321	 0.1142350201	-0.410062
C	-0.0203092356	 0.0104154553	-0.0269932513	-0.184152
C	 0.723573642	-0.5964427085	 1.1675522474	 0.161276
O	 1.8163669826	-1.0891703362	 1.0962901134	-0.237718
C	-1.4041557107	-0.5490421314	-0.101388298	 0.433597
C	-2.0076132921	-1.4487040727	-0.9264672926	-0.354974
C	-3.3257810743	-1.5431480685	-0.4074034371	 0.039597
N	-3.5062036522	-0.7763027261	 0.6388192949	-0.136231
O	-2.2807850076	-0.140755758	 0.837766362	-0.217561
H	 1.0138267175	 1.9203500001	 0.1347100679	 0.137
H	-0.5356410887	 2.0080551708	-0.7293187697	 0.138603
H	-0.5186489914	 1.8587487073	 1.0328547282	 0.148019
H	 0.5255968304	-0.2889917169	-0.9252563281	 0.115614
H	 0.1724949841	-0.5225487118	 2.1309780074	 0.100582
H	-1.5794611022	-1.9615113067	-1.7711705099	 0.128018
H	-4.1506497697	-2.1450994187	-0.7619705346	 0.138393
41.1714	61.9036	137.0957	187.7267	212.009	293.0858	359.3299	428.7312	457.6452	647.2568	718.6924	730.4411	813.5672	888.2379	919.8419	920.8134	935.6587	945.6979	1005.3763	1051.4959	1056.6006	1086.1332	1140.3231	1207.4461	1258.3623	1271.6092	1312.7313	1388.8186	1402.1712	1421.1044	1494.4824	1495.4291	1511.1843	1630.1464	1838.7962	2895.2148	3049.9444	3088.5728	3127.7767	3132.6474	3245.3952	3283.0278
CC(C=O)C1=CC=NO1	C[C@@H](C=O)c1ccno1	
InChI=1S/C6H7NO2/c1-5(4-8)6-2-3-7-9-6/h2-5H,1H3	InChI=1S/C6H7NO2/c1-5(4-8)6-2-3-7-9-6/h2-5H,1H3/t5-/m0/s1
