20
gdb 121755	3.77379	0.67566	0.5996	2.5095	74.48	-0.2449	0.0624	0.3073	1888.8825	0.169249	-477.464868	-477.454024	-477.45308	-477.502994	36.919	
C	-0.2830504558	 1.4761273126	 0.0012396158	-0.390946
C	-0.1699007331	-0.0062177734	 0.3038633202	-0.03121
O	-1.3311439085	-0.6485440413	-0.2456255185	-0.278514
C	-1.3782456154	-1.9953369854	-0.0766683942	 0.520898
O	-0.5293673427	-2.6434841819	 0.4983312258	-0.421231
N	-2.5030655018	-2.492723438	-0.6560218084	-0.361501
C	-2.8879643178	-3.8825657099	-0.541266609	-0.147315
C	-4.2293293444	-4.0333324752	 0.1628759321	-0.074898
O	-5.1861715951	-3.3187547348	-0.6111062635	-0.424312
H	 0.5854789384	 2.0053437327	 0.4045102804	 0.120292
H	-0.324120232	 1.6522811415	-1.0774751504	 0.127322
H	-1.1849493876	 1.8996635022	 0.452584102	 0.125735
H	 0.7289770715	-0.444669787	-0.1412710616	 0.119141
H	-0.126448998	-0.1989690908	 1.3808109965	 0.116721
H	-3.1798357087	-1.8442831195	-1.0238808522	 0.257888
H	-2.9586037402	-4.3399883604	-1.5366992867	 0.113467
H	-2.101330186	-4.3945008586	 0.0165154015	 0.144935
H	-4.4870746527	-5.1011788285	 0.2356301265	 0.092035
H	-4.157603264	-3.6265692491	 1.1823917308	 0.09903
H	-6.0134026761	-3.2868332752	-0.1227496971	 0.292464
27.4218	43.1109	77.2109	104.7943	132.3372	169.8014	257.4772	264.5892	278.4118	335.5086	368.8639	470.1453	517.2586	535.8177	721.3998	779.0485	809.1946	865.7028	886.6739	925.2888	1019.1593	1071.102	1096.8623	1104.9859	1135.9317	1178.5154	1185.7359	1219.0881	1251.3932	1261.0716	1290.7452	1314.9852	1390.6877	1402.7436	1420.1212	1453.5993	1481.9312	1485.4938	1498.1806	1514.4911	1520.4674	1549.6134	1808.1488	2980.694	3012.2164	3033.3748	3044.7943	3047.8778	3084.2859	3119.3448	3123.2976	3127.039	3654.6305	3838.951
CCOC(=O)NCCO	CCOC(=O)NCCO	
InChI=1S/C5H11NO3/c1-2-9-5(8)6-3-4-7/h7H,2-4H2,1H3,(H,6,8)	InChI=1S/C5H11NO3/c1-2-9-5(8)6-3-4-7/h7H,2-4H2,1H3,(H,6,8)
