15
gdb 20954	7.46422	1.11957	0.98561	3.9034	63.47	-0.2326	-0.0077	0.2249	1144.5238	0.118808	-399.780262	-399.772857	-399.771912	-399.812575	26.45	
C	-0.0854419143	 1.5328681861	 0.0116110065	-0.392035
C	-0.0095006575	 0.0184469332	 0.0038059674	-0.057951
O	-1.3414723805	-0.494538699	 0.0116277845	-0.263684
C	-1.4434410792	-1.8367254014	 0.0061044786	 0.225534
C	-0.5046771957	-2.825880204	-0.0058816228	-0.05778
O	-1.1207015047	-4.028940733	-0.0067832362	-0.169574
N	-2.4912611672	-3.8428976669	 0.004840191	-0.122712
C	-2.6777329902	-2.5472588256	 0.0124123554	-0.058189
H	 0.9223407656	 1.9579608617	 0.005788911	 0.12459
H	-0.6208108247	 1.8963676098	-0.8695871828	 0.135712
H	-0.6070082605	 1.887934767	 0.9044475422	 0.13571
H	 0.5146843334	-0.3492458107	-0.890502446	 0.1083
H	 0.5283756968	-0.3577337476	 0.8863763164	 0.108301
H	 0.5714769994	-2.8430244563	-0.0143769907	 0.145755
H	-3.6789683408	-2.1422634433	 0.0221539655	 0.138022
72.0763	105.3632	153.6095	248.6879	351.5054	352.9745	443.8606	606.7017	673.3629	727.2106	769.1732	828.7935	894.0828	912.0216	920.6437	930.6702	1033.0251	1081.4174	1135.544	1139.6061	1186.7898	1215.4684	1296.4497	1301.7087	1388.6993	1408.8726	1444.8319	1484.3872	1488.3764	1500.5806	1525.2701	1668.5687	2989.5552	3024.9257	3049.8934	3125.4287	3129.091	3253.9576	3287.4182
CCOC1=CON=C1	CCOc1conc1	
InChI=1S/C5H7NO2/c1-2-7-5-3-6-8-4-5/h3-4H,2H2,1H3	InChI=1S/C5H7NO2/c1-2-7-5-3-6-8-4-5/h3-4H,2H2,1H3
