18
gdb 13814	3.94608	1.11651	1.00386	2.2582	64.44	-0.2623	0.0638	0.3261	1204.1839	0.151281	-422.044768	-422.035432	-422.034488	-422.079642	33.052	
C	-0.1009917301	 1.3761495729	-0.3447064817	-0.410632
C	 0.0690632343	 0.0255304029	 0.3487091417	 0.097534
O	 0.6594794255	 0.1500372149	 1.6384570599	-0.426835
C	-1.2608973299	-0.6995725205	 0.4584975318	 0.046503
O	-1.8151601655	-1.2503959575	-0.7391909262	-0.274235
C	-1.4575829464	-2.1501571308	 0.3310330313	 0.033604
C	-0.3846065623	-3.1583192214	 0.0064451741	-0.086556
O	-0.8922662923	-4.1774010208	-0.8400539805	-0.419084
H	 0.8605842028	 1.8914065845	-0.414644542	 0.127005
H	-0.507816803	 1.2422202374	-1.3512390173	 0.138628
H	-0.7959656135	 2.0157224801	 0.2148339066	 0.107469
H	 0.7687079139	-0.5847829182	-0.228549469	 0.097314
H	 0.1641803532	 0.8159789922	 2.1282313411	 0.280746
H	-1.991072942	-0.1618198693	 1.07270162	 0.080599
H	-2.3244701511	-2.5828812631	 0.833698345	 0.099592
H	 0.488867758	-2.6664206515	-0.4409217296	 0.096033
H	-0.0555244574	-3.6557433121	 0.9249169593	 0.120031
H	-1.2261076142	-3.7408147498	-1.6319024646	 0.292284
37.5604	63.873	142.6654	174.9089	245.4044	267.0318	281.9687	361.0061	377.9867	408.3045	470.2238	512.0198	594.6078	801.1564	814.7928	903.264	948.3392	966.7411	1035.4181	1066.8716	1074.8719	1093.2	1122.2044	1160.1275	1190.8221	1227.3222	1270.9586	1298.7843	1329.0112	1362.3613	1398.0164	1401.1708	1407.4898	1432.0431	1488.1227	1490.23	1492.2894	1504.2905	3018.7181	3024.0807	3049.9902	3076.966	3081.2861	3101.3322	3104.6597	3126.6243	3801.2303	3802.5405
CC(O)C1OC1CO	C[C@@H](O)[C@H]1O[C@H]1CO	
InChI=1S/C5H10O3/c1-3(7)5-4(2-6)8-5/h3-7H,2H2,1H3	InChI=1S/C5H10O3/c1-3(7)5-4(2-6)8-5/h3-7H,2H2,1H3/t3-,4+,5-/m1/s1
