17
gdb 71110	2.52054	2.08363	1.59464	2.8478	70.32	-0.224	-0.0168	0.2072	895.0048	0.136936	-421.843995	-421.836898	-421.835953	-421.875254	28.515	
C	 0.0284444726	 1.4869127509	 0.1033386218	-0.487103
C	 0.0407250559	-0.0102746937	-0.0023449269	 0.230503
C	 0.6618491319	-0.717856503	-1.2339778577	-0.267463
C	 0.4814774712	-2.1427870035	-0.7062627123	-0.119353
C	 0.5329659683	-2.0007516944	 0.7779838468	 0.101397
O	 0.7338507088	-0.6363149386	 1.1025584242	-0.291272
C	-0.8295808764	-2.1682047032	 0.1216472031	-0.246518
C	-1.3263119351	-0.7598460251	 0.0542484265	 0.452058
O	-2.4368515254	-0.3049802699	 0.0290627126	-0.341367
H	 1.0404216667	 1.8944642439	 0.0311529937	 0.12557
H	-0.581711752	 1.9091499258	-0.6994040712	 0.135032
H	-0.4074025985	 1.7949984924	 1.0570681395	 0.140505
H	 0.1021729974	-0.5152682847	-2.1515767247	 0.117612
H	 1.7134226866	-0.4523947231	-1.3771126649	 0.112575
H	 0.82341134	-3.0258668428	-1.2281478181	 0.106516
H	 0.9604330673	-2.7050949979	 1.4768865085	 0.118788
H	-1.461822249	-3.0368170631	 0.2263708292	 0.11252
130.961	171.4571	233.2526	311.2545	383.422	479.2411	515.9793	626.6757	636.8759	669.1621	736.0356	786.2888	797.8963	831.7375	851.7485	888.5822	912.1901	957.1335	971.9702	1015.6592	1024.454	1056.2754	1074.1811	1123.2743	1126.5008	1151.482	1212.2325	1227.5876	1269.7035	1295.4608	1359.0803	1373.9675	1423.5466	1477.8012	1485.9738	1491.3961	1875.0975	3051.1209	3055.8081	3108.9861	3126.2703	3129.9382	3212.6458	3227.3705	3240.0965
CC12CC3C(O1)C3C2=O	C[C@@]12C[C@H]3[C@@H](O1)[C@H]3C2=O	
InChI=1S/C7H8O2/c1-7-2-3-4(6(7)8)5(3)9-7/h3-5H,2H2,1H3	InChI=1S/C7H8O2/c1-7-2-3-4(6(7)8)5(3)9-7/h3-5H,2H2,1H3/t3-,4+,5-,7+/m1/s1
