16
gdb 49208	4.36574	1.03753	0.86761	2.1578	75.83	-0.2623	-0.0709	0.1915	1270.3664	0.124518	-437.916383	-437.908261	-437.907316	-437.949992	29.337	
N	-0.1630165646	 1.3185899283	-0.2881888661	-0.511002
C	-0.0144224836	 0.1151433416	 0.0730470904	 0.393054
C	-1.1719663002	-0.8596233578	-0.0428950221	-0.348608
C	-1.0978675236	-1.9719146394	 0.9543690268	-0.145714
C	 0.0895116649	-2.3905177141	 1.4038887084	 0.188254
C	 1.3438476748	-1.721121733	 0.9207820702	-0.17303
O	 1.1581052902	-0.3389914047	 0.5894085278	-0.244365
C	 0.1996317642	-3.5042972468	 2.3573257048	 0.094895
O	 1.2477022257	-3.9256975662	 2.7922052652	-0.271694
H	 0.7076760054	 1.8369547134	-0.1554512945	 0.223104
H	-2.0984640558	-0.2878425804	 0.0307921973	 0.157345
H	-1.1640948029	-1.2881487422	-1.0575151804	 0.155753
H	-2.0180382972	-2.4420365946	 1.2928324338	 0.118958
H	 2.1114941682	-1.7484072541	 1.696836885	 0.153095
H	 1.7489376874	-2.247246864	 0.0445437278	 0.1311
H	-0.7753737128	-3.9475883163	 2.6582427257	 0.078854
47.9907	115.5644	123.1145	195.0098	294.3628	383.8289	420.0824	453.6135	511.7445	577.5559	629.1082	758.87	773.8672	830.0386	896.0401	921.9546	978.3521	995.9609	1021.8965	1048.6102	1069.5744	1150.312	1188.1129	1209.0273	1253.5538	1291.3021	1329.5219	1374.6872	1420.5271	1429.0728	1451.543	1502.6035	1716.4832	1749.6597	1788.1791	2887.7688	2996.987	3007.7307	3112.9347	3117.9675	3163.9077	3468.2252
N=C1CC=C(CO1)C=O	[NH][C]1CC=C(CO1)C=O	
InChI=1S/C6H7NO2/c7-6-2-1-5(3-8)4-9-6/h1,3,7H,2,4H2	InChI=1S/C6H7NO2/c7-6-2-1-5(3-8)4-9-6/h1,3,7H,2,4H2
