13
gdb 21195	7.20267	1.33995	1.13944	4.696	56.89	-0.2279	0.0198	0.2477	982.8719	0.096394	-431.925215	-431.917781	-431.916837	-431.95718	26.195	
C	-0.0427452691	 1.4180794222	-0.0273196579	-0.333338
N	 0.0581310634	-0.0316385365	-0.0386673358	-0.390212
C	 0.6002497461	-0.7159816862	-1.0634939861	 0.561873
N	 0.5763543177	-2.0142321162	-1.2506815442	-0.462164
C	 1.3089328932	-2.1194166823	-2.4011643674	 0.446853
O	 1.550625125	-3.300194818	-2.972747635	-0.404088
N	 1.7664455626	-1.0110562517	-2.9258255591	-0.227174
O	 1.2685971572	-0.0364473521	-1.9971220569	-0.221528
H	 0.9134706691	 1.8531748723	-0.3241779866	 0.165966
H	-0.819268598	 1.793989184	-0.7055373691	 0.138981
H	-0.2717831998	 1.7445647482	 0.988648643	 0.13909
H	-0.5609761986	-0.569036252	 0.5453769326	 0.270313
H	 1.1282676513	-3.9682925017	-2.4195722276	 0.315428
89.5836	109.4861	199.9066	232.9176	367.3759	376.571	406.6224	442.7308	562.2471	681.8333	715.3355	777.5989	786.9004	909.2811	1016.7587	1047.7312	1110.1857	1155.0475	1190.3133	1227.464	1385.6625	1439.707	1456.596	1487.0145	1500.0084	1516.1269	1670.7534	1698.7145	3024.4552	3107.0181	3146.4902	3657.8178	3815.976
CNC1=NC(O)=NO1	CNc1nc(O)no1	
InChI=1S/C3H5N3O2/c1-4-3-5-2(7)6-8-3/h1H3,(H2,4,5,6,7)	InChI=1S/C3H5N3O2/c1-4-3-5-2(7)6-8-3/h1H3,(H2,4,5,6,7)
