14
gdb 76218	2.49591	1.63851	1.01723	6.1766	69.56	-0.2266	-0.0697	0.157	1077.8985	0.100737	-473.867101	-473.85892	-473.857976	-473.899902	30.4	
N	 0.073126207	 1.3062048734	-0.1525978044	-0.572447
C	-0.0326849845	-0.0260953294	-0.0078344064	 0.366427
C	-1.1518060208	-0.8059515361	 0.102991006	-0.329467
C	-0.8187101915	-2.2192313876	 0.0988351711	 0.312238
O	-1.5243413669	-3.198018219	 0.2063807153	-0.341574
C	 0.7075393306	-2.2461368891	-0.1601295345	 0.256362
O	 1.3810815789	-3.1280702833	-0.623135673	-0.303042
C	 1.2391539469	-0.8364604848	 0.1134019407	-0.041428
O	 2.2497295567	-0.4316051802	-0.7758069319	-0.446156
H	 0.9712965638	 1.6774259016	-0.4209961814	 0.286555
H	-0.7361567755	 1.8555478364	-0.3932386168	 0.273002
H	-2.1705435481	-0.4407686253	 0.1324165595	 0.11243
H	 1.5997461308	-0.7834334032	 1.155050598	 0.122933
H	 2.6136809524	-1.2448656635	-1.1555544823	 0.304167
71.204	159.5526	231.1172	263.2826	300.6015	330.5534	345.6021	425.2978	465.3369	524.9221	554.3647	586.7242	662.2483	688.3158	726.9006	846.7693	873.971	926.8035	1011.9793	1078.7245	1142.6136	1186.3841	1226.464	1289.9859	1347.1092	1370.3578	1440.1488	1618.5851	1673.5832	1803.3496	1849.8226	2960.3118	3213.6627	3587.1367	3704.0571	3730.4401
NC1=CC(=O)C(=O)C1O	NC1=CC(=O)C(=O)[C@H]1O	
InChI=1S/C5H5NO3/c6-2-1-3(7)5(9)4(2)8/h1,4,8H,6H2	InChI=1S/C5H5NO3/c6-2-1-3(7)5(9)4(2)8/h1,4,8H,6H2/t4-/m0/s1
