19
gdb 79293	2.61952	1.75852	1.49821	0.6993	72.84	-0.2281	0.0682	0.2962	969.7632	0.161256	-423.02059	-423.013231	-423.012287	-423.051932	30.143	
C	-0.0533555018	 1.5786150507	-0.004489674	-0.419783
C	 0.004182648	 0.053324409	-0.0147794002	 0.033977
C	 0.9104775884	-0.5450182809	-1.0922158144	-0.116149
C	 2.25857351	-0.668425048	-0.4252474427	 0.081525
O	 2.150354856	-0.1989024272	 0.9124591326	-0.261219
C	 0.7873049207	-0.5716634522	 1.1647658376	-0.017694
C	 0.7946108181	-2.0858576687	 0.8049081768	 0.120901
O	-0.4814945754	-2.6929014429	 0.7345155747	-0.433277
C	 1.4006406217	-1.899635109	-0.5747791098	-0.13525
H	 0.9461246709	 2.003221921	 0.1235891034	 0.130836
H	-0.4699299999	 1.9616412108	-0.9419203737	 0.110523
H	-0.6863793779	 1.9436286423	 0.8116907076	 0.10782
H	-0.9982187366	-0.3806365136	-0.0584203918	 0.0888
H	 0.7951313971	-0.3339941337	-2.146955949	 0.086405
H	 3.222274663	-0.5052547419	-0.8855216497	 0.104295
H	 0.5058430824	-0.2883841134	 2.1784234073	 0.07008
H	 1.4674513411	-2.6404849297	 1.4736529844	 0.071343
H	-0.7985382244	-2.8224153553	 1.6342027169	 0.284329
H	 1.6535222385	-2.7282697671	-1.2214379361	 0.092538
179.8393	211.8246	234.7994	270.586	306.2856	333.6361	517.8704	551.4215	598.1051	699.0559	732.7661	759.7979	810.6751	817.2693	895.1558	908.7916	939.2718	965.412	980.2838	1002.4502	1023.8201	1044.1103	1056.8728	1074.3278	1082.1134	1105.8155	1123.639	1130.553	1207.4021	1233.0103	1244.3429	1274.4534	1287.979	1314.6804	1337.7685	1374.8467	1386.0998	1406.1845	1430.9726	1495.4031	1502.9681	3009.7415	3033.5109	3080.5984	3094.4622	3119.7253	3131.5565	3204.3319	3213.8711	3228.7015	3814.1362
CC1C2C3OC1C(O)C23	C[C@H]1[C@H]2[C@H]3O[C@@H]1[C@@H](O)[C@@H]23	
InChI=1S/C7H10O2/c1-2-3-4-5(8)6(2)9-7(3)4/h2-8H,1H3	InChI=1S/C7H10O2/c1-2-3-4-5(8)6(2)9-7(3)4/h2-8H,1H3/t2-,3+,4+,5-,6-,7+/m0/s1
