19
gdb 64115	3.54749	1.00687	0.93634	1.0597	88.46	-0.231	-0.0235	0.2075	1326.5331	0.157207	-385.879776	-385.870421	-385.869477	-385.913571	35.785	
C	-0.0968439858	 1.5671318192	-0.0419820763	-0.441219
C	 0.0188772805	 0.0429056994	 0.010446827	 0.359646
O	-1.2979163512	-0.5418306404	-0.0074351921	-0.469183
C	 0.7833096619	-0.5704512121	-1.1856461352	-0.241544
C	 1.5697629056	-1.7735948138	-0.6205968655	-0.326259
C	 1.6313829442	-1.4761265282	 0.8701923971	 0.195995
C	 0.8027942625	-0.4743358117	 1.1993579805	-0.22578
C	 2.4495266625	-2.2233260708	 1.7511545628	 0.191957
C	 3.1661711731	-2.8826974005	 2.4613727146	-0.403397
H	 0.8896407163	 2.0412559845	-0.0454715015	 0.118088
H	-0.6387829024	 1.8729882886	-0.9419766818	 0.124829
H	-0.6465216099	 1.9451042171	 0.8283771285	 0.103306
H	-1.7430317355	-0.292548955	 0.8099350763	 0.272728
H	 0.0838272472	-0.8444213978	-1.9779927218	 0.114982
H	 1.4790508915	 0.170682072	-1.5894248667	 0.10273
H	 1.052769218	-2.7258738082	-0.7881117866	 0.125613
H	 2.5665926374	-1.8748262937	-1.060394862	 0.112884
H	 0.6519231455	-0.10165443	 2.2070873733	 0.093337
H	 3.7904073086	-3.4573078384	 3.0996660994	 0.191287
84.2958	108.3862	144.1324	241.3568	253.5117	269.978	325.6977	350.8883	409.9851	497.3072	513.8258	540.3094	557.8827	603.1686	611.8765	632.1676	773.9642	843.0885	891.1307	900.4022	927.2485	937.4859	990.9824	1006.3562	1093.484	1106.6625	1166.5819	1176.5232	1208.1681	1253.054	1286.6187	1317.6047	1336.055	1375.7063	1403.7397	1471.9798	1489.4278	1489.8912	1492.6762	1670.5836	2220.693	3026.0307	3039.9635	3061.1074	3082.178	3092.884	3113.0133	3120.5182	3188.8178	3503.5012	3803.0811
CC1(O)CCC(=C1)C#C	C[C@@]1(O)CCC(=C1)C#C	
InChI=1S/C8H10O/c1-3-7-4-5-8(2,9)6-7/h1,6,9H,4-5H2,2H3	InChI=1S/C8H10O/c1-3-7-4-5-8(2,9)6-7/h1,6,9H,4-5H2,2H3/t8-/m1/s1
