17
gdb 12578	2.95124	2.06637	1.244	5.5752	74.69	-0.2112	-0.007	0.2042	958.1408	0.142519	-363.924854	-363.916536	-363.915592	-363.957568	30.516	
C	 0.0117890929	 1.5581506843	 0.0270122988	-0.537353
C	-0.0171548221	 0.0613804336	 0.0169542216	 0.112791
C	-1.1045405124	-0.7527105161	 0.0323711549	 0.288997
N	-2.4116469309	-0.3743796691	 0.1037091196	-0.577114
C	-0.7497160758	-2.2220898142	 0.0183841914	-0.316575
C	 0.7884022283	-2.2312219455	-0.0150413135	-0.330667
C	 1.1980676737	-0.7466093037	-0.0162810303	 0.338819
O	 2.3446688145	-0.3428814425	-0.046220354	-0.3697
H	 1.0487425631	 1.8897125426	-0.0739575014	 0.155084
H	-0.5654358649	 1.9938782804	-0.7994837936	 0.110083
H	-0.3868300117	 1.9772704133	 0.959617826	 0.121395
H	-2.6447406667	 0.5888581567	-0.0776754769	 0.262209
H	-3.1221746993	-1.0416917518	-0.1482817009	 0.257602
H	-1.1597603317	-2.7234263434	 0.9033879215	 0.120733
H	-1.1952926344	-2.7181342509	-0.8535452292	 0.111651
H	 1.2294363256	-2.731288987	 0.8518572016	 0.12659
H	 1.1928455719	-2.7226414268	-0.9044078957	 0.125455
91.1949	108.3436	139.7045	235.5664	260.357	325.705	368.2763	441.1275	526.1425	562.3682	577.1145	614.1758	664.5462	688.6812	844.8087	894.574	987.1635	1014.5487	1023.1899	1058.1122	1068.6405	1154.1533	1201.3692	1234.2309	1271.6455	1280.7402	1327.5727	1388.5139	1424.3772	1462.1502	1488.8562	1490.9993	1496.2176	1645.5927	1695.6703	1787.9037	3007.7507	3022.3423	3052.4036	3053.5034	3065.4355	3105.6467	3114.6734	3590.4929	3702.1586
CC1=C(N)CCC1=O	CC1=C(N)CCC1=O	
InChI=1S/C6H9NO/c1-4-5(7)2-3-6(4)8/h2-3,7H2,1H3	InChI=1S/C6H9NO/c1-4-5(7)2-3-6(4)8/h2-3,7H2,1H3
