14
gdb 132627	3.20243	1.41916	0.98468	3.178	71.12	-0.2003	-0.0258	0.1745	1097.0554	0.102441	-474.216347	-474.208734	-474.20779	-474.24807	29.869	
N	 0.0075856054	 1.3705119397	-0.160376268	-0.571669
C	-0.0091205869	-0.0099435837	-0.077058853	 0.353245
C	-1.2037429268	-0.7372588137	-0.0184157957	-0.112038
N	-1.1851754127	-2.0757179577	 0.0152294225	-0.275618
C	-0.0272420088	-2.6591099376	-0.0234044175	 0.256403
F	 0.0252981077	-4.0017957694	 0.0165690812	-0.09149
C	 1.191948283	-1.9553599073	-0.0873491665	 0.258588
N	 2.3882246779	-2.6205902407	-0.1706538023	-0.570761
N	 1.1829297953	-0.6264727969	-0.0991824231	-0.379264
H	 0.8959871979	 1.7826940502	 0.0828268051	 0.254159
H	-0.7864653924	 1.8514049561	 0.232600161	 0.253338
H	-2.1717493622	-0.2473480927	 0.004825698	 0.101202
H	 2.3952025741	-3.5784514778	 0.1394071156	 0.264645
H	 3.2056434486	-2.0733832685	 0.0489842128	 0.259261
128.8852	236.7178	288.769	328.9778	363.2264	388.2318	433.9116	451.3606	497.8769	509.0219	533.8727	555.2152	610.8286	700.5354	743.8086	793.3878	799.7737	850.9497	1001.7326	1066.4297	1163.2778	1237.6356	1284.812	1332.3972	1388.913	1499.1661	1512.3186	1602.9766	1618.3405	1638.8246	1655.0657	3174.7454	3578.244	3591.894	3689.6956	3714.7063
NC1=CN=C(F)C(N)=N1	Nc1cnc(F)c(N)n1	
InChI=1S/C4H5FN4/c5-3-4(7)9-2(6)1-8-3/h1H,(H4,6,7,9)	InChI=1S/C4H5FN4/c5-3-4(7)9-2(6)1-8-3/h1H,(H4,6,7,9)
