20
gdb 60899	2.57055	1.21868	1.05938	3.158	79.35	-0.2461	-0.0231	0.223	1236.5523	0.169906	-403.117929	-403.108765	-403.107821	-403.152962	33.565	
C	 0.0632495393	 1.4410107446	-0.1560983832	-0.421625
C	 0.0255196617	-0.0821162462	 0.0718018533	-0.153211
C	 0.8048699626	-0.4374478122	 1.3260667288	 0.158066
O	 1.7401308451	-1.19372185	 1.3651497344	-0.246143
C	-1.4001530615	-0.5805756317	 0.1634142065	 0.345418
C	-2.4234375254	-0.3033755838	 1.2868449312	-0.309095
C	-3.0322421882	-1.7249914246	 1.0365712006	-0.234254
C	-2.0031263444	-1.9379946823	-0.080740209	-0.094147
N	-2.0927804044	-0.8806137973	-1.0860035438	-0.361373
H	 1.0896487223	 1.7960048095	-0.2869540172	 0.128502
H	-0.5058203842	 1.6943439865	-1.0546214453	 0.138092
H	-0.3767399449	 1.9816337919	 0.689367852	 0.121126
H	 0.5066542753	-0.5980271229	-0.7640208328	 0.107428
H	 0.4514888605	 0.0780697028	 2.2514240408	 0.0686
H	-1.9817010529	-0.217867725	 2.2824042413	 0.111772
H	-3.0764879153	 0.5605313393	 1.1235557724	 0.099326
H	-2.8881539507	-2.3898354304	 1.8912876169	 0.114132
H	-4.0819741846	-1.7735375986	 0.7285522525	 0.101186
H	-1.535732596	-2.8727776823	-0.368988012	 0.103556
H	-3.0225334643	-0.4659574672	-1.1375589875	 0.222645
38.071	51.0739	154.2209	190.6377	218.7525	267.6546	287.8469	409.8173	441.1064	456.8484	495.7076	685.7579	757.848	784.4664	840.5582	891.8283	921.7301	933.8279	946.8276	955.8911	1019.9152	1029.9255	1051.4655	1093.0183	1104.1501	1141.4613	1156.1223	1187.1132	1210.804	1229.2767	1246.0547	1271.7808	1282.7051	1301.2056	1333.3508	1398.1198	1429.3499	1430.9883	1480.2059	1496.0626	1499.7772	1502.226	1835.6572	2839.7868	3035.4449	3043.2192	3051.5202	3077.873	3098.1905	3106.5911	3115.2707	3120.2566	3179.8494	3450.871
CC(C=O)C12CCC1N2	C[C@@H](C=O)[C@]12CC[C@H]1N2	
InChI=1S/C7H11NO/c1-5(4-9)7-3-2-6(7)8-7/h4-6,8H,2-3H2,1H3	InChI=1S/C7H11NO/c1-5(4-9)7-3-2-6(7)8-7/h4-6,8H,2-3H2,1H3/t5-,6+,7+/m0/s1
