18
gdb 19056	3.42015	2.24785	2.06272	1.3627	69.87	-0.2484	0.0769	0.3253	762.4596	0.156626	-347.780487	-347.77414	-347.773196	-347.810538	26.445	
O	-0.0310958133	 1.4565242083	-0.036959802	-0.432176
C	 0.025466301	 0.0317717524	 0.0247587683	 0.091592
C	 0.6923503751	-0.5165490055	 1.3201173136	-0.23311
C	-0.4898818393	-0.9121231647	 2.2107187461	-0.043703
C	-1.4385396599	 0.3076525517	 2.4657672569	-0.227238
C	-2.2730150469	-0.1496215562	 1.270348062	-0.048587
C	-1.5557387575	-1.487015463	 1.2286834699	-0.087801
C	-1.3897043519	-0.5224732934	 0.0879030637	-0.029407
H	 0.8697457192	 1.7811265271	-0.1337732041	 0.278466
H	 0.542307544	-0.3519485938	-0.8670896362	 0.059124
H	 1.3012189279	-1.3974925891	 1.0842866213	 0.091405
H	 1.3467354003	 0.2331067833	 1.7789110045	 0.086764
H	-0.2249562881	-1.5031060472	 3.0874994382	 0.062559
H	-1.9924024388	 0.1912697814	 3.4013470084	 0.092058
H	-0.9931423302	 1.3052899932	 2.421567544	 0.100999
H	-3.3243089359	 0.060109335	 1.1103934038	 0.078783
H	-1.9324458509	-2.4987359107	 1.1560431419	 0.079755
H	-1.920576185	-0.7093586386	-0.8386151601	 0.080518
155.2599	273.1739	308.8986	378.0046	427.1374	519.4177	633.1268	682.8024	760.6355	794.7845	815.421	837.71	862.4715	885.7009	937.3449	967.8595	979.6022	1009.1626	1020.054	1033.8115	1055.7731	1070.1758	1096.1325	1122.1745	1151.253	1180.7249	1223.757	1233.2876	1249.1501	1263.6998	1291.2417	1310.6865	1346.9423	1351.3192	1405.5204	1427.1015	1474.6383	1494.3541	2982.879	3030.5706	3051.8727	3076.4291	3102.2403	3110.6973	3170.6337	3179.559	3199.8529	3816.0297
OC1CC2CC3C2C13	O[C@H]1C[C@H]2C[C@@H]3[C@H]2[C@H]13	
InChI=1S/C7H10O/c8-5-2-3-1-4-6(3)7(4)5/h3-8H,1-2H2	InChI=1S/C7H10O/c8-5-2-3-1-4-6(3)7(4)5/h3-8H,1-2H2/t3-,4-,5+,6+,7+/m1/s1
