25
gdb 59047	2.94194	1.00051	0.92314	0.1587	95.51	-0.2247	0.0353	0.26	1468.5358	0.230166	-352.390762	-352.381005	-352.380061	-352.4253	37.725	
C	 0.0605203423	 1.5492108399	-0.0844637631	-0.385657
C	 0.0206717398	 0.0151749404	 0.0575163697	-0.058208
C	 0.7864805706	-0.4331043479	 1.3159430632	-0.388641
C	-1.3981758307	-0.5283117633	 0.0230157126	 0.344953
C	-1.8308984907	-1.2538014832	-1.0129964521	-0.16887
C	-3.2098617283	-1.8484031643	-1.1394777945	-0.239373
C	-3.9847362975	-1.8122573517	 0.1846413255	-0.192933
C	-3.7899641538	-0.4626681107	 0.8820564576	-0.201442
C	-2.3072018807	-0.2242306587	 1.1991045303	-0.289455
H	 1.095951747	 1.9027002535	-0.1374259482	 0.108543
H	-0.4569330586	 1.8743124976	-0.992074888	 0.113702
H	-0.4103232168	 2.0484934491	 0.7691375422	 0.113684
H	 0.5420476531	-0.4042875188	-0.8123651287	 0.07037
H	 0.3401451389	-0.0191063884	 2.2264777288	 0.114024
H	 0.7914441237	-1.523674973	 1.4096021954	 0.113075
H	 1.8260295525	-0.0910181111	 1.2759014838	 0.108465
H	-1.1509585089	-1.439215006	-1.8435984203	 0.06878
H	-3.7697948182	-1.3065938059	-1.9175054147	 0.102233
H	-3.1339592202	-2.880206065	-1.5067910864	 0.097471
H	-5.0474082867	-2.0120472289	 0.0096982536	 0.087865
H	-3.6174026793	-2.6111729442	 0.8421285424	 0.095084
H	-4.154011485	 0.33897188	 0.2259486586	 0.095723
H	-4.3827866599	-0.4106933384	 1.8019015158	 0.087723
H	-2.0112155556	-0.8457643807	 2.0570019268	 0.105367
H	-2.1607467969	 0.8114175493	 1.5295687	 0.097517
53.9273	97.8526	188.7671	218.4181	234.2536	249.6105	270.9705	302.2038	344.1458	432.446	463.8872	512.8699	558.1611	612.3408	755.5532	819.9817	847.7964	862.1574	889.3646	922.581	926.3818	942.8782	961.4052	970.9912	1051.4307	1058.1353	1092.2643	1096.8068	1115.1169	1160.0926	1165.6926	1199.2631	1212.6771	1267.4457	1296.2547	1317.4716	1343.1727	1359.8563	1367.2783	1372.6264	1383.6655	1393.5301	1407.4493	1416.2428	1472.2898	1479.079	1487.3829	1490.0784	1493.9414	1501.2085	1502.798	1510.7927	1728.8789	2987.3393	2998.7145	3015.7303	3017.4803	3020.3032	3028.0422	3032.4511	3034.4514	3046.0647	3065.7814	3070.332	3093.4886	3099.6481	3102.8575	3107.4733	3129.2606
CC(C)C1=CCCCC1	CC(C)C1=CCCCC1	
InChI=1S/C9H16/c1-8(2)9-6-4-3-5-7-9/h6,8H,3-5,7H2,1-2H3	InChI=1S/C9H16/c1-8(2)9-6-4-3-5-7-9/h6,8H,3-5,7H2,1-2H3
