15
gdb 31101	3.35464	1.19734	0.90614	1.8268	64.39	-0.1886	0.0342	0.2228	1208.7629	0.113503	-491.107867	-491.099465	-491.098521	-491.140882	31.205	
N	 0.0013503252	 1.3284239312	-0.1218297308	-0.600498
C	-0.1040856549	-0.0526623745	-0.1117181155	 0.274095
C	-1.1304745976	-0.9347102993	-0.0222568678	 0.141305
C	-2.5965492065	-0.6437778964	-0.0091095253	-0.1884
O	-2.9097942086	 0.5443405655	-0.742858273	-0.414017
N	-0.5992112672	-2.2377260457	 0.0767811785	-0.433473
C	 0.6707431673	-2.0481303736	 0.0301719246	 0.452741
O	 1.6621263433	-2.9406020116	 0.0568195652	-0.40386
O	 1.0780975981	-0.7653627133	-0.0813485075	-0.188543
H	 0.669326422	 1.6729932512	-0.802674307	 0.251843
H	-0.91535708	 1.7327422293	-0.2804949687	 0.262818
H	-3.1445645565	-1.5156711189	-0.3922106691	 0.115183
H	-2.9680796104	-0.4527432143	 1.0049852714	 0.126224
H	-2.6765481864	 0.3733624666	-1.6620690233	 0.284164
H	 1.2463017523	-3.8092609061	 0.1254662984	 0.320419
78.2044	171.9656	201.6415	239.1248	289.12	330.3921	343.0582	386.1673	419.3688	433.4097	538.1286	653.3132	660.8373	725.6504	733.2265	795.6507	838.8172	976.362	1014.6429	1044.9186	1059.1736	1179.5234	1203.1159	1229.7014	1286.1352	1361.9218	1395.9821	1424.0732	1491.035	1505.7738	1627.9589	1669.6672	1727.032	3011.0183	3050.445	3507.0749	3604.5464	3802.587	3811.4372
NC1=C(CO)N=C(O)O1	Nc1c(CO)nc(O)o1	
InChI=1S/C4H6N2O3/c5-3-2(1-7)6-4(8)9-3/h7H,1,5H2,(H,6,8)	InChI=1S/C4H6N2O3/c5-3-2(1-7)6-4(8)9-3/h7H,1,5H2,(H,6,8)
