18
gdb 29476	3.03865	1.63139	1.07558	1.7112	87.09	-0.1741	0.0089	0.183	1106.5435	0.149974	-364.864434	-364.856792	-364.855848	-364.89617	30.391	
C	-0.0203758958	 1.5182146794	 0.0574814162	-0.516421
C	-0.00729435	 0.022148545	 0.0194957603	 0.226396
C	-0.0249759284	-0.7833092079	-1.0676225753	-0.190267
C	-0.0020013386	-2.2557059404	-0.6826732497	-0.422707
C	 0.0323531107	-2.18687442	 0.8191841631	 0.283628
C	 0.028170694	-0.8555380786	 1.1819117738	 0.25454
N	 0.0588858487	-0.7721516595	 2.5465140741	-0.393323
C	 0.0833695573	-2.0565693454	 3.0582520733	-0.081823
C	 0.0671014774	-2.9565015235	 2.0073982776	-0.322047
H	 0.870771808	 1.9141557346	 0.5608955855	 0.123622
H	-0.0512186186	 1.9394379258	-0.9505160019	 0.129136
H	-0.8906682017	 1.8975785079	 0.6079150732	 0.123461
H	-0.0522913385	-0.4425490813	-2.095128815	 0.085409
H	-0.8839280012	-2.7826389981	-1.0719174562	 0.121047
H	 0.8707166586	-2.7659212699	-1.1128078518	 0.121044
H	 0.0639892856	 0.0668906335	 3.0987943529	 0.256671
H	 0.1098837295	-2.2219485273	 4.1235171713	 0.112274
H	 0.0795605732	-4.0311014245	 2.1108041186	 0.089359
157.3708	173.2925	216.3954	230.8478	285.1315	440.4894	487.6321	508.5768	582.7293	618.2409	648.3299	674.5935	720.1976	748.7521	759.5653	818.043	928.5904	931.8976	944.6095	1002.7152	1050.6425	1064.9864	1076.674	1123.9819	1130.2832	1170.5516	1235.4175	1271.1304	1300.2641	1377.0208	1412.5219	1429.9031	1453.0461	1470.9382	1480.6511	1492.9782	1540.0507	1565.6181	1652.0028	3016.9893	3018.5831	3042.6132	3062.0779	3114.708	3210.1284	3240.0276	3265.1121	3683.8669
CC1=CCC2=C1NC=C2	CC1=CCc2c1[nH]cc2	
InChI=1S/C8H9N/c1-6-2-3-7-4-5-9-8(6)7/h2,4-5,9H,3H2,1H3	InChI=1S/C8H9N/c1-6-2-3-7-4-5-9-8(6)7/h2,4-5,9H,3H2,1H3
