18
gdb 22424	2.88009	1.23563	0.98951	1.9625	77.56	-0.2422	0.0054	0.2476	1233.6236	0.144305	-439.017976	-439.00865	-439.007706	-439.051708	34.755	
C	-0.0907246214	 1.5056802789	 0.0659956736	-0.500928
C	 0.164345181	 0.0364065839	-0.0048414693	 0.343832
C	 0.6589010812	-0.7917778547	-1.2182417658	-0.395125
C	 1.2877330476	-1.7317583317	-0.1881034133	 0.41176
N	 2.0919365369	-2.7081535785	-0.1952265121	-0.262801
O	 2.3879933403	-3.1144635027	-1.5090033614	-0.388106
C	 0.7686180256	-0.9224838032	 0.9656949216	 0.249292
C	 1.293723083	-0.8070611421	 2.3565390953	-0.514671
O	-0.6672356975	-0.8488109703	 0.7528101283	-0.316988
H	 0.7574546776	 2.0671094407	-0.3381732667	 0.128406
H	-0.9791453701	 1.7704207626	-0.5185146664	 0.136446
H	-0.2617084578	 1.8178776105	 1.0995537262	 0.135282
H	-0.1263865751	-1.2030751597	-1.8563123025	 0.1287
H	 1.4170103336	-0.2984395227	-1.8342986201	 0.126592
H	 2.9991211611	-3.844616672	-1.3625329666	 0.307496
H	 2.3755036157	-0.6451838847	 2.345182238	 0.134648
H	 0.811781729	 0.0224825994	 2.8802672808	 0.1319
H	 1.0972250491	-1.7263491038	 2.9177003905	 0.144266
94.0419	162.0895	172.752	186.0742	192.6768	241.021	317.0229	334.081	373.3733	457.7927	475.379	513.5153	593.2717	598.9596	699.4737	738.3195	791.9148	840.1035	936.9212	960.8084	976.3753	1065.4028	1076.1843	1083.3237	1139.8039	1150.5131	1198.7671	1222.1324	1313.5766	1399.8014	1409.1373	1416.1108	1448.0362	1471.0857	1474.56	1488.0886	1493.1907	1511.7244	1793.5971	3035.4771	3043.1672	3062.0192	3098.1872	3108.6315	3119.606	3122.4203	3126.5276	3815.7496
CC12CC(=NO)C1(C)O2	C[C@@]12CC(=NO)[C@]1(C)O2	
InChI=1S/C6H9NO2/c1-5-3-4(7-8)6(5,2)9-5/h8H,3H2,1-2H3	InChI=1S/C6H9NO2/c1-5-3-4(7-8)6(5,2)9-5/h8H,3H2,1-2H3/t5-,6+/m1/s1
