20
gdb 22826	2.14948	1.52718	0.9515	1.273	78.85	-0.2441	0.0057	0.2499	1248.1888	0.171267	-440.254072	-440.245208	-440.244264	-440.287466	33.951	
C	-0.0500722469	 1.5651418372	-0.0006569831	-0.397395
C	 0.0810754832	 0.0423292289	 0.0403702476	-0.061945
C	 0.7582908219	-0.5269010079	-1.2248763	-0.200661
C	 0.9583208978	-2.0358884533	-1.1041651953	-0.081504
O	 1.7410143126	-2.3594371797	 0.0311890007	-0.241016
C	 1.1295599982	-1.9680234279	 1.2495026982	-0.171947
C	 0.8009072235	-0.4884423257	 1.2638328989	 0.361325
N	 1.0696896655	 0.3211791713	 2.2124146942	-0.19475
O	 1.6934125981	-0.3056721176	 3.3051069241	-0.399102
H	 0.9346580051	 2.0412548612	-0.0270213667	 0.123717
H	-0.6036133717	 1.86913883	-0.8948630973	 0.103465
H	-0.5731963865	 1.9437456257	 0.879907424	 0.127835
H	-0.9320628618	-0.3926993931	 0.075016983	 0.086491
H	 0.1505352229	-0.2963889412	-2.1077352667	 0.096439
H	 1.7357392509	-0.0486466127	-1.3629537537	 0.110314
H	-0.0203823167	-2.5456972245	-1.050482647	 0.082647
H	 1.4972351147	-2.4356063992	-1.9680430885	 0.108981
H	 0.2001311572	-2.543219994	 1.413396614	 0.097231
H	 1.8287432529	-2.2133198053	 2.0472838685	 0.143638
H	 1.8687615594	 0.4398651079	 3.888410655	 0.306238
74.1946	161.7519	205.031	235.4344	252.2276	296.8632	342.955	359.3921	418.994	432.3923	468.651	528.2805	612.3571	674.0712	762.4587	853.3942	880.3237	967.3888	969.8561	983.8901	993.8258	1015.975	1072.0498	1125.8274	1144.3832	1180.0005	1210.4289	1224.06	1269.6815	1307.821	1331.1093	1355.464	1369.0236	1378.952	1404.1724	1411.308	1422.1117	1477.5632	1485.0793	1488.4062	1497.7449	1500.8041	1734.3978	2942.0828	2948.6358	2964.591	3028.5913	3042.4738	3074.6936	3085.265	3109.5721	3128.9533	3148.0221	3824.4626
CC1CCOCC1=NO	C[C@H]1CCOCC1=NO	
InChI=1S/C6H11NO2/c1-5-2-3-9-4-6(5)7-8/h5,8H,2-4H2,1H3	InChI=1S/C6H11NO2/c1-5-2-3-9-4-6(5)7-8/h5,8H,2-4H2,1H3/t5-/m0/s1
