14
gdb 43291	2.41597	1.78009	1.48672	4.209	73.42	-0.2514	-0.0615	0.19	926.0642	0.100639	-399.515662	-399.508377	-399.507433	-399.547469	27.911	
O	-0.0081481988	-0.0101254599	 0.1477601827	-0.313554
C	-0.0673020297	 1.1817349132	 0.0205899233	 0.371951
C	-1.2660617341	 2.0532828246	-0.0958296498	-0.173047
C	-0.8854691231	 3.3360160913	-0.0710792877	-0.08263
C	 0.5963373224	 3.4145067835	-0.0071786191	-0.087372
C	 1.3252433329	 2.8574667039	 1.198584137	-0.22747
C	 0.6733371933	 2.5481574667	 2.4369872885	 0.371746
C	 0.1785516811	 2.2813088524	 3.4992940734	-0.437218
N	 1.1070499142	 2.0474433629	-0.0328040491	-0.149376
H	-2.2709167946	 1.6548672247	-0.1053239237	 0.132112
H	-1.5245493545	 4.2088052264	-0.1079316756	 0.129439
H	 1.1197976354	 4.151200543	-0.6109817891	 0.118314
H	 2.3633871748	 3.1660977064	 1.3052037203	 0.136307
H	-0.2665490593	 2.0412399511	 4.433540539	 0.210798
97.6132	130.6512	217.7835	282.9892	380.2044	471.0421	544.2351	584.6106	633.7637	661.7494	673.4221	728.6452	767.9979	776.4911	828.8564	852.4995	892.8057	953.5087	975.9212	1023.574	1059.6163	1102.5148	1108.565	1144.979	1254.9988	1324.8971	1365.8761	1371.3092	1635.6001	1845.9423	2239.4842	3128.7944	3148.8049	3217.9789	3246.9038	3500.6322
O=C1C=CC2C(C#C)N12	O=C1C=C[C@H]2[C@@H](C#C)N12	
InChI=1S/C7H5NO/c1-2-5-6-3-4-7(9)8(5)6/h1,3-6H	InChI=1S/C7H5NO/c1-2-5-6-3-4-7(9)8(5)6/h1,3-6H/t5-,6+,8?/m1/s1
