21
gdb 86884	2.98161	1.16808	0.95292	1.6028	84.52	-0.2497	0.0369	0.2866	1308.2919	0.18122	-387.070318	-387.060724	-387.05978	-387.105297	36.153	
C	 0.0063010942	 1.6305079444	-0.0281293762	-0.400219
C	 0.0862231642	 0.100118037	-0.0441709742	 0.003857
C	 0.7848112152	-0.4394745853	-1.3112977475	-0.270842
C	 2.2811230248	-0.5753291969	-0.8827822896	-0.056382
O	 2.3213175965	-0.3117297547	 0.5228094727	-0.264882
C	 1.0032832557	-0.4880063536	 1.049068135	 0.139017
C	 0.9489027549	 0.1273616512	 2.4360560428	-0.41427
C	 2.8411136079	-1.8913350426	-1.1988876703	 0.341035
C	 3.2951604199	-2.9722237558	-1.4650936335	-0.471516
H	 1.004769634	 2.0787555334	-0.057320355	 0.128729
H	-0.5510340285	 1.993613351	-0.8975102449	 0.111755
H	-0.501291535	 2.0001132115	 0.8677631822	 0.116272
H	-0.922708238	-0.316872609	 0.0425864443	 0.072183
H	 0.3896154556	-1.4182475383	-1.590812381	 0.116187
H	 0.6741240291	 0.2240187422	-2.172048024	 0.108169
H	 2.9001393124	 0.1923136034	-1.3615035385	 0.106361
H	 0.7881980592	-1.5673425258	 1.1305434851	 0.068679
H	 1.2073800232	 1.1888555609	 2.4104220131	 0.12599
H	-0.0544326278	 0.0200580922	 2.8602871005	 0.114474
H	 1.6562399431	-0.3783317696	 3.0988053095	 0.128193
H	 3.7052882193	-3.9241605558	-1.6960428205	 0.19721
24.4873	114.0422	167.6684	215.9319	232.5444	240.6849	278.0413	321.9358	351.5621	476.9147	519.1413	566.618	613.7958	659.994	674.1599	714.6471	774.0163	824.8503	882.4637	898.133	953.4653	997.0394	1017.9794	1039.2131	1044.5327	1104.6161	1114.7042	1137.5414	1176.9872	1220.7159	1263.2262	1302.6047	1323.3085	1346.6593	1364.2774	1381.7698	1391.8304	1411.6291	1418.8837	1481.5965	1491.2846	1497.573	1503.182	1511.3172	2231.6961	2950.6693	3033.8631	3035.4056	3046.0392	3050.076	3072.9195	3102.084	3108.7656	3117.0904	3119.3238	3127.5876	3503.2893
CC1CC(OC1C)C#C	C[C@H]1C[C@@H](O[C@H]1C)C#C	
InChI=1S/C8H12O/c1-4-8-5-6(2)7(3)9-8/h1,6-8H,5H2,2-3H3	InChI=1S/C8H12O/c1-4-8-5-6(2)7(3)9-8/h1,6-8H,5H2,2-3H3/t6-,7-,8-/m0/s1
