16
gdb 124727	2.64341	1.52727	1.00108	5.929	67.96	-0.2327	-0.0173	0.2154	1132.9638	0.124334	-471.188526	-471.180298	-471.179354	-471.221396	30.798	
C	-0.0501790223	 1.6853177506	 0.7301838924	-0.388847
C	-0.1049972174	 0.4036135732	-0.1056740687	-0.099192
N	 0.8314565584	-0.6609405166	 0.3510850189	-0.539104
H	 0.8099730022	-0.7130666688	 1.3676317153	 0.247078
H	-0.0713022771	-2.2164506376	-0.1663671159	 0.315691
H	 1.7840425275	-0.4230085381	 0.0931221349	 0.247904
C	-1.4708372273	-0.2175276892	-0.1334063206	 0.12731
C	-1.772205405	-1.5602716815	-0.246547489	 0.426262
O	-0.9744513815	-2.6070227106	-0.3077412907	-0.390823
O	-3.0713930699	-1.733976287	-0.2790558548	-0.218979
N	-3.6432203225	-0.3543632246	-0.1815802445	-0.044102
N	-2.6695021467	 0.4289792038	-0.1026016479	-0.177689
H	 0.9504154974	 2.1272932203	 0.6914658491	 0.110214
H	-0.7701857989	 2.4182123703	 0.3572007715	 0.151791
H	-0.3018397567	 1.4750547852	 1.7753938399	 0.12257
H	 0.2066669897	 0.6463789906	-1.1313357699	 0.109918
72.735	171.2874	209.9856	252.7964	294.2228	320.4781	358.948	390.4297	439.8535	483.4399	598.1004	661.5035	676.6103	746.1662	768.9235	878.4969	904.9567	976.579	982.8667	1016.5777	1080.9465	1122.2562	1215.1768	1225.103	1283.1484	1347.52	1395.4124	1408.1683	1425.3385	1456.4049	1486.9928	1499.5518	1557.1797	1628.7684	1650.8405	3003.0279	3036.0502	3107.2531	3126.3902	3266.7893	3480.739	3568.3693
CC([NH3+])C1=C([O-])ON=N1	C[C@@H](N)c1c(O)onn1	
InChI=1S/C4H7N3O2/c1-2(5)3-4(8)9-7-6-3/h2,8H,5H2,1H3	InChI=1S/C4H7N3O2/c1-2(5)3-4(8)9-7-6-3/h2,8H,5H2,1H3/t2-/m1/s1
