17
gdb 72971	2.68242	1.51937	1.2304	5.6617	73.46	-0.2453	0.0159	0.2612	1050.7389	0.135634	-417.971003	-417.962596	-417.961651	-418.003554	32.23	
C	-0.1067684827	 1.5268736881	 0.0601539135	-0.518255
C	 0.0636183918	 0.0427188854	 0.121026038	 0.273692
N	-1.0538589149	-0.8943906248	-0.1355039133	-0.395992
C	-0.5617090377	-1.7796803663	 0.9796718715	-0.198961
C	 0.7008626787	-0.9308140233	 1.1095294371	-0.198668
C	 1.2911373965	-0.752657367	-0.2969593548	 0.282272
O	 1.2020434449	-1.7359783035	-1.2723222726	-0.475159
C	 2.5346412526	-0.0203582369	-0.33386892	 0.253301
N	 3.5202647784	 0.5848710616	-0.3357240083	-0.348585
H	 0.8442921491	 2.0330916734	 0.242108764	 0.160817
H	-0.4675188595	 1.8309830432	-0.9291230332	 0.139908
H	-0.829009991	 1.8715224444	 0.8086900388	 0.124469
H	-1.9554217521	-0.4789956593	 0.0701178048	 0.234751
H	-1.1891909902	-1.7165255367	 1.8723290228	 0.120331
H	-0.435474893	-2.826325277	 0.6884912035	 0.126107
H	 1.2900440652	-0.7700650304	 2.0029600905	 0.11935
H	 0.2644421638	-1.7390814709	-1.5325242921	 0.300623
131.1047	149.2723	203.9441	226.5069	253.0346	299.9105	325.7011	458.7416	486.8718	517.0453	558.0629	568.556	671.4193	716.9435	768.8682	798.83	875.7672	951.5381	963.9652	967.3365	1001.32	1051.3284	1086.5904	1123.1242	1158.4816	1202.8702	1225.1667	1259.2821	1276.5065	1341.2657	1409.3569	1420.7101	1449.2375	1484.1094	1495.971	1503.2916	2353.0689	3030.2211	3055.51	3090.5997	3108.7131	3126.5373	3199.5556	3543.3966	3646.9169
CC12NCC1C2(O)C#N	C[C@]12NC[C@H]1[C@]2(O)C#N	
InChI=1S/C6H8N2O/c1-5-4(2-8-5)6(5,9)3-7/h4,8-9H,2H2,1H3	InChI=1S/C6H8N2O/c1-5-4(2-8-5)6(5,9)3-7/h4,8-9H,2H2,1H3/t4-,5+,6-/m1/s1
