18
gdb 78165	2.20165	1.78208	1.38476	3.916	71.37	-0.242	-0.0039	0.2381	1006.8937	0.147559	-439.089037	-439.080641	-439.079697	-439.122163	31.814	
C	-0.1974607478	 1.4942597297	 0.1486114047	-0.405929
C	-0.0219122893	 0.0135327046	-0.0900229454	 0.00663
C	 0.7264669131	-0.6169423862	-1.2172612429	-0.05969
C	 1.6711419531	 0.1750241665	-2.1309776291	 0.070023
O	 1.028470796	 1.3518892177	-2.6013435666	-0.422225
C	 2.9000392478	 0.4398071802	-1.2299487583	-0.34552
C	 2.4096704189	 0.1899583661	 0.2010661705	 0.374144
O	 2.8843473094	 0.6221815176	 1.2154840502	-0.320305
N	 1.2744628708	-0.6721863346	 0.1499583193	-0.13833
H	 0.578101611	 2.0951300525	-0.3239213493	 0.138993
H	-1.1600542182	 1.8139592927	-0.2619054986	 0.125565
H	-0.1987004924	 1.6978062701	 1.2242209056	 0.136223
H	-0.8510396027	-0.5808148727	 0.2919202817	 0.104908
H	 0.3550647919	-1.5604362792	-1.6072751115	 0.097969
H	 1.9463147277	-0.460256293	-2.9823397863	 0.083275
H	 1.6165735057	 1.7801165846	-3.231866885	 0.288537
H	 3.7036058834	-0.2725640758	-1.4486467255	 0.136435
H	 3.3102687116	 1.4472954092	-1.3280803738	 0.129297
59.4677	128.4959	182.197	229.9893	292.9475	318.4798	376.9104	394.7478	494.5779	555.7649	594.2829	664.2478	719.3372	740.7327	772.2774	837.0547	896.2717	948.4604	988.9696	1014.0931	1038.8597	1086.604	1108.0159	1132.0624	1156.4396	1181.5878	1207.4846	1223.8511	1256.5401	1311.3106	1350.2275	1375.3693	1419.0507	1426.4866	1432.8105	1447.4269	1481.7076	1499.3853	1850.1776	3013.7835	3048.3948	3054.4295	3108.7777	3110.8674	3117.8426	3145.3088	3162.3478	3814.5184
CC1C2C(O)CC(=O)N12	C[C@H]1[C@H]2[C@@H](O)CC(=O)N12	
InChI=1S/C6H9NO2/c1-3-6-4(8)2-5(9)7(3)6/h3-4,6,8H,2H2,1H3	InChI=1S/C6H9NO2/c1-3-6-4(8)2-5(9)7(3)6/h3-4,6,8H,2H2,1H3/t3-,4-,6-,7?/m0/s1
