20
gdb 103904	2.34763	1.15312	1.01668	4.2766	76.36	-0.2427	0.0259	0.2686	1297.3275	0.168872	-440.294738	-440.284657	-440.283713	-440.330049	36.722	
C	-0.0308136314	 1.3534275452	-0.113845024	-0.404408
C	 0.2958828003	-0.14331258	-0.0583807335	-0.222962
C	 0.7558373128	-0.5964679653	 1.3116576089	 0.429635
O	 1.9325443724	 0.0113591458	 1.7748687793	-0.468495
C	-0.2493989696	-1.0107740865	 2.368119371	-0.393867
C	 0.6664542294	-2.0363391576	 1.7318460226	-0.015801
N	 0.0867908476	-3.0258488559	 0.8721573803	-0.288511
C	 0.7325615513	-3.5402234087	-0.2145283984	 0.153869
O	 1.7847503184	-3.1385949548	-0.6575996098	-0.313864
H	 0.8501767192	 1.961273603	 0.1199130004	 0.113651
H	-0.3645046924	 1.6430950876	-1.1143091288	 0.119628
H	-0.8244596336	 1.6185196834	 0.5939713449	 0.112222
H	-0.5841122066	-0.7260305794	-0.3484122237	 0.092854
H	 1.087315061	-0.3861635324	-0.7748085173	 0.133401
H	 1.7254071261	 0.925057055	 1.9981867234	 0.284489
H	-0.0505039204	-0.7422025556	 3.399142141	 0.118908
H	-1.2979631381	-1.0358516629	 2.0881650657	 0.111815
H	 1.5091165763	-2.3732163972	 2.3304890629	 0.118238
H	-0.7267465717	-3.520872365	 1.2051997115	 0.246997
H	 0.1620274589	-4.3777120088	-0.6664649265	 0.072203
51.8558	95.0585	120.6395	150.1523	221.3978	241.4758	274.8343	294.5773	311.1497	407.3633	420.8634	461.2992	522.283	584.2856	697.7973	786.1708	807.7869	832.3205	905.2607	911.1192	995.4523	1019.1565	1032.3658	1043.2396	1067.6494	1084.0595	1113.3245	1133.3625	1217.5874	1251.454	1294.7539	1305.1789	1329.9136	1382.5102	1407.1132	1413.3356	1431.6855	1482.6452	1483.181	1501.4608	1506.4626	1512.0543	1814.26	2921.7939	3029.1454	3051.9781	3081.7903	3105.0436	3107.9062	3129.8897	3137.9372	3224.6306	3610.6802	3805.7178
CCC1(O)CC1NC=O	CC[C@@]1(O)C[C@H]1NC=O	
InChI=1S/C6H11NO2/c1-2-6(9)3-5(6)7-4-8/h4-5,9H,2-3H2,1H3,(H,7,8)	InChI=1S/C6H11NO2/c1-2-6(9)3-5(6)7-4-8/h4-5,9H,2-3H2,1H3,(H,7,8)/t5-,6-/m1/s1
