18
gdb 60521	3.27592	1.07716	0.87124	2.7843	76.67	-0.2399	-0.0728	0.1671	1323.7136	0.145936	-439.090378	-439.080866	-439.079922	-439.126333	33.363	
C	-0.6883150235	 1.2906621194	-0.2585444845	-0.376038
N	-0.143424588	-0.0493623023	-0.079039372	-0.109648
C	-0.2284329448	-0.6721443527	 1.2247470197	 0.06726
C	 0.415672195	-0.0586532739	 2.4429698844	-0.275004
C	-1.0913720863	-0.1217963662	 2.3246312796	-0.305531
C	 0.4343283416	-0.7948428845	-1.0593728364	 0.30676
O	 0.8853423089	-1.9207578548	-0.8830844324	-0.373131
C	 0.5772162653	-0.2872977672	-2.5061834199	 0.101725
O	 0.3803848656	 0.8085011401	-2.9622169727	-0.249274
H	-0.4364637343	 1.66140622	-1.2467872839	 0.191353
H	-1.7776431507	 1.2839044775	-0.1413426238	 0.134197
H	-0.2672892276	 1.9736244967	 0.4878282412	 0.130872
H	-0.1581384408	-1.7469817478	 1.1318965126	 0.138828
H	 0.9258488306	-0.7219103866	 3.1319091412	 0.127416
H	 0.8778073272	 0.9170062614	 2.3373174006	 0.120719
H	-1.6145877717	 0.8141017592	 2.1710564039	 0.12105
H	-1.6383065597	-0.8367824451	 2.9290044951	 0.124784
H	 0.9557241928	-1.1298967131	-3.1189468325	 0.123661
29.8424	45.3234	110.4178	165.6478	196.7228	224.0544	286.2584	352.429	421.759	445.4909	512.952	600.2674	671.0485	706.9749	777.4366	821.8778	867.5355	933.7405	991.8433	1030.5657	1054.0506	1079.8613	1088.5779	1142.6238	1158.2445	1168.6261	1195.6008	1231.0873	1301.5894	1373.3461	1387.8697	1449.3275	1464.1384	1471.8074	1501.6353	1511.5832	1528.6303	1725.0043	1823.2553	2949.1545	3028.2126	3078.2968	3138.2549	3145.1575	3202.9603	3212.6705	3219.5932	3234.9788
CN(C1CC1)C(=O)C=O	CN(C1CC1)C(=O)C=O	
InChI=1S/C6H9NO2/c1-7(5-2-3-5)6(9)4-8/h4-5H,2-3H2,1H3	InChI=1S/C6H9NO2/c1-7(5-2-3-5)6(9)4-8/h4-5H,2-3H2,1H3
