20
gdb 11061	3.16532	2.25833	1.87466	1.3277	72.94	-0.2487	0.0755	0.3243	831.4698	0.179882	-349.035383	-349.028383	-349.027438	-349.066105	28.62	
C	-0.0676804863	 1.4714231453	 0.0163520703	-0.480416
C	 0.0460329912	-0.0364303852	-0.0007422992	 0.410633
C	 0.6473889042	-0.660449194	-1.2885492243	-0.2469
C	 0.0043908135	-2.0776537662	-1.2824935692	-0.217342
C	-0.8352178362	-2.009717935	 0.0129352793	 0.080256
C	 0.0926182886	-2.0994928837	 1.2453555171	-0.217396
C	 0.735015154	-0.6820803022	 1.2312673551	-0.246832
O	-1.2623491058	-0.6430628376	 0.0396056888	-0.291314
H	 0.9256949256	 1.9302587881	-0.0120140021	 0.116472
H	-0.6340760921	 1.8264432109	-0.8497357865	 0.122059
H	-0.576013379	 1.8103387575	 0.9239273123	 0.122138
H	 0.3378047903	-0.0863318102	-2.1657898609	 0.098431
H	 1.7403529828	-0.6806500293	-1.2704903253	 0.094234
H	-0.6412021195	-2.2245075994	-2.1515149357	 0.102162
H	 0.7371404448	-2.8889252332	-1.2669358958	 0.094379
H	-1.7048224339	-2.6672627578	 0.0376038792	 0.07024
H	-0.490760063	-2.2621407156	 2.1546176924	 0.102159
H	 0.8222270648	-2.9097167415	 1.1644618129	 0.094383
H	 1.8240932502	-0.700999894	 1.1372139574	 0.094228
H	 0.4870770259	-0.1234163568	 2.137602714	 0.098428
133.8102	207.1626	268.3307	324.6669	359.4747	407.7058	557.7563	583.509	604.59	758.1128	809.6716	828.6424	835.4793	867.4283	884.3676	908.5544	932.4363	960.4825	983.8224	1008.4197	1018.175	1065.081	1097.9277	1123.2918	1189.8059	1207.2034	1218.0241	1223.3846	1258.3405	1264.8793	1304.317	1317.9737	1332.465	1340.0382	1359.3825	1414.5148	1475.3822	1486.0681	1490.6493	1495.6479	1496.1908	1514.6409	3038.7661	3053.8605	3057.3582	3063.8256	3068.4119	3092.3162	3096.8063	3110.5328	3111.0229	3113.6001	3114.5351	3120.1468
CC12CCC(CC1)O2	C[C@@]12CC[C@@H](CC1)O2	
InChI=1S/C7H12O/c1-7-4-2-6(8-7)3-5-7/h6H,2-5H2,1H3	InChI=1S/C7H12O/c1-7-4-2-6(8-7)3-5-7/h6H,2-5H2,1H3/t6-,7+
