18
gdb 88524	2.31678	1.37439	1.16213	1.8186	72.44	-0.2437	-0.0247	0.219	1135.8447	0.146449	-439.043442	-439.034674	-439.033729	-439.077311	32.888	
O	-0.0885873715	 0.9895519587	 1.3684755422	-0.418842
C	-0.0432451686	 0.0381754598	 0.3413904032	 0.102624
C	-0.6452932731	-1.288593736	 0.6861140394	-0.345205
C	-1.3282024317	-0.4026908618	-0.3322667273	-0.121624
C	-2.6406456106	 0.2824494473	-0.086959768	 0.184248
C	-3.7183823127	-0.3733015257	 0.735087074	-0.266919
N	-3.0408355694	 0.8082446335	 1.2390348904	-0.352694
C	-3.1195493238	 1.1607273409	-1.1990726183	 0.144057
O	-2.6109677785	 1.2267532184	-2.2902449844	-0.268407
H	-0.2201198252	 1.8573323226	 0.9703939642	 0.297628
H	 0.8641979468	 0.0589546148	-0.2599824278	 0.09956
H	-0.1676194632	-2.1987537242	 0.3424031155	 0.123362
H	-1.0767316828	-1.3591165673	 1.6802354736	 0.120558
H	-1.2182817322	-0.6945763252	-1.3717250167	 0.112942
H	-4.7656785949	-0.2330544487	 0.4797012203	 0.124434
H	-3.4693845743	-1.3524224584	 1.1350739736	 0.127589
H	-2.3141865311	 0.5839553507	 1.9138867206	 0.251644
H	-4.0135008432	 1.7631134104	-0.9250566146	 0.085045
43.5071	132.9672	168.892	188.9726	264.8852	335.4701	350.8714	383.4524	403.3299	466.9439	567.824	622.7183	706.1973	796.6326	803.8729	853.5976	899.793	913.6105	976.5525	1000.4476	1022.3829	1050.5143	1064.8066	1075.9916	1106.2582	1132.2259	1141.2031	1171.8004	1227.5355	1245.9972	1296.8924	1299.8751	1335.0446	1413.518	1422.091	1434.0987	1491.9972	1507.379	1820.7233	2897.9138	3106.0054	3113.7911	3129.3225	3165.8864	3194.1015	3217.48	3518.0698	3800.2698
OC1CC1C1(CN1)C=O	O[C@H]1C[C@H]1[C@]1(CN1)C=O	
InChI=1S/C6H9NO2/c8-3-6(2-7-6)4-1-5(4)9/h3-5,7,9H,1-2H2	InChI=1S/C6H9NO2/c8-3-6(2-7-6)4-1-5(4)9/h3-5,7,9H,1-2H2/t4-,5+,6+/m1/s1
