17
gdb 126674	6.66479	0.73774	0.67254	0.6111	71.04	-0.2545	-0.0248	0.2297	1639.4312	0.136952	-451.309454	-451.300834	-451.29989	-451.344034	30.057	
C	 0.0304848098	 1.4813000032	 0.0082937617	-0.385822
C	-0.0543002249	-0.047520968	 0.0024962211	-0.190666
C	-1.4939882158	-0.5317419398	 0.0135988662	-0.046355
O	-1.4669076575	-1.9721717258	 0.0072365437	-0.254681
C	-2.6437411773	-2.5792843328	 0.0151165332	 0.503181
N	-2.7417833431	-3.9063566883	 0.0100735398	-0.313984
N	-4.0667248134	-4.0382345696	 0.021364619	-0.055875
N	-4.7484121853	-2.9112745429	 0.0327173958	-0.114122
N	-3.8492285147	-1.9538677886	 0.0288757357	-0.285936
H	 1.0723104346	 1.8127373614	 0.0002021537	 0.122421
H	-0.4629394931	 1.9123910113	-0.8694706523	 0.121826
H	-0.4467892582	 1.9047874055	 0.898600228	 0.121826
H	 0.4475978056	-0.4537750384	-0.8828309055	 0.113701
H	 0.4636882995	-0.4613322912	 0.8749621118	 0.113704
H	-2.0311296756	-0.1854821625	 0.9042312183	 0.123629
H	-2.0473063734	-0.1779738743	-0.8640838462	 0.123628
H	-4.5197404473	-4.9395678792	 0.0213558859	 0.303525
53.6345	69.8881	113.9929	144.658	234.1713	292.7311	343.7879	351.9278	534.1973	562.3333	727.9779	764.5605	777.279	781.4642	895.2197	915.1698	1017.6454	1035.2172	1053.1884	1093.7328	1144.7822	1159.2709	1188.5382	1195.2608	1269.9016	1279.0844	1316.3718	1334.897	1365.2875	1412.4189	1422.2759	1492.2386	1501.8539	1503.5288	1507.1857	1519.4416	1605.0533	3030.8273	3035.8606	3044.2093	3064.8097	3084.8845	3106.4237	3114.1628	3653.5994
CCCOC1=NNN=N1	CCCOc1n[nH]nn1	
InChI=1S/C4H8N4O/c1-2-3-9-4-5-7-8-6-4/h2-3H2,1H3,(H,5,6,7,8)	InChI=1S/C4H8N4O/c1-2-3-9-4-5-7-8-6-4/h2-3H2,1H3,(H,5,6,7,8)
