15
gdb 18311	3.71978	2.18884	1.41471	3.9239	68.88	-0.2056	0.0014	0.207	843.3862	0.120277	-362.677923	-362.671186	-362.670242	-362.709873	25.008	
O	-0.1810003893	-0.0810813197	 0.0043362965	-0.370107
C	-0.1281290718	 1.1197431492	 0.1200437894	 0.37687
C	-1.2686402431	 2.1711526723	-0.0690928228	-0.378952
C	-0.6368348468	 3.5298621671	 0.2030050183	-0.317055
C	 0.6395239626	 3.2729927912	 0.4932972029	 0.402646
C	 2.0698061293	 3.6358198581	 0.8757248734	-0.383048
C	 2.3656741529	 2.0882696032	 0.8151778358	-0.173927
N	 0.9482042504	 1.9140401037	 0.4513190281	-0.091009
H	-1.6706779338	 2.0718469972	-1.0841692969	 0.143173
H	-2.0879172286	 1.9253004293	 0.6166178374	 0.143164
H	-1.1459645114	 4.4795653689	 0.1606495527	 0.106554
H	 2.6109492708	 4.234945949	 0.1410712229	 0.136942
H	 2.188267778	 4.0869457784	 1.862611822	 0.136942
H	 3.0641645616	 1.7716691545	 0.0364992869	 0.133895
H	 2.6385402691	 1.6228023577	 1.7656352735	 0.133913
27.6615	168.5204	236.6353	310.7119	505.148	545.909	586.1901	647.7281	694.7122	705.7953	787.6	799.9502	906.364	935.1414	958.2483	988.8039	1053.5059	1058.0214	1140.7279	1142.8117	1193.352	1194.7168	1225.084	1249.2637	1279.8092	1330.9818	1381.0024	1437.6963	1473.2759	1515.551	1718.5579	1829.1232	3043.1758	3061.5008	3076.719	3083.0639	3110.4755	3136.0337	3256.0576
O=C1CC=C2CCN12	O=C1CC=C2CCN12	
InChI=1S/C6H7NO/c8-6-2-1-5-3-4-7(5)6/h1H,2-4H2	InChI=1S/C6H7NO/c8-6-2-1-5-3-4-7(5)6/h1H,2-4H2
