18
gdb 17196	4.74312	1.61909	1.43735	1.4502	72.51	-0.2512	0.0735	0.3248	912.6845	0.154294	-347.726498	-347.719484	-347.71854	-347.757213	28.508	
O	 0.2297630995	 1.3820344546	-0.1888261806	-0.452578
C	 0.0531307944	 0.0042818792	-0.0266773946	 0.195663
C	 0.0049041255	-0.6621107408	 1.3913579293	-0.184866
C	-1.4444622408	-0.0963108468	 1.5379248146	-0.253044
C	-1.3720513022	-0.6405351926	 0.0747605619	-0.184854
C	-0.6455843877	-1.8577400603	 0.6735617724	 0.484491
C	-0.0856255389	-3.0969379608	 0.067574487	-0.375194
C	-1.1419972435	-3.1683967127	 1.1711686343	-0.37368
H	-0.3472937327	 1.8508779486	 0.4223880681	 0.281856
H	 0.7278086704	-0.4729943446	-0.7401068168	 0.088106
H	 0.7911991598	-0.6887424801	 2.1477114694	 0.072664
H	-2.1059132534	-0.6332363682	 2.2209024877	 0.102224
H	-1.5595401519	 0.983854104	 1.6759807795	 0.073265
H	-2.1631045229	-0.6424618881	-0.6770847496	 0.072663
H	-0.3885493425	-3.3732496446	-0.9377646906	 0.113859
H	 0.9275504869	-3.3939168949	 0.3207546923	 0.113858
H	-0.8241099367	-3.5126770032	 2.1505795451	 0.112783
H	-2.1401529334	-3.4919337389	 0.8921717306	 0.112782
175.4834	208.7315	253.9892	279.8155	361.8445	408.3946	476.0534	588.8249	665.567	735.603	779.7399	806.4721	860.8834	891.1794	893.8472	923.8672	950.4139	1000.6992	1003.8301	1046.8831	1052.4034	1066.9805	1080.2972	1101.2715	1128.5221	1140.9139	1174.385	1179.9115	1195.0222	1202.5565	1250.6178	1261.8215	1284.2792	1411.3931	1451.7636	1463.2799	1513.0977	1535.8041	3042.7362	3096.2282	3099.3659	3106.8122	3113.9849	3118.5642	3122.2796	3194.4722	3208.6542	3817.7739
OC1C2CC1C21CC1	O[C@H]1[C@H]2C[C@@H]1C12CC1	
InChI=1S/C7H10O/c8-6-4-3-5(6)7(4)1-2-7/h4-6,8H,1-3H2	InChI=1S/C7H10O/c8-6-4-3-5(6)7(4)1-2-7/h4-6,8H,1-3H2/t4-,5+,6+
