16
gdb 77648	2.20108	1.42316	1.30755	3.4057	71.79	-0.2479	0.0137	0.2616	1065.1439	0.123733	-437.86605	-437.857609	-437.856665	-437.898827	31.94	
O	-0.0367642838	 1.413739104	 0.127528875	-0.413887
C	-0.0403133686	 0.0227698469	 0.1097012184	 0.023094
C	-0.4217316482	-0.7267993012	 1.3183261213	 0.322806
O	 0.4567338091	-1.6384111385	 1.8337412662	-0.432793
C	-1.556925908	-0.0478768358	 2.0826281131	-0.291384
C	-2.4407172551	-0.0473212406	 0.797672043	-0.280009
C	-1.3401751467	-0.7778584477	 0.0128970313	 0.050663
C	-1.5345096734	-1.7958054385	-0.9561142087	 0.181514
N	-1.6938583444	-2.6405165974	-1.734173229	-0.354653
H	-0.1193943698	 1.7295087821	-0.7791393984	 0.297375
H	 0.7801110852	-0.4470459024	-0.4326519242	 0.120991
H	-0.0340627183	-2.2936044499	 2.3435899011	 0.297667
H	-1.9702675771	-0.700617642	 2.8564027307	 0.106785
H	-1.3111786443	 0.9207446576	 2.5231226839	 0.130086
H	-3.3475256325	-0.6434144423	 0.9014544292	 0.125418
H	-2.6969426441	 0.9391769256	 0.4065841571	 0.116327
106.6352	146.8561	208.8928	232.2897	264.0546	321.1933	350.2891	403.0304	437.4587	515.0446	554.7766	573.5776	642.9902	675.2029	760.3704	797.7811	820.503	956.5509	1011.311	1046.0242	1092.2084	1110.0687	1135.0571	1200.0869	1209.9545	1242.1689	1247.1959	1268.8218	1321.7823	1340.5798	1379.1362	1468.4709	1484.7973	1536.3506	2329.581	3063.0769	3080.8322	3116.1257	3122.1009	3140.7534	3792.8699	3805.47
OC1C2(O)CCC12C#N	O[C@H]1[C@@]2(O)CC[C@@]12C#N	
InChI=1S/C6H7NO2/c7-3-5-1-2-6(5,9)4(5)8/h4,8-9H,1-2H2	InChI=1S/C6H7NO2/c7-3-5-1-2-6(5,9)4(5)8/h4,8-9H,1-2H2/t4-,5-,6+/m1/s1
