14
gdb 28827	3.07769	1.51732	1.20801	3.2223	71.86	-0.2485	-0.0859	0.1627	1015.2553	0.101149	-432.898579	-432.890925	-432.889981	-432.930958	27.695	
C	-0.4752376253	 1.31465355	 0.1725063782	-0.448327
C	 0.0289036329	-0.0710649657	-0.0946575524	 0.361414
N	-0.2047902637	-0.6231518377	-1.2474214292	-0.270477
C	 0.0928824251	-1.9351906004	-1.5016555623	 0.078159
N	 0.0424628613	-2.9530392171	-0.7098314048	-0.241683
C	-0.1281134583	-2.8120725199	 0.6584722762	 0.34381
O	-0.8918728924	-3.4387117154	 1.349710005	-0.312882
C	 0.8647271168	-1.8213722427	 1.2185035242	-0.068963
N	 0.8463069729	-0.5847923869	 0.8951564053	-0.195832
H	-1.0089759044	 1.3372133539	 1.1286274938	 0.151627
H	 0.3665612625	 2.0085200249	 0.2635181109	 0.15841
H	-1.1352438533	 1.636589497	-0.6321960729	 0.15117
H	 0.3199517139	-2.1393812818	-2.5480426458	 0.139044
H	 1.6084635317	-2.1682818581	 1.9382934938	 0.154531
95.9994	121.99	181.3195	278.6395	306.7289	343.3634	380.5568	456.5471	556.454	634.9128	679.3707	763.2979	779.2796	867.0586	884.9763	958.669	991.2376	1009.3825	1066.8977	1137.7739	1225.3313	1269.1038	1371.5118	1404.1947	1431.4395	1462.4409	1472.3063	1552.5901	1641.1325	1688.389	1809.7935	3047.4718	3105.837	3118.416	3138.8563	3166.1782
CC1=NC=NC(=O)C=N1	C[C]1[N]C=NC(=O)C=N1	
InChI=1S/C5H5N3O/c1-4-6-2-5(9)8-3-7-4/h2-3H,1H3	InChI=1S/C5H5N3O/c1-4-6-2-5(9)8-3-7-4/h2-3H,1H3
