23
gdb 73083	2.34164	1.67431	1.30743	0.1844	90.26	-0.2325	0.0295	0.2621	1111.6301	0.208018	-351.171062	-351.162788	-351.161844	-351.203278	33.933	
C	-0.0036085201	 1.5268405633	-0.0309847875	-0.469909
C	-0.0296344245	 0.0025736419	 0.0057420727	 0.347434
C	-1.3420604175	-0.6566316886	 0.533083221	-0.273663
C	-0.4937127218	-1.6276569291	 1.3975748577	-0.242409
C	 0.7301224545	-0.6759997997	 1.1927836547	-0.042194
C	 2.086277052	-1.2338287416	 0.9051757492	-0.072885
C	 2.653627342	-1.1668432449	-0.3002210016	-0.057323
C	 1.9568070392	-0.5762549767	-1.5006992906	-0.26436
C	 0.4288604148	-0.6072010582	-1.3315117675	-0.253726
H	 0.9959918323	 1.9106007603	-0.2652700391	 0.116116
H	-0.6934512212	 1.9131741773	-0.7912409451	 0.109481
H	-0.3005246305	 1.9497969655	 0.9348709265	 0.106739
H	-1.9228027187	 0.0368153744	 1.1489224144	 0.092551
H	-2.0092734036	-1.0968403425	-0.2134952118	 0.091284
H	-0.8235248472	-1.8009082224	 2.4244989395	 0.093645
H	-0.3396007189	-2.5962722792	 0.9153976963	 0.102678
H	 0.7893152703	 0.0168593967	 2.0420382314	 0.068804
H	 2.6229695053	-1.6924940045	 1.7338595841	 0.079089
H	 3.6581566455	-1.5562091868	-0.4483475516	 0.081405
H	 2.3077459119	 0.4519541766	-1.6734536292	 0.107523
H	 2.2391289017	-1.1320860403	-2.4030914346	 0.098064
H	 0.1081272546	-1.6545637468	-1.3804518296	 0.094996
H	-0.06299775	-0.0905380448	-2.1648370891	 0.08666
119.8839	180.5781	205.9407	242.2472	313.4342	339.5511	375.2075	459.3023	491.5155	497.0203	600.7694	695.4414	719.6954	750.7109	789.3175	856.9017	876.1975	907.263	945.3622	957.2433	983.6529	994.2733	997.7394	1013.3833	1030.8805	1073.6697	1097.3445	1138.7807	1149.2671	1176.805	1203.8743	1235.4116	1254.6087	1259.5065	1265.759	1283.7259	1304.2114	1351.3797	1365.5286	1382.0377	1406.6172	1420.1717	1474.7434	1480.5911	1489.5	1493.2387	1498.8114	1503.526	1713.5854	2997.6038	3014.5721	3017.9488	3022.3566	3044.1741	3046.8697	3060.5882	3064.0711	3083.0735	3088.9178	3093.8495	3116.8285	3132.5282	3159.7965
CC12CCC1C=CCC2	C[C@]12CC[C@H]1C=CCC2	
InChI=1S/C9H14/c1-9-6-3-2-4-8(9)5-7-9/h2,4,8H,3,5-7H2,1H3	InChI=1S/C9H14/c1-9-6-3-2-4-8(9)5-7-9/h2,4,8H,3,5-7H2,1H3/t8-,9+/m1/s1
