20
gdb 93284	2.23323	1.8135	1.12476	3.7135	79.31	-0.2378	0.0333	0.2711	1117.889	0.172684	-403.193292	-403.184827	-403.183883	-403.226173	32.904	
C	-0.6878199533	 1.2282820098	-0.0070809651	-0.413655
C	 0.0841321253	-0.0856837784	-0.0850010534	-0.074646
C	 1.2521690525	-0.0474732903	-1.1060587711	-0.180307
N	 2.1962448003	-1.0116985999	-0.5662884289	-0.335399
C	 2.0497593858	-1.2445949927	 0.7769394012	 0.378015
O	 2.8115798445	-1.8714124997	 1.4848562041	-0.399852
C	 0.7714074963	-0.5655079733	 1.1940726322	 0.227979
C	 0.8194556291	 0.1912096353	 2.5092274695	-0.303452
C	 0.0603309088	-1.0979423141	 2.4090545144	-0.303751
H	-0.036296793	 2.0560184403	 0.2912035751	 0.122706
H	-1.1249930864	 1.4782523555	-0.9797088981	 0.117015
H	-1.5092385102	 1.1669680032	 0.7141913179	 0.121427
H	-0.6051801033	-0.8767633339	-0.4075607105	 0.088995
H	 0.9252519506	-0.326493489	-2.1127944034	 0.111546
H	 1.6884508024	 0.9615376244	-1.1620073809	 0.102188
H	 3.068750485	-1.2377673424	-1.0173887577	 0.248851
H	 1.7658349833	 0.1790489637	 3.0382379254	 0.133384
H	 0.2584484463	 1.115922435	 2.5826397511	 0.113232
H	-1.0242592626	-1.0566094447	 2.4112296397	 0.108998
H	 0.4961394984	-1.9771850187	 2.8708087485	 0.136728
74.5116	169.3744	223.2913	249.8634	253.6196	271.0637	308.4149	467.3476	474.6248	516.89	579.5651	653.3863	709.9775	756.2134	786.7369	841.8288	901.0904	907.9598	962.3243	963.6402	990.7559	1058.7008	1069.6338	1082.7372	1092.4708	1134.5429	1146.4247	1193.5696	1202.041	1234.8215	1297.6722	1324.249	1333.4808	1374.8041	1378.1655	1413.0645	1449.0371	1451.1205	1487.0755	1501.0847	1502.627	1532.223	1819.5291	2985.4482	3015.9342	3032.4645	3066.2004	3098.1432	3106.2148	3127.9053	3138.1197	3216.9716	3232.6331	3638.071
CC1CNC(=O)C11CC1	C[C@H]1CNC(=O)C21CC2	
InChI=1S/C7H11NO/c1-5-4-8-6(9)7(5)2-3-7/h5H,2-4H2,1H3,(H,8,9)	InChI=1S/C7H11NO/c1-5-4-8-6(9)7(5)2-3-7/h5H,2-4H2,1H3,(H,8,9)/t5-/m0/s1
