19
gdb 88641	4.58761	0.84849	0.77449	3.9801	77.5	-0.2446	0.0383	0.2829	1477.4397	0.159471	-419.206315	-419.197359	-419.196414	-419.240893	33.026	
C	-0.7658839454	 1.2795746563	 0.3378547852	-0.397708
C	-0.0444304294	-0.0162919009	 0.0499398774	 0.002826
N	 1.2609054848	 0.0673495728	-0.6256461705	-0.349375
C	 1.191353654	-0.4786884226	 0.7431275332	-0.02773
C	 1.9055479869	 0.2992200537	 1.815370652	 0.060156
C	 1.6940092937	-0.1676849902	 3.288655251	-0.412263
C	 3.2181468005	-0.4496134485	 3.303887309	 0.427781
O	 4.0218453056	-0.8347150277	 4.1089706829	-0.357735
N	 3.3215399238	-0.0653487413	 1.9882514677	-0.324158
H	-0.0681367581	 2.079948516	 0.5921881359	 0.129797
H	-1.3302044121	 1.6019306318	-0.5435905076	 0.123725
H	-1.4745325834	 1.1574219594	 1.1640676763	 0.11987
H	-0.7043524998	-0.8221500111	-0.2708260955	 0.086162
H	 1.3682216803	-0.6810745462	-1.3044056426	 0.233305
H	 1.3041380418	-1.5573539018	 0.8550891183	 0.083898
H	 1.7654185105	 1.3733903645	 1.6686305817	 0.089371
H	 1.3715059339	 0.6044075156	 3.9886766398	 0.132445
H	 1.071408529	-1.0566789715	 3.4091748277	 0.12786
H	 4.1226889635	 0.0625330418	 1.387353668	 0.251773
48.5208	63.8599	140.5963	195.027	208.09	342.8676	378.3325	409.2614	412.7443	472.325	548.8191	570.9764	761.5116	780.512	811.834	868.7512	918.1504	955.3919	977.2864	995.2512	1003.796	1029.916	1057.9988	1087.2515	1112.2747	1158.0338	1181.1729	1193.5867	1228.6861	1261.6204	1265.768	1279.4523	1336.151	1381.5053	1407.4003	1432.3729	1459.2351	1474.4768	1491.8585	1506.7936	1896.4472	3037.6657	3071.0056	3084.5132	3097.13	3098.4596	3107.9053	3133.4181	3143.9125	3510.0206	3609.7672
CC1NC1C1CC(=O)N1	C[C@H]1N[C@H]1[C@H]1CC(=O)N1	
InChI=1S/C6H10N2O/c1-3-6(7-3)4-2-5(9)8-4/h3-4,6-7H,2H2,1H3,(H,8,9)	InChI=1S/C6H10N2O/c1-3-6(7-3)4-2-5(9)8-4/h3-4,6-7H,2H2,1H3,(H,8,9)/t3-,4-,6-/m1/s1
