21
gdb 101472	3.73148	0.93958	0.86758	2.1628	74.95	-0.2523	0.0797	0.3319	1407.598	0.181943	-461.359879	-461.35006	-461.349116	-461.395353	34.974	
C	 0.042657197	 1.5849153217	 0.1300126002	-0.399751
C	-0.0235762629	 0.0627311278	-0.0250513728	-0.004086
C	-1.4626794378	-0.4558437358	-0.0234702778	-0.083358
O	-2.018068889	-0.1955091654	 1.2585381947	-0.423583
C	 0.7014499943	-0.42816016	-1.2742535904	 0.222606
O	 0.1247508523	 0.1178830938	-2.4402184778	-0.25545
C	 1.1529108091	 0.0789728693	-3.415519993	-0.107674
C	 2.4192568511	 0.3687619832	-2.5914318386	-0.089767
O	 2.0640157373	-0.0235115004	-1.2688506744	-0.277177
H	 1.0794397538	 1.9189070609	 0.212449053	 0.120384
H	-0.4089005033	 2.0793902977	-0.7353054194	 0.117188
H	-0.5007945221	 1.8889730504	 1.0267494357	 0.126716
H	 0.486979576	-0.4078239135	 0.8250179079	 0.094678
H	-2.0339560138	 0.0455376805	-0.8186577947	 0.101437
H	-1.4708904223	-1.5366175245	-0.2422499842	 0.080215
H	-2.9540165513	-0.4124653317	 1.2288378361	 0.286192
H	 0.6650010586	-1.533509384	-1.331421417	 0.058286
H	 1.2048348926	-0.9131906345	-3.8892314328	 0.099416
H	 0.9390009097	 0.8282332448	-4.180502657	 0.118956
H	 3.2860976709	-0.205515823	-2.9373059635	 0.105906
H	 2.6769849797	 1.4348390927	-2.5968982041	 0.108865
53.1814	76.7241	105.4035	174.7904	184.5104	227.5225	245.4396	281.3628	308.7532	356.7895	460.2483	668.1304	683.0129	733.1268	840.0656	883.3924	929.3694	932.5071	946.8377	967.2347	1006.9668	1061.5689	1075.1546	1096.6406	1127.5241	1149.8825	1164.5934	1191.3387	1224.6516	1238.3947	1254.5666	1276.719	1321.1918	1345.5199	1374.3239	1380.8031	1387.393	1401.5014	1431.6846	1463.0817	1498.5777	1507.6213	1513.8826	1523.0167	1530.6633	2908.8218	2962.7533	2989.8771	3008.3995	3023.1364	3039.7566	3052.4487	3064.9219	3110.2599	3123.3991	3138.6122	3835.8224
CC(CO)C1OCCO1	C[C@@H](CO)C1OCCO1	
InChI=1S/C6H12O3/c1-5(4-7)6-8-2-3-9-6/h5-7H,2-4H2,1H3	InChI=1S/C6H12O3/c1-5(4-7)6-8-2-3-9-6/h5-7H,2-4H2,1H3/t5-/m0/s1
