19
gdb 38989	2.93344	1.75058	1.26187	1.6088	74.77	-0.2176	0.0765	0.2941	1013.8643	0.161244	-422.986997	-422.97992	-422.978975	-423.01823	29.146	
C	 0.0418901376	 1.4592015105	 0.0488588007	-0.36184
C	 1.3495528626	 0.7032764155	 0.0077858532	-0.006441
O	 1.6396933872	 0.1461716143	 1.2952412934	-0.301579
C	 0.4485761534	-0.696610553	 1.2322640242	 0.058684
C	 0.7918770625	-2.1730120059	 1.0189435386	-0.230122
C	-0.2246631576	-2.8107475883	 0.0569528663	-0.216327
C	-0.2708362071	-2.0271950406	-1.2556864216	-0.075914
O	-0.6946622995	-0.6751656092	-1.0557996551	-0.284315
C	 0.0171031382	-0.0313602057	-0.0727169769	 0.364148
H	-0.2722846716	 1.9650512387	 0.9589884707	 0.111981
H	-0.2074001605	 1.9656385478	-0.879538708	 0.121507
H	 2.1733551173	 0.901549147	-0.6668600525	 0.107036
H	-0.1998614896	-0.5406215934	 2.1029185284	 0.080837
H	 1.7912665113	-2.2193633487	 0.5719523744	 0.113846
H	 0.8370831788	-2.7095472303	 1.9713201401	 0.102117
H	 0.0462366155	-3.8515615744	-0.1513958258	 0.103413
H	-1.2277304056	-2.8199788707	 0.5015216772	 0.109295
H	 0.7225515774	-2.0352726244	-1.7318466306	 0.094362
H	-0.9915686603	-2.4570726792	-1.9556725968	 0.109313
144.522	170.1524	309.0264	386.2465	391.1772	443.8626	464.7536	471.4845	568.7033	645.952	782.5594	818.2574	850.4385	882.484	909.239	914.7503	927.7199	970.3773	975.3676	1013.4307	1021.7688	1065.9465	1084.8719	1091.4035	1123.8392	1133.3196	1199.2894	1207.3839	1218.3159	1271.185	1291.7642	1313.6659	1347.2384	1367.589	1373.0921	1387.5161	1422.4131	1477.7807	1478.9063	1494.5015	1508.2196	2983.0257	3031.332	3033.4662	3044.2778	3078.1194	3093.1566	3098.2828	3104.4025	3188.9947	3202.4527
C1C2OC3CCCOC123	C1[C@H]2O[C@@H]3CCCO[C@]123	
InChI=1S/C7H10O2/c1-2-5-7(8-3-1)4-6(7)9-5/h5-6H,1-4H2	InChI=1S/C7H10O2/c1-2-5-7(8-3-1)4-6(7)9-5/h5-6H,1-4H2/t5-,6-,7+/m1/s1
