19
gdb 77672	2.29143	1.6359	1.34576	1.3674	70.6	-0.2107	0.0529	0.2636	1048.1718	0.157916	-460.142914	-460.133876	-460.132932	-460.176021	34.54	
C	 0.0170143045	 1.6180784395	 0.1274673513	-0.476568
C	 0.1750464635	 0.1292629962	 0.0527815754	 0.311804
O	 0.6028859926	-0.3356565888	-1.2058036057	-0.299252
C	 1.2729164715	-1.5952944486	-1.0449825333	-0.095269
C	 1.7001692429	-1.7104890893	 0.4312556248	-0.300867
C	 0.7652853331	-0.7474192185	 1.1322759259	 0.355554
O	 1.161204766	-0.2798152227	 2.378357119	-0.482565
C	-0.7204955461	-0.8367967996	 0.8338895142	-0.088768
O	-1.5030395981	-0.3381137486	 1.8884768048	-0.431213
H	 0.9514685886	 2.1077790822	-0.1617281446	 0.134173
H	-0.7718930983	 1.971573794	-0.5457935461	 0.12025
H	-0.2256273903	 1.9258871648	 1.147129195	 0.122105
H	 0.5910854925	-2.4108520518	-1.3209456204	 0.101853
H	 2.1167951358	-1.6166047482	-1.7403512495	 0.113279
H	 1.6338668842	-2.7380238349	 0.8002966554	 0.108519
H	 2.7247589938	-1.3577821076	 0.5881581392	 0.121342
H	 0.3474288556	-0.1265046819	 2.8780070162	 0.295723
H	-1.1358139402	-1.7096048291	 0.3294430214	 0.09057
H	-2.1609442214	 0.2668268829	 1.5304232069	 0.299328
129.9078	161.0731	168.0028	198.9101	240.6102	282.5398	304.0364	351.1094	401.5779	415.7542	490.856	532.357	633.9362	686.5823	717.2564	729.9849	861.6408	887.1649	933.0616	968.6899	999.0066	1048.8758	1093.115	1103.1608	1130.5985	1149.0646	1194.5386	1213.823	1233.6013	1253.4684	1285.0495	1332.2096	1344.8171	1381.8291	1408.2895	1425.0034	1451.4582	1480.2789	1494.9166	1506.2372	1529.0946	3008.6562	3037.1458	3051.071	3079.605	3094.5725	3099.6628	3101.014	3129.8462	3751.671	3810.1674
CC12OCCC1(O)C2O	C[C@@]12OCC[C@]1(O)[C@H]2O	
InChI=1S/C6H10O3/c1-5-4(7)6(5,8)2-3-9-5/h4,7-8H,2-3H2,1H3	InChI=1S/C6H10O3/c1-5-4(7)6(5,8)2-3-9-5/h4,7-8H,2-3H2,1H3/t4-,5-,6-/m0/s1
