13
gdb 129188	5.88048	1.07276	0.90725	2.2956	82.94	-0.227	-0.0885	0.1385	1186.3615	0.090571	-411.759084	-411.751702	-411.750757	-411.791247	27.73	
N	-0.0918071687	 1.3406922629	 0.0086134669	-0.555941
C	 0.0285897371	 0.0743904141	 0.0011120781	 0.448186
N	-1.1474510307	-0.6980606109	 0.0038396762	-0.23021
N	-1.2397082013	-2.0133732322	-0.0026980008	-0.206727
C	-0.1052248362	-2.6754897771	-0.0129329976	 0.131107
C	 1.1459804515	-1.9412578124	-0.0163758217	-0.039143
N	 1.2237974906	-0.6544672027	-0.0098984647	-0.285089
C	-0.1190980488	-4.0940800422	-0.0204572869	 0.259582
C	-0.0601135714	-5.2963771067	-0.0272792351	-0.389589
H	 0.8340290079	 1.7644297566	 0.005406922	 0.232415
H	-2.0252658377	-0.1959473299	 0.0117018713	 0.289725
H	 2.0759300032	-2.5087197732	-0.0249056199	 0.138857
H	-0.0285884555	-6.3581230363	-0.0332356678	 0.206829
63.3682	145.4678	195.267	383.9953	420.9215	450.2461	459.1012	538.051	539.1731	595.6466	651.1916	684.2101	722.6419	751.9593	770.2018	835.2687	846.6187	998.2145	1010.6455	1060.9908	1255.1436	1290.8627	1307.4958	1423.9419	1438.3487	1534.8114	1657.9505	1734.2879	2230.6797	3141.5055	3500.984	3519.6351	3597.3003
N=C1NN=C(C=N1)C#C	[NH]c1[nH]nc(cn1)C#C	
InChI=1S/C5H4N4/c1-2-4-3-7-5(6)9-8-4/h1,3H,(H2,6,7,9)	InChI=1S/C5H9N4/c1-2-4-3-7-5(6)9-8-4/h1,4-9H,3H2
