21
gdb 112116	2.08499	1.53219	1.02687	1.7439	80.2	-0.2461	0.0112	0.2572	1226.9804	0.182933	-424.227797	-424.218702	-424.217758	-424.261455	34.722	
C	-0.1477178987	 1.5181034849	-0.1340536675	-0.413211
C	 0.0243138706	 0.0120522139	 0.0096185288	 0.109168
O	 0.7155180315	-0.4417272518	-1.1545492751	-0.262113
C	 0.7072294828	-1.848144196	-1.2911843704	-0.11868
C	 0.9861955822	-2.5716289491	-0.0042742358	-0.069308
C	 1.0246674963	-1.936872872	 1.1656624026	-0.107648
C	 0.7775197087	-0.4493649577	 1.2749717955	-0.048522
C	 2.0992760225	 0.3173114329	 1.4990810945	-0.07328
O	 2.8630012383	-0.2033518467	 2.5765011497	-0.427648
H	 0.8164944138	 2.0148481577	-0.2697152091	 0.131652
H	-0.7650103138	 1.7405472124	-1.0083902854	 0.122005
H	-0.63528274	 1.9371950792	 0.7515109059	 0.115904
H	-0.9739286493	-0.4569435059	 0.0349631893	 0.06735
H	-0.2598259035	-2.1922738253	-1.7045907794	 0.098186
H	 1.4699600668	-2.0883402614	-2.0421760553	 0.116968
H	 1.1331974285	-3.6466685799	-0.0723043121	 0.093133
H	 1.2244689448	-2.4840721534	 2.082906447	 0.096274
H	 0.1358530818	-0.2667007222	 2.147649938	 0.078859
H	 2.6719129305	 0.3160626714	 0.5607444579	 0.101316
H	 1.8920560326	 1.3577242133	 1.7652743862	 0.107804
H	 3.1836280134	-1.0703734243	 2.3085476847	 0.281793
80.406	131.7617	192.6776	197.0696	245.1429	273.3351	306.146	351.5295	381.2643	474.9423	507.314	517.7472	627.1034	727.6819	771.6825	833.1451	852.4682	926.0283	963.7859	988.6111	1005.3686	1036.2524	1043.8056	1073.8924	1086.66	1120.7431	1144.6856	1169.5721	1203.9583	1208.9919	1266.1655	1301.7773	1328.1074	1372.3237	1379.9027	1386.0976	1403.2762	1405.5721	1413.6262	1426.8901	1484.5328	1485.7641	1502.4237	1511.5001	1718.462	2927.7302	2954.1066	3004.1556	3019.5978	3044.5357	3046.136	3088.244	3119.077	3124.6798	3150.1846	3173.0679	3816.5726
CC1OCC=CC1CO	C[C@H]1OCC=C[C@H]1CO	
InChI=1S/C7H12O2/c1-6-7(5-8)3-2-4-9-6/h2-3,6-8H,4-5H2,1H3	InChI=1S/C7H12O2/c1-6-7(5-8)3-2-4-9-6/h2-3,6-8H,4-5H2,1H3/t6-,7+/m1/s1
