20
gdb 68392	2.5101	1.94057	1.42224	1.3472	77.31	-0.2383	0.0761	0.3144	974.5401	0.173872	-403.122127	-403.114933	-403.113989	-403.15305	30.823	
O	-0.1819199172	 1.3760884875	 0.0085767232	-0.501657
C	 0.0252128292	-0.0131023207	 0.0099457216	 0.421978
C	 0.9425638929	-0.6930751477	-1.0545525697	-0.280376
C	 1.1852306125	-1.7872959662	 0.0296695868	-0.023159
C	 0.9035328942	-0.6881695245	 1.095928467	-0.287648
C	 0.0612326639	-2.8404587246	 0.002890464	-0.212417
C	-1.3096986604	-2.1765185525	-0.0833970368	-0.028071
N	-1.7854765875	-1.4476674729	 1.1140110357	-0.33898
C	-1.3350968559	-0.6927613504	-0.0664842863	-0.058385
H	 0.677337359	 1.8043411163	 0.0798770883	 0.272981
H	 0.4974771995	-0.9852473729	-2.0105679939	 0.088922
H	 1.8480645159	-0.1047358035	-1.2347440599	 0.08466
H	 2.1683377889	-2.2612458064	 0.048510307	 0.06186
H	 1.8009901928	-0.0893193252	 1.284853289	 0.076856
H	 0.4263254865	-0.9688687693	 2.0340541851	 0.124025
H	 0.1949199938	-3.4848945081	-0.8746647662	 0.095215
H	 0.1180705513	-3.4856996968	 0.8875497412	 0.105606
H	-2.0603698848	-2.69664178	-0.6727407673	 0.082431
H	-2.8015125113	-1.4644046993	 1.1446581306	 0.229376
H	-2.0684912233	-0.1536706028	-0.6602156994	 0.086783
207.4566	261.7871	299.8496	332.7622	387.2504	405.0795	436.3339	467.45	540.5302	601.482	675.8122	775.1099	840.8407	850.3016	856.759	865.2719	893.5155	908.3753	967.9188	974.9929	1000.2196	1020.3747	1036.1405	1084.1494	1101.4444	1112.3132	1143.1447	1153.5203	1176.2436	1192.1994	1220.7063	1225.4802	1263.0383	1277.1656	1285.7591	1323.4023	1349.0862	1383.9368	1417.895	1450.042	1466.825	1477.5672	1504.2274	3025.3859	3039.9066	3048.8271	3064.5977	3086.7276	3098.4833	3134.083	3142.7612	3149.6681	3503.4558	3813.4855
OC12CC(C1)CC1NC21	O[C@@]12C[C@@H](C1)C[C@H]1N[C@@H]21	
InChI=1S/C7H11NO/c9-7-2-4(3-7)1-5-6(7)8-5/h4-6,8-9H,1-3H2	InChI=1S/C7H11NO/c9-7-2-4(3-7)1-5-6(7)8-5/h4-6,8-9H,1-3H2/t4-,5-,6-,7-/m1/s1
