17
gdb 87050	2.24522	1.44437	1.09498	3.6909	73.01	-0.2728	0.0121	0.2848	1152.3382	0.135095	-417.97059	-417.961745	-417.960801	-418.004394	32.03	
C	-0.307131766	 1.4696879543	 0.4763082614	-0.409191
C	-0.1503121274	-0.0277218477	 0.55045939	-0.037002
N	 0.923643329	-0.6322285184	-0.2449475606	-0.357533
C	 1.0064306868	-0.6926263451	 1.2338875567	 0.131136
C	 2.0586897083	 0.1043187997	 1.8281806709	 0.27519
N	 2.8863873557	 0.7218157734	 2.3479641038	-0.340476
C	 0.8144782025	-2.0260483556	 1.9147878784	-0.024897
C	-0.283055961	-2.2755573539	 2.8562507915	-0.16937
O	-0.3323135788	-2.7633463219	 1.5080331284	-0.231519
H	 0.6653289742	 1.9648261553	 0.4329521369	 0.150778
H	-0.87045877	 1.7411764447	-0.4219536788	 0.131608
H	-0.8530713058	 1.8461663849	 1.3472193451	 0.126466
H	-1.0724976401	-0.6011245423	 0.6175747743	 0.116382
H	 0.632242058	-1.5497458697	-0.5793095841	 0.253655
H	 1.7251690644	-2.6178572601	 2.0099088409	 0.121963
H	-0.1731288605	-3.0414054476	 3.620875896	 0.134935
H	-0.9811678094	-1.4730222701	 3.0843879091	 0.127876
75.383	136.0074	152.6606	166.8221	190.4574	233.1497	336.199	380.9622	475.4743	501.3412	561.8648	614.6142	645.8022	803.9482	856.2211	881.4351	913.6784	960.1966	1012.2562	1034.8862	1073.8847	1087.7158	1104.2737	1148.4535	1162.0353	1173.3069	1244.8536	1269.0701	1304.9534	1332.0084	1411.7865	1427.1377	1446.1629	1486.0658	1496.0887	1523.6531	2356.6378	3043.8384	3099.3446	3109.1052	3113.6446	3128.4513	3145.7398	3193.4025	3484.9432
CC1NC1(C#N)C1CO1	C[C@H]1N[C@]1(C#N)[C@H]1CO1	
InChI=1S/C6H8N2O/c1-4-6(3-7,8-4)5-2-9-5/h4-5,8H,2H2,1H3	InChI=1S/C6H8N2O/c1-4-6(3-7,8-4)5-2-9-5/h4-5,8H,2H2,1H3/t4-,5-,6+/m1/s1
