17
gdb 68158	3.66656	1.46424	1.24605	3.8155	73.85	-0.2304	-0.06	0.1703	1019.4429	0.136218	-421.83418	-421.826731	-421.825787	-421.865723	29.614	
C	-0.0006021535	 1.5497339897	 0.0367094321	-0.491191
C	 0.0060631957	 0.0437512522	-0.0584094453	 0.363015
C	 0.7312889203	-0.6849308271	-1.2306471153	-0.291597
C	 1.0959345117	-1.666721691	-0.0919311827	-0.03262
O	 0.9498337535	-0.5875927398	 0.8714598081	-0.31892
C	-0.0527726435	-2.6604259128	 0.1374696911	 0.406315
O	 0.0871730636	-3.8627274497	 0.1498180307	-0.331488
C	-1.3557944058	-1.9581233635	 0.2937998056	-0.188105
C	-1.3440449235	-0.6256843005	 0.1577294202	-0.067773
H	 1.0079534789	 1.9445885072	-0.1065391106	 0.131303
H	-0.6586608586	 1.979157599	-0.7261667941	 0.125189
H	-0.360982845	 1.8705176911	 1.0196075272	 0.136809
H	 0.1342462298	-1.0409528995	-2.0714128585	 0.115025
H	 1.606483532	-0.1307850088	-1.5764488598	 0.115535
H	 2.0716377732	-2.15381699	-0.0644198191	 0.09684
H	-2.2479760024	-2.5497031658	 0.4669996851	 0.118268
H	-2.2456231565	-0.0208540508	 0.1916290455	 0.113396
119.7055	202.6819	264.6814	286.6426	345.5296	422.3293	442.0598	462.0021	476.7318	652.2106	680.191	719.4431	763.5363	824.1461	854.263	903.915	912.9121	935.1008	992.4354	999.4293	1015.4689	1045.7939	1117.6317	1135.1163	1206.5041	1222.2764	1249.9814	1261.8366	1288.3425	1304.2647	1384.937	1410.2282	1478.2479	1486.0642	1494.0607	1654.8553	1805.7305	3038.5436	3072.3433	3107.3142	3113.6762	3127.0634	3140.2072	3170.1699	3202.2325
CC12CC(O1)C(=O)C=C2	C[C@@]12C[C@@H](O1)C(=O)C=C2	
InChI=1S/C7H8O2/c1-7-3-2-5(8)6(4-7)9-7/h2-3,6H,4H2,1H3	InChI=1S/C7H8O2/c1-7-3-2-5(8)6(4-7)9-7/h2-3,6H,4H2,1H3/t6-,7-/m1/s1
