22
gdb 60069	2.29977	1.09936	0.95737	3.9489	86.59	-0.2816	0.0365	0.3181	1392.2549	0.192946	-367.229561	-367.219402	-367.218457	-367.264878	37.652	
C	 0.786283653	-0.3810814977	-1.2831425239	-0.392735
C	-0.1759280322	-0.3290299217	-0.0887110759	 0.032639
C	-1.2923316297	-1.3711951102	-0.2388436695	-0.387161
C	 0.6127735266	-0.4857016383	 1.2255534046	-0.270854
C	-0.1954435696	-0.3030754624	 2.5089842149	 0.180269
C	-0.8268216237	-1.508696364	 3.1945167953	-0.280306
C	 0.3690088896	-0.8519645384	 3.8130414237	-0.305686
C	-0.9167882077	 0.9428210099	 2.6048887379	 0.249714
N	-1.4905396896	 1.9461422957	 2.6673739294	-0.358263
H	 1.2861350715	-1.3555772003	-1.3442436533	 0.110622
H	 0.2507943863	-0.2249891419	-2.2248481158	 0.115143
H	 1.5625403916	 0.387563112	-1.2074804536	 0.113874
H	-0.6420811412	 0.6653996724	-0.0747835421	 0.101593
H	-0.8835663389	-2.3893928691	-0.2383725403	 0.10591
H	-2.0270253842	-1.3021559233	 0.5678482527	 0.123954
H	-1.8254170612	-1.2313268112	-1.1845892504	 0.115944
H	 1.0745571357	-1.4812830431	 1.2602876156	 0.096426
H	 1.4368858133	 0.238567553	 1.2315101031	 0.111456
H	-1.7908228018	-1.3732815372	 3.6701350807	 0.139314
H	-0.6951605348	-2.4630403212	 2.6980625759	 0.129969
H	 1.3299963418	-1.3495915927	 3.7439402398	 0.128137
H	 0.225378575	-0.2637882905	 4.7112791012	 0.140042
47.1079	88.8692	130.4787	196.0664	224.2225	226.8624	255.6811	301.9386	312.6785	357.9448	423.5032	439.6953	573.1849	587.628	703.7918	786.1674	813.4406	862.2443	905.3759	924.1173	934.6912	955.9641	968.6545	977.0558	996.6838	1067.1356	1092.0381	1133.1498	1142.9741	1194.3937	1196.6694	1246.7103	1284.5811	1324.3196	1339.9098	1374.646	1388.6965	1402.1951	1424.0953	1465.6261	1477.4111	1487.8056	1494.329	1497.614	1505.6267	1510.4557	2345.353	3014.2845	3019.219	3023.3083	3030.5525	3059.1021	3088.2251	3094.5923	3103.2317	3113.5413	3142.3557	3146.0651	3227.6622	3241.4602
CC(C)CC1(CC1)C#N	CC(C)CC1(CC1)C#N	
InChI=1S/C8H13N/c1-7(2)5-8(6-9)3-4-8/h7H,3-5H2,1-2H3	InChI=1S/C8H13N/c1-7(2)5-8(6-9)3-4-8/h7H,3-5H2,1-2H3
