17
gdb 64783	4.57428	0.68472	0.66696	2.2149	90.49	-0.2437	-0.0144	0.2293	1697.5647	0.132451	-384.619839	-384.61026	-384.609316	-384.654872	34.865	
C	 0.0304563042	 1.5572345775	-0.4693372394	-0.460244
C	-0.0361014901	 0.0866648544	-0.1289734401	 0.423454
C	-1.3924682793	-0.4416529309	 0.3469566535	-0.457281
C	-1.9172807808	 0.2603969696	 1.5093452334	 0.393113
C	-2.3516247355	 0.8492253017	 2.473199379	-0.249246
C	-2.8416681377	 1.5093742404	 3.5576204523	 0.294271
C	-3.2776712671	 2.0957090057	 4.5190073513	-0.550937
C	 0.8913786246	-0.8674683053	-0.7531654979	-0.229357
O	 1.0828331607	-0.430111161	 0.5955991333	-0.261669
H	 1.0422472027	 1.8293450846	-0.7778611596	 0.129299
H	-0.6621787308	 1.8002869684	-1.2824806397	 0.121388
H	-0.2436103421	 2.1630679033	 0.3992585614	 0.146087
H	-2.1125725158	-0.3656683798	-0.479679208	 0.139125
H	-1.2871938367	-1.5077694156	 0.5790170787	 0.144197
H	-3.6591729825	 2.610108664	 5.3656808967	 0.191047
H	 0.6035368807	-1.91199326	-0.8697836521	 0.11172
H	 1.6275205855	-0.5092224468	-1.4715317128	 0.115032
45.1781	69.6726	149.3402	196.1412	197.9165	324.2931	342.579	354.3285	370.7358	395.2066	488.7291	531.6009	538.4614	590.5469	596.9939	731.4013	749.6271	839.6386	889.8829	927.8902	933.1536	1042.0771	1103.7419	1134.3672	1163.3484	1177.3435	1217.9706	1278.0713	1318.7602	1400.8709	1424.4384	1447.8018	1482.4401	1496.7284	1532.4572	2182.7979	2364.9491	3014.8252	3041.2639	3063.3917	3078.55	3108.9426	3131.3257	3164.0711	3505.4238
CC1(CC#CC#C)CO1	C[C@@]1(CC#CC#C)CO1	
InChI=1S/C8H8O/c1-3-4-5-6-8(2)7-9-8/h1H,6-7H2,2H3	InChI=1S/C8H8O/c1-3-4-5-6-8(2)7-9-8/h1H,6-7H2,2H3/t8-/m1/s1
