14
gdb 61101	2.39837	1.25167	1.03839	3.1603	70.2	-0.3495	-0.0343	0.3151	1157.3369	0.099416	-395.759801	-395.750565	-395.74962	-395.794074	31.971	
C	-0.0287106363	 1.5618832816	-0.0439235312	-0.41304
C	 0.0104729198	 0.0119962704	-0.0347460826	-0.107176
C	 0.777984549	-0.5374428217	 1.2179535327	-0.352467
C	 2.1419193112	-0.02582012	 1.3049330509	 0.27981
N	 3.2151686863	 0.3943726962	 1.3769066475	-0.286213
C	-1.3643468009	-0.5175903025	 0.026838167	 0.301594
N	-2.4447007791	-0.9142050614	 0.1174188921	-0.307098
C	 0.655665248	-0.4802172205	-1.2658994432	 0.317871
N	 1.1780827634	-0.85202451	-2.2257153715	-0.304286
H	 0.9898653105	 1.9527080992	-0.0805872933	 0.176661
H	-0.5814344132	 1.9201646831	-0.9135010151	 0.167263
H	-0.5226015378	 1.9199423552	 0.8623983179	 0.152664
H	 0.2233549105	-0.2426635069	 2.1142177122	 0.183039
H	 0.7976751586	-1.6303271725	 1.1862276066	 0.19138
70.8935	116.2545	134.0386	186.5985	192.4538	235.3442	273.0227	332.2441	390.4664	462.007	497.9179	521.6092	584.5544	603.2756	713.1845	883.4859	923.5307	963.7419	980.2054	1087.6207	1160.218	1186.7818	1282.6739	1344.1102	1415.0053	1460.1405	1486.187	1494.9824	2366.6698	2370.1155	2372.5624	3062.0039	3066.1873	3113.7783	3147.489	3157.1598
CC(CC#N)(C#N)C#N	CC(CC#N)(C#N)C#N	
InChI=1S/C6H5N3/c1-6(4-8,5-9)2-3-7/h2H2,1H3	InChI=1S/C6H5N3/c1-6(4-8,5-9)2-3-7/h2H2,1H3
