15
gdb 129916	3.31664	1.64847	1.1042	3.3336	74.33	-0.1815	0.0177	0.1991	1020.8694	0.1167	-413.00518	-412.997575	-412.996631	-413.03699	28.933	
N	 0.0731716274	 1.4567749176	 0.1388575772	-0.616222
C	 0.0389759076	 0.0471996289	 0.0229643465	 0.063939
C	-1.0616936874	-0.7869675204	-0.0241084228	-0.128002
N	-0.6650554327	-2.1191254107	-0.0590911122	-0.433109
C	 0.7087146612	-2.1497081853	-0.0324879594	 0.254639
C	 1.162278891	-0.8316449313	 0.0203849699	 0.378881
N	 2.5233222305	-0.9088983005	 0.0338524106	-0.375977
N	 2.9566650958	-2.1957024836	 0.0143756251	-0.222986
C	 1.8643910866	-2.9586186307	-0.0330861405	-0.136719
H	 0.5565771181	 1.887992472	-0.6432915677	 0.238465
H	-0.8623735414	 1.8448807086	 0.1693201237	 0.237426
H	-2.1091998557	-0.5265434252	-0.0324449042	 0.108968
H	-1.2858053839	-2.9053518925	-0.0138450639	 0.259626
H	 3.2007625997	-0.1756183316	 0.1387385338	 0.267009
H	 1.9659703033	-4.0325719853	-0.0650255761	 0.104062
152.0829	172.8828	202.0409	248.9037	271.3827	347.5873	432.4407	536.6372	602.1929	619.1477	656.2866	691.7724	713.6296	743.4884	813.0087	839.7971	843.525	973.0081	1084.4485	1090.5972	1105.1748	1156.0941	1246.5723	1268.7276	1315.2702	1362.4595	1385.7559	1425.3922	1516.4473	1527.9696	1605.5348	1634.8307	1656.1012	3247.8131	3250.3985	3493.675	3588.5622	3696.9677	3706.9112
NC1=CNC2=C1NN=C2	Nc1c[nH]c2c1[nH]nc2	
InChI=1S/C5H6N4/c6-3-1-7-4-2-8-9-5(3)4/h1-2,7H,6H2,(H,8,9)	InChI=1S/C5H6N4/c6-3-1-7-4-2-8-9-5(3)4/h1-2,7H,6H2,(H,8,9)
