22
gdb 70865	2.6372	1.61905	1.21126	1.5261	86.75	-0.2314	0.0935	0.3249	1139.0876	0.192875	-367.184925	-367.175716	-367.174772	-367.217977	35.983	
C	-0.1132454211	 1.470085277	 0.0339597411	-0.501115
C	 0.1143259916	-0.0100630984	-0.0338296085	 0.301431
C	 0.0489363726	-0.8599993456	-1.2932912969	-0.332777
C	-0.2125219889	-2.0272381322	-0.3207180986	 0.359868
C	-1.0780720616	-3.1974379144	-0.6863176986	-0.496631
C	 1.1084079525	-2.1908567577	 0.4571495945	-0.332771
C	 0.7673554793	-0.8303755367	 1.0451075355	 0.301394
C	 1.2838664206	-0.2849225105	 2.3423833856	-0.501117
N	-0.7075368392	-0.9992663051	 0.7604610859	-0.272192
H	 0.7397284389	 2.0156257535	-0.3866212697	 0.118628
H	-1.0054319845	 1.74745607	-0.5376492145	 0.122853
H	-0.2596078375	 1.811288933	 1.0618482802	 0.12763
H	-0.8456457769	-0.6149103776	-1.8751513407	 0.098611
H	 0.9179090282	-0.9172798929	-1.959002961	 0.087417
H	-0.5882786096	-3.814222926	-1.4493976528	 0.117697
H	-1.2735699436	-3.8280504549	 0.1869704501	 0.122991
H	-2.0410363604	-2.8630565262	-1.0855769493	 0.122934
H	 1.0291992988	-2.9699738741	 1.222401471	 0.098612
H	 2.0372571887	-2.3233773894	-0.1096332087	 0.087419
H	 2.335215889	 0.0120045278	 2.2498461425	 0.118625
H	 0.71353774	 0.5873932608	 2.6713082784	 0.127652
H	 1.2158489831	-1.0420585305	 3.1309174148	 0.122841
145.9336	155.6129	187.3546	197.5988	205.48	271.1921	282.6388	351.114	402.27	441.0529	464.0096	584.9865	589.2917	659.1166	733.3164	762.3736	809.0486	862.8725	918.2777	938.3185	963.3366	970.1363	1021.7977	1035.0815	1053.5683	1095.5421	1120.5361	1154.5962	1176.3664	1182.6638	1199.2836	1260.306	1272.0286	1345.5935	1347.8909	1403.0821	1413.4796	1413.8859	1430.0055	1476.8742	1480.2512	1485.5001	1486.5941	1487.6767	1492.4715	1500.8092	1513.6734	3023.2028	3025.2199	3028.7682	3029.1435	3033.9167	3081.2193	3083.6593	3089.0193	3090.0761	3094.2414	3104.7411	3112.3807	3121.8849
CC12CC3(C)CC1(C)N23	C[C@@]12C[C@@]3(C)C[C@]1(C)N23	
InChI=1S/C8H13N/c1-6-4-7(2)8(3,5-6)9(6)7/h4-5H2,1-3H3	InChI=1S/C8H13N/c1-6-4-7(2)8(3,5-6)9(6)7/h4-5H2,1-3H3/t6-,7+,8-,9?
