17
gdb 37298	3.17564	1.83624	1.73059	2.9908	69.86	-0.2324	0.0553	0.2877	856.638	0.137253	-421.716778	-421.710513	-421.709569	-421.747168	26.163	
C	 0.0144881255	 1.5671884319	 0.1175124351	-0.085754
O	 1.4663652261	 1.55355537	 0.0756350041	-0.28812
C	 1.497677426	 0.1234020314	 0.0232477244	 0.113701
C	-0.0542410162	 0.0271429349	 0.0033981683	-0.104277
C	 0.0099355325	-0.6881541468	-1.3909442273	-0.067779
C	 0.0039055163	 0.0622083825	-2.7510213719	-0.01107
O	 0.6363087277	 1.3297186562	-2.5964267527	-0.217114
C	 1.4821974846	 0.1897695005	-2.72480885	 0.022936
C	 1.5659660256	-0.5772924163	-1.3808298224	-0.099903
H	-0.336760444	 1.9386173538	 1.0884540337	 0.093932
H	-0.4195981596	 2.1609553793	-0.6872267195	 0.122754
H	 2.1394501378	-0.3115322901	 0.7961427386	 0.075497
H	-0.6296316682	-0.496147088	 0.7666267561	 0.078419
H	-0.4549944031	-1.6737052154	-1.4299526995	 0.077492
H	-0.690041501	-0.0422228855	-3.5778463064	 0.106662
H	 2.2093406865	 0.2142891396	-3.5285030267	 0.108831
H	 2.1724709837	-1.482909668	-1.4324837538	 0.073792
175.7696	231.8972	291.2834	362.1622	501.9818	652.3882	682.974	695.6222	769.9547	810.8887	823.5826	828.5929	841.8998	909.4379	911.4321	934.1039	951.4515	993.5834	1011.1979	1028.8309	1045.2784	1057.6688	1091.8787	1106.133	1158.1328	1174.4387	1199.5516	1217.6927	1227.5868	1245.5202	1266.6206	1275.7786	1314.2565	1332.0961	1361.3484	1383.7895	1508.5994	3021.3621	3050.8466	3098.7799	3104.4207	3116.388	3122.7044	3171.0381	3186.161
C1OC2C1C1C3OC3C21	C1O[C@H]2[C@@H]1[C@H]1[C@H]3O[C@H]3[C@@H]21	
InChI=1S/C7H8O2/c1-2-3-4(5(2)8-1)7-6(3)9-7/h2-7H,1H2	InChI=1S/C7H8O2/c1-2-3-4(5(2)8-1)7-6(3)9-7/h2-7H,1H2/t2-,3+,4+,5-,6+,7-/m0/s1
