23
gdb 86414	2.34009	1.54587	1.16029	1.5917	84.19	-0.254	0.0723	0.3263	1170.4055	0.20823	-388.294077	-388.285701	-388.284757	-388.32646	34.334	
C	-0.9251735301	 1.1944379459	 0.3087447005	-0.406817
C	-0.0032372852	 0.0079610152	 0.0074192244	 0.029644
C	 0.8500377846	 0.279113705	-1.2577930523	-0.226128
C	 2.189199774	-0.4928966836	-1.300458388	 0.126029
O	 3.1364310199	 0.1680647433	-2.1324505903	-0.439707
C	 2.7141311489	-0.7324339711	 0.1243084509	-0.030844
C	 1.7057294117	-1.6330772252	 0.8850705559	-0.240178
C	 0.919317415	-0.3321964709	 1.1965325493	 0.006644
C	 2.2821299368	 0.4159431778	 1.0849546629	-0.245359
H	-0.3436247316	 2.0874887382	 0.5674387752	 0.112943
H	-1.5470342648	 1.4445432572	-0.557565726	 0.111764
H	-1.5924243419	 0.9758613753	 1.1491599039	 0.110337
H	-0.6355806079	-0.8725973625	-0.1718652383	 0.070543
H	 0.2730303847	 0.0997895992	-2.1700311846	 0.099821
H	 1.1024832834	 1.3478335101	-1.2750747628	 0.086361
H	 2.0523611176	-1.4691116254	-1.7809167833	 0.085126
H	 3.2935845865	 1.0421003267	-1.7580400619	 0.273119
H	 3.7650737917	-1.0285850849	 0.0912827299	 0.064659
H	 1.1905837574	-2.4161276796	 0.31739929	 0.085859
H	 2.1489652107	-2.0731169341	 1.7824005205	 0.093572
H	 0.37802284	-0.2770232733	 2.1451474679	 0.054489
H	 2.8376556671	 0.3759208147	 2.0253329823	 0.097646
H	 2.2905844816	 1.4481621722	 0.7198164641	 0.080476
121.4806	167.6238	243.0089	257.7803	301.0121	336.4945	395.2766	417.3885	423.622	478.3976	543.3628	567.4015	748.0432	801.8816	830.969	868.2713	904.1812	922.3451	932.3579	942.966	975.5062	1017.349	1032.5315	1057.1235	1060.1163	1074.1128	1091.172	1121.2562	1135.4665	1159.9401	1177.2891	1233.67	1248.7593	1261.7561	1271.9421	1283.7608	1318.0148	1329.0665	1337.0303	1356.9755	1371.6766	1386.8438	1410.721	1432.9324	1477.521	1491.6664	1497.3178	1500.0429	1517.3585	3001.1465	3018.8532	3024.0309	3034.1695	3038.6442	3045.4934	3064.0446	3079.3474	3082.2337	3090.2205	3096.2806	3096.9321	3101.6006	3796.6574
CC1CC(O)C2CC1C2	C[C@H]1C[C@@H](O)[C@@H]2C[C@H]1C2	
InChI=1S/C8H14O/c1-5-2-8(9)7-3-6(5)4-7/h5-9H,2-4H2,1H3	InChI=1S/C8H14O/c1-5-2-8(9)7-3-6(5)4-7/h5-9H,2-4H2,1H3/t5-,6-,7+,8+/m0/s1
