22
gdb 15909	2.39728	1.95074	1.23125	1.03	78.87	-0.2399	0.077	0.3169	1085.3884	0.198982	-350.192473	-350.183044	-350.1821	-350.226308	34.695	
C	 0.0171512173	 1.4005126981	-0.128683592	-0.236953
O	 0.0135677495	 0.0165915024	 0.1410384407	-0.242668
C	-1.2616238045	-0.5867151519	 0.06754391	 0.106095
C	-1.5653889126	-1.286439611	-1.3034453615	 0.024884
C	-0.8923386603	-0.7823107751	-2.570511297	-0.413754
C	-1.0627207327	-2.619430237	-0.6814479277	-0.247969
C	-1.2318711463	-1.9951509493	 0.7309250595	 0.018045
C	-0.194132203	-2.2798440983	 1.8047627369	-0.404678
H	 1.0411785968	 1.7550182036	 0.0160048185	 0.124014
H	-0.2919786314	 1.6308493741	-1.1577142875	 0.107712
H	-0.647190267	 1.9449768988	 0.560377821	 0.104869
H	-2.0231174588	 0.1143535602	 0.4388476386	 0.049044
H	-2.6519736833	-1.3273995001	-1.4415965687	 0.06592
H	 0.1775686228	-0.6288530993	-2.4014323387	 0.124899
H	-1.0039902355	-1.5107721434	-3.3814782936	 0.11114
H	-1.3234358584	 0.1635243318	-2.9173591004	 0.107815
H	-1.6245419763	-3.5295597638	-0.9075724292	 0.088735
H	-0.0070927097	-2.7932709157	-0.9156903724	 0.10025
H	-2.2358577049	-2.2156971716	 1.1108934546	 0.068897
H	 0.8053874752	-2.0007371694	 1.462849507	 0.128252
H	-0.4014192541	-1.716647857	 2.7213405196	 0.108938
H	-0.1880742627	-3.3450725461	 2.0610722126	 0.106511
73.7713	116.8399	166.229	196.0254	202.418	238.8563	249.6978	308.4753	350.6149	378.9838	483.7259	560.0779	640.1107	764.0909	840.3855	891.1703	902.5796	933.1355	962.214	973.8181	1020.8385	1096.9039	1113.466	1149.9602	1158.6005	1169.518	1182.2784	1194.6087	1226.852	1247.1968	1268.7259	1275.6258	1306.7193	1350.177	1377.1305	1391.7525	1404.2204	1410.8424	1479.1657	1485.8042	1487.151	1489.8808	1497.6612	1499.536	1503.3901	1513.9687	2977.9347	2989.5673	3026.2852	3030.9841	3035.1763	3037.4351	3042.6598	3046.9064	3087.1304	3091.3731	3100.3537	3108.7476	3110.1526	3123.2464
COC1C(C)CC1C	CO[C@H]1[C@@H](C)C[C@H]1C	
InChI=1S/C7H14O/c1-5-4-6(2)7(5)8-3/h5-7H,4H2,1-3H3	InChI=1S/C7H14O/c1-5-4-6(2)7(5)8-3/h5-7H,4H2,1-3H3/t5-,6+,7-
