18
gdb 107603	2.72125	1.53398	1.1266	3.1571	71.57	-0.2227	-0.0254	0.1973	1087.8969	0.14898	-439.082206	-439.074088	-439.073144	-439.114893	31.217	
O	-0.0429081314	 1.416176279	 0.4672543843	-0.420419
C	 0.0554392016	 0.060131271	 0.0781551278	-0.165549
C	-1.3059527385	-0.5779643784	-0.0786971871	 0.188487
C	-2.068855766	-1.17765803	 1.1105215261	-0.318627
C	-1.6873542236	-2.0588489882	-0.0224280585	-0.06552
N	-2.7373923817	-2.3682683594	-0.9862563821	-0.302651
C	-3.2309212645	-1.0841400542	-1.5134123376	-0.295507
C	-2.2068149756	-0.0055148042	-1.1146614564	 0.360721
O	-2.1219525788	 1.1048335071	-1.5948876322	-0.351445
H	-0.5927068023	 1.8411471869	-0.2054885797	 0.296985
H	 0.6156256602	-0.0441867607	-0.8655400202	 0.090503
H	 0.6297051622	-0.4552942504	 0.8558644346	 0.102947
H	-1.4880244212	-1.2496837752	 2.0234908641	 0.133793
H	-3.1126899572	-0.9233012488	 1.2620782468	 0.128385
H	-0.943954887	-2.8342099369	 0.1213298592	 0.106291
H	-2.3254155142	-2.8976384354	-1.7463267619	 0.229741
H	-3.3571626735	-1.1065432522	-2.5981439138	 0.139449
H	-4.2071569684	-0.82013674	-1.0855398331	 0.142416
105.1166	121.6214	168.2692	233.0167	273.8215	363.1691	427.6012	476.6654	536.0488	550.4511	635.5621	681.3441	690.9238	796.7652	827.8473	884.4282	918.7761	938.6816	978.3314	1010.4488	1040.0945	1053.6595	1065.2361	1084.6006	1098.5247	1154.4775	1196.6048	1216.4338	1275.4467	1301.9471	1336.4883	1382.8949	1399.852	1451.0669	1456.2106	1475.0187	1492.2816	1506.201	1803.1484	2968.8434	3026.2115	3062.7056	3107.0562	3132.5206	3183.866	3220.8069	3532.9827	3750.5848
OCC12CC1NCC2=O	OC[C@]12C[C@H]1NCC2=O	
InChI=1S/C6H9NO2/c8-3-6-1-4(6)7-2-5(6)9/h4,7-8H,1-3H2	InChI=1S/C6H9NO2/c8-3-6-1-4(6)7-2-5(6)9/h4,7-8H,1-3H2/t4-,6-/m1/s1
