18
gdb 85411	2.07261	1.7124	1.04616	4.6711	75.48	-0.2215	0.0067	0.2282	1170.8012	0.147686	-439.153569	-439.144781	-439.143837	-439.187155	32.758	
C	 0.3904611265	 1.34227475	-0.2047471849	-0.385227
C	-0.1956745199	-0.0323559061	 0.1282088244	 0.073269
O	-0.0509917142	-0.8998427857	-1.0302950712	-0.258297
C	 1.0239164659	-1.6965770374	-1.1922660175	 0.461502
O	 1.2725333056	-2.2132256041	-2.250847752	-0.384502
N	 1.7908729602	-1.9060395298	-0.0574435568	-0.434861
C	 1.3848656174	-1.5414462054	 1.232964728	 0.375056
C	 2.1163167774	-2.2117534443	 2.3549001952	-0.493462
C	 0.3991586065	-0.6519516571	 1.3584710533	-0.215035
H	 1.4752555088	 1.2778970437	-0.331098255	 0.128769
H	-0.0518351329	 1.7316866615	-1.1260212883	 0.131955
H	 0.1824834021	 2.0440787611	 0.6091555885	 0.118794
H	-1.2813147626	 0.0615415271	 0.2375291728	 0.105174
H	 2.5071767243	-2.6039191141	-0.1798397137	 0.260519
H	 1.9881887049	-3.300318671	 2.3168261998	 0.138876
H	 3.1925552267	-2.0079560419	 2.2970391879	 0.138191
H	 1.7531204895	-1.8546219671	 3.3197423066	 0.141154
H	 0.0366109939	-0.3459733093	 2.3307572329	 0.098125
79.2349	118.7841	144.0837	188.9023	247.4443	297.6548	358.8654	439.5994	473.1157	508.2937	532.3879	554.0601	627.9134	701.8561	757.095	773.6307	860.7157	901.9443	959.1985	1015.6746	1041.1743	1067.2963	1067.9807	1107.4723	1150.4884	1210.5632	1253.4482	1338.042	1357.9446	1401.491	1410.6481	1416.9953	1467.1474	1476.7993	1485.1897	1492.1482	1498.5642	1758.7073	1849.812	3025.8072	3039.2175	3049.1034	3076.1296	3115.1418	3123.8786	3139.0712	3218.2399	3647.9147
CC1OC(=O)NC(C)=C1	C[C@H]1OC(=O)NC(=C1)C	
InChI=1S/C6H9NO2/c1-4-3-5(2)9-6(8)7-4/h3,5H,1-2H3,(H,7,8)	InChI=1S/C6H9NO2/c1-4-3-5(2)9-6(8)7-4/h3,5H,1-2H3,(H,7,8)/t5-/m1/s1
