12
gdb 8796	5.28902	1.14806	0.94882	2.9184	52.49	-0.2478	-0.1304	0.1174	1110.1693	0.079307	-455.613392	-455.604661	-455.603717	-455.64828	28.121	
O	 0.0052619398	 1.42523862	 0.009788588	-0.396378
C	-0.0027361352	 0.0254171886	 0.0024584922	-0.17006
C	-1.4370155231	-0.4618975683	 0.0129167914	 0.278266
O	-2.4072170665	 0.2554291443	 0.0255550301	-0.254685
C	-1.6115468371	-1.9900086057	 0.0063921634	 0.201636
O	-0.6652764794	-2.7360317506	-0.0061595611	-0.244757
C	-3.0657896366	-2.5247228167	 0.0169785436	 0.08764
O	-3.277389872	-3.7066905173	 0.013714476	-0.205386
H	 0.9207199584	 1.7195568542	 0.0025427804	 0.30056
H	 0.4866172169	-0.4141511741	-0.8832943155	 0.133627
H	 0.5025527536	-0.423427024	 0.8745174718	 0.133627
H	-3.8645069888	-1.7633603406	 0.0273842798	 0.13591
34.257	61.0332	99.6584	154.3306	233.8482	274.7743	317.8786	345.0098	356.9656	506.1919	600.1715	750.0914	845.3685	883.5642	935.3166	1036.1671	1137.7537	1200.3523	1234.5999	1252.5673	1392.4781	1444.9981	1478.2824	1802.9348	1812.0562	1829.5716	2968.6862	2988.4647	2995.7103	3838.6607
OCC(=O)C(=O)C=O	OCC(=O)C(=O)C=O	
InChI=1S/C4H4O4/c5-1-3(7)4(8)2-6/h1,6H,2H2	InChI=1S/C4H4O4/c5-1-3(7)4(8)2-6/h1,6H,2H2
