21
gdb 63520	3.29822	1.05221	0.96139	2.9434	83.89	-0.24	-0.0191	0.221	1319.9951	0.179758	-387.094867	-387.085433	-387.084489	-387.129013	36.166	
C	 0.0305264664	 1.5232390572	-0.1660006963	-0.453356
C	 0.0063833915	 0.0101521918	-0.0583809978	 0.283985
C	-1.1704520227	-0.6451099653	-0.7564369997	-0.453358
C	 1.3330355867	-0.7234941248	-0.0625376962	-0.391068
C	 0.530816106	-0.6245825052	 1.2059567486	 0.317299
C	 0.9646355828	 0.0902401537	 2.5025650267	-0.427262
C	 0.401362717	-1.1167442933	 3.2766559637	 0.407508
O	 0.3709951723	-1.4151465071	 4.4342680242	-0.289346
C	-0.0847223894	-1.8044166795	 1.9866430208	-0.427261
H	 0.900298054	 1.9530977299	 0.3392461679	 0.116926
H	 0.0671740783	 1.8374032122	-1.2155643274	 0.117759
H	-0.8680412332	 1.9680066112	 0.2787244963	 0.114621
H	-1.1728427601	-0.4014321768	-1.8251938731	 0.11776
H	-1.1423029766	-1.7347864323	-0.6649573823	 0.116926
H	-2.1237105351	-0.2990844484	-0.3386005711	 0.114621
H	 1.385056501	-1.6888113015	-0.558007169	 0.108522
H	 2.2445159282	-0.1370503919	-0.1354782197	 0.108522
H	 2.0388119327	 0.2490741055	 2.6441840078	 0.129037
H	 0.4455831865	 1.0282854575	 2.7290800833	 0.129565
H	-1.1751085172	-1.8979631881	 1.9322494273	 0.129564
H	 0.353899051	-2.7931324448	 1.8157835359	 0.129037
45.7457	156.3852	171.0539	206.9331	210.5584	265.559	351.811	368.3751	415.5219	423.3584	429.4496	508.8632	526.1963	681.3764	684.8843	718.4818	861.5351	892.7809	900.9914	925.4431	970.0612	991.2453	1007.8685	1045.6119	1054.9433	1064.7504	1080.8267	1149.5301	1178.4611	1182.1949	1202.2023	1205.3217	1247.9355	1297.1429	1406.351	1409.7577	1424.4327	1429.555	1449.305	1481.112	1489.1241	1492.2893	1500.1178	1516.0591	1896.8793	3019.4572	3024.0574	3039.6328	3045.0452	3077.8382	3081.297	3089.9873	3091.7904	3102.7835	3104.6181	3113.205	3196.6238
CC1(C)CC11CC(=O)C1	CC1(C)CC21CC(=O)C2	
InChI=1S/C8H12O/c1-7(2)5-8(7)3-6(9)4-8/h3-5H2,1-2H3	InChI=1S/C8H12O/c1-7(2)5-8(7)3-6(9)4-8/h3-5H2,1-2H3
