15
gdb 128596	2.73302	1.57009	1.00359	1.2827	74.69	-0.2236	-0.0539	0.1698	1114.8486	0.113971	-450.091693	-450.08394	-450.082996	-450.124112	28.821	
C	-0.0493120602	 1.3649766672	 0.0731018766	-0.253507
O	 0.0084939958	-0.0535338063	-0.009170895	-0.226988
C	 0.6126984048	-0.592293397	-1.0686005314	 0.328478
C	 1.1937831134	 0.07241505	-2.1044462296	-0.112378
N	 1.8067711744	-0.5523300175	-3.1781701152	-0.209889
N	 1.8500049304	-1.8155097385	-3.2364295039	-0.05338
N	 1.2825208887	-2.5210648574	-2.2240201019	-0.315384
C	 0.6296000083	-2.056327717	-1.0775249144	 0.357075
N	 0.1116771941	-2.7695949536	-0.1526091041	-0.538734
H	 0.956842423	 1.7992944487	 0.1053933372	 0.137621
H	-0.6000837956	 1.786962676	-0.7757808599	 0.13762
H	-0.5760057135	 1.5887136379	 1.0005641521	 0.152
H	 1.2160350066	 1.1522736275	-2.1592229149	 0.122956
H	 1.3666676736	-3.5189716345	-2.3583453607	 0.26825
H	 0.2249512063	-3.7677267854	-0.3384153448	 0.20626
106.727	136.5845	214.9495	227.3301	278.4501	348.3483	451.6724	513.4906	534.2368	591.9488	608.182	684.9983	768.0202	774.9188	819.2004	895.9091	925.2261	1046.4608	1059.3164	1107.6144	1166.4024	1176.2814	1223.4711	1282.9633	1323.2532	1392.1982	1446.9357	1483.402	1492.0062	1502.5932	1547.5994	1627.9739	1720.023	3019.1756	3085.5377	3154.2416	3223.0449	3458.5309	3608.4478
COC1=CN=NNC1=N	COc1cnn[nH]c1[NH]	
InChI=1S/C4H6N4O/c1-9-3-2-6-8-7-4(3)5/h2H,1H3,(H2,5,6,7)	InChI=1S/C4H11N4O/c1-9-3-2-6-8-7-4(3)5/h3-8H,2H2,1H3
