21
gdb 95449	2.89499	1.22214	1.00951	1.7115	85.68	-0.2329	0.0103	0.2432	1262.4361	0.183121	-387.085699	-387.076941	-387.075997	-387.119308	33.262	
C	 0.7076578611	 1.6064193936	-0.3155208177	-0.394573
C	 0.1051564334	 0.2535610065	 0.1129782927	-0.094987
C	 0.2118216904	-0.8043398177	-1.0182518725	-0.220848
C	 1.5162415521	-1.5863498671	-0.7222021634	-0.253484
C	 1.6816135529	-1.382894528	 0.7629997389	-0.184915
C	 0.8973309676	-0.4081840349	 1.2345440378	 0.372385
C	 0.7945288683	-0.0455087332	 2.6614742121	-0.038412
C	 0.2394043126	 1.219803517	 3.1762173087	-0.190103
O	-0.5377754826	 0.0304047754	 3.2173907007	-0.235235
H	 1.7339604418	 1.4780081046	-0.6767342582	 0.116537
H	 0.1177782144	 2.0488744808	-1.1251253369	 0.11384
H	 0.7389329908	 2.3274325429	 0.505828091	 0.112089
H	-0.9366829281	 0.4114134593	 0.4127014473	 0.084526
H	-0.6381462336	-1.4910909747	-0.9563017252	 0.104777
H	 0.1976440261	-0.3531813285	-2.0145514615	 0.091789
H	 1.4426713201	-2.6443096971	-0.9973357448	 0.104811
H	 2.3771359947	-1.1869704783	-1.2773282217	 0.106754
H	 2.3655482218	-1.969838849	 1.3680134861	 0.088165
H	 1.4966377141	-0.5700518409	 3.3106330793	 0.087419
H	 0.5844398089	 1.5931329121	 4.1406558966	 0.113131
H	-0.1148716169	 1.9844305173	 2.4885246907	 0.116334
71.8642	123.8841	164.5337	185.5903	218.1012	274.1679	341.1173	385.3574	421.5746	609.6296	649.4763	680.8196	774.4781	810.8771	822.1116	862.4019	889.2838	912.6506	938.2413	969.1118	990.6767	1004.5029	1049.6123	1091.4452	1098.881	1109.2608	1153.1573	1169.4283	1181.6622	1195.4809	1245.5234	1270.5099	1286.0843	1314.601	1322.6482	1353.1365	1367.6902	1407.6905	1423.9062	1481.1789	1491.928	1499.4866	1501.059	1524.9644	1704.4867	3005.3207	3032.9591	3040.3519	3050.7501	3061.2047	3082.0103	3096.0177	3099.6126	3103.055	3111.3903	3172.9082	3181.016
CC1CCC=C1C1CO1	C[C@H]1CCC=C1[C@H]1CO1	
InChI=1S/C8H12O/c1-6-3-2-4-7(6)8-5-9-8/h4,6,8H,2-3,5H2,1H3	InChI=1S/C8H12O/c1-6-3-2-4-7(6)8-5-9-8/h4,6,8H,2-3,5H2,1H3/t6-,8+/m0/s1
