25
gdb 122348	3.04167	0.76997	0.71954	0.881	90.42	-0.2318	0.0813	0.313	1775.367	0.226586	-389.479726	-389.46839	-389.467445	-389.516905	40.53	
C	 0.3202242874	 1.3238409837	 0.2987122282	-0.382218
C	-0.1604130298	-0.0259982596	-0.2395178534	-0.184204
C	 0.8336684734	-0.6532687592	-1.2064958152	-0.034659
O	 0.3032303828	-1.8868984711	-1.6643577818	-0.250463
C	 1.1213265372	-2.5314936327	-2.5901174532	 0.102773
C	 2.1624218195	-3.5268328938	-2.1100529195	-0.05431
C	 2.4086168396	-3.7570785595	-0.6342415695	-0.407713
C	 0.8848340215	-4.0006079998	-2.7945346442	-0.067415
C	-0.2153206013	-4.728929835	-2.051343004	-0.400256
H	 1.2694869743	 1.224599164	 0.8367450572	 0.1161
H	 0.4733045879	 2.0453655906	-0.511522051	 0.116145
H	-0.4095180227	 1.7534066592	 0.9910007269	 0.116968
H	-0.3319093295	-0.7250906135	 0.5873110745	 0.104675
H	-1.1210602485	 0.0890207858	-0.7544837382	 0.107019
H	 1.0111026225	 0.0190723942	-2.0632787331	 0.084241
H	 1.8063913146	-0.812326489	-0.7149259267	 0.089954
H	 1.3611932184	-1.9172360568	-3.460297848	 0.074898
H	 3.0587634381	-3.588876398	-2.7228452615	 0.076468
H	 1.535743804	-3.4892443387	-0.0351287863	 0.129221
H	 2.6498070285	-4.8059503625	-0.4284022209	 0.11337
H	 3.25088644	-3.1517999761	-0.2812982898	 0.111353
H	 1.0182312469	-4.3421936984	-3.818202938	 0.080183
H	-0.4202267438	-4.2737947268	-1.0813662812	 0.131541
H	-1.1472664793	-4.7020633176	-2.6261784969	 0.115736
H	 0.0465020984	-5.7806428496	-1.8916473245	 0.110594
56.5589	63.9501	96.6799	139.5736	154.6558	168.1558	202.737	213.0347	233.1895	279.4166	348.9045	384.109	468.6229	587.496	605.1256	750.0161	764.9205	775.8671	878.1033	900.403	912.3478	957.6449	968.25	1010.1562	1048.9516	1052.3594	1092.3051	1114.3588	1138.5479	1150.3465	1159.3164	1182.3042	1190.29	1197.9743	1263.3436	1268.0344	1314.5692	1331.9484	1367.2077	1369.0129	1411.637	1412.8651	1418.4301	1424.0229	1463.9429	1488.8892	1491.6629	1494.2425	1500.5871	1505.3814	1507.5861	1515.3704	1525.9214	2958.148	2994.2174	3031.2836	3031.8854	3036.6018	3037.8683	3070.7606	3073.571	3083.5344	3089.7628	3099.7458	3108.0056	3116.3695	3127.2542	3133.6396	3145.9603
CCCOC1C(C)C1C	CCCO[C@H]1[C@@H](C)[C@H]1C	
InChI=1S/C8H16O/c1-4-5-9-8-6(2)7(8)3/h6-8H,4-5H2,1-3H3	InChI=1S/C8H16O/c1-4-5-9-8-6(2)7(8)3/h6-8H,4-5H2,1-3H3/t6-,7+,8-
