20
gdb 120796	3.60829	0.73964	0.67245	4.7487	81.05	-0.2606	0.0417	0.3023	1707.9066	0.169414	-403.145263	-403.135341	-403.134397	-403.181356	35.138	
C	-0.239098513	 1.4977147585	 0.1059425406	-0.386868
C	-0.3393536631	 0.0273803985	 0.470351475	-0.035806
O	-1.09422014	-0.6337697427	-0.5387016448	-0.250139
C	-1.252838666	-1.9959958398	-0.3130908305	 0.105188
C	-2.3604277476	-2.4681939036	 0.5989746975	-0.314921
C	-2.4749339183	-2.635538354	-0.903148961	-0.044318
C	-3.450776737	-1.7745682122	-1.6900334525	-0.358222
C	-4.8275164106	-2.2620748357	-1.5991318394	 0.264739
N	-5.9112008259	-2.6561811656	-1.5237043579	-0.311623
H	 0.3422720124	 2.0361564341	 0.8600748419	 0.12029
H	 0.2504370318	 1.6216851134	-0.8640322651	 0.129701
H	-1.2337114378	 1.9492437827	 0.0485811667	 0.127109
H	 0.6621792983	-0.4259770367	 0.5404397071	 0.092892
H	-0.8256739347	-0.1047005039	 1.4486266251	 0.096764
H	-0.3224673907	-2.5657203448	-0.3288288666	 0.09309
H	-2.2081655033	-3.3488287043	 1.2124387077	 0.12166
H	-2.9758620476	-1.6984339942	 1.053154678	 0.127076
H	-2.3539059394	-3.6418316042	-1.2909697343	 0.107907
H	-3.4086206792	-0.7441223613	-1.32625298	 0.162659
H	-3.1635036781	-1.7411950742	-2.7475220677	 0.152822
45.1749	70.7744	97.7324	114.7176	161.556	243.8849	257.9196	313.3887	383.6106	393.8553	489.5957	522.4122	585.1332	782.8136	819.845	828.3218	875.5204	888.559	937.9548	948.2404	1016.4895	1041.8909	1059.0351	1083.6588	1128.7365	1146.9573	1149.8059	1184.8815	1190.8023	1248.2179	1249.388	1294.6504	1318.5312	1369.9713	1401.2683	1411.2827	1438.9854	1467.2667	1484.0854	1488.2163	1499.6184	1527.9443	2361.9695	2977.0771	3010.2016	3046.0523	3048.9343	3089.0259	3100.7874	3120.6328	3123.1729	3135.7681	3162.68	3225.1045
CCOC1CC1CC#N	CCO[C@H]1C[C@H]1CC#N	
InChI=1S/C7H11NO/c1-2-9-7-5-6(7)3-4-8/h6-7H,2-3,5H2,1H3	InChI=1S/C7H11NO/c1-2-9-7-5-6(7)3-4-8/h6-7H,2-3,5H2,1H3/t6-,7+/m1/s1
