21
gdb 37791	2.41114	2.07226	1.59977	0.5007	86.12	-0.2164	0.0278	0.2443	953.1754	0.187848	-349.97571	-349.968997	-349.968053	-350.006333	29.002	
C	-0.1112668891	 1.4873787914	 0.110668329	-0.228077
C	 1.2293656197	 2.1968261565	 0.0374071592	-0.055238
C	 2.3146577611	 1.1949988031	 0.3289366539	-0.055237
C	 1.6663098073	-0.1534855558	 0.5881794707	-0.228077
C	 0.2122349363	-0.0317098031	 0.052971327	-0.028344
C	 0.0565886059	-0.6114689732	-1.3598460796	-0.259903
C	 0.9200999017	 0.0158991641	-2.4186935367	-0.070407
C	 1.8017140995	 1.0108334496	-2.2817146834	-0.049589
C	 2.186597665	 1.7797278081	-1.0722007661	-0.067599
H	-0.5956269461	 1.7412132215	 1.0609006841	 0.094153
H	-0.7977401071	 1.7848802438	-0.6898448273	 0.099812
H	 1.2949201035	 3.2197177406	 0.3936696713	 0.076202
H	 3.1940070081	 1.4666939347	 0.9037887544	 0.076202
H	 2.202265376	-0.9844000062	 0.1160505817	 0.099811
H	 1.6636022032	-0.3442545089	 1.6677992677	 0.094154
H	-0.4724160452	-0.5838632695	 0.7042855896	 0.068413
H	 0.2602681889	-1.6927508069	-1.3299335546	 0.098379
H	-0.9971967814	-0.5320453845	-1.6677065962	 0.098379
H	 0.79777097	-0.4064172773	-3.414665484	 0.07899
H	 2.3297925913	 1.3212110861	-3.1811624305	 0.079103
H	 2.9391508415	 2.5335153258	-1.2834374601	 0.078871
158.5853	258.4781	314.1923	393.3286	407.0714	500.8767	511.6721	650.9117	719.2628	738.7402	774.2312	779.3017	793.2463	849.2779	895.9803	900.8073	908.1072	922.5408	990.279	998.2203	1010.4293	1031.3617	1051.0463	1064.0128	1088.475	1100.8244	1114.6076	1191.8863	1194.7537	1210.8155	1215.1477	1260.0957	1280.2026	1319.5263	1321.0446	1352.4224	1367.2203	1368.9485	1400.4947	1433.1082	1441.7833	1474.6888	1489.7415	1503.1399	1725.5245	2985.4121	3004.0307	3028.8155	3029.9517	3054.0521	3068.6041	3071.4583	3124.8165	3140.6559	3151.2168	3154.0927	3166.3943
C1C2C3CC1CC=CC23	C1[C@H]2[C@H]3C[C@@H]1CC=C[C@@H]23	
InChI=1S/C9H12/c1-2-6-4-8-7(3-1)9(8)5-6/h1,3,6-9H,2,4-5H2	InChI=1S/C9H12/c1-2-6-4-8-7(3-1)9(8)5-6/h1,3,6-9H,2,4-5H2/t6-,7+,8-,9+
