20
gdb 63075	3.13158	1.36773	1.29888	1.8391	77.76	-0.2185	0.0744	0.2929	1073.2623	0.171516	-403.098798	-403.090682	-403.089737	-403.130906	32.782	
C	-0.10532412	 1.5961862676	-0.0303718489	-0.465291
C	 0.0329144096	 0.0895950799	 0.0497598386	 0.380791
O	-1.159538743	-0.563299679	-0.341375601	-0.466428
C	 1.2829858693	-0.6914332285	-0.2985067398	-0.128699
C	 2.6831666187	-0.0813450066	-0.1495067678	-0.204747
N	 3.0291093946	-0.0016086114	 1.2945810113	-0.095001
C	 2.3667261334	 1.0647915484	 2.0586253925	-0.268015
C	 1.7947557009	-0.3063273373	 2.0540087333	-0.0317
C	 0.7031229346	-0.7504222037	 1.1130727118	-0.080684
H	 0.8495925192	 2.1200377692	-0.0782196427	 0.127347
H	-0.6462783724	 1.845685196	-0.9511623733	 0.105345
H	-0.6836557884	 1.9940806246	 0.8089048248	 0.132362
H	-1.3042496322	-0.371942014	-1.2752711815	 0.277738
H	 1.1594339683	-1.5259390948	-0.9814227265	 0.088322
H	 3.4115480007	-0.7419338682	-0.6295197027	 0.113647
H	 2.7874336746	 0.9033305491	-0.6215118718	 0.102165
H	 2.9293398591	 1.405122284	 2.9252079777	 0.111848
H	 1.8514396213	 1.8592956076	 1.5351889824	 0.109637
H	 1.918361634	-0.9280658853	 2.9372050286	 0.090229
H	 0.1197484277	-1.6090977574	 1.423431195	 0.101134
132.2994	153.2243	247.8074	264.1397	289.2759	354.9005	391.4548	416.9926	445.2354	558.5908	662.7955	683.0447	721.1934	756.5787	792.4535	847.9715	872.8134	933.4589	957.7769	985.0838	986.8466	1018.0273	1033.3807	1056.3387	1082.2793	1106.5804	1115.3292	1123.1636	1157.8391	1172.7519	1224.6986	1273.64	1290.1403	1292.3616	1322.5246	1341.263	1384.8624	1418.8585	1434.5269	1483.1802	1496.3397	1508.1631	1520.3562	3030.3821	3033.1088	3073.559	3092.9759	3114.7495	3134.939	3139.8418	3157.5044	3186.0184	3226.3283	3787.0361
CC1(O)C2CN3CC3C12	C[C@@]1(O)[C@H]2CN3C[C@H]3[C@@H]12	
InChI=1S/C7H11NO/c1-7(9)4-2-8-3-5(8)6(4)7/h4-6,9H,2-3H2,1H3	InChI=1S/C7H11NO/c1-7(9)4-2-8-3-5(8)6(4)7/h4-6,9H,2-3H2,1H3/t4-,5-,6-,7+,8?/m0/s1
