19
gdb 71827	2.56728	1.99858	1.37208	1.1323	79.83	-0.2172	0.0144	0.2316	979.4219	0.159543	-385.861389	-385.853696	-385.852752	-385.892765	31.846	
C	-0.0789670209	 1.5214825528	 0.0317899453	-0.500583
C	-0.0362208137	 0.0216704892	-0.0106735261	 0.307594
C	 0.7070148049	-0.8025890459	-1.0582444148	-0.276831
C	-0.2318417618	-2.0305009345	-0.7210086894	-0.114765
C	 0.4516748859	-2.8179123842	 0.3782982334	-0.086146
C	 0.4704069129	-2.0776157498	 1.4909163582	-0.174286
C	-0.3113011582	-0.8257165218	 1.2607580168	 0.341797
O	-0.7869265244	-0.0811180988	 2.338575963	-0.48428
C	-1.1547358824	-1.0121590032	 0.0209049614	-0.194036
H	 0.9211772932	 1.9326110095	 0.214582022	 0.118613
H	-0.4367363254	 1.932718321	-0.9192165804	 0.110625
H	-0.734382952	 1.8721977823	 0.831593514	 0.136866
H	 0.4875671191	-0.4115217289	-2.0560190812	 0.100358
H	 1.7867785635	-0.9562257211	-0.952444992	 0.087899
H	-0.6167769546	-2.5958668188	-1.5682166969	 0.068946
H	 0.9901027052	-3.7421347283	 0.2074939524	 0.096494
H	 0.9946778809	-2.2827098362	 2.4161105229	 0.097156
H	-1.4502500972	-0.6124421329	 2.7924991897	 0.282703
H	-2.2331469853	-0.9025916805	-0.0182106583	 0.081876
184.8344	199.8125	259.9841	294.3108	345.3318	370.6143	392.8161	404.9621	562.0363	605.563	626.8327	702.7658	735.0378	770.385	806.8381	859.8971	873.6567	910.5677	925.9243	938.5844	952.6163	960.3649	1011.7337	1070.1451	1085.5715	1122.2714	1160.1282	1180.298	1190.9349	1222.0767	1236.6029	1272.697	1299.7542	1325.0937	1368.7143	1405.5932	1416.0373	1487.7812	1493.2056	1496.4009	1642.2365	3024.6948	3033.9979	3077.8582	3092.7135	3119.7882	3128.5803	3170.1651	3196.7406	3221.961	3793.8348
CC12CC3C=CC1(O)C23	C[C@@]12C[C@H]3C=C[C@]1(O)[C@@H]23	
InChI=1S/C8H10O/c1-7-4-5-2-3-8(7,9)6(5)7/h2-3,5-6,9H,4H2,1H3	InChI=1S/C8H10O/c1-7-4-5-2-3-8(7,9)6(5)7/h2-3,5-6,9H,4H2,1H3/t5-,6-,7+,8+/m1/s1
