22
gdb 7008	2.5013	1.80169	1.44968	1.4962	77.41	-0.2488	0.0695	0.3183	1019.9059	0.198464	-350.206431	-350.196981	-350.196037	-350.239473	36.298	
C	-0.8680119764	 1.1734450105	-0.0883819987	-0.415262
C	 0.0703253761	-0.0239068135	-0.1430806415	 0.020153
C	 1.4574162323	 0.128154435	-0.8259818277	-0.300416
C	 2.0282703343	-0.8447662329	 0.2322983531	 0.137395
O	 3.3384463273	-0.6839034887	 0.7178374848	-0.435527
C	 0.7934562169	-0.5449833836	 1.1527744144	 0.277541
C	 1.1038564296	 0.5565711604	 2.1702853957	-0.455597
C	 0.1620394423	-1.7488390343	 1.8448266641	-0.45991
H	-0.3801194625	 2.0557936745	 0.3381147457	 0.111504
H	-1.2104609301	 1.4421770205	-1.0939718837	 0.114778
H	-1.7576899902	 0.9594517484	 0.5147420686	 0.113787
H	-0.4598469645	-0.8692463738	-0.5976874068	 0.068579
H	 1.5541417186	-0.1422178759	-1.8801967928	 0.097239
H	 1.8595181132	 1.1395429758	-0.6911348533	 0.087889
H	 1.9802787306	-1.8782813925	-0.1258917408	 0.083813
H	 3.4522870562	 0.23756283	 0.9718727989	 0.278165
H	 1.5220656041	 1.4577870205	 1.7078067698	 0.102016
H	 0.2004593842	 0.8624346757	 2.7079401322	 0.117157
H	 1.8266168748	 0.195987349	 2.9098664103	 0.12176
H	 0.8250817474	-2.1520191565	 2.6193295408	 0.117945
H	-0.785718384	-1.4820407191	 2.3280183608	 0.109089
H	-0.0436273603	-2.5532498095	 1.1301604459	 0.107904
107.4697	186.5108	210.0421	228.2542	231.2688	242.5488	284.0135	305.4881	317.8185	369.3132	447.0722	486.6569	532.2776	576.101	702.0089	772.412	865.1261	903.3978	939.8805	955.6182	972.2291	1001.2321	1028.3936	1068.5517	1090.6957	1158.4726	1159.5513	1186.2151	1198.0669	1245.3717	1257.6949	1274.5654	1310.3322	1326.627	1375.601	1400.33	1408.0549	1418.1128	1440.9254	1485.2424	1486.4822	1490.6852	1495.3549	1496.9401	1507.3301	1512.1586	3016.8603	3024.7141	3025.1757	3030.6223	3037.0886	3058.7748	3081.3723	3087.4487	3088.2612	3090.4274	3097.4384	3099.8011	3104.2087	3815.036
CC1CC(O)C1(C)C	C[C@H]1C[C@@H](O)C1(C)C	
InChI=1S/C7H14O/c1-5-4-6(8)7(5,2)3/h5-6,8H,4H2,1-3H3	InChI=1S/C7H14O/c1-5-4-6(8)7(5,2)3/h5-6,8H,4H2,1-3H3/t5-,6+/m0/s1
