12
gdb 9578	4.64924	1.33044	1.26953	3.6168	61.09	-0.3083	-0.0208	0.2875	935.9008	0.08283	-377.52142	-377.513831	-377.512887	-377.553345	27.021	
O	-0.0330509995	 1.3796629883	-0.0603002325	-0.423016
C	 0.0157428675	-0.0027993907	 0.0142105534	 0.255658
C	-0.4465464835	-0.6932251297	 1.2769152316	-0.33078
C	-1.3413485317	-0.7027687917	 0.0506103184	-0.2235
C	-2.530800204	 0.1019972246	 0.0236338884	 0.318309
N	-3.5044657216	 0.7241981936	 0.0026201321	-0.319304
C	 1.0587407647	-0.6348723491	-0.7707012108	 0.25146
N	 1.9086667417	-1.1278028015	-1.3798188722	-0.324147
H	 0.7227290135	 1.7449583006	 0.4152409104	 0.308619
H	 0.017576583	-1.6288174553	 1.5637340233	 0.158108
H	-0.7343430925	-0.0326002432	 2.0858225536	 0.161169
H	-1.4129755175	-1.6336439158	-0.5005627656	 0.167424
108.3126	128.9255	187.284	251.8184	302.0672	360.3427	382.3651	493.8913	550.5051	577.8834	620.8486	716.3077	803.0071	875.6588	919.6856	1006.7702	1052.6137	1081.1412	1131.0351	1233.2506	1256.5807	1346.967	1397.6919	1465.8649	2354.5598	2367.2749	3152.7444	3183.3738	3254.3388	3794.9416
OC1(CC1C#N)C#N	O[C@]1(C[C@H]1C#N)C#N	
InChI=1S/C5H4N2O/c6-2-4-1-5(4,8)3-7/h4,8H,1H2	InChI=1S/C5H4N2O/c6-2-4-1-5(4,8)3-7/h4,8H,1H2/t4-,5+/m0/s1
