17
gdb 81150	2.47459	1.69692	1.24947	6.1016	72.94	-0.2422	0.0131	0.2553	1023.2355	0.137499	-417.981133	-417.973324	-417.97238	-418.013259	30.375	
N	 0.2538516837	 1.4403494771	 0.1656061	-0.531288
C	 0.0780824304	 0.016474728	 0.0291297562	 0.012171
C	-1.3653094761	-0.6287347308	-0.0523245406	-0.130812
C	-1.3855062992	-0.189448009	-1.549562758	-0.293017
C	 0.1167543123	-0.5665174783	-1.4247682369	 0.346417
O	 0.08418421	-1.9824728378	-1.1985506562	-0.317268
C	-0.9750292979	-2.0987162298	-0.2077573233	-0.081182
C	 1.1175886594	-0.199394129	-2.4036114054	 0.212553
N	 1.9003641868	 0.1420840708	-3.1813406286	-0.338749
H	-0.4568806694	 1.9738766124	-0.3226154643	 0.23492
H	 0.2080628318	 1.7065403249	 1.1431274798	 0.240126
H	 0.7779769398	-0.4874515127	 0.7009679409	 0.099189
H	-2.1603357287	-0.3751905365	 0.6472590406	 0.083186
H	-1.970269476	-0.7778301102	-2.2589274931	 0.12165
H	-1.5630604976	 0.8751348539	-1.700187371	 0.117904
H	-0.5743565769	-2.5451759153	 0.7089155629	 0.111707
H	-1.7747746925	-2.7366535377	-0.5995714929	 0.112492
127.4293	149.5727	172.7437	281.0345	316.2047	355.2815	465.204	489.631	539.2684	555.335	605.1264	639.5544	789.301	843.0608	854.9661	915.2116	918.2132	944.8326	959.2061	994.414	1031.5525	1066.9702	1104.477	1139.5483	1157.4676	1190.2832	1208.5077	1219.4496	1249.9688	1265.0427	1299.1357	1356.7721	1431.9753	1493.6608	1530.4974	1662.2992	2367.0931	3031.9999	3074.5394	3082.1089	3086.0031	3134.0724	3150.1214	3512.87	3592.9029
NC1C2CC1(OC2)C#N	N[C@H]1[C@H]2C[C@@]1(OC2)C#N	
InChI=1S/C6H8N2O/c7-3-6-1-4(2-9-6)5(6)8/h4-5H,1-2,8H2	InChI=1S/C6H8N2O/c7-3-6-1-4(2-9-6)5(6)8/h4-5H,1-2,8H2/t4-,5-,6+/m0/s1
