15
gdb 126455	4.55867	0.96922	0.83683	1.4378	78.1	-0.2721	-0.0589	0.2132	1351.7742	0.11171	-416.784914	-416.776559	-416.775615	-416.818555	29.968	
C	 0.1315099123	 1.5517253618	 0.0270864982	-0.380858
C	-0.0950838109	 0.0356693123	-0.0815418027	-0.305887
C	 0.6230767913	-0.5643865674	-1.2453679363	 0.340754
N	-0.0006289495	-1.1621200163	-2.2302824322	-0.1535
O	 1.0250380799	-1.5596290998	-3.0879996865	-0.19842
C	 2.1720995387	-1.1494590425	-2.5152071268	 0.270177
N	 1.9934369494	-0.5315724377	-1.3826047311	-0.34817
C	 3.385090954	-1.4270343	-3.1821766574	 0.249414
C	 4.4112035616	-1.668926506	-3.7587870317	-0.343717
H	 1.1976773339	 1.7782904451	 0.1084701807	 0.143759
H	-0.2613150844	 2.0705172794	-0.8523549671	 0.128813
H	-0.3747242777	 1.9484314453	 0.9112867766	 0.121297
H	 0.2642365761	-0.4551412696	 0.8302729099	 0.130287
H	-1.1592035058	-0.1943454037	-0.1808494131	 0.131975
H	 5.321910691	-1.8803831908	-4.2642879506	 0.214076
58.3342	108.2836	140.3831	197.5811	216.0116	333.2234	392.4708	462.4577	543.0229	562.0936	654.9133	689.3394	695.1492	740.2379	776.2597	806.4614	936.5368	975.8444	1017.8573	1057.8235	1081.9733	1103.5684	1260.3947	1280.046	1344.2498	1383.3772	1411.5289	1475.0369	1496.972	1505.1729	1541.1606	1592.2489	2252.3582	3045.5147	3048.2578	3100.3865	3119.6764	3130.733	3497.8935
CCC1=NOC(=N1)C#C	CCc1noc(n1)C#C	
InChI=1S/C6H6N2O/c1-3-5-7-6(4-2)9-8-5/h2H,3H2,1H3	InChI=1S/C6H6N2O/c1-3-5-7-6(4-2)9-8-5/h2H,3H2,1H3
