19
gdb 77372	2.64452	1.65068	1.35905	2.0634	74.66	-0.2311	0.0817	0.3128	1034.7648	0.157747	-422.976106	-422.967646	-422.966702	-423.008494	33.221	
C	 0.005165719	 1.5116269835	 0.0666872729	-0.516969
C	 0.0458682054	 0.0178184094	-0.0440464894	 0.236919
C	-0.8928989204	-0.9319340373	 0.7066108757	 0.039556
O	-1.0038685594	-2.149625658	-0.0426423696	-0.343377
C	 0.4520595438	-2.0471670942	-0.2475575002	 0.360897
C	 1.1306049324	-3.3596543342	-0.4741801657	-0.516203
C	 0.5738464627	-1.0324257079	 0.9451317596	-0.253948
C	 0.5205571973	-0.8378229425	-1.2255541004	 0.092248
O	-0.2480746348	-0.9149095318	-2.3907396051	-0.450726
H	 0.9944019337	 1.9523496006	-0.1003451139	 0.122796
H	-0.6792137152	 1.9352741974	-0.6763924749	 0.133998
H	-0.3372910043	 1.8320626113	 1.056704756	 0.118739
H	-1.7183959658	-0.6236958762	 1.3348591251	 0.108944
H	 0.7647907808	-3.8109014228	-1.4025264714	 0.13915
H	 2.2119169991	-3.2182519889	-0.5651294573	 0.125796
H	 0.9337620826	-4.0515720642	 0.3493125909	 0.132268
H	 1.2017778642	-0.970337535	 1.8225850543	 0.100735
H	 1.5501769997	-0.5969790063	-1.5060894629	 0.085597
H	-1.0773882708	-1.3293467329	-2.1125247438	 0.283582
174.308	181.5796	188.3778	213.0849	225.2698	253.958	339.2366	390.9827	526.1818	560.273	590.4971	611.2337	722.1777	763.926	784.6408	825.4141	840.0927	884.4423	897.8981	924.632	965.0069	1000.0315	1056.4958	1076.4542	1100.8052	1122.8144	1141.9253	1156.4227	1183.9865	1253.95	1277.6984	1298.8421	1343.3635	1405.6722	1413.2837	1427.1257	1449.1225	1477.7194	1486.5718	1488.2596	1498.4109	3025.4303	3039.2189	3080.2043	3088.1298	3094.2902	3110.6239	3119.1067	3202.4987	3218.6886	3742.5747
CC12C3OC(C)(C13)C2O	C[C@]12[C@H]3O[C@](C)([C@@H]13)[C@H]2O	
InChI=1S/C7H10O2/c1-6-3-4(6)9-7(3,2)5(6)8/h3-5,8H,1-2H3	InChI=1S/C7H10O2/c1-6-3-4(6)9-7(3,2)5(6)8/h3-5,8H,1-2H3/t3-,4+,5+,6-,7-/m1/s1
