20
gdb 64092	3.25256	1.22527	1.12451	5.2825	74.97	-0.2499	0.0523	0.3022	1170.8719	0.171677	-440.345351	-440.336322	-440.335378	-440.378819	34.206	
C	-0.0137334528	 1.53648745	 0.0215126417	-0.428879
C	-0.0410312236	 0.0028047936	-0.010218642	 0.206376
C	-1.493627602	-0.5037537193	 0.0019509808	-0.414924
C	 0.7114455567	-0.5068662197	-1.2504218178	-0.165005
N	 1.0434652759	-1.9139061446	-1.0942860319	-0.367382
C	 1.0874957415	-2.6429887524	 0.0638818661	 0.453851
O	 1.3437113664	-3.8209423514	 0.0981825915	-0.394438
O	 0.7865875197	-1.9740357707	 1.2102698894	-0.246641
C	 0.7307698191	-0.5444479934	 1.1951224445	-0.076658
H	 1.0109787474	 1.9208820349	 0.0629053558	 0.118138
H	-0.4923313278	 1.9525345097	-0.8712741768	 0.121751
H	-0.5534754335	 1.9186492674	 0.8939968387	 0.122341
H	-2.0474301456	-0.0990829223	-0.8515865856	 0.113527
H	-1.5471167707	-1.5937055748	-0.0452510391	 0.142523
H	-2.0058012915	-0.1839567973	 0.9153371814	 0.118049
H	 0.0941087542	-0.3813495303	-2.1479182321	 0.110962
H	 1.6225031348	 0.0920697256	-1.3983726094	 0.103321
H	 1.2894842447	-2.4543822695	-1.9073498403	 0.257728
H	 1.7539051625	-0.1429148169	 1.2039927819	 0.106651
H	 0.2495958645	-0.2655177785	 2.1366202633	 0.11871
83.2174	119.4187	198.6303	224.7571	228.1589	274.0895	327.2529	369.8965	407.6167	462.349	486.4401	517.4427	588.9127	708.1893	762.4391	809.7781	844.1033	916.0476	943.0411	946.5522	959.733	1039.6526	1054.8334	1081.4701	1127.9377	1201.8549	1224.9241	1249.4244	1273.215	1306.7282	1335.2145	1393.0478	1405.1004	1417.0754	1438.1419	1477.9318	1485.8437	1486.8793	1503.6743	1507.3897	1514.7398	1528.713	1844.9524	2984.4535	3009.0699	3030.2535	3038.7999	3045.1558	3090.0386	3098.9044	3101.0314	3104.856	3127.1187	3651.1083
CC1(C)CNC(=O)OC1	CC1(C)CNC(=O)OC1	
InChI=1S/C6H11NO2/c1-6(2)3-7-5(8)9-4-6/h3-4H2,1-2H3,(H,7,8)	InChI=1S/C6H11NO2/c1-6(2)3-7-5(8)9-4-6/h3-4H2,1-2H3,(H,7,8)
