17
gdb 42977	2.77009	1.69026	1.26994	4.1061	72.26	-0.2388	-0.0267	0.2121	1003.3486	0.136675	-421.821067	-421.813716	-421.812772	-421.852937	28.818	
O	 0.0911056751	 0.0823751011	 0.2598146137	-0.330411
C	 0.0099703734	 1.2720189773	 0.0861485412	 0.358799
C	-1.2155821639	 2.0753462663	-0.188162889	-0.153531
C	-1.4155290438	 3.2783964465	 0.7333970147	-0.286737
C	-0.7671992555	 3.4750363024	-0.5956858448	-0.048416
C	 0.7607578203	 3.5219123994	-0.6163779016	-0.329772
C	 1.1976744955	 2.2342890201	 0.0691616664	 0.32059
C	 2.2506185015	 2.1091555	 1.0957658789	-0.233369
O	 2.4687236298	 1.6775627091	-0.2403792732	-0.259934
H	-2.0856854294	 1.576349779	-0.593953478	 0.113676
H	-2.442174122	 3.6042715637	 0.855226676	 0.12941
H	-0.815719476	 3.348880057	 1.6355013094	 0.126003
H	-1.3089992595	 4.0116898961	-1.3652755161	 0.101251
H	 1.1259456197	 3.5052991325	-1.6490141098	 0.129487
H	 1.1600635513	 4.4212800987	-0.1373317694	 0.112581
H	 2.7955597324	 3.0019999898	 1.4011488473	 0.117659
H	 2.177575111	 1.3119772209	 1.833903124	 0.132715
78.8772	194.2041	254.9121	272.8573	352.9942	373.0676	449.789	562.5372	596.0263	680.2715	766.2675	795.993	834.1042	853.927	883.5349	907.1221	944.0937	958.4182	971.4948	1030.8002	1069.3146	1095.4669	1106.3866	1133.1743	1144.168	1172.7814	1190.598	1209.6139	1247.3123	1291.7859	1328.5833	1373.7635	1409.5634	1485.4252	1495.3045	1512.2269	1839.0536	3045.7635	3079.2731	3086.9253	3131.3652	3175.156	3182.4554	3205.3713	3221.0486
O=C1C2CC2CC11CO1	O=C1[C@H]2C[C@H]2C[C@]21CO2	
InChI=1S/C7H8O2/c8-6-5-1-4(5)2-7(6)3-9-7/h4-5H,1-3H2	InChI=1S/C7H8O2/c8-6-5-1-4(5)2-7(6)3-9-7/h4-5H,1-3H2/t4-,5-,7+/m0/s1
