20
gdb 62991	2.25911	1.61681	1.28025	3.9761	80.73	-0.2308	0.0305	0.2613	1092.0735	0.169616	-403.145351	-403.13633	-403.135386	-403.178868	34.325	
C	-0.0892227897	 1.5316496225	 0.0898724058	-0.436411
C	-0.0332065846	 0.0125978496	-0.0356611876	 0.289661
C	-1.4123931511	-0.6198619155	 0.1524201324	-0.425196
C	 0.722498741	-0.5929245816	-1.2491464761	-0.113434
C	 2.1956764494	-0.2663181846	-1.2351407018	-0.312971
C	 1.6611241339	-1.295021738	-0.2776111233	-0.014354
N	 0.9796296333	-0.6574642834	 0.8310538493	-0.057666
C	 1.309912773	-0.4814030547	 2.1285049033	 0.12669
O	 0.6931672446	 0.2058525846	 2.9207973102	-0.346135
H	 0.8854629332	 1.9898445707	-0.0948527696	 0.114811
H	-0.8014819322	 1.9379028599	-0.6355261748	 0.114671
H	-0.4086107244	 1.8117870446	 1.0960151783	 0.155938
H	-2.1081433163	-0.2437930184	-0.6054243114	 0.115104
H	-1.3576965595	-1.7084963302	 0.0626074882	 0.117055
H	-1.8076904212	-0.3719575477	 1.140875354	 0.145166
H	 0.2268950936	-1.0070167116	-2.116718821	 0.101066
H	 2.7514377857	-0.6654408312	-2.0783968179	 0.121788
H	 2.5636989492	 0.683749432	-0.8605269124	 0.121865
H	 1.9857624171	-2.3273412116	-0.229320186	 0.113594
H	 2.2088110251	-1.0718476154	 2.4056481907	 0.06876
59.0056	166.7161	201.036	210.1168	236.3309	258.3572	297.9261	346.647	391.9765	484.6552	514.7773	533.2385	667.2205	744.1238	784.9942	807.6369	914.3415	926.1947	945.5224	976.0944	991.6969	1022.1814	1029.4679	1038.5945	1067.4878	1079.3625	1165.4947	1185.7578	1196.5956	1223.3555	1255.9565	1306.1909	1334.1942	1398.3077	1401.132	1416.0002	1449.0978	1470.5701	1478.9617	1488.968	1496.6462	1509.7637	1777.6908	2909.4521	3036.3497	3046.804	3107.9103	3116.2971	3122.2455	3125.5694	3136.5365	3184.0072	3204.1615	3213.1461
CC1(C)C2CC2N1C=O	CC1(C)[C@H]2C[C@H]2N1C=O	
InChI=1S/C7H11NO/c1-7(2)5-3-6(5)8(7)4-9/h4-6H,3H2,1-2H3	InChI=1S/C7H11NO/c1-7(2)5-3-6(5)8(7)4-9/h4-6H,3H2,1-2H3/t5-,6+/m0/s1
