23
gdb 103489	2.46869	1.40156	1.16794	1.4048	85.27	-0.2288	0.0857	0.3145	1209.199	0.206067	-388.286335	-388.276994	-388.27605	-388.320359	35.724	
C	-0.4600206991	 1.3756819284	-0.0930440807	-0.382353
C	 0.2283896478	 0.0154922706	 0.0853969413	-0.243869
C	 0.8229489286	-0.5350833984	-1.2014139549	 0.308876
C	 2.0297820177	 0.2217549417	-1.7306864929	-0.465282
C	 0.8453572506	-2.0391066837	-1.4916390593	-0.136048
C	-0.0489848512	-2.9945659379	-0.7030512101	-0.274813
C	-1.4509954096	-2.7225499179	-1.2933137267	-0.061255
O	-1.4100474993	-1.4067083615	-1.8565964465	-0.260715
C	-0.0884510338	-1.1302087003	-2.2489038969	 0.049328
H	 0.2312762931	 2.1437343169	-0.4537049157	 0.111483
H	-1.2812850633	 1.2926262623	-0.8107649392	 0.133944
H	-0.8738821802	 1.7279595921	 0.857152139	 0.106454
H	 1.0260705947	 0.0953401097	 0.836193283	 0.087692
H	-0.504885006	-0.68499479	 0.4921767904	 0.099961
H	 2.864115297	 0.1743521276	-1.0208098337	 0.115365
H	 2.3792526189	-0.1983920173	-2.6794404493	 0.111464
H	 1.7985465703	 1.2774778822	-1.9061247234	 0.120704
H	 1.7363924178	-2.44163284	-1.9605260446	 0.08331
H	 0.255896031	-4.0326473156	-0.8611262489	 0.103396
H	-0.0208444499	-2.8088464752	 0.3751568987	 0.10884
H	-1.6903094357	-3.4566581326	-2.0775024873	 0.093271
H	-2.2539445952	-2.7405285099	-0.5504754333	 0.106025
H	 0.0273507557	-0.886627621	-3.3022001688	 0.084222
64.2971	115.2943	164.3502	197.8415	227.5498	264.0925	283.4535	306.5579	357.6455	480.0506	516.1795	653.1907	702.7087	734.8863	781.3208	810.1956	855.6726	865.9449	931.9079	948.0885	977.4775	1008.5791	1023.8276	1038.2029	1048.3586	1076.6167	1095.4377	1126.7126	1135.8581	1140.823	1202.1387	1232.3969	1245.0265	1295.8946	1304.2851	1311.6434	1321.5806	1373.1803	1387.2882	1406.2419	1416.9553	1423.8481	1478.9392	1492.9087	1497.1033	1501.8772	1507.0726	1509.289	1519.8127	2987.4074	3019.1008	3025.0675	3039.2423	3050.7329	3079.8132	3085.3963	3088.3614	3096.4155	3097.7559	3106.5529	3119.124	3130.6625	3166.5262
CCC1(C)C2CCOC12	CC[C@@]1(C)[C@H]2CCO[C@@H]12	
InChI=1S/C8H14O/c1-3-8(2)6-4-5-9-7(6)8/h6-7H,3-5H2,1-2H3	InChI=1S/C8H14O/c1-3-8(2)6-4-5-9-7(6)8/h6-7H,3-5H2,1-2H3/t6-,7+,8-/m0/s1
