14
gdb 99465	2.42233	1.27085	0.9181	3.25	70.06	-0.2883	-0.0821	0.2062	1238.1388	0.096793	-436.645675	-436.636013	-436.635069	-436.681219	32.545	
C	 0.1933901193	 1.368588469	 0.1676300501	-0.250048
O	-0.1132845754	-0.0005812427	-0.0551085276	-0.208724
C	 0.4512673983	-0.5288246019	-1.2083677469	-0.106285
C	 1.9250665732	-0.641116622	-1.1247983581	 0.260735
N	 3.0749391232	-0.7053394417	-1.031124832	-0.316852
C	-0.1782958554	-1.9256598843	-1.4739019164	 0.236254
O	-1.0343112175	-2.3793851073	-0.7632064972	-0.24535
C	 0.3250599477	-2.5875329152	-2.6570614765	 0.266001
C	 0.7442786872	-3.1224505046	-3.6499678593	-0.408608
H	 1.2696787394	 1.5227120569	 0.3177153601	 0.139271
H	-0.1445784215	 1.9930099019	-0.6719778502	 0.117598
H	-0.3429975731	 1.6594195409	 1.0717314814	 0.149389
H	 0.2250791588	 0.0866807962	-2.0988698411	 0.137076
H	 1.1149869458	-3.6048190254	-4.5225080864	 0.229543
39.9603	89.8065	108.2562	145.7645	185.1066	224.79	240.4988	275.9493	366.3999	443.0843	455.5842	587.2875	614.0394	672.6041	688.8434	724.3762	884.8552	943.5699	1009.3317	1107.3274	1163.9853	1183.0109	1225.0045	1275.0184	1346.1067	1480.2422	1488.9234	1505.5703	1808.533	2217.4541	2351.7275	2942.7868	2996.9849	3060.7976	3142.8292	3490.9539
COC(C#N)C(=O)C#C	CO[C@@H](C#N)C(=O)C#C	
InChI=1S/C6H5NO2/c1-3-5(8)6(4-7)9-2/h1,6H,2H3	InChI=1S/C6H5NO2/c1-3-5(8)6(4-7)9-2/h1,6H,2H3/t6-/m0/s1
