21
gdb 33229	5.289	0.66334	0.63134	3.3169	85.73	-0.2156	0.0367	0.2523	1836.0169	0.184097	-383.322857	-383.313527	-383.312583	-383.358166	34.028	
C	 0.0290988832	 1.5797420321	 0.126844559	-0.380566
C	-0.0513560306	 0.0576584106	-0.0189716951	-0.162228
C	 0.7812801544	-0.4784667765	-1.1871545762	-0.146474
C	 0.7017833219	-2.0076709152	-1.3378782105	-0.317585
C	 1.4657650284	-2.5207267452	-2.518516859	 0.295617
C	 2.5745252124	-3.3280903931	-2.5417243973	-0.196343
N	 2.8916013818	-3.488648037	-3.8747962927	-0.229729
C	 1.9741215302	-2.7816976492	-4.5909211392	 0.009891
N	 1.1032648152	-2.1877062668	-3.8101943871	-0.3031
H	 1.0609702813	 1.907202473	 0.2968101454	 0.110989
H	-0.3301363345	 2.082442884	-0.7779695187	 0.114914
H	-0.5752701219	 1.9350723875	 0.967646986	 0.107505
H	 0.2804787838	-0.4176562378	 0.9143070531	 0.088362
H	-1.099072033	-0.2426422596	-0.154265474	 0.093826
H	 0.4482708411	-0.0189389003	-2.1253047793	 0.115701
H	 1.8315223132	-0.1843083582	-1.0577022401	 0.086743
H	 1.0747708748	-2.4910548025	-0.4266673758	 0.090683
H	-0.3522018487	-2.2983742062	-1.4380896549	 0.107823
H	 3.1510949645	-3.7928575733	-1.7591643004	 0.123267
H	 3.6523845434	-4.032346788	-4.2451447038	 0.264614
H	 1.9923214192	-2.7413285982	-5.6700895593	 0.126092
45.8113	79.477	91.0093	126.0324	240.9601	244.8122	321.4828	332.5817	437.7138	507.6599	658.6527	691.5982	720.8553	736.6828	762.5221	796.1884	818.3667	907.9432	931.545	949.5843	976.3228	1017.0738	1063.522	1087.2028	1099.435	1123.2563	1137.4682	1229.0384	1249.1613	1277.3148	1291.4974	1316.8097	1328.6062	1352.004	1371.7773	1395.4164	1412.5472	1456.4699	1476.1366	1485.8196	1498.8448	1499.4987	1512.3638	1528.135	1600.1868	3008.3613	3013.2219	3023.2975	3028.5399	3037.0885	3051.9003	3076.6169	3095.567	3098.8524	3247.7298	3271.3017	3669.4444
CCCCC1=CNC=N1	CCCCc1c[nH]cn1	
InChI=1S/C7H12N2/c1-2-3-4-7-5-8-6-9-7/h5-6H,2-4H2,1H3,(H,8,9)	InChI=1S/C7H12N2/c1-2-3-4-7-5-8-6-9-7/h5-6H,2-4H2,1H3,(H,8,9)
