17
gdb 61370	2.92759	0.88252	0.74811	0.4033	75.55	-0.2543	-0.1007	0.1536	1500.8419	0.131281	-421.814054	-421.803966	-421.803022	-421.850147	35.179	
C	 0.0225734236	 1.6059861197	-0.1686716415	-0.396564
C	-0.0084520847	 0.0743675112	 0.0117112361	-0.167704
C	 0.8790023324	-0.3845663645	 1.1869296909	-0.307472
C	 2.3588632008	-0.2584644656	 0.9178145285	 0.281311
O	 2.8552051079	 0.0250345272	-0.1486813806	-0.278149
C	 3.3072341731	-0.5361883088	 2.0955969376	 0.097548
O	 2.9305023138	-0.7932765999	 3.2076996676	-0.21547
C	-1.3758120336	-0.4067291983	 0.199594411	 0.303258
C	-2.5004237492	-0.7931423495	 0.3755961296	-0.441479
H	 1.0434030731	 1.9426177485	-0.3626519374	 0.134709
H	-0.6056650713	 1.9034908541	-1.0115572436	 0.131384
H	-0.3552149326	 2.1071550399	 0.7278865516	 0.123765
H	 0.3992756706	-0.3789763521	-0.9005475451	 0.125633
H	 0.6390849674	 0.1566552743	 2.1098451351	 0.149139
H	 0.6889324255	-1.4387514309	 1.4297537149	 0.153306
H	 4.377359528	-0.4666825143	 1.8070911464	 0.110725
H	-3.4946123646	-1.138616361	 0.5163629691	 0.196061
37.9633	77.9625	108.9028	131.1672	191.8389	216.872	230.7999	277.4808	343.7525	455.1054	501.1021	515.5385	537.1742	626.9094	635.4813	644.2966	811.8915	824.9361	865.9916	950.2094	986.6207	1070.0333	1097.7983	1137.4802	1154.391	1229.1977	1300.6435	1335.7	1363.5037	1381.9773	1407.9985	1433.0582	1496.6148	1503.0898	1799.7226	1826.4041	2236.9878	2926.3363	3031.9859	3036.0143	3048.5099	3073.3481	3121.8789	3136.6371	3504.2798
CC(CC(=O)C=O)C#C	C[C@@H](CC(=O)C=O)C#C	
InChI=1S/C7H8O2/c1-3-6(2)4-7(9)5-8/h1,5-6H,4H2,2H3	InChI=1S/C7H8O2/c1-3-6(2)4-7(9)5-8/h1,5-6H,4H2,2H3/t6-/m1/s1
