18
gdb 94645	3.60597	0.80514	0.71349	6.0667	73.	-0.2635	0.0377	0.3012	1549.7395	0.146668	-439.07635	-439.066921	-439.065977	-439.111914	32.928	
O	 0.131433302	 1.3785980701	-0.2348789857	-0.419593
C	 0.0928920764	 0.0110858839	 0.0848924022	 0.042316
C	-0.1830798123	-0.383005093	 1.554980779	-0.100282
O	-1.3847179061	-1.0889893849	 1.1766532131	-0.293602
C	-1.276451269	-0.6506345194	-0.2008198575	 0.106486
C	-2.4157229536	 0.2728611583	-0.6059192891	-0.191468
C	-3.7684022282	-0.4463805574	-0.4372421199	-0.345137
C	-4.9046895586	 0.4089176855	-0.7681598998	 0.25651
N	-5.7944480943	 1.0964178019	-1.0351116307	-0.308151
H	 1.0260546535	 1.7048111008	-0.0999507799	 0.29451
H	 0.9340335465	-0.5309403249	-0.3629168663	 0.08553
H	 0.5442201593	-1.0442876549	 2.0396075934	 0.104998
H	-0.3911101211	 0.47779179	 2.2026738036	 0.108915
H	-1.2324432924	-1.5182215609	-0.8734996174	 0.080051
H	-2.3976393941	 1.177208955	 0.006823988	 0.135324
H	-2.2781115427	 0.5868991471	-1.6456161539	 0.125386
H	-3.810701834	-1.3405105417	-1.0709112431	 0.146495
H	-3.8671113513	-0.7870655253	 0.5987955041	 0.171712
51.8559	82.994	97.4375	101.5609	209.4486	219.4067	257.088	395.2112	410.0099	455.9518	498.5892	584.0342	738.6111	781.5599	860.6699	889.9586	925.9856	958.8464	1021.3863	1026.9341	1062.7587	1069.4328	1109.3296	1152.1991	1174.5884	1188.9723	1222.1194	1264.0287	1291.7933	1305.4639	1310.2828	1345.0057	1366.1677	1402.6448	1441.3884	1469.9276	1486.1838	1514.1811	2362.3724	3005.8074	3018.4213	3033.809	3041.3521	3063.9879	3073.0079	3087.064	3118.9565	3830.9123
OC1COC1CCC#N	O[C@H]1CO[C@H]1CCC#N	
InChI=1S/C6H9NO2/c7-3-1-2-6-5(8)4-9-6/h5-6,8H,1-2,4H2	InChI=1S/C6H9NO2/c7-3-1-2-6-5(8)4-9-6/h5-6,8H,1-2,4H2/t5-,6-/m0/s1
