15
gdb 14500	3.80645	2.02538	1.55479	1.978	67.76	-0.242	0.0259	0.2679	817.4227	0.118318	-362.547047	-362.539933	-362.538989	-362.577917	27.977	
O	-0.0030827531	 1.4160975766	-0.1090529034	-0.478953
C	 0.0155538154	 0.009115839	-0.0259319321	 0.30015
C	 0.972799278	-0.5613519039	-0.9678625657	 0.238066
C	 1.8044647284	-0.9620878179	-1.7398953851	-0.451263
C	-0.0872478006	-0.6863838729	 1.3891935867	-0.090637
C	-1.5060108006	-0.0807591145	 1.525490717	-0.230113
C	-1.3875802407	-0.6663048525	 0.0941270785	-0.066807
N	-0.7486737715	-1.8825735778	 0.7364490258	-0.329134
H	 0.9032919478	 1.7217609037	-0.2193638787	 0.288527
H	 2.5265037913	-1.3277301145	-2.4281875109	 0.201081
H	 0.6943337439	-0.7947626308	 2.1428740208	 0.084598
H	-2.1715232561	-0.6368211677	 2.1848173423	 0.108821
H	-1.585556464	 0.999098395	 1.6214215627	 0.120612
H	-2.1481619453	-0.7490777522	-0.6831005477	 0.089707
H	-0.098017263	-2.3186327594	 0.0751674297	 0.215346
151.3194	164.3387	251.5253	328.649	332.1684	498.0712	509.6999	516.3278	624.4508	631.5519	661.4411	678.3942	792.4081	815.182	883.4037	915.1763	933.3951	1013.668	1049.6091	1057.5933	1085.7766	1148.0365	1166.226	1172.8816	1188.8812	1210.8933	1248.3547	1303.7866	1306.8258	1363.3391	1488.2122	2222.6511	3099.5792	3106.7476	3117.4734	3190.3079	3391.1743	3497.8371	3818.1528
OC1(C#C)C2CC1N2	O[C@@]1(C#C)[C@H]2C[C@@H]1N2	
InChI=1S/C6H7NO/c1-2-6(8)4-3-5(6)7-4/h1,4-5,7-8H,3H2	InChI=1S/C6H7NO/c1-2-6(8)4-3-5(6)7-4/h1,4-5,7-8H,3H2/t4-,5+,6+
