15
gdb 128914	7.16567	0.7329	0.67034	4.7768	71.4	-0.2785	-0.0216	0.2569	1546.8081	0.11345	-416.821371	-416.81338	-416.812436	-416.855307	28.175	
N	-0.0094939618	-1.1865865139	-0.0375830785	-0.302736
C	 0.0028927405	-0.0382110083	-0.1648947782	 0.258843
C	 0.039128228	 1.4142427387	-0.313761731	-0.339554
C	 1.2885051211	 2.023316334	 0.3524656835	-0.321434
C	 1.3508816302	 3.5155371552	 0.214332785	 0.379987
N	 0.4082804539	 4.1724160026	-0.4205369243	-0.178669
O	 0.7688023528	 5.5129291615	-0.3645319655	-0.175841
C	 1.9240605093	 5.6202181425	 0.3064743644	 0.0871
C	 2.3574055238	 4.4000185419	 0.7061459564	-0.331
H	 0.0169469343	 1.6682530661	-1.3778012424	 0.1723
H	-0.8681666456	 1.8439956329	 0.1213652724	 0.172255
H	 1.3057136193	 1.7563578239	 1.4151300974	 0.145913
H	 2.1908320838	 1.5805898332	-0.0841595977	 0.145944
H	 2.3109500379	 6.6212949394	 0.417921263	 0.159417
H	 3.2479859727	 4.1578659104	 1.2615858755	 0.127475
55.6441	61.6036	110.7169	213.5318	271.5185	383.5189	400.8506	522.0825	613.4841	663.751	736.1231	775.9499	803.1113	876.5843	917.8945	951.1243	955.5908	1020.3653	1034.9741	1039.4387	1082.5341	1158.9083	1198.5026	1241.7346	1308.2807	1310.4771	1379.4024	1453.9253	1461.9882	1478.82	1492.0061	1610.8856	2364.5672	3044.9247	3069.2578	3075.0044	3109.1676	3263.5717	3287.0475
N#CCCC1=NOC=C1	N#CCCc1nocc1	
InChI=1S/C6H6N2O/c7-4-1-2-6-3-5-9-8-6/h3,5H,1-2H2	InChI=1S/C6H6N2O/c7-4-1-2-6-3-5-9-8-6/h3,5H,1-2H2
