18
gdb 19552	4.0012	1.71202	1.57599	1.9332	70.91	-0.225	0.0851	0.31	901.6548	0.154158	-347.739632	-347.732473	-347.731529	-347.771143	27.694	
C	 0.1170214704	 1.533500588	-0.2067587483	-0.371236
C	 0.0157545981	 0.0318118386	 0.0934995355	-0.338177
C	-1.3897661189	-0.4788294834	 0.0968418525	 0.320635
C	-2.0088348386	-1.8766594714	 0.0216223882	-0.182704
C	-2.8531567893	-1.6310539594	 1.2704027636	-0.230859
C	-2.7091600861	-0.130795874	 0.9104192451	 0.020337
O	-3.4644150012	 0.0035875354	-0.3259598717	-0.294184
C	-2.4222804953	-0.7479913521	-0.9454468397	 0.041262
H	 1.1596529153	 1.8655725339	-0.1992968517	 0.111652
H	-0.3086355718	 1.7666759149	-1.1875462722	 0.12399
H	-0.427288303	 2.1219315903	 0.5390246901	 0.119861
H	 0.5877628148	-0.5354900607	-0.6525043099	 0.104025
H	 0.4896289638	-0.1846126505	 1.0606483026	 0.101827
H	-1.543746727	-2.7933952323	-0.3196537417	 0.087048
H	-3.8746881099	-2.0220553485	 1.3153101237	 0.099051
H	-2.3033914274	-1.8839504446	 2.180863586	 0.100863
H	-2.8877954692	 0.6768594634	 1.6178818862	 0.083555
H	-2.3819168247	-0.8064265276	-2.0256021781	 0.103054
83.1108	138.4408	195.9052	288.352	364.1558	471.4356	540.2191	597.8172	741.1536	772.7031	788.2085	827.9553	871.2304	898.7775	929.2379	942.3677	972.0612	979.9098	1015.2779	1026.2861	1041.1387	1080.2463	1108.9558	1130.8617	1156.2492	1175.9818	1220.6939	1226.2331	1267.472	1303.2521	1317.4478	1357.9289	1411.0747	1458.2466	1476.9004	1488.5031	1498.3263	1506.1252	3010.6742	3037.3663	3041.8249	3046.4752	3106.3225	3108.7712	3111.5185	3138.6867	3191.1052	3204.7481
CCC12C3CC1OC23	CC[C@@]12[C@H]3C[C@@H]1O[C@@H]23	
InChI=1S/C7H10O/c1-2-7-4-3-5(7)8-6(4)7/h4-6H,2-3H2,1H3	InChI=1S/C7H10O/c1-2-7-4-3-5(7)8-6(4)7/h4-6H,2-3H2,1H3/t4-,5-,6+,7+/m0/s1
