14
gdb 49124	3.49975	1.24518	0.91842	3.7499	79.07	-0.2556	-0.0997	0.1558	1173.8707	0.10184	-432.90397	-432.896142	-432.895198	-432.936734	28.581	
N	-0.1129689868	 1.288392227	 0.0107515706	-0.528952
C	-0.0000910692	 0.0181035225	 0.0031103823	 0.399561
N	 1.1296441832	-0.7970081921	-0.0068376118	-0.412713
C	 0.8067476823	-2.1621464225	-0.0130459609	 0.295774
N	 1.5774582943	-3.1716937098	-0.02251479	-0.496005
C	-0.6840180934	-2.1897987415	-0.0060005229	 0.198413
C	-1.562912253	-3.3767766475	-0.0083863446	 0.086115
O	-1.2052250841	-4.5263666316	-0.0163648052	-0.23321
C	-1.1365347981	-0.9212128405	 0.0033106885	-0.229376
H	 0.7974137617	 1.7526556951	 0.0089919095	 0.21926
H	 2.0747601007	-0.450369214	-0.0096804196	 0.25473
H	 2.5616749604	-2.8951572233	-0.0257001355	 0.217435
H	-2.6429126253	-3.1042838079	-0.0017749036	 0.08036
H	-2.1632762124	-0.5825825139	 0.0101708233	 0.14861
76.5067	129.0415	179.7347	225.6904	350.7939	359.5206	391.269	427.791	524.1681	643.1537	674.5205	757.9618	758.8651	774.0348	852.9814	882.3116	922.6505	957.9083	1038.9117	1078.4269	1108.3652	1167.8575	1228.0438	1354.8189	1379.7714	1406.8283	1434.2092	1642.6871	1730.1151	1739.0028	1818.4114	2871.0353	3245.2182	3452.9772	3459.8668	3657.3172
N=C1NC(=N)C(C=O)=C1	[NH]c1[nH]c([NH])c(C=O)c1	
InChI=1S/C5H5N3O/c6-4-1-3(2-9)5(7)8-4/h1-2H,(H3,6,7,8)	InChI=1S/C5H5N3O/c6-4-1-3(2-9)5(7)8-4/h1-2H,(H3,6,7,8)
