17
gdb 28937	2.8491	1.29519	1.0261	3.1358	79.57	-0.2099	0.0093	0.2191	1175.8305	0.136817	-380.917861	-380.909327	-380.908383	-380.951805	31.132	
C	-0.0764164901	 1.4927024496	 0.0714914756	-0.514817
C	-0.0185747148	 0.0043072133	-0.0334945842	 0.295552
C	-0.0286003467	-0.8168010767	-1.1368146202	-0.225917
C	 0.0327587218	-2.1666819069	-0.6883485989	-0.16022
C	 0.078010735	-2.1385480152	 0.6804758441	-0.107169
N	 0.056451203	-0.816817707	 1.080457	-0.025661
C	 0.0337562449	-0.3785930898	 2.4554425211	-0.314222
C	-1.3121031928	-0.0181980189	 2.936849751	 0.281457
N	-2.3631596225	 0.2761029575	 3.3143649966	-0.299788
H	 0.8103828152	 1.9165649276	 0.5610093269	 0.125531
H	-0.1291926137	 1.9230393507	-0.93078674	 0.141823
H	-0.9554097288	 1.8411228032	 0.6275559603	 0.146873
H	-0.0698875431	-0.477052385	-2.1608254608	 0.096454
H	 0.0503764191	-3.0537107837	-1.3023865397	 0.100759
H	 0.1257967184	-2.9301130425	 1.4115120445	 0.120276
H	 0.4293178713	-1.1785033261	 3.0877390519	 0.1701
H	 0.6890805239	 0.4883959499	 2.5902162919	 0.168968
42.1098	86.5236	165.158	220.7014	266.0272	272.1769	370.505	405.2414	490.9544	616.301	633.2605	665.5757	698.0118	768.4425	783.2285	843.3057	894.8971	919.3025	965.9487	997.1285	1048.1919	1064.4282	1105.1601	1176.5285	1232.9052	1274.3824	1326.7131	1374.8821	1412.5437	1421.7643	1453.4473	1463.8236	1484.1184	1493.8492	1526.0647	1608.3959	2363.8895	3014.0039	3056.3064	3060.819	3102.1803	3125.9444	3240.6768	3251.3805	3268.5237
CC1=CC=CN1CC#N	Cc1cccn1CC#N	
InChI=1S/C7H8N2/c1-7-3-2-5-9(7)6-4-8/h2-3,5H,6H2,1H3	InChI=1S/C7H8N2/c1-7-3-2-5-9(7)6-4-8/h2-3,5H,6H2,1H3
