20
gdb 90886	2.39833	1.95015	1.43983	1.1264	77.13	-0.2283	0.0655	0.2939	983.1816	0.172068	-403.112431	-403.104542	-403.103598	-403.14421	31.976	
C	-0.0204772033	 1.501706749	-0.0426490386	-0.500351
C	 0.0274962621	-0.0106057233	-0.0066801411	 0.316926
C	-1.2984323645	-0.7765485885	 0.3347824848	-0.29027
C	-0.4911967905	-1.6474844675	 1.30434785	-0.039963
C	 0.6995120694	-0.7530921483	 1.187014423	-0.11821
N	 0.768376267	-2.1357576777	 0.7186664243	-0.101281
C	 0.831526344	-2.1497650267	-0.7565444453	-0.20953
C	 0.6779577348	-0.6767934174	-1.2250134898	 0.087273
O	-0.1427497674	-0.4946631805	-2.3679745109	-0.439767
H	 0.9886249119	 1.9256979537	-0.1118147978	 0.110767
H	-0.587014538	 1.8436526206	-0.914498121	 0.134748
H	-0.495545985	 1.9095587925	 0.8553850315	 0.113003
H	-1.9949504031	-0.1330897243	 0.8785474128	 0.100544
H	-1.8260993095	-1.2586730207	-0.4924219502	 0.108059
H	-0.873479925	-2.188563306	 2.1632124941	 0.088612
H	 1.4045396111	-0.3721055838	 1.9172538531	 0.084718
H	 1.7904007954	-2.5842624949	-1.0564240482	 0.099497
H	 0.0326612868	-2.7689886454	-1.1775139394	 0.108244
H	 1.6706981008	-0.2285095125	-1.3959556025	 0.060356
H	 0.3075093131	-0.8731284184	-3.1287625989	 0.286625
134.7445	213.1835	239.7399	256.9046	298.6219	316.6086	386.8857	460.1747	530.0208	560.8392	641.5735	710.5896	748.5105	813.7395	854.121	875.3585	883.1791	948.821	965.8319	979.9295	1010.8911	1024.8779	1051.4523	1057.9103	1115.1623	1119.0331	1149.8453	1177.3744	1212.7441	1223.1412	1244.645	1246.738	1278.0239	1287.7963	1319.283	1344.8683	1361.8387	1410.013	1434.5543	1487.5628	1492.015	1497.6181	1510.3793	2960.7554	3025.0543	3043.1613	3059.0516	3087.4604	3089.1078	3105.9201	3110.5708	3163.1698	3178.2864	3829.4154
CC12CC3C1N3CC2O	C[C@]12C[C@@H]3[C@H]1N3C[C@H]2O	
InChI=1S/C7H11NO/c1-7-2-4-6(7)8(4)3-5(7)9/h4-6,9H,2-3H2,1H3	InChI=1S/C7H11NO/c1-7-2-4-6(7)8(4)3-5(7)9/h4-6,9H,2-3H2,1H3/t4-,5-,6-,7-,8?/m1/s1
