17
gdb 78644	3.23843	1.54603	1.20101	2.2425	75.39	-0.222	-0.0382	0.1839	1017.7866	0.135182	-421.715302	-421.707844	-421.7069	-421.746603	30.623	
O	 0.4710216794	 0.9818338844	 0.5986759986	-0.419848
C	 0.1262346401	-0.1625417258	-0.1247614814	 0.104647
C	-1.4302122625	-0.2679841552	-0.3812472387	-0.122309
C	-1.3028748697	 0.3343890798	-1.7657314188	-0.214424
C	 0.1432240027	-0.1789740039	-1.6739139371	-0.030495
C	 0.2524949982	-1.4284755652	-2.1845940054	-0.091114
C	-1.1182038181	-1.9999643825	-2.4838042437	-0.325201
C	-1.9649159993	-1.0021224785	-1.661734486	 0.395567
O	-3.3481573717	-1.1436648665	-1.6329360912	-0.475675
H	 0.0782263568	 1.743622293	 0.1555547226	 0.282388
H	 0.6319414477	-0.9945552278	 0.3717152398	 0.094972
H	-2.1651568444	-0.0049400667	 0.375645972	 0.104376
H	-1.6918359891	 1.2550254414	-2.1795538366	 0.091876
H	 1.0655621312	-2.0900372325	-1.8971360973	 0.102766
H	-1.4562268117	-1.9932439984	-3.5314117986	 0.099633
H	-1.1775587324	-3.0374527054	-2.1341147336	 0.117378
H	-3.6754800171	-1.0763589901	-2.5373874444	 0.285463
181.8005	245.1047	254.0299	292.2844	359.3034	398.4203	412.6635	446.1978	488.2704	580.2999	681.1269	727.5103	776.8838	820.1031	826.0107	853.9891	875.7568	908.544	939.4888	973.9633	1009.6009	1038.4816	1051.9178	1091.1865	1137.7077	1155.8459	1181.933	1196.3105	1219.3232	1258.6033	1279.4181	1299.2688	1305.5016	1381.3124	1431.8814	1478.5602	1565.1066	2985.7427	3057.5895	3087.5389	3146.1219	3160.6614	3201.4263	3787.0597	3788.0156
OC1C2C3C1=CCC23O	O[C@H]1[C@H]2[C@H]3[C]1[CH]C[C@@]23O	
InChI=1S/C7H8O2/c8-6-3-1-2-7(9)4(3)5(6)7/h1,4-6,8-9H,2H2	InChI=1S/C7H8O2/c8-6-3-1-2-7(9)4(3)5(6)7/h1,4-6,8-9H,2H2/t4-,5-,6-,7+/m1/s1
