19
gdb 54531	3.21182	1.32387	1.09929	2.9987	75.18	-0.2342	0.0291	0.2632	1141.2707	0.161922	-419.242696	-419.234523	-419.233578	-419.275414	31.973	
N	 0.6327651908	 0.1158097673	-0.9220306427	-0.538253
C	-0.1032091683	 0.2207067806	 0.2161919137	 0.331968
O	 0.2407194396	 0.8539221181	 1.199093899	-0.376
C	-1.3948171153	-0.5573355442	 0.1898603984	 0.236378
C	-2.5005995344	-0.1493500514	 1.1508046289	-0.279347
C	-3.4505167142	-1.367971506	 1.206609104	-0.250299
C	-2.5562906395	-2.5949499518	 0.9062770052	-0.227726
C	-1.4338123653	-2.0497094729	 0.0397852576	-0.035316
N	-1.7724685715	-1.1818699081	-1.0934052305	-0.39602
H	 1.4745624394	 0.6608321771	-0.9998897926	 0.256985
H	 0.20618814	-0.2932514188	-1.7382876389	 0.271323
H	-2.0353966893	 0.0524049059	 2.1196402419	 0.136566
H	-3.0113461093	 0.7692432595	 0.8432796627	 0.104267
H	-3.9621637551	-1.4525584685	 2.1679900505	 0.110933
H	-4.2370494002	-1.2766419829	 0.4496202167	 0.102311
H	-2.1179660547	-2.9941253944	 1.8284521676	 0.115413
H	-3.1054709461	-3.414644628	 0.4302466983	 0.105386
H	-0.5276989821	-2.6333963165	-0.0921523904	 0.099473
H	-2.7760718344	-1.131989275	-1.2504062994	 0.231958
71.9015	152.9188	201.447	236.0945	320.7723	355.1017	380.4371	439.6292	512.0608	609.9495	640.5196	646.4136	697.5972	751.3704	809.7729	864.1425	877.3046	903.5133	932.4211	973.3218	1012.6449	1031.2642	1047.2228	1096.9893	1111.3855	1145.7605	1183.2695	1212.3547	1229.2741	1262.7261	1302.1568	1316.2629	1326.0858	1343.7878	1380.3494	1436.0857	1486.8012	1496.0548	1511.9769	1589.301	1788.4874	3037.874	3043.6877	3055.3129	3076.5398	3096.1944	3109.8324	3158.3685	3496.4064	3585.0005	3729.4771
NC(=O)C12CCCC1N2	NC(=O)[C@]12CCC[C@H]1N2	
InChI=1S/C6H10N2O/c7-5(9)6-3-1-2-4(6)8-6/h4,8H,1-3H2,(H2,7,9)	InChI=1S/C6H10N2O/c7-5(9)6-3-1-2-4(6)8-6/h4,8H,1-3H2,(H2,7,9)/t4-,6+/m1/s1
