18
gdb 126621	4.61292	0.84003	0.75572	1.7931	75.7	-0.2278	0.0031	0.2309	1524.1569	0.148758	-435.279916	-435.271081	-435.270137	-435.314674	31.802	
C	 0.0069057086	 1.4842754607	 0.0806510147	-0.381465
C	-0.0012763706	-0.0455119457	 0.0446981795	-0.175731
C	-1.4265903653	-0.6068430932	 0.0009603896	-0.123682
N	-1.4601744133	-2.0584283588	-0.0184879523	 0.139268
N	-1.6162130276	-2.7511247913	-1.1342089435	-0.221043
C	-1.5072277434	-4.0260302064	-0.7501572576	-0.135802
C	-1.2741394367	-4.036373612	 0.633173163	 0.367478
O	-1.1103737703	-5.1111446706	 1.4260975575	-0.424283
N	-1.2417444936	-2.7865843927	 1.0851690132	-0.344696
H	 1.0299404442	 1.8692633639	 0.1136532504	 0.121797
H	-0.4790697952	 1.9075191056	-0.8053428633	 0.120245
H	-0.5201681666	 1.8649933927	 0.9624760565	 0.119646
H	 0.5456693313	-0.4086370726	-0.8327487173	 0.116065
H	 0.5063656372	-0.4498305447	 0.9270441537	 0.120446
H	-1.9971690891	-0.2755753073	 0.8738969848	 0.1287
H	-1.9491210325	-0.2807331829	-0.9010651952	 0.137306
H	-1.6041821458	-4.8429373815	-1.4450051252	 0.127832
H	-0.9725462412	-4.7899032632	 2.3255756116	 0.307918
38.6394	84.1704	85.8193	238.5884	273.2463	299.3507	327.8357	378.3247	404.2025	470.1707	665.9513	694.0148	723.6956	755.4218	800.0543	836.1106	882.2861	904.9911	1014.1236	1044.8198	1052.7062	1122.8028	1125.988	1175.7148	1232.1309	1265.9388	1315.0536	1330.1193	1366.0502	1393.9218	1403.3291	1415.3979	1424.6307	1473.6162	1493.9703	1501.1516	1510.1919	1526.3977	1602.9213	3032.7301	3042.2086	3064.8265	3076.1693	3100.9759	3111.2318	3128.4244	3283.8712	3803.0108
CCCN1N=CC(O)=N1	CCCn1ncc(O)n1	
InChI=1S/C5H9N3O/c1-2-3-8-6-4-5(9)7-8/h4H,2-3H2,1H3,(H,7,9)	InChI=1S/C5H9N3O/c1-2-3-8-6-4-5(9)7-8/h4H,2-3H2,1H3,(H,7,9)
