16
gdb 48932	4.24618	1.48201	1.3008	3.3684	71.76	-0.2374	-0.0297	0.2078	957.2892	0.125413	-400.698829	-400.692255	-400.69131	-400.729844	26.324	
O	-0.8211525806	 1.0917883221	 0.2680088263	-0.26235
C	 0.2808985231	 0.9074796382	-0.1884797709	 0.076874
C	 1.40496971	 1.8585484544	-0.0336121149	 0.23006
C	 1.231070399	 3.2539282856	 0.5152401948	-0.305278
C	 2.6492687975	 3.741887126	 0.3172247796	-0.082819
C	 3.6466927922	 2.6019968723	 0.4913622953	-0.112181
C	 3.2481648845	 3.0622033864	-0.8855173346	-0.018442
N	 2.436775507	 1.805944554	-1.1434174428	-0.195016
C	 2.7990832745	 1.3516882587	 0.2194137464	-0.085484
H	 0.5335753633	-0.008031341	-0.7653802871	 0.085482
H	 0.498376101	 3.8293921015	-0.058246832	 0.124358
H	 0.9174742935	 3.2374129267	 1.5629065624	 0.125085
H	 2.960960816	 4.7490633616	 0.5630278096	 0.101111
H	 4.5857094589	 2.6616497196	 1.0213781948	 0.104337
H	 3.7926707265	 3.5257050281	-1.6960698919	 0.108786
H	 3.0520111237	 0.3199514758	 0.4359502448	 0.105479
102.5116	191.0184	255.6281	408.0647	435.997	533.6391	666.1424	724.6197	750.9023	753.5994	777.3982	795.4471	830.8843	902.1896	927.2172	948.3012	967.0569	987.7486	1017.3286	1031.4891	1036.7568	1052.0144	1070.8448	1088.1009	1175.3652	1184.8041	1232.7833	1236.2495	1284.3027	1319.2477	1356.0805	1381.0133	1426.8047	1488.9178	1812.9039	2904.964	3062.9632	3108.0063	3175.1107	3203.4267	3212.5032	3229.4936
O=CC12CC3C4C3N1C24	O=C[C@]12C[C@H]3[C@@H]4[C@H]3N1[C@H]24	
InChI=1S/C7H7NO/c9-2-7-1-3-4-5(3)8(7)6(4)7/h2-6H,1H2	InChI=1S/C7H7NO/c9-2-7-1-3-4-5(3)8(7)6(4)7/h2-6H,1H2/t3-,4+,5-,6-,7-,8?/m0/s1
