15
gdb 31363	4.08281	1.21405	0.94226	6.0614	74.17	-0.2291	-0.0291	0.1999	1190.6643	0.11435	-450.160512	-450.15227	-450.151326	-450.19436	28.979	
C	-0.0768096319	 1.4719478248	 0.0984985825	-0.327844
N	 0.0951667189	 0.0322434523	 0.0308689031	-0.364901
C	 0.6344368936	-0.7388148353	 0.9988721461	 0.514555
N	 0.5966318852	-2.0174848386	 0.9701763121	-0.362242
C	 1.2187833724	-2.7240983948	 1.9970174831	 0.363868
N	 1.2127392951	-3.9971074129	 2.0001006898	-0.50872
N	 1.8567878205	-1.981471442	 3.0434687148	-0.286376
C	 1.8223730307	-0.7240985996	 2.9720855824	 0.114225
O	 1.2305542913	 0.018569821	 1.9811227869	-0.219732
H	 0.8479142599	 1.9501633343	 0.425857188	 0.154724
H	-0.3157417942	 1.836064417	-0.9022879635	 0.142196
H	-0.882978664	 1.7711370165	 0.7804876005	 0.137073
H	-0.4202086287	-0.4953275946	-0.6555668778	 0.272943
H	 1.713963193	-4.3154669932	 2.8300229124	 0.221062
H	 2.2728215982	-0.0701336149	 3.7131487195	 0.149171
62.4563	88.4527	94.2462	185.4796	214.1409	410.0457	417.3157	506.5516	519.9283	567.4143	634.7069	723.9288	785.3068	787.3173	889.5541	903.2985	941.2034	960.0886	1037.8425	1083.3641	1148.64	1155.0179	1209.0968	1342.8565	1390.4193	1412.6438	1469.3316	1475.3675	1492.6244	1521.684	1668.1923	1718.5038	1775.8051	3022.9612	3106.6709	3145.6913	3187.9946	3488.237	3649.2714
CNC1=NC(=N)N=CO1	CN[C@H]1N=C([NH])N=CO1	
InChI=1S/C4H6N4O/c1-6-4-8-3(5)7-2-9-4/h2H,1H3,(H2,5,6,8)	InChI=1S/C4H7N4O/c1-6-4-8-3(5)7-2-9-4/h2,4-6H,1H3/t4-/m0/s1
