16
gdb 15856	2.91508	1.94598	1.2535	4.8314	68.51	-0.255	-0.0251	0.23	958.1244	0.130469	-379.949738	-379.941847	-379.940903	-379.982198	28.389	
C	-0.443135094	 1.4097261055	 0.2054904405	-0.403772
C	 0.0385350145	-0.003435152	-0.0794129802	 0.041556
C	 1.0096424349	-0.1981500882	-1.2891799742	-0.347032
C	 2.0451335601	-0.6901025015	-0.2847706093	 0.407071
N	 3.2230242845	-1.1188190518	-0.3752542973	-0.536688
N	 1.1419604915	-0.4850110289	 0.7888181578	-0.098426
C	 1.2497341741	-0.7493384295	 2.1234840877	 0.134442
O	 2.2507479326	-1.1850972152	 2.6502266933	-0.305861
H	 0.3952288454	 2.113095324	 0.2122325204	 0.132895
H	-1.1537838251	 1.724561474	-0.5653441216	 0.132604
H	-0.951309227	 1.4712870067	 1.1730188824	 0.129199
H	-0.8008763873	-0.7065428724	-0.0878456156	 0.101351
H	 0.7027380982	-0.9422640175	-2.0256426457	 0.138939
H	 1.2846937972	 0.7265697849	-1.8010104399	 0.136416
H	 3.5852402095	-1.3632931939	 0.5481424679	 0.250522
H	 0.3181334008	-0.5210911742	 2.6779172139	 0.086785
97.776	105.5401	174.5881	242.6308	247.878	296.9711	421.0751	468.1282	514.8601	537.3746	709.8158	791.7023	872.2424	901.0637	931.9578	978.8443	1020.5402	1031.544	1070.9207	1106.2926	1156.9456	1190.0254	1240.3383	1258.8653	1295.2495	1378.3911	1390.1587	1413.0589	1430.8424	1467.9733	1490.61	1496.6212	1756.3098	1821.1288	2939.1985	3037.2279	3051.6299	3084.5414	3109.0156	3116.6657	3140.3086	3482.4969
CC1CC(=N)N1C=O	C[C@H]1C[C]([NH])N1C=O	
InChI=1S/C5H8N2O/c1-4-2-5(6)7(4)3-8/h3-4,6H,2H2,1H3	InChI=1S/C5H8N2O/c1-4-2-5(6)7(4)3-8/h3-4,6H,2H2,1H3/t4-/m0/s1
