20
gdb 92843	3.59269	1.26532	0.9945	3.6855	80.	-0.2399	0.0286	0.2685	1214.3185	0.173398	-403.153413	-403.145524	-403.144579	-403.185599	31.047	
C	-0.0982754995	 1.5699796709	-0.060974525	-0.411181
C	 0.0132301943	 0.0472526897	 0.0489605279	 0.028327
C	 0.5916591339	-0.545217093	-1.2729764735	-0.156909
N	 1.2478643153	-1.860039658	-1.2170867578	-0.310428
C	 1.2490756215	-2.3771160761	-0.0775057041	 0.444114
O	 1.9881154378	-3.4383335086	 0.3934387529	-0.27074
C	 1.8304913432	-2.9311669107	 1.7662757287	-0.134135
C	 0.7705112788	-1.9178616329	 1.27142713	-0.142507
C	 0.8180291015	-0.3952553525	 1.2976404529	-0.245544
H	 0.8925539665	 2.0311380393	-0.1455360254	 0.118251
H	-0.6760353771	 1.8622010019	-0.9444380471	 0.117673
H	-0.5930404129	 1.9975459707	 0.8173414145	 0.112099
H	-1.0011153555	-0.3564467531	 0.1776965803	 0.077218
H	-0.2053097049	-0.5760693761	-2.0259019147	 0.110532
H	 1.3459282404	 0.1478354372	-1.6713054103	 0.108588
H	 1.4929462851	-3.7172422769	 2.4444920123	 0.121146
H	 2.7717157783	-2.4966253439	 2.1155849697	 0.123033
H	-0.237970074	-2.277429245	 1.4981821303	 0.107553
H	 1.8551060931	-0.0425118805	 1.2272347604	 0.104505
H	 0.3838665043	 0.0352228575	 2.2060109182	 0.098407
112.3334	174.4128	247.2333	262.5751	279.1967	347.5474	403.6586	421.7001	432.5141	585.9724	671.2525	726.8025	816.1266	836.9892	884.4858	913.3931	941.7184	946.5643	971.2237	1015.5013	1048.4653	1104.8466	1118.0557	1147.1644	1148.6835	1166.2417	1183.0275	1196.7286	1242.0611	1284.5476	1292.8456	1331.2086	1348.9839	1372.5762	1384.7883	1391.4596	1413.7841	1486.3627	1495.0016	1499.992	1501.808	1513.1058	1830.6519	2997.229	3009.1578	3024.6884	3029.048	3046.919	3057.8171	3058.8735	3078.5655	3094.42	3098.0594	3124.7119
CC1CN=C2OCC2C1	C[C@H]1C[N][C]2OC[C@H]2C1	
InChI=1S/C7H11NO/c1-5-2-6-4-9-7(6)8-3-5/h5-6H,2-4H2,1H3	InChI=1S/C7H11NO/c1-5-2-6-4-9-7(6)8-3-5/h5-6H,2-4H2,1H3/t5-,6-/m1/s1
