16
gdb 23584	4.4659	1.25355	1.18912	0.644	71.84	-0.2432	0.0061	0.2492	1038.3	0.125643	-437.78875	-437.782025	-437.781081	-437.819866	27.269	
O	-0.1398152173	 1.3877783518	 0.0660711516	-0.396568
N	 0.0509209806	-0.0089228834	-0.0125855929	-0.302024
C	-1.0564060475	-0.6168173981	-0.0697362176	 0.474714
C	-2.5405674476	-0.3083280336	 0.005443378	-0.19635
C	-2.9980077033	-0.8724469536	-1.3664007385	-0.213742
C	-2.6016228569	-2.3234476133	-1.0152824784	 0.065004
O	-3.5004601964	-2.5990854268	 0.0988962769	-0.289524
C	-2.6587196479	-1.702240783	 0.8187267111	 0.10582
C	-1.3939177459	-2.0746250067	-0.0087360848	-0.171921
H	 0.7664700981	 1.7099001192	 0.1196206251	 0.306134
H	-2.9290448231	 0.6403996504	 0.360730997	 0.097114
H	-4.0733659103	-0.8028795594	-1.5406973889	 0.115667
H	-2.4499551195	-0.4362745497	-2.2044101423	 0.115401
H	-2.5948294446	-3.0979673995	-1.7799379613	 0.091744
H	-2.7540551065	-1.7010811893	 1.9018660423	 0.103043
H	-0.7067022219	-2.8826723449	 0.2228690126	 0.09549
115.0991	188.7411	307.3324	396.8818	421.272	466.2566	538.466	672.889	707.1318	725.0896	735.0664	799.5698	826.955	858.6107	914.4266	924.2737	952.0959	965.658	990.3791	1007.473	1026.6977	1057.2434	1127.0471	1140.0215	1142.9437	1182.3758	1205.721	1222.0101	1243.0086	1287.2673	1297.5362	1329.0469	1413.0729	1483.4805	1803.5317	3074.6151	3133.2541	3141.6126	3154.048	3174.586	3181.5435	3816.5497
ON=C1C2CC3OC2C13	ON=C1[C@H]2C[C@@H]3O[C@H]2[C@H]13	
InChI=1S/C6H7NO2/c8-7-5-2-1-3-4(5)6(2)9-3/h2-4,6,8H,1H2	InChI=1S/C6H7NO2/c8-7-5-2-1-3-4(5)6(2)9-3/h2-4,6,8H,1H2/t2-,3+,4+,6-/m1/s1
