18
gdb 44371	3.28543	1.60414	1.35538	3.8882	74.83	-0.2319	0.0336	0.2655	973.759	0.151301	-401.967093	-401.960302	-401.959358	-401.998194	28.067	
O	 0.0032708479	-0.114652358	-0.1750062612	-0.378683
C	-0.0381543835	 1.0952029745	-0.0565250038	 0.37924
C	-1.3499888322	 1.8761643517	 0.0152118065	-0.324279
C	-1.2045473965	 3.2222204253	 0.7230283811	-0.04448
C	-0.45182315	 3.2120840339	 2.1024097096	-0.252127
C	 0.7024217458	 3.9864419774	 1.4646384761	-0.083248
C	 1.1675007174	 3.2764333618	 0.2092995921	 0.02486
N	 1.1017531366	 1.8532339912	 0.0274396281	-0.30531
C	-0.0758769558	 4.0928594349	 0.142694231	-0.091737
H	-1.7130110283	 2.0219764949	-1.0103947599	 0.125677
H	-2.0727421603	 1.2232499048	 0.5129414301	 0.129506
H	-2.1637849241	 3.7393140753	 0.7847539403	 0.080453
H	-0.9813419	 3.7982138957	 2.8558348341	 0.108342
H	-0.2092356625	 2.2316031343	 2.5258334179	 0.108017
H	 1.3198869392	 4.7304394499	 1.9542293392	 0.087773
H	 2.0392654489	 3.7194103004	-0.2622808278	 0.103528
H	 1.9550236248	 1.3160016213	 0.0836684221	 0.243529
H	-0.1963867874	 4.9254580007	-0.5399567155	 0.08894
95.5957	221.236	324.4797	426.1033	454.5324	467.3279	517.7051	569.2656	642.2532	715.7267	742.7233	788.2844	796.0831	842.3845	846.4978	898.3306	965.869	980.6052	1007.6967	1028.3222	1037.9486	1058.2994	1073.2703	1089.3041	1142.8807	1182.0931	1191.4021	1252.4335	1262.4631	1281.3318	1296.092	1317.3765	1360.6605	1384.3537	1428.9017	1457.2335	1477.3267	1494.1577	1792.9061	3035.0015	3048.1579	3084.6811	3095.1689	3114.4176	3157.3327	3174.483	3186.9409	3605.8942
O=C1CC2CC3C(N1)C23	O=C1C[C@H]2C[C@H]3[C@@H](N1)[C@@H]23	
InChI=1S/C7H9NO/c9-5-2-3-1-4-6(3)7(4)8-5/h3-4,6-7H,1-2H2,(H,8,9)	InChI=1S/C7H9NO/c9-5-2-3-1-4-6(3)7(4)8-5/h3-4,6-7H,1-2H2,(H,8,9)/t3-,4-,6+,7-/m1/s1
