22
gdb 118735	2.93677	0.94253	0.83738	3.0331	84.39	-0.2564	0.0329	0.2892	1504.7579	0.192737	-404.369769	-404.359839	-404.358895	-404.404921	37.01	
C	-0.1423253574	 1.6359269053	 0.0569185866	-0.382931
C	-0.0023352503	 0.1111613729	 0.0457272227	-0.17628
C	 0.4490272626	-0.4259519983	-1.3183144896	-0.21957
C	 0.7476547371	-1.922029566	-1.3505544968	 0.40788
C	-0.4298654364	-2.8173314669	-1.0044403125	-0.442996
C	 1.6096170921	-2.3916192387	-2.552253606	-0.420498
C	 2.6723852045	-2.6380872401	-1.5059105617	 0.433198
N	 3.8529607532	-3.0629152464	-1.5307253885	-0.545841
O	 1.8922463556	-2.2272021575	-0.4494219639	-0.287534
H	 0.8097614453	 2.1228354963	-0.1813082388	 0.117967
H	-0.8794732171	 1.9740162977	-0.6801806935	 0.113399
H	-0.4641806921	 1.9970834544	 1.0383993457	 0.114991
H	 0.7257658112	-0.2013333202	 0.8030073095	 0.118593
H	-0.9600972237	-0.3411923395	 0.3284010616	 0.098239
H	-0.3127485953	-0.2113722671	-2.0804054065	 0.099449
H	 1.3568284173	 0.1065377995	-1.6290538341	 0.101816
H	-1.2549890569	-2.646780689	-1.7041077322	 0.122626
H	-0.1405208422	-3.8702420752	-1.0621508931	 0.126542
H	-0.7921881118	-2.6209810729	 0.007767268	 0.134861
H	 1.2589706872	-3.2893369914	-3.0646657843	 0.130977
H	 1.8587890419	-1.6252171345	-3.2884356658	 0.131158
H	 4.2531897153	-3.0867305424	-0.5908920368	 0.223955
60.0265	85.946	109.2746	168.7417	220.7117	251.0761	312.9151	325.9789	338.5983	368.4497	455.1511	506.6869	517.9176	666.3507	747.1824	798.4715	847.0704	868.1974	881.142	889.9806	933.5764	957.9348	977.4364	1022.184	1045.3983	1053.7905	1094.3021	1103.9677	1158.939	1199.2675	1246.5647	1256.5554	1299.133	1304.3751	1331.4818	1348.9966	1401.0525	1410.3044	1415.0708	1466.0975	1471.8069	1487.9893	1493.5538	1496.3068	1500.9092	1510.4262	1820.5369	3014.552	3029.2095	3033.0335	3042.3077	3050.3686	3072.5295	3082.8298	3099.2381	3104.3918	3113.2699	3124.5528	3136.9025	3470.8741
CCCC1(C)CC(=N)O1	CCC[C@@]1(C)C[C]([NH])O1	
InChI=1S/C7H13NO/c1-3-4-7(2)5-6(8)9-7/h8H,3-5H2,1-2H3	InChI=1S/C7H13NO/c1-3-4-7(2)5-6(8)9-7/h8H,3-5H2,1-2H3/t7-/m0/s1
