15
gdb 125531	5.36918	1.34402	1.08221	3.593	74.	-0.2072	0.0099	0.2171	1063.4009	0.115854	-413.026669	-413.019583	-413.018639	-413.058083	27.104	
C	-0.0216319033	 1.4469498525	 0.0073459838	-0.502103
C	-0.0003049689	-0.040550204	-0.0193906672	 0.382546
N	-0.0478924859	-0.7591109836	-1.1162337521	-0.30423
N	-0.0038003158	-2.0513802946	-0.6539594019	 0.044107
C	-0.0094162069	-3.3484633707	-1.1307820791	-0.148843
C	 0.0631292801	-4.1127370587	 0.0141280685	-0.088825
N	 0.113235999	-3.3521180896	 1.1755819597	-0.409448
C	 0.069561972	-2.1317114868	 0.7025375143	 0.490429
N	 0.0719838101	-0.8180681751	 1.120244605	-0.447921
H	 0.8816956385	 1.8509969027	 0.4771929899	 0.144686
H	-0.0778097281	 1.8162156439	-1.0170961342	 0.168018
H	-0.8862958782	 1.8240934857	 0.564284533	 0.144844
H	-0.0614882486	-3.5864124215	-2.1778198648	 0.135252
H	 0.0824106878	-5.1907084829	 0.0687302	 0.108093
H	 0.1174024084	-0.4949004972	 2.0698933451	 0.283395
124.9841	143.5007	283.6387	296.675	340.7108	399.8731	522.6628	590.1314	619.9511	657.9414	690.4095	747.9976	791.7665	826.8837	841.3365	961.6451	989.1627	1034.0547	1065.4362	1076.1322	1154.8034	1197.5811	1250.3207	1284.5456	1375.0817	1408.6863	1445.732	1462.8618	1478.537	1497.2846	1503.7602	1599.6496	1650.3341	3038.7719	3092.2392	3154.7209	3250.6233	3304.3891	3699.3299
CC1=NN2C=CN=C2N1	Cc1nn2ccnc2[nH]1	
InChI=1S/C5H6N4/c1-4-7-5-6-2-3-9(5)8-4/h2-3H,1H3,(H,6,7,8)	InChI=1S/C5H6N4/c1-4-7-5-6-2-3-9(5)8-4/h2-3H,1H3,(H,6,7,8)
