17
gdb 30147	3.86464	1.19771	1.02646	5.0635	75.79	-0.2091	0.0216	0.2308	1158.5741	0.138469	-418.030126	-418.022628	-418.021684	-418.062341	29.467	
O	-0.4489949625	 0.1529641087	 2.0351983883	-0.432834
C	-0.0321327881	-0.0701950279	 0.7330298718	 0.146273
C	-0.5294955106	-1.2270915155	-0.0820930085	-0.338873
C	-0.944753492	 0.1980178027	-0.4600941139	-0.197508
C	-2.3275068923	 0.6438732538	-0.2280991515	 0.35497
C	-3.1385376745	 1.4102743969	-1.0270606988	-0.207174
N	-4.322728515	 1.5515765329	-0.3309080805	-0.237628
C	-4.1896881084	 0.8827357581	 0.841538512	 0.012885
N	-3.0046775112	 0.3226911326	 0.9383979638	-0.346925
H	-1.422590222	 0.1139962607	 2.0380621469	 0.295277
H	 1.0094608602	 0.2138420187	 0.6131292722	 0.097572
H	 0.1523855028	-1.7518656206	-0.743351973	 0.10589
H	-1.3021982595	-1.842487514	 0.3666615818	 0.124339
H	-0.4837585188	 0.6212913298	-1.3469247412	 0.079765
H	-2.9902153401	 1.8547400308	-1.996472185	 0.132761
H	-5.1377253574	 2.0525887604	-0.6416353938	 0.271361
H	-4.9759747405	 0.835282202	 1.5794114593	 0.139849
73.9938	153.4581	190.9297	314.3664	372.8881	456.9429	519.8321	537.2497	578.7042	659.1437	687.9075	704.7968	764.7864	770.4302	812.303	821.9655	923.3539	952.8002	983.1545	1020.712	1048.2962	1055.3266	1093.803	1119.2751	1143.889	1150.8266	1225.204	1232.3666	1296.518	1326.5879	1373.6126	1386.6226	1463.4278	1470.7595	1504.0398	1531.276	1609.4072	3125.6014	3147.5501	3157.5407	3220.5613	3256.3428	3279.9726	3590.3487	3671.7839
OC1CC1C1=CNC=N1	O[C@H]1C[C@H]1c1c[nH]cn1	
InChI=1S/C6H8N2O/c9-6-1-4(6)5-2-7-3-8-5/h2-4,6,9H,1H2,(H,7,8)	InChI=1S/C6H8N2O/c9-6-1-4(6)5-2-7-3-8-5/h2-4,6,9H,1H2,(H,7,8)/t4-,6-/m0/s1
