20
gdb 103098	2.15656	1.23448	1.17198	3.9111	80.53	-0.2683	0.0266	0.2949	1227.6546	0.16878	-403.15728	-403.147062	-403.146118	-403.192158	37.256	
C	 0.2500269482	 1.4648577636	 0.270354345	-0.391494
C	-0.1567876261	 0.0463165804	-0.1491557649	-0.242858
C	 0.6551212483	-0.4928472032	-1.3193751826	 0.282339
C	 0.4415177715	 0.2012144172	-2.6520790265	-0.461294
C	 2.018289971	-1.0494773102	-1.046614142	 0.071997
O	 2.4741837479	-1.0083931871	 0.2629019423	-0.407402
C	 0.8817342314	-2.0149852268	-1.4150773522	-0.31006
C	 0.3967069053	-2.9096010783	-0.4083873767	 0.301198
N	 0.0299538985	-3.6475203706	 0.4050427177	-0.352268
H	 1.3009787097	 1.490867056	 0.5719038284	 0.137232
H	 0.1064870926	 2.1919045182	-0.5351516996	 0.11329
H	-0.353378254	 1.7961871819	 1.1206630252	 0.117813
H	-0.0478616832	-0.621745193	 0.7076727193	 0.133653
H	-1.2175803108	 0.0263651364	-0.4289044951	 0.100229
H	 0.7008156438	 1.2623054263	-2.5869173636	 0.132727
H	 1.0580071236	-0.2407477168	-3.4410263208	 0.11709
H	-0.6058602019	 0.1274357122	-2.9639176601	 0.129136
H	 2.7856837066	-0.9192796271	-1.8104619917	 0.098318
H	 2.8858889517	-1.8520843465	 0.4814205669	 0.30302
H	 0.904074136	-2.4430893924	-2.4122774989	 0.127333
84.1164	106.7523	118.2463	191.7557	197.5844	229.6937	255.5871	284.337	295.82	355.3588	394.2273	406.8163	516.8869	611.08	649.724	694.1191	784.4336	812.9864	827.0709	932.4614	992.1815	1013.7458	1034.8447	1052.327	1087.8795	1109.4694	1137.2654	1168.7897	1242.392	1277.8696	1317.8988	1329.8009	1361.3109	1383.5544	1409.6254	1420.5233	1454.6559	1480.1172	1493.4191	1500.629	1507.6536	1508.5569	2345.3784	3032.3487	3035.1283	3042.1103	3093.1489	3097.5345	3101.7108	3107.757	3114.6616	3123.3768	3160.3326	3798.9231
CCC1(C)C(O)C1C#N	CC[C@@]1(C)[C@@H](O)[C@H]1C#N	
InChI=1S/C7H11NO/c1-3-7(2)5(4-8)6(7)9/h5-6,9H,3H2,1-2H3	InChI=1S/C7H11NO/c1-3-7(2)5(4-8)6(7)9/h5-6,9H,3H2,1-2H3/t5-,6+,7-/m1/s1
