18
gdb 95726	3.30728	1.19591	0.93139	4.3326	68.65	-0.2504	0.0345	0.285	1218.0788	0.149488	-476.262149	-476.253799	-476.252855	-476.295247	31.595	
O	-0.2229310122	 1.4956842442	-0.2366193512	-0.427358
C	-0.0349833357	 0.1114823996	 0.0173113979	 0.121078
C	-1.4246698786	-0.5107158303	 0.0738159357	-0.1965
C	-1.4087517568	-2.0214937213	 0.2635895758	-0.091132
O	-0.9627358547	-2.7510192096	-0.892840954	-0.233422
C	 0.3665275065	-2.9838412972	-1.0717754612	 0.415226
O	 0.7668798934	-4.0607258566	-1.4326241012	-0.366497
N	 1.1953556962	-1.9090807105	-0.8168157136	-0.349018
C	 0.8320664551	-0.5170941434	-1.0827474771	-0.193352
H	 0.629904272	 1.9373637906	-0.1703914965	 0.285005
H	 0.4711877631	-0.0496822066	 0.9832275958	 0.073382
H	-1.9822085816	-0.0573372362	 0.9009219892	 0.112487
H	-1.9614243141	-0.2660082386	-0.8501105094	 0.121926
H	-0.799264497	-2.3055146578	 1.1297222626	 0.117699
H	-2.4253263694	-2.3836908458	 0.4341857859	 0.127332
H	 2.1522370892	-2.1529316749	-1.0243408709	 0.255727
H	 0.3183759059	-0.4054779483	-2.0469042884	 0.127198
H	 1.7695662989	 0.0445208725	-1.1493258592	 0.100218
69.7999	138.5718	221.8982	279.2624	292.6338	298.4858	330.0859	376.088	447.9837	511.6118	590.7262	597.8525	714.5264	782.193	808.5847	871.7765	883.7321	955.7971	990.2044	1079.0838	1090.806	1115.2328	1118.6854	1143.5031	1207.6502	1253.3865	1277.9029	1305.9794	1314.9021	1349.6338	1374.0569	1399.0331	1427.3692	1449.2721	1461.7366	1475.461	1493.9159	1501.1523	1841.3326	2970.0099	3020.1978	3038.7728	3042.6221	3077.097	3089.0861	3105.2393	3618.7321	3814.0886
OC1CCOC(=O)NC1	O[C@H]1CCOC(=O)NC1	
InChI=1S/C5H9NO3/c7-4-1-2-9-5(8)6-3-4/h4,7H,1-3H2,(H,6,8)	InChI=1S/C5H9NO3/c7-4-1-2-9-5(8)6-3-4/h4,7H,1-3H2,(H,6,8)/t4-/m0/s1
