19
gdb 65579	3.27739	1.24699	1.19142	4.0252	78.58	-0.2452	0.0345	0.2797	1117.3942	0.160721	-382.068318	-382.060066	-382.059122	-382.100882	31.914	
C	 0.4060878943	 1.3165105371	 0.025121963	-0.442096
C	-0.0394320516	-0.1633674307	-0.0004394827	 0.11094
C	 0.5498920548	-0.9618480064	-1.213967576	-0.276844
C	 1.619013799	-1.8677571722	-0.6253898347	-0.011647
C	 2.6884671628	-1.2653820918	 0.2108159371	-0.251462
N	 1.526420686	-1.9046482123	 0.8445600702	-0.085472
C	 0.4598209115	-0.9861949522	 1.2519395391	-0.208267
C	-1.505356446	-0.1825177938	-0.0495855864	 0.259173
N	-2.6612730558	-0.1931316476	-0.0809912294	-0.348721
H	 1.4945532216	 1.4001178678	 0.036990517	 0.129482
H	 0.0338026733	 1.8464530146	-0.8560964983	 0.139371
H	 0.0151642029	 1.8206846479	 0.9132410938	 0.139388
H	-0.2272176397	-1.5700270412	-1.6830618507	 0.134091
H	 0.9372535383	-0.2824180528	-1.9787860206	 0.120798
H	 1.798014125	-2.816616485	-1.1231365019	 0.100998
H	 3.6240105301	-1.7979818102	 0.3556516748	 0.122963
H	 2.7831233414	-0.1841536811	 0.2431206146	 0.113387
H	 0.8042597446	-0.3202171569	 2.0489060995	 0.119033
H	-0.3608338525	-1.587595023	 1.6513157714	 0.134885
101.2725	156.1634	203.7745	213.7389	270.878	335.8671	354.1918	396.8387	525.1383	560.8013	605.688	656.6685	755.0316	781.0017	840.4901	883.1319	898.4295	931.1496	950.9078	959.5815	1024.6656	1046.3731	1099.9215	1109.2301	1144.8786	1149.0234	1166.2201	1196.6056	1232.074	1274.5043	1297.7526	1325.1034	1352.3625	1393.3251	1420.8644	1486.3207	1489.0019	1494.2605	1502.1951	1516.9696	2349.2225	3048.7741	3055.9242	3063.2075	3101.9936	3106.2147	3115.7085	3120.9911	3134.8452	3148.6758	3200.5292
CC1(CC2CN2C1)C#N	C[C@]1(C[C@H]2CN2C1)C#N	
InChI=1S/C7H10N2/c1-7(4-8)2-6-3-9(6)5-7/h6H,2-3,5H2,1H3	InChI=1S/C7H10N2/c1-7(4-8)2-6-3-9(6)5-7/h6H,2-3,5H2,1H3/t6-,7-,9?/m0/s1
