20
gdb 66586	2.83467	1.91976	1.62033	1.5925	80.71	-0.2251	0.0908	0.3159	935.1301	0.17356	-365.97105	-365.964011	-365.963067	-366.002081	29.247	
C	-0.0011348696	 1.4912771267	-0.0469153055	-0.509334
C	 0.0738630961	-0.0007745246	 0.0136688895	 0.354711
C	 0.3761171352	-1.008166181	-1.0306803559	-0.116876
C	 0.4994337296	-2.0586189717	 0.1176115907	-0.108553
C	-1.0447413047	-2.0839389937	 0.1517230102	 0.047445
C	-1.537004425	-1.9132577936	 1.5883573595	-0.225001
C	-0.3742984553	-1.1432762033	 2.2890854768	-0.236607
C	 0.6170452219	-0.8887501833	 1.1472883846	-0.072287
N	-1.0489770064	-0.7879696574	-0.6290819687	-0.198461
H	 0.9896395522	 1.9415148101	 0.0792067903	 0.11559
H	-0.4085557409	 1.8129792957	-1.0094427583	 0.133052
H	-0.6544301416	 1.8856611158	 0.7401220786	 0.121537
H	 0.7321180121	-0.9377410104	-2.050161893	 0.091857
H	 1.1304954417	-2.9438138654	 0.1680567139	 0.065046
H	-1.5432394863	-2.8584082062	-0.4338767812	 0.069492
H	-2.4802828948	-1.3584628839	 1.6029577374	 0.10967
H	-1.7215780023	-2.8836727239	 2.0602431745	 0.097149
H	-0.7081561244	-0.2114964367	 2.7561928626	 0.101093
H	 0.0843090769	-1.7488809303	 3.0779557464	 0.095657
H	 1.6349626958	-0.625450843	 1.4417699477	 0.064819
163.5299	193.4848	203.3357	304.8401	378.8952	474.3437	596.4442	651.1527	685.8672	733.7088	755.7521	792.8426	841.5307	855.6683	889.7778	899.4832	920.8448	933.5979	966.701	978.9485	1009.8435	1019.9551	1049.8701	1056.2248	1102.0336	1137.2327	1152.3347	1167.8879	1191.4068	1221.782	1240.6678	1254.554	1266.064	1284.2171	1317.0223	1330.3149	1357.7723	1398.865	1440.0379	1475.5989	1484.139	1491.6681	1499.9426	3027.2259	3039.871	3051.1154	3075.4217	3086.9697	3094.3309	3095.9546	3098.6249	3113.2858	3131.6451	3199.542
CC12C3C4C(CCC14)N23	C[C@@]12[C@H]3[C@@H]4[C@@H](CC[C@H]14)N23	
InChI=1S/C8H11N/c1-8-4-2-3-5-6(4)7(8)9(5)8/h4-7H,2-3H2,1H3	InChI=1S/C8H11N/c1-8-4-2-3-5-6(4)7(8)9(5)8/h4-7H,2-3H2,1H3/t4-,5+,6-,7+,8-,9?/m0/s1
