16
gdb 33980	2.34832	1.74638	1.21444	5.1634	74.5	-0.2707	0.0111	0.2819	1030.4587	0.124345	-400.710009	-400.702404	-400.70146	-400.74216	29.14	
N	-0.0027703033	-1.1568768563	-0.0299727319	-0.350462
C	 0.0000202891	 0.0001341694	 0.0027343007	 0.199207
C	-0.0068234477	 1.4234953361	 0.0444654263	 0.133897
C	 0.3042676743	 2.2923864289	-1.1627897163	-0.318928
C	 1.1700268249	 2.4320556188	 0.0447894098	-0.103141
C	 0.4684125358	 3.2768915065	 1.1213324114	-0.324111
C	-0.7065117493	 2.2805601141	 1.0953323887	 0.386911
C	-2.1334901414	 2.4160075504	 1.3862758272	-0.267924
O	-1.2299836385	 1.7294748383	 2.2756975629	-0.258722
H	 0.7368961251	 1.7603035325	-2.0028373502	 0.146206
H	-0.3978573557	 3.076480867	-1.4344927737	 0.126565
H	 2.2241939375	 2.189941129	 0.0268177353	 0.123445
H	 0.9691080047	 3.2337583841	 2.0909453984	 0.138144
H	 0.2629522348	 4.3190849859	 0.860834699	 0.114202
H	-2.5235014723	 3.3598210828	 1.7636189741	 0.124132
H	-2.8528929181	 1.7781372924	 0.8757687483	 0.13058
103.0688	136.3944	181.8102	299.6728	333.3907	392.6807	454.2334	496.7767	573.6503	584.4871	612.8399	805.6102	837.204	854.9003	868.1368	888.9869	949.6755	958.1172	1026.8571	1035.6328	1077.7589	1096.0149	1121.9265	1134.4859	1159.0085	1171.8544	1230.3141	1259.8454	1276.4294	1371.0326	1433.9386	1474.6012	1494.5255	1536.1682	2348.5071	3060.7554	3088.9392	3119.24	3123.4528	3179.7506	3208.6707	3219.8377
N#CC12CC1CC21CO1	N#C[C@]12C[C@H]1C[C@]12CO1	
InChI=1S/C7H7NO/c8-3-6-1-5(6)2-7(6)4-9-7/h5H,1-2,4H2	InChI=1S/C7H7NO/c8-3-6-1-5(6)2-7(6)4-9-7/h5H,1-2,4H2/t5-,6+,7+/m0/s1
