13
gdb 67193	3.09895	1.58745	1.51909	4.077	57.01	-0.2589	-0.0194	0.2394	883.3903	0.089229	-493.665687	-493.659137	-493.658192	-493.696558	25.697	
O	-0.1670939653	 1.4441762396	-0.0233581856	-0.448605
C	 0.0117783727	 0.0894987659	-0.0078209771	 0.291003
C	-0.951406312	-1.0699742605	 0.0254950394	 0.014607
O	-0.3301095774	-1.7608635997	-1.0456554979	-0.274532
C	 0.7979728761	-0.8242916059	-0.9966125533	-0.162115
C	 1.8190743892	-1.5548984398	-0.1279675186	 0.47977
O	 2.8807408488	-2.0247169169	-0.4003046976	-0.335231
O	 1.2468499953	-1.6567250099	 1.1220440851	-0.221001
C	 0.0794584475	-0.8627502585	 1.1494430665	-0.035148
H	 0.4985397461	 1.8597860916	 0.537865697	 0.301392
H	-2.01866871	-1.1800509662	 0.1712167729	 0.133116
H	 1.1267869762	-0.4911085258	-1.9771251656	 0.123326
H	-0.2475745372	-0.5934448739	 2.1450759549	 0.133419
142.5781	244.8801	322.4829	334.895	365.6576	468.4268	547.0678	590.7223	659.6967	747.0219	774.8185	807.0074	839.5508	874.0313	925.2863	933.186	997.1525	1042.6855	1083.2228	1086.2787	1121.056	1156.9089	1189.6299	1233.5741	1271.5175	1310.2283	1327.4687	1496.8607	1897.9345	3170.8174	3203.5708	3218.1377	3782.4657
OC12C3OC1C(=O)OC23	O[C@@]12[C@H]3O[C@@H]1C(=O)O[C@@H]23	
InChI=1S/C5H4O4/c6-4-3-5(7)1(8-3)2(5)9-4/h1-3,7H	InChI=1S/C5H4O4/c6-4-3-5(7)1(8-3)2(5)9-4/h1-3,7H/t1-,2+,3+,5+/m0/s1
