16
gdb 56933	2.27626	1.22495	0.9621	2.3221	75.2	-0.2786	0.0033	0.2818	1251.5763	0.121703	-400.706125	-400.696885	-400.695941	-400.740769	33.094	
C	-0.3162967599	 1.3483614001	 0.1257254147	-0.397951
C	 0.2215531646	-0.057844668	-0.2080673456	-0.181532
C	 1.0969617979	-0.0292269592	-1.3844137793	 0.264008
N	 1.7996136686	 0.0036223918	-2.301187415	-0.316481
C	 0.9764684648	-0.6468264226	 0.9765390317	 0.079444
O	 0.1809879497	-0.9977936941	 2.0967666471	-0.244952
C	 0.8411832542	-2.0631683256	 1.3801547419	-0.156267
C	 0.0125718903	-2.9943649083	 0.6647295717	 0.333948
C	-0.6572062962	-3.7955702813	 0.0697182799	-0.415111
H	 0.5029650588	 2.0390451801	 0.3438926465	 0.13811
H	-0.8906966762	 1.7506360882	-0.7115191317	 0.141021
H	-0.9640597727	 1.2820483648	 1.0027941769	 0.14831
H	-0.6191250246	-0.7228019914	-0.4336948566	 0.144967
H	 1.9134643707	-0.1428640576	 1.2191032379	 0.119134
H	 1.6716142729	-2.5077534328	 1.9267718324	 0.129936
H	-1.2506530529	-4.503354924	-0.4555517826	 0.213416
42.6956	104.0716	139.3189	203.1303	224.0377	241.7533	255.108	351.7667	428.0739	518.0539	548.5775	552.7344	626.7366	643.1061	682.5251	793.7976	842.222	866.8742	950.1179	999.8483	1057.1517	1077.7374	1103.9673	1150.058	1176.8953	1274.8145	1287.9106	1322.8524	1381.5313	1407.1307	1455.0302	1497.168	1498.3955	2242.0035	2359.8916	3052.6995	3062.6271	3102.3831	3124.7859	3130.8426	3141.1036	3499.8405
CC(C#N)C1OC1C#C	C[C@@H](C#N)[C@H]1O[C@H]1C#C	
InChI=1S/C7H7NO/c1-3-6-7(9-6)5(2)4-8/h1,5-7H,2H3	InChI=1S/C7H7NO/c1-3-6-7(9-6)5(2)4-8/h1,5-7H,2H3/t5-,6-,7+/m0/s1
