16
gdb 88041	2.49352	1.33452	1.0648	3.5093	69.41	-0.284	-0.0105	0.2735	1158.5368	0.122457	-437.85244	-437.843857	-437.842913	-437.886169	30.705	
C	 0.022734726	 1.5862027559	-0.0434047675	-0.422285
C	-0.1151904118	 0.1023487482	 0.1621447626	-0.006864
O	 1.0416841652	-0.7151160181	-0.1487496854	-0.274075
C	 0.6321015694	-0.6225047724	 1.1857245383	 0.33342
C	 1.4906848331	-0.1678976203	 2.3609681485	-0.154411
O	 0.9945491711	-1.2737185424	 3.1604180065	-0.278915
C	 0.2451772996	-1.8295560417	 2.0621420592	-0.089881
C	-1.1765182819	-2.0039032264	 2.3605637047	 0.284947
N	-2.3071142446	-2.1275082242	 2.5653912134	-0.321236
H	 0.9804711457	 1.9496549337	 0.3383921571	 0.130319
H	-0.0378926218	 1.8321283776	-1.107907976	 0.14235
H	-0.7857720775	 2.1151775384	 0.4717038946	 0.1388
H	-1.0540766837	-0.3415542439	-0.1704414068	 0.119965
H	 2.570132163	-0.2390709392	 2.1866504832	 0.128661
H	 1.2457168833	 0.8014951869	 2.8078080501	 0.128217
H	 0.6681726152	-2.778474142	 1.7087416274	 0.140989
78.2819	94.6075	171.9817	182.9154	197.4763	264.1682	360.8886	432.395	450.5754	521.161	569.9639	605.1241	791.3242	820.1814	904.8218	946.4085	979.6147	1003.7511	1026.8808	1061.2304	1090.9762	1120.8757	1135.7887	1150.7041	1201.5347	1229.932	1316.1937	1344.0584	1367.9766	1412.6503	1474.8153	1489.2549	1512.3314	1537.2611	2356.984	3031.5845	3038.055	3042.2476	3086.5465	3108.5634	3111.3159	3129.0166
CC1OC11COC1C#N	C[C@H]1O[C@]21CO[C@H]2C#N	
InChI=1S/C6H7NO2/c1-4-6(9-4)3-8-5(6)2-7/h4-5H,3H2,1H3	InChI=1S/C6H7NO2/c1-4-6(9-4)3-8-5(6)2-7/h4-5H,3H2,1H3/t4-,5+,6+/m1/s1
