22
gdb 61553	3.40129	0.80857	0.76458	3.4444	82.9	-0.2392	0.0374	0.2766	1594.216	0.192998	-404.377372	-404.366719	-404.365775	-404.414548	38.155	
C	 0.3573486683	 1.802304027	-0.1107957682	-0.385603
C	 0.0763312457	 0.3015525396	 0.0507695382	-0.088511
C	 0.5306948921	-0.5357800685	-1.1675913138	-0.192452
C	-0.1761681152	-0.1965419799	-2.4633746025	 0.018587
C	 0.4044876253	 0.8001120261	-3.4382807355	-0.24964
C	 0.3964192841	-0.6693409554	-3.7763564612	-0.282088
C	 0.8191935914	-0.2177743856	 1.2852124677	 0.407827
N	 0.0477284802	-0.850868161	 2.2167700669	-0.526492
O	 2.0225135233	-0.0917431648	 1.4173407643	-0.37879
H	 1.4353110543	 1.9712279357	-0.1791151516	 0.139003
H	-0.1208098343	 2.1950515929	-1.010589022	 0.121251
H	-0.0163126173	 2.3664225155	 0.7499301636	 0.110589
H	-1.0040007566	 0.1527263071	 0.1847107057	 0.057244
H	 1.6134987866	-0.41173121	-1.2853857009	 0.116838
H	 0.3673618586	-1.5976545064	-0.9377786778	 0.096085
H	-1.2624066743	-0.2103778376	-2.3972740553	 0.075064
H	-0.2716451844	 1.456993948	-3.9748163501	 0.108582
H	 1.3572328169	 1.2545232087	-3.1875210365	 0.115902
H	 1.3433099521	-1.1990862412	-3.7506662594	 0.112976
H	-0.2863614864	-1.0196610582	-4.5425570635	 0.10876
H	-0.9491788591	-0.9308880722	 2.1286748445	 0.256609
H	 0.4945532289	-1.2087500799	 3.0453765674	 0.25826
24.2044	62.0885	102.5917	113.3996	134.729	222.7347	245.5263	286.3895	298.9324	346.9237	396.6432	506.8435	594.6451	618.1988	755.5337	782.2885	793.4555	811.853	839.9944	888.2446	908.4029	938.6423	981.35	1034.4374	1054.8829	1078.8662	1081.1102	1099.806	1126.9988	1141.8865	1185.4846	1199.1519	1228.2314	1251.1919	1278.842	1337.5998	1348.2758	1398.6694	1406.3062	1414.1259	1469.3771	1485.463	1495.8646	1503.3961	1508.5883	1614.1039	1790.7433	3005.6123	3012.1996	3044.1006	3065.6616	3111.8566	3122.209	3128.1245	3133.5246	3134.4655	3205.8323	3221.0682	3601.8522	3742.6086
CC(CC1CC1)C(N)=O	C[C@@H](CC1CC1)C(=O)N	
InChI=1S/C7H13NO/c1-5(7(8)9)4-6-2-3-6/h5-6H,2-4H2,1H3,(H2,8,9)	InChI=1S/C7H13NO/c1-5(7(8)9)4-6-2-3-6/h5-6H,2-4H2,1H3,(H2,8,9)/t5-/m0/s1
