15
gdb 67924	2.09942	1.77432	1.17678	4.242	72.43	-0.2624	-0.0099	0.2525	1061.1292	0.110164	-420.593093	-420.584849	-420.583905	-420.625884	30.884	
C	-0.0921475556	 1.5035560281	 0.0693198427	-0.491679
C	 0.0532942825	 0.020825145	 0.0798090669	 0.442251
O	-1.164585277	-0.7715537715	-0.0261488151	-0.28518
C	-0.6885074809	-1.6533717971	 0.9400574864	 0.468645
O	-1.2727854998	-2.5484491586	 1.4521151746	-0.318758
C	 0.6510157952	-0.9715490364	 1.0477071624	-0.343953
C	 1.2146186552	-0.8075307178	-0.3900195295	-0.300489
C	 1.1303719667	-1.8261064889	-1.3958829353	 0.331859
C	 1.0731739978	-2.6757094464	-2.2436121446	-0.406585
H	 0.874611876	 1.981717625	 0.2485022298	 0.13607
H	-0.4670593067	 1.842706254	-0.9016162097	 0.151047
H	-0.7948737551	 1.8267945829	 0.8425625049	 0.146358
H	 1.2678525095	-0.8640446769	 1.9280995159	 0.132102
H	 2.1560868172	-0.260278029	-0.3701902077	 0.132786
H	 1.0099255752	-3.4289576624	-2.9896575718	 0.205527
97.5822	136.9712	170.206	202.9041	294.549	312.6777	373.352	482.9116	509.1731	579.3741	619.2304	666.8881	674.791	723.254	730.8935	823.6052	893.8081	915.5978	936.8213	970.2898	1015.2566	1073.2229	1090.2434	1125.5962	1188.2636	1250.8738	1311.1792	1410.7768	1469.5097	1475.2506	1496.1123	1952.2165	2244.4269	3043.5517	3113.2401	3124.1591	3127.3108	3227.9907	3502.1934
CC12OC(=O)C1C2C#C	C[C@]12OC(=O)[C@H]1[C@H]2C#C	
InChI=1S/C7H6O2/c1-3-4-5-6(8)9-7(4,5)2/h1,4-5H,2H3	InChI=1S/C7H6O2/c1-3-4-5-6(8)9-7(4,5)2/h1,4-5H,2H3/t4-,5-,7-/m1/s1
