18
gdb 44623	4.01012	1.41796	1.35046	2.5247	75.36	-0.2184	-0.0096	0.2088	992.6587	0.151151	-401.946192	-401.939716	-401.938772	-401.976869	26.972	
O	 0.0420113936	 0.0571759347	-0.053625421	-0.333085
C	 0.0316055351	 1.2582701702	-0.0053305719	 0.411914
C	-1.1656370854	 2.2294946498	 0.0315309084	-0.295227
N	-0.481285166	 3.5405537333	 0.085562801	-0.132549
C	 0.6593139101	 3.3727866104	-0.9177123719	-0.000602
C	 1.5358876584	 4.5942605678	-0.6470521421	-0.225075
C	 1.5329936415	 4.5316818513	 0.9079751852	-0.225076
C	 0.6555989399	 3.2925425799	 1.0763484016	-0.000603
C	 1.1785454296	 2.2402408106	 0.0363274281	-0.146995
H	-1.7929263618	 2.1439256816	-0.8610064309	 0.129379
H	-1.7962201042	 2.0725781306	 0.9119734425	 0.12938
H	 0.3742521683	 3.1553803319	-1.9488403033	 0.081109
H	 2.5312937335	 4.4969028168	-1.0868934003	 0.105683
H	 1.0707743004	 5.5044707468	-1.032252949	 0.116219
H	 2.5267725178	 4.3991454406	 1.342267615	 0.105683
H	 1.0663166347	 5.408065925	 1.3633388271	 0.116219
H	 0.3667371154	 2.9930271387	 2.0856055419	 0.081109
H	 2.1920327891	 1.8403554201	 0.0221239095	 0.082517
139.2129	276.5424	291.2537	342.5888	467.9816	552.4852	593.2369	648.518	701.4254	735.0895	802.1839	816.8992	883.9191	898.8852	917.9866	940.9109	966.4158	992.1153	1014.4112	1020.8478	1047.1704	1048.1569	1121.495	1141.0067	1168.9995	1188.9828	1194.1303	1209.2657	1251.3658	1253.7927	1275.4147	1286.362	1298.671	1316.1513	1359.3212	1468.3573	1479.3716	1500.279	1867.0281	3056.2009	3066.0596	3073.4083	3101.0182	3104.6378	3105.7183	3109.483	3125.4402	3127.2242
O=C1CN2C3CCC2C13	O=C1CN2[C@H]3CC[C@@H]2[C@@H]13	
InChI=1S/C7H9NO/c9-6-3-8-4-1-2-5(8)7(4)6/h4-5,7H,1-3H2	InChI=1S/C7H9NO/c9-6-3-8-4-1-2-5(8)7(4)6/h4-5,7H,1-3H2/t4-,5+,7-
