14
gdb 128908	6.99638	0.72074	0.67843	3.2126	68.18	-0.2885	-0.0546	0.2339	1526.6743	0.100988	-432.86081	-432.852851	-432.851907	-432.894846	27.616	
N	-0.0310178413	-1.1640878957	-0.0943139189	-0.297307
C	-0.0360646023	-0.0106604587	-0.0274990861	 0.256766
C	-0.0124609914	 1.4469416422	 0.0604161041	-0.333355
C	 1.4273664699	 2.0103227388	-0.0220214798	-0.31592
C	 1.4416463136	 3.5009429561	 0.0468306518	 0.256205
C	 2.0148326678	 4.3670730924	 0.9231686385	-0.053121
O	 1.7406218014	 5.614232841	 0.5517666448	-0.156498
N	 0.941970784	 5.5105887945	-0.629379705	 0.00705
N	 0.7940733153	 4.2903600867	-0.8852133089	-0.169256
H	-0.6170802278	 1.8656769631	-0.7504604905	 0.179985
H	-0.4842584448	 1.7526971196	 1.0004374216	 0.158695
H	 2.0319716012	 1.5996489327	 0.7909361705	 0.137614
H	 1.8833650912	 1.6762886476	-0.9597074279	 0.153072
H	 2.6177806432	 4.2361011896	 1.8069612358	 0.176069
52.2952	65.12	100.3508	193.459	313.6041	378.6399	403.6326	510.1067	628.0308	640.8326	704.6896	755.8959	771.1894	855.7799	954.9527	981.8451	1012.3649	1022.2188	1050.3352	1148.7564	1189.6695	1259.7856	1283.8409	1306.6086	1348.641	1381.0595	1468.4537	1470.6839	1486.6904	1623.288	2365.1675	3051.2848	3061.8107	3091.2829	3112.973	3283.348
N#CCCC1=CON=N1	N#CCCc1conn1	
InChI=1S/C5H5N3O/c6-3-1-2-5-4-9-8-7-5/h4H,1-2H2	InChI=1S/C5H5N3O/c6-3-1-2-5-4-9-8-7-5/h4H,1-2H2
