15
gdb 52597	2.0506	1.11	0.92057	5.0171	80.74	-0.2631	-0.0093	0.2539	1361.619	0.109025	-379.596681	-379.586264	-379.585319	-379.633418	35.774	
C	-0.0134177504	 1.480343185	 0.0357002018	-0.500728
C	 0.0054289151	 0.0262312523	 0.0089646212	 0.047402
C	 0.0354197903	-1.1766753602	-0.0118280632	 0.129319
C	 0.0032659907	-2.6529866787	-0.037277675	-0.311686
N	-1.3604152152	-3.2230948471	-0.1213064202	-0.503847
C	 0.7920859495	-3.1522294438	-1.177404304	 0.39839
C	 1.4180106335	-3.5471678891	-2.1209809584	-0.448483
C	 0.6105487216	-3.158418206	 1.2253434978	 0.339718
N	 1.070687296	-3.5302055152	 2.2165406752	-0.338569
H	 0.5777878251	 1.8959630138	-0.7870070142	 0.160044
H	-1.0346275191	 1.8650812848	-0.0565085505	 0.155784
H	 0.4042060178	 1.8590803448	 0.9744240227	 0.163029
H	-1.9264606523	-2.8018237004	 0.6117733116	 0.247741
H	-1.7612256647	-2.9305123179	-1.0088445563	 0.24748
H	 1.9793740923	-3.9006335922	-2.9510186186	 0.214406
21.602	77.5199	95.8692	129.9685	195.7507	208.2997	244.2759	291.9634	313.4186	375.7257	464.9543	504.8656	521.1427	550.8858	571.7403	652.1342	660.0648	676.1145	861.5051	935.651	990.1654	1051.4701	1052.1616	1120.0484	1189.6413	1324.319	1412.6793	1474.4821	1474.8178	1646.1953	2251.4823	2365.9554	2370.1285	3033.1665	3096.9883	3099.3954	3480.8931	3499.6684	3569.1326
CC#CC(N)(C#C)C#N	CC#C[C@@](N)(C#C)C#N	
InChI=1S/C7H6N2/c1-3-5-7(9,4-2)6-8/h2H,9H2,1H3	InChI=1S/C7H6N2/c1-3-5-7(9,4-2)6-8/h2H,9H2,1H3/t7-/m0/s1
