16
gdb 15585	2.81643	2.11535	1.45982	1.1988	66.11	-0.254	0.0327	0.2867	887.269	0.129328	-383.702954	-383.694943	-383.693999	-383.735774	28.883	
C	-0.1286878527	 1.559859846	-0.1649525487	-0.418092
C	 0.0752163642	 0.0666516491	-0.0215996688	 0.109328
O	 0.974154741	-0.4002685742	-1.0212291562	-0.250762
C	 1.4142426808	-1.6589943399	-0.5887936978	 0.023686
O	 1.3289233512	-1.6893382284	 0.8328661965	-0.261052
C	 0.7621245031	-0.4523056921	 1.2677495544	-0.086433
C	 1.783081331	 0.4444328142	 1.8127751444	 0.364979
C	 2.6148605177	 1.176484733	 2.2781781221	-0.482157
H	 0.8237607867	 2.0862096285	-0.0769910789	 0.143847
H	-0.5700921618	 1.7829123402	-1.1396931255	 0.130041
H	-0.806322055	 1.9270965934	 0.6115734431	 0.122791
H	-0.8880157515	-0.4627841836	-0.1105477176	 0.076993
H	 0.7800235375	-2.4692026401	-0.9855420573	 0.09389
H	 2.4504873639	-1.7965048988	-0.9190351505	 0.116635
H	 0.0224636413	-0.6786830307	 2.0437789152	 0.113594
H	 3.3547964228	 1.8177843034	 2.6899179356	 0.202713
48.5252	145.9482	152.4468	227.1344	232.9611	308.5358	410.9375	491.6471	571.2532	631.1455	665.5653	702.0161	750.1631	864.4857	889.3146	946.0758	966.8507	1031.0744	1077.629	1129.7455	1138.2962	1153.2484	1174.3042	1223.9008	1274.9987	1333.6914	1371.5254	1388.3198	1418.7345	1431.4367	1485.2437	1496.7644	1549.6066	2233.8906	2962.1402	2967.3369	3048.3601	3052.6111	3053.6484	3122.6929	3142.9818	3501.2143
CC1OCOC1C#C	C[C@H]1OCO[C@H]1C#C	
InChI=1S/C6H8O2/c1-3-6-5(2)7-4-8-6/h1,5-6H,4H2,2H3	InChI=1S/C6H8O2/c1-3-6-5(2)7-4-8-6/h1,5-6H,4H2,2H3/t5-,6+/m1/s1
