18
gdb 121439	2.25126	1.00599	0.73261	2.8126	80.96	-0.251	-0.0388	0.2122	1530.2724	0.144125	-439.027987	-439.017505	-439.016561	-439.064807	36.13	
C	 0.4429230435	 0.4134076432	-0.6913644523	-0.247973
O	-0.3243268594	-0.5354790604	-1.4367533709	-0.251871
C	-1.6419984729	-0.7135783178	-1.1181825072	 0.208211
N	-2.5416670011	 0.1551950137	-0.9152576321	-0.311492
C	-2.3429743982	 1.5828511508	-1.107472002	-0.169256
C	-3.7232666494	 2.2052147593	-1.3470955905	-0.055312
O	-4.6048668348	 1.8979753807	-0.2916031452	-0.420008
C	-1.9749273302	-2.1104045563	-1.0677830388	 0.286562
C	-2.2408286373	-3.2822194517	-1.0346565156	-0.360946
H	 1.4795613892	 0.0778173886	-0.758024661	 0.142997
H	 0.3650390674	 1.4227807406	-1.103967917	 0.132091
H	 0.134442784	 0.4263681206	 0.3586733707	 0.137004
H	-1.915170583	 2.0290762408	-0.200098718	 0.117176
H	-1.6716033817	 1.8036904219	-1.9486886186	 0.105225
H	-3.6375210893	 3.2959976386	-1.3977027358	 0.10142
H	-4.1111353967	 1.8521525057	-2.3166301846	 0.088119
H	-4.5182487107	 0.9432027039	-0.1646115229	 0.291139
H	-2.4858450596	-4.3154429623	-1.0022600784	 0.206915
45.8831	58.0901	94.5277	122.4895	155.5685	187.5452	200.7137	263.8559	329.7716	383.0047	488.9555	517.7622	544.5867	569.6542	643.4062	666.8348	735.8421	802.9983	904.5029	914.2535	1041.277	1064.6058	1088.9735	1108.781	1171.6873	1205.057	1223.167	1230.545	1261.6814	1367.7593	1386.5356	1439.7815	1464.4639	1477.4251	1494.8028	1506.5125	1508.2996	1723.1883	2237.9697	2972.0711	2998.3093	3037.5118	3049.9488	3072.7505	3112.9048	3134.3251	3500.5739	3752.4665
COC(=NCCO)C#C	COC(=NCCO)C#C	
InChI=1S/C6H9NO2/c1-3-6(9-2)7-4-5-8/h1,8H,4-5H2,2H3	InChI=1S/C6H9NO2/c1-3-6(9-2)7-4-5-8/h1,8H,4-5H2,2H3
