19
gdb 66179	4.00554	0.87888	0.84489	3.3837	73.11	-0.2707	0.0038	0.2745	1413.2621	0.157529	-460.173078	-460.163727	-460.162782	-460.208489	33.801	
O	 0.364945964	 1.2993215658	-0.5869607447	-0.486076
C	 0.1151944488	 0.0102116287	-0.0687196937	 0.411223
C	 0.9483585773	-1.0214200559	-0.8249646492	-0.133185
O	 2.340964432	-0.7169629212	-0.673066554	-0.192618
C	 2.9957754647	-0.2015431696	-1.7338448504	 0.16145
O	 4.1267484654	 0.1751655537	-1.6691436684	-0.274133
C	 0.1579659042	-0.164940887	 1.4787723846	-0.281939
C	-1.1923660175	-0.9292776264	 1.3925379815	-0.21527
C	-1.3868734628	-0.3631718119	-0.0413826838	-0.26392
H	 1.2519583492	 1.560775681	-0.3134174948	 0.290107
H	 0.7957821767	-2.0311757713	-0.4332603569	 0.120887
H	 0.6734154051	-1.0066268083	-1.8870402349	 0.116346
H	 2.3762317777	-0.1789383208	-2.6503287124	 0.087664
H	 1.0221018035	-0.6816924368	 1.9019815634	 0.111639
H	 0.0450671296	 0.8068333468	 1.9654980642	 0.110956
H	-1.0604541932	-2.0143409156	 1.3992139203	 0.107333
H	-1.9530157657	-0.6729072237	 2.1314194152	 0.109295
H	-1.9891457686	 0.5475497582	-0.0527258418	 0.122059
H	-1.7518773505	-1.040368006	-0.8188138444	 0.098181
29.2628	69.211	134.5407	142.7551	232.5828	289.234	311.3613	348.148	411.9385	428.8672	481.2457	637.7614	689.5903	740.338	790.5524	859.2398	907.8158	934.0645	953.1387	977.0673	1018.856	1033.2445	1043.041	1076.3573	1136.2364	1194.8863	1197.8354	1211.0746	1248.6232	1267.7325	1275.3771	1298.5592	1333.5972	1347.778	1400.5784	1429.366	1469.1934	1484.2173	1492.594	1505.6332	1863.9356	2962.824	3029.423	3059.4373	3065.8337	3070.7124	3096.7603	3111.7399	3122.8942	3133.6756	3796.4645
OC1(COC=O)CCC1	OC1(COC=O)CCC1	
InChI=1S/C6H10O3/c7-5-9-4-6(8)2-1-3-6/h5,8H,1-4H2	InChI=1S/C6H10O3/c7-5-9-4-6(8)2-1-3-6/h5,8H,1-4H2
