17
gdb 43983	2.70469	1.75999	1.52244	3.9881	71.97	-0.2318	-0.0126	0.2192	933.3151	0.136871	-421.799326	-421.792197	-421.791253	-421.830924	28.341	
O	 0.2279377164	 0.1906906281	-0.5986203936	-0.311963
C	 0.1213156345	 1.2852132293	-0.1230434867	 0.333956
C	-1.103416503	 2.2446323492	 0.0241490649	-0.40812
C	-0.0811142451	 3.3984472621	 0.047732502	 0.212667
C	 0.7539587442	 3.3021280266	 1.2812986378	-0.369748
C	 1.1090202945	 2.3943769509	 0.1226186338	 0.234499
O	 2.1487864646	 2.7957046931	-0.6944266309	-0.278414
C	 1.5542783136	 3.6171570147	-1.7245599695	-0.085616
C	 0.3211114338	 4.3344388928	-1.0814182472	-0.322867
H	-1.7212313802	 2.1896836343	-0.8764609475	 0.133182
H	-1.7433754424	 2.1512689886	 0.905404175	 0.122697
H	 1.4974541418	 4.0760510648	 1.4367631039	 0.13661
H	 0.3193343749	 2.8952549169	 2.1896425116	 0.126131
H	 2.3266176501	 4.3014804973	-2.0844084435	 0.119449
H	 1.2314983746	 2.9811838187	-2.5599654985	 0.117558
H	-0.4804533001	 4.4661794743	-1.8126364509	 0.119831
H	 0.5936020778	 5.3255355183	-0.7072979007	 0.120148
85.1041	154.1132	279.4591	330.8699	402.8698	462.7047	541.2442	588.4008	599.7832	631.7866	723.186	746.0372	823.9343	848.685	865.1054	912.1787	944.7113	955.0323	995.4276	1013.925	1019.3994	1075.9082	1090.0155	1139.4373	1189.5446	1202.4343	1233.3766	1277.3624	1294.0305	1309.894	1345.4183	1385.9501	1453.7643	1477.9521	1492.8365	1513.7773	1863.019	3015.4939	3058.5674	3060.5179	3100.683	3113.2658	3117.2662	3123.9367	3220.9802
O=C1CC23CC12OCC3	O=C1C[C@@]23C[C@@]12OCC3	
InChI=1S/C7H8O2/c8-5-3-6-1-2-9-7(5,6)4-6/h1-4H2	InChI=1S/C7H8O2/c8-5-3-6-1-2-9-7(5,6)4-6/h1-4H2/t6-,7+/m0/s1
