14
gdb 128922	7.18573	0.75937	0.7181	2.7611	67.47	-0.2973	-0.0353	0.262	1457.7821	0.102403	-429.039288	-429.031452	-429.030508	-429.073333	26.735	
N	-0.0132264818	-1.1626372389	-0.0610417542	-0.286659
C	-0.0308506984	-0.0099279986	 0.0098409765	 0.260907
C	-0.0168158626	 1.4466269533	 0.1001487558	-0.337177
C	 1.4108355574	 2.0017083492	-0.0839584441	-0.165093
N	 1.4209270819	 3.4491896955	 0.0187536028	 0.032191
C	 1.9670605416	 4.2710819367	 0.9348809274	 0.060215
N	 1.6977531309	 5.515330037	 0.6100838218	-0.215841
N	 0.9657983076	 5.4429842113	-0.5337811845	-0.081234
N	 0.7926505663	 4.2174871611	-0.899288829	-0.130502
H	-0.6706637811	 1.8702578876	-0.668132481	 0.193087
H	-0.4156143854	 1.752743079	 1.0730920921	 0.169194
H	 2.0817175463	 1.6061710259	 0.6809846355	 0.157307
H	 1.8021172359	 1.7167242473	-1.063096546	 0.172165
H	 2.5358329815	 3.9365635336	 1.787257907	 0.17144
48.2901	64.922	96.3712	184.4526	316.9358	372.9977	401.3858	505.1481	673.8256	734.4954	763.953	776.7551	865.3729	959.1016	985.2151	1026.9539	1033.8737	1049.9877	1118.3795	1163.2371	1196.5245	1260.4083	1308.7831	1316.3638	1344.0784	1401.8437	1465.8684	1470.5753	1488.4021	1513.9918	2369.3528	3059.4129	3084.9542	3104.2669	3140.1441	3283.2388
N#CCCN1C=NN=N1	N#CCCn1cnnn1	
InChI=1S/C4H5N5/c5-2-1-3-9-4-6-7-8-9/h4H,1,3H2	InChI=1S/C4H5N5/c5-2-1-3-9-4-6-7-8-9/h4H,1,3H2
