19
gdb 50733	2.49287	1.40029	0.96657	3.8734	75.51	-0.2423	-0.0274	0.2149	1216.9911	0.15946	-423.076402	-423.067872	-423.066928	-423.110215	31.646	
O	-0.6044572777	 0.7803978487	-0.7242695776	-0.245979
C	 0.1059356426	 1.0183108672	 0.2186103381	 0.154203
C	 1.2909904999	 1.9677077574	 0.1605687747	-0.203884
C	 1.4229450082	 2.6997129192	-1.1893413436	-0.19557
C	 2.6079050621	 3.6715069481	-1.1920334661	-0.21227
C	 2.4970247047	 4.6884082938	-0.0491681271	-0.201015
C	 2.385324876	 3.9873243498	 1.3201629006	-0.291942
C	 1.2701333776	 2.9551699863	 1.336867307	 0.384866
O	 0.4243059076	 2.9128467795	 2.2003328329	-0.304915
H	-0.0577181897	 0.5377333877	 1.2037769502	 0.101973
H	 2.1911777401	 1.3465660259	 0.3143264503	 0.115103
H	 1.5112973994	 1.9603216438	-1.9898751461	 0.118407
H	 0.4915718507	 3.2449373676	-1.382891917	 0.120221
H	 3.547270386	 3.1097597772	-1.0932119773	 0.096336
H	 2.6573975775	 4.1925626791	-2.1540047724	 0.104632
H	 3.3590665733	 5.3632078954	-0.0439842296	 0.10591
H	 1.6094193437	 5.31497114	-0.2040852649	 0.112588
H	 3.326884477	 3.4587639127	 1.5286756078	 0.117743
H	 2.2113544509	 4.6939442206	 2.1350914701	 0.123594
65.5233	77.9003	145.9014	216.1416	289.9142	303.7913	349.4885	420.9602	472.6173	542.6208	638.3095	669.6651	733.9323	818.0217	851.8885	861.2891	897.4914	941.4092	970.2193	1041.9377	1054.5243	1077.3079	1103.2296	1130.2071	1150.2324	1217.9437	1252.4934	1269.078	1301.3356	1305.3058	1340.6489	1369.1664	1373.9353	1379.7513	1422.7439	1465.7995	1487.1614	1490.4705	1502.0853	1804.3945	1829.1867	2935.6784	2967.827	3012.927	3013.5954	3030.1861	3044.7193	3072.9278	3078.2768	3095.7062	3107.118
O=CC1CCCCC1=O	O=C[C@H]1CCCCC1=O	
InChI=1S/C7H10O2/c8-5-6-3-1-2-4-7(6)9/h5-6H,1-4H2	InChI=1S/C7H10O2/c8-5-6-3-1-2-4-7(6)9/h5-6H,1-4H2/t6-/m1/s1
