18
gdb 107505	2.19979	1.55782	1.01183	2.1558	75.63	-0.2535	0.0158	0.2693	1195.85	0.146698	-439.044423	-439.035462	-439.034518	-439.07858	32.524	
C	 0.0262241207	 1.3136553015	-0.0075790734	-0.343347
N	 0.1435010278	-0.1384365689	-0.0247688204	-0.370437
C	 0.5583759812	-0.7409754762	 0.9911443408	 0.471063
O	 1.0020283781	-0.2747940322	 2.2322458176	-0.288147
C	 1.4293643632	-1.6274440748	 2.5649598213	 0.025342
C	 0.241784456	-2.522534944	 2.620769023	-0.333552
C	 0.8673690744	-2.1721370002	 1.2679841324	 0.136994
C	 1.3063810708	-3.1116464095	 0.178020988	-0.172599
O	 0.2926595522	-3.2341874052	-0.8025509272	-0.415825
H	 0.5693372859	 1.726090352	-0.8641810473	 0.130678
H	-1.0265085419	 1.5903566905	-0.1307832692	 0.133239
H	 0.4066170909	 1.7758704354	 0.9101480885	 0.131936
H	 2.3867068689	-1.7355027597	 3.0556880392	 0.129506
H	 0.4351672417	-3.5446478896	 2.934868963	 0.12922
H	-0.7222925624	-2.1195869293	 2.9155063596	 0.133006
H	 2.247084074	-2.7458995328	-0.263877691	 0.095911
H	 1.4946986734	-4.1148043822	 0.5737595295	 0.108357
H	 0.0697839651	-2.3344204047	-1.0804348244	 0.298656
76.7612	98.8149	123.6409	154.4672	207.836	262.2647	319.7809	399.453	467.0654	496.923	514.1969	668.0777	746.4899	768.2346	855.2944	870.6905	907.0881	949.5642	993.8519	1029.2259	1041.2652	1067.1657	1075.0771	1083.2762	1093.9805	1133.9216	1169.9674	1207.1092	1257.4258	1309.8903	1380.1764	1398.9558	1440.2163	1454.0702	1481.5385	1491.9939	1498.3879	1506.7457	1846.4492	2974.6725	3022.1379	3073.6996	3088.5212	3095.2809	3119.5363	3210.8041	3220.5463	3740.6559
CN=C1OC2CC12CO	CN=C1O[C@H]2C[C@@]12CO	
InChI=1S/C6H9NO2/c1-7-5-6(3-8)2-4(6)9-5/h4,8H,2-3H2,1H3	InChI=1S/C6H9NO2/c1-7-5-6(3-8)2-4(6)9-5/h4,8H,2-3H2,1H3/t4-,6-/m0/s1
