21
gdb 116047	3.01577	1.15967	0.90674	0.8752	88.56	-0.2151	-0.0221	0.193	1339.1366	0.183526	-387.092365	-387.083546	-387.082602	-387.126116	33.55	
C	-0.039418495	 1.4545056027	-0.1511531171	-0.23949
O	 0.1646985521	 0.0754934334	 0.0465917298	-0.246039
C	 0.6554220148	-0.6060928834	-1.1021237323	 0.082533
C	 1.3092285694	-1.9098926532	-0.6158659139	-0.226129
C	 2.336661986	-2.4853253702	-1.5944552128	-0.263088
C	 1.899667138	-2.7617052422	-3.0060500589	-0.060094
C	 0.763902074	-2.4294355765	-3.6396365301	-0.075425
C	-0.3815496365	-1.6563303602	-3.1651349765	-0.076511
C	-0.4542899528	-0.858281021	-2.0925643055	-0.094681
H	 0.8954586481	 1.965727749	-0.4321358987	 0.103009
H	-0.7873413836	 1.6649054201	-0.9306505115	 0.104667
H	-0.3979576585	 1.8679519723	 0.7948816693	 0.126003
H	 1.4378434826	 0.0141069208	-1.5773768902	 0.073886
H	 1.8073114147	-1.6935509291	 0.33423837	 0.106069
H	 0.5254916034	-2.6453996816	-0.4098751179	 0.111136
H	 3.2186908185	-1.8276559469	-1.6330053169	 0.112058
H	 2.7173394686	-3.4258515505	-1.1715951699	 0.110666
H	 2.6285216036	-3.3294280553	-3.5826811549	 0.087759
H	 0.6641676073	-2.7838924026	-4.6639135685	 0.082469
H	-1.269145817	-1.7332681622	-3.7893829338	 0.086027
H	-1.3946993376	-0.3617018036	-1.8691839097	 0.095178
58.3195	111.3627	179.4615	215.6128	244.4243	312.7387	329.5779	395.0584	443.8279	454.7554	555.4651	618.3094	701.2639	776.2636	822.3999	846.3467	898.6993	909.8344	947.5153	995.5358	1015.0932	1017.9437	1064.1995	1078.5015	1107.6359	1143.5095	1185.7597	1191.2054	1217.7153	1249.5305	1254.3181	1285.7246	1329.121	1348.5587	1375.1702	1388.5665	1425.8771	1454.8145	1465.9564	1479.2634	1487.9669	1493.9912	1511.2024	1682.1374	1712.397	2924.7731	2971.491	2992.0629	3017.5472	3019.405	3053.003	3096.4722	3111.5345	3124.3287	3139.9201	3152.8884	3172.1101
COC1CCC=CC=C1	CO[C@H]1CCC=CC=C1	
InChI=1S/C8H12O/c1-9-8-6-4-2-3-5-7-8/h2-4,6,8H,5,7H2,1H3	InChI=1S/C8H12O/c1-9-8-6-4-2-3-5-7-8/h2-4,6,8H,5,7H2,1H3/t8-/m1/s1
