17
gdb 80004	2.84746	1.79802	1.57852	2.4692	72.03	-0.2382	-0.0125	0.2256	902.2796	0.137279	-421.725458	-421.718856	-421.717912	-421.755935	28.067	
O	 0.0743739487	 1.4474007099	-0.1310528423	-0.443792
C	-0.0305034963	 0.0685292144	-0.0438687952	 0.164695
C	 0.1068221667	-0.6660504486	 1.3251459106	-0.207296
C	-1.0883594966	-0.0071437758	 2.0674553923	-0.102809
C	-2.1093724536	 0.0209680873	 1.1833776552	-0.240625
C	-1.4679137888	-0.6533736512	-0.0135777697	 0.19938
C	-1.6382354974	-1.6047322622	-1.1960812046	-0.197139
O	-0.5362053537	-2.4188877895	-0.6549879703	-0.312269
C	-0.7398863472	-1.8163860242	 0.6557958262	 0.148098
H	-0.4778322787	 1.8199674437	 0.5701534073	 0.274415
H	 0.607059134	-0.350304425	-0.8217748313	 0.111673
H	 1.0438708734	-0.7789690415	 1.8720130444	 0.0677
H	-1.0669696117	 0.3605395911	 3.0836696483	 0.110411
H	-3.1105772899	 0.408069618	 1.3067570727	 0.115928
H	-2.5714743787	-2.1816122612	-1.2175226736	 0.109895
H	-1.4040697092	-1.222693114	-2.1942726462	 0.117503
H	-1.250488181	-2.5038283312	 1.3357426963	 0.084232
244.242	261.9737	303.5324	350.5174	413.5352	494.6437	542.3701	586.624	609.0359	714.9194	734.5313	787.8718	825.1066	840.5615	886.7519	900.6709	908.945	925.0105	948.7081	984.2285	1021.8475	1073.7761	1097.0311	1140.2729	1155.7442	1174.8828	1193.5673	1216.6761	1235.472	1241.029	1297.9946	1311.9335	1331.5263	1359.91	1443.7112	1510.6101	1559.9209	3020.1773	3072.944	3089.0717	3107.0991	3131.0718	3222.3774	3246.2933	3739.5893
OC1C2C=CC11COC21	O[C@H]1[C@H]2C=C[C@]31CO[C@@H]23	
InChI=1S/C7H8O2/c8-5-4-1-2-7(5)3-9-6(4)7/h1-2,4-6,8H,3H2	InChI=1S/C7H8O2/c8-5-4-1-2-7(5)3-9-6(4)7/h1-2,4-6,8H,3H2/t4-,5+,6+,7-/m1/s1
