19
gdb 16808	3.49665	1.83693	1.39517	1.4833	77.41	-0.2234	0.0226	0.246	959.5193	0.166407	-327.918411	-327.910683	-327.909739	-327.949991	30.033	
C	-0.1152059763	 1.5823533983	 0.079317536	-0.390794
C	 0.0111906895	 0.0532535007	 0.0134137386	-0.019518
C	 0.7971841572	-0.4510181639	-1.1851115064	-0.185084
C	 1.8103534934	-1.2607724867	-0.8596173006	 0.361494
C	 2.7913331227	-1.9260602954	-1.7711298099	-0.500819
C	 1.8833055292	-1.3907571275	 0.6323225701	-0.151957
N	 2.1859936121	-0.0858220099	 1.293512816	-0.333132
C	 0.786598679	-0.5575403347	 1.1844735447	-0.050318
H	 0.8746466095	 2.0351336838	 0.1758799422	 0.138381
H	-0.5934444052	 1.9770435072	-0.8231244973	 0.10698
H	-0.7210872698	 1.88911184	 0.9386590461	 0.105959
H	-1.0018804009	-0.3765625199	-0.0010680514	 0.074017
H	 0.562465993	-0.1324781988	-2.1963327548	 0.082955
H	 2.5672513768	-1.7220162875	-2.8216476296	 0.122572
H	 3.8135980021	-1.5833906761	-1.5665211334	 0.132284
H	 2.7921211074	-3.0147266914	-1.6307326316	 0.120773
H	 2.2328780223	-2.3050784508	 1.1022503021	 0.080957
H	 2.5045965015	-0.2713400998	 2.2436803709	 0.224256
H	 0.2610929963	-0.8259368776	 2.0950648285	 0.080993
139.1289	188.4168	202.6167	232.508	240.7188	334.6628	414.3127	502.8389	585.9125	596.0715	710.7512	803.164	842.7183	849.7968	871.7838	884.1894	916.5318	940.9237	1016.2643	1036.5199	1056.0783	1070.3719	1104.4702	1120.6683	1137.0504	1167.7933	1197.7604	1252.4945	1282.6061	1318.2622	1337.8752	1381.8334	1400.5244	1414.3155	1417.4293	1480.2157	1489.8068	1494.8321	1505.1798	1708.8511	2986.7612	3016.204	3034.2844	3062.345	3096.196	3110.0144	3126.4944	3152.7388	3164.1603	3176.7624	3469.8952
CC1C=C(C)C2NC12	C[C@H]1C=C(C)[C@H]2N[C@@H]12	
InChI=1S/C7H11N/c1-4-3-5(2)7-6(4)8-7/h3-4,6-8H,1-2H3	InChI=1S/C7H11N/c1-4-3-5(2)7-6(4)8-7/h3-4,6-8H,1-2H3/t4-,6-,7+/m0/s1
