17
gdb 30424	3.32117	1.17009	0.87695	3.3966	75.85	-0.1739	0.0529	0.2268	1299.2463	0.136492	-451.336435	-451.32702	-451.326075	-451.371005	34.264	
C	-0.0405763572	 1.4096577324	-0.0580901502	-0.317405
N	 0.0252185877	-0.0402378156	-0.0073916527	-0.382435
C	 0.6095834041	-0.6377077751	-0.9543764957	 0.497875
N	 0.7576306122	-2.0191264825	-1.0711486005	-0.412707
C	 1.3318992841	-2.3021156451	-2.3118486186	 0.29432
N	 1.4551707715	-3.6154852602	-2.7576977046	-0.606564
C	 1.6453071493	-1.1378701388	-2.8974343683	 0.187586
N	 2.2898845285	-0.8756808234	-4.0972689682	-0.603868
O	 1.2094891306	-0.0787014834	-2.0550118008	-0.255127
H	 0.8921848741	 1.8690492152	 0.2998382906	 0.110489
H	-0.2282091414	 1.8018208156	-1.0675660017	 0.107565
H	-0.8447675271	 1.7534105108	 0.5990445329	 0.112093
H	 0.1031273708	-2.630121847	-0.610486687	 0.2665
H	 1.9625211197	-4.2010326126	-2.1010526753	 0.249614
H	 1.9277240234	-3.6311925754	-3.654463718	 0.259784
H	 1.7044850258	-0.3816575703	-4.7650004442	 0.246494
H	 3.147170054	-0.3429714244	-3.9793183178	 0.245786
36.8066	117.2099	180.8155	198.6799	255.2703	258.9358	306.9034	309.7959	370.8526	387.2006	435.2194	555.1323	620.692	664.927	675.4038	729.9909	791.451	830.9265	845.5318	940.0393	999.3011	1083.2151	1125.5115	1146.5158	1166.0189	1217.261	1266.8876	1315.163	1364.4206	1446.0215	1477.898	1492.303	1500.9105	1637.5073	1663.3518	1789.981	1835.3162	2988.1064	3033.5867	3087.2914	3476.8413	3497.984	3533.9369	3598.8518	3657.0106
CN=C1NC(N)=C(N)O1	CN=c1[nH]c(N)c(N)o1	
InChI=1S/C4H8N4O/c1-7-4-8-2(5)3(6)9-4/h5-6H2,1H3,(H,7,8)	InChI=1S/C4H8N4O/c1-7-4-8-2(5)3(6)9-4/h5-6H2,1H3,(H,7,8)
