17
gdb 71718	2.33927	2.12022	1.75516	0.4518	70.14	-0.2295	0.0634	0.293	879.4597	0.135134	-421.746847	-421.739562	-421.738618	-421.778045	29.658	
C	 0.0341903232	 1.47072964	-0.0892541074	-0.518425
C	-0.0309081504	-0.0238835275	-0.0301344732	 0.338788
O	 0.3142935812	-0.7207781173	-1.2555144906	-0.328122
C	-0.3768140537	-1.8601079328	-0.7075307629	-0.033855
C	 0.3202738453	-2.2440302625	 0.6287814273	-0.08579
C	 0.5894195708	-0.8374238183	 1.1469798335	-0.123496
C	-0.7020787488	-1.5441182021	 1.4969641123	-0.168864
C	-1.2981662433	-0.9509942565	 0.1906969933	 0.354803
O	-2.6209297558	-0.6306605821	 0.0241795725	-0.476603
H	 1.0631882058	 1.8053569898	-0.260513599	 0.133687
H	-0.5890938951	 1.8598501531	-0.8997990923	 0.120986
H	-0.3132506412	 1.9011949627	 0.8547373768	 0.131551
H	-0.6693659257	-2.6145651657	-1.4364386137	 0.078618
H	 0.9427057095	-3.0977598271	 0.8576391075	 0.094182
H	 1.4243652585	-0.5808645027	 1.7852389533	 0.090757
H	-1.1380179636	-1.811587427	 2.4475190687	 0.099338
H	-2.745162787	-0.3056724741	-0.8758710861	 0.292446
170.6835	181.5048	244.9567	293.366	315.3689	385.4612	536.8995	579.0888	625.9777	654.0757	760.9749	769.7256	814.2277	824.1572	836.3385	851.5499	891.887	904.7283	932.8322	974.891	986.354	1012.3682	1030.0656	1039.8172	1116.121	1140.1023	1151.1575	1192.4519	1229.4092	1261.6253	1305.6933	1310.3127	1370.1101	1404.5772	1424.1112	1478.6886	1491.1286	3035.8649	3103.1102	3115.7517	3134.0427	3201.0075	3212.0719	3234.7788	3787.6785
CC12OC3C4C1C4C23O	C[C@@]12O[C@H]3[C@H]4[C@@H]1[C@H]4[C@@]23O	
InChI=1S/C7H8O2/c1-6-3-2-4(3)7(6,8)5(2)9-6/h2-5,8H,1H3	InChI=1S/C7H8O2/c1-6-3-2-4(3)7(6,8)5(2)9-6/h2-5,8H,1H3/t2-,3+,4-,5-,6+,7-/m0/s1
