16
gdb 31364	2.89658	1.38877	0.94511	7.9442	75.55	-0.2193	-0.0111	0.2082	1191.3762	0.126261	-434.129237	-434.120843	-434.119899	-434.162438	30.679	
C	 0.0172082641	 1.4478558214	-0.0019636229	-0.313275
N	-0.0141216129	-0.0048050183	 0.0973136819	-0.373989
C	-1.2158502403	-0.6631046567	 0.0408202589	 0.512748
N	-2.3321716883	-0.011050833	 0.0586207743	-0.391101
C	-3.5571485825	-0.699454449	 0.0703609217	 0.367851
O	-4.6166995532	-0.103380006	 0.1148642941	-0.374209
C	-3.483111121	-2.171292495	 0.0153163652	-0.22429
C	-2.290838027	-2.7862860288	-0.0085321238	 0.009443
N	-1.1292120107	-2.0405299695	-0.0031503657	-0.3821
H	 1.0347956985	 1.7855666302	 0.2064952511	 0.120262
H	-0.2935127236	 1.810326669	-0.9893903128	 0.134767
H	-0.6639421296	 1.8707499336	 0.7367352406	 0.169987
H	 0.7774991641	-0.4877798638	-0.2984745625	 0.239114
H	-4.4078851958	-2.7320206582	 0.001228202	 0.114709
H	-2.1547847006	-3.8608319178	-0.0375692254	 0.131247
H	-0.2393107812	-2.498098368	 0.1059081733	 0.258836
101.3995	115.1734	148.5327	202.7257	224.6368	338.2878	391.7366	455.1857	475.6265	505.2131	550.2823	628.8765	714.1187	750.7364	767.2857	844.8333	950.2057	961.1789	1001.1671	1065.7167	1104.4857	1152.7257	1177.4937	1212.5837	1277.4329	1298.3852	1414.1985	1450.584	1476.7366	1488.1911	1511.5454	1552.0479	1638.7329	1707.5535	1773.6934	3030.6899	3108.1551	3155.4567	3202.0242	3232.744	3617.8291	3646.0228
CNC1=NC(=O)C=CN1	CNc1nc(=O)cc[nH]1	
InChI=1S/C5H7N3O/c1-6-5-7-3-2-4(9)8-5/h2-3H,1H3,(H2,6,7,8,9)	InChI=1S/C5H7N3O/c1-6-5-7-3-2-4(9)8-5/h2-3H,1H3,(H2,6,7,8,9)
