17
gdb 11003	4.06388	1.74521	1.48119	3.976	68.45	-0.2351	0.0316	0.2666	889.3561	0.143822	-363.903928	-363.896645	-363.895701	-363.935152	28.119	
C	-0.0421228311	 1.5177917725	 0.007954937	-0.486119
C	 0.0505621856	 0.0123894839	 0.00754682	 0.341704
C	-0.8088889605	-0.8126250988	 0.9208980088	-0.324224
C	 0.6968488952	-0.7886373079	 1.1220323228	-0.197768
C	 1.4353127778	-1.9313965038	 0.4785143592	 0.423218
O	 2.1684923322	-2.7373084549	 1.0078702153	-0.386763
N	 1.11131044	-1.8949986008	-0.8601842158	-0.324613
C	 0.4507226541	-0.6791401921	-1.3008648197	-0.227185
H	 0.9004990742	 1.9759167372	-0.3119190284	 0.122756
H	-0.8301014847	 1.8660030607	-0.6704402874	 0.122867
H	-0.2772695775	 1.896359653	 1.0070947758	 0.123361
H	-1.4008247701	-0.2771886629	 1.6558532521	 0.117642
H	-1.2630155932	-1.7275847775	 0.5532499522	 0.1232
H	 1.1192303126	-0.3509586794	 2.0169497837	 0.105802
H	 1.5396548492	-2.5486666148	-1.495487817	 0.249788
H	-0.4190792403	-0.8963425274	-1.9341330064	 0.110942
H	 1.1308104266	-0.035256487	-1.8777713721	 0.105391
123.8607	181.8366	209.1586	286.3152	370.8515	376.4224	464.9116	504.4283	547.1858	668.5178	726.4839	772.9202	827.4332	870.4856	928.7823	953.3017	976.9122	1032.1702	1042.4591	1074.6158	1076.5576	1094.0916	1133.2145	1218.8256	1225.9578	1246.2353	1313.5157	1342.7927	1395.1649	1426.0515	1444.8022	1489.2923	1493.6316	1501.3554	1529.2718	1829.2096	2991.3351	3025.1978	3032.5409	3084.1934	3105.1333	3125.5036	3204.2414	3214.9361	3648.3882
CC12CC1C(=O)NC2	C[C@]12C[C@H]1C(=O)NC2	
InChI=1S/C6H9NO/c1-6-2-4(6)5(8)7-3-6/h4H,2-3H2,1H3,(H,7,8)	InChI=1S/C6H9NO/c1-6-2-4(6)5(8)7-3-6/h4H,2-3H2,1H3,(H,7,8)/t4-,6+/m0/s1
