23
gdb 123073	7.78018	0.37214	0.35989	1.2406	92.75	-0.2399	0.0641	0.3041	2982.8184	0.202866	-388.270947	-388.258915	-388.257971	-388.311016	40.344	
C	 0.0232500773	 1.5196754988	 0.0100358429	-0.496875
C	 0.0244849291	 0.0633155703	 0.0023443718	 0.107083
C	 0.0366176066	-1.1408769894	-0.004299222	 0.026064
C	 0.0174664437	-2.5999149734	-0.0119451954	-0.358668
C	-1.4062294253	-3.1920074351	-0.0015318691	-0.167436
C	-1.4081450143	-4.7235101809	-0.0098366311	-0.18267
C	-2.8179716958	-5.320712434	 0.0004167233	-0.171469
C	-2.8208944394	-6.8434570479	-0.0078595576	-0.072994
O	-4.1722793704	-7.2799584386	 0.0026876135	-0.421478
H	 1.043662769	 1.9192244385	 0.0024440711	 0.145053
H	-0.4950941458	 1.9241008537	-0.866648208	 0.144604
H	-0.4782895609	 1.914808893	 0.9006210522	 0.144599
H	 0.5560534535	-2.9705287084	-0.8950945839	 0.121687
H	 0.5727770236	-2.9799273179	 0.8567262387	 0.121689
H	-1.938871901	-2.822767913	 0.8828657231	 0.106771
H	-1.9556391618	-2.8132403456	-0.871521144	 0.106772
H	-0.8633734509	-5.0819891118	-0.8947651269	 0.093533
H	-0.8465575999	-5.0915377536	 0.8605414232	 0.093532
H	-3.3670328806	-4.9782462386	 0.8862270937	 0.105538
H	-3.3838693377	-4.968668342	-0.870925775	 0.10554
H	-2.2904908223	-7.2117216387	-0.9018184958	 0.082319
H	-2.2735215891	-7.2213938455	 0.8717166294	 0.082319
H	-4.1777926376	-8.24140001	-0.0024089041	 0.284488
23.7729	43.9923	54.8815	66.5101	123.7615	137.2045	143.563	221.561	261.6576	269.1115	274.6839	370.5376	388.1965	481.5175	519.9395	734.0713	763.4834	771.9624	841.9898	965.3102	985.529	1023.6451	1054.0009	1054.2583	1054.8137	1065.4927	1090.6721	1131.9265	1168.568	1199.9335	1220.2553	1264.0733	1275.9359	1308.3453	1323.0804	1326.4791	1328.824	1376.1041	1399.5948	1415.5453	1463.7798	1474.1189	1479.4957	1480.2979	1485.0165	1493.2609	1507.8943	1528.3532	2373.523	2955.1207	2979.7646	3000.3941	3005.4388	3024.3903	3027.544	3028.4138	3030.3827	3035.9188	3069.7258	3081.679	3083.7428	3083.8259	3831.1145
CC#CCCCCCO	CC#CCCCCCO	
InChI=1S/C8H14O/c1-2-3-4-5-6-7-8-9/h9H,4-8H2,1H3	InChI=1S/C8H14O/c1-2-3-4-5-6-7-8-9/h9H,4-8H2,1H3
