18
gdb 124655	4.28968	0.97369	0.87382	1.642	74.74	-0.2461	0.0002	0.2463	1359.759	0.146804	-439.085016	-439.076332	-439.075388	-439.118816	32.043	
C	-0.1163726348	 1.5463782463	 0.1027115187	-0.395361
C	 0.0166652446	 0.0347184078	-0.0043005731	 0.144003
C	 0.7547834474	-0.5907526535	 1.174893458	-0.398301
O	-1.3446929595	-0.4721372876	-0.0698945355	-0.286664
C	-1.5335396621	-1.6739463318	-0.6136848009	 0.483933
N	-0.5653308227	-2.4286432914	-1.0880371161	-0.245269
O	-1.2062917152	-3.5755901893	-1.5721332924	-0.182527
C	-2.5246536053	-3.4565110083	-1.3623776315	 0.100092
C	-2.8178717834	-2.2819611491	-0.7579886553	-0.369227
H	 0.874185656	 2.0091351625	 0.134205382	 0.120786
H	-0.6613935761	 1.9501244228	-0.7544623516	 0.125332
H	-0.6545957059	 1.8212984678	 1.015295072	 0.125779
H	 0.5156462289	-0.2389407002	-0.939950148	 0.113868
H	 0.2446620272	-0.3540064484	 2.1140648095	 0.119377
H	 0.8145188491	-1.6750052056	 1.0634249467	 0.147099
H	 1.7741814342	-0.1956777188	 1.2271809946	 0.118399
H	-3.1284708193	-4.2860617289	-1.6976608764	 0.152058
H	-3.773723343	-1.8884011643	-0.4589612208	 0.126624
72.9527	79.0121	159.0082	214.6595	250.2536	309.2262	318.5953	393.2029	449.5309	492.8697	592.0463	724.0179	733.4908	789.226	844.057	871.6405	910.9545	935.2022	936.6493	947.3287	956.9037	1034.7009	1086.1419	1140.8643	1160.4258	1170.1054	1203.9443	1322.2284	1366.2691	1377.9044	1402.3125	1417.455	1451.5508	1480.9755	1487.0797	1495.8369	1511.3706	1528.6292	1624.9023	3041.7959	3045.6078	3058.3318	3110.6462	3120.5688	3124.733	3139.6338	3259.5907	3294.9803
CC(C)OC1=NOC=C1	CC(C)Oc1nocc1	
InChI=1S/C6H9NO2/c1-5(2)9-6-3-4-8-7-6/h3-5H,1-2H3	InChI=1S/C6H9NO2/c1-5(2)9-6-3-4-8-7-6/h3-5H,1-2H3
