17
gdb 69259	2.87377	1.56725	1.19445	3.9306	68.36	-0.2623	-0.0011	0.2612	1043.8978	0.136142	-458.988749	-458.980916	-458.979971	-459.021086	29.973	
C	-0.0387236189	 1.4736654215	-0.1348216755	-0.453802
C	-0.0356247562	-0.0239489808	 0.0261423594	 0.407199
C	-0.7906194226	-0.7189920054	 1.1116700477	-0.324485
C	 0.7417192458	-0.7170053151	 1.1221399225	-0.257219
C	 1.4651742695	-1.9920057337	 0.8222527747	 0.435346
O	 1.9940259339	-2.6783394062	 1.6508830119	-0.332766
O	 1.4740071743	-2.3697510594	-0.4885412172	-0.22618
C	 1.1804112792	-1.3475051517	-1.4462986065	-0.004293
O	-0.0390758804	-0.7268040547	-1.2029882906	-0.269327
H	 0.8538068884	 1.8129112297	-0.6708550362	 0.126515
H	-0.9191066467	 1.7901046947	-0.702701331	 0.137518
H	-0.0608198322	 1.9690672829	 0.8399974674	 0.124924
H	-1.2786307554	-0.1269916019	 1.8773129381	 0.127508
H	-1.2908326004	-1.6423604785	 0.8455582591	 0.143479
H	 1.2160364914	-0.1237765525	 1.8946887307	 0.125127
H	 2.0088506231	-0.6238303084	-1.4492010616	 0.10493
H	 1.1115923971	-1.8518543405	-2.4104339529	 0.135526
93.6276	145.1041	220.8949	257.8905	312.9327	349.3006	420.1549	442.6224	505.7615	555.4463	682.9133	738.365	762.6443	798.6787	854.662	919.3203	933.7478	972.9495	1022.7857	1028.922	1070.6996	1106.1103	1114.0083	1133.8172	1170.1494	1212.0911	1255.1372	1301.465	1309.3442	1395.2884	1423.6733	1449.9691	1478.1562	1479.8725	1499.6504	1519.1558	1856.3565	2996.1912	3037.0684	3105.2203	3118.1797	3134.9278	3145.1467	3188.4752	3240.6659
CC12CC1C(=O)OCO2	C[C@]12C[C@H]1C(=O)OCO2	
InChI=1S/C6H8O3/c1-6-2-4(6)5(7)8-3-9-6/h4H,2-3H2,1H3	InChI=1S/C6H8O3/c1-6-2-4(6)5(7)8-3-9-6/h4H,2-3H2,1H3/t4-,6-/m0/s1
