18
gdb 102059	2.20469	1.20941	0.82307	4.9954	72.88	-0.2623	-0.0373	0.225	1357.4041	0.144602	-439.098562	-439.088128	-439.087183	-439.135086	35.71	
C	 0.0839368414	 1.595014817	 0.0116256489	-0.405611
C	 0.0021892955	 0.0542248186	 0.0516362598	-0.165352
C	 0.7261606988	-0.4480791802	 1.2263702393	 0.278946
N	 1.2975509201	-0.8296115374	 2.1555585607	-0.312843
C	-1.4503941517	-0.4962043224	 0.0397513574	-0.116312
C	-2.2341962049	-0.0164753736	-1.2011321393	-0.086775
O	-3.4409979639	-0.7298720251	-1.3801114576	-0.406963
C	-1.4510235513	-2.0213361855	 0.0384876884	 0.179931
O	-2.0429939498	-2.698101921	 0.8335250835	-0.239985
H	 1.1235459885	 1.9203501024	 0.093174574	 0.147301
H	-0.3201306534	 1.9801383521	-0.9267708929	 0.136017
H	-0.4761500007	 2.0348411527	 0.8415027686	 0.143151
H	 0.5208268464	-0.3432559848	-0.8318462754	 0.133814
H	-1.9686182019	-0.1766991745	 0.9513851737	 0.10794
H	-2.4086086158	 1.066253107	-1.1378923106	 0.110709
H	-1.6455714002	-0.201075125	-2.1078720384	 0.120081
H	-3.9748278111	-0.6397911764	-0.5831350727	 0.294811
H	-0.8573082161	-2.477380074	-0.7881410373	 0.08114
45.2512	55.9282	101.7849	125.3599	194.5918	215.1639	233.4123	270.9406	302.4529	340.3901	374.3286	427.972	516.6608	565.7818	598.2962	830.9099	867.1873	934.259	958.5177	1032.3489	1052.6729	1077.0447	1105.8131	1124.1702	1163.5117	1200.7933	1254.6947	1324.7641	1330.1617	1354.9785	1388.7252	1410.6212	1415.9405	1429.3184	1496.0042	1499.6259	1511.23	1844.9202	2358.2591	2859.6358	3007.7904	3019.2178	3048.6575	3054.9864	3068.5388	3130.3964	3138.9226	3809.988
CC(C#N)C(CO)C=O	C[C@@H](C#N)[C@@H](CO)C=O	
InChI=1S/C6H9NO2/c1-5(2-7)6(3-8)4-9/h3,5-6,9H,4H2,1H3	InChI=1S/C6H9NO2/c1-5(2-7)6(3-8)4-9/h3,5-6,9H,4H2,1H3/t5-,6+/m0/s1
