19
gdb 112892	2.3147	1.48495	1.15909	3.3579	71.96	-0.247	0.0028	0.2498	1148.2103	0.158745	-460.203851	-460.194799	-460.193854	-460.237843	32.959	
C	-0.4364219972	 0.9350519445	 0.0706305312	-0.247922
O	 0.1227971042	-0.3680067301	-0.0127650002	-0.252162
C	 0.8911282042	-0.5957929763	-1.1825678727	-0.010927
C	 1.5724249842	-1.9536145973	-1.0810885071	-0.274901
C	 0.5444652479	-2.9186615188	-1.7099843593	 0.122801
C	-0.4117176288	-3.5615594246	-0.714436688	-0.397843
O	-0.2093137335	-2.0986461641	-2.6400066436	-0.227949
C	-0.0503379629	-0.77778823	-2.3907858049	 0.424207
O	-0.6161885166	 0.076044629	-3.0142907956	-0.346439
H	 0.3525813057	 1.701668658	 0.0570163822	 0.109912
H	-1.1335951439	 1.1363840531	-0.749963365	 0.145393
H	-0.9665128793	 0.9841362116	 1.0241147336	 0.128855
H	 1.5798970083	 0.2398198819	-1.3606636751	 0.091585
H	 2.4954861808	-1.9476332197	-1.6671334145	 0.117331
H	 1.8144946725	-2.2069154502	-0.047677833	 0.125942
H	 1.0311483754	-3.6856904401	-2.3183249389	 0.096413
H	-0.871987495	-2.7965897982	-0.0838064602	 0.145306
H	-1.196583477	-4.1116868251	-1.2400856711	 0.131455
H	 0.1320917908	-4.2621735337	-0.0726032577	 0.118944
80.804	115.7641	119.429	182.5016	241.2647	251.027	302.4359	351.4505	397.6607	433.9605	497.9388	671.6412	722.8513	750.6663	796.2578	861.0667	908.4687	950.0502	983.5091	1029.5532	1054.8007	1118.5163	1128.5273	1141.1591	1186.7361	1190.9531	1218.5885	1236.0373	1281.8533	1327.9273	1359.0629	1382.2468	1389.9459	1410.725	1474.3943	1477.7635	1485.0784	1489.5414	1500.8917	1514.4979	1864.5931	2995.8005	3027.2002	3044.1502	3065.4558	3074.9682	3077.7844	3117.5831	3129.0426	3130.3113	3136.4021
COC1CC(C)OC1=O	CO[C@H]1C[C@@H](C)OC1=O	
InChI=1S/C6H10O3/c1-4-3-5(8-2)6(7)9-4/h4-5H,3H2,1-2H3	InChI=1S/C6H10O3/c1-4-3-5(8-2)6(7)9-4/h4-5H,3H2,1-2H3/t4-,5+/m1/s1
