17
gdb 5068	3.24269	1.95737	1.24037	1.0247	71.9	-0.1692	0.0618	0.231	961.5385	0.143053	-360.072531	-360.063561	-360.062617	-360.105889	32.521	
C	 0.0226638849	 1.5239531949	 0.0215167354	-0.522279
C	 0.0175718026	 0.0275342576	 0.0099737612	 0.210642
C	-0.0075032565	-0.7981591224	-1.1006330513	 0.162337
N	-0.0055270979	-0.549205588	-2.4956764525	-0.614656
N	-0.0384645166	-2.0949805102	-0.665031034	-0.255098
C	-0.0214897424	-2.1310023009	 0.7136045312	-0.175606
C	 0.0102104678	-0.8262391386	 1.1568324597	 0.153733
N	-0.0540946596	-0.3651249446	 2.490822492	-0.605885
H	 0.9636699616	 1.9426068084	 0.4054842301	 0.111184
H	-0.115197576	 1.9225312705	-0.9887893881	 0.102295
H	-0.7815214796	 1.9249059362	 0.6503637795	 0.129829
H	-0.8720618956	-0.1200742602	-2.8065274182	 0.24072
H	 0.7477776701	 0.0757551815	-2.7618374783	 0.240516
H	-0.0328248043	-2.8837165768	-1.28680285	 0.254386
H	-0.046628751	-3.0622906128	 1.2556030882	 0.099746
H	 0.1465537556	-1.1024979429	 3.155587638	 0.232747
H	 0.5957242867	 0.394648528	 2.6588722072	 0.23539
64.8879	116.1759	169.609	188.1198	232.9779	270.3998	297.7653	305.6465	462.1524	511.9243	570.8696	623.3451	644.3215	686.8688	713.2757	762.5007	808.299	818.1209	942.5982	1062.4105	1083.9713	1090.3214	1160.9077	1203.8185	1230.5229	1284.0364	1348.6059	1412.6353	1446.8782	1483.7061	1501.5585	1506.498	1565.8038	1632.2695	1653.6885	1669.8246	3002.1117	3051.232	3092.3794	3261.2058	3492.4547	3512.4782	3560.5505	3601.2932	3692.1955
CC1=C(N)NC=C1N	Cc1c(N)[nH]cc1N	
InChI=1S/C5H9N3/c1-3-4(6)2-8-5(3)7/h2,8H,6-7H2,1H3	InChI=1S/C5H9N3/c1-3-4(6)2-8-5(3)7/h2,8H,6-7H2,1H3
