16
gdb 65457	3.37354	0.97839	0.92262	3.806	75.01	-0.2476	0.0169	0.2645	1303.7481	0.120708	-437.816113	-437.806694	-437.805749	-437.850608	34.098	
O	-0.5589152268	 1.2690646859	-0.264212495	-0.433758
C	-0.1809854723	-0.0502584686	-0.0038283666	 0.151239
C	-0.3599245543	-0.5796133348	 1.416854018	-0.370836
C	-1.3414903763	-0.9716671877	 0.3595306498	 0.068432
O	-2.6205940087	-0.4310360471	 0.4850267604	-0.189452
C	-3.2317920179	-0.0570704086	-0.6691705249	 0.140771
N	-4.4314184976	 0.3249341833	-0.6335012834	-0.441117
C	 0.8866929769	-0.575578711	-0.813671621	 0.309156
C	 1.7904343522	-1.0005647142	-1.4842850989	-0.467806
H	 0.1615151933	 1.8479898383	 0.0090250101	 0.295512
H	 0.3355645571	-1.3205071049	 1.7916209546	 0.133201
H	-0.7195327628	 0.1512146193	 2.1323443752	 0.144822
H	-1.3107224698	-1.9827396926	-0.0383769491	 0.121725
H	-2.5804901074	-0.1256650484	-1.54762785	 0.104062
H	-4.7390218856	 0.5836350263	-1.5687142428	 0.231032
H	 2.58271414	-1.3761888951	-2.0836703764	 0.203016
76.9005	93.7781	124.1196	151.7026	215.9075	252.1237	277.229	349.5005	425.9126	467.1809	548.722	581.3544	601.2697	626.0076	685.4713	740.5122	824.3456	825.3767	890.9467	915.4064	1022.9001	1043.6502	1062.9161	1075.3236	1118.0433	1191.2978	1242.931	1249.1028	1285.8557	1342.8555	1394.8948	1419.7999	1464.5059	1749.4086	2230.9291	3061.9531	3140.8673	3145.6175	3245.8357	3501.0059	3519.0684	3801.9493
OC1(CC1OC=N)C#C	O[C@]1(C[C@H]1O[CH][NH])C#C	
InChI=1S/C6H7NO2/c1-2-6(8)3-5(6)9-4-7/h1,4-5,7-8H,3H2	InChI=1S/C6H7NO2/c1-2-6(8)3-5(6)9-4-7/h1,4-5,7-8H,3H2/t5-,6+/m1/s1
