18
gdb 128844	5.89666	0.70103	0.66495	3.0035	74.49	-0.249	0.009	0.2581	1682.4203	0.149025	-435.282661	-435.27377	-435.272825	-435.317905	30.846	
C	 0.0298551604	 1.3467874801	-0.194005565	-0.227715
O	-0.0115440151	-0.0356238071	 0.0610485598	-0.229839
C	-1.3114169762	-0.5724016211	-0.0441619422	-0.049989
C	-1.2274568508	-2.0715806881	 0.2442542552	-0.306785
C	-2.5525757786	-2.7457178967	 0.1032237172	 0.332746
N	-3.1721834533	-3.329328943	 1.1200959439	-0.26424
N	-4.3097312361	-3.7862557339	 0.5416191143	-0.178212
C	-4.3298967709	-3.4654909851	-0.7661747832	 0.016815
N	-3.235368385	-2.8054210571	-1.083514318	-0.299757
H	 1.0693018204	 1.6684991712	-0.0918378691	 0.125153
H	-0.3179896593	 1.5864297822	-1.2116500856	 0.103565
H	-0.5890068475	 1.9141779204	 0.5197734918	 0.101831
H	-1.9923518377	-0.0839834349	 0.6738270164	 0.088138
H	-1.724546447	-0.4072256336	-1.0518817821	 0.106812
H	-0.5115908408	-2.5141041028	-0.4568811037	 0.12689
H	-0.8491365123	-2.2318098266	 1.256573412	 0.127228
H	-4.9852730508	-4.2905947853	 1.0915132693	 0.281993
H	-5.1402860695	-3.7291161686	-1.4293676411	 0.145367
37.2721	82.8231	96.2322	111.5107	233.766	263.5558	334.2505	350.9067	465.4838	538.37	682.0398	727.5005	790.2988	816.0697	857.1071	991.1252	999.4211	1001.8418	1061.7109	1064.8854	1103.3746	1163.2612	1166.9972	1183.2601	1227.575	1230.3707	1289.0691	1303.9213	1314.239	1355.5184	1419.9956	1470.8747	1475.0878	1481.8308	1485.7805	1494.5379	1505.133	1533.3222	1561.9645	2955.6061	2969.9756	2998.7121	3010.2851	3054.7208	3111.4461	3116.6892	3256.917	3667.7396
COCCC1=NNC=N1	COCCc1n[nH]cn1	
InChI=1S/C5H9N3O/c1-9-3-2-5-6-4-7-8-5/h4H,2-3H2,1H3,(H,6,7,8)	InChI=1S/C5H9N3O/c1-9-3-2-5-6-4-7-8-5/h4H,2-3H2,1H3,(H,6,7,8)
