13
gdb 24329	4.0262	1.73125	1.21067	0.1166	74.56	-0.2236	-0.0799	0.1437	920.1879	0.093204	-415.650976	-415.645249	-415.644305	-415.680987	23.065	
O	-0.0112196774	 1.3315021325	 0.0093513473	-0.11811
C	 1.2481908978	 1.8278330423	-0.0000140654	-0.09541
C	 2.1362341131	 0.7817192351	-0.0141836069	 0.236987
N	 3.5026453016	 0.7537054185	-0.0274235667	-0.319547
C	 4.0010399402	-0.4522983139	-0.0387101431	-0.03608
C	 3.2040173177	-1.6589038158	-0.0375876737	-0.03608
N	 1.8991821303	-1.6737631576	-0.0251711259	-0.319547
C	 1.3371894169	-0.427947383	-0.0130621394	 0.236987
C	 0.0265047907	-0.0216661165	 0.0016723387	-0.09541
H	 1.344661674	 2.8996295231	 0.004862369	 0.155682
H	 5.0852702434	-0.5466486628	-0.0496027932	 0.117423
H	 3.7162869491	-2.6191401905	-0.047683004	 0.117423
H	-0.9214448172	-0.5310086214	 0.0079899033	 0.155682
223.0564	249.267	450.6469	469.6339	557.1799	582.9884	629.3937	636.0161	696.9507	739.4915	743.1827	836.9388	892.0124	897.371	949.2931	988.7837	1010.6134	1076.7068	1187.7947	1218.4131	1238.2878	1312.9734	1364.6803	1403.0548	1409.8408	1453.5797	1580.1835	1609.0994	1622.1506	3140.8826	3158.2324	3289.0676	3294.0264
O1C=C2N=CC=NC2=C1	o1cc2nccnc2c1	
InChI=1S/C6H4N2O/c1-2-8-6-4-9-3-5(6)7-1/h1-4H	InChI=1S/C6H4N2O/c1-2-8-6-4-9-3-5(6)7-1/h1-4H
