16
gdb 125681	2.51222	1.79044	1.05453	2.7463	79.68	-0.2004	-0.0336	0.1668	1085.9886	0.126483	-430.243031	-430.234865	-430.23392	-430.275462	31.356	
C	 0.0787360465	 1.4863320883	-0.0052170918	-0.459592
C	 0.0398836988	-0.0090702497	 0.0074255394	 0.328161
N	-0.0024063941	-0.6359710107	-1.1390407617	-0.260646
N	-0.043120764	-1.9605329982	-1.109598996	-0.107828
N	 0.0233809608	-2.761895894	-0.0372651643	-0.298389
C	 0.0388340679	-2.171176294	 1.125333971	 0.353432
N	 0.0408362292	-2.9631385245	 2.2586597744	-0.565297
C	 0.0123051342	-0.7116298943	 1.2838539057	 0.145936
N	-0.0263119198	-0.0528110151	 2.3946554162	-0.554768
H	 0.9696435537	 1.8504437838	 0.5174509755	 0.140753
H	 0.0746918344	 1.8560269449	-1.0316011727	 0.126155
H	-0.7783596244	 1.892437814	 0.5419671037	 0.14566
H	-0.0511203129	-2.4258045051	-2.0010265556	 0.288158
H	 0.2186668868	-3.9387768647	 2.0612225573	 0.258803
H	 0.6131509622	-2.6103675741	 3.0140037499	 0.254398
H	-0.1120680993	-0.6798479267	 3.1948882789	 0.205063
86.8023	168.2141	266.5738	291.8688	316.5406	340.8559	362.8527	383.2116	493.4423	526.961	535.0653	564.0658	610.4368	690.3235	708.045	788.9932	848.0728	901.3429	961.6775	997.6613	1056.8635	1082.3311	1217.2198	1239.1625	1271.6489	1376.8881	1413.1572	1446.062	1466.1942	1473.0005	1508.7323	1593.1086	1613.7129	1632.5907	1664.767	3042.4741	3094.6867	3146.8527	3468.8226	3545.6094	3650.3267	3672.4324
CC1=NNN=C(N)C1=N	Cc1n[nH]nc(N)c1[NH]	
InChI=1S/C4H7N5/c1-2-3(5)4(6)8-9-7-2/h1H3,(H2,5,9)(H2,6,7,8)	InChI=1S/C4H12N5/c1-2-3(5)4(6)8-9-7-2/h2-5,7-9H,6H2,1H3
