17
gdb 126381	2.70471	1.49758	0.97526	1.2409	79.82	-0.2249	-0.0625	0.1624	1181.3687	0.137655	-414.203534	-414.195321	-414.194377	-414.236739	30.575	
C	 0.0791001025	 1.5254468728	-0.0820824978	-0.382688
C	-0.0549585812	 0.005490427	-0.0841155806	-0.254913
C	-1.4606939336	-0.5020935199	 0.0335807211	 0.318497
N	-2.4594422503	 0.3165748067	 0.1295939908	-0.315185
C	-3.7264517799	-0.2144332611	 0.235036981	 0.065697
N	-4.0360321164	-1.4712772468	 0.2490129984	-0.180783
N	-2.9908410679	-2.3174894252	 0.148603728	-0.291235
C	-1.6503631024	-1.97024845	 0.0348348257	 0.34384
N	-0.6567048349	-2.7748140908	-0.0605960423	-0.550262
H	 1.1315575785	 1.8088534847	-0.1708525688	 0.110491
H	-0.4709725019	 1.9736712553	-0.9135677347	 0.127346
H	-0.318945816	 1.9579520729	 0.8395023442	 0.127416
H	 0.3772653939	-0.4383158457	-0.9908352632	 0.139515
H	 0.5264464291	-0.4535416352	 0.726610099	 0.139453
H	-4.547695938	 0.4874584264	 0.3143261928	 0.133734
H	-3.2467344715	-3.2944308939	 0.1607672388	 0.266121
H	-0.9516733101	-3.7530717272	-0.0450014623	 0.202957
66.6101	107.4852	198.2359	198.5323	258.0068	338.4862	424.6466	510.521	541.7322	549.913	591.979	650.3027	728.514	745.1973	808.1919	825.2851	892.5274	920.7067	996.1678	1054.0342	1095.0118	1098.86	1140.5144	1183.7746	1222.1109	1266.5164	1338.3928	1396.1686	1401.6836	1416.8426	1440.398	1455.975	1493.0968	1499.1001	1580.7733	1645.2037	1697.4698	3031.8614	3048.838	3050.2675	3121.2323	3124.2717	3213.2734	3450.2613	3604.7086
CCC1=NC=NNC1=N	CCc1ncn[nH]c1[NH]	
InChI=1S/C5H8N4/c1-2-4-5(6)9-8-3-7-4/h3H,2H2,1H3,(H2,6,9)	InChI=1S/C5H13N4/c1-2-4-5(6)9-8-3-7-4/h4-9H,2-3H2,1H3
