13
gdb 50051	3.19049	0.78106	0.65548	5.5747	79.56	-0.2703	-0.0634	0.2069	1580.8393	0.088152	-415.566719	-415.55827	-415.557326	-415.601055	29.205	
O	-0.28327333	 0.3706599023	 0.8447101141	-0.241732
C	 0.2860750709	 0.7457792112	-0.1462164385	 0.177894
C	 1.36957621	 1.7771879397	-0.1206014162	-0.114239
N	 2.3238864374	 1.7172590862	-1.2322459466	-0.305788
C	 1.4215946086	 2.8713716087	-1.1678268511	-0.287168
C	 0.4381270584	 3.0084687079	-2.2025154038	 0.164425
C	-0.3917478298	 3.1696349764	-3.0657997321	 0.089195
C	-1.3277165101	 3.3447127467	-4.0436591538	 0.211761
N	-2.1240454747	 3.4958552102	-4.8758098107	-0.328156
H	 0.0581505044	 0.3509842128	-1.1581145049	 0.106297
H	 1.7083709332	 2.0559141146	 0.8741201108	 0.12486
H	 3.2562982745	 1.9788709053	-0.9229745059	 0.260056
H	 1.8195764872	 3.8176130478	-0.8061534814	 0.142595
53.8698	98.3908	114.7112	190.2881	245.2033	316.0183	328.5213	463.5236	485.6294	546.3885	577.3818	601.499	711.9117	815.5092	889.3512	916.2706	985.2197	1037.4798	1091.6855	1142.3396	1182.5398	1205.172	1251.2658	1360.5342	1409.7513	1445.7175	1831.9624	2267.9262	2398.6829	2927.1764	3128.9208	3155.5719	3517.8624
O=CC1NC1C#CC#N	O=C[C@H]1N[C@H]1C#CC#N	
InChI=1S/C6H4N2O/c7-3-1-2-5-6(4-9)8-5/h4-6,8H	InChI=1S/C6H4N2O/c7-3-1-2-5-6(4-9)8-5/h4-6,8H/t5-,6+/m0/s1
