18
gdb 57270	2.23992	1.42926	1.31212	3.9119	71.77	-0.2753	0.0173	0.2926	1088.8102	0.144381	-439.076557	-439.066803	-439.065859	-439.110626	36.654	
C	 0.1973982667	 1.4558959871	 0.1688869731	-0.416618
C	-0.0110029893	-0.0551792188	 0.0096152547	 0.148597
O	 0.5218838178	-0.6535783991	 1.18429874	-0.443727
C	-1.4605771495	-0.3571468927	-0.082897325	 0.256117
N	-2.582757188	-0.6305607768	-0.1136373549	-0.335279
C	 0.6836428712	-0.5779894673	-1.2640041147	 0.398229
O	 0.1439691644	-0.0480738031	-2.4414953491	-0.463735
C	 2.1532590336	-0.8947721051	-1.2202634669	-0.334246
C	 1.1273194858	-2.0037745172	-1.3629253971	-0.307527
H	 1.2682049755	 1.6558356258	 0.2590547649	 0.135613
H	-0.2060998381	 1.9965429337	-0.6896697512	 0.131227
H	-0.3054239891	 1.8085852624	 1.0710751976	 0.14751
H	 0.1821974099	-1.5524058012	 1.2547233769	 0.299703
H	 0.521823572	 0.8263993096	-2.584968566	 0.289181
H	 2.7362506878	-0.6328793148	-2.0962332765	 0.119016
H	 2.6647718282	-0.8057296446	-0.2694124276	 0.133315
H	 0.9819998914	-2.6719660292	-0.5218090615	 0.106891
H	 1.0088390499	-2.4644845886	-2.3360366969	 0.135732
62.0466	135.3409	186.4637	222.2383	241.9864	270.8556	289.7929	327.2978	359.4961	373.3428	408.643	445.7179	498.9331	541.286	605.3964	662.6705	771.1759	827.0965	907.3153	926.3189	940.9736	962.073	995.8893	1052.4118	1073.0379	1087.4596	1154.1202	1177.6702	1190.1577	1268.2848	1308.5146	1354.2565	1363.6698	1402.2213	1442.2998	1486.4054	1490.0405	1493.5976	2354.331	3056.9796	3138.8241	3140.7941	3144.8263	3145.9554	3228.5831	3241.4486	3801.9931	3815.8753
CC(O)(C#N)C1(O)CC1	C[C@@](O)(C#N)C1(O)CC1	
InChI=1S/C6H9NO2/c1-5(8,4-7)6(9)2-3-6/h8-9H,2-3H2,1H3	InChI=1S/C6H9NO2/c1-5(8,4-7)6(9)2-3-6/h8-9H,2-3H2,1H3/t5-/m1/s1
