19
gdb 103768	3.32681	1.09299	0.95556	0.7032	71.49	-0.2562	0.0621	0.3183	1268.4504	0.156876	-460.116726	-460.107374	-460.10643	-460.15111	34.089	
C	-0.1792319402	 1.6132275304	 0.1253975178	-0.464786
C	-0.2116947519	 0.1034885543	 0.1409690533	 0.245169
C	-1.408462422	-0.5458982899	-0.5273973297	-0.117173
O	-1.4221141846	-0.276319296	-1.9183691753	-0.414935
O	 1.0379978781	-0.5466112116	-0.2380464265	-0.320641
C	 0.5920758623	-0.6609693541	 1.0967494408	 0.312007
C	 1.393729679	-0.2272406532	 2.3210950277	-0.156881
O	 1.0462620618	-1.4588952252	 2.9925280336	-0.274941
C	 0.3578682624	-1.9782475432	 1.8338264702	-0.159044
H	 0.7850981424	 1.98882937	 0.4743252455	 0.127785
H	-0.3519585969	 1.9751797181	-0.8919143978	 0.144523
H	-0.9680843304	 2.0202730222	 0.7673421947	 0.125289
H	-1.4024697535	-1.6274729374	-0.3287380012	 0.092523
H	-2.3397871421	-0.1341269477	-0.123794869	 0.113739
H	-0.5872186809	-0.608807218	-2.2687498415	 0.294725
H	 2.4724427199	-0.1362660435	 2.1415584429	 0.116105
H	 1.034954075	 0.6561586956	 2.8628770226	 0.110456
H	-0.6802426331	-2.2519081838	 2.0576493611	 0.110634
H	 0.8753493448	-2.8370245371	 1.3874731109	 0.115443
70.0972	106.5358	137.2101	180.0477	185.9979	235.5249	306.9896	338.7772	440.6997	444.0614	459.8447	490.5125	637.9909	725.3121	834.7076	895.0554	921.6368	933.596	940.8019	1002.0928	1024.903	1060.0807	1072.6864	1124.9252	1137.897	1142.6478	1147.0337	1177.5511	1214.5771	1269.9931	1299.7905	1349.2589	1382.7438	1408.881	1425.8267	1473.2612	1492.8869	1494.9487	1498.1875	1523.4465	1538.7816	2998.7842	3010.178	3021.3117	3042.2507	3061.248	3063.7036	3075.545	3111.2231	3133.6061	3794.9977
CC1(CO)OC11COC1	C[C@@]1(CO)OC21COC2	
InChI=1S/C6H10O3/c1-5(2-7)6(9-5)3-8-4-6/h7H,2-4H2,1H3	InChI=1S/C6H10O3/c1-5(2-7)6(9-5)3-8-4-6/h7H,2-4H2,1H3/t5-/m0/s1
