15
gdb 45775	3.42788	1.13749	0.89002	2.8231	72.39	-0.2518	-0.0245	0.2274	1235.5164	0.112562	-416.819628	-416.811433	-416.810489	-416.853011	30.015	
O	 0.0326513082	-0.0096152758	 0.1084754513	-0.362061
C	-0.0182282495	 1.1932847959	 0.0451599325	 0.420025
N	-1.1604716992	 1.9819686233	-0.0420083874	-0.339664
C	-0.7818290199	 3.3217912955	-0.0249337302	 0.067386
N	 0.4723950587	 3.548674073	 0.0319236304	-0.231184
C	 1.1195164679	 2.2310621141	 0.0568427197	-0.121491
C	 2.0482533639	 2.0274914203	 1.2720265288	-0.357432
C	 3.2570923699	 2.8358298287	 1.2150274234	 0.312041
C	 4.2601961846	 3.4939746136	 1.1558351857	-0.436135
H	-2.1003057519	 1.6195424581	-0.0427781737	 0.272192
H	-1.5433899498	 4.09419849	-0.059437711	 0.144652
H	 1.7126276394	 2.1085254833	-0.8574263228	 0.140844
H	 1.4874309886	 2.2528972153	 2.1870294553	 0.137792
H	 2.3020913736	 0.9612663077	 1.3101952895	 0.156227
H	 5.1440279055	 4.0803602168	 1.1098016485	 0.196809
64.4153	107.1179	134.216	221.6572	291.7574	345.6364	415.746	497.6376	539.3435	613.3169	617.9727	645.7517	654.5032	706.2234	834.6538	880.5495	919.5657	940.4014	984.6224	1032.8338	1064.405	1096.2257	1184.2719	1216.0629	1246.4055	1310.1025	1344.6151	1356.5684	1395.6208	1466.3166	1676.5877	1851.9147	2244.9576	3030.8185	3047.7283	3072.656	3195.1218	3507.8502	3652.6733
O=C1NC=NC1CC#C	O=C1NC=N[C@H]1CC#C	
InChI=1S/C6H6N2O/c1-2-3-5-6(9)8-4-7-5/h1,4-5H,3H2,(H,7,8,9)	InChI=1S/C6H6N2O/c1-2-3-5-6(9)8-4-7-5/h1,4-5H,3H2,(H,7,8,9)/t5-/m0/s1
