17
gdb 34707	3.12421	1.63544	1.45344	0.8199	81.18	-0.2224	0.0123	0.2347	950.8258	0.136965	-347.487314	-347.480361	-347.479417	-347.518421	28.831	
C	-0.0415885254	-1.2727158732	-0.0374036437	-0.453666
C	 0.0082416829	-0.0724462041	 0.0253145723	 0.325894
C	 0.0433340199	 1.3775560766	 0.0840634177	-0.182674
C	-0.2435957023	 2.1278856638	 1.3857027769	-0.08308
C	 1.0090047752	 2.2683131255	 2.2906205607	-0.076916
C	 2.1763881521	 1.3728442965	 2.0525640379	-0.07171
C	 2.4732685318	 1.3652645988	 0.7490761103	-0.090256
C	 1.4355617521	 2.1724207325	 0.0079704527	-0.115918
C	 0.8321500461	 3.1399612191	 1.0781949221	-0.092245
H	-0.0805517338	-2.3326285335	-0.0847620144	 0.190195
H	-0.6084013619	 1.7935904684	-0.6907464689	 0.107703
H	-1.2304214932	 2.2746407912	 1.8079532498	 0.093976
H	 0.8008018873	 2.6733165125	 3.2742515878	 0.085924
H	 2.6570885088	 0.792789177	 2.8300218285	 0.098057
H	 3.2137140201	 0.7469989283	 0.2584257133	 0.101042
H	 1.699475375	 2.5458018967	-0.9796143002	 0.073818
H	 0.8058245852	 4.2223683938	 1.0608372371	 0.089857
120.8038	145.2123	318.9299	362.4335	490.5216	538.6906	549.1584	615.9524	633.9398	701.0044	738.0204	740.1558	779.497	813.8962	822.6367	833.0431	881.0114	932.1393	957.6099	971.8892	987.0148	995.4203	1035.8105	1059.2012	1078.445	1102.6098	1116.4671	1131.8611	1217.0546	1237.9175	1274.7579	1304.0073	1338.0545	1363.2417	1381.8399	1645.4645	2229.2731	3055.0152	3129.7764	3177.6222	3180.0798	3194.654	3204.9463	3229.2155	3504.2694
C#CC1C2C3C=CC1C23	C#C[C@H]1[C@H]2[C@H]3C=C[C@@H]1[C@@H]23	
InChI=1S/C9H8/c1-2-5-6-3-4-7-8(5)9(6)7/h1,3-9H	InChI=1S/C9H8/c1-2-5-6-3-4-7-8(5)9(6)7/h1,3-9H/t5-,6+,7-,8+,9-/m1/s1
