15
gdb 124330	4.1403	1.16454	0.91461	2.6117	71.26	-0.23	-0.0451	0.1849	1206.688	0.113726	-450.187313	-450.179086	-450.178142	-450.220393	29.934	
C	-0.0997853352	 1.498265703	 0.0089541182	-0.485346
C	 0.0361420859	-0.0004289298	-0.008194928	 0.429868
O	 1.0758771721	-0.6121289454	-0.0416895969	-0.31638
N	-1.1862568333	-0.7096310632	 0.0193804928	-0.036716
C	-1.3498209429	-2.0620692371	 0.0176843766	 0.04506
N	-2.6183699825	-2.3767754756	 0.0499278017	-0.323514
C	-3.2359521639	-1.1419928152	 0.0721036728	 0.426223
N	-4.5985875353	-1.0399521328	 0.1657170651	-0.577224
N	-2.4235965633	-0.1015682792	 0.049134971	-0.339985
H	 0.8978604522	 1.9351192928	-0.0164137167	 0.146086
H	-0.6896534843	 1.8365571243	-0.8470232174	 0.161639
H	-0.6378117034	 1.8204028338	 0.9044887439	 0.163637
H	-0.5094786605	-2.7371435056	-0.0078096932	 0.17493
H	-5.0980406581	-1.8485737927	-0.1703241379	 0.267372
H	-4.9863007275	-0.1561328873	-0.1257072919	 0.264349
91.9287	126.9265	131.4064	183.6146	321.1071	359.322	383.7585	411.5801	533.9513	550.2507	570.9066	634.8994	645.452	764.6154	785.9397	907.8141	957.7923	1005.0586	1022.3893	1058.2323	1107.4363	1135.5041	1255.8625	1286.3358	1384.0614	1397.4325	1428.27	1458.4683	1467.4565	1529.3181	1603.9557	1662.5297	1819.4855	3062.18	3128.1196	3171.3792	3284.0426	3589.7332	3701.4534
CC(=O)N1C=NC(N)=N1	CC(=O)n1cnc(N)n1	
InChI=1S/C4H6N4O/c1-3(9)8-2-6-4(5)7-8/h2H,1H3,(H2,5,7)	InChI=1S/C4H6N4O/c1-3(9)8-2-6-4(5)7-8/h2H,1H3,(H2,5,7)
