18
gdb 61270	3.75091	0.88284	0.77191	5.1996	72.69	-0.2616	0.0295	0.2911	1453.688	0.146676	-439.075161	-439.065804	-439.06486	-439.110467	32.89	
O	-0.0449685032	 1.5170880714	-0.0129607256	-0.420468
C	 0.0408635112	 0.1084698739	 0.0585038527	 0.107822
C	 0.6592578652	-0.5258128781	-1.2053772924	-0.374562
C	-0.0948681175	-0.2247810232	-2.4179130038	 0.267606
N	-0.6953882998	 0.0096445463	-3.3765940021	-0.303852
C	 0.8221539535	-0.3267763684	 1.2969660402	 0.126704
C	 0.128784412	-0.1408904089	 2.6613630506	-0.299623
C	 0.2085166761	-1.6792100251	 2.7492622071	-0.063195
O	 0.8408321531	-1.7622578824	 1.4480100482	-0.294298
H	 0.8428499019	 1.8753790413	-0.1285731783	 0.286332
H	-0.9927615147	-0.2413597133	 0.152739482	 0.113794
H	 1.6909519371	-0.1712282868	-1.3314114947	 0.137978
H	 0.7099487979	-1.6103156413	-1.0623849543	 0.17777
H	 1.8453968975	 0.079421934	 1.2397744267	 0.067294
H	 0.703451946	 0.4033192183	 3.4109151865	 0.118225
H	-0.8756016494	 0.2810072384	 2.6035148098	 0.127127
H	 0.8583842548	-2.0760694611	 3.5371970023	 0.111457
H	-0.7465148718	-2.2156474848	 2.7706760152	 0.11389
54.3119	76.1309	95.5523	118.8659	190.1034	290.575	300.3017	366.1696	400.9521	421.4311	462.8224	586.5101	780.1362	824.9933	861.5025	902.9102	945.3566	948.4958	990.5611	1028.5067	1041.235	1084.5443	1108.5752	1142.5106	1164.6138	1194.2091	1209.0567	1256.9304	1270.7921	1276.0234	1310.4297	1357.9163	1367.7155	1403.1951	1413.1202	1464.2025	1492.1913	1531.249	2366.0326	2966.9758	3028.5889	3030.2265	3065.7076	3072.8884	3088.7949	3091.9647	3144.2914	3793.2169
OC(CC#N)C1CCO1	O[C@@H](CC#N)[C@H]1CCO1	
InChI=1S/C6H9NO2/c7-3-1-5(8)6-2-4-9-6/h5-6,8H,1-2,4H2	InChI=1S/C6H9NO2/c7-3-1-5(8)6-2-4-9-6/h5-6,8H,1-2,4H2/t5-,6+/m0/s1
