17
gdb 127443	3.1812	1.44762	1.00729	0.7197	82.56	-0.2136	-0.0672	0.1464	1161.2435	0.136688	-414.202895	-414.194441	-414.193497	-414.235988	31.163	
C	-0.3745022097	 1.3357187174	-0.0295942858	-0.309339
N	-0.0105577613	-0.0714936174	-0.0019676283	-0.026818
N	 0.1465266666	-0.6799028715	-1.1902454163	-0.244914
C	 0.4721958252	-1.9392902499	-1.196295483	 0.363028
C	 0.6504535644	-2.629008224	-2.514584254	-0.454456
N	 0.6700298067	-2.703665827	-0.0571356879	-0.273808
C	 0.5159978502	-2.1069504517	 1.0741307221	-0.045128
C	 0.1522691553	-0.7001104403	 1.2282955293	 0.350676
N	-0.0199766349	-0.0327349095	 2.3144449763	-0.566728
H	 0.3836044833	 1.926579284	 0.4926068632	 0.152501
H	-0.4517031052	 1.6334250617	-1.0735878395	 0.144726
H	-1.3238130875	 1.4850072012	 0.4929540455	 0.152496
H	 1.6652057343	-3.0317887409	-2.6012648013	 0.139269
H	-0.0371748983	-3.4772577383	-2.5982610036	 0.139278
H	 0.4672403343	-1.9334899406	-3.3341166077	 0.138329
H	 0.6645266761	-2.6807807221	 1.9897205009	 0.126689
H	 0.1361195403	-0.6354843612	 3.1215554102	 0.214199
86.0951	141.5354	152.7407	190.7402	292.8028	304.4618	335.3139	401.0828	473.0273	538.4171	576.4616	582.4085	737.3523	755.8722	785.2965	813.7284	908.8713	962.8342	1022.418	1066.6186	1067.0684	1108.1168	1150.32	1227.0124	1291.2555	1326.6593	1390.354	1408.9964	1427.3646	1440.7175	1467.022	1474.7472	1479.1441	1502.9177	1556.1775	1631.5743	1684.6042	3041.4751	3050.2002	3094.9898	3108.7667	3125.1502	3152.4034	3178.1287	3485.9702
CN1N=C(C)N=CC1=N	Cn1nc(C)ncc1[NH]	
InChI=1S/C5H8N4/c1-4-7-3-5(6)9(2)8-4/h3,6H,1-2H3	InChI=1S/C5H13N4/c1-4-7-3-5(6)9(2)8-4/h4-8H,3H2,1-2H3
