20
gdb 108004	3.62229	1.47022	1.32528	1.7886	80.59	-0.2139	0.0794	0.2933	1043.7374	0.172192	-365.920665	-365.913305	-365.912361	-365.95237	30.039	
C	 0.0915302938	 1.5353780058	 0.1082217121	-0.38709
C	-0.0581732734	 0.0168687388	-0.0438452504	-0.307723
C	-1.4870429813	-0.4732216906	-0.0340237986	 0.337572
C	-2.6483307984	 0.0786106361	-0.8936227118	-0.228068
N	-3.6037387544	-0.5039207575	 0.1200586532	-0.160518
C	-3.2842148697	-1.965682574	 0.124174946	-0.028542
C	-2.4623678692	-1.9353077648	 1.378160275	-0.112341
C	-1.7594729397	-2.002136488	 0.0300800543	-0.14182
C	-2.488379317	-0.4045881579	 1.1817556045	-0.061836
H	 1.1469357692	 1.8228974283	 0.1322980448	 0.113547
H	-0.3791969835	 2.0705925906	-0.7224892411	 0.120035
H	-0.3705749384	 1.8899270625	 1.0358319348	 0.117161
H	 0.4211189668	-0.3068396384	-0.9784582328	 0.098093
H	 0.4901285874	-0.4881831624	 0.7627793189	 0.100875
H	-2.7270577056	 1.1697997262	-0.8713253701	 0.103807
H	-2.7746347133	-0.2858437981	-1.9182765265	 0.095869
H	-3.9516453628	-2.7198512386	-0.2719162305	 0.090828
H	-2.4426006465	-2.5827403335	 2.2436100222	 0.092739
H	-1.1957095494	-2.8131199607	-0.411927059	 0.084282
H	-2.5500578644	 0.3839238663	 1.9298880452	 0.07313
91.9246	172.1973	197.0836	286.422	361.092	446.6315	564.589	597.0626	750.9129	753.6148	771.2946	792.728	811.9684	835.5485	854.065	888.6408	896.1211	905.6952	951.9364	968.0388	1001.3631	1009.673	1038.6572	1049.5967	1055.0817	1063.2588	1123.5744	1140.3552	1171.5908	1180.4723	1200.0275	1230.767	1240.7234	1253.5306	1309.5115	1315.2853	1357.2901	1382.9372	1411.6827	1479.2092	1495.0422	1499.2878	1506.8258	3007.1434	3035.5287	3037.5239	3043.031	3101.2272	3102.9265	3108.1271	3126.0152	3194.4211	3199.1552	3215.1522
CCC12CN3C4C(C14)C23	CC[C@@]12CN3[C@@H]4[C@@H]([C@H]14)[C@@H]23	
InChI=1S/C8H11N/c1-2-8-3-9-6-4(5(6)8)7(8)9/h4-7H,2-3H2,1H3	InChI=1S/C8H11N/c1-2-8-3-9-6-4(5(6)8)7(8)9/h4-7H,2-3H2,1H3/t4-,5+,6-,7+,8-/m1/s1
