21
gdb 71990	1.88455	1.77768	1.67788	0.9275	83.04	-0.2244	0.0722	0.2966	1042.2507	0.18156	-387.05074	-387.041741	-387.040797	-387.08358	35.187	
C	-0.0871897238	 1.449043424	 0.0307095597	-0.516307
C	 0.039302909	-0.0441748425	-0.0242316563	 0.224231
C	 0.9555880365	-0.880808342	-0.9142015455	-0.283603
C	 0.1112438274	-2.1022072964	-0.4627453993	-0.113085
C	 0.43382776	-2.2591848501	 1.0519274401	-0.299498
C	-0.2952393845	-0.9301081154	 1.2078759356	 0.303967
O	-0.8128571779	-0.380943711	 2.3668486641	-0.466192
C	-1.0616503268	-1.100924142	-0.0758260206	 0.255972
C	-2.5183634071	-1.0471800741	-0.3965466137	-0.531736
H	 0.8558357895	 1.9171894816	 0.3413386884	 0.11195
H	-0.3515326572	 1.8681922586	-0.9468955179	 0.117074
H	-0.8581172239	 1.750781613	 0.746604931	 0.125802
H	 0.8055430846	-0.6456981863	-1.9732961667	 0.09183
H	 2.0315332976	-0.9038357544	-0.6971756402	 0.078487
H	 0.0084571162	-2.9812216837	-1.0956141126	 0.069327
H	-0.1368396441	-3.0733702906	 1.5083335511	 0.099841
H	 1.4899752481	-2.337706743	 1.3393638207	 0.078774
H	-0.11523235	 0.1155014819	 2.8099510006	 0.284212
H	-2.9938946852	-0.2107454024	 0.1262495499	 0.130932
H	-2.6962103158	-0.9155746377	-1.4703005525	 0.116487
H	-3.0331736725	-1.9636032476	-0.084574396	 0.121533
150.4278	170.4637	185.7738	186.607	242.1804	245.7012	302.5121	360.5828	413.896	445.0873	530.2021	602.2357	647.2377	666.8981	698.3916	763.1655	830.9613	897.1833	903.6922	940.3311	980.0044	1022.5733	1044.7349	1093.5662	1095.5763	1122.9653	1133.525	1145.5947	1171.3687	1209.5559	1219.7904	1250.3571	1253.1398	1292.6357	1319.4138	1371.1032	1407.4051	1418.4265	1474.0196	1483.4148	1492.9999	1494.791	1496.3322	1501.9495	1524.7637	3011.6099	3016.2221	3018.9591	3022.8147	3070.273	3072.8605	3074.9843	3091.0406	3094.4748	3101.4961	3134.5451	3782.6498
CC12CC3CC1(O)C23C	C[C@@]12C[C@H]3C[C@]1(O)[C@@]23C	
InChI=1S/C8H12O/c1-6-3-5-4-8(6,9)7(5,6)2/h5,9H,3-4H2,1-2H3	InChI=1S/C8H12O/c1-6-3-5-4-8(6,9)7(5,6)2/h5,9H,3-4H2,1-2H3/t5-,6-,7+,8+/m0/s1
