16
gdb 80307	2.60118	1.54335	1.28984	2.8421	65.5	-0.2458	0.0243	0.2701	1012.1068	0.123461	-475.008221	-475.000014	-474.99907	-475.040856	31.262	
O	-0.4026133441	 1.4596764277	 0.2836969201	-0.416371
C	-0.1831900126	 0.1015890729	 0.0777434517	-0.002872
C	-0.5102080976	-0.908634549	 1.1654758384	-0.029406
O	-1.195202038	-0.4091384532	 2.2900770257	-0.240018
C	-2.4614950755	 0.016422459	 1.9359620917	 0.421252
N	-3.2758967695	 0.5439249882	 2.7374815735	-0.533319
C	-2.7061075228	-0.254125816	 0.4621315671	-0.38188
C	-1.3870120394	-0.8093523775	-0.0505664754	 0.317202
O	-1.385572603	-1.8405677817	-0.9832287849	-0.46378
H	 0.0792610623	 1.7314963652	 1.0726831751	 0.300968
H	 0.6645121492	-0.1599016393	-0.5565546551	 0.100751
H	 0.1407861865	-1.745934279	 1.3831431346	 0.122622
H	-2.8723161411	 0.6104013759	 3.6732117922	 0.223745
H	-3.4875472235	-1.0099757083	 0.3421859278	 0.143167
H	-3.0296162724	 0.6636504144	-0.0329391705	 0.148014
H	-1.5020183087	-1.4548101793	-1.858967982	 0.289925
88.0215	159.4364	202.7444	262.8046	266.411	310.5169	356.574	452.8444	498.2308	537.6505	572.4036	616.0921	702.7901	763.2459	838.8802	882.2076	888.1277	922.2064	971.8331	996.7303	1034.5112	1058.9804	1130.9446	1146.4488	1179.7548	1232.647	1237.442	1281.6102	1297.1547	1310.9747	1352.5782	1359.8252	1447.1643	1480.5744	1786.6738	3071.7609	3102.8146	3122.0659	3199.3296	3476.6438	3791.7968	3801.6772
OC1C2OC(=N)CC12O	O[C@H]1[C@H]2O[C]([NH])C[C@@]12O	
InChI=1S/C5H7NO3/c6-2-1-5(8)3(7)4(5)9-2/h3-4,6-8H,1H2	InChI=1S/C5H7NO3/c6-2-1-5(8)3(7)4(5)9-2/h3-4,6-8H,1H2/t3-,4+,5+/m0/s1
