19
gdb 60736	3.71316	1.0059	0.8344	4.9301	79.3	-0.245	-0.0153	0.2297	1375.0043	0.159086	-419.221905	-419.212499	-419.211555	-419.25714	33.796	
C	 0.2645347116	 1.3817483027	-0.1651587426	-0.354076
N	-0.0128084901	-0.0477751208	-0.0578754854	-0.120028
C	-0.1427240495	-0.5873840983	 1.217116485	 0.167572
O	-0.0092405125	 0.0546227317	 2.2343782414	-0.330738
C	-0.1464084923	-0.8729275111	-1.1927024437	 0.357708
N	-0.0973774859	-2.139395885	-1.0469992543	-0.509268
C	-0.3325451693	-0.1301185868	-2.4808820151	-0.084887
C	 0.8653186293	 0.127962628	-3.3821095268	-0.245373
C	-0.2157059162	-0.822771549	-3.811454214	-0.295094
H	 1.0925261368	 1.5667523384	-0.8520866631	 0.138648
H	-0.6116096785	 1.9441462128	-0.5052885951	 0.129591
H	 0.5295192514	 1.7253371356	 0.8342421273	 0.171517
H	-0.3853709323	-1.6564477997	 1.1842135676	 0.13754
H	-0.2969211091	-2.6061760723	-1.9284023855	 0.220727
H	-1.0515407305	 0.6812213947	-2.4292414596	 0.108341
H	 0.9402658799	 1.0964715348	-3.8634295284	 0.124736
H	 1.8132925309	-0.3020188526	-3.0780747113	 0.132945
H	 0.0283097917	-1.8793467645	-3.8304543658	 0.124271
H	-0.9011803755	-0.5139013485	-4.5919302508	 0.125866
39.0741	59.7242	141.5203	179.9342	190.8953	253.3947	310.038	344.5249	363.1921	411.5461	521.0271	655.6734	708.9894	785.3269	810.2013	827.7304	848.641	896.2773	934.1834	993.6016	1049.9173	1061.0027	1072.9108	1092.8005	1118.0817	1135.124	1154.0356	1198.4534	1225.8617	1228.7903	1297.9238	1348.4942	1417.7641	1430.1628	1452.8842	1467.1223	1500.5141	1501.8308	1516.463	1696.3712	1794.1369	3041.2571	3075.9508	3112.092	3137.294	3140.842	3158.4016	3163.3686	3217.6092	3232.5378	3515.2848
CN(C=O)C(=N)C1CC1	CN(C=O)C(=N)C1CC1	
InChI=1S/C6H10N2O/c1-8(4-9)6(7)5-2-3-5/h4-5,7H,2-3H2,1H3	InChI=1S/C6H10N2O/c1-8(4-9)6(7)5-2-3-5/h4-5,7H,2-3H2,1H3
