16
gdb 48121	3.03482	1.36161	0.95089	2.9112	72.32	-0.2447	-0.0718	0.1728	1166.4413	0.124245	-437.924047	-437.915861	-437.914917	-437.957484	29.295	
O	-0.8598266577	 1.2895124453	 0.1369298116	-0.245882
C	 0.2836658	 0.9898275544	-0.089111179	 0.090569
C	 1.474148404	 1.9437350829	-0.1942509834	 0.311059
O	 2.5704828056	 1.453136325	-0.4326243446	-0.374492
N	 1.2688438885	 3.2677836844	-0.0229470558	-0.115564
C	 0.0110136268	 3.9781727932	 0.2661270142	-0.194281
C	 0.4702276243	 5.4090292564	 0.3358843893	-0.081122
C	 1.7771699241	 5.5208205205	 0.1235353563	-0.084535
C	 2.4132238596	 4.1836457774	-0.1241447167	-0.194958
H	 0.6175227702	-0.0548886445	-0.25405268	 0.119547
H	-0.7370173885	 3.8109369259	-0.5179525469	 0.136163
H	-0.4423939061	 3.6324292236	 1.2026934829	 0.136165
H	-0.2205947165	 6.2174506222	 0.5380810605	 0.11395
H	 2.3503605233	 6.4386549473	 0.1204863308	 0.113457
H	 3.1854995312	 3.9221578484	 0.6120569079	 0.134974
H	 2.8902632213	 4.1008577276	-1.1102369272	 0.13495
75.3866	96.6146	150.6402	188.4659	248.168	277.9253	406.6154	447.9824	562.4679	597.4227	691.9922	693.0147	809.4857	819.1099	959.5172	965.6926	993.7955	1020.3669	1031.0014	1032.3391	1057.5379	1130.8835	1194.8464	1205.4141	1212.3867	1324.5982	1351.5142	1371.0504	1383.587	1450.7909	1500.0199	1510.1797	1697.0128	1741.2145	1823.4765	2942.4587	3012.4729	3029.1534	3031.298	3052.914	3211.3668	3234.9058
O=CC(=O)N1CC=CC1	O=CC(=O)N1CC=CC1	
InChI=1S/C6H7NO2/c8-5-6(9)7-3-1-2-4-7/h1-2,5H,3-4H2	InChI=1S/C6H7NO2/c8-5-6(9)7-3-1-2-4-7/h1-2,5H,3-4H2
