17
gdb 17584	2.727	2.45027	1.86445	1.6927	67.96	-0.2249	0.0844	0.3093	800.2819	0.142316	-363.798474	-363.791185	-363.790241	-363.829447	28.823	
C	-0.0298546644	 1.5185317941	 0.1223659763	-0.497393
C	-0.0327384943	 0.0218805326	 0.0133546467	 0.264397
C	 1.1805235878	-0.7992244447	-0.395261183	-0.379743
C	 0.616842129	-1.0139899161	 0.9744098419	 0.401886
O	 1.3941416248	-0.7875147924	 2.0909614013	-0.461929
C	-0.6391487524	-1.8425246773	 0.9240200718	-0.154783
N	-1.7535280322	-0.9651851606	 1.390622654	-0.353682
C	-1.259824129	-0.8596087564	-0.009279991	-0.11146
H	 0.9208785913	 1.8747663657	 0.5330930375	 0.122848
H	-0.1709846022	 2.0015095515	-0.8518088701	 0.116465
H	-0.8316500848	 1.8548760335	 0.7877214555	 0.129435
H	 1.1146588295	-1.568749475	-1.1606034852	 0.103286
H	 2.1138118327	-0.243770775	-0.4019884996	 0.121245
H	 0.7962296954	-0.5155123438	 2.7981699236	 0.293214
H	-0.7392590971	-2.9220519758	 0.9395750741	 0.09258
H	-2.6050085069	-1.5297310881	 1.3682731026	 0.222857
H	-1.915847037	-1.0775560123	-0.8447392164	 0.090775
167.75	196.3598	208.4776	233.3784	387.1548	423.355	442.3036	532.4515	592.4649	616.5168	718.7521	763.0328	816.3019	838.6443	853.645	929.4467	945.4579	971.8738	986.5811	1044.7822	1072.1656	1090.4754	1112.1092	1133.6041	1145.152	1213.7499	1256.5635	1281.8146	1325.1883	1370.5894	1377.4924	1412.8082	1420.368	1488.668	1499.3258	1505.2823	3023.8681	3083.8871	3101.2899	3108.4666	3169.4606	3181.9061	3198.7328	3447.6059	3780.1889
CC12CC1(O)C1NC21	C[C@@]12C[C@]1(O)[C@H]1N[C@@H]21	
InChI=1S/C6H9NO/c1-5-2-6(5,8)4-3(5)7-4/h3-4,7-8H,2H2,1H3	InChI=1S/C6H9NO/c1-5-2-6(5,8)4-3(5)7-4/h3-4,7-8H,2H2,1H3/t3-,4+,5+,6+/m1/s1
