23
gdb 91420	2.47102	1.63205	1.2691	1.678	84.07	-0.2347	0.0796	0.3143	1117.3707	0.207909	-388.292302	-388.283984	-388.283039	-388.324551	33.992	
C	 0.0697324864	 1.5895189248	-0.1006563064	-0.417923
C	 0.0669320097	 0.0606411597	-0.0216594602	 0.026283
C	 0.6121398838	-0.5851978937	-1.3231851249	-0.208058
C	 1.0347357785	-2.0291806107	-1.0578089165	 0.089533
C	 0.1654746993	-2.7097376019	 0.0224215241	-0.268033
C	 1.1549037336	-1.986433634	 0.9591149705	 0.094692
O	 2.1443410595	-1.9883863503	-0.1131022845	-0.294974
C	 0.7667402882	-0.5275826974	 1.2503890425	 0.007212
C	 2.0038986004	 0.2420126377	 1.7330893061	-0.394964
H	 1.0831946774	 1.9875162527	-0.2119952302	 0.121224
H	-0.5141422346	 1.9282874206	-0.9636357943	 0.10822
H	-0.3717335199	 2.0401583238	 0.7950524196	 0.109719
H	-0.9843168354	-0.2430552512	 0.0533711242	 0.075342
H	-0.1500123977	-0.533354311	-2.1108605618	 0.089576
H	 1.4930174035	-0.0457734298	-1.6914495597	 0.105056
H	 1.2883089384	-2.5842712182	-1.9653001441	 0.071559
H	-0.8994577196	-2.4772652192	 0.0814250872	 0.097913
H	 0.3176210162	-3.789998115	 0.0373939193	 0.106932
H	 1.5192429068	-2.5082471765	 1.8496052661	 0.069046
H	 0.0277180491	-0.5276425687	 2.064288891	 0.063281
H	 2.7815973058	 0.2514907655	 0.9652272996	 0.132721
H	 1.7619528299	 1.2737746262	 2.0001310667	 0.109855
H	 2.4255077808	-0.2385598734	 2.6231741358	 0.105786
114.1262	211.6465	223.0281	261.7384	299.7274	324.3887	358.459	396.4781	436.5196	511.2023	558.5701	641.8827	714.6269	812.5865	845.9787	872.5394	903.0721	910.8145	920.7155	962.8367	974.1038	1011.3906	1025.5008	1036.7992	1072.366	1076.1036	1113.3237	1119.3692	1147.9829	1189.9004	1209.4925	1242.822	1256.1219	1301.8642	1320.9649	1322.391	1344.7883	1348.7026	1364.693	1372.856	1391.4318	1405.9124	1414.87	1476.0178	1490.2259	1496.2961	1498.2148	1507.4899	1509.8941	2997.2912	3018.9921	3022.4438	3028.549	3038.3433	3058.5486	3066.882	3068.2049	3080.965	3090.4595	3100.0628	3105.4613	3127.4091	3135.1161
CC1CC2CC(O2)C1C	C[C@H]1C[C@@H]2C[C@@H](O2)[C@H]1C	
InChI=1S/C8H14O/c1-5-3-7-4-8(9-7)6(5)2/h5-8H,3-4H2,1-2H3	InChI=1S/C8H14O/c1-5-3-7-4-8(9-7)6(5)2/h5-8H,3-4H2,1-2H3/t5-,6-,7+,8+/m0/s1
