21
gdb 75382	2.59054	1.59858	1.10393	1.5177	83.37	-0.2324	0.0291	0.2615	1146.681	0.185132	-387.117097	-387.109059	-387.108114	-387.149842	31.363	
C	 0.3655776997	 1.3770412832	-0.0602454923	-0.494464
C	 0.0533369557	-0.0873907973	-0.0687590108	 0.321708
C	-0.1666005831	-0.8576041381	-1.1369882859	-0.164046
C	-0.5191310864	-2.2810794235	-0.7870721006	-0.288986
C	-0.2878205353	-2.3474954529	 0.7424194541	-0.013573
C	 1.0247878328	-3.0275609831	 1.1713525664	-0.094337
O	 1.4537206193	-2.336422813	 2.3317076017	-0.24155
C	 1.2286923076	-0.9577549798	 2.0774712729	-0.09231
C	-0.0662972964	-0.8772540634	 1.2184354059	-0.124579
H	 1.317729882	 1.5829264314	 0.4451086191	 0.126695
H	 0.4264005927	 1.7835252325	-1.0733449884	 0.12364
H	-0.4024288087	 1.9399083891	 0.4864849345	 0.124347
H	-0.1271507797	-0.5052709293	-2.1634209373	 0.082876
H	-1.5606625766	-2.5065100754	-1.050991299	 0.105085
H	 0.0937418303	-3.0137766001	-1.3296173117	 0.100702
H	-1.1264104829	-2.8146224522	 1.2627433418	 0.074381
H	 0.9158376429	-4.0839245459	 1.4304788985	 0.105903
H	 1.7755870213	-2.9418570622	 0.3661626088	 0.083995
H	 1.1515250625	-0.4503397428	 3.0426771044	 0.104026
H	 2.0809092998	-0.5269930771	 1.5266472125	 0.085966
H	-0.8953195276	-0.5059442601	 1.8326253254	 0.074523
62.4846	176.94	209.9369	225.3944	266.451	311.056	376.9512	523.6024	555.7129	615.9441	667.2929	734.2928	808.9507	831.1877	877.0153	931.8286	954.6604	962.6708	994.9975	1012.0113	1032.1868	1044.8397	1056.7225	1081.1576	1091.8079	1120.2389	1178.5063	1204.0577	1226.5017	1251.4418	1273.0243	1287.7925	1303.8053	1325.0376	1327.1495	1352.7359	1370.85	1399.0111	1414.7668	1480.5978	1489.0619	1492.3612	1504.4188	1518.6326	1721.3566	2951.0734	2968.123	3012.0768	3015.003	3025.9723	3034.158	3060.142	3079.0427	3087.3411	3097.4082	3110.2362	3175.5833
CC1=CCC2COCC12	CC1=CC[C@H]2COC[C@@H]12	
InChI=1S/C8H12O/c1-6-2-3-7-4-9-5-8(6)7/h2,7-8H,3-5H2,1H3	InChI=1S/C8H12O/c1-6-2-3-7-4-9-5-8(6)7/h2,7-8H,3-5H2,1H3/t7-,8-/m0/s1
