21
gdb 36193	3.19228	1.16057	1.02363	0.6731	87.41	-0.2527	0.0513	0.3039	1254.3118	0.182019	-349.899137	-349.890209	-349.889265	-349.933837	34.194	
C	-0.0064269476	-1.2314878573	 0.1063247787	-0.457264
C	-0.032788035	-0.0297076836	 0.1332461357	 0.313172
C	-0.0182806334	 1.430212093	 0.1579002631	-0.470424
C	 1.3772768449	 2.0031924422	-0.0686045629	 0.403013
C	 2.4168275658	 1.8280509471	 1.0740073132	-0.277132
C	 2.7037469646	 3.3606436971	 1.0571381955	-0.219395
C	 1.6789631614	 3.5517926722	-0.0911675119	-0.083507
C	 2.2659417184	 3.40839128	-1.5195301215	-0.219397
C	 1.9801547767	 1.8756765361	-1.4959024036	-0.277129
H	 0.0033215722	-2.2928097044	 0.0850421341	 0.19346
H	-0.7036449092	 1.8152508947	-0.6095631669	 0.123344
H	-0.4094023522	 1.7830758412	 1.1220000944	 0.123341
H	 1.9738978336	 1.4782639807	 2.0105636196	 0.101967
H	 3.2611960269	 1.1747232108	 0.8384389604	 0.098419
H	 2.4202511508	 3.8628029598	 1.9854635619	 0.099327
H	 3.7295632413	 3.6544625905	 0.8154403755	 0.095582
H	 0.9076980353	 4.3111088652	 0.0539494411	 0.057324
H	 1.6949235056	 3.9419212468	-2.2834709713	 0.099328
H	 3.3158142956	 3.6995731094	-1.6196660024	 0.095582
H	 2.8509236678	 1.2194550555	-1.5760440465	 0.098419
H	 1.2506881266	 1.557155523	-2.245634346	 0.101969
28.5927	65.6359	109.3533	235.3941	310.4506	355.8678	364.2878	366.2014	447.1178	618.2408	625.4983	631.2267	683.529	737.5936	748.7874	844.7461	869.3821	896.9524	906.4445	929.4383	937.848	965.0872	978.9134	1027.0873	1037.0227	1067.9817	1136.1961	1137.2648	1182.2113	1220.8164	1230.9453	1241.7373	1255.7489	1257.5688	1280.9191	1300.948	1308.5198	1326.6311	1333.7068	1466.1948	1472.1502	1484.6001	1485.4271	1503.3784	2234.4134	3006.6898	3037.6807	3048.6912	3049.3141	3054.9227	3057.1903	3078.6716	3090.1363	3095.5642	3108.6969	3114.3309	3506.9525
C#CCC12CCC1CC2	C#CC[C@]12CC[C@H]1CC2	
InChI=1S/C9H12/c1-2-5-9-6-3-8(9)4-7-9/h1,8H,3-7H2	InChI=1S/C9H12/c1-2-5-9-6-3-8(9)4-7-9/h1,8H,3-7H2/t8-,9+
