21
gdb 104411	2.41778	1.39251	1.14687	1.7286	73.78	-0.2511	0.0675	0.3186	1177.9587	0.181478	-461.362875	-461.353203	-461.352259	-461.397107	36.488	
C	-0.1729597319	 1.6873883444	-0.0086169516	-0.395901
C	-0.2332133611	 0.1562808495	-0.0395352974	-0.223205
C	 0.6869168421	-0.4645681969	-1.0837459915	 0.398648
O	 0.247112301	-0.0349393987	-2.3727431798	-0.491848
C	 2.1862751733	-0.1778769121	-0.943109457	-0.138777
O	 2.7756614984	-1.0740279042	-1.8872724401	-0.279005
C	 2.0552241375	-2.3101655595	-1.8092058465	-0.108554
C	 0.7185047912	-2.0160251041	-1.082499887	 0.024944
O	 0.7324198946	-2.4698794684	 0.2644434365	-0.433824
H	 0.8084771921	 2.0481675674	 0.3179473846	 0.111006
H	-0.3729785545	 2.1009294115	-1.0001765293	 0.133226
H	-0.9160107619	 2.0879605555	 0.687277298	 0.109659
H	 0.0154578986	-0.2635092035	 0.9381353556	 0.118087
H	-1.2562325251	-0.1652846976	-0.2683102191	 0.102712
H	 0.994543444	-0.1445512991	-2.9734907133	 0.287269
H	 2.4656143309	 0.8382560319	-1.2291728674	 0.113521
H	 2.5327049381	-0.3855441455	 0.0793038224	 0.104832
H	 1.9187073712	-2.6847781387	-2.8289304403	 0.108393
H	 2.6295354031	-3.0521137287	-1.2367939539	 0.092518
H	-0.1491605122	-2.4065348793	-1.6270476447	 0.078906
H	 0.7976521004	-3.4296749839	 0.2604657818	 0.28739
79.6934	99.3464	176.4495	185.8149	236.3743	245.5684	284.7594	331.2934	361.5753	400.3394	443.6685	486.623	512.5088	625.3808	718.6649	783.6832	812.8048	873.5552	929.1048	948.7478	970.2497	1006.1229	1020.7201	1063.6906	1083.4146	1118.627	1121.5828	1151.6711	1176.86	1221.3367	1239.0837	1255.7914	1309.9903	1316.6306	1333.0929	1366.8274	1373.6399	1405.7358	1412.2021	1431.6615	1480.367	1495.359	1500.6481	1509.5787	1512.2299	3001.8468	3009.5678	3036.6232	3038.6641	3042.8764	3072.7257	3096.4035	3105.8296	3112.2737	3128.3323	3778.2907	3823.0756
CCC1(O)COCC1O	CC[C@@]1(O)COC[C@H]1O	
InChI=1S/C6H12O3/c1-2-6(8)4-9-3-5(6)7/h5,7-8H,2-4H2,1H3	InChI=1S/C6H12O3/c1-2-6(8)4-9-3-5(6)7/h5,7-8H,2-4H2,1H3/t5-,6-/m1/s1
