12
gdb 131031	2.84726	1.41965	0.94731	1.2003	66.01	-0.2911	-0.1114	0.1796	1107.8067	0.077695	-468.834103	-468.826668	-468.825723	-468.866831	25.341	
O	-0.017537118	-0.0544663718	-0.0013593052	-0.222781
C	-0.0062818174	 1.1371906975	 0.0064942856	 0.188337
N	 1.182193321	 1.9144067297	-0.0006690429	-0.094417
N	 2.4029691699	 1.3249821407	-0.0184243155	-0.193236
C	 3.2208912075	 2.3595304633	-0.0194356954	 0.055413
N	 2.6212983961	 3.5835297605	-0.0035139965	-0.273062
C	 1.3397346733	 3.2915104518	 0.0083388362	 0.289516
C	 0.232112358	 4.2801190536	 0.0279754453	 0.088165
O	 0.4198367886	 5.4676408988	 0.0358702865	-0.215427
H	-0.9042218978	 1.7739359361	 0.0223872733	 0.123303
H	 4.2930251094	 2.2315885912	-0.0320952228	 0.156608
H	-0.7919972006	 3.8553611485	 0.0349969312	 0.097582
87.4083	136.0165	176.6217	189.0205	261.3211	304.5569	425.3171	541.8104	681.2928	702.2144	788.134	861.3586	935.6407	971.1728	1007.2515	1016.6453	1101.9797	1197.2943	1297.3063	1315.8312	1327.1213	1414.9956	1435.7446	1482.8408	1561.782	1813.4638	1858.0388	2920.0476	3024.8213	3267.1173
O=CN1N=CN=C1C=O	O=Cn1ncnc1C=O	
InChI=1S/C4H3N3O2/c8-1-4-5-2-6-7(4)3-9/h1-3H	InChI=1S/C4H3N3O2/c8-1-4-5-2-6-7(4)3-9/h1-3H
