13
gdb 129130	3.15671	1.56199	1.04494	4.0252	79.04	-0.2296	-0.065	0.1646	1047.5775	0.090693	-411.757513	-411.750082	-411.749138	-411.789739	27.828	
N	-0.068774655	 1.3236537224	 0.0105385625	-0.515306
C	 0.0165704548	 0.0507937773	 0.0030615759	 0.277504
N	 1.2350573895	-0.6546086957	-0.0084078208	-0.317897
C	 1.1751322474	-1.9376790404	-0.0152142941	 0.112311
N	 0.01768759	-2.6501300183	-0.0120530133	-0.235741
N	-1.2084676872	-2.0769527058	-0.0011297116	-0.254261
C	-1.2224790434	-0.7754228742	 0.0062630264	 0.108649
C	-2.4923310938	-0.1363625962	 0.0177337068	 0.341399
C	-3.5637623451	 0.4098658404	 0.0274413585	-0.368257
H	 0.8758368276	 1.7159130555	 0.0067857576	 0.221041
H	 2.0850726553	-2.536532658	-0.0241985773	 0.141415
H	 0.0097219877	-3.6572990217	-0.0175777494	 0.284696
H	-4.5047580078	 0.9020646648	 0.0359511288	 0.204446
64.1685	150.4335	195.199	384.3775	395.6358	409.0715	483.819	536.8622	573.321	585.6479	599.5479	646.0383	653.8116	726.3904	824.5715	911.2433	936.6141	966.8618	1028.7667	1049.1668	1207.8822	1259.1734	1359.9595	1417.1273	1492.9262	1607.0361	1663.918	1696.0133	2235.0024	3144.2998	3455.0233	3504.2258	3645.4594
N=C1N=CNN=C1C#C	[NH]C1=NCNN=C1C#C	
InChI=1S/C5H4N4/c1-2-4-5(6)7-3-8-9-4/h1,3H,(H2,6,7,8)	InChI=1S/C5H5N4/c1-2-4-5(6)7-3-8-9-4/h1,6,8H,3H2
