20
gdb 111531	2.5731	1.4827	1.14736	2.085	78.8	-0.2335	0.0629	0.2964	1130.619	0.170943	-403.075273	-403.066778	-403.065834	-403.108316	33.092	
O	 0.1432712193	 1.2825988062	 0.3283401074	-0.423539
C	 0.0649367525	-0.0070496159	-0.261398397	-0.080241
C	-1.3030861154	-0.619679732	-0.0812069848	-0.02273
C	-1.6220408012	-2.0597953294	-0.0399605095	-0.05275
C	-0.5273960753	-2.9053819425	 0.6162183855	-0.344746
C	-0.6846522318	-1.9686611045	 1.8164134137	 0.395768
C	-0.7491055345	-2.3526761778	 3.2566562882	-0.340336
C	 0.3228454041	-1.3979405008	 2.7678693263	-0.324207
N	-1.7992797431	-1.191553736	 1.2057073358	-0.19654
H	-0.1507067483	 1.1956578969	 1.2410137482	 0.288081
H	 0.2488394658	 0.1423208715	-1.3313328571	 0.111255
H	 0.8562455519	-0.6657454815	 0.1168360803	 0.096581
H	-2.0883954207	-0.0021146019	-0.5141073086	 0.103239
H	-2.4808949817	-2.4699482467	-0.5617162663	 0.097714
H	-0.8561399078	-3.9242598502	 0.832879422	 0.115233
H	 0.4399772961	-2.946393207	 0.1069963463	 0.107031
H	-1.5651678527	-1.9363054012	 3.83731079	 0.126689
H	-0.4552066476	-3.3595159577	 3.5351339329	 0.113762
H	 1.3471841598	-1.751997587	 2.7080261208	 0.118866
H	 0.2284788503	-0.3537448525	 3.0495116161	 0.110869
79.8149	129.8471	173.314	238.1229	296.3219	305.1547	316.0069	428.1115	483.4625	534.9032	603.6017	730.6074	761.599	790.4163	834.5845	847.4492	902.3638	911.115	940.5484	979.4661	993.6192	1018.9635	1051.0682	1060.9061	1074.0801	1078.5539	1090.9793	1144.9121	1163.2938	1188.0588	1207.4787	1231.8267	1248.5387	1275.8685	1335.6959	1355.7702	1377.8084	1412.4036	1451.4345	1456.2412	1492.339	1497.1836	1502.9402	3024.1232	3054.4544	3067.7181	3107.5291	3122.555	3128.6466	3129.6557	3161.6526	3202.9887	3222.0379	3817.3316
OCC1C2CC3(CC3)N12	OC[C@H]1[C@H]2CC3(CC3)N12	
InChI=1S/C7H11NO/c9-4-6-5-3-7(1-2-7)8(5)6/h5-6,9H,1-4H2	InChI=1S/C7H11NO/c9-4-6-5-3-7(1-2-7)8(5)6/h5-6,9H,1-4H2/t5-,6+,8?/m1/s1
