21
gdb 90230	2.48711	1.62182	1.4774	1.4922	80.78	-0.22	0.0645	0.2846	1030.4517	0.182733	-387.022825	-387.01466	-387.013716	-387.055341	32.986	
O	 0.5807539949	 0.8820367067	-0.7065298554	-0.425614
C	 0.1098504528	-0.2256215011	 0.0178618833	 0.074171
C	 0.1398781172	-0.1724182908	 1.5929684197	-0.355195
C	-1.3418332083	-0.6322476289	 1.6153772509	 0.304136
C	-2.4569076794	 0.442546338	 1.7523804828	-0.294634
C	-2.4483624524	 0.6214877505	 0.1887296513	-0.316562
C	-1.4201896816	-0.5336811134	 0.0794954824	 0.271999
C	-1.8987120542	-2.0092206737	-0.0102199938	-0.302716
C	-1.7181809915	-2.1390199631	 1.5492987316	-0.300864
H	 0.1445142367	 1.6714000329	-0.369119564	 0.278531
H	 0.6665292086	-1.0821347516	-0.3762532872	 0.087534
H	 0.8763531445	-0.8176367968	 2.0807125041	 0.101167
H	 0.2797625837	 0.8459271923	 1.9742971771	 0.091833
H	-3.4009564379	 0.0576206511	 2.1492632021	 0.101105
H	-2.1878670456	 1.3307286359	 2.3323450396	 0.096272
H	-3.4035644843	 0.4456273217	-0.3136801731	 0.104574
H	-2.0772134468	 1.592803056	-0.1568342812	 0.0863
H	-2.9312434976	-2.1242377588	-0.3530509204	 0.098665
H	-1.269046002	-2.6703809684	-0.613414239	 0.100299
H	-0.9104517177	-2.8125324586	 1.8510547403	 0.100188
H	-2.6166149691	-2.4240012897	 2.1044233988	 0.098811
59.4381	201.3223	233.3491	254.3331	298.	316.8583	370.3771	450.5166	563.9208	622.8202	667.1044	709.3851	717.4317	729.4351	805.1372	868.4917	881.5543	895.7624	902.8378	907.5807	931.7899	999.7788	1028.3395	1049.9486	1075.5813	1121.6217	1151.693	1190.4455	1212.6916	1228.5434	1234.8208	1238.8402	1252.31	1264.6156	1270.8678	1278.1705	1287.7457	1294.9829	1318.7213	1429.2807	1459.5806	1465.3557	1473.8818	1477.3089	1492.2071	3032.0218	3035.0492	3041.3898	3043.4517	3048.055	3052.5639	3082.3664	3086.3278	3091.8992	3100.5616	3105.6856	3806.2254
OC1CC23CCC12CC3	O[C@H]1C[C@@]23CC[C@@]12CC3	
InChI=1S/C8H12O/c9-6-5-7-1-3-8(6,7)4-2-7/h6,9H,1-5H2	InChI=1S/C8H12O/c9-6-5-7-1-3-8(6,7)4-2-7/h6,9H,1-5H2/t6-,7-,8+/m0/s1
