20
gdb 99720	1.90608	1.67144	0.9629	3.66	78.43	-0.2391	0.0063	0.2455	1254.2467	0.170795	-436.524812	-436.514894	-436.513949	-436.559832	36.728	
C	-0.4821750501	 0.8211380711	 0.4644255264	-0.381537
C	 0.1138660998	-0.5360500753	 0.0855440707	-0.148759
N	 0.7858233917	-0.5331268214	-1.2273393404	-0.169524
C	 2.1483906414	-0.2781187482	-1.337409113	 0.408592
C	 2.9090502343	-0.0655718398	-0.0410799599	-0.492429
N	 2.7356253408	-0.239355746	-2.4807789155	-0.542269
C	-0.1207596412	-0.745430393	-2.3230631874	 0.476952
N	 0.4237625293	-0.788408997	-3.5544816528	-0.556714
O	-1.3106672211	-0.8857039341	-2.094068241	-0.414846
H	 0.2806486389	 1.6052707352	 0.5142386877	 0.11018
H	-1.2338263238	 1.1132916172	-0.2718262037	 0.150875
H	-0.966489511	 0.7569686301	 1.4442855325	 0.116159
H	 0.8178756844	-0.8801480267	 0.8424574587	 0.10192
H	-0.6865310648	-1.2716159758	 0.02032115	 0.146606
H	 2.9482634535	-0.9848598985	 0.5519996331	 0.154086
H	 3.9336603252	 0.2290289802	-0.2738616825	 0.127695
H	 2.4622696361	 0.7120418851	 0.5831919216	 0.150958
H	 3.7253771089	-0.0446682664	-2.3723571663	 0.219267
H	 1.4192830795	-0.6006115052	-3.6663692336	 0.287509
H	-0.2239093318	-0.8891440215	-4.3162033845	 0.255279
64.7738	73.3021	115.6028	163.8895	224.9182	241.7752	314.1993	369.2114	410.97	418.8364	436.0635	470.638	565.1556	573.8998	616.1607	712.05	729.5482	778.6625	786.1749	803.0535	924.7115	962.6071	1043.3877	1061.2326	1090.2285	1110.7628	1154.2577	1197.3129	1240.8887	1333.5231	1358.9333	1389.5966	1407.2971	1413.5729	1450.2748	1474.337	1484.6311	1487.1902	1503.0281	1509.6637	1580.4994	1676.3771	1792.7409	3037.8107	3049.1553	3097.2712	3108.6463	3116.5294	3133.7829	3137.2106	3155.9836	3376.3076	3538.5188	3703.3392
CCN(C(C)=N)C(N)=O	CCN(C(=N)C)C(=O)N	
InChI=1S/C5H11N3O/c1-3-8(4(2)6)5(7)9/h6H,3H2,1-2H3,(H2,7,9)	InChI=1S/C5H11N3O/c1-3-8(4(2)6)5(7)9/h6H,3H2,1-2H3,(H2,7,9)
