21
gdb 117824	2.48088	1.06152	0.91247	2.4267	76.56	-0.2398	-0.0261	0.2137	1408.0818	0.17749	-461.346761	-461.335467	-461.334523	-461.383742	38.793	
C	 0.1569759743	 1.4614313786	-0.1751201317	-0.225518
O	 0.0712259133	 0.0564298674	-0.1088543691	-0.237206
C	 0.7870735033	-0.4931948081	 0.9723502269	-0.104497
C	 0.5810823047	-2.0110712031	 0.9502342388	 0.251709
C	 1.1985732444	-2.6543675666	-0.2860774802	-0.444426
O	 1.1535358112	-2.4412587997	 2.1897525524	-0.289726
C	 1.2267423525	-3.8417794074	 2.3992357569	-0.252835
C	-0.928352408	-2.2902938516	 1.055177062	 0.153428
O	-1.536714069	-3.0812467402	 0.3849376736	-0.250364
H	 1.1972849464	 1.7980168486	-0.3031966122	 0.109191
H	-0.4294814624	 1.7830901906	-1.0385887363	 0.133391
H	-0.249643754	 1.9364391926	 0.7309535565	 0.109151
H	 1.8625740316	-0.2653043639	 0.9065904808	 0.099062
H	 0.4213335051	-0.0979359805	 1.9339001933	 0.099408
H	 2.2900652139	-2.6098061754	-0.2250038749	 0.116378
H	 0.8807217316	-3.6919786779	-0.4015386908	 0.133682
H	 0.8733392457	-2.1042667961	-1.1716236471	 0.145969
H	 1.5594635265	-3.9780235508	 3.430774425	 0.131244
H	 0.2544502157	-4.3363195815	 2.2725227459	 0.124619
H	 1.95071398	-4.3221269442	 1.7291297742	 0.117922
H	-1.4159832767	-1.7279510306	 1.8839922562	 0.079417
55.8409	73.3793	101.8862	127.9617	136.8091	186.7384	225.6013	235.9879	268.9069	284.953	326.2176	343.6567	398.1779	410.1345	529.3382	622.7993	772.6491	886.5963	932.9924	974.6759	998.1913	1019.1863	1094.2836	1146.6593	1172.5516	1176.9798	1185.7303	1204.8926	1210.4406	1232.2797	1268.6189	1297.3125	1389.7926	1400.1282	1422.6964	1474.6837	1480.0422	1484.6441	1486.2922	1493.7224	1498.3245	1503.2725	1516.4036	1526.2281	1836.6958	2875.3122	2968.2039	2980.1794	3005.4666	3007.3589	3024.1688	3052.8682	3063.5705	3120.2146	3121.1428	3131.2986	3143.9572
COCC(C)(OC)C=O	COC[C@@](C)(OC)C=O	
InChI=1S/C6H12O3/c1-6(4-7,9-3)5-8-2/h4H,5H2,1-3H3	InChI=1S/C6H12O3/c1-6(4-7,9-3)5-8-2/h4H,5H2,1-3H3/t6-/m0/s1
