15
gdb 133756	1.91502	1.49289	1.01967	1.969	55.29	-0.2436	-0.048	0.1957	1149.9858	0.10711	-585.447858	-585.43864	-585.437696	-585.482613	32.007	
C	 0.3757689734	 1.4727799115	 0.1667537451	-0.324677
N	 0.2131110093	 0.0446264055	-0.0716929561	-0.291924
C	 0.7454569539	-0.4484061749	-1.3096648452	-0.206109
C	 1.3787212095	-1.8295088514	-1.1313251759	 0.157537
O	 1.609313861	-2.2994873513	-0.0490660223	-0.244719
C	-0.3296487277	-0.5304404885	-2.4011152584	 0.290184
F	-0.9307906807	 0.6492242052	-2.5892949736	-0.070353
F	 0.226168262	-0.8955824841	-3.5728050918	-0.082902
F	-1.2692364197	-1.4305758815	-2.1008296738	-0.0673
H	 1.4227120442	 1.8183029137	 0.1037432739	 0.100605
H	-0.2112552848	 2.0418942116	-0.5588485081	 0.136906
H	-0.0033007792	 1.7117169079	 1.1636142135	 0.129874
H	 0.5968677091	-0.5137965875	 0.6832157489	 0.244106
H	 1.5444701616	 0.1880368834	-1.7400424813	 0.109689
H	 1.630827908	-2.3588841295	-2.069931325	 0.119083
59.8841	105.2741	123.3627	181.3146	204.8838	231.8961	282.5575	324.411	374.1865	429.0153	529.7299	570.9913	675.7691	710.6084	741.083	803.9255	922.0368	1022.9868	1057.0289	1143.5872	1164.6997	1171.3898	1197.7933	1217.6333	1294.1986	1307.8987	1365.4572	1416.6322	1463.6796	1489.1021	1507.4096	1525.4286	1833.6956	2914.3176	2952.471	2960.7317	3081.8973	3124.9034	3532.1415
CNC(C=O)C(F)(F)F	CN[C@@H](C=O)C(F)(F)F	
InChI=1S/C4H6F3NO/c1-8-3(2-9)4(5,6)7/h2-3,8H,1H3	InChI=1S/C4H6F3NO/c1-8-3(2-9)4(5,6)7/h2-3,8H,1H3/t3-/m0/s1
