20
gdb 121086	2.80714	1.09189	0.8705	3.7097	75.67	-0.2066	-0.0106	0.1961	1355.185	0.17056	-440.288943	-440.279706	-440.278762	-440.323962	33.903	
O	-0.0268229031	 1.5024156437	 0.261601549	-0.409679
C	-0.1761877273	 0.0873269758	 0.2855003519	-0.071215
C	-1.6240896685	-0.2735317876	-0.0276521481	-0.143091
N	-1.9527441757	-0.1642415642	-1.4497142899	-0.078495
C	-3.1921165126	-0.8756502155	-1.8263626353	-0.184203
C	-4.3466783465	 0.1258885193	-1.6455054402	-0.326916
C	-3.6672181922	 1.4726225015	-1.9199144995	 0.397542
O	-4.2079514629	 2.5289610565	-2.1165989411	-0.308485
C	-2.1514588121	 1.2121618945	-1.921408937	-0.303672
H	 0.9105389787	 1.7109633703	 0.3056561704	 0.290521
H	 0.473972357	-0.3981779461	-0.4557893648	 0.098315
H	 0.0771921691	-0.3090896461	 1.2815664027	 0.086561
H	-1.7638943811	-1.3211399937	 0.2597737423	 0.101341
H	-2.2753151153	 0.3322426826	 0.629918015	 0.092871
H	-3.1181957344	-1.1723895777	-2.8806909591	 0.106928
H	-3.3035434434	-1.788007099	-1.2368947159	 0.105528
H	-5.205644286	-0.0227010453	-2.303520625	 0.127775
H	-4.7178791701	 0.1329218969	-0.6132831283	 0.132229
H	-1.608455171	 1.9367293457	-1.3154156341	 0.163829
H	-1.7996065228	 1.3187163084	-2.9585428229	 0.122316
43.5031	64.1671	131.2965	161.8682	234.1994	295.7776	327.6278	373.8644	451.1261	465.855	492.7253	582.773	647.5661	740.6114	791.4173	833.0608	896.8925	909.0589	956.7875	966.1559	1051.285	1067.196	1081.2634	1092.2819	1133.7243	1141.7076	1201.7341	1209.9294	1250.4342	1267.0579	1275.203	1294.5427	1337.5245	1349.4176	1358.3628	1404.4101	1449.9018	1454.5727	1467.3982	1482.4852	1504.5848	1510.0498	1851.2151	2932.9239	2974.341	3000.6681	3019.4689	3026.7832	3044.1702	3065.9691	3104.6724	3114.0747	3145.0665	3836.6149
OCCN1CCC(=O)C1	OCCN1CCC(=O)C1	
InChI=1S/C6H11NO2/c8-4-3-7-2-1-6(9)5-7/h8H,1-5H2	InChI=1S/C6H11NO2/c8-4-3-7-2-1-6(9)5-7/h8H,1-5H2
