20
gdb 61546	3.01451	1.0048	0.88571	2.7699	76.89	-0.2409	0.0255	0.2665	1375.7162	0.169189	-440.289225	-440.27928	-440.278336	-440.324682	36.054	
C	-0.0296128863	 1.4780180313	-0.0901104161	-0.356772
N	 0.0088561242	 0.0235725826	-0.0082812756	-0.042289
C	-0.0113188	-0.6105366341	 1.3049714338	-0.250512
C	-1.4099360762	-0.9679725848	 1.7833761926	 0.415591
O	-2.309083244	 0.1106941286	 1.7913851303	-0.462438
C	-1.9741600328	-2.3410669462	 1.5165868457	-0.321324
C	-1.5669065578	-1.9291359673	 2.9195194767	-0.296772
C	 0.1547775493	-0.7168903126	-1.1441042774	 0.151187
O	 0.1895439498	-0.2800903923	-2.2756677064	-0.341707
H	 0.904600436	 1.9161011068	 0.2841492306	 0.127229
H	-0.1536732613	 1.7510655047	-1.1380782594	 0.165356
H	-0.8569945785	 1.8715265621	 0.5052937944	 0.13373
H	 0.6057465499	-1.515441075	 1.2798484169	 0.115647
H	 0.4530404806	 0.0797958819	 2.0182099492	 0.12015
H	-2.601597601	 0.2500317808	 0.8836188208	 0.291091
H	-3.0362129792	-2.4026613731	 1.3077269747	 0.121434
H	-1.3640020361	-3.0687695534	 0.9920324716	 0.115967
H	-0.6771517311	-2.3737640483	 3.3526630475	 0.115787
H	-2.3593313933	-1.7112827603	 3.6255181794	 0.130252
H	 0.2394718078	-1.7984411314	-0.9169277294	 0.068393
48.1711	72.3244	120.9678	135.8101	236.1692	285.2611	289.2119	329.4	349.4408	373.3287	404.8119	433.4649	490.1812	705.1356	747.0643	777.1307	870.1173	895.2347	924.6975	930.7065	979.7416	1018.3806	1029.2882	1051.5329	1081.7129	1090.8164	1159.2716	1188.0316	1200.3997	1267.5927	1299.252	1310.673	1352.0756	1402.4497	1425.9355	1438.9592	1443.3771	1453.5893	1479.9934	1497.3995	1500.3721	1525.8533	1795.8898	2931.2196	3022.967	3035.0079	3081.3411	3098.9599	3133.2402	3139.189	3161.3363	3219.1063	3234.123	3797.574
CN(CC1(O)CC1)C=O	CN(CC1(O)CC1)C=O	
InChI=1S/C6H11NO2/c1-7(5-8)4-6(9)2-3-6/h5,9H,2-4H2,1H3	InChI=1S/C6H11NO2/c1-7(5-8)4-6(9)2-3-6/h5,9H,2-4H2,1H3
