21
gdb 79527	2.94031	1.70613	1.61886	1.5765	80.32	-0.2342	0.0844	0.3186	965.7672	0.186277	-387.098182	-387.091284	-387.09034	-387.128986	29.53	
C	-0.1549109384	 1.5662340183	 0.0114531343	-0.427182
C	 0.032266159	 0.0506478234	 0.0158004803	 0.028465
C	 0.9647500006	-0.5263676369	-1.0473149536	-0.058628
C	 2.4568789537	-0.2850843246	-0.5688896554	-0.039746
C	 2.7230039386	-1.7957890764	-0.7936654109	-0.238767
C	 1.2070299918	-2.0001195523	-0.5868397594	 0.103785
O	 0.8688285405	-1.9679172632	 0.8107017569	-0.287991
C	 0.8506491137	-0.5750814235	 1.1679064647	 0.080406
C	 2.2690808295	-0.016446995	 0.9484550569	-0.2336
H	 0.794943988	 2.1042552828	-0.0563666993	 0.118968
H	-0.7637379576	 1.873273803	-0.8452520515	 0.117364
H	-0.6690359056	 1.9051906062	 0.9176665611	 0.115462
H	-0.9468563904	-0.4407780673	-0.0199124963	 0.075316
H	 0.7434489619	-0.3619490115	-2.1006319142	 0.064186
H	 3.0852234534	 0.4422190781	-1.0840380471	 0.060991
H	 3.0146439842	-2.0135305572	-1.8261250794	 0.092499
H	 3.3954710554	-2.3117163033	-0.1025351654	 0.095451
H	 0.6969172315	-2.8479377237	-1.0485617819	 0.068392
H	 0.4458118704	-0.4871015167	 2.1772548846	 0.067794
H	 3.0107034618	-0.5382275722	 1.5593826695	 0.100727
H	 2.3197876882	 1.048391862	 1.1937267757	 0.09611
178.1877	218.7684	275.1872	361.133	384.6891	484.1762	506.8359	606.9338	635.5342	730.4066	795.3949	833.797	847.6668	861.1768	881.8395	907.5725	934.1536	949.4458	967.7725	978.3904	981.4055	1034.9915	1049.1061	1072.1543	1099.4132	1109.5049	1130.1666	1144.9691	1175.6901	1214.7742	1234.5915	1236.6289	1260.7258	1277.5442	1293.5301	1300.611	1325.0152	1346.9694	1354.731	1384.9377	1411.6742	1475.0713	1488.744	1498.3696	1510.1833	3034.5154	3043.6214	3044.8737	3055.4334	3086.5926	3094.0712	3095.6035	3100.0121	3104.7339	3109.4566	3114.6011	3132.1751
CC1C2C3CC2OC1C3	C[C@H]1[C@H]2[C@@H]3C[C@H]2O[C@H]1C3	
InChI=1S/C8H12O/c1-4-6-2-5-3-7(9-6)8(4)5/h4-8H,2-3H2,1H3	InChI=1S/C8H12O/c1-4-6-2-5-3-7(9-6)8(4)5/h4-8H,2-3H2,1H3/t4-,5+,6+,7-,8+/m1/s1
