16
gdb 9134	3.59306	0.94296	0.81061	2.9515	74.37	-0.2682	0.0067	0.2749	1423.4215	0.129645	-342.761667	-342.752268	-342.751324	-342.797421	32.007	
C	-0.66613511	 1.178457202	-0.1545794718	-0.367601
C	 0.5768128119	 0.3033900305	 0.0900847986	-0.318105
C	 1.0453278966	-0.3736707806	-1.1138642782	 0.095309
C	 1.4156915177	-0.9240076843	-2.1175269162	 0.112004
C	 1.866662226	-1.5906532387	-3.3394300149	-0.295783
N	 1.2322384283	-2.9071389708	-3.4902831057	-0.485634
C	 1.6545406902	-0.7015881054	-4.5131560397	 0.271938
N	 1.4793403045	-0.0629103114	-5.4605803041	-0.325257
H	-0.4564826679	 1.9529914235	-0.896781546	 0.136265
H	-1.5002917903	 0.5750240197	-0.5221155072	 0.130749
H	-0.9750097907	 1.6645015264	 0.7752124055	 0.119631
H	 1.3902455171	 0.9198983881	 0.4928543826	 0.137439
H	 0.3570667773	-0.4469838928	 0.8599130737	 0.137501
H	 2.9498374681	-1.7618213824	-3.2713751773	 0.159177
H	 0.2245596986	-2.7884973737	-3.5445700324	 0.246967
H	 1.5293204226	-3.3256159402	-4.3678379871	 0.245401
19.7665	70.2875	108.1438	182.736	221.5497	225.1963	272.8071	333.5865	352.014	456.7393	502.9485	574.1559	605.3599	757.9765	785.0849	842.0603	933.792	968.8932	1062.1522	1086.1996	1104.5328	1175.4089	1195.4013	1285.6499	1319.2765	1349.3145	1391.8833	1410.6794	1472.0995	1495.383	1505.4585	1654.4663	2347.3523	2376.5534	3018.6246	3025.9553	3047.9899	3054.9082	3122.555	3128.1857	3489.4059	3575.049
CCC#CC(N)C#N	CCC#C[C@@H](N)C#N	
InChI=1S/C6H8N2/c1-2-3-4-6(8)5-7/h6H,2,8H2,1H3	InChI=1S/C6H8N2/c1-2-3-4-6(8)5-7/h6H,2,8H2,1H3/t6-/m1/s1
