18
gdb 56640	2.02712	1.50705	1.14372	4.2187	71.85	-0.2642	0.0321	0.2963	1146.745	0.145211	-439.078024	-439.068316	-439.067372	-439.112512	35.855	
C	-0.2391362526	 1.4342585392	-0.0209102257	-0.424944
C	 0.0108699634	-0.0840589545	-0.0302975112	-0.171458
C	 0.735141868	-0.4994104911	-1.2411088639	 0.272665
N	 1.300213574	-0.8602008705	-2.1829303917	-0.336206
C	 0.7744212142	-0.5603917429	 1.2082850695	 0.352871
O	 1.9764373302	 0.1064481158	 1.4585247349	-0.463745
C	-0.0091383494	-1.1071676737	 2.386448478	-0.381185
C	 0.793148789	-2.0331392596	 1.5091186611	 0.073248
O	 0.0635910122	-2.9098127196	 0.7063450438	-0.421571
H	 0.7076929634	 1.9798616047	-0.0120316163	 0.140202
H	-0.8007202631	 1.7437384544	-0.9050743407	 0.141456
H	-0.8152320935	 1.707011208	 0.8683752044	 0.125892
H	-0.9478188032	-0.611422644	-0.0520952244	 0.139841
H	 1.7792737932	 0.9378804236	 1.9041634641	 0.289084
H	 0.3740752227	-0.9024979784	 3.3796389478	 0.123437
H	-1.0891660677	-1.1650505573	 2.3043359859	 0.128095
H	 1.7260141086	-2.4167494712	 1.9193675195	 0.107962
H	 0.5689397004	-3.0671136628	-0.100488275	 0.304355
48.4042	118.5533	183.3911	204.552	228.875	248.582	279.3723	334.6359	371.2016	386.9403	425.4473	468.2767	520.8747	550.055	613.9029	746.7605	830.9379	859.2226	916.6807	938.8494	978.6855	1009.4061	1038.7026	1092.8824	1114.8314	1117.92	1178.3484	1228.1907	1271.6063	1300.3932	1317.5739	1331.4826	1367.025	1404.2316	1423.4295	1485.3426	1492.6919	1507.9327	2352.8227	3048.3027	3073.0959	3121.5918	3124.5024	3133.6077	3136.8013	3231.1998	3787.4661	3794.5622
CC(C#N)C1(O)CC1O	C[C@@H](C#N)[C@@]1(O)C[C@H]1O	
InChI=1S/C6H9NO2/c1-4(3-7)6(9)2-5(6)8/h4-5,8-9H,2H2,1H3	InChI=1S/C6H9NO2/c1-4(3-7)6(9)2-5(6)8/h4-5,8-9H,2H2,1H3/t4-,5+,6-/m0/s1
