15
gdb 35451	2.4436	1.43622	1.09571	3.3172	77.27	-0.2446	0.0044	0.249	1107.026	0.112414	-379.596819	-379.588825	-379.587881	-379.629504	30.23	
C	-0.0360277161	-1.2251600011	-0.1263150533	-0.434401
C	-0.0068617931	-0.029096093	-0.0159848076	 0.370929
C	 0.0385724065	 1.4175297519	 0.1005281017	-0.263066
N	-0.1346356632	 1.9755562051	 1.4962021533	-0.31237
C	 1.0931619963	 2.7677170681	 1.3400292367	-0.061429
C	 2.2535522369	 1.8474278666	 1.2131010165	-0.310103
C	 1.413388043	 2.1252913063	-0.0235555376	 0.181666
C	 1.935103142	 2.6708895091	-1.2268797174	 0.196194
N	 2.3426074442	 3.1260486661	-2.2110299711	-0.351955
H	-0.0628452739	-2.2827834351	-0.2224229592	 0.207966
H	-0.6660786235	 1.8770460018	-0.5994851732	 0.125649
H	-0.9595380958	 2.565441903	 1.527511965	 0.236664
H	 1.1651119342	 3.805344214	 1.6401327962	 0.126394
H	 3.2319940245	 2.313946777	 1.1891914027	 0.143691
H	 2.2064171279	 0.8619421101	 1.6660159873	 0.144171
92.8757	122.8635	167.1118	214.455	305.12	436.1955	463.538	486.5258	540.8351	564.4207	641.7447	642.7627	667.0497	724.3014	819.8766	825.0542	891.4166	931.1551	977.0857	1006.5453	1043.858	1068.2618	1093.2362	1106.1851	1189.712	1205.4298	1273.341	1341.4616	1375.0903	1406.5825	1479.7242	2240.3797	2340.7312	3059.1971	3131.3568	3202.8693	3231.4132	3501.1963	3532.9657
C#CC1NC2CC12C#N	C#C[C@H]1N[C@H]2C[C@@]12C#N	
InChI=1S/C7H6N2/c1-2-5-7(4-8)3-6(7)9-5/h1,5-6,9H,3H2	InChI=1S/C7H6N2/c1-2-5-7(4-8)3-6(7)9-5/h1,5-6,9H,3H2/t5-,6+,7-/m1/s1
