19
gdb 81486	3.21562	1.48615	1.41613	1.737	73.09	-0.2523	0.0741	0.3264	998.1186	0.162013	-422.980716	-422.973899	-422.972955	-423.011579	28.843	
O	 0.1322215647	 1.5173027707	 0.0479604834	-0.457797
C	 0.163368763	 0.1180530859	 0.0028721686	 0.178307
C	 0.0970550759	-0.5703676461	 1.3924830354	 0.008017
O	-1.3482669731	-0.2585492092	 1.3855345583	-0.332028
C	-1.2348031061	-0.553239797	-0.058948273	 0.008017
C	-0.9843299526	-2.0692490636	-0.0348157779	-0.01047
C	 0.0679405044	-2.6897876211	-1.0018810226	-0.247727
C	 1.1231464428	-2.703344577	 0.1480496661	-0.247728
C	 0.0766887476	-2.0828950174	 1.121457547	-0.010469
H	-0.5592091657	 1.7434932614	 0.685107884	 0.285984
H	 0.9378175079	-0.1625065658	-0.7110894368	 0.086796
H	 0.628663184	-0.175652819	 2.2591194204	 0.081431
H	-2.0479102005	-0.1412285592	-0.6577540201	 0.081432
H	-1.9074448849	-2.633161627	 0.1030846362	 0.078714
H	-0.2043845692	-3.6871287215	-1.353431739	 0.104897
H	 0.3185913255	-2.0843948244	-1.877027081	 0.104507
H	 1.4383183212	-3.7082272733	 0.4366897553	 0.104896
H	 2.0236105945	-2.1062746609	-0.0189293131	 0.104508
H	-0.1465552494	-2.6558102657	 2.0220600787	 0.078714
192.6723	206.0021	311.5731	329.2832	371.3922	525.1126	533.255	577.7486	634.3763	751.772	753.8966	836.8103	847.7841	855.0043	856.9142	906.6508	937.2511	940.7781	962.7124	1003.4714	1020.0968	1037.5534	1045.6619	1088.459	1126.0543	1163.761	1179.5632	1211.9795	1219.8855	1242.2236	1243.8905	1253.9419	1268.5105	1282.0075	1294.8749	1323.9218	1330.5	1340.0867	1460.0295	1482.844	1501.0986	3060.1641	3065.3503	3092.7995	3103.3707	3105.5324	3111.018	3117.8669	3123.7935	3125.106	3759.2177
OC1C2OC1C1CCC21	O[C@H]1[C@H]2O[C@@H]1[C@H]1CC[C@@H]21	
InChI=1S/C7H10O2/c8-5-6-3-1-2-4(3)7(5)9-6/h3-8H,1-2H2	InChI=1S/C7H10O2/c8-5-6-3-1-2-4(3)7(5)9-6/h3-8H,1-2H2/t3-,4+,5+,6+,7-
