20
gdb 66840	2.62364	1.92589	1.43464	1.8012	82.26	-0.2083	0.0804	0.2887	995.3948	0.171367	-365.929198	-365.921418	-365.920473	-365.960937	31.221	
C	-0.0419600985	 1.4300308535	-0.0137637635	-0.519751
C	 0.0173912234	-0.0638136914	 0.071623352	 0.294625
C	 0.224415706	-1.004341364	-1.1272060324	-0.131964
N	 0.9134590069	-2.1967206608	-0.5458749906	-0.156076
C	 1.8970686009	-1.6068582353	 0.4392583228	-0.183359
C	 0.695770249	-0.9533784524	 1.147164091	-0.132926
C	-0.1752836817	-2.1056812561	 0.5457635349	-0.069447
C	-1.0246371257	-1.1208236752	-0.2966196817	 0.281741
C	-2.4783558714	-1.055501703	-0.6361493873	-0.530801
H	 0.9639125687	 1.8667825237	-0.0413912471	 0.12101
H	-0.562486046	 1.7524340749	-0.9225096243	 0.119406
H	-0.5710714268	 1.8692200847	 0.8400504805	 0.118558
H	 0.3707890317	-0.6711631997	-2.1480477614	 0.082686
H	 2.3554080226	-2.4142354266	 1.0187895386	 0.102937
H	 2.6735543011	-0.9718262726	 0.0006021663	 0.097456
H	 0.6844103054	-0.6319346975	 2.189133518	 0.06298
H	-0.4869896606	-3.0182869773	 1.0520572428	 0.072881
H	-3.0977128044	-0.9427845221	 0.2613921253	 0.12007
H	-2.6882904916	-0.2024033514	-1.290449725	 0.122406
H	-2.8072725488	-1.9613205812	-1.158410979	 0.127569
171.6145	186.2936	190.8505	227.788	267.2971	283.279	454.3362	567.8542	599.7692	621.5244	732.5245	770.5714	814.4835	827.336	838.8562	881.2143	892.3264	920.9446	937.3237	968.0535	985.9905	1020.3535	1053.9615	1100.0754	1111.2199	1137.0417	1151.4808	1155.174	1184.9575	1199.2737	1205.623	1213.1907	1239.443	1280.2008	1348.3333	1410.2149	1415.791	1468.8267	1482.4022	1485.7666	1494.4833	1497.8323	1504.8576	3016.0331	3021.0379	3042.0522	3073.6481	3080.5632	3085.311	3091.5798	3100.4553	3107.3192	3123.3043	3179.5542
CC12C3N4CC1C4C23C	C[C@@]12[C@H]3N4C[C@@H]1[C@H]4[C@@]23C	
InChI=1S/C8H11N/c1-7-4-3-9-5(4)8(7,2)6(7)9/h4-6H,3H2,1-2H3	InChI=1S/C8H11N/c1-7-4-3-9-5(4)8(7,2)6(7)9/h4-6H,3H2,1-2H3/t4-,5+,6-,7+,8-/m1/s1
