16
gdb 76040	2.41641	1.26174	1.13686	1.8504	71.8	-0.2689	-0.0548	0.2142	1143.3362	0.121209	-437.897765	-437.888265	-437.88732	-437.932115	33.524	
C	-0.1800343967	 1.3973930147	-0.0464595259	-0.418293
C	 0.082442828	-0.0848661971	 0.0511406998	-0.051149
C	 1.4659685988	-0.6720771097	-0.1401319034	-0.264376
C	 2.6124924476	 0.1693320994	-0.3105297007	 0.295775
N	 3.5511984647	 0.8397396208	-0.4057066024	-0.335837
C	 0.8045705706	-0.6609569038	 1.2553162975	 0.258594
O	 1.2482604343	 0.2297703284	 2.21976467	-0.454423
C	 0.3431690678	-1.9899318634	 1.7631206626	 0.109577
O	-0.0388453916	-2.8848385872	 1.0499378129	-0.261832
H	 0.6215622165	 1.9775958548	 0.4127898886	 0.153033
H	-0.2706551423	 1.6981497603	-1.0945178533	 0.135839
H	-1.1155360168	 1.6485490254	 0.4618311468	 0.134884
H	-0.697042216	-0.738556609	-0.3292542313	 0.12962
H	 1.5232895459	-1.6486740555	-0.6098211021	 0.158336
H	 2.2063409825	 0.163703306	 2.3099830578	 0.308698
H	 0.3743231766	-2.0755367042	 2.869931253	 0.101556
93.5414	110.7787	148.4345	161.1709	197.3538	210.0096	257.7867	267.4956	387.9812	391.8991	479.5157	587.7038	603.1934	665.0952	715.5292	752.2388	830.87	970.6939	1017.6568	1026.0103	1060.6024	1081.0024	1124.6526	1152.2511	1222.4949	1258.0191	1336.9638	1353.9977	1400.1956	1415.8567	1422.9067	1488.067	1497.3889	1812.1027	2349.2249	2918.8631	3050.5397	3113.6329	3142.9808	3164.6023	3172.9038	3790.2022
CC1C(C#N)C1(O)C=O	C[C@H]1[C@@H](C#N)[C@]1(O)C=O	
InChI=1S/C6H7NO2/c1-4-5(2-7)6(4,9)3-8/h3-5,9H,1H3	InChI=1S/C6H7NO2/c1-4-5(2-7)6(4,9)3-8/h3-5,9H,1H3/t4-,5+,6-/m0/s1
