18
gdb 98254	3.25614	1.16421	0.87112	1.578	72.66	-0.2276	0.0188	0.2463	1308.6406	0.147239	-472.454087	-472.444129	-472.443185	-472.489529	35.165	
C	 0.1165737587	 1.2003487284	 0.5607343934	-0.235765
O	-0.0862778807	-0.0716955198	-0.064165229	-0.248143
C	-1.193340016	-0.7300673155	 0.334567915	 0.55747
O	-1.9617442187	-0.2661010574	 1.1599230385	-0.437747
N	-1.2980271442	-1.9374359885	-0.3162189062	-0.218958
C	-0.2823045448	-2.2959300075	-1.3186059623	-0.330026
C	-2.3930559826	-2.8358324604	-0.1368250559	 0.435075
N	-3.1809397456	-2.5974029029	 0.9600669374	-0.560254
N	-2.5040159662	-3.8026217856	-0.9682477626	-0.560395
H	 1.0407113045	 1.5887629418	 0.1325972984	 0.135883
H	-0.7166648265	 1.874020617	 0.3476195454	 0.143403
H	 0.2131467883	 1.0894786649	 1.6433118598	 0.143637
H	 0.7117557073	-2.2545071239	-0.8710421889	 0.131288
H	-0.511065892	-3.3012639996	-1.6593769992	 0.179117
H	-0.3142966858	-1.6068354256	-2.166229532	 0.130645
H	-3.1281462864	-1.670214301	 1.3656728814	 0.283132
H	-4.0814140704	-3.0463314653	 0.9445153869	 0.245995
H	-3.2916394587	-4.397236359	-0.7214692102	 0.205642
58.5625	81.8159	116.1294	128.2514	159.6418	214.9271	252.2334	373.4021	391.5595	427.2242	453.6791	459.8414	575.9654	611.6017	668.4449	721.2921	780.1411	789.8221	821.1049	952.0115	1080.3755	1113.9484	1126.2217	1161.3643	1182.542	1195.9017	1223.0377	1233.1319	1364.59	1428.5721	1453.6066	1482.1972	1485.7102	1498.6876	1501.7249	1513.3819	1619.789	1713.4127	1778.2912	3055.2397	3062.6712	3127.7074	3131.9541	3160.3077	3197.9592	3502.8789	3514.1339	3683.6598
COC(=O)N(C)C(N)=N	COC(=O)N(C)C(=N)N	
InChI=1S/C4H9N3O2/c1-7(3(5)6)4(8)9-2/h1-2H3,(H3,5,6)	InChI=1S/C4H9N3O2/c1-7(3(5)6)4(8)9-2/h1-2H3,(H3,5,6)
