19
gdb 66738	2.44983	2.28692	1.77753	1.0644	85.02	-0.1922	-0.0304	0.1618	882.9732	0.159594	-348.637118	-348.630137	-348.629193	-348.667806	29.651	
C	-0.1467176149	 1.6181313141	-0.2215047194	-0.524169
C	-0.0654235246	 0.1228124627	-0.0837103785	 0.327964
C	 0.4278186611	-0.8875032901	-1.1717490128	-0.162858
C	-0.3874915151	-1.9040274791	-0.4023276474	-0.078206
C	 1.1524445232	-1.6145937021	-0.0858989532	-0.1142
C	 0.8798184994	-0.556151608	 0.9577280713	 0.032858
C	 0.2874263804	-0.7655059452	 2.1491991896	-0.133308
C	-1.2247162986	-0.6790299924	 1.9004304909	-0.26997
C	-1.2325071823	-0.8034821185	 0.3363142484	-0.062214
H	 0.8304817202	 2.0434958265	-0.4755660844	 0.122262
H	-0.85515504	 1.9097178899	-1.0049892058	 0.114648
H	-0.4706972644	 2.0790223832	 0.7181326702	 0.124156
H	 0.6252671995	-0.7794407038	-2.229176092	 0.086692
H	-0.6980779521	-2.8936499816	-0.716376701	 0.084517
H	 1.8700634196	-2.4238390381	-0.1487149326	 0.091397
H	 0.6807758274	-1.4434386486	 2.9010064934	 0.090877
H	-1.7112423772	-1.5040247684	 2.4350455277	 0.10554
H	-1.751730012	 0.2375611366	 2.2009236684	 0.106217
H	-2.2050009094	-0.6543341169	-0.1463603928	 0.057796
202.9723	216.0404	231.9758	318.0226	392.9709	510.1965	569.0563	595.5509	661.7653	718.5467	738.5294	766.6688	782.9478	819.4997	843.564	878.0034	886.4065	896.9227	928.8593	951.	987.8899	1016.9996	1021.6375	1041.5864	1054.7672	1114.5618	1148.7241	1155.7251	1178.1545	1196.1114	1224.4469	1239.8648	1279.8207	1302.4583	1327.4858	1354.528	1408.8405	1466.6889	1485.3183	1492.7336	1592.8062	3002.3317	3023.825	3050.8111	3053.7124	3089.5938	3092.9441	3162.0148	3179.6671	3185.3346	3212.7582
CC12C3C4C3C1=CCC24	C[C@@]12[C@@H]3[C@H]4[C@@H]3[C]1[CH]C[C@@H]24	
InChI=1S/C9H10/c1-9-4-2-3-5(9)7-6(4)8(7)9/h2,5-8H,3H2,1H3	InChI=1S/C9H10/c1-9-4-2-3-5(9)7-6(4)8(7)9/h2,5-8H,3H2,1H3/t5-,6+,7-,8+,9-/m1/s1
