18
gdb 102889	2.07077	1.0306	0.72241	3.2451	79.68	-0.2743	0.0018	0.2761	1547.8126	0.144208	-401.915316	-401.905004	-401.90406	-401.951516	35.891	
C	-0.1065652209	 1.5601451154	-0.0865785565	-0.39561
C	-0.0293405033	 0.0350918656	 0.0021741127	-0.19283
C	 0.7437067871	-0.4346907571	 1.2414530396	 0.001333
O	 0.0419882253	-0.0025214592	 2.3867149572	-0.242717
C	 0.7516682689	-0.193987472	 3.6080904696	-0.227721
C	-0.0180294432	 0.3672587046	 4.7068639994	 0.286529
C	-0.6325081759	 0.8221419202	 5.6323151861	-0.409091
C	 0.9080955537	-1.9076505973	 1.2394430882	 0.270914
N	 1.038784036	-3.0558445484	 1.2484813966	-0.32339
H	 0.8917561471	 2.003635379	-0.1709035454	 0.116703
H	-0.680929814	 1.8622881356	-0.9664740606	 0.123031
H	-0.5896835011	 1.9762635569	 0.8001276547	 0.145542
H	-1.0324087108	-0.4012542852	 0.0469940811	 0.131701
H	 0.4637207686	-0.3818731445	-0.8823462643	 0.121467
H	 1.7571407468	 0.002158782	 1.2286254344	 0.112057
H	 0.9299320927	-1.2660724322	 3.7815748059	 0.14931
H	 1.7380368633	 0.2948582054	 3.5506182394	 0.125857
H	-1.1806946403	 1.2231311912	 6.448880902	 0.206914
49.154	92.6951	102.2087	126.9038	144.8236	215.2531	232.6354	295.6413	329.6336	335.7841	434.4636	498.0726	549.8304	615.3248	626.1655	685.8385	783.168	872.1228	954.6752	970.2231	989.4915	1033.4982	1050.1449	1099.5873	1141.8695	1162.4027	1260.1015	1286.09	1318.3502	1353.99	1383.6557	1411.8602	1426.8719	1477.847	1496.0425	1500.5211	1509.0146	2251.066	2352.0583	2961.3782	2971.7689	3009.4708	3041.7498	3052.2639	3091.437	3111.8282	3135.8762	3505.0172
CCC(OCC#C)C#N	CC[C@@H](OCC#C)C#N	
InChI=1S/C7H9NO/c1-3-5-9-7(4-2)6-8/h1,7H,4-5H2,2H3	InChI=1S/C7H9NO/c1-3-5-9-7(4-2)6-8/h1,7H,4-5H2,2H3/t7-/m1/s1
