19
gdb 13112	4.1496	1.13528	0.95471	3.647	74.21	-0.2387	0.0398	0.2785	1262.5827	0.165419	-365.094166	-365.085382	-365.084437	-365.128564	30.881	
C	 0.0269153564	 1.565416734	 0.0470295953	-0.377156
C	 0.0946166402	 0.0369545548	 0.0923119926	-0.175331
C	 0.5656479871	-0.5616005634	-1.239857601	-0.160479
N	 0.647446502	-2.0028193146	-1.2324806416	-0.067454
C	 1.5516929129	-2.9441632576	-0.5637206958	-0.172569
C	 0.7903490623	-4.0886776318	-1.2914842937	-0.370823
C	-0.0615277272	-2.9600310351	-1.9193913994	 0.404157
O	-0.9760640977	-2.8800554355	-2.6980600237	-0.373516
H	 1.0076323611	 2.0005718896	-0.1752308263	 0.116371
H	-0.6700124216	 1.9082977587	-0.7254264423	 0.122597
H	-0.3090283449	 1.9748813633	 1.0040121312	 0.118137
H	 0.7750869175	-0.2796594954	 0.8928507082	 0.098404
H	-0.8895664389	-0.3794205762	 0.3361774462	 0.111921
H	-0.1347933353	-0.3020554919	-2.0411116461	 0.137986
H	 1.5439045967	-0.1388846584	-1.5120813674	 0.103271
H	 2.6033889678	-2.8259321507	-0.8494676242	 0.109057
H	 1.4726721109	-2.9478281565	 0.5285805779	 0.111604
H	 1.3770613746	-4.6624925714	-2.0108203485	 0.13217
H	 0.232796616	-4.7700893717	-0.6465897615	 0.131651
50.725	80.4728	88.1601	186.1329	231.815	248.5241	290.2343	343.7844	522.6388	563.3551	735.374	752.8138	784.5579	822.5034	878.3362	896.8449	950.6964	1021.7034	1041.386	1044.3495	1094.8765	1122.4608	1152.9354	1184.9377	1193.2529	1231.8668	1274.0867	1303.7726	1332.1855	1343.9287	1403.6688	1414.4007	1426.6252	1463.1535	1476.919	1492.4483	1499.974	1509.9723	1531.1757	1874.6386	2999.0661	3026.3245	3029.9607	3032.9939	3061.4582	3071.6788	3083.302	3088.1758	3101.2232	3109.0901	3145.4576
CCCN1CCC1=O	CCCN1CCC1=O	
InChI=1S/C6H11NO/c1-2-4-7-5-3-6(7)8/h2-5H2,1H3	InChI=1S/C6H11NO/c1-2-4-7-5-3-6(7)8/h2-5H2,1H3
