19
gdb 69559	2.71297	1.55649	1.36059	0.8957	74.78	-0.2412	0.0695	0.3107	1040.7899	0.157596	-422.970617	-422.962289	-422.961344	-423.002896	32.99	
C	-0.0890479852	 1.5288793986	 0.062912124	-0.505662
C	 0.162126634	 0.0583054674	-0.0039102947	 0.413362
O	-0.7532765094	-0.8138485252	 0.6887975715	-0.279236
C	 0.6438207335	-0.9290856823	 0.9819295716	-0.134031
C	 1.3004791027	-1.7881199695	-0.1398900037	 0.385279
O	 2.6815838734	-1.9636079926	-0.0234663731	-0.478468
C	 0.424865665	-2.9055922432	-0.783067659	-0.288859
C	-0.1285395525	-1.8654093862	-1.8099931725	-0.226035
C	 0.7693828695	-0.760056328	-1.179692687	-0.143973
H	 0.805347587	 2.0875625077	-0.2305836002	 0.127828
H	-0.9021767451	 1.8151483163	-0.6141786952	 0.130431
H	-0.3712362854	 1.8221087406	 1.077802078	 0.13299
H	 0.949775874	-0.8274044342	 2.0199492059	 0.094956
H	 2.8456317337	-2.5981144939	 0.6840310789	 0.279096
H	 1.0487453418	-3.6763235268	-1.2426078185	 0.099756
H	-0.3149494381	-3.3719106118	-0.1298690974	 0.103559
H	 0.1265822693	-2.0912179396	-2.8472984549	 0.098167
H	-1.2002168039	-1.6772520265	-1.7365539584	 0.111289
H	 1.4707402156	-0.2182763308	-1.8138379553	 0.079551
129.3396	194.7037	213.8924	247.6382	255.109	304.1343	348.9038	374.6755	479.9797	536.8847	585.134	647.7172	727.993	750.6754	789.8505	844.5206	879.3947	921.658	946.2762	961.9665	987.5746	1003.8517	1030.2855	1075.4768	1106.3288	1118.5846	1151.718	1192.5166	1207.7538	1223.9132	1238.2513	1270.8446	1279.9296	1302.3906	1375.4498	1402.5385	1454.4477	1457.174	1478.1812	1481.8913	1493.7566	3032.5271	3064.2904	3075.3316	3095.865	3118.4558	3119.9147	3123.4663	3139.1787	3150.075	3784.3933
CC12OC1C1(O)CCC21	C[C@]12O[C@H]1[C@@]1(O)CC[C@@H]21	
InChI=1S/C7H10O2/c1-6-4-2-3-7(4,8)5(6)9-6/h4-5,8H,2-3H2,1H3	InChI=1S/C7H10O2/c1-6-4-2-3-7(4,8)5(6)9-6/h4-5,8H,2-3H2,1H3/t4-,5+,6+,7+/m0/s1
