22
gdb 107047	3.67698	1.08107	0.95774	1.8132	81.56	-0.2315	0.0738	0.3052	1314.338	0.194995	-404.336601	-404.327539	-404.326594	-404.370127	35.19	
C	-0.0171374683	 1.5424087735	 0.0487018977	-0.396248
C	 0.0774771088	 0.021702631	 0.0246808853	 0.07435
C	 0.7323694527	-0.5754420899	-1.2453066192	-0.251913
C	 1.3266163537	-1.9112209231	-0.7584745719	-0.271731
C	 1.5931238767	-1.677120758	 0.7264590601	 0.31048
C	 1.6693873091	-2.874572456	 1.6434273681	-0.153524
O	 2.7445317039	-3.7411283988	 1.3045112279	-0.41532
C	 2.2846011868	-0.4040013065	 1.0801515553	-0.310008
N	 0.8197854799	-0.5119138634	 1.193026739	-0.137721
H	 0.9745217049	 2.001324673	-0.0302011815	 0.112705
H	-0.621223473	 1.9032840426	-0.7898830398	 0.114532
H	-0.4781972323	 1.8882973125	 0.9780496296	 0.125776
H	-0.9344157088	-0.3924721564	 0.1224421685	 0.080658
H	 0.0111398346	-0.7036120409	-2.0564791598	 0.101958
H	 1.5157998859	 0.0898145873	-1.6241310853	 0.100742
H	 0.5987632598	-2.7248586302	-0.8609958372	 0.104859
H	 2.2207407229	-2.2133056858	-1.3100882102	 0.107458
H	 1.727599595	-2.5340208016	 2.6875884552	 0.094711
H	 0.7614971268	-3.4806667124	 1.5452915652	 0.107877
H	 3.5582785278	-3.2315760453	 1.3800348055	 0.281517
H	 2.7977622574	-0.3113175151	 2.0343168194	 0.108731
H	 2.7165704259	 0.1961102332	 0.2834783779	 0.110111
78.414	127.4666	180.6584	224.1407	238.5074	290.8734	320.8474	377.38	400.7766	411.239	531.0371	603.239	647.0395	696.5911	802.6137	831.5576	857.39	922.9714	936.7594	939.8696	958.6496	995.2538	1006.5097	1064.9205	1082.324	1092.3237	1109.7398	1135.9315	1168.8615	1189.987	1208.3159	1221.9782	1272.3473	1307.7882	1334.0887	1351.8177	1363.2355	1376.56	1400.1828	1409.9429	1421.6833	1488.1882	1491.097	1494.085	1499.0668	1502.5541	1521.2382	2998.23	3016.4855	3034.705	3040.1833	3048.0227	3064.7303	3091.0835	3099.3317	3101.4687	3104.7128	3115.2897	3182.914	3807.6046
CC1CCC2(CO)CN12	C[C@H]1CC[C@@]2(CO)CN12	
InChI=1S/C7H13NO/c1-6-2-3-7(5-9)4-8(6)7/h6,9H,2-5H2,1H3	InChI=1S/C7H13NO/c1-6-2-3-7(5-9)4-8(6)7/h6,9H,2-5H2,1H3/t6-,7-,8?/m0/s1
