13
gdb 48057	3.59129	0.93409	0.79404	1.8317	66.43	-0.2525	-0.1218	0.1307	1363.0546	0.083573	-456.540887	-456.531312	-456.530368	-456.576911	31.798	
O	-0.6765292691	 1.2282795096	 0.9053157672	-0.197625
C	 0.0938144323	 0.9792448523	 0.0202139205	 0.091451
C	 1.2464891851	 1.9147297541	-0.3713596886	 0.219909
O	 2.2360184316	 1.4561952683	-0.8895471865	-0.259654
C	 1.088842206	 3.42319891	-0.1042648524	 0.30903
O	 0.01773854	 3.9349266923	-0.2922775294	-0.24908
C	 2.3730090692	 4.1436962108	 0.2935581415	-0.487469
C	 2.2450639096	 5.5852984712	 0.3847235801	 0.310326
C	 2.1336995369	 6.7778826939	 0.4602878009	-0.409002
H	 0.1136606227	 0.016937678	-0.5331614505	 0.118345
H	 2.7014290588	 3.7122152771	 1.2512366194	 0.167045
H	 3.1453715761	 3.8429028504	-0.426638292	 0.180783
H	 2.0356091105	 7.8333801221	 0.52501842	 0.205942
39.8001	56.1945	100.6623	109.5961	175.7489	210.5836	309.1549	324.6447	383.9346	468.8071	511.5795	569.9543	634.412	657.2343	663.7891	803.9292	908.0915	941.1176	1005.7105	1035.3798	1203.6626	1234.5709	1343.8703	1372.8682	1429.5136	1795.0511	1811.9938	1838.0933	2252.8268	2924.6343	3010.5389	3051.0562	3505.2988
O=CC(=O)C(=O)CC#C	O=CC(=O)C(=O)CC#C	
InChI=1S/C6H4O3/c1-2-3-5(8)6(9)4-7/h1,4H,3H2	InChI=1S/C6H4O3/c1-2-3-5(8)6(9)4-7/h1,4H,3H2
