18
gdb 100428	4.6076	0.69642	0.6178	7.9327	72.35	-0.2424	0.0091	0.2515	1735.4033	0.147799	-472.444852	-472.435049	-472.434105	-472.480626	35.019	
N	 0.2048527715	 1.1291761472	-0.9068535253	-0.520681
C	-0.0659706678	 0.1620569759	 0.1616820017	-0.232082
C	-1.4993190207	-0.3455780936	 0.1013589758	 0.382387
N	-2.0045812165	-0.432479006	-1.1582352966	-0.530176
N	-2.0757362321	-0.6976452604	 1.1902515733	-0.323993
H	-2.197607486	-0.9686727299	 3.0005905198	 0.302017
C	-3.4125384429	-1.255037708	 1.1471782711	-0.322751
C	-3.8781973949	-1.6047934037	 2.5698310314	 0.414847
O	-2.9603730022	-1.3381060368	 3.5042165727	-0.361929
O	-4.9598517504	-2.0712234751	 2.8090107245	-0.346326
H	-0.137065735	 2.0492877157	-0.6470968717	 0.241741
H	 1.2033029713	 1.2204669813	-1.0552732161	 0.244681
H	 0.5944820257	-0.6993774597	 0.0068516589	 0.137667
H	 0.1095309166	 0.5256992497	 1.1810370236	 0.12105
H	-1.4954578261	 0.0762510254	-1.8675504072	 0.270109
H	-2.9814266427	-0.6179735894	-1.306330218	 0.264528
H	-4.1565970765	-0.5588577557	 0.7292124786	 0.125625
H	-3.4736942412	-2.176147507	 0.5482965433	 0.133287
46.1828	73.7019	97.0388	119.6982	223.2257	271.9304	287.6203	322.4519	372.3155	394.4547	549.1716	572.5011	589.7769	615.9974	645.946	701.341	835.2797	849.5895	876.0336	902.3871	986.9177	1000.1459	1032.95	1086.7175	1160.9904	1175.6372	1221.1103	1232.2683	1317.5801	1339.4043	1374.7812	1413.1679	1452.8649	1458.5624	1486.6423	1611.1315	1663.9683	1745.8988	1874.8483	2980.9118	3017.0151	3029.7021	3071.4393	3421.43	3507.5811	3564.624	3589.6567	3711.5699
NCC(N)=[NH+]CC([O-])=O	NCC(=NCC(=O)O)N	
InChI=1S/C4H9N3O2/c5-1-3(6)7-2-4(8)9/h1-2,5H2,(H2,6,7)(H,8,9)	InChI=1S/C4H9N3O2/c5-1-3(6)7-2-4(8)9/h1-2,5H2,(H2,6,7)(H,8,9)
