16
gdb 66023	2.38792	1.33338	1.12984	3.9663	73.66	-0.2744	-0.0148	0.2596	1125.5483	0.124607	-396.930732	-396.92206	-396.921115	-396.96414	31.473	
C	-0.1326251993	 1.570864084	 0.0100087244	-0.447748
C	-0.0683159585	 0.0408987111	-0.0010570053	 0.128567
C	 1.1339819972	-0.5305034008	-0.8230709156	-0.201225
N	 1.9100556032	-0.6256223028	 0.4319563045	-0.306209
C	 0.6784332668	-0.5909470211	 1.2415885345	-0.165908
C	 0.7510014574	 0.1950342906	 2.4722878934	 0.316373
N	 0.7938263276	 0.8186715595	 3.4440059449	-0.319737
C	-1.3660875008	-0.5526727899	-0.2893908432	 0.242352
N	-2.3923169712	-1.0305344681	-0.5233736228	-0.329925
H	 0.8586852271	 1.9788387031	 0.2201999861	 0.155271
H	-0.4679178512	 1.9376263771	-0.9636634524	 0.141094
H	-0.8270869962	 1.9289414997	 0.773796316	 0.156388
H	 0.8931570128	-1.4911371168	-1.2937393123	 0.124945
H	 1.5615090405	 0.1455403071	-1.568651925	 0.130105
H	 2.4811730933	-1.4544703251	 0.5494399564	 0.241588
H	 0.2548260013	-1.5754000575	 1.4803488264	 0.134069
87.0219	134.7647	152.9325	197.9721	239.8317	260.8357	332.6983	356.6818	479.2331	521.8341	569.8176	581.7455	602.9887	706.905	875.0868	909.5422	930.1687	957.3574	1000.8109	1033.8612	1069.5559	1140.0916	1144.808	1181.9416	1222.8193	1265.8667	1332.7923	1362.9629	1392.3076	1415.0485	1490.8869	1492.4609	1522.49	2355.8222	2360.4954	3019.4403	3030.1074	3053.0267	3092.779	3131.265	3139.407	3547.6982
CC1(CNC1C#N)C#N	C[C@]1(CN[C@H]1C#N)C#N	
InChI=1S/C6H7N3/c1-6(3-8)4-9-5(6)2-7/h5,9H,4H2,1H3	InChI=1S/C6H7N3/c1-6(3-8)4-9-5(6)2-7/h5,9H,4H2,1H3/t5-,6+/m0/s1
