17
gdb 103248	3.08064	1.41909	1.16868	1.9758	67.24	-0.2313	0.0489	0.2801	1057.6005	0.134536	-458.859001	-458.851116	-458.850172	-458.891211	31.398	
O	 0.154438819	 1.0399112994	 0.8141072058	-0.423557
C	-0.0196640189	 0.3497787016	-0.4312128901	-0.178205
C	-1.3533498392	-0.3816886979	-0.4010963937	 0.412762
O	-2.3576213764	 0.490894977	 0.0494221992	-0.476713
C	-1.9487820787	-1.3448971677	-1.3844318174	-0.17392
C	-1.0060329971	-2.4637359775	-1.9099347003	 0.010412
O	 0.3128330679	-2.3170086165	-1.360921482	-0.250853
C	-0.7171454134	-2.9124218798	-0.5514611549	 0.004797
C	-1.6350043662	-1.8118842698	 0.0548113182	-0.195717
H	 0.3997050379	 0.3815463746	 1.4733621037	 0.290284
H	-0.0679396046	 1.134651298	-1.1931274826	 0.118545
H	 0.812819764	-0.314245911	-0.6495815974	 0.135695
H	-1.9146133015	 1.04489112	 0.7090467048	 0.2883
H	-2.9244690153	-1.1440529976	-1.8074171113	 0.107308
H	-1.0982628779	-2.9961045331	-2.8489249484	 0.11513
H	-0.5173990468	-3.8945340824	-0.1392393246	 0.113428
H	-2.3516587728	-1.9970079273	 0.8435836009	 0.102306
94.3217	150.7792	246.5414	311.9184	348.0149	369.9331	382.7224	430.143	524.4698	572.7523	643.0463	714.6643	760.6098	773.1069	805.0011	849.2881	889.376	915.3762	927.1284	958.0843	996.6446	1000.4857	1029.0067	1039.9312	1048.0072	1112.9691	1207.1754	1213.0171	1232.932	1250.8671	1268.7749	1300.9519	1356.7941	1391.2805	1404.4808	1478.4303	1502.4985	3063.4744	3167.0751	3179.5638	3194.4494	3202.3816	3212.3237	3725.3866	3808.1307
OCC1(O)C2C3OC3C12	OC[C@@]1(O)[C@H]2[C@H]3O[C@H]3[C@@H]12	
InChI=1S/C6H8O3/c7-1-6(8)2-3(6)5-4(2)9-5/h2-5,7-8H,1H2	InChI=1S/C6H8O3/c7-1-6(8)2-3(6)5-4(2)9-5/h2-5,7-8H,1H2/t2-,3+,4-,5+,6-
