18
gdb 10318	2.64432	1.7987	1.16868	2.0807	71.75	-0.2475	-0.013	0.2344	1048.5517	0.153323	-381.164398	-381.155426	-381.154482	-381.197962	32.14	
C	 0.0756365881	 1.5562004876	 0.0544269817	-0.381421
C	 0.0242540088	 0.0269084306	 0.0416932325	-0.153342
N	-1.3446873249	-0.5042194904	 0.0549562935	-0.101065
C	-2.0115065625	-0.6195724047	-1.1632529357	 0.089697
N	-1.4548320127	-0.27611056	-2.2550705368	-0.478931
C	-2.0302979779	-0.8730261143	 1.2169581279	 0.414966
C	-1.2809062518	-0.7412145111	 2.5300131239	-0.51025
O	-3.1711140426	-1.2885658708	 1.1788243506	-0.34869
H	 1.1162822269	 1.8944937307	 0.0321727744	 0.120223
H	-0.434244458	 1.9574228343	-0.8240240184	 0.150514
H	-0.3967024129	 1.9700195949	 0.9511876236	 0.11605
H	 0.4918092889	-0.3458151068	-0.8717714768	 0.147265
H	 0.5686089654	-0.3896939805	 0.8899471928	 0.110854
H	-3.0149410623	-1.0242880048	-1.0363028339	 0.146123
H	-2.0890289608	-0.4438493433	-3.0337726777	 0.230229
H	-0.8717027195	 0.2620996093	 2.6760194774	 0.145424
H	-1.9857385804	-0.9674574715	 3.3291769972	 0.152156
H	-0.4483732916	-1.4506808893	 2.5816593337	 0.150198
84.0621	102.9128	155.5427	194.7229	223.9163	229.7866	271.8049	385.5367	424.792	434.5725	546.9878	595.882	627.4903	751.4734	796.5379	838.4767	968.3307	980.2678	1045.9261	1051.7643	1087.6319	1104.5171	1143.64	1189.7162	1293.4128	1353.0901	1367.373	1393.6813	1400.2899	1411.5017	1425.5981	1465.67	1485.8388	1488.0134	1495.527	1507.8422	1707.3211	1782.1686	3042.2789	3048.9421	3086.3112	3108.2842	3114.7315	3126.9888	3144.3989	3145.7718	3164.6543	3505.0245
CCN(C=N)C(C)=O	CCN(C=N)C(=O)C	
InChI=1S/C5H10N2O/c1-3-7(4-6)5(2)8/h4,6H,3H2,1-2H3	InChI=1S/C5H10N2O/c1-3-7(4-6)5(2)8/h4,6H,3H2,1-2H3
