15
gdb 12456	3.62211	1.98635	1.34544	3.379	65.33	-0.2241	-0.0117	0.2124	873.5842	0.121033	-399.826848	-399.819954	-399.81901	-399.85818	25.848	
O	-0.0373110728	-0.1071695019	 0.002516563	-0.349832
C	-0.0135533187	 1.1064461825	 0.0358741639	 0.386673
C	-1.2855047728	 1.9434888341	-0.0900210829	-0.198838
O	-1.3678040883	 3.0058155271	 0.832070589	-0.23304
C	-0.8192310259	 4.2264038323	 0.3834416482	-0.140465
C	 0.6646385734	 4.2056794428	 0.1630013237	-0.100163
C	 1.4779263612	 3.1484414279	 0.1086583155	 0.013716
N	 1.1801284455	 1.7845548758	 0.1741123921	-0.328404
H	-1.3726873126	 2.3028131877	-1.1282607038	 0.115113
H	-2.1154862727	 1.2615896908	 0.1061273229	 0.142834
H	-1.3373607355	 4.5653220597	-0.5328625368	 0.100673
H	-1.0610346976	 4.9571950262	 1.1646464925	 0.124572
H	 1.1310383595	 5.1797954218	 0.0496431304	 0.097846
H	 2.5422157577	 3.3168906955	-0.0188850839	 0.114033
H	 1.9669613797	 1.1531098876	 0.2229152363	 0.255281
84.9418	140.707	283.0953	355.5245	383.0929	443.0189	486.0764	561.5835	627.2522	698.7295	727.8773	807.4869	865.2754	900.381	962.4489	986.0269	1010.9515	1058.5134	1102.0423	1175.5043	1240.2845	1280.6191	1315.9904	1354.1939	1385.4666	1407.9199	1451.1677	1469.8334	1486.9634	1491.3873	1747.3451	1791.5629	2930.7116	2982.2545	3049.2314	3115.3595	3168.0717	3189.8979	3608.5002
O=C1COCC=CN1	O=C1COCC=CN1	
InChI=1S/C5H7NO2/c7-5-4-8-3-1-2-6-5/h1-2H,3-4H2,(H,6,7)	InChI=1S/C5H7NO2/c7-5-4-8-3-1-2-6-5/h1-2H,3-4H2,(H,6,7)
