23
gdb 105524	2.04176	1.369	1.17769	0.9686	81.1	-0.2494	0.067	0.3164	1245.8056	0.203097	-425.397619	-425.386963	-425.386019	-425.43466	38.255	
C	-0.0227665731	 1.4541242546	-0.0577721834	-0.254646
O	 0.0039897931	 0.0482060418	-0.1837139878	-0.303813
C	 0.639178668	-0.5186538859	-1.3101163343	 0.380572
C	 0.1798054589	-0.0212795435	-2.7097823248	-0.139506
O	 1.494213242	 0.4860849222	-3.009836453	-0.274377
C	 2.0205721999	 0.0554263195	-1.7402676331	-0.141611
C	 0.5976134714	-2.0395981911	-1.1073002733	-0.005652
C	 1.3928152214	-2.4580737179	 0.1373736466	-0.400677
C	-0.8464097842	-2.5569488828	-1.0450600535	-0.400282
H	 0.9720931703	 1.8768026562	 0.1352769156	 0.113662
H	-0.4443019117	 1.952257829	-0.940443914	 0.116737
H	-0.6620190781	 1.6726613919	 0.8009917582	 0.130118
H	-0.1281833941	-0.8091417296	-3.4083271787	 0.099232
H	-0.5827145429	 0.7664071813	-2.7112451956	 0.102173
H	 2.4071135867	 0.890930371	-1.1463310597	 0.101761
H	 2.8165413468	-0.6909774906	-1.85498323	 0.099252
H	 1.0832286229	-2.4763382211	-1.9903064701	 0.076042
H	 1.3932505022	-3.5470617764	 0.2460177686	 0.109485
H	 2.4364435394	-2.1305722059	 0.0804464603	 0.109071
H	 0.9523950504	-2.0230622865	 1.0381731646	 0.131515
H	-1.4096394282	-2.2955201381	-1.9472723382	 0.109425
H	-0.8601197092	-3.6471815645	-0.9501984184	 0.109228
H	-1.3710473719	-2.1308121738	-0.1861067459	 0.132288
16.896	57.8956	102.202	178.1798	197.3664	209.4386	239.5849	254.2638	312.0384	353.7761	354.1688	454.0307	491.8575	515.1476	642.7494	810.1365	859.5126	911.3881	927.3581	942.0272	964.1206	987.5807	1032.1254	1042.499	1057.0904	1131.0284	1142.1469	1152.3596	1155.1846	1158.8251	1180.5905	1197.8239	1236.0293	1279.7518	1299.9095	1349.6269	1361.0293	1386.651	1395.5005	1416.758	1480.7838	1485.6069	1487.2394	1493.2459	1500.6935	1504.8669	1514.694	1517.9661	1534.7326	3002.7688	3012.1872	3014.0149	3026.4957	3035.1795	3039.5143	3054.125	3062.0372	3068.1232	3097.2132	3100.2536	3115.3437	3120.5977	3125.1635
COC1(COC1)C(C)C	COC1(COC1)C(C)C	
InChI=1S/C7H14O2/c1-6(2)7(8-3)4-9-5-7/h6H,4-5H2,1-3H3	InChI=1S/C7H14O2/c1-6(2)7(8-3)4-9-5-7/h6H,4-5H2,1-3H3
