17
gdb 33975	2.35622	1.72889	1.20242	1.8895	79.99	-0.2423	0.0179	0.2602	1058.9643	0.134042	-384.598884	-384.590845	-384.589901	-384.631248	31.563	
C	-0.0230936152	-1.2008763898	-0.1179218103	-0.416973
C	 0.0375994813	-0.0031436062	-0.0244251513	 0.2027
C	 0.0538875101	 1.4084715394	 0.1403084114	 0.268559
O	 0.2411976996	 2.2590574716	-1.0151104778	-0.293594
C	 1.1402839967	 2.4188528628	 0.0784977314	-0.069508
C	 0.4499558636	 3.303244977	 1.1311791887	-0.343213
C	-0.680334583	 2.2457909816	 1.1819337974	 0.284144
C	-2.1599385955	 2.4121341413	 1.3281944325	-0.318195
C	-1.3595137976	 1.7077236539	 2.4030968778	-0.334922
H	-0.0619514438	-2.2578621698	-0.2141749516	 0.193099
H	 2.1979674724	 2.2855482541	-0.1169974751	 0.11724
H	 1.0083549403	 3.3738746063	 2.0684508779	 0.112702
H	 0.1816499089	 4.3024414303	 0.7794226573	 0.116049
H	-2.5358437314	 3.4073443902	 1.5416909476	 0.117669
H	-2.8071872155	 1.814562502	 0.695073473	 0.124245
H	-1.4595670023	 0.6303397099	 2.4877103706	 0.125884
H	-1.1965363987	 2.2207594555	 3.3453557205	 0.114114
107.7906	134.3044	172.2617	271.784	287.1857	394.1963	469.5614	493.7766	548.4823	580.2177	603.139	628.3136	669.9103	773.5743	789.0663	850.012	875.9868	890.0537	937.3494	952.572	981.801	1000.1565	1057.1402	1068.644	1081.4692	1116.214	1160.4318	1187.3828	1214.396	1253.8779	1263.3711	1376.895	1412.6078	1461.7756	1474.1219	1503.9961	2238.7517	3060.4343	3117.6127	3126.2035	3131.5537	3190.335	3206.7731	3221.1098	3500.977
C#CC12OC1CC21CC1	C#C[C@]12O[C@H]1CC12CC1	
InChI=1S/C8H8O/c1-2-8-6(9-8)5-7(8)3-4-7/h1,6H,3-5H2	InChI=1S/C8H8O/c1-2-8-6(9-8)5-7(8)3-4-7/h1,6H,3-5H2/t6-,8-/m0/s1
