17
gdb 50676	2.16102	1.48132	1.05581	2.3175	73.92	-0.2524	-0.0296	0.2228	1154.9338	0.134656	-421.798064	-421.789207	-421.788263	-421.832995	31.523	
O	 0.2008005737	-0.2433944723	-0.1312478247	-0.251699
C	 0.128433074	 0.9575409662	-0.0872927205	 0.143595
C	 1.3245436617	 1.8797804487	-0.0083057919	-0.073087
C	 1.3382601891	 2.9528443185	-1.1227347467	-0.273946
C	 1.9816586437	 4.1883306635	-0.4410425292	-0.078138
O	 2.2887118362	 3.8054857085	 0.8998705618	-0.235267
C	 1.4006759281	 2.7630133665	 1.2719793314	-0.108307
C	 0.0958331824	 3.2801979561	 1.7079691744	 0.339834
C	-0.9649303846	 3.7207075519	 2.0629870059	-0.473049
H	-0.8523889977	 1.4805724074	-0.1119135703	 0.091175
H	 2.2274915699	 1.2667867943	-0.0412835432	 0.107832
H	 1.9006241492	 2.610354623	-1.9931407038	 0.126658
H	 0.320137516	 3.1795576015	-1.4545629411	 0.119627
H	 2.9193547714	 4.498541531	-0.9091911115	 0.118094
H	 1.2918246535	 5.0415834771	-0.4444516009	 0.111226
H	 1.8708442356	 2.2225830828	 2.0987990291	 0.127201
H	-1.8986856524	 4.1084598352	 2.3895812913	 0.208248
37.7694	67.9093	102.0947	144.883	240.2411	309.7669	337.5057	416.9232	489.0666	560.2548	641.2388	676.8176	714.818	723.5182	830.8674	868.2549	926.1734	937.0411	976.1016	988.747	1045.1388	1093.3074	1102.26	1126.9809	1216.5599	1239.3244	1260.6236	1283.7871	1303.2181	1336.8138	1362.6409	1384.4143	1427.258	1491.8126	1522.8367	1829.7067	2228.6912	2898.8645	3023.8059	3059.7837	3072.0946	3089.7554	3096.0989	3121.8411	3499.5848
O=CC1CCOC1C#C	O=C[C@H]1CCO[C@H]1C#C	
InChI=1S/C7H8O2/c1-2-7-6(5-8)3-4-9-7/h1,5-7H,3-4H2	InChI=1S/C7H8O2/c1-2-7-6(5-8)3-4-9-7/h1,5-7H,3-4H2/t6-,7+/m1/s1
