18
gdb 64969	3.50975	1.00689	0.84768	3.1587	78.79	-0.2412	-0.019	0.2222	1371.1804	0.144428	-401.906204	-401.896477	-401.895533	-401.941513	35.355	
C	-0.0939682113	 1.5148751392	-0.7317849673	-0.464119
C	-0.0650115668	 0.2041439917	 0.0246665695	 0.207
C	 0.8526007503	-0.8809170613	-0.4545621196	-0.267483
N	 1.1337946307	-0.1811501922	 0.7986846613	-0.339563
C	-1.3864739174	-0.1912702775	 0.6447420526	 0.349293
O	-2.4202839685	 0.275647351	 0.2326904586	-0.293275
C	-1.3322218655	-1.1763420759	 1.8227415386	-0.49613
C	-2.6371454079	-1.6294271563	 2.2712930342	 0.325709
C	-3.7096807264	-2.014806606	 2.6490648329	-0.423448
H	 0.864072915	 1.6960306119	-1.2288880527	 0.107758
H	-0.8858045195	 1.5030945099	-1.4836350079	 0.152534
H	-0.2980995565	 2.3510023579	-0.0551526379	 0.132545
H	 0.5797504172	-1.9275175427	-0.3525311858	 0.127466
H	 1.4474881934	-0.6548296677	-1.3357753937	 0.125298
H	 1.8636088741	 0.5140589597	 0.6633478057	 0.238217
H	-0.6916748921	-2.0266880486	 1.5609657484	 0.154076
H	-0.7857011961	-0.6709998802	 2.6297358684	 0.169193
H	-4.6612646227	-2.3498112629	 2.9796634846	 0.194929
37.9742	62.865	124.687	190.4045	228.1508	269.0774	321.2297	322.7762	367.4721	395.2152	462.3908	533.5697	580.3684	623.3518	641.6517	773.2075	811.4135	845.8106	927.297	945.2709	951.6471	990.1604	1011.9425	1049.6906	1073.8955	1123.8914	1144.1728	1207.0139	1261.9645	1318.9208	1342.965	1378.3342	1412.9663	1418.8754	1478.7331	1500.1262	1514.8208	1807.4694	2249.5349	3037.8277	3040.6555	3063.5795	3106.0064	3109.5021	3132.7128	3194.2753	3502.582	3508.2663
CC1(CN1)C(=O)CC#C	C[C@]1(CN1)C(=O)CC#C	
InChI=1S/C7H9NO/c1-3-4-6(9)7(2)5-8-7/h1,8H,4-5H2,2H3	InChI=1S/C7H9NO/c1-3-4-6(9)7(2)5-8-7/h1,8H,4-5H2,2H3/t7-/m0/s1
