21
gdb 121423	3.67792	0.75288	0.66894	2.0255	84.29	-0.2353	-0.0487	0.1866	1746.48	0.180146	-420.44361	-420.432624	-420.43168	-420.48066	38.753	
C	 0.3576347946	 1.3892201788	 0.1348302465	-0.37655
C	 0.1706171573	-0.1204754479	 0.3020502664	-0.162215
C	-1.2185085439	-0.6004137474	-0.1550849411	-0.162947
N	-1.3410375329	-2.046192124	-0.0836525518	-0.277726
C	-1.7946965679	-2.5795728788	 0.9876833268	 0.24804
N	-2.2519839806	-1.9826981225	 2.1339870345	-0.552564
C	-1.9032671555	-4.0950936185	 1.0414156997	 0.370558
C	-1.5540491854	-4.863882405	-0.2069206129	-0.47185
O	-2.2603293111	-4.6282692866	 2.0722104102	-0.319185
H	 1.3526932511	 1.7042135268	 0.4633086035	 0.115887
H	 0.242832135	 1.6878118957	-0.9128861552	 0.1192
H	-0.3791319413	 1.9514171596	 0.7197148793	 0.111863
H	 0.9277281768	-0.66349049	-0.274463137	 0.111997
H	 0.3266721307	-0.4035649266	 1.351208691	 0.09036
H	-1.9993260529	-0.0777144078	 0.4233908891	 0.08218
H	-1.3603549965	-0.3055719113	-1.2019492071	 0.10347
H	-1.9532670368	-1.0530135564	 2.3692019481	 0.259147
H	-2.4233803192	-2.6219253324	 2.8965499701	 0.269092
H	-0.5523978819	-4.5939873764	-0.5498392823	 0.156089
H	-1.6229569201	-5.9328237389	-0.0030504624	 0.131604
H	-2.2356674294	-4.5868556504	-1.0167193953	 0.153547
54.9197	69.6549	83.3865	92.5184	116.034	214.0996	235.0229	287.3495	315.7427	345.2176	381.4828	423.2932	505.8828	551.4776	583.0344	611.5494	716.4461	752.5283	779.1496	889.2575	903.9609	975.9432	995.1104	1039.8349	1043.8287	1108.9772	1138.4111	1192.4383	1198.7461	1271.7001	1314.4391	1321.4628	1362.1084	1378.9027	1391.7266	1411.636	1452.8717	1459.2376	1490.7781	1498.695	1505.1366	1524.9004	1602.5073	1724.4343	1788.7609	2956.399	3022.5138	3030.194	3041.2819	3057.7502	3067.8082	3098.2073	3104.8068	3124.1481	3162.038	3582.9972	3722.0011
CCCN=C(N)C(C)=O	CCCN=C(N)C(=O)C	
InChI=1S/C6H12N2O/c1-3-4-8-6(7)5(2)9/h3-4H2,1-2H3,(H2,7,8)	InChI=1S/C6H12N2O/c1-3-4-8-6(7)5(2)9/h3-4H2,1-2H3,(H2,7,8)
