16
gdb 44297	3.76641	1.77279	1.53465	2.5805	70.08	-0.2115	-0.0192	0.1922	862.8906	0.12671	-400.69994	-400.693963	-400.693019	-400.730189	25.119	
O	-0.0083351601	-0.0296907411	 0.0413512478	-0.321418
C	-0.0256856698	 1.1733932585	 0.0129294857	 0.40792
C	-1.27483908	 2.0822592939	-0.003231705	-0.295267
N	-0.7762805814	 3.4664805407	 0.0072859782	-0.111265
C	-0.0655691645	 3.8037086679	 1.2557571328	-0.026591
C	 1.1625708266	 4.287243732	 0.557054051	-0.112976
C	 1.2277554823	 2.9609416249	 1.2916163027	-0.095685
C	 1.1455399248	 2.1385517688	-0.0172725121	-0.156808
C	 0.5940006475	 3.4601885318	-0.6376142095	-0.044681
H	-1.8475979204	 1.8936450308	-0.919880841	 0.132112
H	-1.9336843424	 1.8811959568	 0.8460498271	 0.134385
H	-0.5676982149	 4.1715593043	 2.1414956421	 0.101699
H	 1.7335812216	 5.1995226438	 0.6318940282	 0.107416
H	 1.7439115898	 2.7045414147	 2.2066629774	 0.102641
H	 2.0917724847	 1.7479793051	-0.3852169861	 0.092503
H	 0.6480721364	 3.6789641771	-1.7023407293	 0.086013
120.4383	304.9707	394.1426	485.8663	563.8925	590.5417	693.3563	728.6188	774.1119	792.5904	813.8378	832.3637	840.8946	878.4566	898.0266	932.3247	974.6362	1014.0786	1020.7751	1037.2658	1044.5451	1069.8152	1102.785	1141.5196	1175.0362	1176.8444	1197.4535	1217.6531	1238.381	1257.9296	1274.8636	1298.8978	1360.3101	1449.6618	1850.8969	3037.7251	3101.7019	3133.3465	3149.061	3196.2247	3212.213	3241.0947
O=C1CN2C3C4C3C1C24	O=C1CN2[C@@H]3[C@H]4[C@@H]3[C@@H]1[C@@H]24	
InChI=1S/C7H7NO/c9-2-1-8-6-3(2)4-5(6)7(4)8/h3-7H,1H2	InChI=1S/C7H7NO/c9-2-1-8-6-3(2)4-5(6)7(4)8/h3-7H,1H2/t3-,4+,5+,6-,7+/m1/s1
