23
gdb 123172	7.46664	0.47468	0.46188	0.2443	84.96	-0.2491	0.0859	0.335	2426.8833	0.203619	-425.388122	-425.377262	-425.376318	-425.425914	37.378	
C	-0.9204062558	 1.5351233826	-0.5386429135	-0.224246
O	-0.6050215244	 0.1715942749	-0.6782470904	-0.232658
C	-0.5336713191	-0.5034562006	 0.5561876261	-0.067691
C	-0.1896452798	-1.9570640346	 0.2703399252	-0.066148
O	-0.1243523587	-2.6318435991	 1.5044875091	-0.250666
C	 0.1941829614	-4.0035025741	 1.373799762	-0.062937
C	 0.2893043178	-4.6215812094	 2.740826582	 0.010878
C	-0.9596519756	-5.0806677421	 3.4465051707	-0.246597
C	 0.0175516694	-6.0955467205	 2.9091480398	-0.272768
H	-0.9546462516	 1.9685192833	-1.5412493212	 0.1259
H	-1.8992362174	 1.6810864471	-0.0544290491	 0.10387
H	-0.1630924649	 2.0716947978	 0.055033782	 0.103867
H	 0.2365567597	-0.0611179624	 1.2090205557	 0.093729
H	-1.4927346562	-0.4491140751	 1.0968678621	 0.094252
H	-0.9585878939	-2.3963076598	-0.3862059846	 0.093032
H	 0.7706469764	-2.0116492286	-0.2682226456	 0.09374
H	-0.5789076639	-4.5211492765	 0.7787170359	 0.079383
H	 1.1476856444	-4.1182156933	 0.8295316015	 0.085972
H	 1.0697764156	-4.1954639176	 3.3643568219	 0.089058
H	-1.0228154464	-4.9425963446	 4.51992055	 0.112432
H	-1.9040401824	-4.9588358603	 2.926544185	 0.113584
H	-0.2710457618	-6.6633004342	 2.0303774561	 0.111152
H	 0.6282933972	-6.6509447328	 3.6118800393	 0.112861
39.6313	55.7494	79.3535	95.8109	127.8496	145.7159	200.0881	235.8855	278.6811	336.111	384.1442	493.2585	517.7746	775.0289	816.7335	834.6896	845.3324	920.682	947.3791	991.4627	1028.3821	1046.6279	1060.3332	1078.0607	1105.1051	1134.6003	1161.0725	1161.917	1174.8675	1189.02	1196.8039	1204.3781	1226.8633	1233.8821	1235.0391	1282.3695	1291.1155	1349.5309	1381.3414	1429.1644	1464.2971	1470.5697	1484.246	1485.7734	1503.8028	1505.5987	1513.4022	1530.48	1537.2885	2942.4383	2960.6699	2967.3516	2970.3784	2974.3135	2984.1808	3010.71	3012.8824	3112.6518	3131.5339	3136.4748	3153.1476	3209.5381	3224.7677
COCCOCC1CC1	COCCOCC1CC1	
InChI=1S/C7H14O2/c1-8-4-5-9-6-7-2-3-7/h7H,2-6H2,1H3	InChI=1S/C7H14O2/c1-8-4-5-9-6-7-2-3-7/h7H,2-6H2,1H3
