15
gdb 5413	5.06177	1.55077	1.19592	0.774	69.81	-0.2472	-0.0184	0.2287	958.73	0.121024	-362.716688	-362.70965	-362.708705	-362.748467	25.826	
O	 0.0215876476	 1.4292255795	 0.0084353332	-0.419649
C	-0.0039287294	 0.0135722134	 0.0035462149	-0.150714
C	-1.4335585688	-0.474653809	 0.0143080577	 0.303231
N	-1.5744052007	-1.8057679255	 0.0123867669	-0.312985
C	-2.8131936466	-2.2982770909	 0.0213837236	-0.006344
C	-3.9595108968	-1.507067285	 0.0326285829	-0.122389
C	-3.800778129	-0.1258039429	 0.0345414635	-0.08333
C	-2.514877362	 0.4050188234	 0.0252130817	-0.152557
H	 0.9395849607	 1.7122753702	 0.0008353153	 0.293286
H	 0.4953004226	-0.4015955439	-0.8858213592	 0.11132
H	 0.5107995712	-0.4080747761	 0.8809236965	 0.111348
H	-2.8956666841	-3.3830904522	 0.0195474273	 0.104303
H	-4.9421970558	-1.9649998252	 0.0396406618	 0.098122
H	-4.6649791475	 0.5308639848	 0.0431723206	 0.105019
H	-2.3359862813	 1.4718999195	 0.0262444934	 0.12134
52.8487	179.1817	223.9504	227.2865	416.9614	440.7894	480.5002	590.5079	636.7373	755.6256	781.9642	812.3386	918.0784	981.1089	1010.2774	1014.2265	1043.5237	1069.4223	1087.9331	1124.1996	1172.9721	1199.1969	1242.2064	1257.7811	1312.9899	1328.2078	1449.7559	1466.7876	1500.3767	1512.4131	1617.0255	1633.4134	2977.3193	3002.6574	3148.7809	3177.8405	3200.1607	3228.6552	3847.4175
OCC1=NC=CC=C1	OCc1ncccc1	
InChI=1S/C6H7NO/c8-5-6-3-1-2-4-7-6/h1-4,8H,5H2	InChI=1S/C6H7NO/c8-5-6-3-1-2-4-7-6/h1-4,8H,5H2
