20
gdb 60577	3.64522	0.94186	0.85193	3.6798	75.74	-0.2387	0.0494	0.2881	1417.8555	0.169625	-440.230013	-440.220359	-440.219415	-440.265158	35.083	
C	 0.0571796405	 1.4360824105	-0.3215579153	-0.428451
C	-0.096287989	 0.0107648492	 0.1475739167	 0.070931
O	 1.0800047483	-0.805245967	 0.1795150926	-0.258821
C	 0.4189624877	-0.5362873554	 1.4180785199	 0.024937
C	 1.192372675	 0.2682226932	 2.4474777931	 0.039881
O	 0.3012726613	 0.7884807814	 3.4293972682	-0.436418
C	 2.2041775464	-0.6112588001	 3.1594190816	 0.023108
C	 2.6991437675	-0.2626647436	 4.5098158099	-0.25094
N	 1.7937661321	-1.4153730624	 4.3194862058	-0.326643
H	 0.920413753	 1.9288529556	 0.1300458472	 0.132513
H	 0.190901417	 1.4577939337	-1.4079797795	 0.138258
H	-0.8433627461	 2.0156337388	-0.0888593985	 0.120022
H	-0.9624861743	-0.5044434728	-0.273751471	 0.093782
H	-0.1024560766	-1.3953488664	 1.8456864431	 0.101847
H	 1.7369293083	 1.0771662203	 1.9394738343	 0.082447
H	-0.3725307961	 1.3067369453	 2.9795146442	 0.291305
H	 2.8681878804	-1.1267528559	 2.4692364351	 0.106932
H	 3.7154740793	-0.5188148422	 4.7951657749	 0.113988
H	 2.2948513067	 0.6290837624	 4.978152381	 0.1227
H	 0.8565757288	-1.1211305949	 4.5885072068	 0.238623
46.349	82.8974	128.3948	176.9225	203.8554	250.5618	268.6475	278.226	389.7264	402.9751	464.1719	543.0774	646.1523	781.9711	792.3773	847.9423	863.7476	927.5445	974.7359	985.2075	998.0549	1011.6762	1069.0353	1100.0231	1115.715	1132.3538	1151.0497	1173.0066	1181.5046	1194.4111	1241.2343	1278.3693	1295.0596	1299.0931	1319.4043	1381.5019	1399.7862	1416.5194	1438.6789	1468.9353	1490.5788	1504.8577	1510.2183	3000.3808	3037.8204	3078.7895	3094.6164	3098.0593	3116.1085	3133.6297	3138.0663	3206.7819	3492.4755	3833.6555
CC1OC1C(O)C1CN1	C[C@H]1O[C@H]1[C@@H](O)[C@H]1CN1	
InChI=1S/C6H11NO2/c1-3-6(9-3)5(8)4-2-7-4/h3-8H,2H2,1H3	InChI=1S/C6H11NO2/c1-3-6(9-3)5(8)4-2-7-4/h3-8H,2H2,1H3/t3-,4-,5+,6-/m1/s1
