22
gdb 58205	2.62519	1.00027	0.85298	3.7713	82.19	-0.2761	0.0326	0.3087	1437.8656	0.191782	-404.371249	-404.360239	-404.359295	-404.407171	40.09	
C	 0.5137237954	-0.0849048728	-1.3006067339	-0.419288
C	-0.1013035201	 0.0650493356	 0.0928159898	 0.116458
O	-1.4659053977	-0.3423028812	 0.095543759	-0.437205
C	 0.6691396378	-0.6486087752	 1.2358930796	 0.022854
C	 0.6819438053	-2.1749003644	 1.0731098406	-0.435997
C	 2.1105613406	-0.0886924108	 1.4221657244	-0.147772
C	 2.1833199429	 1.4438320911	 1.5948187764	-0.40815
C	 2.7506304372	-0.7301020135	 2.5775730022	 0.278942
N	 3.2490858426	-1.2229762244	 3.4969618087	-0.332928
H	 0.5676963108	-1.1355316927	-1.6072835837	 0.117119
H	-0.10422868	 0.4467621364	-2.0288944482	 0.132103
H	 1.5264148163	 0.327512537	-1.3513570977	 0.12032
H	-0.1504676666	 1.1312193221	 0.3356327315	 0.092465
H	-1.5183914877	-1.219399446	-0.2980611289	 0.280836
H	 0.1113840111	-0.4131905308	 2.1508223484	 0.100248
H	-0.3368612763	-2.5631683353	 0.9862602637	 0.113828
H	 1.2468790706	-2.4884340037	 0.188426674	 0.118411
H	 1.1374227462	-2.6553269014	 1.9425672514	 0.151598
H	 2.7085924874	-0.3694850897	 0.544994236	 0.124435
H	 1.5310413524	 1.7737945722	 2.4085054153	 0.14033
H	 3.203917017	 1.7539478404	 1.8311828458	 0.138828
H	 1.8796390248	 1.9535805671	 0.6781476756	 0.132565
59.2765	76.5231	140.6034	198.6045	214.641	221.7765	241.3892	255.7058	279.1398	292.151	319.2609	393.5021	409.9792	448.1407	520.7789	584.9597	611.505	788.729	814.6277	888.7029	923.0235	978.0896	991.7851	1018.9798	1054.4618	1098.275	1107.7082	1138.5907	1143.9497	1194.0807	1269.3655	1297.7858	1323.2228	1339.1139	1359.2608	1383.9462	1410.4979	1413.4753	1417.736	1437.3888	1488.8687	1490.7657	1498.9584	1501.804	1504.332	1512.8828	2352.6278	3021.9598	3034.1212	3037.7226	3042.7754	3050.9377	3060.6672	3101.3121	3107.7	3119.2879	3121.8454	3126.4827	3133.7306	3812.848
CC(O)C(C)C(C)C#N	C[C@@H](O)[C@@H](C)[C@@H](C)C#N	
InChI=1S/C7H13NO/c1-5(4-8)6(2)7(3)9/h5-7,9H,1-3H3	InChI=1S/C7H13NO/c1-5(4-8)6(2)7(3)9/h5-7,9H,1-3H3/t5-,6-,7+/m0/s1
