18
gdb 112446	2.20822	1.54249	1.02241	3.0068	69.67	-0.2627	0.0225	0.2853	1178.0417	0.147605	-476.237881	-476.229084	-476.22814	-476.2717	32.412	
C	-0.478799818	 1.1182142733	 0.2318684186	-0.248618
O	-0.2732163877	-0.2796754466	 0.3772169364	-0.255919
C	 0.9110127178	-0.6290143555	 1.0284890079	 0.16115
O	 0.8721550655	-0.2938401007	 2.4120090033	-0.240658
C	 0.4126610601	-1.366696195	 3.1566175791	 0.412704
N	 0.2453215856	-1.3337871839	 4.4038058083	-0.536342
C	 0.1878665241	-2.5439027261	 2.2403723973	-0.338528
C	 1.0050808865	-2.1697343969	 0.9892045866	 0.110774
O	 0.5816038233	-2.7240345278	-0.2249833294	-0.441392
H	 0.3414607576	 1.5787357452	-0.3363044717	 0.118969
H	-1.4131542028	 1.2472182621	-0.317010935	 0.137143
H	-0.557413552	 1.6085323586	 1.2081543699	 0.137092
H	 1.7660300498	-0.0950710721	 0.5961175	 0.084747
H	 0.4711654805	-0.407753607	 4.7722907316	 0.222806
H	 0.4822962411	-3.4805775106	 2.7122205135	 0.139774
H	-0.8734217083	-2.609871725	 1.977658906	 0.137307
H	 2.0516877868	-2.4588700777	 1.1278229828	 0.107555
H	-0.1747806	-2.1960996645	-0.5128320553	 0.291435
82.0075	111.5467	127.7743	180.3423	219.6623	299.3909	370.5814	419.9969	468.8875	498.3131	514.8207	567.3474	653.7153	743.748	847.8316	891.6686	902.714	930.6066	1014.3338	1020.7736	1069.7432	1080.0128	1138.257	1150.8861	1161.0339	1181.7716	1207.9376	1249.7978	1281.1698	1316.0838	1349.5131	1375.7754	1396.1881	1449.8492	1467.3078	1482.3685	1485.9352	1510.6713	1792.2991	3006.9503	3039.729	3060.2359	3070.89	3080.6803	3137.0229	3144.8634	3467.4529	3770.5105
COC1OC(=N)CC1O	CO[C@H]1O[C]([NH])C[C@H]1O	
InChI=1S/C5H9NO3/c1-8-5-3(7)2-4(6)9-5/h3,5-7H,2H2,1H3	InChI=1S/C5H9NO3/c1-8-5-3(7)2-4(6)9-5/h3,5-7H,2H2,1H3/t3-,5+/m1/s1
