16
gdb 18939	3.24684	3.21224	2.48318	2.1922	61.62	-0.2545	0.0935	0.348	644.393	0.135116	-383.72931	-383.72442	-383.723476	-383.758011	21.633	
C	-0.0336901598	 1.5867680258	 0.0048530163	-0.20302
C	 1.5109044337	 1.6900259104	 0.0464168282	-0.109445
C	 1.7355316129	 1.0672812913	 1.4463839556	-0.203018
C	 1.2565944337	-0.311832722	 0.9617841478	 0.039186
O	 2.3129334701	-0.5736604629	 0.0232922433	-0.241945
C	 1.9053725822	 0.4269797413	-0.892871704	 0.17229
O	 0.6583233679	-0.0878361252	-1.3248535697	-0.241947
C	 0.0231680147	 0.0503280334	-0.0431995197	 0.039186
H	-0.5059483469	 2.028405026	 0.8847953198	 0.096025
H	-0.5065248631	 1.9699679905	-0.899985206	 0.10879
H	 1.9845202232	 2.6395453973	-0.1926770057	 0.073357
H	 2.7741630775	 1.0066852047	 1.773062473	 0.108791
H	 1.1318161895	 1.547513995	 2.2192194611	 0.096025
H	 1.1312273049	-1.1383465113	 1.6571434855	 0.08481
H	 2.6088800557	 0.5489452292	-1.7123552639	 0.096106
H	-0.8837443163	-0.5467028836	 0.0153783584	 0.084809
362.4477	532.1818	542.4145	616.2274	635.7468	681.177	739.3991	835.1938	836.7278	869.1705	914.6424	918.8675	923.7946	937.221	950.3944	960.4233	978.8787	1028.632	1029.9341	1067.0787	1101.4256	1167.8815	1171.9698	1198.7693	1237.7916	1242.4599	1257.4458	1267.749	1298.1158	1298.9581	1319.9818	1347.1375	1480.5012	1510.4034	3071.1396	3081.962	3131.3738	3137.4369	3145.7944	3151.481	3158.8994	3169.6583
C1C2CC3OC2OC13	C1[C@H]2C[C@@H]3O[C@H]2O[C@H]13	
InChI=1S/C6H8O2/c1-3-2-5-4(1)7-6(3)8-5/h3-6H,1-2H2	InChI=1S/C6H8O2/c1-3-2-5-4(1)7-6(3)8-5/h3-6H,1-2H2/t3-,4+,5-,6+
