18
gdb 127064	5.54005	0.73402	0.67231	2.7142	75.05	-0.2604	-0.0086	0.2518	1662.4721	0.146964	-439.072031	-439.063123	-439.062179	-439.107305	31.207	
C	-0.0196548882	 1.5020231957	 0.1942846609	-0.386236
C	-0.020960938	 0.0010152504	-0.036459391	-0.022824
O	-1.3412755304	-0.4791842276	 0.1373668663	-0.248677
C	-1.4523853266	-1.8699940544	-0.0657236619	-0.17445
C	-2.8902890713	-2.2563562017	 0.0899484637	 0.375862
N	-3.2149532285	-3.3844503311	 0.6747641524	-0.204439
O	-4.6035957532	-3.4518562779	 0.6183903891	-0.163366
C	-5.0648437794	-2.3499957268	 0.0081923088	 0.080774
C	-4.0396545589	-1.5427927783	-0.3579158683	-0.315006
H	 0.98951343	 1.9049687206	 0.067962897	 0.11771
H	-0.6842871191	 2.0007040598	-0.516897899	 0.126035
H	-0.3630125925	 1.734660923	 1.2060882344	 0.130829
H	 0.3372124944	-0.2377156954	-1.0523984771	 0.087999
H	 0.6597460643	-0.5015070505	 0.6707073197	 0.091988
H	-1.1032762182	-2.1375524643	-1.0786203446	 0.10594
H	-0.8401885962	-2.4393108529	 0.6495151444	 0.118312
H	-6.1375471549	-2.2819463192	-0.0872689583	 0.150563
H	-4.0739144133	-0.5874917795	-0.8519060165	 0.128986
36.1915	75.5164	97.7006	119.5301	247.8365	260.4129	310.2895	349.2731	481.447	614.8713	676.3305	750.6696	805.0191	822.3858	873.7399	904.7813	916.588	945.0563	996.3205	1035.2616	1049.2424	1076.3659	1144.6889	1157.5916	1162.9338	1188.7836	1249.663	1296.4121	1298.2779	1378.066	1404.7546	1441.8782	1452.4988	1484.0436	1495.0671	1499.39	1507.0818	1533.5666	1613.583	2948.7993	2959.6459	2983.7507	3011.0714	3046.3504	3120.9619	3123.6089	3264.2258	3298.3735
CCOCC1=NOC=C1	CCOCc1nocc1	
InChI=1S/C6H9NO2/c1-2-8-5-6-3-4-9-7-6/h3-4H,2,5H2,1H3	InChI=1S/C6H9NO2/c1-2-8-5-6-3-4-9-7-6/h3-4H,2,5H2,1H3
