23
gdb 116003	1.73355	1.59185	0.91641	0.9493	89.	-0.2303	0.0285	0.2587	1378.3394	0.205357	-388.30374	-388.29373	-388.292786	-388.339181	36.567	
C	-0.279407386	 1.4815782234	-0.0572881431	-0.377612
C	 0.1298287236	 0.0023041445	 0.0525120443	-0.28898
C	 0.7964964814	-0.5271249322	-1.1815437885	 0.328634
C	 2.0429360232	-0.9848640988	-1.3093113912	-0.187874
C	 2.3722398847	-1.423356726	-2.7148044725	-0.261176
C	 0.9834258588	-1.4575406358	-3.3984491387	-0.237804
C	 0.073862372	-0.5668078467	-2.5151377884	 0.053829
O	-1.2405886653	-1.0717597644	-2.3314864557	-0.250281
C	-2.0629527801	-0.9410773134	-3.4666836534	-0.232005
H	 0.5891744009	 2.1190114224	-0.2521156264	 0.114135
H	-0.9986801486	 1.632094585	-0.868029408	 0.123424
H	-0.7488725095	 1.8226125219	 0.8704934999	 0.111051
H	 0.7978470268	-0.1340471636	 0.9103078794	 0.095213
H	-0.7696259023	-0.5942022962	 0.2474884352	 0.119743
H	 2.7694685984	-1.0163542873	-0.5032550131	 0.084258
H	 3.0433582259	-0.703643025	-3.2044687004	 0.104565
H	 2.8859650056	-2.3909449738	-2.7524605513	 0.102602
H	 1.0147055949	-1.146923421	-4.4457991502	 0.092173
H	 0.5745114516	-2.4727144252	-3.3593436278	 0.113101
H	-0.0060416547	 0.4523319853	-2.9371729206	 0.062907
H	-2.1360045923	 0.1076953244	-3.7975960106	 0.100274
H	-1.7033009372	-1.5422319586	-4.3151077321	 0.105574
H	-3.0599419618	-1.2928827191	-3.1891297467	 0.124248
55.9259	94.1421	100.8833	161.2983	177.5728	212.989	242.903	292.7824	320.7721	433.1575	465.8359	526.6074	630.6127	655.4652	791.0577	819.1101	853.4318	887.4899	927.73	939.9203	983.0133	1002.2112	1037.4383	1056.6089	1082.19	1097.6286	1143.7506	1162.9817	1185.239	1200.5808	1220.5039	1244.4428	1269.5118	1294.3438	1301.3431	1331.8765	1356.7823	1361.3621	1388.6788	1404.3029	1475.3781	1478.9012	1481.8673	1490.371	1498.8904	1500.9509	1506.4931	1510.4423	1723.5653	2919.4941	2970.073	3007.3721	3019.2348	3030.3397	3036.4256	3044.7587	3056.3204	3067.84	3102.859	3106.0746	3108.9442	3111.0996	3178.9963
CCC1=CCCC1OC	CCC1=CCC[C@H]1OC	
InChI=1S/C8H14O/c1-3-7-5-4-6-8(7)9-2/h5,8H,3-4,6H2,1-2H3	InChI=1S/C8H14O/c1-3-7-5-4-6-8(7)9-2/h5,8H,3-4,6H2,1-2H3/t8-/m1/s1
