19
gdb 91976	2.20356	1.77104	1.17597	5.2648	78.42	-0.2557	0.0379	0.2936	1089.7608	0.161268	-382.073148	-382.06492	-382.063976	-382.10631	31.497	
C	 0.1235395694	 1.5799053457	-0.1138243768	-0.415254
C	 0.0913004346	 0.0578226846	-0.0133602463	 0.027507
C	 0.6694521182	-0.6865435785	-1.2464849414	-0.224626
C	 1.1887943722	-2.0138857067	-0.7105438964	-0.038881
N	 2.5051736886	-1.8749998084	-0.0619346242	-0.312368
C	 1.2961935262	-1.9393387615	 0.7711370189	-0.054535
C	 0.8141898255	-0.5601145853	 1.2429863336	-0.18462
C	 1.905866492	 0.2606195301	 1.7716311707	 0.303594
N	 2.7429866453	 0.9218948932	 2.2164032487	-0.346233
H	 1.1499998904	 1.9485860768	-0.2003266556	 0.146266
H	-0.433726394	 1.9140080321	-0.9948616997	 0.115162
H	-0.3271821361	 2.0515714377	 0.7651929543	 0.121798
H	-0.9526785593	-0.2618930154	 0.0895117293	 0.085312
H	-0.1001877512	-0.8249738858	-2.011212767	 0.102384
H	 1.4924488062	-0.1225563861	-1.6970379734	 0.123028
H	 0.9449794762	-2.9446816795	-1.2123220565	 0.094079
H	 2.9863941121	-2.7705282621	-0.034155055	 0.237189
H	 1.1387376251	-2.7961852887	 1.417071292	 0.098877
H	 0.0879208085	-0.6761648522	 2.0545673045	 0.121318
47.4851	142.9096	167.741	240.9568	311.2145	339.9004	404.912	418.5664	477.1858	605.9782	637.0886	692.812	765.2832	816.4917	860.27	885.3515	926.854	937.159	945.2245	976.1959	1002.2076	1066.6235	1076.4046	1122.6525	1135.113	1166.9154	1172.8724	1219.2425	1233.5282	1272.0948	1308.9102	1320.9654	1353.6428	1364.9801	1373.6786	1417.328	1423.1766	1484.0783	1496.2889	1497.947	2356.2158	3023.9138	3037.495	3051.5541	3056.582	3097.8356	3104.2224	3115.9389	3160.1403	3172.3746	3504.0631
CC1CC2NC2C1C#N	C[C@H]1C[C@H]2N[C@H]2[C@H]1C#N	
InChI=1S/C7H10N2/c1-4-2-6-7(9-6)5(4)3-8/h4-7,9H,2H2,1H3	InChI=1S/C7H10N2/c1-4-2-6-7(9-6)5(4)3-8/h4-7,9H,2H2,1H3/t4-,5-,6+,7-/m0/s1
