20
gdb 57965	3.65325	0.87953	0.78596	4.1189	76.38	-0.2531	0.0182	0.2713	1508.7955	0.169638	-440.304048	-440.294148	-440.293204	-440.340001	35.955	
C	 0.0587462848	 1.4741378592	-0.3082618373	-0.388113
C	-0.0999632754	 0.0428150972	 0.2258507875	 0.04335
O	 0.330318746	-0.0382123299	 1.5577672792	-0.437294
C	-1.5655867995	-0.4259918082	 0.1641510215	 0.387572
O	-2.1834778809	-0.6268585782	 1.1988046871	-0.390056
N	-2.1061091522	-0.5766955512	-1.0730076899	-0.325518
C	-3.4324057159	-1.0816356686	-1.2819531783	 0.057393
C	-4.6056805151	-0.1761158797	-1.0271868502	-0.237456
C	-4.2195853422	-0.5322896362	-2.4408632246	-0.295516
H	 1.0960539472	 1.7926618218	-0.1777956457	 0.133567
H	-0.1951770001	 1.5473306214	-1.371007879	 0.099029
H	-0.583872222	 2.1588638649	 0.2531811457	 0.128898
H	 0.5046933469	-0.6385581992	-0.3956902732	 0.07935
H	-0.472901379	-0.2651860772	 2.0585837517	 0.292083
H	-1.4904135919	-0.5213003392	-1.8694303713	 0.251707
H	-3.5613096032	-2.1329397901	-1.037927798	 0.108927
H	-5.4978024706	-0.6181610811	-0.5999753765	 0.12503
H	-4.3857661572	 0.8268650266	-0.682749197	 0.127483
H	-3.7528132142	 0.2405742527	-3.0423395262	 0.116443
H	-4.8434682856	-1.2202814951	-2.9995230057	 0.12312
41.1762	62.107	75.2046	135.7732	232.3867	253.7542	311.2392	344.5469	393.4299	435.9336	474.8727	496.0647	506.5238	670.8143	757.8236	765.5673	826.8194	844.9006	875.3439	927.9676	993.9078	1013.3497	1057.3487	1064.5999	1080.6242	1102.4889	1124.2764	1161.617	1193.3109	1194.7231	1228.4349	1271.7634	1294.8492	1364.9315	1398.2858	1403.0398	1444.593	1463.6736	1484.9863	1496.8009	1501.3172	1538.0402	1768.8901	2963.5737	3036.9954	3110.1731	3125.6495	3134.6834	3137.7968	3152.394	3221.264	3242.8018	3621.0406	3637.9742
CC(O)C(=O)NC1CC1	C[C@@H](O)C(=O)NC1CC1	
InChI=1S/C6H11NO2/c1-4(8)6(9)7-5-2-3-5/h4-5,8H,2-3H2,1H3,(H,7,9)	InChI=1S/C6H11NO2/c1-4(8)6(9)7-5-2-3-5/h4-5,8H,2-3H2,1H3,(H,7,9)/t4-/m1/s1
