21
gdb 98886	3.99889	0.88472	0.81003	1.9726	78.88	-0.2454	-0.0148	0.2306	1495.6523	0.18232	-424.255412	-424.245735	-424.244791	-424.292776	34.063	
C	 0.2915665408	 1.5433637969	 0.2203013296	-0.378243
C	 0.1045736134	 0.0545608915	-0.0567774648	-0.284292
C	 0.8872323843	-0.4509413856	-1.2597337598	 0.360653
O	 1.5259754326	 0.2948293676	-1.9683947119	-0.309111
C	 0.8616271475	-1.9572720852	-1.498642241	-0.080961
C	 1.0636171072	-2.3767096495	-2.9750298218	-0.25976
C	 2.2036416225	-3.4214576635	-2.9151930449	-0.076886
O	 2.3096411739	-3.8162432797	-1.5523432364	-0.236973
C	 2.0619489417	-2.6547388104	-0.7917217754	-0.097541
H	 1.3404750322	 1.7737843395	 0.4246472315	 0.130077
H	-0.0072169917	 2.1393584935	-0.6454357787	 0.13428
H	-0.3054998893	 1.8559465791	 1.0814039006	 0.110535
H	 0.3857344698	-0.5563291326	 0.8130152213	 0.121831
H	-0.9534807502	-0.1873024103	-0.2347591056	 0.125879
H	-0.0642572395	-2.3766466342	-1.0948750987	 0.080484
H	 0.1459306769	-2.805279069	-3.3835086178	 0.107262
H	 1.3433869928	-1.5123597207	-3.5796003785	 0.131443
H	 2.0126706116	-4.3198325503	-3.5070205115	 0.109233
H	 3.1509401704	-2.9759248353	-3.2553088855	 0.098681
H	 2.9376747253	-1.9843432792	-0.7963601046	 0.101671
H	 1.8523301578	-2.9569158126	 0.2372114337	 0.111739
11.0963	42.2829	68.4084	171.9322	191.4881	218.1835	266.6552	321.3289	343.2734	553.0308	584.5955	669.6457	686.5457	789.9485	805.6943	868.0573	904.6096	941.2809	966.1931	993.7816	1007.2919	1019.3303	1056.3438	1100.107	1112.3778	1128.5318	1141.0753	1226.0291	1244.2791	1268.3061	1277.9858	1302.8327	1310.9771	1347.3105	1360.821	1381.3203	1401.6112	1413.9693	1448.5831	1489.1079	1492.2322	1497.6872	1505.5371	1524.4863	1802.2446	2968.0307	2989.2087	3010.6891	3035.6566	3051.9713	3061.1804	3075.6887	3096.0446	3100.0047	3122.4365	3128.4072	3131.5189
CCC(=O)C1CCOC1	CCC(=O)[C@H]1CCOC1	
InChI=1S/C7H12O2/c1-2-7(8)6-3-4-9-5-6/h6H,2-5H2,1H3	InChI=1S/C7H12O2/c1-2-7(8)6-3-4-9-5-6/h6H,2-5H2,1H3/t6-/m0/s1
