18
gdb 85316	2.34853	1.78702	1.17024	5.2268	71.64	-0.2302	0.0122	0.2424	1064.3143	0.149382	-439.107061	-439.099143	-439.098199	-439.13974	30.021	
C	-0.004898887	 1.610167093	-0.0542092104	-0.404628
C	 0.0487566083	 0.0840527577	-0.018282449	 0.028579
N	 0.8139785213	-0.4846676884	-1.1241642448	-0.320254
C	 1.5580406931	-1.6014917528	-0.8374455069	 0.396843
O	 2.1127232956	-2.3199683748	-1.6370922925	-0.372801
C	 1.5775725104	-1.7284710524	 0.6955164364	 0.013315
O	 2.7941810898	-1.1870906127	 1.2514438426	-0.282211
C	 2.1072033824	 0.010004909	 1.679821317	-0.084513
C	 0.7389104379	-0.5419226161	 1.213119527	-0.097447
H	 0.9963571174	 2.0486137163	-0.0492527627	 0.131761
H	-0.5194382611	 1.9576439869	-0.9561310507	 0.121719
H	-0.5590279041	 1.9914798807	 0.8094552336	 0.125079
H	-0.9869244404	-0.2887861459	-0.0512049227	 0.086201
H	 0.6167886836	-0.2555913672	-2.0869325636	 0.248895
H	 1.386091951	-2.7533668956	 1.023761145	 0.100285
H	 2.2057096618	 0.1648914084	 2.7598691494	 0.110089
H	 2.4736418934	 0.9009882792	 1.157368563	 0.109362
H	 0.0348141866	-0.7362367053	 2.0211460594	 0.089725
91.3446	105.4899	221.1579	239.1584	254.8161	325.0017	464.9092	484.7889	555.956	591.732	677.3339	730.8618	759.8846	858.7588	872.5228	916.959	961.8645	980.8633	1012.832	1032.1878	1038.8245	1080.5483	1133.6977	1164.7788	1178.8665	1224.7717	1248.3698	1275.5465	1303.8347	1311.9062	1345.1477	1377.6832	1397.0151	1411.9033	1432.9523	1492.2184	1500.2642	1520.8547	1835.3238	2970.0831	3027.909	3038.9827	3071.0687	3081.6998	3104.1959	3119.1386	3122.7665	3622.3884
CC1NC(=O)C2OCC12	C[C@H]1NC(=O)[C@H]2OC[C@@H]12	
InChI=1S/C6H9NO2/c1-3-4-2-9-5(4)6(8)7-3/h3-5H,2H2,1H3,(H,7,8)	InChI=1S/C6H9NO2/c1-3-4-2-9-5(4)6(8)7-3/h3-5H,2H2,1H3,(H,7,8)/t3-,4+,5+/m1/s1
