14
gdb 30589	7.16989	0.64654	0.59527	0.9023	76.77	-0.2278	-0.0144	0.2134	1748.5314	0.100963	-436.673461	-436.665067	-436.664122	-436.709164	28.714	
O	 0.0023157897	 1.4373201492	 0.0094149778	-0.409192
C	-0.0026959382	 0.0155749944	 0.0025897926	-0.231903
C	-1.377757509	-0.4657790095	 0.012575589	 0.298419
C	-2.5042349779	-0.8932700456	 0.020607783	-0.127055
C	-3.8317314115	-1.3779872063	 0.030120624	 0.111037
C	-4.9953811442	-0.6695935851	 0.0408515966	-0.124566
O	-6.0322431904	-1.5520073503	 0.0472886873	-0.132296
C	-5.4370739717	-2.7690019427	 0.0399844338	 0.063595
N	-4.1485137886	-2.7444693038	 0.0297609793	-0.300194
H	 0.9224330326	 1.7202672031	 0.0028406935	 0.292261
H	 0.5088010457	-0.3835165687	-0.8888696899	 0.122738
H	 0.5246072596	-0.392093033	 0.8808548985	 0.122759
H	-5.2388751356	 0.3779661712	 0.0450022651	 0.159749
H	-6.0905991304	-3.6270930729	 0.0433732696	 0.154651
10.8431	72.8629	106.4885	205.027	221.9789	286.2018	413.2176	476.0857	527.1022	619.4652	636.9063	706.3178	785.005	848.4872	919.6791	935.7773	1018.0652	1025.4317	1070.1427	1096.4138	1135.5016	1240.1333	1242.0534	1249.5884	1291.3713	1338.3997	1459.5652	1502.1854	1562.0032	1601.0621	2370.1022	2961.8227	2979.9259	3278.7708	3303.7305	3819.9601
OCC#CC1=COC=N1	OCC#Cc1cocn1	
InChI=1S/C6H5NO2/c8-3-1-2-6-4-9-5-7-6/h4-5,8H,3H2	InChI=1S/C6H5NO2/c8-3-1-2-6-4-9-5-7-6/h4-5,8H,3H2
