13
gdb 35680	4.91116	1.03317	0.97218	1.5744	62.53	-0.3234	-0.021	0.3024	1150.6319	0.089649	-452.748276	-452.740486	-452.739542	-452.781684	27.053	
N	 0.1771781604	-1.1922879492	 0.028641106	-0.301528
C	 0.0690764374	-0.0426340251	 0.0287268811	 0.28535
C	-0.1051990933	 1.4187691689	 0.0291541014	-0.033755
C	-0.6742712933	 1.9538856813	 1.3633506385	-0.141001
O	 0.5104326318	 2.2499811565	 2.094266858	-0.21602
C	 1.411022788	 2.7426538515	 1.1495424149	 0.056377
O	 1.1667440611	 2.0627816559	-0.0735768093	-0.248129
C	 1.2351902701	 4.2080327502	 0.9387688787	 0.286851
N	 1.098668249	 5.3448468515	 0.7897154555	-0.30952
H	-0.7231484952	 1.7043016825	-0.8270359243	 0.155537
H	-1.2683973418	 2.8588682403	 1.1864882049	 0.141459
H	-1.2536438554	 1.2240752372	 1.9268137611	 0.163299
H	 2.4295021813	 2.5380073885	 1.4902262835	 0.16108
41.5304	103.6079	166.3856	214.0171	273.1414	305.8834	464.023	511.8022	567.1662	606.2983	772.327	794.5336	827.823	920.1109	954.0287	992.7852	997.0836	1030.1555	1109.3141	1146.9449	1238.7554	1272.6809	1317.7553	1362.545	1374.2722	1384.0555	1507.7137	2361.6693	2366.0974	3038.8783	3079.6389	3092.4899	3156.0175
N#CC1COC(O1)C#N	N#C[C@H]1CO[C@@H](O1)C#N	
InChI=1S/C5H4N2O2/c6-1-4-3-8-5(2-7)9-4/h4-5H,3H2	InChI=1S/C5H4N2O2/c6-1-4-3-8-5(2-7)9-4/h4-5H,3H2/t4-,5-/m0/s1
