15
gdb 83910	2.6456	1.55567	1.24316	3.2069	66.95	-0.2453	0.0025	0.2478	1010.1615	0.113473	-453.91479	-453.906972	-453.906028	-453.947139	29.09	
N	 0.1373720915	 1.4274097771	 0.0405716528	-0.508282
C	 0.037671903	 0.0131140966	 0.0490412239	-0.080026
C	-0.4782312787	-0.6988177924	 1.2664712977	 0.000467
O	-1.2056330678	 0.0937645584	 2.1728803191	-0.260648
C	-2.543504694	 0.0905273702	 1.6915610966	 0.000046
O	-2.4537103157	 0.0523624447	 0.2771698532	-0.279522
C	-1.3269865053	-0.7470158016	 0.0069299376	 0.224038
C	-1.5285146496	-1.9185550801	-0.7880476687	 0.237051
N	-1.650284657	-2.8594256999	-1.4515247834	-0.344302
H	-0.1789196759	 1.8251884856	-0.8367503414	 0.2486
H	-0.4138623351	 1.8248960723	 0.7927270168	 0.249528
H	 0.8267388561	-0.5118540817	-0.4847624925	 0.125554
H	 0.0166226881	-1.5658474527	 1.6897811067	 0.135133
H	-3.0828017014	-0.7914755223	 2.0698734192	 0.116787
H	-3.0369875583	 1.0165502958	 1.9937612923	 0.135577
127.4782	157.2246	167.5084	215.8188	264.0395	310.1721	449.7936	493.8458	551.7523	587.5019	674.686	726.2806	757.733	811.3425	841.2507	907.6684	949.0311	1027.6565	1039.9831	1067.264	1130.1805	1139.4799	1183.2571	1208.6027	1231.9058	1244.8822	1280.5262	1330.6453	1413.8174	1441.2106	1534.0551	1649.9124	2341.9989	2990.8768	3119.5515	3141.3255	3177.5561	3518.7422	3602.3192
NC1C2OCOC12C#N	N[C@H]1[C@H]2OCO[C@@]12C#N	
InChI=1S/C5H6N2O2/c6-1-5-3(7)4(5)8-2-9-5/h3-4H,2,7H2	InChI=1S/C5H6N2O2/c6-1-5-3(7)4(5)8-2-9-5/h3-4H,2,7H2/t3-,4+,5-/m0/s1
