14
gdb 21060	5.74839	1.63941	1.28639	2.8809	73.01	-0.218	-0.0428	0.1753	903.8029	0.108867	-374.879249	-374.872196	-374.871252	-374.911054	25.304	
C	 0.0759029053	 1.4614309156	 0.0040811823	-0.303462
N	-0.0038146838	 0.0091745712	 0.0040080718	 0.122712
N	 0.0319900129	-0.5990814904	-1.1920877356	-0.211441
C	 0.0550984295	-1.8952625028	-1.2049321618	 0.032194
C	 0.056027893	-2.7274581569	-0.0089728468	 0.204992
N	 0.0663801526	-4.0123675874	-0.0950503018	-0.539726
C	 0.0474781595	-1.9042801861	 1.194325226	-0.040478
N	 0.0249248842	-0.6062454722	 1.1893944502	-0.19758
H	 1.1154167603	 1.7980911402	-0.078584945	 0.144881
H	-0.4911622634	 1.8411826632	-0.8459528191	 0.157097
H	-0.3481469968	 1.8248670356	 0.9392818603	 0.157937
H	 0.0734312196	-2.370924919	-2.1804919088	 0.139967
H	 0.0667200009	-4.4315547241	 0.8381226402	 0.208423
H	 0.0594978162	-2.371132157	 2.1764278182	 0.124481
66.3666	98.0572	194.0775	335.1324	436.769	454.4866	462.3116	500.0844	668.5867	735.7521	786.477	826.1051	845.7254	920.6829	962.4278	1005.4146	1030.4757	1146.7356	1150.9485	1256.4285	1329.2293	1335.372	1369.9024	1428.0438	1444.6626	1485.1	1504.8285	1581.3572	1609.9424	1685.2761	3042.1918	3128.6255	3160.1492	3176.0826	3189.3239	3434.07
CN1N=CC(=N)C=N1	Cn1ncc([NH])cn1	
InChI=1S/C4H6N4/c1-8-6-2-4(5)3-7-8/h2-3,5H,1H3	InChI=1S/C4H11N4/c1-8-6-2-4(5)3-7-8/h4-7H,2-3H2,1H3
