18
gdb 83164	2.73748	1.48282	1.31444	5.0891	71.61	-0.2494	0.0572	0.3066	1043.455	0.149449	-439.117833	-439.109541	-439.108597	-439.151595	30.593	
C	 0.265417809	 1.631896227	 0.0360932764	-0.419198
C	 0.093511932	 0.1307885356	-0.0343768589	-0.051059
C	 0.5623787684	-0.6932861541	-1.2264890856	-0.102009
C	 1.3339024412	-0.0792234468	-2.3741231477	-0.17694
N	 2.6630840488	 0.3465671384	-1.96387445	-0.363691
C	 3.2941242657	 0.1931324229	-0.7610661244	 0.450578
O	 4.4414546699	 0.5137842679	-0.572793399	-0.389663
O	 2.5609047365	-0.3122549122	 0.2677190689	-0.23661
C	 1.257901306	-0.815621	 0.0961766388	 0.09478
H	 1.1928604088	 1.9668516001	-0.4328786805	 0.140601
H	-0.5652081121	 2.1396157205	-0.4653928731	 0.120016
H	 0.2828866028	 1.9678241877	 1.0775594609	 0.13197
H	-0.8241265063	-0.2317468197	 0.4220641693	 0.09374
H	-0.0693019838	-1.5240867974	-1.5214835554	 0.101214
H	 1.4235173052	-0.8280739389	-3.1720704399	 0.118613
H	 0.7908999895	 0.7757973891	-2.8007216305	 0.116176
H	 3.2809653191	 0.7105940748	-2.6713011269	 0.259004
H	 1.1431816792	-1.7197409648	 0.6837730876	 0.112479
41.1492	92.3217	153.1852	178.2584	232.5089	418.7383	467.9721	493.6869	535.1868	551.5174	617.4042	747.2917	755.8038	774.2983	785.2163	872.6581	920.6262	975.2989	999.1612	1015.7889	1078.5404	1104.6322	1121.6617	1145.6724	1167.2322	1198.0856	1264.148	1271.0409	1290.4756	1362.0871	1379.4485	1419.7929	1427.243	1454.2409	1492.8348	1499.4007	1504.8117	1535.9537	1842.4041	2997.8852	3023.3393	3042.1991	3100.2806	3126.1187	3142.5101	3160.9898	3173.3031	3645.9596
CC1C2CNC(=O)OC12	C[C@H]1[C@H]2CNC(=O)O[C@@H]12	
InChI=1S/C6H9NO2/c1-3-4-2-7-6(8)9-5(3)4/h3-5H,2H2,1H3,(H,7,8)	InChI=1S/C6H9NO2/c1-3-4-2-7-6(8)9-5(3)4/h3-5H,2H2,1H3,(H,7,8)/t3-,4+,5-/m0/s1
