13
gdb 15759	6.73425	1.11485	1.02077	5.6335	57.78	-0.2582	-0.0476	0.2106	1085.8984	0.094217	-435.749322	-435.741576	-435.740632	-435.782616	26.113	
O	-0.3959777483	 0.0647369122	 0.3896659075	-0.242273
C	-0.1513013275	 1.0632679881	-0.2244919131	 0.168853
N	 1.0672392514	 1.7442353594	-0.2490999729	-0.370035
C	 2.2550781014	 1.4012868369	 0.4103580337	 0.445849
O	 2.4042187201	 0.4116769683	 1.0760598337	-0.30234
C	 3.3526426178	 2.4264112933	 0.2130061992	-0.056956
C	 4.3700690584	 2.5638766847	 1.2711935443	-0.159228
O	 4.6581010621	 1.882167725	 0.0600634145	-0.203135
H	-0.889778826	 1.5862954748	-0.8658961557	 0.090332
H	 1.0853297878	 2.5772086255	-0.8196597504	 0.259171
H	 3.1380751201	 3.2826018689	-0.4280768419	 0.095285
H	 4.8631064386	 3.5253358958	 1.4041110721	 0.125213
H	 4.2810484939	 1.9268645873	 2.147779429	 0.149263
45.5467	74.4419	160.3231	214.429	273.9797	305.3689	346.0766	574.8779	606.3255	736.9704	772.6967	879.3767	905.942	933.8794	1022.7108	1029.6056	1078.2866	1102.8643	1158.1381	1162.5753	1174.769	1294.9697	1420.9527	1445.3933	1506.0313	1509.723	1815.0121	1876.7682	2926.1411	3093.1343	3100.7009	3199.1367	3609.5282
O=CNC(=O)C1CO1	O=CNC(=O)[C@H]1CO1	
InChI=1S/C4H5NO3/c6-2-5-4(7)3-1-8-3/h2-3H,1H2,(H,5,6,7)	InChI=1S/C4H5NO3/c6-2-5-4(7)3-1-8-3/h2-3H,1H2,(H,5,6,7)/t3-/m1/s1
