17
gdb 74095	2.62182	1.57065	1.11854	4.2841	75.43	-0.2376	-0.0621	0.1755	1100.7471	0.134278	-421.8429	-421.834458	-421.833514	-421.87567	31.714	
C	-0.0651954716	 1.48697781	 0.0383007389	-0.503403
C	-0.0542958945	-0.0023905654	-0.0403794983	 0.299545
C	 0.0279939023	-0.7679272109	-1.1414965734	-0.316514
C	 0.0211126353	-2.2115581968	-0.7917523135	 0.413406
O	-0.0103651508	-3.1593632252	-1.5397125822	-0.323483
C	 0.0086910608	-2.26365427	 0.7347355733	-0.163504
O	 1.1541661331	-1.6185764982	 1.3290868925	-0.287901
C	-0.0807363239	-0.8779357901	 1.2042891175	 0.317277
C	-0.7362265067	-0.4277863427	 2.4790687842	-0.501549
H	 0.791416401	 1.8496334804	 0.6203431182	 0.149574
H	-0.0262178138	 1.9420660055	-0.953716544	 0.138694
H	-0.9646929568	 1.8493008538	 0.5506859407	 0.140744
H	 0.1191573902	-0.4200234107	-2.1630460083	 0.118058
H	-0.3869912838	-3.1282839145	 1.2586909303	 0.111204
H	-0.2532469256	 0.4731027878	 2.871998234	 0.133578
H	-1.7944322498	-0.1993116291	 2.3144529364	 0.131898
H	-0.6608700351	-1.2112390641	 3.2361292937	 0.142375
132.2294	141.1005	182.5572	202.7001	243.8529	287.9745	318.3167	416.093	490.0591	537.4027	570.2167	609.8025	675.2778	747.6587	794.0409	869.6597	888.5625	900.6065	1004.1227	1019.7774	1042.452	1062.7978	1099.3173	1122.0198	1186.9099	1242.0289	1256.1951	1337.0829	1404.1073	1411.2164	1438.331	1474.5489	1475.5776	1485.8391	1495.3754	1671.9727	1823.1504	3024.5506	3039.1145	3073.5699	3101.0665	3126.0957	3132.0681	3170.3368	3213.5096
CC1=CC(=O)C2OC12C	CC1=CC(=O)[C@H]2O[C@@]12C	
InChI=1S/C7H8O2/c1-4-3-5(8)6-7(4,2)9-6/h3,6H,1-2H3	InChI=1S/C7H8O2/c1-4-3-5(8)6-7(4,2)9-6/h3,6H,1-2H3/t6-,7+/m1/s1
