17
gdb 96809	2.43033	1.43177	0.95123	2.7696	72.49	-0.2611	-0.0062	0.2549	1220.9125	0.135648	-455.214027	-455.204974	-455.20403	-455.248761	31.894	
C	-0.0467007905	 1.4171638846	 0.0682807676	-0.34547
N	 0.0167429626	-0.0369712573	 0.0430731887	-0.314309
C	 0.5661169812	-0.5901447465	-0.9505852617	 0.403756
N	 1.156415124	-0.0493659599	-2.0822942718	-0.436236
C	 1.6752534597	-1.0197868931	-2.9355623059	 0.490798
O	 2.2457615709	-0.8421279326	-3.9710255783	-0.377319
O	 1.4218874526	-2.2328435103	-2.3850598762	-0.248349
C	 0.7144050156	-2.0938187361	-1.1319346495	 0.025621
C	 1.4745370449	-2.7752185837	-0.0058704072	-0.393725
H	 0.9505778454	 1.8798911054	 0.0156076446	 0.115534
H	-0.6462942942	 1.8179274336	-0.7626111112	 0.119229
H	-0.5136361146	 1.7436713607	 0.9998683701	 0.135621
H	 1.2511156278	 0.928772831	-2.2964279036	 0.279303
H	-0.2727841493	-2.5505129889	-1.2612529641	 0.128724
H	 2.4775555748	-2.3508548933	 0.0929290127	 0.130611
H	 0.9345218936	-2.6183593482	 0.9309038113	 0.150983
H	 1.5623309255	-3.8470970652	-0.1984169855	 0.135228
44.2931	94.5717	129.5706	169.2261	189.6526	224.0772	290.6129	424.2607	449.0855	501.6036	564.7471	637.3246	676.3618	728.0782	773.1633	832.1615	921.6802	986.5041	1028.7261	1067.3911	1104.3985	1106.4525	1127.9801	1168.37	1186.6754	1324.5516	1344.311	1363.2375	1379.8489	1403.9451	1437.6423	1485.0424	1491.4575	1493.6431	1508.1786	1797.6455	1907.8195	2978.9956	3029.1423	3051.6375	3055.7935	3111.6139	3130.8306	3140.869	3679.2029
CN=C1NC(=O)OC1C	CN=C1NC(=O)O[C@H]1C	
InChI=1S/C5H8N2O2/c1-3-4(6-2)7-5(8)9-3/h3H,1-2H3,(H,6,7,8)	InChI=1S/C5H8N2O2/c1-3-4(6-2)7-5(8)9-3/h3H,1-2H3,(H,6,7,8)/t3-/m0/s1
