17
gdb 107108	2.99535	1.20173	1.01905	3.3547	69.1	-0.2447	-0.0318	0.2128	1186.6607	0.133602	-458.912179	-458.903448	-458.902503	-458.94636	31.599	
O	 0.6495745335	 0.2126632033	 0.7168521676	-0.405697
C	-0.1703646174	 0.308643616	-0.434057694	-0.191725
C	-1.5089769525	-0.3488283174	-0.2402067237	 0.447182
C	-2.2488275623	-0.5802769722	 1.0399662833	-0.355257
C	-1.956462287	-1.7488317948	 0.1135180033	-0.182514
C	-2.8334938347	-1.6226896485	-1.1396474695	 0.012481
O	-2.4360346785	-0.2529182495	-1.3333339961	-0.308378
C	-2.3687102421	-2.5411550232	-2.2531578452	 0.143866
O	-1.6246470168	-2.2272024102	-3.1413837769	-0.227446
H	 0.3092962442	 0.8293848434	 1.3724940376	 0.290147
H	-0.3362826471	 1.3523599648	-0.7435247745	 0.108798
H	 0.364790596	-0.1878487922	-1.2490330065	 0.139789
H	-1.6379821775	-0.5857549929	 1.937046803	 0.122136
H	-3.2605787069	-0.2023068738	 1.1595909868	 0.116869
H	-1.3858243725	-2.617941443	 0.4105666395	 0.117217
H	-3.9189020867	-1.7347694047	-1.0012762879	 0.097288
H	-2.7686032617	-3.5787321451	-2.1562432067	 0.075243
52.0184	83.5672	137.6382	205.5819	243.9148	293.1107	326.4482	384.409	408.9955	486.5388	666.0264	721.9833	784.1778	821.773	857.8826	897.1988	951.0504	970.286	992.111	1024.1719	1036.631	1063.1984	1075.1007	1088.2313	1107.79	1165.6374	1218.2113	1226.0903	1267.9676	1350.6491	1385.2725	1394.6022	1412.5812	1416.0124	1483.1154	1503.5506	1845.9261	2851.1479	2989.603	3006.4105	3086.996	3115.7711	3207.1195	3215.2579	3822.9251
OCC12CC1C(O2)C=O	OC[C@]12C[C@H]1[C@@H](O2)C=O	
InChI=1S/C6H8O3/c7-2-5-4-1-6(4,3-8)9-5/h2,4-5,8H,1,3H2	InChI=1S/C6H8O3/c7-2-5-4-1-6(4,3-8)9-5/h2,4-5,8H,1,3H2/t4-,5-,6+/m0/s1
