14
gdb 68739	2.48622	1.68362	1.35993	4.5748	66.69	-0.2638	0.0088	0.2726	954.0427	0.100451	-436.632185	-436.62484	-436.623896	-436.663979	28.213	
O	 0.021038175	 1.362931054	 0.1099166657	-0.433902
C	 0.0420751326	 0.0029740992	 0.0229530904	 0.369808
C	-0.2829941402	-0.8315224557	 1.2113001844	-0.362145
C	-1.1788796425	-1.0076255026	-0.0156574695	 0.072203
C	-2.5653431725	-0.6936303538	-0.0154943206	 0.20894
N	-3.6938361183	-0.4339758376	-0.0248524551	-0.347731
C	-0.4314357205	-1.7675693917	-1.0928736888	-0.043315
O	-0.1734786707	-0.8961449217	-2.1960569461	-0.23343
C	 0.702386584	-0.8272948324	-1.0587242399	-0.081802
H	-0.2116181218	 1.7204471954	-0.7565000824	 0.309102
H	 0.3562081914	-1.6536019321	 1.5199219223	 0.131345
H	-0.7434523603	-0.2829841321	 2.026877609	 0.157973
H	-0.4265389288	-2.8341523285	-1.278821477	 0.127206
H	 1.7571947926	-1.0053969504	-1.2279944425	 0.125747
114.5812	138.2493	224.35	309.0611	389.4654	435.6704	451.4044	539.4684	552.2497	621.353	659.9496	696.5631	764.2951	819.8526	873.3874	877.8913	957.0071	958.0712	993.0132	1048.9411	1096.0707	1118.335	1177.6799	1218.8638	1233.3404	1327.9785	1353.2038	1355.2302	1418.7858	1494.7375	2344.0998	3124.4252	3196.3848	3210.3086	3218.1513	3780.6078
OC12CC1(C#N)C1OC21	O[C@@]12C[C@]1(C#N)[C@H]1O[C@@H]21	
InChI=1S/C6H5NO2/c7-2-5-1-6(5,8)4-3(5)9-4/h3-4,8H,1H2	InChI=1S/C6H5NO2/c7-2-5-1-6(5,8)4-3(5)9-4/h3-4,8H,1H2/t3-,4+,5-,6+/m0/s1
