16
gdb 8374	5.10853	1.28963	1.17833	2.4662	65.7	-0.2457	-0.0289	0.2168	1028.944	0.127715	-383.731785	-383.723995	-383.723051	-383.764178	28.956	
C	 0.1123893704	 1.5323496541	-0.2690610268	-0.417614
C	 0.029371228	 0.0484499905	-0.0291612668	-0.018965
O	 1.2770829711	-0.6708102256	 0.0368277521	-0.28847
C	 0.4864595355	-0.5892783261	 1.2073012758	 0.423575
C	 0.9771160495	 0.0496792313	 2.5193073092	-0.433337
C	 0.2900519444	-1.1202434189	 3.2551969463	 0.404383
O	 0.0818615927	-1.362854306	 4.4066483597	-0.285366
C	-0.0691097303	-1.8276904834	 1.9323535317	-0.434873
H	 0.8871079347	 1.9868276352	 0.3536831906	 0.129823
H	 0.3512763399	 1.7382162758	-1.317438197	 0.13517
H	-0.8466619868	 2.0112777801	-0.0433999059	 0.125055
H	-0.7393469967	-0.475213198	-0.6012542511	 0.094083
H	 2.0669521254	 0.0385810901	 2.6279567811	 0.147026
H	 0.6079049838	 1.0477361979	 2.7720755943	 0.13578
H	-1.1260956315	-2.0714550657	 1.7939698022	 0.136004
H	 0.5277136899	-2.7303640212	 1.7613476846	 0.147727
52.2444	172.8553	192.3941	215.1639	336.7562	406.4281	424.1479	451.4952	504.5804	542.5517	653.136	717.4369	779.1457	851.6777	931.3989	936.9524	988.8633	1027.9515	1037.1886	1081.2095	1127.4304	1150.7645	1176.9147	1192.7244	1199.1077	1226.8614	1352.0504	1410.1891	1414.9141	1430.8393	1474.7197	1490.7492	1524.6399	1902.8039	3037.9616	3051.3843	3056.4062	3087.6019	3102.5872	3108.6722	3110.3092	3127.1088
CC1OC11CC(=O)C1	C[C@H]1OC21CC(=O)C2	
InChI=1S/C6H8O2/c1-4-6(8-4)2-5(7)3-6/h4H,2-3H2,1H3	InChI=1S/C6H8O2/c1-4-6(8-4)2-5(7)3-6/h4H,2-3H2,1H3/t4-/m1/s1
