21
gdb 84379	1.98459	1.82629	1.21403	1.7095	83.41	-0.249	0.0135	0.2624	1122.9916	0.182809	-387.088174	-387.079409	-387.078464	-387.122187	34.526	
C	-0.4932479567	 1.431884567	-0.0212384213	-0.392858
C	-0.0042283167	-0.0245598161	-0.0550952228	-0.113402
C	 0.960755529	-0.2831028002	-1.1884981681	-0.066009
C	 2.1152745973	-0.8135755052	-0.7921366813	-0.125063
C	 2.1816769327	-1.0054326109	 0.7010027817	 0.015068
O	 3.3020263329	-0.3501422785	 1.2952569874	-0.424371
C	 0.7966774045	-0.5041719956	 1.1772318437	 0.301503
C	 0.7001017109	 0.165103089	 2.5275115142	-0.308906
C	 0.1145224979	-1.205426146	 2.3250130768	-0.30953
H	 0.3390576577	 2.1249496977	 0.1386904241	 0.112565
H	-0.9764375803	 1.6966554743	-0.9679392087	 0.111486
H	-1.226235621	 1.5922040522	 0.7757773397	 0.115741
H	-0.8895007264	-0.6642460192	-0.1862013605	 0.082777
H	 0.7001164865	-0.0496087677	-2.2164971029	 0.095066
H	 2.949174259	-1.079075404	-1.4324266281	 0.098213
H	 2.3325949101	-2.0580066048	 0.9699340702	 0.08977
H	 3.2505008857	 0.5792001586	 1.0436019751	 0.272343
H	 1.6219360296	 0.2477511694	 3.0921747913	 0.123712
H	 0.0201852433	 1.0014505782	 2.6451568452	 0.107179
H	-0.9669234797	-1.2995539501	 2.2916427504	 0.10431
H	 0.6213725136	-2.0527935682	 2.7768076638	 0.110407
19.1614	187.3574	227.4764	253.4153	280.7358	297.075	327.4723	361.332	455.5383	503.8587	534.1355	587.244	714.8384	754.7032	784.3386	807.9316	851.8374	918.829	928.6702	954.9529	970.3426	983.8169	1017.4957	1039.1238	1052.5514	1067.858	1083.8916	1099.4071	1122.1616	1144.3238	1197.1965	1252.8621	1259.4161	1273.3687	1276.2177	1335.4139	1359.0855	1373.3131	1407.2248	1428.6985	1466.7558	1491.3989	1497.5783	1506.854	1688.5578	2988.0487	3030.3777	3031.9679	3097.4157	3105.2856	3114.7603	3138.4436	3172.241	3196.1615	3203.5167	3226.1553	3793.4883
CC1C=CC(O)C11CC1	C[C@H]1C=C[C@@H](O)C21CC2	
InChI=1S/C8H12O/c1-6-2-3-7(9)8(6)4-5-8/h2-3,6-7,9H,4-5H2,1H3	InChI=1S/C8H12O/c1-6-2-3-7(9)8(6)4-5-8/h2-3,6-7,9H,4-5H2,1H3/t6-,7+/m0/s1
