21
gdb 119406	4.00728	1.00694	0.95349	0.9971	78.82	-0.2429	0.0764	0.3193	1339.1394	0.182947	-424.197072	-424.188441	-424.187496	-424.230923	32.651	
C	-0.4306410469	 1.4265604044	-0.393242459	-0.21809
O	-0.5530948082	 0.0427572751	-0.6203626797	-0.241662
C	-0.8859600287	-0.6780403693	 0.546051526	-0.18702
C	-0.9929818668	-2.1327657818	 0.1746049396	 0.421169
C	-2.185179301	-2.7480189369	-0.5976717403	-0.261007
C	-1.7113294662	-3.948196133	 0.2470401069	 0.075016
C	-0.3402685991	-4.3100144813	-0.3616986483	-0.218315
C	 0.2334905847	-2.8583966152	-0.4265779468	-0.247132
O	-1.3336176667	-3.0045338503	 1.3025000099	-0.343188
H	-0.1750514877	 1.8932483297	-1.3475793608	 0.127586
H	-1.3711106403	 1.8643523733	-0.0229625435	 0.105571
H	 0.3622463095	 1.6515426902	 0.3374979507	 0.105837
H	-0.1116716088	-0.5561264175	 1.3234000054	 0.095448
H	-1.8388720011	-0.3250699602	 0.9724661695	 0.093533
H	-3.1399077147	-2.3509839139	-0.2504885012	 0.104458
H	-2.1427959231	-2.8067374633	-1.6878895085	 0.096266
H	-2.3718479947	-4.7471143299	 0.5833190453	 0.076049
H	 0.2308153837	-4.9620264186	 0.3023761985	 0.106002
H	-0.4228883884	-4.7923792189	-1.3395249103	 0.097364
H	 0.4679911987	-2.5169717877	-1.4363638427	 0.11079
H	 1.1161439559	-2.724005055	 0.2031834594	 0.101325
61.7046	86.8833	126.6636	222.6631	268.8928	326.3321	341.9329	393.4181	449.2668	560.1782	664.4713	735.2594	827.5687	834.2999	848.0064	870.2742	919.4259	945.4308	954.5841	995.4247	996.4546	1018.7441	1035.3383	1103.4602	1146.801	1159.8097	1166.4334	1189.0649	1201.2459	1218.1727	1226.0506	1234.4455	1265.0603	1278.13	1298.0713	1318.2007	1352.2206	1428.4936	1480.7127	1482.0582	1484.023	1485.2089	1504.149	1508.7472	1525.1765	2954.2163	2972.8823	2991.7708	3015.7965	3063.6364	3068.312	3075.5891	3111.1347	3115.0807	3124.5744	3129.6592	3142.8568
COCC12CC(CC1)O2	COC[C@@]12C[C@@H](CC1)O2	
InChI=1S/C7H12O2/c1-8-5-7-3-2-6(4-7)9-7/h6H,2-5H2,1H3	InChI=1S/C7H12O2/c1-8-5-7-3-2-6(4-7)9-7/h6H,2-5H2,1H3/t6-,7+/m1/s1
