21
gdb 120780	3.83442	0.70504	0.651	0.8067	80.52	-0.2553	0.0785	0.3338	1773.9395	0.18122	-424.184725	-424.174927	-424.173982	-424.220608	35.412	
O	 0.1267643421	 1.365601288	 0.2882387668	-0.422692
C	-0.0173959509	-0.0417371645	 0.4028105361	-0.065896
C	-1.2413988031	-0.4492921944	-0.4125218611	-0.215712
C	-1.4535572661	-1.9422382395	-0.3911267543	 0.039874
O	-1.9290959189	-2.523522486	 0.8336292939	-0.271723
C	-2.7655716014	-2.6089492289	-0.3277088729	 0.059081
C	-4.0823861166	-1.9126396896	-0.2926880237	-0.006603
C	-5.0766867339	-2.1746857692	-1.4008142037	-0.268764
C	-5.3314930483	-2.7192399217	-0.021535245	-0.266917
H	 0.8628683258	 1.6379866584	 0.8435804842	 0.286181
H	 0.8749212078	-0.5672294873	 0.0237047533	 0.082609
H	-0.161543033	-0.3510399903	 1.448659976	 0.105808
H	-2.1134080367	 0.077894351	-0.0170810183	 0.113562
H	-1.1020479347	-0.1180989166	-1.4490648347	 0.110008
H	-0.6408547349	-2.5140593353	-0.8479768454	 0.083574
H	-2.8190659571	-3.6162790503	-0.7512532377	 0.080714
H	-4.0630926202	-0.9095837784	 0.1176420779	 0.092396
H	-5.6758610196	-1.3425702554	-1.7522548971	 0.117083
H	-4.7935922107	-2.8759242833	-2.1792723077	 0.113833
H	-5.2166946086	-3.7870700759	 0.1327235837	 0.116967
H	-6.108789271	-2.2639211606	 0.5813941095	 0.116615
51.0962	69.9068	92.0572	123.9115	184.5027	261.4024	267.1684	288.1205	358.5526	448.724	505.9291	564.1289	759.9907	782.294	815.7368	829.1627	839.2436	909.4044	924.7991	970.1023	999.2036	1021.6193	1060.8472	1073.4486	1078.9011	1101.3251	1122.3163	1127.4752	1172.3291	1197.8659	1213.727	1222.1882	1235.0428	1245.8876	1301.6564	1315.1928	1324.1178	1341.4794	1430.5892	1460.964	1469.467	1478.9326	1494.9852	1518.1616	1529.8125	2963.4205	3008.3173	3042.5864	3057.0857	3070.6468	3106.4338	3132.2619	3136.4511	3176.4988	3211.231	3226.5877	3831.1878
OCCC1OC1C1CC1	OCC[C@H]1O[C@H]1C1CC1	
InChI=1S/C7H12O2/c8-4-3-6-7(9-6)5-1-2-5/h5-8H,1-4H2	InChI=1S/C7H12O2/c8-4-3-6-7(9-6)5-1-2-5/h5-8H,1-4H2/t6-,7+/m1/s1
