16
gdb 12694	3.07366	2.01154	1.38835	1.0635	60.45	-0.2579	-0.04	0.2179	893.7481	0.129571	-420.894075	-420.886229	-420.885285	-420.92633	28.791	
C	-0.0434716372	 1.5746531264	 0.0126118891	-0.395945
C	 0.0719788208	 0.0493944361	 0.0238531859	 0.025919
O	 0.777929614	-0.4650403516	-1.1067654966	-0.269597
C	 2.1196216904	-0.7845153376	-0.7215168145	-0.125695
C	 1.9741365752	-1.3565481059	 0.6925312828	 0.046598
O	 3.1214859559	-1.3179313861	 1.4891344051	-0.436182
C	 0.8644061096	-0.4548878826	 1.2262259908	 0.334233
O	 0.750278463	-0.1375407614	 2.3832903768	-0.327902
H	 0.9444466047	 2.0434310475	-0.0194788939	 0.127264
H	-0.6103130273	 1.8995669731	-0.8628755856	 0.132274
H	-0.5546171832	 1.9120720064	 0.9186045212	 0.139844
H	-0.9308492719	-0.3969166099	 0.0237700109	 0.116639
H	 2.511916279	-1.4902260744	-1.4551313389	 0.124815
H	 2.7690524541	 0.103351139	-0.6961920661	 0.108705
H	 1.5623831173	-2.3788696303	 0.6157120523	 0.103998
H	 2.8318745857	-1.0117614386	 2.3616959307	 0.295032
71.0482	168.2912	211.2033	216.2527	274.6303	357.0787	384.5447	437.5344	501.5781	580.3642	634.5113	679.3596	805.4012	863.5933	961.9127	986.7447	1036.464	1064.3506	1094.8428	1111.8535	1139.1073	1180.9076	1216.0272	1257.2318	1302.9313	1322.9102	1347.0235	1388.4141	1398.9254	1410.9049	1485.0165	1494.2221	1519.4665	1848.9532	2948.9227	3001.0458	3028.203	3047.2764	3120.3845	3123.4735	3133.9143	3718.1523
CC1OCC(O)C1=O	C[C@H]1OC[C@@H](O)C1=O	
InChI=1S/C5H8O3/c1-3-5(7)4(6)2-8-3/h3-4,6H,2H2,1H3	InChI=1S/C5H8O3/c1-3-5(7)4(6)2-8-3/h3-4,6H,2H2,1H3/t3-,4-/m1/s1
