20
gdb 121174	2.43628	0.97952	0.74016	1.7696	78.44	-0.251	0.0273	0.2783	1547.0892	0.169781	-440.273612	-440.263486	-440.262542	-440.309787	35.086	
C	 0.0077694146	 1.3479644089	 0.13055251	-0.340435
N	-0.0648890355	-0.0981583998	 0.293681572	-0.32795
C	-1.1223078805	-0.6960986093	-0.0041035836	 0.468953
O	-2.3233176545	-0.2120055777	-0.503124506	-0.266544
C	-2.8686405356	-1.5622814605	-0.5968388543	-0.10517
C	-1.5667137871	-2.1478049236	-0.001380171	-0.161436
C	-0.7543926126	-3.1293805128	-0.8430024218	-0.222318
C	 0.5882981128	-3.4863211679	-0.1950212448	-0.07103
O	 1.3248429428	-4.4233249172	-0.965839877	-0.41891
H	 0.8693989684	 1.5938576308	-0.4994893953	 0.125833
H	-0.8910282231	 1.7939643424	-0.310625045	 0.127371
H	 0.1850132859	 1.8108621355	 1.1077393931	 0.128857
H	-3.775107093	-1.6627184978	 0.0047747602	 0.120203
H	-3.072042367	-1.8286660245	-1.6380540198	 0.11871
H	-1.7020141239	-2.5336948679	 1.0142758427	 0.106262
H	-1.3291883436	-4.0503118315	-0.9979035256	 0.109071
H	-0.5740740678	-2.6949734023	-1.8358576123	 0.09241
H	 1.1619914456	-2.5700676811	-0.0012909205	 0.125764
H	 0.4125564754	-3.9701841163	 0.7728095023	 0.108159
H	 1.6466292087	-3.9688457975	-1.7504865333	 0.2822
71.1508	79.5781	88.4987	106.4926	166.0888	181.938	222.8842	285.7809	303.7832	354.2225	444.8959	529.428	687.2616	731.4005	788.7387	843.6428	916.4063	967.8099	990.043	1036.2798	1070.6236	1075.963	1085.7973	1111.1428	1125.1376	1131.3808	1155.2481	1174.9392	1190.5998	1243.7021	1295.6369	1316.3656	1342.5099	1375.7471	1405.2853	1422.3935	1439.5698	1486.4647	1494.5064	1497.3955	1516.4522	1518.5842	1841.9934	3012.9343	3018.1893	3020.8998	3052.8009	3055.8474	3061.7916	3080.3957	3083.0373	3089.1082	3115.4245	3820.9359
CN=C1OCC1CCO	CN=C1OC[C@H]1CCO	
InChI=1S/C6H11NO2/c1-7-6-5(2-3-8)4-9-6/h5,8H,2-4H2,1H3	InChI=1S/C6H11NO2/c1-7-6-5(2-3-8)4-9-6/h5,8H,2-4H2,1H3/t5-/m1/s1
