14
gdb 26619	2.43782	1.89985	1.069	2.8113	70.64	-0.1907	-0.0227	0.168	1024.9366	0.103817	-470.08581	-470.078339	-470.077395	-470.117447	29.08	
N	-0.0212467698	 1.4120693221	 0.1532638058	-0.591058
C	-0.03331876	 0.0296329673	 0.0567212151	 0.091418
C	-1.1718328026	-0.7382931556	 0.0265384521	 0.347415
O	-2.3759212903	-0.1160916941	 0.0245468036	-0.428904
N	-1.1924156961	-2.0982876277	-0.0052030677	-0.355278
C	-0.0458273055	-2.7032658427	-0.016624306	 0.079904
N	 1.1357371017	-2.03746731	-0.0065148421	-0.348275
C	 1.2470762823	-0.6365294218	 0.0157912214	 0.390663
O	 2.3381824977	-0.0822177609	-0.0067608904	-0.414131
H	 0.8686699007	 1.8018292631	-0.1292492366	 0.262998
H	-0.8226071604	 1.8757804005	-0.2482803891	 0.257472
H	-3.0435040981	-0.8135671096	-0.0065980019	 0.300795
H	 0.0021989544	-3.786830765	-0.0363212113	 0.138646
H	 2.0131194258	-2.5390695355	-0.0325824729	 0.268333
138.2646	214.1924	267.5335	297.1791	351.9459	369.7047	463.9641	511.2644	542.3367	546.5098	567.1322	641.8107	648.8161	720.8459	730.6526	774.662	891.2201	903.3629	994.9045	1123.8467	1172.282	1223.4783	1319.8235	1344.9667	1396.4235	1454.9958	1470.9401	1596.1312	1626.4056	1695.5548	1769.419	3191.1138	3548.2587	3605.3743	3665.8639	3789.2891
NC1=C(O)N=CNC1=O	Nc1c(O)nc[nH]c1=O	
InChI=1S/C4H5N3O2/c5-2-3(8)6-1-7-4(2)9/h1H,5H2,(H2,6,7,8,9)	InChI=1S/C4H5N3O2/c5-2-3(8)6-1-7-4(2)9/h1H,5H2,(H2,6,7,8,9)
