16
gdb 56470	2.80997	1.10713	0.82118	3.7455	73.25	-0.2517	-0.0302	0.2215	1333.1531	0.123493	-434.051106	-434.041599	-434.040655	-434.085964	33.912	
N	-0.4409488132	 1.7240268528	-0.2662570476	-0.500886
C	-0.0183959907	 0.332386784	-0.1448840475	-0.206406
C	-1.1496026432	-0.5397829566	 0.1777092416	 0.311445
C	-2.0635441385	-1.2807579291	 0.4252938308	-0.450815
C	 0.7785602595	-0.1860204968	-1.3699336638	 0.370091
N	 1.2835477986	 0.6526549383	-2.1711575866	-0.509437
N	 0.9166497592	-1.5837358609	-1.4084392203	-0.342551
C	 1.6599257628	-2.3063371723	-2.3098650297	 0.166534
O	 2.3391705242	-1.8420776588	-3.1971913004	-0.296286
H	 0.3179179476	 2.2146132988	-0.7380570659	 0.253009
H	-1.2222206455	 1.7652845427	-0.9163120219	 0.23516
H	 0.6892505562	 0.2745034221	 0.6984473197	 0.140462
H	-2.8852019236	-1.9131774308	 0.6577221795	 0.211099
H	 1.8319004729	 0.1875653917	-2.895150828	 0.257902
H	 0.3497261541	-2.1067358495	-0.754128035	 0.261558
H	 1.5694018496	-3.3941815558	-2.1288081648	 0.09912
56.4686	80.1185	134.1651	209.2488	212.1658	234.5322	267.3721	315.916	367.2373	465.4962	516.3988	565.4986	625.7694	631.9681	650.0702	678.0435	819.4088	902.1973	952.3716	966.2277	972.7644	1026.8243	1037.9332	1152.2829	1196.312	1219.2565	1295.6767	1327.2158	1403.7078	1438.1204	1516.4125	1670.0223	1733.7037	1813.9605	2234.2643	2956.4186	2975.6086	3471.474	3488.7003	3498.5744	3545.4277	3581.6725
NC(C#C)C(=N)NC=O	N[C@@H](C#C)C(=N)NC=O	
InChI=1S/C5H7N3O/c1-2-4(6)5(7)8-3-9/h1,3-4H,6H2,(H2,7,8,9)	InChI=1S/C5H7N3O/c1-2-4(6)5(7)8-3-9/h1,3-4H,6H2,(H2,7,8,9)/t4-/m0/s1
