19
gdb 81972	2.60068	1.62631	1.28272	2.8075	69.71	-0.2516	0.0728	0.3245	1040.0326	0.159974	-460.155846	-460.147705	-460.146761	-460.188085	32.297	
C	 0.0090812189	 1.5708321426	 0.0045831836	-0.397288
C	 0.0686681061	 0.0428093429	 0.0102294882	-0.045831
C	 0.8319606419	-0.5792150916	-1.1511548025	 0.037797
O	 2.2629317946	-0.563200597	-0.9523075101	-0.283218
C	 1.5301172616	-1.7850516818	-0.6956732237	 0.001986
C	 1.2141572817	-2.0033422804	 0.7784797243	 0.110945
O	 2.2627693933	-2.5246282593	 1.5528111183	-0.44251
C	 0.7650203735	-0.5861753839	 1.2482280656	 0.049038
O	 1.9065335873	 0.142298541	 1.6882626937	-0.445513
H	 1.0101239183	 2.007797581	 0.0268615937	 0.128039
H	-0.5017675835	 1.9341872803	-0.8929614309	 0.113751
H	-0.5348197441	 1.9437440399	 0.8774575949	 0.123731
H	-0.9562062483	-0.3530909503	-0.0304594758	 0.086018
H	 0.5126907521	-0.4307172614	-2.1797549575	 0.100547
H	 1.7885787256	-2.6153630776	-1.3462982289	 0.106761
H	 0.3701651484	-2.7051339937	 0.8372428193	 0.084178
H	 2.7045203472	-1.7505241579	 1.9327041744	 0.286913
H	 0.0978485315	-0.6376870242	 2.1113698886	 0.09059
H	 2.4530776538	 0.2597439612	 0.8957471848	 0.294064
131.0298	179.371	207.6432	239.0426	283.5624	309.6754	432.7796	461.1134	466.3894	509.245	580.5124	665.2093	724.0499	790.7128	832.3619	853.9563	858.2424	891.8357	912.1537	982.5263	1004.6323	1051.6431	1069.1024	1100.5006	1134.9357	1140.3105	1161.2815	1221.9727	1232.9281	1261.4288	1284.2752	1317.5441	1338.174	1361.8698	1370.4509	1410.1429	1426.0787	1443.8893	1458.1769	1494.4472	1496.2746	3009.2129	3015.1711	3042.5102	3091.1926	3107.6131	3125.5426	3146.9484	3166.8571	3701.2063	3722.6547
CC1C2OC2C(O)C1O	C[C@H]1[C@H]2O[C@H]2[C@@H](O)[C@H]1O	
InChI=1S/C6H10O3/c1-2-3(7)4(8)6-5(2)9-6/h2-8H,1H3	InChI=1S/C6H10O3/c1-2-3(7)4(8)6-5(2)9-6/h2-8H,1H3/t2-,3+,4+,5-,6+/m1/s1
