16
gdb 102427	2.98254	0.76348	0.6536	6.2257	80.54	-0.2757	-0.0493	0.2264	1669.4464	0.12209	-437.846521	-437.836594	-437.835649	-437.882579	33.76	
C	-0.0297586842	 1.3050644415	 0.0765931359	-0.243952
O	 0.079030927	-0.1087206017	 0.0505588223	-0.248273
C	 0.6850619268	-0.6232055256	-1.134438257	-0.146618
C	 2.2035370492	-0.7674295505	-0.900764239	-0.057619
O	 2.466548902	-1.5521683385	 0.2330100126	-0.408309
C	 0.0582277481	-1.9062471749	-1.4447218152	 0.146579
C	-0.4430847873	-2.9645887008	-1.7373689391	 0.064008
C	-1.0152965526	-4.160690327	-2.0636714675	 0.20806
N	-1.50362262	-5.1762271432	-2.3454670728	-0.33286
H	 0.9476781364	 1.8018688326	 0.0081343236	 0.119149
H	-0.6691566913	 1.6696475123	-0.7393067918	 0.124447
H	-0.4899062629	 1.5646188585	 1.0319679209	 0.145109
H	 0.511348429	 0.0596472784	-1.9811940822	 0.112863
H	 2.6717505602	-1.25416665	-1.761501827	 0.127171
H	 2.6288641779	 0.2459246179	-0.8133408705	 0.096385
H	 1.8908969817	-1.2195753289	 0.9333830068	 0.293861
55.0978	79.3561	82.9374	133.6177	178.3779	217.4618	237.4847	306.274	367.6763	390.836	453.4123	501.6053	574.7038	585.6518	651.9287	792.6811	861.3902	968.2166	1028.9486	1097.9816	1125.2204	1155.729	1180.0297	1212.34	1231.4996	1286.0849	1357.6456	1395.0182	1426.5964	1478.584	1487.2052	1502.1168	1508.9091	2268.424	2404.9194	2970.5721	2985.8893	2997.9872	3052.2308	3089.263	3131.07	3778.1993
COC(CO)C#CC#N	CO[C@@H](CO)C#CC#N	
InChI=1S/C6H7NO2/c1-9-6(5-8)3-2-4-7/h6,8H,5H2,1H3	InChI=1S/C6H7NO2/c1-9-6(5-8)3-2-4-7/h6,8H,5H2,1H3/t6-/m1/s1
