21
gdb 59032	2.63484	1.25594	1.05697	3.0978	86.14	-0.2337	-0.0387	0.195	1265.0262	0.182233	-387.145519	-387.136152	-387.135208	-387.179789	34.97	
C	-0.0293189273	 1.5572030239	 0.0408472934	-0.396634
C	-0.0307761113	 0.0169918164	-0.0092963034	-0.082379
C	-1.4690233253	-0.534075573	 0.0414200261	-0.39662
C	 0.7020542011	-0.4879472049	-1.2253275637	 0.244461
C	 1.8063219309	-1.2485881053	-1.2666851561	-0.182303
C	 2.2842081742	-1.5780241097	-2.6577835904	-0.266972
C	 1.2644460864	-0.8759886077	-3.5730482443	-0.319011
C	 0.2720895994	-0.1920810316	-2.6223764873	 0.331854
O	-0.6858219555	 0.4676484199	-2.9637920102	-0.340375
H	 0.9916138217	 1.95204194	 0.0511810399	 0.10692
H	-0.5484731655	 1.9686615914	-0.8281289661	 0.147772
H	-0.5371188503	 1.9077102113	 0.9453032821	 0.10841
H	 0.5074508985	-0.3532904451	 0.8733749275	 0.071348
H	-2.0388906628	-0.196276149	-0.8275425171	 0.147756
H	-1.4734703304	-1.628683315	 0.0521559078	 0.106922
H	-1.9774897554	-0.1844740768	 0.9458534162	 0.108415
H	 2.3316030697	-1.6102198013	-0.3872360667	 0.104842
H	 3.3093929908	-1.2213104085	-2.816105881	 0.119474
H	 2.3166125496	-2.6630541046	-2.8157879388	 0.119468
H	 1.7170846898	-0.122722597	-4.2245037368	 0.133321
H	 0.7216922717	-1.5678360935	-4.2237902013	 0.133331
70.0506	85.0503	152.477	187.7304	242.5083	265.363	271.5418	308.5473	431.3635	439.377	481.3851	627.1378	649.6078	673.2669	767.5873	808.4949	873.5276	897.6856	932.8217	933.7568	968.0729	986.9696	1026.4731	1032.3229	1122.0067	1124.6829	1150.7236	1181.2377	1219.8078	1230.9856	1274.106	1321.8201	1326.2332	1341.362	1381.0088	1391.3195	1413.7625	1449.4964	1484.3149	1486.9168	1501.1143	1502.1117	1519.7912	1685.878	1794.12	3010.7581	3028.4714	3035.0687	3038.8636	3052.108	3065.7423	3099.9077	3102.854	3105.438	3128.2774	3132.6455	3174.8358
CC(C)C1=CCCC1=O	CC(C)C1=CCCC1=O	
InChI=1S/C8H12O/c1-6(2)7-4-3-5-8(7)9/h4,6H,3,5H2,1-2H3	InChI=1S/C8H12O/c1-6(2)7-4-3-5-8(7)9/h4,6H,3,5H2,1-2H3
