17
gdb 50654	3.18558	1.13605	0.8853	0.5919	69.47	-0.2404	-0.0382	0.2022	1252.7057	0.135114	-458.987715	-458.979341	-458.978397	-459.021456	30.288	
O	-0.6973051982	 0.8996850194	-0.6373946638	-0.240117
C	 0.1494209286	 0.9842059361	 0.2154539748	 0.147569
C	 1.3837387574	 1.8535920791	 0.1118949216	-0.116301
C	 1.4533270519	 2.6381175608	-1.1995254741	-0.082428
O	 2.6564678425	 3.3846872633	-1.2636576499	-0.244495
C	 2.7386786726	 4.3937622364	-0.2758049946	-0.176057
C	 2.5666907419	 3.8594268537	 1.1468110561	 0.373937
O	 3.2222122179	 4.2720757441	 2.0714521997	-0.290128
C	 1.464120542	 2.8193872122	 1.318761497	-0.334495
H	 0.0641003434	 0.4143724141	 1.1695305281	 0.086866
H	 2.2538923989	 1.1817466127	 0.1613366266	 0.117181
H	 1.4580066341	 1.9643470299	-2.0581735673	 0.131177
H	 0.5749795433	 3.2961724794	-1.2952649929	 0.104266
H	 3.7194078629	 4.8647907754	-0.3625240644	 0.140019
H	 1.9656428364	 5.1683003415	-0.4387309275	 0.111139
H	 0.5198508299	 3.380011564	 1.391594046	 0.138253
H	 1.6109775844	 2.302219498	 2.2702793646	 0.133615
67.1268	97.3228	125.5637	205.8539	265.2586	345.6586	392.3781	410.9314	469.1231	496.5638	610.9849	696.5214	803.1001	815.6369	858.4058	929.5235	956.0277	972.1467	1047.8727	1124.6161	1131.2304	1141.8482	1174.8028	1240.5477	1262.868	1275.8032	1306.5732	1322.7875	1333.7714	1363.7724	1406.9896	1429.5466	1461.016	1466.6114	1494.5888	1824.7136	1828.7932	2867.5965	2937.2417	2986.1624	3003.2539	3014.5889	3103.8911	3116.7709	3122.0002
O=CC1COCC(=O)C1	O=C[C@H]1COCC(=O)C1	
InChI=1S/C6H8O3/c7-2-5-1-6(8)4-9-3-5/h2,5H,1,3-4H2	InChI=1S/C6H8O3/c7-2-5-1-6(8)4-9-3-5/h2,5H,1,3-4H2/t5-/m0/s1
