19
gdb 35209	3.17305	1.21859	1.03933	0.7988	87.42	-0.2351	0.0283	0.2635	1203.5927	0.159044	-348.722142	-348.713816	-348.712871	-348.75536	32.593	
C	-0.0992750408	-1.2011842211	 0.0190977918	-0.459808
C	-0.0512378882	 0.0016314836	 0.0373567627	 0.330125
C	 0.0143329811	 1.4316589268	 0.044864818	-0.239054
C	 0.5793473818	 2.1738782844	 1.2484961184	-0.341223
C	 1.3568859602	 2.1660728287	-0.0302364643	 0.343048
C	 2.665828465	 1.376352147	-0.1806342853	-0.342972
C	 3.3618242168	 2.08418322	-1.3166349082	-0.056865
C	 2.7156604411	 3.1794088953	-1.7105567702	-0.060178
C	 1.4598216649	 3.4240009147	-0.9106232436	-0.335358
H	-0.1517259367	-2.2613910259	 0.0090950759	 0.19344
H	-0.8080513458	 1.924709789	-0.4672455817	 0.107582
H	 0.0758309374	 3.0884218745	 1.5459795573	 0.113078
H	 0.9414896628	 1.5670814396	 2.0716179604	 0.122029
H	 3.2701957861	 1.4079166913	 0.7371120856	 0.105196
H	 2.4812077244	 0.3162885598	-0.3915783989	 0.124338
H	 4.2950344031	 1.7239257676	-1.7352586131	 0.091806
H	 3.039026797	 3.8499172285	-2.4989440635	 0.091391
H	 0.5761644236	 3.5620895457	-1.5469450265	 0.105909
H	 1.5468991662	 4.3383069604	-0.3053511546	 0.107516
48.1741	135.3923	136.9227	294.4184	328.5994	371.1083	388.0268	490.5237	524.2257	561.5782	591.6225	647.7917	698.6901	775.2492	786.0499	797.1715	858.0975	906.5223	942.0511	976.2405	980.5002	987.3271	1006.6207	1036.4935	1054.9383	1081.4073	1128.2171	1131.8844	1176.2693	1212.3112	1227.7643	1270.9323	1301.8565	1345.4156	1372.3513	1400.3549	1484.1241	1484.5807	1489.927	1693.7323	2230.5574	2997.4499	3004.9696	3032.0858	3050.3916	3124.918	3134.8925	3182.7265	3207.9826	3215.3394	3505.527
C#CC1CC11CC=CC1	C#C[C@H]1C[C@]21CC=CC2	
InChI=1S/C9H10/c1-2-8-7-9(8)5-3-4-6-9/h1,3-4,8H,5-7H2	InChI=1S/C9H10/c1-2-8-7-9(8)5-3-4-6-9/h1,3-4,8H,5-7H2/t8-/m0/s1
