14
gdb 12957	2.72939	2.21868	1.73842	1.0848	59.57	-0.2414	0.0081	0.2495	794.4322	0.106909	-415.80734	-415.799939	-415.798995	-415.838734	27.923	
O	 0.0484644801	 1.3838585092	 0.3402510895	-0.421316
C	-0.0474507077	 0.0079340412	 0.1358626761	 0.05385
C	-0.5175490244	-0.8681345018	 1.2519257136	-0.134836
N	-1.6238334679	-0.2431448434	 1.9910594468	-0.345946
C	-2.4098572406	-0.1175103261	 0.8017847978	 0.294753
N	-3.5880482973	 0.2517076491	 0.5464288213	-0.545862
C	-1.3522442335	-0.7308430009	-0.063218341	 0.253814
O	-1.5391670048	-1.523792044	-1.1630755554	-0.444512
H	-0.2600036892	 1.8311869631	-0.4552444719	 0.297904
H	 0.7502012591	-0.433260425	-0.4660466533	 0.107294
H	 0.0280874861	-1.704261439	 1.669226157	 0.117298
H	-1.4062469559	 0.6238142042	 2.4750216999	 0.24311
H	-4.0595597721	 0.5961975683	 1.3852883138	 0.222106
H	-2.3409270419	-2.041957615	-1.0237801141	 0.302344
107.5407	211.5066	231.1886	264.2665	311.7553	340.4561	424.0591	480.3191	587.7605	649.4939	701.2534	737.9182	789.2679	826.4587	883.4816	914.9196	956.5393	1002.6074	1060.0184	1064.0525	1110.4311	1197.1571	1243.126	1272.5024	1315.4126	1338.2884	1365.5793	1382.7532	1488.2495	1800.395	3092.6983	3205.4322	3459.7162	3510.0764	3792.2113	3808.671
OC1C2NC(=N)C12O	O[C@H]1[C@H]2N[C]([NH])[C@@]12O	
InChI=1S/C4H6N2O2/c5-3-4(8)1(6-3)2(4)7/h1-2,7-8H,(H2,5,6)	InChI=1S/C4H6N2O2/c5-3-4(8)1(6-3)2(4)7/h1-2,7-8H,(H2,5,6)/t1-,2+,4+/m1/s1
