19
gdb 51574	4.00615	0.76859	0.69502	2.555	78.	-0.2368	-0.0262	0.2106	1604.7176	0.157912	-419.143585	-419.134387	-419.133443	-419.179075	32.722	
O	-1.022040514	 1.0053215518	 1.0028933178	-0.238537
C	-0.4477052791	 1.3663659807	 0.0100047274	 0.157713
C	 1.0462236731	 1.6511714445	-0.0541084362	-0.229269
N	 1.3195471094	 2.6057718281	-1.1161693807	-0.101622
C	 1.5522372138	 4.0012149034	-0.7528072261	-0.270549
C	 2.6665601994	 3.1567325179	-1.2743896508	-0.007015
C	 3.8109994657	 2.7594493261	-0.3958470065	 0.013709
C	 4.8717792852	 1.868597839	-0.9368778787	-0.247609
N	 5.1539855548	 3.2901413982	-0.6809171769	-0.324688
H	-0.9696951069	 1.5086298111	-0.9620326741	 0.090312
H	 1.3850087107	 1.9447377796	 0.9500291249	 0.11876
H	 1.5404899524	 0.7001336346	-0.3008557189	 0.137625
H	 1.0718479602	 4.7464119936	-1.3809459614	 0.122683
H	 1.5839405475	 4.2506683976	 0.3076271394	 0.11955
H	 2.9543571637	 3.2758935094	-2.3207735067	 0.08767
H	 3.5920103882	 2.7100445378	 0.6676685552	 0.097713
H	 5.3886224082	 1.1733733873	-0.2817437702	 0.124874
H	 4.7702324544	 1.532699466	-1.9661905394	 0.11571
H	 5.1421613532	 3.8106532534	-1.5558341783	 0.23297
47.5058	73.0534	77.7885	120.7939	208.5665	278.2604	310.5646	359.6889	446.4382	502.7206	576.8548	722.1719	764.8511	827.6011	864.5329	887.8991	932.3959	953.009	965.686	1033.522	1056.2355	1077.2964	1096.5223	1114.6882	1126.1194	1139.2567	1158.0246	1169.9403	1236.5082	1252.4079	1257.3392	1293.5872	1326.6969	1332.9409	1341.433	1403.6966	1453.3846	1457.4696	1507.2695	1513.2147	1840.0009	2897.0245	2992.5992	3038.8185	3082.6089	3088.9345	3106.7577	3140.43	3179.8853	3193.8517	3486.4964
O=CCN1CC1C1CN1	O=CCN1C[C@H]1[C@H]1CN1	
InChI=1S/C6H10N2O/c9-2-1-8-4-6(8)5-3-7-5/h2,5-7H,1,3-4H2	InChI=1S/C6H10N2O/c9-2-1-8-4-6(8)5-3-7-5/h2,5-7H,1,3-4H2/t5-,6+,8?/m1/s1
