12
gdb 21822	5.99368	1.51607	1.21001	5.9285	60.77	-0.24	-0.0293	0.2107	904.9003	0.084718	-414.668956	-414.662293	-414.661348	-414.700814	23.473	
O	-0.2793583682	-0.0173315725	 0.0026300735	-0.264863
C	-0.0839831996	 1.1677122131	 0.0085499778	 0.151125
N	 1.1523311204	 1.7943890394	 0.0015701624	-0.413007
C	 2.4102166368	 1.2213830589	-0.0128097409	 0.564254
C	 3.6426385092	 1.8141535494	-0.0186008883	-0.383144
C	 4.5172554943	 0.7004718231	-0.0338786488	 0.050799
N	 3.8842841386	-0.4459559887	-0.0372055098	-0.138105
O	 2.5182678881	-0.1073487083	-0.0235091815	-0.183611
H	-0.8892393804	 1.9279256625	 0.0198792443	 0.091035
H	 1.1432233864	 2.803062865	 0.0081046633	 0.269499
H	 3.8801724167	 2.8640644931	-0.0127934992	 0.118138
H	 5.5982991476	 0.6961040449	-0.0427365429	 0.137878
37.3466	166.6453	194.7775	353.6783	355.2979	547.5805	620.2337	635.9472	710.0764	759.9634	837.4207	917.0947	920.8056	935.7498	1003.8459	1016.3195	1059.12	1118.2022	1221.1474	1334.8292	1366.0861	1443.7424	1498.5491	1540.4376	1651.936	1839.2714	2946.6657	3244.1078	3282.1036	3627.7575
O=CNC1=CC=NO1	O=CNc1ccno1	
InChI=1S/C4H4N2O2/c7-3-5-4-1-2-6-8-4/h1-3H,(H,5,7)	InChI=1S/C4H4N2O2/c7-3-5-4-1-2-6-8-4/h1-3H,(H,5,7)
