25
gdb 99778	1.67933	1.33849	0.92908	1.8072	88.7	-0.2599	0.0785	0.3384	1445.6996	0.226819	-389.478344	-389.467273	-389.466329	-389.515792	40.37	
C	 0.0246264069	 1.4307535531	 0.3929402248	-0.389788
C	 0.0384690556	-0.0902207979	 0.207121458	-0.191932
C	 0.5893431463	-0.5688872366	-1.1555530216	-0.01264
C	 2.1093160065	-0.2974664309	-1.3428143334	 0.035997
C	 3.0068850078	-1.2159183101	-0.4978630908	-0.39966
C	 2.5186247806	-0.3579425867	-2.82276617	-0.398574
C	 0.2195653611	-2.0285597698	-1.3411669215	 0.102617
C	-1.0109492102	-2.4420194123	-2.028313999	-0.190369
O	 0.2618201635	-2.5771485171	-2.6631463923	-0.244956
H	 1.031195729	 1.8591879947	 0.3807063202	 0.122789
H	-0.5531672903	 1.9191031357	-0.3997274359	 0.115043
H	-0.432303849	 1.6996256853	 1.3504707542	 0.11292
H	 0.60832845	-0.5545270732	 1.0219928317	 0.099323
H	-0.9875497061	-0.4650894729	 0.311784765	 0.095465
H	 0.0644560036	-0.0065910331	-1.9407812624	 0.068456
H	 2.2855956839	 0.7310243712	-1.0027533117	 0.070403
H	 2.9685867985	-2.2514720893	-0.8523960083	 0.123348
H	 4.0498044428	-0.8897003619	-0.5635516059	 0.111635
H	 2.7296846987	-1.2120164728	 0.5613434111	 0.109129
H	 1.9409413215	 0.3541622112	-3.4218106273	 0.104688
H	 3.5791749692	-0.1098864705	-2.9398768805	 0.101321
H	 2.351096101	-1.3530552222	-3.2426166256	 0.142423
H	 0.6059562792	-2.7085938442	-0.5797076235	 0.089757
H	-1.5003958628	-3.3771961553	-1.7593492013	 0.111496
H	-1.6660197075	-1.6831210842	-2.455335314	 0.111108
16.1422	64.1293	101.9356	174.552	193.9609	206.3555	244.4269	258.6496	275.2803	317.3466	355.6063	398.052	424.0319	496.3279	568.9451	729.8301	820.0854	850.4337	869.7893	905.8381	930.2651	945.8652	968.9799	984.001	1028.244	1051.7782	1064.842	1091.1071	1123.3774	1153.0699	1169.1494	1182.049	1196.684	1207.6653	1270.5159	1284.4132	1300.6439	1338.4474	1356.1915	1370.32	1379.2495	1404.8469	1412.5642	1426.1595	1452.8213	1486.7989	1489.1564	1496.9409	1500.2599	1505.1149	1512.4382	1513.7744	1528.8506	3003.2412	3017.7582	3022.383	3031.4498	3034.5685	3035.7181	3053.7696	3078.4393	3091.9737	3094.4075	3099.1989	3100.7884	3102.8773	3108.0215	3124.6028	3164.4553
CCC(C(C)C)C1CO1	CC[C@@H](C(C)C)[C@H]1CO1	
InChI=1S/C8H16O/c1-4-7(6(2)3)8-5-9-8/h6-8H,4-5H2,1-3H3	InChI=1S/C8H16O/c1-4-7(6(2)3)8-5-9-8/h6-8H,4-5H2,1-3H3/t7-,8+/m0/s1
