21
gdb 122397	6.3134	0.60053	0.5731	3.1273	81.1	-0.2409	-0.0198	0.2211	1957.9139	0.179633	-424.232442	-424.222431	-424.221487	-424.268742	35.753	
C	-0.1164764597	 1.596270915	-0.1895829345	-0.383282
C	-0.1158322145	 0.1355727561	 0.267423663	-0.18335
C	-1.4191249848	-0.5772755876	-0.0649688478	-0.044606
O	-1.3343276584	-1.9158589812	 0.3916437821	-0.253309
C	-2.4922688365	-2.6663628892	 0.1628922765	 0.138445
C	-2.7487805339	-3.1724965366	-1.2986762603	-0.372284
C	-2.8914978235	-4.5850130231	-0.7087783387	 0.395935
O	-3.3290870831	-5.6168515592	-1.1268270823	-0.287455
C	-2.3600674227	-4.1289817312	 0.6580671312	-0.371251
H	 0.8282975817	 2.0861171976	 0.0622103666	 0.119876
H	-0.2527587288	 1.6763645439	-1.2737422168	 0.117429
H	-0.922268234	 2.164397184	 0.2882147827	 0.117491
H	 0.7092881615	-0.4104926669	-0.2039765244	 0.107588
H	 0.0472052283	 0.0744269051	 1.349444388	 0.108731
H	-2.2712966454	-0.0673216585	 0.416496183	 0.086961
H	-1.6024435421	-0.5534279301	-1.1523059084	 0.088976
H	-3.3763376895	-2.1593464278	 0.5759793433	 0.076136
H	-3.6034779685	-2.785744583	-1.8581960788	 0.126472
H	-1.8446298188	-3.0883303833	-1.9121259672	 0.136987
H	-1.3058203662	-4.3963486377	 0.7885721458	 0.144449
H	-2.9218993811	-4.4394654761	 1.541299227	 0.130062
42.5646	63.8244	76.6939	122.1701	160.7587	230.9755	279.1823	309.9566	410.9433	416.7115	475.0058	505.0049	656.4662	669.7801	764.838	769.9795	897.4277	901.054	914.7107	937.2993	998.1454	1015.5259	1053.4773	1081.6532	1108.5555	1148.8178	1154.282	1174.8973	1192.4524	1221.3713	1238.2933	1269.5643	1280.4521	1316.0619	1332.6008	1376.1874	1413.6984	1415.094	1431.7987	1450.1763	1492.1901	1500.684	1507.056	1526.9163	1896.2964	2952.4984	2981.3749	2998.0736	3032.7591	3040.0699	3052.0035	3061.1179	3072.8673	3100.9081	3110.2022	3120.4813	3126.0014
CCCOC1CC(=O)C1	CCCOC1CC(=O)C1	
InChI=1S/C7H12O2/c1-2-3-9-7-4-6(8)5-7/h7H,2-5H2,1H3	InChI=1S/C7H12O2/c1-2-3-9-7-4-6(8)5-7/h7H,2-5H2,1H3
