13
gdb 28562	2.51015	1.8283	1.05782	4.5374	62.09	-0.2096	-0.0515	0.1581	1018.6035	0.089648	-489.933553	-489.92589	-489.924946	-489.965749	28.093	
O	 0.0649824786	 1.3423289188	 0.2327544534	-0.43773
C	 0.0627588969	 0.0122766269	-0.018527779	 0.348211
C	 0.0540672206	-0.7837471835	-1.1094714914	-0.216436
N	 0.0566866661	-2.1416971871	-0.7360442013	-0.339469
C	 0.0666656999	-2.1521906451	 0.549517003	 0.480905
O	 0.0725869343	-3.2132167973	 1.3457629814	-0.408794
N	 0.0712082706	-0.8442399943	 1.0959112592	-0.185151
C	 0.0817789662	-0.5199264175	 2.4310695529	 0.184746
O	 0.0884830373	-1.3590578728	 3.3115050304	-0.336039
H	 0.0594338791	 1.817104868	-0.6046740736	 0.31884
H	 0.0460420089	-0.4950815753	-2.1483897025	 0.119538
H	 0.0799157268	-2.8890603908	 2.2694607142	 0.324913
H	 0.0835712349	 0.5624182299	 2.6199081534	 0.146465
114.1673	184.7529	217.1709	236.5679	267.2746	325.0143	378.4459	488.6034	588.2118	622.2363	652.2038	659.6008	728.3002	762.0352	789.8334	821.99	1041.1621	1065.8791	1127.7939	1185.1324	1247.7671	1309.7791	1351.2133	1413.2526	1454.9005	1478.4218	1662.3861	1707.8659	1782.359	3056.2266	3259.1749	3530.9253	3840.2592
OC1=CN=C(O)N1C=O	Oc1cnc(O)n1C=O	
InChI=1S/C4H4N2O3/c7-2-6-3(8)1-5-4(6)9/h1-2,8H,(H,5,9)	InChI=1S/C4H4N2O3/c7-2-6-3(8)1-5-4(6)9/h1-2,8H,(H,5,9)
