19
gdb 34004	2.93964	1.37139	1.15623	1.0746	88.04	-0.227	0.0128	0.2397	1133.6796	0.160103	-348.72388	-348.71578	-348.714836	-348.756222	32.389	
C	 0.0011022314	-1.1916356349	-0.084074033	-0.451314
C	 0.0030030822	 0.01130445	-0.0473568999	 0.245025
C	-0.0179262575	 1.4489558474	 0.0025274354	 0.158706
C	 0.4520056852	 2.1979994141	-1.246018304	-0.321403
C	 1.3127692065	 2.1996771199	-0.0144857206	-0.069434
C	 1.4304084597	 3.4564995592	 0.8471682647	-0.231331
C	 0.56574911	 3.3923933968	 2.1201538686	-0.259757
C	-0.8346069504	 2.9182340677	 1.8163815947	-0.05285
C	-1.0987684441	 2.045085275	 0.8454124534	-0.153657
H	 0.0049323083	-2.2526815751	-0.1142809759	 0.187992
H	 0.7560128399	 1.5980472481	-2.0960799085	 0.12193
H	-0.0809303992	 3.1112791548	-1.4901557724	 0.117696
H	 2.191570382	 1.5652950487	-0.0496272148	 0.099476
H	 2.4794732401	 3.6186599313	 1.1150906617	 0.100803
H	 1.1214122962	 4.3311487631	 0.2637170597	 0.105042
H	 1.0278897506	 2.7177305265	 2.8553548933	 0.116556
H	 0.5371048791	 4.3783151036	 2.5964928365	 0.101556
H	-1.6470861551	 3.3100895057	 2.4225142611	 0.090844
H	-2.1133692949	 1.7101476182	 0.6491411198	 0.094118
104.569	139.452	177.9769	237.2088	375.9042	411.4507	475.7084	489.896	517.4083	562.679	581.1583	620.1936	636.787	727.8191	761.7566	796.3027	866.7306	906.3298	932.3292	944.9513	976.4997	997.9697	1002.4519	1058.4187	1076.4583	1097.8099	1125.8148	1194.8138	1219.1264	1236.9107	1271.6373	1289.4069	1349.8737	1365.8455	1399.4545	1416.867	1473.7747	1481.8968	1493.8064	1712.6481	2230.5889	3005.7933	3034.8324	3063.1472	3077.2857	3129.6834	3153.7944	3167.3269	3176.79	3225.1975	3504.6718
C#CC12CC1CCC=C2	C#C[C@]12C[C@H]1CCC=C2	
InChI=1S/C9H10/c1-2-9-6-4-3-5-8(9)7-9/h1,4,6,8H,3,5,7H2	InChI=1S/C9H10/c1-2-9-6-4-3-5-8(9)7-9/h1,4,6,8H,3,5,7H2/t8-,9+/m1/s1
