15
gdb 5927	3.77048	1.22065	1.15481	1.6916	62.27	-0.2658	-0.0438	0.222	1053.403	0.115293	-399.816144	-399.807157	-399.806213	-399.849983	31.344	
C	 0.1723911532	 1.5934051308	-0.0258743396	-0.395737
C	 0.0202117177	 0.0676458468	-0.0216756638	 0.169249
O	 0.6628249539	-0.3934162407	 1.1613853792	-0.437295
C	-1.4691154367	-0.36432403	-0.0514437722	-0.299478
C	-2.2480568846	 0.1424104008	 1.1506277726	 0.146465
O	-3.3386605919	 0.6450218655	 1.0745476934	-0.232736
C	 0.6966495179	-0.50593054	-1.2096170328	 0.257724
N	 1.217336593	-0.9886340203	-2.1214254286	-0.325683
H	 1.2301845571	 1.8617400185	-0.0174246399	 0.151666
H	-0.3016886028	 2.0262898913	-0.9093503988	 0.144551
H	-0.3003785305	 2.0061271008	 0.8691120078	 0.144943
H	 0.7191102431	-1.3557467449	 1.1314991643	 0.297083
H	-1.9617432457	-0.0251938598	-0.9661494745	 0.144714
H	-1.5114185723	-1.4625557157	-0.0373067485	 0.132537
H	-1.7402490815	-0.0022898931	 2.1268640815	 0.101998
64.5434	94.5753	145.8595	188.733	228.7758	250.8658	339.5383	345.8213	391.727	444.7096	462.5674	584.2712	602.6918	717.7982	830.0681	908.9049	949.1919	989.4285	1048.4657	1112.4153	1164.1289	1178.1925	1231.7385	1307.8037	1376.3081	1414.6522	1419.4586	1453.2053	1479.5419	1495.7425	1833.0305	2352.3839	2920.2759	3022.8583	3058.2734	3112.2978	3137.617	3149.9756	3799.2559
CC(O)(CC=O)C#N	C[C@@](O)(CC=O)C#N	
InChI=1S/C5H7NO2/c1-5(8,4-6)2-3-7/h3,8H,2H2,1H3	InChI=1S/C5H7NO2/c1-5(8,4-6)2-3-7/h3,8H,2H2,1H3/t5-/m1/s1
