16
gdb 13204	4.23775	1.33721	1.13871	3.4037	61.09	-0.255	-0.0327	0.2223	1043.9925	0.129096	-420.864344	-420.856177	-420.855233	-420.898294	28.414	
O	-0.3071659141	 1.3481482057	-0.7590019448	-0.423559
C	-0.8592626962	 0.0666017442	-0.715458005	-0.129542
C	-0.7383058152	-0.5307526683	 0.6740227425	 0.314608
O	-0.2151114486	 0.1024033209	 1.5674474086	-0.329912
C	-1.2934870926	-1.9186842603	 0.9187798456	 0.054928
C	-2.6576688039	-1.9882983449	 1.6542603979	-0.284244
C	-3.1337656119	-2.7203898514	 0.3829796837	-0.064683
O	-1.8466931182	-2.5412133595	-0.2559249653	-0.285296
H	 0.0184282136	 1.5160378384	 0.1400172458	 0.293278
H	-1.9238655855	 0.0706223334	-1.000248402	 0.119003
H	-0.3702190535	-0.6192285257	-1.4259098536	 0.132314
H	-0.5031674495	-2.5277528718	 1.3765182609	 0.113657
H	-2.6587175593	-2.5684283673	 2.5764531825	 0.129541
H	-3.1235677675	-1.0192580366	 1.83806398	 0.129024
H	-3.3721043034	-3.7818119293	 0.5148268691	 0.114742
H	-3.9388140042	-2.2398942475	-0.183276376	 0.116139
35.2419	76.7437	119.4841	186.8698	242.5874	332.0108	415.2993	471.7453	515.2474	611.6976	777.0969	805.1687	844.5379	927.2581	950.7855	955.4066	1028.0365	1053.7124	1097.1696	1125.8261	1165.8752	1186.6653	1208.182	1231.9196	1252.2857	1257.3045	1312.9031	1341.1448	1356.8163	1449.4409	1473.3358	1493.7302	1531.3816	1791.74	2985.2597	2998.3678	3024.3964	3032.9737	3075.5246	3092.5463	3150.7571	3682.0398
OCC(=O)C1CCO1	OCC(=O)[C@H]1CCO1	
InChI=1S/C5H8O3/c6-3-4(7)5-1-2-8-5/h5-6H,1-3H2	InChI=1S/C5H8O3/c6-3-4(7)5-1-2-8-5/h5-6H,1-3H2/t5-/m1/s1
