19
gdb 105171	1.72968	1.30443	0.83002	2.3509	81.74	-0.2415	0.0328	0.2743	1433.1514	0.155864	-422.97954	-422.968723	-422.967779	-423.016984	37.561	
C	-0.1371562302	 1.4528796741	 0.0148812374	-0.501924
C	-0.071745446	-0.0022315515	-0.0031113445	 0.088005
C	 0.0000410049	-1.2080126804	-0.0018303592	-0.040074
C	 0.0582195575	-2.6445085841	-0.0455640838	 0.078093
C	 1.1450719549	-3.2163329295	-0.944972998	-0.128349
O	 2.4512156369	-2.9262748559	-0.4834500327	-0.412766
C	-0.3283707588	-3.4167515454	 1.2190115448	-0.342021
C	-1.277640789	-3.3733504417	 0.0578232189	 0.100821
O	-2.4655227145	-2.6560739389	 0.1295250942	-0.430293
H	 0.8571311153	 1.8902377875	 0.1571787516	 0.153779
H	-0.5445459678	 1.8499262978	-0.9212778413	 0.152702
H	-0.7726999729	 1.8088087585	 0.8329905333	 0.15515
H	 1.0660244022	-4.3079833266	-0.9625058675	 0.106655
H	 0.9933076854	-2.8529790602	-1.973168119	 0.094753
H	 2.5207925646	-1.9675942963	-0.4126485402	 0.286364
H	 0.2218356827	-4.3296965622	 1.4209388697	 0.123437
H	-0.5945123419	-2.8323884523	 2.0919128193	 0.125582
H	-1.384509886	-4.2714175595	-0.545785925	 0.104166
H	-2.2501631673	-1.7185040532	 0.034411552	 0.285922
21.6904	63.8719	96.3515	113.7034	160.6984	192.5268	254.2988	273.5976	310.6107	349.4921	364.4535	418.7065	464.4346	540.2589	582.886	676.7168	806.7449	883.9838	913.9767	939.5525	1020.9335	1045.9393	1050.4347	1054.2864	1068.7352	1078.7661	1097.3817	1156.4148	1209.0284	1248.9867	1355.5797	1360.6841	1376.3814	1413.8809	1421.3312	1430.1053	1472.1289	1475.5562	1478.9947	1503.0203	2347.2912	2985.0373	3028.8223	3077.4766	3089.875	3092.0464	3135.0713	3139.3213	3232.5592	3741.6876	3800.0187
CC#CC1(CO)CC1O	CC#C[C@@]1(CO)C[C@H]1O	
InChI=1S/C7H10O2/c1-2-3-7(5-8)4-6(7)9/h6,8-9H,4-5H2,1H3	InChI=1S/C7H10O2/c1-2-3-7(5-8)4-6(7)9/h6,8-9H,4-5H2,1H3/t6-,7+/m1/s1
