20
gdb 61566	3.42387	0.93962	0.80113	2.0986	77.37	-0.2349	0.032	0.2669	1463.9469	0.168969	-440.290412	-440.280226	-440.279282	-440.327055	35.454	
C	-0.2114688986	 1.3130609693	 0.2511126583	-0.353209
N	-0.0810265359	-0.1163256809	 0.0040447658	-0.081238
C	 0.0356975756	-0.9777386699	 1.1759320232	-0.208673
C	-1.297999201	-1.255497268	 1.8291688914	 0.097775
C	-1.4246460712	-1.4181280496	 3.281453724	-0.179706
O	-1.8501968897	-0.211590953	 2.6447517556	-0.23607
C	 0.0508048698	-0.6842168694	-1.2400278276	 0.400598
C	 0.0169753614	 0.2555205352	-2.4365712941	-0.500913
O	 0.1843979134	-1.8893831098	-1.386983565	-0.380104
H	-0.7207048634	 1.8100714859	-0.574673678	 0.135112
H	-0.8074112396	 1.4627768536	 1.1533956071	 0.165706
H	 0.7653820095	 1.7965691189	 0.3979032837	 0.120474
H	 0.4771496453	-1.9185084579	 0.8404400477	 0.150681
H	 0.7055410375	-0.506218858	 1.9056228999	 0.100938
H	-2.029386976	-1.7470964016	 1.1874652586	 0.108718
H	-2.2211714304	-2.0383499304	 3.6885742865	 0.120287
H	-0.5407558815	-1.3269359574	 3.9119106556	 0.115468
H	 0.7557448876	 1.0581642133	-2.3526941814	 0.13463
H	 0.2276147996	-0.3401656442	-3.3239217153	 0.147967
H	-0.9673214625	 0.7216664338	-2.5507371959	 0.141559
28.0208	79.563	96.6165	99.309	151.6111	198.2223	269.647	287.7462	354.562	383.113	453.7889	538.0194	587.0202	602.8013	757.0563	791.3643	862.4046	933.168	959.5612	991.5217	1037.8722	1050.3939	1097.0803	1109.5072	1151.2177	1158.3479	1165.1889	1187.7454	1245.7018	1287.232	1312.5164	1365.4445	1386.3128	1423.8262	1446.7781	1457.5615	1467.9565	1480.3542	1495.2248	1505.3368	1525.8519	1529.9683	1754.3937	3000.1384	3030.7648	3045.0307	3085.5055	3107.0679	3108.4347	3114.1073	3124.3873	3150.8935	3162.8726	3172.6385
CN(CC1CO1)C(C)=O	CN(C[C@H]1CO1)C(=O)C	
InChI=1S/C6H11NO2/c1-5(8)7(2)3-6-4-9-6/h6H,3-4H2,1-2H3	InChI=1S/C6H11NO2/c1-5(8)7(2)3-6-4-9-6/h6H,3-4H2,1-2H3/t6-/m0/s1
