13
gdb 131657	4.59457	0.93231	0.78352	4.7657	67.69	-0.2865	-0.063	0.2235	1337.7872	0.089402	-452.740427	-452.732544	-452.7316	-452.773658	27.765	
O	 0.2248671368	 1.1187459202	-0.6843117962	-0.394826
C	-0.0360113835	 0.1068807049	 0.2620559277	-0.18119
C	-1.3908857004	-0.5044900595	 0.0621109797	 0.403687
C	-2.2642131459	-0.4837764786	-0.9786345366	-0.414102
C	-3.352732714	-1.2678232708	-0.5008147712	 0.285787
N	-3.1470451249	-1.7175045435	 0.7234440343	-0.182353
O	-1.9056404515	-1.2274962094	 1.0748498879	-0.194604
C	-4.5619216489	-1.5818744286	-1.1868710256	 0.253715
N	-5.5284197047	-1.8118500478	-1.7778957289	-0.317618
H	-0.3528450661	 1.8657799138	-0.494422907	 0.296894
H	 0.7364092293	-0.6570315	 0.1165597462	 0.155626
H	 0.0522912128	 0.4549904012	 1.301513444	 0.132794
H	-2.1538936188	-0.0044744019	-1.9351798144	 0.156189
69.371	117.2391	135.7182	220.4225	268.3888	347.4962	427.0253	511.1171	543.84	579.516	643.6189	723.7219	741.5155	839.6368	971.763	984.7444	1020.2852	1029.7446	1097.3294	1136.8115	1204.1843	1250.5064	1387.284	1408.0816	1439.9129	1474.0781	1489.7351	1624.2898	2367.3517	3007.1724	3066.9111	3301.4215	3812.5569
OCC1=CC(=NO1)C#N	OCc1cc(no1)C#N	
InChI=1S/C5H4N2O2/c6-2-4-1-5(3-8)9-7-4/h1,8H,3H2	InChI=1S/C5H4N2O2/c6-2-4-1-5(3-8)9-7-4/h1,8H,3H2
