20
gdb 10856	3.51484	1.63044	1.41982	1.0534	77.25	-0.2423	0.0216	0.2639	992.7909	0.177617	-349.020521	-349.01243	-349.011486	-349.052658	31.176	
C	-0.0542935349	 1.5800887963	 0.0128644948	-0.38597
C	 0.0169265719	 0.042952202	-0.0040474677	-0.026298
C	 0.7587249931	-0.4855990116	-1.2395664886	-0.089319
O	 2.156490222	-0.2764826752	-1.1255559646	-0.265278
C	 2.7505350398	-1.0442300674	-0.0873100027	 0.101379
C	 4.1624927286	-0.4984176954	 0.1142869257	-0.396802
C	 1.9341347652	-1.0063703107	 1.180419647	-0.065055
C	 0.7047862806	-0.4985193241	 1.225784372	-0.08508
H	 0.9515036946	 2.0008551154	-0.073619169	 0.130386
H	-0.6584525643	 1.9539871646	-0.8209661997	 0.108569
H	-0.4984823385	 1.948458763	 0.9431034924	 0.109967
H	-1.0094769924	-0.3499766688	-0.0322135141	 0.073263
H	 0.5432388908	-1.5580964292	-1.3751766632	 0.085108
H	 0.4456570063	 0.0407534753	-2.1468757891	 0.099446
H	 2.830257042	-2.0973441091	-0.4217472167	 0.070721
H	 4.1222584353	 0.5354197008	 0.4689261032	 0.125108
H	 4.7065160119	-1.1002199089	 0.8485102237	 0.111924
H	 4.7101827956	-0.5219927371	-0.8315411108	 0.124155
H	 2.4054438422	-1.4199019741	 2.068844071	 0.087393
H	 0.1603928502	-0.4575353759	 2.1664559862	 0.086382
80.5831	204.4927	211.9328	239.0216	258.7747	313.6821	369.6346	408.9453	486.1444	574.3234	592.0312	740.4901	790.1942	814.0562	829.5792	902.3916	958.9203	973.664	998.0892	1005.7255	1059.8915	1091.3651	1123.9397	1127.0537	1131.3139	1174.2231	1216.159	1289.0542	1331.2152	1341.7346	1346.7596	1359.4912	1394.6729	1397.0273	1405.4475	1429.8883	1483.793	1489.4595	1496.8486	1500.6174	1504.4174	1720.5656	2905.5315	2970.1472	3005.4981	3031.9466	3042.9225	3074.5932	3098.5296	3117.3393	3118.5184	3124.4945	3141.8601	3166.0669
CC1COC(C)C=C1	C[C@H]1CO[C@@H](C)C=C1	
InChI=1S/C7H12O/c1-6-3-4-7(2)8-5-6/h3-4,6-7H,5H2,1-2H3	InChI=1S/C7H12O/c1-6-3-4-7(2)8-5-6/h3-4,6-7H,5H2,1-2H3/t6-,7+/m1/s1
