19
gdb 113237	4.49832	0.79346	0.75612	1.8341	77.87	-0.2613	0.0434	0.3046	1530.7313	0.155526	-422.970522	-422.960323	-422.959379	-423.00616	36.935	
C	-0.0601484845	 1.732704732	 0.1432221014	-0.46757
C	-0.1788443169	 0.2298446527	 0.265869082	 0.379534
C	-1.4350197522	-0.3747393003	-0.3712527789	-0.418961
C	-1.5769541645	-0.063126761	-1.7895508798	 0.311894
C	-1.6880254215	 0.2023782852	-2.9562763192	-0.443426
O	 1.0152287122	-0.5256441301	 0.0204413814	-0.297358
C	 0.4554910509	-0.5465432484	 1.3476412972	-0.020698
C	 1.34095378	 0.0067435639	 2.4369869325	-0.093844
O	 2.4192916745	-0.8765734329	 2.6990115548	-0.415506
H	 0.8923192322	 2.0932847602	 0.531872853	 0.130337
H	-0.1338306509	 2.022045707	-0.908939219	 0.146361
H	-0.8722404272	 2.229095354	 0.6855908355	 0.122543
H	-1.4056833935	-1.4612489968	-0.2354182022	 0.140102
H	-2.3163277607	-0.0102412833	 0.1737165565	 0.133641
H	-1.7868317305	 0.4258741198	-3.9896190916	 0.198997
H	 0.0025976222	-1.5057853774	 1.6091356625	 0.092385
H	 1.7009085075	 1.0104265627	 2.1765008007	 0.094342
H	 0.774175239	 0.0844081445	 3.3714499835	 0.113034
H	 2.8882273339	-0.9946991017	 1.8649113197	 0.294193
47.3957	68.4799	124.1251	145.3253	192.9873	229.5967	309.0413	338.5081	361.8962	392.8873	406.0759	432.4259	491.5141	620.9344	640.3434	647.2891	723.5467	822.8273	879.2616	922.1225	928.164	980.8457	1030.5088	1056.7797	1106.8854	1115.5759	1125.8819	1208.8664	1222.969	1264.6044	1316.7062	1349.8183	1381.3978	1416.0393	1422.5955	1453.9101	1466.9354	1491.5728	1494.8388	1513.4008	2239.524	3019.7177	3020.703	3046.5376	3069.4742	3071.6348	3089.1193	3111.2284	3149.5388	3505.7079	3800.1323
CC1(CC#C)OC1CO	C[C@@]1(CC#C)O[C@H]1CO	
InChI=1S/C7H10O2/c1-3-4-7(2)6(5-8)9-7/h1,6,8H,4-5H2,2H3	InChI=1S/C7H10O2/c1-3-4-7(2)6(5-8)9-7/h1,6,8H,4-5H2,2H3/t6-,7-/m0/s1
