15
gdb 67175	3.0374	1.56816	1.50115	5.4521	64.77	-0.2243	0.0074	0.2317	923.6699	0.114214	-453.914292	-453.907222	-453.906278	-453.945509	28.157	
N	 0.1347527642	 1.4886936165	-0.0744568519	-0.624695
C	 0.0488561026	 0.0794808558	-0.0382984069	 0.245922
C	 0.0754594834	-0.8650375718	-1.2023886611	-0.088341
N	 1.2562435074	-1.6747797554	-1.1240628701	-0.315112
C	 1.7573758959	-1.7048540088	 0.1694419994	 0.444432
O	 2.7087316819	-2.3329843858	 0.5658765103	-0.375968
C	 0.7447086034	-0.8730852304	 0.9723565902	-0.082074
O	-0.4403317311	-1.7469138007	 0.9871001096	-0.291207
C	-0.9970572361	-1.0280279084	-0.0983020506	 0.020815
H	 0.0177286785	 1.8640096251	-1.0069293531	 0.239823
H	-0.5254843725	 1.9391907001	 0.5487105362	 0.243059
H	-0.2339678427	-0.5159544834	-2.1809738857	 0.107225
H	 1.4275161648	-2.4570858726	-1.7371895	 0.255846
H	 1.0448018825	-0.5499771474	 1.966282677	 0.105711
H	-2.0671647122	-1.0842689229	-0.2632834534	 0.114565
146.6326	191.5845	261.4271	325.3413	365.3367	461.6801	472.8205	558.6407	595.3643	655.911	719.1349	751.4575	765.9863	812.7774	864.25	885.4799	904.6363	936.5717	978.8845	1034.2789	1049.5699	1085.8789	1112.564	1187.4371	1220.6206	1222.9495	1277.3545	1300.848	1333.5099	1383.2726	1487.003	1653.4665	1843.4195	3158.1886	3179.6388	3188.4588	3522.3377	3610.9022	3628.7035
NC12C3NC(=O)C1OC23	N[C@@]12[C@H]3NC(=O)[C@@H]1O[C@@H]23	
InChI=1S/C5H6N2O2/c6-5-1-2(5)9-3(5)4(8)7-1/h1-3H,6H2,(H,7,8)	InChI=1S/C5H6N2O2/c6-5-1-2(5)9-3(5)4(8)7-1/h1-3H,6H2,(H,7,8)/t1-,2+,3-,5+/m0/s1
