17
gdb 38483	3.39455	1.72129	1.59398	1.2735	69.64	-0.2249	0.054	0.2789	885.0257	0.137448	-421.751609	-421.745153	-421.744208	-421.782033	27.021	
C	-0.0216719188	 1.4840644647	-0.0536902124	-0.367923
C	 1.2629035624	 0.7384443455	 0.0375634061	 0.380482
C	 2.0552317251	 0.4699635472	 1.3063431686	-0.339207
C	 1.1150150419	-0.4064000686	 2.1478700242	 0.047717
O	-0.1315859362	 0.2275196518	 2.4697156649	-0.250366
C	-0.1271689336	-0.7082391749	 1.3875496798	-0.050255
C	-0.0481143142	-0.0348974274	 0.0445677456	 0.116908
C	 0.49650324	-0.6575580595	-1.2425550312	-0.143323
O	 1.6753641694	 0.1990801406	-1.230617497	-0.320895
H	-0.3426838621	 1.9977869512	 0.8434786476	 0.145006
H	-0.2896391011	 1.9525120445	-0.9959054085	 0.118382
H	 2.9613089586	-0.0876550966	 1.0507713742	 0.126424
H	 2.3525783275	 1.3719660304	 1.8497062367	 0.122673
H	 1.5158052761	-1.0397416251	 2.937313376	 0.098213
H	-0.7147940072	-1.6096964052	 1.5442279308	 0.098255
H	 0.7801556893	-1.7112597356	-1.1337511109	 0.10827
H	-0.095197987	-0.530417483	-2.1565207445	 0.109642
213.2878	234.8484	317.2636	392.3413	405.0615	467.0249	553.0058	659.5335	692.6248	765.0549	799.4952	832.9784	846.458	867.5744	917.269	935.6937	945.3802	950.45	980.2941	1004.7198	1056.8228	1082.9343	1093.2624	1144.1691	1154.3156	1190.764	1224.3972	1243.1525	1267.0127	1291.7873	1321.8919	1357.9871	1374.8669	1403.9908	1460.5865	1472.1893	1515.1827	3019.0494	3058.5507	3067.9973	3105.8404	3128.9647	3131.7355	3143.6463	3241.4456
C1C23CC4OC4C12CO3	C1[C@@]23C[C@H]4O[C@H]4[C@@]12CO3	
InChI=1S/C7H8O2/c1-4-5(9-4)6-2-7(1,6)8-3-6/h4-5H,1-3H2	InChI=1S/C7H8O2/c1-4-5(9-4)6-2-7(1,6)8-3-6/h4-5H,1-3H2/t4-,5-,6+,7+/m1/s1
