21
gdb 121535	5.41756	0.45506	0.43714	0.9824	86.23	-0.2522	0.0399	0.2922	2529.0867	0.179104	-424.186894	-424.175404	-424.17446	-424.226311	39.021	
C	 0.0528170333	 1.3764289644	-0.1497785024	-0.229789
O	 0.0117449387	-0.0147454038	 0.0613659979	-0.227282
C	-1.2946585642	-0.5389032505	 0.0145983072	-0.042335
C	-1.19524368	-2.0492040252	 0.2551276842	-0.354103
C	-2.4959681344	-2.7055304167	 0.2268798708	-0.010678
C	-3.5885640205	-3.2129523239	 0.1903686296	 0.106561
C	-4.8988988781	-3.8722329595	 0.1910434853	-0.017305
C	-4.7865803717	-5.350658048	-0.2091118584	-0.382534
O	-5.5693488425	-3.7193670745	 1.4416249798	-0.414866
H	 1.0994489563	 1.6850369087	-0.093544925	 0.128389
H	-0.3466878434	 1.6516536759	-1.1387407934	 0.105677
H	-0.5210553371	 1.9231794131	 0.6150936254	 0.106036
H	-1.9342540629	-0.0753869218	 0.7830628079	 0.098757
H	-1.7640470372	-0.3425404774	-0.963087263	 0.097037
H	-0.5330165207	-2.4802974732	-0.5054249575	 0.138796
H	-0.7040265133	-2.2159768181	 1.2214677113	 0.137676
H	-5.552403898	-3.3642420287	-0.5288492687	 0.115402
H	-4.1365779695	-5.887327981	 0.4895827521	 0.11586
H	-5.7787853161	-5.8091327424	-0.1903202379	 0.123907
H	-4.3629960918	-5.4518775142	-1.2126000895	 0.123706
H	-4.958870877	-4.0075350932	 2.1293224741	 0.281087
9.9616	61.5676	69.3099	102.4126	136.8312	160.9686	233.4384	251.4044	254.9738	274.8723	343.5218	382.1785	417.7764	493.1794	549.0209	575.3909	740.7856	794.2386	897.9037	990.6877	1015.8957	1053.0491	1068.608	1085.1383	1096.6608	1162.8978	1177.6115	1182.1264	1227.42	1232.4911	1280.7374	1299.4804	1313.5889	1340.4551	1398.4195	1416.5795	1419.7475	1474.6123	1482.3667	1486.2341	1488.1277	1491.6638	1504.8332	1531.8329	2360.4786	2963.2777	2975.6204	2997.3819	3015.7208	3031.686	3034.9785	3039.5397	3067.9293	3114.0313	3115.0878	3126.3359	3804.2964
COCCC#CC(C)O	COCCC#C[C@@H](C)O	
InChI=1S/C7H12O2/c1-7(8)5-3-4-6-9-2/h7-8H,4,6H2,1-2H3	InChI=1S/C7H12O2/c1-7(8)5-3-4-6-9-2/h7-8H,4,6H2,1-2H3/t7-/m1/s1
