16
gdb 123883	5.19156	1.10694	0.93842	2.161	71.75	-0.2217	-0.0093	0.2124	1203.7829	0.126668	-434.04731	-434.039925	-434.038981	-434.079993	26.679	
C	-0.1666107116	 1.5272494229	 0.0471887653	-0.23925
C	 1.3691082897	 1.5561537187	-0.1850153499	-0.165328
N	 1.4212069602	 0.1524230224	 0.2494251801	-0.151143
C	-0.0423374	-0.0089501638	 0.2541773936	-0.164404
C	 2.3219838725	-0.7702163737	-0.1664573905	 0.450777
N	 3.503484711	-0.4601239673	-0.6648564904	-0.241992
O	 4.078602411	-1.7329413506	-0.8998592129	-0.159388
C	 3.1694597712	-2.6248022963	-0.5275843716	 0.121092
N	 2.0666834663	-2.1284929362	-0.0682230284	-0.333676
H	-0.4842288773	 2.0646059897	 0.9415681109	 0.120251
H	-0.7796009739	 1.8421433821	-0.7969111186	 0.118064
H	 1.6712293729	 1.6890387124	-1.2310780629	 0.121148
H	 1.9542867738	 2.2380079898	 0.4385581291	 0.122391
H	-0.4422498706	-0.4177452162	 1.1860792185	 0.122089
H	-0.4142343777	-0.6100626108	-0.5834734942	 0.118047
H	 3.4281826726	-3.6681780631	-0.639706398	 0.161323
85.9767	96.5071	159.9202	164.0935	336.4306	450.9012	507.8762	604.9281	751.8225	777.2004	842.8996	873.7056	903.9891	907.3069	939.7439	942.9927	975.496	994.0842	1116.7635	1141.9917	1143.365	1166.4998	1170.8624	1203.5448	1228.6611	1269.5512	1296.2959	1314.9519	1347.8593	1399.7861	1491.5627	1511.3065	1534.226	1576.1853	1634.1023	3028.5886	3036.7826	3082.0911	3086.7254	3095.0962	3149.5424	3258.7547
C1CN(C1)C1=NOC=N1	C1CN(C1)c1nocn1	
InChI=1S/C5H7N3O/c1-2-8(3-1)5-6-4-9-7-5/h4H,1-3H2	InChI=1S/C5H7N3O/c1-2-8(3-1)5-6-4-9-7-5/h4H,1-3H2
