23
gdb 63938	2.31535	1.53431	1.37364	1.2209	84.99	-0.2458	0.0709	0.3168	1119.6516	0.204524	-388.274197	-388.264792	-388.263847	-388.307525	37.483	
C	 0.0725728509	 1.5541539485	-0.0849910619	-0.457439
C	 0.0508737117	 0.0346845882	 0.0043865417	 0.359005
O	-1.2940423649	-0.4355949392	-0.091655698	-0.47969
C	 0.985434874	-0.7912252601	-0.9368802028	-0.292985
C	 1.4011631681	-1.7021327304	 0.2540859202	-0.051916
C	 2.7698628381	-1.351736894	 0.8715029048	-0.219847
C	 2.1038377279	-0.1764830366	 1.64573633	-0.293901
C	 0.68372629	-0.6931372869	 1.2319917991	 0.345689
C	-0.2202078404	-1.1041167512	 2.3745904803	-0.492747
H	 1.0844157675	 1.96205413	-0.0170750468	 0.116059
H	-0.3444471146	 1.8825776328	-1.0458784343	 0.102124
H	-0.5360848602	 1.9932809851	 0.7118363703	 0.123381
H	-1.6347759527	-0.1630549044	-0.9506040855	 0.272124
H	 0.4444835324	-1.2912300489	-1.7441545754	 0.091379
H	 1.8160508782	-0.2245928019	-1.3701637322	 0.089265
H	 1.1164012113	-2.7520926185	 0.1738519294	 0.06081
H	 3.1371348129	-2.1312439851	 1.5448360424	 0.097769
H	 3.5734528898	-1.0987667501	 0.1728262809	 0.090012
H	 2.2729125736	-0.1820516943	 2.7253793778	 0.099114
H	 2.3629408457	 0.8184175009	 1.2763045008	 0.094864
H	-0.5255992786	-0.2322912342	 2.9669229576	 0.109009
H	-1.1241194767	-1.5955098281	 2.0102092485	 0.134686
H	 0.3032324959	-1.7905624716	 3.0502732432	 0.103235
75.7107	194.9528	204.6709	218.1021	255.2913	290.4736	316.7838	346.9484	361.0806	388.5096	438.9837	467.4247	597.8572	631.3699	733.1483	752.8523	812.2543	855.892	865.1608	900.1072	922.4708	948.6952	955.9709	983.1131	1012.7095	1041.9852	1081.972	1134.4203	1143.9949	1169.5788	1187.9938	1202.126	1213.5653	1235.6076	1258.301	1269.7195	1282.5288	1295.8989	1313.3228	1377.1248	1402.3666	1408.1229	1467.4814	1475.9786	1485.2766	1489.4691	1493.4197	1498.6048	1502.1855	3021.1607	3022.9386	3044.5292	3045.8672	3063.3689	3076.0451	3086.5857	3087.9875	3093.9072	3106.9447	3113.018	3121.7273	3130.9921	3799.0807
CC1(O)CC2CCC12C	C[C@@]1(O)C[C@H]2CC[C@@]12C	
InChI=1S/C8H14O/c1-7-4-3-6(7)5-8(7,2)9/h6,9H,3-5H2,1-2H3	InChI=1S/C8H14O/c1-7-4-3-6(7)5-8(7,2)9/h6,9H,3-5H2,1-2H3/t6-,7-,8-/m1/s1
