18
gdb 51705	3.11948	1.08804	0.84999	5.3272	73.27	-0.2368	-0.0385	0.1982	1325.251	0.147961	-439.149272	-439.140723	-439.139778	-439.183182	31.229	
O	-0.7343393765	 0.8875051715	-1.0348111899	-0.242366
C	-0.0489408193	 1.0794408098	-0.0603674571	 0.154818
C	 1.1313585969	 2.0226535823	-0.0157838937	-0.305707
C	 1.2955565736	 2.8880663344	-1.2646332924	 0.053696
C	 2.5417796862	 3.8063027046	-1.2237369625	-0.23872
C	 2.9699763016	 3.9261765865	-2.6938324599	-0.337504
C	 2.3989717039	 2.6704895262	-3.3645714035	 0.407809
O	 2.6395006953	 2.2609233363	-4.4775517697	-0.375367
N	 1.5360544125	 2.0995885813	-2.4619505805	-0.309715
H	-0.2522496883	 0.5399819437	 0.8913154604	 0.09246
H	 1.0304213929	 2.6508127432	 0.8805262655	 0.127697
H	 2.030111632	 1.4098605754	 0.1509333601	 0.137146
H	 0.3833254118	 3.4935343728	-1.3799059803	 0.089676
H	 2.3242765174	 4.7643498609	-0.7466860249	 0.109955
H	 3.3306863686	 3.3177711561	-0.6416076012	 0.109615
H	 2.5194604667	 4.7959894931	-3.1855032025	 0.131455
H	 4.0485411418	 3.990715927	-2.8461176659	 0.131179
H	 0.8682292929	 1.4033383049	-2.7575493018	 0.263872
78.2523	99.7013	136.604	151.8744	195.7846	293.6916	419.0047	484.6441	534.5606	580.6875	607.8892	658.7815	717.3929	770.2045	825.8973	868.708	910.4314	939.8678	984.4607	997.3749	1054.4634	1101.8225	1127.7674	1175.0377	1218.8975	1239.5418	1262.6934	1291.6014	1313.0261	1337.5401	1364.4643	1404.6281	1419.8033	1428.1399	1437.348	1470.1996	1498.2084	1820.4937	1834.6305	2888.4465	2979.3218	3010.8015	3047.5976	3049.6007	3054.3283	3106.5667	3123.3713	3631.434
O=CCC1CCC(=O)N1	O=CC[C@H]1CCC(=O)N1	
InChI=1S/C6H9NO2/c8-4-3-5-1-2-6(9)7-5/h4-5H,1-3H2,(H,7,9)	InChI=1S/C6H9NO2/c8-4-3-5-1-2-6(9)7-5/h4-5H,1-3H2,(H,7,9)/t5-/m1/s1
