19
gdb 64063	2.50252	1.51969	1.19665	5.4385	78.24	-0.2374	-0.0514	0.186	1111.3996	0.15921	-419.244819	-419.235699	-419.234755	-419.278407	34.338	
C	-0.1833183011	 1.6087333673	-0.004891131	-0.4337
C	 0.0532914732	 0.0977509867	-0.0295729593	 0.173802
C	-1.2853547298	-0.6703836465	 0.030898492	-0.422343
C	 0.9058255758	-0.3817451335	-1.2278712497	-0.21902
N	 1.7197163324	-1.4606488687	-0.6701323817	-0.338854
C	 1.8959897125	-1.3914480163	 0.6935488276	 0.270255
N	 2.6763589529	-2.0181511252	 1.4818596838	-0.518062
C	 0.8880308299	-0.3567908491	 1.1790735676	 0.35763
O	 0.7626444687	 0.0312897454	 2.3082013875	-0.304623
H	 0.7587873192	 2.162778826	-0.0636839585	 0.120233
H	-0.8151858466	 1.9191258937	-0.8435979133	 0.113878
H	-0.6787362053	 1.8912473841	 0.9275954148	 0.14289
H	-1.9247573594	-0.3790434179	-0.8089436089	 0.118766
H	-1.1277047326	-1.7523275917	-0.018188407	 0.130368
H	-1.8108766163	-0.4434686676	 0.9625185384	 0.139703
H	 0.2884567157	-0.751785034	-2.0529043446	 0.112273
H	 1.5283592596	 0.4376466667	-1.6147851404	 0.107507
H	 2.3922208079	-1.9416927361	-1.2464612786	 0.244619
H	 3.2873201132	-2.6626840035	 0.9737657912	 0.204676
63.723	139.6735	201.5918	208.015	251.0122	289.316	329.6064	336.6512	351.2989	443.4647	486.2639	551.1199	571.4777	673.0044	716.9949	808.233	856.1763	866.9811	942.2503	960.6247	978.7185	1019.4584	1039.1519	1060.4067	1135.8514	1180.0011	1206.0896	1239.7953	1261.653	1328.6933	1381.7476	1395.2203	1413.4327	1442.9808	1482.1506	1487.4084	1500.9975	1508.6717	1531.9328	1738.8143	1857.9252	2996.9181	3033.368	3037.4503	3062.6152	3103.0863	3105.8634	3119.6036	3124.0528	3436.201	3627.5333
CC1(C)CNC(=N)C1=O	CC1(C)CN[C]([NH])C1=O	
InChI=1S/C6H10N2O/c1-6(2)3-8-5(7)4(6)9/h3H2,1-2H3,(H2,7,8)	InChI=1S/C6H10N2O/c1-6(2)3-8-5(7)4(6)9/h3H2,1-2H3,(H2,7,8)
