22
gdb 58933	3.33153	1.36147	1.1268	1.5578	85.07	-0.2359	0.0855	0.3215	1176.2212	0.195046	-367.165464	-367.156963	-367.156019	-367.198545	33.636	
C	-0.1156546314	 1.5435930151	 0.3796812348	-0.391013
C	-0.0483501252	 0.0571523974	-0.0105687755	-0.090791
C	 0.8328265742	-0.7175199495	 0.9819875491	-0.403036
C	-1.4358391107	-0.5341894776	-0.1373213462	 0.362139
C	-2.6118574938	 0.0608842076	-0.9048918276	-0.299228
C	-3.4688514201	-0.8150521243	 0.0232497028	-0.00319
C	-3.1683452224	-2.2722733071	-0.3698756316	-0.245305
C	-1.7859983288	-1.9610408385	 0.172545268	-0.089415
N	-2.2988683584	-0.8551425723	 1.0617431268	-0.199059
H	 0.8909822394	 1.966162455	 0.4570401797	 0.10786
H	-0.66635009	 2.1354410696	-0.3573709885	 0.110875
H	-0.6115561524	 1.662319467	 1.3486503754	 0.130882
H	 0.4169581049	-0.0114335042	-1.005476255	 0.075643
H	 0.348497202	-0.7766794954	 1.9622016815	 0.138393
H	 1.0391337521	-1.735373583	 0.6391580017	 0.111812
H	 1.7947263078	-0.2118597695	 1.1097105292	 0.108879
H	-2.7336868116	 1.12164196	-0.6745102379	 0.108811
H	-2.6867539404	-0.0935084248	-1.9873408139	 0.090339
H	-4.4594264277	-0.5018768191	 0.3475200806	 0.080306
H	-3.6884538921	-2.9807910152	 0.2801728086	 0.110377
H	-3.291173929	-2.5676502078	-1.4175826094	 0.09317
H	-1.0512998265	-2.6679469236	 0.5378400575	 0.09155
50.4877	167.9686	193.7624	244.4817	260.5899	334.3484	381.802	408.7434	428.5529	517.8729	603.2968	739.4966	757.7039	802.6516	838.2525	861.0959	908.907	926.9432	936.9287	944.4355	968.8679	999.5699	1018.0928	1028.5272	1059.3454	1106.4811	1116.427	1131.0757	1145.4387	1171.4704	1197.7731	1229.2697	1231.6663	1273.4472	1275.136	1316.0178	1343.9564	1363.2441	1395.6991	1406.7111	1419.3513	1488.0884	1492.1125	1493.4319	1504.1564	1506.648	1517.3966	2991.4528	3033.8121	3035.1539	3038.6721	3040.4632	3101.0848	3102.2471	3105.7653	3108.3927	3111.1504	3113.0792	3134.8492	3191.2462
CC(C)C12CC3CC1N23	CC(C)[C@@]12C[C@H]3C[C@@H]1N23	
InChI=1S/C8H13N/c1-5(2)8-4-6-3-7(8)9(6)8/h5-7H,3-4H2,1-2H3	InChI=1S/C8H13N/c1-5(2)8-4-6-3-7(8)9(6)8/h5-7H,3-4H2,1-2H3/t6-,7+,8+,9?/m1/s1
