21
gdb 38871	2.65378	2.07292	1.88508	1.3935	79.12	-0.2339	0.0853	0.3192	883.2627	0.188923	-387.109697	-387.103695	-387.10275	-387.139537	27.391	
C	 0.0024651648	 1.5959132418	 0.0376940518	-0.215725
C	 1.5312728538	 1.7808200094	-0.0319805744	-0.051408
C	 1.7932101174	 1.0099938054	-1.347046432	-0.210983
C	 1.3340497418	-0.3110412579	-0.7092499283	 0.093876
O	 2.3393536746	-0.4431950783	 0.3023903731	-0.276508
C	 2.1610879269	 0.7929743149	 1.0333355577	 0.093539
C	 1.1899937881	 0.4221352332	 2.1639756553	-0.216747
C	 0.0555820222	-0.4063555554	 1.4922396944	-0.192766
C	-0.0290333116	 0.0409430551	 0.0168093493	-0.042169
H	-0.4710875553	 2.0070325971	 0.9325327794	 0.091584
H	-0.4827179625	 2.0516599273	-0.8302486602	 0.089516
H	 1.9007912816	 2.8047552949	 0.0352891455	 0.060405
H	 1.1823655285	 1.3789588942	-2.1749818644	 0.089205
H	 2.8388208723	 0.9487391604	-1.6538783946	 0.099962
H	 1.3267765456	-1.2159631748	-1.3173647875	 0.068663
H	 3.1368668575	 1.1286869373	 1.3924164858	 0.070954
H	 1.713850614	-0.1751687269	 2.9154099193	 0.100209
H	 0.8074144587	 1.3136166031	 2.6723395796	 0.093217
H	 0.2789276514	-1.4741642708	 1.5592767104	 0.105229
H	-0.9040423603	-0.2400764915	 1.9920593365	 0.088863
H	-0.8944552594	-0.3847686787	-0.4950535368	 0.061083
302.2915	319.5913	389.3487	485.3713	511.7786	537.9915	620.5562	645.9956	763.0986	768.0429	813.4459	835.132	881.749	890.3746	896.0876	913.2695	939.0082	949.1618	965.6778	988.6565	1011.3439	1032.5821	1051.4737	1054.1456	1091.7006	1105.2532	1139.8754	1177.0684	1188.5451	1214.8349	1234.458	1268.6487	1277.8992	1296.1984	1305.6115	1311.0334	1321.7415	1328.6036	1350.7154	1361.2235	1368.7363	1483.9467	1488.2174	1499.8524	1528.7241	3042.9209	3052.3043	3055.581	3066.6596	3075.9736	3084.5255	3085.7344	3096.9689	3104.5292	3108.6908	3119.1127	3125.6802
C1C2CC3OC2CCC13	C1[C@@H]2C[C@H]3O[C@@H]2CC[C@@H]13	
InChI=1S/C8H12O/c1-2-7-6-3-5(1)8(4-6)9-7/h5-8H,1-4H2	InChI=1S/C8H12O/c1-2-7-6-3-5(1)8(4-6)9-7/h5-8H,1-4H2/t5-,6+,7+,8+/m0/s1
