22
gdb 119470	4.13654	0.87569	0.80573	0.8698	83.79	-0.2463	0.0827	0.3289	1535.4802	0.193438	-404.299691	-404.290031	-404.289087	-404.334577	35.565	
C	-0.3824094542	 1.4085030284	-0.4602444035	-0.218935
O	-0.5400961318	 0.0248915847	-0.6578444416	-0.23777
C	-0.9691689643	-0.6499365188	 0.5082453551	-0.168369
C	-1.0388275764	-2.1152019925	 0.2149506963	 0.344146
C	 0.058767791	-2.9583783155	-0.4521308988	-0.324536
C	-1.0625733195	-3.801826971	-1.1587029678	 0.026323
C	-1.0897404104	-5.3137403957	-0.9712057217	-0.406675
C	-2.1148872117	-2.9462496959	-0.4261560345	-0.096869
N	-1.9238988544	-2.9446199079	 1.0227281333	-0.37486
H	-0.0462712098	 1.8390501284	-1.4067857251	 0.125262
H	-1.3283659488	 1.890966808	-0.1667026154	 0.104092
H	 0.3671884653	 1.628900658	 0.3169007792	 0.10254
H	-0.2642186932	-0.4592896408	 1.3381354501	 0.083358
H	-1.9590699221	-0.2952791383	 0.8361319996	 0.099372
H	 0.6657394327	-2.3894875401	-1.1579902975	 0.120889
H	 0.7201380075	-3.4959488749	 0.2376429414	 0.085752
H	-1.075756167	-3.5626970611	-2.2266966771	 0.082327
H	-1.1073836183	-5.5937210483	 0.0885435388	 0.107094
H	-1.9732731953	-5.7556511601	-1.4447344715	 0.118085
H	-0.2032628009	-5.7796863106	-1.4149637026	 0.117694
H	-3.0899630417	-2.6581231889	-0.8044983457	 0.088713
H	-1.4687774868	-3.7866107573	 1.3707757789	 0.222367
70.6335	85.5887	101.1636	186.9763	219.1858	226.4317	250.2707	322.6798	373.3149	410.7299	468.9611	548.9971	655.8712	730.9559	808.9634	844.4689	878.606	929.9288	956.1795	986.0304	997.0699	1032.6099	1066.4994	1079.1936	1104.98	1133.9668	1156.9118	1175.0128	1181.0959	1193.0381	1219.9812	1231.2477	1234.1044	1261.9706	1284.048	1321.1872	1361.7072	1387.9291	1411.4319	1467.0345	1482.9705	1485.3046	1489.8877	1493.5029	1498.0069	1502.5292	1521.3202	2937.3681	2968.0034	2995.6981	3010.6465	3023.6287	3035.5075	3053.9514	3088.6818	3095.5768	3111.8411	3123.2016	3168.8529	3466.0014
COCC12CC(C)C1N2	COC[C@]12C[C@@H](C)[C@H]1N2	
InChI=1S/C7H13NO/c1-5-3-7(4-9-2)6(5)8-7/h5-6,8H,3-4H2,1-2H3	InChI=1S/C7H13NO/c1-5-3-7(4-9-2)6(5)8-7/h5-6,8H,3-4H2,1-2H3/t5-,6-,7-/m1/s1
