13
gdb 21803	6.22659	1.1903	1.08071	2.0675	60.32	-0.2612	-0.0419	0.2193	1028.9046	0.09511	-398.601246	-398.594224	-398.59328	-398.634116	24.209	
O	-0.4123400767	 1.1281945484	 1.0782832516	-0.228513
C	 0.0423391923	 1.2515466991	-0.0270107262	 0.156071
C	 1.4701567527	 1.6980169145	-0.3234122949	-0.378585
C	 1.4938316173	 2.8555905112	-1.2750179631	 0.358871
N	 1.8223134123	 2.6676810227	-2.5331770773	-0.191043
O	 1.7123497499	 3.9112500659	-3.143657512	-0.158188
C	 1.3179027392	 4.8095362185	-2.230746752	 0.090998
C	 1.1553014065	 4.218164671	-1.0215530744	-0.326876
H	-0.5620571354	 1.0388180073	-0.9364655571	 0.095924
H	 1.9608064553	 1.9402019815	 0.6225142866	 0.136984
H	 1.9920592002	 0.8553864763	-0.7925844271	 0.152818
H	 1.1988513108	 5.8209498566	-2.5874000551	 0.15768
H	 0.8484380757	 4.668347237	-0.0922996989	 0.133858
40.5848	57.9477	161.7215	320.5698	365.6736	458.3601	617.7734	665.8272	725.9823	803.8013	831.6902	877.4259	912.5508	949.9617	993.6735	1029.2335	1056.2292	1086.3667	1157.3353	1195.6891	1276.4166	1311.0245	1417.997	1447.1843	1456.4178	1480.2321	1604.2484	1838.1975	2893.0092	3047.4646	3116.6043	3263.4812	3287.8241
O=CCC1=NOC=C1	O=CCc1nocc1	
InChI=1S/C5H5NO2/c7-3-1-5-2-4-8-6-5/h2-4H,1H2	InChI=1S/C5H5NO2/c7-3-1-5-2-4-8-6-5/h2-4H,1H2
