18
gdb 92398	2.26166	1.76237	1.22223	1.8778	79.04	-0.2159	0.0191	0.235	1065.1482	0.146027	-401.85674	-401.848197	-401.847253	-401.889673	32.425	
C	-0.1303243521	 1.55383783	-0.0112399761	-0.331633
N	 0.0234593744	 0.1186616826	 0.0857944799	-0.119148
C	-1.1916545492	-0.702597268	 0.2913061974	-0.191208
C	-0.4440095488	-1.5531702904	 1.329588752	 0.044192
O	 0.4185499134	-2.5561822928	 0.7753948276	-0.293921
C	 1.5756081047	-1.6879323731	 0.832434774	-0.102361
C	 0.7010754784	-0.4888680308	 1.2728299666	 0.151085
C	 1.1267831511	 0.3657607575	 2.3461913468	 0.229523
C	 1.4915163825	 1.0894779109	 3.2356683776	-0.450103
H	 0.8519680367	 2.0327362077	-0.0579421069	 0.12856
H	-0.66334247	 1.7868210514	-0.9390598933	 0.122897
H	-0.6897627669	 2.0023311718	 0.8286627161	 0.100477
H	-2.0203983698	-0.1430337214	 0.7548220521	 0.09315
H	-1.5537237442	-1.2208090492	-0.602291845	 0.112323
H	-0.9663308992	-1.8829615164	 2.2289860286	 0.092847
H	 2.2917028708	-2.02820058	 1.5899929375	 0.105621
H	 2.0614483745	-1.5668012576	-0.1400574365	 0.11211
H	 1.8124989536	 1.7221648578	 4.0261949115	 0.195591
100.8801	137.017	163.8834	203.9663	262.223	301.0666	369.0691	397.6408	486.9888	520.3303	594.5981	624.8181	656.1388	658.6852	779.1359	845.4332	907.4127	963.5381	985.3013	1007.9664	1053.5223	1071.3031	1086.7115	1138.5162	1151.4376	1171.5648	1177.5467	1206.6697	1251.0839	1268.4366	1319.3904	1326.6761	1361.0188	1449.4791	1481.2138	1499.0106	1499.7771	1500.7832	2228.1105	2949.6229	2972.9761	3024.6924	3063.7157	3073.6596	3096.6633	3100.9735	3108.7658	3499.1626
CN1CC2OCC12C#C	CN1C[C@H]2OC[C@@]12C#C	
InChI=1S/C7H9NO/c1-3-7-5-9-6(7)4-8(7)2/h1,6H,4-5H2,2H3	InChI=1S/C7H9NO/c1-3-7-5-9-6(7)4-8(7)2/h1,6H,4-5H2,2H3/t6-,7-/m1/s1
