21
gdb 52672	2.6755	0.91999	0.83419	2.0382	87.04	-0.2443	0.0549	0.2992	1526.3141	0.178908	-387.056868	-387.04591	-387.044966	-387.097438	38.416	
C	-0.2918268097	 1.5385794794	-0.0723349326	-0.498005
C	-0.1437592831	 0.0896957276	-0.0671573671	 0.043566
C	-0.0172774438	-1.1082534449	-0.0525998254	 0.088621
C	 0.1241304614	-2.5648324085	-0.0468557417	-0.220458
C	-1.2259368366	-3.274032478	 0.1883857698	-0.401423
C	 0.8117505565	-3.0645166679	-1.326117165	 0.436717
C	 0.106178811	-2.8168840857	-2.6402776044	-0.468016
C	 2.2682157249	-3.2507505998	-1.3002122476	-0.228731
O	 1.3841338187	-4.3717862193	-1.1788777593	-0.284264
H	 0.513779942	 2.0199898417	-0.6378326258	 0.147095
H	-1.2416906889	 1.8417566973	-0.5265640237	 0.147251
H	-0.2682970447	 1.9439408845	 0.9453421263	 0.148451
H	 0.7889051058	-2.8478146455	 0.7794962401	 0.104263
H	-1.0833064444	-4.3580388078	 0.1631261541	 0.131772
H	-1.6341789695	-2.9959695972	 1.1632012356	 0.122484
H	-1.9599537755	-2.9956933877	-0.572295216	 0.123973
H	-0.070301932	-1.7469968642	-2.7835216852	 0.13422
H	 0.7086812238	-3.1919205366	-3.4708589296	 0.123412
H	-0.861251659	-3.3278428095	-2.6682922034	 0.127501
H	 2.8354107566	-3.2037284396	-2.2289698739	 0.110261
H	 2.8317976965	-2.9998347783	-0.4023213051	 0.111311
0.7752	50.6978	85.885	137.3398	184.5014	219.8173	253.677	265.2201	283.1213	358.5529	372.7321	382.8499	462.3008	498.021	555.7709	716.1839	759.4734	833.6243	898.3519	924.177	987.9504	1016.815	1052.6477	1054.2087	1070.4988	1086.9974	1115.8878	1134.7698	1163.8388	1175.2248	1279.9772	1295.2712	1329.4475	1399.0317	1400.6956	1415.4123	1425.6988	1478.7305	1479.3153	1480.8711	1493.001	1497.151	1505.7029	1532.6177	2367.5934	3020.2081	3026.2495	3044.9451	3048.0584	3079.4222	3086.3788	3086.7647	3112.5775	3124.5133	3126.1904	3128.8148	3164.9676
CC#CC(C)C1(C)CO1	CC#C[C@@H](C)[C@@]1(C)CO1	
InChI=1S/C8H12O/c1-4-5-7(2)8(3)6-9-8/h7H,6H2,1-3H3	InChI=1S/C8H12O/c1-4-5-7(2)8(3)6-9-8/h7H,6H2,1-3H3/t7-,8-/m1/s1
