21
gdb 115221	3.84964	0.95358	0.81665	3.1416	79.39	-0.237	-0.0136	0.2234	1428.405	0.182739	-424.25701	-424.247865	-424.24692	-424.291348	33.947	
C	 0.0776921338	 1.3792180403	-0.0990906345	-0.243071
O	 0.0022109971	-0.0103063825	 0.1221007582	-0.246365
C	-1.3054141064	-0.5532546417	 0.075369998	 0.146848
C	-1.8315259572	-0.700765784	-1.3617153187	-0.229359
C	-3.2181754159	-1.3708834576	-1.3883312176	-0.304839
C	-3.2276859759	-2.6894153293	-0.6235355828	 0.39721
O	-3.6917382009	-3.7062742781	-1.0828407879	-0.30569
C	-2.6142392282	-2.6190611304	 0.7699026913	-0.309698
C	-1.2443819595	-1.9171565988	 0.7653234378	-0.222675
H	 1.1166456003	 1.6739952562	 0.0680320681	 0.129756
H	-0.202155734	 1.6642258914	-1.1237229239	 0.108158
H	-0.5646641065	 1.9366472166	 0.6009436528	 0.10363
H	-1.992819968	 0.1043051508	 0.6394895981	 0.057999
H	-1.8876491394	 0.2736737932	-1.8568664914	 0.101678
H	-1.1115160744	-1.3053311533	-1.9268105915	 0.115037
H	-3.9501870574	-0.7063769137	-0.9062757926	 0.116018
H	-3.5632408644	-1.5551396818	-2.4081409615	 0.121551
H	-3.3102408416	-2.0507496592	 1.4042411033	 0.116305
H	-2.551896384	-3.631070493	 1.1759324189	 0.122124
H	-0.5083148237	-2.5347336429	 0.2364744037	 0.116305
H	-0.8757225939	-1.7912929122	 1.7875553324	 0.109079
66.3093	83.0635	164.8696	165.4314	195.3547	281.2103	351.1871	398.3864	423.0746	481.5485	489.3397	515.5141	687.7291	752.3364	758.1726	848.3921	915.9344	938.9062	956.4882	1016.2748	1033.7487	1066.4661	1110.5171	1125.63	1147.8188	1174.7855	1182.5138	1213.3694	1243.024	1261.7997	1268.3164	1310.3119	1334.0966	1346.9924	1350.6596	1382.3493	1405.4086	1462.0115	1471.5462	1479.258	1489.1172	1492.1613	1506.2743	1512.1282	1821.6948	2928.9298	2975.8463	3008.0516	3014.854	3024.0203	3035.9949	3041.8534	3081.9165	3090.0907	3107.8238	3109.6255	3112.6931
COC1CCC(=O)CC1	COC1CCC(=O)CC1	
InChI=1S/C7H12O2/c1-9-7-4-2-6(8)3-5-7/h7H,2-5H2,1H3	InChI=1S/C7H12O2/c1-9-7-4-2-6(8)3-5-7/h7H,2-5H2,1H3
