18
gdb 54593	2.71294	1.58167	1.20273	2.6482	71.62	-0.2352	0.0175	0.2527	1059.7781	0.148253	-439.090125	-439.081827	-439.080883	-439.123356	31.462	
N	 0.4313023377	 0.6393054821	-0.860017374	-0.534977
C	-0.0490083974	 0.1390483656	 0.306472481	 0.311384
O	 0.4520134869	 0.324717491	 1.4014606013	-0.378979
C	-1.2802567513	-0.7270110256	 0.1428992685	 0.369104
C	-2.3765213063	-0.655097368	 1.229833669	-0.269284
C	-2.4243923029	-2.2137723146	 1.285350867	-0.231791
C	-1.2818667749	-2.2893153666	 0.2380654284	-0.123089
C	-1.7418374785	-2.2309419976	-1.225931285	-0.091948
O	-1.8031727513	-0.7796386732	-1.2084055934	-0.348936
H	 1.2137409311	 1.2713445849	-0.8363682046	 0.260263
H	-0.0974746128	 0.5019103379	-1.7055271736	 0.271513
H	-1.99733428	-0.2004183097	 2.1461335337	 0.13553
H	-3.2842782898	-0.1424790841	 0.90555217	 0.108554
H	-2.149658198	-2.6218212949	 2.2596576405	 0.114624
H	-3.3629310875	-2.6773125015	 0.969460292	 0.101699
H	-0.3986247482	-2.87955396	 0.4750083535	 0.092843
H	-1.0044779032	-2.5844349081	-1.9569701765	 0.106556
H	-2.7167775635	-2.6788683177	-1.4518586379	 0.106934
63.4852	91.7142	172.2687	242.672	316.7504	346.0158	371.7637	420.6082	486.2554	629.396	640.4921	677.4551	729.773	759.1392	820.3748	875.1996	910.0359	946.1685	980.8341	995.2273	1033.505	1072.0611	1091.2946	1109.8558	1128.096	1156.1567	1189.8571	1195.0235	1236.5801	1266.3801	1282.1149	1315.6384	1350.2254	1386.2232	1457.5314	1485.7306	1519.7898	1589.7227	1791.4263	3016.5502	3062.059	3064.6761	3078.2883	3114.0592	3131.949	3145.6444	3593.6626	3735.8937
NC(=O)C12CCC1CO2	NC(=O)[C@]12CC[C@H]1CO2	
InChI=1S/C6H9NO2/c7-5(8)6-2-1-4(6)3-9-6/h4H,1-3H2,(H2,7,8)	InChI=1S/C6H9NO2/c7-5(8)6-2-1-4(6)3-9-6/h4H,1-3H2,(H2,7,8)/t4-,6-/m0/s1
