25
gdb 100151	3.53315	0.66639	0.6572	2.924	90.61	-0.2471	-0.0177	0.2295	1853.5301	0.225235	-389.51407	-389.502409	-389.501465	-389.551847	41.904	
C	 0.2079349138	 1.5266831887	-0.1199758663	-0.406213
C	-0.0536683404	 0.0162856034	-0.1003754709	-0.176567
C	-1.5304695978	-0.4455752206	 0.0334074367	 0.263806
C	-2.1354177759	 0.0795453853	 1.3481709972	-0.413003
C	-2.3602440088	 0.0618987524	-1.160348202	-0.411352
C	-1.4945251837	-1.9979095679	 0.0398338714	-0.202049
C	-2.8502969596	-2.7257045226	 0.114868972	-0.298332
C	-2.6527192033	-4.2160666678	 0.2687753614	 0.163695
O	-3.0794661287	-5.0547341288	-0.4821177511	-0.239218
H	 1.2804954701	 1.7193940203	-0.2230823203	 0.115178
H	-0.2918670862	 2.0213248306	-0.9581723335	 0.119114
H	-0.1216400132	 2.0149167227	 0.8020094427	 0.118233
H	 0.3575454172	-0.4225065771	-1.019139016	 0.092163
H	 0.5180067047	-0.4274434655	 0.7257876036	 0.090168
H	-2.1495056762	 1.1729407034	 1.3698094913	 0.117148
H	-3.1701895664	-0.2520717876	 1.478674111	 0.112095
H	-1.5602643016	-0.2644907643	 2.2155461991	 0.107751
H	-1.9573795106	-0.3092400386	-2.1096042706	 0.110576
H	-3.4032263298	-0.261403907	-1.0907646373	 0.11445
H	-2.3668262621	 1.1547450359	-1.2045742948	 0.114974
H	-0.9729551009	-2.3361987223	-0.8647690574	 0.10507
H	-0.8750838065	-2.3230538447	 0.887239743	 0.094243
H	-3.4106165137	-2.3833908203	 0.9957977048	 0.117304
H	-3.4644529504	-2.5527838048	-0.7719412073	 0.123341
H	-2.0493227398	-4.5048833628	 1.1629618533	 0.067426
44.7041	53.4925	78.4001	95.6111	156.4187	209.0535	249.1109	274.2835	287.6698	289.6584	329.5791	354.7446	399.768	411.5745	527.7281	535.8117	725.4547	765.9708	785.8822	839.5219	877.4652	940.2748	950.945	994.0012	1001.0025	1015.8049	1036.8564	1060.4651	1097.9649	1112.8067	1192.1625	1205.0068	1242.2743	1251.5343	1284.9235	1308.4846	1363.7474	1367.7239	1381.4097	1401.5031	1411.8058	1425.7624	1430.6972	1463.5478	1477.9243	1482.6008	1489.075	1491.5251	1507.4127	1508.6273	1513.3119	1517.3275	1835.7428	2842.821	3003.9176	3010.5895	3022.4466	3029.0605	3034.6921	3039.99	3041.5468	3049.8289	3095.516	3098.8493	3101.662	3102.2438	3110.1156	3112.9563	3114.4131
CCC(C)(C)CCC=O	CCC(C)(C)CCC=O	
InChI=1S/C8H16O/c1-4-8(2,3)6-5-7-9/h7H,4-6H2,1-3H3	InChI=1S/C8H16O/c1-4-8(2,3)6-5-7-9/h7H,4-6H2,1-3H3
