13
gdb 62422	2.46722	1.57423	1.36517	2.8311	64.94	-0.2391	-0.047	0.192	967.6543	0.085351	-456.479047	-456.470737	-456.469793	-456.511951	30.275	
O	-0.1482166638	 1.455682613	 0.1264157403	-0.447407
C	-0.0317847202	 0.0628056238	 0.041907791	 0.111417
C	 0.8818874115	-0.5127754738	 1.0197440604	 0.261936
C	 1.6603806111	-0.9750744231	 1.8112537646	-0.455321
C	-1.3892598494	-0.6664275448	-0.0130301811	 0.002993
O	-2.0451447843	-0.2327768829	-1.1887171019	-0.224982
C	-1.1019947628	-1.32131035	-1.3142649109	-0.093586
C	 0.2427563082	-0.6135167905	-1.3911361757	 0.356307
O	 1.1710780908	-0.6097098868	-2.1352194373	-0.288573
H	 0.7408483973	 1.8275702938	 0.146022772	 0.298279
H	 2.3457553392	-1.3834546691	 2.5131374301	 0.211369
H	-1.9802835998	-1.0332735818	 0.816472403	 0.133412
H	-1.454521308	-2.2552399477	-1.7331921744	 0.134156
102.7369	127.4323	171.1483	185.6174	252.1193	261.5144	386.6788	473.7358	512.3562	565.4407	634.4435	678.6699	687.84	714.5082	767.1213	834.2045	856.9816	931.4153	967.6316	1027.4462	1055.8781	1069.9959	1169.0993	1212.7884	1240.8009	1341.0452	1372.0102	1911.7984	2225.1676	3202.8934	3215.6578	3496.9088	3811.5499
OC1(C#C)C2OC2C1=O	O[C@@]1(C#C)[C@H]2O[C@H]2C1=O	
InChI=1S/C6H4O3/c1-2-6(8)4(7)3-5(6)9-3/h1,3,5,8H	InChI=1S/C6H4O3/c1-2-6(8)4(7)3-5(6)9-3/h1,3,5,8H/t3-,5-,6+/m0/s1
