16
gdb 67006	2.6928	2.05886	1.42025	2.5093	69.39	-0.243	0.0174	0.2604	906.045	0.125749	-437.867045	-437.860182	-437.859238	-437.897966	28.057	
O	 0.0946508282	 1.299741756	-0.1062046819	-0.482202
C	 0.0536899341	-0.074773734	-0.0413720889	 0.364665
C	-0.382524279	-0.8410713838	-1.2949253949	-0.124838
C	-0.0893137183	-2.3324401853	-1.1730652068	-0.251181
C	-0.5891674313	-2.2385924004	 0.2981748312	 0.055259
O	 0.5431439264	-1.9907469526	 1.171362246	-0.243479
C	 0.9830982867	-0.7316405179	 0.9169993516	 0.366744
N	 1.9619313439	-0.127229038	 1.4408273097	-0.594088
C	-1.2291615032	-0.8634660417	-0.022559547	-0.168413
H	 0.8605791326	 1.5497743862	 0.4338823068	 0.302446
H	-0.5496711987	-0.2644279298	-2.1960291452	 0.108457
H	-0.7796569661	-2.9199798401	-1.7846937867	 0.114401
H	 0.9334992389	-2.6968181652	-1.311572172	 0.110175
H	-1.1689567986	-3.0514912434	 0.7269511152	 0.101744
H	 2.4531411984	-0.699459424	 2.1263502726	 0.230461
H	-2.2121972038	-0.4787257061	 0.2094292801	 0.109849
138.9786	265.0929	286.5857	350.5119	386.6748	429.4846	473.7002	596.3747	649.5883	674.3663	720.1299	797.3755	852.7247	859.2072	862.7667	874.2997	928.2333	952.7862	978.2862	989.9895	1023.1519	1048.5341	1098.6407	1118.1993	1148.1242	1190.1848	1211.6475	1254.9929	1282.0437	1297.4812	1352.5496	1420.0016	1471.178	1490.3094	1778.7202	3047.9277	3105.3351	3157.8646	3198.7431	3220.9909	3503.0695	3710.44
OC12C3CC(OC1=N)C23	O[C@@]12[C@H]3C[C@@H](O[C]1[NH])[C@@H]23	
InChI=1S/C6H7NO2/c7-5-6(8)2-1-3(9-5)4(2)6/h2-4,7-8H,1H2	InChI=1S/C6H7NO2/c7-5-6(8)2-1-3(9-5)4(2)6/h2-4,7-8H,1H2/t2-,3+,4-,6+/m0/s1
