19
gdb 97947	4.92585	0.5716	0.55134	2.0387	80.96	-0.2446	0.0296	0.2742	2001.421	0.157662	-422.961229	-422.951124	-422.95018	-422.999941	34.04	
O	 0.3939151178	 0.3570807589	-0.8016351819	-0.409628
C	-0.2109688441	 0.3148799329	 0.4859255608	-0.214759
C	-1.542376969	-0.2686074875	 0.3837616411	 0.12905
C	-2.6496232399	-0.736810224	 0.3194642158	 0.036593
C	-3.9726101898	-1.3439950316	 0.2254692635	-0.376197
C	-3.9194238985	-2.821993026	-0.1812020999	-0.015128
C	-3.3931565975	-3.801436807	 0.8902381302	-0.071679
O	-4.6919437122	-4.4167535764	 1.0303570494	-0.271794
C	-5.2409338491	-3.6071847458	-0.0277984095	-0.091013
H	 1.2671834419	 0.747862909	-0.6944668858	 0.28942
H	 0.3921191744	-0.2831077535	 1.1888228709	 0.11527
H	-0.2938271763	 1.3249217357	 0.9199210008	 0.116493
H	-4.4860073242	-1.2556707478	 1.1928117362	 0.133949
H	-4.5863060325	-0.7890828179	-0.4967039335	 0.131531
H	-3.4393721405	-2.9202046005	-1.1565376507	 0.093835
H	-2.6363140317	-4.5167931579	 0.5457040372	 0.102235
H	-3.0482334941	-3.3422490969	 1.8251027527	 0.104713
H	-6.1084233722	-3.0222573698	 0.3066346715	 0.098075
H	-5.5350917925	-4.2097306739	-0.8966748487	 0.099035
8.869	47.4937	57.7049	78.5956	159.9746	217.494	246.0797	322.0818	350.0071	368.6081	462.3799	572.485	769.7008	781.3386	866.5173	886.7121	888.5503	972.3013	1028.0395	1036.2562	1045.7001	1054.5767	1094.2454	1135.7154	1151.8778	1158.7786	1163.6389	1238.7329	1246.937	1256.3378	1266.8514	1309.6112	1326.5992	1369.4014	1392.7037	1460.0132	1469.3745	1503.8177	1512.8907	1538.0309	2371.7985	2960.9025	2978.3637	2999.9463	3009.7186	3016.3239	3040.7714	3042.6567	3054.934	3096.106	3816.9289
OCC#CCC1COC1	OCC#CCC1COC1	
InChI=1S/C7H10O2/c8-4-2-1-3-7-5-9-6-7/h7-8H,3-6H2	InChI=1S/C7H10O2/c8-4-2-1-3-7-5-9-6-7/h7-8H,3-6H2
