21
gdb 38302	2.82689	1.91174	1.89947	0.1097	84.26	-0.2273	0.0185	0.2458	891.2478	0.188362	-349.925407	-349.919372	-349.918428	-349.955217	27.872	
C	-0.0365275991	 1.5579576368	 0.0860025831	-0.205797
C	 1.5164793553	 1.4564348643	 0.0340005186	-0.021628
C	 1.3045650015	 0.159603435	 0.8845294423	-0.219834
C	-0.0047955035	 0.0017272827	 0.0414819802	-0.021628
C	 0.3450945498	-0.5123575847	-1.4304142353	-0.058156
C	 1.883941945	-0.4590241951	-1.5921730104	-0.201643
C	 2.0068394105	 1.0766746094	-1.4385867374	-0.058157
C	 0.957319962	 1.4723423509	-2.4827331377	-0.072849
C	-0.0086213073	 0.5486633403	-2.4779857394	-0.072845
H	-0.3659863695	 1.9075457926	 1.068428197	 0.083788
H	-0.566587288	 2.1082942032	-0.6874174651	 0.093369
H	 2.1067657232	 2.2738780346	 0.4537449565	 0.055613
H	 2.0573525271	-0.6275455816	 0.9013831594	 0.089676
H	 1.0635599657	 0.4169610697	 1.9196097478	 0.08911
H	-0.8456408217	-0.5493377465	 0.4682646388	 0.055612
H	-0.1016854082	-1.4923950582	-1.6102337317	 0.0556
H	 2.4533725445	-1.0508405044	-0.8779860213	 0.088899
H	 2.1765937686	-0.7702414292	-2.5978862415	 0.088074
H	 3.0049313211	 1.4782860928	-1.6255129357	 0.0556
H	 0.9732314158	 2.3932192423	-3.053378944	 0.088598
H	-0.9322077729	 0.5711494451	-3.044012904	 0.088598
246.7304	378.7505	415.4665	493.9565	549.833	564.2174	577.6628	703.6638	746.3446	753.0302	794.9164	815.4491	832.9269	867.6883	888.5237	890.4988	913.314	919.2961	947.4498	969.1714	982.2668	1004.2899	1022.6642	1070.3497	1080.3762	1094.0838	1102.5497	1118.8328	1133.1813	1142.5875	1206.2262	1240.1496	1247.6239	1259.7752	1275.4821	1286.3984	1288.8989	1303.5543	1318.6146	1349.2017	1360.1834	1487.7561	1514.5919	1551.4608	1639.4473	3058.8878	3061.5715	3071.4981	3072.8781	3078.3497	3086.8947	3093.7255	3111.3188	3143.5542	3151.0082	3187.9557	3214.1604
C1C2CC1C1CC2C=C1	C1[C@H]2C[C@@H]1[C@@H]1C[C@H]2C=C1	
InChI=1S/C9H12/c1-2-7-3-6(1)8-4-9(7)5-8/h1-2,6-9H,3-5H2	InChI=1S/C9H12/c1-2-7-3-6(1)8-4-9(7)5-8/h1-2,6-9H,3-5H2/t6-,7+,8-,9+
