19
gdb 53010	4.2171	0.88684	0.82724	1.6252	86.24	-0.2294	0.0515	0.2809	1464.1813	0.159417	-385.86251	-385.853611	-385.852667	-385.897968	32.466	
C	-0.0018686415	 1.480866797	-0.0508013835	-0.507363
C	-0.0187136068	 0.025593068	-0.0233332107	 0.246499
C	-0.0380299716	-1.1796368369	-0.0054737584	-0.204324
C	-0.0205623607	-2.6094301166	 0.0387954677	 0.197647
C	-0.4167049593	-3.446576045	-1.1669208306	-0.324368
C	-1.2780952949	-3.4748199705	 0.0622738565	-0.105981
C	-0.9808829036	-4.5827344984	 1.0548399595	-0.093845
O	 0.4399901964	-4.6327686691	 1.1532873544	-0.260707
C	 0.9389420327	-3.310404368	 1.0029081127	-0.154755
H	 0.8440136939	 1.8764158212	 0.5225868851	 0.148708
H	 0.0886315476	 1.8608045543	-1.0746972958	 0.147298
H	-0.9173185217	 1.9023870093	 0.379748688	 0.146299
H	-0.7905566692	-2.9049025684	-2.0271916805	 0.121248
H	 0.1895850935	-4.3189654777	-1.390576184	 0.125379
H	-2.2602851594	-3.0191925744	 0.0488832598	 0.101289
H	-1.4432568271	-4.3540787283	 2.0287670447	 0.094846
H	-1.3167168566	-5.5751106041	 0.7358801448	 0.110992
H	 1.9644357439	-3.3869928231	 0.6287476171	 0.11296
H	 0.9515467443	-2.7679611494	 1.9609333432	 0.098177
13.1763	93.5165	98.3935	240.2015	257.4436	296.756	339.0757	377.8608	442.7755	511.5463	534.5395	668.6442	718.6274	811.939	873.2886	916.8872	938.9194	947.5968	989.2713	1038.7434	1052.6007	1054.2637	1077.0988	1087.587	1093.3617	1110.6703	1125.8177	1218.1383	1240.9648	1261.842	1297.3493	1346.2361	1375.1384	1411.2956	1421.3265	1477.2493	1477.9378	1479.6076	1508.9133	1521.6189	2366.7409	2974.6451	2987.6656	3024.1005	3068.3115	3079.4641	3082.6903	3085.4386	3132.8327	3195.2549	3230.6731
CC#CC12CC1COC2	CC#C[C@]12C[C@H]1COC2	
InChI=1S/C8H10O/c1-2-3-8-4-7(8)5-9-6-8/h7H,4-6H2,1H3	InChI=1S/C8H10O/c1-2-3-8-4-7(8)5-9-6-8/h7H,4-6H2,1H3/t7-,8+/m0/s1
