23
gdb 122202	3.42986	0.76623	0.72161	1.7504	82.94	-0.2545	0.0678	0.3223	1698.2552	0.20372	-425.404152	-425.393671	-425.392727	-425.440265	38.07	
C	-0.3242823111	 1.2404353253	-0.0127776728	-0.229314
O	-0.1524104537	-0.1538126056	 0.0567325853	-0.226751
C	 0.6569996504	-0.554583977	 1.1400996825	-0.075165
C	 0.7942285891	-2.0721373732	 1.1021272379	-0.240211
C	 1.595460353	-2.6624072409	 2.2675531621	 0.40768
O	 2.9264814867	-2.1717821305	 2.2929733552	-0.483909
C	 0.8316856439	-2.6761261293	 3.6338093428	-0.278753
C	 0.4686414414	-4.1635703084	 3.3765644453	-0.21183
C	 1.5720554022	-4.2110001854	 2.2857443328	-0.255107
H	 0.6358707472	 1.7658412615	-0.141183736	 0.102614
H	-0.9586273586	 1.4501371614	-0.8774809027	 0.127747
H	-0.8127012066	 1.639156729	 0.8911071471	 0.101855
H	 1.6486678391	-0.0736021635	 1.0634470094	 0.075594
H	 0.2092287575	-0.2229549789	 2.0938550245	 0.085368
H	-0.2121648116	-2.5065285824	 1.0914179735	 0.105918
H	 1.2794739089	-2.3571329427	 0.1618093463	 0.111177
H	 2.9036996672	-1.2228612456	 2.4543515015	 0.275656
H	 1.5421215613	-2.5662200713	 4.457184255	 0.103579
H	 0.0098873745	-1.9682212071	 3.7719917938	 0.091449
H	 0.5730885562	-4.8512362043	 4.2177667845	 0.100761
H	-0.5353023251	-4.2803425026	 2.960462097	 0.104683
H	 1.3446593373	-4.7166537035	 1.3438515395	 0.095778
H	 2.5208878609	-4.5873033949	 2.6749355554	 0.111179
61.4187	71.1752	107.1586	139.7648	154.9133	230.0436	234.6284	280.9584	303.6646	341.6884	416.3664	474.1317	493.7547	644.2512	733.6009	791.074	804.7327	865.5369	917.7945	936.5794	965.0227	974.5951	1000.25	1031.4345	1041.7899	1093.7675	1162.1123	1168.5485	1187.5649	1196.3656	1202.2906	1225.4022	1247.9136	1252.137	1266.3231	1287.1789	1291.4646	1303.7715	1328.5205	1370.7043	1428.8495	1468.2786	1479.4325	1481.67	1484.2449	1485.6993	1504.0038	1505.3593	1535.1887	2934.216	2959.6167	2967.0115	3008.1296	3037.7566	3054.9515	3061.535	3068.5673	3083.4268	3104.2386	3113.5137	3116.2676	3129.0906	3811.0971
COCCC1(O)CCC1	COCCC1(O)CCC1	
InChI=1S/C7H14O2/c1-9-6-5-7(8)3-2-4-7/h8H,2-6H2,1H3	InChI=1S/C7H14O2/c1-9-6-5-7(8)3-2-4-7/h8H,2-6H2,1H3
