19
gdb 128784	3.43073	1.09692	0.87911	3.1677	79.97	-0.2355	0.0163	0.2517	1340.6034	0.15982	-419.21619	-419.206945	-419.206001	-419.250925	32.512	
C	 0.7246540628	 1.3870876288	-0.3376276951	-0.224794
O	 0.9331830809	-0.0071213423	-0.3552750649	-0.229747
C	-0.1661426595	-0.7122988748	-0.9110399366	-0.199313
C	 0.1122199895	-2.1773151861	-0.907834941	 0.372126
C	-0.555507832	-3.2156882407	-0.2848905264	-0.315108
C	 0.1445848161	-4.3737406809	-0.6692283712	-0.003279
N	 1.1712536862	-4.0846887943	-1.4655953175	-0.265582
N	 1.1368651429	-2.7447279081	-1.6024946327	-0.00766
C	 2.1105706144	-2.0862396006	-2.4506224901	-0.335226
H	 0.5736052916	 1.7918548886	-1.3510715301	 0.105215
H	-0.1499576483	 1.6591314965	 0.2735178599	 0.109116
H	 1.6162787451	 1.8436696999	 0.0977156821	 0.132429
H	-1.0806895185	-0.5259554833	-0.3279246229	 0.108459
H	-0.3590376885	-0.3470372241	-1.9354503265	 0.097567
H	-1.4159798709	-3.133413529	 0.3598992289	 0.100908
H	-0.0462701912	-5.4009836773	-0.3954615627	 0.108983
H	 1.7076049323	-1.9105436182	-3.4548625632	 0.1318
H	 2.3955037689	-1.1346650364	-2.0004899726	 0.157388
H	 2.9785814982	-2.7403968879	-2.5290353172	 0.156719
73.7401	86.2797	112.779	129.1281	205.2502	229.8804	270.4812	333.4624	380.1794	431.0137	654.6695	670.0258	720.8005	780.8228	804.1286	883.2441	944.2951	977.2059	1004.6302	1041.2185	1068.6075	1137.3081	1153.5763	1180.8544	1199.5563	1221.9045	1234.9374	1261.2548	1322.7892	1362.1702	1407.5028	1429.4055	1457.2393	1479.7244	1485.2178	1490.2502	1500.2092	1502.7937	1514.7812	1523.3914	1588.7801	2944.6222	2972.0896	3004.9318	3017.7061	3036.2997	3120.3506	3123.8082	3169.9441	3242.8074	3264.9619
COCC1=CC=NN1C	COCc1ccnn1C	
InChI=1S/C6H10N2O/c1-8-6(5-9-2)3-4-7-8/h3-4H,5H2,1-2H3	InChI=1S/C6H10N2O/c1-8-6(5-9-2)3-4-7-8/h3-4H,5H2,1-2H3
