21
gdb 100075	3.14256	0.97593	0.89904	3.0788	75.54	-0.26	0.0192	0.2792	1399.3736	0.177867	-461.405887	-461.394611	-461.393667	-461.442454	39.832	
C	-0.2983724516	 1.466544153	 0.0129106353	-0.470918
C	 0.0891949801	 0.0037748462	 0.0014840464	 0.433289
O	 1.223472343	-0.4052242633	-0.0116388174	-0.359595
O	-1.0175326654	-0.7641437262	 0.0079035156	-0.301366
C	-0.9267240146	-2.2251555748	-0.0010581987	 0.369751
C	-0.2569161105	-2.7224702777	-1.2832107194	-0.425262
C	-0.2321907551	-2.7365032612	 1.2622809779	-0.425257
C	-2.4163608195	-2.6079963786	 0.011293464	-0.101497
O	-2.5117592336	-4.0217117791	 0.004339192	-0.418466
H	 0.6024334236	 2.0790554115	 0.0086753871	 0.145703
H	-0.9130237917	 1.6991910138	-0.8613145689	 0.146136
H	-0.8983043426	 1.6894730254	 0.899782412	 0.146102
H	 0.8067416075	-2.486892544	-1.2877121627	 0.146285
H	-0.3919551964	-3.8041781902	-1.3555737096	 0.136209
H	-0.7260986532	-2.26130365	-2.1583627446	 0.109306
H	-0.6842451815	-2.2850739803	 2.1514125026	 0.109308
H	-0.3659014884	-3.8189586744	 1.3253130298	 0.136198
H	 0.8313791724	-2.5008645147	 1.2487259881	 0.146296
H	-2.8826809266	-2.1729557725	 0.9076115278	 0.09191
H	-2.8999700202	-2.1630590482	-0.8708913035	 0.091909
H	-3.4421494457	-4.2617446247	 0.0118143762	 0.293955
56.7497	93.5216	97.8267	130.0262	150.5761	204.5057	224.5602	238.7081	270.8429	317.0955	342.8998	344.1913	415.7072	452.0992	532.0903	608.6486	656.9	761.5292	846.7341	925.5252	952.0293	968.638	981.6746	1036.2168	1049.2643	1062.0901	1098.8517	1167.5381	1204.2915	1234.7611	1279.8342	1297.6626	1303.521	1389.4784	1390.7156	1402.4713	1454.8544	1469.2817	1476.2454	1479.589	1493.7525	1498.2409	1507.7853	1527.6936	1815.2932	2982.8743	3020.773	3048.6803	3052.2419	3056.243	3121.0762	3121.4744	3124.5582	3159.2795	3162.7937	3167.9077	3844.275
CC(=O)OC(C)(C)CO	CC(=O)OC(C)(C)CO	
InChI=1S/C6H12O3/c1-5(8)9-6(2,3)4-7/h7H,4H2,1-3H3	InChI=1S/C6H12O3/c1-5(8)9-6(2,3)4-7/h7H,4H2,1-3H3
