16
gdb 77619	2.20151	1.60798	1.28348	2.4193	71.18	-0.2575	0.0071	0.2646	1040.9776	0.122706	-437.854961	-437.846322	-437.845378	-437.888015	31.875	
C	 0.0194030751	 1.5250488532	-0.0286916362	-0.488116
C	 0.0311104312	 0.0386175955	 0.0561522286	 0.3908
O	 0.5063935348	-0.7152915436	-1.056135639	-0.312514
C	 1.197472027	-1.6548559302	-0.1927148848	-0.14064
C	 0.6509471268	-0.9712659185	 1.0547391666	 0.029272
C	 1.2788515977	-0.8005945443	 2.3135161959	 0.18827
N	 1.7676854208	-0.6728948166	 3.3564286423	-0.358726
C	-0.873874041	-0.809743869	 0.8844821498	-0.012999
O	-1.5235037768	-0.1320964884	 1.9026105432	-0.407514
H	 1.0243266487	 1.9184144764	-0.2023657772	 0.138828
H	-0.6212513275	 1.8351116606	-0.861737605	 0.144594
H	-0.38422237	 1.9455026598	 0.8940064407	 0.158759
H	 0.8870741252	-2.6906032115	-0.3689138931	 0.120549
H	 2.2820154346	-1.5606179777	-0.3034276281	 0.134826
H	-1.4217406735	-1.6256053836	 0.4075820807	 0.106668
H	-1.4589687129	-0.6434293821	 2.7179775956	 0.307942
109.0199	125.8415	185.6723	220.9905	258.3345	287.181	306.2053	364.1	419.5134	483.2934	558.8804	590.8542	632.7042	702.3531	735.6026	835.949	942.6294	996.2605	1014.6674	1049.1807	1099.9502	1127.1223	1157.161	1165.8274	1217.7207	1264.1539	1286.8743	1337.2783	1379.3132	1412.5826	1461.2048	1478.3128	1495.5174	1519.0234	2336.9327	3037.1851	3044.6796	3079.6134	3093.2003	3111.711	3149.0365	3788.069
CC12OCC1(C#N)C2O	C[C@@]12OC[C@]1(C#N)[C@H]2O	
InChI=1S/C6H7NO2/c1-5-4(8)6(5,2-7)3-9-5/h4,8H,3H2,1H3	InChI=1S/C6H7NO2/c1-5-4(8)6(5,2-7)3-9-5/h4,8H,3H2,1H3/t4-,5-,6+/m0/s1
