15
gdb 123352	6.95871	0.71618	0.68114	3.2196	72.96	-0.2756	-0.048	0.2276	1562.501	0.11165	-416.736361	-416.728091	-416.727147	-416.770731	29.311	
C	 0.0178352251	-1.2239045413	 0.0071752221	-0.428266
C	 0.0199402705	-0.0297656622	 0.14061712	 0.291064
C	 0.0574693613	 1.418837105	 0.2869110043	-0.351374
C	 1.3575963542	 2.0325553146	-0.2945791068	-0.308849
C	 1.4123482773	 3.5155708551	-0.110689035	 0.328245
N	 1.1679807507	 4.3544967388	-1.0841041001	-0.140657
O	 1.2875373936	 5.6053694826	-0.5485060201	-0.145733
N	 1.6116167929	 5.5505669439	 0.7765540394	-0.056944
C	 1.6907014023	 4.2813249507	 1.0608079444	-0.109185
H	 0.000535988	-2.2796258348	-0.1062142536	 0.201788
H	-0.8053043363	 1.8696692817	-0.2176101507	 0.151775
H	-0.0333556817	 1.6858683456	 1.3473378346	 0.136596
H	 2.22047015	 1.5678053439	 0.1925101148	 0.133682
H	 1.4206318216	 1.8037760575	-1.3606169285	 0.1488
H	 1.9417201206	 3.9509572789	 2.0571431952	 0.149058
44.2131	61.6102	97.7853	185.271	312.343	361.0008	374.5333	473.9118	627.8641	651.88	653.9465	696.8238	754.393	777.2702	895.8526	896.4334	936.7568	971.8392	1004.5922	1014.5787	1030.3168	1076.6292	1178.0361	1210.4485	1289.5117	1307.6203	1368.5049	1427.1248	1463.2395	1473.6149	1489.2309	1612.2348	2242.4227	3027.7337	3059.2133	3067.1152	3121.3966	3265.3975	3506.0239
C#CCCC1=NON=C1	C#CCCc1nonc1	
InChI=1S/C6H6N2O/c1-2-3-4-6-5-7-9-8-6/h1,5H,3-4H2	InChI=1S/C6H6N2O/c1-2-3-4-6-5-7-9-8-6/h1,5H,3-4H2
