12
gdb 131956	4.72708	1.13349	0.9195	5.2314	60.06	-0.3074	-0.1041	0.2033	1166.2808	0.076253	-505.853761	-505.84608	-505.845136	-505.887777	25.838	
C	-0.0056598572	 1.4569849937	-0.0269470689	-0.49739
C	-0.0784046938	-0.0225151666	 0.0400694521	 0.4384
N	-1.085224768	-0.8053578058	-0.2175662356	-0.319522
C	-0.5395872814	-2.026648912	 0.0210729704	 0.456985
N	 0.7077722992	-2.0510339155	 0.4000865884	-0.129642
O	 1.026302865	-0.7011807981	 0.4152819607	-0.179817
N	-1.2985242884	-3.2746014787	-0.1335084418	 0.361454
O	-2.4569908773	-3.1596994488	-0.4905204957	-0.322207
O	-0.7007004702	-4.3085865437	 0.1091640544	-0.328729
H	 0.7649702235	 1.7701374685	-0.7374352709	 0.171325
H	-0.972317919	 1.8477885773	-0.342796506	 0.177819
H	 0.2541900775	 1.8717385795	 0.9514161728	 0.171323
31.1286	62.8911	161.0991	194.1059	320.0728	354.4352	413.9063	545.4726	641.9722	692.8058	707.7277	815.3829	848.0508	954.6914	983.6891	1030.5506	1070.078	1072.2345	1280.8753	1347.5725	1410.4117	1412.8485	1471.8491	1472.9162	1530.4234	1629.0297	1669.8073	3056.9476	3118.5342	3169.61
CC1=NC(=NO1)N(=O)=O	Cc1nc(no1)N(=O)=O	
InChI=1S/C3H3N3O3/c1-2-4-3(5-9-2)6(7)8/h1H3	InChI=1S/C3H3N3O3/c1-2-4-3(5-9-2)6(7)8/h1H3
