18
gdb 34961	3.05955	1.54147	1.46915	4.1625	78.25	-0.2796	0.0264	0.3059	968.7159	0.150563	-364.789878	-364.78301	-364.782066	-364.821123	27.809	
N	-0.1233138981	-1.1848738368	-0.2328472127	-0.345823
C	-0.0786644834	-0.03340094	-0.1298677823	 0.282621
C	 0.009727802	 1.4092122671	 0.0366870357	-0.148335
C	-0.2552136154	 2.0245904667	 1.4466043688	-0.05269
C	 0.5102144407	 1.3130105224	 2.587269833	-0.237999
C	 1.8230112804	 2.0172888983	 2.1578687229	-0.031505
C	 2.4651462731	 1.3886535979	 0.8944167751	-0.237999
C	 1.4143933855	 2.0891977996	 0.0008282322	-0.05269
C	 0.9817547379	 2.96936791	 1.2289192765	-0.047393
H	-0.6437044015	 1.8922866456	-0.6963214935	 0.120727
H	-1.27522631	 2.3555085857	 1.6389705977	 0.080435
H	 0.167590631	 1.6851267495	 3.5570404411	 0.106589
H	 0.4955361334	 0.2189686976	 2.6061266208	 0.118118
H	 2.4928528558	 2.3590756644	 2.9466827106	 0.069898
H	 3.4563374169	 1.8123820226	 0.7091843689	 0.106588
H	 2.5342220936	 0.2978518286	 0.8407482953	 0.118118
H	 1.7348177855	 2.4719841685	-0.9675415231	 0.080434
H	 0.9637610525	 4.0556447823	 1.2566825531	 0.070905
115.0103	143.9905	314.5796	323.3546	401.5574	530.8766	563.5195	627.2456	632.4624	755.9187	819.3201	837.8533	842.8452	848.5842	922.1914	938.2242	953.9683	983.3097	989.2281	1045.0601	1059.5928	1067.8786	1107.4697	1114.5195	1129.0211	1165.7482	1177.8228	1209.6234	1215.2328	1255.2734	1270.6533	1283.1482	1284.4651	1328.2533	1333.2053	1338.2862	1480.5332	1490.8726	2346.0167	3049.1919	3050.387	3063.1019	3098.4828	3100.06	3107.31	3110.5379	3112.3082	3151.4271
N#CC1C2CC3CC1C23	N#C[C@H]1[C@H]2C[C@H]3C[C@@H]1[C@@H]23	
InChI=1S/C8H9N/c9-3-7-5-1-4-2-6(7)8(4)5/h4-8H,1-2H2	InChI=1S/C8H9N/c9-3-7-5-1-4-2-6(7)8(4)5/h4-8H,1-2H2/t4-,5+,6-,7-,8+
