14
gdb 66043	2.58573	1.31254	1.13593	2.7926	66.92	-0.2932	-0.0309	0.2623	1086.7787	0.100668	-432.849098	-432.840519	-432.839575	-432.882785	30.252	
N	-0.0126984981	 1.4931934375	-0.1130100978	-0.52785
C	 0.023794898	 0.0458684745	-0.05980061	 0.059159
C	 0.0631515119	-0.485244518	 1.4002840923	-0.079236
O	-1.3260000808	-0.8709905097	 1.3469012861	-0.263483
C	-1.4091397216	-0.598301035	-0.0560117979	-0.01511
C	-2.5151734138	 0.2810417619	-0.4288546908	 0.300376
N	-3.3862547279	 0.9606615239	-0.7658746231	-0.313095
C	 0.9689786863	-0.5767207964	-0.9948089941	 0.232352
N	 1.7280018216	-1.0297356358	-1.7402239864	-0.322068
H	 0.9064014921	 1.8777307349	 0.0858714692	 0.254149
H	-0.2859451758	 1.8178919627	-1.0365517693	 0.260975
H	 0.7213044436	-1.34474187	 1.5611175776	 0.133021
H	 0.2467949999	 0.2933259022	 2.1449453961	 0.138476
H	-1.4673155354	-1.5198376127	-0.6480899119	 0.142334
60.8067	136.3615	142.0444	188.3955	237.3546	246.7675	354.9243	389.2094	477.5321	513.6668	571.5327	596.3516	648.2598	828.2182	871.2695	931.5694	948.7634	985.206	1023.4695	1060.6214	1133.742	1177.3049	1231.8849	1271.286	1291.7441	1352.0676	1366.3942	1507.4388	1657.1926	2345.9926	2363.1659	3039.2762	3050.4763	3115.42	3495.0337	3577.5768
NC1(COC1C#N)C#N	N[C@]1(CO[C@H]1C#N)C#N	
InChI=1S/C5H5N3O/c6-1-4-5(8,2-7)3-9-4/h4H,3,8H2	InChI=1S/C5H5N3O/c6-1-4-5(8,2-7)3-9-4/h4H,3,8H2/t4-,5-/m0/s1
