19
gdb 94956	3.5171	1.29222	1.12001	3.1516	74.89	-0.2381	-0.0242	0.2139	1127.8045	0.15944	-423.045118	-423.037014	-423.03607	-423.078256	31.049	
C	-0.0199997448	 1.3836002702	-0.2692141234	-0.410262
C	-0.0221020981	-0.1091830951	 0.0635154315	 0.117048
O	 0.6119189956	-0.8854960934	-0.9616161345	-0.263284
C	 2.0113080164	-0.8900531098	-0.7125733883	-0.106324
C	 2.1625154854	-0.9145115036	 0.8202163068	-0.172306
C	 0.7559576932	-0.448507239	 1.3433974903	-0.03344
C	 0.4914856995	-1.8678158683	 1.9356413786	-0.374449
C	 1.8921466964	-2.2846059069	 1.4656260324	 0.417215
O	 2.5462469318	-3.2802879815	 1.5755214182	-0.295835
H	 0.9952518876	 1.7937835793	-0.2786397842	 0.118062
H	-0.4660427022	 1.5496043077	-1.2534746952	 0.128254
H	-0.5997216084	 1.9421166811	 0.4729820922	 0.116613
H	-1.0556258088	-0.4695491865	 0.1106079522	 0.085814
H	 2.4368154685	-1.7703280885	-1.2021233018	 0.128497
H	 2.4970443747	 0.0049120643	-1.1282473046	 0.098301
H	 3.0644111107	-0.4096859575	 1.1718150434	 0.099125
H	 0.7488432964	 0.3577697667	 2.0765991656	 0.080375
H	 0.3543315781	-1.9191840387	 3.0196477198	 0.130013
H	-0.3164279922	-2.4295111504	 1.4551817909	 0.136583
42.409	139.0201	216.3244	241.611	255.8859	329.0303	431.0187	464.475	510.8314	619.9439	703.5961	724.9398	742.116	836.6388	851.011	885.0728	932.3884	963.2383	1000.906	1005.6067	1012.0591	1067.5386	1085.5309	1110.5579	1138.1459	1155.7222	1170.0402	1222.364	1228.0958	1241.4484	1267.1426	1299.9758	1329.3964	1372.9187	1392.8912	1403.2934	1429.5187	1487.8409	1496.2395	1518.4668	1891.4049	2991.9837	3037.3238	3048.4832	3052.7458	3091.7428	3097.844	3104.9654	3106.099	3117.0799	3121.35
CC1OCC2C1CC2=O	C[C@H]1OC[C@H]2[C@@H]1CC2=O	
InChI=1S/C7H10O2/c1-4-5-2-7(8)6(5)3-9-4/h4-6H,2-3H2,1H3	InChI=1S/C7H10O2/c1-4-5-2-7(8)6(5)3-9-4/h4-6H,2-3H2,1H3/t4-,5-,6+/m1/s1
