19
gdb 63853	2.27175	1.58367	1.27086	3.3833	81.06	-0.2512	0.0102	0.2614	1087.1592	0.158853	-382.051751	-382.04296	-382.042016	-382.084672	33.853	
C	-0.0469878717	 1.5479250298	 0.0902574263	-0.452497
C	-0.0047822183	 0.0270951138	-0.0030374824	 0.262264
C	-1.3782319202	-0.5698649846	-0.3016812026	-0.453586
C	 1.1203191015	-0.590530004	-0.9264741988	-0.26723
C	 1.7210431181	-1.2873523345	 0.2945030463	-0.108151
N	 2.095228884	-0.2264576751	 1.2437456123	-0.365294
C	 0.6810508634	-0.690952215	 1.1962988336	 0.222258
C	 0.0476245639	-1.2447386393	 2.3459190836	 0.171215
N	-0.4875405432	-1.684231134	 3.2744301456	-0.353006
H	 0.9321223209	 1.9474418534	 0.3629185743	 0.140704
H	-0.3431766024	 1.9807358074	-0.8716764654	 0.115474
H	-0.7762259774	 1.8734027074	 0.8403923603	 0.120558
H	-1.7470329213	-0.2054385717	-1.2661192206	 0.120993
H	-1.3430960771	-1.6634127455	-0.3438332089	 0.120195
H	-2.1049605064	-0.2877735623	 0.4673735144	 0.132655
H	 0.7123476612	-1.2824388866	-1.6657674709	 0.111547
H	 1.7899179207	 0.1208952331	-1.4145054295	 0.115905
H	 2.1727712119	-2.2698051622	 0.3524269132	 0.118467
H	 2.5346747025	-0.6660241301	 2.0527865892	 0.24753
112.5105	134.8691	198.2066	227.5324	260.5973	293.5169	329.6411	358.0742	436.4717	471.0748	530.5334	575.4882	605.5914	636.6498	794.4838	842.3735	881.0297	908.46	932.9707	960.438	977.8485	1004.6161	1029.2044	1043.1187	1096.7478	1161.7328	1179.906	1225.1255	1245.6496	1267.7446	1295.6686	1339.0064	1384.2336	1400.7168	1419.6542	1478.5054	1483.0909	1487.0822	1498.904	1511.396	2338.6568	3029.3952	3033.6487	3072.1988	3093.7444	3101.9944	3104.2322	3128.276	3131.4122	3197.7521	3476.6469
CC1(C)CC2NC12C#N	CC1(C)C[C@H]2N[C@@]12C#N	
InChI=1S/C7H10N2/c1-6(2)3-5-7(6,4-8)9-5/h5,9H,3H2,1-2H3	InChI=1S/C7H10N2/c1-6(2)3-5-7(6,4-8)9-5/h5,9H,3H2,1-2H3/t5-,7-/m1/s1
