16
gdb 102448	2.07686	1.31914	1.00475	4.1148	67.06	-0.2779	-0.0919	0.186	1219.1454	0.121177	-475.016743	-475.006779	-475.005834	-475.052452	33.742	
C	 0.2531509072	 1.000094961	 0.4449658062	-0.251289
O	-0.2507881815	 0.1656926642	-0.5885723031	-0.243804
C	-1.4324447906	-0.5197750376	-0.2910882403	-0.032479
C	-1.9489573256	-1.0891433482	-1.6252169944	-0.086162
O	-1.0141349253	-1.9763871696	-2.1894892846	-0.410778
C	-1.1962561601	-1.6584463653	 0.7061670539	 0.304074
O	-0.1230364579	-1.9993279111	 1.1249971387	-0.264585
C	-2.4371322549	-2.3336069021	 1.1533202176	 0.230034
N	-3.4234259075	-2.8289773956	 1.4986272978	-0.298852
H	 1.1150288777	 1.5244499114	 0.0282906697	 0.140888
H	-0.4995989995	 1.7399873533	 0.7527833278	 0.114473
H	 0.5720222845	 0.419274862	 1.3162177306	 0.141504
H	-2.2022630091	 0.1464017235	 0.1386487714	 0.101482
H	-2.8764474518	-1.6472220582	-1.4680020656	 0.140536
H	-2.1677634321	-0.2348424362	-2.2820523816	 0.11353
H	-0.1732485834	-1.5051743716	-2.2325969642	 0.301428
50.9809	94.6132	114.1059	134.5882	157.3192	188.7213	264.9638	280.733	317.7366	361.6161	447.7606	502.1493	566.995	587.3166	719.7052	831.459	904.9364	997.0759	1023.1855	1085.1393	1096.0053	1170.3574	1179.5481	1204.6147	1249.669	1276.1548	1364.7408	1393.8863	1425.5827	1481.1931	1487.8784	1497.7445	1510.8719	1807.8225	2334.699	2954.4189	3002.554	3006.3557	3085.7789	3097.5816	3135.8007	3796.1029
COC(CO)C(=O)C#N	CO[C@@H](CO)C(=O)C#N	
InChI=1S/C5H7NO3/c1-9-5(3-7)4(8)2-6/h5,7H,3H2,1H3	InChI=1S/C5H7NO3/c1-9-5(3-7)4(8)2-6/h5,7H,3H2,1H3/t5-/m0/s1
