15
gdb 53895	1.87329	1.43479	1.13693	3.7088	67.62	-0.2704	-0.0594	0.211	1152.8076	0.110461	-454.008342	-453.998766	-453.997822	-454.04418	33.101	
C	-0.0595627393	 1.1856767312	 0.5181445542	-0.484413
C	 0.2714822411	-0.2299333455	 0.1262970133	 0.393334
O	 0.7431532658	-1.0420187133	 0.884290217	-0.29389
C	-0.0330029611	-0.6144068303	-1.3513004949	-0.346184
C	 1.232988356	-0.785829629	-2.056565275	 0.283186
N	 2.2430807717	-0.9076675686	-2.6054027427	-0.311399
C	-0.9244297613	-1.8959808227	-1.4640893041	 0.400455
N	-0.4120429022	-2.9819597049	-0.8426383815	-0.500099
O	-1.9585392657	-1.8584389173	-2.0902653298	-0.341664
H	 0.4714321685	 1.8872821877	-0.1352930105	 0.16433
H	-1.1312058351	 1.3677565894	 0.3750917566	 0.163294
H	 0.2137131796	 1.3615482454	 1.5585890483	 0.158855
H	-0.6055650794	 0.1754377413	-1.8414530974	 0.156577
H	 0.3286632399	-2.8644599265	-0.1659859041	 0.285968
H	-0.9821409485	-3.812419607	-0.8118986293	 0.271649
25.535	62.4241	132.3459	154.636	172.7418	217.5528	330.199	379.5975	421.2719	457.4423	459.7438	530.0241	606.6824	610.2138	633.6683	744.924	855.7381	879.2409	966.1594	995.1725	1064.5569	1125.3447	1165.2235	1246.3931	1302.4565	1345.9189	1386.9029	1459.0224	1470.5113	1624.3253	1815.6497	1830.7754	2354.5163	3036.635	3097.7769	3103.897	3161.5279	3559.7591	3700.2286
CC(=O)C(C#N)C(N)=O	CC(=O)[C@@H](C#N)C(=O)N	
InChI=1S/C5H6N2O2/c1-3(8)4(2-6)5(7)9/h4H,1H3,(H2,7,9)	InChI=1S/C5H6N2O2/c1-3(8)4(2-6)5(7)9/h4H,1H3,(H2,7,9)/t4-/m1/s1
