13
gdb 21721	3.80069	1.94834	1.32438	5.982	56.8	-0.2337	-0.0182	0.2155	854.9293	0.096524	-431.895012	-431.88814	-431.887196	-431.926132	25.273	
N	-0.0792653718	 1.3227984517	 0.0331035352	-0.531052
H	 0.1164602458	 0.3964288647	-0.3359109997	 0.254533
H	 0.7911945438	 1.8425541298	 0.0050794885	 0.251996
H	-1.6816916119	 1.8160125967	-0.8675244579	 0.313863
C	-0.5790557425	 1.2184112115	 1.4261096267	-0.285726
C	-2.0355660323	 0.8882433392	 1.3660935292	 0.115883
C	-2.9006421654	 1.1576410295	 0.3260368312	 0.434865
O	-2.6680457655	 1.7124629923	-0.8479714341	-0.390199
O	-4.1113431199	 0.7535964872	 0.624274959	-0.218783
N	-3.9882683969	 0.1697577488	 2.0000780177	-0.043689
N	-2.7865826325	 0.2876268291	 2.3298563552	-0.16499
H	-0.0416692595	 0.4762820348	 2.030926514	 0.129812
H	-0.4129583814	 2.1934062948	 1.9017125951	 0.133487
106.6049	224.0752	241.6965	312.1634	342.3314	369.7458	447.8247	562.7598	669.0758	694.9853	750.9228	769.7252	852.6833	933.3484	984.1165	1003.5736	1033.0993	1172.495	1217.3761	1262.2702	1330.7346	1385.2837	1432.9236	1462.3371	1506.4787	1558.5129	1635.9688	1654.0133	3013.2413	3044.6124	3308.2732	3501.3595	3584.5429
[NH3+]CC1=C([O-])ON=N1	NCc1c(O)onn1	
InChI=1S/C3H5N3O2/c4-1-2-3(7)8-6-5-2/h7H,1,4H2	InChI=1S/C3H5N3O2/c4-1-2-3(7)8-6-5-2/h7H,1,4H2
