17
gdb 29604	2.94917	1.28679	0.90092	3.5259	78.56	-0.1961	0.0185	0.2147	1251.9244	0.136916	-418.039764	-418.031166	-418.030222	-418.073229	31.724	
C	-0.0214979635	 1.5036306461	 0.099568485	-0.526173
C	-0.0095724572	 0.0114789169	-0.0075725863	 0.147636
C	-0.0235590853	-0.7499713423	-1.1331122487	-0.082378
O	-0.005463822	-2.070741791	-0.8354180429	-0.152958
C	 0.020768061	-2.1812894409	 0.5257067981	-0.071315
C	 0.0195694374	-0.9350295975	 1.0811300522	 0.216902
N	 0.0412572695	-0.5632596001	 2.4252947109	-0.394616
C	 0.0703187811	-1.4074331484	 3.5019086545	 0.075407
N	 0.0807563885	-2.6788520386	 3.3875520057	-0.459287
H	 0.8679184247	 1.8848895054	 0.6177082878	 0.126364
H	-0.0429712831	 1.9662758974	-0.890569287	 0.134482
H	-0.8992353218	 1.8686234162	 0.6484341361	 0.126391
H	-0.0455022562	-0.498664687	-2.1811998938	 0.131854
H	 0.0380406114	-3.1675664851	 0.9460726022	 0.167183
H	 0.0347778741	 0.4233978987	 2.6182719116	 0.251604
H	 0.0828223348	-0.8524185803	 4.4475023441	 0.087303
H	 0.1027252365	-3.1127753995	 4.3068734604	 0.2216
72.1416	141.4897	167.9115	187.7106	236.2918	263.2549	350.842	418.6143	443.8432	579.9294	613.0358	662.7084	668.6586	741.8192	768.972	798.272	836.3095	908.4007	1006.717	1030.5967	1064.7847	1073.9013	1099.1789	1185.8851	1192.9095	1232.9986	1261.0908	1319.2531	1388.4101	1412.776	1418.1647	1483.3479	1499.5786	1551.9936	1605.4016	1667.0761	1719.7797	3012.7721	3047.0875	3056.6271	3111.4475	3269.7044	3341.6161	3519.7031	3666.1989
CC1=COC=C1NC=N	Cc1cocc1NC=N	
InChI=1S/C6H8N2O/c1-5-2-9-3-6(5)8-4-7/h2-4H,1H3,(H2,7,8)	InChI=1S/C6H8N2O/c1-5-2-9-3-6(5)8-4-7/h2-4H,1H3,(H2,7,8)
