17
gdb 32480	3.3812	1.01925	0.82127	5.6106	82.1	-0.2376	-0.0564	0.1812	1389.0816	0.136532	-418.065354	-418.056803	-418.055859	-418.09932	30.853	
C	 0.1105584594	 1.5144562098	-0.2532035765	-0.369064
C	 0.0312662215	 0.0140635398	 0.0704018939	-0.293432
C	-1.3705798971	-0.5127421499	 0.0296605806	 0.288174
C	-1.9096416397	-1.4604575487	-0.8247404662	-0.178469
N	-3.2197858102	-1.5818836544	-0.4669822304	-0.270825
C	-3.4411857423	-0.719519674	 0.5789555853	 0.247265
C	-4.7629205992	-0.6159474578	 1.1961582786	 0.089564
O	-5.0572612756	 0.1074023841	 2.115963053	-0.254084
N	-2.3321108758	-0.0668670502	 0.888865593	-0.316445
H	 1.1391499011	 1.8771912451	-0.1664824301	 0.110648
H	-0.2378423804	 1.7160999289	-1.2712484746	 0.113028
H	-0.5174837264	 2.0841321724	 0.4364757672	 0.145817
H	 0.6514215779	-0.5576460354	-0.6290201313	 0.097905
H	 0.4435515773	-0.1591965147	 1.071609008	 0.12165
H	-1.4776645326	-2.0360360389	-1.6273271977	 0.14065
H	-3.8995591613	-2.1946039651	-0.8881817705	 0.273878
H	-5.5165934966	-1.2930914611	 0.7253330078	 0.053741
51.0276	123.0814	149.8672	174.4096	235.0019	265.5314	363.2465	416.4191	495.2338	563.417	637.356	687.8352	723.2345	770.1596	793.5959	810.9161	959.0347	1010.1216	1014.1366	1034.0018	1085.394	1090.5881	1118.8197	1209.403	1273.4049	1310.2788	1343.3603	1384.568	1406.7236	1435.3675	1469.4469	1480.0774	1496.2811	1505.2793	1527.0311	1578.766	1808.0672	2831.4076	3033.2945	3040.2701	3070.7993	3109.05	3127.0232	3268.0769	3650.3306
CCC1=CNC(C=O)=N1	CCc1c[nH]c(C=O)n1	
InChI=1S/C6H8N2O/c1-2-5-3-7-6(4-9)8-5/h3-4H,2H2,1H3,(H,7,8)	InChI=1S/C6H8N2O/c1-2-5-3-7-6(4-9)8-5/h3-4H,2H2,1H3,(H,7,8)
