23
gdb 115653	2.82115	1.10598	0.9415	1.3169	85.73	-0.2599	0.0761	0.336	1356.7993	0.206019	-388.264057	-388.254736	-388.253792	-388.298349	35.574	
O	-0.3374222943	 1.559637614	-0.0180071399	-0.422454
C	-0.2833652439	 0.2128587613	 0.4344936996	-0.107551
C	-1.4408843595	-0.5332947441	-0.1938459714	-0.0263
C	-1.4059262453	-0.8245878439	-1.7176926135	-0.222275
C	-2.0181307569	-2.2197948445	-1.4251410173	-0.284712
C	-1.5990520755	-2.0561905952	 0.0641264316	 0.361432
C	-0.4097180913	-2.948992473	 0.5305834934	-0.276456
C	-1.4346758717	-3.8537275271	 1.2659026714	-0.209928
C	-2.4570070132	-2.6882167154	 1.1852292186	-0.290278
H	 0.4231581703	 2.0274028447	 0.3389595723	 0.284504
H	 0.6675180622	-0.2634865126	 0.1447846139	 0.081203
H	-0.3531590171	 0.1594129976	 1.5346217122	 0.079695
H	-2.3713754762	-0.0166518331	 0.0713971933	 0.075177
H	-1.9613153652	-0.1523222456	-2.3742309576	 0.099751
H	-0.3776983138	-0.8961085022	-2.0864743601	 0.096423
H	-3.1071831637	-2.2202183427	-1.5385490614	 0.096037
H	-1.6130498498	-3.0782167658	-1.9689703392	 0.092117
H	 0.2137260722	-3.4034610526	-0.2448979638	 0.093086
H	 0.2438567284	-2.4312999675	 1.2399493852	 0.096284
H	-1.7402226636	-4.7050828574	 0.6515640904	 0.103382
H	-1.1615675934	-4.2229920894	 2.2570936759	 0.093964
H	-2.4464309976	-2.0766660224	 2.094185409	 0.095661
H	-3.4961697112	-2.929836723	 0.9425681774	 0.091237
78.9882	97.8609	124.3697	162.6266	227.3816	268.5931	302.5574	346.1278	412.1255	453.3808	526.3727	676.4242	729.0893	771.6013	809.3949	868.835	880.7728	902.1295	906.1323	935.8974	952.5762	966.614	993.5397	1030.0795	1073.521	1094.7934	1131.2679	1161.1544	1173.9505	1184.2706	1197.271	1231.2068	1244.1993	1249.5378	1253.2527	1256.7289	1272.9076	1275.3716	1287.6487	1300.6707	1305.0106	1366.4294	1459.7245	1472.5773	1478.7839	1485.1558	1496.5555	1506.3264	1519.5251	2949.3043	2979.1326	3034.4077	3037.8178	3041.825	3046.0134	3055.049	3060.3382	3085.8627	3089.0115	3093.0338	3115.2425	3116.0008	3827.4028
OCC1CCC11CCC1	OC[C@H]1CCC21CCC2	
InChI=1S/C8H14O/c9-6-7-2-5-8(7)3-1-4-8/h7,9H,1-6H2	InChI=1S/C8H14O/c9-6-7-2-5-8(7)3-1-4-8/h7,9H,1-6H2/t7-/m1/s1
