19
gdb 106235	2.61334	1.45846	1.24808	1.2669	76.32	-0.2239	0.0063	0.2302	1097.847	0.158532	-423.001082	-422.992471	-422.991527	-423.034048	33.013	
C	 0.0255375339	 1.3165810461	-0.3427802717	-0.257348
O	-0.0442501989	 0.0491203903	 0.2866481773	-0.282217
C	-1.288520178	-0.5630049931	 0.1845617902	 0.350515
C	-2.3892424556	-0.1809058874	 1.12365929	-0.17183
C	-3.1029636112	-1.2447233725	 1.5069751232	-0.091121
C	-2.5654985958	-2.5345946216	 0.9207015159	-0.284329
C	-1.4053289802	-2.0802306789	 0.0378244519	-0.176475
C	-1.7425959179	-1.1716312637	-1.1274433503	 0.052079
O	-3.0316944333	-1.0455500934	-1.6406020691	-0.424211
H	 1.0560681477	 1.6647325177	-0.242538559	 0.127656
H	-0.2329632394	 1.2532285026	-1.4086867747	 0.114975
H	-0.6413749014	 2.0501567229	 0.1326767508	 0.10772
H	-2.5730933182	 0.8454210993	 1.4201583358	 0.101715
H	-3.9780549442	-1.2156678635	 2.1470139329	 0.101885
H	-2.2452306413	-3.2298663833	 1.7059468128	 0.116434
H	-3.3312296745	-3.0566731268	 0.3316534351	 0.123577
H	-0.5115940054	-2.6880598571	-0.0378539119	 0.097564
H	-1.0075184374	-1.1522569148	-1.9263424926	 0.110447
H	-3.599321699	-0.7343617227	-0.9234478367	 0.282965
96.1102	167.9655	180.0484	194.8232	221.9285	327.096	355.4336	372.669	403.0028	542.8106	582.5554	639.9556	742.8828	749.4272	773.1881	853.4576	920.1537	932.4931	947.1875	967.6283	1007.1671	1033.1622	1058.0777	1072.7301	1113.8533	1145.559	1180.3159	1182.3722	1210.1559	1226.2013	1250.6048	1303.5689	1315.0668	1347.2357	1388.3154	1444.6048	1468.9177	1481.7758	1491.0047	1506.6016	1657.3706	2991.7861	3023.4943	3045.0147	3053.8788	3120.3264	3162.0854	3185.0963	3185.6052	3209.8236	3755.0792
COC12C=CCC1C2O	CO[C@]12C=CC[C@H]1[C@H]2O	
InChI=1S/C7H10O2/c1-9-7-4-2-3-5(7)6(7)8/h2,4-6,8H,3H2,1H3	InChI=1S/C7H10O2/c1-9-7-4-2-3-5(7)6(7)8/h2,4-6,8H,3H2,1H3/t5-,6+,7+/m0/s1
