17
gdb 126961	3.39805	1.03208	0.80155	0.722	72.31	-0.1933	0.014	0.2073	1398.7931	0.1368	-451.325393	-451.316124	-451.31518	-451.360046	32.797	
C	-0.0218557012	 1.5028844412	-0.0923905012	-0.40121
C	-0.1129072463	-0.007496943	 0.0924370692	-0.103266
N	 0.8455358119	-0.458651291	 1.0954976374	-0.406428
C	 0.9260450982	-1.8101672036	 1.3686361394	 0.338302
N	 0.4406299498	-2.7706472728	 0.5852519266	-0.297738
N	 0.7757935563	-3.8979183801	 1.2273706455	-0.112679
N	 1.4749441348	-3.7439321606	 2.3560890762	-0.297258
C	 1.5652517008	-2.4316975671	 2.4701988697	 0.292745
O	 2.1611122716	-1.7868718954	 3.4969512703	-0.438974
H	 0.9869742175	 1.7988998668	-0.3943625656	 0.129517
H	-0.7266784384	 1.8371475905	-0.8586944156	 0.121977
H	-0.2674870363	 2.0322422829	 0.8359263275	 0.113654
H	-1.1427824612	-0.3011717035	 0.3529619296	 0.097568
H	 0.1232193008	-0.5212965684	-0.8447143495	 0.129542
H	 0.8625387111	 0.1071074202	 1.9333581415	 0.240541
H	 0.6610702483	-4.7992991421	 0.7997293665	 0.285786
H	 2.4933132723	-2.454052934	 4.1094976525	 0.307921
70.8532	85.0137	118.3061	145.3482	256.5744	282.3457	291.3231	326.2849	345.217	422.1994	527.2998	579.1579	670.3119	689.3639	754.5931	809.0026	858.0557	932.6518	967.2973	1079.9336	1135.7174	1152.8016	1163.1587	1191.4823	1253.6549	1274.2116	1297.0967	1383.0459	1415.1833	1436.0809	1469.4201	1490.8323	1499.2264	1509.9134	1525.9741	1613.0308	1636.3493	2972.802	3033.735	3071.3446	3103.227	3122.0159	3579.4102	3700.0956	3807.4505
CCNC1=NNN=C1O	CCNc1n[nH]nc1O	
InChI=1S/C4H8N4O/c1-2-5-3-4(9)7-8-6-3/h2H2,1H3,(H3,5,6,7,8,9)	InChI=1S/C4H8N4O/c1-2-5-3-4(9)7-8-6-3/h2H2,1H3,(H3,5,6,7,8,9)
