23
gdb 114090	2.96285	1.11158	0.94757	1.2179	85.65	-0.2551	0.0774	0.3325	1349.1518	0.205616	-388.264286	-388.254845	-388.253901	-388.29862	36.218	
C	-0.2208941876	 1.5357058203	 0.0227587763	-0.495243
C	 0.0143377322	 0.0415876043	 0.0161344178	 0.393028
C	-1.2073080706	-0.9042448068	 0.1359243255	-0.275007
C	-0.4293669939	-1.7791797458	 1.1633253091	-0.233256
C	 0.7342428247	-0.741114214	 1.1850414064	-0.106817
C	 1.9424341431	-1.0079500135	 0.254292729	 0.062678
C	 2.5731499833	-2.3835500672	 0.185543594	-0.10606
O	 3.6196257719	-2.3262868657	-0.7769501177	-0.423259
C	 1.1146444178	-0.4913356273	-0.9586494771	-0.300854
H	 0.7209337654	 2.090713274	 0.1049411674	 0.112349
H	-0.7121287998	 1.8590521213	-0.9038906857	 0.114183
H	-0.8611159064	 1.8371198306	 0.8598607847	 0.108749
H	-2.0745703495	-0.4094243194	 0.5845715442	 0.092824
H	-1.5347733712	-1.3927314668	-0.7873731129	 0.089852
H	-0.9338941857	-1.8980393951	 2.1248212247	 0.099879
H	-0.1590503737	-2.7768368394	 0.8084886582	 0.096855
H	 0.9447175098	-0.2927381595	 2.1586143527	 0.054357
H	 2.7391790203	-0.292894122	 0.4867508865	 0.078723
H	 2.9592194751	-2.6667331091	 1.1795343645	 0.081128
H	 1.8226663317	-3.1370572355	-0.1002325274	 0.079998
H	 3.9829846601	-3.210706134	-0.8786490104	 0.284816
H	 0.7624430181	-1.2857193459	-1.6247435434	 0.090835
H	 1.6073907148	 0.2680791267	-1.5701213262	 0.100244
58.6095	90.2967	167.2498	214.4847	237.4986	266.8013	292.5585	347.6661	363.0109	407.8952	477.2068	608.7644	632.338	743.6044	788.6203	840.3219	867.0637	872.2235	899.001	941.2421	954.391	976.9449	1021.0904	1048.0791	1055.8988	1077.529	1109.2292	1146.6246	1157.8724	1171.8825	1208.7933	1241.7363	1243.5314	1246.313	1250.3799	1270.8196	1279.8201	1291.6112	1324.6801	1336.3279	1371.1889	1411.9016	1458.936	1476.567	1481.4735	1491.7386	1493.5595	1499.3141	1519.1061	2956.5891	2991.9305	3013.4557	3037.6992	3044.5411	3048.207	3062.9593	3075.3666	3076.716	3082.5341	3085.9768	3103.9918	3112.9495	3828.4623
CC12CCC1C(CO)C2	C[C@]12CC[C@H]1[C@@H](CO)C2	
InChI=1S/C8H14O/c1-8-3-2-7(8)6(4-8)5-9/h6-7,9H,2-5H2,1H3	InChI=1S/C8H14O/c1-8-3-2-7(8)6(4-8)5-9/h6-7,9H,2-5H2,1H3/t6-,7+,8-/m1/s1
