18
gdb 107600	2.69881	1.58933	1.15245	4.8675	71.98	-0.2514	0.0204	0.2718	1072.0005	0.149853	-439.118543	-439.110551	-439.109607	-439.150987	30.844	
O	 0.0661213783	 1.3592816551	 0.308151358	-0.422736
C	 0.0672312838	 0.000655781	-0.0751215031	-0.157812
C	-1.3308704758	-0.5760647587	-0.0529343368	 0.205868
C	-1.9641155982	-1.1403439728	 1.2012451012	-0.31213
C	-1.7369249766	-2.0339821626	 0.0152451699	-0.117211
C	-2.9161485717	-2.2256629435	-0.9370933285	-0.184696
N	-3.2395994736	-0.8641617534	-1.3416865932	-0.320539
C	-2.3189854341	 0.0781947614	-0.9824265861	 0.391852
O	-2.2900497581	 1.2390147567	-1.3578986421	-0.409889
H	-0.5998050952	 1.7855078875	-0.2532871166	 0.298098
H	 0.5012713316	-0.134129325	-1.080092255	 0.087943
H	 0.7089474192	-0.5384140846	 0.6311134015	 0.098589
H	-1.3001201406	-1.2666211498	 2.0498896567	 0.126579
H	-2.9772005782	-0.8475835284	 1.4594051686	 0.123996
H	-1.0001213804	-2.825461355	 0.078384781	 0.101855
H	-2.6277679505	-2.8398962617	-1.8004775696	 0.11632
H	-3.7708255639	-2.7106483862	-0.4499038558	 0.118813
H	-3.990737396	-0.6350944299	-1.97267079	 0.255098
111.1505	138.5255	180.8301	257.8555	270.5628	357.7205	418.352	481.8599	502.9767	584.731	629.6933	717.1076	723.5522	783.1493	832.317	880.3082	923.291	963.3476	986.2709	1034.4977	1049.322	1072.7818	1086.0869	1091.7559	1117.6477	1176.257	1218.2075	1241.9397	1271.9519	1335.4155	1352.649	1383.6738	1408.7933	1449.0663	1469.4803	1488.6291	1509.9297	1529.9686	1791.7245	2961.9455	3011.3124	3046.6369	3057.5332	3125.7397	3186.3461	3214.4653	3646.1845	3704.4912
OCC12CC1CNC2=O	OC[C@]12C[C@H]1CNC2=O	
InChI=1S/C6H9NO2/c8-3-6-1-4(6)2-7-5(6)9/h4,8H,1-3H2,(H,7,9)	InChI=1S/C6H9NO2/c8-3-6-1-4(6)2-7-5(6)9/h4,8H,1-3H2,(H,7,9)/t4-,6+/m0/s1
