15
gdb 28831	3.20031	1.38409	1.03837	6.6432	82.65	-0.2169	-0.0663	0.1506	1107.7899	0.114146	-416.845755	-416.838146	-416.837202	-416.877761	29.403	
N	 0.0789069073	 1.3571355827	 0.3836531218	-0.569198
C	-0.03235399	 0.013263239	 0.0883606266	 0.304268
C	-1.2411503283	-0.6314168746	 0.0788818001	-0.181134
C	-1.4850805341	-2.0152441626	-0.1749295773	-0.039236
C	-0.6072488352	-3.0493443731	-0.1760579251	-0.204852
C	 0.7974991821	-2.9421592576	 0.2362272881	 0.334086
O	 1.3454500326	-3.7756712506	 0.926437379	-0.331558
N	 1.5390675853	-1.8747648212	-0.2970661847	-0.232442
C	 1.2072758905	-0.6428179972	-0.3217311597	-0.021887
H	 0.9026751398	 1.835023048	 0.0531054432	 0.260476
H	-0.7601407994	 1.9147391444	 0.3440815446	 0.26014
H	-2.1243939236	-0.0143041343	 0.2298927925	 0.088858
H	-2.5306279739	-2.2641099811	-0.3437792615	 0.105955
H	-0.9663786451	-4.0601144668	-0.3411574227	 0.120373
H	 1.9502501422	 0.0419380551	-0.7502532749	 0.106149
86.8361	179.5734	299.097	327.8854	342.8059	380.095	409.893	468.7998	474.4124	535.2926	593.5059	690.7146	698.2833	791.5691	803.5579	871.8203	890.2	916.6927	959.6129	1006.4124	1028.8407	1129.8266	1203.6792	1245.0757	1315.6178	1408.2212	1441.7115	1463.705	1578.6011	1646.6022	1653.8385	1700.8174	1770.8063	3038.4061	3139.4567	3155.8744	3187.7265	3579.8398	3688.3818
NC1=CC=CC(=O)N=C1	Nc1cccc(=O)nc1	
InChI=1S/C6H6N2O/c7-5-2-1-3-6(9)8-4-5/h1-4H,7H2	InChI=1S/C6H6N2O/c7-5-2-1-3-6(9)8-4-5/h1-4H,7H2
