19
gdb 50294	3.31523	1.31479	1.24688	2.9668	79.65	-0.2377	-0.0172	0.2205	1073.5919	0.161714	-385.909164	-385.901919	-385.900975	-385.941088	29.086	
O	 0.0851709111	-0.1280096752	 0.0050009466	-0.261519
C	 0.0446230858	 1.0764868975	-0.0219319863	 0.146863
C	 1.2514406865	 1.9778239702	-0.016568866	-0.051707
C	 1.259499406	 3.0229739839	-1.1797067883	-0.246537
C	 1.4420565163	 4.3898787677	-0.4318906328	-0.051533
C	 2.3523804916	 3.9549884859	 0.7384618169	-0.211174
C	 1.3425563714	 2.9073747192	 1.2633215804	-0.079965
C	 0.0795472281	 3.7543329055	 1.3185068988	-0.083433
C	 0.143001342	 4.6386221156	 0.3170548563	-0.074926
H	-0.9302741128	 1.6156452893	-0.0529240945	 0.071953
H	 2.1352711077	 1.3360506652	-0.0529368084	 0.09207
H	 2.0888713706	 2.8256916655	-1.8641870529	 0.109577
H	 0.336952849	 3.0062317915	-1.767352635	 0.105824
H	 1.7953101072	 5.1996789095	-1.0704480727	 0.065563
H	 3.3061132873	 3.5222810083	 0.4186508019	 0.093718
H	 2.5303442697	 4.7576903312	 1.4581820721	 0.101184
H	 1.6038646991	 2.3629461585	 2.1704810493	 0.074148
H	-0.7465892149	 3.5868658067	 1.9979584828	 0.102016
H	-0.6242539117	 5.3362197939	 0.0048716217	 0.09788
74.9971	132.419	276.4058	360.0104	391.6428	426.8433	482.606	517.3951	692.2875	747.6489	772.99	817.9745	826.675	846.5072	907.3403	919.839	936.7229	955.8124	965.6417	969.6517	990.9902	1025.5238	1076.5034	1092.5587	1120.3186	1146.2151	1167.0699	1186.5951	1218.1422	1255.3127	1282.2976	1290.6678	1292.3927	1320.5825	1330.8451	1367.9564	1427.2171	1487.2079	1500.5307	1641.3322	1825.456	2867.786	3049.865	3055.0192	3077.2722	3100.1096	3112.3092	3114.0661	3120.0472	3197.8024	3223.0034
O=CC1CC2CC1C=C2	O=C[C@H]1C[C@@H]2C[C@H]1C=C2	
InChI=1S/C8H10O/c9-5-8-4-6-1-2-7(8)3-6/h1-2,5-8H,3-4H2	InChI=1S/C8H10O/c9-5-8-4-6-1-2-7(8)3-6/h1-2,5-8H,3-4H2/t6-,7+,8+/m0/s1
