15
gdb 43209	2.35666	1.73288	1.22042	3.8728	69.89	-0.2562	-0.0574	0.1988	1011.3238	0.112844	-416.781522	-416.773878	-416.772933	-416.814411	27.936	
O	-0.0047169062	 0.0080886137	-0.4687369529	-0.255598
C	-0.0366260834	 1.1578541491	-0.1731125695	 0.380073
C	-1.1176051881	 2.1958962221	 0.1378493259	-0.097171
C	-1.6143406233	 2.2332469994	 1.6046062735	-0.255213
C	-0.4364995177	 3.2045111053	 1.8858278403	-0.182283
N	-0.0459234135	 3.2351956915	 0.4302867103	-0.141917
C	 1.0496562169	 2.2729435972	 0.0608838345	-0.242138
C	 2.1045056167	 2.0148955457	 1.0219503763	 0.298394
N	 2.9231291958	 1.7992918457	 1.809998292	-0.322444
H	-1.8351815599	 2.3934465818	-0.6624064628	 0.118882
H	-2.6035359109	 2.6807142032	 1.7081025093	 0.130499
H	-1.6029378014	 1.2788916981	 2.1336699598	 0.135401
H	-0.7265991053	 4.1987845719	 2.2313171064	 0.127858
H	 0.3437403696	 2.8210917868	 2.5487787742	 0.142441
H	 1.4962658707	 2.5686404985	-0.8964327373	 0.163216
53.6922	125.4775	166.0288	192.8893	364.0764	379.7634	494.9456	524.3396	578.1556	669.2477	736.4965	773.9992	819.4493	874.5328	906.8432	937.7383	979.5667	1028.1205	1048.9237	1073.0199	1086.4468	1169.4463	1181.158	1190.3504	1222.5332	1249.6544	1280.8331	1306.7744	1321.8459	1487.0647	1512.066	1918.1107	2348.9922	3041.2399	3065.6236	3081.3454	3087.5825	3113.0953	3141.2009
O=C1C2CCN2C1C#N	O=C1[C@H]2CCN2[C@H]1C#N	
InChI=1S/C6H6N2O/c7-3-5-6(9)4-1-2-8(4)5/h4-5H,1-2H2	InChI=1S/C6H6N2O/c7-3-5-6(9)4-1-2-8(4)5/h4-5H,1-2H2/t4-,5+/m1/s1
