18
gdb 99556	2.1703	1.30868	0.86378	3.7933	78.57	-0.281	0.0161	0.2971	1331.7244	0.144174	-401.917161	-401.906776	-401.905832	-401.952845	36.418	
C	-0.2541015472	 1.3526458833	 0.0798949056	-0.24514
O	 0.1743807779	 0.0098807845	-0.0547032674	-0.236714
C	 0.7515559126	-0.5313162514	 1.1169466769	-0.054166
C	-0.2284459747	-0.6852639241	 2.1980649777	 0.328859
C	-1.0463228389	-0.813172502	 3.068785344	-0.441733
C	 1.36482885	-1.8955305026	 0.6948414107	-0.15291
C	 2.3924440098	-1.7356434911	-0.4405596711	-0.40307
C	 1.9720423309	-2.5596365544	 1.8509513809	 0.271226
N	 2.4836669439	-3.0828608751	 2.7451062697	-0.322731
H	 0.5828037808	 2.0143148129	 0.3488118418	 0.111831
H	-0.6497580984	 1.6540190709	-0.8919215467	 0.135354
H	-1.0403949263	 1.4512851826	 0.8388950423	 0.128487
H	 1.5693276216	 0.1205839331	 1.4688226862	 0.10861
H	-1.7581883077	-0.93085919	 3.8487717007	 0.208974
H	 0.532623774	-2.5186658407	 0.347840566	 0.144874
H	 3.2383974585	-1.1237259619	-0.1138984484	 0.133469
H	 2.7759951075	-2.7118107466	-0.745598998	 0.13656
H	 1.9162364358	-1.2526724073	-1.2939767508	 0.148219
54.3219	99.1916	112.8494	163.2734	178.7076	211.0863	223.997	255.5939	296.6328	333.4146	420.605	469.1783	538.0571	581.6593	610.4479	647.6157	684.2876	849.3688	892.131	978.0483	997.8695	1084.1282	1093.8298	1134.8899	1149.1347	1184.2819	1217.7412	1277.6046	1325.5328	1351.7733	1360.677	1405.545	1478.2473	1484.9975	1492.8235	1499.5565	1510.0621	2235.117	2361.716	2960.8145	2992.5544	3053.3257	3058.0155	3058.7554	3127.733	3129.9743	3157.6835	3500.1684
COC(C#C)C(C)C#N	CO[C@@H](C#C)[C@@H](C)C#N	
InChI=1S/C7H9NO/c1-4-7(9-3)6(2)5-8/h1,6-7H,2-3H3	InChI=1S/C7H9NO/c1-4-7(9-3)6(2)5-8/h1,6-7H,2-3H3/t6-,7-/m0/s1
