20
gdb 110599	3.31147	1.07309	1.06361	1.4059	79.09	-0.2162	0.0642	0.2804	1254.6257	0.170034	-403.04552	-403.036763	-403.035819	-403.079009	33.992	
C	 0.1246819989	 1.5772543462	 0.159780353	-0.465857
C	 0.0666222215	 0.0828194243	 0.1034991984	 0.355577
C	-0.8543952957	-0.7625163065	 0.9496791984	-0.349524
C	 0.6305120055	-0.9952877579	 1.0026705369	-0.116597
C	 1.1754567786	-1.6621615139	-0.2652484033	-0.066615
C	 0.2460151795	-1.9343385791	-1.3892976311	-0.022536
C	-1.178142077	-2.4927728051	-1.4820456111	-0.114432
O	-1.3644341714	-3.1817849698	-2.7097855049	-0.425447
N	 0.6776350826	-0.5354979217	-1.1532288197	-0.212378
H	 1.1239858301	 1.9365668575	-0.1043544466	 0.128966
H	-0.586104939	 2.019222185	-0.5490961264	 0.122043
H	-0.1249611063	 1.9412708441	 1.1611145253	 0.114868
H	-1.2308638073	-0.2143888366	 1.8096698046	 0.113987
H	-1.5540878888	-1.4996133448	 0.5833991114	 0.116957
H	 1.2155676192	-0.9038726811	 1.9083900325	 0.093301
H	 2.2150815835	-1.9738463782	-0.3225964364	 0.097109
H	 0.8018706269	-2.305100601	-2.2525909859	 0.105687
H	-1.3625607372	-3.2370113815	-0.7013398385	 0.128609
H	-1.9193579107	-1.6914744459	-1.371395408	 0.110904
H	-1.3379263629	-2.5305775838	-3.4184272685	 0.285378
49.9803	151.7091	193.3924	222.6801	292.0593	303.4023	344.6075	374.2983	413.6518	472.2569	580.561	630.9826	686.9321	755.2839	782.8534	846.997	883.1982	900.1797	937.0341	954.7632	981.3814	1014.7139	1031.4849	1051.6447	1069.9532	1082.1552	1094.0482	1115.3159	1150.9073	1201.5968	1229.1971	1260.0049	1274.7619	1350.5419	1361.9292	1390.5995	1414.2809	1422.4853	1431.8009	1474.4872	1495.2216	1500.7284	1511.2838	3016.692	3026.3492	3083.6666	3089.422	3092.5661	3111.6474	3137.7442	3140.2001	3196.6244	3239.4906	3814.6047
CC12CC1C1C(CO)N21	C[C@]12C[C@H]1[C@H]1[C@@H](CO)N21	
InChI=1S/C7H11NO/c1-7-2-4(7)6-5(3-9)8(6)7/h4-6,9H,2-3H2,1H3	InChI=1S/C7H11NO/c1-7-2-4(7)6-5(3-9)8(6)7/h4-6,9H,2-3H2,1H3/t4-,5+,6-,7-,8?/m0/s1
