25
gdb 101337	2.44489	1.02228	0.81114	1.213	90.29	-0.2454	0.081	0.3264	1569.9889	0.226759	-389.475495	-389.464293	-389.463349	-389.512569	40.446	
C	 0.3444713292	 1.6784631302	 0.0194925369	-0.371113
C	-0.1466468719	 0.2335258164	-0.1294937635	-0.204839
C	 0.5196123977	-0.4830683383	-1.2878138205	 0.002298
C	 1.8465000118	-1.1907639241	-1.127675042	-0.291529
C	 0.5978205267	-1.9867591443	-1.4251360276	-0.034035
C	 0.0215072543	-2.9890234627	-0.4354749453	 0.115345
C	 0.4087181816	-4.4195832266	-0.8328732517	-0.39923
O	 0.4875776545	-2.6765480543	 0.8737070922	-0.238907
C	-0.2783422593	-3.2256997479	 1.9204554841	-0.237264
H	 1.423512664	 1.7090648546	 0.2042817271	 0.116442
H	 0.1490371637	 2.2610082644	-0.888173712	 0.107656
H	-0.154457312	 2.1842870848	 0.8524496063	 0.104659
H	 0.036731444	-0.3206200671	 0.7941134627	 0.116357
H	-1.2350741756	 0.23599721	-0.281212365	 0.085027
H	 0.3906920205	 0.034587755	-2.2375373653	 0.071871
H	 2.600750175	-1.0907724071	-1.9007938302	 0.099505
H	 2.2368388656	-1.2730992539	-0.1197616516	 0.126791
H	 0.5043982171	-2.3484948446	-2.4461801529	 0.076889
H	-1.0797604118	-2.9065170741	-0.442790704	 0.063112
H	 0.019617259	-4.6592118801	-1.8275241164	 0.113756
H	 1.4979700582	-4.5214017903	-0.8521897493	 0.126804
H	 0.0031954071	-5.1564824778	-0.1339155004	 0.111109
H	 0.1344312936	-2.8397937264	 2.8560898144	 0.125901
H	-1.335990222	-2.9272656732	 1.8502869681	 0.104961
H	-0.2320801112	-4.3238372226	 1.9493066959	 0.108433
48.747	57.8095	83.6344	126.9726	191.7841	196.1438	219.1391	231.4265	267.8253	300.9108	347.4218	402.6194	439.1932	562.2643	602.7747	752.1009	775.1255	801.7526	857.377	867.1414	945.6526	954.1523	976.1031	1026.5708	1041.0713	1065.6533	1089.072	1116.2986	1119.9048	1138.4368	1147.345	1177.6965	1182.1684	1203.8159	1225.0458	1255.1718	1296.6892	1338.0556	1348.3802	1381.633	1402.1012	1405.2936	1411.8889	1430.8233	1476.457	1482.7418	1488.0504	1492.7423	1497.7353	1498.5011	1502.5033	1509.4691	1513.1913	2941.6448	2978.2541	3010.9276	3027.1133	3027.9572	3040.7122	3084.8293	3100.4659	3101.7094	3108.5134	3110.0272	3117.2177	3118.339	3132.3353	3137.8566	3225.1663
CCC1CC1C(C)OC	CC[C@H]1C[C@H]1[C@@H](C)OC	
InChI=1S/C8H16O/c1-4-7-5-8(7)6(2)9-3/h6-8H,4-5H2,1-3H3	InChI=1S/C8H16O/c1-4-7-5-8(7)6(2)9-3/h6-8H,4-5H2,1-3H3/t6-,7+,8+/m1/s1
