20
gdb 57632	2.96574	1.01495	0.96628	4.6585	79.98	-0.2597	0.0265	0.2862	1341.3528	0.167961	-403.13843	-403.12847	-403.127526	-403.173743	36.713	
C	-0.2785211639	 1.4819268685	-0.1364180662	-0.413528
C	-0.0078885204	-0.0150965508	 0.1013314573	 0.206232
C	 0.9691207687	-0.2302003925	 1.2737843366	-0.415725
O	-1.2059990124	-0.7818061954	 0.2683270117	-0.287117
C	-2.0610871241	-0.4140050689	 1.3138403323	 0.137931
C	-3.2258550749	 0.5053239051	 1.0427944478	-0.285676
C	-3.4405552337	-0.9821923161	 1.2298140606	-0.289956
C	 0.6027481404	-0.5807347874	-1.1233270457	 0.280746
N	 1.112611362	-0.9910780634	-2.0746739791	-0.336815
H	 0.658114674	 1.9987862325	-0.3605036212	 0.136473
H	-0.9620289618	 1.6191931388	-0.9767466734	 0.14094
H	-0.7187503699	 1.9304719511	 0.7566650456	 0.132031
H	 0.5853456894	 0.241263983	 2.1821928627	 0.125969
H	 1.1070696143	-1.298244302	 1.4552438266	 0.145135
H	 1.9400324847	 0.2166490651	 1.045751459	 0.138717
H	-1.593817986	-0.3701974796	 2.295163858	 0.091486
H	-3.5435103265	 1.1870871559	 1.8245806153	 0.115061
H	-3.3252543296	 0.8891250783	 0.0344515694	 0.124603
H	-3.6646764983	-1.5623578013	 0.3422050159	 0.134545
H	-3.9073408422	-1.3397619208	 2.1402342067	 0.118947
32.2635	102.3226	132.1417	189.3127	229.6219	237.861	268.3618	322.4528	332.382	383.4622	429.6987	483.5857	575.9347	586.5658	714.8772	759.0077	814.1714	822.0932	892.1071	923.9686	947.8456	984.1867	1017.201	1026.4731	1060.3652	1075.2806	1128.0851	1180.8566	1186.0121	1190.5498	1195.5999	1238.6696	1263.7496	1391.9331	1397.1998	1415.9471	1453.7927	1477.5918	1479.8057	1491.9705	1498.535	1504.112	2365.5999	3051.7045	3057.3829	3121.4191	3129.2246	3134.5492	3137.4372	3140.4393	3143.3292	3145.2031	3223.8029	3238.418
CC(C)(OC1CC1)C#N	CC(C)(OC1CC1)C#N	
InChI=1S/C7H11NO/c1-7(2,5-8)9-6-3-4-6/h6H,3-4H2,1-2H3	InChI=1S/C7H11NO/c1-7(2,5-8)9-6-3-4-6/h6H,3-4H2,1-2H3
