15
gdb 33059	6.49467	0.8042	0.7221	5.2536	64.17	-0.2409	0.0134	0.2544	1492.5613	0.111366	-494.931604	-494.923179	-494.922235	-494.965881	29.059	
C	 0.5162302172	 1.4754732824	 0.129250337	-0.228454
O	 0.7608111198	 0.0862940344	 0.0766794757	-0.233809
C	-0.0079727141	-0.6371867324	 1.0014314662	-0.168991
C	 0.3394370564	-2.0736252285	 0.847118407	 0.291807
C	 1.1772493191	-2.735180099	 0.0557485982	-0.116422
O	 1.0914687072	-4.0870524671	 0.3483679518	-0.210102
C	 0.1720560724	-4.2324209602	 1.3465118798	 0.498434
O	-0.1626529106	-5.2525063936	 1.8540196248	-0.368322
O	-0.3038171204	-2.9837835589	 1.6658669246	-0.248248
H	 0.7589330614	 1.8920526084	 1.1184894019	 0.115174
H	 1.1568531648	 1.9430655127	-0.62089515	 0.138292
H	-0.534320423	 1.7104850095	-0.0991196763	 0.115177
H	 0.1918693271	-0.3131693611	 2.0383299427	 0.119311
H	-1.0899302482	-0.4936928395	 0.8315243326	 0.119326
H	 1.8599026608	-2.429308257	-0.7144551261	 0.176829
57.6035	67.5258	121.4036	187.0641	224.216	304.9031	342.1006	354.3825	565.0917	593.0929	724.375	752.0437	781.5704	786.0153	923.1522	969.8788	1003.7848	1052.5309	1064.8867	1132.1826	1167.2389	1183.7421	1228.2109	1236.4777	1250.0263	1309.3038	1438.4061	1483.0743	1485.6745	1501.471	1522.2281	1749.9252	1942.1733	2945.7581	2964.1124	2982.1321	3030.9671	3128.4451	3326.8481
COCC1=COC(=O)O1	COCc1coc(=O)o1	
InChI=1S/C5H6O4/c1-7-2-4-3-8-5(6)9-4/h3H,2H2,1H3	InChI=1S/C5H6O4/c1-7-2-4-3-8-5(6)9-4/h3H,2H2,1H3
