19
gdb 108071	2.58787	1.68831	1.27433	1.0334	75.08	-0.211	0.079	0.2901	1051.2145	0.157644	-422.949504	-422.941042	-422.940098	-422.982326	32.384	
C	 0.1393016156	 1.2480371689	 0.2043856289	-0.260522
O	-0.1236335744	-0.1030401158	-0.1482425018	-0.279844
C	 0.5916318326	-0.5317389333	-1.2378862773	 0.344395
C	 0.4393483921	-0.1271766038	-2.7088642729	-0.31315
C	 1.3143885006	-1.3810439741	-2.9719300056	 0.064118
O	 2.6183310857	-1.0270884445	-2.4281116662	-0.325085
C	 2.0167374021	-1.1411084329	-1.1314462542	 0.39559
C	 2.8693992417	-1.1730876119	 0.0887048576	-0.512732
C	 0.8619195805	-1.9830892722	-1.5931771579	-0.273377
H	 1.2008617644	 1.404841538	 0.4363044473	 0.116344
H	-0.1493192413	 1.935923014	-0.6018429796	 0.118726
H	-0.4607293932	 1.4666359773	 1.0900540119	 0.1294
H	-0.5890463269	-0.2713349032	-3.0508318496	 0.10737
H	 0.8420990681	 0.8275268648	-3.060668517	 0.099036
H	 1.3593721513	-1.8771306843	-3.9383770138	 0.089504
H	 3.4957779489	-0.2761931134	 0.1460627773	 0.130373
H	 2.2357934473	-1.2092470481	 0.9795772534	 0.136351
H	 3.5272399148	-2.0479578014	 0.0921057754	 0.129794
H	 0.43033242	-2.9202863941	-1.270049266	 0.103707
97.6993	161.8119	174.9975	206.1607	227.7217	265.084	404.6974	420.5785	465.4744	512.7337	637.3927	669.2612	742.9306	789.8838	808.6493	878.1962	899.0054	926.6697	930.6544	998.9655	1046.7839	1069.4039	1075.3845	1092.9483	1119.2793	1141.8617	1161.1546	1181.8766	1205.7524	1240.8747	1246.384	1289.0875	1353.0801	1400.0711	1446.2778	1476.5818	1480.028	1488.2389	1495.8499	1503.4181	1507.3312	3001.6023	3033.8423	3048.2716	3058.419	3096.7732	3113.4468	3118.2358	3126.7055	3149.9221	3210.2801
COC12CC3OC1(C)C23	CO[C@@]12C[C@H]3O[C@]1(C)[C@@H]23	
InChI=1S/C7H10O2/c1-6-5-4(9-6)3-7(5,6)8-2/h4-5H,3H2,1-2H3	InChI=1S/C7H10O2/c1-6-5-4(9-6)3-7(5,6)8-2/h4-5H,3H2,1-2H3/t4-,5+,6-,7-/m1/s1
