18
gdb 97831	3.96009	0.69497	0.62817	2.3004	84.27	-0.2347	-0.0272	0.2074	1814.0694	0.145886	-401.91259	-401.902961	-401.902017	-401.949082	33.673	
C	 0.0508610026	 1.6246920543	 0.4581623713	-0.365673
C	 0.0522634445	 0.183740539	-0.0838624414	-0.317666
C	-1.2838025351	-0.3875297734	-0.2074995061	 0.13002
C	-2.3955003635	-0.8409979502	-0.3090020898	 0.082637
C	-3.7178786679	-1.4207322903	-0.4041376395	-0.310478
N	-4.1625318791	-1.9012939759	-1.7513341671	-0.306354
C	-4.6568529937	-3.1978939567	-1.2237551845	-0.286902
C	-3.9491380606	-2.8812875568	 0.1002393721	 0.394997
O	-3.6683971862	-3.4838784941	 1.0862132541	-0.269521
H	 1.0740230471	 2.0049930077	 0.5314925834	 0.115498
H	-0.5170964181	 2.2872457174	-0.2005371729	 0.127564
H	-0.4038731376	 1.6654684051	 1.4516010868	 0.129529
H	 0.5440402063	 0.1591924135	-1.0648132078	 0.133315
H	 0.6581191794	-0.4555627797	 0.5710908285	 0.134422
H	-4.4563156074	-0.7694895134	 0.0925622739	 0.116044
H	-4.8783800092	-1.3192654952	-2.169871447	 0.227947
H	-5.7446482529	-3.2860124912	-1.0892014776	 0.124274
H	-4.2979201887	-4.0786956002	-1.7666595262	 0.140346
22.5117	72.826	80.019	126.5731	175.8317	220.2286	302.1973	386.2977	413.9598	480.4209	510.7075	572.4672	621.3375	702.6828	784.1503	790.4345	867.3992	952.5757	989.6198	995.0326	1026.1708	1066.9717	1080.8392	1094.1145	1103.131	1186.1648	1201.548	1272.7416	1286.0013	1333.1661	1353.2941	1368.9932	1409.4037	1471.716	1474.989	1495.2177	1505.3339	1927.8335	2361.7187	2964.049	3006.2742	3021.5775	3044.877	3049.2331	3072.068	3118.2953	3124.1678	3549.5877
CCC#CC1NCC1=O	CCC#C[C@H]1NCC1=O	
InChI=1S/C7H9NO/c1-2-3-4-6-7(9)5-8-6/h6,8H,2,5H2,1H3	InChI=1S/C7H9NO/c1-2-3-4-6-7(9)5-8-6/h6,8H,2,5H2,1H3/t6-/m1/s1
