27
gdb 100679	2.63606	0.93586	0.85049	1.3167	91.8	-0.2629	0.0732	0.3361	1565.3464	0.249177	-390.696892	-390.684824	-390.68388	-390.733456	45.071	
C	 0.0760232495	 1.5652401584	-0.1266877219	-0.389585
C	-0.1757416462	 0.0711099967	 0.1092675945	-0.18244
C	 0.64234639	-0.5258636083	 1.2782277954	 0.034697
C	 0.0438918323	-0.0662824955	 2.620894966	-0.419388
C	 0.8273572398	-2.0786778151	 1.1630112874	 0.257444
C	-0.5155907758	-2.8169971598	 0.998648976	-0.418182
C	 1.7418401303	-2.406138663	-0.0359573077	-0.418918
C	 1.522593266	-2.597863062	 2.4384333759	-0.099908
O	 1.8380845323	-3.975846975	 2.2710782288	-0.426736
H	 1.1288732784	 1.752832773	-0.3659460149	 0.113522
H	-0.5248279805	 1.9347401108	-0.9638822922	 0.110236
H	-0.1766013583	 2.1733663835	 0.7477127338	 0.115972
H	-1.2447683063	-0.0917952033	 0.2967159488	 0.094423
H	 0.0514053857	-0.4610641164	-0.8195635577	 0.096098
H	 1.6546690666	-0.099074365	 1.2132183692	 0.062139
H	-0.9200167548	-0.5480385018	 2.8178049889	 0.116162
H	 0.7034761906	-0.2757071525	 3.4671205165	 0.112632
H	-0.1295935963	 1.013657696	 2.6149108522	 0.111876
H	-0.993088402	-2.5760913894	 0.0448345576	 0.107751
H	-0.3494706121	-3.8965303392	 1.0321454863	 0.128653
H	-1.2194168957	-2.5648333134	 1.7990778476	 0.103386
H	 2.7034195158	-1.8872188648	 0.0523837854	 0.100787
H	 1.9442980214	-3.4779967905	-0.075726136	 0.133551
H	 1.2892909457	-2.1131625687	-0.9869308358	 0.107191
H	 2.4371143296	-2.0086088937	 2.6212046667	 0.078064
H	 0.8621421725	-2.4657680102	 3.3060285936	 0.084723
H	 2.1786006519	-4.3067725108	 3.1064492556	 0.285852
68.1129	81.1258	130.1154	174.6913	215.3563	222.3648	228.4875	244.1142	250.1248	278.9828	320.1223	329.2765	345.0855	360.8625	384.1217	438.196	476.8571	596.4301	727.4025	774.2028	828.929	894.5045	929.8528	953.6345	961.2973	979.7696	993.127	1018.0916	1038.9992	1065.7146	1097.9864	1133.7091	1168.704	1197.319	1216.8892	1238.0886	1282.3196	1291.6024	1300.3951	1341.5301	1365.2631	1382.0947	1397.5216	1406.2421	1413.7235	1418.194	1455.7324	1479.07	1486.0325	1494.3626	1499.3527	1500.8814	1501.7958	1507.8052	1513.7139	1517.49	1525.9421	2957.4681	2985.1834	3018.2619	3026.6914	3031.517	3035.0447	3038.857	3044.2132	3070.0292	3097.4203	3100.1186	3101.749	3106.8991	3108.218	3112.0648	3123.6373	3134.7364	3840.158
CCC(C)C(C)(C)CO	CC[C@@H](C)C(C)(C)CO	
InChI=1S/C8H18O/c1-5-7(2)8(3,4)6-9/h7,9H,5-6H2,1-4H3	InChI=1S/C8H18O/c1-5-7(2)8(3,4)6-9/h7,9H,5-6H2,1-4H3/t7-/m1/s1
