18
gdb 92426	2.1541	1.67774	1.29336	1.6561	71.73	-0.2267	-0.0336	0.1931	1050.555	0.147016	-439.039998	-439.031567	-439.030622	-439.073511	31.37	
O	 0.2356702167	 1.2102046014	-0.6135639764	-0.421855
C	 0.0224122119	-0.0995724476	-0.1471111122	 0.040104
C	 0.2282062727	-0.2481736906	 1.3767653932	-0.192244
N	-1.1479739367	-0.819206416	 1.5743010167	-0.1801
C	-2.1493206948	 0.2331907818	 1.949829345	-0.162365
C	-2.465626026	 0.5440081179	 0.4635976624	-0.308581
C	-1.4382469366	-0.563107434	 0.1004107589	 0.247359
C	-1.9575562305	-1.7043445958	-0.7228949823	 0.073208
O	-1.5958623416	-1.9368575156	-1.850441766	-0.2574
H	 0.1769640763	 1.1995666333	-1.5748163441	 0.293271
H	 0.5761446606	-0.8314263624	-0.7451616302	 0.092644
H	 1.0156677943	-0.9408512958	 1.6843420012	 0.112989
H	 0.3821181406	 0.7145166812	 1.8749636104	 0.11489
H	-2.9850501006	-0.1961474693	 2.5099432358	 0.11082
H	-1.7277012866	 1.0562573574	 2.5358511134	 0.110032
H	-3.4929306488	 0.3444118413	 0.1505093051	 0.112558
H	-2.1629294447	 1.5282710204	 0.1026327528	 0.131087
H	-2.724809506	-2.3311063976	-0.2139410837	 0.083582
66.5124	83.4852	151.4148	236.4507	269.7427	328.9821	374.9892	395.4891	486.6909	525.3465	659.7944	688.9008	760.5851	809.9054	871.5322	902.2119	927.5556	954.4767	968.1392	1016.8222	1033.2398	1057.4847	1143.5956	1154.0699	1171.7729	1197.4843	1221.7992	1238.3013	1256.9289	1264.6117	1300.6058	1308.6855	1334.3295	1409.4797	1442.6504	1478.5461	1490.975	1514.8493	1813.681	2876.7021	3041.6256	3045.7086	3048.594	3070.8321	3087.9308	3103.444	3132.8986	3812.8064
OC1CN2CCC12C=O	O[C@H]1CN2CC[C@@]12C=O	
InChI=1S/C6H9NO2/c8-4-6-1-2-7(6)3-5(6)9/h4-5,9H,1-3H2	InChI=1S/C6H9NO2/c8-4-6-1-2-7(6)3-5(6)9/h4-5,9H,1-3H2/t5-,6+/m0/s1
