19
gdb 108586	2.50658	1.45613	1.21936	2.3529	70.64	-0.2314	0.0747	0.3061	1114.4693	0.158486	-460.133411	-460.124693	-460.123749	-460.166772	32.762	
C	-0.2300837862	 1.4697986434	 0.2094270752	-0.377218
C	 0.347612771	 0.061819706	 0.0209211316	-0.270022
C	 0.7569977119	-0.5806561426	 1.317935261	 0.319217
O	 1.7987138973	 0.0827728807	 2.0372179427	-0.308705
C	 2.8323243308	-0.8843117146	 2.1647118696	 0.006787
O	 2.1952770933	-2.1306730522	 2.3416024865	-0.248805
C	 1.003975576	-2.0454083474	 1.5904389163	-0.054222
C	-0.156945152	-1.3230783505	 2.2736846621	 0.061342
O	-0.1422095402	-1.0335010025	 3.6254827426	-0.427344
H	 0.5029341242	 2.1252858166	 0.6878001403	 0.133633
H	-0.5059274349	 1.9108568893	-0.7527294011	 0.113199
H	-1.1235409871	 1.4468505114	 0.8415954462	 0.123777
H	-0.3916458788	-0.5883304121	-0.4626127306	 0.102592
H	 1.2163775345	 0.0975712878	-0.6493067402	 0.103168
H	 3.4575702383	-0.8894482445	 1.2558765194	 0.096553
H	 3.4337881051	-0.6527681126	 3.047657106	 0.124181
H	 0.8521446051	-2.8362288403	 0.8623196241	 0.103316
H	-1.1519792665	-1.5756143982	 1.915719713	 0.105077
H	 0.5897825782	-0.4161384278	 3.7598655553	 0.293473
83.8845	143.9527	170.661	190.6261	218.1996	280.3705	338.5371	364.3533	397.1757	544.2246	629.1216	691.1063	728.5298	746.7326	784.5245	841.8016	899.269	943.9253	986.4619	1021.6238	1026.6685	1050.5177	1074.4954	1113.4184	1123.6859	1165.3486	1183.6808	1215.033	1224.6213	1239.2244	1302.5288	1320.465	1354.159	1389.1916	1408.5036	1418.4678	1466.3079	1474.5812	1496.4814	1508.8128	1537.3307	2961.4848	3021.0553	3041.6235	3059.6041	3100.3201	3111.0035	3120.3727	3143.9025	3157.0894	3752.3156
CCC12OCOC1C2O	CC[C@]12OCO[C@H]1[C@H]2O	
InChI=1S/C6H10O3/c1-2-6-4(7)5(6)8-3-9-6/h4-5,7H,2-3H2,1H3	InChI=1S/C6H10O3/c1-2-6-4(7)5(6)8-3-9-6/h4-5,7H,2-3H2,1H3/t4-,5+,6-/m1/s1
