15
gdb 22641	5.92728	0.85087	0.75091	4.008	77.86	-0.2567	-0.0482	0.2085	1401.0089	0.112558	-416.800218	-416.792079	-416.791134	-416.833359	29.941	
O	-0.1531617756	 1.3084945633	 0.0062080285	-0.390966
N	 0.0016193972	-0.0859858341	 0.0021067813	-0.210995
C	-1.1269789284	-0.6686442739	 0.0090535069	 0.388744
C	-2.5020123955	-0.0279169355	 0.0203268777	-0.343074
C	-3.4196761614	-1.2171942772	 0.0249045897	-0.162535
C	-2.7490451453	-2.3787173174	 0.0174994886	 0.198703
C	-1.243378331	-2.1825571102	 0.0067775063	-0.400098
C	-3.3410185278	-3.6707946726	 0.0192922037	 0.207268
N	-3.7940465084	-4.736900124	 0.0204570029	-0.329378
H	 0.7593227305	 1.6174468876	 0.0003249777	 0.311566
H	-2.6365582617	 0.6206985116	 0.8962243213	 0.150344
H	-2.6494405395	 0.6239141441	-0.8511101795	 0.150348
H	-4.499433391	-1.1340366108	 0.0331026163	 0.128556
H	-0.7767735294	-2.6333450697	-0.8765895236	 0.150756
H	-0.7636766026	-2.6370240012	 0.8811966822	 0.150763
56.2957	138.1317	170.8644	240.2481	286.1236	373.219	394.9792	421.5405	505.7699	563.0076	568.1039	608.3065	696.9022	827.2923	851.6942	881.4757	930.6289	974.5979	1000.5743	1007.2759	1139.4609	1159.6332	1174.4354	1215.0633	1283.3303	1296.2345	1326.7259	1405.7484	1449.4223	1468.076	1674.1882	1763.6163	2340.5275	3024.207	3040.6047	3044.0677	3070.491	3217.5852	3816.6815
ON=C1CC=C(C1)C#N	ON=C1CC=C(C1)C#N	
InChI=1S/C6H6N2O/c7-4-5-1-2-6(3-5)8-9/h1,9H,2-3H2	InChI=1S/C6H6N2O/c7-4-5-1-2-6(3-5)8-9/h1,9H,2-3H2
