18
gdb 131801	5.65602	0.65119	0.62248	5.7902	74.38	-0.2501	0.0023	0.2525	1750.633	0.148687	-435.261342	-435.252326	-435.251381	-435.296906	31.55	
O	-0.0191252223	 1.4361107831	-0.2631857128	-0.419074
C	 0.0467036395	 0.0468087951	 0.0074806935	-0.072735
C	-1.3714270516	-0.5054527395	-0.0634472451	-0.16342
C	-1.4225309445	-2.0247774058	 0.1799601416	-0.336586
C	-2.8057939634	-2.5898231958	 0.1504966457	 0.348728
C	-3.6108315557	-3.1545995138	 1.113992357	-0.154919
N	-4.8056933675	-3.5037478341	 0.5592490808	-0.184987
N	-4.7960623397	-3.1884001287	-0.7019478504	-0.1167
N	-3.5910928914	-2.6355968539	-0.9565485455	-0.233511
H	 0.868556319	 1.8003460432	-0.1999849943	 0.288999
H	 0.6864255819	-0.4751620762	-0.7240108437	 0.08546
H	 0.4707720301	-0.149441328	 1.0061586131	 0.089644
H	-1.9936595788	 0.0110084977	 0.6749741746	 0.12375
H	-1.7880481302	-0.2615715196	-1.0479879491	 0.105332
H	-0.795397544	-2.5360851748	-0.5629355749	 0.117336
H	-0.9866102382	-2.2565928171	 1.1575441818	 0.125523
H	-3.3971420356	-3.3276419003	 2.156645992	 0.119568
H	-3.3860098075	-2.3193097214	-1.8910500746	 0.277593
31.8037	76.6308	90.998	119.2381	246.9267	261.1233	311.6962	328.5084	465.6685	579.1411	683.3108	729.1687	747.8124	756.9815	846.111	865.6954	995.2233	1019.9723	1030.1861	1061.1227	1072.1483	1087.4119	1094.3578	1138.5555	1205.0989	1232.6635	1238.2886	1292.7746	1304.9196	1315.2068	1335.7179	1378.6639	1384.2633	1440.3011	1466.2621	1485.3085	1499.2385	1528.2364	1609.7997	2955.6755	2981.5814	3016.7028	3040.0368	3069.8611	3093.3613	3266.5711	3654.316	3831.2862
OCCCC1=CN=NN1	OCCCc1cnn[nH]1	
InChI=1S/C5H9N3O/c9-3-1-2-5-4-6-8-7-5/h4,9H,1-3H2,(H,6,7,8)	InChI=1S/C5H9N3O/c9-3-1-2-5-4-6-8-7-5/h4,9H,1-3H2,(H,6,7,8)
