18
gdb 53270	1.8021	1.03608	0.69208	1.1838	91.22	-0.2269	0.0318	0.2587	1660.8229	0.144855	-364.735398	-364.724701	-364.723757	-364.775469	35.625	
C	 0.310863908	 1.5264883089	-0.1034509632	-0.500864
C	 0.1885114085	 0.0777541786	-0.0516492107	 0.122875
C	 0.0788769119	-1.1199593563	 0.0053255839	 0.124612
C	-0.0287060141	-2.5501465185	 0.0311307793	-0.25961
N	-0.4999189517	-3.1926311892	 1.275477544	-0.319005
C	-1.3580024119	-3.2684244322	 0.0749880487	-0.25961
C	-2.6134308184	-2.5747328525	 0.0941538667	 0.124613
C	-3.6772787833	-2.0111037489	 0.0759001349	 0.122873
C	-4.9576068774	-1.3202969526	 0.0703685026	-0.500864
H	 1.3476726699	 1.8331008303	-0.2810779378	 0.147417
H	-0.3031631408	 1.9506630161	-0.9057511131	 0.147953
H	-0.0128912661	 1.9825024058	 0.8386407607	 0.152212
H	 0.7448429451	-3.0733743954	-0.5291068074	 0.106941
H	-0.0166922117	-4.0792604682	 1.4009858795	 0.235935
H	-1.3722109218	-4.2173126839	-0.4592596308	 0.106941
H	-5.0184938184	-0.5987958921	-0.7520463995	 0.147949
H	-5.7899438794	-2.0238569937	-0.0425652687	 0.147419
H	-5.1123210185	-0.7711741963	 1.0056923911	 0.152214
11.2268	13.4469	47.8994	109.6472	134.7765	151.0655	245.1335	310.4698	336.9439	341.7105	437.3399	493.1702	547.4483	593.4522	687.5589	788.2735	860.2198	874.6563	931.8246	1050.4524	1051.6944	1051.7057	1053.0954	1059.5946	1101.8435	1159.5032	1203.9143	1213.2316	1269.73	1407.1763	1412.7848	1414.275	1442.5549	1476.4565	1476.9711	1477.6171	1478.2669	2373.0796	2376.1502	3025.6063	3025.9712	3085.5918	3085.7068	3088.2351	3088.3131	3106.7761	3115.9937	3495.5761	11.1993	13.424	47.899	109.6474	134.7763	151.0656	245.1334	310.4702	336.9444	341.7109	437.3401	493.1703	547.4482	593.4517	687.5591	788.2735	860.2201	874.6565	931.8241	1050.4525	1051.6947	1051.7061	1053.0957	1059.5944	1101.8435	1159.5027	1203.914	1213.2315	1269.7294	1407.1756	1412.7851	1414.2754	1442.5545	1476.4573	1476.9718	1477.6177	1478.2675	2373.0797	2376.1503	3025.6063	3025.9711	3085.5918	3085.7068	3088.235	3088.3131	3106.7761	3115.9937	3495.5762
CC#CC1NC1C#CC	CC#C[C@H]1N[C@H]1C#CC	
InChI=1S/C8H9N/c1-3-5-7-8(9-7)6-4-2/h7-9H,1-2H3	InChI=1S/C8H9N/c1-3-5-7-8(9-7)6-4-2/h7-9H,1-2H3/t7-,8+
