17
gdb 52202	3.22505	0.81894	0.69518	2.6714	76.32	-0.2496	-0.0305	0.2191	1573.7076	0.131617	-421.76612	-421.756462	-421.755518	-421.80224	33.709	
O	-0.0739563304	 0.0542251216	 0.2566858004	-0.236745
C	 0.0836116465	 1.201396914	-0.064909715	 0.137901
C	 1.4435800669	 1.8069945085	-0.367142214	-0.149636
O	 1.2558582059	 3.1781623467	-0.6381373334	-0.244123
C	 2.423814518	 3.8484044785	-0.9708408758	 0.136308
C	 2.9378348951	 3.7845268975	-2.3805573733	-0.326561
C	 2.2824805328	 5.0649138018	-1.8562900867	-0.239437
C	 0.9984939108	 5.4674884657	-2.3486053891	 0.34312
C	-0.0677338217	 5.8336117374	-2.766240289	-0.458174
H	-0.7578964728	 1.9196865754	-0.173302204	 0.104605
H	 2.1079597119	 1.6441359528	 0.4966742239	 0.126011
H	 1.8881296883	 1.2770480679	-1.2245023339	 0.128551
H	 3.1540008335	 3.9107507433	-0.162688723	 0.097179
H	 4.0070801492	 3.7943773668	-2.5586123858	 0.124246
H	 2.3506029284	 3.2126962981	-3.0893911375	 0.137792
H	 2.9583147047	 5.8829529175	-1.6238455084	 0.121508
H	-1.0139147672	 6.1495957966	-3.1293961754	 0.197456
48.8903	60.0728	78.4969	111.0128	166.2854	205.4727	326.214	333.3506	442.972	509.7925	536.5025	594.0535	649.4485	669.0007	740.8676	759.0017	818.1627	871.4256	979.6162	1011.6353	1051.5093	1059.9438	1105.0146	1115.9791	1129.1301	1130.7763	1179.2285	1235.1054	1254.9635	1340.7088	1373.0596	1397.2732	1418.8939	1471.6171	1486.0134	1845.3901	2242.8921	2907.8465	2977.5689	3011.1308	3091.9217	3142.1955	3148.0913	3238.7327	3505.7649
O=CCOC1CC1C#C	O=CCO[C@H]1C[C@H]1C#C	
InChI=1S/C7H8O2/c1-2-6-5-7(6)9-4-3-8/h1,3,6-7H,4-5H2	InChI=1S/C7H8O2/c1-2-6-5-7(6)9-4-3-8/h1,3,6-7H,4-5H2/t6-,7+/m1/s1
