18
gdb 125228	4.44309	0.99046	0.87002	3.0567	80.15	-0.2444	0.0005	0.2449	1361.4804	0.147801	-401.945607	-401.937233	-401.936289	-401.979274	30.923	
C	 0.0845986162	 1.4979179561	-0.1021467966	-0.491368
C	-0.0342586589	 0.0148558238	-0.0984285147	 0.446485
C	-1.0507981609	-0.8427568686	-0.3777910945	-0.447324
C	-0.4814345957	-2.1370808238	-0.1744502006	 0.418938
N	 0.7761724311	-2.0492016617	 0.1968609546	-0.226815
O	 1.0626518851	-0.6821210598	 0.2458585229	-0.214726
C	-1.1032397866	-3.4646266969	-0.3240834988	-0.089086
C	-2.561193601	-3.6752604329	 0.0336094542	-0.268296
C	-2.1365524747	-3.712153623	-1.405174141	-0.268374
H	 0.3574327426	 1.8713832775	 0.8903290504	 0.150734
H	 0.8602024007	 1.8270057882	-0.8014130196	 0.150733
H	-0.8636119444	 1.9520275883	-0.3956482916	 0.139347
H	-2.0532591771	-0.5909058883	-0.6822555234	 0.112934
H	-0.4230186666	-4.2788814745	-0.1023525846	 0.105165
H	-2.8260679122	-4.6060198293	 0.5222081208	 0.121512
H	-3.1196167127	-2.8134932953	 0.3822421889	 0.119332
H	-2.4044198794	-2.8756385418	-2.0411850574	 0.119314
H	-2.1068724256	-4.668502198	-1.9147967388	 0.121496
69.7592	94.2634	134.2099	148.4756	259.3453	317.576	427.8013	437.9498	573.6169	639.8163	710.4698	724.0934	789.8085	802.1219	831.4846	911.3916	917.9678	930.1321	1007.1901	1018.1755	1032.4059	1056.9089	1064.927	1065.3517	1079.8387	1135.9821	1169.9542	1200.8979	1219.8141	1300.6943	1365.3153	1412.1448	1458.1755	1469.8738	1473.507	1489.7735	1499.6157	1536.1881	1649.6169	3042.6375	3099.0564	3135.8547	3138.3079	3139.5851	3179.8288	3215.7	3231.2505	3268.2946
CC1=CC(=NO1)C1CC1	Cc1cc(no1)C1CC1	
InChI=1S/C7H9NO/c1-5-4-7(8-9-5)6-2-3-6/h4,6H,2-3H2,1H3	InChI=1S/C7H9NO/c1-5-4-7(8-9-5)6-2-3-6/h4,6H,2-3H2,1H3
