15
gdb 51518	5.33668	0.81963	0.74117	3.012	70.97	-0.2573	-0.0671	0.1902	1431.5639	0.111733	-457.814942	-457.806852	-457.805908	-457.849164	28.597	
O	-0.1039771051	-0.0052214654	 0.242150702	-0.265835
C	-0.0255104215	 1.184139812	 0.2630967802	 0.170697
O	 0.9896315908	 1.8579006897	-0.3172131265	-0.189645
C	 1.0002405438	 3.292026492	-0.2219689505	 0.064229
C	 2.2076771021	 3.8134948803	 0.5712110956	-0.359159
C	 2.856594673	 4.8672128532	-0.3425603656	 0.378262
O	 3.7456031676	 5.6223677849	-0.0376012198	-0.311719
C	 2.1723425194	 4.7698312116	-1.6589793315	-0.177302
C	 1.1687371722	 3.8908214983	-1.5991986456	-0.061994
H	-0.7623866707	 1.8544757605	 0.7485973032	 0.081814
H	 0.0495245159	 3.6175369957	 0.2227975524	 0.106855
H	 1.9572094552	 4.2411181688	 1.5443198541	 0.1371
H	 2.9179819415	 2.9978076225	 0.7356702191	 0.161278
H	 2.480325026	 5.3544074359	-2.516212481	 0.131719
H	 0.5084775197	 3.6085492301	-2.411366776	 0.133699
39.4144	58.5629	148.9523	203.554	308.9207	340.184	398.953	492.6661	508.3324	655.9883	681.5705	767.0084	815.9896	826.6483	900.767	980.061	1004.9044	1041.2958	1049.6392	1057.9589	1116.4901	1162.9783	1174.104	1202.5695	1249.3601	1308.4772	1350.307	1372.9504	1435.6232	1448.2151	1655.5884	1829.3035	1872.9069	2940.9079	3008.6172	3073.6621	3125.1995	3202.8518	3233.5588
O=COC1CC(=O)C=C1	O=CO[C@H]1CC(=O)C=C1	
InChI=1S/C6H6O3/c7-4-9-6-2-1-5(8)3-6/h1-2,4,6H,3H2	InChI=1S/C6H6O3/c7-4-9-6-2-1-5(8)3-6/h1-2,4,6H,3H2/t6-/m1/s1
