17
gdb 36721	5.36227	0.73167	0.68971	4.3863	73.65	-0.2644	0.0048	0.2692	1567.2529	0.13748	-418.039533	-418.031089	-418.030145	-418.073983	29.693	
N	-0.0045632781	-1.1585956473	-0.0857654837	-0.306924
C	-0.0165432545	-0.0037013796	-0.0452619957	 0.25569
C	-0.0067097	 1.4555151263	 0.0085067213	-0.337429
C	 1.4213264478	 2.0330950741	 0.0295530182	-0.194733
C	 1.4106401188	 3.5642369496	 0.0749172171	 0.003516
C	 2.8274477286	 4.20014701	 0.0260151606	-0.128581
O	 2.788977936	 5.0627561123	-1.1377697292	-0.216212
C	 1.5559673816	 4.8981297632	-1.6651622642	 0.128638
N	 0.7210669472	 4.1267389487	-1.105562674	-0.274731
H	-0.5464810393	 1.8546354179	-0.8555889268	 0.1788
H	-0.5592303662	 1.7748352313	 0.9002441093	 0.148593
H	 1.9653015352	 1.6448930798	 0.8979726653	 0.120832
H	 1.9605362311	 1.7014061648	-0.8645853373	 0.125895
H	 0.86838416	 3.8854310361	 0.9733362561	 0.094341
H	 3.0640486014	 4.8147361339	 0.8973647058	 0.128022
H	 3.6251118169	 3.4653832725	-0.1217772726	 0.124381
H	 1.3765365835	 5.4710982262	-2.56826624	 0.149902
53.2148	81.0185	109.691	132.7356	231.4087	346.5504	373.664	404.0759	527.6592	600.9677	724.7875	775.4114	855.1455	881.2002	942.8384	947.3769	963.8152	970.5694	1013.2055	1067.7669	1070.6108	1123.9356	1142.3828	1194.9331	1230.3311	1275.1689	1299.3358	1317.2168	1330.7291	1357.6763	1384.99	1395.0041	1469.5719	1488.8191	1518.8035	1705.5162	2362.5056	3019.6383	3038.9658	3048.212	3055.754	3082.7861	3103.2787	3109.5937	3217.7253
N#CCCC1COC=N1	N#CCC[C@H]1COC=N1	
InChI=1S/C6H8N2O/c7-3-1-2-6-4-9-5-8-6/h5-6H,1-2,4H2	InChI=1S/C6H8N2O/c7-3-1-2-6-4-9-5-8-6/h5-6H,1-2,4H2/t6-/m0/s1
