16
gdb 49031	2.789	1.37636	1.11637	3.6839	77.59	-0.2425	-0.0492	0.1933	1103.8502	0.122483	-400.672503	-400.664196	-400.663251	-400.705474	30.918	
O	-0.3363961455	 0.4556295756	-0.7762318382	-0.250461
C	 0.0267289957	 1.1384683727	 0.149564037	 0.073561
C	 1.3052832025	 1.8923370282	 0.1729354618	 0.22326
C	 1.7487176859	 2.9227146163	 1.2067680254	-0.327756
C	 2.2456359705	 3.7769913975	 0.0141512492	-0.15387
N	 1.7305712279	 2.7859061237	-1.004723765	-0.165584
C	 2.419327579	 1.505803213	-0.7546998263	-0.257047
C	 3.7830878303	 1.4087198353	-0.3196783069	 0.357926
C	 4.9307207215	 1.3167464878	 0.0286320947	-0.428771
H	-0.5903196297	 1.2472330921	 1.0695173761	 0.080676
H	 0.9066139451	 3.3766812948	 1.7335433124	 0.119276
H	 2.4914239138	 2.5868449353	 1.9339349595	 0.123353
H	 1.7145638494	 4.7208265856	-0.1116398422	 0.122075
H	 3.3223116793	 3.9456844317	-0.0557637657	 0.129647
H	 2.1092449751	 0.7668771357	-1.4895758428	 0.147097
H	 5.9460092593	 1.2265628347	 0.3278715008	 0.206618
94.1421	137.6528	147.9272	208.8677	225.2058	328.1727	370.1062	479.9317	543.3839	582.5552	618.0364	669.8308	693.5913	753.3471	781.9847	795.5746	868.5163	965.2778	974.6557	1017.8794	1023.2259	1085.3034	1119.4632	1168.4473	1215.4082	1223.7151	1270.4179	1292.7081	1312.876	1400.3746	1427.6537	1480.7346	1502.5039	1808.0523	2233.4982	2882.4428	3068.4229	3079.6469	3118.4178	3141.4382	3152.0951	3500.1511
O=CC12CCN1C2C#C	O=C[C@]12CCN1[C@H]2C#C	
InChI=1S/C7H7NO/c1-2-6-7(5-9)3-4-8(6)7/h1,5-6H,3-4H2	InChI=1S/C7H7NO/c1-2-6-7(5-9)3-4-8(6)7/h1,5-6H,3-4H2/t6-,7-,8?/m0/s1
