13
gdb 17230	5.59	1.74883	1.59817	4.9027	62.89	-0.2576	-0.0075	0.2501	783.8643	0.096396	-361.400343	-361.394437	-361.393493	-361.430305	23.014	
N	 0.0084823733	-1.0398194175	-0.0607964232	-0.342295
C	-0.0079660564	 0.1163107314	-0.0238416602	 0.198175
C	-0.0060672785	 1.5397674665	 0.0062437822	 0.394131
O	-1.005984278	 2.2621542726	 0.7168412795	-0.320352
C	-0.5233601421	 3.4479497248	 0.0172075906	 0.051957
C	 0.8666182592	 3.7030547672	 0.6573026478	-0.233332
C	 1.2812236695	 2.4126929023	-0.0479668943	-0.154212
C	 0.1779451921	 2.5580662469	-1.0789082285	-0.18706
H	-1.2848757944	 4.2119660939	-0.1106099015	 0.106681
H	 1.3646418535	 4.5671964647	 0.2114187426	 0.11966
H	 0.8973542746	 3.7519441721	 1.7487466811	 0.119431
H	 2.2598292872	 1.9672504583	-0.1662886116	 0.12085
H	 0.1427636799	 2.4865876569	-2.1563254345	 0.126365
157.611	170.3056	425.0731	491.1054	514.912	546.6457	590.7944	751.5814	786.6656	796.0258	849.1785	890.4631	928.3882	945.1101	957.2044	1003.6803	1032.5596	1070.1887	1097.9073	1129.793	1153.5751	1181.3703	1241.5955	1272.4492	1296.0153	1390.2418	1484.1881	2354.2208	3064.4829	3128.2368	3168.6934	3214.5464	3228.2277
N#CC12OC3CC1C23	N#C[C@@]12O[C@H]3C[C@@H]1[C@@H]23	
InChI=1S/C6H5NO/c7-2-6-3-1-4(8-6)5(3)6/h3-5H,1H2	InChI=1S/C6H5NO/c7-2-6-3-1-4(8-6)5(3)6/h3-5H,1H2/t3-,4+,5-,6-/m1/s1
