19
gdb 108413	2.00329	1.40848	1.00095	2.8994	77.07	-0.2425	-0.0248	0.2177	1237.6295	0.158575	-422.998909	-422.990028	-422.989084	-423.032916	32.959	
O	 0.1058767121	 1.3811567052	-0.1987813662	-0.410504
C	 0.045224724	-0.0077974684	 0.0880141312	-0.173042
C	-1.3619530193	-0.5290384925	 0.1275832795	 0.305426
C	-2.3835301657	-0.2290074329	 1.239123534	-0.291213
C	-2.9184086491	-1.6933065052	 1.1126334932	-0.23587
C	-1.8989817271	-1.942971274	-0.0073922504	-0.13509
C	-2.0591312333	-0.9652358573	-1.1637166118	-0.155039
C	-3.3486900304	-0.4271687383	-1.6540957465	 0.145397
O	-3.562386751	-0.1693484686	-2.8161121509	-0.271384
H	-0.3098787363	 1.5190540921	-1.0569532207	 0.287105
H	 0.640293462	-0.5991081524	-0.6267107277	 0.090762
H	 0.512381953	-0.1215288657	 1.0732325242	 0.113007
H	-1.8911424528	-0.0520453851	 2.1980660696	 0.114871
H	-3.0865795661	 0.588244972	 1.0630248929	 0.110032
H	-2.6977867922	-2.2851751635	 2.003108714	 0.114607
H	-3.9736950748	-1.8318352694	 0.8641349527	 0.109837
H	-1.3564086177	-2.8660570793	-0.1766908294	 0.100627
H	-1.3630942508	-1.1505969763	-1.9784464996	 0.10481
H	-4.1343831046	-0.2611078004	-0.8877605681	 0.075661
64.4406	103.6295	144.1284	203.7565	249.9944	294.7313	311.454	378.538	426.6647	465.0836	501.1604	695.5285	704.3623	790.3353	865.3753	899.3325	925.4806	951.5729	959.2773	995.8677	1035.7123	1057.6321	1062.6925	1082.8319	1125.2848	1135.5944	1191.8846	1213.0534	1234.6328	1241.0847	1255.5327	1302.5705	1318.0648	1370.7846	1409.4398	1427.7415	1473.4527	1485.8886	1497.4007	1510.4041	1804.0547	2908.4549	2973.903	3059.1529	3064.4452	3071.2308	3106.4506	3123.8927	3147.6827	3178.8379	3805.7127
OCC12CCC1C2C=O	OC[C@]12CC[C@H]1[C@H]2C=O	
InChI=1S/C7H10O2/c8-3-6-5-1-2-7(5,6)4-9/h3,5-6,9H,1-2,4H2	InChI=1S/C7H10O2/c8-3-6-5-1-2-7(5,6)4-9/h3,5-6,9H,1-2,4H2/t5-,6+,7+/m0/s1
