22
gdb 121876	3.73708	0.64552	0.58542	3.9466	79.99	-0.258	0.02	0.278	1949.9061	0.192209	-441.532066	-441.520928	-441.519984	-441.569325	39.555	
C	 0.0618040978	 1.5819114357	-0.0509781876	-0.37902
C	 0.0259086644	 0.0516355431	-0.0137346347	-0.16826
C	-1.3980462585	-0.5126291848	 0.0195298361	-0.156581
C	-1.440968116	-2.0427355681	 0.0598913436	-0.195009
C	-2.8815857474	-2.5888243009	 0.0264869253	 0.026211
O	-3.5598191414	-2.1579446169	-1.1242399077	-0.435168
C	-2.8971171145	-4.1262207633	 0.0422775183	 0.383256
N	-2.4718223306	-4.732292667	 1.1770708086	-0.517819
O	-3.2698200831	-4.7424792583	-0.9436013313	-0.377958
H	 1.0893212002	 1.9581005035	-0.0776378991	 0.109809
H	-0.457842672	 1.9669867907	-0.93521367	 0.117321
H	-0.4273897712	 2.0109463451	 0.8307262656	 0.112048
H	 0.5524493723	-0.3486976628	-0.8902157008	 0.096677
H	 0.5827961291	-0.3071355183	 0.8627378536	 0.087963
H	-1.929425532	-0.1115584095	 0.894725345	 0.085251
H	-1.9555844483	-0.1724909447	-0.8599317909	 0.122725
H	-0.900842473	-2.4548995857	-0.8022127393	 0.106231
H	-0.9272609874	-2.4079746691	 0.9597642065	 0.077317
H	-3.4179988403	-2.2264874992	 0.919627784	 0.078523
H	-3.7074815837	-2.9716691354	-1.6374239637	 0.292107
H	-2.219395057	-4.2109855966	 1.9979073627	 0.266228
H	-2.4796782775	-5.7380118776	 1.2226895356	 0.268146
51.587	64.3149	85.9045	110.0678	146.1647	190.5059	213.8806	247.2933	296.052	328.7807	411.888	419.7144	483.6114	510.2312	567.5065	654.1504	726.5885	741.0815	793.3564	853.068	912.2157	919.2528	989.6044	1030.4159	1069.6932	1089.0538	1112.2571	1132.8666	1171.2696	1238.7482	1247.4589	1283.56	1315.6804	1332.1473	1352.8157	1357.9481	1384.0303	1399.0815	1413.2762	1464.1999	1474.9122	1486.8335	1499.3661	1499.7429	1512.9327	1619.9676	1783.4592	2963.5353	3005.378	3008.7433	3014.2977	3029.3951	3040.4955	3054.163	3081.0162	3097.0523	3101.376	3606.1065	3639.3394	3740.757
CCCCC(O)C(N)=O	CCCC[C@@H](O)C(=O)N	
InChI=1S/C6H13NO2/c1-2-3-4-5(8)6(7)9/h5,8H,2-4H2,1H3,(H2,7,9)	InChI=1S/C6H13NO2/c1-2-3-4-5(8)6(7)9/h5,8H,2-4H2,1H3,(H2,7,9)/t5-/m1/s1
