17
gdb 49150	4.68461	1.03488	0.91666	2.6867	80.28	-0.2192	-0.0669	0.1523	1261.4819	0.136673	-418.016972	-418.008989	-418.008045	-418.049715	30.125	
O	-0.8759174	 1.3106493925	 0.0631533949	-0.267704
C	 0.2485340971	 0.8814932124	 0.177692069	 0.104566
C	 1.4475308085	 1.7450872697	 0.0925876929	 0.257206
N	 2.6416709677	 1.2654023319	 0.1229015218	-0.315802
C	 3.5186098577	 2.4028540717	-0.0337965673	 0.360088
C	 4.7304630983	 2.4817536638	 0.8696364772	-0.302156
C	 4.8964231193	 2.1884516758	-0.5985089838	-0.314951
C	 2.6459123989	 3.6309690488	-0.3702283096	-0.255568
N	 1.3209296862	 3.1123799179	-0.0189051479	-0.347754
H	 0.4774729087	-0.189749063	 0.3329662527	 0.107402
H	 5.0137893706	 3.4627031914	 1.2375461411	 0.115937
H	 4.869483195	 1.6677202244	 1.5710981452	 0.130219
H	 5.1517045699	 1.1767183732	-0.8911332446	 0.129841
H	 5.2998758903	 2.9673055196	-1.2380718286	 0.115345
H	 2.9036962033	 4.5151788345	 0.2213499942	 0.117481
H	 2.7090803101	 3.8996643272	-1.4351891798	 0.1085
H	 0.4778343484	 3.4854750483	-0.4276586375	 0.25735
76.3264	142.0893	178.5267	231.3054	302.7129	317.5743	442.7262	467.7989	496.3937	596.0074	649.6807	751.339	778.0903	820.4708	870.6099	910.0042	934.9696	978.9387	1013.7298	1027.5206	1050.8535	1053.349	1066.9181	1089.9531	1193.183	1200.5018	1230.2849	1275.6111	1299.7002	1375.8377	1387.9535	1455.1431	1475.0975	1502.8147	1529.8676	1661.5963	1796.2019	2965.5421	2987.3894	3061.3952	3130.1611	3133.6889	3219.2336	3233.7476	3629.7812
O=CC1=NC2(CC2)CN1	O=C[C]1[N]C2(CC2)CN1	
InChI=1S/C6H8N2O/c9-3-5-7-4-6(8-5)1-2-6/h3H,1-2,4H2,(H,7,8)	InChI=1S/C6H8N2O/c9-3-5-7-4-6(8-5)1-2-6/h3H,1-2,4H2,(H,7,8)
