23
gdb 42042	2.74558	1.472	1.07117	1.1095	85.38	-0.2364	0.0799	0.3163	1201.0489	0.208878	-388.294178	-388.286107	-388.285163	-388.326631	32.665	
C	 0.0644599437	 1.3564767617	-0.5104826438	-0.24947
C	 1.2503674527	 1.7245748707	 0.4243123393	-0.249186
C	 1.4807977832	 0.2229339637	 0.684784789	 0.145805
O	 1.7018048825	-0.0794309014	 2.0388467152	-0.252516
C	 1.6313237137	-1.462862121	 2.3544474187	-0.07306
C	 0.2272290428	-1.8793282317	 2.7985453726	-0.181119
C	-0.857889623	-1.8071489064	 1.7139802093	-0.19833
C	-1.0235710247	-0.4265083893	 1.0540392566	-0.194436
C	 0.083224394	-0.0970686729	 0.0532712711	-0.015285
H	-0.8637023708	 1.9150508046	-0.3637922337	 0.097247
H	 0.3274253024	 1.4025218269	-1.5701574043	 0.098641
H	 2.0800474794	 2.291444467	-0.0030112825	 0.09694
H	 0.9225090426	 2.2183769447	 1.342185278	 0.112801
H	 2.294284106	-0.1911655406	 0.0683572352	 0.058372
H	 1.9703907542	-2.0711490231	 1.5006822903	 0.084176
H	 2.3385146724	-1.6309058555	 3.1750584365	 0.100093
H	 0.2796987083	-2.9032262057	 3.1920845375	 0.088099
H	-0.056103255	-1.2345522489	 3.6402230128	 0.103224
H	-0.6466689245	-2.5514412422	 0.9328644125	 0.089508
H	-1.8119751652	-2.1062148227	 2.1644134671	 0.090996
H	-1.9828373215	-0.3947929728	 0.5217278953	 0.089723
H	-1.0750618938	 0.348450364	 1.8295436155	 0.098452
H	 0.1114089208	-0.8797842191	-0.7127062183	 0.059323
86.3978	160.3553	241.199	271.6028	296.118	323.7499	409.5894	425.9739	507.7775	578.9869	662.1671	754.5924	764.4735	827.0348	848.0452	879.1115	907.104	941.2529	947.849	966.4154	992.0597	1029.4008	1046.7278	1066.6597	1103.7253	1116.4249	1155.6812	1167.53	1209.8246	1223.7696	1234.1334	1255.1702	1263.9755	1278.7724	1289.7809	1306.0764	1321.8921	1345.4943	1371.0842	1385.1255	1392.5167	1394.7448	1418.3404	1470.9817	1476.99	1485.1464	1489.3368	1496.4174	1501.4035	2966.9669	2979.5406	3005.2556	3015.0879	3016.2796	3033.2361	3049.8987	3053.7044	3056.282	3059.3029	3064.6657	3069.4414	3102.5531	3125.8031
C1CC2OCCCCC12	C1C[C@H]2OCCCC[C@@H]12	
InChI=1S/C8H14O/c1-2-6-9-8-5-4-7(8)3-1/h7-8H,1-6H2	InChI=1S/C8H14O/c1-2-6-9-8-5-4-7(8)3-1/h7-8H,1-6H2/t7-,8+/m0/s1
