23
gdb 94799	2.67782	1.30177	1.12936	1.3737	84.64	-0.2572	0.0721	0.3293	1214.757	0.206261	-388.292598	-388.283254	-388.282309	-388.326413	36.45	
C	 0.4715352158	 1.7711778776	-0.0629829288	-0.392646
C	 0.0946805914	 0.2904530888	 0.0801159553	-0.092416
C	 0.6252221893	-0.575085539	-1.079907734	 0.137405
O	 0.4216176333	 0.0690206683	-2.3265287376	-0.443137
C	 2.109664055	-0.832163162	-0.725784188	-0.248784
C	 2.1797439907	-0.7789052998	 0.8250682089	-0.295209
C	 0.7627936	-0.3906581673	 1.2730751162	 0.4158
C	 0.4509877529	-0.0181344572	 2.6932385223	-0.338637
C	-0.0354171918	-1.337251149	 2.1391525584	-0.322969
H	 1.5562734922	 1.9142679844	-0.1037890906	 0.110646
H	 0.0479009894	 2.1891347727	-0.9788515857	 0.130026
H	 0.0952722292	 2.344603805	 0.7898106387	 0.106051
H	-0.9964433676	 0.213527045	 0.1432073129	 0.065794
H	 0.0818089388	-1.5331283478	-1.0586955284	 0.064493
H	 0.7708939567	-0.5015084042	-3.0177506887	 0.28089
H	 2.4676737286	-1.7829042734	-1.1323603738	 0.088895
H	 2.7148582171	-0.0400919885	-1.17740547	 0.10661
H	 2.4886371423	-1.7330205111	 1.2620937742	 0.096428
H	 2.9125221268	-0.0330816502	 1.1509598752	 0.10269
H	 1.2611568383	-0.0357742576	 3.4157950656	 0.106766
H	-0.2829622159	 0.7609508662	 2.8740537819	 0.108724
H	-1.0973385365	-1.4463016462	 1.9418140418	 0.107741
H	 0.4481284239	-2.2448529149	 2.4871258643	 0.104838
66.5087	117.5179	207.1909	217.082	248.3268	259.5359	275.6678	313.4323	404.0882	446.4949	496.4374	563.6366	613.7257	748.6121	780.7857	803.6423	827.8411	878.6632	917.0581	929.7541	967.9368	983.6879	1000.3927	1011.1121	1051.3231	1055.4303	1078.2642	1086.8758	1108.5829	1134.6125	1187.8398	1191.0275	1246.0087	1252.6393	1257.114	1262.8739	1301.2942	1312.1386	1353.7551	1374.8355	1393.7533	1401.7848	1433.4305	1467.1655	1485.8084	1493.7343	1501.9545	1505.7479	1511.4592	2966.8345	3038.8245	3040.689	3042.3484	3052.5535	3072.7564	3095.7777	3104.6782	3117.4031	3122.216	3127.5092	3194.5816	3209.7714	3823.6804
CC1C(O)CCC11CC1	C[C@H]1[C@@H](O)CCC21CC2	
InChI=1S/C8H14O/c1-6-7(9)2-3-8(6)4-5-8/h6-7,9H,2-5H2,1H3	InChI=1S/C8H14O/c1-6-7(9)2-3-8(6)4-5-8/h6-7,9H,2-5H2,1H3/t6-,7-/m0/s1
