19
gdb 72687	2.22415	1.53984	1.47087	2.7273	75.68	-0.2436	-0.0384	0.2052	1045.7487	0.15738	-423.008409	-422.999602	-422.998658	-423.042134	32.652	
C	-0.2436923752	 1.4957473691	 0.2621734373	-0.498639
C	-0.0272983515	 0.0159674963	 0.0566542186	 0.242817
C	-1.2700484147	-0.9194575437	 0.017832355	-0.281218
C	-0.6366410973	-1.8320044956	 1.1094033071	-0.271375
C	 0.6431821655	-0.9683149782	 1.1061687805	 0.311609
O	 1.6278862943	-1.3741873867	 0.1408942332	-0.339406
C	 1.1192539964	-0.4597137657	-0.8587163366	-0.121625
C	 1.2334135319	-0.5110056453	 2.4031339734	 0.083784
O	 0.5788383029	-0.2949032989	 3.3945088215	-0.262157
H	 0.7015943473	 2.0294932893	 0.4060842861	 0.122021
H	-0.7464364132	 1.9329013776	-0.6092589831	 0.124914
H	-0.8739958283	 1.6833950762	 1.1372859136	 0.136761
H	-2.1906861357	-0.4273186606	 0.3396461054	 0.109863
H	-1.4529339276	-1.3905520538	-0.9515710436	 0.104147
H	-1.1493432064	-1.7766940437	 2.0718742623	 0.129753
H	-0.4602682408	-2.8754729594	 0.8425793909	 0.114864
H	 0.8252324388	-0.9742729341	-1.78183661	 0.10356
H	 1.85973737	 0.3144158985	-1.0993463333	 0.102927
H	 2.3342567738	-0.3526175213	 2.3718993418	 0.087402
69.8763	79.7327	178.4622	212.0846	233.9995	265.6241	331.2408	370.1479	432.2303	494.1332	619.1453	651.227	727.7827	754.8176	833.4331	877.248	914.5254	955.0198	964.0416	995.2306	1015.6181	1040.3874	1095.607	1141.0423	1152.0761	1161.7035	1215.0249	1233.0604	1242.7349	1261.2226	1281.6994	1297.288	1362.1379	1398.1255	1413.8394	1457.0875	1483.6646	1490.3824	1492.8201	1524.0506	1808.5372	2892.0487	3005.6431	3024.5473	3053.9794	3060.0275	3075.4919	3088.7839	3103.6647	3109.697	3139.8537
CC12CCC1(OC2)C=O	C[C@]12CC[C@]1(OC2)C=O	
InChI=1S/C7H10O2/c1-6-2-3-7(6,4-8)9-5-6/h4H,2-3,5H2,1H3	InChI=1S/C7H10O2/c1-6-2-3-7(6,4-8)9-5-6/h4H,2-3,5H2,1H3/t6-,7+/m1/s1
