20
gdb 122791	5.19772	0.53657	0.52744	5.4028	79.94	-0.2478	-0.0707	0.1771	2130.1152	0.168432	-440.322556	-440.311836	-440.310891	-440.360732	36.465	
C	-0.1112025686	 1.5039643227	-0.323338504	-0.381729
C	-0.0362634871	 0.0295205418	 0.0815913994	-0.161739
C	-1.4053880245	-0.6585911646	 0.0864399578	-0.168378
C	-1.3174120622	-2.134284454	 0.4928434096	-0.171134
N	-2.6122466979	-2.7976977767	 0.5120851945	-0.32153
C	-2.9882697084	-3.7140811327	-0.4219971968	 0.321418
O	-2.2969023752	-4.1115044791	-1.3357875462	-0.346124
C	-4.4227374757	-4.2230047582	-0.1933176374	 0.088824
O	-4.9417322128	-5.0374541339	-0.9002420041	-0.20493
H	 0.879691491	 1.9679012722	-0.319051387	 0.116746
H	-0.5277830185	 1.6167268532	-1.3300952723	 0.119989
H	-0.7481265004	 2.0720778224	 0.3637300408	 0.114509
H	 0.6334846348	-0.5064157564	-0.6031288568	 0.107365
H	 0.4168802781	-0.0552631762	 1.0783046429	 0.097136
H	-2.0802887755	-0.1290865663	 0.7736388557	 0.088538
H	-1.8613433682	-0.5935446156	-0.9090453015	 0.114664
H	-0.703280335	-2.6921480985	-0.218295818	 0.154355
H	-0.8535805635	-2.2265899776	 1.4829200939	 0.111136
H	-3.2846237134	-2.5139325392	 1.2078302685	 0.249105
H	-4.9569936272	-3.7799541831	 0.6823650613	 0.071781
19.6525	50.3097	75.9107	112.3837	119.5507	210.8826	222.1281	249.5487	289.19	354.6535	419.2897	458.8812	525.0689	624.103	727.2799	745.5122	802.9597	899.2661	913.0722	969.1481	991.6489	1007.2293	1059.8215	1068.1164	1131.0109	1181.8589	1215.1028	1258.5529	1296.003	1327.7144	1334.3481	1383.944	1404.282	1415.5016	1427.8565	1480.9003	1486.4396	1498.3605	1500.2854	1511.8421	1545.2926	1797.5565	1854.0518	2829.9249	3008.3435	3017.0288	3027.5544	3031.4191	3043.3959	3065.4904	3098.4192	3105.5847	3115.7184	3623.6025
CCCCNC(=O)C=O	CCCCNC(=O)C=O	
InChI=1S/C6H11NO2/c1-2-3-4-7-6(9)5-8/h5H,2-4H2,1H3,(H,7,9)	InChI=1S/C6H11NO2/c1-2-3-4-7-6(9)5-8/h5H,2-4H2,1H3,(H,7,9)
