15
gdb 115141	3.10647	1.28555	0.94252	3.9467	61.94	-0.2651	-0.0959	0.1692	1163.9154	0.112645	-494.940731	-494.932657	-494.931712	-494.974106	29.095	
O	-0.010871554	 1.473187102	-0.188063765	-0.415817
C	 0.0585539723	 0.0710646821	-0.1392554063	-0.072066
C	-1.3349927419	-0.5572403581	 0.0492622889	-0.162519
C	-1.3947308964	-2.0926143835	 0.0620444863	-0.114822
O	-2.3270572834	-2.4854835124	 1.0992363194	-0.217051
C	-2.6382322359	-1.4631172087	 1.9276797465	 0.374129
O	-3.335858209	-1.5605947798	 2.8903963764	-0.306356
C	-1.939997369	-0.1976259705	 1.3872490001	 0.265845
O	-1.877211996	 0.8519024828	 1.9728721065	-0.293825
H	-0.4394735314	 1.7644106135	 0.6282358728	 0.302588
H	 0.489103071	-0.2634386285	-1.089076393	 0.120763
H	 0.7231542985	-0.2864230296	 0.6652330234	 0.098952
H	-1.9976155122	-0.1527823232	-0.7267233443	 0.141207
H	-1.753518431	-2.523505334	-0.8733907929	 0.142958
H	-0.4222457115	-2.535844932	 0.3026489412	 0.136015
52.39	142.3529	158.4692	200.1834	287.5065	337.4954	381.456	451.3941	524.8685	597.5108	605.4093	665.7074	739.7471	793.9396	923.0615	960.091	1026.2379	1060.0658	1078.7776	1091.5631	1115.7276	1187.9413	1220.5943	1232.5465	1281.4671	1314.3928	1387.7824	1403.8785	1451.3097	1511.673	1521.4823	1845.2569	1886.9895	2965.7926	3037.2934	3051.9778	3070.8349	3123.9792	3756.306
OCC1COC(=O)C1=O	OC[C@H]1COC(=O)C1=O	
InChI=1S/C5H6O4/c6-1-3-2-9-5(8)4(3)7/h3,6H,1-2H2	InChI=1S/C5H6O4/c6-1-3-2-9-5(8)4(3)7/h3,6H,1-2H2/t3-/m0/s1
