14
gdb 125427	4.53451	1.08452	0.87999	3.0294	65.05	-0.2631	-0.0502	0.2129	1245.7211	0.100571	-470.047832	-470.03927	-470.038326	-470.082145	29.582	
C	 0.025860792	 1.4592192932	-0.0075564896	-0.496965
C	-0.0597676127	-0.0227282466	 0.024066559	 0.417872
N	-1.085282287	-0.7835684696	-0.2091409248	-0.322496
C	-0.5608752362	-2.0400534624	-0.0306862324	 0.262886
N	 0.7069092445	-2.0599054733	 0.2921670303	-0.175591
O	 1.0552203648	-0.7145508709	 0.332280773	-0.195263
C	-1.3649950883	-3.3030521233	-0.1895880121	 0.333767
N	-0.644089185	-4.4328137883	 0.0343489634	-0.533725
O	-2.5386014325	-3.2781601289	-0.4887837092	-0.33524
H	 0.7662998355	 1.7865537886	-0.7434537553	 0.162054
H	-0.9502365421	 1.8660740213	-0.2697642188	 0.172121
H	 0.3322456605	 1.8481828072	 0.9680300527	 0.162046
H	 0.3307085339	-4.3923064514	 0.2805314377	 0.280164
H	-1.1082413975	-5.3210642657	-0.051759674	 0.26837
44.7441	71.2195	149.1826	172.2024	222.595	305.0007	337.9976	390.5185	517.7361	551.9108	639.7128	670.182	695.4541	733.5115	829.4548	951.5272	987.6375	1021.6867	1063.5138	1070.5446	1098.4922	1267.2898	1300.7663	1409.2063	1436.6916	1474.7624	1475.538	1521.7758	1611.004	1628.43	1815.4856	3055.0492	3115.0499	3167.3259	3601.1072	3741.2093
CC1=NC(=NO1)C(N)=O	Cc1nc(no1)C(=O)N	
InChI=1S/C4H5N3O2/c1-2-6-4(3(5)8)7-9-2/h1H3,(H2,5,8)	InChI=1S/C4H5N3O2/c1-2-6-4(3(5)8)7-9-2/h1H3,(H2,5,8)
