20
gdb 98445	3.01542	1.20027	1.0018	3.0036	76.76	-0.239	0.0378	0.2768	1264.6044	0.169904	-440.310568	-440.300624	-440.29968	-440.346654	35.865	
C	 0.0842646195	 1.4797791707	 0.1303871439	-0.334389
N	 0.1686517498	 0.0380527324	 0.0328711255	-0.320741
C	 0.4620489606	-0.5991607048	-1.1257910055	 0.394447
O	 0.6750631642	-0.0320302017	-2.1879487018	-0.402727
C	 0.5002052286	-2.1285958291	-1.0350046726	 0.289468
O	 0.3091089396	-2.5046461636	 0.3151051633	-0.500001
C	-0.4221944603	-2.7817026908	-2.1143853195	-0.259428
C	 0.8203778856	-2.9625652788	-3.0253283062	-0.203333
C	 1.7308837727	-2.7183908224	-1.7934483681	-0.254307
H	 0.8248046517	 1.8762682599	 0.8343699187	 0.124448
H	 0.2816103711	 1.8880733482	-0.8616781787	 0.167598
H	-0.9117694593	 1.7991340305	 0.457530865	 0.123888
H	 0.0226485534	-0.5400499767	 0.8447916766	 0.263361
H	 0.2486285752	-3.463272642	 0.358343714	 0.280866
H	-0.8113739419	-3.7367736355	-1.7440028879	 0.084795
H	-1.2523549106	-2.1815231938	-2.4906018203	 0.115554
H	 0.92320349	-3.9208303067	-3.5383732403	 0.090909
H	 0.904412258	-2.1479993953	-3.7436181438	 0.1375
H	 2.5942871192	-2.0637107504	-1.919699268	 0.116801
H	 2.0504639128	-3.6505006903	-1.3155571542	 0.085292
17.7364	83.8882	131.8856	148.4476	197.8292	227.1952	253.9493	316.4424	370.3033	406.4981	437.0906	567.577	588.788	657.7366	755.8979	777.491	791.5463	855.9291	901.5673	940.2153	977.8124	1040.9106	1048.2126	1051.6991	1120.8675	1154.146	1175.9456	1198.0484	1210.4021	1215.6202	1236.3165	1249.9146	1284.1566	1287.6132	1402.2045	1438.9752	1463.0287	1472.7025	1492.8427	1496.9304	1500.0499	1574.0598	1765.4463	3025.443	3042.4616	3051.1956	3075.7047	3079.331	3117.2483	3124.1282	3150.4369	3153.4792	3643.129	3830.7657
CNC(=O)C1(O)CCC1	CNC(=O)C1(O)CCC1	
InChI=1S/C6H11NO2/c1-7-5(8)6(9)3-2-4-6/h9H,2-4H2,1H3,(H,7,8)	InChI=1S/C6H11NO2/c1-7-5(8)6(9)3-2-4-6/h9H,2-4H2,1H3,(H,7,8)
