19
gdb 95787	2.27716	1.6432	1.02008	2.2785	71.97	-0.246	-0.0342	0.2118	1166.5816	0.15889	-460.189784	-460.18107	-460.180126	-460.223039	33.076	
C	-0.0341004638	 1.5231071008	-0.0369897229	-0.400096
C	 0.0669036683	 0.0102359831	 0.0231248837	 0.026616
O	 0.7606063427	-0.4431330995	-1.1373415171	-0.255906
C	 0.8895210492	-1.8555084642	-1.2079277902	-0.088753
C	 1.7500149015	-2.3891753401	-0.0646370032	-0.22696
C	 1.1299418578	-1.9844864172	 1.2841503361	 0.051837
O	 1.9542676486	-2.3067635137	 2.3662355925	-0.44192
C	 0.8071623242	-0.4939058075	 1.2663793807	 0.35654
O	 1.1471065746	 0.2158412179	 2.1876024814	-0.332149
H	 0.9630298665	 1.9692572597	-0.0496772589	 0.13778
H	-0.5676877556	 1.8217618924	-0.942073713	 0.125347
H	-0.5669435389	 1.9024271545	 0.8375036162	 0.133289
H	-0.944808172	-0.4379451978	 0.0403336517	 0.085299
H	-0.1077231874	-2.3281131521	-1.1960685716	 0.091949
H	 1.3488395316	-2.0676361462	-2.1768818682	 0.119114
H	 1.8448605298	-3.4787253609	-0.1180363522	 0.112938
H	 2.7563642657	-1.961870369	-0.1295486026	 0.121677
H	 0.1542895867	-2.5005345173	 1.3754173862	 0.090046
H	 2.0171533706	-1.4938536232	 2.8928662915	 0.29335
80.5523	136.189	188.3562	232.6702	294.2667	317.5383	345.4368	383.7219	414.4727	436.1949	462.517	579.4064	613.2411	694.7305	801.8183	855.2367	911.0447	920.3543	1003.4079	1032.0629	1055.6961	1100.9845	1108.8181	1144.1648	1173.1434	1178.0141	1201.8335	1273.6114	1288.9253	1333.8342	1346.143	1370.6787	1380.8872	1403.7564	1409.6763	1435.4293	1479.6969	1484.3995	1492.076	1498.9744	1804.9903	2915.1499	2928.8432	2963.3186	3047.5943	3059.8666	3093.8666	3098.4918	3138.6096	3141.7331	3688.1926
CC1OCCC(O)C1=O	C[C@H]1OCC[C@@H](O)C1=O	
InChI=1S/C6H10O3/c1-4-6(8)5(7)2-3-9-4/h4-5,7H,2-3H2,1H3	InChI=1S/C6H10O3/c1-4-6(8)5(7)2-3-9-4/h4-5,7H,2-3H2,1H3/t4-,5-/m1/s1
