17
gdb 53124	4.61058	0.97213	0.93265	1.4241	80.67	-0.2278	0.0449	0.2727	1316.3139	0.135199	-384.591584	-384.583497	-384.582553	-384.625823	29.777	
C	-0.0465446703	 1.5089809126	-0.0116681457	-0.499952
C	-0.0269874267	 0.0538789349	 0.015077918	 0.108352
C	-0.0209099057	-1.1503128408	 0.0438370975	 0.050565
C	-0.0074194704	-2.6002805117	 0.0705447922	-0.192008
C	 0.2089127803	-3.3721862008	 1.3830861151	-0.120002
C	-1.1984462581	-3.5316680685	 1.9801732573	 0.099644
O	-2.1213074852	-2.8449732172	 1.136515272	-0.280466
C	-1.3681533277	-3.3794210683	 0.020240974	 0.061776
C	-0.7315564425	-4.4882593302	 0.9385084644	-0.171482
H	 0.968211618	 1.9219359392	-0.03538519	 0.145155
H	-0.5752773643	 1.8829985922	-0.8956010663	 0.147215
H	-0.5504900911	 1.9164319307	 0.8717592084	 0.149286
H	 0.6598230062	-3.0078038485	-0.6964304166	 0.099781
H	 1.1136105294	-3.4432827254	 1.9725976836	 0.096796
H	-1.4201754306	-3.636259932	 3.0334609087	 0.111886
H	-1.948241895	-3.4832934556	-0.8936875513	 0.091535
H	-0.6303915864	-5.5623391104	 0.8798564287	 0.101919
25.4108	85.4189	98.2636	244.4262	286.5581	395.7848	452.8755	474.4923	627.7516	759.5455	771.3979	786.4794	796.1977	828.8022	857.7744	901.0489	939.7464	969.3446	988.4958	1028.7175	1032.0208	1051.869	1053.2846	1060.0034	1072.6194	1145.2557	1165.0029	1191.1316	1217.9757	1223.7141	1306.8985	1354.0338	1372.655	1414.1648	1477.7324	1479.0003	2368.594	3025.347	3052.4714	3084.8019	3086.684	3151.6869	3203.2239	3210.5191	3226.3107
CC#CC1C2C3OC1C23	CC#C[C@H]1[C@H]2[C@H]3O[C@@H]1[C@@H]23	
InChI=1S/C8H8O/c1-2-3-4-5-6-7(4)9-8(5)6/h4-8H,1H3	InChI=1S/C8H8O/c1-2-3-4-5-6-7(4)9-8(5)6/h4-8H,1H3/t4-,5+,6+,7-,8+/m0/s1
