16
gdb 22756	2.59506	1.17259	1.02699	1.5065	75.01	-0.2518	-0.0079	0.244	1204.9192	0.121554	-437.78967	-437.78057	-437.779626	-437.823736	33.696	
O	-0.0311092879	 1.3387777698	 0.1255416888	-0.3889
N	 0.0793395108	-0.0611824835	 0.1416494785	-0.227818
C	-1.0575415518	-0.6112105789	 0.0702054147	 0.364521
C	-2.4826143499	-0.1507163105	-0.1547398879	-0.326461
C	-2.8096400841	-1.6015755455	-0.6645692044	-0.255506
C	-2.8248285929	-1.7244463417	-2.1066688127	 0.319199
C	-2.7633720518	-1.8366216783	-3.3034606655	-0.447892
C	-1.418489749	-2.0857611153	-0.0469874157	 0.071483
O	-0.6170315463	-2.9741246048	-0.7463488476	-0.407274
H	 0.8912242664	 1.6160394966	 0.1546886736	 0.309626
H	-3.0102327671	 0.1019742301	 0.7695022204	 0.129562
H	-2.6132861824	 0.6594640473	-0.8730256815	 0.143383
H	-3.6907994359	-2.0701835967	-0.2207705222	 0.107972
H	-2.751540064	-1.9302289612	-4.3614019848	 0.204398
H	-1.593244055	-2.5286551213	 0.9396105548	 0.115475
H	-0.5277017091	-2.6427727962	-1.6493639583	 0.288233
51.8901	127.4842	154.2935	208.6816	214.195	290.4238	358.3777	379.2163	418.6001	483.0006	496.2528	595.8357	628.5437	634.0315	651.5917	740.8606	792.0446	803.2169	887.7223	980.6245	984.5717	1042.451	1092.1277	1120.9517	1160.8736	1194.0116	1230.9045	1241.9087	1307.5056	1339.3247	1407.1138	1436.1356	1463.3031	1783.3875	2227.5716	3056.0342	3066.8676	3085.6322	3133.5225	3501.9837	3769.7543	3813.3697
ON=C1CC(C#C)C1O	ON=C1C[C@@H](C#C)[C@H]1O	
InChI=1S/C6H7NO2/c1-2-4-3-5(7-9)6(4)8/h1,4,6,8-9H,3H2	InChI=1S/C6H7NO2/c1-2-4-3-5(7-9)6(4)8/h1,4,6,8-9H,3H2/t4-,6-/m1/s1
