18
gdb 43119	3.67634	1.5594	1.49012	3.4969	74.48	-0.2357	-0.0099	0.2258	936.6336	0.151579	-401.937041	-401.930678	-401.929734	-401.967558	26.724	
O	 0.005008475	 0.0208067899	-0.1047038232	-0.32512
C	-0.0208321237	 1.2063613145	 0.0374329294	 0.450556
C	-1.0914476548	 2.3105833063	 0.0407478581	-0.177242
C	-0.7380484851	 2.9264232355	 1.4109040814	-0.185025
N	 0.7458390787	 3.1603943558	 1.2361966963	-0.09759
C	 0.8876086094	 4.5410420874	 0.7215784972	-0.165508
C	 0.1094780286	 4.5714751673	-0.6309930489	-0.263845
C	-0.0706206858	 3.0717649115	-0.900621161	-0.017442
C	 0.9979339243	 2.3443403335	 0.0089361705	-0.150969
H	-2.1332799398	 2.1303671073	-0.2154971469	 0.086874
H	-1.2530177823	 3.8664126651	 1.6240096919	 0.106657
H	-0.9272166529	 2.236248955	 2.2385622834	 0.120218
H	 0.5152885951	 5.2522369235	 1.463568752	 0.108421
H	 1.9516567995	 4.7440894553	 0.5630195032	 0.109467
H	-0.8487860274	 5.0940510336	-0.553580717	 0.109409
H	 0.6802925193	 5.0541712608	-1.4290038381	 0.108336
H	-0.1256876766	 2.7580286693	-1.9424572988	 0.092136
H	 2.0481534287	 2.2259028783	-0.2479263495	 0.090667
151.8799	256.2563	289.4736	426.0816	488.4928	535.8982	637.5925	688.1176	721.0497	754.33	789.1082	817.4054	836.52	873.0648	917.2167	921.1766	969.5218	990.2454	1010.5442	1016.0903	1049.9493	1078.0947	1087.8405	1110.4681	1163.1752	1183.1746	1206.5523	1212.167	1236.6292	1251.3974	1282.4689	1286.0456	1310.77	1336.5548	1346.8028	1492.8797	1502.133	1524.7188	1904.6699	3049.1387	3051.2146	3056.5718	3089.8778	3097.0099	3109.5133	3126.2749	3147.6021	3151.758
O=C1C2CN3CCC2C13	O=C1[C@H]2CN3CC[C@H]2[C@H]13	
InChI=1S/C7H9NO/c9-7-5-3-8-2-1-4(5)6(7)8/h4-6H,1-3H2	InChI=1S/C7H9NO/c9-7-5-3-8-2-1-4(5)6(7)8/h4-6H,1-3H2/t4-,5+,6-/m1/s1
