20
gdb 38611	2.5934	2.2135	1.6362	1.4939	81.16	-0.2208	0.0848	0.3057	904.1034	0.175058	-365.975815	-365.969335	-365.968391	-366.006142	28.198	
C	-0.0565866164	 1.4533144912	-0.1117681425	-0.406523
C	 1.3092273045	 0.7977719739	 0.0061535407	-0.04048
C	 2.1909523303	 0.3112969595	-1.1383780641	-0.266418
C	 1.4423426276	-0.8960302226	-1.6998864028	-0.008243
C	 0.0415228967	-0.8807362713	-1.2144924778	-0.108165
N	 0.9025740279	-2.0116673345	-0.8633654197	-0.118649
C	 1.0338831274	-2.0305362006	 0.6240596253	-0.150222
C	-0.0338528023	-1.0374714536	 1.1747948631	-0.300258
C	 0.0376814057	-0.0312253156	 0.0427660588	 0.316151
H	-0.3652853201	 2.0674573944	 0.728735207	 0.114481
H	-0.3961673062	 1.8260668452	-1.0744968306	 0.112799
H	 1.802791474	 0.9662860714	 0.9587833613	 0.081784
H	 2.3332421852	 1.0447008773	-1.9431614127	 0.10353
H	 3.1920729843	 0.0576635432	-0.769320631	 0.103184
H	 1.7010400815	-1.2346348009	-2.7004390978	 0.087299
H	-0.8518111853	-1.0443852444	-1.8127914323	 0.078766
H	 0.8695853925	-3.0586434259	 0.9594522621	 0.103477
H	 2.0401372872	-1.7334377733	 0.941043296	 0.100858
H	-1.0124407584	-1.5248736581	 1.2588122185	 0.098516
H	 0.229396424	-0.6263584852	 2.1533322685	 0.098113
213.2385	239.8191	342.6697	374.8667	442.8701	528.3636	582.0513	668.2985	697.1181	748.0191	793.6695	809.2085	834.6468	875.1581	884.4531	911.1126	917.1704	940.3321	961.288	996.0849	1021.8519	1059.2397	1074.0173	1086.8545	1108.8203	1109.6281	1121.7934	1163.6609	1209.0757	1221.2629	1233.829	1276.1778	1288.726	1301.9434	1312.1043	1321.0261	1351.2377	1388.9642	1410.5585	1481.0669	1492.7581	1494.5924	1507.9644	3017.2612	3034.2481	3036.9076	3051.7439	3082.1639	3098.0122	3114.2362	3126.0212	3139.6009	3146.0531	3197.8269
C1C2CC3C4N3CCC124	C1[C@@H]2C[C@@H]3[C@H]4N3CC[C@@]124	
InChI=1S/C8H11N/c1-2-9-6-3-5-4-8(1,5)7(6)9/h5-7H,1-4H2	InChI=1S/C8H11N/c1-2-9-6-3-5-4-8(1,5)7(6)9/h5-7H,1-4H2/t5-,6+,7+,8+,9?/m0/s1
