21
gdb 68834	2.74738	1.42822	1.18634	1.8113	83.53	-0.2349	0.0855	0.3204	1158.1426	0.180312	-387.055232	-387.046059	-387.045115	-387.08849	35.563	
C	-0.1085014135	 1.5165493774	 0.0717727267	-0.499902
C	 0.1753262309	 0.0514732842	 0.0009578187	 0.353305
C	 0.699755851	-0.7590821159	-1.2044086017	-0.395838
C	 1.3063947066	-1.7534896368	-0.1851415459	 0.349404
C	 1.4138607122	-3.2447116902	-0.2615029588	-0.320313
C	 2.6632295018	-2.3888953521	-0.259317532	-0.335412
C	 0.760304515	-0.9118551382	 0.9605293713	 0.270255
C	 1.2702737466	-0.785007993	 2.3583370991	-0.516622
O	-0.6682179086	-0.8430718906	 0.7481486271	-0.330983
H	 0.7329387615	 2.0957380764	-0.3222721552	 0.121647
H	-0.9957792283	 1.7678605094	-0.520931427	 0.130467
H	-0.2956895024	 1.8251218098	 1.1038740597	 0.129878
H	-0.0777287057	-1.144044738	-1.8701006242	 0.104719
H	 1.4589791424	-0.2291753696	-1.7876544857	 0.10119
H	 1.1876428405	-3.8249322302	 0.627366981	 0.11347
H	 1.1280223806	-3.7269082659	-1.1906591273	 0.114169
H	 3.2231103073	-2.292668541	-1.1843250005	 0.11117
H	 3.2814615958	-2.3936470293	 0.6332390816	 0.110963
H	 2.3459461663	-0.5820423514	 2.364896623	 0.125287
H	 0.7567926135	 0.026275323	 2.8808414874	 0.133183
H	 1.0970634864	-1.708828548	 2.9228498425	 0.129964
107.6057	175.631	187.1519	190.4838	208.6144	218.0342	327.7003	338.1496	420.8458	470.824	488.586	569.4201	633.6453	703.5388	764.6733	778.8656	838.8008	865.949	890.4955	935.099	948.9897	978.2442	992.4355	1053.7857	1076.2709	1085.0824	1107.764	1115.3059	1171.1515	1184.1932	1186.1489	1199.6164	1230.4385	1306.658	1384.7652	1405.1429	1411.314	1461.5181	1463.7707	1476.988	1477.9384	1488.5323	1494.7278	1503.419	1527.5565	3031.102	3032.4711	3049.5881	3092.5171	3093.1405	3105.7599	3117.5244	3120.0491	3121.2506	3127.0546	3197.8302	3213.7778
CC12CC3(CC3)C1(C)O2	C[C@@]12CC3(CC3)[C@]1(C)O2	
InChI=1S/C8H12O/c1-6-5-8(3-4-8)7(6,2)9-6/h3-5H2,1-2H3	InChI=1S/C8H12O/c1-6-5-8(3-4-8)7(6,2)9-6/h3-5H2,1-2H3/t6-,7-/m1/s1
