17
gdb 86628	3.34585	1.08001	0.84869	0.4814	78.93	-0.2519	-0.099	0.1529	1314.1552	0.135065	-421.881287	-421.872664	-421.87172	-421.915308	31.087	
C	-0.1620299129	 1.551680883	 0.0354948559	-0.397963
C	 0.0767747891	 0.041127364	-0.0314043289	-0.110401
C	 0.8963397969	-0.4616571821	-1.240950504	-0.336593
C	 1.9597051846	-1.3475868922	-0.6352840702	 0.227926
C	 2.9249736236	-2.1009457401	-1.4585737423	 0.092168
O	 2.9316803493	-2.0718235866	-2.6674546187	-0.250712
C	 1.9319747091	-1.3570198452	 0.7083607494	-0.284265
C	 0.8421278528	-0.4760812509	 1.2025094096	 0.405176
O	 0.5988485836	-0.204517094	 2.3546930723	-0.329481
H	 0.7835003303	 2.1012593259	-0.0254657614	 0.120926
H	-0.8014970204	 1.886804496	-0.7860973303	 0.120117
H	-0.6420599358	 1.811070392	 0.9825820473	 0.143031
H	-0.8961357159	-0.4672711821	-0.0122968468	 0.114444
H	 0.3009583689	-1.011642575	-1.9761677303	 0.134847
H	 1.3655931824	 0.362024546	-1.7922308632	 0.134735
H	 3.6582509628	-2.7091765887	-0.8871318442	 0.086573
H	 2.6010736215	-1.89632142	 1.3684533558	 0.129472
53.8856	88.1454	169.2801	206.2652	234.1895	255.7231	369.2051	414.2486	432.9457	508.351	605.8324	697.9691	716.7423	774.3342	879.8767	885.8779	918.7037	927.8921	1029.6205	1038.1267	1097.4141	1126.1828	1138.1708	1173.9073	1203.608	1262.0645	1291.7718	1331.3245	1357.7571	1406.1442	1414.8548	1471.7585	1496.8829	1500.2429	1660.9008	1788.5926	1810.2421	2906.8559	3025.9924	3038.4525	3045.8054	3084.5518	3107.3534	3126.0873	3212.4354
CC1CC(C=O)=CC1=O	C[C@H]1CC(=CC1=O)C=O	
InChI=1S/C7H8O2/c1-5-2-6(4-8)3-7(5)9/h3-5H,2H2,1H3	InChI=1S/C7H8O2/c1-5-2-6(4-8)3-7(5)9/h3-5H,2H2,1H3/t5-/m0/s1
