17
gdb 39929	3.21292	1.60499	1.25887	1.9959	74.03	-0.2488	-0.0018	0.247	1000.4168	0.137147	-421.791521	-421.784489	-421.783545	-421.823053	27.682	
C	-0.1818375712	 1.4564778135	-0.0107574004	-0.2422
O	 1.1050480094	 0.8369597968	 0.0109855904	-0.287194
C	-0.0623809049	-0.0054563361	 0.0301107018	 0.421432
C	-0.2997151036	-0.863444155	 1.2197979806	-0.142968
C	-0.5929081641	-2.1190336541	 0.8687386048	-0.096439
C	-0.6311106458	-2.3066588728	-0.6236462099	-0.140145
C	-2.0156615526	-2.1298081566	-1.2997841574	-0.075512
O	-1.7139704532	-0.7644216389	-1.6529304347	-0.288214
C	-0.3521591214	-0.8843710694	-1.1781605133	 0.012
H	-0.4576858676	 1.9990688783	 0.8929281614	 0.11393
H	-0.4601041994	 1.940459242	-0.9458476119	 0.125539
H	-0.2198450914	-0.4839777754	 2.2315522886	 0.107702
H	-0.804940786	-2.9253896973	 1.5623239771	 0.10547
H	-0.0339209341	-3.1469019463	-0.9834732992	 0.089843
H	-2.1675540787	-2.753223328	-2.1900390487	 0.101587
H	-2.8928374621	-2.2060621549	-0.647361113	 0.105706
H	 0.3810211468	-0.748704906	-1.9793533362	 0.089464
96.5076	201.1832	218.7781	312.0524	351.5171	441.614	505.7836	597.2111	707.3147	784.0215	822.4574	834.7277	857.0709	879.2858	893.3665	934.9539	973.7273	985.4961	998.2437	1028.7383	1054.8015	1077.7498	1115.0632	1127.068	1160.0398	1166.1783	1223.4672	1240.4687	1256.7968	1296.3423	1322.4688	1342.5429	1357.5321	1434.8587	1522.1812	1529.7474	1661.1582	3014.5305	3063.8038	3066.0005	3080.9982	3091.2031	3168.3705	3188.1083	3215.0959
C1OC11C=CC2COC12	C1O[C@]21C=C[C@H]1CO[C@@H]21	
InChI=1S/C7H8O2/c1-2-7(4-9-7)6-5(1)3-8-6/h1-2,5-6H,3-4H2	InChI=1S/C7H8O2/c1-2-7(4-9-7)6-5(1)3-8-6/h1-2,5-6H,3-4H2/t5-,6+,7-/m0/s1
