20
gdb 9763	3.09132	1.65796	1.53545	2.7184	70.27	-0.244	0.0753	0.3193	958.716	0.177503	-386.153317	-386.144975	-386.144031	-386.185982	31.769	
C	-0.2191726075	 1.6510924348	 0.070304154	-0.430819
C	-0.0194810861	 0.1453555878	-0.0845323831	 0.380371
C	-1.3699200079	-0.5850294204	-0.2061531948	-0.076433
O	-2.1041123986	-0.5112912592	 0.9966897264	-0.426098
C	 0.9440094518	-0.2430839411	-1.224654791	-0.280101
C	 1.7555298895	-1.4062925079	-0.6329768301	-0.22423
C	 1.8280242612	-1.0072565578	 0.8418735001	-0.068076
O	 0.5896687384	-0.3645541834	 1.1313826271	-0.317572
H	 0.7295163967	 2.1407937063	 0.308043018	 0.111115
H	-0.6096078962	 2.0836314535	-0.857250012	 0.110823
H	-0.9335263502	 1.854358945	 0.8715947116	 0.13457
H	-1.9810092884	-0.1220355561	-0.9891361752	 0.101322
H	-1.1872241286	-1.6324471971	-0.4995542225	 0.073621
H	-1.4701876411	-0.7418093117	 1.6888982457	 0.288134
H	 0.4075624611	-0.5145464204	-2.1384634386	 0.106448
H	 1.6018550198	 0.5985996598	-1.4656037408	 0.10295
H	 1.2177099451	-2.3531778301	-0.7445735014	 0.110853
H	 2.7406459819	-1.5225354956	-1.0914369957	 0.103709
H	 1.9444519201	-1.8556748816	 1.5234803982	 0.106412
H	 2.6640091991	-0.3126711847	 1.0191576239	 0.093002
65.5271	142.648	193.9923	238.7961	266.0076	326.7946	344.1361	411.5133	489.2036	512.592	598.9798	647.3527	756.0065	856.5682	882.9052	901.1632	925.2158	936.8028	954.1438	1015.9545	1041.7002	1079.6834	1086.0549	1132.167	1182.5315	1205.4479	1210.5333	1248.2711	1258.5256	1286.2627	1332.4225	1344.5188	1380.7673	1386.6871	1405.579	1440.8095	1481.0529	1486.5651	1497.1665	1500.7054	1506.9953	1527.7361	2963.6638	2981.2189	3036.9803	3047.2759	3053.0585	3064.7696	3074.3841	3093.224	3107.2881	3110.5609	3130.2323	3763.5926
CC1(CO)CCCO1	C[C@@]1(CO)CCCO1	
InChI=1S/C6H12O2/c1-6(5-7)3-2-4-8-6/h7H,2-5H2,1H3	InChI=1S/C6H12O2/c1-6(5-7)3-2-4-8-6/h7H,2-5H2,1H3/t6-/m0/s1
