16
gdb 60745	2.99473	1.0921	0.90401	2.8368	68.28	-0.2613	-0.0639	0.1974	1267.8903	0.122022	-475.007389	-474.998368	-474.997424	-475.04222	31.629	
O	 0.2601113087	 1.5426171245	 0.0427410485	-0.407036
C	 0.0096183226	 0.1827950717	 0.0071544334	-0.045176
C	 0.2582143074	-0.4305027337	-1.3867785464	 0.133805
O	 0.8184406027	 0.1446572602	-2.2746953544	-0.213764
C	 0.8696741541	-0.5648887365	 1.0365856848	 0.351801
O	 1.7176389837	 0.0577474736	 1.6462864237	-0.347989
C	 0.653956227	-2.0202945877	 1.2422203336	-0.11461
C	 1.8852380205	-2.8845425549	 1.1835332674	-0.215754
N	 1.2249039967	-2.6308636567	 2.4513993008	-0.296164
H	 1.0435234016	 1.6554108284	 0.6044338095	 0.302166
H	-1.0478395003	-0.0321671213	 0.2457799293	 0.118306
H	-0.1406113376	-1.4637558283	-1.5065285608	 0.083493
H	-0.2956601256	-2.4308332758	 0.9135787783	 0.112198
H	 1.7851072064	-3.8929454378	 0.793573011	 0.13927
H	 2.8254128297	-2.3838556564	 0.9704617713	 0.1434
H	 1.7307188223	-1.8975901292	 2.9493243504	 0.256054
57.1523	65.689	104.2395	181.8746	240.6379	269.787	310.2282	354.9208	375.3838	421.6635	631.7372	704.0146	768.3569	787.4148	834.5976	877.6428	909.6237	953.8477	994.538	1027.6258	1071.9224	1122.3787	1138.9386	1175.3379	1178.1454	1223.0011	1286.1019	1315.1822	1338.8955	1403.6156	1409.7219	1425.8037	1498.8234	1767.9756	1853.3854	2867.1886	2956.031	3117.3092	3163.2182	3212.8991	3471.0533	3693.7685
OC(C=O)C(=O)C1CN1	O[C@@H](C=O)C(=O)[C@H]1CN1	
InChI=1S/C5H7NO3/c7-2-4(8)5(9)3-1-6-3/h2-4,6,8H,1H2	InChI=1S/C5H7NO3/c7-2-4(8)5(9)3-1-6-3/h2-4,6,8H,1H2/t3-,4+/m1/s1
