18
gdb 11001	3.77135	1.72422	1.4781	3.3291	72.06	-0.2323	-0.0062	0.2261	914.5564	0.154584	-347.83677	-347.829416	-347.828472	-347.86805	28.837	
C	-0.0448765894	 1.5166821726	-0.0096498902	-0.479051
C	 0.0222737188	 0.009217277	 0.0055396408	 0.346855
C	-0.774444815	-0.7702960432	 0.9991989991	-0.330264
C	 0.7510646663	-0.7594452855	 1.1053545436	-0.179279
C	 1.4452053523	-1.9182061787	 0.4707250598	 0.423645
O	 2.337385174	-2.5704706987	 0.9544537538	-0.333919
C	 0.876459342	-2.0919659767	-0.9485752936	-0.346985
C	 0.2984196595	-0.7122538661	-1.3206949748	-0.271844
H	 0.8789102038	 1.9507788801	-0.4081356878	 0.121716
H	-0.8735506869	 1.8637424886	-0.6382928898	 0.122271
H	-0.2010881351	 1.9199569012	 0.9956917171	 0.119118
H	-1.2934319878	-0.2140914502	 1.7724904126	 0.120986
H	-1.2719566676	-1.6889862308	 0.7052536659	 0.117723
H	 1.2121408206	-0.2847745917	 1.9625972513	 0.100709
H	 1.6592817063	-2.4435801324	-1.6227816437	 0.129086
H	 0.1062978516	-2.8721917984	-0.924474742	 0.128485
H	-0.6000915937	-0.776366324	-1.9438368668	 0.102798
H	 1.0413641601	-0.1381857933	-1.8863523956	 0.10795
116.9402	181.3965	219.0328	291.5774	367.0262	378.6029	468.3712	512.9601	557.0961	649.2774	680.63	777.0332	812.2882	868.0882	913.1443	925.9827	951.2381	998.2159	1030.7402	1044.9516	1058.4079	1070.1226	1103.8942	1172.649	1186.5278	1228.0698	1244.1651	1286.5292	1307.509	1326.8824	1399.2211	1422.6299	1461.8412	1488.2237	1489.8833	1497.8038	1509.8804	1832.122	3024.1641	3035.7117	3046.1308	3074.0697	3085.0611	3102.4669	3119.6983	3127.7951	3195.4734	3212.8969
CC12CC1C(=O)CC2	C[C@]12C[C@H]1C(=O)CC2	
InChI=1S/C7H10O/c1-7-3-2-6(8)5(7)4-7/h5H,2-4H2,1H3	InChI=1S/C7H10O/c1-7-3-2-6(8)5(7)4-7/h5H,2-4H2,1H3/t5-,7-/m0/s1
