16
gdb 34520	4.41302	1.27208	1.16356	1.8495	77.85	-0.2459	-0.0283	0.2177	1065.8747	0.125586	-400.706489	-400.699446	-400.698502	-400.737805	28.271	
C	 0.0985906542	-1.1379542094	 0.0138121781	-0.299726
C	 0.006219026	 0.0599351283	 0.0094065017	 0.23658
C	-0.0927278469	 1.4867102938	 0.0037590493	 0.192911
N	-1.2111589562	 2.0983394558	 0.0402053249	-0.310756
C	-1.0793323919	 3.5563401989	 0.0260225323	 0.008969
C	-0.0588969367	 3.9582963777	-1.0834930789	-0.244689
C	 1.0129354186	 3.5368777709	-0.0494249738	 0.11304
C	 0.0183005636	 3.9721068098	 1.0537490333	-0.244689
O	 1.1266429122	 2.0983823494	-0.0442370083	-0.274501
H	 0.170387327	-2.1978252755	 0.0180691215	 0.200183
H	-2.0622728024	 4.0238797565	 0.0585052762	 0.080511
H	-0.0983401532	 3.4177842144	-2.0308259711	 0.115891
H	-0.0370781215	 5.0363121888	-1.2536897566	 0.109697
H	 2.0316630826	 3.9194267522	-0.0886933369	 0.09099
H	 0.0518386237	 5.0522191505	 1.2080008362	 0.109697
H	 0.047555721	 3.4438846679	 2.0083559019	 0.115891
115.3047	159.7127	305.5886	362.2897	419.1952	470.7112	520.7484	544.2223	579.8414	647.6304	667.4925	739.5346	818.485	829.9397	869.5928	871.6834	887.7034	949.0129	978.8627	1001.0713	1055.4023	1068.2505	1127.2377	1161.6071	1183.132	1234.1557	1244.8651	1256.1474	1275.9763	1343.9565	1372.2139	1466.5307	1496.1187	1675.0835	2247.6423	3072.3753	3077.1662	3119.3798	3128.5774	3138.521	3141.2426	3501.5293
C#CC1=NC2CC(C2)O1	C#C[C]1[N][C@@H]2C[C@@H](C2)O1	
InChI=1S/C7H7NO/c1-2-7-8-5-3-6(4-5)9-7/h1,5-6H,3-4H2	InChI=1S/C7H7NO/c1-2-7-8-5-3-6(4-5)9-7/h1,5-6H,3-4H2/t5-,6+
