19
gdb 80521	2.15457	1.46511	1.25025	2.2776	77.89	-0.2459	-0.0212	0.2247	1121.948	0.158025	-423.012242	-423.00323	-423.002285	-423.045754	33.742	
C	-0.0735497393	 1.5532535187	-0.0147715103	-0.42578
C	 0.0846290013	 0.046813636	 0.053420233	-0.068403
C	 1.3191667118	-0.7241820425	-0.2387055191	-0.119315
C	 2.5901215525	-0.0237544091	 0.2597906002	-0.256102
C	 2.0383305293	-0.0571577124	 1.7108469042	 0.040421
O	 2.0044978981	 1.2013044127	 2.3466819867	-0.425468
C	 0.7301287479	-0.6918946905	 1.2194446035	 0.217005
C	 0.0380140136	-1.7686058649	 1.9277984687	 0.048749
O	 0.2873881539	-2.1039849254	 3.0649590704	-0.281287
H	 0.7755653016	 2.0792414754	 0.4197797599	 0.152982
H	-0.1972030921	 1.8724636361	-1.0555599322	 0.116969
H	-0.9669391008	 1.8624870405	 0.5374100485	 0.121132
H	-0.8036714346	-0.4884205898	-0.2840843172	 0.095304
H	 1.3105263246	-1.585738017	-0.8957059803	 0.102807
H	 3.4969158277	-0.617047517	 0.1350764488	 0.114017
H	 2.7637587265	 0.9769615277	-0.142906161	 0.1166
H	 2.5762920356	-0.7907767313	 2.322732202	 0.097098
H	 1.6208304032	 1.0793541336	 3.2217570757	 0.291152
H	-0.7577137308	-2.2818268608	 1.3377743383	 0.06212
91.9401	138.8123	171.7918	189.7116	236.5789	266.3686	291.0588	331.8581	394.6834	478.1131	498.9688	599.3984	673.7248	714.9994	770.473	842.6179	899.4566	945.6161	956.0784	996.2846	1038.187	1053.3997	1069.8232	1095.709	1120.8894	1137.164	1165.9106	1228.0875	1239.3917	1259.858	1281.5122	1332.0807	1351.1489	1414.7955	1424.5044	1428.0283	1460.2098	1486.5053	1497.961	1511.5229	1787.9605	2851.1636	3036.1017	3039.435	3074.3512	3095.9418	3104.848	3129.0425	3162.8741	3186.0937	3811.7131
CC1C2CC(O)C12C=O	C[C@H]1[C@H]2C[C@@H](O)[C@@]12C=O	
InChI=1S/C7H10O2/c1-4-5-2-6(9)7(4,5)3-8/h3-6,9H,2H2,1H3	InChI=1S/C7H10O2/c1-4-5-2-6(9)7(4,5)3-8/h3-6,9H,2H2,1H3/t4-,5+,6+,7-/m0/s1
