16
gdb 16377	2.67006	2.11564	1.41682	2.8053	60.64	-0.2469	0.05	0.2969	888.5662	0.12895	-420.830281	-420.822366	-420.821421	-420.862361	29.609	
O	 0.5715123581	 0.7764244427	-0.8778446133	-0.425038
C	 0.1111329501	-0.259213692	-0.0511990074	 0.060668
C	 0.1242052413	-0.0907665986	 1.5009165243	-0.31608
C	-1.2674715307	-0.7971653041	 1.5637392539	 0.03528
O	-2.290393152	-0.2207291903	 2.339141878	-0.430029
C	-1.3936103987	-0.5324203006	 0.0664148468	 0.39323
C	-2.4872202892	 0.1583037307	-0.6176193613	-0.263921
O	-2.2098576071	-1.2332183983	-0.8441441711	-0.275811
H	 0.1234320286	 1.5874493936	-0.6141907733	 0.279865
H	 0.6514776611	-1.1567091853	-0.3665908817	 0.105446
H	 0.954760054	-0.5347050001	 2.0515938054	 0.106151
H	 0.0162220237	 0.9615118882	 1.7819390364	 0.10532
H	-1.1660270191	-1.8729198967	 1.7615283332	 0.083637
H	-2.2094206671	-0.5416166634	 3.2423817953	 0.289095
H	-3.4033658344	 0.3695900866	-0.0711624048	 0.134192
H	-2.2622421487	 0.8141381677	-1.4575362606	 0.117994
90.3911	202.009	211.0214	231.23	264.2853	321.1451	337.4994	468.9901	515.0957	546.6059	562.6781	708.1832	829.6898	856.6295	890.2827	926.9071	1024.9425	1046.9901	1051.6194	1102.8691	1131.6749	1152.0813	1158.0234	1173.8797	1188.3956	1236.1081	1263.5696	1295.9939	1315.7831	1414.3102	1433.5873	1453.3218	1480.7963	1528.225	3013.054	3060.4111	3075.3909	3090.0001	3130.327	3187.2531	3805.4395	3825.7017
OC1CC(O)C11CO1	O[C@H]1C[C@@H](O)[C@]21CO2	
InChI=1S/C5H8O3/c6-3-1-4(7)5(3)2-8-5/h3-4,6-7H,1-2H2	InChI=1S/C5H8O3/c6-3-1-4(7)5(3)2-8-5/h3-4,6-7H,1-2H2/t3-,4+,5+
