21
gdb 63688	4.29905	0.63044	0.6076	2.6789	80.99	-0.2463	-0.0199	0.2265	1851.6458	0.178998	-424.223328	-424.212882	-424.211938	-424.259765	37.571	
C	 0.1878266159	 1.5448016074	-0.3471674585	-0.449579
C	 0.0397345343	 0.0697226885	-0.0489864881	 0.382266
O	-1.1334571074	-0.4951275877	-0.5843411237	-0.466116
C	 1.2519979909	-0.8312261822	 0.032319953	-0.351865
C	 0.4180791274	-0.538947675	 1.2706930119	-0.016058
C	 0.9777825545	 0.2468386118	 2.4366092522	-0.239393
C	 1.7939227886	-0.6433270324	 3.3956689728	-0.261932
C	 2.2657982579	 0.1234762183	 4.6081011102	 0.158149
O	 3.4140632232	 0.2442186977	 4.949700116	-0.238104
H	 1.0925029548	 1.96762738	 0.0966820616	 0.12005
H	 0.2502110301	 1.7084657689	-1.430235447	 0.109566
H	-0.6773143784	 2.1019458126	 0.0265361354	 0.127233
H	-1.0577764337	-0.4721967164	-1.5451859793	 0.278997
H	 1.1738530937	-1.8181530276	-0.4096668063	 0.112835
H	 2.2350387347	-0.3743954517	-0.0367605339	 0.108708
H	-0.2472261421	-1.348839059	 1.5600112622	 0.097037
H	 1.618693648	 1.0598462193	 2.0774415605	 0.109507
H	 0.1578140438	 0.7220915313	 2.9917649873	 0.107591
H	 1.1534436028	-1.4642224276	 3.7502459808	 0.118081
H	 2.6605790281	-1.0811181552	 2.8928660863	 0.124701
H	 1.443872403	 0.603105849	 5.1923332165	 0.068325
48.2396	61.5236	88.9825	126.9048	206.5063	222.0128	266.8196	282.8992	315.5754	383.8869	423.6983	451.3963	493.0627	538.6488	703.3046	771.2294	834.6608	852.6283	904.8456	925.9571	930.7643	984.1349	1009.6412	1043.2834	1058.9819	1087.1658	1113.2416	1126.7011	1164.3838	1212.4934	1243.9676	1269.8711	1292.5263	1314.0064	1349.7589	1374.3585	1415.3608	1425.3533	1430.6913	1464.0988	1478.7216	1488.2109	1494.3119	1512.8771	1836.2814	2843.9855	3011.8461	3018.6163	3026.7608	3062.6524	3088.0084	3104.4773	3120.0213	3124.7872	3141.962	3216.9617	3787.0974
CC1(O)CC1CCC=O	C[C@@]1(O)C[C@H]1CCC=O	
InChI=1S/C7H12O2/c1-7(9)5-6(7)3-2-4-8/h4,6,9H,2-3,5H2,1H3	InChI=1S/C7H12O2/c1-7(9)5-6(7)3-2-4-8/h4,6,9H,2-3,5H2,1H3/t6-,7-/m1/s1
