21
gdb 108553	3.22037	1.3814	1.20772	1.6885	81.02	-0.2346	0.0872	0.3218	1126.6699	0.183994	-387.0677	-387.059763	-387.058819	-387.100042	31.665	
C	 0.2269107042	 1.4699299786	 0.1864946046	-0.379803
C	-0.0718992894	 0.0020182449	-0.1482991296	-0.291269
C	 0.6572456196	-0.4955758176	-1.3769106412	 0.346597
C	 0.3170285539	 0.1085084215	-2.7421210837	-0.154732
O	 0.5775077977	-0.9182040585	-3.7046980424	-0.264358
C	 1.3923681601	-1.8802198814	-3.0539889484	 0.080079
C	 2.7421961397	-1.2614404379	-2.5597318644	-0.26193
C	 2.0724533756	-1.0399146893	-1.2019786848	-0.115717
C	 0.9173050316	-1.9594120226	-1.5829516317	-0.147358
H	 1.2965071614	 1.6244468862	 0.3625101543	 0.119255
H	-0.0741156585	 2.1354015706	-0.6295496346	 0.120681
H	-0.3121491953	 1.7847381174	 1.0852128821	 0.11312
H	 0.1976954388	-0.6289231379	 0.7074350517	 0.098345
H	-1.152778146	-0.126068294	-0.2945904277	 0.099845
H	-0.7433200039	 0.3844974743	-2.8041280294	 0.098938
H	 0.9137543083	 1.0025669224	-2.9707984752	 0.095966
H	 1.4342491782	-2.7759399761	-3.6719113756	 0.082136
H	 3.5299777336	-2.0176696562	-2.4968059381	 0.100769
H	 3.1133671042	-0.396681891	-3.1198808145	 0.095395
H	 2.5762934612	-0.9608548096	-0.2448099626	 0.080174
H	 0.4346246152	-2.7717062438	-1.0557569087	 0.083865
91.0957	152.5853	198.0951	234.6739	327.9355	347.5573	412.3872	447.4333	591.6202	665.689	707.1697	785.1531	795.5062	846.894	847.8162	870.7901	914.8663	956.3369	970.097	989.9372	996.1162	1000.914	1042.1482	1047.0959	1091.7494	1100.7458	1118.0444	1124.9251	1177.692	1206.6955	1222.7188	1240.5903	1270.1029	1276.4104	1303.6627	1343.3953	1357.6649	1374.2375	1412.242	1423.545	1482.7708	1487.1816	1498.8952	1506.7263	1522.4696	2998.6504	3015.3494	3034.3749	3037.8059	3040.8778	3051.5682	3094.8642	3102.7263	3106.9223	3130.2367	3167.7509	3200.4961
CCC12COC3CC1C23	CC[C@@]12CO[C@H]3C[C@@H]1[C@@H]23	
InChI=1S/C8H12O/c1-2-8-4-9-6-3-5(8)7(6)8/h5-7H,2-4H2,1H3	InChI=1S/C8H12O/c1-2-8-4-9-6-3-5(8)7(6)8/h5-7H,2-4H2,1H3/t5-,6+,7-,8-/m1/s1
