15
gdb 128140	2.27494	1.56915	0.93812	6.2443	79.	-0.2061	0.0071	0.2133	1190.2208	0.112665	-412.948711	-412.940068	-412.939124	-412.982259	31.36	
C	 0.1062243458	 1.4483129823	 0.075491127	-0.347687
N	-0.1706221248	 0.0381331518	-0.1330662663	-0.409116
C	 0.510803147	-0.6839985442	-1.0704183203	 0.32324
C	 0.6868253072	-2.0614159589	-1.2030400993	 0.139033
N	 1.40838691	-2.2876459175	-2.3507351595	-0.263198
N	 1.6899902084	-1.1692526704	-2.9231222184	-0.13718
N	 1.147053823	-0.1730739601	-2.1458359859	-0.254194
C	 0.2192674994	-3.0533107703	-0.3193096141	 0.239888
C	-0.1992194464	-3.858019334	 0.4748957492	-0.435859
H	 1.1603210122	 1.6543902416	 0.3133879364	 0.131191
H	-0.1689172258	 2.02628841	-0.8143532128	 0.136
H	-0.5126320926	 1.8098166053	 0.8983513906	 0.146837
H	-0.3898439499	-0.5001947022	 0.6920573916	 0.261922
H	 1.2520332588	 0.7864778647	-2.4294633924	 0.278455
H	-0.5646848521	-4.5857417382	 1.1559437144	 0.190665
78.6527	114.4734	159.7354	177.1171	222.9658	313.3845	391.9277	478.4913	491.9017	496.8444	526.7472	574.1978	622.5198	688.2237	694.5597	754.1847	766.4929	982.8574	1006.7785	1072.0432	1146.3778	1164.7238	1226.3841	1265.9912	1301.1692	1412.1333	1451.1366	1469.3755	1489.6839	1518.4196	1540.7241	1650.7205	2226.4997	2993.9523	3061.5117	3133.9407	3503.1437	3610.3964	3673.9664
CNC1=C(N=NN1)C#C	CNc1c(nn[nH]1)C#C	
InChI=1S/C5H6N4/c1-3-4-5(6-2)8-9-7-4/h1H,2H3,(H2,6,7,8,9)	InChI=1S/C5H6N4/c1-3-4-5(6-2)8-9-7-4/h1H,2H3,(H2,6,7,8,9)
