17
gdb 130219	3.17247	1.25241	0.93102	1.9648	70.83	-0.1988	0.0153	0.2141	1209.4946	0.138205	-451.327292	-451.318612	-451.317668	-451.361185	32.141	
N	 0.425328123	 1.3232854499	-0.5188105903	-0.604507
C	 0.2463558498	-0.0030414555	-0.1715828639	 0.260486
N	-0.9585560834	-0.5041798327	 0.1072884105	-0.284705
N	-0.7029346621	-1.8006358846	 0.3134285017	-0.09276
N	 0.5536966296	-2.1804226096	 0.1872848747	-0.264714
C	 1.2047367543	-1.0523073023	-0.1159197585	 0.257041
C	 2.6960959308	-1.0590660712	-0.2831715906	-0.311768
C	 3.2473113594	-0.2490517367	-1.4557749061	-0.087109
O	 3.2795598151	 1.1310149802	-1.0785649053	-0.409435
H	 1.3864216891	 1.6340222289	-0.4528598519	 0.256428
H	-0.247891785	 1.949356716	-0.1024987316	 0.247885
H	-1.4358254625	-2.4515239031	 0.5366331913	 0.284899
H	 3.1918926204	-0.6846734048	 0.6231633538	 0.123095
H	 3.0044764265	-2.1025578682	-0.3968734723	 0.125011
H	 4.2661862787	-0.5925130342	-1.6844485762	 0.098382
H	 2.6277805422	-0.3982682815	-2.3504447334	 0.108257
H	 3.483025094	 1.6521192095	-1.8613338721	 0.293512
32.7313	153.7164	184.7412	241.4739	291.5545	299.0286	346.3357	382.2319	409.167	437.8438	504.5572	632.7206	663.2338	705.0433	742.0064	778.4745	882.2952	957.3657	997.3219	1055.3681	1078.5866	1115.8246	1183.9567	1195.6465	1238.113	1267.9781	1281.3007	1300.6571	1368.0311	1405.0692	1447.9713	1463.9451	1467.6465	1516.2672	1550.365	1591.1555	1649.3869	2994.7861	3014.9289	3040.0927	3091.089	3531.8189	3656.0779	3688.1004	3829.0101
NC1=NNN=C1CCO	Nc1n[nH]nc1CCO	
InChI=1S/C4H8N4O/c5-4-3(1-2-9)6-8-7-4/h9H,1-2H2,(H3,5,6,7,8)	InChI=1S/C4H8N4O/c5-4-3(1-2-9)6-8-7-4/h9H,1-2H2,(H3,5,6,7,8)
