16
gdb 23394	2.99119	1.39172	1.33464	1.2081	68.58	-0.2574	-0.0128	0.2446	1010.0208	0.125127	-474.939058	-474.931776	-474.930832	-474.970773	28.486	
O	-0.2173786335	 1.2565962257	 0.1958834924	-0.386597
N	-0.0857597628	-0.1410691974	 0.1924685922	-0.285689
C	-1.2113595054	-0.7148081264	 0.1659720775	 0.39321
C	-2.6834824735	-0.3565463637	-0.0683956902	 0.029355
C	-2.6847116749	-1.6055005359	-1.0070300958	-0.249753
C	-1.5835364303	-2.1756059852	-0.0554771889	 0.040794
O	-2.239257775	-2.6988470419	 1.1039119576	-0.277267
C	-2.7915090637	-1.6502916696	 1.8753752218	 0.02746
O	-3.4560244865	-0.6785906018	 1.0903592566	-0.27626
H	 0.7010549637	 1.5480697377	 0.2088190874	 0.311316
H	-2.9750635253	 0.6293878693	-0.4236707804	 0.108181
H	-3.618156055	-2.1694418302	-1.0415304851	 0.117433
H	-2.3045667825	-1.3824181697	-2.0065146653	 0.116584
H	-0.8478848118	-2.9010825552	-0.3987590168	 0.100939
H	-3.5293208291	-2.0899930319	 2.5485224001	 0.125348
H	-1.9882124142	-1.1616338338	 2.4495232069	 0.104946
104.2548	184.1141	287.3004	304.7933	341.0469	425.0868	438.0944	473.0987	551.0887	617.9488	694.9271	780.9983	831.1112	833.8445	916.0809	932.5482	964.7873	999.353	1003.2187	1075.5981	1084.722	1136.4667	1139.8045	1158.7009	1184.1301	1244.452	1250.8774	1273.2817	1336.8067	1341.6556	1410.7696	1435.7539	1459.351	1516.8467	1784.4381	2974.0961	3071.2824	3120.2374	3135.7108	3144.8578	3147.1378	3813.6483
ON=C1C2CC1OCO2	ON=C1[C@H]2C[C@@H]1OCO2	
InChI=1S/C5H7NO3/c7-6-5-3-1-4(5)9-2-8-3/h3-4,7H,1-2H2	InChI=1S/C5H7NO3/c7-6-5-3-1-4(5)9-2-8-3/h3-4,7H,1-2H2/t3-,4+
