16
gdb 6333	5.39029	1.07757	0.90823	4.2004	64.	-0.2606	-0.0245	0.2361	1229.2214	0.129471	-417.097678	-417.088805	-417.087861	-417.131741	30.948	
C	 0.0175112887	 1.5086974485	 0.0593221436	-0.46855
C	-0.0421074797	 0.0077514869	 0.1816375231	 0.377541
N	-0.1069996744	-0.5652268822	 1.3086138509	-0.481593
N	-0.0161581198	-0.6394740862	-1.0847235612	-0.376503
C	-0.0547136107	-1.9847335662	-1.3296782647	 0.403782
O	-0.1197027962	-2.8449483285	-0.4672445052	-0.368977
C	-0.0107849631	-2.3911875618	-2.8056881738	-0.144947
O	-0.0562586191	-3.7787295812	-2.9254296217	-0.415335
H	 0.9358460839	 1.8272111171	-0.4479667377	 0.134749
H	-0.8310043515	 1.8916949187	-0.5198424667	 0.134656
H	-0.0071551149	 1.9428424137	 1.0575408479	 0.163356
H	-0.1397451255	-1.5794901068	 1.2026946433	 0.25206
H	 0.0379833671	-0.0381859652	-1.8939008301	 0.25807
H	-0.8596535993	-1.9177284755	-3.3262905577	 0.116305
H	 0.9086441362	-1.9816302605	-3.2559674838	 0.116278
H	-0.1039984017	-4.1093421408	-2.013019936	 0.299109
66.4686	88.7058	112.2543	165.1781	166.5023	333.6139	341.609	413.2969	413.5415	537.6578	546.5064	547.5643	618.8241	736.89	889.2226	934.3355	965.2675	1030.5908	1032.7402	1082.1278	1115.7738	1146.7845	1233.5473	1249.5242	1309.4016	1352.9286	1409.921	1453.2527	1474.8001	1484.8533	1504.8816	1527.9568	1740.4329	1789.4478	2968.666	2986.996	3032.2643	3086.6042	3169.1423	3491.3604	3607.6493	3672.0761
CC(=N)NC(=O)CO	CC(=N)NC(=O)CO	
InChI=1S/C4H8N2O2/c1-3(5)6-4(8)2-7/h7H,2H2,1H3,(H2,5,6,8)	InChI=1S/C4H8N2O2/c1-3(5)6-4(8)2-7/h7H,2H2,1H3,(H2,5,6,8)
