19
gdb 26416	4.34146	0.92323	0.79138	2.9591	77.9	-0.2097	0.04	0.2497	1443.2905	0.160141	-419.249584	-419.240594	-419.239649	-419.284093	33.383	
C	-0.1313637618	 1.4961476842	 0.2077191514	-0.399326
C	-0.2539656187	-0.0008491562	-0.0763148157	 0.126989
O	-1.4422170109	-0.2793967039	-0.8236970641	-0.430184
C	 0.9199379897	-0.5300241177	-0.9044649613	-0.299666
C	 0.949232617	-2.0212999259	-1.0622021041	 0.270131
C	-0.0618550112	-2.878342484	-1.4208328506	-0.171158
N	 0.5039343126	-4.1347224767	-1.4249424966	-0.230189
C	 1.8121283106	-3.9905548044	-1.0751048349	 0.003587
N	 2.1146529359	-2.7331636521	-0.8491510798	-0.306516
H	 0.7633298732	 1.7121719115	 0.8005065648	 0.117978
H	-0.0756022017	 2.0603491331	-0.7287511427	 0.123311
H	-0.9990303973	 1.8583011732	 0.7715574198	 0.099743
H	-0.2803024462	-0.550310725	 0.8783342104	 0.068772
H	-2.195926057	-0.0047847605	-0.2923038332	 0.279105
H	 0.882077061	-0.0344623494	-1.8841682769	 0.110389
H	 1.8590797569	-0.2300597278	-0.4309342157	 0.113446
H	-1.0963492544	-2.7041651484	-1.6569087067	 0.137191
H	 0.0330821914	-4.9968262936	-1.6414773234	 0.262694
H	 2.486840851	-4.8303915863	-1.0007100906	 0.123702
36.7597	85.4671	134.4172	240.388	288.1675	304.4189	310.8358	323.9612	462.2645	466.1461	522.6926	660.2373	692.8523	740.554	767.9082	815.1106	849.2815	902.06	946.9247	950.0343	989.0671	1052.8678	1090.9189	1112.205	1114.3337	1138.9336	1191.4959	1242.7089	1255.4861	1308.4838	1338.0678	1359.5111	1385.8879	1404.1451	1424.5196	1456.0006	1467.5026	1492.3646	1497.6666	1524.2709	1589.2517	2972.402	3019.8092	3027.0781	3091.8938	3095.5613	3112.5822	3249.66	3301.9431	3667.7861	3819.0546
CC(O)CC1=CNC=N1	C[C@@H](O)Cc1c[nH]cn1	
InChI=1S/C6H10N2O/c1-5(9)2-6-3-7-4-8-6/h3-5,9H,2H2,1H3,(H,7,8)	InChI=1S/C6H10N2O/c1-5(9)2-6-3-7-4-8-6/h3-5,9H,2H2,1H3,(H,7,8)/t5-/m1/s1
