17
gdb 85501	2.29634	1.56698	1.15654	5.6147	68.33	-0.2672	-0.0469	0.2203	1093.5368	0.135004	-459.018509	-459.010048	-459.009104	-459.052034	30.793	
C	-0.7550882907	 1.325432281	 0.1088231921	-0.429127
C	 0.0566084686	 0.0413277065	-0.0509083557	-0.009314
C	 1.3099619201	 0.1448392955	-0.9283232173	-0.374794
C	 2.2079056363	-0.9738004006	-0.4142034757	 0.440135
O	 3.1507280736	-1.4844331294	-0.9358147799	-0.325169
O	 1.7521193665	-1.3726991065	 0.8160660653	-0.205368
C	 0.6741868742	-0.55302229	 1.2521280241	-0.007276
C	 1.1837081159	 0.5386273576	 2.1883390375	 0.150619
O	 2.3108241472	 0.9551616207	 2.1737895257	-0.232804
H	-0.1385300722	 2.152148921	 0.4769110253	 0.136669
H	-1.1720421076	 1.6304067063	-0.8553332982	 0.134027
H	-1.592507513	 1.1897127807	 0.8014522421	 0.125285
H	-0.5924791362	-0.7392796272	-0.4639171923	 0.103289
H	 1.1282525791	 0.0245973128	-1.9970002404	 0.14179
H	 1.8318782814	 1.0970337393	-0.7791842364	 0.152827
H	-0.0386800848	-1.1830942677	 1.7941809073	 0.110045
H	 0.4150907516	 0.94865178	 2.8807899964	 0.089167
83.5192	98.335	119.6748	238.552	267.9709	294.3413	298.9567	453.0965	494.2465	536.4297	592.2991	643.9699	778.0108	819.2489	851.2111	903.9064	917.5855	946.2888	1006.1577	1062.9817	1101.8473	1121.2855	1157.9685	1164.9901	1183.7291	1274.474	1284.5273	1340.4839	1367.4895	1391.1691	1414.6931	1418.1561	1465.2222	1497.1795	1502.8695	1839.153	1901.2929	2884.6325	3034.4164	3038.0599	3059.9633	3064.986	3102.7472	3110.6557	3131.098
CC1CC(=O)OC1C=O	C[C@H]1CC(=O)O[C@H]1C=O	
InChI=1S/C6H8O3/c1-4-2-6(8)9-5(4)3-7/h3-5H,2H2,1H3	InChI=1S/C6H8O3/c1-4-2-6(8)9-5(4)3-7/h3-5H,2H2,1H3/t4-,5-/m0/s1
