19
gdb 79353	2.824	1.76141	1.60288	1.3322	72.94	-0.2193	0.0804	0.2997	939.4558	0.161762	-423.014981	-423.007914	-423.006969	-423.0462	28.774	
C	-0.1165110673	 1.5023448411	-0.0253766156	-0.413796
C	 0.0445635342	-0.0192888092	-0.0507054016	 0.022636
C	 0.984113567	-0.4874685976	-1.1569862861	-0.161193
C	 2.3252495882	-0.6692290495	-0.4584831625	 0.046992
O	 2.18909777	-0.3228066807	 0.9010215827	-0.261499
C	 0.802834609	-0.5693694785	 1.1832049648	 0.014
C	 0.625920552	-2.0815451044	 1.2897641054	-0.065953
O	 0.9133151967	-2.7120366334	 0.0396652676	-0.277387
C	 1.5388285793	-1.8752420444	-0.8958790225	 0.074919
H	 0.8520539545	 1.9883332226	 0.1261020959	 0.132501
H	-0.5368846823	 1.8688836315	-0.9674148821	 0.113861
H	-0.785307184	 1.8152540515	 0.7835324028	 0.111187
H	-0.9365374673	-0.5022822256	-0.1245655963	 0.082512
H	 0.881949143	-0.0950454029	-2.1624049244	 0.085233
H	 3.2923168929	-0.4053126844	-0.868483849	 0.101955
H	 0.5556929677	-0.0724208128	 2.1240650715	 0.084557
H	 1.3068781756	-2.4672898998	 2.0602764261	 0.10469
H	-0.402837264	-2.3435415062	 1.5690419614	 0.099511
H	 1.8993142549	-2.4578791574	-1.7364001679	 0.105273
136.3851	208.5414	227.051	283.1875	382.6829	419.3069	568.5994	604.5545	682.8477	721.6808	747.5548	758.3244	803.5813	872.1614	896.5003	912.363	956.5928	996.0544	1018.8421	1030.8724	1052.0948	1071.9808	1090.0058	1117.0087	1118.9327	1128.1205	1136.0801	1211.182	1232.3102	1262.5129	1279.6505	1306.7271	1316.8782	1358.2798	1376.1392	1401.2775	1407.7047	1436.305	1495.7162	1502.3576	1507.9364	3005.747	3033.0746	3040.2709	3047.9904	3093.1316	3099.582	3113.3246	3168.8648	3174.5868	3191.8792
CC1C2C3OC1COC23	C[C@H]1[C@H]2[C@H]3O[C@@H]1CO[C@@H]23	
InChI=1S/C7H10O2/c1-3-4-2-8-6-5(3)7(6)9-4/h3-7H,2H2,1H3	InChI=1S/C7H10O2/c1-3-4-2-8-6-5(3)7(6)9-4/h3-7H,2H2,1H3/t3-,4-,5-,6+,7-/m1/s1
