18
gdb 115123	2.82807	1.22291	0.96171	3.6104	72.67	-0.2169	-0.092	0.1249	1247.9606	0.147131	-439.107573	-439.09861	-439.097665	-439.141937	32.477	
C	 0.0076125019	 1.5337073916	-0.1061714002	-0.386951
C	-0.0478831181	 0.0061323049	-0.138577476	-0.162079
C	-1.455920137	-0.5398666084	 0.1727706046	-0.128219
N	-2.4528649878	-0.134447139	-0.8479321059	-0.303524
C	-2.5156850565	-1.1936013842	-1.873939913	-0.299765
C	-2.1624780055	-2.4929000649	-1.1620850636	 0.310629
O	-2.3561216362	-3.6259210519	-1.5082398204	-0.274258
C	-1.4688645856	-2.0643991387	 0.1673043782	 0.310994
O	-1.0277012098	-2.8221423118	 0.9886696988	-0.287403
H	 1.0026818542	 1.8950812618	-0.381424448	 0.116995
H	-0.7203016702	 1.9569875569	-0.8032382565	 0.136606
H	-0.222545927	 1.9144436322	 0.89516668	 0.114884
H	 0.2708530378	-0.3571760319	-1.1242845238	 0.099789
H	 0.6457865371	-0.4277554821	 0.5903607808	 0.121855
H	-1.764175156	-0.1742623241	 1.1574556036	 0.108478
H	-3.3621304434	-0.0488811212	-0.4086274412	 0.233951
H	-3.4998428984	-1.2468977931	-2.3443333551	 0.143942
H	-1.7855633795	-1.0026183159	-2.6729121925	 0.144075
51.4922	99.4914	125.2029	174.246	228.4794	286.5211	315.2977	367.9283	417.2707	530.9106	624.3149	641.6644	671.0401	745.7547	776.568	796.6191	870.7252	942.9926	972.3359	1026.3624	1053.0162	1079.5899	1097.4027	1126.7444	1158.2268	1205.6006	1255.2809	1291.2125	1306.5779	1359.9912	1372.3953	1407.6826	1457.0245	1459.2331	1484.8619	1494.9034	1509.8618	1844.1455	1859.7441	3012.9259	3025.3788	3037.6216	3062.107	3075.0353	3105.0099	3112.1301	3124.6503	3539.6234
CCC1NCC(=O)C1=O	CC[C@H]1NCC(=O)C1=O	
InChI=1S/C6H9NO2/c1-2-4-6(9)5(8)3-7-4/h4,7H,2-3H2,1H3	InChI=1S/C6H9NO2/c1-2-4-6(9)5(8)3-7-4/h4,7H,2-3H2,1H3/t4-/m1/s1
