18
gdb 8304	7.04252	0.84919	0.79855	3.0755	68.95	-0.2411	-0.0178	0.2233	1385.2153	0.151995	-384.943683	-384.935003	-384.934059	-384.977756	31.076	
O	-0.1620923162	 1.4585616718	 0.1214660235	-0.418934
C	-0.0151618998	 0.0477139398	 0.0933011101	-0.071965
C	-1.3998049537	-0.5615600854	-0.090765204	-0.193542
C	-1.3852527896	-2.0837217377	-0.1335711387	 0.020899
C	-1.0746769852	-2.8491426806	 1.1963222312	-0.355998
C	-2.3146046996	-3.7163887492	 0.9254456752	 0.403449
O	-2.7244903697	-4.7430997246	 1.3820697965	-0.288528
C	-2.7682822347	-2.8049108094	-0.2257830031	-0.366978
H	 0.7066285817	 1.8504534874	 0.2489569909	 0.28692
H	 0.6415396791	-0.2699516617	-0.7337407035	 0.085111
H	 0.4366193765	-0.3255545418	 1.0270236452	 0.088423
H	-2.0447593333	-0.2170285214	 0.7281248889	 0.103589
H	-1.8321361139	-0.1644004472	-1.0172342931	 0.110528
H	-0.7231781034	-2.4314337255	-0.9334496677	 0.080931
H	-0.124270886	-3.3810875102	 1.2866702906	 0.127319
H	-1.2107508343	-2.2283505137	 2.0902133124	 0.129628
H	-3.6057125266	-2.1644253444	 0.0752305848	 0.130631
H	-3.0335157514	-3.3038064562	-1.1613348093	 0.128519
47.0047	93.0962	107.2075	161.1552	265.6939	310.9945	342.6686	417.1879	444.7542	489.2275	659.1755	674.0689	768.5796	797.5801	910.8008	931.1917	964.6231	985.5534	1039.5752	1076.4644	1080.5096	1117.5624	1134.4427	1192.1096	1197.9877	1231.1997	1240.4823	1255.0984	1274.6485	1314.3435	1330.7059	1385.1218	1427.1485	1447.7087	1464.407	1490.7818	1527.1573	1894.6735	2957.7124	2982.8927	3023.1449	3042.589	3046.1863	3050.5164	3070.5974	3109.5535	3110.6742	3831.6468
OCCC1CC(=O)C1	OCCC1CC(=O)C1	
InChI=1S/C6H10O2/c7-2-1-5-3-6(8)4-5/h5,7H,1-4H2	InChI=1S/C6H10O2/c7-2-1-5-3-6(8)4-5/h5,7H,1-4H2
