15
gdb 14254	4.0395	1.80816	1.66289	3.0683	62.38	-0.2605	0.0041	0.2646	824.8696	0.119021	-399.769577	-399.762727	-399.761783	-399.800659	25.805	
C	 0.4530993492	 1.4881274319	-0.0082587261	-0.40738
C	 0.1184161503	 0.0168540041	 0.0757692964	 0.128245
O	 0.895611891	-0.8149161472	-0.8413504832	-0.308999
C	 1.3002272619	-1.702490368	 0.2204245655	-0.015908
C	 0.6109837476	-0.8155287545	 1.2737312072	 0.032401
O	 1.9117099067	-0.3962503345	 1.7785641631	-0.270403
C	 2.582062113	-1.240162441	 0.8933231006	 0.444656
N	 3.8010937862	-1.4832381742	 0.7614403995	-0.541938
H	 1.4949193872	 1.6659081817	 0.2653672105	 0.140969
H	 0.2896788392	 1.8468754144	-1.0285783871	 0.135568
H	-0.1917569269	 2.0632432971	 0.6645689752	 0.122857
H	-0.9515440039	-0.1585536704	-0.102900556	 0.08866
H	 1.1422281311	-2.7588010592	 0.0061784514	 0.111244
H	-0.0616631694	-1.1165527277	 2.0736803165	 0.106486
H	 4.369718777	-0.9371550625	 1.4114481664	 0.233542
99.7195	196.2403	226.7222	255.2711	386.4841	412.8693	564.9772	623.2286	711.8288	792.6811	818.0363	869.6298	876.559	922.7853	936.2822	968.201	1001.1688	1030.5959	1073.4768	1097.4186	1147.4549	1177.7502	1219.6737	1244.0282	1282.0162	1320.9468	1334.445	1377.5137	1409.531	1484.7999	1492.3407	1830.2295	3010.7395	3045.843	3113.9085	3126.8236	3141.3032	3146.644	3473.8385
CC1OC2C1OC2=N	C[C@H]1O[C@@H]2[C@H]1O[C]2[NH]	
InChI=1S/C5H7NO2/c1-2-3-4(7-2)5(6)8-3/h2-4,6H,1H3	InChI=1S/C5H7NO2/c1-2-3-4(7-2)5(6)8-3/h2-4,6H,1H3/t2-,3+,4-/m1/s1
