21
gdb 88835	2.97396	1.1106	0.89944	0.5546	79.21	-0.2465	0.0642	0.3106	1366.0808	0.181019	-424.189518	-424.179892	-424.178948	-424.225271	34.668	
C	 0.1716875869	 1.4331173945	-0.3235474466	-0.421672
C	-0.1914077949	 0.0733261151	 0.2136061467	 0.07724
O	 0.8445060904	-0.9138086472	 0.290301477	-0.26824
C	 0.2330642242	-0.4798593554	 1.5125891822	 0.043784
C	 1.1288977772	 0.2298657793	 2.4917400539	 0.106625
O	 0.3738289114	 0.7464553543	 3.612448973	-0.296267
C	 1.1766415604	 0.0124209255	 4.5618290193	-0.076517
C	 2.0202069803	-0.6306849289	 3.4378544242	-0.049291
C	 1.9843221293	-2.1476198573	 3.3098664794	-0.411867
H	 1.1174698204	 1.7965450393	 0.0822117193	 0.130782
H	 0.267090604	 1.3904731641	-1.4135609918	 0.129249
H	-0.6140700542	 2.1570453848	-0.0830425627	 0.129064
H	-1.1298035207	-0.3239772751	-0.1801313206	 0.089876
H	-0.4270746055	-1.2175570664	 1.9716315715	 0.088912
H	 1.687378139	 1.0254915953	 1.9858539454	 0.072928
H	 1.7148890184	 0.6812507336	 5.2446468399	 0.100204
H	 0.5702181404	-0.684972774	 5.1546177562	 0.099052
H	 3.0570515645	-0.2855313256	 3.4350277317	 0.083179
H	 0.9646860527	-2.5389777669	 3.3828889795	 0.119425
H	 2.3991831219	-2.4714891336	 2.3506113598	 0.138601
H	 2.5732722638	-2.6122977553	 4.1077588329	 0.114933
32.2091	55.6594	119.741	166.5578	202.9831	236.0644	257.8022	354.4585	393.0866	407.2623	476.5852	557.4541	745.0484	778.815	849.7402	875.6739	894.6819	920.4944	973.9184	993.1075	1011.138	1026.8255	1044.8573	1091.9738	1128.1732	1141.0242	1155.1792	1172.7299	1189.5019	1203.026	1259.2822	1273.1751	1297.4202	1321.3509	1348.1802	1379.8116	1406.7064	1416.2221	1425.4937	1469.4089	1490.5814	1495.4425	1501.7719	1511.7806	1528.0079	3008.0673	3034.118	3036.0952	3042.6206	3048.4092	3074.383	3078.9316	3097.8924	3102.5365	3104.0685	3113.3955	3137.0904
CC1OC1C1OCC1C	C[C@H]1O[C@H]1[C@H]1OC[C@H]1C	
InChI=1S/C7H12O2/c1-4-3-8-6(4)7-5(2)9-7/h4-7H,3H2,1-2H3	InChI=1S/C7H12O2/c1-4-3-8-6(4)7-5(2)9-7/h4-7H,3H2,1-2H3/t4-,5-,6+,7-/m1/s1
