20
gdb 71133	2.79706	1.79016	1.55385	1.2779	76.67	-0.2253	0.0705	0.2957	944.8983	0.174325	-403.148328	-403.141166	-403.140222	-403.179354	30.168	
O	-0.154529727	 1.3790901865	-0.0203267351	-0.494443
C	 0.0157823148	-0.0245357238	 0.0179450508	 0.390362
C	 0.6126539048	-0.5696439345	 1.3385131662	-0.286105
C	 0.1693986621	-2.0249260128	 1.3210400829	-0.033905
C	-1.0514267859	-2.1138450136	 0.4538241072	-0.038922
C	-1.3575980358	-0.7158116588	-0.0602767637	-0.255311
N	 0.2131964064	-2.7159898574	 0.0329377949	-0.100141
C	 0.9560675851	-2.0994707878	-1.0717617759	-0.159122
C	 0.8760029853	-0.543458514	-1.1410879776	-0.276908
H	 0.7180215883	 1.7832799296	-0.0792189372	 0.271765
H	 1.7007708092	-0.4408620134	 1.388177193	 0.087939
H	 0.1704271941	-0.0484576325	 2.1950721036	 0.106725
H	 0.3241014036	-2.6472005635	 2.1980579196	 0.08463
H	-1.8657058408	-2.8077441793	 0.6417031064	 0.084775
H	-2.0700960685	-0.2137524961	 0.6036587207	 0.10957
H	-1.770067454	-0.6942711592	-1.0744547644	 0.100006
H	 1.9963053389	-2.4266987888	-0.9770695914	 0.109945
H	 0.5758569521	-2.541586791	-1.9980313546	 0.112131
H	 0.4377076345	-0.2097122874	-2.0872416522	 0.103872
H	 1.8799374227	-0.1035885623	-1.076145553	 0.083139
144.1711	265.7787	294.237	315.6938	425.7345	431.236	435.6513	477.7008	564.9755	667.1116	682.5351	734.4142	808.1284	835.7549	854.9707	895.9622	938.2306	942.9534	985.4868	993.2295	1029.5321	1031.5986	1043.9693	1082.7015	1132.8674	1155.625	1161.0096	1177.9611	1225.347	1267.645	1275.2525	1284.5507	1290.4939	1298.1332	1317.4823	1345.7569	1365.1346	1401.9827	1418.3021	1486.2107	1487.4192	1496.5724	1516.561	3014.2262	3027.8325	3041.4131	3046.787	3065.127	3073.1336	3083.3091	3090.0036	3139.7731	3150.0511	3802.089
OC12CC3C(C1)N3CC2	O[C@@]12C[C@H]3[C@@H](C1)N3CC2	
InChI=1S/C7H11NO/c9-7-1-2-8-5(3-7)6(8)4-7/h5-6,9H,1-4H2	InChI=1S/C7H11NO/c9-7-1-2-8-5(3-7)6(8)4-7/h5-6,9H,1-4H2/t5-,6+,7-,8?
