15
gdb 133029	2.52061	1.60251	0.98576	3.5852	74.99	-0.2146	-0.0366	0.178	1124.5478	0.113467	-458.119798	-458.11204	-458.111096	-458.152197	28.755	
C	-0.0394767861	 1.4292835494	 0.0531559822	-0.346196
N	-0.0292280319	-0.0190822844	 0.0564904567	-0.315578
C	 0.5298365554	-0.619677411	-0.9209568121	 0.310934
N	 1.1528025648	-0.0070889793	-2.0286987055	-0.377775
C	 1.7376650738	-0.6991321248	-3.05044879	 0.102833
N	 1.7910482549	-1.9836925917	-3.1259466618	-0.278844
C	 1.2042259534	-2.6758568699	-2.0805914555	-0.117378
C	 0.6057465338	-2.0676494778	-1.0336503578	 0.187984
F	 0.0549385752	-2.7656877509	-0.0517094544	-0.046053
H	 0.9747402969	 1.8649004114	 0.0620096198	 0.107092
H	-0.571855997	 1.8520934492	-0.8165077233	 0.107023
H	-0.5511146989	 1.7896037103	 0.9485871227	 0.135324
H	 1.1613610404	 1.0012692993	-2.0583002071	 0.267768
H	 2.1770173168	-0.087468946	-3.8343909594	 0.134017
H	 1.2411464184	-3.7587582737	-2.1298991444	 0.128849
115.2118	164.5077	205.9008	208.4047	274.3565	323.5594	464.2432	508.9035	546.2293	560.8487	604.7478	649.0892	754.6068	760.3248	893.5332	917.7775	951.4361	1054.7282	1100.1165	1104.8143	1142.2548	1180.077	1235.5717	1296.48	1408.2734	1422.2432	1432.807	1464.164	1508.8152	1509.6379	1622.9	1671.2586	1732.9119	2942.2746	2983.3685	3103.6114	3168.8382	3193.3584	3624.1441
CN=C1NC=NC=C1F	CN=c1[nH]cncc1F	
InChI=1S/C5H6FN3/c1-7-5-4(6)2-8-3-9-5/h2-3H,1H3,(H,7,8,9)	InChI=1S/C5H6FN3/c1-7-5-4(6)2-8-3-9-5/h2-3H,1H3,(H,7,8,9)
