16
gdb 56717	2.04393	1.59724	1.06671	3.8216	74.91	-0.2828	0.0053	0.2881	1135.1719	0.122038	-400.706035	-400.69677	-400.695826	-400.74018	33.87	
O	-0.4630763852	 1.1976568876	 0.1154810563	-0.421411
C	 0.0107291166	-0.1377240632	-0.0013853988	-0.111273
C	 0.8219695867	-0.3162894369	-1.2047727332	 0.290666
C	 1.5054577634	-0.4132456452	-2.1881697031	-0.439945
C	 0.7874274204	-0.5574445815	 1.2685987419	 0.170533
C	 1.7067469518	 0.4432263056	 1.9428188346	-0.285527
C	 0.4053019698	 0.0801358718	 2.5934330261	-0.303376
C	 1.1743228282	-1.9438732426	 1.2852524768	 0.242542
N	 1.4689619943	-3.0626977137	 1.2919749926	-0.341208
H	 0.1331007738	 1.7667515107	-0.3817275495	 0.298189
H	-0.8794744849	-0.7756747104	-0.0671842607	 0.134958
H	 2.1027716353	-0.5222094533	-3.0602838428	 0.213548
H	 2.6296039643	 0.0667838327	 2.3661076004	 0.141497
H	 1.7781074575	 1.4174931795	 1.473773428	 0.12166
H	-0.3959428878	 0.8068954284	 2.5462041887	 0.149277
H	 0.4207978658	-0.5534500795	 3.4716914926	 0.139871
56.0811	111.7738	169.6648	203.7886	223.9739	243.0502	279.3597	322.8055	424.8258	469.1759	555.4155	585.505	599.4869	645.3048	689.5043	733.8796	788.4978	875.7785	928.5929	941.5839	974.3976	1018.6477	1068.4298	1083.0311	1100.7856	1198.2932	1250.447	1276.7981	1299.6972	1348.6809	1409.7352	1453.7527	1489.0914	2238.5894	2350.3873	3033.0401	3150.4001	3155.1736	3238.7336	3254.2071	3499.7727	3828.2067
OC(C#C)C1(CC1)C#N	O[C@@H](C#C)C1(CC1)C#N	
InChI=1S/C7H7NO/c1-2-6(9)7(5-8)3-4-7/h1,6,9H,3-4H2	InChI=1S/C7H7NO/c1-2-6(9)7(5-8)3-4-7/h1,6,9H,3-4H2/t6-/m0/s1
