16
gdb 76481	3.49661	1.08324	1.02578	3.7505	67.43	-0.2404	0.026	0.2663	1190.1085	0.122655	-474.981544	-474.973084	-474.97214	-475.014715	31.778	
O	 0.0647805043	 1.4418212629	 0.3286537391	-0.42318
C	 0.0884199349	 0.0570275089	 0.1000315255	-0.063849
C	-0.5392414375	-0.8249357992	 1.1801729801	 0.00318
O	-1.0189609756	-0.2080631097	 2.3336948654	-0.425359
C	-1.2459406053	-0.5728277945	-0.1161401254	 0.368395
C	-2.6001773205	 0.0700698464	-0.3638597593	-0.430499
C	-2.728565898	-1.033070639	-1.3992563616	 0.423635
N	-3.6027661081	-1.3830925486	-2.2229670602	-0.536797
O	-1.476069267	-1.5750052642	-1.1308004452	-0.274776
H	 0.8975331761	 1.6889786464	 0.7469800435	 0.302382
H	 0.9328932476	-0.3285260066	-0.4683438287	 0.11361
H	-0.1094424876	-1.8048675237	 1.3665808573	 0.120669
H	-0.9196042391	 0.7438674278	 2.1918508405	 0.289254
H	-3.3044226831	 0.0094062907	 0.4673751655	 0.151541
H	-2.5836668105	 1.0823472471	-0.7700144965	 0.151047
H	-3.3060154508	-2.2005775046	-2.75851605	 0.230749
83.5672	142.8311	146.3367	227.6414	279.3053	297.3564	380.7693	476.2298	481.3451	483.9289	509.6202	632.8706	652.2647	770.5961	831.8839	863.8115	892.2767	939.891	977.1704	999.9358	1031.2359	1067.6362	1104.4592	1119.8197	1157.1461	1162.8834	1207.4822	1245.738	1271.6282	1317.1534	1339.794	1404.8752	1465.6291	1498.3394	1835.9092	3090.9247	3125.5161	3146.5046	3159.4912	3479.2195	3741.5823	3796.7941
OC1C(O)C11CC(=N)O1	O[C@H]1[C@@H](O)[C@]21C[C]([NH])O2	
InChI=1S/C5H7NO3/c6-2-1-5(9-2)3(7)4(5)8/h3-4,6-8H,1H2	InChI=1S/C5H7NO3/c6-2-1-5(9-2)3(7)4(5)8/h3-4,6-8H,1H2/t3-,4+,5+
