21
gdb 109835	2.1006	1.13658	0.8777	3.7711	80.46	-0.2709	0.0032	0.2741	1422.4895	0.180166	-424.239601	-424.22924	-424.228296	-424.275866	36.424	
C	-0.0184940452	 1.5469639473	 0.2008635741	-0.376341
C	 0.0302546487	 0.0618358543	-0.1775667399	-0.195574
C	-1.3420014551	-0.5840915476	-0.1316683002	-0.054151
C	-1.5599020803	-2.0801002382	 0.0334503845	-0.07255
C	-0.4195008136	-3.0681150841	 0.1586193709	-0.418847
C	-1.9096298375	-1.1224030999	 1.15111338	 0.076874
O	-1.0576202062	-1.0430582443	 2.2815573111	-0.185341
C	-1.3078626481	-1.9121457258	 3.2836748823	 0.176672
O	-0.6743058934	-1.925287233	 4.2954410333	-0.274207
H	 0.9738836226	 2.0026767011	 0.1316177107	 0.113522
H	-0.6890708678	 2.1055404134	-0.4617300619	 0.110185
H	-0.3771835133	 1.6725635886	 1.2268912832	 0.132367
H	 0.4388906544	-0.0517632715	-1.1894762338	 0.098462
H	 0.7170706682	-0.455938467	 0.4965206723	 0.116227
H	-2.0725479519	-0.0823104951	-0.7628219135	 0.089439
H	-2.4232186095	-2.4757212942	-0.4964352568	 0.091132
H	 0.3945287471	-2.6866267383	 0.7776930705	 0.140195
H	-0.7668586989	-4.003972915	 0.6100259619	 0.120675
H	-0.0067446116	-3.3104260054	-0.8260513893	 0.12512
H	-2.9514569188	-0.9349402125	 1.39574334	 0.105679
H	-2.1540367799	-2.5895793027	 3.0603704604	 0.080462
54.5995	66.5931	124.0482	127.4562	148.5463	190.7422	232.3346	239.7074	291.2546	330.3951	474.7828	523.9087	583.5574	675.2845	751.5439	785.8324	808.5138	891.5525	952.1384	991.8501	1003.0509	1045.6489	1051.8347	1070.4027	1117.5377	1125.6334	1154.911	1173.9614	1177.1518	1192.8488	1261.2325	1298.4904	1337.3116	1367.3896	1393.4245	1410.9426	1418.9852	1423.8926	1451.2474	1484.187	1499.0313	1500.4982	1502.9019	1508.4098	1867.4212	2959.0438	3031.7265	3034.2006	3038.7681	3087.8019	3093.7912	3105.915	3114.4836	3123.3038	3126.7668	3137.4358	3147.4026
CCC1C(C)C1OC=O	CC[C@H]1[C@@H](C)[C@H]1OC=O	
InChI=1S/C7H12O2/c1-3-6-5(2)7(6)9-4-8/h4-7H,3H2,1-2H3	InChI=1S/C7H12O2/c1-3-6-5(2)7(6)9-4-8/h4-7H,3H2,1-2H3/t5-,6+,7-/m1/s1
