19
gdb 79027	4.63634	1.32801	1.26504	1.9612	77.73	-0.2501	0.0767	0.3267	1048.047	0.161058	-385.819029	-385.812261	-385.811317	-385.849833	28.405	
C	-0.1788321552	 1.575229469	 0.0155155033	-0.434549
C	 0.0183820815	 0.0664485048	 0.0294953003	 0.022154
C	 1.2303682167	-0.5952527416	-0.6760730329	-0.076783
C	 2.1712141421	-0.1566859913	 0.5141388401	-0.061852
C	 3.1957741677	-1.2660716624	 0.7247532751	 0.012704
O	 2.8952118891	-2.1364657041	 1.8335459066	-0.255583
C	 2.3873969532	-2.4650372659	 0.5252084046	 0.005854
C	 1.0175299027	-1.8693210442	 0.2297839494	-0.052864
C	 0.8260441285	-0.628493666	 1.1618198356	-0.045674
H	 0.740257286	 2.127753902	 0.2287169275	 0.116311
H	-0.5456370531	 1.9072511823	-0.9621563953	 0.115933
H	-0.9243640349	 1.8725250393	 0.7613828499	 0.117823
H	-0.9330856204	-0.4343626801	-0.1885375896	 0.061701
H	 1.473888759	-0.5843469919	-1.7414778184	 0.067101
H	 2.492747189	 0.8787089266	 0.6076074777	 0.06882
H	 4.2443879464	-1.1665050193	 0.4643509825	 0.096566
H	 2.7406067822	-3.3949620815	 0.0921879388	 0.097422
H	 0.1685856205	-2.5255021523	 0.0351085281	 0.065156
H	 0.602832129	-0.6573327336	 2.2277345268	 0.079762
185.8143	209.0072	239.0845	334.0705	405.0316	490.6768	572.1615	684.3503	735.2134	778.4405	792.3295	808.2013	828.9464	875.7505	881.025	917.8463	930.3075	961.6174	995.7339	1005.9947	1009.6534	1050.1012	1053.3216	1094.1521	1105.1234	1125.2557	1130.1716	1153.8711	1172.5008	1210.0211	1234.976	1250.6933	1269.8264	1274.0935	1304.597	1327.8777	1405.0751	1417.9046	1428.3384	1495.6866	1501.2606	3023.5604	3033.3612	3079.1916	3089.4991	3109.9626	3111.187	3121.3327	3138.3523	3165.5248	3177.9999
CC1C2C3C4OC4C2C13	C[C@H]1[C@H]2[C@@H]3[C@H]4O[C@H]4[C@H]2[C@H]13	
InChI=1S/C8H10O/c1-2-3-5-4(2)6(3)8-7(5)9-8/h2-8H,1H3	InChI=1S/C8H10O/c1-2-3-5-4(2)6(3)8-7(5)9-8/h2-8H,1H3/t2-,3-,4+,5-,6+,7-,8+/m1/s1
