19
gdb 62921	2.67776	1.6721	1.54464	2.7113	74.93	-0.2319	0.0026	0.2345	969.2767	0.159117	-423.007675	-422.99973	-422.998786	-423.039338	32.257	
C	-0.2071483573	 1.6068385332	 0.0798234429	-0.47996
C	 0.0070020438	 0.1043732387	 0.0204670337	 0.431065
O	-1.2344734795	-0.5751598515	 0.0917747158	-0.474333
C	 0.8101264772	-0.579961284	-1.116634586	 0.051723
C	 2.0609230909	 0.2073266441	-1.5385420013	-0.283595
C	 2.8584582409	 0.5629438159	-0.2987568676	-0.067769
C	 2.3903927534	 0.1903050195	 0.8935359104	-0.059128
C	 1.1077817033	-0.6125820211	 0.8793318201	-0.027734
O	 1.2219069117	-1.6100757418	-0.177882072	-0.296
H	 0.7242154995	 2.1696658293	 0.0118298763	 0.129955
H	-0.8733560986	 1.9158421894	-0.7317019812	 0.127051
H	-0.6907873383	 1.8807363763	 1.0264902136	 0.105786
H	-1.6778517405	-0.2977161628	 0.9007171622	 0.274822
H	 0.2308960399	-0.9800784415	-1.9529501999	 0.083732
H	 2.6653028447	-0.400355169	-2.2244253163	 0.119383
H	 1.779533878	 1.1118432914	-2.0952002441	 0.108145
H	 3.7897801927	 1.1095412679	-0.4143157876	 0.095675
H	 2.8870980629	 0.428279842	 1.8280756701	 0.091666
H	 0.8183156254	-1.048886686	 1.8387356109	 0.069518
194.0355	203.8635	226.078	251.9956	286.1115	374.0004	394.9574	425.3675	486.0233	504.425	587.6914	634.0686	700.3906	784.6124	866.3001	878.8568	892.7041	934.9419	961.673	965.311	972.5977	985.8732	1003.063	1061.0385	1116.9727	1139.4536	1155.4967	1181.1386	1210.957	1228.3856	1273.415	1300.4015	1327.6198	1350.6387	1388.5252	1395.8401	1409.5125	1467.2882	1489.7915	1497.6009	1690.6861	3015.1467	3025.4936	3045.1592	3080.2678	3083.4024	3091.8593	3143.2945	3164.903	3191.8366	3803.4202
CC1(O)C2CC=CC1O2	C[C@@]1(O)[C@H]2CC=C[C@@H]1O2	
InChI=1S/C7H10O2/c1-7(8)5-3-2-4-6(7)9-5/h2-3,5-6,8H,4H2,1H3	InChI=1S/C7H10O2/c1-7(8)5-3-2-4-6(7)9-5/h2-3,5-6,8H,4H2,1H3/t5-,6+,7-/m0/s1
