19
gdb 100600	4.06566	0.78676	0.72781	1.4531	76.09	-0.2251	-0.0243	0.2008	1607.8048	0.15712	-456.364747	-456.354321	-456.353377	-456.401286	35.89	
C	-0.1541757406	 1.5470156733	-0.0355317114	-0.3173
N	-0.2049926859	 0.1710486049	 0.4298387283	-0.286618
C	-1.3986236656	-0.5775204319	 0.0790891252	-0.075564
C	-1.7466015569	-0.6707461575	-1.4289136319	-0.411378
C	-1.2261307981	-1.9912066023	 0.6039733963	 0.481968
O	-0.1776320676	-2.5540697519	 0.7624980056	-0.347964
O	-2.4511398398	-2.5696098732	 0.8250419531	-0.208782
C	-2.4828983603	-3.8747801768	 1.254262973	 0.115349
N	-3.6082398319	-4.4067566376	 1.4306129971	-0.419081
H	 0.7562257422	 2.0165127004	 0.3481442556	 0.125261
H	-0.1648675408	 1.6788031285	-1.1303568849	 0.100092
H	-1.0069335324	 2.1024926605	 0.3725613013	 0.121977
H	 0.6178520421	-0.3528615551	 0.1540419566	 0.229612
H	-2.2567853023	-0.1327970588	 0.5976495819	 0.112976
H	-2.648922625	-1.2691017644	-1.5823110597	 0.139131
H	-1.9280145655	 0.3254476818	-1.8389985084	 0.129341
H	-0.9221691523	-1.1292278347	-1.9851039396	 0.125098
H	-1.4888482289	-4.2989585459	 1.395744893	 0.145027
H	-3.4886064903	-5.3667102894	 1.7514194088	 0.240854
36.3368	89.0109	103.3931	112.6265	151.9371	215.5879	236.6665	253.3697	286.2101	345.5081	367.1184	473.2804	543.8123	695.375	727.6653	766.709	854.1981	863.8644	926.7873	1007.8231	1022.1866	1059.2889	1072.1951	1086.4254	1149.8669	1158.4839	1179.8578	1242.8623	1264.5585	1336.0791	1359.7507	1388.3949	1397.9884	1458.5567	1482.1924	1487.9919	1502.7566	1510.4397	1524.3922	1747.1066	1840.0581	2964.8958	3037.8587	3043.2884	3052.8895	3102.4454	3117.7882	3127.9804	3140.9555	3505.9597	3544.864
CNC(C)C(=O)OC=N	CN[C@@H](C)C(=O)O[CH][NH]	
InChI=1S/C5H10N2O2/c1-4(7-2)5(8)9-3-6/h3-4,6-7H,1-2H3	InChI=1S/C5H10N2O2/c1-4(7-2)5(8)9-3-6/h3-4,6-7H,1-2H3/t4-/m0/s1
