17
gdb 123920	3.47824	1.54003	1.10702	3.9339	74.07	-0.2146	0.0069	0.2215	1056.4873	0.140121	-418.017416	-418.010539	-418.009595	-418.048609	27.546	
C	-0.0584124586	 1.538550245	-0.0196277187	-0.197434
C	 1.3491994982	 2.1411528099	 0.0988310294	-0.162441
N	 1.9634256993	 1.7291999691	 1.3597521568	-0.385351
C	 1.8710602592	 0.3925687903	 1.6702081936	 0.408039
N	 2.6085631216	-0.2151805174	 2.5730417227	-0.274437
O	 2.1204675172	-1.5355877137	 2.5942438624	-0.179498
C	 1.1257982724	-1.6474981326	 1.7014890442	-0.036175
C	 0.9027967836	-0.4723793727	 1.0649807152	 0.115097
C	-0.0220360388	-0.0045711988	-0.0195810615	-0.342496
H	-0.6573407805	 1.8932120284	 0.8264959384	 0.118836
H	-0.5322938423	 1.9041978798	-0.9353474662	 0.102878
H	 1.9526106232	 1.8394770495	-0.774216016	 0.098907
H	 1.289392025	 3.2334325152	 0.0919288602	 0.111657
H	 2.8390418838	 2.1681339471	 1.603161916	 0.249134
H	 0.6718488502	-2.6245938557	 1.6279858905	 0.142108
H	-1.032575713	-0.4066795195	 0.1084513908	 0.114815
H	 0.3289007396	-0.3589632039	-0.9980710079	 0.116362
120.1896	218.2243	311.4419	346.1423	399.0868	428.0347	508.1448	564.5113	578.7005	675.192	736.7238	749.8575	834.5376	868.3976	884.3012	911.198	929.8828	971.8227	1002.2664	1097.9512	1110.5333	1155.4645	1202.2846	1203.6753	1235.2897	1277.868	1306.8254	1359.7056	1370.0478	1372.8572	1432.7903	1470.9547	1481.9112	1492.4444	1510.0545	1583.9238	1681.8829	2957.7107	3014.3627	3044.8434	3066.6673	3078.8534	3096.2559	3252.545	3609.6777
C1CNC2=NOC=C2C1	C1CNc2nocc2C1	
InChI=1S/C6H8N2O/c1-2-5-4-9-8-6(5)7-3-1/h4H,1-3H2,(H,7,8)	InChI=1S/C6H8N2O/c1-2-5-4-9-8-6(5)7-3-1/h4H,1-3H2,(H,7,8)
