20
gdb 38261	3.14173	1.68025	1.386	0.8913	79.48	-0.2172	0.0979	0.3151	990.7626	0.174031	-403.070714	-403.063914	-403.06297	-403.101479	29.026	
C	-0.0481973711	 1.6068378787	 0.1037513182	-0.274499
C	 1.4392128702	 1.1724380514	 0.0463646184	-0.023699
C	 1.108973726	 0.0795423508	 1.109982051	-0.274677
C	-0.0022073661	 0.0458803904	 0.0292277356	 0.348923
C	-1.1141546214	-0.890474744	-0.3507081543	-0.222206
O	-1.5159169785	-0.5855386589	-1.6845207758	-0.252565
C	-0.4438938224	-0.648468111	-2.6199276511	-0.059959
C	 0.6420974808	 0.3989357663	-2.3323819771	-0.183878
N	 1.1305496136	 0.0987540408	-0.9856017661	-0.131621
H	-0.401674047	 2.0483870473	 1.0398184739	 0.090331
H	-0.4567478148	 2.1400324691	-0.752694065	 0.108223
H	 2.3324133248	 1.7963475359	-0.0144770494	 0.081638
H	 1.7786397514	-0.7808122306	 1.1192441002	 0.104634
H	 0.8316051623	 0.4291932774	 2.1058697996	 0.093405
H	-0.7659112527	-1.9339645496	-0.2808653034	 0.09643
H	-2.0023226027	-0.7717367321	 0.2765079396	 0.110196
H	 0.010912805	-1.6517482224	-2.6033429948	 0.095061
H	-0.8937335299	-0.4838715717	-3.6026344133	 0.106392
H	 1.464413423	 0.2854922224	-3.0487195214	 0.0972
H	 0.2198935795	 1.4050479999	-2.4715060747	 0.090669
163.1127	254.3414	356.8926	370.6033	394.6917	435.6314	517.324	560.1863	596.2867	697.6935	769.2802	778.678	804.3995	858.9949	894.1256	919.9775	952.1041	967.6961	984.5325	1002.6062	1042.3787	1071.2077	1099.9732	1111.0704	1122.776	1145.8324	1162.1567	1166.7143	1205.9873	1225.2592	1229.4103	1235.471	1280.6669	1307.6672	1329.8738	1362.9808	1383.672	1412.0894	1473.6941	1478.8726	1489.0469	1498.7755	1539.8827	2975.8102	2981.7845	2993.3605	3052.2729	3063.5293	3076.2122	3087.5415	3095.6134	3102.2368	3151.0728	3156.7339
C1C2CC11COCCN21	C1[C@H]2C[C@]31COCCN23	
InChI=1S/C7H11NO/c1-2-9-5-7-3-6(4-7)8(1)7/h6H,1-5H2	InChI=1S/C7H11NO/c1-2-9-5-7-3-6(4-7)8(1)7/h6H,1-5H2/t6-,7+
