19
gdb 58388	1.86869	1.35185	0.89489	3.6682	77.54	-0.2735	0.0016	0.2752	1335.5573	0.157634	-419.253369	-419.243083	-419.242139	-419.289465	36.115	
C	 0.1394749178	 1.5216746854	 0.1927700266	-0.39831
C	 0.0518156626	 0.0003391661	 0.0265417426	 0.020925
C	 0.7462991419	-0.4593039972	-1.2617350124	-0.405102
C	 0.6623550525	-0.7176685315	 1.2628810984	-0.112831
N	 0.056279956	-0.3233930871	 2.5274941332	-0.286444
C	 0.7558611377	 0.3605309551	 3.480141116	 0.161076
O	 1.8926301173	 0.7564128247	 3.3509253821	-0.312855
C	 0.5796767671	-2.1815604227	 1.1248418289	 0.281429
N	 0.475635172	-3.3273058134	 1.0158560993	-0.32473
H	 1.1814917275	 1.8480129747	 0.2788465446	 0.134569
H	-0.2988211121	 2.018222988	-0.6778128943	 0.120179
H	-0.3939888806	 1.8663751828	 1.0817562876	 0.120975
H	-1.0065266063	-0.2893177488	-0.0263624846	 0.085722
H	 1.8099449791	-0.1946584665	-1.2470411965	 0.124913
H	 0.6668550235	-1.5399842268	-1.406776036	 0.144616
H	 0.2948585646	 0.0316989195	-2.1284382979	 0.123386
H	 1.718237653	-0.4356040716	 1.3495520052	 0.167239
H	-0.8690592834	-0.6586672951	 2.7467128675	 0.262154
H	 0.1524888697	 0.5244553046	 4.3927375895	 0.093088
38.1368	64.2141	141.2653	156.8068	178.824	214.0909	244.2039	295.8074	315.1322	359.4823	413.7377	454.6006	519.3591	539.8837	580.0494	741.0058	868.5912	921.0264	938.113	965.1236	998.2539	1032.8456	1042.8244	1141.2198	1155.2945	1189.771	1197.3276	1297.6938	1324.6175	1349.4594	1373.698	1405.6106	1425.472	1426.5787	1486.5268	1492.2432	1502.7868	1512.6429	1516.6682	1805.1455	2356.7209	2961.0894	3014.2069	3036.06	3042.7843	3064.3176	3104.2284	3111.8755	3121.5833	3123.2929	3631.0816
CC(C)C(NC=O)C#N	CC(C)[C@@H](NC=O)C#N	
InChI=1S/C6H10N2O/c1-5(2)6(3-7)8-4-9/h4-6H,1-2H3,(H,8,9)	InChI=1S/C6H10N2O/c1-5(2)6(3-7)8-4-9/h4-6H,1-2H3,(H,8,9)/t6-/m0/s1
