20
gdb 68310	3.03873	1.23629	1.05	1.4905	80.36	-0.2379	0.0704	0.3083	1215.6863	0.171628	-403.052631	-403.044449	-403.043505	-403.085705	32.282	
O	-0.0998676487	 1.1376290982	-0.0163450859	-0.465188
C	 0.0933891307	-0.2315641044	 0.0527445235	 0.324842
C	 0.6115601981	-1.2337034568	-1.010217602	-0.232977
N	 0.2406112856	-2.1427024202	 0.1690324821	-0.155283
C	 0.9274194851	-1.0842962656	 1.0449841886	-0.248193
C	-1.0365942133	-1.2567562768	 0.2748538201	 0.043217
C	-1.8664548445	-1.3203125762	 1.5194475088	-0.022246
C	-3.33358049	-0.9631307706	 1.4243547422	-0.271276
C	-2.9235549824	-2.3946280297	 1.6330807575	-0.261919
H	 0.7515911249	 1.5641838492	-0.1635979548	 0.281467
H	 0.0045514555	-1.401355393	-1.9037254645	 0.101488
H	 1.6810879559	-1.2417895709	-1.2367877583	 0.094376
H	 2.0154152728	-1.0788842233	 0.9328518576	 0.093878
H	 0.6451263202	-1.1157366533	 2.0970262374	 0.107198
H	-1.6784468143	-1.4231106982	-0.598411901	 0.065343
H	-1.3817680617	-1.0361904528	 2.4464341102	 0.084918
H	-3.7774588885	-0.4223286177	 2.252320722	 0.113996
H	-3.7217458916	-0.6797102581	 0.4515402169	 0.115011
H	-3.0284252885	-3.0831233261	 0.801454023	 0.118168
H	-3.0867334456	-2.8454224835	 2.6053926164	 0.113179
51.6495	134.8003	217.0041	248.3933	276.9834	353.8997	379.8538	480.921	549.2298	617.977	638.7754	757.3456	775.2249	811.9877	837.6511	885.95	892.4926	924.5068	937.6038	964.0475	984.1759	1042.2394	1062.1324	1070.3671	1079.9477	1083.9427	1103.5504	1126.3344	1168.8194	1176.8556	1186.0686	1197.9733	1216.1949	1235.7935	1248.7658	1292.025	1356.1755	1358.1865	1467.7079	1471.712	1504.7173	1514.5965	1554.327	3034.6159	3051.6516	3064.0578	3121.7539	3133.0875	3137.4449	3141.108	3170.4816	3211.4669	3226.8635	3804.4144
OC12CN(C1)C2C1CC1	O[C@@]12CN(C1)[C@H]2C1CC1	
InChI=1S/C7H11NO/c9-7-3-8(4-7)6(7)5-1-2-5/h5-6,9H,1-4H2	InChI=1S/C7H11NO/c9-7-3-8(4-7)6(7)5-1-2-5/h5-6,9H,1-4H2/t6-/m0/s1
