16
gdb 12988	2.76921	2.6827	1.61424	3.5381	66.03	-0.2454	0.0222	0.2676	814.1372	0.132085	-379.918059	-379.910999	-379.910055	-379.949073	27.008	
C	-0.1071990613	 1.5087538979	-0.0218895613	-0.486371
C	 0.0812801959	 0.0192760673	 0.0023472627	 0.234917
N	-0.7349340579	-0.8563565024	 0.894616753	-0.361134
C	 0.7243760496	-0.7817981854	 1.0735064327	-0.117422
C	 1.4157689535	-1.9460034426	 0.398251507	-0.086593
O	 1.0272214471	-1.8794964497	-0.9873724334	-0.252511
C	 0.3847070822	-0.7069200998	-1.2706477526	 0.42269
N	 0.108347218	-0.2880174901	-2.42900797	-0.554216
H	 0.7689754547	 2.0067381028	-0.4467028254	 0.137721
H	-0.966601063	 1.7687386022	-0.6462021554	 0.153267
H	-0.2723411004	 1.8982088047	 0.9878298543	 0.109092
H	-1.1851607145	-0.2575918323	 1.5853198492	 0.233468
H	 1.1514613334	-0.3334107493	 1.9635859356	 0.102726
H	 2.5070251069	-1.8634441591	 0.4649464066	 0.113192
H	 1.0986990152	-2.9162359502	 0.7909410939	 0.127594
H	 0.4453850206	-0.9406129439	-3.1389468269	 0.223579
140.0553	185.1223	218.7253	277.7964	303.523	438.7602	463.6083	576.6969	669.1511	711.5612	764.9959	825.4585	858.1245	900.3584	915.5393	947.2407	985.212	1036.7336	1067.0551	1073.8118	1090.1496	1125.2888	1170.9891	1230.4068	1246.6299	1313.3524	1370.9244	1401.6891	1418.3046	1454.1051	1478.1169	1498.4684	1507.3266	1780.2667	3036.5196	3040.9249	3093.9777	3112.8627	3118.6527	3177.3382	3473.2648	3479.3486
CC12NC1COC2=N	C[C@]12N[C@H]1CO[C]2[NH]	
InChI=1S/C5H8N2O/c1-5-3(7-5)2-8-4(5)6/h3,6-7H,2H2,1H3	InChI=1S/C5H8N2O/c1-5-3(7-5)2-8-4(5)6/h3,6-7H,2H2,1H3/t3-,5-/m0/s1
