18
gdb 55897	3.71746	0.86476	0.74451	5.2308	74.81	-0.2488	-0.0233	0.2255	1514.2662	0.144589	-439.101369	-439.091583	-439.090639	-439.137728	33.588	
C	-0.0599914433	 1.4548810605	 0.0228159531	-0.475313
C	 0.2225289651	-0.0334639177	-0.0346892158	 0.390145
O	 0.8274207138	-0.6106587124	 0.8393064922	-0.288247
C	-0.3010509475	-0.7758663807	-1.265312809	-0.33897
C	 0.0903700065	-2.2311257094	-1.2599929943	 0.017231
C	 0.2920637759	-3.0279964417	-2.5188062865	-0.260727
N	 1.4186307004	-2.5598973426	-1.7436063054	-0.067723
C	 2.3025343398	-3.4011826183	-1.0807534468	 0.131522
O	 2.7484679399	-4.425423865	-1.5348236645	-0.286082
H	 0.4234856564	 1.9613806162	-0.8204332302	 0.145186
H	-1.1349069948	 1.6476444473	-0.0660866573	 0.139399
H	 0.3143568116	 1.8683608175	 0.9597566686	 0.14797
H	-1.3939349541	-0.6666307802	-1.2975262612	 0.128384
H	 0.0803967514	-0.2804222515	-2.166530468	 0.131208
H	-0.2503185975	-2.7906128233	-0.3912483981	 0.116864
H	 0.081924099	-4.0939933166	-2.4921140703	 0.139592
H	 0.1495564915	-2.5525709651	-3.4857055103	 0.123512
H	 2.595787036	-2.9803890969	-0.1016521461	 0.10605
36.0082	58.1692	104.9854	115.8626	124.6626	217.5541	295.0899	324.6345	366.2147	427.6994	475.9557	594.0818	636.9787	807.3787	818.0256	837.2679	900.719	951.9668	960.9546	1035.5432	1040.6617	1086.404	1128.3938	1132.1539	1135.9529	1176.7324	1197.4976	1241.5911	1329.1115	1348.1574	1385.8561	1407.953	1432.5541	1457.5422	1465.5565	1476.5489	1513.8987	1803.2482	1811.4967	2977.925	3023.6413	3037.8181	3065.9284	3097.671	3110.5437	3138.3425	3154.9497	3199.2373
CC(=O)CC1CN1C=O	CC(=O)C[C@H]1CN1C=O	
InChI=1S/C6H9NO2/c1-5(9)2-6-3-7(6)4-8/h4,6H,2-3H2,1H3	InChI=1S/C6H9NO2/c1-5(9)2-6-3-7(6)4-8/h4,6H,2-3H2,1H3/t6-,7?/m0/s1
