14
gdb 48821	2.80471	1.63066	1.15821	3.7918	63.86	-0.2662	-0.0587	0.2075	1006.5687	0.100373	-473.816433	-473.808878	-473.807934	-473.848959	27.353	
N	 0.0885368923	 1.2960966138	 0.2363537237	-0.541866
C	 0.0636185832	 0.0592681617	-0.0087424255	 0.389155
O	 1.1217637995	-0.7000360883	-0.4232954925	-0.251725
C	 0.6921718401	-1.9966739088	-0.8804127319	-0.117918
C	-0.753998831	-2.1253027071	-0.4522718801	-0.033611
O	-0.9258886061	-1.9491478248	 0.9374382732	-0.260845
C	-1.1502759343	-0.8050897449	 0.0861750249	 0.223323
C	-2.5449600005	-0.2563755988	 0.0325937177	 0.072179
O	-3.5185425828	-0.9501947467	 0.1678399375	-0.24713
H	 1.014694586	 1.6890260507	 0.0596476877	 0.234614
H	 0.7908571777	-2.0471974222	-1.9706136524	 0.129635
H	 1.3360203365	-2.7517052901	-0.4208158344	 0.143659
H	-1.4546373293	-2.784064822	-0.956240353	 0.138618
H	-2.6003265412	 0.8336909475	-0.148903705	 0.12191
77.4095	144.0315	177.0629	223.676	283.227	357.0985	436.4944	525.3155	629.6311	710.6595	745.4348	768.8759	866.108	882.2265	912.1854	949.4943	981.9654	1023.0994	1055.9265	1089.0848	1108.5901	1165.6418	1227.5826	1276.3194	1320.5483	1392.1095	1420.2475	1433.0302	1501.8715	1782.2907	1825.5857	2964.1765	3045.7194	3102.2806	3175.5441	3478.1567
N=C1OCC2OC12C=O	[NH][C]1OC[C@H]2O[C@@]12C=O	
InChI=1S/C5H5NO3/c6-4-5(2-7)3(9-5)1-8-4/h2-3,6H,1H2	InChI=1S/C5H5NO3/c6-4-5(2-7)3(9-5)1-8-4/h2-3,6H,1H2/t3-,5-/m1/s1
