19
gdb 126925	5.20035	0.81426	0.71617	4.0846	81.15	-0.1973	0.0105	0.2078	1604.3966	0.159964	-415.387034	-415.377658	-415.376714	-415.422043	33.236	
C	 0.006371021	 1.5704537224	-0.0706558202	-0.398511
C	-0.1080623522	 0.0509204599	-0.1288216659	-0.11227
N	 0.8548919996	-0.5031237781	-1.0676049876	-0.381635
C	 0.8659239575	-1.8679246751	-1.2832956455	 0.371614
C	 0.4401991629	-2.9090692374	-0.4812232912	-0.201561
N	 0.7587732942	-4.0233909797	-1.2006602456	 0.083471
C	 0.5473838952	-5.4130270549	-0.8588939579	-0.329659
N	 1.3301664225	-3.6973738509	-2.3634637415	-0.148329
N	 1.3976134306	-2.3922123491	-2.4238262133	-0.283523
H	 1.0182603891	 1.8724045875	 0.2142377626	 0.132493
H	-0.221460711	 2.0194639565	-1.0441261763	 0.120216
H	-0.6984919077	 1.9816226956	 0.6570722245	 0.121606
H	 0.1033558553	-0.3687903937	 0.86321477	 0.108585
H	-1.1428185701	-0.2416424473	-0.3789249635	 0.092423
H	 0.9324137068	 0.0082379073	-1.9369227848	 0.240308
H	-0.0322593608	-2.9575140968	 0.483597244	 0.129741
H	-0.5180633649	-5.6210828848	-0.7219596591	 0.142831
H	 0.931262621	-6.0096444046	-1.686264861	 0.168451
H	 1.0838971311	-5.6728505469	 0.0584984523	 0.143751
64.428	81.373	105.6457	119.4492	183.7021	258.0253	307.6362	350.1467	372.1308	467.8128	576.0125	660.522	680.4881	685.1032	745.1998	813.1803	826.1111	935.6101	1040.8776	1054.2105	1061.4836	1084.1102	1151.2338	1154.2105	1176.7029	1195.3336	1270.5888	1291.6974	1309.2851	1359.4237	1402.0684	1419.5986	1439.8517	1473.9487	1482.819	1490.7066	1499.4189	1506.2667	1526.4402	1532.2625	1632.8005	2949.3844	3028.4637	3038.0489	3043.9753	3104.9707	3105.7676	3123.6454	3162.4613	3292.3939	3578.9684
CCNC1=CN(C)N=N1	CCNc1cn(C)nn1	
InChI=1S/C5H10N4/c1-3-6-5-4-9(2)8-7-5/h4,6H,3H2,1-2H3	InChI=1S/C5H10N4/c1-3-6-5-4-9(2)8-7-5/h4,6H,3H2,1-2H3
