16
gdb 46620	2.95139	1.71355	1.16667	4.2458	72.57	-0.2455	-0.0109	0.2345	1015.3957	0.126194	-437.885913	-437.878801	-437.877857	-437.91779	27.096	
N	-0.052243582	 1.2857773688	-0.0592247309	-0.525346
C	-0.03397151	 0.0355372965	 0.0701243919	 0.389502
O	 1.0889260041	-0.7080293237	 0.3752828036	-0.259113
C	 0.7665215225	-2.1048146042	 0.6228868874	-0.181168
C	-0.7192875025	-2.0873287683	 0.7166718453	 0.267134
C	-1.6928951088	-2.4956753869	 1.5168119679	-0.250954
C	-2.9170933114	-1.648389357	 1.2435623783	-0.108085
O	-2.4622168113	-0.5801599105	 0.4000434864	-0.265527
C	-1.1967325073	-0.9309057205	-0.1130198103	-0.010711
H	 0.8703874681	 1.6837790151	 0.1277098172	 0.224611
H	 1.1471494756	-2.7016537489	-0.2153811386	 0.127537
H	 1.2736909263	-2.4179830499	 1.5386868569	 0.13541
H	-1.6493896716	-3.2457764261	 2.2960247293	 0.117167
H	-3.7245667696	-2.2078401606	 0.7438712667	 0.11143
H	-3.3336987661	-1.2224115577	 2.1656000039	 0.12409
H	-1.2708456659	-1.1704250459	-1.189259225	 0.104022
91.5444	136.2153	249.8257	254.1655	332.8746	477.1296	560.5431	595.3274	643.7817	721.058	786.7813	813.8265	884.7889	900.4192	927.5436	946.7364	978.6398	989.8815	1023.0256	1038.8315	1049.6276	1135.0188	1185.7221	1196.6369	1199.5749	1252.0805	1264.229	1304.1847	1348.4376	1369.4758	1393.9848	1509.9831	1514.9008	1759.5068	1796.6331	2938.1742	2974.1912	3027.4385	3034.9294	3099.4572	3219.4889	3466.305
N=C1OCC2=CCOC12	[NH][C]1OC[C]2[CH]CO[C@@H]12	
InChI=1S/C6H7NO2/c7-6-5-4(3-9-6)1-2-8-5/h1,5,7H,2-3H2	InChI=1S/C6H7NO2/c7-6-5-4(3-9-6)1-2-8-5/h1,5,7H,2-3H2/t5-/m1/s1
