21
gdb 116175	2.4843	1.29452	0.90393	1.3769	76.06	-0.2357	0.0907	0.3264	1330.1139	0.18205	-461.359466	-461.350161	-461.349216	-461.39352	34.484	
C	-0.0537789702	 1.3846295886	-0.0157939913	-0.24009
O	-0.0305374738	-0.0332075198	-0.0572202566	-0.237243
C	 0.6162439519	-0.5580464908	-1.1604014001	 0.210973
C	 0.7116241964	-2.0711381922	-0.9889116091	-0.115963
O	 1.273020175	-2.6609375537	-2.1483657018	-0.254549
C	 0.5241736594	-2.346094016	-3.3107781497	-0.078787
C	 0.4275227742	-0.8323679785	-3.5052786295	 0.126802
C	-0.4507547733	-0.4339163316	-4.6797243564	-0.407091
O	-0.1329735462	-0.2510750045	-2.3284899324	-0.283106
H	 0.9658873789	 1.797611325	-0.0260351985	 0.106398
H	-0.6134882873	 1.8006889551	-0.8599204492	 0.131185
H	-0.5422030211	 1.6646923642	 0.9196241725	 0.128289
H	 1.6320889367	-0.1274158477	-1.2726675577	 0.05378
H	 1.3657310814	-2.3238383693	-0.1510575873	 0.113774
H	-0.2990037058	-2.4593761699	-0.7881446382	 0.10224
H	 1.0427365821	-2.8165887436	-4.1516102237	 0.107067
H	-0.4930131366	-2.7667505197	-3.2402592405	 0.090857
H	 1.4500441642	-0.4422390958	-3.6481521471	 0.072192
H	-1.4644239854	-0.8255587025	-4.5514184706	 0.127626
H	-0.5125480133	 0.6549375846	-4.7519850652	 0.127717
H	-0.0413786272	-0.8214476719	-5.6175802176	 0.117929
96.5065	129.4901	155.0576	168.0882	213.2981	237.3949	300.538	330.718	403.556	442.3263	478.8838	509.5202	548.5217	608.037	868.0503	884.1219	941.7512	960.3635	973.8127	1033.4255	1091.1051	1106.1187	1121.6007	1145.9811	1163.0204	1173.7511	1180.1131	1190.3429	1235.3172	1256.0066	1317.436	1329.6895	1348.9269	1360.2256	1403.6499	1408.5198	1420.3833	1432.5527	1478.5662	1482.9858	1484.3572	1484.5392	1491.7034	1500.958	1512.2448	2898.985	2956.3424	2973.6109	2995.2549	2996.7332	3043.7839	3077.6112	3086.2574	3106.9726	3117.2303	3123.5962	3130.6093
COC1COCC(C)O1	CO[C@H]1COC[C@@H](C)O1	
InChI=1S/C6H12O3/c1-5-3-8-4-6(7-2)9-5/h5-6H,3-4H2,1-2H3	InChI=1S/C6H12O3/c1-5-3-8-4-6(7-2)9-5/h5-6H,3-4H2,1-2H3/t5-,6-/m1/s1
