19
gdb 94315	2.41256	1.54345	1.21473	2.6179	72.02	-0.2318	0.0562	0.288	1097.261	0.15657	-460.121054	-460.111714	-460.11077	-460.154961	35.269	
C	 0.0082316095	 1.5204728719	 0.1540680868	-0.444436
C	-0.0235085277	 0.0131490193	 0.1417890573	 0.281542
O	-1.2907008601	-0.5562723311	-0.1267369195	-0.468763
C	 1.1943888913	-0.7830923889	-0.3130039769	-0.431972
C	 0.7770138449	-0.7706018674	 1.1297350226	 0.404333
O	 1.5587420303	-0.1698892933	 2.1532099068	-0.314959
C	 1.1103751604	-1.1668100088	 3.1126202891	-0.092047
C	 0.2841690951	-1.8998595996	 2.0337767401	 0.000297
O	-1.0915021057	-1.9463290236	 2.3077484359	-0.443231
H	 0.9707198221	 1.8810474052	 0.5249960554	 0.141003
H	-0.1521093479	 1.9297189865	-0.8503641543	 0.108882
H	-0.776546021	 1.9050648791	 0.8124527321	 0.132424
H	-1.4540583458	-0.5129073879	-1.0753908866	 0.288883
H	 1.0284873565	-1.6968152764	-0.8761049052	 0.114598
H	 2.086194003	-0.2255266733	-0.5811259335	 0.124519
H	 1.9549367967	-1.7111481617	 3.5463211679	 0.105648
H	 0.4879534413	-0.7296571244	 3.8992842365	 0.116827
H	 0.6754799681	-2.8903472097	 1.7639157937	 0.075957
H	-1.547696251	-1.7153886058	 1.487701242	 0.300497
59.0352	130.3141	179.6503	197.4556	243.9148	260.9792	343.4881	363.0481	402.9101	406.4909	460.5249	479.2388	546.4281	611.0822	742.1622	808.3413	867.5342	894.4266	907.0511	968.1459	975.8875	999.2439	1028.482	1067.0133	1082.9097	1138.1581	1171.8755	1175.6964	1198.3247	1228.1053	1257.6843	1309.1586	1336.438	1375.7332	1400.7101	1419.4197	1421.3689	1474.1982	1481.9926	1504.1423	1517.455	3002.6631	3031.1585	3042.191	3098.5816	3101.7126	3119.654	3128.9552	3214.6178	3756.9138	3793.479
CC1(O)CC11OCC1O	C[C@@]1(O)C[C@]21OC[C@H]2O	
InChI=1S/C6H10O3/c1-5(8)3-6(5)4(7)2-9-6/h4,7-8H,2-3H2,1H3	InChI=1S/C6H10O3/c1-5(8)3-6(5)4(7)2-9-6/h4,7-8H,2-3H2,1H3/t4-,5-,6+/m1/s1
