17
gdb 36204	3.44147	1.1861	1.04793	3.0254	71.93	-0.2397	0.0203	0.2601	1152.1618	0.136801	-417.970338	-417.962319	-417.961375	-418.003601	29.667	
N	 0.1240449218	-1.1974500749	-0.0878696839	-0.305581
C	 0.0195210246	-0.0488031419	-0.0155828455	 0.257299
C	-0.061674138	 1.4089608923	 0.080930617	-0.416014
C	 1.3155861046	 2.0477864721	-0.0670635291	 0.299271
C	 2.3389329107	 1.8580606445	 1.0792320529	-0.119769
O	 2.5967211707	 3.2814666954	 1.1405542667	-0.285045
C	 1.6622681111	 3.555488164	 0.0860273818	 0.033291
C	 2.3039893555	 3.4794406335	-1.31696646	-0.183667
N	 1.8491400119	 2.0643032946	-1.4383810627	-0.359973
H	-0.722437113	 1.7801838831	-0.7084272817	 0.160085
H	-0.5048627875	 1.6742267818	 1.0474164759	 0.153748
H	 1.9226182229	 1.4886042179	 2.0251348698	 0.111331
H	 3.2316352564	 1.2731733723	 0.8272216294	 0.109845
H	 0.9706356108	 4.365454613	 0.3265763276	 0.089263
H	 1.8656538397	 4.1233043096	-2.0873901256	 0.111125
H	 3.3864219045	 3.6406906327	-1.2819753026	 0.115875
H	 2.5632423631	 1.37396612	-1.64545795	 0.228918
57.608	107.146	130.404	251.4044	334.0169	387.9249	396.131	409.6108	478.9152	633.4196	716.6762	785.8551	842.765	883.7011	917.7723	941.2691	947.5886	985.0104	996.3891	1026.4746	1063.4811	1098.2056	1130.2741	1136.6353	1160.1881	1204.369	1259.7004	1272.5458	1303.9904	1315.8531	1334.0685	1368.6279	1378.0913	1453.7971	1503.4359	1517.0466	2360.1773	3012.7497	3030.6172	3049.3524	3062.89	3080.9672	3094.9489	3098.232	3528.5297
N#CCC12COC1CN2	N#CC[C@]12CO[C@H]1CN2	
InChI=1S/C6H8N2O/c7-2-1-6-4-9-5(6)3-8-6/h5,8H,1,3-4H2	InChI=1S/C6H8N2O/c7-2-1-6-4-9-5(6)3-8-6/h5,8H,1,3-4H2/t5-,6-/m0/s1
