17
gdb 87112	2.84474	1.19335	1.02614	2.0441	70.06	-0.2492	-0.1008	0.1484	1215.9006	0.131154	-458.96065	-458.950668	-458.949724	-458.996259	34.353	
C	 0.2114672228	 1.5595274853	-0.1025550459	-0.431863
C	 0.1348030292	 0.0637742943	 0.0501393543	 0.043678
O	 1.3817248205	-0.6628678654	 0.0862639843	-0.292413
C	 0.5396582322	-0.682028584	 1.2536682153	 0.289234
C	 1.0705189897	-0.0544593942	 2.5203577666	-0.500722
C	-0.0842120529	-2.0615793606	 1.3879043744	 0.232272
O	-1.2232603169	-2.3257261804	 1.0831509297	-0.275164
C	 0.8040149225	-3.2185567367	 1.8763070222	 0.095223
O	 1.9137474063	-3.0906963188	 2.3186678005	-0.2126
H	 0.9860776794	 2.0003019449	 0.5271199246	 0.131113
H	 0.4362226369	 1.8153145512	-1.1429336421	 0.137617
H	-0.7521454004	 2.0131738599	 0.1523933331	 0.13149
H	-0.6238739024	-0.414666697	-0.5695777868	 0.107951
H	 1.5114607924	 0.9220528909	 2.3145890772	 0.135997
H	 0.2609471768	 0.077324611	 3.246885373	 0.130479
H	 1.835409593	-0.6949997217	 2.9634528708	 0.16449
H	 0.2867917108	-4.1978659887	 1.7906357786	 0.113218
40.7622	108.6486	129.4428	142.5748	159.8234	176.8052	220.1275	287.3136	322.9204	410.0007	469.6221	502.3432	600.7345	643.2075	656.0134	779.4681	863.8373	914.4638	993.4388	1012.3553	1057.1619	1086.7365	1130.8265	1139.3153	1190.3498	1280.5152	1353.8461	1369.2394	1404.1235	1415.1098	1457.994	1472.7294	1488.4474	1497.2605	1519.7987	1801.2991	1826.4977	2921.0888	3043.584	3048.2151	3105.5125	3110.5402	3123.4969	3140.7937	3151.676
CC1OC1(C)C(=O)C=O	C[C@H]1O[C@]1(C)C(=O)C=O	
InChI=1S/C6H8O3/c1-4-6(2,9-4)5(8)3-7/h3-4H,1-2H3	InChI=1S/C6H8O3/c1-4-6(2,9-4)5(8)3-7/h3-4H,1-2H3/t4-,6+/m1/s1
