25
gdb 110140	1.99367	1.14641	0.85502	0.9875	90.45	-0.2336	0.076	0.3096	1531.5168	0.226886	-389.473898	-389.462634	-389.461689	-389.510783	40.384	
C	-0.1010888126	 1.5441328845	 0.5159880952	-0.386421
C	-0.0232202284	 0.0687364883	 0.1037680061	-0.191627
C	-1.3914165501	-0.5785802891	-0.0124420223	-0.069024
C	-1.5646802785	-2.064369086	-0.3020126497	-0.083157
C	-0.390601501	-3.0089767219	-0.4783687715	-0.185703
C	-0.7755486882	-4.4658328302	-0.1942557067	-0.376426
C	-1.9250602992	-1.5251056869	 1.0514275574	 0.105255
O	-1.104971248	-1.9155367406	 2.1104100982	-0.234402
C	-1.2705627069	-1.121648301	 3.2674358233	-0.238919
H	 0.8972760855	 1.985585565	 0.5966310821	 0.109717
H	-0.6656027942	 2.1303982413	-0.2177212228	 0.112721
H	-0.5995626916	 1.6645606197	 1.4838394902	 0.116687
H	 0.5014621713	-0.0048542001	-0.8577172436	 0.096062
H	 0.5839184264	-0.4825839445	 0.8283864304	 0.111214
H	-2.1401499974	 0.0649357743	-0.4713115607	 0.073423
H	-2.4153508162	-2.314531033	-0.9333230801	 0.077573
H	-0.0086355789	-2.9189619717	-1.5036031411	 0.090157
H	 0.4262781664	-2.7188129902	 0.1867844604	 0.109432
H	 0.0735062025	-5.13849559	-0.3527785713	 0.105174
H	-1.1099254198	-4.5774249148	 0.8414714732	 0.129168
H	-1.5898173976	-4.7977215925	-0.8485205026	 0.106533
H	-2.9796116343	-1.4522747563	 1.3236932596	 0.075316
H	-0.6086178331	-1.5290889972	 4.0354203644	 0.125708
H	-1.0076935919	-0.0701519706	 3.0870831619	 0.115004
H	-2.3073490646	-1.1600781563	 3.6353043301	 0.106534
54.7753	87.8973	104.8984	114.743	146.6929	176.4823	202.2239	247.4859	262.765	276.6858	304.2503	357.8799	539.8044	571.9963	603.1912	742.8955	772.6777	804.3138	816.3036	851.9714	953.3585	996.0009	1000.2002	1019.2553	1040.7383	1066.4172	1112.2264	1113.4863	1128.2404	1154.7561	1172.1756	1183.167	1190.6554	1235.045	1266.4731	1289.344	1302.0336	1332.942	1339.2588	1391.6656	1397.083	1408.032	1411.1494	1452.6695	1479.2356	1484.2943	1485.0801	1492.9949	1497.0239	1498.5618	1504.6641	1507.7104	1509.9365	2984.4704	3020.1544	3024.7092	3029.5412	3030.5308	3038.9738	3072.5634	3077.0629	3085.5948	3097.9628	3101.4603	3103.2626	3111.4616	3114.5391	3116.1994	3126.9497
CCC1C(CC)C1OC	CC[C@H]1[C@@H](CC)[C@H]1OC	
InChI=1S/C8H16O/c1-4-6-7(5-2)8(6)9-3/h6-8H,4-5H2,1-3H3	InChI=1S/C8H16O/c1-4-6-7(5-2)8(6)9-3/h6-8H,4-5H2,1-3H3/t6-,7+,8-
