18
gdb 41570	3.05704	1.79385	1.64521	0.8308	75.03	-0.2117	0.0179	0.2296	897.0812	0.150465	-401.897877	-401.891336	-401.890392	-401.928718	26.76	
C	 0.4534726472	 1.6372407016	-0.0105301244	-0.095656
O	 1.5663163519	 1.287193815	 0.8492882963	-0.283341
C	 1.2249150047	-0.1040354068	 0.7950469246	 0.097255
C	 0.00861658	 0.1574875408	-0.1247230676	-0.058723
N	 0.5944648717	-0.697946195	-1.1834274104	-0.09929
C	 0.9264606267	-0.1136990647	-2.4920608421	-0.231591
C	 2.4016691913	 0.2175652963	-2.3860130703	-0.081978
C	 2.9149790529	-0.1959197202	-1.2272925452	-0.051013
C	 1.8614280873	-0.8759183179	-0.4011760644	-0.065254
H	-0.2632442573	 2.2796964072	 0.5164886341	 0.102789
H	 0.7802126174	 2.1356808338	-0.9292237436	 0.107462
H	 1.2090207125	-0.580103059	 1.7773754006	 0.078739
H	-1.0340691513	-0.0631176367	 0.1101842287	 0.08331
H	 0.7322825761	-0.8277609982	-3.3061271566	 0.108964
H	 0.3037789674	 0.7671615053	-2.7005583991	 0.105136
H	 2.9521874125	 0.7037385521	-3.1836361745	 0.099226
H	 3.9480602908	-0.0999650388	-0.9175602403	 0.105553
H	 2.1046990983	-1.9245254148	-0.1792018158	 0.078412
124.5702	183.7186	279.7988	385.9455	468.0858	524.824	668.7796	681.2038	740.6992	778.4321	796.2144	835.0661	869.3643	907.98	926.2753	951.8203	961.4484	995.3436	1013.4894	1032.6872	1046.4995	1076.2836	1095.4073	1122.377	1148.6292	1172.5564	1197.6881	1212.1796	1240.361	1262.2633	1284.9729	1302.5216	1324.1879	1339.9386	1350.0716	1365.0875	1498.5284	1513.5567	1668.1998	2990.171	2997.5911	3017.367	3024.818	3072.6949	3085.0463	3097.077	3192.7985	3221.8094
C1OC2C1N1CC=CC21	C1O[C@H]2[C@@H]1N1CC=C[C@@H]21	
InChI=1S/C7H9NO/c1-2-5-7-6(4-9-7)8(5)3-1/h1-2,5-7H,3-4H2	InChI=1S/C7H9NO/c1-2-5-7-6(4-9-7)8(5)3-1/h1-2,5-7H,3-4H2/t5-,6+,7+/m0/s1
