18
gdb 35552	2.51725	1.61021	1.45833	5.0816	74.12	-0.2557	0.0316	0.2874	989.4888	0.1502	-401.960865	-401.953376	-401.952432	-401.992988	28.804	
N	 0.0894347122	-1.1476824403	 0.5944795148	-0.338095
C	 0.0849658551	-0.0171792592	 0.3522002743	 0.289309
C	 0.0283779841	 1.4081918074	 0.0203765406	-0.158705
C	-0.7529039665	 2.2329841761	 1.0885578481	-0.245465
C	 0.2924811851	 2.6771754296	 2.1214861237	-0.063589
C	 0.8312247634	 1.5937289811	 3.0800250427	-0.086971
O	 2.0376099017	 1.4394512425	 2.2981636074	-0.286615
C	 1.6761094606	 2.5315452976	 1.4277334256	 0.13692
C	 1.4298860356	 2.0801064049	-0.0084909966	-0.243375
H	-0.4590760795	 1.4808080647	-0.9565500823	 0.126461
H	-1.1784093746	 3.1119039761	 0.5934260734	 0.112359
H	-1.580655095	 1.6684813026	 1.5249518813	 0.126738
H	 0.0485549407	 3.633900385	 2.5834433847	 0.081733
H	 1.0516714137	 1.9505424432	 4.0936181004	 0.103646
H	 0.2605011979	 0.6606112799	 3.1394009348	 0.1243
H	 2.3875283071	 3.3612282926	 1.5040183549	 0.077041
H	 2.2177099814	 1.4168411733	-0.3718161923	 0.136362
H	 1.3861267669	 2.955436743	-0.6664156255	 0.107946
102.024	120.0504	194.3531	256.3315	352.5622	367.2494	463.578	547.1702	633.4467	742.9682	768.6865	796.0845	850.8522	873.332	897.1874	920.1292	955.18	966.8152	1014.3561	1033.4997	1067.655	1086.9308	1117.2499	1155.4074	1167.0333	1203.9449	1209.396	1245.6586	1269.3768	1307.8737	1326.2207	1344.7665	1359.404	1363.5625	1373.5825	1465.9434	1486.0749	1523.8705	2353.3941	3019.8914	3039.758	3051.5003	3053.9061	3071.2271	3073.1763	3105.8863	3111.4334	3120.2385
N#CC1CC2COC2C1	N#C[C@H]1C[C@H]2CO[C@H]2C1	
InChI=1S/C7H9NO/c8-3-5-1-6-4-9-7(6)2-5/h5-7H,1-2,4H2	InChI=1S/C7H9NO/c8-3-5-1-6-4-9-7(6)2-5/h5-7H,1-2,4H2/t5-,6-,7-/m0/s1
