19
gdb 43705	4.44329	1.14859	1.03516	2.877	80.12	-0.2391	-0.02	0.219	1174.424	0.159307	-385.845758	-385.838289	-385.837345	-385.878337	30.039	
O	-0.0099427474	 0.1092281317	-0.6954525944	-0.291415
C	-0.016395712	 1.1822452652	-0.16580846	 0.403778
C	-1.1341111409	 2.1191361815	 0.3202877603	-0.457019
C	-0.0279832281	 3.1092681014	 0.7858094872	 0.417395
C	 1.0898816221	 2.1484103008	 0.2880833852	-0.457018
C	-0.0523470111	 4.6346352093	 0.4894474994	-0.107357
C	-1.1114809711	 4.7616643418	 1.6242122765	-0.224333
C	-0.0169468262	 3.8015341103	 2.1771469478	-0.107348
C	 1.0354794432	 4.7899192943	 1.5931267993	-0.224332
H	-1.792496302	 2.4686570504	-0.4821844762	 0.131848
H	-1.7590365261	 1.6838810614	 1.1074475037	 0.13186
H	 1.748583484	 1.7300569545	 1.0566470247	 0.13186
H	 1.715318079	 2.5148363615	-0.532988792	 0.131849
H	-0.0728318624	 5.1098828847	-0.4934157506	 0.071199
H	-1.1865052474	 5.7389208406	 2.108191368	 0.092061
H	-2.0988362287	 4.3349781822	 1.4342969679	 0.096855
H	 0.0036329024	 3.3103271789	 3.152130164	 0.071199
H	 2.0278096489	 4.389289744	 1.3745491705	 0.096855
H	 1.0987405639	 5.7689960754	 2.0751036289	 0.092061
31.3708	207.0681	226.4919	321.7383	409.311	414.4249	452.4312	581.9438	582.7474	646.5009	719.5316	746.3341	806.1239	852.1581	900.7669	903.1107	904.5823	972.9702	1007.0436	1015.3188	1022.3644	1039.0075	1048.6817	1100.8222	1101.8806	1115.3414	1162.9333	1167.9755	1182.4428	1196.2161	1197.162	1205.1437	1248.003	1253.5803	1255.3222	1317.1344	1419.1773	1437.9576	1500.4059	1538.6318	1893.8334	3042.2994	3046.9299	3056.7352	3057.556	3089.4101	3093.1285	3095.045	3096.482	3120.7181	3123.4068
O=C1CC2(C1)C1CC2C1	O=C1CC2(C1)[C@H]1C[C@@H]2C1	
InChI=1S/C8H10O/c9-7-3-8(4-7)5-1-6(8)2-5/h5-6H,1-4H2	InChI=1S/C8H10O/c9-7-3-8(4-7)5-1-6(8)2-5/h5-6H,1-4H2/t5-,6+
