18
gdb 37735	3.49159	1.90843	1.49024	2.3634	75.41	-0.2313	0.0811	0.3125	896.8391	0.150136	-401.845163	-401.838738	-401.837794	-401.875774	26.553	
C	-0.0826911814	 1.5863628914	-0.0006845331	-0.330671
C	 1.4165292771	 1.2231120688	 0.0331934205	-0.013604
C	 1.2158437524	 0.0286172368	 0.9976448652	-0.09295
C	 1.8562248692	-0.9352957223	 0.0046700438	-0.022796
C	 1.1959739356	-2.3100266605	-0.085254747	-0.080219
O	-0.1725454908	-2.2604355144	-0.4806508305	-0.26263
C	-0.9304816046	-1.1171900892	-0.0940797399	-0.18679
C	-0.0093908634	 0.0577486817	 0.0307914362	 0.323868
N	 1.1961596863	 0.0537489034	-0.9592622424	-0.180343
H	-0.4915728949	 2.0821468693	 0.8833408721	 0.102031
H	-0.4507543663	 2.0347304923	-0.9275863635	 0.112708
H	 2.2875105058	 1.8733641405	-0.0639590053	 0.083278
H	 1.2035765365	 0.0266487568	 2.0935171653	 0.062545
H	 2.9482298833	-0.9920129879	-0.0641958759	 0.068792
H	 1.6891149213	-2.9249100895	-0.8452888427	 0.116617
H	 1.3054859878	-2.8250360924	 0.8847595578	 0.089705
H	-1.678796454	-0.9676565751	-0.8801324247	 0.117672
H	-1.4610171898	-1.2927220497	 0.8562316542	 0.092789
126.1327	229.6596	342.0196	388.3923	434.9058	492.7654	611.4376	708.5896	731.8874	813.2659	839.0675	852.5958	862.855	884.3253	920.199	944.5119	995.4194	1007.1062	1021.0523	1031.9323	1066.2918	1109.5871	1123.9333	1147.8235	1152.9744	1166.2638	1208.709	1213.3353	1225.1316	1251.3329	1283.1592	1297.4334	1321.0513	1362.1444	1386.7354	1423.2836	1494.4003	1498.057	1504.4647	2956.9322	2971.1971	3035.5778	3049.6554	3056.4813	3061.9401	3070.3315	3102.5482	3123.2086
C1C2C3C4COCC13N24	C1[C@H]2[C@@H]3[C@H]4COC[C@@]13N24	
InChI=1S/C7H9NO/c1-4-6-5-2-9-3-7(1,6)8(4)5/h4-6H,1-3H2	InChI=1S/C7H9NO/c1-4-6-5-2-9-3-7(1,6)8(4)5/h4-6H,1-3H2/t4-,5+,6+,7-/m0/s1
