19
gdb 112758	2.52515	1.20571	0.92836	1.7864	71.92	-0.2559	0.0596	0.3155	1279.4296	0.157373	-460.115077	-460.105698	-460.104754	-460.149459	34.477	
O	-0.0950994563	 1.4406711589	-0.1598118101	-0.421546
C	 0.0522243999	 0.0386818724	 0.0126132297	-0.101595
C	-1.3338305753	-0.5705377631	 0.037835314	-0.060629
C	-2.1598750825	-0.6104229137	-1.2838326425	-0.277173
C	-2.6195078512	-2.0584785145	-0.9241928599	 0.037893
O	-2.5705382611	-3.06586845	-1.9045837145	-0.432071
C	-1.4751434685	-2.0967344757	 0.0820623678	 0.411593
C	-0.4465609257	-3.1324963264	 0.1885309832	-0.259019
O	-1.4169132447	-2.9199541734	 1.2274857032	-0.280108
H	 0.7813913144	 1.8359527753	-0.1776079817	 0.287197
H	 0.6351532402	-0.4065470091	-0.8100580517	 0.08398
H	 0.5754973057	-0.1957899056	 0.9542309649	 0.092966
H	-1.9120120501	-0.1122585847	 0.8472500764	 0.093308
H	-2.9314276738	 0.1486610122	-1.4168572267	 0.104378
H	-1.5083477469	-0.6296721979	-2.1618110781	 0.1094
H	-3.5855401281	-2.0504474981	-0.3995661415	 0.080092
H	-3.3975844985	-3.0579874967	-2.3955123281	 0.287812
H	-0.5656414732	-4.0524091223	-0.3794291327	 0.131936
H	 0.5767909959	-2.8641838576	 0.4471965683	 0.111584
69.5912	102.1922	150.8158	212.9142	223.9792	250.9219	270.3143	299.7327	356.7316	447.5692	479.6719	550.7529	569.0377	741.1795	825.5795	860.0608	900.6604	921.6863	936.534	1021.1081	1044.5091	1081.6805	1097.5412	1118.7775	1143.2962	1155.2044	1160.415	1171.2151	1195.5292	1236.8734	1247.8104	1273.5042	1279.8157	1298.0044	1368.1338	1413.824	1451.201	1463.127	1486.1509	1521.8202	1535.0921	2959.2482	2988.6465	3004.0118	3059.2301	3069.6195	3089.9534	3134.4275	3182.8719	3827.5801	3828.8072
OCC1CC(O)C11CO1	OC[C@H]1C[C@@H](O)[C@]21CO2	
InChI=1S/C6H10O3/c7-2-4-1-5(8)6(4)3-9-6/h4-5,7-8H,1-3H2	InChI=1S/C6H10O3/c7-2-4-1-5(8)6(4)3-9-6/h4-5,7-8H,1-3H2/t4-,5-,6-/m1/s1
