16
gdb 61740	3.40804	0.94469	0.81972	2.7661	74.17	-0.2552	-0.0764	0.1789	1371.4149	0.121309	-437.891976	-437.882296	-437.881352	-437.92724	33.876	
C	 0.121531962	 1.5295671924	-0.0271740731	-0.406836
C	-0.0187442156	-0.0060588266	-0.0076462636	-0.057464
N	-1.3981685214	-0.4411094091	 0.012148691	-0.288706
C	-2.1598623481	-0.3792761047	 1.1320725395	 0.151958
O	-1.8005446482	 0.1069449319	 2.1858716084	-0.331449
C	 0.6545168225	-0.6389815456	-1.222371965	 0.230705
O	 0.0338150223	-1.274694977	-2.0498168784	-0.305573
C	 2.0830106886	-0.4310785893	-1.3339315963	 0.276827
C	 3.2734578293	-0.2731996246	-1.413046063	-0.397087
H	 1.1742879495	 1.8226352474	-0.0318708366	 0.132385
H	-0.3692682556	 1.9496195604	-0.9098736265	 0.126998
H	-0.3546559035	 1.9278113504	 0.8701162358	 0.164293
H	 0.4905042067	-0.377072708	 0.8922637282	 0.132797
H	-1.7172014191	-0.9402080317	-0.8067780157	 0.263667
H	-3.1636335468	-0.8208189855	 0.9780577168	 0.084134
H	 4.3253605474	-0.1392956604	-1.4943293416	 0.223349
49.1717	74.8526	120.23	186.6044	206.0451	242.1738	265.0755	280.5977	322.5405	431.9019	493.7369	584.1719	591.9905	659.4134	707.9788	719.0556	751.3634	865.6298	900.5685	1034.0843	1061.8722	1075.1821	1095.6885	1163.3769	1224.8687	1305.3726	1358.8159	1394.2148	1424.3946	1479.7216	1503.6909	1518.0742	1755.9682	1794.6947	2215.8598	2946.7078	3024.1908	3051.2359	3129.0423	3149.7187	3491.5094	3597.1562
CC(NC=O)C(=O)C#C	C[C@@H](NC=O)C(=O)C#C	
InChI=1S/C6H7NO2/c1-3-6(9)5(2)7-4-8/h1,4-5H,2H3,(H,7,8)	InChI=1S/C6H7NO2/c1-3-6(9)5(2)7-4-8/h1,4-5H,2H3,(H,7,8)/t5-/m1/s1
