18
gdb 105216	2.06177	1.5951	1.08547	5.7679	68.34	-0.2501	0.0272	0.2773	1137.0786	0.147788	-476.240586	-476.231545	-476.230601	-476.274368	33.792	
N	 0.3984697517	 1.9285706389	 3.1794078309	-0.529697
H	 0.7539864316	 1.0668675518	 3.5800568673	 0.245072
H	-0.0961228902	 2.4277130234	 3.9138166746	 0.257829
H	 1.3468536331	 2.9711538997	 2.1210785678	 0.316343
C	-0.5328669895	 1.6495334679	 2.0677603031	-0.259414
C	-0.8722581896	 2.9412290741	 1.3462209877	 0.138304
C	-2.1954671228	 3.0243696006	 0.6070747189	-0.367593
C	-2.0212345075	 3.7783186918	 1.8880447024	 0.075658
O	-2.6045212083	 3.3139064924	 3.0725062888	-0.428557
C	 0.2644559646	 3.7593322162	 0.7660328271	 0.380705
O	 0.0961554623	 4.5600489316	-0.1210456989	-0.355341
O	 1.4615332981	 3.5606902921	 1.3272473859	-0.385092
H	-0.0278031545	 0.9654252049	 1.3766048478	 0.122632
H	-1.4577981811	 1.1671511317	 2.4013659128	 0.114652
H	-2.1880772955	 3.5873436519	-0.3183275791	 0.149955
H	-2.8195730105	 2.1373183363	 0.6320397563	 0.112008
H	-1.8996766442	 4.8578017288	 1.8234546306	 0.11634
H	-3.5528150075	 3.4739830259	 3.0246218558	 0.296198
69.0443	121.8863	164.9143	246.3549	258.43	268.126	292.4957	356.5754	420.5411	433.6567	481.6977	521.649	648.6736	748.1814	750.0943	840.5759	856.4828	904.1127	931.2194	995.8573	999.3178	1031.6024	1056.7742	1059.3835	1101.5492	1168.728	1191.2636	1217.7426	1270.8456	1288.7475	1323.4901	1357.0364	1410.0988	1424.9082	1467.1016	1497.5494	1511.0873	1646.2314	1836.8022	3034.8343	3077.0969	3128.8338	3139.1222	3192.2656	3240.778	3497.2361	3581.9007	3808.4829
[NH3+]CC1(CC1O)C([O-])=O	NC[C@]1(C[C@H]1O)C(=O)O	
InChI=1S/C5H9NO3/c6-2-5(4(8)9)1-3(5)7/h3,7H,1-2,6H2,(H,8,9)	InChI=1S/C5H9NO3/c6-2-5(4(8)9)1-3(5)7/h3,7H,1-2,6H2,(H,8,9)/t3-,5+/m1/s1
