17
gdb 73000	2.52453	1.59492	1.2866	1.942	70.04	-0.2468	-0.0322	0.2146	1026.4232	0.133427	-458.930556	-458.92199	-458.921046	-458.963286	32.347	
C	 0.0518622525	 1.4677402164	 0.1677182445	-0.508727
C	 0.149931291	-0.0198512527	 0.1549183945	 0.387141
O	-1.0420748387	-0.7755524938	-0.1098982654	-0.333377
C	-0.6310443779	-1.7822217642	 0.8717895672	-0.126641
C	 0.6995752769	-1.0823398662	 1.0716407643	-0.218953
C	 1.3176925774	-0.8886070534	-0.3223080253	 0.261566
O	 1.126586626	-1.8073146011	-1.3481691631	-0.482546
C	 2.6622014749	-0.2647569257	-0.3439137992	 0.098299
O	 3.1033556604	 0.4506871538	 0.5272840719	-0.280588
H	 1.022706895	 1.903540259	 0.4101533166	 0.164412
H	-0.2702279642	 1.8391291673	-0.8111459282	 0.133684
H	-0.6788048518	 1.7939332661	 0.9141342159	 0.133712
H	-1.290366036	-1.7421645256	 1.743319629	 0.126989
H	-0.6147407007	-2.7905570041	 0.4474086287	 0.123682
H	 1.2938641569	-0.9969950588	 1.9709215363	 0.126881
H	 0.2057168389	-1.7109885321	-1.6301219799	 0.297897
H	 3.2419713095	-0.515832035	-1.256903708	 0.096568
126.6464	179.5404	202.2048	207.8956	237.9939	281.042	297.7535	342.195	453.9626	488.255	552.616	632.3338	681.2005	700.0387	753.8057	906.3622	916.4433	947.4678	966.6321	981.1379	1039.9824	1069.6445	1114.022	1136.5327	1161.4481	1178.0761	1207.8283	1245.4708	1326.0224	1366.8841	1396.7	1423.2805	1443.7657	1482.1065	1496.0189	1507.6194	1797.0553	2919.6036	3040.9772	3050.7498	3103.7278	3106.9445	3145.2569	3215.8312	3736.7032
CC12OCC1C2(O)C=O	C[C@]12OC[C@H]1[C@]2(O)C=O	
InChI=1S/C6H8O3/c1-5-4(2-9-5)6(5,8)3-7/h3-4,8H,2H2,1H3	InChI=1S/C6H8O3/c1-5-4(2-9-5)6(5,8)3-7/h3-4,8H,2H2,1H3/t4-,5+,6-/m1/s1
