18
gdb 133741	2.36058	1.21796	1.18129	1.9988	60.36	-0.2782	0.0634	0.3417	1137.7663	0.141408	-570.603249	-570.593152	-570.592208	-570.638091	36.603	
C	-0.0300837777	 1.5532185626	 0.0267871136	-0.429264
C	-0.0186697552	 0.0139318193	 0.044372398	 0.093777
C	 0.7418184871	-0.5121723011	 1.2751219279	-0.429253
C	-1.4617727394	-0.530478748	 0.0359871793	-0.103643
O	-2.108258784	-0.063417923	 1.2096246136	-0.427448
C	 0.678652369	-0.4906984309	-1.2217142156	 0.284547
F	 1.94782516	-0.05959345	-1.2940450904	-0.08447
F	 0.7150685369	-1.8353147466	-1.2758728309	-0.089042
F	 0.0562668493	-0.0744281496	-2.3404905229	-0.089077
H	 0.9870090278	 1.9514948029	 0.0587967839	 0.124981
H	-0.5188543369	 1.9335222873	-0.8744102846	 0.12393
H	-0.5797537366	 1.9184484191	 0.8956103653	 0.140383
H	 0.215262365	-0.2068282091	 2.1805980677	 0.14043
H	 0.8025134653	-1.6038985702	 1.2640001632	 0.123967
H	 1.7585664169	-0.1128957513	 1.3057108466	 0.124976
H	-1.9773680354	-0.179488535	-0.8690131915	 0.101262
H	-1.435700209	-1.6289088411	 0.0062520439	 0.10126
H	-3.0096627631	-0.3967477654	 1.2075300629	 0.292684
66.2218	109.6203	186.6513	202.627	217.3765	229.1033	244.1428	294.9811	332.5775	336.574	369.879	438.0709	440.6332	571.2372	577.0956	648.2854	749.0229	856.06	945.2805	972.4895	975.6081	1039.8937	1076.1778	1154.683	1167.7987	1190.2	1220.1003	1224.7479	1274.0187	1310.613	1333.6886	1394.6199	1414.1436	1463.3796	1486.6751	1492.2872	1502.8084	1515.3253	1531.1055	2994.2716	3032.5279	3052.573	3056.3975	3122.8383	3125.4292	3143.2333	3146.5708	3841.3864
CC(C)(CO)C(F)(F)F	CC(C)(CO)C(F)(F)F	
InChI=1S/C5H9F3O/c1-4(2,3-9)5(6,7)8/h9H,3H2,1-2H3	InChI=1S/C5H9F3O/c1-4(2,3-9)5(6,7)8/h9H,3H2,1-2H3
