15
gdb 25818	4.21714	1.10213	0.87643	5.9572	78.98	-0.1895	-0.0355	0.154	1237.0079	0.115392	-450.178621	-450.170607	-450.169663	-450.211026	30.84	
N	 0.076736004	 1.3675610823	 0.2007973511	-0.555199
C	-0.0203635857	 0.0158754644	 0.0223536538	 0.245634
N	 1.1403235079	-0.6695968588	-0.1300149945	-0.530278
H	 1.0060215925	-1.6742378347	-0.1101594309	 0.289477
H	 1.9732873253	-0.3114640525	 0.3105541867	 0.259901
C	-1.2205914451	-0.6804307793	 0.0054416989	 0.320311
C	-2.5671003319	-0.2322734365	-0.0442985093	-0.171632
N	-3.379648732	-1.279514503	-0.0675576305	-0.350008
C	-2.5028962967	-2.3459730781	-0.0367183503	 0.399097
O	-2.9782086769	-3.6027122804	-0.0516284094	-0.414132
N	-1.2235004268	-2.0752655784	 0.0064187407	-0.426532
H	 0.8395470208	 1.8353152331	-0.2661711554	 0.264157
H	-0.7891385689	 1.8824183045	 0.1915468048	 0.2747
H	-2.9489963104	 0.7818876518	-0.0734172518	 0.092546
H	-3.9391901062	-3.5202907743	-0.0816019239	 0.301958
114.5704	139.2232	171.9231	344.972	366.8389	394.2383	426.0961	438.3959	464.5331	533.2942	549.9036	610.6817	621.201	662.9727	742.1832	759.8696	767.0201	852.1583	965.9866	1017.1267	1076.6667	1111.4524	1207.6043	1227.2678	1286.3205	1344.2467	1409.9895	1479.8001	1499.004	1592.7986	1644.1355	1650.6628	1701.2952	3192.0831	3532.4517	3579.8799	3671.2489	3693.7587	3807.3193
NC(=[NH2+])C1=CN=C(O)[N-]1	NC(=[NH2])c1cnc(O)n1	
InChI=1S/C4H5N4O/c5-3(6)2-1-7-4(9)8-2/h1H,(H4-,5,6,7,8,9)/q-1/p+1	InChI=1S/C4H7N4O/c5-3(6)2-1-7-4(9)8-2/h1H,5-6H2,(H2,7,8,9)
