15
gdb 84967	2.33094	1.70348	1.13817	3.5211	61.83	-0.264	-0.0935	0.1704	1043.8025	0.11117	-494.945411	-494.937046	-494.936101	-494.978544	30.427	
C	 0.2433439555	 1.5128952867	-0.0744259272	-0.38942
C	-0.0448738109	 0.0296834742	 0.0765216788	 0.05394
O	 0.4869952818	-0.7128351024	-1.0666526153	-0.228975
C	 1.6948695476	-1.2664691325	-0.8059955445	 0.376303
O	 2.3733410227	-1.8279126132	-1.6110905296	-0.310793
C	 1.9713838545	-1.0335098953	 0.6895997743	 0.219828
O	 3.0286282659	-1.0823518487	 1.2560071155	-0.288778
C	 0.6494884881	-0.6220877049	 1.2967878012	 0.035394
O	 0.7757117109	 0.1973579528	 2.418376046	-0.428831
H	 1.3203177595	 1.7097668181	-0.0738940477	 0.131128
H	-0.1777557618	 1.881713401	-1.0126111635	 0.139457
H	-0.2001415298	 2.0610355868	 0.7596734621	 0.149507
H	-1.119458776	-0.1600133929	 0.0664111073	 0.115521
H	 0.1066777225	-1.5552041341	 1.5354591732	 0.122588
H	 1.6762914994	 0.0726296445	 2.7521357592	 0.303133
79.7967	118.1262	213.4729	227.0263	244.0475	316.6359	357.3529	382.8561	421.541	511.3559	610.8153	627.7128	650.7657	724.3213	845.9488	888.6709	950.8266	1014.8445	1063.0617	1080.9233	1133.2613	1156.4329	1195.8868	1250.261	1344.461	1366.1975	1386.1751	1403.2457	1416.7495	1483.8852	1489.4437	1866.0805	1886.6765	2943.1971	3048.9707	3096.6756	3126.3562	3143.1638	3730.6011
CC1OC(=O)C(=O)C1O	C[C@H]1OC(=O)C(=O)[C@H]1O	
InChI=1S/C5H6O4/c1-2-3(6)4(7)5(8)9-2/h2-3,6H,1H3	InChI=1S/C5H6O4/c1-2-3(6)4(7)5(8)9-2/h2-3,6H,1H3/t2-,3+/m1/s1
