19
gdb 103728	2.0324	1.47769	1.02844	3.3472	73.25	-0.2378	-0.0142	0.2235	1204.3798	0.155851	-460.151762	-460.141645	-460.140701	-460.186519	37.053	
C	-0.0176102691	 1.4472610377	-0.1144426004	-0.470299
C	 0.0845021175	-0.0484945582	 0.1053259578	 0.157956
C	 1.4701942585	-0.7096509023	 0.1231098224	-0.377763
C	 0.7411927222	-0.5646415257	 1.4080508167	 0.328484
O	 1.2526710675	 0.4177912788	 2.267390737	-0.442271
C	 0.2316641053	-1.7778537416	 2.1911538848	-0.16321
O	 0.1158955793	-2.977260388	 1.4481596018	-0.395933
C	-1.0249182239	-0.8414102319	-0.492537623	 0.089299
O	-1.9892642909	-0.3344586707	-1.0202610522	-0.274702
H	 0.7832304945	 1.9759085032	 0.4039107237	 0.123939
H	 0.039152786	 1.6780726736	-1.1821467072	 0.131345
H	-0.9820790914	 1.8226759399	 0.2402731863	 0.12902
H	 1.5510406864	-1.697777377	-0.3177137177	 0.115603
H	 2.3185985213	-0.0559998309	-0.0447280919	 0.135172
H	 0.515344604	 0.8268698073	 2.7354776893	 0.292053
H	 0.9101779453	-1.8989026295	 3.0472339971	 0.112187
H	-0.7681992481	-1.5738942434	 2.5926032808	 0.11841
H	 1.0037290685	-3.3105939132	 1.2853103123	 0.292742
H	-0.916197203	-1.9408865879	-0.4268814875	 0.097971
82.5163	99.232	151.7787	164.1365	209.2571	262.8453	291.4928	297.7324	329.6953	344.0012	397.9045	432.7064	467.7519	521.8971	602.2408	668.8604	765.677	849.2253	919.898	934.232	978.6848	1015.2767	1044.6539	1068.917	1091.1648	1112.4132	1150.7059	1211.8925	1220.078	1274.2607	1328.4316	1374.8819	1395.2412	1407.6712	1423.7342	1445.4137	1477.7696	1492.6642	1497.4956	1503.2911	1793.6042	2958.9231	3006.191	3050.4908	3060.9512	3109.7505	3135.1786	3144.7141	3227.758	3789.7938	3825.4325
CC1(CC1(O)CO)C=O	C[C@]1(C[C@]1(O)CO)C=O	
InChI=1S/C6H10O3/c1-5(3-7)2-6(5,9)4-8/h3,8-9H,2,4H2,1H3	InChI=1S/C6H10O3/c1-5(3-7)2-6(5,9)4-8/h3,8-9H,2,4H2,1H3/t5-,6-/m0/s1
