19
gdb 90050	3.76338	1.28544	1.18715	3.3958	81.56	-0.2373	0.0145	0.2518	1102.8907	0.159556	-385.794654	-385.786876	-385.785931	-385.826671	30.93	
C	-0.2170638001	 1.5992505209	-0.0774599077	-0.410783
C	 0.0412034586	 0.0973662519	-0.0104580668	-0.011267
C	 1.0445030452	-0.5516245457	-1.0500469683	-0.351512
C	 1.9839542964	-0.8270796499	 0.1372056343	 0.133062
C	 2.7001624818	 0.3877422166	 0.8290500842	-0.25353
C	 2.1059833014	-0.3735718675	 2.0261124274	-0.189636
C	 0.8208759797	-0.6282240525	 1.1924455627	-0.045741
C	 2.5844438268	-1.6976011442	 1.2539285912	 0.352807
O	 2.9924757757	-2.7878965355	 1.4865972894	-0.314617
H	 0.6892658748	 2.1930325823	-0.2145749557	 0.12532
H	-0.8786454071	 1.8232300723	-0.9220985211	 0.119946
H	-0.7133900687	 1.9478236052	 0.8340606657	 0.125942
H	-0.9293498139	-0.4025821525	-0.060153421	 0.093661
H	 0.6356063383	-1.4507707494	-1.5165068143	 0.118958
H	 1.4471823949	 0.1040250441	-1.8264201477	 0.110552
H	 3.7870892831	 0.4271067037	 0.7342149014	 0.107113
H	 2.2577145049	 1.3627207719	 0.6437978257	 0.108552
H	 2.2203550024	-0.1581725714	 3.0885220203	 0.085913
H	 0.2617923056	-1.5188245002	 1.48823599	 0.09526
121.3098	160.7069	176.5721	253.1159	341.8008	380.4244	393.032	517.7209	587.6824	655.0616	711.0507	721.657	773.1039	820.3563	839.961	851.6788	867.5143	898.3955	948.3725	983.3833	1037.6906	1055.4724	1063.6997	1089.8638	1103.1067	1139.1984	1162.6082	1192.1884	1204.2357	1216.0116	1231.7058	1254.7175	1281.6906	1352.8036	1380.5605	1416.6629	1477.0387	1491.0465	1498.225	1526.2265	1904.5619	3034.7219	3057.9427	3062.9391	3081.0171	3084.8203	3095.72	3115.6311	3118.6324	3122.5892	3180.7998
CC1CC23CC(C12)C3=O	C[C@H]1C[C@@]23C[C@@H]([C@@H]12)C3=O	
InChI=1S/C8H10O/c1-4-2-8-3-5(6(4)8)7(8)9/h4-6H,2-3H2,1H3	InChI=1S/C8H10O/c1-4-2-8-3-5(6(4)8)7(8)9/h4-6H,2-3H2,1H3/t4-,5-,6+,8+/m0/s1
