19
gdb 115772	2.75075	0.97006	0.76877	2.6769	73.83	-0.2612	-0.0012	0.26	1484.542	0.157305	-460.166707	-460.157154	-460.15621	-460.202634	33.111	
C	-0.1356429249	 1.4449228002	 0.111347075	-0.388253
C	-0.0631678948	-0.0837499648	 0.0541582021	-0.182553
C	 0.8647310054	-0.6405808108	 1.1204620711	 0.113257
O	 0.411162897	-0.3590112581	 2.4716333835	-0.288526
C	 0.2120915521	-1.755436225	 2.7620260352	-0.097356
C	 0.8082969066	-2.163347959	 1.4067912258	 0.044351
O	-0.0678922878	-2.9177081959	 0.5828253885	-0.181753
C	 0.4212168765	-3.9937255504	-0.0697163551	 0.168969
O	-0.246651469	-4.6667826822	-0.7923935336	-0.268134
H	 0.84366299	 1.8981043188	-0.0789994133	 0.113283
H	-0.8345665733	 1.8317640842	-0.6354706966	 0.116994
H	-0.4719184269	 1.7741007581	 1.0984460198	 0.13872
H	-1.0596584036	-0.5182778664	 0.1825597344	 0.116127
H	 0.2990172507	-0.4157344042	-0.9272781576	 0.102122
H	 1.8843127948	-0.2564609079	 0.977459651	 0.079262
H	 0.7600085023	-2.0780114456	 3.654426128	 0.111027
H	-0.847170246	-2.0196501443	 2.8654274269	 0.121528
H	 1.786448643	-2.6511364026	 1.4583961435	 0.098907
H	 1.4926063879	-4.1735227942	 0.1465909413	 0.082028
43.878	62.6158	104.1787	134.2642	169.2753	218.5947	268.4492	293.0954	396.368	447.6915	499.3554	643.6744	758.0214	827.4918	856.109	913.0299	941.6185	981.2539	1022.5207	1043.0813	1049.633	1073.855	1109.917	1142.5809	1155.9748	1171.9275	1197.5307	1251.7536	1274.753	1293.6607	1327.8943	1358.4348	1392.8335	1403.5246	1410.273	1441.3199	1475.8539	1498.6524	1509.2703	1517.5851	1871.9456	2946.7889	3006.5987	3025.2102	3033.7949	3037.6892	3057.0162	3077.0311	3081.8283	3107.5703	3121.7909
CCC1OCC1OC=O	CC[C@H]1OC[C@H]1OC=O	
InChI=1S/C6H10O3/c1-2-5-6(3-8-5)9-4-7/h4-6H,2-3H2,1H3	InChI=1S/C6H10O3/c1-2-5-6(3-8-5)9-4-7/h4-6H,2-3H2,1H3/t5-,6-/m1/s1
