19
gdb 83174	2.90956	1.37549	1.19555	3.8667	76.23	-0.2165	0.0336	0.25	1106.9179	0.161601	-419.225038	-419.216775	-419.215831	-419.257942	31.825	
C	-0.1782516862	 1.5677868985	 0.003413898	-0.405765
C	-0.0132806607	 0.0678616178	-0.0175942884	-0.044416
C	 0.6862227064	-0.6385081491	-1.1700600773	-0.035213
N	 1.3599413709	 0.1510369862	-2.1651514481	-0.301319
C	 2.8101290885	-0.0323090768	-2.1532098215	-0.28439
C	 3.3842825163	 0.4005233064	-0.8038458795	 0.416541
O	 4.4783418086	 0.9134568877	-0.6802075042	-0.373963
N	 2.5457453887	 0.1720643273	 0.2547714017	-0.298246
C	 1.3411967935	-0.5956788674	 0.1845825834	-0.020408
H	 0.6464753865	 2.0583072489	-0.5149372407	 0.140234
H	-1.1078321457	 1.8589711597	-0.4970366041	 0.115734
H	-0.2200039328	 1.9455189836	 1.0307266723	 0.111664
H	-0.8372221191	-0.4929109266	 0.4169361547	 0.084559
H	 0.2872319459	-1.6037036665	-1.4834698629	 0.081922
H	 0.968554361	 0.0117787285	-3.0870435722	 0.229652
H	 3.1336930144	-1.0723432224	-2.3428734876	 0.104105
H	 3.2734806324	 0.6015971579	-2.9115123646	 0.133033
H	 2.8886311897	 0.4836128501	 1.1522021221	 0.247266
H	 1.3623829716	-1.5178453638	 0.7606995689	 0.099012
82.6139	125.1912	161.8285	207.9397	285.7961	409.7263	427.2014	470.0982	520.1637	551.3406	585.9695	643.0529	675.5701	753.221	778.8202	806.37	903.9348	922.3632	968.514	1008.6337	1037.4396	1052.7733	1099.9202	1123.0072	1142.1482	1167.1647	1175.9073	1240.6561	1258.2581	1307.5614	1336.9948	1381.2653	1392.6916	1419.311	1433.2748	1464.567	1484.4956	1490.355	1493.2416	1503.6236	1805.1509	2935.7417	3037.6373	3083.0291	3092.2454	3114.1274	3119.008	3135.5187	3149.2435	3566.0682	3604.0642
CC1C2NCC(=O)NC12	C[C@H]1[C@H]2NCC(=O)N[C@@H]12	
InChI=1S/C6H10N2O/c1-3-5-6(3)8-4(9)2-7-5/h3,5-7H,2H2,1H3,(H,8,9)	InChI=1S/C6H10N2O/c1-3-5-6(3)8-4(9)2-7-5/h3,5-7H,2H2,1H3,(H,8,9)/t3-,5+,6-/m0/s1
