18
gdb 104532	2.23769	1.38393	1.03223	3.9199	71.75	-0.2645	0.0215	0.2861	1192.4961	0.146008	-439.061271	-439.051947	-439.051003	-439.096118	32.859	
C	-1.4501556754	-0.0623426754	-0.0747020476	-0.264917
O	-0.0376600865	 0.0141467104	-0.0027195528	-0.275346
C	 0.6638185963	-0.6694130193	-0.9988984592	 0.362521
C	 0.4096998871	-0.1253461478	-2.4206501664	-0.419063
C	 0.6967021812	 1.302251369	-2.5363631687	 0.273226
N	 0.9275650584	 2.4307543603	-2.6244846495	-0.302913
C	 2.1584672279	-0.8215737401	-0.6585756693	-0.122975
O	 2.1067229453	-2.236896099	-0.9429708943	-0.272206
C	 0.6665978561	-2.223205288	-0.9590113651	-0.132354
H	-1.8562627767	 0.4992410788	-0.9266143447	 0.122918
H	-1.8000136083	-1.1029809383	-0.1347855233	 0.113101
H	-1.8328193179	 0.3835741849	 0.8451218129	 0.144511
H	 1.0442868978	-0.6767284029	-3.1224944842	 0.168713
H	-0.6274175318	-0.3064545908	-2.722967487	 0.15141
H	 2.8821204618	-0.294442345	-1.2881215922	 0.120437
H	 2.3580104436	-0.6138762675	 0.3989817063	 0.119661
H	 0.2360154192	-2.6191431357	-0.029827678	 0.10767
H	 0.2571833421	-2.7657822937	-1.818584677	 0.105606
56.7097	96.9148	115.1461	132.5155	191.8919	252.6474	322.1301	348.1926	399.529	407.8326	460.6645	544.1101	708.2485	818.5099	888.6629	894.3943	951.6477	976.1301	994.1243	1027.8346	1081.3451	1098.6117	1150.389	1167.2077	1170.748	1180.5329	1216.1895	1265.818	1291.6575	1302.9128	1332.3862	1383.8651	1459.3116	1481.4313	1498.0657	1500.4118	1506.0633	1526.6237	2364.9656	2993.0397	3010.9021	3035.1376	3048.178	3054.1523	3068.14	3090.5139	3093.8455	3130.0061
COC1(CC#N)COC1	COC1(CC#N)COC1	
InChI=1S/C6H9NO2/c1-8-6(2-3-7)4-9-5-6/h2,4-5H2,1H3	InChI=1S/C6H9NO2/c1-8-6(2-3-7)4-9-5-6/h2,4-5H2,1H3
