19
gdb 65380	3.4913	1.08108	0.93205	1.0317	77.9	-0.2442	-0.0405	0.2037	1281.2975	0.159124	-419.168966	-419.159968	-419.159024	-419.202728	33.098	
C	 0.5311129973	 1.5350661291	-0.287863237	-0.491734
C	 0.0174717386	 0.1623813564	 0.0853412445	 0.220358
N	 0.9791230734	-0.9464631276	 0.2189181489	-0.368061
C	 0.2998186854	-0.4945304301	 1.4225039587	-0.062981
C	 1.146842956	 0.1587133081	 2.4727236379	-0.020262
C	 2.2494810668	-0.6203524316	 3.0943477894	-0.235369
N	 2.5462136048	 0.4951938159	 2.1825208546	-0.316875
C	-1.3038223878	-0.2306909869	-0.4937508218	 0.103567
O	-1.6714494188	-1.378313306	-0.5967187202	-0.274082
H	 1.3874036944	 1.8236762857	 0.3221398709	 0.162487
H	 0.8336782928	 1.5631756307	-1.3399716714	 0.130923
H	-0.2539219316	 2.2857684631	-0.1430061646	 0.123266
H	 0.5285818067	-1.7921648722	-0.1323405123	 0.250089
H	-0.5086589801	-1.1184870612	 1.8008784908	 0.108732
H	 0.6263520568	 0.8940114227	 3.0831110314	 0.098302
H	 2.5113132435	-0.4539020344	 4.1351968274	 0.119833
H	 2.41221797	-1.6326160544	 2.7333594601	 0.118011
H	 2.7675873837	 0.1007298209	 1.2679836527	 0.246981
H	-1.9453519219	 0.6117627617	-0.8296345901	 0.086816
110.8645	120.1383	147.5319	169.5385	185.0921	248.7121	313.8024	326.7719	381.3435	470.5366	627.1873	648.0792	757.5126	768.5093	840.0546	859.059	915.4457	960.042	986.195	1001.0304	1019.6181	1059.9088	1080.8241	1103.0161	1126.9618	1136.9819	1147.037	1199.5519	1232.5235	1269.5819	1294.9825	1320.4143	1342.8883	1398.634	1422.979	1428.1733	1450.1602	1493.4219	1499.4376	1506.6934	1798.4625	2908.0867	3038.1486	3096.7081	3109.7365	3120.4122	3129.5565	3148.9587	3198.0477	3460.8941	3467.1772
CC1(NC1C1CN1)C=O	C[C@]1(N[C@H]1[C@H]1CN1)C=O	
InChI=1S/C6H10N2O/c1-6(3-9)5(8-6)4-2-7-4/h3-5,7-8H,2H2,1H3	InChI=1S/C6H10N2O/c1-6(3-9)5(8-6)4-2-7-4/h3-5,7-8H,2H2,1H3/t4-,5+,6+/m1/s1
