17
gdb 82445	2.79884	1.7267	1.25318	1.7719	67.77	-0.2227	0.0595	0.2821	1002.4144	0.133925	-458.88696	-458.878676	-458.877732	-458.919197	32.242	
C	-0.0985842313	 1.4180200424	-0.0054775633	-0.507394
C	 0.0056319456	-0.0667062468	 0.0140319906	 0.415001
O	-1.1725061104	-0.8709163274	-0.1914112383	-0.324767
C	-0.3725285082	-1.9960504777	 0.2640632974	 0.006577
C	 0.6692178165	-1.0450543724	 0.9415062894	-0.273073
C	 1.1916014069	-0.8789735776	-0.5028151246	 0.307277
O	 2.3318575484	-0.2775908475	-0.968833874	-0.465643
C	 0.6159263315	-2.222935639	-0.9204541557	 0.03308
O	 1.5947549503	-3.2164891232	-0.6840685644	-0.44509
H	 0.8906580249	 1.8599405593	 0.1405112584	 0.141204
H	-0.4840223745	 1.7603543565	-0.9716200599	 0.135708
H	-0.7686386178	 1.7753729859	 0.7819365095	 0.129233
H	-0.9386835627	-2.8076328981	 0.7175611656	 0.084132
H	 1.1164477887	-0.9652407605	 1.9218081508	 0.10307
H	 3.0561211755	-0.905306967	-0.8527081685	 0.298437
H	 0.1626925768	-2.3173265923	-1.9169068225	 0.072972
H	 1.2074875	-4.0745791646	-0.8829611105	 0.289275
161.9816	179.034	195.1388	223.1392	285.251	307.1655	336.3076	413.6331	437.7843	506.3434	552.8318	664.3311	703.6227	768.238	820.6462	829.1093	882.1953	901.8796	930.5474	976.8311	1002.6085	1045.5342	1085.3106	1114.34	1134.4934	1155.7035	1201.4069	1217.707	1258.4785	1282.745	1306.0906	1350.8547	1405.2372	1447.6159	1474.7533	1480.9405	1506.4466	3013.5765	3040.263	3106.327	3126.206	3138.5422	3219.1829	3774.6026	3821.4313
CC12OC3C1C2(O)C3O	C[C@]12O[C@@H]3[C@H]1[C@@]2(O)[C@H]3O	
InChI=1S/C6H8O3/c1-5-3-2(9-5)4(7)6(3,5)8/h2-4,7-8H,1H3	InChI=1S/C6H8O3/c1-5-3-2(9-5)4(7)6(3,5)8/h2-4,7-8H,1H3/t2-,3-,4+,5+,6-/m1/s1
