18
gdb 7905	3.38424	1.67892	1.2083	3.2273	75.67	-0.2341	-0.0372	0.1969	1029.1378	0.153275	-347.858893	-347.850573	-347.849629	-347.891952	30.373	
C	-0.051167367	 1.6122804069	-0.0509902747	-0.39549
C	 0.0217095092	 0.0788520628	 0.0119687756	-0.02367
C	 0.7305426707	-0.5735335287	-1.195909516	-0.348767
C	 1.8477776101	-1.4392559349	-0.5997334494	 0.328904
O	 2.6092009797	-2.1523856782	-1.2133718789	-0.32987
C	 1.8287584362	-1.2452901309	 0.8752808837	 0.202209
C	 2.8212018564	-1.9275742665	 1.7587721353	-0.492362
C	 0.8240876269	-0.4177726703	 1.1939291401	-0.153965
H	 0.9501610957	 2.0456225706	-0.1475061542	 0.121319
H	-0.6470574427	 1.9391611794	-0.9088496424	 0.121065
H	-0.5100385317	 2.0245900785	 0.8539025182	 0.115837
H	-1.0061851862	-0.3002724248	 0.0981356398	 0.089834
H	 0.0699935503	-1.1915209927	-1.8106466522	 0.129174
H	 1.1758915306	 0.1716779645	-1.8636983983	 0.129235
H	 3.8420585873	-1.6386732697	 1.4857920244	 0.142058
H	 2.6598144173	-1.6908301894	 2.8133220175	 0.119084
H	 2.7669924386	-3.0138977038	 1.6286201912	 0.143108
H	 0.5801652187	-0.1043501927	 2.2057549104	 0.102295
61.3852	99.5022	152.8936	242.3994	260.2248	310.7939	334.8337	427.8546	501.1475	596.9401	606.4419	671.7012	760.556	850.9593	890.17	911.7364	952.1801	997.7891	1043.0794	1062.3218	1075.4425	1087.6478	1131.0032	1207.067	1218.1256	1272.0854	1314.7423	1332.9015	1352.9008	1408.2	1413.5325	1453.555	1472.9962	1484.5187	1497.2168	1500.1743	1700.6341	1807.3494	3003.8228	3030.1447	3036.8335	3056.8468	3090.7653	3098.3094	3102.0634	3105.8666	3121.742	3168.5158
CC1CC(=O)C(C)=C1	C[C@H]1CC(=O)C(=C1)C	
InChI=1S/C7H10O/c1-5-3-6(2)7(8)4-5/h3,5H,4H2,1-2H3	InChI=1S/C7H10O/c1-5-3-6(2)7(8)4-5/h3,5H,4H2,1-2H3/t5-/m1/s1
