14
gdb 19320	4.9959	1.69319	1.50919	1.4352	68.32	-0.2249	0.025	0.2499	832.7606	0.105719	-345.287896	-345.281298	-345.280354	-345.318327	26.347	
C	 0.0433493722	-1.1956346988	-0.0257384235	-0.409607
C	 0.032013732	 0.0089197235	-0.0225569435	 0.187021
C	-0.0079152696	 1.4246834583	 0.018401053	 0.156577
C	 0.2380631801	 2.3380106919	-1.1677027281	-0.325865
C	 1.161228319	 2.435407472	 0.0074328473	-0.152871
C	 0.4916087453	 3.173235907	 1.2057028746	 0.025939
O	-0.8289453382	 3.5945290328	 0.8268401297	-0.235559
C	-0.6224392081	 2.2370469782	 1.2203881557	-0.049498
H	 0.0577401189	-2.2569988763	-0.0372406062	 0.186397
H	 0.6498183752	 1.8316084775	-2.0334629554	 0.130481
H	-0.4647628668	 3.1347406945	-1.3748204519	 0.143898
H	 2.2146460741	 2.1959489505	-0.0373500638	 0.112881
H	 0.9878077453	 3.719468403	 1.9974739595	 0.11642
H	-1.2311332392	 1.8277091061	 2.0168573626	 0.113788
150.1001	153.7671	375.5413	411.0114	473.8793	495.0405	536.9696	553.9068	629.4741	654.8321	757.0647	778.3761	807.8416	844.6976	870.7195	923.3468	958.4258	988.2626	998.9069	1027.6244	1065.504	1106.3546	1168.9725	1205.7225	1245.3094	1272.1937	1341.0298	1397.4319	1464.2207	2227.8801	3150.2989	3194.542	3208.5445	3218.1444	3245.1888	3503.9679
C#CC12CC1C1OC21	C#C[C@]12C[C@H]1[C@H]1O[C@@H]21	
InChI=1S/C7H6O/c1-2-7-3-4(7)5-6(7)8-5/h1,4-6H,3H2	InChI=1S/C7H6O/c1-2-7-3-4(7)5-6(7)8-5/h1,4-6H,3H2/t4-,5+,6+,7-/m0/s1
