16
gdb 78858	3.4377	1.59842	1.38086	1.8729	65.92	-0.2263	0.0653	0.2916	932.4378	0.12493	-437.808818	-437.801844	-437.800899	-437.839804	28.5	
O	 0.1709442159	 1.3142161888	-0.2188015796	-0.432926
C	 0.0334808057	-0.0790560137	-0.0208600778	 0.137898
C	 0.5279350953	-0.5639595493	 1.3300168655	-0.101931
C	-0.1793889083	-1.787835985	 1.7660081793	-0.144382
N	-0.5565093316	-0.4691275854	 2.3694385746	-0.157135
C	-1.829393572	-0.4965096498	 1.5433647267	-0.098166
C	-1.398865366	-0.5689133614	 0.0836446174	-0.214442
C	-1.4931918015	-1.8199163781	 0.9408594397	 0.375341
O	-2.3034085422	-2.9051392855	 0.7182587598	-0.461119
H	-0.2861349768	 1.7530226343	 0.5084835003	 0.287449
H	 0.5812003018	-0.5499469976	-0.8439163857	 0.09557
H	 1.5231785094	-0.3135532696	 1.680008004	 0.105333
H	 0.2274964414	-2.5946863369	 2.365156205	 0.104896
H	-2.743352326	-0.062700168	 1.9242115714	 0.109843
H	-2.1331527321	-0.4023384245	-0.6939402862	 0.102806
H	-2.0093891729	-3.3513222383	-0.0842987645	 0.290966
160.2981	252.3524	262.0346	327.8009	347.968	392.6957	519.7903	588.6131	626.3423	716.9719	743.3423	756.1623	805.4431	834.3309	875.2984	921.3358	929.6957	949.1694	979.2055	1000.3268	1034.2578	1048.8662	1067.9749	1088.0238	1141.0579	1176.6904	1207.5353	1239.7127	1266.3653	1274.3266	1291.9344	1310.1845	1359.5825	1431.0082	1480.7093	3066.1647	3174.3841	3187.6172	3207.5351	3216.4026	3784.7153	3793.5278
OC1C2C3N2C2C1C32O	O[C@H]1[C@@H]2[C@H]3N2[C@H]2[C@@H]1[C@@]32O	
InChI=1S/C6H7NO2/c8-3-1-4-6(1,9)5-2(3)7(4)5/h1-5,8-9H	InChI=1S/C6H7NO2/c8-3-1-4-6(1,9)5-2(3)7(4)5/h1-5,8-9H/t1-,2-,3-,4+,5-,6+,7?/m1/s1
