21
gdb 122988	3.75661	0.74292	0.67821	2.4987	76.38	-0.2637	0.0703	0.334	1701.8521	0.179725	-461.328252	-461.31788	-461.316936	-461.365001	36.796	
C	-0.1213903152	 1.6141598174	-0.1706549156	-0.462231
C	-0.1052192279	 0.1111563229	-0.0131252137	 0.404447
C	-1.3840352931	-0.5311104141	 0.4766145562	-0.111191
O	-1.8202524055	 0.1274163266	 1.6473073469	-0.264968
C	-3.0016342486	-0.4229079409	 2.2026585884	-0.063944
C	-3.4173745822	 0.4856376409	 3.3481990454	-0.061939
O	-3.6860307385	 1.7982218788	 2.8968959698	-0.421239
C	 0.8116393807	-0.7148901994	-0.8118095584	-0.230622
O	 1.09502219	-0.4306267443	 0.5582495646	-0.267174
H	 0.840368412	 1.9679626431	-0.5489099678	 0.126629
H	-0.9085529822	 1.9249689914	-0.8660754725	 0.120011
H	-0.3130770109	 2.0917152583	 0.7934964006	 0.139014
H	-2.1588041665	-0.4657469856	-0.307312242	 0.091688
H	-1.1967397248	-1.5964386263	 0.6785154485	 0.097301
H	-3.7991206344	-0.4571079674	 1.4427958048	 0.094726
H	-2.8231285047	-1.4496845278	 2.5615026361	 0.091313
H	-4.3370368354	 0.1051852574	 3.8045372622	 0.10888
H	-2.6284565207	 0.4756262485	 4.1168254714	 0.097556
H	-2.9192451462	 2.0565754722	 2.3727282632	 0.288577
H	 0.5635593619	-1.7528254913	-1.033610616	 0.109924
H	 1.4640281621	-0.2330801604	-1.539098352	 0.113242
32.9566	54.6208	99.8856	137.5144	174.9824	199.7237	276.8532	307.1559	361.7259	371.7871	405.2972	423.6471	493.9212	559.2646	744.8297	838.5436	875.928	900.9098	914.6769	938.4983	975.4073	1049.6487	1073.7488	1084.0583	1114.5617	1134.7259	1140.4771	1154.0798	1173.1596	1236.6053	1254.6752	1271.8846	1303.341	1365.952	1386.68	1399.9416	1412.4993	1437.4948	1452.1488	1479.627	1492.6462	1498.3406	1500.1612	1518.5819	1534.3289	2953.1881	2968.3524	2981.9887	3008.3691	3011.2032	3043.7721	3077.0225	3080.8111	3113.4154	3132.811	3161.4248	3800.467
CC1(COCCO)CO1	C[C@@]1(COCCO)CO1	
InChI=1S/C6H12O3/c1-6(5-9-6)4-8-3-2-7/h7H,2-5H2,1H3	InChI=1S/C6H12O3/c1-6(5-9-6)4-8-3-2-7/h7H,2-5H2,1H3/t6-/m1/s1
