12
gdb 21498	5.24777	1.54117	1.1982	4.2061	56.83	-0.2663	-0.0409	0.2254	905.361	0.085041	-414.682896	-414.676145	-414.675201	-414.714405	24.337	
N	-0.0188942115	 1.3570609655	 0.037335816	-0.542012
C	 0.0310088139	-0.0125063881	 0.1155137623	 0.309066
O	 1.0715335578	-0.6246946826	 0.2642969839	-0.351567
C	-1.2723243602	-0.7127501399	 0.0482902918	 0.064527
C	-2.5595989406	-0.2709810707	 0.1259053749	-0.019116
O	-3.4151175698	-1.2913877882	 0.0432041448	-0.162587
N	-2.6905406068	-2.4827872397	-0.0941643733	-0.127973
C	-1.43583669	-2.1239308431	-0.0826436625	-0.016192
H	 0.8727287583	 1.8217699282	-0.0423862249	 0.265918
H	-0.8060715529	 1.8149781331	-0.3912083361	 0.257089
H	-3.0065555496	 0.7029287509	 0.2577223297	 0.159116
H	-0.6560646886	-2.8660866956	-0.1685593865	 0.16373
60.7859	178.3998	196.2697	364.1708	394.7789	502.3739	529.3412	613.1364	649.0721	667.8458	780.5865	860.7049	868.7014	933.7674	940.9858	1007.1131	1091.2717	1157.1021	1166.24	1251.9185	1342.1177	1417.5821	1494.4519	1620.9353	1632.6514	1785.7157	3256.763	3263.3931	3586.8152	3713.5935
NC(=O)C1=CON=C1	NC(=O)c1conc1	
InChI=1S/C4H4N2O2/c5-4(7)3-1-6-8-2-3/h1-2H,(H2,5,7)	InChI=1S/C4H4N2O2/c5-4(7)3-1-6-8-2-3/h1-2H,(H2,5,7)
