18
gdb 98735	3.21075	0.92915	0.80198	5.0363	75.06	-0.2442	-0.0432	0.201	1462.0758	0.144882	-439.084432	-439.074708	-439.073764	-439.121106	33.738	
C	 0.2480147951	 1.5789425089	 0.0444146749	-0.381433
C	 0.0151550732	 0.0842790197	 0.2412698176	-0.292386
C	-1.06670042	-0.4869262664	-0.6590562072	 0.422254
O	-1.6741712482	 0.1850711061	-1.4603180687	-0.310851
C	-1.3382105499	-1.9629247589	-0.492528307	-0.130449
N	-2.7487161778	-2.3643253038	-0.3933937427	-0.312732
C	-1.9961488574	-2.7832120179	-1.57496377	-0.126342
C	-2.4398086	-2.1992093401	-2.8855579844	 0.173998
O	-2.0664165569	-2.6482947865	-3.9404325203	-0.262196
H	 1.0351148548	 1.9383283974	 0.7126217974	 0.113445
H	 0.5412992834	 1.7942405773	-0.9860331615	 0.13705
H	-0.6649743799	 2.1443075319	 0.2469973303	 0.136589
H	 0.9339929527	-0.4924106744	 0.059294169	 0.128247
H	-0.2598034142	-0.1472990776	 1.280641235	 0.128122
H	-0.6210148985	-2.4991389986	 0.1261873691	 0.099792
H	-2.8492189957	-3.1330167222	 0.264261477	 0.248939
H	-1.6417982584	-3.8091124446	-1.6560419477	 0.111359
H	-3.1483565824	-1.3572922401	-2.8010738909	 0.116594
18.8017	55.645	79.7761	176.1611	186.9958	231.1333	288.5561	313.0049	344.6598	395.9279	503.0571	580.3299	665.0021	782.1397	809.3418	839.6373	890.0471	930.6134	989.3831	1002.3424	1029.6256	1041.1541	1088.4458	1113.1149	1131.5619	1192.0495	1217.4384	1227.4221	1275.4636	1358.5385	1366.1543	1415.3843	1415.6779	1447.3129	1458.8476	1492.6356	1497.6065	1807.0476	1817.2229	2994.2286	3008.523	3034.2165	3053.9378	3124.7384	3126.4414	3130.1653	3138.666	3509.8785
CCC(=O)C1NC1C=O	CCC(=O)[C@H]1N[C@H]1C=O	
InChI=1S/C6H9NO2/c1-2-5(9)6-4(3-8)7-6/h3-4,6-7H,2H2,1H3	InChI=1S/C6H9NO2/c1-2-5(9)6-4(3-8)7-6/h3-4,6-7H,2H2,1H3/t4-,6-/m0/s1
