20
gdb 31535	3.19482	1.05447	0.84434	1.5523	85.58	-0.1637	0.0541	0.2179	1420.9726	0.171278	-399.35349	-399.343142	-399.342198	-399.389627	36.896	
C	-0.7924364506	 0.878949873	-0.0656346048	-0.322372
N	 0.4886278461	 0.1837187994	 0.1143536149	-0.387668
C	 0.9888697128	-0.4721745516	-1.0286768923	 0.290229
C	 1.8543511357	-0.0872872637	-2.0309203245	-0.306594
C	 2.0200478821	-1.2064664705	-2.9035553749	 0.174886
N	 2.8503561646	-1.2899987546	-4.0547224192	-0.615252
C	 1.246518741	-2.2411900443	-2.4193114207	 0.268619
C	 1.0610683957	-3.6266914593	-2.9360049569	-0.514696
N	 0.6132087955	-1.7666332772	-1.2841922343	-0.326386
H	-0.7681482908	 1.6592036484	-0.8423449464	 0.106415
H	-1.5621067135	 0.1537393648	-0.3450569626	 0.124148
H	-1.0897731712	 1.3352731458	 0.8835368091	 0.114866
H	 1.1840732779	 0.828172798	 0.4695512883	 0.230324
H	 2.3068941768	 0.8879949546	-2.1387117102	 0.071216
H	 3.4372111335	-0.4681879879	-4.1329761102	 0.231363
H	 2.3086956888	-1.3533357443	-4.9102642076	 0.23482
H	 1.8633708554	-3.8513640029	-3.644445459	 0.143607
H	 1.10733003	-4.3740457177	-2.1338122042	 0.11543
H	 0.1054902671	-3.773199577	-3.4590717109	 0.116393
H	 0.0622011332	-2.3171478131	-0.6483045138	 0.250652
40.0378	56.8384	120.716	146.9535	175.6222	220.0004	244.3705	279.3241	302.7927	372.5883	472.5533	498.8361	585.5616	637.7813	664.1349	681.1908	748.1483	768.1081	805.3249	829.8554	993.9915	1001.6953	1060.9692	1065.2332	1096.7986	1141.6345	1160.0123	1192.9794	1220.4249	1257.8816	1343.6268	1405.5989	1416.8905	1448.9922	1482.6626	1485.1783	1487.8779	1499.6551	1504.612	1514.8838	1566.413	1639.861	1667.8865	2980.6134	2999.7445	3045.9748	3072.9223	3109.9977	3111.4551	3230.2243	3505.5121	3553.0618	3591.746	3674.6488
CNC1=CC(N)=C(C)N1	CNc1cc(N)c(C)[nH]1	
InChI=1S/C6H11N3/c1-4-5(7)3-6(8-2)9-4/h3,8-9H,7H2,1-2H3	InChI=1S/C6H11N3/c1-4-5(7)3-6(8-2)9-4/h3,8-9H,7H2,1-2H3
