22
gdb 94216	3.0266	1.03485	0.95289	4.1065	86.07	-0.2962	0.0326	0.3288	1350.1446	0.193349	-367.232341	-367.222544	-367.2216	-367.266864	36.902	
C	-0.1191733343	 1.5582983331	-0.1390372288	-0.418268
C	 0.0471431803	 0.0538924933	 0.017301351	 0.007871
C	 1.0471475559	-0.705997325	-0.8953897782	-0.240805
C	 1.4080895214	-1.6169666941	 0.3066899454	-0.253165
C	 0.7868181825	-0.5544873644	 1.2651766534	 0.320806
C	 1.8475880627	 0.3644436233	 1.8739150866	-0.4564
C	-0.1614180473	-1.09439063	 2.3547324493	-0.411356
C	 0.522913675	-1.8980346179	 3.3673389775	 0.269733
N	 1.0838768024	-2.533772399	 4.1531167274	-0.318093
H	 0.8403135961	 2.081613311	-0.0835088645	 0.118649
H	-0.5664558624	 1.7929533198	-1.1112586106	 0.11959
H	-0.7751032648	 1.9777063411	 0.6324069245	 0.113905
H	-0.9373179245	-0.4241984313	-0.0625766222	 0.067866
H	 0.6427695216	-1.1860281047	-1.7892595741	 0.100053
H	 1.8850324626	-0.0704284017	-1.1977464957	 0.103936
H	 0.8362474682	-2.5495985324	 0.3019010807	 0.102453
H	 2.4615362464	-1.8602807481	 0.4629778505	 0.107712
H	 2.539405639	 0.7353843787	 1.1121399773	 0.119945
H	 1.3946935276	 1.2330436973	 2.3646660286	 0.115527
H	 2.4377196068	-0.1749839839	 2.6216256079	 0.141213
H	-0.6714298467	-0.2639854047	 2.859410622	 0.145875
H	-0.9410460986	-1.7146471605	 1.897837032	 0.142952
59.2931	119.014	131.5541	206.6559	240.0335	251.7737	281.227	337.692	349.1905	393.8339	405.4773	455.8241	523.8256	630.2905	726.549	787.0649	869.8846	893.3379	911.1267	916.7559	941.4632	957.3164	969.8074	994.1516	1067.7685	1105.3294	1147.8464	1165.8634	1178.2644	1211.8003	1241.0516	1261.1629	1267.3482	1298.7736	1313.8023	1333.4148	1377.6844	1410.831	1416.5276	1459.5163	1483.0021	1490.5307	1491.7836	1503.0671	1505.5697	1507.0272	2356.8337	3019.2063	3028.4257	3030.209	3034.735	3055.6916	3058.2326	3071.111	3089.4561	3100.1783	3102.1868	3104.6388	3110.6532	3117.7308
CC1CCC1(C)CC#N	C[C@H]1CC[C@]1(C)CC#N	
InChI=1S/C8H13N/c1-7-3-4-8(7,2)5-6-9/h7H,3-5H2,1-2H3	InChI=1S/C8H13N/c1-7-3-4-8(7,2)5-6-9/h7H,3-5H2,1-2H3/t7-,8+/m0/s1
