19
gdb 58141	1.81739	1.66663	1.11603	3.8297	76.74	-0.2414	-0.055	0.1864	1172.2018	0.155306	-419.206572	-419.195961	-419.195017	-419.242127	37.307	
C	-0.0900582035	 1.4907995065	 0.0864303944	-0.343843
N	-0.0180918624	 0.0330378197	 0.0776401951	-0.093249
C	 0.813946793	-0.4696914242	 1.1653942889	-0.3434
C	-1.3267010414	-0.6182186858	-0.0701153153	 0.027009
C	-2.3904019104	-0.3109821917	 1.0022192744	-0.427146
C	-1.841447154	-0.2293311595	-1.4891056098	 0.150496
O	-2.9412486598	 0.1873969002	-1.7139896518	-0.229775
C	-1.123547366	-2.077414708	-0.1594272486	 0.280107
N	-1.0027799592	-3.2229143701	-0.2551485257	-0.337204
H	 0.917856368	 1.8917537677	-0.0554572442	 0.13365
H	-0.7118653134	 1.8542087877	-0.7368672702	 0.138137
H	-0.4893881769	 1.909670227	 1.0254151332	 0.111669
H	 0.4319300143	-0.2112280553	 2.1680460775	 0.105671
H	 0.910284293	-1.5553947332	 1.0989920809	 0.153897
H	 1.8132862932	-0.0350445408	 1.0679711097	 0.130033
H	-2.6238030138	 0.7553363153	 1.0018371331	 0.139055
H	-3.3124691852	-0.853754372	 0.7864713692	 0.153094
H	-2.0338983733	-0.6029259386	 1.9923111849	 0.134517
H	-1.0680142222	-0.3673764849	-2.2718221556	 0.117283
62.3139	82.4278	154.1017	164.9165	182.0304	215.1784	248.6828	250.58	268.2318	296.4206	389.5617	425.5884	432.7396	503.7946	563.1408	590.6229	731.778	837.8742	908.8863	989.5547	1010.3973	1072.5945	1118.1823	1119.0815	1146.1525	1167.7087	1201.3977	1264.4659	1301.71	1383.9745	1404.308	1447.2938	1474.0005	1476.4798	1481.1388	1482.2292	1498.1663	1505.9003	1521.0198	1845.375	2351.0247	2935.6602	2957.9795	2967.429	3062.7356	3070.5542	3076.0423	3112.6123	3128.6353	3143.5306	3145.1684
CN(C)C(C)(C=O)C#N	CN(C)[C@@](C)(C=O)C#N	
InChI=1S/C6H10N2O/c1-6(4-7,5-9)8(2)3/h5H,1-3H3	InChI=1S/C6H10N2O/c1-6(4-7,5-9)8(2)3/h5H,1-3H3/t6-/m1/s1
