21
gdb 89993	3.26737	1.1921	1.04997	1.1282	78.21	-0.2467	0.0566	0.3033	1218.9393	0.182357	-424.199337	-424.190347	-424.189402	-424.233079	34.698	
O	 0.3767767627	 0.4237541956	-1.1510201712	-0.446408
C	-0.0700987679	-0.408030847	-0.1144870645	 0.153949
C	 0.2871848159	-0.0575841873	 1.3570354341	-0.37113
C	-1.1710335346	-0.3846314543	 1.7580509946	 0.376462
C	-1.5375295613	-1.7192499073	 2.4644710133	-0.284093
C	-2.694982134	-0.9772361689	 3.1849079815	-0.206634
C	-2.0090796133	 0.3676176042	 2.817568782	-0.285792
C	-1.5820150241	-0.291952472	 0.2650873424	-0.008278
O	-2.0723223659	 1.0108670158	-0.0312901568	-0.438121
H	-0.0114498414	 1.2900679982	-0.9721032448	 0.274283
H	 0.212857198	-1.4301105498	-0.3799552932	 0.089111
H	 1.0850637916	-0.6298503103	 1.838089043	 0.095993
H	 0.5070614433	 1.0100533646	 1.4617652461	 0.100562
H	-1.7904611041	-2.5760235107	 1.8320553729	 0.092973
H	-0.7521851046	-2.0253689205	 3.1627645427	 0.099012
H	-3.6484780397	-1.1024211678	 2.6645009383	 0.103425
H	-2.8487215955	-1.1959286573	 4.243955844	 0.095457
H	-1.3787799939	 0.7434174613	 3.6298891309	 0.096827
H	-2.6361585061	 1.181503019	 2.4496622344	 0.113805
H	-2.2681594192	-1.0613052669	-0.1122786458	 0.0579
H	-2.3275142561	 1.0175777215	-0.9598305438	 0.290699
66.4435	102.7801	167.6512	209.9177	253.4085	278.5294	316.573	388.1236	463.056	493.7836	545.5708	632.4375	686.6291	736.4913	785.5715	837.5519	857.0223	893.1078	921.1746	936.4825	940.5492	970.7921	1041.0605	1057.0603	1104.9809	1108.2788	1139.5724	1184.2279	1188.9847	1200.3181	1217.3498	1238.1278	1255.2227	1263.1544	1264.6153	1277.3887	1295.2874	1316.2937	1325.9814	1413.4284	1437.2351	1474.1036	1474.6314	1483.0367	1504.1648	3010.9122	3041.2957	3046.1648	3054.4361	3060.4391	3076.6957	3088.1784	3104.0638	3110.1138	3124.0487	3765.7223	3815.0733
OC1CC2(CCC2)C1O	O[C@H]1CC2(CCC2)[C@H]1O	
InChI=1S/C7H12O2/c8-5-4-7(6(5)9)2-1-3-7/h5-6,8-9H,1-4H2	InChI=1S/C7H12O2/c8-5-4-7(6(5)9)2-1-3-7/h5-6,8-9H,1-4H2/t5-,6-/m0/s1
