15
gdb 57741	2.97121	1.0442	0.91316	5.1498	73.05	-0.2377	-0.085	0.1527	1273.6028	0.112452	-450.150224	-450.140962	-450.140018	-450.184869	33.088	
N	 0.0663539762	 0.875439703	-0.7875063542	-0.54927
C	-0.3044944601	-0.262853332	-0.1012407675	 0.42401
N	 0.6589124981	-1.2575392399	-0.0796180385	-0.542574
N	-1.4191931069	-0.4804231808	 0.5144436948	-0.31408
C	-2.4457940348	 0.5510717847	 0.4600480405	-0.270762
C	-3.0485198021	 0.5153689501	-0.9310769813	 0.280735
O	-2.7135098979	 1.2501944006	-1.8362339496	-0.291607
C	-4.0165928444	-0.567923649	-1.1812636943	 0.257369
N	-4.8126799103	-1.3871998579	-1.3614492181	-0.30229
H	 0.8169438558	 0.7550509223	-1.4514837438	 0.256982
H	-0.6904137219	 1.4337839	-1.1603916818	 0.280203
H	 1.6170155477	-0.9398807752	-0.0397848536	 0.253233
H	 0.448833949	-1.9693575637	 0.6056417544	 0.265362
H	-3.206786481	 0.3200605327	 1.211119541	 0.131465
H	-2.0748179275	 1.5706984553	 0.639369392	 0.121226
44.8112	101.1318	129.4287	177.7022	248.2723	271.666	316.4307	359.3827	437.4508	446.7743	493.4101	582.0471	610.9823	621.3109	660.8584	701.3377	761.1906	804.0246	892.4974	1006.0937	1041.7932	1103.3253	1155.675	1214.4664	1276.3541	1340.5307	1449.192	1492.1802	1629.0001	1666.6402	1711.1641	1759.7869	2336.3522	3000.4223	3081.9729	3547.7218	3563.4835	3653.1389	3670.828
NC(N)=NCC(=O)C#N	NC(=NCC(=O)C#N)N	
InChI=1S/C4H6N4O/c5-1-3(9)2-8-4(6)7/h2H2,(H4,6,7,8)	InChI=1S/C4H6N4O/c5-1-3(9)2-8-4(6)7/h2H2,(H4,6,7,8)
