21
gdb 91538	2.98979	1.31972	1.09022	1.7138	82.56	-0.2381	0.0843	0.3224	1203.4162	0.182099	-387.047499	-387.038847	-387.037903	-387.080827	33.58	
C	-0.3021710516	 1.4385581017	-0.301771387	-0.407677
C	 0.0120265176	-0.047004136	-0.2037323098	-0.044605
C	 1.357279706	-0.5767728286	-0.829288419	-0.26653
C	 1.7518172312	-1.0806132257	 0.5614536829	-0.050468
O	 1.7521778817	 0.0639043225	 1.4342099811	-0.294475
C	 0.4991748384	-0.5845324462	 1.1654658123	 0.434297
C	-0.3203823183	-1.028002004	 2.3163683005	-0.137029
C	 0.3287263238	-1.3198330279	 3.6455531857	-0.266837
C	-0.5349085651	-0.0960830454	 3.4909092017	-0.262754
H	 0.5241958777	 2.0277220122	 0.105929377	 0.130636
H	-0.45678302	 1.7412506312	-1.3429718832	 0.111566
H	-1.2104376561	 1.6900178508	 0.2567100489	 0.1147
H	-0.8291744488	-0.6483782786	-0.5653134435	 0.071971
H	 1.2034179651	-1.3751455432	-1.5591919165	 0.102278
H	 2.0263586486	 0.1790302385	-1.2494698473	 0.107053
H	 2.3939828925	-1.9076726274	 0.843096269	 0.099712
H	-1.1657529813	-1.6499522844	 2.0354065705	 0.084126
H	-0.0520556488	-2.1544187165	 4.2232297917	 0.108054
H	 1.3989237646	-1.1643011708	 3.7104621785	 0.12858
H	-0.0339659422	 0.864676041	 3.4585486774	 0.127107
H	-1.512106295	-0.0843296833	 3.9604468392	 0.110294
70.9896	123.7945	184.6769	194.6956	236.4565	284.2698	341.4554	423.4179	485.1134	579.0381	650.1494	703.4063	790.0458	804.4341	826.1626	855.8516	887.7015	894.4068	911.0355	952.1061	956.8497	1019.2327	1040.4282	1065.1358	1087.5646	1097.4277	1110.0487	1127.6488	1129.8761	1139.5158	1191.044	1203.7215	1218.3014	1225.9441	1251.4532	1274.6009	1356.7243	1380.8925	1404.6137	1459.7656	1465.8377	1485.9686	1494.4781	1502.4129	1507.2917	3031.5337	3047.7297	3061.6501	3093.8991	3114.5141	3118.9201	3138.4021	3141.0688	3147.0282	3181.5454	3222.5391	3237.4952
CC1CC2OC12C1CC1	C[C@H]1C[C@H]2O[C@@]12C1CC1	
InChI=1S/C8H12O/c1-5-4-7-8(5,9-7)6-2-3-6/h5-7H,2-4H2,1H3	InChI=1S/C8H12O/c1-5-4-7-8(5,9-7)6-2-3-6/h5-7H,2-4H2,1H3/t5-,7+,8+/m0/s1
