21
gdb 84378	1.867	1.8439	1.3032	1.756	83.07	-0.245	0.0209	0.2659	1115.0308	0.182008	-387.08743	-387.078546	-387.077601	-387.120772	34.391	
C	-0.3536388675	 1.5264585761	-0.0788840194	-0.397429
C	-0.0490723619	 0.0203398671	 0.0048026571	-0.101113
C	 0.8075970428	-0.4624710048	-1.1434459906	-0.082167
C	 2.0079660189	-0.8853461666	-0.7506664825	-0.082167
C	 2.2088742602	-0.7751084436	 0.7436387291	-0.101112
C	 3.3054711974	 0.2373934138	 1.1184344414	-0.397429
C	 0.7926739017	-0.4055836648	 1.2216504667	 0.395804
C	 0.4703336955	-0.0366259383	 2.6039817903	-0.245084
O	 0.1702957232	-1.3444825804	 2.112856118	-0.277132
H	 0.5671628015	 2.1182378946	-0.060452925	 0.119148
H	-0.8800738025	 1.7607470455	-1.0101016825	 0.115398
H	-0.987208598	 1.8530004992	 0.7516032826	 0.11544
H	-1.0011935542	-0.5235266493	 0.0496133315	 0.09415
H	 0.4597796004	-0.4301828885	-2.170697215	 0.092386
H	 2.7896776498	-1.2509768814	-1.4083181679	 0.092386
H	 2.468372301	-1.7458164376	 1.1849102651	 0.09415
H	 3.0593406706	 1.2402723131	 0.7550175201	 0.119148
H	 3.4465340658	 0.2910442664	 2.2023958335	 0.11544
H	 4.2632764991	-0.0512075691	 0.6728901299	 0.115398
H	 1.2597794614	 0.0132125405	 3.3535846866	 0.107392
H	-0.392574735	 0.595316268	 2.812910101	 0.107392
59.6783	187.3995	197.3118	220.5393	242.3837	256.5619	316.8928	348.5186	406.3405	529.1603	547.0683	561.9107	705.7365	761.1993	776.5516	841.947	850.5824	898.8326	937.6279	974.2782	980.3313	998.9387	1049.569	1080.8648	1089.7536	1096.4755	1126.0606	1131.0685	1141.312	1170.3548	1230.894	1276.56	1284.5438	1321.4177	1334.4131	1373.7329	1401.8078	1409.2015	1424.2726	1493.0901	1497.0997	1497.1646	1500.5953	1533.9019	1685.7728	3026.3068	3027.4449	3032.3053	3033.3734	3075.2486	3100.1851	3101.4148	3106.6125	3109.4227	3155.822	3174.6804	3199.8279
CC1C=CC(C)C11CO1	C[C@H]1C=C[C@@H](C)[C@]21CO2	
InChI=1S/C8H12O/c1-6-3-4-7(2)8(6)5-9-8/h3-4,6-7H,5H2,1-2H3	InChI=1S/C8H12O/c1-6-3-4-7(2)8(6)5-9-8/h3-4,6-7H,5H2,1-2H3/t6-,7+,8+
