18
gdb 94262	1.94419	1.72496	1.1627	2.0916	73.32	-0.2384	-0.055	0.1834	1111.3768	0.145385	-439.079833	-439.070523	-439.069579	-439.114288	33.159	
C	-0.3659533503	 1.426922076	 0.1410871353	-0.416537
C	 0.0186721514	-0.0425482032	 0.0566890154	-0.041091
C	 1.1172495705	-0.4237380167	-0.9730811116	-0.164989
N	 2.0985940115	-0.6538925151	 0.1202394583	-0.360797
C	 1.0467504659	-0.5836689963	 1.1388179166	 0.134431
C	 1.3468785379	 0.3425752822	 2.3028711248	 0.096793
O	 0.5307418612	 0.642635118	 3.1381269299	-0.261172
C	 0.5809058723	-1.927082742	 1.6781245559	 0.107621
O	 1.0182785239	-2.9772394425	 1.2828754472	-0.254606
H	 0.5186428493	 2.0722968004	 0.1524376624	 0.128592
H	-0.9717340461	 1.7023288146	-0.7285314171	 0.121962
H	-0.9475920602	 1.6348587007	 1.0433353208	 0.14495
H	-0.881313591	-0.6596633012	-0.0091515885	 0.092873
H	 0.8725837731	-1.3183575045	-1.5553972019	 0.113429
H	 1.4134351611	 0.3762065655	-1.6601728119	 0.109321
H	 2.5302593749	-1.5740396458	 0.08902811	 0.234104
H	 2.390614089	 0.7247270595	 2.3118038912	 0.102018
H	-0.2027408643	-1.8620289497	 2.4601811332	 0.113097
66.9482	100.6923	110.8757	184.687	227.5823	261.9411	270.491	300.655	356.011	403.4188	470.5654	658.1465	694.1028	795.938	802.1861	856.4138	916.6741	948.9064	978.6167	1019.0465	1039.0989	1084.8848	1108.6756	1131.7365	1175.1269	1204.0969	1215.7944	1256.2195	1318.9481	1363.9659	1380.0669	1390.874	1408.1625	1413.5008	1493.9669	1496.5054	1515.2318	1794.869	1825.0621	2904.5354	2933.8585	3030.8533	3035.9538	3063.0993	3079.561	3104.7488	3119.3553	3504.0224
CC1CNC1(C=O)C=O	C[C@H]1CNC1(C=O)C=O	
InChI=1S/C6H9NO2/c1-5-2-7-6(5,3-8)4-9/h3-5,7H,2H2,1H3	InChI=1S/C6H9NO2/c1-5-2-7-6(5,3-8)4-9/h3-5,7H,2H2,1H3/t5-/m0/s1
