14
gdb 21054	3.92024	1.86028	1.27432	4.1262	59.85	-0.209	0.0335	0.2425	899.454	0.109119	-412.071645	-412.064014	-412.06307	-412.103444	27.647	
C	-0.0491019503	 1.4247114339	-0.0284078873	-0.333383
N	 0.0194163213	-0.0150739828	 0.0066921938	-0.000125
N	 0.1127969631	-0.7461639614	-1.1642541722	-0.341699
C	 0.1202153921	-1.9746009536	-0.6951127069	 0.427221
O	 0.1889841422	-3.0346356453	-1.5138294182	-0.412583
N	 0.0624301112	-2.1149221394	 0.6584162324	-0.423267
C	 0.0048902071	-0.8521391925	 1.0606979957	 0.407011
N	-0.1336568015	-0.4326596769	 2.3725277091	-0.601359
H	 0.9450613745	 1.8801360272	-0.1065969477	 0.138193
H	-0.6395754825	 1.7240118521	-0.8959574147	 0.163785
H	-0.5424277011	 1.7814330721	 0.8792301439	 0.142802
H	 0.1830398147	-3.815139894	-0.9475220848	 0.307189
H	-0.0306292507	-1.2110397906	 3.0095644182	 0.268298
H	 0.46873946	 0.3348100211	 2.6381598188	 0.257918
108.793	147.5536	234.0588	261.6844	287.4917	330.7752	377.2247	400.9595	558.8481	643.9671	656.7437	679.6529	748.8267	778.2025	857.1027	1030.7731	1074.9073	1124.0656	1152.8102	1218.8681	1263.3935	1327.3052	1439.2778	1454.9754	1485.9678	1504.3535	1538.0225	1590.1683	1654.4121	1662.3446	3031.431	3105.1343	3144.5574	3553.8984	3650.0603	3819.0832
CN1N=C(O)N=C1N	Cn1nc(O)nc1N	
InChI=1S/C3H6N4O/c1-7-2(4)5-3(8)6-7/h1H3,(H3,4,5,6,8)	InChI=1S/C3H6N4O/c1-7-2(4)5-3(8)6-7/h1H3,(H3,4,5,6,8)
