14
gdb 130997	7.5262	0.74651	0.68203	1.8432	64.37	-0.2474	-0.0373	0.2101	1511.3971	0.100877	-469.997999	-469.989841	-469.988897	-470.032462	27.681	
O	-0.163805098	 0.1942315998	 0.55143959	-0.233391
C	 0.0768882047	 1.1130054928	-0.1839418384	 0.139122
C	 1.3842635333	 1.8815936079	-0.1455176594	-0.159164
O	 1.3134101518	 2.8873742658	-1.1488419544	-0.273766
C	 2.3888692576	 3.6792127112	-1.2694482602	 0.398502
N	 3.4831235805	 3.5737102114	-0.521400289	-0.299902
N	 4.2526592661	 4.5544922318	-1.0028973587	-0.082135
N	 3.7478951531	 5.2739652344	-1.9896347565	-0.182579
C	 2.5454161424	 4.7363114421	-2.1873029137	-0.143491
H	-0.6404017431	 1.4742486159	-0.9529515225	 0.101533
H	 1.5307223339	 2.3231232285	 0.8485787378	 0.152541
H	 2.2254659156	 1.2001539695	-0.3261737757	 0.152546
H	 5.1700211141	 4.7323640006	-0.6297057377	 0.296027
H	 1.870079428	 5.1058304583	-2.9401195614	 0.134157
48.172	59.5607	113.9862	119.442	305.2003	349.6335	390.7825	437.401	575.8243	705.5341	726.1864	738.7854	776.0787	853.9359	984.9553	1018.9352	1057.734	1085.7484	1108.7297	1168.5582	1207.6056	1233.3154	1259.8509	1340.7001	1383.0687	1407.1986	1428.7569	1470.2008	1518.4139	1595.1238	1848.1338	2903.7145	3025.6125	3065.2807	3286.6127	3681.0877
O=CCOC1=NNN=C1	O=CCOc1n[nH]nc1	
InChI=1S/C4H5N3O2/c8-1-2-9-4-3-5-7-6-4/h1,3H,2H2,(H,5,6,7)	InChI=1S/C4H5N3O2/c8-1-2-9-4-3-5-7-6-4/h1,3H,2H2,(H,5,6,7)
