19
gdb 61659	4.10567	0.80593	0.7079	2.9607	76.51	-0.2476	0.0213	0.2688	1554.5065	0.158718	-419.181203	-419.171724	-419.170779	-419.216654	33.603	
C	-0.0800390057	 1.5495397044	 0.0146477995	-0.391301
C	 0.0449821131	 0.0099704317	 0.0006520905	-0.10611
N	-1.2034371646	-0.744205735	 0.0835662831	-0.293818
C	-1.9318259561	-0.6452749283	 1.3230128928	 0.012259
C	-2.9562939577	 0.4919873565	 1.6194985052	-0.093123
O	-3.9625760659	-0.4734470414	 1.97315872	-0.268103
C	-3.1634651538	-1.5629409554	 1.4707059194	-0.100394
C	 0.772854196	-0.4193570868	-1.2068613806	 0.27329
N	 1.3380386597	-0.7257259185	-2.1665320926	-0.314418
H	 0.9047749711	 2.0201804247	-0.0547099515	 0.141406
H	-0.6852994291	 1.8944416774	-0.8286160681	 0.134285
H	-0.5528347728	 1.8763302208	 0.9443878027	 0.132276
H	 0.6551295315	-0.2944091418	 0.861555151	 0.135968
H	-1.7966514929	-0.5472063855	-0.7164171282	 0.228638
H	-1.2230314282	-0.7745069897	 2.1464810266	 0.097552
H	-2.7374563117	 1.1820461445	 2.4429827997	 0.105158
H	-3.2347718715	 1.0726144237	 0.726867722	 0.090629
H	-3.5356020754	-1.9422904814	 0.5078108385	 0.101173
H	-3.0953334658	-2.39430519	 2.1798539501	 0.114631
44.9374	77.0749	94.7386	153.5752	196.4479	235.184	290.8593	329.4959	385.8633	437.04	561.1912	562.6055	694.7074	760.0778	837.8738	870.6194	889.556	928.3961	1005.6732	1018.2228	1034.5821	1060.8569	1073.89	1122.0512	1151.1579	1164.0175	1184.0795	1218.4836	1257.9986	1298.5622	1311.1143	1328.1743	1361.5136	1403.9046	1410.1248	1488.4112	1489.0101	1504.5033	1512.9364	1533.3553	2363.4677	2983.9938	3002.2117	3028.0717	3044.6735	3049.2059	3064.3487	3079.0739	3123.226	3127.4996	3520.6358
CC(NC1COC1)C#N	C[C@@H](NC1COC1)C#N	
InChI=1S/C6H10N2O/c1-5(2-7)8-6-3-9-4-6/h5-6,8H,3-4H2,1H3	InChI=1S/C6H10N2O/c1-5(2-7)8-6-3-9-4-6/h5-6,8H,3-4H2,1H3/t5-/m1/s1
