15
gdb 123559	3.91269	1.58888	1.2386	4.3741	70.98	-0.2398	-0.0372	0.2026	959.1416	0.114245	-416.774644	-416.768042	-416.767098	-416.805505	25.983	
C	-0.0320736174	 1.4660364516	 0.0799589457	-0.280916
C	 1.2952545806	 0.7532258986	 0.0333086009	-0.031787
C	 2.0450586687	 0.445595729	 1.3507494213	-0.368995
C	 1.071813801	-0.4718508733	 2.0294789538	 0.36826
C	-0.021406546	-0.7532496362	 1.265755573	 0.244135
N	-0.825393346	-1.5667681553	 2.0092940988	-0.188398
N	-0.3392317798	-1.8143889118	 3.1262615575	-0.04469
O	 1.0053099502	-1.0446753541	 3.1980582162	-0.257682
C	-0.0177590239	-0.0451149469	-0.0321397608	-0.175682
H	-0.3698935889	 1.8999415653	 1.0158603156	 0.123304
H	-0.3112903839	 2.0313619311	-0.8030831828	 0.12193
H	 1.8952396781	 0.8719780858	-0.8604008009	 0.101626
H	 3.0046265219	-0.0506763002	 1.1660721471	 0.138254
H	 2.2549260448	 1.3446735913	 1.9398808043	 0.141465
H	-0.3483706096	-0.528170595	-0.9429890297	 0.109175
158.9567	218.5742	231.3466	337.477	426.9425	455.7003	584.7013	650.666	697.2868	719.6963	766.4197	791.6585	813.2442	873.3631	963.9197	972.2651	984.3898	1042.3978	1075.7499	1087.5075	1098.9432	1172.6444	1179.7621	1200.8878	1261.4949	1282.5684	1358.8772	1400.4101	1465.9157	1472.7833	1482.7009	1488.7872	1585.5769	3043.4982	3079.8886	3126.4004	3185.8529	3192.8488	3215.5647
C1C2CC3=C(N=NO3)C12	C1[C@H]2Cc3c(nno3)[C@@H]12	
InChI=1S/C6H6N2O/c1-3-2-5-6(4(1)3)7-8-9-5/h3-4H,1-2H2	InChI=1S/C6H6N2O/c1-3-2-5-6(4(1)3)7-8-9-5/h3-4H,1-2H2/t3-,4-/m0/s1
