19
gdb 74884	2.81237	1.55267	1.18275	1.6684	82.71	-0.2252	0.0015	0.2268	1095.4925	0.160352	-385.882395	-385.874567	-385.873623	-385.914331	31.26	
C	 0.0873199369	 1.5166512221	 0.1579008886	-0.471392
C	-0.0548714639	 0.0290580447	-0.0091312391	 0.269589
C	-1.2355146027	-0.5825155153	 0.160510779	-0.113287
C	-1.5062679104	-2.0313452736	 0.0500437399	-0.003171
O	-0.7443237379	-2.8256987225	-0.8647197606	-0.251329
C	-0.5461386037	-3.0812919242	 0.5294037884	-0.009498
C	 0.7513698451	-2.730800009	 1.143126754	-0.021122
C	 1.5385317924	-1.717049296	 0.7704232267	-0.097758
C	 1.2203747496	-0.7383582187	-0.3425792989	-0.359774
H	 0.8156021596	 1.7547691377	 0.9439529164	 0.126962
H	 0.4649671465	 1.9795632474	-0.7632908114	 0.127122
H	-0.8623321862	 1.9928986185	 0.4158410418	 0.119693
H	-2.099345606	 0.0185666806	 0.4348450252	 0.076981
H	-2.5620260938	-2.3021213597	 0.0743617979	 0.092309
H	-0.9825956954	-4.0233910148	 0.8609901051	 0.092175
H	 1.0457277649	-3.3493066022	 1.9869163701	 0.085866
H	 2.4552959823	-1.5464773263	 1.3287566722	 0.094879
H	 1.1030211543	-1.2660324172	-1.2918018146	 0.148265
H	 2.0487264584	-0.0344367214	-0.4603621408	 0.093489
117.6849	193.4567	228.2704	283.5294	329.5102	337.4731	381.3597	419.6883	553.9645	589.2031	674.009	703.3549	745.0768	820.0703	822.1506	859.3896	879.6269	910.2394	954.0502	982.1376	987.0881	1021.0303	1059.9838	1065.8065	1106.1677	1150.6394	1165.7781	1229.8469	1255.831	1285.0655	1337.2362	1364.5053	1393.3385	1410.9047	1424.3396	1435.1799	1474.507	1480.1004	1490.6302	1706.5724	1718.7659	3013.1733	3059.601	3061.755	3100.462	3104.8963	3111.1815	3112.1939	3150.3836	3152.0174	3172.9553
CC1=CC2OC2C=CC1	CC1=C[C@H]2O[C@H]2C=CC1	
InChI=1S/C8H10O/c1-6-3-2-4-7-8(5-6)9-7/h2,4-5,7-8H,3H2,1H3	InChI=1S/C8H10O/c1-6-3-2-4-7-8(5-6)9-7/h2,4-5,7-8H,3H2,1H3/t7-,8+/m0/s1
