18
gdb 56558	2.77334	1.0707	0.92088	3.7714	72.99	-0.2606	-0.0313	0.2293	1310.9568	0.144043	-439.115537	-439.105047	-439.104103	-439.151978	36.467	
C	 0.0113711678	 1.6178148896	 0.080520605	-0.416848
C	-0.0200585512	 0.0846998518	-0.0241479096	-0.111787
C	 0.7343136381	-0.6069254425	 1.1339401287	 0.003684
O	 0.7093744593	-2.0199476365	 1.0133609063	-0.421778
C	 2.1196794274	-0.11621272	 1.251193289	 0.254122
N	 3.2166542233	 0.2443594516	 1.3025622893	-0.322295
C	-1.4808291524	-0.4023151025	 0.0411909202	 0.419667
C	-2.0332405148	-1.095032801	-1.181930022	-0.490715
O	-2.1307285195	-0.2176978509	 1.0430146524	-0.315769
H	 1.0383289004	 1.9914615465	 0.067654083	 0.148039
H	-0.5247641787	 2.0721298932	-0.7578679695	 0.127067
H	-0.4739083436	 1.9419401156	 1.0052144404	 0.148685
H	 0.4403621453	-0.2322562776	-0.9675489134	 0.082205
H	 0.1981622195	-0.3786530271	 2.0610484446	 0.162457
H	 1.3113978519	-2.2753902764	 0.3047960149	 0.29563
H	-1.8845916131	-0.4807354156	-2.0772536227	 0.140962
H	-1.4778828305	-2.027534524	-1.3392023353	 0.14824
H	-3.0925678692	-1.3162255042	-1.0483523813	 0.148432
27.5929	66.8692	128.1285	172.997	184.6492	225.0322	226.7399	264.6673	278.1375	329.8589	374.9419	436.0344	540.0215	592.0185	594.0375	615.714	793.7013	854.7369	953.099	968.4069	1012.8646	1037.5412	1079.8645	1113.1796	1133.8686	1173.1915	1261.2944	1283.0512	1334.7771	1362.7563	1380.6758	1407.1575	1424.0934	1461.4754	1473.3874	1496.7716	1501.0241	1815.5905	2352.6017	3032.386	3039.5412	3046.467	3076.862	3094.0189	3117.5876	3131.1331	3155.1325	3801.7842
CC(C(O)C#N)C(C)=O	C[C@@H]([C@@H](O)C#N)C(=O)C	
InChI=1S/C6H9NO2/c1-4(5(2)8)6(9)3-7/h4,6,9H,1-2H3	InChI=1S/C6H9NO2/c1-4(5(2)8)6(9)3-7/h4,6,9H,1-2H3/t4-,6+/m1/s1
