20
gdb 94743	3.63215	1.17767	1.0365	1.7477	86.17	-0.2323	0.0409	0.2732	1224.418	0.170874	-365.97073	-365.962135	-365.961191	-366.003455	34.034	
C	-0.1046089156	 1.5300694079	 0.0138967767	-0.397837
C	 0.0568699597	 0.014627841	 0.0205002329	 0.073982
C	 0.7563709934	-0.5739709974	-1.2291415427	-0.257078
C	 1.3976108921	-1.8761110138	-0.7159987269	-0.286574
C	 1.6384873355	-1.6079480368	 0.7730167978	 0.157289
C	 2.2588155491	-0.2906198204	 1.116237593	-0.288975
N	 0.8061609193	-0.4539517141	 1.2110897699	-0.130032
C	 1.7705874144	-2.738336022	 1.649818812	 0.190759
C	 1.9009486069	-3.709583529	 2.3468043831	-0.367399
H	 0.8669019882	 2.030233239	-0.0635640854	 0.11403
H	-0.7142738177	 1.847150741	-0.8380673391	 0.115996
H	-0.5913487164	 1.8718350898	 0.9313840662	 0.12892
H	-0.9353761986	-0.4442882242	 0.1143688047	 0.085555
H	 0.0522840794	-0.7482378798	-2.0465313398	 0.105849
H	 1.5155635684	 0.1175479145	-1.6092716072	 0.103892
H	 0.7075190153	-2.7204050129	-0.8105501009	 0.117247
H	 2.3165887084	-2.1442002105	-1.2447243772	 0.111685
H	 2.7608010004	-0.1797322326	 2.0720839578	 0.124775
H	 2.6884218242	 0.2965000487	 0.3080833854	 0.111821
H	 2.0097710436	-4.5576965284	 2.9761602896	 0.186096
113.2812	141.7058	177.8471	226.2432	268.4454	309.5847	396.6548	447.5821	526.2243	531.9408	572.9841	599.6611	608.7277	646.4097	696.4644	786.1397	822.7581	842.3964	917.6262	929.6924	960.0177	977.4383	1000.774	1081.4358	1091.3946	1117.3643	1132.221	1175.9105	1205.6831	1222.1941	1234.4403	1296.3375	1313.78	1347.8734	1370.2561	1382.8429	1409.1269	1487.3572	1489.1363	1494.6828	1497.7951	1518.8597	2238.7823	3022.5071	3035.8712	3050.6543	3055.1004	3092.74	3102.2015	3106.1772	3111.1957	3117.9456	3198.7878	3503.8726
CC1CCC2(CN12)C#C	C[C@H]1CC[C@]2(CN12)C#C	
InChI=1S/C8H11N/c1-3-8-5-4-7(2)9(8)6-8/h1,7H,4-6H2,2H3	InChI=1S/C8H11N/c1-3-8-5-4-7(2)9(8)6-8/h1,7H,4-6H2,2H3/t7-,8-,9?/m0/s1
