19
gdb 108386	2.38265	1.39472	1.12252	1.749	82.31	-0.2284	0.0489	0.2773	1184.3054	0.157269	-385.818742	-385.809675	-385.80873	-385.852591	34.117	
C	-0.1745608569	 1.5039403815	 0.1518103711	-0.376831
C	 0.1353326544	 0.0140207965	-0.049930496	-0.290873
C	 0.7763759131	-0.5960057498	 1.15701542	 0.478224
O	 2.0619094268	-0.1076936852	 1.5443264207	-0.319577
C	 2.466507867	-1.4476846717	 1.9434098813	-0.102169
C	 1.0834695612	-1.9967978113	 1.6238247982	-0.221193
C	 0.0360714202	-1.1561307123	 2.3639675938	-0.301956
C	 0.2167091713	-0.6775254305	 3.7023453206	 0.343023
C	 0.3700293988	-0.2806711879	 4.8276941041	-0.443514
H	 0.7379326773	 2.0556236074	 0.393958868	 0.141229
H	-0.6066385431	 1.9372429734	-0.7546963381	 0.111835
H	-0.8832053396	 1.6505576719	 0.9727724278	 0.125056
H	-0.7823827213	-0.5405658604	-0.2777408329	 0.103926
H	 0.8081666926	-0.1143062513	-0.9066706046	 0.109702
H	 3.2505327932	-1.8235170109	 1.2779335845	 0.111572
H	 2.7976762831	-1.486165472	 2.9861168466	 0.120721
H	 0.8489196359	-2.9648649315	 1.2013741863	 0.103729
H	-0.9764066409	-1.4690191588	 2.1176788344	 0.113844
H	 0.5027473666	 0.0815254127	 5.8168069143	 0.193252
76.3459	104.3876	137.4306	196.2166	204.0742	295.4301	352.6236	362.3745	406.6875	556.3243	568.3665	585.4174	655.4945	713.9326	763.5998	798.256	809.9847	880.5274	960.8831	966.1732	973.0007	986.0042	1002.8216	1025.8385	1090.2869	1096.4663	1124.0711	1162.8239	1191.6605	1236.7762	1285.8047	1322.6902	1346.4139	1355.463	1409.0119	1458.7587	1473.9334	1497.1631	1507.562	1512.2892	2233.8579	3029.4369	3038.9245	3043.314	3068.2332	3092.7467	3113.9368	3122.5982	3134.6517	3198.896	3503.3527
CCC12OCC1C2C#C	CC[C@]12OC[C@H]1[C@H]2C#C	
InChI=1S/C8H10O/c1-3-6-7-5-9-8(6,7)4-2/h1,6-7H,4-5H2,2H3	InChI=1S/C8H10O/c1-3-6-7-5-9-8(6,7)4-2/h1,6-7H,4-5H2,2H3/t6-,7+,8-/m1/s1
