18
gdb 79773	2.99649	2.01753	1.7801	0.2309	72.72	-0.2226	0.0367	0.2594	855.9403	0.15002	-401.853643	-401.847267	-401.846323	-401.884091	26.684	
C	-0.1551928173	 1.6357599094	 0.0023201324	-0.441389
C	 0.0967748927	 0.1342893982	 0.0324448388	 0.053645
C	 1.151142438	-0.5863657367	-0.8361732745	-0.05932
C	 2.6238385352	-0.1297549599	-0.53562627	 0.080186
O	 2.6675202112	 0.8682409673	 0.5111080808	-0.293071
C	 2.2595111581	-0.1509737405	 1.4535984326	 0.080187
C	 0.7776189658	-0.6081172149	 1.2032628761	-0.059318
N	 1.2534976966	-1.6978535163	 0.2247577327	-0.179694
C	 2.6887090122	-1.2834429448	 0.4920372131	-0.046208
H	 0.756258451	 2.2055772895	 0.1751834108	 0.147099
H	-0.5725378848	 1.9300833168	-0.9673258854	 0.113119
H	-0.8899391156	 1.9116099801	 0.767220905	 0.113121
H	-0.8449283736	-0.3993623189	-0.1457179829	 0.092946
H	 0.9250414681	-0.876660504	-1.8644225645	 0.071902
H	 3.3076036695	 0.085887218	-1.3569934611	 0.085802
H	 2.6070112731	 0.0450852301	 2.4682337941	 0.085802
H	 0.2029017792	-0.9187115315	 2.0784318776	 0.071902
H	 3.4797519707	-2.0194285922	 0.6290657044	 0.083289
176.5495	221.5579	235.8855	417.336	512.2263	579.7865	677.2454	710.4757	753.1081	786.8769	791.9178	811.2622	844.486	911.9617	915.5993	927.0543	941.0122	966.3167	975.6479	995.8191	1051.605	1096.8798	1097.9308	1153.8825	1159.2654	1163.221	1181.4184	1197.7068	1221.6607	1236.1077	1262.2404	1271.6872	1319.5299	1321.5146	1338.6261	1386.7803	1403.98	1490.6261	1516.3975	3028.9146	3036.7134	3083.2871	3084.044	3087.2356	3107.1432	3109.4306	3126.5628	3164.474
CC1C2C3OC4C1N2C34	C[C@H]1[C@H]2[C@H]3O[C@H]4[C@@H]1N2[C@@H]34	
InChI=1S/C7H9NO/c1-2-3-6-5-7(9-6)4(2)8(3)5/h2-7H,1H3	InChI=1S/C7H9NO/c1-2-3-6-5-7(9-6)4(2)8(3)5/h2-7H,1H3/t2-,3-,4+,5-,6+,7-
