21
gdb 124562	4.014	0.86448	0.8188	2.1088	84.45	-0.2321	0.0257	0.2578	1496.7282	0.183787	-383.304088	-383.294794	-383.29385	-383.339023	34.477	
C	-0.1613465586	 1.5017680925	-0.1850572276	-0.381854
C	 0.0308732048	-0.0142111898	-0.0624676337	 0.056544
C	 0.7802791079	-0.575327812	-1.2771449301	-0.38939
C	 0.761961491	-0.396693075	 1.2472054399	-0.330048
C	 0.0085700016	-0.0690424084	 2.5029515256	 0.223358
C	 0.2711113366	 0.9243156113	 3.4271101949	-0.133475
N	-0.6841461349	 0.8321089622	 4.3856102856	-0.177912
N	-1.5642273143	-0.160176893	 4.1599426858	-0.225275
C	-1.1472283856	-0.705720394	 3.0213372707	-0.080318
H	 0.8077476834	 2.0130587646	-0.2459223687	 0.104213
H	-0.7259436527	 1.7554592331	-1.0881971537	 0.109304
H	-0.7003918616	 1.9066105229	 0.6760359178	 0.119506
H	-0.9639261946	-0.4801139896	-0.0302907803	 0.076429
H	 1.7888487184	-0.1495491602	-1.346021019	 0.110075
H	 0.8831225914	-1.6641542594	-1.2170628539	 0.108509
H	 0.25760737	-0.3380996037	-2.2095343788	 0.109527
H	 0.9741767291	-1.473305768	 1.2221827175	 0.101599
H	 1.7385997413	 0.10442992	 1.2640122373	 0.092929
H	 1.0520902899	 1.6675538912	 3.4719959987	 0.129191
H	-0.7882113107	 1.3976213832	 5.2104570264	 0.272699
H	-1.6855644825	-1.5461518279	 2.6059645555	 0.104389
38.6811	73.1489	112.0449	221.9085	245.8862	290.5766	315.7753	330.05	415.5011	424.3811	504.9567	651.6884	694.7894	738.308	789.5932	825.4556	883.5793	891.1607	929.4578	947.4757	955.7554	967.0862	1014.3782	1066.8649	1101.6948	1136.467	1168.8902	1191.4555	1233.1687	1255.3866	1304.1833	1329.0549	1364.9243	1373.0604	1391.8025	1400.5798	1417.4376	1421.6141	1479.4139	1488.1628	1492.5759	1494.9844	1502.7934	1510.4381	1611.6992	3004.8783	3013.586	3021.3445	3026.8534	3051.4314	3085.6141	3091.7097	3098.1361	3111.1666	3235.8347	3255.8015	3678.4319
CC(C)CC1=CNN=C1	CC(C)Cc1c[nH]nc1	
InChI=1S/C7H12N2/c1-6(2)3-7-4-8-9-5-7/h4-6H,3H2,1-2H3,(H,8,9)	InChI=1S/C7H12N2/c1-6(2)3-7-4-8-9-5-7/h4-6H,3H2,1-2H3,(H,8,9)
