21
gdb 57198	2.38253	1.29789	1.09555	2.8099	78.53	-0.2575	-0.0265	0.2309	1224.8864	0.179537	-424.239522	-424.229381	-424.228436	-424.274535	37.607	
C	 0.0713395755	 1.4392512174	-0.1919625984	-0.478378
C	 0.1157047915	-0.0595224779	-0.0185141179	 0.367407
O	 0.3157689246	-0.5821574564	 1.0585052159	-0.324794
C	-0.0771451453	-0.9592106393	-1.2510475076	-0.029691
O	 0.0714025743	-2.3015811051	-0.8700655776	-0.438883
C	-1.4270812735	-0.7395401476	-1.9323242985	 0.367315
C	-2.6307028915	-1.001059955	-1.047119527	-0.475226
C	-1.5157447644	 0.3194108028	-3.0084097013	-0.315635
C	-1.5117809806	-1.1419914527	-3.3835000491	-0.306156
H	 0.7787393853	 1.7566466154	-0.9651873444	 0.142618
H	-0.9229213725	 1.7510619827	-0.526846985	 0.158274
H	 0.3123783574	 1.9257597743	 0.753872521	 0.145671
H	 0.7150151289	-0.6796436949	-1.9689277799	 0.077362
H	 0.2563976103	-2.2729817223	 0.0836851563	 0.291167
H	-2.6889955901	-0.2922101348	-0.2120090314	 0.112721
H	-3.5610964252	-0.9169107638	-1.6159609087	 0.113386
H	-2.5741960215	-2.0095971925	-0.6277082255	 0.139183
H	-2.4446672025	 0.87277806	-3.0970511882	 0.112053
H	-0.6316270776	 0.904062345	-3.2415871039	 0.107855
H	-0.6229897502	-1.5463784326	-3.8554873105	 0.119998
H	-2.4385805527	-1.5862618528	-3.7296796484	 0.113752
69.2808	84.7221	126.8666	152.8001	211.3784	243.2825	276.2315	314.7324	340.9684	393.9882	406.931	472.3021	535.8176	554.552	636.7372	765.5369	781.0804	826.8535	875.6669	926.0812	953.5536	967.0172	971.1675	1020.5253	1049.3008	1078.098	1083.2394	1126.2642	1133.612	1188.3534	1207.6879	1248.0917	1302.7692	1323.5414	1378.7159	1387.8122	1416.4494	1434.8654	1461.0888	1470.8542	1474.0557	1490.8819	1501.3549	1510.6784	1792.135	2942.3019	3026.8144	3047.1477	3091.0225	3110.3553	3117.2779	3127.6768	3135.127	3154.4959	3205.6966	3221.6528	3660.1246
CC(=O)C(O)C1(C)CC1	CC(=O)[C@@H](O)C1(C)CC1	
InChI=1S/C7H12O2/c1-5(8)6(9)7(2)3-4-7/h6,9H,3-4H2,1-2H3	InChI=1S/C7H12O2/c1-5(8)6(9)7(2)3-4-7/h6,9H,3-4H2,1-2H3/t6-/m1/s1
