19
gdb 113596	3.21262	0.72677	0.6269	1.5659	101.22	-0.2274	-0.0106	0.2168	1796.1201	0.157041	-348.697608	-348.687759	-348.686814	-348.732952	36.163	
C	-0.0966351399	 1.5734356591	-0.2448476991	-0.375325
C	-0.0760514544	 0.134674663	 0.2839883198	-0.202253
C	-1.4183433363	-0.5501483773	 0.1462687964	 0.022147
C	-1.8160960331	-1.2247893958	-1.1318089515	-0.285369
C	-1.5385241961	-2.0744077189	 0.1064803337	-0.256841
C	-0.3839577101	-2.9119688754	 0.1646634708	 0.450863
C	 0.5837596133	-3.6396507248	 0.2311925126	-0.292919
C	 1.6721137051	-4.451488094	 0.297620005	 0.302261
C	 2.638997899	-5.1737583585	 0.3576866111	-0.573751
H	 0.8821199241	 2.0487113396	-0.1291623082	 0.115411
H	-0.3612250833	 1.5995402085	-1.3070434695	 0.118474
H	-0.829282493	 2.1845268259	 0.2938708683	 0.114063
H	 0.6840281054	-0.4482271791	-0.2478387624	 0.112236
H	 0.2240847389	 0.1326515482	 1.3393247541	 0.105156
H	-2.225820307	-0.0684226444	 0.6931087059	 0.091935
H	-2.8442099943	-1.1664589209	-1.470845126	 0.120244
H	-1.0783609319	-1.2753682773	-1.9252339167	 0.128803
H	-2.4147253026	-2.4862416533	 0.599940745	 0.117579
H	 3.4881600259	-5.8084399845	 0.4095354808	 0.187285
58.8893	77.4592	106.4533	165.794	213.3337	245.0082	257.3621	359.9467	392.6905	477.5192	506.5262	535.6694	556.0819	597.1998	609.6445	690.9158	758.8146	794.551	845.7978	899.1349	929.8114	969.1511	1021.8245	1068.6498	1076.5355	1103.0154	1135.8177	1187.6245	1199.9785	1247.2535	1294.713	1344.3103	1387.3635	1408.713	1422.199	1479.4888	1490.9682	1498.2468	1507.7599	2178.6512	2350.0006	3030.2221	3032.8503	3067.5274	3100.8002	3107.524	3131.1425	3136.4904	3142.7233	3226.8416	3505.8801
CCC1CC1C#CC#C	CC[C@H]1C[C@H]1C#CC#C	
InChI=1S/C9H10/c1-3-5-6-9-7-8(9)4-2/h1,8-9H,4,7H2,2H3	InChI=1S/C9H10/c1-3-5-6-9-7-8(9)4-2/h1,8-9H,4,7H2,2H3/t8-,9+/m0/s1
