21
gdb 92779	2.91369	1.20179	0.94376	3.3104	86.81	-0.2465	-0.0532	0.1933	1297.8063	0.182162	-387.129288	-387.120081	-387.119137	-387.163054	34.787	
C	-0.1403458284	 1.5502702835	-0.0821830425	-0.41259
C	 0.079557389	 0.040882448	-0.0102911874	 0.023455
C	 0.9052815718	-0.5468527236	-1.1868686572	-0.270899
C	 1.5209583658	-1.7781289664	-0.5835410715	-0.153857
C	 1.4408915887	-1.7694857503	 0.755916241	 0.250016
C	 1.9722930744	-2.8321183263	 1.6108968076	 0.06926
O	 1.9443966678	-2.8183889731	 2.8232998285	-0.278515
C	 0.7818347672	-0.5050636842	 1.2772314067	-0.106284
C	 1.8207817825	 0.4330487447	 1.9174404602	-0.404613
H	 0.8064700409	 2.099657222	-0.0744796656	 0.119085
H	-0.6712547746	 1.819780037	-1.0014992557	 0.112655
H	-0.7407512639	 1.9067683591	 0.7613387652	 0.117608
H	-0.9027477706	-0.4466383667	-0.0499876956	 0.080993
H	 0.2936747493	-0.7600746988	-2.0708760001	 0.111814
H	 1.6924641657	 0.1458878259	-1.5225902167	 0.116067
H	 1.9938413129	-2.5621665877	-1.1676186872	 0.107152
H	 2.4164097029	-3.6910614405	 1.0580287247	 0.066369
H	 0.0386246839	-0.7471647492	 2.0446682115	 0.087871
H	 2.5993787946	 0.721176601	 1.2025719507	 0.109004
H	 1.3513119181	 1.3467034845	 2.2940414491	 0.114264
H	 2.3035196018	-0.0716018091	 2.7579521543	 0.141145
76.1756	133.0792	165.8811	245.897	250.1802	253.0766	288.6898	299.8101	343.005	449.9154	501.3577	570.6696	627.8194	721.8816	768.3538	822.894	835.6759	901.9799	937.6589	985.6807	1002.9766	1033.1905	1040.9703	1074.5127	1092.6651	1124.6809	1164.1291	1186.2645	1218.4057	1266.7755	1304.8855	1326.0846	1361.0969	1363.3958	1373.8173	1404.1521	1415.4164	1420.6681	1476.6851	1490.6745	1496.3967	1505.5984	1511.9587	1676.6336	1778.9146	2870.4221	2994.9673	3017.5423	3031.994	3036.735	3047.548	3059.2065	3096.0885	3103.9222	3105.6946	3124.3794	3180.5333
CC1CC=C(C=O)C1C	C[C@H]1CC=C(C=O)[C@H]1C	
InChI=1S/C8H12O/c1-6-3-4-8(5-9)7(6)2/h4-7H,3H2,1-2H3	InChI=1S/C8H12O/c1-6-3-4-8(5-9)7(6)2/h4-7H,3H2,1-2H3/t6-,7-/m0/s1
