21
gdb 62600	3.31075	1.69589	1.4878	0.0815	84.17	-0.2352	0.0857	0.3208	981.6095	0.183161	-349.887605	-349.880135	-349.879191	-349.918752	31.657	
C	-0.0215590074	 1.5716131452	 0.0247806573	-0.455751
C	-0.001105467	 0.0473719537	 0.0091064115	 0.326151
C	-1.4017030674	-0.5193140333	-0.2407160259	-0.444199
C	 1.0757821696	-0.6648628221	-0.8678462497	-0.085822
C	 2.465759491	-0.2292325717	-0.3458719288	-0.079508
C	 2.6916589866	-1.4895991989	 0.4566300552	-0.125125
C	 2.2035510639	-0.247960006	 1.1663032729	-0.079542
C	 0.7209458818	-0.6906401921	 1.1795223019	-0.085762
C	 1.1936899888	-1.8258181072	 0.1925594287	-0.055877
H	 0.9754519681	 1.9841553255	 0.2027011555	 0.116044
H	-0.3858070673	 1.9704083787	-0.9296518469	 0.107256
H	-0.6872700815	 1.9484583763	 0.8105748578	 0.107257
H	-1.7981172545	-0.1726451708	-1.2020914805	 0.108948
H	-1.4069605734	-1.6138318553	-0.2553941511	 0.112731
H	-2.099913483	-0.1945514205	 0.5394129902	 0.108952
H	 0.9402789458	-0.8278969132	-1.937647909	 0.053511
H	 3.1943854124	 0.4271148255	-0.8028403383	 0.082362
H	 3.577156423	-2.0929293576	 0.6027219313	 0.084629
H	 2.7330581992	 0.39422858	 1.8574815782	 0.082362
H	 0.2341312542	-0.8791953125	 2.1370602571	 0.053523
H	 0.7391713273	-2.8079940538	 0.1014090825	 0.067861
208.7819	218.8076	223.1402	242.2568	328.58	344.3019	520.3902	570.3544	593.0696	735.228	767.3499	798.8796	799.9539	820.8668	851.6243	860.2352	868.0481	905.4371	913.8388	952.0435	967.9514	979.1451	988.008	1017.1171	1021.6772	1035.9098	1067.6219	1070.8674	1159.2068	1167.5712	1175.1361	1197.1878	1197.4702	1203.6208	1229.8483	1272.4154	1280.6043	1302.0222	1361.2966	1398.7095	1417.3893	1484.7423	1487.2672	1504.6309	1508.1117	3020.2634	3025.1663	3077.9611	3083.5	3098.3633	3104.8029	3105.9597	3109.0514	3153.9436	3193.8972	3195.1572	3211.7136
CC1(C)C2C3C4C3C1C24	CC1(C)[C@H]2[C@@H]3[C@H]4[C@@H]3[C@@H]1[C@@H]24	
InChI=1S/C9H12/c1-9(2)7-4-3-5(4)8(9)6(3)7/h3-8H,1-2H3	InChI=1S/C9H12/c1-9(2)7-4-3-5(4)8(9)6(3)7/h3-8H,1-2H3/t3-,4+,5-,6+,7-,8+
