19
gdb 70908	2.67294	1.71523	1.29877	0.7592	74.08	-0.2201	0.08	0.3001	1022.9895	0.159277	-422.995952	-422.988089	-422.987145	-423.027634	31.865	
C	-0.0217232629	 1.5016499453	 0.0300331781	-0.495132
C	-0.0203931623	-0.0130595798	 0.0203386295	 0.292409
C	 0.3021610242	-0.7342262864	-1.3387633312	-0.341574
C	-0.8706007559	-1.6703992446	-1.0618256658	 0.346469
O	-1.6475810208	-2.2958609368	-2.0197085911	-0.461989
C	-0.8111681976	-2.1334879641	 0.3830134141	 0.029072
O	 0.415660262	-2.071670873	 1.0806676056	-0.269764
C	 0.7826180047	-0.6887789159	 1.1389404722	-0.108402
C	-1.3755694981	-0.7853574427	 0.0737431279	-0.224723
H	 0.9888974458	 1.8968225495	-0.1237984437	 0.119475
H	-0.6589799282	 1.8998896413	-0.7653837406	 0.123981
H	-0.3920334527	 1.8923301369	 0.9847615885	 0.118733
H	 0.0882321831	-0.0832618898	-2.19085065	 0.104888
H	 1.2999388133	-1.1742492557	-1.4494453626	 0.091931
H	-1.2307906599	-3.135045703	-2.2462091407	 0.286739
H	-1.449037164	-2.9586626136	 0.6776739954	 0.10349
H	 1.8659456619	-0.6122465851	 0.9950124249	 0.104023
H	 0.5258527858	-0.2669549635	 2.1233248509	 0.087636
H	-2.3565645486	-0.4067613189	 0.3295039987	 0.092736
184.0971	219.8431	240.5567	262.4009	297.1977	333.7021	359.1705	425.5574	486.6507	556.9007	592.7101	718.7732	721.969	790.1759	843.1709	886.744	906.1843	943.4125	963.4309	982.9348	1005.7077	1023.1011	1037.5082	1077.8182	1104.3089	1146.0769	1168.2291	1192.3129	1226.594	1247.7256	1259.2038	1277.7554	1297.3331	1325.3861	1385.8127	1413.5719	1433.7852	1493.1578	1496.1296	1497.2143	1514.6652	2980.75	3025.9622	3033.6027	3065.5044	3089.2591	3098.3613	3103.5879	3187.8687	3200.4761	3790.3695
CC12CC3(O)C(OC1)C23	C[C@@]12C[C@@]3(O)[C@@H](OC1)[C@@H]23	
InChI=1S/C7H10O2/c1-6-2-7(8)4(6)5(7)9-3-6/h4-5,8H,2-3H2,1H3	InChI=1S/C7H10O2/c1-6-2-7(8)4(6)5(7)9-3-6/h4-5,8H,2-3H2,1H3/t4-,5-,6+,7-/m0/s1
