20
gdb 60078	2.36132	1.1219	0.94529	4.903	79.81	-0.2697	0.0368	0.3065	1349.0699	0.169342	-403.155219	-403.145322	-403.144378	-403.190376	36.48	
C	 0.1250995283	 1.5031721187	-0.0104437536	-0.413596
C	 0.0517112729	-0.0007182392	 0.2484353603	 0.135215
O	 0.3090503622	-0.3054690205	 1.617813444	-0.427392
C	-1.2879520293	-0.5996105733	-0.2143449842	-0.291767
C	-1.3248974625	-2.1239713031	-0.1916987588	 0.200669
C	-1.5520622395	-2.8540508434	 1.122575926	-0.267172
C	-2.6399479338	-2.8407429178	 0.0937472881	-0.315864
C	-0.4433752435	-2.755420098	-1.1428940654	 0.2445
N	 0.2681416189	-3.2415544994	-1.9156759605	-0.355842
H	 1.0741104881	 1.9018234079	 0.3576074908	 0.13039
H	 0.044878736	 1.7280972675	-1.0783432587	 0.125591
H	-0.6908663449	 2.0291383593	 0.5027811502	 0.106449
H	 0.8614645224	-0.4965635216	-0.3001537644	 0.11568
H	-0.2388944649	 0.2783437599	 2.1542833058	 0.275923
H	-2.0891640889	-0.2201688817	 0.4333165551	 0.090412
H	-1.5110788554	-0.250717797	-1.2297564823	 0.115301
H	-1.0077109932	-3.7763279863	 1.2843475393	 0.140203
H	-1.6438968417	-2.2254996035	 1.9987804114	 0.126933
H	-3.5059963824	-2.2079290821	 0.2542692925	 0.124892
H	-2.8421659389	-3.7532811162	-0.4539206156	 0.139474
42.3135	91.8895	138.9592	193.8315	225.4209	250.8813	284.9023	305.3801	329.0473	361.5139	463.9062	479.5835	573.5721	590.1414	704.9274	779.9292	829.9736	877.3326	910.6172	923.9104	950.3838	962.8435	994.5531	1059.1884	1067.0537	1083.4352	1104.6449	1149.7893	1189.4153	1191.9985	1285.7234	1312.7972	1325.2083	1351.0587	1393.1102	1406.4202	1422.4803	1465.2951	1472.157	1492.9853	1497.7638	1500.7983	2345.5435	3017.7799	3022.0319	3047.187	3067.5376	3096.1817	3123.0606	3141.5236	3158.8273	3229.5439	3250.3827	3795.5954
CC(O)CC1(CC1)C#N	C[C@@H](O)CC1(CC1)C#N	
InChI=1S/C7H11NO/c1-6(9)4-7(5-8)2-3-7/h6,9H,2-4H2,1H3	InChI=1S/C7H11NO/c1-6(9)4-7(5-8)2-3-7/h6,9H,2-4H2,1H3/t6-/m1/s1
