17
gdb 100425	3.22372	0.88134	0.69852	6.451	67.93	-0.2487	0.0239	0.2727	1526.4603	0.134767	-492.328498	-492.318739	-492.317795	-492.364283	34.164	
C	-0.0694766177	 0.1727400111	-0.6089309199	-0.23536
O	 0.2143079727	 0.6442865974	 0.7083384151	-0.250685
C	 0.6493653806	-0.2655375057	 1.5970854291	 0.504544
N	 0.9689252395	 0.3429150153	 2.7833670099	-0.566375
N	 0.7673467458	-1.5021108719	 1.3047901283	-0.378672
H	 0.7419528365	-2.9941407536	 0.1937409796	 0.304725
C	 1.2680035064	-2.4244417363	 2.3030393759	-0.319693
C	 1.3755939413	-3.8391968545	 1.7127747403	 0.418625
O	 1.0023465791	-3.9113537733	 0.4301165882	-0.360849
O	 1.7587646702	-4.7833809896	 2.3488578975	-0.342393
H	-0.8667231811	-0.5751187506	-0.5913725097	 0.139766
H	-0.3876922652	 1.0518285098	-1.1699428078	 0.137432
H	 0.8219035085	-0.2663054951	-1.064924923	 0.14071
H	 0.6094875364	 1.2756723775	 2.9108412648	 0.269162
H	 0.986601071	-0.2333320248	 3.6081955731	 0.272502
H	 2.266882496	-2.1527042562	 2.6744520953	 0.139049
H	 0.6134025899	-2.5034673695	 3.1852707036	 0.127511
49.342	61.0334	113.708	145.7403	185.9218	256.0529	270.166	284.183	408.2325	462.2157	467.3997	527.5914	580.2804	635.5128	665.3249	736.2253	797.6355	878.3305	913.1608	1004.1304	1038.2712	1129.4842	1168.5001	1181.9593	1227.8713	1229.5001	1233.6985	1343.038	1392.5623	1442.8054	1463.3715	1481.3191	1487.4851	1504.8619	1633.2929	1749.857	1877.269	2980.8123	3021.3205	3047.8017	3122.0427	3154.9074	3484.9192	3600.3379	3716.4111
COC(N)=[NH+]CC([O-])=O	COC(=NCC(=O)O)N	
InChI=1S/C4H8N2O3/c1-9-4(5)6-2-3(7)8/h2H2,1H3,(H2,5,6)(H,7,8)	InChI=1S/C4H8N2O3/c1-9-4(5)6-2-3(7)8/h2H2,1H3,(H2,5,6)(H,7,8)
