15
gdb 13585	3.44574	1.68032	1.26575	2.5134	63.97	-0.2485	-0.0785	0.17	952.8215	0.116814	-399.801724	-399.793486	-399.792542	-399.834805	28.547	
C	 0.3355463318	 1.3228231668	-0.0711382412	-0.404487
C	 0.0314766785	-0.1530752846	 0.0201528197	 0.004549
C	 0.7312945557	-1.1540827322	-0.8646495696	-0.23945
N	 1.0190457618	-1.0690678417	 0.5485391042	-0.06919
C	 2.1873769844	-0.7963920166	 1.2002679896	 0.279807
O	 2.3229927629	 0.0119053249	 2.0978215008	-0.339126
C	 3.382862174	-1.6716720058	 0.8016917362	 0.097464
O	 3.4189028249	-2.3970908659	-0.1559452049	-0.230746
H	 1.3380181807	 1.4973841448	-0.4723895518	 0.125442
H	-0.3893742677	 1.8123051133	-0.7288460126	 0.12643
H	 0.2842434257	 1.7919784471	 0.9148135626	 0.153059
H	-0.9855702185	-0.3980439735	 0.322008852	 0.110678
H	 0.2159332974	-2.0529428267	-1.1908365472	 0.134793
H	 1.4836612099	-0.781588288	-1.5543618394	 0.138496
H	 4.2381424586	-1.526625982	 1.4936759117	 0.11228
73.7702	128.7638	137.6112	167.6192	205.424	288.4946	368.0293	414.1201	489.7791	605.1351	653.8707	705.6156	835.4991	904.9598	941.2791	1025.3081	1045.1453	1070.1578	1124.9329	1136.3044	1160.2796	1192.175	1216.7942	1368.657	1389.2805	1416.3163	1456.6382	1484.5641	1493.4518	1518.5662	1766.529	1827.9529	2934.1927	3044.4678	3110.084	3115.5803	3122.1372	3131.4625	3204.6412
CC1CN1C(=O)C=O	C[C@H]1CN1C(=O)C=O	
InChI=1S/C5H7NO2/c1-4-2-6(4)5(8)3-7/h3-4H,2H2,1H3	InChI=1S/C5H7NO2/c1-4-2-6(4)5(8)3-7/h3-4H,2H2,1H3/t4-,6?/m0/s1
