17
gdb 18383	3.40268	2.27568	1.52092	2.1194	68.72	-0.2361	0.0242	0.2603	837.03	0.144464	-363.850009	-363.843291	-363.842347	-363.880783	26.298	
C	-0.113489162	 1.4329983679	 0.026773224	-0.324647
C	 1.3231881216	 0.9664632398	 0.1263744654	-0.029452
C	 2.0327085597	 0.8420051969	 1.457204004	-0.247445
C	 2.7287675375	-0.5206651819	 1.5739911076	-0.137843
N	 1.8652789277	-1.6743225392	 1.762653667	-0.247871
C	 0.6566664488	-1.7716778996	 1.4294954044	 0.124665
O	-0.2161416393	-0.9296805121	 0.7883280026	-0.234845
C	 0.2313546984	-0.0121549636	-0.184402421	 0.114428
H	-0.6180406128	 1.6744958004	 0.9561710788	 0.127102
H	-0.427526211	 2.01981719	-0.8290251609	 0.116934
H	 1.973188292	 1.2080531308	-0.7110533908	 0.09222
H	 2.7698880462	 1.6458955794	 1.5696331673	 0.100764
H	 1.3241488247	 0.9513414995	 2.2858485383	 0.110645
H	 3.3552870215	-0.6954412818	 0.6870951083	 0.108892
H	 3.4203465107	-0.5083827275	 2.425245266	 0.108014
H	 0.1017355454	-2.6670816177	 1.7123436753	 0.117432
H	 0.157846741	-0.4239336313	-1.1877293664	 0.101007
112.0453	195.7657	301.2107	316.3722	391.8642	445.3387	490.2571	618.3246	744.7445	766.4727	816.4747	849.408	870.1906	934.6679	967.2592	973.4061	983.2907	1046.5816	1063.1214	1077.8048	1102.6684	1132.6903	1151.4463	1176.8132	1238.4006	1255.7441	1288.5887	1344.8026	1370.8449	1398.9976	1416.6769	1435.5183	1476.9062	1486.2776	1490.7028	1764.7025	3004.3019	3029.2318	3045.7489	3073.3038	3128.3977	3131.2015	3135.7256	3142.2043	3225.8916
C1C2CCN=COC12	C1[C@H]2CCN=CO[C@@H]12	
InChI=1S/C6H9NO/c1-2-7-4-8-6-3-5(1)6/h4-6H,1-3H2	InChI=1S/C6H9NO/c1-2-7-4-8-6-3-5(1)6/h4-6H,1-3H2/t5-,6+/m1/s1
