18
gdb 56731	2.06248	1.38613	1.27571	5.7429	76.75	-0.2638	-0.0323	0.2315	1133.4164	0.145894	-401.966333	-401.957018	-401.956074	-402.000462	33.849	
C	-0.3330672073	 1.4327079118	 0.0209504528	-0.409205
C	 0.0601773663	-0.0577921133	-0.0425696634	-0.231423
C	 0.8402754072	-0.3516638804	-1.2535757381	 0.289418
N	 1.4223368142	-0.6048295679	-2.2189964662	-0.327121
C	 0.7876759136	-0.5508760003	 1.2091268654	 0.269107
C	-0.0520373502	-1.0015151987	 2.4004721001	-0.318556
C	 0.673499118	-2.0221999121	 1.5933134286	-0.304494
C	 2.0867798254	 0.0854298065	 1.5501812903	 0.120185
O	 2.6197599451	 0.9626060227	 0.9183166122	-0.261741
H	 0.5563275296	 2.060503099	 0.0674405765	 0.170729
H	-0.9166671067	 1.7093291253	-0.8603342158	 0.135005
H	-0.9428952034	 1.6109091714	 0.91123649	 0.120615
H	-0.8602199249	-0.649614522	-0.1295211635	 0.122804
H	 0.3163673078	-0.7656751869	 3.3931634713	 0.13405
H	-1.1274980547	-0.915355895	 2.2915918081	 0.13477
H	 0.1108621185	-2.6519919386	 0.9136071616	 0.141135
H	 1.5480642864	-2.49844105	 2.0230220208	 0.136492
H	 2.5565386152	-0.3270307715	 2.4738879894	 0.078228
67.4225	124.254	144.3296	195.556	216.4856	238.124	288.3017	323.5859	339.0162	449.3655	517.6403	530.3723	585.1575	769.7474	789.308	847.746	867.1032	922.4273	953.2826	984.6871	1030.7312	1047.24	1066.7062	1091.6755	1103.1678	1127.4646	1194.4051	1251.1217	1323.8375	1338.9518	1356.318	1404.3768	1443.8009	1470.5073	1489.5384	1499.1121	1511.2569	1818.7479	2360.1025	2858.501	3026.4011	3055.539	3125.5947	3136.6747	3140.6545	3165.2723	3216.9982	3231.3641
CC(C#N)C1(CC1)C=O	C[C@@H](C#N)C1(CC1)C=O	
InChI=1S/C7H9NO/c1-6(4-8)7(5-9)2-3-7/h5-6H,2-3H2,1H3	InChI=1S/C7H9NO/c1-6(4-8)7(5-9)2-3-7/h5-6H,2-3H2,1H3/t6-/m0/s1
