21
gdb 110837	2.8152	1.37561	1.14281	1.8605	78.46	-0.2465	0.0736	0.3201	1170.6499	0.181426	-424.189342	-424.180245	-424.179301	-424.222692	35.368	
C	 0.2860290826	 0.9508764245	-0.3851527227	-0.252631
O	-0.4029674556	-0.0883112779	 0.2943078318	-0.262122
C	 0.3830014878	-0.6733097384	 1.3008301817	 0.119516
C	 0.0063440971	-1.9792628379	 1.8999426367	-0.118634
C	-0.6073085027	-2.9114921558	 0.8537851517	-0.300889
C	 0.7011222943	-2.7920698242	-0.0091027435	 0.414339
C	 1.4741649255	-4.094617983	-0.1298783288	-0.423006
O	 0.549475587	-2.2810445575	-1.317339258	-0.487171
C	 1.2984648965	-1.8331716623	 1.046118271	-0.162698
H	 1.1740523647	 0.5676549463	-0.905921315	 0.126878
H	-0.4089166705	 1.374225827	-1.1140378984	 0.130569
H	 0.5976003471	 1.7423378815	 0.3112124186	 0.114448
H	 0.7720247659	 0.0591613324	 2.0102847084	 0.089048
H	-0.0882526822	-2.0994919538	 2.9724478289	 0.088024
H	-0.7732463506	-3.9260533444	 1.2229163968	 0.101589
H	-1.5222266666	-2.5527730937	 0.3748337948	 0.104378
H	 0.917233494	-4.8044651996	-0.7487903889	 0.120885
H	 2.4431953882	-3.9132609655	-0.6057242352	 0.119959
H	 1.6470443307	-4.5415615046	 0.8531362327	 0.111599
H	-0.0327101304	-1.5163071155	-1.2332295466	 0.287347
H	 2.3384313169	-1.8267505779	 1.3559527938	 0.078572
94.553	141.9007	168.0801	206.1195	247.0688	295.8727	303.2932	370.9146	421.8456	438.6266	508.9381	559.6869	631.4812	668.2203	746.0425	798.4588	865.8352	907.1852	924.1242	957.1137	965.7584	986.2731	1000.4283	1048.425	1077.5254	1086.6988	1126.6093	1142.6354	1178.4901	1180.8588	1190.0679	1225.301	1245.6917	1256.6465	1291.9468	1342.4828	1395.5961	1419.2389	1439.4188	1478.5511	1485.3281	1489.693	1493.2722	1496.334	1510.5471	2994.465	3038.1921	3052.4122	3059.831	3090.6704	3109.4058	3113.8428	3120.0142	3121.0862	3161.3553	3183.7497	3782.8211
COC1C2CC(C)(O)C12	CO[C@H]1[C@H]2C[C@@](C)(O)[C@@H]12	
InChI=1S/C7H12O2/c1-7(8)3-4-5(7)6(4)9-2/h4-6,8H,3H2,1-2H3	InChI=1S/C7H12O2/c1-7(8)3-4-5(7)6(4)9-2/h4-6,8H,3H2,1-2H3/t4-,5+,6-,7+/m0/s1
