21
gdb 57910	3.2477	0.92274	0.91535	3.3375	78.89	-0.2468	-0.0202	0.2265	1426.7854	0.180698	-424.225564	-424.215472	-424.214528	-424.262178	35.413	
C	-0.0216245935	 1.3652986358	 0.2020912605	-0.39167
C	-0.0105905285	-0.1593294391	-0.0426572322	-0.066028
C	-1.4177757763	-0.7534184957	 0.0645291194	-0.388928
C	 0.6034080658	-0.4229527351	-1.4194682636	 0.375357
O	-0.0766435673	-0.5219041931	-2.4160809019	-0.315048
C	 2.1144054942	-0.5638876828	-1.4630705254	-0.15123
C	 2.6307161384	-2.0115901534	-1.1989282418	-0.071897
O	 3.1980531111	-2.0939167021	-2.5130519055	-0.266946
C	 2.7586803142	-0.7570536515	-2.8466092041	-0.088393
H	 0.9795527326	 1.8027901263	 0.1349746227	 0.11842
H	-0.6599567754	 1.8641959955	-0.533870222	 0.136359
H	-0.4154190776	 1.5832303984	 1.1992062136	 0.124162
H	 0.6450207874	-0.6157331215	 0.7113934207	 0.081178
H	-2.0583618111	-0.3541452529	-0.7255518181	 0.139861
H	-1.3999291731	-1.8419728408	-0.0433670378	 0.118128
H	-1.8638016854	-0.5131797753	 1.0343500253	 0.109413
H	 2.5870992092	 0.1827767472	-0.8213197428	 0.094038
H	 3.387082351	-2.0997599906	-0.409325516	 0.105466
H	 1.8522542213	-2.7681612122	-1.0340559968	 0.108983
H	 2.0407188608	-0.7520500662	-3.6723246918	 0.129326
H	 3.6020926023	-0.0954081508	-3.0746119024	 0.099447
30.8341	51.2871	76.7065	166.6131	192.4366	207.3449	239.0766	279.9038	323.2699	339.2172	430.5164	601.9718	721.8847	746.6031	819.4773	874.4993	885.9583	932.3441	940.1174	972.3928	998.7363	1025.5029	1050.6646	1071.8849	1111.7222	1122.6991	1141.4456	1163.6356	1173.127	1199.688	1226.9614	1308.4989	1316.1255	1346.7088	1374.6809	1386.0213	1396.8972	1417.4938	1486.3359	1487.5732	1501.5641	1510.0361	1510.915	1534.5943	1801.6625	3005.7573	3014.5282	3031.8076	3035.6216	3044.142	3048.3731	3083.7234	3095.419	3106.3109	3110.9652	3113.5672	3129.1988
CC(C)C(=O)C1COC1	CC(C)C(=O)C1COC1	
InChI=1S/C7H12O2/c1-5(2)7(8)6-3-9-4-6/h5-6H,3-4H2,1-2H3	InChI=1S/C7H12O2/c1-5(2)7(8)6-3-9-4-6/h5-6H,3-4H2,1-2H3
