16
gdb 26066	3.31748	1.2117	0.94091	4.2886	74.26	-0.2368	0.0177	0.2545	1203.9583	0.126229	-396.988967	-396.980755	-396.979811	-397.022491	29.91	
C	 0.1282757551	 1.5322588723	 0.1519021767	-0.387605
C	-0.1094008222	 0.0249602669	-0.097995575	-0.260211
C	-1.5434835104	-0.2755607545	-0.1670963586	 0.287178
N	-2.674829064	-0.5022939849	-0.2325987949	-0.339882
C	 0.5978893988	-0.4603686706	-1.3378728976	 0.293016
C	 0.0781689422	-0.9892086665	-2.4901215916	-0.174083
N	 1.1687147877	-1.2475007163	-3.2903150964	-0.243974
C	 2.2790196019	-0.8707459616	-2.5977718931	 0.0144
N	 1.9712734092	-0.3910444978	-1.4155603455	-0.310536
H	 1.2041913919	 1.7128842515	 0.1862724391	 0.150469
H	-0.3022507097	 2.1275122164	-0.6571793003	 0.133572
H	-0.3222057295	 1.8451909688	 1.0970821593	 0.129141
H	 0.2948087319	-0.5264662359	 0.7610733797	 0.141513
H	-0.9310772132	-1.2027707455	-2.7984479172	 0.15742
H	 1.1444342315	-1.6489699492	-4.212689215	 0.272571
H	 3.2750690388	-0.9703569732	-3.0023485396	 0.137011
45.2646	122.8614	162.3418	212.3236	236.6741	344.5447	389.2541	486.2302	536.3917	565.4818	660.0815	689.4811	731.6323	766.2628	827.8457	862.4064	950.1672	969.0908	1026.9376	1080.5564	1093.4115	1118.5086	1137.4261	1231.1415	1250.7529	1311.0408	1341.775	1358.9952	1403.4646	1455.1736	1491.9615	1498.5404	1529.1239	1596.0066	2359.3734	3026.9953	3053.7281	3131.783	3146.4426	3254.493	3285.4598	3666.6929
CC(C#N)C1=CNC=N1	C[C@@H](C#N)c1c[nH]cn1	
InChI=1S/C6H7N3/c1-5(2-7)6-3-8-4-9-6/h3-5H,1H3,(H,8,9)	InChI=1S/C6H7N3/c1-5(2-7)6-3-8-4-9-6/h3-5H,1H3,(H,8,9)/t5-/m0/s1
