15
gdb 129482	4.64234	1.01557	1.00935	3.5931	67.71	-0.2516	-0.0006	0.2509	1197.8361	0.114088	-450.157621	-450.149229	-450.148285	-450.192743	28.997	
N	-0.0718309437	 1.3275515273	 0.0050883186	-0.523743
C	 0.0947557539	-0.0259768023	 0.0380188486	 0.412115
O	 1.1721040298	-0.5716799653	 0.0780967699	-0.329974
C	-1.2402612662	-0.7993812572	 0.0492527903	-0.268849
N	-1.0352347529	-2.2221131617	 0.0158666913	 0.177744
N	-0.8729447686	-2.8807579925	-1.1268770504	-0.22869
C	-0.6140616302	-4.1267142921	-0.7307177625	-0.053585
C	-0.625404004	-4.1624099269	 0.6711810759	-0.054549
N	-0.8912889765	-2.9381147165	 1.1259206706	-0.225332
H	 0.7509138833	 1.9046096456	-0.0571611159	 0.269379
H	-0.9695699867	 1.7591260471	-0.1301810433	 0.262683
H	-1.7956425498	-0.5606405772	 0.9594588084	 0.160605
H	-1.8433475338	-0.5227159284	-0.8193365627	 0.152239
H	-0.4447475962	-4.913840823	-1.4476952449	 0.124894
H	-0.4674879786	-4.9849837271	 1.3499093861	 0.125066
22.018	61.4889	89.1129	144.8981	287.3349	352.9499	369.5128	480.4032	594.3655	633.8526	680.4716	692.602	805.7552	848.9058	851.2969	897.7774	970.5327	985.5725	999.0453	1088.3032	1098.6801	1155.362	1236.7114	1290.5396	1302.4249	1380.0102	1388.034	1424.6939	1446.8569	1451.1708	1510.9746	1621.7211	1830.7766	3072.9894	3129.7614	3264.6037	3281.8886	3601.5403	3734.0919
NC(=O)CN1N=CC=N1	NC(=O)Cn1nccn1	
InChI=1S/C4H6N4O/c5-4(9)3-8-6-1-2-7-8/h1-2H,3H2,(H2,5,9)	InChI=1S/C4H6N4O/c5-4(9)3-8-6-1-2-7-8/h1-2H,3H2,(H2,5,9)
