15
gdb 44301	3.86819	1.86644	1.62457	4.7881	66.39	-0.2372	0.0236	0.2608	818.9193	0.116121	-416.773777	-416.768075	-416.767131	-416.80367	24.17	
O	-0.0332500091	-0.0284896784	 0.2429628856	-0.363927
C	-0.0510410598	 1.1487614391	 0.0034167371	 0.408984
N	-1.1677290687	 1.9574729604	-0.1631863662	-0.322549
C	-0.7471145748	 3.3395712174	-0.065521651	-0.021488
C	 0.0063441463	 3.7256490899	 1.2325274728	-0.111324
C	 1.2508681132	 4.1292403519	 0.4588633067	-0.116055
C	 1.2424727627	 2.8121384285	 1.1587242943	-0.039017
N	 1.1199094136	 2.0157906095	-0.1076257383	-0.177653
C	 0.6529184821	 3.3123353203	-0.7247509953	-0.02254
H	-2.0532582528	 1.6182023831	 0.1812980607	 0.252817
H	-1.469980378	 4.0610395818	-0.4418127043	 0.096592
H	-0.3809395935	 4.1170360293	 2.163433018	 0.098577
H	 1.913130984	 4.978671705	 0.5125993132	 0.109786
H	 1.7898030217	 2.4549640276	 2.0196241182	 0.115096
H	 0.8057977832	 3.4346016146	-1.7946004316	 0.092702
154.0899	360.9297	445.6569	504.4903	571.4658	640.5685	707.1997	745.8733	774.8934	801.9543	821.3725	854.8396	869.2642	882.6195	918.5266	934.2731	974.7913	996.7576	1022.5505	1031.292	1043.6985	1062.9012	1072.4798	1152.0134	1170.605	1193.785	1210.0885	1237.0443	1287.126	1331.6965	1353.2192	1386.2542	1870.4272	3136.4493	3146.5482	3210.0614	3219.9463	3247.7301	3625.7694
O=C1NC2C3C4C3N1C24	O=C1N[C@H]2[C@@H]3[C@H]4[C@@H]3N1[C@@H]24	
InChI=1S/C6H6N2O/c9-6-7-3-1-2-4(1)8(6)5(2)3/h1-5H,(H,7,9)	InChI=1S/C6H6N2O/c9-6-7-3-1-2-4(1)8(6)5(2)3/h1-5H,(H,7,9)/t1-,2-,3-,4+,5+/m0/s1
