15
gdb 26878	2.97491	1.49667	1.00192	2.3195	77.37	-0.2054	-0.0731	0.1323	1117.5547	0.112135	-453.971437	-453.963244	-453.9623	-454.004371	30.335	
C	 0.0603779488	 1.5325765293	 0.0189830017	-0.478817
C	-0.0697667365	 0.0557644719	 0.1371905268	 0.291742
C	-1.1792004597	-0.68448463	-0.0871905372	 0.28516
O	-2.3534861163	-0.1106204697	-0.465925834	-0.434405
N	-1.1866055225	-2.0501640537	 0.0529249186	-0.290592
C	-0.0939223983	-2.6316166649	 0.4103892479	-0.085355
C	 1.1594208573	-1.9261681469	 0.6774325193	 0.353191
N	 2.2826387779	-2.4067458011	 1.0328341279	-0.512776
O	 1.0863099947	-0.5640706654	 0.5156228339	-0.236043
H	 0.8270183412	 1.7949632757	-0.7188977761	 0.148054
H	-0.8915710693	 1.9684107905	-0.2847660295	 0.15666
H	 0.3670690446	 1.9710924574	 0.9753903883	 0.148053
H	-2.9847497356	-0.8344194139	-0.5617753154	 0.299866
H	-0.0916722976	-3.7139269695	 0.5234757164	 0.13015
H	 2.2144685014	-3.4192891996	 1.1197942415	 0.225113
83.654	110.3195	167.9783	272.2139	329.6336	349.9999	361.0902	423.7955	479.8616	515.1719	589.4058	601.6064	702.0121	750.0015	801.4183	814.398	902.2944	925.6357	1022.7162	1058.4232	1077.1114	1120.7253	1225.3017	1295.2553	1342.8359	1361.4043	1406.3866	1427.7899	1472.9764	1481.0142	1595.6363	1683.9672	1734.7392	3034.4192	3085.4649	3151.4273	3156.4737	3507.6899	3799.4498
CC1=C(O)N=CC(=N)O1	CC1=C(O)[N]C=C([NH])O1	
InChI=1S/C5H6N2O2/c1-3-5(8)7-2-4(6)9-3/h2,6,8H,1H3	InChI=1S/C5H6N2O2/c1-3-5(8)7-2-4(6)9-3/h2,6,8H,1H3
