14
gdb 45328	2.95348	1.70779	1.3434	3.7171	61.31	-0.2672	-0.0156	0.2516	925.6256	0.102928	-473.847512	-473.840706	-473.839762	-473.879387	25.144	
O	-0.2054582825	 0.315588153	 0.6971508946	-0.308312
C	-0.0395070184	 1.3471022808	 0.1370288287	 0.427005
O	-0.9373425559	 2.0727970636	-0.6000852489	-0.247329
C	 0.0185411579	 3.1691055048	-0.8308939083	 0.073334
C	-0.3890851448	 4.4580864162	-0.1336087922	-0.185815
N	-0.0042300265	 4.572686884	 1.268743075	-0.251951
C	 0.9500041419	 3.8786282894	 1.7087504897	 0.130022
O	 1.685879651	 2.9213289898	 1.0659897543	-0.224872
C	 1.1074223476	 2.3627000521	-0.0912150607	-0.07506
H	 0.1644442342	 3.297357904	-1.9051633623	 0.109831
H	 0.0618702404	 5.3037484278	-0.6697396523	 0.131698
H	-1.4735384211	 4.583173039	-0.2138634722	 0.142256
H	 1.3220524416	 4.004707451	 2.7226112322	 0.141524
H	 1.9188317646	 1.9728915245	-0.7066127177	 0.137668
83.4949	100.7677	234.8368	341.8157	446.3216	491.3743	536.47	595.523	705.8757	758.6777	804.6087	866.9653	893.0104	918.3116	959.6482	995.5583	1028.2585	1053.0521	1082.3422	1131.3483	1191.6074	1210.5139	1254.8651	1319.6567	1345.0721	1362.7182	1391.7615	1413.5504	1468.3311	1748.0071	1950.074	3026.3562	3077.8886	3096.3815	3118.833	3176.2236
O=C1OC2CN=COC12	O=C1O[C@H]2CN=CO[C@@H]12	
InChI=1S/C5H5NO3/c7-5-4-3(9-5)1-6-2-8-4/h2-4H,1H2	InChI=1S/C5H5NO3/c7-5-4-3(9-5)1-6-2-8-4/h2-4H,1H2/t3-,4+/m0/s1
