13
gdb 131975	2.80151	1.68214	1.05177	3.2711	68.79	-0.2303	-0.0837	0.1467	1024.9433	0.090917	-486.001177	-485.993786	-485.992842	-486.033074	27.645	
N	 0.0362345946	 1.4516690642	 0.1522900472	-0.615905
C	 0.0198560803	 0.0909288119	 0.0513227573	 0.184693
C	-1.1003724211	-0.7408621031	 0.0310026051	 0.438936
N	-0.655282907	-2.0320613845	-0.0146327381	-0.265293
N	 0.6693734955	-2.094492191	-0.0310838574	-0.19033
C	 1.0971043205	-0.8306232957	 0.0087203196	-0.060621
N	-2.4651620347	-0.4218552783	 0.021665823	 0.349105
O	-3.2709193503	-1.3546556986	-0.0131715054	-0.400056
O	-2.7685433385	 0.7788533983	 0.0436060898	-0.406333
H	 0.8545731603	 1.9323525105	-0.1836205125	 0.262751
H	-0.8507471145	 1.9017232888	-0.0236209725	 0.280247
H	-1.2326348183	-2.8565661034	-0.0362740043	 0.297463
H	 2.1551602431	-0.616969299	 0.0074988781	 0.125343
115.9215	180.1673	204.6529	317.8622	345.5599	383.6209	458.2792	466.3871	535.6022	565.0743	648.5417	715.9081	722.0528	780.9603	837.4989	845.4372	948.7674	1064.3867	1152.9942	1218.7534	1274.8385	1316.5337	1383.3007	1404.7717	1453.5503	1524.4741	1562.2175	1622.0083	1666.3245	3254.4737	3568.5487	3673.1754	3695.2958
NC1=C(NN=C1)N(=O)=O	Nc1c([nH]nc1)N(=O)=O	
InChI=1S/C3H4N4O2/c4-2-1-5-6-3(2)7(8)9/h1H,4H2,(H,5,6)	InChI=1S/C3H4N4O2/c4-2-1-5-6-3(2)7(8)9/h1H,4H2,(H,5,6)
