17
gdb 36258	5.32981	0.98623	0.95494	5.5029	77.17	-0.2466	0.0339	0.2805	1239.0649	0.137034	-380.782416	-380.775117	-380.774172	-380.814757	28.04	
N	 0.0183479039	-1.2359804111	 0.2500260973	-0.304914
C	-0.0171638013	-0.087330307	 0.131859819	 0.271144
C	-0.0554912487	 1.3644666427	-0.0378931911	-0.375429
C	 1.3388475051	 1.9935649241	-0.0240595771	 0.051204
C	 1.4976858175	 3.5048234977	 0.1182636281	-0.094759
C	 1.2601180925	 3.3903241837	 1.6566155398	-0.012301
C	 2.5614410024	 4.1056375347	 2.0259294551	-0.256208
C	 2.8799942269	 3.254475953	 0.7961077793	 0.00142
N	 2.0278559795	 2.070067518	 1.3351473925	-0.157268
H	-0.5446867671	 1.5872325869	-0.9940203915	 0.154305
H	-0.6854171209	 1.794591384	 0.7477379984	 0.151011
H	 1.9766670859	 1.5087912411	-0.7720051957	 0.093323
H	 1.210718602	 4.3203430329	-0.5544786129	 0.072032
H	 0.3124991956	 3.3689163871	 2.1959206077	 0.090094
H	 2.5829934274	 5.1901833657	 1.8968593952	 0.105378
H	 3.0321585353	 3.7945588619	 2.9616266128	 0.118467
H	 3.831073884	 3.0577710545	 0.298869683	 0.092502
59.2573	118.6632	231.705	281.6244	388.4356	428.2799	463.024	580.8124	706.9511	736.4341	817.9475	846.7393	853.4825	886.5283	908.1824	941.6495	957.15	996.9316	1021.0626	1028.4377	1045.8387	1077.583	1123.7825	1142.4147	1150.6272	1179.8652	1184.5229	1223.8563	1234.0776	1257.4165	1270.233	1321.2093	1322.3105	1416.0107	1458.761	1492.357	2365.4207	3040.7919	3043.2564	3049.2303	3063.3909	3087.1584	3105.7216	3111.1491	3130.8082
N#CCC1C2C3CC2N13	N#CC[C@H]1[C@H]2[C@@H]3C[C@H]2N13	
InChI=1S/C7H8N2/c8-2-1-4-7-5-3-6(7)9(4)5/h4-7H,1,3H2	InChI=1S/C7H8N2/c8-2-1-4-7-5-3-6(7)9(4)5/h4-7H,1,3H2/t4-,5-,6+,7-/m0/s1
