15
gdb 48939	4.06682	1.45174	1.28163	2.555	72.54	-0.2351	-0.048	0.1871	964.061	0.11229	-420.588052	-420.581148	-420.580204	-420.619415	26.924	
O	-0.3849888482	 0.5438716423	-0.6798159408	-0.273061
C	 0.1510426978	 1.1103739925	 0.244893986	 0.054605
C	 1.3169934144	 1.9890394923	 0.0911297657	 0.368275
O	 1.7562607507	 2.8089390307	 1.1361295669	-0.327262
C	 2.557154433	 3.5959760078	 0.1369403728	 0.025029
C	 3.9349004648	 2.9994901343	 0.2142177178	-0.098376
C	 3.8783367934	 1.7675972362	-0.3189959204	-0.056525
C	 2.5394460095	 1.5323472175	-0.88869879	-0.151982
C	 1.8299198193	 2.8412946645	-1.0167179419	-0.199862
H	-0.1973168021	 1.0004385548	 1.294224858	 0.093054
H	 2.4125069614	 4.6623995737	 0.293059589	 0.095821
H	 4.7433114025	 3.4232211508	 0.7940564159	 0.113353
H	 4.6463932677	 1.006649468	-0.2642337449	 0.113837
H	 2.2854277818	 0.7069616101	-1.5401259653	 0.122267
H	 1.3300202039	 3.2320743245	-1.893568529	 0.120827
116.6756	160.2402	186.6849	380.4427	401.0599	513.1831	547.8443	613.7672	687.6911	723.582	764.051	804.9467	816.5563	874.7106	899.9041	919.4215	950.0061	980.1748	988.8654	1032.6918	1043.4521	1050.9789	1127.6094	1146.3801	1213.7429	1248.3489	1273.789	1293.1103	1364.0834	1398.8222	1430.8732	1616.7302	1794.7951	2906.5022	3150.322	3197.0106	3209.5049	3222.6153	3238.4577
O=CC12OC3C=CC1C23	O=C[C@@]12O[C@H]3C=C[C@@H]1[C@@H]23	
InChI=1S/C7H6O2/c8-3-7-4-1-2-5(9-7)6(4)7/h1-6H	InChI=1S/C7H6O2/c8-3-7-4-1-2-5(9-7)6(4)7/h1-6H/t4-,5+,6-,7-/m1/s1
