20
gdb 110495	4.75284	1.12832	1.09716	1.5106	83.36	-0.213	-0.005	0.208	1195.7604	0.172332	-365.931527	-365.923955	-365.923011	-365.963611	30.527	
C	 0.0848194719	 1.582537106	-0.001694701	-0.371642
C	-0.1584328755	 0.069483988	 0.0551001742	-0.230585
C	 0.6236060772	-0.5887964913	 1.1802378434	 0.082318
C	 0.9186749637	-2.0962607675	 1.2363093617	-0.096811
C	 2.0208325633	-1.872463237	 0.1512623804	-0.040668
C	 3.2184090152	-2.7353401337	 0.4877805978	-0.09129
C	 3.291352273	-2.6409201305	 1.8159304115	-0.097264
C	 2.1298158879	-1.7316748116	 2.1513639426	-0.026494
N	 2.1606741649	-0.6077259912	 1.0663827443	-0.162381
H	 1.1465999715	 1.7955512348	-0.1552719067	 0.137583
H	-0.4819697035	 2.0460563187	-0.814762331	 0.107865
H	-0.2172471919	 2.0653872298	 0.9342879105	 0.112417
H	-1.2254940839	-0.1309506709	 0.2195870366	 0.096574
H	 0.0876293414	-0.3797358954	-0.9127808102	 0.096358
H	 0.3195186018	-0.1479842228	 2.1389888579	 0.062557
H	 0.2286601929	-2.9456320806	 1.3338868991	 0.057853
H	 1.7728140824	-1.6851046522	-0.8915237526	 0.073032
H	 3.8525027696	-3.2581759772	-0.2136089353	 0.109512
H	 4.0002392991	-3.0640417054	 2.5127739263	 0.11095
H	 1.9718407193	-1.38515925	 3.1736683605	 0.070117
75.1489	155.7036	201.3907	286.5424	342.4005	459.7725	489.3134	527.9076	672.7463	683.2416	754.3889	769.6367	789.4114	798.105	852.8648	880.5838	919.4615	926.9787	940.0486	959.1442	973.4392	1012.8718	1062.8527	1081.4981	1103.6095	1109.1917	1143.6661	1152.6789	1173.5267	1196.0521	1236.3702	1254.4646	1268.7893	1293.3708	1328.0653	1332.989	1348.7618	1409.2908	1440.3279	1486.789	1497.615	1510.1819	1636.9387	3007.2679	3015.9556	3024.9928	3035.8081	3068.5868	3102.3689	3112.1803	3117.301	3142.0027	3226.8137	3253.7812
CCC1C2C3C=CC2N13	CC[C@H]1[C@H]2[C@@H]3C=C[C@H]2N13	
InChI=1S/C8H11N/c1-2-5-8-6-3-4-7(8)9(5)6/h3-8H,2H2,1H3	InChI=1S/C8H11N/c1-2-5-8-6-3-4-7(8)9(5)6/h3-8H,2H2,1H3/t5-,6-,7+,8-/m0/s1
