17
gdb 34986	2.7215	1.68263	1.45731	2.4533	76.98	-0.2359	0.0447	0.2807	961.9689	0.136304	-384.624318	-384.616988	-384.616044	-384.655909	29.442	
C	-0.1842614682	-1.282468334	-0.1960564106	-0.463878
C	 0.0118781969	-0.1016483813	-0.0797335975	 0.355517
C	 0.0830344269	 1.3274103616	 0.0270519504	-0.207905
C	 0.4746076594	 2.085718619	 1.2855580637	-0.077106
C	 1.2906083023	 1.4013275471	 2.3891648889	-0.271931
C	 2.6690927432	 1.1377049543	 1.7916895254	 0.044714
O	 2.6798254475	 0.2000430017	 0.7112087441	-0.235995
C	 2.68453692	 1.5929966623	 0.3897244585	 0.019846
C	 1.3419003278	 2.193535763	 0.0458473028	-0.084443
H	-0.3027089409	-2.3324902286	-0.295674573	 0.18931
H	-0.7298612257	 1.8147482416	-0.5084075091	 0.116099
H	-0.1868267473	 2.8931025139	 1.5800056239	 0.094099
H	 1.3867323662	 2.0770422792	 3.2455722359	 0.10719
H	 0.8280674087	 0.4753822977	 2.7470430263	 0.130257
H	 3.5491120059	 1.1133335528	 2.4308192234	 0.095658
H	 3.5749500918	 1.9527061483	-0.1187024608	 0.097571
H	 1.3398023658	 3.0773341014	-0.5815922424	 0.090999
107.4662	151.3408	241.3369	306.83	367.232	440.1774	567.6077	608.2055	634.3644	641.1868	686.1364	734.1835	744.8394	759.5356	840.0962	860.0558	881.4585	928.6222	954.7786	1005.5391	1022.3766	1044.2913	1047.9379	1073.6827	1107.159	1121.9542	1210.9581	1213.6179	1260.7542	1295.8219	1313.1827	1353.4233	1364.8808	1401.896	1435.1661	1473.3208	2235.9223	3048.1586	3089.2382	3116.9916	3134.1723	3151.3619	3164.6167	3181.1651	3507.4105
C#CC1C2CC3OC3C12	C#C[C@H]1[C@H]2C[C@H]3O[C@H]3[C@@H]12	
InChI=1S/C8H8O/c1-2-4-5-3-6-8(9-6)7(4)5/h1,4-8H,3H2	InChI=1S/C8H8O/c1-2-4-5-3-6-8(9-6)7(4)5/h1,4-8H,3H2/t4-,5+,6+,7-,8+/m0/s1
