12
gdb 24839	2.53608	1.87106	1.3025	5.3481	64.16	-0.2669	-0.0738	0.193	922.4337	0.078459	-468.822654	-468.815565	-468.814621	-468.854707	25.436	
N	-0.2062905355	 1.4179637151	 0.0902659136	-0.473239
C	-0.0442731251	 0.1703339454	-0.0362928932	 0.256815
N	 1.190910518	-0.4779012466	-0.2019175228	-0.264902
C	 1.4182442967	-1.4602406485	-0.9580872537	 0.134886
O	 0.6203043359	-2.0872813764	-1.88148361	-0.188442
C	-0.7306794195	-1.8824985868	-1.9905932684	 0.142907
N	-1.5471785705	-1.3849632895	-1.1736116293	-0.248056
C	-1.2213930717	-0.7902742775	 0.0594500751	 0.360334
O	-1.8249435913	-1.0155087997	 1.0705614754	-0.283174
H	 0.6934717443	 1.8998083967	 0.0121989611	 0.234517
H	 2.4009787065	-1.9222612677	-0.9919106099	 0.163133
H	-1.0605995578	-2.2872384645	-2.9438725478	 0.165221
90.4386	103.5374	251.6639	287.2199	316.1823	438.0977	471.2713	555.2677	658.1041	708.1335	779.1097	820.0016	854.2944	928.4611	956.1308	967.4796	979.8106	996.5593	1082.7895	1193.8351	1310.4025	1416.4962	1434.1739	1688.1886	1732.452	1764.1683	1838.4923	3183.1669	3188.5234	3445.0934
N=C1N=COC=NC1=O	[NH][C]1N=COC=NC1=O	
InChI=1S/C4H3N3O2/c5-3-4(8)7-2-9-1-6-3/h1-2,5H	InChI=1S/C4H3N3O2/c5-3-4(8)7-2-9-1-6-3/h1-2,5H
