17
gdb 28367	3.18419	1.36901	0.96885	2.4051	79.96	-0.2307	-0.0366	0.1941	1198.8372	0.13698	-418.101025	-418.092502	-418.091558	-418.134317	31.181	
C	-0.020759163	 1.5199596567	 0.0271560083	-0.489929
C	-0.0045769999	 0.0218951261	-0.0610424751	 0.404067
N	-0.0346431054	-0.5768927897	-1.214265883	-0.320021
C	-0.0161154342	-1.950250242	-1.1928703582	-0.077558
C	 0.0305383969	-2.7310326564	-0.0776956657	 0.129172
C	 0.0491628332	-4.2291549732	-0.0965939986	-0.477782
C	 0.0646794961	-2.0751780949	 1.2197680925	 0.365913
O	 0.1074894501	-2.6098040119	 2.3139495178	-0.385273
N	 0.0429525666	-0.6704833602	 1.1119610991	-0.374086
H	 0.876214607	 1.893784732	 0.5335574919	 0.144067
H	-0.0600928468	 1.9327244813	-0.9799830113	 0.163023
H	-0.8906608111	 1.8712009319	 0.5933954482	 0.144005
H	-0.0424450508	-2.4172337692	-2.1750987525	 0.109756
H	 0.0205190187	-4.6126988665	-1.1195936378	 0.118152
H	 0.9468035926	-4.6134992702	 0.3997374938	 0.142882
H	-0.8038365446	-4.6360099987	 0.4572014168	 0.142883
H	 0.0657260544	-0.179730845	 1.9968950638	 0.260729
94.4058	123.5231	141.7876	169.5858	268.0357	310.51	331.7624	421.5637	462.5717	544.4173	577.0914	636.9248	735.2612	749.8231	757.6054	799.836	960.0021	966.201	1026.5962	1038.7744	1063.3084	1071.337	1149.591	1202.5185	1275.0788	1299.9899	1395.3666	1405.9641	1415.3729	1465.386	1469.093	1483.2095	1487.2751	1497.979	1610.1355	1654.0074	1784.4034	3035.7825	3037.7118	3089.3917	3092.8256	3121.3629	3152.6029	3166.3635	3584.9521
CC1=NC=C(C)C(=O)N1	Cc1ncc(C)c(=O)[nH]1	
InChI=1S/C6H8N2O/c1-4-3-7-5(2)8-6(4)9/h3H,1-2H3,(H,7,8,9)	InChI=1S/C6H8N2O/c1-4-3-7-5(2)8-6(4)9/h3H,1-2H3,(H,7,8,9)
