20
gdb 95327	3.12324	1.39544	1.09453	3.5245	80.19	-0.2406	0.0287	0.2693	1154.8352	0.173425	-403.154412	-403.146568	-403.145624	-403.186692	30.982	
C	-0.1448295487	 1.511876275	 0.0794880878	-0.371617
C	 0.0328825558	-0.011412573	 0.0132895671	 0.049545
C	 0.6182749419	-0.4615152923	-1.3658935989	-0.217609
C	 2.1616785733	-0.5716193197	-1.4006874738	-0.248078
C	 2.4909366152	-1.5693209936	-0.2971488116	-0.127565
C	 3.7380255619	-1.6247924686	 0.6165896342	-0.133378
O	 2.8875129798	-1.3871444231	 1.7940826737	-0.270977
C	 1.8296424027	-1.0907285329	 0.9652082979	 0.434825
N	 0.8106061366	-0.4055518946	 1.206187808	-0.307802
H	 0.812684197	 2.0233733418	-0.0690425074	 0.111831
H	-0.8419200336	 1.8565780997	-0.6912555371	 0.105023
H	-0.5294437037	 1.8033634571	 1.0596776526	 0.129482
H	-0.9623792132	-0.4627114148	 0.1121351668	 0.086032
H	 0.2086653352	-1.4448688617	-1.6278144274	 0.098852
H	 0.2694178459	 0.2325189383	-2.1367719873	 0.100043
H	 2.5034790554	-0.8920549462	-2.3893400426	 0.100589
H	 2.6266932208	 0.398347564	-1.1878136227	 0.109201
H	 2.1723320879	-2.5776828926	-0.5792458492	 0.107286
H	 4.2622763947	-2.5796141997	 0.6903606242	 0.121296
H	 4.4491749651	-0.8022524032	 0.4957136457	 0.123021
82.9925	192.0957	218.6365	257.6162	318.6342	359.0878	424.3405	437.2021	492.0522	600.251	681.5281	720.1021	765.8596	820.1184	880.388	919.5814	939.1305	949.0309	970.9058	1001.2821	1031.897	1067.9041	1106.1346	1140.2833	1148.9259	1167.5583	1174.8166	1185.5338	1238.4721	1248.7644	1317.7348	1336.4691	1349.5795	1354.2896	1367.4148	1383.796	1405.5544	1483.8819	1493.2743	1497.1536	1501.538	1512.3764	1825.4579	3013.9494	3032.5775	3034.4775	3037.0669	3057.1948	3060.1344	3080.5641	3088.2545	3101.4378	3123.8258	3125.4892
CC1CCC2COC2=N1	C[C@H]1CC[C@H]2CO[C]2[N]1	
InChI=1S/C7H11NO/c1-5-2-3-6-4-9-7(6)8-5/h5-6H,2-4H2,1H3	InChI=1S/C7H11NO/c1-5-2-3-6-4-9-7(6)8-5/h5-6H,2-4H2,1H3/t5-,6-/m0/s1
