22
gdb 118422	2.46872	1.01068	0.77005	5.8966	79.82	-0.2479	0.0264	0.2744	1549.9442	0.193722	-441.524553	-441.514205	-441.513261	-441.560316	37.262	
C	 0.0409800111	 1.5827435111	-0.1670356601	-0.39221
C	 0.0112911028	 0.0681687794	 0.0598497642	-0.170917
C	-1.4054007941	-0.5281506513	 0.1088050368	-0.156298
C	-1.3987245718	-2.0502204584	-0.1453465917	-0.170671
N	-2.7633782176	-2.5600411234	-0.3484075175	-0.301552
H	-3.3689655404	-1.5454520569	 0.9498228836	 0.302384
H	-3.1271314535	-2.1839109482	-1.2197284304	 0.233827
C	-2.855424704	-4.0204259575	-0.374111178	-0.325815
C	-2.1289933023	-0.1793180302	 1.4282395266	 0.418846
O	-1.7162874216	 0.6392304539	 2.2104823645	-0.331983
O	-3.2696449026	-0.8439805264	 1.6485999872	-0.38062
H	 1.0723115347	 1.9459722863	-0.2138734008	 0.108872
H	-0.446285162	 1.8490361287	-1.1126259368	 0.101511
H	-0.4704001544	 2.1016179881	 0.6450529934	 0.154466
H	 0.5674661813	-0.4288265852	-0.7452604194	 0.083489
H	 0.5265829417	-0.1715140996	 0.9962164148	 0.115016
H	-2.002585064	-0.0710310157	-0.6968650235	 0.093835
H	-0.7446244055	-2.2778361606	-1.0011617771	 0.101745
H	-0.9772870923	-2.5725633043	 0.7222739419	 0.126497
H	-3.8847288571	-4.3172093688	-0.5908561782	 0.133364
H	-2.192078416	-4.4839868751	-1.1205434159	 0.113966
H	-2.5880429624	-4.416323006	 0.6102379764	 0.142247
63.1274	88.0765	122.2971	136.1485	186.2955	221.0842	251.9797	281.373	313.3069	329.5502	369.8663	436.767	536.1969	602.1728	731.0899	773.3254	802.9761	837.4166	922.4332	960.8032	993.4909	1017.8715	1029.9377	1072.6885	1112.8826	1128.6166	1135.2947	1162.27	1191.8969	1234.0634	1280.3241	1287.9532	1306.0803	1365.0767	1382.0596	1393.0047	1407.7472	1458.9306	1474.0958	1479.2218	1491.3761	1495.7662	1503.1588	1510.0729	1517.4098	1519.8178	1843.3133	2979.7877	2981.9658	2988.1116	3023.0309	3032.491	3056.2816	3073.0679	3080.7186	3096.8383	3121.895	3145.6083	3191.4668	3502.2061
CCC(C[NH2+]C)C([O-])=O	CC[C@@H](CNC)C(=O)O	
InChI=1S/C6H13NO2/c1-3-5(4-7-2)6(8)9/h5,7H,3-4H2,1-2H3,(H,8,9)	InChI=1S/C6H13NO2/c1-3-5(4-7-2)6(8)9/h5,7H,3-4H2,1-2H3,(H,8,9)/t5-/m0/s1
