21
gdb 52331	4.1955	0.76422	0.68346	4.188	79.89	-0.2753	0.0113	0.2866	1650.5931	0.183244	-424.267779	-424.258429	-424.257485	-424.304433	33.059	
O	 0.2001531238	 0.1131005702	-0.6027703527	-0.277676
C	 0.2478704401	 1.3058960875	-0.5653932065	 0.172373
O	 0.95443161	 1.9800589624	 0.3579581723	-0.179038
C	 0.9567696113	 3.415446134	 0.3106517063	-0.115441
C	 2.3657326572	 3.9419036353	 0.0854593137	 0.045842
C	 2.9894030086	 3.5788206619	-1.2746668151	-0.212238
C	 4.1284061689	 4.5980438974	-1.416845016	-0.201193
C	 3.5158895275	 5.9154180746	-0.8942241304	-0.200439
C	 2.4344630065	 5.4928619637	 0.1425756198	-0.228316
H	-0.2792062948	 1.9748677205	-1.2747008458	 0.074004
H	 0.2841270144	 3.762833804	-0.4864405807	 0.105394
H	 0.5543526906	 3.7631014848	 1.2679816059	 0.12115
H	 3.0032133487	 3.5262439799	 0.875417374	 0.089747
H	 3.3234916489	 2.5396045527	-1.3270333172	 0.112647
H	 2.2509255002	 3.7290710064	-2.075366219	 0.0889
H	 4.9705694161	 4.2940461149	-0.7836209935	 0.101819
H	 4.5081568864	 4.6812623759	-2.4388134944	 0.097084
H	 4.2684266476	 6.5795523029	-0.4611921144	 0.100943
H	 3.0503487248	 6.4649725091	-1.7186821053	 0.101922
H	 1.4632859116	 5.9304142091	-0.1169104104	 0.096484
H	 2.6691029916	 5.8403591329	 1.1523155394	 0.106032
26.5196	33.077	80.0585	139.006	202.8503	206.1052	338.9303	382.9609	413.8276	568.3512	625.4815	674.5517	775.9417	821.9251	874.0282	892.9026	906.6292	959.6322	976.5377	1014.9376	1031.8322	1042.9264	1046.2636	1094.0132	1128.0563	1151.8722	1196.5234	1220.608	1239.456	1277.818	1291.3053	1306.1456	1322.0149	1325.7305	1345.6299	1352.8751	1392.0278	1402.3512	1434.5232	1489.0911	1492.0426	1496.6658	1500.5604	1518.2994	1864.5418	2937.5911	3005.3043	3008.457	3029.5433	3036.2128	3038.3752	3052.9607	3073.919	3079.8334	3091.8333	3098.2301	3105.1913
O=COCC1CCCC1	O=COCC1CCCC1	
InChI=1S/C7H12O2/c8-6-9-5-7-3-1-2-4-7/h6-7H,1-5H2	InChI=1S/C7H12O2/c8-6-9-5-7-3-1-2-4-7/h6-7H,1-5H2
