18
gdb 33080	6.34485	0.74356	0.67384	2.505	73.95	-0.2196	0.0283	0.2479	1647.8159	0.147404	-439.129585	-439.120634	-439.11969	-439.16412	32.477	
C	-0.366680249	 1.6973806705	 0.2658531842	-0.382758
C	-0.4569396867	 0.2095670528	 0.6138625262	-0.172205
C	-0.9054183861	-0.6484261869	-0.5736494422	-0.289874
C	-1.0068241908	-2.1088474052	-0.2759309081	 0.257918
C	-0.7633685968	-2.7841196688	 0.8698909193	-0.130045
O	-1.0049587999	-4.1315487634	 0.629917264	-0.206541
C	-1.3809956323	-4.1547030593	-0.6654298521	 0.467731
O	-1.6838493377	-5.3416162331	-1.1891465277	-0.402274
N	-1.4087175499	-3.0176017136	-1.2672260827	-0.388768
H	-0.0447580101	 2.2887060636	 1.1283989929	 0.112119
H	 0.3498663303	 1.8715841403	-0.5443442926	 0.117395
H	-1.3367197846	 2.086649571	-0.0623142602	 0.11741
H	 0.5193399034	-0.1448458794	 0.9683877315	 0.100879
H	-1.1570846826	 0.0687290761	 1.4471406876	 0.100922
H	-1.8801497871	-0.2997179422	-0.9409186315	 0.11938
H	-0.2141975379	-0.5121354951	-1.416420473	 0.119351
H	-0.4445904396	-2.5295116627	 1.8639558218	 0.142479
H	-1.5729004426	-6.0132138046	-0.5054510674	 0.316882
42.2228	84.5359	122.7368	217.1629	249.9056	317.8675	335.0218	336.4086	356.0985	499.4701	637.2376	687.6652	695.2545	744.2433	754.2447	772.171	882.4894	910.0405	983.4365	1014.0351	1052.6368	1093.8479	1118.3768	1128.127	1199.3945	1241.1637	1250.3649	1258.8981	1317.7601	1333.8317	1399.6493	1414.3829	1434.027	1476.5155	1494.6417	1500.9133	1511.0117	1640.9335	1702.9961	3013.0993	3022.5778	3032.0699	3034.3017	3058.7117	3099.2661	3105.1517	3309.5267	3816.6502
CCCC1=COC(O)=N1	CCCc1coc(O)n1	
InChI=1S/C6H9NO2/c1-2-3-5-4-9-6(8)7-5/h4H,2-3H2,1H3,(H,7,8)	InChI=1S/C6H9NO2/c1-2-3-5-4-9-6(8)7-5/h4H,2-3H2,1H3,(H,7,8)
