15
gdb 44782	2.47607	2.17889	1.57562	2.2916	65.41	-0.246	-0.0376	0.2084	859.917	0.111899	-457.634053	-457.627351	-457.626407	-457.664945	26.902	
O	 0.1115986288	 0.1033714123	 0.0946247113	-0.324695
C	 0.0029609434	 1.2928801444	 0.0210963938	 0.434212
C	-1.2453029608	 2.1877588048	 0.0612551715	-0.333029
C	-0.4817399698	 3.493998942	-0.0775940274	-0.01308
O	 0.624082561	 3.312466984	 0.9411694208	-0.372437
C	 1.133459072	 2.3403245979	-0.1086213372	 0.219286
C	 2.1872933473	 1.8824139842	-1.1477745962	-0.192707
O	 1.1852231464	 2.3257557989	-2.1648622123	-0.315779
C	 0.684326231	 3.2709508121	-1.1307458703	 0.109435
H	-1.9349948432	 1.9614767001	-0.7568747486	 0.141083
H	-1.7736451037	 2.1141992827	 1.0140229634	 0.145054
H	-0.9874761682	 4.4523787068	 0.0250070452	 0.107678
H	 3.1005030178	 2.4780572458	-1.2169111585	 0.131194
H	 2.3731889802	 0.8086915603	-1.2074516708	 0.152665
H	 1.2661912178	 4.1933944638	-1.197467425	 0.111121
135.836	213.6861	291.6611	356.9842	433.4545	492.7346	526.7583	581.586	654.7991	703.1066	753.226	769.0656	815.9059	838.2064	870.428	935.8833	957.6174	978.0254	1010.4413	1052.8198	1108.4649	1112.1553	1127.9418	1200.9267	1234.1739	1238.6632	1262.0121	1276.7478	1339.2686	1380.4226	1447.5588	1489.1688	1885.1657	3067.681	3072.1318	3079.4925	3127.5809	3146.0274	3150.1477
O=C1CC2OC11COC21	O=C1C[C@H]2O[C@]31CO[C@@H]23	
InChI=1S/C6H6O3/c7-4-1-3-5-6(4,9-3)2-8-5/h3,5H,1-2H2	InChI=1S/C6H6O3/c7-4-1-3-5-6(4,9-3)2-8-5/h3,5H,1-2H2/t3-,5+,6+/m1/s1
