16
gdb 51131	4.57831	1.03539	0.97243	3.5584	69.48	-0.2415	-0.0052	0.2363	1204.3504	0.123007	-437.803966	-437.796308	-437.795364	-437.836671	28.901	
O	 0.0683629238	-0.0096275633	-0.1724617826	-0.26191
C	 0.0987203991	 1.1759037552	-0.2862107675	 0.150603
O	 1.0194938193	 1.9410637501	 0.3567424336	-0.225475
C	 0.9309369413	 3.3204947912	 0.1764698802	 0.413445
C	 1.0813887343	 4.0202896437	-1.1429199909	-0.366834
C	 2.0334594223	 4.3180578596	-0.0016375441	-0.084232
N	 1.5352872338	 5.1822691868	 1.1446243588	-0.132293
C	 0.1463964746	 5.6267009954	 0.901116924	-0.247733
C	 0.3849715397	 4.2250537372	 1.3011250205	-0.105933
H	-0.5856056364	 1.7757606279	-0.912724463	 0.091157
H	 1.5600703358	 3.4012912958	-1.8966646175	 0.137545
H	 0.3543277051	 4.7142248759	-1.5495557274	 0.125527
H	 3.1035911104	 4.1939471691	-0.0961563129	 0.127963
H	-0.1980035995	 6.303269016	 1.6783672541	 0.133948
H	-0.1904108164	 5.8935968671	-0.0935286503	 0.125395
H	 0.131276093	 3.8187403022	 2.2748041251	 0.118826
63.5681	137.5723	144.2499	295.26	349.208	388.4017	447.2192	487.0734	563.9499	684.586	730.0556	763.2062	829.1847	858.3444	899.3006	970.9493	979.2829	1004.058	1029.9602	1043.5799	1048.6194	1070.4778	1099.4947	1114.3427	1131.029	1150.5422	1199.6427	1228.5759	1251.2232	1325.8586	1381.0673	1416.5695	1474.4262	1514.3479	1874.719	2981.6233	3123.6262	3135.1809	3169.3394	3204.8295	3212.0473	3217.1076
O=COC12CC1N1CC21	O=CO[C@]12C[C@H]1N1C[C@@H]21	
InChI=1S/C6H7NO2/c8-3-9-6-1-4(6)7-2-5(6)7/h3-5H,1-2H2	InChI=1S/C6H7NO2/c8-3-9-6-1-4(6)7-2-5(6)7/h3-5H,1-2H2/t4-,5+,6-,7?/m1/s1
