19
gdb 65209	3.1392	1.3661	1.2692	1.9865	74.28	-0.2367	0.0766	0.3133	1083.2121	0.158099	-422.959935	-422.951726	-422.950782	-422.992714	31.777	
C	 0.1076071812	 1.5314126168	-0.7284113584	-0.470434
C	-0.0252711315	 0.1715395112	-0.0794972932	 0.387526
C	 1.0766429624	-0.8011267745	-0.1297091444	-0.224928
O	 0.8157161074	-0.0454924906	 1.0593268188	-0.268724
C	-1.4468006602	-0.338499121	 0.0337824368	 0.060958
O	-1.5652380198	-1.7018059105	 0.517955878	-0.302858
C	-2.536941334	-1.2855908784	 1.4883538666	 0.101372
C	-1.9357514425	-0.3531289535	 2.485916811	-0.300356
C	-2.3863874906	 0.1733918912	 1.1334133135	-0.154282
H	 1.1542150732	 1.8436863299	-0.7399564606	 0.132286
H	-0.2645998584	 1.5146639778	-1.7583333902	 0.12276
H	-0.4652743698	 2.2824683024	-0.1736026185	 0.13123
H	 0.8501089263	-1.8615868518	-0.0557073293	 0.133528
H	 1.9959933831	-0.5407232027	-0.6528985859	 0.107033
H	-1.9224424321	-0.263498353	-0.95450716	 0.081531
H	-3.4027760548	-1.9199993099	 1.6340189563	 0.103848
H	-2.5923032573	-0.0696976297	 3.3031893181	 0.110875
H	-0.8820524401	-0.4283463373	 2.7241320202	 0.149628
H	-3.1334742826	 0.9452815935	 1.0118447312	 0.099004
71.5016	165.2568	181.1994	196.9679	314.4996	330.011	364.2026	432.931	500.5049	548.6569	725.5316	769.7114	774.6233	807.9039	873.4831	905.0276	934.461	945.0904	971.7283	990.6526	1027.4127	1030.0637	1050.7836	1052.229	1081.6505	1095.3803	1109.2602	1136.05	1176.4006	1199.7533	1252.2443	1255.9787	1288.8634	1357.5517	1387.7964	1395.4381	1415.4599	1468.9656	1482.9264	1495.5697	1520.9648	3002.8982	3036.3795	3090.4152	3098.8152	3127.9728	3135.2381	3186.1415	3190.3041	3208.0317	3236.48
CC1(CO1)C1OC2CC12	C[C@]1(CO1)[C@H]1O[C@H]2C[C@@H]12	
InChI=1S/C7H10O2/c1-7(3-8-7)6-4-2-5(4)9-6/h4-6H,2-3H2,1H3	InChI=1S/C7H10O2/c1-7(3-8-7)6-4-2-5(4)9-6/h4-6H,2-3H2,1H3/t4-,5+,6+,7+/m1/s1
