18
gdb 32220	2.69777	1.49702	1.0417	1.9972	83.27	-0.2183	-0.0306	0.1876	1162.4769	0.1499	-398.194565	-398.186248	-398.185304	-398.227473	31.745	
C	 0.0567512858	 1.5446558724	-0.0585353567	-0.38171
C	-0.0011544626	 0.0123013798	 0.0903596048	-0.289542
C	-1.4072920069	-0.5325888269	 0.040708319	 0.283335
N	-2.0257100487	-0.7598129926	 1.1927065681	-0.291883
C	-3.2761190713	-1.2397224176	 1.1558284329	-0.051609
C	-3.9099837296	-1.4947147925	-0.0489986071	-0.021147
N	-3.317213569	-1.267419103	-1.224135305	-0.311637
C	-2.0732432158	-0.7889799723	-1.1889335629	 0.314134
N	-1.4457032993	-0.6116401444	-2.4075122497	-0.568672
H	 1.0906164509	 1.9010367494	-0.023449026	 0.119733
H	-0.3815536012	 1.8838883036	-1.0040940712	 0.108229
H	-0.4995997372	 2.0263480986	 0.7505982013	 0.136535
H	 0.6087313564	-0.4630262091	-0.6879567506	 0.105406
H	 0.4261982491	-0.2715038937	 1.0555508806	 0.124124
H	-3.7668571862	-1.4233983439	 2.1066722999	 0.104731
H	-4.922518297	-1.8892047331	-0.0807188058	 0.108344
H	-2.0814268904	-0.6370040286	-3.1915981874	 0.255444
H	-0.7410898771	 0.1048202038	-2.4683471541	 0.256184
85.2968	112.4556	201.6758	219.053	320.0816	355.7978	370.6762	452.9549	492.82	532.575	595.9907	600.2992	614.4419	732.7354	797.1868	836.9791	868.6087	906.2853	970.41	977.9033	1048.7048	1054.4436	1076.4636	1121.311	1221.0446	1257.9835	1273.1913	1310.5946	1344.9892	1360.4169	1409.3134	1460.3234	1483.6553	1492.3741	1498.9642	1508.736	1590.1747	1608.9428	1640.6268	3032.4646	3033.3954	3088.2388	3106.9178	3118.5372	3155.5292	3179.5623	3579.5515	3697.9389
CCC1=NC=CN=C1N	CCc1nccnc1N	
InChI=1S/C6H9N3/c1-2-5-6(7)9-4-3-8-5/h3-4H,2H2,1H3,(H2,7,9)	InChI=1S/C6H9N3/c1-2-5-6(7)9-4-3-8-5/h3-4H,2H2,1H3,(H2,7,9)
