15
gdb 27828	2.04145	1.9307	0.99844	2.2474	72.14	-0.2278	-0.0399	0.1879	1123.044	0.115115	-450.202147	-450.194315	-450.193371	-450.235028	28.987	
C	-0.0182552574	 1.4739656649	 0.0253013208	-0.490904
C	 0.0006825939	-0.0233731617	-0.0475556431	 0.407488
N	-0.020589963	-0.6225431753	-1.2071499348	-0.342086
C	 0.0006742246	-1.989779975	-1.1236069183	 0.427057
O	-0.0211042116	-2.5796368663	-2.3205520777	-0.377891
N	 0.0385993909	-2.745424182	-0.064024745	-0.40771
C	 0.0613638025	-2.1205809915	 1.1672266035	 0.40502
N	 0.0984419708	-2.6543588277	 2.3233410716	-0.572713
N	 0.0399553518	-0.7058456735	 1.1127942174	-0.325618
H	 0.8756001301	 1.8459866892	 0.5371392554	 0.152371
H	-0.0525171672	 1.8800532291	-0.9843787212	 0.169015
H	-0.8914556649	 1.821462683	 0.5875090141	 0.152203
H	-0.0031569663	-3.5326087041	-2.1499029289	 0.308551
H	 0.1100406898	-3.6673604143	 2.2192488782	 0.222553
H	 0.056104536	-0.2338150348	 2.0056077779	 0.272665
66.3572	132.7698	194.811	195.7911	300.9822	373.1142	537.4667	564.0415	575.9064	588.5584	616.9302	652.4745	670.9454	747.6641	809.34	847.2582	941.9089	972.3138	1040.9467	1065.5358	1067.028	1132.486	1271.7608	1279.2953	1320.5222	1403.9745	1458.0309	1483.0683	1483.9567	1504.0403	1607.3682	1661.2309	1744.1315	3045.8676	3104.5741	3172.0073	3515.0216	3615.3667	3764.9235
CC1=NC(O)=NC(=N)N1	C[C@H]1N=C(O)N=C([NH])N1	
InChI=1S/C4H6N4O/c1-2-6-3(5)8-4(9)7-2/h1H3,(H3,5,6,7,8,9)	InChI=1S/C4H7N4O/c1-2-6-3(5)8-4(9)7-2/h2,5H,1H3,(H2,6,7,8,9)/t2-/m1/s1
