14
gdb 78730	4.84428	1.18601	1.08366	4.7998	66.77	-0.2556	-0.0109	0.2447	1064.6235	0.100645	-436.612174	-436.605018	-436.604074	-436.64373	27.517	
O	 0.0149289369	 1.3309400926	 0.0886110145	-0.428131
C	 0.0131757349	-0.072900562	-0.012088733	 0.119035
C	-1.4251258146	-0.5622557329	-0.1334117495	-0.17046
C	-1.3850839443	-0.4564095606	-1.6477112809	-0.171546
C	 0.1722516024	-0.5948186406	-1.4751001054	-0.008117
O	 0.0723525577	-2.0392113271	-1.3248175245	-0.320349
C	-1.3087369168	-1.8194970157	-1.029864387	 0.379495
C	-2.2346025235	-2.9024704468	-1.0101418387	 0.202264
N	-3.0002195686	-3.7692417088	-0.9915339449	-0.340009
H	 0.9306979019	 1.6285460465	 0.0829465615	 0.292532
H	 0.6622401431	-0.551382815	 0.7325096514	 0.088116
H	-2.2571114681	-0.4062068676	 0.5398140982	 0.124791
H	-2.0482989947	-0.0278508654	-2.3843066006	 0.129609
H	 0.9643722938	-0.2700113865	-2.1457614912	 0.10277
129.7466	147.0532	246.2139	307.0904	330.453	457.0498	487.3232	526.2627	566.1083	641.4446	786.7372	800.1406	825.3023	867.6429	915.7645	942.1326	955.4926	974.297	1019.4082	1046.7965	1112.6922	1118.3344	1136.0912	1180.6251	1222.1577	1237.75	1262.988	1307.576	1391.5533	1429.282	2355.5547	3028.0119	3156.4221	3218.7328	3234.0508	3813.8811
OC1C2C3C1OC23C#N	O[C@H]1[C@H]2[C@H]3[C@@H]1O[C@@]23C#N	
InChI=1S/C6H5NO2/c7-1-6-2-3(6)5(9-6)4(2)8/h2-5,8H	InChI=1S/C6H5NO2/c7-1-6-2-3(6)5(9-6)4(2)8/h2-5,8H/t2-,3+,4+,5+,6+/m1/s1
