17
gdb 89200	2.58568	1.55539	1.20453	3.0941	68.16	-0.2652	-0.0034	0.2618	1063.0267	0.135047	-458.974201	-458.965879	-458.964935	-459.007047	31.3	
C	-0.7382691124	 1.3333949793	 0.0068163378	-0.408919
C	-0.0386110317	-0.0174788823	 0.0139398101	 0.016572
C	 1.088052913	-0.2920667539	-1.0371011859	-0.30299
C	 2.0717556228	-0.7046161476	 0.094731675	 0.232245
O	 2.720082664	-1.9042315365	-0.1133300853	-0.460949
C	 0.9666006609	-0.3132636778	 1.1460609831	 0.016008
O	 1.765218881	 0.8646285385	 1.5021071158	-0.255703
C	 2.8167858579	 0.4920454507	 0.694185931	 0.377953
O	 3.8957798144	 0.986676177	 0.6239855474	-0.329271
H	-0.0166414538	 2.1496382848	 0.0969798005	 0.136328
H	-1.2981821657	 1.4725015547	-0.9235855361	 0.120285
H	-1.4447073907	 1.4169134921	 0.8393676861	 0.121595
H	-0.7759317288	-0.8263418212	-0.0193583493	 0.089471
H	 0.8837365667	-1.1417807109	-1.6909109299	 0.128499
H	 1.4078055149	 0.5559793829	-1.6465453889	 0.122181
H	 3.4409019952	-1.9918281869	 0.5207235962	 0.298585
H	 0.6869241723	-0.875607113	 2.0356818225	 0.09811
87.8816	148.4738	212.3691	231.7298	238.7099	308.4989	326.9286	388.6819	443.0576	590.7712	602.8906	706.3913	740.9043	802.1688	841.8913	881.881	891.8709	938.8781	955.158	1012.1933	1027.9292	1100.8684	1113.8854	1131.4134	1178.8825	1184.4776	1245.8913	1278.5552	1318.7833	1351.7729	1353.7203	1374.0515	1412.0565	1477.1162	1493.2759	1500.0125	1928.2001	3037.697	3053.0078	3075.0234	3101.8944	3121.2822	3131.04	3134.3227	3802.3539
CC1CC2(O)C1OC2=O	C[C@H]1C[C@]2(O)[C@H]1OC2=O	
InChI=1S/C6H8O3/c1-3-2-6(8)4(3)9-5(6)7/h3-4,8H,2H2,1H3	InChI=1S/C6H8O3/c1-3-2-6(8)4(3)9-5(6)7/h3-4,8H,2H2,1H3/t3-,4-,6-/m0/s1
