17
gdb 78140	2.37292	1.69138	1.26645	6.4774	76.7	-0.2242	-0.0207	0.2035	1035.562	0.136781	-418.029027	-418.020865	-418.019921	-418.06136	31.599	
C	-0.0795314608	 1.5485194081	 0.1299212857	-0.422482
C	 0.004108484	 0.0590063053	-0.0940620665	 0.011402
C	 0.7006972061	-0.6085393217	-1.2508723352	-0.15684
N	 1.2401151421	-0.7223454463	 0.1052206661	-0.148368
C	 2.4673068958	 0.0833616031	 0.1139195268	 0.377738
O	 3.0669613509	 0.3281789811	 1.1312755137	-0.353271
C	 2.748398313	 0.4946796352	-1.2600193101	-0.343956
C	 1.7098928292	 0.1347366456	-2.0570201126	 0.390415
N	 1.50751275	 0.370161229	-3.3816156774	-0.594596
H	 0.738198149	 2.0912204499	-0.3468311273	 0.139744
H	-1.0274031461	 1.9275684702	-0.2652587936	 0.119771
H	-0.0502422438	 1.7641984574	 1.2027385798	 0.145355
H	-0.8699796757	-0.4818197404	 0.2686281254	 0.103392
H	 0.2615583695	-1.5035298644	-1.688955905	 0.099681
H	 3.6154136801	 1.0795752721	-1.5332836487	 0.101711
H	 2.2876537015	 0.6557594214	-3.9503779257	 0.267128
H	 0.7933595652	-0.1517676057	-3.8613974653	 0.263177
125.5114	156.8079	196.7992	224.6553	323.3752	346.8917	366.4416	434.9841	494.8226	512.4586	609.8396	645.5319	686.2436	754.3113	771.542	787.2971	842.1564	879.3124	928.7494	998.5294	1039.565	1073.3034	1085.349	1121.62	1148.4157	1172.399	1263.9653	1279.277	1325.955	1401.5204	1421.2825	1432.9277	1492.8914	1493.4882	1636.9153	1679.9919	1826.9308	3044.4297	3103.4253	3105.9866	3120.4438	3141.2911	3230.4537	3600.4858	3711.5141
CC1C2N1C(=O)C=C2N	C[C@H]1[C@@H]2N1C(=O)C=C2N	
InChI=1S/C6H8N2O/c1-3-6-4(7)2-5(9)8(3)6/h2-3,6H,7H2,1H3	InChI=1S/C6H8N2O/c1-3-6-4(7)2-5(9)8(3)6/h2-3,6H,7H2,1H3/t3-,6-,8?/m0/s1
