21
gdb 70240	2.866	1.35454	1.21666	1.9306	77.96	-0.2316	0.0772	0.3089	1140.3976	0.180678	-424.220808	-424.211722	-424.210778	-424.253918	36.115	
C	 0.1664900363	 1.5309222346	 0.0841306624	-0.428001
C	-0.0140302014	 0.0218983588	-0.0267102928	 0.394394
C	-1.4937668859	-0.3768171148	 0.0219218927	-0.414821
C	 0.6928809212	-0.6044920527	-1.261783205	-0.348891
C	 1.2370117804	-1.9327762375	-0.7290442154	 0.370963
O	 0.8777692347	-3.1205466009	-1.3671346681	-0.472164
C	 2.5048896683	-1.8752713397	 0.0980778167	-0.367476
C	 1.1397844578	-1.8324344153	 0.7585922323	 0.045703
O	 0.6616294319	-0.5687342301	 1.1168133216	-0.298578
H	 1.22927147	 1.7885914582	 0.0965459229	 0.115388
H	-0.3066869146	 2.0392809958	-0.7618470987	 0.113168
H	-0.2875722343	 1.9049603776	 1.0065117409	 0.12281
H	-2.0540385403	 0.0906413265	-0.7946923004	 0.109142
H	-1.6032640734	-1.461976129	-0.0689162506	 0.127741
H	-1.9362642825	-0.0633065491	 0.9717606486	 0.119307
H	-0.0089195937	-0.7919357877	-2.0780044547	 0.108611
H	 1.4871801682	 0.0500334777	-1.6365081864	 0.094229
H	 1.4885885783	-3.2630576087	-2.0984857064	 0.282758
H	 3.0595791694	-2.8031727265	 0.1950930091	 0.110788
H	 3.0966100993	-0.9656659948	 0.0969495604	 0.112193
H	 0.8086371304	-2.6610699724	 1.3764529609	 0.102737
73.9543	182.2209	222.6325	263.1892	287.2563	312.7144	314.4697	365.8427	387.4031	419.5337	438.796	475.2605	571.2886	639.7612	745.2661	781.4123	846.7402	897.4438	913.9805	918.2396	935.4629	957.9149	980.4063	1004.5989	1018.5237	1028.5361	1064.7667	1114.512	1146.8955	1183.8404	1234.9072	1256.5623	1267.0614	1284.5577	1316.4364	1339.5618	1397.5511	1404.9749	1415.5308	1471.9617	1475.588	1483.4141	1492.7309	1497.0648	1505.8813	3033.3805	3038.4926	3044.2865	3103.5348	3106.1196	3112.2357	3116.4265	3118.0221	3123.314	3161.2538	3220.9681	3793.6989
CC1(C)CC2(O)CC2O1	CC1(C)C[C@@]2(O)C[C@H]2O1	
InChI=1S/C7H12O2/c1-6(2)4-7(8)3-5(7)9-6/h5,8H,3-4H2,1-2H3	InChI=1S/C7H12O2/c1-6(2)4-7(8)3-5(7)9-6/h5,8H,3-4H2,1-2H3/t5-,7+/m1/s1
