19
gdb 61409	2.66001	1.03477	0.84808	3.1188	72.45	-0.2529	-0.0306	0.2223	1399.6681	0.154559	-460.206958	-460.196354	-460.19541	-460.243905	36.893	
C	 0.3856356611	 1.2738420206	-0.033543543	-0.472854
C	 0.3956273751	-0.2406085247	-0.1252185401	 0.378513
O	 1.2595980571	-0.9043079581	 0.4053211566	-0.295485
C	-0.7499060575	-0.8695213216	-0.9049867923	-0.339341
C	-0.7411815191	-2.4096245859	-0.9815317782	 0.049618
O	-2.0598047683	-2.8755965935	-1.1003953918	-0.446447
C	 0.0969397947	-2.9613902461	-2.1437424796	 0.359583
C	 1.5582719889	-2.6031929499	-2.2384243734	-0.479115
O	-0.4484223161	-3.6892518964	-2.9484019816	-0.32538
H	 1.217666027	 1.6124172798	 0.5845995531	 0.147004
H	 0.4685965174	 1.7136241696	-1.0340900286	 0.141975
H	-0.5607575289	 1.6279245729	 0.3893821813	 0.144759
H	-1.6866329804	-0.5870753063	-0.4081498145	 0.151956
H	-0.8091900442	-0.4109477565	-1.9008455358	 0.124964
H	-0.2763350451	-2.7818869371	-0.0544416259	 0.111849
H	-2.0510761965	-3.4486798443	-1.8858764767	 0.292167
H	 2.0327875071	-2.6264225791	-1.2551055781	 0.170344
H	 2.0544494797	-3.2765181252	-2.9384494701	 0.14355
H	 1.660743468	-1.576223078	-2.6097018014	 0.142338
34.9947	61.4792	97.4332	108.1654	145.0689	179.5142	225.4279	308.9154	332.8323	408.4344	441.8543	466.825	492.8504	568.5501	614.5143	640.6188	751.5177	848.1862	855.382	943.4908	979.9316	998.5951	1054.7472	1091.1638	1127.756	1178.2044	1197.5174	1217.0349	1306.8122	1313.1169	1373.9614	1385.6365	1392.3285	1442.8334	1445.8373	1462.3784	1464.5026	1472.5506	1476.0498	1790.0063	1800.8944	2985.4661	3029.4031	3039.6807	3042.4554	3064.7187	3099.2107	3113.8433	3154.7397	3162.2422	3653.6714
CC(=O)CC(O)C(C)=O	CC(=O)C[C@@H](O)C(=O)C	
InChI=1S/C6H10O3/c1-4(7)3-6(9)5(2)8/h6,9H,3H2,1-2H3	InChI=1S/C6H10O3/c1-4(7)3-6(9)5(2)8/h6,9H,3H2,1-2H3/t6-/m1/s1
