19
gdb 75609	1.84339	1.84155	1.20304	1.2251	71.64	-0.2534	-0.0346	0.2188	1101.8124	0.155867	-460.166194	-460.156183	-460.155239	-460.200369	36.871	
C	-0.0798043576	 1.4486102425	 0.0069567943	-0.436037
C	-0.0387586541	-0.0759040374	-0.0016786329	 0.192553
C	-1.4058989609	-0.6979089638	-0.2606915525	-0.462432
C	 1.1382517041	-0.6344469226	-0.9215430152	 0.039349
O	 1.6247664167	 0.0989086375	-1.9993962972	-0.426786
C	 1.9517045572	-0.5839794156	 0.3604098228	 0.262196
O	 3.0202646594	-0.0594994932	 0.5632561849	-0.333489
C	 0.7343625327	-0.6577016055	 1.266111065	 0.03935
O	 0.8011757413	 0.0514726547	 2.4614676197	-0.426782
H	 0.9046817047	 1.8897684749	 0.193343535	 0.114123
H	-0.4303600018	 1.8236846269	-0.9583628685	 0.130125
H	-0.7532374698	 1.805077451	 0.7910688464	 0.130125
H	-1.8012616788	-0.3791458289	-1.231314866	 0.128164
H	-1.3513873781	-1.7917740215	-0.2622526888	 0.11396
H	-2.1229542918	-0.3976642888	 0.5111347879	 0.128164
H	 0.8913317831	-1.6513784444	-1.2470875194	 0.105395
H	 2.3942676107	 0.5900963215	-1.681851313	 0.298311
H	 0.3913453221	-1.6801654027	 1.4610557791	 0.1054
H	 1.6313981409	 0.5462693455	 2.4497263884	 0.298311
102.9218	162.963	165.8005	189.7863	218.2714	228.8	239.8015	270.9042	322.4973	331.4744	339.0187	430.3912	532.3892	564.9842	676.5171	688.7162	758.0529	800.3796	910.9962	964.9778	973.651	986.6669	1007.764	1092.8096	1127.4277	1128.7975	1193.7721	1235.8595	1254.7295	1272.293	1306.8589	1359.7606	1402.8161	1412.8755	1421.4987	1433.1743	1481.7887	1487.9675	1502.4378	1502.6584	1828.5155	3025.157	3042.0018	3042.5954	3052.1549	3096.8808	3096.9323	3106.7684	3123.4686	3757.6491	3760.5233
CC1(C)C(O)C(=O)C1O	CC1(C)[C@@H](O)C(=O)[C@H]1O	
InChI=1S/C6H10O3/c1-6(2)4(8)3(7)5(6)9/h4-5,8-9H,1-2H3	InChI=1S/C6H10O3/c1-6(2)4(8)3(7)5(6)9/h4-5,8-9H,1-2H3/t4-,5+
