15
gdb 45634	3.9917	0.93129	0.81695	4.9448	72.72	-0.2306	-0.0203	0.2103	1338.7788	0.113205	-416.869989	-416.861812	-416.860868	-416.903619	29.6	
O	-0.048674526	-0.0034068549	-0.0890997972	-0.355756
C	-0.040584745	 1.201304154	-0.0352604827	 0.428698
C	-1.2223635218	 2.1832655101	-0.1359170071	-0.452656
C	-0.5782106525	 3.5390548384	 0.0200492338	 0.259341
C	-1.3094213712	 4.8492067387	 0.0102466357	-0.445752
C	-2.0115560151	 5.0966910048	-1.2561410112	 0.263523
N	-2.5649322921	 5.2685528599	-2.2557123884	-0.306257
C	 0.7403476734	 3.3600384022	 0.1677517226	-0.102933
N	 1.0791752081	 2.0037598612	 0.1393373635	-0.321877
H	-1.7301224596	 2.0507525461	-1.0983903393	 0.167277
H	-1.9587901358	 1.9510682892	 0.6425606719	 0.148571
H	-2.0557182132	 4.8942216957	 0.8157133594	 0.15836
H	-0.6107400874	 5.6746907888	 0.1864162558	 0.156848
H	 1.5152333729	 4.1030860105	 0.296817518	 0.135899
H	 2.0068682153	 1.6270395154	 0.2398698651	 0.266715
59.173	81.4438	135.2966	267.9356	291.5883	385.6797	406.5829	465.6566	491.5155	500.8059	582.8085	645.8282	759.3118	842.9365	868.6487	895.8458	927.9811	946.0632	964.8583	1090.271	1150.361	1177.6557	1200.8701	1228.7986	1298.9473	1331.1048	1369.449	1404.3536	1434.4394	1453.7165	1709.761	1848.8426	2361.5534	3014.6487	3044.7342	3072.8204	3079.0087	3232.9851	3667.1863
O=C1CC(CC#N)=CN1	O=C1CC(=CN1)CC#N	
InChI=1S/C6H6N2O/c7-2-1-5-3-6(9)8-4-5/h4H,1,3H2,(H,8,9)	InChI=1S/C6H6N2O/c7-2-1-5-3-6(9)8-4-5/h4H,1,3H2,(H,8,9)
