16
gdb 116999	4.40726	0.59093	0.55153	3.7695	81.15	-0.2694	-0.0803	0.1891	1967.7992	0.121641	-437.89063	-437.880314	-437.87937	-437.929128	33.691	
C	-0.4246734869	 1.3044301284	-0.2121087685	-0.372285
C	 0.494141208	 0.1537186926	 0.2057830949	-0.155819
N	 1.1332286392	-0.5065223087	-0.9253923409	-0.314504
C	 0.6371085053	-1.6471061173	-1.4751386356	 0.272935
O	-0.3398602099	-2.2499494708	-1.0689775617	-0.353925
C	 1.3981944398	-2.125411001	-2.6270591208	-0.008481
C	 1.9759331291	-2.5631087558	-3.5942188447	 0.110503
C	 2.6768324773	-3.1165172682	-4.728775008	 0.016647
O	 2.7484060447	-2.5785532756	-5.8083002718	-0.217763
H	 0.1265489791	 2.0760571346	-0.7595187093	 0.116952
H	-1.2312501201	 0.9377965726	-0.8526606749	 0.142301
H	-0.8710705807	 1.7709166005	 0.6715492387	 0.125193
H	 1.2791704903	 0.5121599561	 0.8801110306	 0.112597
H	-0.0750514527	-0.6156799512	 0.7314258723	 0.153231
H	 1.8994634542	-0.0490235726	-1.3941559863	 0.259657
H	 3.1564242234	-4.0951947138	-4.5287554139	 0.112761
19.1777	35.2203	54.6328	90.8503	131.589	213.8054	258.3688	283.0484	318.681	393.9201	445.7161	475.6929	587.3499	676.5965	757.5542	769.3287	876.7757	902.3718	1018.7895	1023.2306	1092.6303	1132.622	1172.5659	1251.2849	1327.3256	1393.8416	1410.7552	1418.5105	1476.7528	1491.7705	1501.6693	1542.3528	1756.3133	1770.326	2313.8064	2932.5319	3038.9349	3050.4469	3103.2158	3120.1744	3131.2023	3632.5041
CCNC(=O)C#CC=O	CCNC(=O)C#CC=O	
InChI=1S/C6H7NO2/c1-2-7-6(9)4-3-5-8/h5H,2H2,1H3,(H,7,9)	InChI=1S/C6H7NO2/c1-2-7-6(9)4-3-5-8/h5H,2H2,1H3,(H,7,9)
