15
gdb 49266	2.79141	1.37603	0.94503	2.4706	70.15	-0.2694	-0.0862	0.1832	1163.6172	0.113911	-454.010607	-454.002929	-454.001985	-454.043193	28.226	
O	-0.8372566569	 1.3145110022	-0.0791917925	-0.265019
C	 0.2791264167	 0.8757692602	 0.0525747634	 0.13621
C	 1.4955405889	 1.7444611147	 0.0113344414	 0.280217
N	 2.6358375365	 1.2077140898	 0.2105674891	-0.266712
C	 3.7677496504	 2.1299813545	 0.244441756	-0.182193
C	 3.6071808359	 3.3486125785	-0.6773167516	-0.338999
C	 2.240577945	 4.0012263906	-0.5436944058	 0.411507
O	 1.9996236221	 5.1666252216	-0.7474597172	-0.3385
N	 1.246673917	 3.088937089	-0.2124396802	-0.376733
H	 0.5059025458	-0.1919923514	 0.2254256168	 0.120053
H	 3.8858041394	 2.4600940567	 1.2878200665	 0.132354
H	 4.6768935976	 1.5772810454	-0.0071946833	 0.127461
H	 4.3730246714	 4.1043952819	-0.4936656755	 0.142161
H	 3.7038161561	 3.0375210222	-1.7260667672	 0.14321
H	 0.2785792641	 3.3828626042	-0.2633198798	 0.274981
115.0342	123.6316	170.1067	194.9476	313.466	418.5065	466.5713	518.8028	526.8528	626.3527	642.251	696.906	720.0266	791.5193	895.6918	959.7648	1006.4643	1031.2716	1058.1854	1104.2968	1186.8019	1228.6931	1246.7841	1284.3938	1331.4431	1370.7231	1387.727	1459.6	1480.222	1483.1395	1718.4891	1807.2103	1829.0671	2983.5432	3001.447	3034.902	3085.1482	3121.9057	3579.2773
O=CC1=NCCC(=O)N1	O=CC1=NCCC(=O)N1	
InChI=1S/C5H6N2O2/c8-3-4-6-2-1-5(9)7-4/h3H,1-2H2,(H,6,7,9)	InChI=1S/C5H6N2O2/c8-3-4-6-2-1-5(9)7-4/h3H,1-2H2,(H,6,7,9)
