18
gdb 23356	3.27081	1.18443	0.97409	1.1919	74.54	-0.2367	0.0064	0.2432	1225.0051	0.14553	-438.996567	-438.987639	-438.986695	-439.031203	32.783	
C	 0.4524163097	 1.3793072545	 0.008133195	-0.489766
C	 0.0874700515	-0.0716990501	 0.1470255543	 0.331967
N	-0.250049703	-0.6647681924	 1.2262613667	-0.164928
O	-0.2825925001	 0.2075208612	 2.3236189623	-0.393815
C	 0.074262299	-0.9118159862	-1.1021731442	 0.059499
O	 1.3188679089	-0.8141165399	-1.8677155231	-0.309062
C	 1.3885345782	-2.2445411918	-1.9354015676	 0.103154
C	 1.5587160459	-2.8341342554	-0.5735848905	-0.287932
C	 0.178689525	-2.4321875992	-1.0504082268	-0.131524
H	 1.1579002928	 1.5074230812	-0.8157401229	 0.150837
H	-0.4386703304	 1.9812651681	-0.2088179546	 0.138402
H	 0.8882911656	 1.756513753	 0.9340758208	 0.151291
H	-0.500951541	-0.3889546774	 3.0474417153	 0.306463
H	-0.7507271948	-0.5844086287	-1.7518761644	 0.093489
H	 1.693657123	-2.6889180229	-2.8752361772	 0.104316
H	 1.7207017525	-3.9074388716	-0.5480932842	 0.11324
H	 2.0646821202	-2.2689895397	 0.2021120855	 0.122637
H	-0.6527672831	-3.1186053328	-1.1173259146	 0.101732
46.0319	58.8051	123.4435	166.1473	281.1961	310.995	378.8332	401.4	423.4127	493.2604	537.4721	699.7193	727.7666	772.947	809.4357	865.1756	936.7447	956.8642	974.3524	985.1033	1026.619	1029.7658	1041.7502	1048.5838	1063.3344	1078.2393	1085.4992	1195.1838	1230.1094	1260.8468	1301.7293	1358.0356	1371.7687	1394.179	1406.3303	1474.7791	1480.866	1487.5718	1734.3114	2994.8065	3038.1757	3109.6782	3126.6793	3153.7765	3183.9516	3213.4431	3221.2104	3819.8247
CC(=NO)C1OC2CC12	CC(=NO)[C@H]1O[C@H]2C[C@@H]12	
InChI=1S/C6H9NO2/c1-3(7-8)6-4-2-5(4)9-6/h4-6,8H,2H2,1H3	InChI=1S/C6H9NO2/c1-3(7-8)6-4-2-5(4)9-6/h4-6,8H,2H2,1H3/t4-,5+,6-/m1/s1
