21
gdb 6555	3.05627	1.5854	1.42621	1.1225	74.98	-0.2198	0.0675	0.2873	1017.1286	0.186	-366.227436	-366.217789	-366.216844	-366.26118	36.196	
C	 1.2501765716	 0.9976617347	-0.9233754024	-0.30911
N	 0.5581201521	-0.1022438124	-0.265584149	-0.088034
C	 1.3201663246	-1.2528088291	 0.1873785137	-0.256829
C	 0.6561469507	-0.3459032913	 1.1732753882	-0.02983
C	 1.3863736305	 0.5347993779	 2.202051817	 0.340347
C	 0.9961511888	 0.0375485404	 3.605145284	-0.414943
C	 2.9126678289	 0.5707663485	 2.0895157717	-0.413883
O	 0.9673545156	 1.9016641239	 2.0501310114	-0.457642
H	 2.3148143201	 1.0927375329	-0.6701430556	 0.104248
H	 1.1767626403	 0.8440871346	-2.0053008771	 0.115973
H	 0.7606450164	 1.940011524	-0.6694212107	 0.128544
H	 0.903529112	-2.2334269564	-0.0336942552	 0.108617
H	 2.4059124419	-1.2007930417	 0.1165211034	 0.105452
H	-0.3011501941	-0.6909122021	 1.5692323048	 0.079071
H	 1.3064582514	-1.0013411619	 3.7588025031	 0.118812
H	 1.4670780653	 0.6622008748	 4.3687546712	 0.12025
H	-0.0896437612	 0.0852045659	 3.745821238	 0.105135
H	 3.2453155277	 0.955341558	 1.1246723098	 0.126972
H	 3.3094467127	 1.2332718484	 2.8642516434	 0.122682
H	 3.3371644021	-0.4256780395	 2.2348258585	 0.116229
H	 0.0048397526	 1.9197996504	 2.0934812718	 0.27794
52.66	151.1537	201.5367	208.8593	242.3842	258.5404	296.5518	302.0295	357.1257	372.0975	392.371	426.9959	496.687	590.446	704.2244	774.9354	857.2868	915.6516	929.2996	952.8076	1004.5592	1028.2378	1042.0727	1098.2343	1124.5058	1132.9083	1154.9865	1169.8329	1203.6539	1206.9985	1218.9224	1350.7859	1378.3416	1392.0402	1402.8902	1432.8461	1452.2027	1476.7617	1479.0732	1486.0656	1495.9529	1507.5179	1507.6468	1521.8183	3005.8747	3028.889	3053.5805	3070.3124	3073.0673	3085.2993	3096.5807	3117.0488	3124.0063	3125.9183	3146.1088	3164.5498	3800.9261
CN1CC1C(C)(C)O	CN1C[C@H]1C(C)(C)O	
InChI=1S/C6H13NO/c1-6(2,8)5-4-7(5)3/h5,8H,4H2,1-3H3	InChI=1S/C6H13NO/c1-6(2,8)5-4-7(5)3/h5,8H,4H2,1-3H3/t5-,7?/m0/s1
