19
gdb 52512	2.83162	0.9391	0.83692	2.7685	83.24	-0.2503	-0.0479	0.2024	1495.1788	0.153856	-423.022903	-423.011551	-423.010607	-423.06185	39.028	
C	-0.071213445	 1.4397320563	 0.5057885882	-0.504336
C	 0.0088140178	 0.0227274598	 0.2012741217	 0.076259
C	 0.0824931011	-1.1554688735	-0.0501465735	 0.11912
C	 0.1004797509	-2.562743135	-0.3657436338	 0.158219
O	-0.8901044775	-3.1471440017	-0.7574577135	-0.321209
C	 1.4248517001	-3.3297111402	-0.172871192	 0.25851
C	 1.218545408	-4.3378596747	 0.9702021587	-0.413594
C	 1.7741589516	-4.0380122056	-1.4898573064	-0.413355
O	 2.4195295645	-2.3726413199	 0.1707967214	-0.465267
H	 0.910461843	 1.8516441089	 0.7613578356	 0.159334
H	-0.4656707302	 1.9997335456	-0.3491661828	 0.161681
H	-0.744761793	 1.6152732425	 1.351986872	 0.161762
H	 0.3837442379	-5.0062958849	 0.7468118803	 0.141351
H	 2.1228868678	-4.9424512467	 1.1049361879	 0.10414
H	 1.0118272439	-3.8130566121	 1.9072332787	 0.128344
H	 1.9821351959	-3.3017229805	-2.2711891829	 0.126959
H	 2.6646157012	-4.6628808513	-1.35704221	 0.101578
H	 0.9462418891	-4.6722969308	-1.8135876867	 0.14263
H	 3.242407623	-2.8489113263	 0.3219239971	 0.277872
12.3189	22.2452	82.7365	137.5467	213.8989	220.3078	246.2414	250.13	275.4163	291.8558	348.884	384.2684	395.5574	436.3123	461.3224	593.671	657.0166	765.1141	823.4144	928.5315	960.5409	989.8775	1015.4084	1044.1355	1053.6444	1136.0769	1182.2294	1209.1298	1234.7484	1375.6269	1384.1029	1405.3459	1408.7173	1468.8713	1473.7101	1477.8249	1483.1519	1496.181	1511.6747	1749.2253	2338.5859	3030.7745	3031.3887	3035.9707	3093.2841	3098.8432	3103.9773	3107.7903	3132.7751	3138.8622	3815.7923
CC#CC(=O)C(C)(C)O	CC#CC(=O)C(C)(C)O	
InChI=1S/C7H10O2/c1-4-5-6(8)7(2,3)9/h9H,1-3H3	InChI=1S/C7H10O2/c1-4-5-6(8)7(2,3)9/h9H,1-3H3
