13
gdb 130743	3.18497	1.26794	1.02157	2.4569	64.64	-0.2511	-0.0092	0.2419	1115.773	0.088907	-452.737795	-452.730007	-452.729063	-452.771252	27.685	
O	-0.0763613992	 0.0193983335	 0.5413012604	-0.394038
C	-0.0315374189	 1.186289926	 0.2771359581	 0.502776
O	-1.1364743266	 2.0442528256	 0.2113465666	-0.200077
C	-0.6386785354	 3.2608848058	-0.1129074428	 0.105031
N	 0.6339826312	 3.3064146339	-0.2615191831	-0.221682
N	 1.0274331493	 2.0068358041	-0.0113325292	-0.088317
C	 2.4121012432	 1.5855346033	-0.1190378199	-0.312701
C	 2.9085216445	 1.5594481824	-1.4923436761	 0.320334
C	 3.3297232845	 1.5369390498	-2.6159800815	-0.439446
H	-1.3259016996	 4.0844251082	-0.2180600175	 0.175343
H	 3.0278633132	 2.2505340484	 0.4960386816	 0.160869
H	 2.4490861273	 0.5848974384	 0.3237280693	 0.180991
H	 3.6986813465	 1.5155575606	-3.611848216	 0.210917
43.1149	76.4868	215.406	258.0179	269.9867	321.7677	439.9352	565.0332	628.2675	640.6055	678.9167	719.4801	748.2225	797.9757	844.5693	937.648	942.0441	961.1418	1005.0253	1122.2019	1204.3891	1298.5993	1331.0373	1387.6214	1400.2889	1458.2519	1638.736	1902.3033	2249.1264	3048.9536	3096.8672	3289.3512	3504.2789
O=C1OC=NN1CC#C	O=c1ocnn1CC#C	
InChI=1S/C5H4N2O2/c1-2-3-7-5(8)9-4-6-7/h1,4H,3H2	InChI=1S/C5H4N2O2/c1-2-3-7-5(8)9-4-6-7/h1,4H,3H2
