18
gdb 79117	4.85164	1.22625	1.11796	3.5545	76.73	-0.2394	-0.0217	0.2177	1109.9952	0.148733	-401.903827	-401.89655	-401.895606	-401.935379	29.01	
C	-0.1431797899	 1.5801752714	 0.0876747776	-0.44002
C	 0.0300338168	 0.0775465647	-0.0142904479	 0.08951
C	 0.8034943809	-0.6121840163	-1.1537705617	-0.096167
C	 2.1124374782	-0.1455321456	-0.4546986125	 0.012391
C	 3.2097018127	-1.1903062202	-0.5665780873	-0.369085
C	 2.3281155669	-2.4315913771	-0.3850765787	 0.43511
O	 2.6243838588	-3.595409826	-0.4246581811	-0.321781
C	 0.9699654642	-1.8075474815	-0.1663474275	-0.108138
N	 1.2132053933	-0.5650671395	 0.742938971	-0.178318
H	 0.731571365	 2.1469003457	-0.2390635818	 0.121759
H	-0.9936886727	 1.8963452665	-0.5255528984	 0.124715
H	-0.3588602	 1.8591951832	 1.124269589	 0.13616
H	-0.9075517008	-0.4175272219	 0.2624338758	 0.078334
H	 0.5761982368	-0.6589224004	-2.2255190666	 0.072144
H	 2.4040998154	 0.9021805964	-0.4684447614	 0.08359
H	 3.730484331	-1.1938763023	-1.528892013	 0.129937
H	 3.9549703638	-1.1145288481	 0.2315833101	 0.139813
H	 0.1330840195	-2.4494845591	 0.1043067044	 0.090046
119.4757	172.9134	239.6695	260.9969	351.0208	409.3794	548.7563	594.186	609.3001	674.0331	721.957	765.0223	799.4244	830.2177	863.6497	903.2674	942.0978	966.4515	1009.9443	1047.0076	1057.6909	1094.9115	1113.2405	1127.5628	1141.3144	1168.9446	1187.5073	1216.7803	1255.7144	1263.97	1265.5032	1269.979	1355.4498	1411.1316	1431.2565	1445.2591	1493.727	1497.2254	1868.7743	3030.2482	3039.2877	3045.1883	3058.1972	3103.0524	3105.1887	3122.3398	3140.5617	3147.3899
CC1C2C3CC(=O)C2N13	C[C@H]1[C@H]2[C@@H]3CC(=O)[C@H]2N13	
InChI=1S/C7H9NO/c1-3-6-4-2-5(9)7(6)8(3)4/h3-4,6-7H,2H2,1H3	InChI=1S/C7H9NO/c1-3-6-4-2-5(9)7(6)8(3)4/h3-4,6-7H,2H2,1H3/t3-,4-,6-,7+/m0/s1
