18
gdb 7796	3.12342	1.84439	1.23716	3.8604	68.69	-0.215	0.0316	0.2466	983.907	0.156443	-381.160362	-381.15263	-381.151686	-381.192434	29.346	
C	-0.0468932987	 1.5569947231	 0.0083087226	-0.398901
C	 0.0290132974	 0.0303089114	-0.0102662472	 0.047738
C	 0.6978110452	-0.5077241692	-1.2828185616	-0.163058
N	 0.9817228314	-1.9365665921	-1.2253461355	-0.292191
C	 1.8715597669	-2.2522974382	-0.1097291104	-0.280731
C	 1.5867915947	-1.548832636	 1.2210293959	 0.380794
O	 2.0933674908	-1.9181723215	 2.2644909104	-0.377286
N	 0.7700762384	-0.4542526932	 1.152789159	-0.312297
H	 0.9549812403	 1.9948227025	-0.0441842432	 0.129073
H	-0.6329653297	 1.922087332	-0.8408217602	 0.123648
H	-0.52872085	 1.9175831112	 0.9235122602	 0.118504
H	-0.9998706265	-0.367296019	 0.0216364684	 0.076395
H	 0.0571514517	-0.2965208005	-2.145027802	 0.107267
H	 1.64733018	 0.0208281403	-1.4426907164	 0.110622
H	 0.110967233	-2.4487014929	-1.12028844	 0.220326
H	 1.8676571696	-3.3276929052	 0.0821866386	 0.134554
H	 2.9026031186	-1.991568509	-0.3861632487	 0.135908
H	 0.575583077	-0.0323986636	 2.0512069001	 0.239637
98.7652	109.3442	234.9218	280.9853	288.7166	428.3048	449.3409	455.1863	510.6267	531.3349	634.8364	661.1318	776.9353	847.8438	882.6547	933.3202	962.9947	1002.9967	1020.8074	1092.4289	1140.7564	1158.8959	1193.938	1221.7696	1324.903	1326.9074	1347.4384	1355.0046	1381.3093	1401.3344	1410.7214	1454.2493	1468.4253	1479.1001	1489.7566	1497.1049	1500.3731	1789.4041	2947.969	3020.5231	3023.926	3033.6632	3081.4507	3101.5978	3110.3459	3114.2269	3507.8042	3584.005
CC1CNCC(=O)N1	C[C@H]1CNCC(=O)N1	
InChI=1S/C5H10N2O/c1-4-2-6-3-5(8)7-4/h4,6H,2-3H2,1H3,(H,7,8)	InChI=1S/C5H10N2O/c1-4-2-6-3-5(8)7-4/h4,6H,2-3H2,1H3,(H,7,8)/t4-/m0/s1
