22
gdb 97371	3.04828	0.83885	0.71884	2.7601	87.85	-0.2455	0.0283	0.2737	1676.4331	0.191968	-404.335571	-404.325181	-404.324237	-404.371873	37.266	
C	 0.0543046594	 1.4841915788	-0.0706263167	-0.314192
N	-0.0674711852	 0.0420256337	-0.055031297	-0.21197
C	 0.5191613748	-0.5965729294	-0.9657807603	 0.135251
O	 0.4245897042	-1.9379003995	-1.0408496504	-0.214166
C	 1.2438457745	-2.6033061039	-2.0154418241	 0.083751
C	 2.6107345832	-2.9219280846	-1.4111773066	-0.387457
C	 0.509755065	-3.8474956862	-2.4744800235	 0.00893
C	-0.3287248068	-4.6590707007	-1.5207311585	-0.257276
C	-0.9869463164	-3.8713509824	-2.6286028199	-0.277763
H	 0.6758393007	 1.8745849582	-0.8939138204	 0.093638
H	-0.9404483389	 1.9380419435	-0.1492391721	 0.126837
H	 0.485113573	 1.8279294739	 0.8768369482	 0.12642
H	 1.1254522864	-0.1388097381	-1.7645324443	 0.071937
H	 1.3727820528	-1.9300271085	-2.8767003421	 0.081634
H	 3.2402072737	-3.4378676232	-2.1431630807	 0.117693
H	 3.1258025622	-2.0069325511	-1.1030530081	 0.117532
H	 2.4946614071	-3.5667846849	-0.5358142933	 0.136382
H	 1.0793808694	-4.4076796302	-3.2109807457	 0.084324
H	-0.2929457565	-5.739819469	-1.599927769	 0.107567
H	-0.4469149867	-4.27917917	-0.5129397367	 0.134788
H	-1.5339874957	-2.9821344064	-2.3384347295	 0.128279
H	-1.4045200402	-4.40860582	-3.4728939294	 0.107862
41.6683	81.5389	90.1165	143.5566	202.1518	213.3879	226.7973	261.0348	296.0062	372.7429	424.4353	480.1334	497.305	648.8028	767.7088	801.9258	828.889	895.8304	919.7383	972.2277	984.9955	1023.6716	1059.334	1066.0766	1088.2341	1098.4737	1130.7121	1139.9064	1141.9892	1150.2501	1177.0088	1202.6613	1235.8192	1253.9845	1347.7682	1371.5164	1405.3459	1411.3581	1422.291	1451.2617	1460.8998	1481.1121	1488.4417	1494.2639	1504.6594	1506.2963	1776.392	2962.2924	2977.7339	2989.9702	3040.2525	3055.4613	3075.0555	3110.7696	3124.7327	3139.2429	3140.5413	3147.353	3223.3415	3236.8159
CN=COC(C)C1CC1	CN=CO[C@@H](C)C1CC1	
InChI=1S/C7H13NO/c1-6(7-3-4-7)9-5-8-2/h5-7H,3-4H2,1-2H3	InChI=1S/C7H13NO/c1-6(7-3-4-7)9-5-8-2/h5-7H,3-4H2,1-2H3/t6-/m0/s1
