23
gdb 102662	2.95355	0.78547	0.69533	3.1457	82.43	-0.2443	0.0611	0.3054	1703.1924	0.205003	-425.403941	-425.39354	-425.392596	-425.440233	38.224	
O	-0.0210034229	 1.5452019577	 0.2398247248	-0.434375
C	 0.071123195	 0.160502307	-0.0160697718	-0.048769
C	-1.2878451719	-0.5650312141	-0.0103724824	-0.002466
C	-2.1226231042	-0.1849106711	-1.2350601048	-0.095492
O	-2.3230889545	 1.2317098943	-1.2535515155	-0.425695
C	-1.1174121572	-2.0970315748	 0.0380778064	-0.232042
C	-0.6562401509	-2.6317815098	 1.3790615958	 0.030182
C	-1.6612204577	-2.8947859342	 2.4728887307	-0.251437
C	-0.9780293218	-4.0488647958	 1.7796031767	-0.279872
H	-0.7315235006	 1.8733582604	-0.3273489548	 0.287244
H	 0.5719070339	-0.043653783	-0.9817166951	 0.069527
H	 0.7174487378	-0.252691437	 0.7655239353	 0.09983
H	-1.8326889494	-0.2389707883	 0.8850423534	 0.09276
H	-1.6001967674	-0.5107160563	-2.1487635187	 0.091524
H	-3.092983454	-0.7030984481	-1.2040522115	 0.092458
H	-2.6923405721	 1.4805659718	-2.1055619875	 0.293376
H	-2.0753520957	-2.5731969005	-0.2114433344	 0.087008
H	-0.4132312733	-2.4086371818	-0.7470131146	 0.096302
H	 0.3107795607	-2.2648286378	 1.7112924114	 0.089615
H	-1.3867145186	-2.6713072074	 3.4977659481	 0.112915
H	-2.7088040823	-2.7202004021	 2.2482333368	 0.10811
H	-1.5681684788	-4.6476851291	 1.0930393547	 0.107979
H	-0.2332270239	-4.61351023	 2.3295296571	 0.111319
43.5166	72.2984	100.9513	123.3805	197.8906	241.7209	270.17	308.2176	321.3759	372.9387	393.2585	435.4349	553.9966	577.2096	775.2992	796.4484	827.2509	853.3492	886.5081	912.8394	938.0372	983.3547	1038.7359	1051.346	1065.1363	1071.7215	1077.4038	1096.8623	1124.9727	1141.3986	1175.6855	1197.3992	1214.7159	1232.9166	1237.0205	1268.4232	1289.6437	1308.173	1354.9812	1368.2974	1394.286	1423.7963	1456.5094	1469.1902	1474.3071	1483.9279	1505.6168	1507.4542	1520.8908	2921.0962	2971.1585	2999.8627	3004.9459	3029.3016	3043.7162	3063.7738	3127.0993	3131.9673	3147.4021	3205.1627	3220.4695	3747.4227	3836.2303
OCC(CO)CC1CC1	OCC(CO)CC1CC1	
InChI=1S/C7H14O2/c8-4-7(5-9)3-6-1-2-6/h6-9H,1-5H2	InChI=1S/C7H14O2/c8-4-7(5-9)3-6-1-2-6/h6-9H,1-5H2
