18
gdb 94069	4.62865	0.99769	0.86054	5.755	72.9	-0.2838	0.0152	0.299	1325.5581	0.14809	-439.095142	-439.086725	-439.085781	-439.12815	31.429	
C	-0.0467381405	 1.5255352406	 0.010651246	-0.413059
C	 0.0069964819	-0.00243661	 0.0022165611	 0.001939
C	 0.7197740823	-0.5445900466	-1.242118604	-0.087463
O	 0.8470147519	-1.9655201369	-1.1800251306	-0.244704
C	 1.5230561251	-2.3522809681	-0.0169464221	 0.077941
O	 0.8570847398	-1.9780680177	 1.1560053995	-0.244703
C	 0.7304711418	-0.5578907988	 1.234453992	-0.087464
C	 1.6407081089	-3.8225311007	-0.0253523084	 0.289751
N	 1.7785862569	-4.9675152448	-0.0320968015	-0.309089
H	 0.9592843892	 1.9605040973	 0.0088503499	 0.121731
H	-0.5760367785	 1.9059837187	-0.8686040618	 0.126814
H	-0.5687735091	 1.8964877132	 0.8982646592	 0.126818
H	-1.0108911385	-0.4099711288	 0.0044274299	 0.100682
H	 0.1619703743	-0.3317255887	-2.1569823641	 0.125371
H	 1.7198146419	-0.0868165513	-1.3349838628	 0.095716
H	 2.5416569828	-1.9142487807	-0.0189831684	 0.098633
H	 1.7313060366	-0.1011088647	 1.3235697375	 0.095716
H	 0.1806195732	-0.3548792619	 2.1563440088	 0.12537
87.1025	151.1682	202.9598	215.4859	256.5099	290.5264	355.2503	411.8512	431.8903	464.1714	570.0815	602.722	651.9326	854.7739	899.5063	939.393	943.8266	981.4887	1019.7923	1029.8205	1058.5404	1105.7393	1151.0803	1180.6269	1186.9182	1256.3141	1304.6627	1319.3308	1358.8686	1371.7506	1401.4733	1405.0373	1414.2877	1427.1833	1490.7239	1497.1218	1500.338	1502.7525	2385.8131	2905.4612	2960.2664	2967.4017	3031.7372	3045.4705	3097.9264	3102.5846	3106.8709	3107.3104
CC1COC(OC1)C#N	C[C@H]1CO[C@@H](OC1)C#N	
InChI=1S/C6H9NO2/c1-5-3-8-6(2-7)9-4-5/h5-6H,3-4H2,1H3	InChI=1S/C6H9NO2/c1-5-3-8-6(2-7)9-4-5/h5-6H,3-4H2,1H3/t5-,6-
