22
gdb 9401	4.58035	0.75478	0.68451	2.8303	80.19	-0.2441	-0.0173	0.2267	1693.4136	0.197533	-350.228897	-350.218428	-350.217484	-350.265575	36.114	
C	 0.0940862772	 1.5658949097	 0.0532701534	-0.381153
C	 0.0253345534	 0.0364544721	 0.0571090592	-0.164947
C	-1.4081412696	-0.500666616	-0.0316720083	-0.169569
C	-1.4699481595	-2.0331082979	-0.0291669567	-0.195158
C	-2.9011612062	-2.6182860474	-0.0203859727	-0.061487
C	-3.697906201	-2.2862184163	-1.2937461641	-0.408897
C	-2.8005274228	-4.1239926944	 0.1230393953	 0.159858
O	-3.1664950079	-4.7619863326	 1.0759075317	-0.250763
H	 1.1278127032	 1.9189761636	 0.1194965774	 0.113486
H	-0.34094414	 1.9801176468	-0.8631330215	 0.113834
H	-0.4571226515	 1.989176839	 0.9003250934	 0.115306
H	 0.6124034148	-0.3595617593	-0.7821280613	 0.095769
H	 0.5007442864	-0.3504620788	 0.9679579554	 0.098081
H	-1.9942941447	-0.1129880496	 0.8128432135	 0.097436
H	-1.8807442692	-0.1045223952	-0.9390488153	 0.098197
H	-0.9259735611	-2.4226888894	-0.9013633976	 0.096756
H	-0.9367711198	-2.4051342932	 0.8553818103	 0.108244
H	-3.4362042781	-2.2518073819	 0.862959398	 0.092877
H	-4.6988559505	-2.7272557113	-1.257901824	 0.127998
H	-3.8152910259	-1.206907769	-1.4163994119	 0.12977
H	-3.1913137923	-2.6718243592	-2.1862000013	 0.119709
H	-2.3312070648	-4.6290475899	-0.757072193	 0.064653
46.4982	51.9191	83.6353	126.3807	135.4209	203.4138	242.9554	272.8605	286.2325	349.601	376.898	444.8123	569.0677	735.3395	788.4704	868.2764	903.7569	912.1728	918.3997	961.8149	1023.0404	1037.4786	1066.8556	1082.3144	1140.5241	1163.9889	1189.245	1242.9775	1264.7707	1312.2942	1317.907	1333.6785	1359.3996	1376.1361	1397.4824	1406.6462	1414.4434	1429.2719	1481.0052	1486.2111	1496.5195	1499.0107	1499.8286	1503.8624	1512.8374	1835.7324	2829.7793	3005.7035	3010.8531	3020.7122	3030.3774	3033.3946	3035.7985	3042.4308	3054.5713	3069.1913	3096.766	3101.5221	3102.9794	3121.6368
CCCCC(C)C=O	CCCC[C@@H](C)C=O	
InChI=1S/C7H14O/c1-3-4-5-7(2)6-8/h6-7H,3-5H2,1-2H3	InChI=1S/C7H14O/c1-3-4-5-7(2)6-8/h6-7H,3-5H2,1-2H3/t7-/m1/s1
