21
gdb 118162	4.29925	0.74632	0.71682	1.5584	75.28	-0.2537	0.0709	0.3246	1639.0526	0.181562	-461.335394	-461.325452	-461.324508	-461.371081	35.699	
O	-0.0838913446	 1.4527205218	 0.0215030108	-0.423649
C	 0.0106798101	 0.0402571336	 0.1456600899	-0.078757
C	-1.3797312567	-0.5388657754	-0.0775916319	-0.18988
C	-1.4062338664	-2.0698172844	 0.0044961012	 0.090434
O	-0.8821148654	-2.5438314192	 1.2386971601	-0.440639
C	-2.8183551664	-2.6155086455	-0.1932603189	 0.138444
C	-3.0359299338	-4.1371601978	-0.0552362169	-0.296157
C	-4.0210147213	-3.7531945406	 1.0636739794	-0.06523
O	-3.6253526189	-2.3615562908	 0.9919350358	-0.310711
H	 0.7743005324	 1.8287119773	 0.2371166808	 0.284307
H	 0.7100116406	-0.3782889274	-0.5981560574	 0.078532
H	 0.3750880675	-0.2576226976	 1.1380154706	 0.100739
H	-2.0679046702	-0.1216383744	 0.6675851995	 0.116684
H	-1.7440110185	-0.2188353006	-1.061549239	 0.10129
H	-0.7612581182	-2.4928219432	-0.7781034752	 0.085142
H	-1.5733867366	-2.3568228675	 1.8891149141	 0.285069
H	-3.2820163949	-2.1720511867	-1.084733711	 0.074903
H	-3.4523319668	-4.6517152179	-0.9217044006	 0.107983
H	-2.1466831223	-4.6577233548	 0.3020109534	 0.127035
H	-5.0808264504	-3.8776209895	 0.8091710019	 0.106053
H	-3.8393418193	-4.1785810794	 2.0564621733	 0.108407
63.472	87.6252	93.0511	128.9068	142.4472	264.9442	265.9753	283.0635	322.6206	380.2003	493.5265	553.7287	667.005	726.7796	804.7502	823.3626	870.6781	930.9147	952.7484	979.2349	1009.6146	1024.5828	1047.6347	1073.6981	1089.1362	1124.6252	1137.6373	1173.8206	1208.7774	1219.4014	1225.587	1262.7205	1266.719	1297.6695	1305.1381	1324.7594	1353.8392	1363.5499	1393.2891	1431.2053	1461.3623	1482.0907	1487.3333	1529.9706	1530.5307	2957.2896	3011.3537	3020.5949	3023.5866	3025.2046	3032.9809	3069.2935	3078.7665	3088.2867	3148.6647	3749.9872	3830.784
OCCC(O)C1CCO1	OCC[C@@H](O)[C@H]1CCO1	
InChI=1S/C6H12O3/c7-3-1-5(8)6-2-4-9-6/h5-8H,1-4H2	InChI=1S/C6H12O3/c7-3-1-5(8)6-2-4-9-6/h5-8H,1-4H2/t5-,6-/m1/s1
