15
gdb 64575	2.77751	1.47888	1.28578	2.2024	68.05	-0.2585	-0.0604	0.198	1006.0345	0.111633	-453.900327	-453.892459	-453.891515	-453.932818	29.503	
O	 0.0091707276	 1.4871250943	 0.0717631387	-0.473082
C	-0.046313077	 0.1076765865	 0.0095930336	 0.229263
C	 0.8583118772	-0.5116611313	 1.0597625428	 0.112149
O	 1.542923262	 0.1830811833	 1.7708203767	-0.274374
C	-1.399013256	-0.6148159558	-0.0444443749	-0.081913
C	-2.0823060122	-0.4073996581	-1.32914892	-0.250989
N	-0.9798243145	-1.4112554462	-1.2910182332	-0.138319
C	 0.217364915	-0.6052067976	-1.3558143177	 0.296604
N	 1.0924146243	-0.6022696436	-2.251719665	-0.499633
H	 0.6285932355	 1.6960456866	 0.7923330932	 0.298026
H	 0.858935398	-1.6155604966	 1.1261219833	 0.127513
H	-1.8702144106	-1.1172951661	 0.7924631407	 0.117046
H	-3.0565559121	-0.868159009	-1.4515824955	 0.144029
H	-1.9281721549	 0.5089371219	-1.8907427472	 0.15214
H	 1.8297516776	 0.0721072217	-2.0375634955	 0.241541
94.8858	126.6621	194.6888	243.3849	315.9271	317.4265	411.325	490.0392	548.5039	576.5457	696.8375	703.2805	759.5714	831.5681	849.762	862.7943	919.8795	953.5334	999.5649	1047.5932	1062.8946	1089.4102	1119.5175	1134.3227	1212.496	1250.4485	1287.9794	1339.3871	1384.3023	1438.4336	1503.588	1792.3006	1814.4546	2969.8543	3129.4891	3184.2889	3223.71	3468.9624	3651.6833
OC1(C=O)C2CN2C1=N	O[C@@]1(C=O)[C@H]2CN2[C]1[NH]	
InChI=1S/C5H6N2O2/c6-4-5(9,2-8)3-1-7(3)4/h2-3,6,9H,1H2	InChI=1S/C5H6N2O2/c6-4-5(9,2-8)3-1-7(3)4/h2-3,6,9H,1H2/t3-,5+,7?/m1/s1
