23
gdb 42142	1.86733	1.78844	1.04298	1.392	81.32	-0.2391	0.0792	0.3183	1219.5707	0.208161	-425.408339	-425.399612	-425.398667	-425.441358	34.31	
C	-0.1193459112	 1.5634249334	-0.0129110198	-0.21044
C	 1.2578459197	 2.2500369729	 0.0508397358	-0.203681
C	 2.1886232482	 1.7490519767	 1.1815471289	-0.05798
O	 3.4705856863	 1.2935578846	 0.7749578632	-0.257433
C	 3.5498527807	 0.2457669768	-0.1806923551	-0.057241
C	 2.815444538	-1.0627553329	 0.1959332642	-0.240146
C	 1.6999219138	-1.4370275376	-0.7947431706	-0.073822
O	 0.8311094565	-0.3644156659	-1.113213825	-0.243579
C	-0.0596887199	 0.0352077286	-0.0835999939	-0.063984
H	-0.7255457195	 1.8347047582	 0.8616477253	 0.094603
H	-0.6569507047	 1.9413892803	-0.8902366159	 0.105703
H	 1.7634488776	 2.1155159324	-0.9078038085	 0.12541
H	 1.1017986294	 3.3283494019	 0.1591498382	 0.094926
H	 2.412681459	 2.5636990772	 1.8763188848	 0.1056
H	 1.6783285481	 0.9757085841	 1.7756634161	 0.079476
H	 3.1927881189	 0.5865373929	-1.161899695	 0.103639
H	 4.624115734	 0.0636922429	-0.2742996618	 0.104247
H	 3.5229502275	-1.8992378843	 0.2285056076	 0.100823
H	 2.421745748	-0.9755150253	 1.2132141985	 0.113572
H	 2.1462914939	-1.7293809755	-1.7519386263	 0.10761
H	 1.1350495896	-2.3054111372	-0.4206271613	 0.089003
H	 0.2570020359	-0.3781096418	 0.8819753755	 0.091068
H	-1.0625362699	-0.3705241724	-0.2860354949	 0.092625
138.6828	141.3903	180.3701	196.003	259.537	318.2432	342.9568	376.9684	419.9728	488.1269	501.1985	549.6988	727.2343	762.1261	808.076	849.3772	879.7682	938.6116	966.3934	967.2798	1023.0856	1045.9724	1067.6968	1083.1098	1096.3002	1110.842	1135.4123	1166.7605	1225.8137	1255.7823	1264.0151	1286.0498	1298.8169	1311.7252	1334.6956	1351.0893	1356.3943	1382.2645	1404.4749	1415.1819	1421.782	1430.9921	1476.4506	1478.553	1485.1387	1498.1731	1503.4662	1508.1393	1528.8703	2979.8942	2986.5066	2990.2781	3013.5694	3024.822	3035.428	3045.758	3051.6174	3058.3819	3066.7567	3077.8254	3080.3762	3090.7813	3110.8953
C1CCOCCCOC1	C1CCOCCCOC1	
InChI=1S/C7H14O2/c1-2-5-9-7-3-6-8-4-1/h1-7H2	InChI=1S/C7H14O2/c1-2-5-9-7-3-6-8-4-1/h1-7H2
