21
gdb 88479	2.17407	1.39726	1.15735	0.6727	88.99	-0.2326	0.0513	0.2839	1211.225	0.180677	-349.896405	-349.886861	-349.885916	-349.930631	36.77	
C	 0.4947909163	 1.5445905188	-0.5581595782	-0.418569
C	 0.1195261995	 0.1430339793	-0.1279712032	 0.008972
C	 1.1274599781	-0.9820565682	-0.1217679231	-0.319788
C	 0.5689296044	-0.4711920654	 1.1833161175	-0.075224
C	 1.418082179	 0.2438116519	 2.2134169196	 0.184677
C	 0.6826662637	 1.0455762922	 3.2847472249	-0.289842
C	 1.3217290893	-0.2583377912	 3.6537185631	-0.302806
C	 2.7122878324	 0.7311163579	 1.8127828677	 0.237595
C	 3.8055281788	 1.1300811498	 1.5039270264	-0.451458
H	 1.5161266302	 1.7986156921	-0.2670140353	 0.136954
H	 0.4214457728	 1.6452804398	-1.6469621649	 0.111681
H	-0.1749801606	 2.2884298023	-0.1117374067	 0.111454
H	-0.8873508675	-0.1455843368	-0.4220331483	 0.078716
H	 0.830071786	-1.9665640712	-0.4666233295	 0.104445
H	 2.1573589243	-0.7214197061	-0.3431290781	 0.124486
H	-0.1728323694	-1.1092386188	 1.6569130019	 0.077084
H	 1.1439888228	 1.9622611193	 3.6320659798	 0.126126
H	-0.3977828602	 1.0840279804	 3.1975223398	 0.119042
H	 0.685318464	-1.1193253309	 3.8274349816	 0.118744
H	 2.2270924825	-0.236914363	 4.2481840809	 0.127527
H	 4.7670451136	 1.4849370177	 1.226951764	 0.190184
48.5864	139.1965	152.6379	196.0622	222.4412	239.1228	294.1638	345.2127	404.7407	482.1184	555.0966	563.0755	587.2549	647.1575	663.1431	771.8332	778.1554	841.4408	852.4243	885.0421	917.8989	937.6219	970.039	973.9239	1047.4151	1062.0821	1079.9328	1081.8722	1091.7018	1121.6483	1149.2575	1195.0355	1201.1022	1227.9534	1262.3418	1332.2345	1390.1704	1414.6198	1425.3626	1464.7688	1490.3494	1492.488	1501.056	1503.7895	2226.7576	3029.7992	3083.0753	3115.5742	3127.4895	3131.3798	3136.2344	3137.7098	3140.7828	3215.2554	3221.632	3236.3142	3502.3957
CC1CC1C1(CC1)C#C	C[C@H]1C[C@H]1C1(CC1)C#C	
InChI=1S/C9H12/c1-3-9(4-5-9)8-6-7(8)2/h1,7-8H,4-6H2,2H3	InChI=1S/C9H12/c1-3-9(4-5-9)8-6-7(8)2/h1,7-8H,4-6H2,2H3/t7-,8+/m0/s1
