20
gdb 114490	2.66923	1.32304	1.03645	3.5653	78.91	-0.2416	0.0274	0.269	1219.4519	0.171714	-403.162328	-403.153763	-403.152819	-403.195849	32.591	
C	-0.0694205601	 1.5865916244	 0.0186380374	-0.385025
C	 0.1527506125	 0.0753111618	-0.0989276519	-0.191321
C	 0.7147693993	-0.537253671	 1.1797570447	 0.036587
C	-0.1926400832	-0.6262282962	 2.4514673928	-0.261718
C	 0.0864839744	-2.153248508	 2.5445762709	 0.020228
N	-0.8519019203	-3.0028085868	 1.8085885899	-0.321222
C	-0.1903395601	-2.9076206967	 0.5951191108	 0.425787
O	-0.4665686421	-3.2957096253	-0.5082228124	-0.367285
C	 0.946215906	-2.0851048635	 1.2396053389	-0.226622
H	 0.8688667152	 2.1103089334	 0.2340537897	 0.112929
H	-0.4758303257	 1.9996140384	-0.9094061557	 0.116843
H	-0.7729054843	 1.826069978	 0.8238205106	 0.115724
H	-0.7890974515	-0.4197274779	-0.3636409552	 0.110831
H	 0.842186416	-0.1343121407	-0.9263971598	 0.106532
H	 1.6526983587	-0.0327809865	 1.4353526722	 0.078897
H	 0.1782586847	-0.051807855	 3.303302845	 0.106741
H	-1.247158341	-0.3799248897	 2.2986376077	 0.099298
H	 0.4404675808	-2.5685121261	 3.4884428513	 0.086568
H	-1.834822561	-3.1752727198	 1.9761746139	 0.242969
H	 1.9607917816	-2.467216563	 1.1429108192	 0.093258
90.3305	94.5525	115.5778	213.6072	254.2184	371.2008	381.7974	402.3797	471.8364	521.7042	636.6351	731.3974	766.1207	777.0365	812.8501	866.2645	871.0338	928.1897	959.0443	970.6475	1001.2443	1015.4026	1069.0047	1107.7737	1131.6307	1135.6499	1153.3561	1176.1932	1212.6519	1231.3931	1265.8186	1286.889	1304.2448	1325.9605	1349.3873	1364.3042	1391.5964	1413.3084	1473.3009	1483.9855	1501.7361	1507.0986	1882.525	3027.8576	3030.0755	3039.5101	3058.8827	3063.3984	3095.8746	3103.8054	3105.2627	3116.9168	3136.4702	3574.8499
CCC1CC2NC(=O)C12	CC[C@H]1C[C@H]2NC(=O)[C@@H]12	
InChI=1S/C7H11NO/c1-2-4-3-5-6(4)7(9)8-5/h4-6H,2-3H2,1H3,(H,8,9)	InChI=1S/C7H11NO/c1-2-4-3-5-6(4)7(9)8-5/h4-6H,2-3H2,1H3,(H,8,9)/t4-,5+,6-/m0/s1
