21
gdb 26404	4.00465	0.91511	0.80943	3.4982	85.22	-0.2164	0.0342	0.2506	1480.6695	0.183707	-383.323085	-383.313837	-383.312893	-383.357795	34.593	
C	-0.0926557584	 1.4642914884	 0.3475594509	-0.376423
C	-0.0523864748	-0.0287551624	-0.0011607534	 0.055369
C	-1.4701545152	-0.6062873693	-0.099701957	-0.388361
C	 0.731188774	-0.3020722528	-1.3092609115	-0.307727
C	 2.2008724712	-0.0214583063	-1.2354002941	 0.283435
C	 3.2246663106	-0.9158554665	-1.0414659574	-0.185354
N	 4.3815019833	-0.165949064	-1.0333685809	-0.229367
C	 4.0176847688	 1.1320983302	-1.223372841	 0.004897
N	 2.7174500953	 1.2563678215	-1.3497300469	-0.295097
H	 0.9107195119	 1.8926442835	 0.3969035698	 0.136195
H	-0.6492630753	 2.0233598895	-0.4145860088	 0.106612
H	-0.59154266	 1.6260099363	 1.3094263308	 0.097395
H	 0.4746308869	-0.5554444586	 0.80709708	 0.065766
H	-2.0292577645	-0.1335980333	-0.9165141187	 0.11072
H	-1.4545041564	-1.6853036906	-0.2891065787	 0.102806
H	-2.0311865392	-0.4356781461	 0.8252340037	 0.10658
H	 0.5900839468	-1.3536591668	-1.5866919511	 0.089411
H	 0.2930833809	 0.299311653	-2.115885764	 0.106546
H	 3.2398336274	-1.986027813	-0.9169128428	 0.12377
H	 5.3179396187	-0.5165217834	-0.9242515021	 0.265306
H	 4.7401253681	 1.9337206507	-1.2659587867	 0.127521
38.9027	84.4352	121.7115	226.3366	248.7477	294.7391	319.8243	335.6899	419.5273	424.3587	513.1744	657.5321	688.1544	722.5127	775.0466	813.5725	830.8491	886.5607	932.0387	947.1468	950.0502	968.3594	987.5412	1087.751	1099.5736	1136.5101	1141.4014	1192.8382	1229.9066	1253.5545	1299.6208	1318.5445	1353.7605	1369.7937	1376.3704	1402.2455	1423.5993	1456.1313	1474.4376	1487.3698	1493.8429	1503.4086	1509.6556	1526.693	1592.656	3000.6858	3019.6844	3022.7261	3028.7052	3064.2028	3083.524	3089.5578	3094.8952	3128.2007	3249.2667	3270.9669	3669.0461
CC(C)CC1=CNC=N1	CC(C)Cc1c[nH]cn1	
InChI=1S/C7H12N2/c1-6(2)3-7-4-8-5-9-7/h4-6H,3H2,1-2H3,(H,8,9)	InChI=1S/C7H12N2/c1-6(2)3-7-4-8-5-9-7/h4-6H,3H2,1-2H3,(H,8,9)
