17
gdb 87896	2.76155	1.50012	1.116	4.1603	75.55	-0.2373	-0.0557	0.1816	1105.7111	0.135255	-421.845924	-421.837807	-421.836863	-421.878699	30.5	
C	-0.0666503954	 1.5100154085	-0.118650056	-0.426197
C	-0.0146466585	 0.017913115	 0.0747693034	 0.01722
O	 1.2524523093	-0.6220543166	-0.074061396	-0.282676
C	 0.6522855309	-0.6258975861	 1.223301854	 0.296979
C	 1.341949859	 0.0713977236	 2.3867361548	-0.374582
C	 1.1444954356	-0.8998665442	 3.5263928777	-0.06608
C	 0.4945692274	-2.0169545278	 3.1721052388	-0.175749
C	 0.1484290343	-1.9722809362	 1.7349470148	 0.329275
O	-0.4249689006	-2.8033437931	 1.0703062761	-0.333107
H	 0.7905305282	 2.0036763468	 0.3456171736	 0.127146
H	-0.0606358385	 1.7513390189	-1.1865427932	 0.136901
H	-0.9871815862	 1.9199048701	 0.3107231486	 0.126735
H	-0.833693937	-0.5516738676	-0.3673921924	 0.112175
H	 2.4049540261	 0.2332357316	 2.1726587817	 0.141213
H	 0.9145829534	 1.0536022462	 2.6218828538	 0.125761
H	 1.5031953035	-0.6789756766	 4.5260871808	 0.121136
H	 0.2421095383	-2.8539640426	 3.8098073796	 0.12385
82.3681	156.5496	177.9646	199.3299	284.4911	305.5708	397.4293	455.6121	512.0437	571.6681	680.4637	685.4511	769.1002	789.1675	838.6023	883.6404	950.4935	977.702	993.1852	1009.1926	1026.4679	1078.024	1122.7344	1133.974	1175.5825	1198.1855	1234.726	1282.8301	1348.7151	1368.382	1407.1269	1455.9739	1470.545	1485.6132	1503.369	1643.641	1818.5135	3033.691	3039.0064	3066.4723	3102.6982	3103.4539	3129.0812	3191.2413	3229.8888
CC1OC11CC=CC1=O	C[C@H]1O[C@]21CC=CC2=O	
InChI=1S/C7H8O2/c1-5-7(9-5)4-2-3-6(7)8/h2-3,5H,4H2,1H3	InChI=1S/C7H8O2/c1-5-7(9-5)4-2-3-6(7)8/h2-3,5H,4H2,1H3/t5-,7+/m1/s1
