18
gdb 109373	2.45304	1.39693	0.92409	5.0336	77.03	-0.2109	-0.0289	0.182	1237.3187	0.149275	-439.118211	-439.109616	-439.108672	-439.151699	32.116	
O	 0.0981674117	 1.4381426679	 0.0459835426	-0.415363
C	 0.007137463	 0.0358824575	 0.2719625729	-0.152156
C	-1.3953174954	-0.5085601619	 0.11179085	 0.061372
C	-2.4824619448	 0.3064192471	 0.1536688656	-0.048259
N	-3.7719258886	-0.1175196216	 0.0117492441	-0.290068
C	-3.9906275347	-1.4346426731	-0.5775311079	-0.181279
C	-3.0265147647	-2.4393064718	 0.0505490195	-0.301673
C	-1.5730684633	-1.9525107527	 0.0033835685	 0.308296
O	-0.6423076099	-2.7415987299	-0.0466452046	-0.355589
H	-0.055247853	 1.5863018926	-0.8930885794	 0.27862
H	 0.6851071616	-0.5315791477	-0.3790574348	 0.116011
H	 0.3685778296	-0.117290709	 1.2959379546	 0.124114
H	-2.3489053252	 1.370709957	 0.3238714184	 0.128415
H	-4.4548495333	 0.5908886459	-0.2048275013	 0.249781
H	-5.030902528	-1.7298772445	-0.4147163758	 0.115562
H	-3.8175445189	-1.3950200092	-1.6662160688	 0.107904
H	-3.2844894771	-2.5886564077	 1.1079508321	 0.128686
H	-3.0915657792	-3.4106577489	-0.4444680257	 0.125625
71.7091	112.4213	182.3006	207.4697	288.7432	330.5534	340.8257	398.0283	463.2068	495.2157	537.0856	554.3409	664.4124	728.6212	783.3378	874.3055	916.1574	955.3031	998.9332	1027.5001	1059.5726	1072.891	1116.9593	1190.2714	1200.6399	1225.1866	1249.0051	1286.7832	1345.4863	1353.3432	1382.6354	1403.1598	1423.3343	1455.2297	1496.7467	1503.8038	1524.8061	1679.3975	1744.2471	2964.2969	3019.1212	3026.8528	3053.7519	3083.5851	3114.0417	3182.2791	3627.5992	3808.7762
OCC1=CNCCC1=O	OCC1=CNCCC1=O	
InChI=1S/C6H9NO2/c8-4-5-3-7-2-1-6(5)9/h3,7-8H,1-2,4H2	InChI=1S/C6H9NO2/c8-4-5-3-7-2-1-6(5)9/h3,7-8H,1-2,4H2
