21
gdb 46379	3.48116	0.91861	0.80372	2.5014	83.66	-0.2367	-0.0171	0.2195	1493.8036	0.181927	-387.089213	-387.080129	-387.079184	-387.124054	33.824	
O	 0.1287476123	 0.0953860498	-0.3534233538	-0.298946
C	 0.0486194318	 1.2694211368	-0.1262831013	 0.392282
C	-1.125383314	 2.2272582039	 0.1339811809	-0.332637
C	-0.0912302601	 3.2210393792	 0.7448320103	-0.262549
C	 1.0890001659	 2.3629648849	 0.1828997328	-0.074613
C	 2.2703505736	 1.9914544772	 1.0797319521	-0.244338
C	 3.2540383124	 1.0653151884	 0.393618553	 0.035931
C	 4.3522821881	 1.6337768871	-0.4712491151	-0.257871
C	 4.6851555552	 0.9963820989	 0.856739327	-0.280125
H	-1.5712864704	 2.5813884266	-0.8013336512	 0.131459
H	-1.9240255515	 1.8460668382	 0.7750413857	 0.128303
H	-0.1454808078	 4.2519154412	 0.3930824002	 0.107586
H	-0.1128029155	 3.2192790134	 1.8376365396	 0.11223
H	 1.4575757616	 2.781440422	-0.7628875745	 0.103036
H	 2.7845015281	 2.9093373646	 1.3949942818	 0.094233
H	 1.8903860476	 1.5196014566	 1.9960208268	 0.098567
H	 2.8108665525	 0.1354901811	 0.0510005373	 0.111537
H	 4.6232945056	 1.1074076376	-1.3797046246	 0.112398
H	 4.4344708774	 2.7140662635	-0.5446334564	 0.104607
H	 4.9876796112	 1.6507361486	 1.6683562075	 0.106701
H	 5.182740006	 0.0329199406	 0.856997362	 0.112209
61.9871	68.1969	94.8356	138.0548	215.8082	301.7359	345.5491	403.7532	451.8485	543.7646	686.7651	736.1613	749.882	780.9583	803.2918	838.8819	879.8862	922.5399	931.2514	936.4238	973.9633	1016.5232	1045.1099	1057.139	1077.9383	1090.2163	1122.8577	1150.6262	1164.2985	1197.1206	1201.0151	1221.5235	1228.0028	1236.8069	1253.8959	1270.6307	1314.6695	1353.7023	1416.2532	1441.1013	1468.157	1484.3077	1493.9028	1507.6157	1879.0832	3007.3153	3027.0711	3046.6317	3057.6844	3072.2269	3112.237	3124.9828	3130.6586	3132.5242	3164.1155	3203.7368	3219.4352
O=C1CCC1CC1CC1	O=C1CC[C@H]1CC1CC1	
InChI=1S/C8H12O/c9-8-4-3-7(8)5-6-1-2-6/h6-7H,1-5H2	InChI=1S/C8H12O/c9-8-4-3-7(8)5-6-1-2-6/h6-7H,1-5H2/t7-/m0/s1
