22
gdb 114816	2.78739	1.26628	1.06486	2.2449	82.88	-0.2064	0.0701	0.2765	1251.8579	0.193216	-404.302496	-404.293254	-404.29231	-404.336314	35.073	
C	 0.1147668009	 1.5880135762	 0.0833868369	-0.378594
C	-0.2078649911	 0.0964691317	-0.0120941666	-0.127605
N	 0.4970551	-0.5187100254	-1.1178935143	-0.105849
C	 0.0300089303	-0.2343222882	-2.4944063556	-0.198663
C	 0.2130277365	-1.7175675117	-2.8587416954	 0.059434
O	 1.5642485021	-2.0875894371	-3.1824456963	-0.299265
C	 1.8420037297	-2.4886726968	-1.8166402154	-0.092586
C	 0.4544664014	-1.9937003735	-1.3491612325	 0.2897
C	-0.3840260306	-2.8640412001	-0.4438505828	-0.507258
H	 1.1906026021	 1.7400563049	 0.2076756953	 0.124198
H	-0.1980911338	 2.1177387009	-0.822552454	 0.120073
H	-0.4078695166	 2.0424496088	 0.930876111	 0.110209
H	 0.1024731557	-0.4024148912	 0.9132415257	 0.099645
H	-1.3071695512	-0.0274533419	-0.0876293687	 0.069704
H	-1.0303042963	 0.0681089546	-2.5370398246	 0.083601
H	 0.6340201395	 0.4851180921	-3.0565756877	 0.108166
H	-0.5256485395	-2.2017732801	-3.5019140277	 0.077158
H	 1.9968117254	-3.5746150757	-1.7496839082	 0.088325
H	 2.6972733831	-1.9565159026	-1.3880900463	 0.102606
H	 0.0386639752	-2.9078581311	 0.5665484379	 0.127012
H	-1.4115917598	-2.4975973612	-0.3613490438	 0.125473
H	-0.4190352628	-3.8868618126	-0.831253207	 0.124515
88.5461	103.7439	184.4915	210.2923	218.4198	246.3079	310.8218	319.7096	385.9349	415.6089	446.4276	646.6698	669.2656	757.5388	812.3762	840.5769	869.5179	913.5098	967.9834	972.7987	996.4956	1000.2119	1026.6486	1068.7237	1105.276	1142.2149	1152.4633	1171.1212	1181.5987	1185.8814	1201.6973	1259.5471	1279.6231	1303.8797	1321.5318	1337.0568	1376.5084	1391.8039	1408.1687	1416.4315	1483.5645	1489.8993	1490.8241	1493.872	1498.4122	1506.4828	1514.3326	2890.4207	2957.8466	3000.56	3031.6371	3038.0974	3051.0602	3067.9732	3077.9577	3080.5469	3095.9631	3105.7275	3110.7349	3118.836
CCN1CC2OCC12C	CCN1C[C@H]2OC[C@@]12C	
InChI=1S/C7H13NO/c1-3-8-4-6-7(8,2)5-9-6/h6H,3-5H2,1-2H3	InChI=1S/C7H13NO/c1-3-8-4-6-7(8,2)5-9-6/h6H,3-5H2,1-2H3/t6-,7-/m1/s1
