21
gdb 124568	3.96714	0.90077	0.83856	1.9907	84.84	-0.2378	0.0242	0.2621	1468.6726	0.183648	-383.306742	-383.297437	-383.296493	-383.341861	34.567	
C	 0.0455769965	 1.5138148275	-0.0627706094	-0.392142
C	 0.0557491942	-0.0108049346	 0.1015103407	 0.059542
C	 0.6640403866	-0.4138668562	 1.4502827292	-0.385637
C	-1.3703254653	-0.5815044357	-0.0855098777	-0.298303
C	-1.4331585479	-2.080176272	-0.1299227158	 0.34149
N	-1.0722766615	-2.7388596715	-1.2329864563	-0.29125
N	-1.2290386736	-4.0400040146	-0.9211470139	-0.179207
C	-1.6819334587	-4.2351984323	 0.3393934928	-0.023291
C	-1.8280417652	-2.9804131342	 0.8904238953	-0.279913
H	 1.0543186403	 1.9288196708	 0.0343453028	 0.107508
H	-0.3466357138	 1.8084218657	-1.041961361	 0.109656
H	-0.5813554787	 1.9867853489	 0.7032140803	 0.108093
H	 0.6763802456	-0.4398284441	-0.6958706447	 0.088062
H	 0.0831108494	 0.0052052822	 2.2816845793	 0.103693
H	 0.6857813491	-1.5005521403	 1.5725616946	 0.119707
H	 1.6899249884	-0.0425103189	 1.5446884257	 0.107223
H	-2.0128491878	-0.2172667215	 0.7260327767	 0.092568
H	-1.7838590741	-0.1860974449	-1.0200369157	 0.109243
H	-1.0250331128	-4.7353672848	-1.6182191841	 0.272807
H	-1.8638830951	-5.2233799102	 0.7315442352	 0.130385
H	-2.1719019654	-2.7416949392	 1.8839716059	 0.099765
30.7126	69.4903	112.7141	224.9638	250.007	290.6355	317.3693	343.7096	414.4772	421.9332	506.5541	659.8593	690.6812	762.2168	780.0905	824.3213	845.468	881.5135	930.1334	946.5859	951.6451	966.6341	998.1583	1068.8621	1084.5964	1120.7644	1138.2334	1191.0254	1214.2738	1245.7774	1292.9489	1318.5848	1365.5889	1370.8183	1399.4074	1402.1975	1420.256	1467.639	1480.3052	1487.2972	1491.6787	1495.9588	1504.2679	1509.9554	1569.3985	3019.0277	3020.5965	3023.0507	3032.1882	3070.9769	3084.1113	3091.8849	3097.5045	3108.5575	3254.0388	3272.9408	3677.5178
CC(C)CC1=NNC=C1	CC(C)Cc1n[nH]cc1	
InChI=1S/C7H12N2/c1-6(2)5-7-3-4-8-9-7/h3-4,6H,5H2,1-2H3,(H,8,9)	InChI=1S/C7H12N2/c1-6(2)5-7-3-4-8-9-7/h3-4,6H,5H2,1-2H3,(H,8,9)
