17
gdb 112369	2.27813	1.46999	0.94132	1.0607	71.85	-0.2633	-0.0111	0.2522	1228.9726	0.136567	-455.210729	-455.202204	-455.20126	-455.244422	31.278	
C	 0.0382005206	 1.5653938559	 0.0450233042	-0.396043
C	-0.018315714	 0.0379472551	-0.0190860727	-0.182389
C	 0.709941618	-0.5304627605	-1.2337585724	-0.032449
O	 2.1179366943	-0.240505413	-1.1874587081	-0.230756
C	 2.8502845144	-1.3806973563	-1.2385823089	 0.485434
N	 4.1099823297	-1.3558647769	-1.2133667355	-0.551631
N	 1.9534684338	-2.4539144936	-1.3170741137	-0.40551
C	 0.6350517179	-2.0540718413	-1.3145566116	 0.421333
O	-0.3464154638	-2.7513456718	-1.3549262516	-0.359949
H	 1.0731434571	 1.9155062931	 0.0858645879	 0.143992
H	-0.4364895187	 2.0155662205	-0.83364277	 0.119951
H	-0.4822981022	 1.934698195	 0.9329417827	 0.121714
H	 0.4202277607	-0.399073535	 0.8858332213	 0.112534
H	-1.053412227	-0.3166993305	-0.0752233631	 0.130314
H	 0.304109063	-0.0980458406	-2.1573072489	 0.127278
H	 4.5066494099	-2.290679237	-1.2592547463	 0.222196
H	 2.2402282063	-3.4189703231	-1.3514601831	 0.273979
78.3124	110.9405	135.3346	165.928	239.4586	304.7491	401.0092	415.2686	524.6155	582.5984	634.492	668.1648	714.482	727.1372	780.4993	788.0261	879.7862	943.4394	967.3933	1016.9812	1055.3431	1081.8216	1129.6659	1143.4767	1213.3665	1284.0571	1295.9669	1339.1407	1349.6579	1388.3427	1406.1751	1414.7867	1477.2295	1497.1961	1508.1609	1794.5991	1864.7461	3031.5801	3039.3976	3043.4613	3082.8136	3110.0579	3124.9649	3535.3023	3655.8398
CCC1OC(=N)NC1=O	CC[C@H]1O[C]([NH])NC1=O	
InChI=1S/C5H8N2O2/c1-2-3-4(8)7-5(6)9-3/h3H,2H2,1H3,(H2,6,7,8)	InChI=1S/C5H8N2O2/c1-2-3-4(8)7-5(6)9-3/h3H,2H2,1H3,(H2,6,7,8)/t3-/m1/s1
