24
gdb 60458	4.71243	0.59223	0.57007	2.346	87.75	-0.2444	0.0781	0.3225	2067.0739	0.215847	-405.518116	-405.507307	-405.506363	-405.555194	38.69	
C	-0.0597378191	 1.4747114686	-0.0702320513	-0.393081
C	-0.0854412094	-0.058478718	-0.0567215389	 0.02181
C	 0.8276640739	-0.6322881454	 1.0334119419	-0.380255
C	-1.5197226736	-0.5614306861	 0.101718843	-0.035564
O	-1.5357077915	-1.9692514209	-0.0201118149	-0.249269
C	-2.8165863809	-2.5340850422	 0.1546355821	-0.077539
C	-2.7083612545	-4.031266628	 0.0640397609	 0.016973
C	-3.8413718138	-4.8123329171	-0.4912231922	-0.246821
N	-2.583131869	-4.6891813802	-1.2439134197	-0.304636
H	 0.960354962	 1.8451312355	-0.2107388656	 0.115397
H	-0.6783429178	 1.8833232446	-0.8765279624	 0.110469
H	-0.4310019009	 1.8844628428	 0.8768234977	 0.112854
H	 0.2699481281	-0.4220134804	-1.030177146	 0.083702
H	 0.7780620853	-1.72330145	 1.0453760449	 0.131692
H	 1.8682579245	-0.3336197567	 0.8710236183	 0.107521
H	 0.527845779	-0.2675632952	 2.0238172746	 0.105119
H	-1.9210847956	-0.2588047691	 1.0861527152	 0.079619
H	-2.1707852975	-0.1066667592	-0.6651671646	 0.078442
H	-3.2346489502	-2.2422032795	 1.1341091183	 0.090283
H	-3.5134759569	-2.1605153732	-0.6181137283	 0.074506
H	-2.0896007929	-4.482705031	 0.8364764877	 0.098463
H	-4.0539400497	-5.8070145385	-0.1104885603	 0.12044
H	-4.7164203539	-4.2661099576	-0.8360789906	 0.108977
H	-2.6838428055	-3.9983252835	-1.9843679797	 0.230899
46.2679	50.0778	90.9392	121.6822	161.6305	222.0243	224.2046	253.0915	281.3441	370.7622	376.0639	425.1946	470.0375	540.1426	802.4535	836.6663	838.827	923.3974	930.5504	935.1899	944.0552	961.6109	977.6447	1015.1022	1029.8461	1073.4127	1125.5353	1152.1192	1154.3969	1162.6509	1190.5834	1201.0673	1218.3538	1251.2077	1274.436	1279.8121	1312.7917	1327.754	1367.8832	1374.3379	1397.3651	1409.2264	1424.7849	1461.472	1489.5296	1490.2848	1502.2817	1503.6631	1513.8419	1514.5387	1525.9014	2929.4084	2941.7036	2964.0149	2967.3309	3020.7268	3025.3525	3030.6669	3088.8475	3094.1157	3103.5326	3105.9369	3127.4742	3135.8306	3190.9382	3491.8604
CC(C)COCC1CN1	CC(C)COC[C@H]1CN1	
InChI=1S/C7H15NO/c1-6(2)4-9-5-7-3-8-7/h6-8H,3-5H2,1-2H3	InChI=1S/C7H15NO/c1-6(2)4-9-5-7-3-8-7/h6-8H,3-5H2,1-2H3/t7-/m1/s1
