15
gdb 48859	4.33545	1.39308	1.20086	2.1859	72.38	-0.248	-0.0598	0.1883	993.6232	0.112506	-416.710365	-416.703429	-416.702485	-416.741766	26.707	
O	-0.2042396916	 0.2023839104	 0.6249117254	-0.250075
C	-0.0040928266	 1.2047923429	-0.0130711146	 0.103605
C	 1.3291850701	 1.8539613238	-0.1184251251	 0.156704
C	 2.4604075945	 1.5516312289	 0.9344491887	-0.29926
C	 2.8538070735	 2.9354631234	 0.4706558007	 0.149759
N	 3.7547000262	 3.0888727831	-0.4152007509	-0.184422
C	 2.9968102849	 3.3504799825	-1.6646982428	-0.188497
C	 1.5866785123	 2.9074915965	-1.2492947581	-0.087651
N	 1.4367643974	 3.3434524144	 0.1218889865	-0.159822
H	-0.8167627221	 1.7246213674	-0.5662204788	 0.089516
H	 1.9808327167	 1.4428710372	 1.9092135103	 0.148416
H	 3.200213577	 0.775740585	 0.750390068	 0.143886
H	 2.9736397599	 4.4000901005	-1.9907050388	 0.131398
H	 3.4597476112	 2.757811582	-2.4588395303	 0.134832
H	 0.7442637265	 3.0820196922	-1.9157974203	 0.111613
100.7077	184.8363	243.2746	301.639	384.9233	446.8055	479.8246	644.8763	676.6681	693.7662	761.8785	824.1418	849.7634	881.6794	937.568	961.0187	987.3506	1019.0132	1026.3114	1070.7724	1096.7727	1108.5301	1160.8141	1201.1121	1217.0503	1232.0077	1308.7903	1343.5904	1416.1634	1480.3318	1488.9961	1639.4365	1812.1793	2893.9349	3012.397	3088.4565	3089.3576	3143.2954	3174.5863
O=CC12CC3=NCC1N23	O=C[C@@]12C[C]3[N]C[C@@H]1N23	
InChI=1S/C6H6N2O/c9-3-6-1-5-7-2-4(6)8(5)6/h3-4H,1-2H2	InChI=1S/C6H6N2O/c9-3-6-1-5-7-2-4(6)8(5)6/h3-4H,1-2H2/t4-,6-,8?/m0/s1
