21
gdb 87278	2.64849	1.24618	0.99159	2.6855	83.58	-0.244	-0.021	0.223	1279.9275	0.181038	-387.080344	-387.070911	-387.069967	-387.114766	35.406	
C	-0.0090862003	 1.335718128	-0.2223038584	-0.42458
C	 0.2674113665	-0.1270617158	 0.038069912	-0.017464
C	 1.6512832245	-0.6805350329	 0.0822231972	-0.332524
C	 0.8397631532	-0.6662105807	 1.3694840985	 0.221389
C	 1.2594851989	 0.333050715	 2.3922409939	 0.101454
O	 1.9357518936	 1.315325349	 2.1882966932	-0.276202
C	 0.243538965	-1.9148506896	 1.959298976	-0.087281
C	 0.2190422862	-3.2397606079	 1.2429249339	-0.283892
C	 1.1172557076	-3.0526125414	 2.4386094664	-0.263798
H	 0.748308706	 1.9726916755	 0.237228767	 0.154951
H	-0.0100567381	 1.5276199168	-1.3010955242	 0.117644
H	-0.9894511462	 1.630342939	 0.1676014078	 0.114733
H	-0.481697415	-0.8047516815	-0.3651128322	 0.095916
H	 1.8596751279	-1.637952504	-0.3819832928	 0.116201
H	 2.4708969004	 0.0304009281	 0.0602881978	 0.136528
H	 0.8886102715	 0.1093213159	 3.4181643592	 0.071688
H	-0.6320525121	-1.7165054078	 2.5745051257	 0.090289
H	-0.6674899182	-3.8539480016	 1.3550360673	 0.115561
H	 0.6834872971	-3.3189351353	 0.2663099708	 0.116224
H	 2.1831103551	-2.9728888696	 2.2529553145	 0.118323
H	 0.8599395263	-3.5504774291	 3.3666651662	 0.11484
46.6135	137.4288	150.5122	201.9149	211.1248	228.2488	262.915	312.8355	423.1478	443.3094	463.8761	577.5349	729.2625	746.5009	786.6814	832.102	860.0135	904.09	906.6417	923.5386	960.8337	1012.6529	1053.8595	1060.4216	1068.489	1082.9042	1084.5334	1120.5916	1141.0786	1159.2052	1196.9537	1199.9814	1213.885	1262.7415	1310.1445	1392.5127	1409.2809	1423.5639	1441.4159	1466.6434	1481.2399	1501.3961	1507.1649	1509.429	1799.9804	2872.827	3034.5838	3089.5112	3120.0658	3129.0756	3132.4945	3134.4486	3137.7308	3147.0111	3210.2704	3223.3887	3226.0575
CC1CC1(C=O)C1CC1	C[C@H]1C[C@]1(C=O)C1CC1	
InChI=1S/C8H12O/c1-6-4-8(6,5-9)7-2-3-7/h5-7H,2-4H2,1H3	InChI=1S/C8H12O/c1-6-4-8(6,5-9)7-2-3-7/h5-7H,2-4H2,1H3/t6-,8+/m0/s1
