18
gdb 71682	2.72088	2.31542	1.68186	1.1344	72.92	-0.2273	0.0592	0.2864	855.9256	0.149896	-401.872034	-401.86568	-401.864736	-401.902342	26.952	
C	 0.0666607813	 1.4793031428	 0.0303956636	-0.519063
C	 0.006513004	-0.0269062649	-0.0224491844	 0.313323
C	-1.2852357896	-0.8622578878	-0.206107081	-0.225204
N	-0.4251735765	-1.9681084852	-0.7518443678	-0.158923
C	 0.5690046351	-2.2279462437	 0.3436169003	-0.06389
C	 1.7598235253	-1.6437633613	-0.4455861424	 0.078619
O	 2.1758747967	-0.7943240114	 0.6339132835	-0.299067
C	 0.7834301839	-0.829199925	 1.0460802113	 0.039394
C	 0.5947935986	-0.9144612654	-1.1859663453	-0.077602
H	 1.1060462144	 1.8167520833	 0.092367492	 0.136326
H	-0.3858398645	 1.9309814234	-0.858672897	 0.11684
H	-0.4661812402	 1.8649712825	 0.9076031845	 0.117796
H	-1.8792202994	-1.1193910492	 0.6789096462	 0.099148
H	-1.9458351832	-0.4825545363	-0.9913205501	 0.109478
H	 0.5295136053	-3.1599596844	 0.9033895973	 0.082083
H	 2.5593218468	-2.164303489	-0.9680502677	 0.092391
H	 0.630066526	-0.6135241593	 2.1027230689	 0.081602
H	 0.5966895261	-0.5738324892	-2.2200203519	 0.076749
221.8319	228.814	264.3172	397.3688	496.5537	529.517	604.0478	721.6767	752.1428	800.9623	819.3017	833.991	857.3172	871.994	899.0878	903.3928	939.2744	965.059	985.2971	1005.3013	1018.3183	1039.3417	1105.1195	1140.328	1150.7076	1164.5932	1177.9312	1190.9712	1217.1959	1227.2776	1240.0196	1260.513	1283.759	1321.8702	1355.0664	1410.7781	1490.8313	1497.6631	1506.5486	3026.56	3032.4976	3089.3411	3093.9307	3105.3977	3128.6504	3131.4085	3139.6772	3153.1763
CC12CN3C4C(OC14)C23	C[C@]12CN3[C@H]4[C@H](O[C@@H]14)[C@H]23	
InChI=1S/C7H9NO/c1-7-2-8-3-4(5(7)8)9-6(3)7/h3-6H,2H2,1H3	InChI=1S/C7H9NO/c1-7-2-8-3-4(5(7)8)9-6(3)7/h3-6H,2H2,1H3/t3-,4-,5+,6+,7+/m0/s1
