18
gdb 82786	3.01328	1.89715	1.76423	3.013	73.19	-0.219	0.0642	0.2832	861.2062	0.150745	-401.886662	-401.88026	-401.879316	-401.917064	27.223	
O	 0.0853890049	 1.4442165445	-0.142940202	-0.4262
C	 0.0170364927	 0.0510447422	 0.0287427545	 0.150714
C	 0.2295837075	-0.5803853168	 1.4426408586	-0.13511
C	-0.3479528176	 0.3717130803	 2.4953372693	-0.223639
C	-1.8424753534	 0.2024065446	 2.3214616349	-0.019627
C	-2.1793183846	-1.16708761	 1.9011553015	-0.04822
C	-0.9395943324	-1.5992124473	 1.0991860216	-0.072018
C	-1.3738075764	-0.5770125582	 0.0177309924	-0.007826
N	-2.425856916	-0.0050451542	 0.9585681599	-0.167682
H	 1.0112877574	 1.7016141762	-0.1968071925	 0.284609
H	 0.632139031	-0.4771340915	-0.7160410884	 0.067249
H	 1.2202235267	-0.9722441775	 1.677095953	 0.062628
H	-0.0650989539	 0.0824861175	 3.5143278904	 0.094923
H	-0.0151124107	 1.3988541146	 2.3218607371	 0.110547
H	-2.5235760275	 0.7614079805	 2.9556337209	 0.093621
H	-2.9810483587	-1.7899966156	 2.2818827918	 0.090598
H	-0.7045946976	-2.6418240676	 0.9031416948	 0.069616
H	-1.8503499912	-0.8393433815	-0.9274827878	 0.075816
161.4204	274.4106	287.1416	387.4156	534.4877	559.7127	613.5084	642.2752	683.0015	753.8616	775.3312	827.5846	839.3524	863.2806	890.0883	934.157	941.5171	971.2398	1019.8995	1022.3604	1046.8072	1061.1509	1062.344	1113.2273	1147.0649	1176.2107	1179.8514	1199.8654	1224.7523	1231.9958	1250.0015	1262.679	1296.54	1323.7811	1336.6176	1346.4726	1402.5682	1433.6564	1483.6165	2981.7634	3036.4301	3093.8022	3096.2499	3100.5991	3148.1759	3160.2329	3174.3349	3816.5934
OC1C2CC3C4C2C1N34	O[C@H]1[C@H]2C[C@@H]3[C@@H]4[C@H]2[C@H]1N34	
InChI=1S/C7H9NO/c9-7-2-1-3-5-4(2)6(7)8(3)5/h2-7,9H,1H2	InChI=1S/C7H9NO/c9-7-2-1-3-5-4(2)6(7)8(3)5/h2-7,9H,1H2/t2-,3+,4-,5+,6+,7-,8?/m0/s1
