19
gdb 77095	3.18122	1.11099	0.92101	1.6369	82.67	-0.2547	0.047	0.3018	1296.228	0.157019	-385.829076	-385.820028	-385.819084	-385.862803	34.386	
C	-0.5815438002	 1.0922952798	-0.1089457914	-0.425348
C	-0.0139851174	-0.2785891043	 0.2134591043	-0.050075
C	 1.249704168	-0.7872560777	-0.5760355988	-0.191346
C	 1.7997915422	-1.3962970333	 0.7602477768	-0.33317
C	 0.796744407	-0.5086292159	 1.4941603877	 0.439534
C	 1.0374436261	 0.4140539522	 2.6053336189	-0.269126
O	 0.2478290929	-0.7759071245	 2.766625049	-0.276057
C	 1.044609271	-1.664911337	-1.7073000584	 0.309549
C	 0.8548370629	-2.404276845	-2.6369910951	-0.44079
H	 0.1942316347	 1.8644731349	-0.0646690596	 0.11415
H	-1.0165838019	 1.1081539132	-1.1135320557	 0.128461
H	-1.3711730436	 1.3654204495	 0.5993609282	 0.12694
H	-0.7948897837	-1.0445040438	 0.1531903604	 0.098897
H	 1.8619673913	 0.071934039	-0.8712917508	 0.101234
H	 1.5409312919	-2.4541070777	 0.8517801367	 0.127169
H	 2.8627467143	-1.2622768209	 0.9691659131	 0.113326
H	 2.0004160309	 0.4069752593	 3.1150241144	 0.115402
H	 0.4845198877	 1.3501031514	 2.670043404	 0.116878
H	 0.6934186658	-3.0554601492	-3.4598767037	 0.194373
63.7155	129.3294	190.3868	204.4758	216.7686	274.0959	341.5219	369.1467	443.0422	495.1073	539.7199	561.8218	623.7035	626.4564	706.9568	806.0852	857.4965	870.0001	915.7603	919.3577	991.3793	1046.9692	1057.9342	1091.6772	1124.3746	1134.9966	1146.4007	1161.1257	1202.4191	1226.0291	1237.6008	1254.2519	1344.2876	1377.371	1406.0188	1436.5754	1484.4728	1494.4818	1497.5692	1538.4541	2234.2542	3028.9673	3041.9884	3056.5158	3070.9997	3080.1733	3098.3996	3101.7281	3129.4592	3166.9156	3504.711
CC1C(CC11CO1)C#C	C[C@H]1[C@@H](C[C@]21CO2)C#C	
InChI=1S/C8H10O/c1-3-7-4-8(5-9-8)6(7)2/h1,6-7H,4-5H2,2H3	InChI=1S/C8H10O/c1-3-7-4-8(5-9-8)6(7)2/h1,6-7H,4-5H2,2H3/t6-,7+,8+/m0/s1
