18
gdb 77434	2.40791	1.53974	1.2023	2.2627	75.89	-0.2172	0.0173	0.2345	1094.0633	0.146589	-435.21545	-435.205916	-435.204972	-435.249332	35.39	
C	 0.1341628396	 1.5005326729	-0.0026237297	-0.50896
C	 0.031988413	 0.0142886601	 0.0798538911	 0.237229
N	 0.4309285806	-0.8755881398	-1.0627150474	-0.399824
C	 1.1486642847	-1.7285132582	-0.1563786861	 0.295838
N	 2.0595700421	-2.5955556333	-0.2742613237	-0.555394
C	 0.5713482783	-1.0798570124	 1.0519834084	 0.237149
O	 1.1127113449	-1.0709476429	 2.3139890331	-0.453066
C	-0.9305108522	-0.7954761521	 0.8888448284	-0.052465
N	-1.594250511	-0.1540209395	 1.996295598	-0.534195
H	 1.1628902476	 1.8310024804	-0.1869391889	 0.119358
H	-0.4975599757	 1.8850153468	-0.8127284031	 0.136205
H	-0.2159589997	 1.9599991778	 0.925161701	 0.14156
H	 1.0123579561	-0.4339998104	-1.7684495025	 0.232601
H	 2.3072285805	-2.7498946293	-1.2536239658	 0.216268
H	 2.0728180823	-1.0736095904	 2.221003945	 0.30139
H	-1.5608079095	-1.5116694273	 0.3659876104	 0.100938
H	-2.0521104823	-0.8653254224	 2.5586970107	 0.242472
H	-0.9071270092	 0.2715293201	 2.6131728113	 0.242896
108.3262	130.2447	139.0651	189.668	206.7693	223.9982	259.0853	337.5837	368.8428	444.1971	485.8722	544.8628	574.2549	640.6601	668.0498	719.2823	802.4593	823.7227	876.4596	922.9641	934.8905	994.2404	1039.1989	1076.1137	1107.796	1135.2858	1187.7256	1223.5239	1235.4208	1283.3958	1336.8973	1371.221	1407.1694	1421.3765	1477.2307	1487.3132	1513.3497	1667.9976	1789.2757	3023.0271	3078.2825	3118.9634	3130.1044	3457.8695	3493.7388	3528.8729	3564.5966	3793.8619
CC12NC(=N)C1(O)C2N	C[C@@]12N[C]([NH])[C@]1(O)[C@H]2N	
InChI=1S/C5H9N3O/c1-4-2(6)5(4,9)3(7)8-4/h2,9H,6H2,1H3,(H2,7,8)	InChI=1S/C5H9N3O/c1-4-2(6)5(4,9)3(7)8-4/h2,9H,6H2,1H3,(H2,7,8)/t2-,4-,5+/m0/s1
