19
gdb 34035	3.00014	1.32819	1.14095	4.8438	79.84	-0.2293	0.0334	0.2627	1132.218	0.162191	-382.074843	-382.066896	-382.065952	-382.107247	31.181	
N	 0.0080208406	-1.1202322221	 0.0092426179	-0.348975
C	 0.0031207593	 0.0364719753	-0.0031462245	 0.260343
C	-0.0094086141	 1.4826652066	-0.0516729107	 0.176257
C	 0.534521135	 2.1137687048	-1.3342030698	-0.327745
C	 1.3469782951	 2.1782604144	-0.0668754631	-0.047375
C	 1.5154346031	 3.488626706	 0.7016201622	-0.235409
C	 0.3879979398	 3.7169910427	 1.7196758559	-0.184051
C	-0.9739093787	 3.4587428032	 1.0819384852	-0.166555
N	-1.0915317627	 2.0465954564	 0.7160926474	-0.359515
H	 0.8578307202	 1.4561401934	-2.1326621298	 0.13312
H	 0.0442085024	 3.0248825972	-1.6628187974	 0.121651
H	 2.1944539962	 1.5031898971	-0.0256451603	 0.116615
H	 2.4828174986	 3.4844167709	 1.2119518686	 0.111203
H	 1.5437741013	 4.3265706633	-0.0054700074	 0.107909
H	 0.5065845055	 3.0369853072	 2.5708277153	 0.117066
H	 0.4312273565	 4.7403982147	 2.1047643611	 0.100889
H	-1.7779551425	 3.6760439999	 1.7922063202	 0.110763
H	-1.1105054295	 4.1453671325	 0.2256929912	 0.082891
H	-1.9761866659	 1.8624901465	 0.2563185181	 0.230917
95.2682	141.6104	173.3363	284.5682	347.3873	384.3142	400.2105	490.8454	535.9219	573.0347	584.0057	654.1591	763.0743	793.1365	856.1355	867.9323	886.0656	920.1174	969.2293	985.9237	1007.6244	1051.3323	1097.8019	1113.1434	1134.0156	1154.8864	1216.4889	1221.7576	1247.8748	1297.2061	1308.8962	1367.3571	1374.8651	1383.7276	1406.382	1467.4715	1481.7001	1493.7633	1497.3178	1517.2924	2350.7828	2927.6795	3031.1682	3042.4789	3067.5749	3081.5021	3093.7767	3129.2501	3170.3193	3223.2387	3528.6899
N#CC12CC1CCCN2	N#C[C@]12C[C@H]1CCCN2	
InChI=1S/C7H10N2/c8-5-7-4-6(7)2-1-3-9-7/h6,9H,1-4H2	InChI=1S/C7H10N2/c8-5-7-4-6(7)2-1-3-9-7/h6,9H,1-4H2/t6-,7-/m1/s1
