16
gdb 7801	3.1868	1.9557	1.28587	3.7071	61.52	-0.2533	0.0085	0.2618	929.081	0.130666	-420.912052	-420.904566	-420.903622	-420.944036	27.464	
C	-0.0204270083	 1.4906859955	 0.0916069095	-0.401809
C	-0.0460488627	-0.0145592537	-0.1133454304	 0.127659
C	 0.8543873181	-0.4984819908	-1.2372015147	-0.103263
O	 0.8283007939	-1.9100046381	-1.290603457	-0.238986
C	 1.3830911022	-2.4678184112	-0.1197571071	-0.216702
C	 0.9637291979	-1.8155393068	 1.196058581	 0.380869
O	 1.2197722592	-2.3215517659	 2.2539534998	-0.321461
O	 0.3452128732	-0.617031733	 1.1471568991	-0.236787
H	 0.9987934562	 1.8390353513	 0.2842950163	 0.131444
H	-0.4045935207	 2.0024098426	-0.7960525313	 0.124713
H	-0.6432332921	 1.7648926588	 0.9462822713	 0.142816
H	-1.0684989939	-0.3540931164	-0.3216068717	 0.104285
H	 0.4854376617	-0.13292754	-2.1992588026	 0.124238
H	 1.8823616069	-0.1246646917	-1.0927712552	 0.099217
H	 1.0895838111	-3.5187721815	-0.0787500727	 0.153352
H	 2.4851999172	-2.430931099	-0.1446430242	 0.130414
104.0498	105.7357	214.9811	277.8808	289.6297	427.6503	454.1782	470.8512	533.0545	552.7942	651.3736	806.0061	888.0243	953.2536	963.387	1008.5718	1022.1789	1117.2745	1142.0925	1152.2226	1183.0265	1235.6518	1272.642	1317.3045	1338.5732	1369.3788	1390.9363	1411.8547	1421.5884	1467.6204	1483.5731	1492.751	1498.663	1848.125	2967.9749	2977.2344	3033.6765	3045.6521	3098.7045	3115.756	3119.331	3130.4414
CC1COCC(=O)O1	C[C@H]1COCC(=O)O1	
InChI=1S/C5H8O3/c1-4-2-7-3-5(6)8-4/h4H,2-3H2,1H3	InChI=1S/C5H8O3/c1-4-2-7-3-5(6)8-4/h4H,2-3H2,1H3/t4-/m0/s1
