20
gdb 76973	2.2815	1.23326	0.94035	3.9963	82.16	-0.2347	-0.0119	0.2228	1314.8473	0.169357	-403.111433	-403.102067	-403.101123	-403.146158	34.151	
C	-0.1098965998	 0.7514223661	-2.1931327975	-0.414702
C	-0.0003986264	-0.3390025956	-1.1481367105	-0.05537
C	 1.3098564188	-0.6524760764	-0.40717394	-0.161326
C	 2.5390600426	 0.1417494657	-0.6361440231	 0.161672
O	 3.6462413469	-0.3447068861	-0.6566610337	-0.279465
C	 0.1076871347	-0.0394404997	 0.3124483848	 0.021335
N	 0.20407244	 1.3313845936	 0.7253159316	-0.065538
C	-0.9271730907	 1.8595236326	 1.4835283314	-0.222862
C	 0.3700337388	 1.5728247051	 2.1560208335	-0.222068
H	 0.3360604922	 1.6863983555	-1.8517523619	 0.142777
H	 0.3749434401	 0.4520695952	-3.1277791497	 0.124995
H	-1.1640158261	 0.9501622276	-2.4145118075	 0.119761
H	-0.5643817676	-1.2368681627	-1.3866035356	 0.099286
H	 1.5171790019	-1.6988102563	-0.2092573975	 0.103101
H	 2.3886186058	 1.229458512	-0.7829440583	 0.087569
H	-0.4081777444	-0.7142728399	 1.00240068	 0.081335
H	-1.2165138883	 2.879781039	 1.2498516377	 0.122787
H	-1.7562910935	 1.1856025098	 1.6923022594	 0.114425
H	 0.410085699	 0.707630108	 2.8151539543	 0.117534
H	 1.0455643561	 2.3804568064	 2.4217524227	 0.124755
57.9924	96.4885	136.5498	172.0394	179.5792	227.9793	291.884	321.2305	420.0376	442.7368	520.1	609.1389	744.9865	762.778	837.9804	864.62	898.8317	932.5956	971.3107	993.9214	1026.5479	1049.1235	1060.5229	1101.7233	1115.4275	1122.0587	1124.1415	1149.3357	1174.795	1180.2054	1211.4636	1237.1595	1326.455	1334.6267	1378.2402	1414.4729	1430.3981	1446.6754	1492.3676	1494.8549	1507.0562	1519.7148	1802.7867	2936.5252	3040.4838	3042.8191	3096.2926	3098.8386	3103.8954	3134.1832	3149.589	3172.7169	3183.2209	3197.5925
CC1C(C=O)C1N1CC1	C[C@H]1[C@@H](C=O)[C@H]1N1CC1	
InChI=1S/C7H11NO/c1-5-6(4-9)7(5)8-2-3-8/h4-7H,2-3H2,1H3	InChI=1S/C7H11NO/c1-5-6(4-9)7(5)8-2-3-8/h4-7H,2-3H2,1H3/t5-,6+,7-/m0/s1
