17
gdb 127944	2.50886	1.64487	1.00586	1.3168	81.75	-0.2189	-0.0612	0.1577	1155.2476	0.136757	-414.198913	-414.190402	-414.189458	-414.232056	31.209	
C	 0.0046305168	 1.3932049874	-0.1847156003	-0.346152
N	 0.0095816715	-0.0554257936	-0.2300703325	-0.315747
C	-1.08108562	-0.6658198289	 0.0541500515	 0.35777
N	-2.2885527802	-0.0718325747	 0.4073189423	-0.308012
N	-3.4366345044	-0.717184512	 0.706416225	-0.182673
C	-3.3713661506	-2.0080370549	 0.6493037493	 0.067922
N	-2.2662177311	-2.7651130783	 0.3196345637	-0.307626
C	-1.169077751	-2.1371646555	 0.0340340531	 0.299267
C	 0.062095921	-2.9007969443	-0.3309591247	-0.461865
H	 0.9954636942	 1.7695102247	-0.4478160235	 0.130474
H	-0.7143904258	 1.8388443264	-0.8939149345	 0.109864
H	-0.2403923499	 1.7869377163	 0.8170250459	 0.109842
H	-2.3578228241	 0.9318006217	 0.4566025089	 0.273728
H	-4.2801972043	-2.5484927745	 0.8852411973	 0.132952
H	-0.1437806022	-3.9708287619	-0.3055712483	 0.135864
H	 0.4096622192	-2.600370917	-1.3246421508	 0.152186
H	 0.8769498025	-2.6502719911	 0.3558331935	 0.152206
97.779	135.0476	190.4211	194.9356	208.6352	263.2396	317.9451	486.8379	504.6749	517.8869	542.6249	591.6685	652.2517	746.1003	768.5254	898.3161	923.905	978.9239	1043.8678	1048.6584	1104.5426	1127.995	1176.7076	1191.916	1217.5186	1354.3767	1394.5284	1405.5048	1425.0011	1451.5901	1457.1423	1459.8224	1502.2062	1505.8499	1587.7747	1649.5139	1701.9601	2943.9429	2984.0599	3048.769	3103.0626	3106.5415	3160.3582	3211.8613	3644.6599
CN=C1NN=CN=C1C	C[N]c1[nH]ncnc1C	
InChI=1S/C5H8N4/c1-4-5(6-2)9-8-3-7-4/h3H,1-2H3,(H,6,9)	InChI=1S/C5H13N4/c1-4-5(6-2)9-8-3-7-4/h4-5,7-9H,3H2,1-2H3
