20
gdb 63882	2.61542	1.61776	1.33681	3.4917	78.03	-0.2408	-0.0088	0.232	1045.0034	0.171327	-403.141147	-403.132889	-403.131945	-403.173346	32.996	
C	-0.0096746924	 1.5241127379	 0.0501473186	-0.446282
C	 0.0182297607	-0.009680457	 0.0211655954	 0.309545
C	-1.4090212366	-0.5520679455	-0.1114938394	-0.449158
C	 0.9879323279	-0.5849859209	-1.0875709308	-0.285386
C	 2.0085491456	-1.3246313103	-0.1865191337	-0.123601
N	 1.1760232899	-1.993556929	 0.8696306868	-0.328173
C	 0.7577337425	-0.6080331457	 1.2658273187	-0.159294
C	 2.2217945465	-0.2620845136	 0.9153833454	 0.484541
O	 3.098928673	 0.428960759	 1.3265041706	-0.323657
H	 0.9958776631	 1.9485911786	 0.1263979645	 0.133863
H	-0.4750138171	 1.9219103261	-0.8579920776	 0.116396
H	-0.5897119567	 1.8884838631	 0.9055492928	 0.117349
H	-1.8479029554	-0.2427369508	-1.0669199122	 0.120333
H	-1.4457524781	-1.6462414629	-0.0799498518	 0.105769
H	-2.0520000489	-0.1730596832	 0.6905542184	 0.118556
H	 0.4789846897	-1.2797671891	-1.763266694	 0.102514
H	 1.4469628852	 0.2008209423	-1.6950840225	 0.112872
H	 2.8167405191	-1.8918185383	-0.6452564417	 0.090296
H	 0.4098573189	-2.5385858015	 0.4749906721	 0.218755
H	 0.317290263	-0.4606180093	 2.2513912504	 0.084763
138.1391	163.5781	226.1875	255.3228	262.1613	343.2926	369.6303	420.243	452.8354	508.7016	576.4008	636.8255	749.6138	774.6649	803.6792	860.9603	891.8891	931.1487	938.4938	961.7118	964.4674	1027.1989	1035.3679	1045.081	1061.516	1073.7856	1129.0627	1184.2312	1192.9665	1234.809	1250.8415	1252.4531	1294.6557	1313.2975	1325.1862	1406.5115	1426.6768	1484.4594	1488.9799	1493.8843	1505.7181	1508.3252	1931.0235	3022.996	3029.9732	3046.4338	3088.5045	3089.8408	3095.5186	3096.2284	3108.1804	3130.5662	3138.8129	3460.6295
CC1(C)CC2NC1C2=O	CC1(C)C[C@@H]2N[C@H]1C2=O	
InChI=1S/C7H11NO/c1-7(2)3-4-5(9)6(7)8-4/h4,6,8H,3H2,1-2H3	InChI=1S/C7H11NO/c1-7(2)3-4-5(9)6(7)8-4/h4,6,8H,3H2,1-2H3/t4-,6-/m0/s1
