20
gdb 102802	1.98434	1.34774	0.95786	1.5333	72.29	-0.2546	0.0213	0.276	1281.7724	0.170165	-477.44783	-477.437793	-477.436849	-477.483026	36.592	
C	 0.290789714	 1.4917021563	-0.1350248799	-0.409849
C	 0.1186871978	-0.0138861998	 0.0229463335	 0.125697
O	 0.8101407894	-0.4910750642	 1.1913036627	-0.442022
C	-1.3542709881	-0.4800727325	 0.0364718694	-0.009945
C	-1.45952797	-2.0142915506	 0.0816937596	-0.088014
O	-1.1071093991	-2.5292529945	 1.3554668966	-0.431444
N	-2.0841653794	 0.0519843311	 1.183976649	-0.288605
C	-2.9258500863	 1.1176104116	 1.0991322027	 0.154394
O	-3.0322665194	 1.8480424982	 0.13598668	-0.327568
H	 1.3544053912	 1.7437340375	-0.1611919743	 0.121669
H	-0.183408084	 1.8471223944	-1.0535035144	 0.138494
H	-0.1751727275	 2.029358811	 0.6973248325	 0.126768
H	 0.6131061612	-0.5248301064	-0.8118955396	 0.095551
H	 0.510826458	 0.0518168032	 1.9306618407	 0.285154
H	-1.8387242831	-0.1029718744	-0.8704572975	 0.11279
H	-2.4951891314	-2.3186938588	-0.0997264564	 0.114868
H	-0.8384879148	-2.4449666401	-0.7182949899	 0.097337
H	-0.2123907714	-2.199141986	 1.5300967486	 0.290713
H	-2.1714928682	-0.5828876146	 1.9659603539	 0.254282
H	-3.5063119586	 1.2605873089	 2.032100293	 0.079731
58.6932	82.7435	147.5683	186.8246	224.5075	237.8989	260.7307	287.9695	322.8097	350.4904	381.9169	456.4051	595.6128	626.1318	696.6858	725.6591	743.1972	842.9357	907.7448	952.5738	974.0593	1023.7964	1033.721	1073.594	1081.284	1115.1352	1139.852	1205.4947	1243.5841	1287.3564	1292.7158	1356.4683	1369.5442	1390.8616	1413.1446	1420.1422	1428.0617	1470.2274	1482.0631	1495.1283	1504.291	1507.1723	1798.9121	2938.5693	2992.4616	3043.1441	3045.1474	3067.9788	3080.0139	3114.9602	3129.07	3592.0834	3704.8037	3789.6966
CC(O)C(CO)NC=O	C[C@@H](O)[C@@H](CO)NC=O	
InChI=1S/C5H11NO3/c1-4(9)5(2-7)6-3-8/h3-5,7,9H,2H2,1H3,(H,6,8)	InChI=1S/C5H11NO3/c1-4(9)5(2-7)6-3-8/h3-5,7,9H,2H2,1H3,(H,6,8)/t4-,5-/m1/s1
