18
gdb 112209	2.52784	1.29936	0.96959	4.152	73.66	-0.245	0.0341	0.2791	1226.7161	0.146896	-439.085981	-439.076879	-439.075935	-439.12037	33.12	
O	-0.093676529	 1.4124673953	-0.3472577684	-0.425141
C	 0.0255857868	 0.0562348859	 0.0561014413	-0.08182
C	-1.3764031907	-0.5221953615	 0.0838441526	-0.02555
N	-2.009650516	-0.6426302345	-1.2380377416	-0.355571
C	-2.0984783858	-2.0180748938	-1.2310902449	 0.406903
O	-2.493550224	-2.8286548593	-2.0271286453	-0.376922
C	-1.5007392485	-2.0564740312	 0.1676918146	 0.160454
C	-0.5552953132	-3.0939018206	 0.7043349955	-0.322581
C	-1.9327834699	-2.9471756272	 1.2944066243	-0.320519
H	 0.7883627096	 1.7890143763	-0.4167402361	 0.292347
H	 0.643369132	-0.5237373867	-0.6456400542	 0.095119
H	 0.4758618156	-0.0299270757	 1.0584873784	 0.088232
H	-1.9926626902	 0.0316415746	 0.8013775059	 0.094826
H	-2.1596811523	 0.0472357818	-1.9577766845	 0.256287
H	-0.3560494258	-3.9485877924	 0.0666703455	 0.137617
H	 0.2907627459	-2.7579208034	 1.2945385826	 0.118458
H	-2.0218211628	-2.5076557288	 2.2823667634	 0.120606
H	-2.6748016716	-3.7035828788	 1.061880191	 0.137254
51.0712	114.3625	136.6497	192.6297	199.3176	257.6558	283.3661	364.8423	391.6195	492.2199	564.6714	624.8806	731.1093	763.1416	787.6548	850.4518	908.3446	944.6356	957.5719	1008.5882	1056.3987	1059.9905	1078.3811	1086.3276	1109.6291	1157.7023	1192.5475	1196.3468	1232.6025	1254.3112	1282.7401	1349.0889	1384.2211	1402.6966	1456.6834	1463.116	1499.3956	1511.1359	1889.8037	2968.7622	3010.3323	3047.2331	3130.0195	3132.2088	3211.8419	3225.9425	3632.9303	3832.821
OCC1NC(=O)C11CC1	OC[C@H]1NC(=O)C21CC2	
InChI=1S/C6H9NO2/c8-3-4-6(1-2-6)5(9)7-4/h4,8H,1-3H2,(H,7,9)	InChI=1S/C6H9NO2/c8-3-4-6(1-2-6)5(9)7-4/h4,8H,1-3H2,(H,7,9)/t4-/m1/s1
