16
gdb 77548	3.07696	1.2993	1.07972	5.0762	70.97	-0.2738	0.0231	0.2969	1103.7751	0.123642	-437.845878	-437.837561	-437.836616	-437.878512	31.702	
O	 0.213110703	 1.3811864369	-0.1607005358	-0.433592
C	 0.0585898906	 0.012080402	-0.0195705799	 0.119653
C	-0.0284972376	-0.6675528382	 1.3714906603	 0.322617
O	 0.9925666606	-0.6195221753	 2.2881473546	-0.460814
C	-1.4923805874	-0.1159656124	 1.5100821865	-0.358155
C	-1.3754271138	-0.6652421883	 0.0556679385	 0.183802
C	-0.6412612179	-1.9064437614	 0.6436998512	-0.324387
C	-2.39604637	-0.6637161572	-0.9501426105	 0.160127
N	-3.2149887427	-0.6544303863	-1.7671802783	-0.352996
H	-0.1184776031	 1.8362973403	 0.6199691745	 0.294902
H	 0.7288041226	-0.4617444811	-0.74033849	 0.106507
H	 0.7355155801	-1.1080772262	 3.0778847331	 0.292669
H	-2.1632464813	-0.6677828491	 2.172384744	 0.113528
H	-1.6387425852	 0.9605343037	 1.6232115728	 0.103937
H	 0.0106951282	-2.4571403053	-0.0374787648	 0.119172
H	-1.2626206259	-2.5688779522	 1.2487700637	 0.113029
125.481	143.5754	169.7357	249.21	272.0073	315.9222	399.231	407.6164	521.7111	527.3461	552.0217	575.5105	642.9522	672.2444	742.8399	846.7811	888.7907	976.8253	1012.1346	1025.1932	1094.6833	1096.4179	1111.5091	1130.4878	1142.5676	1155.6655	1197.5639	1269.6174	1295.4239	1321.694	1390.5306	1456.7746	1500.3742	1550.9009	2351.0509	3065.6129	3071.7792	3098.777	3127.6529	3144.9033	3808.1203	3823.222
OC1C2(O)CC1(C2)C#N	O[C@H]1[C@@]2(O)C[C@@]1(C2)C#N	
InChI=1S/C6H7NO2/c7-3-5-1-6(9,2-5)4(5)8/h4,8-9H,1-2H2	InChI=1S/C6H7NO2/c7-3-5-1-6(9,2-5)4(5)8/h4,8-9H,1-2H2/t4-,5-,6-/m1/s1
