17
gdb 36677	2.96393	0.91718	0.74561	1.8375	81.72	-0.2439	0.0295	0.2734	1498.1795	0.131991	-384.584918	-384.575372	-384.574428	-384.620136	34.693	
C	-0.0877226258	-1.1448200761	-0.0978740184	-0.41555
C	 0.0555633485	 0.0293209544	 0.1074051057	 0.28305
C	 0.2038055957	 1.4503958081	 0.3855414986	-0.207912
O	 1.1537009307	 2.0195115059	-0.5074170807	-0.240435
C	 1.3316897733	 3.3780962059	-0.2950890655	 0.146142
C	 2.257742116	 3.846505233	 0.7922769124	-0.327474
C	 2.6732554103	 3.9595351479	-0.6766498433	-0.242302
C	 3.7176874317	 3.1257484128	-1.1932948143	 0.347343
C	 4.6093283563	 2.4532751057	-1.6381166876	-0.457923
H	-0.2086238159	-2.1828573281	-0.2867564601	 0.202266
H	-0.7707057911	 1.9545324083	 0.2762628564	 0.121324
H	 0.5245910793	 1.5992666007	 1.4284519057	 0.125486
H	 0.4548245819	 3.9903574806	-0.5137476945	 0.092741
H	 2.0313721861	 4.7595055618	 1.3313245084	 0.120674
H	 2.7651626721	 3.0782125579	 1.3637583903	 0.138297
H	 2.6340698533	 4.9572513078	-1.1046030113	 0.118953
H	 5.3860179177	 1.8457613232	-2.0311029218	 0.195323
49.1213	72.8563	109.1634	154.9856	198.9661	268.0796	327.8847	347.6125	421.8983	509.2027	540.3529	591.6653	610.7491	646.6342	655.4042	678.595	757.694	821.3952	872.6902	962.7376	989.8001	1020.2712	1036.3001	1058.9463	1070.4704	1127.5808	1129.1344	1175.8416	1245.1124	1254.2402	1365.5088	1381.4865	1430.098	1476.6085	1499.8056	2243.4035	2249.8667	2967.5964	2995.6077	3083.7933	3140.4444	3146.813	3237.562	3506.4481	3506.8153
C#CCOC1CC1C#C	C#CCO[C@H]1C[C@H]1C#C	
InChI=1S/C8H8O/c1-3-5-9-8-6-7(8)4-2/h1-2,7-8H,5-6H2	InChI=1S/C8H8O/c1-3-5-9-8-6-7(8)4-2/h1-2,7-8H,5-6H2/t7-,8+/m1/s1
