17
gdb 9207	6.11265	0.95378	0.85854	4.782	67.89	-0.2484	-0.0272	0.2212	1334.8811	0.13953	-401.012782	-401.003535	-401.002591	-401.047862	31.384	
C	 0.3692861127	 1.3827357967	-0.1027880744	-0.375766
C	-0.0946641851	-0.0692776287	-0.1941756674	-0.286647
C	 0.5294050819	-0.8332801636	-1.3500241569	 0.368007
O	 1.155455146	-0.3039132808	-2.2355178828	-0.282364
C	 0.3363819175	-2.3547202944	-1.3156540618	-0.195334
O	 0.5649240127	-2.9805732954	-2.5546274466	-0.165901
C	 1.8497617334	-3.051980418	-2.9778856361	 0.150296
N	 2.1023568462	-3.558652001	-4.1031863554	-0.444567
H	 1.446188328	 1.4390336328	 0.0777976826	 0.129655
H	 0.1672725931	 1.9113062595	-1.037004852	 0.14287
H	-0.1438256656	 1.9012795373	 0.7112538952	 0.116449
H	 0.1032745115	-0.6180475387	 0.736966392	 0.120354
H	-1.1847809452	-0.1248770713	-0.3295229914	 0.135675
H	 0.9921961159	-2.7571197338	-0.5258611434	 0.127489
H	-0.6909197055	-2.598087991	-1.0288091437	 0.141238
H	 2.5739219379	-2.6620766663	-2.252657846	 0.088632
H	 3.1068807045	-3.5579345032	-4.2660430119	 0.229916
48.4255	68.0584	78.8569	161.3617	190.6634	213.1043	288.9866	329.8365	377.3068	458.4724	611.1971	690.7431	738.727	813.2191	839.4407	924.9	974.0682	1000.97	1032.6423	1037.4453	1113.7541	1128.8102	1184.4572	1240.9544	1283.264	1326.1401	1365.9922	1391.1926	1414.3	1420.7375	1449.8671	1470.6263	1493.5545	1499.2843	1749.6028	1825.4676	2980.4795	3013.5329	3041.4023	3047.4757	3054.1632	3092.687	3123.5812	3134.4674	3522.1661
CCC(=O)COC=N	CCC(=O)CO[CH][NH]	
InChI=1S/C5H9NO2/c1-2-5(7)3-8-4-6/h4,6H,2-3H2,1H3	InChI=1S/C5H9NO2/c1-2-5(7)3-8-4-6/h4,6H,2-3H2,1H3
