18
gdb 70107	2.38886	1.64022	1.24073	4.1714	80.47	-0.2493	-0.0037	0.2455	1062.9259	0.148461	-364.829733	-364.821696	-364.820752	-364.862132	31.19	
C	-0.0743799328	 1.4846586723	-0.0088946307	-0.489615
C	 0.0387800795	-0.0194830169	 0.0275068846	 0.342599
C	-0.7881830424	-0.8189384665	 0.9996961066	-0.3223
C	 0.7236956398	-0.7828448685	 1.1519903807	-0.127706
C	 1.4393798817	-1.9166183818	 0.504387837	-0.07235
C	 1.2600754325	-1.9349821929	-0.816317402	-0.093959
C	 0.4399818117	-0.7359901243	-1.2828358893	-0.255453
C	-0.7101027632	-1.1088416595	-2.1112425051	 0.277584
N	-1.6190285564	-1.4031765469	-2.7621838176	-0.335331
H	 0.8497898221	 1.9467454415	-0.3748900123	 0.120396
H	-0.89213575	 1.8030824498	-0.6655984106	 0.135964
H	-0.2762261234	 1.8863266255	 0.9884929288	 0.122094
H	-1.3769189864	-0.2468039881	 1.7095088435	 0.117068
H	-1.2428784359	-1.7499817501	 0.6782918903	 0.13063
H	 1.1570647275	-0.2721766911	 2.0050464212	 0.094794
H	 2.0072210129	-2.6513254682	 1.0636752605	 0.110707
H	 1.6160877737	-2.6863460885	-1.5093736673	 0.11874
H	 1.0647353392	-0.0656500957	-1.8917663083	 0.126138
99.4143	136.3703	209.6178	239.3985	297.0225	361.2242	384.7701	481.415	523.8617	534.6441	616.5733	731.1293	752.6455	785.942	849.5854	869.7194	918.4028	956.2261	971.5159	996.3212	1014.4376	1044.3089	1058.3063	1072.8832	1079.0873	1121.1606	1150.2605	1209.6059	1272.6862	1277.5135	1313.2304	1361.0471	1401.2498	1424.7918	1481.2576	1489.9007	1501.5315	1672.1215	2354.2677	2997.0279	3025.5658	3085.9236	3105.6393	3127.1118	3169.9636	3196.9096	3217.2346	3226.2166
CC12CC1C=CC2C#N	C[C@]12C[C@H]1C=C[C@H]2C#N	
InChI=1S/C8H9N/c1-8-4-6(8)2-3-7(8)5-9/h2-3,6-7H,4H2,1H3	InChI=1S/C8H9N/c1-8-4-6(8)2-3-7(8)5-9/h2-3,6-7H,4H2,1H3/t6-,7+,8+/m1/s1
