22
gdb 70892	3.2453	1.47067	1.37863	1.6426	84.62	-0.2286	0.0797	0.3082	1073.8994	0.196115	-367.228709	-367.220732	-367.219787	-367.260382	33.009	
C	-0.0777327296	 1.474450408	 0.0274654011	-0.495516
C	 0.0710499209	-0.01894865	-0.0311265702	 0.351156
C	 0.2710842879	-0.7773458732	-1.3417618631	-0.305509
C	 0.2118639848	-2.2099844683	-0.7572850592	 0.271845
C	 0.3211426167	-3.3765211554	-1.7178077001	-0.486146
C	 1.2591689948	-2.1071685511	 0.3800407969	-0.2607
C	 0.6879252876	-0.8595659893	 1.0377436932	-0.081571
N	-0.7919389205	-0.8493921938	 0.8567256381	-0.166827
C	-1.0795798684	-2.0769326016	 0.0801507624	-0.179006
H	 0.8195698072	 1.9747742156	-0.3541649232	 0.112856
H	-0.9301264104	 1.8092711437	-0.5747287709	 0.116973
H	-0.244681709	 1.804906026	 1.0560839262	 0.127731
H	-0.5254251225	-0.5851728332	-2.0697589139	 0.092533
H	 1.2334204879	-0.5496498055	-1.8136527286	 0.093248
H	 1.276845096	-3.3672744359	-2.2532682918	 0.114773
H	 0.2481967961	-4.3334824777	-1.1889748411	 0.114386
H	-0.4777751679	-3.3500383563	-2.4673369165	 0.11426
H	 1.2552381259	-2.9833263161	 1.0377732484	 0.096061
H	 2.2780184861	-1.9582088494	 0.0061738379	 0.09557
H	 1.0704178131	-0.45306304	 1.9670589546	 0.082315
H	-1.9772248152	-1.9344490108	-0.5309373597	 0.095686
H	-1.2467905015	-2.9220167857	 0.7567625895	 0.095881
186.7538	210.4607	220.002	234.2695	298.0291	336.6952	433.1034	445.9225	473.0658	554.0096	621.6145	675.2582	702.0704	807.2599	823.8099	884.0406	900.7835	912.8318	944.9989	954.8932	964.5953	1000.6009	1022.4156	1048.9276	1068.3005	1079.4246	1148.0397	1158.8799	1163.7501	1178.1691	1214.7254	1242.2261	1259.8945	1277.1269	1290.3737	1306.4971	1356.287	1407.2098	1416.1831	1430.0383	1481.7494	1487.0466	1489.6253	1494.019	1496.1687	1497.9569	1517.4932	3024.0013	3027.2222	3032.3882	3035.9786	3044.2188	3076.4644	3082.176	3085.723	3086.6318	3090.2821	3090.6172	3115.05	3176.2707
CC12CC3(C)CC1N2C3	C[C@@]12C[C@@]3(C)C[C@@H]1N2C3	
InChI=1S/C8H13N/c1-7-3-6-8(2,4-7)9(6)5-7/h6H,3-5H2,1-2H3	InChI=1S/C8H13N/c1-7-3-6-8(2,4-7)9(6)5-7/h6H,3-5H2,1-2H3/t6-,7+,8+,9?/m0/s1
