16
gdb 133554	2.89027	1.33283	1.21101	2.238	61.08	-0.277	0.0826	0.3596	1049.7104	0.121393	-532.236101	-532.228337	-532.227393	-532.268938	29.423	
F	-0.1992074389	 0.0909247939	-0.2038932222	-0.08343
C	-0.0012091388	 1.3992524541	 0.0425984818	 0.205836
F	 1.3237830356	 1.5863837595	 0.1775948669	-0.084492
F	-0.3894934918	 2.0621490411	-1.0617598566	-0.079757
C	-0.7437493659	 1.8464260342	 1.2524951832	 0.202636
C	-0.3065426866	 3.0310077967	 2.0656010872	-0.331153
C	-0.3543036134	 1.6796548096	 2.7223392817	-0.100289
C	-1.8002752546	 1.3045329218	 3.0740202521	-0.224077
C	-2.1962496529	 1.4668749088	 1.5673823059	-0.306227
H	 0.6879201337	 3.4005190983	 1.8424889271	 0.133087
H	-1.0316464826	 3.799190384	 2.323061443	 0.113108
H	 0.5391806047	 1.2193893779	 3.1251074968	 0.105456
H	-1.9069527373	 0.2744452322	 3.418454829	 0.114109
H	-2.2989040023	 1.9666576355	 3.7881178642	 0.104762
H	-2.9485518747	 2.2223503542	 1.3242022406	 0.106271
H	-2.4846997344	 0.517859928	 1.1131131192	 0.124159
58.3045	141.08	186.2358	259.4747	340.3733	393.6139	422.9743	465.9357	573.2463	583.038	701.6327	742.0784	786.1175	851.3394	887.2103	926.258	944.4744	975.6995	1017.9157	1030.0566	1093.0364	1108.04	1133.432	1165.0299	1174.1138	1188.7569	1225.837	1242.5485	1247.8779	1289.4955	1326.5678	1433.7718	1480.8581	1484.6341	1509.5454	3056.1969	3065.0552	3112.0076	3116.0229	3131.8297	3194.2549	3219.2391
FC(F)(F)C12CC1CC2	FC(F)(F)[C@]12C[C@H]1CC2	
InChI=1S/C6H7F3/c7-6(8,9)5-2-1-4(5)3-5/h4H,1-3H2	InChI=1S/C6H7F3/c7-6(8,9)5-2-1-4(5)3-5/h4H,1-3H2/t4-,5-/m1/s1
