17
gdb 56928	2.14156	1.442	1.01551	3.1627	79.29	-0.2605	0.0092	0.2697	1200.7234	0.133694	-380.814231	-380.80493	-380.803985	-380.848544	33.889	
C	-0.1576873304	 1.4585349557	 0.0985315414	-0.390854
C	 0.0926771731	-0.0306920319	-0.1798759714	-0.159179
C	 0.9099343734	-0.2253296154	-1.3765369155	 0.36417
C	 1.5731043014	-0.3714195137	-2.36694208	-0.449452
N	 0.784868164	-0.6130867618	 0.9868761382	-0.067642
C	-0.0427932163	-1.0643525932	 2.0885878783	-0.241653
C	 0.6752998312	-2.0573678522	 1.2200952686	-0.142853
C	-0.1100103627	-2.9037968292	 0.3528900612	 0.292929
N	-0.7243212265	-3.5957761478	-0.3412736919	-0.335597
H	 0.7898481722	 1.9724968586	 0.2746537309	 0.142039
H	-0.6577538244	 1.9204169472	-0.7557045668	 0.134814
H	-0.793134226	 1.5766325761	 0.9811963577	 0.119132
H	-0.8794110406	-0.5261343045	-0.3446824205	 0.114495
H	 2.1540829328	-0.5132075321	-3.2446860378	 0.203602
H	 0.3324374747	-0.8621927572	 3.0873174967	 0.136492
H	-1.1251008439	-1.0205693359	 1.9775917067	 0.136138
H	 1.5877658679	-2.5249578328	 1.5782523944	 0.14342
55.9889	106.843	145.1894	203.2396	223.4781	243.0977	264.8838	349.5222	399.7343	508.0085	535.0907	561.3649	632.0564	655.8177	670.0206	744.0162	803.9542	870.4612	924.2913	990.0829	1020.2821	1041.1781	1104.8197	1115.2859	1123.8583	1147.6136	1157.4088	1308.2018	1339.5722	1358.6294	1369.3223	1404.8436	1487.0628	1494.4941	1502.1522	2244.6918	2351.5217	2956.7645	3049.6893	3099.9882	3125.4726	3141.1055	3155.1797	3195.1825	3503.4662
CC(C#C)N1CC1C#N	C[C@@H](C#C)N1C[C@H]1C#N	
InChI=1S/C7H8N2/c1-3-6(2)9-5-7(9)4-8/h1,6-7H,5H2,2H3	InChI=1S/C7H8N2/c1-3-6(2)9-5-7(9)4-8/h1,6-7H,5H2,2H3/t6-,7+,9?/m0/s1
