18
gdb 18833	3.93875	2.16659	1.82638	1.6629	69.53	-0.2238	0.0812	0.305	793.4396	0.155736	-347.774528	-347.768089	-347.767145	-347.804745	26.385	
C	-0.0559706606	 1.5619070041	 0.0452348077	-0.411045
C	 0.0397513724	 0.0376920439	 0.0005352016	 0.046064
C	 0.8486080793	-0.5221183007	-1.211275517	-0.245703
C	 1.6313222682	-1.702598297	-0.638321736	-0.085933
C	 2.5260198349	-1.4011957239	 0.5492393003	 0.102117
O	 2.1881403574	-0.1360592483	 1.1219879234	-0.311039
C	 0.7849245618	-0.5731810257	 1.1887934145	 0.086716
C	 1.17993881	-2.0076699974	 0.780429161	-0.162844
H	 0.9441393531	 1.997372899	 0.1294033691	 0.135625
H	-0.5271118	 1.9557530195	-0.8609947304	 0.111378
H	-0.6488983634	 1.9002534936	 0.9020260617	 0.107863
H	-0.9704819874	-0.3948310665	-0.0110359232	 0.069059
H	 0.1893025658	-0.8395603459	-2.0243319228	 0.097101
H	 1.5197144707	 0.2436385282	-1.6142836869	 0.106775
H	 1.9333704047	-2.5270169977	-1.2751476844	 0.085607
H	 3.5360252055	-1.7692402936	 0.6870858585	 0.099915
H	 0.3614346338	-0.3912456953	 2.1787819613	 0.074366
H	 0.8535023638	-2.9528451164	 1.1901127615	 0.093977
147.3924	238.7002	268.3549	353.5105	472.6929	503.0001	621.9448	715.6111	752.5905	798.2443	804.2347	841.5962	867.672	903.0818	931.3235	959.4303	982.2266	1006.9283	1022.2488	1040.8146	1044.5712	1074.7827	1108.0071	1127.1101	1141.7262	1209.675	1229.5865	1257.9854	1269.551	1293.3794	1310.5519	1350.3853	1356.653	1404.091	1406.2735	1494.1103	1497.824	1505.2092	3008.3244	3032.542	3047.1573	3087.8521	3092.6526	3096.9143	3114.9616	3172.708	3182.322	3211.8653
CC1CC2C3OC1C23	C[C@H]1C[C@H]2[C@H]3O[C@@H]1[C@@H]23	
InChI=1S/C7H10O/c1-3-2-4-5-6(3)8-7(4)5/h3-7H,2H2,1H3	InChI=1S/C7H10O/c1-3-2-4-5-6(3)8-7(4)5/h3-7H,2H2,1H3/t3-,4+,5+,6-,7+/m0/s1
