16
gdb 33653	3.03955	1.53163	1.51629	0.3865	75.7	-0.2206	0.0114	0.232	949.265	0.124639	-400.636383	-400.629434	-400.62849	-400.667538	28.055	
C	 0.133156446	-1.2100998996	-0.0021397347	-0.331862
C	 0.0575550232	-0.009348645	 0.0035322355	 0.037963
C	-0.0503787449	 1.4091655766	 0.0105701417	 0.259099
C	-0.7214159461	 2.3461294504	 1.0631410584	 0.039946
C	 0.6542337747	 3.0040136101	 1.2378671611	-0.190362
N	 1.1949121837	 2.3356060229	-0.0023515153	-0.207104
C	 0.6214951792	 3.0137035112	-1.2224430127	-0.190363
C	-0.7490873418	 2.3543200231	-1.0163604223	 0.03995
O	-1.4955139171	 3.0014314623	 0.0360717237	-0.299172
H	 0.2046115672	-2.26975303	-0.0072258664	 0.18907
H	-1.3284814331	 2.0438789502	 1.9183525995	 0.094653
H	 0.6861839692	 4.0966829893	 1.2316956757	 0.113384
H	 1.1915908627	 2.6224913339	 2.1122498473	 0.118382
H	 0.6537155601	 4.1062935802	-1.2085202847	 0.113384
H	 1.1353553731	 2.6391327302	-2.1137911359	 0.118382
H	-1.3787248162	 2.0587477944	-1.8574694008	 0.094652
139.9681	146.9602	330.9064	350.3667	429.4159	483.0893	483.5845	559.2951	638.0992	658.663	684.3438	712.0718	841.7766	848.8842	860.5787	906.4802	951.7173	966.0181	985.7063	1017.0091	1043.5689	1075.9767	1105.312	1162.7028	1183.1118	1194.9971	1213.0495	1282.8222	1287.7713	1293.85	1317.7366	1351.9488	1474.2551	1489.2976	2233.297	3044.4189	3047.578	3095.2701	3099.8286	3107.5664	3110.9059	3499.9598
C#CC12C3CN1CC2O3	C#C[C@@]12[C@H]3CN1C[C@@H]2O3	
InChI=1S/C7H7NO/c1-2-7-5-3-8(7)4-6(7)9-5/h1,5-6H,3-4H2	InChI=1S/C7H7NO/c1-2-7-5-3-8(7)4-6(7)9-5/h1,5-6H,3-4H2/t5-,6+,7+
