20
gdb 69839	2.89927	1.59277	1.28295	2.2612	77.52	-0.2162	0.0719	0.2882	1038.9145	0.172932	-403.107785	-403.100177	-403.099232	-403.139244	31.741	
O	-0.1600810886	 1.3899832638	 0.0979163402	-0.473331
C	 0.0278941489	 0.0025004297	-0.0182879127	 0.405394
C	-0.3993522196	-0.6623470127	-1.3011499225	-0.368479
C	-1.2473356001	-0.7934142057	-0.0433941103	-0.068834
C	-1.3500639596	-2.0370754657	 0.7970796323	-0.011203
C	-0.3467597867	-3.1397318069	 0.7655272953	-0.266944
N	-0.4207248191	-2.2496962421	 1.9226809292	-0.095888
C	 0.6367774753	-1.2494883028	 2.096375422	-0.140431
C	 1.1672985571	-0.5784427431	 0.8130976318	-0.304164
H	 0.5535672977	 1.8239602324	-0.3832940347	 0.278723
H	-0.7948276602	-0.0191192298	-2.0793212045	 0.112474
H	 0.1508407163	-1.52792552	-1.6557061064	 0.107836
H	-2.1486418759	-0.1900963159	-0.0460812953	 0.09969
H	-2.3739847175	-2.312000659	 1.0404309869	 0.08914
H	-0.6617237611	-4.1642387499	 0.9475275696	 0.112024
H	 0.491897176	-3.0552054139	 0.0791391318	 0.104554
H	 0.2272153044	-0.474729769	 2.755403525	 0.114614
H	 1.4608738192	-1.7293510066	 2.635715912	 0.102417
H	 1.7623305952	-1.2862734627	 0.2264373666	 0.102261
H	 1.8441939282	 0.2338118999	 1.0964589135	 0.100145
161.3912	188.595	293.4141	326.1123	350.2587	391.2942	420.3222	454.1328	504.1045	552.4263	633.5426	715.8736	717.6548	762.4636	873.413	889.5314	906.9886	919.8103	956.4435	965.7076	988.664	1038.0367	1049.7994	1059.5105	1074.4927	1109.0405	1119.2365	1142.3024	1176.7217	1198.0805	1248.5423	1279.3329	1281.1914	1322.403	1349.3374	1369.7697	1382.9037	1406.8049	1417.9183	1471.1705	1485.8176	1491.9354	1518.1614	3031.3948	3041.9674	3071.6909	3086.7226	3103.3199	3120.6363	3129.3062	3169.2193	3180.2255	3221.4159	3787.9145
OC12CC1C1CN1CC2	O[C@]12C[C@H]1[C@H]1CN1CC2	
InChI=1S/C7H11NO/c9-7-1-2-8-4-6(8)5(7)3-7/h5-6,9H,1-4H2	InChI=1S/C7H11NO/c9-7-1-2-8-4-6(8)5(7)3-7/h5-6,9H,1-4H2/t5-,6+,7+,8?/m0/s1
