23
gdb 88961	2.83438	1.14462	0.93685	1.0429	86.31	-0.2306	0.0845	0.3151	1369.6242	0.203407	-388.257949	-388.247994	-388.24705	-388.29299	37.952	
C	-1.3327378374	 0.1705273808	 0.6219654747	-0.40688
C	-0.78924881	-1.2376767456	 0.7019191292	-0.021943
C	 0.489175478	-1.5894092271	-0.0401830927	-0.330163
C	 0.4875502205	-1.5444063382	 1.4552668949	 0.123446
O	 1.2235261037	-0.5038568271	 2.0389748942	-0.293353
C	 1.2116914363	-0.4770976255	 3.4476424476	 0.435147
C	 2.1889111198	-1.4433716138	 4.0816656936	-0.443042
C	 1.0304566696	 0.8895708087	 4.0363209704	-0.311243
C	-0.0816089755	-0.1366756997	 4.1443316436	-0.321156
H	-0.5241991431	 0.9007199645	 0.7095062661	 0.128942
H	-1.8469085216	 0.3425218592	-0.3298889642	 0.113265
H	-2.0516515321	 0.3694278586	 1.425280881	 0.112651
H	-1.5455931923	-2.0183598286	 0.73673982	 0.079334
H	 0.5780121319	-2.5478257801	-0.5397234173	 0.108594
H	 1.0010971272	-0.7711199894	-0.5364717422	 0.120635
H	 0.5412164214	-2.4882526995	 1.9931085969	 0.085597
H	 3.2015917799	-1.2539663976	 3.7114368516	 0.125694
H	 2.1923409769	-1.3340089957	 5.1699664578	 0.114451
H	 1.9345805272	-2.4844601678	 3.8543310759	 0.116682
H	 1.5924807938	 1.1468308182	 4.9276498833	 0.108311
H	 0.8877612862	 1.7041054774	 3.3359958455	 0.121672
H	-0.9597903817	 0.0144520217	 3.529012875	 0.123913
H	-0.2790850084	-0.5886118934	 5.1107645953	 0.109447
41.9009	84.371	169.5857	200.9716	208.0818	222.6443	296.5399	319.1586	343.8509	404.5505	429.7339	476.2959	588.2588	713.3679	773.3744	774.3378	800.2539	842.5359	862.4571	906.6721	929.2654	942.0251	968.0777	1022.1265	1034.6656	1048.3654	1059.4451	1074.5435	1087.447	1114.3029	1130.198	1138.349	1180.5548	1187.404	1192.175	1236.4462	1283.9029	1338.9792	1377.7582	1410.3722	1417.4023	1419.9136	1455.8954	1483.0966	1486.3705	1490.4426	1496.5464	1502.8208	1508.8247	3028.2437	3032.7226	3083.1797	3095.6221	3112.6349	3114.4857	3123.352	3130.7392	3135.5804	3137.2545	3139.5515	3218.088	3221.7456	3235.4038
CC1CC1OC1(C)CC1	C[C@H]1C[C@H]1OC1(C)CC1	
InChI=1S/C8H14O/c1-6-5-7(6)9-8(2)3-4-8/h6-7H,3-5H2,1-2H3	InChI=1S/C8H14O/c1-6-5-7(6)9-8(2)3-4-8/h6-7H,3-5H2,1-2H3/t6-,7+/m0/s1
