21
gdb 107678	3.08619	1.22261	1.03565	1.6156	78.15	-0.2446	0.07	0.3146	1218.2233	0.184018	-424.210166	-424.201581	-424.200637	-424.243271	33.302	
O	 0.0239818134	 1.3259155722	 0.4384673038	-0.423495
C	-0.0103914345	 0.0065471496	-0.0933563549	-0.161512
C	-1.4260746223	-0.5063082817	 0.001983265	 0.373969
C	-1.8418726656	-1.1509947336	 1.2989943564	-0.322846
C	-1.6176996957	-2.008563553	 0.0739682943	-0.109431
C	-2.8064750525	-2.6329531936	-0.6565399559	-0.097834
O	-3.4129002635	-1.7825935699	-1.6149389267	-0.238892
C	-3.7208031496	-0.5104462888	-1.0758754047	-0.104658
C	-2.4444147117	 0.288977374	-0.8036082079	-0.26432
H	 0.8893373944	 1.7016457969	 0.2522412148	 0.286797
H	 0.3120922935	 0.0006311432	-1.1476476004	 0.08617
H	 0.6656409204	-0.6631666244	 0.4628373789	 0.078391
H	-1.1127904293	-1.1922898236	 2.1012117327	 0.110548
H	-2.8649501193	-1.0205793317	 1.639303518	 0.108354
H	-0.7166171199	-2.615077918	 0.0696665699	 0.083199
H	-2.4801014966	-3.515548252	-1.2137547222	 0.108186
H	-3.5652454689	-2.9636587303	 0.0733036459	 0.087616
H	-4.3398245914	 0.0008584656	-1.8186716041	 0.106353
H	-4.3268608482	-0.6184893135	-0.1598734866	 0.084884
H	-2.6810609177	 1.2319403847	-0.2992522034	 0.109773
H	-1.9957744851	 0.546822258	-1.7712007827	 0.09875
89.0782	138.9979	163.8357	247.0352	261.0899	345.7799	360.1359	367.2158	403.5571	517.041	533.5175	657.1906	704.7558	792.3666	876.7283	895.0098	917.297	939.7878	952.28	991.5717	1027.5506	1038.4064	1064.6823	1075.9463	1083.935	1112.5262	1140.5741	1166.4806	1222.1948	1239.7715	1240.0804	1268.6121	1278.0142	1322.6349	1338.1429	1374.3004	1394.3161	1417.1186	1421.3952	1463.6864	1480.5625	1494.9374	1496.9027	1509.4994	1518.4555	2952.7254	2956.3102	2962.3851	2987.3099	3028.0105	3075.4862	3080.4027	3083.897	3122.9412	3143.626	3206.863	3829.5257
OCC12CC1COCC2	OC[C@]12C[C@H]1COCC2	
InChI=1S/C7H12O2/c8-5-7-1-2-9-4-6(7)3-7/h6,8H,1-5H2	InChI=1S/C7H12O2/c8-5-7-1-2-9-4-6(7)3-7/h6,8H,1-5H2/t6-,7-/m0/s1
