18
gdb 70590	2.57424	1.76775	1.41638	3.0762	70.93	-0.2351	0.0658	0.3009	970.306	0.148815	-439.033385	-439.025953	-439.025009	-439.064747	30.389	
O	-0.0123088358	 1.364602303	 0.0275367836	-0.460267
C	 0.0112544246	-0.0378800247	 0.0380324884	 0.371658
C	-0.266987377	-0.6803102872	 1.3633672323	-0.331488
C	 1.126106306	-0.737742429	 0.7766470887	 0.005054
O	 1.5694086343	-1.9729215679	 0.2959327807	-0.244405
C	 1.7517404606	-2.0395023571	-1.1097902058	-0.080598
C	 0.4947615433	-1.6749651563	-1.8788467473	-0.043162
N	-0.7695651816	-2.1023250975	-1.2617574422	-0.328502
C	-0.4144198577	-0.6726693932	-1.2630485263	-0.125411
H	 0.6918259615	 1.6713031204	-0.555229679	 0.279268
H	-0.4278921716	-0.0112405438	 2.2006078663	 0.117712
H	-0.8312379384	-1.6047816887	 1.356829279	 0.143247
H	 1.9014236804	-0.1196562536	 1.2284199004	 0.087913
H	 2.5728801646	-1.3790388304	-1.4375916115	 0.083894
H	 2.0484013885	-3.0727989111	-1.3157759141	 0.116041
H	 0.5900446816	-1.7067321055	-2.9622604477	 0.086014
H	-1.4703132945	-2.2816697729	-1.9754550686	 0.235346
H	-0.977358249	-0.0009483547	-1.9060194367	 0.087687
165.867	205.0694	288.0278	310.4601	343.5881	366.3223	443.7603	475.4491	507.5447	539.5892	662.5009	773.17	788.6608	829.9044	866.0486	893.7327	929.5945	960.9649	977.709	1008.7952	1026.5389	1046.0151	1070.2702	1098.2791	1114.7158	1155.7871	1170.7887	1190.6396	1233.266	1247.3148	1280.3701	1297.7644	1321.8735	1389.835	1398.1447	1410.9374	1457.2185	1472.0698	1492.7393	2960.3847	3076.226	3107.0564	3128.9903	3143.5706	3147.083	3249.0629	3512.0605	3786.3255
OC12CC1OCC1NC21	O[C@]12C[C@H]1OC[C@H]1N[C@@H]21	
InChI=1S/C6H9NO2/c8-6-1-4(6)9-2-3-5(6)7-3/h3-5,7-8H,1-2H2	InChI=1S/C6H9NO2/c8-6-1-4(6)9-2-3-5(6)7-3/h3-5,7-8H,1-2H2/t3-,4-,5-,6-/m1/s1
