19
gdb 7170	6.30293	0.83489	0.77725	4.668	73.17	-0.2675	0.0342	0.3017	1455.1385	0.163533	-365.074333	-365.064627	-365.063683	-365.109364	33.35	
C	-0.0219293168	 1.3912549753	-0.0031686784	-0.231264
O	-0.0186783972	-0.0170153415	-0.0112584797	-0.233962
C	 0.6480968755	-0.561615244	-1.1243849683	-0.056095
C	 0.5602113133	-2.0871773413	-1.0480579026	 0.002571
C	-0.8916862122	-2.5735884508	-1.0785604747	-0.39721
C	 1.4015969693	-2.6940159143	-2.1951290256	-0.349164
C	 1.4875576294	-4.1508584761	-2.128904741	 0.265291
N	 1.5513904342	-5.3028747055	-2.063128263	-0.310957
H	 0.999825925	 1.8013262877	 0.027127446	 0.106601
H	-0.5309189129	 1.8032950508	-0.8887026624	 0.106881
H	-0.5575769274	 1.7110211058	 0.893540163	 0.13212
H	 0.1901233614	-0.2021551095	-2.06448015	 0.084414
H	 1.7041836604	-0.2382570262	-1.135294528	 0.084346
H	 1.0157386521	-2.3909366405	-0.0980299956	 0.107182
H	-0.9463030946	-3.6604600976	-0.9723719348	 0.138808
H	-1.4571732324	-2.1132284534	-0.266445118	 0.140885
H	-1.3747527221	-2.3009709355	-2.0249530805	 0.110998
H	 0.9701684101	-2.4180553509	-3.165656205	 0.149614
H	 2.4210861047	-2.2909362925	-2.1762366615	 0.148939
58.5217	91.8981	104.85	121.7271	202.6079	224.8995	243.7606	307.7968	366.5949	396.3865	406.2756	449.6155	595.3865	844.2789	887.0193	924.3055	937.7852	976.7441	1005.5187	1113.8142	1132.0134	1159.9826	1171.1966	1190.1067	1224.6542	1243.6136	1278.451	1295.0404	1358.492	1379.8664	1406.6045	1428.1853	1466.107	1481.1427	1485.6744	1494.675	1503.1361	1504.9431	1527.4128	2361.8275	2930.9878	2959.6812	2973.2485	3017.3792	3031.0368	3032.5329	3046.4675	3073.3557	3106.1937	3119.0627	3139.7492
COCC(C)CC#N	COC[C@@H](C)CC#N	
InChI=1S/C6H11NO/c1-6(3-4-7)5-8-2/h6H,3,5H2,1-2H3	InChI=1S/C6H11NO/c1-6(3-4-7)5-8-2/h6H,3,5H2,1-2H3/t6-/m0/s1
