20
gdb 93358	3.08331	1.36554	1.06677	4.0916	79.16	-0.2332	0.0324	0.2656	1165.3924	0.173458	-403.191202	-403.182977	-403.182033	-403.223784	32.327	
C	 0.1054987372	 1.5925272195	-0.0037532344	-0.394793
C	 0.0241203512	 0.0617137029	 0.0130223736	 0.00318
C	 0.581541018	-0.5254385053	-1.2938051462	-0.179707
N	 0.6622301553	-1.9753046808	-1.2419675167	-0.325006
C	 0.9816809955	-2.7321985326	-0.1440605978	 0.404537
O	 1.069235791	-3.9461598883	-0.2039147333	-0.389808
C	 1.1815783744	-1.9760269661	 1.1322404485	-0.141446
C	 2.1941404726	-0.8417605994	 1.1984945839	-0.299268
C	 0.7247629372	-0.5356968675	 1.2217409338	-0.024607
H	 1.1466527414	 1.9297670208	-0.0499302757	 0.120832
H	-0.4249482219	 2.010629575	-0.8659965907	 0.113845
H	-0.3415218345	 2.0169399385	 0.900380507	 0.118577
H	-1.0325413193	-0.2326142336	 0.0740117784	 0.087273
H	-0.0757296165	-0.2467391082	-2.1236439267	 0.112777
H	 1.5622006878	-0.0736508409	-1.5105031051	 0.105009
H	 0.5899970469	-2.5021224266	-2.0990755616	 0.244563
H	 1.0986845554	-2.6151234832	 2.0024250247	 0.108789
H	 2.7556212412	-0.7446671755	 2.1205209187	 0.120612
H	 2.7709640801	-0.619769873	 0.3077421567	 0.124065
H	 0.3117490471	-0.2263889456	 2.177969943	 0.090575
85.3004	187.3658	212.8042	224.7275	271.4498	327.866	410.6035	432.8154	501.9424	535.478	547.8541	691.6369	749.4512	759.4873	787.6157	846.087	902.987	940.6541	946.3382	969.8584	1017.9697	1062.3119	1070.8904	1097.9023	1120.7059	1132.2545	1141.3877	1184.855	1216.525	1267.042	1305.6292	1328.3068	1361.897	1374.3392	1396.2332	1410.2459	1420.6864	1474.1125	1494.2486	1495.6425	1500.1551	1530.1784	1784.5057	2976.4684	3013.1148	3031.5569	3066.7181	3099.6507	3105.7137	3140.4749	3143.7294	3193.7627	3224.4449	3623.1745
CC1CNC(=O)C2CC12	C[C@H]1CNC(=O)[C@H]2C[C@@H]12	
InChI=1S/C7H11NO/c1-4-3-8-7(9)6-2-5(4)6/h4-6H,2-3H2,1H3,(H,8,9)	InChI=1S/C7H11NO/c1-4-3-8-7(9)6-2-5(4)6/h4-6H,2-3H2,1H3,(H,8,9)/t4-,5-,6-/m0/s1
