18
gdb 75744	2.87092	1.49692	1.09511	2.5395	79.36	-0.2398	-0.0495	0.1904	1105.2727	0.148329	-401.959833	-401.951753	-401.950809	-401.99253	31.149	
C	-0.1941804645	 1.5571076721	-0.0478322066	-0.406029
C	 0.0572485851	 0.0515797143	 0.0188061065	-0.212018
C	 0.9385061119	-0.442144024	-1.1535168212	 0.374287
O	 0.8122110488	-0.0993008178	-2.3063465431	-0.337484
C	 1.9327352516	-1.3840359985	-0.594856129	-0.211988
C	 1.8228839029	-1.4232681317	 0.7402353216	-0.075045
C	 0.7688668557	-0.5113677477	 1.251817605	 0.290977
C	 0.9467585344	 0.2453335558	 2.5266945631	-0.280371
N	 0.0655846452	-0.9275178599	 2.4847268237	-0.359715
H	 0.7304219108	 2.119924024	 0.1130272311	 0.124506
H	-0.5763333552	 1.8128010349	-1.0395130127	 0.14485
H	-0.9270818216	 1.882231691	 0.697443061	 0.109697
H	-0.9009928747	-0.4756002666	-0.096756934	 0.111647
H	 2.6345651984	-1.9287111147	-1.2127938435	 0.120307
H	 2.4145518905	-2.0280268065	 1.4185628604	 0.125983
H	 1.8545053861	 0.1169598452	 3.1104912447	 0.121528
H	 0.5072642384	 1.2367701175	 2.5869660528	 0.122814
H	-0.9059217837	-0.6275330273	 2.4331086901	 0.236053
59.0026	206.9241	237.1234	240.6937	254.2694	302.304	365.4519	462.482	510.3913	557.3195	677.3607	694.5295	767.2902	789.1435	821.5125	886.0061	910.9893	938.2999	986.3971	1000.8757	1023.8813	1040.7733	1085.4084	1101.2423	1117.0635	1139.0565	1178.5499	1245.4842	1264.3418	1310.3478	1328.2005	1348.8515	1398.3748	1407.895	1495.3444	1498.3893	1512.2728	1636.0036	1812.224	3006.7585	3037.7249	3105.2947	3109.3397	3123.4331	3195.7578	3199.2788	3230.6024	3488.4789
CC1C(=O)C=CC11CN1	C[C@H]1C(=O)C=C[C@]21CN2	
InChI=1S/C7H9NO/c1-5-6(9)2-3-7(5)4-8-7/h2-3,5,8H,4H2,1H3	InChI=1S/C7H9NO/c1-5-6(9)2-3-7(5)4-8-7/h2-3,5,8H,4H2,1H3/t5-,7+/m0/s1
