18
gdb 51460	3.42738	1.07095	1.02042	3.191	77.01	-0.2376	-0.0211	0.2166	1225.4322	0.147185	-401.928784	-401.92071	-401.919766	-401.962495	30.156	
O	-0.1135283832	-0.0914938092	 0.2325940413	-0.242395
C	 0.0492759571	 0.9803323882	-0.2888233593	 0.157678
C	 1.1473125785	 1.9580443055	 0.1024933799	-0.235698
N	 1.3556303921	 2.9184557659	-0.9631020901	-0.110416
C	 2.4399669503	 3.8858068713	-0.9193519456	-0.03637
C	 3.6364814827	 3.6537830582	 0.0079041941	-0.280929
C	 4.2516293056	 2.3717652026	-0.5112234814	-0.075542
C	 3.6193810027	 1.921293504	-1.5990062497	-0.07911
C	 2.452855738	 2.7848714789	-1.9467468057	-0.074938
H	-0.6136753645	 1.3519949183	-1.1017427168	 0.08727
H	 0.787065188	 2.502966065	 0.9874152863	 0.132064
H	 2.031027084	 1.3843957117	 0.4146159507	 0.123397
H	 2.1543301159	 4.9066378229	-1.1565813526	 0.095225
H	 4.3388685418	 4.494222892	-0.0537407486	 0.117638
H	 3.3446404204	 3.576085206	 1.0638287274	 0.117594
H	 5.0865963132	 1.8846064827	-0.0197638619	 0.104676
H	 3.875732972	 1.026264281	-2.1532945052	 0.104149
H	 2.1508998554	 2.9166289451	-2.9811486527	 0.095707
45.0556	76.9047	138.4773	242.8995	291.6139	357.3807	474.9952	512.3716	547.7782	690.3651	727.12	761.4799	786.7049	800.5156	850.0244	916.5639	937.3827	961.2272	983.9613	996.5218	1024.2186	1058.3373	1087.1263	1108.3266	1121.8852	1137.4116	1186.3573	1248.0139	1296.7494	1300.9679	1312.1781	1336.1781	1363.6509	1390.1974	1404.7157	1451.4825	1468.0404	1661.731	1838.0235	2891.9629	3000.1476	3024.0189	3038.6064	3051.9058	3144.557	3157.9903	3188.3131	3214.5041
O=CCN1C2CC=CC12	O=CCN1[C@H]2CC=C[C@@H]12	
InChI=1S/C7H9NO/c9-5-4-8-6-2-1-3-7(6)8/h1-2,5-7H,3-4H2	InChI=1S/C7H9NO/c9-5-4-8-6-2-1-3-7(6)8/h1-2,5-7H,3-4H2/t6-,7+,8?/m1/s1
