16
gdb 98396	2.65675	1.21936	0.84003	3.105	71.27	-0.2654	-0.0354	0.2301	1294.8722	0.123723	-471.226004	-471.216828	-471.215884	-471.26054	32.427	
O	 0.1543461737	 1.2074861857	-0.3453312514	-0.429564
C	 0.0845105302	-0.184534281	-0.2350377379	-0.131533
C	-1.3635443877	-0.6144758675	-0.0535162599	 0.402807
O	-2.2354654903	 0.2333659784	-0.0263452547	-0.361667
N	-1.7019900588	-1.9798702913	 0.0832179798	-0.160129
C	-3.0782088223	-2.2732602383	 0.2480488292	 0.106992
N	-3.4922202653	-3.4628225947	 0.3793696469	-0.465084
C	-0.8055889416	-3.0648485025	 0.0710266212	 0.102121
N	 0.4463636667	-2.9314740678	-0.069673711	-0.450958
H	-0.757885491	 1.5262053319	-0.2743915364	 0.295381
H	 0.4978789268	-0.6857308825	-1.1200145734	 0.140716
H	 0.6768568992	-0.5576432316	 0.6106527472	 0.140632
H	-3.6757003211	-1.3645407346	 0.2430559379	 0.16043
H	-4.5044965351	-3.4727619431	 0.485775173	 0.243877
H	-1.3509221453	-3.9996448785	 0.1979584046	 0.163301
H	 0.8947637019	-3.8455597029	-0.0478796251	 0.242676
51.8845	115.5591	138.3675	180.6086	223.7011	267.9288	283.3048	350.8459	379.5353	399.1475	481.2647	563.9081	646.8591	722.0359	823.6428	827.9615	849.2965	1005.9899	1018.3043	1091.3014	1099.8855	1128.8143	1145.6018	1199.9551	1249.8575	1295.3085	1305.5655	1365.0746	1409.0298	1427.1381	1452.1252	1469.7111	1716.7673	1739.528	1764.5572	3027.4394	3047.5005	3142.918	3167.4397	3505.4717	3513.605	3713.5171
OCC(=O)N(C=N)C=N	OCC(=O)N(C=N)C=N	
InChI=1S/C4H7N3O2/c5-2-7(3-6)4(9)1-8/h2-3,5-6,8H,1H2	InChI=1S/C4H7N3O2/c5-2-7(3-6)4(9)1-8/h2-3,5-6,8H,1H2
