16
gdb 54050	2.48937	1.10681	0.84175	2.9331	71.07	-0.2736	-0.0681	0.2055	1333.4842	0.12046	-437.928142	-437.918267	-437.917323	-437.964156	33.346	
C	-0.1602876567	 1.4753069341	 0.1586214169	-0.48892
C	-0.0176854788	-0.0179803283	 0.0047298481	 0.368643
O	 1.0420412699	-0.5905615829	-0.0707023021	-0.283161
C	-1.3392083852	-0.823126302	-0.0634614988	-0.186895
C	-1.0767426947	-2.2289517664	-0.6296003251	-0.367324
C	-2.3024371987	-3.0143474833	-0.7523814072	 0.250147
N	-3.283803229	-3.6181084442	-0.8406038616	-0.295903
C	-1.9600839323	-0.8765122881	 1.3390799983	 0.156696
O	-2.4000365245	 0.0828989742	 1.9133782873	-0.234506
H	 0.8074870745	 1.9208440971	 0.3904838185	 0.149965
H	-0.5348571997	 1.8953783966	-0.7830376314	 0.15037
H	-0.9010569705	 1.7109243124	 0.9279818708	 0.176875
H	-2.0446727643	-0.2671506096	-0.6906874952	 0.140721
H	-0.5983527439	-2.1512511876	-1.609945585	 0.171186
H	-0.3638635311	-2.7568204323	 0.0115773143	 0.176373
H	-1.9565959049	-1.8831903798	 1.8091309819	 0.11573
54.1223	71.4146	81.4421	122.6132	165.232	205.9037	265.4985	283.4755	369.6695	384.9426	457.8552	565.6392	587.4976	621.6242	773.857	853.2467	927.9866	953.3662	991.463	1036.1833	1072.5085	1100.8602	1170.8826	1203.9543	1231.0635	1305.6019	1351.7435	1389.4908	1420.6378	1457.0165	1465.9818	1473.1574	1806.1339	1832.9443	2362.7443	2907.4251	3038.783	3062.5684	3070.9177	3108.3785	3108.6122	3161.4656
CC(=O)C(CC#N)C=O	CC(=O)[C@@H](CC#N)C=O	
InChI=1S/C6H7NO2/c1-5(9)6(4-8)2-3-7/h4,6H,2H2,1H3	InChI=1S/C6H7NO2/c1-5(9)6(4-8)2-3-7/h4,6H,2H2,1H3/t6-/m0/s1
