16
gdb 128911	7.02723	0.73671	0.67228	6.2572	75.31	-0.2566	0.0126	0.2692	1561.2196	0.126564	-396.972037	-396.96382	-396.962876	-397.006468	29.263	
N	-0.030867542	-1.1630294415	-0.1282818145	-0.309105
C	-0.0156091973	-0.0093567235	-0.1951817183	 0.255587
C	 0.0204873408	 1.4485886067	-0.2714149279	-0.331089
C	 1.3154047408	 2.0265672964	 0.3316784725	-0.318202
C	 1.3624043986	 3.5255240248	 0.2582444142	 0.352864
N	 0.3615035902	 4.2190734543	-0.2811987008	-0.280654
N	 0.742308537	 5.5066871024	-0.1760069744	-0.195988
C	 1.9526593387	 5.653850126	 0.4127663982	-0.009833
C	 2.3933337426	 4.3843199587	 0.7124470334	-0.288734
H	-0.0776288984	 1.7568474541	-1.3166858274	 0.164392
H	-0.8513550537	 1.8578238075	 0.2478685702	 0.164403
H	 1.4054762452	 1.7012806116	 1.3745605059	 0.13559
H	 2.1796062995	 1.6003139803	-0.1908040247	 0.135585
H	 0.1312573854	 6.2253681127	-0.5243192086	 0.277218
H	 2.3939980586	 6.62558853	 0.5682470573	 0.140207
H	 3.3216222841	 4.1132898595	 1.1887455852	 0.10776
33.4088	60.6981	112.1064	217.2598	269.303	386.5139	402.0648	499.1627	524.988	651.3256	690.0927	744.2104	766.4584	785.7406	847.1378	946.0231	951.9463	997.9567	1034.7871	1040.5875	1073.5677	1112.6374	1193.7719	1211.6128	1242.5891	1306.1959	1309.2534	1376.2016	1413.6769	1460.6924	1478.5881	1487.8722	1495.5356	1576.7746	2362.1236	3038.9735	3066.5873	3068.1158	3106.8984	3257.2733	3275.8081	3678.8617
N#CCCC1=NNC=C1	N#CCCc1n[nH]cc1	
InChI=1S/C6H7N3/c7-4-1-2-6-3-5-8-9-6/h3,5H,1-2H2,(H,8,9)	InChI=1S/C6H7N3/c7-4-1-2-6-3-5-8-9-6/h3,5H,1-2H2,(H,8,9)
