18
gdb 56763	2.89618	1.32159	1.06492	2.6683	75.69	-0.2493	0.0283	0.2776	1158.8114	0.147052	-401.922421	-401.913806	-401.912862	-401.955978	31.975	
C	-0.1407083165	 1.5937174225	 0.1985823579	-0.396648
C	-0.0525382025	 0.0554668665	 0.0963985562	-0.263598
C	 0.7486013002	-0.5112402533	 1.1842130551	 0.277524
N	 1.370160593	-0.9600135356	 2.0489813439	-0.329377
C	-1.429799439	-0.5658194409	 0.0742458897	 0.507085
C	-2.3016666043	-0.933089173	 1.2330105185	-0.339371
C	-1.9815004415	-1.9685313821	 0.1661651717	-0.19535
C	-2.735367153	-1.6115140463	-1.1086812533	-0.091416
O	-2.2264086288	-0.245332199	-1.0723625274	-0.335927
H	 0.8525540211	 2.0439928942	 0.1368512772	 0.134471
H	-0.7533301631	 1.9685871514	-0.6242980753	 0.150984
H	-0.6021306123	 1.8902715722	 1.1436627702	 0.140264
H	 0.4442494657	-0.20476971	-0.8471525185	 0.135223
H	-1.7900076581	-1.0965497184	 2.175959875	 0.142107
H	-3.2978623095	-0.5054292199	 1.3074785785	 0.117973
H	-1.4921325625	-2.9073504305	 0.3851739857	 0.118326
H	-2.3702408851	-2.1296670585	-2.0017383267	 0.115694
H	-3.8303397039	-1.6434288092	-1.0797003184	 0.112037
59.0186	122.0585	167.8655	205.4081	227.5183	297.6464	352.5783	413.4242	422.8054	517.8291	568.9073	698.8006	751.7701	835.5455	860.6336	896.6948	956.0443	968.4946	982.1804	997.6717	1017.7468	1043.3529	1080.0398	1091.158	1113.009	1137.7086	1150.0372	1175.3419	1263.1037	1320.4545	1324.7505	1350.1256	1390.5351	1408.2763	1483.5406	1493.7978	1499.5668	1519.2543	2359.6094	3031.527	3031.9896	3055.4603	3082.8605	3118.0765	3135.6156	3141.0116	3210.0446	3217.6599
CC(C#N)C12CC1CO2	C[C@@H](C#N)[C@]12C[C@H]1CO2	
InChI=1S/C7H9NO/c1-5(3-8)7-2-6(7)4-9-7/h5-6H,2,4H2,1H3	InChI=1S/C7H9NO/c1-5(3-8)7-2-6(7)4-9-7/h5-6H,2,4H2,1H3/t5-,6-,7+/m0/s1
