16
gdb 27276	3.16881	1.56642	1.06656	0.8725	71.57	-0.1687	0.0526	0.2213	1070.3819	0.126105	-437.902357	-437.894447	-437.893503	-437.934667	29.802	
O	 0.1786860239	 1.3479286517	 0.1864584252	-0.44259
C	 0.1131910408	 0.0016127398	-0.0091418838	 0.222217
C	 0.2432296976	-0.8314558175	-1.0848592953	 0.209976
O	 0.5193372282	-0.6901004242	-2.4209577705	-0.309246
C	 0.2150045666	-1.9856586635	-2.995787316	-0.09052
C	 0.2694031524	-3.0495209626	-1.853637309	-0.375731
C	 0.0651346246	-2.1655884229	-0.6554527107	 0.202463
C	-0.1676449289	-2.145008217	 0.6944531181	-0.257086
N	-0.126311065	-0.8109982654	 1.0794277008	-0.297918
H	 0.2753170945	 1.7652541152	-0.675153046	 0.311243
H	-0.7947922329	-1.9435763314	-3.4246763282	 0.105766
H	 0.9327661708	-2.1664041498	-3.7988760405	 0.111635
H	-0.4979811808	-3.815440252	-1.9990314972	 0.113242
H	 1.2410594952	-3.5586205447	-1.8303583309	 0.115567
H	-0.3496476319	-2.9201118893	 1.4195014285	 0.117814
H	-0.3358489652	-0.4550737664	 1.9952506655	 0.263168
136.248	144.9863	172.7332	233.3957	267.8376	325.9183	381.1248	530.7838	596.3335	607.2704	624.291	639.6984	674.4003	751.4097	810.5017	852.8374	935.8795	994.5825	1064.2492	1073.5646	1080.1993	1149.9185	1196.272	1219.1062	1235.107	1279.9978	1312.1522	1360.057	1394.6732	1425.6834	1490.5717	1511.5243	1541.3145	1597.5009	1713.6905	3015.4816	3023.2262	3078.2364	3106.8303	3271.3622	3689.5739	3843.2888
OC1=C2OCCC2=CN1	Oc1c2OCCc2c[nH]1	
InChI=1S/C6H7NO2/c8-6-5-4(3-7-6)1-2-9-5/h3,7-8H,1-2H2	InChI=1S/C6H7NO2/c8-6-5-4(3-7-6)1-2-9-5/h3,7-8H,1-2H2
