23
gdb 41816	2.22581	1.86917	1.4002	1.3187	83.27	-0.2382	0.0709	0.3091	1059.8081	0.210757	-388.320009	-388.312368	-388.311423	-388.351829	31.573	
C	-0.0350476483	 1.2884921201	-0.5750991675	-0.221179
C	 1.0138739428	 2.0275874111	 0.2796585089	-0.248634
C	 1.8881541016	 0.8946930745	 0.889952669	 0.12606
C	 1.8406238939	 0.826839335	 2.4318089038	-0.220429
C	 0.674373517	 0.0051916689	 3.0147548739	-0.173488
C	-0.7092561791	 0.216208859	 2.3717157333	-0.205415
C	-0.8953595883	-0.5423148139	 1.0455145802	-0.198987
C	 0.0664302254	-0.1702511124	-0.0920849985	 0.106283
O	 1.4338283223	-0.3241477254	 0.2937067364	-0.267737
H	-1.0425801069	 1.6979608628	-0.4632887198	 0.098197
H	 0.2261179966	 1.340969807	-1.6354472445	 0.103849
H	 1.6186893826	 2.7087318363	-0.3237112572	 0.10066
H	 0.5471380263	 2.6282553165	 1.063882943	 0.102892
H	 2.9316930646	 1.0116671326	 0.5785422982	 0.07289
H	 2.7755750564	 0.3915251816	 2.8030549787	 0.095861
H	 1.8117146395	 1.8539157603	 2.8178888915	 0.091538
H	 0.9231616492	-1.0594261255	 2.9377489137	 0.10475
H	 0.6121980036	 0.2270658704	 4.0865534391	 0.087675
H	-1.4740401954	-0.1470738664	 3.0685173481	 0.093723
H	-0.9155857897	 1.2864011736	 2.2423259374	 0.093714
H	-0.7715101609	-1.6142991724	 1.2455996144	 0.098276
H	-1.9231812651	-0.4115466213	 0.681758338	 0.086822
H	-0.0973257681	-0.8710862825	-0.9182214202	 0.072679
123.9346	141.768	268.1457	288.5113	362.9953	372.1625	390.2797	521.1816	584.1295	686.2207	739.429	783.7166	790.4481	810.3372	829.6802	878.0274	885.1535	939.0572	945.7046	966.0515	1003.4113	1009.4409	1060.493	1085.7867	1092.5887	1109.4094	1134.1571	1160.1685	1194.3628	1229.5918	1241.6971	1263.7932	1293.7047	1299.0497	1320.2124	1335.4733	1348.6288	1361.3702	1372.6108	1381.8617	1393.3998	1403.5224	1407.358	1472.7248	1483.68	1490.4944	1493.3949	1497.9705	1518.6166	3012.3766	3018.5004	3023.002	3029.881	3037.0364	3042.6537	3050.13	3057.7797	3059.6554	3061.5645	3070.0681	3075.3472	3093.9482	3113.7855
C1CC2CCCCC1O2	C1C[C@H]2CCCC[C@@H]1O2	
InChI=1S/C8H14O/c1-2-4-8-6-5-7(3-1)9-8/h7-8H,1-6H2	InChI=1S/C8H14O/c1-2-4-8-6-5-7(3-1)9-8/h7-8H,1-6H2/t7-,8+
