19
gdb 110677	3.10602	1.41436	1.26141	1.9111	73.78	-0.2358	0.0782	0.314	1059.4677	0.160969	-422.985513	-422.977862	-422.976918	-423.017822	29.945	
O	-0.0232935614	 1.2155258029	-0.6315941636	-0.425799
C	 0.1820482811	-0.1744479891	-0.4067474192	-0.106179
C	-1.1849956927	-0.7989234767	-0.1978045268	 0.020017
C	-1.3887528099	-2.3173645759	-0.1350131812	-0.123551
C	-1.1207217033	-2.8755165366	 1.25628717	-0.065494
C	-0.3110380878	-2.0556518701	 2.2469795909	-0.107983
O	-0.9312380854	-0.7642126165	 2.2691656154	-0.26219
C	-1.8770290332	-0.7181284243	 1.2066629061	 0.071284
C	-2.405833156	-2.1577333903	 0.9923554643	-0.093433
H	 0.8297064584	 1.6565043006	-0.5886420707	 0.285992
H	 0.6741420605	-0.6505080226	-1.2721634874	 0.0782
H	 0.8176694042	-0.3386609686	 0.4726778595	 0.095821
H	-1.863240754	-0.381204957	-0.9505775902	 0.083683
H	-1.4428264301	-2.9830370357	-0.9894450263	 0.083687
H	-1.1259929433	-3.9555186268	 1.3474609154	 0.091603
H	-0.357568707	-2.4878916185	 3.2550840045	 0.102525
H	 0.7466162234	-1.9646266791	 1.9658414713	 0.095305
H	-2.5633470868	 0.10581391	 1.3916954535	 0.085886
H	-3.4064786866	-2.5468816657	 1.1164331244	 0.090625
78.4444	160.6419	202.6061	245.2435	273.211	360.6624	482.7013	562.2084	669.97	700.9039	770.1659	789.385	812.7113	825.6814	899.4944	923.2637	955.8257	979.7429	1009.8772	1012.4029	1044.4379	1047.1994	1077.0175	1080.4699	1085.2481	1126.668	1139.5422	1183.9952	1221.0006	1222.0634	1248.2702	1260.4232	1291.2261	1303.6241	1335.1897	1366.5595	1373.3334	1411.9762	1461.2303	1508.5128	1524.8147	2956.8005	3004.4069	3033.0571	3037.5189	3052.5602	3139.9547	3168.7166	3186.0541	3214.7353	3835.5312
OCC1C2C3COC1C23	OC[C@H]1[C@H]2[C@H]3CO[C@@H]1[C@@H]23	
InChI=1S/C7H10O2/c8-1-3-5-4-2-9-7(3)6(4)5/h3-8H,1-2H2	InChI=1S/C7H10O2/c8-1-3-5-4-2-9-7(3)6(4)5/h3-8H,1-2H2/t3-,4+,5-,6+,7-/m0/s1
