18
gdb 57216	2.51541	1.28212	1.13765	3.2044	67.08	-0.2596	0.011	0.2706	1147.049	0.146572	-476.234745	-476.225413	-476.224469	-476.269369	34.087	
C	 0.2432474539	 1.0622784854	 0.9530857634	-0.478319
C	 0.1050872195	-0.0902864555	-0.017263373	 0.430675
C	 0.7317062376	-0.0290657602	-1.3405973656	-0.223287
O	 1.3167451922	-0.8128500222	-0.290700013	-0.29576
C	-1.0973456845	-1.0154294177	 0.1628991813	-0.183131
N	-1.0437530238	-1.6513158978	 1.48968435	-0.548719
H	-0.0800548065	-1.8604543307	 1.7334817487	 0.258699
H	-2.4507765724	-0.4046878245	 1.8723561159	 0.308534
H	-1.5380616488	-2.5382033426	 1.4746976996	 0.251394
C	-2.3965633252	-0.1962022547	 0.0279224253	 0.42316
O	-2.8079919698	 0.2033543421	-1.0273527446	-0.343106
O	-2.9964444414	 0.0575496754	 1.1990739078	-0.366772
H	 1.1798465597	 1.5925657789	 0.7686714656	 0.133056
H	-0.5862541865	 1.7671850905	 0.8413913574	 0.150511
H	 0.2472822898	 0.7084399575	 1.988479722	 0.130682
H	 0.3064411153	-0.5922535695	-2.168531637	 0.12755
H	 1.2922593175	 0.8606083372	-1.6217140963	 0.120819
H	-1.0859280864	-1.7358053416	-0.6621616976	 0.104015
47.5465	78.2145	149.5085	192.7678	251.9827	289.8185	311.892	351.3868	357.2811	410.0845	455.0408	568.5671	651.9358	687.93	789.7664	827.6604	867.6908	874.0387	918.5595	924.8976	964.896	1033.7456	1086.2946	1111.7078	1132.1232	1149.3385	1174.0442	1240.5272	1282.7224	1318.3692	1341.11	1408.5976	1420.4148	1432.797	1485.6685	1497.1979	1533.349	1660.4688	1872.0724	3046.779	3048.7225	3094.2348	3113.7652	3133.1496	3183.3758	3486.6885	3503.5807	3575.4525
CC1(CO1)C([NH3+])C([O-])=O	C[C@]1(CO1)[C@@H](N)C(=O)O	
InChI=1S/C5H9NO3/c1-5(2-9-5)3(6)4(7)8/h3H,2,6H2,1H3,(H,7,8)	InChI=1S/C5H9NO3/c1-5(2-9-5)3(6)4(7)8/h3H,2,6H2,1H3,(H,7,8)/t3-,5-/m0/s1
