25
gdb 93693	3.00491	1.1221	1.036	1.1887	88.76	-0.239	0.0797	0.3187	1345.6479	0.228825	-389.520939	-389.511136	-389.510192	-389.554583	38.91	
C	-0.1695228888	 1.5459739115	 0.0483837467	-0.406471
C	-0.0191703264	 0.0244080783	-0.0028216826	 0.033184
C	 0.6850731659	-0.4571700714	-1.2794167705	-0.217151
C	 0.8962416454	-1.9769867507	-1.242268206	-0.222502
C	 1.5926657579	-2.4520099763	 0.0512132874	 0.371114
C	 1.444173645	-3.9662273724	 0.2096821787	-0.413494
C	 3.0845062993	-2.0731648912	 0.0756702219	-0.421666
O	 0.9107979107	-1.9085659234	 1.1942425976	-0.290986
C	 0.7533667991	-0.5012984686	 1.212409284	-0.076198
H	 0.8089371384	 2.0409238858	 0.0364992434	 0.112498
H	-0.7364382374	 1.9152232797	-0.8125421053	 0.11334
H	-0.6931981215	 1.8668394097	 0.9555150187	 0.111917
H	-1.0184662417	-0.4327251936	 0.027200982	 0.074089
H	 0.100651579	-0.1819652691	-2.1652604682	 0.090553
H	 1.6488766637	 0.0613522774	-1.3760372341	 0.09316
H	-0.0808872968	-2.4722703729	-1.3012973329	 0.094301
H	 1.473809958	-2.3088904299	-2.1127901948	 0.089093
H	 1.8914098775	-4.4913530354	-0.6399352771	 0.107437
H	 1.9359249922	-4.3052600189	 1.1261800843	 0.116211
H	 0.3862228108	-4.2359689856	 0.2709579273	 0.11685
H	 3.2534200369	-1.005850112	-0.0872348832	 0.11313
H	 3.5188405507	-2.3416402694	 1.0430676015	 0.119832
H	 3.6256192198	-2.6140790702	-0.7070358944	 0.111922
H	 1.7298816471	 0.008482897	 1.2738866731	 0.080067
H	 0.2156238852	-0.2794984583	 2.1405634127	 0.099771
96.2596	187.2788	211.0399	229.2785	241.2309	262.9321	277.6879	316.8788	319.3338	405.2856	428.3817	447.7491	464.9441	491.6822	622.7279	716.1218	797.655	845.6915	883.2143	904.0221	929.6687	952.2432	961.0434	982.3575	1010.3394	1033.2923	1079.9519	1095.2671	1116.7427	1156.883	1195.3173	1218.5536	1240.4231	1252.1659	1279.8538	1312.1755	1330.6944	1350.3143	1375.4599	1385.2907	1394.9722	1406.2472	1411.8029	1423.023	1470.4044	1479.6288	1488.3448	1490.6928	1493.8121	1496.5609	1501.2205	1509.1488	1515.7699	2963.0648	3004.2272	3015.591	3022.7526	3024.9095	3038.6952	3045.0367	3055.1803	3064.6491	3068.6138	3089.7747	3096.8794	3109.5291	3115.9444	3118.2463	3120.6209
CC1CCC(C)(C)OC1	C[C@H]1CCC(C)(C)OC1	
InChI=1S/C8H16O/c1-7-4-5-8(2,3)9-6-7/h7H,4-6H2,1-3H3	InChI=1S/C8H16O/c1-7-4-5-8(2,3)9-6-7/h7H,4-6H2,1-3H3/t7-/m0/s1
