20
gdb 109752	1.97725	1.41796	1.08941	3.7305	76.8	-0.2337	0.0324	0.2661	1226.4312	0.169794	-440.295761	-440.285735	-440.284791	-440.330865	36.405	
C	 0.8899988519	 1.2690605351	-0.0072543595	-0.24979
O	 0.0327408931	 0.1605091929	 0.2284701326	-0.247954
C	 0.4979017493	-0.6639600227	 1.2573225306	 0.08696
C	-0.1254929992	-2.0065303285	 1.423036135	-0.077086
C	-1.2652285438	-2.5044982273	 0.5610718664	-0.407948
C	 1.3335286031	-1.9045690132	 0.9445304855	-0.170924
C	 1.8081656943	-2.3239037109	-0.4203624024	 0.391584
N	 1.1473565388	-1.8085712363	-1.501811917	-0.538299
O	 2.7381399069	-3.1018467038	-0.537467968	-0.376717
H	 1.8868360161	 0.9459433386	-0.3349678057	 0.126817
H	 0.4255978329	 1.8712391451	-0.7911304684	 0.132628
H	 0.9965017311	 1.881590089	 0.89864902	 0.121935
H	 0.7759029728	-0.107394005	 2.152911486	 0.096633
H	-0.203748008	-2.3299281793	 2.4579541085	 0.101404
H	-1.1762547876	-2.1927544457	-0.478944626	 0.130594
H	-1.3026913494	-3.5982243438	 0.5779737132	 0.127571
H	-2.2186515839	-2.1284982191	 0.9468868258	 0.1215
H	 2.0791613914	-2.1758356712	 1.6828936304	 0.110097
H	 0.5249507401	-1.0236845264	-1.3886018057	 0.267912
H	 1.53475751	-2.0182005773	-2.4074902415	 0.253084
61.6887	113.2304	129.9326	140.2288	179.9139	211.4006	244.362	322.9669	350.1143	399.1634	434.5871	500.9728	564.2722	635.1744	660.2188	733.4599	793.7533	803.7483	858.7715	957.3249	984.6591	1044.7356	1050.6968	1096.4283	1110.7133	1139.4886	1163.0272	1169.5785	1185.6501	1231.8159	1269.7765	1329.0603	1372.0651	1387.9555	1424.8483	1439.1475	1483.8745	1488.2243	1491.2067	1503.1865	1507.4704	1607.0577	1780.6991	2999.9339	3044.4735	3058.8627	3093.4833	3100.7838	3125.9938	3134.3447	3157.5247	3181.2663	3566.1887	3711.2333
COC1C(C)C1C(N)=O	CO[C@H]1[C@@H](C)[C@H]1C(=O)N	
InChI=1S/C6H11NO2/c1-3-4(6(7)8)5(3)9-2/h3-5H,1-2H3,(H2,7,8)	InChI=1S/C6H11NO2/c1-3-4(6(7)8)5(3)9-2/h3-5H,1-2H3,(H2,7,8)/t3-,4+,5-/m0/s1
