17
gdb 24402	3.64201	1.5996	1.14075	1.7344	82.64	-0.174	0.0097	0.1837	1034.3804	0.140439	-380.911218	-380.904314	-380.903369	-380.942194	28.336	
C	-0.0001210363	 1.5253916438	-0.0418609288	-0.232636
N	 1.3421109897	 2.1520137233	-0.0536751479	-0.413024
C	 2.2272000998	 1.391351321	-0.8339753099	 0.284135
C	 2.1083428618	 0.0427977094	-1.1218077056	 0.262693
C	 3.2423436212	-0.3084190543	-1.9178839731	-0.303405
C	 4.0032607751	 0.8244694987	-2.0723626042	-0.077662
N	 3.3752334353	 1.8603077358	-1.4019874757	-0.334169
C	 1.0138858369	-0.6848838836	-0.5071473526	-0.15562
C	 0.0187547091	 0.0108997494	 0.0668515355	-0.117908
H	-0.5694201412	 1.9763755767	 0.7754139925	 0.104951
H	-0.5033525072	 1.8197700325	-0.9765669578	 0.117182
H	 1.6919827879	 2.2612347209	 0.8966850282	 0.226665
H	 3.4711897455	-1.2810174721	-2.3271119383	 0.092069
H	 4.9232698725	 0.9938186463	-2.6070990826	 0.116674
H	 3.6707512027	 2.8212305474	-1.3881454577	 0.25915
H	 1.0355967727	-1.7702565637	-0.4792261864	 0.085934
H	-0.8020895355	-0.4813111118	 0.5779087845	 0.084972
152.693	192.3592	284.3302	397.2492	441.3446	475.4155	519.8935	586.3823	621.1185	640.7682	680.1446	702.7707	741.7353	795.673	822.3791	836.7236	914.912	922.5798	969.1222	998.8832	1057.8103	1084.0169	1103.8521	1169.5212	1215.717	1255.6298	1272.2891	1319.7627	1354.5928	1398.2337	1428.5176	1455.3988	1474.3764	1509.359	1529.506	1597.9778	1669.011	2975.1885	3086.6193	3164.958	3187.9228	3241.2189	3273.8869	3447.5639	3676.3249
C1NC2=C(C=CN2)C=C1	C1Nc2c(cc[nH]2)C=C1	
InChI=1S/C7H8N2/c1-2-6-3-5-9-7(6)8-4-1/h1-3,5,8-9H,4H2	InChI=1S/C7H8N2/c1-2-6-3-5-9-7(6)8-4-1/h1-3,5,8-9H,4H2
