18
gdb 103530	1.96432	1.63197	1.59083	1.7749	71.27	-0.2696	-0.0253	0.2444	1027.7473	0.146798	-439.145892	-439.137033	-439.136089	-439.1794	32.542	
C	 0.0035122409	 1.5423364874	 0.1588920715	-0.411354
C	-0.0466451209	 0.025151544	-0.0328460443	-0.185928
C	 0.699718007	-0.4965372363	-1.2792197827	 0.092427
C	 0.5810455539	-2.025007362	-1.3870964601	-0.416201
N	 0.1991581026	 0.1390266321	-2.5106068043	-0.261558
C	 1.1920131447	 0.7334138603	-3.020769084	 0.108057
O	 2.407424657	 0.6722735569	-2.3788397189	-0.211214
C	 2.178962344	-0.0953677151	-1.2348094505	 0.436124
O	 3.0359858843	-0.3356946317	-0.4445628894	-0.330087
H	 1.0315355055	 1.8989868482	 0.2841800937	 0.131272
H	-0.4400079976	 2.0636834637	-0.6938223496	 0.131987
H	-0.5531376184	 1.8296478863	 1.055314774	 0.121429
H	 0.3883646036	-0.4776225824	 0.8379034954	 0.120911
H	-1.0864664061	-0.3082256202	-0.1167745057	 0.113234
H	-0.4732951895	-2.3069725771	-1.4416668141	 0.135241
H	 1.0822913645	-2.3968534951	-2.2848078432	 0.128963
H	 1.0370510148	-2.4962982619	-0.5125099319	 0.140514
H	 1.2017809798	 1.306422983	-3.9403508759	 0.156182
89.1697	102.349	171.6738	216.2334	234.1957	247.2539	298.2911	322.3731	412.7428	528.8065	599.2871	613.8832	728.3812	746.6234	779.3006	847.8192	880.5614	926.9712	948.4474	1006.7582	1015.9988	1057.621	1074.7238	1133.2382	1155.5406	1208.2302	1247.0771	1320.3618	1341.1996	1363.1589	1404.8095	1415.3947	1469.8622	1487.1343	1494.6938	1502.8843	1506.7684	1696.1146	1912.3936	3040.2656	3042.8194	3048.3566	3083.9048	3109.5423	3121.2718	3124.6414	3133.6562	3223.8769
CCC1(C)N=COC1=O	CC[C@@]1(C)N=COC1=O	
InChI=1S/C6H9NO2/c1-3-6(2)5(8)9-4-7-6/h4H,3H2,1-2H3	InChI=1S/C6H9NO2/c1-3-6(2)5(8)9-4-7-6/h4H,3H2,1-2H3/t6-/m1/s1
