21
gdb 122945	5.94647	0.47993	0.4611	2.13	77.41	-0.2654	-0.0373	0.228	2301.997	0.179475	-461.367586	-461.356694	-461.35575	-461.404927	37.76	
O	-0.0824757034	 1.4935317703	-0.0196292378	-0.421558
C	 0.02502533	 0.0784304446	 0.0221130679	-0.074244
C	-1.3831003887	-0.5007076265	-0.0179364106	-0.170508
C	-1.3970817891	-2.0308649817	 0.0178971334	-0.184394
C	-2.8137573661	-2.6125572161	-0.0162508751	-0.207464
C	-2.8139551728	-4.1494647355	 0.0777377578	 0.046021
O	-2.2166625996	-4.5951768412	 1.2653097898	-0.433026
C	-4.2253956533	-4.6858623408	-0.033203676	 0.136934
O	-4.7129757771	-5.3824421425	 0.8244507584	-0.261203
H	 0.8039631518	 1.86372857	 0.020313444	 0.285336
H	 0.6083191649	-0.3025012405	-0.8327325165	 0.082765
H	 0.5375518405	-0.2566708575	 0.9387807938	 0.086768
H	-1.9470646056	-0.0975528913	 0.8321950003	 0.107174
H	-1.8823169791	-0.1348687976	-0.9240649935	 0.102224
H	-0.8255119155	-2.4275499038	-0.8329417741	 0.092551
H	-0.8957679207	-2.3920433014	 0.9227826231	 0.124375
H	-3.3997232009	-2.2148516531	 0.8219234816	 0.110487
H	-3.3232591339	-2.3090902961	-0.9408541018	 0.095654
H	-2.2628995214	-4.5440388969	-0.7977327293	 0.090467
H	-2.8882057538	-5.1395781023	 1.7060924648	 0.294223
H	-4.7909555464	-4.39973822	-0.94378277	 0.097417
50.8682	66.6335	74.6178	119.7516	143.1355	152.9126	241.7821	264.4894	269.2194	327.0692	386.1897	429.5322	479.0768	513.9532	743.8167	753.3352	800.9552	841.741	908.1496	961.4979	1001.7214	1016.2415	1050.3394	1066.1336	1091.9538	1137.9906	1177.1386	1208.2049	1220.6632	1260.9739	1282.012	1293.2796	1316.4025	1327.7459	1341.6008	1365.4309	1393.2719	1406.5828	1439.9286	1464.1081	1474.0479	1491.1386	1506.3517	1529.551	1812.4691	2918.7693	2935.2905	2957.8857	2983.1891	3011.1509	3016.1834	3028.3208	3055.5156	3063.1434	3085.2639	3690.4158	3831.2113
OCCCCC(O)C=O	OCCCC[C@@H](O)C=O	
InChI=1S/C6H12O3/c7-4-2-1-3-6(9)5-8/h5-7,9H,1-4H2	InChI=1S/C6H12O3/c7-4-2-1-3-6(9)5-8/h5-7,9H,1-4H2/t6-/m1/s1
