14
gdb 133647	4.63553	0.62971	0.61897	1.9547	52.64	-0.2689	-0.0391	0.2298	1679.7094	0.094012	-605.320525	-605.311179	-605.310235	-605.357031	30.679	
F	-0.1134472887	 0.0152766646	 0.0392749356	-0.069626
C	-0.0875811625	 1.3505853444	 0.0258831216	 0.275313
F	 1.1844314892	 1.7372094089	-0.1023484309	-0.069645
F	-0.7610944224	 1.7691747931	-1.0569801345	-0.078465
C	-0.7316857583	 1.9386035178	 1.2721577297	-0.196641
O	-0.0119697074	 1.4875191385	 2.3853010259	-0.245189
C	-0.5109954064	 1.9645779309	 3.6121479703	-0.142022
C	 0.3578386347	 1.3998470659	 4.7248297803	 0.139961
O	 0.1722313348	 1.6343394033	 5.8879257855	-0.231625
H	-0.7104923241	 3.0348417898	 1.1807859	 0.124449
H	-1.7823559276	 1.6130631802	 1.2976908456	 0.124452
H	-0.4872473924	 3.0654579359	 3.6653323233	 0.131061
H	-1.5544754625	 1.6516534579	 3.7810490232	 0.131057
H	 1.1821182537	 0.7487924787	 4.3614525746	 0.106921
42.6161	59.0949	83.4721	94.5701	132.6	233.4979	303.5471	357.4451	426.3823	530.3492	536.7722	574.8636	681.8342	742.3816	861.6592	989.7857	1021.5499	1083.4407	1113.1348	1188.989	1199.3861	1203.7394	1239.573	1294.2088	1314.0644	1348.1246	1403.7177	1450.624	1480.5548	1510.7888	1848.1053	2910.6396	2970.7178	2994.3708	3004.0904	3035.7046
FC(F)(F)COCC=O	FC(F)(F)COCC=O	
InChI=1S/C4H5F3O2/c5-4(6,7)3-9-2-1-8/h1H,2-3H2	InChI=1S/C4H5F3O2/c5-4(6,7)3-9-2-1-8/h1H,2-3H2
