20
gdb 121674	2.79141	0.79537	0.65116	3.1419	82.99	-0.2434	0.0323	0.2757	1752.764	0.168469	-403.158025	-403.147295	-403.146351	-403.195992	37.566	
C	-0.1956308331	 1.3306256179	-0.4395780924	-0.377707
C	-1.0535897	 0.0776704976	-0.6309310575	-0.16798
C	-0.8523448786	-0.9403556233	 0.4981298013	-0.151237
N	-1.6437226128	-2.1468186577	 0.326942783	-0.323599
C	-2.7448362231	-2.412510421	 1.0701478481	 0.427071
O	-3.1630266648	-1.7031291661	 1.9664813191	-0.380073
C	-3.4868928175	-3.7251493994	 0.7303161874	-0.480679
C	-2.9520247567	-4.5222764261	-0.3627142977	 0.288143
C	-2.4903854432	-5.1619992444	-1.2710027791	-0.431652
H	-0.3517866224	 2.0451031078	-1.2529435491	 0.117165
H	-0.4396871196	 1.8368295581	 0.5005965193	 0.123843
H	 0.8715678599	 1.0829364707	-0.4147681004	 0.114748
H	-2.1149694438	 0.3479065522	-0.6725474879	 0.113838
H	-0.8139800292	-0.3945866759	-1.5927359395	 0.091758
H	 0.207880035	-1.2149956246	 0.570619913	 0.103138
H	-1.1517501051	-0.5085066238	 1.4563645191	 0.146546
H	-1.4072460848	-2.7943088822	-0.4096557957	 0.252913
H	-3.5104874559	-4.3097067195	 1.6569833332	 0.165342
H	-4.5262911158	-3.4432248546	 0.5284965152	 0.164891
H	-2.0976868288	-5.7419485558	-2.0694746192	 0.20353
22.503	44.9292	81.0981	81.441	140.6724	234.5359	270.2441	296.0061	328.4312	338.955	467.0634	490.0729	516.5311	624.0196	630.4386	649.7718	676.0699	748.3678	844.9778	895.0792	933.9066	947.7575	992.3573	1037.8155	1096.2885	1126.3811	1184.8203	1216.2354	1249.0171	1283.1576	1301.7264	1334.2432	1339.3121	1406.3721	1414.7697	1444.4491	1479.6404	1491.7703	1499.9755	1509.4775	1558.8224	1784.0742	2231.784	3020.3269	3023.9502	3032.1553	3047.338	3063.4417	3080.9564	3097.4701	3108.038	3114.0185	3502.5708	3613.7364
CCCNC(=O)CC#C	CCCNC(=O)CC#C	
InChI=1S/C7H11NO/c1-3-5-7(9)8-6-4-2/h1H,4-6H2,2H3,(H,8,9)	InChI=1S/C7H11NO/c1-3-5-7(9)8-6-4-2/h1H,4-6H2,2H3,(H,8,9)
