18
gdb 17277	5.95837	0.98909	0.92848	2.4804	68.94	-0.2615	0.0887	0.3501	1273.2692	0.152155	-384.898251	-384.889812	-384.888868	-384.932091	30.078	
C	 0.1330998527	 1.435685838	-0.3802777983	-0.419519
C	-0.1038447783	 0.0591706323	 0.1865116038	 0.077519
O	 1.0144399591	-0.8340821411	 0.2531955212	-0.267431
C	 0.3974476578	-0.4259369096	 1.4830755517	 0.070771
C	 1.248690693	 0.3747997171	 2.4425965212	-0.272387
C	 2.2322906244	-0.5168836645	 3.1669395999	 0.107696
C	 2.6254164533	-0.2809067918	 4.560019591	-0.18033
O	 1.6980140193	-1.3160071258	 4.2283008545	-0.238087
H	 1.0468605658	 1.8891569209	 0.0083953804	 0.126685
H	 0.2229959086	 1.3814576059	-1.4702877945	 0.131441
H	-0.7114113227	 2.0936544112	-0.1478312246	 0.12294
H	-1.0136971545	-0.4199967327	-0.1828123802	 0.087667
H	-0.1722805979	-1.2208450428	 1.9684898499	 0.102832
H	 1.7993352397	 1.1534786863	 1.9058920787	 0.107801
H	 0.6015981145	 0.8636834139	 3.1808633693	 0.107767
H	 2.9294041593	-1.0516504179	 2.5207118882	 0.10793
H	 3.5976666034	-0.6187663734	 4.9159211825	 0.115692
H	 2.2052846923	 0.5679648738	 5.0989519553	 0.111012
50.4343	78.8295	130.7059	174.965	216.3427	328.7692	367.7627	436.9725	491.4643	531.1036	760.5815	796.6316	821.6714	859.405	916.42	953.2733	961.1038	1002.0509	1068.7018	1082.0043	1117.105	1132.7692	1158.4639	1172.639	1178.985	1182.2225	1251.8173	1290.0659	1302.9077	1315.4699	1399.8343	1419.0398	1443.4384	1453.4445	1470.0239	1491.7363	1512.6323	1531.2531	3037.4677	3040.6322	3075.3013	3080.1597	3087.2102	3099.5016	3100.7489	3112.6865	3135.4283	3166.1981
CC1OC1CC1CO1	C[C@H]1O[C@H]1C[C@H]1CO1	
InChI=1S/C6H10O2/c1-4-6(8-4)2-5-3-7-5/h4-6H,2-3H2,1H3	InChI=1S/C6H10O2/c1-4-6(8-4)2-5-3-7-5/h4-6H,2-3H2,1H3/t4-,5+,6+/m1/s1
