17
gdb 89270	2.57893	1.83831	1.37555	2.5467	66.35	-0.2469	0.0555	0.3024	949.9705	0.135096	-458.889188	-458.881634	-458.88069	-458.920698	30.642	
O	 0.0884425992	 1.4306125732	-0.1322625478	-0.438282
C	 0.0204945128	 0.0393626933	-0.0063442147	 0.153318
C	 0.3133557443	-0.5993305549	 1.3988689623	-0.349576
C	-1.0893841897	-1.2679597109	 1.380034808	 0.373755
O	-1.2133774995	-2.6487877636	 1.5294048194	-0.477599
C	-2.2706675265	-0.4237169731	 1.9610040122	-0.060584
O	-2.0042043674	 0.9599833751	 1.6961622167	-0.257119
C	-2.5500819066	 0.1482660026	 0.6327719345	 0.019148
C	-1.3930739821	-0.6441915513	-0.015959603	-0.149303
H	-0.4609248706	 1.7904340245	 0.5758347866	 0.294589
H	 0.6675667684	-0.3719270403	-0.7848141369	 0.093848
H	 1.1185352015	-1.3383309867	 1.3824081461	 0.105092
H	 0.4947902316	 0.1246420094	 2.1963178797	 0.103333
H	-0.9620330857	-2.8800606337	 2.4311082454	 0.282741
H	-2.9201794969	-0.6525399392	 2.800141764	 0.108333
H	-3.4713539999	 0.503645084	 0.1865302995	 0.114316
H	-1.673154133	-1.2769617985	-0.857323502	 0.083988
145.0571	237.2641	247.5928	287.1871	336.6995	342.8146	434.4076	481.3804	538.255	564.186	670.1723	722.3737	785.6555	799.0709	823.8489	850.4795	882.5694	932.0505	966.8597	987.3665	1011.4855	1032.2329	1057.6778	1101.4922	1144.0875	1166.0531	1187.1668	1214.5602	1235.5315	1244.1692	1274.1703	1309.0969	1325.6885	1350.9974	1390.9973	1448.1086	1458.3453	3061.6333	3078.6447	3125.2067	3127.7981	3166.558	3191.9462	3772.0157	3789.2367
OC1CC2(O)C3OC3C12	O[C@H]1C[C@@]2(O)[C@H]3O[C@H]3[C@@H]12	
InChI=1S/C6H8O3/c7-2-1-6(8)3(2)4-5(6)9-4/h2-5,7-8H,1H2	InChI=1S/C6H8O3/c7-2-1-6(8)3(2)4-5(6)9-4/h2-5,7-8H,1H2/t2-,3+,4-,5-,6-/m0/s1
