21
gdb 79878	2.2933	1.67025	1.33771	1.224	81.92	-0.2267	0.0774	0.3041	1077.1102	0.182635	-387.025372	-387.016869	-387.015925	-387.057904	33.929	
C	-0.3511079628	 1.5002937881	-0.0949935956	-0.434245
C	 0.0604853952	 0.0440115308	 0.0589356999	-0.058847
C	 1.3375954989	-0.6845452256	-0.3219713368	-0.161769
C	 2.6706498953	-0.0692062399	 0.1614928263	-0.000096
C	 2.9124723849	 1.4711709736	 0.2543857392	-0.247623
C	 2.3890543766	 1.4588881099	 1.731984952	-0.253396
C	 2.1490388096	-0.0775857823	 1.6226577311	-0.076223
C	 0.8127377096	-0.6891853083	 1.130393916	 0.341051
O	 0.2336358148	-1.7536836036	 1.8114950787	-0.460538
H	 0.406868862	 2.2191013733	 0.2027105276	 0.128425
H	-0.6072787889	 1.7029254702	-1.1412755559	 0.116444
H	-1.2486623657	 1.6997444665	 0.5024158806	 0.108804
H	-0.7662306634	-0.60657153	-0.2351558305	 0.091597
H	 1.2924159588	-1.4753523789	-1.0630515851	 0.0865
H	 3.5340803363	-0.6749968803	-0.1160384387	 0.068409
H	 3.9721887929	 1.7303932481	 0.1879461382	 0.097361
H	 2.3743279967	 2.0944853575	-0.4614979222	 0.101722
H	 3.1691042764	 1.709575642	 2.4554484243	 0.097418
H	 1.5171774836	 2.07563865	 1.9587579247	 0.098583
H	 2.6185313634	-0.7162123863	 2.3714857453	 0.073899
H	-0.5160626741	-1.419409585	 2.3156201009	 0.282524
117.5257	174.3347	203.2698	237.6589	257.662	295.4659	314.4755	365.0963	495.1443	570.4793	639.1097	665.6299	698.2425	743.4601	809.2015	848.9253	863.0994	896.8932	923.3928	936.5528	959.8819	990.5831	1028.8684	1045.6744	1072.4369	1107.5523	1119.9906	1143.2856	1153.5193	1181.3399	1219.1264	1230.4474	1248.2617	1255.7092	1279.5757	1300.3682	1307.2656	1338.5687	1352.7171	1413.5664	1469.239	1475.3431	1493.417	1508.6982	1511.0189	3031.4467	3061.4436	3068.5355	3079.5138	3083.3675	3093.3424	3105.7683	3110.8782	3123.4503	3165.1082	3188.5661	3794.1939
CC1C2C3CCC3C12O	C[C@H]1[C@H]2[C@H]3CC[C@H]3[C@@]12O	
InChI=1S/C8H12O/c1-4-7-5-2-3-6(5)8(4,7)9/h4-7,9H,2-3H2,1H3	InChI=1S/C8H12O/c1-4-7-5-2-3-6(5)8(4,7)9/h4-7,9H,2-3H2,1H3/t4-,5-,6+,7-,8-/m0/s1
