23
gdb 119461	4.78583	0.78424	0.75681	1.7008	86.72	-0.2426	0.0868	0.3294	1653.1758	0.204226	-388.270406	-388.260533	-388.259589	-388.305475	36.863	
C	-0.0135473431	 1.5904917657	 0.2477583424	-0.382763
C	-0.0305187924	 0.0649240445	 0.1303231718	-0.160854
C	-1.4274889993	-0.4927378949	-0.1862144599	-0.312813
C	-1.4450660876	-1.9852794961	-0.2949969869	 0.448587
C	-0.8521843195	-2.883101798	-1.3985691234	-0.317285
C	-1.954824242	-3.9568863427	-1.0610043089	 0.011476
C	-1.5067439828	-5.3440931611	-0.6243118252	-0.402851
C	-2.4601390045	-3.0006009156	 0.0355823403	-0.069581
O	-1.3596721803	-2.7512754687	 0.9228192127	-0.295939
H	 0.9904697177	 1.9611214073	 0.4761234688	 0.112835
H	-0.3395198015	 2.0647548062	-0.6849766446	 0.112093
H	-0.6840798123	 1.9335287689	 1.0435737571	 0.115722
H	 0.6717381179	-0.2525861167	-0.6510110493	 0.098556
H	 0.3234801833	-0.3869695294	 1.0641917199	 0.11552
H	-2.132360985	-0.1911476593	 0.5979220736	 0.105719
H	-1.792456507	-0.0613280337	-1.1281729604	 0.09677
H	-0.9573081814	-2.4697933314	-2.405016762	 0.100323
H	 0.1850885944	-3.1870171727	-1.2351015914	 0.104069
H	-2.6807511678	-4.0182278515	-1.8785140698	 0.072963
H	-0.8296154605	-5.2684884882	 0.2310976243	 0.132855
H	-2.3614282988	-5.9638438343	-0.330808472	 0.111046
H	-0.9814339504	-5.8627572542	-1.4333383694	 0.111786
H	-3.4573611871	-2.901100004	 0.4527296422	 0.091766
65.1378	88.7117	91.2446	176.9163	235.6125	241.0324	251.4864	308.3873	350.0124	382.2514	437.419	590.9417	686.5056	714.7913	745.2221	801.6332	854.4949	867.8106	890.9749	915.3668	923.6349	946.4095	1016.2555	1019.9574	1046.9104	1077.0856	1097.992	1112.3892	1139.3084	1187.2874	1204.6911	1220.4786	1249.2572	1264.3793	1295.1574	1309.9572	1334.3178	1362.8866	1386.1133	1402.0854	1412.5821	1453.0655	1471.0473	1485.3971	1492.7616	1494.1914	1498.7198	1504.1466	1509.5256	3015.0742	3026.399	3029.3858	3030.8692	3051.6147	3053.2398	3060.2785	3071.536	3092.8365	3097.0151	3102.8771	3114.6774	3118.5516	3166.7048
CCCC12CC(C)C1O2	CCC[C@]12C[C@@H](C)[C@H]1O2	
InChI=1S/C8H14O/c1-3-4-8-5-6(2)7(8)9-8/h6-7H,3-5H2,1-2H3	InChI=1S/C8H14O/c1-3-4-8-5-6(2)7(8)9-8/h6-7H,3-5H2,1-2H3/t6-,7-,8+/m1/s1
