19
gdb 26410	4.2874	0.90761	0.83781	1.6354	78.1	-0.1949	0.0136	0.2085	1425.8186	0.159632	-419.239114	-419.230159	-419.229215	-419.27324	33.266	
C	-0.0261467773	 1.5679049923	 0.0718877835	-0.396654
C	 0.0020462209	 0.0396366295	 0.013861524	 0.05576
C	 0.6328212791	-0.5674546513	 1.2779688592	-0.385227
N	-1.3506914499	-0.4470257791	-0.247191964	-0.388143
C	-1.5669553667	-1.7594215743	-0.6077731569	 0.315853
C	-0.7415168944	-2.6949572265	-1.1593305501	-0.133239
O	-1.5006480295	-3.8281788906	-1.3906892044	-0.14426
C	-2.7245596241	-3.5032047363	-0.9549129798	 0.084485
N	-2.8407442152	-2.3052068055	-0.4786119173	-0.327287
H	 0.9808350008	 1.9689897876	 0.2175538088	 0.11849
H	-0.4420147394	 1.9849084615	-0.848882125	 0.127014
H	-0.6431796291	 1.9115919127	 0.9112547559	 0.11377
H	 0.6067666088	-0.2562350304	-0.853830263	 0.09062
H	 0.0840085618	-0.2492404538	 2.1717633561	 0.112195
H	 0.6142541793	-1.6599857566	 1.238513895	 0.126155
H	 1.6736831135	-0.2460002508	 1.3884789911	 0.113288
H	-2.0567447194	-0.1087167185	 0.3929452408	 0.237242
H	 0.2930144267	-2.7441985443	-1.4424575669	 0.133002
H	-3.4912406558	-4.2579573257	-1.0365239769	 0.146937
65.7802	77.4415	131.5207	227.324	257.1279	299.8127	319.7454	383.8371	439.3239	480.809	542.544	629.6941	634.9723	736.9951	763.6526	843.2557	848.2343	930.0102	935.1711	948.203	972.3302	1033.3141	1075.9391	1143.9253	1152.1481	1183.6793	1200.5088	1254.493	1279.9052	1345.805	1355.6223	1378.0599	1395.4281	1417.0858	1482.8181	1486.0746	1486.7397	1506.7343	1510.7469	1567.7029	1659.4072	3015.798	3028.8628	3034.0511	3095.5451	3103.4793	3116.0111	3124.8213	3271.9895	3313.2546	3582.7519
CC(C)NC1=COC=N1	CC(C)Nc1cocn1	
InChI=1S/C6H10N2O/c1-5(2)8-6-3-9-4-7-6/h3-5,8H,1-2H3	InChI=1S/C6H10N2O/c1-5(2)8-6-3-9-4-7-6/h3-5,8H,1-2H3
