20
gdb 113261	3.32881	0.87711	0.78188	3.0065	76.28	-0.2468	-0.0383	0.2086	1489.8951	0.168571	-440.263247	-440.253013	-440.252069	-440.299642	36.223	
C	 0.0410800158	 1.7856439151	 0.105177785	-0.454428
C	-0.1438151071	 0.2826207328	 0.1899168591	 0.307889
C	-1.4327186573	-0.2344790361	-0.4681442995	-0.359044
C	-1.2748452369	-0.2779869444	-1.9767555833	 0.158668
O	-0.7817279557	-1.2164334399	-2.552018457	-0.23916
N	 1.0683056155	-0.5297172644	-0.011817118	-0.374517
C	 0.4053568886	-0.5414729805	 1.3084780387	-0.07532
C	 1.2602044886	-0.0292428162	 2.4463155123	-0.076282
O	 2.3416959605	-0.9119465166	 2.6914668422	-0.418647
H	 1.0195463883	 2.0858848527	 0.4811553205	 0.138055
H	-0.025066844	 2.1243941414	-0.9347914942	 0.12167
H	-0.732223659	 2.3092822763	 0.6780654226	 0.119684
H	-1.6359654772	-1.255570139	-0.1327443006	 0.127225
H	-2.2777041219	 0.40547772	-0.1907894174	 0.113204
H	-1.6095037315	 0.6211658714	-2.5395573646	 0.088514
H	 0.8487620932	-1.3644376463	-0.551212834	 0.245387
H	-0.1637072633	-1.4350491818	 1.5616239707	 0.089642
H	 1.6185698948	 0.9874350675	 2.2350589953	 0.088577
H	 0.675951147	 0.0095882259	 3.3718764769	 0.107748
H	 2.7996392816	-1.0052080779	 1.8471070352	 0.291135
48.6953	58.34	68.903	148.7591	169.0883	210.9811	255.8247	310.5447	357.5563	416.8491	440.931	474.0302	517.559	588.9281	699.1702	823.6392	866.4701	896.8426	952.6929	979.0363	983.6914	1018.5208	1038.1679	1057.2985	1095.9339	1116.8653	1132.9229	1190.6325	1204.6669	1260.6975	1272.4062	1314.2315	1354.5609	1374.7923	1418.2876	1422.501	1426.8772	1461.0185	1469.9844	1493.6197	1494.6535	1504.6699	1819.0288	2887.1037	3010.0293	3034.6865	3042.9385	3073.2082	3092.0575	3102.7117	3116.4186	3143.2328	3495.7756	3785.0913
CC1(CC=O)NC1CO	C[C@@]1(CC=O)N[C@H]1CO	
InChI=1S/C6H11NO2/c1-6(2-3-8)5(4-9)7-6/h3,5,7,9H,2,4H2,1H3	InChI=1S/C6H11NO2/c1-6(2-3-8)5(4-9)7-6/h3,5,7,9H,2,4H2,1H3/t5-,6-/m0/s1
