22
gdb 103999	2.52538	1.32998	1.20606	0.6587	82.2	-0.2209	0.0694	0.2904	1195.7898	0.192526	-404.314189	-404.304421	-404.303477	-404.348099	37.612	
C	-0.1502554025	 1.5323861779	-0.0397978968	-0.406669
C	 0.1199055585	 0.0235414165	-0.0490921877	-0.224516
C	 0.7502087414	-0.4949165061	 1.2404956581	 0.377869
O	 2.0346188232	 0.0653161284	 1.4734740587	-0.494572
C	-0.1336263385	-0.5005780415	 2.5521596343	-0.283477
C	 0.0793530718	-2.0126037082	 2.6311847672	-0.106788
N	-0.4826843273	-2.5636952833	 1.3679044192	-0.381801
C	 0.9012153944	-2.0276796146	 1.3912586265	 0.315525
C	 2.093221892	-2.8317429865	 0.9788879552	-0.517437
H	 0.7756997402	 2.1126631376	 0.0519546421	 0.104431
H	-0.6307630785	 1.8492786577	-0.9700417018	 0.119077
H	-0.8104714347	 1.8180598269	 0.7867384759	 0.119541
H	-0.8125329508	-0.5250333119	-0.209457235	 0.121457
H	 0.7903668565	-0.2236120677	-0.8819506482	 0.093795
H	 1.9300206508	 1.0162379245	 1.580199889	 0.277637
H	 0.3682029218	 0.0494287769	 3.351032813	 0.097943
H	-1.1746219014	-0.1790012533	 2.4614191436	 0.097032
H	 0.1488115181	-2.6320139622	 3.5176933851	 0.087585
H	-0.4007548464	-3.5793213888	 1.4210900603	 0.222744
H	 2.1196891284	-2.9806304403	-0.1071833469	 0.123711
H	 3.0135919624	-2.319587045	 1.2710625142	 0.146244
H	 2.0809926704	-3.8199550069	 1.452243834	 0.110667
92.4019	140.8637	162.6042	210.8427	224.8693	248.1904	275.7987	287.3559	347.4322	402.8431	455.9748	484.6153	513.3205	618.5481	684.6561	770.1216	783.2986	860.2367	878.0091	916.2914	941.9006	960.5118	988.4937	1009.1329	1026.6984	1045.1219	1090.5004	1105.4582	1112.0659	1157.3552	1189.4464	1228.3191	1245.8394	1271.1692	1305.2655	1323.7809	1350.5216	1382.0161	1404.071	1410.1878	1445.2731	1473.2276	1481.6538	1482.364	1501.2933	1501.7075	1508.8097	3024.3197	3025.5185	3030.5087	3058.4798	3077.9889	3083.7621	3102.0904	3104.3856	3118.4931	3123.2846	3180.9163	3463.301	3815.8156
CCC1(O)CC2NC12C	CC[C@@]1(O)C[C@H]2N[C@@]12C	
InChI=1S/C7H13NO/c1-3-7(9)4-5-6(7,2)8-5/h5,8-9H,3-4H2,1-2H3	InChI=1S/C7H13NO/c1-3-7(9)4-5-6(7,2)8-5/h5,8-9H,3-4H2,1-2H3/t5-,6-,7-/m1/s1
