21
gdb 86945	3.93796	0.84729	0.7641	4.0753	80.97	-0.2752	0.0108	0.286	1535.2342	0.18085	-424.247983	-424.238174	-424.237229	-424.283439	35.52	
C	-1.1889878905	 0.9226053478	 0.0291559803	-0.412768
C	 0.0127546213	-0.004491687	-0.0745810926	 0.041579
C	 1.2583951449	 0.4647810251	-0.8806037154	-0.278026
C	 2.1356598797	-0.2526467201	 0.1600274676	 0.14513
O	 3.3191015028	 0.4358896472	 0.5569790464	-0.186306
C	 4.4880510586	-0.2299759763	 0.5616652553	 0.162285
O	 5.5197149402	 0.2717141726	 0.8933123542	-0.277728
C	 0.9484798216	-0.2403135226	 1.1646740199	-0.056453
C	 1.0062094288	 0.8905607762	 2.1883136428	-0.390461
H	-0.9083022209	 1.9152501757	 0.3943033635	 0.119515
H	-1.6590519458	 1.0532457858	-0.9517605445	 0.11798
H	-1.9484558463	 0.5183254592	 0.7073732389	 0.117487
H	-0.3182602078	-0.9777436262	-0.4537913116	 0.074924
H	 1.3523592816	 0.1627021342	-1.926158875	 0.102396
H	 1.3960081669	 1.5476725677	-0.8105110159	 0.120133
H	 2.3943516705	-1.2717573361	-0.1502487317	 0.086368
H	 4.3837762199	-1.2803313854	 0.2236831413	 0.075298
H	 0.7877352168	-1.1901625298	 1.6842015608	 0.069839
H	 1.1920360621	 1.8631637618	 1.7240244761	 0.125866
H	 0.0662038297	 0.9535745037	 2.7449418308	 0.116
H	 1.8134946058	 0.7167435664	 2.9054364286	 0.126942
39.2234	71.3749	145.2846	198.0271	211.8271	231.0428	248.3563	290.4019	335.0016	388.5406	441.7366	505.7336	634.7453	684.8291	773.5334	842.1375	881.7313	904.2827	955.2604	1002.5609	1021.2353	1043.9973	1045.082	1065.1212	1136.3172	1155.3155	1170.6395	1178.8167	1203.0799	1243.4176	1261.3564	1285.9022	1296.7923	1366.2812	1371.3946	1393.8004	1414.145	1418.5738	1443.6417	1488.8211	1489.9828	1491.8763	1502.5391	1504.0673	1864.6131	2937.8035	3030.3374	3032.1667	3035.863	3043.2329	3055.6464	3061.821	3093.0673	3104.7921	3112.0355	3114.9105	3120.0495
CC1CC(OC=O)C1C	C[C@H]1C[C@@H](OC=O)[C@H]1C	
InChI=1S/C7H12O2/c1-5-3-7(6(5)2)9-4-8/h4-7H,3H2,1-2H3	InChI=1S/C7H12O2/c1-5-3-7(6(5)2)9-4-8/h4-7H,3H2,1-2H3/t5-,6-,7+/m0/s1
