18
gdb 88289	3.91172	0.95187	0.89885	2.3079	75.49	-0.2605	-0.0421	0.2183	1352.9918	0.14654	-439.053393	-439.044479	-439.043535	-439.087816	32.124	
C	 0.5821767005	 1.6229705901	-0.3805192652	-0.433897
C	 0.0859445225	 0.2241819882	-0.1339171775	 0.084767
O	 1.0528369422	-0.8048621615	 0.0100736874	-0.231064
C	 0.2564242756	-0.5124316959	 1.1512794846	-0.061396
C	 0.9334700166	 0.1153100439	 2.3343952676	 0.376217
O	 2.0161251683	 0.6631187439	 2.2670761473	-0.342683
C	 0.1804017804	 0.0470876732	 3.6249683219	-0.113191
C	 0.9595941032	-0.4213085674	 4.8201313685	-0.217406
N	 0.5862497958	 0.9780160581	 4.6862739129	-0.302692
H	 1.4292085214	 1.8558452781	 0.2654168075	 0.164989
H	 0.8992875856	 1.719482162	-1.4241182037	 0.133606
H	-0.2209731301	 2.3468722419	-0.2067854994	 0.123299
H	-0.7871924242	-0.073943586	-0.7189528687	 0.10083
H	-0.4889582726	-1.2699700066	 1.398486755	 0.10148
H	-0.8820041442	-0.1729033341	 3.5705285433	 0.10083
H	 0.4385612394	-0.9759530012	 5.5949909546	 0.129593
H	 1.9938919713	-0.7050599149	 4.64690447	 0.137093
H	 1.3912236682	 1.4930740983	 4.3257290841	 0.249625
49.7122	79.1161	171.1748	176.8435	220.6685	261.5217	301.092	370.7038	381.2939	457.035	690.4809	753.8892	786.8832	830.0307	848.6693	869.9037	899.5719	970.8408	991.2488	1008.2795	1027.0383	1078.1189	1089.665	1121.8173	1136.1048	1167.158	1171.056	1184.6666	1283.5884	1293.0825	1321.454	1377.2043	1400.6513	1420.5553	1449.8692	1490.7097	1497.1864	1501.6495	1776.2276	3042.4668	3082.4076	3101.4389	3103.3383	3113.9812	3151.3238	3155.9213	3208.5654	3457.6063
CC1OC1C(=O)C1CN1	C[C@H]1O[C@H]1C(=O)[C@H]1CN1	
InChI=1S/C6H9NO2/c1-3-6(9-3)5(8)4-2-7-4/h3-4,6-7H,2H2,1H3	InChI=1S/C6H9NO2/c1-3-6(9-3)5(8)4-2-7-4/h3-4,6-7H,2H2,1H3/t3-,4-,6-/m1/s1
