18
gdb 77610	2.05449	1.62695	1.29858	3.9626	78.17	-0.2219	0.0068	0.2287	1078.7822	0.147951	-398.094072	-398.084925	-398.08398	-398.127797	33.687	
C	 0.052555875	 1.5738562285	 0.0462655238	-0.491414
C	 0.025876112	 0.0739381563	 0.0439996765	 0.220058
C	 0.6045885236	-0.786716609	-1.0868799507	-0.217262
N	 1.2454530418	-1.7109623076	-0.0993148039	-0.364033
C	 0.667103199	-0.9567807534	 1.0104432256	 0.142259
C	 1.3336311352	-0.7544948403	 2.2544812758	 0.224871
N	 1.8251354313	-0.579826002	 3.2891535848	-0.360001
C	-0.8636202984	-0.7837773445	 0.8922894181	-0.074256
N	-1.6357889871	-0.173105048	 1.9317494782	-0.524474
H	 1.0349248267	 1.9437141317	-0.2633710469	 0.137646
H	-0.694205049	 1.9681405489	-0.6526066944	 0.137509
H	-0.1633975089	 2.000218442	 1.0294210127	 0.13178
H	-0.1313864041	-1.2443291688	-1.757881177	 0.108379
H	 1.3606760122	-0.2687944571	-1.6859748406	 0.120282
H	 0.9085946343	-2.6702424114	-0.1472282956	 0.223429
H	-1.3851995973	-1.6145606263	 0.4147164908	 0.094138
H	-1.7702221267	-0.8252760222	 2.6991377533	 0.247174
H	-1.1692112196	 0.6376780033	 2.3234702394	 0.243912
104.8123	111.8972	128.6333	176.9136	226.7595	274.0897	279.1389	351.0803	391.0281	483.9327	563.0874	583.6536	624.1693	687.9978	702.8027	790.1292	873.5548	884.1354	945.2409	980.5433	1010.338	1043.2221	1099.7096	1110.2285	1168.2059	1184.8687	1195.2196	1250.0054	1278.1354	1323.1697	1359.8805	1384.2425	1424.6803	1454.5934	1481.0287	1496.1528	1513.0688	1664.0019	2331.8759	3027.9969	3034.9909	3076.2487	3092.9211	3097.4939	3113.7249	3475.542	3503.543	3584.3499
CC12CNC1(C#N)C2N	C[C@@]12CN[C@]1(C#N)[C@H]2N	
InChI=1S/C6H9N3/c1-5-3-9-6(5,2-7)4(5)8/h4,9H,3,8H2,1H3	InChI=1S/C6H9N3/c1-5-3-9-6(5,2-7)4(5)8/h4,9H,3,8H2,1H3/t4-,5-,6+/m0/s1
