23
gdb 105528	1.92659	1.63434	1.11246	1.5583	84.75	-0.2425	0.0845	0.3271	1233.0099	0.205385	-388.267517	-388.258014	-388.25707	-388.302021	36.005	
C	 1.0420078877	-0.3043348588	-1.4861417286	-0.39485
C	 0.1234427366	-0.0027227416	-0.2971026542	-0.21904
C	 0.5944915539	-0.580445287	 1.0396679865	 0.408085
C	 1.8062133865	 0.1469970773	 1.6896037025	-0.324538
C	 0.7929810458	 0.5953006466	 2.756603601	-0.072199
O	-0.284361972	-0.1105915527	 2.1074431864	-0.325303
C	 0.6741459892	-2.0932626259	 1.0321280334	-0.027423
C	 0.5256051915	-2.8828038942	 2.3060371594	-0.28111
C	-0.5677931596	-2.9145228287	 1.2654392901	-0.270568
H	 1.0732716037	-1.373546814	-1.7156320361	 0.12175
H	 0.6918861148	 0.2135585736	-2.3839491134	 0.116379
H	 2.0692400483	 0.026708367	-1.295243734	 0.115099
H	 0.0233447976	 1.0820001315	-0.1727357166	 0.093386
H	-0.8842365924	-0.387648563	-0.4932977131	 0.105906
H	 2.597169743	-0.5137524936	 2.0468929629	 0.109415
H	 2.244045916	 0.9478274719	 1.090605806	 0.103838
H	 0.9739931845	 0.2213296537	 3.7716280017	 0.100343
H	 0.5969508059	 1.6732137031	 2.8082838511	 0.100771
H	 1.3848087401	-2.4864267877	 0.3102778113	 0.082951
H	 1.1438919907	-3.763811174	 2.4385297104	 0.103265
H	 0.3117876262	-2.3318243845	 3.2143156915	 0.121219
H	-1.4776103334	-2.374755478	 1.5030697643	 0.12738
H	-0.7108228545	-3.8170820408	 0.6818212074	 0.105242
73.4907	88.364	116.5973	186.2941	200.6773	233.7521	282.8356	325.8339	408.068	460.0508	536.0481	617.4636	780.2336	786.9947	791.8854	828.2918	848.1162	871.5232	931.7549	945.318	954.0274	979.4442	1015.9507	1019.2638	1038.2041	1062.057	1077.1068	1088.938	1137.4987	1150.6664	1166.3297	1197.6174	1207.3981	1212.3548	1227.5436	1247.3112	1258.8145	1309.5807	1348.3754	1362.6359	1407.1011	1413.2958	1454.8603	1481.2008	1489.7743	1498.678	1502.8178	1509.8393	1529.5827	3015.172	3031.3302	3035.1528	3053.1968	3067.0505	3075.9406	3100.6382	3110.4858	3132.6603	3135.5422	3137.555	3146.1467	3218.5338	3232.5158
CCC1(CCO1)C1CC1	CC[C@]1(CCO1)C1CC1	
InChI=1S/C8H14O/c1-2-8(5-6-9-8)7-3-4-7/h7H,2-6H2,1H3	InChI=1S/C8H14O/c1-2-8(5-6-9-8)7-3-4-7/h7H,2-6H2,1H3/t8-/m0/s1
