18
gdb 80632	2.76245	1.58907	1.26084	4.9592	75.07	-0.2666	0.0301	0.2966	1033.2599	0.149146	-401.945337	-401.937664	-401.93672	-401.977418	29.9	
C	-0.0720190734	 1.5389300849	-0.0925410208	-0.410092
C	 0.0365203945	 0.0190078436	-0.0318977723	-0.006808
C	 0.9626349314	-0.5761128511	-1.1214719137	 0.080703
C	 1.1861981031	-2.0396732317	-0.6889833618	-0.252258
C	 1.9661368435	-1.2689274524	 0.395500221	 0.076901
O	 2.2940676589	-0.2630586584	-0.5989543111	-0.285233
C	 0.8308320346	-0.5715564655	 1.2075543654	-0.178806
C	 1.3323282486	 0.413308549	 2.1552274699	 0.285306
N	 1.7297537628	 1.1806195919	 2.9231890537	-0.334062
H	 0.9206867985	 1.9950629978	-0.1229097924	 0.150816
H	-0.6210127457	 1.842148122	-0.9900838828	 0.112642
H	-0.6009447317	 1.9384413197	 0.7770831603	 0.133055
H	-0.9597878976	-0.4315140243	-0.0765333424	 0.085557
H	 0.8041647082	-0.2647745661	-2.153733895	 0.089633
H	 0.3285580192	-2.6547881058	-0.4046786987	 0.101036
H	 1.8574457662	-2.5700238814	-1.3639832011	 0.123348
H	 2.8199473667	-1.6635808488	 0.9439728357	 0.104105
H	 0.2323354822	-1.3004539533	 1.7618842959	 0.124157
105.8204	149.6732	214.6658	249.1473	304.3013	386.2946	456.0324	469.9997	543.1648	641.7379	724.1057	789.1493	819.4043	837.936	875.4397	883.7994	922.0167	958.202	1003.7312	1014.0224	1045.2453	1075.1133	1099.4235	1112.834	1139.3	1190.9786	1193.6097	1230.0231	1264.2102	1282.1311	1291.6726	1322.0803	1345.9737	1366.2431	1413.8929	1486.702	1494.1747	1504.0872	2356.1425	3042.348	3057.2787	3067.718	3075.4441	3110.407	3128.5716	3130.5045	3140.755	3151.9815
CC1C2CC(O2)C1C#N	C[C@H]1[C@@H]2C[C@@H](O2)[C@H]1C#N	
InChI=1S/C7H9NO/c1-4-5(3-8)7-2-6(4)9-7/h4-7H,2H2,1H3	InChI=1S/C7H9NO/c1-4-5(3-8)7-2-6(4)9-7/h4-7H,2H2,1H3/t4-,5+,6+,7-/m1/s1
