20
gdb 87433	4.20988	1.23161	1.12253	1.7651	84.75	-0.2235	0.0835	0.307	1161.5704	0.171119	-365.891818	-365.884143	-365.883199	-365.92377	30.865	
C	-0.0600900262	 1.5518319546	-0.1153024484	-0.403988
C	 0.000204596	 0.0411342728	-0.0383318795	-0.099218
C	 1.3271272654	-0.6851108319	-0.2342246409	-0.372617
C	 0.6676436261	-0.6523468645	 1.1039497054	 0.453125
C	 1.1424389136	-0.1931047248	 2.4697929352	-0.125554
C	-0.1223611717	-0.7453410366	 3.2010411209	-0.056818
C	 0.7817072374	-1.5272652247	 4.1442208971	-0.189643
N	 1.5740170753	-1.6473670456	 2.8446919096	-0.159341
C	 0.22989511	-1.7473388082	 2.0555812432	-0.12867
H	 0.8383928835	 2.004049501	 0.3176137464	 0.114563
H	-0.133728157	 1.8920013621	-1.1541516539	 0.118369
H	-0.9252651255	 1.9482418016	 0.4278887126	 0.11645
H	-0.8686334261	-0.4661285161	-0.4532088402	 0.083337
H	 1.3309104976	-1.6170233539	-0.7904566832	 0.112945
H	 2.2142993445	-0.0758223379	-0.3807079009	 0.112443
H	 1.7647596364	 0.6556441546	 2.7590262857	 0.081137
H	-1.0745759162	-0.2321123559	 3.3737472124	 0.065372
H	 1.312768325	-0.9774339051	 4.9284533676	 0.09883
H	 0.4244877573	-2.489259999	 4.5267218033	 0.098845
H	-0.2212872055	-2.7209321626	 1.8543215675	 0.080434
121.7912	151.5961	192.5366	229.6632	326.0938	405.5477	462.5832	514.0605	591.2747	710.234	786.9112	808.9281	833.3434	835.4857	867.4899	883.9697	897.0474	921.4022	974.1318	1005.7918	1029.385	1034.8756	1042.7188	1069.2585	1081.1476	1102.793	1128.2257	1131.4427	1158.6759	1165.4015	1178.4128	1186.2707	1217.1553	1230.4016	1270.5659	1286.3753	1358.2935	1413.9689	1446.3961	1492.2823	1497.216	1520.0233	1523.3414	3025.9632	3031.4537	3046.1526	3088.0434	3091.9233	3093.236	3096.7393	3102.879	3120.6176	3126.327	3204.697
CC1CC11C2C3CN2C13	C[C@H]1C[C@]21[C@H]1[C@@H]3CN1[C@H]23	
InChI=1S/C8H11N/c1-4-2-8(4)6-5-3-9(6)7(5)8/h4-7H,2-3H2,1H3	InChI=1S/C8H11N/c1-4-2-8(4)6-5-3-9(6)7(5)8/h4-7H,2-3H2,1H3/t4-,5-,6+,7-,8-/m0/s1
