20
gdb 6937	3.88821	1.13904	1.07841	0.8089	72.52	-0.2338	0.0799	0.3137	1212.6273	0.173875	-386.119508	-386.109929	-386.108985	-386.153784	34.968	
C	-0.1532461393	 1.4221593551	 0.0249709364	-0.386769
C	-0.3057872793	-0.0430934436	-0.343804907	-0.037869
O	-1.2750008003	-0.6227863696	 0.5205560636	-0.246547
C	-1.4759443798	-1.9785908524	 0.2876419042	 0.098588
C	-2.7362611	-2.5820445703	 0.8435146176	-0.38595
C	-2.5491617545	-2.44769677	-0.6594988616	 0.353332
C	-3.388103595	-1.4554299784	-1.4290823663	-0.450735
O	-2.2003957591	-3.6113424089	-1.3661444679	-0.462298
H	 0.5958357697	 1.8994880971	-0.6138213008	 0.11528
H	-1.1025390657	 1.95126193	-0.0990562025	 0.124998
H	 0.1616703668	 1.524665511	 1.0673072581	 0.127589
H	-0.6180466058	-0.1533055701	-1.3930787451	 0.09595
H	 0.6537442974	-0.5736026594	-0.2336225448	 0.091547
H	-0.5737863876	-2.5915028906	 0.3161380318	 0.092023
H	-2.6678102298	-3.5719530125	 1.280456978	 0.111981
H	-3.4295582331	-1.9024054712	 1.3275673901	 0.120063
H	-3.4778406319	-0.5160136248	-0.8785623644	 0.131473
H	-2.9335680529	-1.2495011551	-2.4035056094	 0.121908
H	-4.3980831867	-1.845940748	-1.6045306448	 0.105825
H	-2.9945049432	-4.1502946584	-1.457284735	 0.279612
61.9312	98.23	125.5228	216.8355	220.5214	256.1855	283.2508	312.3044	353.7109	404.1686	427.7483	477.209	553.7664	721.0152	806.7979	820.8345	881.399	908.4105	935.2397	978.6464	1026.9963	1055.4499	1078.6675	1093.595	1120.2434	1156.0646	1187.0388	1205.116	1241.3379	1294.7069	1299.7763	1345.4334	1389.0895	1404.3459	1411.2774	1433.3325	1478.4633	1483.388	1488.4769	1499.552	1510.3993	1527.1	2974.2737	3008.5774	3025.9993	3044.5364	3087.6109	3094.1652	3118.8508	3121.2805	3127.376	3133.7182	3227.7573	3784.5774
CCOC1CC1(C)O	CCO[C@H]1C[C@]1(C)O	
InChI=1S/C6H12O2/c1-3-8-5-4-6(5,2)7/h5,7H,3-4H2,1-2H3	InChI=1S/C6H12O2/c1-3-8-5-4-6(5,2)7/h5,7H,3-4H2,1-2H3/t5-,6-/m0/s1
