19
gdb 117148	4.34773	0.801	0.68515	2.9176	77.66	-0.2496	-0.0137	0.236	1628.9172	0.157164	-456.356408	-456.345924	-456.34498	-456.393419	35.43	
C	-0.0247823303	 1.3788238683	 0.0487911616	-0.228352
O	-0.015924676	-0.0292985545	 0.0028029595	-0.207571
C	 0.6430522429	-0.5973104326	 1.0904938507	-0.192099
C	 0.598220442	-2.1189861777	 0.9496207119	 0.407016
O	 0.0604094572	-2.6673286189	 0.0159403756	-0.328493
N	 1.2263233284	-2.824411626	 1.98045906	-0.12368
C	 1.8785362685	-2.1686571136	 3.1120184442	-0.352314
C	 1.2239786231	-4.2181778456	 1.9160488283	 0.100448
N	 1.7733290386	-4.9304987418	 2.8141023606	-0.47844
H	 0.9947837726	 1.7958192301	 0.0367656333	 0.106098
H	-0.5593938027	 1.7246102954	-0.838295592	 0.137323
H	-0.5399179417	 1.7564491649	 0.9463306185	 0.106095
H	 1.6955359815	-0.2656755359	 1.1471600935	 0.110718
H	 0.175736917	-0.3041720394	 2.0478642573	 0.110658
H	 1.1674398784	-1.5701026875	 3.6891387526	 0.134627
H	 2.278749064	-2.9556245388	 3.7495382334	 0.18347
H	 2.699983313	-1.5266252097	 2.7804524568	 0.134592
H	 0.7061069154	-4.5711267817	 1.0250639032	 0.146997
H	 1.6660525079	-5.9172389251	 2.589754261	 0.232907
30.684	59.8665	104.2659	127.1804	140.3172	176.5441	240.4768	291.318	292.0352	329.1707	383.1104	423.952	552.2462	580.2833	731.4598	831.0186	833.4887	969.9117	1024.082	1028.577	1085.8144	1106.2676	1153.2446	1174.9233	1178.7784	1183.2734	1242.7442	1271.2015	1318.4868	1358.0027	1399.312	1426.1186	1456.9276	1471.0026	1486.4967	1491.7048	1504.6667	1508.9769	1518.6893	1714.0476	1806.2828	2940.045	2961.9005	2970.9515	3014.9021	3041.1466	3100.8307	3124.4301	3148.1971	3163.5951	3514.1067
COCC(=O)N(C)C=N	COCC(=O)N(C)C=N	
InChI=1S/C5H10N2O2/c1-7(4-6)5(8)3-9-2/h4,6H,3H2,1-2H3	InChI=1S/C5H10N2O2/c1-7(4-6)5(8)3-9-2/h4,6H,3H2,1-2H3
