20
gdb 109035	2.71963	1.31278	0.99444	1.8923	80.36	-0.2276	0.0148	0.2425	1230.508	0.171733	-403.125994	-403.117315	-403.116371	-403.159254	33.429	
C	-0.1004851645	 1.5523461665	 0.0217535706	-0.397626
C	 0.0137277846	 0.0205281455	-0.0000734176	-0.084815
C	 0.834347561	-0.5057732051	-1.1801584097	-0.05134
N	 2.2402455268	-0.0435201061	-1.1858057945	-0.337119
C	 1.8972830893	-1.397371891	-0.6517344582	-0.086037
C	 1.7366975531	-1.3977625042	 0.8294023117	-0.166192
C	 0.7352662715	-0.5929903924	 1.2028052042	 0.260907
C	 0.3319320001	-0.2865483639	 2.6147918142	-0.162948
O	 1.191919064	-0.8407279706	 3.5941599179	-0.409151
H	 0.895710766	 2.0015281128	 0.0411388649	 0.138764
H	-0.6188303422	 1.910150933	-0.8739602504	 0.110567
H	-0.6643827533	 1.9056271382	 0.8904550732	 0.111417
H	-1.0017075611	-0.4001982471	-0.0590566751	 0.077972
H	 0.3445364533	-0.6873776429	-2.1311738603	 0.083619
H	 2.6006369894	-0.150506668	-2.1331275008	 0.225131
H	 2.2567278714	-2.2711623557	-1.1845462396	 0.086697
H	 2.3675682746	-1.9613601524	 1.505157259	 0.096571
H	 0.229511808	 0.8039125298	 2.7453412626	 0.099442
H	-0.6624974886	-0.7072823472	 2.819032147	 0.120675
H	 2.0709641568	-0.4803437993	 3.434917631	 0.283465
88.3028	123.528	189.5615	223.9665	234.7775	277.0818	347.4959	395.8759	468.2935	508.9756	552.4281	685.1393	712.6352	799.3331	814.8543	837.5926	862.8141	898.1835	920.6885	980.0713	988.0314	1035.0453	1053.249	1072.3181	1107.0796	1112.4267	1129.0469	1156.3645	1179.907	1214.8512	1246.6249	1277.4086	1319.1637	1333.5578	1361.232	1392.8347	1397.3537	1414.1177	1422.8119	1488.8734	1496.2333	1504.1244	1695.2708	2963.599	2987.7003	3026.1693	3038.1997	3100.4217	3126.0517	3158.461	3170.9804	3212.6205	3470.9894	3807.5625
CC1C2NC2C=C1CO	C[C@H]1[C@H]2N[C@H]2C=C1CO	
InChI=1S/C7H11NO/c1-4-5(3-9)2-6-7(4)8-6/h2,4,6-9H,3H2,1H3	InChI=1S/C7H11NO/c1-4-5(3-9)2-6-7(4)8-6/h2,4,6-9H,3H2,1H3/t4-,6+,7-/m1/s1
