12
gdb 130281	3.37907	1.48585	1.03222	3.4536	60.3	-0.2545	-0.0546	0.2	1033.3806	0.077675	-505.960399	-505.9528	-505.951855	-505.992696	27.981	
N	 0.029453778	 1.3205846594	 0.0667607698	-0.542308
C	-0.0616577567	-0.0196542008	 0.019454279	 0.343315
N	-1.2197231298	-0.6052907717	 0.0036709115	-0.221058
O	-1.1359154782	-2.0315435113	-0.0139547744	-0.261024
C	 0.0498762657	-2.6328574634	-0.0141042033	 0.533624
O	-0.0727494469	-3.954359995	-0.0168344194	-0.369202
N	 1.2230453509	-2.1029916959	-0.014662775	-0.386918
C	 1.2707727613	-0.73281486	-0.0083834483	 0.371991
O	 2.2900937991	-0.0739623935	-0.0284173792	-0.35403
H	 0.9591964807	 1.6995414682	-0.0257644082	 0.287279
H	-0.7851096654	 1.9030925562	-0.0162911791	 0.27485
H	-1.0141190986	-4.1785115423	-0.0155124235	 0.323481
74.637	183.9882	196.0101	312.6914	327.9948	391.6456	452.6402	498.4278	501.1061	545.9173	583.1375	616.562	708.9805	750.4751	825.6322	830.0433	932.5649	1017.4243	1126.5942	1231.2968	1305.7959	1405.3017	1453.3769	1581.5056	1660.6503	1677.6346	1797.137	3592.0782	3736.1026	3778.1788
NC1=NOC(O)=NC1=O	Nc1noc(O)nc1=O	
InChI=1S/C3H3N3O3/c4-1-2(7)5-3(8)9-6-1/h(H2,4,6)(H,5,7,8)	InChI=1S/C3H3N3O3/c4-1-2(7)5-3(8)9-6-1/h(H2,4,6)(H,5,7,8)
