16
gdb 27689	2.90097	1.26903	0.88855	4.8946	83.53	-0.1973	-0.0064	0.1908	1258.4281	0.125516	-396.993563	-396.984584	-396.98364	-397.027511	32.675	
C	-0.027209959	 1.4907185317	 0.0853174634	-0.507971
C	 0.0112953527	 0.0033288344	-0.0367997736	 0.329077
C	-0.0083659224	-0.7989767139	-1.164620188	-0.286488
C	 0.0502152448	-2.1527147988	-0.7448317069	 0.211228
N	 0.1231628949	-3.2729949784	-1.5601454585	-0.614476
C	 0.1003748313	-2.1430196254	 0.6488844437	 0.149352
N	 0.0810329586	-0.8077214081	 1.0519375533	-0.383474
C	 0.1505167682	-3.2197570279	 1.5440939064	 0.176974
N	 0.1846009817	-4.129276776	 2.2678895291	-0.373
H	 0.8694948917	 1.8816285138	 0.5805210137	 0.139064
H	-0.0860638207	 1.9459596918	-0.9051930528	 0.14398
H	-0.8957180203	 1.8301008117	 0.6621753555	 0.137451
H	-0.0491460413	-0.4464560079	-2.1840689258	 0.097269
H	-0.3714182441	-3.1835481919	-2.435862386	 0.2511
H	-0.1069803524	-4.141312582	-1.0963584916	 0.259871
H	 0.1064246963	-0.5063480332	 2.0104254481	 0.270043
57.4227	125.7992	129.2043	205.2395	262.2966	288.0928	309.1767	400.7861	411.4211	522.084	537.9081	573.6501	625.6069	642.6311	648.5714	715.0084	781.6351	808.6147	1003.5147	1023.1847	1059.1525	1069.2507	1189.6208	1224.1072	1258.9298	1342.3637	1415.791	1452.5405	1480.0251	1500.2405	1516.2391	1548.6183	1624.9585	1661.3321	2307.1797	3026.755	3075.3865	3131.4964	3246.7446	3555.7464	3653.582	3683.3921
CC1=CC(N)=C(N1)C#N	Cc1cc(N)c([nH]1)C#N	
InChI=1S/C6H7N3/c1-4-2-5(8)6(3-7)9-4/h2,9H,8H2,1H3	InChI=1S/C6H7N3/c1-4-2-5(8)6(3-7)9-4/h2,9H,8H2,1H3
