21
gdb 91761	2.44495	1.70958	1.53048	2.2285	75.79	-0.2491	0.0726	0.3217	1006.5835	0.186048	-424.247985	-424.240504	-424.23956	-424.279472	30.829	
C	-0.4228272629	 1.5224608584	-0.032036407	-0.42269
C	-0.0255258794	 0.0464957784	-0.0337531227	 0.04115
C	 0.778936281	-0.4416028858	-1.2717843659	-0.29284
C	 1.915713118	-1.2864233705	-0.6461492683	 0.199414
O	 1.4116432826	-1.6651101427	 0.6212125436	-0.251809
C	 0.8775746859	-0.4332531385	 1.1317855738	 0.057304
C	 2.0775425541	 0.467338619	 1.4653861374	-0.224818
C	 2.9767199226	 0.637738724	 0.2283461046	-0.083201
O	 3.1267490558	-0.5749150479	-0.505138304	-0.257236
H	 0.4396892219	 2.1841882703	-0.1586522349	 0.119198
H	-1.1208449094	 1.7356665548	-0.8478548699	 0.119985
H	-0.9198125	 1.7977878235	 0.9047180121	 0.116379
H	-0.9411060015	-0.5506564931	 0.0316936593	 0.083715
H	 0.1678276652	-1.0646520916	-1.9285123786	 0.106524
H	 1.180074931	 0.3775015297	-1.8745919617	 0.110138
H	 2.1704590378	-2.1924567356	-1.1975227126	 0.087616
H	 0.3046172753	-0.6669443001	 2.0327160577	 0.075497
H	 1.7619417072	 1.4480735901	 1.837192753	 0.098158
H	 2.6399453709	-0.026599122	 2.264008279	 0.113534
H	 2.5752267675	 1.4244749955	-0.4279394155	 0.09242
H	 3.9862230363	 0.943150084	 0.5165706305	 0.111564
141.2386	226.2562	242.9003	281.1822	350.7835	399.7554	453.8964	457.2475	522.2391	612.5388	705.5854	769.9903	810.1332	829.6431	852.1854	898.1908	932.9662	936.2084	971.2608	991.3682	1017.5346	1037.1608	1072.3263	1085.3045	1114.4448	1151.572	1162.584	1218.8803	1234.7382	1261.9887	1278.75	1296.0155	1319.0453	1343.92	1359.9226	1368.0754	1382.798	1396.0894	1418.0843	1421.1245	1470.8275	1488.9592	1498.1709	1504.346	1517.3669	2988.7271	3034.2778	3040.7385	3045.1074	3066.2441	3079.7657	3082.8548	3093.9205	3096.5031	3105.6849	3108.9463	3117.3306
CC1CC2OC1CCO2	C[C@H]1C[C@@H]2O[C@H]1CCO2	
InChI=1S/C7H12O2/c1-5-4-7-8-3-2-6(5)9-7/h5-7H,2-4H2,1H3	InChI=1S/C7H12O2/c1-5-4-7-8-3-2-6(5)9-7/h5-7H,2-4H2,1H3/t5-,6-,7-/m0/s1
