21
gdb 95684	2.84746	1.24232	0.94046	2.9575	78.91	-0.2314	-0.016	0.2154	1285.5078	0.182768	-424.252915	-424.243959	-424.243015	-424.286853	34.04	
C	 0.2825058531	 1.5816154747	 0.2051603906	-0.399865
C	 0.039025575	 0.0888980724	 0.0163336883	 0.145104
C	 0.2523469445	-0.3579666552	-1.4424304294	-0.201786
C	 0.5570434086	-1.8554717258	-1.5900144144	-0.211823
C	-0.3696243676	-2.780619296	-0.7782849194	-0.304373
C	-0.0086893767	-2.9489083627	 0.6940980514	 0.366307
O	-0.0613157145	-4.0307027899	 1.2331401851	-0.300824
C	 0.3710493321	-1.7261363947	 1.5459312771	-0.183282
O	 0.9263190308	-0.6143503571	 0.8870550194	-0.251074
H	 1.3326108385	 1.8158455691	 0.0045847031	 0.128598
H	-0.3380793807	 2.1651103579	-0.4824397672	 0.114682
H	 0.0519649182	 1.8879531385	 1.2289869774	 0.119664
H	-0.9959800262	-0.1396158876	 0.3149401354	 0.065636
H	-0.6451391878	-0.0960592291	-2.017563159	 0.097968
H	 1.0792296586	 0.2151117134	-1.8786610655	 0.101025
H	 0.4798499016	-2.1268094327	-2.6481650187	 0.103488
H	 1.5954492967	-2.0448369224	-1.3000878822	 0.116695
H	-1.4033589513	-2.4060924185	-0.8242837108	 0.118507
H	-0.3881171495	-3.7907374677	-1.1956876244	 0.124088
H	-0.5408532488	-1.4420857422	 2.1025937293	 0.11409
H	 1.1036526955	-2.0645684245	 2.2831003541	 0.137174
49.9333	102.1358	209.8963	232.0929	250.065	313.293	324.568	348.9353	423.2232	463.4536	513.9002	545.0216	646.0706	713.9014	801.754	821.9609	875.5845	885.5164	950.2467	961.1484	1019.1482	1072.2622	1082.626	1114.8788	1146.8965	1157.5473	1202.8892	1207.1966	1261.8572	1281.4737	1298.812	1341.7982	1346.208	1369.8808	1378.0679	1397.0011	1402.0516	1412.6808	1455.2471	1464.4352	1481.0167	1487.3814	1495.3417	1497.6342	1803.1481	2944.9564	2974.8514	3007.9868	3021.8587	3039.7133	3045.6056	3061.8571	3086.8631	3096.9461	3102.3757	3112.758	3120.1195
CC1CCCC(=O)CO1	C[C@H]1CCCC(=O)CO1	
InChI=1S/C7H12O2/c1-6-3-2-4-7(8)5-9-6/h6H,2-5H2,1H3	InChI=1S/C7H12O2/c1-6-3-2-4-7(8)5-9-6/h6H,2-5H2,1H3/t6-/m0/s1
