16
gdb 9741	3.78308	1.63134	1.55766	3.512	61.24	-0.2422	-0.0305	0.2117	884.4507	0.128564	-420.886641	-420.878556	-420.877612	-420.91978	28.498	
C	-0.1693152464	 1.4846736408	-0.1987174159	-0.422695
C	 0.0608762369	-0.0077316956	-0.0697677095	 0.356084
O	 0.8245489492	-0.5422250269	-1.1436608745	-0.294758
C	 2.118647691	-0.8663738107	-0.6446803635	-0.098634
C	 1.8397387199	-1.1845238597	 0.8206964121	-0.10051
O	 0.769277411	-0.2967727659	 1.1326809007	-0.29246
C	-1.2408877918	-0.8268421422	-0.0309774727	 0.152959
O	-2.3458626305	-0.3667682053	-0.1201768061	-0.2388
H	 0.7918811915	 2.0007062299	-0.2546432854	 0.118309
H	-0.7498240801	 1.695109027	-1.0990287256	 0.140491
H	-0.7253609119	 1.8541590419	 0.6656143209	 0.139796
H	 2.5090518594	-1.7107047863	-1.2173350328	 0.122055
H	 2.8026583931	-0.0127645027	-0.7471932838	 0.109136
H	 1.5384612305	-2.2319484333	 0.9562029423	 0.109425
H	 2.6752237133	-0.9641413215	 1.4900540939	 0.121593
H	-1.0548951154	-1.9154382795	 0.1039437397	 0.078008
57.7753	71.2846	180.1316	209.1738	246.7681	334.5251	367.1609	431.4366	477.3472	655.1977	720.2909	791.7028	871.4237	906.2533	940.1387	954.4322	981.4433	1063.8227	1075.1001	1128.9216	1150.398	1215.2778	1226.7451	1249.7728	1251.5425	1367.6146	1382.2589	1395.4754	1419.3211	1471.9549	1479.5432	1514.6185	1522.0139	1847.1771	2892.5263	3009.3594	3017.6535	3060.2391	3098.5879	3108.6814	3141.0198	3146.944
CC1(OCCO1)C=O	CC1(OCCO1)C=O	
InChI=1S/C5H8O3/c1-5(4-6)7-2-3-8-5/h4H,2-3H2,1H3	InChI=1S/C5H8O3/c1-5(4-6)7-2-3-8-5/h4H,2-3H2,1H3
