21
gdb 91111	2.67917	1.82731	1.48985	1.3925	80.1	-0.2287	0.0804	0.3091	988.3755	0.185607	-387.098551	-387.091242	-387.090298	-387.129985	30.357	
C	-0.1677449982	 1.5384785906	-0.1021457521	-0.411799
C	 0.0178812508	 0.0376933708	 0.0323207757	 0.155736
O	 0.7346643719	-0.4490316852	-1.1175231343	-0.273289
C	 1.3287471262	-1.6708566019	-0.7588426354	 0.090519
C	 2.6107674087	-1.6180432327	 0.047608391	-0.076804
C	 3.124946477	-0.2353290024	 0.4459770355	-0.231086
C	 2.1322813184	 0.2522178826	 1.5298104318	-0.203579
C	 0.8121138349	-0.5000947651	 1.247971828	-0.073319
C	 1.2719661864	-1.877634979	 0.7233032136	-0.120527
H	 0.7914040583	 2.0565128526	-0.1802972111	 0.126189
H	-0.7465863468	 1.7655219347	-1.001878508	 0.125599
H	-0.7111848125	 1.9342170223	 0.7619110249	 0.1133
H	-0.9751403207	-0.4426577891	 0.0481096729	 0.06497
H	 1.1691778006	-2.4689557611	-1.4767545426	 0.088963
H	 3.3166524792	-2.4296694512	-0.0942058817	 0.07941
H	 4.1475939012	-0.2895991125	 0.8289280157	 0.093773
H	 3.1314640003	 0.4383893978	-0.4171704073	 0.111583
H	 2.4949540161	-0.0529434905	 2.5175755175	 0.095867
H	 2.0179750914	 1.339755375	 1.5530199313	 0.093796
H	 0.1731115518	-0.5640532009	 2.1321245307	 0.067883
H	 0.995014755	-2.8080570148	 1.2021357537	 0.082817
111.2372	201.0099	242.3244	286.4612	345.3202	500.4723	507.9708	523.6805	685.9392	716.8869	748.2744	771.9178	788.5759	804.5439	850.7271	885.1099	918.2873	936.9448	959.7753	998.8503	1016.2612	1024.2364	1061.2164	1065.2222	1089.8384	1103.6876	1120.1229	1158.2365	1163.7994	1188.4266	1215.3245	1265.8433	1276.226	1295.7191	1317.0846	1330.4901	1355.0336	1373.3205	1385.5417	1402.5794	1412.4918	1478.2502	1484.2558	1492.5072	1510.5515	2954.0025	3041.255	3044.0681	3048.9074	3082.227	3084.9576	3098.0214	3113.3984	3123.996	3155.2436	3165.4564	3189.735
CC1OC2C3CCC1C23	C[C@H]1O[C@H]2[C@H]3CC[C@@H]1[C@@H]23	
InChI=1S/C8H12O/c1-4-5-2-3-6-7(5)8(6)9-4/h4-8H,2-3H2,1H3	InChI=1S/C8H12O/c1-4-5-2-3-6-7(5)8(6)9-4/h4-8H,2-3H2,1H3/t4-,5+,6+,7-,8+/m1/s1
