22
gdb 36988	5.84377	0.66926	0.63071	2.4624	84.15	-0.2435	0.0781	0.3216	1822.1179	0.194595	-404.298155	-404.288909	-404.287964	-404.333591	33.939	
C	 0.0758357669	 1.3967819863	-0.318139612	-0.092377
O	 0.1449753291	 0.1102574226	 0.2661312248	-0.25456
C	-1.0058119476	-0.6648378113	 0.0589082646	 0.183765
C	-1.2384739987	-1.3291501461	-1.330292445	-0.245508
C	-1.6763738063	-2.6132120364	-0.5718426776	-0.218785
C	-0.9547574373	-2.0680950252	 0.6919392002	-0.250133
C	 1.3820575234	 2.106515686	-0.0907863338	 0.017517
C	 1.3868186505	 3.5766730906	 0.1123166762	-0.247047
N	 1.6982844172	 2.6702300709	 1.2283714886	-0.30417
H	-0.1283319931	 1.3206946807	-1.3989505355	 0.095634
H	-0.7514107094	 1.9770848814	 0.1297041618	 0.075906
H	-1.9031316189	-0.1102175149	 0.3789557851	 0.059326
H	-1.9486321006	-0.8679329656	-2.0205182824	 0.093611
H	-0.2800705079	-1.4715633472	-1.8386904055	 0.107905
H	-2.7605294789	-2.6575630362	-0.4374407337	 0.104136
H	-1.3381112379	-3.5715904278	-0.9695938988	 0.103182
H	 0.0831496901	-2.4086683791	 0.7411172686	 0.115597
H	-1.424425604	-2.2086139579	 1.6676432008	 0.09784
H	 2.2358345654	 1.6416616731	-0.578891547	 0.097809
H	 2.222424146	 4.1724585076	-0.2432437359	 0.120108
H	 0.4303470244	 4.0946081665	 0.106006061	 0.108746
H	 0.8918496374	 2.576633362	 1.8420496054	 0.231496
52.1156	52.9145	102.9859	124.3414	172.0846	272.0892	330.0324	427.95	445.8684	500.3808	642.8908	766.0443	786.2047	812.1523	839.0558	900.0211	925.4936	934.1911	943.8426	947.8316	976.1825	1016.3398	1052.5252	1055.4626	1081.4485	1128.5144	1145.82	1153.4813	1181.5613	1192.5141	1217.0675	1245.2973	1247.5718	1251.9008	1260.0648	1272.6832	1277.9379	1305.6087	1313.5306	1361.2542	1401.0864	1455.7012	1472.2719	1487.0503	1505.7159	1511.7326	1515.7345	2938.9666	2965.6856	2982.4977	3055.4845	3064.3126	3068.0362	3105.7134	3107.511	3116.5034	3129.1252	3135.9137	3190.2669	3492.7226
C(OC1CCC1)C1CN1	C(OC1CCC1)[C@H]1CN1	
InChI=1S/C7H13NO/c1-2-7(3-1)9-5-6-4-8-6/h6-8H,1-5H2	InChI=1S/C7H13NO/c1-2-7(3-1)9-5-6-4-8-6/h6-8H,1-5H2/t6-/m1/s1
