21
gdb 9378	4.96542	0.77587	0.69924	4.1737	79.92	-0.3105	0.0394	0.3499	1638.6827	0.187514	-329.160252	-329.150234	-329.14929	-329.195805	35.127	
C	 0.0816579755	 1.5725729456	 0.0846819047	-0.381962
C	 0.0313805371	 0.0432756303	 0.0381913733	-0.168039
C	-1.3973651854	-0.5087920523	-0.0356161795	-0.177845
C	-1.435899151	-2.0399387211	-0.0826920673	-0.179975
C	-2.8663040539	-2.6326978655	-0.0586894618	-0.143937
C	-3.7022644761	-2.288858461	-1.3076085843	-0.389686
C	-2.7961166076	-4.0888930942	 0.1104418501	 0.264401
N	-2.7311482587	-5.2363806951	 0.2345261801	-0.325254
H	 1.1127442488	 1.9352354912	 0.1363943559	 0.11593
H	-0.3812692471	 2.0122534998	-0.8057811604	 0.11506
H	-0.4518038666	 1.9604493378	 0.9595937588	 0.115535
H	 0.6022217975	-0.3171816682	-0.8275389617	 0.099846
H	 0.5324909864	-0.3685674775	 0.9238515843	 0.10021
H	-1.9679779043	-0.1564537125	 0.8353471872	 0.096014
H	-1.8958504297	-0.0887623286	-0.9180266315	 0.101466
H	-0.9198656736	-2.4025870608	-0.9803772041	 0.113549
H	-0.8816899693	-2.4409211635	 0.7736132764	 0.117138
H	-3.3845223673	-2.2388011787	 0.8260562953	 0.124816
H	-3.8420691888	-1.2085019299	-1.3868639217	 0.129095
H	-3.2031989521	-2.6420808499	-2.2147613907	 0.135709
H	-4.6880162935	-2.7575805459	-1.257056863	 0.137927
50.1696	82.4853	102.6645	137.4191	186.0096	215.507	245.292	270.2837	309.7497	376.7179	415.127	556.8016	584.107	736.2274	784.3582	821.9284	905.9899	917.0326	919.9579	1018.4501	1027.9448	1055.7604	1067.081	1124.3911	1134.7944	1191.3781	1244.4134	1273.3135	1309.2353	1330.6662	1334.9696	1345.2832	1378.1423	1399.1887	1412.3014	1414.5452	1481.2417	1486.1194	1497.224	1497.8954	1499.9316	1502.5948	1512.7341	2355.0402	3007.6803	3018.0651	3020.5649	3030.3157	3034.2409	3038.3268	3051.2845	3056.4184	3079.4559	3097.1186	3104.4969	3125.1328	3133.6879
CCCCC(C)C#N	CCCC[C@@H](C)C#N	
InChI=1S/C7H13N/c1-3-4-5-7(2)6-8/h7H,3-5H2,1-2H3	InChI=1S/C7H13N/c1-3-4-5-7(2)6-8/h7H,3-5H2,1-2H3/t7-/m1/s1
