16
gdb 39075	2.49629	2.2581	1.63862	2.1792	68.75	-0.2423	-0.0058	0.2365	854.448	0.127249	-437.894764	-437.888292	-437.887348	-437.925445	26.074	
C	 0.0211953787	 1.5164326983	 0.2690405842	-0.153747
N	 1.1145601732	 2.274727333	-0.2922600306	-0.261711
C	 1.8835285955	 1.9871661043	-1.2481880803	 0.134895
O	 2.047840749	 0.9002424961	-2.0605692975	-0.242319
C	 1.4246960247	-0.3566597298	-1.7281101513	 0.14621
O	 0.0741424269	-0.2056513334	-1.415925076	-0.229886
C	-0.0011772256	 0.0003225923	 0.00051812	 0.003553
C	 1.2246147858	-0.702120263	 0.5323463777	-0.080003
C	 2.0540193721	-0.9314232919	-0.4777971291	-0.112518
H	 0.0007058002	 1.6929161669	 1.3522041465	 0.110599
H	-0.9107894981	 1.9430242296	-0.12640272	 0.126683
H	 2.6012072153	 2.7397362193	-1.576937655	 0.120009
H	 1.5242207213	-0.9432092645	-2.6430122049	 0.104524
H	-0.9449608586	-0.4275427354	 0.3560528338	 0.093754
H	 1.387486004	-0.9013042664	 1.5831942074	 0.119927
H	 3.0477290256	-1.3558236756	-0.4558660249	 0.120031
144.1983	218.3155	316.9615	357.2601	434.1778	494.893	565.2073	642.4827	729.372	776.4192	820.6849	842.6831	854.3268	893.3707	935.8119	947.4087	967.5357	980.267	994.2971	1020.8813	1054.7777	1070.4714	1136.233	1156.8846	1251.8302	1292.4119	1297.4961	1349.2615	1364.1308	1379.8056	1390.9365	1440.3538	1468.2234	1678.4513	1764.0809	3014.4081	3046.2912	3056.777	3107.4929	3131.4405	3220.2385	3247.1672
C1N=COC2OC1C=C2	C1N=CO[C@@H]2O[C@H]1C=C2	
InChI=1S/C6H7NO2/c1-2-6-8-4-7-3-5(1)9-6/h1-2,4-6H,3H2	InChI=1S/C6H7NO2/c1-2-6-8-4-7-3-5(1)9-6/h1-2,4-6H,3H2/t5-,6+/m0/s1
