14
gdb 29433	5.62501	0.99349	0.84436	2.2176	68.82	-0.193	-0.0139	0.1791	1254.9407	0.102984	-470.075283	-470.067602	-470.066658	-470.107586	28.734	
O	 0.0819844188	 1.3603498205	 0.0059240061	-0.43818
C	 0.0617313058	 0.0114452399	-0.0569043281	 0.345505
C	-0.0027578302	-0.7618859718	-1.1858846215	-0.209778
N	 0.0038665088	-2.0697766773	-0.7076904801	-0.282975
C	 0.0697798103	-1.9923202883	 0.6359158591	 0.496231
N	 0.0956989085	-3.1086535474	 1.4659418496	-0.393043
C	 0.0582561058	-4.4038109338	 1.0447253798	 0.152258
O	-0.0028847727	-4.7514329746	-0.1203578523	-0.333034
N	 0.1070554601	-0.7514122611	 1.0804041524	-0.440458
H	 0.1299997618	 1.5886088095	 0.9416393579	 0.300325
H	-0.050242553	-0.5261262727	-2.2330640182	 0.133554
H	-0.032049442	-2.945753331	-1.2077892573	 0.290735
H	 0.1461457297	-2.9045840888	 2.4527162709	 0.276921
H	 0.0898879682	-5.115625663	 1.8872689618	 0.101941
81.6886	186.3486	200.7471	309.3829	309.5089	346.2747	390.7502	476.0177	585.7513	600.5337	637.1982	638.5653	704.459	737.2655	738.9954	878.1409	1007.0248	1009.9392	1035.9572	1107.5653	1145.6539	1184.6174	1298.7058	1322.6141	1409.0196	1432.1589	1444.6532	1557.6195	1625.3729	1663.4671	1774.6413	2991.2548	3303.7118	3622.9061	3634.3552	3812.0888
OC1=CNC(NC=O)=N1	Oc1c[nH]c(NC=O)n1	
InChI=1S/C4H5N3O2/c8-2-6-4-5-1-3(9)7-4/h1-2,9H,(H2,5,6,7,8)	InChI=1S/C4H5N3O2/c8-2-6-4-5-1-3(9)7-4/h1-2,9H,(H2,5,6,7,8)
