18
gdb 63870	2.29832	1.63321	1.27782	2.8298	79.46	-0.2286	0.0221	0.2506	1066.3918	0.144953	-401.86511	-401.856155	-401.85521	-401.898042	34.8	
C	-0.0352249605	 1.6048668522	-0.046884107	-0.462295
C	 0.0368771207	 0.085535266	 0.0115482641	 0.325753
O	-1.2506400625	-0.4848414033	-0.1275283432	-0.462592
C	 1.1047158353	-0.6684652192	-0.837800915	-0.215151
N	 1.6633920741	-1.3884182443	 0.3612860343	-0.158739
C	 2.1675763496	-0.3280232485	 1.2374682268	-0.278904
C	 0.7007260926	-0.5672532757	 1.2418155475	 0.11884
C	-0.0051001456	-1.0857636551	 2.3646547597	 0.231942
C	-0.6001771824	-1.4902988059	 3.3284909717	-0.394418
H	 0.9408927222	 2.0707117797	 0.1107891264	 0.120048
H	-0.3983642441	 1.9310080922	-1.0298466267	 0.110419
H	-0.7285013133	 1.9753083636	 0.7140074954	 0.137777
H	-1.6505415127	-0.1224757674	-0.9254030829	 0.279411
H	 0.6411067392	-1.3825692965	-1.5198205683	 0.115704
H	 1.8513056223	-0.0682646928	-1.3698801705	 0.097852
H	 2.7172801368	-0.7039520531	 2.0943704547	 0.135529
H	 2.5738982437	 0.5815031079	 0.7985485177	 0.109803
H	-1.1338270254	-1.8620065297	 4.1677508651	 0.189021
115.1121	138.8133	201.274	226.815	252.2504	278.1416	356.7494	381.908	446.9879	477.579	499.8061	567.2721	596.474	629.4902	648.7318	662.8795	760.4237	852.1112	884.7149	891.4489	955.0836	972.3622	1010.6285	1091.0482	1110.3292	1134.861	1175.413	1203.0831	1219.9197	1241.1332	1285.9808	1331.4222	1392.0371	1407.3127	1478.8669	1488.2343	1493.3068	1506.705	2235.4719	3026.2007	3040.7911	3095.0444	3100.0978	3123.1416	3125.9459	3200.9526	3503.5082	3809.2972
CC1(O)CN2CC12C#C	C[C@@]1(O)CN2C[C@@]12C#C	
InChI=1S/C7H9NO/c1-3-7-5-8(7)4-6(7,2)9/h1,9H,4-5H2,2H3	InChI=1S/C7H9NO/c1-3-7-5-8(7)4-6(7,2)9/h1,9H,4-5H2,2H3/t6-,7+,8?/m1/s1
