23
gdb 120447	4.25917	0.73004	0.71686	1.5604	83.67	-0.2435	0.0733	0.3168	1723.266	0.203006	-425.417421	-425.406998	-425.406053	-425.453022	38.881	
C	 0.1273726403	 1.5285229906	 0.1434798707	-0.384667
C	 0.358069994	 0.0329897833	 0.0062860907	-0.04085
O	 0.391813652	-0.5371860104	 1.3011347148	-0.250018
C	 0.5803446697	-1.9261764734	 1.299181419	 0.165438
C	 2.003367272	-2.4838413607	 0.9998984173	-0.292457
C	 1.8425843991	-3.4371930226	 2.2108928707	 0.412862
C	 1.4282923341	-4.8565217641	 1.8348459194	-0.44855
O	 3.0070524067	-3.445189969	 3.0163686463	-0.472698
C	 0.6593422962	-2.5458443145	 2.7075073397	-0.319709
H	 0.9335236603	 1.9888065587	 0.7218009926	 0.126828
H	 0.0923553335	 2.0021397063	-0.842248471	 0.112729
H	-0.8174701439	 1.7248654558	 0.6582438404	 0.125498
H	-0.4471388043	-0.4303523227	-0.5895411848	 0.082849
H	 1.303853945	-0.1634891081	-0.5242608823	 0.090424
H	-0.1827698037	-2.4110925734	 0.6703178876	 0.058269
H	 2.2034539635	-2.9330015779	 0.0242225246	 0.092063
H	 2.7599472189	-1.728255943	 1.2253998342	 0.116986
H	 2.2510794021	-5.3701445055	 1.3277305864	 0.123917
H	 1.1607598048	-5.4330126441	 2.7298561627	 0.105007
H	 0.5567880471	-4.8597586014	 1.1722381798	 0.11888
H	 2.8573439872	-4.0468707685	 3.7541105897	 0.27182
H	 1.0255389187	-1.8001284706	 3.4168715321	 0.1157
H	-0.2323269933	-3.0358444549	 3.1067419094	 0.089678
57.2401	86.0688	95.8767	170.3698	244.3496	263.0162	272.5171	292.6134	306.1652	357.6253	397.708	432.977	474.4575	494.7141	617.4873	751.8051	821.4163	828.8353	878.6196	894.8591	910.7801	963.1564	977.0958	1013.8408	1044.5784	1060.8372	1109.7778	1131.0673	1152.6706	1186.9029	1194.417	1211.4	1217.9792	1270.9369	1285.2464	1291.709	1297.6946	1373.9385	1380.373	1404.202	1409.2805	1441.0078	1461.3606	1483.3615	1486.3362	1490.7059	1500.0765	1500.7222	1529.5201	2954.4113	2973.7391	2986.1775	3019.3123	3044.5182	3059.7742	3065.2895	3085.7883	3109.3531	3118.7048	3121.2207	3125.92	3128.5035	3797.0339
CCOC1CC(C)(O)C1	CCO[C@H]1C[C@@](C)(O)C1	
InChI=1S/C7H14O2/c1-3-9-6-4-7(2,8)5-6/h6,8H,3-5H2,1-2H3	InChI=1S/C7H14O2/c1-3-9-6-4-7(2,8)5-6/h6,8H,3-5H2,1-2H3/t6-,7+
