16
gdb 33550	2.10504	1.67019	1.12987	2.2153	68.45	-0.2716	0.013	0.2846	1082.0591	0.123827	-437.84171	-437.833424	-437.83248	-437.87544	29.473	
N	 0.3287136786	-1.2690797099	-0.2104885093	-0.33052
C	 0.1791088742	-0.1267543841	-0.1142955183	 0.245647
C	-0.0190771122	 1.3125748903	-0.0094041932	 0.067328
C	-0.2520840425	 1.8430930158	 1.4384736031	-0.111466
O	 1.0014503374	 2.5423132144	 1.4370364368	-0.259078
C	 1.2992730143	 2.1459133811	 0.0920438666	-0.100126
C	-0.9917762271	 1.7742531784	-1.0827320946	 0.004085
C	-2.4320039885	 1.8951045477	-0.8432722986	-0.177783
O	-1.5830504693	 3.0501252572	-0.886078372	-0.229024
H	-1.1021399008	 2.5273880837	 1.5224131351	 0.129646
H	-0.3014208338	 1.0724549619	 2.2137555957	 0.126018
H	 2.2269496807	 1.5696693381	 0.0181159093	 0.12749
H	 1.3300169494	 2.9979481093	-0.5969500165	 0.125804
H	-0.6498484868	 1.5806296411	-2.1001921518	 0.119476
H	-3.1250385097	 1.7942321601	-1.6753629077	 0.136001
H	-2.8389575639	 1.6531852148	 0.1369569554	 0.126502
65.4089	83.3161	149.444	190.2407	219.7852	268.304	414.0677	467.148	542.5042	565.6175	611.0536	840.7168	847.8866	881.8329	929.9822	949.867	993.1039	998.3538	1059.6965	1075.8816	1096.6097	1156.4664	1160.2996	1169.8981	1176.5143	1200.2463	1252.9238	1302.0717	1320.3291	1378.9462	1427.9463	1498.6396	1523.0342	1531.6762	2354.2343	3028.128	3043.501	3086.643	3097.4281	3098.1842	3107.5548	3188.1711
N#CC1(COC1)C1CO1	N#CC1(COC1)[C@H]1CO1	
InChI=1S/C6H7NO2/c7-2-6(3-8-4-6)5-1-9-5/h5H,1,3-4H2	InChI=1S/C6H7NO2/c7-2-6(3-8-4-6)5-1-9-5/h5H,1,3-4H2/t5-/m1/s1
