16
gdb 85585	2.83015	1.4279	1.09628	2.4528	65.57	-0.2608	-0.0025	0.2583	1088.5902	0.124713	-475.094485	-475.086115	-475.085171	-475.128097	30.282	
C	 0.4847296523	 1.3440626382	-0.2867056792	-0.404645
C	-0.0804464789	-0.0075847937	 0.1495183951	 0.00735
O	-0.076015747	-0.9380916379	-0.9561217412	-0.228231
C	 0.9804993607	-1.7348246162	-1.2019109189	 0.425718
O	 1.0542438547	-2.3603554727	-2.2219326462	-0.318444
C	 2.0640116434	-1.8052560052	-0.1318433143	-0.314219
N	 1.5804192335	-1.4516768546	 1.1871849842	-0.32379
C	 0.6190527321	-0.5172648432	 1.4085234832	 0.39545
O	 0.3218028008	-0.0903527033	 2.5061128149	-0.370024
H	 1.5450432704	 1.2683392386	-0.5492261839	 0.124846
H	-0.0619149109	 1.7122235359	-1.1579642788	 0.142722
H	 0.3812889828	 2.0596800332	 0.5325253976	 0.154473
H	-1.1351112295	 0.1007766588	 0.4085450211	 0.139229
H	 2.4355298314	-2.8316495651	-0.1324107002	 0.161645
H	 2.8957246526	-1.1629595053	-0.460015322	 0.147061
H	 2.0966826115	-1.7553767475	 2.0004464388	 0.260858
59.5132	96.5036	134.6295	230.3969	241.1671	375.2096	412.4019	433.1672	459.8642	540.6255	593.4248	607.5163	732.7025	747.4188	790.5019	850.7815	950.3323	1012.1506	1060.9705	1086.6403	1107.7959	1140.8146	1222.0214	1255.9536	1330.7853	1336.6131	1383.2818	1395.4126	1406.984	1467.3597	1488.6968	1493.0562	1508.5441	1808.2503	1855.7732	2991.2026	3045.2293	3102.803	3112.9734	3124.6397	3140.7195	3607.6803
CC1OC(=O)CNC1=O	C[C@H]1OC(=O)CNC1=O	
InChI=1S/C5H7NO3/c1-3-5(8)6-2-4(7)9-3/h3H,2H2,1H3,(H,6,8)	InChI=1S/C5H7NO3/c1-3-5(8)6-2-4(7)9-3/h3H,2H2,1H3,(H,6,8)/t3-/m1/s1
