21
gdb 74305	2.10629	1.54886	0.93544	1.1048	91.	-0.2069	-0.0166	0.1903	1305.6302	0.182308	-387.102258	-387.09308	-387.092136	-387.136095	34.709	
C	 0.1105134728	 1.5227771325	 0.0996761449	-0.482858
C	 0.0423351052	 0.0282052233	-0.0454698625	 0.286182
C	 0.1863795573	-0.5811937644	-1.2318485111	-0.193819
C	 0.0902340418	-2.0125206531	-1.5416423469	 0.295576
C	-0.112261165	-2.3066294973	-3.0141342352	-0.476999
C	 0.1403611978	-3.0309247487	-0.6661648899	-0.17368
C	 0.397997288	-3.0308738715	 0.8128693377	-0.139329
O	 0.7566733753	-1.8069441886	 1.4058279599	-0.234716
C	-0.1852796566	-0.7597809195	 1.2253121969	-0.194795
H	 0.9431554939	 1.8179202478	 0.752031557	 0.130556
H	 0.2386550025	 2.0192866547	-0.865497211	 0.12188
H	-0.8013640014	 1.9194603108	 0.5662750458	 0.124409
H	 0.3486215993	 0.0556152266	-2.1006296667	 0.072574
H	 0.7286390522	-1.9250930608	-3.6068822188	 0.124928
H	-0.2018776028	-3.3783943982	-3.2059722224	 0.117248
H	-1.0142883287	-1.8136325978	-3.3970599143	 0.123834
H	 0.0029105522	-4.0379065625	-1.0598616143	 0.07979
H	-0.4760594613	-3.4748758456	 1.3275313938	 0.092101
H	 1.2416802061	-3.7026438549	 1.0230949155	 0.118961
H	-0.0783662334	-0.1027277393	 2.095257514	 0.105186
H	-1.2118096153	-1.1614374337	 1.2434234875	 0.102974
62.9062	158.1368	173.9068	210.1995	231.9699	271.1295	290.018	351.7522	384.233	410.9956	478.6244	569.1191	593.2209	706.6815	810.051	851.1892	855.5996	903.0314	936.2322	982.5627	1002.9857	1030.7628	1055.0666	1067.9468	1071.8846	1090.7247	1143.5256	1187.4096	1222.5708	1260.0265	1326.8804	1360.3301	1390.5042	1403.9181	1408.0861	1414.454	1420.238	1475.1511	1478.1432	1479.9436	1486.9865	1490.2085	1496.0598	1695.2548	1727.7139	2913.505	2970.4528	3008.5818	3019.3523	3026.1889	3052.1445	3063.3248	3067.7679	3112.4963	3115.7441	3126.4479	3129.4705
CC1=CC(C)=CCOC1	CC1=CC(=CCOC1)C	
InChI=1S/C8H12O/c1-7-3-4-9-6-8(2)5-7/h3,5H,4,6H2,1-2H3	InChI=1S/C8H12O/c1-7-3-4-9-6-8(2)5-7/h3,5H,4,6H2,1-2H3
