14
gdb 23575	3.19907	1.52109	1.34273	0.8927	63.65	-0.2486	0.0058	0.2544	948.011	0.100477	-473.691161	-473.684366	-473.683422	-473.722394	26.762	
O	-0.0833239521	 1.3701928888	-0.0168340731	-0.393878
N	 0.0703271278	-0.0287887373	 0.0147437903	-0.30933
C	-1.0392281115	-0.6068265254	 0.1369377147	 0.54612
C	-2.5375987523	-0.3436778885	 0.0601976256	-0.079649
O	-2.5700234387	-1.51409142	-0.8449670163	-0.299197
C	-1.5013271301	-2.0443342939	 0.0304465798	-0.07287
C	-2.2827016262	-2.2337589811	 1.3583834709	 0.035918
O	-2.001857794	-1.2231863899	 2.3374630735	-0.236651
C	-3.043311927	-0.9808080222	 1.3795999527	 0.039047
H	 0.8267282323	 1.6697412933	-0.1170744306	 0.311027
H	-2.9975630028	 0.5546269097	-0.3412370674	 0.109909
H	-0.924635836	-2.859912038	-0.3981107695	 0.10411
H	-2.6248680771	-3.1961717848	 1.7191954543	 0.122899
H	-4.0486779123	-0.8490369907	 1.7608420151	 0.122545
115.9351	189.8055	299.385	360.7175	378.2692	448.8047	518.4618	602.6175	687.7172	722.6223	763.1032	823.0128	844.4931	855.7814	865.8043	884.4774	922.4708	966.3917	990.1511	1071.8229	1073.5146	1122.3121	1165.5867	1216.7203	1219.3891	1236.9449	1280.4912	1284.4782	1387.0353	1418.4364	1833.8489	3166.9823	3175.9428	3190.1689	3202.0696	3818.5398
ON=C1C2OC1C1OC21	ON=C1[C@H]2O[C@@H]1[C@H]1O[C@@H]21	
InChI=1S/C5H5NO3/c7-6-1-2-4-5(9-4)3(1)8-2/h2-5,7H	InChI=1S/C5H5NO3/c7-6-1-2-4-5(9-4)3(1)8-2/h2-5,7H/t2-,3+,4+,5-
