20
gdb 99641	2.27835	1.10026	0.86635	2.332	79.74	-0.2799	0.0284	0.3083	1423.6114	0.168898	-403.153731	-403.143567	-403.142623	-403.189647	35.956	
C	-0.2351462337	 1.521797026	-0.0614173934	-0.402071
C	-0.0746988856	 0.0045359021	-0.1612910445	-0.181252
C	 1.0186439954	-0.4375412219	-1.1639798983	-0.168206
C	 2.3447666053	 0.0460965342	-0.7644788233	 0.273747
N	 3.3908077091	 0.4133614827	-0.437234048	-0.32713
C	 1.0479390697	-1.955645285	-1.2993517867	 0.050166
O	-0.0237816738	-2.5315257578	-2.0409612705	-0.264991
C	 1.312276335	-2.6799597858	-2.5522246403	 0.080702
C	 1.6331913195	-2.0450662279	-3.8801011019	-0.427614
H	 0.6904635174	 1.9990575892	 0.2748939648	 0.142741
H	-0.5052401574	 1.9565403866	-1.0299366756	 0.120397
H	-1.0242448032	 1.778981514	 0.6506866018	 0.123912
H	 0.1593277454	-0.4171119847	 0.822955538	 0.115654
H	-1.0088700235	-0.4592810399	-0.4942115294	 0.128589
H	 0.7854914403	-0.0004032655	-2.1405575102	 0.125913
H	 1.2741662055	-2.4673758982	-0.3616373427	 0.106545
H	 1.7008464974	-3.6936861328	-2.4375421602	 0.099066
H	 1.2207037795	-1.0383010068	-3.9691504352	 0.128962
H	 2.7177735726	-1.9926400702	-4.0208190445	 0.138126
H	 1.2176792848	-2.6501245484	-4.6921923599	 0.136743
41.0306	93.4631	118.1785	148.9596	170.0291	175.2599	247.2533	283.6956	327.8879	388.0646	460.7426	487.1086	539.6649	593.3198	769.0242	783.0757	848.9652	878.1315	947.8591	982.1848	996.9879	1045.2614	1066.6138	1102.76	1122.0207	1138.4648	1176.2573	1187.5727	1257.4978	1274.1922	1303.9282	1343.2984	1367.8777	1397.7839	1416.4275	1418.8592	1466.3659	1488.9396	1489.2611	1498.5872	1506.1844	1510.3343	2354.988	3037.2172	3041.7337	3044.2613	3061.8632	3083.4882	3087.0533	3097.6094	3107.6456	3109.1936	3117.1556	3136.0778
CCC(C#N)C1OC1C	CC[C@@H](C#N)[C@H]1O[C@H]1C	
InChI=1S/C7H11NO/c1-3-6(4-8)7-5(2)9-7/h5-7H,3H2,1-2H3	InChI=1S/C7H11NO/c1-3-6(4-8)7-5(2)9-7/h5-7H,3H2,1-2H3/t5-,6-,7-/m0/s1
