17
gdb 99255	4.65364	0.69114	0.61306	6.6431	68.37	-0.2473	0.0019	0.2493	1713.0862	0.134839	-492.321561	-492.311767	-492.310823	-492.357469	34.515	
O	 0.1220568008	 1.3251150277	-0.2481954956	-0.410824
C	-0.0311887981	 0.0057402215	 0.2541948735	-0.138163
C	-1.4621518593	-0.5049640475	 0.1525475175	 0.335022
N	-2.4024136683	 0.4733535344	 0.2428225096	-0.532172
H	-3.3736798743	 0.2780021221	 0.0742553725	 0.269343
H	-2.0807847271	 1.4239510708	 0.1498880107	 0.270389
N	-1.6611865119	-1.7655943296	 0.0544568209	-0.31915
C	-3.0158363854	-2.2815890847	 0.0395916329	-0.32374
C	-2.9937019293	-3.814044296	-0.0783250492	 0.416644
O	-1.7586027666	-4.3233393702	-0.1235549199	-0.360735
O	-3.9929372276	-4.479757992	-0.1245680143	-0.343833
H	 0.1335012979	 1.2795564012	-1.2099864887	 0.296706
H	 0.6293728053	-0.7178592254	-0.233681634	 0.129017
H	 0.2468493271	 0.0536312463	 1.3127476429	 0.145945
H	-1.1638317171	-3.5407772936	-0.0684623943	 0.302599
H	-3.5774943102	-2.0329360733	 0.9524049294	 0.135496
H	-3.6095241558	-1.9048656517	-0.8078349538	 0.127457
44.9843	72.6657	87.9079	117.5216	220.0351	282.0902	296.6283	313.8204	360.7934	387.4452	542.3675	569.8169	574.4362	607.6973	641.5156	700.3977	823.6533	874.1433	914.3098	979.7702	999.2737	1031.5577	1079.8464	1145.7589	1202.4442	1222.2648	1231.9672	1337.7271	1369.3238	1384.7155	1402.259	1446.7753	1457.6118	1483.893	1620.7639	1748.2982	1876.0884	2983.2773	3019.8541	3047.8257	3095.925	3446.606	3597.7471	3727.7233	3815.826
OCC(=[NH2+])NCC([O-])=O	OCC(=NCC(=O)O)N	
InChI=1S/C4H8N2O3/c5-3(2-7)6-1-4(8)9/h7H,1-2H2,(H2,5,6)(H,8,9)	InChI=1S/C4H8N2O3/c5-3(2-7)6-1-4(8)9/h7H,1-2H2,(H2,5,6)(H,8,9)
