21
gdb 59791	3.17123	1.10907	0.99272	2.077	74.65	-0.2594	0.0836	0.343	1284.6565	0.183286	-461.369641	-461.36075	-461.359806	-461.403106	34.154	
C	 0.0648410821	 1.5408540357	 0.1369693568	-0.406403
C	-0.0542654051	 0.0213789015	-0.0010227775	 0.130016
O	-1.4119845275	-0.3949164164	-0.0413226656	-0.439143
C	 0.6916268181	-0.5091333259	-1.2338016521	 0.103952
C	 0.7377367272	-2.0391911447	-1.3070971897	-0.215725
C	 1.2238015764	-2.4757079085	-2.6904148586	-0.099197
O	 0.4525652866	-1.8490815494	-3.7100935018	-0.228917
C	 0.5041173532	-0.4582280251	-3.5877456616	 0.017895
O	-0.0201971668	 0.0047732594	-2.3673942087	-0.273141
H	 1.1060770337	 1.8425034323	 0.2957886659	 0.106859
H	-0.2995188356	 2.0358156407	-0.7679082878	 0.12663
H	-0.5299665379	 1.8828856095	 0.9874193667	 0.122468
H	 0.3771039473	-0.4599242671	 0.8853922679	 0.082975
H	-1.7298425313	-0.1659786813	-0.9241033927	 0.287076
H	 1.7186166972	-0.1050962249	-1.2452014368	 0.06338
H	 1.4016523125	-2.4340036213	-0.5295328349	 0.097789
H	-0.2694069377	-2.4245301654	-1.1247428326	 0.125743
H	 2.2887214165	-2.2169127772	-2.8212437279	 0.087914
H	 1.1166697623	-3.5532165406	-2.8372953282	 0.115331
H	 1.5490728199	-0.1068212411	-3.692388879	 0.075825
H	-0.1171154712	-0.0379834301	-4.3813371317	 0.118671
91.1037	108.7294	194.2976	241.1231	257.1847	287.9399	323.5382	397.7261	416.826	462.054	496.4394	510.3857	621.8875	692.9492	833.6423	858.094	901.0334	919.7578	972.26	1002.48	1013.6725	1055.5895	1071.3198	1080.82	1121.0597	1132.2724	1174.8506	1198.3266	1235.2796	1268.9256	1288.1914	1317.1118	1333.1603	1360.2631	1369.2042	1395.4245	1399.1994	1405.0112	1428.2079	1450.6377	1475.9419	1491.2382	1498.0179	1499.8948	1511.4285	2916.2795	2956.301	2964.8495	3036.5548	3039.0664	3047.489	3095.1121	3106.9334	3109.696	3111.4128	3128.364	3776.5485
CC(O)C1CCOCO1	C[C@@H](O)[C@H]1CCOCO1	
InChI=1S/C6H12O3/c1-5(7)6-2-3-8-4-9-6/h5-7H,2-4H2,1H3	InChI=1S/C6H12O3/c1-5(7)6-2-3-8-4-9-6/h5-7H,2-4H2,1H3/t5-,6-/m1/s1
