21
gdb 120961	4.73347	0.84618	0.79551	0.8797	79.01	-0.2436	0.0942	0.3378	1532.3899	0.182037	-424.212459	-424.203566	-424.202622	-424.24668	33.41	
C	-0.0743653723	 1.5649313569	-0.1070295767	-0.381275
C	-0.045567001	 0.034539221	-0.1016521341	-0.169164
C	 0.7197643955	-0.5461306053	-1.2954309967	-0.199214
C	 0.7618050765	-2.059227701	-1.2881577818	 0.217455
O	-0.5498033068	-2.6021871213	-1.4216162173	-0.272958
C	-0.3904790984	-3.8429109702	-2.0673269458	 0.062014
C	-0.2839929922	-3.7879064929	-3.5755377337	-0.323574
C	 0.9574254644	-3.8056187692	-2.7110177064	 0.058621
O	 1.5041261594	-2.545473542	-2.4023534534	-0.274265
H	 0.9383336024	 1.9817986443	-0.0693296843	 0.113351
H	-0.5550652684	 1.9483757153	-1.0137933346	 0.116151
H	-0.6275387306	 1.9546118738	 0.7530289646	 0.112382
H	 0.412282825	-0.3203186728	 0.8312327827	 0.094569
H	-1.0677289492	-0.3592380245	-0.1106131239	 0.118284
H	 0.262641275	-0.2288188265	-2.2395661588	 0.106447
H	 1.7551658726	-0.1849192983	-1.2983381356	 0.106765
H	 1.2154924777	-2.4444621793	-0.3561830398	 0.065122
H	-0.8078242315	-4.6974711644	-1.5460610613	 0.103806
H	-0.5244185584	-4.6894724324	-4.1305156262	 0.113767
H	-0.5392388282	-2.8507900735	-4.0561876273	 0.128056
H	 1.6626941686	-4.6293218877	-2.7256542595	 0.103659
67.4173	89.0128	108.5115	174.9132	250.2064	303.571	314.9057	374.6369	475.4093	528.9955	706.3748	735.353	749.6265	785.971	804.0773	843.3415	907.109	928.5127	958.1834	992.1468	1004.6175	1010.8577	1055.4109	1067.0353	1096.6304	1109.3683	1112.6734	1137.1546	1151.4836	1176.4407	1200.8942	1260.7182	1293.1578	1305.9107	1325.7398	1369.9324	1373.3268	1395.2426	1414.1517	1435.1003	1457.7678	1475.7193	1493.7683	1500.5095	1510.565	2931.3229	3021.6951	3029.4496	3038.2471	3064.0839	3084.9075	3100.8419	3103.5153	3130.8118	3162.9923	3172.4442	3232.3116
CCCC1OC2CC2O1	CCC[C@H]1O[C@H]2C[C@H]2O1	
InChI=1S/C7H12O2/c1-2-3-7-8-5-4-6(5)9-7/h5-7H,2-4H2,1H3	InChI=1S/C7H12O2/c1-2-3-7-8-5-4-6(5)9-7/h5-7H,2-4H2,1H3/t5-,6+,7-
