17
gdb 98241	2.73299	1.12649	0.93314	6.0327	66.74	-0.2495	-0.0021	0.2474	1284.4369	0.134577	-492.339736	-492.329653	-492.328709	-492.375722	35.343	
C	 0.0620574945	 1.5200971744	 0.2576468114	-0.331405
N	-0.0527109264	 0.0695874771	 0.3007823559	-0.322416
C	-1.1702052048	-0.5621864195	-0.1973133374	 0.360748
O	-2.0439590281	 0.0080257625	-0.810844798	-0.349301
C	-1.1558807569	-2.0943589353	-0.0035668225	-0.048765
O	-2.4192820698	-2.5794076259	 0.3015406015	-0.415318
C	-0.6618907196	-2.7623121402	-1.3109097358	 0.386654
N	 0.5589199836	-2.3807327046	-1.7588459053	-0.515299
O	-1.3581147303	-3.6054503385	-1.8445502081	-0.369191
H	 1.1127312348	 1.81087984	 0.1783522519	 0.125415
H	-0.4839076289	 1.8725179724	-0.6178084541	 0.171084
H	-0.3723064951	 1.9947604571	 1.1456600578	 0.136132
H	 0.4612288385	-0.4111557648	 1.0234435974	 0.249241
H	-0.4391297952	-2.3579271228	 0.7929618582	 0.08803
H	-2.642125689	-3.1741627015	-0.4365535764	 0.300291
H	 0.9844326549	-1.5406199071	-1.3997530502	 0.26345
H	 0.8525680178	-2.7163783733	-2.6626504363	 0.27065
53.1513	65.1992	73.9198	121.4836	209.0876	224.9538	314.6038	328.479	378.8025	404.87	450.5233	485.4414	522.493	540.2671	647.5909	673.3119	722.6527	783.2265	898.4625	925.2616	1037.5968	1115.4514	1147.9577	1166.9233	1179.8588	1197.8101	1241.3596	1342.1047	1388.6391	1441.4139	1447.4882	1483.5132	1498.9991	1539.6754	1622.4106	1797.8505	1815.0549	2956.5808	3031.6201	3099.1332	3157.8155	3578.9983	3616.5279	3635.8881	3707.9993
CNC(=O)C(O)C(N)=O	CNC(=O)[C@@H](O)C(=O)N	
InChI=1S/C4H8N2O3/c1-6-4(9)2(7)3(5)8/h2,7H,1H3,(H2,5,8)(H,6,9)	InChI=1S/C4H8N2O3/c1-6-4(9)2(7)3(5)8/h2,7H,1H3,(H2,5,8)(H,6,9)/t2-/m0/s1
