25
gdb 101810	2.90446	0.76357	0.66742	2.1521	86.42	-0.2536	0.0776	0.3312	1820.3309	0.226065	-426.629612	-426.617974	-426.617029	-426.667211	41.961	
C	 0.1412379966	 1.3753291031	-0.206818795	-0.393276
C	 0.0315375682	-0.1318495916	 0.0538639212	 0.023584
C	 0.5291915777	-0.5023185076	 1.4559845383	-0.380253
C	-1.4068977996	-0.6015191386	-0.1698980649	-0.046915
O	-1.4530451404	-2.0117366227	-0.0677718344	-0.281194
C	-2.7505494866	-2.6019606345	-0.0134141287	 0.120631
C	-3.4816250933	-2.5334734251	-1.3556059865	-0.398601
C	-2.4902654631	-4.0433655549	 0.432371093	-0.061049
O	-1.632029435	-4.7187473532	-0.4671717979	-0.423079
H	 1.1729827425	 1.7181302942	-0.0825310972	 0.115969
H	-0.1778629732	 1.6345682846	-1.2219845301	 0.112228
H	-0.48108835	 1.9434300373	 0.495043423	 0.113724
H	 0.6526152757	-0.6582549007	-0.6836918307	 0.080651
H	-0.0399776278	 0.0348095419	 2.2247780026	 0.10705
H	 0.4145135339	-1.573160794	 1.6386046158	 0.124533
H	 1.5846867619	-0.2403999053	 1.5810855993	 0.108948
H	-2.0736099056	-0.1480061393	 0.5843841767	 0.08175
H	-1.7568826215	-0.2682061745	-1.1587349163	 0.088315
H	-3.347824718	-2.0943614566	 0.7627582573	 0.062557
H	-3.604997324	-1.5032806779	-1.6996772462	 0.114311
H	-2.9278882248	-3.0977062849	-2.109928371	 0.133976
H	-4.4798206362	-2.972852063	-1.2600093574	 0.11544
H	-2.0694201411	-4.0266236449	 1.4496546327	 0.088047
H	-3.4304808104	-4.6036672496	 0.4628142945	 0.103284
H	-0.8714854658	-4.136162032	-0.5819619082	 0.28937
33.7023	70.375	90.8615	135.7947	168.4512	209.9914	228.8856	243.7769	258.6776	278.3667	337.3467	374.7259	424.6027	435.7506	461.6687	488.2558	667.2575	813.5166	844.8963	912.3906	921.4018	931.0169	936.2552	965.8872	975.7344	1011.1697	1084.153	1113.0608	1137.5485	1154.5907	1164.5387	1191.2135	1200.2914	1244.2637	1276.9159	1326.2639	1344.7187	1364.3408	1374.0342	1384.564	1395.9973	1410.2766	1412.8116	1432.7069	1440.331	1488.4435	1490.3548	1491.8749	1495.1937	1501.8964	1504.3432	1513.5614	1521.4955	2952.0999	2962.5691	2988.0838	2997.124	3018.7592	3026.1495	3030.9048	3045.9048	3077.8309	3089.8942	3095.0006	3104.3891	3112.3578	3125.3499	3133.0857	3790.881
CC(C)COC(C)CO	CC(C)CO[C@@H](C)CO	
InChI=1S/C7H16O2/c1-6(2)5-9-7(3)4-8/h6-8H,4-5H2,1-3H3	InChI=1S/C7H16O2/c1-6(2)5-9-7(3)4-8/h6-8H,4-5H2,1-3H3/t7-/m0/s1
