23
gdb 119166	2.47312	1.10041	0.8764	1.0619	86.93	-0.2411	0.0864	0.3275	1443.5152	0.20474	-388.248327	-388.238379	-388.237435	-388.284369	36.827	
C	-0.0470809852	 1.4040775688	-0.0470513986	-0.22365
O	-0.0306482047	-0.0016939534	-0.0433944412	-0.233699
C	 0.6495498485	-0.5415692964	 1.0699506164	-0.159257
C	 0.6303514715	-2.0585254078	 1.0031577307	 0.344281
C	-0.5918313541	-2.7195241281	 0.4078896706	-0.299816
C	 0.7074986861	-2.6997716929	-0.3635499604	-0.300741
C	 1.3104252155	-2.7879968264	 2.1320733623	-0.044415
C	 2.5664804492	-2.3050691919	 2.818354784	-0.28118
C	 1.2596207649	-2.3476760479	 3.5761891032	-0.280853
H	 0.9704352845	 1.8250983449	-0.0807026312	 0.104121
H	-0.5907228551	 1.7227878838	-0.9397889853	 0.127365
H	-0.5548231088	 1.8097492467	 0.8425353017	 0.104115
H	 1.689669761	-0.1728651438	 1.0817283582	 0.08793
H	 0.1700235812	-0.1926953615	 2.0007857808	 0.087633
H	-0.9208227382	-3.6567892718	 0.8444180886	 0.101555
H	-1.3869247321	-2.0754676879	 0.0528997241	 0.122076
H	 0.7616554298	-2.0423774907	-1.2226295708	 0.121748
H	 1.2690231285	-3.623514782	-0.4566627866	 0.101573
H	 1.2650382307	-3.8656919741	 1.9942986247	 0.078471
H	 3.3301202647	-3.0369136089	 3.0584993001	 0.109145
H	 2.9635161431	-1.3306908253	 2.5568385074	 0.112156
H	 0.7880477176	-1.4017473822	 3.817885665	 0.112284
H	 1.1251226216	-3.1091189012	 4.3368033964	 0.109158
23.175	85.5127	108.1632	143.8483	235.1537	236.5342	244.8456	338.2625	339.4831	404.7363	481.2401	490.721	695.5958	785.1948	789.6311	819.5954	855.939	864.3898	898.8378	965.359	979.3015	999.5696	1007.7335	1057.2961	1063.2036	1074.358	1078.5444	1094.6733	1105.1282	1143.9618	1164.4601	1187.3035	1195.9376	1198.3768	1217.6109	1228.3447	1283.0818	1287.6985	1334.6904	1427.0852	1430.7179	1457.1988	1471.4458	1479.0992	1485.4665	1497.1311	1503.5346	1510.0298	1530.9758	2943.8753	2970.2616	2970.4838	3012.4973	3113.5339	3126.428	3133.2209	3133.8982	3137.3365	3139.3763	3208.796	3221.7559	3224.4297	3234.5663
COCC1(CC1)C1CC1	COCC1(CC1)C1CC1	
InChI=1S/C8H14O/c1-9-6-8(4-5-8)7-2-3-7/h7H,2-6H2,1H3	InChI=1S/C8H14O/c1-9-6-8(4-5-8)7-2-3-7/h7H,2-6H2,1H3
