15
gdb 43053	2.5074	2.25113	1.64805	3.4279	63.18	-0.2267	-0.0315	0.1952	833.4414	0.11475	-457.736764	-457.730608	-457.729664	-457.767286	24.772	
O	-0.0154302111	 0.0315164992	 0.2171164921	-0.324825
C	-0.0392882763	 1.2209238848	 0.0908775356	 0.467088
C	-1.2169021624	 2.2034654394	 0.0006949767	-0.061197
O	-0.8126199735	 3.0512555852	 1.1299263178	-0.303295
C	 0.2406172517	 3.508622449	 0.2348411766	 0.081145
C	-0.6663401141	 3.2837325702	-0.9949433749	-0.082239
C	 0.2380038323	 2.7962307276	-2.1192078257	-0.115581
O	 1.4198815583	 2.3064411251	-1.4487896356	-0.271655
C	 1.1126835678	 2.2577524336	-0.0559534023	-0.04831
H	-2.2407661968	 1.8384316704	 0.0355083952	 0.10605
H	 0.7088355041	 4.4492652334	 0.5165560548	 0.102151
H	-1.379481517	 4.071782467	-1.2301365201	 0.103832
H	-0.2132309517	 1.9970442512	-2.7203187852	 0.120316
H	 0.5336630007	 3.6088706512	-2.7916258119	 0.119958
H	 2.0220211482	 2.0870685326	 0.5149516268	 0.106562
134.5557	237.1312	328.8432	429.0982	460.7384	557.7885	654.4957	704.0647	769.974	807.7323	825.0878	856.3154	882.4607	914.6171	933.1631	957.1724	983.0749	1023.0781	1043.308	1076.2038	1132.0991	1132.2099	1189.1499	1192.9984	1222.9176	1250.2273	1267.2004	1277.8788	1304.4057	1324.8568	1380.063	1521.1459	1893.9303	3025.8562	3069.32	3138.0457	3146.9576	3158.6988	3162.382
O=C1C2OC3C2COC13	O=C1[C@H]2O[C@@H]3[C@H]2CO[C@H]13	
InChI=1S/C6H6O3/c7-3-4-2-1-8-6(3)5(2)9-4/h2,4-6H,1H2	InChI=1S/C6H6O3/c7-3-4-2-1-8-6(3)5(2)9-4/h2,4-6H,1H2/t2-,4-,5+,6+/m0/s1
