20
gdb 95094	2.37407	1.58755	1.16983	1.8104	85.23	-0.2325	0.0393	0.2717	1131.1335	0.171079	-365.968704	-365.96013	-365.959186	-366.001415	33.91	
C	 0.0376520457	 1.5955765272	-0.0176105003	-0.409396
C	 0.066864289	 0.0681175264	 0.0238175904	-0.024056
C	 0.7722774831	-0.6058268597	-1.1719470648	-0.265153
C	 1.2846151928	-1.9434748913	-0.5960719484	-0.159259
N	 1.5180752163	-1.7642666598	 0.8521029819	-0.137361
C	 2.2948071893	-0.5663439016	 1.1731447143	-0.285382
C	 0.7999586311	-0.5183070278	 1.2405229305	 0.148561
C	 0.1223233464	-0.4774858472	 2.5065600683	 0.2046
C	-0.4712920446	-0.3957797949	 3.5494183042	-0.370299
H	 1.051265404	 2.007774193	-0.0708885787	 0.113528
H	-0.5178904978	 1.9537193539	-0.8902198087	 0.114972
H	-0.4441756245	 2.0007060196	 0.8774768374	 0.129018
H	-0.9655830963	-0.2990231345	 0.0798574619	 0.086191
H	 0.0988369294	-0.7509744862	-2.0204220956	 0.105517
H	 1.5987905387	 0.0175283457	-1.5290117172	 0.104768
H	 0.5274531724	-2.727565278	-0.7020566475	 0.112819
H	 2.2006391135	-2.2997369582	-1.0777495034	 0.108595
H	 2.8582548838	-0.6286461871	 2.0986353236	 0.125178
H	 2.7912017499	-0.0215321399	 0.3735634261	 0.110387
H	-0.9859550822	-0.3415626197	 4.4765020761	 0.186772
112.5837	142.4027	181.2107	234.2152	256.9267	313.2598	395.3886	459.0853	496.2585	532.2268	582.0132	606.2236	641.8936	648.9004	656.3697	814.657	830.1663	856.6897	906.7163	938.1177	963.9824	975.2702	1029.1987	1061.7803	1112.6685	1118.4544	1133.1636	1177.6075	1208.8728	1238.0907	1245.9771	1299.9495	1312.04	1348.8406	1368.6837	1380.4241	1411.1808	1489.456	1493.6474	1498.5263	1501.5939	1520.4115	2236.9933	3026.1582	3032.221	3044.6984	3049.9925	3085.7562	3099.0491	3103.4075	3107.6797	3111.389	3199.6901	3502.9945
CC1CCN2CC12C#C	C[C@H]1CCN2C[C@@]12C#C	
InChI=1S/C8H11N/c1-3-8-6-9(8)5-4-7(8)2/h1,7H,4-6H2,2H3	InChI=1S/C8H11N/c1-3-8-6-9(8)5-4-7(8)2/h1,7H,4-6H2,2H3/t7-,8-,9?/m0/s1
