20
gdb 76664	2.9643	1.03964	0.8924	5.1135	75.68	-0.2272	0.0422	0.2694	1355.8848	0.170127	-440.306528	-440.296534	-440.295589	-440.34177	36.749	
C	-0.0945853963	 1.4101571534	-0.2417574625	-0.416923
C	 0.2511820787	-0.0608340363	-0.1526796341	-0.068883
C	 1.6731422277	-0.5185494774	 0.0946007534	 0.056691
O	 2.6627925123	 0.4333247798	 0.4003384465	-0.412939
C	 0.6304730398	-0.7407370711	 1.156177895	-0.043533
C	 0.6774201482	 0.0005863074	 2.4830430787	-0.314552
C	 1.6205712169	-0.6801680856	 3.4821625484	 0.365585
N	 2.945541506	-0.4926203377	 3.2150340698	-0.511674
O	 1.2173486879	-1.3227429187	 4.432992178	-0.364001
H	 0.6043408609	 2.0284065817	 0.3257776398	 0.127752
H	-0.0648643752	 1.749393022	-1.2833616333	 0.113917
H	-1.1029164786	 1.6050563457	 0.1378785973	 0.126697
H	-0.3138964281	-0.6873290659	-0.8385536811	 0.088835
H	 2.0478289756	-1.3834690147	-0.4508076481	 0.09054
H	 2.9368357896	 0.8715972538	-0.4116500208	 0.296948
H	 0.2952664852	-1.7695384667	 1.2572962594	 0.101834
H	 0.9944813298	 1.0354797337	 2.335320211	 0.117034
H	-0.3141962497	 0.0059969	 2.9409973679	 0.122974
H	 3.2414602112	-0.088428981	 2.3385567391	 0.273157
H	 3.6084023682	-1.0110894025	 3.7680028653	 0.25054
49.024	99.2119	120.7471	167.7093	199.5905	224.8849	258.9366	286.3828	415.8896	425.5242	445.4877	540.2757	560.7475	590.2986	626.2456	727.9718	764.7426	808.4969	873.4628	897.8985	930.2253	981.9517	1008.3152	1064.8482	1110.5013	1120.4805	1152.2213	1153.1202	1179.3773	1225.916	1251.69	1287.5612	1305.5707	1362.8368	1378.3205	1383.8493	1417.1817	1454.7404	1476.3334	1498.9842	1506.3858	1632.7153	1801.6744	3035.1239	3072.2295	3090.2708	3105.8518	3118.0676	3125.5657	3135.4452	3148.8989	3559.9781	3704.1895	3813.3694
CC1C(O)C1CC(N)=O	C[C@H]1[C@@H](O)[C@H]1CC(=O)N	
InChI=1S/C6H11NO2/c1-3-4(6(3)9)2-5(7)8/h3-4,6,9H,2H2,1H3,(H2,7,8)	InChI=1S/C6H11NO2/c1-3-4(6(3)9)2-5(7)8/h3-4,6,9H,2H2,1H3,(H2,7,8)/t3-,4+,6-/m1/s1
