14
gdb 51510	3.52346	1.18239	0.92781	6.0194	65.35	-0.2433	-0.0397	0.2036	1176.1379	0.10054	-473.875327	-473.867354	-473.86641	-473.908691	28.361	
O	 0.2063663773	 0.0377584992	-0.4762194406	-0.269692
C	 0.2676730657	 1.2280454905	-0.4929283909	 0.185509
O	 0.8556328237	 1.9298594597	 0.5080840205	-0.192434
C	 0.9392463254	 3.3440762919	 0.3384542967	-0.030034
C	 1.2677615109	 4.0606237249	 1.6151648226	-0.178857
C	 2.3644881749	 4.7960749928	 1.4110270712	-0.008452
N	 2.8617074299	 4.6510294953	 0.1027998761	-0.331992
C	 2.1251257743	 3.71891803	-0.5974630244	 0.410092
O	 2.3477719718	 3.2735187647	-1.6952447701	-0.348198
H	-0.1474582362	 1.8727856865	-1.2878350826	 0.094227
H	 0.0113531534	 3.7192703664	-0.1175640764	 0.125681
H	 0.680370873	 4.0120617577	 2.5179649544	 0.127753
H	 2.8691883442	 5.466620424	 2.0917464416	 0.145032
H	 3.7591047918	 4.9798022062	-0.2152111079	 0.271365
70.998	90.682	136.7479	220.1982	268.3168	358.4343	421.4252	501.9067	511.0718	635.2227	683.9135	710.1101	775.6612	811.3144	904.5542	925.5321	1028.0588	1037.2686	1065.056	1088.0096	1142.1568	1163.8623	1210.0142	1265.3825	1329.9232	1378.9744	1408.7666	1436.8362	1672.2075	1851.7432	1874.5016	2983.2588	3005.0386	3241.3899	3270.2177	3653.2362
O=COC1C=CNC1=O	O=CO[C@H]1C=CNC1=O	
InChI=1S/C5H5NO3/c7-3-9-4-1-2-6-5(4)8/h1-4H,(H,6,8)	InChI=1S/C5H5NO3/c7-3-9-4-1-2-6-5(4)8/h1-4H,(H,6,8)/t4-/m0/s1
