20
gdb 27877	1.7829	1.75536	0.89512	1.3199	92.82	-0.1941	0.0129	0.207	1328.4403	0.171329	-366.096911	-366.08738	-366.086436	-366.13237	35.356	
C	-0.0150540145	 1.5222163178	-0.0005388736	-0.489849
C	-0.0017792165	 0.0121249856	-0.0035353968	 0.3457
C	 0.03617144	-0.6885176041	-1.2075653295	-0.29012
C	 0.0752091537	-2.0877955861	-1.2266302946	 0.334928
N	 0.1707070022	-2.7800466684	-2.4380646662	-0.590312
C	 0.0702911302	-2.7800136459	-0.0097636686	-0.290143
C	 0.0326308916	-2.0970425009	 1.204349835	 0.345705
C	 0.0564348933	-2.8584229178	 2.5083017528	-0.489848
C	-0.0077902236	-0.700944455	 1.19737068	-0.319417
H	 1.0046034341	 1.9272635362	 0.004354113	 0.131444
H	-0.5172573001	 1.9216106495	-0.8868017888	 0.119478
H	-0.5234658009	 1.9149648066	 0.8848536461	 0.121883
H	 0.0340845527	-0.1438567265	-2.1485647794	 0.069555
H	-0.2009333883	-2.2824461303	-3.2344544756	 0.242885
H	-0.1774158509	-3.7275664187	-2.4068155603	 0.242886
H	 0.094830582	-3.8669770411	-0.016352431	 0.069567
H	 1.0855040892	-3.0309599086	 2.8474730929	 0.131449
H	-0.457492194	-2.3074940518	 3.3014188085	 0.121915
H	-0.4202916721	-3.8383793463	 2.4104255915	 0.119444
H	-0.0483713281	-0.1619614941	 2.1396750146	 0.072852
26.8077	47.0294	180.7533	221.2103	228.1469	270.8391	287.7499	301.1219	479.7362	513.5542	524.2194	536.2345	569.2361	583.2583	648.5449	715.5521	843.8212	847.9961	863.957	958.6421	963.6307	1008.0133	1032.6903	1054.9913	1057.9705	1058.2975	1119.5682	1186.959	1201.4029	1316.3744	1351.2698	1358.9	1408.8353	1411.8503	1460.9793	1482.6564	1489.0671	1489.6752	1514.745	1520.1949	1641.0229	1642.9114	1659.1659	3025.9707	3026.4831	3083.6589	3083.837	3110.9163	3111.1263	3151.664	3153.2767	3162.9215	3558.8684	3656.5742
CC1=CC(N)=CC(C)=C1	Cc1cc(N)cc(C)c1	
InChI=1S/C8H11N/c1-6-3-7(2)5-8(9)4-6/h3-5H,9H2,1-2H3	InChI=1S/C8H11N/c1-6-3-7(2)5-8(9)4-6/h3-5H,9H2,1-2H3
