17
gdb 22742	5.05722	0.96669	0.86809	1.0899	82.6	-0.2187	-0.0323	0.1863	1308.8132	0.136604	-417.95381	-417.945808	-417.944864	-417.986581	30.849	
O	-0.1092889017	 1.3328662723	-0.075515825	-0.395914
N	 0.021335068	-0.0676258123	-0.0523121058	-0.235457
C	-1.1186638788	-0.6414729669	 0.023107885	 0.365632
C	-1.2418520696	-2.1571388144	 0.0644609958	-0.404321
C	-2.7578673082	-2.3919710248	-0.000177095	 0.310373
C	-3.3615794763	-3.5147438835	-0.7744465173	-0.28376
N	-3.423054019	-3.51253438	 0.6942701796	-0.357433
C	-3.3810576736	-1.0464153569	 0.0848320002	-0.111261
C	-2.4632072817	-0.0679944287	 0.0833001864	-0.164687
H	 0.8079347339	 1.6189877261	-0.1322818136	 0.306067
H	-0.6970067443	-2.6316976227	-0.7553602399	 0.129638
H	-0.8283306705	-2.5439661839	 1.0031498549	 0.129612
H	-4.3183790464	-3.3838604766	-1.2734053293	 0.120561
H	-2.6798897137	-4.1981904442	-1.2753219755	 0.115336
H	-2.7191501279	-4.142360521	 1.0731411202	 0.232946
H	-4.45603738	-0.9192093897	 0.1326496907	 0.117034
H	-2.6470427005	 0.9957605573	 0.1148501386	 0.125634
51.1203	207.8724	216.3728	259.8733	321.222	328.3443	373.019	430.7699	454.8528	607.1644	638.582	710.5058	799.1425	826.9317	841.941	866.4221	903.4174	955.713	967.5012	977.837	982.3392	989.084	1066.4483	1100.2043	1133.7727	1185.7797	1227.6919	1255.0396	1267.5138	1323.2607	1336.1775	1393.244	1419.5112	1469.5416	1509.6621	1634.2649	1726.4162	3041.2021	3097.3951	3100.0545	3185.8376	3208.3009	3253.5591	3491.17	3826.2888
ON=C1CC2(CN2)C=C1	ON=C1C[C@]2(CN2)C=C1	
InChI=1S/C6H8N2O/c9-8-5-1-2-6(3-5)4-7-6/h1-2,7,9H,3-4H2	InChI=1S/C6H8N2O/c9-8-5-1-2-6(3-5)4-7-6/h1-2,7,9H,3-4H2/t6-/m0/s1
