23
gdb 89462	2.19032	1.53717	1.39043	1.6667	85.16	-0.2359	0.0778	0.3137	1140.0931	0.20411	-388.279096	-388.269407	-388.268462	-388.312983	37.176	
C	-0.7232436227	 1.2202898076	-0.0127394324	-0.408178
C	 0.0546196244	-0.0838641648	-0.1018298296	-0.001375
C	 1.3189649005	-0.1393438796	-1.0191877241	-0.310522
C	 2.1782445413	-0.6793242189	 0.1636467651	 0.253699
C	 2.9545635909	-1.9608755677	-0.032911783	-0.502109
C	 2.7981955356	 0.4560313673	 0.9930774384	-0.121166
O	 1.5711284176	 0.665097546	 1.7267703979	-0.334019
C	 0.9393853914	-0.4898115878	 1.1105009117	 0.3998
C	 0.4178056449	-1.4651607719	 2.1341210782	-0.478169
H	-0.0702137864	 2.0322293291	 0.3184347428	 0.128848
H	-1.1478288046	 1.4892386542	-0.9860450249	 0.107927
H	-1.5503337074	 1.1450105423	 0.7019455861	 0.111436
H	-0.6234222952	-0.9095589305	-0.3476683074	 0.063807
H	 1.2328571123	-0.830998655	-1.8613578556	 0.095664
H	 1.647372111	 0.8304033241	-1.4064586508	 0.094442
H	 3.7885347568	-1.809824491	-0.7295970336	 0.11999
H	 3.3739916239	-2.3285399841	 0.9100862285	 0.117208
H	 2.3219258	-2.7520442844	-0.4504688948	 0.116139
H	 3.6106803305	 0.1378614967	 1.6620499823	 0.090795
H	 3.1185815414	 1.3531022322	 0.4477421085	 0.094191
H	-0.3879377484	-1.0041218795	 2.7172223866	 0.128198
H	 0.0162241307	-2.3625972274	 1.6524690525	 0.113741
H	 1.2059916414	-1.7647951169	 2.8315676375	 0.119654
72.2622	177.3476	186.8854	204.3989	211.9072	223.2916	240.3037	313.7552	347.5702	393.206	417.7076	534.484	591.4801	630.7804	685.5183	807.8117	840.0151	875.7975	886.8001	908.821	954.319	979.1956	1000.5598	1009.1106	1049.1271	1083.7954	1140.8444	1143.8345	1158.841	1191.1029	1196.7262	1228.9354	1237.4386	1266.2857	1294.6799	1317.5146	1361.497	1373.4198	1402.0671	1406.7099	1415.4891	1478.8999	1482.3892	1487.4186	1489.8738	1493.542	1495.627	1502.5516	1527.6499	2991.018	3019.3991	3027.3752	3029.4566	3034.7794	3039.8035	3046.9844	3080.2511	3090.9607	3091.8291	3096.0141	3099.7627	3108.4546	3118.2927
CC1CC2(C)COC12C	C[C@H]1C[C@@]2(C)CO[C@@]12C	
InChI=1S/C8H14O/c1-6-4-7(2)5-9-8(6,7)3/h6H,4-5H2,1-3H3	InChI=1S/C8H14O/c1-6-4-7(2)5-9-8(6,7)3/h6H,4-5H2,1-3H3/t6-,7-,8-/m0/s1
