17
gdb 65153	3.57074	1.14395	0.99409	4.2863	68.08	-0.2732	0.0041	0.2773	1196.4118	0.134326	-458.970428	-458.962009	-458.961065	-459.003951	31.011	
C	 0.4024655594	 1.4051820548	 0.7132052946	-0.467065
C	-0.0507666326	 0.1243623237	 0.0464495203	 0.39046
C	 0.4623974495	-0.267213286	-1.2749881167	-0.228161
O	 0.9489537723	-0.8870387517	-0.077553838	-0.27048
C	-1.3941736413	-0.3828139722	 0.5197516553	 0.054116
C	-2.6528047047	 0.4049257629	 0.1008642541	-0.435116
C	-3.0218064106	-0.8950939464	-0.6136778053	 0.448957
O	-3.9118863861	-1.3200111836	-1.2737488229	-0.30796
O	-1.8752299718	-1.5489490233	-0.2280212383	-0.239637
H	 1.4057975893	 1.6677420371	 0.3711905984	 0.139976
H	-0.2726554579	 2.2371737168	 0.4877166768	 0.126549
H	 0.4362550591	 1.2828336203	 1.801485366	 0.131918
H	-0.1284257349	-0.9146560281	-1.9174145456	 0.137195
H	 1.1704812048	 0.3872714985	-1.7816341559	 0.114383
H	-1.3475946141	-0.6338585157	 1.5837919318	 0.110484
H	-3.3396273122	 0.6972585725	 0.8959908238	 0.14875
H	-2.4863666984	 1.2473509803	-0.5731535283	 0.145629
69.0219	90.0892	175.7226	188.6083	281.1907	320.333	362.9239	433.4083	497.7188	520.8477	549.3244	684.492	772.415	834.8764	867.9326	925.3841	927.553	966.3907	1016.8551	1022.0771	1043.2218	1092.4758	1122.6294	1134.1613	1149.6462	1177.2235	1222.4921	1252.0343	1291.4472	1384.6701	1401.0911	1418.5448	1454.4587	1483.5569	1493.8146	1526.0226	1945.8959	3036.8776	3069.6642	3090.3938	3093.4457	3099.8731	3130.8071	3149.773	3191.0077
CC1(CO1)C1CC(=O)O1	C[C@]1(CO1)[C@H]1CC(=O)O1	
InChI=1S/C6H8O3/c1-6(3-8-6)4-2-5(7)9-4/h4H,2-3H2,1H3	InChI=1S/C6H8O3/c1-6(3-8-6)4-2-5(7)9-4/h4H,2-3H2,1H3/t4-,6+/m1/s1
