23
gdb 113949	3.27507	0.85216	0.75244	1.8606	88.42	-0.2196	0.0882	0.3077	1627.2539	0.205137	-384.404122	-384.39432	-384.393376	-384.439769	36.166	
C	 0.5632940512	 1.6383398448	 0.1019558989	-0.373767
C	 0.5213705847	 0.1411322344	-0.1946692312	-0.11092
N	 0.8640009169	-0.614515366	 1.0076965014	-0.071911
C	-0.2216183315	-1.1077372705	 1.8457323411	-0.267726
C	 0.6287544224	-2.0538923843	 1.0665153192	 0.024241
C	 0.0494269434	-2.8521420713	-0.0807067714	-0.181756
N	 1.0604729569	-3.0964889193	-1.1081587037	-0.056558
C	 1.9088334594	-4.2679335114	-0.9113983611	-0.217333
C	 0.849934161	-4.2621701431	-1.9579480553	-0.219748
H	 1.5505169403	 1.9286933538	 0.4719551982	 0.124495
H	 0.3422775107	 2.2177421589	-0.8000560495	 0.10718
H	-0.1743943453	 1.9065901079	 0.8657739695	 0.113797
H	-0.4721146009	-0.1203223303	-0.5963470009	 0.076972
H	 1.2531660388	-0.1198221333	-0.9661703055	 0.118903
H	-0.0974555118	-0.9984843291	 2.920277111	 0.110885
H	-1.2431523333	-0.9601314062	 1.4922057519	 0.100729
H	 1.4174335487	-2.5857314556	 1.5993377647	 0.085897
H	-0.3617749775	-3.7965305514	 0.3247399737	 0.081343
H	-0.7843510751	-2.3202840125	-0.5491179996	 0.103144
H	 2.954523432	-4.1478353331	-1.1787645506	 0.1192
H	 1.7312329266	-4.8857210791	-0.031852305	 0.108181
H	-0.0314218037	-4.8756211586	-1.7748039413	 0.10742
H	 1.1069974259	-4.1369220246	-3.0058361444	 0.117331
51.2376	74.5034	80.4375	147.9338	203.0063	234.4559	293.7373	318.5122	408.8102	417.6847	447.183	568.0416	737.9964	766.8909	808.0418	820.2586	834.5548	902.5315	912.5973	969.5648	999.9648	1024.0392	1031.2357	1051.6803	1094.7849	1104.921	1110.5271	1117.3952	1125.432	1143.5275	1158.968	1178.3073	1198.0859	1199.4768	1278.9799	1310.8387	1318.5675	1339.4548	1355.619	1388.3756	1410.0142	1433.8913	1485.496	1488.6471	1489.9873	1494.7307	1505.1934	1516.6667	1520.3335	2918.0623	2955.7025	3036.5283	3069.9137	3072.7214	3076.5629	3090.578	3095.3934	3101.0604	3105.5704	3118.4168	3164.868	3176.0402	3190.2564
CCN1CC1CN1CC1	CCN1C[C@H]1CN1CC1	
InChI=1S/C7H14N2/c1-2-9-6-7(9)5-8-3-4-8/h7H,2-6H2,1H3	InChI=1S/C7H14N2/c1-2-9-6-7(9)5-8-3-4-8/h7H,2-6H2,1H3/t7-,9?/m1/s1
