21
gdb 106818	2.49821	1.5217	1.1493	1.9647	78.6	-0.2235	0.0874	0.3109	1157.5446	0.181427	-424.209367	-424.200177	-424.199233	-424.242917	34.877	
C	 0.0531082545	 1.2929910179	-0.2959963821	-0.252629
O	-0.0532569904	-0.0026534098	 0.2658043829	-0.29209
C	-1.3200370149	-0.5617511119	 0.1580766711	 0.377423
C	-1.7753945144	-1.1452091301	-1.1730655688	-0.426585
C	-1.4710848906	-2.0452636462	 0.0178859059	 0.37869
C	-0.3355761219	-3.02520302	 0.0002216875	-0.461785
O	-2.5654819923	-2.4828441284	 0.7905622486	-0.299255
C	-3.3484158183	-1.3443594126	 1.1535773662	-0.098823
C	-2.407332639	-0.1226618928	 1.1305909479	-0.303467
H	 1.1002704558	 1.5921573148	-0.2104426802	 0.126867
H	-0.2383255343	 1.2980058944	-1.3556572657	 0.110508
H	-0.5687513769	 2.0241007861	 0.2397834536	 0.109841
H	-2.7983548375	-1.0067349668	-1.5075237909	 0.110501
H	-1.0351251884	-1.149353767	-1.9663307892	 0.116419
H	 0.5396936699	-2.5743190399	-0.472919374	 0.128014
H	-0.068693132	-3.3097589909	 1.0225422545	 0.125695
H	-0.6066197209	-3.9324158332	-0.5488276134	 0.122851
H	-4.1736994089	-1.2121028307	 0.4398122718	 0.098428
H	-3.784914447	-1.5368422293	 2.1372297444	 0.112313
H	-1.9384935749	 0.0445027593	 2.1062306368	 0.115066
H	-2.9374970676	 0.7898306468	 0.8420428829	 0.102018
99.3991	157.9448	173.1309	184.3107	197.1548	220.091	296.8027	375.9256	400.315	439.8584	481.1792	584.6609	653.0759	702.4172	769.4974	851.2711	888.2167	919.0471	932.2	947.6188	969.7381	1016.6376	1046.1163	1066.5839	1116.1349	1120.7678	1161.4208	1182.5144	1207.2232	1219.5802	1240.8837	1243.7826	1262.0248	1333.0204	1386.9067	1395.4025	1424.3852	1470.7343	1477.2401	1483.3236	1489.1581	1495.4049	1506.7003	1511.0459	1527.8765	2991.5435	3000.387	3042.224	3043.1871	3047.2181	3084.2001	3096.78	3106.9591	3119.0711	3127.0927	3132.1776	3217.4725
COC12CC1(C)OCC2	CO[C@@]12C[C@]1(C)OCC2	
InChI=1S/C7H12O2/c1-6-5-7(6,8-2)3-4-9-6/h3-5H2,1-2H3	InChI=1S/C7H12O2/c1-6-5-7(6,8-2)3-4-9-6/h3-5H2,1-2H3/t6-,7-/m0/s1
