19
gdb 115091	2.88337	1.31004	0.9653	3.3478	76.6	-0.2454	-0.0269	0.2185	1219.7366	0.160016	-423.059897	-423.051447	-423.050503	-423.09324	32.117	
O	 0.1283736633	 1.3853051222	 0.0084642043	-0.43083
C	 0.0653678708	-0.0230283775	-0.0218612459	-0.072109
C	-1.3691652026	-0.5599035983	 0.0710393703	-0.12085
C	-1.4349949092	-2.0945652946	-0.0904697585	-0.274323
C	-2.7905965889	-2.6613711852	 0.2328385021	-0.066018
C	-3.6964186324	-2.0213643526	 0.9690095762	-0.049201
C	-3.4568087631	-0.671243355	 1.5909109678	-0.35611
C	-2.0560910066	-0.1243562299	 1.3582953639	 0.397876
O	-1.5395090282	 0.6383396196	 2.150096129	-0.337869
H	-0.2006606784	 1.6320391652	 0.8827987715	 0.293738
H	 0.508350871	-0.3410345941	-0.9723142932	 0.103116
H	 0.6655723044	-0.4736023771	 0.7852820867	 0.090793
H	-1.9628836004	-0.1144535483	-0.7417424024	 0.110866
H	-1.1517029982	-2.3562172453	-1.1170493571	 0.117173
H	-0.6738289343	-2.5655096041	 0.550160982	 0.12171
H	-3.017044295	-3.6488353024	-0.1607147294	 0.095665
H	-4.6616856904	-2.4799532437	 1.166871106	 0.096716
H	-4.1654652595	 0.0685878809	 1.1855617263	 0.141428
H	-3.6387690422	-0.68157537	 2.6717859803	 0.138232
79.9764	95.5973	159.7302	218.3154	275.2003	368.8178	386.1027	447.6771	492.8763	553.5592	568.8503	606.2268	677.7432	714.9614	810.8531	903.9068	912.7435	942.1421	985.3693	1003.9484	1039.8213	1076.2445	1083.776	1093.7891	1135.1455	1169.5491	1199.3028	1231.1121	1235.8212	1277.6914	1337.1155	1338.6719	1388.6977	1396.5097	1410.2008	1441.26	1445.5197	1481.379	1500.1601	1731.265	1788.2573	2973.5345	2993.1429	2994.81	3007.701	3047.2107	3061.604	3064.2296	3151.557	3174.1031	3765.1993
OCC1CC=CCC1=O	OC[C@H]1CC=CCC1=O	
InChI=1S/C7H10O2/c8-5-6-3-1-2-4-7(6)9/h1-2,6,8H,3-5H2	InChI=1S/C7H10O2/c8-5-6-3-1-2-4-7(6)9/h1-2,6,8H,3-5H2/t6-/m1/s1
