17
gdb 66572	2.38186	2.2465	1.6098	0.5986	70.15	-0.2315	0.071	0.3025	886.4048	0.135175	-421.742398	-421.735178	-421.734234	-421.773493	29.573	
C	-0.1173990664	 1.4788527101	 0.0588444445	-0.514305
C	-0.0150443724	-0.0142894215	 0.0783960869	 0.353129
O	-1.2734433117	-0.7399531522	-0.0001129134	-0.335256
C	-0.5384676928	-1.8656572638	 0.5347911383	 0.073556
C	 0.5869689371	-2.2152018181	-0.4717768843	-0.191263
C	 1.665045401	-1.487840646	 0.3230077857	-0.171328
C	 0.5170434583	-0.9466051806	 1.2267888388	-0.148754
C	 1.0018603662	-0.7829795612	-0.8267163729	 0.371214
O	 1.566696235	-0.3936153055	-2.0179763676	-0.466951
H	 0.8734255745	 1.9261975757	 0.1835809053	 0.131713
H	-0.5232088307	 1.8213221325	-0.898937385	 0.129593
H	-0.7720184126	 1.8361192666	 0.8583306717	 0.128365
H	-1.1638702118	-2.6310985849	 0.9919616892	 0.079503
H	 0.6895025607	-3.0357270074	-1.1695010934	 0.091438
H	 2.6963413919	-1.7455746337	 0.5117973054	 0.099886
H	 0.5489379739	-0.6809205617	 2.2806548995	 0.078598
H	 0.9257604696	-0.5438070081	-2.7226261988	 0.29086
183.4891	200.6451	234.1742	300.4477	325.5547	392.6875	539.3814	590.793	612.1877	650.6922	742.8177	798.4994	814.2694	828.454	838.6851	854.6764	885.2567	893.5591	928.3356	935.0595	959.8308	1001.9424	1076.6608	1103.0487	1126.7285	1134.4869	1165.6617	1196.9644	1238.2079	1244.0808	1283.5104	1302.0459	1352.237	1414.1551	1451.9917	1477.7813	1490.4442	3039.5724	3107.9245	3120.6233	3128.6609	3147.9564	3205.1265	3231.5034	3784.2027
CC12OC3C4C(C13)C24O	C[C@]12O[C@H]3[C@@H]4[C@H]([C@@H]13)[C@]24O	
InChI=1S/C7H8O2/c1-6-3-2-4(5(3)9-6)7(2,6)8/h2-5,8H,1H3	InChI=1S/C7H8O2/c1-6-3-2-4(5(3)9-6)7(2,6)8/h2-5,8H,1H3/t2-,3+,4-,5+,6-,7+/m0/s1
