15
gdb 77190	2.95116	1.26512	1.03729	3.127	61.39	-0.2662	-0.0055	0.2607	1136.0576	0.111208	-494.886009	-494.877723	-494.876779	-494.9197	29.329	
O	 0.34379378	 1.0597716246	 0.4360759768	-0.423095
C	 0.0918371966	-0.2479638618	 0.0035244549	-0.082643
C	-1.4069750976	-0.5789303177	-0.1615000894	 0.090856
O	-1.1908688907	-0.8563246537	-1.5870873548	-0.25482
C	 0.1344158295	-0.5005014638	-1.5159916948	 0.432248
O	 0.9198873067	-0.4181181797	-2.4022614356	-0.321837
C	-1.9378705828	-1.7680772876	 0.5872919526	 0.037897
C	-2.4904405401	-2.9410429412	-0.1002132497	-0.168176
O	-1.1757992955	-2.9664380127	 0.4674328004	-0.233284
H	 1.2783160305	 1.2481624936	 0.2954003112	 0.304673
H	 0.6414480079	-1.0097618726	 0.5706192242	 0.125801
H	-2.0480135363	 0.2981722417	-0.0405429902	 0.116113
H	-2.2781845509	-1.5392448401	 1.5983986933	 0.109998
H	-3.2292772693	-3.5579826048	 0.4077255981	 0.123212
H	-2.5220802382	-2.9466992341	-1.1863365969	 0.143057
71.2256	86.546	154.7285	197.2921	236.0001	273.8756	335.428	414.7447	532.1274	623.9278	723.155	745.0359	814.4067	886.3834	914.3981	917.1332	969.1859	1026.7492	1081.5888	1092.7524	1133.1957	1148.4918	1168.0041	1173.0608	1194.1696	1264.7947	1286.633	1309.1022	1366.7109	1422.8764	1436.7619	1522.0542	1944.9936	3036.7248	3087.9701	3100.0359	3108.6567	3200.8313	3813.0197
OC1C(OC1=O)C1CO1	O[C@H]1[C@@H](OC1=O)[C@H]1CO1	
InChI=1S/C5H6O4/c6-3-4(2-1-8-2)9-5(3)7/h2-4,6H,1H2	InChI=1S/C5H6O4/c6-3-4(2-1-8-2)9-5(3)7/h2-4,6H,1H2/t2-,3+,4+/m1/s1
