19
gdb 68582	4.13249	0.98377	0.91868	1.5196	81.31	-0.2574	0.0527	0.3101	1306.6747	0.157863	-385.810812	-385.802125	-385.801181	-385.844068	34.044	
O	-0.0775807849	 1.3369058191	 0.0258187253	-0.468145
C	 0.0246813478	-0.040089044	 0.004163149	 0.395874
C	 0.6658806913	-0.9828970204	 1.0715868581	-0.343129
C	 0.0464141578	-1.9044008532	-0.0209891227	 0.34945
C	 0.0613253243	-3.4196525473	-0.0320332625	-0.479983
C	-0.6085883607	-3.985534966	-1.1987373163	 0.307342
C	-1.1656476123	-4.4271386706	-2.1678332046	-0.456083
C	-1.2055743092	-0.9728934383	-0.0041290763	-0.282733
C	 0.6555609301	-0.9525388584	-1.0936846947	-0.316866
H	 0.8105719806	 1.7095918016	 0.0137214072	 0.282001
H	 1.7581317369	-0.9806542932	 1.144856013	 0.082948
H	 0.191680586	-1.0021211651	 2.0568178569	 0.092611
H	 1.1009519845	-3.7719704431	 0.0012800203	 0.131392
H	-0.4168245824	-3.7935319005	 0.8830877285	 0.132755
H	-1.6558607374	-4.828209866	-3.0199143856	 0.195849
H	-1.8134054772	-0.9881439311	 0.9047676069	 0.090981
H	-1.8196473049	-0.9680751061	-0.907420468	 0.101952
H	 0.1723771896	-0.9507208992	-2.0733369124	 0.102344
H	 1.7472536602	-0.9486677182	-1.1753581321	 0.081441
71.8631	97.6553	228.1029	241.4202	273.6541	345.086	394.866	404.7259	445.4746	550.9395	556.1018	619.4404	634.2775	641.6511	687.3832	759.1771	794.7709	917.5101	938.4192	955.2624	959.59	980.9133	1050.5941	1060.1301	1103.3727	1114.0924	1127.348	1136.2034	1142.4135	1151.5691	1174.2046	1264.6705	1295.1443	1314.6087	1348.4635	1383.3105	1464.6269	1493.0919	1496.4857	1564.9336	2239.248	3013.3069	3039.2048	3044.0006	3045.8077	3057.6824	3109.297	3119.735	3126.2719	3507.1664	3808.6951
OC12CC(CC#C)(C1)C2	O[C@@]12C[C@@](CC#C)(C1)C2	
InChI=1S/C8H10O/c1-2-3-7-4-8(9,5-7)6-7/h1,9H,3-6H2	InChI=1S/C8H10O/c1-2-3-7-4-8(9,5-7)6-7/h1,9H,3-6H2/t7-,8-
