19
gdb 76085	1.97698	1.67686	1.24835	1.8868	81.47	-0.2392	0.0491	0.2883	1110.8371	0.157345	-385.8175	-385.808314	-385.807369	-385.851272	34.41	
C	 0.0811016764	 1.632050248	 0.072115859	-0.419777
C	 0.0489875176	 0.1204447895	 0.0434307344	-0.036531
C	 1.3338608759	-0.6899689562	-0.1366304905	-0.236737
C	 2.6102858361	-0.0588473004	-0.3087272915	 0.360573
C	 3.6901650969	 0.4254868347	-0.5256922989	-0.480265
C	 0.5668020218	-0.7249950678	 1.1819554155	-0.064747
C	 1.0522106592	-0.1660334936	 2.4846170545	 0.05779
C	 2.4301135323	-0.3200763333	 2.9763789217	-0.179878
O	 1.950126291	 0.939063752	 2.4968919949	-0.220366
H	 0.976295848	 2.0043415735	 0.5707424097	 0.164085
H	 0.0641890998	 2.0317311591	-0.9473127988	 0.11818
H	-0.7941901862	 2.0262917902	 0.599748279	 0.113156
H	-0.8063530401	-0.2966855498	-0.4823781351	 0.090637
H	 1.2268518297	-1.5952638777	-0.7289871968	 0.112283
H	 4.6396577229	 0.8708176843	-0.6909492289	 0.19332
H	 0.0290462401	-1.6573376126	 1.3426153284	 0.094826
H	 0.2627565328	-0.0910225208	 3.2364749857	 0.09355
H	 2.6185668708	-0.3666258626	 4.047919275	 0.112886
H	 3.1701222351	-0.7985191164	 2.3392808827	 0.127016
94.458	117.6687	135.7599	176.3531	210.1818	235.7609	307.5177	347.944	432.4151	533.4049	590.1407	599.4982	646.3923	697.6462	718.3838	767.5319	799.1258	870.1604	903.7135	959.1691	991.481	1000.1543	1069.0787	1089.9924	1106.1078	1114.016	1153.3586	1158.8018	1171.3711	1182.9458	1247.6692	1300.7189	1366.873	1380.7092	1423.6821	1432.3219	1441.9311	1499.761	1501.6293	1523.8118	2232.7021	3038.2828	3074.5423	3092.324	3093.2782	3121.998	3125.7417	3139.608	3156.4205	3187.9154	3504.2026
CC1C(C#C)C1C1CO1	C[C@H]1[C@@H](C#C)[C@H]1[C@H]1CO1	
InChI=1S/C8H10O/c1-3-6-5(2)8(6)7-4-9-7/h1,5-8H,4H2,2H3	InChI=1S/C8H10O/c1-3-6-5(2)8(6)7-4-9-7/h1,5-8H,4H2,2H3/t5-,6+,7+,8-/m0/s1
