18
gdb 74889	2.7991	1.57982	1.12949	2.8154	80.28	-0.2202	-0.0537	0.1666	1092.83	0.148354	-401.957993	-401.949967	-401.949023	-401.990575	30.715	
C	 0.0030352145	 1.4463365758	 0.233410355	-0.476105
C	-0.0246591465	-0.0463006524	 0.0658670087	 0.172727
C	-1.1357251484	-0.7974106145	 0.1746211391	-0.118249
C	-1.173443696	-2.251114415	-0.0626658408	-0.065936
C	-0.7243755922	-2.7782402006	-1.3987258736	-0.240033
N	 0.0846199697	-2.9948314587	-0.2141248712	-0.103397
C	 1.3231900983	-2.2349033343	-0.0647498159	-0.264906
C	 1.2629663742	-0.7118332388	-0.2329878102	 0.293908
O	 2.2634362076	-0.0877374837	-0.5321532752	-0.324558
H	 0.6707179091	 1.7379824486	 1.051109922	 0.138463
H	 0.3984566695	 1.9251483456	-0.6681119664	 0.145399
H	-0.9953139471	 1.8415712054	 0.4369635986	 0.115223
H	-2.0825028	-0.3283287106	 0.4365839462	 0.103053
H	-1.9582565396	-2.7935955052	 0.4599346401	 0.102437
H	-1.1917009325	-3.6687458055	-1.811208246	 0.124172
H	-0.4092173262	-2.0358187635	-2.1296194086	 0.123726
H	 1.7111015824	-2.420435164	 0.9459348553	 0.135659
H	 2.0701485031	-2.6261274886	-0.7611190073	 0.138418
86.9264	134.611	166.1921	286.2	311.9329	353.9688	397.8581	433.0373	503.7148	572.9614	633.4831	694.483	717.7743	805.5792	828.4745	894.0967	930.4412	986.7667	992.3754	1042.741	1071.8947	1084.4034	1091.9663	1119.4229	1136.6218	1161.1773	1246.466	1269.2564	1323.3729	1337.1562	1378.7959	1400.9497	1414.9447	1458.6802	1470.663	1487.1854	1501.7324	1694.2608	1762.8046	3023.5165	3039.2961	3094.746	3095.6954	3096.9478	3123.132	3127.1244	3147.128	3186.933
CC1=CC2CN2CC1=O	CC1=C[C@H]2CN2CC1=O	
InChI=1S/C7H9NO/c1-5-2-6-3-8(6)4-7(5)9/h2,6H,3-4H2,1H3	InChI=1S/C7H9NO/c1-5-2-6-3-8(6)4-7(5)9/h2,6H,3-4H2,1H3/t6-,8?/m0/s1
