21
gdb 119325	4.67489	0.95365	0.92507	0.1965	85.77	-0.2167	0.0859	0.3026	1379.6	0.18186	-349.849429	-349.84109	-349.840145	-349.882769	32.579	
C	-0.0741795748	 1.5831780525	 0.0743758221	-0.380219
C	-0.1174085869	 0.0534157809	 0.0959385538	-0.155724
C	 0.8465078514	-0.5596644448	 1.1239652822	-0.347097
C	 0.8238836907	-2.0541154059	 1.1512886782	 0.402739
C	 1.1721985647	-3.1275881941	 0.0635529023	-0.159499
C	 0.1605793631	-4.0823940531	 0.6793549835	-0.083326
C	 1.6056191945	-4.0943777248	 1.1552430661	-0.085424
C	 1.2592026622	-3.0298457806	 2.2377171685	-0.172775
C	-0.1901551171	-3.0190072445	 1.7614931409	-0.147712
H	 0.9293418582	 1.9486302091	-0.1713063487	 0.112856
H	-0.7676676674	 1.992670394	-0.666811861	 0.110168
H	-0.3458280472	 2.0006482064	 1.0505979751	 0.11227
H	-1.1364583991	-0.288306798	 0.3150374477	 0.098518
H	 0.1255986167	-0.3359987772	-0.9010022729	 0.097949
H	 1.8683915298	-0.2094190214	 0.9165155801	 0.096333
H	 0.597388429	-0.185719789	 2.1272276626	 0.09516
H	 1.5099619582	-3.0482242404	-0.961696656	 0.080593
H	-0.4181175451	-4.8673934501	 0.2112121705	 0.082945
H	 2.3372208949	-4.8905212605	 1.1200112118	 0.08304
H	 1.6624791389	-2.8234141129	 3.2207991198	 0.079973
H	-1.0951689845	-2.8073285455	 2.3162634234	 0.079234
80.3167	91.4597	110.5988	242.4317	283.4988	302.5906	350.3295	625.5826	669.7646	737.8185	748.4239	760.8945	782.5281	799.1197	838.2502	848.6026	854.3313	898.9326	907.0562	917.9089	943.2544	957.1237	979.9855	1007.246	1017.5849	1023.5372	1047.7177	1089.2554	1119.6083	1162.5692	1172.6573	1195.4383	1243.3648	1257.8092	1287.3489	1306.4859	1324.8998	1333.1456	1383.7241	1411.1694	1434.0139	1473.8888	1492.5149	1498.8427	1509.5744	2994.5041	3022.6738	3026.9839	3028.4539	3058.5919	3094.453	3100.4659	3183.3126	3188.1954	3197.7062	3198.7709	3210.112
CCCC12C3C4C3C1C24	CCC[C@@]12[C@@H]3[C@H]4[C@@H]3[C@@H]1[C@@H]24	
InChI=1S/C9H12/c1-2-3-9-6-4-5(6)8(9)7(4)9/h4-8H,2-3H2,1H3	InChI=1S/C9H12/c1-2-3-9-6-4-5(6)8(9)7(4)9/h4-8H,2-3H2,1H3/t4-,5+,6-,7+,8-,9+
