19
gdb 93764	2.91836	1.32008	0.94021	5.5201	82.61	-0.2125	-0.0191	0.1934	1241.8718	0.160646	-419.242902	-419.234135	-419.233191	-419.276047	33.872	
C	-0.0617406933	 1.5459196567	-0.0376206453	-0.403528
C	 0.051099643	 0.0268671893	 0.0114425916	-0.072087
N	 0.7384472645	-0.4781031571	-1.1801512969	-0.311146
C	 0.8322861092	-1.9263329899	-1.2124574058	-0.251818
C	 1.5166680338	-2.4371044377	 0.0322270621	 0.384219
N	 2.0413074545	-3.6979199698	-0.0640796763	-0.560841
C	 1.5098499162	-1.7048892198	 1.1722016568	-0.286122
C	 0.7985503444	-0.4427920667	 1.2745978717	 0.410137
O	 0.741841115	 0.2050289	 2.3075599496	-0.372093
H	 0.9249963827	 1.9931014782	-0.1880939426	 0.125905
H	-0.7162541904	 1.8638809733	-0.8564679822	 0.096206
H	-0.4678064441	 1.9134131629	 0.9056248555	 0.143059
H	-0.9700081268	-0.40132518	 0.1037619255	 0.069816
H	 0.2601628114	-0.1496348169	-2.0123153381	 0.2204
H	-0.1481739995	-2.4402864749	-1.2869010734	 0.106262
H	 1.4092655115	-2.225886883	-2.0973480088	 0.102868
H	 2.3427209647	-4.0202730655	-0.969833256	 0.256792
H	 2.5966910539	-4.0335899843	 0.7075361367	 0.261919
H	 2.0052887194	-2.0577846046	 2.0721951658	 0.080054
76.2195	160.98	204.0732	219.7961	285.3932	336.5569	390.0733	393.5617	410.561	461.096	504.646	523.381	580.735	645.8246	697.1317	745.6604	820.6762	877.8203	880.2106	969.4438	1013.2556	1040.4243	1093.5266	1110.6462	1139.5291	1178.2117	1231.8438	1270.4566	1278.9269	1312.7427	1348.5046	1379.5647	1401.0907	1432.5794	1480.035	1483.8977	1498.0103	1506.7204	1642.9996	1685.4315	1751.021	2868.2742	2891.7169	3028.2877	3040.5779	3108.8486	3149.0648	3169.1689	3521.4921	3581.9399	3692.9081
CC1NCC(N)=CC1=O	C[C@H]1NCC(=CC1=O)N	
InChI=1S/C6H10N2O/c1-4-6(9)2-5(7)3-8-4/h2,4,8H,3,7H2,1H3	InChI=1S/C6H10N2O/c1-4-6(9)2-5(7)3-8-4/h2,4,8H,3,7H2,1H3/t4-/m1/s1
