19
gdb 46033	3.65638	1.04363	0.93368	3.1366	76.68	-0.2509	0.0267	0.2775	1290.8967	0.161488	-419.198554	-419.190396	-419.189452	-419.232095	30.66	
N	-0.4455098921	 0.8893168407	 0.7924186352	-0.542939
C	-0.193597058	-0.1893175768	 0.1884523691	 0.418338
C	-1.0724190451	-0.8547717099	-0.8494809035	-0.312782
C	-0.5437930676	-2.3015812021	-0.8952995949	-0.061879
C	 0.9309767468	-2.0805283606	-0.4998223989	-0.098166
O	 0.931549474	-0.945645937	 0.3798261292	-0.237578
C	-1.262817553	-3.2096741107	 0.080189325	 0.036645
C	-2.421002255	-4.02387715	-0.3578149598	-0.253955
N	-1.1356554102	-4.6716689519	-0.0278153125	-0.325775
H	 0.316671429	 1.129384234	 1.428954418	 0.222373
H	-2.1272791988	-0.7707918807	-0.5861983987	 0.140714
H	-0.9280385517	-0.3522938523	-1.8121659011	 0.130422
H	-0.614194395	-2.732019645	-1.9000335311	 0.07327
H	 1.3673597568	-2.9243068108	 0.0400659379	 0.130586
H	 1.5557033433	-1.8561873402	-1.3736308497	 0.108827
H	-1.2496876986	-2.8587230289	 1.1114667208	 0.108385
H	-3.2329833509	-4.2395083616	 0.3303280958	 0.125924
H	-2.7188788947	-3.9628233461	-1.4020490764	 0.111478
H	-0.6487102195	-4.91232685	-0.8892424845	 0.226112
71.2187	74.3869	139.2162	210.7593	309.0616	325.5022	421.8272	494.8218	523.7919	681.0151	739.8171	787.2255	842.2553	869.2242	892.7156	898.3942	911.6524	952.9426	973.7276	994.4645	995.7586	1047.2694	1094.9804	1109.5697	1133.5149	1153.1578	1167.8907	1208.5634	1242.4443	1255.936	1270.6698	1279.9599	1295.2774	1318.8127	1332.2658	1405.3746	1440.2802	1470.351	1512.4187	1521.9459	1780.4172	3023.4947	3047.3055	3060.1549	3103.7027	3106.5901	3117.3585	3130.9317	3192.7838	3471.0841	3480.7194
N=C1CC(CO1)C1CN1	[NH][C]1C[C@@H](CO1)[C@H]1CN1	
InChI=1S/C6H10N2O/c7-6-1-4(3-9-6)5-2-8-5/h4-5,7-8H,1-3H2	InChI=1S/C6H10N2O/c7-6-1-4(3-9-6)5-2-8-5/h4-5,7-8H,1-3H2/t4-,5+/m0/s1
