19
gdb 53018	4.65019	0.93153	0.88705	0.3692	90.24	-0.232	0.0459	0.2779	1395.3715	0.159436	-348.684232	-348.675899	-348.674955	-348.718386	31.595	
C	-0.0313636722	 1.4976677004	 0.0293879996	-0.514315
C	 0.0024087526	 0.043418078	-0.0144736132	 0.380908
C	 0.0303231199	-1.1615169812	-0.050497495	-0.421757
C	 0.0634938142	-2.5935160236	-0.0929807303	 0.270775
C	 1.1910266714	-3.4051260845	 0.627198696	-0.269711
C	 0.9371462695	-4.4916458823	-0.4108434199	-0.076526
C	-0.574424629	-4.5184380467	-0.6887369253	-0.07652
C	-1.2178839792	-3.4478245794	 0.1843397251	-0.269713
C	 0.3160371129	-3.5160697208	-1.3776512411	-0.123575
H	 0.7372623468	 1.8953406908	 0.7017080908	 0.146899
H	 0.1430915014	 1.9294901152	-0.9626934628	 0.147192
H	-1.001728709	 1.864599307	 0.382520327	 0.1469
H	 2.1652508016	-2.9318060938	 0.4837040701	 0.106232
H	 1.0363424846	-3.6267695688	 1.6894415571	 0.09005
H	 1.560265119	-5.344036868	-0.6475567669	 0.087045
H	-1.0430667123	-5.3901641712	-1.1261703035	 0.087046
H	-1.4435190439	-3.6707123561	 1.2335421295	 0.09005
H	-2.0930405331	-3.0073085845	-0.2991695958	 0.10623
H	 0.5029061249	-3.2874910207	-2.4164089912	 0.09279
26.2908	97.6152	103.1571	288.0944	290.2798	409.1036	422.4216	438.4435	522.0888	523.7701	721.2739	734.3899	787.656	799.0638	884.8068	902.1121	915.1493	963.6542	984.3827	993.8448	1011.4526	1025.2418	1046.6826	1053.9911	1054.0626	1083.823	1096.7991	1151.4255	1153.8505	1165.5226	1244.0702	1250.3474	1294.1424	1347.9709	1361.7886	1415.3333	1477.8974	1478.6021	1491.4578	1508.7549	2362.8904	3023.6718	3030.6056	3038.3249	3083.3551	3083.7064	3104.9082	3107.722	3195.9575	3202.7984	3229.4541
CC#CC12CC3C(C1)C23	CC#C[C@@]12C[C@H]3[C@@H](C1)[C@@H]23	
InChI=1S/C9H10/c1-2-3-9-4-6-7(5-9)8(6)9/h6-8H,4-5H2,1H3	InChI=1S/C9H10/c1-2-3-9-4-6-7(5-9)8(6)9/h6-8H,4-5H2,1H3/t6-,7+,8-,9+
