18
gdb 70255	3.86612	1.09028	0.95408	3.658	75.95	-0.275	0.0343	0.3093	1239.7173	0.148191	-401.972483	-401.964265	-401.963321	-402.005225	31.294	
C	-0.0185765271	 1.5028064209	-0.0079614643	-0.484696
C	-0.0805224136	 0.0047489726	 0.096871995	 0.408095
C	-1.3184907991	-0.748874563	-0.3648484355	-0.292083
C	-1.0599879092	-2.2111361028	 0.1028862225	-0.148419
C	-0.1672912034	-2.0829922596	 1.3742561025	-0.25794
C	 0.5984539688	-0.8023921057	 1.1211668548	-0.016116
O	 1.1331624871	-0.71220286	-0.2091928954	-0.295515
C	-2.281020198	-2.9755991904	 0.3242495493	 0.261734
N	-3.2533094131	-3.5735510464	 0.5075542337	-0.325407
H	 0.9232174326	 1.8767285766	 0.4005605775	 0.135268
H	-0.0857808993	 1.8204955134	-1.0539955719	 0.133062
H	-0.8477702949	 1.96575163	 0.5371413837	 0.127422
H	-2.2048707692	-0.3329898656	 0.1263342377	 0.125938
H	-1.4773302436	-0.691331122	-1.4453067436	 0.125892
H	-0.4776642484	-2.7176274389	-0.6704692952	 0.145016
H	-0.7792355673	-1.9750956466	 2.2763069151	 0.127759
H	 0.4756575804	-2.9571133686	 1.5061708164	 0.129557
H	 1.2118633575	-0.3633146439	 1.9041957776	 0.100434
93.4898	150.7301	185.1647	229.7629	280.6599	309.7906	383.3662	414.4886	525.3371	549.7162	570.4962	633.2255	711.5801	830.8335	856.5761	901.0821	912.1069	950.4577	988.0977	1031.055	1038.1769	1062.1983	1090.5879	1119.6015	1176.2171	1226.2267	1237.2941	1289.7719	1296.2817	1314.9733	1325.4536	1358.4885	1414.142	1457.2031	1479.7716	1484.8476	1490.5317	1503.3528	2357.8229	3037.9694	3053.2494	3055.8945	3082.9702	3100.0813	3103.482	3109.4984	3126.7687	3147.2394
CC12CC(CC1O2)C#N	C[C@]12C[C@@H](C[C@H]1O2)C#N	
InChI=1S/C7H9NO/c1-7-3-5(4-8)2-6(7)9-7/h5-6H,2-3H2,1H3	InChI=1S/C7H9NO/c1-7-3-5(4-8)2-6(7)9-7/h5-6H,2-3H2,1H3/t5-,6-,7+/m1/s1
