13
gdb 11487	5.72141	1.06025	0.96162	4.111	59.81	-0.2871	-0.0917	0.1954	1141.9377	0.093421	-398.588956	-398.58104	-398.580096	-398.622686	26.619	
O	-0.0628105097	-0.0752572125	 0.2673685367	-0.254641
C	 0.0149957645	 1.1085917668	 0.0683660282	 0.29909
C	 1.2872534629	 1.8583417046	-0.2737030463	-0.345024
C	 2.5230012402	 0.9995483355	-0.1602383143	 0.092919
C	 3.8401212854	 1.6005320345	 0.0783647983	-0.185016
O	 3.1289190904	 0.9442875266	 1.1290086196	-0.224311
C	-1.197879049	 1.9572966741	 0.1216276356	 0.229326
N	-2.1332635143	 2.6361641506	 0.1556845789	-0.290007
H	 1.1674528478	 2.2481076537	-1.2954479331	 0.156079
H	 1.366145298	 2.736193478	 0.3784965831	 0.15704
H	 2.4707343979	 0.0407143334	-0.6731044692	 0.119366
H	 4.7350114404	 1.0906124077	-0.2737508055	 0.126514
H	 3.9303553054	 2.6816078869	 0.178296598	 0.118666
40.9484	67.6117	123.6271	206.7044	267.4682	357.95	368.86	482.2784	577.2132	609.2473	800.4649	825.0665	867.1503	944.9444	965.9835	1055.4553	1097.7699	1122.9078	1161.6821	1166.0005	1230.2669	1296.719	1335.3563	1419.8171	1451.7596	1532.7745	1806.6912	2337.5087	3018.8887	3073.2875	3086.3336	3133.5457	3174.7447
O=C(CC1CO1)C#N	O=C(C[C@H]1CO1)C#N	
InChI=1S/C5H5NO2/c6-2-4(7)1-5-3-8-5/h5H,1,3H2	InChI=1S/C5H5NO2/c6-2-4(7)1-5-3-8-5/h5H,1,3H2/t5-/m0/s1
