21
gdb 63462	2.82088	1.2073	1.07556	1.305	79.75	-0.238	0.0825	0.3205	1241.6976	0.180016	-424.19399	-424.184327	-424.183383	-424.227928	37.004	
C	-0.0346405378	 1.4984810971	 0.0903802165	-0.450883
C	-0.0177138129	-0.0168291246	 0.0153456563	 0.261373
C	-1.2583668163	-0.6088500547	-0.6293782382	-0.4583
C	 1.3168665741	-0.6995653351	-0.2383593679	-0.379893
C	 0.709952808	-0.7639416041	 1.133991419	 0.365219
O	 1.3726670075	-0.0055052811	 2.1091505191	-0.467457
C	 0.1850047453	-2.0532905348	 1.6901818476	 0.008947
C	 0.8566273556	-2.7292453797	 2.8059984386	-0.187098
O	-0.3285783217	-1.9477931927	 3.0297141083	-0.257529
H	 0.8313739795	 1.8801030038	 0.6329748306	 0.133478
H	-0.037268151	 1.933210531	-0.9158710191	 0.111205
H	-0.9364193389	 1.8526900937	 0.6042509696	 0.110964
H	-1.4106636358	-0.1694180211	-1.6223474115	 0.117115
H	-1.1905893075	-1.6913447415	-0.7669147823	 0.112349
H	-2.1561189183	-0.4005036804	-0.035714376	 0.120735
H	 1.3315226609	-1.6017431112	-0.8425141777	 0.107273
H	 2.2014271317	-0.0784963019	-0.3342072672	 0.122543
H	 0.7790167508	 0.0109345176	 2.8726371006	 0.290297
H	-0.4306603354	-2.6550719581	 1.025705471	 0.095507
H	 0.7311982999	-3.802294204	 2.9388792063	 0.116264
H	 1.771548322	-2.3012772384	 3.2070600064	 0.12789
86.4572	134.6532	169.7549	193.7608	224.8776	266.0028	302.5221	331.0354	368.0305	388.7426	441.4247	476.4771	525.532	555.2008	712.3813	741.7384	836.348	872.7003	913.8577	916.9452	941.3256	972.8713	989.3341	1018.7904	1039.5861	1065.4765	1099.6196	1142.4801	1152.7755	1163.1027	1168.7562	1239.5372	1289.5325	1314.3633	1325.0279	1380.0939	1407.8992	1419.9685	1452.2804	1482.4001	1489.0319	1490.4875	1505.4615	1511.6167	1521.3951	3022.5493	3027.485	3077.9773	3081.2137	3098.1002	3105.1801	3122.1396	3138.529	3143.3258	3195.18	3211.4484	3753.1129
CC1(C)CC1(O)C1CO1	CC1(C)C[C@]1(O)[C@H]1CO1	
InChI=1S/C7H12O2/c1-6(2)4-7(6,8)5-3-9-5/h5,8H,3-4H2,1-2H3	InChI=1S/C7H12O2/c1-6(2)4-7(6,8)5-3-9-5/h5,8H,3-4H2,1-2H3/t5-,7+/m1/s1
