18
gdb 109369	2.54418	1.41015	0.93847	1.8645	77.43	-0.2432	-0.0242	0.219	1224.288	0.148712	-439.103906	-439.095329	-439.094385	-439.137326	31.856	
O	 0.0097230388	 1.4070682281	-0.0633085993	-0.425117
C	-0.0068060493	-0.0107474773	-0.0657190354	-0.160551
C	-1.432429783	-0.4907606753	-0.0058982043	 0.212754
C	-2.4800633963	 0.3330505753	 0.1062406421	-0.157331
C	-3.8827311248	-0.1995093208	 0.1570468438	-0.274851
C	-3.9270227827	-1.5624675302	-0.5196813841	-0.085249
O	-2.9000459284	-2.4350632881	-0.0308296101	-0.25596
C	-1.6229853584	-1.9540975559	-0.0055007767	 0.339108
N	-0.6248010548	-2.7387286793	 0.0798107086	-0.530687
H	 0.9274958282	 1.6892546231	-0.033258741	 0.291629
H	 0.4705409934	-0.4222616311	-0.9679608248	 0.112153
H	 0.5445703739	-0.4291898556	 0.7886206806	 0.120075
H	-2.3108896771	 1.401620051	 0.1728229995	 0.12524
H	-4.2273331994	-0.2733458366	 1.198394489	 0.125695
H	-4.5780289758	 0.4789063113	-0.3508195104	 0.115617
H	-4.8655128393	-2.0888003135	-0.3322266959	 0.11728
H	-3.8062024732	-1.4433747657	-1.6050056797	 0.110985
H	-0.9436352718	-3.7094826895	 0.0806218079	 0.219209
85.1647	112.9586	188.6834	210.5782	220.9911	298.4331	345.2915	362.9804	488.1903	508.6541	544.373	665.4398	735.0064	762.4201	872.4977	902.7992	908.5599	929.3502	967.985	1048.8334	1071.1525	1078.8429	1087.6371	1133.5652	1168.5099	1219.6868	1232.0181	1247.1593	1275.0889	1310.7271	1365.6268	1391.8451	1438.1343	1463.8055	1468.487	1500.7588	1507.6905	1699.9842	1731.6787	2990.4705	3008.6237	3016.4209	3018.5501	3062.926	3106.1885	3204.3896	3469.9591	3847.9585
OCC1=CCCOC1=N	OCC1=C(OCC[CH]1)[NH]	
InChI=1S/C6H9NO2/c7-6-5(4-8)2-1-3-9-6/h2,7-8H,1,3-4H2	InChI=1S/C6H9NO2/c7-6-5(4-8)2-1-3-9-6/h2,7-8H,1,3-4H2
