20
gdb 105990	2.73393	1.58876	1.21799	1.6974	82.08	-0.2061	0.0742	0.2803	1109.2537	0.1695	-365.906306	-365.897765	-365.89682	-365.93935	32.968	
C	 0.2033211082	 1.4829729094	-0.1197352534	-0.377003
C	-0.112825355	-0.0021283902	 0.1030862641	-0.329725
C	 0.5365473491	-0.5548500734	 1.3290794679	 0.32635
C	 0.4824644691	-0.1426249413	 2.8285258872	-0.172752
C	 1.9577703477	-0.4269217842	 2.8979608005	-0.008386
C	 0.9937475057	-1.539351009	 3.2080164101	-0.167982
C	 1.0358895466	-1.9122325924	 1.6998478585	 0.286084
C	 1.0603243082	-3.2197031929	 0.9852165788	-0.525608
N	 2.0307825657	-0.8030402137	 1.4217573294	-0.264259
H	 1.2832564467	 1.63350523	-0.2044502195	 0.13589
H	-0.2704301166	 1.8525868045	-1.0339206793	 0.110514
H	-0.1571219312	 2.094168591	 0.7145038751	 0.11539
H	-1.1989341071	-0.1515383025	 0.1705177621	 0.100636
H	 0.2301802567	-0.5877968932	-0.7585798465	 0.108432
H	-0.1434532376	 0.5294129568	 3.3988179925	 0.09272
H	 2.7652749884	 0.0220377388	 3.4629449166	 0.095519
H	 0.8212668558	-2.1053784903	 4.1127471167	 0.093105
H	 0.1223572746	-3.7682738263	 1.128198833	 0.120904
H	 1.206550068	-3.0620009361	-0.0877455687	 0.132405
H	 1.8817684169	-3.848572835	 1.3470458751	 0.127766
79.2429	129.345	186.2475	203.7956	233.7488	278.6971	321.8506	409.41	574.735	634.4586	691.3723	734.8233	752.4437	781.8017	798.623	815.2617	860.2157	875.5585	917.3666	963.4621	983.0997	996.9116	1004.217	1027.7634	1037.2885	1086.3216	1094.5564	1136.1315	1161.6317	1185.2027	1239.5489	1303.2843	1319.7251	1342.4314	1356.6301	1403.6217	1406.9701	1463.0987	1469.2043	1479.9153	1493.2974	1496.5248	1509.2762	3016.4571	3025.6257	3037.7621	3056.61	3087.3192	3104.8699	3107.2934	3119.1369	3183.0952	3205.8097	3218.6446
CCC12C3C4C3C1(C)N24	CC[C@@]12[C@@H]3[C@H]4[C@@H]3[C@]1(C)N24	
InChI=1S/C8H11N/c1-3-8-5-4-6(5)9(8)7(4,8)2/h4-6H,3H2,1-2H3	InChI=1S/C8H11N/c1-3-8-5-4-6(5)9(8)7(4,8)2/h4-6H,3H2,1-2H3/t4-,5+,6-,7+,8-,9?/m1/s1
