15
gdb 62340	4.0095	1.13626	1.0843	3.7273	72.96	-0.2666	-0.0207	0.2458	1121.4055	0.110188	-420.587254	-420.579065	-420.578121	-420.61986	30.873	
C	 0.0173362173	 1.5359119719	 0.0580784264	-0.475098
C	 0.0512411846	 0.016586881	 0.036632542	 0.086372
C	-1.1230584145	-0.616682719	-0.510218388	 0.248532
C	-2.1025354288	-1.1367266231	-0.9748768843	-0.40359
C	 1.3180640087	-0.7677313758	-0.1714424462	 0.057991
O	 2.4538661306	-0.0338807057	 0.3445703066	-0.263505
C	 1.9462046831	-0.1506004431	 1.6415137292	 0.457702
O	 2.4688057459	 0.1850516951	 2.6510860243	-0.315136
C	 0.6827054656	-0.834138511	 1.1891886716	-0.313441
H	 0.9717911127	 1.9477483996	 0.3888712349	 0.154356
H	-0.1909845415	 1.914254348	-0.9466629794	 0.137965
H	-0.772900132	 1.8887155784	 0.7257817423	 0.139478
H	-2.969248467	-1.5910069213	-1.3884031263	 0.203543
H	 1.5049494548	-1.5226143797	-0.9214283534	 0.143019
H	 0.1287318806	-1.6065818555	 1.7002148005	 0.141812
120.7215	133.3193	167.6766	191.874	274.3467	338.6043	440.807	462.3991	519.9624	559.2744	619.8439	643.0952	664.9964	722.1265	783.2213	836.8036	862.1104	909.0227	959.103	979.4904	1009.2077	1065.2406	1085.8492	1111.0133	1164.0551	1242.3733	1266.7495	1354.793	1415.9064	1484.3793	1498.6136	1947.5466	2235.9367	3053.9359	3121.6361	3147.0249	3228.986	3245.1913	3499.809
CC1(C#C)C2OC(=O)C12	C[C@@]1(C#C)[C@H]2OC(=O)[C@@H]12	
InChI=1S/C7H6O2/c1-3-7(2)4-5(7)9-6(4)8/h1,4-5H,2H3	InChI=1S/C7H6O2/c1-3-7(2)4-5(7)9-6(4)8/h1,4-5H,2H3/t4-,5-,7-/m0/s1
