18
gdb 77815	2.38733	1.53369	1.32035	3.8861	73.52	-0.2511	0.024	0.2751	1055.7833	0.14783	-439.089502	-439.081087	-439.080143	-439.12214	32.3	
C	-0.0967835739	 1.516696377	-0.062809946	-0.426918
C	 0.0755204963	 0.015587659	 0.0228629588	-0.092063
C	 1.4045462011	-0.7129062682	-0.2154099841	-0.19872
C	 2.6465168429	 0.087669243	-0.0832562888	 0.428555
N	 3.5359805589	 0.2396389748	-0.9662251547	-0.550252
O	 2.6959247896	 0.6555733854	 1.1706995442	-0.248722
C	 1.6971839643	 0.0916868886	 2.0337261433	-0.159766
C	 0.7533631791	-0.7111694056	 1.1458403969	 0.3454
O	 0.2161667188	-1.8750463472	 1.6874739432	-0.462055
H	 0.7575027579	 2.0551426395	 0.3542028221	 0.142134
H	-0.2074060369	 1.830125405	-1.1056085789	 0.133602
H	-0.9946321345	 1.8358562023	 0.4779385067	 0.116079
H	-0.752081656	-0.5563640556	-0.3912160002	 0.100337
H	 1.4149724842	-1.5774063638	-0.8640010709	 0.123712
H	 4.3074975585	 0.8007113608	-0.600731819	 0.221214
H	 2.1706080268	-0.5836742581	 2.7554835394	 0.125887
H	 1.2175020599	 0.9141543347	 2.5751069445	 0.111811
H	-0.636125617	-1.6611030517	 2.0814909036	 0.289764
116.6622	185.4833	200.3288	215.5557	230.8529	281.1395	342.4752	426.4409	470.2958	489.8567	571.5397	656.3476	688.2281	763.362	791.7191	876.5086	891.2575	941.7131	958.1906	1005.0348	1019.518	1057.5328	1070.2048	1104.0665	1131.4651	1134.2465	1202.0187	1238.58	1253.1189	1306.6828	1326.4174	1346.5326	1385.6629	1425.1123	1467.0389	1499.3317	1504.934	1520.7563	1777.901	3034.6001	3038.3167	3079.6787	3097.3648	3122.4933	3141.0335	3223.7897	3472.2337	3806.2722
CC1C2C(=N)OCC12O	C[C@H]1[C@H]2[C]([NH])OC[C@@]12O	
InChI=1S/C6H9NO2/c1-3-4-5(7)9-2-6(3,4)8/h3-4,7-8H,2H2,1H3	InChI=1S/C6H9NO2/c1-3-4-5(7)9-2-6(3,4)8/h3-4,7-8H,2H2,1H3/t3-,4-,6+/m0/s1
