17
gdb 26433	4.11908	0.99902	0.9384	3.6768	77.22	-0.2167	0.0202	0.2368	1275.7597	0.137024	-418.06465	-418.055993	-418.055049	-418.099234	31.015	
C	-1.0454716476	 1.0513186008	 0.1868514588	-0.359727
N	-0.0882541432	-0.0425584926	 0.0292416688	-0.153168
C	 0.7613360304	-0.3586768348	 1.0643387585	 0.130577
O	 0.7699755613	 0.1802224124	 2.1482388612	-0.330797
C	 0.0507557264	-0.6724649012	-1.218132879	 0.305157
C	 1.0101517598	-0.5459481947	-2.1978361764	-0.197709
C	 0.6528441114	-1.4231287547	-3.2581977867	-0.134671
C	-0.5163438302	-2.0525609389	-2.8982077396	-0.086556
N	-0.8766920097	-1.5937841261	-1.6586433064	-0.274118
H	-0.8108126597	 1.8696462174	-0.5015173279	 0.135379
H	-2.0660764513	 0.7098817682	-0.0142431034	 0.120146
H	-0.9752122701	 1.4036682528	 1.2161580417	 0.167988
H	 1.4450564329	-1.1792539529	 0.7796486724	 0.085695
H	 1.8625181592	 0.1139504338	-2.1525448355	 0.102724
H	 1.1905630349	-1.5708183231	-4.1817177923	 0.100773
H	-1.1171560428	-2.7822696064	-3.4165397416	 0.122635
H	-1.6666430916	-1.9065896199	-1.1208506526	 0.265674
31.6559	93.1353	120.0128	128.0426	299.6052	324.1523	396.5096	431.7629	461.0741	491.4189	633.6858	691.6112	728.9806	804.8469	811.4823	864.8543	890.4802	936.6306	1019.3451	1036.1742	1054.1417	1109.0077	1136.2338	1155.7798	1169.0589	1269.1916	1305.4299	1360.1617	1421.3459	1432.9582	1442.9891	1453.5137	1495.227	1501.5972	1511.2701	1622.2513	1798.3646	2970.9589	3034.9174	3092.6757	3157.4014	3247.0495	3258.7713	3273.6113	3677.2414
CN(C=O)C1=CC=CN1	CN(C=O)c1ccc[nH]1	
InChI=1S/C6H8N2O/c1-8(5-9)6-3-2-4-7-6/h2-5,7H,1H3	InChI=1S/C6H8N2O/c1-8(5-9)6-3-2-4-7-6/h2-5,7H,1H3
