17
gdb 23458	3.25562	1.33305	1.02639	1.7522	80.93	-0.2193	-0.0282	0.1911	1145.0099	0.137959	-417.959369	-417.951801	-417.950857	-417.991378	29.831	
O	-0.0316431454	 1.3215802213	-0.2822147393	-0.392772
N	 0.0175604405	-0.0775520935	-0.2382071933	-0.228123
C	-1.1133165541	-0.5966471536	 0.0892891276	 0.41167
C	-2.3475867325	 0.1245472071	 0.3782120411	-0.131828
C	-3.4004210296	-0.4714482271	 0.9517842963	-0.057568
C	-3.4386603352	-1.9079310487	 1.39127235	-0.277155
C	-2.2892179418	-2.7408127898	 0.8598934703	-0.034467
N	-2.1600762788	-2.7808812081	-0.6017546155	-0.334603
C	-1.1283767115	-2.0778131238	 0.2013911414	-0.131374
H	 0.8612720262	 1.5449791672	-0.5638544502	 0.307173
H	-2.3756614175	 1.1758772345	 0.1223879306	 0.115547
H	-4.296433046	 0.1124598389	 1.1476273746	 0.09938
H	-3.4352051938	-1.9431755546	 2.4907338071	 0.117514
H	-4.3909005725	-2.3624011614	 1.0849096645	 0.120317
H	-2.0873260585	-3.657076075	 1.4103771182	 0.08722
H	-1.7913699213	-3.6813603496	-0.8966064839	 0.234796
H	-0.1461780181	-2.5328969436	 0.2786563503	 0.094273
89.0623	195.5772	244.3082	310.7991	341.4229	394.1661	431.4022	439.1865	537.3934	598.1497	647.6323	764.2655	775.3199	814.8191	870.5029	885.8242	915.7199	920.4168	986.3554	1002.1023	1016.7543	1024.291	1093.2113	1159.9908	1164.5161	1212.0011	1231.362	1262.5703	1303.7095	1356.9241	1380.5768	1411.48	1434.7945	1459.6064	1463.9669	1678.7146	1703.988	3002.7073	3030.5101	3127.7868	3158.0542	3165.6652	3219.9064	3503.8297	3825.8543
ON=C1C=CCC2NC12	ON=C1C=CC[C@H]2N[C@@H]12	
InChI=1S/C6H8N2O/c9-8-5-3-1-2-4-6(5)7-4/h1,3-4,6-7,9H,2H2	InChI=1S/C6H8N2O/c9-8-5-3-1-2-4-6(5)7-4/h1,3-4,6-7,9H,2H2/t4-,6-/m1/s1
