21
gdb 30659	3.00692	1.14223	1.03596	1.8052	86.2	-0.1722	0.0553	0.2275	1282.7763	0.183369	-383.294678	-383.28525	-383.284306	-383.329421	35.326	
C	-0.0429781078	 0.6898121188	-0.5781896829	-0.382168
C	-0.1374369247	-0.5522105374	 0.3187656026	-0.160866
N	 0.6848762666	-0.5201856047	 1.5372670868	-0.156066
C	 0.273969944	 0.4753256	 2.5143063937	-0.331822
C	 2.0712016495	-0.6111775792	 1.3441092539	 0.355701
C	 3.1119648248	 0.2531207146	 1.6188619882	-0.232465
C	 4.3243130622	-0.4118619157	 1.2647962511	-0.14269
C	 3.9932546669	-1.6507311589	 0.7796974468	-0.097259
N	 2.6203649667	-1.7651412928	 0.8307584674	-0.301565
H	 0.994678131	 0.8755943784	-0.8713755077	 0.135116
H	-0.6368771629	 0.5470860345	-1.4867794558	 0.112129
H	-0.4189773961	 1.5844387162	-0.0728633569	 0.118562
H	-1.1761699276	-0.7134982795	 0.6309971172	 0.099117
H	 0.1529289676	-1.435349114	-0.2601229431	 0.094907
H	 0.8171776888	 0.3089525358	 3.4479623666	 0.131373
H	 0.45235239	 1.5171350674	 2.2006379846	 0.107104
H	-0.7975526636	 0.3628381531	 2.7093867637	 0.114953
H	 3.0149368788	 1.2516344332	 2.0144144419	 0.083992
H	 5.3234056344	-0.0121396536	 1.3478851816	 0.087505
H	 4.6015990522	-2.4534770778	 0.3961767515	 0.109607
H	 2.096110659	-2.6034618885	 0.6520817589	 0.254835
38.435	80.0794	151.0087	194.8111	230.4762	252.4785	298.1328	362.1824	445.6543	466.1501	503.8824	600.8705	625.7154	669.3949	714.7649	775.1543	795.5401	837.1077	862.2855	894.1794	960.5678	1011.4114	1051.4615	1074.5675	1099.8448	1110.7027	1140.6441	1156.8884	1199.114	1225.2599	1285.6747	1290.3023	1371.5407	1386.4532	1402.7445	1426.1166	1449.4508	1462.7977	1482.4348	1483.5958	1491.8215	1506.4667	1513.6207	1528.4383	1615.3924	2965.5614	3031.3086	3039.2383	3062.0804	3069.1505	3108.2277	3114.7922	3118.1741	3241.8262	3257.4054	3272.7359	3683.6611
CCN(C)C1=CC=CN1	CCN(C)c1ccc[nH]1	
InChI=1S/C7H12N2/c1-3-9(2)7-5-4-6-8-7/h4-6,8H,3H2,1-2H3	InChI=1S/C7H12N2/c1-3-9(2)7-5-4-6-8-7/h4-6,8H,3H2,1-2H3
