18
gdb 73221	2.21583	1.89558	1.40264	2.7124	71.3	-0.243	0.0259	0.269	991.1035	0.149124	-439.116951	-439.108929	-439.107985	-439.149466	30.418	
C	-0.1445585652	 1.5230763688	-0.0486666789	-0.482648
C	 0.0016696742	 0.0146944689	 0.0113013368	 0.137327
C	-1.2025209669	-0.83535105	 0.4849159475	-0.109042
O	-0.3658741283	-1.5717252336	 1.4046851415	-0.294797
C	 0.7597558893	-0.7067915698	 1.1502158035	 0.08779
C	 1.9415423122	-1.4535010189	 0.5182612072	-0.189869
N	 1.6348807407	-1.3999122579	-0.9006404626	-0.316373
C	 0.6194294283	-0.5624751267	-1.2698206607	 0.381201
O	 0.2646315324	-0.3230869908	-2.4046020949	-0.394207
H	 0.8302577149	 2.0146884255	-0.1346636319	 0.123095
H	-0.7312407092	 1.7994161762	-0.9297294521	 0.148891
H	-0.644277839	 1.9092669145	 0.8448853006	 0.11674
H	-1.971454391	-0.2545680906	 1.0110357588	 0.10182
H	-1.6805151477	-1.4823112055	-0.2582790168	 0.121582
H	 1.0413964163	-0.1321274622	 2.0387223641	 0.079844
H	 2.8978560246	-0.9638192518	 0.7474483638	 0.107267
H	 1.977788642	-2.4814631914	 0.8949396989	 0.127986
H	 2.1796103523	-1.8718696046	-1.6049907049	 0.253394
88.6048	160.8045	210.311	222.3167	257.6516	285.8963	386.6352	489.5034	523.4747	596.5086	650.8867	735.0563	762.4256	802.4597	865.5493	898.3984	933.4698	999.3514	1007.9774	1012.7753	1072.874	1083.4317	1147.0846	1176.9254	1182.9126	1211.3344	1232.7707	1272.3955	1299.2265	1317.5186	1361.3461	1384.9355	1412.0331	1448.617	1490.3564	1496.4016	1516.9257	1526.5822	1820.8871	3007.741	3011.7743	3035.9762	3053.9845	3068.2607	3073.3571	3103.4486	3117.5148	3640.9998
CC12COC1CNC2=O	C[C@]12CO[C@H]1CNC2=O	
InChI=1S/C6H9NO2/c1-6-3-9-4(6)2-7-5(6)8/h4H,2-3H2,1H3,(H,7,8)	InChI=1S/C6H9NO2/c1-6-3-9-4(6)2-7-5(6)8/h4H,2-3H2,1H3,(H,7,8)/t4-,6-/m0/s1
