25
gdb 83535	2.55129	1.54166	1.23999	0.0979	92.05	-0.2734	0.0832	0.3566	1174.9405	0.230208	-352.354334	-352.345154	-352.34421	-352.387303	37.272	
C	-0.2406735302	 1.5874370051	 0.7951401506	-0.443825
C	-0.0444486493	 0.1035648466	 0.5096528928	 0.050561
C	 0.9802936474	-0.4104358697	-0.5540734657	-0.062175
C	 2.2925102884	 0.2316640075	-0.0571052178	-0.225756
C	 2.1548999494	-0.0810964929	 1.4728694226	-0.225804
C	 0.8002936409	-0.819680738	 1.4477159014	-0.062176
C	 0.958803173	-1.78781314	 0.2131912637	 0.361448
C	-0.2578625802	-2.6804359625	-0.0787169392	-0.462848
C	 2.1913582838	-2.6971792516	 0.1379189003	-0.467879
H	 0.6896450298	 2.1256800669	 0.9900113958	 0.11619
H	-0.731296724	 2.0777286466	-0.0536116921	 0.112108
H	-0.8883709358	 1.7257040343	 1.6685419335	 0.112093
H	-1.027858036	-0.3293158773	 0.3328022101	 0.066028
H	 0.7709377866	-0.3550212961	-1.6250054975	 0.0451
H	 3.1808546986	-0.2166129838	-0.5080417895	 0.093665
H	 2.3321992436	 1.3037394253	-0.2672553878	 0.092648
H	 2.9680452133	-0.7002843605	 1.8586761192	 0.09367
H	 2.1203553821	 0.822409548	 2.0873306647	 0.092645
H	 0.4087127969	-1.1784561551	 2.4025630648	 0.045106
H	-1.2188076289	-2.1655370694	-0.0623129637	 0.115027
H	-0.1545798102	-3.1451241188	-1.0662288847	 0.110634
H	-0.3118185027	-3.4937222619	 0.6543877231	 0.110662
H	 2.1046110327	-3.5128951025	 0.8652968205	 0.10961
H	 2.2613094493	-3.1579804344	-0.8544390786	 0.109648
H	 3.1378229515	-2.1911656459	 0.3286254933	 0.11362
123.2828	162.1671	179.7384	219.8458	246.5224	268.117	334.5691	376.5241	408.1897	436.5218	495.7615	531.7742	649.3956	688.	743.8368	776.9669	852.0731	852.0974	902.072	933.8692	936.2327	953.6496	972.6612	990.5636	992.9859	1023.7885	1046.8954	1059.781	1096.7289	1122.7517	1147.6071	1190.353	1191.1273	1197.1814	1233.3288	1246.5739	1255.0346	1268.4415	1294.2639	1314.0574	1341.5056	1392.8085	1409.4654	1414.5147	1433.0116	1479.1065	1487.0291	1491.7161	1494.9193	1505.8385	1509.4261	1523.3344	1529.046	3025.6664	3030.015	3032.3058	3060.5884	3066.1703	3077.2019	3082.3669	3084.0061	3084.5423	3086.1471	3091.5277	3101.2081	3106.012	3119.5443	3137.1023	3138.2889
CC1C2CCC1C2(C)C	C[C@H]1[C@H]2CC[C@@H]1C2(C)C	
InChI=1S/C9H16/c1-6-7-4-5-8(6)9(7,2)3/h6-8H,4-5H2,1-3H3	InChI=1S/C9H16/c1-6-7-4-5-8(6)9(7,2)3/h6-8H,4-5H2,1-3H3/t6-,7+,8-
