19
gdb 111198	2.68408	1.19827	0.9686	1.161	76.42	-0.2419	-0.0382	0.2037	1276.0595	0.15734	-422.960781	-422.952028	-422.951084	-422.994813	32.233	
C	 0.0748115627	 1.4756927953	 0.0320116947	-0.380321
C	-0.0278717428	-0.0364444799	 0.2651630728	-0.220623
C	-1.4471967603	-0.5543549404	 0.1028482338	 0.030773
C	-1.9986165074	-0.8092605917	-1.3288713103	 0.014046
O	-1.0878880782	-1.9584927863	-1.4689620686	-0.309
C	-1.6816332741	-2.0781161645	-0.1081044558	 0.011735
C	-3.0667608808	-1.8056618443	-0.7439431146	-0.074587
C	-4.2597038905	-1.3324596891	 0.0361127819	 0.120497
O	-4.2894810923	-1.1329396616	 1.2260890392	-0.249354
H	 1.1001881888	 1.8276228486	 0.1793569557	 0.116572
H	-0.2229478802	 1.7428463204	-0.987894044	 0.114352
H	-0.5705027671	 2.0312970787	 0.7214918635	 0.116566
H	 0.6298414306	-0.5727989035	-0.4242922122	 0.118356
H	 0.3131645838	-0.2709274287	 1.2816840343	 0.098887
H	-2.1436297811	-0.0794745661	 0.7968377714	 0.102087
H	-2.1030460198	-0.1398903979	-2.1836788077	 0.100416
H	-1.3705086643	-2.9244426713	 0.5041604913	 0.102946
H	-3.3578008412	-2.5446130394	-1.4958923778	 0.103718
H	-5.1691702758	-1.1742282784	-0.5884404078	 0.082937
68.3322	97.5253	145.0867	163.3438	217.5245	276.9314	313.8662	386.9223	465.2299	611.5079	699.7308	734.6963	758.3436	789.4391	850.1606	874.5306	882.2155	928.2105	961.5682	1014.7596	1018.9689	1062.3907	1073.6633	1099.2751	1132.5587	1141.7596	1166.0015	1188.2746	1198.0069	1242.038	1270.3796	1291.0176	1349.8776	1366.9477	1410.6486	1426.4575	1431.9792	1489.9551	1500.7958	1506.219	1815.0965	2865.3384	3028.4354	3031.5286	3082.4574	3082.874	3097.614	3105.1721	3110.8885	3112.6948	3124.8332
CCC1C2OC1C2C=O	CC[C@H]1[C@H]2O[C@@H]1[C@H]2C=O	
InChI=1S/C7H10O2/c1-2-4-6-5(3-8)7(4)9-6/h3-7H,2H2,1H3	InChI=1S/C7H10O2/c1-2-4-6-5(3-8)7(4)9-6/h3-7H,2H2,1H3/t4-,5-,6+,7-
