19
gdb 60798	2.19289	1.22443	1.09146	2.6949	72.3	-0.2464	-0.044	0.2024	1220.3112	0.153704	-460.179178	-460.168428	-460.167484	-460.215439	37.781	
C	 0.0559712205	 1.4649388091	-0.073723936	-0.456461
C	-0.0541201496	-0.0725553351	-0.0611423631	-0.069194
C	 0.8028846414	-0.6073347488	 1.0730493075	 0.147591
O	 1.8092728558	-1.2517883122	 0.9264731791	-0.252424
C	-1.515470164	-0.5687007203	 0.0796609236	 0.221369
C	-1.5958060849	-2.0930249422	 0.2407421158	-0.420245
O	-2.174630151	-0.0268419409	 1.2233955483	-0.461873
C	-2.3461624079	-0.2160234396	-1.1619241453	 0.126759
O	-1.9078948906	 0.0512354218	-2.2491452245	-0.249299
H	 1.0915632941	 1.7684878252	-0.248858621	 0.143288
H	-0.55591012	 1.8935961677	-0.8710719053	 0.14663
H	-0.249522848	 1.9029145821	 0.8840355716	 0.116915
H	 0.3443644057	-0.4683235589	-0.9987947948	 0.116151
H	 0.4369566227	-0.3325730506	 2.0882469235	 0.085957
H	-1.1578945261	-2.3879254233	 1.1982960025	 0.145154
H	-2.6389109881	-2.4221007922	 0.2346504499	 0.130984
H	-1.0572518717	-2.5964760147	-0.5657345386	 0.143879
H	-2.1841685776	 0.9337971623	 1.1494339652	 0.289672
H	-3.4407357006	-0.2389505395	-0.9516816884	 0.095146
49.3378	65.6219	87.8824	173.3141	204.7734	221.3407	250.0989	267.9045	314.8159	334.7214	359.8633	381.7493	432.3868	435.1468	562.076	623.4394	760.2082	900.4275	902.139	942.9245	970.2307	979.9573	1051.7964	1056.3699	1124.3367	1154.4632	1176.4529	1221.7816	1293.8742	1325.0887	1358.5727	1391.7286	1399.6145	1407.2967	1423.8048	1477.7182	1496.7883	1501.8186	1508.0285	1831.5258	1833.1741	2872.1913	2879.1827	3033.5153	3046.5993	3088.4057	3106.545	3119.1989	3127.8497	3135.9588	3804.2661
CC(C=O)C(C)(O)C=O	C[C@@H](C=O)[C@@](C)(O)C=O	
InChI=1S/C6H10O3/c1-5(3-7)6(2,9)4-8/h3-5,9H,1-2H3	InChI=1S/C6H10O3/c1-5(3-7)6(2,9)4-8/h3-5,9H,1-2H3/t5-,6-/m0/s1
