19
gdb 30102	3.63037	1.05625	1.05154	3.0782	83.75	-0.1918	0.0417	0.2335	1248.7634	0.161407	-382.08419	-382.075868	-382.074924	-382.117583	31.874	
C	-0.0812423773	 1.5136581993	-0.2445140821	-0.39808
C	-0.0500446277	 0.0304091737	 0.0207094662	 0.015736
N	 1.2441818854	-0.6483467194	-0.1243116151	-0.323847
C	 0.637046019	-0.5779365368	 1.2127262246	-0.189721
C	 1.3686495223	 0.199645376	 2.2326806515	 0.350813
C	 2.5893976009	 0.8391935261	 2.1944454195	-0.22147
C	 2.8044417151	 1.4380261797	 3.4673702868	-0.143569
C	 1.7115872515	 1.1481199145	 4.2492717556	-0.097811
N	 0.8472000133	 0.3954571713	 3.4921543242	-0.304982
H	 0.7833089845	 2.0031446013	 0.2091851482	 0.140825
H	-0.0663242934	 1.7135976889	-1.3211383112	 0.117393
H	-0.9910931068	 1.9613542121	 0.1704029761	 0.109629
H	-0.927702214	-0.5155906052	-0.3262894471	 0.07788
H	 1.1305899199	-1.5782684279	-0.5163230647	 0.231999
H	 0.1682972978	-1.4876269624	 1.5923724534	 0.076014
H	 3.2464880644	 0.8512354346	 1.3397134407	 0.10371
H	 3.6667905528	 2.0096301431	 3.7746374466	 0.089884
H	 1.4767261152	 1.4038198501	 5.269995381	 0.111505
H	-0.0468258929	 0.0563487511	 3.8018759859	 0.254092
51.8321	110.3748	168.6293	205.5072	263.4778	382.6166	427.3375	466.2557	518.5844	628.7483	644.504	701.3006	731.9438	787.3181	808.8563	849.962	866.5227	894.0647	926.5468	972.5996	1010.0399	1017.5739	1047.8482	1071.0452	1115.4575	1135.6518	1144.6888	1184.6333	1224.8674	1245.5483	1258.1589	1283.1267	1393.5581	1415.3248	1440.3875	1452.5882	1475.2259	1491.5216	1495.8104	1505.1584	1619.5084	3035.002	3077.721	3095.5438	3100.05	3132.74	3244.128	3264.4446	3272.1757	3515.3788	3677.7279
CC1NC1C1=CC=CN1	C[C@H]1N[C@H]1c1ccc[nH]1	
InChI=1S/C7H10N2/c1-5-7(9-5)6-3-2-4-8-6/h2-5,7-9H,1H3	InChI=1S/C7H10N2/c1-5-7(9-5)6-3-2-4-8-6/h2-5,7-9H,1H3/t5-,7-/m1/s1
