20
gdb 23612	1.94583	1.45371	0.95048	0.8418	83.75	-0.2233	0.0135	0.2368	1296.4829	0.170481	-403.080747	-403.071595	-403.07065	-403.115274	34.546	
O	 0.1117702373	 1.2590497645	 0.842625204	-0.403575
N	 0.0984984045	-0.105772314	 0.4990340604	-0.212238
C	-1.0017072293	-0.4744235235	-0.0478639097	 0.36868
C	-1.0715293863	-1.8920524357	-0.506495811	-0.079294
C	-0.2125399243	-2.3422631846	-1.6808840527	-0.251679
C	 0.0771624129	-2.8429418576	-0.2949594613	-0.268947
C	-2.1562272362	 0.4283334547	-0.2817866512	-0.082017
C	-3.1005495924	 0.2078578459	-1.4494000406	-0.26937
C	-3.5853052511	-0.0399890998	-0.0546170413	-0.272593
H	 0.9844195152	 1.3529911074	 1.2369646993	 0.303095
H	-2.0643093947	-2.3280747849	-0.4676374162	 0.087866
H	-0.6506000681	-3.0213375497	-2.4046026713	 0.109861
H	 0.4610519294	-1.6021548066	-2.0977893371	 0.123783
H	 0.9461780673	-2.446578236	 0.2141683861	 0.137172
H	-0.1672809555	-3.8725432488	-0.0587528811	 0.107998
H	-1.957863517	 1.4574252681	-0.0179130493	 0.117493
H	-3.4500099519	 1.0898277897	-1.9742956237	 0.117929
H	-2.9200505986	-0.6496178245	-2.0873168274	 0.124321
H	-3.7462860409	-1.0644092437	 0.2613719994	 0.121587
H	-4.2655843202	 0.6728781892	 0.3975243146	 0.119929
50.4646	73.1044	170.7669	182.5234	234.0183	266.1492	332.2363	360.1019	409.2737	499.5824	587.4585	676.9499	702.6214	787.9447	799.5298	830.2643	833.1344	893.7656	904.2625	932.8536	953.647	978.6135	1042.7735	1059.0305	1063.1687	1080.0199	1086.0816	1124.0562	1127.5249	1144.451	1202.4619	1203.7469	1220.6075	1227.4331	1264.9727	1356.7471	1407.5608	1440.7808	1462.8049	1472.4153	1496.0425	1504.9331	1706.0284	3132.6635	3138.9378	3142.3734	3145.6079	3160.4372	3214.0711	3217.692	3221.1072	3234.5064	3243.0619	3829.2102
ON=C(C1CC1)C1CC1	ON=C(C1CC1)C1CC1	
InChI=1S/C7H11NO/c9-8-7(5-1-2-5)6-3-4-6/h5-6,9H,1-4H2	InChI=1S/C7H11NO/c9-8-7(5-1-2-5)6-3-4-6/h5-6,9H,1-4H2
