15
gdb 31943	4.55617	0.92857	0.78149	3.4363	74.97	-0.2417	-0.0591	0.1826	1374.1521	0.112187	-457.798474	-457.790254	-457.78931	-457.832078	29.279	
O	 0.4084101029	 0.8931764067	-0.7120698382	-0.400653
C	-0.0390944283	 0.034944451	 0.3170281771	-0.17391
C	-1.4464341795	-0.422514874	 0.089037026	 0.313218
C	-2.2339312743	-0.4390592356	-1.0308408656	-0.254523
C	-3.4773589565	-0.9922017949	-0.6230439823	-0.222489
C	-3.3634867392	-1.2737014423	 0.714572417	 0.244722
O	-2.1155627572	-0.918243403	 1.1508783928	-0.187676
C	-4.3114389004	-1.8444188074	 1.6535140283	 0.064249
O	-4.1067856285	-2.0509885373	 2.8290725497	-0.282656
H	-0.1331343815	 1.6894252484	-0.6881281742	 0.290745
H	 0.643668729	-0.8233624367	 0.3116928535	 0.144949
H	 0.0338587473	 0.4898120287	 1.3164957605	 0.124356
H	-1.9423199464	-0.1072395426	-2.0138844624	 0.131717
H	-4.3520084328	-1.1648523475	-1.231813091	 0.13145
H	-5.2857322746	-2.0850349034	 1.1734704388	 0.0765
56.3016	134.4304	143.4529	184.8443	236.2138	316.1356	361.2361	441.6131	506.7636	632.7635	657.2407	711.6286	779.3307	818.6259	872.6013	975.3043	980.5487	998.9895	1018.0969	1041.2367	1096.2894	1195.7133	1207.4518	1245.1141	1295.0257	1357.7887	1398.467	1410.128	1446.0786	1491.7538	1551.5677	1616.4015	1786.0395	2887.4202	2996.8728	3054.6396	3253.6924	3276.1996	3810.4415
OCC1=CC=C(O1)C=O	OCc1ccc(o1)C=O	
InChI=1S/C6H6O3/c7-3-5-1-2-6(4-8)9-5/h1-3,8H,4H2	InChI=1S/C6H6O3/c7-3-5-1-2-6(4-8)9-5/h1-3,8H,4H2
