20
gdb 64952	3.29109	1.12973	0.96526	2.7777	81.48	-0.2529	-0.0249	0.228	1286.0299	0.17081	-403.134163	-403.125139	-403.124194	-403.168421	33.922	
C	 0.2021109893	 1.5401138482	-0.138749109	-0.489283
C	 0.0609508338	 0.0361922273	 0.0008917272	 0.236131
C	 1.3155910166	-0.7839351023	 0.2905741736	-0.27559
C	 0.3114913375	-0.5883320768	 1.3735444908	-0.274885
C	-0.9638548774	-0.6841102906	-0.8201748846	 0.330974
O	-1.0738643501	-1.8995374887	-0.7826073815	-0.366674
C	-1.8711461458	 0.1064573561	-1.7154777786	-0.121892
C	-1.9335103055	-0.3494509286	-3.1450841699	-0.218156
N	-3.0501404731	-0.5919097494	-2.2447865207	-0.304436
H	 1.0326837334	 1.8987573972	 0.4760633642	 0.118119
H	 0.4088677691	 1.8354531139	-1.173029238	 0.126538
H	-0.6977079311	 2.0705814156	 0.1911714639	 0.127882
H	 1.3636828847	-1.761501013	-0.1736113159	 0.138287
H	 2.2500530522	-0.2356300115	 0.3369128912	 0.115142
H	 0.536701529	 0.0990850699	 2.1816237477	 0.11639
H	-0.3131703467	-1.4340331014	 1.6349099673	 0.137969
H	-2.0136709439	 1.1584361987	-1.4988730593	 0.10082
H	-2.1053208449	 0.3900672428	-3.9220785831	 0.124556
H	-1.2948962056	-1.184385349	-3.4200809194	 0.129971
H	-2.9844258814	-1.5534988784	-1.9059885059	 0.248137
45.9597	72.6167	197.2505	240.4901	256.5184	293.0911	323.3417	328.432	357.6174	413.4907	566.6577	746.8233	760.2845	794.5263	824.632	831.9077	859.3077	897.8138	950.3318	961.2975	979.433	1013.3796	1045.876	1078.6729	1090.4138	1091.6844	1119.868	1121.7125	1139.2377	1182.2951	1205.3932	1284.3921	1311.7476	1323.9473	1332.9633	1406.4985	1423.5144	1451.3516	1482.7186	1495.6821	1496.1205	1504.6654	1744.1712	3030.4037	3092.3405	3105.5857	3110.1812	3138.2761	3140.7557	3182.4139	3204.0889	3229.1839	3242.6086	3453.1463
CC1(CC1)C(=O)C1CN1	CC1(CC1)C(=O)[C@H]1CN1	
InChI=1S/C7H11NO/c1-7(2-3-7)6(9)5-4-8-5/h5,8H,2-4H2,1H3	InChI=1S/C7H11NO/c1-7(2-3-7)6(9)5-4-8-5/h5,8H,2-4H2,1H3/t5-/m1/s1
