21
gdb 106413	2.84541	1.33208	1.15756	1.709	83.46	-0.2279	0.0924	0.3202	1186.3481	0.181332	-387.009055	-387.000359	-386.999415	-387.042273	33.979	
C	-0.1189481666	 1.5423066976	 0.090863133	-0.380966
C	 0.0628253319	 0.0218073996	 0.0218838184	-0.31991
C	 0.8595792504	-0.5247468585	 1.1680878637	 0.331404
C	 2.2750640626	-0.1429078939	 1.6974650414	-0.264533
C	 1.5941602131	-1.07851049	 2.7235663511	-0.048992
O	 0.342639472	-0.3023296437	 2.5565957527	-0.34962
C	 1.1464006984	-1.9838980557	 1.5738997632	 0.418634
C	 0.3288780113	-3.2190601581	 1.5171515246	-0.360236
C	 1.7189499215	-3.1708276676	 0.8802752818	-0.362948
H	 0.8441003952	 2.0590753703	 0.0301647634	 0.118423
H	-0.7441883466	 1.8980817569	-0.7329497784	 0.111491
H	-0.5935699218	 1.8283785175	 1.0331937424	 0.141265
H	-0.9154623417	-0.474785695	 0.0197102484	 0.113218
H	 0.5643444965	-0.2635906785	-0.9117307911	 0.105407
H	 3.1437143926	-0.5200730409	 1.1518760653	 0.09467
H	 2.3826718899	 0.8919076854	 2.0254481457	 0.101791
H	 1.8954819921	-1.3351459176	 3.7391169821	 0.091431
H	 0.2060389851	-3.8041824863	 2.4228380432	 0.116956
H	-0.529309778	-3.2447100486	 0.8528297411	 0.115037
H	 1.7786556956	-3.1649680453	-0.2039333486	 0.113151
H	 2.5177721165	-3.7241173075	 1.3644356668	 0.114327
76.4518	134.4133	190.2821	209.6805	238.2709	250.2854	343.2996	433.7382	484.8918	596.2338	622.6985	692.5846	710.8947	766.0141	782.6106	811.9842	890.7572	911.4933	929.5642	951.6887	967.058	995.4704	1000.1315	1046.2993	1053.9913	1068.6738	1079.404	1122.5529	1131.2244	1165.2503	1178.8486	1201.8631	1219.0827	1223.438	1287.8672	1316.6005	1374.6483	1409.8056	1428.5896	1461.5906	1470.5262	1483.5947	1497.392	1507.9568	1527.7807	3024.6992	3043.0435	3060.7425	3061.8646	3110.5067	3120.329	3120.7983	3124.7328	3126.0997	3145.3207	3197.6154	3212.3944
CCC12CC(O1)C21CC1	CC[C@@]12C[C@@H](O1)C12CC1	
InChI=1S/C8H12O/c1-2-8-5-6(9-8)7(8)3-4-7/h6H,2-5H2,1H3	InChI=1S/C8H12O/c1-2-8-5-6(9-8)7(8)3-4-7/h6H,2-5H2,1H3/t6-,8+/m1/s1
