18
gdb 87602	3.30321	1.33268	1.22497	2.5229	78.42	-0.2208	0.016	0.2369	1077.3314	0.148591	-401.902036	-401.894408	-401.893463	-401.933892	30.699	
O	-0.0077042714	 1.3802232937	-0.086463527	-0.419404
C	 0.0149947178	-0.0156811521	-0.0155321069	 0.063124
C	-0.453708789	-0.6962849374	 1.241136424	-0.392915
C	-1.3207763424	-0.7061921657	-0.0154040286	 0.362303
C	-2.602798948	 0.0528574061	-0.0906833803	-0.144386
C	-3.5493023855	-0.6460900592	-0.7264443184	-0.075988
C	-3.0027432263	-1.9479244029	-1.2120636231	-0.092401
N	-1.9026708062	-1.7732498577	-2.209393642	-0.335174
C	-1.5777840148	-1.9820922283	-0.7800434695	-0.169094
H	 0.7187808287	 1.7146107975	 0.4500632598	 0.287763
H	 0.8106252457	-0.4918915059	-0.5889401014	 0.089159
H	 0.0163924411	-1.627873384	 1.5418831956	 0.110038
H	-0.7790575176	-0.0597826695	 2.0573651424	 0.115259
H	-2.6966521726	 1.0602293624	 0.2931594072	 0.109584
H	-4.5621186442	-0.3134295665	-0.916155223	 0.097311
H	-3.6210363794	-2.8372103169	-1.2742781829	 0.086897
H	-1.7664810589	-2.6613580178	-2.6913576375	 0.223928
H	-1.082760517	-2.9004245359	-0.4806383884	 0.083996
119.5547	156.8835	224.1803	289.9832	341.1519	414.2435	428.4473	478.8003	553.0569	637.2582	738.433	771.0842	805.5291	830.9602	848.4126	857.838	908.6494	920.4036	925.9854	952.7566	972.2928	1011.5369	1033.368	1065.895	1086.9626	1110.5394	1141.4417	1163.4129	1172.1786	1243.8018	1262.4536	1282.4249	1300.3866	1348.3921	1394.1092	1403.4024	1432.2547	1484.2082	1650.9604	3097.3567	3120.7874	3154.8394	3167.3939	3205.187	3213.7866	3231.1837	3467.0995	3802.6479
OC1CC11C=CC2NC12	O[C@H]1C[C@]21C=C[C@H]1N[C@@H]21	
InChI=1S/C7H9NO/c9-5-3-7(5)2-1-4-6(7)8-4/h1-2,4-6,8-9H,3H2	InChI=1S/C7H9NO/c9-5-3-7(5)2-1-4-6(7)8-4/h1-2,4-6,8-9H,3H2/t4-,5+,6-,7+/m1/s1
