17
gdb 45369	2.96631	1.63382	1.43356	4.0903	66.39	-0.2641	0.0087	0.2727	952.0655	0.138953	-459.021822	-459.01492	-459.013976	-459.05356	27.06	
O	-0.007816561	 0.019135665	 0.6053158392	-0.323543
C	-0.0411154449	 1.1147960104	 0.1189453165	 0.409321
C	-1.3361904925	 1.9032308973	-0.071663088	-0.347966
C	-1.1532779454	 3.1259219784	-0.9734664468	 0.065659
C	-0.825328812	 2.7567835826	-2.4401547507	-0.242195
C	 0.7266956898	 2.7061236305	-2.444572189	-0.244573
C	 1.0595284648	 2.9779952488	-0.9714470142	 0.190646
O	 0.032442977	 3.7945963954	-0.5033881096	-0.236494
O	 1.1163116803	 1.7291008641	-0.2401035912	-0.241634
H	-2.1009534122	 1.2143760509	-0.4396772253	 0.13647
H	-1.6472423627	 2.2247722945	 0.9283542179	 0.14776
H	-1.9865689831	 3.8236458978	-0.8780365392	 0.09395
H	-1.280439345	 1.8072581762	-2.7305360433	 0.118235
H	-1.1962448165	 3.5237172608	-3.1225703355	 0.118335
H	 1.1393671666	 1.7528627581	-2.7770395652	 0.129364
H	 1.1484004174	 3.4984997508	-3.0671203572	 0.118962
H	 2.0179480794	 3.4591483483	-0.7795240285	 0.107702
85.3007	102.6362	330.1025	388.9198	418.8688	480.6426	518.5619	583.8736	643.2195	741.8217	794.3022	818.1622	841.194	875.7726	898.509	924.952	978.0283	1006.1115	1013.104	1057.973	1075.5367	1084.3505	1172.9794	1206.1977	1215.5074	1245.4454	1268.053	1301.8091	1322.6209	1335.1316	1365.0794	1383.7376	1407.2169	1452.2063	1482.8213	1507.3396	1852.7308	3057.5858	3073.1933	3081.3588	3102.2738	3109.3854	3118.1474	3132.0682	3138.4697
O=C1CC2CCC(O2)O1	O=C1C[C@@H]2CC[C@@H](O2)O1	
InChI=1S/C6H8O3/c7-5-3-4-1-2-6(8-4)9-5/h4,6H,1-3H2	InChI=1S/C6H8O3/c7-5-3-4-1-2-6(8-4)9-5/h4,6H,1-3H2/t4-,6-/m0/s1
