21
gdb 92792	3.32224	0.87389	0.75442	2.6239	86.31	-0.2347	-0.0259	0.2088	1555.8337	0.181547	-387.123327	-387.113844	-387.1129	-387.159036	34.441	
C	-0.0130920059	 1.5576368302	 0.0227597376	-0.404056
C	 0.0817234294	 0.03327422	 0.0077524706	 0.048503
C	 0.8612850671	-0.5536179025	-1.2019056566	-0.259207
C	 1.5082631515	-1.7904008363	-0.6321718289	-0.17055
C	 1.4640949502	-1.8187244087	 0.7023246068	 0.306457
C	 2.0769008715	-2.8537599367	 1.6038606366	-0.381041
C	 3.3366050064	-2.3142595746	 2.2685018403	 0.161831
O	 3.5002632239	-2.2065264945	 3.4549289751	-0.234792
C	 0.7744247345	-0.5851824078	 1.2511435156	-0.309703
H	 0.983379123	 2.0125035924	 0.066773736	 0.113908
H	-0.5109629062	 1.9340233134	-0.8773505492	 0.11315
H	-0.5800594046	 1.9144465073	 0.8892351285	 0.11458
H	-0.9344424575	-0.378072345	-0.0337385752	 0.078557
H	 0.2090398293	-0.7609333853	-2.0580996926	 0.10214
H	 1.6260809395	 0.1506915232	-1.5637967729	 0.103104
H	 1.9805714848	-2.5476566367	-1.2502340106	 0.086987
H	 1.3886296775	-3.1717425605	 2.3939266593	 0.121282
H	 2.3694064537	-3.7315217326	 1.0128365131	 0.120137
H	 4.1225761439	-2.0002663311	 1.5430052497	 0.077072
H	 1.5108391188	 0.1071137619	 1.687623191	 0.10717
H	 0.0661912491	-0.816883296	 2.0555793956	 0.104471
41.2867	53.9755	78.1838	169.6533	238.2022	260.3435	301.6706	361.4189	417.7227	448.5494	503.9846	579.7188	656.9183	823.4597	829.0889	840.4238	888.074	909.5448	934.5929	940.2324	993.079	1026.0574	1049.9942	1070.6172	1110.0749	1143.8319	1148.6856	1185.3254	1209.2489	1236.8806	1280.3158	1294.3023	1307.0522	1333.1056	1359.7816	1374.455	1413.0737	1417.898	1458.012	1484.9561	1491.8041	1498.2811	1500.6945	1709.842	1834.7285	2865.6162	2991.7974	2992.2846	3019.7925	3024.3433	3026.0197	3048.8319	3055.0493	3088.207	3093.0696	3096.0011	3179.5621
CC1CC=C(CC=O)C1	C[C@H]1CC=C(CC=O)C1	
InChI=1S/C8H12O/c1-7-2-3-8(6-7)4-5-9/h3,5,7H,2,4,6H2,1H3	InChI=1S/C8H12O/c1-7-2-3-8(6-7)4-5-9/h3,5,7H,2,4,6H2,1H3/t7-/m0/s1
