17
gdb 13237	6.97318	0.88778	0.84679	4.8033	69.23	-0.2608	0.0394	0.3002	1327.5358	0.142447	-363.862769	-363.854582	-363.853638	-363.896613	28.457	
N	-0.0210841492	-1.1271249735	-0.1953866986	-0.306891
C	-0.0095306013	 0.0264356725	-0.1265817167	 0.255683
C	 0.0293455469	 1.482911146	-0.0332673463	-0.337024
C	 1.453822956	 2.0251767683	 0.1992860595	-0.20415
C	 1.453221028	 3.5440716455	 0.2409901746	 0.155547
C	 2.8064715334	 4.2738292955	 0.0906875276	-0.304286
C	 2.1645326007	 4.9035722898	-1.1621674508	-0.0586
O	 0.9625045166	 4.1188474144	-0.9943496056	-0.294935
H	-0.3695230092	 1.9130487875	-0.9579115408	 0.174583
H	-0.6368982139	 1.7983412555	 0.7784797185	 0.149148
H	 1.85896857	 1.6330063069	 1.1391751856	 0.120232
H	 2.1077215565	 1.6825350005	-0.6096201859	 0.121605
H	 0.8508114081	 3.8961908028	 1.091859931	 0.076842
H	 3.0691114903	 4.9630502533	 0.8937853345	 0.117088
H	 3.6527195918	 3.6131717216	-0.1082286841	 0.116103
H	 1.9589761041	 5.9784447325	-1.0910675748	 0.107914
H	 2.6560201714	 4.6989608509	-2.1198057174	 0.111143
51.6832	88.9541	106.8388	129.2012	230.5811	363.3102	397.2533	450.9884	548.5181	744.3048	771.4499	814.5696	884.4638	921.1235	943.9923	974.852	1004.757	1030.6956	1061.2081	1105.447	1133.2351	1166.1768	1204.182	1222.5565	1256.6378	1269.6518	1295.8548	1314.9922	1356.9841	1373.0668	1406.3382	1468.0876	1483.5192	1491.9307	1531.5754	2362.5445	2987.8838	3023.7527	3039.3707	3047.514	3065.772	3081.0509	3081.7341	3100.1178	3138.2846
N#CCCC1CCO1	N#CCC[C@H]1CCO1	
InChI=1S/C6H9NO/c7-4-1-2-6-3-5-8-6/h6H,1-3,5H2	InChI=1S/C6H9NO/c7-4-1-2-6-3-5-8-6/h6H,1-3,5H2/t6-/m0/s1
