18
gdb 65578	2.89781	1.41431	1.25638	3.8563	75.13	-0.2636	0.0248	0.2885	1071.1055	0.147661	-401.953378	-401.94522	-401.944276	-401.986003	31.479	
C	 0.0635970553	 1.4695153549	 0.0635721722	-0.433524
C	 0.0378503727	-0.0546546232	-0.0130225521	 0.226681
C	 0.7743475114	-0.6604968702	-1.2449807553	-0.291857
C	 1.3675558902	-1.9533216257	-0.6914494018	-0.054826
C	 2.6129082872	-1.8373532056	 0.1684885632	-0.305085
C	 1.2519112895	-1.8469515128	 0.8018492048	 0.090888
O	 0.7261929046	-0.5780432565	 1.1286336463	-0.276455
C	-1.3675957305	-0.53863448	 0.0128066939	 0.266805
N	-2.4579119423	-0.9216834945	 0.0309114881	-0.340424
H	 1.1027504008	 1.8074450244	 0.0697459853	 0.130366
H	-0.4522822072	 1.904914142	-0.7962093544	 0.137336
H	-0.4258020522	 1.8148773268	 0.9767757542	 0.148416
H	 0.0892127658	-0.841309024	-2.0754540063	 0.131308
H	 1.5430699511	 0.0394816521	-1.5875423112	 0.113684
H	 1.1688112788	-2.8845074047	-1.2064302432	 0.105602
H	 3.2314349425	-2.7220915553	 0.2764241934	 0.119887
H	 3.151866638	-0.8955896174	 0.17008131	 0.119802
H	 0.9158973042	-2.6528033302	 1.4445097728	 0.111398
78.1	162.6193	185.5204	234.2264	308.1869	318.3392	378.7198	433.1513	513.3223	582.1274	631.4351	710.5532	744.1988	789.2361	814.9452	859.7702	912.8192	926.3361	943.8764	989.1174	1028.3154	1060.4376	1069.6424	1100.8191	1133.0481	1143.436	1170.7709	1190.3458	1212.2697	1261.9508	1306.0204	1335.9529	1379.0886	1407.8905	1471.5349	1479.1929	1488.0147	1496.2697	2349.176	3051.9608	3055.2749	3116.5828	3128.989	3134.0461	3139.4344	3174.7673	3192.5101	3221.4718
CC1(CC2CC2O1)C#N	C[C@]1(C[C@H]2C[C@H]2O1)C#N	
InChI=1S/C7H9NO/c1-7(4-8)3-5-2-6(5)9-7/h5-6H,2-3H2,1H3	InChI=1S/C7H9NO/c1-7(4-8)3-5-2-6(5)9-7/h5-6H,2-3H2,1H3/t5-,6-,7+/m1/s1
