16
gdb 116989	4.69308	0.61741	0.54936	0.8718	93.68	-0.2558	-0.0571	0.1987	1948.3512	0.121541	-400.70228	-400.692461	-400.691517	-400.737856	34.464	
C	 0.0667119409	 1.5213042505	 0.1629995309	-0.392542
C	 0.0139340234	 0.0122161185	 0.0244587873	-0.039296
O	 0.6949700245	-0.5465516164	 1.1634372463	-0.227921
C	 0.7552120627	-1.886407873	 1.2220028891	 0.136069
N	 0.2427577682	-2.6358525429	 0.3264430875	-0.540917
C	 1.4520841195	-2.3410915118	 2.390737978	 0.36201
C	 2.0302996892	-2.784742243	 3.3584658402	-0.083882
C	 2.6786159199	-3.2806843935	 4.4440419047	 0.279942
C	 3.2551122929	-3.7218095113	 5.4091552086	-0.564833
H	 1.1009594777	 1.8759246921	 0.1831590236	 0.131165
H	-0.4421040097	 1.9877185121	-0.6857523462	 0.122655
H	-0.4268334429	 1.8466997484	 1.0829802675	 0.13117
H	-1.0132397773	-0.3664477009	 0.0045358322	 0.124498
H	 0.5053956554	-0.3375301075	-0.8893271706	 0.124513
H	 0.3942694247	-3.6164045344	 0.5514007559	 0.236755
H	 3.7623560307	-4.1084095369	 6.2584515348	 0.200614
61.7122	75.3533	89.0386	156.4446	186.7281	252.7455	260.8988	332.0847	377.8602	419.7866	490.4472	550.9149	553.4134	601.2678	614.1979	734.514	806.1867	808.4027	847.0388	881.9109	1027.1609	1106.2469	1135.5034	1147.7285	1181.2217	1289.2843	1360.6852	1408.3123	1434.3368	1485.7122	1496.2507	1518.6331	1669.3435	2181.1151	2349.001	3047.3886	3048.7949	3086.2085	3121.8646	3127.1027	3501.4773	3525.9016
CCOC(=N)C#CC#C	CCO[C]([NH])C#CC#C	
InChI=1S/C7H7NO/c1-3-5-6-7(8)9-4-2/h1,8H,4H2,2H3	InChI=1S/C7H7NO/c1-3-5-6-7(8)9-4-2/h1,8H,4H2,2H3
