18
gdb 66570	2.36047	2.23316	1.61411	2.4169	74.14	-0.2133	0.0666	0.2799	902.766	0.147671	-401.858593	-401.851241	-401.850297	-401.889762	30.13	
C	-0.0117166957	 1.4891210533	 0.0354694848	-0.493135
C	-0.0529094733	-0.0112622025	-0.0125757584	 0.267601
C	-1.3508102707	-0.8481922348	-0.019322018	-0.296139
C	-0.4419467583	-1.9240391342	 0.600425318	-0.007563
C	 0.7031553214	-2.2265380091	-0.3711944139	-0.178693
C	 1.6403197735	-1.3288481567	 0.4016084171	-0.08761
N	 0.4556508105	-0.8245527073	 1.2113969279	-0.2076
C	 1.006915969	-0.7825657978	-0.8322426751	 0.347699
O	 1.6145652595	-0.4472356657	-2.0198364333	-0.4663
H	 1.008492912	 1.8406180516	 0.2211924909	 0.129023
H	-0.3435453581	 1.9155718591	-0.9178501457	 0.117653
H	-0.6586624011	 1.8719138303	 0.8302574128	 0.122629
H	-2.0756302472	-0.4684135628	 0.7063521213	 0.110197
H	-1.8416735645	-1.0551132182	-0.9746797346	 0.089226
H	-0.8220719143	-2.7056148484	 1.2593191103	 0.076081
H	 0.9200786904	-3.0894311526	-0.9886435062	 0.088009
H	 2.6597616457	-1.4314913674	 0.7503688779	 0.10096
H	 1.0553688711	-0.7367614069	-2.7496723557	 0.287963
182.6526	204.6173	236.7154	293.5578	311.1399	382.9655	448.6833	565.9716	604.5442	626.0704	737.2923	774.4547	808.822	829.6904	863.7264	878.0209	913.1447	926.2035	947.2783	954.7496	987.3014	1002.6676	1023.4214	1066.9382	1118.1526	1131.5637	1185.0458	1197.2491	1203.8777	1236.6767	1262.6002	1284.259	1307.9915	1330.4668	1409.0376	1453.195	1477.4104	1483.7075	1487.0741	3031.7804	3051.8106	3098.768	3103.6121	3109.9922	3113.5001	3186.3993	3199.8069	3785.3688
CC12CC3C4C(N13)C24O	C[C@]12C[C@H]3[C@@H]4[C@H](N13)[C@]24O	
InChI=1S/C7H9NO/c1-6-2-3-4-5(8(3)6)7(4,6)9/h3-5,9H,2H2,1H3	InChI=1S/C7H9NO/c1-6-2-3-4-5(8(3)6)7(4,6)9/h3-5,9H,2H2,1H3/t3-,4+,5-,6+,7-/m0/s1
