16
gdb 24097	6.68931	0.70279	0.66469	3.6452	75.37	-0.2367	0.0056	0.2423	1593.0183	0.125443	-400.793352	-400.785202	-400.784258	-400.827431	29.204	
N	-0.0107934294	-1.1997218788	 0.0105953976	-0.30313
C	-0.0207705444	-0.0454434271	 0.0657598627	 0.255102
C	-0.0053956672	 1.414153801	 0.1288237192	-0.326482
C	 1.4037465378	 2.0042418548	-0.1340870752	-0.329292
C	 1.4098520761	 3.4999922535	-0.0472294485	 0.242753
C	 1.5493146001	 4.3816047684	-1.0746348588	-0.098704
O	 1.4920574482	 5.663334395	-0.6282216995	-0.137349
C	 1.309680886	 5.602986349	 0.7164084682	 0.011332
C	 1.2507296977	 4.3124995665	 1.1312653675	-0.28472
H	-0.7160109335	 1.8086766856	-0.6052663255	 0.157574
H	-0.3670452024	 1.7265415114	 1.1144429288	 0.155945
H	 2.1030975199	 1.5744472784	 0.59125599	 0.133068
H	 1.742322863	 1.6838573031	-1.1237619617	 0.128684
H	 1.7002115705	 4.2586405941	-2.134887119	 0.140227
H	 1.2477649172	 6.5516202963	 1.2234204356	 0.141619
H	 1.1218459904	 3.9712800687	 2.1472100888	 0.113372
57.6812	63.2331	98.4195	191.7241	308.6086	362.5689	403.534	505.1808	623.716	650.0852	724.8406	741.503	766.7305	792.9093	835.5675	892.7661	952.5621	979.536	1013.4274	1024.6877	1059.9762	1104.6269	1174.9793	1210.0645	1266.306	1277.8903	1294.1605	1313.6322	1374.3692	1413.0301	1467.0923	1491.4336	1538.0363	1634.9086	2361.8602	3044.6819	3054.8925	3081.743	3103.0244	3248.578	3272.0874	3286.279
N#CCCC1=COC=C1	N#CCCc1cocc1	
InChI=1S/C7H7NO/c8-4-1-2-7-3-5-9-6-7/h3,5-6H,1-2H2	InChI=1S/C7H7NO/c8-4-1-2-7-3-5-9-6-7/h3,5-6H,1-2H2
