14
gdb 7870	3.74912	1.72976	1.20113	5.7453	67.19	-0.2295	-0.0872	0.1423	950.341	0.106266	-382.5917	-382.584341	-382.583396	-382.623543	26.654	
C	-0.0205117219	 1.4762966638	 0.0434174861	-0.483378
C	-0.0003434162	-0.0131299959	-0.0180725077	 0.304936
C	-0.0336959299	-0.7717590632	-1.1325436491	-0.277
C	 0.0007857707	-2.2047962408	-0.8172900428	 0.296943
O	-0.0150942033	-3.1594750145	-1.5557481282	-0.307364
C	 0.0643593435	-2.2805015246	 0.7387108988	 0.310012
O	 0.1051206352	-3.2873337171	 1.3884186653	-0.272241
C	 0.0629609249	-0.8393314813	 1.2484121568	-0.420262
H	 0.872595204	 1.8519959898	 0.5585731886	 0.145736
H	-0.066547545	 1.9259430361	-0.9509050705	 0.139859
H	-0.8813686564	 1.8253076104	 0.6276380278	 0.145767
H	-0.0802557458	-0.3948608138	-2.1469959415	 0.122263
H	 0.962697588	-0.6328754098	 1.8415875055	 0.147354
H	-0.792236048	-0.6594466791	 1.9119581109	 0.147375
89.0035	141.5152	185.0033	283.1775	313.4633	399.8693	442.2762	532.7528	552.9502	637.0011	723.4208	728.4405	855.2664	878.3606	958.932	999.5844	1050.5652	1070.8668	1154.0457	1160.921	1205.1517	1265.4406	1345.9793	1409.0482	1438.4298	1473.7004	1474.6157	1661.4992	1817.6013	1865.6215	3022.547	3033.5594	3065.0805	3072.1667	3126.3853	3211.1818
CC1=CC(=O)C(=O)C1	CC1=CC(=O)C(=O)C1	
InChI=1S/C6H6O2/c1-4-2-5(7)6(8)3-4/h2H,3H2,1H3	InChI=1S/C6H6O2/c1-4-2-5(7)6(8)3-4/h2H,3H2,1H3
