18
gdb 33507	2.67034	1.20634	0.92899	3.6553	76.38	-0.2875	0.005	0.2924	1279.1747	0.146749	-401.922737	-401.913946	-401.913002	-401.956956	32.24	
N	-0.4918711388	-1.086293117	 0.6577062556	-0.339443
C	-0.3252491644	 0.0298588437	 0.4084416455	 0.282526
C	-0.1507092684	 1.4456896865	 0.1155565274	 0.257012
C	-1.3172102612	 2.1309884456	-0.5756926976	-0.315164
C	-1.5615333447	 1.6018730801	-1.9734574262	 0.030654
C	-2.4505611291	 0.4033537883	-2.1997455504	-0.248455
C	-2.9106803636	 1.7753988821	-2.6226573964	-0.282979
C	 0.8065942674	 2.1967660939	 0.9538557389	-0.212819
O	 1.1540050284	 1.7906456492	-0.3666484149	-0.249992
H	-2.2167814706	 2.0058697816	 0.0392605219	 0.11592
H	-1.0921628337	 3.2031585976	-0.6082010634	 0.115817
H	-0.6985886684	 1.6894437593	-2.6271929417	 0.101971
H	-2.1643855088	-0.3070185026	-2.9665652213	 0.12159
H	-2.9244219305	-0.0489628738	-1.3353738511	 0.125434
H	-3.696165537	 2.2481800408	-2.0415793525	 0.111858
H	-2.9427150478	 2.0088376601	-3.6808650505	 0.116847
H	 0.6433323345	 3.2642230259	 1.0926092061	 0.129217
H	 1.3348080466	 1.6864218987	 1.7562897008	 0.140004
55.7913	83.3773	135.0173	184.1809	243.6945	285.8316	337.1261	395.975	433.2183	576.9708	594.484	709.0132	771.373	806.9915	832.6707	843.5311	907.5581	916.4052	948.1347	971.8943	1012.5257	1062.6131	1085.2585	1126.2328	1138.9162	1151.8375	1172.9032	1197.5889	1219.256	1232.4858	1287.0669	1313.9382	1386.7805	1415.5259	1463.2352	1474.2781	1508.7407	1520.7498	2357.8908	3030.3091	3074.8189	3092.474	3131.6443	3142.2775	3153.0242	3188.5097	3211.8088	3229.2312
N#CC1(CC2CC2)CO1	N#C[C@@]1(CC2CC2)CO1	
InChI=1S/C7H9NO/c8-4-7(5-9-7)3-6-1-2-6/h6H,1-3,5H2	InChI=1S/C7H9NO/c8-4-7(5-9-7)3-6-1-2-6/h6H,1-3,5H2/t7-/m0/s1
