21
gdb 106809	2.51555	1.46819	1.12382	1.095	78.26	-0.2226	0.0841	0.3067	1183.903	0.181249	-424.217946	-424.208741	-424.207797	-424.25158	34.966	
C	-0.0431603013	 1.556912699	-0.2530618052	-0.374112
C	-0.0296225148	 0.0860924949	 0.1813960456	-0.265021
C	-1.3830205608	-0.562593999	 0.08945717	 0.386171
C	-1.9696007103	-1.1133415151	-1.2063462078	-0.42885
C	-1.7043447374	-2.0215417228	-0.0119260932	 0.353269
C	-0.74959527	-3.1777640625	-0.0391168157	-0.468026
O	-2.7987328454	-2.2457280664	 0.8573621129	-0.295443
C	-3.3328100921	-0.9778975943	 1.1805634723	 0.002569
O	-2.309668073	-0.0178710347	 1.0112430342	-0.299319
H	 0.9530131785	 2.0005117295	-0.1647947213	 0.108981
H	-0.3675999436	 1.6552711007	-1.294182708	 0.116496
H	-0.7318916583	 2.135063669	 0.3688138226	 0.135404
H	 0.6719234522	-0.481555956	-0.4406033139	 0.098389
H	 0.3244074487	 0.0056853804	 1.2162552276	 0.107928
H	-2.9901866891	-0.8732825525	-1.4833222149	 0.119145
H	-1.2884562756	-1.205913281	-2.0465682582	 0.113504
H	 0.1245108127	-2.941451408	-0.6516299349	 0.120538
H	-0.412612491	-3.4230781652	 0.9726966934	 0.129018
H	-1.229747965	-4.0651058726	-0.4644249299	 0.130671
H	-4.1868197625	-0.7444537997	 0.5226935013	 0.090617
H	-3.663443192	-0.9774422738	 2.2245705633	 0.118071
89.0066	138.3363	184.4259	197.1179	212.3364	238.7296	273.9137	372.1689	373.8446	456.3589	469.6871	592.1475	704.9273	738.0242	759.7085	797.5979	874.5511	893.0692	933.7231	955.6679	978.6269	998.9275	1015.4695	1045.8724	1099.3318	1107.4806	1123.2494	1163.0035	1179.2437	1225.9363	1227.6255	1285.3876	1310.8308	1364.2489	1403.6147	1407.8493	1426.5067	1435.4958	1470.8926	1477.9567	1484.8108	1496.5543	1505.0719	1511.126	1553.6626	2954.9529	3031.0368	3039.3449	3040.108	3066.6353	3069.7837	3104.4094	3107.9438	3120.5958	3122.2509	3130.0219	3218.0579
CCC12CC1(C)OCO2	CC[C@@]12C[C@]1(C)OCO2	
InChI=1S/C7H12O2/c1-3-7-4-6(7,2)8-5-9-7/h3-5H2,1-2H3	InChI=1S/C7H12O2/c1-3-7-4-6(7,2)8-5-9-7/h3-5H2,1-2H3/t6-,7+/m0/s1
