19
gdb 87377	2.13859	1.59538	1.13255	3.7257	78.58	-0.2429	0.0174	0.2603	1156.6831	0.158086	-419.176226	-419.167252	-419.166307	-419.209722	33.547	
C	-0.2610107196	 1.5445385224	 0.0440717864	-0.407348
C	 0.1226744235	 0.0824897652	-0.0064063795	 0.073901
O	 1.3820397498	-0.1304801909	-0.7386881299	-0.288237
C	 1.9836464395	-0.7494002105	 0.3450355411	 0.3937
N	 3.1274324751	-1.2412259416	 0.4806415159	-0.553386
C	 0.7813991719	-0.5726794381	 1.2187313413	 0.187416
C	 0.675474671	-0.2248782428	 2.6599496716	-0.307826
N	 0.2656036906	-1.5347260154	 2.1697949503	-0.117567
C	-1.1645672152	-1.8114330023	 2.1297207245	-0.32069
H	 0.5278622525	 2.1375632568	 0.5149785503	 0.132278
H	-0.4312345409	 1.9291412216	-0.9661269714	 0.135324
H	-1.1853937044	 1.6755971858	 0.6163645625	 0.124198
H	-0.6645552818	-0.5267349919	-0.4633783181	 0.09855
H	 3.673156405	-1.1614796491	-0.3787204089	 0.228412
H	 1.570896774	-0.2061966638	 3.2743591975	 0.14045
H	-0.1009308668	 0.4883130724	 2.938059052	 0.111765
H	-1.7851633499	-0.9267595265	 1.9098001466	 0.10077
H	-1.3653943648	-2.5732410631	 1.3703702352	 0.133504
H	-1.4712500294	-2.2094764881	 3.1012275625	 0.134787
104.7198	130.5049	169.1984	189.2466	230.0256	234.5391	279.6976	381.4925	395.2455	496.5311	540.9366	599.9234	660.3192	725.9957	840.4818	855.4524	864.2513	872.2252	939.7197	996.7456	1044.5356	1058.1419	1070.8243	1106.708	1118.4098	1151.6528	1161.0141	1194.0279	1214.6922	1251.3647	1306.0641	1379.836	1409.3418	1430.4401	1449.2949	1485.2237	1490.1689	1492.3424	1496.1118	1510.4613	1830.9195	2965.4981	3039.0614	3052.3109	3074.8212	3086.1754	3109.8564	3112.9583	3123.6294	3187.2072	3481.421
CC1OC(=N)C11CN1C	C[C@H]1O[C]([NH])[C@]21CN2C	
InChI=1S/C6H10N2O/c1-4-6(3-8(6)2)5(7)9-4/h4,7H,3H2,1-2H3	InChI=1S/C6H10N2O/c1-4-6(3-8(6)2)5(7)9-4/h4,7H,3H2,1-2H3/t4-,6-,8?/m1/s1
