14
gdb 22859	2.29391	1.74934	0.9991	3.4281	70.55	-0.2314	-0.086	0.1454	1094.0943	0.10115	-469.991671	-469.983568	-469.982624	-470.024306	30.193	
N	 0.0812997712	 1.3162406425	 0.1216290554	-0.570279
C	 0.0300324046	-0.0417926052	 0.0361550534	 0.338964
N	-1.0584258053	-0.7320990695	 0.0082288372	-0.305526
C	-0.7302786717	-2.1550979472	-0.0138957652	-0.278218
C	 0.7989803963	-2.2754070677	-0.0176959463	 0.323642
O	 1.4644990823	-3.2775207496	-0.0412598747	-0.294702
C	 1.2678342751	-0.8432506101	 0.0115543062	 0.23328
N	 2.4271348657	-0.2974250738	 0.0001503119	-0.239299
O	 3.464004272	-1.1953182821	-0.0429621592	-0.333073
H	 0.9467439227	 1.7588448598	-0.1405439289	 0.266544
H	-0.7705041767	 1.8143372669	-0.0825028663	 0.262285
H	-1.148035679	-2.6762506893	 0.857192135	 0.138342
H	-1.1493462752	-2.647944554	-0.9004257281	 0.137481
H	 4.2429354381	-0.6252160407	-0.0424249304	 0.320558
83.8376	187.7611	203.9351	256.3603	301.4781	306.7232	405.7762	441.2652	479.2844	521.9638	538.1133	617.2088	629.99	692.4256	728.9686	742.0001	983.8573	988.7097	1035.9847	1087.4595	1137.0729	1185.4569	1192.2009	1294.7419	1397.7507	1461.893	1475.2597	1612.0337	1688.4986	1701.3682	1841.2515	3025.5163	3053.0017	3593.458	3716.3444	3790.8563
NC1=NCC(=O)C1=NO	NC1=NCC(=O)C1=NO	
InChI=1S/C4H5N3O2/c5-4-3(7-9)2(8)1-6-4/h9H,1H2,(H2,5,6)	InChI=1S/C4H5N3O2/c5-4-3(7-9)2(8)1-6-4/h9H,1H2,(H2,5,6)
