18
gdb 68910	2.75225	1.47045	1.15963	3.643	72.42	-0.2374	0.0267	0.2641	1089.2909	0.147137	-439.119656	-439.111129	-439.110185	-439.152301	33.281	
C	-0.0192001336	 1.5479626514	 0.0633243394	-0.46741
C	-0.0055695697	 0.0428276774	 0.0667287469	 0.291023
C	 1.2540934122	-0.7545922883	-0.2571775558	-0.394379
C	 0.6561641389	-0.7865179176	 1.1373763625	 0.358904
O	 1.315334183	-0.1184525689	 2.1689788074	-0.469038
C	-0.2916385278	-1.9195366058	 1.4910885675	-0.417806
C	-1.4327805268	-1.810626967	 0.4645716334	 0.394701
O	-2.3249849103	-2.6053281162	 0.2760549948	-0.369762
N	-1.2466660581	-0.6303937353	-0.2179373529	-0.34836
H	 0.9118179158	 1.931297818	 0.4860644176	 0.138593
H	-0.1237267575	 1.9448983595	-0.9526696053	 0.117726
H	-0.8507477144	 1.9256121692	 0.666342663	 0.130448
H	 1.1681536011	-1.6255942365	-0.8993447269	 0.115738
H	 2.1754304526	-0.1901191269	-0.3575648724	 0.117403
H	 2.1026419753	-0.623801615	 2.3985527171	 0.28702
H	 0.1470666248	-2.9201919575	 1.4459805469	 0.127891
H	-0.6932441492	-1.7735668789	 2.4992765325	 0.139922
H	-1.7780350463	-0.4585927715	-1.0586256357	 0.247384
104.7092	186.5091	192.4265	218.6085	289.5562	323.9339	395.1278	416.0001	475.5792	475.7823	520.4195	570.6533	606.3006	619.0807	742.3227	758.9013	864.031	908.2728	934.4139	942.6178	988.0465	1002.7526	1039.462	1112.6714	1131.6412	1179.8863	1228.6709	1245.1498	1277.139	1321.2758	1326.2466	1387.9639	1411.7296	1426.6058	1461.2247	1482.4837	1490.0399	1505.7509	1833.2652	3035.9276	3058.7921	3098.3378	3104.0753	3121.8855	3133.2297	3217.7421	3618.0081	3800.6283
CC12CC1(O)CC(=O)N2	C[C@@]12C[C@]1(O)CC(=O)N2	
InChI=1S/C6H9NO2/c1-5-3-6(5,9)2-4(8)7-5/h9H,2-3H2,1H3,(H,7,8)	InChI=1S/C6H9NO2/c1-5-3-6(5,9)2-4(8)7-5/h9H,2-3H2,1H3,(H,7,8)/t5-,6-/m1/s1
