16
gdb 11556	5.51851	0.97614	0.94053	3.6004	61.84	-0.269	-0.0307	0.2382	1237.288	0.128118	-420.863401	-420.854928	-420.853984	-420.898255	29.394	
O	 0.1641748009	 1.1901042015	 0.4977564097	-0.417222
C	-0.0599405696	-0.1763419898	 0.3405268232	-0.137064
C	-1.4400801694	-0.459178179	-0.2235329288	 0.371027
O	-2.2077350765	 0.4595676599	-0.4174629944	-0.327198
C	-1.8065263148	-1.902590832	-0.5317394854	-0.344422
C	-3.1989604322	-2.2453811218	-0.0496433986	 0.110736
C	-3.5826356217	-3.621673653	 0.2786868092	-0.182807
O	-3.3009008352	-2.672144325	 1.3095806503	-0.232365
H	-0.6773101985	 1.6124255141	 0.2611869379	 0.295531
H	 0.6898740869	-0.6317817517	-0.328244464	 0.116646
H	 0.0171765604	-0.7208531088	 1.2989909697	 0.125336
H	-1.7599270264	-2.0142032254	-1.6238379396	 0.143778
H	-1.0764353863	-2.592431062	-0.0972544246	 0.121362
H	-3.9703446029	-1.542339205	-0.3599293768	 0.119201
H	-4.6240756701	-3.9277599412	 0.1940957197	 0.122583
H	-2.8533193146	-4.4238771407	 0.1708234425	 0.114878
18.191	69.4807	123.5324	169.8557	285.4321	340.6706	378.4176	405.2681	427.8946	497.0547	695.6932	779.1931	828.3098	860.148	909.6516	960.1189	1017.6809	1057.8581	1100.9783	1129.2836	1156.1552	1160.6722	1170.2425	1221.0363	1257.1173	1293.7605	1303.1332	1336.247	1440.7347	1446.2295	1451.4878	1486.9871	1530.716	1797.5189	2957.4045	2981.3101	3026.8494	3083.6584	3090.3764	3133.7314	3171.3235	3685.7738
OCC(=O)CC1CO1	OCC(=O)C[C@H]1CO1	
InChI=1S/C5H8O3/c6-2-4(7)1-5-3-8-5/h5-6H,1-3H2	InChI=1S/C5H8O3/c6-2-4(7)1-5-3-8-5/h5-6H,1-3H2/t5-/m0/s1
