19
gdb 76758	2.29374	1.60722	1.36016	0.8977	70.38	-0.2429	0.0518	0.2948	1047.008	0.157553	-460.120079	-460.110918	-460.109974	-460.154425	34.216	
C	-0.7582318651	 1.2135455449	-0.0756350657	-0.423312
C	 0.0081212106	-0.0959326107	 0.0385747125	-0.029779
C	 1.1715611274	-0.3824359255	-0.9842682132	 0.018185
O	 1.5332383245	 0.6198590348	-1.9010472524	-0.424133
C	 2.1414068339	-0.6941848833	 0.2090049053	 0.330553
O	 2.7322483108	-1.9545226283	 0.2573708214	-0.483017
C	 2.9092006809	 0.5277149946	 0.7305010701	-0.145597
O	 1.7389314756	 0.9786274067	 1.4592333325	-0.297111
C	 1.02073639	-0.2524746912	 1.1939622064	 0.046804
H	-0.0995558933	 2.0719681267	 0.0859538064	 0.124395
H	-1.2279659885	 1.3101545903	-1.0592207625	 0.124415
H	-1.5456552819	 1.2681379524	 0.6828203032	 0.122403
H	-0.6858879776	-0.9433480357	 0.0365025127	 0.081414
H	 0.9948627956	-1.2838249292	-1.5792428661	 0.090591
H	 1.4877445595	 1.4721887189	-1.4554831038	 0.292825
H	 3.1301220426	-2.1371971436	-0.6011674459	 0.286625
H	 3.7261402109	 0.2495977788	 1.4080352222	 0.108045
H	 3.2664193631	 1.2673818509	 0.0044598833	 0.096789
H	 0.7391532909	-0.7825881416	 2.1067314136	 0.079906
25.6775	166.7549	184.381	230.5095	236.3257	253.7305	282.1479	316.3492	351.5773	493.1339	523.2515	553.8532	621.2012	692.9336	800.844	846.1085	878.3255	912.8439	958.6961	995.2202	1017.2896	1032.6923	1088.9144	1114.6999	1130.0311	1159.1762	1176.3972	1191.0916	1208.4854	1237.0148	1280.8959	1298.8486	1307.4949	1329.6062	1349.1934	1404.1581	1405.6001	1429.1952	1485.6865	1511.5522	1521.1806	3016.3747	3038.1977	3044.7405	3064.7906	3068.0133	3087.2141	3105.1729	3113.1803	3799.1924	3817.8948
CC1C(O)C2(O)COC12	C[C@H]1[C@@H](O)[C@@]2(O)CO[C@@H]12	
InChI=1S/C6H10O3/c1-3-4(7)6(8)2-9-5(3)6/h3-5,7-8H,2H2,1H3	InChI=1S/C6H10O3/c1-3-4(7)6(8)2-9-5(3)6/h3-5,7-8H,2H2,1H3/t3-,4+,5-,6-/m0/s1
