16
gdb 19829	3.51332	2.35123	1.9532	2.759	62.49	-0.2461	0.0632	0.3093	736.1343	0.131517	-383.671733	-383.665541	-383.664596	-383.701732	25.429	
O	 0.1016867125	 1.4217677496	-0.1387722377	-0.438084
C	 0.0137420325	 0.0324475042	-0.0021206187	 0.148463
C	 0.2887914561	-0.6029945164	 1.4073656161	-0.280483
C	-1.115354817	-1.2653890927	 1.385388696	-0.063936
C	-2.2826980493	-0.4195059905	 1.9538777999	 0.015929
O	-2.0019262848	 0.9673345346	 1.6988080165	-0.256679
C	-2.5557699026	 0.1744849263	 0.6314589939	 0.017581
C	-1.4077138386	-0.6319012917	-0.0172254322	-0.102012
H	-0.444399098	 1.7923820504	 0.5666300269	 0.294387
H	 0.6599726584	-0.3929185879	-0.7749098134	 0.087855
H	 1.1138275665	-1.3190948536	 1.4134016796	 0.101358
H	 0.448079576	 0.1301322336	 2.2009822334	 0.107539
H	-1.2000077201	-2.3385136802	 1.5504827584	 0.077358
H	-2.9336028599	-0.6247908015	 2.7964167907	 0.107849
H	-3.470816785	 0.545903087	 0.1846732497	 0.110347
H	-1.6969305866	-1.2359203211	-0.8771222691	 0.072529
159.2015	241.5693	334.9047	410.2125	477.5767	562.0318	642.8424	683.8063	725.4966	791.1773	804.8785	832.2661	869.755	888.9402	916.427	968.9129	973.0343	1014.8559	1025.3562	1060.414	1091.809	1112.125	1154.0449	1197.341	1208.4483	1229.1653	1243.8065	1260.5622	1290.7134	1298.582	1329.9529	1378.5565	1451.425	1464.5008	3064.0574	3071.14	3113.8073	3121.076	3130.2186	3175.1154	3190.4973	3768.8896
OC1CC2C3OC3C12	O[C@H]1C[C@H]2[C@H]3O[C@H]3[C@@H]12	
InChI=1S/C6H8O2/c7-3-1-2-4(3)6-5(2)8-6/h2-7H,1H2	InChI=1S/C6H8O2/c7-3-1-2-4(3)6-5(2)8-6/h2-7H,1H2/t2-,3+,4-,5-,6+/m1/s1
