19
gdb 49734	2.66128	1.27717	1.23904	4.1329	76.04	-0.2349	-0.0175	0.2174	1122.8882	0.161113	-423.025601	-423.017742	-423.016797	-423.058153	30.273	
O	 0.1117401108	-0.1166936809	 0.4454190906	-0.278245
C	 0.058637159	 1.0152090532	 0.02057888	 0.138539
C	 1.2452183298	 1.9029758448	-0.0472689476	-0.122076
C	 1.4718134136	 2.8982519207	-1.1934813574	-0.062009
C	 0.4441400925	 3.0948976538	-2.3102134096	-0.240961
C	-0.6339097086	 4.1049105821	-1.9019807731	-0.071601
O	-1.1295038381	 3.8370743575	-0.5984546885	-0.236805
C	-0.1645589224	 4.1230904525	 0.3997729203	-0.111787
C	 1.1589674797	 3.4105533436	 0.1803426258	-0.068775
H	-0.8948163306	 1.4517999822	-0.3336106102	 0.096959
H	 2.1386500706	 1.4179604911	 0.3326360567	 0.103861
H	 2.5079394658	 2.9519814357	-1.5102221474	 0.101924
H	 0.9536801235	 3.464249387	-3.206204036	 0.107672
H	-0.0223845954	 2.1453538737	-2.5905308307	 0.119675
H	-0.2266111984	 5.1288243972	-1.9381521107	 0.091508
H	-1.4946453293	 4.0592136226	-2.5744387537	 0.113147
H	 0.0286608731	 5.209304954	 0.4249529609	 0.097497
H	-0.6200153192	 3.8433265602	 1.3547941087	 0.120719
H	 1.9757890437	 3.826939899	 0.7627406718	 0.100759
91.792	127.8685	204.3976	231.4888	328.516	396.4329	407.5455	465.5655	514.4431	537.492	718.6528	732.2887	807.248	846.6817	880.7718	923.6078	957.1003	974.8	1030.4305	1062.0286	1074.469	1091.5328	1100.9847	1131.516	1149.1071	1158.6176	1235.1539	1249.5593	1268.7738	1322.3908	1339.09	1353.9686	1368.0183	1382.5586	1413.1863	1435.1694	1454.679	1489.5578	1493.96	1504.1315	1799.6241	2954.8958	2960.06	2971.986	3047.6989	3076.3075	3082.6192	3095.0547	3147.6808	3157.4571	3171.2988
O=CC1C2CCOCC12	O=C[C@H]1[C@H]2CCOC[C@@H]12	
InChI=1S/C7H10O2/c8-3-6-5-1-2-9-4-7(5)6/h3,5-7H,1-2,4H2	InChI=1S/C7H10O2/c8-3-6-5-1-2-9-4-7(5)6/h3,5-7H,1-2,4H2/t5-,6+,7-/m1/s1
