19
gdb 47734	2.53729	1.64906	1.131	2.7471	75.73	-0.2322	-0.0205	0.2117	1096.2625	0.160283	-423.038427	-423.030448	-423.029503	-423.071141	31.001	
O	-0.0072987927	 0.1078306846	 0.5669380074	-0.326781
C	 0.0134640721	 1.2406186975	 0.1340521032	 0.300887
C	-1.3011880799	 1.9618126195	-0.1769879105	-0.181063
O	-1.2020478628	 3.0564693854	-1.0610191743	-0.242796
C	-0.1786421308	 3.9648009825	-0.6856414053	-0.085124
C	 1.1876286373	 3.3041659982	-0.8514008249	-0.298399
C	 1.276081742	 2.0338232224	-0.0162171452	 0.23339
C	 2.1514090612	 2.0152906392	 1.2434798993	-0.282967
C	 2.568732431	 1.2482599682	 0.0335447564	-0.297887
H	-1.9981827512	 1.2426538046	-0.6134116045	 0.139662
H	-1.717756582	 2.2783463069	 0.7975320227	 0.115505
H	-0.2816995506	 4.8322756457	-1.3430638332	 0.111802
H	-0.3265525316	 4.3036785969	 0.3539402496	 0.089389
H	 1.3192199581	 3.0625674035	-1.9133068793	 0.11526
H	 1.9878801867	 4.0012697046	-0.5768098709	 0.097741
H	 2.6684067461	 2.9374450413	 1.4870090938	 0.117397
H	 1.7755810672	 1.4539407476	 2.0910405466	 0.136096
H	 2.4679205385	 0.1697894804	 0.0661090197	 0.141857
H	 3.3897572114	 1.6292816811	-0.5642671605	 0.11603
61.212	133.9106	252.0596	275.1556	292.7389	368.3718	385.371	462.9444	500.7587	580.8119	634.3872	669.7283	790.5367	817.0788	855.5578	880.5102	943.348	965.3744	992.6738	1019.6118	1027.3562	1061.3764	1090.3394	1117.8859	1131.859	1167.6718	1203.356	1223.1818	1241.2048	1300.0764	1310.1759	1345.6904	1360.9178	1385.3095	1408.8269	1450.9674	1458.9721	1478.1652	1486.0835	1501.0114	1790.4044	2940.355	2965.3062	3026.2277	3068.3577	3091.9155	3108.3231	3133.8861	3137.6264	3223.4921	3237.8277
O=C1COCCC11CC1	O=C1COCCC21CC2	
InChI=1S/C7H10O2/c8-6-5-9-4-3-7(6)1-2-7/h1-5H2	InChI=1S/C7H10O2/c8-6-5-9-4-3-7(6)1-2-7/h1-5H2
