21
gdb 70445	2.60241	1.46993	1.2341	2.3917	82.72	-0.2091	0.0722	0.2813	1124.9799	0.183023	-383.191879	-383.18328	-383.182336	-383.225285	33.385	
C	 0.6000033481	 1.492314144	-0.3799976532	-0.511477
C	 0.3382314907	 0.02457595	-0.2194609772	 0.303562
N	-0.973267367	-0.4804796636	 0.2710132431	-0.36505
C	 0.2677799836	-0.8190892128	 1.0103751944	-0.101276
C	 0.8614734253	-2.038200082	 0.3039080653	-0.244868
C	 1.0437752437	-1.1470226248	-0.9706735666	 0.016146
N	 0.6402184	-1.7098753475	-2.2401118942	-0.092684
C	-0.7639052088	-1.6846873426	-2.6444516068	-0.22074
C	 0.2368248042	-0.8033077261	-3.3096844322	-0.230782
H	 1.668078607	 1.6860970403	-0.5273119506	 0.126095
H	 0.0651513784	 1.9119743431	-1.2402127317	 0.128235
H	 0.2795387949	 2.0474100604	 0.5097677032	 0.115349
H	-1.413557473	 0.2967333969	 0.7646774753	 0.221611
H	 0.3856971355	-0.5227890589	 2.0458173177	 0.090544
H	 1.8061444433	-2.39700701	 0.7162810864	 0.101521
H	 0.1660349073	-2.8725079653	 0.1896475014	 0.113109
H	 2.1010842538	-0.8739071297	-1.0691620387	 0.081091
H	-1.1071605102	-2.5840818457	-3.1497330515	 0.107417
H	-1.4804474153	-1.2244839453	-1.9738671715	 0.14544
H	 0.1818314644	 0.261369827	-3.0914005468	 0.106488
H	 0.616222974	-1.0416166674	-4.3000855756	 0.11027
46.9848	150.0783	179.3562	217.5175	263.5587	299.7662	328.289	422.1173	458.4289	561.1178	634.3236	689.4175	759.5575	811.019	837.6132	883.2444	901.4572	908.4755	942.0822	953.4867	1014.5367	1028.4144	1048.7697	1074.1573	1086.3258	1102.2884	1115.1438	1125.1535	1130.4412	1170.2164	1182.8607	1191.7071	1231.9818	1249.2389	1303.1311	1323.1931	1344.0599	1373.9524	1410.1547	1434.2713	1478.4507	1482.182	1493.6837	1497.2524	1520.9932	3018.2555	3035.0476	3073.0655	3078.3178	3090.584	3097.7074	3113.7955	3131.146	3178.0075	3185.9102	3218.9855	3456.383
CC12NC1CC2N1CC1	C[C@]12N[C@H]1C[C@H]2N1CC1	
InChI=1S/C7H12N2/c1-7-5(8-7)4-6(7)9-2-3-9/h5-6,8H,2-4H2,1H3	InChI=1S/C7H12N2/c1-7-5(8-7)4-6(7)9-2-3-9/h5-6,8H,2-4H2,1H3/t5-,6+,7-/m0/s1
