17
gdb 84178	3.49525	1.18832	0.98109	3.37	76.68	-0.2495	-0.0624	0.1871	1185.4679	0.135916	-421.827605	-421.81955	-421.818605	-421.860359	30.45	
O	-0.0375180328	 1.4491657683	-0.0975876997	-0.422911
C	 0.0110579959	 0.0284071744	 0.0069175143	 0.061512
C	 0.6253401264	-0.4572898209	 1.311671973	-0.206456
C	-0.2098467328	-1.2512323728	 1.9991833873	 0.24452
C	 0.1135747044	-1.8912400223	 3.2798263481	 0.07324
O	-0.6369167645	-2.6251934093	 3.8828154173	-0.266724
C	-1.5275008237	-1.3862482466	 1.3063451851	-0.146823
C	-2.2978893289	-0.0897872416	 1.1698130293	-0.272399
C	-1.4016761747	-0.5492212788	 0.0487971717	-0.050155
H	 0.8613996935	 1.7729603824	-0.2163282052	 0.284983
H	 0.5656819748	-0.388469187	-0.8495980045	 0.080575
H	 1.6140364692	-0.1534692828	 1.6425510311	 0.106727
H	 1.1314865298	-1.6611607401	 3.6667517032	 0.068268
H	-2.0591173729	-2.3281472942	 1.3421981122	 0.10757
H	-3.3661682683	-0.1630231467	 0.9984442459	 0.11701
H	-1.9883844074	 0.7607708377	 1.7661337525	 0.128044
H	-1.856515178	-0.8594787498	-0.8831386416	 0.093018
87.0891	153.3333	181.3996	222.2827	261.1446	282.9606	418.7159	477.5639	548.295	577.6192	698.085	720.7781	800.0177	823.5331	849.2015	862.0674	952.7217	964.0887	1004.054	1035.981	1043.1643	1064.0466	1069.8922	1102.2797	1107.3181	1184.1135	1196.4815	1232.3727	1267.271	1327.4583	1373.3048	1392.9973	1409.3193	1426.3955	1482.3121	1672.5347	1787.2961	2880.7292	2963.1295	3138.1701	3181.4956	3190.8196	3202.8739	3229.1763	3814.1795
OC1C=C(C=O)C2CC12	O[C@H]1C=C(C=O)[C@H]2C[C@@H]12	
InChI=1S/C7H8O2/c8-3-4-1-7(9)6-2-5(4)6/h1,3,5-7,9H,2H2	InChI=1S/C7H8O2/c8-3-4-1-7(9)6-2-5(4)6/h1,3,5-7,9H,2H2/t5-,6-,7+/m1/s1
