18
gdb 16105	4.23259	1.61488	1.41925	0.985	78.34	-0.2338	0.0547	0.2886	936.4327	0.154999	-310.644117	-310.636845	-310.635901	-310.675173	29.206	
C	 0.0209814289	-1.204368671	-0.2791391898	-0.402257
C	 0.0268881387	-0.0125713177	-0.109936202	 0.172141
C	 0.0162281402	 1.4018990143	 0.1122943139	 0.206201
C	 0.248792627	 2.3409655469	-1.0639879735	-0.32929
C	 1.287354633	 2.2492540682	 0.0176976383	-0.063623
C	 1.2498976478	 3.2790989542	 1.1347663005	-0.214936
C	-0.2378058148	 3.3625074128	 1.5501320251	-0.235476
C	-0.8171839433	 1.957563781	 1.2719114504	-0.273067
H	 0.0197540882	-2.2544602721	-0.4336642974	 0.181873
H	 0.4788376798	 1.8692222104	-2.0119012489	 0.123052
H	-0.3686202125	 3.2298266278	-1.1457077393	 0.112709
H	 2.2294780531	 1.770836965	-0.2237092357	 0.09515
H	 1.8626616291	 2.9225560569	 1.9711253986	 0.104
H	 1.6506008133	 4.253076205	 0.833126857	 0.100253
H	-0.3626890463	 3.6612359993	 2.5939269739	 0.101706
H	-0.7570595705	 4.1135046556	 0.9468531859	 0.106843
H	-1.8883785113	 1.9804805094	 1.0478713863	 0.10401
H	-0.6808128504	 1.3024417141	 2.1391437067	 0.11071
139.1538	154.5422	247.2862	296.1066	385.3456	482.2049	520.5212	545.1736	573.678	621.8318	639.6735	673.0383	808.0758	818.2872	882.5572	890.4172	922.4895	942.5289	979.7898	999.0213	1052.6645	1073.1469	1078.4585	1112.6708	1178.05	1198.8877	1244.8577	1254.6303	1272.6678	1319.9389	1337.7253	1343.5767	1398.4254	1479.9235	1490.7539	1496.454	1518.7365	2232.5041	3033.3683	3044.0526	3054.0249	3072.2667	3083.1426	3103.966	3132.7347	3178.9904	3223.2225	3505.1958
C#CC12CC1CCC2	C#C[C@]12C[C@H]1CCC2	
InChI=1S/C8H10/c1-2-8-5-3-4-7(8)6-8/h1,7H,3-6H2	InChI=1S/C8H10/c1-2-8-5-3-4-7(8)6-8/h1,7H,3-6H2/t7-,8+/m1/s1
