17
gdb 115265	5.11449	0.85913	0.7828	2.2726	81.39	-0.2354	-0.0334	0.202	1425.603	0.134809	-421.793734	-421.784909	-421.783965	-421.827725	32.433	
O	 0.0477573406	 1.3638719273	-0.278499435	-0.420239
C	 0.0595720373	-0.029491166	-0.0577238915	-0.0532
C	-1.3570242615	-0.5451726017	 0.2305376281	 0.061915
O	-2.2025829613	-0.1657763974	-0.8682054083	-0.292371
C	-2.7712184687	-1.3146296257	-1.4857018949	-0.173068
C	-2.2692935082	-2.4907462097	-0.6706045555	 0.177618
C	-1.4802439287	-2.0358507417	 0.3093356213	-0.238759
C	-2.6327285185	-3.8228537427	-0.9664706692	 0.216971
C	-2.9757789972	-4.9392781278	-1.2620810461	-0.415122
H	-0.6360793553	 1.5174670169	-0.9420875382	 0.291825
H	 0.4683346041	-0.5791255689	-0.92104615	 0.085881
H	 0.7110313772	-0.2164054017	 0.8031752947	 0.105938
H	-1.7245957737	-0.0429298517	 1.1391535015	 0.09626
H	-3.8681731829	-1.2447823382	-1.4693956535	 0.120161
H	-2.4588828176	-1.3838756154	-2.5377162631	 0.117919
H	-0.9810719545	-2.639205673	 1.0555867431	 0.118928
H	-3.268848041	-5.9298648724	-1.5083766133	 0.199343
64.6199	109.2186	114.4961	162.25	231.6222	315.2027	411.8718	468.9529	486.1246	518.177	536.3406	574.5407	611.1814	644.743	759.8276	835.5652	870.0031	910.5246	990.7706	1021.3287	1040.1797	1079.5539	1080.7051	1104.4672	1194.7757	1198.5941	1224.0423	1265.6152	1307.9037	1344.7649	1378.8024	1389.0679	1432.3747	1498.4244	1523.9596	1681.706	2226.6476	2971.445	2987.761	2995.3852	3021.0404	3071.4482	3229.5478	3502.2414	3786.4106
OCC1OCC(=C1)C#C	OC[C@H]1OCC(=C1)C#C	
InChI=1S/C7H8O2/c1-2-6-3-7(4-8)9-5-6/h1,3,7-8H,4-5H2	InChI=1S/C7H8O2/c1-2-6-3-7(4-8)9-5-6/h1,3,7-8H,4-5H2/t7-/m0/s1
