16
gdb 128694	2.64905	1.63235	1.01645	4.5493	78.93	-0.1961	-0.014	0.1822	1123.5033	0.126233	-434.068241	-434.060225	-434.059281	-434.100824	30.048	
C	-0.0078844588	 1.3650392256	 0.0288978346	-0.226224
O	 0.0335807463	-0.0590424467	 0.051430911	-0.221398
C	 0.6515725135	-0.6373936644	 1.0831172581	 0.434421
N	 1.1791241099	 0.1065183362	 2.0044887927	-0.315911
N	 1.7973678282	-0.5294130925	 3.0332436527	-0.250251
C	 1.8846739717	-1.8762705302	 3.1423018927	 0.038302
C	 1.344979991	-2.6851183993	 2.1983279716	-0.221703
C	 0.6611001974	-2.1223204005	 1.0509937109	 0.198249
N	 0.0965939885	-2.7352624407	 0.0693019706	-0.539471
H	 1.0018842693	 1.786926484	 0.0074562481	 0.130654
H	-0.5487429986	 1.6265647604	-0.8810007176	 0.134471
H	-0.5285259715	 1.7566286303	 0.9084779984	 0.130627
H	 2.1857172336	 0.0889500207	 3.723247881	 0.274669
H	 2.4069532986	-2.2399082302	 4.0199556419	 0.130282
H	 1.4224485128	-3.7611110205	 2.2966215157	 0.101868
H	 0.1918439982	-3.7457180822	 0.1989907577	 0.201415
96.4317	140.3959	198.5554	228.74	325.5682	350.4735	356.0075	483.2245	508.708	552.8138	565.3406	604.828	751.3645	768.5496	813.3961	883.5385	903.7027	936.4293	1040.7624	1061.4312	1094.0013	1167.8292	1178.1074	1216.1961	1280.3329	1323.0458	1402.4149	1431.1222	1479.8345	1480.5441	1497.471	1544.0616	1619.901	1645.4463	1677.7067	3035.9909	3102.9613	3150.7545	3193.3446	3211.5509	3429.7303	3677.3982
COC1=NNC=CC1=N	COC1=NNCC=C1[NH]	
InChI=1S/C5H7N3O/c1-9-5-4(6)2-3-7-8-5/h2-3H,1H3,(H2,6,7)	InChI=1S/C5H8N3O/c1-9-5-4(6)2-3-7-8-5/h2,6-7H,3H2,1H3
