23
gdb 36863	4.22053	0.85011	0.75528	0.1777	92.88	-0.2237	0.0341	0.2578	1590.234	0.207241	-351.162473	-351.153448	-351.152504	-351.19719	34.282	
C	 0.0232272207	 1.3986936436	-0.4019395427	-0.337461
C	-0.0163067372	-0.0757425531	-0.0277304646	 0.041698
C	-0.3718237636	-0.5111872478	 1.3725441612	-0.249188
C	-1.3362333944	-0.7531253854	 0.2372288885	-0.2809
C	 1.365905317	 2.0430624297	-0.2024252269	 0.358781
C	 2.1165503783	 2.620236394	-1.1437374908	-0.17724
C	 3.3831496538	 3.2299386157	-0.5953826086	-0.24209
C	 3.4575311718	 2.6427336433	 0.8379654496	-0.203332
C	 2.0190446156	 2.1679311212	 1.1625325034	-0.296564
H	-0.2804807873	 1.5172754127	-1.449524382	 0.098802
H	-0.7324324254	 1.9254818123	 0.2006900586	 0.093488
H	 0.7324832142	-0.6781149374	-0.5356868865	 0.083403
H	 0.1457333221	-1.3626878873	 1.8007133629	 0.108927
H	-0.6245808002	 0.2604075308	 2.0927086713	 0.109604
H	-2.2337213015	-0.1438674683	 0.1969688943	 0.108728
H	-1.4760264963	-1.769722482	-0.1133714688	 0.109345
H	 1.8376690884	 2.6944567076	-2.1903921925	 0.078136
H	 4.2709246575	 2.9892842507	-1.1919235188	 0.097446
H	 3.3129512096	 4.3276637383	-0.5854478694	 0.100361
H	 4.1321653475	 1.7805835768	 0.8408318833	 0.102053
H	 3.8454117605	 3.3555170308	 1.5702498387	 0.092967
H	 1.4723086473	 2.9002936472	 1.7756514288	 0.095869
H	 2.0052371815	 1.2301441265	 1.7274880909	 0.107168
46.8478	80.251	102.8296	146.9709	270.9237	278.4664	318.4998	394.8885	494.5769	605.5945	690.4836	772.8176	800.8215	809.1731	835.4546	845.3861	873.9217	895.3956	918.225	918.7862	936.6866	965.9066	1009.2034	1038.5838	1056.0032	1063.4105	1077.7756	1127.7057	1142.2798	1151.7912	1172.9698	1198.7718	1223.7766	1229.5202	1240.9429	1251.2799	1293.7591	1319.9789	1325.3629	1333.4582	1370.9647	1404.397	1467.048	1476.3604	1484.2024	1488.4247	1505.9604	1507.8825	1715.9386	2989.4733	2995.2071	2998.4072	3041.1008	3044.9122	3053.909	3067.4348	3098.6575	3126.7657	3131.0507	3139.7245	3177.2323	3204.2066	3219.5873
C(C1CC1)C1=CCCC1	C(C1CC1)C1=CCCC1	
InChI=1S/C9H14/c1-2-4-8(3-1)7-9-5-6-9/h3,9H,1-2,4-7H2	InChI=1S/C9H14/c1-2-4-8(3-1)7-9-5-6-9/h3,9H,1-2,4-7H2
