17
gdb 30700	4.16043	0.95869	0.80373	1.8252	69.81	-0.2324	0.0086	0.2411	1359.0515	0.136406	-458.976906	-458.968522	-458.967578	-459.010595	31.294	
O	-0.1002960987	 1.5115250621	 0.1499973003	-0.423125
C	-0.0884904002	 0.1254401129	 0.4018162179	-0.057902
C	-1.3748128956	-0.5281549507	-0.1220254398	-0.03617
O	-1.5474738625	-0.1693232799	-1.4981727675	-0.435835
C	-1.4111473954	-2.015675964	 0.0700029385	 0.216325
C	-1.8653008624	-2.9299437973	-0.8317555586	-0.101247
O	-1.751333503	-4.1923659078	-0.3410495903	-0.142799
C	-1.2182175529	-4.0839037349	 0.9025737115	 0.008673
C	-0.986577206	-2.7828777907	 1.2119315769	-0.300518
H	-0.4563965095	 1.6056218864	-0.7434562007	 0.285518
H	 0.7795129992	-0.3717420526	-0.0678088442	 0.079299
H	 0.0007589454	-0.0125926943	 1.4845849125	 0.107994
H	-2.221767846	-0.0505742953	 0.3864842828	 0.114943
H	-0.8943795463	-0.6708876583	-2.0028003142	 0.280693
H	-2.2986600479	-2.8403809016	-1.813222773	 0.145437
H	-1.0637047259	-5.0110766837	 1.4293078624	 0.141167
H	-0.5697782223	-2.4105489203	 2.1345175253	 0.117546
51.7705	113.2895	136.9688	218.3221	298.2429	361.8203	383.4681	448.5437	497.7712	529.305	624.3339	643.6876	741.9655	775.7985	808.6121	835.6579	877.0249	894.7582	992.8111	1047.135	1071.3952	1078.2656	1099.4942	1109.5302	1199.1425	1206.1081	1246.7664	1256.877	1298.7605	1305.8539	1376.062	1396.7883	1424.9405	1441.5953	1505.632	1533.7921	1626.8223	2944.3238	3037.1274	3072.3296	3254.5383	3283.533	3288.673	3762.0943	3773.401
OCC(O)C1=COC=C1	OC[C@@H](O)c1cocc1	
InChI=1S/C6H8O3/c7-3-6(8)5-1-2-9-4-5/h1-2,4,6-8H,3H2	InChI=1S/C6H8O3/c7-3-6(8)5-1-2-9-4-5/h1-2,4,6-8H,3H2/t6-/m1/s1
