15
gdb 24984	4.71259	1.27857	1.02486	5.3992	67.93	-0.1881	0.0345	0.2226	1093.3236	0.11597	-453.981773	-453.974727	-453.973783	-454.013284	26.994	
O	 0.0258012265	 0.0196312062	 0.0282879068	-0.388724
C	-0.016287126	 1.2173183714	 0.030280685	 0.454519
N	-1.1341644632	 2.0484495122	-0.0822313322	-0.475085
C	-0.7177689003	 3.3594245027	 0.0790419166	 0.326621
C	 0.6061828569	 3.3466337938	 0.2483635109	 0.221936
C	 1.1993866086	 4.6845765843	-0.0400348319	-0.323796
C	-0.110705639	 5.5373307396	 0.0614270397	-0.169622
N	-1.2546677472	 4.6082572058	-0.2471484707	-0.394097
O	 1.0836290853	 2.0463161126	 0.1768342612	-0.244596
H	-2.0647890024	 1.6691386493	-0.0746876602	 0.275269
H	 1.9592307051	 5.0393830382	 0.6628266773	 0.120475
H	 1.6324437093	 4.733689028	-1.0494286103	 0.121446
H	-0.2049353194	 5.9241106277	 1.0830106455	 0.115986
H	-0.1216597986	 6.3793950049	-0.6327717182	 0.123222
H	-2.0906150556	 4.8656256732	 0.2682069904	 0.236446
120.4629	180.717	237.7041	302.2636	331.7163	408.0843	532.7589	582.6333	638.1263	696.4634	727.9108	759.5549	820.8771	837.388	881.1751	926.2907	940.9487	1000.9918	1052.5026	1087.0225	1178.2151	1193.0829	1253.8592	1273.3641	1282.5532	1334.5782	1354.2125	1401.5538	1492.8989	1505.0432	1522.1101	1741.8995	1895.3448	3001.6342	3032.2534	3070.1694	3112.2857	3506.9325	3687.5395
O=C1NC2=C(CCN2)O1	O=c1[nH]c2c(CCN2)o1	
InChI=1S/C5H6N2O2/c8-5-7-4-3(9-5)1-2-6-4/h6H,1-2H2,(H,7,8)	InChI=1S/C5H6N2O2/c8-5-7-4-3(9-5)1-2-6-4/h6H,1-2H2,(H,7,8)
