20
gdb 98785	4.04628	1.01779	0.82984	3.6206	81.75	-0.2295	0.0106	0.2401	1402.513	0.170977	-403.195716	-403.186504	-403.185559	-403.23046	33.274	
C	 0.0144939004	 1.5024615178	 0.0109661222	-0.375351
C	-0.0467094706	-0.0232377809	 0.0039921991	-0.298412
C	-1.4828580499	-0.5427657974	 0.012796779	 0.407969
O	-2.452806459	 0.1999680932	 0.0223270104	-0.382941
N	-1.6328064686	-1.8980695823	 0.0093247138	-0.098798
C	-0.572541132	-2.9059117801	-0.0033108707	-0.20764
C	-1.3540922383	-4.1925673566	-0.0040552138	-0.081212
C	-2.6639756207	-3.9654675554	 0.0065447236	-0.079052
C	-2.9711466739	-2.4951751975	 0.0160741011	-0.191818
H	 1.0530141256	 1.8460346003	 0.003713896	 0.102107
H	-0.4971417395	 1.9151104266	-0.86159536	 0.132374
H	-0.4819257121	 1.9065462223	 0.8962523755	 0.132265
H	 0.4704249817	-0.4290626944	-0.8756966295	 0.116123
H	 0.4845518753	-0.4377377239	 0.8710941598	 0.116064
H	 0.0741685129	-2.8163279064	-0.8898424596	 0.117483
H	 0.0868407625	-2.8251285603	 0.8747045679	 0.117483
H	-0.8664765287	-5.1589662888	-0.0123409505	 0.107884
H	-3.442648353	-4.7174627513	 0.0084943684	 0.109362
H	-3.5413845447	-2.178334256	 0.9001239926	 0.128026
H	-3.5540966073	-2.1694419787	-0.8563592254	 0.128084
57.3713	74.3728	122.8222	163.8142	190.7927	229.5906	296.8183	370.9336	406.9182	527.7428	577.5697	690.6011	693.9469	805.8264	816.7012	824.3481	939.9606	964.8844	971.3213	994.8812	1026.0662	1028.0364	1042.9792	1096.3925	1100.8478	1131.5075	1188.3204	1201.2695	1233.5429	1287.531	1321.769	1324.7392	1365.6751	1383.1398	1412.7977	1441.0193	1461.5199	1489.1476	1497.9472	1508.9632	1519.8482	1696.4384	1753.7516	2976.1138	2990.7212	3009.3358	3018.2955	3026.3365	3047.5744	3051.6828	3122.7598	3132.8171	3208.1791	3231.8004
CCC(=O)N1CC=CC1	CCC(=O)N1CC=CC1	
InChI=1S/C7H11NO/c1-2-7(9)8-5-3-4-6-8/h3-4H,2,5-6H2,1H3	InChI=1S/C7H11NO/c1-2-7(9)8-5-3-4-6-8/h3-4H,2,5-6H2,1H3
