18
gdb 6922	5.09788	1.00657	0.94595	3.31	69.8	-0.2489	-0.0246	0.2243	1259.3278	0.149929	-384.940337	-384.931038	-384.930094	-384.975092	32.504	
C	 0.1110927233	 1.5096863033	-0.1877284134	-0.455734
C	-0.0760927645	 0.0364466574	 0.1002243904	 0.396937
C	-1.2682306184	-0.5980890403	-0.5859186783	-0.452273
O	 1.1216831986	-0.7624369725	 0.0608565914	-0.295615
C	 0.4541992123	-0.6060773379	 1.3207028732	-0.004493
C	 1.2226698027	 0.088439523	 2.4265339795	-0.317139
C	 2.3733799803	-0.7728041964	 2.9161828862	 0.161787
O	 2.5752335504	-1.0498278808	 4.0700678879	-0.237495
H	 1.01927619	 1.9066597489	 0.2676585626	 0.127972
H	 0.1848927411	 1.6691932738	-1.2688255017	 0.130196
H	-0.745684242	 2.0868777786	 0.1760020358	 0.125041
H	-1.185353032	-0.4879285753	-1.672543983	 0.127905
H	-1.3293694468	-1.6642021878	-0.3550136348	 0.129357
H	-2.2003759171	-0.1171860093	-0.2705307367	 0.122707
H	-0.0616482008	-1.5101793831	 1.6530322648	 0.095181
H	 1.6531246235	 1.0254676878	 2.0553862706	 0.123936
H	 0.5700485676	 0.3152683589	 3.275095905	 0.124604
H	 3.0407614417	-1.1400361783	 2.1059313104	 0.097128
47.8348	64.5384	126.8823	160.8472	202.7317	231.206	291.7626	366.4697	411.6811	432.5696	507.3772	524.6731	703.722	790.0326	826.695	900.6348	944.7851	964.9765	1000.2826	1043.8011	1087.8796	1118.1608	1137.259	1154.641	1223.6952	1264.9938	1293.8941	1355.2211	1409.3961	1418.7821	1420.9896	1446.0228	1458.7034	1472.0597	1486.507	1498.9898	1516.7468	1833.9012	2898.449	3034.8449	3040.7477	3046.4032	3077.5975	3096.8784	3102.2656	3107.104	3125.5649	3139.8607
CC1(C)OC1CC=O	CC1(C)O[C@H]1CC=O	
InChI=1S/C6H10O2/c1-6(2)5(8-6)3-4-7/h4-5H,3H2,1-2H3	InChI=1S/C6H10O2/c1-6(2)5(8-6)3-4-7/h4-5H,3H2,1-2H3/t5-/m0/s1
