17
gdb 131666	5.14066	0.8415	0.74155	2.468	72.4	-0.2282	0.0263	0.2545	1484.0273	0.136616	-455.150289	-455.141129	-455.140185	-455.185331	32.306	
O	 0.7752127327	-0.4144206481	 0.6976684862	-0.424793
C	-0.0460186157	 0.3334297923	-0.1927256597	-0.195778
C	-1.4640164829	-0.0797966103	 0.0390029633	 0.402886
C	-2.6756755195	 0.5216730511	-0.2326289979	-0.395769
C	-3.6451474985	-0.424636724	 0.1733798476	 0.360578
C	-5.133571175	-0.28365301	 0.1351256245	-0.186321
O	-5.4942027437	 0.3532700453	-1.0860885204	-0.419163
N	-3.0804561069	-1.5266611277	 0.6631555638	-0.302174
N	-1.7577793756	-1.2930891488	 0.5649738444	-0.235627
H	 1.6905094345	-0.3088189201	 0.4236948607	 0.296275
H	 0.0541261836	 1.4163359479	-0.0278606976	 0.113909
H	 0.2376238146	 0.1374159195	-1.2391723779	 0.113885
H	-2.8474433716	 1.4897543066	-0.6732048928	 0.105656
H	-5.5836325537	-1.2817465034	 0.2323579533	 0.107124
H	-5.474092024	 0.3155825473	 0.9957864386	 0.095239
H	-6.4354911556	 0.546688994	-1.0476282323	 0.286706
H	-1.0910932626	-1.9578895417	 0.919243836	 0.277366
43.0343	60.6212	126.6459	197.0593	213.9906	253.1568	269.3427	347.8026	447.8169	459.1776	558.4058	657.5568	673.2697	716.3295	760.8122	815.2748	1001.2914	1024.5436	1030.8674	1037.462	1064.2857	1076.7486	1151.8554	1182.6266	1218.1204	1236.1776	1239.6916	1244.3493	1319.2478	1405.5864	1437.4086	1461.6737	1498.6981	1512.9491	1515.3605	1520.8013	1611.313	2961.049	2970.3872	3005.7028	3017.5002	3272.6955	3680.8407	3828.0197	3840.0272
OCC1=CC(CO)=NN1	OCc1cc(CO)n[nH]1	
InChI=1S/C5H8N2O2/c8-2-4-1-5(3-9)7-6-4/h1,8-9H,2-3H2,(H,6,7)	InChI=1S/C5H8N2O2/c8-2-4-1-5(3-9)7-6-4/h1,8-9H,2-3H2,(H,6,7)
