22
gdb 7640	3.63797	1.31304	1.24457	1.4679	78.29	-0.2395	0.0835	0.3231	1134.9415	0.198903	-350.205323	-350.195974	-350.19503	-350.239334	34.635	
C	-0.1315704835	 1.5173643361	-0.0998948943	-0.387916
C	-0.07720045	-0.0164009439	-0.0125777422	 0.00985
C	-1.4913253649	-0.6099034956	 0.0139002651	-0.395526
C	 0.7851818957	-0.5605333982	-1.151895662	 0.180394
C	 0.9465806386	-2.0770932845	-1.3944489425	-0.339584
C	 0.519880524	-1.7445230697	-2.8410608686	 0.186156
C	-0.6439532943	-2.489391609	-3.4606999689	-0.403474
O	 0.1805560941	-0.387893784	-2.4596746216	-0.317703
H	 0.871287493	 1.9553609464	-0.0560900326	 0.107535
H	-0.5925019353	 1.8293913817	-1.0427298251	 0.13392
H	-0.7196954326	 1.9387723532	 0.7213451117	 0.107047
H	 0.4395323848	-0.2922067673	 0.9189612175	 0.070551
H	-2.0054776846	-0.4079958089	-0.9301021897	 0.13178
H	-1.4840542065	-1.6927394783	 0.1723036907	 0.106856
H	-2.0776425367	-0.1655633186	 0.824169913	 0.108268
H	 1.7614206884	-0.0514846865	-1.1236588567	 0.06264
H	 1.9470061693	-2.4895016107	-1.2546112886	 0.102601
H	 0.2225865903	-2.6984148677	-0.8629114844	 0.105795
H	 1.3724531789	-1.7352968118	-3.536547035	 0.069979
H	-1.4906377643	-2.5361303826	-2.7692750498	 0.120565
H	-0.9747383404	-1.9884480854	-4.3762268312	 0.126099
H	-0.347106364	-3.5118296547	-3.7198153649	 0.114169
64.1209	72.0309	193.474	197.1327	227.7833	251.5569	272.5723	328.9767	360.6114	436.5859	439.1344	578.6491	658.0251	776.3097	870.3623	895.9341	920.6437	927.5976	931.0059	962.7721	969.4379	1028.934	1066.8493	1092.5352	1129.4543	1144.0665	1165.3557	1200.8074	1207.7161	1249.8727	1282.5766	1314.7505	1333.1198	1369.7137	1377.9649	1391.156	1400.8222	1409.6964	1427.7493	1481.5134	1483.9818	1492.3834	1494.8289	1498.0261	1506.0356	1515.9883	2970.6366	2987.0403	2998.0309	3031.5321	3033.0691	3038.9073	3075.0675	3098.611	3101.6273	3103.7768	3107.2148	3113.5498	3118.0566	3130.7296
CC(C)C1CC(C)O1	CC(C)[C@H]1C[C@@H](C)O1	
InChI=1S/C7H14O/c1-5(2)7-4-6(3)8-7/h5-7H,4H2,1-3H3	InChI=1S/C7H14O/c1-5(2)7-4-6(3)8-7/h5-7H,4H2,1-3H3/t6-,7-/m1/s1
