19
gdb 106356	3.44274	1.25087	1.11479	2.6895	75.58	-0.2376	-0.0079	0.2297	1141.0697	0.159506	-423.026639	-423.018571	-423.017627	-423.059342	31.303	
C	 0.045155964	 1.352820085	-0.0891211754	-0.26565
O	-0.025621515	-0.0472027587	 0.1005303533	-0.296195
C	-1.3046180206	-0.5793863873	 0.0622982184	 0.450729
C	-2.1813153872	-0.605894012	-1.2360919586	-0.304147
C	-2.8529457328	-1.817583195	-0.5059232191	-0.136494
C	-1.428791579	-2.1207893096	 0.0715273853	-0.291214
C	-3.4787244087	-1.1083448366	 0.6857829135	 0.439953
O	-4.571728675	-1.2414908689	 1.1639740193	-0.333099
C	-2.3409061489	-0.1626548629	 1.1357301261	-0.405599
H	 1.1044093858	 1.6178800086	-0.0952092592	 0.132983
H	-0.4015568141	 1.6564754012	-1.0467759517	 0.112841
H	-0.4523903281	 1.9055139175	 0.7197549893	 0.114783
H	-2.8052742549	 0.2583662397	-1.4785365607	 0.103825
H	-1.6093093031	-0.9285868453	-2.1085066188	 0.114157
H	-3.4544257021	-2.5606808969	-1.0227101098	 0.087901
H	-0.7800859939	-2.5843283844	-0.674003762	 0.115708
H	-1.3533739554	-2.6425526312	 1.0290221531	 0.108185
H	-2.0170512312	-0.3771967192	 2.1585794258	 0.128425
H	-2.6570036798	 0.8830093961	 1.0803948911	 0.122908
83.5623	126.8377	179.2679	218.6642	333.4644	372.3615	460.31	483.0431	504.9124	538.3075	622.8797	664.5643	768.1399	797.9254	815.4575	909.422	938.8607	958.3416	995.1106	1017.3225	1018.8118	1062.7492	1068.6413	1125.6308	1136.7669	1179.5236	1181.8355	1197.7403	1218.6275	1228.2663	1235.3479	1264.781	1273.4414	1328.8128	1461.6762	1483.6947	1487.0592	1490.6708	1507.7939	1526.4094	1872.0761	2992.0651	3043.6929	3059.6134	3060.62	3066.2419	3109.157	3123.8014	3127.663	3132.6099	3160.3176
COC12CC(C1)C(=O)C2	CO[C@@]12C[C@@H](C1)C(=O)C2	
InChI=1S/C7H10O2/c1-9-7-2-5(3-7)6(8)4-7/h5H,2-4H2,1H3	InChI=1S/C7H10O2/c1-9-7-2-5(3-7)6(8)4-7/h5H,2-4H2,1H3/t5-,7-
