17
gdb 48331	2.37465	1.31019	1.05698	2.8422	73.79	-0.2589	-0.036	0.223	1176.9929	0.132928	-421.771776	-421.762485	-421.76154	-421.807076	32.616	
O	-0.3225925973	 0.123254492	-0.4816892363	-0.244476
C	-0.1143929163	 1.201450813	 0.0092844038	 0.118303
C	 1.2255275959	 1.9086331203	 0.0071324667	 0.173093
C	 1.4642252287	 2.6491722554	 1.3326901951	-0.451156
C	 1.5545622491	 1.7403370156	 2.4699487448	 0.292328
C	 1.6197631878	 0.9575254293	 3.3793926657	-0.422147
C	 2.4029391943	 1.0893316705	-0.5583752428	-0.112782
O	 2.5483245684	 1.9807445248	-1.6878037578	-0.26586
C	 1.4393762891	 2.7842678169	-1.2687562364	-0.117407
H	-0.9377038376	 1.7852481548	 0.4831017526	 0.080701
H	 2.3840360099	 3.2404110398	 1.2504609815	 0.144988
H	 0.6504758499	 3.369632634	 1.4963262347	 0.137114
H	 1.6784047593	 0.275253213	 4.1912510629	 0.205833
H	 3.300700785	 1.0657658058	 0.069104647	 0.110109
H	 2.1300670506	 0.0757076972	-0.8658829478	 0.132592
H	 0.6169070466	 2.7729544656	-1.9952064058	 0.113415
H	 1.7233702064	 3.825233402	-1.0644870179	 0.105352
49.6845	70.3009	74.2062	121.0833	259.7847	279.6062	318.334	339.3916	362.4476	460.1805	618.2787	639.0138	656.0435	709.5776	853.1557	883.473	910.5153	926.9957	964.8708	994.6288	1015.6439	1048.1312	1100.6307	1156.195	1165.7249	1167.3543	1238.2849	1306.1351	1318.6669	1334.8055	1373.5821	1428.185	1470.4514	1508.4818	1531.5954	1831.5083	2239.9853	2861.5802	3001.5633	3013.6408	3037.8074	3048.0074	3056.3915	3098.2854	3504.4912
O=CC1(CC#C)COC1	O=CC1(CC#C)COC1	
InChI=1S/C7H8O2/c1-2-3-7(4-8)5-9-6-7/h1,4H,3,5-6H2	InChI=1S/C7H8O2/c1-2-3-7(4-8)5-9-6-7/h1,4H,3,5-6H2
