15
gdb 50020	3.22952	1.05838	0.98216	3.7474	68.03	-0.2701	-0.0469	0.2232	1208.3059	0.111545	-457.779603	-457.771617	-457.770672	-457.81284	28.669	
O	-0.0456600376	-0.0054760446	-0.3571410798	-0.250566
C	 0.0306785847	 1.1339973203	 0.0224238758	 0.171763
C	 1.2786642042	 1.9380196774	 0.0330146867	-0.161345
C	 1.1533809719	 3.4390592562	-0.1540231464	-0.350551
C	 1.4956915328	 2.9013116785	 1.1890412667	 0.091506
C	 0.8261612441	 3.020899647	 2.5538684725	-0.153415
O	 2.1514006867	 3.1903757082	 3.1583270552	-0.247852
C	 2.7872102189	 3.0781869049	 1.9415700294	 0.450002
O	 3.9499184866	 3.1253016365	 1.7059457316	-0.332255
H	-0.8668235665	 1.682469538	 0.3971989533	 0.070267
H	 2.1605639803	 1.4398266048	-0.354363704	 0.138867
H	 1.9366864735	 3.9377513025	-0.7131055328	 0.158881
H	 0.154330476	 3.8413367448	-0.2929550932	 0.139255
H	 0.210033923	 3.9076862603	 2.7166506203	 0.135466
H	 0.3368897513	 2.1273217953	 2.9464803547	 0.139978
80.8171	103.6425	169.6335	188.4833	258.4485	330.2156	374.7053	477.1826	542.1364	617.3233	733.4819	784.4129	854.8747	867.2665	899.9962	956.2938	1003.4938	1032.3459	1054.6223	1077.2814	1093.586	1100.9074	1151.446	1166.7763	1199.71	1295.7503	1328.9191	1406.5919	1444.6774	1483.8363	1515.3122	1829.4238	1943.5379	2841.4556	3072.1242	3133.0393	3133.3117	3187.0087	3228.5082
O=CC1CC11COC1=O	O=C[C@H]1C[C@]21COC2=O	
InChI=1S/C6H6O3/c7-2-4-1-6(4)3-9-5(6)8/h2,4H,1,3H2	InChI=1S/C6H6O3/c7-2-4-1-6(4)3-9-5(6)8/h2,4H,1,3H2/t4-,6-/m1/s1
