18
gdb 82643	2.38656	1.71211	1.34555	1.8397	71.43	-0.2073	0.0632	0.2705	1019.3938	0.146913	-438.99612	-438.987747	-438.986803	-439.028397	32.959	
C	 0.024148	 1.6185363236	-0.043164424	-0.430295
C	 0.070285653	 0.0983769888	-0.0251307729	-0.010162
C	 1.13607202	-0.6528861472	-0.8821058743	-0.155102
N	 2.4329989988	-0.0480250418	-0.4194712152	-0.305253
C	 2.2188689961	-0.7927921155	 0.8360216639	-0.219658
C	 0.6889168603	-0.6674538556	 1.1459122906	 0.328145
O	 0.2007939551	-0.8182300934	 2.4250580632	-0.464258
C	 1.2086199946	-1.7710617991	 0.2737382166	 0.303705
O	 0.9626130348	-3.1134865598	 0.3539980402	-0.442222
H	 1.0255331022	 2.0358454193	 0.0831249281	 0.136215
H	-0.3838916676	 1.988151814	-0.9905595609	 0.110319
H	-0.6200672938	 1.9963387967	 0.7590958283	 0.106878
H	-0.914688019	-0.3338879898	-0.234744221	 0.081237
H	 1.0003810716	-0.7965376737	-1.9522165927	 0.073858
H	 3.1878980256	-0.5055206174	-0.9296522603	 0.211521
H	 2.9418802178	-0.8730712494	 1.6385949183	 0.094558
H	 0.4468009351	-0.0411917294	 2.9391498499	 0.289202
H	 1.7042235256	-3.5892897803	-0.0372344978	 0.291313
165.4682	185.6543	198.6238	219.2807	284.2743	314.2956	344.0093	390.0868	397.8335	530.0752	598.4816	626.8439	666.1363	725.4659	769.0785	799.4531	867.1647	926.6035	961.0028	972.9037	1010.1389	1028.4128	1054.692	1075.7828	1113.7808	1135.3634	1157.0914	1201.0932	1223.3832	1255.9589	1305.1443	1312.4484	1333.8739	1355.9105	1394.1097	1402.2962	1490.9208	1503.7549	1527.7353	3029.9611	3049.6129	3087.0996	3130.1926	3139.1981	3195.5391	3451.9314	3784.7358	3794.5888
CC1C2NC3C1(O)C23O	C[C@H]1[C@H]2N[C@H]3[C@]1(O)[C@@]23O	
InChI=1S/C6H9NO2/c1-2-3-6(9)4(7-3)5(2,6)8/h2-4,7-9H,1H3	InChI=1S/C6H9NO2/c1-2-3-6(9)4(7-3)5(2,6)8/h2-4,7-9H,1H3/t2-,3+,4-,5-,6+/m0/s1
