20
gdb 105835	2.07471	1.5406	1.21011	2.4751	80.47	-0.2552	0.0218	0.277	1163.7506	0.169872	-403.13204	-403.122786	-403.121842	-403.166141	34.433	
C	-0.7002861492	 1.2267579044	 0.1183914819	-0.378867
C	 0.3542612642	 0.14441586	-0.1531206492	-0.297138
C	 0.8974893427	-0.4556551134	 1.1142080518	 0.185886
C	 2.0858440112	 0.1095948069	 1.9200809121	-0.074302
C	 2.0474529108	 0.5242706563	 3.3734462001	-0.422001
C	 2.1111324037	-1.3040056886	 1.4488853236	 0.003767
O	 1.3277222899	-2.1423233182	 2.3437954122	-0.277494
C	 0.1791344989	-1.4346777338	 1.9906625305	 0.399793
N	-1.0228951525	-1.6458486219	 2.2790317998	-0.561717
H	-0.2733895134	 2.0584399399	 0.6885886918	 0.11373
H	-1.0964595144	 1.6277952683	-0.819359927	 0.110262
H	-1.5316646429	 0.81277762	 0.695254509	 0.152635
H	-0.0876330433	-0.6509217503	-0.7655509677	 0.112064
H	 1.1837933402	 0.5638451345	-0.7353266523	 0.097271
H	 2.6812665996	 0.7603072124	 1.2795112768	 0.097768
H	 1.5091093606	-0.2067669755	 3.9798179917	 0.142401
H	 3.0634481538	 0.6097653247	 3.7734597391	 0.121544
H	 1.5564765427	 1.4953035056	 3.4897054717	 0.125329
H	 2.844786258	-1.8041724133	 0.8304472859	 0.120027
H	-1.1224074306	-2.4642556779	 2.882249818	 0.229042
67.046	123.0185	143.4984	172.7864	200.6223	257.644	291.1539	320.4166	402.5533	455.5297	589.7955	652.3589	683.9816	766.9134	781.2628	794.5075	864.9853	901.7787	913.1539	936.7798	963.2171	991.6055	1010.0476	1052.8706	1082.08	1100.9143	1119.8477	1159.4961	1190.4206	1244.6498	1270.1116	1322.313	1348.5874	1367.238	1409.7768	1415.5772	1462.825	1481.783	1490.6468	1497.22	1501.3937	1511.3668	1822.2677	3025.0021	3038.3687	3040.9814	3060.0646	3100.9318	3106.3461	3115.0047	3124.0924	3136.4405	3206.398	3475.3793
CCC12C(C)C1OC2=N	CC[C@]12[C@@H](C)[C@H]1O[C]2[NH]	
InChI=1S/C7H11NO/c1-3-7-4(2)5(7)9-6(7)8/h4-5,8H,3H2,1-2H3	InChI=1S/C7H11NO/c1-3-7-4(2)5(7)9-6(7)8/h4-5,8H,3H2,1-2H3/t4-,5+,7-/m0/s1
