20
gdb 80931	2.67559	1.46774	1.28788	1.7611	80.48	-0.242	0.0698	0.3119	1100.191	0.169892	-403.054773	-403.0461	-403.045156	-403.087431	34.162	
C	-0.181883684	 1.5135883141	-0.0593727768	-0.456347
C	 0.0526243357	 0.0216251132	 0.0794570018	 0.032824
N	 1.2087059028	-0.6249186197	-0.7266802476	-0.197865
C	 2.1598088192	-0.0963254137	 0.3631732651	-0.249167
C	 0.9506567643	-0.6299199665	 1.1807628347	 0.239751
O	 0.761725501	-0.7499520846	 2.5460640249	-0.467749
C	 1.0175685831	-1.8020629821	 0.2163862642	 0.439123
C	 0.2137122903	-3.0229704886	-0.0234063069	-0.383331
C	 1.7326418578	-3.0981170953	 0.1795677666	-0.389626
H	 0.684420711	 2.1301815934	 0.1908040506	 0.11766
H	-0.4741936763	 1.7499740864	-1.0877615618	 0.135464
H	-1.00703973	 1.8159301884	 0.5949824456	 0.120536
H	-0.8797890104	-0.5198267569	-0.1071266362	 0.080048
H	 3.0930051637	-0.6588730846	 0.4246892919	 0.108863
H	 2.3442238012	 0.9768085455	 0.3107205623	 0.095245
H	 0.7645074638	 0.1293519816	 2.9397267664	 0.283665
H	-0.423977094	-3.3900056543	 0.7743707965	 0.122434
H	-0.1615250331	-3.2005420449	-1.0259651482	 0.122842
H	 2.3380780153	-3.3237209537	-0.6922267654	 0.123138
H	 2.1005323587	-3.5156424575	 1.1113296921	 0.122492
157.9333	177.5885	188.6675	196.8544	211.0388	243.6888	380.787	394.9374	451.252	482.158	610.1483	627.8156	681.2784	749.8588	774.1392	797.7214	836.5074	897.6628	904.7482	966.3593	980.8466	1019.0193	1044.2373	1054.274	1078.3232	1082.7357	1112.8741	1142.9384	1157.6428	1173.0627	1183.0767	1191.1098	1242.6283	1282.359	1299.3308	1402.1288	1416.8128	1437.6731	1450.6882	1490.7324	1495.1694	1518.309	1548.6224	3038.1408	3062.1057	3080.4403	3098.6606	3120.5883	3126.2551	3128.7368	3147.7309	3207.6093	3220.7108	3807.2618
CC1N2CC1(O)C21CC1	C[C@H]1N2C[C@]1(O)C12CC1	
InChI=1S/C7H11NO/c1-5-7(9)4-8(5)6(7)2-3-6/h5,9H,2-4H2,1H3	InChI=1S/C7H11NO/c1-5-7(9)4-8(5)6(7)2-3-6/h5,9H,2-4H2,1H3/t5-,7-/m1/s1
