19
gdb 121492	3.50955	0.78472	0.66706	2.0638	77.2	-0.2384	0.013	0.2514	1683.2642	0.157235	-456.373496	-456.36301	-456.362066	-456.41064	36.263	
C	-0.3787166876	 0.7878956736	-1.2280211279	-0.383199
C	 0.2237980863	-0.0071662398	-0.0773419164	-0.071857
O	 1.3257174124	-0.8109236205	-0.5145767836	-0.199324
C	 1.0002368402	-1.9769853911	-1.0948818518	 0.153712
N	 1.8733789726	-2.6566429679	-1.7030792521	-0.225773
C	 1.4027899952	-3.8704819234	-2.3306244934	-0.27826
C	 0.5977459771	-3.5644136867	-3.610136729	 0.412255
N	 0.8423226943	-4.4019979134	-4.6566252259	-0.514137
O	-0.2340427447	-2.6797676383	-3.6525545419	-0.355652
H	 0.3779152264	 1.4326589038	-1.6836245793	 0.13461
H	-0.7674112797	 0.1179275834	-2.0010836712	 0.152076
H	-1.1994225251	 1.4153055505	-0.8653771845	 0.116097
H	 0.637196271	 0.6529160334	 0.6893231382	 0.119432
H	-0.5326094603	-0.6449888329	 0.4002147072	 0.105711
H	-0.051280035	-2.2683291061	-0.9721545275	 0.089222
H	 2.2593897886	-4.5140429557	-2.5552418748	 0.100909
H	 0.7233884456	-4.4576639499	-1.6904508321	 0.120468
H	 1.6394210576	-5.0137088322	-4.6671833622	 0.261779
H	 0.3658934453	-4.2233236568	-5.5262332317	 0.261932
45.63	47.6226	57.0766	114.5886	180.7681	223.6185	265.053	268.1719	339.6918	371.351	404.2755	479.2181	509.7693	567.4352	625.7577	727.4632	805.7538	840.79	906.3316	985.0914	996.2017	1052.2215	1091.587	1103.5161	1117.0768	1177.9971	1226.9658	1263.3853	1303.241	1337.5224	1386.4335	1396.8589	1413.9856	1433.0241	1485.6917	1486.3482	1495.3885	1513.9482	1619.5649	1756.7762	1801.0911	2969.9642	3014.717	3033.5702	3040.9375	3064.3548	3094.9723	3116.4022	3127.0125	3598.4584	3733.684
CCOC=NCC(N)=O	CCOC=NCC(=O)N	
InChI=1S/C5H10N2O2/c1-2-9-4-7-3-5(6)8/h4H,2-3H2,1H3,(H2,6,8)	InChI=1S/C5H10N2O2/c1-2-9-4-7-3-5(6)8/h4H,2-3H2,1H3,(H2,6,8)
