19
gdb 54101	2.78294	1.51475	1.36502	2.1738	75.6	-0.2392	0.0307	0.2699	1032.143	0.159917	-419.158437	-419.149964	-419.14902	-419.191274	32.928	
C	-0.1907767699	 1.561850811	-0.1055615296	-0.488591
C	-0.0298973349	 0.0435890466	-0.0827302222	 0.301688
C	 0.8754245068	-0.6961534683	-1.1086758279	-0.094047
C	 2.0582971011	-0.12426164	-0.2931777273	-0.187647
N	 1.0882451855	-0.5639281008	 0.8217080251	-0.204046
C	 0.9213346348	-1.8252001692	-0.0601485813	-0.180153
C	-1.4197303284	-0.5369960524	 0.2024619181	 0.292316
N	-1.6383821995	-0.7936504833	 1.5221199832	-0.511118
O	-2.2587052599	-0.6702014225	-0.6676321023	-0.375222
H	 0.6969889599	 2.0972561261	-0.4434022879	 0.120798
H	-1.0135781752	 1.8113221465	-0.7816288848	 0.150493
H	-0.4528573924	 1.9270585537	 0.8926911347	 0.131771
H	 0.7498701086	-0.76718909	-2.1926110066	 0.079437
H	 2.987270544	-0.6995820731	-0.2924086439	 0.104893
H	 2.2717834644	 0.9429537661	-0.3147854557	 0.106666
H	 0.0158011964	-2.3996462581	 0.138389031	 0.120813
H	 1.8038359215	-2.4689593754	-0.0451422165	 0.100419
H	-0.8639098716	-0.7888167796	 2.1672432268	 0.273079
H	-2.519346331	-1.1956606171	 1.7986399872	 0.258451
77.0877	160.7859	168.9998	224.3036	272.6808	338.32	352.2608	431.2265	482.0694	564.0529	617.0293	630.4119	672.2417	769.5251	782.8798	789.3257	834.6398	902.5051	907.3222	926.6733	1012.396	1054.2329	1063.0288	1092.6777	1102.067	1125.2821	1158.4109	1186.6173	1196.0176	1198.6659	1224.9615	1252.6348	1278.0388	1364.633	1405.0504	1487.9931	1492.0645	1531.2363	1564.1913	1604.0214	1796.068	3048.0714	3064.2194	3070.0929	3082.2409	3114.7622	3133.6751	3138.6117	3154.279	3577.6089	3717.4668
CC1(C2CN1C2)C(N)=O	C[C@]1([C@H]2CN1C2)C(=O)N	
InChI=1S/C6H10N2O/c1-6(5(7)9)4-2-8(6)3-4/h4H,2-3H2,1H3,(H2,7,9)	InChI=1S/C6H10N2O/c1-6(5(7)9)4-2-8(6)3-4/h4H,2-3H2,1H3,(H2,7,9)/t6-/m0/s1
