19
gdb 42947	2.48276	1.87839	1.32525	3.1783	77.91	-0.2296	-0.0141	0.2155	1002.1748	0.161764	-385.895826	-385.888675	-385.887731	-385.927351	29.08	
O	-0.018281631	 0.2202918896	-0.9588391118	-0.334669
C	-0.041855789	 1.2550643277	-0.3374782871	 0.3979
C	-1.2713488876	 2.0568052853	-0.0161294478	-0.144467
C	-1.5236108687	 2.312839825	 1.4640284643	-0.295497
C	-0.8302483607	 3.355055526	 0.6449013368	-0.052764
C	 0.702651871	 3.4003576449	 0.6805374736	-0.0303
C	 1.4180719219	 3.1510866578	 2.0441923917	-0.231666
C	 1.7404309185	 1.6912426147	 1.6078555195	-0.239809
C	 1.1855238112	 2.0125447644	 0.1783179481	-0.117799
H	-2.1226121825	 1.9669628932	-0.679368704	 0.104946
H	-2.5575460526	 2.4930105819	 1.7369060386	 0.124769
H	-0.9717871422	 1.7406024327	 2.2008660738	 0.125686
H	-1.3651077802	 4.275833503	 0.4417765754	 0.092658
H	 1.0608678027	 4.2669183018	 0.1210559047	 0.073887
H	 2.3143519568	 3.7628366872	 2.1702406184	 0.104231
H	 0.7971402886	 3.2675052974	 2.9358570649	 0.1031
H	 2.796483267	 1.416487626	 1.6296440378	 0.110211
H	 1.1835512297	 0.9162454362	 2.1406080788	 0.111988
H	 1.956097697	 2.0088155851	-0.5944361856	 0.097599
101.643	190.8288	228.85	267.8707	426.2128	461.3483	554.7233	598.6277	687.8617	739.6633	746.3807	784.118	813.8598	830.8549	887.1046	907.791	934.5587	951.7848	969.749	1005.8238	1010.2339	1052.3234	1062.9217	1097.6238	1105.9311	1122.6595	1187.6135	1195.2085	1197.7168	1224.2078	1246.8497	1262.0568	1270.7522	1288.7141	1315.6528	1342.4349	1371.0006	1479.8305	1489.3163	1503.5904	1823.6493	3062.1374	3067.8596	3079.2364	3097.2604	3107.372	3125.4228	3139.7019	3170.7583	3194.6109	3221.995
O=C1C2CC2C2CCC12	O=C1[C@H]2C[C@H]2[C@H]2CC[C@@H]12	
InChI=1S/C8H10O/c9-8-5-2-1-4(5)6-3-7(6)8/h4-7H,1-3H2	InChI=1S/C8H10O/c9-8-5-2-1-4(5)6-3-7(6)8/h4-7H,1-3H2/t4-,5+,6-,7-/m0/s1
