14
gdb 20289	4.28266	3.15494	2.89242	0.1204	60.62	-0.2128	0.0476	0.2604	567.921	0.110887	-341.489485	-341.485028	-341.484084	-341.517694	19.627	
C	-0.0304835544	 1.4727125903	-0.0358178064	-0.059094
C	-0.3188068932	 1.9000679718	-1.4568153486	-0.059094
C	 0.7946964898	 1.4581735552	-2.3238027353	-0.039439
C	 1.4668495621	 0.402226985	-1.4354520477	-0.032215
C	 0.1334696577	-0.367608492	-1.4566921742	-0.032216
C	-0.0230076518	-0.0047474449	 0.0264885554	-0.039439
N	 1.2800656927	 0.7661353093	 0.0376018336	-0.158373
N	-0.5195413686	 0.7064067198	-2.3269067215	-0.158373
H	-0.2829624414	 2.0942414086	 0.8142339095	 0.101702
H	-0.9329284806	 2.7623410021	-1.6847881035	 0.101701
H	 1.1809054264	 1.9708756872	-3.1977599977	 0.100082
H	 2.4423092752	-0.0141463902	-1.6713867117	 0.087338
H	-0.0064835721	-1.3818059828	-1.8205190579	 0.087338
H	-0.3481750818	-0.6219568094	 0.8566334958	 0.100082
555.574	557.0621	678.0529	739.8364	742.4157	759.6717	789.8203	801.6996	811.6375	868.2488	882.802	910.1611	921.2864	935.0087	972.5049	986.882	1026.4861	1043.9962	1051.9029	1052.3569	1160.3015	1164.7934	1211.8282	1218.6137	1229.1585	1248.0538	1290.4239	1306.9176	1331.1748	1372.2998	3150.2664	3157.6322	3172.1127	3175.3318	3192.5891	3204.6458
C12C3C4C5C(C1N25)N34	[C@H]12[C@H]3[C@H]4[C@@H]5[C@@H]([C@H]1N25)N34	
InChI=1S/C6H6N2/c1-2-4-6-5(8(2)4)3(1)7(1)6/h1-6H	InChI=1S/C6H6N2/c1-2-4-6-5(8(2)4)3(1)7(1)6/h1-6H/t1-,2-,3-,4-,5+,6+,7?,8?/m0/s1
