16
gdb 49504	2.41688	1.70055	1.36396	4.0585	68.75	-0.2387	-0.0437	0.195	974.301	0.124861	-437.870741	-437.863376	-437.862432	-437.903002	27.985	
O	-0.7003317453	 0.7263806039	-0.5205636704	-0.239199
C	 0.1200445889	 0.9560922675	 0.3331139628	 0.129775
C	 1.2596925623	 1.9327854169	 0.1892254672	-0.097932
C	 1.4105153076	 2.9044736436	-1.0154998016	-0.036298
C	 0.0743254662	 3.666159476	-1.0630142167	-0.320399
C	-0.0255853415	 3.9489343061	 0.4483994217	 0.47147
O	-0.8839301098	 4.4966483068	 1.0788027841	-0.32279
C	 1.2810325741	 3.3122743286	 0.9502449913	-0.152454
N	 2.2029091707	 3.8471100568	-0.1257051003	-0.326666
H	 0.0840184966	 0.4339637171	 1.3166595181	 0.087983
H	 2.1979733752	 1.4082600703	 0.4091160096	 0.103934
H	 1.8603515578	 2.5958801212	-1.9572238492	 0.090362
H	 0.1499176065	 4.5944801351	-1.6334077987	 0.138036
H	-0.7671956586	 3.0719535478	-1.4206709046	 0.155105
H	 1.5445442319	 3.4315705311	 1.9987730042	 0.095541
H	 3.1214066373	 3.429312501	 0.0330217522	 0.223531
74.0691	126.9777	193.5857	266.29	379.603	437.3147	487.4729	582.2635	633.2008	696.9545	738.8924	773.654	829.3074	867.6971	898.4269	931.3072	959.4184	987.0604	1013.9946	1044.738	1069.4258	1126.3127	1128.3918	1147.5577	1170.6483	1208.7648	1251.256	1279.7511	1314.6315	1358.7274	1372.8274	1421.1919	1446.6076	1816.5571	1888.9195	2871.1073	3041.327	3087.2306	3139.1153	3150.1337	3154.728	3440.0771
O=CC1C2CC(=O)C1N2	O=C[C@H]1[C@H]2CC(=O)[C@@H]1N2	
InChI=1S/C6H7NO2/c8-2-3-4-1-5(9)6(3)7-4/h2-4,6-7H,1H2	InChI=1S/C6H7NO2/c8-2-3-4-1-5(9)6(3)7-4/h2-4,6-7H,1H2/t3-,4+,6+/m0/s1
