23
gdb 121534	5.18083	0.45538	0.44262	1.107	93.55	-0.2426	0.0576	0.3002	2584.6472	0.202739	-388.264329	-388.252619	-388.251675	-388.303568	40.201	
C	-0.3631335063	 1.3378170961	 0.0454809568	-0.228581
O	 0.0926354011	 0.0132406631	-0.0860068314	-0.226715
C	 0.6290595729	-0.5043175292	 1.1097844739	-0.0412
C	 1.0869453801	-1.9400300973	 0.8326813074	-0.351609
C	 1.6617932032	-2.576541752	 2.0117605639	-0.014526
C	 2.1291392286	-3.0731656908	 3.0053043472	 0.125556
C	 2.7094828937	-3.7037053401	 4.1921636408	-0.121129
C	 2.1906285397	-5.1451909483	 4.3649579276	-0.372439
C	 4.2499471393	-3.664960822	 4.1464546097	-0.372504
H	 0.4492290931	 2.0233995805	 0.3350297156	 0.104107
H	-0.7561711238	 1.6472878345	-0.9260400329	 0.127139
H	-1.1648384132	 1.4222816147	 0.7964544105	 0.104131
H	 1.4812871559	 0.1038406291	 1.4544195218	 0.09462
H	-0.1239807428	-0.4968936638	 1.9146753584	 0.0948
H	 0.2263595014	-2.5130263885	 0.4663503896	 0.134259
H	 1.8150529023	-1.9186961604	 0.0125855397	 0.134127
H	 2.3875952755	-3.126424176	 5.0706242076	 0.101207
H	 2.493095789	-5.7669853504	 3.5165965069	 0.123008
H	 2.5980646254	-5.589330665	 5.2790022935	 0.109885
H	 1.0994145577	-5.1656050243	 4.4266839365	 0.12198
H	 4.6239821753	-4.2391274675	 3.2930534443	 0.122842
H	 4.6146520911	-2.6390082347	 4.0494031545	 0.121237
H	 4.6689202609	-4.0969503579	 5.061125328	 0.109803
13.6643	62.8343	73.1561	101.539	133.7088	163.2221	227.8376	237.6125	251.6052	264.3581	315.598	355.1204	409.7158	496.4418	526.6422	544.0876	718.5254	797.7311	885.5928	930.3668	963.6839	993.085	1049.2852	1071.0599	1086.794	1121.1951	1150.63	1164.8543	1182.5474	1208.946	1227.543	1233.0868	1299.958	1314.1835	1325.7061	1351.4533	1394.6114	1416.7223	1418.3989	1478.4524	1482.1405	1485.6889	1486.4068	1488.9749	1498.068	1505.0233	1509.9916	1531.855	2364.49	2960.946	2973.6557	2995.0475	3001.112	3012.7653	3029.0388	3034.8995	3038.4826	3064.8741	3105.4378	3110.599	3113.5552	3117.7213	3119.6676
COCCC#CC(C)C	COCCC#CC(C)C	
InChI=1S/C8H14O/c1-8(2)6-4-5-7-9-3/h8H,5,7H2,1-3H3	InChI=1S/C8H14O/c1-8(2)6-4-5-7-9-3/h8H,5,7H2,1-3H3
