19
gdb 41782	2.95269	1.61738	1.1722	2.2729	76.25	-0.2402	0.0108	0.251	1063.2757	0.161088	-423.000939	-422.993436	-422.992492	-423.032958	29.497	
C	 0.2097647785	 1.6005555472	 0.2494615079	-0.097425
O	 1.4134277192	 1.5130830719	-0.5411632646	-0.297123
C	 1.2330695654	 0.0927440412	-0.758706336	 0.063838
C	 2.3884049065	-0.7294948371	-0.2739263767	-0.064825
C	 2.2392784577	-1.9668289635	 0.1944779919	-0.053936
C	 0.879673646	-2.6217617234	 0.2852039621	-0.294599
C	-0.0312639931	-1.9545489484	 1.3397729851	-0.062913
O	 0.0596976977	-0.5394229428	 1.376979644	-0.236601
C	-0.0507922692	 0.0930105095	 0.1325052554	 0.056009
H	 0.4054571468	 1.9291641674	 1.2759659868	 0.116409
H	-0.540932543	 2.2516079874	-0.2139356726	 0.100201
H	 1.0255445227	-0.1018501187	-1.8233039078	 0.080669
H	 3.3624934447	-0.2507635266	-0.3272854423	 0.103439
H	 3.1049543782	-2.5266234834	 0.5366992967	 0.093333
H	 0.3842171108	-2.5831967517	-0.6932812358	 0.114366
H	 0.9648992528	-3.6836561953	 0.5363119211	 0.105668
H	-1.073791626	-2.2669457277	 1.1651549742	 0.089342
H	 0.2523188639	-2.2775381716	 2.3457203054	 0.114006
H	-0.9726048997	-0.2007797444	-0.3885350448	 0.070141
84.0657	180.24	233.8293	303.2978	319.0187	337.8853	420.4646	521.8924	609.1891	686.3546	731.8901	800.8458	835.8132	869.7063	874.8911	928.8345	980.4383	986.4419	1002.5377	1030.9328	1045.8861	1081.0251	1088.4093	1121.4409	1153.1684	1181.9652	1191.9244	1256.2323	1266.6979	1275.1349	1280.5049	1331.3634	1340.7325	1354.3688	1383.6378	1409.1551	1420.5708	1490.2767	1502.1774	1511.2816	1714.0082	2964.1134	2972.7399	3003.0203	3024.0246	3026.458	3073.6254	3078.9927	3089.8384	3158.0695	3180.225
C1OC2C=CCCOC12	C1O[C@H]2C=CCCO[C@@H]12	
InChI=1S/C7H10O2/c1-2-4-8-7-5-9-6(7)3-1/h1,3,6-7H,2,4-5H2	InChI=1S/C7H10O2/c1-2-4-8-7-5-9-6(7)3-1/h1,3,6-7H,2,4-5H2/t6-,7-/m0/s1
