16
gdb 98144	2.27945	1.22992	0.83143	2.2164	75.92	-0.2708	-0.0396	0.2312	1350.7448	0.120209	-400.739444	-400.729415	-400.72847	-400.775645	34.618	
C	-0.2595462767	 1.5027413668	 0.0193255276	-0.387047
C	-0.2542879468	 0.0148588322	 0.362118261	-0.294181
C	 0.9266082602	-0.3922641276	 1.218064033	 0.393249
O	 1.712900955	 0.3750981942	 1.6972566354	-0.264432
C	 1.135747339	-1.9471766455	 1.4136354008	-0.456346
C	 2.0659994598	-2.2586090835	 2.4904585515	 0.352928
C	 2.8337134204	-2.5152174879	 3.374986114	-0.399877
C	-0.1389799404	-2.6582952743	 1.5708303674	 0.295677
N	-1.1542134503	-3.197934598	 1.6836967655	-0.324173
H	 0.6329632298	 1.7794858746	-0.5479758228	 0.13302
H	-1.1403250621	 1.7510909721	-0.5781413443	 0.12202
H	-0.2725010866	 2.1102497974	 0.9270759678	 0.141929
H	-1.1650220388	-0.2731245505	 0.903735733	 0.162794
H	-0.2592067694	-0.6115125779	-0.5405095103	 0.131971
H	 1.5662974961	-2.2774599707	 0.454508068	 0.179354
H	 3.512991511	-2.7369002113	 4.1611893225	 0.213114
30.8295	66.5561	120.8365	131.408	166.8117	202.9369	247.8125	351.8161	357.379	398.6351	454.4467	517.9241	576.4054	649.839	672.2029	684.6099	729.8887	832.2082	924.8758	984.5969	1016.0801	1072.0196	1093.4975	1119.913	1204.53	1284.7875	1293.6157	1372.4521	1416.94	1443.7638	1493.5362	1498.4981	1844.7145	2256.389	2360.5881	2991.2968	3026.7698	3054.5248	3056.3764	3127.1202	3133.9635	3502.2958
CCC(=O)C(C#C)C#N	CCC(=O)[C@@H](C#C)C#N	
InChI=1S/C7H7NO/c1-3-6(5-8)7(9)4-2/h1,6H,4H2,2H3	InChI=1S/C7H7NO/c1-3-6(5-8)7(9)4-2/h1,6H,4H2,2H3/t6-/m0/s1
