17
gdb 29515	3.13393	1.50412	1.03608	1.6709	75.17	-0.2126	0.0195	0.2321	1123.7158	0.137315	-421.844633	-421.836827	-421.835883	-421.877209	28.857	
C	-0.0052188016	 1.5420506555	-0.0261133462	-0.50265
C	-0.0043189589	 0.0461681184	 0.0306268187	 0.05897
C	-0.0021498942	-0.8144625078	-1.0305192031	-0.107832
O	-0.0018141261	-2.1307146225	-0.6278231968	-0.200046
C	-0.0038824204	-2.0763654743	 0.7174652379	 0.278557
C	-0.0054425019	-0.8128676342	 1.1837325222	 0.134563
C	-0.0076541477	-0.8698228191	 2.6770654832	-0.181395
O	-0.0072541874	-2.28491451	 2.9778644552	-0.28321
C	-0.004820389	-3.1002306134	 1.7966881996	-0.176087
H	 0.8751571397	 1.9633437499	 0.4725117409	 0.131967
H	-0.0045164637	 1.8973252177	-1.0601684264	 0.127823
H	-0.8870223856	 1.9622102553	 0.4709336972	 0.131957
H	-0.0006989498	-0.6579211184	-2.0970391969	 0.135714
H	 0.8780152261	-0.4104009267	 3.1390468775	 0.110216
H	-0.8952671244	-0.4114928023	 3.1363871857	 0.110221
H	-0.8925343337	-3.7502702337	 1.791425843	 0.115619
H	 0.8838591787	-3.7489702244	 1.7941766882	 0.115612
109.8394	138.4386	151.6	218.3909	226.3141	321.8138	474.5815	577.7213	613.2886	616.6639	653.2475	720.0027	771.6082	851.3258	887.124	1010.1211	1020.3408	1025.7111	1060.3413	1072.0902	1078.1445	1117.0685	1152.5981	1193.3626	1211.2152	1257.84	1324.7035	1341.949	1418.1633	1425.4442	1464.6175	1482.5163	1501.8944	1522.1719	1530.8933	1582.0373	1666.688	2982.3148	2991.9872	3002.8303	3011.9403	3029.1214	3079.3127	3112.2773	3272.6681
CC1=COC2=C1COC2	Cc1coc2c1COC2	
InChI=1S/C7H8O2/c1-5-2-9-7-4-8-3-6(5)7/h2H,3-4H2,1H3	InChI=1S/C7H8O2/c1-5-2-9-7-4-8-3-6(5)7/h2H,3-4H2,1H3
