19
gdb 57449	2.58234	1.30933	1.1702	4.2786	72.31	-0.255	-0.032	0.223	1152.0533	0.154818	-460.143589	-460.133701	-460.132757	-460.178061	36.365	
C	-0.1303214907	 1.5336145532	-0.074547905	-0.436068
C	 0.0748091873	 0.0237351013	 0.1063584154	 0.301008
C	 0.8668165473	-0.2745850862	 1.3792612697	-0.404646
O	-1.1994249493	-0.6172950441	 0.2695484664	-0.446492
C	 0.7809006042	-0.5343148155	-1.1473149688	 0.026375
O	 1.9573788521	-1.3256131951	-1.0116232074	-0.218139
C	 0.7959012644	-1.9738758769	-1.5040802667	-0.054886
C	 0.1512317855	-3.0409922998	-0.6654437588	 0.158885
O	 0.5515773195	-3.4304543962	 0.3988523776	-0.241085
H	 0.82771808	 2.0536016463	-0.1734946239	 0.128347
H	-0.7173050767	 1.7462991745	-0.9775000481	 0.104109
H	-0.6636059782	 1.9440746786	 0.7864297543	 0.129903
H	 0.3226186217	 0.1256259607	 2.2389753956	 0.114642
H	 1.0035251764	-1.3478796595	 1.5076754365	 0.166604
H	 1.8530832683	 0.1939934955	 1.3324195633	 0.11855
H	-1.7846484762	-0.3016689195	-0.4278470716	 0.276383
H	 0.8257825361	 0.1577202646	-1.9917865164	 0.091488
H	 0.8109272666	-2.2208047906	-2.5696206323	 0.107312
H	-0.7411495982	-3.4909592613	-1.1560116097	 0.077712
64.5587	120.5209	151.3487	207.7113	221.6321	262.5379	281.1668	297.6597	322.793	363.9823	375.7044	426.8783	512.8954	582.4736	712.6429	762.9807	789.5243	874.3197	939.6082	948.8042	951.5269	987.533	995.3962	1024.5491	1107.4987	1126.6462	1138.85	1211.4465	1226.7173	1290.9178	1360.6783	1391.0688	1401.7473	1419.6385	1424.0878	1454.0317	1481.6606	1485.5174	1498.2927	1508.8297	1835.5854	2877.9828	3021.2366	3056.5825	3067.492	3081.6145	3091.6095	3123.2106	3130.2404	3165.4391	3799.7438
CC(C)(O)C1OC1C=O	CC(C)(O)[C@H]1O[C@H]1C=O	
InChI=1S/C6H10O3/c1-6(2,8)5-4(3-7)9-5/h3-5,8H,1-2H3	InChI=1S/C6H10O3/c1-6(2,8)5-4(3-7)9-5/h3-5,8H,1-2H3/t4-,5-/m0/s1
