17
gdb 127054	5.9272	0.73765	0.6642	4.7483	72.07	-0.2677	-0.0351	0.2326	1642.623	0.134172	-455.11494	-455.10595	-455.105006	-455.150352	30.893	
C	 0.4740578003	 1.3724282093	 0.3355543316	-0.388869
C	-0.0691383251	 0.0217396258	-0.0944208509	-0.029538
O	 0.7735053573	-0.4962401478	-1.1116139274	-0.242374
C	 0.3607751986	-1.7501741513	-1.5847591605	-0.169152
C	 1.3194527088	-2.1819264826	-2.641297505	 0.38741
C	 2.4299054832	-1.5986003389	-3.1679279397	-0.188092
N	 2.9132988055	-2.4661331615	-4.1189040449	-0.103494
N	 2.2037410565	-3.4931542861	-4.2035534934	-0.014465
O	 1.12470462	-3.3520824452	-3.236181152	-0.227025
H	 1.4920321779	 1.2713764894	 0.7217067808	 0.132189
H	 0.4930777852	 2.0652690509	-0.5101463074	 0.132183
H	-0.1550718734	 1.8001499867	 1.1213887258	 0.12234
H	-0.1002269462	-0.6767459215	 0.7578388426	 0.095719
H	-1.0995214079	 0.1173766467	-0.4743675126	 0.09572
H	 0.3384361071	-2.5029477141	-0.7777924153	 0.123693
H	-0.6586884127	-1.7112147016	-2.0061276306	 0.123686
H	 2.8976978248	-0.6578403283	-2.9424289313	 0.15007
38.0825	66.2106	98.4915	119.9604	239.3369	260.9749	265.5682	341.6292	475.1406	592.4094	657.4531	700.4516	740.7041	820.9006	828.0801	908.3853	984.0104	1043.3489	1044.8713	1054.4776	1115.4642	1148.2927	1174.0213	1188.0927	1236.05	1247.8432	1297.4297	1342.048	1395.8081	1413.1455	1454.1583	1475.4743	1483.2901	1497.3407	1502.6645	1531.8723	1610.0051	2953.574	2966.9171	2974.9641	2993.3681	3048.2581	3124.229	3125.916	3314.0478
CCOCC1=CN=NO1	CCOCc1cnno1	
InChI=1S/C5H8N2O2/c1-2-8-4-5-3-6-7-9-5/h3H,2,4H2,1H3	InChI=1S/C5H8N2O2/c1-2-8-4-5-3-6-7-9-5/h3H,2,4H2,1H3
