16
gdb 24154	5.27762	0.9432	0.82502	1.0398	69.71	-0.2399	0.0043	0.2442	1331.0771	0.125276	-437.890024	-437.882351	-437.881407	-437.923749	27.666	
C	 0.1829836863	 1.2150390791	 0.7244097061	-0.343893
C	-0.0907730128	-0.0756286581	-0.0120266769	 0.092935
C	-1.4382999686	-0.4677146867	-0.438093804	-0.180893
O	-0.494979054	 0.0472542278	-1.3809990661	-0.237588
C	 1.4557520116	 1.870996234	 0.2812768209	 0.241178
C	 2.0483940111	 1.8758076289	-0.9390092751	-0.096119
O	 3.1925969334	 2.6217775759	-0.8562653833	-0.138428
C	 3.2267708304	 3.0347500606	 0.4287946065	 0.070513
N	 2.2375138733	 2.6290404266	 1.1538800643	-0.307263
H	-0.6643725582	 1.897138736	 0.5812106713	 0.122636
H	 0.251317536	 1.0177564505	 1.7999464321	 0.12727
H	 0.6413198822	-0.8670280773	 0.1557048998	 0.099422
H	-1.6859262192	-1.5218201931	-0.5532202483	 0.117272
H	-2.28210217	 0.185242937	-0.2185253697	 0.116786
H	 1.8123201997	 1.4441874102	-1.8954134379	 0.165718
H	 4.0644224286	 3.6489330187	 0.7198337804	 0.150455
37.2034	71.4674	131.2548	281.8796	309.7252	356.7702	461.7914	640.4186	679.001	735.8493	789.7681	793.7163	846.1406	868.9676	936.9398	938.4557	958.502	1004.0483	1092.3142	1096.0418	1107.4579	1138.6671	1159.6406	1168.0513	1217.9051	1245.1837	1258.7867	1296.98	1334.1549	1363.3898	1447.4091	1466.2112	1530.6324	1555.608	1620.9349	3030.4707	3076.2369	3084.4279	3104.1514	3171.1033	3276.1661	3305.9641
C(C1CO1)C1=COC=N1	C([C@H]1CO1)c1cocn1	
InChI=1S/C6H7NO2/c1(6-3-9-6)5-2-8-4-7-5/h2,4,6H,1,3H2	InChI=1S/C6H7NO2/c1(6-3-9-6)5-2-8-4-7-5/h2,4,6H,1,3H2/t6-/m0/s1
