19
gdb 7630	4.15022	1.30686	1.26536	2.8419	72.81	-0.2588	0.0298	0.2886	1065.4792	0.164859	-365.074992	-365.066481	-365.065537	-365.108123	31.546	
C	-0.1707519394	 1.6329005583	 0.0122735826	-0.391637
C	 0.0611157376	 0.1168411436	-0.0842209139	 0.010516
C	 1.1848128772	-0.3267972642	 0.8624614806	-0.402271
C	-1.254028171	-0.6220044647	 0.1455342491	 0.145138
C	-1.292467359	-2.1639709574	 0.2415650455	-0.397758
C	-1.780711601	-1.9105717634	 1.6513243662	 0.446772
N	-2.1362225641	-2.6365949872	 2.6095103011	-0.542692
O	-1.7204765132	-0.5359771937	 1.5428204351	-0.268368
H	 0.7535262977	 2.1831415195	-0.1876433513	 0.114572
H	-0.9253979024	 1.969273625	-0.7064436997	 0.111973
H	-0.5165989649	 1.9050006378	 1.0148372053	 0.134909
H	 0.3570173932	-0.1219569369	-1.1166184584	 0.081637
H	 0.9106817453	-0.135181171	 1.9038795364	 0.135717
H	 1.4197679779	-1.3906867824	 0.7642716717	 0.116592
H	 2.1008348431	 0.2311319839	 0.6469427187	 0.11659
H	-2.0316010784	-0.2114443646	-0.5073576108	 0.089199
H	-2.0138654926	-2.6625222354	-0.4076323831	 0.135868
H	-0.3325240795	-2.6774777621	 0.1760334858	 0.13707
H	-2.4151664663	-2.073486505	 3.4149885992	 0.226175
71.0582	84.5605	197.8504	218.8771	244.4338	283.2069	350.1272	412.4355	470.8635	500.5233	580.2671	700.7106	778.4192	866.9728	885.724	911.285	926.2042	954.5245	968.109	1002.6962	1022.8152	1063.7538	1094.8696	1119.4893	1167.6117	1206.9451	1227.9363	1243.2835	1306.7431	1332.5481	1374.2958	1385.9843	1402.0832	1426.4723	1466.3895	1488.9547	1495.383	1506.897	1513.6764	1824.4962	3000.2846	3033.6918	3044.8982	3051.7169	3092.4332	3102.8741	3108.263	3111.2702	3120.4141	3145.6681	3473.7449
CC(C)C1CC(=N)O1	CC(C)[C@H]1C[C]([NH])O1	
InChI=1S/C6H11NO/c1-4(2)5-3-6(7)8-5/h4-5,7H,3H2,1-2H3	InChI=1S/C6H11NO/c1-4(2)5-3-6(7)8-5/h4-5,7H,3H2,1-2H3/t5-/m1/s1
