21
gdb 89476	2.49729	1.68443	1.31691	1.9067	76.57	-0.2461	0.0714	0.3175	1059.321	0.184543	-424.252482	-424.244503	-424.243559	-424.284495	32.703	
C	-0.07466891	 1.4455084782	 0.1133208642	-0.480886
C	-0.0462697284	-0.0584615731	-0.0376574077	 0.406555
C	 0.8487702104	-0.6190567371	-1.1685223046	-0.243681
C	 1.1028382898	-2.069897712	-0.6696400403	-0.236674
C	 0.4100342695	-2.0412006961	 0.7103977539	 0.029068
O	 0.5515143929	-0.6735056414	 1.1316917141	-0.309741
C	-1.1205419158	-2.1395198839	 0.5693789468	 0.169739
O	-1.7411014561	-2.2622907837	 1.8363166878	-0.449669
C	-1.424025747	-0.7717691107	-0.1134600583	-0.302785
H	 0.9378654168	 1.8415493279	 0.2349897635	 0.124787
H	-0.5209621299	 1.9090404585	-0.7720647304	 0.120803
H	-0.6671884768	 1.7365206394	 0.9857538742	 0.121532
H	 0.3649533451	-0.5734661644	-2.1473826153	 0.097867
H	 1.7809812434	-0.0509382846	-1.2247018966	 0.101272
H	 0.67807227	-2.8336600072	-1.3275071707	 0.101324
H	 2.1693771455	-2.278202195	-0.5641194039	 0.108998
H	 0.8223777127	-2.709200867	 1.4667880315	 0.07856
H	-1.4500673743	-3.0021244434	-0.0148721474	 0.081326
H	-1.3639611572	-1.5617328101	 2.3836060083	 0.278802
H	-2.1866070066	-0.2448728685	 0.4661528855	 0.103384
H	-1.788484664	-0.8726035259	-1.1390291546	 0.099417
109.5275	210.4189	224.135	285.333	314.5481	363.5104	408.4652	449.1813	471.2773	565.0707	610.4925	668.8381	775.0948	815.0659	819.4106	861.4765	878.3467	903.3589	929.1277	939.6604	988.3231	1000.0123	1004.3334	1024.835	1081.4344	1111.2303	1120.4361	1165.0879	1206.576	1219.5652	1238.6893	1262.4054	1268.8349	1299.621	1309.156	1333.3543	1338.1569	1353.4498	1415.1657	1436.8449	1478.9191	1487.7692	1489.3743	1495.2228	1509.7522	3039.4568	3057.1142	3061.3695	3067.0209	3085.7964	3099.1619	3108.818	3111.9018	3115.1554	3118.7295	3123.8714	3775.5716
CC12CCC(O1)C(O)C2	C[C@@]12CC[C@@H](O1)[C@@H](O)C2	
InChI=1S/C7H12O2/c1-7-3-2-6(9-7)5(8)4-7/h5-6,8H,2-4H2,1H3	InChI=1S/C7H12O2/c1-7-3-2-6(9-7)5(8)4-7/h5-6,8H,2-4H2,1H3/t5-,6+,7-/m0/s1
