18
gdb 99499	2.65183	1.05103	0.84918	3.6065	74.78	-0.2424	-0.0033	0.2391	1412.5015	0.146541	-435.295301	-435.28474	-435.283796	-435.332153	35.653	
C	 0.1816025756	 1.4724312659	 0.1111134373	-0.328173
N	-0.2568807281	 0.1487708759	-0.3080270759	-0.272947
C	 0.5123746705	-0.4749848105	-1.3561451663	-0.218594
C	 1.9873851884	-0.4361915614	-1.1647227774	 0.261515
N	 3.1300312156	-0.3809371419	-0.9946068577	-0.32628
C	 0.0842245395	-1.9672736025	-1.4505191695	 0.43248
O	-0.3784519654	-2.5391680944	-0.4841836995	-0.364417
N	 0.2892795647	-2.5334568624	-2.6629741843	-0.30846
C	 0.0433486879	-3.941714571	-2.9222949478	-0.339103
H	 1.2248974405	 1.5154750598	 0.4617391414	 0.125963
H	 0.0783415535	 2.177367966	-0.7219647097	 0.122796
H	-0.4706416767	 1.8157688696	 0.9178510444	 0.130888
H	-0.3301836879	-0.507591809	 0.4625826635	 0.24772
H	 0.3070836875	 0.026313901	-2.3125573628	 0.126152
H	 0.7141526699	-1.9779602468	-3.3878323292	 0.25822
H	-0.6486703837	-4.0683303988	-3.760663311	 0.135031
H	 0.9751552231	-4.47119585	-3.14740681	 0.139589
H	-0.4009182348	-4.3682780595	-2.0230207054	 0.177621
36.6107	69.9381	102.4713	109.4923	151.5273	183.7498	206.6107	254.3797	306.395	362.2771	409.167	429.872	488.3003	605.0932	679.7438	756.4556	782.628	899.8119	940.4637	991.9478	1063.0755	1153.27	1155.7426	1159.8547	1174.9735	1215.3436	1243.6149	1297.8085	1343.2593	1443.1764	1461.781	1485.9608	1493.8544	1496.484	1498.3253	1519.7223	1570.5462	1802.5897	2336.5352	2982.783	3009.0802	3038.1243	3060.8808	3095.629	3115.7782	3162.4026	3535.8769	3640.7114
CNC(C#N)C(=O)NC	CN[C@@H](C#N)C(=O)NC	
InChI=1S/C5H9N3O/c1-7-4(3-6)5(9)8-2/h4,7H,1-2H3,(H,8,9)	InChI=1S/C5H9N3O/c1-7-4(3-6)5(9)8-2/h4,7H,1-2H3,(H,8,9)/t4-/m0/s1
