25
gdb 60415	4.31538	0.62434	0.56923	1.4159	90.07	-0.2602	0.0734	0.3337	2030.2053	0.228065	-389.488423	-389.477865	-389.476921	-389.524827	39.181	
C	 0.0270511975	 1.5682414321	-0.0229797738	-0.40165
C	 0.0284913302	 0.042788199	 0.083481144	 0.137826
O	 0.6694775079	-0.3862164349	 1.2850171734	-0.428109
C	-1.3786113225	-0.5544235793	-0.0500488757	-0.190633
C	-1.3995468627	-2.0867091802	-0.0188069936	-0.207563
C	-2.8001482933	-2.6771958977	-0.0972369105	 0.061006
C	-3.6130751827	-2.5561059049	-1.4211018961	-0.216265
C	-4.1376745409	-3.9981639483	-1.1870133036	-0.210517
C	-2.9634254646	-4.2210344621	-0.1967054423	-0.235259
H	 1.0414706498	 1.9589894899	 0.0943496165	 0.122311
H	-0.3648544472	 1.8992904755	-0.9902851375	 0.114514
H	-0.6026929591	 2.0112157937	 0.7593370525	 0.103866
H	 0.6603068208	-0.3682063315	-0.7147219687	 0.086113
H	 0.1753055256	-0.0134300344	 2.0240265385	 0.273834
H	-2.0056209809	-0.1580684184	 0.7640197295	 0.078407
H	-1.829662979	-0.1915058307	-0.9829737494	 0.095953
H	-0.7997710903	-2.4729699271	-0.8555741918	 0.084866
H	-0.9003235881	-2.4282874461	 0.8957118649	 0.104659
H	-3.4063112396	-2.2992675176	 0.7363704268	 0.061996
H	-4.3473354159	-1.7507683762	-1.5053568199	 0.090509
H	-2.9453007484	-2.5079209049	-2.2886683453	 0.093762
H	-5.1044055663	-3.9985312947	-0.6748377769	 0.099027
H	-4.2067843021	-4.6610471577	-2.052814976	 0.093428
H	-2.0993916674	-4.6760241584	-0.6929052379	 0.096406
H	-3.1638612109	-4.7752998949	 0.7239088629	 0.091513
49.6754	64.8715	97.1007	137.0568	171.2141	232.9718	243.369	288.3707	298.3358	403.871	419.5755	471.0134	495.5188	636.6616	755.3254	782.2181	785.748	848.3905	893.4858	920.8537	933.9172	937.7007	963.3622	975.5693	1013.8414	1034.5714	1054.7784	1102.7388	1116.7784	1124.9725	1172.4669	1198.8702	1207.7086	1250.7464	1256.0422	1258.4624	1268.0953	1283.3123	1298.084	1308.6519	1343.0823	1350.0815	1387.2625	1396.5474	1404.7281	1421.3396	1474.0767	1478.0695	1486.0718	1491.6462	1495.4601	1498.0984	1511.2533	2987.853	3004.2002	3019.7417	3020.8863	3029.4277	3039.4867	3041.8293	3045.944	3055.6366	3066.53	3091.6982	3092.0083	3096.1353	3113.397	3117.1085	3792.8479
CC(O)CCC1CCC1	C[C@@H](O)CCC1CCC1	
InChI=1S/C8H16O/c1-7(9)5-6-8-3-2-4-8/h7-9H,2-6H2,1H3	InChI=1S/C8H16O/c1-7(9)5-6-8-3-2-4-8/h7-9H,2-6H2,1H3/t7-/m1/s1
