25
gdb 121848	3.80748	0.65118	0.64199	0.3909	86.4	-0.2494	0.0689	0.3183	1892.7749	0.225228	-426.616249	-426.604203	-426.603259	-426.653883	42.784	
C	 0.1645512297	 1.3422790667	 0.0074737312	-0.226209
O	 0.0568534204	-0.059072298	 0.0010700184	-0.228763
C	-1.284368461	-0.5069378985	 0.0115410447	-0.073371
C	-1.2611496995	-2.0317224865	 0.0031499898	-0.217594
C	-2.6371554057	-2.7372342515	 0.0125926326	 0.246781
C	-3.4357469932	-2.3937583451	 1.2848255334	-0.410967
C	-3.4601265441	-2.3800145913	-1.2401695327	-0.410967
C	-2.3486605335	-4.2504061276	 0.0015635933	-0.084034
O	-3.5763475476	-4.965948779	 0.0094500638	-0.427607
H	 1.2289459403	 1.59061918	-0.0014360736	 0.12425
H	-0.3124229914	 1.7956053981	-0.8768042696	 0.10068
H	-0.2952943971	 1.7861469375	 0.9055166152	 0.10068
H	-1.8023614868	-0.1216924228	 0.9050463738	 0.086241
H	-1.8193709101	-0.1122013303	-0.8676845329	 0.086242
H	-0.6962465974	-2.3481550426	-0.8828851071	 0.098841
H	-0.6793524945	-2.3575789645	 0.8747178988	 0.098843
H	-3.7441894128	-1.344192069	 1.2978574781	 0.10733
H	-4.3347834039	-3.0114252112	 1.3443672069	 0.132157
H	-2.8389247739	-2.5795059559	 2.1854142046	 0.103658
H	-2.880787584	-2.5557800307	-2.1540796787	 0.103654
H	-4.36015334	-2.9971720351	-1.2891066056	 0.132158
H	-3.7687506203	-1.3304298954	-1.2357659094	 0.107329
H	-1.7570744601	-4.4992170925	-0.894300042	 0.081479
H	-1.7399896944	-4.5089248569	 0.8831210363	 0.081481
H	-3.3768407989	-5.9058967878	 0.0022111508	 0.287705
51.7477	69.2802	114.4671	123.9855	128.6545	215.2871	231.7086	241.0378	242.0143	247.9016	293.8118	324.6955	336.0139	381.207	409.4455	484.3455	587.9088	753.4606	798.5636	896.9846	930.4893	957.8045	972.9517	990.8951	1014.2196	1047.6591	1092.2178	1097.4813	1161.4639	1179.568	1196.3411	1207.1061	1215.2097	1240.5789	1248.6342	1294.0136	1299.5754	1342.4441	1343.8023	1393.4927	1407.7062	1427.0349	1453.7741	1481.1582	1483.1161	1485.0045	1485.6791	1495.8828	1499.2137	1505.3958	1513.9208	1520.3468	1534.8593	2956.5354	2958.6604	2969.4682	2988.2373	2991.4236	3004.9134	3020.3022	3029.8389	3035.542	3062.7249	3094.7471	3098.5058	3109.6754	3123.5469	3127.2174	3840.983
COCCC(C)(C)CO	COCCC(C)(C)CO	
InChI=1S/C7H16O2/c1-7(2,6-8)4-5-9-3/h8H,4-6H2,1-3H3	InChI=1S/C7H16O2/c1-7(2,6-8)4-5-9-3/h8H,4-6H2,1-3H3
