19
gdb 75116	2.85572	1.28052	0.98316	3.1787	78.5	-0.2237	-0.0205	0.2032	1232.0537	0.158867	-423.040496	-423.03172	-423.030776	-423.074377	32.611	
C	-0.1571636453	 1.5515257938	 0.0614234406	-0.486002
C	-0.0178641753	 0.054888577	 0.0250231258	 0.33361
C	-0.0212784096	-0.6416381334	-1.1125064068	-0.166484
C	 0.0988861865	-2.1484823838	-1.2163026923	-0.362556
C	 1.3434613678	-2.7355675385	-0.5526304035	 0.380441
O	 2.1758660427	-3.3407114258	-1.1852430432	-0.288738
C	 1.4654411155	-2.6151717086	 0.9740921308	-0.172386
O	 1.4059233988	-1.306127855	 1.4975764804	-0.231106
C	 0.1567601014	-0.6421571872	 1.3656393074	-0.177429
H	 0.7248833488	 2.0156307471	 0.521087499	 0.135155
H	-0.2844442411	 1.9722374576	-0.939214339	 0.124335
H	-1.0199176246	 1.8544071026	 0.6691174325	 0.126008
H	-0.1112828691	-0.1116473997	-2.0569841238	 0.096837
H	-0.7768841495	-2.6222698709	-0.7456057458	 0.123306
H	 0.1192995551	-2.4628632384	-2.2611090848	 0.127246
H	 0.6735157451	-3.246867827	 1.4190547506	 0.098594
H	 2.4359318685	-3.0266139366	 1.2588765333	 0.131985
H	 0.1289903917	 0.0942062816	 2.1743706865	 0.110892
H	-0.6680231275	-1.3541663447	 1.5412137622	 0.096293
55.36	84.6359	191.8883	229.6684	258.0036	300.7582	348.7263	361.5228	439.8121	482.2521	504.8804	597.4649	669.2277	793.3507	826.2395	871.4502	887.5141	934.9924	984.9484	994.0459	1037.5586	1070.632	1109.2866	1140.0228	1149.685	1221.4832	1242.2867	1272.0895	1309.3745	1324.6052	1359.5885	1378.3759	1406.0185	1413.5488	1460.1078	1471.2508	1478.8299	1487.1171	1493.3447	1735.0529	1815.0706	2932.9441	2957.5336	2990.1276	3014.7456	3061.5253	3078.9689	3114.4685	3115.072	3115.981	3161.1017
CC1=CCC(=O)COC1	CC1=CCC(=O)COC1	
InChI=1S/C7H10O2/c1-6-2-3-7(8)5-9-4-6/h2H,3-5H2,1H3	InChI=1S/C7H10O2/c1-6-2-3-7(8)5-9-4-6/h2H,3-5H2,1H3
