17
gdb 79596	2.33609	1.9118	1.27366	2.5788	72.57	-0.2392	-0.0351	0.2041	996.3946	0.135615	-417.929302	-417.921345	-417.920401	-417.961861	29.904	
C	-0.2193224947	 1.4420156948	 0.2457339087	-0.311117
N	 0.1044154435	 0.0212878843	 0.2366517489	-0.075085
C	 1.3979518102	-0.4922348373	-0.1563484978	-0.078811
C	 2.5822943072	 0.3346462319	 0.3341888608	-0.115205
N	 3.3629800764	-0.3521598771	 1.3454211273	-0.355522
C	 2.0670585557	 0.2078683625	 1.767689304	 0.208182
C	 2.0679517089	 1.2428669077	 2.8200861649	 0.085453
O	 1.0766259406	 1.5907734523	 3.4155398225	-0.264862
C	 0.8872125183	-0.6184075008	 1.2690695105	-0.138196
H	 0.6079117468	 2.0998194582	 0.5392122441	 0.112201
H	-0.5512387347	 1.7253202829	-0.7576952421	 0.122806
H	-1.0448555814	 1.6038665118	 0.9431853255	 0.141686
H	 1.4477621804	-1.247450382	-0.9339922865	 0.108683
H	 3.0207454714	 1.2098904777	-0.1306920833	 0.119864
H	 3.3046911677	-1.3648421968	 1.2528677664	 0.241579
H	 3.0671320523	 1.6861237475	 3.0171286593	 0.089862
H	 0.4749175413	-1.4844800077	 1.7751208267	 0.108481
95.6606	138.8401	175.8934	213.083	247.6602	331.1906	431.758	487.6594	516.1416	631.1558	712.0521	754.6545	781.5264	840.7098	903.2469	918.9207	956.0845	980.6226	1010.2114	1041.5138	1061.1606	1079.8902	1114.9524	1131.9427	1156.9993	1180.0542	1244.8095	1267.2704	1273.7276	1292.7374	1355.2149	1377.3198	1426.2249	1452.6822	1486.405	1498.0402	1806.25	2912.9241	3023.9002	3090.356	3122.887	3165.2099	3178.1935	3189.3295	3470.9537
CN1C2C3NC3(C=O)C12	CN1[C@H]2[C@@H]3N[C@]3(C=O)[C@@H]12	
InChI=1S/C6H8N2O/c1-8-3-4-6(2-9,7-4)5(3)8/h2-5,7H,1H3	InChI=1S/C6H8N2O/c1-8-3-4-6(2-9,7-4)5(3)8/h2-5,7H,1H3/t3-,4-,5-,6-,8?/m0/s1
