19
gdb 106592	3.26994	1.4326	1.32009	1.3419	79.	-0.2159	0.0001	0.216	1038.4181	0.160716	-385.870974	-385.863437	-385.862493	-385.902677	30.947	
O	-0.0677992681	 1.4293717903	-0.0064485065	-0.426792
C	-0.0034179786	 0.0073756968	 0.0036644679	-0.202475
C	-1.4215372966	-0.5175952415	 0.0191379265	 0.282251
C	-1.6339940857	-2.063221859	 0.0341633912	-0.24912
C	-3.1845815627	-1.9127165959	 0.0449031123	-0.123334
C	-3.3107975048	-0.9989028168	 1.2830815285	-0.09192
C	-2.2696344585	-0.1687286988	 1.2637880785	-0.097895
C	-3.3301303859	-1.0204141979	-1.206807209	-0.091894
C	-2.2888689796	-0.1902142222	-1.2180280373	-0.097932
H	 0.8305832221	 1.7722022286	-0.0173086375	 0.288542
H	 0.5238343359	-0.3717328071	-0.8864695647	 0.085262
H	 0.5383633352	-0.3585015261	 0.8906102024	 0.085256
H	-1.2539994423	-2.5576620087	-0.8649396667	 0.090201
H	-1.2399978488	-2.5420338375	 0.9356917235	 0.09021
H	-3.7829134646	-2.8233408277	 0.0573986984	 0.057884
H	-4.1388622181	-1.0209223476	 1.9789401104	 0.095846
H	-2.0397839819	 0.6535040781	 1.9270915608	 0.105064
H	-4.1688631527	-1.0543879235	-1.8892743567	 0.09585
H	-2.0695614646	 0.6203843063	-1.8990159917	 0.104997
97.7143	176.3997	249.4123	306.9744	388.3406	437.313	465.337	510.8578	557.3228	654.7451	690.6773	716.6756	765.4559	792.8573	816.5353	882.6127	901.4585	911.3271	923.925	926.2533	942.7621	1020.6374	1035.9283	1067.8284	1082.8345	1086.7478	1106.996	1172.0816	1201.0458	1234.5238	1252.0325	1263.7236	1270.6373	1277.1184	1298.5859	1358.4799	1463.1021	1488.3284	1519.9526	1614.431	1659.8799	2963.7903	2994.0272	3044.4782	3105.1854	3118.092	3210.2506	3211.7227	3238.6759	3240.87	3829.2803
OCC12CC(C=C1)C=C2	OC[C@@]12C[C@@H](C=C1)C=C2	
InChI=1S/C8H10O/c9-6-8-3-1-7(5-8)2-4-8/h1-4,7,9H,5-6H2	InChI=1S/C8H10O/c9-6-8-3-1-7(5-8)2-4-8/h1-4,7,9H,5-6H2/t7-,8-
