16
gdb 94256	2.17465	1.44959	1.31713	3.4457	69.96	-0.2763	-0.0649	0.2115	1057.8561	0.123425	-437.893964	-437.885419	-437.884475	-437.927198	31.342	
O	 0.5392562058	 0.980379425	-0.5375365814	-0.418635
C	 0.1598359106	-0.1523227484	 0.1589864185	 0.134248
C	-0.0697362688	-0.1051850036	 1.6924263503	-0.271271
C	-1.2659125011	-1.0713421764	 1.5261975444	-0.262249
C	-1.3213721704	-0.7156423345	-0.0165859857	 0.00171
C	-2.3511642859	 0.3770290258	-0.2499180066	 0.133435
O	-2.147868113	 1.5428886695	-0.0095508984	-0.271943
C	-1.5279452382	-1.823774041	-0.930132587	 0.212324
N	-1.6863403431	-2.7090674449	-1.6574536759	-0.328701
H	-0.1090154773	 1.6696698403	-0.3360017934	 0.302275
H	 0.8610324015	-0.9460712431	-0.1107453955	 0.121285
H	 0.7547939692	-0.4311647902	 2.3278537368	 0.119259
H	-0.3945191753	 0.8895114126	 2.0058422808	 0.128926
H	-0.998939837	-2.1210127679	 1.6561841637	 0.142125
H	-2.1741789113	-0.8619422105	 2.0932673139	 0.131622
H	-3.3331020856	 0.0314191773	-0.6311683745	 0.125588
98.3138	133.2495	153.2796	182.9885	228.8926	274.2604	352.4334	460.1643	522.8139	531.5038	548.693	575.9984	621.6983	751.3919	800.481	867.4605	915.6453	954.0809	977.463	1045.9896	1089.4804	1142.3585	1164.1729	1179.1531	1219.9503	1254.027	1263.2625	1301.4337	1348.2181	1423.2915	1457.242	1481.233	1495.7432	1800.4458	2347.7286	2935.4286	3079.5879	3084.2186	3087.5231	3132.803	3147.5644	3745.7957
OC1CCC1(C=O)C#N	O[C@H]1CC[C@]1(C=O)C#N	
InChI=1S/C6H7NO2/c7-3-6(4-8)2-1-5(6)9/h4-5,9H,1-2H2	InChI=1S/C6H7NO2/c7-3-6(4-8)2-1-5(6)9/h4-5,9H,1-2H2/t5-,6+/m0/s1
