16
gdb 27294	3.35166	1.3447	0.96543	5.4096	82.31	-0.1772	-0.0427	0.1346	1171.9491	0.124245	-437.927482	-437.919166	-437.918222	-437.960405	31.309	
C	 0.0684461688	 1.5186460955	-0.0537143709	-0.477292
C	-0.0350194233	 0.0311104324	 0.0475465526	 0.391498
C	-1.169225973	-0.7166255914	-0.1712201185	-0.324793
C	-1.116392965	-2.1086832506	-0.0393762008	 0.28461
N	-2.1236138536	-2.9625714787	-0.2175079379	-0.548971
H	-3.0566143094	-2.6948737732	-0.472325297	 0.263165
H	-1.8499526108	-3.9318529213	-0.0663634686	 0.280077
C	 0.1401717366	-2.7907669574	 0.3317806075	 0.252999
O	 0.1467765036	-4.0380074881	 0.4397841785	-0.489858
C	 1.2055528229	-1.9073681241	 0.5218796135	-0.119329
O	 1.1007584851	-0.5596393185	 0.3808565096	-0.178992
H	 0.8096280455	 1.8094216105	-0.8061001149	 0.149429
H	-0.8947801918	 1.9502093103	-0.3310423993	 0.136646
H	 0.3837351179	 1.9551662314	 0.9002206859	 0.149425
H	-2.088202989	-0.2093146192	-0.4433930582	 0.099235
H	 2.2051019256	-2.2093593076	 0.7966862085	 0.132152
72.8668	132.1401	197.3017	283.4513	290.9582	334.1744	343.5009	443.4461	455.3141	511.0712	582.9736	609.5508	700.2809	738.4379	772.6303	781.9357	784.5374	857.1203	932.061	1012.4568	1056.5366	1074.7458	1189.7594	1239.364	1270.205	1360.6443	1397.5752	1412.2215	1444.7292	1471.4972	1479.5611	1523.1906	1580.0363	1639.0969	1676.0124	3037.0038	3091.0414	3138.9948	3184.7017	3248.2394	3465.9672	3720.0477
CC1=CC(=[NH2+])C([O-])=CO1	CC1=C[C](N)C(=O)[CH]O1	
InChI=1S/C6H7NO2/c1-4-2-5(7)6(8)3-9-4/h2-3,7-8H,1H3	InChI=1S/C6H7NO2/c1-4-2-5(7)6(8)3-9-4/h2-3H,7H2,1H3
