14
gdb 8783	4.47898	1.28112	1.00839	0.3138	65.73	-0.2527	-0.1021	0.1506	1114.5558	0.103027	-382.531935	-382.522982	-382.522038	-382.566494	30.33	
C	-0.0522912149	 1.5392031514	 0.0814383982	-0.38996
C	 0.0236260918	 0.0197012915	-0.0372498809	-0.280521
C	 0.7370431785	-0.442301274	-1.2863769874	 0.292245
O	 1.2077492295	 0.2905693555	-2.121674675	-0.276125
C	 0.8471868506	-1.9774877693	-1.4637258676	 0.114794
O	 0.3831751706	-2.7350633004	-0.6394342393	-0.271243
C	 1.5285565656	-2.4237059664	-2.6575197024	 0.301279
C	 2.0921880797	-2.8187489135	-3.644846643	-0.380554
H	 0.9471903343	 1.9814752175	 0.1019835676	 0.13316
H	-0.5822783531	 1.973167029	-0.770478114	 0.133202
H	-0.5760990481	 1.8255596464	 0.9970651132	 0.117315
H	 0.532444392	-0.4360341815	 0.822196637	 0.14257
H	-0.9713770491	-0.4442274548	-0.033773402	 0.142563
H	 2.5907303427	-3.1646631616	-4.5180422243	 0.221276
39.2096	65.5865	121.5749	181.9724	211.5615	230.8052	298.4995	395.1069	411.0822	495.198	650.2732	660.7525	676.7778	721.01	742.0124	829.4195	926.8171	1008.3061	1082.057	1102.7037	1217.5736	1261.9536	1375.2453	1416.9258	1436.4868	1493.4999	1497.6819	1757.7101	1810.8865	2214.2713	3036.1306	3052.2605	3058.724	3125.3354	3125.6657	3492.7468
CCC(=O)C(=O)C#C	CCC(=O)C(=O)C#C	
InChI=1S/C6H6O2/c1-3-5(7)6(8)4-2/h1H,4H2,2H3	InChI=1S/C6H6O2/c1-3-5(7)6(8)4-2/h1H,4H2,2H3
