15
gdb 45760	2.88563	1.53478	1.18455	2.322	65.77	-0.251	-0.0232	0.2278	1023.1882	0.113725	-453.962199	-453.954676	-453.953732	-453.994872	27.564	
O	-0.0401529486	 0.0100152649	 0.2048310233	-0.361662
C	-0.0034197851	 1.2090476676	 0.1002743202	 0.433047
N	-1.0802095702	 2.090006018	 0.1318211629	-0.336591
C	-0.6051214493	 3.3864671115	-0.0180821273	 0.076144
N	 0.6564583034	 3.5096747538	-0.1648565277	-0.239229
C	 1.2044193809	 2.1519111057	-0.0852573456	-0.162353
C	 2.1951965245	 1.973829867	 1.0535995286	 0.083897
C	 2.9251066036	 3.1034979198	 1.6345623477	-0.176068
O	 1.8113439605	 2.5090418112	 2.3144314338	-0.235519
H	-2.0351493499	 1.8113578688	 0.289535041	 0.273351
H	-1.3037619432	 4.2168151446	-0.0188915613	 0.145872
H	 1.7132497329	 1.8979921168	-1.0240969044	 0.130068
H	 2.626160792	 0.9733918707	 1.0943061416	 0.11399
H	 3.8958217015	 2.9315706712	 2.096512656	 0.116506
H	 2.744145717	 4.1007021785	 1.2430484413	 0.138545
77.4318	96.7117	167.3358	228.4697	354.4535	395.4336	505.9	535.693	618.2981	667.5145	722.6425	810.6886	862.9285	901.2755	908.3571	943.5145	968.9662	994.8004	1070.8879	1098.0252	1109.6421	1167.1988	1169.8576	1186.3481	1249.8419	1270.7248	1307.6956	1351.7632	1397.5915	1421.762	1517.276	1680.511	1857.7553	3038.3668	3097.1079	3117.7904	3195.7971	3198.2303	3654.9813
O=C1NC=NC1C1CO1	O=C1NC=N[C@H]1[C@H]1CO1	
InChI=1S/C5H6N2O2/c8-5-4(3-1-9-3)6-2-7-5/h2-4H,1H2,(H,6,7,8)	InChI=1S/C5H6N2O2/c8-5-4(3-1-9-3)6-2-7-5/h2-4H,1H2,(H,6,7,8)/t3-,4+/m1/s1
