19
gdb 6478	4.3665	1.25487	1.19351	2.0888	68.36	-0.2238	0.0701	0.2939	1087.4892	0.164365	-402.164617	-402.155924	-402.15498	-402.197573	32.591	
C	-0.1302386657	 1.4153459032	 0.0647427383	-0.319238
N	 0.1293072735	-0.0060740999	 0.0893347926	-0.088115
C	 1.1472828567	-0.5632890418	-0.8255722031	-0.227597
C	 1.5012517472	-1.591469625	 0.2815880145	 0.37956
O	 0.7848908241	-2.8125276333	 0.164103354	-0.496488
C	 2.9462553483	-1.9861880088	 0.5119838116	-0.093967
O	 3.0743447812	-2.7697035828	 1.6827747201	-0.426092
C	 0.8302267113	-0.5852171358	 1.2549851791	-0.220463
H	 0.7826085473	 2.0240014971	 0.211024438	 0.091942
H	-0.5757094095	 1.6964779888	-0.8954473813	 0.12198
H	-0.8421700909	 1.6769650989	 0.8547657506	 0.122607
H	 0.7644881896	-0.9605337067	-1.7715410547	 0.103335
H	 1.9798385611	 0.1318120224	-1.0306597724	 0.083425
H	-0.1529831316	-2.5949041298	 0.118618423	 0.291843
H	 3.3150879803	-2.5218183374	-0.3783346913	 0.091812
H	 3.5643522104	-1.0942747622	 0.6498548926	 0.102982
H	 2.3975983792	-3.4537971333	 1.6101423795	 0.291164
H	 1.5647500427	 0.0981957356	 1.7117757889	 0.089682
H	 0.1833186648	-0.9934033393	 2.03882859	 0.101627
80.9017	109.988	198.9569	240.2916	301.1818	313.2561	343.4753	374.9714	413.2987	424.0493	456.4107	501.2964	666.9489	757.8083	901.337	920.2509	962.44	972.0499	987.3697	1061.2645	1096.3935	1109.3669	1117.0186	1123.7467	1167.728	1201.3158	1217.5082	1234.8105	1291.4812	1296.9913	1325.3442	1372.2862	1413.5997	1450.639	1451.8889	1485.6598	1492.3767	1498.2079	1500.3517	1523.1578	2925.69	2953.8102	2972.454	2974.0655	3056.5827	3063.3293	3064.9843	3087.1894	3098.7338	3789.254	3804.2956
CN1CC(O)(CO)C1	CN1CC(O)(CO)C1	
InChI=1S/C5H11NO2/c1-6-2-5(8,3-6)4-7/h7-8H,2-4H2,1H3	InChI=1S/C5H11NO2/c1-6-2-5(8,3-6)4-7/h7-8H,2-4H2,1H3
