17
gdb 9706	3.06738	1.78836	1.59727	4.0785	73.42	-0.2635	-0.0023	0.2612	899.016	0.143005	-326.760014	-326.752308	-326.751364	-326.791962	28.936	
C	-0.0662223359	 1.5356223817	-0.0108917652	-0.431535
C	 0.0018806207	-0.0048767459	 0.002721193	 0.099056
C	 0.8053270933	-0.5885471696	-1.2088998609	-0.248786
C	 1.62485171	-1.774421351	-0.6472577426	-0.2605
C	 1.6459945131	-1.5016615513	 0.8364217544	-0.061786
C	 0.7745296177	-0.563594929	 1.1944361802	-0.087824
C	-1.3718004673	-0.5406582997	 0.0219543725	 0.256997
N	-2.4498686038	-0.9590691171	 0.0394949541	-0.346851
H	 0.9478452898	 1.9440604943	 0.0183964261	 0.125102
H	-0.5644071483	 1.8962332096	-0.9153741758	 0.134831
H	-0.6183816332	 1.9134946549	 0.8540726773	 0.134245
H	 0.1550096392	-0.8656239789	-2.0403776046	 0.122159
H	 1.4826807551	 0.1935122628	-1.5645207269	 0.111639
H	 1.144040252	-2.740047319	-0.8526003884	 0.125952
H	 2.6268630066	-1.8290139304	-1.0859427395	 0.112222
H	 2.2841970822	-2.0468557873	 1.5229530803	 0.106292
H	 0.5706521087	-0.2247889639	 2.2033535861	 0.108787
78.4922	166.8002	191.5706	243.256	283.3464	333.7015	455.0208	499.161	572.1206	618.8644	686.814	773.7946	782.8364	847.2071	912.5112	921.2149	954.7867	974.2708	1002.0369	1028.715	1105.1983	1123.7011	1158.6181	1188.7962	1221.9046	1262.5514	1317.4286	1323.6232	1373.3007	1410.7072	1479.5486	1490.0304	1494.0605	1499.1922	1688.7591	2344.8116	3024.2669	3041.6791	3057.5049	3070.9815	3119.5452	3120.2208	3123.5353	3189.8699	3215.6313
CC1(CCC=C1)C#N	C[C@]1(CCC=C1)C#N	
InChI=1S/C7H9N/c1-7(6-8)4-2-3-5-7/h2,4H,3,5H2,1H3	InChI=1S/C7H9N/c1-7(6-8)4-2-3-5-7/h2,4H,3,5H2,1H3/t7-/m0/s1
