16
gdb 124679	3.86964	1.02759	0.98258	4.318	70.04	-0.2586	-0.0575	0.201	1218.5863	0.12398	-434.083847	-434.0754	-434.074455	-434.118308	29.428	
C	-0.0319498405	 1.4493833118	 0.1762458489	-0.390547
C	-0.0000915292	-0.0643944741	-0.0281116515	-0.087161
C	-1.397540894	-0.6980008568	 0.010980299	 0.149954
O	-2.363549564	-0.1512485783	 0.4671086533	-0.221808
N	 0.6806048786	-0.4718813979	-1.251595591	-0.01719
C	 0.3073300702	-0.227215405	-2.5474641184	 0.018428
N	 1.1605899703	-0.753128508	-3.387190636	-0.218926
N	 2.1416094753	-1.373204311	-2.6375925053	-0.222373
C	 1.8353345188	-1.1953528067	-1.3799987484	 0.021559
H	 0.9831302631	 1.8487454447	 0.2290167984	 0.136727
H	-0.561111021	 1.9430263349	-0.6428013729	 0.141393
H	-0.5618805256	 1.6808498369	 1.1019367399	 0.152083
H	 0.5552087292	-0.535054696	 0.7951214515	 0.132193
H	-1.4394533578	-1.7250646882	-0.4131932025	 0.108529
H	-0.5769981054	 0.3319664117	-2.8124510396	 0.151693
H	 2.3971211119	-1.5545939779	-0.5310850052	 0.145446
42.1586	68.8006	116.7957	181.381	233.6684	256.6372	391.0441	403.2354	575.8379	662.0438	695.8325	717.3729	817.3607	844.9247	849.7634	925.4855	955.7536	1016.6158	1039.5528	1089.7418	1109.0764	1141.7354	1209.9669	1232.3111	1267.8299	1310.7292	1376.4389	1398.0252	1407.365	1422.0553	1486.0416	1491.6604	1501.3923	1541.5053	1842.6928	2904.2956	3025.2919	3060.6089	3135.7343	3149.2368	3259.0621	3263.7034
CC(C=O)N1C=NN=C1	C[C@@H](C=O)n1cnnc1	
InChI=1S/C5H7N3O/c1-5(2-9)8-3-6-7-4-8/h2-5H,1H3	InChI=1S/C5H7N3O/c1-5(2-9)8-3-6-7-4-8/h2-5H,1H3/t5-/m0/s1
