22
gdb 52763	2.08491	1.10351	0.98278	1.5557	93.12	-0.2108	0.0473	0.2581	1427.8902	0.190258	-367.170682	-367.159231	-367.158287	-367.208386	40.149	
C	-0.2819655249	 1.4372188057	-1.0503339853	-0.502395
C	-0.2253698396	 0.013049668	-0.7522113268	 0.064843
C	-0.1739928141	-1.1653402382	-0.5000881976	 0.046391
C	-0.0822810607	-2.5871536378	-0.2687198898	 0.132157
C	 0.9468826789	-3.300178852	-1.1305950129	-0.458896
C	-0.4032807103	-3.1158152045	 1.1096068043	-0.02339
C	-0.7417038747	-2.2142338843	 2.2753047712	-0.426681
N	-1.3112727815	-3.3688610539	-0.0058400222	-0.139561
C	-2.6134832764	-2.7184352537	-0.0505189676	-0.315362
H	 0.711151638	 1.8956454467	-0.9847878187	 0.149521
H	-0.6645025509	 1.6200280841	-2.0607977234	 0.148722
H	-0.9360358934	 1.9657786321	-0.3480771726	 0.14796
H	 1.9490555608	-2.8976849625	-0.9519085413	 0.118693
H	 0.9455201773	-4.3690848126	-0.9038276981	 0.123425
H	 0.7143185574	-3.1733777547	-2.1925899737	 0.123103
H	 0.1465390886	-4.0115895573	 1.4024786179	 0.084159
H	-1.1264905089	-1.2446282624	 1.9551888931	 0.13206
H	-1.4834401362	-2.6865063831	 2.9291038118	 0.119536
H	 0.1572215363	-2.033245277	 2.8738112674	 0.12201
H	-2.6141382581	-1.657609661	 0.2312754794	 0.112814
H	-3.0040577075	-2.7935350944	-1.0702939958	 0.122759
H	-3.2973493403	-3.2590426771	 0.6117628208	 0.118132
17.5011	89.2393	92.5187	144.3011	158.7614	188.1381	215.5683	237.2033	264.0059	274.5658	304.1049	370.5848	422.9519	526.1116	545.7586	599.7801	600.458	723.0479	783.1716	881.0047	1001.462	1042.2008	1051.7383	1053.5902	1055.5903	1087.8152	1119.3709	1141.9458	1151.9549	1160.7769	1184.5074	1300.8462	1352.9316	1401.1681	1406.2571	1414.7564	1421.1784	1449.2982	1476.8992	1479.1359	1481.1066	1482.8113	1489.0882	1494.2728	1498.569	1511.1651	2355.9597	3010.1916	3025.4375	3037.2539	3037.9973	3077.2528	3084.4637	3084.8555	3087.1092	3094.0785	3100.5723	3105.9934	3125.029	3138.3514
CC#CC1(C)C(C)N1C	CC#C[C@@]1(C)[C@@H](C)N1C	
InChI=1S/C8H13N/c1-5-6-8(3)7(2)9(8)4/h7H,1-4H3	InChI=1S/C8H13N/c1-5-6-8(3)7(2)9(8)4/h7H,1-4H3/t7-,8+,9?/m1/s1
