19
gdb 100593	3.94041	0.79708	0.68658	1.8492	77.44	-0.2509	-0.0191	0.2318	1641.7682	0.158273	-456.386571	-456.376441	-456.375497	-456.422387	35.909	
C	-0.3199126511	 1.7442455406	-0.6010518187	-0.388636
C	-0.1382421492	 0.2274798025	-0.679369005	-0.197031
C	-0.9267870429	-0.5276086979	 0.3931784716	 0.019488
O	-2.3371022581	-0.3508840977	 0.2820722518	-0.435549
C	-0.5231703242	-2.0145648447	 0.4278989151	 0.379058
O	 0.6358775159	-2.3719630904	 0.3593862175	-0.366058
N	-1.5844765759	-2.8770341371	 0.5685455357	-0.305623
C	-1.4575050566	-4.2534381824	 0.6519596973	 0.1018
N	-2.4869369803	-4.9847253409	 0.7890481987	-0.461183
H	 0.222733098	 2.2440728931	-1.4083578399	 0.119524
H	-1.37485997	 2.024445352	-0.6764021103	 0.121371
H	 0.0580294474	 2.1356664804	 0.3495293913	 0.123278
H	-0.4509328113	-0.1442936106	-1.666845418	 0.093752
H	 0.9130518025	-0.0520730754	-0.5713385377	 0.140159
H	-0.6637241116	-0.1249763556	 1.3805822241	 0.127043
H	-2.5642503107	-0.3647373339	-0.6548811702	 0.289338
H	-2.5082370015	-2.4706282988	 0.641190386	 0.270409
H	-0.415678867	-4.5742689477	 0.5847908431	 0.136462
H	-2.2169455935	-5.9657776654	 0.8343299779	 0.232397
40.8552	95.965	125.2922	144.0433	189.948	210.4492	238.418	316.6076	322.9039	350.4094	428.469	458.4788	549.9748	611.9949	759.4609	779.3659	797.6348	837.8528	881.2177	982.6722	995.46	1066.9296	1082.8257	1093.5384	1108.6713	1147.1333	1185.4834	1246.3686	1291.5774	1303.8406	1335.0876	1374.9595	1394.7204	1398.266	1414.0734	1485.8514	1495.8187	1498.9507	1507.1386	1726.673	1792.701	3001.196	3032.1188	3039.1452	3094.7325	3109.5015	3117.4226	3118.0022	3504.0068	3592.7255	3797.0172
CCC(O)C(=O)NC=N	CC[C@@H](O)C(=O)NC=N	
InChI=1S/C5H10N2O2/c1-2-4(8)5(9)7-3-6/h3-4,8H,2H2,1H3,(H2,6,7,9)	InChI=1S/C5H10N2O2/c1-2-4(8)5(9)7-3-6/h3-4,8H,2H2,1H3,(H2,6,7,9)/t4-/m1/s1
