15
gdb 30580	6.86743	0.65473	0.61778	3.3906	84.68	-0.215	-0.0169	0.1982	1741.1155	0.113607	-416.807332	-416.798792	-416.797848	-416.84228	29.892	
O	 0.316826254	 0.5923227776	 1.0051494456	-0.409062
C	-0.0946050694	 0.1624328049	-0.2871519473	-0.232461
C	-1.4470358738	-0.3713211921	-0.2219795621	 0.279808
C	-2.5705356774	-0.8095822124	-0.2029337894	-0.063295
C	-3.8767866739	-1.3433372135	-0.1569591883	 0.160889
N	-4.9607754802	-0.8710450701	-0.7555854986	-0.299788
C	-5.9715857824	-1.7259614405	-0.4146614969	-0.098134
C	-5.5093046195	-2.7308147712	 0.401204131	-0.104263
N	-4.1723583879	-2.479303564	 0.5568828218	-0.2855
H	 1.2024574122	 0.9594471622	 0.9160632704	 0.291091
H	-0.0827025859	 0.9929883293	-1.0112649525	 0.127421
H	 0.5814697456	-0.6140038093	-0.6820641916	 0.118404
H	-6.9787814236	-1.5749106559	-0.7721896973	 0.109461
H	-5.9921523092	-3.5718099455	 0.8702686876	 0.132422
H	-3.5155592688	-3.0129250794	 1.1016339676	 0.273009
26.5217	77.7575	97.104	199.9042	223.6399	307.2257	398.5667	474.6725	537.0321	559.5033	613.7579	646.6231	737.1543	750.3909	863.6787	917.3124	944.3174	1019.157	1023.6947	1067.8446	1110.4829	1142.649	1192.7049	1245.0766	1249.8952	1284.5579	1406.6236	1426.0404	1453.4744	1485.4276	1498.6042	1571.7452	2356.2114	2962.0924	2985.3198	3248.9417	3280.2366	3665.8373	3815.8421
OCC#CC1=NC=CN1	OCC#Cc1ncc[nH]1	
InChI=1S/C6H6N2O/c9-5-1-2-6-7-3-4-8-6/h3-4,9H,5H2,(H,7,8)	InChI=1S/C6H6N2O/c9-5-1-2-6-7-3-4-8-6/h3-4,9H,5H2,(H,7,8)
