13
gdb 131531	3.81074	1.33455	1.05079	5.9993	60.56	-0.2555	-0.0157	0.2398	1053.6875	0.089531	-489.849757	-489.842397	-489.841453	-489.882393	26.45	
O	 0.1909319249	 1.4011625663	 0.1598205616	-0.396298
C	 0.0644023759	 0.021267304	 0.0264977562	-0.033332
C	-1.4485493186	-0.4304652758	-0.0036261084	-0.177673
N	-1.1576794255	-1.0390422745	-1.3228430739	-0.163341
C	 0.1145356565	-0.5806307625	-1.39134737	 0.404812
N	 0.7061223155	-0.7523614431	-2.5191444631	-0.253132
O	-0.3264121533	-1.4103544525	-3.2842474175	-0.251348
C	-1.512229496	-1.5441074335	-2.565003876	 0.511596
O	-2.5261133159	-2.0098169089	-2.9908403236	-0.384932
H	 1.1234012774	 1.6382467966	 0.1098344622	 0.308051
H	 0.669974698	-0.5391805921	 0.7483050803	 0.12168
H	-1.7632825462	-1.1467501348	 0.7554975857	 0.150459
H	-2.1309055628	 0.4190705709	-0.0572069136	 0.163459
57.8393	111.2	207.6013	284.9913	298.8148	392.999	465.3636	602.0468	644.9673	697.025	725.769	759.1253	789.5673	850.3328	887.1272	980.9942	1026.4	1079.9145	1142.1706	1179.4975	1214.8247	1259.9924	1292.7319	1301.5899	1417.3979	1439.8045	1501.7351	1677.5975	1902.5042	3043.5339	3089.5191	3158.2733	3816.4756
OC1CN2C1=NOC2=O	O[C@H]1Cn2c1noc2=O	
InChI=1S/C4H4N2O3/c7-2-1-6-3(2)5-9-4(6)8/h2,7H,1H2	InChI=1S/C4H4N2O3/c7-2-1-6-3(2)5-9-4(6)8/h2,7H,1H2/t2-/m0/s1
