17
gdb 42957	2.47681	2.11837	1.37415	4.3473	72.06	-0.2333	0.0101	0.2434	938.9307	0.13938	-417.994915	-417.988106	-417.987162	-418.026145	27.05	
O	-0.0920370604	 0.0238226583	 0.3547112894	-0.367328
C	-0.0856682957	 1.2012092305	 0.0840088345	 0.416955
C	-1.2893562103	 2.0964259445	-0.1653085451	-0.171735
N	-1.4734313802	 2.9362899833	 1.0531387139	-0.334457
C	-0.8248714111	 3.5098170679	-0.1336477785	-0.068174
C	 0.6915720182	 3.4638632781	-0.0559975481	 0.031306
C	 1.4896002539	 3.7099257181	 1.2603165742	-0.257034
C	 1.9658725927	 2.2294968746	 1.1659113608	-0.176538
N	 1.0286534732	 2.0268947043	 0.0312881381	-0.104384
H	-2.1527597913	 1.7386396895	-0.7118149585	 0.114663
H	-2.4425269002	 3.2439595759	 1.0906894991	 0.24195
H	-1.3232018254	 4.2904243318	-0.6973126937	 0.097528
H	 1.1353975605	 3.9403164033	-0.9377473841	 0.08436
H	 2.2661939539	 4.4745360975	 1.2139389646	 0.106742
H	 0.8328418786	 3.8889490229	 2.112243836	 0.1334
H	 3.0115656103	 2.1026287919	 0.871844571	 0.116405
H	 1.7475269533	 1.5811305977	 2.0174697666	 0.13634
117.177	207.9054	211.9475	289.235	434.6136	511.9412	608.4335	662.6769	675.4202	750.8713	777.5864	809.6326	859.8144	875.0938	899.3677	925.3089	944.6281	977.0853	1045.3919	1067.6774	1080.6833	1100.9997	1132.1036	1163.0559	1181.0533	1213.7156	1245.9754	1260.0957	1264.9212	1292.0482	1318.2053	1354.673	1381.3124	1400.5944	1476.3477	1514.2492	1826.7599	3035.9212	3057.8085	3086.3439	3113.2088	3151.1991	3176.0594	3201.214	3500.3858
O=C1C2NC2C2CCN12	O=C1[C@H]2N[C@H]2[C@H]2CCN12	
InChI=1S/C6H8N2O/c9-6-5-4(7-5)3-1-2-8(3)6/h3-5,7H,1-2H2	InChI=1S/C6H8N2O/c9-6-5-4(7-5)3-1-2-8(3)6/h3-5,7H,1-2H2/t3-,4+,5+/m1/s1
