17
gdb 16167	4.50245	1.63064	1.40517	1.1867	68.79	-0.2268	0.0151	0.242	911.15	0.143292	-363.836511	-363.829053	-363.828109	-363.868302	28.283	
O	 0.6405544701	 0.0110128909	 0.8298585285	-0.411182
C	-0.1055777715	 0.3198367149	-0.3427872567	-0.202927
C	-1.4809721902	-0.3131791889	-0.3315907622	 0.300015
N	-2.2080316122	-0.4859907521	 0.9578772143	-0.378102
C	-1.7720880017	-1.6766890925	 0.1845392914	-0.080219
C	-2.8682432793	-2.2939627716	-0.6772477487	-0.263899
C	-3.1930027012	-1.1830703063	-1.6575364167	-0.072453
C	-2.4191579124	-0.1101870126	-1.4806717795	-0.124247
H	 0.563874157	 0.7497450338	 1.4388982235	 0.294156
H	-0.1968454788	 1.4077346945	-0.4755921334	 0.098825
H	 0.4631549258	-0.0602677899	-1.2004291655	 0.119763
H	-1.515884946	-0.3718966049	 1.6998611196	 0.214083
H	-0.9890595588	-2.2947458684	 0.6092579166	 0.096667
H	-2.5190688747	-3.1999256164	-1.1900211664	 0.104573
H	-3.7426227645	-2.5810299002	-0.0805433932	 0.119411
H	-3.9933680139	-1.2641924167	-2.384780079	 0.095618
H	-2.4690314477	 0.8098370963	-2.0522450827	 0.089919
71.2642	168.0605	212.8178	232.9313	305.0717	421.2981	446.0499	509.6484	659.8608	712.3473	744.4147	786.331	844.2279	900.2067	919.194	952.1274	962.437	1001.6747	1009.7383	1038.2396	1054.7439	1103.0447	1125.396	1169.2188	1198.9572	1211.9346	1266.2551	1314.7442	1334.4252	1356.2791	1385.4227	1422.0479	1432.3398	1464.5077	1499.7491	1668.2465	2996.3714	3021.3782	3049.4372	3057.5223	3177.0862	3182.5883	3207.4077	3452.1599	3848.855
OCC12NC1CC=C2	OC[C@]12N[C@H]1CC=C2	
InChI=1S/C6H9NO/c8-4-6-3-1-2-5(6)7-6/h1,3,5,7-8H,2,4H2	InChI=1S/C6H9NO/c8-4-6-3-1-2-5(6)7-6/h1,3,5,7-8H,2,4H2/t5-,6-/m0/s1
