20
gdb 15655	3.37644	1.56841	1.21502	1.3535	76.18	-0.2443	0.0187	0.263	1060.9314	0.177397	-349.018568	-349.010231	-349.009287	-349.051282	31.769	
C	 0.0162283981	 1.5698328576	-0.0992912675	-0.39034
C	 0.0129240625	 0.0383835021	-0.0601028652	-0.169503
C	 0.62963443	-0.5396821455	 1.2215237979	-0.038547
C	-0.1638472759	-0.3422065812	 2.4998335189	-0.071617
C	-0.0803423149	-1.4017603572	 3.3058965423	-0.088854
C	 0.7851596908	-2.4859116939	 2.7038196723	-0.280933
C	 0.8322256337	-2.0859195157	 1.2085545986	 0.102556
O	-0.1769778861	-2.7588135223	 0.4665922523	-0.429392
H	 1.0350313268	 1.966312021	-0.0220306245	 0.113275
H	-0.4136982755	 1.939879337	-1.0353178215	 0.112875
H	-0.566826769	 2.00080258	 0.7217229846	 0.114368
H	-1.0106171457	-0.3340474486	-0.1768782207	 0.090013
H	 0.5698397606	-0.3493983893	-0.9213602256	 0.101453
H	 1.620352554	-0.073241681	 1.3520295887	 0.07736
H	-0.6998206795	 0.5729766245	 2.7264462136	 0.092371
H	-0.5338611415	-1.4824993494	 4.2877028776	 0.091757
H	 1.7883324194	-2.4799317632	 3.1534818151	 0.107068
H	 0.3899563216	-3.5005164481	 2.8217239517	 0.106837
H	 1.7702375619	-2.3690653059	 0.7238333301	 0.079982
H	-1.0197981913	-2.5710574108	 0.8961491215	 0.279271
88.3613	102.9206	181.7507	218.3785	289.8657	320.6959	380.1186	401.1387	456.8445	526.8072	707.3562	747.6212	776.5866	816.7118	834.4372	866.0495	941.2139	952.6582	971.2699	976.3417	1001.5137	1052.4042	1085.7167	1113.6604	1127.1294	1157.2996	1176.64	1238.6731	1249.4093	1275.1586	1305.1799	1319.5443	1335.8047	1377.3164	1388.0857	1412.8955	1433.1351	1475.5389	1481.0269	1501.1974	1506.7722	1670.315	2963.3831	3009.3928	3029.3284	3034.9637	3066.2566	3068.9841	3081.839	3097.3998	3100.9213	3179.9521	3205.1171	3789.0475
CCC1C=CCC1O	CC[C@H]1C=CC[C@H]1O	
InChI=1S/C7H12O/c1-2-6-4-3-5-7(6)8/h3-4,6-8H,2,5H2,1H3	InChI=1S/C7H12O/c1-2-6-4-3-5-7(6)8/h3-4,6-8H,2,5H2,1H3/t6-,7+/m0/s1
