14
gdb 25531	4.88165	0.91457	0.77027	13.7969	86.09	-0.1544	-0.056	0.0984	1368.7846	0.100762	-470.015496	-470.006928	-470.005984	-470.049696	30.563	
N	-0.0611996269	 0.9161667694	 0.0075661833	-0.523233
H	-0.1405168905	-0.084947159	 0.0048763465	 0.299977
H	 0.8655702124	 1.3082862971	 0.0028741104	 0.282025
C	-1.1725120032	 1.6671958751	 0.0172202106	 0.174389
N	-1.1844585177	 2.9788442026	 0.0215632733	-0.346387
C	-2.3896412525	 3.6939763373	 0.031697764	 0.344334
C	-2.5451484807	 5.0425155999	 0.037059894	-0.143686
O	-3.8697603758	 5.2853390873	 0.0465089518	-0.227025
C	-4.5253074931	 3.9567722806	 0.0463517549	 0.427872
O	-5.7263627122	 3.9122021441	 0.0540960543	-0.40491
N	-3.557350509	 3.0086158093	 0.0370446264	-0.496028
H	-2.151608956	 1.2003176489	 0.0220308263	 0.22057
H	-0.3225978976	 3.5084660777	 0.0177438402	 0.274782
H	-1.8575102373	 5.8737288996	 0.0353166239	 0.11732
38.157	105.9307	134.3431	180.0017	231.519	390.9384	405.2587	436.6989	462.569	528.7861	608.7746	636.9762	661.0449	684.1719	712.9372	770.4224	801.2311	957.0847	1021.4666	1056.9521	1107.7529	1186.3738	1267.2651	1304.9938	1359.0906	1426.6865	1439.3154	1616.9002	1654.4184	1736.3614	1882.7494	3215.4855	3249.7976	3592.9303	3620.0982	3743.8764
[NH2+]=CNC1=COC(=O)[N-]1	[NH2]=CNc1coc(=O)n1	
InChI=1S/C4H5N3O2/c5-2-6-3-1-9-4(8)7-3/h1-2H,(H3,5,6,7,8)	InChI=1S/C4H6N3O2/c5-2-6-3-1-9-4(8)7-3/h1-2,6H,5H2,(H,7,8)
