16
gdb 22141	4.50856	0.60249	0.5894	0.762	90.9	-0.2458	-0.0195	0.2263	1858.6098	0.120261	-400.658762	-400.648591	-400.647647	-400.695217	35.716	
C	 0.0818188483	 1.5246445436	-0.0540941789	-0.484508
C	 0.0685303896	 0.0247826761	-0.1056081053	 0.373812
C	 0.1073305766	-0.7597016988	 1.1959913307	-0.443028
C	 1.3023470608	-0.49920922	 1.9885490306	 0.444146
C	 2.2952376082	-0.2734616641	 2.642565264	-0.33361
C	 3.4127122796	-0.0244464011	 3.3782345838	 0.302969
C	 4.4033936861	 0.1976806165	 4.0318974621	-0.551383
N	 0.0002801309	-0.695990669	-1.1573641044	-0.1593
O	-0.0802518148	 0.0666073562	-2.3292670766	-0.393798
H	 0.3794506115	 1.9446089965	-1.0143561187	 0.157425
H	-0.9187677127	 1.9042876338	 0.1882769951	 0.139551
H	 0.7623437608	 1.8708682669	 0.7284683406	 0.145413
H	-0.7802818385	-0.5072061547	 1.7950626799	 0.144333
H	 0.0367040816	-1.8250829752	 0.9529664595	 0.157228
H	 5.2753707252	 0.3914085296	 4.6056373143	 0.192033
H	-0.0745473131	-0.6129296863	-3.0115923866	 0.308717
42.5431	50.7573	67.9512	148.6144	189.4922	302.3562	309.1598	346.7627	353.4087	387.223	425.2878	521.6158	532.3999	539.3768	590.7635	597.025	656.9006	746.5499	817.2318	902.2489	986.3908	1044.7553	1057.0002	1172.2416	1209.679	1263.0409	1320.3002	1399.3236	1402.2807	1449.2073	1480.4095	1486.7721	1737.4417	2182.6503	2364.6719	3001.7799	3036.524	3076.115	3101.7043	3161.2474	3505.8405	3821.3907
CC(CC#CC#C)=NO	CC(=NO)CC#CC#C	
InChI=1S/C7H7NO/c1-3-4-5-6-7(2)8-9/h1,9H,6H2,2H3	InChI=1S/C7H7NO/c1-3-4-5-6-7(2)8-9/h1,9H,6H2,2H3
