19
gdb 74435	3.12203	1.56852	1.28628	1.4956	80.59	-0.2202	0.0114	0.2316	1055.3385	0.158453	-385.861296	-385.853381	-385.852436	-385.893138	31.888	
C	 0.1093325885	 1.4938824057	 0.0803733021	-0.498657
C	-0.0787528445	 0.0129144055	-0.000019199	 0.355407
C	-0.2039313435	-0.7485201006	-1.1004467876	-0.258592
C	-0.1221892106	-2.1987684585	-0.7026037039	 0.399911
C	-0.5226666436	-3.2778067689	-1.6684630894	-0.494269
O	 1.3088705591	-2.3827206093	-0.2500939581	-0.325762
C	 0.8903406819	-2.14969802	 1.0674555436	 0.095068
C	-0.0371614983	-0.8770588041	 1.1912085656	-0.202349
C	-0.5635695203	-2.2362007971	 0.7983889575	-0.207312
H	 1.0941968432	 1.7423434553	 0.4954554257	 0.133304
H	 0.0304702984	 1.9609291164	-0.9048132496	 0.125153
H	-0.6348656141	 1.9577836419	 0.7397242819	 0.123696
H	-0.1528694456	-0.406823078	-2.1272102008	 0.091073
H	 0.0787424482	-3.2130508293	-2.5808207039	 0.130947
H	-0.3755082243	-4.2681512238	-1.2298176621	 0.126879
H	-1.5767229784	-3.16513942	-1.9432678378	 0.122855
H	 1.5338865676	-2.4759307205	 1.8756793384	 0.107058
H	-0.1977662296	-0.5033437052	 2.196359877	 0.081514
H	-1.3841640741	-2.7799537094	 1.2500505305	 0.094076
152.7598	177.6435	210.6182	237.5386	290.6097	334.1562	442.5377	475.545	559.7139	617.9757	654.0955	705.9592	732.3247	748.0735	784.0282	815.6456	835.5374	930.5975	941.4954	950.2154	1010.1933	1018.281	1047.5611	1059.191	1068.1979	1086.0032	1115.8427	1144.6573	1206.4044	1215.6567	1264.0084	1334.9016	1350.355	1378.0674	1410.9876	1415.0798	1479.1193	1480.7231	1487.9006	1489.8035	1671.5953	3019.356	3038.367	3066.2081	3107.9565	3113.2701	3120.7673	3176.7066	3179.3902	3195.6193	3203.6093
CC1=CC2(C)OC3C1C23	CC1=C[C@@]2(C)O[C@H]3[C@@H]1[C@@H]23	
InChI=1S/C8H10O/c1-4-3-8(2)6-5(4)7(6)9-8/h3,5-7H,1-2H3	InChI=1S/C8H10O/c1-4-3-8(2)6-5(4)7(6)9-8/h3,5-7H,1-2H3/t5-,6+,7-,8+/m0/s1
