23
gdb 58775	2.5141	1.21995	1.15204	1.8094	85.68	-0.2231	0.0748	0.2979	1264.1022	0.203615	-388.263914	-388.253937	-388.252993	-388.29858	37.837	
C	 0.1350462658	 1.4896587224	 0.15924761	-0.384662
C	-0.1022039306	-0.0212533179	-0.0066711398	-0.084173
C	-1.602876834	-0.352800566	 0.0245840679	-0.394393
C	 0.5799783243	-0.5410664644	-1.2499109404	 0.251229
C	 2.051633026	-0.9296778517	-1.2996811325	-0.396016
C	 1.0039541725	-1.9271000121	-1.7025824355	 0.411008
C	 0.8318627404	-3.3165703992	-1.1817246566	-0.488405
O	 0.6152881305	-1.6783266482	-3.0629740799	-0.326817
C	 0.119229886	-0.3627357261	-2.697581318	-0.139683
H	 1.2041341637	 1.7220113472	 0.1776051671	 0.117362
H	-0.3150183373	 2.0494350111	-0.6689946164	 0.1141
H	-0.3110185867	 1.8586664561	 1.0886302936	 0.109094
H	 0.3668223987	-0.5272475016	 0.8489504166	 0.07118
H	-2.1418887349	 0.157076295	-0.7814619396	 0.115453
H	-1.7774681377	-1.4277628618	-0.0837555542	 0.116841
H	-2.0502957348	-0.0304861933	 0.9704634397	 0.111391
H	 2.7167607335	-0.5163339215	-2.0542185232	 0.106816
H	 2.5048518547	-1.0890618408	-0.3250134379	 0.106603
H	 1.073984606	-3.360871259	-0.1159286606	 0.121584
H	-0.1952977964	-3.666873507	-1.3241161469	 0.126343
H	 1.5008661832	-4.0077524178	-1.707408523	 0.132011
H	-0.9687932996	-0.3189434011	-2.8211338527	 0.104209
H	 0.5871041567	 0.4367988077	-3.2853025077	 0.098924
49.2871	113.6093	177.5979	204.7397	227.6653	244.4603	263.9888	274.2872	328.7694	375.4319	449.5242	470.2992	513.6762	592.5643	704.2762	763.507	851.5758	878.9882	915.1762	925.6535	942.9882	962.7268	976.5722	985.7003	1038.6184	1054.1281	1070.2211	1110.2837	1133.0516	1148.4248	1172.6765	1194.8095	1217.0033	1293.6433	1339.118	1343.3015	1360.129	1396.0943	1401.6891	1418.3156	1429.4894	1473.2323	1485.5386	1488.4351	1492.4994	1501.6219	1503.4495	1515.1638	1520.8137	3001.4943	3017.2311	3027.0615	3030.6239	3032.737	3065.4888	3092.0269	3093.1186	3099.2799	3102.521	3104.7149	3107.2075	3114.518	3193.9391
CC(C)C12CC1(C)OC2	CC(C)[C@@]12C[C@]1(C)OC2	
InChI=1S/C8H14O/c1-6(2)8-4-7(8,3)9-5-8/h6H,4-5H2,1-3H3	InChI=1S/C8H14O/c1-6(2)8-4-7(8,3)9-5-8/h6H,4-5H2,1-3H3/t7-,8-/m0/s1
