19
gdb 62448	3.5797	1.18681	1.14901	0.9367	82.07	-0.2425	0.0517	0.2941	1148.0395	0.158968	-385.849375	-385.840857	-385.839913	-385.882027	33.055	
C	-0.0294423963	 1.5631223141	 0.0114393776	-0.484953
C	 0.0467965572	 0.0404345569	 0.0231526706	 0.117975
C	-1.169151893	-0.6014317391	-0.4124704357	 0.247749
C	-2.1914098144	-1.1199382635	-0.778496493	-0.417632
C	 1.3232012932	-0.7247245748	-0.3323341761	-0.101127
C	 2.6413258219	 0.024122861	-0.2962512768	-0.112565
O	 2.6985696484	 0.6874071002	 0.9656060949	-0.254059
C	 1.8661569406	 0.0021704645	 1.8999762785	-0.112559
C	 0.8220726447	-0.7389006288	 1.0874241189	-0.101139
H	 0.9037255069	 2.0176864054	 0.3453271349	 0.148519
H	-0.2509469224	 1.9199759346	-0.9991587833	 0.125165
H	-0.8384000405	 1.9033669766	 0.665305742	 0.125165
H	-3.0933345139	-1.5769337643	-1.101642063	 0.188632
H	 1.2354825262	-1.5899828215	-0.9776181186	 0.103155
H	 3.4701527349	-0.6933186924	-0.4052675264	 0.09914
H	 2.7508207268	 0.7912634208	-1.0705727234	 0.113118
H	 2.4474459481	-0.7222721352	 2.4923030413	 0.099142
H	 1.4605814874	 0.7547406685	 2.5849660763	 0.113118
H	 0.3541709846	-1.614903563	 1.5192160211	 0.103157
132.2656	148.8921	190.2646	224.7654	226.7437	260.029	385.5004	398.2988	527.628	530.6361	584.49	642.3676	661.5722	676.2248	744.8986	844.2788	863.3937	918.8859	952.3351	993.1329	993.8565	1020.3251	1030.973	1102.9144	1108.2906	1114.6541	1126.9092	1204.2012	1225.9278	1243.6073	1283.1422	1311.1229	1355.9144	1370.1909	1406.3178	1432.234	1498.7616	1502.418	1517.1731	1524.4295	2232.2508	2976.3713	2982.0012	3044.2232	3061.1102	3064.081	3103.5005	3147.0932	3187.3261	3196.006	3504.7777
CC1(C#C)C2COCC12	C[C@@]1(C#C)[C@H]2COC[C@@H]12	
InChI=1S/C8H10O/c1-3-8(2)6-4-9-5-7(6)8/h1,6-7H,4-5H2,2H3	InChI=1S/C8H10O/c1-3-8(2)6-4-9-5-7(6)8/h1,6-7H,4-5H2,2H3/t6-,7+,8+
