16
gdb 35991	4.27627	0.65748	0.6124	2.8404	78.26	-0.2603	0.0033	0.2636	1777.2737	0.12354	-400.705136	-400.696008	-400.695064	-400.742458	30.788	
N	-0.2198239803	-0.8676090185	-0.9638127398	-0.299163
C	-0.065817396	 0.0202620614	-0.2421581327	 0.279549
C	 0.1201243089	 1.1452191722	 0.6847420562	-0.474177
C	 1.3481778879	 1.8952890735	 0.4367940466	 0.07134
C	 2.3542781093	 2.522167806	 0.2328334951	 0.125706
C	 3.575668321	 3.2688492396	-0.0212142777	-0.032175
C	 4.5045619487	 2.7524575625	-1.1558269271	-0.286301
C	 4.2677383245	 4.138792795	-1.7843347175	-0.059445
O	 3.3566119397	 4.5159462202	-0.7268610792	-0.278008
H	-0.7513210352	 1.8074466154	 0.6009297654	 0.187971
H	 0.1072743394	 0.7517477738	 1.7093075355	 0.183748
H	 4.0992281948	 3.450458433	 0.9270693043	 0.106144
H	 5.5260492895	 2.5271671838	-0.8489840413	 0.120336
H	 4.0950781439	 1.9131171942	-1.7170264742	 0.132107
H	 5.1441950401	 4.7968359077	-1.8168596233	 0.107405
H	 3.7783155138	 4.1468173103	-2.7643977204	 0.114963
9.3328	50.3925	69.577	124.7378	180.0154	303.2924	329.5643	374.5367	430.3032	521.2877	597.7724	711.8932	799.0549	839.263	910.835	933.9263	943.7625	951.6565	1015.2069	1027.7056	1086.4596	1163.0511	1178.5329	1215.0658	1234.2438	1258.2831	1260.7852	1337.1116	1352.811	1367.3551	1445.0027	1488.7582	1531.0761	2368.6689	2376.6364	3009.2414	3026.2411	3027.2439	3057.854	3069.1126	3094.8436	3155.3989
N#CCC#CC1CCO1	N#CCC#C[C@H]1CCO1	
InChI=1S/C7H7NO/c8-5-2-1-3-7-4-6-9-7/h7H,2,4,6H2	InChI=1S/C7H7NO/c8-5-2-1-3-7-4-6-9-7/h7H,2,4,6H2/t7-/m0/s1
