25
gdb 58102	2.19853	1.18911	1.11825	2.2426	84.59	-0.252	0.0636	0.3157	1330.1919	0.225414	-426.638214	-426.626627	-426.625683	-426.674072	44.128	
C	 0.1034726276	 1.5548983757	-0.1037491739	-0.40462
C	 0.0191603797	 0.0339703301	 0.0978373075	 0.011875
C	 0.812512262	-0.3777274121	 1.3484605744	-0.409122
C	-1.4596321135	-0.4786423405	 0.07815638	 0.383694
C	-2.2663471443	 0.0150203316	 1.2797089908	-0.438322
O	-2.118774018	 0.0329578277	-1.083380166	-0.481748
C	-1.4903344681	-2.0294450909	-0.025421454	 0.10588
C	-2.8974509637	-2.6237681437	-0.0048683012	-0.425659
O	-0.8440047729	-2.3242591413	-1.2726118353	-0.455083
H	 1.1401068118	 1.8520199085	-0.2938815224	 0.102187
H	-0.510677537	 1.8720706938	-0.9482724841	 0.126553
H	-0.2300604022	 2.1038627579	 0.7842643801	 0.106633
H	 0.4998337149	-0.4385643541	-0.7665418483	 0.086835
H	 0.3967138631	 0.0725628229	 2.2564524492	 0.112943
H	 0.8451494357	-1.4613088811	 1.4939450759	 0.111987
H	 1.8482665574	-0.0328517464	 1.2624224955	 0.111894
H	-2.1582326168	 1.0956882116	 1.3961938124	 0.124892
H	-3.3277175594	-0.1948731446	 1.1336309929	 0.12384
H	-1.9392716635	-0.463822101	 2.2070818184	 0.112349
H	-1.7418466878	-0.4585259402	-1.8256022066	 0.280017
H	-0.9068635665	-2.4598316746	 0.8003744054	 0.067744
H	-3.5310398943	-2.1262373768	-0.7433532274	 0.136247
H	-2.8576585805	-3.6953363879	-0.2363604014	 0.098468
H	-3.3605462724	-2.5263577668	 0.9802706188	 0.12464
H	-1.0516390715	-3.2317145077	-1.5129366108	 0.285875
45.5756	108.4861	184.8671	198.1904	221.6575	240.2066	258.0695	268.5718	278.0866	301.6787	337.4482	340.7624	375.7555	409.9397	465.9219	479.9089	488.6191	510.1424	631.5099	719.4671	838.9598	897.9055	925.0105	927.5708	935.6277	965.0894	1022.4482	1031.2946	1074.8815	1107.6373	1122.902	1155.7231	1181.851	1190.7829	1213.1609	1265.4227	1336.7917	1357.4723	1362.7865	1387.5863	1394.0477	1405.0442	1407.7258	1420.2905	1442.0127	1480.5411	1490.6754	1490.9473	1493.736	1500.7816	1508.5513	1514.5649	1517.3553	3002.7892	3029.9696	3031.4547	3035.1086	3041.2252	3055.9582	3088.3682	3097.3153	3098.9302	3107.3048	3126.866	3132.0804	3134.8807	3136.6835	3759.7924	3834.3359
CC(C)C(C)(O)C(C)O	CC(C)[C@@](C)(O)[C@@H](C)O	
InChI=1S/C7H16O2/c1-5(2)7(4,9)6(3)8/h5-6,8-9H,1-4H3	InChI=1S/C7H16O2/c1-5(2)7(4,9)6(3)8/h5-6,8-9H,1-4H3/t6-,7-/m1/s1
