21
gdb 109788	2.78774	1.12801	1.0789	2.7294	78.61	-0.2307	0.0749	0.3056	1270.4949	0.181832	-424.185699	-424.176336	-424.175392	-424.220298	34.992	
C	-0.525269325	 1.3379686836	 0.2389519148	-0.374916
C	 0.1701167968	 0.0082109622	-0.0788260574	-0.207543
C	 0.9058348033	-0.5426221758	 1.1278922927	-0.067736
C	 0.1637805602	-1.310513976	 2.1987392722	 0.107828
O	-1.2097539121	-1.5406426769	 2.1253776047	-0.436007
C	 1.1609471323	-2.037473208	 1.320864807	-0.147217
C	 0.7506396787	-3.0573025398	 0.3062733792	 0.054581
C	 0.0090838988	-4.2731588258	 0.6766299597	-0.178089
O	-0.6529807471	-3.196096463	-0.0046153018	-0.246372
H	 0.1929674674	 2.0883157342	 0.5881017985	 0.107732
H	-1.0280980939	 1.7434393759	-0.6447357113	 0.106708
H	-1.2729418374	 1.1954932028	 1.0244945891	 0.136237
H	-0.573363876	-0.7118520794	-0.4328628658	 0.113846
H	 0.8784848169	 0.1447971111	-0.9060562297	 0.09205
H	 1.7031655958	 0.1055492097	 1.4870164229	 0.080251
H	 0.4586450525	-1.1361004082	 3.2298295159	 0.097038
H	-1.3767559917	-2.0703873977	 1.3312529645	 0.302701
H	 2.1092556318	-2.3005865914	 1.7855829229	 0.093614
H	 1.3788712474	-3.1160632607	-0.5837247114	 0.105943
H	 0.1190048493	-5.1816904964	 0.08835607	 0.125214
H	-0.2923118281	-4.4109169802	 1.7126321632	 0.134135
63.7911	79.4575	112.1366	177.8193	241.3027	266.2743	289.6445	323.8326	379.4383	556.6228	582.5536	602.5747	695.1647	720.931	759.63	797.5784	816.7988	851.2928	902.0933	962.9007	989.7627	1013.7863	1047.5549	1087.6588	1104.5001	1114.2881	1125.0596	1146.0632	1161.668	1173.4431	1183.3768	1247.2434	1284.318	1299.6451	1333.2633	1352.3251	1389.669	1406.3737	1416.0456	1430.1537	1484.41	1490.9021	1499.8388	1510.7532	1519.5476	3025.1792	3032.8268	3079.708	3095.8449	3100.2532	3100.3577	3115.3534	3118.3408	3124.5951	3146.5601	3193.1948	3689.4455
CCC1C(O)C1C1CO1	CC[C@H]1[C@@H](O)[C@H]1[C@H]1CO1	
InChI=1S/C7H12O2/c1-2-4-6(7(4)8)5-3-9-5/h4-8H,2-3H2,1H3	InChI=1S/C7H12O2/c1-2-4-6(7(4)8)5-3-9-5/h4-8H,2-3H2,1H3/t4-,5-,6-,7-/m1/s1
