13
gdb 131173	3.28409	1.17517	0.90707	0.2936	61.8	-0.2327	-0.0246	0.2081	1183.578	0.089045	-489.90027	-489.892188	-489.891244	-489.933889	28.372	
O	-0.1631939256	 1.2818770249	-0.2539728757	-0.447105
C	-0.0141581621	-0.0603720219	-0.1136707875	 0.176006
C	 0.3342955483	-1.0037021048	-1.0576288033	 0.27438
N	 0.3398147315	-2.2104217712	-0.426637761	-0.247609
N	 0.0153658852	-2.1056242194	 0.8716391905	-0.216758
C	-0.205999457	-0.8067171641	 1.0690667398	-0.061876
O	 0.6890519964	-0.8555547386	-2.3717527818	-0.227751
C	-0.336918704	-0.8593052975	-3.2927115462	 0.15159
O	-0.1310520063	-0.7204778528	-4.4528549042	-0.237251
H	 0.2538337553	 1.560919098	-1.0768720306	 0.306251
H	 0.6162117088	-3.0992812228	-0.8091837419	 0.286431
H	-0.4950883508	-0.4411886051	 2.0423562433	 0.129715
H	-1.3190301197	-0.9998172147	-2.8080098314	 0.113977
43.5964	130.0784	140.6852	260.4713	275.7618	297.2419	413.2408	434.9548	450.5252	535.5765	679.1102	701.104	708.722	854.1384	867.3297	942.3511	1041.477	1078.7116	1121.8965	1161.5659	1247.0527	1282.7128	1298.7395	1396.9797	1438.3928	1449.6399	1546.243	1667.3555	1889.3841	2994.3812	3259.1357	3668.1713	3809.7277
OC1=C(NN=C1)OC=O	Oc1c([nH]nc1)OC=O	
InChI=1S/C4H4N2O3/c7-2-9-4-3(8)1-5-6-4/h1-2,8H,(H,5,6)	InChI=1S/C4H4N2O3/c7-2-9-4-3(8)1-5-6-4/h1-2,8H,(H,5,6)
