16
gdb 5328	4.69299	1.61627	1.23482	1.4041	67.48	-0.1927	0.0126	0.2053	958.8418	0.131321	-379.939265	-379.931572	-379.930627	-379.971373	27.753	
C	 0.0277273195	 1.3891587345	 0.0319802119	-0.33332
N	 0.2609344524	-0.0396007465	 0.0240368162	-0.152886
C	-0.184164751	-0.7615397767	 1.2068447061	-0.339821
C	 0.1104574184	-0.6632207975	-1.1990725041	 0.343145
C	-0.0784875879	-0.1274616352	-2.4412927626	-0.155133
O	-0.0835167777	-1.1715896961	-3.3453370199	-0.144763
C	 0.0790413652	-2.2661676483	-2.5894887552	 0.082069
N	 0.1990759939	-2.0470094403	-1.3203169355	-0.330696
H	 0.643862944	 1.8701310945	-0.7348271121	 0.12993
H	-1.0268706484	 1.6567598685	-0.1556245697	 0.107742
H	 0.3172167387	 1.7970092098	 1.0039174162	 0.125478
H	-1.2764442991	-0.7096557037	 1.3506629248	 0.104964
H	 0.1023069242	-1.8088303815	 1.1169081862	 0.161754
H	 0.2989474534	-0.3335164275	 2.0904176268	 0.117709
H	-0.2068928305	 0.8584374932	-2.8460787774	 0.135758
H	 0.0949548547	-3.2169835775	-3.0992156515	 0.148071
85.6276	147.1138	197.441	206.857	246.483	367.1407	370.1454	509.6895	612.8612	629.9536	631.4602	740.2882	841.96	925.8001	943.8938	1020.447	1079.2134	1086.3044	1129.5041	1152.2241	1180.3229	1221.298	1239.3833	1288.2004	1357.4712	1385.3708	1442.5137	1467.1548	1485.0691	1494.8459	1503.6856	1515.6108	1566.6015	1652.8133	2954.5341	2967.1048	3063.7713	3075.8823	3113.4927	3156.7545	3271.192	3315.9766
CN(C)C1=COC=N1	CN(C)c1cocn1	
InChI=1S/C5H8N2O/c1-7(2)5-3-8-4-6-5/h3-4H,1-2H3	InChI=1S/C5H8N2O/c1-7(2)5-3-8-4-6-5/h3-4H,1-2H3
