19
gdb 10530	2.76239	1.62216	1.18628	3.2457	68.55	-0.2429	0.0669	0.3098	1071.8443	0.16433	-402.150864	-402.141624	-402.14068	-402.185035	32.754	
C	-0.1824021869	 1.3648456218	 0.1554405189	-0.229213
O	-0.2724008782	-0.0321504788	 0.328132858	-0.240595
C	 0.8933784918	-0.5963021635	 0.9156348642	-0.153522
C	 0.7305351513	-2.0999182845	 0.9067404098	 0.265788
C	 1.0241626571	-2.7813592945	-0.4180610029	-0.091485
O	 0.5357971631	-2.0613512326	-1.5361599465	-0.428338
C	 0.9284540326	-2.8485612252	 2.1743845293	-0.287353
N	-0.427854693	-2.6435918355	 1.6467046511	-0.332903
H	 0.6418428764	 1.6382149425	-0.5201503168	 0.115899
H	-1.1261088376	 1.7013097494	-0.2797929532	 0.132417
H	-0.0290431797	 1.8811794264	 1.1157864372	 0.106988
H	 1.786870968	-0.3019687458	 0.3438275315	 0.106292
H	 1.0102534527	-0.2171694784	 1.9442827905	 0.086087
H	 2.1102484412	-2.8664733512	-0.5564142665	 0.097023
H	 0.6094724457	-3.7996418592	-0.3754873448	 0.095722
H	-0.2613087448	-1.5967146723	-1.2558237788	 0.291238
H	 1.2804888245	-3.8763593767	 2.1398050582	 0.12036
H	 1.2468369068	-2.2940294132	 3.0536155377	 0.110941
H	-0.8967977512	-1.8913654689	 2.146284073	 0.234654
72.578	92.9981	109.3869	172.8041	223.8504	258.5759	305.6233	326.1674	356.1842	392.2615	477.7472	524.4098	763.9374	884.8902	909.0283	933.6104	949.4595	987.2692	1006.1062	1061.8891	1082.8852	1104.1472	1137.3948	1157.3807	1182.5119	1222.7128	1243.5411	1252.5326	1263.4501	1322.3421	1356.6072	1396.4395	1427.8302	1459.5106	1479.8838	1485.9941	1498.0656	1508.0338	1511.7664	1518.1145	2962.6262	2979.8088	2992.2661	3007.8645	3028.0663	3037.4898	3104.209	3119.8137	3187.2175	3497.7815	3795.6106
COCC1(CO)CN1	COC[C@@]1(CO)CN1	
InChI=1S/C5H11NO2/c1-8-4-5(3-7)2-6-5/h6-7H,2-4H2,1H3	InChI=1S/C5H11NO2/c1-8-4-5(3-7)2-6-5/h6-7H,2-4H2,1H3/t5-/m0/s1
