20
gdb 110116	1.79881	1.38639	0.9903	1.1463	82.48	-0.2267	0.0291	0.2558	1305.9594	0.168243	-403.075334	-403.065097	-403.064152	-403.110804	37.285	
C	-1.3831379451	 1.5697308479	 1.8697115078	-0.377989
C	-1.3920927491	 0.0895008456	 1.4985308244	-0.117436
N	-0.1031067138	-0.516072221	 1.8456116586	-0.099339
C	 0.2313741833	-1.8514640329	 1.3831785897	-0.043431
C	-0.7008309348	-2.6997560179	 0.5450941471	-0.093387
O	-1.8107065408	-3.1780858114	 1.2950874944	-0.414164
C	 0.9456192194	-0.6500342312	 0.8160046873	-0.219889
C	 0.7295412297	-0.2405352572	-0.5453566014	 0.351889
C	 0.5777362325	 0.1397866588	-1.677187761	-0.469739
H	-0.6332639509	 2.1123304465	 1.2853361724	 0.122552
H	-2.359665277	 2.021004115	 1.6681767612	 0.110219
H	-1.1485262086	 1.7009691185	 2.9297822337	 0.122438
H	-2.1550167626	-0.4513854036	 2.0667635808	 0.117301
H	-1.6437251951	-0.0188951468	 0.4348072102	 0.101556
H	 0.7879614991	-2.4292849915	 2.1250571026	 0.087393
H	-1.1209520334	-2.1279081666	-0.2836578037	 0.125968
H	-0.1247887698	-3.5299381803	 0.1069964182	 0.095429
H	-1.4701141822	-3.6962033625	 2.0318584828	 0.283591
H	 1.9469376866	-0.4369185555	 1.1852355776	 0.115237
H	 0.4447232926	 0.467317706	-2.6786961828	 0.201801
61.4327	83.0504	108.9001	154.2519	196.0074	222.7286	250.0371	303.2681	351.1269	361.8465	398.6825	570.4389	588.7323	598.6134	613.8677	660.8142	723.7002	808.4349	828.6094	839.9571	960.0718	1013.7806	1029.3422	1057.9897	1080.4961	1099.3283	1137.7502	1144.7518	1176.5088	1227.3652	1310.6685	1329.4283	1354.2219	1369.8039	1390.1132	1404.1932	1413.2836	1435.0823	1488.8407	1491.6551	1504.3488	1509.3793	2227.3538	2984.7563	3010.9405	3039.6793	3069.1616	3079.7312	3111.2003	3119.3569	3120.0381	3123.6028	3501.6546	3809.7348
CCN1C(CO)C1C#C	CCN1[C@@H](CO)[C@H]1C#C	
InChI=1S/C7H11NO/c1-3-6-7(5-9)8(6)4-2/h1,6-7,9H,4-5H2,2H3	InChI=1S/C7H11NO/c1-3-6-7(5-9)8(6)4-2/h1,6-7,9H,4-5H2,2H3/t6-,7+,8?/m1/s1
