27
gdb 120029	2.39699	0.95608	0.81729	0.1367	95.87	-0.2715	0.0747	0.3462	1622.9412	0.25124	-353.561037	-353.550033	-353.549089	-353.597132	41.205	
C	 0.4178191865	 1.5324670286	-0.3569467314	-0.380259
C	 0.2330813534	 0.0309579459	-0.1216919769	-0.168116
C	-1.2325710326	-0.4173943702	-0.207817577	-0.190124
C	-1.4224572668	-1.915501035	 0.012043456	 0.023478
C	-1.3151936852	-2.544795885	 1.4468402641	 0.019784
C	-1.517897675	-1.6188169918	 2.6447335759	-0.40715
C	-2.548970962	-3.4337778753	 1.1062688449	-0.24047
C	-2.8364127497	-2.5700640065	-0.1576436981	-0.002203
C	-4.0541174242	-1.6545219978	-0.0482006826	-0.399913
H	 1.4719579652	 1.8215491121	-0.2971845529	 0.10896
H	 0.0478245429	 1.8258620007	-1.3459309153	 0.112108
H	-0.1311463139	 2.1209745945	 0.386752125	 0.112631
H	 0.8230318592	-0.5307003031	-0.858312366	 0.092358
H	 0.6438109395	-0.2387443719	 0.8595816712	 0.099018
H	-1.8296729772	 0.1584824705	 0.510290959	 0.09019
H	-1.6230955307	-0.1525023322	-1.2008350894	 0.087991
H	-0.7210859881	-2.4425417781	-0.6465145867	 0.061748
H	-0.3906538746	-3.1104943133	 1.600471866	 0.061379
H	-2.4425597788	-1.0377597749	 2.5684472822	 0.116805
H	-1.5804368688	-2.2066838868	 3.5675784764	 0.111003
H	-0.6902050966	-0.9107552389	 2.7603692316	 0.113906
H	-2.2845164904	-4.4680896272	 0.8706615618	 0.091991
H	-3.3426511372	-3.4489403027	 1.8606841221	 0.087531
H	-2.9269325277	-3.152844253	-1.0803636259	 0.060811
H	-4.0448167895	-1.0581517089	 0.8697917326	 0.115231
H	-4.1161674764	-0.960473	-0.8934769337	 0.111756
H	-4.9747481414	-2.2490873197	-0.040420513	 0.109553
70.3016	83.7994	103.5048	133.4562	220.2923	222.8219	237.1875	253.4779	261.915	323.4103	331.3498	377.0778	453.8609	526.9801	715.7775	739.6915	769.1452	818.6388	826.5517	877.0622	897.8577	912.4911	920.957	969.5201	1029.9518	1037.4352	1041.8396	1054.7718	1070.5787	1122.8754	1127.0502	1177.1496	1188.0747	1195.6103	1234.9387	1258.3336	1272.231	1276.8238	1294.7021	1310.9342	1330.4927	1364.2713	1372.9638	1377.0533	1398.2552	1406.8677	1412.5811	1413.8215	1479.0537	1483.8069	1489.4262	1492.8299	1496.2025	1499.2237	1500.821	1501.8142	1511.3941	3004.264	3012.8055	3017.0005	3026.519	3027.5385	3028.699	3036.7654	3038.2057	3040.0598	3048.999	3058.6225	3088.6668	3090.1393	3094.0048	3095.0921	3097.0848	3098.9781	3106.7515
CCCC1C(C)CC1C	CCC[C@H]1[C@@H](C)C[C@H]1C	
InChI=1S/C9H18/c1-4-5-9-7(2)6-8(9)3/h7-9H,4-6H2,1-3H3	InChI=1S/C9H18/c1-4-5-9-7(2)6-8(9)3/h7-9H,4-6H2,1-3H3/t7-,8+,9-
