16
gdb 54926	5.10498	0.87411	0.8179	6.3962	70.05	-0.2562	-0.0015	0.2547	1356.7338	0.12519	-434.088765	-434.079903	-434.078958	-434.123235	31.538	
N	-0.1705690423	 1.3638797571	 0.2362562047	-0.526389
C	 0.0358273446	 0.0347300846	 0.0409227461	 0.403479
O	 1.1439179806	-0.464791902	-0.0373022978	-0.364798
C	-1.2354178128	-0.8049784763	-0.1116660799	-0.083201
C	-1.7250215515	-0.904887343	-1.5874069479	-0.262355
C	-1.0394357559	-2.3021466952	-1.5933018333	-0.107605
N	-0.9678391288	-2.2546045611	-0.1102550928	-0.304267
C	-1.8006366563	-3.4227284644	-2.1453638945	 0.294084
N	-2.407083475	-4.2940306794	-2.6020556156	-0.321411
H	 0.6285435908	 1.9658736967	 0.351493542	 0.26913
H	-1.0884004466	 1.7485018375	 0.3776015579	 0.266012
H	-1.9886460824	-0.4903842834	 0.6203585921	 0.093612
H	-2.8097346195	-0.9647061746	-1.6719697206	 0.138567
H	-1.335375693	-0.173677726	-2.2952625371	 0.1305
H	-0.0588505515	-2.2683463137	-2.0816683974	 0.13371
H	-0.0354503404	-2.4630894869	 0.238850884	 0.240932
54.3508	63.0616	133.2536	207.8543	211.095	252.7294	315.6336	397.5732	537.362	556.722	567.498	605.9966	688.9247	731.8693	780.6347	811.7857	922.7877	977.7014	999.0863	1040.7324	1077.7206	1087.941	1123.5541	1144.09	1232.9182	1253.9377	1284.3304	1292.3744	1352.6433	1379.5431	1440.9831	1486.0728	1620.1844	1788.6755	2358.4807	3031.32	3044.6423	3096.6265	3159.1652	3505.7578	3600.552	3734.0627
NC(=O)C1CC(N1)C#N	NC(=O)[C@H]1C[C@@H](N1)C#N	
InChI=1S/C5H7N3O/c6-2-3-1-4(8-3)5(7)9/h3-4,8H,1H2,(H2,7,9)	InChI=1S/C5H7N3O/c6-2-3-1-4(8-3)5(7)9/h3-4,8H,1H2,(H2,7,9)/t3-,4-/m1/s1
