18
gdb 80808	2.19849	1.48199	1.43384	1.8534	80.61	-0.2047	0.0281	0.2328	1061.1619	0.14539	-401.826516	-401.817647	-401.816703	-401.859639	34.102	
C	 0.0345528488	 1.504089139	-0.0607702808	-0.341119
N	 0.0221217877	 0.0407587813	 0.0001463264	-0.139978
C	-1.1243885628	-0.7168093047	 0.6421164606	-0.080664
C	-0.1534823387	-1.9304512513	 0.6687630978	-0.252807
C	 0.6399969745	-0.6932054101	 1.1910895081	 0.23184
C	 2.0174036503	-0.5827063966	 1.5634496975	 0.043724
C	 3.1641310462	-0.464585826	 1.9089247188	-0.371962
C	-0.6397944234	-0.4025883016	 2.0798585305	 0.107847
O	-0.9030387339	 0.8653543232	 2.6006223166	-0.424717
H	 1.0622579026	 1.8137844415	-0.2794365983	 0.12149
H	-0.5827603327	 1.8016642687	-0.9157461789	 0.114835
H	-0.3139048504	 2.0310497949	 0.8300285278	 0.129323
H	-2.1387306719	-0.6753407498	 0.2461591407	 0.089838
H	-0.3538922344	-2.7336648646	 1.3789608158	 0.100039
H	 0.1643155648	-2.2766206064	-0.3117574768	 0.121341
H	 4.1810542436	-0.3703382558	 2.2001921188	 0.183647
H	-0.8467361078	-1.1830363762	 2.8271207937	 0.075037
H	-0.3910606123	 0.9701861845	 3.4094837716	 0.292285
116.0676	119.7349	133.8173	257.9494	263.7271	294.5722	345.7005	351.9853	494.5144	513.8779	525.0265	584.5039	617.2915	659.3906	692.6211	760.8622	783.2642	795.8026	883.2755	938.6955	976.0195	1020.9182	1091.1433	1125.1114	1136.5557	1162.5705	1174.9199	1185.644	1197.6048	1215.5092	1248.487	1291.2574	1312.8861	1430.7827	1449.4507	1483.8386	1497.9562	1517.2165	2228.9764	2983.3615	3030.4903	3091.148	3091.2848	3119.6226	3126.5375	3183.6692	3500.3307	3812.9189
CN1C2CC1(C#C)C2O	CN1[C@H]2C[C@]1(C#C)[C@H]2O	
InChI=1S/C7H9NO/c1-3-7-4-5(6(7)9)8(7)2/h1,5-6,9H,4H2,2H3	InChI=1S/C7H9NO/c1-3-7-4-5(6(7)9)8(7)2/h1,5-6,9H,4H2,2H3/t5-,6-,7+/m0/s1
