17
gdb 50264	4.00464	1.21853	1.13139	4.0093	68.37	-0.2503	-0.035	0.2153	1096.5843	0.136011	-458.938616	-458.93116	-458.930216	-458.971179	28.531	
O	-0.6431855032	 0.6017863687	 0.5661058196	-0.232937
C	 0.1939878345	 0.850433994	-0.2552493634	 0.169283
C	 1.3794788774	 1.789783187	-0.0127991536	 0.124962
O	 2.5464818469	 1.0138649061	-0.1928148879	-0.299306
C	 3.6585212407	 1.7843581482	-0.6652521018	 0.1217
C	 3.5465686472	 3.2553079628	-0.1771589351	-0.275985
C	 2.5191772902	 3.394159202	-1.3345978654	 0.121712
C	 3.3257610202	 2.30393148	-2.0893984033	-0.239156
O	 1.2550020936	 2.8386704919	-0.951489103	-0.299378
H	 0.1907414002	 0.4203681793	-1.2795762201	 0.091058
H	 1.3319780778	 2.1827488719	 1.0129957522	 0.092515
H	 4.5535526701	 1.1924228201	-0.4734614043	 0.089577
H	 3.2290421265	 3.4565563056	 0.8473176995	 0.118376
H	 4.4602101995	 3.8115940508	-0.3944048463	 0.114024
H	 2.3104884073	 4.3617188578	-1.7912527713	 0.089581
H	 4.2011504206	 2.7103500867	-2.6020309637	 0.10554
H	 2.7651673905	 1.6348825571	-2.7442266221	 0.108433
59.7685	90.8441	268.9508	328.0239	372.997	407.1297	476.7583	477.2815	507.4643	658.0581	799.4724	836.8318	868.6332	876.0724	908.0298	930.1537	974.1763	987.9516	1020.6844	1052.3576	1069.5674	1078.8971	1137.62	1154.82	1172.9409	1180.9977	1234.4662	1264.4127	1281.5844	1335.3791	1349.9203	1367.3473	1373.0159	1411.7087	1461.3521	1496.8511	1856.8764	2913.8359	3000.8271	3068.8409	3081.5178	3113.5022	3116.3467	3137.9047	3139.7128
O=CC1OC2CC(C2)O1	O=C[C@H]1O[C@@H]2C[C@@H](C2)O1	
InChI=1S/C6H8O3/c7-3-6-8-4-1-5(2-4)9-6/h3-6H,1-2H2	InChI=1S/C6H8O3/c7-3-6-8-4-1-5(2-4)9-6/h3-6H,1-2H2/t4-,5+,6-
