17
gdb 77813	2.44124	1.53777	1.35787	2.4943	69.32	-0.237	-0.0209	0.2162	1029.3207	0.134429	-458.963739	-458.955395	-458.954451	-458.996407	31.775	
C	-0.0861640458	 1.479699522	-0.0709995786	-0.46473
C	 0.0555138461	-0.0130048045	 0.0047410592	 0.408063
O	-1.1032033029	-0.6851577952	-0.4368955709	-0.293839
C	-1.259228722	-1.9220999875	 0.2406364831	-0.186888
C	-0.2314649374	-1.9519597712	 1.3763041285	 0.398094
O	-0.2058245995	-2.7496142124	 2.2795789717	-0.326506
C	 0.6768933194	-0.7876637078	 1.1655456788	-0.327426
C	 1.3464299042	-0.7188352219	-0.2254029487	 0.024937
O	 1.3641023031	-1.8174922712	-1.0768199992	-0.409919
H	 0.8396280325	 1.9757242513	 0.232431477	 0.121801
H	-0.3182179977	 1.7808863277	-1.0974317848	 0.140777
H	-0.8968835064	 1.8224276729	 0.5785451298	 0.132368
H	-2.2758658995	-1.9969100244	 0.6417130022	 0.133163
H	-1.078989138	-2.7674920175	-0.4346356986	 0.137069
H	 1.1749051053	-0.3500754954	 2.0214468342	 0.111886
H	 2.2408323746	-0.0955702958	-0.2448422753	 0.103379
H	 2.035661404	-2.4341474191	-0.7641364684	 0.297773
98.1476	184.6073	196.3424	216.1504	241.6123	310.0732	357.5279	422.3577	459.3663	546.4564	621.4805	639.4042	644.141	682.5872	785.6403	845.2465	916.5409	932.3655	991.2759	1014.8817	1051.7775	1097.9532	1112.4448	1139.5273	1159.5218	1207.4924	1213.3844	1264.0613	1298.324	1341.5448	1348.2693	1418.2306	1468.0198	1476.7509	1479.4905	1504.1294	1837.5071	3032.196	3042.3104	3078.2884	3099.1893	3112.59	3123.1592	3197.8472	3797.3349
CC12OCC(=O)C1C2O	C[C@]12OCC(=O)[C@H]1[C@H]2O	
InChI=1S/C6H8O3/c1-6-4(5(6)8)3(7)2-9-6/h4-5,8H,2H2,1H3	InChI=1S/C6H8O3/c1-6-4(5(6)8)3(7)2-9-6/h4-5,8H,2H2,1H3/t4-,5+,6-/m0/s1
