18
gdb 37286	4.30623	1.58059	1.51706	3.2123	73.49	-0.227	0.0806	0.3075	913.8647	0.151143	-401.880125	-401.874193	-401.873249	-401.910052	25.857	
C	-0.0365894732	 1.4999967616	-0.0185468764	-0.258998
C	 1.5075565425	 1.7359479349	-0.0104625299	-0.165262
N	 2.0761554367	 0.3660387323	 0.0397142575	-0.097068
C	 1.1976551665	-0.3918401418	-0.9445051854	-0.062059
C	 1.4854044155	-1.8637907187	-0.6245260577	 0.033355
O	 2.6824128672	-2.0952145875	 0.1256356513	-0.230436
C	 1.4705416822	-1.8165101781	 0.8347322576	 0.033356
C	 1.1773109699	-0.3271247585	 1.0528445886	-0.062059
C	 0.0183541726	-0.0238033926	 0.0313850813	-0.020986
H	-0.5450386216	 1.9338930912	 0.847572576	 0.101619
H	-0.5270222877	 1.8765879175	-0.9211010707	 0.101619
H	 1.8697708489	 2.2424949436	-0.9090343131	 0.107562
H	 1.8517456438	 2.2998328002	 0.860621751	 0.107562
H	 1.2179502283	-0.056140439	-1.9828557683	 0.071352
H	 1.1223883616	-2.6759977307	-1.2444207048	 0.102577
H	 1.0944505636	-2.5871278872	 1.4983844382	 0.102577
H	 1.1766942216	 0.0750935503	 2.0674864882	 0.071351
H	-0.9226670684	-0.5811750175	 0.0398592666	 0.06394
269.345	288.5064	338.2153	406.7128	509.4908	647.358	703.9946	715.7914	784.1473	816.9991	840.4999	860.6969	878.9147	920.6152	931.1033	936.0375	950.4888	963.8164	984.3487	1002.406	1043.3491	1049.7227	1058.5318	1084.5187	1128.9923	1172.3823	1189.2591	1218.1072	1250.739	1250.9932	1253.7061	1269.8467	1301.6406	1306.5643	1316.6295	1329.1229	1415.6599	1493.4764	1509.857	3049.7221	3061.7549	3077.2067	3088.6715	3100.5889	3105.019	3111.9058	3172.3493	3184.2462
C1CN2C3C4OC4C2C13	C1CN2[C@H]3[C@H]4O[C@H]4[C@@H]2[C@@H]13	
InChI=1S/C7H9NO/c1-2-8-4-3(1)5(8)7-6(4)9-7/h3-7H,1-2H2	InChI=1S/C7H9NO/c1-2-8-4-3(1)5(8)7-6(4)9-7/h3-7H,1-2H2/t3-,4+,5-,6+,7-
