21
gdb 117967	3.62804	0.70939	0.67493	2.5635	76.73	-0.2595	-0.0274	0.2321	1747.6725	0.178933	-461.368144	-461.357066	-461.356122	-461.406008	38.036	
C	 0.0365491	 1.3279321036	 0.0118335516	-0.230873
O	-0.0115034335	-0.0792976077	-0.0281402644	-0.237385
C	 0.6650864326	-0.6195679826	-1.1399339223	-0.05078
C	 0.5151754868	-2.1438353638	-1.0946718569	-0.110129
C	-0.9642628279	-2.5682773655	-1.1919602825	-0.393504
C	 1.2986920982	-2.7746503936	-2.2311676764	 0.358223
O	 1.255157133	-2.3540137236	-3.3702624055	-0.341576
C	 2.1579193315	-3.9909609355	-1.9265349948	-0.138152
O	 2.7450006089	-4.5088128422	-3.0798530977	-0.419417
H	 1.0713091531	 1.6986860784	 0.0812310549	 0.106934
H	-0.4293486061	 1.7772910936	-0.8789063912	 0.108945
H	-0.5137274214	 1.6482395785	 0.8996257399	 0.129422
H	 0.2504580966	-0.235655122	-2.0846266532	 0.110204
H	 1.7319362252	-0.3388511137	-1.1151743577	 0.088952
H	 0.9230089485	-2.5010484554	-0.141151195	 0.092134
H	-1.0782485642	-3.6512561331	-1.0862641104	 0.118858
H	-1.5339639046	-2.077892327	-0.4007906507	 0.14441
H	-1.379613318	-2.2726930958	-2.1600923276	 0.13502
H	 2.9162225379	-3.6817561471	-1.184841129	 0.116479
H	 1.5304580259	-4.7435426399	-1.4200209417	 0.118184
H	 2.4750712076	-3.9029626657	-3.7894847993	 0.29405
19.4839	80.6249	92.8137	100.6903	157.2397	209.3169	224.3079	236.5941	259.3671	313.0289	349.6541	364.4685	440.9811	524.3668	565.4195	704.9096	843.2909	889.6271	937.2332	975.04	1001.1771	1054.7639	1075.3571	1120.765	1148.1694	1162.4818	1169.7021	1195.9129	1230.8388	1243.824	1269.8184	1303.9338	1349.3313	1351.6364	1399.9513	1420.9566	1451.4897	1481.3599	1485.7298	1486.669	1494.1435	1502.5875	1504.9056	1527.6943	1788.0806	2956.432	2957.521	2975.4054	2981.349	3005.6453	3019.6551	3041.833	3045.7347	3115.0498	3117.2147	3141.8804	3674.9723
COCC(C)C(=O)CO	COC[C@@H](C)C(=O)CO	
InChI=1S/C6H12O3/c1-5(4-9-2)6(8)3-7/h5,7H,3-4H2,1-2H3	InChI=1S/C6H12O3/c1-5(4-9-2)6(8)3-7/h5,7H,3-4H2,1-2H3/t5-/m1/s1
