23
gdb 95760	2.36821	1.426	1.14938	1.5103	81.96	-0.2522	0.0844	0.3366	1220.8617	0.204517	-425.452082	-425.442479	-425.441535	-425.485581	37.587	
C	 0.0380722686	 1.5333610471	 0.0843172311	-0.399006
C	 0.0236451892	 0.0189836943	-0.0573764567	 0.13486
C	 0.8167929515	-0.4919402294	-1.263127209	-0.20197
C	 0.9123156754	-2.0144339282	-1.1870704691	-0.09971
O	 1.4328242211	-2.4206490139	 0.0692272273	-0.277132
C	 0.7310816734	-1.9220425156	 1.200686946	 0.43503
C	-0.6318931783	-2.6160036646	 1.3643876798	-0.428574
C	 1.6371146033	-2.1935054339	 2.394645152	-0.408787
O	 0.5899358266	-0.5088848676	 1.1420563938	-0.295818
H	 1.0657943155	 1.8958923627	 0.183368012	 0.123903
H	-0.416331413	 2.0049618669	-0.7926049325	 0.11116
H	-0.5199759145	 1.8386942519	 0.9736501966	 0.122201
H	-1.0219146261	-0.3184508282	-0.1540211328	 0.063152
H	 0.3360446053	-0.1841436568	-2.1986549642	 0.093376
H	 1.8242654644	-0.0609672492	-1.2363925778	 0.106135
H	-0.0750408325	-2.4667019957	-1.3725882205	 0.087807
H	 1.6002108918	-2.4138192332	-1.9377186117	 0.108199
H	-0.4857999135	-3.6953622526	 1.4554940753	 0.12303
H	-1.1251769075	-2.2476549525	 2.2675548113	 0.122793
H	-1.30121982	-2.4375837114	 0.5203489502	 0.115287
H	 2.5923320942	-1.6876901829	 2.2411527332	 0.125745
H	 1.1767399875	-1.8156784865	 3.3104351424	 0.118974
H	 1.8143498276	-3.2667011507	 2.4961747031	 0.119346
133.9091	149.2091	181.8968	221.6867	224.7859	266.6305	285.0301	336.1468	340.9093	409.1304	448.2604	482.2939	507.871	520.0033	630.2483	755.3788	824.1709	849.1445	894.8551	922.3841	938.0997	971.5296	986.3297	1004.8452	1010.3688	1069.9464	1132.8064	1149.5869	1170.898	1204.0181	1218.4563	1242.7378	1266.8912	1295.6047	1339.1538	1378.745	1394.7154	1399.8169	1405.1417	1411.9609	1413.1138	1467.7003	1473.903	1479.2921	1482.3909	1491.5857	1498.9071	1501.7566	1516.1979	2961.916	2979.2002	3034.0532	3041.2385	3053.5914	3058.93	3081.0532	3086.9776	3115.0398	3119.7486	3127.1854	3131.1448	3139.1777	3142.8585
CC1CCOC(C)(C)O1	C[C@H]1CCOC(C)(C)O1	
InChI=1S/C7H14O2/c1-6-4-5-8-7(2,3)9-6/h6H,4-5H2,1-3H3	InChI=1S/C7H14O2/c1-6-4-5-8-7(2,3)9-6/h6H,4-5H2,1-3H3/t6-/m0/s1
