16
gdb 55592	4.94315	0.79248	0.70163	7.5939	71.58	-0.2459	-0.0221	0.2238	1563.7392	0.122528	-471.26158	-471.251595	-471.250651	-471.298183	33.578	
C	 0.2790821446	 1.5496058695	-0.2579960241	-0.502227
C	-0.0501057366	 0.1235648016	 0.1592337668	 0.419746
O	-0.3985992904	-0.1841941592	 1.2683241922	-0.294374
N	 0.0832247917	-0.7904656507	-0.8961690006	-0.432215
C	 0.0611862325	-2.2007590799	-0.7851890513	 0.526175
O	 0.1878319924	-2.8097314743	 0.2351500886	-0.29591
N	-0.1274161443	-2.7687486033	-2.0570473981	-0.379531
C	 0.0036922787	-4.1099314063	-2.4144421219	 0.08798
N	 0.5521556168	-4.9898385657	-1.6898515998	-0.393516
H	 1.3393383399	 1.6369362478	-0.5191640921	 0.147683
H	-0.307248215	 1.8568432937	-1.1307111934	 0.134067
H	 0.0596239831	 2.2141919937	 0.5764748847	 0.160289
H	 0.3477019461	-0.407365384	-1.7908394718	 0.246674
H	-0.5471758088	-2.1780038542	-2.7565871993	 0.248859
H	-0.4158854161	-4.27585053	-3.4153147762	 0.094659
H	 0.5351484055	-5.8893929988	-2.1671533836	 0.231643
47.303	49.5773	85.7448	99.8331	138.4005	183.6016	238.6354	314.8437	395.9859	492.221	505.2642	516.9626	596.817	623.1136	737.8247	816.1634	838.888	913.4029	952.7381	1023.6289	1052.0682	1060.1184	1108.4102	1153.454	1232.0273	1258.0159	1385.3404	1430.1322	1464.8828	1482.8632	1498.12	1529.0854	1742.9589	1825.1818	1891.1928	3028.6458	3040.0391	3102.5023	3167.0887	3504.1565	3618.0744	3638.3795
CC(=O)NC(=O)NC=N	CC(=O)NC(=O)NC=N	
InChI=1S/C4H7N3O2/c1-3(8)7-4(9)6-2-5/h2H,1H3,(H3,5,6,7,8,9)	InChI=1S/C4H7N3O2/c1-3(8)7-4(9)6-2-5/h2H,1H3,(H3,5,6,7,8,9)
