13
gdb 15505	3.07834	2.16477	1.5384	1.4332	55.46	-0.261	-0.0442	0.2168	804.7198	0.09541	-435.746332	-435.7393	-435.738356	-435.778237	24.461	
N	-0.0603833299	 1.3194992142	 0.0535129621	-0.531347
C	-0.0548734095	 0.0691303284	-0.0916611978	 0.38662
O	 1.024450446	-0.7474950241	-0.2219582715	-0.232586
C	 0.5650836821	-2.1047768187	-0.2572411665	 0.01617
O	-0.800253314	-2.0617089658	-0.5873695277	-0.229048
C	-1.2875843171	-0.8239998092	-0.1240814545	-0.08133
C	-1.8906413593	-0.8995340485	 1.2841818383	 0.141787
O	-1.8056100511	-1.8705555277	 1.9843420685	-0.22935
H	 0.8876726095	 1.697179191	 0.0754366922	 0.236321
H	 1.109498906	-2.6436822442	-1.0363143494	 0.136319
H	 0.7297748573	-2.5575720169	 0.7287227603	 0.132587
H	-2.0366364064	-0.4338194092	-0.8199515907	 0.142853
H	-2.3917271135	 0.0373233507	 1.6069025465	 0.111004
84.9646	109.0838	177.6222	235.1509	290.1185	434.6037	609.1717	638.7362	735.496	792.057	803.7915	880.0917	919.2937	983.621	1007.4455	1038.0709	1086.8173	1149.3765	1185.9634	1213.3869	1238.9083	1295.1654	1336.6346	1398.6827	1442.8286	1544.7338	1786.5077	1843.132	2918.9627	3027.2423	3076.7729	3109.4314	3486.2692
N=C1OCOC1C=O	[NH][C]1OCO[C@H]1C=O	
InChI=1S/C4H5NO3/c5-4-3(1-6)7-2-8-4/h1,3,5H,2H2	InChI=1S/C4H5NO3/c5-4-3(1-6)7-2-8-4/h1,3,5H,2H2/t3-/m0/s1
