16
gdb 46819	2.61789	1.64915	1.18357	2.5462	76.08	-0.247	-0.0289	0.2181	1043.6055	0.123723	-400.711195	-400.703328	-400.702384	-400.743514	30.35	
O	 0.0323970256	 0.0360476948	 0.2306325452	-0.297889
C	-0.0090622928	 1.2208701209	 0.0440149222	 0.364808
C	-1.2601337472	 2.0633444022	-0.2458118703	-0.362076
C	-0.7118579346	 3.3513576647	-0.8829762941	-0.164489
N	 0.7327991583	 3.4752118192	-0.5469187832	-0.129868
C	 0.998864006	 3.376831181	 0.8718235154	-0.262055
C	 1.1812374766	 2.1599360933	-0.0044025408	 0.022703
C	 2.4774455363	 1.6460486355	-0.3242062227	 0.193582
C	 3.5589567357	 1.1892538242	-0.5784249798	-0.355454
H	-1.9274622314	 1.5041473417	-0.9036424565	 0.144918
H	-1.8036259133	 2.2313108828	 0.690249712	 0.138985
H	-0.7797659658	 3.3028208578	-1.9730953723	 0.12774
H	-1.2277450758	 4.2576835247	-0.554820993	 0.120236
H	 1.8989314595	 3.8795051057	 1.2109125533	 0.143156
H	 0.1722553368	 3.3804641926	 1.5798035853	 0.121504
H	 4.5141754159	 0.7874572091	-0.8105691508	 0.194199
102.6273	134.6816	165.8756	245.9015	378.3626	395.0311	478.5624	510.5159	556.6585	604.0797	619.067	650.5497	658.6007	667.4452	791.4282	819.726	868.812	899.4651	981.1734	1010.5466	1031.0067	1062.4686	1112.3647	1154.7032	1198.9592	1242.7608	1260.2023	1288.6276	1328.8107	1364.1723	1457.5901	1498.6189	1511.7303	1850.7259	2247.8745	3057.9278	3061.8447	3103.9246	3104.7256	3125.5823	3201.6403	3502.5422
O=C1CCN2CC12C#C	O=C1CCN2C[C@@]12C#C	
InChI=1S/C7H7NO/c1-2-7-5-8(7)4-3-6(7)9/h1H,3-5H2	InChI=1S/C7H7NO/c1-2-7-5-8(7)4-3-6(7)9/h1H,3-5H2/t7-,8?/m0/s1
