19
gdb 39079	2.24516	1.97633	1.36475	1.4718	81.32	-0.2366	0.0066	0.2432	1006.4397	0.161187	-385.867729	-385.860164	-385.85922	-385.899448	30.32	
C	 0.0343094361	 1.5024281879	-0.3614969766	-0.300504
C	 1.3798881592	 2.0707613639	 0.0468445589	-0.025994
C	 2.1529612195	 1.8017390676	 1.0991368665	-0.049391
C	 1.9667458447	 0.7855252732	 2.206946165	-0.313416
C	 0.6519959283	 0.8332164198	 2.9877270235	 0.05838
O	-0.4202476852	 1.6311523306	 2.4977655223	-0.238911
C	-0.5866207895	 0.2105193498	 2.4534738455	 0.000353
C	-0.5601239554	-0.4775102973	 1.1459740892	-0.051178
C	-0.242653048	 0.0501748923	-0.0382068535	-0.086257
H	-0.7413463304	 2.1334880517	 0.0857227616	 0.144718
H	-0.0613285984	 1.628356847	-1.4457254316	 0.095422
H	 1.7347003818	 2.8533570379	-0.6221909977	 0.084964
H	 3.0697403131	 2.3811765213	 1.1804069571	 0.084981
H	 2.0805314496	-0.2254804088	 1.7950400264	 0.125808
H	 2.7809365037	 0.9116499048	 2.9266246407	 0.102702
H	 0.7580068615	 0.8749701932	 4.0725830019	 0.092837
H	-1.3079764998	-0.1732821053	 3.1762089312	 0.093858
H	-0.7673305807	-1.5445285344	 1.2049371567	 0.086799
H	-0.19702726	-0.6311216153	-0.884645027	 0.094829
117.678	199.0549	228.8	251.017	317.3216	388.1938	424.8998	565.7618	594.9596	633.9264	705.6973	744.3658	782.3808	797.9514	840.4995	855.1121	921.313	947.4457	957.2704	999.1647	1002.0429	1018.3602	1054.7815	1060.9742	1108.6422	1134.4848	1231.8395	1237.3205	1270.5915	1287.3234	1296.7704	1357.6558	1363.862	1372.4006	1420.4283	1426.9773	1452.2969	1474.8946	1479.6334	1719.0601	1730.7576	3025.4533	3036.5284	3069.3423	3071.9099	3092.8277	3104.7803	3126.4637	3136.7148	3154.9134	3160.2343
C1C=CCC2OC2C=C1	C1C=CC[C@H]2O[C@H]2C=C1	
InChI=1S/C8H10O/c1-2-4-6-8-7(9-8)5-3-1/h1,3-4,6-8H,2,5H2/b3-1-,6-4-	InChI=1S/C8H10O/c1-2-4-6-8-7(9-8)5-3-1/h1,3-4,6-8H,2,5H2/b3-1-,6-4-/t7-,8+/m1/s1
