13
gdb 131258	3.48093	1.60822	1.10001	2.192	65.23	-0.2023	-0.0005	0.2018	986.8418	0.090888	-452.734618	-452.727444	-452.7265	-452.766225	26.938	
O	 0.098272422	 1.3789775731	-0.1169915454	-0.437959
C	 0.0624584982	 0.020901818	-0.0264749166	 0.15485
C	 0.015889011	-0.8189532933	-1.1104508332	-0.149915
N	-0.0118218083	-2.1575662793	-0.6592364814	-0.41997
C	 0.0184116437	-2.1073436762	 0.6858075661	 0.51021
C	 0.0644498468	-0.8070499603	 1.1486415806	 0.032783
C	 0.0887023467	-1.0106361347	 2.5546243622	-0.129064
N	 0.060443808	-2.283770865	 2.8827836778	-0.154772
O	 0.0137066248	-3.0186136476	 1.6531386319	-0.251145
H	 0.1278524834	 1.7488216618	 0.7692440511	 0.303474
H	-0.0002758879	-0.5909352759	-2.1620840141	 0.134349
H	-0.0464249786	-2.9748277722	-1.2409984433	 0.277929
H	 0.1258731302	-0.2952215583	 3.3650625346	 0.12923
115.7638	206.0026	231.9225	259.2607	284.8254	431.5965	538.9453	573.6129	612.8208	622.4275	694.5494	695.1495	749.822	795.9955	837.281	895.6838	963.5124	1066.0711	1108.3055	1184.6239	1207.1621	1269.5659	1325.6713	1351.0745	1455.5544	1511.6602	1556.5084	1625.1459	1649.9925	3232.9448	3284.8877	3700.0793	3856.9098
OC1=CNC2=C1C=NO2	Oc1c[nH]c2c1cno2	
InChI=1S/C5H4N2O2/c8-4-2-6-5-3(4)1-7-9-5/h1-2,6,8H	InChI=1S/C5H4N2O2/c8-4-2-6-5-3(4)1-7-9-5/h1-2,6,8H
