20
gdb 124493	2.50637	1.26452	1.01551	3.1735	81.59	-0.2041	0.0365	0.2405	1265.6394	0.172034	-399.355265	-399.34562	-399.344676	-399.390394	35.474	
C	 0.0045196509	 1.6162332693	 0.1393430318	-0.380304
C	-0.0102057578	 0.0819233645	 0.0228137153	-0.106586
C	 0.8352682619	-0.559553027	 1.1405167192	-0.372761
C	-1.4123657551	-0.4655663842	-0.0038670013	 0.186669
C	-1.9435233728	-1.3854565971	-0.8959059827	 0.244551
N	-1.3850804201	-2.108208086	-1.9600912578	-0.612884
N	-3.2373172629	-1.5784889048	-0.5321747899	-0.230987
N	-3.6049086802	-0.8386211448	 0.541304674	-0.239548
C	-2.4998576976	-0.1779395068	 0.8608945262	-0.08645
H	 1.0296023688	 2.0001611933	 0.1061565925	 0.106801
H	-0.5645141456	 2.0807376393	-0.6711057067	 0.115141
H	-0.4394623753	 1.9408064356	 1.0866083166	 0.118497
H	 0.4645143752	-0.1742223989	-0.9366373504	 0.051748
H	 0.8643092646	-1.6486805769	 1.0399758276	 0.112861
H	 1.8645696316	-0.1843251289	 1.121637618	 0.105272
H	 0.4105837665	-0.3305380891	 2.1238960507	 0.118876
H	-0.3912205128	-1.9347437323	-2.0394404372	 0.252102
H	-1.8196819004	-1.8972852226	-2.8525110643	 0.249222
H	-3.8912441147	-2.2257989975	-0.9379309578	 0.26637
H	-2.5168663941	 0.5028266849	 1.7005222165	 0.101409
24.7665	132.4776	149.0046	175.9395	227.4634	251.6429	271.8813	289.0574	385.4473	434.9311	462.2551	518.0912	610.4255	672.5175	717.5561	732.1013	793.9158	886.4175	888.0525	926.0223	953.4713	960.9192	1074.8003	1101.205	1123.5769	1130.8695	1162.4433	1212.3389	1249.5492	1335.7002	1338.5977	1366.3657	1389.9825	1397.336	1419.6023	1453.6415	1484.6583	1490.2624	1501.6418	1508.5825	1546.4945	1621.4111	1660.2867	2979.1017	3027.1131	3033.061	3094.3039	3100.2755	3105.7226	3110.386	3232.7786	3511.5795	3610.8978	3675.133
CC(C)C1=C(N)NN=C1	CC(C)c1c(N)[nH]nc1	
InChI=1S/C6H11N3/c1-4(2)5-3-8-9-6(5)7/h3-4H,1-2H3,(H3,7,8,9)	InChI=1S/C6H11N3/c1-4(2)5-3-8-9-6(5)7/h3-4H,1-2H3,(H3,7,8,9)
