24
gdb 6932	4.39584	0.92297	0.86859	0.0649	86.67	-0.2544	0.0883	0.3427	1486.347	0.221692	-314.275876	-314.2657	-314.264756	-314.31075	37.645	
C	-0.1852667486	 1.5412145705	 0.0463917629	-0.381741
C	-0.1728375193	 0.0204766926	-0.1276245101	-0.151613
C	 0.9244601618	-0.4690172716	-1.083594642	-0.202333
C	 0.9337080074	-1.9764236001	-1.238697781	-0.01725
C	 0.0371234988	-2.6727150337	-2.2414922826	-0.327041
C	 1.5400266134	-2.7150856552	-2.4151445886	 0.332425
C	 2.1613948027	-1.9505347833	-3.5697503687	-0.452725
C	 2.2414615078	-4.0275283354	-2.114123714	-0.446197
H	 0.7703529047	 1.9029149583	 0.4425710566	 0.112149
H	-0.3574067711	 2.0488689356	-0.9095310316	 0.111788
H	-0.972764322	 1.8589481335	 0.7371095263	 0.109758
H	-0.0382695766	-0.4594713545	 0.8508697292	 0.092151
H	-1.1480694669	-0.3192252126	-0.4987105778	 0.0982
H	 0.7864680132	 0.0138254027	-2.0585319099	 0.090375
H	 1.901624504	-0.1281920095	-0.7124150003	 0.090683
H	 1.0427653482	-2.4965490622	-0.2878521686	 0.071993
H	-0.4811494615	-3.579042457	-1.944606587	 0.10155
H	-0.5301078128	-2.0439109399	-2.9221131358	 0.100834
H	 1.6177942949	-1.0320158058	-3.8037883468	 0.113515
H	 3.2011729508	-1.6771275844	-3.352285173	 0.111305
H	 2.16807523	-2.5670074867	-4.4766276074	 0.111491
H	 2.2259138885	-4.6927043611	-2.9861849629	 0.110443
H	 3.2916673118	-3.8628268351	-1.8436944993	 0.11078
H	 1.7629886908	-4.5567398051	-1.2839984874	 0.10946
74.6915	80.866	115.2327	193.9432	207.2735	235.8668	242.2466	286.5482	303.0219	362.5058	395.273	466.3925	486.0414	693.731	746.4987	827.2147	856.5593	882.5913	905.3559	920.8246	954.2047	970.3088	1008.9181	1044.4842	1050.9762	1057.6718	1093.5634	1128.1179	1145.8308	1160.0921	1195.0359	1257.7902	1285.8779	1309.3601	1330.5077	1339.491	1385.1936	1410.5604	1411.7901	1424.8148	1429.3248	1476.8295	1483.2351	1491.2949	1493.8369	1495.3438	1499.1735	1500.8211	1510.4899	1515.5702	3004.6028	3015.7977	3017.948	3023.0335	3027.2938	3041.1476	3060.1596	3072.9248	3076.4434	3093.4834	3095.4457	3099.1987	3110.0663	3113.4069	3117.7862	3199.5327
CCCC1CC1(C)C	CCC[C@H]1CC1(C)C	
InChI=1S/C8H16/c1-4-5-7-6-8(7,2)3/h7H,4-6H2,1-3H3	InChI=1S/C8H16/c1-4-5-7-6-8(7,2)3/h7H,4-6H2,1-3H3/t7-/m0/s1
