20
gdb 106248	2.56792	1.27687	1.0511	4.0184	80.06	-0.2407	0.0117	0.2524	1240.4336	0.170128	-403.156123	-403.146912	-403.145967	-403.190062	34.596	
C	 0.083204666	 1.5291412256	-0.117230433	-0.380535
C	 0.0230515609	 0.0101326734	 0.0950849484	-0.272465
C	-1.3792721554	-0.52680524	 0.0705776026	 0.367757
N	-2.2868601731	-0.269046581	 1.2046237728	-0.395273
C	-2.8113691833	-1.5772898938	 1.1625768498	 0.428881
O	-3.6733465699	-2.1060931529	 1.8057145911	-0.34916
C	-1.8832099403	-1.968379314	 0.0266206561	-0.327968
C	-2.1308141393	-0.9985159736	-1.1428178677	-0.046648
C	-3.4983680247	-0.5277892505	-1.5850915951	-0.424297
H	 1.1163767314	 1.8871722386	-0.0879852021	 0.119227
H	-0.3451839675	 1.811751825	-1.0844844184	 0.11803
H	-0.4726557082	 2.0571027857	 0.6647180316	 0.121612
H	 0.6047855851	-0.4959860625	-0.6842279273	 0.103161
H	 0.4818199427	-0.2473208316	 1.0569663992	 0.113019
H	-2.8771939425	 0.5517612152	 1.2864337836	 0.237411
H	-1.3348270409	-2.8934727849	-0.0865631009	 0.111973
H	-1.4616199221	-1.2269954821	-1.9726999711	 0.095373
H	-4.1439581453	-0.2876943423	-0.7363742445	 0.128308
H	-3.4154903068	 0.3673820479	-2.2109667536	 0.120132
H	-4.0014806671	-1.3021715523	-2.1726067416	 0.131463
77.6926	124.6017	147.7333	177.6162	207.5655	265.1287	298.8887	352.4527	427.6074	478.802	519.1753	574.7011	697.1081	713.5126	744.9132	779.448	828.1189	898.0417	911.1176	958.4939	980.9097	989.2647	1050.4123	1066.6195	1093.2623	1111.5143	1140.5949	1143.2474	1215.0047	1247.6744	1295.8654	1326.334	1333.2986	1368.0414	1408.8659	1416.7967	1461.746	1474.876	1490.2223	1499.9455	1502.1842	1507.8331	1894.4544	3031.2968	3035.8329	3037.9327	3069.0392	3099.4244	3105.7724	3107.5925	3110.7478	3124.1718	3215.216	3538.7152
CCC12NC(=O)C1C2C	CC[C@]12NC(=O)[C@H]1[C@H]2C	
InChI=1S/C7H11NO/c1-3-7-4(2)5(7)6(9)8-7/h4-5H,3H2,1-2H3,(H,8,9)	InChI=1S/C7H11NO/c1-3-7-4(2)5(7)6(9)8-7/h4-5H,3H2,1-2H3,(H,8,9)/t4-,5-,7-/m1/s1
