17
gdb 87540	2.65698	1.53258	1.13981	4.0129	73.9	-0.24	-0.0244	0.2156	1095.0418	0.134424	-421.794306	-421.786158	-421.785213	-421.827058	30.708	
C	-0.0038121977	 1.5688219522	-0.0741332261	-0.416927
C	-0.0873154396	 0.0753753632	 0.0959122284	-0.028536
O	 1.1318765451	-0.6704849948	-0.0853830993	-0.294814
C	 0.5633932157	-0.6283470102	 1.2065664398	 0.325486
C	 1.3014020971	-0.1337653396	 2.4455179168	-0.152616
C	 0.3233849178	-0.0462803507	 3.5666263742	-0.293567
C	 0.8815147923	-1.4171203754	 3.2187995436	-0.180059
C	 0.2249517183	-1.9300565412	 1.9620362507	 0.353916
O	-0.2019958004	-2.9919462078	 1.6134071193	-0.312617
H	 0.8675623856	 1.9752755919	 0.4456735879	 0.127874
H	 0.0742152949	 1.8300980631	-1.1343953981	 0.136731
H	-0.9044444597	 2.0477350978	 0.3245097227	 0.12667
H	-0.9539135944	-0.4107091298	-0.3545394836	 0.107713
H	 2.2755201487	 0.3345041178	 2.4431822477	 0.121581
H	 0.6949800917	 0.3548784122	 4.5039632807	 0.13316
H	-0.7185866612	 0.1867073184	 3.3659675156	 0.127248
H	 1.4329035459	-2.005643857	 3.9400637697	 0.118754
104.7633	141.2565	174.6813	185.5392	257.7521	283.6599	429.06	436.3237	555.5006	613.7979	650.9638	726.5499	791.919	820.1306	865.724	900.5045	917.2699	945.5057	962.5032	1006.2396	1030.5515	1059.0076	1089.5912	1099.8059	1126.7559	1140.155	1174.9109	1202.6725	1266.9254	1295.4699	1353.3804	1410.1493	1471.913	1486.3333	1492.8181	1516.0425	1888.3666	3038.7211	3102.008	3104.0931	3119.8075	3127.2285	3204.1866	3209.7582	3224.843
CC1OC11C2CC2C1=O	C[C@H]1O[C@]21[C@H]1C[C@H]1C2=O	
InChI=1S/C7H8O2/c1-3-7(9-3)5-2-4(5)6(7)8/h3-5H,2H2,1H3	InChI=1S/C7H8O2/c1-3-7(9-3)5-2-4(5)6(7)8/h3-5H,2H2,1H3/t3-,4-,5+,7-/m1/s1
