21
gdb 101852	3.98689	0.68311	0.61315	3.0735	76.14	-0.2546	0.0586	0.3132	1825.8052	0.180499	-461.324701	-461.314551	-461.313607	-461.36103	36.801	
O	-0.2018831863	 1.1229489883	 0.5805389709	-0.424882
C	-0.4713548638	-0.26003572	 0.4985548872	-0.052841
C	-1.6066311877	-0.5353363306	-0.4865882564	 0.068102
O	-1.3019350746	 0.059341382	-1.7511306166	-0.440859
C	-1.9174639533	-2.0195611771	-0.655097257	-0.087967
O	-2.2963252617	-2.5406982095	 0.6037141569	-0.251025
C	-2.6083737901	-3.8993208325	 0.5720534338	 0.15298
C	-3.5655909116	-4.3847773962	 1.6088042149	-0.287075
C	-3.9918555902	-4.3277716314	 0.1538912779	-0.288501
H	-0.2556800309	 1.4508442513	-0.3263462437	 0.283303
H	 0.4227993612	-0.829020481	 0.1774101784	 0.064331
H	-0.7433543266	-0.6138137025	 1.4961564688	 0.126918
H	-2.5057961905	-0.0153458162	-0.1397934786	 0.108676
H	-0.5525172815	-0.4186018421	-2.1274456186	 0.283005
H	-2.7186329873	-2.1476143971	-1.3970531332	 0.105086
H	-1.0240012443	-2.5472132545	-1.0381872606	 0.07508
H	-1.7704951429	-4.5414125152	 0.2964375419	 0.084231
H	-3.3859321428	-5.3499970563	 2.0681748194	 0.116385
H	-3.9772860466	-3.6328520555	 2.2720430252	 0.128491
H	-4.6865502517	-3.5422168022	-0.1219889828	 0.121919
H	-4.1084221167	-5.2544536916	-0.3971369679	 0.114644
43.9082	57.2485	98.8175	132.4041	167.0132	241.6133	283.0463	332.2681	365.6381	431.5269	437.7408	503.3584	507.0427	577.552	757.2038	818.4639	833.5856	844.0703	933.464	968.5479	983.9808	1050.3907	1059.4028	1074.0088	1095.0484	1103.0967	1108.4881	1128.8932	1142.8395	1193.0129	1196.4069	1209.8578	1236.6446	1246.8546	1293.9805	1327.8724	1374.8586	1384.4944	1412.6734	1433.4031	1441.6162	1453.2351	1498.049	1508.5961	1519.136	2917.0958	2935.9505	3017.229	3071.3381	3089.6522	3102.8415	3135.9125	3143.4805	3220.4516	3235.7588	3768.7443	3780.0763
OCC(O)COC1CC1	OC[C@@H](O)COC1CC1	
InChI=1S/C6H12O3/c7-3-5(8)4-9-6-1-2-6/h5-8H,1-4H2	InChI=1S/C6H12O3/c7-3-5(8)4-9-6-1-2-6/h5-8H,1-4H2/t5-/m1/s1
