14
gdb 27849	2.06711	1.85383	0.97801	6.2805	69.07	-0.2209	-0.0167	0.2042	1107.8993	0.10345	-470.096564	-470.08902	-470.088075	-470.128443	29.306	
N	 0.0208436068	 1.3794910367	 0.1565597389	-0.580372
C	-0.0539425931	 0.0142249534	 0.0534215874	 0.48881
C	-1.2305178709	-0.696892842	 0.0369394098	-0.340883
C	-1.097125015	-2.1022072715	-0.0068311116	 0.460444
O	-2.2381687712	-2.808932623	-0.0226678643	-0.406163
N	 0.0252256512	-2.7800673551	-0.0402030923	-0.447936
C	 1.213492716	-2.1033549373	-0.0247546199	 0.435564
O	 2.321973816	-2.5928483697	-0.041575556	-0.395362
N	 1.11343062	-0.6751795758	 0.0160711663	-0.414788
H	 0.8410816412	 1.8298300173	-0.2200134258	 0.263943
H	-0.8343538903	 1.8803909248	-0.0271837393	 0.271805
H	-2.1981110491	-0.2187296782	 0.053441024	 0.104258
H	-1.9657824062	-3.7384757059	-0.0573872595	 0.303025
H	 2.0033733545	-0.2016994237	 0.0749120622	 0.257655
143.8696	182.6979	226.0831	324.606	328.2948	376.1266	499.0944	521.3068	535.0515	575.0431	599.8136	610.9111	660.2453	690.5497	727.5801	782.8213	795.3655	941.3914	1028.9152	1054.708	1103.9335	1191.7454	1209.2987	1299.1922	1339.4133	1488.3065	1517.5009	1622.6541	1656.9474	1680.5482	1817.9211	3242.3434	3585.1259	3616.0013	3691.2836	3742.5148
NC1=CC(O)=NC(=O)N1	Nc1cc(O)nc(=O)[nH]1	
InChI=1S/C4H5N3O2/c5-2-1-3(8)7-4(9)6-2/h1H,(H4,5,6,7,8,9)	InChI=1S/C4H5N3O2/c5-2-1-3(8)7-4(9)6-2/h1H,(H4,5,6,7,8,9)
