15
gdb 27477	2.07421	1.84505	0.98241	1.6643	73.14	-0.2485	-0.0336	0.2149	1138.0926	0.113776	-454.023999	-454.016162	-454.015218	-454.056538	29.262	
C	 0.0518979236	 1.4729426457	-0.0140757407	-0.470387
C	-0.0773644078	-0.010886893	 0.0416661783	 0.386733
C	-1.1780285891	-0.7289399297	-0.2100483546	-0.237336
C	-1.1620545508	-2.1778348777	-0.1175040205	 0.394238
N	-2.194841389	-2.8900014415	-0.351994844	-0.534251
N	 0.0997314689	-2.6784938497	 0.2525996057	-0.451396
C	 1.2409933293	-1.9581864324	 0.5148491085	 0.476552
O	 2.2920611591	-2.4410959168	 0.8268978155	-0.363782
O	 1.1145137727	-0.5962014573	 0.3969497228	-0.260176
H	 0.8206325815	 1.7603827921	-0.7392947556	 0.15482
H	-0.8960774008	 1.9325289827	-0.2964100516	 0.143181
H	 0.364714693	 1.8638418394	 0.9600182353	 0.154812
H	-2.1064681198	-0.2527026092	-0.488242177	 0.129799
H	-2.0057828719	-3.8873792882	-0.2403408421	 0.209488
H	 0.219063711	-3.6770916843	 0.3458086501	 0.267705
131.7792	139.7389	157.5951	194.4536	291.72	376.5707	495.9468	528.4175	541.9681	580.8275	610.6315	641.639	708.4671	764.2095	838.2699	871.5302	899.797	967.3939	1005.1157	1061.7576	1067.8289	1139.1386	1178.8993	1239.799	1353.3411	1412.1647	1416.836	1428.1012	1467.0915	1481.3254	1701.4461	1747.2554	1876.825	3042.8292	3099.3303	3148.7595	3251.1119	3463.1869	3618.6996
CC1=CC(=N)NC(=O)O1	C[C]1C=C([NH])NC(=O)O1	
InChI=1S/C5H6N2O2/c1-3-2-4(6)7-5(8)9-3/h2H,1H3,(H2,6,7,8)	InChI=1S/C5H6N2O2/c1-3-2-4(6)7-5(8)9-3/h2H,1H3,(H2,6,7,8)
