19
gdb 106423	2.78395	1.34844	1.1506	1.0259	75.78	-0.2526	0.0683	0.3209	1130.2885	0.158877	-422.941989	-422.933728	-422.932784	-422.974907	31.921	
O	 0.0860704497	 1.3875136234	-0.0411348441	-0.411975
C	 0.0012276926	-0.0295969915	-0.1044314045	-0.202109
C	-1.4165169745	-0.532026536	-0.0592889859	 0.19954
C	-2.4778982501	-0.3024970674	 1.0788982765	-0.282633
C	-3.2171737862	-1.1754276622	 0.0154071785	-0.154762
C	-2.577058546	-0.2563367895	-1.0698004436	-0.25502
C	-1.9198152627	-1.9881185425	-0.0648485721	 0.511594
C	-1.4957868267	-3.2430866538	-0.6638327295	-0.318249
O	-1.5051767413	-3.0344302285	 0.7747334239	-0.306776
H	-0.2761953582	 1.6614165307	 0.8076868463	 0.284624
H	 0.4672238879	-0.3124107981	-1.0552124359	 0.112483
H	 0.5845123341	-0.5064869404	 0.6993398643	 0.100394
H	-2.2737403176	-0.7710135879	 2.0439936537	 0.112439
H	-2.8465375796	 0.7213744398	 1.1878496504	 0.090955
H	-4.2414515726	-1.5433079902	 0.0574278113	 0.082754
H	-2.9408619965	 0.7724784492	-1.0933384145	 0.102805
H	-2.4667277389	-0.671676149	-2.0749624253	 0.094453
H	-2.2348410664	-3.9558052299	-1.0267303026	 0.120495
H	-0.5050649171	-3.3407531463	-1.105239377	 0.118987
77.3867	128.1518	205.3899	242.921	263.9061	309.2427	348.4312	469.5874	494.9785	614.2453	615.3572	688.8507	774.9274	807.0792	881.7694	897.7756	923.7699	946.1507	972.1742	1004.1718	1040.7538	1050.8932	1063.694	1074.7438	1109.3957	1113.8509	1132.9756	1157.9596	1167.4599	1203.0388	1210.091	1228.975	1248.9596	1332.987	1378.5657	1418.7228	1452.8438	1489.7311	1497.0697	1522.2516	1565.6017	2980.1597	3053.2004	3060.255	3062.6644	3084.567	3126.2337	3127.7114	3131.6352	3169.6317	3815.8382
OCC12CC(C1)C21CO1	OC[C@@]12C[C@@H](C1)[C@]12CO1	
InChI=1S/C7H10O2/c8-3-6-1-5(2-6)7(6)4-9-7/h5,8H,1-4H2	InChI=1S/C7H10O2/c8-3-6-1-5(2-6)7(6)4-9-7/h5,8H,1-4H2/t5-,6+,7-/m0/s1
