20
gdb 110458	2.73926	1.60449	1.2531	1.1459	78.85	-0.2001	0.0776	0.2777	1074.4443	0.170552	-403.061734	-403.053366	-403.052421	-403.094674	32.106	
C	-0.318602777	 1.4402973683	-0.211371373	-0.245074
O	 0.1399865121	 0.1281670172	 0.0270961738	-0.24791
C	 0.6350210195	-0.5094261232	-1.121521829	 0.183914
C	 1.2657475761	-1.8724846716	-0.9553665438	-0.171507
C	 0.8359027506	-2.2399889078	-2.3706862877	-0.105823
C	 0.1498899268	-2.9190212111	-1.2378693004	-0.01552
N	-1.1111268287	-2.24193328	-1.4950192892	-0.070846
C	-2.0170737951	-1.9270828698	-0.3929022056	-0.334583
C	-0.3201928465	-1.1858632803	-2.1775516435	-0.102842
H	 0.4731569843	 2.0729902715	-0.6428029357	 0.105726
H	-1.1833338256	 1.4609008484	-0.8911866516	 0.106824
H	-0.6202441479	 1.8608043679	 0.7507734596	 0.127549
H	 1.3254763961	 0.1611998335	-1.6570907883	 0.069339
H	 2.1929264555	-2.122156004	-0.456261281	 0.087879
H	 1.3815234583	-2.593987243	-3.2313711448	 0.098683
H	 0.2205276787	-3.9432987427	-0.8924053675	 0.095477
H	-1.5328320495	-1.4776906929	 0.4810870746	 0.12714
H	-2.788009849	-1.2391458152	-0.7568991531	 0.110126
H	-2.5214297094	-2.8512914858	-0.0885679084	 0.110501
H	-0.8287780894	-0.6027323894	-2.9442028253	 0.070945
79.416	157.6677	164.7951	189.5991	251.2302	297.8273	326.5439	427.7756	550.4526	664.4625	665.8383	746.4911	795.6949	803.2157	814.9293	871.7728	892.5514	967.4697	989.1518	1014.6843	1021.0818	1029.3708	1059.9946	1075.6228	1122.6361	1151.5342	1162.1822	1167.1251	1181.9093	1200.6871	1216.2427	1227.5798	1248.4506	1253.8659	1336.484	1364.3726	1402.6387	1447.4447	1479.9706	1485.9162	1490.5961	1508.4718	1512.6416	2973.0479	2983.3549	3017.7802	3023.3485	3083.7066	3092.0034	3115.7769	3123.0466	3189.3171	3204.4391	3239.3778
COC1C2C3C2N(C)C13	CO[C@H]1[C@@H]2[C@H]3[C@@H]2N(C)[C@@H]13	
InChI=1S/C7H11NO/c1-8-5-3-4(5)7(9-2)6(3)8/h3-7H,1-2H3	InChI=1S/C7H11NO/c1-8-5-3-4(5)7(9-2)6(3)8/h3-7H,1-2H3/t3-,4+,5-,6+,7-/m0/s1
