15
gdb 15521	3.24338	1.81762	1.19078	3.4976	70.92	-0.2517	-0.0441	0.2075	962.9764	0.118861	-362.690501	-362.682645	-362.681701	-362.723216	27.286	
C	-0.0284368289	 1.500605182	 0.0754795503	-0.511971
C	 0.0351273703	 0.0140564411	 0.0020066269	 0.187792
C	 0.0251947226	-0.7768589841	-1.0805011618	 0.092839
C	 0.1074661797	-2.2305293054	-0.6684962933	-0.162108
O	 0.1654368329	-2.1997629558	 0.7515519695	-0.261955
C	 0.1254289365	-0.8612505135	 1.2229015501	-0.136354
C	-0.0500707202	-0.357050886	-2.4317018876	 0.201428
N	-0.1110303157	-0.0320950749	-3.5425323615	-0.341054
H	 0.8552003891	 1.901437884	 0.5867072172	 0.14501
H	-0.088435022	 1.9494884813	-0.9180226466	 0.15805
H	-0.9006729992	 1.8228009348	 0.6570842849	 0.145079
H	-0.769667204	-2.8044944369	-1.0009776388	 0.124438
H	 1.0015303733	-2.7252253806	-1.0750339775	 0.124433
H	 1.0275124083	-0.6375252487	 1.8153497301	 0.117183
H	-0.7402647128	-0.7165411074	 1.8895551979	 0.117191
73.7014	139.9625	150.1227	156.9507	233.8273	312.4481	431.1411	510.3877	572.7591	608.8032	635.0404	822.94	939.2186	953.9059	962.275	1050.4339	1086.2822	1091.9747	1119.6107	1175.4497	1198.4925	1226.5161	1279.2179	1374.3948	1394.3724	1417.4842	1478.8743	1481.2243	1512.3336	1529.1641	1712.9302	2335.8371	2969.7008	2986.8794	2993.8437	3017.7528	3028.2399	3077.3451	3132.3222
CC1=C(COC1)C#N	CC1=C(COC1)C#N	
InChI=1S/C6H7NO/c1-5-3-8-4-6(5)2-7/h3-4H2,1H3	InChI=1S/C6H7NO/c1-5-3-8-4-6(5)2-7/h3-4H2,1H3
