22
gdb 112260	2.51803	1.12253	0.82815	2.5583	83.89	-0.2196	-0.0213	0.1983	1459.4941	0.192031	-404.346812	-404.336625	-404.335681	-404.382316	36.853	
C	 0.7950534954	-0.6938267342	 1.4037557704	-0.392157
C	 0.2112749243	-0.1897596294	 0.0795761882	-0.198455
C	-1.2456167787	-0.6469160585	-0.1014104483	-0.081896
N	-1.9555896048	-0.3207924067	-1.3722261913	-0.091833
C	-1.5247310812	 0.7819460343	-2.2107251889	-0.124778
C	-2.5034412848	 1.0188532776	-3.3605490228	-0.381927
C	-1.8592956942	-1.6979959918	-1.8964745238	-0.295655
C	-1.3702585441	-2.1259243078	-0.5060795188	 0.394354
O	-1.1462165076	-3.1705031546	 0.0297907118	-0.294817
H	 1.8389203148	-0.3859377657	 1.5133728933	 0.114668
H	 0.2360776598	-0.2928812217	 2.2562887021	 0.118156
H	 0.7503160494	-1.7850609596	 1.4614224981	 0.146376
H	 0.2474581486	 0.9056028138	 0.0457355437	 0.104845
H	 0.8222424069	-0.546921085	-0.7586655916	 0.102254
H	-1.8257109097	-0.3650598991	 0.7883738718	 0.097073
H	-1.474220164	 1.6805475995	-1.5849462616	 0.10539
H	-0.5098550233	 0.6257109126	-2.624699204	 0.077909
H	-2.1833421574	 1.8698315575	-3.9695433902	 0.113773
H	-2.5616858312	 0.1440883722	-4.0169741751	 0.119447
H	-3.5071951001	 1.2187651289	-2.9751149935	 0.125967
H	-2.7954412067	-2.140902317	-2.2536758083	 0.129139
H	-1.0820030115	-1.8525664753	-2.6656413212	 0.112168
77.8379	82.2075	110.9062	135.2405	168.4992	217.6794	248.702	295.4042	316.0998	351.1085	427.8971	514.732	559.2623	651.2264	739.0029	804.4512	812.3434	840.4454	944.4141	953.5008	985.0999	1017.5921	1039.2843	1079.9064	1095.3222	1109.4551	1126.0966	1134.7046	1189.882	1227.2159	1247.192	1283.8381	1288.5388	1322.3304	1340.5579	1364.7111	1392.2065	1411.0005	1415.3777	1474.6128	1487.4536	1489.5402	1495.0216	1498.7873	1509.3626	1512.7197	1907.6778	2912.7742	2954.3356	3005.3732	3025.8296	3037.2301	3038.0751	3049.7336	3058.935	3062.2354	3105.0695	3105.2761	3119.2546	3121.2664
CCC1N(CC)CC1=O	CC[C@H]1N(CC)CC1=O	
InChI=1S/C7H13NO/c1-3-6-7(9)5-8(6)4-2/h6H,3-5H2,1-2H3	InChI=1S/C7H13NO/c1-3-6-7(9)5-8(6)4-2/h6H,3-5H2,1-2H3/t6-/m1/s1
