15
gdb 15292	5.77892	0.97005	0.88289	1.3795	67.54	-0.2644	-0.0378	0.2266	1229.5118	0.117993	-362.673262	-362.665267	-362.664323	-362.706514	28.023	
O	-0.1583626312	 0.1199037161	-0.6066629421	-0.259635
C	-0.0413015856	 1.2095061365	-0.1048238088	 0.164261
C	 1.2475224436	 1.9278027253	 0.0338373657	-0.12459
C	 1.2451905832	 3.4527110744	-0.0154363003	-0.289503
C	 1.5727422683	 2.7700505053	 1.2666531206	 0.002372
C	 0.6393106222	 2.8384484247	 2.4695591076	-0.372379
C	 0.9381085692	 3.997922944	 3.3121624691	 0.265648
N	 1.1884457359	 4.9148913631	 3.9687148951	-0.296279
H	-0.9333616253	 1.7605814516	 0.2753423689	 0.067024
H	 2.0817842201	 1.4049308047	-0.4206152693	 0.119422
H	 2.0335645268	 3.9367416644	-0.5789694612	 0.14185
H	 0.2748943594	 3.9339183361	-0.0970436411	 0.133544
H	 2.6219335781	 2.7445126477	 1.5435937962	 0.126382
H	-0.4080608166	 2.903319626	 2.1589439852	 0.156528
H	 0.730782602	 1.9327330901	 3.0804037945	 0.165355
57.3278	87.0802	137.9238	228.1458	265.7204	372.1825	391.7073	423.7046	484.4422	556.4207	812.2421	844.7772	871.4657	887.7827	919.7597	980.0871	1016.0803	1049.5493	1079.9306	1129.9122	1146.6657	1191.4286	1229.9485	1254.915	1323.8762	1344.8162	1414.444	1451.4569	1464.4036	1491.3087	1821.0386	2365.1062	2851.3186	3047.9971	3091.0442	3135.194	3162.591	3181.5499	3227.5128
O=CC1CC1CC#N	O=C[C@H]1C[C@H]1CC#N	
InChI=1S/C6H7NO/c7-2-1-5-3-6(5)4-8/h4-6H,1,3H2	InChI=1S/C6H7NO/c7-2-1-5-3-6(5)4-8/h4-6H,1,3H2/t5-,6-/m1/s1
