17
gdb 130156	2.23772	1.60086	0.97125	2.7627	72.1	-0.1908	0.0426	0.2334	1171.9785	0.138128	-451.336447	-451.327306	-451.326362	-451.369944	34.159	
N	-0.1080797373	 1.3464024563	-0.0752892369	-0.608201
C	-0.1263619283	-0.0418604843	-0.0483928799	 0.337502
C	-1.2176944219	-0.9003372733	 0.0169937324	 0.060887
C	-2.6487683276	-0.4769669381	 0.0279832711	-0.206368
O	-2.9281484809	 0.5361493219	-0.9545624037	-0.416816
C	-0.6275208258	-2.1931656603	 0.0940272059	 0.276754
N	-1.2994115762	-3.4081454457	 0.253013041	-0.5905
N	 0.6968249607	-2.1544656293	 0.0715173122	-0.326913
N	 0.9814051312	-0.8112715811	-0.0128102464	-0.276554
H	 0.6570215073	 1.7454823954	-0.6035441014	 0.243505
H	-0.9990310591	 1.7010927101	-0.4057202294	 0.264128
H	-3.3108802558	-1.3451963644	-0.1078432439	 0.092591
H	-2.937274685	-0.0111597636	 0.9780236643	 0.122614
H	-2.6323783472	 0.1841492223	-1.8018424826	 0.277557
H	-2.1214096814	-3.49040109	-0.3313953367	 0.238974
H	-0.6756059289	-4.1885843918	 0.0874396338	 0.24792
H	 1.9409322062	-0.5157989442	 0.0065882303	 0.262921
93.9881	146.4708	191.8527	212.4908	257.6352	273.6574	291.2641	336.5238	390.5872	428.2383	445.893	523.3436	611.5865	657.2097	702.3568	741.7009	764.7359	800.2674	825.0957	957.9679	1004.6294	1060.9391	1094.8755	1145.317	1186.5367	1215.3886	1274.2224	1358.2067	1363.7294	1417.3875	1458.4644	1509.0987	1537.1058	1592.2055	1625.6062	1647.9538	1668.1703	2991.2557	3044.3234	3519.6914	3531.9024	3617.9425	3626.6389	3690.7947	3795.7434
NC1=C(CO)C(N)=NN1	Nc1c(CO)c(N)n[nH]1	
InChI=1S/C4H8N4O/c5-3-2(1-9)4(6)8-7-3/h9H,1H2,(H5,5,6,7,8)	InChI=1S/C4H8N4O/c5-3-2(1-9)4(6)8-7-3/h9H,1H2,(H5,5,6,7,8)
