25
gdb 58188	2.20524	1.23725	0.98582	2.7336	84.68	-0.2437	0.0615	0.3052	1367.7927	0.225842	-426.638801	-426.627495	-426.626551	-426.674419	43.455	
C	-0.0079840483	 1.6300627008	 0.0990007542	-0.395438
C	-0.0039701753	 0.1024450644	 0.0373262398	 0.152203
O	 0.7111585725	-0.3261409597	 1.1847265959	-0.463335
C	-1.4278217411	-0.5121803503	-0.0423994782	-0.027218
C	-2.1985401371	 0.0533106299	-1.2482382106	-0.420016
C	-1.4341947344	-2.0764887195	-0.0160932984	 0.328512
C	-2.8607595397	-2.6433745167	-0.0707010396	-0.428782
C	-0.5709852799	-2.7097639123	-1.1106158674	-0.401546
O	-0.834848525	-2.5403802209	 1.2223315249	-0.462455
H	 1.0064360682	 1.9687190022	 0.325578292	 0.125093
H	-0.317418057	 2.0864712018	-0.8441711873	 0.108314
H	-0.6670818569	 1.9857339483	 0.8986960298	 0.110362
H	 0.5379795555	-0.1950765984	-0.8787047109	 0.056384
H	 0.4844007402	-1.2565108608	 1.3315427474	 0.283477
H	-1.9550708621	-0.1976455386	 0.8727883251	 0.060513
H	-1.6783822794	-0.1551986339	-2.189701795	 0.11958
H	-3.2048712599	-0.3640040009	-1.3227287381	 0.116278
H	-2.3066712868	 1.1366825095	-1.1662801627	 0.125106
H	-3.3129580314	-2.5379367685	-1.0596173216	 0.12504
H	-2.8283075376	-3.708082986	 0.1766558806	 0.124429
H	-3.5148760763	-2.1421424144	 0.6531004754	 0.106729
H	 0.4802508459	-2.4384855893	-0.989957828	 0.134303
H	-0.6451647722	-3.7992635911	-1.0548547629	 0.121501
H	-0.9000597948	-2.3935323329	-2.1036303288	 0.119138
H	-1.3887860871	-2.2306616624	 1.9488606445	 0.281828
52.6408	92.2928	184.4782	210.1637	227.6413	238.4051	269.9473	281.9612	310.9387	324.5818	347.728	375.9412	398.61	420.9563	465.0544	471.7435	534.0194	552.1552	685.341	730.9846	830.3222	886.9831	934.121	936.0005	954.137	973.0304	1008.2243	1046.6104	1079.5428	1085.8186	1126.9532	1155.2554	1170.9563	1201.2213	1231.986	1293.4801	1316.8047	1345.9537	1372.6975	1384.1361	1400.5061	1402.28	1415.7595	1426.9494	1465.1389	1480.1019	1488.0003	1492.6814	1495.9939	1499.9374	1503.509	1510.911	1520.2852	2929.0576	2976.3416	3030.1199	3039.1202	3046.7903	3054.2878	3101.8484	3110.9789	3113.9923	3121.4517	3124.0801	3128.1298	3133.5765	3135.9365	3684.0481	3791.7009
CC(O)C(C)C(C)(C)O	C[C@@H](O)[C@@H](C)C(C)(C)O	
InChI=1S/C7H16O2/c1-5(6(2)8)7(3,4)9/h5-6,8-9H,1-4H3	InChI=1S/C7H16O2/c1-5(6(2)8)7(3,4)9/h5-6,8-9H,1-4H3/t5-,6-/m1/s1
