17
gdb 113347	2.5151	1.05338	0.84543	3.2914	70.25	-0.275	0.0067	0.2818	1357.0558	0.135307	-455.113219	-455.10363	-455.102686	-455.148467	33.914	
O	-0.0473018333	 1.3217142351	-0.5451961981	-0.410938
C	 0.0327539834	 0.1262728253	 0.2088893496	-0.080206
C	-1.3104017215	-0.5707964933	 0.2294128417	-0.068964
N	-1.6642715	-1.3487301258	-0.9659211062	-0.375896
C	-1.5106039404	-2.0559275632	 0.3317036087	 0.104708
C	-0.3881753119	-3.0861503685	 0.3564100932	-0.12
O	-0.7249128162	-4.2137964765	-0.4187633848	-0.405463
C	-2.7301822023	-2.4828558488	 0.9863895147	 0.257203
N	-3.7076751724	-2.8151378605	 1.5075622025	-0.331838
H	-0.2509552022	 1.0705603702	-1.4532655818	 0.293341
H	 0.8123967504	-0.5410307422	-0.1793477017	 0.101254
H	 0.313312515	 0.4212152995	 1.2250223194	 0.126745
H	-2.1010483981	 0.032546087	 0.6710944218	 0.120646
H	-2.6488093826	-1.2376148399	-1.1951171293	 0.257728
H	 0.5397149912	-2.6149992861	 0.0104206535	 0.103488
H	-0.2300832147	-3.442929617	 1.3782125394	 0.132909
H	-0.8711094643	-3.9014826652	-1.3196344726	 0.295284
57.4392	71.9048	135.8771	149.9289	169.1257	239.9722	312.7958	351.9049	397.6357	429.5747	444.0686	493.6238	588.4801	665.1666	705.7595	836.8383	887.1588	933.6919	996.8203	1006.9105	1060.9379	1076.7547	1094.8139	1107.5159	1184.6342	1213.2121	1261.5319	1299.2207	1327.8942	1372.3546	1386.0006	1414.917	1424.946	1465.78	1488.0929	1499.7668	2351.4978	3019.2113	3038.0433	3087.1599	3098.8968	3138.4223	3510.2683	3793.4505	3803.0645
OCC1NC1(CO)C#N	OC[C@H]1N[C@]1(CO)C#N	
InChI=1S/C5H8N2O2/c6-2-5(3-9)4(1-8)7-5/h4,7-9H,1,3H2	InChI=1S/C5H8N2O2/c6-2-5(3-9)4(1-8)7-5/h4,7-9H,1,3H2/t4-,5+/m1/s1
