14
gdb 27499	2.1129	1.87066	0.99276	5.5412	69.72	-0.2319	-0.0162	0.2158	1098.0097	0.102695	-470.077198	-470.069471	-470.068527	-470.109509	29.483	
N	 0.1104021654	 1.3453331587	-0.1785880052	-0.563821
C	-0.0676481266	 0.0072636439	 0.0154240073	 0.469153
C	-1.2108384721	-0.6941686286	-0.1561831614	-0.387076
C	-1.2099170041	-2.1277517422	 0.0235595473	 0.45093
O	-2.1573178714	-2.8768151037	-0.10213082	-0.38357
N	 0.0499735537	-2.6420060224	 0.3829045477	-0.402471
C	 1.2109837539	-1.940973903	 0.5759427661	 0.470621
N	 2.3007318877	-2.4835139137	 0.9112828005	-0.560496
O	 1.1091386872	-0.571521061	 0.3758038123	-0.260899
H	 0.9101959773	 1.758992385	 0.2745476645	 0.272092
H	-0.7181938135	 1.9165451033	-0.2061943394	 0.275356
H	-2.1336915694	-0.2088381439	-0.4368857153	 0.112925
H	 0.1075416379	-3.6403121663	 0.523960659	 0.277418
H	 3.0418204541	-1.7931961261	 0.9985141265	 0.229839
102.6433	159.5992	168.695	325.6588	370.7851	380.9173	449.0305	507.4833	520.1909	580.299	606.9246	654.9061	691.2814	705.7399	723.5672	794.116	802.8287	906.107	969.2168	1023.0043	1102.0626	1129.6043	1243.6837	1281.8579	1392.5465	1399.031	1441.2985	1627.8664	1698.2767	1791.1112	1801.6888	3243.5394	3542.7686	3596.8108	3628.9967	3713.6418
NC1=CC(=O)NC(=N)O1	NC1=CC(=O)N[C]([NH])O1	
InChI=1S/C4H5N3O2/c5-2-1-3(8)7-4(6)9-2/h1H,5H2,(H2,6,7,8)	InChI=1S/C4H5N3O2/c5-2-1-3(8)7-4(6)9-2/h1H,5H2,(H2,6,7,8)
