13
gdb 128717	7.13873	0.90792	0.80961	2.7928	64.26	-0.2802	-0.0991	0.1811	1319.9971	0.088441	-489.876979	-489.869071	-489.868126	-489.910057	27.041	
C	-0.0247721389	 1.3655598935	 0.0308801176	-0.24853
O	 0.0191157631	-0.0674796614	-0.0290951961	-0.242052
C	 0.6221906276	-0.5803639618	-1.0849119383	 0.46063
N	 1.1685312604	 0.1275677639	-2.0550150586	-0.210873
O	 1.663927862	-0.853570071	-2.9160148949	-0.18277
C	 1.3570623123	-2.0297729172	-2.3625099976	 0.330434
C	 1.7476211562	-3.2941998206	-3.0359632454	 0.087869
O	 2.3410573759	-3.3389994196	-4.0808744972	-0.22809
N	 0.7155973613	-1.9385805205	-1.2341769093	-0.344741
H	 0.9875705393	 1.7791970181	 0.048405796	 0.151705
H	-0.5619025531	 1.7685999851	-0.8324187158	 0.151715
H	-0.5512022304	 1.6042129928	 0.9540939046	 0.148122
H	 1.4310949842	-4.1896691213	-2.468473705	 0.126579
78.574	132.9625	154.9823	172.9041	257.2256	267.0007	378.7555	400.1225	606.2804	675.5473	707.8744	777.1122	780.9504	957.9561	1021.6023	1027.0388	1039.0776	1102.2512	1180.9874	1224.006	1320.0777	1393.353	1402.6853	1459.4786	1483.0249	1497.1184	1589.8921	1615.2563	1817.5488	2966.1257	3046.1876	3120.4965	3166.8268
COC1=NOC(C=O)=N1	COc1noc(C=O)n1	
InChI=1S/C4H4N2O3/c1-8-4-5-3(2-7)9-6-4/h2H,1H3	InChI=1S/C4H4N2O3/c1-8-4-5-3(2-7)9-6-4/h2H,1H3
