22
gdb 94323	2.62305	1.3107	1.0728	2.0079	82.61	-0.2371	0.064	0.3011	1245.1624	0.192053	-404.317353	-404.307425	-404.306481	-404.351774	37.127	
C	-0.3126037434	 1.4350229748	 0.1425342891	-0.390592
C	 0.1205216201	-0.0035941438	-0.0510805104	 0.081881
O	 1.3613527167	-0.1215649672	-0.8037044605	-0.298357
C	 2.0395073362	-0.7822192881	 0.2817764944	-0.154743
C	 0.7768244597	-0.7176481069	 1.1354168939	 0.238497
N	 0.6415556073	-0.3019791826	 2.5270321592	-0.411655
C	 0.2464686269	-1.6775512747	 2.1303410767	 0.25236
C	-1.2427312868	-1.9450238725	 2.2037207173	-0.440563
C	 1.1266080305	-2.8327870226	 2.5631170088	-0.464718
H	 0.4594312589	 2.006240469	 0.6648647827	 0.121071
H	-0.503925093	 1.9037005915	-0.8276993921	 0.120807
H	-1.2302304778	 1.4796264918	 0.7376344191	 0.122896
H	-0.6733810325	-0.585570934	-0.5401648681	 0.074045
H	 2.3880955405	-1.7864424849	 0.00502658	 0.101159
H	 2.8953122642	-0.1994451151	 0.6513607738	 0.098685
H	 1.5500278855	-0.3079130407	 2.9878036875	 0.222822
H	-1.8133793752	-1.0589275571	 1.9168375263	 0.128421
H	-1.5252102198	-2.7706599632	 1.5409238282	 0.115478
H	-1.535984951	-2.2172885624	 3.2238657405	 0.118917
H	 0.9369495954	-3.0916439729	 3.6113175262	 0.123928
H	 0.9263366499	-3.72699989	 1.962234398	 0.125599
H	 2.1898345578	-2.5930013583	 2.4612682294	 0.114065
77.5735	137.1891	151.2443	188.4779	205.1575	209.9375	241.0472	271.3054	356.7011	408.5448	439.3379	459.4522	548.2104	561.832	706.3855	796.8138	856.1258	875.2241	952.1018	959.777	969.4608	986.8654	1021.8674	1050.8789	1070.3065	1076.8057	1082.2837	1139.3816	1151.7988	1159.8011	1190.6692	1257.8569	1285.8882	1318.1303	1345.2611	1376.4639	1403.4262	1410.7399	1421.7904	1464.5161	1476.1381	1481.8648	1487.6083	1489.0099	1497.9409	1519.9525	1523.2279	2990.7105	3003.9897	3024.0058	3030.821	3032.5546	3040.4216	3086.8408	3092.2565	3099.7481	3112.6346	3123.3071	3125.1953	3476.5345
CC1OCC11NC1(C)C	C[C@H]1OC[C@]21NC2(C)C	
InChI=1S/C7H13NO/c1-5-7(4-9-5)6(2,3)8-7/h5,8H,4H2,1-3H3	InChI=1S/C7H13NO/c1-5-7(4-9-5)6(2,3)8-7/h5,8H,4H2,1-3H3/t5-,7-/m1/s1
