16
gdb 20200	3.83014	2.62214	2.04541	1.0645	69.29	-0.2206	-0.0204	0.2002	704.176	0.133202	-346.543428	-346.537802	-346.536858	-346.572765	23.566	
C	 0.000016913	 1.5607993876	 0.1356637329	-0.265809
C	 1.4761434741	 1.8738484024	-0.0329325672	-0.076626
C	 2.1349330424	 0.836476536	-0.5707748393	 0.07517
C	 3.191311185	 0.1081446503	 0.2210845448	-0.125017
O	 2.2938025487	-0.6901057682	 1.0540927005	-0.274916
C	 1.1201442464	-0.9530395275	 0.2863680786	 0.109345
C	-0.0113067616	 0.0552245903	-0.1337105815	-0.079851
C	 1.1700821763	-0.2575138696	-1.0160193505	-0.167565
H	-0.3058355844	 1.8294582807	 1.1553750438	 0.116369
H	-0.682706713	 2.0901056549	-0.5449496172	 0.108746
H	 1.9556864898	 2.6668152519	 0.5325356233	 0.09996
H	 3.8431468361	-0.5570891495	-0.3578193663	 0.100504
H	 3.7885103906	 0.7423257896	 0.8784946322	 0.114905
H	 0.7883010797	-1.9791256045	 0.4077928966	 0.099272
H	-0.9667324313	-0.4350104163	-0.3048543749	 0.078934
H	 1.1800984682	-0.694586588	-2.0084102357	 0.08658
227.2233	298.4812	372.0477	454.1349	638.9368	674.0741	698.9661	757.7154	766.1667	810.6239	843.5028	852.323	901.8056	916.362	962.9847	976.934	1012.3565	1016.7035	1053.4056	1076.9065	1116.9769	1121.3607	1152.3073	1182.8893	1200.0396	1250.4746	1295.3007	1306.0091	1325.7873	1350.3059	1390.3724	1473.2141	1508.8736	1649.5125	2998.104	3029.2238	3038.6722	3120.4183	3140.8474	3157.5078	3169.3035	3179.7919
C1C=C2COC3C1C23	C1[CH][C]2CO[C@H]3[C@@H]1[C@@H]23	
InChI=1S/C7H8O/c1-2-5-6-4(1)3-8-7(5)6/h1,5-7H,2-3H2	InChI=1S/C7H8O/c1-2-5-6-4(1)3-8-7(5)6/h1,5-7H,2-3H2/t5-,6+,7-/m0/s1
