16
gdb 31567	3.39208	1.14841	0.87947	0.8558	69.75	-0.1739	0.0428	0.2166	1277.5845	0.123172	-475.02563	-475.016397	-475.015453	-475.060384	33.064	
C	 0.1651573206	 1.383407343	-0.0007912442	-0.251752
O	-0.3289982714	 0.0788210372	-0.3121922185	-0.269069
C	 0.388369718	-0.628449571	-1.1930436133	 0.4464
C	 0.6458553412	-1.9597227323	-1.2500603464	-0.390601
C	 1.3701476566	-2.1663092644	-2.4820147465	 0.156293
N	 1.7900964912	-3.4003606777	-3.0062323005	-0.61694
C	 1.4979044719	-0.9430346786	-3.0547793954	 0.269445
O	 2.1756143797	-0.527022287	-4.147608777	-0.428624
O	 0.8908347197	 0.0248501673	-2.2722737038	-0.214387
H	 1.1839691583	 1.3290641635	 0.4005350671	 0.12593
H	 0.1584529583	 2.0303865742	-0.8826690305	 0.139541
H	-0.5084692471	 1.7863901557	 0.7565560417	 0.135412
H	 0.3479648376	-2.7010864459	-0.5270773382	 0.106998
H	 2.2041311517	-3.9939689322	-2.2972270453	 0.242919
H	 2.4622990938	-3.2691533436	-3.7530859301	 0.244569
H	 1.5552987699	-0.2981604284	-4.8519286091	 0.303865
26.7296	133.0009	173.4593	208.1429	230.2259	254.6683	269.5999	317.4568	382.3872	395.2524	562.2097	604.9635	632.3629	669.1861	687.0228	754.6628	806.2691	832.4544	978.1912	1052.2836	1055.0382	1162.3274	1180.8506	1198.9305	1219.6665	1245.5547	1314.6039	1341.4662	1458.6648	1476.5683	1486.1241	1504.3027	1648.1816	1662.9079	1740.0941	3026.8441	3101.3467	3145.247	3267.5414	3519.1007	3607.567	3732.6093
COC1=CC(N)=C(O)O1	COc1cc(N)c(O)o1	
InChI=1S/C5H7NO3/c1-8-4-2-3(6)5(7)9-4/h2,7H,6H2,1H3	InChI=1S/C5H7NO3/c1-8-4-2-3(6)5(7)9-4/h2,7H,6H2,1H3
