13
gdb 12311	3.09008	2.37814	1.41772	6.7076	55.62	-0.2605	-0.0508	0.2097	815.7771	0.097163	-435.793366	-435.786601	-435.785657	-435.824697	24.554	
O	-0.0111351754	-0.0377728194	 0.2105822204	-0.328344
C	-0.0347827232	 1.164547992	 0.0952344641	 0.286763
N	-1.1783611916	 1.905071115	 0.0168614867	-0.326882
C	-1.1831356752	 3.3447222804	-0.1703492087	-0.177145
C	 0.000081341	 3.9150100005	 0.5874447219	-0.075117
O	 1.227620203	 3.3225029545	 0.1446729142	-0.228091
C	 1.2883616564	 1.9739191702	-0.0083774397	 0.334742
O	 2.3261864194	 1.4383734077	-0.2514318886	-0.281826
H	-2.0372801427	 1.3766927033	-0.0402516807	 0.261452
H	-1.1225801696	 3.6208983183	-1.232576299	 0.132295
H	-2.1116918765	 3.7605654063	 0.2321904592	 0.132933
H	 0.1081072346	 4.986346683	 0.4089224106	 0.138419
H	-0.11950469	 3.7445591483	 1.6642190996	 0.130801
83.191	130.15	304.2376	347.9519	401.3088	453.9639	479.2019	557.0905	603.6258	679.4292	712.3296	819.7431	914.4956	986.9944	1035.1321	1109.715	1133.0546	1158.0613	1259.9734	1276.7311	1353.9503	1390.9984	1414.5758	1469.303	1505.8513	1508.6302	1820.8835	1870.852	3008.4864	3041.0682	3087.222	3123.4508	3607.9576
O=C1NCCOC1=O	O=C1NCCOC1=O	
InChI=1S/C4H5NO3/c6-3-4(7)8-2-1-5-3/h1-2H2,(H,5,6)	InChI=1S/C4H5NO3/c6-3-4(7)8-2-1-5-3/h1-2H2,(H,5,6)
