16
gdb 28506	3.12113	1.42594	0.98544	3.1648	77.88	-0.2079	-0.0241	0.1838	1148.2376	0.125828	-434.142323	-434.134294	-434.13335	-434.174497	31.219	
C	-0.1032492302	 1.5162601336	-0.0097899301	-0.502874
C	-0.0276963685	 0.0140687285	-0.014988611	 0.274196
N	-0.0245276445	-0.6227325829	-1.1827107133	-0.278827
C	 0.0288769639	-1.9538127383	-1.1969461241	-0.122741
C	 0.0848022896	-2.6643709081	 0.0022788142	 0.397275
O	 0.1395815259	-4.0119142488	-0.0195494657	-0.418799
N	 0.092697855	-2.0629540952	 1.185407314	-0.412288
C	 0.0319280033	-0.7278701255	 1.1887477961	 0.314623
N	-0.0192560899	-0.1107320675	 2.4201103701	-0.56638
H	 0.7886459642	 1.973300827	 0.44172549	 0.117983
H	-0.1815928448	 1.8746849606	-1.0370482319	 0.145911
H	-0.9719151798	 1.8761628661	 0.5556354785	 0.130731
H	 0.0286283974	-2.4650069461	-2.1530486419	 0.113443
H	 0.1693227738	-4.2972673058	 0.9038127715	 0.296015
H	 0.258315264	-0.6976559994	 3.1924626043	 0.255245
H	 0.3115335508	 0.8390341219	 2.4734162694	 0.256486
121.8705	167.7624	239.9675	294.749	332.6699	337.5381	407.0386	474.3044	501.5774	505.7426	515.6788	549.3456	597.3771	707.3665	746.6517	772.6692	801.5905	879.4953	978.7967	1019.0307	1057.7843	1120.4785	1205.246	1225.253	1281.0769	1308.1998	1386.9888	1404.1682	1470.6141	1484.8649	1491.2206	1515.3779	1605.3259	1631.3418	1643.7618	3006.4962	3056.4982	3141.4238	3190.3431	3582.592	3699.1691	3772.5824
CC1=NC=C(O)N=C1N	Cc1ncc(O)nc1N	
InChI=1S/C5H7N3O/c1-3-5(6)8-4(9)2-7-3/h2H,1H3,(H3,6,8,9)	InChI=1S/C5H7N3O/c1-3-5(6)8-4(9)2-7-3/h2H,1H3,(H3,6,8,9)
