13
gdb 131969	2.93502	1.70178	1.08451	3.3908	64.65	-0.2958	-0.103	0.1928	1008.1402	0.090305	-485.995177	-485.987772	-485.986827	-486.027915	25.875	
C	-0.0343143206	 1.4602423675	-0.0252948319	-0.319775
N	-0.0120209671	 0.0036755705	 0.0550375393	-0.022149
N	-0.0310963851	-0.7261693714	-1.0764220968	-0.223663
C	-0.0021563985	-1.9807213967	-0.6326397741	 0.041726
N	 0.0342225304	-2.1090104723	 0.7113981292	-0.278403
C	 0.0268868157	-0.8535787641	 1.1024654628	 0.48029
N	 0.0567241918	-0.4268301546	 2.4887076397	 0.358571
O	 0.0904036845	-1.2926745463	 3.3403202356	-0.31364
O	 0.0451479939	 0.7875155693	 2.6867032768	-0.376426
H	 0.8581423132	 1.8773043755	 0.4415284247	 0.16873
H	-0.0654051631	 1.7040283713	-1.0858454807	 0.166033
H	-0.9123804018	 1.8527479466	 0.4878051555	 0.168739
H	-0.0079549332	-2.8207326354	-1.3100386802	 0.149966
50.6039	157.4709	194.9685	235.1975	249.9702	359.4623	442.3369	555.2672	656.876	692.3817	719.5436	791.5012	854.7542	913.8032	984.7927	1038.4804	1152.8918	1172.5262	1227.1725	1302.4503	1322.7249	1387.9821	1392.3971	1432.5387	1478.8303	1481.6714	1497.6975	1548.2365	1648.0675	3080.196	3159.3785	3185.3282	3271.6093
CN1N=CN=C1N(=O)=O	Cn1ncnc1N(=O)=O	
InChI=1S/C3H4N4O2/c1-6-3(7(8)9)4-2-5-6/h2H,1H3	InChI=1S/C3H4N4O2/c1-6-3(7(8)9)4-2-5-6/h2H,1H3
