13
gdb 21446	5.92523	1.50656	1.20115	5.5158	65.75	-0.2206	-0.013	0.2076	929.9795	0.097008	-394.768122	-394.761219	-394.760275	-394.800184	24.697	
N	 0.1971080543	 1.3567945038	 0.0058852486	-0.415195
C	 0.0413153784	 0.0993518642	 0.0022636166	 0.076175
N	-1.193996339	-0.5313997141	 0.0120297396	-0.397576
C	-2.4614107413	 0.0061749707	 0.0271549686	 0.563355
C	-3.6747638078	-0.6314538635	 0.0376578417	-0.383157
C	-4.5890302193	 0.4474363497	 0.0511250422	 0.047947
N	-4.0009269599	 1.6178678475	 0.0479838654	-0.145934
O	-2.62116789	 1.3296495005	 0.0330854181	-0.183212
H	 1.188490859	 1.5860782841	-0.0030911203	 0.231944
H	 0.8420298932	-0.6501831016	-0.0088246216	 0.097125
H	-1.1736723053	-1.5375163714	 0.0080783745	 0.266333
H	-3.8737354697	-1.6895506553	 0.036276321	 0.110554
H	-5.6696410125	 0.4100706454	 0.0624108757	 0.13164
34.8763	171.8171	173.5004	325.5895	356.4083	469.4851	600.055	633.1284	708.6174	746.4473	801.0124	805.2664	906.1526	915.8279	933.6508	1000.6176	1047.916	1060.7547	1099.4966	1220.0537	1222.9265	1346.2585	1382.6335	1423.4279	1512.8021	1548.3919	1656.2221	1740.5426	3043.18	3240.3571	3278.5687	3516.4803	3659.1125
N=CNC1=CC=NO1	N=CNc1ccno1	
InChI=1S/C4H5N3O/c5-3-6-4-1-2-7-8-4/h1-3H,(H2,5,6)	InChI=1S/C4H5N3O/c5-3-6-4-1-2-7-8-4/h1-3H,(H2,5,6)
