17
gdb 102343	1.77341	1.52436	1.18999	4.0733	75.4	-0.2509	-0.0125	0.2384	1158.7459	0.13287	-417.952231	-417.941885	-417.940941	-417.987563	36.558	
C	 0.0413970751	 1.4722549868	-0.1067006686	-0.256723
O	-0.0060750736	 0.0692250931	 0.120109279	-0.267269
C	-1.2919702394	-0.5408685371	 0.0436414746	 0.000256
C	-2.1391639553	-0.219046116	 1.331051616	-0.178303
N	-1.492186621	-0.5477851669	 2.5807167766	-0.507487
C	-2.0449494628	-0.1744940069	-1.1619290286	 0.323126
C	-2.7039290998	 0.1576919337	-2.1097512562	-0.430985
C	-1.0225656262	-1.9967632645	 0.0289915141	 0.293969
N	-0.8574399229	-3.1387452489	 0.0716782776	-0.336875
H	 1.0974040058	 1.7414989779	-0.0478101271	 0.143435
H	-0.3465291807	 1.7338312611	-1.0972051729	 0.13475
H	-0.5111005819	 2.0384583866	 0.6540212899	 0.118985
H	-2.3657754255	 0.8514583467	 1.2994194772	 0.124916
H	-3.0913259559	-0.7506756578	 1.2514151146	 0.135577
H	-1.3906386453	-1.5542171049	 2.6752093667	 0.247941
H	-0.5547989707	-0.1569907648	 2.5985312573	 0.240501
H	-3.27786623	 0.433579532	-2.9607926702	 0.214187
65.8202	114.4414	124.1562	133.3612	169.6676	194.8947	232.4513	266.8086	346.6615	367.2428	435.7212	485.7633	523.2208	565.9789	597.1201	653.349	691.9661	693.3856	839.9201	882.4558	989.4966	1009.7085	1099.0204	1111.846	1150.3392	1180.5219	1209.9609	1247.6936	1362.4778	1389.428	1467.694	1475.7952	1495.5047	1509.9433	1673.5814	2233.2248	2365.6056	3014.559	3056.9246	3082.6139	3107.4711	3136.0872	3495.861	3497.4729	3576.0608
COC(CN)(C#C)C#N	CO[C@@](CN)(C#C)C#N	
InChI=1S/C6H8N2O/c1-3-6(4-7,5-8)9-2/h1H,4,7H2,2H3	InChI=1S/C6H8N2O/c1-3-6(4-7,5-8)9-2/h1H,4,7H2,2H3/t6-/m1/s1
