18
gdb 109639	2.17168	1.29525	1.06316	4.5566	73.94	-0.2531	0.0242	0.2773	1214.7161	0.1451	-439.06902	-439.058981	-439.058037	-439.104033	35.434	
C	-0.3265767554	 1.0745297801	-0.1073125542	-0.244506
O	 0.5960484391	 0.0075129224	 0.071928786	-0.253805
C	 0.98292907	-0.6130022455	-1.1032161523	 0.013067
C	 1.5620153951	-1.9706639888	-0.8983638062	 0.068823
O	 1.6225096798	-2.4753865259	 0.3882285544	-0.424084
C	 0.180009675	-1.8446472848	-1.5892492818	 0.045752
C	-1.0559412495	-2.3063611672	-0.8375776751	-0.455498
C	 0.1686672004	-2.0425569984	-3.011213102	 0.237387
N	 0.1758134962	-2.1884003164	-4.1602264438	-0.346068
H	 0.10141146	 1.8575416666	-0.7470238957	 0.127208
H	-1.2638682078	 0.722461615	-0.5545386429	 0.129424
H	-0.5276608306	 1.4883619738	 0.8823454059	 0.140714
H	 1.3965817512	 0.0457929325	-1.8659885031	 0.116973
H	 2.3914335349	-2.2875671335	-1.522803304	 0.12945
H	 1.3925904323	-1.7532785797	 0.9879964578	 0.306619
H	-0.969732536	-2.0622092819	 0.2211802774	 0.131568
H	-1.9571906195	-1.8322130165	-1.2358569876	 0.132383
H	-1.1715569753	-3.3898837918	-0.9268664526	 0.144595
104.8002	109.9419	114.0151	146.3864	169.6554	182.4241	213.0153	278.8559	338.1112	400.8947	459.3666	490.7751	562.1948	565.9953	632.2422	713.2254	829.7988	869.4857	957.3111	1031.2898	1045.8916	1088.6892	1107.5895	1171.1713	1181.9044	1188.4756	1224.1447	1251.0369	1292.1546	1341.8751	1377.1114	1414.9529	1450.7983	1484.1048	1485.7755	1488.1628	1498.4003	1506.9547	2337.9175	3010.1689	3054.1169	3073.2997	3111.8396	3117.7032	3136.9134	3153.886	3162.6503	3764.195
COC1C(O)C1(C)C#N	CO[C@H]1[C@@H](O)[C@]1(C)C#N	
InChI=1S/C6H9NO2/c1-6(3-7)4(8)5(6)9-2/h4-5,8H,1-2H3	InChI=1S/C6H9NO2/c1-6(3-7)4(8)5(6)9-2/h4-5,8H,1-2H3/t4-,5+,6+/m1/s1
