19
gdb 119297	2.12637	1.33535	0.96902	5.4476	76.77	-0.2459	0.0232	0.2691	1287.2118	0.158901	-419.18099	-419.171539	-419.170595	-419.215797	33.66	
C	-0.0795340008	 1.246609398	-0.2324859169	-0.2295
O	-0.036626545	-0.1612829984	-0.151730773	-0.237472
C	-1.2867946656	-0.7437781557	 0.1189488383	-0.109165
C	-1.0752105365	-2.2590495291	 0.2159493586	 0.153159
C	-2.3922049269	-3.0666804875	-0.0062276683	-0.287926
C	-1.8839673597	-3.289965205	-1.4528347673	-0.15962
N	-0.5304922535	-2.8747987928	-1.0136244496	-0.3224
C	-0.3085432332	-2.5824157461	 1.4286844023	 0.272284
N	 0.2569140093	-2.8486073107	 2.4005456894	-0.344855
H	 0.9349815001	 1.5891956933	-0.4461290591	 0.138303
H	-0.7501047358	 1.5869484741	-1.036868448	 0.106937
H	-0.4169821475	 1.6950603322	 0.7136425988	 0.116283
H	-1.7167416972	-0.3577229412	 1.057573151	 0.107727
H	-2.0029443213	-0.5300058031	-0.6926758361	 0.089892
H	-2.4235721884	-3.9797290301	 0.5871879941	 0.139255
H	-3.3203001544	-2.5094398687	 0.1277513396	 0.116903
H	-1.9291797855	-4.3116500876	-1.8404859641	 0.116856
H	-2.3608123232	-2.6193598018	-2.1794178369	 0.100585
H	-0.0221463948	-2.2243198398	-1.6033894927	 0.232753
65.4038	103.076	126.5423	154.2693	190.384	206.482	246.2137	344.247	374.1205	430.8789	538.4007	572.3663	659.7926	753.4922	778.9239	905.8702	927.9446	951.4336	982.0206	1001.5541	1033.2511	1094.0629	1142.8968	1159.6628	1173.7407	1186.4788	1206.8092	1214.7452	1232.8475	1261.4327	1293.4818	1330.6948	1381.51	1408.5225	1478.9505	1484.49	1486.2925	1498.6441	1519.1554	1528.4547	2356.7978	2956.2552	2979.8001	2995.9047	3014.852	3029.2976	3077.8358	3092.5335	3125.9238	3155.0316	3535.5833
COCC1(CCN1)C#N	COC[C@]1(CCN1)C#N	
InChI=1S/C6H10N2O/c1-9-5-6(4-7)2-3-8-6/h8H,2-3,5H2,1H3	InChI=1S/C6H10N2O/c1-9-5-6(4-7)2-3-8-6/h8H,2-3,5H2,1H3/t6-/m0/s1
