19
gdb 109986	1.86267	1.6434	1.12868	2.1441	77.73	-0.2504	0.0216	0.272	1178.9942	0.156161	-422.960876	-422.951085	-422.95014	-422.996018	35.249	
C	 0.1648500326	 1.581698059	 0.164730009	-0.246208
O	-0.1921820048	 0.2177207134	 0.2872305337	-0.229502
C	 0.5468682176	-0.4728555937	 1.2404635508	 0.072588
C	 0.1316306238	-1.9496510088	 1.4194736774	 0.102309
C	-0.871693448	-2.5157103756	 0.433863091	-0.389651
O	 1.4892866057	-2.3950515988	 1.1524450071	-0.294085
C	 1.9484603797	-1.0582364328	 0.8401896739	-0.125389
C	 2.3631962007	-0.8913102413	-0.5425491731	 0.365637
C	 2.7195232875	-0.7477902598	-1.6819595705	-0.454988
H	 1.199884531	 1.7007239269	-0.1803726683	 0.122576
H	-0.5080411583	 2.0228620737	-0.5735477419	 0.132092
H	 0.0449166537	 2.1118370375	 1.1220603329	 0.106671
H	 0.5993174134	 0.0915674106	 2.1821155351	 0.076268
H	-0.151994307	-2.2047707508	 2.4481376254	 0.079417
H	-0.619783624	-2.2293243016	-0.5888899629	 0.138766
H	-0.8751446105	-3.607404231	 0.5070719926	 0.122185
H	-1.8776941174	-2.1484952048	 0.6598208504	 0.119334
H	 2.7646036645	-0.7634664111	 1.5122581218	 0.100636
H	 3.0306820398	-0.6287485109	-2.6904745945	 0.201341
38.0972	109.1226	140.1731	174.3019	196.0074	211.6471	228.3829	312.6243	361.6784	412.2789	492.368	547.4951	605.9288	621.7068	670.671	787.1577	817.4987	886.462	900.3364	988.7312	1007.0919	1048.9884	1085.3274	1095.3187	1137.5305	1181.5425	1187.1341	1224.4894	1247.1209	1276.56	1317.8332	1345.0683	1387.5051	1395.7522	1408.6542	1482.1378	1483.9213	1487.6974	1492.3855	1507.9808	2230.8902	2985.4976	2997.4746	3019.064	3029.4538	3046.0706	3052.7179	3114.647	3125.3619	3141.2664	3501.4933
COC1C(C)OC1C#C	CO[C@H]1[C@@H](C)O[C@H]1C#C	
InChI=1S/C7H10O2/c1-4-6-7(8-3)5(2)9-6/h1,5-7H,2-3H3	InChI=1S/C7H10O2/c1-4-6-7(8-3)5(2)9-6/h1,5-7H,2-3H3/t5-,6+,7+/m1/s1
