20
gdb 38721	2.55506	2.02624	1.58137	0.8416	77.24	-0.2296	0.0804	0.3101	925.7549	0.175008	-403.109306	-403.102569	-403.101625	-403.13989	29.015	
C	-0.0837182068	 1.5890624642	-0.1551014628	-0.268218
C	 1.3821420279	 2.0000317813	 0.0465351298	-0.055774
N	 2.5371675149	 1.9616830142	-0.8852017714	-0.415699
C	 2.1876144398	 0.7538328315	-0.1438435961	 0.308041
C	 1.2523200153	-0.2569748379	-0.8181743222	-0.273268
C	 0.0117139592	 0.0432091298	 0.0224763534	 0.142987
O	 0.2877959317	-0.3983124101	 1.3574666106	-0.292833
C	 1.5045180895	-0.0079435062	 2.0148780545	-0.041368
C	 2.7710175458	 0.1576631912	 1.1116527866	-0.314696
H	-0.7192095525	 2.0600921631	 0.5993475621	 0.11034
H	-0.5050137642	 1.8285573061	-1.1391311499	 0.100308
H	 1.5857178612	 2.6493436808	 0.8924041076	 0.098258
H	 2.2593045836	 1.8574127679	-1.8590456867	 0.226436
H	 1.0925554129	-0.0403592873	-1.879571509	 0.089194
H	 1.5873205245	-1.2912530098	-0.7164569576	 0.102697
H	-0.9035162115	-0.4895037024	-0.2551391095	 0.069679
H	 1.3404081079	 0.9512315522	 2.5250648875	 0.098085
H	 1.6606653236	-0.7686898221	 2.7859140064	 0.104834
H	 3.2718431871	-0.7993027585	 0.9297798388	 0.099532
H	 3.4776854302	 0.8231153219	 1.6165069378	 0.111463
199.7646	260.7744	349.482	366.6053	407.0998	436.2739	481.1066	576.2679	633.7403	732.6656	754.3386	779.2317	826.0099	845.7264	887.6892	902.4141	925.7285	948.1197	988.2214	1002.987	1016.644	1038.9393	1061.601	1090.6684	1112.389	1125.0831	1177.5235	1189.1078	1225.7548	1241.2805	1268.2866	1275.844	1301.4445	1320.4796	1336.5107	1351.875	1370.524	1399.8251	1441.138	1470.1443	1485.9001	1498.9118	1510.0337	3002.5483	3033.6087	3040.385	3047.0929	3064.9021	3076.635	3096.8208	3099.5625	3114.0998	3150.7024	3479.2431
C1C2NC22CC1OCC2	C1[C@@H]2N[C@@]32C[C@H]1OCC3	
InChI=1S/C7H11NO/c1-2-9-5-3-6-7(1,4-5)8-6/h5-6,8H,1-4H2	InChI=1S/C7H11NO/c1-2-9-5-3-6-7(1,4-5)8-6/h5-6,8H,1-4H2/t5-,6-,7+/m0/s1
