16
gdb 80314	3.64789	1.2284	1.16603	1.3578	78.32	-0.2397	-0.0342	0.2055	1103.6501	0.123632	-400.709734	-400.701726	-400.700782	-400.742359	30.234	
C	-0.0608340612	 1.5622429502	 0.0198018563	-0.413941
C	 0.0803773626	 0.0584120422	 0.0475400493	-0.057934
C	 1.3660123285	-0.6704110033	-0.2133325931	 0.029029
O	 2.5666204319	 0.0663010106	-0.0371839847	-0.23827
C	 2.5972952498	 0.4029879398	 1.2903667109	 0.215566
N	 1.6484673203	-0.0173628886	 2.0393046139	-0.304001
C	 0.7397976042	-0.7253693709	 1.1800189327	-0.060037
C	 3.704286499	 1.192303858	 1.7033271661	 0.275493
C	 4.6441446373	 1.85942327	 2.0426877477	-0.357407
H	 0.7790917824	 2.0662235122	 0.5014286288	 0.139275
H	-0.1197809783	 1.9238252312	-1.0118750818	 0.12388
H	-0.9726659312	 1.8698707295	 0.5408985502	 0.126084
H	-0.7721668515	-0.4798817806	-0.3604495977	 0.099269
H	 1.4728056795	-1.4746107442	-0.9302285342	 0.112039
H	 0.2349143868	-1.5802483203	 1.6130704803	 0.103682
H	 5.4733828098	 2.4475607342	 2.3516376252	 0.207274
98.6332	120.761	165.3549	211.214	245.3113	380.6779	495.7157	539.0518	554.8879	639.7656	654.3586	677.955	696.7729	741.6497	759.8483	822.5893	890.2313	935.0382	991.6841	997.8122	1023.9522	1073.2272	1116.7101	1130.7658	1146.1892	1215.8657	1240.6183	1327.5695	1352.0883	1413.7877	1423.4174	1489.4504	1499.392	1652.0835	2250.4722	3043.9302	3103.4201	3127.4877	3142.3716	3182.2773	3194.0111	3499.8173
CC1C2OC(=NC12)C#C	C[C@H]1[C@H]2OC(=N[C@@H]12)C#C	
InChI=1S/C7H7NO/c1-3-5-8-6-4(2)7(6)9-5/h1,4,6-7H,2H3	InChI=1S/C7H7NO/c1-3-5-8-6-4(2)7(6)9-5/h1,4,6-7H,2H3/t4-,6+,7-/m1/s1
