19
gdb 122802	6.78554	0.50305	0.47325	3.3667	76.74	-0.2378	-0.0674	0.1704	2202.1261	0.157199	-456.346224	-456.335512	-456.334568	-456.383836	36.241	
O	-0.1635402926	 1.4568348978	-0.0982193395	-0.420138
C	-0.0074119706	 0.0509555505	 0.0055230675	-0.072038
C	-1.3979774245	-0.5695811361	-0.0397469565	-0.201317
C	-1.3631139342	-2.0888167653	 0.1003935386	-0.122453
N	-2.7043543285	-2.6443836337	 0.0462107014	-0.332494
C	-2.9119596623	-3.9920976607	-0.0332700014	 0.289127
N	-1.9654263783	-4.8381110707	-0.1916245838	-0.517236
C	-4.370202739	-4.3915573371	 0.0418034809	 0.107626
O	-4.7359858201	-5.5343864632	-0.0304887366	-0.234522
H	 0.7096854058	 1.8590832616	-0.0841710284	 0.288547
H	 0.6038934891	-0.3472774994	-0.8202402239	 0.093804
H	 0.4948729633	-0.2279743319	 0.9461924748	 0.090733
H	-1.995283741	-0.1267659277	 0.7683553842	 0.105481
H	-1.8805687933	-0.2916748699	-0.9833794336	 0.118633
H	-0.7856679546	-2.548638239	-0.7084746142	 0.139672
H	-0.8618579192	-2.3825784945	 1.0354474789	 0.112779
H	-3.4536614676	-2.0765314476	 0.4098180695	 0.241757
H	-2.3811536068	-5.7679137544	-0.2744096441	 0.233773
H	-5.0978614456	-3.5569724085	 0.1691582061	 0.078266
29.4722	60.1564	79.0073	111.5318	134.5201	211.0581	221.2125	262.7227	265.5952	336.7898	362.0374	449.9218	518.3487	576.2008	743.093	767.0337	864.8074	887.6228	937.5228	1015.7997	1024.8163	1059.7256	1072.3481	1106.568	1164.3369	1181.4129	1224.5148	1243.2172	1289.4497	1309.2687	1311.7644	1336.765	1402.4486	1435.6961	1466.078	1496.9113	1518.1622	1531.5205	1548.2655	1698.8778	1834.9385	2866.4198	2963.3768	2988.9679	2992.1408	3024.5188	3066.6959	3084.8998	3467.0835	3624.4517	3832.4551
OCCCNC(=N)C=O	OCCCNC(=N)C=O	
InChI=1S/C5H10N2O2/c6-5(4-9)7-2-1-3-8/h4,8H,1-3H2,(H2,6,7)	InChI=1S/C5H10N2O2/c6-5(4-9)7-2-1-3-8/h4,8H,1-3H2,(H2,6,7)
