12
gdb 24870	2.02009	2.01999	1.01002	0.0008	57.56	-0.2836	-0.0154	0.2681	1041.3649	0.080931	-506.08897	-506.081981	-506.081037	-506.120828	25.883	
O	 0.0031442245	-0.081584184	 0.0028427152	-0.364923
C	-0.0131789676	 1.1233459142	 0.0095943003	 0.503797
N	-1.1807243932	 1.874590227	 0.0290972692	-0.42979
C	-1.2851903837	 3.259180011	 0.037672174	 0.504092
O	-2.3367844952	 3.8474074997	 0.0548397611	-0.364896
N	-0.0508078152	 3.894859352	 0.0244141321	-0.429705
C	 1.2003478948	 3.2930912979	 0.0046149381	 0.503759
O	 2.2356083269	 3.9097624294	-0.0062041086	-0.364906
N	 1.1335843491	 1.9061648055	-0.0014913531	-0.429663
H	-2.0480745075	 1.3579667304	 0.0379079111	 0.290737
H	-0.0644638346	 4.9043396716	 0.0297361834	 0.29075
H	 2.0146071917	 1.4133402854	-0.0159355928	 0.290747
131.8335	152.442	153.6039	389.9733	390.0644	514.5494	514.6304	603.8906	604.7896	627.1481	667.0844	670.7173	762.8995	763.0614	768.9798	988.9332	1025.9683	1026.2907	1213.0182	1364.1557	1399.7226	1400.0666	1457.0847	1457.5171	1846.2348	1846.4216	1867.5086	3637.6044	3637.9173	3640.4193
O=C1NC(=O)NC(=O)N1	O=c1[nH]c(=O)[nH]c(=O)[nH]1	
InChI=1S/C3H3N3O3/c7-1-4-2(8)6-3(9)5-1/h(H3,4,5,6,7,8,9)	InChI=1S/C3H3N3O3/c7-1-4-2(8)6-3(9)5-1/h(H3,4,5,6,7,8,9)
