23
gdb 109380	2.40083	1.28417	0.9572	1.3707	88.44	-0.2329	0.026	0.2588	1339.7107	0.206379	-388.306306	-388.296872	-388.295928	-388.340346	36.068	
C	-0.2726142513	 1.5158208004	-0.0398111134	-0.372798
C	 0.1252357158	 0.0334432974	 0.0785897617	-0.282534
C	 0.7804464743	-0.5134666666	-1.1685059974	 0.335095
C	 2.0577011908	-0.9025517041	-1.1684119071	-0.191102
C	 2.7867452896	-1.3643687808	-2.3982650495	-0.122973
O	 2.080145394	-1.0982883651	-3.5932630225	-0.248427
C	 0.7163503907	-1.4501136676	-3.4844032823	-0.084509
C	-0.0292452611	-0.5867721873	-2.4563073543	-0.088471
C	-1.4498863094	-1.1397263662	-2.2564430255	-0.408171
H	 0.6029889147	 2.1371974687	-0.2526296581	 0.12103
H	-0.9979223509	 1.6785282809	-0.8433128315	 0.118982
H	-0.7245690714	 1.8716092918	 0.8912730509	 0.112512
H	 0.815181749	-0.0868036294	 0.9211116998	 0.09669
H	-0.7687125177	-0.5531631994	 0.3266195474	 0.102343
H	 2.6390631791	-0.8802484437	-0.2485967096	 0.07959
H	 3.7474998877	-0.8427954891	-2.4887725341	 0.113808
H	 3.0200829745	-2.4436801792	-2.3201416476	 0.092038
H	 0.283886233	-1.322181797	-4.4816491995	 0.103001
H	 0.6147919448	-2.5145107515	-3.2075927211	 0.081466
H	-0.1169131975	 0.4279312164	-2.8711868003	 0.088628
H	-1.4262013872	-2.1286435144	-1.7852895865	 0.118794
H	-2.0619056294	-0.4848116923	-1.6311008161	 0.121085
H	-1.958666082	-1.2409193118	-3.2212532132	 0.113923
87.4953	94.7257	169.7451	212.1914	243.9189	289.8066	299.6619	312.3387	368.0896	393.3288	454.0423	511.0137	626.8663	699.4508	748.5791	792.4093	838.6947	905.0324	916.0263	948.7139	969.5035	1015.5568	1033.7575	1063.6586	1087.0469	1098.3322	1121.3407	1137.94	1178.7497	1207.6438	1248.449	1279.9962	1306.5542	1313.8599	1332.6302	1357.0466	1377.0577	1384.9875	1406.5757	1410.568	1426.178	1480.9243	1487.4223	1495.8265	1499.4178	1501.419	1503.6555	1511.3064	1730.7089	2920.443	2949.9015	2997.5157	3021.7759	3032.8229	3036.6163	3043.655	3061.8127	3075.6112	3095.8662	3106.152	3108.8392	3115.0076	3143.5435
CCC1=CCOCC1C	CCC1=CCOC[C@H]1C	
InChI=1S/C8H14O/c1-3-8-4-5-9-6-7(8)2/h4,7H,3,5-6H2,1-2H3	InChI=1S/C8H14O/c1-3-8-4-5-9-6-7(8)2/h4,7H,3,5-6H2,1-2H3/t7-/m1/s1
