21
gdb 93854	2.21515	1.58916	1.1884	1.9869	73.88	-0.2433	0.0577	0.3011	1132.4961	0.180491	-461.366321	-461.356338	-461.355394	-461.400525	37.669	
C	-0.3749057277	 1.4697679941	 0.0107487814	-0.419324
C	 0.0014815123	 0.0022715643	 0.0692582608	 0.142281
O	 0.7693381632	-0.3379400128	-1.0872905635	-0.278468
C	 1.5431033042	-1.5052971833	-0.8101049344	-0.10816
C	 1.364468109	-1.8110351197	 0.6907096629	 0.041553
O	 2.5365037163	-2.2465396559	 1.3577534384	-0.441611
C	 0.8679138907	-0.462048488	 1.2577619736	 0.327331
C	 2.024207893	 0.486466757	 1.5799951968	-0.44452
O	 0.0185654509	-0.629921825	 2.38360947	-0.486172
H	 0.5111111604	 2.1043384049	-0.0692889482	 0.122091
H	-1.0090772998	 1.6599553264	-0.8594817316	 0.122633
H	-0.9316447794	 1.7443256245	 0.9116484883	 0.128998
H	-0.9226318876	-0.5998054633	 0.1019504086	 0.070747
H	 1.2122012437	-2.3357345574	-1.4488413376	 0.090872
H	 2.5995912807	-1.3025668622	-1.0261513715	 0.104879
H	 0.5503935976	-2.5330953565	 0.8422448263	 0.079222
H	 2.7114371975	-3.1574082484	 1.1038961054	 0.289518
H	 2.5988287847	 0.7335780818	 0.6829500661	 0.129739
H	 1.63537897	 1.4108834409	 2.0133779865	 0.120838
H	 2.7074766719	 0.0199110099	 2.2946237685	 0.125625
H	 0.5683352884	-0.9266570612	 3.1168739331	 0.281929
83.746	111.6146	204.9133	224.8148	243.1174	251.2338	258.9563	296.6009	303.6475	330.3264	397.4293	460.0936	497.2906	555.929	591.1104	654.4516	729.8962	856.533	881.729	941.6392	984.7871	1039.0797	1047.1269	1072.5071	1083.0229	1105.837	1157.335	1160.4919	1171.1219	1210.7154	1218.4621	1259.251	1326.077	1344.5882	1365.2497	1385.2228	1393.8526	1405.5247	1419.9026	1446.3622	1482.9485	1492.2167	1497.5932	1507.2838	1525.8696	2955.4626	2998.9481	3009.7562	3046.7125	3048.7429	3050.0424	3119.8034	3121.8323	3127.3498	3131.0478	3808.5399	3830.4406
CC1OCC(O)C1(C)O	C[C@H]1OC[C@@H](O)[C@]1(C)O	
InChI=1S/C6H12O3/c1-4-6(2,8)5(7)3-9-4/h4-5,7-8H,3H2,1-2H3	InChI=1S/C6H12O3/c1-4-6(2,8)5(7)3-9-4/h4-5,7-8H,3H2,1-2H3/t4-,5-,6-/m1/s1
