21
gdb 106668	2.74298	1.17382	0.97875	0.7736	79.56	-0.2417	0.0711	0.3128	1296.5309	0.180648	-424.191619	-424.181756	-424.180812	-424.226123	36.991	
C	-0.1778727756	 1.5833449608	 0.0615745919	-0.416668
C	 0.0442437481	 0.0772923479	 0.0039470928	-0.018353
C	 1.1313174045	-0.5158900218	-0.9642179329	-0.30966
C	 1.7579776704	-1.2748123814	 0.2138641832	 0.331629
C	 2.2814726645	-2.6723762859	 0.1849484622	-0.202667
O	 3.5846512096	-2.6649396335	-0.3931713765	-0.422795
C	 2.2121269982	-0.2643711087	 1.2489545303	-0.390289
C	 0.7570285761	-0.6290430807	 1.1668815615	 0.321623
O	 0.0888007923	-1.2385911436	 2.219103323	-0.468592
H	 0.7574068747	 2.1223679122	 0.2465268142	 0.113417
H	-0.5934885586	 1.9569765301	-0.8806047512	 0.115492
H	-0.8804741592	 1.8483434525	 0.8599397552	 0.111391
H	-0.9086434051	-0.432364671	-0.1725184704	 0.079558
H	 0.7091879778	-1.1684152074	-1.7325639494	 0.099684
H	 1.7854670519	 0.2171085211	-1.4473117851	 0.097287
H	 2.3007389625	-3.0715808573	 1.211651204	 0.09068
H	 1.5994814127	-3.3102600656	-0.4005721165	 0.08364
H	 3.8757634617	-3.5783578184	-0.4750403792	 0.283458
H	 2.7293920388	-0.7007268838	 2.0982087996	 0.111475
H	 2.5865448578	 0.7103675979	 0.9452867571	 0.103934
H	 0.1231261369	-0.6524844136	 2.9823415563	 0.285755
70.1096	108.6061	157.8114	208.3031	225.3908	246.1386	261.8061	302.8347	328.3883	364.4728	431.5649	450.7167	559.2274	645.8617	700.8056	762.9631	819.2796	856.4242	907.7709	929.7529	966.5354	982.1057	1016.0961	1058.0118	1061.4233	1095.7929	1111.1843	1164.1762	1173.7324	1210.9634	1222.8905	1228.8233	1256.0708	1280.609	1321.9764	1344.6013	1372.2994	1404.1341	1415.3628	1466.3047	1483.7438	1496.8503	1498.3442	1511.608	1518.8034	2962.3182	2992.1284	3026.6309	3046.185	3051.5913	3090.4393	3096.7289	3103.3904	3106.4837	3197.2215	3802.5786	3819.128
CC1CC2(CO)CC12O	C[C@H]1C[C@@]2(CO)C[C@@]12O	
InChI=1S/C7H12O2/c1-5-2-6(4-8)3-7(5,6)9/h5,8-9H,2-4H2,1H3	InChI=1S/C7H12O2/c1-5-2-6(4-8)3-7(5,6)9/h5,8-9H,2-4H2,1H3/t5-,6-,7+/m0/s1
