18
gdb 19251	2.81409	2.14906	1.65234	2.6239	71.49	-0.2379	-0.0202	0.2177	863.4848	0.153207	-347.783803	-347.775958	-347.775014	-347.816233	29.194	
C	-0.2184041002	 1.5184438433	 0.1510170263	-0.40359
C	 0.081800388	 0.0283056516	 0.0416114653	 0.004119
C	 0.6980773034	-0.5221044112	-1.2535556412	-0.049454
C	 2.129742271	-0.096435774	-1.4162008658	-0.281752
C	 1.8091654216	-1.2222913049	-0.4729147336	-0.071355
C	 1.2455546181	-0.6567076807	 0.8590117515	-0.111364
C	 2.2659586384	 0.1256876068	 1.6372828176	 0.147884
O	 2.4822023805	 1.3094432549	 1.5374767801	-0.255923
H	 0.6520608344	 2.1325916523	-0.0805235355	 0.139224
H	-1.0272983891	 1.7820606834	-0.5402983953	 0.105352
H	-0.5448221454	 1.7819520537	 1.1623571659	 0.113823
H	-0.8307904046	-0.5334126795	 0.2669294769	 0.078785
H	 0.1264017004	-0.9089552502	-2.0888786109	 0.086055
H	 2.5961569548	-0.4034356962	-2.3467598243	 0.113425
H	 2.4813377946	 0.8574986326	-1.0342047136	 0.134848
H	 2.2115557908	-2.2201359069	-0.593100606	 0.09238
H	 0.8674542412	-1.4616738698	 1.4968888572	 0.083907
H	 2.8907939523	-0.5036942254	 2.3156409054	 0.073635
52.2901	153.9157	182.09	224.0728	249.0035	326.1409	401.4945	513.0867	623.5432	715.8024	755.7864	786.6642	792.2443	909.1928	912.6221	930.9298	986.7654	1018.731	1035.6992	1046.8015	1066.2169	1097.1	1100.3064	1114.2333	1154.936	1181.8474	1216.8676	1265.7618	1283.0606	1356.0712	1365.2174	1371.3881	1415.0184	1430.9035	1485.1347	1489.4681	1498.3199	1815.1	2842.2806	3033.6095	3042.8946	3063.2031	3093.6888	3124.2863	3149.4207	3176.407	3189.9416	3210.337
CC1C2CC2C1C=O	C[C@H]1[C@H]2C[C@H]2[C@H]1C=O	
InChI=1S/C7H10O/c1-4-5-2-6(5)7(4)3-8/h3-7H,2H2,1H3	InChI=1S/C7H10O/c1-4-5-2-6(5)7(4)3-8/h3-7H,2H2,1H3/t4-,5+,6+,7-/m0/s1
