18
gdb 47395	2.77454	1.52993	1.18604	3.522	72.25	-0.2497	0.0156	0.2654	1064.3652	0.149464	-439.0817	-439.073881	-439.072937	-439.114613	29.237	
N	 0.1081611551	 1.1990794017	-0.4257397971	-0.542742
C	 0.0647955006	-0.0150127027	-0.0830095643	 0.356527
O	 1.1427168294	-0.757375132	 0.3068611566	-0.24262
C	 0.7304894733	-2.0908194678	 0.659941045	-0.094591
C	-0.6260858332	-2.2856987505	-0.0260265764	-0.313291
C	-1.1866797728	-0.8612710391	-0.0368748735	 0.192455
C	-2.2242241939	-0.4877573571	 1.0634453685	-0.107838
O	-3.2700496454	-0.3399010745	 0.0911789495	-0.271253
C	-2.3392693247	-0.5099014266	-0.9978768264	-0.128761
H	 1.0590322	 1.5649774824	-0.3596314104	 0.224838
H	 1.5053442578	-2.7813443981	 0.3206056286	 0.125479
H	 0.6532391959	-2.1600599692	 1.7522364548	 0.116226
H	-0.48165612	-2.6364332888	-1.054019014	 0.119486
H	-1.2657936805	-3.0044396502	 0.4905183499	 0.119196
H	-2.4442898467	-1.2740421366	 1.797053559	 0.098477
H	-2.0074555552	 0.4531048329	 1.5829977328	 0.117428
H	-2.174833133	 0.4211237803	-1.5506791431	 0.132358
H	-2.6472177867	-1.3094506142	-1.6825791393	 0.098626
78.7833	87.1719	183.4771	219.9307	292.0954	351.6877	417.632	535.6763	658.8159	680.5273	696.5364	827.6448	848.4894	890.6623	920.547	949.0442	965.9102	979.6462	995.56	1011.9518	1047.6408	1077.6527	1150.2215	1161.8477	1166.5941	1168.7388	1226.8162	1248.7737	1249.406	1304.3856	1311.2274	1346.6186	1377.9813	1409.741	1488.0876	1502.7783	1525.065	1527.7966	1773.9213	3006.9235	3022.0087	3029.3136	3047.8716	3061.7222	3081.4807	3106.1128	3114.9885	3479.6547
N=C1OCCC11COC1	[NH][C]1OCCC21COC2	
InChI=1S/C6H9NO2/c7-5-6(1-2-9-5)3-8-4-6/h7H,1-4H2	InChI=1S/C6H9NO2/c7-5-6(1-2-9-5)3-8-4-6/h7H,1-4H2
