16
gdb 48260	3.24534	0.91042	0.75781	5.2317	75.57	-0.2668	-0.042	0.2248	1438.554	0.120726	-400.733299	-400.723416	-400.722472	-400.76956	33.766	
O	-0.0631691069	-0.0763206906	 0.001122518	-0.223606
C	-0.0018754376	 1.1208251643	-0.0139386205	 0.180806
C	 1.2911368697	 1.9279141646	 0.0050812573	-0.077759
C	 1.3689796188	 2.8244200888	-1.2570966807	-0.38689
C	 1.3913945121	 2.0588843612	-2.4958545697	 0.281129
C	 1.4053931437	 1.4037386349	-3.5023700219	-0.401776
C	 1.34086784	 2.8215030241	 1.2684420465	-0.369742
C	 1.4125191027	 2.0608555838	 2.5140140348	 0.265717
N	 1.4716422908	 1.4584134903	 3.4977926211	-0.289761
H	-0.9227036614	 1.7526936528	-0.0444117756	 0.077815
H	 2.1236744309	 1.2206434682	 0.0128437199	 0.132478
H	 0.5140636765	 3.5151015805	-1.2631411293	 0.139436
H	 2.2663797122	 3.4519250009	-1.1892635793	 0.144105
H	 1.4168788022	 0.8276566556	-4.3947049173	 0.207834
H	 2.2129498638	 3.4827352424	 1.2141765182	 0.162226
H	 0.4572508627	 3.4713509581	 1.3053509386	 0.15799
49.5472	52.2888	79.6112	94.269	179.3057	280.0242	311.782	318.9052	340.1946	390.7771	444.1282	547.0098	586.6188	640.2497	657.8045	828.4542	873.5379	907.56	975.2378	994.9984	1044.5608	1089.1546	1096.4805	1204.6799	1224.2191	1277.0963	1342.2596	1351.6836	1361.345	1425.8368	1461.7282	1475.6958	1850.9206	2245.4567	2367.244	2841.173	3013.0296	3035.5836	3049.5024	3075.3731	3102.3962	3504.8031
O=CC(CC#C)CC#N	O=C[C@@H](CC#C)CC#N	
InChI=1S/C7H7NO/c1-2-3-7(6-9)4-5-8/h1,6-7H,3-4H2	InChI=1S/C7H7NO/c1-2-3-7(6-9)4-5-8/h1,6-7H,3-4H2/t7-/m0/s1
