14
gdb 61140	5.08688	0.59552	0.54379	2.9147	74.76	-0.2863	-0.0837	0.2026	1864.5442	0.097905	-436.663623	-436.653823	-436.652879	-436.700238	32.254	
O	-0.0609229845	 1.4558198213	-0.0153112501	-0.394648
C	-0.0027580624	 0.045534916	 0.0108138818	-0.067526
C	 0.6649230066	-0.5399312706	-1.2664750584	-0.355055
C	-0.005648999	-0.0930518497	-2.4838299051	 0.269706
N	-0.5389832314	 0.2483187065	-3.4495902939	-0.292394
C	 0.6721374999	-0.4770353461	 1.2001730079	 0.068216
C	 1.2600545895	-0.9051096001	 2.1644441005	 0.070951
C	 1.9502117251	-1.3914102375	 3.3365700908	 0.022844
O	 2.1744684198	-2.5586006728	 3.5525808085	-0.21756
H	 0.828295354	 1.8037226178	 0.1189980283	 0.294543
H	-1.0482737125	-0.2835424159	 0.027283807	 0.157327
H	 1.716987876	-0.235526723	-1.2990851949	 0.158424
H	 0.6478188429	-1.6337201897	-1.2204821259	 0.17404
H	 2.2663180459	-0.5952861663	 4.0394819836	 0.111133
39.2253	55.8782	71.1858	126.2011	168.6635	212.3236	267.9556	310.6852	366.7129	395.8411	453.3853	541.4763	565.4387	649.6617	833.5733	871.5895	957.9781	1007.0934	1019.9207	1080.3662	1140.0208	1199.709	1271.9756	1311.7	1351.6909	1417.6211	1420.6545	1458.7453	1772.371	2326.022	2370.0019	2932.5212	3048.4026	3058.2457	3098.0016	3802.3733
OC(CC#N)C#CC=O	O[C@@H](CC#N)C#CC=O	
InChI=1S/C6H5NO2/c7-4-3-6(9)2-1-5-8/h5-6,9H,3H2	InChI=1S/C6H5NO2/c7-4-3-6(9)2-1-5-8/h5-6,9H,3H2/t6-/m1/s1
