19
gdb 60333	4.41125	0.67965	0.60306	3.8252	76.6	-0.2346	-0.0647	0.1699	1801.0958	0.157199	-456.356265	-456.345988	-456.345044	-456.392424	36.415	
C	 0.0619959299	 1.512910324	 0.0628075234	-0.407877
C	-0.0594024707	-0.0038587383	-0.0323101142	 0.108435
O	 0.74906555	-0.6665362012	 0.9458144802	-0.434269
C	-1.5110613908	-0.4792520587	 0.0712013862	-0.136582
N	-1.5432911968	-1.9257202361	 0.0655418035	-0.328173
C	-2.7100866055	-2.6213716979	-0.0550824355	 0.287659
N	-3.8365171976	-2.0679812858	-0.3063089868	-0.521502
C	-2.5429410889	-4.1185209594	 0.0977176785	 0.107067
O	-3.4613262732	-4.8885744307	 0.0007944025	-0.236302
H	 1.1100693053	 1.8143595765	-0.0086340568	 0.131495
H	-0.4970239856	 2.0027970238	-0.7404180898	 0.129567
H	-0.3380668287	 1.8782022676	 1.0168792606	 0.114035
H	 0.3480131907	-0.3477683916	-0.9900452655	 0.102937
H	 0.53242625	-0.2913725774	 1.8075995853	 0.282788
H	-1.977953155	-0.0738463646	 0.984899092	 0.099296
H	-2.1064956632	-0.1094751958	-0.7690845973	 0.139106
H	-0.7488145377	-2.3667475668	 0.5058221555	 0.247956
H	-4.5382744441	-2.8051713741	-0.397533506	 0.232597
H	-1.5078413383	-4.4722805836	 0.308306414	 0.081767
43.5314	70.3588	101.1896	146.5981	219.0519	233.6885	257.2268	266.8491	341.1846	352.1822	446.7188	470.1428	501.6847	537.8418	591.9088	737.7809	844.7444	869.3298	918.4453	931.752	961.9481	1025.9652	1063.3294	1077.1775	1128.375	1169.8145	1191.9577	1221.6571	1290.6894	1318.8071	1344.477	1396.6036	1408.1031	1425.9169	1434.4477	1489.6891	1495.0141	1506.2332	1542.3196	1699.621	1833.9074	2873.7854	2965.1636	3028.9311	3051.8269	3084.5856	3101.4092	3125.1257	3466.4247	3607.3544	3789.4452
CC(O)CNC(=N)C=O	C[C@@H](O)CNC(=N)C=O	
InChI=1S/C5H10N2O2/c1-4(9)2-7-5(6)3-8/h3-4,9H,2H2,1H3,(H2,6,7)	InChI=1S/C5H10N2O2/c1-4(9)2-7-5(6)3-8/h3-4,9H,2H2,1H3,(H2,6,7)/t4-/m1/s1
