15
gdb 47220	2.16291	1.73854	1.23954	4.2473	72.29	-0.2589	-0.0118	0.2471	1032.2769	0.111929	-420.622181	-420.614036	-420.613092	-420.655947	29.727	
O	-0.174579982	 0.5415556991	-1.2895889226	-0.322782
C	-0.0427459237	 1.3260752746	-0.3941155614	 0.422813
O	-1.0816722615	 1.604861402	 0.4177086429	-0.225074
C	-1.0035922371	 2.5757718587	 1.4720235327	-0.111486
C	 0.0231480225	 3.6423827846	 1.2510574485	-0.074121
C	 1.0877935224	 3.4167879443	 0.4943943666	-0.071055
C	 1.2932704348	 2.0505547287	-0.1264038187	-0.340255
C	 2.1394349005	 1.2124181601	 0.7259522422	 0.337556
C	 2.8225292881	 0.5358709095	 1.4465478736	-0.475861
H	-2.0087097117	 3.0035869358	 1.5354116522	 0.137729
H	-0.8169363113	 2.0445548594	 2.4162752519	 0.139953
H	-0.1388834367	 4.5929203002	 1.7490182868	 0.114068
H	 1.8529254076	 4.1666881666	 0.3263261119	 0.117927
H	 1.7653308636	 2.1364267739	-1.1107285967	 0.144396
H	 3.4316947945	-0.0699788275	 2.07092288	 0.206191
29.7052	125.0305	133.5491	181.7468	359.676	388.4193	448.2204	467.547	554.2668	588.9683	632.4388	641.8744	701.3499	708.9351	802.9134	890.0948	943.033	962.3618	988.5069	1029.0321	1037.0688	1114.5028	1152.4671	1237.5793	1258.571	1283.1323	1298.7029	1396.0282	1423.2191	1498.7529	1737.6415	1852.1845	2234.793	3009.7985	3057.4216	3079.5073	3178.2928	3200.4739	3503.1452
O=C1OCC=CC1C#C	O=C1OCC=C[C@H]1C#C	
InChI=1S/C7H6O2/c1-2-6-4-3-5-9-7(6)8/h1,3-4,6H,5H2	InChI=1S/C7H6O2/c1-2-6-4-3-5-9-7(6)8/h1,3-4,6H,5H2/t6-/m1/s1
