21
gdb 102075	2.12916	1.15093	0.80217	4.262	80.18	-0.2497	-0.035	0.2147	1460.4788	0.177855	-424.249076	-424.237837	-424.236893	-424.287663	38.096	
C	-0.0552179092	 1.6273316619	 0.0990873404	-0.392835
C	-0.0216589204	 0.0961787463	 0.0289033759	-0.207014
C	 0.704844217	-0.4411991419	-1.2227129379	-0.068503
C	 2.1578049183	 0.0080188062	-1.177179012	 0.165844
O	 2.6944345776	 0.7071555511	-1.9961572907	-0.253182
C	 0.6598802559	-1.9912218038	-1.3361053073	-0.083268
C	-0.7715689293	-2.5542928535	-1.4199270528	-0.422838
C	 1.406562578	-2.4389941817	-2.584780025	 0.163613
O	 2.3343135795	-3.2044664035	-2.594425162	-0.248188
H	 0.9507222943	 2.0577584689	 0.1255620816	 0.133443
H	-0.5683273333	 2.0496897688	-0.7711649548	 0.125771
H	-0.5849429252	 1.9612432351	 0.9959498794	 0.119931
H	 0.466233818	-0.3090819193	 0.9257147519	 0.105776
H	-1.0464635057	-0.2858607586	 0.0396398808	 0.111265
H	 0.2615128224	 0.0012887561	-2.1236331518	 0.094077
H	 2.7171338087	-0.3688584008	-0.2873838812	 0.078914
H	 1.1803916565	-2.4374257707	-0.4806294366	 0.098912
H	-1.3159807523	-2.1274377272	-2.269613282	 0.126913
H	-0.7456016077	-3.6407900157	-1.5467287113	 0.136886
H	-1.3403073038	-2.3416483966	-0.5123564536	 0.1347
H	 1.0045553706	-2.0080966111	-3.5322487009	 0.079782
31.3358	39.4531	47.0222	82.4793	164.5712	191.1932	217.8947	244.1244	291.2508	313.8914	347.1271	391.2759	414.4381	492.5847	594.1845	771.6332	873.2557	884.9373	911.6688	961.212	963.8672	1004.1998	1036.0797	1069.251	1122.65	1137.9222	1160.486	1168.0292	1246.1294	1265.1474	1308.5011	1335.1821	1355.849	1370.0437	1405.9399	1419.8016	1424.6104	1428.2661	1485.7595	1495.5352	1499.9001	1502.5529	1504.9399	1830.3755	1838.1635	2846.8174	2856.2184	3021.3326	3036.3087	3038.1217	3039.6175	3051.3917	3079.818	3106.8986	3108.7092	3113.3764	3125.8556
CCC(C=O)C(C)C=O	CC[C@@H](C=O)[C@@H](C)C=O	
InChI=1S/C7H12O2/c1-3-7(5-9)6(2)4-8/h4-7H,3H2,1-2H3	InChI=1S/C7H12O2/c1-3-7(5-9)6(2)4-8/h4-7H,3H2,1-2H3/t6-,7-/m0/s1
