19
gdb 39766	2.95641	1.85061	1.50279	1.8428	78.17	-0.2551	0.086	0.3411	937.4339	0.161492	-385.825257	-385.818619	-385.817674	-385.855797	28.534	
C	-0.027970217	 1.5435503896	-0.0738511201	-0.311542
C	 1.3016103705	 0.8259441972	-0.0932147277	-0.037825
C	 0.0013092119	 0.03287337	-0.0848255445	-0.037824
C	 0.1248774038	-0.7187522838	-1.4249908784	-0.145295
C	 1.6282241333	-1.1854073211	-1.3485766504	-0.220716
C	 1.9006919237	 0.3643348599	-1.4364483977	-0.145296
C	 0.692020127	 0.3387012786	-2.3772746621	 0.526395
C	 0.654547229	 0.3847223222	-3.8336571532	-0.309806
O	 0.0364461514	 1.4067174746	-3.0241723615	-0.305347
H	-0.2958252512	 1.9927818399	 0.8779850682	 0.102381
H	-0.3721151679	 2.0986873457	-0.9358574582	 0.149427
H	 1.9531632677	 0.8713998877	 0.7716876616	 0.08578
H	-0.3291762738	-0.5206223682	 0.7864178983	 0.08578
H	-0.6815453633	-1.3887033972	-1.7208996879	 0.067911
H	 1.9350171319	-1.6786456861	-0.4243783512	 0.097755
H	 1.9646984338	-1.7463537439	-2.2242847055	 0.096618
H	 2.8626312396	 0.7729220859	-1.7437645805	 0.067911
H	 1.5305677243	 0.7082858443	-4.3945520592	 0.116846
H	-0.0393440847	-0.2492254455	-4.3844144001	 0.116846
202.8151	241.0023	291.748	369.9429	430.8739	477.6657	548.2486	660.6009	673.3426	765.9576	798.0184	804.0603	824.7803	870.833	896.0743	900.671	933.0624	973.247	998.6206	1013.5549	1023.3372	1060.2463	1074.0928	1082.2822	1083.0296	1095.889	1113.7449	1118.0527	1161.9912	1166.3716	1192.6124	1213.7583	1225.6219	1259.1837	1260.0925	1321.4352	1364.8986	1450.5722	1490.0664	1495.4935	1548.3144	3062.7592	3079.8537	3122.9095	3125.0031	3130.3081	3137.4934	3165.3022	3170.1093	3179.7664	3237.2048
C1C2C1C1CC2C11CO1	C1[C@H]2[C@@H]1[C@@H]1C[C@H]2[C@]21CO2	
InChI=1S/C8H10O/c1-4-5(1)7-2-6(4)8(7)3-9-8/h4-7H,1-3H2	InChI=1S/C8H10O/c1-4-5(1)7-2-6(4)8(7)3-9-8/h4-7H,1-3H2/t4-,5+,6+,7-,8-
