15
gdb 34830	5.18381	1.09795	1.01542	4.8133	71.25	-0.2709	0.0141	0.2851	1138.9259	0.112689	-416.703653	-416.696368	-416.695424	-416.735441	27.921	
N	-0.0873862843	-1.1513207802	-0.1284646458	-0.316367
C	-0.0407671226	 0.00094921	-0.0547953616	 0.275578
C	-0.0179943915	 1.4513704575	-0.0015681852	-0.17826
C	 0.11460393	 2.1221956016	 1.4038064412	-0.023576
O	 1.5038301601	 1.6189693417	 1.4826282029	-0.293599
C	 1.3816560531	 2.1446433233	 0.1095129355	-0.052601
C	 0.6693839331	 3.3718254453	 0.7004619844	 0.426466
N	-0.008634203	 4.5118014511	 0.1418179334	-0.390719
C	 1.1075285044	 4.6995909835	 1.1219759627	-0.338912
H	-0.7400969876	 1.8989726077	-0.6885975174	 0.135161
H	-0.5272747792	 2.0080730284	 2.2746982078	 0.126438
H	 2.2390799999	 2.0545942477	-0.556215609	 0.120981
H	 0.3105508777	 4.7103232172	-0.8037498923	 0.241557
H	 0.8006613535	 5.1051038706	 2.0811670891	 0.138461
H	 2.0621443463	 5.0662809247	 0.7545041641	 0.129392
118.3508	138.8828	220.1272	276.3461	337.9724	416.1661	469.3687	549.0387	596.98	720.378	764.2641	781.9048	864.6286	867.2922	897.2145	916.7929	956.3562	980.0533	1015.9444	1068.3315	1100.4445	1117.3691	1121.8367	1140.9638	1166.5731	1188.7438	1239.4109	1253.2144	1256.9601	1359.3094	1459.7435	1537.7299	2362.9886	3093.961	3116.5674	3136.5207	3154.9943	3203.8143	3497.1109
N#CC1C2OC1C21NC1	N#C[C@H]1[C@H]2O[C@@H]1[C@]12NC1	
InChI=1S/C6H6N2O/c7-1-3-4-6(2-8-6)5(3)9-4/h3-5,8H,2H2	InChI=1S/C6H6N2O/c7-1-3-4-6(2-8-6)5(3)9-4/h3-5,8H,2H2/t3-,4+,5-,6-
