19
gdb 71603	2.15864	1.96117	1.64046	1.4639	74.39	-0.2328	0.0794	0.3122	960.4925	0.158334	-422.974359	-422.966352	-422.965408	-423.006309	31.652	
C	 0.013233785	 1.5165580597	-0.0126846704	-0.512407
C	 0.0522768402	 0.011187109	-0.0298623318	 0.250831
C	 0.8483864967	-0.736836598	-1.0902083615	-0.147553
O	 0.5988246284	-2.1157395294	-0.7406226974	-0.279342
C	-0.2308577232	-1.9984460244	 0.3864880885	 0.060584
C	 0.1970642836	-0.814043588	 1.2919542566	-0.024754
O	-1.1972442882	-0.5577871594	 1.6590492284	-0.351153
C	-1.2577862859	-0.8376897039	 0.2141306353	 0.357369
C	-2.5783504248	-0.7893970331	-0.4841910746	-0.535373
H	 1.0163272184	 1.941411445	 0.1039331706	 0.119871
H	-0.4087998535	 1.9153032933	-0.9420889053	 0.118425
H	-0.6050201558	 1.8584172154	 0.8221487669	 0.1409
H	 0.4971953419	-0.5416573801	-2.1115034662	 0.105172
H	 1.9256136231	-0.5316777039	-1.0480039397	 0.106023
H	-0.5184343197	-2.9636591041	 0.7978734739	 0.099063
H	 0.9542319462	-0.7483923639	 2.073304261	 0.087781
H	-2.9994340462	 0.2208491824	-0.4629118162	 0.1328
H	-2.4608249661	-1.0950664562	-1.5288142529	 0.133816
H	-3.2892178001	-1.4698731503	-0.0054511553	 0.137948
165.684	184.9773	209.2292	237.0861	256.1545	271.6838	403.4781	465.9422	486.2016	638.55	669.5232	690.0833	721.5589	760.9609	791.4956	877.8908	923.3469	938.9339	960.4951	970.4801	1003.951	1061.3188	1073.9464	1113.7556	1137.4325	1160.245	1178.1637	1215.6795	1230.2857	1243.2803	1264.2456	1302.7594	1356.6148	1399.3775	1406.0451	1420.3661	1474.7935	1487.0149	1494.5141	1498.5911	1519.5595	3014.4535	3030.1804	3036.4709	3051.9144	3089.1662	3108.1824	3112.512	3114.7945	3119.7336	3157.3699
CC12COC3C1OC23C	C[C@@]12CO[C@H]3[C@@H]1O[C@@]23C	
InChI=1S/C7H10O2/c1-6-3-8-5-4(6)9-7(5,6)2/h4-5H,3H2,1-2H3	InChI=1S/C7H10O2/c1-6-3-8-5-4(6)9-7(5,6)2/h4-5H,3H2,1-2H3/t4-,5-,6+,7+/m0/s1
