23
gdb 103948	3.53671	1.02023	0.95666	1.0401	86.75	-0.2406	0.0861	0.3267	1372.1678	0.203827	-388.261622	-388.251903	-388.250958	-388.295916	37.407	
C	-0.2685810027	 1.6802514122	 0.3823666802	-0.252045
O	-0.0461254683	 0.2920778995	 0.4917310799	-0.288902
C	-1.0645083486	-0.5361965338	-0.0378258259	 0.443387
C	-2.3838411679	-0.4019602415	 0.7194841416	-0.450398
C	-1.2324319069	-0.5095344403	-1.5974837683	-0.36388
C	-1.0936923503	-2.0368553491	-1.5815719929	 0.396723
C	-2.1019985088	-3.010328034	-2.1220413253	-0.317267
C	-0.7040100814	-2.9513247406	-2.7002186383	-0.334155
C	-0.5648954977	-2.0032786599	-0.143120741	-0.356536
H	 0.6520517139	 2.1745155376	 0.7031680755	 0.124607
H	-0.4846214022	 1.9830486059	-0.6532588132	 0.105175
H	-1.0904532254	 2.0309248985	 1.0225607417	 0.106269
H	-2.8309939145	 0.5886955478	 0.5900589053	 0.112974
H	-3.1054412094	-1.1386313188	 0.3541323291	 0.123026
H	-2.2243717611	-0.5747704518	 1.78880582	 0.119701
H	-2.1616239158	-0.0920644823	-1.9964724459	 0.091588
H	-0.3791628486	-0.0176984409	-2.0748658811	 0.101552
H	-2.3658114022	-3.8689968001	-1.5120009591	 0.109344
H	-2.9187620125	-2.623691353	-2.7240290204	 0.10845
H	-0.5792837628	-2.5254285744	-3.6910566597	 0.109196
H	-0.0252933842	-3.7695643589	-2.4801033777	 0.110501
H	 0.5268853702	-2.0326646256	-0.0905411909	 0.10764
H	-0.9831948725	-2.7187509565	 0.5707738464	 0.09305
64.0771	101.3683	174.5406	208.9131	234.438	273.9011	310.9494	322.4866	345.888	354.8024	432.9124	483.2847	554.0387	692.0122	774.1869	816.1441	838.4229	883.1882	894.0422	911.7431	914.9018	937.582	976.9611	999.2089	1050.0071	1074.5885	1086.6272	1104.9449	1147.7292	1161.0099	1182.2733	1186.4495	1188.1693	1223.0323	1231.3119	1264.0946	1283.345	1295.4519	1384.8958	1401.3493	1463.5003	1463.7667	1475.4702	1483.3257	1484.7884	1492.5159	1503.7383	1507.0702	1511.2291	2984.6241	3030.7788	3037.654	3041.8444	3050.8444	3097.0183	3104.1555	3106.8705	3108.9491	3112.5375	3117.014	3121.993	3194.6445	3209.9608
COC1(C)CC2(CC2)C1	COC1(C)CC2(CC2)C1	
InChI=1S/C8H14O/c1-7(9-2)5-8(6-7)3-4-8/h3-6H2,1-2H3	InChI=1S/C8H14O/c1-7(9-2)5-8(6-7)3-4-8/h3-6H2,1-2H3
