17
gdb 48273	2.23125	1.14382	0.83552	3.3482	73.93	-0.2432	-0.0578	0.1854	1369.7443	0.134177	-417.991384	-417.982146	-417.981202	-418.026847	32.593	
O	-0.7935017218	 1.4884499776	-0.6813052242	-0.233794
C	 0.0943969375	 1.2879156638	 0.1003006004	 0.162735
C	 1.4315942711	 2.046197358	 0.030823344	-0.197644
N	 1.3181690334	 3.2088395574	-0.8130015353	-0.303927
C	 2.5201714559	 3.6126440293	-1.4899271232	 0.051454
C	 3.1250669416	 2.7893072547	-2.6130063914	-0.273286
C	 2.4352378235	 4.1062712169	-2.8997921954	-0.284523
C	 1.8797674384	 2.3716828155	 1.3972743764	 0.289398
N	 2.2275187334	 2.6010582705	 2.4748272325	-0.311068
H	 0.0285886967	 0.5266322694	 0.9012977681	 0.127115
H	 2.1516655864	 1.2954295339	-0.3588124948	 0.137235
H	 0.524008793	 3.0872744816	-1.4319732082	 0.2453
H	 3.2226199098	 4.1238156149	-0.836726813	 0.111588
H	 4.204742507	 2.7371258093	-2.7000110839	 0.12029
H	 2.604335029	 1.8855371891	-2.9136010969	 0.112428
H	 1.4669935628	 4.0661262721	-3.3892012787	 0.121403
H	 3.0356435725	 4.963076976	-3.1826019562	 0.125295
40.1644	63.9005	105.4358	162.2655	169.031	273.4744	296.0635	376.1218	444.7539	511.6418	580.3606	637.3731	672.7417	764.0042	804.2273	816.7032	863.7724	953.5682	982.3811	1001.3379	1044.4188	1046.9798	1081.3766	1135.9272	1164.5253	1194.2017	1205.3693	1253.6247	1267.4719	1318.9547	1385.2831	1408.8355	1459.809	1488.8063	1506.7987	1837.496	2358.5234	2884.256	2956.6808	3127.6049	3134.7815	3140.2935	3210.3453	3225.3042	3539.8358
O=CC(NC1CC1)C#N	O=C[C@@H](NC1CC1)C#N	
InChI=1S/C6H8N2O/c7-3-6(4-9)8-5-1-2-5/h4-6,8H,1-2H2	InChI=1S/C6H8N2O/c7-3-6(4-9)8-5-1-2-5/h4-6,8H,1-2H2/t6-/m0/s1
