16
gdb 8326	5.80106	1.3104	1.30399	2.9852	64.89	-0.2367	-0.0236	0.2131	965.6573	0.129177	-383.729147	-383.721831	-383.720887	-383.761496	27.178	
O	 0.2013885086	 0.3904456601	-1.0591635101	-0.290948
C	 0.0630132479	 1.2911784565	-0.2842531468	 0.404804
C	-1.1543272494	 2.0523621257	 0.262784836	-0.411142
C	-0.1708404859	 3.1368320064	 0.7872788448	 0.444332
C	-0.2241427903	 4.5902461287	 0.2713159758	-0.348676
C	-0.393284869	 4.958531079	 1.7578049147	-0.072134
O	-0.3323006382	 3.568558878	 2.1473053177	-0.311358
C	 1.0359572603	 2.2075124627	 0.473560517	-0.411142
H	-1.9240745742	 2.34641082	-0.4554684356	 0.127145
H	-1.6262114011	 1.5165901848	 1.0941442147	 0.145546
H	 0.6921807432	 4.9488685775	-0.2008725825	 0.117036
H	-1.0751527463	 4.8236762788	-0.3709559489	 0.117036
H	 0.4213633518	 5.5415938306	 2.2021253367	 0.108405
H	-1.3507569301	 5.416053458	 2.0315843061	 0.108405
H	 1.4116371006	 1.7317784292	 1.3864823718	 0.145546
H	 1.8792521322	 2.6158225541	-0.0894670114	 0.127145
59.4508	60.6576	264.1719	343.9224	350.4229	405.7696	469.4864	510.2538	649.2543	716.3165	782.8646	837.7096	864.1325	881.9035	930.1032	975.9375	983.1715	1026.3634	1061.0901	1108.815	1138.1894	1157.1737	1170.596	1196.2383	1222.3992	1230.1941	1255.0778	1299.6986	1358.666	1411.5828	1431.8087	1486.4861	1530.7115	1897.6514	3026.2489	3048.7308	3054.6594	3067.7884	3077.7364	3112.7588	3113.326	3132.5904
O=C1CC2(CCO2)C1	O=C1CC2(CCO2)C1	
InChI=1S/C6H8O2/c7-5-3-6(4-5)1-2-8-6/h1-4H2	InChI=1S/C6H8O2/c7-5-3-6(4-5)1-2-8-6/h1-4H2
