14
gdb 125039	2.35343	1.91483	1.06315	6.1054	69.5	-0.2456	-0.0849	0.1607	1042.3645	0.099479	-470.0005	-469.99216	-469.991216	-470.033507	30.405	
C	 0.001221869	 1.5452808883	 0.0241199309	-0.527328
C	 0.0015155398	 0.0445480109	 0.0102738507	 0.012903
C	-1.1388929867	-0.7039017693	 0.043587747	 0.373688
N	-2.4024956732	-0.2053138662	 0.1206535659	-0.557806
N	-1.1205153273	-2.1016704248	 0.0349151597	-0.1955
N	-0.0614052501	-2.7469786307	-0.0032439839	 0.064323
O	 1.1536553217	-2.0651447671	-0.0361159653	-0.254531
C	 1.2561977518	-0.6599516023	-0.0328762112	 0.435652
O	 2.3649028426	-0.1953139659	-0.0664837611	-0.345183
H	 1.0288180381	 1.9093878694	 0.0268151907	 0.173945
H	-0.5048508765	 1.9589921186	-0.8582577746	 0.131146
H	-0.510535446	 1.9374590988	 0.9116722065	 0.137554
H	-2.5664507974	 0.7618827386	-0.0990454623	 0.273462
H	-3.1570857157	-0.8516977385	-0.0434510028	 0.277675
88.9552	118.6942	157.8144	263.7135	270.0037	322.9957	352.04	463.694	484.7959	520.1834	537.0633	538.0454	659.745	714.3444	779.7844	812.657	906.818	934.5789	1012.0497	1053.5343	1062.6381	1219.8728	1312.5996	1382.3509	1418.1578	1489.7016	1493.1992	1574.5585	1627.8682	1687.8807	1836.5427	3014.2967	3062.4862	3150.7289	3608.7292	3732.9199
CC1=C(N)N=NOC1=O	C[C]1C(=N[N]OC1=O)N	
InChI=1S/C4H5N3O2/c1-2-3(5)6-7-9-4(2)8/h5H2,1H3	InChI=1S/C4H5N3O2/c1-2-3(5)6-7-9-4(2)8/h5H2,1H3
