17
gdb 17394	4.82435	1.69592	1.58196	0.8365	67.81	-0.2301	0.0699	0.3	857.6928	0.14321	-363.79328	-363.786489	-363.785545	-363.824399	26.358	
C	 0.01140674	 1.3702876017	-0.3076505322	-0.079627
C	 1.4521008224	 1.5542818352	 0.2052925885	-0.343117
C	 1.2825991258	 0.1332053619	 0.7667605495	 0.494617
C	 2.229967292	-1.0789656993	 0.4818771991	-0.298451
C	 2.2966231933	-1.328984445	 1.9919642309	-0.038602
N	 2.8292417834	-0.0773512605	 2.5842281009	-0.340402
C	 1.380944128	-0.1892747041	 2.2627021668	-0.139543
O	-0.0358166373	 0.0159385803	 0.1976277464	-0.32636
H	-0.7472255246	 2.0061673743	 0.1649367564	 0.101147
H	-0.1261949285	 1.4023519268	-1.3944698103	 0.103683
H	 2.211045328	 1.6477226681	-0.573111365	 0.113076
H	 1.6088461698	 2.3321675612	 0.9537872983	 0.116485
H	 1.6719699244	-1.8477734023	-0.057620758	 0.118187
H	 3.1805925577	-0.8726286463	-0.0168208915	 0.101618
H	 2.399701305	-2.2750512559	 2.5082826749	 0.094076
H	 2.9182949537	-0.2310809876	 3.5887889277	 0.229342
H	 0.6157099068	-0.0510167685	 3.0169458976	 0.093868
87.1027	133.8395	248.1171	376.6388	401.777	454.0049	541.7585	752.2092	777.1885	821.5142	838.2634	859.7144	872.3041	910.3245	930.3246	961.0882	980.7162	998.3343	1020.3646	1073.3974	1087.51	1134.6013	1149.5667	1169.3707	1178.6277	1191.3805	1213.0919	1238.3607	1269.5921	1301.1295	1335.632	1354.2822	1378.4281	1461.2149	1486.4566	1533.0825	3019.4598	3060.771	3060.9082	3083.4299	3127.2164	3137.5459	3185.3615	3199.3123	3466.7391
C1CC2(CC3NC23)O1	C1C[C@]2(C[C@H]3N[C@@H]23)O1	
InChI=1S/C6H9NO/c1-2-8-6(1)3-4-5(6)7-4/h4-5,7H,1-3H2	InChI=1S/C6H9NO/c1-2-8-6(1)3-4-5(6)7-4/h4-5,7H,1-3H2/t4-,5-,6-/m1/s1
