13
gdb 129046	2.64255	1.80009	1.16863	5.1229	72.91	-0.2454	-0.0886	0.1568	979.7283	0.090389	-448.886648	-448.879332	-448.878387	-448.919072	26.865	
N	-0.0347638342	 1.3399082075	 0.3790025653	-0.485161
C	-0.0470805394	 0.0877316541	 0.1230910195	 0.22033
C	-1.2867771506	-0.655159839	 0.0217531031	-0.112562
C	-1.4246017913	-1.982683207	-0.1513569942	 0.012974
N	-0.4657871503	-2.9799454382	-0.084091957	-0.231321
N	 0.7949479583	-2.9502663322	 0.442985861	-0.050803
N	 1.5045207817	-1.9253334155	 0.4172537128	-0.167003
C	 1.2227775631	-0.6690862545	-0.2176141927	 0.291281
O	 2.0825325896	-0.1838705844	-0.9063715328	-0.274358
H	 0.9183937464	 1.7020826022	 0.2896555513	 0.240983
H	-2.1883128565	-0.0539417772	-0.0009003488	 0.131948
H	-2.4123915457	-2.3987494892	-0.3195224083	 0.141243
H	-0.8138890212	-3.9261507866	-0.0442266192	 0.282449
59.3484	101.7305	278.4058	323.6575	334.5965	395.0723	493.7394	513.069	598.6091	662.7996	667.5732	741.9566	823.3985	846.7044	879.9898	921.9901	964.7934	975.6979	1001.3244	1111.7058	1161.4901	1292.4704	1366.9092	1444.1762	1458.8012	1623.9339	1663.5809	1695.1352	1804.113	3188.4342	3209.996	3445.4838	3625.4044
N=C1C=CNN=NC1=O	[NH]C1=C[CH]NN=NC1=O	
InChI=1S/C4H4N4O/c5-3-1-2-6-8-7-4(3)9/h1-2H,(H2,5,6,7,9)	InChI=1S/C4H4N4O/c5-3-1-2-6-8-7-4(3)9/h1-2H,(H2,5,6,7,9)
