20
gdb 106218	3.41983	1.47801	1.25698	1.54	82.62	-0.2107	0.0052	0.2159	1077.2242	0.172566	-365.979085	-365.971444	-365.9705	-366.011003	30.892	
C	 0.2224186338	 1.4509975601	-0.191205938	-0.378242
C	-0.1387421752	 0.0045491287	 0.1663321321	-0.289202
C	 0.6310667896	-0.5140966463	 1.3618541858	 0.321204
C	 0.5342729677	 0.1782986369	 2.6831566102	-0.140611
C	 1.651732612	-0.0480197967	 3.3737638858	-0.088647
C	 2.4897033407	-1.0225560807	 2.5865362118	-0.062325
C	 1.7804898157	-2.4185517236	 2.6195827486	-0.248362
C	 1.0651231501	-1.9625307873	 1.3606152457	-0.088451
N	 2.0574291196	-0.849814721	 1.123144452	-0.16996
H	 1.2926022307	 1.5327300224	-0.4004220513	 0.136817
H	-0.3299247684	 1.7855168038	-1.0744195906	 0.108929
H	-0.0109886123	 2.1372391525	 0.629394753	 0.113848
H	-1.2135323386	-0.0792750993	 0.374320176	 0.096124
H	 0.0633382737	-0.6458580434	-0.6918952122	 0.10417
H	-0.3329366253	 0.7442755152	 2.9988953176	 0.102561
H	 1.8703574516	 0.2579109045	 4.3891760333	 0.102783
H	 3.5675619102	-0.9977896619	 2.7411443173	 0.079587
H	 2.4823817126	-3.2203440596	 2.3790632817	 0.114207
H	 1.2011779111	-2.6862471894	 3.5082246126	 0.097856
H	 0.7463642204	-2.6234141249	 0.5585452788	 0.087715
91.6596	160.7076	212.7114	309.5757	345.7607	362.9921	437.0885	548.4854	606.3934	719.6101	733.1918	753.7471	780.8004	811.0176	846.8848	868.8701	898.059	910.2451	937.6571	965.0817	985.2027	996.7154	1038.2922	1064.761	1074.5801	1099.5344	1109.5779	1141.0179	1209.6697	1224.3336	1246.2173	1259.6247	1292.6679	1337.4698	1359.4271	1377.7839	1384.1697	1407.8486	1477.9677	1487.5101	1497.1761	1508.3945	1659.4519	3023.7435	3039.6877	3050.9888	3065.9428	3106.2835	3110.0766	3120.5031	3120.9188	3140.9791	3201.7813	3226.6804
CCC12C=CC3CC1N23	CC[C@@]12C=C[C@H]3C[C@@H]1N23	
InChI=1S/C8H11N/c1-2-8-4-3-6-5-7(8)9(6)8/h3-4,6-7H,2,5H2,1H3	InChI=1S/C8H11N/c1-2-8-4-3-6-5-7(8)9(6)8/h3-4,6-7H,2,5H2,1H3/t6-,7-,8+,9?/m0/s1
