24
gdb 100124	3.44237	0.88233	0.86889	0.6461	86.6	-0.2326	0.0836	0.3162	1511.198	0.214364	-405.509439	-405.498537	-405.497593	-405.545569	40.021	
C	 0.7982513168	 1.5769363444	 0.1076725077	-0.241895
O	 0.4693522206	 0.2083228641	 0.1556849836	-0.279966
C	 0.2064570648	-0.4596900608	-1.0882580414	 0.356454
C	-0.9403306754	 0.203702052	-1.8621803722	-0.425809
C	 1.4768225083	-0.5406182132	-1.9461695756	-0.421803
C	-0.2260586183	-1.8587372535	-0.602075263	-0.164765
N	-0.5153669751	-2.7735182255	-1.7004243368	-0.071542
C	 0.5013073149	-3.7705075949	-2.0255521531	-0.2186
C	-0.7521731763	-4.1629445378	-1.3278377365	-0.218299
H	 1.7128353003	 1.7769692858	-0.4685176423	 0.102927
H	-0.0116599144	 2.1938763568	-0.3059041153	 0.105503
H	 0.972528767	 1.8885872119	 1.1411847975	 0.123787
H	-0.6369119809	 1.1516775493	-2.3159084854	 0.106255
H	-1.2725835906	-0.4673581136	-2.6575919936	 0.137295
H	-1.7867339059	 0.3933658514	-1.1943405245	 0.114404
H	 2.2946121937	-0.9956558695	-1.3786477186	 0.111495
H	 1.2926490984	-1.1420311622	-2.8398217331	 0.130524
H	 1.7993742589	 0.4503208546	-2.2784496682	 0.110708
H	 0.5543992534	-2.2442530577	 0.0756779806	 0.085686
H	-1.1383003273	-1.7362989472	-0.0080415441	 0.104768
H	 0.637296578	-3.9849062079	-3.0818843558	 0.115313
H	 1.4178807692	-3.7718264965	-1.4378327377	 0.112123
H	-0.6704227527	-4.4284246585	-0.2747837735	 0.110265
H	-1.5510886475	-4.6680488315	-1.8635983388	 0.115174
59.9521	71.5759	97.2811	144.1838	177.4481	245.3997	258.1577	278.8519	305.3423	323.1173	366.0526	393.6417	430.8012	457.8635	561.4189	747.3164	775.3743	839.9133	867.8646	896.7189	909.0864	956.2681	992.8964	1023.0681	1037.6853	1047.5184	1111.7369	1118.5206	1120.6125	1160.9973	1175.1412	1180.6374	1197.7533	1212.4715	1222.5466	1287.8202	1306.554	1326.5117	1375.7584	1388.4091	1409.8895	1474.4924	1479.2596	1482.4116	1484.3961	1493.4979	1497.9097	1504.5175	1508.5838	1516.9993	1522.2347	2959.4366	2990.7997	3035.1146	3043.5039	3044.3428	3065.1207	3092.6473	3097.3938	3103.3115	3107.7541	3111.6932	3124.7634	3131.3786	3174.2387	3189.0552
COC(C)(C)CN1CC1	COC(C)(C)CN1CC1	
InChI=1S/C7H15NO/c1-7(2,9-3)6-8-4-5-8/h4-6H2,1-3H3	InChI=1S/C7H15NO/c1-7(2,9-3)6-8-4-5-8/h4-6H2,1-3H3
