18
gdb 46000	5.03559	0.92971	0.84101	4.999	81.73	-0.236	-0.0201	0.2159	1364.4953	0.148942	-401.988153	-401.979796	-401.978852	-402.022308	30.89	
O	-0.0568444061	-0.0351152984	-0.3398353146	-0.392779
C	 0.003514066	 1.1606620308	-0.1431941575	 0.439868
N	-1.060538384	 1.9923098702	 0.1531719618	-0.348915
C	-0.6811493251	 3.3768736113	 0.2810156298	-0.26348
C	 0.8233176258	 3.3270992089	 0.0780990075	 0.362035
C	 1.1887678497	 2.0589980983	-0.159743165	-0.36635
C	 1.6930156094	 4.5100164896	 0.1435300019	-0.087919
C	 1.2271817025	 5.8761909873	-0.3368943324	-0.269706
C	 1.4352313675	 5.6417797375	 1.1275016669	-0.269321
H	-2.0089548174	 1.6594448758	 0.1538086413	 0.251126
H	-1.1647458027	 4.0134593645	-0.4746054006	 0.123339
H	-0.9420275371	 3.7894678356	 1.2663557584	 0.123483
H	 2.1864696358	 1.6878397257	-0.347164014	 0.112529
H	 2.7388566525	 4.2859796726	-0.0396913153	 0.094975
H	 1.9465032	 6.4820795346	-0.8758826936	 0.124804
H	 0.2103727309	 5.9646551869	-0.7024973851	 0.120424
H	 0.5612420179	 5.5694748931	 1.7648116823	 0.120865
H	 2.3002031843	 6.0834071158	 1.6089841182	 0.12502
45.5234	53.6187	152.6177	178.7731	307.1526	344.8472	397.2743	513.756	539.7691	572.4908	703.6806	737.9941	785.4723	826.0502	851.4848	862.4173	918.4936	920.9982	945.9509	1012.6452	1031.8996	1058.5269	1079.689	1089.8647	1134.0088	1175.6594	1197.2106	1207.9548	1210.794	1230.2962	1328.3378	1351.1261	1390.7274	1427.6442	1471.911	1499.2795	1505.6031	1676.2566	1821.2865	2994.3024	3015.4457	3138.8325	3142.9831	3160.9634	3217.8543	3233.8682	3237.861	3676.9697
O=C1NCC(=C1)C1CC1	O=C1NCC(=C1)C1CC1	
InChI=1S/C7H9NO/c9-7-3-6(4-8-7)5-1-2-5/h3,5H,1-2,4H2,(H,8,9)	InChI=1S/C7H9NO/c9-7-3-6(4-8-7)5-1-2-5/h3,5H,1-2,4H2,(H,8,9)
