17
gdb 76019	2.69971	1.19168	1.07637	4.7937	81.43	-0.2501	-0.0042	0.2459	1191.5574	0.132671	-380.818698	-380.808917	-380.807972	-380.853017	35.278	
C	-0.2786713444	 1.4602962302	-0.0113038226	-0.325033
N	 0.0394605108	 0.0380745329	 0.0526462273	-0.117431
C	 1.3811808794	-0.4367941251	-0.2976081443	-0.260546
C	 2.4433300934	 0.4623465572	-0.6526542584	 0.346119
C	 3.3271939842	 1.2056319948	-0.9895663669	-0.429011
C	 0.8735413908	-0.4769225372	 1.13904397	 0.121759
C	 1.4852494391	 0.4062971589	 2.21257787	-0.466975
C	 0.4334196556	-1.7704604033	 1.6351832597	 0.283494
N	 0.1093974877	-2.8010675497	 2.0465431553	-0.340569
H	 0.5681505368	 2.132435778	 0.1719471031	 0.123893
H	-0.6700380446	 1.6707456174	-1.0104040944	 0.141497
H	-1.0682946089	 1.670720728	 0.7149665335	 0.137396
H	 1.3771847309	-1.3718677454	-0.853345434	 0.137631
H	 4.1147461463	 1.8538214363	-1.2868591825	 0.210004
H	 1.9552648723	 1.2904370489	 1.7822238617	 0.14521
H	 0.7214490442	 0.7182765513	 2.9309339809	 0.142541
H	 2.2507759165	-0.1532239132	 2.7568326415	 0.150021
109.1932	126.9817	145.1226	156.8223	170.5037	182.9269	256.3234	326.2138	352.6579	426.1047	470.687	561.5609	573.2198	613.5216	627.7787	670.0499	690.4742	753.2077	864.133	935.8936	1042.8529	1052.2609	1102.5147	1140.9176	1147.2188	1169.8474	1249.4178	1334.5958	1373.4848	1410.545	1451.3597	1480.2509	1483.3838	1494.552	1506.3737	2231.5371	2355.3074	3022.4299	3053.8501	3095.7314	3119.0159	3122.0211	3131.7925	3152.3676	3499.0494
CN1C(C#C)C1(C)C#N	CN1[C@@H](C#C)[C@]1(C)C#N	
InChI=1S/C7H8N2/c1-4-6-7(2,5-8)9(6)3/h1,6H,2-3H3	InChI=1S/C7H8N2/c1-4-6-7(2,5-8)9(6)3/h1,6H,2-3H3/t6-,7-,9?/m0/s1
