22
gdb 113269	4.34159	0.75369	0.7173	2.8155	84.49	-0.2327	-0.0215	0.2112	1656.7383	0.190695	-404.334487	-404.323848	-404.322903	-404.371119	37.928	
C	-0.3027827567	 1.5865156255	-0.4348071684	-0.372935
C	 0.0237714008	 0.19598759	 0.1059981674	-0.117392
N	-1.200161782	-0.5912141548	 0.2254826979	-0.112376
C	-1.5893340371	-1.436101124	-0.8982521874	-0.296267
C	-1.152111306	-2.0453330501	 0.3981769256	 0.302524
C	 0.1679552772	-2.7937778244	 0.4641952533	-0.46296
C	-2.2105580788	-2.5777378459	 1.3613288518	-0.324868
C	-2.7144938689	-3.9479142564	 0.9632589454	 0.16175
O	-2.7161355125	-4.9200168412	 1.6742924638	-0.24116
H	 0.6018151555	 2.1993976798	-0.4954078022	 0.11194
H	-0.7360355479	 1.522139915	-1.4383954862	 0.118561
H	-1.0254816089	 2.0903857346	 0.2126550586	 0.12731
H	 0.7791515187	-0.2780287672	-0.5417916644	 0.083749
H	 0.4663164765	 0.2793862954	 1.1058552845	 0.104734
H	-2.6382379329	-1.4049262495	-1.1850845351	 0.110324
H	-0.8974468005	-1.519404477	-1.7365913536	 0.106359
H	 0.8774292162	-2.4607417941	-0.2952940501	 0.123207
H	 0.6354090078	-2.6722347879	 1.4481867251	 0.127535
H	 0.003961051	-3.8663792117	 0.31596842	 0.133822
H	-1.8275974052	-2.6288988661	 2.3857651085	 0.115355
H	-3.0606636452	-1.8844158767	 1.3453199353	 0.127499
H	-3.1019368511	-4.0047506233	-0.0811955098	 0.073289
44.9004	56.9042	81.5733	142.9919	166.2875	215.3766	237.8578	281.2118	305.8686	364.7616	376.0396	445.4901	493.7688	577.4827	701.3972	763.1048	812.6417	824.2139	900.9236	935.7107	963.6574	971.0389	1030.7672	1047.4052	1081.7935	1103.8889	1109.6393	1125.1063	1168.1931	1191.7909	1210.329	1276.8052	1306.7554	1311.9643	1380.168	1386.8837	1408.9569	1422.468	1428.0643	1458.0915	1487.1488	1489.0324	1494.3711	1498.0343	1506.9013	1518.2834	1832.1977	2856.9252	2962.961	3033.5441	3036.2939	3039.0555	3049.1323	3080.0039	3091.6972	3094.2708	3108.0596	3121.4193	3131.2835	3162.4972
CCN1CC1(C)CC=O	CCN1C[C@]1(C)CC=O	
InChI=1S/C7H13NO/c1-3-8-6-7(8,2)4-5-9/h5H,3-4,6H2,1-2H3	InChI=1S/C7H13NO/c1-3-8-6-7(8,2)4-5-9/h5H,3-4,6H2,1-2H3/t7-,8?/m0/s1
