21
gdb 105804	2.37132	1.43972	1.20915	1.362	82.45	-0.2004	0.0725	0.2729	1164.9578	0.181702	-387.013566	-387.004673	-387.003729	-387.046844	34.848	
C	-0.1770003777	 1.525428837	-0.0140122609	-0.37276
C	 0.0947160006	 0.0140217931	-0.0054463897	-0.287954
C	 0.7760218246	-0.4569159834	-1.2632766035	 0.328161
C	 0.0299353092	-0.9550557497	-2.455553811	 0.028361
O	 0.0911125077	-0.397888162	-3.7422957601	-0.419977
C	 1.0072116312	-1.8971803763	-1.8019824017	-0.204328
C	 2.5129157676	-1.5774038873	-1.9760917631	-0.058212
C	 2.8320810357	-0.4001983882	-2.8633027794	-0.306233
C	 2.292212479	-0.1640898638	-1.4768881505	-0.10698
H	 0.7519223488	 2.0923347848	-0.1353832111	 0.120738
H	-0.840308539	 1.7988069223	-0.8406980302	 0.12422
H	-0.645963318	 1.8477287621	 0.9209293392	 0.108325
H	 0.7177129046	-0.2417988717	 0.8625624847	 0.095845
H	-0.8483395154	-0.5313417173	 0.1226505166	 0.093475
H	-0.9923270608	-1.2242719524	-2.1714928935	 0.084717
H	-0.0144248473	-1.1180751121	-4.3740323344	 0.284279
H	 0.6698570347	-2.8335249374	-1.3707853364	 0.08065
H	 3.2732419752	-2.2790470905	-1.6583778409	 0.086286
H	 3.898465945	-0.2039188296	-2.9445039963	 0.102228
H	 2.2539264022	-0.1645020438	-3.7436617348	 0.135484
H	 2.8574517723	 0.3666433863	-0.720858223	 0.083675
79.645	133.3166	198.4879	204.5027	269.0586	294.1408	314.7109	358.2708	407.5448	499.0669	586.573	678.6585	698.7314	762.3389	771.1975	787.2194	834.5674	894.6597	908.4304	942.7105	977.3609	985.0576	1010.3575	1025.6822	1039.0798	1063.5916	1079.615	1097.26	1103.8927	1171.6335	1191.6446	1220.7222	1257.2234	1287.6655	1289.801	1311.9036	1349.2137	1359.4861	1372.469	1409.2161	1477.3907	1481.9196	1490.3303	1497.6779	1506.5871	3011.2848	3034.7555	3045.4159	3052.8351	3103.6207	3108.0869	3129.1148	3164.3904	3181.4604	3194.7416	3254.7708	3796.8014
CCC12C(O)C1C1CC21	CC[C@]12[C@@H](O)[C@H]1[C@H]1C[C@@H]21	
InChI=1S/C8H12O/c1-2-8-5-3-4(5)6(8)7(8)9/h4-7,9H,2-3H2,1H3	InChI=1S/C8H12O/c1-2-8-5-3-4(5)6(8)7(8)9/h4-7,9H,2-3H2,1H3/t4-,5+,6+,7-,8+/m0/s1
