21
gdb 112821	2.47914	1.13323	0.86487	2.1577	75.21	-0.2407	0.0684	0.3091	1382.0054	0.181017	-461.328534	-461.318437	-461.317493	-461.363932	36.651	
C	-0.054816017	 1.3811897371	-0.292088457	-0.249461
O	-0.04177633	 0.0035553478	 0.0436517556	-0.262397
C	-1.3353860332	-0.5755637691	 0.0815718433	 0.04953
C	-1.6702691998	-1.2858060357	-1.2758075503	 0.139505
O	-1.0078306876	-0.8095565621	-2.4166017771	-0.435359
C	-1.2170929873	-2.6337891801	-0.6475516778	-0.275005
C	-1.3038580788	-1.9721891936	 0.7559129182	 0.004172
C	-0.2061718288	-2.2565902515	 1.7614816061	-0.091644
O	-0.3214999135	-3.6241559509	 2.1356570999	-0.425344
H	 0.9845974506	 1.7192996338	-0.2971702327	 0.125861
H	-0.497853867	 1.5556038911	-1.2804179819	 0.127423
H	-0.614921955	 1.9641563881	 0.4539716539	 0.11153
H	-2.060538519	 0.1506231284	 0.4715795299	 0.058417
H	-2.740778841	-1.267211117	-1.4977615337	 0.087957
H	-0.0855373485	-0.6956842703	-2.1546466236	 0.28323
H	-1.8322900613	-3.5148843583	-0.8367847868	 0.105514
H	-0.1821611037	-2.8650374624	-0.9199655579	 0.098963
H	-2.2721518476	-2.1768435025	 1.2235214573	 0.082084
H	 0.772643718	-2.0426215512	 1.311003433	 0.095972
H	-0.3172507241	-1.5922168188	 2.6340724197	 0.083314
H	 0.4198663444	-3.8402972929	 2.7084839518	 0.285739
67.0448	86.7875	115.9063	147.5379	183.8585	245.814	259.6855	280.1318	341.1785	399.433	422.9389	460.8393	483.2501	645.2813	710.7036	778.9981	840.8129	906.2344	942.0093	956.7312	1048.8089	1058.8287	1081.6791	1085.1456	1125.8313	1145.4031	1166.9151	1182.7733	1190.5926	1214.8862	1237.9593	1254.625	1267.1284	1275.6299	1301.2446	1321.5931	1364.711	1381.8146	1439.719	1459.1782	1478.3324	1480.7782	1487.4563	1515.9182	1521.9325	2968.5594	2991.0394	3011.9398	3022.6652	3055.2374	3057.7224	3064.3357	3077.2749	3115.4938	3122.8544	3776.8118	3829.4919
COC1C(O)CC1CO	CO[C@H]1[C@@H](O)C[C@H]1CO	
InChI=1S/C6H12O3/c1-9-6-4(3-7)2-5(6)8/h4-8H,2-3H2,1H3	InChI=1S/C6H12O3/c1-9-6-4(3-7)2-5(6)8/h4-8H,2-3H2,1H3/t4-,5-,6+/m0/s1
