14
gdb 61696	2.20709	1.25782	1.03508	4.0036	70.11	-0.2937	-0.0306	0.2631	1185.9268	0.096451	-436.666439	-436.656939	-436.655995	-436.700941	33.111	
C	-0.0701513123	 1.6149174928	-0.0227669935	-0.401453
C	 0.0142934185	 0.0758819847	 0.0188060193	 0.013372
O	 0.6893328737	-0.3457012361	 1.2277679883	-0.219375
C	 2.0428981108	-0.2317256446	 1.3088001571	 0.175692
O	 2.6213753287	-0.4539189173	 2.3255476741	-0.255659
C	-1.3206272139	-0.520901214	 0.0645898994	 0.341764
C	-2.4305193832	-0.9739886288	 0.0888302387	-0.407203
C	 0.7186962804	-0.4259908367	-1.1878750039	 0.27334
N	 1.2667275906	-0.7875108964	-2.1381552923	-0.321173
H	 0.9319956088	 2.0472659152	-0.0739890743	 0.144051
H	-0.6417101722	 1.9368997762	-0.8953601849	 0.158814
H	-0.5694047168	 1.9566612191	 0.8855999846	 0.160495
H	 2.5227272076	 0.0586362182	 0.3590203554	 0.115213
H	-3.4088354708	-1.3891843123	 0.1140329621	 0.222122
84.7117	123.0329	127.8266	149.4271	188.1372	222.2668	247.9968	318.0123	391.1849	470.5694	476.1384	527.561	575.4691	629.7361	664.8438	698.2204	771.9927	943.9121	947.2058	1039.8436	1074.2085	1120.7083	1161.0099	1232.0474	1405.959	1433.7389	1481.0049	1484.4737	1872.6745	2255.2258	2358.3206	3004.0454	3058.9611	3143.8632	3155.6302	3497.0308
CC(OC=O)(C#C)C#N	C[C@@](OC=O)(C#C)C#N	
InChI=1S/C6H5NO2/c1-3-6(2,4-7)9-5-8/h1,5H,2H3	InChI=1S/C6H5NO2/c1-3-6(2,4-7)9-5-8/h1,5H,2H3/t6-/m1/s1
