17
gdb 37907	3.12244	2.17349	2.03315	1.298	76.42	-0.212	-0.0358	0.1762	782.9804	0.138278	-384.578459	-384.572762	-384.571817	-384.608062	25.092	
C	 0.0098467378	 1.598528496	 0.091001575	-0.259787
C	 1.5163844169	 1.845744061	-0.0292214796	-0.066944
C	 2.1046725772	 0.7734107316	-0.5858226708	 0.025491
C	 2.7876778004	-0.312236266	 0.3012044018	 0.029369
O	 2.0513561347	-0.2639951174	 1.5665948565	-0.28176
C	 0.8959880207	-0.8687185705	 0.9382446904	 0.075181
C	 0.0004516901	 0.0529721095	-0.0520637707	-0.049981
C	 1.0796376593	-0.2333338067	-1.1212814649	-0.091594
C	 1.7545506364	-1.3365100861	-0.2717256998	-0.07795
H	-0.337079771	 1.9555994243	 1.068327032	 0.11286
H	-0.6305607392	 2.0733183095	-0.666260323	 0.107566
H	 2.0192321205	 2.5367060894	 0.6400668584	 0.105253
H	 3.8597714998	-0.4384293322	 0.4501352717	 0.085488
H	 0.3520559914	-1.5042164124	 1.6378397205	 0.084647
H	-0.988184192	-0.4028269566	-0.1846715149	 0.058275
H	 0.8632350734	-0.3039330469	-2.1871074065	 0.067349
H	 1.9714760135	-2.3641129267	-0.5517929761	 0.076536
235.8295	327.9548	426.358	506.803	587.6899	690.5022	705.7236	731.9339	761.7154	807.1374	825.4265	843.5634	857.8035	878.4109	897.4658	915.7168	942.5549	969.4012	973.7405	1001.7237	1024.9884	1051.4266	1117.4952	1145.2169	1149.9502	1170.5168	1182.1855	1198.1423	1233.6126	1243.7835	1258.9588	1282.4493	1289.6503	1319.1166	1323.7357	1467.9778	1599.6695	3000.2926	3039.3768	3053.7139	3105.6575	3107.2535	3115.9311	3150.0662	3178.5996
C1C=C2C3OC4C1C2C34	C1[CH][C]2[C@H]3O[C@H]4[C@@H]1[C@@H]2[C@@H]34	
InChI=1S/C8H8O/c1-2-4-5-3(1)7-6(5)8(4)9-7/h1,4-8H,2H2	InChI=1S/C8H8O/c1-2-4-5-3(1)7-6(5)8(4)9-7/h1,4-8H,2H2/t4-,5+,6-,7+,8-/m0/s1
