18
gdb 32868	3.74683	0.97008	0.89906	2.2226	74.99	-0.2001	0.01	0.21	1356.8572	0.148982	-435.284227	-435.275136	-435.274191	-435.319231	32.917	
C	 1.4969563271	 0.5454368731	-0.8514368556	-0.315821
N	 0.221818744	 0.4037124886	-0.1546684055	-0.270233
C	-0.7112764583	-0.5202448973	-0.7969723814	-0.273835
C	-0.2465543626	-1.9439414799	-0.8986981532	 0.384928
N	 0.0436589184	-2.6276871103	-1.9651415665	-0.341669
C	 0.4506487808	-3.868662054	-1.4945911227	 0.258122
N	 0.7714269398	-4.8779862789	-2.3944396764	-0.597349
C	 0.3921349228	-3.8668496612	-0.1361920208	-0.127948
O	-0.0616067461	-2.6219488715	 0.2532797595	-0.181194
H	 2.0504882231	-0.3962151669	-0.9999615834	 0.107
H	 1.3199915703	 0.9828197152	-1.8403745454	 0.125436
H	 2.1351304827	 1.2344429358	-0.2908150978	 0.11886
H	 0.3849548268	 0.0975024251	 0.7989410621	 0.224892
H	-1.6544248318	-0.4902202203	-0.2393581799	 0.122342
H	-0.9148230231	-0.1744483277	-1.8145870453	 0.134779
H	 1.0556129981	-4.5002875534	-3.2882781466	 0.25495
H	 1.4473300029	-5.5443473895	-2.0487380157	 0.247344
H	 0.5979437452	-4.576172007	 0.6446505047	 0.129395
25.0702	83.6699	139.7365	221.4066	234.7574	260.9113	309.65	351.3673	425.4847	476.7996	628.1342	640.9014	652.9507	727.0937	737.4422	758.0623	813.1361	918.4758	963.9771	997.4325	1026.5572	1101.8378	1116.7549	1136.0451	1156.6943	1180.7044	1242.3899	1304.7213	1351.832	1367.0611	1398.9344	1455.249	1465.3195	1487.8672	1495.1177	1518.9994	1594.2958	1634.4233	1674.8443	2970.7628	3041.9524	3061.1008	3102.0862	3106.7862	3302.9568	3523.9962	3555.5056	3654.2301
CNCC1=NC(N)=CO1	CNCc1nc(N)co1	
InChI=1S/C5H9N3O/c1-7-2-5-8-4(6)3-9-5/h3,7H,2,6H2,1H3	InChI=1S/C5H9N3O/c1-7-2-5-8-4(6)3-9-5/h3,7H,2,6H2,1H3
