18
gdb 105830	2.39045	1.47886	1.17327	2.5136	73.47	-0.2609	0.0122	0.2731	1120.1764	0.146827	-439.053908	-439.045077	-439.044133	-439.087566	32.766	
C	 0.0100473972	 1.5542004348	-0.0329796874	-0.424101
C	 0.104285257	 0.0471159315	 0.0463299236	-0.091268
C	 1.3653584846	-0.7320926789	-0.0967002364	 0.030933
O	 2.4842115158	 0.011110581	 0.4700934939	-0.273178
C	 1.9015878635	-0.0953174469	 1.7274140224	 0.40552
N	 2.3626996061	 0.147953416	 2.8699311294	-0.577679
C	 0.6485595909	-0.7464462531	 1.2444174274	 0.146222
C	-0.0966839077	-1.7803496076	 2.0442866101	-0.178195
O	 0.7744438261	-2.6600796189	 2.7267583521	-0.417555
H	 0.9255802015	 2.0274826349	 0.3275085614	 0.142955
H	-0.1480225302	 1.8715187193	-1.0689425327	 0.125431
H	-0.8279480589	 1.924366188	 0.56524321	 0.127974
H	-0.7441654352	-0.4824780599	-0.3878349019	 0.103358
H	 1.6096140191	-1.5184678418	-0.7978048028	 0.129457
H	 3.3147216814	 0.5144303713	 2.8244487194	 0.233853
H	-0.7813161153	-1.2712043007	 2.7415351921	 0.103938
H	-0.7135274338	-2.3961352612	 1.3807049774	 0.111881
H	 1.3318947278	-2.1152266278	 3.2972548321	 0.300453
76.0057	132.577	143.3735	172.3389	222.2159	254.0529	331.7428	438.5639	451.8791	482.488	594.8242	646.4459	699.7707	758.3919	789.0119	864.1997	901.078	915.41	938.0091	971.252	1003.6646	1033.3577	1069.0992	1077.5797	1116.2004	1116.5946	1188.0044	1220.2618	1270.846	1296.1351	1355.1118	1385.4624	1414.9358	1436.0092	1465.3888	1491.1449	1497.4378	1502.6832	1815.2709	2976.25	3043.2943	3066.835	3104.6007	3114.6337	3136.7333	3216.4874	3481.4577	3770.2958
CC1C2OC(=N)C12CO	C[C@H]1[C@H]2O[C]([NH])[C@@]12CO	
InChI=1S/C6H9NO2/c1-3-4-6(3,2-8)5(7)9-4/h3-4,7-8H,2H2,1H3	InChI=1S/C6H9NO2/c1-3-4-6(3,2-8)5(7)9-4/h3-4,7-8H,2H2,1H3/t3-,4+,6-/m0/s1
