22
gdb 115913	3.59129	1.11544	0.94005	2.4561	82.31	-0.2395	0.071	0.3106	1326.0875	0.196051	-404.335626	-404.327003	-404.326058	-404.36891	33.563	
C	-0.0801066556	 1.5543756542	 0.0332399099	-0.387989
C	-0.0189922292	 0.0265986244	-0.0319438647	-0.187418
C	 0.7369294461	-0.4984681205	-1.248920738	 0.146435
C	 0.8967208725	-2.0268394686	-1.2369621742	-0.213721
C	 1.3390747683	-2.5566293118	-2.5939808002	-0.049954
N	 0.269288985	-2.7355440994	-3.5968718099	-0.323039
C	 1.2595658805	-1.6680970899	-3.7857098841	-0.038179
C	 0.7579766284	-0.250571596	-3.6017197279	-0.081852
O	 0.0238254353	-0.0792669625	-2.4081562545	-0.25204
H	 0.922934849	 1.9879778113	 0.1176347167	 0.106656
H	-0.5448039607	 1.9564888393	-0.8703282224	 0.134282
H	-0.6609937619	 1.889751707	 0.8977522664	 0.107894
H	 0.4604798821	-0.3740772413	 0.8698383798	 0.091317
H	-1.0338123577	-0.3886457398	-0.0611648463	 0.107915
H	 1.7441564297	-0.0415711801	-1.2743792421	 0.053112
H	 1.6301767337	-2.3027405438	-0.4709516439	 0.092431
H	-0.0569338893	-2.4921374886	-0.9644306984	 0.112355
H	 2.1307356008	-3.3019846059	-2.5810260898	 0.081919
H	 0.48888219	-3.5220468094	-4.2024103982	 0.227783
H	 2.0073594195	-1.7868641013	-4.5680607138	 0.08076
H	 1.6255820506	 0.4332985019	-3.6206417181	 0.081456
H	 0.0852014329	 0.0314557409	-4.4185914362	 0.109877
81.0742	113.4057	178.4349	218.4861	266.471	340.6932	341.9694	405.8164	472.082	479.8901	542.3054	726.5737	761.1456	781.2361	801.1507	860.1333	885.6595	934.5981	963.093	968.4372	982.0679	1039.4109	1052.0586	1086.9834	1106.7057	1129.1145	1140.4582	1166.8432	1170.6697	1212.0138	1242.6669	1259.9151	1284.3416	1307.532	1317.1751	1357.7093	1380.7125	1399.5358	1403.6129	1410.5876	1419.0297	1462.6278	1467.6265	1477.6064	1487.9883	1497.6474	1510.8617	2923.7236	2947.3883	3026.4863	3035.5866	3036.1441	3064.757	3068.3362	3081.2115	3100.0191	3118.03	3125.7641	3131.75	3501.278
CCC1CC2NC2CO1	CC[C@H]1C[C@H]2N[C@H]2CO1	
InChI=1S/C7H13NO/c1-2-5-3-6-7(8-6)4-9-5/h5-8H,2-4H2,1H3	InChI=1S/C7H13NO/c1-2-5-3-6-7(8-6)4-9-5/h5-8H,2-4H2,1H3/t5-,6+,7-/m0/s1
