20
gdb 99154	4.47132	0.79254	0.71246	2.1584	77.19	-0.2268	0.018	0.2447	1630.3417	0.168575	-440.283022	-440.272841	-440.271897	-440.319488	35.436	
C	 0.1122530742	 1.5103053368	-0.091149701	-0.239094
O	-0.1754731976	 0.1253645538	-0.3211821614	-0.231909
C	 0.6920200825	-0.5153909222	-1.132351703	 0.454465
O	 1.6368931217	 0.0118442063	-1.6571373862	-0.346718
C	 0.3201041534	-1.9874903506	-1.2317427362	-0.284008
N	 0.8569220969	-2.5657538505	-2.443992733	-0.075443
C	 2.2496212361	-2.9973093591	-2.4378430388	-0.232805
C	 1.1513575917	-4.0025802716	-2.5097819849	 0.024841
C	 0.8844405826	-4.9679357695	-1.3752888931	-0.413274
H	 1.0978793776	 1.6297613174	 0.3661706948	 0.138921
H	 0.0928064406	 2.068565988	-1.030467558	 0.142996
H	-0.6671356246	 1.8681193822	 0.5817076325	 0.132286
H	 0.6749790475	-2.4547715601	-0.295787657	 0.111432
H	-0.7706540656	-2.0750563433	-1.2303060311	 0.132041
H	 2.8335904617	-2.7258040782	-3.3123459971	 0.11935
H	 2.7950784431	-2.9331259925	-1.4966866243	 0.105478
H	 0.9141668702	-4.4144106267	-3.4900247356	 0.092322
H	 1.2287058098	-4.5921535427	-0.4084425215	 0.120247
H	-0.1834010199	-5.1996836175	-1.2914920048	 0.123157
H	 1.4113274581	-5.90922355	-1.5640999404	 0.125714
34.464	60.7945	111.1012	125.8801	171.3594	192.3454	237.7399	273.5725	331.1241	383.209	439.2828	482.9493	606.6361	716.8292	759.4784	828.2398	896.128	913.6512	955.411	1006.7382	1024.0984	1045.0825	1086.7884	1117.4001	1148.0745	1166.4753	1180.0627	1190.0126	1206.6256	1225.4125	1264.4041	1347.7842	1387.4487	1404.5505	1421.6861	1468.9543	1473.9618	1482.3511	1493.3376	1498.4054	1499.2379	1514.2523	1834.3853	2948.6429	3033.9673	3051.569	3080.276	3091.5636	3093.4915	3101.1369	3121.7064	3125.8117	3158.3812	3181.7112
COC(=O)CN1CC1C	COC(=O)CN1C[C@H]1C	
InChI=1S/C6H11NO2/c1-5-3-7(5)4-6(8)9-2/h5H,3-4H2,1-2H3	InChI=1S/C6H11NO2/c1-5-3-7(5)4-6(8)9-2/h5H,3-4H2,1-2H3/t5-,7?/m1/s1
