16
gdb 29957	3.44252	1.22771	0.91021	5.1106	77.23	-0.2084	-0.0195	0.1889	1220.1082	0.123834	-437.935603	-437.92682	-437.925875	-437.969583	31.38	
C	 0.0141831675	 1.4739104237	 0.0175951519	-0.345192
N	-0.0094341655	 0.0239435031	-0.0090863721	-0.055815
C	-0.0567015031	-0.7738279472	-1.1559255257	-0.089217
C	-0.0184112886	-2.0799199167	-0.7798076207	-0.265078
C	 0.060951451	-2.1198472924	 0.6557025872	 0.060598
C	 0.1210293141	-3.2720752564	 1.5165092055	 0.070374
O	 0.1163646692	-4.4348829322	 1.1653958015	-0.303927
C	 0.0663698945	-0.7881305998	 1.0721428693	 0.321543
O	 0.1331069628	-0.2175018057	 2.291637873	-0.427155
H	 1.0209860061	 1.8610256164	-0.1734891553	 0.145746
H	-0.665234663	 1.8629175249	-0.7442517087	 0.145462
H	-0.3148662806	 1.8208614054	 0.9973608909	 0.163157
H	-0.118471194	-0.3081489744	-2.1260130694	 0.126636
H	-0.0484208078	-2.9449346867	-1.4221807237	 0.127754
H	 0.1774739593	-3.0255871205	 2.6112278431	 0.007841
H	 0.1432321182	-0.9122715216	 2.9593283832	 0.317272
52.2373	102.9719	165.3288	196.6805	234.7951	297.5276	320.8011	335.4792	392.7383	526.8662	620.775	657.669	673.5569	728.7776	739.1889	817.1255	838.3329	999.4209	1017.0771	1054.4928	1103.4892	1151.1598	1202.2083	1237.0039	1296.2072	1353.1218	1419.0537	1447.1234	1454.2979	1491.1472	1507.963	1551.8049	1589.8626	1592.2778	1778.7071	2746.1885	3040.8753	3110.3004	3155.5718	3260.2465	3279.7748	3816.6528
CN1C=CC(C=O)=C1O	Cn1ccc(C=O)c1O	
InChI=1S/C6H7NO2/c1-7-3-2-5(4-8)6(7)9/h2-4,9H,1H3	InChI=1S/C6H7NO2/c1-7-3-2-5(4-8)6(7)9/h2-4,9H,1H3
