19
gdb 87872	3.18916	1.30384	1.27197	0.9182	75.67	-0.2317	0.0602	0.2919	1103.1889	0.158521	-422.965032	-422.956893	-422.955949	-422.997867	31.133	
C	-0.0466066297	 1.5005118345	 0.3520760924	-0.405292
C	-0.0460015914	-0.0057906525	 0.211384475	-0.070866
C	 1.1995356054	-0.7296238119	-0.2912644438	-0.374912
C	 0.7726523042	-0.8389331779	 1.1377546188	 0.444379
O	 1.5601589753	-0.2738418993	 2.2058569629	-0.32419
C	 1.2854568083	-1.4110052449	 3.046153288	 0.064393
C	-0.0178836528	-1.2852582197	 3.851695005	-0.096293
O	-0.7889809983	-1.8686907791	 2.7683195991	-0.289985
C	 0.3929327712	-2.0546805366	 1.9660081918	-0.050925
H	 0.910983972	 1.856039789	 0.7423156203	 0.131204
H	-0.2273449792	 1.9871678486	-0.6120802553	 0.115958
H	-0.8273169688	 1.8270306837	 1.0469857204	 0.122186
H	-0.998407851	-0.442653901	-0.0795902071	 0.096127
H	 1.0876966518	-1.5941116022	-0.9383386069	 0.11323
H	 2.0795690394	-0.1245040077	-0.4865942844	 0.121397
H	 2.1810024222	-1.822934858	 3.511966088	 0.093617
H	-0.0711613211	-1.9084356206	 4.7531538974	 0.104841
H	-0.3173846021	-0.2580855432	 4.0848188589	 0.115614
H	 0.4653339647	-3.0526479612	 1.5305121995	 0.089515
82.3551	135.6664	169.6648	192.888	248.3449	377.3667	392.3142	476.4407	500.1721	586.3808	778.0873	791.895	803.6663	854.2115	883.9445	897.3719	935.5414	962.607	985.3727	1002.2217	1021.4082	1039.0776	1066.579	1069.05	1103.9472	1130.7378	1159.9915	1171.4856	1188.2794	1212.2674	1235.6826	1279.7879	1305.5765	1337.6747	1352.5448	1410.0865	1427.9563	1484.5835	1491.3317	1502.3147	1508.4036	3020.2288	3035.1283	3081.9223	3096.5522	3097.4367	3112.821	3113.1313	3121.1106	3138.7571	3210.4049
CC1CC11OC2COC12	C[C@H]1C[C@]21O[C@H]1CO[C@@H]21	
InChI=1S/C7H10O2/c1-4-2-7(4)6-5(9-7)3-8-6/h4-6H,2-3H2,1H3	InChI=1S/C7H10O2/c1-4-2-7(4)6-5(9-7)3-8-6/h4-6H,2-3H2,1H3/t4-,5-,6+,7+/m0/s1
