17
gdb 78578	4.99344	1.08427	1.0259	5.4456	77.89	-0.2495	0.0216	0.2711	1182.5768	0.136469	-380.785663	-380.778152	-380.777207	-380.817652	28.908	
C	-0.1943645059	 1.6160015358	-0.0287674216	-0.421447
C	-0.0519791719	 0.1092863249	-0.0769034866	 0.057004
C	 0.8864081437	-0.5787895497	-1.0727898148	-0.091835
C	 2.1014723533	-0.2268219012	-0.1639113481	-0.017757
C	 2.597500356	-1.6842852656	-0.1000272215	-0.189553
C	 3.3485535284	-2.113041826	 1.0699239096	 0.277985
N	 3.9694300707	-2.4706021182	 1.9768669863	-0.322264
C	 1.0597816937	-1.7418360942	-0.0540992073	-0.007983
N	 0.9814170179	-0.5058017484	 0.8762364173	-0.155353
H	 0.7632627326	 2.1272171882	-0.1646224761	 0.120407
H	-0.8743570816	 1.960590529	-0.8149384513	 0.124005
H	-0.609319713	 1.9256502759	 0.9355426723	 0.137211
H	-1.0275216579	-0.3767863626	 0.0487356122	 0.080298
H	 0.8592357198	-0.6400362346	-2.1662031625	 0.074427
H	 2.7001313733	 0.6818351814	-0.1280159354	 0.10682
H	 3.0562325802	-2.0658448466	-1.0160672522	 0.123795
H	 0.4129816907	-2.6043058983	 0.1075373398	 0.104239
113.9924	148.3227	195.1364	244.501	284.2342	396.7564	485.2818	532.686	580.1685	722.7022	760.9551	833.198	835.6001	854.6063	873.8696	915.0809	922.3945	1015.3357	1036.2972	1043.7554	1064.6807	1075.4636	1119.4759	1127.5153	1136.3813	1173.8278	1185.0034	1200.732	1258.4192	1265.9816	1298.8102	1363.1294	1402.3447	1417.6935	1491.5367	1493.4827	2358.7973	3031.0299	3038.6255	3046.983	3082.204	3106.2778	3113.5279	3121.3931	3134.7041
CC1C2C3C(C#N)C2N13	C[C@H]1[C@H]2[C@@H]3[C@@H](C#N)[C@H]2N13	
InChI=1S/C7H8N2/c1-3-5-6-4(2-8)7(5)9(3)6/h3-7H,1H3	InChI=1S/C7H8N2/c1-3-5-6-4(2-8)7(5)9(3)6/h3-7H,1H3/t3-,4-,5+,6+,7-/m0/s1
