23
gdb 100663	2.40137	1.09176	0.93805	2.8301	82.	-0.2468	-0.0237	0.2232	1397.0785	0.201282	-425.443244	-425.431758	-425.430814	-425.479564	41.642	
C	-0.087514365	 1.6453805955	-0.1982927694	-0.391962
C	-0.0878205321	 0.1131138576	-0.1490318341	-0.204403
C	 0.842513416	-0.5465746913	-1.1867238929	 0.02794
C	 2.3146945227	-0.1618710245	-0.97322128	-0.418803
C	 0.6322993685	-2.1003885355	-1.2465862933	 0.252012
C	 1.2260636768	-2.8585642238	-0.0576130618	-0.450989
O	-0.7531951559	-2.4089581303	-1.4244035764	-0.473632
C	 1.2554774505	-2.5872517898	-2.5551971868	 0.153846
O	 2.4061411548	-2.9104672512	-2.6963712108	-0.259955
H	 0.8863808439	 2.0656098517	 0.0688059325	 0.122259
H	-0.3444083362	 2.0075288505	-1.2000410562	 0.118181
H	-0.8239700349	 2.0537415264	 0.5007006026	 0.114323
H	 0.1938795213	-0.2134170244	 0.8609538912	 0.09533
H	-1.1114020223	-0.2349930327	-0.324506069	 0.093675
H	 0.5279868764	-0.1715894499	-2.172381581	 0.076884
H	 2.6304878641	-0.3609927098	 0.056709894	 0.114635
H	 2.9790879304	-0.7176057744	-1.6389710261	 0.142794
H	 2.4666316416	 0.903668719	-1.163479283	 0.117863
H	 0.8741261822	-2.4480046418	 0.8941412555	 0.111827
H	 0.9305678166	-3.9100503878	-0.1116432333	 0.127714
H	 2.3161812109	-2.811595688	-0.0765430135	 0.148365
H	-1.1837542475	-2.3621997649	-0.5660200824	 0.286243
H	 0.5304068773	-2.5966433408	-3.3986119258	 0.095852
67.4373	86.4837	98.6539	186.718	208.983	210.7618	229.9946	258.4288	263.1679	278.0124	294.358	324.849	383.7035	415.6887	466.3396	512.9521	638.3207	728.2683	794.0616	841.5016	905.7896	942.447	967.1846	994.5664	999.2264	1036.2319	1061.2131	1104.6655	1142.6048	1162.8861	1199.2127	1202.6355	1296.2354	1319.0343	1355.0347	1364.2851	1391.6663	1397.8952	1412.71	1414.7627	1421.7322	1483.9704	1489.3413	1495.9095	1498.518	1507.2543	1509.5492	1515.1441	1834.0265	2898.8704	2989.8057	3017.7599	3035.6304	3041.9833	3045.9664	3065.1569	3100.7966	3106.6331	3113.2971	3113.5655	3128.1868	3142.6821	3837.8508
CCC(C)C(C)(O)C=O	CC[C@@H](C)[C@@](C)(O)C=O	
InChI=1S/C7H14O2/c1-4-6(2)7(3,9)5-8/h5-6,9H,4H2,1-3H3	InChI=1S/C7H14O2/c1-4-6(2)7(3,9)5-8/h5-6,9H,4H2,1-3H3/t6-,7+/m1/s1
