20
gdb 109966	2.31608	1.34356	0.96397	4.3691	79.18	-0.2665	0.0194	0.2859	1260.7854	0.170992	-403.154568	-403.145192	-403.144248	-403.188714	34.892	
C	-1.0735468242	 1.0683665424	-0.0681039404	-0.418374
C	-0.0459912578	-0.0549348768	-0.0595468684	 0.022581
C	 1.3165146127	 0.170966863	-0.7693215099	-0.248859
C	 2.0014319103	-0.6537370875	 0.3635939989	-0.15217
C	 3.2789392914	-0.1930860456	 0.8792249579	 0.275326
N	 4.2698197401	 0.2083318541	 1.3237526899	-0.346782
C	 0.7246895417	-0.4224326987	 1.2529329769	-0.039057
C	 0.8642037812	 0.6924073241	 2.2915974141	-0.084946
O	 1.6321500615	 0.2846434656	 3.4082893605	-0.426602
H	-0.6546257225	 2.0110837983	 0.297622557	 0.123145
H	-1.4379654781	 1.2430896296	-1.0861994085	 0.121135
H	-1.9407739019	 0.8222987038	 0.5538951051	 0.124209
H	-0.5087690681	-0.9660440765	-0.4548345824	 0.083104
H	 1.4389538966	-0.2036905544	-1.7870778879	 0.115936
H	 1.624199577	 1.219342443	-0.7398410819	 0.122865
H	 2.0929230273	-1.706234336	 0.0831676633	 0.126581
H	 0.3809716934	-1.3206450298	 1.7715947341	 0.090512
H	 1.2739130492	 1.6069349544	 1.8368272989	 0.097519
H	-0.130142717	 0.9443184951	 2.6758359279	 0.113385
H	 2.5629751572	 0.3161382018	 3.1595039047	 0.300491
67.9237	132.8556	162.2017	181.3288	219.0376	241.0004	285.9204	339.8863	410.8568	419.5298	461.4554	547.1222	574.8833	646.5433	757.9085	845.3319	895.2433	907.6575	935.1031	977.6221	1004.8275	1042.4667	1079.2524	1086.1392	1131.1375	1150.0683	1164.611	1196.5087	1241.9037	1248.396	1268.1521	1298.9812	1334.8768	1344.3941	1387.3114	1412.6999	1414.4271	1423.6627	1488.5728	1495.6907	1498.1524	1505.7967	2338.7384	2989.5227	3032.4482	3038.8121	3065.794	3069.8778	3076.0895	3086.6441	3096.6014	3106.4258	3128.2045	3800.2511
CC1CC(C#N)C1CO	C[C@H]1C[C@@H](C#N)[C@H]1CO	
InChI=1S/C7H11NO/c1-5-2-6(3-8)7(5)4-9/h5-7,9H,2,4H2,1H3	InChI=1S/C7H11NO/c1-5-2-6(3-8)7(5)4-9/h5-7,9H,2,4H2,1H3/t5-,6-,7-/m0/s1
