23
gdb 115050	2.34173	1.17157	0.84853	1.4388	86.75	-0.2332	0.0296	0.2628	1434.1814	0.206029	-388.300025	-388.290233	-388.289289	-388.334751	36.716	
C	-0.2510093821	 1.7749258477	 0.156340786	-0.389034
C	-0.1218596177	 0.2699887073	 0.4173508488	-0.194312
C	-1.3123404033	-0.5385318112	-0.1105380087	 0.020762
C	-1.5144506027	-0.4829685093	-1.6501636988	-0.261631
C	-2.1724459293	-1.806967328	-1.9549945811	-0.075824
C	-2.0930079912	-2.6534363245	-0.9301280119	-0.059646
C	-1.3368228355	-2.0617234937	 0.2409003873	-0.057648
C	 0.0380639005	-2.7244641918	 0.3935384212	-0.08028
O	-0.188840002	-4.0989526973	 0.6801562255	-0.426582
H	 0.6002722428	 2.3231675567	 0.5718009465	 0.109642
H	-0.2953037976	 1.994513718	-0.9152764329	 0.119232
H	-1.1619713618	 2.1771392264	 0.614080202	 0.113812
H	 0.8082591962	-0.0956564191	-0.0371877335	 0.09473
H	-0.0214866194	 0.1033470052	 1.4976745353	 0.094735
H	-2.2209799342	-0.1159773519	 0.3380643177	 0.075981
H	-2.1182430182	 0.3775567374	-1.9596783456	 0.100472
H	-0.5556552485	-0.3892431751	-2.1835174996	 0.097732
H	-2.6242615217	-2.0278801678	-2.9162889958	 0.086901
H	-2.4556309877	-3.6739085068	-0.9202384788	 0.101512
H	-1.8625483026	-2.230452276	 1.1892782853	 0.076934
H	 0.6177795448	-2.6039553412	-0.5354012701	 0.085214
H	 0.6035076749	-2.2440797033	 1.2063444282	 0.082607
H	 0.6648940864	-4.5340508817	 0.7581484528	 0.284692
83.3975	102.1684	136.55	153.0369	222.8133	230.1018	259.3978	286.1184	335.718	406.7656	467.29	526.8137	664.5883	744.9469	771.6422	792.1701	815.0377	877.3823	950.5392	959.2959	965.2147	978.8471	1009.5919	1044.1273	1057.7751	1075.7071	1099.7208	1128.6617	1137.4721	1158.7684	1183.3141	1235.2363	1247.0204	1285.7193	1301.1229	1317.1306	1324.6892	1341.3198	1363.2865	1378.8398	1389.9567	1411.1608	1451.3743	1483.977	1491.373	1499.8345	1506.9686	1521.7108	1686.093	2967.5451	2987.5963	2998.4768	3007.321	3016.5154	3030.3861	3030.8653	3047.3498	3056.1966	3097.3733	3104.4301	3182.3746	3217.0617	3831.1671
CCC1CC=CC1CO	CC[C@H]1CC=C[C@H]1CO	
InChI=1S/C8H14O/c1-2-7-4-3-5-8(7)6-9/h3,5,7-9H,2,4,6H2,1H3	InChI=1S/C8H14O/c1-2-7-4-3-5-8(7)6-9/h3,5,7-9H,2,4,6H2,1H3/t7-,8-/m0/s1
