22
gdb 70749	2.38214	1.64941	1.22619	1.4112	82.31	-0.2237	0.0845	0.3082	1119.2735	0.195902	-404.326715	-404.318409	-404.317464	-404.358936	33.564	
C	 0.0366532833	 1.4904431751	 0.0264382654	-0.453001
C	-0.0564659555	-0.0211970046	-0.0387562587	 0.334206
C	-0.8564936851	-0.7728920932	 0.9742097189	-0.305892
N	 0.5988941667	-0.7197775509	 1.0734678374	-0.106045
C	 1.3667584425	-1.935001045	 0.8004114858	-0.157886
C	 2.5817852202	-1.632150894	-0.0844934512	-0.198716
C	 2.2606289326	-1.5207362405	-1.57996072	-0.068185
O	 1.3934593721	-0.4612686568	-1.9464627729	-0.241749
C	 0.0726542362	-0.5921861014	-1.4424130266	-0.153168
H	 0.9520539291	 1.8328277378	-0.4663814723	 0.130601
H	-0.8160034862	 1.9574784951	-0.4799345917	 0.108715
H	 0.0561382144	 1.8275064897	 1.0651686345	 0.121459
H	-1.4096546112	-0.2389896573	 1.7435768979	 0.110653
H	-1.3115412378	-1.7139455714	 0.6644324274	 0.102055
H	 1.6980577342	-2.3282623277	 1.7686853904	 0.103253
H	 0.7616685807	-2.7314257871	 0.3339312721	 0.080042
H	 3.0558022547	-0.7085931925	 0.2662409571	 0.116566
H	 3.3184918045	-2.437604793	 0.0291939451	 0.095992
H	 3.1835745009	-1.346206661	-2.1424898126	 0.106198
H	 1.8373392618	-2.4793195682	-1.9286030533	 0.083577
H	-0.2488783372	-1.6429111511	-1.4811983162	 0.085898
H	-0.5726172511	-0.0258956921	-2.1235608964	 0.105426
148.8904	173.136	216.9784	271.7041	317.5535	344.7194	361.9294	391.2821	431.6967	462.9807	526.6034	570.2708	718.7226	768.1367	818.6805	897.2267	913.484	915.3361	941.2061	976.5357	989.364	1011.0621	1054.0702	1092.7906	1107.8793	1123.8276	1126.7549	1159.1002	1189.4919	1228.3584	1270.1647	1281.4078	1301.5801	1334.5297	1369.5536	1382.8633	1393.5705	1397.9377	1413.0186	1427.6495	1465.7399	1480.8299	1490.3967	1494.8338	1500.7682	1507.2813	1528.174	2948.7194	2954.9553	3000.1938	3027.0849	3032.8507	3046.2048	3063.5055	3073.3326	3080.1141	3081.1862	3099.109	3128.3334	3165.488
CC12CN1CCCOC2	C[C@]12CN1CCCOC2	
InChI=1S/C7H13NO/c1-7-5-8(7)3-2-4-9-6-7/h2-6H2,1H3	InChI=1S/C7H13NO/c1-7-5-8(7)3-2-4-9-6-7/h2-6H2,1H3/t7-,8?/m1/s1
