18
gdb 106187	3.258	1.37359	1.34104	1.256	70.25	-0.2378	0.0694	0.3072	1029.5095	0.149275	-439.0289	-439.021369	-439.020424	-439.061153	29.293	
O	 0.0281293481	 1.2892302856	-0.5463756439	-0.41577
C	 0.0169554606	 0.0693449846	 0.1805098284	-0.207188
C	-1.3635206131	-0.4881065436	 0.2995709203	 0.327725
C	-1.831580816	-1.8820619176	 0.2573043476	-0.120552
C	-2.8818572669	-2.0813859918	 1.3410635457	-0.108171
O	-3.1291455029	-0.7751267848	 1.8750141394	-0.262832
C	-2.6481177742	 0.1390455349	 0.9019595647	 0.01903
C	-3.2960994247	-0.1154423113	-0.4781170946	-0.182198
N	-2.1435381454	-0.9877589709	-0.9040168256	-0.209109
H	-0.3264612263	 1.0886212415	-1.4201977434	 0.29161
H	 0.67634086	-0.6817832483	-0.2810555728	 0.097286
H	 0.4210760429	 0.3009775177	 1.1722797725	 0.120287
H	-1.1653431456	-2.6968579224	-0.002996091	 0.106375
H	-3.8083907774	-2.5216301258	 0.9478661572	 0.108558
H	-2.5105852263	-2.7296632452	 2.142563403	 0.11565
H	-2.6397621161	 1.1424894726	 1.3235112899	 0.099009
H	-4.2816346506	-0.5921518934	-0.4832868969	 0.107422
H	-3.3129263261	 0.767784818	-1.1208824107	 0.112867
70.0995	136.1929	241.2424	275.7646	337.7979	418.5929	437.9921	480.5362	655.1025	673.1796	690.9423	782.3882	823.1342	860.3119	909.783	936.9429	952.4913	975.5635	993.2299	1033.0509	1059.8409	1096.2152	1102.1466	1117.559	1169.4405	1177.6481	1206.1471	1224.0041	1257.1143	1267.4096	1300.0796	1327.3167	1369.3029	1379.5708	1415.5183	1456.3013	1487.7951	1491.33	1523.1289	2987.3436	3010.0815	3049.638	3062.0108	3070.0349	3110.4471	3141.5212	3182.4384	3798.4278
OCC12C3COC1CN23	OC[C@@]12[C@H]3CO[C@@H]1CN23	
InChI=1S/C6H9NO2/c8-3-6-4-2-9-5(6)1-7(4)6/h4-5,8H,1-3H2	InChI=1S/C6H9NO2/c8-3-6-4-2-9-5(6)1-7(4)6/h4-5,8H,1-3H2/t4-,5-,6-,7?/m1/s1
