13
gdb 21898	3.37771	2.39917	1.40278	4.648	66.16	-0.1993	-0.021	0.1783	808.4357	0.098533	-394.794414	-394.787931	-394.786987	-394.82486	25.123	
O	-0.0535221193	 1.2837082445	 0.0091644919	-0.405033
C	-0.0148630179	-0.062949547	 0.0087671502	 0.37262
N	 1.1436649723	-0.6360960607	 0.0097654624	-0.308151
N	 1.1537318294	-1.9928326686	 0.0095399092	-0.244009
C	 0.0247355438	-2.749268246	 0.0075925134	 0.031646
C	-1.2012604518	-2.1741740169	 0.0066132791	-0.171791
C	-1.3342075175	-0.7330263698	 0.0077396814	 0.223504
N	-2.4706610313	-0.1287919516	 0.0062062763	-0.552243
H	 0.8605702042	 1.5992386012	 0.0103117097	 0.304647
H	 2.0725573938	-2.3986187194	 0.0094668468	 0.276711
H	 0.1858148754	-3.8208165333	 0.007139348	 0.132454
H	-2.098713846	-2.7779319761	 0.0051945851	 0.11706
H	-2.3263160351	 0.8813776636	 0.0063037868	 0.222584
123.5959	310.7844	325.5703	338.6532	448.3541	483.0634	529.4015	540.1006	566.3832	601.7843	746.3784	747.4025	834.8543	877.9939	926.2053	950.7739	1034.1013	1084.1843	1165.8376	1209.8408	1305.1817	1352.157	1415.7969	1451.1715	1536.1609	1631.1845	1660.6615	1680.9695	3204.6447	3231.5967	3478.8829	3682.0936	3775.3611
OC1=NNC=CC1=N	OC1=NNCC=C1[NH]	
InChI=1S/C4H5N3O/c5-3-1-2-6-7-4(3)8/h1-2H,(H2,5,6)(H,7,8)	InChI=1S/C4H6N3O/c5-3-1-2-6-7-4(3)8/h1,5-6H,2H2,(H,7,8)
