17
gdb 44340	4.14807	1.45132	1.36395	3.0354	76.11	-0.2221	-0.0246	0.1975	962.1751	0.13848	-384.685829	-384.679524	-384.67858	-384.716303	26.622	
O	 0.0321369466	 0.0488286459	-0.0434052718	-0.330995
C	 0.0143200317	 1.250960766	-0.0037601529	 0.417573
C	-1.2093765676	 2.1886196813	 0.0102013954	-0.358075
C	-0.4568021704	 3.5162748789	 0.0643561125	-0.012299
C	 0.7471703194	 3.3798354279	-0.9468693907	-0.08522
C	 1.6619205751	 4.5342354115	-0.539967977	-0.098141
C	 1.6435091918	 4.4903892568	 0.7923709921	-0.098144
C	 0.7190578095	 3.312462595	 1.0970979063	-0.085227
C	 1.1735208196	 2.2202830176	 0.0440675681	-0.117879
H	-1.8202117408	 2.055961951	-0.8889446514	 0.124375
H	-1.8446695379	 1.9976147829	 0.8814665424	 0.124363
H	-1.0275190024	 4.4454179348	 0.0871297995	 0.073652
H	 0.5806540375	 3.1752690832	-2.0052040476	 0.072671
H	 2.1695538026	 5.2099150863	-1.2126919887	 0.109275
H	 2.131780657	 5.1199107469	 1.5218131038	 0.109276
H	 0.5237102379	 3.038819799	 2.1346950844	 0.072667
H	 2.1841780103	 1.815404085	 0.0446071755	 0.08213
130.3982	308.8224	313.2355	456.9044	513.2573	558.5239	607.3794	624.9922	695.2293	732.0423	777.2559	816.703	898.9772	903.9804	906.2433	913.8047	922.0853	965.5843	980.6689	992.5909	1003.7888	1061.6128	1121.008	1121.6044	1163.6493	1185.0869	1203.743	1211.6798	1224.179	1242.8709	1245.1167	1277.796	1315.5425	1329.7839	1461.9231	1635.9804	1861.1073	3049.3679	3093.2178	3107.5265	3110.2063	3115.7626	3142.3541	3227.5538	3254.6353
O=C1CC2C3C=CC2C13	O=C1C[C@@H]2[C@H]3C=C[C@@H]2[C@@H]13	
InChI=1S/C8H8O/c9-7-3-6-4-1-2-5(6)8(4)7/h1-2,4-6,8H,3H2	InChI=1S/C8H8O/c9-7-3-6-4-1-2-5(6)8(4)7/h1-2,4-6,8H,3H2/t4-,5+,6-,8+
