25
gdb 121847	2.79206	0.73423	0.68547	1.4496	86.14	-0.2462	0.0784	0.3246	1809.8852	0.225193	-426.619364	-426.607392	-426.606448	-426.656947	42.936	
C	-0.1467324819	 1.3140968632	 0.1306221729	-0.241112
O	 0.001865169	-0.0739837459	-0.0557236368	-0.272839
C	 0.6793084477	-0.5287967472	-1.2382141722	 0.355878
C	 0.0191720012	 0.0193226571	-2.5139707606	-0.426235
C	 2.1641976303	-0.1313608005	-1.1924262208	-0.419678
C	 0.5662619681	-2.0649103719	-1.1571057087	-0.198768
C	-0.8629261739	-2.6156821202	-1.1731997614	-0.178514
C	-0.9077743738	-4.1091968774	-0.8790773251	-0.075723
O	-2.2614076579	-4.532464163	-0.9595867423	-0.42262
H	 0.8143949411	 1.8466538805	 0.1680691441	 0.102333
H	-0.7709417267	 1.783410821	-0.6427050123	 0.105285
H	-0.6447022355	 1.4437610226	 1.0954189818	 0.125108
H	 0.1999057068	 1.0916655691	-2.6320149101	 0.111522
H	 0.431453145	-0.4802322299	-3.3962697278	 0.114388
H	-1.0610838619	-0.1457251989	-2.5006404126	 0.127664
H	 2.6207240586	-0.4754925437	-0.2596736265	 0.118138
H	 2.7071055566	-0.581412089	-2.0294587162	 0.112816
H	 2.297789554	 0.9522229537	-1.2622321473	 0.111335
H	 1.1463230852	-2.4986771403	-1.9811815242	 0.087321
H	 1.0606271225	-2.3736307486	-0.2272728464	 0.096429
H	-1.4663473942	-2.0888620221	-0.4284735493	 0.122335
H	-1.3358123143	-2.4494670111	-2.1476097222	 0.100645
H	-0.2786043404	-4.6542076944	-1.6032982411	 0.077703
H	-0.4887739563	-4.3025189559	 0.1222919168	 0.083505
H	-2.2942461391	-5.4719115071	-0.7577410317	 0.283083
66.2336	70.9047	73.5578	124.89	147.4817	190.3502	246.1247	255.9592	262.6499	276.6413	303.0043	306.7887	367.8322	402.3576	432.9569	513.5744	559.3191	736.4534	757.2691	846.7312	887.6339	919.0312	947.4254	993.4443	1029.1187	1055.7575	1079.8492	1081.003	1127.4405	1176.3728	1181.9083	1194.5021	1213.077	1237.9408	1249.421	1275.1937	1309.0303	1315.6132	1332.9662	1391.7038	1393.5341	1413.186	1460.8043	1469.6541	1476.6197	1482.2574	1484.9582	1498.0438	1504.0117	1504.6882	1513.1114	1517.9204	1529.671	2951.9293	2978.3028	2990.4148	3019.5029	3034.2115	3041.9142	3044.7008	3047.3258	3059.4129	3103.3016	3104.1784	3104.529	3111.6109	3114.6492	3124.0205	3830.2863
COC(C)(C)CCCO	COC(C)(C)CCCO	
InChI=1S/C7H16O2/c1-7(2,9-3)5-4-6-8/h8H,4-6H2,1-3H3	InChI=1S/C7H16O2/c1-7(2,9-3)5-4-6-8/h8H,4-6H2,1-3H3
