17
gdb 13253	7.88734	0.79934	0.75949	1.2446	65.83	-0.243	-0.0314	0.2116	1428.3298	0.140999	-400.962919	-400.954443	-400.953499	-400.997468	28.808	
O	-0.2275254326	-0.0635352932	 0.1374340798	-0.233286
C	 0.0192646348	 1.1096765192	 0.0462971215	 0.14996
C	 1.3730821938	 1.6748981968	-0.35428114	-0.229507
N	 1.2136108353	 2.9325806335	-1.0682228051	-0.307217
C	 2.4149648484	 3.7165657757	-1.2198629181	 0.015345
C	 3.5044508794	 3.3611226719	-2.2755930029	-0.089694
O	 3.435492852	 4.6882971586	-2.8325203293	-0.268465
C	 2.2850149533	 5.0208434598	-2.0315674634	-0.100029
H	-0.7388651412	 1.8958451131	 0.2630651691	 0.087646
H	 1.9091626919	 1.8836370245	 0.5841647705	 0.135052
H	 1.9423923685	 0.8914682821	-0.8787622843	 0.116665
H	 0.7895551402	 2.7692639239	-1.9768174469	 0.223346
H	 2.845315754	 3.8783338975	-0.2270128145	 0.0951
H	 4.5097037375	 3.1188400405	-1.9121908695	 0.105899
H	 3.1872840018	 2.5917554805	-2.9961678607	 0.090667
H	 1.3624295945	 5.0726424611	-2.6285785559	 0.096668
H	 2.4107726385	 5.9655972144	-1.4918565004	 0.11185
52.0607	74.4609	90.9708	102.2553	198.9764	298.1943	361.9352	445.5404	537.4455	712.1771	751.4132	819.0407	871.0214	891.2583	993.1203	1013.5325	1035.1224	1050.3989	1070.7252	1083.2286	1151.7585	1155.5943	1168.4273	1205.8348	1262.8251	1272.6877	1300.6428	1321.7601	1355.8212	1395.4149	1408.1077	1472.4816	1505.3053	1513.9263	1533.979	1841.3889	2886.4606	2980.6829	2985.1581	2999.4099	3025.857	3052.0603	3061.1615	3076.0793	3505.5296
O=CCNC1COC1	O=CCNC1COC1	
InChI=1S/C5H9NO2/c7-2-1-6-5-3-8-4-5/h2,5-6H,1,3-4H2	InChI=1S/C5H9NO2/c7-2-1-6-5-3-8-4-5/h2,5-6H,1,3-4H2
