18
gdb 92783	2.84284	1.39244	1.02898	5.1554	79.38	-0.2158	-0.0392	0.1765	1156.4809	0.148133	-439.114193	-439.10555	-439.104606	-439.147632	32.479	
C	 0.1780621429	 1.550649452	-0.0245764264	-0.382282
C	-0.040040605	 0.039712687	 0.0385686528	-0.005263
N	 0.5968782081	-0.6528659582	-1.1101805666	-0.283606
C	 1.7521516605	-1.2495189009	-0.712001969	-0.081061
C	 1.8809425002	-1.2917297157	 0.6383595586	 0.143034
C	 2.9688447689	-1.8001105112	 1.4128681298	 0.051748
O	 3.0426417657	-1.6796215856	 2.6328642439	-0.339183
C	 0.6549188727	-0.6454186628	 1.262465648	 0.027609
O	 0.9517282197	 0.2869248031	 2.2788231135	-0.440073
H	 1.2439531516	 1.7919688603	-0.0150655169	 0.132415
H	-0.2739374065	 1.9642375681	-0.9328948158	 0.100853
H	-0.2803555624	 2.0322126798	 0.8411307976	 0.147645
H	-1.1114131084	-0.1792641384	 0.0305990839	 0.095274
H	 0.5203508733	-0.2548169557	-2.0338927215	 0.250421
H	 2.4386028055	-1.641679387	-1.4543275286	 0.137597
H	 3.7820961425	-2.3064350496	 0.8488310229	 0.065247
H	-0.0105239931	-1.4301870252	 1.6592782076	 0.079652
H	 1.6151775437	-0.1541510501	 2.8327132461	 0.299974
54.4471	141.3103	189.922	233.5288	271.3898	297.9117	324.784	432.4565	448.8765	486.8157	535.9971	570.0734	629.5573	710.0346	802.1069	811.3599	883.9052	926.8842	935.1275	1021.8056	1057.8436	1071.278	1118.14	1146.9606	1168.8631	1257.5874	1290.6752	1322.6987	1344.1188	1360.691	1376.2365	1406.0191	1421.7632	1431.6991	1465.9102	1484.9668	1494.5354	1661.6415	1717.0025	2889.2394	2949.9494	3040.4859	3064.3827	3116.0879	3142.4452	3202.0751	3618.4162	3692.7944
CC1NC=C(C=O)C1O	C[C@H]1NC=C(C=O)[C@H]1O	
InChI=1S/C6H9NO2/c1-4-6(9)5(3-8)2-7-4/h2-4,6-7,9H,1H3	InChI=1S/C6H9NO2/c1-4-6(9)5(3-8)2-7-4/h2-4,6-7,9H,1H3/t4-,6+/m1/s1
