17
gdb 55174	2.90472	1.45821	1.33098	3.3305	67.68	-0.2423	-0.0158	0.2265	1027.2965	0.134089	-458.92873	-458.920365	-458.91942	-458.962774	30.035	
C	 0.0487447651	 1.3300732069	 0.3253402696	-0.491212
C	 0.0247667757	-0.1792096008	 0.1861614457	 0.386245
O	 1.0131281469	-0.8664331112	 0.2462099221	-0.292775
C	-1.3631260542	-0.7880766454	 0.0040500209	-0.016691
O	-1.3806891024	-2.2291256503	-0.0380555993	-0.285078
C	-2.1916058237	-2.3098431819	 1.1434165802	 0.071664
C	-1.3851668543	-2.2554059388	 2.4563960654	-0.102819
O	-1.4951425182	-0.7999574859	 2.4971110999	-0.288941
C	-2.2522170309	-0.7795548737	 1.2808477475	 0.040135
H	 1.0735540991	 1.692195566	 0.2343592745	 0.147967
H	-0.5912937303	 1.8184317741	-0.4166960423	 0.129323
H	-0.3348266332	 1.5917806636	 1.3186550192	 0.162553
H	-1.8489281058	-0.3602314622	-0.8847152033	 0.099429
H	-3.0245837674	-3.0066674456	 1.046342575	 0.097201
H	-1.8693362848	-2.7049032002	 3.330637645	 0.110776
H	-0.3497964913	-2.5952392344	 2.3661104984	 0.139145
H	-3.1292868306	-0.1323747502	 1.3228469115	 0.093079
45.6413	86.1974	110.708	154.4459	242.6044	360.8468	399.1273	434.7266	561.0402	608.264	728.3753	783.5778	808.9331	862.5954	919.2743	934.6846	946.8227	984.3408	993.7861	1044.4446	1059.3248	1077.1123	1083.9062	1162.7629	1184.2045	1196.6829	1207.1998	1264.2887	1285.9435	1322.826	1346.0202	1360.2866	1378.3719	1465.1921	1475.5806	1494.3874	1827.6843	3006.0536	3035.7859	3036.9646	3100.5855	3102.024	3107.3736	3115.7315	3151.318
CC(=O)C1OC2COC12	CC(=O)[C@H]1O[C@H]2CO[C@@H]12	
InChI=1S/C6H8O3/c1-3(7)5-6-4(9-5)2-8-6/h4-6H,2H2,1H3	InChI=1S/C6H8O3/c1-3(7)5-6-4(9-5)2-8-6/h4-6H,2H2,1H3/t4-,5+,6+/m0/s1
