18
gdb 105857	2.08571	1.62782	1.26215	1.7824	74.29	-0.2164	0.0135	0.2299	1090.5848	0.147361	-435.20219	-435.193038	-435.192093	-435.236206	33.573	
C	 0.0928493482	 1.3433863294	 0.2221234835	-0.263833
O	 0.042110497	-0.0288973559	-0.1609344741	-0.274117
C	-1.2218489644	-0.5485234457	-0.1233198445	 0.324428
C	-1.8530341009	-1.1456430581	 1.1619394198	-0.059137
N	-3.1444739291	-0.9000294665	 1.7406037405	-0.524157
C	-1.6344033534	-2.0181069152	-0.0366387854	-0.125411
N	-2.6285044109	-1.7758494703	-1.0943455379	-0.347339
C	-2.2974541389	-0.393274037	-1.1670230653	 0.294273
N	-2.7066817883	 0.5928628416	-1.8413163003	-0.554175
H	 1.136117717	 1.6532300653	 0.1359231204	 0.129099
H	-0.5303587006	 1.9586674475	-0.4361331787	 0.149661
H	-0.2385008983	 1.4764429351	 1.2616438318	 0.104617
H	-1.0749824541	-1.2767740207	 1.9130216903	 0.114006
H	-3.1652948566	 0.0162775788	 2.1788080382	 0.238368
H	-3.8622685308	-0.8852875169	 1.0226128918	 0.226016
H	-1.0171527828	-2.9072453414	-0.0657569414	 0.12015
H	-3.5922343132	-2.0733638954	-0.9772587272	 0.232302
H	-3.4753696397	 0.3314971453	-2.4624527614	 0.215247
71.0236	125.138	148.3681	167.4241	173.986	263.3203	301.76	351.0036	422.007	465.4755	572.085	635.6116	672.7854	733.7899	775.784	818.7804	861.2132	895.3897	925.0263	942.975	994.4823	1048.909	1059.938	1061.9397	1128.188	1180.5754	1201.2005	1215.1544	1244.3694	1274.8843	1298.8955	1324.1558	1372.5297	1450.9618	1485.4246	1496.1011	1508.3129	1654.6402	1792.7466	3000.9938	3077.151	3129.9019	3132.4065	3195.3341	3451.6866	3494.4433	3516.6284	3568.9874
COC12C(N)C1NC2=N	CO[C@]12[C@@H](N)[C@H]1N[C]2[NH]	
InChI=1S/C5H9N3O/c1-9-5-2(6)3(5)8-4(5)7/h2-3H,6H2,1H3,(H2,7,8)	InChI=1S/C5H9N3O/c1-9-5-2(6)3(5)8-4(5)7/h2-3H,6H2,1H3,(H2,7,8)/t2-,3+,5+/m0/s1
