14
gdb 28658	5.95051	1.0402	0.88583	2.6654	86.66	-0.2173	-0.0444	0.1729	1228.6552	0.102132	-395.752267	-395.744619	-395.743675	-395.78422	29.44	
N	-0.0385500949	 1.3799631366	 0.1330575725	-0.568979
C	 0.0078103812	 0.0122746583	 0.0540081469	 0.388094
N	-1.1569480483	-0.6444152043	 0.044127455	-0.311265
C	-1.0949210406	-1.972723611	 0.0194819896	-0.0613
C	 0.1139721674	-2.6778696341	-0.0042084233	 0.13624
N	 1.2874881236	-2.0085692158	-0.0025189931	-0.286755
C	 1.2332147443	-0.6922023346	 0.0281269386	-0.080896
C	 0.1303455816	-4.1023090637	-0.0338870233	 0.227605
C	 0.106599534	-5.3057851299	-0.0583638059	-0.386118
H	 0.7660722459	 1.9030552537	-0.170969421	 0.260944
H	-0.9343157416	 1.7935193754	-0.0753103017	 0.26366
H	-2.039469424	-2.509570709	 0.0126724519	 0.121593
H	 2.1795191801	-0.1539616767	 0.0329217003	 0.103735
H	 0.0998904613	-6.3673856649	-0.0800354365	 0.193441
92.4877	147.3582	242.9603	365.6068	399.5031	431.1263	447.6395	459.6427	488.2648	543.6578	574.0912	601.3466	660.033	666.6764	743.9416	811.3432	885.8812	917.7153	968.8135	1032.6284	1064.5901	1249.8764	1266.5959	1321.6379	1358.7433	1411.6005	1515.6773	1569.0334	1611.7058	1644.0948	2228.0762	3137.0654	3169.8511	3503.2115	3589.2924	3708.972
NC1=NC=C(N=C1)C#C	Nc1ncc(nc1)C#C	
InChI=1S/C6H5N3/c1-2-5-3-9-6(7)4-8-5/h1,3-4H,(H2,7,9)	InChI=1S/C6H5N3/c1-2-5-3-9-6(7)4-8-5/h1,3-4H,(H2,7,9)
