17
gdb 49249	2.89237	1.61053	1.13369	3.1621	74.8	-0.2322	-0.0676	0.1646	1057.7569	0.137797	-418.005359	-417.997841	-417.996897	-418.037743	28.058	
O	-0.7312170494	 1.428479851	-0.4971891004	-0.257125
C	 0.3350270091	 1.0277720359	-0.0997481374	 0.124312
C	 1.4854871455	 1.9173543989	 0.2199902388	 0.221283
N	 2.6322844398	 1.4132660619	 0.5014899847	-0.268936
C	 3.5727857461	 2.5354963358	 0.6604368158	-0.198465
C	 2.7564722223	 3.8051025536	 0.320781468	 0.013568
C	 2.667368603	 4.3350723349	-1.136134512	-0.252891
C	 1.1493843436	 4.002634166	-1.0895546021	-0.177308
N	 1.3452718938	 3.3058041509	 0.2254182619	-0.126978
H	 0.5655251396	-0.0470942533	 0.0360551587	 0.106299
H	 3.9424269925	 2.5532052586	 1.6922554332	 0.124697
H	 4.4445032229	 2.3828401594	 0.0121297656	 0.11826
H	 2.8672359383	 4.5950358032	 1.0674082801	 0.08992
H	 2.9324014307	 5.3826594136	-1.2898995273	 0.112841
H	 3.2220418073	 3.7191094722	-1.8492728061	 0.115819
H	 0.5014752329	 4.8745573332	-0.9745172145	 0.123167
H	 0.7473512219	 3.3638850543	-1.877460727	 0.131538
93.786	118.7506	172.6623	265.3352	280.11	343.7627	481.7638	591.7536	683.3298	709.9914	749.4981	795.1301	805.1695	900.4532	922.3567	947.9792	993.4045	1024.9791	1034.0666	1062.593	1083.2448	1122.1062	1167.8578	1210.1187	1218.7079	1250.6304	1262.7982	1296.6774	1308.8282	1354.1435	1386.644	1392.2247	1480.3063	1489.2958	1516.0947	1653.9121	1808.9148	2950.7656	3028.3496	3057.5337	3065.161	3072.7626	3077.7523	3118.7813	3135.411
O=CC1=NCC2CCN12	O=C[C]1[N]C[C@H]2CCN12	
InChI=1S/C6H8N2O/c9-4-6-7-3-5-1-2-8(5)6/h4-5H,1-3H2	InChI=1S/C6H8N2O/c9-4-6-7-3-5-1-2-8(5)6/h4-5H,1-3H2/t5-/m1/s1
