16
gdb 20249	3.60686	3.04185	2.42772	1.8568	65.44	-0.234	0.0752	0.3092	646.4239	0.134063	-346.558466	-346.553449	-346.552504	-346.58719	22.075	
C	-0.0234068413	 1.5165537267	-0.0455964581	-0.226797
C	 1.4559316464	 1.8732094902	 0.0384433276	-0.061025
C	 2.4647270536	 0.9256930906	-0.5952998614	-0.092591
C	 2.1899264802	 0.9007683581	 0.9142415506	-0.09427
C	 1.3648861845	-0.3915230349	 0.7090341307	-0.10222
C	 0.0097129831	-0.0093955642	 0.0029618598	 0.08193
O	 0.4967919702	-0.5003706085	-1.2809075072	-0.311594
C	 1.8356721836	-0.4786191199	-0.7531679626	 0.115461
H	-0.563764048	 1.9362832768	 0.8121628554	 0.093793
H	-0.5104317718	 1.854788484	-0.9647242715	 0.112063
H	 1.7556964496	 2.9156542069	 0.0598447972	 0.086064
H	 3.3271011987	 1.3058686731	-1.1294364331	 0.082732
H	 2.8324974683	 1.150466345	 1.7473776001	 0.087816
H	 1.4003976682	-1.2241195249	 1.4059295241	 0.076583
H	-0.9209390498	-0.5004543974	 0.2947320566	 0.074541
H	 2.4814665646	-1.2602383517	-1.1574778581	 0.077514
332.1292	417.4568	521.1111	647.7979	685.9386	706.9593	752.9683	794.8116	833.5486	851.8514	877.0067	907.4	916.8269	933.8084	956.2955	969.4471	1000.9885	1025.0588	1036.9466	1057.0562	1075.3543	1083.0866	1139.3466	1186.9046	1209.1434	1231.7566	1241.4392	1267.1375	1292.481	1305.5805	1339.8552	1346.8672	1404.4807	1476.9031	3029.9464	3088.8368	3093.7356	3095.3382	3155.2564	3168.2083	3182.4299	3207.2408
C1C2C3C2C2C1OC32	C1[C@@H]2[C@H]3[C@@H]2[C@H]2[C@@H]1O[C@@H]32	
InChI=1S/C7H8O/c1-2-4-5(2)7-6(4)3(1)8-7/h2-7H,1H2	InChI=1S/C7H8O/c1-2-4-5(2)7-6(4)3(1)8-7/h2-7H,1H2/t2-,3+,4+,5-,6+,7-/m0/s1
