18
gdb 77122	3.12334	1.15112	0.97709	1.4766	73.75	-0.2461	-0.0281	0.218	1226.2383	0.146355	-439.048824	-439.039933	-439.038989	-439.083075	32.547	
O	 0.3343038067	 0.9262949647	-0.4239157866	-0.434404
C	-0.0066442959	-0.3695006544	-0.0026903807	 0.041551
C	-0.097548681	-0.6843006762	 1.5169563075	-0.11817
C	-1.4427035575	-1.4530133877	 1.2432450316	-0.334395
C	-1.4868935032	-0.7223978002	-0.1030651087	 0.34275
C	-2.5303862218	 0.1931465658	-0.6073202061	-0.297072
N	-2.2620316201	-1.1033043374	-1.2698861476	-0.379646
C	 1.0215245111	-1.4579019375	 2.1503041136	 0.131615
O	 2.0202530482	-1.8068077057	 1.5688973653	-0.249598
H	 1.2906458367	 0.9718290652	-0.5210524408	 0.294003
H	 0.6201638215	-1.1296185898	-0.4886146019	 0.0931
H	-0.2985654843	 0.2231590261	 2.0965386841	 0.10491
H	-1.293461058	-2.5303649479	 1.1261878574	 0.122275
H	-2.2630582002	-1.2760418087	 1.9400084242	 0.118687
H	-3.4910747907	 0.2545014096	-0.1026446717	 0.116933
H	-2.1991731373	 1.1070179965	-1.0914302416	 0.132496
H	-1.7154355754	-0.9544858684	-2.1158775394	 0.234186
H	 0.8684319313	-1.718475194	 3.2227282215	 0.08078
47.9585	84.0748	165.8237	219.8596	235.1149	274.7866	291.8872	342.6229	446.6712	507.1195	557.5817	639.1947	764.9609	823.4633	846.2624	893.3818	908.0386	943.2465	971.1228	999.9886	1031.4598	1065.1188	1096.664	1108.8064	1126.6964	1150.1674	1195.8979	1222.956	1231.9485	1254.0184	1271.3297	1298.1727	1351.162	1413.4415	1421.9591	1456.171	1491.2278	1513.7103	1815.1316	2869.5638	3017.7601	3061.7721	3064.8916	3110.1762	3127.9635	3201.9805	3486.1211	3823.104
OC1C(CC11CN1)C=O	O[C@H]1[C@@H](C[C@]21CN2)C=O	
InChI=1S/C6H9NO2/c8-2-4-1-6(3-7-6)5(4)9/h2,4-5,7,9H,1,3H2	InChI=1S/C6H9NO2/c8-2-4-1-6(3-7-6)5(4)9/h2,4-5,7,9H,1,3H2/t4-,5-,6+/m0/s1
