19
gdb 116916	4.81957	0.54186	0.51762	0.8421	83.02	-0.2465	0.0266	0.273	2126.8067	0.156365	-422.974931	-422.96445	-422.963506	-423.013407	35.975	
C	 0.6887403863	 1.230281393	-0.522460532	-0.424418
C	 0.0034777393	-0.0079166691	-0.0110948823	 0.098405
O	 0.8252127724	-1.0277321166	 0.5513794947	-0.245175
C	-0.0912526125	-0.3441330932	 1.4292132319	-0.167996
C	 0.4634503076	 0.489098391	 2.461033852	 0.106387
C	 0.8947265019	 1.1822744481	 3.3477454072	 0.075936
C	 1.4378926394	 1.9908643063	 4.4302472985	-0.330009
C	 2.2449700695	 1.1626383888	 5.4373815309	-0.063563
O	 2.7073326105	 2.0623927296	 6.4294793334	-0.414829
H	 1.4187904837	 1.5969520422	 0.2018817743	 0.139605
H	 1.2045745583	 1.0156533672	-1.4640385856	 0.128953
H	-0.0460369335	 2.0198736979	-0.7126028586	 0.122748
H	-0.7992075699	-0.3936101362	-0.6437781037	 0.091164
H	-0.9326736598	-0.9629410802	 1.7420147728	 0.108817
H	 2.0862759905	 2.7804281872	 4.0315927976	 0.140215
H	 0.6280919836	 2.4980118992	 4.9689728437	 0.140596
H	 1.6017898025	 0.3785220469	 5.8636740807	 0.099763
H	 3.0760452997	 0.6643561575	 4.9170029172	 0.103095
H	 3.2293797506	 1.5672304905	 7.0671065474	 0.290303
7.4246	67.1058	74.7142	119.7958	159.1514	197.4247	237.3138	284.2211	346.3488	365.9859	393.785	458.0587	574.6077	576.0659	760.7323	792.9296	796.1817	876.067	953.5074	997.4386	1019.0867	1079.8758	1081.3877	1087.3061	1139.0617	1164.6825	1194.9812	1221.2497	1238.4704	1287.9938	1303.9001	1332.6237	1379.4578	1413.0195	1447.9247	1454.8388	1475.3844	1485.4593	1496.3982	1527.8722	2363.3988	2985.5364	3017.0359	3031.1871	3039.6587	3069.1538	3080.4622	3102.7383	3104.0705	3137.7925	3835.2848
CC1OC1C#CCCO	C[C@H]1O[C@H]1C#CCCO	
InChI=1S/C7H10O2/c1-6-7(9-6)4-2-3-5-8/h6-8H,3,5H2,1H3	InChI=1S/C7H10O2/c1-6-7(9-6)4-2-3-5-8/h6-8H,3,5H2,1H3/t6-,7+/m1/s1
