20
gdb 82417	2.463	1.70587	1.1422	3.6236	79.76	-0.2217	0.0318	0.2536	1109.6149	0.173078	-403.182162	-403.173856	-403.172912	-403.215026	31.991	
C	-0.0697232464	 1.4083514635	-0.1395838205	-0.353398
N	 0.0323572883	-0.029665889	 0.0568921989	-0.089092
C	-1.2076862975	-0.7593865866	 0.1180787283	 0.047279
C	-1.5577687928	-1.8164964958	-0.9087743788	-0.315928
C	-1.1945993242	-2.2063096991	 0.5107081601	-0.047818
C	 0.1486677319	-2.8066641143	 0.8675003504	-0.231432
C	 1.2998390418	-2.1433921269	 0.1011917211	-0.330366
C	 1.273507227	-0.6180223559	 0.0664450605	 0.397674
O	 2.3079165257	 0.0270883942	 0.0043754478	-0.389251
H	 0.9392322649	 1.8172193004	-0.1475216824	 0.169262
H	-0.5663894819	 1.6405240266	-1.0897999212	 0.122827
H	-0.6453263557	 1.8682536747	 0.672475587	 0.120006
H	-2.0139053974	-0.1354015462	 0.4898201662	 0.097723
H	-2.5931621044	-1.9159145874	-1.2158873315	 0.115175
H	-0.8384930483	-1.9974533972	-1.6997759655	 0.120211
H	-2.019842636	-2.5358307467	 1.1350389283	 0.091753
H	 0.3082522327	-2.6693428559	 1.9443484626	 0.111318
H	 0.1557910488	-3.8879211442	 0.687796635	 0.106076
H	 2.2694023414	-2.4261406958	 0.5157066481	 0.130022
H	 1.3040948621	-2.4823775785	-0.9424510245	 0.12796
102.0111	119.0718	140.2867	231.1714	305.4777	349.7776	376.4751	456.8424	483.6555	553.6515	582.7338	688.2346	714.1733	759.1405	835.4325	876.9405	909.6381	960.0909	963.2044	1034.4113	1048.1287	1068.1504	1096.9343	1121.9698	1135.4795	1157.6892	1159.0374	1211.5646	1220.8916	1243.6593	1275.3183	1345.1225	1362.4614	1383.8826	1411.1452	1423.1475	1456.2116	1480.3067	1489.3324	1501.0837	1503.0218	1524.0695	1758.8792	3017.4795	3024.9059	3036.087	3062.0517	3066.8971	3114.0275	3135.2151	3145.9098	3158.0875	3169.1339	3222.7055
CN1C2CC2CCC1=O	CN1[C@H]2C[C@H]2CCC1=O	
InChI=1S/C7H11NO/c1-8-6-4-5(6)2-3-7(8)9/h5-6H,2-4H2,1H3	InChI=1S/C7H11NO/c1-8-6-4-5(6)2-3-7(8)9/h5-6H,2-4H2,1H3/t5-,6+/m1/s1
