18
gdb 64527	3.06077	1.61144	1.24716	2.2377	76.44	-0.2414	-0.0314	0.21	1026.4516	0.146229	-401.855573	-401.847637	-401.846693	-401.888099	30.372	
C	-0.0351524852	 1.6565682612	 0.2361143654	-0.479603
C	-0.026111415	 0.1458546717	 0.049977253	 0.253513
C	-1.4069332204	-0.4135725949	 0.320192027	 0.110358
O	-2.01624876	-1.1306353828	-0.4331862136	-0.255477
C	 0.7925879269	-0.5098932579	-1.0625658289	-0.104178
C	 2.0948123847	-0.2799651848	-0.2354691643	-0.00863
C	 2.5321388146	-1.7435397744	-0.3048977817	-0.269368
C	 1.0108145024	-1.7651261719	-0.1639835142	 0.005372
N	 1.0500350709	-0.601771584	 0.8776455334	-0.211809
H	 0.9622383649	 2.0836254908	 0.1103428513	 0.130496
H	-0.7008677102	 2.1327893392	-0.4919884241	 0.13167
H	-0.3881717856	 1.917913196	 1.2395120678	 0.13341
H	-1.8386704892	-0.1078102701	 1.3015434232	 0.081324
H	 0.6627501528	-0.4731299012	-2.1478082517	 0.075041
H	 2.7080758838	 0.6191687935	-0.175919414	 0.087683
H	 2.9440528706	-2.0894028814	-1.2559233633	 0.104805
H	 3.1036017743	-2.1180964219	 0.5482224584	 0.112471
H	 0.3320856498	-2.6055591571	-0.0281839936	 0.102921
72.478	166.4522	182.1846	227.4104	274.1744	314.4064	407.8997	468.3818	575.996	693.8157	726.4366	806.6222	821.4129	841.6379	851.1375	895.5638	925.7279	932.6179	987.3127	1020.2928	1025.1304	1032.3642	1098.6857	1123.3639	1133.1559	1152.4683	1156.5067	1183.1789	1218.8183	1235.7568	1246.7056	1308.4684	1333.2529	1405.116	1419.6368	1488.8118	1490.9219	1491.3094	1822.5496	2866.0718	3036.5166	3059.7232	3067.4896	3099.8821	3112.2149	3125.7523	3126.1725	3135.0775
CC1(C=O)C2C3CC2N13	C[C@@]1(C=O)[C@H]2[C@@H]3C[C@H]2N13	
InChI=1S/C7H9NO/c1-7(3-9)6-4-2-5(6)8(4)7/h3-6H,2H2,1H3	InChI=1S/C7H9NO/c1-7(3-9)6-4-2-5(6)8(4)7/h3-6H,2H2,1H3/t4-,5+,6-,7-/m1/s1
