19
gdb 61500	2.64129	0.91505	0.83257	2.8607	78.57	-0.2536	-0.0268	0.2268	1475.067	0.153888	-422.994537	-422.983843	-422.982898	-423.031278	37.516	
C	 0.3023590903	 0.6427274838	-1.2845044451	-0.406235
C	 0.1702763326	-0.3063103925	-0.095646592	 0.037214
O	 0.7872405035	 0.1645601578	 1.0934367465	-0.26902
C	 2.20627674	 0.050136197	 1.158609327	-0.02501
C	 2.6355584719	 0.7099488595	 2.4697137886	-0.394454
C	 2.6484349314	-1.3488102665	 1.0795628312	 0.340959
C	 3.0097464609	-2.4939161229	 1.0183448674	-0.489948
C	-1.2851000036	-0.5646523082	 0.2792032211	 0.149097
O	-2.1955207742	-0.577850088	-0.5064052948	-0.246513
H	 1.3277916964	 0.6784655382	-1.660942306	 0.118872
H	-0.3527891337	 0.2990114455	-2.088447031	 0.145354
H	-0.0036467436	 1.6524213149	-0.9962561216	 0.130002
H	 0.5860964868	-1.2950124611	-0.3591912555	 0.111404
H	 2.6607883035	 0.6003758257	 0.3204081115	 0.102682
H	 2.189726904	 0.1830241621	 3.3164934381	 0.138069
H	 3.7231904377	 0.6840663218	 2.5695179461	 0.129473
H	 2.2974751307	 1.7489525909	 2.4811703602	 0.128481
H	 3.3326051536	-3.5046396091	 0.964727029	 0.206216
H	-1.4281816581	-0.7624181489	 1.3637315793	 0.093356
32.238	71.9628	97.9684	140.2454	193.1271	209.9833	222.7313	258.3406	266.581	356.0185	389.9404	436.608	541.5646	604.3634	624.3545	634.4387	683.5148	807.5984	832.8628	891.8409	921.5002	987.3362	1063.0348	1102.0162	1117.4322	1141.9688	1149.0294	1164.0328	1321.7559	1339.5781	1353.478	1365.9901	1393.3997	1403.1075	1406.8746	1482.1606	1487.8459	1495.1395	1496.3801	1839.3668	2229.4589	2906.2914	2958.812	2984.8766	3050.305	3054.5827	3124.1833	3136.3269	3136.5523	3139.2402	3500.5927
CC(OC(C)C#C)C=O	C[C@@H](O[C@@H](C)C#C)C=O	
InChI=1S/C7H10O2/c1-4-6(2)9-7(3)5-8/h1,5-7H,2-3H3	InChI=1S/C7H10O2/c1-4-6(2)9-7(3)5-8/h1,5-7H,2-3H3/t6-,7+/m0/s1
