16
gdb 25014	5.04723	0.99348	0.8753	2.9313	73.26	-0.198	0.0152	0.2132	1286.3809	0.125949	-434.056807	-434.048866	-434.047922	-434.089875	29.631	
N	 0.2439697615	 1.2698204247	-0.619983193	-0.60479
C	 0.085095703	 0.065051669	-0.2653863085	 0.470337
N	-0.9452190609	-0.776521742	-0.6290155674	-0.399578
C	-0.8037428783	-2.0172997011	 0.004296483	 0.304757
C	 0.3328328284	-1.9371210061	 0.7116115154	-0.136869
O	 0.9003414934	-0.6844887356	 0.566602891	-0.213253
C	-1.7708446508	-3.1100714484	-0.1793523518	-0.132294
C	-1.937698633	-4.1439732186	 0.870972272	-0.231697
N	-3.0081257449	-3.162286001	 0.6418616536	-0.309801
H	 1.0858517959	 1.6600140127	-0.2056291822	 0.226008
H	-1.7444461727	-0.4533216101	-1.1444502104	 0.278315
H	 0.8713405483	-2.6492099378	 1.310684187	 0.151673
H	-1.9504316485	-3.395115164	-1.2143071171	 0.11154
H	-2.1769696591	-5.1624689771	 0.5813809008	 0.12873
H	-1.3377827915	-4.0554597081	 1.7719941275	 0.119973
H	-2.9567319309	-2.4435130467	 1.36130332	 0.236948
62.5975	111.685	166.5654	190.8659	347.4335	371.7129	420.9801	510.9336	588.3974	665.7275	712.5306	723.9338	747.0298	756.6285	832.8322	864.7853	916.0353	958.2741	995.899	1026.3971	1067.3962	1094.8949	1113.2421	1140.9344	1178.7963	1221.2198	1234.7996	1273.3762	1300.6407	1357.5003	1386.7489	1453.4782	1506.4575	1706.6411	1795.6689	3118.7087	3123.5307	3205.1557	3303.2481	3489.9914	3544.8148	3696.8582
N=C1NC(=CO1)C1CN1	[NH][C@@H]1NC(=CO1)[C@H]1CN1	
InChI=1S/C5H7N3O/c6-5-8-4(2-9-5)3-1-7-3/h2-3,7H,1H2,(H2,6,8)	InChI=1S/C5H8N3O/c6-5-8-4(2-9-5)3-1-7-3/h2-3,5-8H,1H2/t3-,5-/m1/s1
