15
gdb 12177	3.79113	1.4985	1.13509	2.5167	64.19	-0.2576	-0.0453	0.2123	1005.2025	0.117157	-399.825444	-399.81741	-399.816466	-399.858475	27.977	
C	-0.3058081929	 1.4795905422	 0.090509769	-0.396831
C	 0.0379304591	-0.000019392	-0.0255284777	-0.085173
N	 0.8967631114	-0.4042323091	-1.1622474186	-0.068111
C	 1.9897325021	-0.9644214441	-0.355227182	-0.287303
C	 1.185338306	-0.5164061302	 0.8806272844	 0.37647
O	 1.3686102846	-0.5234776533	 2.0576056705	-0.270802
C	 0.5744238107	-0.7472270249	-2.4354601354	 0.13179
O	 1.299527261	-1.3736557586	-3.1778524928	-0.318028
H	 0.5915996676	 2.097760497	-0.0002960398	 0.132863
H	-1.0122623534	 1.7795023742	-0.688847199	 0.133823
H	-0.7659251517	 1.6721988495	 1.0642016491	 0.144799
H	-0.8656117532	-0.6186221479	 0.0671227811	 0.120016
H	 2.1140177556	-2.0484013031	-0.4622686451	 0.156334
H	 2.9627527147	-0.4800084266	-0.4880349672	 0.153231
H	-0.4260334916	-0.370660533	-2.7294316165	 0.07692
57.4783	125.0203	170.3622	202.0347	205.504	318.6914	360.265	443.865	533.0154	570.9843	708.763	757.3274	861.0066	906.6311	1014.3746	1029.8264	1040.8813	1080.8459	1123.1633	1132.0717	1157.03	1249.0123	1269.8591	1341.8119	1383.216	1404.8696	1433.9948	1474.1626	1485.5209	1495.4426	1793.457	1929.8611	2932.9784	3015.5021	3040.9489	3043.8375	3087.9117	3119.2921	3125.2792
CC1N(CC1=O)C=O	C[C@H]1N(CC1=O)C=O	
InChI=1S/C5H7NO2/c1-4-5(8)2-6(4)3-7/h3-4H,2H2,1H3	InChI=1S/C5H7NO2/c1-4-5(8)2-6(4)3-7/h3-4H,2H2,1H3/t4-/m1/s1
