14
gdb 7930	3.57606	1.92298	1.32813	3.3771	59.55	-0.2751	-0.0037	0.2714	881.835	0.10813	-415.928517	-415.921208	-415.920264	-415.960555	26.489	
C	-0.0702401916	 1.600181449	 0.0331338269	-0.390849
C	 0.0219637896	 0.0741735125	-0.0086734056	-0.060808
N	 0.863232873	-0.4517904114	-1.0673878405	-0.368044
C	 1.8522000078	-1.2757976428	-0.6267417118	 0.480829
O	 2.6706382326	-1.8943070452	-1.2379703884	-0.371058
O	 1.7775873425	-1.2946747838	 0.7716995917	-0.231335
C	 0.7329723778	-0.511424668	 1.2033039272	 0.415744
N	 0.4157087679	-0.3042471086	 2.4007211503	-0.522454
H	 0.9269616125	 2.0461593661	 0.0771778898	 0.132815
H	-0.5860242534	 1.9803853577	-0.8536770085	 0.121005
H	-0.629861067	 1.9019629156	 0.921286799	 0.156726
H	-0.9898978714	-0.3501331661	-0.059876463	 0.125842
H	 0.6861166393	-0.3529890104	-2.0519827282	 0.271651
H	 1.0369768205	-0.7988771745	 3.0418618111	 0.239936
58.2149	136.1414	235.7826	248.2164	371.1446	377.3643	430.3557	567.2556	629.6634	645.7837	727.8381	765.351	807.3495	903.4909	937.5484	968.32	1028.826	1082.9979	1114.6582	1143.9383	1195.6985	1307.4728	1344.8072	1387.3265	1406.4081	1429.7291	1492.3709	1495.3553	1796.804	1930.6735	3015.126	3047.2777	3122.202	3140.6521	3490.205	3681.3056
CC1NC(=O)OC1=N	C[C@H]1NC(=O)O[C]1[NH]	
InChI=1S/C4H6N2O2/c1-2-3(5)8-4(7)6-2/h2,5H,1H3,(H,6,7)	InChI=1S/C4H6N2O2/c1-2-3(5)8-4(7)6-2/h2,5H,1H3,(H,6,7)/t2-/m1/s1
