20
gdb 18879	3.19349	2.58695	2.37786	0.157	76.49	-0.2695	0.0855	0.3551	741.2699	0.182612	-311.887112	-311.881523	-311.880579	-311.916266	25.091	
C	-0.0260232916	 1.5635932081	 0.0650146652	-0.22233
C	 1.517084326	 1.4973642927	-0.0295038116	-0.014019
C	 2.1451588479	 1.1318172988	 1.341999845	-0.214149
C	 1.8684411142	-0.3858002087	 1.4463475863	-0.007395
C	 0.3386484249	-0.5991492147	 1.3767915169	-0.214148
C	-0.0273476178	 0.0175295301	 0.0002450079	-0.014021
C	 1.3757039148	 0.0850313436	-0.7132247381	-0.006799
C	 2.3009878788	-0.8654263064	 0.0437594935	-0.222964
H	-0.4648147027	 2.0393195822	 0.9495571261	 0.081903
H	-0.468723327	 2.0075905152	-0.8320474177	 0.089324
H	 2.0385630328	 2.3029639215	-0.5497511638	 0.054103
H	 3.2245853678	 1.3198897662	 1.3399203092	 0.089367
H	 1.7116305507	 1.7081927375	 2.1662659338	 0.087687
H	 2.3537972029	-0.8753110373	 2.2935153197	 0.051127
H	 0.1048767382	-1.6693592613	 1.4000040687	 0.089368
H	-0.2021150623	-0.1255310153	 2.2031270266	 0.087686
H	-0.8646644207	-0.4788310444	-0.4938346155	 0.054103
H	 1.3747890564	 0.0640897664	-1.8023412467	 0.055799
H	 3.3628336819	-0.691537612	-0.1615183777	 0.087678
H	 2.0780409748	-1.9225902523	-0.1367732881	 0.087678
317.2032	340.5029	441.1126	451.7771	554.0382	596.039	757.3833	792.57	816.7581	848.9535	854.5552	875.1437	896.2583	916.8003	938.9034	943.2845	953.1412	975.6119	995.981	1013.9362	1052.6923	1086.0364	1112.4679	1115.2414	1121.854	1154.3052	1199.2364	1222.8715	1240.8247	1244.6574	1269.3338	1275.462	1296.5903	1302.2283	1313.2519	1346.3409	1352.8851	1358.0671	1480.8959	1488.7735	1493.4547	1511.5937	3029.6553	3033.5395	3034.0733	3040.0739	3073.0963	3077.1149	3078.9421	3083.431	3086.3844	3088.3967	3090.6565	3122.9492
C1C2CC3CC1C2C3	C1[C@H]2C[C@H]3C[C@@H]1[C@@H]2C3	
InChI=1S/C8H12/c1-5-2-7-4-6(1)8(7)3-5/h5-8H,1-4H2	InChI=1S/C8H12/c1-5-2-7-4-6(1)8(7)3-5/h5-8H,1-4H2/t5-,6+,7-,8+
