16
gdb 78418	3.29364	1.33699	1.2045	2.4862	68.22	-0.2334	-0.0347	0.1987	1043.7813	0.123737	-437.80958	-437.802231	-437.801286	-437.841346	28.879	
O	-0.0512243053	 1.3300069392	 0.1055945074	-0.425336
C	-0.0204830748	-0.0652659716	 0.0579620477	 0.057284
C	-1.3979290637	-0.6568575038	 0.0107667965	-0.087868
C	-0.5165278312	-0.6675586381	-1.2400626173	-0.071086
N	-0.5178597894	-2.1468981627	-1.3105968838	-0.132719
C	 0.6317540554	-2.8629066693	-0.6675574983	-0.310298
C	-0.1724603721	-2.9436288713	 0.6538718429	 0.388798
O	 0.0112029858	-3.4227245968	 1.7305703723	-0.280267
C	-1.3373196191	-2.1896362788	-0.0406187919	-0.130256
H	 0.6969051544	 1.6645363679	-0.4006753564	 0.292871
H	 0.7687124778	-0.5261157964	 0.6527732186	 0.099366
H	-2.2715959947	-0.0632001365	 0.2423642905	 0.11416
H	-0.5786394655	-0.0682103078	-2.1420103763	 0.103178
H	 0.8126006621	-3.8413266003	-1.1248307983	 0.139501
H	 1.5788885842	-2.3164805224	-0.6183641228	 0.13266
H	-2.2993211339	-2.7077684712	-0.0800827908	 0.11001
94.8385	221.4628	252.0644	290.1097	327.6227	395.5064	416.6379	509.4209	570.3703	637.7384	726.2885	803.4524	820.9765	868.5978	898.5897	933.8953	952.8099	975.318	1000.171	1053.8771	1062.4511	1083.4387	1099.9979	1141.6892	1169.9664	1177.9181	1185.3167	1229.9088	1244.7804	1257.9323	1301.8381	1313.0068	1441.3725	1454.472	1903.5327	3045.4133	3076.6386	3091.2461	3098.8704	3169.2632	3212.2959	3803.1948
OC1C2C1N1CC(=O)C21	O[C@H]1[C@H]2[C@@H]1N1CC(=O)[C@@H]21	
InChI=1S/C6H7NO2/c8-2-1-7-4(2)3-5(7)6(3)9/h3-6,9H,1H2	InChI=1S/C6H7NO2/c8-2-1-7-4(2)3-5(7)6(3)9/h3-6,9H,1H2/t3-,4+,5+,6+/m1/s1
