17
gdb 90361	2.4152	1.55659	1.31853	5.2121	68.35	-0.2661	0.0126	0.2787	1036.8334	0.134764	-458.97466	-458.966285	-458.96534	-459.007635	31.43	
C	 0.1329447603	 1.622705174	-0.0654928534	-0.485752
C	 0.1293382723	 0.1275186676	 0.082265338	 0.43227
O	-1.2007225686	-0.3789233139	 0.4492835195	-0.275195
C	-0.7083031638	-1.0511076994	 1.5447115885	 0.454526
O	-1.3258222909	-1.6595676241	 2.3580420712	-0.330547
C	 0.7441229954	-0.7230108468	 1.2354965111	-0.289641
C	 1.3109458463	-1.7304289473	 0.1806645962	-0.289353
C	 0.811958378	-0.7881462809	-0.9625236797	 0.086307
O	-0.0629583244	-1.2829723427	-1.9361610397	-0.422204
H	 1.1471313383	 1.9902128895	-0.248305683	 0.123467
H	-0.4972006142	 1.9175015863	-0.9110086854	 0.147628
H	-0.2564723176	 2.104004809	 0.8360826564	 0.134867
H	 1.3891591038	-0.3553622934	 2.0297442071	 0.105821
H	 2.3942521266	-1.8555923636	 0.2207092266	 0.112595
H	 0.8345806444	-2.7124556479	 0.1991493165	 0.129679
H	 1.6610533296	-0.2499391509	-1.4104123333	 0.074598
H	 0.4395758045	-1.8197251355	-2.5572446866	 0.290932
71.5823	169.6912	205.784	230.3031	237.6689	277.2453	319.8546	419.1757	457.2591	554.9592	623.6364	640.8699	735.9597	810.6169	822.5714	870.842	900.8646	935.0962	983.4453	1039.8221	1055.1611	1088.709	1114.4824	1156.7709	1180.6653	1189.9444	1232.9166	1245.7412	1275.1306	1285.643	1341.3647	1413.9986	1437.8227	1481.8965	1483.5685	1490.0257	1934.6941	2985.1911	3040.336	3076.4686	3111.9421	3119.7422	3133.6869	3151.9522	3819.5942
CC12OC(=O)C1CC2O	C[C@]12OC(=O)[C@H]1C[C@H]2O	
InChI=1S/C6H8O3/c1-6-3(2-4(6)7)5(8)9-6/h3-4,7H,2H2,1H3	InChI=1S/C6H8O3/c1-6-3(2-4(6)7)5(8)9-6/h3-4,7H,2H2,1H3/t3-,4-,6+/m1/s1
