17
gdb 8928	3.68194	1.19812	1.06753	2.7404	64.75	-0.256	0.0113	0.2674	1119.2391	0.142537	-397.169528	-397.160373	-397.159429	-397.203361	32.962	
N	-0.1763836459	 1.4240899659	 0.166396121	-0.526059
C	-0.0761039904	-0.0205137249	-0.0295115836	-0.004513
C	-1.47849272	-0.6182102294	 0.1575326365	-0.054012
O	-2.0199453434	-0.2398436541	 1.3988172378	-0.42201
C	 0.5729325937	-0.4668507398	-1.3819747694	-0.142942
N	-0.0647710376	-0.0101578859	-2.6169052343	-0.504452
C	 1.9774422017	-0.0277178116	-1.3862148084	 0.291702
N	 3.0642089237	 0.3614974426	-1.3338729153	-0.317919
H	 0.7382175757	 1.8477571914	 0.2837029006	 0.255414
H	-0.6248258761	 1.8708728758	-0.6289928312	 0.224429
H	 0.5536434705	-0.4097546413	 0.7787948883	 0.113983
H	-2.1306707579	-0.2989922078	-0.6766699173	 0.069121
H	-1.4292748237	-1.7128525719	 0.1321695525	 0.109601
H	-1.751287172	 0.6834187009	 1.5160541856	 0.290178
H	 0.5744353744	-1.564901444	-1.4030609976	 0.136299
H	-1.0233611336	-0.3376256036	-2.6623353883	 0.245611
H	-0.075163559	 1.0034667878	-2.6684438269	 0.235569
65.6968	113.1068	137.6302	205.9708	242.4053	266.0872	306.5732	329.495	361.4673	437.7621	503.5964	547.8647	597.2699	678.3181	804.0231	841.0148	881.3894	894.3629	943.5679	1018.3679	1087.8174	1119.4355	1127.6324	1191.8066	1194.3597	1266.5276	1293.7503	1316.0338	1375.3931	1403.665	1421.4948	1452.8241	1511.3372	1647.8164	1656.3213	2358.8892	2928.0525	3028.8351	3050.0156	3063.4594	3489.116	3505.1785	3580.0778	3598.9377	3721.668
NC(CO)C(N)C#N	N[C@@H](CO)[C@@H](N)C#N	
InChI=1S/C4H9N3O/c5-1-3(6)4(7)2-8/h3-4,8H,2,6-7H2	InChI=1S/C4H9N3O/c5-1-3(6)4(7)2-8/h3-4,8H,2,6-7H2/t3-,4-/m0/s1
