15
gdb 8846	3.78665	1.3101	1.13184	1.9254	59.93	-0.2529	-0.0459	0.207	1061.5278	0.117193	-436.977001	-436.968309	-436.967365	-437.010934	29.825	
C	-0.1390304304	 1.5086801345	-0.8417934262	-0.334189
N	-0.0064168306	 0.0695203289	-0.9427185275	-0.29688
C	 0.7147296408	-0.6628713674	-0.0700644161	 0.348967
O	 1.3572769122	-0.2389344414	 0.8750819149	-0.386375
C	 0.698867439	-2.1791946934	-0.3707827966	-0.037723
O	-0.1434460475	-2.5444081047	-1.4281123025	-0.438681
C	 2.1261756048	-2.6171070779	-0.6566516724	 0.136707
O	 2.3868577972	-3.2373471341	-1.659443206	-0.262236
H	 0.4457258394	 1.8347377227	 0.0194668566	 0.170009
H	 0.2408647466	 2.0047744115	-1.741367186	 0.131728
H	-1.1845511184	 1.8007202933	-0.6960779891	 0.132457
H	-0.497930413	-0.4512904028	-1.6540135221	 0.265422
H	 0.3932571708	-2.6592266207	 0.5725963634	 0.134192
H	 0.429510076	-3.0169677684	-2.0573343965	 0.2995
H	 2.883545183	-2.3256346301	 0.0905656262	 0.137101
63.8499	88.3957	120.0166	167.9481	198.5398	286.3176	337.7911	346.3453	474.7322	530.9506	586.1833	655.0028	736.9381	766.6137	845.3055	905.1229	1027.6811	1099.5573	1153.0025	1158.1022	1185.8716	1210.2718	1262.8087	1315.1465	1371.7359	1416.1567	1443.2202	1495.3898	1498.9988	1571.875	1781.8839	1809.5443	2991.3463	3008.8308	3032.5286	3086.6852	3150.9049	3616.4818	3643.5609
CNC(=O)C(O)C=O	CNC(=O)[C@@H](O)C=O	
InChI=1S/C4H7NO3/c1-5-4(8)3(7)2-6/h2-3,7H,1H3,(H,5,8)	InChI=1S/C4H7NO3/c1-5-4(8)3(7)2-6/h2-3,7H,1H3,(H,5,8)/t3-/m0/s1
