20
gdb 78927	4.40932	1.36324	1.33625	1.0013	82.45	-0.2154	0.0893	0.3048	1053.6125	0.171535	-365.930693	-365.923126	-365.922182	-365.962181	30.813	
C	-0.0868450814	 1.5616906268	 0.0074182984	-0.323082
N	 0.0241134847	 0.1137267089	 0.0061496282	-0.0645
C	 1.0544349059	-0.5225848323	-0.8389583126	-0.036822
C	 2.4782637935	-0.1169393682	-0.3292566059	-0.143476
C	 2.202898191	-0.1394299195	 1.1798580835	-0.143474
C	 0.692940205	-0.5520179028	 1.1419910092	-0.036833
C	 1.1596942047	-1.6997370602	 0.1864377856	-0.129895
C	 2.6674012125	-1.3888416719	 0.4661491728	 0.341222
C	 3.852604138	-2.2742996943	 0.669183767	-0.524446
H	 0.8728786356	 2.074065368	 0.1901491145	 0.100869
H	-0.4773771311	 1.8992238938	-0.9586698046	 0.115936
H	-0.7951085595	 1.8733465707	 0.7826627383	 0.115936
H	 0.8637056764	-0.6094138712	-1.9087665706	 0.065694
H	 3.227343816	 0.5213273764	-0.7795376879	 0.082067
H	 2.7413675208	 0.4816175808	 1.883853422	 0.082066
H	 0.1371629286	-0.66857249	 2.0725464208	 0.065692
H	 0.6665507256	-2.6621623991	 0.0821494956	 0.074332
H	 4.0361488727	-2.9076270003	-0.2069013602	 0.11917
H	 4.7564915126	-1.6801836807	 0.8434422913	 0.120376
H	 3.7179359785	-2.934230465	 1.5344427845	 0.11917
180.1492	186.9436	208.8375	215.594	286.0926	319.3605	542.7179	605.5063	614.3993	714.4746	761.6038	780.8379	809.8935	822.7399	849.1336	853.078	886.5331	887.4395	941.024	949.4341	1002.3492	1018.68	1035.4996	1073.9694	1112.1961	1132.5512	1151.8022	1163.1295	1171.2798	1185.782	1199.3662	1225.2691	1228.3492	1260.7413	1263.25	1297.5909	1410.0641	1440.9553	1457.2165	1484.8828	1485.2846	1497.2785	1503.2342	2965.3154	3018.1651	3058.4849	3076.2482	3089.3002	3095.292	3111.8336	3112.979	3157.3592	3191.9092	3201.8393
CN1C2C3C4C1C2C34C	CN1[C@H]2[C@H]3[C@H]4[C@@H]1[C@@H]2[C@@]34C	
InChI=1S/C8H11N/c1-8-3-4(8)7-5(8)6(3)9(7)2/h3-7H,1-2H3	InChI=1S/C8H11N/c1-8-3-4(8)7-5(8)6(3)9(7)2/h3-7H,1-2H3/t3-,4+,5-,6+,7-,8+
