23
gdb 106513	2.96382	1.38249	1.19162	1.2239	84.86	-0.2335	0.0798	0.3133	1172.3819	0.207524	-388.290755	-388.2823	-388.281356	-388.323418	34.058	
C	-0.1553406453	 1.5500939277	 0.0442929585	-0.382994
C	 0.1294886924	 0.04725424	-0.0375363781	-0.253373
C	 0.7181294118	-0.5235156502	 1.2382952909	 0.451634
C	-0.1041722321	-0.5386238125	 2.5662593502	-0.286241
C	 0.7507279236	-1.7853077244	 2.9412130253	-0.026227
C	 0.874605975	-2.0609342144	 1.4162663949	-0.261514
C	 2.123350639	-1.3265050924	 3.4594463772	-0.224701
C	 2.5137886137	-0.0111510993	 2.7532051815	-0.069038
O	 2.0006979176	 0.0861867293	 1.4275756384	-0.315071
H	 0.7596922483	 2.0987126379	 0.2807499158	 0.131797
H	-0.5494225511	 1.9284324242	-0.9036648209	 0.107036
H	-0.8928131378	 1.7726436512	 0.823421019	 0.110512
H	-0.7906533576	-0.5030256835	-0.2682662303	 0.08782
H	 0.8327240118	-0.1544921783	-0.8552337474	 0.102622
H	-0.0811527783	 0.3405508715	 3.2146386697	 0.096391
H	-1.1443766443	-0.807844652	 2.3654628105	 0.09744
H	 0.304556109	-2.555340591	 3.5742174895	 0.060338
H	 0.0138326185	-2.6088010477	 1.0221482271	 0.089643
H	 1.8035190107	-2.5025720934	 1.0451875634	 0.090467
H	 2.1026257748	-1.1534172753	 4.5416998908	 0.095149
H	 2.8638853397	-2.1127134514	 3.2718629006	 0.100946
H	 2.1495318939	 0.8395781386	 3.3470526602	 0.09349
H	 3.5993402468	 0.0974570753	 2.6718044733	 0.103873
96.6954	153.628	193.2898	228.1778	287.1523	325.8698	397.1849	446.7717	458.5555	489.0336	584.7888	657.2769	774.5413	806.1879	828.4411	849.8771	869.4647	891.3614	918.5244	949.1133	970.118	991.7765	1032.0359	1045.3884	1055.7603	1075.3828	1111.6704	1133.1685	1140.6169	1175.7022	1207.9294	1229.7412	1240.9377	1265.5363	1282.7953	1300.7177	1324.8982	1332.4787	1363.3406	1383.1415	1403.782	1413.8539	1469.4243	1475.1522	1491.0497	1495.1467	1500.943	1511.1442	1527.5601	2991.2758	3026.1897	3028.0935	3037.5081	3048.6661	3061.0034	3063.3078	3065.5645	3080.6998	3081.7155	3101.0352	3110.0477	3114.9721	3125.3038
CCC12CC(C1)CCO2	CC[C@@]12C[C@@H](C1)CCO2	
InChI=1S/C8H14O/c1-2-8-5-7(6-8)3-4-9-8/h7H,2-6H2,1H3	InChI=1S/C8H14O/c1-2-8-5-7(6-8)3-4-9-8/h7H,2-6H2,1H3/t7-,8+
