23
gdb 107407	2.76135	1.24592	1.00177	1.2643	85.81	-0.2293	0.0826	0.3119	1317.397	0.205504	-388.29735	-388.288018	-388.287074	-388.331354	36.058	
C	-0.2491905603	 1.5328594866	-0.0997911921	-0.373663
C	 0.0912706657	 0.0428498125	 0.0215070346	-0.255707
C	 0.7657523757	-0.503555752	-1.2115684799	 0.459441
C	 0.0076674467	-0.9830852283	-2.4232334017	-0.33763
C	 0.8416586011	-1.9541051626	-1.6027758324	-0.127161
C	 2.276750637	-2.1992014191	-2.0604141656	-0.262001
C	 3.0164494208	-0.9281436651	-1.5820299418	 0.153419
C	 4.144899596	-0.4459525021	-2.4761365599	-0.404106
O	 2.0112779142	 0.0953563738	-1.5110403022	-0.319158
H	 0.6550743001	 2.1145030691	-0.2987335282	 0.132947
H	-0.9496197502	 1.7104615033	-0.922549935	 0.11444
H	-0.7048919163	 1.9095942614	 0.8209631313	 0.105041
H	 0.7506741543	-0.1164154301	 0.8845064099	 0.096488
H	-0.8193402289	-0.5386257605	 0.2093547874	 0.092093
H	-1.0723327288	-1.070250232	-2.3534148187	 0.105391
H	 0.3824691451	-0.6840994798	-3.3966848831	 0.1099
H	 0.3294306828	-2.7173878061	-1.0279497725	 0.086669
H	 2.7021074913	-3.101330294	-1.6118404822	 0.101742
H	 2.3479454083	-2.30721641	-3.1492218965	 0.099433
H	 3.4056995975	-1.1065801633	-0.5657817981	 0.065223
H	 3.7763276039	-0.2625254194	-3.4903044149	 0.119178
H	 4.5721065947	 0.4846279704	-2.0921376479	 0.124612
H	 4.9414713294	-1.1953942728	-2.5241635305	 0.113409
84.6951	89.8218	146.6797	205.6195	236.7731	274.1666	305.1671	380.1326	397.4253	439.589	470.4931	594.5901	645.9681	744.6615	783.3285	832.9945	845.3281	878.427	903.1711	926.3175	974.2278	975.8545	990.3898	1021.6763	1049.9437	1063.9129	1092.9758	1110.2414	1127.0795	1147.5031	1161.8532	1222.9743	1235.5216	1256.3898	1296.8895	1313.457	1358.1905	1369.3663	1390.2416	1403.684	1407.4762	1414.8085	1473.8241	1479.8573	1484.1645	1495.2227	1496.7655	1500.011	1510.4983	2957.2256	3020.4745	3033.7634	3038.6337	3039.26	3059.2738	3090.3295	3105.5612	3111.5145	3117.3863	3119.801	3120.6968	3169.4151	3212.0089
CCC12CC1CC(C)O2	CC[C@]12C[C@H]1C[C@@H](C)O2	
InChI=1S/C8H14O/c1-3-8-5-7(8)4-6(2)9-8/h6-7H,3-5H2,1-2H3	InChI=1S/C8H14O/c1-3-8-5-7(8)4-6(2)9-8/h6-7H,3-5H2,1-2H3/t6-,7-,8+/m1/s1
