17
gdb 30497	4.00035	1.1416	0.89801	1.1273	83.39	-0.2234	-0.046	0.1774	1288.6063	0.135591	-418.047949	-418.039218	-418.038274	-418.081928	31.214	
C	 0.0660008111	 1.474571568	 0.008545338	-0.321993
N	 0.1095054674	 0.0260168422	-0.0892116502	-0.320401
C	 0.579916414	-0.6467752086	 0.8705353291	 0.413019
O	 1.0610820826	 0.0024991429	 2.0322477587	-0.230438
C	 1.5581900987	-0.7318739518	 3.042942999	 0.131023
N	 1.661485303	-1.999702117	 3.1027901802	-0.329272
C	 1.204978697	-2.7176798408	 1.9871282431	 0.313324
C	 1.344428242	-4.2036292462	 2.0984914147	-0.4658
C	 0.6855162001	-2.0866081263	 0.9124748586	-0.231446
H	 1.0659521131	 1.9100847568	 0.1393168589	 0.120612
H	-0.3675625155	 1.8800004283	-0.9083914963	 0.121415
H	-0.5436248043	 1.8130766337	 0.8573393098	 0.120643
H	 1.8861892878	-0.0957785756	 3.8607536644	 0.142344
H	 2.3949067608	-4.4724643854	 2.2552152823	 0.14413
H	 0.7938902242	-4.5689373339	 2.9724480619	 0.14413
H	 0.9751792589	-4.7123018106	 1.2058338001	 0.127571
H	 0.327709889	-2.6205632058	 0.0418209178	 0.12114
56.3194	104.6029	154.8309	165.4397	197.5544	293.2026	325.1416	407.7705	449.5587	513.6624	625.3248	632.6537	744.1278	758.6443	849.4032	886.8397	941.1297	964.3618	1010.2319	1034.907	1066.1412	1108.2363	1132.4515	1159.321	1214.7609	1253.6747	1350.8948	1411.4725	1418.7637	1439.1829	1469.287	1480.5311	1485.3232	1499.7083	1635.7675	1688.3048	1766.5178	2999.2047	3036.594	3048.2083	3091.7409	3108.1349	3134.807	3181.7177	3221.0213
CN=C1OC=NC(C)=C1	C[N]C1=C[C@@H](N=CO1)C	
InChI=1S/C6H8N2O/c1-5-3-6(7-2)9-4-8-5/h3-4H,1-2H3	InChI=1S/C6H9N2O/c1-5-3-6(7-2)9-4-8-5/h3-5H,1-2H3/t5-/m0/s1
