19
gdb 64002	3.19385	1.04293	0.94526	4.2803	80.11	-0.2487	-0.0549	0.1938	1300.619	0.157636	-423.058852	-423.049839	-423.048895	-423.092631	34.101	
C	-0.1272521738	 1.5434434836	-0.0512376651	-0.439412
C	-0.0048888101	 0.0177767675	-0.0096196339	 0.400226
O	-1.2947035266	-0.583959244	-0.0071990432	-0.473251
C	 0.8937181606	-0.4969480593	-1.1834099185	-0.322194
C	 2.2240027899	-0.7482251297	-0.5362090857	-0.143986
C	 2.1422688543	-0.7216532348	 0.803222144	 0.2451
C	 0.7354011826	-0.4498111384	 1.2724752376	-0.353363
C	 3.2755904923	-0.9551827703	 1.6998513103	 0.065869
O	 3.2040843776	-0.9451453267	 2.9093230455	-0.270554
H	 0.8580847654	 2.0180248543	 0.0003995936	 0.124647
H	-0.6046729533	 1.8721716426	-0.9829652088	 0.104656
H	-0.7288077094	 1.8985299348	 0.7903482703	 0.129084
H	-1.812236131	-0.1876345787	-0.7162457495	 0.275407
H	 0.4741319996	-1.4309829586	-1.5810890178	 0.12636
H	 0.9504406588	 0.2086666297	-2.0214206854	 0.105389
H	 3.1335092799	-0.9519443009	-1.0934193856	 0.108825
H	 0.6936331582	 0.2867001428	 2.0799850026	 0.119552
H	 0.2642929457	-1.3632951924	 1.6525010859	 0.13234
H	 4.2424244694	-1.1457987716	 1.1810471436	 0.065306
62.0944	114.4308	166.4413	272.8121	290.042	291.0533	328.538	344.6011	423.2726	440.4223	451.0011	485.0539	608.0403	725.8995	768.6164	834.3172	884.7301	909.9017	937.9755	964.5615	968.3797	1000.7824	1036.816	1090.674	1121.0986	1145.7499	1181.4852	1216.2049	1264.4283	1279.5361	1301.5537	1371.8431	1386.4941	1406.0485	1420.1214	1465.7902	1478.4441	1492.7401	1498.0685	1680.3802	1784.8156	2872.9911	3016.032	3022.7365	3049.2026	3052.8697	3088.2115	3093.0296	3116.3072	3181.4069	3806.0401
CC1(O)CC=C(C1)C=O	C[C@@]1(O)CC=C(C1)C=O	
InChI=1S/C7H10O2/c1-7(9)3-2-6(4-7)5-8/h2,5,9H,3-4H2,1H3	InChI=1S/C7H10O2/c1-7(9)3-2-6(4-7)5-8/h2,5,9H,3-4H2,1H3/t7-/m1/s1
