16
gdb 16286	3.3955	1.76941	1.43067	0.9156	72.12	-0.2321	0.0321	0.2642	912.9913	0.128661	-346.5322	-346.524522	-346.523578	-346.563818	29.442	
C	-0.0602127246	 1.5605128976	-0.0047205332	-0.412452
C	 0.0977964735	 0.057113882	 0.0391223715	 0.106213
O	 1.1569490201	-0.4560618863	-0.8251570473	-0.301293
C	 1.7068814411	-1.2082888879	 0.2477698449	 0.05978
C	 2.2117337214	-0.3176748638	 1.3272344357	-0.343329
C	 0.7184919185	-0.6381695342	 1.2673095656	 0.085871
C	-0.0083633423	-1.2356171892	 2.3289854527	 0.181085
C	-0.6482098686	-1.7257615893	 3.2235330721	-0.407075
H	 0.854069964	 2.0729190697	 0.3054513178	 0.12299
H	-0.305633508	 1.8826387968	-1.0215922435	 0.13194
H	-0.8764022281	 1.8676288554	 0.6573915118	 0.128967
H	-0.8419255082	-0.4410109647	-0.2273029699	 0.091483
H	 2.0254763325	-2.2260297112	 0.0554114233	 0.11804
H	 2.721740286	-0.8109772181	 2.1478093447	 0.131309
H	 2.5739135826	 0.6754258795	 1.0793927991	 0.12015
H	-1.20786192	-2.1632392463	 4.0124759847	 0.186319
125.1375	157.4157	207.5101	219.6664	302.4203	450.016	461.6563	508.5323	529.5933	567.0992	615.235	655.9218	708.3406	827.4449	861.9637	894.7225	904.1275	997.9641	1021.962	1048.0399	1083.3349	1090.963	1123.5489	1136.0893	1212.2071	1260.5463	1285.6197	1378.1972	1390.3303	1413.013	1475.4975	1482.8542	1492.774	2232.2136	3036.3995	3042.3222	3110.9989	3123.4905	3126.9017	3187.6872	3222.4585	3503.3122
CC1OC2CC12C#C	C[C@H]1O[C@H]2C[C@@]12C#C	
InChI=1S/C7H8O/c1-3-7-4-6(7)8-5(7)2/h1,5-6H,4H2,2H3	InChI=1S/C7H8O/c1-3-7-4-6(7)8-5(7)2/h1,5-6H,4H2,2H3/t5-,6+,7+/m1/s1
