17
gdb 49529	4.39077	1.06101	0.95284	3.1906	74.72	-0.2353	-0.0282	0.207	1230.7094	0.134393	-421.733795	-421.726021	-421.725077	-421.766283	29.785	
O	-0.0384080219	-0.0656457269	-0.1921654785	-0.2577
C	-0.0006587734	 1.1155961688	 0.0545781644	 0.128213
C	 1.2723899713	 1.913186689	 0.0383667451	-0.083791
C	 1.2186736572	 3.3546313934	-0.5675227929	-0.073124
O	 0.3757938686	 3.7791703862	 0.577825797	-0.307452
C	 1.4762903688	 2.9769040759	 1.1676235309	-0.072972
C	 2.4606087459	 3.7183132268	 0.2551048691	 0.475506
C	 3.9300565453	 3.6670306204	 0.0257806939	-0.357119
C	 3.2346604371	 4.9720477436	 0.4131129174	-0.36557
H	-0.9123870195	 1.689030661	 0.3116950929	 0.10194
H	 2.1321037648	 1.2934980391	-0.2239486035	 0.097811
H	 0.9140059041	 3.665766285	-1.566885831	 0.108987
H	 1.4803863327	 2.8348858933	 2.2484351432	 0.109055
H	 4.555142414	 3.1848987909	 0.7704204366	 0.123586
H	 4.2934761321	 3.5685287405	-0.9920107956	 0.123575
H	 3.1371993346	 5.7393575593	-0.3477430304	 0.124526
H	 3.3988851582	 5.3556497334	 1.4146366915	 0.124529
88.3064	128.9873	213.0019	257.3742	277.4836	342.5928	415.0189	488.1492	605.0195	717.4945	718.8793	747.622	774.4353	869.0956	874.6951	918.9305	948.1514	965.0149	1014.9516	1040.245	1050.6314	1082.5403	1111.3016	1111.5759	1134.1848	1138.6218	1175.9708	1182.3147	1188.6997	1205.2316	1254.201	1318.1455	1415.8457	1427.5989	1461.8096	1523.7444	1815.5095	2948.5811	3105.139	3121.1294	3126.0559	3128.2098	3132.0755	3206.7128	3220.3402
O=CC1C2OC1C21CC1	O=C[C@H]1[C@H]2O[C@@H]1C12CC1	
InChI=1S/C7H8O2/c8-3-4-5-7(1-2-7)6(4)9-5/h3-6H,1-2H2	InChI=1S/C7H8O2/c8-3-4-5-7(1-2-7)6(4)9-5/h3-6H,1-2H2/t4-,5+,6-
