19
gdb 66451	3.04193	1.65207	1.4872	1.7883	78.26	-0.2378	0.0858	0.3236	989.0476	0.158926	-385.819404	-385.811806	-385.810861	-385.850926	30.705	
C	-0.0105352566	 1.4453201261	 0.0290242667	-0.521512
C	 0.0145096004	-0.0513173812	-0.0286572577	 0.353348
C	-0.9400122316	-0.9693485261	 0.7390121859	-0.141641
C	 0.5566382826	-1.0750612144	 0.9465682771	-0.23751
C	 0.5795938656	-2.1068738567	-0.2295635134	 0.341108
C	 1.4999200976	-3.2667399338	-0.4580399788	-0.538866
C	-0.9904323765	-2.1431418689	-0.2709646017	 0.020868
O	-1.0312434761	-1.5812733895	-1.6031028089	-0.297916
C	 0.236744216	-0.9773982758	-1.2605138875	-0.044073
H	 0.9452105097	 1.8761438583	-0.290593829	 0.118314
H	-0.7950884191	 1.8500656638	-0.6206946706	 0.127953
H	-0.2066019907	 1.7983949963	 1.0470175882	 0.12076
H	-1.7045998635	-0.5899076978	 1.4036957344	 0.087574
H	 1.1582836999	-0.9626344342	 1.8378133111	 0.088738
H	 1.4383907228	-3.9922420855	 0.3609873811	 0.121945
H	 1.2396136967	-3.7831947068	-1.3885369337	 0.13201
H	 2.5430108647	-2.9388929119	-0.5333351376	 0.12147
H	-1.6410680768	-3.0049054988	-0.1238174169	 0.075725
H	 0.8304195447	-0.6539696929	-2.1161905885	 0.071702
181.5523	196.7298	219.6887	231.774	256.6841	315.0051	533.3632	551.7779	576.5226	657.2011	761.0905	788.8924	823.2657	829.9509	853.5492	859.7505	869.6066	898.8338	924.9806	933.239	967.8863	1014.4678	1073.587	1077.9396	1106.7923	1136.745	1144.0086	1158.7318	1170.741	1198.8305	1236.6145	1272.6407	1293.9103	1369.2976	1407.1163	1411.7146	1433.1469	1486.4981	1487.1161	1491.7264	1498.8285	3022.4285	3023.1778	3083.0139	3086.3246	3093.8587	3095.1232	3116.1634	3123.9683	3200.7002	3213.8778
CC12C3C1C1(C)C3OC21	C[C@]12[C@@H]3[C@H]1[C@@]1(C)[C@@H]3O[C@@H]21	
InChI=1S/C8H10O/c1-7-3-4(7)8(2)5(3)9-6(7)8/h3-6H,1-2H3	InChI=1S/C8H10O/c1-7-3-4(7)8(2)5(3)9-6(7)8/h3-6H,1-2H3/t3-,4-,5-,6+,7+,8+/m1/s1
