23
gdb 102748	2.65058	0.86563	0.73614	2.5707	86.81	-0.2447	-0.0187	0.2261	1657.8394	0.203444	-388.294169	-388.283536	-388.282592	-388.331419	37.816	
C	 0.0975673246	 1.5034147068	 0.1772307161	-0.39215
C	-0.0312158759	-0.0098608979	-0.0234968666	-0.197009
C	 0.691384971	-0.5340616453	-1.2814963129	-0.044452
C	 0.6549766415	-2.078140688	-1.3504268272	-0.240816
C	 1.5049443362	-2.6605578825	-2.4604528578	 0.026792
C	 2.9724555613	-2.9249229553	-2.2307897537	-0.252801
C	 2.0075508576	-4.0779160065	-2.3669660005	-0.281035
C	 0.0226986468	 0.0301108194	-2.5189487144	 0.171284
O	 0.5519824231	 0.6952823928	-3.3713058665	-0.257825
H	 1.1473493136	 1.7995297439	 0.2747515002	 0.122984
H	-0.32147236	 2.0611163361	-0.6667476243	 0.128788
H	-0.426955302	 1.8242887735	 1.0821924621	 0.116002
H	 0.3747754829	-0.5349854031	 0.849196971	 0.102271
H	-1.0923950104	-0.2900061738	-0.0773226674	 0.100342
H	 1.7326228845	-0.1925464375	-1.2857669395	 0.092991
H	 0.9956293838	-2.4749929071	-0.385768931	 0.097067
H	-0.3880799699	-2.4081719769	-1.462347319	 0.09954
H	 1.242836377	-2.3180538728	-3.4582882493	 0.095973
H	 3.6673696542	-2.7333158068	-3.0405119848	 0.116186
H	 3.3746393175	-2.7183677743	-1.2439085715	 0.108421
H	 1.7648020336	-4.6433213235	-1.4728177574	 0.108935
H	 2.0408988662	-4.6749124433	-3.2715665734	 0.113682
H	-1.0619569075	-0.2355878077	-2.5927830123	 0.064831
43.2915	52.4485	68.688	105.7353	126.7408	219.3548	243.5456	296.5921	330.8695	340.6465	395.0631	469.4224	544.4171	770.7644	774.3295	795.8809	830.0925	865.4859	890.7106	930.3218	967.8543	972.2183	1009.0327	1033.0442	1053.9843	1075.2748	1077.4088	1126.1107	1132.6658	1148.4245	1181.88	1197.5354	1231.537	1249.3362	1267.8023	1290.1273	1349.4151	1356.5019	1368.8849	1417.7695	1419.4468	1428.0406	1468.441	1478.4926	1490.6659	1500.0068	1504.0245	1506.506	1832.7449	2818.0436	3002.9095	3015.207	3036.2066	3044.3781	3050.0419	3063.5671	3104.3241	3108.5585	3127.7911	3132.4278	3140.1618	3206.6452	3221.7357
CCC(CC1CC1)C=O	CC[C@@H](CC1CC1)C=O	
InChI=1S/C8H14O/c1-2-7(6-9)5-8-3-4-8/h6-8H,2-5H2,1H3	InChI=1S/C8H14O/c1-2-7(6-9)5-8-3-4-8/h6-8H,2-5H2,1H3/t7-/m0/s1
