18
gdb 52268	3.96666	0.76041	0.67172	3.3821	74.47	-0.2504	-0.0216	0.2288	1608.498	0.146618	-439.09264	-439.083553	-439.082609	-439.128025	31.783	
N	-0.005071694	 1.1801613868	-0.1881626865	-0.543373
C	 0.0072493117	-0.059066005	 0.0054038506	 0.446221
O	 1.0279561314	-0.9001985349	 0.3921320419	-0.250038
C	 0.1251675852	-2.0511435168	 0.4198646026	-0.112119
C	-1.043282147	-1.1548398792	-0.049913037	-0.130078
C	-2.2524260185	-0.9890938054	 0.8693940184	-0.228675
C	-3.2060734213	 0.1152087418	 0.3768798353	-0.277451
C	-4.2897345793	 0.4103964864	 1.3865010519	 0.156648
O	-5.4725391807	 0.3686446348	 1.1670891588	-0.237144
H	 0.912535163	 1.5978323922	-0.0243074088	 0.231876
H	 0.4593640994	-2.8285172244	-0.2705760623	 0.125887
H	 0.0394458508	-2.4514748485	 1.4337825915	 0.123202
H	-1.3646688115	-1.3687799121	-1.0733858075	 0.11403
H	-2.7892188881	-1.9430486718	 0.936474269	 0.117148
H	-1.9042348179	-0.7505516113	 1.8828496196	 0.111165
H	-2.6223125682	 1.0338766846	 0.2259772894	 0.162377
H	-3.6755289125	-0.1545141298	-0.5737072392	 0.119552
H	-3.9059418823	 0.6822623427	 2.3991381922	 0.070772
53.0298	67.6594	98.2853	125.4602	169.7032	252.5229	328.9741	354.6474	462.6592	527.2174	663.5928	747.7262	767.9287	803.5596	864.0119	882.6328	931.1293	963.75	1000.4992	1018.6422	1033.5766	1091.8853	1100.2526	1146.6957	1164.4881	1193.8404	1233.8738	1244.5892	1280.4321	1317.5163	1335.9563	1379.8662	1388.2873	1432.1058	1469.0489	1495.5246	1516.4771	1819.0738	1837.5446	2846.0058	3019.6275	3028.4821	3058.6359	3061.6439	3077.0551	3102.0168	3122.9902	3476.8399
N=C1OCC1CCC=O	[NH][C]1OC[C@H]1CCC=O	
InChI=1S/C6H9NO2/c7-6-5(4-9-6)2-1-3-8/h3,5,7H,1-2,4H2	InChI=1S/C6H9NO2/c7-6-5(4-9-6)2-1-3-8/h3,5,7H,1-2,4H2/t5-/m1/s1
