13
gdb 24947	4.99655	1.32923	1.05683	3.1692	64.21	-0.2233	-0.0197	0.2036	1027.0687	0.090904	-456.610684	-456.60429	-456.603346	-456.641652	24.661	
O	-0.0092081375	 0.0533399238	 0.0036689761	-0.297938
C	-0.0487299788	 1.2407064579	 0.0105691819	 0.410034
C	-1.3067007586	 2.1628016389	 0.0331815317	-0.510277
C	-0.6286073236	 3.4782000858	 0.0305602784	 0.254716
C	 0.7086698829	 3.3301677349	 0.010933871	 0.317698
O	 1.1168593155	 2.0130577599	-0.0018056025	-0.244475
C	 1.3015362222	 4.6226958458	 0.0095072097	-0.351686
C	 0.2235981469	 5.4663826325	 0.0292836136	-0.001289
O	-0.9662593648	 4.7878661864	 0.042333018	-0.187204
H	-1.9245644198	 1.9361229483	-0.8429084975	 0.164226
H	-1.8996309219	 1.9268198468	 0.9239238769	 0.164224
H	 2.3408992197	 4.90493271	-0.0036344748	 0.134978
H	 0.1406592076	 6.5399727289	 0.0362239777	 0.146993
113.0309	187.8759	335.7102	349.8447	540.222	562.4527	565.4676	606.624	686.5748	723.3687	724.1713	785.5519	815.8088	844.0406	924.0622	971.4779	1012.8676	1044.8199	1144.078	1146.0455	1185.8722	1226.8747	1289.904	1379.8008	1454.0642	1493.6842	1506.2604	1673.314	1917.7236	3044.3164	3077.8971	3273.1772	3295.4055
O=C1CC2=C(O1)C=CO2	O=C1Cc2c(O1)cco2	
InChI=1S/C6H4O3/c7-6-3-5-4(9-6)1-2-8-5/h1-2H,3H2	InChI=1S/C6H4O3/c7-6-3-5-4(9-6)1-2-8-5/h1-2H,3H2
