22
gdb 105243	2.58272	1.23938	0.98298	3.0137	82.18	-0.2434	0.0647	0.308	1299.946	0.194078	-404.309726	-404.300224	-404.299279	-404.343912	36.401	
C	-0.0643213143	 1.2969523819	-0.3651078603	-0.420354
C	 0.2717904559	-0.1216934625	 0.0309706196	-0.010644
N	 1.6854153608	-0.4671142959	 0.3017824589	-0.3975
C	 0.6964517516	-0.5701299348	 1.3890858326	 0.249707
C	 0.9677205487	 0.4275838156	 2.5231850037	-0.1124
O	 1.7927431164	 1.5009040237	 2.1311238615	-0.42096
C	 0.2299611931	-1.9097195815	 1.8927604351	-0.053375
C	 0.3701565415	-3.1848797544	 1.1054407902	-0.293708
C	 1.2128076046	-2.9658796511	 2.3382282643	-0.266446
H	 0.189231448	 1.4699628374	-1.4169047997	 0.114831
H	-1.1396568722	 1.4730154599	-0.249958931	 0.11382
H	 0.4733879554	 2.0172395784	 0.2517216719	 0.150938
H	-0.283168478	-0.8792335215	-0.5223694398	 0.083206
H	 1.934393565	-1.3715657807	-0.0877832475	 0.229264
H	 0.0204032693	 0.8424508931	 2.8911047527	 0.102422
H	 1.4226608358	-0.1312620949	 3.3580537133	 0.088956
H	 2.3546557345	 1.1335848908	 1.4300226744	 0.288735
H	-0.6743995729	-1.8347289066	 2.4930191984	 0.092495
H	-0.4422547658	-3.9014755043	 1.1505331314	 0.118167
H	 0.8667086538	-3.1570645651	 0.1397269226	 0.107262
H	 2.2684444084	-2.7616979478	 2.1906951495	 0.118341
H	 0.9922358005	-3.5422491096	 3.2294736382	 0.117244
70.3659	117.3245	166.8844	202.7096	208.7245	221.6695	289.3185	318.7621	412.829	478.2649	485.6152	571.213	577.7303	690.874	776.4926	789.4658	826.9	856.9333	889.6701	927.2934	965.0305	1013.9463	1032.6838	1057.5957	1065.1247	1077.7271	1085.2255	1100.5473	1118.5684	1138.0655	1158.1281	1196.5119	1220.2307	1234.9375	1240.2723	1260.0634	1332.3951	1368.0977	1410.0122	1413.5364	1448.1523	1471.5358	1475.5045	1498.1778	1507.7149	1510.8192	1519.6983	2962.241	3034.7349	3036.7909	3091.1822	3103.8336	3126.6181	3127.9675	3134.4699	3155.185	3204.6212	3221.8207	3511.0864	3680.5229
CC1NC1(CO)C1CC1	C[C@H]1N[C@]1(CO)C1CC1	
InChI=1S/C7H13NO/c1-5-7(4-9,8-5)6-2-3-6/h5-6,8-9H,2-4H2,1H3	InChI=1S/C7H13NO/c1-5-7(4-9,8-5)6-2-3-6/h5-6,8-9H,2-4H2,1H3/t5-,7+/m1/s1
