20
gdb 102631	1.94692	1.02575	0.75971	2.6319	71.57	-0.2493	0.0292	0.2785	1523.3745	0.168888	-477.447283	-477.436276	-477.435332	-477.484618	38.678	
N	-2.2504671845	 0.8782444907	 1.5622652323	-0.523108
C	-1.7577419876	-0.3918935165	 1.4673376574	 0.410914
O	-1.6983874657	-1.1356993326	 2.4296872273	-0.365056
C	-1.2966489306	-0.7916675751	 0.0667950256	-0.339846
C	-0.9733395354	-2.2829837976	-0.0587792776	-0.005482
C	-2.2459011376	-3.1413395186	-0.0961822191	-0.08303
O	-1.9720959635	-4.5352189036	-0.0536566968	-0.422227
C	-0.0914404434	-2.557325617	-1.2831098108	-0.085674
O	 1.1451621917	-1.8538339625	-1.2476669085	-0.422887
H	-2.4736977942	 1.2321199588	 2.4781947887	 0.259974
H	-2.1932667166	 1.5280743395	 0.7975888979	 0.258801
H	-2.0569199551	-0.49096607	-0.666893341	 0.109242
H	-0.3931652508	-0.2182492597	-0.1746969491	 0.139551
H	-0.4169879815	-2.5698932891	 0.8448439025	 0.079203
H	-2.9119150023	-2.8428195447	 0.7234452734	 0.109163
H	-2.7817537764	-2.9733820472	-1.039385141	 0.102283
H	-1.6720234047	-4.7414035741	 0.8374540708	 0.286018
H	 0.0604002364	-3.639508011	-1.3817551632	 0.107215
H	-0.5969386156	-2.2129011816	-2.1937396632	 0.102891
H	 1.6671107575	-2.2189097679	-0.5258468758	 0.282056
28.1427	77.442	88.0259	124.5378	185.8842	209.5001	216.0144	249.7431	314.8669	325.014	353.482	404.6168	477.046	510.2719	552.4022	630.835	643.3895	830.8815	863.5777	888.6691	931.7251	1042.7222	1061.2645	1074.613	1087.4697	1105.3603	1132.9685	1163.1241	1190.5694	1260.4374	1279.7284	1338.284	1347.6557	1392.1555	1398.5469	1406.9403	1413.988	1421.8289	1465.6281	1501.5379	1510.3484	1617.9501	1788.4922	3010.2231	3014.1965	3019.4938	3024.782	3059.6809	3063.949	3068.633	3599.4652	3734.5354	3814.0705	3816.363
NC(=O)CC(CO)CO	NC(=O)CC(CO)CO	
InChI=1S/C5H11NO3/c6-5(9)1-4(2-7)3-8/h4,7-8H,1-3H2,(H2,6,9)	InChI=1S/C5H11NO3/c6-5(9)1-4(2-7)3-8/h4,7-8H,1-3H2,(H2,6,9)
