21
gdb 95660	2.88809	1.18972	0.89342	3.7583	87.16	-0.2368	-0.0477	0.1891	1335.4158	0.183792	-387.129257	-387.120464	-387.119519	-387.163316	33.575	
C	 0.5165894377	 1.6391001799	 0.024620726	-0.400916
C	-0.0715122161	 0.2195908398	-0.1015938698	-0.031269
C	 0.4716653873	-0.4723100812	-1.3576469525	-0.190732
C	-0.0377594177	-1.8975355417	-1.597970686	-0.231753
C	 0.7198847064	-2.9707444997	-0.8119121085	-0.297171
C	 0.5681833571	-3.0040214359	 0.7030171436	 0.359752
O	 0.6552596602	-4.0724539903	 1.2822815966	-0.325928
C	 0.3492110544	-1.7868802308	 1.5231711148	-0.170888
C	 0.0864984637	-0.5109001802	 1.2060261811	-0.016204
H	 1.5993708079	 1.6004511006	 0.1861460062	 0.124334
H	 0.3326895535	 2.2149031073	-0.8874914013	 0.117294
H	 0.0719679604	 2.1842097743	 0.8630714828	 0.117025
H	-1.1600098741	 0.3393618445	-0.238352514	 0.098526
H	 0.2048955209	 0.1572400846	-2.2146726638	 0.096861
H	 1.5697663779	-0.4813099969	-1.3190820759	 0.096712
H	-1.1128514786	-1.9550415725	-1.3831328087	 0.10224
H	 0.0693067936	-2.1346911265	-2.6623839612	 0.103369
H	 0.4526960701	-3.9735590239	-1.1571047774	 0.122476
H	 1.7965833451	-2.8602437985	-1.00930518	 0.122914
H	 0.3697788755	-2.0433746622	 2.5798922545	 0.103141
H	-0.0823259452	 0.1446000694	 2.0616849634	 0.100214
35.8118	98.4331	223.0302	250.2575	264.199	296.1578	344.8671	382.2235	438.5216	484.046	516.6076	635.7869	674.6411	725.2409	815.5789	830.6045	869.3062	899.5826	928.6934	982.1536	1003.0571	1039.3254	1060.82	1094.6458	1106.3601	1139.7386	1200.0243	1212.8115	1247.5777	1290.9473	1299.9824	1310.3156	1367.861	1371.9311	1383.5366	1388.8124	1408.538	1434.9499	1457.5314	1489.7893	1491.4054	1498.8359	1503.1603	1693.6519	1746.4706	2958.6118	3009.2705	3013.6115	3023.8306	3033.5125	3057.6693	3064.8798	3090.7974	3102.9175	3108.0306	3113.6036	3160.83
CC1CCCC(=O)C=C1	C[C@H]1CCCC(=O)C=C1	
InChI=1S/C8H12O/c1-7-3-2-4-8(9)6-5-7/h5-7H,2-4H2,1H3	InChI=1S/C8H12O/c1-7-3-2-4-8(9)6-5-7/h5-7H,2-4H2,1H3/t7-/m0/s1
