18
gdb 35665	4.1882	0.904	0.78948	3.7574	82.75	-0.2706	0.0279	0.2984	1411.2076	0.148408	-364.812727	-364.804018	-364.803073	-364.847516	32.327	
C	-0.1648715448	-1.1697279226	-0.671965439	-0.435636
C	-0.1345060228	-0.0513604739	-0.2320703531	 0.29162
C	-0.0811233191	 1.2958462137	 0.3134490425	-0.149357
C	-0.3454158284	 1.3894531119	 1.8346514173	-0.217299
C	 0.1283961203	 2.80471483	 2.1782551065	-0.232611
C	 1.4365283871	 2.9724456981	 1.3480963979	-0.136797
C	 1.300276874	 1.98910653	 0.1348039599	-0.237454
C	 1.6786666604	 4.3550426134	 0.9477983316	 0.262423
N	 1.8588559362	 5.4509047422	 0.6261040035	-0.326428
H	-0.1982440757	-2.1552952358	-1.0659118517	 0.197612
H	-0.8391909373	 1.9080832804	-0.1926960815	 0.113785
H	-1.3928309943	 1.212334694	 2.0889237551	 0.117461
H	 0.2569623923	 0.6377007217	 2.3569763057	 0.115149
H	-0.6128214571	 3.5399345109	 1.8493982124	 0.127052
H	 0.299596516	 2.9650522429	 3.2447133461	 0.117844
H	 2.2887329313	 2.6614817028	 1.9606865483	 0.129686
H	 2.0983620365	 1.2449035772	 0.1712140413	 0.126879
H	 1.3745232057	 2.5029203931	-0.824481033	 0.13607
16.4201	116.3969	147.6869	195.7826	252.7648	281.4866	447.8955	497.6058	508.5359	536.1999	561.7052	604.5374	632.5333	638.8131	789.1216	830.2967	872.5819	935.7132	961.3992	1009.3778	1015.8738	1033.8585	1080.1101	1091.8279	1159.9041	1189.5987	1240.4849	1286.0245	1296.4243	1313.3015	1316.8308	1328.8801	1363.584	1375.2325	1490.2627	1493.9832	1504.9303	2238.4255	2354.9547	3017.256	3050.3741	3053.9839	3061.7021	3082.717	3110.2384	3118.4444	3133.5074	3504.0997
C#CC1CCC(C1)C#N	C#C[C@H]1CC[C@@H](C1)C#N	
InChI=1S/C8H9N/c1-2-7-3-4-8(5-7)6-9/h1,7-8H,3-5H2	InChI=1S/C8H9N/c1-2-7-3-4-8(5-7)6-9/h1,7-8H,3-5H2/t7-,8-/m0/s1
