17
gdb 102341	1.72252	1.5531	1.1809	4.9275	74.93	-0.2688	-0.0025	0.2663	1157.9736	0.133603	-417.95635	-417.946309	-417.945365	-417.991188	36.043	
C	-0.1383398503	 1.4774992839	-0.0402844332	-0.338598
N	 0.2081744843	 0.053215524	-0.0560601251	-0.323834
C	 0.769218391	-0.4901533601	 1.2019315982	-0.148348
C	 2.2692170366	-0.0509032069	 1.2728136484	-0.048148
O	 2.9402717124	-0.4022829982	 0.098824988	-0.414437
C	 0.0641904335	-0.0758647926	 2.4245439672	 0.333994
C	-0.4929592445	 0.3126748925	 3.4154763076	-0.427264
C	 0.711307249	-1.9637521147	 1.0928745815	 0.300172
N	 0.6428995373	-3.1132814068	 1.0106446851	-0.330555
H	 0.7643279263	 2.0844060533	 0.0711157696	 0.139572
H	-0.5843039142	 1.72421829	-1.0066579491	 0.136054
H	-0.8401819279	 1.7540891997	 0.7578177534	 0.129442
H	-0.6031942007	-0.4947249336	-0.3188387421	 0.248794
H	 2.2842329869	 1.0320614854	 1.4687994418	 0.103254
H	 2.7512136792	-0.5525518423	 2.1154009392	 0.135459
H	 2.3197453659	-0.2203163982	-0.6231804216	 0.292108
H	-0.9899349047	 0.6339699844	 4.2982934608	 0.212334
82.3235	122.474	128.4839	135.4851	174.483	198.7839	255.0794	309.776	358.5157	433.0735	482.2849	518.4015	525.6515	569.0518	601.0332	660.6096	677.7801	700.2963	783.2353	905.9369	1020.4398	1060.977	1095.9643	1113.2292	1140.7574	1165.5892	1217.8595	1256.8984	1362.767	1434.1007	1457.9108	1482.1247	1493.2566	1514.3394	1522.5397	2231.8488	2367.392	2992.9439	3015.6602	3093.4365	3104.7909	3125.9638	3496.1065	3542.2082	3713.0604
CNC(CO)(C#C)C#N	CN[C@@](CO)(C#C)C#N	
InChI=1S/C6H8N2O/c1-3-6(4-7,5-9)8-2/h1,8-9H,5H2,2H3	InChI=1S/C6H8N2O/c1-3-6(4-7,5-9)8-2/h1,8-9H,5H2,2H3/t6-/m0/s1
