17
gdb 46997	2.69775	1.79308	1.47167	2.9184	67.15	-0.2307	-0.0268	0.2039	929.1715	0.137935	-458.978141	-458.971098	-458.970154	-459.009655	27.621	
O	 0.0222388183	-0.0711767652	-0.0541006799	-0.309113
C	-0.0157345232	 1.1292789559	 0.0443564687	 0.391174
C	-1.3332090476	 1.9074768316	 0.1570158193	-0.182689
O	-1.2453774417	 3.1060031508	 0.925356937	-0.275477
C	-0.0232176517	 3.8272232398	 0.8113232171	 0.094133
C	 0.3627750053	 4.1111479194	-0.6440263639	-0.099138
O	 1.0597806311	 2.9365023834	-1.0895794748	-0.280408
C	 1.2124495714	 2.0409737793	 0.0245795825	-0.004401
C	 1.1502963078	 2.9430087548	 1.261342402	-0.264732
H	-1.6769284817	 2.1222956097	-0.867968487	 0.128365
H	-2.0821963355	 1.2708814057	 0.6324214767	 0.139783
H	-0.159985462	 4.7330371002	 1.4043027731	 0.095068
H	-0.5163618108	 4.2824880016	-1.2741314841	 0.118428
H	 1.0250276864	 4.9827911103	-0.7213810609	 0.108531
H	 2.1253034871	 1.4598891093	-0.1125192186	 0.099181
H	 2.0755709441	 3.5153987109	 1.3771032904	 0.115694
H	 0.9320675828	 2.4118065025	 2.1902223124	 0.125602
99.9442	178.6571	229.649	366.8591	409.778	438.9244	446.5658	518.745	620.9053	712.6534	770.1925	825.6559	870.5414	885.8234	917.9416	946.0581	974.4869	1003.6623	1023.0109	1061.5423	1091.9844	1102.5442	1159.035	1204.6238	1228.0162	1251.3849	1257.0628	1306.1339	1310.604	1317.124	1350.458	1372.709	1387.6218	1476.0665	1477.4874	1516.9078	1838.1413	2978.3774	3022.6816	3060.4283	3074.9431	3108.4801	3112.6029	3115.7609	3123.5368
O=C1COC2COC1C2	O=C1CO[C@@H]2CO[C@H]1C2	
InChI=1S/C6H8O3/c7-5-3-8-4-1-6(5)9-2-4/h4,6H,1-3H2	InChI=1S/C6H8O3/c7-5-3-8-4-1-6(5)9-2-4/h4,6H,1-3H2/t4-,6-/m0/s1
