25
gdb 59706	2.85256	1.19671	0.95264	0.1456	91.83	-0.2592	0.0824	0.3416	1362.9661	0.230433	-352.369968	-352.360705	-352.359761	-352.403646	36.869	
C	 0.0132783103	 1.5506746191	 0.0055802744	-0.391197
C	 0.0262022006	 0.015002712	 0.0337700208	 0.037773
C	 0.8073641075	-0.4866020485	 1.2570495278	-0.394942
C	-1.4001731666	-0.5676114465	-0.0100907633	 0.051004
C	-2.2234182169	-0.1407628774	-1.2550546943	-0.250483
C	-3.2796928636	-1.248318546	-1.465368171	-0.22392
C	-2.6347515744	-2.5102649471	-0.9112939503	-0.034335
C	-1.2146437969	-2.8101623005	-1.3246613206	-0.292536
C	-1.4865575878	-2.0940687366	-0.0205563054	-0.037374
H	 1.0321029762	 1.9509285595	 0.0384208185	 0.106379
H	-0.4673716895	 1.9410151735	-0.8961104775	 0.112581
H	-0.5265944626	 1.9525135593	 0.8720036856	 0.108158
H	 0.5501309782	-0.3369878477	-0.8670144744	 0.067216
H	 0.8991440087	-1.5764368961	 1.261024652	 0.114994
H	 1.8189465823	-0.0672233309	 1.275119968	 0.10598
H	 0.310704567	-0.1879068022	 2.1886740126	 0.107211
H	-1.9284340405	-0.21993147	 0.8914318195	 0.061471
H	-2.6785542853	 0.8454767247	-1.1363570907	 0.097684
H	-1.5639211354	-0.0745001324	-2.1282024607	 0.099251
H	-4.1850128132	-1.0255570471	-0.8874537787	 0.09609
H	-3.5838623436	-1.3374563644	-2.5144021995	 0.093245
H	-3.274918772	-3.343808251	-0.6428368033	 0.075891
H	-0.8889588753	-3.8428120834	-1.2612713751	 0.105195
H	-0.7745688991	-2.2654477248	-2.1541861302	 0.106268
H	-1.2847822982	-2.6284158752	 0.9009317659	 0.078395
75.7728	122.1795	181.3162	231.7363	248.1896	267.4087	332.1069	350.8157	381.12	437.7705	480.6228	609.1023	632.1919	766.2587	819.6707	838.8584	851.0021	879.943	920.5667	927.43	951.8527	960.0456	977.8079	983.1764	1007.4326	1032.2854	1058.4682	1085.6918	1100.2661	1116.321	1151.7536	1160.0137	1192.2	1205.3356	1211.4252	1231.0434	1290.297	1312.4866	1322.1713	1337.3742	1348.2073	1359.4999	1386.6932	1393.9768	1399.7837	1419.7157	1485.8911	1489.0097	1492.4675	1493.4947	1504.7971	1511.0875	1512.9045	2978.2475	2999.8084	3022.6605	3027.3097	3027.9125	3036.9743	3065.0236	3084.6126	3091.2757	3095.0771	3106.2379	3107.9684	3127.3039	3160.1574	3170.5211	3208.4465
CC(C)C1CCC2CC12	CC(C)[C@H]1CC[C@H]2C[C@@H]12	
InChI=1S/C9H16/c1-6(2)8-4-3-7-5-9(7)8/h6-9H,3-5H2,1-2H3	InChI=1S/C9H16/c1-6(2)8-4-3-7-5-9(7)8/h6-9H,3-5H2,1-2H3/t7-,8+,9+/m0/s1
