15
gdb 129830	3.1978	1.40729	0.98045	5.2516	73.71	-0.2098	-0.0367	0.1731	1123.0428	0.116015	-450.173927	-450.166257	-450.165312	-450.205753	30.242	
N	 0.0677136663	 1.4017521826	-0.0836249524	-0.598397
C	-0.0222979453	 0.0232084628	-0.0315497355	 0.317826
C	-1.1865599611	-0.685197103	-0.0647898481	-0.333934
C	-1.1876450665	-2.1317177177	-0.0202457237	 0.435017
O	-2.1631282684	-2.867497059	-0.0377819498	-0.413264
N	 0.1010146401	-2.6655629087	 0.0749448618	-0.288279
N	 1.2759187283	-2.0085582305	 0.0619905012	-0.275346
C	 1.2268787969	-0.7139993042	 0.0151829159	 0.329627
N	 2.4243665661	 0.0186284138	 0.0795783454	-0.582488
H	 0.8534102402	 1.7831704174	 0.4267299209	 0.264089
H	-0.7940070459	 1.8990878346	 0.0887717554	 0.258466
H	-2.1541690792	-0.1979729737	-0.0980966452	 0.107871
H	 0.1717117353	-3.6719058733	 0.1211561845	 0.267596
H	 3.2198035916	-0.6088733929	 0.1099521681	 0.256431
H	 2.5243515017	 0.6637611518	-0.6979359086	 0.254785
122.9524	198.1464	277.9284	317.9245	367.6314	376.8482	428.2128	472.1739	495.7772	527.505	577.6185	628.3523	665.1415	728.2347	738.3993	756.5783	803.9417	847.7503	881.732	960.3105	1101.8331	1127.7569	1237.6902	1261.4702	1304.3928	1321.0509	1435.7139	1489.4857	1604.5904	1617.0617	1649.574	1692.9563	1775.6177	3200.9638	3504.9266	3548.689	3605.6586	3615.3203	3656.8455
NC1=CC(=O)NN=C1N	Nc1cc(=O)[nH]nc1N	
InChI=1S/C4H6N4O/c5-2-1-3(9)7-8-4(2)6/h1H,(H2,6,8)(H3,5,7,9)	InChI=1S/C4H6N4O/c5-2-1-3(9)7-8-4(2)6/h1H,(H2,6,8)(H3,5,7,9)
