14
gdb 12155	3.58019	1.56047	1.21217	3.9656	64.37	-0.2725	0.0029	0.2753	974.4126	0.105416	-382.532819	-382.525034	-382.524089	-382.56514	27.994	
C	-0.2151788741	 1.4429567632	-0.0821339069	-0.414522
C	 0.0381463977	-0.0504195388	 0.0675526231	-0.200718
C	 0.9116306185	-0.7781550272	-0.9943588148	-0.059011
O	 1.8741173845	-1.1491551799	 0.0624061761	-0.247805
C	 1.1573068646	-0.4748818856	 1.0212418073	 0.458273
O	 1.4380394758	-0.3273709773	 2.165764923	-0.317475
C	 0.3489284182	-1.9217041022	-1.6766987756	 0.325631
C	-0.1382668731	-2.857822888	-2.2507607156	-0.427761
H	 0.7079149644	 1.9832347594	-0.3137390002	 0.132773
H	-0.9383826592	 1.6382759307	-0.8791889137	 0.133674
H	-0.6168238418	 1.8483978939	 0.8505517491	 0.148396
H	-0.8865868976	-0.5939135393	 0.2770185687	 0.130092
H	 1.4027612781	-0.0969967333	-1.6955779461	 0.125681
H	-0.561060726	-3.6896985356	-2.7587467345	 0.212772
83.1708	141.7829	204.3769	213.783	220.5085	334.3182	438.7287	497.4848	566.7301	635.2337	684.356	693.5894	742.8588	829.7869	872.5945	901.259	1054.0065	1069.78	1102.9513	1116.6809	1135.2676	1232.5767	1261.2674	1333.2335	1375.5424	1412.5545	1495.1913	1496.6154	1941.8796	2243.5233	3043.0091	3068.7128	3088.7121	3116.769	3122.6576	3500.623
CC1C(OC1=O)C#C	C[C@H]1[C@@H](OC1=O)C#C	
InChI=1S/C6H6O2/c1-3-5-4(2)6(7)8-5/h1,4-5H,2H3	InChI=1S/C6H6O2/c1-3-5-4(2)6(7)8-5/h1,4-5H,2H3/t4-,5-/m0/s1
