15
gdb 24292	4.15689	1.57543	1.2433	1.9221	70.59	-0.208	0.0189	0.2269	954.9009	0.115388	-420.621141	-420.615031	-420.614087	-420.651449	25.344	
C	 0.0059631965	 1.4963900362	 0.0876348235	-0.320321
C	 1.2986898013	 0.7443849181	 0.0074023707	 0.082681
O	 2.0057376084	 0.4751619398	 1.2179933487	-0.274524
C	 1.2071000752	-0.3578643525	 1.9409702448	 0.269958
C	 1.2385458844	-0.9775920859	 3.1443195398	-0.155494
O	 0.1035399284	-1.7520010662	 3.2437485774	-0.161496
C	-0.6298628998	-1.5917233887	 2.1039488046	-0.156699
C	 0.0065109121	-0.7357386093	 1.2678518386	 0.201652
C	-0.019507396	-0.0285749578	-0.029368165	-0.239149
H	-0.2823287321	 1.9386018343	 1.0346676838	 0.133493
H	-0.2804218886	 2.0621667822	-0.7924201059	 0.12224
H	 1.9694724753	 0.8547940641	-0.8349234441	 0.112399
H	 1.9138205021	-1.0090117513	 3.9796999183	 0.139448
H	-1.5498112248	-2.1499584786	 2.0618562217	 0.139617
H	-0.3960319423	-0.4923689445	-0.932583087	 0.106196
168.0821	263.9912	400.0026	455.7485	462.6131	588.319	635.8888	679.419	697.9484	728.548	754.7519	772.475	785.545	821.8564	922.1677	957.7146	972.2043	1026.425	1038.2926	1056.3324	1084.8087	1123.4745	1145.8738	1169.9425	1187.0017	1243.4356	1292.6665	1316.9619	1370.5934	1419.0334	1466.5208	1614.7586	1696.1585	3135.1144	3186.2125	3199.4707	3228.827	3278.7062	3301.561
C1C2OC3=COC=C3C12	C1[C@H]2Oc3cocc3[C@@H]12	
InChI=1S/C7H6O2/c1-4-5-2-8-3-7(5)9-6(1)4/h2-4,6H,1H2	InChI=1S/C7H6O2/c1-4-5-2-8-3-7(5)9-6(1)4/h2-4,6H,1H2/t4-,6-/m1/s1
