21
gdb 71634	2.62682	1.59476	1.53845	1.1869	81.71	-0.2513	0.0794	0.3307	1015.6895	0.185541	-387.065192	-387.057748	-387.056804	-387.09655	31.131	
O	-0.0888279737	 1.3376141431	-0.0067913675	-0.480603
C	 0.0356220977	-0.0413696888	 0.0350256401	 0.397396
C	 0.6274128293	-0.9432616849	 1.1530768981	-0.30113
C	 0.0774752785	-1.9024147587	 0.062800233	-0.088727
C	-1.1939461654	-0.9842964784	-0.0134260966	-0.004286
C	-2.0470428129	-0.9839113729	-1.2802885102	-0.249394
C	-1.2443653033	-1.5156656092	-2.4755930488	-0.193968
C	 0.1875840544	-0.9647126763	-2.4409978878	-0.243941
C	 0.732163249	-0.9711736764	-1.0146184004	-0.042806
H	 0.7932265906	 1.724948497	-0.0100995238	 0.280728
H	 1.7143106323	-0.9246967094	 1.2806908185	 0.080207
H	 0.1034230264	-0.9407231537	 2.1127404555	 0.089642
H	 0.1039269704	-2.9897654539	 0.0913356549	 0.075382
H	-1.7983736254	-0.9699568683	 0.8994608044	 0.059781
H	-2.9479614858	-1.5892791248	-1.1303074545	 0.090406
H	-2.3898449446	 0.0416593043	-1.4699748314	 0.107876
H	-1.1989430793	-2.6097396001	-2.4083147153	 0.096927
H	-1.7385731431	-1.2814926468	-3.4239554261	 0.088507
H	 0.8362519104	-1.5507831333	-3.1017363969	 0.090339
H	 0.2111200092	 0.0668417313	-2.8188062616	 0.097538
H	 1.8276283455	-0.9428296398	-0.9823287337	 0.050126
175.6069	185.6073	242.5745	274.1782	391.0427	404.3854	449.529	504.4543	565.3041	638.4316	693.712	762.7553	796.2629	802.8805	856.8973	893.3239	897.9853	947.8669	971.4166	979.8039	1021.2516	1033.8214	1054.0481	1072.5292	1102.4122	1113.1357	1137.5056	1145.9254	1184.128	1198.9823	1212.7708	1218.0522	1231.9309	1284.4441	1307.8093	1345.6346	1348.7589	1363.1301	1371.0202	1393.8972	1433.0019	1485.8834	1487.4148	1503.7443	1520.8328	3011.7677	3021.7974	3025.0486	3033.3234	3042.9095	3050.8344	3058.7588	3063.9043	3076.8872	3110.7294	3135.3989	3805.5598
OC12CC3C1CCCC23	O[C@@]12C[C@H]3[C@@H]1CCC[C@@H]23	
InChI=1S/C8H12O/c9-8-4-5-6(8)2-1-3-7(5)8/h5-7,9H,1-4H2	InChI=1S/C8H12O/c9-8-4-5-6(8)2-1-3-7(5)8/h5-7,9H,1-4H2/t5-,6-,7+,8-
