18
gdb 32822	2.97875	1.27355	1.0285	1.0882	74.42	-0.1781	0.0586	0.2366	1188.8506	0.148408	-439.107804	-439.099054	-439.09811	-439.141405	32.7	
C	 1.0512041284	 0.756885697	 1.3151763726	-0.243118
O	-0.1954217144	 0.1620819829	 0.9962336994	-0.249962
C	-0.1076203498	-0.7851062476	-0.0820997939	-0.218381
C	 0.4635308006	-2.09149589	 0.3762258471	 0.124676
C	 0.2377854722	-2.6108631808	 1.6337171486	 0.33255
O	-0.4318982986	-2.1034829102	 2.6924547528	-0.443053
N	 0.8442551812	-3.8264945429	 1.7302704547	-0.305296
C	 1.4763753469	-4.1155794222	 0.5304215045	-0.092952
C	 1.2598184065	-3.059764031	-0.3159340257	-0.263335
H	 1.4292919933	 1.3479388704	 0.4684372543	 0.11381
H	 0.8838668394	 1.4222354385	 2.1655040821	 0.127213
H	 1.805101136	 0.0051893007	 1.5830378635	 0.124592
H	-1.1414762227	-0.8841212514	-0.4359838317	 0.115014
H	 0.4804826446	-0.360627183	-0.9091840515	 0.101569
H	-0.6363789289	-1.1855362588	 2.4454214192	 0.308085
H	 0.8546891636	-4.388287813	 2.5635400263	 0.26385
H	 2.0148863821	-5.038875119	 0.3992109899	 0.115554
H	 1.6181002297	-2.9820969397	-1.3317804723	 0.089185
69.8328	101.4098	167.595	230.2155	235.9064	292.0238	357.8656	440.6683	450.1316	463.6405	611.185	627.3048	646.5971	687.7154	714.0432	760.2915	809.3225	912.6262	915.1058	1013.2943	1078.8746	1086.3623	1100.1673	1179.2114	1188.6059	1210.1599	1249.8327	1265.9384	1308.3611	1373.34	1397.8807	1418.7533	1473.3313	1484.4954	1498.2743	1510.8671	1527.0816	1576.9544	1642.1126	2991.2647	2997.7815	3038.3422	3053.9238	3119.3812	3239.3258	3279.0762	3662.1978	3684.7776
COCC1=C(O)NC=C1	COCc1c(O)[nH]cc1	
InChI=1S/C6H9NO2/c1-9-4-5-2-3-7-6(5)8/h2-3,7-8H,4H2,1H3	InChI=1S/C6H9NO2/c1-9-4-5-2-3-7-6(5)8/h2-3,7-8H,4H2,1H3
