13
gdb 21708	8.22699	1.20843	1.06304	2.8975	66.25	-0.2115	0.0001	0.2116	1036.6111	0.098472	-390.991985	-390.984998	-390.984054	-391.023425	25.19	
N	 0.0184819827	 1.3112135736	 0.1312957124	-0.493911
C	-0.0641271951	-0.0307079482	-0.0613552571	 0.119447
N	-1.1378352439	-0.68280811	 0.1868297369	-0.326274
C	-1.0904415327	-2.0600007666	 0.1026487189	 0.40378
N	 0.0110403907	-2.793386372	 0.2816453349	-0.297326
N	-0.4585722843	-4.0553293124	 0.1106326221	-0.183163
C	-1.7822350883	-4.0313843164	-0.1368602763	 0.020399
N	-2.222029373	-2.791427737	-0.1487151245	-0.311269
H	 0.7486400999	 1.8307995985	-0.3237152456	 0.262614
H	-0.8394658513	 1.8011827006	 0.3343451019	 0.266443
H	 0.8626385315	-0.4991162202	-0.4088484058	 0.122499
H	 0.1597082925	-4.8408291687	 0.2257532759	 0.276401
H	-2.3695852989	-4.9235268313	-0.2963651039	 0.140361
90.7912	156.2377	168.8801	339.4342	381.9065	447.9664	494.4528	501.1207	601.9931	674.0193	777.1625	814.4555	853.6988	992.7528	997.9091	1023.4961	1103.2962	1114.561	1176.9151	1285.6335	1309.2135	1338.7228	1377.7203	1471.9646	1513.4307	1539.5389	1626.604	1733.0588	3078.7167	3253.6951	3592.4871	3666.5666	3725.7352
NC=NC1=NNC=N1	NC=Nc1n[nH]cn1	
InChI=1S/C3H5N5/c4-1-5-3-6-2-7-8-3/h1-2H,(H3,4,5,6,7,8)	InChI=1S/C3H5N5/c4-1-5-3-6-2-7-8-3/h1-2H,(H3,4,5,6,7,8)
