18
gdb 91589	2.7168	1.50188	1.15615	4.5589	73.23	-0.2448	0.0149	0.2597	1083.6809	0.147983	-439.079486	-439.071157	-439.070213	-439.112557	31.772	
O	 0.0088174193	 1.416209395	-0.0129216099	-0.443083
C	-0.0160998706	 0.021018488	 0.0505097758	 0.102584
C	 0.2496768228	-0.6057712441	 1.4552383122	-0.248249
C	-1.1046123569	-1.3258336319	 1.3631411204	-0.147629
C	-2.1944440574	-0.2880018729	 1.2374288081	-0.308723
C	-1.3882109862	-0.6621678972	 0.0231888582	 0.383019
N	-1.9661547412	-1.1625720519	-1.1830643971	-0.388881
C	-2.0532544842	-0.3837265386	-2.288294772	 0.133091
O	-1.6382957637	 0.7598990407	-2.3687054363	-0.333015
H	-0.4645366673	 1.6372308776	-0.8304863519	 0.297205
H	 0.6377616817	-0.4383698583	-0.7053290456	 0.068856
H	 1.1175598096	-1.2672649575	 1.4658424333	 0.104969
H	 0.3336633038	 0.1180998698	 2.2698312288	 0.112427
H	-1.3098702335	-2.3421089415	 1.6786094129	 0.089713
H	-3.2088804189	-0.6740729629	 1.2366648114	 0.107524
H	-2.0749004041	 0.6928047571	 1.6895005463	 0.129025
H	-2.3340542528	-2.1006040602	-1.2200675686	 0.253587
H	-2.5373496802	-0.902259871	-3.1365814461	 0.08758
61.9766	144.652	184.0869	210.2197	277.375	357.4635	377.3348	447.4544	514.2425	541.2633	567.3312	622.8846	692.6041	802.8659	843.9204	859.3374	936.3114	963.2751	983.4678	1016.2819	1025.8102	1034.3513	1078.0846	1081.8952	1135.7211	1156.586	1182.5811	1222.8967	1244.4826	1257.9046	1293.7592	1336.5069	1392.8997	1427.0542	1433.0133	1476.2817	1493.8017	1521.7683	1773.512	2964.0582	2990.5184	3067.5785	3118.5348	3125.1058	3179.6293	3209.9047	3621.8699	3706.4564
OC1CC2CC12NC=O	O[C@H]1C[C@H]2C[C@@]12NC=O	
InChI=1S/C6H9NO2/c8-3-7-6-2-4(6)1-5(6)9/h3-5,9H,1-2H2,(H,7,8)	InChI=1S/C6H9NO2/c8-3-7-6-2-4(6)1-5(6)9/h3-5,9H,1-2H2,(H,7,8)/t4-,5-,6-/m0/s1
