18
gdb 123426	5.03806	0.96972	0.84253	3.5275	77.87	-0.2332	0.0239	0.2571	1344.6614	0.151252	-398.121925	-398.114142	-398.113198	-398.154959	29.3	
C	 0.0745341165	 1.2706360917	 0.6764778124	-0.351769
C	-0.0624005485	-0.0870449637	 0.0219102019	 0.0212
C	-1.3672721532	-0.6061597111	-0.4418287206	-0.252791
N	-0.3528331376	-0.175114239	-1.427027241	-0.325231
C	 1.3962327019	 1.9202678124	 0.3771862609	 0.381345
C	 2.1264864519	 2.8877263576	 1.0418690143	-0.31622
C	 3.2682823826	 3.0949345976	 0.2397604125	-0.002651
N	 3.2646037969	 2.3199295173	-0.840988594	-0.232044
N	 2.1172329574	 1.6213641681	-0.7367103548	-0.242304
H	-0.7518906839	 1.9136621578	 0.3394918534	 0.113692
H	-0.0378472104	 1.177106679	 1.7627994942	 0.128562
H	 0.6824218775	-0.814292569	 0.3395704539	 0.107711
H	-1.5648741811	-1.6736570751	-0.4246838278	 0.127087
H	-2.2454888457	 0.0192531782	-0.3039226413	 0.117288
H	-0.6128227755	 0.746754835	-1.7741080422	 0.232979
H	 1.8666674502	 3.3692420011	 1.9710610323	 0.098286
H	 4.0924442084	 3.7728316181	 0.4080446376	 0.109188
H	 1.8925284826	 0.926645344	-1.4319372316	 0.285672
64.3365	103.6232	135.7084	267.2133	305.2759	353.7365	455.4023	590.9346	659.0174	706.8663	727.1567	787.7399	802.3919	834.1319	893.4741	930.1596	938.5597	945.4073	989.8049	1035.4743	1052.1664	1063.4127	1128.2272	1133.5957	1150.1596	1183.2814	1236.2059	1260.6742	1269.274	1296.1197	1311.6282	1314.6891	1374.2109	1430.7219	1447.6512	1470.5964	1499.1033	1513.023	1602.9666	2999.2125	3059.7053	3112.9071	3129.3457	3199.424	3241.8931	3264.9093	3475.768	3644.6547
C(C1CN1)C1=CC=NN1	C([C@H]1CN1)c1ccn[nH]1	
InChI=1S/C6H9N3/c1-2-8-9-5(1)3-6-4-7-6/h1-2,6-7H,3-4H2,(H,8,9)	InChI=1S/C6H9N3/c1-2-8-9-5(1)3-6-4-7-6/h1-2,6-7H,3-4H2,(H,8,9)/t6-/m0/s1
