14
gdb 125454	2.56977	1.48325	0.94599	5.0318	67.62	-0.2536	-0.0572	0.1964	1151.1869	0.101266	-470.054406	-470.046405	-470.045461	-470.087212	28.677	
C	-0.025610301	 1.4652582872	-0.0216906317	-0.507182
C	 0.0182426097	-0.0256219447	-0.0443630245	 0.384984
N	 0.0430321942	-0.7662214932	-1.1254113779	-0.391505
C	 0.0792595147	-2.0469828157	-0.6227306611	 0.447839
O	 0.1127655075	-3.1101975091	-1.4244470016	-0.396016
N	 0.0790205352	-2.1623622192	 0.6811402753	-0.291381
N	 0.0390584279	-0.8398808431	 1.0667049551	-0.080627
C	 0.0238480815	-0.4517521793	 2.4125990015	 0.18322
O	 0.043303725	-1.2049668149	 3.3417476719	-0.250294
H	 0.8459184436	 1.8891281161	 0.4869049194	 0.1558
H	-0.0333745567	 1.8201355012	-1.0525655898	 0.168024
H	-0.9231064959	 1.8371826147	 0.4823575457	 0.155793
H	 0.1056506514	-2.7804006407	-2.3314535889	 0.317477
H	-0.0087625571	 0.6480984508	 2.5012627066	 0.103866
119.2276	127.187	199.3288	213.5028	229.3982	292.4195	412.4082	436.9248	460.5005	568.1697	641.3597	664.5263	723.1788	772.197	896.3957	1014.5518	1018.011	1043.5391	1063.2731	1138.6726	1223.9222	1347.8041	1367.7933	1409.0559	1435.0464	1456.2779	1482.0222	1482.7409	1583.6941	1670.5051	1846.8306	2989.2753	3048.0078	3105.8329	3155.6016	3811.5232
CC1=NC(O)=NN1C=O	Cc1nc(O)nn1C=O	
InChI=1S/C4H5N3O2/c1-3-5-4(9)6-7(3)2-8/h2H,1H3,(H,6,9)	InChI=1S/C4H5N3O2/c1-3-5-4(9)6-7(3)2-8/h2H,1H3,(H,6,9)
