14
gdb 125705	3.09119	1.47149	1.00319	4.8315	69.58	-0.2538	-0.0575	0.1963	1107.5463	0.10067	-470.013133	-470.005166	-470.004222	-470.046135	29.079	
C	-0.2850610454	 1.4811093891	 0.0266306725	-0.480993
C	 0.0303805795	 0.0186670991	-0.0460177467	 0.444068
N	 0.1530411279	-0.5184972891	-1.2036632556	-0.157106
O	 0.4505642896	-1.8989899213	-1.2315727537	-0.293996
C	 0.6108175776	-2.6737294917	-0.1055815672	 0.3025
N	 0.8764865436	-3.9040911902	-0.184600522	-0.465757
C	 0.4603735782	-2.0131566444	 1.2414343917	 0.383385
O	 0.5753997552	-2.5762639285	 2.298576823	-0.312235
N	 0.1699786537	-0.6626664826	 1.1464873306	-0.404325
H	 0.5022008566	 2.0197604527	 0.5652565813	 0.149848
H	-0.3655036772	 1.8825716677	-0.9828380794	 0.173612
H	-1.2303629158	 1.6465684125	 0.5549033299	 0.149846
H	 0.9446946462	-4.193335927	-1.163065986	 0.240368
H	 0.0595418004	-0.1744885762	 2.0249074416	 0.270787
61.2435	115.2337	171.6513	296.1635	297.0481	348.4882	418.1077	461.7292	524.6061	571.9594	596.9159	653.061	664.3002	793.6502	798.6462	908.6739	916.0991	1018.2031	1044.5415	1066.4872	1087.6601	1229.8557	1254.7929	1354.0506	1412.4344	1472.217	1479.3595	1499.4724	1711.3111	1743.6549	1840.776	3040.45	3098.3336	3166.2709	3470.2618	3601.345
CC1=NOC(=N)C(=O)N1	CC1=NO[C]([NH])C(=O)N1	
InChI=1S/C4H5N3O2/c1-2-6-4(8)3(5)9-7-2/h5H,1H3,(H,6,7,8)	InChI=1S/C4H5N3O2/c1-2-6-4(8)3(5)9-7-2/h5H,1H3,(H,6,7,8)
