22
gdb 94203	2.76395	1.23981	1.11	2.4314	82.27	-0.2319	0.0782	0.31	1231.1002	0.192603	-404.297687	-404.288126	-404.287182	-404.332703	35.947	
C	 0.3005175723	 1.4777828919	-0.4648547877	-0.417886
C	 0.6196427291	 0.0243646636	-0.1877035186	 0.147746
O	 2.0045240246	-0.3053751228	-0.4554030404	-0.297764
C	 2.0754440793	-1.1206366016	 0.7296157016	-0.095476
C	 0.7392011616	-0.5480600907	 1.2618157388	 0.250644
C	 0.9377664641	 0.511036821	 2.3470304848	-0.481334
N	-0.2501607866	-1.593931385	 1.514515074	-0.106102
C	-0.2981981798	-2.2756554114	 2.8024638483	-0.232016
C	-1.3989319927	-1.3636472616	 2.3829197866	-0.229614
H	 0.9351440977	 2.1545703563	 0.1126508839	 0.117871
H	 0.4606898486	 1.6900664131	-1.5268770531	 0.129416
H	-0.7486342558	 1.6925309102	-0.2342449415	 0.115988
H	-0.0461075493	-0.6263910247	-0.7715712162	 0.073765
H	 2.0159626193	-2.1922007377	 0.5008819407	 0.09869
H	 2.9778098335	-0.9152532695	 1.3171891106	 0.093693
H	 1.7601800985	 1.1759769901	 2.0706377345	 0.133856
H	 0.0473892431	 1.1307133018	 2.4897793504	 0.121717
H	 1.1991711327	 0.0578872061	 3.3088887499	 0.118418
H	-0.4208284177	-3.354194873	 2.7522465691	 0.118147
H	 0.344477475	-1.9328096835	 3.6105893569	 0.11125
H	-1.4829391907	-0.4197862098	 2.9156071973	 0.111371
H	-2.3424075467	-1.7632849926	 2.0211853801	 0.117619
28.9495	74.4718	191.0505	202.2555	224.7711	279.5969	293.1938	323.124	367.9197	396.8668	476.3514	515.7337	595.8063	764.278	802.7317	845.9851	876.6769	895.5947	916.1176	931.6993	980.2072	1020.4483	1025.459	1048.7007	1097.4527	1105.7707	1118.5436	1122.0248	1161.8496	1163.5183	1175.4752	1189.5977	1208.8434	1253.771	1290.0726	1334.6412	1359.6147	1386.0591	1407.9846	1408.9408	1476.9371	1481.8821	1493.6469	1495.1214	1508.8542	1518.0589	1522.6193	3004.0322	3014.9039	3036.4555	3039.8179	3064.4042	3097.9083	3103.718	3105.143	3108.8573	3114.5349	3123.3224	3177.5514	3193.2445
CC1OCC1(C)N1CC1	C[C@H]1OC[C@]1(C)N1CC1	
InChI=1S/C7H13NO/c1-6-7(2,5-9-6)8-3-4-8/h6H,3-5H2,1-2H3	InChI=1S/C7H13NO/c1-6-7(2,5-9-6)8-3-4-8/h6H,3-5H2,1-2H3/t6-,7+/m1/s1
