18
gdb 33895	3.90452	1.29467	1.17095	1.8321	83.27	-0.2232	0.0155	0.2386	1093.6204	0.147782	-364.706106	-364.69856	-364.697616	-364.737759	30.741	
C	 0.1547243109	-1.2020992319	 0.0763649759	-0.381958
C	 0.0621429339	-0.0039645412	 0.0055192591	 0.186663
C	-0.0990885442	 1.4099946607	-0.0491843701	 0.148924
C	 0.2476901157	 2.2224208499	-1.2395464833	-0.275925
N	 1.0917519542	 2.409742813	-0.05487091	-0.182823
C	 0.3300267381	 3.2317405939	 0.9741010698	 0.043022
C	-0.6400591813	 4.3571267011	 0.5209493668	-0.24724
C	-1.8283179528	 3.3377575036	 0.5655542444	-0.24824
C	-0.840836181	 2.230135659	 1.03236675	-0.082576
H	 0.2482015791	-2.2582685867	 0.132958637	 0.188993
H	 0.7736306943	 1.7028148033	-2.0346142649	 0.13291
H	-0.4140721968	 3.0094566246	-1.5873910659	 0.118637
H	 0.9826380429	 3.4344101702	 1.8222856106	 0.086704
H	-0.7257164322	 5.1502365697	 1.2675661931	 0.107807
H	-0.4244571782	 4.8266730264	-0.4422944493	 0.11054
H	-2.5816727271	 3.5841812184	 1.3167295507	 0.106481
H	-2.3407768844	 3.1470720184	-0.3811526154	 0.106166
H	-1.080738561	 1.6622759876	 1.9290281814	 0.081914
124.4185	144.1639	241.9767	336.0017	339.3188	451.9465	503.0927	529.1603	582.5828	611.4159	657.7071	674.5932	724.5841	733.8225	806.8256	850.9509	877.3271	897.1201	943.9021	952.6567	964.1633	1015.7337	1081.8718	1108.7269	1127.2953	1148.7605	1172.4378	1188.9344	1220.5175	1240.294	1256.7222	1272.7127	1291.4213	1306.3781	1362.8756	1472.9004	1482.4451	1509.6226	2228.2846	3060.5054	3065.1956	3101.4092	3114.6493	3120.6927	3125.1278	3136.1318	3207.1085	3502.3837
C#CC12CN1C1CCC21	C#C[C@]12CN1[C@H]1CC[C@@H]21	
InChI=1S/C8H9N/c1-2-8-5-9(8)7-4-3-6(7)8/h1,6-7H,3-5H2	InChI=1S/C8H9N/c1-2-8-5-9(8)7-4-3-6(7)8/h1,6-7H,3-5H2/t6-,7+,8-,9?/m1/s1
