19
gdb 41422	3.27001	1.84834	1.49817	2.0328	77.13	-0.2395	0.0762	0.3157	922.3689	0.162481	-385.841846	-385.835401	-385.834457	-385.872283	27.424	
C	 0.0492587966	 1.476044783	-0.0609922617	-0.18272
O	 1.4948139888	 1.385611683	-0.0059861357	-0.307374
C	 1.4422684806	-0.0215143009	 0.3529391671	 0.098017
C	 1.7066667823	-1.0067182806	-0.7582634185	-0.101117
C	 0.6390945629	-2.1125978286	-0.6823886124	-0.050012
C	-0.1934189422	-2.331597086	 0.5958087891	-0.237155
C	-0.9514370648	-0.9811139505	 0.8089052572	-0.313456
C	-0.0786802562	-0.0430185692	-0.0022055032	 0.277494
C	 0.300625012	-0.7981110624	-1.3038196251	-0.110859
H	-0.350585577	 1.998541654	 0.8202477545	 0.095001
H	-0.3038761876	 1.9796830915	-0.968199205	 0.101018
H	 1.8502000079	-0.187539253	 1.3561332972	 0.067237
H	 2.6312044156	-1.1621577499	-1.3037695148	 0.086739
H	 0.8377073995	-2.9620667739	-1.3264126362	 0.087805
H	-0.8869589043	-3.1663194718	 0.4582986074	 0.100948
H	 0.4328234289	-2.5767324389	 1.4599450193	 0.104916
H	-1.9714108836	-1.036394719	 0.4104675915	 0.099061
H	-1.0179554661	-0.698704171	 1.8643001157	 0.099479
H	-0.0533415732	-0.6121258458	-2.3093360067	 0.08498
192.0642	234.0753	311.2083	365.2569	434.4836	503.9105	679.308	687.6717	719.3306	763.236	794.4592	844.963	852.3736	892.8425	908.6754	954.2597	976.8469	980.2293	993.3398	1012.3821	1020.403	1038.5159	1063.2424	1080.6756	1123.6419	1146.1791	1165.4146	1189.4085	1215.5382	1219.6349	1253.4623	1277.7865	1297.0816	1304.9961	1325.6772	1342.8904	1374.3994	1387.1503	1486.1075	1503.1684	1518.2458	2993.3151	3032.0729	3041.6057	3048.4905	3055.5397	3077.6218	3093.2262	3166.4038	3178.109	3200.0697
C1OC2C3C4CCC12C34	C1O[C@@H]2[C@H]3[C@H]4CC[C@@]12[C@@H]34	
InChI=1S/C8H10O/c1-2-8-3-9-7(8)5-4(1)6(5)8/h4-7H,1-3H2	InChI=1S/C8H10O/c1-2-8-3-9-7(8)5-4(1)6(5)8/h4-7H,1-3H2/t4-,5+,6-,7-,8+/m1/s1
