19
gdb 67277	3.15049	1.917	1.78164	0.2619	77.77	-0.1948	0.0672	0.2619	878.5551	0.161728	-381.964639	-381.958088	-381.957144	-381.995041	27.913	
C	-0.0199621872	 1.5319684499	 0.0814447304	-0.525363
C	-0.0278564521	 0.0403310721	-0.0528296073	 0.392062
C	 0.7002738948	-0.8487298416	-1.1093113984	-0.065485
C	 1.6751188035	-1.2092003964	 0.0156595557	-0.18878
N	 0.6423340048	-0.8201498998	 1.0367799225	-0.202816
C	-0.5342315318	-1.8029134145	 0.9799834581	-0.012992
C	-0.3859556332	-2.8567143423	-0.1248045344	-0.182691
N	-0.5185748034	-1.779010108	-1.166549107	-0.165236
C	-1.213929881	-0.923654841	-0.103480333	-0.073765
H	 1.003816074	 1.9168842694	 0.1390990734	 0.126056
H	-0.5136643438	 2.0024242246	-0.7758807369	 0.124109
H	-0.5442972312	 1.8386301504	 0.9927076906	 0.1291
H	 1.0477957617	-0.5445426125	-2.1000440802	 0.071866
H	 2.0867324998	-2.2185244898	 0.0968176907	 0.104663
H	 2.5038963156	-0.4951507367	 0.0681794855	 0.108397
H	-0.9239570364	-2.0561005014	 1.9686922226	 0.073735
H	 0.5029626068	-3.4905434272	-0.1835964991	 0.10612
H	-1.2729145644	-3.4975149235	-0.1777429805	 0.109416
H	-2.2769934265	-0.705888262	-0.2164808828	 0.071603
211.4026	233.3969	245.6888	429.2465	461.5398	483.1008	570.7882	627.409	734.8752	756.4483	765.2939	815.7349	853.4079	871.6664	885.9615	889.7503	938.4094	956.1113	973.726	981.7712	1017.0866	1073.295	1097.8873	1125.1106	1161.695	1168.3996	1173.6279	1182.3809	1189.9522	1240.6838	1244.0447	1268.2934	1275.4091	1287.2191	1310.9723	1357.7476	1413.0778	1480.1922	1482.6197	1486.5711	1524.6176	3028.7407	3040.2412	3046.447	3067.1411	3072.8426	3089.6588	3097.6123	3099.496	3100.6615	3101.1465
CC12C3CN1C1CN3C21	C[C@@]12[C@H]3CN1[C@@H]1CN3[C@H]21	
InChI=1S/C7H10N2/c1-7-5-3-9(7)4-2-8(5)6(4)7/h4-6H,2-3H2,1H3	InChI=1S/C7H10N2/c1-7-5-3-9(7)4-2-8(5)6(4)7/h4-6H,2-3H2,1H3/t4-,5-,6+,7+/m1/s1
