19
gdb 38278	3.62963	1.68024	1.60402	1.506	79.21	-0.2417	0.0824	0.3241	911.8117	0.162922	-385.753181	-385.747245	-385.746301	-385.783043	26.667	
C	-0.0846390416	 1.6516649217	 0.056958132	-0.227434
C	 1.4521556412	 1.4384078229	 0.1032329151	-0.01328
O	 1.1402595478	 0.194399875	 0.8668811048	-0.2954
C	-0.0229510148	 0.0980505519	-0.0242888904	-0.065824
C	 0.6284163289	-0.0836214294	-1.4175040674	 0.310658
C	 1.4289059507	-0.9826936093	-2.4179556726	-0.311098
C	 1.8422421786	 0.5182073893	-2.7236324387	-0.107041
C	 0.3473999144	 0.857803293	-2.6487342775	-0.248212
C	 1.9577207888	 0.6654300592	-1.1564411943	 0.040804
H	-0.4335125707	 1.9524635554	 1.0455637749	 0.113215
H	-0.5651349682	 2.2482064801	-0.7147694088	 0.099291
H	 2.1211464783	 2.1095246414	 0.6405996156	 0.085189
H	-0.8102363893	-0.554684884	 0.3496033087	 0.083511
H	 2.1968062535	-1.6312376062	-1.9916542153	 0.105004
H	 0.8617271469	-1.4853994021	-3.2068288154	 0.092246
H	 2.5570157868	 0.843129564	-3.4820217899	 0.072927
H	-0.2871569569	 0.4370386942	-3.4337426259	 0.086461
H	 0.1013583855	 1.9031730092	-2.4747584363	 0.093948
H	 2.76068025	 0.0323415338	-0.7684150584	 0.085039
255.789	318.0327	441.5846	479.0337	494.4087	571.2197	643.4549	676.1345	749.6712	780.0184	842.9994	845.4444	854.5228	872.7608	910.4668	923.8618	953.3469	969.8839	1004.2839	1024.7969	1036.4985	1047.0068	1069.8109	1089.0894	1098.7013	1132.2907	1134.841	1151.6924	1185.6717	1196.4448	1200.5321	1215.9413	1234.6991	1244.4697	1262.5909	1286.7369	1291.0801	1423.7996	1492.6239	1508.7054	1541.1862	3050.5382	3056.3046	3063.1113	3092.5491	3095.639	3127.1102	3128.6398	3135.1466	3142.1892	3166.9518
C1C2OC1C13CC(C1)C23	C1[C@H]2O[C@@H]1[C@@]13C[C@@H](C1)[C@@H]23	
InChI=1S/C8H10O/c1-5-7-4-2-8(7,3-4)6(1)9-5/h4-7H,1-3H2	InChI=1S/C8H10O/c1-5-7-4-2-8(7,3-4)6(1)9-5/h4-7H,1-3H2/t4-,5-,6+,7+,8+/m1/s1
