24
gdb 109685	2.74629	0.97605	0.92913	2.2448	86.04	-0.2206	0.0736	0.2943	1455.8068	0.215034	-405.520951	-405.509783	-405.508839	-405.557073	40.778	
C	-2.2070898445	-0.0238742907	 3.3331910629	-0.376314
C	-1.5879122027	-0.3443957158	 1.9660794014	-0.213688
C	-0.1140836795	-0.6892017094	 2.0631173684	-0.040756
N	 0.4006139439	-2.0281107814	 2.4007511498	-0.144248
C	-0.5090194482	-3.1401533667	 2.6346815537	-0.319604
C	 0.6235466512	-1.4973317022	 1.0428139313	 0.264218
C	-0.0572129837	-2.0940077388	-0.1742715005	-0.468774
C	 2.1034163114	-1.2113336428	 0.8238158192	-0.103085
O	 2.8519000478	-2.4156629198	 0.7925411241	-0.42357
H	-1.6723014561	 0.7965141309	 3.8237482348	 0.118838
H	-3.2552359764	 0.2734233428	 3.2312160107	 0.113177
H	-2.1664835121	-0.8897173426	 4.0016335464	 0.122402
H	-2.1563534979	-1.1424678636	 1.4812256591	 0.098935
H	-1.6825242456	 0.5310568357	 1.3104118846	 0.104002
H	 0.454263864	 0.1013367621	 2.5587106851	 0.077609
H	-1.4591501459	-3.1110898906	 2.0844130926	 0.103912
H	-0.0020323716	-4.0737480899	 2.3693958868	 0.12132
H	-0.743694847	-3.1816154253	 3.7036028205	 0.123855
H	-1.0698209799	-2.4503448851	 0.0183814169	 0.114306
H	-0.114758972	-1.3499355182	-0.9764349852	 0.120266
H	 0.538488863	-2.9344272116	-0.5447983637	 0.13631
H	 2.2678798107	-0.7195425676	-0.1415572603	 0.09995
H	 2.4687370408	-0.539704153	 1.6145313725	 0.084814
H	 2.6692009803	-2.8454509163	 1.6374093987	 0.286127
69.0208	80.656	134.6759	151.2064	168.9438	185.5927	220.4761	250.9911	286.8461	309.773	331.4573	368.5999	462.6667	489.8095	527.2333	618.8621	699.0115	748.3519	791.1481	851.4834	930.3265	941.4903	996.6536	1039.9766	1056.4813	1063.1328	1095.0404	1130.6801	1140.8526	1150.8428	1172.1776	1191.2348	1212.2913	1293.2669	1295.0323	1340.9837	1352.8278	1393.4913	1409.5838	1414.2548	1424.6591	1441.102	1462.7135	1476.9435	1487.2987	1495.7495	1498.3023	1499.1945	1503.5918	1507.4314	1515.7124	2992.9854	3001.1393	3028.2853	3035.2197	3040.0339	3064.4418	3066.6534	3068.2345	3085.7133	3093.3461	3098.5324	3107.7841	3109.3717	3138.153	3779.2034
CCC1N(C)C1(C)CO	CC[C@H]1N(C)[C@]1(C)CO	
InChI=1S/C7H15NO/c1-4-6-7(2,5-9)8(6)3/h6,9H,4-5H2,1-3H3	InChI=1S/C7H15NO/c1-4-6-7(2,5-9)8(6)3/h6,9H,4-5H2,1-3H3/t6-,7-,8?/m1/s1
