20
gdb 98316	4.16148	0.81723	0.69227	3.0991	84.73	-0.2292	0.0163	0.2455	1656.6327	0.169345	-436.507637	-436.496601	-436.495657	-436.545012	37.395	
C	 0.0289941198	 1.460627458	 0.0383757721	-0.330125
N	 0.0106971443	 0.0133410345	-0.0505399558	-0.380533
C	 0.6017903792	-0.635818236	-1.0996748637	 0.531144
O	 1.1074612691	-0.0527270358	-2.0439725593	-0.414074
N	 0.5661536366	-2.0378984184	-1.0162900379	-0.184464
C	-0.0805817154	-2.75333257	 0.0752062993	-0.368162
C	 1.1733760626	-2.7616139382	-2.0390584701	 0.127686
N	 1.1921006212	-4.0285677047	-2.0540812343	-0.261169
C	 1.853223382	-4.6687029398	-3.1726548192	-0.311813
H	 0.7786588765	 1.8207519979	 0.7540529647	 0.124972
H	 0.2771624611	 1.8496622101	-0.9488706243	 0.173668
H	-0.9533004491	 1.8368365129	 0.3404688379	 0.124346
H	-0.2851790538	-0.5075344762	 0.7553393274	 0.247294
H	-1.1349442206	-2.4699711225	 0.1634235205	 0.131349
H	-0.0145119859	-3.8158181559	-0.1565026376	 0.178545
H	 0.4252934659	-2.5738820354	 1.0320111402	 0.127025
H	 1.6125153666	-2.1085981416	-2.7956533621	 0.13726
H	 1.144606812	-5.3197345562	-3.6985434635	 0.122843
H	 2.2787312401	-3.9612535464	-3.9017104178	 0.101705
H	 2.6615461177	-5.3126874465	-2.8059928265	 0.122504
26.4196	67.7086	111.2586	148.6194	152.7153	167.7884	188.6949	217.6847	273.8838	351.0953	371.0664	393.5403	417.2026	425.415	565.3915	741.7645	763.631	871.4448	998.8672	1015.3872	1073.1094	1103.2728	1140.9736	1151.7238	1153.5755	1155.9509	1169.8695	1220.1153	1293.9534	1357.1695	1393.9885	1437.4891	1446.9249	1451.3847	1481.2975	1493.98	1502.7218	1504.4712	1508.3519	1515.3578	1567.1245	1748.0278	1778.928	2977.125	3017.294	3022.9209	3055.285	3068.8323	3076.24	3082.871	3118.8226	3156.106	3161.6821	3677.5074
CNC(=O)N(C)C=NC	CNC(=O)N(C)C=NC	
InChI=1S/C5H11N3O/c1-6-4-8(3)5(9)7-2/h4H,1-3H3,(H,7,9)	InChI=1S/C5H11N3O/c1-6-4-8(3)5(9)7-2/h4H,1-3H3,(H,7,9)
