20
gdb 13506	2.94358	1.69726	1.20855	1.0964	70.82	-0.2399	0.0669	0.3068	1052.6786	0.175652	-386.124309	-386.115159	-386.114215	-386.158294	33.314	
C	-0.1605460748	 1.5324897733	 0.1380338354	-0.412271
C	-0.058572561	 0.0172498673	-0.0119629575	 0.115876
O	 0.4474980232	-0.3720133394	-1.2879310947	-0.432898
C	 0.8042078665	-0.5948527986	 1.0891990304	 0.129691
O	 0.2899136562	-0.3216644578	 2.4123321621	-0.295826
C	 0.2935508539	-1.7237798695	 2.7572892405	-0.075883
C	 0.771392607	-2.1281728623	 1.3437088954	-0.048712
C	-0.1658185484	-2.9984580999	 0.5160165934	-0.40979
H	 0.8304740073	 1.9977758854	 0.0549398821	 0.102532
H	-0.8031293266	 1.9518445465	-0.6408068243	 0.120446
H	-0.5693374857	 1.78958878	 1.1188420604	 0.142273
H	-1.0632296241	-0.4152525481	 0.0374833925	 0.09035
H	 1.2860994791	 0.0845799441	-1.420068248	 0.278375
H	 1.8287875723	-0.1992877591	 0.9820572157	 0.053903
H	 0.988778625	-1.9392858671	 3.578309308	 0.097871
H	-0.7073399639	-2.0760561068	 3.0384998171	 0.098841
H	 1.7736830043	-2.5639271497	 1.3412561216	 0.077558
H	-1.2032407324	-2.6550080724	 0.5825480945	 0.11845
H	 0.1222401235	-2.989933005	-0.5383814872	 0.139051
H	-0.1401967714	-4.0330131506	 0.8746248528	 0.110164
46.5228	98.8367	158.2001	227.3603	241.5233	264.5399	284.7489	338.9998	354.9612	410.3844	477.1532	529.9365	752.7746	824.5701	882.9032	900.1162	920.875	979.412	1010.0104	1020.2329	1045.047	1080.8713	1101.5827	1131.4801	1156.8037	1190.6644	1195.795	1256.9291	1268.379	1283.6182	1334.5201	1350.6088	1381.5447	1397.7506	1408.658	1411.2771	1417.0008	1491.5753	1495.1371	1496.9049	1505.1691	1526.52	2950.0722	3008.2343	3023.5916	3036.8078	3047.4161	3063.3218	3071.1165	3099.7862	3102.3281	3122.3096	3129.8683	3795.4032
CC(O)C1OCC1C	C[C@@H](O)[C@H]1OC[C@H]1C	
InChI=1S/C6H12O2/c1-4-3-8-6(4)5(2)7/h4-7H,3H2,1-2H3	InChI=1S/C6H12O2/c1-4-3-8-6(4)5(2)7/h4-7H,3H2,1-2H3/t4-,5-,6+/m1/s1
