18
gdb 75800	3.1628	1.23711	1.03965	1.7192	72.43	-0.2504	0.0269	0.2773	1169.657	0.147024	-439.086204	-439.077552	-439.076608	-439.120013	31.729	
C	-0.0949562802	 1.5863346022	-0.1286529341	-0.411021
C	 0.0005054217	 0.0703281817	-0.0440603438	-0.252187
C	 1.1472571289	-0.5859431309	-0.8560209465	 0.452857
O	 1.4849880964	-0.6191333223	-2.0074426535	-0.363965
N	 1.6750960979	-1.1307952013	 0.2938026321	-0.394742
C	 0.6821042721	-0.5826772749	 1.2035356126	 0.321082
C	 1.0861093878	 0.2136096819	 2.463011518	-0.126866
O	 0.2233328456	-0.5916017396	 3.2897604399	-0.269301
C	-0.088739055	-1.4772926436	 2.1973054991	-0.129349
H	 0.8653490986	 2.0622099109	 0.0940250578	 0.125472
H	-0.384689412	 1.8829912654	-1.1407135336	 0.14254
H	-0.8421807075	 1.9798145941	 0.5678360521	 0.126517
H	-0.9644611683	-0.3950977644	-0.2680269923	 0.104696
H	 2.4811552183	-1.7190384401	 0.4520989792	 0.249772
H	 2.1447944722	 0.1087651227	 2.7375275537	 0.100597
H	 0.8131686649	 1.2746221361	 2.4897374734	 0.112008
H	-1.169024337	-1.5742228107	 2.0352151985	 0.110269
H	 0.3452856857	-2.4774625071	 2.3339475773	 0.10162
68.5407	73.9986	180.043	210.4498	232.7508	292.7356	334.5045	401.9596	464.5388	495.1749	535.5738	701.0418	756.2271	828.3677	835.4543	895.9643	944.0743	992.4527	999.5681	1038.0705	1068.4875	1099.0082	1123.287	1152.0259	1154.7875	1158.2226	1198.2379	1213.9308	1284.3839	1302.449	1343.6377	1366.5211	1404.0489	1412.0374	1494.2027	1496.0736	1503.8592	1529.1049	1899.5195	2999.158	3011.0177	3037.5673	3054.8336	3062.5763	3066.2638	3107.1229	3116.3413	3595.8524
CC1C(=O)NC11COC1	C[C@H]1C(=O)NC21COC2	
InChI=1S/C6H9NO2/c1-4-5(8)7-6(4)2-9-3-6/h4H,2-3H2,1H3,(H,7,8)	InChI=1S/C6H9NO2/c1-4-5(8)7-6(4)2-9-3-6/h4H,2-3H2,1H3,(H,7,8)/t4-/m0/s1
