19
gdb 73393	2.66448	2.06348	1.52838	1.341	78.93	-0.2226	0.01	0.2327	924.2002	0.161096	-385.866143	-385.859236	-385.858292	-385.89682	29.299	
C	 0.0277447347	 1.5555388106	-0.0648282246	-0.506062
C	 0.029804588	 0.0493215006	 0.0111595913	 0.296981
C	 0.4578362677	-0.7279361667	-1.229395803	-0.128778
O	 0.332953837	-2.0939696779	-0.7806067304	-0.276225
C	-0.1108514748	-1.9133526718	 0.5398123642	 0.134236
C	 0.7409943498	-0.7518643872	 1.1848407629	-0.136487
C	-0.0593284617	-0.4044900607	 2.4200046563	-0.110379
C	-1.330005858	-0.4276990541	 1.9960957352	-0.110377
C	-1.2168056605	-0.7875036488	 0.5316714494	-0.13649
H	 1.0284105737	 1.941452923	-0.290528869	 0.116598
H	-0.6490134872	 1.9109233063	-0.8502595762	 0.116597
H	-0.2973997214	 1.9871621438	 0.886041922	 0.127344
H	-0.1972066639	-0.5579893827	-2.0928846139	 0.10291
H	 1.4940554627	-0.5272272355	-1.5286314974	 0.102911
H	-0.2613723196	-2.8687640976	 1.0430995841	 0.084475
H	 1.8284057624	-0.8220165829	 1.2372706002	 0.060373
H	 0.3371071788	-0.2243516403	 3.4089964845	 0.100999
H	-2.2463506932	-0.2715274915	 2.5471300847	 0.101
H	-2.1149797347	-0.8937955266	-0.0783442606	 0.060373
231.3536	251.4375	252.4187	338.5371	387.6361	394.5954	538.2659	599.8993	621.1722	660.1232	731.657	736.529	795.6641	903.1793	912.0046	916.5202	925.5536	939.8474	952.8956	984.4215	1008.7785	1009.2906	1060.9805	1068.616	1131.4228	1152.0846	1161.3728	1188.0327	1204.4922	1208.3702	1245.5359	1251.8671	1273.9329	1313.0379	1338.1826	1382.966	1408.5666	1490.2762	1495.4287	1513.2369	1619.3824	3017.6488	3028.4987	3057.8073	3087.3124	3107.4954	3108.4647	3109.9867	3128.96	3220.7208	3246.6454
CC12COC3C1C=CC23	C[C@@]12CO[C@H]3[C@@H]1C=C[C@@H]23	
InChI=1S/C8H10O/c1-8-4-9-7-5(8)2-3-6(7)8/h2-3,5-7H,4H2,1H3	InChI=1S/C8H10O/c1-8-4-9-7-5(8)2-3-6(7)8/h2-3,5-7H,4H2,1H3/t5-,6+,7-,8+
