20
gdb 91264	2.92376	1.36321	1.1194	3.8254	78.96	-0.2385	0.0377	0.2762	1152.061	0.173188	-403.196692	-403.188622	-403.187678	-403.229456	31.681	
C	-1.0470036507	 1.1402182667	-0.0104158073	-0.419021
C	-0.0923844518	-0.0419499648	-0.0500915475	 0.045337
C	 1.1838051291	 0.0450744146	-0.9364647733	-0.257191
C	 2.0200530857	-0.600293711	 0.2083320257	-0.005707
C	 3.2096361581	 0.1896043559	 0.7466571331	-0.353813
C	 2.595560444	 1.183820327	 1.7438098069	 0.395365
O	 3.148866263	 2.1100699382	 2.2926471525	-0.375669
N	 1.2824715574	 0.8191682564	 1.919648613	-0.290473
C	 0.8222544832	-0.3340574803	 1.1823427712	-0.030281
H	-0.5217789954	 2.0596296362	 0.2676954217	 0.122273
H	-1.506860388	 1.3028791993	-0.9910566895	 0.1202
H	-1.8562838267	 0.9804219176	 0.7115381019	 0.111969
H	-0.6427558552	-0.959783968	-0.2856201242	 0.073961
H	 1.1585450809	-0.490976955	-1.887737386	 0.102154
H	 1.48678597	 1.0783664849	-1.1341227835	 0.10582
H	 2.2278488935	-1.657197398	 0.0406852373	 0.077772
H	 3.9281337739	-0.4355129956	 1.2880658026	 0.126875
H	 3.7656829847	 0.7313690517	-0.022875736	 0.129476
H	 0.7127031791	 1.3236863939	 2.5805731412	 0.24858
H	 0.4916950953	-1.1368958098	 1.8504433202	 0.072373
81.837	99.8519	214.1772	242.5158	344.7541	357.5296	433.3718	494.5262	538.4127	589.623	602.753	649.6489	736.6362	794.1769	850.709	873.0619	886.1181	905.1566	931.0434	974.8093	1019.7665	1045.5947	1087.2442	1127.5068	1133.679	1160.6601	1201.6685	1211.6825	1243.5739	1257.4439	1279.7594	1289.1143	1295.5322	1333.9589	1367.1159	1380.8832	1410.5854	1428.6202	1466.6988	1489.0278	1495.6303	1503.0586	1828.1778	3027.2675	3030.7041	3045.983	3052.8729	3054.3956	3091.3995	3099.2294	3103.212	3104.4678	3116.3358	3637.1457
CC1CC2CC(=O)NC12	C[C@H]1C[C@H]2CC(=O)N[C@@H]12	
InChI=1S/C7H11NO/c1-4-2-5-3-6(9)8-7(4)5/h4-5,7H,2-3H2,1H3,(H,8,9)	InChI=1S/C7H11NO/c1-4-2-5-3-6(9)8-7(4)5/h4-5,7H,2-3H2,1H3,(H,8,9)/t4-,5-,7-/m0/s1
