13
gdb 14294	3.94635	1.97932	1.90844	3.7788	54.41	-0.2494	0.0441	0.2935	736.3144	0.095712	-435.716645	-435.709987	-435.709043	-435.747762	24.509	
O	 0.1324326231	 1.2505569678	-0.3085772832	-0.408565
C	-0.0046443456	-0.1084457606	-0.0832868806	 0.047886
C	-0.5010829476	-0.6193920713	 1.2556591051	-0.019066
O	-1.0576115397	 0.3640267787	 2.0936421722	-0.234847
C	-2.1682528151	 0.8927593811	 1.4989593298	 0.501684
N	-2.815744233	 1.8333010376	 2.0159225246	-0.568806
O	-2.4257950067	 0.2502985898	 0.3180392894	-0.24043
C	-1.4041622518	-0.6796602116	 0.0567516672	 0.009938
H	 0.5955421472	 1.6442878269	 0.4396220829	 0.30686
H	 0.7075694066	-0.7558796142	-0.5955585254	 0.109671
H	-0.0630699776	-1.4502975001	 1.7932148839	 0.128346
H	-3.60226918	 2.089026046	 1.4247098888	 0.237731
H	-1.7444876998	-1.5673031501	-0.4594587547	 0.129599
105.5829	112.7168	245.9261	256.475	457.1303	570.0875	653.3601	709.2097	737.488	780.3205	782.5589	793.3914	806.2561	894.1848	978.9655	1001.7332	1066.5177	1081.7864	1089.9291	1141.3755	1147.1751	1215.0491	1229.5563	1329.3745	1354.1523	1370.4949	1431.8971	1809.2224	3104.5943	3199.2499	3209.879	3546.87	3800.2528
OC1C2OC(=N)OC12	O[C@H]1[C@H]2O[C]([NH])O[C@@H]12	
InChI=1S/C4H5NO3/c5-4-7-2-1(6)3(2)8-4/h1-3,5-6H	InChI=1S/C4H5NO3/c5-4-7-2-1(6)3(2)8-4/h1-3,5-6H/t1-,2+,3-
