17
gdb 127218	3.06184	1.25126	0.89822	2.0944	86.67	-0.2162	0.0063	0.2226	1277.8092	0.135001	-380.875152	-380.865789	-380.864845	-380.91046	33.163	
C	-0.019174492	 1.4067869933	 0.0998560006	-0.316819
N	 0.0037476703	-0.0351398915	-0.0112745129	 0.055407
C	 0.1354282175	-0.7815010194	-1.1269488759	-0.145776
C	 0.1001403049	-2.1116655218	-0.7319487744	-0.004329
C	 0.2000033142	-3.2635393744	-1.5411420293	 0.255741
C	 0.2828767931	-4.2626228303	-2.2099725392	-0.466248
C	-0.0607966041	-2.0514705599	 0.6850101571	 0.273081
C	-0.160820617	-3.1951277701	 1.6398808122	-0.504227
N	-0.1171570646	-0.7921519152	 1.1035201209	-0.325752
H	 0.0908337713	 1.8401868741	-0.8953860153	 0.140331
H	-0.9655984025	 1.7371954514	 0.5361883835	 0.151819
H	 0.8004833287	 1.7497582196	 0.7368770277	 0.151832
H	 0.2429696036	-0.3384971303	-2.1041160079	 0.140916
H	 0.3563138946	-5.139670277	-2.8031600739	 0.183245
H	 0.7342563222	-3.8248411397	 1.5976729151	 0.136184
H	-0.2788844868	-2.8209227401	 2.6585656867	 0.13841
H	-1.0148298534	-3.8372986686	 1.3995319651	 0.136184
26.8015	82.529	127.1128	136.7829	199.0592	266.8335	290.2175	385.5554	475.4915	531.8864	536.4492	571.022	635.0918	641.3163	653.3021	708.6899	793.6302	800.7109	1013.5143	1023.5686	1066.4462	1084.7897	1152.1284	1184.1218	1189.3703	1325.3649	1377.3503	1411.9842	1454.2971	1471.0188	1472.5969	1479.7381	1482.7263	1507.1214	1530.413	1590.0946	2230.2227	3038.6672	3050.0173	3090.8774	3116.3422	3136.6951	3147.7583	3263.3964	3505.4215
CN1C=C(C#C)C(C)=N1	Cn1cc(C#C)c(C)n1	
InChI=1S/C7H8N2/c1-4-7-5-9(3)8-6(7)2/h1,5H,2-3H3	InChI=1S/C7H8N2/c1-4-7-5-9(3)8-6(7)2/h1,5H,2-3H3
