12
gdb 24892	3.7431	1.2951	0.96219	5.1388	72.49	-0.2721	-0.0926	0.1794	1104.5676	0.07893	-431.695311	-431.688172	-431.687228	-431.727269	26.199	
O	-0.0782988627	-0.0430346832	 0.0035614691	-0.360959
C	 0.01520386	 1.1580960549	 0.0090239518	 0.443752
N	-1.1659169891	 1.9559668383	 0.0295550042	-0.375869
C	-1.1369767272	 3.3094732441	 0.0366421274	 0.272614
N	-0.0117211584	 3.9779573195	 0.0249370848	-0.312543
C	 1.1068085225	 3.1881294614	 0.0053245134	 0.068699
N	 1.192363101	 1.8901238796	-0.0030490081	-0.290571
C	-2.3915783269	 3.9907267524	 0.0574940936	 0.245058
C	-3.4637650324	 4.5332549899	 0.0750941839	-0.335769
H	-2.0458375604	 1.4566394046	 0.0387954667	 0.282228
H	 2.044509692	 3.7413806717	-0.0045489318	 0.137993
H	-4.4036101185	 5.0305624469	 0.0906399851	 0.225369
116.049	142.0148	143.2576	320.4748	440.8725	448.1017	488.6957	565.5977	608.0391	683.2933	683.8281	698.9417	762.2824	795.6907	821.3704	907.1225	1007.8736	1028.9712	1091.9572	1229.9382	1273.7758	1417.1626	1462.4797	1553.5626	1625.5664	1841.605	2244.1151	3154.8605	3492.5447	3596.3917
O=C1NC(=NC=N1)C#C	O=c1[nH]c(ncn1)C#C	
InChI=1S/C5H3N3O/c1-2-4-6-3-7-5(9)8-4/h1,3H,(H,6,7,8,9)	InChI=1S/C5H3N3O/c1-2-4-6-3-7-5(9)8-4/h1,3H,(H,6,7,8,9)
