21
gdb 75437	2.83902	1.13725	0.84545	0.6386	91.49	-0.2321	0.0284	0.2606	1394.4135	0.182519	-349.951413	-349.942288	-349.941343	-349.984964	35.34	
C	-0.0120285694	 1.5336818471	 0.0610612828	-0.480206
C	 0.009763039	 0.0317314093	-0.0287711688	 0.30911
C	-0.0065426908	-0.6162546131	-1.1962646675	-0.130491
C	-0.0198276483	-2.1154975328	-1.3407084886	-0.272175
C	-0.348080729	-2.8268949882	-0.0225795938	-0.196067
C	 0.4368738461	-2.1904260996	 1.1440665834	-0.188854
C	 0.0428186695	-0.7036632325	 1.2926860955	-0.283563
C	 0.2489360905	-2.9199895247	 2.3937261567	 0.301701
C	 0.0699941493	-3.5164596482	 3.4224856015	-0.435191
H	 0.8840088205	 1.915538796	 0.5675914764	 0.121061
H	-0.0688857933	 1.9973707079	-0.9274434261	 0.119158
H	-0.8709697702	 1.8821519921	 0.6497666101	 0.121916
H	-0.0123789268	-0.0393887228	-2.1193034459	 0.074686
H	-0.7476256583	-2.4062582757	-2.1090074558	 0.103358
H	 0.9543745662	-2.4587846346	-1.7212948852	 0.106411
H	-1.4197925581	-2.7419241683	 0.1925735674	 0.107714
H	-0.1195628743	-3.8944713437	-0.0901506911	 0.103842
H	 1.5044644433	-2.2266126136	 0.8831850811	 0.103859
H	 0.7427329384	-0.2083069363	 1.9771460236	 0.1086
H	-0.9394907614	-0.6358918961	 1.7814459862	 0.116121
H	-0.0762828228	-4.046434032	 4.3307026982	 0.189008
99.3355	134.373	145.8812	191.4645	260.4435	295.4244	328.0944	399.2086	431.2293	468.7021	518.1137	533.1833	623.5396	629.3655	633.4775	796.5336	832.6268	847.0641	901.9066	926.6896	949.6789	1020.5968	1027.0087	1047.5399	1072.1842	1088.9524	1120.3237	1163.7003	1171.5603	1232.0397	1264.484	1310.876	1313.7488	1344.9101	1368.8814	1378.1286	1392.2841	1414.4993	1473.9594	1478.9779	1480.4411	1491.4647	1496.0744	1743.1656	2234.214	2991.4083	2997.8152	3009.5879	3014.6373	3031.1162	3044.9314	3047.9846	3057.3166	3089.5491	3109.8371	3140.3078	3505.7978
CC1=CCCC(C1)C#C	CC1=CCC[C@@H](C1)C#C	
InChI=1S/C9H12/c1-3-9-6-4-5-8(2)7-9/h1,5,9H,4,6-7H2,2H3	InChI=1S/C9H12/c1-3-9-6-4-5-8(2)7-9/h1,5,9H,4,6-7H2,2H3/t9-/m0/s1
