14
gdb 29086	3.10291	1.45728	0.99772	6.4242	69.01	-0.23	-0.0552	0.1748	1111.0633	0.100895	-473.894957	-473.887086	-473.886142	-473.927583	28.959	
C	 0.0335752507	 1.5350140368	-0.0123375871	-0.467584
C	-0.0943111857	 0.0535697372	 0.0746482621	 0.354239
C	-1.1553962201	-0.6818729962	-0.2646958693	-0.140341
N	-1.1284879801	-2.0676717955	-0.1272990975	-0.354709
C	-0.0539092669	-2.7736803863	 0.3500255244	 0.29839
O	-0.0355208393	-3.9760857545	 0.4670907843	-0.329812
C	 1.1553959899	-1.9086044296	 0.7353115909	 0.32477
O	 2.1660905007	-2.3704371727	 1.1667158078	-0.281503
O	 1.0439202377	-0.5503950026	 0.5662068476	-0.250102
H	 0.8651313544	 1.8160586699	-0.6678637204	 0.149357
H	-0.8848156799	 1.9764558287	-0.4047026579	 0.135469
H	 0.2362524266	 1.9668594239	 0.9738691492	 0.14935
H	-2.0634253369	-0.2453259796	-0.652316911	 0.142161
H	-1.9332054011	-2.6208336493	-0.3858098231	 0.270315
84.6026	132.8304	180.496	287.4504	304.501	350.3291	427.4993	465.7037	500.5428	576.9241	595.6228	644.4127	676.3792	790.4985	794.465	808.9825	992.4744	1013.256	1069.2388	1106.1417	1135.3007	1252.325	1313.7967	1372.6773	1422.7182	1465.9285	1466.3946	1492.0165	1755.2026	1815.3191	1871.9441	3036.0691	3090.3907	3134.1856	3248.5809	3612.6152
CC1=CNC(=O)C(=O)O1	Cc1c[nH]c(=O)c(=O)o1	
InChI=1S/C5H5NO3/c1-3-2-6-4(7)5(8)9-3/h2H,1H3,(H,6,7)	InChI=1S/C5H5NO3/c1-3-2-6-4(7)5(8)9-3/h2H,1H3,(H,6,7)
