15
gdb 18186	4.15678	1.82607	1.48805	4.2036	69.37	-0.2525	-0.0049	0.2476	842.5021	0.120954	-325.535742	-325.529267	-325.528322	-325.566383	25.136	
N	-0.0765747574	-1.190762417	-0.1823646254	-0.331667
C	-0.0431323493	-0.0386819116	-0.0943375703	 0.275049
C	-0.0066975221	 1.423029557	 0.0231436578	-0.198373
C	-0.6162520355	 1.9302183232	 1.3292785265	-0.088371
C	 0.210583141	 2.7601623275	 1.9651495361	-0.071474
C	 1.5202418457	 2.8976090622	 1.2667525104	-0.080289
C	 2.3292382196	 1.6174870672	 1.1772807369	-0.276489
C	 1.4185297894	 2.0018086227	 0.0439394568	-0.04707
H	-0.5639239274	 1.824962253	-0.8347572354	 0.131681
H	-1.5940666441	 1.6076441265	 1.6631575913	 0.1192
H	-0.011834794	 3.2602345551	 2.9006759481	 0.111026
H	 2.0319817131	 3.8527399107	 1.2411410703	 0.097942
H	 3.3938380815	 1.7076763119	 0.9905314522	 0.121102
H	 2.0476903316	 0.7927677446	 1.8231565074	 0.133476
H	 1.8603833878	 2.2822458771	-0.9034136027	 0.104257
113.8385	155.7542	314.5555	358.3025	466.2234	521.6957	566.7752	687.0689	748.3841	774.4692	796.05	830.6771	892.1054	926.7887	950.6494	991.2463	1010.0351	1034.3787	1055.707	1072.9712	1091.4041	1103.2777	1144.4707	1199.0901	1256.0819	1300.2524	1310.5279	1371.717	1378.2367	1479.2223	1671.9851	2355.4848	3009.3264	3133.0902	3176.4783	3193.5579	3199.0576	3224.0555	3227.4851
N#CC1C=CC2CC12	N#C[C@H]1C=C[C@H]2C[C@@H]12	
InChI=1S/C7H7N/c8-4-6-2-1-5-3-7(5)6/h1-2,5-7H,3H2	InChI=1S/C7H7N/c8-4-6-2-1-5-3-7(5)6/h1-2,5-7H,3H2/t5-,6+,7+/m0/s1
