17
gdb 70648	2.46168	1.66283	1.20173	2.5415	73.93	-0.2536	0.033	0.2865	1060.3052	0.133992	-421.774504	-421.766089	-421.765145	-421.807392	31.79	
C	-0.3433498706	 1.2649579746	-0.101828064	-0.49387
C	 0.0954636086	-0.1577982389	 0.0847434701	 0.384123
O	-0.5167185173	-0.9172713532	 1.1317209955	-0.281414
C	 0.9000043389	-0.7060938983	 1.1797357072	-0.050769
C	 1.6788599092	-1.8793670345	 0.6333443473	-0.108037
O	 1.0701635702	-2.1942923045	-0.6153804853	-0.268768
C	 0.4120822675	-1.0361604371	-1.1333656791	-0.105269
C	-0.7586774091	-1.4275161665	-1.9087633927	 0.3171
C	-1.730904346	-1.6982597217	-2.5596182991	-0.423939
H	 0.399601971	 1.8322880541	-0.6720000705	 0.126364
H	-1.2900333743	 1.299798464	-0.6505505589	 0.145351
H	-0.488287872	 1.7476633457	 0.8671440737	 0.136314
H	 1.2790431769	-0.1113153417	 2.0067123595	 0.103208
H	 2.7376202491	-1.5981207106	 0.5110929571	 0.097164
H	 1.6237660838	-2.7733507661	 1.2625321481	 0.125064
H	 1.0990096827	-0.4669810688	-1.7844157537	 0.097327
H	-2.5910389886	-1.9544095066	-3.1275975653	 0.200053
92.6445	127.8563	185.7039	233.7803	243.2513	301.7863	355.6831	438.8594	503.4575	540.0887	604.9706	622.9744	672.0909	706.1459	801.1006	861.8672	887.3429	936.5318	956.5232	991.8893	1027.5475	1052.1849	1094.8254	1113.8796	1119.3667	1224.3349	1242.1027	1289.9797	1308.099	1357.1169	1371.2032	1411.7178	1465.6152	1487.6142	1501.0048	1504.2766	2244.9044	2945.6658	2977.6632	3041.2759	3077.5751	3106.0012	3131.1152	3153.1089	3503.0969
CC12OC1COC2C#C	C[C@]12O[C@H]1CO[C@H]2C#C	
InChI=1S/C7H8O2/c1-3-5-7(2)6(9-7)4-8-5/h1,5-6H,4H2,2H3	InChI=1S/C7H8O2/c1-3-5-7(2)6(9-7)4-8-5/h1,5-6H,4H2,2H3/t5-,6-,7+/m0/s1
