21
gdb 91455	2.40421	1.90232	1.40071	1.4202	81.75	-0.2332	0.0186	0.2518	1011.9672	0.184211	-387.10294	-387.094929	-387.093985	-387.134699	33.141	
C	 0.013675668	 1.5113911362	 0.03661439	-0.496151
C	 0.0127460489	-0.0069373587	-0.0090522085	 0.294725
C	 0.7220054437	-0.7114251528	-1.1972347501	-0.242224
C	 0.3151319216	-2.1328268661	-0.7482081174	-0.067002
C	 0.949239806	-2.1695424067	 0.6787302019	-0.24679
C	 0.7489340667	-0.7056568483	 1.1883554828	 0.114291
O	 1.9821167746	-0.0257601661	 1.4020896536	-0.446311
C	-1.1795724168	-1.9314855047	-0.5315282136	-0.088274
C	-1.3523517983	-0.6866611337	-0.0826928712	-0.12028
H	 1.0326969661	 1.899517694	 0.0961279123	 0.13342
H	-0.4667698113	 1.9270260107	-0.8553729619	 0.108405
H	-0.5336636104	 1.8800833845	 0.9120255837	 0.10711
H	 0.2942492602	-0.4297863276	-2.1629039279	 0.088952
H	 1.8034285027	-0.5452490528	-1.2011236934	 0.099532
H	 0.6025601115	-2.9656833233	-1.3910637035	 0.056579
H	 0.4810305643	-2.9184513353	 1.3221882402	 0.092939
H	 2.0219193333	-2.3821688812	 0.6257843534	 0.09196
H	 0.1363186154	-0.6635735649	 2.0988509645	 0.057439
H	 2.4578254744	-0.4857735779	 2.1001423458	 0.281273
H	-1.9282771266	-2.7086550466	-0.6266735725	 0.09123
H	-2.2711608039	-0.2292173887	 0.2653506019	 0.089178
140.4401	209.0222	257.3549	264.509	307.3232	349.8796	400.8026	409.3298	505.57	542.2146	605.6422	682.913	736.1932	790.3177	805.667	856.0613	876.2798	900.3339	910.5196	929.8559	952.6502	965.0978	1006.396	1021.1975	1077.725	1101.7129	1111.1831	1154.3483	1169.272	1180.7079	1210.3956	1245.807	1260.4038	1268.3371	1298.6163	1311.0898	1338.3058	1366.6581	1405.1427	1418.3346	1476.4322	1493.1252	1495.5468	1499.7933	1651.1715	3003.4145	3031.3918	3046.8064	3056.0941	3089.945	3100.8675	3105.1001	3113.5257	3127.4311	3187.2166	3214.1601	3823.8305
CC12CC(CC1O)C=C2	C[C@@]12C[C@@H](C[C@H]1O)C=C2	
InChI=1S/C8H12O/c1-8-3-2-6(5-8)4-7(8)9/h2-3,6-7,9H,4-5H2,1H3	InChI=1S/C8H12O/c1-8-3-2-6(5-8)4-7(8)9/h2-3,6-7,9H,4-5H2,1H3/t6-,7-,8-/m1/s1
