19
gdb 76724	3.52831	0.74237	0.71062	4.7211	72.92	-0.2421	-0.0147	0.2274	1608.7094	0.156651	-460.14111	-460.131221	-460.130277	-460.177198	35.191	
O	-0.1661143147	 1.3389019245	-0.1298719083	-0.428797
C	-0.1026496237	-0.0542751707	-0.0611708941	 0.084311
C	-0.406351447	-0.6916936686	 1.2753868678	 0.006266
O	-0.7810407481	 0.2035224711	 2.2958984101	-0.423428
C	-1.3848343612	-0.8475745496	 0.1349739004	-0.088795
C	-2.7291601019	-0.1490633594	 0.1345452871	-0.223206
C	-3.1715064299	 0.2316483737	-1.2922975878	-0.265945
C	-4.4752307332	 0.9918378568	-1.2914082362	 0.156678
O	-5.4621574241	 0.6838107975	-1.9091262277	-0.240555
H	-0.3956245031	 1.6398770811	 0.7607239895	 0.285141
H	 0.682103877	-0.4591939862	-0.6929473094	 0.101062
H	 0.1463355929	-1.5647633079	 1.615039053	 0.09703
H	 0.0050540776	 0.3985950673	 2.8178371318	 0.299407
H	-1.3907929837	-1.8365959296	-0.3172795379	 0.093234
H	-3.4791282649	-0.8013406269	 0.5971777837	 0.112589
H	-2.6829608343	 0.7513627458	 0.7530452856	 0.113698
H	-2.4008429906	 0.8874976159	-1.7195379086	 0.139966
H	-3.2773660282	-0.6473975231	-1.9349658389	 0.114045
H	-4.468623789	 1.9028362484	-0.64548561	 0.0673
50.0009	67.3373	78.1983	116.3175	211.4837	242.5524	269.337	300.8778	334.5186	483.5715	502.6469	558.3424	612.7329	657.1218	751.5002	772.7128	797.0677	855.7434	923.448	994.98	1018.7586	1047.1299	1076.4525	1091.2438	1123.5637	1146.4793	1155.5921	1205.7405	1234.8057	1258.4955	1274.0499	1311.79	1324.9322	1351.1469	1392.1965	1409.6894	1430.8859	1464.8781	1473.601	1494.4836	1835.3511	2842.9653	3027.2335	3043.5517	3087.9362	3105.4205	3121.6399	3135.7782	3156.5327	3733.1483	3805.9723
OC1C(O)C1CCC=O	O[C@H]1[C@@H](O)[C@H]1CCC=O	
InChI=1S/C6H10O3/c7-3-1-2-4-5(8)6(4)9/h3-6,8-9H,1-2H2	InChI=1S/C6H10O3/c7-3-1-2-4-5(8)6(4)9/h3-6,8-9H,1-2H2/t4-,5+,6-
