22
gdb 83232	2.41899	1.5529	1.33573	2.0312	81.02	-0.2178	0.0676	0.2854	1103.2672	0.193949	-404.33219	-404.322887	-404.321943	-404.36579	36.117	
C	 0.0470339699	 1.6658422208	 0.2455675651	-0.422376
C	 0.007580235	 0.1833191678	-0.0524952229	 0.005347
C	 0.4579136668	-0.4857219826	-1.3028215763	-0.060829
N	 1.1708101619	-0.7266053557	-0.0320503121	-0.125029
C	 2.496143778	-0.0815565306	-0.1387370591	-0.15406
C	 2.5771735954	 0.7024729301	-1.4698152464	-0.30604
C	 1.3488184887	 0.2364463339	-2.3100734165	 0.395547
C	 1.7625267426	-0.7287918568	-3.427185011	-0.447629
O	 0.6110089096	 1.3293585045	-2.8629482898	-0.471074
H	 0.7613778796	 2.2215163727	-0.3584572406	 0.132054
H	-0.9407101375	 2.0940067695	 0.0467093184	 0.125817
H	 0.2710515275	 1.8356103225	 1.3051977005	 0.115321
H	-0.8447091089	-0.2982013054	 0.4271917925	 0.087844
H	-0.1264456428	-1.3156998378	-1.6945718646	 0.077953
H	 2.6810880192	 0.5526130935	 0.734588857	 0.106219
H	 3.2409661364	-0.8836391411	-0.1141896522	 0.105966
H	 2.5122518914	 1.7819270617	-1.3184173765	 0.110731
H	 3.517650703	 0.5072103232	-1.9940572732	 0.09433
H	 2.2905524547	-1.5978766226	-3.0213628978	 0.127256
H	 0.8843132637	-1.0809126032	-3.9762842969	 0.12485
H	 2.4369674321	-0.231484081	-4.1350792535	 0.103208
H	 1.1228354835	 1.6900879064	-3.5948757641	 0.274593
75.9355	120.506	171.8008	206.0955	275.2144	289.9992	297.059	355.1622	374.827	430.8905	477.8701	575.7389	601.0482	691.2568	739.7468	749.7318	803.2902	844.3879	928.7774	937.4824	962.5838	976.029	998.0196	1023.9014	1039.9353	1112.5473	1119.9421	1141.4321	1162.26	1182.5608	1208.2985	1236.2243	1252.0833	1283.4322	1317.5974	1332.187	1365.3387	1402.3377	1406.0004	1419.3703	1438.2148	1482.32	1485.9322	1490.5289	1496.0602	1508.3452	1514.8492	3022.8825	3036.7059	3040.6013	3057.799	3073.626	3091.0296	3092.1049	3096.1723	3108.0424	3114.3013	3123.493	3168.861	3802.8617
CC1C2N1CCC2(C)O	C[C@H]1[C@@H]2N1CC[C@]2(C)O	
InChI=1S/C7H13NO/c1-5-6-7(2,9)3-4-8(5)6/h5-6,9H,3-4H2,1-2H3	InChI=1S/C7H13NO/c1-5-6-7(2,9)3-4-8(5)6/h5-6,9H,3-4H2,1-2H3/t5-,6-,7-,8?/m0/s1
