18
gdb 55131	2.51186	1.53842	1.15957	5.8232	71.75	-0.2331	0.0235	0.2566	1084.6614	0.148529	-439.087739	-439.079482	-439.078538	-439.120704	31.907	
N	-0.1421316886	 1.1144766191	-0.0268056056	-0.611814
H	-0.0741043529	 0.119070515	-0.2177295046	 0.240854
H	 0.7630268279	 1.5359731612	-0.1988033019	 0.243641
H	-2.0892924886	 2.1331144313	-0.483524021	 0.307482
C	-0.6388298501	 1.3851528246	 1.2848461105	 0.316299
C	-0.1086733024	 2.4874031036	 2.1461318136	-0.314295
C	-0.2635156996	 1.1145885456	 2.7599268913	-0.116402
C	-1.7453571622	 0.9038787266	 3.1065659562	-0.25033
C	-2.1094630346	 1.1046476569	 1.603034355	-0.177895
C	-3.0816281871	 2.1769201976	 1.1553503182	 0.413459
O	-3.9458681602	 2.6644447519	 1.8310915851	-0.331259
O	-2.8861633481	 2.5669058695	-0.1284556248	-0.382971
H	 0.9163057278	 2.7723121391	 1.922478537	 0.108501
H	-0.735448907	 3.3171096184	 2.4685507255	 0.129294
H	 0.5753036356	 0.5797927284	 3.1883507364	 0.090982
H	-1.9844744512	-0.0978869359	 3.4668070109	 0.10694
H	-2.1837188393	 1.6406580707	 3.7842633871	 0.12562
H	-2.4203408994	 0.1550862263	 1.1514558811	 0.101893
75.988	122.0608	152.3148	276.4578	295.2993	372.4868	411.9004	428.857	482.392	552.8054	649.7332	709.3812	710.4722	752.3269	823.6946	827.6083	854.9467	893.8937	955.9302	996.8904	1012.8921	1021.5513	1035.7164	1073.6398	1106.3525	1128.173	1167.973	1189.6471	1199.9469	1254.0337	1267.6347	1325.1242	1349.2492	1383.8436	1406.0198	1486.8025	1508.4707	1647.6415	1866.4844	3040.9398	3072.3488	3096.0637	3125.9181	3179.7992	3190.8454	3496.67	3592.5273	3625.0314
[NH3+]C12CC1CC2C([O-])=O	N[C@]12C[C@H]1C[C@H]2C(=O)O	
InChI=1S/C6H9NO2/c7-6-2-3(6)1-4(6)5(8)9/h3-4H,1-2,7H2,(H,8,9)	InChI=1S/C6H9NO2/c7-6-2-3(6)1-4(6)5(8)9/h3-4H,1-2,7H2,(H,8,9)/t3-,4+,6-/m1/s1
