19
gdb 73961	2.24823	1.49397	0.93293	4.1218	81.66	-0.2435	-0.0541	0.1894	1245.5373	0.159077	-423.052685	-423.04389	-423.042946	-423.086236	32.471	
C	-0.0099337278	 1.5533756919	 0.1573122241	-0.488729
C	-0.0072636193	 0.0586805314	-0.0144594392	 0.211156
C	 0.0760453436	-0.6070225812	-1.1857641469	 0.077614
C	 0.1196217834	-2.1222322703	-1.2355778311	-0.155767
O	 0.3677110646	-2.7263962083	 0.01692179	-0.24293
C	-0.4533434763	-2.1868217296	 1.031307907	-0.092522
C	-0.1001860457	-0.7206645096	 1.2772521146	-0.283942
C	 0.1094043921	 0.0439361233	-2.503099005	 0.089427
O	 0.1589539815	-0.5767424747	-3.5460545467	-0.279357
H	 0.1585033163	 2.1134033682	-0.7613297413	 0.137668
H	-0.9640763311	 1.8818865255	 0.5883608413	 0.137476
H	 0.7668555589	 1.8428745197	 0.8761139412	 0.137678
H	-0.8215056552	-2.5003279591	-1.6708488469	 0.10822
H	 0.9214770626	-2.4417303944	-1.9063606319	 0.13591
H	-1.5176873656	-2.2759938729	 0.7559358917	 0.091572
H	-0.2863357488	-2.790289911	 1.9276992097	 0.110894
H	 0.861361766	-0.6487627303	 1.8050940751	 0.126903
H	-0.8437064445	-0.2543337325	 1.9373083067	 0.108499
H	 0.0785635452	 1.1513427838	-2.5158713125	 0.070232
105.2168	126.8963	146.459	172.1326	228.3361	318.3597	332.5968	346.1122	439.0712	464.1248	511.8248	588.7564	663.5322	745.6914	854.0535	894.5718	963.5076	976.1524	1022.6267	1029.4013	1046.0813	1091.8553	1119.3755	1158.3224	1167.2807	1228.1157	1251.8521	1279.036	1316.7958	1367.1174	1392.1416	1405.1716	1421.1923	1436.8882	1457.8527	1478.8321	1481.4721	1488.6402	1502.9872	1699.8624	1765.2591	2926.7643	2959.5046	2967.3135	3009.9005	3026.4679	3045.1266	3069.5463	3088.9863	3094.2733	3153.2597
CC1=C(COCC1)C=O	CC1=C(COCC1)C=O	
InChI=1S/C7H10O2/c1-6-2-3-9-5-7(6)4-8/h4H,2-3,5H2,1H3	InChI=1S/C7H10O2/c1-6-2-3-9-5-7(6)4-8/h4H,2-3,5H2,1H3
