21
gdb 122560	4.69911	0.73842	0.70091	1.2803	79.64	-0.235	0.073	0.308	1690.9913	0.181091	-424.17101	-424.161666	-424.160722	-424.206345	33.998	
C	-0.7592151447	 1.0798345039	-0.4675171139	-0.385354
C	 0.1570093227	-0.0297761526	 0.0192630305	-0.0228
O	 0.7935480592	-0.6127020693	-1.1000464093	-0.248587
C	 1.6734688394	-1.660477113	-0.7631219283	-0.080165
C	 2.2725283585	-2.1782520821	-2.0570688002	 0.117477
O	 3.3020209464	-3.1839334777	-1.8378519676	-0.310673
C	 2.6667333212	-4.0503636902	-2.7861656657	 0.110859
C	 1.3194876664	-4.4722640312	-2.3005277401	-0.299297
C	 1.4901031457	-3.1215307174	-2.9703089156	-0.132476
H	-0.1864475128	 1.8453471768	-0.9986898621	 0.126679
H	-1.5143285612	 0.6813579374	-1.1510583752	 0.126508
H	-1.2694417602	 1.5513070313	 0.3777012939	 0.114921
H	 0.9114090286	 0.3685413836	 0.7188464071	 0.086785
H	-0.4180985923	-0.7939685315	 0.5692633575	 0.086466
H	 2.4868308196	-1.3062615175	-0.1067803286	 0.095177
H	 1.1466693043	-2.4648203698	-0.2254398522	 0.087618
H	 2.6903297573	-1.3345295873	-2.6199867038	 0.090246
H	 3.2987693018	-4.592697488	-3.4792230157	 0.103649
H	 0.808923222	-5.2073062487	-2.9152663761	 0.11495
H	 1.1358155704	-4.5601472037	-1.2335721426	 0.116052
H	 0.9503471278	-2.830043743	-3.8599667119	 0.101965
45.1313	71.5105	110.4768	127.0484	224.1565	247.3522	277.5703	345.8866	428.5367	497.4117	558.1062	732.5347	764.5883	798.9088	821.3123	892.5984	913.1621	954.4439	966.5357	1003.168	1024.4476	1042.6644	1047.2702	1051.2697	1081.3634	1104.1009	1130.5758	1153.1844	1174.9851	1189.0503	1202.8068	1238.7981	1255.5048	1295.2818	1297.4146	1350.3803	1368.2968	1396.7676	1411.0408	1453.6653	1474.3534	1483.2253	1499.7629	1511.0387	1534.5616	2951.7915	2964.7714	2979.4091	2995.1626	3036.0837	3044.8989	3118.9501	3119.5792	3121.3754	3183.1658	3205.858	3216.5408
CCOCC1OC2CC12	CCOC[C@H]1O[C@H]2C[C@@H]12	
InChI=1S/C7H12O2/c1-2-8-4-7-5-3-6(5)9-7/h5-7H,2-4H2,1H3	InChI=1S/C7H12O2/c1-2-8-4-7-5-3-6(5)9-7/h5-7H,2-4H2,1H3/t5-,6+,7-/m1/s1
