17
gdb 33414	2.51632	1.26645	0.93232	2.0021	72.37	-0.2605	0.0152	0.2757	1245.1909	0.13594	-417.960753	-417.952112	-417.951168	-417.99493	30.892	
N	 0.1940163778	-1.3084394127	 0.1446799633	-0.326924
C	 0.0573837159	-0.1612233688	 0.108892966	 0.267455
C	-0.0849177644	 1.2951213609	 0.0322253343	-0.209284
C	 1.2568196961	 2.0117803049	 0.1966931927	 0.014014
C	 2.3248385987	 1.4963872268	 1.0833110287	-0.258332
N	 2.4959074189	 1.4821655058	-0.3826627308	-0.317014
C	-0.7470301094	 1.6864699161	-1.2879173734	 0.091515
C	-2.2006163709	 1.8283541526	-1.4036041192	-0.17748
O	-1.3479595342	 2.9743282408	-1.2897193077	-0.233146
H	-0.7529605509	 1.6182880024	 0.8409967315	 0.139729
H	 1.1429344327	 3.0870598208	 0.0819798171	 0.124044
H	 2.964984284	 2.193936627	 1.6148931223	 0.1279
H	 2.1563158777	 0.5499854591	 1.5898183253	 0.134625
H	 2.3521051053	 0.5338823756	-0.7263358368	 0.243738
H	-0.1652608333	 1.4488612434	-2.1783504721	 0.122311
H	-2.6790349786	 1.6963348617	-2.3716780363	 0.13175
H	-2.8308753752	 1.6278339036	-0.5386300851	 0.125098
68.7756	82.8983	137.8326	157.995	181.1409	315.6741	357.5157	402.1959	469.2937	528.6288	637.7325	776.6033	844.02	856.2844	873.3281	923.368	960.3479	966.7294	992.9886	1045.5148	1102.9007	1124.8021	1133.0155	1155.1734	1162.3072	1172.739	1191.3237	1251.0962	1269.7857	1293.3615	1307.2963	1314.6097	1404.0437	1432.9918	1511.1419	1530.4054	2356.0317	3036.0991	3093.4628	3116.2647	3119.8462	3142.2795	3184.3127	3204.0754	3482.5923
N#CC(C1CN1)C1CO1	N#C[C@@H]([C@H]1CN1)[C@H]1CO1	
InChI=1S/C6H8N2O/c7-1-4(5-2-8-5)6-3-9-6/h4-6,8H,2-3H2	InChI=1S/C6H8N2O/c7-1-4(5-2-8-5)6-3-9-6/h4-6,8H,2-3H2/t4-,5+,6+/m0/s1
