13
gdb 127289	5.41758	1.32919	1.07456	5.6345	69.06	-0.2556	-0.061	0.1946	1031.0627	0.090428	-448.886283	-448.879256	-448.878312	-448.918091	25.602	
C	 0.0216937633	 1.392547449	 0.0763028513	-0.316356
N	 0.0270163261	-0.0525648594	-0.029704345	 0.052698
C	-0.1802308193	-0.7859832095	-1.1478946678	-0.150224
C	-0.0722906207	-2.1005407165	-0.7185573814	 0.165745
N	-0.114225651	-3.4294889632	-1.0482747486	-0.185685
N	 0.0925117548	-4.1450974498	-0.061523071	-0.019989
O	 0.3210124186	-3.2252467426	 1.1793506058	-0.277278
C	 0.1972467844	-2.0222845391	 0.6584431477	 0.490507
N	 0.2646924579	-0.7801213124	 1.112938436	-0.395386
H	 0.9921439826	 1.7407183613	 0.4379965064	 0.163379
H	-0.1781707217	 1.8196060181	-0.9072294875	 0.145762
H	-0.7526910513	 1.7093768279	 0.7790133257	 0.163342
H	-0.3756476838	-0.3270468038	-2.1022898218	 0.163485
70.5327	155.2958	281.1431	290.1504	341.2372	359.5818	578.2182	583.1145	608.4125	633.8571	767.7748	775.1386	795.8253	857.5044	958.1398	985.5656	1079.4644	1151.1293	1175.6004	1249.8455	1316.9505	1440.4469	1447.4674	1469.034	1476.6775	1506.2505	1533.0412	1544.696	1637.7481	3057.611	3129.0799	3155.6862	3281.2133
CN1C=C2N=NOC2=N1	Cn1cc2nnoc2n1	
InChI=1S/C4H4N4O/c1-8-2-3-4(6-8)9-7-5-3/h2H,1H3	InChI=1S/C4H4N4O/c1-8-2-3-4(6-8)9-7-5-3/h2H,1H3
