18
gdb 117483	6.03393	0.54679	0.52509	2.7129	71.48	-0.2525	-0.033	0.2195	2023.4415	0.144481	-476.253267	-476.242618	-476.241674	-476.291564	35.406	
O	-0.1343557825	 1.3904282119	 0.3025364532	-0.42541
C	-0.0194085899	-0.0247991158	 0.30813752	-0.070088
C	-1.3574367322	-0.5773493505	-0.163166824	-0.31557
C	-1.3726293201	-2.0984322772	-0.1968683119	 0.422118
O	-0.4211810039	-2.7824371011	 0.1353030712	-0.36648
N	-2.5528299339	-2.6467831071	-0.6316115006	-0.334916
C	-2.7382757457	-4.0750850536	-0.7601813294	-0.243224
C	-3.7571955667	-4.6192763176	 0.2296505551	 0.152877
O	-4.5149598899	-5.5213690029	-0.0083091318	-0.229934
H	 0.7028212811	 1.7580239959	 0.5997074514	 0.289006
H	 0.7793085614	-0.3736625217	-0.3607933325	 0.106096
H	 0.2065730685	-0.4141852485	 1.3101966321	 0.106844
H	-2.1549274361	-0.2166502471	 0.4980244894	 0.132507
H	-1.5853950008	-0.1830933026	-1.1611443722	 0.130707
H	-3.2933196271	-2.0314246407	-0.9274954916	 0.253228
H	-3.0281488867	-4.3700701654	-1.7738887311	 0.132567
H	-1.7661656739	-4.5294071229	-0.5292229951	 0.175727
H	-3.7402859318	-4.1043921631	 1.2178830177	 0.083945
28.3189	47.8051	54.5742	81.7269	120.5202	154.8995	267.8978	287.768	313.067	367.2821	407.4718	452.1813	548.9992	608.4195	689.2697	785.3168	814.5899	925.8997	1017.6215	1053.11	1067.1026	1083.6419	1095.6483	1119.0997	1207.1743	1210.223	1256.9261	1264.6052	1307.2279	1329.2646	1361.0541	1411.747	1445.4242	1458.1108	1475.0677	1524.5234	1531.1515	1777.2709	1840.8015	2874.5122	3004.0557	3033.3155	3035.4089	3038.2278	3075.2549	3093.0637	3639.1359	3833.9792
OCCC(=O)NCC=O	OCCC(=O)NCC=O	
InChI=1S/C5H9NO3/c7-3-1-5(9)6-2-4-8/h4,7H,1-3H2,(H,6,9)	InChI=1S/C5H9NO3/c7-3-1-5(9)6-2-4-8/h4,7H,1-3H2,(H,6,9)
