16
gdb 14333	4.6519	1.78459	1.51659	3.9745	64.24	-0.2359	0.0654	0.3014	842.5234	0.133732	-379.962876	-379.956212	-379.955268	-379.993713	25.976	
O	-0.2316814578	-0.0713454922	-0.124379261	-0.406587
C	-0.1529483559	 1.1349851406	-0.074186203	 0.427067
N	-1.1133627643	 2.0508418196	-0.4967138286	-0.343634
C	-0.7636009453	 3.3970123441	-0.1184064457	 0.020505
C	-1.0430668265	 3.8982846287	 1.3369957706	-0.239706
C	 0.4875276654	 4.1099152724	 1.5360832951	-0.225212
C	 0.7560055775	 3.3057042067	 0.2343992496	 0.007741
N	 0.9147223025	 1.8770828757	 0.4126425795	-0.34167
H	-2.0672929199	 1.7316605857	-0.5465639548	 0.250612
H	-1.0249855632	 4.1248759113	-0.8898300039	 0.088163
H	-1.6745339136	 4.7843775537	 1.4303793645	 0.103131
H	-1.4528514155	 3.1056499267	 1.9669399283	 0.114395
H	 0.7853634563	 5.1571763995	 1.4349684025	 0.104259
H	 0.9303245073	 3.7005561715	 2.4459321759	 0.108523
H	 1.4823403981	 3.7255065448	-0.4694339239	 0.080267
H	 1.8135792449	 1.4296544014	 0.474683545	 0.252145
120.2608	123.2787	349.0704	394.5547	427.7221	453.3226	508.974	634.1758	697.8236	733.1308	763.7285	769.0205	865.7402	919.6824	938.2202	955.0621	969.3643	1034.8684	1094.5432	1106.8789	1159.6315	1182.8689	1224.7928	1253.9277	1259.3731	1271.0234	1298.0581	1358.0406	1376.0108	1412.3704	1421.0911	1470.4008	1488.9999	1849.4382	3040.6114	3063.9988	3070.1749	3078.2579	3116.2574	3132.4962	3650.5296	3664.0023
O=C1NC2CCC2N1	O=C1N[C@H]2CC[C@H]2N1	
InChI=1S/C5H8N2O/c8-5-6-3-1-2-4(3)7-5/h3-4H,1-2H2,(H2,6,7,8)	InChI=1S/C5H8N2O/c8-5-6-3-1-2-4(3)7-5/h3-4H,1-2H2,(H2,6,7,8)/t3-,4+
