18
gdb 46717	3.03412	1.71359	1.27554	3.3358	76.25	-0.2243	-0.0156	0.2087	993.7042	0.150761	-401.916731	-401.909909	-401.908965	-401.948058	27.762	
O	 0.0395401407	-0.0870554158	 0.0135691358	-0.321968
C	 0.010137528	 1.1140495577	 0.1576080753	 0.375474
C	-1.300652233	 1.8657783653	 0.3570192558	-0.272644
N	-1.0950652924	 3.1767550006	 0.9730397471	-0.335291
C	 0.2048701169	 3.7583390425	 0.760728393	 0.061853
C	 1.0813220143	 3.4161366255	-0.5048936887	-0.104303
C	 2.3139202412	 3.8285244527	 0.3383393672	-0.22864
C	 1.4390856829	 2.9821322012	 1.2984846044	-0.064996
C	 1.2356427923	 1.9765839696	 0.1049962966	-0.09441
H	-1.7458611905	 1.9367310735	-0.6510455172	 0.119542
H	-1.9740905662	 1.2440024705	 0.9555018303	 0.132573
H	-1.8248826076	 3.8225496363	 0.7017750217	 0.224325
H	 0.1732290239	 4.8174225048	 1.0298772881	 0.073822
H	 0.8828517452	 3.6512298791	-1.5520583563	 0.075815
H	 3.2678072743	 3.3861617989	 0.043525229	 0.101273
H	 2.4192654393	 4.8912020985	 0.5756830124	 0.092803
H	 1.6458594464	 2.7079090109	 2.3335391284	 0.084277
H	 2.1120872343	 1.3985940583	-0.1966116227	 0.080496
89.884	162.2544	367.9358	373.1439	448.9478	472.6975	537.5657	589.9278	627.3122	721.9385	766.7694	793.588	837.0142	881.1309	903.7308	940.9546	966.5559	1011.8087	1017.3583	1024.6608	1064.8976	1071.7636	1112.8369	1114.6704	1162.6707	1186.2345	1205.1351	1221.0648	1232.6026	1240.0849	1258.9744	1270.0152	1295.4356	1343.1372	1428.06	1478.1658	1490.1188	1519.0771	1813.2085	2953.2108	3052.3866	3069.2705	3076.9097	3090.1968	3098.4488	3112.3087	3122.3022	3557.9316
O=C1CNC2C3CC2C13	O=C1CN[C@@H]2[C@H]3C[C@@H]2[C@@H]13	
InChI=1S/C7H9NO/c9-5-2-8-7-3-1-4(7)6(3)5/h3-4,6-8H,1-2H2	InChI=1S/C7H9NO/c9-5-2-8-7-3-1-4(7)6(3)5/h3-4,6-8H,1-2H2/t3-,4+,6-,7+
