18
gdb 45598	2.89674	1.49695	1.17503	2.5035	71.26	-0.2499	0.0251	0.275	1059.5737	0.15048	-439.108804	-439.101262	-439.100317	-439.141254	29.065	
O	-0.1575394339	 0.0255060084	 0.0795005498	-0.359658
C	-0.0827729834	 1.2217259472	-0.0023015377	 0.407737
N	-1.024601827	 2.2176408238	-0.1393915771	-0.329139
C	-0.08937281	 3.3329318798	 0.0854370495	-0.011979
C	-0.2276006605	 4.018801366	 1.4656286514	-0.085638
O	 0.9978727638	 4.1316168666	 2.1583222117	-0.236561
C	 1.5720136322	 2.8582161024	 2.4108889613	-0.087669
C	 2.1072856532	 2.2398781864	 1.1182418962	-0.232327
C	 1.0609204712	 2.2689108522	 0.0061657459	-0.155417
H	-2.0307361396	 2.1768247952	-0.0541698965	 0.24729
H	-0.09147159	 4.0665520435	-0.7252122311	 0.089768
H	-0.6106314263	 5.0375964961	 1.3582267564	 0.110568
H	-0.9489931358	 3.4442617702	 2.0709118304	 0.089466
H	 2.3828486219	 3.0203120851	 3.1261377801	 0.112131
H	 0.827367296	 2.1974998843	 2.8857398405	 0.098713
H	 2.986740687	 2.8111906887	 0.8028512075	 0.110351
H	 2.4323146654	 1.20767463	 1.2908636537	 0.123036
H	 1.541236606	 2.2827252841	-0.9757802621	 0.109328
75.2029	99.9382	211.5662	360.9104	378.5633	415.7883	465.7838	472.0493	512.51	633.3038	688.7533	763.5494	781.8422	837.9621	877.6736	951.7532	966.7353	976.9977	1061.0139	1071.8742	1089.7598	1115.1608	1147.2345	1174.404	1197.0744	1241.118	1258.9956	1290.6665	1326.7066	1339.8223	1356.482	1366.2852	1386.3358	1402.2309	1423.3961	1476.9481	1491.4894	1502.4513	1891.7721	2961.6705	2970.5846	3040.0289	3061.237	3076.8364	3084.2122	3088.5241	3094.4819	3593.496
O=C1NC2COCCC12	O=C1N[C@H]2COCC[C@@H]12	
InChI=1S/C6H9NO2/c8-6-4-1-2-9-3-5(4)7-6/h4-5H,1-3H2,(H,7,8)	InChI=1S/C6H9NO2/c8-6-4-1-2-9-3-5(4)7-6/h4-5H,1-3H2,(H,7,8)/t4-,5+/m1/s1
