22
gdb 58907	3.08237	1.38005	1.23227	1.5401	84.58	-0.2385	0.0744	0.3129	1137.7349	0.194901	-367.167538	-367.159046	-367.158102	-367.200355	33.749	
C	 0.0464024306	 1.555907821	-0.0391619482	-0.398416
C	 0.0299308217	 0.0197453995	-0.0034514853	-0.081505
C	 0.587670521	-0.5864057901	-1.2987609303	-0.403804
C	 0.7492589489	-0.492964644	 1.2235237304	 0.373965
C	 2.2863613966	-0.4112413832	 1.4122949956	-0.288915
C	 2.1043490929	-1.7012503997	 2.1874207884	-0.039041
C	 0.8132963788	-1.6291670345	 2.9359654686	-0.041531
C	 0.164543598	-0.2921163936	 2.6434722792	-0.294572
N	 0.817283688	-2.0439000669	 1.4910376538	-0.197114
H	 1.0709306796	 1.9362487546	-0.1232524145	 0.117454
H	-0.5161275637	 1.9285325375	-0.9008591209	 0.114752
H	-0.398772081	 1.9870432453	 0.8633657472	 0.116683
H	-1.0146142264	-0.3092281963	 0.0926097763	 0.077887
H	 1.601408072	-0.2266343055	-1.5070992507	 0.110521
H	 0.6203323809	-1.6773732302	-1.2338538431	 0.13788
H	-0.0397719789	-0.309567761	-2.1519337611	 0.108595
H	 2.8204468455	-0.5909812667	 0.4764071303	 0.109862
H	 2.7039949845	 0.467613336	 1.9151948733	 0.093877
H	 2.8451557871	-2.4657822145	 2.3939209693	 0.091596
H	 0.5629325145	-2.338342181	 3.7171588643	 0.091956
H	 0.4651326522	 0.5920469701	 3.21575914	 0.094034
H	-0.9260700128	-0.3760906769	 2.6350660577	 0.105834
69.2814	165.6674	209.4975	250.788	261.5174	297.4151	362.1527	421.2271	457.4939	475.5137	618.6656	742.5493	766.1064	805.3486	823.9946	868.5744	884.6416	905.9754	933.0458	971.8473	991.5336	1009.9625	1022.1526	1028.0562	1048.5079	1066.3584	1095.6814	1118.8715	1133.2774	1161.9629	1183.3743	1207.4057	1247.8345	1251.2426	1311.0452	1335.3913	1345.5379	1376.1196	1383.7763	1398.4615	1419.4323	1485.9683	1490.3215	1494.7729	1504.9001	1507.8765	1515.4858	3003.8667	3028.5002	3035.4938	3035.9311	3043.6166	3094.1869	3095.4807	3099.4418	3103.9216	3113.1528	3118.9015	3170.3314	3182.3131
CC(C)C12CC3C(C1)N23	CC(C)[C@@]12C[C@H]3[C@@H](C1)N23	
InChI=1S/C8H13N/c1-5(2)8-3-6-7(4-8)9(6)8/h5-7H,3-4H2,1-2H3	InChI=1S/C8H13N/c1-5(2)8-3-6-7(4-8)9(6)8/h5-7H,3-4H2,1-2H3/t6-,7+,8+,9?
