21
gdb 118688	2.23833	1.05694	0.95349	1.0756	75.01	-0.2244	0.0505	0.2748	1395.6843	0.179381	-461.334511	-461.323906	-461.322962	-461.370109	39.148	
C	 0.0764039233	 1.5813269813	-0.0208062792	-0.382858
C	 0.2838471686	 0.0650589927	-0.0483709266	-0.176242
C	 0.529116362	-0.5276040508	 1.3465082862	-0.222387
C	 0.6853977925	-2.0329830177	 1.3234246506	 0.299438
O	-0.4736273803	-2.7627206305	 0.9969151115	-0.467763
C	 2.0042581502	-2.6747053517	 0.91301724	 0.017678
O	 3.1225038928	-1.880962148	 0.656718421	-0.430804
C	 1.5167393254	-2.7539538435	 2.3499459482	-0.022893
O	 2.2167125734	-1.9587546383	 3.2748297823	-0.429216
H	 0.9538002996	 2.0913302236	 0.3922240708	 0.115581
H	-0.0975943425	 1.9794043483	-1.0254097084	 0.110176
H	-0.7850228023	 1.8521254223	 0.599752451	 0.114283
H	-0.5993791566	-0.4090614304	-0.497568858	 0.081815
H	 1.137474057	-0.183484766	-0.6899390113	 0.114654
H	 1.4220156502	-0.0729193829	 1.7844466326	 0.104192
H	-0.3072695947	-0.2817613539	 2.0130036334	 0.101089
H	-0.6126213693	-2.6804126574	 0.0468498185	 0.28424
H	 1.9631449685	-3.5668227557	 0.2937171387	 0.099065
H	 3.3929406646	-1.517216365	 1.5116659312	 0.285356
H	 1.1122646549	-3.6874621708	 2.7329801712	 0.105825
H	 2.8747618125	-2.5182897657	 3.7016375861	 0.298771
62.5653	86.1322	111.9642	202.7223	222.9537	247.5674	259.2092	272.3656	285.405	334.5636	358.476	409.454	481.9287	514.2204	552.7001	658.1261	743.6305	758.7604	849.097	874.9334	903.5536	912.4246	999.2637	1050.2163	1055.9755	1073.9961	1113.3699	1143.9671	1160.7962	1202.0683	1235.3441	1272.8458	1286.0525	1306.2035	1328.518	1337.2486	1352.0327	1398.0514	1399.2991	1412.6308	1472.305	1484.7978	1493.2996	1500.4253	1508.0173	3013.2169	3028.7866	3033.3229	3059.0599	3092.8357	3101.2885	3102.0255	3136.2103	3148.2883	3732.3439	3797.051	3805.2526
CCCC1(O)C(O)C1O	CCC[C@@]1(O)[C@@H](O)[C@H]1O	
InChI=1S/C6H12O3/c1-2-3-6(9)4(7)5(6)8/h4-5,7-9H,2-3H2,1H3	InChI=1S/C6H12O3/c1-2-3-6(9)4(7)5(6)8/h4-5,7-9H,2-3H2,1H3/t4-,5+,6+
