19
gdb 93263	1.98108	1.7689	1.40056	4.9251	70.68	-0.2604	0.0171	0.2774	1044.8438	0.158257	-460.211893	-460.202731	-460.201787	-460.245297	34.401	
C	-0.4057252749	 1.5920427858	-0.0466224238	-0.431494
C	 0.0150515989	 0.1213903836	-0.0741557919	 0.097246
C	-1.2193615653	-0.7935143519	 0.0883096943	-0.437236
C	 0.8482093826	-0.3011131944	-1.3001106827	 0.074047
O	 1.6238190458	 0.8081930389	-1.7216287408	-0.432859
C	 1.7324061758	-1.4163439496	-0.7129004372	-0.111415
O	 1.9179330615	-1.0917400318	 0.6693161131	-0.227984
C	 0.9749656248	-0.1980468842	 1.0820274874	 0.45699
O	 0.933498543	 0.2123768572	 2.2047221142	-0.354154
H	 0.4484335496	 2.2518323974	-0.1984633554	 0.144066
H	-1.1427224161	 1.7969316082	-0.8292887449	 0.109236
H	-0.8520649472	 1.8188688326	 0.9248904112	 0.134505
H	-1.9363888358	-0.6031329027	-0.7162890688	 0.122602
H	-0.96012828	-1.8569565451	 0.0681269019	 0.121736
H	-1.7095827599	-0.5880738881	 1.0434839901	 0.144463
H	 0.2195350301	-0.6769947343	-2.1188085877	 0.073223
H	 2.1898136869	 0.526632849	-2.4470753659	 0.28828
H	 1.2633970059	-2.4039245083	-0.7936646008	 0.115323
H	 2.7167924443	-1.4543525323	-1.1878889324	 0.113424
87.1318	178.1699	190.0232	215.3174	237.9507	262.6222	283.1971	298.9407	344.6567	415.3401	469.0273	546.2078	611.7151	726.9159	742.5482	767.8495	871.3713	902.1199	953.4355	971.2365	1006.6101	1026.109	1075.3053	1112.2921	1122.1194	1165.1815	1215.2654	1241.7357	1251.6087	1281.4046	1338.0145	1386.0141	1398.0197	1408.5988	1438.6521	1481.1855	1485.4492	1500.6587	1509.2636	1515.1429	1880.6646	3007.3534	3035.8213	3040.6799	3050.477	3093.4373	3105.9046	3119.2719	3123.4096	3153.1209	3822.2947
CC1(C)C(O)COC1=O	CC1(C)[C@@H](O)COC1=O	
InChI=1S/C6H10O3/c1-6(2)4(7)3-9-5(6)8/h4,7H,3H2,1-2H3	InChI=1S/C6H10O3/c1-6(2)4(7)3-9-5(6)8/h4,7H,3H2,1-2H3/t4-/m0/s1
