15
gdb 28816	3.368	1.35221	1.00117	2.7181	82.72	-0.247	-0.0879	0.1591	1138.9984	0.11252	-416.827023	-416.819148	-416.818204	-416.859842	28.805	
C	 0.019088143	 1.5193092703	-0.057041039	-0.449865
C	-0.0488769361	 0.0185439539	 0.0508756259	 0.299647
C	-1.254263307	-0.6197668298	-0.098664686	-0.029585
N	-1.5795962482	-1.9398171871	 0.0088400051	-0.21687
C	-0.765979439	-2.9377477821	-0.0281310236	-0.061428
C	 0.704209381	-2.9586560735	-0.2121050852	 0.28916
O	 1.2788187676	-3.9503520308	-0.6267166094	-0.323771
C	 1.4736051623	-1.7939461045	 0.3019867965	-0.060864
N	 1.1529076634	-0.5531285075	 0.3935693205	-0.265917
H	 0.7830552984	 1.8051643344	-0.787873256	 0.145079
H	-0.9368591085	 1.951174105	-0.3595032588	 0.129011
H	 0.3204178475	 1.9565534145	 0.9006965687	 0.148419
H	-2.1212127977	 0.0168193015	-0.25987043	 0.117223
H	-1.1966043711	-3.9359434582	 0.077655982	 0.138882
H	 2.4746410243	-2.0723907858	 0.6408973794	 0.140878
63.1698	130.8468	168.9064	300.037	317.5452	339.7397	408.2433	414.8623	492.9919	610.0059	660.1805	674.847	712.2936	873.7015	888.6338	926.688	951.8544	978.3178	1012.2382	1062.5353	1139.8323	1232.1355	1269.4274	1365.7853	1396.3403	1412.4424	1424.1553	1470.4326	1483.3708	1532.6885	1637.5255	1657.7542	1738.2453	3039.9642	3096.8676	3105.5028	3112.1597	3134.2802	3154.0467
CC1=CN=CC(=O)C=N1	Cc1cncc(=O)cn1	
InChI=1S/C6H6N2O/c1-5-2-7-3-6(9)4-8-5/h2-4H,1H3	InChI=1S/C6H6N2O/c1-5-2-7-3-6(9)4-8-5/h2-4H,1H3
