21
gdb 102723	1.92457	1.24	0.83275	0.8027	85.44	-0.2518	0.0403	0.2921	1456.1829	0.179447	-387.034119	-387.023906	-387.022961	-387.0699	37.445	
C	-0.9099309163	 1.284405383	-0.479871489	-0.391729
C	-0.2609318984	-0.0674977497	-0.1787415373	-0.182826
C	 0.5463128525	-0.0600808728	 1.1275186041	-0.056195
O	-0.3670121545	 0.2139953649	 2.1879726105	-0.251763
C	 0.2414660305	 0.4742792864	 3.4180460311	 0.143639
C	 0.7402499438	 1.8679441465	 3.706284898	-0.290111
C	-0.5267589711	 1.3441563304	 4.3561620254	-0.288307
C	 1.2519913793	-1.3320238829	 1.3332737988	 0.335333
C	 1.8237094493	-2.3773254954	 1.4940209753	-0.464019
H	-0.1540566388	 2.0687775492	-0.6010240399	 0.110838
H	-1.4914189488	 1.2375268132	-1.4052562243	 0.112812
H	-1.5782153348	 1.5818822533	 0.3314401636	 0.134384
H	-1.0225747659	-0.8502740496	-0.0969954525	 0.117465
H	 0.4137864289	-0.3616992082	-0.9895371562	 0.108524
H	 1.295607468	 0.7475455416	 1.0828774718	 0.094165
H	 0.8022061315	-0.365053496	 3.8251734157	 0.098708
H	 1.631303959	 1.9889016778	 4.3124077654	 0.114074
H	 0.6173876566	 2.6070442964	 2.9223207275	 0.118067
H	-1.467515215	 1.7374306281	 3.9883451536	 0.12453
H	-0.5160458409	 1.1015276373	 5.4126557554	 0.115018
H	 2.3316222649	-3.2990564538	 1.637305913	 0.197394
54.824	80.6632	104.3436	133.4974	168.6629	214.7898	251.9644	306.694	369.8579	410.8576	467.7481	529.4889	601.585	625.3729	671.2899	745.3739	774.9196	821.1244	839.3587	875.312	947.8789	971.327	990.1002	1022.2858	1052.3377	1068.9657	1073.4439	1121.0418	1135.7465	1155.3696	1194.1213	1203.6583	1240.5168	1286.401	1315.8079	1348.6075	1383.5913	1402.4165	1410.0156	1454.7604	1477.2161	1495.8834	1498.5868	1510.1945	2230.2014	2967.1771	3037.4294	3048.5419	3086.1484	3104.82	3122.7058	3129.8493	3135.2452	3142.1716	3219.1999	3234.1208	3502.6511
CCC(OC1CC1)C#C	CC[C@@H](OC1CC1)C#C	
InChI=1S/C8H12O/c1-3-7(4-2)9-8-5-6-8/h1,7-8H,4-6H2,2H3	InChI=1S/C8H12O/c1-3-7(4-2)9-8-5-6-8/h1,7-8H,4-6H2,2H3/t7-/m0/s1
