16
gdb 85597	2.93405	1.3896	0.98963	2.1214	66.7	-0.2668	-0.0478	0.219	1132.4453	0.124209	-475.049859	-475.04178	-475.040836	-475.082844	30.209	
O	 0.0130482941	 1.3784832493	 0.1680082796	-0.440438
C	-0.0042969475	-0.0080656293	 0.0048910656	 0.056512
C	-1.4299623157	-0.5688604952	-0.1411633622	-0.326837
C	-1.3880162177	-2.0755158651	-0.2087243566	 0.390871
N	-2.2481659785	-2.8028044922	 0.3609739992	-0.503684
O	-0.3106613939	-2.6269287789	-0.8650191843	-0.247788
C	 0.4666717137	-1.8264677403	-1.7479729267	-0.181421
C	 0.7499913729	-0.4201848465	-1.2438176087	 0.331687
O	 1.4603926595	 0.3514313723	-1.8455277078	-0.321164
H	 0.6700363018	 1.71195061	-0.4631059501	 0.297165
H	 0.4754847633	-0.5129621396	 0.8634256649	 0.113884
H	-2.056707337	-0.2759943444	 0.7005598832	 0.15946
H	-1.8862741768	-0.1544630896	-1.0494959797	 0.133947
H	-2.0442131107	-3.7909013889	 0.195993153	 0.225139
H	 1.4099326792	-2.3568267339	-1.9030402888	 0.16154
H	-0.0229123968	-1.7362873676	-2.7283685108	 0.151126
67.2534	132.2231	165.1015	289.6262	306.7885	368.3623	416.8634	443.1503	443.9366	560.2002	582.1124	627.5763	681.657	789.6814	819.2748	906.6913	920.0889	1029.023	1033.0067	1062.8294	1124.1913	1144.2455	1161.4372	1188.7976	1251.2061	1272.4929	1296.7162	1310.2469	1374.4499	1386.0454	1430.8474	1465.1433	1480.7241	1764.7299	1817.6813	2942.8127	3013.7231	3037.427	3103.2631	3143.9743	3465.3554	3700.6296
OC1CC(=N)OCC1=O	O[C@H]1C[C]([NH])OCC1=O	
InChI=1S/C5H7NO3/c6-5-1-3(7)4(8)2-9-5/h3,6-7H,1-2H2	InChI=1S/C5H7NO3/c6-5-1-3(7)4(8)2-9-5/h3,6-7H,1-2H2/t3-/m0/s1
