20
gdb 82512	2.80904	1.54689	1.35905	2.7839	77.44	-0.2256	0.0773	0.3029	1048.0582	0.17115	-403.116704	-403.108507	-403.107562	-403.148934	32.411	
C	-0.639241143	 1.3298739715	-2.4488393719	-0.43191
C	-0.2585774191	-0.1107715026	-2.1854453918	 0.013197
C	 1.0809951541	-0.7012724397	-2.4641432609	-0.086721
C	 2.2355303383	 0.2284095119	-2.6697572465	-0.047775
O	 3.3367803849	-0.0924869058	-1.8011340109	-0.301825
C	 2.4544268302	 0.9794643622	-1.42485191	 0.416109
C	 3.0705271547	 2.3467327695	-1.3168926703	-0.490234
C	 1.4033041543	 0.5096813794	-0.4193126811	-0.230916
N	 0.6006466186	-0.5534012149	-1.0669387185	-0.116351
H	 0.2138426531	 2.0099685471	-2.4652677762	 0.128298
H	-1.1406229454	 1.4043609451	-3.4195279504	 0.125807
H	-1.344383915	 1.6865991275	-1.6895018183	 0.127411
H	-1.0982258979	-0.7928413131	-2.3131514535	 0.094342
H	 1.170203036	-1.7174215026	-2.8408585205	 0.099221
H	 2.5065973237	 0.6039031465	-3.6538799046	 0.094024
H	 3.7886098502	 2.5116372221	-2.1237292549	 0.132773
H	 2.3043936536	 3.1284282639	-1.3600953075	 0.123061
H	 3.6014072856	 2.4534227992	-0.3643804169	 0.131912
H	 1.8845459181	 0.0832651622	 0.4674156109	 0.117271
H	 0.7667469149	 1.3381640705	-0.0883508963	 0.102308
135.9725	174.5457	196.1282	214.2428	294.3847	315.2092	391.7856	399.085	499.5942	534.727	610.5944	706.8315	743.2926	764.8999	797.5774	852.4877	907.3498	914.0366	970.2942	986.0033	1018.8526	1022.6803	1040.5916	1088.0873	1122.4914	1125.9142	1161.1449	1166.0685	1228.0968	1256.8054	1277.7071	1295.8505	1332.399	1376.9179	1409.1067	1414.5807	1425.336	1456.7166	1485.6813	1488.7189	1496.4029	1502.5797	1504.9165	3033.003	3036.9782	3039.5246	3076.183	3092.7446	3094.9324	3107.1965	3124.0876	3132.7837	3139.6556	3142.2923
CC1C2C3OC3(C)CN12	C[C@H]1[C@H]2[C@@H]3O[C@]3(C)CN12	
InChI=1S/C7H11NO/c1-4-5-6-7(2,9-6)3-8(4)5/h4-6H,3H2,1-2H3	InChI=1S/C7H11NO/c1-4-5-6-7(2,9-6)3-8(4)5/h4-6H,3H2,1-2H3/t4-,5-,6-,7+,8?/m0/s1
