17
gdb 107535	2.00893	1.69494	1.11417	5.5871	72.86	-0.2544	0.0292	0.2836	1111.6732	0.136401	-417.967562	-417.959074	-417.95813	-418.001108	31.321	
O	 0.0134380836	 1.4145775589	 0.2257909389	-0.403712
C	 0.0431800588	 0.0230418174	-0.0359451502	-0.18332
C	-1.3293934733	-0.5660448491	-0.1175338385	 0.308868
N	-2.0961387037	-0.9695013245	 1.0880375695	-0.36175
C	-1.8655848848	-1.9502801751	 0.0006801754	-0.117921
C	-2.9600307082	-1.6832346115	-1.0357085141	-0.234886
C	-2.3935138026	-0.21571278	-1.1839551453	-0.195808
C	-3.2799975302	 0.902081419	-0.8989426833	 0.293087
N	-3.9856686892	 1.7908970924	-0.6796993318	-0.33529
H	-0.5482945577	 1.5667652246	 0.9938704908	 0.29773
H	 0.5621557708	-0.0842518365	-0.9950644932	 0.119416
H	 0.6310773092	-0.5312702156	 0.7159806432	 0.088959
H	-1.4158840176	-1.1683943702	 1.8226713747	 0.231954
H	-1.3450499151	-2.8800827835	 0.192796443	 0.108964
H	-2.8499688431	-2.251258001	-1.9603904823	 0.11957
H	-3.981277532	-1.7631483905	-0.6611683324	 0.135535
H	-1.9350672151	-0.071547985	-2.1654473044	 0.128606
73.6855	93.5661	138.4964	211.5887	283.0206	311.3443	373.0607	412.5885	464.7818	534.2227	568.0242	681.3107	728.2651	799.3986	896.2017	921.5971	924.8484	961.6289	1011.6166	1024.8922	1058.7645	1070.6399	1077.1214	1117.3057	1165.4027	1183.6378	1202.3353	1249.314	1292.0563	1312.2441	1353.1193	1366.4683	1415.7789	1447.9888	1479.958	1499.4057	2358.4047	2958.2047	3063.1875	3083.3037	3088.1767	3149.0547	3197.7867	3461.6561	3807.7554
OCC12NC1CC2C#N	OC[C@]12N[C@H]1C[C@H]2C#N	
InChI=1S/C6H8N2O/c7-2-4-1-5-6(4,3-9)8-5/h4-5,8-9H,1,3H2	InChI=1S/C6H8N2O/c7-2-4-1-5-6(4,3-9)8-5/h4-5,8-9H,1,3H2/t4-,5-,6+/m0/s1
