13
gdb 27918	2.07992	1.87697	0.98662	1.4057	63.65	-0.2432	-0.0069	0.2363	1081.5795	0.091933	-489.980467	-489.973556	-489.972612	-490.011775	27.083	
O	 0.0501438707	 1.3156321708	 0.0188423354	-0.407849
C	 0.0705624947	-0.0236455101	-0.0308183392	 0.457325
C	 0.0329600051	-0.6618320055	-1.2641114928	-0.336177
C	 0.0587069993	-2.0512011646	-1.1984468909	 0.459508
O	 0.0261441088	-2.7615980322	-2.3333343782	-0.407906
N	 0.1148801082	-2.7413626983	-0.0571918441	-0.401398
C	 0.1457749814	-2.0057086436	 1.0453829307	 0.454055
O	 0.2020829558	-2.6899992724	 2.1955184353	-0.389804
N	 0.1270197318	-0.674987046	 1.1343061919	-0.463462
H	 0.0827805162	 1.5558024243	 0.955477228	 0.302354
H	-0.0125783498	-0.1222853873	-2.1978052864	 0.12288
H	 0.0520188351	-3.6926718028	-2.0689667968	 0.304964
H	 0.2187760827	-2.0321068425	 2.9034223672	 0.305508
190.3048	219.7043	240.3606	352.1943	356.3818	537.2772	537.6014	562.1623	563.1275	566.7395	601.1864	656.4987	722.9661	732.0148	808.4699	841.2451	997.5976	1032.5648	1091.0917	1168.465	1242.1788	1252.6264	1277.2196	1385.8406	1487.4025	1503.3208	1528.575	1657.827	1676.3533	3250.0934	3758.2021	3768.116	3788.2883
OC1=CC(O)=NC(O)=N1	Oc1cc(O)nc(O)n1	
InChI=1S/C4H4N2O3/c7-2-1-3(8)6-4(9)5-2/h1H,(H3,5,6,7,8,9)	InChI=1S/C4H4N2O3/c7-2-1-3(8)6-4(9)5-2/h1H,(H3,5,6,7,8,9)
