17
gdb 8056	3.56008	1.81474	1.49536	4.1859	70.64	-0.2326	0.0153	0.248	891.608	0.141939	-363.821522	-363.814159	-363.813215	-363.853003	27.977	
C	-0.0711608179	 1.465555697	 0.0384864982	-0.516651
C	 0.0095822687	-0.0317096141	 0.0791380316	 0.313788
C	 0.3297158148	-1.0456545914	-1.0696391708	-0.255833
C	-0.0496250846	-1.8872820125	 0.1838987123	-0.018093
C	 0.8503289472	-0.9428691536	 1.0261668182	-0.249501
N	-1.1701022441	-0.9225365888	 0.4573174635	-0.092563
C	-2.4035435974	-0.9649677512	-0.1379427076	 0.123146
O	-2.990873996	-1.9770667929	-0.4565137451	-0.320537
H	 0.9135060871	 1.8842377252	-0.1920313371	 0.133701
H	-0.7707724723	 1.8088913081	-0.7299452019	 0.132766
H	-0.395229719	 1.8629954303	 1.005157696	 0.13756
H	-0.3772276535	-1.0771847794	-1.9007221106	 0.117495
H	 1.3685044428	-1.0955460043	-1.4077278935	 0.100079
H	-0.1919370452	-2.9612800683	 0.2703023773	 0.113243
H	 1.9224755118	-0.9862443304	 0.8283999697	 0.102059
H	 0.6137664228	-0.8736466708	 2.0885685259	 0.110654
H	-2.8609437751	 0.0438478673	-0.2098337961	 0.068688
118.7629	157.099	206.5718	261.5762	303.0007	332.8994	496.1317	568.7683	625.1121	665.4634	758.0707	776.1213	858.308	900.0612	936.9451	969.0587	1004.2158	1011.4872	1031.474	1038.0219	1098.2527	1123.2521	1165.7049	1181.4067	1214.3792	1232.2908	1236.289	1328.941	1342.622	1411.9328	1421.6328	1480.9877	1483.8146	1489.837	1525.2628	1782.3094	2914.717	3038.6733	3056.8307	3079.4947	3109.6189	3113.8133	3135.1923	3155.9035	3161.9058
CC12CC(C1)N2C=O	C[C@@]12C[C@@H](C1)N2C=O	
InChI=1S/C6H9NO/c1-6-2-5(3-6)7(6)4-8/h4-5H,2-3H2,1H3	InChI=1S/C6H9NO/c1-6-2-5(3-6)7(6)4-8/h4-5H,2-3H2,1H3/t5-,6+
