13
gdb 5505	3.3879	1.90147	1.21791	5.8404	63.42	-0.2135	-0.0257	0.1878	903.5142	0.096411	-398.64233	-398.635246	-398.634302	-398.673552	26.208	
O	 0.1119796897	 1.3502708186	 0.1766048597	-0.436889
C	 0.075172455	-0.0028487726	 0.0509160698	 0.213439
C	 0.0676494656	-0.7689075422	-1.0896078087	-0.208802
N	 0.0247908526	-2.0946608385	-0.6794851773	-0.235379
C	 0.0059877544	-2.1742551216	 0.669060361	-0.126652
C	 0.0361723652	-0.8825391327	 1.180823868	 0.110513
C	 0.0287436394	-0.5258986395	 2.5913737738	 0.060968
O	-0.0056025251	-1.3275781778	 3.5044754725	-0.300786
H	 0.1342162371	 1.7509163385	-0.6979237352	 0.300662
H	 0.0882223096	-0.5016890929	-2.1331135123	 0.121563
H	 0.0100962476	-2.8821748496	-1.3039239401	 0.271998
H	-0.027149379	-3.1144414399	 1.1939794517	 0.154131
H	 0.0569216379	 0.5659572503	 2.7918579372	 0.075236
150.6515	171.8317	224.4872	284.5398	344.5212	350.9883	486.4227	562.5863	619.2254	642.3936	647.2487	714.0724	804.0912	813.7372	911.24	1046.1293	1077.8137	1108.1525	1165.5934	1250.0081	1284.5768	1352.2434	1423.963	1465.1069	1494.7446	1561.2083	1620.0025	1774.4314	2908.0127	3266.4157	3280.3847	3681.1269	3831.7062
OC1=CNC=C1C=O	Oc1c[nH]cc1C=O	
InChI=1S/C5H5NO2/c7-3-4-1-6-2-5(4)8/h1-3,6,8H	InChI=1S/C5H5NO2/c7-3-4-1-6-2-5(4)8/h1-3,6,8H
