19
gdb 62179	4.93903	0.5673	0.52442	0.8528	81.08	-0.3235	0.0209	0.3444	1992.8509	0.158421	-382.1123	-382.102091	-382.101147	-382.148717	35.298	
C	 0.1359585313	 1.5941868638	-0.0380672915	-0.393144
C	 0.0110961671	 0.0575067783	-0.045984597	-0.149921
C	-1.4501885807	-0.4504583321	 0.0169077372	-0.187642
C	-2.1624642324	-0.0984737794	 1.3263520793	-0.198732
C	-3.5774095961	-0.7099157087	 1.3781660313	-0.344764
C	-4.2814309071	-0.3787758833	 2.6150628917	 0.258087
N	-4.8202140417	-0.104829526	 3.5997741438	-0.298661
C	 0.6674040617	-0.4943793123	-1.2369780212	 0.266392
N	 1.1713686899	-0.9267931995	-2.1829176838	-0.317623
H	 1.1818679224	 1.8968802214	-0.1259878862	 0.144762
H	-0.4166723078	 2.0311238146	-0.8748618259	 0.138955
H	-0.2590308593	 2.0059999815	 0.8933500669	 0.133088
H	 0.5499154257	-0.3411049135	 0.8240192389	 0.131173
H	-2.0041297938	-0.0395818082	-0.8361220735	 0.121718
H	-1.4444732827	-1.5388172154	-0.112281421	 0.124276
H	-1.5835531888	-0.4671724336	 2.1810076681	 0.126229
H	-2.2451054791	 0.98583593	 1.4466168006	 0.131026
H	-4.1760226563	-0.3544993099	 0.5312327667	 0.157251
H	-3.5246052224	-1.8011756277	 1.2883474756	 0.15753
44.3731	82.8254	86.7918	121.349	152.8874	208.9348	247.0977	301.0384	313.1014	385.1153	398.5726	534.1285	560.8943	592.4489	742.0928	807.2056	848.4044	913.8885	953.0456	990.3716	1017.903	1053.5578	1087.9043	1119.9021	1143.237	1209.4073	1259.6941	1294.2226	1324.7504	1329.1929	1346.5848	1369.5043	1399.7097	1415.2131	1468.8427	1482.6605	1496.6352	1501.0078	1505.3844	2357.8295	2364.6465	3023.1062	3032.5324	3038.4995	3049.651	3052.6331	3068.0138	3076.4902	3102.8924	3127.9693	3134.8071
CC(CCCC#N)C#N	C[C@@H](CCCC#N)C#N	
InChI=1S/C7H10N2/c1-7(6-9)4-2-3-5-8/h7H,2-4H2,1H3	InChI=1S/C7H10N2/c1-7(6-9)4-2-3-5-8/h7H,2-4H2,1H3/t7-/m0/s1
