21
gdb 36798	8.03623	0.47385	0.46484	4.0446	85.05	-0.241	0.0364	0.2773	2296.7139	0.182112	-383.258571	-383.248601	-383.247657	-383.295008	35.062	
N	-0.1339607399	-1.1421953824	 0.0158182349	-0.304732
C	-0.0764517037	 0.0094969404	 0.091670983	 0.256584
C	 0.0215033251	 1.4646870552	 0.1828363384	-0.341151
C	 1.4470366034	 1.9837450681	-0.0922565495	-0.181942
C	 1.5286205079	 3.5087339294	 0.0112839244	-0.183841
C	 2.9351741444	 4.0432840493	-0.2619902272	-0.147972
N	 2.9536759094	 5.4998047793	-0.203272273	-0.060515
C	 3.2282787582	 6.0912445722	 1.103335341	-0.220727
C	 4.2522527705	 6.1224567446	 0.0230612961	-0.220589
H	-0.6861579507	 1.905947592	-0.5288018313	 0.153376
H	-0.3076460055	 1.7725653136	 1.1822994602	 0.151639
H	 2.1387041377	 1.5167853406	 0.6182086883	 0.120417
H	 1.7584435565	 1.65540782	-1.0904049729	 0.12218
H	 0.8347554485	 3.9744635334	-0.6987843015	 0.113534
H	 1.2106140972	 3.8297530499	 1.0120189055	 0.101521
H	 3.6515708139	 3.5907549837	 0.4500154877	 0.079625
H	 3.2558612743	 3.7448300828	-1.2679996506	 0.106539
H	 2.6578597084	 6.9812831077	 1.3523509303	 0.118715
H	 3.4124813777	 5.418219716	 1.940097702	 0.107927
H	 5.1175608279	 5.4717975987	 0.1416679619	 0.110159
H	 4.4426439289	 7.0354517257	-0.5336829778	 0.119252
46.2635	63.7149	82.9341	116.1955	136.986	179.7103	280.3455	324.2505	397.9096	402.1764	469.8083	562.4509	738.4411	770.912	791.4047	840.8475	898.6547	926.5547	934.6308	1005.172	1025.2348	1042.3215	1059.6433	1084.5077	1113.3539	1117.3442	1129.9638	1163.6068	1177.4629	1225.7014	1256.7191	1286.9188	1319.357	1326.2676	1330.603	1333.6499	1387.9719	1410.5785	1468.2718	1484.1869	1490.5628	1495.3683	1509.2926	1524.6734	2362.4435	2920.7789	3019.7236	3034.4925	3040.6213	3046.3417	3059.1751	3072.5793	3091.2527	3093.4806	3096.7434	3176.5969	3190.7671
N#CCCCCN1CC1	N#CCCCCN1CC1	
InChI=1S/C7H12N2/c8-4-2-1-3-5-9-6-7-9/h1-3,5-7H2	InChI=1S/C7H12N2/c8-4-2-1-3-5-9-6-7-9/h1-3,5-7H2
