19
gdb 117807	2.43236	1.15822	0.9983	4.0111	71.82	-0.2411	0.0272	0.2683	1275.6085	0.158467	-456.346024	-456.335852	-456.334908	-456.381144	37.106	
N	 0.1089660232	 1.3600901956	-0.3603376299	-0.512318
C	 0.0437476351	 0.0193031896	 0.1904152192	-0.160466
C	-1.3332733967	-0.6880697261	 0.0646407527	 0.194116
O	-1.673265597	-0.6498386518	-1.3075554272	-0.451324
C	-1.2638790451	-2.1372255747	 0.595527685	-0.23566
C	-2.6055141461	-2.8620156852	 0.621011184	-0.109204
O	-3.1209179115	-2.902748682	-0.7155910469	-0.420152
C	-2.3342246979	 0.0849438817	 0.8507845842	 0.256694
N	-3.1075437231	 0.6860593959	 1.4656545093	-0.356803
H	-0.2463064271	 1.3418716039	-1.3120645586	 0.244861
H	-0.4987897327	 1.9837078233	 0.1638329987	 0.238884
H	 0.7612543666	-0.6163806518	-0.3409912231	 0.1151
H	 0.3369062592	 0.0449866337	 1.2453443646	 0.113013
H	-2.3704134769	-1.3120873374	-1.4416946607	 0.297948
H	-0.5659268349	-2.6793960275	-0.051471284	 0.12757
H	-0.851171759	-2.1381301652	 1.610375406	 0.120391
H	-2.4678116619	-3.8812994418	 1.0073860374	 0.106082
H	-3.3024943883	-2.3364660056	 1.286766798	 0.128678
H	-4.0550265659	-3.1284461148	-0.6813999887	 0.30259
56.7135	103.2744	152.1936	158.7371	197.6939	237.1448	280.5522	302.8217	334.7178	365.6944	418.6953	439.2778	489.0016	587.1863	600.1556	655.4121	692.3077	861.94	869.6754	911.6039	946.0781	979.0018	1007.7075	1087.7393	1096.7036	1128.3616	1170.9023	1184.8935	1260.1219	1267.4279	1318.9406	1356.8931	1384.5733	1405.2919	1434.0443	1455.0655	1458.8936	1472.7177	1520.4308	1670.7057	2340.4478	3004.2568	3036.5238	3042.3301	3052.5527	3087.0863	3098.3605	3492.0588	3571.5544	3673.2625	3839.2208
NCC(O)(CCO)C#N	NC[C@@](O)(CCO)C#N	
InChI=1S/C5H10N2O2/c6-3-5(9,4-7)1-2-8/h8-9H,1-3,6H2	InChI=1S/C5H10N2O2/c6-3-5(9,4-7)1-2-8/h8-9H,1-3,6H2/t5-/m0/s1
