17
gdb 48984	3.21567	1.49182	1.36814	3.5092	67.26	-0.2614	-0.0368	0.2246	983.3699	0.136747	-458.972028	-458.964682	-458.963738	-459.00428	28.15	
O	-0.6033386685	 0.7659178069	 0.5915565851	-0.240029
C	 0.2372783781	 0.9657974002	-0.2430268981	 0.105941
C	 1.4079234813	 1.9098137789	-0.038629866	 0.431612
C	 1.5872568379	 2.678126155	 1.2675409526	-0.278593
C	 2.8699653492	 3.3285103783	 0.7068928877	-0.113485
C	 3.6505154455	 2.0589730302	 0.3160515253	-0.076005
O	 2.6160445858	 1.1743787927	-0.1790381916	-0.312549
C	 2.3055028389	 3.9247049828	-0.5968512091	-0.076012
O	 1.3557115999	 2.9226039816	-1.0343814488	-0.312533
H	 0.2246251517	 0.4728284773	-1.2365928817	 0.103874
H	 0.7749759733	 3.3783744089	 1.4653635917	 0.121166
H	 1.7494948342	 2.0264577111	 2.1267698744	 0.121211
H	 3.4108669279	 4.0291806502	 1.3419055445	 0.086572
H	 4.3872425273	 2.2328278378	-0.4760751849	 0.110791
H	 4.1512051661	 1.5908742525	 1.1719417175	 0.108623
H	 1.7835034982	 4.8753467097	-0.4351512592	 0.108621
H	 3.067094943	 4.064014166	-1.3721126392	 0.110795
56.3401	183.1397	184.9866	263.1074	383.8184	430.4896	485.1581	534.8787	591.264	719.9542	799.9768	840.3539	864.2114	869.9077	924.147	948.7213	952.2593	965.0586	975.4176	1021.1664	1089.2428	1102.3188	1108.3612	1152.3574	1167.1684	1192.7392	1222.6833	1283.3053	1312.3109	1352.2375	1354.7271	1392.1253	1412.9688	1490.4172	1515.9957	1532.4077	1849.5846	2932.245	3024.9619	3026.673	3068.353	3073.2092	3091.0931	3130.661	3152.4773
O=CC12CC(CO1)CO2	O=C[C@@]12C[C@@H](CO1)CO2	
InChI=1S/C6H8O3/c7-4-6-1-5(2-8-6)3-9-6/h4-5H,1-3H2	InChI=1S/C6H8O3/c7-4-6-1-5(2-8-6)3-9-6/h4-5H,1-3H2/t5-,6-
