21
gdb 119626	3.91016	0.93003	0.85156	1.3405	78.37	-0.2269	0.0821	0.309	1422.4967	0.182868	-424.212405	-424.203393	-424.202449	-424.246483	33.985	
O	-0.1323907166	 1.4844415058	-0.1754652532	-0.423288
C	-0.0308791278	 0.0694579297	-0.0934574977	-0.07241
C	-1.4393888851	-0.480635124	 0.1124628309	-0.265711
C	-1.4712969754	-1.9816209096	 0.1939853927	 0.465073
C	-1.5040732868	-2.8673038352	-1.0321663739	-0.360575
C	-2.6703632807	-2.8529756604	-0.0540251285	-0.126731
C	-2.6608639554	-3.8938502713	 1.0528897076	-0.23829
C	-1.2232187945	-3.7880052802	 1.6098641755	-0.09526
O	-0.7656334235	-2.4694879762	 1.3173711863	-0.303252
H	 0.7567467542	 1.844474054	-0.2384033944	 0.284253
H	 0.4003372692	-0.354863465	-1.0144675116	 0.083601
H	 0.6081547703	-0.2429957196	 0.7444107528	 0.105322
H	-1.8524430516	-0.0543971504	 1.0338432506	 0.109979
H	-2.0740941953	-0.147007753	-0.7154962437	 0.104361
H	-1.6625094607	-2.3818860968	-1.9894113924	 0.112444
H	-0.8608934113	-3.7400191388	-1.0788900973	 0.112039
H	-3.6183978577	-2.4353927709	-0.3734638402	 0.08944
H	-3.3986237437	-3.6219644827	 1.8152588548	 0.108449
H	-2.8877436284	-4.9092446326	 0.7136012627	 0.104125
H	-1.1618032457	-3.9338032247	 2.69198944	 0.109109
H	-0.5670863437	-4.5305705881	 1.1345238991	 0.097324
76.5567	96.5105	116.5289	219.3516	246.2177	255.2499	331.3388	347.9336	413.7027	450.7856	662.6517	682.924	720.3539	795.8849	839.9456	869.2026	895.4702	922.9629	934.4379	964.801	1003.4493	1020.2787	1034.4293	1057.9917	1081.5288	1096.6454	1103.7356	1138.1516	1198.019	1220.269	1234.4531	1245.4886	1259.0316	1273.6873	1316.6101	1320.7327	1349.4254	1393.89	1414.006	1459.6296	1479.1757	1484.5529	1496.0172	1529.5306	1530.8076	2972.0494	3001.0832	3019.979	3041.0193	3044.5827	3079.4663	3088.4215	3092.1174	3128.2141	3172.2187	3213.2142	3833.045
OCCC12CC1CCO2	OCC[C@]12C[C@H]1CCO2	
InChI=1S/C7H12O2/c8-3-2-7-5-6(7)1-4-9-7/h6,8H,1-5H2	InChI=1S/C7H12O2/c8-3-2-7-5-6(7)1-4-9-7/h6,8H,1-5H2/t6-,7+/m1/s1
