18
gdb 7689	3.44525	1.7356	1.52967	2.2395	67.88	-0.2391	0.0682	0.3073	901.9333	0.152481	-384.901604	-384.893484	-384.892539	-384.933326	31.677	
C	-0.0564410679	 1.5841124859	-0.0505968812	-0.464176
C	 0.0652691243	 0.0804019838	 0.0501155557	 0.413874
O	-1.105249682	-0.5955999528	-0.3620382133	-0.475217
C	 1.3134361703	-0.718697464	-0.2232559616	-0.121217
C	 2.5706385197	-0.015481231	 0.2930389528	-0.302371
C	 1.9513886816	-0.0520221775	 1.7384488229	 0.104631
O	 1.7676919916	 1.1540564857	 2.4525486692	-0.428191
C	 0.6794226482	-0.6790774918	 1.190961208	-0.101729
H	 0.7910249314	 2.0978510491	 0.4020095294	 0.138365
H	-0.1391164445	 1.8946729991	-1.1006360423	 0.094786
H	-0.9618155553	 1.9087182666	 0.4712024843	 0.12663
H	-1.2224730673	-0.4210260216	-1.3023640609	 0.278761
H	 1.2916110083	-1.5399773265	-0.9290397989	 0.084739
H	 3.4780772452	-0.618573624	 0.2115553319	 0.100712
H	 2.7717085858	 0.9794132915	-0.1154523973	 0.097479
H	 2.4913745297	-0.7836143653	 2.3540727491	 0.077835
H	 2.6222324215	 1.4311357446	 2.7984342286	 0.282858
H	 0.0905590292	-1.4360492415	 1.6940764835	 0.092231
153.9213	192.8128	207.7926	267.8877	282.9037	291.4516	397.0472	399.2512	421.8515	459.0399	592.7538	654.7845	691.7011	820.9333	847.8886	881.2942	948.8656	984.2479	1003.3229	1010.3601	1016.8917	1055.9556	1097.4536	1099.116	1150.7286	1177.8132	1217.4558	1237.6993	1257.589	1279.1325	1312.2197	1330.9697	1416.9236	1424.2552	1444.6457	1482.5916	1491.1512	1505.8692	3007.0543	3020.4377	3051.3938	3093.9038	3104.7983	3156.4686	3184.255	3194.2613	3796.7573	3813.359
CC1(O)C2CC(O)C12	C[C@@]1(O)[C@H]2C[C@@H](O)[C@@H]12	
InChI=1S/C6H10O2/c1-6(8)3-2-4(7)5(3)6/h3-5,7-8H,2H2,1H3	InChI=1S/C6H10O2/c1-6(8)3-2-4(7)5(3)6/h3-5,7-8H,2H2,1H3/t3-,4+,5-,6+/m0/s1
