21
gdb 89449	2.34532	1.68962	1.23206	1.2628	83.06	-0.2355	0.0234	0.2589	1104.0088	0.182845	-387.095683	-387.0872	-387.086256	-387.128342	33.904	
C	-0.9880146452	 1.0778198276	-0.0114930086	-0.41369
C	-0.0067407233	-0.0838188178	-0.0254035253	 0.045209
C	 1.2594940611	 0.0268106629	-0.9243516319	-0.300489
C	 2.1345701323	-0.5361041858	 0.2392758427	 0.420646
O	 2.4683881226	-1.9018224429	 0.1051861863	-0.496146
C	 3.2876230811	 0.3681136834	 0.7279399256	-0.338524
C	 2.6080670362	 1.2590740392	 1.7415770428	-0.066412
C	 1.3515322731	 0.8874288793	 1.9980689838	-0.076574
C	 0.9296145097	-0.3204920111	 1.2084564694	-0.106646
H	-0.4818244458	 2.0201626934	 0.2240739436	 0.115504
H	-1.471930082	 1.1931674031	-0.9879058669	 0.111166
H	-1.7776323239	 0.9269160385	 0.7335871671	 0.110784
H	-0.5380186791	-1.0145558935	-0.2478984326	 0.076155
H	 1.2615273306	-0.572307972	-1.8391020594	 0.089962
H	 1.5095690869	 1.0617961071	-1.1768593374	 0.094228
H	 3.0775099728	-1.9869555978	-0.6363745418	 0.273693
H	 4.0790370029	-0.2376302826	 1.1903701586	 0.106803
H	 3.752578556	 0.9336304428	-0.0907040956	 0.094788
H	 3.1175218737	 2.091351806	 2.2162986888	 0.090775
H	 0.6966750298	 1.3812444469	 2.7084847227	 0.091035
H	 0.6555814405	-1.1694342663	 1.8429157482	 0.077732
78.9151	185.6411	231.2053	249.0185	284.0385	308.2011	343.3796	402.7604	435.2284	512.9626	585.9698	616.5735	736.4123	767.7372	780.5826	850.0809	894.897	907.0552	918.8867	955.4952	968.8956	982.0718	1014.6543	1029.7057	1078.1717	1097.6306	1127.4843	1137.4737	1166.464	1185.7579	1204.4042	1257.2194	1262.3426	1271.178	1290.6887	1314.9544	1359.642	1365.6503	1394.9727	1408.4978	1466.0744	1480.4259	1494.108	1499.0364	1674.6356	3007.4714	3023.3787	3039.5328	3045.9288	3047.7225	3059.6689	3087.3739	3095.8338	3105.7649	3173.074	3198.0271	3798.7798
CC1CC2(O)CC=CC12	C[C@H]1C[C@@]2(O)CC=C[C@@H]12	
InChI=1S/C8H12O/c1-6-5-8(9)4-2-3-7(6)8/h2-3,6-7,9H,4-5H2,1H3	InChI=1S/C8H12O/c1-6-5-8(9)4-2-3-7(6)8/h2-3,6-7,9H,4-5H2,1H3/t6-,7-,8-/m0/s1
