18
gdb 126267	2.38999	1.36003	0.92719	3.2903	75.94	-0.2145	0.0027	0.2172	1285.8517	0.148018	-435.264354	-435.25515	-435.254206	-435.299777	32.247	
C	-0.3684996466	 1.5580780992	-0.0407369397	-0.369046
C	 0.0556930943	 0.0810496965	 0.0574556378	-0.308949
C	 0.7850203214	-0.419099913	-1.1446978409	 0.220313
C	 2.1229916345	-0.6695661942	-1.3873410161	 0.333252
O	 3.1184325785	-0.5125332187	-0.4972529822	-0.275576
C	 4.4201478791	-0.8659134837	-0.9609315544	-0.239964
N	 2.2937901985	-1.1009036709	-2.6595489359	-0.285157
N	 1.1231621937	-1.1381114419	-3.2499572645	-0.139906
N	 0.2235109873	-0.7282645426	-2.3457884661	-0.227547
H	 0.5028197743	 2.2033300529	-0.1835989699	 0.134164
H	-1.0475155996	 1.7237582585	-0.8835544117	 0.113942
H	-0.8833010495	 1.8725297852	 0.8720606969	 0.11987
H	 0.7173042535	-0.0533284007	 0.9186344258	 0.135279
H	-0.8274270622	-0.5427965044	 0.2464398896	 0.111616
H	 4.4612412698	-1.9196124623	-1.2552600985	 0.136188
H	 4.7118055026	-0.2536462034	-1.8201927487	 0.137233
H	 5.0936075868	-0.6830117359	-0.1224751515	 0.126657
H	-0.7491864363	-0.6946599306	-2.6074141497	 0.277632
25.2963	77.3541	149.4062	166.3194	176.5934	237.4593	304.1898	314.7149	416.2867	539.8866	573.201	623.6029	715.6821	736.8878	755.6942	784.0852	968.8242	1005.1778	1059.5882	1067.2178	1082.4913	1114.9303	1180.9922	1205.4453	1214.5057	1244.232	1300.4024	1345.138	1364.2455	1383.084	1411.7686	1463.8801	1480.7075	1481.2926	1497.0777	1502.7152	1504.2384	1541.7153	1649.3789	3024.8512	3034.2979	3038.3799	3082.5221	3101.6613	3109.5926	3120.217	3144.1908	3650.9059
CCC1=C(OC)N=NN1	CCc1c(OC)nn[nH]1	
InChI=1S/C5H9N3O/c1-3-4-5(9-2)7-8-6-4/h3H2,1-2H3,(H,6,7,8)	InChI=1S/C5H9N3O/c1-3-4-5(9-2)7-8-6-4/h3H2,1-2H3,(H,6,7,8)
