23
gdb 118032	2.13279	0.91361	0.67501	3.9899	83.09	-0.2444	-0.0179	0.2265	1696.4345	0.202084	-425.435048	-425.423482	-425.422537	-425.47306	40.354	
C	 0.0704729576	 1.606462616	 0.0721314419	-0.411412
C	-0.0236165089	 0.0747549353	 0.0011681147	 0.006968
C	-1.4867259815	-0.4090463197	 0.0365800274	-0.178673
C	-2.2146410234	-0.1545869594	 1.3524089436	-0.085444
O	-3.490048069	-0.7707769882	 1.2541070571	-0.418811
C	 0.6914804516	-0.4959441824	-1.2507114471	-0.045926
C	 2.1608369284	-0.0478595688	-1.3871895	-0.427164
C	 0.6977934858	-2.0133506523	-1.203285635	 0.159547
O	 0.3503426524	-2.7442769795	-2.0938312605	-0.254341
H	 1.1054425052	 1.9510680928	 0.1375965564	 0.118504
H	-0.3834842303	 2.0670060822	-0.8133454553	 0.118794
H	-0.4523237633	 1.9945911095	 0.9504967085	 0.118897
H	 0.4921884447	-0.3362820206	 0.8836669972	 0.071485
H	-2.0523192462	 0.0613754173	-0.777776979	 0.108318
H	-1.5330633044	-1.4888108922	-0.1483499071	 0.121289
H	-1.6299165014	-0.5792061243	 2.1861060239	 0.08316
H	-2.3154840186	 0.9246245276	 1.5422850715	 0.08717
H	-3.9767860479	-0.5872710582	 2.062776597	 0.285986
H	 0.1407531266	-0.2062519323	-2.1534430452	 0.092315
H	 2.630331428	-0.5271759507	-2.2513952549	 0.13284
H	 2.2344194463	 1.0327731384	-1.5270361025	 0.130474
H	 2.7419112576	-0.3137162204	-0.4963986677	 0.119751
H	 1.1025218009	-2.42918495	-0.2471684548	 0.066272
43.9721	60.197	66.4244	101.984	145.6774	198.9958	210.5176	263.1192	270.9803	307.193	320.8361	348.5645	395.5598	427.6395	497.1843	574.4837	787.9513	845.7118	883.9785	925.7779	957.9022	971.8762	995.6855	1018.4588	1067.8195	1074.0236	1126.3342	1154.2005	1173.4454	1176.5736	1230.6199	1247.5524	1275.6713	1308.729	1321.2944	1344.4237	1368.2982	1381.8364	1402.5382	1417.4237	1426.587	1465.0993	1486.9756	1494.7055	1497.3322	1501.7908	1517.4792	1527.9245	1835.4302	2824.894	2956.9814	2979.1164	2995.7311	3029.7133	3034.2498	3037.2998	3048.8925	3071.78	3103.7936	3104.646	3115.2544	3126.3425	3830.9964
CC(CCO)C(C)C=O	C[C@@H](CCO)[C@@H](C)C=O	
InChI=1S/C7H14O2/c1-6(3-4-8)7(2)5-9/h5-8H,3-4H2,1-2H3	InChI=1S/C7H14O2/c1-6(3-4-8)7(2)5-9/h5-8H,3-4H2,1-2H3/t6-,7-/m0/s1
