21
gdb 74388	3.11409	1.52901	1.18265	0.2235	88.56	-0.2075	0.0169	0.2244	1125.8574	0.182764	-349.913061	-349.905022	-349.904078	-349.944985	32.779	
C	-0.0533695548	 1.4995233358	 0.0202550439	-0.50598
C	-0.0062888184	 0.0109397929	-0.0302586098	 0.325297
C	-0.0320629968	-0.8433611545	-1.0560594684	-0.29745
C	 0.0480458477	-2.2303015305	-0.4226717455	 0.347451
C	 0.0402411315	-3.4389931609	-1.3335896592	-0.512798
C	-0.8275160392	-2.1580036354	 0.8968135233	-0.069903
C	 0.1853042481	-3.0601505031	 1.640466226	-0.269294
C	 1.0513502797	-2.0950295162	 0.7971401112	-0.069908
C	 0.088873331	-0.9135442779	 1.1790023229	-0.114441
H	 0.8397132937	 1.912894191	 0.5070906982	 0.124912
H	-0.1226936281	 1.9326747786	-0.981608691	 0.123584
H	-0.9135621977	 1.8542000792	 0.603110416	 0.124876
H	-0.0953117247	-0.6370666763	-2.1167829559	 0.089683
H	 0.8873269308	-3.4073149818	-2.0282695062	 0.11749
H	 0.1009122196	-4.380612387	-0.7804566938	 0.11635
H	-0.8755175413	-3.4661571742	-1.935075286	 0.117489
H	-1.9203895914	-2.1808414973	 0.9490316452	 0.060355
H	 0.2386875949	-2.9351921719	 2.7257331922	 0.086066
H	 0.2068537292	-4.120148671	 1.3769674497	 0.090225
H	 2.1426957364	-2.0446667278	 0.7334947766	 0.060351
H	 0.1283082701	-0.4952095416	 2.1867572804	 0.055644
162.9198	177.6303	198.714	242.9647	273.8407	326.2819	435.4893	467.5217	536.3748	561.1925	620.019	720.2856	745.2138	793.0639	816.0307	874.9428	885.019	899.1675	911.8959	944.0186	1012.9226	1013.3529	1050.7107	1057.7189	1065.4686	1083.8178	1113.9443	1129.7146	1143.593	1180.4033	1187.2025	1204.2423	1223.1612	1230.2997	1286.4862	1319.0193	1328.0747	1412.2672	1415.1272	1478.1789	1487.8366	1491.8348	1494.0051	1524.2902	1702.5658	3011.749	3028.4463	3050.056	3054.2427	3062.8618	3071.3875	3085.7512	3099.5332	3103.2206	3105.5538	3110.4729	3211.9348
CC1=CC2(C)C3CC2C13	CC1=C[C@]2(C)[C@H]3C[C@@H]2[C@@H]13	
InChI=1S/C9H12/c1-5-4-9(2)6-3-7(9)8(5)6/h4,6-8H,3H2,1-2H3	InChI=1S/C9H12/c1-5-4-9(2)6-3-7(9)8(5)6/h4,6-8H,3H2,1-2H3/t6-,7+,8-,9+
