20
gdb 105308	2.35352	1.50935	1.15423	1.7486	84.63	-0.2349	0.0399	0.2748	1156.953	0.169487	-365.930783	-365.921775	-365.92083	-365.964055	34.972	
C	-0.030533216	 1.6086898985	 0.1059394031	-0.389225
C	-0.1218264046	 0.0846782746	-0.0196741662	-0.233041
C	 0.6959386013	-0.4813302544	-1.1895958678	 0.105121
C	 2.2645003896	-0.4390473578	-1.1057094043	-0.308887
C	 2.2267504058	-1.9584034766	-1.2217743054	 0.001204
C	 1.4305694634	-2.5519012569	-0.1364684005	-0.246669
N	 0.7106627915	-2.0097844088	-1.3090150013	-0.158596
C	 0.2109785516	 0.054951139	-2.4564959615	 0.337994
C	-0.1837988354	 0.5139347413	-3.4950624527	-0.442484
H	 1.0032740742	 1.9339504737	 0.2664238041	 0.11583
H	-0.4004491668	 2.1017253794	-0.7967653621	 0.135403
H	-0.6240443723	 1.9596624556	 0.9551679683	 0.114969
H	 0.2195063887	-0.3744617311	 0.9131498167	 0.09587
H	-1.1643571453	-0.22242359	-0.1609971399	 0.117255
H	 2.7154694455	 0.0682677067	-1.957612505	 0.125485
H	 2.6920078956	-0.0397658891	-0.1808991184	 0.103912
H	 2.8482217431	-2.5488683449	-1.8864866921	 0.09614
H	 1.3586870934	-3.6342624281	-0.0916160091	 0.124543
H	 1.3728314382	-2.0601974686	 0.8304174069	 0.112094
H	-0.5355533813	 0.9085366073	-4.4160348227	 0.193081
101.6722	142.6845	165.0148	192.1067	206.4306	271.6825	360.0173	392.3559	487.3672	493.433	540.0315	619.2991	624.0396	643.0437	757.8536	764.2896	790.6826	847.6116	874.5864	928.9279	949.4319	987.6236	996.4831	1032.4861	1064.5166	1095.2695	1107.0252	1134.0142	1138.2245	1180.1899	1234.0115	1253.846	1268.8099	1321.5804	1353.6973	1368.6523	1412.8861	1481.4173	1484.4324	1498.0343	1505.4552	1510.8876	2233.8707	3038.5908	3042.6718	3056.4356	3081.0932	3104.7549	3118.9506	3124.3604	3139.687	3168.258	3203.361	3501.9694
CCC1(CC2CN12)C#C	CC[C@]1(C[C@H]2CN12)C#C	
InChI=1S/C8H11N/c1-3-8(4-2)5-7-6-9(7)8/h1,7H,4-6H2,2H3	InChI=1S/C8H11N/c1-3-8(4-2)5-7-6-9(7)8/h1,7H,4-6H2,2H3/t7-,8-,9?/m0/s1
