17
gdb 93536	2.99738	1.31249	1.06741	3.7864	64.13	-0.2635	0.0076	0.2711	1117.3302	0.136177	-496.134009	-496.125546	-496.124602	-496.167258	31.701	
O	 0.1318396622	 1.3781604858	-0.1019944857	-0.437716
C	 0.024933396	-0.0260571971	-0.0158155243	 0.102832
C	 0.7361159919	-0.523493389	 1.2470478112	-0.084555
O	 0.599364925	-1.9328379455	 1.4928926309	-0.229504
C	-0.5379608715	-2.6054388634	 1.2016693402	 0.421915
O	-0.7281003629	-3.6860230677	 1.6877837561	-0.322616
C	-1.4773570176	-2.0062169581	 0.158952186	-0.368709
C	-1.430099303	-0.4876445754	 0.0170767994	 0.05761
O	-2.004833088	 0.1818089132	 1.1404929286	-0.446671
H	-0.5242770598	 1.7319241662	 0.5129686835	 0.293674
H	 0.5096800093	-0.4400285808	-0.9066419408	 0.098948
H	 1.8088584159	-0.3358891171	 1.1773149816	 0.130306
H	 0.3429084783	 0.0188658414	 2.1133864572	 0.126671
H	-1.1966511398	-2.4648167445	-0.7983831804	 0.144235
H	-2.4865040629	-2.361603066	 0.384167445	 0.131511
H	-1.9343684604	-0.1738392355	-0.9073428887	 0.084306
H	-2.9531604327	 0.0223362236	 1.1492490601	 0.297763
69.985	115.7068	196.3741	257.589	273.4185	336.7785	356.0461	408.8796	455.1544	456.0591	561.5071	593.2705	638.0249	745.5484	767.6882	887.9312	901.43	989.191	1011.8607	1077.8019	1090.8001	1105.0902	1126.8905	1185.5805	1201.9739	1245.291	1258.7786	1296.1304	1326.3053	1369.2001	1382.5298	1406.399	1433.7838	1441.2292	1460.8089	1503.6105	1846.0422	3006.9575	3039.4688	3053.2725	3064.317	3099.2769	3124.1682	3771.021	3835.7459
OC1COC(=O)CC1O	O[C@H]1COC(=O)C[C@H]1O	
InChI=1S/C5H8O4/c6-3-1-5(8)9-2-4(3)7/h3-4,6-7H,1-2H2	InChI=1S/C5H8O4/c6-3-1-5(8)9-2-4(3)7/h3-4,6-7H,1-2H2/t3-,4+/m1/s1
