17
gdb 127989	3.78691	1.15113	0.89254	3.3894	84.2	-0.2262	-0.0652	0.161	1296.7692	0.134666	-417.99483	-417.986012	-417.985068	-418.028697	31.665	
C	-0.0379864155	 1.4355580862	-0.1361203127	-0.320279
N	 0.0272377401	-0.0162551116	-0.1038582095	-0.314546
C	-1.0223600303	-0.6687768799	 0.1791671313	 0.432237
O	-2.2153877451	 0.0019969714	 0.4541245199	-0.299442
N	-3.3988000773	-0.658544197	 0.7704347225	-0.070033
C	-3.3576416014	-1.9421787735	 0.8027641935	-0.01641
C	-2.1933455296	-2.7687104853	 0.5405779052	 0.282399
C	-2.3208827343	-4.2614915359	 0.6219242261	-0.496102
C	-1.0577165159	-2.114543423	 0.2362209477	-0.256797
H	 0.9470497505	 1.8293686373	-0.3965786879	 0.117069
H	-0.765671169	 1.7982021683	-0.8745845351	 0.125638
H	-0.3364182014	 1.8551526504	 0.8340707953	 0.12564
H	-4.3106069848	-2.4005851119	 1.0550447132	 0.13275
H	-2.6472929325	-4.574058598	 1.6208171705	 0.143909
H	-3.070755526	-4.6309582321	-0.087464612	 0.143937
H	-1.3702750927	-4.7522048478	 0.4026012122	 0.139553
H	-0.1232319647	-2.6191583277	 0.02049407	 0.130475
74.3022	111.5052	147.731	157.0461	194.2254	303.0802	308.071	372.8863	461.5885	485.7948	619.0327	619.5623	715.2444	716.8583	862.5873	905.8551	932.0849	941.5501	981.0038	1013.8892	1060.5883	1068.7224	1105.0614	1143.635	1211.4485	1244.4609	1341.9857	1372.8964	1414.7728	1436.82	1477.3668	1483.5774	1487.3733	1496.0724	1621.9102	1703.4738	1739.3201	3001.7787	3029.3724	3050.9116	3081.3425	3108.555	3128.7409	3168.9939	3208.6432
CN=C1ON=CC(C)=C1	C[N]C1=C[C](C=NO1)C	
InChI=1S/C6H8N2O/c1-5-3-6(7-2)9-8-4-5/h3-4H,1-2H3	InChI=1S/C6H8N2O/c1-5-3-6(7-2)9-8-4-5/h3-4H,1-2H3
