15
gdb 35223	3.4594	1.25539	1.0717	3.161	71.57	-0.2541	-0.0082	0.2459	1096.138	0.114048	-416.821776	-416.814291	-416.813347	-416.854256	27.663	
N	 0.0694339023	-1.0888465257	-0.1887620023	-0.341362
C	 0.0224370612	 0.065029782	-0.1058622651	 0.292026
C	 0.0270382925	 1.4935318038	-0.0050690654	-0.23158
C	 0.4369753611	 2.158823478	 1.3036853753	-0.334143
C	 1.3720226802	 2.2133742627	 0.1425952134	 0.320299
C	 2.7210062192	 1.4877014935	 0.0825943696	-0.180221
O	 3.5155235037	 2.3595615259	-0.759076446	-0.216324
C	 2.7212371424	 3.4151555862	-1.038801515	 0.116098
N	 1.5317760299	 3.447023631	-0.5911582143	-0.301419
H	-0.7105259996	 2.0095267836	-0.6088296482	 0.149301
H	-0.0878772769	 3.0696905753	 1.5651876304	 0.145384
H	 0.6901966831	 1.5067743427	 2.1324754719	 0.141691
H	 3.2139316768	 1.4103371596	 1.0561921318	 0.132257
H	 2.6733243654	 0.4984443088	-0.3797113756	 0.154254
H	 3.1834185088	 4.1810014126	-1.6502141907	 0.153739
79.4158	123.7819	155.0787	299.5164	326.9955	372.022	479.0154	548.0321	578.0823	622.2545	800.6878	817.6844	853.6011	880.3092	938.7156	962.2757	964.3556	977.7315	1049.9119	1073.6587	1087.7811	1116.1442	1134.7348	1212.1296	1217.2763	1298.4411	1333.3602	1368.6962	1404.9405	1475.9382	1514.8246	1686.4193	2346.5886	3055.5705	3107.8786	3142.5915	3185.186	3229.1122	3240.4904
N#CC1CC11COC=N1	N#C[C@H]1C[C@]21COC=N2	
InChI=1S/C6H6N2O/c7-2-5-1-6(5)3-9-4-8-6/h4-5H,1,3H2	InChI=1S/C6H6N2O/c7-2-5-1-6(5)3-9-4-8-6/h4-5H,1,3H2/t5-,6-/m1/s1
