19
gdb 117270	4.52842	0.72837	0.67714	2.3141	72.11	-0.2516	-0.0226	0.229	1654.7953	0.157422	-460.146083	-460.136259	-460.135315	-460.182739	33.577	
O	-0.2553008289	 1.4643113399	-0.2618490222	-0.424257
C	-0.0024696326	 0.0818181539	-0.0606804501	-0.077062
C	-1.3536616537	-0.61341773	 0.0112555335	-0.289761
C	-1.2546595501	-2.1101516742	 0.2389183028	 0.358982
O	-0.1954310515	-2.6616827558	 0.4438613954	-0.303863
C	-2.5597618412	-2.8813079071	 0.1577050426	-0.145303
C	-2.9259824873	-3.3871188677	-1.271058231	-0.071017
O	-2.8601293023	-4.7564925952	-0.8517153802	-0.26611
C	-2.5028972866	-4.3814180919	 0.4979723395	-0.086494
H	 0.5907898729	 1.9193242684	-0.3019194017	 0.28885
H	 0.590485502	-0.3482054455	-0.8808587174	 0.10173
H	 0.5546506333	-0.1021441213	 0.8683185768	 0.106092
H	-1.9545356309	-0.1772457042	 0.8212410294	 0.135345
H	-1.9274797326	-0.4225221691	-0.9057204655	 0.131895
H	-3.365876963	-2.31930282	 0.6342363895	 0.094032
H	-3.925142663	-3.1035748047	-1.6233550657	 0.107739
H	-2.1910898231	-3.1559326362	-2.0534421059	 0.108965
H	-1.5037585879	-4.7325491783	 0.7732727829	 0.129112
H	-3.2415654633	-4.7306280811	 1.2281342772	 0.101125
38.291	63.2904	76.2939	94.0122	140.2422	219.8513	275.6897	298.0579	327.9202	410.7553	561.4871	642.4026	777.5152	801.8684	850.8223	882.8038	939.9995	976.2463	1010.941	1042.5247	1053.3117	1058.62	1084.6279	1119.1276	1129.7351	1165.2171	1174.8448	1207.7181	1233.3122	1254.1022	1301.148	1311.5456	1333.3164	1374.3428	1383.1729	1446.1251	1469.825	1508.2244	1522.9346	1532.8576	1797.4066	2996.3494	3006.7882	3023.787	3025.2391	3033.2374	3050.816	3058.2667	3084.8236	3096.2677	3832.3062
OCCC(=O)C1COC1	OCCC(=O)C1COC1	
InChI=1S/C6H10O3/c7-2-1-6(8)5-3-9-4-5/h5,7H,1-4H2	InChI=1S/C6H10O3/c7-2-1-6(8)5-3-9-4-5/h5,7H,1-4H2
