15
gdb 30612	4.67415	0.98906	0.82051	0.9591	70.74	-0.2452	-0.0485	0.1968	1306.8015	0.113565	-453.992233	-453.983969	-453.983025	-454.02604	29.103	
O	-0.0605665907	 1.4726997191	 0.0110210174	-0.394985
C	-0.0066680531	 0.0716155794	 0.0037783973	-0.183478
C	-1.4262548473	-0.4865122798	 0.0126432542	 0.286736
O	-2.4129591002	 0.223180503	 0.0234826578	-0.334045
C	-1.55276882	-1.9438974455	 0.0072554557	 0.223774
C	-0.6851289754	-3.0208788418	-0.0042099457	-0.161425
N	-1.372280695	-4.2004524091	-0.0039729128	-0.259163
C	-2.6494456877	-3.85393138	 0.0074468773	 0.035771
N	-2.8094655299	-2.5132596488	 0.0144463718	-0.287585
H	 0.8419354776	 1.8042242249	 0.0047688913	 0.294302
H	 0.5048798176	-0.3314081222	-0.8870984961	 0.115153
H	 0.5194110056	-0.339997806	 0.8821723707	 0.115126
H	 0.3947754071	-3.0033818613	-0.0125053094	 0.119604
H	-3.4836194679	-4.539565015	 0.0109502835	 0.144907
H	-3.6575591107	-1.9672600869	 0.023400797	 0.285308
58.3513	93.4049	140.1146	176.7188	229.8199	289.6401	367.0957	501.3686	541.991	631.0816	687.0196	701.1436	754.7747	848.6926	876.0503	927.278	966.8947	1019.2012	1049.8448	1105.1042	1145.6425	1170.6026	1229.4451	1248.2696	1268.8556	1313.9582	1369.6914	1435.9399	1449.0777	1479.6689	1500.1016	1583.5348	1767.7647	2956.7932	2979.9536	3244.9932	3256.4252	3644.2343	3838.7993
OCC(=O)C1=CN=CN1	OCC(=O)c1cnc[nH]1	
InChI=1S/C5H6N2O2/c8-2-5(9)4-1-6-3-7-4/h1,3,8H,2H2,(H,6,7)	InChI=1S/C5H6N2O2/c8-2-5(9)4-1-6-3-7-4/h1,3,8H,2H2,(H,6,7)
