17
gdb 5271	6.4378	1.08328	1.00293	1.9919	70.52	-0.2021	0.0444	0.2465	1162.0691	0.143449	-363.886813	-363.878886	-363.877942	-363.919929	28.704	
O	-0.0692763163	 1.4206223566	 0.0108249937	-0.41469
C	 0.0347620827	 0.0080918173	 0.0024582202	-0.06744
C	-1.3949813319	-0.5374426297	 0.0116268765	-0.171823
N	-1.4380625089	-1.985174345	 0.0045159101	 0.035777
C	-1.417867953	-2.7791776014	-1.1177993314	-0.09953
C	-1.3772601469	-4.0944536681	-0.7178996803	-0.167376
C	-1.3675512074	-4.1017424744	 0.7043881778	-0.167406
C	-1.402696657	-2.790638567	 1.1182518853	-0.099506
H	 0.8176074372	 1.7912379232	 0.0052038211	 0.293007
H	 0.5589618887	-0.3619249464	-0.8917745751	 0.098837
H	 0.5738702425	-0.3713915794	 0.8837653381	 0.098863
H	-1.9154039619	-0.1665547082	 0.8993206775	 0.127529
H	-1.9303185331	-0.1572536567	-0.8631849834	 0.127522
H	-1.4419392055	-2.3345486568	-2.1005110148	 0.111518
H	-1.3704607448	-4.9533796131	-1.3712819011	 0.091592
H	-1.3518951879	-4.9673141815	 1.3487845874	 0.091595
H	-1.4133051966	-2.3560863195	 2.1056973983	 0.111533
59.9481	87.9058	102.5097	234.1527	312.2554	354.6423	374.6836	623.6372	635.2688	682.4754	742.2941	750.6579	797.5076	805.1913	848.1161	885.1198	987.6794	1009.9794	1075.7001	1083.2195	1087.5753	1115.5076	1117.4179	1211.488	1246.0717	1292.0302	1310.701	1319.091	1370.7716	1423.4561	1426.4464	1461.8097	1488.6455	1528.1502	1535.9805	1562.289	2981.242	3014.3864	3060.6886	3110.2351	3237.7569	3247.2302	3258.7321	3268.2037	3837.7905
OCCN1C=CC=C1	OCCn1cccc1	
InChI=1S/C6H9NO/c8-6-5-7-3-1-2-4-7/h1-4,8H,5-6H2	InChI=1S/C6H9NO/c8-6-5-7-3-1-2-4-7/h1-4,8H,5-6H2
