14
gdb 42453	3.35501	0.96957	0.8945	2.4026	63.18	-0.2901	-0.0298	0.2604	1290.274	0.099337	-473.826651	-473.818034	-473.81709	-473.862035	29.117	
O	 0.3788762752	 0.7351206696	 1.2480910667	-0.350721
C	 0.0701177476	 1.204224319	 0.185513465	 0.448642
O	 0.9124911666	 1.3252626126	-0.8729898624	-0.231055
C	 2.2501124537	 0.8742192204	-0.6473372398	-0.198351
C	 3.0970108043	 1.9568759312	-0.1350284532	 0.266531
N	 3.7718363966	 2.8087481516	 0.2549494754	-0.289543
C	-1.292224189	 1.7423917048	-0.1246959221	-0.040434
C	-1.4539866875	 3.0089423929	-0.8679806093	-0.163754
O	-1.718035591	 1.757088392	-1.4814410609	-0.207762
H	 2.2543075534	 0.0432998285	 0.0626360842	 0.184362
H	 2.626863013	 0.5405922941	-1.6163292044	 0.171671
H	-2.0356776681	 1.4498725609	 0.6122791196	 0.132424
H	-2.3238883722	 3.6263978697	-0.6523599328	 0.135628
H	-0.5685244326	 3.5285064028	-1.226337226	 0.142362
25.8294	59.2226	92.6906	184.915	230.3161	314.7826	326.5598	368.7378	475.6694	551.9134	676.3875	760.3942	812.6739	889.7524	905.7929	929.8648	981.6875	1041.0412	1068.9877	1097.3607	1159.3995	1167.4498	1252.5381	1284.0462	1300.9657	1393.3008	1405.7735	1458.4022	1516.7892	1832.9151	2369.6213	3078.8757	3098.9856	3133.7616	3159.0117	3197.2953
O=C(OCC#N)C1CO1	O=C(OCC#N)[C@H]1CO1	
InChI=1S/C5H5NO3/c6-1-2-8-5(7)4-3-9-4/h4H,2-3H2	InChI=1S/C5H5NO3/c6-1-2-8-5(7)4-3-9-4/h4H,2-3H2/t4-/m1/s1
