20
gdb 64377	2.1018	1.83755	1.35833	2.9488	73.96	-0.243	0.0572	0.3002	1040.7641	0.170749	-440.259401	-440.250458	-440.249514	-440.292747	34.248	
C	 0.2200859625	 1.5872554549	-0.1699785931	-0.449698
C	 0.0029550691	 0.0861109105	 0.0217156215	 0.285155
O	-1.3752465397	-0.2249667702	 0.1746175893	-0.479934
C	 0.6860378983	-0.7230458868	-1.1009614144	-0.126667
O	 2.0550471872	-0.7572891194	-0.7350225139	-0.260422
C	 2.1182681357	-0.9387179865	 0.6833028663	-0.140518
C	 0.7738727557	-0.4669618985	 1.2351730776	 0.290274
C	 0.5271323035	 0.008383528	 2.6128531182	-0.302584
N	 0.0944544464	-1.3382218262	 2.1963406479	-0.36164
H	 1.2831193704	 1.8018529613	-0.308392703	 0.143534
H	-0.306408651	 1.9411482746	-1.0659767634	 0.106761
H	-0.1416972202	 2.1531722488	 0.6928460641	 0.122538
H	-1.8899881577	 0.3935266657	-0.3518043017	 0.285864
H	 0.2388615842	-1.7289105275	-1.1385566077	 0.099287
H	 0.6143192283	-0.2621127852	-2.0905518841	 0.098039
H	 2.2694423108	-1.9953080992	 0.9420018343	 0.112469
H	 2.9712616292	-0.3596886736	 1.0516727196	 0.107092
H	 1.3375556048	 0.0310408366	 3.3374078047	 0.115119
H	-0.2336620206	 0.7718358692	 2.7610167594	 0.109602
H	-0.9044918372	-1.3188239366	 1.9972848484	 0.24573
63.599	172.5831	191.5296	231.0991	241.6192	268.4768	329.8009	354.2304	385.5686	446.5532	524.8541	551.005	611.919	699.4546	848.338	870.4175	917.3899	941.1147	951.491	969.9265	991.1597	991.9288	1072.8781	1086.7019	1100.7654	1119.9588	1139.2679	1180.7821	1200.0373	1230.5894	1251.3158	1295.0249	1300.0735	1329.6835	1358.4626	1380.8491	1402.7507	1427.0354	1487.4829	1494.4014	1508.8051	1511.6538	1520.8367	2984.7518	3014.463	3021.4737	3071.2718	3085.2816	3094.6742	3096.493	3126.4877	3178.9988	3488.8599	3834.027
CC1(O)COCC11CN1	C[C@@]1(O)COC[C@]21CN2	
InChI=1S/C6H11NO2/c1-5(8)3-9-4-6(5)2-7-6/h7-8H,2-4H2,1H3	InChI=1S/C6H11NO2/c1-5(8)3-9-4-6(5)2-7-6/h7-8H,2-4H2,1H3/t5-,6+/m1/s1
