16
gdb 127257	2.38101	1.44012	0.90338	6.0585	78.13	-0.2131	-0.038	0.1751	1237.7127	0.124598	-434.09024	-434.081324	-434.080379	-434.124663	31.501	
C	-0.0053579563	 1.4377036599	 0.0244216782	-0.327325
N	 0.0001168481	-0.0106704122	-0.033116563	 0.069536
C	 0.0064221475	-0.7851883161	-1.160876043	-0.105741
C	 0.0094785998	-2.0992437036	-0.7331581239	 0.103331
N	-0.0564086879	-3.2513645498	-1.5166045826	-0.608801
C	 0.0038815294	-2.005530976	 0.691157211	 0.217542
C	-0.005186772	-3.1068790038	 1.6491915477	 0.089654
O	 0.0006251803	-3.0074323629	 2.8551020041	-0.276421
N	 0.0017980345	-0.7162471934	 1.0852950822	-0.302831
H	 0.8836307124	 1.845804284	-0.4659334086	 0.144163
H	-0.8987562889	 1.8384695429	-0.4638335096	 0.145732
H	-0.0052667373	 1.7191055708	 1.0763960429	 0.173005
H	 0.0052803786	-0.3512666832	-2.1477427596	 0.127686
H	 0.279902089	-3.1213698558	-2.460633901	 0.249323
H	 0.3852919316	-4.0588318073	-1.1005445284	 0.254785
H	-0.0223773387	-4.1132810634	 1.1667981237	 0.04636
37.7955	135.8836	167.6294	174.2368	192.772	245.4231	281.6299	383.1864	405.6084	559.9562	608.4052	641.0849	672.4601	695.7116	698.1874	756.3487	897.515	1025.6941	1032.6046	1079.2456	1107.2212	1148.7005	1205.9536	1230.3688	1364.5962	1390.683	1436.921	1442.6803	1468.5503	1483.3194	1501.8443	1524.5613	1609.4373	1662.1622	1795.8003	2835.6062	3044.3913	3106.1594	3173.0426	3262.5802	3557.7353	3648.7123
CN1C=C(N)C(C=O)=N1	Cn1cc(N)c(C=O)n1	
InChI=1S/C5H7N3O/c1-8-2-4(6)5(3-9)7-8/h2-3H,6H2,1H3	InChI=1S/C5H7N3O/c1-8-2-4(6)5(3-9)7-8/h2-3H,6H2,1H3
