17
gdb 76042	2.67889	1.18261	1.04965	2.2622	75.41	-0.2588	-0.0497	0.2091	1194.5352	0.132936	-418.000582	-417.990887	-417.989943	-418.035231	34.015	
C	-0.2785793432	 1.4628967848	-0.0157650156	-0.32972
N	 0.0289832817	 0.0394992939	 0.0967162602	-0.124548
C	 1.3443552004	-0.4573586442	-0.2787125908	-0.215914
C	 2.4027855749	 0.4413548562	-0.6672910589	 0.30911
N	 3.2394065123	 1.1677294707	-1.0006177728	-0.335215
C	 0.8872025938	-0.4448954277	 1.1788968153	 0.18057
C	 1.5361740996	 0.4516313481	 2.2083240456	-0.487695
C	 0.4279782327	-1.7891387509	 1.6826181101	 0.148671
O	 0.6935622234	-2.2294159098	 2.7695606311	-0.248082
H	 0.5676324672	 2.1327761928	 0.1782379513	 0.136678
H	-0.6429287951	 1.6522315057	-1.0288996361	 0.14586
H	-1.0832590769	 1.6941751585	 0.6868067707	 0.140466
H	 1.3424809243	-1.3921393617	-0.8356683296	 0.140972
H	 2.1191701625	 1.2565918576	 1.7602007401	 0.149739
H	 0.7751875362	 0.8878698583	 2.8628025188	 0.138602
H	 2.1956939448	-0.1533037571	 2.8343287509	 0.158644
H	-0.1939997586	-2.3443600953	 0.9471614597	 0.091862
79.9588	119.5404	143.471	148.3124	167.0516	208.9997	260.6624	281.7016	364.6553	391.7231	426.6921	525.0387	608.1109	633.1103	699.6914	764.2692	869.2429	941.7764	1004.0356	1049.0461	1064.9142	1098.618	1134.8288	1149.1521	1171.9612	1295.3061	1328.6173	1368.1745	1405.9788	1423.651	1456.5428	1481.6535	1487.7084	1497.8995	1500.4528	1831.8464	2347.798	2903.9943	3025.2991	3056.8181	3100.524	3124.7647	3126.7676	3129.0884	3152.826
CN1C(C#N)C1(C)C=O	CN1[C@@H](C#N)[C@]1(C)C=O	
InChI=1S/C6H8N2O/c1-6(4-9)5(3-7)8(6)2/h4-5H,1-2H3	InChI=1S/C6H8N2O/c1-6(4-9)5(3-7)8(6)2/h4-5H,1-2H3/t5-,6-,8?/m0/s1
