19
gdb 122265	2.75892	1.01989	0.81816	1.8064	78.76	-0.2485	0.0315	0.28	1424.4365	0.15626	-422.960226	-422.950423	-422.949479	-422.995667	36.075	
O	 0.0338214715	 1.3982211461	-0.4909678778	-0.42222
C	-0.0580858801	 0.1117920867	 0.0899041924	-0.063027
C	-1.5000979827	-0.3557761078	 0.1929345684	-0.090612
O	-2.005795694	-0.3912206545	-1.1413942319	-0.29214
C	-3.3728140415	-0.6757735582	-1.2419781549	 0.263169
C	-4.3407359977	 0.4788899886	-1.0349842237	-0.316178
C	-4.0554130085	-0.034395455	-2.4228385849	-0.313206
C	-3.7626025079	-2.0015988495	-0.8301924913	 0.317333
C	-4.0697665742	-3.1084202932	-0.4733243002	-0.503884
H	-0.4623256222	 1.3486748762	-1.3159617119	 0.287537
H	 0.5206701799	-0.631170355	-0.4812020173	 0.096571
H	 0.3767473208	 0.1784042682	 1.0924416456	 0.110013
H	-1.5616484411	-1.3507296917	 0.6548649275	 0.105564
H	-2.0871083301	 0.3502869811	 0.7972676407	 0.099861
H	-5.3026910778	 0.2647975084	-0.5850795049	 0.130433
H	-3.8918664062	 1.4232047336	-0.7482266666	 0.129954
H	-3.4148604708	 0.5636782144	-3.0605572396	 0.128773
H	-4.8170192174	-0.6085131008	-2.9360083947	 0.131931
H	-4.3445630101	-4.0873898875	-0.1668969747	 0.200125
37.9429	75.8857	135.9753	162.9045	199.5887	225.9936	301.6444	365.2004	405.8142	418.3484	506.5637	552.5293	576.2898	594.8123	683.5179	706.2804	775.6463	850.0037	898.8851	909.3298	938.2774	961.7221	999.0436	1054.9187	1078.17	1083.8772	1104.4977	1135.4684	1194.142	1235.8915	1260.0018	1265.9675	1307.0309	1387.7018	1405.3566	1437.3521	1450.504	1483.5156	1498.2448	1507.5398	2231.6147	2985.4123	3000.2244	3048.0885	3081.9202	3142.4909	3147.5088	3231.5208	3245.6699	3500.5698	3802.9049
OCCOC1(CC1)C#C	OCCOC1(CC1)C#C	
InChI=1S/C7H10O2/c1-2-7(3-4-7)9-6-5-8/h1,8H,3-6H2	InChI=1S/C7H10O2/c1-2-7(3-4-7)9-6-5-8/h1,8H,3-6H2
