18
gdb 37650	3.16817	2.35701	2.09195	1.4539	75.92	-0.2292	0.0768	0.3059	769.5198	0.152101	-364.741592	-364.736345	-364.735401	-364.770753	24.231	
C	-0.0507654045	 1.558615116	 0.0548922067	-0.234306
C	 1.4891746992	 1.5582529409	-0.0326028483	-0.050016
C	 2.1717064976	 0.8970962865	 1.2160512684	-0.048252
C	 1.1844852561	 0.1359820341	 2.137854854	-0.077846
C	 1.4998008182	-1.1803923745	 1.4879121851	-0.06405
C	 2.3945563049	-0.4495126813	 0.4523516779	-0.07245
C	 1.4626938267	 0.1167002291	-0.6516780258	-0.046852
C	 0.0229956999	 0.0113932217	-0.0263399326	-0.012856
N	 0.1864109227	-0.5682710425	 1.3212277432	-0.097092
H	-0.5333099498	 1.9805308936	 0.9419513856	 0.097795
H	-0.5003257139	 1.989677539	-0.8438676854	 0.098663
H	 2.0199344571	 2.4013179948	-0.4765422437	 0.060124
H	 2.9888175597	 1.4136588332	 1.7185863456	 0.067882
H	 0.9213301023	 0.3829685071	 3.160577537	 0.087961
H	 1.5885285798	-2.1834716347	 1.8881392883	 0.090418
H	 3.3843169492	-0.8263134755	 0.2050581921	 0.06643
H	 1.5959864584	-0.1082006781	-1.7097410942	 0.061749
H	-0.7535561237	-0.5309148794	-0.568339644	 0.072698
344.6978	408.194	552.8789	626.9175	676.0814	677.5648	735.4656	766.1643	803.9108	829.3578	835.8482	863.6915	880.5937	899.3494	920.506	936.8441	948.6481	962.8864	985.4018	1013.4199	1025.2581	1044.3075	1076.7587	1096.8949	1120.714	1132.1652	1180.1246	1193.4573	1203.5337	1213.6455	1227.3623	1237.3874	1271.2876	1274.0382	1285.8796	1301.4808	1320.7805	1355.2106	1482.7824	3048.029	3088.421	3094.7042	3104.4023	3112.1981	3115.4604	3143.0956	3163.3064	3183.5081
C1C2C3C4C5C3C2C1N45	C1[C@H]2[C@H]3[C@@H]4[C@@H]5[C@H]3[C@H]2[C@H]1N45	
InChI=1S/C8H9N/c1-2-4-3(1)9-7-5(2)6(4)8(7)9/h2-8H,1H2	InChI=1S/C8H9N/c1-2-4-3(1)9-7-5(2)6(4)8(7)9/h2-8H,1H2/t2-,3+,4-,5-,6+,7-,8+,9?/m1/s1
