21
gdb 96113	2.23781	1.73128	1.18835	1.8423	77.41	-0.2573	0.0825	0.3397	1117.0238	0.183212	-424.235572	-424.226892	-424.225948	-424.268406	34.231	
C	-0.1053431177	 1.522700028	 0.0021043141	-0.470878
C	 0.0733159254	 0.0231683104	-0.0256814052	 0.357889
O	-0.7859691244	-0.7192870286	 0.864813324	-0.304195
C	 0.626358864	-0.6964701994	 1.1378306285	-0.005747
C	 1.3671285944	-2.0159619707	 1.014742331	-0.227745
C	 1.6621159328	-2.4034989921	-0.4433029062	-0.216244
C	 0.4636031175	-2.1118015412	-1.3515344515	-0.2295
C	 0.1655981947	-0.6096008525	-1.4104542597	 0.087075
O	-1.0191999401	-0.3371542768	-2.1525315674	-0.441723
H	 0.7893403714	 2.0241528181	-0.3832634323	 0.118402
H	-0.9496887779	 1.81258079	-0.6289354839	 0.137777
H	-0.2885424083	 1.8690836266	 1.0220553247	 0.122468
H	 0.8748634018	-0.0963672584	 2.0148066056	 0.085232
H	 2.2995142273	-1.9557762713	 1.5868844158	 0.099947
H	 0.7550843877	-2.7881270975	 1.4972430351	 0.11619
H	 2.5302859568	-1.8345688026	-0.802445896	 0.09803
H	 1.9411200423	-3.4606365982	-0.5006865074	 0.098772
H	 0.6391084388	-2.4714675151	-2.3698068234	 0.101607
H	-0.4249375512	-2.6302191093	-0.9706932243	 0.101153
H	 0.9668075209	-0.10422466	-1.9653779823	 0.085884
H	-1.7501190363	-0.7206236293	-1.6527442392	 0.285606
88.9458	178.8693	223.9114	229.8575	272.0021	306.5562	358.1143	375.6848	432.1927	469.3918	499.5672	554.3964	644.3281	699.8967	777.685	853.304	870.2469	879.5949	922.6455	961.0401	1005.5907	1047.754	1065.7255	1080.7054	1090.6668	1109.8653	1128.9131	1184.1745	1215.9809	1240.2543	1277.0842	1299.5727	1332.6579	1363.8666	1369.3164	1381.2951	1382.553	1405.7502	1426.6839	1461.9051	1474.3519	1483.7187	1484.3044	1497.6378	1504.2248	3018.3083	3027.6336	3029.8906	3037.1266	3041.0453	3066.9037	3076.9105	3089.083	3094.2741	3109.0397	3130.553	3787.2859
CC12OC1CCCC2O	C[C@]12O[C@H]1CCC[C@H]2O	
InChI=1S/C7H12O2/c1-7-5(8)3-2-4-6(7)9-7/h5-6,8H,2-4H2,1H3	InChI=1S/C7H12O2/c1-7-5(8)3-2-4-6(7)9-7/h5-6,8H,2-4H2,1H3/t5-,6+,7-/m1/s1
