17
gdb 130430	6.2674	0.82671	0.74261	1.8089	70.47	-0.2517	-0.0056	0.2461	1503.6498	0.137558	-451.32811	-451.318947	-451.318003	-451.363234	31.816	
N	-0.8112658591	 1.2553458779	 0.3799185366	-0.484475
C	 0.3297608872	 0.449920506	-0.0261680195	-0.284446
C	 1.0507655308	-0.2369407984	 1.0969236447	 0.380099
N	 0.7848648131	-0.2056270093	 2.3587434792	-0.278802
N	 1.7508909169	-1.0098831745	 2.9846392342	-0.278802
C	 2.514387648	-1.4552284915	 2.0451642015	 0.380099
C	 3.7061443136	-2.3603246854	 2.1612571847	-0.284447
N	 4.0297291489	-2.7766616697	 3.5168062973	-0.484475
O	 2.1369343748	-1.0108923178	 0.8123450581	-0.199505
H	-1.4685908557	 0.6704242102	 0.8885851283	 0.243561
H	-0.5051776008	 1.9522317211	 1.0534174037	 0.243401
H	 0.0004402909	-0.3093870926	-0.7466313924	 0.140244
H	 1.0459196747	 1.0808353555	-0.5675204675	 0.140171
H	 3.5329617936	-3.2481318624	 1.5400808068	 0.140234
H	 4.5738573928	-1.8545022374	 1.7194075217	 0.140181
H	 4.1812164312	-1.9525188151	 4.0919435355	 0.243429
H	 3.2215430592	-3.2370470067	 3.926476457	 0.243534
45.0387	53.5801	137.5859	155.8411	219.2143	236.7256	274.6759	338.9502	343.7823	532.2915	672.7089	679.9418	680.9287	739.6429	908.3941	916.2683	927.0334	932.3459	992.5581	994.6874	1068.8083	1136.4952	1136.7326	1189.9662	1190.9845	1192.148	1281.1982	1372.9363	1389.0628	1389.4722	1420.7781	1469.909	1470.7732	1603.8407	1627.8391	1677.103	1677.6934	3029.6988	3030.1507	3060.6767	3060.8853	3496.3214	3496.4202	3564.3291	3564.3492
NCC1=NN=C(CN)O1	NCc1nnc(CN)o1	
InChI=1S/C4H8N4O/c5-1-3-7-8-4(2-6)9-3/h1-2,5-6H2	InChI=1S/C4H8N4O/c5-1-3-7-8-4(2-6)9-3/h1-2,5-6H2
