21
gdb 90506	2.64531	1.24016	1.00901	0.8843	87.72	-0.2464	0.0607	0.3071	1264.1801	0.181708	-349.890688	-349.881542	-349.880598	-349.924624	35.271	
C	 1.0629871033	 2.0856977083	 3.1123500964	-0.416707
C	 0.5190375056	 0.7276739988	 2.6795770874	 0.045843
C	-0.1652234251	 0.5238613748	 1.283034351	-0.268556
C	 0.7227116628	-0.7061645256	 1.0402786221	-0.092332
C	 2.1805720665	-0.3513970967	 1.0401445058	 0.015653
C	 2.7846926443	 0.8805436233	 0.3696388392	-0.397901
C	 4.030676084	 1.3186144664	 0.9907827543	 0.326371
C	 5.055730951	 1.66314437	 1.516092669	-0.467375
C	 1.468004337	-0.4405408528	 2.3634038216	-0.080505
H	 1.8125585071	 2.4849200505	 2.4251210586	 0.127985
H	 0.2523240006	 2.8191353077	 3.1926225756	 0.10915
H	 1.5381589708	 2.0108135337	 4.0968462728	 0.11567
H	-0.1871406255	 0.3846658448	 3.443517308	 0.076611
H	-1.2262680267	 0.2801198292	 1.3674811117	 0.101733
H	-0.0659228438	 1.3414929224	 0.5608548455	 0.094841
H	 0.3675018292	-1.648530908	 0.6397881494	 0.08331
H	 2.8096046527	-1.2276030768	 0.8930353208	 0.094861
H	 2.9723245058	 0.6407655966	-0.6857514788	 0.128097
H	 2.0732346218	 1.7115848668	 0.3597115699	 0.130532
H	 5.9613655623	 1.9740647161	 1.9745135434	 0.193216
H	 1.8012364963	-1.1602208097	 3.1033446865	 0.079504
55.9636	111.735	174.3613	187.7504	233.577	285.6073	342.7818	353.5194	448.8354	497.2387	589.5986	619.5764	630.6327	656.8956	753.2179	787.1532	824.2428	865.9934	895.5599	946.535	959.0584	986.7164	999.1183	1010.2813	1024.9917	1076.5118	1098.4831	1124.2979	1137.8262	1180.363	1202.0152	1237.2559	1254.298	1275.6179	1303.8495	1318.6765	1359.4545	1382.6757	1414.1781	1451.1435	1471.5794	1493.9997	1497.9764	1501.108	2236.5694	3020.0884	3030.2565	3039.0917	3044.3903	3076.8472	3088.8014	3103.9644	3123.8019	3126.1776	3162.8061	3177.8483	3507.4796
CC1CC2C(CC#C)C12	C[C@H]1C[C@H]2[C@@H](CC#C)[C@@H]12	
InChI=1S/C9H12/c1-3-4-7-8-5-6(2)9(7)8/h1,6-9H,4-5H2,2H3	InChI=1S/C9H12/c1-3-4-7-8-5-6(2)9(7)8/h1,6-9H,4-5H2,2H3/t6-,7+,8-,9+/m0/s1
