16
gdb 61318	6.3088	0.58507	0.54975	4.7281	90.57	-0.2779	-0.0442	0.2338	1891.679	0.121919	-363.573008	-363.563264	-363.562319	-363.608369	34.388	
C	-0.0802859981	 1.5880912707	-0.0325594443	-0.389097
C	-0.0432723724	 0.0491365359	-0.0078886271	-0.161892
C	 0.7674173484	-0.4952117339	 1.2097712976	-0.37472
C	 2.1657298253	-0.1046047473	 1.1864123743	 0.064633
C	 3.3294719047	 0.2196096649	 1.1472722329	 0.071867
C	 4.6445243625	 0.5839672695	 1.1094068326	 0.205538
N	 5.7634246496	 0.8950383989	 1.0761321057	-0.335795
C	-1.388321318	-0.5192656642	 0.0177445579	 0.317556
C	-2.496371071	-0.9823090609	 0.0649439612	-0.448959
H	 0.9343519887	 1.993352719	-0.0710410645	 0.135182
H	-0.6302063523	 1.9414625845	-0.9076807235	 0.136583
H	-0.5784633593	 1.9762564641	 0.8609223641	 0.130646
H	 0.4639001331	-0.3000293938	-0.9162494181	 0.126786
H	 0.3016673213	-0.1385574264	 2.1366990132	 0.157509
H	 0.6990065002	-1.5888108757	 1.2268470138	 0.160535
H	-3.4761691727	-1.3916954953	 0.0892674941	 0.203628
46.6891	65.5846	153.4008	159.6412	200.0937	223.9985	264.5101	335.8678	370.7564	449.0444	513.004	530.9945	577.3395	582.5159	638.7819	659.0722	738.579	820.5631	883.9731	923.8933	1060.1726	1091.2757	1128.8104	1172.553	1235.173	1288.3582	1333.2161	1357.8835	1410.4624	1459.4974	1493.2568	1499.1455	2237.9605	2264.8188	2400.4012	3026.1456	3037.6945	3047.6335	3075.9131	3122.5345	3132.2416	3502.9281
CC(CC#CC#N)C#C	C[C@@H](CC#CC#N)C#C	
InChI=1S/C8H7N/c1-3-8(2)6-4-5-7-9/h1,8H,6H2,2H3	InChI=1S/C8H7N/c1-3-8(2)6-4-5-7-9/h1,8H,6H2,2H3/t8-/m1/s1
