16
gdb 34587	4.3502	1.1052	0.95451	1.5379	79.31	-0.2374	-0.0297	0.2077	1221.049	0.123459	-400.711508	-400.703526	-400.702582	-400.744499	30.224	
C	 0.1443835809	-1.1304061968	-0.1703023578	-0.35391
C	 0.0343733935	 0.0606236429	-0.0608295606	 0.270383
C	-0.0882955746	 1.4733080821	 0.0711438413	 0.243087
N	-1.1553932372	 2.143932738	-0.1196488642	-0.325406
C	-0.8026781326	 3.5470170628	 0.1304700282	-0.261824
C	 0.6842628137	 3.5109779779	 0.5000612709	 0.39761
C	 1.7186976042	 4.5046222772	 0.0851212938	-0.328908
C	 1.3498805583	 4.3352970073	 1.5522258981	-0.328877
O	 1.0523001945	 2.1269893264	 0.4328646994	-0.272121
H	 0.2336502806	-2.1845340036	-0.2692318193	 0.206537
H	-1.0005321319	 4.1453839994	-0.7668734467	 0.123215
H	-1.4285215697	 3.9494677762	 0.9359235658	 0.123217
H	 2.6804302425	 4.1184987987	-0.2332612922	 0.132483
H	 1.3866135011	 5.3953315947	-0.4389640444	 0.121019
H	 0.76399363	 5.1094881675	 2.0376873771	 0.121015
H	 2.0708101869	 3.8386190193	 2.1917253007	 0.13248
49.5907	141.5666	150.0131	287.9306	295.6513	373.3879	470.3276	478.8584	541.8009	613.6971	654.675	673.5516	719.3989	765.2212	825.9615	868.3697	910.8296	937.6673	951.1878	989.0991	1029.1026	1054.7429	1069.8785	1078.1342	1187.3008	1205.9568	1217.2315	1268.7245	1319.2399	1387.5498	1452.3321	1494.8775	1501.1512	1686.9491	2253.1937	3025.4223	3054.7689	3129.4145	3131.7691	3215.7089	3229.3614	3500.5712
C#CC1=NCC2(CC2)O1	C#CC1=NCC2(CC2)O1	
InChI=1S/C7H7NO/c1-2-6-8-5-7(9-6)3-4-7/h1H,3-5H2	InChI=1S/C7H7NO/c1-2-6-8-5-7(9-6)3-4-7/h1H,3-5H2
