18
gdb 130069	4.30336	0.84167	0.74441	1.7265	76.27	-0.1978	0.0311	0.2289	1508.1165	0.149213	-435.277972	-435.268915	-435.267971	-435.312547	33.052	
N	-0.0745138649	 1.3419529611	 0.1080774868	-0.588394
C	 0.0249553248	-0.047709201	 0.0366367945	 0.383853
N	-1.0674182917	-0.8045398966	-0.0395802516	-0.354224
N	-0.602840473	-2.0845301553	-0.0224174593	 0.056871
C	-1.5462635031	-3.1789668449	-0.0135938881	-0.175999
C	-2.272807015	-3.3146506604	 1.3334734341	-0.068022
O	-3.1962305239	-4.3884245973	 1.3150314862	-0.409429
C	 0.7458173982	-2.1319076705	 0.058501521	-0.013089
C	 1.2030448816	-0.8316385346	 0.0979969951	-0.311551
H	 0.6566489446	 1.8215746122	-0.3990146177	 0.244393
H	-0.9850559738	 1.6654775071	-0.1924321951	 0.24811
H	-2.2789649953	-3.0119388571	-0.8115217674	 0.114514
H	-1.0068101335	-4.1030786785	-0.2372007393	 0.123855
H	-1.5458669081	-3.5429405492	 2.1196030659	 0.117716
H	-2.7460448441	-2.3568190598	 1.5852472812	 0.120369
H	-3.9525333078	-4.1211754256	 0.7833265379	 0.28764
H	 1.2728525506	-3.0734503098	 0.0793513066	 0.127103
H	 2.2253648343	-0.4968408198	 0.1632652893	 0.096284
55.4517	84.0976	93.3	251.5175	265.8208	297.315	304.6135	334.1297	381.9157	451.2725	619.4214	667.1674	689.4658	739.0266	775.7637	782.7721	792.4867	819.3145	1007.3621	1018.0188	1029.8569	1059.6833	1070.9824	1086.5123	1130.8546	1169.3661	1260.2116	1294.6909	1340.1416	1348.3116	1399.7708	1414.9827	1424.3628	1479.6624	1480.736	1512.404	1532.8632	1593.2408	1648.5369	3026.1846	3041.6764	3083.0704	3113.0182	3249.2607	3271.2097	3545.0523	3641.0937	3819.1092
NC1=NN(CCO)C=C1	Nc1nn(CCO)cc1	
InChI=1S/C5H9N3O/c6-5-1-2-8(7-5)3-4-9/h1-2,9H,3-4H2,(H2,6,7)	InChI=1S/C5H9N3O/c6-5-1-2-8(7-5)3-4-9/h1-2,9H,3-4H2,(H2,6,7)
