19
gdb 92826	2.51869	1.71136	1.28068	2.2286	76.07	-0.2256	0.0243	0.2499	1034.117	0.160478	-419.181647	-419.173344	-419.172399	-419.213943	32.466	
C	-0.2108497677	 1.6304825576	-0.0965956172	-0.449191
C	-0.0623551686	 0.1116614552	-0.0816822958	 0.21668
C	 1.154352266	-0.4100594208	-0.9338630868	-0.248617
N	 1.9181285627	-0.5734415505	 0.3565763263	-0.365736
C	 0.7098835632	-0.5197732947	 1.0436156549	 0.349735
N	 0.1216592744	-1.1084503958	 2.0051181989	-0.319313
C	-1.31666378	-0.8546375198	 1.7101046183	-0.207019
C	-1.3840708099	-0.6511920198	 0.1475925851	 0.043004
O	-2.504157745	 0.0618123249	-0.3303442732	-0.434668
H	 0.7687863009	 2.110647687	-0.0199341753	 0.121924
H	-0.6911145419	 1.9550681706	-1.024340237	 0.13
H	-0.8318196362	 1.9794442113	 0.7320948859	 0.130369
H	 0.961585535	-1.3633355274	-1.4379033501	 0.112419
H	 1.6110843096	 0.3029552078	-1.6239764957	 0.114624
H	 2.551320511	-1.351373496	 0.5040644489	 0.241315
H	-1.9121305952	-1.7118364814	 2.0410120756	 0.097301
H	-1.7009467957	 0.0359664598	 2.2257589789	 0.107293
H	-1.3208686324	-1.6463918156	-0.3210350102	 0.071191
H	-3.2947502103	-0.4468667223	-0.1258039014	 0.288689
128.4473	213.1891	227.2737	247.2164	261.0151	286.3559	298.3836	360.3503	480.7985	548.234	577.6067	633.1232	707.6427	747.6308	824.8549	870.5009	897.4273	919.5984	963.4302	979.0541	1000.9315	1035.4274	1115.8172	1121.367	1133.8561	1184.5442	1190.7585	1215.3323	1233.3606	1283.4041	1289.9291	1318.7015	1333.3338	1364.7661	1407.0039	1431.5968	1489.7099	1493.6753	1499.1012	1505.8864	1756.568	2970.7709	3015.0572	3038.5589	3044.8237	3073.4355	3108.7324	3115.3894	3123.6093	3548.8152	3825.3773
CC12CNC1=NCC2O	C[C@@]12CN[C]1[N]C[C@H]2O	
InChI=1S/C6H10N2O/c1-6-3-8-5(6)7-2-4(6)9/h4,9H,2-3H2,1H3,(H,7,8)	InChI=1S/C6H10N2O/c1-6-3-8-5(6)7-2-4(6)9/h4,9H,2-3H2,1H3,(H,7,8)/t4-,6+/m1/s1
