20
gdb 14555	3.11493	1.81273	1.43637	1.6123	74.54	-0.2286	0.0801	0.3088	968.9987	0.176373	-348.963956	-348.955624	-348.95468	-348.996742	31.627	
C	-0.380846209	 1.3900492374	-0.0488819225	-0.380567
C	 0.2197006411	-0.0160957231	 0.0810100153	-0.253266
C	 0.8092438544	-0.5509324216	-1.2146743429	 0.315511
C	 2.0090554229	 0.2092769396	-1.7583171488	-0.465224
C	 0.8895775969	-2.0453692443	-1.5251546054	-0.187361
C	-0.3755211007	-2.769816013	-1.083524744	-0.111047
O	-1.2206691873	-1.7917394376	-1.7475368808	-0.289256
C	-0.0630393778	-1.1426187062	-2.2850872991	 0.062635
H	 0.3703394602	 2.1370805636	-0.3236750913	 0.112831
H	-1.1666888382	 1.4062680648	-0.8109416936	 0.125541
H	-0.8272581675	 1.7083131396	 0.898296433	 0.110659
H	 1.0009693271	-0.016892689	 0.8527436411	 0.089248
H	-0.5648928967	-0.6918109508	 0.4302945271	 0.112135
H	 2.8451661854	 0.1761435296	-1.0503561027	 0.11874
H	 2.3588430445	-0.2209638975	-2.7027140326	 0.114244
H	 1.7687853157	 1.2603699729	-1.9450659561	 0.122858
H	 1.8080474221	-2.5230542129	-1.841178543	 0.092353
H	-0.4925762265	-3.7531255361	-1.5535964086	 0.108348
H	-0.5869420244	-2.8498623556	-0.0106171907	 0.104795
H	-0.1048615122	-0.8171926297	-3.3196516743	 0.096823
46.4962	181.9138	214.2365	219.7665	256.2511	295.6733	327.3517	377.0278	484.3206	526.2579	675.8757	767.3886	785.0491	822.9192	871.1379	928.7202	955.7871	986.1632	1003.9038	1008.2893	1025.7451	1045.9454	1061.6554	1095.57	1097.2311	1141.8384	1163.137	1206.9967	1248.858	1288.6192	1311.48	1340.4952	1369.8976	1409.429	1417.2324	1421.9627	1474.0449	1492.7038	1503.1527	1505.6933	1510.1309	1520.3389	3020.9543	3022.6204	3028.7586	3037.5954	3067.0227	3088.9051	3091.01	3102.5486	3106.0702	3113.49	3160.7249	3192.4965
CCC1(C)C2COC12	CC[C@@]1(C)[C@H]2CO[C@@H]12	
InChI=1S/C7H12O/c1-3-7(2)5-4-8-6(5)7/h5-6H,3-4H2,1-2H3	InChI=1S/C7H12O/c1-3-7(2)5-4-8-6(5)7/h5-6H,3-4H2,1-2H3/t5-,6+,7-/m0/s1
