19
gdb 86346	2.69344	1.22789	1.06461	2.2839	71.75	-0.2472	0.0572	0.3044	1199.1331	0.158657	-460.114162	-460.105447	-460.104503	-460.147892	33.082	
O	 0.1652238204	 1.5717611081	 0.1743518097	-0.439394
C	 0.1111287075	 0.1648886066	 0.0885436869	 0.126199
C	 0.2450260247	-0.557971283	 1.462018899	-0.283917
C	-1.3052521553	-0.5718233641	 1.5437294975	 0.076183
O	-1.812448373	 0.6360762359	 2.1119647906	-0.434729
C	-1.3388502503	-0.4230168091	-0.0026645983	-0.045773
C	-2.4307076327	 0.3713000707	-0.6555157618	 0.086373
C	-2.8062828774	 0.1476198119	-2.0571010356	-0.185576
O	-3.6226606253	-0.3518762901	-0.9985638711	-0.243649
H	-0.4203006624	 1.8251619815	 0.9006674364	 0.283624
H	 0.8070834515	-0.121894371	-0.7029277834	 0.083106
H	 0.6612463748	-1.5648066187	 1.3648085187	 0.106098
H	 0.7799542814	-0.0157818809	 2.2467873648	 0.096166
H	-1.7998901039	-1.4458001673	 1.9820904512	 0.07616
H	-1.6275520501	 0.6220563135	 3.0569549251	 0.290822
H	-1.3019686927	-1.4202226832	-0.4521445389	 0.084063
H	-2.6227661937	 1.3535551456	-0.2314869551	 0.102125
H	-3.2343884812	 0.9634980939	-2.6378170941	 0.114966
H	-2.2819357923	-0.6086072902	-2.6410284916	 0.107153
56.7621	126.0334	145.5419	201.4894	310.3328	314.723	335.8531	379.2522	445.3985	518.5585	555.0894	578.5304	767.3539	840.5369	851.8322	866.5205	898.6013	900.5438	912.1017	968.0676	1011.5484	1029.8985	1087.2357	1121.2366	1132.5377	1152.9215	1164.3098	1178.0182	1189.147	1220.5993	1232.0436	1260.0622	1280.6494	1299.5505	1327.7798	1340.4024	1405.7201	1453.1856	1455.0434	1473.256	1530.9162	3037.0891	3054.9279	3068.0522	3078.8659	3088.8946	3114.595	3146.7245	3166.1495	3755.0495	3812.9654
OC1CC(O)C1C1CO1	O[C@H]1C[C@@H](O)[C@H]1[C@H]1CO1	
InChI=1S/C6H10O3/c7-3-1-4(8)6(3)5-2-9-5/h3-8H,1-2H2	InChI=1S/C6H10O3/c7-3-1-4(8)6(3)5-2-9-5/h3-8H,1-2H2/t3-,4+,5-,6-/m1/s1
