17
gdb 26197	4.09316	0.97827	0.93146	2.0176	71.51	-0.2039	0.0079	0.2118	1307.9318	0.135936	-455.174477	-455.165436	-455.164492	-455.208687	33.244	
C	-0.0244463107	 1.5496512924	 0.0824561374	-0.407083
C	-0.0440708752	 0.0183337156	 0.0033471735	 0.023926
O	 0.6664914303	-0.5729823237	 1.0852265504	-0.42611
C	-1.4436397429	-0.5168178162	-0.0753948934	 0.398035
N	-2.0459839015	-1.0740008098	-1.0794427333	-0.350827
C	-3.3182292603	-1.3732473968	-0.6081245123	 0.260557
N	-4.2573940032	-1.9298115815	-1.4662101472	-0.598447
C	-3.4150151484	-0.9762718597	 0.6886177557	-0.127983
O	-2.2004010355	-0.4140348012	 1.0361846705	-0.19734
H	 1.0091797592	 1.8977095531	 0.1533745692	 0.128095
H	-0.4897110356	 1.9929776911	-0.8032175794	 0.130258
H	-0.5733345519	 1.8958371239	 0.9646438744	 0.121303
H	 0.4670814092	-0.3122071292	-0.9043956615	 0.120811
H	 0.171208245	-0.3874815319	 1.8911837859	 0.287675
H	-3.8157703987	-2.426596329	-2.2281315361	 0.256867
H	-4.9517505687	-2.5036981782	-1.0092336403	 0.248657
H	-4.1739187712	-1.002608679	 1.4489871565	 0.131607
36.3617	123.5415	175.3035	238.8168	254.0659	286.3616	299.0821	327.9813	402.9302	430.8852	522.9518	635.7439	646.2895	671.4276	726.3326	747.6712	777.3609	903.6105	973.7799	1015.2739	1021.1954	1082.9211	1098.7211	1104.8774	1126.9227	1248.7835	1288.4287	1339.4125	1349.8974	1395.6408	1402.3582	1419.1012	1490.0436	1493.4665	1606.8594	1638.1043	1676.6845	3038.1655	3089.8975	3115.1119	3126.627	3305.2787	3556.4451	3655.2528	3802.8832
CC(O)C1=NC(N)=CO1	C[C@@H](O)c1nc(N)co1	
InChI=1S/C5H8N2O2/c1-3(8)5-7-4(6)2-9-5/h2-3,8H,6H2,1H3	InChI=1S/C5H8N2O2/c1-3(8)5-7-4(6)2-9-5/h2-3,8H,6H2,1H3/t3-/m1/s1
