20
gdb 15196	8.72984	0.6195	0.60516	1.2033	72.41	-0.2632	0.0791	0.3423	1817.7052	0.175542	-386.113789	-386.104274	-386.10333	-386.149287	32.951	
O	-0.0433708352	 1.4077900668	-0.1091088658	-0.421731
C	-0.0003974947	-0.0102985617	-0.1705893935	-0.074672
C	-1.4046377919	-0.5356674451	 0.0963991089	-0.167332
C	-1.4863709982	-2.0636227153	 0.061882551	-0.178684
C	-2.9022729783	-2.5950008439	 0.3235427958	-0.2211
C	-2.9689155084	-4.1013902075	 0.2715437652	 0.099074
C	-4.1201038178	-4.8256589124	-0.2796042698	-0.181104
O	-2.9107053347	-4.6976897975	-1.0293979266	-0.237283
H	 0.8394511546	 1.7432382196	-0.289389235	 0.28486
H	 0.3435088856	-0.3566591009	-1.1590716181	 0.085544
H	 0.6984866908	-0.4203658344	 0.5774944271	 0.082313
H	-1.735670014	-0.1591434995	 1.0724332104	 0.102737
H	-2.0833402876	-0.1041093502	-0.6496391358	 0.105913
H	-1.1497460806	-2.4353576226	-0.9139859168	 0.114666
H	-0.7980463787	-2.4869510946	 0.8067267236	 0.092681
H	-3.2512636198	-2.2573726568	 1.3089305256	 0.099626
H	-3.5961780823	-2.1840584534	-0.4195341626	 0.103078
H	-2.3582225982	-4.6207053427	 1.0139620049	 0.087688
H	-4.3508719848	-5.831139607	 0.0703339988	 0.112332
H	-4.9703919859	-4.263850811	-0.6650454574	 0.111393
52.6467	63.8847	102.5397	122.5522	140.6857	230.8401	266.8254	302.1685	408.7815	437.5194	520.137	741.0612	780.1976	813.0073	867.7082	928.7598	947.1654	1007.3289	1026.6173	1058.2676	1062.4909	1082.4035	1107.9886	1158.4762	1163.7119	1184.1619	1213.0887	1227.3641	1284.1311	1284.9272	1296.6881	1317.3264	1331.1528	1344.2917	1396.1541	1448.1844	1463.8446	1471.4558	1489.2719	1504.3429	1529.0329	1530.766	2957.1502	2982.5996	3009.6538	3017.9506	3028.2807	3045.6384	3062.0588	3076.6919	3079.6632	3088.1136	3164.9842	3831.4181
OCCCCC1CO1	OCCCC[C@H]1CO1	
InChI=1S/C6H12O2/c7-4-2-1-3-6-5-8-6/h6-7H,1-5H2	InChI=1S/C6H12O2/c7-4-2-1-3-6-5-8-6/h6-7H,1-5H2/t6-/m0/s1
