16
gdb 126379	4.77301	1.03136	0.90585	1.155	75.1	-0.2382	-0.0696	0.1687	1278.779	0.124989	-434.09533	-434.087295	-434.086351	-434.128732	29.568	
C	 0.0638519227	 1.5042440549	-0.0942383147	-0.379222
C	-0.0997788503	-0.0095547996	 0.1178674478	-0.249658
C	 0.6895188925	-0.5082280759	 1.29723739	 0.3779
N	 2.0382228462	-0.4966675964	 1.1983537239	-0.253884
C	 2.7054638301	-0.9252431928	 2.2462281994	-0.068171
C	 2.0068120269	-1.3597314969	 3.3862243901	 0.428996
O	 2.680364947	-1.7994364146	 4.4601553184	-0.40736
N	 0.6868602251	-1.3481281852	 3.431075602	-0.280967
N	 0.0095285329	-0.9148901518	 2.3671150997	-0.234333
H	 1.1176050765	 1.7622959253	-0.2325002544	 0.134324
H	-0.4887085857	 1.8297461531	-0.9801947203	 0.118347
H	-0.3153042007	 2.0635016401	 0.7668155694	 0.124855
H	-1.1496694718	-0.2640584346	 0.2802036756	 0.124239
H	 0.2443085742	-0.5395096547	-0.7774363637	 0.1183
H	 3.7921242077	-0.9385168849	 2.2140572865	 0.138532
H	 2.0157223767	-2.046157806	 5.1211410902	 0.308102
42.1735	92.5155	209.1429	224.4009	331.0522	389.4784	431.953	443.933	501.9646	545.6402	614.2747	661.5533	757.2032	792.2693	839.9501	876.305	962.1503	983.5038	1053.6305	1075.241	1087.7013	1161.3753	1206.3431	1271.4728	1300.2124	1320.8544	1367.8457	1401.5202	1420.3417	1468.4112	1480.1449	1496.8083	1510.2321	1581.7439	1623.5726	3040.989	3047.7106	3103.5276	3114.9171	3126.4039	3163.6348	3739.6824
CCC1=NC=C(O)N=N1	CCc1ncc(O)nn1	
InChI=1S/C5H7N3O/c1-2-4-6-3-5(9)8-7-4/h3H,2H2,1H3,(H,8,9)	InChI=1S/C5H7N3O/c1-2-4-6-3-5(9)8-7-4/h3H,2H2,1H3,(H,8,9)
