17
gdb 53944	1.78858	1.23385	1.03991	1.3052	67.73	-0.1796	0.0384	0.2181	1266.8055	0.131932	-492.337307	-492.325776	-492.324832	-492.375667	38.663	
C	-0.1652643007	 1.6879660644	 1.0709073103	-0.474342
C	-0.3922719932	 0.2295269972	 0.8186749712	 0.249149
O	 0.4916832261	-0.635136283	 1.4769912356	-0.465185
C	-1.377618018	-0.3327509844	 0.0925241828	 0.202659
N	-2.4755757863	 0.3351352038	-0.4772413452	-0.574281
N	-1.4001422146	-1.7145465481	-0.1736335521	-0.553804
H	-2.3364438844	-2.0918796729	-0.0763932454	 0.242015
H	-0.7586363863	-2.1932637261	 0.4478240509	 0.251145
C	 0.8146528256	-0.7219164924	-2.0823685012	 0.602655
O	 1.6331451856	-1.1029615495	-1.3457004028	-0.313386
O	 0.0340711131	-0.3392111645	-2.852925875	-0.298301
H	 0.8750209573	 1.9649397618	 0.8496716692	 0.112656
H	-0.8049385684	 2.3259371745	 0.4534591284	 0.104727
H	-0.342492868	 1.953179663	 2.1213621881	 0.130136
H	 1.2940949593	-0.708042322	 0.944380564	 0.295368
H	-2.4396658079	 1.336839326	-0.3512519817	 0.2415
H	-2.5649220895	 0.1183873023	-1.4652284271	 0.247291
33.1789	55.4619	63.7118	100.6734	119.7335	149.2739	168.1197	271.7655	285.5023	336.0459	357.5484	385.407	432.7604	468.6486	556.4284	601.8945	667.122	680.4252	740.0167	800.9493	856.5688	963.9806	1047.3412	1065.1209	1151.7804	1202.7597	1268.309	1310.7376	1373.0309	1381.908	1424.202	1470.0136	1496.6184	1625.6304	1637.8479	1771.8872	2426.7758	3002.9406	3044.0378	3096.6169	3510.0216	3512.2359	3611.076	3633.6238	3751.571
CC(O)(C(N)=[NH2+])C([O-])=O	C[C](O)C(=[NH2])N.C(=O)=O	
InChI=1S/C4H8N2O3/c1-4(9,2(5)6)3(7)8/h9H,1H3,(H3,5,6)(H,7,8)	InChI=1S/C3H8N2O.CO2/c1-2(6)3(4)5;2-1-3/h6H,4-5H2,1H3;
