19
gdb 100661	2.31967	1.31151	1.06995	1.6915	67.57	-0.257	-0.0384	0.2185	1187.6803	0.156031	-497.301595	-497.291537	-497.290593	-497.336203	37.317	
C	 0.1821665176	 1.4064889745	 0.4981118944	-0.432315
C	 0.1138144301	-0.0285146324	-0.0586350697	 0.24515
O	 0.8469445726	-0.9379075461	 0.7468583168	-0.489464
C	-1.3314746838	-0.500945053	 0.0706201704	 0.158852
O	-2.1965414296	-0.3321310912	-0.7572151012	-0.280807
C	 0.5581002202	-0.1173235848	-1.5484944571	 0.059274
O	-0.2125812261	 0.7163638978	-2.3845965732	-0.440668
C	 2.0163487543	 0.3004176049	-1.7744775898	-0.109569
O	 2.9460750007	-0.4668690685	-1.0052593461	-0.417027
H	 1.2266568698	 1.7065359166	 0.6227244808	 0.12886
H	-0.3115053002	 2.1072576198	-0.1791581481	 0.140423
H	-0.2926321033	 1.4566002461	 1.4825074141	 0.124536
H	 1.7792263527	-0.8288609494	 0.5009616713	 0.288128
H	-1.536799864	-1.0263323925	 1.0267810646	 0.111529
H	 0.4585505579	-1.1796489012	-1.8371304536	 0.065434
H	-1.1393130201	 0.4920025987	-2.2089206704	 0.300018
H	 2.2327315278	 0.2350608889	-2.8475561181	 0.118215
H	 2.1589194305	 1.3418384341	-1.4757467235	 0.132111
H	 2.998233883	-1.347502152	-1.3922673816	 0.29732
71.9431	102.1988	167.2724	217.0372	233.2226	255.1771	289.0471	310.1828	315.7708	377.6276	387.6991	401.3427	504.2514	542.7972	601.1532	632.9954	648.0862	735.916	895.4912	936.4167	993.9949	1008.3841	1031.6638	1080.9308	1115.723	1120.7885	1168.6542	1197.5696	1215.9924	1296.7309	1357.8507	1379.0512	1387.8122	1393.2674	1408.1863	1432.9828	1460.4524	1492.6581	1496.7427	1517.8197	1810.9199	2925.6083	2935.3263	3038.7605	3044.7595	3109.1023	3115.1097	3137.4364	3679.0628	3698.0308	3812.8697
CC(O)(C=O)C(O)CO	C[C@@](O)(C=O)[C@@H](O)CO	
InChI=1S/C5H10O4/c1-5(9,3-7)4(8)2-6/h3-4,6,8-9H,2H2,1H3	InChI=1S/C5H10O4/c1-5(9,3-7)4(8)2-6/h3-4,6,8-9H,2H2,1H3/t4-,5+/m0/s1
