23
gdb 118171	1.90349	0.88288	0.63714	1.0118	91.53	-0.2367	0.0638	0.3004	1858.7912	0.20177	-388.271531	-388.259598	-388.258654	-388.310844	40.767	
C	-0.0264172166	 1.5047123354	 0.0189559961	-0.382651
C	 0.0281979704	-0.0105782941	 0.1249444233	-0.035961
O	-1.2890683308	-0.5089050849	 0.0062069144	-0.250437
C	-1.4050103123	-1.9222803101	 0.0103663887	 0.149949
C	-1.4151848671	-2.4818039882	 1.4357311011	-0.403222
C	-2.7101269874	-2.2581862854	-0.7344840054	-0.363437
C	-2.6765050364	-1.9119114258	-2.1505266835	 0.046744
C	-2.6357034096	-1.6395900152	-3.3224542399	 0.093771
C	-2.5945495842	-1.3041719419	-4.7388641804	-0.497036
H	 0.9790375201	 1.929693556	 0.0948199714	 0.111096
H	-0.4622104567	 1.8034398551	-0.9384616316	 0.128871
H	-0.6420010471	 1.9235100956	 0.8202245237	 0.12445
H	 0.6628810284	-0.4303620692	-0.6731000816	 0.088044
H	 0.4800503533	-0.3064410568	 1.0857024905	 0.083495
H	-0.5636271569	-2.3602923959	-0.5497607805	 0.071635
H	-0.500672094	-2.2131848547	 1.9717771611	 0.117034
H	-2.2676504631	-2.0820886397	 1.9945124898	 0.122351
H	-1.4863785829	-3.5742864618	 1.42564122	 0.11336
H	-2.9168855313	-3.3293060908	-0.6158052703	 0.118692
H	-3.5271480755	-1.7235929816	-0.2328026132	 0.130536
H	-3.4192220049	-1.7763081369	-5.2847617498	 0.14442
H	-2.6718092983	-0.2224835206	-4.8963610471	 0.145284
H	-1.6597186869	-1.6389306585	-5.2025692167	 0.143013
30.6803	42.2555	58.2558	82.1452	116.8266	183.6034	219.2869	225.0737	246.2618	263.2713	313.5065	382.5037	390.4783	435.945	469.8652	540.9131	773.5479	816.1109	823.5822	888.352	911.3194	968.0624	1053.6468	1053.9121	1064.8599	1108.3482	1120.4734	1143.1344	1165.764	1170.2261	1188.7034	1257.0146	1297.9946	1313.183	1368.4901	1379.6633	1402.4784	1404.9537	1415.2728	1439.572	1459.1777	1479.3152	1480.5184	1482.669	1490.8458	1496.7651	1501.1973	1530.7344	2376.1835	2960.0616	2979.2522	2986.7288	3019.9793	3023.9953	3038.0062	3044.5491	3056.0123	3082.7541	3083.6087	3109.005	3114.9904	3118.1641	3122.7074
CCOC(C)CC#CC	CCO[C@@H](C)CC#CC	
InChI=1S/C8H14O/c1-4-6-7-8(3)9-5-2/h8H,5,7H2,1-3H3	InChI=1S/C8H14O/c1-4-6-7-8(3)9-5-2/h8H,5,7H2,1-3H3/t8-/m0/s1
