13
gdb 132824	2.94643	1.51617	1.00105	5.14	75.13	-0.2675	-0.0587	0.2088	1072.147	0.091006	-423.657643	-423.650773	-423.649828	-423.689141	26.012	
F	 0.0057224973	 0.0310447234	 0.0039246952	-0.048019
C	-0.020795534	 1.3596695402	 0.0109332255	 0.236024
C	-1.2393240873	 2.0184634679	 0.0300217565	-0.229391
C	-1.2543315911	 3.4102014183	 0.0371976073	-0.099753
C	-0.060825637	 4.1322670797	 0.0253582617	-0.106054
C	 1.154417407	 3.4620044869	 0.0062544603	-0.178652
C	 1.1907606135	 2.0597153915	-0.0012479818	 0.042006
C	 2.4318469455	 1.3548087413	-0.020858578	 0.220458
N	 3.4493636669	 0.8038117507	-0.0368003766	-0.33575
H	-2.1512912837	 1.4340711239	 0.0389036894	 0.12788
H	-2.2051377127	 3.9313438915	 0.0521281311	 0.121507
H	-0.078554879	 5.2156060075	 0.0310212207	 0.116538
H	 2.0904447546	 4.0073993374	-0.0031355312	 0.133204
131.4985	147.8215	246.6761	370.3142	405.8268	464.2951	510.083	560.1593	591.2618	610.5126	738.0858	758.2059	785.0056	852.3272	892.9268	957.3802	985.6155	1053.8597	1123.8669	1178.8396	1213.6964	1281.0944	1305.0191	1337.1616	1483.1776	1525.9364	1616.2781	1648.5001	2349.6853	3189.4502	3202.147	3212.9986	3217.4109
FC1=CC=CC=C1C#N	Fc1ccccc1C#N	
InChI=1S/C7H4FN/c8-7-4-2-1-3-6(7)5-9/h1-4H	InChI=1S/C7H4FN/c8-7-4-2-1-3-6(7)5-9/h1-4H
