21
gdb 102198	2.95096	0.86584	0.7615	0.3067	90.15	-0.2588	0.0379	0.2967	1554.8374	0.178705	-349.894797	-349.883883	-349.882939	-349.932869	39.531	
C	 0.9007004017	-0.8709530921	-1.093168916	-0.387205
C	 0.0721123901	-0.1328392463	-0.0348061472	-0.185684
C	-1.4400571923	-0.4285065951	-0.0340159161	 0.017248
C	-2.1439738186	-0.0146754007	-1.3510803075	-0.370786
C	-1.9984037948	 1.3990857146	-1.674018715	 0.296394
C	-1.8756741964	 2.5686599073	-1.9241351944	-0.436352
C	-1.7720167049	-1.9129503686	 0.2620103871	-0.370828
C	-1.2563984836	-2.3848794929	 1.5409244444	 0.296417
C	-0.8308171723	-2.758383534	 2.6015374449	-0.43637
H	 1.9551510999	-0.5913279296	-1.0077835046	 0.117247
H	 0.8460266084	-1.9582205713	-0.9760600565	 0.118976
H	 0.5841534826	-0.6238595485	-2.1118003671	 0.118931
H	 0.4614609646	-0.37668574	 0.9593137593	 0.111522
H	 0.2021286197	 0.9465557577	-0.1664558249	 0.111525
H	-1.8836877702	 0.1688646989	 0.7712374326	 0.095241
H	-1.7593774207	-0.6199659983	-2.1821591706	 0.130648
H	-3.212262771	-0.2557534621	-1.2740950739	 0.127091
H	-1.7715768793	 3.6001604011	-2.1531061011	 0.194119
H	-2.8619571612	-2.043519845	 0.2457120642	 0.127096
H	-1.3821909823	-2.5472166592	-0.5446644274	 0.130651
H	-0.4578388693	-3.0968440857	 3.5361972594	 0.19412
7.6427	54.777	108.4111	123.5406	179.1845	241.0937	255.9515	310.7348	344.6049	349.8799	354.7852	444.6042	522.2248	583.8297	616.7078	617.2612	634.5758	635.9817	770.1498	775.1871	888.9805	911.0796	959.9335	986.2728	998.7353	998.8192	1092.5098	1124.7728	1144.4977	1211.9088	1235.4347	1283.5071	1308.9028	1344.8369	1370.0764	1382.1858	1387.839	1411.9373	1466.0033	1476.8145	1485.9146	1504.3099	1507.2834	2236.342	2236.7059	3015.5261	3018.7308	3030.8861	3037.3589	3045.3104	3046.7022	3059.2809	3078.4702	3103.6728	3106.4424	3506.4243	3506.7258
CCC(CC#C)CC#C	CCC(CC#C)CC#C	
InChI=1S/C9H12/c1-4-7-9(6-3)8-5-2/h1-2,9H,6-8H2,3H3	InChI=1S/C9H12/c1-4-7-9(6-3)8-5-2/h1-2,9H,6-8H2,3H3
