23
gdb 97773	4.12253	0.64891	0.61661	0.1951	98.61	-0.2225	0.0538	0.2762	1968.4168	0.203359	-351.13538	-351.124419	-351.123475	-351.172274	39.818	
C	-0.0112751939	 1.6243788041	-0.0316978611	-0.361663
C	-0.0018903768	 0.0861269952	 0.0397136367	-0.315143
C	-1.3408508396	-0.4950471305	 0.028183003	 0.101611
C	-2.458468057	-0.949379472	 0.013616278	 0.050682
C	-3.7889354192	-1.4854249896	 0.0121320349	-0.239069
C	-4.3470939734	-2.1880894526	-1.2222215567	-0.320938
C	-4.0601301204	-2.9921036555	 0.0159077314	 0.348165
C	-2.8815378863	-3.9435582316	 0.0010804036	-0.45146
C	-5.2411399411	-3.4638452487	 0.8419378409	-0.448055
H	 1.0111141265	 2.0143059575	-0.0187949466	 0.111257
H	-0.5006305691	 1.9675734112	-0.9473014849	 0.126771
H	-0.5527684676	 2.0488508045	 0.8181228843	 0.126463
H	 0.5759684587	-0.3131043415	-0.8041823898	 0.124752
H	 0.5320050611	-0.2326896214	 0.9448052619	 0.124232
H	-4.5104408505	-0.8944741491	 0.5711650645	 0.100429
H	-5.3796298236	-1.9844110484	-1.4866661795	 0.108706
H	-3.6762763041	-2.2929788583	-2.0676805333	 0.116528
H	-2.0432851443	-3.5339915307	-0.5672016145	 0.126164
H	-2.5267044917	-4.1438088779	 1.0186485696	 0.115287
H	-3.166497034	-4.9023191626	-0.4475916047	 0.110377
H	-5.6315847646	-4.4133688879	 0.4566154935	 0.115088
H	-4.9537298796	-3.6232583943	 1.8876603598	 0.117569
H	-6.0597016095	-2.7373703	 0.8256137192	 0.112247
29.3599	73.3736	91.8894	151.9088	199.3534	200.1901	236.3908	275.0373	315.7176	344.9061	368.8442	381.1601	492.8187	506.2571	541.4955	693.0353	718.9507	787.0093	839.5606	895.6125	921.5455	956.0057	973.2796	979.563	1046.7169	1061.3289	1072.7916	1084.6232	1104.4088	1113.2973	1152.1221	1209.8785	1278.0532	1286.3586	1332.746	1350.3478	1402.1404	1408.4569	1413.0635	1424.3261	1477.4661	1480.4464	1485.3951	1491.6917	1494.2497	1500.0208	1506.2023	1511.1913	2356.7399	3013.8107	3020.3643	3027.5544	3039.684	3042.8985	3080.7375	3084.7556	3097.8033	3115.5624	3120.9873	3122.5754	3128.6133	3131.7109	3219.8937
CCC#CC1CC1(C)C	CCC#C[C@H]1CC1(C)C	
InChI=1S/C9H14/c1-4-5-6-8-7-9(8,2)3/h8H,4,7H2,1-3H3	InChI=1S/C9H14/c1-4-5-6-8-7-9(8,2)3/h8H,4,7H2,1-3H3/t8-/m0/s1
