17
gdb 74021	2.4954	1.94125	1.27216	2.6327	74.67	-0.2393	-0.0111	0.2282	996.788	0.136072	-421.763482	-421.756028	-421.755084	-421.795342	28.632	
C	 0.011500701	 1.4610374311	 0.0093526814	-0.497131
C	-0.2034051896	-0.0175132206	 0.0077940835	 0.205114
C	-0.3330378065	-0.857528918	-1.0237568657	 0.027648
C	 0.3191896012	-1.1545816656	-2.3552313926	-0.136557
O	 0.7687053385	-2.4251129444	-1.7879289829	-0.29901
C	-0.1707027119	-2.3031582815	-0.6698952791	 0.097317
C	 0.2275714705	-2.2740004178	 0.8000867758	-0.006315
O	 1.3348925124	-1.4605645683	 1.1595775687	-0.24125
C	 0.0175455872	-0.867013727	 1.2359219295	-0.058015
H	 0.9755936208	 1.7137532293	 0.4673693725	 0.142389
H	-0.0086357328	 1.8697310755	-1.004243869	 0.128645
H	-0.7615590503	 1.9767600569	 0.5926899846	 0.132025
H	-0.3530132783	-1.3223850257	-3.2065877865	 0.106725
H	 1.1531446688	-0.5132285757	-2.6586718789	 0.121399
H	-1.0232217816	-2.9796854817	-0.8190914979	 0.078821
H	 0.038617259	-3.1213994706	 1.4530708594	 0.098308
H	-0.3021905785	-0.5915174858	 2.237259907	 0.099887
145.6325	164.3794	194.0603	211.4095	245.4602	417.7042	518.2505	563.1317	585.9963	700.2434	746.5787	791.4491	841.8946	884.4138	890.9008	926.8638	951.221	976.4925	1011.4939	1048.2242	1058.3548	1099.4563	1122.9118	1129.5826	1151.8864	1219.6242	1247.5819	1255.6365	1313.7785	1323.3643	1343.1861	1396.3274	1410.7926	1478.3747	1487.0917	1511.0704	1744.7568	3009.3121	3016.7508	3021.4179	3070.3609	3076.3699	3114.6949	3149.519	3160.8246
CC1=C2COC2C2OC12	C[C]1[C]2CO[C@H]2[C@H]2O[C@@H]12	
InChI=1S/C7H8O2/c1-3-4-2-8-6(4)7-5(3)9-7/h5-7H,2H2,1H3	InChI=1S/C7H8O2/c1-3-4-2-8-6(4)7-5(3)9-7/h5-7H,2H2,1H3/t5-,6+,7-/m0/s1
