17
gdb 105161	2.10783	1.40075	0.99343	2.6346	74.96	-0.2446	-0.0513	0.1933	1209.8306	0.134281	-418.006456	-417.99706	-417.996116	-418.041094	33.347	
C	-0.0076824677	 1.1882275569	 0.6498344266	-0.328125
N	-0.4446070968	 0.0578761952	-0.1629333736	-0.370371
C	 0.436589779	-0.3333360086	-1.2159197059	 0.211164
C	 1.8881589337	-0.7295357728	-0.9857979564	-0.309547
C	 0.8912200556	-1.8012377105	-1.3370261792	-0.208198
C	 0.4453687847	-2.7195141085	-0.3301955494	 0.295495
N	 0.0597935085	-3.4290863929	 0.4990259922	-0.335869
C	 0.1444377444	 0.2993950074	-2.5477277193	 0.135341
O	 0.8027499253	 0.1170552425	-3.5416503468	-0.266845
H	 0.9503919597	 1.028685485	 1.170401136	 0.108088
H	 0.0999999629	 2.0779283882	 0.0204311319	 0.129835
H	-0.7744452655	 1.4028427139	 1.3983450282	 0.13375
H	-0.7268105471	-0.7274954356	 0.4104023074	 0.24822
H	 2.5969481361	-0.4650718054	-1.7617723672	 0.153552
H	 2.2502339764	-0.6984896615	 0.0344239853	 0.145722
H	 0.9239701547	-2.1912219278	-2.3487308296	 0.158593
H	-0.7541771938	 0.9507907344	-2.5338101002	 0.099195
65.3585	98.7868	134.4431	159.5048	197.2054	237.814	254.3299	318.0204	394.0214	443.1333	552.8643	580.4165	630.9632	683.5375	729.6888	787.5482	863.0601	944.136	983.0009	1046.3272	1062.4182	1081.5086	1091.1095	1134.2549	1152.6858	1184.3557	1234.0223	1313.4342	1372.6036	1400.7343	1455.7863	1464.6164	1487.5786	1496.9391	1523.6051	1813.9573	2349.5381	2925.1562	2974.6651	3068.1001	3118.707	3148.8188	3177.6503	3250.9305	3555.0984
CNC1(CC1C#N)C=O	CN[C@]1(C[C@H]1C#N)C=O	
InChI=1S/C6H8N2O/c1-8-6(4-9)2-5(6)3-7/h4-5,8H,2H2,1H3	InChI=1S/C6H8N2O/c1-8-6(4-9)2-5(6)3-7/h4-5,8H,2H2,1H3/t5-,6+/m0/s1
