21
gdb 54245	2.35795	1.34239	1.31035	2.4029	83.95	-0.2267	-0.0099	0.2168	1155.747	0.181238	-387.129357	-387.119835	-387.118891	-387.164013	35.526	
C	-0.5266451615	 1.3322453302	 0.004322673	-0.485135
C	-0.0437642934	-0.1088501205	-0.0275936184	 0.368972
O	 0.1722425979	-0.7143254045	 0.9966757477	-0.309792
C	 0.1730572815	-0.7613362199	-1.416982052	 0.16768
C	 1.56348342	-0.3072357283	-1.9141238701	-0.448009
C	 0.0549169605	-2.310124764	-1.3333540512	-0.2555
C	-1.3624911759	-2.6628189852	-1.8496918952	-0.262682
C	-1.7741685066	-1.4196379641	-2.6006472475	-0.074331
C	-0.9484642187	-0.3991833329	-2.3765052566	-0.117674
H	 0.0040119298	 1.9595344378	-0.7180711363	 0.132181
H	-1.5875834203	 1.3605215646	-0.2679266973	 0.150173
H	-0.4061919922	 1.7342592022	 1.0109453532	 0.139849
H	 2.3481943351	-0.6538538961	-1.2342226358	 0.131925
H	 1.7567225537	-0.7250360623	-2.9066921561	 0.123419
H	 1.6395064938	 0.7825307674	-1.9900944993	 0.114017
H	 0.8060594553	-2.759389462	-1.9900212817	 0.093714
H	 0.245580978	-2.6587909388	-0.3179733511	 0.126993
H	-1.3644069737	-3.5569458396	-2.4831514803	 0.104769
H	-2.0627441357	-2.8701892608	-1.0289018539	 0.113701
H	-2.6571943361	-1.3779949996	-3.2295931017	 0.095272
H	-1.0521060716	 0.5949647364	-2.7984193895	 0.09046
49.1931	74.4415	140.0217	200.1029	229.8037	235.3957	286.5253	330.2597	396.922	481.1771	513.7839	573.8566	618.8713	681.1819	766.7422	784.3123	845.2534	860.1048	916.2541	948.0917	970.2777	978.5379	996.9732	1016.5545	1031.5244	1106.3557	1111.1813	1151.7268	1173.5961	1200.8043	1243.9461	1264.7393	1317.191	1319.7932	1376.1567	1377.9768	1405.1047	1464.5413	1475.1115	1480.3275	1494.1862	1494.692	1500.7239	1682.3108	1802.9348	3015.9806	3031.3144	3043.7005	3049.833	3065.5095	3100.628	3107.8276	3110.3059	3131.8116	3152.3604	3174.71	3200.6317
CC(=O)C1(C)CCC=C1	CC(=O)[C@@]1(C)CCC=C1	
InChI=1S/C8H12O/c1-7(9)8(2)5-3-4-6-8/h3,5H,4,6H2,1-2H3	InChI=1S/C8H12O/c1-7(9)8(2)5-3-4-6-8/h3,5H,4,6H2,1-2H3/t8-/m1/s1
