18
gdb 81513	3.25877	1.43569	1.13172	1.8079	80.27	-0.2069	0.0287	0.2356	1095.7631	0.144831	-401.819642	-401.810754	-401.80981	-401.852746	34.275	
C	-0.0231316011	 1.5642355181	-0.0263913194	-0.33792
N	 0.038456291	 0.1018175788	 0.0062251011	-0.11723
C	-1.0191119803	-0.7413273342	 0.6807452497	-0.097283
C	-0.0009805712	-1.9052630649	 0.5496086559	-0.227519
C	 0.7725582691	-0.6671910694	 1.0818850161	-0.075195
C	-0.3928263958	-0.4580288407	 2.1134475206	 0.284731
O	-0.479606375	 0.8337128521	 2.6707192084	-0.472328
C	-0.6132039863	-1.448211779	 3.1649618046	 0.246176
C	-0.8438546555	-2.2005311918	 4.0755294578	-0.447034
H	 0.9697273355	 1.9300987834	-0.3108347075	 0.115349
H	-0.7097601031	 1.8436581143	-0.8337383042	 0.112008
H	-0.3320167303	 2.0652194703	 0.8928871888	 0.13055
H	-2.0707421977	-0.7135286117	 0.3894075698	 0.083493
H	-0.1122047836	-2.7627633016	 1.2105543324	 0.116055
H	 0.2407048771	-2.16427645	-0.478552831	 0.111554
H	 1.8421837302	-0.5506304862	 1.264022951	 0.087359
H	-1.1441475131	 0.8076684486	 3.3667996865	 0.287622
H	-1.03189684	-2.880220046	 4.8700630095	 0.199614
101.5874	114.6668	161.7058	228.2988	267.0888	308.4796	326.1013	372.564	491.9343	499.7403	534.7952	609.8595	627.6826	666.5235	699.4992	736.171	773.1735	810.4789	887.4339	917.5268	1011.699	1018.6663	1050.8569	1079.8227	1108.2096	1148.4734	1165.0367	1170.9806	1189.5456	1201.8933	1206.6756	1240.1968	1279.1581	1366.1569	1439.9362	1481.5887	1487.0046	1517.5969	2219.2391	3027.7932	3085.6282	3098.292	3102.6299	3115.4539	3120.0524	3189.7411	3497.753	3817.9228
CN1C2CC1C2(O)C#C	CN1[C@H]2C[C@@H]1[C@]2(O)C#C	
InChI=1S/C7H9NO/c1-3-7(9)5-4-6(7)8(5)2/h1,5-6,9H,4H2,2H3	InChI=1S/C7H9NO/c1-3-7(9)5-4-6(7)8(5)2/h1,5-6,9H,4H2,2H3/t5-,6+,7-
