15
gdb 72299	2.84251	2.43925	1.67912	3.8167	68.54	-0.209	-0.053	0.156	793.8529	0.112647	-416.654538	-416.648285	-416.64734	-416.684572	26.498	
O	-0.1489831443	 1.3313638811	-0.0997322224	-0.473439
C	 0.081976083	-0.0297490615	 0.0285419169	 0.378361
C	 1.2616160317	-0.6788166912	-0.8000823533	-0.242162
N	 1.0243862147	-2.1068370142	-0.4698320401	-0.210292
C	 0.3975587052	-2.0060051295	 0.6362634328	 0.195165
C	 0.323999089	-0.6999476204	 1.4437626469	-0.223978
C	-1.1793266735	-1.0117461645	 1.5924256973	-0.042413
C	-1.307692322	-0.7845811904	 0.1240781306	-0.059742
N	-1.0564101301	-2.197686431	 0.7144183937	-0.159436
H	 0.6958501038	 1.79313605	-0.0512720602	 0.290648
H	 1.1932689669	-0.5611239129	-1.8866443374	 0.127488
H	 2.2187584255	-0.2375599064	-0.4712670488	 0.097926
H	 1.0486940251	-0.3250228989	 2.1595386659	 0.093196
H	-1.8882709996	-0.9323497513	 2.403655764	 0.113257
H	-2.1759382654	-0.6521942187	-0.5093913857	 0.115421
275.039	285.7128	348.5088	379.3936	437.8597	513.3153	534.6612	626.6523	654.3955	727.2224	760.5042	797.833	826.5688	871.7657	892.0751	946.676	951.2198	1000.6568	1015.6406	1020.8624	1036.0071	1050.2861	1091.3372	1149.989	1161.8752	1180.4227	1221.4229	1232.0353	1269.0956	1313.1787	1365.9885	1482.9919	1602.2553	2949.8646	3072.9295	3172.0619	3201.1555	3228.9565	3797.7408
OC12CN=C3C1C1C2N31	O[C@@]12C[N][C]3[C@@H]1[C@H]1[C@@H]2N31	
InChI=1S/C6H6N2O/c9-6-1-7-5-2(6)3-4(6)8(3)5/h2-4,9H,1H2	InChI=1S/C6H6N2O/c9-6-1-7-5-2(6)3-4(6)8(3)5/h2-4,9H,1H2/t2-,3-,4-,6-,8?/m0/s1
