17
gdb 68952	2.56338	1.62315	1.32435	4.1589	74.75	-0.2358	-0.0211	0.2147	1006.7171	0.135248	-421.789945	-421.782115	-421.78117	-421.822098	30.579	
O	-0.132031018	 1.2939225372	 0.2236162269	-0.431009
C	-0.0034893817	-0.0549284968	 0.0488097946	 0.387458
C	-0.2720711319	-0.9586204553	 1.1861483516	-0.369726
C	-1.1589768239	-1.1862905305	-0.0300980694	 0.137008
C	-2.5973850417	-0.9243805613	-0.0024074085	 0.059246
O	-3.1940083235	-0.3925487154	 0.9094243393	-0.280721
C	-0.3842629416	-1.8151909342	-1.1608863223	-0.122855
C	-0.2086029591	-0.8606327047	-2.3099431833	-0.300752
C	 0.6926216204	-0.7244054217	-1.1032169255	-0.137113
H	-0.2669820743	 1.7067321726	-0.637458331	 0.294835
H	 0.4396943119	-1.7317782103	 1.4641280487	 0.115082
H	-0.7961579101	-0.4877636684	 2.0119900183	 0.15379
H	-3.1297874583	-1.2374022639	-0.9303625181	 0.061267
H	-0.1899425332	-2.8764206959	-1.2661369625	 0.099443
H	 0.2680650977	-1.2658610026	-3.1974362952	 0.121511
H	-0.97100069	-0.1144606732	-2.5185233654	 0.110642
H	 1.7664368272	-0.8534347456	-1.1820102083	 0.101893
101.8489	161.2709	222.2416	234.5029	300.9678	399.901	445.1803	498.8265	508.205	558.7924	637.1106	681.3817	757.7259	790.0654	830.5321	879.2279	928.1617	978.7815	994.1278	1011.2742	1035.8396	1069.1134	1077.8405	1091.3175	1111.766	1131.7716	1173.8426	1207.5813	1265.9778	1314.7718	1337.2881	1368.4294	1417.0675	1434.8646	1486.8944	1492.3054	1783.2022	2859.3044	3113.4654	3114.0444	3170.4381	3179.0671	3203.0296	3215.065	3792.4252
OC12CC1(C=O)C1CC21	O[C@@]12C[C@]1(C=O)[C@H]1C[C@@H]21	
InChI=1S/C7H8O2/c8-3-6-2-7(6,9)5-1-4(5)6/h3-5,9H,1-2H2	InChI=1S/C7H8O2/c8-3-6-2-7(6,9)5-1-4(5)6/h3-5,9H,1-2H2/t4-,5+,6-,7+/m0/s1
