18
gdb 34588	4.36186	0.99466	0.88053	4.5295	84.96	-0.2576	-0.0387	0.2189	1315.605	0.148827	-364.834455	-364.826449	-364.825505	-364.867511	30.647	
N	 0.1362126244	-1.0508923194	-0.6225225083	-0.336594
C	 0.0476600778	 0.0713692123	-0.348213622	 0.201379
C	-0.0178243788	 1.4482010694	-0.0013658168	 0.201424
C	-1.1059101705	 2.2238309132	-0.1035915329	-0.148553
C	-0.8495129615	 3.623142913	 0.3816019085	-0.340588
C	 0.6730405366	 3.651833076	 0.5876690553	 0.36145
C	 1.4998106724	 4.7316022847	-0.0652902882	-0.302508
C	 1.3356085588	 4.7016443788	 1.4353192618	-0.315609
C	 1.168455842	 2.1981005724	 0.578466131	-0.39394
H	-2.0694360206	 1.8854148545	-0.4654444835	 0.121144
H	-1.1947409444	 4.3803999067	-0.332809447	 0.119233
H	-1.4019770176	 3.8076270703	 1.3150998411	 0.122557
H	 2.4645756654	 4.4563741005	-0.479377357	 0.116515
H	 0.9808884375	 5.506282171	-0.6210164567	 0.114105
H	 0.7070786107	 5.456715051	 1.8967953358	 0.113971
H	 2.1894675015	 4.4079863096	 2.0375056666	 0.115919
H	 1.3961354327	 1.8255718637	 1.5862670402	 0.124994
H	 2.0758108435	 2.0624629426	-0.0198518079	 0.125103
46.8178	145.0974	160.572	286.4745	326.4433	382.9816	391.3986	445.5862	568.6702	571.7484	594.2404	778.002	784.8417	843.7849	869.4068	881.5786	910.8399	942.8808	982.8245	1001.072	1008.2211	1041.6705	1059.4149	1085.27	1152.8912	1179.3528	1189.676	1202.5466	1260.1986	1277.7148	1296.0107	1326.6866	1380.4068	1467.4583	1477.7369	1490.0927	1504.3593	1678.6338	2337.2548	2997.5792	3017.2747	3044.5411	3064.3077	3121.3637	3125.607	3199.9511	3210.8671	3215.1287
N#CC1=CCC2(CC2)C1	N#CC1=CCC2(CC2)C1	
InChI=1S/C8H9N/c9-6-7-1-2-8(5-7)3-4-8/h1H,2-5H2	InChI=1S/C8H9N/c9-6-7-1-2-8(5-7)3-4-8/h1H,2-5H2
