23
gdb 94079	4.01266	0.87276	0.7645	2.9573	86.89	-0.2431	-0.0172	0.226	1538.2989	0.206473	-388.333664	-388.324354	-388.323409	-388.368009	35.422	
C	-0.0664687092	 1.5645377523	 0.0110337998	-0.40448
C	 0.0111547083	 0.0354031503	 0.0021182128	 0.054722
C	 0.701650597	-0.4914660021	-1.2660169333	-0.19497
C	 0.8013837403	-2.0229931816	-1.2841656889	-0.224221
C	 1.5142508145	-2.5632826906	-0.0260738502	-0.047731
C	 0.8255019396	-2.0365500118	 1.2510447012	-0.22423
C	 0.7255981305	-0.5049265701	 1.2511803464	-0.194968
C	 1.5016845001	-4.0750496701	-0.0340948131	 0.148357
O	 2.4750132425	-4.7837029958	-0.0474573771	-0.252092
H	 0.9360519564	 2.0087581569	 0.0038693198	 0.113433
H	-0.6021108085	 1.9410963595	-0.8669316258	 0.110777
H	-0.5852683666	 1.9316318347	 0.903009799	 0.110777
H	-1.0171069416	-0.3581822963	 0.0097964769	 0.067745
H	 0.1643271232	-0.1464857945	-2.1573350289	 0.093237
H	 1.7117102557	-0.0617307291	-1.3270964092	 0.09532
H	-0.2089461709	-2.4535503742	-1.3357155913	 0.096983
H	 1.329995466	-2.3579007089	-2.1835240502	 0.10616
H	 2.5645688213	-2.2491414388	-0.0344017612	 0.089067
H	-0.1837099829	-2.4677333088	 1.3171932601	 0.096983
H	 1.371079898	-2.3809990412	 2.13656217	 0.106152
H	 1.7366799148	-0.0757635344	 1.2976244132	 0.095319
H	 0.2053643555	-0.1695518279	 2.156197423	 0.093236
H	 0.4743599461	-4.5161434975	-0.0264568529	 0.064426
55.7949	81.9098	216.0086	216.5874	237.9795	263.298	321.8395	323.3748	377.3821	436.9985	466.458	531.5939	578.9407	775.8539	793.2919	863.7417	877.4424	927.5448	943.1958	966.9911	980.9046	1012.0648	1043.8248	1059.7744	1077.866	1106.1002	1121.112	1179.4152	1182.3447	1245.7003	1250.5634	1277.6297	1310.3734	1328.3586	1337.9644	1339.793	1369.6062	1381.288	1385.8494	1401.3525	1414.9636	1428.7941	1479.4007	1485.3634	1489.8357	1497.1927	1500.12	1500.6833	1833.8533	2828.9324	2982.2311	3003.7811	3008.7525	3008.8973	3013.2187	3025.0746	3045.5957	3055.4487	3058.839	3064.3624	3070.1746	3090.6168	3096.8781
CC1CCC(CC1)C=O	C[C@H]1CC[C@@H](CC1)C=O	
InChI=1S/C8H14O/c1-7-2-4-8(6-9)5-3-7/h6-8H,2-5H2,1H3	InChI=1S/C8H14O/c1-7-2-4-8(6-9)5-3-7/h6-8H,2-5H2,1H3/t7-,8-
