17
gdb 65170	2.5333	1.34557	1.21294	4.8592	72.96	-0.2546	0.0022	0.2567	1109.0859	0.134997	-417.965521	-417.956833	-417.955889	-417.999169	31.892	
C	 0.0486237367	 1.4260697375	-0.8627036969	-0.477307
C	-0.0157258673	 0.1104680328	-0.1150699138	 0.265193
C	 1.088597948	-0.8795747039	-0.2542415081	-0.272465
N	 0.8936983613	-0.1428853334	 1.004011704	-0.322077
C	-1.413679161	-0.406598558	 0.0847691883	 0.031492
O	-1.6015595431	-1.5141625705	 0.9510941457	-0.2227
C	-2.1678486859	-0.2665770097	 1.3525009419	-0.114057
C	-1.6244308326	 0.3955660582	 2.5197132908	 0.325031
N	-1.2957527278	 0.9731420181	 3.4652662978	-0.335277
H	 1.0875080822	 1.7134591575	-1.0494230869	 0.124607
H	-0.4588953418	 1.3613358768	-1.8317641465	 0.128289
H	-0.428162323	 2.2278453366	-0.2877419348	 0.138244
H	 0.8730764343	-1.9418697766	-0.1876422282	 0.13449
H	 1.9235261227	-0.6155817658	-0.8982353397	 0.114939
H	 1.5621583107	 0.6177858731	 1.0926040449	 0.237886
H	-2.0173825844	-0.4417965594	-0.8250263814	 0.105045
H	-3.255465779	-0.2272416233	 1.3081599929	 0.138668
58.2765	111.5828	177.8868	209.3715	255.4925	265.1877	327.0807	369.4561	450.3262	512.1256	575.1157	608.2188	728.5518	823.1826	844.9539	881.9744	930.8351	960.5458	972.9155	981.7167	1012.9178	1059.6038	1101.3015	1120.0623	1149.209	1157.8253	1257.0867	1277.7829	1301.7979	1378.7237	1388.777	1419.2252	1459.8095	1487.1675	1502.4258	1511.6243	2360.6121	3029.2611	3087.1506	3092.4736	3109.595	3111.1454	3124.5927	3200.6559	3511.3534
CC1(CN1)C1OC1C#N	C[C@]1(CN1)[C@H]1O[C@H]1C#N	
InChI=1S/C6H8N2O/c1-6(3-8-6)5-4(2-7)9-5/h4-5,8H,3H2,1H3	InChI=1S/C6H8N2O/c1-6(3-8-6)5-4(2-7)9-5/h4-5,8H,3H2,1H3/t4-,5-,6-/m0/s1
