18
gdb 50494	4.32753	0.84368	0.74545	2.8426	77.7	-0.2627	-0.0347	0.2281	1461.2236	0.148452	-401.990492	-401.981853	-401.980909	-402.025243	31.084	
O	-0.1081747299	-0.078762261	-0.129873169	-0.242007
C	 0.0591920263	 1.0980966475	 0.0476799882	 0.152243
C	 1.3915638342	 1.8113393021	 0.0033413499	-0.051234
C	 1.4567609324	 2.8256392159	-1.1668821476	-0.243038
C	 2.4741259685	 3.8703504429	-0.695049333	-0.217373
C	 2.0854088755	 4.0746161777	 0.7888059551	-0.130073
C	 1.6480859776	 2.6586679112	 1.2852458222	-0.259619
C	 3.1403643046	 4.6729690001	 1.599635632	 0.260812
N	 3.9833093391	 5.1380436277	 2.2395122761	-0.320909
H	-0.8027749731	 1.7786422398	 0.2576328331	 0.07036
H	 2.1689192274	 1.0530231734	-0.1172686652	 0.103982
H	 1.7287220817	 2.3495458377	-2.1113068139	 0.12444
H	 0.4762620165	 3.2999213163	-1.3083694134	 0.109025
H	 3.491507497	 3.4707892762	-0.7598418198	 0.128513
H	 2.4434305918	 4.8019538516	-1.2647103631	 0.122495
H	 1.2210799294	 4.7474589649	 0.8291707775	 0.127986
H	 0.7543850779	 2.7374291422	 1.9120742758	 0.122615
H	 2.4250968232	 2.1988511435	 1.8980094948	 0.141781
30.4292	68.7842	154.6289	164.035	270.7554	323.5016	345.1328	398.9934	517.1849	541.4213	562.1444	641.1503	800.1763	851.5799	881.4704	931.4144	944.304	989.2174	1007.4631	1037.2111	1057.8949	1083.1828	1103.1647	1181.4338	1197.4127	1242.0687	1290.7868	1297.8056	1312.8691	1320.6862	1329.932	1354.6258	1372.5549	1426.6837	1491.0286	1491.4281	1504.2498	1840.2059	2357.7616	2830.108	3022.842	3041.4193	3059.319	3062.7367	3082.2273	3110.2384	3115.3733	3121.9775
O=CC1CCC(C1)C#N	O=C[C@H]1CC[C@@H](C1)C#N	
InChI=1S/C7H9NO/c8-4-6-1-2-7(3-6)5-9/h5-7H,1-3H2	InChI=1S/C7H9NO/c8-4-6-1-2-7(3-6)5-9/h5-7H,1-3H2/t6-,7-/m0/s1
