13
gdb 20704	3.3937	2.39892	1.41759	0.9658	63.21	-0.2477	-0.0756	0.172	811.9164	0.097287	-394.820159	-394.813471	-394.812527	-394.85112	24.454	
C	-0.0319706004	 1.4968581901	-0.0086524225	-0.466189
C	-0.0093449085	 0.004475048	-0.0363388244	 0.231846
N	-0.0425946763	-0.6471797215	-1.1599903295	-0.287672
C	-0.0187670971	-2.0176169921	-1.1082666977	 0.072239
N	 0.0344170505	-2.7528831435	-0.0384574004	-0.178431
N	 0.0683063454	-2.0662129968	 1.1166337577	-0.256459
C	 0.0524726107	-0.6888848919	 1.2704128436	 0.383446
O	 0.0861640707	-0.1506504258	 2.3618697142	-0.373541
H	 0.8574636995	 1.8764746765	 0.5062280801	 0.156242
H	-0.0788577832	 1.892784783	-1.0229198274	 0.142353
H	-0.8888128347	 1.8487543578	 0.5763630968	 0.15626
H	-0.0470388743	-2.5455696641	-2.0536922505	 0.139446
H	 0.1098455577	-2.6278985596	 1.9579612399	 0.28046
127.5944	136.7011	261.1809	286.0615	428.0831	486.9868	543.3496	586.9805	592.7435	727.331	743.6563	789.7514	910.1051	931.5176	983.5173	1046.4375	1145.2907	1182.5517	1231.2116	1318.5924	1395.4321	1404.789	1435.5925	1457.4634	1463.1648	1565.8324	1638.8932	1783.735	3043.1621	3095.3622	3160.9021	3215.838	3584.2097
CC1=NC=NNC1=O	Cc1ncn[nH]c1=O	
InChI=1S/C4H5N3O/c1-3-4(8)7-6-2-5-3/h2H,1H3,(H,7,8)	InChI=1S/C4H5N3O/c1-3-4(8)7-6-2-5-3/h2H,1H3,(H,7,8)
