18
gdb 115198	3.16536	1.10994	0.98608	2.7129	74.49	-0.2437	-0.0401	0.2036	1232.3236	0.149565	-439.123771	-439.115299	-439.114355	-439.157189	31.746	
O	 0.0041265414	 1.519654493	-0.1130101863	-0.421237
C	 0.0206061983	 0.1071832759	-0.2118802508	-0.071869
C	-1.3754305383	-0.5269850231	-0.006851519	-0.052234
C	-1.3211207567	-2.0585951898	-0.0930682428	-0.196612
N	-0.7931013086	-2.625635699	 1.1428545438	-0.327264
C	-1.2175038026	-2.2115054266	 2.3840647446	 0.3845
O	-1.012978671	-2.8579110458	 3.3968867495	-0.376473
C	-1.8969670221	-0.8883473427	 2.3990908707	-0.137907
C	-1.9694333551	-0.1101236584	 1.3160895213	-0.104598
H	-0.0551789732	 1.7496608143	 0.8193637845	 0.288456
H	 0.3687493862	-0.1222484177	-1.2250765812	 0.111405
H	 0.7303445084	-0.3426327178	 0.4960687748	 0.109218
H	-2.0176242945	-0.1590252845	-0.8151895361	 0.094295
H	-2.3291717245	-2.4449702719	-0.3072601394	 0.111036
H	-0.6726591194	-2.3684371497	-0.9195961582	 0.113013
H	-0.44747048	-3.5742391727	 1.1257977176	 0.247195
H	-2.2929795272	-0.5929143369	 3.3639733583	 0.11628
H	-2.4336193413	 0.8709885935	 1.3733197285	 0.112796
67.1013	117.4521	172.2095	209.8119	280.5182	315.6792	364.526	435.4326	473.1147	529.6122	571.9756	606.2136	716.9826	774.0171	824.0071	847.1207	872.9295	949.3554	985.4716	1022.4023	1046.2748	1078.9031	1110.212	1141.4441	1157.5304	1193.2791	1270.1538	1294.0342	1322.1585	1351.1165	1382.8514	1398.1824	1409.7925	1420.0831	1469.7584	1504.2157	1514.6219	1686.6748	1785.0037	2983.7162	3010.2201	3044.8532	3063.4311	3074.8296	3161.3162	3206.5112	3610.5034	3823.9723
OCC1CNC(=O)C=C1	OC[C@H]1CNC(=O)C=C1	
InChI=1S/C6H9NO2/c8-4-5-1-2-6(9)7-3-5/h1-2,5,8H,3-4H2,(H,7,9)	InChI=1S/C6H9NO2/c8-4-5-1-2-6(9)7-3-5/h1-2,5,8H,3-4H2,(H,7,9)/t5-/m1/s1
