15
gdb 124431	3.41253	1.26086	1.0041	2.7982	70.3	-0.2795	-0.0093	0.2702	1139.0622	0.114489	-413.020779	-413.012817	-413.011873	-413.054295	28.13	
C	-0.061878344	 1.5591231228	-0.091010827	-0.388849
C	-0.0440184504	 0.0354672362	 0.1210455966	-0.08975
C	 0.6604968865	-0.3265530507	 1.3572977739	 0.278326
N	 1.2278671246	-0.5824995339	 2.3297564926	-0.306442
N	-1.3921915076	-0.524833949	 0.1350472647	 0.027877
C	-2.1720736511	-0.9586405728	 1.1512015758	 0.029683
N	-3.353418159	-1.3249222293	 0.6922799802	-0.278782
C	-3.2431137093	-1.0848815461	-0.6424328683	 0.041301
N	-2.0764197142	-0.5989963483	-1.0338716264	-0.248016
H	 0.9597454931	 1.9380406017	-0.1692654613	 0.147681
H	-0.6003371814	 1.7745884576	-1.0153833067	 0.163064
H	-0.5623917692	 2.0566625095	 0.7427592427	 0.148523
H	 0.4789447492	-0.4389009578	-0.7161988624	 0.166417
H	-1.8349085928	-0.9973935264	 2.1755665506	 0.172041
H	-4.0392878244	-1.2771499934	-1.345963355	 0.136924
40.9212	121.931	150.0222	211.3469	237.272	349.028	384.0193	492.3519	561.3188	663.4311	694.436	721.0611	866.4212	868.793	914.2812	973.4934	996.6316	1043.7029	1092.3172	1120.573	1169.8399	1227.5372	1233.8513	1317.312	1332.9371	1356.5799	1390.2879	1406.3573	1463.6034	1487.2017	1495.9657	1544.7771	2370.2935	3059.3544	3065.913	3142.8324	3154.2785	3262.7235	3269.9676
CC(C#N)N1C=NC=N1	C[C@@H](C#N)n1cncn1	
InChI=1S/C5H6N4/c1-5(2-6)9-4-7-3-8-9/h3-5H,1H3	InChI=1S/C5H6N4/c1-5(2-6)9-4-7-3-8-9/h3-5H,1H3/t5-/m0/s1
