19
gdb 112269	2.68379	1.11952	0.86306	3.791	71.74	-0.2754	0.0025	0.2779	1364.2432	0.158532	-460.191663	-460.182269	-460.181325	-460.226397	33.739	
C	 0.3171017787	 1.6144038678	-0.0145008913	-0.389393
C	 0.0787880566	 0.10165324	 0.0360207484	-0.194023
C	 0.422512366	-0.579268158	-1.2741983828	 0.113555
O	 1.8764826331	-0.502441743	-1.5633200892	-0.25579
C	 1.9834859412	-1.8619308022	-1.6018811842	 0.465102
O	 2.9696399823	-2.5244325721	-1.7222033414	-0.34428
C	 0.5023933193	-2.1244928413	-1.3645903205	-0.244063
C	 0.2386717286	-3.0510333576	-0.1728648193	-0.082806
O	 0.7066539375	-4.3509095414	-0.4667414402	-0.419055
H	 1.3640374498	 1.8320935867	-0.2431447655	 0.143471
H	-0.3016705419	 2.0873349307	-0.784710785	 0.119598
H	 0.0730597325	 2.0799776346	 0.9442405793	 0.121409
H	 0.6706951697	-0.341831213	 0.8438341258	 0.113819
H	-0.9747493008	-0.109743262	 0.26011924	 0.110987
H	-0.1195608568	-0.1217625761	-2.10731013	 0.100316
H	 0.0113513588	-2.5365695369	-2.2498491019	 0.123311
H	 0.7059936991	-2.6494097173	 0.7384481094	 0.098741
H	-0.8355526087	-3.137558176	 0.0186478213	 0.117749
H	 1.6393478149	-4.2744822229	-0.7076446528	 0.301353
86.1023	100.5619	114.8698	130.4436	183.1832	226.5426	284.1642	350.6991	432.0634	461.2045	468.0701	556.4616	713.7907	739.5887	815.4308	835.1665	856.1293	894.0176	982.4492	1033.8634	1052.2094	1074.6172	1091.558	1135.9249	1154.7583	1168.4948	1189.1082	1242.5484	1281.62	1309.7081	1325.7402	1355.2972	1390.1534	1412.1161	1416.9606	1440.6418	1474.6073	1498.7611	1507.9669	1515.5771	1907.7771	2993.7253	3031.8495	3040.7841	3061.0876	3074.4511	3079.5793	3093.4354	3111.0088	3123.8729	3766.5717
CCC1OC(=O)C1CO	CC[C@H]1OC(=O)[C@H]1CO	
InChI=1S/C6H10O3/c1-2-5-4(3-7)6(8)9-5/h4-5,7H,2-3H2,1H3	InChI=1S/C6H10O3/c1-2-5-4(3-7)6(8)9-5/h4-5,7H,2-3H2,1H3/t4-,5+/m0/s1
