16
gdb 106872	2.58399	1.32999	1.01639	3.1567	70.84	-0.28	-0.0081	0.2719	1165.4478	0.123285	-437.854333	-437.845833	-437.844889	-437.887941	31.084	
O	 0.077652351	 1.3642522121	-0.3721074945	-0.406616
C	 0.0890358672	 0.0403013649	 0.1324784634	-0.175876
C	-1.301654234	-0.4953634585	 0.281167445	 0.30029
C	-2.3895929078	-0.1618466312	 1.3147616391	-0.281294
C	-2.9720731386	-1.6043287935	 1.1184061552	-0.300069
C	-1.8641297909	-1.8588036007	 0.0820103411	 0.241008
O	-1.9872586286	-0.8522748348	-0.9311762633	-0.307828
C	-1.2315341262	-3.0942703	-0.2630658847	 0.213912
N	-0.730943443	-4.1084581277	-0.5053044589	-0.338592
H	-0.2994680693	 1.3300018663	-1.2584311452	 0.297895
H	 0.6690034588	-0.6429564662	-0.5042090691	 0.116901
H	 0.575830193	 0.0886815909	 1.1115021127	 0.124786
H	-1.9905915528	-0.0038664629	 2.3185769083	 0.123144
H	-3.0354804227	 0.672847163	 1.0393142416	 0.129016
H	-2.8712135904	-2.2274939564	 2.008320927	 0.132902
H	-3.9839895458	-1.6856679153	 0.7186504923	 0.130421
66.561	101.059	160.7037	187.7327	279.6594	299.8911	396.5004	406.814	464.9259	550.6289	569.3857	622.2768	729.7749	748.5492	777.6924	896.9072	915.4066	937.2923	1004.3466	1044.9554	1077.2197	1128.7994	1165.7832	1180.5641	1214.1841	1226.8443	1256.9978	1301.8051	1372.6959	1417.1829	1452.8445	1464.6722	1487.089	1494.2759	2354.8342	3009.2574	3080.8282	3086.4003	3088.6968	3136.3091	3151.5007	3805.9689
OCC12CCC1(O2)C#N	OC[C@]12CC[C@]1(O2)C#N	
InChI=1S/C6H7NO2/c7-3-5-1-2-6(5,4-8)9-5/h8H,1-2,4H2	InChI=1S/C6H7NO2/c7-3-5-1-2-6(5,4-8)9-5/h8H,1-2,4H2/t5-,6+/m0/s1
