13
gdb 8967	5.89626	0.91523	0.79997	3.8667	66.02	-0.2861	-0.0761	0.21	1299.8074	0.09295	-361.457648	-361.449215	-361.448271	-361.491615	28.594	
O	-0.0477865514	-0.0964017599	 0.0014189608	-0.286841
C	-0.0358942676	 1.1152733342	 0.0053243251	 0.229206
C	 1.2518367565	 1.9239583965	-0.0021952447	-0.305898
C	 2.4892092096	 1.0131548594	-0.0158662713	-0.345603
C	 3.7304453163	 1.7819924911	-0.0227396873	 0.252048
N	 4.7041493748	 2.4039847741	-0.0283005216	-0.300185
C	-1.2559025226	 1.8998738496	 0.0178009024	 0.243354
C	-2.2532125341	 2.5734118386	 0.0282692866	-0.367553
H	 1.2407591464	 2.590868536	-0.8724848981	 0.158283
H	 1.2550916477	 2.5840009337	 0.8733992349	 0.158309
H	 2.4778033155	 0.3518521742	 0.8558487733	 0.17114
H	 2.4637355642	 0.3589317105	-0.8926168783	 0.17112
H	-3.1450314455	 3.1527042921	 0.0388885984	 0.222619
57.8445	79.1899	95.0382	187.5534	242.9592	250.4263	391.8152	448.8905	531.094	567.6425	617.5437	655.346	713.2071	785.0309	831.1103	959.2923	1026.9081	1034.6074	1114.668	1176.6127	1296.343	1299.9737	1384.5831	1448.9409	1463.0363	1769.0891	2214.8402	2365.3331	3045.6292	3068.6112	3078.0194	3108.0047	3491.088
O=C(CCC#N)C#C	O=C(CCC#N)C#C	
InChI=1S/C6H5NO/c1-2-6(8)4-3-5-7/h1H,3-4H2	InChI=1S/C6H5NO/c1-2-6(8)4-3-5-7/h1H,3-4H2
