19
gdb 104515	2.67251	1.17116	0.94612	1.8247	75.77	-0.2393	0.0269	0.2662	1267.5778	0.158381	-419.191735	-419.182116	-419.181171	-419.226471	35.364	
C	-1.635411363	-0.7980338712	-0.6009902706	-0.341692
N	-0.2619856975	-0.5862018659	-0.1395870422	-0.344745
C	 0.7619256526	-0.7177083253	-1.1417584932	 0.274573
C	 0.6372399172	 0.0981493712	-2.4323177017	-0.424607
C	 0.6475868726	 1.5372021918	-2.1628752147	 0.263219
N	 0.6427531078	 2.6628406132	-1.9002819606	-0.30926
C	 2.1551684798	-0.9799407069	-0.5961127787	-0.372139
C	 1.3598557632	-2.1091403285	-1.2061991079	 0.117869
O	 0.8148698258	-3.1081477244	-0.4117372077	-0.430912
H	-1.9869147326	-0.0636333924	-1.3417233104	 0.115626
H	-1.7132816294	-1.7966817572	-1.0411636457	 0.140751
H	-2.3095083666	-0.7536584066	 0.2585780414	 0.130289
H	-0.1770035005	 0.2983248038	 0.3501741135	 0.240308
H	 1.4631560805	-0.1420831991	-3.1097619108	 0.151397
H	-0.2876489314	-0.1496678185	-2.9653961987	 0.153161
H	 3.0032947171	-0.5756274638	-1.1385282688	 0.119642
H	 2.2614614866	-0.9816901957	 0.4831036862	 0.123769
H	 1.6719586153	-2.4990760509	-2.1700797099	 0.105386
H	 0.3141916525	-2.6403075635	 0.2746637105	 0.287365
53.5654	107.3317	110.0213	190.8908	228.3808	269.4179	290.4128	325.1256	395.1425	430.514	444.3665	497.089	536.8182	658.4661	716.9535	781.8328	829.4618	887.6589	910.6292	935.9659	971.5764	1016.3325	1039.3744	1093.5009	1096.1059	1148.1278	1158.3955	1171.3698	1212.7428	1255.1516	1310.263	1335.4325	1357.3848	1437.4441	1454.9743	1459.1148	1467.5763	1493.0438	1499.6658	1522.8298	2357.105	2986.9949	3047.3457	3077.7307	3086.8341	3119.1523	3133.0486	3162.0346	3225.2181	3524.5348	3700.6011
CNC1(CC#N)CC1O	CN[C@@]1(CC#N)C[C@H]1O	
InChI=1S/C6H10N2O/c1-8-6(2-3-7)4-5(6)9/h5,8-9H,2,4H2,1H3	InChI=1S/C6H10N2O/c1-8-6(2-3-7)4-5(6)9/h5,8-9H,2,4H2,1H3/t5-,6+/m1/s1
