17
gdb 11375	5.08108	1.29999	1.1243	3.3932	65.38	-0.2536	0.0221	0.2757	1072.6959	0.142227	-401.021639	-401.013411	-401.012466	-401.054941	29.24	
C	-0.2660743941	 1.4960619044	-0.0280062063	-0.397851
C	 0.1300349166	 0.0301161786	 0.0131657557	 0.101665
C	 1.0649858187	-0.4346878136	-1.1406069585	-0.199683
N	 2.3059407664	-0.8540144062	-0.4772184669	-0.337712
C	 2.1173645581	-0.6963959766	 0.7691129968	 0.387631
C	 3.1516879753	-1.0127027355	 1.807186714	-0.127254
O	 4.3329711361	-1.493665884	 1.2235866858	-0.421721
O	 0.931911885	-0.2214329695	 1.2073063996	-0.262119
H	 0.6211516232	 2.1331268254	-0.0998302776	 0.130375
H	-0.898150073	 1.6871825464	-0.9014237395	 0.125208
H	-0.8246671425	 1.7769104028	 0.8688722208	 0.13278
H	-0.7586077995	-0.6027023398	 0.0995376472	 0.097255
H	 0.6433145858	-1.2680967808	-1.7118389393	 0.119348
H	 1.2711175079	 0.3756667357	-1.8495994238	 0.115719
H	 3.3438957891	-0.1018080198	 2.3952678934	 0.119376
H	 2.7271240632	-1.7496064391	 2.5068153336	 0.119786
H	 4.1723021335	-1.5037887385	 0.2684868651	 0.297196
46.662	95.6467	190.7634	202.8345	241.6454	303.5092	339.086	408.7731	484.4264	599.067	697.5381	731.9392	835.7504	905.3768	938.0301	973.5199	1042.0371	1050.0428	1068.7177	1114.9009	1121.8523	1142.1834	1228.7822	1242.4199	1244.8777	1317.258	1338.426	1357.5891	1392.7248	1411.1549	1484.4777	1484.5993	1495.2396	1505.5984	1507.5809	1738.102	2987.5157	3003.8529	3034.8833	3039.7378	3053.9018	3075.1362	3112.3767	3122.4455	3717.2391
CC1CN=C(CO)O1	C[C@H]1CN=C(CO)O1	
InChI=1S/C5H9NO2/c1-4-2-6-5(3-7)8-4/h4,7H,2-3H2,1H3	InChI=1S/C5H9NO2/c1-4-2-6-5(3-7)8-4/h4,7H,2-3H2,1H3/t4-/m0/s1
