13
gdb 42646	3.31212	1.45447	1.25946	4.7228	68.36	-0.2744	-0.0334	0.241	968.9916	0.090133	-415.562883	-415.556157	-415.555213	-415.594312	25.503	
O	 0.0325602155	 0.0518126327	 0.2518682566	-0.289497
C	-0.0177413046	 1.2255680811	 0.1023666545	 0.44658
C	-1.0670575434	 2.2852143118	-0.0300276316	-0.264196
C	-0.4076177179	 3.5265667562	 0.6128571242	-0.137181
C	 0.9520013649	 3.0528184858	 1.1237468748	-0.195465
N	 1.087259165	 2.207751223	-0.1409181071	-0.242364
C	-0.0026981145	 3.1074185112	-0.7630161551	 0.306039
C	-0.0006516884	 3.6937939645	-2.0491923177	 0.15312
N	-0.0031459787	 4.1895185721	-3.0947646118	-0.340332
H	-2.1284694059	 2.2264139064	-0.2279234036	 0.147297
H	-1.0089339516	 4.3822536762	 0.8945588923	 0.136297
H	 1.7043247687	 3.8429144481	 1.123406962	 0.143236
H	 1.0026249209	 2.472410961	 2.0496145926	 0.136466
95.2527	165.8766	216.1641	390.5828	463.4727	513.4881	538.3723	568.8564	642.6843	733.6374	777.5898	813.9236	852.465	901.3586	932.7144	954.7294	988.4326	995.9529	1052.915	1094.5445	1109.4564	1162.8687	1175.7651	1276.8478	1290.9885	1417.5629	1511.4181	1946.2155	2354.1918	3064.676	3135.3087	3199.9886	3225.6706
O=C1C2C3CN1C23C#N	O=C1[C@H]2[C@H]3CN1[C@@]23C#N	
InChI=1S/C6H4N2O/c7-2-6-3-1-8(6)5(9)4(3)6/h3-4H,1H2	InChI=1S/C6H4N2O/c7-2-6-3-1-8(6)5(9)4(3)6/h3-4H,1H2/t3-,4-,6-/m1/s1
