16
gdb 70778	3.71746	1.38524	1.15852	4.9851	74.61	-0.2563	-0.0054	0.2509	1055.1323	0.123305	-400.675299	-400.667675	-400.666731	-400.707228	29.422	
C	 0.0632014482	 1.4047266233	-0.1576793281	-0.52855
C	 0.0002118373	-0.0771070944	-0.0021912406	 0.429888
O	 0.5332344003	-0.9281912392	-1.0774051313	-0.372772
C	 0.0537562056	-1.8655376992	-0.0796127456	 0.406446
C	 0.1725098664	-3.2823080173	-0.2971266982	 0.164383
N	 0.2531663946	-4.4264644876	-0.4415959405	-0.343992
C	 0.5163899643	-1.011944805	 1.1493600865	-0.168056
C	-0.8762544181	-1.0839872915	 1.8090373605	-0.284678
C	-1.2121751469	-1.0271172634	 0.304464119	-0.168062
H	 1.1010680349	 1.7337909204	-0.2637819447	 0.145342
H	-0.4937149239	 1.7194861009	-1.0450818592	 0.145366
H	-0.3703447691	 1.8970783594	 0.7182407741	 0.136317
H	 1.5134377465	-1.02214304	 1.5881793528	 0.102463
H	-1.1221799395	-2.012491129	 2.32883779	 0.12245
H	-1.1753244566	-0.2189049538	 2.405369538	 0.110989
H	-2.1706708639	-1.0544967738	-0.2125527426	 0.102464
135.2633	139.6724	195.8365	244.9762	300.88	407.2816	501.533	523.7317	559.6468	565.7808	645.8808	728.8335	763.6886	794.8933	859.4627	903.4839	925.7698	970.8109	1031.6344	1040.7564	1064.952	1110.4606	1116.407	1142.121	1164.4316	1169.5392	1232.0741	1235.0918	1258.7495	1389.6252	1431.9042	1472.545	1489.8073	1513.3583	2355.4716	3042.4444	3066.901	3117.6529	3118.633	3125.7701	3132.0319	3134.8068
CC12OC3(C#N)C1CC23	C[C@@]12O[C@@]3(C#N)[C@@H]1C[C@@H]23	
InChI=1S/C7H7NO/c1-6-4-2-5(6)7(4,3-8)9-6/h4-5H,2H2,1H3	InChI=1S/C7H7NO/c1-6-4-2-5(6)7(4,3-8)9-6/h4-5H,2H2,1H3/t4-,5+,6-,7+
