12
gdb 21332	6.53595	1.32976	1.11249	2.256	59.08	-0.2732	-0.0176	0.2556	961.1075	0.085913	-373.715897	-373.709224	-373.70828	-373.747982	23.291	
N	-0.5351451245	-0.4688504339	-1.2606729543	-0.309212
C	-0.2098880315	 0.2573060933	-0.4233636218	 0.271637
C	 0.2247067742	 1.1847034257	 0.6191171615	-0.445633
C	 1.463675366	 1.941569034	 0.2320474743	 0.310656
C	 2.2207065101	 1.8918905156	-0.9133661195	-0.140274
N	 3.2024514893	 2.7939914984	-0.6823172784	-0.157716
N	 3.0731191719	 3.3720128634	 0.5243369541	-0.105055
N	 2.0170669677	 2.854645863	 1.0804126411	-0.247842
H	-0.5919472931	 1.8833435282	 0.8358369033	 0.179199
H	 0.399507573	 0.6227017092	 1.5441053606	 0.179188
H	 2.1408351389	 1.3181007999	-1.8207258577	 0.17526
H	 3.969728048	 3.0620380734	-1.2782703331	 0.28979
32.2323	119.6856	257.8379	331.9523	377.8913	489.5812	589.1841	669.1476	729.0541	741.2353	805.0849	951.3153	958.0527	993.4953	1034.8935	1058.4187	1132.9025	1218.0976	1244.7102	1283.6289	1341.6875	1370.6564	1459.2721	1490.846	1595.5274	2369.2869	3043.0081	3073.6076	3292.0838	3656.9942
N#CCC1=CNN=N1	N#CCc1c[nH]nn1	
InChI=1S/C4H4N4/c5-2-1-4-3-6-8-7-4/h3H,1H2,(H,6,7,8)	InChI=1S/C4H4N4/c5-2-1-4-3-6-8-7-4/h3H,1H2,(H,6,7,8)
