20
gdb 75908	2.63869	1.42787	1.14296	2.2018	78.37	-0.2387	-0.0198	0.2189	1139.4225	0.171426	-403.159645	-403.151052	-403.150107	-403.193052	33.025	
C	 0.1101932886	 1.6960550622	-0.0909545074	-0.393431
C	 0.0429639561	 0.1668902318	 0.0713450922	-0.188352
C	 0.7185779996	-0.5091795945	-1.1410606512	 0.404841
O	 0.3423331161	-0.4083168591	-2.2799942947	-0.320788
C	 1.9454473424	-1.2870213069	-0.6578168182	-0.32229
C	 2.2154896219	-0.7478122881	 0.7561669396	-0.280215
C	 0.822589209	-0.3796982496	 1.2639999295	 0.343409
C	 0.5368155151	-0.0112913275	 2.6657859101	-0.30426
N	 0.2081647769	-1.3668783916	 2.1743536424	-0.360537
H	 1.1455697482	 2.0522547358	-0.0942049484	 0.121704
H	-0.3510579022	 1.9887150353	-1.0378487144	 0.140219
H	-0.4142175361	 2.1983888374	 0.7266368455	 0.118392
H	-1.0106629243	-0.1354452591	 0.0977391268	 0.094291
H	 1.6601953996	-2.3464287456	-0.616109867	 0.140744
H	 2.7717070955	-1.1999711278	-1.3663671283	 0.126882
H	 2.6940880226	-1.4719323417	 1.4174988818	 0.118564
H	 2.8516722014	 0.1442334987	 0.7099203007	 0.106343
H	 1.3427808886	 0.0270209058	 3.3944231812	 0.116972
H	-0.2777465683	 0.6815409472	 2.8625949072	 0.111132
H	-0.7930306408	-1.4266311027	 2.0000726828	 0.226381
51.193	133.3153	210.9099	222.2165	242.9552	285.7643	363.4575	455.024	476.5386	510.0362	545.2584	642.0711	724.1924	768.798	822.462	853.4329	902.8358	923.2025	969.541	985.0608	991.9748	998.5245	1059.8524	1080.9092	1099.8161	1135.5178	1148.6819	1176.1082	1217.4927	1238.1715	1270.7802	1291.593	1305.9245	1311.8908	1332.3476	1400.6514	1415.7694	1448.1131	1487.388	1496.431	1498.6262	1516.931	1844.7215	3034.3627	3037.9619	3039.7001	3042.3175	3101.5204	3110.0149	3113.2109	3119.6759	3124.0354	3183.8076	3484.1323
CC1C(=O)CCC11CN1	C[C@H]1C(=O)CC[C@]21CN2	
InChI=1S/C7H11NO/c1-5-6(9)2-3-7(5)4-8-7/h5,8H,2-4H2,1H3	InChI=1S/C7H11NO/c1-5-6(9)2-3-7(5)4-8-7/h5,8H,2-4H2,1H3/t5-,7+/m0/s1
