23
gdb 121998	2.26609	0.75589	0.63532	1.2519	79.25	-0.2555	0.0748	0.3303	1837.6936	0.20312	-462.548271	-462.536849	-462.535905	-462.586447	40.136	
C	 0.016660883	 1.5237711038	 0.0917716353	-0.401839
C	-0.0091744667	-0.0054492203	 0.0391354766	 0.135815
C	 0.7543946703	-0.5525337141	-1.1667120564	-0.20434
C	 0.633265168	-2.0694302439	-1.3287395976	-0.067049
O	 1.3101963598	-2.5505622624	-2.480524804	-0.418949
O	 0.5905623256	-0.5818890184	 1.2010904814	-0.276137
C	-0.2145649247	-0.60305665	 2.3672286137	-0.078436
C	 0.6528265384	-1.1788951832	 3.4762862635	-0.057291
O	 1.8041481403	-0.3867990159	 3.690348754	-0.421579
H	 1.0489512532	 1.8846039918	 0.1426173546	 0.122235
H	-0.4526963841	 1.94383332	-0.8032124162	 0.119568
H	-0.5232190303	 1.9087717288	 0.961238847	 0.121351
H	-1.0569844477	-0.3462703293	-0.0171364184	 0.069225
H	 0.3897806032	-0.0670168554	-2.0785078103	 0.105757
H	 1.8131016504	-0.2785415451	-1.0577082802	 0.091305
H	 0.9813492334	-2.5685875157	-0.4145436414	 0.101748
H	-0.4182678742	-2.3450971866	-1.4703127833	 0.105763
H	 2.2531143871	-2.4150940032	-2.3437393135	 0.280445
H	-0.5379872821	 0.4106135676	 2.6445380344	 0.098774
H	-1.1126266025	-1.2224613652	 2.2106661498	 0.08824
H	 0.0901767599	-1.1977515606	 4.4154331588	 0.107473
H	 0.9194837384	-2.2168309861	 3.2196580183	 0.091416
H	 2.1801516915	-0.2387560267	 2.8145210839	 0.286505
27.7016	72.1506	81.1636	97.2974	142.2981	191.4724	215.1126	244.6912	299.3845	308.8242	343.0915	381.3776	445.6696	464.6364	522.7284	551.1035	772.3846	830.9225	902.1007	911.4538	948.4184	975.8872	1016.3794	1079.068	1080.359	1106.8991	1116.2191	1125.7492	1139.0064	1156.8043	1208.4363	1244.0802	1264.915	1292.9682	1317.4884	1364.0289	1372.4412	1384.9898	1404.1487	1407.3861	1420.1248	1423.9869	1442.3855	1474.101	1490.863	1494.5943	1500.2749	1511.7459	1518.0575	2959.2921	2973.3042	2979.0611	3014.1286	3018.3147	3023.6889	3040.8087	3060.1012	3079.0989	3083.9065	3113.2165	3115.5372	3794.1685	3817.4455
CC(CCO)OCCO	C[C@@H](CCO)OCCO	
InChI=1S/C6H14O3/c1-6(2-3-7)9-5-4-8/h6-8H,2-5H2,1H3	InChI=1S/C6H14O3/c1-6(2-3-7)9-5-4-8/h6-8H,2-5H2,1H3/t6-/m0/s1
