17
gdb 56428	2.97736	1.07868	0.92491	2.5612	77.01	-0.249	-0.0588	0.1902	1299.2789	0.133377	-417.999193	-417.989163	-417.988218	-418.034524	36.279	
C	 0.0584673284	 1.5405161176	-0.0217442948	-0.398625
C	-0.0128793501	-0.010844313	-0.0529021791	-0.285285
C	-1.3888595701	-0.4876100724	-0.0142217649	 0.343258
C	-2.5289493618	-0.8619535082	 0.0389846655	-0.447937
C	 0.721553803	-0.5015665511	-1.3016374541	 0.382487
O	 0.1742509288	-0.7538736631	-2.3496850926	-0.316999
C	 2.2392119963	-0.6415697162	-1.1957411181	 0.27347
N	 2.8099481808	-0.9160927279	-2.4018568863	-0.536261
N	 2.7876978407	-0.4777000782	-0.0493044017	-0.51057
H	 1.1007675919	 1.8654343462	 0.0053773079	 0.139827
H	-0.4344434098	 1.9644457193	-0.9004107501	 0.136348
H	-0.4492149911	 1.9092018783	 0.8722025414	 0.135711
H	 0.5440894168	-0.3804062276	 0.813120779	 0.150613
H	-3.5335936844	-1.2026349031	 0.0824520477	 0.194718
H	 2.177004686	-1.162812785	-3.1480323762	 0.274365
H	 3.7594338753	-1.2432419697	-2.4498346191	 0.255372
H	 3.8016768493	-0.6009204159	-0.0903125745	 0.209508
43.0988	72.678	134.9415	181.4362	215.3548	226.9521	283.634	318.3444	381.1271	411.5764	456.3452	513.7822	536.9651	556.1706	621.9367	629.3555	643.8043	783.2398	808.2581	869.2909	879.3709	1029.1715	1035.7932	1065.6119	1097.8958	1133.0266	1145.2968	1296.0854	1345.1036	1393.6204	1429.8908	1495.3911	1496.7352	1598.7351	1715.7463	1801.4127	2243.6978	3052.3103	3076.5328	3133.5845	3140.8711	3446.4443	3505.5491	3582.3198	3717.3061
CC(C#C)C(=O)C(N)=N	C[C@@H](C#C)C(=O)C(=N)N	
InChI=1S/C6H8N2O/c1-3-4(2)5(9)6(7)8/h1,4H,2H3,(H3,7,8)	InChI=1S/C6H8N2O/c1-3-4(2)5(9)6(7)8/h1,4H,2H3,(H3,7,8)/t4-/m0/s1
