21
gdb 8426	3.56584	1.68687	1.66296	1.5412	76.91	-0.2224	0.0809	0.3032	929.5746	0.189828	-329.115259	-329.107379	-329.106435	-329.146813	31.52	
C	 0.4340963896	 1.3219162769	 0.0235961488	-0.436016
C	-0.0476765226	-0.1408478141	-0.0010532453	 0.313702
C	-1.5846130174	-0.142795456	-0.0520835663	-0.432438
C	 0.5494689906	-0.9309440003	-1.2085693399	-0.271784
C	 1.5909196659	-1.8726427032	-0.6286055105	-0.008519
C	 2.6750989307	-1.3072783844	 0.2138480992	-0.251594
N	 1.4949860841	-1.9162608673	 0.8437377943	-0.092059
C	 0.4568166664	-0.951477051	 1.2420607105	-0.203987
H	 1.5241396567	 1.4061724726	 0.0325385297	 0.115585
H	 0.0703553824	 1.8655454148	-0.8558284525	 0.111961
H	 0.0562360552	 1.8405885602	 0.911855263	 0.112711
H	-1.9518467507	 0.375894734	-0.9447590162	 0.111228
H	-1.9781324443	-1.1645472786	-0.070772325	 0.113108
H	-2.0095228573	 0.3636053011	 0.8221270258	 0.112057
H	-0.2308472581	-1.5185790864	-1.7039994816	 0.098784
H	 0.9684479063	-0.25957712	-1.9657394117	 0.10133
H	 1.7496531278	-2.8249907508	-1.1281129354	 0.085744
H	 3.5971400204	-1.8650436721	 0.3550278011	 0.112066
H	 2.7980914243	-0.2286148345	 0.2533819793	 0.10899
H	 0.837980404	-0.2960986851	 2.0330639509	 0.099514
H	-0.3691112242	-1.5294338757	 1.6712883117	 0.099618
106.5177	208.3433	237.943	272.5634	346.9969	349.1167	367.7759	391.0512	433.7242	594.6851	656.2336	755.708	788.0418	838.2082	879.2609	912.4105	917.3301	945.0501	954.1721	980.1954	1012.7373	1039.94	1068.6795	1101.1801	1106.5074	1154.6247	1182.2079	1215.8763	1217.229	1233.8013	1275.5264	1309.572	1323.2042	1350.742	1393.2413	1400.6963	1427.1376	1482.4716	1485.4619	1493.3851	1500.6132	1504.2659	1507.3491	1517.9825	3020.4927	3026.4027	3032.5287	3040.753	3070.4223	3074.9778	3086.6492	3091.9459	3096.0543	3103.8307	3113.0416	3136.8181	3191.1224
CC1(C)CC2CN2C1	CC1(C)C[C@H]2CN2C1	
InChI=1S/C7H13N/c1-7(2)3-6-4-8(6)5-7/h6H,3-5H2,1-2H3	InChI=1S/C7H13N/c1-7(2)3-6-4-8(6)5-7/h6H,3-5H2,1-2H3/t6-,8?/m0/s1
