18
gdb 126232	2.02608	1.68269	0.98125	2.5694	75.17	-0.2006	0.0414	0.242	1202.7274	0.148413	-435.293317	-435.283778	-435.282834	-435.327885	34.748	
C	 0.0969182405	 1.5938510802	-0.2031424688	-0.368051
C	 0.0348951661	 0.0976938166	 0.150956307	-0.31699
C	-1.3536680868	-0.466573942	 0.1237923926	 0.07255
C	-2.1313125322	-0.9422696354	 1.1670899237	 0.287408
N	-1.848028341	-1.1536947959	 2.5205686136	-0.608339
N	-3.3404930396	-1.28128562	 0.6536396473	-0.264673
N	-3.4060552923	-1.0901562955	-0.7035399506	-0.348984
C	-2.2176620966	-0.5994049202	-0.9946227588	 0.363162
O	-1.8842546681	-0.2431154996	-2.2566107906	-0.433096
H	 1.129567953	 1.9579852155	-0.195353427	 0.104668
H	-0.3193877623	 1.7667493887	-1.19924945	 0.138842
H	-0.4819183391	 2.189806434	 0.5098567957	 0.108633
H	 0.6745662047	-0.4582704787	-0.546197955	 0.11511
H	 0.4775475242	-0.058836828	 1.1436481253	 0.080944
H	-0.911122158	-0.8513564462	 2.753899557	 0.252782
H	-2.5048499189	-0.690599808	 3.1388724236	 0.250507
H	-4.0493444364	-1.8345794123	 1.1016084006	 0.265641
H	-2.6528774774	-0.4277809733	-2.8112263456	 0.299885
47.4379	128.0488	140.7586	187.2446	204.2692	279.1592	287.3583	304.0921	391.2807	415.3836	457.0099	537.9254	583.9538	652.6723	699.7251	743.4064	766.3428	785.7603	813.916	968.3693	1013.552	1084.3896	1101.3311	1117.1173	1188.2569	1224.6399	1279.0457	1304.1128	1343.0441	1366.0107	1406.8847	1469.8554	1479.1748	1496.042	1509.6459	1555.5601	1574.4663	1633.9305	1675.1751	3012.3586	3034.9019	3042.4388	3102.3575	3120.4962	3522.1367	3617.5394	3686.0644	3791.1203
CCC1=C(N)NN=C1O	CCc1c(N)[nH]nc1O	
InChI=1S/C5H9N3O/c1-2-3-4(6)7-8-5(3)9/h2H2,1H3,(H4,6,7,8,9)	InChI=1S/C5H9N3O/c1-2-3-4(6)7-8-5(3)9/h2H2,1H3,(H4,6,7,8,9)
