21
gdb 70527	2.39219	1.66144	1.2026	1.3734	83.23	-0.2324	0.027	0.2594	1106.8156	0.18412	-387.086816	-387.078632	-387.077688	-387.118932	33.461	
O	 0.1475566449	 1.3366698037	-0.1063311574	-0.476736
C	 0.09238401	-0.0697472252	-0.0650404264	 0.429327
C	-0.5317821304	-0.7723270133	-1.2481209994	-0.384201
C	-1.2917470693	-0.6189042079	 0.0611813521	-0.026535
C	-1.5554690899	-1.8068891747	 0.9731751129	-0.292984
C	-1.2248364919	-1.5576335817	 2.4330368023	-0.060909
C	-0.1412081405	-0.9653773401	 2.9404673779	-0.022517
C	 1.0641479698	-0.3840159896	 2.2412697413	-0.241292
C	 1.2018294745	-0.7072408754	 0.7456843093	-0.278412
H	 0.8972146843	 1.5825644344	-0.6603285486	 0.277034
H	-0.841708627	-0.1509842836	-2.0811247273	 0.109529
H	-0.1727481685	-1.7600997827	-1.5216619325	 0.104183
H	-2.0664729214	 0.1419681465	 0.0611217495	 0.095895
H	-2.6100151839	-2.0923345838	 0.8895492245	 0.101002
H	-0.9976890136	-2.6818154348	 0.6127087367	 0.107953
H	-1.9646162212	-1.9224240171	 3.1429525878	 0.080501
H	-0.0962599447	-0.8761793562	 4.0255746373	 0.080277
H	 1.0515809332	 0.7084554217	 2.3617405481	 0.121875
H	 1.9636929025	-0.7248749716	 2.7717504342	 0.094403
H	 1.2037295518	-1.7916181554	 0.5947937201	 0.100999
H	 2.1727203513	-0.3455616233	 0.3799541176	 0.080608
122.3787	191.8351	214.4294	314.7788	328.4145	358.1493	382.4645	405.6674	437.7394	483.1418	570.8344	648.2808	714.753	746.2801	819.2077	834.8287	899.4834	904.5975	918.9114	956.1039	987.5263	990.9947	1013.4655	1024.7131	1043.8482	1076.4557	1094.2545	1132.0359	1171.5444	1228.7872	1237.7226	1259.3977	1276.9828	1295.0726	1337.5063	1359.61	1377.2267	1392.0262	1424.4238	1429.2906	1469.1815	1477.3417	1491.6421	1502.5122	1726.365	3004.9903	3013.3671	3017.1087	3032.4575	3054.6032	3077.03	3119.6709	3122.7799	3148.0242	3155.832	3215.115	3786.3108
OC12CC1CC=CCC2	O[C@]12C[C@H]1CC=CCC2	
InChI=1S/C8H12O/c9-8-5-3-1-2-4-7(8)6-8/h1-2,7,9H,3-6H2	InChI=1S/C8H12O/c9-8-5-3-1-2-4-7(8)6-8/h1-2,7,9H,3-6H2/t7-,8-/m1/s1
