22
gdb 60374	3.58138	0.66387	0.60551	4.0096	81.2	-0.2384	0.0337	0.2721	1880.6888	0.191994	-441.512747	-441.501705	-441.500761	-441.550011	38.835	
C	 0.0156945025	 1.521603505	 0.1949083231	-0.406653
C	-0.0173646322	 0.0020192765	 0.0390340899	 0.14236
O	-1.3574834376	-0.4827856948	-0.0433754051	-0.427889
C	 0.8231220333	-0.4826871443	-1.1504686661	-0.19939
C	 0.8305914816	-2.0139932318	-1.2638143495	-0.183815
N	 1.5130299447	-2.5207350379	-2.4405654087	-0.027485
C	 2.9579407494	-2.403144838	-2.5276664681	-0.348264
C	 0.8266175517	-3.1325629097	-3.4480339312	 0.149281
O	 1.3111028199	-3.5829197182	-4.4656217462	-0.345331
H	 1.0349380311	 1.8816282701	 0.3673821312	 0.119652
H	-0.3612266648	 2.0135116818	-0.7107529885	 0.110073
H	-0.609471346	 1.8294068267	 1.03724832	 0.128283
H	 0.3749019423	-0.4571416225	 0.9560266446	 0.091666
H	-1.7914854846	-0.0193916669	-0.7689389931	 0.278544
H	 0.4196975975	-0.0551668308	-2.0792154722	 0.094903
H	 1.8450607942	-0.0995590878	-1.0460159959	 0.101924
H	 1.2929521448	-2.4456132449	-0.3643225115	 0.104676
H	-0.2044855738	-2.3649987123	-1.2875967865	 0.13195
H	 3.4328648115	-2.8496226199	-1.645502447	 0.121498
H	 3.2795515086	-2.9328940946	-3.4244382315	 0.16878
H	 3.2762907445	-1.3567905399	-2.5987646997	 0.125283
H	-0.2586790486	-3.1776172757	-3.2296689482	 0.069955
38.8823	57.1733	99.9253	130.7507	147.9389	212.1119	244.027	278.7481	300.6073	335.7568	350.7747	369.4254	428.7419	470.2764	487.903	707.8615	778.8981	856.0783	884.0343	939.0204	968.4689	1029.1315	1031.8649	1078.8712	1091.7979	1109.5738	1151.0893	1165.6709	1187.9536	1275.7303	1287.1785	1302.0698	1340.3134	1379.0403	1400.7069	1407.9865	1420.9976	1431.2797	1439.3958	1444.2033	1478.1296	1491.7501	1495.9889	1498.9893	1501.0785	1522.18	1793.8492	2936.0402	3001.9007	3014.6444	3021.5425	3023.605	3032.4574	3064.1225	3072.6124	3095.4232	3100.3263	3120.6691	3155.0415	3793.1819
CC(O)CCN(C)C=O	C[C@@H](O)CCN(C)C=O	
InChI=1S/C6H13NO2/c1-6(9)3-4-7(2)5-8/h5-6,9H,3-4H2,1-2H3	InChI=1S/C6H13NO2/c1-6(9)3-4-7(2)5-8/h5-6,9H,3-4H2,1-2H3/t6-/m1/s1
