23
gdb 87969	3.4008	1.00411	0.91996	1.2125	86.14	-0.2505	0.0815	0.332	1397.4969	0.206072	-388.294568	-388.285266	-388.284321	-388.328834	36.303	
C	-0.2479773832	 1.5186775708	 0.0054057666	-0.406204
C	 0.0430878205	 0.0200062635	 0.0199606539	 0.055278
C	 0.8187992746	-0.5029779184	-1.2028590199	-0.208339
C	 1.2868786015	-1.9027366765	-0.771192845	-0.293216
C	 1.5834973157	-1.7472190822	 0.7263298469	 0.354033
C	 1.6935899109	-2.9658653344	 1.6219396155	-0.392649
C	 2.9188676813	-2.1556710674	 1.2826163368	 0.058361
O	 3.8638718555	-2.6639436328	 0.3849655107	-0.420556
C	 0.9141898321	-0.4502729642	 1.2072693526	-0.299073
H	 0.6825147133	 2.096299009	-0.0487606312	 0.111211
H	-0.862975011	 1.7968096046	-0.8573125422	 0.109962
H	-0.7822563436	 1.8333325952	 0.9085531282	 0.109429
H	-0.9124119317	-0.5221481037	 0.0639539224	 0.068501
H	 0.2182815664	-0.5140691277	-2.1178074708	 0.087956
H	 1.6859125392	 0.1448417246	-1.3889704741	 0.095312
H	 0.4781206177	-2.6283881253	-0.9228498287	 0.091734
H	 2.1577178299	-2.2625911733	-1.3227946778	 0.116489
H	 1.2963618395	-2.9143410769	 2.6315374861	 0.104373
H	 1.60397227	-3.9378935505	 1.1450576495	 0.106927
H	 3.3383082751	-1.5234547235	 2.067589319	 0.077622
H	 4.3029450897	-3.4101816291	 0.8056196712	 0.28679
H	 1.6745836177	 0.3112428243	 1.4279325521	 0.093721
H	 0.3287113988	-0.589043106	 2.1220750083	 0.092337
33.5492	145.5955	209.4239	228.3674	241.1327	260.6905	299.1579	364.6595	414.8119	445.1574	457.1306	533.2718	573.8758	731.1179	798.2361	823.609	859.9639	882.1258	908.2404	941.2818	952.0109	979.0713	985.7401	1010.4519	1035.3665	1087.2392	1090.9838	1110.3729	1145.5283	1168.4071	1189.1195	1214.2404	1245.3025	1265.675	1277.3191	1297.8796	1304.2324	1327.9134	1350.6971	1354.6696	1387.9634	1411.3676	1420.9902	1482.5408	1487.7082	1493.4044	1497.515	1500.5099	1507.2068	2996.2127	3012.3128	3020.0762	3024.405	3028.6283	3066.9874	3078.5673	3080.2033	3090.4366	3093.1546	3109.7746	3112.3835	3201.3277	3808.0457
CC1CCC2(CC2O)C1	C[C@H]1CC[C@]2(C[C@H]2O)C1	
InChI=1S/C8H14O/c1-6-2-3-8(4-6)5-7(8)9/h6-7,9H,2-5H2,1H3	InChI=1S/C8H14O/c1-6-2-3-8(4-6)5-7(8)9/h6-7,9H,2-5H2,1H3/t6-,7+,8+/m0/s1
