16
gdb 55711	2.39575	1.23822	1.05544	4.2002	69.59	-0.2582	-0.0298	0.2284	1186.4836	0.121002	-437.889139	-437.87981	-437.878866	-437.924381	32.591	
C	 0.9407551176	 0.3229891211	 0.3009154525	-0.485522
C	-0.5211636889	 0.1895832022	-0.0680978717	 0.38602
O	-1.3785045462	 0.9083390715	 0.3833419194	-0.285444
C	-0.9031343347	-0.8831346643	-1.1046594344	-0.370864
C	-0.1188871799	-2.1797967121	-1.0524385501	 0.21615
C	 0.1927385055	-2.9380206737	-2.2832081551	-0.204495
O	 1.1933925257	-2.1641065944	-1.6290600107	-0.243265
C	-0.213402997	-2.9277686354	 0.1926226909	 0.279789
N	-0.3061996544	-3.5015076706	 1.1914487412	-0.32455
H	 1.5754180519	 0.3090087999	-0.5901564192	 0.150333
H	 1.0892405265	 1.2412219798	 0.8695522233	 0.146355
H	 1.2457683226	-0.5319387341	 0.9162568464	 0.16381
H	-1.9735536813	-1.0773965455	-0.9970292395	 0.147319
H	-0.7408948655	-0.4425934473	-2.0962316461	 0.141679
H	 0.3241949977	-4.0162113325	-2.2294090577	 0.147122
H	-0.1646489794	-2.5450583546	-3.2332568392	 0.135563
37.9088	67.8766	131.6276	151.2791	194.5746	245.8365	320.802	324.4055	423.8396	483.207	531.8149	575.6535	596.726	726.055	777.4107	817.7466	880.7369	927.5442	956.6606	1022.1917	1045.6415	1133.0703	1164.781	1186.1421	1218.6064	1274.1239	1306.2328	1376.6877	1387.8986	1438.7941	1459.2311	1474.9196	1520.5523	1822.0805	2359.6299	3040.6467	3043.3482	3096.7631	3105.5521	3110.9283	3159.558	3194.755
CC(=O)CC1(CO1)C#N	CC(=O)C[C@]1(CO1)C#N	
InChI=1S/C6H7NO2/c1-5(8)2-6(3-7)4-9-6/h2,4H2,1H3	InChI=1S/C6H7NO2/c1-5(8)2-6(3-7)4-9-6/h2,4H2,1H3/t6-/m1/s1
