21
gdb 37012	3.23361	1.15799	1.13776	1.7196	82.94	-0.2513	0.0708	0.3221	1223.0074	0.182386	-387.057102	-387.048741	-387.047797	-387.090256	32.678	
C	 0.2934348401	 1.2189442334	 0.6143604052	-0.209108
C	 1.5410014356	 1.5116905369	-0.2746525319	-0.311685
C	 1.3814009291	 0.1024352027	-0.8489285684	 0.348211
C	-0.029186415	-0.0246740271	-0.2698321092	-0.311685
O	 1.7665189663	-0.2952767481	-2.1597872088	-0.322958
C	 2.3942361046	-0.9333419075	-1.0535746937	 0.348203
C	 3.8934271598	-0.8940119336	-0.7500174688	-0.311687
C	 3.7269101517	-2.2922977733	-0.0795408539	-0.209109
C	 2.3232331934	-2.43038139	-0.7451940485	-0.311687
H	 0.5666564989	 0.942911383	 1.6353741747	 0.105605
H	-0.4689919172	 1.9982861706	 0.6558247288	 0.104559
H	 1.3444392393	 2.2750909082	-1.0332703891	 0.114777
H	 2.4820004457	 1.7504393506	 0.2280192201	 0.103017
H	-0.2867848223	-0.958703133	 0.2365191498	 0.103017
H	-0.790502495	 0.1861378862	-1.0267165556	 0.114777
H	 4.486598348	-0.9381452009	-1.6682310884	 0.114778
H	 4.2638634731	-0.0718342511	-0.1319874943	 0.103017
H	 4.4671588615	-3.0496673716	-0.3418601909	 0.10456
H	 3.6655400997	-2.2261584271	 1.0091149325	 0.105605
H	 1.4951302449	-2.7809249023	-0.1234827218	 0.103017
H	 2.3515614777	-3.0271897459	-1.661672858	 0.114778
76.452	114.4913	168.4149	174.4198	250.0309	430.1185	436.4476	443.2905	510.3849	566.3642	696.8101	727.3933	780.11	785.6412	829.0406	876.5603	905.0076	919.8501	921.3411	924.089	973.1146	1010.0531	1024.6341	1065.3961	1106.4996	1129.0506	1138.5813	1161.4123	1193.3446	1204.3328	1229.7824	1230.1734	1242.4394	1243.7539	1271.6407	1272.4709	1274.5258	1277.0119	1464.6312	1472.5782	1477.7081	1481.6871	1491.0012	1500.0233	1539.0707	3053.247	3054.2446	3056.8012	3058.3959	3073.0038	3073.6989	3101.4115	3102.0718	3105.721	3107.0134	3130.2921	3130.9623
C1CC2(C1)OC21CCC1	C1CC2(C1)OC12CCC1	
InChI=1S/C8H12O/c1-3-7(4-1)8(9-7)5-2-6-8/h1-6H2	InChI=1S/C8H12O/c1-3-7(4-1)8(9-7)5-2-6-8/h1-6H2
