17
gdb 18004	4.83879	1.48859	1.31073	4.3197	70.3	-0.2373	0.0271	0.2644	954.2792	0.143463	-363.856967	-363.849741	-363.848797	-363.88949	26.444	
O	-0.0484425731	-0.0114529782	 0.5019114128	-0.333565
C	 0.0096180848	 1.1994131764	 0.4234768718	 0.125302
N	 1.098786468	 1.8909785247	 0.0258367038	-0.026744
C	 2.4349828821	 1.4228941288	-0.3536469381	-0.179528
C	 2.8288746154	 2.9014351976	-0.6135996183	-0.044982
C	 2.4677514747	 3.4352030704	-2.0285878435	-0.226318
C	 1.0800756161	 3.9218271891	-1.5045359291	-0.225637
C	 1.3992384035	 3.3170741939	-0.1116293227	-0.004746
H	-0.8354298459	 1.8730447272	 0.6790414001	 0.063848
H	 2.9635217828	 0.9387648917	 0.4750345064	 0.121965
H	 2.4524092686	 0.7545301324	-1.2211422998	 0.121614
H	 3.7481555686	 3.2576467188	-0.1532090551	 0.083363
H	 3.1144330646	 4.2435222651	-2.3759490258	 0.109664
H	 2.4372024416	 2.6668709457	-2.805524259	 0.109441
H	 0.9950760538	 5.0113950637	-1.4748294049	 0.108527
H	 0.193825083	 3.5156749489	-1.9967228767	 0.111581
H	 1.1964537814	 3.9187274039	 0.7776437881	 0.086213
34.7056	106.4422	187.2968	301.4833	354.8551	371.2089	530.535	687.8095	738.7237	796.6707	812.877	850.9737	889.5429	941.3425	959.1804	985.6798	1025.5536	1034.2452	1078.9918	1131.8428	1133.9748	1174.4279	1199.0151	1216.5042	1240.8937	1263.6161	1274.7792	1300.169	1312.9972	1330.1496	1399.5361	1446.1892	1470.51	1489.7645	1514.3662	1789.1858	2911.8698	3033.4448	3060.5368	3065.7334	3078.149	3079.2541	3107.4133	3124.6959	3135.9154
O=CN1CC2CCC12	O=CN1C[C@H]2CC[C@@H]12	
InChI=1S/C6H9NO/c8-4-7-3-5-1-2-6(5)7/h4-6H,1-3H2	InChI=1S/C6H9NO/c8-4-7-3-5-1-2-6(5)7/h4-6H,1-3H2/t5-,6-/m1/s1
