13
gdb 7872	3.79006	1.78154	1.22109	8.0803	66.07	-0.2161	-0.0622	0.1538	907.4447	0.095433	-398.654194	-398.646691	-398.645747	-398.68643	26.834	
N	 0.0437505629	 1.3278569901	 0.0075181619	-0.5715
C	-0.0232048203	-0.0175573765	 0.0003326063	 0.398067
C	-1.1478085199	-0.7924239672	 0.0028206743	-0.324092
C	-0.8202212154	-2.2033121629	-0.0071069886	 0.303587
O	-1.5409438818	-3.1776410367	-0.0082245162	-0.342539
C	 0.7342808061	-2.2702928295	-0.0169492662	 0.309684
O	 1.4039194309	-3.2646934664	-0.0265529104	-0.281922
C	 1.2503505566	-0.8254585828	-0.0120194871	-0.433461
H	 0.9284581663	 1.8037459523	 0.0048927883	 0.271557
H	-0.7900232012	 1.8907771635	 0.0158852156	 0.272407
H	-2.1636701158	-0.4184559221	 0.011122931	 0.104157
H	 1.8654729845	-0.625701929	-0.8976876289	 0.147032
H	 1.8763859571	-0.6355740328	 0.8681528899	 0.147024
81.505	92.2316	160.2365	315.679	327.9265	401.5659	481.8361	540.3195	571.6646	575.1233	641.1485	722.3691	731.3742	857.2265	898.3817	959.0652	1047.4654	1074.1327	1150.2275	1210.3027	1245.8066	1298.9535	1427.8957	1444.7337	1625.1128	1671.7246	1802.6745	1862.6808	3036.4038	3073.9465	3212.9046	3612.4191	3735.3918
NC1=CC(=O)C(=O)C1	NC1=CC(=O)C(=O)C1	
InChI=1S/C5H5NO2/c6-3-1-4(7)5(8)2-3/h1H,2,6H2	InChI=1S/C5H5NO2/c6-3-1-4(7)5(8)2-3/h1H,2,6H2
