23
gdb 116462	2.56361	1.26204	0.98965	1.7069	82.05	-0.2487	0.0818	0.3305	1300.4681	0.206322	-425.428476	-425.418997	-425.418052	-425.462609	35.791	
C	 0.069854548	 1.374323227	 0.1029509379	-0.24035
O	-0.0955788405	-0.0137050251	-0.0650204227	-0.249532
C	 0.6152605186	-0.5736836229	-1.1560996458	 0.135528
C	 2.1324619982	-0.6521155946	-0.9199997071	-0.235938
C	 2.8005939744	-1.4130015674	-2.0710452981	-0.075602
O	 2.2247561709	-2.6914021183	-2.267324679	-0.241454
C	 0.8443099846	-2.6031461192	-2.5802916885	-0.092387
C	 0.0325261425	-1.9707107985	-1.4377103778	-0.013823
C	-0.0000824705	-2.8769296632	-0.1994880135	-0.394268
H	 1.0922290606	 1.6487822175	 0.4009218147	 0.107257
H	-0.180174919	 1.9277322725	-0.8164041203	 0.101532
H	-0.6145738459	 1.6856128877	 0.8962361814	 0.126743
H	 0.4412892563	 0.0512832608	-2.0516100587	 0.055324
H	 2.5706547153	 0.3495405407	-0.848527944	 0.092802
H	 2.3271378177	-1.1647133206	 0.0277636054	 0.114108
H	 2.7267522718	-0.8216364968	-3.0013337537	 0.083107
H	 3.8621080772	-1.5801764762	-1.8672954777	 0.108059
H	 0.7080509944	-2.0214605069	-3.5090080405	 0.080755
H	 0.5076637269	-3.6263784015	-2.7726004349	 0.104906
H	-0.9962301734	-1.8287237516	-1.7924696138	 0.072525
H	 1.0076751797	-3.1756423334	 0.1011768509	 0.123999
H	-0.4777942397	-2.3675505284	 0.6394951994	 0.13109
H	-0.5628546284	-3.7909659816	-0.4161445034	 0.10562
77.7144	123.4822	171.6202	199.1636	209.8115	227.1844	303.1243	334.2055	355.7031	407.92	445.3763	522.0096	580.6938	668.899	790.2362	866.7545	874.1419	906.068	956.88	986.2304	1003.3504	1026.8689	1057.3126	1079.2648	1143.4194	1151.3797	1155.5036	1180.6847	1189.2862	1224.4484	1231.3923	1263.0272	1309.8436	1316.2464	1343.2848	1358.201	1379.7022	1385.4086	1396.8721	1411.499	1429.3264	1478.0894	1483.024	1490.3383	1491.6967	1499.2686	1504.0854	1510.5096	1512.8093	2925.5084	2945.7248	2953.5899	2974.2844	3024.1132	3028.4456	3042.8605	3046.1337	3079.1857	3083.5497	3091.2553	3109.6371	3109.6921	3137.707
COC1CCOCC1C	CO[C@H]1CCOC[C@H]1C	
InChI=1S/C7H14O2/c1-6-5-9-4-3-7(6)8-2/h6-7H,3-5H2,1-2H3	InChI=1S/C7H14O2/c1-6-5-9-4-3-7(6)8-2/h6-7H,3-5H2,1-2H3/t6-,7+/m1/s1
