23
gdb 63966	2.95515	1.33458	1.31353	1.298	84.32	-0.2358	0.0762	0.312	1144.5744	0.206333	-388.30073	-388.292002	-388.291058	-388.333569	35.077	
C	 0.0781308787	 1.4397437524	 0.277386036	-0.41783
C	-0.0416143522	-0.0680846258	 0.0008564587	 0.379108
C	-1.5065185092	-0.5000003272	 0.0868577176	-0.416176
C	 0.6227523898	-0.4845320721	-1.3403737276	-0.280433
C	 2.0182708066	-0.9941600233	-0.9649687501	-0.023553
C	 3.1624521332	 0.0443105244	-0.7565662847	-0.23718
C	 3.1105448339	-0.200702618	 0.7804803442	-0.240384
C	 1.943009102	-1.2129323613	 0.5758204808	 0.114343
O	 0.663651692	-0.8107913333	 1.0164973752	-0.298104
H	 1.1088946368	 1.7914269431	 0.1895665825	 0.116658
H	-0.5332232327	 2.0117395544	-0.4289064377	 0.108725
H	-0.2705069779	 1.6604607046	 1.2905733092	 0.1193
H	-2.105936649	 0.0003473321	-0.6805744196	 0.109539
H	-1.5914639169	-1.5812783682	-0.0526873268	 0.114444
H	-1.9242235454	-0.2474345405	 1.0660861568	 0.119117
H	 0.0435586461	-1.2916873498	-1.7997899862	 0.097329
H	 0.6518726117	 0.3444398859	-2.0539268302	 0.099648
H	 2.3100959441	-1.8608895784	-1.5604733217	 0.067596
H	 4.1081124081	-0.2371339405	-1.2255748869	 0.098816
H	 2.9205939048	 1.0605869497	-1.079510401	 0.096903
H	 4.0171387837	-0.6513756547	 1.192664227	 0.096416
H	 2.841252167	 0.6587645855	 1.3976245414	 0.105895
H	 2.1277929748	-2.2177037089	 0.966874483	 0.069824
105.6042	117.2829	215.2683	237.4272	279.0785	329.9861	356.4842	386.2099	395.0766	469.3902	604.2178	632.2631	732.3416	743.8664	770.4186	844.0631	857.9367	888.6175	913.551	916.3401	938.6688	958.072	980.2462	1004.0638	1043.1076	1060.689	1098.8072	1131.0543	1162.0124	1185.6437	1206.5661	1223.9722	1242.8929	1257.2467	1267.9962	1285.2595	1289.2063	1316.9236	1346.0218	1370.6183	1397.6388	1415.6464	1468.9655	1476.9643	1483.5352	1491.4225	1494.83	1501.0868	1508.5287	3034.7753	3039.8252	3047.3182	3055.0933	3057.4276	3067.1974	3085.4165	3091.7277	3104.074	3105.0061	3112.1082	3116.7006	3122.6989	3127.1521
CC1(C)CC2CCC2O1	CC1(C)C[C@H]2CC[C@H]2O1	
InChI=1S/C8H14O/c1-8(2)5-6-3-4-7(6)9-8/h6-7H,3-5H2,1-2H3	InChI=1S/C8H14O/c1-8(2)5-6-3-4-7(6)9-8/h6-7H,3-5H2,1-2H3/t6-,7-/m1/s1
