17
gdb 43836	3.20916	1.50263	1.18781	4.9017	73.36	-0.2375	0.034	0.2715	1044.4151	0.137275	-418.007201	-417.999724	-417.99878	-418.039243	29.431	
O	 0.0056158546	-0.0229724351	-0.0469026922	-0.369233
C	-0.0025425225	 1.1797434316	-0.0225396473	 0.402039
N	-1.1015739683	 1.9946309565	 0.1054312247	-0.393129
C	-0.8050119335	 3.3970835499	 0.0809149027	 0.403656
C	-1.6209422067	 4.3767896117	-0.7165716719	-0.323802
C	-1.6442666682	 4.4136712552	 0.8018462649	-0.326684
C	 0.7041920988	 3.4086262131	 0.0537816602	-0.106143
C	 1.4381206064	 2.7283032235	 1.1467811894	-0.255984
N	 1.1734251821	 2.0197356633	-0.1297172406	-0.154125
H	-2.0250921416	 1.6048733014	 0.1948853318	 0.257708
H	-1.0981458522	 5.1680786502	-1.2447343318	 0.123912
H	-2.5017271411	 4.0031414476	-1.2279859456	 0.121606
H	-2.5431206766	 4.067904105	 1.3022282592	 0.119714
H	-1.13870515	 5.2276773522	 1.3106785322	 0.126467
H	 1.195269944	 4.1668823279	-0.5478585988	 0.109178
H	 2.4841207499	 2.9587562644	 1.3209509924	 0.131187
H	 0.880042265	 2.4111905016	 2.0238390108	 0.133633
71.4754	171.8271	253.5232	278.906	361.4734	407.1123	471.3994	511.5901	541.0929	663.2926	748.7225	773.7445	784.2035	825.6466	865.1039	894.6441	934.4909	941.1753	963.9827	996.1147	1048.4016	1060.739	1074.9088	1082.6134	1108.205	1158.5799	1186.7462	1212.8254	1270.9784	1275.4545	1335.5169	1363.1197	1453.9852	1459.1509	1502.6858	1509.0695	1864.749	3116.6211	3125.6236	3129.1461	3159.9021	3206.8905	3209.3298	3221.7568	3660.3379
O=C1NC2(CC2)C2CN12	O=C1NC2(CC2)[C@H]2CN12	
InChI=1S/C6H8N2O/c9-5-7-6(1-2-6)4-3-8(4)5/h4H,1-3H2,(H,7,9)	InChI=1S/C6H8N2O/c9-5-7-6(1-2-6)4-3-8(4)5/h4H,1-3H2,(H,7,9)/t4-,8?/m1/s1
