18
gdb 127062	5.31827	0.73879	0.71019	2.1507	75.04	-0.249	0.0075	0.2564	1631.8376	0.14867	-435.282666	-435.27376	-435.272816	-435.318022	30.945	
C	-0.1022892146	 1.4970337286	-0.0362112285	-0.384899
C	-0.0659492337	-0.0215123524	-0.0202154073	-0.018911
O	-1.3948149544	-0.5001908686	 0.0285372123	-0.24498
C	-1.4674297227	-1.9114182421	 0.0386459727	-0.160804
C	-2.9019779559	-2.3251528472	 0.0098695837	 0.345244
N	-3.5164312068	-2.8144500105	 1.0776062296	-0.259333
N	-4.7659595256	-3.0379337356	 0.6107715	-0.175957
C	-4.8499264913	-2.6838901738	-0.6883098036	 0.015178
N	-3.6870264425	-2.2308074022	-1.1058693447	-0.288301
H	 0.9132114188	 1.9027165205	-0.0741277326	 0.112261
H	-0.6546407956	 1.8568900305	-0.9087321105	 0.129382
H	-0.595889562	 1.8776411612	 0.8624405488	 0.126938
H	 0.4437849712	-0.4072640088	-0.9198778129	 0.085443
H	 0.5037608562	-0.3865176767	 0.85189893	 0.083918
H	-0.9514616124	-2.3273215402	-0.8415195973	 0.101195
H	-0.9934417773	-2.3259416056	 0.9410149017	 0.10501
H	-5.468935001	-3.4221237505	 1.2204650163	 0.282696
H	-5.7544063903	-2.7773977965	-1.2706347477	 0.145918
36.9936	67.9899	92.2791	121.3129	242.1425	254.7844	340.6329	354.33	469.8807	548.7532	684.4894	728.9072	811.6828	821.51	857.8394	914.9073	990.6644	997.7559	1020.6454	1039.334	1106.3553	1137.6822	1158.8097	1170.8328	1188.9004	1252.0483	1294.4577	1297.7375	1361.0672	1379.6762	1403.0422	1435.9535	1467.596	1482.7147	1497.3938	1501.5191	1507.7702	1532.4238	1561.2366	2948.6767	2973.1094	2976.6493	3016.4166	3045.0255	3118.817	3122.8206	3258.137	3664.9489
CCOCC1=NNC=N1	CCOCc1n[nH]cn1	
InChI=1S/C5H9N3O/c1-2-9-3-5-6-4-7-8-5/h4H,2-3H2,1H3,(H,6,7,8)	InChI=1S/C5H9N3O/c1-2-9-3-5-6-4-7-8-5/h4H,2-3H2,1H3,(H,6,7,8)
