18
gdb 94163	2.30609	1.47668	1.21804	6.1552	67.63	-0.2495	0.0146	0.2641	1095.5484	0.146721	-476.227139	-476.217926	-476.216982	-476.261076	34.068	
C	-0.0112934713	 1.5334415862	-0.0967934106	-0.445338
C	 0.0493341166	 0.0080333091	 0.0251687308	 0.275647
O	 1.0570865847	-0.5355061729	-0.8519691496	-0.303692
C	 1.9683434876	-0.7402405415	 0.2504079122	-0.112464
C	 0.8056297926	-0.5616630828	 1.2595312703	-0.082843
N	 0.8167764549	 0.2467788585	 2.4543679308	-0.531962
H	 1.3403244677	 1.1065543387	 2.3272427645	 0.239486
H	-1.6158003568	-0.0458214094	 1.6545259753	 0.312686
H	 1.2258519891	-0.2477327624	 3.2392808975	 0.244509
C	-1.3398392291	-0.5841555874	-0.173061074	 0.376522
O	-1.7454582244	-1.114897824	-1.1637067491	-0.315203
O	-2.1270996364	-0.4363924462	 0.9285152849	-0.384091
H	 0.9766438686	 1.9752298425	 0.0626849278	 0.11841
H	-0.3354985856	 1.7918064245	-1.1085729369	 0.154736
H	-0.7134762283	 1.9750636329	 0.6155478233	 0.128298
H	 2.4580705744	-1.7177984734	 0.203173586	 0.115047
H	 2.7336750416	 0.0479835386	 0.3066115496	 0.093816
H	 0.396325494	-1.5410389409	 1.5227844671	 0.116437
80.2531	94.7026	173.4351	215.0093	230.7715	247.9581	299.2372	336.2993	386.651	442.8297	475.6118	593.1081	635.719	695.5137	742.0357	771.9341	827.0437	907.0149	919.8582	956.2182	1004.3433	1041.4721	1076.0105	1119.0083	1147.81	1161.318	1212.0632	1224.6589	1269.5165	1293.9262	1327.2173	1350.648	1402.1412	1440.9637	1484.7241	1494.0932	1518.6742	1661.0165	1892.3183	2993.5886	3044.4179	3068.2814	3084.0079	3118.2197	3126.6871	3510.7404	3592.124	3712.0895
CC1(OCC1[NH3+])C([O-])=O	C[C@]1(OC[C@H]1N)C(=O)O	
InChI=1S/C5H9NO3/c1-5(4(7)8)3(6)2-9-5/h3H,2,6H2,1H3,(H,7,8)	InChI=1S/C5H9NO3/c1-5(4(7)8)3(6)2-9-5/h3H,2,6H2,1H3,(H,7,8)/t3-,5-/m1/s1
