20
gdb 92136	2.83544	1.76337	1.57122	0.818	77.03	-0.2219	0.0842	0.3061	959.0904	0.174195	-403.144882	-403.13777	-403.136826	-403.176175	29.364	
C	-0.5390907918	 1.4520181731	 0.0456812414	-0.395144
C	 0.0881549271	 0.0632245895	-0.0411613134	 0.113754
O	 0.7594100105	-0.0527369275	-1.301475118	-0.296462
C	 2.0555536647	-0.6380009655	-1.2079547669	 0.088063
C	 2.974622291	 0.2915623163	-0.3967961248	-0.242473
C	 2.4796327944	 0.0019593574	 1.0100510999	-0.04449
C	 1.015580387	-0.2251285912	 1.1309277523	-0.03573
N	 1.9287479481	-1.3827732829	 1.0649509283	-0.137592
C	 2.0063320168	-1.8927971098	-0.3229817526	-0.178402
H	 0.2342970772	 2.2246006784	 0.0927137248	 0.119616
H	-1.1563612553	 1.6354462681	-0.8378890825	 0.126485
H	-1.1732563037	 1.5372372565	 0.9342356075	 0.112558
H	-0.7220272022	-0.6850104656	-0.0191769199	 0.079786
H	 2.3849472137	-0.8157128213	-2.2331984	 0.080211
H	 4.02929658	 0.0113372768	-0.5005666501	 0.10247
H	 2.8593271942	 1.3333729245	-0.7057850384	 0.110979
H	 3.0626778272	 0.3194504596	 1.8687103415	 0.088466
H	 0.5439451902	-0.0997011297	 2.1034228943	 0.089194
H	 1.1458150606	-2.5272958851	-0.5535487267	 0.112966
H	 2.9164528402	-2.4939420017	-0.4213734066	 0.105746
97.7391	224.6838	270.5412	360.0377	392.039	432.3804	482.5008	509.7288	640.6729	724.8076	750.8811	778.311	822.503	858.6128	883.4516	898.185	918.7986	968.0872	977.0936	998.0613	1055.5728	1060.3961	1089.0934	1106.4025	1123.1922	1140.6354	1165.9787	1182.3347	1233.2367	1245.3387	1268.4818	1314.2029	1324.8573	1341.6179	1358.0175	1382.759	1385.2921	1404.5054	1434.6469	1477.9975	1486.9404	1494.9495	1497.1336	2952.6411	3038.0007	3041.2907	3048.5507	3098.4581	3100.9954	3104.24	3110.9395	3121.2352	3125.2957	3158.3865
CC1OC2CC3C1N3C2	C[C@H]1O[C@H]2C[C@H]3[C@@H]1N3C2	
InChI=1S/C7H11NO/c1-4-7-6-2-5(9-4)3-8(6)7/h4-7H,2-3H2,1H3	InChI=1S/C7H11NO/c1-4-7-6-2-5(9-4)3-8(6)7/h4-7H,2-3H2,1H3/t4-,5+,6+,7-,8?/m1/s1
