15
gdb 131550	3.09944	1.64304	1.12412	1.8854	67.15	-0.2146	-0.0091	0.2056	1011.53	0.116347	-450.109833	-450.102603	-450.101659	-450.141598	27.572	
O	 0.1797703645	 1.3720424926	 0.3220524563	-0.418591
C	 0.085593752	-0.0098179879	 0.0445632924	 0.007244
C	-1.4053882129	-0.4978322207	-0.1637743474	-0.198227
N	-1.3829114337	-1.5422460802	-1.2236312464	-0.406162
C	-0.2001269102	-1.3329879905	-1.9144122626	 0.364781
N	 0.3399376994	-1.7729148588	-3.040984946	-0.337297
N	 1.5591476271	-1.1828934365	-2.9849192283	-0.106429
N	 1.821502058	-0.4138745064	-1.9296474083	-0.306414
C	 0.6920708273	-0.4976334737	-1.236010162	 0.237239
H	 0.0605030663	 1.8466593726	-0.5083104333	 0.281372
H	 0.5257038188	-0.5029443734	 0.9181329024	 0.117363
H	-1.8400618184	-0.8944185493	 0.7563693832	 0.1217
H	-1.9921345376	 0.3793305102	-0.4707683847	 0.105372
H	-2.2283888237	-1.6374817426	-1.7692121276	 0.247478
H	 2.2200161129	-1.2880259055	-3.7361476479	 0.29057
94.0024	175.0809	274.0208	316.3908	334.0575	386.584	468.914	527.6281	545.554	641.6303	682.1594	705.5052	788.9911	805.1269	968.4766	980.3415	990.7094	1042.3772	1087.1908	1140.9047	1169.0048	1201.6036	1208.6528	1259.6619	1305.8473	1319.8804	1377.8528	1425.6521	1449.8454	1473.2305	1507.3195	1554.6634	1629.8138	3009.3736	3051.3094	3101.7436	3585.1098	3684.3024	3799.6998
OC1CNC2=NNN=C12	O[C@H]1CNc2n[nH]nc12	
InChI=1S/C4H6N4O/c9-2-1-5-4-3(2)6-8-7-4/h2,9H,1H2,(H2,5,6,7,8)	InChI=1S/C4H6N4O/c9-2-1-5-4-3(2)6-8-7-4/h2,9H,1H2,(H2,5,6,7,8)/t2-/m0/s1
