20
gdb 6586	3.71605	1.89498	1.59852	1.4744	74.64	-0.2375	0.0891	0.3266	905.5283	0.177082	-349.009156	-349.001431	-349.000486	-349.040363	31.067	
C	-0.1364090524	 1.4891649109	-0.0058014849	-0.495786
C	 0.0333425222	-0.0036485573	-0.0198184318	 0.425252
C	 0.7779980394	-0.7839590562	-1.1296506683	-0.309644
C	-0.237073966	-1.8512925028	-0.6547199986	 0.425252
C	-0.7851426782	-2.9434353839	-1.5289890576	-0.495786
C	 0.2617622104	-2.1932255436	 0.771173565	-0.249157
C	 0.4754071604	-0.733565132	 1.2727507035	-0.249156
O	-1.1763691873	-0.7580209533	-0.3727351141	-0.363192
H	 0.8164883171	 1.9794135053	 0.2198848697	 0.119115
H	-0.4929280183	 1.8520589412	-0.9737855158	 0.124084
H	-0.860330818	 1.7853352654	 0.7607738272	 0.126381
H	 0.5343788145	-0.4064688889	-2.124427551	 0.099254
H	 1.849682266	-0.9769274472	-1.0245391699	 0.085501
H	-0.0138829832	-3.6944716334	-1.7299747723	 0.119115
H	-1.6255194833	-3.4435669279	-1.0359850592	 0.126378
H	-1.1361314153	-2.5420450647	-2.4837052984	 0.124086
H	-0.5051633575	-2.7283678466	 1.3364502295	 0.101252
H	 1.1753383071	-2.7949191388	 0.7685739468	 0.092901
H	 1.5094356662	-0.5123156962	 1.5529252674	 0.092901
H	-0.1751003538	-0.4733615302	 2.111334563	 0.101251
191.6606	199.6227	231.6921	246.7228	263.6558	353.2298	410.5776	439.3452	564.9926	601.395	604.5339	729.3004	800.3021	824.333	829.8112	871.6423	885.2381	934.2499	969.6329	985.4368	1010.7405	1045.4533	1089.1389	1110.529	1169.9273	1180.1195	1214.4762	1237.7205	1245.6624	1249.7447	1260.4779	1332.0111	1365.2521	1411.9962	1422.4261	1475.4461	1480.5696	1482.628	1482.8173	1494.2239	1495.6028	1510.3135	3035.659	3035.8337	3052.9591	3054.1148	3064.9656	3098.1324	3103.6258	3104.4546	3114.7499	3114.9345	3116.1328	3129.6334
CC12CC(C)(CC1)O2	C[C@@]12C[C@@](C)(CC1)O2	
InChI=1S/C7H12O/c1-6-3-4-7(2,5-6)8-6/h3-5H2,1-2H3	InChI=1S/C7H12O/c1-6-3-4-7(2,5-6)8-6/h3-5H2,1-2H3/t6-,7+
