17
gdb 48736	3.44056	1.37134	1.18033	1.7001	73.58	-0.2477	-0.0263	0.2213	1051.9042	0.136201	-421.775699	-421.76843	-421.767486	-421.807496	28.338	
O	-0.166971209	 0.0229114237	 0.0780035416	-0.274327
C	-0.0256019577	 1.2187270176	-0.0383780688	 0.053995
C	 1.2623417562	 1.9112259252	 0.0201297565	 0.251258
C	 1.363631229	 3.3925601816	 0.3267636528	-0.349549
C	 1.7837836867	 2.9661916598	-1.0280444113	-0.102731
C	 3.1527668538	 2.2500770739	-0.9916878338	 0.111689
O	 4.1015250056	 2.7483804136	-0.0211061569	-0.2977
C	 3.7436103352	 1.7035875349	 0.9276491674	-0.111594
C	 2.6265023737	 1.1947512318	-0.0011846949	-0.140448
H	-0.8967132412	 1.8902811791	-0.2229327323	 0.064228
H	 0.4082004919	 3.9055843199	 0.3795733555	 0.127698
H	 2.103289048	 3.7395851754	 1.0388168024	 0.146161
H	 1.2729448837	 3.293343952	-1.9257443103	 0.106075
H	 3.6040317967	 2.020249271	-1.9588279945	 0.089049
H	 4.5704905987	 0.9964065989	 1.0605990579	 0.111792
H	 3.4517037191	 2.1075501684	 1.9036755585	 0.107855
H	 2.5629979998	 0.1349449632	-0.2343560398	 0.10655
105.5492	171.1392	206.5768	272.7135	330.5009	424.782	487.0517	569.5028	658.3058	710.1167	747.1996	832.437	872.6563	887.3498	913.9775	947.6396	960.4495	985.7896	1000.541	1013.5826	1047.2677	1059.5325	1090.352	1105.3086	1155.8125	1190.3266	1209.7298	1231.4223	1252.5845	1299.8561	1332.8247	1347.7823	1384.3017	1435.1023	1484.0204	1520.2782	1794.9946	2855.4888	3024.2864	3070.9415	3092.8148	3137.0103	3154.3532	3187.5847	3223.654
O=CC12CC1C1OCC21	O=C[C@]12C[C@H]1[C@H]1OC[C@@H]21	
InChI=1S/C7H8O2/c8-3-7-1-4(7)6-5(7)2-9-6/h3-6H,1-2H2	InChI=1S/C7H8O2/c8-3-7-1-4(7)6-5(7)2-9-6/h3-6H,1-2H2/t4-,5+,6+,7+/m0/s1
