19
gdb 37704	2.67749	2.2353	2.02058	1.4831	75.72	-0.2394	0.0861	0.3255	824.7326	0.164601	-385.887551	-385.881853	-385.880909	-385.917137	25.796	
C	-0.0431955417	 1.5536064194	-0.0017178765	-0.227487
C	 1.4576360764	 1.8440197911	 0.0613147826	-0.066571
C	 2.1489111152	 1.4628532143	 1.3836727129	-0.089499
C	 1.7370585303	 0.0619754665	 1.7717688449	-0.040915
C	 0.3869605369	-0.519167074	 1.3729778496	-0.232071
C	-0.0084988555	 0.0103896547	-0.0157829297	 0.073308
O	 1.037216901	-0.2989521459	-0.9522954317	-0.270552
C	 2.1007357468	 0.5723829519	-0.6005184459	 0.090566
C	 2.8077824169	 0.2454775564	 0.7268374665	-0.088514
H	-0.6039148766	 1.9576481523	 0.8461051594	 0.096833
H	-0.4826145159	 1.9311712879	-0.9297716477	 0.09972
H	 1.7707268652	 2.8002749012	-0.3569096351	 0.069091
H	 2.5716713282	 2.1598965666	 2.096889763	 0.081048
H	 2.1164594167	-0.2564400639	 2.7390183031	 0.083304
H	 0.4482869052	-1.6130969794	 1.3400264063	 0.101505
H	-0.3851704921	-0.2547051509	 2.1064718258	 0.09222
H	-0.9245794784	-0.4576718516	-0.3824581619	 0.072144
H	 2.7463905391	 0.7146958366	-1.4672768828	 0.076193
H	 3.8120160724	-0.1449387533	 0.8381910973	 0.079678
304.316	368.1885	412.573	510.1218	525.7362	623.5527	646.2155	741.3758	763.5624	793.6552	817.146	849.8592	874.7955	898.6517	911.4679	922.8794	957.1418	991.507	1003.9732	1014.6721	1043.2035	1049.9733	1069.1201	1072.677	1088.307	1123.2854	1157.2684	1196.8421	1217.3524	1235.54	1262.3099	1285.5221	1302.9947	1315.0901	1338.7267	1346.5057	1367.8721	1382.9626	1436.1884	1476.3438	1487.3614	3022.7546	3052.1088	3063.7351	3089.3631	3102.5806	3107.1102	3117.0785	3143.826	3176.9679	3189.148
C1C2C3C4CC1OC2C34	C1[C@H]2[C@H]3[C@H]4C[C@@H]1O[C@@H]2[C@@H]34	
InChI=1S/C8H10O/c1-3-2-5-6-4(1)7(6)8(5)9-3/h3-8H,1-2H2	InChI=1S/C8H10O/c1-3-2-5-6-4(1)7(6)8(5)9-3/h3-8H,1-2H2/t3-,4+,5-,6+,7+,8-/m0/s1
