23
gdb 109888	2.54435	1.3358	1.09487	1.6966	84.61	-0.2374	0.0696	0.3069	1241.6364	0.205944	-388.261138	-388.251872	-388.250928	-388.295375	35.199	
C	-0.222859245	 1.7985591531	-0.3030414027	-0.389379
C	-0.2542986814	 0.2734045044	-0.1469655339	-0.195031
C	 0.6331391999	-0.4550605033	-1.1556976788	 0.011145
C	 2.1937606835	-0.5877662596	-0.9156590665	-0.013217
C	 2.8383946622	-0.0394991305	 0.350423527	-0.409265
C	 2.0494743823	-2.1289338493	-1.0009039561	 0.109965
O	 1.8101285199	-2.7559512288	 0.2784526908	-0.290065
C	 0.381460659	-2.7838691241	 0.0471613486	-0.080754
C	 0.5247654795	-2.0064426208	-1.270766786	-0.117607
H	 0.7879719902	 2.1972239448	-0.1718821755	 0.122486
H	-0.5675717209	 2.0981896655	-1.2991888407	 0.113184
H	-0.8690301518	 2.2860554922	 0.433723269	 0.111953
H	 0.0295569277	 0.0065040981	 0.8774093829	 0.103608
H	-1.2875983856	-0.0770765273	-0.27487103	 0.093186
H	 0.4548112088	-0.0118533214	-2.1417683582	 0.067939
H	 2.7354492871	-0.2145615502	-1.7917566132	 0.068104
H	 2.3813274631	-0.4670306757	 1.2456158117	 0.131356
H	 3.9029490871	-0.2980396893	 0.3758074758	 0.113999
H	 2.762865114	 1.0509807708	 0.4027895946	 0.111826
H	 2.766156609	-2.6926679507	-1.6055251458	 0.067297
H	 0.0236180778	-3.8142181109	-0.0791902583	 0.097308
H	-0.1838292791	-2.3124758228	 0.8593544998	 0.100874
H	 0.0139872126	-2.4078924241	-2.1455536046	 0.071087
51.4878	110.9982	167.5286	210.8038	214.424	242.0672	260.8995	308.2017	436.3655	490.4958	536.4353	650.0358	716.8496	781.2756	817.0811	844.4501	884.0377	891.689	948.2646	964.1277	1007.9157	1017.7089	1025.1016	1038.9912	1049.3553	1096.1128	1110.673	1154.7598	1164.7606	1175.7484	1196.0177	1212.9401	1246.8427	1283.9198	1294.2747	1303.6299	1326.353	1338.7277	1357.53	1363.3197	1394.43	1407.5202	1412.8737	1482.6606	1490.6407	1497.5299	1503.5434	1510.2104	1523.6559	3008.8354	3015.4296	3024.8048	3032.3242	3036.5292	3044.126	3056.5036	3062.1235	3062.7428	3095.2167	3099.5469	3107.0542	3111.0993	3127.494
CCC1C(C)C2OCC12	CC[C@H]1[C@@H](C)[C@H]2OC[C@@H]12	
InChI=1S/C8H14O/c1-3-6-5(2)8-7(6)4-9-8/h5-8H,3-4H2,1-2H3	InChI=1S/C8H14O/c1-3-6-5(2)8-7(6)4-9-8/h5-8H,3-4H2,1-2H3/t5-,6+,7+,8-/m1/s1
