16
gdb 60769	4.46109	0.8043	0.69737	2.8195	68.3	-0.2606	-0.0444	0.2163	1517.7894	0.12108	-475.079257	-475.069468	-475.068523	-475.116108	32.598	
C	-0.0618764459	 1.4800192286	 0.0013096939	-0.357948
N	-0.0286013622	 0.0180837654	 0.0184004592	-0.153118
C	 0.0307183293	-0.6254814279	 1.2622394778	 0.173799
O	 0.0622306203	-0.0359918764	 2.313618469	-0.308673
C	-0.0595082394	-0.7636821747	-1.1426463641	 0.441083
O	-0.0240484067	-1.9754595719	-1.1070574269	-0.33767
C	-0.1433426984	-0.0049849663	-2.4590336006	-0.436094
C	-0.217881205	-0.949697229	-3.6503345508	 0.1766
O	-0.9644469638	-0.7745088634	-4.5759082859	-0.236885
H	 0.7889480418	 1.8901125666	-0.5490118568	 0.140501
H	-0.9894884537	 1.8517342396	-0.4418769832	 0.145319
H	-0.0066612525	 1.8061496168	 1.0393167631	 0.181786
H	 0.0447419057	-1.7165474808	 1.1548151638	 0.146262
H	-1.0023324554	 0.6715822745	-2.4862686505	 0.156983
H	 0.7543559019	 0.6193540122	-2.5759851675	 0.15623
H	 0.4861052342	-1.8030374533	-3.6136292805	 0.111824
22.8345	46.7256	86.0706	150.2207	176.0138	184.5373	309.8898	317.7956	326.8576	391.2514	472.365	544.6548	583.8625	718.5398	799.0057	853.4042	979.3225	1036.7666	1057.8931	1058.8107	1108.5205	1152.449	1203.901	1259.0277	1300.9831	1359.1384	1416.0872	1422.9232	1424.5605	1451.3656	1503.8156	1508.4148	1777.7745	1813.7407	1840.0402	2954.4872	3022.1079	3050.4277	3082.2462	3099.5911	3115.3267	3164.0942
CN(C=O)C(=O)CC=O	CN(C=O)C(=O)CC=O	
InChI=1S/C5H7NO3/c1-6(4-8)5(9)2-3-7/h3-4H,2H2,1H3	InChI=1S/C5H7NO3/c1-6(4-8)5(9)2-3-7/h3-4H,2H2,1H3
