18
gdb 9754	3.40772	1.69593	1.54341	2.5514	69.13	-0.2349	0.0096	0.2445	913.9491	0.153274	-384.943735	-384.935663	-384.934718	-384.976027	30.453	
C	 0.038554338	 1.5066011072	-0.0434279748	-0.413466
C	-0.097199853	-0.0137809345	 0.0763067825	 0.309019
C	-1.5806431129	-0.4416851012	 0.098824371	-0.06712
O	-2.223785671	-0.1092945943	-1.1139295105	-0.423158
O	 0.4834814933	-0.6255424092	-1.1031619374	-0.319118
C	 1.4757641074	-1.5832657749	-0.7396674537	-0.129869
C	 1.5682983997	-1.4973690254	 0.7577968618	-0.09733
C	 0.6904657214	-0.6119793656	 1.213045914	-0.124287
H	 1.0856043913	 1.7852600173	-0.1843383543	 0.116148
H	-0.5472878009	 1.8630026967	-0.8937715925	 0.135733
H	-0.3364664868	 1.9978754648	 0.8606622486	 0.110337
H	-1.6300554597	-1.5234652198	 0.2987758748	 0.082049
H	-2.1178350675	 0.0754785563	 0.9015852053	 0.100846
H	-1.6503120992	-0.4590511636	-1.8080884576	 0.288899
H	 1.1825839799	-2.5882045485	-1.0830977775	 0.106374
H	 2.4258488261	-1.3376823144	-1.2381855343	 0.109883
H	 2.2618067775	-2.088501435	 1.3426578608	 0.109142
H	 0.5236145766	-0.3342736662	 2.2462366337	 0.105919
85.7037	129.9337	204.2252	224.6414	277.1988	339.0024	371.9835	456.6449	503.6313	523.6377	668.0932	737.6061	780.5482	816.1518	888.2599	925.46	941.9047	959.7013	972.2312	1045.6234	1063.5862	1076.7951	1110.6141	1148.4861	1185.3065	1209.7062	1215.5674	1254.6159	1351.9264	1378.6037	1381.0406	1401.2995	1434.2328	1481.8609	1494.8319	1502.1713	1521.0348	1691.1905	2974.702	2981.057	2996.5256	3043.1334	3069.7762	3115.589	3136.7911	3204.1368	3228.4331	3774.4189
CC1(CO)OCC=C1	C[C@@]1(CO)OCC=C1	
InChI=1S/C6H10O2/c1-6(5-7)3-2-4-8-6/h2-3,7H,4-5H2,1H3	InChI=1S/C6H10O2/c1-6(5-7)3-2-4-8-6/h2-3,7H,4-5H2,1H3/t6-/m1/s1
