14
gdb 129715	2.42075	1.87923	1.05879	3.6518	68.85	-0.2164	-0.0167	0.1997	1033.5117	0.102348	-470.035376	-470.027699	-470.026755	-470.067081	29.983	
N	-0.0259852408	 1.4543232648	-0.1564721524	-0.60155
C	-0.0238780513	 0.078217339	-0.0858754564	 0.162923
C	-1.1789444664	-0.6918006768	-0.0686705158	 0.310317
O	-2.372099375	-0.0350569573	-0.0613587964	-0.452342
C	-1.0466020248	-2.0840753632	-0.0542672704	-0.094585
N	 0.1179958929	-2.7191702455	-0.0498800231	-0.231797
N	 1.236136898	-1.9918154486	-0.0565564468	-0.31057
C	 1.1653031464	-0.6740070072	-0.0732722294	 0.406673
O	 2.328795871	 0.0198396964	-0.0703694624	-0.431798
H	 0.8254375524	 1.8991834777	 0.1501822514	 0.268765
H	-0.8725395104	 1.9023182525	 0.1594749828	 0.265562
H	-3.0908060717	-0.6754119164	-0.0311584861	 0.306566
H	-1.9319484662	-2.7173354439	-0.0441845254	 0.098936
H	 3.031511356	-0.6457982215	-0.0474201295	 0.3029
142.7747	254.3377	273.957	297.9219	321.0625	352.1569	390.251	493.8631	514.712	531.3424	541.7024	590.0173	607.8954	634.8751	713.9626	784.8401	886.8903	887.1671	994.6962	1129.0745	1158.7552	1223.4167	1284.1204	1312.6455	1342.8908	1372.4774	1445.8896	1527.8498	1616.9465	1637.605	1666.7708	3142.7863	3579.3078	3692.1892	3755.7878	3822.6756
NC1=C(O)C=NN=C1O	Nc1c(O)cnnc1O	
InChI=1S/C4H5N3O2/c5-3-2(8)1-6-7-4(3)9/h1H,(H2,5,6)(H2,7,8,9)	InChI=1S/C4H5N3O2/c5-3-2(8)1-6-7-4(3)9/h1H,(H2,5,6)(H2,7,8,9)
