20
gdb 109281	2.60564	1.22838	0.92984	3.217	83.18	-0.2461	0.0083	0.2545	1316.7821	0.171512	-403.175561	-403.166528	-403.165583	-403.210083	33.349	
C	-0.1967597394	 1.604738963	-0.2060658334	-0.374518
C	 0.0787851085	 0.1062689408	 0.0121107006	-0.284791
C	 0.8003627352	-0.5419428134	-1.1391898141	 0.327148
C	 2.0665385518	-0.9508733506	-1.0925165776	-0.193622
C	 2.7109148208	-1.5782862218	-2.2920226369	-0.123587
O	 2.2122922714	-1.0811826169	-3.5433951498	-0.246148
C	 0.9243128227	-0.6608712206	-3.6537200854	 0.395086
N	 0.4699434362	-0.1923689227	-4.7399596301	-0.518382
C	 0.0447067366	-0.7708076587	-2.4289707396	-0.391347
H	 0.7400513557	 2.1592192803	-0.3155730259	 0.124225
H	-0.7944635617	 1.7801747869	-1.1057836561	 0.12916
H	-0.7447487727	 2.0231708977	 0.6434947054	 0.117108
H	 0.666870368	-0.026478058	 0.9268254156	 0.103309
H	-0.8770038382	-0.4111591395	 0.1744505199	 0.105947
H	 2.6672751579	-0.8596906705	-0.1922599444	 0.093421
H	 3.7863488785	-1.377970379	-2.314091957	 0.126582
H	 2.5886643088	-2.6730163954	-2.2805752966	 0.118499
H	 1.199328248	-0.2046843073	-5.4562340234	 0.215342
H	-0.3964921938	-1.7797556068	-2.409699606	 0.13532
H	-0.7875764142	-0.0785028575	-2.5629966851	 0.141248
55.313	79.4414	112.4243	180.3386	213.2905	303.9269	338.5236	437.4605	447.481	489.0871	554.0738	588.2437	714.1356	788.4043	818.2516	823.506	893.0801	905.3088	948.5942	965.8628	984.6864	1033.5133	1062.6826	1075.308	1101.2884	1160.1092	1178.94	1214.2855	1255.6553	1273.3131	1308.8023	1319.1952	1353.8126	1378.616	1409.5085	1429.8816	1463.6683	1480.534	1499.3306	1504.614	1506.7021	1743.1425	1747.3939	2978.7236	2992.5495	3012.4962	3040.7654	3064.7801	3076.6668	3111.3133	3114.7378	3121.0421	3170.3897	3460.0205
CCC1=CCOC(=N)C1	CCC1=CCO[C]([NH])C1	
InChI=1S/C7H11NO/c1-2-6-3-4-9-7(8)5-6/h3,8H,2,4-5H2,1H3	InChI=1S/C7H11NO/c1-2-6-3-4-9-7(8)5-6/h3,8H,2,4-5H2,1H3
