15
gdb 6680	5.79846	0.85401	0.79117	3.3685	58.95	-0.2536	-0.0429	0.2107	1361.1669	0.115868	-436.96045	-436.951347	-436.950403	-436.996123	30.411	
N	-0.0485640718	 0.3196083348	-1.0758906828	-0.506851
C	 0.0696762384	 0.0032418879	 0.235978369	 0.360873
O	 0.8168281608	 0.5519975568	 1.0205255413	-0.360306
C	-0.8362559105	-1.1362741538	 0.7056697687	-0.164921
O	-1.6000248487	-1.6644212024	-0.3658185607	-0.251663
C	-2.4873420168	-2.6900696788	 0.0146773151	-0.158732
C	-1.7835698536	-4.0300881021	 0.2090836888	 0.130314
O	-2.2748935888	-4.9678189426	 0.7766759244	-0.220977
H	 0.5128358238	 1.0666954168	-1.4483409612	 0.264539
H	-0.6953064827	-0.17843968	-1.6626667982	 0.273588
H	-0.1942280233	-1.9002830846	 1.1665598297	 0.133116
H	-1.4909402332	-0.7393067319	 1.4952625435	 0.133331
H	-3.0564542646	-2.4394456779	 0.9213445808	 0.130326
H	-3.2057579764	-2.8120167812	-0.805949338	 0.144683
H	-0.7724260125	-4.074247031	-0.2582336104	 0.092681
30.0804	50.7233	76.2284	157.0554	202.0905	268.3583	295.2686	361.0418	454.7677	527.833	534.7408	593.8452	681.3603	724.4178	882.7919	1006.5722	1024.9101	1036.3997	1095.5151	1123.1454	1159.9903	1248.578	1275.4046	1344.815	1364.5551	1397.1654	1403.6102	1453.5923	1491.5731	1599.4114	1812.8386	1844.1603	2871.7301	3000.3517	3009.8262	3038.6195	3064.4098	3605.9115	3746.5511
NC(=O)COCC=O	NC(=O)COCC=O	
InChI=1S/C4H7NO3/c5-4(7)3-8-2-1-6/h1H,2-3H2,(H2,5,7)	InChI=1S/C4H7NO3/c5-4(7)3-8-2-1-6/h1H,2-3H2,(H2,5,7)
