17
gdb 123739	5.03041	1.00359	0.96389	1.8368	74.03	-0.2776	-0.0238	0.2538	1246.6733	0.139162	-414.16811	-414.160698	-414.159754	-414.201107	27.38	
C	-0.0453016543	 1.5247621605	-0.0710892213	-0.215267
C	 1.5053100944	 1.5107441825	-0.0318303886	-0.227902
C	 1.4408440083	 0.0790839852	 0.5876893495	-0.063404
C	-0.0220840341	-0.0213790481	 0.0516587807	-0.227915
C	 2.4318563398	-0.9329030824	 0.1469482528	 0.383285
N	 3.1962998572	-1.6492774689	 0.968807561	-0.271378
N	 3.8856145997	-2.3837536135	 0.1049907735	-0.072485
N	 3.5946427834	-2.1641113461	-1.1681501601	-0.098481
N	 2.6697567452	-1.2421604592	-1.1591377251	-0.260013
H	-0.4698396299	 1.9965805921	 0.81974659	 0.103321
H	-0.5239059693	 1.9538127808	-0.9535358494	 0.102867
H	 1.9348783984	 1.4745153295	-1.0359160145	 0.126449
H	 2.0177855068	 2.2807805207	 0.5491747705	 0.101483
H	 1.4546903159	 0.1247751122	 1.6788818821	 0.091457
H	-0.7570342829	-0.502613006	 0.7008208123	 0.101478
H	-0.0385165362	-0.5050253823	-0.9280533402	 0.12648
H	 4.5790751774	-3.058981307	 0.3900627467	 0.300026
43.6312	114.8575	143.0085	235.8065	395.3465	407.0081	571.259	575.3897	725.0007	735.8868	765.6535	813.8966	870.8434	921.2945	937.1141	947.1504	1009.0902	1033.6598	1037.0486	1077.308	1115.0278	1128.5287	1193.3314	1207.0468	1237.0531	1257.7365	1260.6767	1261.5275	1282.3282	1285.7011	1328.2846	1377.3635	1475.8446	1479.3186	1488.1464	1507.895	1546.1061	3060.6099	3064.2971	3068.96	3085.9143	3108.8574	3121.9046	3132.7093	3649.4702
C1CC(C1)C1=NNN=N1	C1CC(C1)c1n[nH]nn1	
InChI=1S/C5H8N4/c1-2-4(3-1)5-6-8-9-7-5/h4H,1-3H2,(H,6,7,8,9)	InChI=1S/C5H8N4/c1-2-4(3-1)5-6-8-9-7-5/h4H,1-3H2,(H,6,7,8,9)
