19
gdb 106127	2.89487	1.5955	1.42482	2.0541	77.81	-0.2418	-0.0033	0.2385	1014.2808	0.160839	-382.037555	-382.029955	-382.029011	-382.069725	29.9	
C	 0.053176857	 1.5352061647	-0.1961552035	-0.381095
C	 0.0024134806	 0.028293973	 0.0873280059	-0.325054
C	-1.3949771642	-0.5100645243	 0.1281093477	 0.368989
C	-1.9871910709	-1.8524375136	-0.10005133	-0.109738
C	-2.8935450319	-1.7241962392	 1.1213351538	-0.235602
C	-2.5857067677	-0.1859672459	 1.1045297629	-0.084853
N	-3.6378860871	 0.4267965035	 0.2786429704	-0.189315
C	-3.3852908493	 0.0186773405	-0.9002614396	 0.03012
N	-2.1786078337	-0.7240163016	-1.1057633243	-0.195472
H	 1.0860082456	 1.8952275556	-0.207160934	 0.114721
H	-0.3961859841	 1.7610803877	-1.1677184507	 0.132574
H	-0.4919550983	 2.1020210106	 0.5655861792	 0.123913
H	 0.558435872	-0.5186559679	-0.6826731664	 0.114006
H	 0.4932082513	-0.190674566	 1.044589818	 0.103071
H	-1.5559053577	-2.7570067227	-0.5119568915	 0.104861
H	-3.9465363866	-2.0098866827	 1.0504685519	 0.108897
H	-2.4238914306	-2.2151592471	 1.9772661561	 0.114051
H	-2.4228741233	 0.3257301618	 2.0505988513	 0.081154
H	-4.0243245512	 0.2074942135	-1.7570505672	 0.124773
77.5208	128.7347	201.8257	299.0751	339.0641	398.6237	444.3097	561.2113	592.4925	704.0588	742.2925	768.622	819.1183	869.3894	895.9958	899.5585	912.7019	955.8472	966.793	985.9233	995.1954	1014.5285	1067.5394	1105.4386	1118.1367	1134.4274	1167.9701	1176.5651	1236.4744	1255.8895	1286.55	1300.1861	1316.625	1346.9895	1408.0818	1438.3055	1470.6863	1482.3082	1497.5088	1506.3592	1658.9407	3024.4086	3039.4331	3057.9273	3065.8776	3109.2609	3115.9125	3117.3353	3140.4625	3187.1661	3194.5566
CCC12C3CC1N=CN23	CC[C@@]12[C@H]3C[C@@H]1[N][CH]N23	
InChI=1S/C7H10N2/c1-2-7-5-3-6(7)9(7)4-8-5/h4-6H,2-3H2,1H3	InChI=1S/C7H10N2/c1-2-7-5-3-6(7)9(7)4-8-5/h4-6H,2-3H2,1H3/t5-,6+,7-,9?/m0/s1
