17
gdb 43710	4.64468	1.22235	1.10111	4.2155	72.86	-0.2725	0.0125	0.285	1097.5976	0.137126	-421.805953	-421.799071	-421.798127	-421.837296	27.693	
O	 0.1327175226	 0.1362498025	-0.700947991	-0.317927
C	-0.029435981	 1.165889588	-0.1303027856	 0.421377
C	-1.1894155654	 2.0742507333	 0.2747457139	-0.53159
C	-0.0778406755	 2.943640372	 0.8738538976	 0.536627
O	 0.9288553986	 1.9794295564	 0.4210811535	-0.290325
C	 0.1702301749	 4.4474807085	 0.6554736268	-0.125213
C	-0.8918264205	 4.6675564883	 1.7762868263	-0.229097
C	 0.0146581946	 3.5122268066	 2.3017580605	-0.125216
C	 1.2338778657	 4.3462165707	 1.7946096221	-0.232589
H	-1.74100944	 2.4990235133	-0.5661048106	 0.146578
H	-1.8880605858	 1.6210698579	 0.9805946325	 0.146467
H	 0.2543546593	 4.9712922472	-0.296196913	 0.085173
H	-0.8132399227	 5.6109092706	 2.3196314534	 0.105411
H	-1.9314720759	 4.4263942544	 1.5410367359	 0.101278
H	-0.0796456928	 2.9633769608	 3.2382420485	 0.08517
H	 2.1467196851	 3.7956007742	 1.5680654515	 0.125296
H	 1.4370581588	 5.2710687955	 2.3392140276	 0.09858
100.0298	198.5404	242.9853	400.8447	420.0234	461.3172	524.7422	577.1852	608.422	761.1368	801.0076	812.7459	870.1493	893.9312	906.1055	925.1058	977.4101	1004.5934	1018.9996	1019.6396	1058.6185	1070.976	1083.2336	1117.1207	1160.9972	1176.422	1192.6143	1195.5973	1221.668	1233.4905	1246.2386	1255.6619	1338.3405	1453.7331	1498.3981	1533.9369	1941.7037	3063.3868	3071.8562	3084.8018	3120.9205	3124.7228	3131.0953	3140.4276	3150.5426
O=C1CC2(O1)C1CC2C1	O=C1C[C@@]2(O1)[C@H]1C[C@@H]2C1	
InChI=1S/C7H8O2/c8-6-3-7(9-6)4-1-5(7)2-4/h4-5H,1-3H2	InChI=1S/C7H8O2/c8-6-3-7(9-6)4-1-5(7)2-4/h4-5H,1-3H2/t4-,5+,7-
