19
gdb 98764	3.08625	1.21168	1.01518	4.4628	76.69	-0.2262	0.0364	0.2626	1225.9737	0.160579	-419.193171	-419.184448	-419.183504	-419.227307	32.055	
C	-0.1512529298	 1.4163683103	-0.7614194733	-0.332682
N	 0.0455922925	 0.0446309178	-1.1788757696	-0.309376
C	 0.9714792016	-0.7665071304	-0.6016388598	 0.378864
O	 1.7057982579	-0.4239077925	 0.312849521	-0.393215
C	 1.0243095436	-2.1873606856	-1.1609550855	-0.084214
C	-0.2261342681	-3.1408434536	-0.9877887715	-0.248164
C	-0.2126467511	-3.3706481306	-2.5013890573	-0.039078
N	-0.4156657556	-2.0412608428	-3.1275680361	-0.338876
C	 0.9416531564	-2.4486927681	-2.6765415665	-0.071012
H	 0.5181445437	 1.6053545327	 0.0788159677	 0.163904
H	 0.0835845146	 2.1209430666	-1.5684153964	 0.11818
H	-1.185346047	 1.5912514238	-0.4423673691	 0.118615
H	-0.4907475918	-0.3451138797	-1.94560392	 0.260741
H	 1.9133391457	-2.6503233855	-0.7332492963	 0.104584
H	 0.021520016	-4.030202998	-0.406448083	 0.117198
H	-1.1372755466	-2.6852498317	-0.5942483048	 0.11539
H	-0.47623478	-4.2706527318	-3.0425128524	 0.101199
H	-0.4505139376	-2.1750746046	-4.136767531	 0.235914
H	 1.7640133255	-2.4727533064	-3.3808473861	 0.102029
61.2497	85.4634	118.2179	168.9651	240.8267	264.873	351.8708	412.7233	479.5862	668.6951	682.1777	707.6174	755.2901	805.3258	823.5203	845.9987	913.2679	948.5809	963.6514	989.0227	1005.3296	1048.0714	1096.1487	1113.7096	1127.7067	1152.8913	1161.7544	1181.6345	1209.3019	1252.7298	1279.0694	1294.4817	1320.5783	1334.5553	1380.0015	1436.6216	1478.2157	1499.7734	1501.9504	1592.4344	1769.1255	3019.8633	3067.258	3076.2148	3116.9874	3137.9571	3148.8201	3186.3959	3200.3099	3487.2621	3522.0589
CNC(=O)C1CC2NC12	CNC(=O)[C@H]1C[C@H]2N[C@@H]12	
InChI=1S/C6H10N2O/c1-7-6(9)3-2-4-5(3)8-4/h3-5,8H,2H2,1H3,(H,7,9)	InChI=1S/C6H10N2O/c1-7-6(9)3-2-4-5(3)8-4/h3-5,8H,2H2,1H3,(H,7,9)/t3-,4+,5-/m0/s1
