23
gdb 116502	2.79252	1.21088	0.92156	1.9504	82.29	-0.2486	0.0806	0.3293	1359.022	0.206548	-425.438504	-425.429126	-425.428182	-425.472867	35.359	
C	-0.1379762905	 1.5207969599	-0.0578970777	-0.385872
C	-0.0271150895	-0.0026691809	 0.0053096192	-0.19576
C	 0.7771431809	-0.4938979573	 1.2027525767	 0.212947
O	 0.1039811615	-0.0978963554	 2.3753683828	-0.247634
C	 0.8811159635	 0.1764170104	 3.5330966054	-0.064485
C	 1.9783456552	-0.8531387047	 3.8530426684	-0.227616
C	 1.6350050158	-2.2903912455	 3.4353416533	-0.194818
C	 1.8045742013	-2.5318494002	 1.9302604311	-0.070623
O	 0.8480399341	-1.8953811267	 1.1029803599	-0.240959
H	 0.8484005303	 1.9911991924	-0.145293411	 0.107022
H	-0.7296000862	 1.8328698888	-0.923467488	 0.112099
H	-0.6180060756	 1.9098990307	 0.8436215311	 0.130298
H	-1.0205690815	-0.4591400102	 0.07393516	 0.114586
H	 0.4466964238	-0.3983182992	-0.8987099778	 0.101546
H	 1.7962819718	-0.0640322171	 1.1897211977	 0.049262
H	 1.3269036649	 1.1808697693	 3.4635224906	 0.09137
H	 0.1491234376	 0.2042256352	 4.3469786754	 0.10999
H	 2.9201502509	-0.5657696301	 3.3690712117	 0.10053
H	 2.170798627	-0.8049221462	 4.9313004474	 0.100233
H	 2.309360852	-2.9840473059	 3.9527168726	 0.095666
H	 0.613030016	-2.5502388745	 3.7331891847	 0.114027
H	 2.8227596017	-2.2247736689	 1.6324301146	 0.082523
H	 1.706188505	-3.599117124	 1.7091190518	 0.105667
66.9179	105.7883	128.2574	192.6293	216.7946	259.6622	319.4957	344.2051	372.0111	433.8005	515.7878	559.5859	624.6557	757.875	790.9175	829.5807	879.3187	909.3556	948.8734	969.3948	984.1771	993.039	1055.4391	1082.8684	1111.2463	1121.5886	1146.1493	1160.0193	1181.5549	1231.687	1257.5518	1286.7091	1302.9623	1312.285	1341.3827	1366.3012	1380.8156	1393.0413	1403.9113	1415.6292	1423.7733	1424.7987	1472.0065	1479.6244	1489.147	1496.5501	1499.0168	1510.4322	1511.3517	2926.8618	2951.3678	2982.5895	3024.9492	3030.4647	3034.907	3049.8581	3053.5613	3074.8731	3077.2696	3082.5551	3087.0274	3103.092	3124.6032
CCC1OCCCCO1	CCC1OCCCCO1	
InChI=1S/C7H14O2/c1-2-7-8-5-3-4-6-9-7/h7H,2-6H2,1H3	InChI=1S/C7H14O2/c1-2-7-8-5-3-4-6-9-7/h7H,2-6H2,1H3
