19
gdb 10308	2.45584	1.68447	1.06892	4.2174	72.67	-0.2453	0.0394	0.2847	1132.0409	0.16495	-361.24024	-361.230429	-361.229485	-361.274774	34.762	
C	 0.1203525231	 1.5143583957	 0.0681559371	-0.329726
N	-0.1110952812	 0.0826009964	-0.1163235327	-0.275274
C	 0.6414863019	-0.5174126459	-1.2114526307	-0.098036
C	 2.1056363247	-0.4568821663	-0.9801190725	 0.291971
N	 3.220636368	-0.3417406259	-0.6958363236	-0.340698
C	 0.1922162203	-1.9759076663	-1.4827754092	 0.009898
C	-1.3173172489	-2.050256064	-1.739286362	-0.391313
N	 1.0225201217	-2.5106562059	-2.5636044419	-0.50071
H	 1.1759467579	 1.780889694	 0.2309034871	 0.129045
H	-0.2350414848	 2.0543850991	-0.8161837775	 0.12639
H	-0.4623567644	 1.859576927	 0.9261320725	 0.126273
H	 0.109441081	-0.4103327466	 0.7439618196	 0.229138
H	 0.4310442851	 0.0714513454	-2.1154695252	 0.117282
H	 0.4327212045	-2.5583067939	-0.5835033021	 0.093926
H	-1.5784331627	-1.4901137222	-2.6458254267	 0.108284
H	-1.6206472158	-3.0912503627	-1.8890842523	 0.108796
H	-1.8887118146	-1.6287314568	-0.9097561461	 0.135016
H	 0.9234850238	-3.5191848115	-2.6135084581	 0.234346
H	 0.7030054007	-2.1484008797	-3.4587628156	 0.225394
62.7346	100.791	151.0283	185.9091	193.9464	231.8775	236.7719	276.6277	330.034	380.456	430.0902	454.1264	542.7903	608.1399	764.3845	846.2447	870.18	913.6765	983.9413	999.0502	1033.4771	1108.5649	1125.6619	1160.4273	1165.9773	1183.8317	1249.7879	1308.2581	1338.5243	1362.3811	1398.4009	1408.9671	1459.0885	1485.5974	1487.4566	1495.26	1500.8243	1521.5339	1661.5048	2343.1402	2988.9731	3012.3498	3026.3193	3033.1267	3069.784	3095.9362	3114.1144	3132.1517	3485.6829	3512.7078	3572.0933
CNC(C#N)C(C)N	CN[C@@H](C#N)[C@@H](C)N	
InChI=1S/C5H11N3/c1-4(7)5(3-6)8-2/h4-5,8H,7H2,1-2H3	InChI=1S/C5H11N3/c1-4(7)5(3-6)8-2/h4-5,8H,7H2,1-2H3/t4-,5+/m1/s1
