21
gdb 68843	2.32709	1.84764	1.41124	1.3018	81.32	-0.215	0.0894	0.3044	1037.1312	0.181932	-387.073804	-387.065308	-387.064364	-387.106132	34.135	
C	-0.1441863094	 1.4951464427	-0.0397366009	-0.465849
C	 0.0059086933	 0.0056253203	 0.0847292722	 0.404134
C	 1.3057321357	-0.7113105791	-0.2023188823	-0.399265
C	 0.7075708679	-0.7329673429	 1.2013124204	 0.259822
C	 1.4148956106	-0.0690973218	 2.3593102827	-0.477935
C	-0.1537416766	-1.9443751526	 1.4609370384	-0.133387
C	-1.5576753517	-1.6592045004	 1.9723165451	-0.333351
C	-1.2972619781	-1.8382854083	 0.4983818394	 0.102211
O	-1.1814053464	-0.6784292373	-0.2944117702	-0.303763
H	 0.7752661093	 2.0091343819	 0.2520886661	 0.116774
H	-0.3683172371	 1.7677404816	-1.0763440993	 0.130017
H	-0.9634552998	 1.8592894018	 0.5885970379	 0.121411
H	 1.27064985	-1.618147705	-0.7969159082	 0.110852
H	 2.1898344812	-0.0997197987	-0.3545558592	 0.10542
H	 1.9161341116	 0.8532714079	 2.0507891094	 0.114729
H	 0.7142157292	 0.1794428167	 3.1641354906	 0.118296
H	 2.1800478525	-0.7321952204	 2.779532597	 0.118313
H	 0.318455036	-2.8942932987	 1.6934775096	 0.086092
H	-2.0749020475	-2.4579508398	 2.4931522544	 0.110881
H	-1.7853824205	-0.6591259176	 2.3263895061	 0.116448
H	-1.7095464303	-2.6813447104	-0.0434692493	 0.098151
148.8229	186.1169	192.8824	205.1858	229.5587	347.3187	376.9826	424.6879	459.1663	463.0713	557.7948	662.2768	712.6183	737.1095	796.2089	825.8453	865.684	924.1647	936.4019	947.4223	960.8319	1003.4217	1010.4756	1036.3963	1039.1305	1055.9993	1106.1281	1115.2636	1134.2374	1147.3096	1176.399	1199.5181	1241.3548	1264.5347	1358.8029	1378.7898	1387.783	1415.0322	1427.66	1469.9658	1474.5926	1481.038	1491.2189	1495.1213	1509.5844	3025.6723	3037.1698	3084.3249	3099.7004	3102.0841	3119.6738	3123.2504	3128.4034	3146.7109	3180.2397	3212.3473	3219.277
CC12CC1(C)C1CC1O2	C[C@@]12C[C@]1(C)[C@H]1C[C@H]1O2	
InChI=1S/C8H12O/c1-7-4-8(7,2)9-6-3-5(6)7/h5-6H,3-4H2,1-2H3	InChI=1S/C8H12O/c1-7-4-8(7,2)9-6-3-5(6)7/h5-6H,3-4H2,1-2H3/t5-,6+,7+,8+/m0/s1
