13
gdb 64909	2.09382	1.71781	1.11901	6.0902	64.31	-0.3044	-0.0227	0.2817	1043.8556	0.08622	-452.727649	-452.718704	-452.71776	-452.761095	32.045	
O	-0.0836800743	 1.3639585096	-0.0788789916	-0.425582
C	 0.0087787491	-0.0150047597	-0.0062589029	 0.227788
C	-0.4676782784	-0.7294126539	 1.2478408309	-0.40366
C	-1.3398985584	-0.7407380976	 0.0031489939	 0.227516
O	-2.4406317687	 0.0955422372	-0.062571926	-0.425508
C	-1.4684821169	-1.9857326144	-0.7291138211	 0.265627
N	-1.6204274332	-2.9857096745	-1.2884001629	-0.331611
C	 1.1107187121	-0.5976831822	-0.7471292534	 0.265529
N	 2.0230169432	-1.0247832346	-1.3138248144	-0.331598
H	 0.6628381488	 1.7449965563	 0.3992969249	 0.3072
H	 0.0270749907	-1.6451164721	 1.5480955489	 0.16461
H	-0.8143359514	-0.0747295429	 2.0393149064	 0.152496
H	-3.1637591028	-0.3133654213	 0.4283530573	 0.307193
104.2841	115.1325	187.4433	205.4156	257.9398	258.826	274.919	333.7523	424.8714	441.591	477.1361	562.2444	597.6925	646.2588	687.984	760.0241	876.2903	904.0167	934.8202	1064.7929	1094.1237	1205.412	1270.423	1285.9117	1331.6299	1392.1462	1454.7334	2356.4286	2357.1609	3145.9839	3252.2272	3791.9569	3792.4185
OC1(CC1(O)C#N)C#N	O[C@]1(C[C@]1(O)C#N)C#N	
InChI=1S/C5H4N2O2/c6-2-4(8)1-5(4,9)3-7/h8-9H,1H2	InChI=1S/C5H4N2O2/c6-2-4(8)1-5(4,9)3-7/h8-9H,1H2/t4-,5+
