20
gdb 14096	2.95646	1.68423	1.47045	1.182	75.25	-0.2469	0.0792	0.3261	982.3041	0.176188	-348.977461	-348.968927	-348.967982	-349.010599	32.402	
C	-0.2664863278	 1.4672383671	 0.0586310073	-0.394988
C	 0.0421819659	-0.0226717361	-0.03837988	-0.043818
C	 1.2896639406	-0.3877875977	-0.9079292375	-0.221315
C	 2.0755757676	-0.784192271	 0.3777480154	-0.305993
C	 0.7717752483	-0.6412286845	 1.1698673378	 0.359162
C	 0.5833182908	-0.3263386465	 2.6333195941	-0.401708
C	 0.1772941712	-1.6701042185	 2.0749467334	 0.040903
O	-1.178734197	-1.9559848289	 1.8831600954	-0.420853
H	 0.6230315834	 2.0423025745	 0.3401667557	 0.109605
H	-0.6257010123	 1.853388497	-0.9018918688	 0.109877
H	-1.0413832991	 1.6651647534	 0.8070973293	 0.112337
H	-0.8646526558	-0.5699696913	-0.3099987594	 0.085102
H	 1.1130051808	-1.2295409199	-1.5813346523	 0.101581
H	 1.7128373966	 0.4359622241	-1.4889107085	 0.092935
H	 2.5350320201	-1.7770283776	 0.3798245721	 0.096193
H	 2.8390417176	-0.0531153661	 0.6614154836	 0.098595
H	 1.4591094671	-0.270748373	 3.273429626	 0.106478
H	-0.2184482534	 0.3576903882	 2.895822642	 0.110203
H	 0.795488049	-2.5328279068	 2.3303922255	 0.078563
H	-1.5832612737	-2.0774777565	 2.7483249188	 0.287142
40.9534	150.5755	200.8122	223.0979	240.7777	293.0448	348.6424	412.7908	439.3387	525.6679	571.2288	734.1261	766.5642	810.824	867.1201	880.4245	900.1597	939.5326	953.6997	992.5037	1033.6143	1041.8164	1087.6978	1101.1426	1144.7971	1163.6485	1183.4825	1201.9384	1235.6141	1249.1684	1259.1418	1276.9986	1302.0226	1337.99	1366.5128	1405.3647	1422.2669	1475.4959	1485.4076	1494.5198	1496.3461	1498.281	3022.9119	3043.3673	3058.7687	3065.4609	3079.1758	3086.3048	3091.454	3093.9589	3115.4417	3115.5292	3203.5126	3806.3566
CC1CCC11CC1O	C[C@H]1CC[C@]21C[C@H]2O	
InChI=1S/C7H12O/c1-5-2-3-7(5)4-6(7)8/h5-6,8H,2-4H2,1H3	InChI=1S/C7H12O/c1-5-2-3-7(5)4-6(7)8/h5-6,8H,2-4H2,1H3/t5-,6+,7+/m0/s1
