15
gdb 18442	2.96934	2.21548	1.66648	4.2578	64.45	-0.2712	0.0181	0.2893	802.1006	0.119949	-362.645002	-362.63808	-362.637136	-362.675983	26.578	
O	 0.121965441	 1.4008625614	-0.2246998743	-0.430148
C	-0.0057428852	 0.0315947503	 0.0129736018	 0.140108
C	 0.2377248661	-0.5730530584	 1.446417208	-0.300002
C	-1.1098962903	-1.2908959171	 1.3314515696	-0.059505
C	-2.2326390541	-0.283510273	 1.1852139078	-0.183579
C	-2.1822658033	 1.0181201924	 1.7985331079	 0.291534
N	-2.1036838473	 2.0686755061	 2.2797187771	-0.353602
C	-1.3882920953	-0.6466500279	-0.0226257275	-0.104409
H	-0.3920832788	 1.8866111654	 0.4316637898	 0.300831
H	 0.6524762182	-0.4579754272	-0.7093153814	 0.104814
H	 1.0960675063	-1.2458290374	 1.4809523095	 0.116446
H	 0.3205944155	 0.1501333105	 2.262383863	 0.125852
H	-1.3313206728	-2.2979292715	 1.6606636909	 0.108111
H	-3.2285285908	-0.7149651565	 1.1671791514	 0.139171
H	-1.8731982091	-1.0574213571	-0.9001768338	 0.104377
128.8222	151.1551	232.1276	333.961	403.1349	441.7572	496.2441	563.3839	628.6713	724.7097	770.0009	789.7712	841.7908	917.1984	945.3186	964.529	1007.8305	1013.055	1051.441	1073.2586	1125.4517	1158.7382	1170.931	1223.2722	1259.5015	1294.2353	1314.4706	1336.2567	1402.2971	1445.31	1488.5257	2339.0504	3067.5079	3080.8254	3127.4562	3166.4734	3184.5684	3202.1607	3786.161
OC1CC2C(C#N)C12	O[C@H]1C[C@H]2[C@@H](C#N)[C@@H]12	
InChI=1S/C6H7NO/c7-2-4-3-1-5(8)6(3)4/h3-6,8H,1H2	InChI=1S/C6H7NO/c7-2-4-3-1-5(8)6(3)4/h3-6,8H,1H2/t3-,4+,5-,6-/m0/s1
