23
gdb 65267	3.05672	1.16521	1.00016	1.6727	84.63	-0.2585	0.0812	0.3396	1304.9516	0.20668	-388.293771	-388.284653	-388.283709	-388.328062	34.957	
C	 0.0197365362	 1.495798701	-0.513764136	-0.460504
C	-0.0146650666	 0.0513851462	-0.0567959775	 0.392691
C	 1.1979320294	-0.7652430196	-0.2209927995	-0.233253
O	 0.8432698731	-0.2365960527	 1.06151095	-0.274022
C	-1.3976717887	-0.5811207296	 0.0103822534	-0.015748
C	-1.442210606	-2.0802029482	 0.3656101673	-0.229868
C	-2.8728563284	-2.2894331284	 0.8786947325	-0.209016
C	-3.1270195521	-1.0431176252	 1.7477873462	-0.202048
C	-2.3158725617	 0.0984639271	 1.0768243994	-0.215388
H	 1.0404546476	 1.884764238	-0.4840468863	 0.123818
H	-0.3592512872	 1.5861749946	-1.5377745513	 0.117785
H	-0.602846467	 2.1249818702	 0.1300316087	 0.128381
H	 1.1270755788	-1.8468164996	-0.3139513835	 0.110608
H	 2.0833264564	-0.3224389168	-0.6770049579	 0.105457
H	-1.8570422105	-0.4500909406	-0.9786724494	 0.067879
H	-1.1915012819	-2.725708254	-0.4813711213	 0.088563
H	-0.7237623675	-2.2804426916	 1.1694776857	 0.115684
H	-3.5706224835	-2.3115684078	 0.0319019535	 0.09268
H	-3.0008951537	-3.2269744813	 1.4275324894	 0.092052
H	-4.1901632059	-0.8048550982	 1.8410323811	 0.092599
H	-2.7518467557	-1.2202144892	 2.7611346217	 0.103556
H	-1.709351507	 0.6260435065	 1.8185082517	 0.112264
H	-2.970780518	 0.8420940093	 0.6142961321	 0.095829
49.2575	80.0891	184.6908	195.5198	205.0613	278.3534	336.0353	371.0473	452.4222	516.2254	538.6796	604.5714	731.3393	790.2329	832.9344	865.004	868.6203	906.0632	918.7726	937.0836	974.2402	979.0457	1008.389	1024.1487	1046.4199	1082.0206	1113.2239	1135.9396	1164.9046	1185.9173	1195.1063	1233.2568	1244.1125	1277.5846	1300.8648	1322.5608	1325.1151	1343.5688	1349.9714	1387.0666	1391.3562	1414.9234	1482.9196	1488.8618	1492.9809	1496.0625	1497.8653	1515.4315	1534.362	3008.415	3025.8662	3037.0339	3037.6463	3044.7603	3056.366	3080.4957	3082.9373	3086.091	3091.3998	3101.8469	3104.8162	3123.2917	3170.9087
CC1(CO1)C1CCCC1	C[C@]1(CO1)C1CCCC1	
InChI=1S/C8H14O/c1-8(6-9-8)7-4-2-3-5-7/h7H,2-6H2,1H3	InChI=1S/C8H14O/c1-8(6-9-8)7-4-2-3-5-7/h7H,2-6H2,1H3/t8-/m0/s1
