13
gdb 25368	3.98462	1.07413	0.84606	4.0054	84.75	-0.2384	-0.0742	0.1642	1257.739	0.088291	-419.436021	-419.428402	-419.427458	-419.468469	27.925	
O	 0.0602247174	-0.0884450575	-0.0016441135	-0.271376
C	 0.0330693515	 1.1208549353	 0.0087804397	 0.052291
C	 1.1971912353	 1.9944704901	 0.0023322826	 0.247763
C	 1.2865945834	 3.3658017198	 0.0129012116	-0.207763
C	 2.6653667914	 3.6796194866	-0.0008799114	-0.278846
C	 3.3317628025	 2.475068884	-0.0189623676	 0.22763
O	 2.4422864929	 1.4471678346	-0.0170681124	-0.183014
C	 4.7026895961	 2.1662386657	-0.0378756712	 0.242
C	 5.8809854351	 1.9196160483	-0.0539717642	-0.38594
H	-0.9215730911	 1.6909046014	 0.0250625558	 0.080653
H	 0.4555390197	 4.0542480789	 0.0286017532	 0.136973
H	 3.1263938644	 4.6539877921	 0.0018586999	 0.13251
H	 6.9199661413	 1.6979679408	-0.0681991826	 0.207118
120.0413	129.3431	152.4696	217.2215	301.3408	451.5637	486.18	532.1063	587.3496	588.7591	646.846	692.8668	701.9477	783.0016	817.0378	875.5856	984.2932	997.7866	1016.6421	1049.9256	1212.0729	1234.3447	1302.4894	1380.5583	1429.1687	1522.6947	1596.7365	1788.0183	2234.9172	2892.2116	3255.3723	3274.8855	3499.5424
O=CC1=CC=C(O1)C#C	O=Cc1ccc(o1)C#C	
InChI=1S/C7H4O2/c1-2-6-3-4-7(5-8)9-6/h1,3-5H	InChI=1S/C7H4O2/c1-2-6-3-4-7(5-8)9-6/h1,3-5H
