25
gdb 58969	2.20997	1.21491	0.9711	0.1805	96.62	-0.2147	0.0383	0.2531	1413.0298	0.228564	-352.392297	-352.381839	-352.380895	-352.427791	39.148	
C	-0.0476119618	 1.6040281492	 0.0970199786	-0.385579
C	-0.0038969801	 0.064547213	 0.0550960065	-0.082562
C	 0.8183670658	-0.4870098432	 1.2369925614	-0.382714
C	-1.3887636414	-0.5332817699	 0.0153367747	 0.265664
C	-1.9046192578	-1.3478676328	-0.9178443839	 0.193951
C	-1.2673409735	-1.8710177478	-2.1683662581	-0.500423
C	-3.3481120677	-1.7008100687	-0.614384335	-0.282186
C	-3.5284630834	-1.2596718829	 0.8539624865	-0.209199
C	-2.4220173737	-0.2070307628	 1.0839018127	-0.300279
H	 0.9651539346	 2.0197692056	 0.0666524349	 0.107799
H	-0.6067017437	 2.0083350906	-0.7525841593	 0.112893
H	-0.5248629579	 1.9640605233	 1.0148325242	 0.115937
H	 0.5193496757	-0.2222215363	-0.8645980272	 0.069561
H	 0.3692140467	-0.2147813766	 2.1982600473	 0.114608
H	 0.8853191811	-1.5783061442	 1.1953266594	 0.113141
H	 1.8358228028	-0.081551595	 1.2220811068	 0.107354
H	-1.2584569368	-2.9689599683	-2.1742166735	 0.121306
H	-1.8390081506	-1.5650090548	-3.0548522328	 0.121376
H	-0.2383436088	-1.5287727938	-2.30126915	 0.12228
H	-4.0237565392	-1.1573446382	-1.2928053656	 0.096602
H	-3.5624833917	-2.766156352	-0.7659294277	 0.092891
H	-4.5312483687	-0.8818239029	 1.0707009392	 0.090922
H	-3.3554286819	-2.1167255989	 1.5131858044	 0.100513
H	-2.0184006706	-0.242424192	 2.1022756874	 0.095944
H	-2.8047455376	 0.8148019394	 0.945972869	 0.100199
41.0048	119.6453	149.8509	165.656	200.3749	220.3397	238.3093	250.8697	276.7298	367.6293	376.8222	486.38	564.2194	592.3721	608.9294	697.9711	845.535	878.062	896.0668	920.5685	926.0067	933.2966	962.005	1000.0909	1013.8981	1038.2492	1066.6635	1088.5551	1118.1772	1157.734	1176.9717	1213.2294	1222.0614	1238.3135	1266.4878	1327.2735	1329.574	1339.5531	1358.0582	1363.6515	1392.9567	1414.8017	1416.571	1480.022	1483.8459	1486.3562	1487.6176	1490.0348	1494.0603	1501.9294	1506.6842	1511.9424	1728.2525	2989.1983	2998.7973	3012.4825	3027.7065	3031.572	3032.451	3033.6189	3045.0168	3052.9053	3057.6935	3093.4753	3095.6278	3100.1668	3103.5612	3107.4146	3114.2454
CC(C)C1=C(C)CCC1	CC(C)C1=C(C)CCC1	
InChI=1S/C9H16/c1-7(2)9-6-4-5-8(9)3/h7H,4-6H2,1-3H3	InChI=1S/C9H16/c1-7(2)9-6-4-5-8(9)3/h7H,4-6H2,1-3H3
