12
gdb 19492	3.82339	2.0856	1.92838	4.3502	57.61	-0.2686	-0.0118	0.2568	712.3769	0.085793	-377.522049	-377.516079	-377.515135	-377.552313	22.13	
N	-0.0098839896	-1.1674563678	 0.0038522929	-0.336699
C	 0.0148183931	-0.0112900594	 0.0148828365	 0.327038
C	 0.0400484447	 1.4211810765	 0.0412409138	-0.257147
C	 0.4976903207	 2.1845843575	 1.273985301	 0.051958
O	 1.2450456814	 1.4557141767	 2.2218898771	-0.193378
C	 2.3827261772	 1.0845611766	 1.5693944315	 0.108645
N	 2.5517639143	 1.478593517	 0.3715691964	-0.239599
C	 1.3600677053	 2.2109043376	 0.0325729034	-0.0376
H	-0.7713033435	 1.9005647315	-0.4967032885	 0.147193
H	-0.1034341237	 2.9730872517	 1.7058706074	 0.137154
H	 3.0616879015	 0.4736118318	 2.1490838364	 0.165182
H	 1.4579217687	 3.0361124902	-0.6608431678	 0.127253
128.1124	149.9405	350.9154	379.3212	516.3013	646.6771	684.0131	744.2039	767.0367	793.4155	879.0182	942.0794	946.1673	984.4939	1004.5109	1066.106	1082.286	1098.7931	1117.4418	1174.8238	1283.6911	1323.2291	1353.1575	1386.1675	1662.8925	2357.8268	3171.4254	3200.0519	3213.415	3251.4104
N#CC1C2OC=NC12	N#C[C@H]1[C@H]2OC=N[C@@H]12	
InChI=1S/C5H4N2O/c6-1-3-4-5(3)8-2-7-4/h2-5H	InChI=1S/C5H4N2O/c6-1-3-4-5(3)8-2-7-4/h2-5H/t3-,4+,5-/m1/s1
