19
gdb 33104	6.17348	0.77849	0.70042	2.288	80.24	-0.2066	0.0394	0.2459	1630.9629	0.159036	-419.243818	-419.234185	-419.233241	-419.279639	33.535	
C	 0.0141862265	 1.3986027495	-0.0228340019	-0.219546
O	-0.0088104311	-0.0064663608	 0.0058202111	-0.23388
C	 0.6601199309	-0.585625276	-1.0936884057	-0.167351
C	 0.582135925	-2.0727134703	-0.9802693474	 0.246247
C	-0.0280148572	-2.8178852325	-0.0100724956	-0.172222
N	 0.1942056324	-4.1313574966	-0.376250633	-0.280057
C	 0.9176708973	-4.1247719882	-1.5351590508	 0.338129
C	 1.3505069598	-5.3679135967	-2.2386580044	-0.49934
N	 1.166562701	-2.8915223142	-1.9225716342	-0.352033
H	 1.0430473172	 1.7922972009	 0.0051444206	 0.103606
H	-0.4784338319	 1.7983175394	-0.9238962026	 0.103554
H	-0.5233624441	 1.7539717347	 0.8598345069	 0.123408
H	 0.2077351352	-0.2521727818	-2.044242052	 0.099594
H	 1.715286113	-0.2616348075	-1.1231172747	 0.099831
H	-0.5778039222	-2.5444625562	 0.8730404147	 0.135163
H	-0.1216655721	-4.9448999974	 0.1239898354	 0.259339
H	 0.4968224164	-5.9832183606	-2.5461081298	 0.129422
H	 1.9094048227	-5.0848354323	-3.1313184818	 0.156707
H	 1.9968654513	-5.9909461234	-1.6094061348	 0.12943
36.0655	71.5922	81.5431	125.8122	203.6899	226.8909	303.405	304.4125	350.563	442.5488	512.4435	652.8162	686.6112	699.2105	741.2536	765.9525	969.7981	994.3176	1010.4798	1049.2979	1050.2103	1062.0028	1107.9793	1164.3666	1184.8646	1226.4031	1239.5747	1245.7797	1273.9255	1362.5341	1412.1922	1425.9998	1442.4946	1481.462	1483.9536	1484.0074	1501.0768	1502.5868	1523.4757	1576.9313	1618.949	2943.9576	2961.8156	2968.073	3008.9795	3028.6321	3076.8409	3111.138	3148.8863	3294.7104	3666.1154
COCC1=CNC(C)=N1	COCc1c[nH]c(C)n1	
InChI=1S/C6H10N2O/c1-5-7-3-6(8-5)4-9-2/h3H,4H2,1-2H3,(H,7,8)	InChI=1S/C6H10N2O/c1-5-7-3-6(8-5)4-9-2/h3H,4H2,1-2H3,(H,7,8)
