15
gdb 30086	2.49952	1.83785	1.06627	6.3729	72.22	-0.2114	-0.0345	0.1769	1056.6849	0.114026	-454.01837	-454.010355	-454.009411	-454.051403	29.337	
C	-0.0114662779	 1.4579089131	-0.0166767861	-0.360711
N	 0.0099244507	-0.003246334	-0.0126915602	-0.14108
C	 0.0429239324	-0.6741881168	-1.2314868026	-0.023921
C	 0.0634154008	-2.0116349388	-1.2857734672	-0.069199
N	 0.0514975194	-2.7437460956	-0.1094055813	-0.365208
C	 0.0192001751	-2.1943309859	 1.1561109033	 0.332555
O	 0.0100883641	-2.8688824603	 2.1600478473	-0.338107
C	-0.0039222816	-0.6616494128	 1.2105758127	 0.318612
O	-0.0331207918	-0.0828671825	 2.2750252039	-0.352431
H	 0.8828853579	 1.8500115514	-0.5110801568	 0.138552
H	-0.8994274929	 1.8240131658	-0.5416336053	 0.1386
H	-0.0341760393	 1.7905755411	 1.0192000952	 0.182685
H	 0.0509086681	-0.057488094	-2.1177849709	 0.134042
H	 0.0892226398	-2.563843145	-2.2127267808	 0.14093
H	 0.0666947152	-3.7537083455	-0.1347657511	 0.264681
72.4976	95.1098	152.9997	245.4461	330.9431	377.2627	462.9636	476.7896	523.0417	550.2334	579.5404	661.3886	704.67	711.819	805.4051	845.7559	875.1404	1004.5872	1072.3686	1125.8463	1152.9575	1189.4494	1230.6924	1324.0288	1385.4911	1419.2925	1458.9236	1474.3209	1504.352	1504.8392	1718.4168	1780.6847	1810.5821	3039.8394	3099.6773	3178.7443	3239.2715	3257.9492	3608.1037
CN1C=CNC(=O)C1=O	Cn1cc[nH]c(=O)c1=O	
InChI=1S/C5H6N2O2/c1-7-3-2-6-4(8)5(7)9/h2-3H,1H3,(H,6,8)	InChI=1S/C5H6N2O2/c1-7-3-2-6-4(8)5(7)9/h2-3H,1H3,(H,6,8)
