17
gdb 45844	2.30075	1.64663	1.0917	3.6751	75.66	-0.2478	-0.0289	0.219	1096.2145	0.136295	-421.871066	-421.863148	-421.862204	-421.903822	30.068	
O	-0.014345983	-0.0642486481	-0.1445043791	-0.285333
C	-0.0637331782	 1.1341650999	-0.0320748668	 0.383738
C	-1.3928299807	 1.8964544223	-0.0088876808	-0.348597
C	-1.6901838138	 2.3219809751	 1.4104099357	-0.05783
C	-0.9727487381	 3.2338956359	 2.0693184206	-0.057829
C	 0.2190668463	 3.9453111965	 1.4715131827	-0.348596
C	 1.3522420722	 2.933988655	 1.2683867964	 0.383735
O	 2.313471771	 2.8946024992	 1.9934817569	-0.285333
C	 1.2201003908	 1.9659564286	 0.085441539	-0.38873
H	-1.3177181757	 2.7729018288	-0.6665914479	 0.118071
H	-2.1668881393	 1.2334976415	-0.3968335753	 0.130207
H	-2.5002901373	 1.8063046355	 1.9162753044	 0.112208
H	-1.2041110103	 3.4538422877	 3.1067138483	 0.112208
H	-0.0441173862	 4.3917566289	 0.5031148931	 0.118069
H	 0.5857590876	 4.732358069	 2.131265875	 0.130207
H	 2.0731160644	 1.2871202039	 0.0961510772	 0.146685
H	 1.2697865404	 2.5841642003	-0.8242511096	 0.13712
89.9568	96.6988	171.6517	301.0482	305.0105	424.3863	436.6232	444.2639	533.3568	549.293	617.3674	701.7669	719.6383	838.65	842.5989	897.9401	924.519	953.2402	990.5449	1001.4508	1012.7315	1110.4624	1141.1961	1188.6256	1231.071	1246.3278	1260.1373	1262.0643	1290.1699	1302.9104	1398.4956	1445.1673	1468.594	1482.619	1698.678	1811.5775	1829.6613	3007.6211	3016.9324	3023.6336	3127.0366	3127.8426	3139.9374	3171.078	3192.1879
O=C1CC=CCC(=O)C1	O=C1CC=CCC(=O)C1	
InChI=1S/C7H8O2/c8-6-3-1-2-4-7(9)5-6/h1-2H,3-5H2	InChI=1S/C7H8O2/c8-6-3-1-2-4-7(9)5-6/h1-2H,3-5H2
