23
gdb 104606	2.13169	1.24954	1.00577	1.6284	82.3	-0.2395	0.0774	0.3169	1342.6778	0.202639	-425.404551	-425.393859	-425.392914	-425.4407	39.697	
C	-0.8715870739	-1.4136606192	-0.7929649291	-0.4042
C	 0.0011736639	-1.2200252208	-2.0342367645	 0.139209
C	-0.7567897185	-0.5480548015	-3.1747139818	-0.385236
O	 1.1299012422	-0.3800656253	-1.7756520594	-0.327513
C	 2.2000112081	-0.8476068887	-0.9851433464	 0.405973
C	 2.4661713157	 0.1332044872	 0.1370161767	-0.110294
O	 1.3557034405	 0.2841929867	 1.0023052669	-0.420383
C	 2.479682716	-2.309848009	-0.7675220349	-0.325399
C	 3.3818626313	-1.4866579949	-1.6650528439	-0.307982
H	-0.286842696	-1.7827326739	 0.0524035707	 0.14178
H	-1.3359195301	-0.464463132	-0.5004067324	 0.110474
H	-1.6753717473	-2.1282474708	-0.9991152045	 0.111263
H	 0.3467984023	-2.2033155387	-2.3835035646	 0.071352
H	-1.0925715987	 0.448726187	-2.8714520553	 0.120069
H	-0.1141844478	-0.4396779041	-4.0521847802	 0.121263
H	-1.6347562636	-1.1387097518	-3.4526704861	 0.113397
H	 3.300101578	-0.2192538975	 0.7519595793	 0.101587
H	 2.7583797149	 1.0998366601	-0.3032021932	 0.092354
H	 0.626970421	 0.5800047812	 0.4455318153	 0.284312
H	 2.8420083191	-2.6035570343	 0.2121576474	 0.12099
H	 1.8486074729	-3.0523153623	-1.2406354787	 0.119476
H	 3.2934648502	-1.6476247645	-2.7338815163	 0.116451
H	 4.38256282	-1.2386272829	-1.3262298052	 0.111057
35.386	71.3643	109.1599	186.6371	207.0529	221.9708	255.9022	289.2524	326.1608	364.6101	384.682	422.3268	464.9655	504.5089	543.982	730.8269	765.9301	823.3318	883.4461	906.0187	926.3127	930.9097	945.8768	955.4129	1023.2152	1039.8993	1053.9186	1074.1542	1081.3128	1147.0574	1164.7527	1186.8304	1193.3598	1198.9468	1293.7692	1334.7059	1365.3904	1377.2434	1388.8365	1397.2535	1414.7974	1430.2616	1459.2337	1478.729	1484.5931	1491.3003	1494.4538	1501.2379	1508.656	2981.0067	2996.7353	3029.8922	3042.0823	3082.0649	3094.4873	3114.9898	3123.2947	3128.9791	3130.844	3136.9692	3211.9071	3226.3164	3808.5517
CC(C)OC1(CO)CC1	CC(C)OC1(CO)CC1	
InChI=1S/C7H14O2/c1-6(2)9-7(5-8)3-4-7/h6,8H,3-5H2,1-2H3	InChI=1S/C7H14O2/c1-6(2)9-7(5-8)3-4-7/h6,8H,3-5H2,1-2H3
