19
gdb 79911	2.44048	1.62493	1.36243	2.2999	76.01	-0.2318	0.0029	0.2348	1038.0977	0.159583	-423.019967	-423.011586	-423.010642	-423.052394	33.081	
C	 0.0570699062	 1.4731974934	 0.0245891039	-0.489239
C	 0.0047459788	-0.0176742502	-0.0343808789	 0.277309
C	-0.0246662707	-0.8146216046	-1.1092547262	-0.229792
C	 0.0118122163	-2.2656795417	-0.7433533399	-0.1347
C	 1.2608286082	-2.7069994481	-0.0078951046	 0.099931
O	 2.4337334201	-1.9299918638	 0.0124743103	-0.43152
C	 0.0445562774	-2.2947330394	 0.7810708251	-0.136623
C	 0.0172757909	-0.8387379547	 1.2611155504	 0.043323
O	 1.0875829558	-0.4931403459	 2.1301447229	-0.44283
H	 0.9063376052	 1.7974274636	 0.6360442856	 0.142624
H	 0.139799413	 1.9233013705	-0.9681062837	 0.119251
H	-0.8417974569	 1.8748781845	 0.5104129779	 0.129857
H	-0.0355688485	-0.4737938017	-2.139730107	 0.095982
H	-0.535090761	-2.9916757035	-1.3344248782	 0.091165
H	 1.4976759675	-3.7663616455	-0.0293726797	 0.108199
H	 2.2955943055	-1.1858954683	-0.5883630457	 0.287166
H	-0.4832718544	-3.0463055528	 1.3554393231	 0.090447
H	-0.8948464425	-0.6354582566	 1.837477282	 0.087933
H	 1.8855373892	-0.8529249753	 1.7168223528	 0.291516
124.4603	173.9942	190.7452	233.1269	281.7492	320.4582	334.3424	378.7388	543.4945	552.3518	585.279	619.9607	702.5917	746.7238	769.2088	799.5464	843.095	887.8436	922.8279	974.5079	1021.6866	1022.9218	1050.2656	1059.6339	1071.9045	1085.4521	1105.5775	1188.2227	1197.7694	1270.3211	1282.1973	1311.8384	1330.7321	1339.1039	1362.094	1408.0677	1424.4323	1454.2206	1473.053	1489.3716	1704.3	3019.0808	3022.9636	3076.5545	3116.6469	3154.9886	3169.3047	3180.1275	3186.5308	3728.3711	3756.2068
CC1=CC2C(O)C2C1O	CC1=C[C@H]2[C@@H](O)[C@H]2[C@H]1O	
InChI=1S/C7H10O2/c1-3-2-4-5(6(3)8)7(4)9/h2,4-9H,1H3	InChI=1S/C7H10O2/c1-3-2-4-5(6(3)8)7(4)9/h2,4-9H,1H3/t4-,5-,6+,7-/m1/s1
