16
gdb 86848	3.55711	1.15069	0.92668	4.7062	72.29	-0.2524	0.0123	0.2647	1233.0103	0.123794	-437.897082	-437.888424	-437.88748	-437.930799	31.023	
C	-0.0597917809	 1.4462779362	-0.1304923782	-0.338492
N	-0.0183130303	 0.0013726939	-0.1210021874	-0.138493
C	-1.1597109698	-0.8083546724	 0.2365391365	-0.205614
C	-0.5354702028	-2.2245580312	 0.1638123911	-0.048516
O	 0.8796830586	-1.9971915874	 0.3172350616	-0.249629
C	 1.1619947846	-0.6759237119	 0.0826824408	 0.489918
O	 2.2785935174	-0.2366601754	 0.0594772558	-0.39643
C	-1.0288325341	-3.1475766815	 1.1714322502	 0.309729
C	-1.4684986232	-3.9050892625	 1.9925665806	-0.433586
H	 0.9557204226	 1.8052450142	-0.3033147418	 0.170851
H	-0.7144977929	 1.8094862999	-0.9295376053	 0.128195
H	-0.421974587	 1.8470714617	 0.8265443736	 0.1239
H	-1.5283749944	-0.5826987358	 1.247455438	 0.121497
H	-1.989047199	-0.6967583548	-0.4684590045	 0.127935
H	-0.6928033451	-2.6492281494	-0.8358175351	 0.127169
H	-1.8463478438	-4.5807337438	 2.7202662441	 0.211567
69.151	128.1723	149.9369	180.1566	205.141	255.9202	301.7184	444.4627	480.8642	562.9496	633.7956	665.1408	674.256	687.8653	764.5063	818.42	884.8107	1041.4362	1045.1078	1056.7933	1082.8146	1148.921	1158.2382	1214.8361	1269.1571	1310.8283	1345.1378	1370.6051	1428.6308	1452.1513	1491.8258	1513.9338	1539.5114	1878.146	2249.0167	3001.2416	3008.5118	3024.6701	3073.455	3075.7882	3149.5524	3501.6286
CN1CC(OC1=O)C#C	CN1C[C@@H](OC1=O)C#C	
InChI=1S/C6H7NO2/c1-3-5-4-7(2)6(8)9-5/h1,5H,4H2,2H3	InChI=1S/C6H7NO2/c1-3-5-4-7(2)6(8)9-5/h1,5H,4H2,2H3/t5-/m0/s1
