22
gdb 112973	3.86948	0.91222	0.8295	2.1061	82.35	-0.2394	0.0733	0.3128	1487.9532	0.194522	-404.311896	-404.30253	-404.301585	-404.346968	34.501	
C	-0.1340633546	 1.5843695179	-0.2051284159	-0.381941
C	 0.4040161379	 0.1649117631	-0.0068714988	-0.188091
C	 0.5268716906	-0.5971999449	-1.3159532084	 0.166376
C	 0.7590082068	-2.1206678164	-1.2394765318	-0.32876
C	-0.6575763464	-2.2343123411	-1.852312315	 0.114222
O	-0.7670096979	-0.7946212295	-1.9585919023	-0.316943
C	-0.7929543374	-2.920225065	-3.1888800556	-0.007751
C	-1.725852441	-2.3846340026	-4.2063997169	-0.240087
N	-0.2644686867	-2.2802823507	-4.400482757	-0.323209
H	 0.5420665425	 2.1810347253	-0.8275919424	 0.113597
H	-1.1085483386	 1.554891337	-0.7006886642	 0.136379
H	-0.2515765556	 2.1015240553	 0.7515231011	 0.112872
H	 1.3942691584	 0.1916553751	 0.4674416097	 0.097354
H	-0.2551019511	-0.3965116919	 0.6672749325	 0.098207
H	 1.205820356	-0.0651699466	-1.9965556695	 0.074684
H	 1.5569535061	-2.5001025183	-1.8796689111	 0.119012
H	 0.8750065456	-2.5245458735	-0.2320165398	 0.107599
H	-1.409877682	-2.6347593519	-1.1583239142	 0.080906
H	-0.6273248554	-3.9960557993	-3.1438009141	 0.090136
H	-2.2362929727	-3.0589489454	-4.8878204244	 0.114829
H	-2.2667420897	-1.4766500214	-3.9562996696	 0.125818
H	 0.0032655351	-1.3275712252	-4.1557347423	 0.23479
46.0834	87.6769	106.9258	144.0475	210.8644	243.126	251.5066	368.4767	435.2242	475.828	609.6187	700.0833	761.7148	809.7767	843.4761	855.7562	911.6609	931.7334	952.9194	981.5346	986.9851	996.2322	1015.0345	1049.1647	1097.5957	1106.3841	1124.9174	1135.8497	1150.2011	1185.0213	1207.8987	1255.6174	1265.4102	1278.0486	1290.8775	1302.3109	1314.0074	1349.366	1373.9806	1405.4724	1411.4772	1418.2561	1475.0192	1488.7755	1497.393	1502.7825	1509.5143	3000.498	3005.0487	3018.5727	3036.442	3057.8194	3077.2987	3103.4921	3113.0516	3117.8578	3119.7525	3134.347	3204.4117	3475.134
CCC1CC(O1)C1CN1	CC[C@H]1C[C@@H](O1)[C@H]1CN1	
InChI=1S/C7H13NO/c1-2-5-3-7(9-5)6-4-8-6/h5-8H,2-4H2,1H3	InChI=1S/C7H13NO/c1-2-5-3-7(9-5)6-4-8-6/h5-8H,2-4H2,1H3/t5-,6+,7+/m0/s1
