18
gdb 35272	3.44777	0.90019	0.79823	1.8894	78.87	-0.2373	0.0277	0.265	1439.5491	0.145655	-401.849967	-401.841003	-401.840059	-401.884543	32.865	
C	-0.4366874145	-1.1539744025	 0.0100428827	-0.467553
C	-0.2023168434	 0.0137933541	 0.1792231972	 0.342171
C	 0.0440476281	 1.4201407406	 0.345398105	-0.175221
C	 1.0710566841	 1.8935658137	 1.3330257132	-0.243803
N	 1.3069720291	 2.0419147781	-0.0919070315	-0.091347
C	 2.325003956	 1.1898825815	-0.7004161199	-0.182382
C	 3.6434003057	 1.928392872	-0.7235271047	 0.100927
C	 4.6921329892	 1.6807222281	 0.2739270998	-0.171128
O	 4.7897512309	 1.1430603913	-1.0463936264	-0.237115
H	-0.6406667381	-2.1866149775	-0.1310798203	 0.203238
H	-0.8238283814	 2.0519971825	 0.1703827921	 0.120354
H	 0.8968681781	 2.8094356624	 1.8910985469	 0.123558
H	 1.6185697603	 1.1198489429	 1.8682387741	 0.121169
H	 2.4539099312	 0.2235258184	-0.1900188776	 0.106453
H	 2.0125169183	 0.9743032085	-1.72869621	 0.121201
H	 3.6113980675	 2.9074235187	-1.202152024	 0.101472
H	 5.4088569991	 2.464462477	 0.5145678734	 0.116969
H	 4.5222460697	 0.9483715001	 1.0626490499	 0.111039
57.2635	79.9209	98.057	195.3049	210.0906	319.2805	345.7864	405.5504	442.2787	531.5157	600.5477	616.9283	668.1146	759.6915	824.506	846.5872	882.8148	898.7221	917.0479	1011.0964	1029.8145	1044.5493	1106.4487	1116.9996	1122.2932	1140.1067	1155.7755	1172.9327	1179.0925	1266.5329	1284.3734	1319.6431	1365.6434	1372.3673	1447.5234	1489.3654	1506.9748	1531.0979	2233.1041	2994.8055	3064.0237	3081.2854	3097.6689	3113.625	3128.5358	3168.3355	3188.2912	3502.8879
C#CC1CN1CC1CO1	C#C[C@H]1CN1C[C@H]1CO1	
InChI=1S/C7H9NO/c1-2-6-3-8(6)4-7-5-9-7/h1,6-7H,3-5H2	InChI=1S/C7H9NO/c1-2-6-3-8(6)4-7-5-9-7/h1,6-7H,3-5H2/t6-,7-,8?/m0/s1
