18
gdb 81976	2.48355	1.45647	1.32693	1.8722	77.88	-0.2362	0.0399	0.2761	1064.6389	0.145399	-401.860339	-401.851374	-401.85043	-401.893401	34.493	
C	-0.1587299304	 1.6160904463	 0.0486011768	-0.448159
C	-0.0071434536	 0.0965723563	 0.0138327854	 0.04692
C	-1.2999851597	-0.5477577399	-0.1661587166	 0.307806
C	-2.3625450818	-1.0760849558	-0.3593191012	-0.424772
C	 1.0882309017	-0.5159643178	-0.9610410083	 0.045629
O	 1.9061623354	 0.3620735105	-1.6937496009	-0.42247
C	 1.7567475272	-1.0828576802	 0.2747896107	-0.025399
C	 2.0720154597	-0.0185301076	 1.2430268181	-0.24644
N	 0.6912971677	-0.5373000391	 1.215657901	-0.147952
H	 0.805604571	 2.1217556635	-0.0162346258	 0.130468
H	-0.76986198	 1.9497725893	-0.7949044003	 0.124394
H	-0.6630217878	 1.9154859194	 0.9718808577	 0.137736
H	-3.3043423094	-1.5430697634	-0.5099129138	 0.192838
H	 0.6483245156	-1.2896429668	-1.5979858222	 0.089747
H	 1.4495930124	 0.5964153502	-2.5083420994	 0.289473
H	 2.1330493844	-2.0954045765	 0.3675197466	 0.096841
H	 2.595691086	-0.314959066	 2.1464453973	 0.124709
H	 2.2987879817	 0.9837046975	 0.8978364947	 0.128631
124.3085	145.4192	160.8364	190.4315	225.3255	302.0359	329.2741	388.3423	459.6986	490.2873	534.1093	586.1782	621.1635	635.3277	644.8109	762.0514	774.9179	827.0973	888.5428	933.3555	971.3537	1003.3838	1062.6375	1089.7955	1107.8745	1127.9802	1140.5249	1178.4285	1193.1744	1227.8584	1245.3481	1308.9407	1372.2508	1400.0738	1440.0994	1479.8168	1489.0301	1513.0437	2233.9288	3050.0148	3056.8807	3117.9328	3132.1738	3142.5375	3175.8226	3220.759	3501.553	3815.9045
CC1(C#C)C(O)C2CN12	C[C@@]1(C#C)[C@@H](O)[C@H]2CN12	
InChI=1S/C7H9NO/c1-3-7(2)6(9)5-4-8(5)7/h1,5-6,9H,4H2,2H3	InChI=1S/C7H9NO/c1-3-7(2)6(9)5-4-8(5)7/h1,5-6,9H,4H2,2H3/t5-,6+,7-,8?/m1/s1
