12
gdb 5420	3.73991	2.03045	1.31598	4.3402	58.13	-0.2242	-0.0327	0.1915	834.7848	0.085383	-414.737877	-414.731312	-414.730368	-414.76872	23.974	
O	-0.0720855732	-0.0475974595	-0.00055096	-0.304504
C	-0.0223170507	 1.1563562686	 0.0079491397	 0.173158
N	 1.170358473	 1.8682093414	 0.0000185838	-0.14569
C	 2.4627239779	 1.320298794	-0.018581875	-0.096207
C	 3.3288280164	 2.3461297936	-0.0203165945	-0.078507
N	 2.5961819585	 3.5350458187	-0.0030835941	-0.376612
C	 1.2376424355	 3.2860157309	 0.0100804318	 0.498993
O	 0.3150152507	 4.0683648886	 0.0264312051	-0.40969
H	-0.8905364778	 1.8324718181	 0.022888314	 0.133889
H	 2.6053344776	 0.254987695	-0.0283453678	 0.170921
H	 4.4051630477	 2.344802572	-0.0322787093	 0.156114
H	 2.9648589646	 4.4698596187	 0.0001376164	 0.278136
132.9482	207.0587	212.2275	294.3919	401.8848	445.8203	608.7388	617.5036	696.7617	698.5097	773.8352	820.0243	836.8969	918.1366	1047.663	1075.7337	1086.3781	1177.2765	1229.2874	1313.705	1392.9839	1415.8694	1430.6317	1648.4686	1810.3287	1852.166	3038.8928	3286.1397	3316.7711	3691.861
O=CN1C=CNC1=O	O=Cn1cc[nH]c1=O	
InChI=1S/C4H4N2O2/c7-3-6-2-1-5-4(6)8/h1-3H,(H,5,8)	InChI=1S/C4H4N2O2/c7-3-6-2-1-5-4(6)8/h1-3H,(H,5,8)
