20
gdb 84163	2.72072	1.33332	1.00143	3.3786	83.87	-0.2464	0.0142	0.2606	1247.5484	0.170762	-403.177144	-403.167753	-403.166809	-403.212474	34.169	
C	-0.0230389291	 1.5193817391	 0.0410526178	-0.385388
C	 0.0296066711	-0.0273588467	 0.0305551638	-0.113582
C	 0.6797551584	-0.5440600882	-1.2199845772	-0.166683
C	 1.9141786926	-1.0372195127	-1.2433732482	 0.269475
C	 2.6187087885	-1.5021240961	-2.4865504316	-0.479508
C	 2.7091665686	-1.1340933579	 0.0262926899	-0.143822
O	 1.9716504752	-1.0051955775	 1.2421632155	-0.258263
C	 0.694775924	-0.5367360534	 1.295238389	 0.374551
N	 0.0651576842	-0.5043475082	 2.394716036	-0.515118
H	 0.985333274	 1.9453905508	 0.0374527925	 0.116176
H	-0.5468684136	 1.8877044612	-0.8467099914	 0.113039
H	-0.5479613488	 1.8677371649	 0.9330934914	 0.143633
H	-1.0048145982	-0.3832963825	 0.0815966594	 0.114824
H	 0.1080504621	-0.4582144396	-2.141358595	 0.088703
H	 3.5610345813	-0.9599070574	-2.6386262583	 0.127688
H	 2.8765862328	-2.5670527973	-2.4259084311	 0.129602
H	 1.9967323397	-1.3514427955	-3.3721712299	 0.129889
H	 3.2114654975	-2.1085510983	 0.0850197843	 0.121147
H	 3.5055895228	-0.3736562422	 0.0301020563	 0.119828
H	 0.6545356569	-0.8637508725	 3.148260537	 0.213809
34.4271	46.2876	137.0604	182.164	236.2946	255.2334	304.2176	371.1261	428.2532	453.4101	471.5968	584.1064	666.1114	712.4638	762.2688	859.6977	896.4964	901.4042	931.4351	989.4928	996.2157	1016.2206	1064.4803	1081.4398	1088.3645	1132.8695	1168.6468	1203.8097	1263.3736	1299.9575	1316.4764	1342.3664	1375.7916	1402.1393	1414.05	1439.8339	1478.0765	1490.0201	1493.0699	1498.392	1506.9905	1737.2738	1763.4519	2985.3707	3016.7304	3031.929	3037.1916	3051.7278	3062.9991	3106.7939	3118.0872	3133.661	3150.6976	3463.8752
CC1C=C(C)COC1=N	C[C@H]1C=C(C)CO[C]1[NH]	
InChI=1S/C7H11NO/c1-5-3-6(2)7(8)9-4-5/h3,6,8H,4H2,1-2H3	InChI=1S/C7H11NO/c1-5-3-6(2)7(8)9-4-5/h3,6,8H,4H2,1-2H3/t6-/m0/s1
