17
gdb 125315	3.73492	1.0233	0.82919	2.0219	81.34	-0.2296	0.0218	0.2514	1370.6259	0.135673	-380.856627	-380.847701	-380.846757	-380.891545	31.872	
C	 0.4523404094	 1.417327087	-0.1014896712	-0.504477
C	 0.0894377012	-0.0320197202	 0.0118282607	 0.181813
C	 0.5015309958	-1.0754903769	-0.7937757208	-0.115179
N	-0.0575482872	-2.2100480065	-0.2987045123	 0.041542
C	-0.0254538952	-3.5566745713	-0.8512391981	-0.279811
C	 1.2598386364	-3.8986488788	-1.4485146756	 0.291906
C	 2.3041614149	-4.1922106425	-1.9632595878	-0.435205
N	-0.8290143282	-1.9735129357	 0.7804430686	-0.263919
C	-0.7378431222	-0.6603085645	 0.9720242707	-0.073837
H	 1.016834135	 1.765348435	 0.7711716727	 0.130429
H	 1.0692271619	 1.6011204405	-0.9855609086	 0.122746
H	-0.4371768834	 2.0519092584	-0.1824814825	 0.129368
H	 1.1515383029	-1.1008918045	-1.6538521905	 0.138873
H	-0.2622714025	-4.2298224599	-0.022347439	 0.167305
H	-0.8220470931	-3.6743549154	-1.5986214276	 0.152238
H	 3.2325616068	-4.4565721085	-2.4065621791	 0.20826
H	-1.2639730028	-0.2055670863	 1.7998082005	 0.107947
38.0037	63.3193	98.6386	178.0429	259.0144	291.1641	325.9946	383.8413	468.8626	621.2716	625.722	642.8906	668.3595	682.8615	786.1751	801.7427	874.7478	969.7292	984.3136	1000.4908	1015.9594	1034.0446	1065.76	1170.4964	1205.8258	1232.0291	1326.6128	1372.437	1390.4128	1413.8881	1427.6481	1460.2053	1485.9021	1491.2862	1508.8256	1613.8069	2248.0102	3014.0564	3029.4484	3079.3372	3091.0095	3108.6067	3234.1687	3264.9244	3503.782
CC1=CN(CC#C)N=C1	Cc1cn(CC#C)nc1	
InChI=1S/C7H8N2/c1-3-4-9-6-7(2)5-8-9/h1,5-6H,4H2,2H3	InChI=1S/C7H8N2/c1-3-4-9-6-7(2)5-8-9/h1,5-6H,4H2,2H3
