18
gdb 31496	3.22506	1.0512	0.8242	0.6958	78.05	-0.1792	0.033	0.2122	1376.8045	0.146881	-439.118478	-439.108656	-439.107712	-439.153715	35.075	
C	 0.5497079348	 1.2905513924	 0.2029952083	-0.512388
C	 0.1634270228	-0.1268214658	-0.047312707	 0.22187
C	-0.2478931811	-0.7492407174	-1.207103932	 0.265722
O	-0.3896947227	-0.0913279846	-2.4000144839	-0.456069
C	-0.4693307797	-2.126899358	-0.9316962776	-0.392904
C	-0.1960763799	-2.3182760553	 0.4085985156	 0.282763
C	-0.2724776075	-3.5303614194	 1.2750836122	-0.18017
O	 0.8738165778	-3.6754206097	 2.1153738991	-0.418549
N	 0.1749095866	-1.1058673047	 0.9279327104	-0.34267
H	 1.5882241693	 1.3882999774	 0.5456479813	 0.120581
H	 0.4534499436	 1.8568546776	-0.7259999716	 0.150357
H	-0.0887956518	 1.7725669596	 0.9545737385	 0.122916
H	-0.7002407491	-0.7191209051	-3.0576037148	 0.294376
H	-0.8030541325	-2.8850883769	-1.6256125251	 0.085525
H	-1.1163268564	-3.4766417901	 1.9746211088	 0.117396
H	-0.4352028011	-4.4145386795	 0.6420158281	 0.101058
H	 1.6452291113	-3.692378557	 1.5379184832	 0.281016
H	 0.5018248657	-0.9853408435	 1.8715284563	 0.259171
55.8305	75.2768	124.3588	153.662	207.4032	242.3576	263.3411	313.3745	357.4009	396.9734	488.4219	503.2898	614.5426	642.013	673.5619	697.4767	755.6037	807.4358	965.1149	993.1066	1024.803	1047.0957	1062.1457	1106.4195	1170.3403	1202.527	1238.1377	1294.3585	1339.6482	1358.2891	1410.9207	1419.2101	1464.4501	1483.8815	1491.6537	1503.1906	1514.0878	1551.0781	1678.2774	3001.1178	3009.4337	3041.0889	3050.1678	3126.6118	3230.5149	3671.7084	3799.0596	3852.7298
CC1=C(O)C=C(CO)N1	Cc1c(O)cc(CO)[nH]1	
InChI=1S/C6H9NO2/c1-4-6(9)2-5(3-8)7-4/h2,7-9H,3H2,1H3	InChI=1S/C6H9NO2/c1-4-6(9)2-5(3-8)7-4/h2,7-9H,3H2,1H3
