22
gdb 117640	2.58341	1.0322	0.89887	5.0589	78.69	-0.2432	0.024	0.2672	1423.0123	0.192611	-441.525813	-441.515271	-441.514326	-441.561318	38.757	
C	-0.0296529963	 1.6434856126	-0.076403804	-0.394801
C	 0.1496467745	 0.1441567721	 0.1446873174	-0.122603
N	 0.51958107	-0.5118688743	-1.115752263	-0.33997
H	-0.1500854645	-0.2225581419	-1.8253150364	 0.224095
H	 2.004058363	-0.6092472238	-2.2277341851	 0.29437
C	 0.5960176502	-1.9937414516	-1.1454236789	 0.10202
C	 1.3327637147	-2.5332813488	 0.0946455093	-0.410506
C	-0.7770603175	-2.6657143555	-1.2902911436	-0.41399
C	 1.4851061315	-2.37406288	-2.3634656399	 0.430522
O	 2.2689171119	-1.3761544896	-2.7885973743	-0.377611
O	 1.4970728295	-3.4740117483	-2.8497501385	-0.353844
H	 0.8835766665	 2.0879116136	-0.4829757774	 0.129572
H	-0.8471461139	 1.8469630161	-0.7776833898	 0.118583
H	-0.2697004579	 2.1441184103	 0.8656699581	 0.12544
H	 0.9494798712	-0.0235119318	 0.8714773934	 0.120039
H	-0.7714286068	-0.276835229	 0.5795735724	 0.094845
H	 0.7321412556	-2.4108045338	 1.0000453602	 0.120441
H	 1.5257989418	-3.59893178	-0.0456091141	 0.148022
H	 2.2920231989	-2.0268539011	 0.2383202	 0.127537
H	-1.3060150495	-2.2892883043	-2.1727559273	 0.11477
H	-0.6582454518	-3.7435712318	-1.4137184623	 0.150845
H	-1.3963986112	-2.4757551589	-0.408112406	 0.112225
65.3307	87.1532	122.8081	170.7612	219.043	248.833	257.332	296.4275	300.8608	324.663	371.6842	386.9376	414.1902	543.1279	627.739	741.5434	767.3039	799.4533	826.0082	858.8289	934.8391	944.6072	962.5039	993.8185	1028.142	1083.1686	1129.5613	1145.9132	1181.3958	1224.3328	1241.9832	1255.1879	1307.3811	1384.4235	1395.4146	1411.5882	1416.7396	1438.2161	1475.7872	1483.2314	1490.1564	1497.6991	1504.317	1506.2574	1513.7981	1527.0929	1861.8856	2970.4685	3035.0513	3036.6425	3045.2124	3077.3099	3102.068	3105.8673	3116.7193	3121.4146	3133.2386	3140.7654	3409.4436	3482.7536
CC[NH2+]C(C)(C)C([O-])=O	CCNC(C)(C)C(=O)O	
InChI=1S/C6H13NO2/c1-4-7-6(2,3)5(8)9/h7H,4H2,1-3H3,(H,8,9)	InChI=1S/C6H13NO2/c1-4-7-6(2,3)5(8)9/h7H,4H2,1-3H3,(H,8,9)
