21
gdb 91669	3.20172	1.2296	1.09425	0.8651	88.89	-0.2475	0.0546	0.3021	1206.9144	0.183612	-349.917471	-349.909222	-349.908277	-349.949801	33.469	
C	-0.1015585624	 1.5353477404	 0.0200943966	-0.418925
C	 0.0630958171	 0.0165656298	 0.0287578967	 0.039982
C	 1.0086615549	-0.5630109226	-1.0843803525	-0.246726
C	 1.9813599742	-1.3669395484	-0.2024492921	-0.012497
C	 1.0204614651	-2.0464258516	 0.8140175417	-0.244667
C	 0.7763005096	-0.5789792957	 1.2642617925	-0.018092
C	 2.2944257081	-0.3267426582	 0.9336490229	-0.175939
C	 3.2414552825	-0.7516585072	 1.9440029519	 0.292265
C	 4.0413800292	-1.082078267	 2.7799640481	-0.435089
H	 0.8583439487	 2.0547131484	 0.1114551312	 0.116793
H	-0.5662574248	 1.8711226319	-0.9131995856	 0.114704
H	-0.7388872445	 1.8677527186	 0.8467972381	 0.113638
H	-0.9322273644	-0.4352695732	-0.0531485773	 0.069486
H	 0.479060462	-1.1980731296	-1.800249947	 0.096291
H	 1.514979275	 0.2273159209	-1.6484657669	 0.095764
H	 2.7868981453	-1.9121850081	-0.6938380578	 0.068226
H	 0.1671989489	-2.6037981538	 0.4160784637	 0.085909
H	 1.5483327784	-2.6372906392	 1.5630411086	 0.115976
H	 0.3729824019	-0.3332207507	 2.2470397865	 0.065736
H	 2.551658794	 0.6805771861	 0.5905611166	 0.089449
H	 4.7462601212	-1.3753625008	 3.5175766541	 0.187714
127.8201	151.4936	205.7149	222.1922	285.9768	384.5728	432.2107	475.6507	501.5594	516.7084	605.1213	629.3448	632.3549	794.1991	832.2062	846.6214	873.1243	891.4855	920.5541	944.5327	956.5153	995.933	1035.1406	1048.7162	1049.2459	1069.2863	1088.5537	1130.876	1147.4357	1190.3472	1208.3923	1236.5107	1238.7573	1268.3119	1277.9832	1307.9939	1316.1526	1357.5887	1381.0812	1415.099	1492.8413	1498.693	1499.7799	1510.4406	2230.0559	3028.6147	3029.25	3045.4259	3051.301	3058.3292	3090.0674	3094.7828	3099.2082	3113.1223	3119.017	3136.5345	3505.3807
CC1CC2CC1C2C#C	C[C@H]1C[C@@H]2C[C@H]1[C@H]2C#C	
InChI=1S/C9H12/c1-3-8-7-4-6(2)9(8)5-7/h1,6-9H,4-5H2,2H3	InChI=1S/C9H12/c1-3-8-7-4-6(2)9(8)5-7/h1,6-9H,4-5H2,2H3/t6-,7+,8-,9+/m0/s1
