19
gdb 78163	2.2776	1.74327	1.36342	4.2685	76.52	-0.2468	0.0313	0.2782	1041.2005	0.159948	-419.206541	-419.198157	-419.197213	-419.239254	32.133	
C	-0.0443362762	 1.498907139	 0.2401416957	-0.426823
C	 0.0250870876	 0.014341774	-0.0310869227	-0.000544
C	 0.649925632	-0.6501570911	-1.2038537685	-0.076597
C	 1.635296446	 0.073744167	-2.1081079874	 0.103758
C	 1.0952057429	 1.1553212372	-3.0314825431	-0.41187
O	 2.5994161665	 0.620341772	-1.1886167148	-0.257803
C	 2.4454667205	 0.0570670229	 0.0576260369	 0.424258
N	 3.218907265	 0.2447239325	 1.0339506531	-0.541385
N	 1.2902032613	-0.7715941373	 0.1221935473	-0.15398
H	 0.796817658	 2.0516674073	-0.1790448343	 0.145033
H	-0.9694237436	 1.9072694242	-0.1800906598	 0.123625
H	-0.060530102	 1.6762959288	 1.3200484214	 0.142524
H	-0.8052873568	-0.5358877792	 0.4071107516	 0.107824
H	 0.2005585478	-1.5557609333	-1.6012918749	 0.104851
H	 2.1518795084	-0.6833993209	-2.7149105544	 0.098433
H	 0.5591847295	 1.9305149095	-2.4809085521	 0.131882
H	 1.9137457958	 1.6228227692	-3.5853812207	 0.135601
H	 0.4076422381	 0.7078916647	-3.7562663038	 0.125998
H	 3.9859355293	 0.8573927934	 0.7573650506	 0.225213
116.785	137.1636	188.1341	215.5382	232.7373	278.9961	352.6529	442.3819	490.1382	551.3315	665.2714	690.3058	746.6096	763.0985	789.5989	852.8212	868.7925	925.5963	935.4608	994.7311	1018.9244	1044.2114	1076.9163	1095.5847	1125.6013	1141.4208	1170.5805	1175.8809	1250.9698	1316.5527	1368.6282	1375.503	1395.4032	1411.0099	1419.4333	1440.5519	1485.6975	1495.4877	1498.7522	1503.6646	1778.3909	3002.3239	3044.496	3050.3346	3103.4816	3117.8038	3122.7298	3140.6594	3148.5655	3153.2232	3498.1014
CC1C2C(C)OC(=N)N12	C[C@H]1[C@H]2[C@@H](C)O[C]([NH])N12	
InChI=1S/C6H10N2O/c1-3-5-4(2)9-6(7)8(3)5/h3-5,7H,1-2H3	InChI=1S/C6H10N2O/c1-3-5-4(2)9-6(7)8(3)5/h3-5,7H,1-2H3/t3-,4+,5-,8?/m0/s1
