16
gdb 19759	3.6964	2.27158	2.20012	0.7266	61.87	-0.2286	0.0685	0.2971	708.0457	0.13334	-383.729424	-383.723567	-383.722623	-383.759014	24.429	
O	-0.0374642749	 1.443700283	 0.0552481812	-0.43532
C	-0.0002072523	 0.0308465224	-0.002261776	 0.128645
C	-1.3813116125	-0.5531158757	-0.2397234384	-0.121885
C	-1.5836773696	-0.6075874739	-1.7580021492	-0.108129
C	-0.3187527521	-0.0412660534	-2.394147969	-0.220378
C	 0.6323622329	-0.5594597202	-1.2979856632	-0.000865
O	 0.2990511479	-1.9501276364	-1.1850262848	-0.260152
C	-1.1052611289	-1.8237842732	-1.0036203815	 0.08604
H	 0.8514474907	 1.7566834284	 0.251450728	 0.284655
H	 0.4756874966	-0.3981955109	 0.8903505455	 0.071607
H	-2.1938083141	-0.4431396855	 0.4646696408	 0.092173
H	-2.5626816725	-0.5478300986	-2.2127742581	 0.089454
H	-0.0963167963	-0.4796375937	-3.3706296673	 0.10093
H	-0.3169601697	 1.0482370115	-2.4566323415	 0.115544
H	 1.7055357799	-0.4425539413	-1.4397886924	 0.07333
H	-1.632945735	-2.7601306525	-0.893867894	 0.104351
221.9573	292.6594	314.2026	447.928	515.4837	589.4721	667.142	735.8766	802.8956	811.3271	816.5779	893.2408	923.3973	935.8963	960.1157	972.8545	1014.0398	1025.5283	1044.0999	1060.84	1074.0303	1082.8704	1125.5144	1162.7047	1211.2835	1231.6715	1248.2348	1273.8752	1301.2588	1314.6921	1344.5714	1385.5838	1428.8207	1475.1417	3011.9171	3070.305	3131.8871	3139.2787	3210.8508	3215.7818	3229.667	3814.079
OC1C2C3CC1OC23	O[C@H]1[C@H]2[C@H]3C[C@@H]1O[C@@H]23	
InChI=1S/C6H8O2/c7-5-3-1-2-4(5)6(2)8-3/h2-7H,1H2	InChI=1S/C6H8O2/c7-5-3-1-2-4(5)6(2)8-3/h2-7H,1H2/t2-,3+,4-,5-,6-/m1/s1
