22
gdb 58480	2.31224	1.30131	0.99421	1.7711	89.38	-0.2404	0.0369	0.2772	1303.9372	0.191584	-367.158841	-367.14854	-367.147596	-367.193798	39.42	
C	 0.298846399	-0.4599849902	 1.4336382343	-0.389909
C	 0.0445325112	 0.1197003927	 0.0339852602	-0.033491
C	 0.2605713992	 1.6442459662	 0.0811567281	-0.397478
C	 0.8770968747	-0.552099829	-1.0770110439	 0.321341
C	 1.0692743722	 0.2596497355	-2.3482086574	-0.470453
N	 2.0001142372	-1.3935658962	-0.6407323032	-0.351463
C	 0.8387213392	-2.0427934915	-1.2969850804	-0.296267
C	 0.0374554006	-2.9862934773	-0.5665856159	 0.370954
C	-0.6599566029	-3.8119966948	-0.0381678409	-0.42229
H	 0.1412665998	-1.5371986482	 1.4752062416	 0.135509
H	 1.326330671	-0.2618480384	 1.7508639783	 0.121015
H	-0.3808119811	 0.0122862172	 2.1507343426	 0.097239
H	-1.0095865758	-0.0556793556	-0.225154052	 0.081718
H	 1.3106764511	 1.8882380717	 0.2800124892	 0.116347
H	-0.0345386368	 2.1449971494	-0.844603445	 0.109852
H	-0.3342595148	 2.0764765398	 0.8915725651	 0.112643
H	 1.6761657869	 1.1513197415	-2.1638386005	 0.128421
H	 1.5729778141	-0.3352586331	-3.1168558992	 0.109865
H	 0.1095071286	 0.5906461139	-2.7596489742	 0.128835
H	 2.7723291819	-1.3405490673	-1.301376801	 0.228868
H	 0.9759259266	-2.338001851	-2.3364823439	 0.103605
H	-1.270042172	-4.5309911252	 0.4500267581	 0.195139
36.7564	137.878	148.9713	218.8788	250.5135	255.4085	273.682	308.7335	361.572	367.7134	376.1953	413.8575	501.011	555.9055	591.9745	612.8327	654.198	669.1851	795.4339	855.0834	913.5989	927.8953	951.5228	968.5582	977.0178	1028.9006	1050.7329	1115.4865	1127.8186	1144.577	1190.8251	1209.8211	1272.7342	1330.7295	1341.1598	1367.9799	1401.8662	1415.973	1425.4609	1433.7621	1482.3986	1488.6251	1491.0933	1503.5999	1508.0397	1521.7115	2233.3293	3001.5259	3029.8815	3033.2027	3045.0519	3096.0285	3097.7365	3102.6145	3107.4397	3111.782	3113.1462	3155.7962	3487.5465	3503.0052
CC(C)C1(C)NC1C#C	CC(C)[C@@]1(C)N[C@H]1C#C	
InChI=1S/C8H13N/c1-5-7-8(4,9-7)6(2)3/h1,6-7,9H,2-4H3	InChI=1S/C8H13N/c1-5-7-8(4,9-7)6(2)3/h1,6-7,9H,2-4H3/t7-,8+/m0/s1
