19
gdb 56838	3.10858	1.14918	0.98768	1.3999	81.79	-0.2612	0.032	0.2932	1249.9606	0.158686	-385.791452	-385.782919	-385.781975	-385.825057	32.931	
O	 0.6048676549	-0.244098051	-1.1379695942	-0.413592
C	-0.1882002472	 0.031187979	 0.0179486216	-0.124795
C	-1.504533349	-0.6119664962	-0.0620961349	 0.312032
C	-2.5586696174	-1.1877036365	-0.1213358239	-0.459061
C	 0.5420917355	-0.4009973764	 1.2917885393	 0.066171
C	 1.8092500845	 0.363240613	 1.788780919	-0.058694
C	 0.8745890336	 1.4960071335	 2.3089031123	-0.227689
C	 0.1725957002	 0.1612564505	 2.7014095413	-0.055577
C	 1.5755866124	-0.3361398214	 3.1610140947	-0.223302
H	 0.6372201846	-1.2017022468	-1.2432601792	 0.28303
H	-0.3260591175	 1.1160312703	-0.0011948998	 0.11665
H	-3.4994049062	-1.6769268879	-0.1825284285	 0.199215
H	 0.6577133832	-1.4922160063	 1.2690291093	 0.060176
H	 2.7529656222	 0.4757023224	 1.2549860631	 0.078417
H	 1.2634203729	 2.0929931572	 3.138141302	 0.092141
H	 0.3861117391	 2.1385237357	 1.5748848944	 0.096686
H	-0.775527138	 0.0385205465	 3.2260025905	 0.076969
H	 1.7281956932	-1.4184392656	 3.1961685304	 0.089779
H	 2.002136549	 0.1594077599	 4.0368057826	 0.091444
47.5171	108.9739	188.3597	206.0218	263.4272	315.1487	397.76	464.9285	561.2803	587.0825	589.4114	631.4116	669.9412	775.3717	806.2185	883.7683	898.3513	903.9713	921.6849	936.4584	1004.8785	1023.3564	1030.2299	1048.5272	1093.408	1096.2514	1112.2376	1141.8796	1156.9767	1188.4094	1212.9166	1231.5864	1245.953	1254.4729	1267.3759	1295.521	1411.608	1425.8576	1504.8414	1544.4965	2229.4986	3020.9577	3050.1628	3061.7885	3075.7453	3107.8857	3115.0057	3116.665	3125.1093	3502.0181	3802.3194
OC(C#C)C1C2CC1C2	O[C@@H](C#C)[C@H]1[C@H]2C[C@@H]1C2	
InChI=1S/C8H10O/c1-2-7(9)8-5-3-6(8)4-5/h1,5-9H,3-4H2	InChI=1S/C8H10O/c1-2-7(9)8-5-3-6(8)4-5/h1,5-9H,3-4H2/t5-,6+,7-,8-/m0/s1
