16
gdb 64858	3.5527	0.97798	0.87456	3.0503	76.45	-0.2713	0.0068	0.2781	1310.2155	0.122408	-400.712336	-400.703502	-400.702557	-400.745946	33.094	
O	-0.0954553951	 1.4916761643	 0.0079340106	-0.465961
C	 0.0055533046	 0.0810414356	-0.0056160702	 0.251551
C	 0.2356291077	-0.5294626367	 1.4118399276	-0.276945
C	-1.3161802437	-0.6307673435	 1.57265785	-0.175148
C	-1.4322531487	-0.5011151483	 0.0188796061	-0.25111
C	-1.8639270346	-1.8081504957	 2.2093192535	 0.324686
C	-2.3090600301	-2.7986010964	 2.725701883	-0.456724
C	 0.9081487426	-0.3724091667	-1.0706087529	 0.232837
N	 1.6404216773	-0.7240110261	-1.8931509104	-0.33197
H	 0.7823550616	 1.8599229591	 0.1632673986	 0.293692
H	 0.6992104495	-1.5161466628	 1.3633138613	 0.137737
H	 0.7783530198	 0.1037885688	 2.1162711507	 0.118735
H	-1.7016409626	 0.2742514856	 2.0495098256	 0.122883
H	-2.1972564822	 0.1644373628	-0.3812233412	 0.136232
H	-1.486342225	-1.4772867601	-0.4638086509	 0.138321
H	-2.705027351	-3.67054992	 3.1846629286	 0.201185
60.5706	147.4744	177.3161	190.3138	222.5073	341.2759	380.2023	386.7478	469.8397	493.0096	541.9039	589.6008	604.1995	631.2066	642.3427	711.5772	827.576	899.0709	931.1293	972.9352	1010.7268	1037.6571	1076.9036	1134.3678	1138.8578	1235.5418	1251.4236	1258.0406	1272.9678	1351.7767	1365.8525	1457.5526	1479.3267	2238.0398	2350.4703	3074.2428	3077.2784	3093.4869	3144.3505	3161.1348	3503.7406	3796.5273
OC1(CC(C1)C#C)C#N	O[C@]1(C[C@@H](C1)C#C)C#N	
InChI=1S/C7H7NO/c1-2-6-3-7(9,4-6)5-8/h1,6,9H,3-4H2	InChI=1S/C7H7NO/c1-2-6-3-7(9,4-6)5-8/h1,6,9H,3-4H2/t6-,7-
