27
gdb 100307	2.00659	1.23603	0.99778	0.0975	95.23	-0.2681	0.0785	0.3466	1422.508	0.250757	-353.552057	-353.540928	-353.539984	-353.587997	42.473	
C	 0.0478797732	 1.4268038513	 0.2378331708	-0.403403
C	 0.1442700634	-0.084565666	-0.0000954347	-0.174397
C	 0.7001336656	-0.5459616368	-1.3756220611	 0.250912
C	 0.6703993663	-2.0857881623	-1.3959614104	-0.43947
C	-0.1402476889	 0.0063730299	-2.5599665355	-0.181517
C	-1.6295085127	-0.3575878138	-2.5829517177	-0.406905
C	 2.1229330434	 0.0027190227	-1.5522473468	 0.035978
C	 3.334143462	-0.5404558015	-0.8365198825	-0.293486
C	 3.2122790805	-0.6891013407	-2.3345508942	-0.286625
H	 1.0249552002	 1.9149442997	 0.1754005364	 0.117592
H	-0.6167831822	 1.9160612079	-0.4813628488	 0.1161
H	-0.3515692185	 1.6271483981	 1.2372383723	 0.110102
H	 0.7807015647	-0.5237457555	 0.7785161324	 0.091401
H	-0.8487047014	-0.5276219983	 0.1436050698	 0.08884
H	-0.3349536197	-2.4556529951	-1.1751597618	 0.11364
H	 0.9595200874	-2.4861451428	-2.3726379416	 0.110936
H	 1.3380455695	-2.5149365844	-0.6421496239	 0.111304
H	-0.0463074341	 1.0990411395	-2.5771864328	 0.090601
H	 0.3275989836	-0.3427393922	-3.4892112533	 0.093559
H	-2.1147312245	 0.090824055	-3.4559557561	 0.11086
H	-1.7897912121	-1.4383773967	-2.6426306394	 0.115867
H	-2.1556262851	 0.0076769493	-1.6952369391	 0.117193
H	 2.1308102664	 1.0837862117	-1.6662517179	 0.07878
H	 4.0558231463	 0.1656553701	-0.4399931092	 0.106201
H	 3.2255771749	-1.4370209446	-0.235938444	 0.110195
H	 3.0264766203	-1.684294972	-2.7218573434	 0.110155
H	 3.8505316413	-0.0839944723	-2.9694020875	 0.105588
57.1429	79.6823	108.4095	177.7228	207.4528	229.0915	251.0661	292.5475	301.7344	312.0857	343.4557	377.4547	426.241	482.8741	530.8021	662.7542	756.7613	781.9619	791.9577	829.2344	849.2248	880.7853	941.4436	947.9431	984.8881	1010.293	1017.7831	1047.0952	1051.5958	1059.8944	1077.3194	1089.5538	1115.9949	1153.1482	1192.3276	1201.3	1218.603	1232.2298	1260.7572	1313.8863	1315.9507	1374.7569	1377.1339	1396.7498	1410.6756	1415.0524	1422.9901	1466.5711	1478.5114	1482.8657	1499.8315	1502.9883	1503.3782	1506.6244	1509.2816	1513.1201	1516.5269	3020.4977	3022.6111	3036.661	3039.7834	3041.2281	3051.0743	3053.1176	3099.2129	3100.831	3103.3451	3105.5268	3110.6162	3111.4038	3131.7416	3132.9815	3139.0154	3207.4561	3222.9331
CCC(C)(CC)C1CC1	CCC(C)(CC)C1CC1	
InChI=1S/C9H18/c1-4-9(3,5-2)8-6-7-8/h8H,4-7H2,1-3H3	InChI=1S/C9H18/c1-4-9(3,5-2)8-6-7-8/h8H,4-7H2,1-3H3
