25
gdb 102639	2.08178	0.90451	0.75594	1.4978	86.09	-0.2428	0.0685	0.3113	1694.9101	0.225368	-426.625083	-426.613113	-426.612169	-426.663161	42.546	
C	 0.2167233218	 1.092788471	-0.4908113126	-0.386825
C	-0.2858511312	-0.3269425908	-0.2194395156	-0.179691
C	-1.6181298955	-0.3617046612	 0.5317006552	 0.131853
C	-2.1830115851	-1.7846231748	 0.681348828	-0.221416
C	-2.8225215588	-2.3533581598	-0.5936246046	 0.133186
C	-3.3155892869	-3.7876760361	-0.3998277825	-0.401064
O	-3.8706844523	-1.5088320057	-1.072122289	-0.427785
O	-1.3787274309	 0.2188044427	 1.8144583034	-0.248511
C	-2.5031840045	 0.8207931266	 2.4063955607	-0.237751
H	 1.1876816862	 1.0789458801	-0.9953460121	 0.106925
H	-0.4826925437	 1.6436511792	-1.1297753608	 0.110926
H	 0.3249730087	 1.6448622868	 0.4460617209	 0.129657
H	-0.3961951194	-0.8705689661	-1.1647752467	 0.096057
H	 0.4522883082	-0.8774908386	 0.377775667	 0.100784
H	-2.3561688804	 0.2484437977	-0.0113469997	 0.075062
H	-1.3859146744	-2.4550018505	 1.0262679551	 0.097979
H	-2.9469926272	-1.7839473213	 1.4712070036	 0.082662
H	-2.0860538086	-2.3444889421	-1.4060436716	 0.092678
H	-2.4906815278	-4.4593565497	-0.1414198372	 0.117574
H	-4.0519305364	-3.8387506979	 0.4123927374	 0.105464
H	-3.7898003996	-4.1526282242	-1.3149087312	 0.123228
H	-4.5792347664	-1.5271219043	-0.4186469703	 0.274683
H	-2.9131344205	 1.6268795426	 1.7778436179	 0.104805
H	-3.3139238067	 0.1039351756	 2.6107722877	 0.095374
H	-2.1783654685	 1.2480539709	 3.3589541269	 0.124145
34.7149	77.4272	91.9517	92.406	156.5411	181.3646	225.9777	239.9103	260.3203	280.7946	287.7492	329.8425	379.5198	444.0846	486.5478	506.8829	531.8684	759.8373	819.4734	854.8777	918.0316	938.6383	948.802	1024.2728	1034.8088	1053.7298	1096.3604	1124.7986	1133.105	1140.4496	1163.4941	1183.4968	1218.0715	1233.2795	1292.0893	1305.6877	1324.6801	1347.5015	1366.6025	1394.7112	1401.9605	1403.9881	1412.5622	1420.6253	1470.635	1474.6856	1480.8273	1490.5156	1493.6028	1495.2938	1496.2747	1509.8035	1511.6725	2969.2768	2991.7729	3009.3703	3015.0055	3023.4537	3027.8721	3035.6509	3040.2614	3061.226	3069.1702	3094.8832	3099.8214	3105.7912	3118.5343	3124.0034	3791.7913
CCC(CC(C)O)OC	CC[C@@H](C[C@@H](C)O)OC	
InChI=1S/C7H16O2/c1-4-7(9-3)5-6(2)8/h6-8H,4-5H2,1-3H3	InChI=1S/C7H16O2/c1-4-7(9-3)5-6(2)8/h6-8H,4-5H2,1-3H3/t6-,7+/m1/s1
