23
gdb 81219	2.39326	1.80665	1.40027	0.0803	89.48	-0.2549	0.0883	0.3432	1063.4322	0.208717	-351.11364	-351.106004	-351.10506	-351.145064	32.524	
C	-0.1056221468	 1.5616307093	-0.0127276832	-0.442295
C	 0.0358409726	 0.0432621808	-0.0269012034	 0.033943
C	 1.1925541936	-0.5980368876	-0.8504431336	-0.023415
C	 2.1279254736	-0.2652138247	 0.3816913689	-0.34875
C	 0.8278534118	-0.6105740343	 1.1507801299	 0.355222
C	 0.1566953069	-0.839962105	 2.5222393787	-0.351386
C	-0.5078890654	-2.1151933733	 1.8750294424	-0.276268
C	 0.6708413758	-2.105323089	 0.8486594193	 0.043329
C	 0.8085111867	-2.1032559927	-0.7007983551	-0.279632
H	 0.8364207514	 2.0841184498	 0.1718040064	 0.11674
H	-0.5003846607	 1.9204536424	-0.9698404244	 0.112532
H	-0.8103488617	 1.8735619895	 0.7666681305	 0.11413
H	-0.9489833996	-0.3931585961	-0.229966243	 0.055381
H	 1.4472858606	-0.2396564307	-1.8498513979	 0.055329
H	 2.9922646793	-0.9111775723	 0.5630090553	 0.086725
H	 2.4440184554	 0.7783605472	 0.3829135574	 0.097601
H	 0.8666618721	-1.121500538	 3.3060380101	 0.102726
H	-0.4995557714	-0.0540899827	 2.9060334957	 0.093986
H	-0.6079760293	-3.0004886345	 2.5070608592	 0.092993
H	-1.4809243596	-1.8875298096	 1.4340931163	 0.106198
H	 1.4966701706	-2.6672143248	 1.2994519529	 0.068105
H	-0.1111502532	-2.3285484183	-1.2500176491	 0.097602
H	 1.5834900073	-2.7922319954	-1.0488648932	 0.089205
183.6906	192.2403	223.6328	297.1972	338.8942	393.7723	435.6495	516.9132	550.6701	618.5848	671.2559	766.91	790.2102	805.1565	828.2541	864.9244	889.3732	893.7711	930.2714	951.3531	984.1006	1012.255	1027.4416	1061.8543	1078.0368	1088.709	1097.3469	1124.7486	1160.1134	1170.4643	1183.7861	1194.4076	1214.7939	1232.5294	1233.8143	1248.4756	1264.99	1282.1946	1295.9594	1298.7666	1373.7649	1396.6933	1413.5845	1480.8444	1490.6655	1493.8709	1496.5221	1501.9046	1517.4539	3025.594	3029.7327	3032.2486	3048.1118	3049.8438	3059.2876	3068.8639	3084.8223	3091.8179	3096.1246	3098.9822	3111.8388	3124.2419	3131.6758
CC1C2CC11CCC1C2	C[C@H]1[C@H]2C[C@]31CC[C@H]3C2	
InChI=1S/C9H14/c1-6-7-4-8-2-3-9(6,8)5-7/h6-8H,2-5H2,1H3	InChI=1S/C9H14/c1-6-7-4-8-2-3-9(6,8)5-7/h6-8H,2-5H2,1H3/t6-,7+,8-,9-/m0/s1
