18
gdb 128521	1.96777	1.8272	1.00284	2.3356	75.83	-0.1975	0.0396	0.2371	1185.2138	0.147715	-435.272731	-435.263027	-435.262082	-435.307362	34.518	
C	-0.1611515419	 1.4481031704	 0.0698592906	-0.251906
O	 0.136872018	 0.0659921125	-0.0992975516	-0.288168
C	 0.6873163826	-0.538240068	 1.0017503353	 0.114711
C	 2.0062885119	-0.9458060727	 1.0922738189	 0.303236
N	 3.078625334	-0.7595021992	 0.2169690087	-0.612787
N	 2.1140147772	-1.5627529619	 2.2932200363	-0.263029
N	 0.9433993357	-1.5902640434	 2.9876881775	-0.302657
C	 0.0688145345	-0.964034573	 2.2059790114	 0.272851
C	-1.3588230351	-0.8036701484	 2.6190175704	-0.497406
H	 0.7361001959	 2.0197963548	 0.3407262457	 0.114268
H	-0.5468553065	 1.8069506966	-0.8875304298	 0.125358
H	-0.9230556193	 1.6048076289	 0.8436081909	 0.120457
H	 2.7419278058	-0.330974252	-0.6381759971	 0.257037
H	 3.5495676064	-1.6258054874	-0.0225510582	 0.248928
H	 2.9419044276	-1.9497129055	 2.7110806307	 0.267187
H	-1.5908333729	 0.2316577008	 2.8964467637	 0.123919
H	-2.0377170676	-1.081630537	 1.8060379785	 0.129408
H	-1.5664732861	-1.4380689658	 3.483466598	 0.138593
67.472	113.0885	152.2368	167.0707	193.1276	227.2776	255.5203	261.6363	335.6949	417.8309	444.9187	538.1697	580.0327	671.3715	698.184	741.2312	792.4533	830.6195	996.3528	1045.769	1064.589	1068.3422	1116.7108	1162.9272	1178.5872	1212.6075	1271.5189	1356.5408	1404.6194	1430.793	1471.0628	1480.2591	1484.9975	1492.1212	1506.3316	1525.2604	1563.5767	1636.0058	1667.2818	3004.5683	3029.0413	3065.7253	3082.3169	3119.1322	3129.9319	3507.219	3595.2469	3681.9433
COC1=C(N)NN=C1C	COc1c(N)[nH]nc1C	
InChI=1S/C5H9N3O/c1-3-4(9-2)5(6)8-7-3/h1-2H3,(H3,6,7,8)	InChI=1S/C5H9N3O/c1-3-4(9-2)5(6)8-7-3/h1-2H3,(H3,6,7,8)
