27
gdb 122879	3.70747	0.59123	0.58352	0.9685	94.01	-0.2435	0.081	0.3245	2148.4915	0.248362	-390.705747	-390.69353	-390.692585	-390.743872	44.302	
C	-0.1247669847	 1.6337368277	 0.0127615814	-0.37822
C	-0.0286763194	 0.1055642506	 0.0021456367	-0.166088
C	-1.3993251293	-0.578209718	 0.0129122028	-0.168248
C	-1.3040093904	-2.0998941585	 0.0022709057	-0.069309
O	-2.6207545323	-2.6138868056	 0.0130744088	-0.2889
C	-2.804361857	-4.0376147894	 0.0074839006	 0.374735
C	-2.1949385684	-4.68100595	 1.2642767136	-0.412802
C	-4.3280784238	-4.1992540545	 0.0208871804	-0.395578
C	-2.2185492366	-4.6681210844	-1.2669423805	-0.412859
H	 0.8668640181	 2.0969491365	 0.0048220389	 0.109849
H	-0.671851788	 2.0012152463	-0.8624436143	 0.114626
H	-0.6525424495	 1.9901592783	 0.9042448769	 0.114624
H	 0.5347289395	-0.2185105549	-0.8830755448	 0.094451
H	 0.5539911721	-0.2294821146	 0.8706573061	 0.094446
H	-1.9672163101	-0.2701235634	 0.8994877419	 0.100128
H	-1.9865052864	-0.2590939471	-0.8570433419	 0.100147
H	-0.7517568936	-2.4302427089	-0.8914403876	 0.082135
H	-0.7327731161	-2.4414456768	 0.8796795534	 0.082123
H	-2.5673748508	-4.1821370435	 2.1641183544	 0.117598
H	-2.4688649196	-5.7391796466	 1.3196033337	 0.112071
H	-1.1024990059	-4.6254196937	 1.2655573316	 0.112975
H	-4.7659683651	-3.7179338194	-0.858036836	 0.116681
H	-4.6098587158	-5.2562867907	 0.0183119751	 0.106048
H	-4.7493898868	-3.7266573328	 0.9125522547	 0.116697
H	-1.1262702753	-4.6130410174	-1.2877768879	 0.112982
H	-2.4941417281	-5.7255324649	-1.3282688668	 0.112077
H	-2.6071161466	-4.1597290642	-2.1545541267	 0.11761
37.9032	61.3925	99.0607	118.6987	136.857	204.0094	232.2661	245.7495	258.2757	265.0664	285.6781	340.1256	343.7925	423.3873	454.5823	465.8761	528.1262	745.5291	750.4849	818.046	877.8392	906.1044	918.0588	927.5108	955.4275	957.7823	1023.6348	1039.3339	1047.2199	1073.0201	1113.1905	1142.6536	1193.5648	1226.6015	1249.1906	1252.7326	1271.1046	1296.9193	1317.6266	1325.4155	1388.0253	1394.9972	1395.7836	1411.4917	1422.1838	1431.3032	1472.2341	1483.4391	1486.0738	1488.4326	1496.4658	1498.9945	1501.2412	1501.3305	1510.7199	1518.1285	1532.2082	2970.5041	2998.4708	3012.5206	3027.9001	3032.0861	3036.53	3038.1224	3038.4021	3045.8794	3073.2063	3097.464	3101.487	3105.5972	3109.5917	3111.8398	3114.4863	3120.0929	3121.165
CCCCOC(C)(C)C	CCCCOC(C)(C)C	
InChI=1S/C8H18O/c1-5-6-7-9-8(2,3)4/h5-7H2,1-4H3	InChI=1S/C8H18O/c1-5-6-7-9-8(2,3)4/h5-7H2,1-4H3
