15
gdb 71451	4.16212	1.44602	1.31465	4.9512	64.67	-0.2498	-0.0103	0.2395	965.3663	0.112783	-457.752236	-457.745355	-457.744411	-457.783398	26.948	
C	-0.1136567844	 1.4495881281	-0.0175131965	-0.502993
C	 0.0212577383	-0.0335004761	 0.0301161313	 0.437288
O	-1.1554122002	-0.822905558	-0.1526058185	-0.318694
C	-0.5091462964	-1.9368720128	 0.5502850483	-0.081764
C	 0.6565456118	-1.0358009857	 0.9832933689	-0.248971
C	 1.2262856523	-0.8637603603	-0.3983317632	 0.015042
O	 0.9992182886	-2.0027750365	-1.205783159	-0.222937
C	 0.0439458059	-2.7835924519	-0.6000157315	 0.479426
O	-0.2819017581	-3.8578641137	-1.0021972821	-0.338148
H	 0.8552590382	 1.9277447301	 0.1523698273	 0.132548
H	-0.4814708902	 1.7613567133	-1.0007526195	 0.148802
H	-0.8165266252	 1.8025945828	 0.7427440253	 0.140715
H	-1.1664260436	-2.441085894	 1.2531381706	 0.115453
H	 1.1682822605	-0.9722845834	 1.9335974908	 0.117757
H	 2.1882287725	-0.4019024919	-0.5751617922	 0.126475
141.0237	196.5258	227.9641	300.422	379.2659	453.5488	526.7725	625.7066	676.2396	750.013	759.8285	795.991	830.2044	862.7641	887.6168	898.9652	942.7968	979.0194	1026.4053	1068.6091	1100.8937	1105.8223	1137.7941	1174.5103	1235.676	1242.7177	1282.6781	1302.4424	1406.7047	1454.0553	1472.4966	1497.3138	1899.8896	3040.14	3109.985	3120.6756	3167.6913	3207.3419	3217.672
CC12OC3C1C2OC3=O	C[C@]12O[C@@H]3[C@H]1[C@H]2OC3=O	
InChI=1S/C6H6O3/c1-6-2-3(9-6)5(7)8-4(2)6/h2-4H,1H3	InChI=1S/C6H6O3/c1-6-2-3(9-6)5(7)8-4(2)6/h2-4H,1H3/t2-,3+,4+,6-/m0/s1
