23
gdb 122531	4.29976	0.62612	0.59422	0.9002	84.85	-0.2418	0.0912	0.333	1994.1859	0.203091	-425.391832	-425.380956	-425.380011	-425.429095	38.091	
C	-0.5745337354	 1.2891337919	 0.383594011	-0.383653
C	 0.1067719569	-0.0224499171	 0.0304434677	-0.022344
O	 0.6733200138	-0.5666196141	 1.2027833946	-0.246224
C	 1.3262951176	-1.8014222654	 0.9785168464	-0.06774
C	 1.93222498	-2.267280361	 2.2754756586	-0.06554
C	 1.0603197554	-2.96658935	 3.3020443339	-0.314121
C	 2.117056296	-3.7304999529	 2.5433101328	 0.114329
O	 1.7362453777	-4.6188393241	 1.539693104	-0.236394
C	 1.355060858	-5.8838524451	 2.04100178	-0.230581
H	 0.14789812	 1.9964509139	 0.8010065966	 0.124648
H	-1.0262327502	 1.7377630803	-0.5063435058	 0.111686
H	-1.3596656566	 1.1247846025	 1.1271413014	 0.124813
H	-0.6196953839	-0.7295834268	-0.4067566799	 0.081547
H	 0.8881650489	 0.1408457595	-0.732304096	 0.081739
H	 0.6211127511	-2.5543162049	 0.5966104084	 0.09586
H	 2.1124707731	-1.6808696863	 0.2132890815	 0.084564
H	 2.7064453517	-1.611203683	 2.6623943744	 0.091761
H	 1.2101408209	-2.7551294673	 4.3549151696	 0.110539
H	 0.0293997838	-3.1444917699	 3.0143315854	 0.119742
H	 3.0115668572	-4.0383785835	 3.0880876488	 0.08337
H	 1.081832351	-6.501853252	 1.1825097052	 0.12636
H	 2.1817488509	-6.3703003079	 2.5809789774	 0.105731
H	 0.4952734022	-5.8087388867	 2.721990214	 0.109907
39.5396	74.5627	95.9754	105.3746	137.7972	182.1797	198.0423	246.8995	271.7826	303.0714	407.1912	450.6856	488.7023	609.0426	775.3516	820.7945	832.8996	884.6143	915.7718	923.8338	1010.0882	1036.9431	1046.5749	1053.9765	1104.4585	1132.1644	1142.0095	1158.0223	1170.585	1181.7728	1184.9699	1199.5169	1226.5289	1260.178	1271.6402	1294.0958	1355.2462	1391.1054	1402.5617	1417.9211	1456.3218	1474.7565	1483.4617	1485.5973	1492.6558	1499.7336	1509.4229	1516.1545	1537.213	2944.2256	2959.0005	2968.3175	2982.7188	3011.3715	3034.3684	3043.8468	3080.2044	3117.8087	3118.1465	3119.9944	3132.8784	3152.2938	3221.799
CCOCC1CC1OC	CCOC[C@H]1C[C@H]1OC	
InChI=1S/C7H14O2/c1-3-9-5-6-4-7(6)8-2/h6-7H,3-5H2,1-2H3	InChI=1S/C7H14O2/c1-3-9-5-6-4-7(6)8-2/h6-7H,3-5H2,1-2H3/t6-,7-/m1/s1
