20
gdb 70206	3.33962	1.28709	1.09431	2.7361	78.69	-0.2176	-0.0186	0.199	1161.391	0.171141	-403.156278	-403.147864	-403.146919	-403.189381	32.852	
C	-0.2114961102	 1.5808914961	 0.1152318563	-0.449765
C	-0.1053220221	 0.0721990824	 0.0344326483	 0.328509
C	-0.843567106	-0.7680458325	 1.0254315791	-0.297558
N	 0.6002426472	-0.5566007258	 1.1595048297	-0.119814
C	 1.490568478	-1.6778086997	 0.8783278601	-0.26312
C	 1.2138165067	-2.5622215896	-0.3444654815	 0.375946
O	 1.7162114488	-3.6571153594	-0.4393167826	-0.309361
C	 0.3068549171	-1.9905990742	-1.4274610433	-0.333514
C	 0.1628657088	-0.4662345898	-1.3644227475	-0.275985
H	 0.6923698827	 2.0571328412	-0.2816628914	 0.117092
H	-1.0657530187	 1.9447001564	-0.4669088935	 0.114719
H	-0.3338120243	 1.9018094869	 1.1522803623	 0.127799
H	-1.4528122329	-0.2925208096	 1.7901492632	 0.113761
H	-1.2035711423	-1.7490529588	 0.7238124042	 0.109517
H	 2.5043196237	-1.2753770107	 0.7395197928	 0.136386
H	 1.5425906183	-2.3295593463	 1.7565042155	 0.138405
H	 0.6900531077	-2.3226085502	-2.3969379969	 0.130506
H	-0.6711021814	-2.475695957	-1.3123447609	 0.136083
H	-0.6309923433	-0.1363594421	-2.0443996408	 0.110957
H	 1.0858488823	 0.0027462427	-1.7331122832	 0.109436
44.825	187.0278	210.4453	226.0411	305.816	361.5365	368.0743	434.4157	467.3906	484.1871	551.4019	612.3571	672.9365	712.8062	768.1986	873.0367	883.6062	909.6478	932.951	979.9495	1028.6648	1047.7614	1077.5453	1116.0562	1121.3048	1148.5444	1193.1759	1218.5459	1239.3373	1264.8219	1284.7753	1330.9389	1344.3469	1374.2908	1400.4158	1417.5489	1446.2768	1454.6222	1485.8457	1491.1501	1499.4501	1523.7107	1814.006	3011.8028	3015.7033	3029.272	3032.0308	3058.2469	3081.2039	3089.7759	3090.2718	3100.9059	3124.3399	3178.9165
CC12CN1CC(=O)CC2	C[C@]12CN1CC(=O)CC2	
InChI=1S/C7H11NO/c1-7-3-2-6(9)4-8(7)5-7/h2-5H2,1H3	InChI=1S/C7H11NO/c1-7-3-2-6(9)4-8(7)5-7/h2-5H2,1H3/t7-,8?/m0/s1
