23
gdb 103371	2.85461	1.39205	1.24261	1.6525	84.41	-0.2339	0.0838	0.3177	1152.516	0.206828	-388.270449	-388.261786	-388.260841	-388.303312	34.814	
C	 0.4602210962	 1.4269088602	-0.4612996111	-0.384369
C	-0.0127143119	 0.0571661259	 0.0444037477	-0.258662
C	 0.767216465	-0.4818934628	 1.2614342292	 0.369485
C	 0.2708041008	 0.2014918756	 2.5375319919	-0.484238
C	 0.9217783243	-2.058811801	 1.2635011882	-0.119121
C	 2.0785234223	-1.8712986108	 0.2293291041	-0.250191
C	 2.3226369707	-0.6251544	 1.1042669932	 0.064576
O	 2.7303671793	-1.1986599462	 2.361611653	-0.280283
C	 1.7639244706	-2.2674795967	 2.5253296119	-0.096289
H	 1.4760760685	 1.3739190563	-0.8664749673	 0.118056
H	-0.1942154496	 1.7926215949	-1.2587282587	 0.112425
H	 0.4614650011	 2.1795870344	 0.3333788507	 0.12048
H	-1.0682099824	 0.1281148746	 0.3375127924	 0.094715
H	 0.0084217205	-0.6509943928	-0.7886457231	 0.095757
H	-0.7022317944	-0.2032947225	 2.8405950131	 0.110137
H	 0.9719062317	 0.0795488325	 3.3641077394	 0.137895
H	 0.1367528205	 1.2761106723	 2.3772156223	 0.111981
H	 0.0759550915	-2.7269799512	 1.097255163	 0.065067
H	 2.8754803787	-2.6184310728	 0.2240802106	 0.096838
H	 1.7477196378	-1.6629113116	-0.7856451929	 0.104983
H	 2.9947839928	 0.1929158989	 0.8483321451	 0.073661
H	 1.2108493789	-2.1364808734	 3.4613669512	 0.098857
H	 2.275999287	-3.2365689638	 2.5496007262	 0.09824
85.73	155.12	192.0248	218.5113	290.5569	323.3106	369.1982	399.8739	444.3684	510.1278	530.0388	641.8955	685.8333	782.6625	820.832	846.255	886.5619	903.5633	918.5123	942.551	958.4266	995.029	1013.758	1020.3794	1033.0069	1053.9488	1083.6537	1097.8622	1126.5185	1160.7119	1192.9319	1208.9911	1217.2861	1232.7166	1261.395	1267.578	1299.6296	1337.6111	1361.2352	1369.7222	1405.3983	1416.7659	1480.1047	1487.1655	1501.4211	1502.2709	1509.5293	1522.5305	1537.6185	3024.5082	3027.7068	3033.4772	3036.1309	3068.3906	3071.2677	3082.597	3089.6238	3101.937	3107.018	3111.8278	3130.6618	3137.7395	3161.4608
CCC1(C)C2CC1OC2	CC[C@@]1(C)[C@H]2C[C@@H]1OC2	
InChI=1S/C8H14O/c1-3-8(2)6-4-7(8)9-5-6/h6-7H,3-5H2,1-2H3	InChI=1S/C8H14O/c1-3-8(2)6-4-7(8)9-5-6/h6-7H,3-5H2,1-2H3/t6-,7-,8-/m0/s1
