18
gdb 64596	2.81651	1.45926	1.28023	2.5643	76.85	-0.2392	-0.0229	0.2163	1050.5274	0.147256	-401.934684	-401.926491	-401.925547	-401.967492	31.356	
C	-0.0020041507	 1.6390634344	 0.2547176845	-0.437659
C	-0.0025086979	 0.0992763438	 0.1113675661	 0.157363
C	-1.4576543309	-0.3499975789	 0.1933900268	 0.13004
O	-2.1098904479	-0.7928526414	-0.7137890453	-0.248358
C	 0.684504188	-0.3862669018	-1.1534322443	-0.099895
C	 1.6844019519	-1.2323275486	-0.9023629996	-0.069138
C	 1.8579925743	-1.4250656233	 0.5674769806	-0.083429
N	 2.2296426976	-0.1576830193	 1.2671646992	-0.336753
C	 0.8189674844	-0.5871567565	 1.2181911471	-0.104941
H	 1.0284243713	 1.9842307289	 0.3587920855	 0.154291
H	-0.4556867113	 2.1130336214	-0.6207178157	 0.126307
H	-0.5653678209	 1.953573559	 1.1406400025	 0.114977
H	-1.9077483846	-0.2001918445	 1.2058273291	 0.070143
H	 0.3769336373	-0.0388390151	-2.13204017	 0.109473
H	 2.3194643062	-1.7004075789	-1.6444946384	 0.104655
H	 2.2019527948	-2.3664261287	 0.9819865094	 0.094903
H	 2.6008169522	-0.388152812	 2.1879281483	 0.230002
H	 0.3266178562	-0.8807841984	 2.1405310141	 0.088019
65.446	148.8061	204.1235	228.8892	278.2883	312.1891	377.6264	426.7522	502.2608	581.2737	700.8228	739.3276	779.2261	805.4013	851.6159	858.1665	912.3411	922.8797	947.3001	960.5641	982.8181	994.4898	1075.1463	1101.816	1127.204	1139.3058	1160.677	1194.9406	1243.4958	1261.8403	1324.618	1384.0786	1393.7392	1405.9912	1429.7058	1490.3942	1499.9328	1668.3138	1834.4618	2828.7776	3033.6404	3101.6684	3137.6485	3150.5328	3172.7614	3199.6528	3223.0085	3473.7367
CC1(C=O)C=CC2NC12	C[C@@]1(C=O)C=C[C@H]2N[C@@H]12	
InChI=1S/C7H9NO/c1-7(4-9)3-2-5-6(7)8-5/h2-6,8H,1H3	InChI=1S/C7H9NO/c1-7(4-9)3-2-5-6(7)8-5/h2-6,8H,1H3/t5-,6-,7+/m1/s1
