19
gdb 61254	4.1322	0.85494	0.77192	2.6536	77.72	-0.2318	0.038	0.2698	1476.0314	0.156711	-422.966669	-422.956979	-422.956035	-423.001507	36.378	
O	-0.6112024605	 1.1755482521	 0.1351347558	-0.426874
C	-0.1191973961	-0.1656594683	 0.05251878	 0.094784
C	 0.747647499	-0.3634408069	-1.2097351951	-0.39508
C	 0.0712225044	-0.001210162	-2.4480598249	 0.305905
C	-0.492103843	 0.2990051663	-3.4659503268	-0.430614
C	 0.6318412665	-0.5903693437	 1.3057002827	-0.069405
C	 1.4957269908	 0.3950121029	 2.0833407758	-0.348161
C	 0.2037974483	-0.1193088045	 2.6730044877	 0.134068
O	-0.9011112146	 0.7032897733	 2.8649532021	-0.434999
H	 0.1115272594	 1.7798685813	-0.0675030576	 0.291965
H	-1.0229527703	-0.7774315542	-0.0481127647	 0.113586
H	 1.66933002	 0.225205253	-1.0957793789	 0.128963
H	 1.0668283428	-1.4122176985	-1.2507231123	 0.138962
H	-0.9908674878	 0.5626986332	-4.3655178246	 0.198525
H	 1.0023349443	-1.6110961538	 1.2442983031	 0.088591
H	 2.4468246041	 0.0581872742	 2.4815321714	 0.113482
H	 1.4911151664	 1.4324378934	 1.7624030836	 0.098621
H	 0.282832234	-0.8339569468	 3.4866478269	 0.103652
H	-1.0662529278	 1.1581021691	 2.0256822458	 0.294029
53.6071	78.1359	117.8174	221.7238	245.2907	279.12	285.4425	347.5251	379.4601	417.2443	492.7981	554.5863	593.6054	626.1305	643.5581	662.5865	762.0362	804.1638	856.8724	886.4566	949.5446	983.25	1025.4301	1026.5221	1032.4994	1071.0252	1124.6692	1135.5473	1149.3496	1184.9702	1234.7836	1292.3571	1318.2631	1358.7768	1365.2112	1383.9609	1423.2096	1459.8605	1468.0811	1494.513	2241.9752	3008.9694	3046.3671	3059.6349	3123.8149	3130.6587	3157.7478	3210.1653	3506.2308	3706.0156	3806.6727
OC(CC#C)C1CC1O	O[C@@H](CC#C)[C@H]1C[C@H]1O	
InChI=1S/C7H10O2/c1-2-3-6(8)5-4-7(5)9/h1,5-9H,3-4H2	InChI=1S/C7H10O2/c1-2-3-6(8)5-4-7(5)9/h1,5-9H,3-4H2/t5-,6+,7-/m1/s1
