23
gdb 62790	2.91491	1.29057	1.1299	1.5046	86.2	-0.2274	0.089	0.3165	1234.7072	0.20303	-388.26506	-388.255226	-388.254282	-388.298557	38.606	
C	 0.2227782024	 1.6610494842	-0.4039917183	-0.470304
C	 0.2246909232	 0.1554339067	-0.2222134496	 0.292698
C	-0.9839169651	-0.5429696659	-0.8284425487	-0.453075
C	 1.4903952478	-0.642822165	-0.3139800504	 0.043149
O	 2.6158691936	 0.06214827	 0.2142522564	-0.333122
C	 2.0616932473	-0.0419941027	 1.5760296873	 0.389988
C	 2.8320818866	-1.1252674797	 2.3294899147	-0.412641
C	 2.0947099947	 1.2741041045	 2.3401124749	-0.442516
C	 0.7476477866	-0.5943356135	 1.0055954433	-0.210352
H	 1.2185203461	 2.0791945535	-0.25283633	 0.139451
H	-0.0875034979	 1.9074435214	-1.4261795452	 0.10747
H	-0.4779276091	 2.1549921901	 0.2786445933	 0.110692
H	-1.0770362128	-0.3022640147	-1.8933030982	 0.117486
H	-0.9138182174	-1.6318185838	-0.7348815083	 0.11292
H	-1.9090369003	-0.2268560161	-0.3329349001	 0.119163
H	 1.682458357	-1.4437498725	-1.0212230716	 0.092555
H	 3.8681373452	-0.8097515596	 2.4865075985	 0.120805
H	 2.3771202565	-1.3128003982	 3.3085244402	 0.110018
H	 2.8366784854	-2.0611570656	 1.764964934	 0.118728
H	 1.5129407224	 2.0563390876	 1.855089657	 0.123879
H	 1.6951691637	 1.1268039701	 3.3490801735	 0.1157
H	 3.1288634465	 1.621814302	 2.4373256273	 0.122393
H	 0.1532762473	-1.3574593427	 1.49408787	 0.084915
155.1484	168.1536	171.3607	206.0868	228.4454	257.9172	268.2006	310.2005	335.8884	373.5738	383.5401	428.3559	534.2103	543.9784	643.5077	700.6989	817.0575	833.2726	881.7877	899.9462	929.6551	958.9168	971.5988	987.0272	1001.0512	1026.4842	1041.7675	1050.4447	1074.9908	1152.744	1167.4648	1176.609	1236.625	1248.3225	1284.9396	1320.3932	1396.9033	1398.7496	1405.6579	1415.0495	1423.9692	1474.0072	1478.7489	1488.3761	1490.0568	1495.6712	1504.5339	1509.5529	1517.4788	3022.7414	3028.5185	3032.873	3043.9257	3080.1396	3086.6689	3096.0112	3098.6721	3107.0084	3121.1163	3137.3853	3153.7896	3163.0498	3179.0169
CC1(C)C2OC(C)(C)C12	CC1(C)[C@H]2OC(C)(C)[C@@H]12	
InChI=1S/C8H14O/c1-7(2)5-6(7)9-8(5,3)4/h5-6H,1-4H3	InChI=1S/C8H14O/c1-7(2)5-6(7)9-8(5,3)4/h5-6H,1-4H3/t5-,6+/m1/s1
