20
gdb 62046	3.93581	0.72186	0.66426	2.7085	83.05	-0.2466	0.0355	0.2821	1726.7115	0.168243	-403.069488	-403.059353	-403.058409	-403.105891	36.293	
C	 0.1856870094	 1.4552117008	-0.2077876272	-0.397647
C	 0.0210403516	-0.0572886737	 0.014203457	-0.032836
O	 0.797254776	-0.5273784051	 1.1118556971	-0.256468
C	 2.1745504354	-0.6966211945	 0.8311151065	-0.08125
C	 2.8100153007	-1.4211114764	 1.985671982	 0.020217
C	 4.2286882906	-1.1438937574	 2.3234641065	-0.248403
N	 3.1503569136	-0.6994145843	 3.2191475921	-0.302975
C	-1.3769132798	-0.4008759683	 0.2755519681	 0.320447
C	-2.5350116559	-0.6550445037	 0.4664754235	-0.438031
H	 1.2227922789	 1.7013021064	-0.4521650047	 0.117218
H	-0.4483192194	 1.7864833052	-1.0345196005	 0.130582
H	-0.1049172717	 1.9959618276	 0.6962129794	 0.137309
H	 0.3407855738	-0.5852304268	-0.9008951601	 0.094351
H	 2.3038454507	-1.2773587765	-0.0984990222	 0.093868
H	 2.6780305275	 0.2737878974	 0.6838742804	 0.079949
H	 2.4113323016	-2.4174989185	 2.1615764258	 0.102085
H	 4.8573764377	-1.9367581858	 2.7178604319	 0.121977
H	 4.7589304367	-0.4029627464	 1.729289423	 0.108853
H	 2.9760254538	 0.2954757824	 3.0948937604	 0.231684
H	-3.555236511	-0.8919554625	 0.642295321	 0.199068
36.8274	55.8837	88.4326	147.1157	187.1402	213.0942	252.592	311.7079	377.1325	403.1121	463.484	542.1991	586.986	624.8988	670.692	798.2113	833.0996	843.9498	911.5624	939.69	948.1957	1013.5577	1043.8476	1075.8115	1093.0416	1108.955	1132.9404	1147.3998	1152.9385	1211.6418	1251.0029	1277.9486	1312.0802	1340.7011	1348.4482	1389.1751	1398.6078	1451.1641	1489.5267	1491.0867	1507.1871	1514.0788	2244.5392	2946.4176	2953.3499	2979.9978	3047.9967	3105.4563	3122.0349	3134.4755	3140.1754	3190.8676	3493.1593	3504.5097
CC(OCC1CN1)C#C	C[C@@H](OC[C@H]1CN1)C#C	
InChI=1S/C7H11NO/c1-3-6(2)9-5-7-4-8-7/h1,6-8H,4-5H2,2H3	InChI=1S/C7H11NO/c1-3-6(2)9-5-7-4-8-7/h1,6-8H,4-5H2,2H3/t6-,7-/m1/s1
