18
gdb 27782	1.92928	1.73848	0.92495	4.5817	84.77	-0.2076	-0.0272	0.1804	1255.9571	0.148436	-402.042138	-402.033504	-402.032559	-402.075361	32.407	
C	 0.0196501621	 1.5233812303	-0.037838703	-0.491438
C	-0.058275198	 0.0255163692	-0.0054784604	 0.420645
C	-1.2167674067	-0.6885206796	-0.0734397549	-0.326305
C	-1.1763046531	-2.118515789	-0.0340404477	 0.368617
C	-2.4731838836	-2.8808672514	-0.1110794689	-0.488324
C	 0.023584263	-2.7609980333	 0.0715004237	-0.364869
C	 1.2820406983	-2.0493024101	 0.1469530804	 0.433499
O	 2.400215515	-2.5308963441	 0.2423215839	-0.407573
N	 1.1248675691	-0.6481482435	 0.0996135316	-0.426348
H	 0.6193564237	 1.8686109748	-0.8881814996	 0.143187
H	-0.9769691324	 1.9590395527	-0.1230207734	 0.143109
H	 0.488421544	 1.913487826	 0.8731966076	 0.143185
H	-2.1624276781	-0.168004367	-0.1569872434	 0.092475
H	-3.0070772403	-2.6477881308	-1.0395853117	 0.135395
H	-2.3085821904	-3.9596644605	-0.0713947704	 0.131813
H	-3.1375665664	-2.6031404745	 0.7153299738	 0.135394
H	 0.0889426792	-3.8421102299	 0.1038525517	 0.105361
H	 1.9962076148	-0.1375679293	 0.1514031906	 0.252176
121.2107	129.6711	165.1481	193.4547	220.0231	270.3035	319.381	495.0199	519.0873	532.0856	534.3368	598.1388	607.168	700.0075	760.2853	806.2337	878.8299	920.1888	969.6527	993.4784	1040.8052	1060.4553	1065.8753	1066.3601	1164.9246	1223.7729	1245.568	1325.099	1406.7432	1416.6368	1428.975	1462.2328	1479.6542	1481.1413	1487.3765	1510.3739	1599.6573	1674.8387	1779.0707	3030.5346	3031.3038	3082.9113	3084.0475	3127.3449	3139.1402	3203.7215	3206.948	3596.5097
CC1=CC(C)=CC(=O)N1	Cc1cc(C)cc(=O)[nH]1	
InChI=1S/C7H9NO/c1-5-3-6(2)8-7(9)4-5/h3-4H,1-2H3,(H,8,9)	InChI=1S/C7H9NO/c1-5-3-6(2)8-7(9)4-5/h3-4H,1-2H3,(H,8,9)
