23
gdb 116298	2.35047	1.16667	0.86534	1.0215	81.82	-0.2444	0.0764	0.3209	1423.1448	0.205977	-425.432666	-425.42262	-425.421675	-425.468167	36.654	
C	 0.0509226306	 1.6718901195	-0.1018842427	-0.386875
C	-0.080668508	 0.1471938588	-0.0327040751	-0.198819
C	 0.6741930303	-0.554970972	-1.1553700975	 0.125117
O	 2.0699323386	-0.3100046429	-1.0022794082	-0.26213
C	 2.7416789282	-1.1718899747	-1.9126505244	-0.073839
C	 1.8549999371	-2.4348643469	-2.0662903382	-0.251623
C	 0.5741537227	-2.0933780374	-1.2624357731	-0.002785
C	 0.5599681172	-2.7926713098	 0.0959815672	-0.091572
O	 0.5847887236	-4.1956906764	-0.1377721857	-0.424167
H	 1.1011640835	 1.9687033016	-0.0437573787	 0.13683
H	-0.3553904871	 2.0597266816	-1.0428343944	 0.110853
H	-0.4897862813	 2.1529995011	 0.7187527842	 0.107198
H	 0.2960400499	-0.2105438742	 0.9318447004	 0.104392
H	-1.1374536324	-0.1417673592	-0.0919569605	 0.095696
H	 0.3360961662	-0.1299141599	-2.1195963053	 0.055017
H	 2.8760162925	-0.6677805985	-2.8820604868	 0.087273
H	 3.7334881636	-1.3803894744	-1.5015467515	 0.103847
H	 1.6255103834	-2.6253791066	-3.1176217632	 0.099899
H	 2.3274355346	-3.3351994739	-1.6702819813	 0.122065
H	-0.3272870776	-2.3917727855	-1.8064117409	 0.075721
H	 1.4334330816	-2.4707967519	 0.6838458772	 0.095713
H	-0.3431006386	-2.5104606154	 0.6570934637	 0.086738
H	 0.6353951417	-4.639511953	 0.7135904647	 0.285452
52.3596	95.7419	137.4307	144.8552	171.2887	212.6129	252.7062	266.2823	317.8029	361.6661	469.6154	505.4756	693.6171	721.4164	786.9349	815.6285	829.4778	894.164	944.3608	954.6529	983.72	1000.4292	1040.3128	1070.546	1076.1943	1092.1605	1128.9039	1161.1613	1174.5566	1214.5312	1232.0742	1249.3786	1260.1643	1284.5614	1304.1826	1317.5769	1330.0896	1352.9833	1375.2576	1396.269	1407.4304	1419.8958	1456.447	1477.7663	1496.0186	1502.9247	1508.8493	1523.7444	1527.3101	2915.9829	2976.2024	2981.9064	3009.0155	3031.0865	3035.7592	3062.0376	3072.2871	3076.6288	3078.4	3101.3468	3123.5424	3124.3365	3831.3895
CCC1OCCC1CO	CC[C@H]1OCC[C@H]1CO	
InChI=1S/C7H14O2/c1-2-7-6(5-8)3-4-9-7/h6-8H,2-5H2,1H3	InChI=1S/C7H14O2/c1-2-7-6(5-8)3-4-9-7/h6-8H,2-5H2,1H3/t6-,7+/m0/s1
