19
gdb 50665	2.058	1.72173	1.11152	2.4111	75.56	-0.2445	-0.021	0.2235	1126.0876	0.159207	-423.020849	-423.012417	-423.011473	-423.054817	31.311	
O	-0.2201455885	 0.0475525672	 0.1440181298	-0.267361
C	-0.0572620873	 1.2284995441	-0.0302613112	 0.170306
C	 1.2825894466	 1.9308677056	 0.019193863	-0.178608
C	 1.3950807554	 2.9648874501	-1.122139773	-0.116428
O	 0.8093776866	 4.1497628823	-0.6108485981	-0.24325
C	 1.2584674339	 4.2715305349	 0.7302392205	-0.148446
C	 1.3651666117	 2.8378694656	 1.2659044951	 0.313938
C	 0.7591767856	 2.437740867	 2.5909838992	-0.315406
C	 2.2566532731	 2.5109948542	 2.4327950487	-0.315407
H	-0.9161469438	 1.9096799871	-0.2293389469	 0.086559
H	 2.0726446757	 1.1766403773	-0.004225124	 0.094191
H	 2.4528109534	 3.1212311563	-1.3866847889	 0.101097
H	 0.8492333753	 2.6863423996	-2.0284268139	 0.118771
H	 2.2412291655	 4.7700616085	 0.762814222	 0.094225
H	 0.5372176444	 4.8911764851	 1.2706809388	 0.114424
H	 0.2648619224	 3.2084820427	 3.173584515	 0.117181
H	 0.3055224376	 1.455423188	 2.6717261974	 0.135885
H	 2.8150082065	 1.5810595024	 2.4092079049	 0.122837
H	 2.782262466	 3.3344966123	 2.9072772718	 0.115491
42.9292	71.2916	181.383	226.2346	270.1283	333.0693	343.0009	428.9152	465.0722	514.277	698.5126	782.6184	813.1542	878.8164	905.2534	928.9802	940.7032	966.9498	970.4913	984.3995	1057.1405	1068.3747	1086.0311	1100.8485	1115.1496	1145.2269	1193.5706	1210.0876	1231.9763	1259.7384	1271.5294	1302.1784	1330.2858	1360.5274	1402.6447	1421.3437	1469.1921	1500.4604	1508.4645	1522.2113	1826.949	2874.808	2966.9573	2981.4081	3082.101	3086.2152	3089.5041	3122.1861	3128.2091	3203.2123	3218.9567
O=CC1COCC11CC1	O=C[C@H]1COCC21CC2	
InChI=1S/C7H10O2/c8-3-6-4-9-5-7(6)1-2-7/h3,6H,1-2,4-5H2	InChI=1S/C7H10O2/c8-3-6-4-9-5-7(6)1-2-7/h3,6H,1-2,4-5H2/t6-/m0/s1
