17
gdb 114454	4.7662	1.22187	1.1421	1.7903	67.77	-0.2376	0.0738	0.3114	1088.5006	0.135898	-458.882608	-458.875337	-458.874393	-458.914596	27.994	
C	 0.1212815455	 1.3586360529	 0.0783515526	-0.244595
O	-0.0360110266	-0.044516097	-0.0603967841	-0.239209
C	 0.6007089641	-0.5721184214	-1.1760607936	 0.212053
O	 2.0406504826	-0.4921091706	-1.0642617515	-0.285956
C	 2.4199150262	-1.8421825452	-0.9672671871	 0.083082
C	 1.5996284068	-2.7155115947	-1.9609825891	 0.02335
O	 1.6323444903	-3.8456351443	-1.0296587803	-0.319743
C	 1.3746725873	-2.6803695473	-0.1745147135	 0.039382
C	 0.3874103433	-2.0746184308	-1.2188779165	-0.119431
H	 1.1733993987	 1.6280797649	 0.2237950656	 0.132761
H	-0.2638967376	 1.8906465268	-0.8042167878	 0.108898
H	-0.4563689698	 1.6580277698	 0.9549427991	 0.130812
H	 0.3084671758	-0.0248871879	-2.0854062179	 0.07547
H	 3.4902414152	-1.9750848722	-0.8291748368	 0.104126
H	 1.7424087257	-2.91452915	-3.022728283	 0.097416
H	 1.2426897984	-2.8382395586	 0.8941042628	 0.104976
H	-0.6156189258	-2.4775513245	-1.333247749	 0.096606
97.2335	134.6332	175.5826	266.8435	374.6735	458.1703	483.8419	579.9255	688.4878	754.5437	781.5299	833.6148	878.973	888.2551	898.3488	941.5828	983.9535	999.6762	1012.6962	1033.2924	1073.5763	1132.1913	1146.7989	1148.0994	1158.9973	1179.0859	1186.0107	1228.0201	1229.6043	1257.1821	1271.8976	1328.7323	1379.0302	1403.7305	1479.8136	1484.8507	1511.6265	2989.4121	2997.7421	3071.6864	3124.799	3130.9411	3140.6572	3163.025	3168.8615
COC1OC2C3OC2C13	CO[C@H]1O[C@@H]2[C@H]3O[C@@H]2[C@@H]13	
InChI=1S/C6H8O3/c1-7-6-2-3-5(9-6)4(2)8-3/h2-6H,1H3	InChI=1S/C6H8O3/c1-7-6-2-3-5(9-6)4(2)8-3/h2-6H,1H3/t2-,3-,4+,5+,6-/m0/s1
