21
gdb 57672	3.94488	0.80331	0.79696	2.3176	85.17	-0.25	-0.0274	0.2226	1509.1382	0.177797	-387.073631	-387.062776	-387.061832	-387.110182	39.317	
C	 0.0598765641	 1.6473542837	 0.0610083433	-0.410519
C	 0.0413471376	 0.1094866472	 0.061304244	 0.230463
C	 0.745629976	-0.4320024571	 1.3180778012	-0.418787
C	-1.4256546985	-0.4028446553	-0.0230511169	-0.288403
C	-2.2961984879	 0.0109563809	 1.1424579304	 0.146747
O	-3.2064212211	 0.797134697	 1.0662621848	-0.241885
C	 0.7637771029	-0.4275256358	-1.2119913164	-0.374023
C	 2.1624353839	-0.0330115313	-1.3271355477	 0.306148
C	 3.3160265241	 0.2945153213	-1.4163183108	-0.43988
H	 1.0881886532	 2.0185709898	 0.0634130666	 0.130798
H	-0.4434705336	 2.0482737584	-0.825286566	 0.117837
H	-0.4512299592	 2.0500213949	 0.9406325187	 0.124178
H	 0.3077104441	-0.023698292	 2.2335757481	 0.117245
H	 0.6829194401	-1.5248733269	 1.3715447501	 0.1099
H	 1.8040506647	-0.1578354443	 1.3054806696	 0.13589
H	-1.899891346	-0.0318085764	-0.9373340928	 0.116496
H	-1.4144406195	-1.5015815707	-0.0572327752	 0.107389
H	-2.0468076816	-0.4712465664	 2.1146815898	 0.077951
H	 0.6990524305	-1.5236719981	-1.2211000923	 0.125981
H	 0.2190668199	-0.0812058291	-2.0998877441	 0.129869
H	 4.3348846964	 0.5801187401	-1.5051077044	 0.196605
31.8851	66.3259	93.9855	133.4687	232.3966	239.763	264.2522	310.1264	315.2099	354.2038	371.465	399.471	402.1121	503.6721	578.1244	616.4531	642.8005	739.8659	834.9833	896.7801	909.0499	948.7002	958.4762	974.8031	997.7243	1059.9773	1070.4903	1162.073	1196.3919	1219.9457	1233.4787	1314.0891	1326.3194	1342.9397	1405.6723	1427.1559	1433.492	1460.1566	1470.5879	1482.7826	1495.0231	1506.2442	1512.326	1827.1679	2233.7545	2872.7478	3009.6677	3014.4246	3032.2373	3038.4411	3047.8646	3086.4615	3099.976	3104.3052	3115.8551	3120.3651	3505.4223
CC(C)(CC=O)CC#C	CC(C)(CC=O)CC#C	
InChI=1S/C8H12O/c1-4-5-8(2,3)6-7-9/h1,7H,5-6H2,2-3H3	InChI=1S/C8H12O/c1-4-5-8(2,3)6-7-9/h1,7H,5-6H2,2-3H3
