20
gdb 93495	2.42602	1.41469	1.06819	2.7412	75.13	-0.2435	0.0212	0.2648	1182.6656	0.172391	-440.33669	-440.327772	-440.326828	-440.370118	34.048	
C	 0.0218696701	 1.5748356831	 0.0041090065	-0.410593
C	 0.0316964029	 0.0448284353	 0.0245414329	 0.003273
C	 0.7209299899	-0.5345438112	-1.2226546215	-0.317119
C	 1.0235256497	-2.0293989936	-1.1826984537	 0.366364
O	 1.2302921178	-2.6795495609	-2.1885498076	-0.364892
N	 1.1513030919	-2.5850240448	 0.071150745	-0.318351
C	 0.5952726407	-2.0338285808	 1.3044968662	-0.19959
C	 0.7104559893	-0.5106945585	 1.2910440788	 0.132624
O	 2.0654196573	-0.0936847162	 1.406237768	-0.442425
H	 1.0424702262	 1.9600178298	 0.0848062919	 0.134447
H	-0.4194632379	 1.9549963869	-0.9226107171	 0.113404
H	-0.5571611929	 1.9771551708	 0.8420340339	 0.111611
H	-1.0071435847	-0.3145070011	 0.0432882932	 0.076554
H	 0.1401967065	-0.3467134704	-2.1288033469	 0.131845
H	 1.6856846997	-0.0310936737	-1.3733725263	 0.130866
H	 1.3287810885	-3.5799154131	 0.0420728457	 0.246966
H	-0.4578970313	-2.3226919976	 1.4377142841	 0.109684
H	 1.160003308	-2.4351493002	 2.1517767983	 0.119619
H	 0.2044215669	-0.1155031436	 2.1788672326	 0.086882
H	 2.5957273113	-0.6684410503	 0.8424807262	 0.288831
91.7827	123.9602	166.0921	222.0702	252.6558	286.6878	357.1066	374.1577	426.4148	463.8585	507.727	576.0049	588.5126	694.3947	719.7682	831.6376	860.9382	898.4505	924.8098	966.6004	995.1425	1040.3976	1084.4	1109.8764	1122.3503	1163.2581	1211.6763	1245.5982	1271.2439	1296.9028	1321.2965	1335.5108	1369.9321	1384.9802	1393.693	1408.7923	1426.4364	1463.3631	1475.8142	1494.3695	1503.4689	1517.9289	1795.0662	2990.695	3005.4541	3031.4385	3035.496	3054.1689	3074.6605	3101.1926	3105.7846	3117.8099	3592.6231	3796.6632
CC1CC(=O)NCC1O	C[C@H]1CC(=O)NC[C@H]1O	
InChI=1S/C6H11NO2/c1-4-2-6(9)7-3-5(4)8/h4-5,8H,2-3H2,1H3,(H,7,9)	InChI=1S/C6H11NO2/c1-4-2-6(9)7-3-5(4)8/h4-5,8H,2-3H2,1H3,(H,7,9)/t4-,5+/m0/s1
