14
gdb 20336	5.38993	2.16696	1.80977	2.8783	67.03	-0.2339	0.0009	0.2348	720.9435	0.1104	-341.531815	-341.526347	-341.525403	-341.561209	21.977	
C	-0.0334679627	 1.4000238881	-0.2159766132	-0.268503
C	 1.3229552254	 0.8144039498	 0.0738617351	-0.003732
C	 0.0859529783	-0.0865278203	 0.1040620509	-0.202812
C	 0.6669909493	-0.7568513428	-1.126091411	 0.279132
C	 0.5784690982	-1.233317464	-2.4154311496	-0.325305
C	 1.7204888211	-0.6495867991	-3.0455248207	 0.007602
N	 2.4117149053	 0.1776538903	-2.2544413418	-0.279217
N	 1.7902095019	 0.0115461071	-1.065960949	 0.060837
H	-0.4510804358	 2.0231083442	 0.57131981	 0.126041
H	-0.2781265794	 1.7128124613	-1.2256533322	 0.143145
H	 1.9884695013	 1.1208811919	 0.8688911653	 0.126039
H	-0.3779007649	-0.5487174348	 0.963218698	 0.116402
H	-0.1480969312	-1.8931765524	-2.8594883687	 0.107971
H	 2.0677717633	-0.8276062493	-4.054417693	 0.1124
157.8563	287.1373	465.8888	492.5446	647.3753	712.5435	717.344	781.676	797.6138	814.9132	856.9569	890.4404	927.5436	969.2618	992.8485	1003.3961	1037.6371	1046.0767	1089.8566	1108.9311	1173.2856	1196.2495	1246.2572	1282.5683	1298.8355	1312.9091	1409.8813	1418.2676	1474.7728	1569.8683	3119.406	3210.8512	3215.6517	3227.3566	3230.8963	3275.2502
C1C2C1C1=CC=NN21	C1[C@H]2[C@@H]1c1ccnn21	
InChI=1S/C6H6N2/c1-2-7-8-5(1)4-3-6(4)8/h1-2,4,6H,3H2	InChI=1S/C6H6N2/c1-2-7-8-5(1)4-3-6(4)8/h1-2,4,6H,3H2/t4-,6-/m0/s1
