14
gdb 131563	3.16566	1.65949	1.18158	0.3011	62.89	-0.2399	-0.0202	0.2198	972.926	0.103811	-469.984078	-469.977049	-469.976104	-470.015783	26.372	
O	 0.1543278349	 1.381784523	-0.2164001862	-0.419442
C	 0.0686704426	-0.0177556265	-0.0094744827	-0.024203
C	 0.4985378669	-0.4691519698	 1.4413793949	-0.124401
O	-0.6853946737	-0.8850628219	 2.1983642516	-0.271581
C	-1.6499847791	-1.0015740005	 1.2722644453	 0.412463
N	-2.8935010033	-1.4428906662	 1.3274733975	-0.331079
N	-3.2714073604	-1.2562032139	 0.040800477	-0.100924
N	-2.3760744124	-0.7456050843	-0.801949493	-0.300155
C	-1.318773996	-0.576670914	-0.0122192594	 0.193217
H	-0.6080843952	 1.7942346501	 0.205081303	 0.286958
H	 0.7410977741	-0.4573972562	-0.7502714907	 0.117138
H	 1.176175107	-1.3270737583	 1.4036420955	 0.129283
H	 0.9723710553	 0.3546321547	 1.9776281094	 0.135993
H	-4.1938044405	-1.5158969661	-0.2671617921	 0.296732
90.5614	160.0304	286.5102	310.9712	351.4348	410.3589	454.8401	531.223	665.0098	687.7227	729.1306	761.9244	793.4616	891.9412	969.0847	983.5824	1001.5196	1086.3039	1152.6427	1163.8435	1203.231	1224.7184	1252.5819	1290.9249	1350.9666	1423.9343	1449.2776	1455.6651	1491.3625	1555.9965	1621.2704	3061.2722	3086.925	3135.2185	3680.0288	3802.2299
OC1COC2=NNN=C12	O[C@H]1COc2n[nH]nc12	
InChI=1S/C4H5N3O2/c8-2-1-9-4-3(2)5-7-6-4/h2,8H,1H2,(H,5,6,7)	InChI=1S/C4H5N3O2/c8-2-1-9-4-3(2)5-7-6-4/h2,8H,1H2,(H,5,6,7)/t2-/m0/s1
