21
gdb 103922	3.341	1.10498	1.03255	1.9716	79.11	-0.235	0.0629	0.2979	1266.7064	0.180996	-424.196569	-424.187147	-424.186203	-424.230186	36.594	
C	 0.0532016126	 1.5643148502	 0.063191674	-0.49947
C	 0.042597076	 0.0646822515	-0.0008512816	 0.373496
C	-0.8887558419	-0.7927545126	 0.8058977121	-0.344782
C	 0.5995714174	-0.9697091174	 0.9850476961	-0.144271
C	 1.2100066731	-1.7772024293	-0.158063512	 0.445044
O	 2.619588746	-1.6636015468	-0.0967750034	-0.496874
C	 0.8414522123	-3.2493486175	-0.283818278	-0.145889
O	 1.5129052676	-3.7265209813	-1.4508397453	-0.436627
C	 0.57734055	-0.7653315187	-1.1826928693	-0.347454
H	 1.0376621377	 1.9658920281	-0.201889377	 0.121589
H	-0.6797094774	 1.9972310092	-0.6291004124	 0.116522
H	-0.1947387634	 1.9196921143	 1.0691251493	 0.114581
H	-1.3823209235	-0.2919381513	 1.6337420959	 0.108423
H	-1.499668948	-1.5597682118	 0.3350480026	 0.099681
H	 1.0949758591	-0.8212056506	 1.9376166789	 0.086318
H	 2.9530637175	-2.2601712752	-0.7801021561	 0.281825
H	 1.1855639078	-3.780597947	 0.6157364004	 0.09428
H	-0.2450966512	-3.3817782353	-0.3722532178	 0.088113
H	 1.46481299	-4.6861228322	-1.4646290928	 0.293948
H	-0.1704478601	-1.1482625418	-1.8856308101	 0.08525
H	 1.3729617383	-0.2620558148	-1.7351198136	 0.106297
99.5917	121.216	179.4671	208.3314	246.8334	302.0087	315.2658	330.3677	392.7222	432.9519	448.1901	477.8235	508.7396	618.1228	699.5917	804.6928	817.8633	894.7346	897.1901	949.636	958.1798	983.1204	1011.7848	1040.0377	1045.0985	1070.8007	1086.8325	1093.6858	1132.6033	1155.1646	1206.9066	1223.1713	1251.1341	1259.1702	1277.0857	1301.2653	1390.3378	1414.9794	1423.8794	1452.2932	1471.6852	1485.7442	1497.6406	1504.7712	1510.1248	2991.6297	3018.313	3035.0137	3042.3106	3077.3659	3093.729	3102.9366	3118.3235	3178.748	3190.2137	3763.7827	3842.7152
CC12CC1C(O)(CO)C2	C[C@]12C[C@H]1[C@@](O)(CO)C2	
InChI=1S/C7H12O2/c1-6-2-5(6)7(9,3-6)4-8/h5,8-9H,2-4H2,1H3	InChI=1S/C7H12O2/c1-6-2-5(6)7(9,3-6)4-8/h5,8-9H,2-4H2,1H3/t5-,6-,7+/m1/s1
