20
gdb 40746	3.44675	1.32044	1.19284	2.3155	78.34	-0.2229	0.0723	0.2952	1112.603	0.172057	-403.070172	-403.062376	-403.061431	-403.102826	30.358	
C	-0.3766019303	 1.0382037553	-0.4179678973	-0.20675
C	 1.0144302483	 1.059497419	 0.1147230797	-0.227671
N	 0.2233844889	-0.1666039574	 0.1324654249	-0.077167
C	-0.229888028	-0.6835860936	 1.4002041612	 0.047978
C	-0.7812444339	 0.1823065517	 2.5984807398	-0.287755
C	-1.9752056792	-0.8071982862	 2.7341223903	-0.080001
C	-3.209859865	-0.3726347347	 1.9373426513	-0.074278
O	-2.6302401497	-0.8527154982	 0.7008855934	-0.290529
C	-1.5413205132	-1.492839154	 1.4035070695	 0.104578
H	-1.1410833695	 1.5555232904	 0.154170721	 0.112532
H	-0.5585235771	 1.0151099411	-1.4885133621	 0.116903
H	 1.8701636885	 1.0605565111	-0.5549167802	 0.114816
H	 1.1745209181	 1.5810037217	 1.0572961332	 0.108795
H	 0.5662722368	-1.3317826852	 1.7873434169	 0.08371
H	-0.1108626651	 0.2307782706	 3.458605391	 0.102777
H	-1.0950540963	 1.2002328673	 2.3514989559	 0.102452
H	-2.1090745535	-1.3209281746	 3.6841148049	 0.077416
H	-4.1291002468	-0.9219176279	 2.1823011526	 0.098989
H	-3.4319926721	 0.7017790754	 1.9073792025	 0.098286
H	-1.5008603008	-2.5669512918	 1.2030206816	 0.074921
85.1259	94.8598	171.2921	246.1951	323.8749	374.0568	444.4202	512.4727	669.1451	738.1802	788.7184	800.3515	824.294	865.7445	905.5393	917.6691	927.3353	961.1835	1000.8517	1024.3173	1031.8185	1040.7589	1079.3454	1098.8447	1115.385	1127.8659	1145.9508	1163.2261	1175.5678	1183.1066	1185.6571	1212.712	1250.1994	1287.1046	1300.1516	1321.6886	1344.3806	1363.7361	1373.865	1477.0827	1494.4401	1517.7612	1523.0733	3000.2929	3025.863	3045.5261	3060.847	3071.697	3093.8237	3112.89	3116.7479	3131.552	3176.4973	3199.0119
C1CN1C1CC2COC12	C1CN1[C@H]1C[C@H]2CO[C@@H]12	
InChI=1S/C7H11NO/c1-2-8(1)6-3-5-4-9-7(5)6/h5-7H,1-4H2	InChI=1S/C7H11NO/c1-2-8(1)6-3-5-4-9-7(5)6/h5-7H,1-4H2/t5-,6-,7+/m0/s1
