17
gdb 56751	2.91856	1.34974	1.1106	1.9944	73.96	-0.2403	0.0211	0.2614	1116.6103	0.133558	-421.709599	-421.701035	-421.700091	-421.74314	32.408	
O	-0.0798885397	 1.4141777053	 0.0503530363	-0.405542
C	 0.0715534147	-0.0022954878	 0.0479020518	-0.21572
C	 0.711595886	-0.4922432662	-1.1732299597	 0.304763
C	 1.2740454759	-0.8505655203	-2.1729617571	-0.449785
C	 0.8251083097	-0.4403897694	 1.2903198404	 0.444513
C	 2.3269944354	-0.2931857291	 1.6538760969	-0.268819
C	 1.6242479001	-1.1990246483	 2.6920215376	 0.044657
C	 0.4459749419	-0.2006255205	 2.7728681129	-0.260887
O	 0.9277122392	-1.8911359583	 1.5782298235	-0.34356
H	 0.7552548445	 1.7930116598	-0.2463127354	 0.290949
H	-0.9448405371	-0.4085892917	 0.118114117	 0.131323
H	 1.7548212403	-1.1827437303	-3.0600601388	 0.204625
H	 3.0142568235	-0.8048646611	 0.9803207584	 0.116411
H	 2.6853662026	 0.6851822254	 1.984143782	 0.096198
H	 2.0598688429	-1.8222500018	 3.4718126032	 0.100113
H	 0.6298967054	 0.7888425837	 3.1961579922	 0.102105
H	-0.5069973654	-0.6329332994	 3.0799135987	 0.108657
51.3417	111.5429	170.3104	202.9076	268.9631	309.6676	387.3354	447.0177	526.2804	584.4645	596.2005	638.2713	675.0435	707.5334	750.2172	813.931	897.6815	927.3511	934.4944	953.3438	986.0522	1018.1541	1063.1967	1088.5521	1097.8969	1123.8104	1150.7951	1209.9102	1224.716	1235.0266	1262.0174	1312.7499	1346.2171	1407.3691	1467.0525	1512.802	2236.0359	3044.1903	3063.1483	3074.1896	3129.2204	3152.3704	3157.3038	3501.6532	3806.6444
OC(C#C)C12CC(C1)O2	O[C@@H](C#C)[C@@]12C[C@@H](C1)O2	
InChI=1S/C7H8O2/c1-2-6(8)7-3-5(4-7)9-7/h1,5-6,8H,3-4H2	InChI=1S/C7H8O2/c1-2-6(8)7-3-5(4-7)9-7/h1,5-6,8H,3-4H2/t5-,6-,7+/m0/s1
