20
gdb 85407	1.8697	1.65546	0.93247	3.7323	83.46	-0.2363	0.0162	0.2525	1289.8845	0.171304	-403.212423	-403.20326	-403.202316	-403.246655	34.327	
C	-0.3303351453	 1.5289462561	 0.0153387954	-0.382905
C	 0.046441775	 0.0361114557	-0.014092201	-0.005077
N	 0.805816233	-0.2739060813	-1.2163416357	-0.322036
C	 2.0335269851	-0.8557241648	-1.3309481548	 0.399843
O	 2.5494259892	-1.0591309999	-2.4153152126	-0.383831
C	 2.7334097308	-1.2366322363	-0.0347852175	-0.421986
C	 1.9954234357	-0.9348779802	 1.2410730044	 0.290563
C	 2.695708614	-1.3159250157	 2.5159358775	-0.471781
C	 0.7906480024	-0.3677899787	 1.2245033009	-0.141095
H	 0.5691022028	 2.14911098	 0.0655208073	 0.128395
H	-0.8936946263	 1.8045766327	-0.8826279008	 0.114203
H	-0.9574264493	 1.7490273169	 0.8848982199	 0.119883
H	-0.8967262499	-0.5358470381	-0.0428164195	 0.093923
H	 0.3873148802	-0.0390355029	-2.1057194785	 0.241192
H	 2.9690096638	-2.3074193898	-0.1020506626	 0.138041
H	 3.7118383297	-0.7376530518	-0.0443899957	 0.138295
H	 3.6618011251	-0.8023539226	 2.6029298579	 0.127872
H	 2.0976356342	-1.0700826147	 3.3971955021	 0.122588
H	 2.9136721582	-2.3914007247	 2.5380695619	 0.127828
H	 0.2713358718	-0.1613328899	 2.1569151815	 0.086086
61.6773	85.3307	146.1488	196.8608	257.5713	291.6746	333.345	405.9299	449.7238	477.6777	503.3797	530.7816	538.2629	657.2648	687.8444	844.2259	856.1671	907.6577	923.048	964.4291	990.6454	1017.391	1067.5286	1069.6208	1095.5683	1169.3944	1186.0685	1219.192	1308.4737	1334.5352	1345.2294	1384.7659	1398.2514	1409.4833	1414.3673	1450.4743	1477.1148	1477.5397	1489.4862	1494.6757	1502.6446	1759.0493	1788.4246	2948.1749	3016.1646	3022.8818	3033.4597	3043.6267	3064.2573	3103.7346	3113.5004	3121.0424	3159.841	3598.1613
CC1NC(=O)CC(C)=C1	C[C@H]1NC(=O)CC(=C1)C	
InChI=1S/C7H11NO/c1-5-3-6(2)8-7(9)4-5/h3,6H,4H2,1-2H3,(H,8,9)	InChI=1S/C7H11NO/c1-5-3-6(2)8-7(9)4-5/h3,6H,4H2,1-2H3,(H,8,9)/t6-/m1/s1
