19
gdb 40918	3.72397	1.39004	1.33347	2.6494	74.24	-0.2457	0.0733	0.319	1023.0535	0.161014	-422.980935	-422.973885	-422.972941	-423.012486	28.473	
C	 0.0245640177	 1.5037308887	-0.0989563902	-0.147484
O	 1.427584605	 1.5198190329	 0.2371778044	-0.275022
C	 1.4369049418	 0.0945187015	 0.4611058441	-0.147483
C	 0.0133061935	-0.0371162901	-0.1138717472	 0.40309
O	-0.9630762109	-0.6882858932	 0.7098708161	-0.322962
C	-1.5448800839	-1.6361280218	-0.2078745249	 0.108549
C	-0.3073503482	-2.2465941025	-0.9093395713	-0.245387
C	-0.2021590666	-0.7782237909	-1.4352747136	-0.122088
C	-1.7644918114	-0.7926926468	-1.4871667979	-0.245388
H	-0.6009839432	 1.9300406114	 0.6955342685	 0.106826
H	-0.1829079722	 2.0149388245	-1.0473109937	 0.09876
H	 2.2454144382	-0.4080051563	-0.0843634865	 0.09876
H	 1.4949806404	-0.161278513	 1.526685811	 0.106826
H	-2.3185258813	-2.2103921546	 0.2981373461	 0.084157
H	 0.4896344713	-2.6324248175	-0.2691151621	 0.104026
H	-0.5569550365	-2.9593382417	-1.696905245	 0.103975
H	 0.4224338458	-0.487484256	-2.2788023798	 0.082843
H	-2.1527516802	-1.367091779	-2.3297142736	 0.103975
H	-2.3014262492	 0.1524315044	-1.3759050844	 0.104026
100.0452	149.733	231.177	343.0506	437.4537	482.7471	507.4534	527.465	719.9686	803.6549	836.5799	845.7445	873.4261	874.7565	920.2799	939.9508	959.0438	987.9754	990.9049	1026.5265	1036.5233	1041.4152	1066.8823	1096.998	1126.0564	1132.375	1149.676	1154.8105	1192.4319	1213.294	1217.4037	1250.8916	1256.6861	1299.3135	1321.9728	1330.1905	1387.6649	1477.0396	1498.3475	1512.6073	1526.6468	3005.1529	3017.0204	3060.6893	3060.8894	3066.8862	3071.4227	3129.4278	3133.6129	3139.5194	3145.3918
C1OCC11OC2CC1C2	C1OCC21O[C@@H]1C[C@H]2C1	
InChI=1S/C7H10O2/c1-5-2-6(1)9-7(5)3-8-4-7/h5-6H,1-4H2	InChI=1S/C7H10O2/c1-5-2-6(1)9-7(5)3-8-4-7/h5-6H,1-4H2/t5-,6+
