17
gdb 55096	4.01082	1.1303	0.97078	3.6713	69.63	-0.2289	0.0496	0.2785	1193.6529	0.13588	-455.134296	-455.125784	-455.12484	-455.167434	32.436	
N	-0.1423696202	 1.2571696243	-0.2966736531	-0.554494
C	-0.0477959774	-0.1137731759	-0.0958112495	 0.407076
O	 0.9409387614	-0.7629313377	-0.3768293454	-0.38709
N	-1.1834307539	-0.6796812503	 0.4569884109	-0.108935
C	-2.5974038624	-0.2943061113	 0.20760976	-0.265501
C	-2.9286206394	-1.7899456694	 0.0650717445	 0.361835
O	-4.0455525384	-2.3776750166	 0.6176431694	-0.45552
C	-2.073016261	-2.4304711266	-1.0003857312	-0.343123
C	-1.4731093271	-2.1029562099	 0.348256464	-0.056626
H	 0.7556953505	 1.6893004776	-0.4536835393	 0.259985
H	-0.7517280818	 1.778295484	 0.3157589822	 0.253468
H	-3.0681817602	 0.1542323767	 1.0890153758	 0.118449
H	-2.752645939	 0.3445398217	-0.6691434083	 0.115927
H	-4.7063660855	-2.4883230676	-0.0744427927	 0.291612
H	-2.2791656494	-3.4868216885	-1.144375748	 0.122058
H	-1.7584556128	-1.8918135397	-1.8901404524	 0.121098
H	-1.0063839233	-2.8298372008	 0.9989983832	 0.119781
83.6292	106.6059	163.2616	250.6195	301.7064	370.3023	397.4685	421.6996	449.8481	470.4492	548.077	576.7761	650.4224	694.3641	780.6922	812.8422	858.3388	941.3336	954.2198	985.5403	1037.3031	1047.5762	1085.1385	1095.9155	1125.5751	1168.6642	1177.6014	1224.2668	1275.0904	1289.5255	1332.4497	1410.1922	1426.0951	1488.7094	1512.7266	1621.9102	1796.4468	3028.6832	3082.7406	3115.3417	3207.1605	3214.508	3573.3685	3688.7263	3800.6043
NC(=O)N1CC2(O)CC12	NC(=O)N1C[C@@]2(O)C[C@@H]12	
InChI=1S/C5H8N2O2/c6-4(8)7-2-5(9)1-3(5)7/h3,9H,1-2H2,(H2,6,8)	InChI=1S/C5H8N2O2/c6-4(8)7-2-5(9)1-3(5)7/h3,9H,1-2H2,(H2,6,8)/t3-,5+/m1/s1
