19
gdb 92740	3.01082	1.35432	0.95103	3.2318	79.93	-0.204	0.0204	0.2244	1243.0084	0.159947	-419.272496	-419.263127	-419.262183	-419.307706	33.677	
C	-0.0488742904	 1.3988035033	 0.0034020808	-0.335212
N	 0.0025356113	-0.0486772631	 0.0028345023	-0.143894
C	-1.2846958228	-0.7302842683	 0.11731321	-0.192018
C	-1.1566255491	-2.2214963719	 0.0564394719	-0.205107
C	 0.034262255	-2.8215677681	 0.0010638494	 0.384797
C	 0.2492041693	-4.3043557632	-0.0535845269	-0.490828
N	 1.1952320165	-2.0513888353	-0.0044369888	-0.441951
C	 1.228439188	-0.6635978542	-0.0362893834	 0.480561
O	 2.2924257422	-0.0692930611	-0.0988381819	-0.422944
H	 0.9673829117	 1.7810230318	-0.073330929	 0.169021
H	-0.644422243	 1.76402457	-0.843724335	 0.116463
H	-0.5112043405	 1.7713351142	 0.9278749667	 0.115659
H	-1.7757872006	-0.4172533796	 1.0571957858	 0.105726
H	-1.9457761852	-0.3661532649	-0.6880832409	 0.107599
H	-2.0658871256	-2.8081870219	 0.0670471607	 0.090789
H	 0.7892666254	-4.5907958813	-0.9643900348	 0.134542
H	 0.8472989938	-4.6461607119	 0.7999532222	 0.135351
H	-0.7042936766	-4.8345095354	-0.0388559982	 0.137421
H	 2.1013543906	-2.4815426092	-0.083386851	 0.254023
20.5954	118.24	134.255	179.4024	196.6914	247.8289	288.8184	360.4306	418.0432	434.9971	532.2219	573.3894	581.6376	729.7794	745.8403	759.7966	766.3678	948.7066	1025.3476	1037.422	1049.9091	1070.7472	1095.4733	1163.2059	1177.4705	1235.5607	1254.9028	1278.8974	1330.5795	1351.5695	1414.7892	1435.754	1474.4737	1476.4295	1477.1454	1496.8978	1500.0155	1513.1975	1556.1523	1767.7699	1784.5968	2922.5454	2945.8228	3003.8805	3024.6149	3046.0607	3074.1061	3137.1379	3170.8414	3212.8946	3665.3251
CN1CC=C(C)NC1=O	CN1CC=C(C)NC1=O	
InChI=1S/C6H10N2O/c1-5-3-4-8(2)6(9)7-5/h3H,4H2,1-2H3,(H,7,9)	InChI=1S/C6H10N2O/c1-5-3-4-8(2)6(9)7-5/h3H,4H2,1-2H3,(H,7,9)
