21
gdb 38374	2.09851	2.0851	1.32401	2.0235	77.22	-0.2464	0.0768	0.3232	1032.6438	0.185574	-424.206473	-424.198963	-424.198018	-424.238031	30.849	
C	-0.0263435727	 1.6157126279	 0.2572894521	-0.238185
C	 1.516674545	 1.636480282	 0.0328411815	 0.013233
C	 1.5153340298	 0.0753097216	 0.1067870938	-0.285242
C	-0.0430560094	 0.0775544969	 0.0335283062	 0.139986
O	-0.6875999392	-0.3579632455	-1.1529705047	-0.254987
C	-0.0565963133	-0.1764145732	-2.3888596531	 0.016778
O	 0.2805635321	 1.1529022978	-2.6969656753	-0.243703
C	 1.6485007579	 1.5223806382	-2.5701227582	-0.073638
C	 1.9780837597	 2.2831092875	-1.2807753138	-0.221746
H	-0.315481039	 1.8937378117	 1.2747802752	 0.090614
H	-0.6286001077	 2.1827919432	-0.453706987	 0.115134
H	 2.0668948132	 2.1078929507	 0.851713095	 0.069035
H	 2.0586762202	-0.473954568	-0.664538366	 0.099097
H	 1.8587892043	-0.2971019558	 1.0750895147	 0.101635
H	-0.5320731831	-0.4967414766	 0.8238251234	 0.082753
H	 0.8421319675	-0.8089933968	-2.4749533868	 0.079637
H	-0.8023142597	-0.5051694976	-3.1192062145	 0.111155
H	 2.2804495235	 0.6271126359	-2.6565840411	 0.094159
H	 1.8845978454	 2.1597920947	-3.4302277674	 0.104615
H	 1.5434820855	 3.289328444	-1.3358667146	 0.106182
H	 3.06833134	 2.4194644213	-1.2691413292	 0.09349
146.4241	202.0021	253.5153	314.4121	341.6651	362.0436	411.7864	474.8764	543.5525	598.106	709.918	759.0014	784.2268	822.9327	848.1407	911.9511	938.9068	959.6407	977.1172	1012.2229	1053.1012	1072.8665	1079.6631	1104.8397	1121.5719	1165.3299	1192.4683	1195.5968	1225.593	1252.3196	1267.144	1282.1555	1298.6189	1306.7369	1328.3076	1355.7595	1394.573	1402.5847	1417.4849	1456.0098	1459.0943	1476.52	1484.3923	1495.4897	1520.6974	2964.2217	2998.7622	3012.0002	3047.3517	3053.573	3060.8399	3063.0114	3067.9512	3078.2941	3081.0729	3116.4825	3132.6507
C1C2CC1OCOCC2	C1[C@H]2C[C@@H]1OCOCC2	
InChI=1S/C7H12O2/c1-2-8-5-9-7-3-6(1)4-7/h6-7H,1-5H2	InChI=1S/C7H12O2/c1-2-8-5-9-7-3-6(1)4-7/h6-7H,1-5H2/t6-,7+
