20
gdb 22820	2.57693	1.33676	1.02967	1.1033	86.76	-0.2217	-0.0277	0.1941	1222.1876	0.171871	-403.137542	-403.128817	-403.127872	-403.17065	33.849	
C	-0.1593206583	 1.5056404184	 0.111173447	-0.394199
C	 0.031866238	-0.0206911938	 0.0224626661	-0.058961
C	 0.7852539454	-0.4472873734	-1.2526328649	-0.228363
C	 2.2526461805	 0.0073688946	-1.2417516899	-0.258008
C	 2.9143905604	-0.2656973521	 0.0792048677	-0.063221
C	 2.2367439838	-0.5346094415	 1.2042337135	-0.115579
C	 0.7762302855	-0.5392882674	 1.2394931509	 0.351049
N	 0.049938216	-0.9131211819	 2.2316422397	-0.220279
O	 0.8134725852	-1.3472589907	 3.3272657968	-0.396407
H	 0.7974627235	 2.0311599009	 0.1918755965	 0.120491
H	-0.6791520177	 1.8814855052	-0.7768004117	 0.109008
H	-0.7538222788	 1.7625757432	 0.9919593077	 0.127339
H	-0.9594494848	-0.4841452802	 0.0221804378	 0.088426
H	 0.7575161244	-1.5408717931	-1.3272207585	 0.105946
H	 0.2721751549	-0.0541349134	-2.1370730359	 0.09403
H	 2.8089368544	-0.4916671153	-2.0447580862	 0.107891
H	 2.3279366245	 1.0819205067	-1.4667874602	 0.116737
H	 4.0014095436	-0.2405973611	 0.1052504194	 0.095709
H	 2.7555643565	-0.7511701875	 2.1294883678	 0.113163
H	 0.1311955428	-1.5713504375	 3.9679776365	 0.305225
79.6439	174.8577	201.0323	231.2663	256.211	303.9553	337.7108	389.1619	423.4764	438.8213	552.7226	580.0698	635.5011	739.9794	780.637	817.5154	838.8582	884.6964	953.1223	964.175	985.236	1015.8809	1022.9559	1046.7714	1108.8171	1115.9985	1164.1801	1216.0472	1247.3431	1291.5737	1324.6021	1342.3123	1370.0737	1377.5012	1395.4142	1409.3444	1428.6675	1470.6191	1488.4469	1496.2724	1506.5781	1676.2028	1698.1789	2998.4699	3028.4979	3034.5299	3045.9937	3060.827	3074.1408	3103.1035	3117.0756	3153.9154	3216.6189	3827.0798
CC1CCC=CC1=NO	C[C@H]1CCC=CC1=NO	
InChI=1S/C7H11NO/c1-6-4-2-3-5-7(6)8-9/h3,5-6,9H,2,4H2,1H3	InChI=1S/C7H11NO/c1-6-4-2-3-5-7(6)8-9/h3,5-6,9H,2,4H2,1H3/t6-/m0/s1
