18
gdb 95995	2.45141	1.47923	0.9933	5.5389	67.13	-0.2552	0.02	0.2752	1159.883	0.149924	-476.253513	-476.245302	-476.244358	-476.287157	30.771	
N	-0.1133234004	 1.2567575255	-0.122796448	-0.541362
H	-0.4047463834	 0.3667843377	-0.5198200238	 0.24863
H	 1.4709153652	 0.8244265708	 0.4859781861	 0.315587
H	-0.3755907581	 1.979455658	-0.7829505901	 0.252469
C	-0.7440563045	 1.4826185288	 1.1870156894	-0.019629
C	-2.1596787625	 0.8861644287	 1.358023417	-0.087162
O	-2.3121512576	 0.6506395475	 2.7365519126	-0.237558
C	-1.0752778307	 0.0982517382	 3.1778379624	-0.090678
C	 0.0255749695	 0.8651809551	 2.4085207242	-0.185955
C	 1.268210797	-0.0067411743	 2.1796937053	 0.394742
O	 1.5830742081	-0.8494014408	 2.9810525593	-0.33511
O	 2.0089998997	 0.2614543192	 1.1013649582	-0.377156
H	-0.7885164197	 2.5651132994	 1.3258295927	 0.104082
H	-2.9625875444	 1.5499017707	 1.0266162582	 0.113451
H	-2.226361433	-0.0554106633	 0.7792303531	 0.081281
H	-1.0193083976	 0.2181374855	 4.2597789822	 0.126225
H	-1.0186166964	-0.9745134342	 2.9465457027	 0.113387
H	 0.3887044689	 1.6923692975	 3.0277106185	 0.124756
46.2322	77.9224	239.8183	262.931	299.4538	322.4051	386.6303	421.4571	484.3894	562.2946	603.7291	675.3483	737.3748	802.9946	878.4468	948.6716	965.8586	976.6313	999.1764	1011.3555	1068.7703	1078.8916	1133.6327	1148.6949	1182.1891	1222.5044	1254.9857	1264.4721	1302.1143	1302.8996	1330.3133	1358.6164	1392.8794	1432.9053	1488.9602	1502.7045	1518.4559	1656.8087	1843.0292	2920.4646	3015.6077	3050.6595	3079.8852	3097.1765	3130.016	3249.3173	3492.6531	3586.187
[NH3+]C1COCC1C([O-])=O	N[C@H]1COC[C@H]1C(=O)O	
InChI=1S/C5H9NO3/c6-4-2-9-1-3(4)5(7)8/h3-4H,1-2,6H2,(H,7,8)	InChI=1S/C5H9NO3/c6-4-2-9-1-3(4)5(7)8/h3-4H,1-2,6H2,(H,7,8)/t3-,4+/m1/s1
