18
gdb 7535	5.065	1.11117	1.03454	3.1783	69.11	-0.2471	-0.024	0.2231	1170.6356	0.150005	-384.940273	-384.93099	-384.930046	-384.974755	32.501	
C	 0.1533391584	 1.4136130328	-0.4019697083	-0.427271
C	 0.04520515	-0.0015461423	 0.1040711294	 0.030932
O	 1.2545607498	-0.7671810696	 0.1995546443	-0.297027
C	 0.5285475512	-0.4885707702	 1.4118216544	 0.362318
C	 1.2235869881	 0.4111318389	 2.4110658316	-0.462075
C	-0.1343597124	-1.7216667316	 2.0179555485	-0.337539
C	 0.8903565663	-2.6961583973	 2.5673259692	 0.158829
O	 0.8650295942	-3.1645753384	 3.6765069474	-0.242551
H	 0.9854134131	 1.9526832327	 0.0536552326	 0.12958
H	 0.3079318656	 1.4102654411	-1.4860354772	 0.134617
H	-0.7733312985	 1.9612386841	-0.1988324821	 0.12515
H	-0.7844615514	-0.5620481334	-0.3345547818	 0.084385
H	 1.7539661799	 1.2262734967	 1.9182261605	 0.132636
H	 0.4988246046	 0.8359251014	 3.1138425831	 0.128289
H	 1.9537370096	-0.1585871659	 2.9959744734	 0.138043
H	-0.8300639286	-1.4522872746	 2.818216375	 0.120343
H	-0.6910153227	-2.2459703892	 1.2307157732	 0.124052
H	 1.6932313128	-2.9613317951	 1.8447701969	 0.097288
57.4681	65.5019	149.3826	161.4043	170.0877	262.6555	275.25	343.6342	382.1346	470.7824	492.9654	549.2696	700.266	775.9895	832.3829	894.0671	942.8215	978.3377	1015.1492	1038.2653	1092.472	1115.8503	1136.8978	1173.8416	1194.3934	1261.8764	1303.2592	1364.5117	1410.6992	1419.8555	1421.1656	1449.2688	1459.7635	1477.2331	1484.9874	1500.4501	1518.3275	1830.985	2897.1657	3032.0699	3039.8849	3042.444	3071.2874	3098.0679	3100.9946	3102.582	3136.8179	3149.6596
CC1OC1(C)CC=O	C[C@H]1O[C@]1(C)CC=O	
InChI=1S/C6H10O2/c1-5-6(2,8-5)3-4-7/h4-5H,3H2,1-2H3	InChI=1S/C6H10O2/c1-5-6(2,8-5)3-4-7/h4-5H,3H2,1-2H3/t5-,6-/m1/s1
