21
gdb 116077	2.51531	1.27708	0.8937	3.0277	80.81	-0.2278	0.0212	0.249	1340.1548	0.184306	-420.420691	-420.411629	-420.410685	-420.454841	34.042	
C	-0.02067764	 1.5539967605	-0.0026161552	-0.386891
C	 0.0712831372	 0.0258995846	-0.0173970832	-0.182427
C	 0.6738377687	-0.5632550924	 1.2534606949	 0.12654
C	 0.6919489416	-2.0905315477	 1.2765432732	-0.190799
N	 1.4318239914	-2.627554576	 2.4148242015	-0.294663
C	 2.7973848759	-2.1055339056	 2.41784925	-0.241878
C	 2.9195662838	-0.6070179447	 2.211234955	 0.369483
N	 3.880653581	 0.0454020497	 2.7136473967	-0.502878
O	 2.0102889011	-0.0212804462	 1.3767337069	-0.265374
H	 0.9680519358	 1.9998377982	 0.1289286274	 0.136308
H	-0.4440373919	 1.9286442736	-0.9390133066	 0.114602
H	-0.6592855163	 1.9034034859	 0.816228059	 0.113663
H	-0.9272066005	-0.4097662742	-0.1484756412	 0.099878
H	 0.6761231349	-0.3070918865	-0.8697565695	 0.107519
H	 0.1025846827	-0.2084711806	 2.1274112654	 0.073881
H	-0.336920639	-2.4650903912	 1.2992645678	 0.10864
H	 1.1593704102	-2.4667777965	 0.3565916797	 0.111479
H	 0.9655798467	-2.3582766063	 3.277147947	 0.22017
H	 3.3061262672	-2.3677276305	 3.3463255061	 0.136849
H	 3.3462447642	-2.593279679	 1.5996400591	 0.131285
H	 3.823857835	 1.0261410949	 2.4276458058	 0.214615
82.5818	93.5555	111.1458	183.2278	232.5238	294.3517	355.9748	419.2459	443.1974	463.6966	519.9021	535.6936	653.8804	763.1051	808.0453	856.5997	894.1717	923.3602	929.8704	953.4558	995.2878	1030.1369	1038.5612	1104.568	1130.6923	1147.1773	1156.3764	1160.9254	1223.4766	1294.5912	1306.9202	1322.4211	1341.4528	1350.7932	1382.5024	1398.9335	1409.8512	1412.1442	1461.2928	1471.1825	1479.5957	1488.5862	1497.856	1509.3312	1747.582	2966.7006	3013.5941	3021.0456	3028.8797	3039.6116	3064.4545	3081.0061	3105.392	3127.2319	3128.5638	3448.539	3496.2918
CCC1CNCC(=N)O1	CC[C@H]1CNC[C]([NH])O1	
InChI=1S/C6H12N2O/c1-2-5-3-8-4-6(7)9-5/h5,7-8H,2-4H2,1H3	InChI=1S/C6H12N2O/c1-2-5-3-8-4-6(7)9-5/h5,7-8H,2-4H2,1H3/t5-/m0/s1
