23
gdb 62556	1.79996	1.60904	1.55368	1.6902	86.33	-0.2205	0.0798	0.3004	1136.1483	0.203147	-388.266775	-388.256565	-388.255621	-388.30079	38.903	
C	-0.0841154038	 1.4439445478	-0.0183391226	-0.467459
C	-0.0485051903	-0.0658867098	-0.1806837717	 0.208415
C	-1.3387542101	-0.7379530425	 0.2626074184	-0.463879
C	 0.6688972787	-0.7471635425	-1.357468805	 0.159547
C	 0.0640280367	-1.7273112904	-2.3238417822	-0.501343
C	 1.9516399225	 0.0220135734	-1.6559209342	-0.142764
O	 2.3687830281	-0.0319607579	-0.269246736	-0.324271
C	 1.227897352	-0.8458884236	 0.0602344063	 0.382311
C	 1.4828756027	-1.939811734	 1.0483520559	-0.493845
H	 0.9054012479	 1.8869862237	-0.1403753188	 0.136072
H	-0.7685800358	 1.9057766665	-0.7396406759	 0.107661
H	-0.4390883665	 1.7080468436	 0.9845915115	 0.110214
H	-2.1834459694	-0.3983734719	-0.3483709915	 0.116773
H	-1.3019056177	-1.827580539	 0.1925774365	 0.115673
H	-1.5626295883	-0.4821597052	 1.3044413495	 0.116854
H	-0.3856274723	-1.2068732298	-3.1791104556	 0.121035
H	 0.825213536	-2.4093133289	-2.7202793865	 0.118276
H	-0.7201276621	-2.3362805732	-1.8682926553	 0.122242
H	 2.6495120641	-0.5420801084	-2.2879702387	 0.099766
H	 1.8698359533	 1.0486612848	-2.033306921	 0.097624
H	 1.8226286307	-1.5106091596	 1.9983742398	 0.132108
H	 0.581564985	-2.5239411989	 1.2468810112	 0.123316
H	 2.2651236085	-2.6162207042	 0.6895220459	 0.125672
143.1322	150.8787	169.054	178.9633	197.1409	204.2137	272.4431	288.2002	319.3394	331.5204	389.7154	400.1595	486.6549	556.9093	627.9834	652.0475	689.2525	754.4314	904.4734	915.3969	968.0003	976.5691	995.2299	999.4571	1022.9411	1096.849	1112.5567	1135.2878	1158.7151	1165.2776	1199.4207	1216.3455	1248.2378	1291.2024	1344.9191	1400.9722	1407.9997	1413.6421	1428.9428	1459.7957	1476.0071	1482.9903	1489.446	1490.3898	1496.169	1500.988	1509.0874	1525.4601	1529.2951	3010.0257	3020.9927	3025.0879	3029.5132	3034.1437	3055.1242	3072.2988	3078.5431	3082.9856	3092.4179	3110.4687	3120.193	3129.2814	3135.9249
CC1(C)C2(C)COC12C	CC1(C)[C@@]2(C)CO[C@@]12C	
InChI=1S/C8H14O/c1-6(2)7(3)5-9-8(6,7)4/h5H2,1-4H3	InChI=1S/C8H14O/c1-6(2)7(3)5-9-8(6,7)4/h5H2,1-4H3/t7-,8+/m1/s1
