16
gdb 123466	5.16077	0.93927	0.8313	1.9658	70.5	-0.2622	-0.0088	0.2535	1328.8494	0.124812	-437.856047	-437.848397	-437.847452	-437.889435	27.854	
C	 0.1141394253	 1.3140286148	 0.6481748382	-0.345495
C	-0.0380251083	-0.0723450425	 0.0580871101	 0.095189
C	-1.3333156622	-0.5768255825	-0.4102461798	-0.180771
O	-0.3410606527	-0.1317251933	-1.3389127907	-0.233929
C	 1.4133647072	 1.9543087125	 0.2581352941	 0.381355
N	 2.2439987699	 2.3841670459	 1.1794038017	-0.201907
O	 3.3318517025	 2.9153082653	 0.4922605007	-0.164275
C	 3.1170339028	 2.7816176878	-0.8249205538	 0.08432
C	 1.923673308	 2.1823479107	-1.0552661848	-0.324691
H	-0.7201087266	 1.9344201396	 0.300893488	 0.122554
H	 0.061528566	 1.2634759055	 1.7403509002	 0.13314
H	 0.7112268017	-0.7977716518	 0.3774016341	 0.106449
H	-1.5299597338	-1.6475863044	-0.414444348	 0.120261
H	-2.2153861314	 0.0571952962	-0.3290159468	 0.117014
H	 3.8982722775	 3.1576038365	-1.4674774566	 0.150771
H	 1.4648430543	 1.9241234497	-1.9942278466	 0.140015
53.9514	76.2478	125.2323	295.5858	310.4033	358.1972	458.0495	616.4163	670.8869	755.3192	794.1908	813.04	866.3494	880.3701	906.9845	934.5338	947.948	959.094	1008.8012	1075.8688	1097.536	1105.3078	1156.5047	1158.6012	1171.0064	1239.8631	1289.5427	1294.413	1326.9446	1439.8859	1450.6531	1461.0229	1485.6526	1528.6898	1611.251	3041.9341	3085.1711	3092.711	3111.2956	3173.0997	3262.6806	3294.7492
C(C1CO1)C1=NOC=C1	C([C@H]1CO1)c1nocc1	
InChI=1S/C6H7NO2/c1-2-9-7-5(1)3-6-4-8-6/h1-2,6H,3-4H2	InChI=1S/C6H7NO2/c1-2-9-7-5(1)3-6-4-8-6/h1-2,6H,3-4H2/t6-/m0/s1
