17
gdb 59325	2.62502	1.24668	1.08548	1.9457	64.12	-0.2702	-0.0088	0.2614	1157.4961	0.133809	-496.114238	-496.104861	-496.103917	-496.148793	33.618	
C	 0.2069719705	 0.4644004829	-0.8457753915	-0.431964
C	 0.0349509596	-0.1883485015	 0.5249531183	 0.128319
O	-0.007199796	 0.7839332166	 1.564106815	-0.432917
C	-1.1844566727	-1.1008271219	 0.6558513125	 0.076271
O	-2.4145910453	-0.4763875062	 0.11709064	-0.261124
C	-2.5550386641	-1.4462372882	-0.8414940078	 0.418455
O	-3.3404474542	-1.4972356262	-1.7319412918	-0.325247
C	-1.3886179689	-2.2945855892	-0.3018621677	-0.08399
O	-0.3260353811	-2.5966595037	-1.1636836766	-0.412479
H	 1.0897127255	 1.1078252573	-0.8257501144	 0.127027
H	 0.3306863945	-0.2889390849	-1.6260536235	 0.140776
H	-0.6644541112	 1.0797434986	-1.0924848031	 0.126666
H	 0.9115068307	-0.8078838312	 0.749094609	 0.109876
H	-0.7311214636	 1.3884446677	 1.3628266732	 0.287321
H	-1.337865635	-1.3342754073	 1.7113002941	 0.11083
H	-1.7592359388	-3.1860691219	 0.2233232833	 0.1157
H	-0.6684529898	-3.1402679009	-1.8821154491	 0.306479
64.51	79.7896	146.3911	187.4288	251.7384	261.2112	274.0612	311.709	348.0919	411.4344	466.8508	558.9789	611.5442	705.0985	789.0766	808.6908	888.0112	911.3985	956.1774	1000.6372	1050.5871	1111.0825	1125.8997	1141.305	1188.866	1189.5766	1270.3027	1303.1386	1321.4299	1353.7246	1377.978	1404.6958	1418.4318	1423.3915	1494.7776	1507.4821	1936.8912	3010.0679	3046.8221	3051.8709	3101.3482	3121.176	3145.2048	3795.2286	3811.2758
CC(O)C1OC(=O)C1O	C[C@@H](O)[C@H]1OC(=O)[C@H]1O	
InChI=1S/C5H8O4/c1-2(6)4-3(7)5(8)9-4/h2-4,6-7H,1H3	InChI=1S/C5H8O4/c1-2(6)4-3(7)5(8)9-4/h2-4,6-7H,1H3/t2-,3+,4-/m1/s1
