18
gdb 94422	2.63293	1.46985	1.20736	1.9626	72.77	-0.2333	-0.0238	0.2095	1081.5313	0.146932	-439.05768	-439.049135	-439.048191	-439.090893	32.168	
O	 0.0592280779	 1.4169079655	 0.0701910144	-0.436548
C	 0.1153583978	 0.005063548	 0.1024175835	 0.075527
C	 0.0932273258	-0.5794092597	 1.5417696142	-0.24809
C	-1.4579479612	-0.5786559877	 1.4814319679	-0.291174
C	-1.3274755425	-0.5397927099	-0.0712657737	 0.251054
N	-2.3051891202	 0.0401910067	-1.0011540213	-0.381982
C	-2.7113425146	-1.2789019985	-1.5505520175	-0.288749
C	-1.5306850455	-1.8873543593	-0.7744583773	 0.337878
O	-0.9926281126	-2.9536614307	-0.7260766275	-0.299414
H	 0.9130967665	 1.7510639045	 0.3640520254	 0.28539
H	 0.8722510387	-0.3863332323	-0.589783657	 0.071174
H	 0.4979662688	-1.59406473	 1.5664360661	 0.124665
H	 0.5677273923	 0.0268262341	 2.3167991919	 0.095369
H	-1.9979129682	-1.4176874551	 1.9259190937	 0.106418
H	-1.8729482823	 0.3632973348	 1.8490245729	 0.116757
H	-3.0415273678	 0.5832226009	-0.5680490872	 0.225984
H	-3.6794452811	-1.6720424072	-1.209646697	 0.122956
H	-2.6666425316	-1.3548494841	-2.6424447514	 0.132785
99.8176	113.4707	134.9765	221.3672	254.1115	278.0348	365.5896	403.4553	524.6354	542.0295	560.0756	661.9049	719.5908	769.7773	854.8546	884.9587	897.496	930.4911	962.6624	998.79	1028.4005	1061.2004	1077.6515	1117.8864	1147.7105	1167.8713	1187.8374	1205.795	1239.5865	1253.0417	1266.7934	1286.6514	1325.0565	1369.0429	1412.7501	1464.6941	1479.0343	1482.2537	1904.0796	3009.4838	3014.3591	3062.1594	3067.3885	3067.8983	3115.4889	3130.9735	3561.6443	3810.7585
OC1CCC11NCC1=O	O[C@H]1CC[C@]21NCC2=O	
InChI=1S/C6H9NO2/c8-4-1-2-6(4)5(9)3-7-6/h4,7-8H,1-3H2	InChI=1S/C6H9NO2/c8-4-1-2-6(4)5(9)3-7-6/h4,7-8H,1-3H2/t4-,6+/m0/s1
