17
gdb 96986	4.12271	1.34979	1.21626	2.4682	75.5	-0.2396	0.011	0.2506	1055.6966	0.137413	-417.965528	-417.958178	-417.957234	-417.997994	27.95	
C	 0.10365432	 1.4563590809	-0.0906183263	-0.337228
N	 0.174377558	 0.0045382394	-0.0745137139	-0.344617
C	 0.5423941184	-0.5905838271	 0.9710772157	 0.468056
O	 0.9135687648	 0.0054320157	 2.1630234661	-0.260505
C	 1.0718285745	-1.0440037071	 3.123728783	 0.0459
C	-0.2799739859	-1.764016409	 3.3104137921	-0.168255
N	 0.0884964822	-2.7915593712	 2.2772585414	-0.154856
C	 1.5080850438	-2.3077836356	 2.3416787307	-0.061092
C	 0.7219442122	-2.0634507098	 1.1173703255	-0.143385
H	 0.7446875409	 1.8341758222	-0.8951999576	 0.1275
H	-0.9206767105	 1.758698891	-0.3367543399	 0.128142
H	 0.3960061083	 1.935895055	 0.8500388608	 0.124088
H	 1.6320551803	-0.6643976201	 3.9751006948	 0.100793
H	-0.37144201	-2.2721601448	 4.2731029131	 0.122065
H	-1.1798548021	-1.1774497855	 3.1011946396	 0.120155
H	 2.3702879767	-2.951642141	 2.4605917251	 0.108722
H	 0.8060069285	-2.6692529732	 0.2261609996	 0.124519
50.9146	111.3986	226.9863	244.8671	401.0315	438.1487	475.1212	662.9609	679.0502	693.5235	767.8687	795.6763	858.9272	874.6345	894.0979	921.5266	965.0259	993.8546	1028.6643	1053.1194	1058.9087	1108.9394	1131.0613	1137.3678	1177.3679	1183.0431	1207.5875	1230.8905	1270.4945	1307.512	1345.1925	1361.514	1437.7587	1492.634	1494.2577	1495.634	1803.9938	3018.4799	3055.1324	3078.344	3090.9946	3120.0519	3148.2008	3196.5397	3227.9421
CN=C1OC2CN3C2C13	CN=C1O[C@H]2CN3[C@H]2[C@H]13	
InChI=1S/C6H8N2O/c1-7-6-5-4-3(9-6)2-8(4)5/h3-5H,2H2,1H3	InChI=1S/C6H8N2O/c1-7-6-5-4-3(9-6)2-8(4)5/h3-5H,2H2,1H3/t3-,4+,5+,8?/m0/s1
