16
gdb 131390	3.12535	1.35824	1.0225	4.5144	71.69	-0.2127	0.0211	0.2338	1134.8126	0.126049	-434.044002	-434.03616	-434.035216	-434.077373	29.488	
O	-0.1167565496	 1.2669279523	 0.0353278614	-0.423073
C	-0.0231113958	-0.0747601464	-0.0191050325	 0.376453
N	-0.1236649699	-0.7350347265	-1.1593657237	-0.301072
N	 0.0232225368	-2.0327131941	-0.7844692706	-0.192211
C	 0.2109280556	-2.1996122322	 0.5453984825	-0.104821
C	 0.1875609734	-0.9283522902	 1.0933027633	 0.097957
N	 0.3206591391	-0.4066421698	 2.4010888945	-0.207959
C	-0.225886565	-1.1653347477	 3.5326996853	-0.220736
C	 1.2433739202	-1.0564438	 3.3397552591	-0.220739
H	-0.0103842824	 1.4938099397	 0.9705441859	 0.300039
H	-0.0167800951	-2.7424956478	-1.4935381012	 0.276079
H	 0.3419236475	-3.1773139061	 0.9818726375	 0.129261
H	-0.7235631408	-0.5717676682	 4.2943317645	 0.124389
H	-0.6990970043	-2.1184908084	 3.3115753619	 0.121025
H	 1.776914341	-1.9350059189	 2.9864919087	 0.121019
H	 1.8284904591	-0.3826382756	 3.9592024034	 0.124389
27.3418	153.4349	173.0707	292.8439	307.6008	377.5487	484.01	502.5517	550.1197	567.0788	651.7612	739.5587	746.056	779.8948	818.5356	854.7707	915.616	948.1004	1034.3155	1066.7012	1106.8889	1122.3124	1135.2424	1176.4073	1179.1189	1225.7945	1271.759	1282.7916	1360.9712	1462.99	1488.8289	1490.2714	1515.9978	1568.2446	1642.2379	3106.6611	3110.6458	3189.0209	3204.8312	3255.4191	3695.4775	3746.1648
OC1=NNC=C1N1CC1	Oc1n[nH]cc1N1CC1	
InChI=1S/C5H7N3O/c9-5-4(3-6-7-5)8-1-2-8/h3H,1-2H2,(H2,6,7,9)	InChI=1S/C5H7N3O/c9-5-4(3-6-7-5)8-1-2-8/h3H,1-2H2,(H2,6,7,9)
