18
gdb 77997	2.92688	1.28382	1.05667	3.1068	79.31	-0.2271	0.0077	0.2348	1172.3839	0.148843	-398.090429	-398.081797	-398.080852	-398.123372	32.977	
C	-0.1752447208	 1.4260138218	-0.3271940092	-0.409436
C	 0.2350544895	-0.0355638595	-0.2570933594	 0.048143
N	 1.4802486738	-0.4254201602	-1.0155739727	-0.397138
C	 1.9307168239	-1.2365984274	 0.1426732258	 0.218089
C	 2.4029358449	-2.5708750087	 0.0239866816	 0.167661
N	 2.7984578296	-3.655818454	-0.0769285579	-0.352959
C	 2.271347292	-0.252167407	 1.2520137794	-0.018595
N	 2.8390142061	 1.0417758312	 1.0062971305	-0.522993
C	 0.8280181517	-0.6186449411	 1.0341651871	-0.168558
H	-0.4070055804	 1.7099676395	-1.3591046092	 0.120361
H	-1.0757391629	 1.5890762961	 0.2747923552	 0.122063
H	 0.6084236974	 2.0841733288	 0.0523118829	 0.142648
H	-0.6032722379	-0.6721415569	-0.5658452766	 0.091016
H	 1.2724325383	-0.9964149339	-1.8273736243	 0.238786
H	 2.6724963055	-0.7328783554	 2.1395871648	 0.118898
H	 3.8402460723	 1.0032748261	 1.1733070213	 0.237224
H	 2.717739807	 1.2645078689	 0.0201297713	 0.250589
H	 0.24517859	-1.0965629185	 1.8113710996	 0.114202
113.3367	148.8601	175.4744	213.4542	243.0471	310.1877	321.9625	394.8266	470.3071	500.4885	546.3001	609.5903	681.0971	689.4038	780.4787	813.9752	874.183	877.8192	932.4879	977.2053	996.9371	1033.8999	1080.5862	1099.7922	1109.516	1162.8742	1204.4022	1215.9386	1240.3824	1308.4593	1334.0442	1366.3981	1390.0177	1417.1886	1481.5983	1490.4301	1499.6616	1661.7352	2329.6104	3023.8165	3040.361	3101.9759	3140.0459	3163.5419	3194.1272	3473.7043	3542.6593	3556.535
CC1NC2(C#N)C(N)C12	C[C@H]1N[C@@]2(C#N)[C@@H](N)[C@@H]12	
InChI=1S/C6H9N3/c1-3-4-5(8)6(4,2-7)9-3/h3-5,9H,8H2,1H3	InChI=1S/C6H9N3/c1-3-4-5(8)6(4,2-7)9-3/h3-5,9H,8H2,1H3/t3-,4-,5+,6-/m1/s1
