20
gdb 76311	2.44684	1.35912	1.10715	2.6121	78.15	-0.271	0.0294	0.3003	1170.9555	0.170012	-403.158563	-403.148825	-403.147881	-403.19293	35.946	
C	 0.7526208294	 1.569937061	-0.0353561611	-0.428346
C	 0.1453481946	 0.173171195	 0.0316172088	-0.046926
C	 0.7730254856	-0.8907004178	-0.9283688187	 0.134065
O	 1.5125922608	-0.4647329245	-2.0406167001	-0.420789
C	 1.5109988447	-1.5705312875	 0.2718792238	-0.046923
C	 3.0110399879	-1.3136711149	 0.3619690704	-0.428334
C	 0.5937099114	-0.7325158296	 1.2388731461	-0.177207
C	 1.2189707256	-0.0857604222	 2.37844188	 0.285448
N	 1.7325496146	 0.4392448965	 3.272375197	-0.34327
H	 1.8377606458	 1.5701387432	 0.1096557122	 0.124494
H	 0.5392243072	 2.0238796252	-1.0075850836	 0.131971
H	 0.331383196	 2.2128241096	 0.7426683917	 0.139821
H	-0.941688317	 0.2535711529	-0.051935302	 0.086924
H	 0.0021924214	-1.5505027743	-1.33548107	 0.095255
H	 2.2125057036	 0.1247516649	-1.7417839986	 0.287463
H	 1.3291034613	-2.645837464	 0.3475531142	 0.086926
H	 3.2616745241	-0.2479620427	 0.3602020956	 0.12449
H	 3.4204217092	-1.7313534535	 1.2860994501	 0.139823
H	 3.522141765	-1.7847608506	-0.4828253008	 0.131969
H	-0.2412358512	-1.3361474169	 1.603910345	 0.123146
64.9943	129.2437	167.072	194.3054	201.8191	233.1295	251.4192	300.805	343.2897	363.0103	478.4904	489.1406	593.103	593.1648	754.4897	767.3209	783.6094	825.7378	905.6046	990.2533	993.7028	1030.0879	1059.5978	1111.7588	1124.0754	1128.4215	1171.3756	1179.3584	1252.4001	1267.4515	1279.1124	1296.9402	1329.7049	1352.7198	1379.5834	1408.041	1417.8644	1445.5378	1487.9263	1493.8285	1499.578	1505.1415	2346.9804	3038.2599	3042.8839	3058.0089	3064.6098	3073.8653	3085.4185	3104.4063	3112.5417	3117.3783	3117.8648	3820.2668
CC1C(O)C(C)C1C#N	C[C@H]1[C@@H](O)[C@@H](C)[C@H]1C#N	
InChI=1S/C7H11NO/c1-4-6(3-8)5(2)7(4)9/h4-7,9H,1-2H3	InChI=1S/C7H11NO/c1-4-6(3-8)5(2)7(4)9/h4-7,9H,1-2H3/t4-,5+,6+,7-
