16
gdb 30398	3.97213	1.18712	0.9195	4.6106	79.55	-0.21	-0.0276	0.1824	1230.6809	0.126712	-430.301781	-430.293382	-430.292438	-430.334987	30.781	
C	-0.0029890117	 1.4392324956	-0.104854567	-0.326295
N	 0.1285585605	-0.0045322146	-0.0644408105	-0.357665
C	 0.6245896063	-0.546084637	 0.9732320401	 0.445656
N	 1.0849413537	 0.0539982682	 2.1335592802	-0.312626
C	 1.5584788687	-0.7231819273	 3.0624244191	 0.064218
N	 1.6685722577	-2.0825034007	 3.0781198893	-0.356389
C	 1.2368593506	-2.6644329834	 1.9783983412	 0.511708
N	 1.3395697848	-4.0138788988	 1.8589173818	-0.569757
N	 0.7265660024	-1.9644442514	 0.9452892571	-0.376889
H	 0.422260351	-2.4007551007	 0.0861749903	 0.259523
H	 0.5508144156	 1.8300841267	-0.9676662368	 0.112955
H	-1.0559088687	 1.7036263272	-0.2643355028	 0.112529
H	 0.3537743415	 1.9414283042	 0.8006437934	 0.131262
H	 1.9193024318	-0.2360076842	 3.96782193	 0.116909
H	 1.5708613118	-4.4963120199	 2.7126520086	 0.279481
H	 0.7654548238	-4.508066044	 1.1963830759	 0.265381
81.1317	99.9509	188.0871	223.992	251.8283	328.7314	369.7223	419.306	486.5167	500.5182	572.929	620.8323	652.754	744.1088	792.8858	813.5936	953.3477	986.0641	1021.8271	1052.1902	1099.9544	1136.5314	1146.0234	1197.4593	1319.0134	1339.8954	1422.6504	1434.8507	1493.7709	1497.8816	1510.5918	1583.5228	1645.5591	1659.0979	1752.7916	3009.3315	3057.0787	3089.6891	3140.1941	3597.9586	3602.9923	3722.9292
CN=C1N=C[N-]C(N)=[NH+]1	C[N]C1=NC=N[C@H](N)N1	
InChI=1S/C4H6N5/c1-6-4-8-2-7-3(5)9-4/h2H,1H3,(H2-,5,6,7,8,9)/q-1/p+1	InChI=1S/C4H8N5/c1-6-4-8-2-7-3(5)9-4/h2-3H,5H2,1H3,(H,7,8,9)/t3-/m0/s1
