20
gdb 105957	3.0255	1.48578	1.17962	1.9311	81.9	-0.2042	0.0716	0.2758	1127.5445	0.169795	-365.902982	-365.894501	-365.893557	-365.935873	32.754	
C	-0.031879879	 1.5916352495	-0.0068163299	-0.382921
C	-0.01220994	 0.0587118373	-0.0005395833	-0.331418
C	-1.378852185	-0.5375546317	 0.1195947379	 0.315774
C	-2.6233863718	-0.1107697878	 0.8197876474	-0.115984
C	-3.1716171882	-1.5561848827	 0.7981748093	-0.175052
C	-3.074814734	-1.4998618493	-0.7071112215	-0.065083
N	-2.5633884149	-0.0622232309	-0.6891981588	-0.221885
C	-1.8936311792	-2.0139133397	 0.0757944543	 0.27432
C	-1.2062227034	-3.3388745987	 0.091682545	-0.526059
H	 0.9740457361	 1.9916160659	-0.1614838351	 0.111301
H	-0.6799562059	 1.961911198	-0.8055994644	 0.14472
H	-0.4071424302	 1.9861047247	 0.9430806401	 0.115598
H	 0.4526345717	-0.3089217798	-0.9254775832	 0.105057
H	 0.6116691742	-0.3084117848	 0.8254739831	 0.101585
H	-2.8584207614	 0.7652049865	 1.413648716	 0.091586
H	-3.8234307455	-2.1199488223	 1.450879421	 0.091233
H	-3.6753517693	-1.9335677089	-1.4979929119	 0.0944
H	-0.519791042	-3.4487908902	-0.7559773205	 0.124922
H	-0.6291399315	-3.4855604269	 1.0122047841	 0.122941
H	-1.9389012407	-4.1512650781	 0.0295130504	 0.124965
89.0935	142.3314	188.6367	213.2833	238.6599	247.5139	313.7502	427.6252	576.0753	638.2858	653.5134	741.3752	781.0403	789.717	835.3171	856.2982	864.1548	893.871	902.8216	935.5531	970.8717	997.5634	1018.2386	1052.1566	1054.2087	1101.0965	1114.7429	1130.0418	1181.908	1191.3338	1244.8318	1263.2439	1292.2596	1361.3037	1402.4349	1408.0267	1421.4153	1445.1366	1482.0964	1484.3637	1497.0297	1498.6761	1512.7545	3010.3498	3019.5246	3039.4028	3043.3799	3078.0619	3089.2092	3108.9749	3125.182	3171.3334	3178.0919	3213.1476
CCC12C3C4C(N13)C24C	CC[C@@]12[C@@H]3[C@H]4[C@@H](N13)[C@@]24C	
InChI=1S/C8H11N/c1-3-8-6-4-5(9(6)8)7(4,8)2/h4-6H,3H2,1-2H3	InChI=1S/C8H11N/c1-3-8-6-4-5(9(6)8)7(4,8)2/h4-6H,3H2,1-2H3/t4-,5-,6+,7+,8+,9?/m1/s1
