14
gdb 127899	2.65453	1.63264	1.01772	3.7056	74.08	-0.2419	-0.0804	0.1615	1092.7593	0.099208	-466.095096	-466.086687	-466.085743	-466.128369	30.349	
C	-0.1575519815	 1.3947695037	 0.0062142992	-0.341551
N	-0.1229266535	-0.0520747749	-0.092205115	-0.303697
C	 0.617295277	-0.630230601	-0.9531585857	 0.370445
N	 1.4545108402	 0.0443969917	-1.8641165584	-0.216776
N	 2.1293266923	-0.5660252755	-2.7111034328	 0.071984
O	 2.0769088051	-1.9495972673	-2.7916157688	-0.22012
N	 1.3085633207	-2.7382055321	-1.9324578276	-0.19825
C	 0.6231101727	-2.0920620072	-1.0362649339	 0.400007
N	-0.1131778787	-2.7628801445	-0.1271470906	-0.544
H	 0.5031947138	 1.9109434401	-0.6952963609	 0.148776
H	-1.1896609623	 1.7274729875	-0.1533464182	 0.138737
H	 0.105697686	 1.676826126	 1.0319643641	 0.139451
H	-0.2533156915	-3.7532956459	-0.2343587158	 0.27282
H	-0.7455362204	-2.2103022607	 0.4295289844	 0.282176
73.3841	107.4704	202.0741	220.5004	253.0838	281.3505	345.1395	464.0435	505.9216	531.8859	555.1339	602.3083	603.6617	718.5118	755.6635	802.5862	901.6291	963.1923	1066.5724	1124.7935	1139.399	1148.3959	1232.8634	1427.887	1472.5351	1486.1033	1489.8676	1567.6702	1595.2639	1646.1384	1715.5123	3026.4043	3081.3302	3116.6788	3592.4108	3729.8964
CN=C1N=NON=C1N	C[N]C1=N[N]ON=C1N	
InChI=1S/C3H5N5O/c1-5-3-2(4)7-9-8-6-3/h1H3,(H2,4,7)	InChI=1S/C3H5N5O/c1-5-3-2(4)7-9-8-6-3/h1H3,(H2,4,7)
