16
gdb 53483	3.19183	0.81985	0.67571	3.5898	84.19	-0.2606	0.0081	0.2688	1630.7849	0.12099	-363.564427	-363.554111	-363.553167	-363.601589	34.955	
C	-0.0040420195	 1.4917539089	-0.003338758	-0.499133
C	 0.0179105926	 0.0369933943	-0.0342486199	 0.120683
C	 0.0459742178	-1.1661931556	-0.0505008452	 0.026463
C	 0.0348240003	-2.6205073883	-0.0666817463	-0.358408
C	-1.410261534	-3.2108814592	 0.0580973877	-0.321351
C	-1.4030968879	-4.6655234913	-0.0945339239	 0.319572
C	-1.3596379696	-5.856020493	-0.2397790717	-0.414922
C	-2.0323849637	-2.818029335	 1.3328868174	 0.304103
N	-2.5173255533	-2.5076807127	 2.3337869545	-0.320502
H	 0.9480784587	 1.8927787521	 0.360531401	 0.153708
H	-0.1833994342	 1.910272613	-0.9995274321	 0.150003
H	-0.7941721172	 1.8579626416	 0.6608116593	 0.159131
H	 0.4552035437	-3.0063429077	-1.0016868205	 0.147907
H	 0.6442201816	-3.0290869567	 0.7464168046	 0.155502
H	-2.0144116497	-2.7673183699	-0.7436291115	 0.166303
H	-1.3368905354	-6.9111259605	-0.3620810854	 0.21094
26.7767	48.3593	73.7541	131.0061	179.5071	192.8554	231.8872	300.8116	361.1024	388.335	454.8706	467.4251	571.7796	583.6485	652.6776	672.6874	774.7158	810.6252	967.917	1014.9227	1049.1343	1052.1676	1056.9845	1173.9996	1198.2862	1273.3545	1326.6584	1352.3799	1414.3314	1473.6956	1476.6311	1477.5778	2248.6275	2367.7336	2377.3133	3031.0007	3033.4537	3045.0837	3083.9558	3092.9559	3095.1963	3502.361
CC#CCC(C#C)C#N	CC#CC[C@@H](C#C)C#N	
InChI=1S/C8H7N/c1-3-5-6-8(4-2)7-9/h2,8H,6H2,1H3	InChI=1S/C8H7N/c1-3-5-6-8(4-2)7-9/h2,8H,6H2,1H3/t8-/m1/s1
