17
gdb 82350	2.43289	1.66678	1.33243	5.0872	70.91	-0.234	0.0202	0.2542	1001.8975	0.137512	-417.990824	-417.982833	-417.981889	-418.023445	30.641	
O	 0.3046908315	 1.0249141996	 0.6805999671	-0.411997
C	-0.0154262207	-0.2264408835	 0.1181519334	 0.107718
C	-1.485316573	-0.2994854736	-0.2280531217	-0.054721
C	-1.9383665552	 0.5667218313	-1.3880149219	-0.294203
C	-1.5852905079	-0.8706094741	-1.6224577616	-0.000411
N	-0.2621221109	-1.1524385849	-2.1670488428	-0.284989
C	 0.7154697475	-0.5288347235	-1.2616020766	-0.249033
C	 1.2944983302	 0.6948741973	-1.8432990257	 0.335963
N	 1.7938463939	 1.6352204523	-2.2924730381	-0.339068
H	 1.2493614233	 1.060675276	 0.8655950128	 0.291212
H	 0.2349597885	-1.0408537858	 0.8145614703	 0.076549
H	-2.1816234773	-0.5532705669	 0.5617287752	 0.094645
H	-2.9903945438	 0.8265079672	-1.4194644227	 0.119999
H	-1.276513521	 1.3453753976	-1.7497476408	 0.152482
H	-2.3528890671	-1.5756299051	-1.9176337556	 0.098137
H	-0.1122983027	-2.1545162255	-2.1734221777	 0.231248
H	 1.5543943346	-1.2140114683	-1.1026004637	 0.126469
67.5925	153.9467	185.9465	268.0203	281.5948	357.5288	399.3213	485.483	515.0873	592.6678	669.7551	736.784	742.869	783.6192	799.0818	857.6185	945.0927	958.126	976.6982	1019.2063	1058.6893	1071.1665	1087.2651	1099.1102	1121.4014	1156.3262	1200.7102	1232.6821	1248.6553	1312.0773	1340.6129	1350.0645	1399.7013	1431.5379	1459.7061	1499.0312	2356.4877	2982.729	3059.8518	3143.0594	3181.9722	3190.2726	3230.3239	3541.017	3810.1342
OC1C2CC2NC1C#N	O[C@H]1[C@H]2C[C@H]2N[C@H]1C#N	
InChI=1S/C6H8N2O/c7-2-5-6(9)3-1-4(3)8-5/h3-6,8-9H,1H2	InChI=1S/C6H8N2O/c7-2-5-6(9)3-1-4(3)8-5/h3-6,8-9H,1H2/t3-,4+,5-,6-/m0/s1
