14
gdb 84983	2.93723	1.23438	0.90458	6.1838	72.	-0.2686	-0.0863	0.1823	1201.2576	0.100634	-436.72697	-436.718844	-436.7179	-436.760241	29.268	
O	 0.0058793692	 1.4441031902	 0.1187200136	-0.419046
C	 0.0063319669	 0.0297834025	 0.0013927572	 0.0707
C	-1.4384257981	-0.480889345	-0.088187867	-0.341507
C	-1.4803114564	-1.4169721919	-1.2981365692	 0.320093
O	-2.3809004212	-2.1395458641	-1.6288998882	-0.290717
C	-0.1580955467	-1.254894121	-2.0010554559	 0.083859
C	 0.6439307828	-0.4487874073	-1.2883528614	-0.178263
C	 0.1425232786	-1.8881778261	-3.2373609425	 0.23336
N	 0.3764234925	-2.4108289016	-4.2429036289	-0.322317
H	 0.9028415392	 1.7404662676	 0.3063614869	 0.292817
H	 0.5312797709	-0.4271714842	 0.8546242507	 0.101282
H	-1.7950327839	-0.9915496787	 0.807963269	 0.144474
H	-2.1018929772	 0.3690251031	-0.2768932187	 0.165929
H	 1.6483658235	-0.1564507034	-1.5753100157	 0.139336
71.8604	111.6377	141.5819	256.0332	267.7506	340.0481	424.0333	428.5972	509.086	530.9557	604.8953	652.3095	704.618	760.7196	885.8051	919.5118	973.6259	1021.5519	1052.7013	1078.0892	1166.8575	1196.0471	1253.1295	1267.6907	1306.61	1327.7359	1413.7072	1447.7842	1666.221	1842.4715	2350.8838	2980.5792	3073.1527	3129.8238	3200.9618	3813.9956
OC1CC(=O)C(=C1)C#N	O[C@H]1CC(=O)C(=C1)C#N	
InChI=1S/C6H5NO2/c7-3-4-1-5(8)2-6(4)9/h1,5,8H,2H2	InChI=1S/C6H5NO2/c7-3-4-1-5(8)2-6(4)9/h1,5,8H,2H2/t5-/m1/s1
