20
gdb 41741	3.66645	1.42892	1.22977	2.9102	78.26	-0.2239	0.0817	0.3056	1069.3032	0.174274	-403.138836	-403.131628	-403.130684	-403.170175	29.245	
C	 0.2441917221	 1.3595895524	-0.480401962	-0.235865
C	 1.4116929356	 1.9565672752	 0.3444274653	-0.151764
N	 2.1178411505	 0.8502888069	 1.0247230927	-0.141477
C	 2.5151665249	-0.2346590072	 0.1093754783	-0.105691
C	 3.474256719	-1.2126598921	 0.7529307858	-0.092895
O	 2.8662639556	-1.6178896169	 1.9783452603	-0.257966
C	 1.4601704407	-1.4026426231	 1.9217226041	-0.160354
C	 1.2435131137	-0.3423726387	 0.8682089342	 0.338899
C	-0.0822821608	 0.0415680875	 0.2539912871	-0.317053
H	-0.6112672387	 2.0365183743	-0.5397376507	 0.104159
H	 0.5580001626	 1.1500869751	-1.5074316041	 0.108369
H	 2.111164242	 2.5377711562	-0.265019523	 0.10548
H	 1.0303308567	 2.6193217781	 1.1286391714	 0.109313
H	 2.5540739936	-0.060991629	-0.9618339934	 0.085662
H	 3.6330720423	-2.0719329649	 0.0810009084	 0.087011
H	 4.4471359196	-0.7749796417	 0.9999874099	 0.112531
H	 0.9214926932	-2.3235399702	 1.6411967232	 0.08618
H	 1.1312781563	-1.098650487	 2.9218099059	 0.109167
H	-0.8205552051	 0.2063886685	 1.0485135307	 0.108921
H	-0.4869636938	-0.7263381033	-0.4123973141	 0.107373
172.0823	204.8073	220.002	273.0114	316.745	381.0414	460.7862	632.4786	656.0834	692.4005	776.8305	803.5382	849.146	888.2179	896.0996	925.5366	937.4553	973.852	996.8246	1020.2685	1039.7994	1071.2096	1095.3695	1111.83	1121.7725	1179.1628	1204.5545	1224.6305	1235.2313	1245.723	1253.5814	1292.1708	1326.871	1335.1878	1347.5122	1375.313	1377.3946	1443.3571	1490.5557	1496.768	1501.3387	1511.761	1513.9776	2961.6294	2973.6562	3032.3133	3042.1942	3056.4487	3058.628	3068.542	3081.4207	3083.1735	3109.14	3158.2206
C1CN2C3COCC23C1	C1CN2[C@H]3COC[C@@]23C1	
InChI=1S/C7H11NO/c1-2-7-5-9-4-6(7)8(7)3-1/h6H,1-5H2	InChI=1S/C7H11NO/c1-2-7-5-9-4-6(7)8(7)3-1/h6H,1-5H2/t6-,7+,8?/m0/s1
