21
gdb 94322	2.61182	1.30412	1.08573	2.9685	79.	-0.2372	0.065	0.3023	1216.4756	0.179868	-424.195231	-424.185494	-424.184549	-424.229415	36.72	
C	-0.287143755	 1.4523886438	 0.0825329712	-0.400631
C	 0.1185347314	-0.0050881756	-0.0226585921	 0.082505
O	 1.3443849106	-0.1829761557	-0.777992168	-0.301915
C	 2.0044003898	-0.8430721973	 0.3273871732	-0.134973
C	 0.7648184703	-0.675697059	 1.1929530118	 0.25484
C	 0.6896090677	-0.3134677424	 2.6543016544	-0.425177
C	 0.2041431916	-1.6625860294	 2.1606537088	 0.331
C	-1.2709053366	-1.9923482398	 2.1692493649	-0.450709
O	 1.0484533594	-2.7657895763	 2.3751893416	-0.465191
H	 0.5015501072	 2.0429014962	 0.5576654747	 0.121453
H	-0.4746028231	 1.8615521467	-0.9150917169	 0.126915
H	-1.2063321327	 1.5586498595	 0.6700662443	 0.110573
H	-0.6948964714	-0.5940325364	-0.4719357873	 0.072354
H	 2.2741484887	-1.8794186095	 0.0935920294	 0.114387
H	 2.9012633111	-0.3002925431	 0.6521099688	 0.098239
H	 1.6247743962	-0.2937146773	 3.2056306934	 0.113225
H	-0.0450900183	 0.4210771667	 2.9714755927	 0.110574
H	-1.8791868958	-1.1129512248	 1.9381750558	 0.120155
H	-1.4943678457	-2.7711494053	 1.4330932962	 0.129981
H	-1.5817897087	-2.3590656796	 3.1552454681	 0.110349
H	 0.9379884132	-3.0518812013	 3.2888437649	 0.282046
76.0852	136.5425	147.0112	213.2848	228.5714	236.2035	267.8991	291.1507	374.3137	407.7015	435.3682	449.3901	522.4407	600.5747	716.4753	793.355	879.7779	881.0739	909.0437	913.9985	976.903	1010.6884	1028.3863	1041.4907	1059.9524	1082.9101	1100.3655	1140.0798	1154.5313	1190.0855	1199.1633	1272.5173	1291.8999	1301.3368	1354.5893	1379.607	1402.1478	1411.2064	1430.6678	1481.8709	1483.0042	1484.7424	1492.0418	1517.8103	1528.2683	2986.6865	3013.582	3025.496	3032.2087	3060.776	3088.8548	3101.811	3112.2036	3117.0247	3117.8631	3206.2951	3793.483
CC1OCC11CC1(C)O	C[C@H]1OC[C@]21C[C@]2(C)O	
InChI=1S/C7H12O2/c1-5-7(4-9-5)3-6(7,2)8/h5,8H,3-4H2,1-2H3	InChI=1S/C7H12O2/c1-5-7(4-9-5)3-6(7,2)8/h5,8H,3-4H2,1-2H3/t5-,6+,7+/m1/s1
