19
gdb 69512	2.47129	1.62572	1.35294	1.2065	74.7	-0.2341	0.0728	0.307	1046.9787	0.156886	-422.977512	-422.968622	-422.967677	-423.010346	34.396	
C	 0.0278308708	 1.5295579383	 0.118468416	-0.505133
C	 0.0084445256	 0.0327841292	 0.01060315	 0.165403
C	 1.21164053	-0.8139197991	-0.3758077861	-0.379573
C	 0.6142598545	-1.0055333025	 0.9854411307	 0.382376
O	 1.3792935843	-0.7914283362	 2.1134238679	-0.460307
C	-0.6618189179	-1.8087370398	 0.9002928922	-0.167736
O	-1.7658096977	-0.9547054955	 1.2807346479	-0.305497
C	-1.2376038996	-0.841717984	-0.0560780427	 0.387325
C	-2.1717751749	-1.0448012282	-1.2063421978	-0.507265
H	 0.977996428	 1.8739735303	 0.540317657	 0.1262
H	-0.0965317675	 2.0152391092	-0.8563691557	 0.120596
H	-0.776788502	 1.8778170699	 0.7749404431	 0.127519
H	 1.1412190753	-1.5868500273	-1.1372693011	 0.106957
H	 2.1593743053	-0.2829463136	-0.3691382535	 0.123597
H	 0.7855777484	-0.4940273692	 2.8133204249	 0.292888
H	-0.8194460571	-2.878533635	 0.9845220395	 0.099901
H	-2.7845485541	-0.151372911	-1.3702362962	 0.131317
H	-1.6117046727	-1.2390269774	-2.1268085654	 0.127156
H	-2.8431533585	-1.8857939783	-1.0160070207	 0.134277
150.8626	162.7624	193.8307	198.1552	223.2369	227.2013	333.2778	394.7868	419.9058	475.8308	538.3257	578.73	617.0123	668.2775	734.0741	763.0122	838.2271	876.4062	911.6878	967.6073	977.2862	984.5737	1021.3282	1080.2052	1096.2688	1098.4726	1133.8919	1169.1744	1205.3605	1259.7923	1344.2829	1348.3483	1400.1729	1408.1524	1413.8955	1452.584	1483.285	1488.6152	1494.0238	1499.6301	1502.8639	3024.0246	3035.6573	3084.643	3096.5881	3098.3842	3107.3219	3123.0437	3178.6743	3195.9806	3785.4591
CC12CC1(O)C1OC21C	C[C@@]12C[C@]1(O)[C@H]1O[C@@]21C	
InChI=1S/C7H10O2/c1-5-3-7(5,8)4-6(5,2)9-4/h4,8H,3H2,1-2H3	InChI=1S/C7H10O2/c1-5-3-7(5,8)4-6(5,2)9-4/h4,8H,3H2,1-2H3/t4-,5-,6+,7-/m0/s1
