19
gdb 47728	2.47134	1.68516	1.14541	1.6049	75.86	-0.2432	-0.0185	0.2247	1091.1646	0.160481	-423.040207	-423.032256	-423.031312	-423.072832	30.888	
O	 0.0178866069	 0.0158762492	 0.3787272472	-0.326556
C	 0.0025515782	 1.1955274886	 0.1015414661	 0.309467
C	-1.3006553019	 1.9683293609	-0.0675867092	-0.306782
C	-1.1700656509	 3.1601801575	-1.0244967526	-0.095183
O	-0.058528082	 3.9671910814	-0.6816503294	-0.234567
C	 1.153837653	 3.2648459984	-0.8745295198	-0.175971
C	 1.2542475589	 2.0197529029	-0.0046226827	 0.230756
C	 2.0863198615	 2.0609420795	 1.2762707495	-0.284157
C	 2.5732295689	 1.295349706	 0.0860852697	-0.301846
H	-2.0886955362	 1.2750195194	-0.3741246762	 0.123424
H	-1.564518466	 2.3485831033	 0.9284082654	 0.137411
H	-1.0743008165	 2.8054821521	-2.0646547389	 0.095566
H	-2.0542196348	 3.8008900937	-0.9706360279	 0.114857
H	 1.2503543128	 2.9789465028	-1.93654354	 0.093847
H	 1.9642555286	 3.9628385169	-0.6433612573	 0.108645
H	 2.5566805857	 3.0071321121	 1.523187582	 0.12069
H	 1.7157876343	 1.4961219914	 2.124295527	 0.133429
H	 2.5187892512	 0.2137988045	 0.1239824033	 0.141964
H	 3.4002621483	 1.7042372694	-0.4853671961	 0.115007
69.1364	135.1049	235.4817	271.6284	290.3496	379.6754	399.3418	443.71	509.176	576.01	658.7737	707.7623	792.1696	829.4018	847.5582	897.3865	943.0834	960.6606	978.6675	1007.6941	1049.0403	1062.1332	1086.8559	1102.8643	1110.4656	1168.1505	1199.7168	1226.299	1250.2147	1299.2623	1318.783	1339.784	1345.8771	1399.9692	1422.908	1444.1824	1455.4864	1484.7827	1497.2903	1509.0176	1794.7351	2952.2681	2966.9287	3030.6641	3076.4389	3091.076	3102.8773	3131.9459	3135.8198	3219.6233	3234.6615
O=C1CCOCC11CC1	O=C1CCOCC21CC2	
InChI=1S/C7H10O2/c8-6-1-4-9-5-7(6)2-3-7/h1-5H2	InChI=1S/C7H10O2/c8-6-1-4-9-5-7(6)2-3-7/h1-5H2
