17
gdb 102909	2.69423	0.90008	0.77105	2.1875	77.82	-0.2588	0.0079	0.2667	1493.4723	0.131301	-421.72594	-421.715686	-421.714742	-421.762314	36.179	
O	 0.0591378615	 1.4085381139	 0.2375772974	-0.41332
C	 0.0386123902	 0.026995146	-0.0161140948	-0.051959
C	-1.405005817	-0.5128513943	-0.0472160405	-0.112456
O	-2.0548769417	-0.1321682577	 1.1762544974	-0.264492
C	-1.9401807236	-1.1062843202	 2.2073941796	-0.214409
C	-2.5018278039	-0.5748811575	 3.440340104	 0.281834
C	-2.9566012191	-0.157047042	 4.469864907	-0.411377
C	-2.1777158513	 0.0265376259	-1.1619441718	 0.353038
C	-2.7902353279	 0.4503536825	-2.1036085658	-0.435498
H	-0.5714467058	 1.5573819269	 0.9540604976	 0.292898
H	 0.5199181929	-0.1450260406	-0.9836364048	 0.120196
H	 0.6034313074	-0.538330625	 0.7449212157	 0.085155
H	-1.3780155324	-1.6106746375	-0.1288080164	 0.10139
H	-2.4740358418	-2.0248716373	 1.9159291356	 0.132095
H	-0.8883280977	-1.3852540613	 2.3755746072	 0.127413
H	-3.361900618	 0.2170358145	 5.377573296	 0.206414
H	-3.3361134019	 0.8335555938	-2.9301982434	 0.203079
38.1245	64.2571	98.4232	116.1574	182.6258	211.7389	289.1154	330.9685	348.5486	417.7113	450.4393	459.4307	588.0292	616.7386	627.337	674.4695	683.1609	720.9375	849.7351	908.7938	972.4612	1028.1496	1031.3834	1077.537	1093.3621	1115.4555	1226.1728	1250.6267	1294.0529	1343.807	1388.9934	1419.1149	1438.4966	1496.2847	1505.6838	2245.4531	2249.5133	2956.0609	2971.9159	2987.974	2999.0094	3085.4022	3503.638	3505.0444	3771.9793
OCC(OCC#C)C#C	OC[C@@H](OCC#C)C#C	
InChI=1S/C7H8O2/c1-3-5-9-7(4-2)6-8/h1-2,7-8H,5-6H2	InChI=1S/C7H8O2/c1-3-5-9-7(4-2)6-8/h1-2,7-8H,5-6H2/t7-/m0/s1
