17
gdb 19794	2.98806	2.613	1.84277	2.571	65.78	-0.2336	0.0644	0.2981	766.2493	0.144977	-363.822862	-363.81646	-363.815516	-363.853074	26.422	
O	 0.0694244242	 1.4182848468	-0.0465256936	-0.438504
C	 0.0166574257	 0.0064113837	 0.0297048749	 0.122606
C	-1.4008409225	-0.6007263892	 0.0477201385	-0.0645
C	-2.3491833168	-0.3281958135	-1.0938684712	-0.293105
C	-1.5303754692	-1.5940973791	-1.0884661337	-0.034797
C	-0.211641709	-1.5721855006	-1.8407602817	-0.04416
N	 0.1410184903	-0.2591498934	-2.4369312333	-0.353098
C	 0.7347247562	-0.6697033443	-1.1459458224	-0.074516
H	-0.1612034007	 1.6368024859	-0.9585031254	 0.288199
H	 0.5226241728	-0.2578708877	 0.9643769524	 0.083624
H	-1.8362230501	-0.8033397151	 1.0197838042	 0.083307
H	-3.4075530897	-0.4193933144	-0.8742997458	 0.10533
H	-2.0993675184	 0.4277659217	-1.8273840056	 0.128951
H	-2.0176557984	-2.5539419383	-0.9629416493	 0.081495
H	 0.1189262513	-2.4704723316	-2.3508647447	 0.086973
H	 0.8176381495	-0.390805607	-3.1840189629	 0.234072
H	 1.8042673748	-0.8459442438	-1.0933375201	 0.088123
140.4528	228.1542	343.765	399.0603	459.4751	534.9641	556.5777	674.2079	716.9215	735.9526	795.7452	841.2066	851.3315	882.1529	911.009	960.9611	962.1956	1017.1106	1037.1475	1062.2564	1075.4855	1085.2878	1106.0531	1108.64	1138.0212	1160.9533	1203.3033	1244.1608	1291.682	1313.632	1320.244	1371.3638	1385.5335	1415.0183	1439.9442	1481.8683	3056.5927	3140.5838	3158.6509	3166.621	3169.4861	3182.2844	3232.998	3505.7461	3772.5325
OC1C2CC2C2NC12	O[C@H]1[C@H]2C[C@H]2[C@H]2N[C@@H]12	
InChI=1S/C6H9NO/c8-6-3-1-2(3)4-5(6)7-4/h2-8H,1H2	InChI=1S/C6H9NO/c8-6-3-1-2(3)4-5(6)7-4/h2-8H,1H2/t2-,3+,4-,5-,6+/m1/s1
