19
gdb 33532	2.27008	1.47558	1.11967	1.4643	80.65	-0.2517	0.0393	0.291	1160.0222	0.158154	-385.815074	-385.806243	-385.805298	-385.848876	33.258	
C	-0.1031755905	-1.294327487	 0.0635260742	-0.439677
C	-0.0822617999	-0.0916332357	 0.0542429928	 0.235159
C	-0.0418564876	 1.359170824	 0.0576535825	 0.087973
C	-0.0504484497	 2.0382914856	 1.4654228901	-0.108898
O	 1.1598168589	 2.7586932169	 1.1750158569	-0.270446
C	 1.3803379242	 2.001940192	-0.0277958817	-0.108902
C	-1.0297897106	 2.0006160174	-0.9045694434	-0.024115
C	-1.3531870126	 1.3943280096	-2.2450767938	-0.283851
C	-2.3973557977	 1.4209076663	-1.1552616823	-0.283849
H	-0.1184192924	-2.3562964229	 0.0750136069	 0.19705
H	-0.8975340764	 2.705040614	 1.6608203064	 0.108602
H	 0.0727326469	 1.3385047831	 2.3005106903	 0.106478
H	 2.2026864369	 1.2843927173	 0.0776161765	 0.106479
H	 1.5552913565	 2.6427253892	-0.8990445433	 0.108601
H	-0.9703698738	 3.0855580026	-0.8741052556	 0.093989
H	-1.4662874538	 2.0608687377	-3.0926569378	 0.112161
H	-0.9118903434	 0.4324573807	-2.4814575303	 0.125543
H	-2.6378677976	 0.4763852818	-0.6800289978	 0.125541
H	-3.2325409073	 2.1058175674	-1.2492044405	 0.112162
81.8499	83.8338	141.4154	178.1704	215.8415	296.6046	349.8989	432.5534	527.1867	544.6466	614.0393	631.347	638.9565	782.4255	804.0269	835.6997	871.0124	929.0372	956.0763	973.949	985.3246	1039.8856	1055.8465	1061.767	1082.5903	1089.2526	1137.8031	1148.774	1159.4061	1168.606	1201.1591	1234.6172	1300.4891	1303.4813	1370.0254	1395.6387	1464.1623	1502.8231	1509.4048	1535.4711	2231.0752	3016.1131	3026.4849	3074.9315	3076.0895	3136.3916	3136.4007	3142.005	3217.3414	3230.7305	3498.9725
C#CC1(COC1)C1CC1	C#CC1(COC1)C1CC1	
InChI=1S/C8H10O/c1-2-8(5-9-6-8)7-3-4-7/h1,7H,3-6H2	InChI=1S/C8H10O/c1-2-8(5-9-6-8)7-3-4-7/h1,7H,3-6H2
