18
gdb 22190	2.0071	0.88747	0.64237	1.5261	84.4	-0.2275	-0.0245	0.2031	1730.7406	0.14413	-439.015193	-439.004194	-439.00325	-439.053851	37.091	
C	-0.0973536741	 1.4243952038	 0.1059296511	-0.504625
C	-0.030162499	-0.0274861241	 0.0781612864	 0.161497
C	 0.0487699078	-1.2314094315	 0.0589522744	-0.017949
C	 0.0465236672	-2.6551198378	 0.0284498715	 0.167412
C	-1.2801433213	-3.375933599	-0.0679800409	-0.277331
C	-1.6381619263	-3.7183805232	-1.5168553948	-0.065495
O	-2.9122244783	-4.3428647886	-1.4951008188	-0.420128
N	 1.1968517055	-3.2362117357	 0.0669077759	-0.165143
O	 1.0697612735	-4.626767693	 0.0050843855	-0.39227
H	 0.4605366153	 1.8625418724	-0.7291982567	 0.154735
H	-1.1324879651	 1.775901972	 0.0381093981	 0.152682
H	 0.3299579834	 1.821298271	 1.0336273511	 0.155884
H	-1.2340895958	-4.3032359889	 0.5078835241	 0.136222
H	-2.0687902132	-2.7446124431	 0.3482217975	 0.117723
H	-1.652904825	-2.7977035867	-2.1208306408	 0.093257
H	-0.8675680644	-4.3825515864	-1.9324727516	 0.106277
H	-3.136205175	-4.5969006464	-2.3950293967	 0.286314
H	 1.9856905047	-4.9158003448	 0.0767508247	 0.310939
16.7061	41.145	88.7006	107.5897	116.5071	195.8172	237.5831	284.4178	297.255	323.6079	388.8043	417.1673	475.5913	484.0129	554.8081	647.5379	776.4478	837.4323	944.8395	1009.6492	1043.7551	1047.7379	1053.7886	1077.1473	1085.9847	1219.1591	1239.9482	1291.2391	1312.1467	1331.6683	1409.8674	1421.7407	1453.2435	1474.4728	1474.9096	1483.8638	1528.3868	1665.9343	2353.0282	2978.5425	3023.0977	3026.7567	3070.3656	3086.9146	3091.6986	3125.4474	3818.8412	3830.4907
CC#CC(CCO)=NO	CC#CC(=NO)CCO	
InChI=1S/C6H9NO2/c1-2-3-6(7-9)4-5-8/h8-9H,4-5H2,1H3	InChI=1S/C6H9NO2/c1-2-3-6(7-9)4-5-8/h8-9H,4-5H2,1H3
