19
gdb 111447	2.98146	1.49188	1.19866	3.3895	73.75	-0.2308	0.0657	0.2965	1064.1658	0.161611	-419.145685	-419.138046	-419.137102	-419.177794	30.48	
O	 0.1288369791	 1.3925294375	 0.0241558961	-0.428511
C	 0.0964113648	-0.0190597238	-0.0848162246	-0.055721
C	-1.3316937605	-0.551643437	-0.0089454949	 0.007159
C	-1.5102643141	-2.0569591523	-0.179484702	-0.065956
N	-0.8722157933	-2.8779961593	 0.8689192467	-0.339617
C	-2.3122105188	-2.5479397698	 0.9705338659	-0.050012
C	-2.6117093325	-1.3614609861	 1.8605153582	-0.025781
C	-1.4568797347	-0.7125299723	 2.5291599438	-0.258972
N	-1.9925878097	-0.1554614724	 1.2686111327	-0.136825
H	-0.4579063764	 1.6240338767	 0.7534761258	 0.29276
H	 0.533662316	-0.2695846016	-1.0578521705	 0.101667
H	 0.7128009611	-0.5029730187	 0.68678423	 0.100087
H	-1.9105128119	-0.058508592	-0.800777702	 0.091544
H	-1.6160860779	-2.4664461426	-1.1800554574	 0.09165
H	-0.7656409182	-3.8324338153	 0.5338271634	 0.234682
H	-3.0466164702	-3.3393685123	 0.8733218896	 0.09187
H	-3.6235015511	-1.264752117	 2.2439548355	 0.090075
H	-1.6208670394	-0.0702651202	 3.3903324405	 0.110121
H	-0.5219907322	-1.2608233616	 2.5203556531	 0.149779
98.1434	136.9217	212.1522	298.9599	356.6122	381.1866	440.7865	531.5287	548.0923	688.8512	706.9017	732.8298	798.9835	843.1545	854.7714	878.3226	898.7066	954.7852	996.4812	1034.625	1050.623	1061.1174	1084.6593	1088.6509	1109.6725	1127.5763	1135.6969	1162.8887	1165.9519	1223.8746	1240.4435	1269.4675	1306.8546	1336.5639	1362.3315	1379.3309	1382.1549	1420.2171	1436.6786	1491.9728	1511.4064	3000.3066	3025.6668	3065.698	3115.9735	3146.9941	3149.4011	3180.5755	3218.5236	3498.7305	3796.3678
OCC1C2NC2C2CN12	OC[C@H]1[C@H]2N[C@H]2[C@H]2CN12	
InChI=1S/C6H10N2O/c9-2-4-6-5(7-6)3-1-8(3)4/h3-7,9H,1-2H2	InChI=1S/C6H10N2O/c9-2-4-6-5(7-6)3-1-8(3)4/h3-7,9H,1-2H2/t3-,4+,5+,6-,8?/m1/s1
