21
gdb 96151	2.66349	1.41927	1.01321	1.7703	78.27	-0.2416	0.0832	0.3248	1211.4408	0.183317	-424.215964	-424.207583	-424.206639	-424.248676	32.957	
C	 0.0121963573	 1.5541094796	 0.0871755235	-0.395523
C	-0.0058804256	 0.0319809054	-0.010750856	 0.131647
C	 0.5277451579	-0.4630529912	-1.3702522388	-0.237354
C	 0.1511362365	-1.9021481961	-1.6720340403	 0.042359
O	 1.1906708742	-2.8100752749	-2.0561533889	-0.258324
C	 0.5486859468	-3.0115678148	-0.7926695668	 0.056521
C	 1.3517637103	-2.772909469	 0.4738824337	-0.246117
C	 0.6592806782	-1.7998684396	 1.4396095276	-0.06947
O	 0.7872252945	-0.4394577941	 1.0740291948	-0.255795
H	 1.0287693025	 1.9324779822	-0.0603647538	 0.125243
H	-0.637123087	 1.9998540299	-0.671892317	 0.112126
H	-0.3303865027	 1.8726873824	 1.0747484202	 0.12194
H	-1.0417701629	-0.32680882	 0.1213684194	 0.062913
H	 0.1465838016	 0.1839841823	-2.1683055875	 0.098649
H	 1.6175212994	-0.3640590565	-1.3670402307	 0.120749
H	-0.7688517174	-2.0296240453	-2.2452546239	 0.087715
H	-0.1038558223	-3.8862271333	-0.7714937988	 0.087657
H	 1.5207802709	-3.7269541904	 0.9869109519	 0.099521
H	 2.3341649361	-2.3685683224	 0.2121090858	 0.124031
H	-0.4044369561	-2.0699379582	 1.5529326281	 0.085281
H	 1.1241833376	-1.8746163656	 2.4282609678	 0.106231
117.1086	128.2157	222.0528	263.7218	286.8152	327.9309	348.0793	399.1579	443.2757	487.3872	546.5216	587.5549	762.3985	807.4004	818.319	879.0537	908.4223	938.0206	957.8495	1013.1669	1034.9573	1054.3741	1079.0044	1127.2352	1130.1866	1142.8627	1151.6082	1173.5877	1222.881	1224.985	1293.7975	1309.5549	1316.404	1355.3225	1373.9348	1383.8328	1398.7648	1408.2915	1420.6208	1467.1088	1476.9162	1480.1621	1486.5346	1494.4788	1501.9599	2947.6646	2964.5221	3037.5615	3039.3437	3044.9053	3070.4152	3079.1736	3088.6278	3096.2713	3105.1777	3115.6056	3125.709
CC1CC2OC2CCO1	C[C@H]1C[C@H]2O[C@H]2CCO1	
InChI=1S/C7H12O2/c1-5-4-7-6(9-7)2-3-8-5/h5-7H,2-4H2,1H3	InChI=1S/C7H12O2/c1-5-4-7-6(9-7)2-3-8-5/h5-7H,2-4H2,1H3/t5-,6-,7+/m0/s1
