16
gdb 46645	2.39928	1.52915	1.39545	4.6531	72.5	-0.2545	-0.0324	0.2221	1002.7909	0.125711	-400.784945	-400.777407	-400.776463	-400.817267	28.561	
O	 0.0593193497	-0.0038742047	 0.0709026047	-0.314481
C	-0.025958191	 1.1909752478	-0.0397025991	 0.424974
C	-1.3100302802	 1.9936062454	-0.2816944819	-0.350588
C	-0.8596868043	 3.3482564116	-0.8716520405	-0.23882
C	 0.636847185	 3.4695999455	-0.5703586957	-0.064478
C	 1.0726185732	 3.366455359	 0.8718804436	-0.186505
C	 0.1441878809	 3.4743442756	 1.9638701662	 0.303492
N	-0.6049946878	 3.5851958666	 2.838588024	-0.343229
C	 1.1420779805	 2.143055921	-0.0537989589	-0.171196
H	-1.973826993	 1.4299392612	-0.9401011102	 0.137242
H	-1.8282805631	 2.1088874041	 0.6757659746	 0.166949
H	-0.9939931016	 3.3543820473	-1.9572317579	 0.121173
H	-1.4244867573	 4.1934288216	-0.4686119364	 0.13002
H	 1.2495625718	 4.0867227566	-1.2169339295	 0.113586
H	 2.0458283058	 3.7887839601	 1.1011839891	 0.148344
H	 2.1254994516	 1.7391999914	-0.2571808322	 0.123519
85.639	132.1403	157.1922	264.8333	347.5077	444.2087	479.6762	559.1715	611.0552	639.7397	686.4133	746.4382	776.0519	830.382	838.5791	935.4259	947.7171	964.2748	1008.2447	1039.175	1069.1213	1110.4004	1167.3496	1184.0428	1191.5607	1236.492	1283.0243	1310.2843	1331.9769	1351.0806	1401.591	1453.9364	1497.1731	1843.9807	2351.2792	3059.4132	3068.207	3098.3975	3122.5853	3164.6865	3183.6753	3206.6305
O=C1CCC2C(C#N)C12	O=C1CC[C@H]2[C@@H](C#N)[C@@H]12	
InChI=1S/C7H7NO/c8-3-5-4-1-2-6(9)7(4)5/h4-5,7H,1-2H2	InChI=1S/C7H7NO/c8-3-5-4-1-2-6(9)7(4)5/h4-5,7H,1-2H2/t4-,5+,7-/m0/s1
