23
gdb 103634	2.54389	1.1246	1.05231	1.1909	81.19	-0.2465	0.0589	0.3054	1316.5276	0.203977	-425.419213	-425.408817	-425.407872	-425.45411	39.396	
C	-0.3132903948	 1.5043288122	 0.0973012275	-0.393345
C	-0.0080361068	 0.00210561	 0.0544982116	-0.227674
C	 0.7915308946	-0.5115223822	 1.2566797405	 0.329353
C	 2.2065586524	 0.0766387124	 1.3049447057	-0.452786
C	 0.0810764937	-0.4363682801	 2.6501175097	-0.317867
C	 0.5406210926	-1.8910223158	 2.9408127034	 0.143867
O	-0.3765898364	-2.8014519457	 3.4861381277	-0.44596
C	 0.855513382	-2.0646531237	 1.4193852663	 0.01594
O	-0.2298054199	-2.7032599357	 0.7575121	-0.440163
H	 0.5959026498	 2.11203466	 0.0564231283	 0.114508
H	-0.9383331886	 1.7941546858	-0.7530418318	 0.112153
H	-0.8535117322	 1.7764266629	 1.01088948	 0.117254
H	-0.9465210047	-0.5565281132	-0.003994005	 0.109253
H	 0.5412742778	-0.2333706248	-0.8669883673	 0.08914
H	 2.1820171442	 1.1613281141	 1.4472568443	 0.119834
H	 2.7926516651	-0.3435923389	 2.1294318148	 0.113747
H	 2.7478674921	-0.1306139881	 0.3745448745	 0.113189
H	 0.4067908893	 0.3431941574	 3.3434271408	 0.095427
H	-1.0076374082	-0.3855743689	 2.551639521	 0.09616
H	 1.4363588966	-1.933876761	 3.565217005	 0.087041
H	-1.0805550484	-2.882155208	 2.8291649125	 0.27406
H	 1.8066167596	-2.5392109504	 1.1455248025	 0.055653
H	-0.1156871599	-3.6524628884	 0.8716681884	 0.291215
77.435	95.0032	168.1897	177.0844	213.1314	241.1505	267.7507	289.3931	302.2624	342.1166	393.5318	427.4315	495.6684	548.1562	589.3334	673.9288	742.4772	787.491	841.4752	885.3817	919.3725	942.9965	952.8782	1018.8391	1033.1071	1064.211	1077.4864	1118.5419	1127.3927	1149.4892	1202.7672	1213.596	1230.3974	1261.1257	1267.1268	1312.5172	1325.7322	1335.6731	1368.5216	1406.0442	1411.6579	1421.3421	1444.9037	1476.1907	1485.4913	1496.228	1499.5424	1507.9885	1510.8022	3012.4603	3020.7743	3027.3097	3034.3823	3051.0871	3079.7467	3080.6496	3090.9002	3099.6233	3100.5975	3108.6139	3110.5679	3761.0478	3817.4811
CCC1(C)CC(O)C1O	CC[C@@]1(C)C[C@@H](O)[C@H]1O	
InChI=1S/C7H14O2/c1-3-7(2)4-5(8)6(7)9/h5-6,8-9H,3-4H2,1-2H3	InChI=1S/C7H14O2/c1-3-7(2)4-5(8)6(7)9/h5-6,8-9H,3-4H2,1-2H3/t5-,6-,7+/m1/s1
