18
gdb 16425	3.23142	2.19458	1.81876	1.5111	66.28	-0.2374	0.071	0.3083	800.6323	0.156097	-384.919359	-384.912585	-384.911641	-384.949956	27.377	
O	 0.1500678715	 1.3851753199	-0.3090690719	-0.440259
C	 0.0286300948	 0.006972562	 0.011317685	 0.129193
C	 0.693453076	-0.3807648728	 1.356141626	-0.115873
O	-0.2150484292	-0.4548280603	 2.4551678241	-0.279687
C	-1.520717791	-0.8800131119	 2.0874245695	 0.143753
C	-1.5226177715	-1.7954864591	 0.8304623136	-0.266363
C	-1.4339883112	-0.4676612878	 0.0182451345	-0.048112
C	-2.1880338222	 0.2041048845	 1.2055904593	-0.244121
H	-0.3408636098	 1.8897578522	 0.3481386614	 0.281095
H	 0.5743208255	-0.5036544295	-0.7904591382	 0.088621
H	 1.204140764	-1.3474729918	 1.2405800329	 0.095618
H	 1.4509279998	 0.3639635128	 1.6153539941	 0.114991
H	-2.0095021811	-1.2143433702	 3.0043237082	 0.076443
H	-0.7331421677	-2.542623594	 0.7202249514	 0.102306
H	-2.494479405	-2.2791753882	 0.7081144541	 0.105175
H	-1.8751566225	-0.41352857	-0.9785404037	 0.071343
H	-3.2695882809	 0.0708960411	 1.121319239	 0.102033
H	-1.9756645496	 1.2453601631	 1.4672277807	 0.083844
130.9855	237.9209	276.7576	385.0043	407.2243	433.8222	456.153	508.5359	667.7217	778.7781	809.5038	834.7588	879.2455	908.2312	919.9545	942.6433	977.4352	998.4017	1048.689	1070.0635	1083.6972	1114.5146	1136.9106	1143.3069	1200.6957	1238.8747	1246.9573	1267.6585	1272.8771	1298.8466	1322.0463	1347.0785	1366.9533	1402.1355	1435.2889	1476.6857	1500.1702	1517.9348	2994.3247	3047.2061	3048.8533	3066.794	3090.7147	3092.6413	3095.606	3107.4761	3121.5764	3809.0516
OC1COC2CC1C2	O[C@H]1CO[C@@H]2C[C@H]1C2	
InChI=1S/C6H10O2/c7-6-3-8-5-1-4(6)2-5/h4-7H,1-3H2	InChI=1S/C6H10O2/c7-6-3-8-5-1-4(6)2-5/h4-7H,1-3H2/t4-,5+,6-/m0/s1
