18
gdb 106697	2.52011	1.50564	1.17357	1.967	71.42	-0.24	0.0678	0.3078	1100.8188	0.146446	-439.006542	-438.997994	-438.997049	-439.039769	32.419	
C	 0.1189890248	 1.4477079068	-0.0270266354	-0.505146
C	-0.0296632543	-0.0272657696	 0.1512023475	 0.357428
O	 1.1110843572	-0.8809654314	-0.0546199432	-0.342314
C	 0.4234613935	-0.9585912494	 1.2167407807	 0.352616
C	 1.2448596794	-0.7493183408	 2.4467978938	-0.182762
O	 2.1261483252	-1.8391254411	 2.6798267233	-0.416446
C	-0.8134147524	-1.8160986058	 1.0092098493	-0.142633
N	-1.9715482671	-0.9140804992	 1.2564600446	-0.345145
C	-1.2733783803	-0.884224581	-0.0571470988	-0.139614
H	 1.0436276791	 1.8067947974	 0.4315655275	 0.133262
H	 0.1464338508	 1.7083332667	-1.0909137222	 0.131036
H	-0.7292191227	 1.965332025	 0.4306343484	 0.14257
H	 1.7920897618	 0.2014508722	 2.3664597382	 0.094546
H	 0.5878509467	-0.6898212745	 3.3198310077	 0.127578
H	 2.6829202681	-1.9177759594	 1.8970077554	 0.29289
H	-0.90613263	-2.8930475805	 1.0557743173	 0.108391
H	-2.8192719317	-1.4713349466	 1.1361355673	 0.2301
H	-1.7872277282	-1.1136526288	-0.9820671413	 0.103643
71.5187	134.7336	198.6767	204.7529	232.4675	277.8585	366.7002	419.0146	471.9927	560.7722	616.691	619.1868	736.9784	768.4077	837.0349	844.8442	861.0637	908.3404	936.419	942.248	1032.163	1045.4434	1062.1159	1091.6033	1116.8722	1135.1118	1160.496	1227.7911	1237.2974	1298.2705	1336.392	1345.5848	1375.9641	1407.8612	1423.3282	1476.0126	1488.4089	1489.9438	1504.9688	2996.8835	3038.3756	3088.8254	3103.0686	3126.1893	3195.5678	3210.8928	3453.9828	3803.2416
CC12OC1(CO)C1NC21	C[C@@]12O[C@]1(CO)[C@H]1N[C@@H]21	
InChI=1S/C6H9NO2/c1-5-3-4(7-3)6(5,2-8)9-5/h3-4,7-8H,2H2,1H3	InChI=1S/C6H9NO2/c1-5-3-4(7-3)6(5,2-8)9-5/h3-4,7-8H,2H2,1H3/t3-,4+,5+,6-/m1/s1
