23
gdb 101255	3.15352	0.85699	0.82143	1.1273	82.9	-0.2538	0.0687	0.3225	1580.9745	0.201806	-425.420912	-425.409705	-425.408761	-425.45746	40.615	
C	 0.0152258765	 1.5341847744	 0.2112617989	-0.385244
C	-0.122899449	 0.0103641306	 0.231653778	-0.188815
C	-1.4421466932	-0.482337605	-0.3746098359	 0.091384
O	-1.6047396698	-0.0722684389	-1.7313551854	-0.430238
C	-1.5560363354	-1.9922876196	-0.2801430885	-0.009745
O	-1.7088519187	-2.5667874338	 1.0214222904	-0.302493
C	-2.7712162825	-2.7540245078	 0.0607053659	 0.396097
C	-4.0825337869	-2.0798017884	 0.3978593552	-0.457166
C	-2.9013612354	-4.1746554824	-0.4480950986	-0.452326
H	 0.9876243687	 1.8485622609	 0.6015949261	 0.110835
H	-0.0889701167	 1.9196158513	-0.8066440598	 0.124069
H	-0.759901049	 2.0065879855	 0.824664626	 0.116458
H	 0.709883908	-0.4508668329	-0.3210000446	 0.081752
H	-0.0576088026	-0.3717255225	 1.2567534405	 0.120362
H	-2.2728732164	-0.0136934145	 0.1614976313	 0.088138
H	-0.8401724318	-0.3886306937	-2.2261892908	 0.278412
H	-0.8164392706	-2.5083811561	-0.9038220458	 0.068254
H	-3.9332063939	-1.0992313108	 0.8514341586	 0.130397
H	-4.695856176	-1.9588692705	-0.501258242	 0.127073
H	-4.6464336537	-2.6946479332	 1.1079034868	 0.122513
H	-3.4075590089	-4.8018753892	 0.293856611	 0.123912
H	-3.4919848295	-4.2036403474	-1.3701240066	 0.122039
H	-1.9191523332	-4.609468206	-0.6490622807	 0.124332
42.1928	97.7729	102.9344	148.4545	185.6183	200.7434	220.597	257.3284	283.4766	299.6398	371.7126	390.8484	407.5102	469.0249	528.6257	542.5734	712.1853	779.8861	832.1883	885.0822	933.2772	948.7589	985.0405	1001.9945	1040.496	1070.3593	1087.9677	1091.775	1144.0676	1155.9795	1162.2602	1240.1589	1262.1907	1284.7915	1325.8814	1360.9749	1381.74	1402.4033	1410.4051	1412.441	1422.3285	1466.8397	1474.0456	1483.5291	1487.2381	1495.6176	1502.2111	1508.563	1522.3088	2996.2396	3032.0365	3034.1267	3037.9565	3040.6999	3064.2824	3077.1865	3095.6873	3100.8211	3103.3191	3119.8721	3122.7823	3140.1817	3793.2705
CCC(O)C1OC1(C)C	CC[C@@H](O)[C@H]1OC1(C)C	
InChI=1S/C7H14O2/c1-4-5(8)6-7(2,3)9-6/h5-6,8H,4H2,1-3H3	InChI=1S/C7H14O2/c1-4-5(8)6-7(2,3)9-6/h5-6,8H,4H2,1-3H3/t5-,6-/m1/s1
