19
gdb 126488	1.77616	1.682	0.97656	4.038	77.06	-0.2879	-0.035	0.2529	1262.8539	0.158598	-419.189144	-419.179839	-419.178895	-419.224946	32.985	
C	 0.0674353241	 1.559514633	-0.1581912234	-0.384392
C	 0.0870808971	 0.0232881614	-0.0750436425	-0.296289
C	 0.6982020393	-0.4914495008	 1.1927370497	 0.259251
N	 1.9756426695	-0.7511005723	 1.2853717896	-0.144062
O	 2.1841492875	-1.1869629733	 2.5626482786	-0.156381
N	 1.0177230977	-1.2082891369	 3.2724796181	-0.143949
C	 0.0878874757	-0.7828611186	 2.4587059319	 0.25878
C	-1.3421678978	-0.6585070405	 2.8894695141	-0.295777
C	-1.6712687573	 0.711877289	 3.5067641766	-0.383985
H	 1.0829887229	 1.9603230305	-0.0986899734	 0.140632
H	-0.3759142413	 1.8840117756	-1.1039636371	 0.123016
H	-0.516089608	 1.9997993683	 0.6559791617	 0.129196
H	-0.9329341381	-0.3665385831	-0.1644983164	 0.114498
H	 0.6576264534	-0.3797398721	-0.9166871115	 0.136175
H	-1.9926473356	-0.843940202	 2.0276631381	 0.114173
H	-1.5487659186	-1.4457699306	 3.6202062912	 0.136112
H	-1.04919869	 0.8954743166	 4.3869955532	 0.141028
H	-1.4971812834	 1.525843982	 2.7965616363	 0.129195
H	-2.7207411373	 0.749877924	 3.8125431953	 0.122777
18.1418	70.0586	150.7363	172.2531	189.1985	216.707	284.9024	340.7003	419.3806	475.4586	620.2783	645.002	693.2659	786.0598	791.5165	795.9521	924.6518	938.829	971.3737	984.8711	1034.5327	1080.5332	1084.0607	1104.747	1105.3066	1223.2618	1278.8966	1294.9715	1351.8264	1361.4466	1407.3025	1412.7686	1437.8011	1476.4143	1488.3597	1493.3569	1498.3456	1501.1304	1502.4552	1522.1979	1614.5312	3043.3159	3045.0509	3047.1981	3048.958	3090.7912	3091.8223	3115.921	3118.2417	3125.0132	3126.4269
CCC1=NON=C1CC	CCc1nonc1CC	
InChI=1S/C6H10N2O/c1-3-5-6(4-2)8-9-7-5/h3-4H2,1-2H3	InChI=1S/C6H10N2O/c1-3-5-6(4-2)8-9-7-5/h3-4H2,1-2H3
