21
gdb 77385	2.17101	1.93108	1.23523	1.3971	82.97	-0.2456	0.0723	0.318	1091.4544	0.181292	-387.028253	-387.019382	-387.018438	-387.060945	34.905	
C	 0.0366181939	 1.4614786325	-0.0201748209	-0.526383
C	 0.0384403825	-0.0413766529	-0.0586690153	 0.310187
C	 0.5295271494	-0.9753742438	-1.1820960073	 0.050789
O	 1.8845087937	-0.9607729817	-1.569528269	-0.45311
C	 0.0467460366	-1.9633079425	-0.1020433224	 0.310187
C	 0.0579006339	-3.4663301003	-0.1313778279	-0.526382
C	 0.5549604827	-1.0259852008	 1.0653702262	-0.152745
C	-0.8145104026	-1.0478196123	 1.7693161321	-0.281332
C	-1.1542348061	-1.0153496616	 0.2668621164	-0.117459
H	 1.0495496019	 1.8541309887	-0.1625939913	 0.122213
H	-0.5918592599	 1.873925325	-0.817416999	 0.121232
H	-0.340274154	 1.8422216849	 0.9354221517	 0.119347
H	-0.0476511171	-0.956839636	-2.1139520485	 0.072826
H	 2.4256562821	-0.9764670458	-0.7723163082	 0.27922
H	 1.0741643147	-3.8434119684	-0.2910864099	 0.122211
H	-0.3155813288	-3.8930226454	 0.8059713079	 0.119348
H	-0.5670890176	-3.8478009115	-0.9465828889	 0.121233
H	 1.547883416	-1.0320163865	 1.5228352557	 0.059493
H	-1.075637107	-1.9587767725	 2.3171534094	 0.09195
H	-1.0834049725	-0.1648211213	 2.3576715993	 0.091947
H	-2.1309122518	-1.0085451681	-0.2216077401	 0.065229
175.0307	189.6565	196.0339	210.6587	218.6341	254.7511	282.4427	317.3028	370.0778	549.2881	550.3982	584.6587	660.4797	730.5205	772.7411	859.1813	865.6631	870.2333	903.3026	916.8311	986.5084	1007.4089	1049.0872	1074.99	1099.0197	1106.5874	1132.5992	1133.9095	1160.0358	1166.0745	1173.2649	1231.0596	1240.3047	1270.989	1286.9693	1303.8062	1368.2753	1408.565	1410.748	1458.9739	1484.4677	1485.6209	1491.8658	1492.6206	1516.209	3024.9351	3025.2055	3039.3819	3048.9111	3070.9321	3090.2157	3090.2188	3090.8918	3091.0985	3093.452	3094.7095	3800.3598
CC12C(O)C3(C)C1CC23	C[C@@]12[C@@H](O)[C@@]3(C)[C@@H]1C[C@@H]23	
InChI=1S/C8H12O/c1-7-4-3-5(7)8(4,2)6(7)9/h4-6,9H,3H2,1-2H3	InChI=1S/C8H12O/c1-7-4-3-5(7)8(4,2)6(7)9/h4-6,9H,3H2,1-2H3/t4-,5+,6-,7-,8+
