19
gdb 96420	2.05238	1.64982	1.19233	0.6226	76.25	-0.2421	0.0494	0.2915	1108.0841	0.159218	-422.992947	-422.984208	-422.983264	-423.025934	33.747	
O	-0.0100246746	 1.4253081826	 0.0489040129	-0.427281
C	 0.0114773849	 0.0112911519	 0.0373819655	 0.107327
C	 0.7918312678	-0.5670829588	 1.2255392308	-0.114213
O	 0.7888682775	-1.9828611665	 1.2005835952	-0.246732
C	-0.5263275183	-2.5124017169	 1.295866133	-0.071332
C	-1.4061499756	-2.0485556646	 0.1340284961	-0.225614
C	-1.4453461868	-0.4995184531	 0.0614858588	-0.191906
C	-2.216283463	 0.0667789112	 1.1677749734	 0.367846
C	-2.8744669452	 0.4931010439	 2.0790369925	-0.496101
H	 0.8978777859	 1.7401265866	-0.0104094922	 0.286368
H	 0.4693944567	-0.3715569532	-0.888725723	 0.073244
H	 1.8422232423	-0.2578930878	 1.1793415124	 0.093785
H	 0.3582099912	-0.1808317671	 2.1612872611	 0.109869
H	-0.4162625271	-3.6002936173	 1.2910964238	 0.10752
H	-0.9851712291	-2.2167899337	 2.2524626525	 0.104833
H	-0.9954241575	-2.4358259812	-0.8051356273	 0.105764
H	-2.4200801683	-2.4443142481	 0.2461614811	 0.111273
H	-1.9223070785	-0.1918926371	-0.8768961137	 0.109483
H	-3.4508835124	 0.8920096391	 2.8766085072	 0.195868
107.6204	140.8811	176.911	249.5156	261.3015	316.1319	348.0582	382.7267	428.815	446.0845	543.0917	626.1307	627.1838	637.6184	649.6367	806.3039	850.5502	871.6742	958.6925	993.6941	1024.1167	1041.0658	1110.9416	1114.7099	1124.4624	1129.7024	1216.3109	1225.7909	1259.2314	1283.5006	1318.8695	1343.5601	1354.1028	1368.5606	1395.7391	1421.8381	1433.3423	1474.6017	1489.5397	1501.3776	2232.6708	2972.3704	2988.0295	2993.3634	3031.3249	3045.4453	3065.8978	3090.7602	3095.5553	3503.9759	3815.2404
OC1COCCC1C#C	O[C@H]1COCC[C@H]1C#C	
InChI=1S/C7H10O2/c1-2-6-3-4-9-5-7(6)8/h1,6-8H,3-5H2	InChI=1S/C7H10O2/c1-2-6-3-4-9-5-7(6)8/h1,6-8H,3-5H2/t6-,7+/m1/s1
