14
gdb 49876	2.25705	1.662	1.0564	2.4415	64.93	-0.2641	-0.0488	0.2153	1072.8566	0.101976	-470.072579	-470.064754	-470.063809	-470.105503	28.493	
N	-0.1203720373	 1.2896238638	-0.0124400691	-0.539582
C	 0.0090909439	 0.028597662	-0.0269164714	 0.391151
N	 1.1161791474	-0.7953543733	-0.0644690589	-0.392061
C	 0.798872725	-2.1659154763	-0.0294815116	 0.453539
O	 1.588111054	-3.0702694444	 0.049576549	-0.376985
N	-0.5821196533	-2.234267053	-0.122268886	-0.344892
C	-1.184071359	-0.9277452422	 0.0205590978	-0.146499
C	-1.9746566432	-0.7619761495	 1.3192425147	 0.154454
O	-2.2072772609	-1.6803665522	 2.0585527923	-0.23778
H	 0.7772875536	 1.7740199291	-0.0367961794	 0.222084
H	 2.0744409952	-0.4857764083	-0.0598613542	 0.272282
H	-1.0287526435	-3.0210126317	 0.3271976028	 0.273087
H	-1.8672898698	-0.6786038906	-0.8036290589	 0.145947
H	-2.3243035221	 0.2721891967	 1.5059493328	 0.125256
80.6337	120.8912	137.7225	225.0769	315.5232	382.2101	487.0999	506.0516	538.3467	624.6824	640.0126	673.9065	739.1229	767.4425	833.3092	858.3328	971.0549	988.3617	1037.2671	1098.7669	1153.3757	1218.9067	1271.2293	1328.4128	1349.0858	1384.1809	1404.3657	1416.6407	1765.7406	1832.5361	1881.8865	2954.7199	3015.8827	3478.39	3619.9436	3661.0097
N=C1NC(=O)NC1C=O	[NH][C]1NC(=O)N[C@H]1C=O	
InChI=1S/C4H5N3O2/c5-3-2(1-8)6-4(9)7-3/h1-2H,(H3,5,6,7,9)	InChI=1S/C4H5N3O2/c5-3-2(1-8)6-4(9)7-3/h1-2H,(H3,5,6,7,9)/t2-/m0/s1
