19
gdb 104501	2.6681	1.16263	0.94283	4.615	76.09	-0.2587	0.0257	0.2844	1290.7104	0.158121	-419.194288	-419.184384	-419.183439	-419.229592	35.522	
C	 0.0790463111	 1.3494124751	-0.3593758871	-0.407245
C	 0.1126583078	-0.081862275	 0.1244575344	-0.042464
N	 1.4242779354	-0.7444516329	 0.2279282689	-0.363818
C	 0.627490147	-0.5348184091	 1.4504453116	 0.264477
C	 1.2314946847	 0.4301231468	 2.4547303745	-0.110815
O	 2.062203813	-0.2270448754	 3.3947157029	-0.411064
C	-0.0345951894	-1.7605070309	 2.0917962465	-0.415306
C	 0.9320244985	-2.7998483899	 2.4550753175	 0.274699
N	 1.6915153322	-3.6398677516	 2.685912708	-0.319657
H	 0.9444139188	 1.9153246957	-0.0105659493	 0.134182
H	 0.0870653189	 1.3727793453	-1.4541168768	 0.128768
H	-0.8310847531	 1.8552019963	-0.0198777672	 0.121968
H	-0.7033549633	-0.6894843216	-0.2683062509	 0.084794
H	 1.3791791251	-1.7130890931	-0.080284584	 0.239321
H	 1.7718247899	 1.2203760786	 1.9202172118	 0.10312
H	 0.435508912	 0.9014938411	 3.0433693461	 0.110183
H	 2.7829313737	-0.6472102259	 2.9113500596	 0.299067
H	-0.5892042893	-1.4663542456	 2.9893972635	 0.161133
H	-0.7566406628	-2.207540138	 1.39955841	 0.148654
60.5658	64.9867	123.9739	152.6475	198.4143	235.8449	263.2972	351.2711	379.9051	402.5639	427.8301	461.7817	518.6337	565.312	741.7783	850.0538	865.1795	912.8087	924.1081	965.1172	988.9609	1028.4754	1061.1415	1091.5875	1101.6712	1127.4495	1201.3732	1228.7922	1239.4974	1282.873	1331.7767	1359.6308	1391.9629	1413.3919	1427.6528	1455.015	1462.1899	1488.2907	1495.0338	1502.3443	2359.287	3025.6651	3041.0285	3044.2104	3071.6836	3086.995	3095.2316	3100.5129	3139.8186	3494.9408	3802.4491
CC1NC1(CO)CC#N	C[C@H]1N[C@]1(CO)CC#N	
InChI=1S/C6H10N2O/c1-5-6(4-9,8-5)2-3-7/h5,8-9H,2,4H2,1H3	InChI=1S/C6H10N2O/c1-5-6(4-9,8-5)2-3-7/h5,8-9H,2,4H2,1H3/t5-,6+/m1/s1
