17
gdb 68717	2.36517	1.71434	1.36309	4.5741	77.6	-0.2526	0.0057	0.2583	1007.7698	0.136191	-380.825347	-380.817452	-380.816508	-380.857569	30.404	
C	-0.0179979932	 1.5716528778	 0.0474940303	-0.488806
C	-0.0399808793	 0.0700379824	 0.0620860041	 0.250782
C	 1.1291216072	-0.7879784701	-0.3544594047	-0.369569
C	 0.5868329223	-0.9495209104	 1.0417990495	 0.182021
C	 1.3417480881	-0.7299146825	 2.231923992	 0.223044
N	 1.940717584	-0.5321069476	 3.2028048692	-0.350258
N	-0.5950024232	-1.8450954697	 1.0117231235	-0.15702
C	-1.7230474793	-1.0293409652	 1.5106407767	-0.246696
C	-1.2716820566	-0.8024626322	 0.1198395314	-0.09144
H	 0.9715884403	 1.9518581476	 0.31804413	 0.137803
H	-0.2587563779	 1.9538675714	-0.9512205559	 0.132617
H	-0.7443237049	 1.987378169	 0.7525461139	 0.131504
H	 0.9989517162	-1.6199371006	-1.0404934701	 0.132977
H	 2.0814331818	-0.2722562178	-0.4277273951	 0.137643
H	-2.6263079014	-1.6138445453	 1.654285832	 0.132765
H	-1.5307070547	-0.2825305908	 2.2764785426	 0.133583
H	-1.8585415196	-1.1127948062	-0.7390774192	 0.10905
117.8708	136.8833	186.8041	233.6188	296.1913	374.1746	429.5173	516.3541	540.0139	574.5517	606.1017	673.1991	757.0687	793.8992	833.9568	839.6222	953.8763	980.3285	985.3063	1025.4541	1053.5896	1088.7064	1109.6016	1119.2287	1123.5145	1152.2204	1214.8173	1232.8091	1283.9437	1355.2157	1383.094	1424.6067	1484.1801	1487.4248	1495.1009	1499.1048	2343.0764	3032.1471	3095.7038	3112.5781	3118.7688	3122.733	3165.1625	3212.555	3216.0757
CC12CC1(C#N)N1CC21	C[C@@]12C[C@]1(C#N)N1C[C@@H]21	
InChI=1S/C7H8N2/c1-6-3-7(6,4-8)9-2-5(6)9/h5H,2-3H2,1H3	InChI=1S/C7H8N2/c1-6-3-7(6,4-8)9-2-5(6)9/h5H,2-3H2,1H3/t5-,6-,7+,9?/m0/s1
