16
gdb 27687	2.75489	1.32027	0.90253	5.2278	82.44	-0.2334	-0.034	0.1994	1255.8552	0.123792	-400.812882	-400.804097	-400.803153	-400.846618	31.261	
C	 0.1714950814	 1.4459350428	-0.0698788707	-0.497329
C	-0.0409002367	-0.0239157175	-0.0363050043	 0.359216
C	-1.1507363734	-0.811860837	-0.1342115978	-0.352521
C	-0.7179458593	-2.170197816	-0.0300424809	 0.183058
C	-1.5549016168	-3.4070372561	-0.0789625718	-0.515477
C	 0.6422741103	-2.0995213134	 0.1254086586	 0.165396
O	 1.0637928505	-0.7944565351	 0.1227816156	-0.207459
C	 1.6123824438	-3.1097336408	 0.2780211247	 0.218469
N	 2.3841140574	-3.9665360017	 0.4016808676	-0.352926
H	 0.8349869508	 1.730933042	-0.8935239456	 0.150975
H	-0.7837056637	 1.9577577498	-0.2012333189	 0.142191
H	 0.6310393279	 1.8008316748	 0.8589711523	 0.150969
H	-2.1648264997	-0.4663956769	-0.2652333886	 0.120966
H	-2.0979970507	-3.4770163209	-1.0276635804	 0.141623
H	-0.9403384861	-4.3039398761	 0.0277673352	 0.151244
H	-2.3019070956	-3.4084950679	 0.7221953549	 0.141605
113.8488	115.9696	136.4473	139.2147	195.3556	249.8071	323.508	376.745	508.9267	543.3535	570.6686	620.1553	645.5842	692.3486	777.9328	810.8552	983.0933	1005.7577	1018.1452	1061.4505	1063.2408	1134.8135	1181.5652	1261.9486	1282.3402	1409.6691	1415.5905	1432.2037	1471.7563	1482.5769	1485.2372	1492.5132	1578.9057	1649.3602	2332.5911	3036.6206	3038.4047	3090.3636	3092.5355	3126.5481	3138.2111	3252.226
CC1=CC(C)=C(O1)C#N	Cc1cc(C)c(o1)C#N	
InChI=1S/C7H7NO/c1-5-3-6(2)9-7(5)4-8/h3H,1-2H3	InChI=1S/C7H7NO/c1-5-3-6(2)9-7(5)4-8/h3H,1-2H3
