15
gdb 26784	3.6876	1.0869	0.84389	4.0051	80.26	-0.2076	-0.0218	0.1858	1283.5639	0.112877	-416.866084	-416.857244	-416.8563	-416.899909	31.592	
C	-0.0190844778	 1.5059947956	 0.1137416209	-0.516284
C	 0.0166611459	 0.0215657318	-0.010342838	 0.229499
C	 0.0522342715	-0.7756320101	-1.1453523189	 0.290827
O	 0.0595716628	-0.2558326672	-2.4059417253	-0.449888
C	 0.0771823327	-2.1294921584	-0.7491738382	-0.389432
C	 0.056339562	-2.1388753045	 0.6403816076	 0.237193
N	 0.0197709055	-0.8295798075	 1.0637021454	-0.373341
C	 0.0672077164	-3.2158256048	 1.5474077408	 0.199941
N	 0.0757607183	-4.0939811415	 2.306081734	-0.354341
H	 0.8502953498	 1.8962484872	 0.6566974518	 0.135479
H	-0.0166119482	 1.9480829145	-0.8843861687	 0.159919
H	-0.9189743659	 1.8554114875	 0.6343110611	 0.135393
H	 0.0851934966	-0.9769552133	-3.0411811431	 0.302444
H	 0.1067957557	-3.0033245532	-1.3813980912	 0.117144
H	-0.0014983254	-0.5460484161	 2.0285079316	 0.275448
69.4877	122.229	144.3726	179.945	230.0059	250.203	333.3143	421.4182	454.6158	519.0999	519.5681	596.7884	641.1135	665.657	673.2307	793.243	796.5094	1002.2258	1016.8714	1061.1639	1113.4415	1184.1567	1244.5587	1299.2566	1347.2073	1415.3312	1441.1816	1484.9036	1488.3339	1509.8446	1538.3968	1658.5424	2327.3846	3022.1003	3068.5802	3135.7117	3254.3698	3675.9016	3847.1082
CC1=C(O)C=C(N1)C#N	Cc1c(O)cc([nH]1)C#N	
InChI=1S/C6H6N2O/c1-4-6(9)2-5(3-7)8-4/h2,8-9H,1H3	InChI=1S/C6H6N2O/c1-4-6(9)2-5(3-7)8-4/h2,8-9H,1H3
