19
gdb 82860	2.56597	2.0182	1.74211	0.5648	72.31	-0.2422	0.0797	0.322	893.585	0.162487	-423.028247	-423.021617	-423.020673	-423.058915	27.865	
C	-0.2115940997	 1.5524764947	-0.0447353048	-0.42078
C	 0.0481567794	 0.0497082439	-0.0175085087	 0.022386
C	 0.8169734432	-0.5044207726	-1.2377741512	 0.045615
O	 2.0231511342	 0.2617830799	-1.4724843307	-0.301659
C	 2.7109315039	-0.523124398	-0.4686929623	 0.064029
C	 2.4099036238	 0.0276217702	 0.9359400794	-0.232236
C	 0.9652875726	-0.5009132642	 1.1107357799	 0.028848
O	 1.1117491025	-1.8789876751	 0.7160003191	-0.25618
C	 1.6358157673	-1.6535134181	-0.5713134446	 0.055717
H	 0.7024560135	 2.1073129362	-0.2676162854	 0.135739
H	-0.9463494271	 1.8039416741	-0.8166491713	 0.117636
H	-0.6082915742	 1.9025994831	 0.914183661	 0.111992
H	-0.9009997459	-0.4939264785	 0.0627162352	 0.081273
H	 0.232495401	-0.6494478313	-2.1481519758	 0.07712
H	 3.7611015682	-0.6882523127	-0.7132793189	 0.080335
H	 3.0601666758	-0.4244568023	 1.6907297339	 0.107514
H	 2.5101155004	 1.113757313	 0.9763518181	 0.11372
H	 0.5542194734	-0.45229502	 2.1190003667	 0.078194
H	 1.8428605178	-2.5805693322	-1.0989032595	 0.090734
183.977	214.4264	247.3141	400.9033	438.7793	523.0062	559.7936	630.027	651.4387	752.3886	822.5881	833.5955	857.2703	887.0407	898.3762	923.7324	946.8219	971.426	989.7304	1012.9745	1026.7314	1057.3024	1095.5451	1109.0829	1126.4081	1143.3002	1154.1246	1203.9465	1242.8002	1259.736	1279.1143	1299.6336	1302.6972	1339.652	1348.817	1356.409	1375.0196	1409.984	1467.8129	1494.3225	1510.2429	3035.2755	3039.5602	3063.8597	3095.3231	3096.8559	3105.0597	3121.2148	3124.87	3130.2606	3162.996
CC1C2OC3CC1OC23	C[C@H]1[C@H]2O[C@H]3C[C@@H]1O[C@@H]23	
InChI=1S/C7H10O2/c1-3-4-2-5-7(8-4)6(3)9-5/h3-7H,2H2,1H3	InChI=1S/C7H10O2/c1-3-4-2-5-7(8-4)6(3)9-5/h3-7H,2H2,1H3/t3-,4+,5+,6-,7-/m1/s1
