18
gdb 23051	2.76352	1.29639	1.03261	1.0458	76.14	-0.2425	-0.002	0.2405	1192.1713	0.146558	-439.011116	-439.002609	-439.001664	-439.044573	31.871	
O	-0.0784649235	 1.3206102485	 0.0832888702	-0.388874
N	 0.0195208316	-0.0722731667	 0.2504546423	-0.233091
C	-1.0933758193	-0.6326324782	 0.0485166664	 0.2691
C	-2.5065743475	-0.2619814603	-0.3199654239	-0.171735
O	-2.8674527267	-1.6637329334	-0.2590296094	-0.335882
C	-1.5277996081	-2.0752172145	 0.0964774785	 0.394924
C	-0.7981917604	-3.1511553037	-0.7423756967	-0.280594
C	-0.1813361674	-3.6897532889	 0.5781745504	-0.21391
C	-1.2895960857	-2.9332222517	 1.361675053	-0.280595
H	 0.8216880083	 1.6128111611	 0.2633042894	 0.310031
H	-3.0466738267	 0.3486348216	 0.4137687309	 0.128773
H	-2.6418649523	 0.1690705015	-1.3193735408	 0.128771
H	-1.5326707642	-3.8427250447	-1.1646893668	 0.116958
H	-0.1286907728	-2.8032368832	-1.5314837453	 0.107734
H	-0.133962757	-4.7728411424	 0.7014219541	 0.103349
H	 0.8082292028	-3.2673033409	 0.7655338317	 0.120348
H	-1.0188609305	-2.4084488476	 2.2799808845	 0.107735
H	-2.1654431705	-3.5620955167	 1.5446701317	 0.116958
91.7568	94.1429	139.7236	190.1467	293.1694	309.1698	357.1312	446.689	485.2237	526.4492	554.0262	701.1143	775.4946	780.0893	849.1322	911.6038	926.2098	962.6776	977.6064	981.6481	1005.9994	1027.9561	1084.2776	1113.4894	1132.0045	1148.3622	1199.0158	1206.1566	1241.7057	1271.4881	1272.2547	1309.6193	1319.1095	1416.9381	1460.0389	1476.8962	1498.2504	1501.1598	1811.2642	3021.9438	3061.4422	3064.2218	3065.7604	3075.598	3116.0243	3123.7574	3136.6292	3816.8115
ON=C1COC11CCC1	ON=C1COC21CCC2	
InChI=1S/C6H9NO2/c8-7-5-4-9-6(5)2-1-3-6/h8H,1-4H2	InChI=1S/C6H9NO2/c8-7-5-4-9-6(5)2-1-3-6/h8H,1-4H2
