18
gdb 8105	3.26391	1.89524	1.51204	2.6644	67.68	-0.2318	0.0607	0.2925	897.7648	0.1534	-384.909825	-384.901921	-384.900977	-384.941363	30.964	
C	-0.0043340385	 1.5640409907	 0.0610135507	-0.498285
C	-0.0042003522	 0.0637945156	 0.0255084992	 0.302059
C	-1.262683921	-0.8088277866	-0.0803513948	-0.330419
C	-0.6362805545	-1.7982474063	 0.9563815828	 0.102123
O	-0.3874825669	-3.1444716557	 0.5488712695	-0.437321
C	 0.6321304206	-0.9647202175	 1.0145162453	-0.179609
C	 1.1787056805	-0.7727238647	-0.3701127872	 0.088561
O	 1.1440944964	-1.7524942414	-1.3651084966	-0.443573
H	 0.9937732793	 1.9557954002	 0.28334965	 0.119445
H	-0.3134407042	 1.9782876961	-0.9064790947	 0.1251
H	-0.6923299836	 1.9518388796	 0.8216489061	 0.113776
H	-2.167613565	-0.3256513139	 0.2959947675	 0.098125
H	-1.4546444872	-1.2253340642	-1.0736918959	 0.103664
H	-1.1867048894	-1.7889487934	 1.9043825037	 0.08097
H	-1.2337680406	-3.5837594757	 0.4128299643	 0.288626
H	 1.2294113004	-0.8099736189	 1.9060948253	 0.081397
H	 2.1136249147	-0.2150274936	-0.3936554445	 0.091568
H	 0.7672263612	-2.5483015303	-0.9646033707	 0.293792
165.592	196.0246	217.8787	245.2415	272.3763	332.8599	391.3334	432.4841	492.5547	524.8973	575.2233	667.9027	746.9862	788.4573	858.2242	898.7875	956.0166	972.6107	981.3065	1008.9242	1047.1286	1076.342	1121.5205	1154.2433	1167.4285	1210.2463	1232.8927	1258.1975	1280.7389	1328.4885	1333.8992	1400.7107	1415.3919	1432.4554	1461.8719	1482.9044	1490.7301	1499.2636	3018.0576	3029.0163	3052.0527	3075.3367	3093.4348	3109.7483	3124.0076	3171.7224	3730.8147	3810.4949
CC12CC(O)C1C2O	C[C@]12C[C@@H](O)[C@H]1[C@H]2O	
InChI=1S/C6H10O2/c1-6-2-3(7)4(6)5(6)8/h3-5,7-8H,2H2,1H3	InChI=1S/C6H10O2/c1-6-2-3(7)4(6)5(6)8/h3-5,7-8H,2H2,1H3/t3-,4+,5-,6+/m1/s1
