18
gdb 71783	3.06826	1.96716	1.79926	0.2304	73.11	-0.2209	0.0475	0.2684	856.953	0.149428	-401.863439	-401.857008	-401.856064	-401.893771	27.247	
C	-0.0354068459	 1.5180044726	 0.0361732647	-0.499057
C	-0.0142083794	 0.0145932509	-0.013398508	 0.331398
C	 0.4693854196	-0.7690298453	-1.2485771448	-0.27633
C	-0.5794797803	-1.8092475898	-0.8337652866	-0.030205
C	-0.1587202027	-2.5237956528	 0.4996501906	 0.078679
O	 1.0887626754	-1.9863617231	 0.9965527317	-0.290782
C	 0.3972424175	-0.7539344718	 1.3011715199	 0.030524
C	-0.9829379868	-1.4461595697	 1.2415855688	-0.043557
N	-1.3621246177	-0.7441159433	-0.0497974859	-0.209537
H	 0.9856841211	 1.9169719589	 0.0606121621	 0.120699
H	-0.5488303509	 1.9284343524	-0.8384561702	 0.126955
H	-0.5584805124	 1.8745640972	 0.930883904	 0.121519
H	 0.1859354297	-0.2604902554	-2.173448882	 0.106701
H	 1.5149751051	-1.0794853602	-1.2828556911	 0.115064
H	-1.1189473399	-2.401460983	-1.5747833764	 0.074612
H	-0.2214531558	-3.6086524932	 0.5877035367	 0.083976
H	 0.8491429191	-0.202728836	 2.127486563	 0.078557
H	-1.6993251457	-1.5877307583	 2.0500666836	 0.080784
210.0577	246.9769	267.0925	380.7211	465.1344	522.5814	570.8904	699.8218	748.6138	787.5526	794.6516	820.4268	844.3354	857.6634	905.9941	930.0453	951.5214	956.2497	975.674	990.538	1005.0065	1045.5769	1083.0182	1134.1293	1163.9499	1182.0184	1190.6595	1212.316	1235.1399	1240.733	1256.0251	1272.1268	1299.3064	1314.9111	1347.8922	1408.382	1462.2935	1480.3007	1490.1059	3024.4146	3067.4757	3089.5491	3092.3323	3097.5435	3106.9347	3108.4698	3122.6632	3131.4665
CC12CC3C4OC1C4N23	C[C@@]12C[C@H]3[C@H]4O[C@@H]1[C@H]4N23	
InChI=1S/C7H9NO/c1-7-2-3-5-4(8(3)7)6(7)9-5/h3-6H,2H2,1H3	InChI=1S/C7H9NO/c1-7-2-3-5-4(8(3)7)6(7)9-5/h3-6H,2H2,1H3/t3-,4-,5+,6+,7+/m0/s1
