21
gdb 97742	5.68175	0.67559	0.65511	0.2092	94.61	-0.2354	0.0531	0.2886	1819.1897	0.183014	-349.883621	-349.874621	-349.873677	-349.921958	33.406	
C	-0.3850030597	 1.5745142502	-0.085540436	-0.362707
C	 0.2093398612	 0.1720808004	 0.1402156346	-0.319373
C	 0.8906268714	-0.3566173311	-1.0373332795	 0.156703
C	 1.4484639207	-0.77387316	-2.0219808973	-0.016339
C	 2.1063356348	-1.2517294829	-3.2214762315	-0.162354
C	 3.5716082605	-1.8166119569	-3.1530149235	-0.035652
C	 2.9929271574	-3.0774583702	-2.4487029699	-0.222413
C	 2.0195973807	-2.7688310974	-3.6229843186	-0.035414
C	 3.275666812	-2.5239251851	-4.5056724231	-0.227858
H	 0.3982400744	 2.2896896432	-0.3511319052	 0.127165
H	-1.1167377927	 1.5599523434	-0.8979041378	 0.127121
H	-0.8834473475	 1.9292263047	 0.8216747773	 0.112457
H	 0.9105815128	 0.2046969062	 0.9843386886	 0.126528
H	-0.5893012949	-0.5184241158	 0.4414804957	 0.126534
H	 1.9378653149	-0.5642742889	-4.0576702778	 0.085067
H	 4.4635818669	-1.2519245232	-2.8785161899	 0.073637
H	 3.5825929463	-3.9936496508	-2.5373775428	 0.087392
H	 2.6037312405	-2.9408963089	-1.4386611126	 0.107482
H	 1.1112554074	-3.3090415478	-3.8929814953	 0.073704
H	 3.1481339129	-1.8832640893	-5.3830562184	 0.088171
H	 3.88386261	-3.4022452798	-4.7343387171	 0.090149
0.8286	81.1743	100.1666	168.5077	216.0942	319.9859	387.7122	450.0973	499.2929	530.9864	565.2206	767.3152	785.2134	806.9447	811.9218	872.2206	891.0025	903.258	908.0686	981.0299	1013.2747	1024.4131	1034.3341	1078.7145	1085.8887	1104.2306	1106.3763	1115.2672	1138.5065	1193.0963	1199.7352	1209.9523	1239.9125	1246.1969	1258.6372	1285.2923	1349.2436	1377.6523	1407.2288	1476.0751	1494.1157	1496.1101	1505.8095	1533.9735	2355.8372	3016.0034	3042.1057	3043.0189	3043.5751	3050.9285	3061.0101	3102.024	3107.7312	3116.3037	3118.0562	3122.8893	3133.2872
CCC#CC1C2CC1C2	CCC#C[C@H]1[C@H]2C[C@@H]1C2	
InChI=1S/C9H12/c1-2-3-4-9-7-5-8(9)6-7/h7-9H,2,5-6H2,1H3	InChI=1S/C9H12/c1-2-3-4-9-7-5-8(9)6-7/h7-9H,2,5-6H2,1H3/t7-,8+,9-
