25
gdb 100682	2.71511	0.94948	0.87177	2.279	84.88	-0.2528	0.0628	0.3156	1511.4852	0.225797	-426.632675	-426.620976	-426.620031	-426.668925	43.617	
C	 0.006275106	 1.5729896945	 0.2520557755	-0.393434
C	-0.0154427545	 0.0710817671	-0.0526580553	-0.18588
C	-1.4354751466	-0.5244979213	-0.1595818318	 0.031926
C	-2.1475343502	-0.0671189534	-1.4422504429	-0.418695
C	-1.4196756412	-2.0642283746	 0.0275232363	 0.365638
C	-0.5596923949	-2.8066611476	-1.0095613083	-0.43073
O	-0.8857870331	-2.2839956323	 1.3353171617	-0.482009
C	-2.8518876969	-2.6308020277	 0.0220224885	-0.126034
O	-2.765260048	-3.9725597827	 0.5051152969	-0.436442
H	 1.0349093315	 1.9345285748	 0.3499868197	 0.109894
H	-0.4722491882	 2.1653180175	-0.5347432891	 0.111435
H	-0.5117342429	 1.7907503414	 1.1928670224	 0.114455
H	 0.5320179295	-0.1156681781	-0.9855684702	 0.087429
H	 0.5198828639	-0.4600402351	 0.7391012505	 0.122604
H	-2.0061813039	-0.1465628577	 0.7002986181	 0.071369
H	-3.1895078429	-0.3983008282	-1.4832822449	 0.110704
H	-2.1588919162	 1.024561394	-1.5057763525	 0.117256
H	-1.6413588054	-0.4396872041	-2.3396222645	 0.117141
H	 0.4886532712	-2.518123696	-0.9111331491	 0.121835
H	-0.6362165674	-3.8850752261	-0.8466863251	 0.124089
H	-0.884989988	-2.5989650574	-2.0340290841	 0.106379
H	-1.1525923411	-3.1807167435	 1.5752763449	 0.281972
H	-3.4826029699	-2.0201452089	 0.6833774955	 0.091781
H	-3.2811758885	-2.61411748	-0.988208886	 0.093204
H	-3.6486336224	-4.2768887746	 0.7280927737	 0.294114
70.8133	79.0534	141.8315	167.1342	216.4907	217.6141	233.5241	244.3272	274.9092	306.1668	318.3867	340.2289	367.7789	407.9113	441.9441	475.3012	499.4089	627.3315	746.4157	781.9406	843.3098	909.321	926.5149	962.0751	975.5441	993.1611	1036.3632	1049.5552	1077.1835	1123.1898	1133.4869	1179.4275	1196.4263	1201.5535	1253.0163	1279.903	1299.7947	1338.3753	1360.0966	1381.6195	1394.4131	1404.6159	1412.6461	1418.7854	1442.3724	1486.7966	1492.3904	1496.1347	1499.4615	1506.1679	1509.2812	1510.5152	1515.8179	2994.1964	3004.5275	3025.2076	3030.8785	3036.2084	3041.5558	3047.3274	3083.5888	3097.7067	3102.2225	3104.8801	3110.3639	3113.7812	3134.5669	3769.435	3849.1539
CCC(C)C(C)(O)CO	CC[C@@H](C)[C@@](C)(O)CO	
InChI=1S/C7H16O2/c1-4-6(2)7(3,9)5-8/h6,8-9H,4-5H2,1-3H3	InChI=1S/C7H16O2/c1-4-6(2)7(3,9)5-8/h6,8-9H,4-5H2,1-3H3/t6-,7+/m1/s1
