21
gdb 122354	3.55151	0.7299	0.69179	2.2689	76.67	-0.2335	0.051	0.2845	1729.3429	0.179975	-461.322928	-461.312467	-461.311523	-461.359602	37.322	
C	 0.0317816246	 1.2409094541	 0.7616784014	-0.38452
C	-0.0496019458	 0.027095659	-0.1488148352	-0.023625
O	-1.344899447	-0.5247591074	-0.0480909697	-0.246888
C	-1.5254304962	-1.6632856038	-0.8653903782	-0.058708
C	-2.9306096893	-2.1629184255	-0.64936305	-0.110684
C	-3.3946591766	-3.488125013	-1.1983735799	 0.008088
O	-2.4108877859	-4.2707762043	-1.8367428672	-0.425079
C	-3.2202923205	-3.3210439717	 0.2933554318	 0.091309
O	-2.1669971696	-4.0137845213	 0.8872459074	-0.428078
H	 1.0263907654	 1.6937931102	 0.7073943343	 0.111615
H	-0.7082833575	 1.9908352769	 0.4678586759	 0.123638
H	-0.1644549082	 0.954756713	 1.7988270047	 0.128135
H	 0.1639086489	 0.3125974829	-1.1938333157	 0.080878
H	 0.7074657239	-0.7228438433	 0.1378931268	 0.085402
H	-1.3663992304	-1.402270958	-1.9255287414	 0.086723
H	-0.7925075522	-2.4415403064	-0.6086815826	 0.08914
H	-3.6729266494	-1.3700798516	-0.6748010855	 0.097701
H	-4.3854583819	-3.5522185601	-1.643247723	 0.093546
H	-2.7518692359	-5.169342485	-1.9077702795	 0.297535
H	-4.0889903356	-3.2651763366	 0.9419643382	 0.100483
H	-1.7177603508	-4.483356948	 0.1704637674	 0.283388
34.941	71.6293	99.4167	116.8726	190.3001	207.8923	248.7525	268.0107	303.8495	365.041	426.0047	501.8632	540.3638	625.5038	653.6733	761.7191	803.771	821.1923	895.4055	935.2912	983.6583	1038.5972	1062.5472	1071.3403	1117.0945	1135.2624	1152.6096	1156.4076	1172.1219	1191.5378	1228.4651	1254.8966	1283.4848	1295.4024	1324.9073	1345.5699	1392.4035	1408.2376	1414.9775	1453.9824	1476.9302	1483.5548	1499.1896	1507.4077	1534.8319	2945.9541	2961.8108	2971.9689	3013.8542	3044.074	3117.8596	3118.9574	3121.2028	3149.4996	3161.1693	3735.2664	3801.233
CCOCC1C(O)C1O	CCOC[C@H]1[C@@H](O)[C@H]1O	
InChI=1S/C6H12O3/c1-2-9-3-4-5(7)6(4)8/h4-8H,2-3H2,1H3	InChI=1S/C6H12O3/c1-2-9-3-4-5(7)6(4)8/h4-8H,2-3H2,1H3/t4-,5+,6-
