16
gdb 77287	2.18061	1.17216	0.8949	4.8301	69.15	-0.2462	-0.0312	0.215	1292.0035	0.122409	-475.0281	-475.01894	-475.017995	-475.063095	32.234	
O	 0.0132370443	 1.4656590275	-0.0715133973	-0.420948
C	 0.0616350309	 0.0706120414	-0.0587657184	 0.021294
C	-1.2390836845	-0.5906861145	 0.1978576581	 0.014529
N	-2.3696844171	 0.2496540185	 0.410462536	-0.286052
C	-3.5888589631	-0.2576064202	 0.7502911127	 0.154048
O	-3.8484796152	-1.4383652784	 0.8180232211	-0.31412
C	-0.5904201283	-0.7271673923	-1.1988070274	-0.182586
C	-1.1626514663	-0.0288765127	-2.3706069677	 0.164348
O	-1.0846941826	-0.4486954733	-3.5006847452	-0.265746
H	 0.6699739367	 1.7979685982	-0.6925812436	 0.30661
H	 0.9602911354	-0.3593908318	 0.3798444872	 0.118121
H	-1.2712876712	-1.5020931832	 0.7830607974	 0.1457
H	-2.206677063	 1.2442581397	 0.4567614391	 0.268016
H	-4.3212904594	 0.5450037763	 0.9627385748	 0.083378
H	-0.145225882	-1.6884255592	-1.4313130533	 0.118681
H	-1.6804704347	 0.9271512639	-2.1501969436	 0.074727
39.7259	89.5612	152.6532	172.4843	197.0094	249.1633	278.6846	341.9749	438.1481	457.9561	569.5463	590.5441	615.4097	722.2393	800.8264	861.0062	950.1327	993.4037	1006.588	1030.3199	1049.016	1114.7862	1145.6902	1171.1081	1211.628	1239.9498	1292.4001	1332.7848	1352.3028	1428.3913	1445.9851	1453.2942	1528.2554	1802.7876	1812.747	2916.4865	2950.2406	3119.2673	3179.298	3190.362	3623.684	3813.3311
OC1C(NC=O)C1C=O	O[C@H]1[C@@H](NC=O)[C@H]1C=O	
InChI=1S/C5H7NO3/c7-1-3-4(5(3)9)6-2-8/h1-5,9H,(H,6,8)	InChI=1S/C5H7NO3/c7-1-3-4(5(3)9)6-2-8/h1-5,9H,(H,6,8)/t3-,4+,5-/m1/s1
