17
gdb 92064	2.86867	1.62808	1.13439	3.504	68.6	-0.2494	0.0035	0.2529	1061.8294	0.13563	-458.976015	-458.96816	-458.967216	-459.008492	29.979	
C	-0.1140327113	 1.5302045775	-0.0491662254	-0.396261
C	 0.1162889195	 0.0289896882	-0.0118512278	-0.038929
O	 0.9624517272	-0.3230767668	-1.1075223121	-0.25427
C	 1.1612188956	-1.700667408	-1.1783434356	 0.067191
C	 2.5569295831	-2.1985330521	-0.9000510779	-0.328497
C	 1.4722386246	-2.3589921597	 0.1309924687	 0.070013
O	 1.5153219036	-1.5337576006	 1.2759551382	-0.225803
C	 0.750531967	-0.4086909947	 1.3150884501	 0.427183
O	 0.6257930693	 0.1873829651	 2.3470223578	-0.319915
H	 0.8397792463	 2.0604023197	 0.0097782218	 0.137211
H	-0.6121181479	 1.8032553361	-0.9822396832	 0.124267
H	-0.7306546739	 1.8335918944	 0.7976671954	 0.146048
H	-0.8468284936	-0.5000062463	-0.1044692224	 0.103303
H	 0.535006485	-2.2174656928	-1.9043475408	 0.101231
H	 2.9087176743	-3.0847726128	-1.4153385559	 0.125606
H	 3.3025794636	-1.4366670828	-0.7049597001	 0.142783
H	 1.0877052476	-3.3460091444	 0.364139009	 0.11884
82.4638	139.0822	197.6766	274.5632	310.6896	363.5271	436.9266	466.5283	485.102	536.6206	681.4433	733.8815	795.2993	813.127	828.9188	894.107	937.8012	1023.7115	1048.9522	1064.2942	1074.3804	1111.3102	1129.3364	1137.8888	1161.7774	1178.2712	1206.3035	1258.5075	1334.0155	1350.5528	1380.7061	1401.0685	1407.3936	1468.2608	1481.3217	1495.0041	1856.5256	2968.7126	3061.1301	3110.9445	3135.3015	3145.4424	3155.8836	3167.6243	3242.1901
CC1OC2CC2OC1=O	C[C@H]1O[C@H]2C[C@H]2OC1=O	
InChI=1S/C6H8O3/c1-3-6(7)9-5-2-4(5)8-3/h3-5H,2H2,1H3	InChI=1S/C6H8O3/c1-3-6(7)9-5-2-4(5)8-3/h3-5H,2H2,1H3/t3-,4+,5-/m1/s1
