17
gdb 38561	3.59356	2.06065	1.73051	1.6127	74.38	-0.2179	0.	0.2179	817.0687	0.138771	-384.60377	-384.598156	-384.597212	-384.63323	25.388	
C	 0.0042021328	 1.5026543324	 0.0457674561	-0.24034
C	 1.5285720407	 1.6917435988	-0.0009486559	 0.019519
O	 1.9155106632	 1.0698033284	-1.3042617171	-0.368068
C	 1.5890311751	-0.1372697961	-0.622628025	 0.432804
C	 1.8757405283	-1.6226646678	-0.5986213169	-0.222606
C	 1.4077439799	-1.9156668817	 0.6265261212	-0.081981
C	 0.8586515115	-0.5784077784	 1.2134695805	-0.143471
C	 0.0968242632	-0.0224358992	-0.0303630222	-0.069576
C	 1.9874094041	 0.4013223408	 0.7545897179	-0.060184
H	-0.4489555483	 1.8855981179	 0.9647923533	 0.101517
H	-0.4884146334	 1.9508491497	-0.8205147424	 0.11062
H	 1.9788404928	 2.6728805039	 0.1370793924	 0.083268
H	 2.3131256623	-2.2554469979	-1.3551450646	 0.118987
H	 1.3630662327	-2.8756497101	 1.1203085238	 0.106049
H	 0.4250670441	-0.6069184503	 2.2140798663	 0.061824
H	-0.7169135004	-0.5997942917	-0.4658728332	 0.070449
H	 3.0176658616	 0.3199542212	 1.0957565859	 0.081187
339.7222	400.105	439.0551	493.039	551.8708	625.8675	636.9992	690.6284	734.9614	777.0091	819.6209	834.3108	876.9499	880.0175	898.0979	915.5545	949.0732	957.3452	978.1281	996.6913	1013.0809	1027.0948	1077.9589	1084.2578	1152.7044	1167.3971	1193.6738	1202.7958	1218.5085	1230.981	1259.2594	1280.7735	1293.1387	1331.0044	1338.053	1480.6829	1580.7469	3060.5321	3100.2425	3113.9559	3134.8662	3136.6438	3146.3057	3231.9976	3261.7421
C1C2OC34C=CC(C13)C24	C1[C@@H]2O[C@]34C=C[C@H]([C@@H]13)[C@H]24	
InChI=1S/C8H8O/c1-2-8-5-3-6(9-8)7(8)4(1)5/h1-2,4-7H,3H2	InChI=1S/C8H8O/c1-2-8-5-3-6(9-8)7(8)4(1)5/h1-2,4-7H,3H2/t4-,5-,6+,7-,8-/m1/s1
