15
gdb 97529	2.31449	0.62298	0.49213	4.8215	106.19	-0.2386	-0.0953	0.1433	2161.5307	0.105028	-379.598168	-379.585757	-379.584813	-379.639856	39.736	
N	-0.4907322316	 0.4942717615	-1.0272210462	-0.696801
H	-1.2433522519	-0.0370202671	-1.4568395486	 0.246931
H	 0.2618782817	-0.169033972	-0.8614969372	 0.252204
H	-0.1507199564	 1.131524317	-1.742467305	 0.246896
C	-1.019820153	 1.7321291422	 2.0613402056	-0.420799
C	-0.2528241539	 1.2263922106	 3.0032428408	 0.153474
C	 0.4883991198	 0.7319349502	 3.8893368194	 0.070748
C	 1.2807951126	 0.2004408533	 4.8243490412	-0.159097
C	 1.2246424459	 0.5787468627	 6.1936598583	 0.270293
C	 1.1907679632	 0.8869778839	 7.3569167406	-0.425352
C	 2.2393732461	-0.800049245	 4.4487483424	 0.227873
N	 3.0130690157	-1.6072590139	 4.1469091458	-0.338122
H	-0.9322390453	 1.402322446	 1.0225676761	 0.210219
H	-1.7592401108	 2.4919291209	 2.3007075635	 0.150449
H	 1.156743478	 1.1625992096	 8.3821354733	 0.211082
18.3211	19.8518	34.3624	72.6196	129.3303	130.6502	144.4039	196.9678	204.0894	270.1672	295.8306	370.0093	385.7943	526.7485	550.3913	576.6484	587.4089	615.7633	618.479	659.6516	679.3769	974.8619	1045.1535	1086.6066	1111.678	1183.3128	1458.9711	1658.0172	1677.6796	1679.7647	2189.4205	2229.0737	2336.4808	3057.4485	3187.3725	3468.0463	3500.5663	3584.5551	3586.2968	18.3306	19.8523	34.3626	72.6193	129.3301	130.6498	144.4039	196.9689	204.0907	270.1654	295.8306	370.0117	385.7923	526.7518	550.3913	576.6488	587.4051	615.7631	618.4793	659.6485	679.3768	974.8621	1045.1542	1086.6064	1111.6782	1183.3128	1458.9714	1658.0178	1677.6797	1679.7647	2189.4213	2229.074	2336.4806	3057.4485	3187.3725	3468.0464	3500.5655	3584.5551	3586.2968
[NH3+]CC#C[C-](C#C)C#N	N.[CH2]C#C[C](C#C)C#N	
InChI=1S/C7H5N2/c1-2-7(6-9)4-3-5-8/h1H,5,8H2/q-1/p+1	InChI=1S/C7H3N.H3N/c1-3-5-7(4-2)6-8;/h2H,1H2;1H3
