19
gdb 35556	3.51349	1.19387	0.99134	0.7154	88.61	-0.2281	0.0162	0.2443	1228.8408	0.159863	-348.705963	-348.697949	-348.697005	-348.738509	31.677	
C	 0.1465367933	-1.2122434941	-0.1304682516	-0.442432
C	 0.0623030383	-0.013947731	-0.0756066287	 0.324855
C	-0.0349644535	 1.428716915	 0.0032387605	-0.287595
C	-0.3012879422	 2.1278709274	 1.4066590279	-0.256903
C	 0.7081392654	 3.2559286261	 0.9949712258	-0.041074
C	 1.9768220224	 3.6677904397	 1.7694085089	-0.24337
C	 3.1380268182	 3.3346163205	 0.7720739285	-0.236411
C	 2.5493369774	 2.2257730937	-0.09884408	-0.238596
C	 1.2259004133	 2.2767816485	-0.0215112452	 0.311269
H	 0.2220244338	-2.2700567864	-0.1807350853	 0.19356
H	-0.7757765851	 1.7972144964	-0.7174821657	 0.11199
H	-1.3360838393	 2.4121667167	 1.6096902591	 0.105284
H	 0.0840847264	 1.5090756238	 2.2196001143	 0.118395
H	 0.1733667408	 4.1124295173	 0.566159648	 0.074744
H	 1.9802437201	 4.7135505504	 2.0895274559	 0.094599
H	 2.0858466658	 3.0482784902	 2.6667898303	 0.103297
H	 3.4247513813	 4.2155603287	 0.1805143188	 0.105465
H	 4.0446625758	 3.0064067155	 1.2918804755	 0.103417
H	 3.1505356278	 1.4847555316	-0.6115836269	 0.099505
94.0021	113.1486	181.2165	271.4676	315.8632	361.0669	489.5818	503.5853	590.1254	616.6643	629.8712	653.0097	681.8334	803.3334	812.264	845.3606	863.4123	903.4373	940.4817	941.6326	978.3369	1003.3354	1050.0368	1082.2778	1088.525	1113.6915	1167.8844	1199.5901	1217.0163	1230.161	1237.4495	1272.3211	1304.4051	1322.4187	1336.1077	1360.1869	1474.8243	1483.1641	1497.4629	1736.0205	2235.8827	3007.774	3022.9704	3025.9174	3040.6933	3064.1906	3066.9202	3095.1476	3134.8199	3205.9776	3504.9849
C#CC1CC2CCC=C12	C#C[C@H]1C[C@H]2CC[CH][C]12	
InChI=1S/C9H10/c1-2-7-6-8-4-3-5-9(7)8/h1,5,7-8H,3-4,6H2	InChI=1S/C9H10/c1-2-7-6-8-4-3-5-9(7)8/h1,5,7-8H,3-4,6H2/t7-,8+/m0/s1
