13
gdb 130367	7.39641	0.85386	0.76549	5.8402	69.58	-0.2296	-0.0398	0.1897	1373.2359	0.089932	-486.080232	-486.07208	-486.071136	-486.114492	28.599	
N	 0.0266708437	 1.3145353672	-0.0059690395	-0.486142
C	 0.0746312796	-0.0266792995	 0.003204368	 0.144212
N	 1.2029939891	-0.653191781	 0.0224498983	-0.369582
C	 1.1913990825	-2.0130469157	 0.0309872537	 0.528448
N	 2.2449723667	-2.7895328634	 0.0499487134	-0.43352
C	 1.6757083397	-4.0314336501	 0.0502709161	 0.443173
O	 2.4112188208	-5.1444991477	 0.0671503635	-0.405824
N	 0.3673191283	-4.0822767458	 0.0331942582	-0.219235
O	 0.0326918768	-2.7046876588	 0.0199969095	-0.228802
H	 0.8872413727	 1.8389550999	 0.0023214535	 0.280877
H	-0.8477226076	 1.8067881244	-0.0209992896	 0.279586
H	-0.9001969829	-0.5202464756	-0.0068639969	 0.150879
H	 3.3345294206	-4.863909564	 0.0773429117	 0.31593
17.2921	123.4468	154.3612	231.8948	287.8398	368.3272	389.1599	420.7531	426.237	566.6	642.5468	726.0879	730.8503	796.5295	802.2563	940.2088	1012.2182	1035.963	1054.5568	1125.9278	1226.3345	1310.4542	1335.3306	1386.0182	1455.0688	1600.3558	1638.258	1672.5608	1718.7489	3109.3042	3607.4614	3750.9085	3811.879
NC=NC1=NC(O)=NO1	NC=Nc1nc(O)no1	
InChI=1S/C3H4N4O2/c4-1-5-3-6-2(8)7-9-3/h1H,(H3,4,5,6,7,8)	InChI=1S/C3H4N4O2/c4-1-5-3-6-2(8)7-9-3/h1H,(H3,4,5,6,7,8)
