19
gdb 59386	4.34717	0.86377	0.83235	1.4092	72.04	-0.2494	-0.0353	0.2141	1425.9846	0.15668	-460.153348	-460.143801	-460.142857	-460.188801	34.137	
C	 0.4530498859	 1.3748967305	-0.1685315808	-0.408131
C	 0.1773740607	-0.0909969264	 0.1730549221	 0.111699
O	 0.3873404844	-0.354100873	 1.5528433073	-0.43582
C	-1.2349664926	-0.50894071	-0.2272064184	 0.137547
C	-1.7029736605	-1.9234582784	 0.1761629786	-0.315421
C	-2.7650561499	-1.1852117006	 1.0047261275	 0.049494
O	-2.2138970833	 0.1106023244	 0.6681583164	-0.333352
C	-4.2009250011	-1.2887841935	 0.5257300925	 0.13469
O	-4.6911426391	-2.2871587968	 0.0669536402	-0.233488
H	 1.4453015894	 1.6610978168	 0.1884842095	 0.127109
H	 0.4073000816	 1.5463878076	-1.2491507494	 0.114604
H	-0.2888896563	 2.0241841835	 0.3091050776	 0.128553
H	 0.8852155017	-0.7362887444	-0.363009839	 0.092912
H	-0.3072362769	 0.1305144976	 2.017186505	 0.285829
H	-1.4397729642	-0.2358717246	-1.2699894961	 0.083061
H	-2.1026441944	-2.5559785192	-0.6162387488	 0.129491
H	-0.9708085006	-2.467923705	 0.7711364215	 0.131613
H	-2.7484982792	-1.363813617	 2.0900312897	 0.10757
H	-4.7721088456	-0.3389709515	 0.6313952347	 0.09204
39.2896	75.6537	102.1438	138.3448	220.724	247.1088	267.4622	364.1732	383.2503	449.6088	493.4805	573.7891	661.1122	715.968	787.1619	882.7414	903.922	924.7848	946.6623	1005.2748	1032.3756	1040.4059	1045.1976	1084.1386	1108.6636	1145.6186	1174.0839	1248.67	1257.2716	1283.7879	1305.5328	1337.1356	1346.2383	1389.6563	1400.9178	1403.5062	1425.2557	1484.3995	1492.5141	1498.6525	1833.7598	2887.593	3000.153	3026.9457	3035.9459	3037.627	3099.5364	3104.3667	3125.0936	3161.986	3774.7026
CC(O)C1CC(O1)C=O	C[C@@H](O)[C@H]1C[C@@H](O1)C=O	
InChI=1S/C6H10O3/c1-4(8)6-2-5(3-7)9-6/h3-6,8H,2H2,1H3	InChI=1S/C6H10O3/c1-4(8)6-2-5(3-7)9-6/h3-6,8H,2H2,1H3/t4-,5-,6-/m1/s1
