17
gdb 54614	2.64396	1.45009	0.94848	0.7122	74.71	-0.2054	-0.0072	0.1982	1182.3004	0.13665	-455.192835	-455.183841	-455.182897	-455.226744	32.898	
N	 0.0090446153	 1.3548917883	 0.1030385299	-0.545085
C	 0.0405973562	-0.0191892285	 0.0272944765	 0.317057
O	 1.1182058407	-0.6205919348	-0.0087181614	-0.418704
C	-1.2420494084	-0.7032553149	 0.039345807	 0.089351
C	-1.3507835993	-2.056380153	 0.001478415	 0.258702
N	-0.3574465887	-2.961246064	-0.1247896001	-0.580649
C	-2.8043642034	-2.4412351995	 0.0667551574	-0.143318
O	-3.5179435579	-1.2237248846	 0.1839314035	-0.267535
C	-2.6222668622	-0.1082338863	 0.1358792223	-0.182976
H	 0.886153432	 1.822574707	-0.0639740754	 0.25558
H	-0.8275754577	 1.859725021	-0.1383085166	 0.255481
H	 0.5781950715	-2.5767608492	-0.0415841617	 0.284853
H	-0.5201633483	-3.9250028743	 0.1100578366	 0.254931
H	-3.115221928	-2.989498478	-0.8373422167	 0.114499
H	-3.0160166077	-3.0907750127	 0.931607991	 0.108979
H	-2.767799837	 0.5037930508	 1.0401590829	 0.105771
H	-2.8883972472	 0.5237323028	-0.7292848104	 0.093061
72.372	100.5856	148.3677	199.7751	237.5854	308.6784	327.9845	339.4633	435.11	489.212	512.9649	556.3923	647.7755	668.1179	687.1797	784.688	828.3331	942.5754	977.8281	1025.6193	1070.2492	1086.71	1101.0544	1165.5447	1170.1418	1223.6542	1242.2492	1336.9317	1377.6501	1396.4335	1464.467	1517.3057	1543.1463	1577.6875	1620.6845	1687.7521	1734.1581	2942.3809	2968.4413	2977.2088	2986.5731	3501.0318	3588.404	3695.6228	3716.204
NC(=O)C1=C(N)COC1	NC(=O)C1=C(N)COC1	
InChI=1S/C5H8N2O2/c6-4-2-9-1-3(4)5(7)8/h1-2,6H2,(H2,7,8)	InChI=1S/C5H8N2O2/c6-4-2-9-1-3(4)5(7)8/h1-2,6H2,(H2,7,8)
