22
gdb 10362	2.24816	1.69126	1.12352	1.9604	74.64	-0.2484	0.0738	0.3222	1163.7492	0.197893	-387.333698	-387.323371	-387.322427	-387.369095	36.971	
C	 0.0659733253	 1.3026501342	 0.1325302409	-0.242602
O	 0.086890261	-0.1038347432	 0.0141878549	-0.258025
C	 0.7070551745	-0.6006520582	-1.180153296	 0.090315
C	 2.2125306059	-0.7123965372	-0.9104587565	-0.074017
O	 2.4741230001	-1.5683540975	 0.1854866255	-0.421963
C	 0.02093693	-1.9362221637	-1.5189775733	 0.051096
C	-1.4822727982	-1.7293333456	-1.7480788473	-0.397094
C	 0.6683490359	-2.6247553725	-2.7285436875	-0.409017
H	 1.0734221253	 1.7425672916	 0.1493637031	 0.110486
H	-0.4984294983	 1.7660804531	-0.6902714268	 0.111013
H	-0.4305969322	 1.5386208412	 1.0772561111	 0.128752
H	 0.5398791806	 0.1105753595	-2.0065527419	 0.060316
H	 2.7376684603	-1.1218079483	-1.7777054661	 0.110383
H	 2.6229888939	 0.2954527859	-0.7339545106	 0.081684
H	 1.8553779453	-1.2963696509	 0.8752371406	 0.286514
H	 0.1553176197	-2.584478404	-0.6450274159	 0.086365
H	-1.9864485206	-2.6890919559	-1.899631127	 0.108149
H	-1.9436084119	-1.2286955027	-0.8946351676	 0.125575
H	-1.6625261284	-1.1180808267	-2.6414979767	 0.102922
H	 1.6961479269	-2.935919242	-2.5253822336	 0.127852
H	 0.1020996532	-3.5212020412	-2.9999194136	 0.113435
H	 0.6771322216	-1.966067046	-3.6059788557	 0.107858
47.616	81.2652	114.7795	168.1142	206.1431	218.6855	245.0329	276.2817	322.601	364.493	395.7118	443.3442	464.4351	486.9963	668.375	832.928	859.3008	919.8848	931.3298	959.9809	984.6118	1040.2269	1087.6223	1122.9466	1148.0169	1167.91	1184.2027	1189.7918	1226.3617	1232.2574	1295.5543	1341.9065	1353.0724	1371.0406	1396.2076	1403.3686	1422.6822	1430.3832	1479.3916	1486.2922	1489.0235	1493.848	1502.6615	1509.5112	1512.4853	1524.3942	2960.6927	2972.164	2987.6047	3024.3669	3027.9873	3035.3885	3044.8295	3088.0768	3090.7149	3095.9456	3111.5959	3117.1882	3130.1014	3775.2352
COC(CO)C(C)C	CO[C@@H](CO)C(C)C	
InChI=1S/C6H14O2/c1-5(2)6(4-7)8-3/h5-7H,4H2,1-3H3	InChI=1S/C6H14O2/c1-5(2)6(4-7)8-3/h5-7H,4H2,1-3H3/t6-/m0/s1
