22
gdb 100709	1.8647	1.42956	0.9034	6.4518	78.47	-0.2383	0.0387	0.277	1351.2924	0.194261	-441.526249	-441.516139	-441.515195	-441.56134	37.768	
C	 0.3242119454	 1.8181963583	-0.1205400092	-0.404546
C	-0.0394426746	 0.3396518217	 0.0874518637	 0.016788
C	-1.5736911025	 0.2099639273	 0.0162860726	-0.163573
N	-2.0549040046	-1.1217286802	 0.4327345923	-0.519139
H	-2.1320915867	-1.1666363757	 1.4451349004	 0.252062
H	-2.9813840656	-1.3050317401	 0.0626142291	 0.248207
H	-0.7309156948	-2.2356550532	 0.2369699309	 0.311664
C	 0.6727214588	-0.64785619	-0.9127538053	-0.131308
C	 1.8689059145	-0.0623970327	-1.671972513	-0.394731
C	 1.1227697307	-1.9417645681	-0.2019688367	 0.401054
O	 0.1511641482	-2.6866712433	 0.334755048	-0.391561
O	 2.2784510889	-2.2781205537	-0.13217669	-0.335423
H	 1.4000415625	 1.9870287145	-0.0498904244	 0.131348
H	-0.0096785768	 2.185267568	-1.0975046703	 0.118445
H	-0.1585151511	 2.4344958056	 0.6451596687	 0.110974
H	 0.2702876897	 0.0754270278	 1.1081515068	 0.089456
H	-2.0339866134	 1.0107528842	 0.6119741559	 0.097212
H	-1.8895705756	 0.3670571263	-1.0217194598	 0.115626
H	-0.079965555	-0.9506850676	-1.6545986285	 0.086098
H	 2.6748203428	 0.2178176295	-0.9898752243	 0.133382
H	 2.2770538373	-0.8157362999	-2.3490078775	 0.127486
H	 1.5816535219	 0.8112576812	-2.2621370896	 0.100479
65.2261	68.614	148.0279	228.6042	258.821	273.2432	277.102	299.0435	326.4131	342.5316	386.5551	406.9686	480.3717	553.4076	625.0689	713.0357	812.6144	852.7611	881.0491	903.7624	972.4268	996.4318	999.405	1043.7259	1067.2021	1075.8839	1104.4904	1146.9598	1157.0656	1199.2642	1240.3769	1310.8999	1328.5094	1352.4123	1364.7962	1373.2776	1406.8716	1414.5595	1425.3843	1485.2462	1488.443	1490.4544	1500.9002	1508.3427	1511.4681	1652.8387	1843.326	2999.2959	3000.6869	3008.9089	3035.0385	3056.4272	3062.7727	3094.6535	3128.4737	3129.3641	3135.1459	3177.916	3499.1959	3578.8587
CC(C[NH3+])C(C)C([O-])=O	C[C@@H](CN)[C@@H](C)C(=O)O	
InChI=1S/C6H13NO2/c1-4(3-7)5(2)6(8)9/h4-5H,3,7H2,1-2H3,(H,8,9)	InChI=1S/C6H13NO2/c1-4(3-7)5(2)6(8)9/h4-5H,3,7H2,1-2H3,(H,8,9)/t4-,5+/m0/s1
