16
gdb 44698	3.12794	1.38275	1.20125	3.2809	69.31	-0.2525	-0.0311	0.2214	1045.2673	0.125281	-437.918831	-437.91155	-437.910605	-437.951167	27.905	
N	 0.1405335672	 1.0783541034	 0.4734498155	-0.540266
C	 0.039390732	-0.0961450966	 0.0515217913	 0.436879
O	 0.9796851883	-0.9398444678	-0.5090571973	-0.267945
C	-0.0118863962	-2.0057073419	-0.6932894571	 0.100881
C	 0.2458192055	-3.197050454	 0.2099032422	-0.338887
C	-0.4320870047	-2.8600876867	 1.5495235288	 0.383832
O	-0.2045429651	-3.3928454398	 2.600859546	-0.291485
C	-1.4704655128	-1.7500688536	 1.3137803159	-0.33509
C	-1.0936755162	-1.1013732988	-0.021546206	-0.181045
H	 1.0905432667	 1.4377932641	 0.366359576	 0.232337
H	-0.1190357115	-2.2363510836	-1.7535966389	 0.101264
H	-0.2337961265	-4.0992126218	-0.1913381999	 0.137646
H	 1.3065681943	-3.4187287875	 0.3435165865	 0.152105
H	-2.4591371788	-2.2222153313	 1.2615090828	 0.137233
H	-1.4866428428	-1.051955642	 2.1529907634	 0.159793
H	-1.9422898093	-0.7885061621	-0.6282931691	 0.112746
66.273	103.8202	217.8705	339.5759	435.1452	453.3285	460.9797	563.704	641.5472	688.539	747.3212	777.7795	791.5941	849.071	873.2989	884.4188	923.5823	1008.927	1030.2562	1039.6957	1064.2111	1112.914	1144.0927	1170.2397	1217.8841	1221.4992	1266.0783	1282.8015	1309.9911	1332.5168	1363.8965	1430.6769	1448.5256	1827.6907	1856.9051	3041.1146	3046.0206	3108.1755	3121.4898	3122.1148	3127.5188	3479.0948
N=C1OC2CC(=O)CC12	[NH][C]1O[C@H]2CC(=O)C[C@@H]12	
InChI=1S/C6H7NO2/c7-6-4-1-3(8)2-5(4)9-6/h4-5,7H,1-2H2	InChI=1S/C6H7NO2/c7-6-4-1-3(8)2-5(4)9-6/h4-5,7H,1-2H2/t4-,5+/m1/s1
