21
gdb 40212	2.73433	1.51116	1.14718	1.1905	83.76	-0.2392	0.0185	0.2576	1138.5061	0.1838	-387.077634	-387.069411	-387.068467	-387.110692	32.673	
C	 0.1735098892	 1.4981544892	-0.0191376638	-0.317452
C	 1.3804946767	 0.5809554971	-0.0678288646	-0.326201
C	-0.0158955584	 0.0119667157	 0.0373660189	 0.442507
C	-0.4923961913	-0.635115535	 1.3217701406	-0.25437
C	 0.0684014736	-2.0384197357	 1.5952717255	-0.257061
C	-0.222297393	-3.0996140319	 0.563313959	-0.051147
C	-0.2647592889	-2.9738638344	-0.7632533433	-0.058034
C	-0.0355488137	-1.7387518933	-1.6017898329	-0.13868
O	-0.5867216054	-0.5223959211	-1.1266231874	-0.285851
H	-0.0044928902	 2.0786366952	 0.8795450561	 0.108359
H	-0.114517625	 1.9842807175	-0.9438438099	 0.121005
H	 1.8927094765	 0.4883248044	-1.0187549029	 0.11698
H	 2.0309677679	 0.529469908	 0.7992424852	 0.110744
H	-0.2260923476	 0.012785126	 2.1649830607	 0.090334
H	-1.5873870539	-0.6799537398	 1.2839470342	 0.108183
H	 1.159670887	-1.9661793271	 1.7231708264	 0.11242
H	-0.3143685128	-2.3777220383	 2.5646554798	 0.099397
H	-0.3762079893	-4.098604204	 0.9674780543	 0.086261
H	-0.440262842	-3.8745086335	-1.3494859637	 0.085677
H	 1.0482361623	-1.6177224737	-1.7750802422	 0.097892
H	-0.4958622516	-1.8849659753	-2.58411855	 0.109037
39.8313	162.7253	214.087	265.4349	329.6225	351.5236	379.1822	443.1468	469.7911	567.1444	669.3078	707.392	743.7852	773.8669	826.9645	867.7682	895.6792	921.1569	947.029	960.0676	988.792	1003.5207	1040.639	1054.519	1060.2161	1070.6387	1080.8997	1123.651	1184.724	1193.0658	1247.1266	1272.0742	1290.8515	1307.2453	1341.0457	1369.8016	1399.296	1416.873	1428.6274	1454.6349	1467.2048	1477.6788	1480.5246	1498.1067	1732.5895	2952.1317	2991.6506	3027.3709	3053.6893	3070.1802	3073.0075	3126.2017	3130.9616	3137.3751	3150.85	3214.6489	3231.0245
C1CC11CCC=CCO1	C1CC21CCC=CCO2	
InChI=1S/C8H12O/c1-2-4-8(5-6-8)9-7-3-1/h1,3H,2,4-7H2	InChI=1S/C8H12O/c1-2-4-8(5-6-8)9-7-3-1/h1,3H,2,4-7H2
