18
gdb 81253	3.02787	1.52623	1.4084	2.4373	71.68	-0.2501	0.0689	0.319	982.4561	0.149964	-438.979557	-438.972498	-438.971554	-439.011037	28.623	
O	 0.0215179049	 1.4306621845	-0.1088764392	-0.456553
C	 0.0904307896	 0.0495793379	-0.0153205623	 0.190056
C	 0.0167142956	-0.6215402697	 1.3751180346	-0.123273
N	-1.4412644354	-0.1100416793	 1.4196360029	-0.435622
C	-1.2445877964	-0.7738351654	 0.0546801544	 0.266932
C	-1.9961745815	-1.3473014552	-1.1138244197	-0.199189
O	-1.104691635	-2.4017668324	-1.5384890202	-0.287617
C	-0.0695154982	-2.7100197936	-0.5572250262	-0.118528
C	-0.4906890205	-1.938665451	 0.6873011212	-0.045135
H	-0.6676121948	 1.6916806084	 0.5206305629	 0.291866
H	 0.8580064582	-0.3018791508	-0.7013419157	 0.096291
H	 0.6646488981	-0.5006208235	 2.2447341355	 0.088713
H	-1.9996774177	-0.7217890796	 2.0225243719	 0.214528
H	-2.974436963	-1.7600374135	-0.8290725896	 0.100874
H	-2.1293686458	-0.6567629463	-1.9523733831	 0.119451
H	-0.0699810047	-3.7932144514	-0.4031151642	 0.106699
H	 0.9046001981	-2.4252178179	-0.9693509314	 0.111495
H	-1.1080299716	-2.5419448511	 1.3602848183	 0.079011
90.0436	224.5732	246.8575	337.1497	370.4354	468.9375	533.3331	596.5066	635.0878	664.0678	742.3102	765.3338	826.0045	860.9205	878.998	898.8553	940.6541	980.8046	1020.1846	1034.4169	1054.3818	1092.1865	1107.6119	1124.8333	1162.3245	1175.824	1185.9617	1188.3362	1209.9442	1250.0024	1266.5633	1302.0202	1336.9863	1347.7893	1367.1761	1398.239	1471.0457	1515.7873	1528.103	3001.2692	3036.5083	3052.8936	3075.8476	3081.7954	3104.9626	3150.575	3399.6118	3722.5515
OC1C2NC11COCC21	O[C@H]1[C@H]2N[C@]31COC[C@@H]23	
InChI=1S/C6H9NO2/c8-5-4-3-1-9-2-6(3,5)7-4/h3-5,7-8H,1-2H2	InChI=1S/C6H9NO2/c8-5-4-3-1-9-2-6(3,5)7-4/h3-5,7-8H,1-2H2/t3-,4-,5-,6+/m0/s1
