20
gdb 116114	2.61006	1.15301	0.83969	4.8604	75.96	-0.232	0.0356	0.2676	1359.87	0.172695	-440.33099	-440.321988	-440.321043	-440.365028	33.531	
O	-0.0449535114	 1.4379234977	 0.0701277516	-0.421425
C	 0.0341634144	 0.0236308116	-0.0089008089	-0.096404
C	-1.3859033425	-0.5334895614	 0.0093384934	 0.01473
C	-1.4035479626	-2.0574148518	-0.1444289215	-0.212052
C	-2.8421720531	-2.5600601198	-0.2490033108	-0.163615
N	-3.6655274738	-2.0159479797	 0.8218373968	-0.301987
C	-3.480209679	-0.8320709866	 1.4878234117	 0.371897
O	-4.3298621543	-0.3867722123	 2.2372903231	-0.375131
C	-2.1321192121	-0.1469856399	 1.2940244304	-0.293796
H	 0.8474499667	 1.7905998499	 0.1279038304	 0.289831
H	 0.5427241558	-0.2951842663	-0.9335399944	 0.084539
H	 0.6024222579	-0.393564001	 0.8398305312	 0.0843
H	-1.9139990192	-0.0927042421	-0.8483576843	 0.088048
H	-0.8522568665	-2.3724226459	-1.0371908262	 0.100772
H	-0.9137810771	-2.5209935004	 0.7217706702	 0.105789
H	-3.2526650745	-2.283313181	-1.2328562708	 0.106796
H	-2.867482142	-3.6540551336	-0.190674973	 0.110129
H	-4.5859658752	-2.4091916082	 0.9584476735	 0.24257
H	-1.5201270784	-0.4140429082	 2.167527428	 0.119978
H	-2.2978497832	 0.9291673089	 1.3547951596	 0.145031
90.2236	102.5298	128.0437	184.826	228.816	263.2106	356.4203	403.6882	452.336	487.7689	497.2127	541.119	661.1478	668.676	807.6621	859.7256	899.0878	925.9884	972.7755	991.1499	1060.3678	1090.8421	1102.3355	1124.1126	1142.3351	1181.2782	1222.2822	1240.8488	1276.7254	1289.1981	1303.2382	1324.3617	1343.7319	1384.0631	1393.6719	1402.3485	1459.8489	1461.9771	1483.8723	1492.2484	1520.2162	1529.2101	1788.7785	2953.4702	2977.1096	2980.9533	3007.6999	3019.779	3028.6081	3052.7224	3075.0855	3130.5074	3602.2846	3835.8608
OCC1CCNC(=O)C1	OC[C@H]1CCNC(=O)C1	
InChI=1S/C6H11NO2/c8-4-5-1-2-7-6(9)3-5/h5,8H,1-4H2,(H,7,9)	InChI=1S/C6H11NO2/c8-4-5-1-2-7-6(9)3-5/h5,8H,1-4H2,(H,7,9)/t5-/m0/s1
