17
gdb 96211	2.86965	1.37072	0.9706	1.7557	79.9	-0.2401	-0.0282	0.2119	1177.2561	0.13528	-421.793739	-421.78524	-421.784296	-421.826718	32.334	
O	-0.0001344359	 1.3960316523	 0.0507858544	-0.430628
C	 0.0446652614	-0.0165511932	-0.0153444731	 0.010529
C	-1.4027631448	-0.5105387748	 0.0014361244	-0.099821
O	-1.4602672924	-1.9019597146	-0.2470691729	-0.246197
C	-1.0468814071	-2.2378781402	-1.5543449773	-0.119622
C	 0.19973466	-1.5273975673	-1.9920179784	-0.173754
C	 0.7268738992	-0.5156637996	-1.2890200719	 0.139162
C	 1.9155009103	 0.1646702691	-1.6694278816	 0.19651
C	 2.9119917703	 0.7986396051	-1.9148531145	-0.413941
H	 0.8827653235	 1.7283708441	-0.1512192417	 0.288463
H	 0.5797418109	-0.4294808696	 0.8553494882	 0.08707
H	-1.8561794449	-0.343844272	 0.9811226736	 0.118192
H	-1.9728393788	 0.0603094122	-0.7477186457	 0.102348
H	-0.8865164825	-3.3229513598	-1.5594870354	 0.126268
H	-1.8540351172	-2.0348688152	-2.2838079347	 0.108077
H	 0.6616160624	-1.8613343143	-2.916543563	 0.106199
H	 3.7970919556	 1.3308896478	-2.1626576906	 0.201145
84.0472	140.9061	175.0372	283.0403	301.6447	313.0747	351.9663	405.3476	441.7638	492.7556	554.4614	586.5332	634.5918	661.0673	724.6587	772.8228	851.3997	915.1356	1002.6776	1023.231	1039.7271	1082.8674	1112.2041	1160.3408	1186.3264	1232.0638	1272.4553	1304.5295	1321.812	1342.0232	1373.4514	1410.9467	1434.2332	1480.1075	1501.202	1697.2142	2210.8081	2928.6853	2965.4192	2995.9794	3047.6004	3106.6771	3176.0022	3499.6116	3782.7686
OC1COCC=C1C#C	O[C@H]1COCC=C1C#C	
InChI=1S/C7H8O2/c1-2-6-3-4-9-5-7(6)8/h1,3,7-8H,4-5H2	InChI=1S/C7H8O2/c1-2-6-3-4-9-5-7(6)8/h1,3,7-8H,4-5H2/t7-/m0/s1
