21
gdb 104924	2.01008	1.4897	1.00677	2.959	80.2	-0.2468	-0.0234	0.2234	1253.97	0.179555	-424.226472	-424.216171	-424.215227	-424.261199	38.123	
C	-0.0636404145	 1.4600612231	-0.0630768673	-0.45102
C	 0.0594043756	-0.0531010925	 0.032325135	 0.278887
C	-1.1054225801	-0.7719600303	-0.6269027856	-0.467891
C	 1.4204736905	-0.6705808224	-0.0367160025	-0.36611
C	 0.7037271346	-0.6606905636	 1.3087113127	 0.158176
C	 1.2170639429	 0.2079151583	 2.4412906132	-0.153013
O	 2.2292250578	-0.4610999882	 3.1843126113	-0.415079
C	 0.1912119903	-1.9723237764	 1.8071763445	 0.113481
O	 0.0773698875	-2.9815598421	 1.150881566	-0.275975
H	 0.8237825851	 1.9872493236	 0.2922085372	 0.118897
H	-0.2139797881	 1.7443805045	-1.1107673428	 0.123916
H	-0.9277057815	 1.8269843423	 0.502036996	 0.122865
H	-1.1444288456	-0.4999672516	-1.687901446	 0.115911
H	-1.0155044104	-1.8554080877	-0.5550880203	 0.157338
H	-2.0582407136	-0.4718027282	-0.1757672697	 0.113983
H	 1.5167974997	-1.6447295299	-0.5051458077	 0.138122
H	 2.2798328311	-0.0149004068	-0.1467517322	 0.108115
H	 1.5714362829	 1.1782210669	 2.0735863735	 0.092832
H	 0.4169585423	 0.4076003128	 3.1638315263	 0.116265
H	 2.9271293306	-0.7058363263	 2.5667580191	 0.285627
H	-0.095987067	-1.9626148756	 2.8809018493	 0.084674
89.5356	128.0866	133.7158	176.5404	218.5705	238.625	248.1682	292.4129	328.0163	340.2883	381.6208	384.8907	436.3175	520.7054	630.2806	690.3893	747.2966	849.9316	928.6925	932.8143	956.7347	974.2338	1008.7119	1034.8345	1049.3139	1056.8203	1080.4265	1141.2145	1166.9412	1211.2308	1261.8272	1307.3	1356.6609	1387.3401	1412.5705	1417.0448	1428.7132	1439.9269	1474.8842	1487.2627	1491.9758	1505.8478	1511.5183	1514.5987	1802.3681	2897.1611	3022.8599	3029.3473	3035.5228	3064.8561	3083.7488	3089.4264	3117.5804	3127.4556	3154.1767	3212.0621	3804.3423
CC1(C)CC1(CO)C=O	CC1(C)C[C@]1(CO)C=O	
InChI=1S/C7H12O2/c1-6(2)3-7(6,4-8)5-9/h4,9H,3,5H2,1-2H3	InChI=1S/C7H12O2/c1-6(2)3-7(6,4-8)5-9/h4,9H,3,5H2,1-2H3/t7-/m1/s1
