14
gdb 7012	8.13628	0.93282	0.84807	2.7199	70.07	-0.253	-0.023	0.23	1275.1343	0.102293	-345.346748	-345.337773	-345.336829	-345.381337	31.211	
O	 0.0048541768	-0.2164366734	-0.0056738169	-0.249365
C	-0.0113515416	 0.9819703502	 0.0021401959	 0.382746
C	 1.2536989838	 1.8480175613	-0.147684839	-0.482174
C	 2.501602431	 1.1143907479	-0.0405148502	 0.319253
C	 3.5366888027	 0.5135131948	 0.0503455633	-0.415351
C	-1.2993213524	 1.8114764466	 0.1630170265	-0.482175
C	-2.5269623322	 1.0458453752	 0.0461314002	 0.319251
C	-3.5454503509	 0.4184460391	-0.0526886222	-0.415348
H	 1.181883904	 2.3453916031	-1.1263194251	 0.160516
H	 1.2114537459	 2.6606796545	 0.5901259953	 0.149303
H	 4.4477690569	-0.0256330266	 0.1325214441	 0.20176
H	-1.240781095	 2.2978521302	 1.1480431603	 0.160516
H	-1.2792021696	 2.6345052934	-0.5641615347	 0.149305
H	-4.4416435894	-0.1440120564	-0.1420048676	 0.20176
38.1929	49.6517	103.6323	169.2697	303.3654	321.0545	321.638	390.2047	418.3938	450.0068	628.1388	629.8441	647.5718	649.5522	710.2834	787.248	873.1955	913.9477	988.1148	1013.1792	1058.385	1182.6723	1252.9575	1317.625	1342.8293	1433.8258	1444.5366	1847.9683	2251.4525	2251.4792	3005.0387	3011.7859	3036.7242	3043.3889	3506.9573	3507.2814
O=C(CC#C)CC#C	O=C(CC#C)CC#C	
InChI=1S/C7H6O/c1-3-5-7(8)6-4-2/h1-2H,5-6H2	InChI=1S/C7H6O/c1-3-5-7(8)6-4-2/h1-2H,5-6H2
