19
gdb 52471	4.62648	0.54305	0.54087	1.3431	100.69	-0.2281	-0.0061	0.222	2153.3342	0.154852	-385.853296	-385.842069	-385.841125	-385.891225	39.198	
C	-0.0174948625	 1.4719577995	 0.0107634936	-0.517484
C	 0.006763901	 0.0204297098	 0.0103553082	 0.217669
C	 0.0278163087	-1.1896211574	 0.0115849667	-0.183695
C	 0.0515143286	-2.5496546522	 0.0129473146	-0.346722
C	 0.0772368	-3.7594817285	 0.0220047305	 0.526887
C	 0.0749388095	-5.2246981068	-0.0236428122	 0.083226
C	-1.3765028085	-5.743885956	 0.0033277827	-0.403813
C	 0.811763017	-5.7070477008	-1.2891133482	-0.403758
O	 0.7741425702	-5.6670505787	 1.1475519524	-0.453921
H	 0.9972113029	 1.8859295956	 0.0041550453	 0.156256
H	-0.5403258029	 1.8590761286	-0.8712299142	 0.155495
H	-0.5300915274	 1.8601638304	 0.8982229799	 0.156248
H	-1.9454972759	-5.3728026878	-0.8533654836	 0.127388
H	-1.3785803956	-6.8397572021	-0.0327452305	 0.104015
H	-1.8704342452	-5.4214245197	 0.9222501916	 0.136382
H	 1.8465977343	-5.3588728545	-1.2730605198	 0.136381
H	 0.8085224294	-6.8029341812	-1.3245140505	 0.104011
H	 0.3269541378	-5.3345059273	-2.1955104409	 0.127368
H	 0.7761906686	-6.6308566608	 1.1249040844	 0.278067
17.4145	65.8409	67.4122	164.9627	170.5499	235.3993	237.3232	274.5902	315.4579	316.1171	331.7989	361.1527	402.7817	516.493	522.0688	573.0895	597.0379	624.092	787.751	915.655	917.1003	963.0934	1016.002	1047.93	1048.3509	1137.3545	1178.2193	1190.5542	1258.7933	1389.3433	1393.4599	1409.9021	1415.4025	1471.8598	1472.6981	1475.4364	1478.9587	1492.1962	1508.2854	2279.815	2387.9062	3023.6494	3029.304	3034.5491	3085.5599	3085.6217	3103.3963	3109.8883	3135.6334	3137.7182	3797.0116
CC#CC#CC(C)(C)O	CC#CC#CC(C)(C)O	
InChI=1S/C8H10O/c1-4-5-6-7-8(2,3)9/h9H,1-3H3	InChI=1S/C8H10O/c1-4-5-6-7-8(2,3)9/h9H,1-3H3
