23
gdb 96343	2.08643	1.60544	1.28907	1.9066	80.55	-0.2564	0.0607	0.3171	1138.9941	0.205768	-425.452413	-425.442845	-425.441901	-425.485644	38.063	
C	-0.0169265455	 1.552727701	-0.0033136843	-0.442601
C	 0.0188668136	 0.0245271815	-0.0125295231	 0.34469
O	-1.3156310437	-0.4989213772	 0.0654354681	-0.46935
C	 0.7279822019	-0.5184540994	-1.2703009512	-0.23318
C	 0.7941254328	-2.0522298989	-1.2830533756	-0.187867
C	 1.4699719446	-2.5893159924	-0.0137374739	-0.211017
C	 0.7809434304	-2.0523159402	 1.2513214973	-0.22675
C	 0.7124915416	-0.5193422113	 1.2641026491	 0.131562
O	 1.9959207101	 0.0750345375	 1.4455552287	-0.445321
H	 0.9909279622	 1.9659065035	 0.0705126389	 0.131821
H	-0.483241993	 1.9349806406	-0.9198238784	 0.094377
H	-0.5992128004	 1.9086243207	 0.852227149	 0.118188
H	-1.8273798573	-0.1026992097	-0.6475915682	 0.276254
H	 0.2083228593	-0.1472188068	-2.1632832382	 0.081283
H	 1.7411694799	-0.0956335164	-1.3142766158	 0.089236
H	-0.2262735975	-2.4473185515	-1.3399167658	 0.105761
H	 1.3242907735	-2.3986785529	-2.177016704	 0.086778
H	 1.4598542059	-3.6844215994	-0.006472776	 0.097119
H	 2.5344010895	-2.3070924165	-0.0189210941	 0.079574
H	-0.2413061621	-2.4402486044	 1.297697235	 0.119758
H	 1.3035748563	-2.3888378943	 2.1532741127	 0.094423
H	 0.1201514457	-0.1876874397	 2.1234415358	 0.084707
H	 2.6221314424	-0.3787315938	 0.8731359941	 0.280555
130.888	186.8342	213.9354	236.3175	245.5522	251.8917	294.6577	313.8478	356.8664	377.2763	445.6453	464.0127	499.9784	541.0977	622.4776	716.7855	805.0954	835.8703	864.1103	909.9523	913.1834	959.1988	980.9396	1019.1234	1039.1274	1063.9782	1094.199	1103.3824	1139.4168	1151.1819	1188.6917	1230.7166	1247.527	1286.6246	1297.3794	1335.581	1365.7653	1371.5767	1378.0137	1380.9347	1397.0635	1407.66	1416.5215	1472.1912	1480.2974	1487.2065	1489.2317	1498.2733	1504.0347	2986.3929	3010.0061	3027.0086	3034.4683	3042.4727	3046.8289	3057.9243	3065.9903	3080.1938	3094.664	3095.9189	3134.3626	3808.8634	3824.4505
CC1(O)CCCCC1O	C[C@@]1(O)CCCC[C@H]1O	
InChI=1S/C7H14O2/c1-7(9)5-3-2-4-6(7)8/h6,8-9H,2-5H2,1H3	InChI=1S/C7H14O2/c1-7(9)5-3-2-4-6(7)8/h6,8-9H,2-5H2,1H3/t6-,7-/m1/s1
