21
gdb 115017	2.38549	1.4243	1.04398	1.2475	84.52	-0.2185	0.0289	0.2475	1214.6528	0.183116	-387.082869	-387.074099	-387.073155	-387.116295	34.06	
O	-0.0635854651	 1.4389965723	-0.0843937072	-0.422003
C	 0.0107420242	 0.0281090222	 0.0797530409	-0.079304
C	-1.411148014	-0.532044518	 0.0108141533	-0.091297
C	-2.0290092498	-0.2721748662	-1.3941637483	-0.27118
C	-1.8909700509	-1.604131977	-2.0943192085	-0.086152
C	-1.5658993747	-2.5776625279	-1.2442218874	-0.130285
C	-1.4252675058	-2.0676663945	 0.1475797661	 0.348356
C	-0.6472894168	-2.8230081223	 1.2026851428	-0.326473
C	-2.1494085101	-2.7741830462	 1.2797364984	-0.314655
H	 0.8328297272	 1.785142053	-0.110496614	 0.285448
H	 0.6235070984	-0.4352192751	-0.7098814702	 0.090221
H	 0.4696478758	-0.2266030487	 1.0463752061	 0.081657
H	-1.9955492314	-0.0485780939	 0.7995665633	 0.075551
H	-3.0853804887	 0.021015785	-1.3246007924	 0.102319
H	-1.5165032137	 0.5501194539	-1.9028080756	 0.116269
H	-2.0767694224	-1.7341911029	-3.1545613462	 0.088372
H	-1.4438039814	-3.6271598016	-1.4913091508	 0.088213
H	-0.1748448971	-3.7562598349	 0.9128174912	 0.110189
H	-0.0844784806	-2.2556224949	 1.9362081704	 0.111655
H	-2.5994901171	-2.1571676225	 2.0508006669	 0.11313
H	-2.7099028959	-3.6725777997	 1.0430299111	 0.109967
73.8964	116.0003	190.3686	238.7616	249.9528	285.5454	288.3658	400.2547	451.2073	530.7553	544.4203	738.3046	753.6962	780.1526	837.6234	854.7953	891.7939	919.1725	941.9021	950.4292	962.1879	965.6675	1003.7091	1053.5327	1060.5804	1068.183	1080.3789	1097.1193	1122.8	1187.0206	1191.8739	1215.9344	1257.0297	1272.2795	1280.9614	1308.8416	1327.7635	1354.8341	1402.9942	1451.0976	1467.0183	1493.5517	1499.0042	1518.2355	1678.5586	2974.6384	3008.3845	3014.0822	3063.0159	3078.6986	3122.8557	3126.7621	3177.0531	3200.7464	3204.0509	3216.5413	3833.4259
OCC1CC=CC11CC1	OC[C@H]1CC=CC21CC2	
InChI=1S/C8H12O/c9-6-7-2-1-3-8(7)4-5-8/h1,3,7,9H,2,4-6H2	InChI=1S/C8H12O/c9-6-7-2-1-3-8(7)4-5-8/h1,3,7,9H,2,4-6H2/t7-/m1/s1
