23
gdb 98884	3.75757	0.89425	0.80492	2.4931	86.07	-0.2382	-0.0048	0.2334	1543.6088	0.206166	-388.337201	-388.327367	-388.326422	-388.373529	35.75	
C	 0.2047951492	 1.535266041	-0.153180079	-0.377661
C	 0.1243400537	 0.0226420678	 0.0329627568	-0.280473
C	 0.7123830882	-0.4688944989	 1.3500330897	 0.361807
O	 1.0905207342	 0.302126681	 2.2041016883	-0.311101
C	 0.829579014	-1.9815503987	 1.5127763093	-0.05853
C	 2.1472780166	-2.4990474004	 0.8562456423	-0.212682
C	 2.4898796308	-3.7562611888	 1.6672774747	-0.198285
C	 2.166046639	-3.3371784041	 3.1098667735	-0.19587
C	 0.8937055855	-2.462631085	 2.9891449994	-0.227846
H	 1.2442844401	 1.8742353352	-0.1530009095	 0.12745
H	-0.2560107241	 1.8356700153	-1.098459423	 0.107617
H	-0.3037381313	 2.0539062519	 0.6630381424	 0.13348
H	-0.9189463911	-0.3241508833	-0.0006487975	 0.122316
H	 0.6226780961	-0.5114428464	-0.7874710146	 0.119669
H	-0.0137585349	-2.4496530562	 0.9926350599	 0.072063
H	 2.0406529315	-2.6841748623	-0.2161703119	 0.096702
H	 2.9402486439	-1.7522496344	 0.9865873869	 0.111613
H	 1.8424684204	-4.5864141295	 1.3572144066	 0.095842
H	 3.5261049888	-4.0803209484	 1.5314276902	 0.095326
H	 2.031291434	-4.1880818689	 3.7832321472	 0.093299
H	 2.9933527616	-2.7392779468	 3.508701557	 0.105268
H	 0.9268860849	-1.6044630855	 3.6628587043	 0.125311
H	-0.0032109213	-3.0401235744	 3.2313899968	 0.094685
33.1035	51.477	64.2003	171.682	196.4008	219.6507	263.8781	319.6033	346.4337	532.2678	558.4928	619.6287	651.4145	755.1983	804.3947	834.8477	873.2157	891.6764	909.739	927.6303	966.7433	1002.4106	1021.0792	1028.8226	1045.9949	1062.594	1106.9406	1134.5266	1171.1929	1188.0184	1240.6765	1264.7923	1275.2612	1299.1805	1321.9347	1332.835	1340.9317	1349.1438	1358.7329	1383.989	1413.447	1450.6756	1485.9663	1490.6509	1492.1378	1492.8769	1498.2262	1512.1866	1801.2852	3011.7469	3026.3916	3030.8697	3036.3027	3041.7141	3042.6505	3050.6364	3059.6162	3084.4693	3089.8883	3096.1187	3119.5073	3120.0183	3128.323
CCC(=O)C1CCCC1	CCC(=O)C1CCCC1	
InChI=1S/C8H14O/c1-2-8(9)7-5-3-4-6-7/h7H,2-6H2,1H3	InChI=1S/C8H14O/c1-2-8(9)7-5-3-4-6-7/h7H,2-6H2,1H3
