20
gdb 30653	4.01389	0.97649	0.81209	0.7952	82.35	-0.2004	0.0382	0.2386	1432.3644	0.171895	-403.190149	-403.181015	-403.180071	-403.2244	34.435	
C	 0.3573283202	 1.5835943908	 0.2570599885	-0.386298
C	 0.5701050977	 0.0686438866	 0.2400519225	-0.1821
C	 0.3038771721	-0.5528640266	-1.1353444914	-0.008055
O	 1.1216575952	 0.0324642703	-2.1610601878	-0.435489
C	 0.4576061325	-2.0473917472	-1.1445929129	 0.295011
C	 0.4304432142	-3.0133274439	-0.1592278023	-0.246115
C	 0.5910719114	-4.2788197622	-0.7901129016	-0.14849
C	 0.7153467309	-4.0507940865	-2.1413356852	-0.093634
N	 0.6266853778	-2.6989487567	-2.3432024607	-0.280605
H	 0.9828585575	 2.0700757596	-0.4959076462	 0.126793
H	-0.6851550733	 1.8376916057	 0.0354645021	 0.115054
H	 0.6031525074	 2.0049876695	 1.2360970959	 0.1098
H	 1.5969861434	-0.1780509501	 0.5417429205	 0.093669
H	-0.0880644385	-0.4137467871	 0.9719611825	 0.108118
H	-0.7149576939	-0.279502637	-1.4459535234	 0.097934
H	 2.0372841701	-0.1818081881	-1.9439801207	 0.277537
H	 0.3014812373	-2.8358799532	 0.8972578887	 0.089724
H	 0.6169689101	-5.2429286782	-0.3058223715	 0.091535
H	 0.8678871896	-4.72885856	-2.9656959553	 0.11397
H	 0.7265443884	-2.2111777956	-3.2172817715	 0.26164
53.8681	98.2036	146.1272	178.4113	225.378	290.3041	343.8058	370.8268	461.8774	476.8385	558.0259	635.5201	658.1528	717.7305	756.3229	791.074	812.0721	849.9496	886.1847	903.0191	973.1871	986.2998	1053.7905	1065.6612	1095.8847	1109.8032	1132.7082	1145.7576	1244.0468	1250.1325	1279.8449	1305.1403	1328.9283	1387.2184	1406.92	1417.7891	1441.061	1454.8792	1483.0951	1493.4309	1495.398	1509.7504	1603.9319	3000.2134	3022.8711	3038.606	3065.7854	3103.8419	3122.8012	3241.9252	3255.3731	3269.7019	3673.5288	3780.3491
CCC(O)C1=CC=CN1	CC[C@@H](O)c1ccc[nH]1	
InChI=1S/C7H11NO/c1-2-7(9)6-4-3-5-8-6/h3-5,7-9H,2H2,1H3	InChI=1S/C7H11NO/c1-2-7(9)6-4-3-5-8-6/h3-5,7-9H,2H2,1H3/t7-/m1/s1
