17
gdb 13131	3.75321	1.39631	1.11143	3.58	66.85	-0.2368	0.0403	0.2771	1067.3313	0.142148	-401.015422	-401.007009	-401.006065	-401.049259	29.474	
O	-0.1761486923	 1.4882117679	 0.2241318395	-0.416202
C	 0.0434096098	 0.0972070615	 0.0353223843	-0.073775
C	-1.318454057	-0.5679829341	-0.1317038358	-0.167028
N	-2.0212371953	-0.1459806331	-1.3163780677	-0.064346
C	-2.6674199451	 1.115327046	-1.6991345573	-0.157657
C	-3.1001672492	 0.4125158399	-3.0175692729	-0.375503
C	-2.378415331	-0.8334677727	-2.4516953953	 0.403751
O	-2.1767035161	-1.9687002776	-2.8001281985	-0.376616
H	 0.6777489406	 1.927987792	 0.2682860014	 0.291626
H	 0.6555172784	-0.0966382221	-0.8579234566	 0.101865
H	 0.5545935554	-0.3505467183	 0.9022974743	 0.091446
H	-1.1893821868	-1.6520249391	-0.2116212767	 0.137625
H	-1.9253441848	-0.3586199989	 0.7594000871	 0.115682
H	-3.4880036352	 1.4074199363	-1.0341819854	 0.107914
H	-1.972068837	 1.9508711999	-1.8039836951	 0.121132
H	-4.1753192415	 0.2833860299	-3.1537856631	 0.130444
H	-2.660580313	 0.8108881424	-3.9336918322	 0.129641
41.3331	108.4168	122.9766	187.1082	225.74	256.5047	336.8269	443.8627	520.4599	570.2989	697.0156	771.2504	816.4202	883.0289	919.1624	964.7507	1022.1664	1044.7879	1092.7382	1098.1511	1138.6669	1155.839	1181.9257	1205.9411	1247.8989	1261.1317	1290.4473	1347.0361	1394.2355	1427.0839	1454.8139	1462.6578	1465.102	1515.4212	1532.6262	1871.5684	2975.4951	3009.3061	3028.037	3041.1648	3087.3411	3097.1005	3104.2231	3144.6077	3832.8775
OCCN1CCC1=O	OCCN1CCC1=O	
InChI=1S/C5H9NO2/c7-4-3-6-2-1-5(6)8/h7H,1-4H2	InChI=1S/C5H9NO2/c7-4-3-6-2-1-5(6)8/h7H,1-4H2
