18
gdb 87929	4.36891	1.0513	0.94352	3.7474	73.92	-0.2569	0.0247	0.2816	1266.2124	0.147165	-439.091501	-439.083051	-439.082107	-439.124965	31.502	
C	 0.0623254172	 1.507558379	-0.1325367292	-0.425262
C	-0.0028002427	 0.0175287031	 0.0901376461	-0.004176
O	 1.2299658671	-0.7168321007	 0.0078267876	-0.285447
C	 0.553742481	-0.6553648836	 1.2666557432	 0.362708
C	 1.2748093746	 0.0472035598	 2.4106977423	-0.148
O	 1.5844767357	-0.9794523677	 3.3623152889	-0.241948
C	 0.9072734893	-2.1401535424	 3.0927055218	 0.415944
N	 0.9968478	-3.1941632114	 3.7783683579	-0.53739
C	 0.0429863092	-1.9525129667	 1.8644826957	-0.395859
H	 0.90389232	 1.9573803548	 0.39973126	 0.128727
H	 0.1789018129	 1.7264120604	-1.1986560353	 0.137775
H	-0.862803578	 1.9850841779	 0.2078216754	 0.127788
H	-0.8355566371	-0.4818781988	-0.410120063	 0.093984
H	 2.2063667895	 0.5098133986	 2.0777893742	 0.135411
H	 0.6465152312	 0.8045653588	 2.8964351818	 0.116484
H	 1.6391277606	-3.0597643945	 4.5612607407	 0.223233
H	-1.0066245097	-1.8715132951	 2.1681203112	 0.139429
H	 0.1334620393	-2.7927513915	 1.1755246107	 0.156598
57.4194	129.5963	168.2582	182.5383	227.2713	358.6252	377.5338	464.9989	485.9288	521.1911	547.588	683.2781	756.0288	826.8066	858.4703	891.4733	900.1955	923.5841	989.2992	1012.3495	1033.4422	1064.6968	1107.4845	1126.8732	1155.4606	1180.0208	1228.813	1242.3031	1257.9569	1289.0629	1356.1659	1396.169	1411.7344	1451.163	1474.406	1490.6228	1509.3837	1524.2289	1783.5135	3025.2058	3039.9592	3055.2272	3082.5492	3104.3387	3107.5453	3128.3324	3134.9099	3474.0956
CC1OC11COC(=N)C1	C[C@H]1O[C@]21CO[C]([NH])C2	
InChI=1S/C6H9NO2/c1-4-6(9-4)2-5(7)8-3-6/h4,7H,2-3H2,1H3	InChI=1S/C6H9NO2/c1-4-6(9-4)2-5(7)8-3-6/h4,7H,2-3H2,1H3/t4-,6+/m1/s1
