16
gdb 56130	5.09937	0.64503	0.58828	4.2065	67.23	-0.25	-0.0928	0.1572	1768.231	0.120448	-475.070937	-475.060762	-475.059817	-475.108442	33.921	
N	 0.0513267077	 1.312428367	-0.1269984938	-0.523733
C	 0.0530643692	-0.0128587989	 0.1926356566	 0.415292
O	 1.0380397661	-0.5791725557	 0.6277948759	-0.358206
C	-1.2807996137	-0.7251259512	-0.0281730072	-0.322491
C	-1.1007772279	-2.2351836954	-0.1189312875	-0.318345
C	-2.3676137791	-3.0138488743	 0.1421436025	 0.295097
O	-3.419589873	-2.5258930587	 0.472309299	-0.271976
C	-2.2444206734	-4.5503110547	-0.0271943181	 0.092503
O	-3.1750950659	-5.2908700442	 0.123332548	-0.20296
H	 0.8681931484	 1.856003726	 0.0997537638	 0.264179
H	-0.7882315841	 1.7956364871	-0.3948440478	 0.261936
H	-1.9396741176	-0.4931229451	 0.817423144	 0.154254
H	-1.7861891513	-0.3320013249	-0.9164515082	 0.120499
H	-0.6957380161	-2.5397590791	-1.0941873526	 0.134045
H	-0.3333453212	-2.5504345395	 0.6028056893	 0.167322
H	-1.230011998	-4.9196585282	-0.2997256338	 0.092582
34.1023	39.4159	64.1038	99.4904	136.3882	221.6379	249.5196	261.563	359.062	453.0163	478.3051	512.9869	603.3504	650.6138	728.341	762.8491	836.0825	893.3956	934.2848	1030.5431	1046.7088	1086.2233	1111.5705	1162.1949	1252.3338	1291.2202	1361.8826	1407.0488	1410.7297	1444.7432	1467.9077	1620.2316	1794.667	1810.7421	1845.4583	2879.5046	3019.0591	3043.4504	3045.4928	3084.4655	3600.6167	3735.4654
NC(=O)CCC(=O)C=O	NC(=O)CCC(=O)C=O	
InChI=1S/C5H7NO3/c6-5(9)2-1-4(8)3-7/h3H,1-2H2,(H2,6,9)	InChI=1S/C5H7NO3/c6-5(9)2-1-4(8)3-7/h3H,1-2H2,(H2,6,9)
