19
gdb 107325	2.24136	1.59261	1.34156	2.1199	74.75	-0.2472	-0.0006	0.2466	1066.5312	0.160077	-419.18908	-419.180619	-419.179675	-419.222141	32.279	
C	 0.0085908993	 1.6968155088	-0.0273580988	-0.394651
C	 0.0360740287	 0.1710324973	 0.041562203	-0.020594
N	 0.7603210367	-0.4149816548	-1.1072512262	-0.207779
C	 1.596159204	-1.2512374045	-0.6448734262	 0.021141
N	 1.6570823597	-1.4719021357	 0.7689621865	-0.171883
C	 2.1644081582	-0.2515903438	 1.4599629612	-0.30062
C	 0.7061199881	-0.4447052553	 1.2812199788	 0.280667
C	-0.1651987643	-0.8877479668	 2.4341362882	-0.152135
O	-1.1302388236	-1.8390682884	 2.0240801118	-0.41345
H	 1.0184098387	 2.1163764062	 0.0079837968	 0.115553
H	-0.4600596406	 2.0218421286	-0.9596882986	 0.133612
H	-0.5654649074	 2.1098758332	 0.8083399273	 0.116897
H	-0.9960233179	-0.2007904147	 0.0044977124	 0.109583
H	 2.2624537799	-1.8371233817	-1.2723002237	 0.126114
H	 2.6175873254	-0.4413114008	 2.4287266303	 0.124404
H	 2.6787149651	 0.4828161135	 0.8466066466	 0.130182
H	 0.4671475957	-1.2762974483	 3.2462061265	 0.094273
H	-0.7266650251	-0.0343396358	 2.8310930347	 0.115492
H	-0.6411963205	-2.585409257	 1.6577854194	 0.293196
71.1947	145.6859	185.171	221.3444	243.5977	314.3432	379.0326	416.2488	444.9055	546.7605	590.471	639.7752	728.6186	777.8834	831.8961	859.0899	921.8852	940.6376	954.512	975.9492	1045.7655	1067.8421	1075.5022	1107.9512	1119.9119	1132.3774	1154.0672	1201.0224	1254.0373	1310.2327	1328.9135	1345.9964	1376.6712	1401.126	1409.562	1427.8403	1488.312	1491.9303	1498.4793	1502.5307	1681.6322	2994.4384	3029.5065	3041.0752	3067.2743	3110.2008	3112.5676	3123.8025	3181.1944	3201.8703	3792.9068
CC1N=CN2CC12CO	C[C@H]1N=CN2C[C@@]12CO	
InChI=1S/C6H10N2O/c1-5-6(3-9)2-8(6)4-7-5/h4-5,9H,2-3H2,1H3	InChI=1S/C6H10N2O/c1-5-6(3-9)2-8(6)4-7-5/h4-5,9H,2-3H2,1H3/t5-,6-,8?/m1/s1
