18
gdb 5222	6.61558	1.03457	0.95277	3.8224	74.33	-0.2138	0.0348	0.2486	1247.4466	0.155828	-344.033406	-344.025421	-344.024477	-344.06649	29.021	
C	 0.0712156963	 1.5753741025	-0.0645030758	-0.380025
C	 0.1380874246	 0.0467249354	-0.0690154724	-0.155507
C	 0.5926549416	-0.5332863843	 1.285412189	-0.315168
C	 0.6561951465	-2.0248953754	 1.323151773	 0.30662
C	-0.087608274	-2.9699064791	 1.9843460627	-0.166608
N	 0.3409895869	-4.2449194423	 1.6881652587	-0.253064
C	 1.3384754875	-4.0836307865	 0.8526843285	 0.008743
N	 1.5721794421	-2.7631734104	 0.5956005482	-0.296537
H	 1.0489138512	 2.0156510349	 0.1618314618	 0.113849
H	-0.2517944871	 1.9624605991	-1.0356004621	 0.115561
H	-0.6354986702	 1.9375467486	 0.6903081364	 0.118622
H	-0.8423798559	-0.3736870546	-0.3210482616	 0.109859
H	 0.8229099457	-0.2892982518	-0.8586719902	 0.087184
H	 1.5693636133	-0.1018200503	 1.5490629811	 0.10202
H	-0.1011610845	-0.2068436606	 2.0680302536	 0.117448
H	-0.9102475143	-2.7971134271	 2.6626358051	 0.101403
H	 1.9266174958	-4.8701398765	 0.4033138492	 0.124879
H	 2.2879342144	-2.3899478314	-0.0052866152	 0.260722
59.6029	90.2712	117.9103	239.8184	302.9479	321.7487	370.6147	522.9924	661.5125	684.7631	740.4753	745.4535	802.8277	845.5997	871.039	896.0917	933.032	1015.9327	1043.4016	1087.926	1111.0576	1114.4487	1145.9352	1242.0985	1259.164	1283.2524	1313.3483	1325.0242	1383.5397	1387.1031	1412.9269	1427.0909	1479.6278	1491.7454	1498.3677	1508.6421	1511.5808	1615.6834	3000.9118	3021.1176	3030.1914	3055.8535	3073.4819	3097.8721	3105.3067	3241.2048	3248.5041	3661.7466
CCCC1=CN=CN1	CCCc1cnc[nH]1	
InChI=1S/C6H10N2/c1-2-3-6-4-7-5-8-6/h4-5H,2-3H2,1H3,(H,7,8)	InChI=1S/C6H10N2/c1-2-3-6-4-7-5-8-6/h4-5H,2-3H2,1H3,(H,7,8)
