18
gdb 128834	5.75733	0.69986	0.66321	2.6179	75.69	-0.2548	-0.0101	0.2447	1688.9133	0.1473	-439.071603	-439.062666	-439.061721	-439.106905	31.035	
C	-0.1677387888	 1.3832634979	 0.0021740676	-0.231569
O	-0.0001649437	-0.0152451639	 0.0062417226	-0.229761
C	 0.6647529474	-0.4901994367	-1.1399944831	-0.050289
C	 0.7719173654	-2.0134014601	-1.0136126361	-0.325704
C	 1.4643578759	-2.6389828234	-2.1746338696	 0.42581
C	 2.6389732509	-3.312506589	-2.3188853893	-0.340805
C	 2.6821460565	-3.6169425674	-3.7048939551	 0.036658
N	 1.6318470072	-3.1682013586	-4.345587126	-0.139801
O	 0.8535027455	-2.5437446808	-3.3723775146	-0.21059
H	 0.7990999157	 1.9102120089	-0.0256808501	 0.105964
H	-0.766509432	 1.7200519185	-0.8584880104	 0.108684
H	-0.6901792765	 1.6518571455	 0.9232877771	 0.129764
H	 0.1125914738	-0.2254603483	-2.0556938985	 0.109366
H	 1.6704664072	-0.044661417	-1.2239219691	 0.093299
H	 1.3157523715	-2.2604897931	-0.0980752858	 0.12849
H	-0.2393346276	-2.4235483353	-0.9144959896	 0.138703
H	 3.3584242676	-3.5557257331	-1.5551942898	 0.119549
H	 3.443171994	-4.149730274	-4.2577551103	 0.132232
41.919	76.4982	93.3517	108.7311	228.0557	253.5496	315.8985	343.5103	452.3992	648.7174	676.2381	752.8143	798.1872	814.1212	918.2605	921.6355	945.1644	994.1996	1013.1923	1053.021	1057.3473	1066.9456	1163.0341	1179.707	1211.3148	1221.266	1228.5169	1266.5116	1302.5585	1315.1926	1383.3306	1421.0575	1478.68	1482.4849	1485.7688	1505.0151	1515.1166	1533.6528	1637.6135	2959.691	2975.1491	2999.2077	3018.28	3051.4419	3108.1042	3117.182	3242.9689	3280.6208
COCCC1=CC=NO1	COCCc1ccno1	
InChI=1S/C6H9NO2/c1-8-5-3-6-2-4-7-9-6/h2,4H,3,5H2,1H3	InChI=1S/C6H9NO2/c1-8-5-3-6-2-4-7-9-6/h2,4H,3,5H2,1H3
