19
gdb 68984	3.30219	1.07496	0.95332	1.4226	81.6	-0.2433	0.0565	0.2998	1283.648	0.157273	-385.825237	-385.816111	-385.815167	-385.85923	34.855	
O	-0.1675034893	 1.3836410679	 0.1354449714	-0.466271
C	-0.0379980503	 0.0136917359	-0.0192773449	 0.337236
C	-0.3519286304	-0.956181293	 1.0884267356	-0.38166
C	-1.1610824298	-1.0019289934	-0.1910164586	 0.318016
C	-2.6578064826	-0.8000193326	-0.2143563152	-0.470618
C	-3.4046648078	-2.006312078	 0.1370410238	 0.314071
C	-3.996307364	-3.0129152135	 0.4225042696	-0.457902
C	-0.3431436903	-1.7329060975	-1.2650141902	-0.276742
C	 0.7908129188	-0.6605949666	-1.1167121222	-0.283326
H	 0.4572157261	 1.6768634234	 0.8076245813	 0.286441
H	 0.3275282655	-1.7650374889	 1.350922127	 0.101516
H	-0.8748641378	-0.512030182	 1.9304194311	 0.112217
H	-2.9218239297	 0.0129200547	 0.4739513882	 0.136618
H	-2.9670516302	-0.4622419881	-1.2129804681	 0.129613
H	-4.5286886054	-3.8956303299	 0.6761595078	 0.193071
H	-0.0700002308	-2.7658985003	-1.0298560774	 0.101685
H	-0.8125671602	-1.7100927413	-2.2516603626	 0.10492
H	 0.8754232586	-0.0304597847	-2.0048931529	 0.110125
H	 1.7874864897	-1.0166040722	-0.834468184	 0.090991
51.9705	95.9443	182.7586	209.4142	254.8599	320.1741	351.3073	374.0479	401.7184	451.6957	533.3577	616.5863	616.883	634.4642	705.015	780.8889	798.4291	876.272	908.6678	930.4634	940.4042	955.1572	985.4521	1027.6937	1070.8867	1116.3215	1128.472	1197.8865	1214.268	1230.9077	1238.9659	1273.6877	1316.8289	1325.681	1347.8417	1415.7724	1463.2431	1481.8248	1482.3781	1523.5901	2237.2866	3012.9337	3041.9156	3048.4062	3054.6641	3096.9151	3098.115	3116.6357	3193.2893	3507.6015	3794.8257
OC12CC1(CC#C)CC2	O[C@@]12C[C@]1(CC#C)CC2	
InChI=1S/C8H10O/c1-2-3-7-4-5-8(7,9)6-7/h1,9H,3-6H2	InChI=1S/C8H10O/c1-2-3-7-4-5-8(7,9)6-7/h1,9H,3-6H2/t7-,8-/m0/s1
