13
gdb 33386	1.49727	1.49723	1.49719	0.0007	80.76	-0.2716	0.0195	0.2911	1101.2481	0.082869	-344.980083	-344.970404	-344.96946	-345.014122	35.587	
C	 0.0186438776	-1.2115617608	-0.0046078872	-0.444374
C	 0.0023910069	-0.0126684658	 0.0020558029	 0.357501
C	-0.017857517	 1.4677439678	 0.0101561571	-0.484122
C	 1.3710939795	 1.9803566788	-0.0003190569	 0.357602
C	 2.4959468003	 2.3954325502	-0.0088085711	-0.444418
C	-0.733938936	 1.9581229204	-1.1893521227	 0.357623
C	-1.3137527983	 2.3554532461	-2.1607412354	-0.444422
C	-0.7109468066	 1.9451749969	 1.2282584529	 0.357647
C	-1.2721396307	 2.3319287931	 2.2147343051	-0.444423
H	 0.0327732672	-2.2737097256	-0.010626922	 0.20785
H	 3.4924688451	 2.7632326543	-0.016688312	 0.207847
H	-1.827416876	 2.7074851297	-3.0213331579	 0.207847
H	-1.769196352	 2.6748067549	 3.0886724273	 0.207842
112.3166	112.4158	144.451	144.5071	144.6205	322.1271	322.1739	322.2197	537.4602	537.4876	540.6801	540.6963	540.7244	600.8308	652.8386	652.9372	652.9597	655.3671	655.4155	655.4713	655.5171	655.6963	1071.5849	1071.6615	1071.7592	2246.8613	2246.8811	2246.8917	2256.6448	3500.4364	3500.6223	3500.8718	3501.9543
C#CC(C#C)(C#C)C#C	C#CC(C#C)(C#C)C#C	
InChI=1S/C9H4/c1-5-9(6-2,7-3)8-4/h1-4H	InChI=1S/C9H4/c1-5-9(6-2,7-3)8-4/h1-4H
