19
gdb 68625	2.39209	1.62944	1.34608	1.6924	80.75	-0.2498	0.047	0.2968	1041.0956	0.159442	-385.850542	-385.842291	-385.841347	-385.882921	32.942	
O	-0.0764095874	 1.3756281326	 0.0267335386	-0.484662
C	 0.0139470499	-0.010506236	-0.0130775929	 0.411872
C	 0.337528337	-0.8089127244	-1.3165837705	-0.29119
C	-0.3788278908	-1.9489889554	-0.5452529344	-0.038328
C	 0.59006175	-2.2057205712	 0.6282603047	-0.214266
C	 0.8875339602	-0.727790251	 1.0341502334	-0.281728
C	-1.3200298064	-0.8311453259	 0.0304745429	-0.216699
C	-2.0283492456	-1.0254748922	 1.2770333916	 0.314197
C	-2.6071022656	-1.1936636711	 2.3186148029	-0.45107
H	 0.7774396161	 1.7324707183	 0.2917382842	 0.282221
H	-0.2316568968	-0.4412622552	-2.1726997524	 0.102785
H	 1.3878739512	-0.9555280793	-1.5835530783	 0.085528
H	-0.8009842065	-2.8125537479	-1.0558034185	 0.071605
H	 0.1204352728	-2.7700109547	 1.4368837766	 0.113909
H	 1.4844252275	-2.7451885451	 0.3049573327	 0.096412
H	 1.9439852763	-0.4583308538	 0.9268148722	 0.087184
H	 0.5694104194	-0.4930108394	 2.0527792019	 0.115891
H	-1.996646204	-0.4646284181	-0.7467844035	 0.105689
H	-3.1269922573	-1.3361290503	 3.2334307887	 0.190649
129.4623	136.6417	152.4163	271.2782	337.9777	349.7651	394.9141	475.0232	500.2675	574.2138	601.0692	619.2642	630.7085	736.7531	802.0577	820.9356	850.398	878.7513	895.1526	945.3535	965.6311	983.8078	1040.3699	1066.4678	1099.2568	1115.262	1132.1861	1147.5808	1187.6208	1226.4779	1233.1237	1252.9677	1271.2298	1312.1714	1334.2551	1369.7968	1387.6993	1485.6958	1494.7347	1518.1684	2228.1903	3041.9	3058.1626	3065.0241	3072.1738	3098.7708	3116.5497	3125.6563	3134.5001	3503.2226	3815.8272
OC12CC(CC1)C2C#C	O[C@@]12C[C@@H](CC1)[C@H]2C#C	
InChI=1S/C8H10O/c1-2-7-6-3-4-8(7,9)5-6/h1,6-7,9H,3-5H2	InChI=1S/C8H10O/c1-2-7-6-3-4-8(7,9)5-6/h1,6-7,9H,3-5H2/t6-,7-,8-/m1/s1
