16
gdb 13843	4.15037	1.60544	1.39682	3.1216	66.84	-0.2251	-0.0197	0.2054	928.3355	0.129144	-383.756071	-383.748168	-383.747224	-383.789123	27.976	
C	 0.1188298255	 1.4262967751	-0.0410050691	-0.488241
C	-0.0030317366	-0.0862106075	-0.0215235383	 0.371961
O	 0.9480557406	-0.82279177	 0.0416982629	-0.287283
C	-1.4459590516	-0.6440071083	-0.0740585408	-0.024359
O	-1.4641163838	-1.9815536098	-0.5276172702	-0.250489
C	-1.7631458622	-2.8644085171	 0.5525719731	-0.114282
C	-2.1909281108	-1.963580764	 1.6771637537	-0.084482
C	-2.0340610153	-0.6943264897	 1.3201270292	-0.098738
H	 1.1413905449	 1.7215419725	 0.1966173715	 0.146607
H	-0.1419990659	 1.7997233363	-1.038601534	 0.147491
H	-0.5794727398	 1.8911756053	 0.6636078037	 0.133943
H	-2.0391719591	-0.0194485811	-0.760734037	 0.092936
H	-2.5526934574	-3.560766437	 0.2361072019	 0.109631
H	-0.8779409382	-3.462276881	 0.8175328481	 0.12128
H	-2.5598871181	-2.3300203872	 2.6264731425	 0.112516
H	-2.2426349021	 0.1857860036	 1.9136709629	 0.111509
59.9993	85.4284	114.3813	191.2939	274.9422	356.8053	413.9253	572.6141	592.0158	702.3777	769.9156	816.6881	840.1516	923.37	930.0612	953.5688	981.3802	987.9953	1040.912	1047.7674	1122.1702	1136.697	1186.7338	1199.9187	1257.9467	1330.5192	1354.0476	1377.3317	1386.7103	1461.9058	1474.6605	1512.5092	1682.6552	1832.7919	2978.1834	2990.0092	3016.9796	3034.7953	3094.6241	3152.7012	3211.9561	3236.4409
CC(=O)C1OCC=C1	CC(=O)[C@H]1OCC=C1	
InChI=1S/C6H8O2/c1-5(7)6-3-2-4-8-6/h2-3,6H,4H2,1H3	InChI=1S/C6H8O2/c1-5(7)6-3-2-4-8-6/h2-3,6H,4H2,1H3/t6-/m0/s1
