16
gdb 54628	3.81691	1.21528	1.06332	2.7229	71.18	-0.2416	-0.0438	0.1978	1123.6765	0.125394	-437.867418	-437.859892	-437.858948	-437.899904	29.093	
N	-0.0216167711	 1.2615728397	 0.1451929024	-0.542168
C	 0.0322184111	-0.1114168722	 0.1298813525	 0.270723
O	 1.0859644295	-0.7209517264	 0.0984690587	-0.35726
C	-1.2799906766	-0.7946034404	 0.116133866	 0.30149
C	-1.5143929664	-2.1115757083	 0.1818914639	-0.170795
C	-3.0467411545	-2.160620849	 0.1147644263	 0.019429
C	-3.3349469145	-1.1873332051	-1.07090451	-0.216579
C	-2.7258853219	-0.2510298196	 0.0152625571	-0.076744
O	-3.4155585929	-1.0631720025	 1.019959488	-0.279092
H	 0.8546020285	 1.7368316669	 0.2965023851	 0.261601
H	-0.857525118	 1.7402028431	 0.435150518	 0.257293
H	-0.8135231744	-2.9293289086	 0.2534999314	 0.141666
H	-3.5789695613	-3.0940647324	 0.2870654851	 0.091156
H	-2.7971531481	-1.3247714546	-2.0107407836	 0.109397
H	-4.4032458541	-1.0177811883	-1.221407793	 0.114272
H	-2.9336669651	 0.8171775979	 0.0765188122	 0.07561
56.2675	141.7346	182.4822	341.7681	372.9809	463.5874	486.1628	501.0517	585.2267	636.2158	660.5804	754.4253	793.4599	820.3222	845.5731	882.467	904.0707	911.7796	937.2708	1016.6329	1040.2819	1084.6291	1092.488	1140.9759	1158.7664	1209.4344	1229.3454	1254.7879	1288.3768	1298.7256	1357.1968	1486.1166	1615.7939	1661.4473	1775.0452	3069.634	3122.7519	3143.8808	3147.8208	3258.6872	3590.9026	3720.5892
NC(=O)C1=CC2CC1O2	NC(=O)C1=C[C@@H]2C[C@H]1O2	
InChI=1S/C6H7NO2/c7-6(8)4-1-3-2-5(4)9-3/h1,3,5H,2H2,(H2,7,8)	InChI=1S/C6H7NO2/c7-6(8)4-1-3-2-5(4)9-3/h1,3,5H,2H2,(H2,7,8)/t3-,5-/m1/s1
