18
gdb 50651	3.11928	1.12811	0.88272	0.7035	73.15	-0.2205	-0.034	0.1865	1272.598	0.14805	-439.11083	-439.10233	-439.101386	-439.144694	31.144	
O	-0.7230183654	 0.9003970268	-0.6209130392	-0.23927
C	 0.1102106845	 1.0145602859	 0.2414375349	 0.149107
C	 1.3543601408	 1.8719463622	 0.1263281609	-0.109278
C	 1.4639171121	 2.6091175723	-1.2188022732	-0.170753
N	 2.6412940144	 3.4706367415	-1.3156504544	-0.291096
C	 2.7185480918	 4.4569321156	-0.2330000064	-0.259474
C	 2.5915445866	 3.8364760566	 1.1583962147	 0.375662
O	 3.3575312891	 4.0739914471	 2.0616766442	-0.297167
C	 1.4166652542	 2.8731806193	 1.3096354622	-0.319825
H	 0.0030393832	 0.4848489216	 1.2169564206	 0.083462
H	 2.2111098577	 1.1865748233	 0.2329014691	 0.101582
H	 1.481471287	 1.8907368175	-2.042358828	 0.1225
H	 0.5690884867	 3.2264157214	-1.3656185118	 0.121805
H	 3.4836225788	 2.9030051758	-1.3106215071	 0.223921
H	 3.6605427682	 5.0069331352	-0.2907547262	 0.12842
H	 1.8990819539	 5.1787348826	-0.3665164407	 0.123598
H	 0.496700298	 3.4760583706	 1.3116585588	 0.130839
H	 1.4917173283	 2.3714183047	 2.2778946118	 0.125968
64.2931	93.4852	121.7592	210.4929	255.8934	336.7479	385.7945	414.1911	478.1844	500.9241	621.1923	694.6208	763.0759	813.8351	831.2536	861.3724	906.2199	946.0584	980.5124	1043.9121	1102.7057	1119.3962	1136.4178	1145.6648	1236.974	1252.782	1275.6354	1310.5673	1315.5316	1341.3639	1345.3263	1389.4756	1426.6875	1455.7048	1466.1291	1479.2956	1492.7177	1820.9472	1825.8432	2859.4385	2981.3225	3004.0119	3014.5523	3042.1039	3100.5301	3101.3432	3111.553	3508.7601
O=CC1CNCC(=O)C1	O=C[C@H]1CNCC(=O)C1	
InChI=1S/C6H9NO2/c8-4-5-1-6(9)3-7-2-5/h4-5,7H,1-3H2	InChI=1S/C6H9NO2/c8-4-5-1-6(9)3-7-2-5/h4-5,7H,1-3H2/t5-/m1/s1
