15
gdb 16118	4.45876	1.66511	1.46281	3.3177	65.83	-0.2758	0.0237	0.2996	859.7683	0.120934	-362.669773	-362.663149	-362.662205	-362.700491	25.26	
N	 0.0438361283	-1.1460798138	-0.1047623767	-0.341801
C	 0.0402028299	 0.009238416	-0.0376867305	 0.194984
C	 0.0153443933	 1.436816149	 0.0567689864	 0.181046
C	 0.3331902984	 2.3008698642	-1.1523533838	-0.316695
C	 1.2816155794	 2.2881739321	 0.0081591719	-0.098352
C	 1.0644102051	 3.3573296916	 1.0649985451	-0.094943
O	-0.3454761129	 3.4118607589	 1.2614944064	-0.251644
C	-0.8653933288	 2.0994112347	 1.1194228466	-0.147355
H	 0.6366333059	 1.7828239982	-2.053818482	 0.140863
H	-0.2922734786	 3.174731404	-1.3020150479	 0.140689
H	 2.2539093607	 1.8225585569	-0.0919157149	 0.120538
H	 1.590711075	 3.0836316705	 1.9925644634	 0.107169
H	 1.3879405963	 4.357166557	 0.7603506726	 0.122862
H	-1.9158940881	 2.1886820146	 0.8294476838	 0.128298
H	-0.8021661937	 1.527555606	 2.0575199794	 0.114342
147.7536	164.0162	260.3754	322.3875	383.8055	497.7319	548.4865	573.2085	677.8875	723.0856	828.1557	896.4172	933.7341	942.5694	954.5394	1040.3197	1053.5602	1085.7758	1091.4471	1113.954	1123.9129	1218.8433	1244.1216	1256.9635	1271.5846	1349.806	1369.1499	1412.9905	1475.2533	1508.5944	1521.8554	2351.4184	2988.814	2996.411	3083.4843	3092.291	3140.0652	3201.4517	3237.6125
N#CC12CC1COC2	N#C[C@]12C[C@H]1COC2	
InChI=1S/C6H7NO/c7-3-6-1-5(6)2-8-4-6/h5H,1-2,4H2	InChI=1S/C6H7NO/c7-3-6-1-5(6)2-8-4-6/h5H,1-2,4H2/t5-,6-/m0/s1
