16
gdb 131840	3.12168	1.2719	0.93917	2.9108	68.78	-0.2236	-0.0282	0.1955	1192.8766	0.125442	-467.347849	-467.339408	-467.338464	-467.381874	30.534	
O	-0.3160284291	 1.5737891361	 0.5263401718	-0.419262
C	 0.0393195197	 0.2761029654	 0.1051573506	-0.059136
C	-1.1697294077	-0.6123493534	-0.1975278876	-0.171268
N	-1.8549865756	-0.2125146106	-1.4160573255	-0.046132
N	-2.1779609742	 1.0818871759	-1.6793024387	-0.126765
N	-2.7623370741	 1.1480032347	-2.8007475478	-0.067284
N	-2.8387341904	-0.1207412809	-3.2944766587	-0.316837
C	-2.2704874907	-1.0554089428	-2.4394782425	 0.491044
N	-2.1097732973	-2.3200239008	-2.4664139161	-0.598747
H	-0.8520129864	 1.9678727627	-0.1739416809	 0.298987
H	 0.7034777251	 0.2915204648	-0.7738280071	 0.097713
H	 0.5957106795	-0.1787003578	 0.9313075133	 0.118586
H	-0.8696578409	-1.6500642159	-0.3650189519	 0.160467
H	-1.8683319797	-0.5805329891	 0.6461774934	 0.134833
H	-3.2858765905	-0.2812880113	-4.179689685	 0.286696
H	-2.4790498078	-2.7371754271	-3.3153883372	 0.217106
34.6204	125.091	149.0366	197.5593	243.4249	322.9226	379.6119	436.406	491.4753	535.5918	658.1709	674.6183	696.0972	719.4129	776.8821	884.234	935.2997	998.333	1039.2406	1074.5433	1087.2022	1104.0543	1178.31	1220.9447	1247.974	1322.0346	1372.4542	1391.7	1400.8327	1424.5245	1448.6611	1486.5543	1500.0421	1508.645	1761.3923	2981.8821	3047.3735	3079.5203	3118.3839	3541.6088	3698.2658	3767.7537
OCCN1N=NNC1=N	OCCN1N=NN[C@H]1[NH]	
InChI=1S/C3H7N5O/c4-3-5-6-7-8(3)1-2-9/h9H,1-2H2,(H2,4,5,7)	InChI=1S/C3H8N5O/c4-3-5-6-7-8(3)1-2-9/h3-4,9H,1-2H2,(H,5,7)/t3-/m1/s1
