16
gdb 9515	2.79151	1.92332	1.58607	3.3796	60.08	-0.2745	0.0023	0.2768	871.665	0.129867	-420.90075	-420.892693	-420.891748	-420.933117	29.145	
C	-0.0434355327	 1.572704727	-0.0989934058	-0.450921
C	-0.0615081344	 0.0470439338	-0.0711387917	 0.072085
C	-1.4741063746	-0.5154991222	 0.1707344275	-0.1083
O	-1.9852280541	-0.0984751644	 1.4181926374	-0.416348
C	 0.7899810923	-0.6865223519	-1.1315866203	-0.133196
O	 1.655044276	-1.2327781262	-0.0768475824	-0.243226
C	 0.9274564721	-0.6085655801	 0.8974417696	 0.452601
O	 1.0645602006	-0.6794038416	 2.0807338607	-0.346399
H	 0.9756760027	 1.9653799441	-0.1604472146	 0.126063
H	-0.6064493023	 1.9410015778	-0.963446032	 0.124371
H	-0.5157902472	 1.963344659	 0.8046198907	 0.153817
H	-2.1633592889	-0.136887969	-0.592472028	 0.115106
H	-1.453931932	-1.6140143901	 0.0847336128	 0.097015
H	-1.3626417755	-0.3841930691	 2.0996057574	 0.30133
H	 0.3026869769	-1.4967564686	-1.6787929983	 0.127572
H	 1.3628893511	-0.0509791283	-1.809342193	 0.128429
112.2624	125.6293	181.2248	214.3466	248.8279	294.8205	352.866	423.0193	466.0736	542.7113	714.5649	763.7621	780.9634	884.9813	916.0704	952.9214	986.3103	992.3101	1082.7609	1115.5985	1154.6701	1163.5535	1203.653	1246.5508	1282.1858	1358.4659	1384.7615	1409.058	1438.4021	1488.2914	1499.6689	1509.0462	1513.4928	1909.6843	2972.9697	3039.2029	3063.9388	3070.1115	3106.5871	3132.5737	3136.783	3769.2571
CC1(CO)COC1=O	C[C@@]1(CO)COC1=O	
InChI=1S/C5H8O3/c1-5(2-6)3-8-4(5)7/h6H,2-3H2,1H3	InChI=1S/C5H8O3/c1-5(2-6)3-8-4(5)7/h6H,2-3H2,1H3/t5-/m1/s1
