21
gdb 39202	2.77594	1.77503	1.27934	0.1491	86.62	-0.2334	0.0304	0.2638	1045.9161	0.18597	-349.96959	-349.962355	-349.96141	-350.001085	30.152	
C	-0.1031349562	 1.3713482479	-0.073158305	-0.350943
C	 1.3319976867	 0.9058047285	 0.0306870442	-0.077752
C	 1.9524839671	 0.8357225766	 1.4296976565	-0.232372
C	 1.4834740086	-0.5198775968	 2.0161440735	-0.207279
C	 0.1409752186	-0.8481876208	 1.3020914563	-0.104163
C	-0.0395844944	-2.2804810328	 0.8639735994	-0.081599
C	-0.1340904432	-2.4073032288	-0.4598231115	-0.068258
C	-0.0709727187	-1.0805315472	-1.1825071873	-0.371118
C	 0.20318487	-0.0976451289	-0.0453588491	 0.37678
H	-0.5637107891	 1.8279924069	 0.7998326344	 0.099928
H	-0.4255812281	 1.799054651	-1.0184135003	 0.102921
H	 1.9811387263	 1.0714550266	-0.8233525102	 0.078275
H	 3.0437591439	 0.899897698	 1.3914757438	 0.097834
H	 1.6108706195	 1.6727852781	 2.0506443749	 0.09676
H	 2.2146247669	-1.2947909657	 1.7596755062	 0.097874
H	 1.3958544654	-0.5054952942	 3.1070561367	 0.089726
H	-0.7016755786	-0.5164240718	 1.9254409826	 0.068757
H	-0.0751243793	-3.1027304382	 1.5712503928	 0.088612
H	-0.2576115461	-3.3470697175	-0.9878752694	 0.088191
H	 0.7090911348	-1.0643979177	-1.9555573651	 0.102839
H	-1.0175562044	-0.8655010028	-1.6986870533	 0.104986
93.6053	190.8626	240.6995	345.3515	414.6763	440.7446	529.5545	562.644	602.0481	727.8427	771.0067	794.7169	828.53	834.7779	845.6427	913.7506	935.6585	956.216	959.9333	975.9646	983.7155	1031.2452	1038.8754	1056.9753	1059.6587	1080.4637	1118.9814	1134.7372	1178.7512	1193.7626	1218.2793	1239.5752	1255.9044	1279.9189	1303.9273	1318.3361	1322.027	1352.2275	1372.1578	1402.2162	1483.3721	1486.008	1493.0627	1505.1948	1682.229	2992.9668	3001.4829	3027.4579	3029.4325	3037.3477	3078.0087	3090.9924	3102.543	3155.3115	3173.3375	3187.9034	3198.9734
C1C2CCC3C=CCC123	C1[C@H]2CC[C@@H]3C=CC[C@]123	
InChI=1S/C9H12/c1-2-7-3-4-8-6-9(7,8)5-1/h1-2,7-8H,3-6H2	InChI=1S/C9H12/c1-2-7-3-4-8-6-9(7,8)5-1/h1-2,7-8H,3-6H2/t7-,8+,9+/m0/s1
