19
gdb 80796	1.96743	1.81065	1.13163	4.1825	82.1	-0.2359	0.0091	0.245	1140.2162	0.158859	-382.008303	-381.999595	-381.99865	-382.041372	33.162	
C	-0.2752428353	 1.5591233889	-0.0807790492	-0.45096
C	 0.0396390487	 0.0780292979	-0.0078848196	 0.027402
C	 1.2719939616	-0.5750843745	-0.7096766205	-0.055259
C	 2.2035249817	 0.0717496605	 0.3538985416	-0.29544
C	 0.9733323179	-0.5346913185	 1.0945111477	 0.239208
C	 0.7373689601	-0.6158442884	 2.5156064179	 0.162219
N	 0.5532143525	-0.6701164775	 3.6559808689	-0.350704
N	 1.0152474433	-1.7702850507	 0.2012946331	-0.127796
C	 2.0771115338	-2.7517701529	 0.4096023459	-0.344559
H	 0.5984729365	 2.2064215475	 0.0215418569	 0.124299
H	-0.7477571489	 1.7889691038	-1.0416083848	 0.129756
H	-0.9864855305	 1.8317905945	 0.7056647814	 0.13877
H	-0.8559726356	-0.5346497433	-0.1300517181	 0.100228
H	 1.446531994	-0.7036248386	-1.7777824861	 0.093561
H	 3.1633497259	-0.4071077279	 0.5375538602	 0.119225
H	 2.3132962608	 1.1561607882	 0.3594815542	 0.113717
H	 1.8325014862	-3.3345039118	 1.3028470846	 0.141316
H	 2.0711035896	-3.4347550396	-0.4455281632	 0.130163
H	 3.0991971277	-2.3635825277	 0.5260555192	 0.104851
111.4379	152.9594	172.5997	196.6129	204.5804	262.5929	357.9905	422.9492	520.799	529.0426	538.6165	549.4964	606.4424	727.5373	802.5559	823.1734	836.9992	927.2087	943.0421	1008.0861	1057.0609	1067.8341	1093.0853	1111.0549	1162.8198	1168.6439	1176.8935	1189.8447	1223.2929	1233.9497	1245.109	1262.1729	1386.1313	1420.547	1442.9065	1482.4386	1494.1395	1498.864	1498.9529	1541.1653	2349.7718	2994.4392	3042.2042	3074.8503	3093.2684	3100.1242	3101.5558	3109.6924	3123.3289	3127.6383	3162.4929
CC1C2CC1(C#N)N2C	C[C@H]1[C@H]2C[C@]1(C#N)N2C	
InChI=1S/C7H10N2/c1-5-6-3-7(5,4-8)9(6)2/h5-6H,3H2,1-2H3	InChI=1S/C7H10N2/c1-5-6-3-7(5,4-8)9(6)2/h5-6H,3H2,1-2H3/t5-,6+,7+/m0/s1
