16
gdb 84611	2.55935	1.58418	1.24551	4.7362	74.56	-0.2574	-0.0146	0.2428	1025.0372	0.12501	-400.752693	-400.744823	-400.743879	-400.784998	30.011	
O	-0.0721712814	 1.4538575409	-0.0224313287	-0.425761
C	 0.0207384438	 0.0342461908	 0.0102979209	-0.017214
C	 0.6412401123	-0.5035524835	 1.2902158799	-0.113478
C	-0.1864937305	-1.2998506712	 1.9650029215	-0.075531
C	-1.5170063795	-1.4166991411	 1.2962954432	-0.122975
C	-2.2981312446	-0.133798222	 1.1800513513	-0.301956
C	-1.395612508	-0.562466267	 0.0331558303	 0.206878
C	-1.9891385642	-0.9705730549	-1.2044013945	 0.196656
N	-2.4577655713	-1.3033907199	-2.2089075847	-0.352718
H	 0.812107278	 1.8096234785	-0.1564151128	 0.289566
H	 0.5575235699	-0.3270790673	-0.8790451518	 0.095143
H	 1.636410532	-0.2093833185	 1.6044923183	 0.104542
H	 0.0291039177	-1.7849274111	 2.9100954621	 0.114467
H	-2.0472461065	-2.3611529059	 1.2712883064	 0.11882
H	-3.3642980336	-0.2039790042	 0.997629706	 0.139619
H	-1.973786954	 0.7241370063	 1.7562597326	 0.143941
106.3153	157.8976	188.9896	216.0735	269.6301	382.8758	431.2819	503.4223	563.5505	569.3433	615.1272	722.1458	754.1464	808.2935	853.1797	899.2396	946.6463	964.8307	991.0671	1002.4445	1038.141	1077.5332	1080.5836	1085.8975	1145.8046	1206.058	1233.0479	1272.9102	1318.4665	1361.5878	1379.2712	1426.0576	1474.5445	1678.4905	2350.5994	2994.1562	3146.1792	3186.0642	3191.8182	3212.7822	3244.1622	3822.5142
OC1C=CC2CC12C#N	O[C@H]1C=C[C@H]2C[C@@]12C#N	
InChI=1S/C7H7NO/c8-4-7-3-5(7)1-2-6(7)9/h1-2,5-6,9H,3H2	InChI=1S/C7H7NO/c8-4-7-3-5(7)1-2-6(7)9/h1-2,5-6,9H,3H2/t5-,6-,7-/m0/s1
