18
gdb 85288	2.58076	1.61216	1.18964	3.6481	73.86	-0.2604	0.0069	0.2672	1083.0868	0.146914	-439.096605	-439.088149	-439.087205	-439.129386	32.093	
C	 0.1736601819	 1.501812466	-0.0908694161	-0.406753
C	-0.0713169037	 0.0101090268	 0.0645250135	 0.065005
O	 0.4267388264	-0.6766338558	-1.1100025746	-0.267796
C	 1.1535453524	-1.7859570322	-0.778864106	 0.440203
N	 1.5247837571	-2.6899441055	-1.5776218941	-0.548791
C	 1.4216187816	-1.7585085001	 0.6860376992	-0.142485
O	 2.0682213189	-0.5311969548	 1.0863794316	-0.28825
C	 0.6501687816	-0.6398960019	 1.243470101	 0.396473
C	 0.0927104468	-0.5542362427	 2.6351862581	-0.497255
H	 1.2475387475	 1.7008354544	-0.1078792452	 0.147238
H	-0.2710099851	 1.8637221906	-1.0210312735	 0.133142
H	-0.2779988522	 2.0512423823	 0.7411480308	 0.120122
H	-1.1467463535	-0.2010606248	 0.1363990809	 0.091411
H	 1.1845038916	-2.4968117981	-2.5217966529	 0.224991
H	 1.7082166989	-2.6595672296	 1.2151367243	 0.120846
H	 0.0387520972	 0.4875902992	 2.96874529	 0.137012
H	-0.9163930424	-0.9762354526	 2.6774461717	 0.132091
H	 0.731985755	-1.1000714612	 3.332586481	 0.142797
121.1019	142.6016	185.0528	226.5057	231.1478	280.8716	331.1188	406.5742	478.3895	530.3466	571.717	666.6647	704.5049	744.7553	835.434	866.9579	901.9737	912.3075	947.5233	1004.0132	1032.46	1058.6486	1078.1542	1109.8023	1122.5882	1143.9896	1238.696	1257.8967	1315.7714	1371.2783	1376.4743	1405.6263	1411.041	1455.2523	1483.051	1488.3479	1495.6928	1499.9638	1782.3105	3018.9832	3040.3286	3048.839	3103.6923	3120.7693	3131.217	3140.8966	3198.5127	3468.101
CC1OC(=N)C2OC12C	C[C@H]1O[C]([NH])[C@H]2O[C@@]12C	
InChI=1S/C6H9NO2/c1-3-6(2)4(9-6)5(7)8-3/h3-4,7H,1-2H3	InChI=1S/C6H9NO2/c1-3-6(2)4(9-6)5(7)8-3/h3-4,7H,1-2H3/t3-,4-,6+/m1/s1
