21
gdb 90414	2.28464	1.54702	1.22836	2.7147	82.26	-0.2316	-0.0177	0.2139	1142.1302	0.181735	-387.092594	-387.083555	-387.082611	-387.126476	34.233	
C	 0.3537712757	 1.6027144404	-0.1808649493	-0.405977
C	 0.0782321603	 0.1184160842	 0.0121323861	 0.039729
C	 0.7864534345	-0.919937345	-0.9130589039	-0.261015
C	 1.2031594561	-1.7677791272	 0.3236076889	-0.052914
C	 2.6513689352	-1.5420503657	 0.8589879082	-0.091549
C	 3.8804952351	-1.4632059167	-0.0339813077	-0.41696
C	 2.1276373412	-0.2789836045	 1.5682309836	 0.393033
O	 2.6680632573	 0.6464879771	 2.1061814458	-0.316197
C	 0.6604702192	-0.622143328	 1.259284331	-0.174609
H	 1.4249756019	 1.8231712232	-0.1518069793	 0.127864
H	-0.0362598626	 1.9430023669	-1.1466875349	 0.111923
H	-0.1249019072	 2.2000317899	 0.6024479621	 0.121743
H	-1.0026586327	-0.0549123562	-0.0084358831	 0.08045
H	 0.1255574124	-1.4300019907	-1.6170787571	 0.104336
H	 1.626349285	-0.5101203267	-1.4817747221	 0.101602
H	 0.8223981927	-2.7874333841	 0.3650114127	 0.069495
H	 2.8230876917	-2.2815938338	 1.6559824684	 0.105185
H	 3.7431284958	-0.7512324509	-0.8530781392	 0.123355
H	 4.7449118296	-1.1296396686	 0.5482070817	 0.136158
H	 4.1196291894	-2.4382707809	-0.4702127264	 0.118592
H	 0.0076332593	-0.7658656028	 2.1221395745	 0.085755
53.1414	133.0065	160.7694	198.149	205.0775	246.2015	311.1339	386.088	449.9642	506.9852	570.4901	608.2506	706.9346	767.5696	796.5281	839.1418	879.3162	894.4431	930.0115	958.6491	986.5292	1018.6002	1059.8692	1084.5275	1112.2672	1115.1747	1132.6397	1148.9582	1166.9128	1206.4442	1224.3823	1241.7027	1269.5571	1304.6132	1318.3874	1336.4425	1365.0037	1405.5639	1416.3304	1482.0301	1492.4183	1495.2469	1495.917	1499.4329	1873.1938	2999.2854	3031.1993	3038.8039	3043.7074	3058.4092	3095.2907	3095.8491	3104.688	3107.5688	3110.7172	3111.6129	3121.4403
CC1CC2C(C)C(=O)C12	C[C@H]1C[C@H]2[C@@H](C)C(=O)[C@@H]12	
InChI=1S/C8H12O/c1-4-3-6-5(2)8(9)7(4)6/h4-7H,3H2,1-2H3	InChI=1S/C8H12O/c1-4-3-6-5(2)8(9)7(4)6/h4-7H,3H2,1-2H3/t4-,5+,6-,7-/m0/s1
