20
gdb 61528	3.32201	0.95556	0.84302	4.0436	81.56	-0.2437	0.0495	0.2932	1422.7845	0.169084	-403.087089	-403.077459	-403.076514	-403.121582	36.625	
C	 0.5220026447	-0.7406291803	-1.2052914676	-0.464433
C	-0.0258666464	 0.0644432335	-0.0437878179	 0.320023
C	-1.2589789952	-0.557512392	 0.6025786192	-0.265486
C	-2.0018943143	 0.3261824842	 1.6329581737	-0.09396
O	-2.543616094	 1.4889398128	 1.0386404531	-0.435576
C	-3.0839398136	-0.4402959767	 2.2553306012	 0.347549
C	-3.9497455568	-1.0988867534	 2.7649198462	-0.438858
C	 0.9298032399	 0.8990783717	 0.7317460068	-0.274566
N	-0.0411810486	 1.5394041168	-0.1792174151	-0.35393
H	 1.4179758325	-0.2730929777	-1.6272149416	 0.11237
H	 0.7906838617	-1.7537080009	-0.8872490693	 0.13092
H	-0.2249397624	-0.8315234442	-2.0018852662	 0.13001
H	-1.9801064907	-0.8123480222	-0.1830955375	 0.117691
H	-0.9650329336	-1.4974745257	 1.0844267279	 0.111482
H	-1.294217688	 0.5964821388	 2.4375404189	 0.086335
H	-1.7965424395	 1.8893164927	 0.5567845164	 0.297004
H	-4.722916564	-1.6659043831	 3.221168301	 0.192821
H	 0.7708236903	 1.1046306011	 1.7857130877	 0.130107
H	 1.9747687724	 0.8820939012	 0.4340669419	 0.115087
H	 0.4086562057	 1.8317832432	-1.0422154787	 0.235408
53.6394	111.7732	131.9395	227.0051	233.255	267.8764	321.8341	363.4739	371.9197	406.3657	490.1827	526.1927	573.4889	620.8708	657.6869	663.5938	721.8138	810.1728	877.0883	912.57	944.8148	960.2645	988.468	991.3235	1047.1592	1067.6512	1104.6893	1126.4886	1143.1521	1239.9628	1262.513	1271.8262	1318.2723	1345.6059	1370.959	1393.9325	1418.1186	1467.6952	1486.4104	1490.6426	1501.3207	1520.8797	2242.4843	2931.9139	3026.1411	3034.2095	3076.3535	3095.2126	3099.8578	3115.4678	3199.2907	3505.9082	3507.2691	3580.1693
CC1(CC(O)C#C)CN1	C[C@@]1(C[C@@H](O)C#C)CN1	
InChI=1S/C7H11NO/c1-3-6(9)4-7(2)5-8-7/h1,6,8-9H,4-5H2,2H3	InChI=1S/C7H11NO/c1-3-6(9)4-7(2)5-8-7/h1,6,8-9H,4-5H2,2H3/t6-,7+/m0/s1
