16
gdb 80841	2.10464	1.84445	1.68809	3.1469	63.82	-0.2432	0.0011	0.2442	919.3611	0.125215	-475.030115	-475.022366	-475.021422	-475.062108	30.144	
N	 0.1559768636	 1.4603078219	-0.087172845	-0.629067
C	 0.0079114214	 0.0480141012	-0.1088174586	 0.13632
C	 0.2858277675	-0.8702888691	-1.3604243661	-0.27718
C	-0.382555431	-1.9206724222	-0.4611758321	 0.031649
O	 0.5582405939	-2.0297701295	 0.6620636276	-0.260258
C	 0.8434917101	-0.7095306565	 0.9099142702	 0.425395
O	 1.5615320215	-0.3129309084	 1.7787980758	-0.356182
C	-1.3326146045	-0.8072496401	 0.0439248224	 0.115685
O	-1.9958256599	-0.9256189208	 1.2573002468	-0.437635
H	-0.7204601545	 1.9445383299	-0.2363466994	 0.239383
H	 0.5503918709	 1.7580777558	 0.8000478735	 0.251097
H	-0.3113023546	-0.5914255895	-2.2305671108	 0.11792
H	 1.3264502614	-1.0453455258	-1.6353803938	 0.129953
H	-0.691956478	-2.9144686376	-0.7705670471	 0.10643
H	-2.0678710385	-0.5078355357	-0.7070355334	 0.104798
H	-1.4151804594	-1.3788278136	 1.88190663	 0.30169
116.5669	162.4712	225.7787	249.2639	284.4983	411.6631	441.9233	477.1345	525.3269	605.7152	629.5874	732.6863	754.0092	779.601	799.4733	845.2581	883.7411	915.1814	959.9925	973.9684	1031.3199	1084.0001	1098.6115	1130.8111	1179.7241	1211.9944	1222.4196	1299.4573	1322.428	1332.5731	1394.5246	1440.3175	1495.6398	1645.6057	1902.6184	3081.8037	3096.0859	3152.221	3174.2324	3509.7519	3602.9103	3780.0449
NC12CC(OC1=O)C2O	N[C@@]12C[C@@H](OC1=O)[C@H]2O	
InChI=1S/C5H7NO3/c6-5-1-2(3(5)7)9-4(5)8/h2-3,7H,1,6H2	InChI=1S/C5H7NO3/c6-5-1-2(3(5)7)9-4(5)8/h2-3,7H,1,6H2/t2-,3-,5-/m1/s1
