21
gdb 120384	3.31456	0.96848	0.82129	0.7008	81.12	-0.2448	0.0189	0.2638	1460.4263	0.18208	-424.221382	-424.211954	-424.21101	-424.256057	34.801	
C	-0.0563377417	 1.3965128501	-0.0073182499	-0.225227
O	 0.0332859044	-0.0072355117	-0.0023081334	-0.238002
C	 0.660655873	-0.5126045622	 1.1596903995	-0.0624
C	 0.7259110658	-2.03083877	 1.0306851736	-0.072435
C	 1.6143356056	-2.5466395083	-0.0821425666	-0.065465
C	 2.2708507528	-3.6483490008	 0.2839451387	-0.09346
C	 1.9271767644	-4.0519341149	 1.7013176348	-0.28198
C	 1.300210968	-2.7593804932	 2.2796686122	 0.099949
O	 2.273899077	-1.9740357048	 2.9603486097	-0.431552
H	 0.9372091693	 1.8711016224	 0.0352250334	 0.10222
H	-0.5486472687	 1.6915059391	-0.9374357044	 0.124746
H	-0.6486154218	 1.7715991805	 0.842593037	 0.103536
H	 1.6688507004	-0.0837551519	 1.2674450795	 0.079744
H	 0.0940461858	-0.2280705344	 2.0619259546	 0.090129
H	-0.3042879383	-2.3760766167	 0.8563390704	 0.090963
H	 1.6552918485	-2.0689882581	-1.0536577367	 0.104934
H	 2.9393308675	-4.2225457473	-0.3480445615	 0.092857
H	 1.210027736	-4.8848773758	 1.7090306647	 0.109403
H	 2.7853021008	-4.3670166713	 2.3049099916	 0.107227
H	 0.5305369581	-2.9600803484	 3.0290141725	 0.083938
H	 3.014684933	-1.8512731621	 2.3550513804	 0.280876
74.4042	95.6027	110.5155	138.8916	232.0791	267.7807	304.6652	336.4141	390.7509	422.5773	468.721	571.8133	728.6256	776.1787	797.1154	844.5242	866.4088	928.892	951.9266	977.5255	981.5846	1008.3449	1076.0788	1100.01	1104.8993	1140.2502	1163.0024	1175.3981	1186.1296	1217.2988	1238.7057	1250.1058	1257.7209	1304.3935	1318.8797	1333.1713	1384.9	1416.9369	1432.9727	1476.9905	1481.3597	1485.0439	1503.0051	1521.9528	1670.6916	2960.62	2972.6681	2988.9994	3005.8525	3011.1319	3011.3442	3067.6899	3086.1735	3111.011	3187.3656	3216.6444	3789.0583
COCC1C=CCC1O	COC[C@H]1C=CC[C@H]1O	
InChI=1S/C7H12O2/c1-9-5-6-3-2-4-7(6)8/h2-3,6-8H,4-5H2,1H3	InChI=1S/C7H12O2/c1-9-5-6-3-2-4-7(6)8/h2-3,6-8H,4-5H2,1H3/t6-,7-/m1/s1
