19
gdb 126663	4.53858	0.83844	0.75445	3.3373	77.75	-0.2115	0.0415	0.253	1535.58	0.160614	-419.22348	-419.214566	-419.213622	-419.258113	32.421	
C	 0.066501528	 0.4042128977	 0.7880995182	-0.385804
C	-0.0739512776	-0.4756858721	-0.4574037136	-0.185547
C	 0.8135848871	 0.0137382498	-1.5988503307	-0.067491
O	 0.6566687541	-0.7639132574	-2.791103129	-0.270961
C	 1.3156804691	-1.9333983729	-2.8418860834	 0.473238
C	 2.2149776804	-2.589412605	-2.0201503655	-0.357333
C	 2.5135370328	-3.7757554739	-2.7324140286	 0.000015
N	 1.8670086439	-3.8607506677	-3.8860954566	-0.232909
N	 1.1346072524	-2.716886047	-3.9307975412	-0.281529
H	 1.0938655198	 0.3992039123	 1.1685626947	 0.120091
H	-0.2028038929	 1.4446660383	 0.5750150473	 0.119461
H	-0.5855998545	 0.0509189348	 1.591493189	 0.124629
H	 0.1836333728	-1.5129747298	-0.2187610668	 0.119409
H	-1.1134372421	-0.4800375244	-0.8047457154	 0.11134
H	 0.5354364112	 1.0303723987	-1.8915465325	 0.116838
H	 1.8714649105	 0.0258016858	-1.3062607208	 0.114587
H	 2.5932673407	-2.2721793214	-1.0639167772	 0.101993
H	 3.1813090598	-4.5720412983	-2.4360099984	 0.107949
H	 0.5441959445	-2.5209655078	-4.7207397394	 0.272022
50.2267	73.828	102.4757	222.5855	244.5261	266.1124	297.7948	367.9172	469.7855	561.6372	670.7708	677.6716	696.0147	755.6762	764.6306	887.1086	894.6882	900.791	928.1697	1013.757	1041.6005	1059.745	1091.5161	1110.9848	1128.0358	1200.4536	1253.6303	1288.8554	1306.1411	1332.6067	1336.8677	1377.4906	1410.3535	1419.1041	1445.5509	1492.274	1500.1586	1500.8321	1514.8015	1535.6443	1618.6032	3025.5044	3033.1825	3045.4621	3073.1612	3091.3832	3107.9784	3112.6344	3238.9077	3280.4173	3681.2846
CCCOC1=CC=NN1	CCCOc1ccn[nH]1	
InChI=1S/C6H10N2O/c1-2-5-9-6-3-4-7-8-6/h3-4H,2,5H2,1H3,(H,7,8)	InChI=1S/C6H10N2O/c1-2-5-9-6-3-4-7-8-6/h3-4H,2,5H2,1H3,(H,7,8)
