20
gdb 40493	3.94434	1.2942	1.21669	1.5505	82.57	-0.2303	0.0909	0.3212	1107.7912	0.172834	-365.93217	-365.924837	-365.923892	-365.964068	29.849	
C	-0.3122110816	 1.2171325269	-0.3329359382	-0.266503
C	 1.082307288	 1.1800755324	 0.2336582337	-0.263603
C	 0.2870715911	-0.1000723883	 0.0933191161	-0.137618
C	-0.2044432835	-0.8060051711	 1.3001145665	 0.384113
C	 0.4480523285	-1.9917290677	 2.0199964127	-0.295076
C	-0.8651399944	-2.0804771178	 2.8412299282	-0.088743
C	-0.8527975025	-0.7456134477	 3.6013651545	-0.146619
N	-1.0156563951	-0.0164725926	 2.3005116281	-0.186703
C	-1.566195272	-1.2632292239	 1.6879006374	-0.107145
H	-1.0914569863	 1.6257802905	 0.2985845683	 0.13434
H	-0.4336148575	 1.3958205678	-1.3956003089	 0.103766
H	 1.9220414407	 1.3369896978	-0.4341948327	 0.106568
H	 1.2190021627	 1.5676472106	 1.2369195241	 0.119178
H	 0.5969671042	-0.7695179158	-0.7051197784	 0.080181
H	 0.5622900086	-2.8355247616	 1.3338307041	 0.10249
H	 1.3824287487	-1.8330791984	 2.5709481595	 0.09193
H	-1.1895882395	-3.0172110918	 3.290342484	 0.072777
H	-1.7483587544	-0.5722541376	 4.2037655481	 0.107061
H	 0.0420158738	-0.4850296327	 4.1799440499	 0.094242
H	-2.5134872393	-1.3180267387	 1.167146483	 0.095362
77.0243	153.0054	190.1752	349.455	403.1632	445.3466	490.2379	597.3101	717.0326	749.8284	799.212	804.9964	823.2854	855.3358	879.5919	926.6074	932.0503	946.1065	954.7276	982.3391	999.6198	1018.5914	1063.3204	1072.2217	1089.4581	1101.9405	1125.5968	1131.8076	1150.7753	1158.0555	1163.7927	1204.1655	1208.2362	1228.8765	1241.7336	1278.1517	1301.3753	1361.273	1453.3564	1459.5445	1493.9131	1503.7955	1516.3677	3026.3027	3035.8973	3097.08	3099.6603	3132.6299	3134.0168	3136.3575	3142.751	3198.8313	3221.0462	3237.8536
C1CC1C12CC3CN1C23	C1CC1[C@@]12C[C@H]3CN1[C@@H]23	
InChI=1S/C8H11N/c1-2-6(1)8-3-5-4-9(8)7(5)8/h5-7H,1-4H2	InChI=1S/C8H11N/c1-2-6(1)8-3-5-4-9(8)7(5)8/h5-7H,1-4H2/t5-,7+,8+,9?/m0/s1
