21
gdb 69984	2.89431	1.67442	1.56205	1.3558	79.87	-0.2455	0.0855	0.331	986.8165	0.185619	-387.086519	-387.079305	-387.07836	-387.117549	30.68	
C	 0.0454207875	 1.5081373845	-0.004888842	-0.494381
C	-0.0409842063	 0.0015526791	 0.0376696521	 0.376331
C	-0.8970316848	-0.7022279831	 1.0624445497	-0.355782
C	 0.607914812	-0.8401041319	 1.1208066345	-0.085442
C	 1.3244508967	-1.9319902703	 0.3028457092	 0.070908
C	 0.3386972715	-2.9720881306	-0.2781907766	-0.227114
C	-0.3467065666	-2.1268018708	-1.3985692201	-0.231907
C	 0.3880278952	-0.776766608	-1.2326904136	 0.005661
O	 1.71738303	-1.2162463454	-0.8881288761	-0.263971
H	 1.012373778	 1.8315149024	-0.4062650739	 0.126915
H	-0.741778157	 1.9406962583	-0.6341217334	 0.114611
H	-0.061218629	 1.9377575527	 0.9965180906	 0.112963
H	-1.3495683734	-0.0708458112	 1.8226265626	 0.10523
H	-1.5163360449	-1.5484379208	 0.7909040165	 0.111233
H	 1.1472183197	-0.3784810985	 1.941114991	 0.083965
H	 2.2080553974	-2.3470344175	 0.7869909523	 0.071885
H	 0.8934107015	-3.8120896045	-0.7011981514	 0.103383
H	-0.3582739846	-3.3671089528	 0.4642809734	 0.101666
H	-0.1353314011	-2.5390335073	-2.3874335315	 0.103297
H	-1.4310972219	-2.0487608128	-1.2920429517	 0.100971
H	 0.4302390202	-0.1579152014	-2.1294713618	 0.069576
179.5021	220.5042	275.0403	300.294	370.8316	394.5407	481.263	569.5694	600.1537	681.6523	744.562	786.3217	824.488	843.2117	875.024	898.22	900.1161	928.227	939.3211	968.0293	993.8386	1002.6382	1007.1501	1021.2249	1074.1021	1079.6527	1109.4643	1128.5796	1142.2237	1221.7695	1230.3816	1243.639	1252.6027	1279.3999	1316.0048	1318.1676	1331.8867	1340.9797	1396.5826	1417.1259	1485.8056	1489.1279	1492.8237	1500.3802	1511.3708	3021.0268	3066.4346	3074.929	3081.9601	3096.8859	3104.8434	3116.3551	3121.8608	3124.9201	3126.0736	3165.0166	3209.332
CC12CC1C1CCC2O1	C[C@]12C[C@H]1[C@H]1CC[C@@H]2O1	
InChI=1S/C8H12O/c1-8-4-5(8)6-2-3-7(8)9-6/h5-7H,2-4H2,1H3	InChI=1S/C8H12O/c1-8-4-5(8)6-2-3-7(8)9-6/h5-7H,2-4H2,1H3/t5-,6+,7-,8-/m0/s1
