14
gdb 24479	4.01008	1.67961	1.18379	1.979	80.83	-0.2012	-0.0534	0.1479	953.4974	0.104522	-399.596002	-399.589997	-399.589052	-399.626224	24.437	
O	-0.0313668974	 1.3397335292	 0.0096953787	-0.178885
C	 1.1416226244	 2.045230509	 0.0022322448	 0.083373
N	 2.3228468503	 1.5570072074	-0.0118649443	-0.318144
C	 2.4231182297	 0.1895721749	-0.0203302482	 0.300841
C	 3.5106935	-0.6401481589	-0.0354043229	-0.279727
C	 3.0122730558	-1.9945644863	-0.0379991213	-0.072889
C	 1.6361462184	-2.0191230433	-0.024823646	-0.277072
C	 1.2070017056	-0.6538482458	-0.0132017061	 0.190454
C	 0.0216528018	-0.0126964759	 0.0017662658	-0.041758
H	 0.9412285139	 3.1091261423	 0.0099918009	 0.142937
H	 4.5487700643	-0.3423647644	-0.043815391	 0.10151
H	 3.6470963881	-2.872043695	-0.0489462985	 0.101339
H	 0.9986367216	-2.8908069275	-0.0234323575	 0.097916
H	-0.9675846065	-0.4542088157	 0.0089097155	 0.150106
189.0863	249.4854	397.5455	424.6534	550.1271	560.5845	600.098	612.9524	724.409	754.9631	776.7182	832.6251	848.7632	876.2222	880.9131	907.0783	931.8543	1015.0008	1025.9726	1096.3678	1141.8964	1207.1176	1273.2336	1316.039	1366.8134	1407.1535	1415.1376	1465.6546	1600.7173	1610.1081	1684.4075	3209.7763	3211.7887	3226.2586	3241.3585	3246.8137
O1C=NC2=CC=CC2=C1	o1cnc2cccc2c1	
InChI=1S/C7H5NO/c1-2-6-4-9-5-8-7(6)3-1/h1-5H	InChI=1S/C7H5NO/c1-2-6-4-9-5-8-7(6)3-1/h1-5H
