16
gdb 8470	2.99997	2.08381	1.57492	2.9552	67.63	-0.2173	0.0157	0.233	858.1128	0.12966	-379.882661	-379.874788	-379.873844	-379.91443	29.916	
C	-0.0677771957	 1.4668427464	 0.1088158953	-0.505385
C	 0.0584074645	-0.0172785696	 0.0250866526	 0.261274
C	 1.2307714415	-0.8196134818	-0.4575312297	-0.348067
C	 0.7021596021	-1.1030489327	 0.9266414523	 0.298814
O	 1.5334619454	-1.1013578368	 2.0174070447	-0.447845
C	-0.638603353	-1.7614464725	 0.8868796159	 0.293005
N	-1.1415095617	-2.6080449758	 1.6766286372	-0.551593
N	-1.1406892434	-0.9097468184	-0.1542539426	-0.393614
H	 0.8910080831	 1.9131918318	 0.3872534375	 0.14032
H	-0.3711723391	 1.8966717694	-0.8534972268	 0.134361
H	-0.8095660148	 1.762687837	 0.8600683409	 0.121839
H	 1.1181983324	-1.5326351804	-1.2702296882	 0.120834
H	 2.182995824	-0.2966639451	-0.4223156542	 0.127094
H	 0.9842652158	-1.2877955079	 2.789634418	 0.299672
H	-2.1338931545	-2.7622397766	 1.4886638901	 0.218703
H	-2.0327680565	-0.4781033369	 0.0701087272	 0.230587
122.9282	155.5032	203.9584	208.1299	330.5212	359.9693	408.9462	470.9129	486.7269	544.1887	636.1612	689.5698	719.7716	779.6693	835.0078	885.0975	911.5956	966.0727	992.0795	1030.7398	1087.6695	1091.3403	1112.2792	1202.6824	1224.2191	1289.2462	1360.644	1395.9991	1416.8607	1432.5829	1479.4333	1494.5974	1517.6115	1793.3472	3021.2451	3077.3049	3106.7227	3111.6415	3201.6165	3460.3793	3520.1322	3779.182
CC12CC1(O)C(=N)N2	C[C@@]12C[C@]1(O)[C]([NH])N2	
InChI=1S/C5H8N2O/c1-4-2-5(4,8)3(6)7-4/h8H,2H2,1H3,(H2,6,7)	InChI=1S/C5H8N2O/c1-4-2-5(4,8)3(6)7-4/h8H,2H2,1H3,(H2,6,7)/t4-,5+/m1/s1
