16
gdb 43018	2.46993	2.08003	1.2929	4.4785	68.24	-0.247	-0.0138	0.2332	949.425	0.125831	-437.862819	-437.855833	-437.854888	-437.894469	27.148	
O	-0.1006190782	 0.0779059022	 0.5764505393	-0.331749
C	-0.0630409647	 1.2164522854	 0.1784814989	 0.361724
C	-1.3008527723	 2.0232548381	-0.1835627721	-0.062304
O	-2.0309913016	 2.4782932867	 0.9604785288	-0.238955
C	-1.3017401991	 3.4456955438	 0.1960699836	 0.046774
C	-0.0418668909	 3.9954147434	 0.8685887961	-0.280507
C	 1.2042594799	 3.3504124122	 0.2720569946	-0.020819
C	 2.0325212395	 2.3414663619	 1.0196669925	-0.248666
N	 1.1153580983	 1.9324572242	-0.028597302	-0.083856
H	-1.9082518888	 1.646298944	-1.0041352232	 0.120584
H	-1.9294120112	 4.1438857076	-0.3546213985	 0.103855
H	 0.0114582334	 5.0818808559	 0.7634882349	 0.118105
H	-0.1172726345	 3.7735291952	 1.9378748107	 0.135208
H	 1.707359012	 3.9277402008	-0.5017606697	 0.106403
H	 3.0907171696	 2.2345809159	 0.7984355308	 0.132669
H	 1.7466283888	 2.1032563728	 2.0411945654	 0.141533
72.7583	194.3084	247.7512	356.9348	410.1851	426.0072	481.5119	540.5626	640.22	719.826	772.4173	817.5875	842.7037	889.2097	926.9973	954.314	982.3969	999.9406	1072.1259	1092.8451	1104.2276	1129.3691	1137.2194	1170.652	1193.4368	1237.8178	1264.8677	1320.9855	1347.8412	1380.069	1412.3005	1437.6561	1472.6606	1510.3621	1813.9927	3056.9834	3102.3161	3110.6298	3121.7509	3128.1148	3138.2965	3201.3936
O=C1C2OC2CC2CN12	O=C1[C@H]2O[C@H]2C[C@H]2CN12	
InChI=1S/C6H7NO2/c8-6-5-4(9-5)1-3-2-7(3)6/h3-5H,1-2H2	InChI=1S/C6H7NO2/c8-6-5-4(9-5)1-3-2-7(3)6/h3-5H,1-2H2/t3-,4-,5-,7?/m0/s1
