18
gdb 75298	2.27471	1.89258	1.15621	2.3037	78.29	-0.2273	-0.0257	0.2017	1069.9044	0.14774	-401.955557	-401.947598	-401.946654	-401.988197	30.292	
C	 0.3356071883	 1.379178894	-0.032350487	-0.496742
C	 0.0325575705	-0.084059051	-0.0580378192	 0.31871
C	-0.2087410536	-0.880884102	-1.1022217403	-0.181708
C	-0.4966399917	-2.3011022547	-0.6786809406	-0.223285
N	-0.261572186	-2.3170336482	 0.7786837029	-0.099925
C	 1.111459396	-2.7148082051	 1.1964891966	-0.300504
C	 1.3132986354	-1.3163771002	 1.7992581127	 0.397693
O	 2.1655505325	-0.7728570815	 2.434315108	-0.28949
C	-0.0505769295	-0.8969531966	 1.2135675802	-0.210822
H	 1.2937715774	 1.5699684632	 0.465542472	 0.147816
H	 0.379113456	 1.7991476617	-1.0403149859	 0.127454
H	-0.4255789821	 1.9288530447	 0.53546671	 0.131822
H	-0.2376552436	-0.5572064668	-2.1369895875	 0.097549
H	-1.5300709902	-2.592326682	-0.9158811213	 0.112911
H	 0.151434328	-3.0388043319	-1.1723361988	 0.107763
H	 1.1447435241	-3.5451226563	 1.9101501925	 0.134055
H	 1.8030840129	-2.9334987263	 0.3700677172	 0.124617
H	-0.7710828146	-0.4993645807	 1.9407041085	 0.102083
88.7365	121.904	169.2444	232.805	296.72	363.635	449.1412	457.4732	545.3743	585.1808	678.3747	707.1088	778.018	818.4496	878.0111	936.9172	962.7254	976.5537	1000.0451	1031.4559	1047.9233	1070.5708	1088.7896	1101.6096	1168.4843	1193.9154	1214.9813	1227.3798	1251.7758	1271.5026	1310.0477	1338.7438	1414.4765	1461.1108	1476.6751	1489.3123	1506.4718	1712.4155	1904.5551	2996.1031	3005.877	3018.8666	3022.094	3024.3896	3069.0206	3073.6204	3117.8801	3193.8659
CC1=CCN2CC(=O)C12	CC1=CCN2CC(=O)[C@@H]12	
InChI=1S/C7H9NO/c1-5-2-3-8-4-6(9)7(5)8/h2,7H,3-4H2,1H3	InChI=1S/C7H9NO/c1-5-2-3-8-4-6(9)7(5)8/h2,7H,3-4H2,1H3/t7-/m1/s1
