22
gdb 122697	5.69088	0.56407	0.54675	2.0707	87.77	-0.246	0.0317	0.2777	2121.0338	0.193488	-404.352048	-404.341931	-404.340987	-404.389037	35.629	
C	 0.0907323234	 1.6077250917	-0.1332472915	-0.378709
C	 0.0294632986	 0.0843214121	 0.0080010119	-0.162075
C	 0.6838515498	-0.4243891745	 1.2959233106	-0.147297
C	 0.6173718279	-1.9482613657	 1.4378758305	-0.179435
N	 1.333204889	-2.3815639044	 2.6346816338	-0.326567
C	 0.7621696874	-3.122377271	 3.4617368689	 0.46043
C	 1.1459611902	-3.7514584399	 4.7853561721	-0.373227
C	-0.2850491051	-4.3241210851	 4.7376760472	-0.076211
O	-0.5185140207	-3.6671602198	 3.456752281	-0.26279
H	 1.1272618299	 1.9628179356	-0.1391666175	 0.113747
H	-0.3818056077	 1.9434755908	-1.0617925211	 0.108818
H	-0.4216439424	 2.1028869061	 0.6991847017	 0.112768
H	-1.0179892405	-0.2441389685	-0.0239627246	 0.094237
H	 0.5189554578	-0.3833481142	-0.8568818036	 0.093336
H	 1.7354545039	-0.1144711098	 1.3330414201	 0.101957
H	 0.1973072775	 0.0357786413	 2.1659800696	 0.092409
H	-0.4292398978	-2.2821805151	 1.4287830555	 0.107166
H	 1.1104134767	-2.4083163781	 0.570675598	 0.103144
H	 1.9553873191	-4.4810437371	 4.7270091682	 0.137803
H	 1.3541254231	-3.0414313231	 5.5873995422	 0.137468
H	-0.3705511948	-5.409390207	 4.641744645	 0.121627
H	-0.9786954852	-3.9571891444	 5.4984137319	 0.121402
22.225	74.1033	94.3991	113.9421	146.3687	215.2103	233.159	253.6418	332.0141	419.2422	534.327	576.9561	739.3047	752.2136	790.1494	809.3242	901.4888	911.7686	947.9547	963.6837	991.8825	1017.7585	1056.1185	1064.0541	1075.4141	1114.5539	1135.2964	1159.4075	1186.8099	1200.5807	1239.4597	1253.4135	1287.4579	1319.5819	1324.5929	1349.8158	1379.2826	1400.9782	1413.0071	1468.0893	1485.6758	1490.7085	1499.7523	1503.3109	1514.4951	1522.327	1845.8257	2999.6231	3010.322	3022.4283	3028.7497	3033.4697	3037.5715	3060.5676	3070.3519	3087.1512	3095.487	3099.4023	3112.9257	3142.4339
CCCCN=C1CCO1	CCCCN=C1CCO1	
InChI=1S/C7H13NO/c1-2-3-5-8-7-4-6-9-7/h2-6H2,1H3	InChI=1S/C7H13NO/c1-2-3-5-8-7-4-6-9-7/h2-6H2,1H3
