18
gdb 84942	2.28054	1.70117	1.22404	3.956	73.61	-0.2446	-0.0126	0.2319	1062.4988	0.149157	-439.099071	-439.090544	-439.0896	-439.132816	31.672	
N	 0.1988282275	 1.3351915518	 0.1996369626	-0.517047
C	-0.047588051	-0.1144243603	 0.0248834241	-0.143714
C	-1.5297846086	-0.4008676621	 0.1268124495	-0.079223
C	-2.438481356	 0.0702294883	-0.722484919	-0.059698
C	-2.0654654469	 0.8494320104	-1.9584212105	-0.267912
C	-1.1831474261	 0.0292429789	-2.8950421606	-0.049368
O	 0.1797460108	-0.1962955545	-2.4988056552	-0.229559
C	 0.6689689357	-0.5128751204	-1.2823163157	 0.411632
O	 1.7642823501	-1.009476257	-1.2241619612	-0.320535
H	-0.2475483996	 1.6415440781	 1.0590431801	 0.232313
H	 1.1976490325	 1.4902134829	 0.3120983587	 0.241934
H	 0.4734961829	-0.7217107817	 0.7754708426	 0.093109
H	-1.8407776754	-0.9923479016	 0.9830805898	 0.099313
H	-3.4905487397	-0.1428435129	-0.5518797626	 0.098419
H	-2.9623019537	 1.1239782511	-2.5235104086	 0.104878
H	-1.5439289326	 1.7729307749	-1.6879819367	 0.149135
H	-1.642219289	-0.949813367	-3.0809619546	 0.114543
H	-1.082162491	 0.5418226512	-3.8558600826	 0.121779
40.8583	96.7389	201.7177	224.2286	275.4141	316.0431	321.9598	398.6443	456.6072	580.1911	588.0513	676.3646	745.4398	751.5664	801.635	860.081	909.665	942.0907	976.0634	994.2739	1031.0597	1058.0717	1086.5523	1102.1871	1185.0827	1224.9638	1252.9386	1281.4249	1315.4929	1345.4844	1367.3927	1394.1321	1415.8201	1441.3854	1465.5784	1505.0888	1640.1063	1730.1262	1813.2441	3016.7433	3027.9241	3048.7924	3089.9682	3098.1627	3153.7628	3177.8233	3479.3433	3565.9397
NC1C=CCCOC1=O	N[C@H]1C=CCCOC1=O	
InChI=1S/C6H9NO2/c7-5-3-1-2-4-9-6(5)8/h1,3,5H,2,4,7H2	InChI=1S/C6H9NO2/c7-5-3-1-2-4-9-6(5)8/h1,3,5H,2,4,7H2/t5-/m0/s1
