21
gdb 72263	2.71631	1.81602	1.60366	1.4785	80.97	-0.2354	0.0858	0.3213	963.4706	0.184956	-387.068752	-387.061543	-387.060599	-387.0997	30.629	
C	 0.0219235504	 1.5408951462	 0.0002772461	-0.505871
C	-0.0132478301	 0.0316972034	-0.0475389057	 0.360707
C	 0.4032921455	-0.741096201	-1.3162892859	-0.308249
C	-0.490488309	-1.8968548566	-0.7938066077	 0.105859
O	 0.2384441777	-2.7833080092	 0.0428527918	-0.269488
C	 1.0704902838	-2.0551893655	 0.9487821694	-0.089771
C	 0.3944726198	-0.7294068393	 1.2898253988	-0.097174
C	-1.1098955861	-1.0210049205	 1.5607103959	-0.23551
C	-1.3124179914	-0.8411405809	 0.0517832331	-0.079367
H	 1.0547916374	 1.9109038483	 0.0068356943	 0.115405
H	-0.4807484697	 1.9762318359	-0.8708637053	 0.112399
H	-0.4700505651	 1.9290556362	 0.89944954	 0.115087
H	-0.035799753	-0.2713208848	-2.2030208268	 0.094115
H	 1.4563042144	-0.9619859978	-1.5179006485	 0.095056
H	-1.0305805541	-2.517752124	-1.5098111775	 0.076376
H	 1.1919758082	-2.6829432257	 1.8384961283	 0.103835
H	 2.0677095119	-1.89212432	 0.5132066934	 0.090798
H	 0.9633932003	-0.1603889393	 2.0295554108	 0.062512
H	-1.3557057967	-1.9882469808	 2.0083420937	 0.10075
H	-1.5978199946	-0.223318555	 2.1272967264	 0.096043
H	-2.2726636197	-0.5405870498	-0.3731474345	 0.056488
216.0513	216.6794	269.9357	307.5422	385.5293	393.3815	448.6949	506.4296	589.7816	651.6125	690.2298	801.5195	815.0619	850.7322	862.8964	874.6889	929.1789	936.7525	968.5374	981.7151	1015.3055	1027.7586	1050.2565	1055.954	1106.5436	1127.0363	1164.2097	1179.4365	1192.3297	1207.4236	1227.6702	1247.9174	1263.3483	1267.6839	1288.1374	1318.0457	1338.5834	1354.019	1400.8505	1410.8535	1480.1878	1483.4938	1490.5431	1492.4276	1519.0509	2989.0282	3016.2221	3039.9351	3051.0514	3059.6559	3076.4921	3078.0269	3082.7807	3087.1826	3090.5628	3103.7623	3105.7582
CC12CC3OCC1CC23	C[C@@]12C[C@H]3OC[C@@H]1C[C@@H]23	
InChI=1S/C8H12O/c1-8-3-7-6(8)2-5(8)4-9-7/h5-7H,2-4H2,1H3	InChI=1S/C8H12O/c1-8-3-7-6(8)2-5(8)4-9-7/h5-7H,2-4H2,1H3/t5-,6+,7+,8+/m0/s1
