15
gdb 67324	3.29629	1.43735	1.21694	2.2001	70.89	-0.2341	0.035	0.2692	1012.2437	0.110357	-420.489278	-420.48171	-420.480766	-420.521182	29.689	
O	 0.1639588727	 1.3243982305	 0.0435280644	-0.454845
C	 0.0798370355	-0.0373138053	-0.0235017583	 0.374283
C	 0.335352895	-1.0129334672	 1.1609279504	 0.015503
O	-1.0397417218	-1.0049411054	 1.633833456	-0.321411
C	-1.165224912	-0.9889094055	 0.1824550014	 0.00338
C	 0.0362707454	-1.949883137	-0.0519611318	-0.088533
C	 0.738485752	-1.0022447663	-1.0607543982	-0.29102
C	 0.2478015777	-0.9439908322	-2.4218922348	 0.28071
C	-0.1813758052	-0.8574611375	-3.5428867042	-0.436786
H	-0.1697467992	 1.693310392	-0.7831080366	 0.298139
H	 1.1490037571	-1.0404080278	 1.8842037362	 0.105324
H	-2.1571502605	-0.9810089503	-0.2648900784	 0.10718
H	 0.0081849862	-3.0355838604	-0.0457396224	 0.103068
H	 1.8325013469	-1.0263198865	-1.0249101552	 0.106429
H	-0.5506631498	-0.801526361	-4.5370232985	 0.198578
116.314	122.5188	251.3533	316.059	334.2958	391.4845	435.1611	524.4255	603.5757	625.5358	644.6059	690.4332	757.1799	818.7102	839.1831	854.8977	901.5	916.1429	937.9027	965.5851	1026.5538	1044.3002	1087.7363	1116.6207	1135.0878	1167.3774	1192.9567	1228.7363	1282.2862	1292.1723	1363.0252	1424.0705	2228.5135	3057.0494	3135.3415	3144.4522	3173.0166	3502.6226	3792.255
OC12C3OC1C3C2C#C	O[C@@]12[C@H]3O[C@@H]1[C@H]3[C@H]2C#C	
InChI=1S/C7H6O2/c1-2-3-4-5-7(3,8)6(4)9-5/h1,3-6,8H	InChI=1S/C7H6O2/c1-2-3-4-5-7(3,8)6(4)9-5/h1,3-6,8H/t3-,4-,5-,6+,7-/m1/s1
