22
gdb 76409	2.5907	1.12343	1.10172	0.7493	82.01	-0.2364	0.0605	0.2969	1280.3094	0.192732	-404.302786	-404.292574	-404.29163	-404.337829	37.876	
C	-0.1278572217	 1.1627432152	-0.6111733776	-0.413055
C	 0.1546349345	-0.1946433575	-0.0034849392	-0.065475
C	 1.5583087119	-0.6503594892	 0.2910128512	 0.028769
O	 2.5795266022	 0.2703996165	 0.0265215065	-0.419733
C	 0.5974245388	-0.3932178032	 1.4441447621	 0.229448
C	 0.8452802916	 0.8184276955	 2.3284918006	-0.470007
C	-0.0018423286	-1.5457844094	 2.2015426441	-0.028998
C	 0.1734775954	-2.972335511	 1.8399892418	-0.25998
N	 0.8313609276	-2.4300366087	 3.045722357	-0.326777
H	 0.6480527855	 1.888336677	-0.3638886013	 0.135421
H	-0.167062122	 1.0874337699	-1.7030583917	 0.119268
H	-1.0920339044	 1.5556302932	-0.271074719	 0.114055
H	-0.4957660045	-0.9849463857	-0.3706389572	 0.084939
H	 1.8202926737	-1.6783226093	 0.0420710157	 0.079198
H	 3.2696027661	 0.1556844343	 0.6879649139	 0.287927
H	 1.3930562545	 1.6020644259	 1.8037456723	 0.128801
H	-0.1003860617	 1.2418155127	 2.6849434848	 0.120084
H	 1.4260840823	 0.5335815141	 3.2134854145	 0.117152
H	-0.9392665177	-1.2845712239	 2.6931791065	 0.088367
H	-0.6294749249	-3.677342034	 2.0372006439	 0.117143
H	 0.7899190479	-3.2321226368	 0.9845632354	 0.112541
H	 1.8107672836	-2.2546005056	 2.8261926557	 0.220913
55.4925	131.5608	141.1054	157.4172	202.6101	221.9289	231.2068	291.1532	298.1004	334.1595	443.1727	489.1769	535.4056	583.2638	675.2264	797.6247	832.0702	844.9399	878.0203	953.0039	961.8236	967.1375	990.4852	1032.5928	1055.6753	1096.0476	1104.3149	1138.1895	1156.0357	1165.9159	1182.8914	1200.4806	1240.6022	1275.0325	1289.957	1302.1094	1318.3093	1367.09	1405.0241	1418.2276	1422.9838	1462.6928	1487.4199	1494.2131	1503.5665	1512.9712	1516.9553	3030.3857	3037.7497	3083.1742	3091.508	3093.4573	3098.349	3112.8295	3127.6145	3136.7526	3146.5759	3193.1083	3474.5702	3807.9505
CC1C(O)C1(C)C1CN1	C[C@H]1[C@@H](O)[C@]1(C)[C@H]1CN1	
InChI=1S/C7H13NO/c1-4-6(9)7(4,2)5-3-8-5/h4-6,8-9H,3H2,1-2H3	InChI=1S/C7H13NO/c1-4-6(9)7(4,2)5-3-8-5/h4-6,8-9H,3H2,1-2H3/t4-,5+,6+,7-/m0/s1
