19
gdb 67211	2.64814	1.71239	1.31033	0.9064	74.32	-0.2272	0.0675	0.2947	1026.1763	0.157553	-422.955843	-422.947528	-422.946584	-422.987932	33.331	
C	 0.053424995	 1.5421316644	-0.0316850553	-0.458535
C	 0.0248699033	 0.0178333327	-0.0047698658	 0.331925
C	-1.3845368125	-0.530057055	 0.2234196971	-0.449328
C	 0.7617785953	-0.7371030224	-1.1225364997	-0.190784
C	 2.2494452961	-0.7995581117	-0.6481061281	-0.036653
O	 2.3380625742	-0.1007234944	 0.5904756088	-0.280736
C	 1.0566667238	-0.6823543715	 0.942591384	-0.062285
C	 1.2532503573	-1.8066986533	-0.1812734372	 0.324306
O	 1.0998524284	-3.1626610342	-0.2535537531	-0.454253
H	 1.0780868693	 1.9093910832	-0.1126497065	 0.13157
H	-0.5222527865	 1.924324247	-0.8825857623	 0.108076
H	-0.3911680333	 1.9591487769	 0.8796558521	 0.1074
H	-2.0576990263	-0.2308226827	-0.5872067761	 0.115341
H	-1.3893625257	-1.6235766824	 0.274636429	 0.128223
H	-1.8029780862	-0.1415885959	 1.1593536372	 0.110381
H	 0.4978719044	-0.8379903963	-2.1686282576	 0.08904
H	 3.1056293427	-0.8315652159	-1.3086168732	 0.112289
H	 0.8980877917	-0.7782025642	 2.0162358515	 0.078894
H	 1.8170291188	-3.5798082344	 0.2388370351	 0.295127
160.3281	196.3339	206.8211	252.6194	315.198	320.1659	352.8314	368.9299	403.7433	522.5611	593.7731	606.1794	649.011	762.9906	798.5831	863.782	890.686	905.4666	932.777	953.9765	966.4785	985.5295	1020.547	1044.2656	1047.2498	1096.9814	1129.5818	1166.853	1199.0086	1218.1286	1237.8046	1270.2748	1315.2173	1335.5559	1396.7455	1420.6274	1484.2663	1486.7333	1491.2978	1505.4902	1509.1181	3023.6073	3028.6804	3083.1622	3089.1942	3103.0224	3129.0989	3133.0209	3190.6154	3213.5381	3779.185
CC1(C)C2C3OC1C23O	CC1(C)[C@H]2[C@H]3O[C@@H]1[C@@]23O	
InChI=1S/C7H10O2/c1-6(2)3-4-7(3,8)5(6)9-4/h3-5,8H,1-2H3	InChI=1S/C7H10O2/c1-6(2)3-4-7(3,8)5(6)9-4/h3-5,8H,1-2H3/t3-,4-,5+,7-/m1/s1
