16
gdb 78964	2.51709	2.16859	1.59498	0.7673	65.67	-0.2339	0.0641	0.298	860.4452	0.124601	-437.784436	-437.777438	-437.776494	-437.815457	28.351	
O	 0.0730746973	 1.4623398595	-0.0136238411	-0.449264
C	 0.0066628169	 0.0628469246	-0.0178925565	 0.088545
C	 0.2319697942	-0.7342391657	 1.2739817358	-0.063704
C	-0.7365054445	-1.8550429244	 0.7902323132	-0.130866
C	-1.6532073336	-1.5188445692	 1.9970380181	-0.043841
C	-2.0350995197	-0.2629721059	 1.3179101772	-0.148098
N	-0.8527754824	-0.2803856151	 2.2550160828	-0.17264
C	-1.3685168423	-0.6604022709	-0.0268994991	 0.345453
O	-2.1350125631	-0.8772431879	-1.1572792746	-0.481593
H	-0.2820609713	 1.7602851535	 0.8325711586	 0.296849
H	 0.6361985342	-0.3084625968	-0.8335862286	 0.099396
H	 1.2027536429	-0.8742821006	 1.7439422962	 0.083756
H	-0.4673493323	-2.8131060395	 0.3575578806	 0.086441
H	-2.1197666615	-2.0984126313	 2.7839484215	 0.102489
H	-2.8361409322	 0.4380361374	 1.5196474282	 0.097263
H	-2.3748666425	-0.0187338776	-1.5260024322	 0.289813
167.9404	187.8334	265.2438	327.9032	342.9551	386.6254	575.0064	583.5312	650.21	748.145	769.2352	794.4648	802.8006	838.2209	874.0632	897.3786	911.8724	942.3738	981.7766	1006.4271	1037.9219	1068.6167	1082.5706	1119.0176	1144.4475	1183.0635	1208.7619	1220.0339	1235.4561	1253.0927	1271.3996	1318.8382	1329.2078	1393.507	1432.5898	3070.8285	3142.5812	3171.6585	3181.328	3195.6849	3788.909	3789.9227
OC1C2C3C4C(N24)C13O	O[C@H]1[C@@H]2[C@H]3[C@@H]4[C@@H](N24)[C@@]13O	
InChI=1S/C6H7NO2/c8-5-3-1-2-4(7(2)3)6(1,5)9/h1-5,8-9H	InChI=1S/C6H7NO2/c8-5-3-1-2-4(7(2)3)6(1,5)9/h1-5,8-9H/t1-,2-,3+,4-,5+,6-,7?/m1/s1
