12
gdb 129329	3.14615	1.28299	1.0329	3.1145	61.89	-0.2693	-0.0631	0.2061	1085.2973	0.077314	-464.938468	-464.930807	-464.929862	-464.972157	26.529	
N	-0.0987136392	 1.3286643585	 0.138704023	-0.59014
C	 0.0115082177	 0.0766477556	 0.0486213137	 0.531959
O	 1.1119392163	-0.7290166184	-0.0044946868	-0.238424
N	 0.6585908333	-2.0863045919	-0.1000615559	 0.019176
N	-0.5855940135	-2.0851309775	-0.1028922899	-0.025949
N	-1.0471350408	-0.8235621592	-0.0058519215	-0.063422
C	-2.4514170519	-0.4876489978	-0.0276817584	-0.285738
C	-3.033080371	-0.5205576558	-1.3767676821	 0.28003
N	-3.5028691141	-0.5520483613	-2.4305077155	-0.279963
H	 0.8026736485	 1.7950817294	 0.1763807396	 0.251747
H	-2.9998017493	-1.1726317563	 0.6245344259	 0.189246
H	-2.5267240761	 0.5258466646	 0.3784507378	 0.211479
33.3852	72.8251	210.934	250.0094	256.986	361.3976	443.651	524.8596	648.9797	709.0367	729.1314	740.0332	759.3872	806.4501	930.7888	948.3584	1007.5136	1042.8801	1183.8986	1221.7414	1347.7754	1391.6805	1409.5237	1446.5841	1539.8539	1796.5076	2373.9204	3069.8442	3121.1157	3557.9812
N=C1ON=NN1CC#N	[NH][C@H]1ON=NN1CC#N	
InChI=1S/C3H3N5O/c4-1-2-8-3(5)9-7-6-8/h5H,2H2	InChI=1S/C3H4N5O/c4-1-2-8-3(5)9-7-6-8/h3,5H,2H2/t3-/m1/s1
