21
gdb 63032	3.34351	1.22029	1.15967	2.3437	83.41	-0.2183	0.072	0.2904	1184.0273	0.182191	-383.199186	-383.190426	-383.189482	-383.231961	34.556	
C	-0.0221224739	 1.4353593932	-0.0526577371	-0.444237
C	-0.0387034252	-0.0827763459	-0.0400070259	 0.331201
C	-1.2982770037	-0.6657308786	 0.5702541452	-0.470459
C	 0.7145530671	-0.7395706109	-1.1391988088	-0.178302
N	 1.3181140517	-0.6094140268	 0.2597406245	-0.173912
C	 1.2421189748	-2.1130193684	 0.389690464	-0.243441
C	 0.7038837791	-2.2469792287	-1.0345532108	 0.352342
C	-0.1683024952	-3.2330148615	-1.71157718	-0.312277
N	 1.2799095246	-3.1691951981	-2.0045245158	-0.372371
H	 0.9271220587	 1.8089677422	-0.4440089778	 0.127636
H	-0.8377324626	 1.8294618181	-0.6687080323	 0.111432
H	-0.1436098084	 1.826450003	 0.963233881	 0.120669
H	-2.1771952385	-0.2170267436	 0.0954668661	 0.120055
H	-1.3793676591	-1.7465187082	 0.4514829093	 0.129938
H	-1.3471021099	-0.4306341294	 1.6397787195	 0.122908
H	 1.1117791499	-0.1848196763	-1.9871482447	 0.086829
H	 2.2504827226	-2.5201023871	 0.4886757488	 0.124496
H	 0.6221053848	-2.4690663494	 1.2175870627	 0.103537
H	-0.4847136606	-4.1338627543	-1.1919877969	 0.120337
H	-0.8731401677	-2.8673946601	-2.4547949744	 0.112007
H	 1.4381674017	-2.6960491291	-2.8919430466	 0.23161
117.3356	172.1778	189.3003	211.8176	250.7501	322.483	340.4506	371.335	406.4167	461.0208	506.018	588.7902	655.669	788.2682	812.1242	853.1321	881.4295	910.7884	950.7332	961.3662	966.5362	992.0137	1016.9104	1028.8342	1049.4264	1065.938	1085.6075	1125.091	1144.2134	1156.3356	1228.3388	1259.4293	1275.6479	1284.1702	1309.4997	1386.4059	1409.1824	1420.8807	1434.2926	1478.9357	1485.1334	1494.0199	1506.9686	1511.3229	1514.774	3031.9226	3037.3087	3057.0706	3091.4623	3097.5548	3099.9708	3116.7701	3122.2753	3126.6884	3140.0102	3184.4275	3485.6693
CC1(C)C2N1CC21CN1	CC1(C)[C@H]2N1C[C@]12CN1	
InChI=1S/C7H12N2/c1-6(2)5-7(3-8-7)4-9(5)6/h5,8H,3-4H2,1-2H3	InChI=1S/C7H12N2/c1-6(2)5-7(3-8-7)4-9(5)6/h5,8H,3-4H2,1-2H3/t5-,7+,9?/m1/s1
