25
gdb 118066	2.6896	0.79375	0.69911	2.2333	86.39	-0.2513	0.0772	0.3285	1793.4214	0.225906	-426.628496	-426.616678	-426.615734	-426.666098	42.142	
C	 0.1155746067	 1.5678573602	-0.0570097823	-0.381483
C	 0.0494219191	 0.0466543827	 0.0997663036	-0.16411
C	-1.360126236	-0.5159186023	-0.104871305	-0.184922
C	-1.4420145499	-2.0342381188	 0.1019527333	 0.123104
O	-0.9754918778	-2.4189921201	 1.3903660013	-0.442064
C	-2.8671679043	-2.5779765955	-0.1136850262	 0.115163
C	-2.8967629117	-4.1055006382	-0.1698724072	-0.409441
O	-3.6211241352	-2.0697153435	 0.9879845948	-0.265632
C	-5.0207034517	-2.1000647516	 0.8349835845	-0.23485
H	 1.1332386407	 1.9410762218	 0.0958331351	 0.109418
H	-0.2065220738	 1.8812769176	-1.0568117097	 0.108476
H	-0.5346784583	 2.0691310491	 0.6689435844	 0.111158
H	 0.7356128787	-0.4259026232	-0.6163446918	 0.087889
H	 0.4016185944	-0.2457487604	 1.0944056105	 0.111557
H	-2.0629056052	-0.0335942027	 0.5863231221	 0.097848
H	-1.7109658005	-0.2795558528	-1.1194577322	 0.082104
H	-0.7734019538	-2.5301204945	-0.6135421179	 0.076108
H	-1.6864976794	-2.1864391858	 2.0014403726	 0.287409
H	-3.2724144109	-2.1613366956	-1.0502592105	 0.062496
H	-3.9183079045	-4.4902724325	-0.2335766249	 0.111207
H	-2.3543664183	-4.4599761238	-1.0523131769	 0.115714
H	-2.4158229073	-4.5179361453	 0.7204755799	 0.136068
H	-5.3389759036	-1.5617401723	-0.0709678007	 0.10723
H	-5.4188241318	-3.1233078745	 0.7864789606	 0.111418
H	-5.4509511657	-1.6029390478	 1.7081826727	 0.128134
60.5873	71.6399	83.8508	107.8567	137.5828	194.6346	217.7249	229.8848	255.4813	288.8037	303.6358	352.6944	362.8309	442.4393	485.2611	547.1504	680.1203	750.5694	811.8586	856.0688	903.6008	914.3196	988.3479	1011.1297	1037.3799	1054.8513	1101.5054	1120.306	1130.1375	1151.941	1170.8807	1183.6191	1212.3462	1246.5967	1279.0516	1304.4182	1332.3514	1342.9624	1371.7143	1386.8911	1397.6927	1401.66	1413.7152	1434.0979	1478.5806	1482.1877	1483.0938	1494.6174	1495.6358	1500.9473	1501.6553	1512.0039	1513.1643	2970.5175	2983.6592	3009.6753	3016.8865	3026.28	3027.9976	3033.874	3045.5166	3056.5999	3073.2179	3096.3511	3099.0451	3109.5932	3111.2231	3131.5733	3774.9987
CCCC(O)C(C)OC	CCC[C@@H](O)[C@@H](C)OC	
InChI=1S/C7H16O2/c1-4-5-7(8)6(2)9-3/h6-8H,4-5H2,1-3H3	InChI=1S/C7H16O2/c1-4-5-7(8)6(2)9-3/h6-8H,4-5H2,1-3H3/t6-,7-/m1/s1
