19
gdb 13535	2.77445	1.74326	1.20337	1.3203	77.75	-0.2278	0.0492	0.277	1053.8251	0.162772	-327.862681	-327.853525	-327.852581	-327.896177	33.865	
C	 2.4210161649	 0.8312892306	 0.793607974	-0.38393
C	 1.3984260322	-0.3037996368	 0.6224678715	-0.139362
C	 0.0581097553	 0.126379712	 1.0287467248	 0.365842
C	-1.0336914636	 0.4884543441	 1.3767583304	-0.470028
N	 1.3856815399	-0.7127209008	-0.7878926258	-0.077618
C	 2.337095446	-1.7467783435	-1.1905980771	-0.257404
C	 0.873345142	-2.0324751981	-1.1677565859	 0.038188
C	 0.2757973687	-3.0160157389	-0.1841644734	-0.417257
H	 3.4176922278	 0.4783526198	 0.5127813512	 0.116314
H	 2.1543461303	 1.6729528228	 0.1505888386	 0.136865
H	 2.4478944048	 1.1702699944	 1.8322731302	 0.121643
H	 1.7013641159	-1.1314311219	 1.2869196647	 0.085974
H	-2.0002952684	 0.8057547791	 1.6810596836	 0.195453
H	 2.8693963679	-1.5705849654	-2.1216986096	 0.113473
H	 2.9364282763	-2.217529977	-0.4103376308	 0.103573
H	 0.3449015825	-1.9994505931	-2.1196699968	 0.091129
H	 0.8771057231	-3.123425083	 0.7220913784	 0.119496
H	-0.7322680652	-2.7104225024	 0.1124546858	 0.137081
H	 0.2056419298	-4.0044627717	-0.6503237038	 0.120566
67.5385	124.7037	178.7368	191.3209	217.5352	236.6485	290.0028	354.0038	411.8805	473.1518	531.0798	579.1465	621.5981	652.1711	747.9509	788.6581	860.3944	905.1853	940.2156	1008.0661	1035.175	1055.118	1103.3051	1113.0632	1126.6233	1146.7064	1173.3773	1192.5136	1326.0538	1332.9817	1349.2446	1399.654	1403.8659	1419.8188	1485.8505	1493.0558	1494.6672	1497.1223	1508.1165	2237.61	2942.5817	3041.0806	3047.1348	3079.0991	3101.4304	3105.7832	3121.8254	3124.9888	3137.5693	3169.6586	3503.6659
CC(C#C)N1CC1C	C[C@@H](C#C)N1C[C@H]1C	
InChI=1S/C7H11N/c1-4-6(2)8-5-7(8)3/h1,6-7H,5H2,2-3H3	InChI=1S/C7H11N/c1-4-6(2)8-5-7(8)3/h1,6-7H,5H2,2-3H3/t6-,7+,8?/m0/s1
