15
gdb 19597	4.28868	2.03926	1.89099	2.9538	58.92	-0.2462	0.0658	0.312	734.1007	0.121263	-399.721014	-399.715323	-399.714379	-399.750476	23.951	
O	 0.1504693938	 1.3837915171	-0.1087528702	-0.46495
C	 0.0987259065	-0.0090163421	-0.0791539494	 0.222356
C	 0.164293776	-0.6433833068	 1.3496451998	-0.109167
N	-1.2729506231	-0.1788925687	 1.4673986303	-0.349181
C	-1.340207665	-0.6157820356	 0.0182950521	-0.109167
C	-1.0751403895	-2.1373974431	 0.0977839091	 0.033133
O	 0.24366749	-2.557038113	-0.2957762983	-0.245037
C	 0.0219126668	-2.1575248724	 1.0685750878	 0.033132
H	-0.4562996342	 1.6831780609	 0.5831448757	 0.287455
H	 0.7665042144	-0.3959821433	-0.8418043595	 0.114626
H	 0.8664817304	-0.3078564014	 2.1124444978	 0.078626
H	-1.8365543326	-0.7582855527	 2.092292108	 0.21102
H	-2.1755741094	-0.252040932	-0.5795039229	 0.078626
H	-1.8608722374	-2.8803408123	 0.0067008002	 0.109263
H	 0.1924467935	-2.9180113146	 1.8237001596	 0.109263
267.306	341.2871	385.1899	397.517	569.2885	572.315	608.3602	688.9753	786.8636	822.009	862.1048	876.9335	889.5925	900.8549	940.7437	953.389	983.7776	1033.348	1081.6641	1082.9039	1119.8465	1151.3485	1216.2048	1217.9678	1229.1501	1240.8358	1280.1991	1289.8203	1319.292	1327.1242	1392.1182	1452.4018	3124.4536	3125.5099	3163.9805	3176.1273	3181.8582	3432.1247	3743.6139
OC1C2NC1C1OC21	O[C@H]1[C@H]2N[C@@H]1[C@H]1O[C@@H]21	
InChI=1S/C5H7NO2/c7-3-1-4-5(8-4)2(3)6-1/h1-7H	InChI=1S/C5H7NO2/c7-3-1-4-5(8-4)2(3)6-1/h1-7H/t1-,2+,3+,4+,5-
