21
gdb 81970	2.5611	1.58976	1.2548	2.5277	77.28	-0.2561	0.0801	0.3362	1099.4187	0.182807	-424.229531	-424.2208	-424.219856	-424.262361	34.242	
C	-0.1030542355	 1.5868397003	-0.0258957884	-0.397091
C	 0.0430015429	 0.0658260703	 0.0089237052	-0.038076
C	 0.7861611819	-0.5457371272	-1.1672519799	 0.036825
O	 2.2250824633	-0.4864211091	-1.0316207776	-0.282771
C	 1.5365338304	-1.7167695555	-0.7082734542	 0.036824
C	 1.3068882548	-1.9065921385	 0.7820007419	-0.038077
C	 2.4948604571	-2.4674371932	 1.5631545419	-0.397089
C	 0.830469133	-0.4913643945	 1.2357972432	 0.092308
O	 1.9069057491	 0.3469044055	 1.6147430409	-0.432993
H	 0.8730797066	 2.0762062381	-0.0446438301	 0.127361
H	-0.6648964563	 1.9032454479	-0.9109762597	 0.107528
H	-0.6357389036	 1.9479246875	 0.8589959631	 0.119411
H	-0.9588705339	-0.3885490473	 0.0164664603	 0.077185
H	 0.42211985	-0.4351693559	-2.1859456864	 0.095154
H	 1.781318086	-2.5563345276	-1.3545701566	 0.095154
H	 0.4562995804	-2.5970582864	 0.8820845973	 0.077185
H	 3.3654975671	-1.8134348276	 1.4798367991	 0.12736
H	 2.2535280077	-2.5609704543	 2.626253179	 0.119412
H	 2.7714088814	-3.4594619344	 1.1909256111	 0.107528
H	 0.188393842	-0.5567703454	 2.1186401387	 0.078412
H	 2.4756754556	 0.4055764874	 0.8346066312	 0.28845
118.8686	164.4995	198.6251	213.7011	227.6967	275.5687	295.384	425.1662	451.8185	486.5687	569.0642	606.0293	667.6239	746.5629	834.7922	837.1596	844.063	866.492	911.9594	942.9322	998.1274	1010.7083	1013.0571	1084.554	1091.953	1099.0725	1134.5035	1147.1368	1176.5635	1227.3541	1242.5112	1273.3264	1303.4227	1314.2433	1349.0066	1360.5081	1375.971	1411.2049	1411.6579	1433.4108	1460.2424	1493.0857	1493.4568	1496.0096	1497.3921	2998.7701	3003.2557	3041.0662	3041.371	3071.8024	3104.0769	3104.323	3129.2582	3129.7361	3138.769	3151.4738	3745.9936
CC1C2OC2C(C)C1O	C[C@H]1[C@H]2O[C@H]2[C@@H](C)[C@H]1O	
InChI=1S/C7H12O2/c1-3-5(8)4(2)7-6(3)9-7/h3-8H,1-2H3	InChI=1S/C7H12O2/c1-3-5(8)4(2)7-6(3)9-7/h3-8H,1-2H3/t3-,4+,5+,6-,7+
