20
gdb 94946	3.19719	1.3118	1.02923	2.8931	79.85	-0.2582	0.0291	0.2874	1200.2009	0.172905	-403.170359	-403.162283	-403.161339	-403.203143	31.437	
C	-0.3819922589	 1.3629044843	 0.0194976913	-0.418874
C	 0.1045248506	-0.0859024346	 0.0348823033	 0.018951
C	 0.9094115942	-0.5067505488	-1.2167586095	-0.205133
C	 1.688239229	-1.7688932895	-0.7911900539	-0.246688
C	 2.0558251649	-1.4947016392	 0.6865759886	-0.159466
C	 1.0556470868	-0.4291235696	 1.194997691	 0.110802
O	 0.5153910281	-1.399978071	 2.1615799313	-0.273499
C	 1.4098109176	-2.3671286285	 1.7445927923	 0.427644
N	 1.576476298	-3.5454886357	 2.139698886	-0.549734
H	 0.4615928126	 2.0602760258	-0.0436054389	 0.115041
H	-1.0318302674	 1.5522186882	-0.8406938429	 0.118521
H	-0.9485734943	 1.6026799966	 0.9249684039	 0.123633
H	-0.7594870523	-0.7544383151	 0.1343010747	 0.092929
H	 0.2725012292	-0.6708021514	-2.0911134399	 0.103252
H	 1.6139676643	 0.2940402562	-1.4790698091	 0.098763
H	 1.0533959278	-2.6573358559	-0.863040591	 0.119952
H	 2.5681109531	-1.9520759461	-1.4117417495	 0.108891
H	 3.1167141052	-1.3016432787	 0.8477241324	 0.101973
H	 1.448090753	 0.4405056409	 1.727397812	 0.087295
H	 0.9206584085	-3.7822700079	 2.886565538	 0.225746
72.7022	132.8368	216.4841	234.7786	283.0091	318.5419	416.7144	456.4261	527.865	623.8463	661.0035	780.3492	816.9535	831.5216	870.4717	872.1573	898.531	937.1353	963.0335	976.9585	994.8846	1024.9634	1058.0406	1087.8151	1116.9136	1151.5712	1174.9238	1202.2116	1224.6053	1229.1196	1285.8625	1301.7949	1315.1456	1322.8581	1328.8531	1355.2366	1391.0145	1415.2235	1491.2746	1497.8885	1501.89	1505.3823	1820.7466	3018.8948	3028.4685	3036.4877	3059.6391	3082.8771	3086.1955	3096.5073	3103.1734	3104.6617	3118.479	3471.4415
CC1CCC2C1OC2=N	C[C@H]1CC[C@H]2[C@@H]1O[C]2[NH]	
InChI=1S/C7H11NO/c1-4-2-3-5-6(4)9-7(5)8/h4-6,8H,2-3H2,1H3	InChI=1S/C7H11NO/c1-4-2-3-5-6(4)9-7(5)8/h4-6,8H,2-3H2,1H3/t4-,5-,6+/m0/s1
