14
gdb 126138	4.69186	1.07846	0.8864	4.2612	64.64	-0.3112	-0.0985	0.2128	1238.3971	0.099453	-466.152249	-466.144084	-466.143139	-466.186225	27.803	
C	-0.068879977	 1.5380305215	-0.083972865	-0.390261
C	 0.0271685957	 0.0190801779	 0.0452162302	-0.303209
C	 0.7708386564	-0.3932795069	 1.2887152039	 0.469039
O	 1.2521335251	 0.313677823	 2.1179025838	-0.246509
N	 0.8891619392	-1.8452692222	 1.4521655199	 0.04561
N	 0.3953112127	-2.7463134532	 0.5985536954	-0.101178
N	 0.7055429088	-3.8920889872	 1.0907599424	-0.07305
N	 1.3928696563	-3.7005579957	 2.2560040195	-0.064619
N	 1.5051445599	-2.4397669193	 2.4780069457	-0.074968
H	 0.9234550672	 1.9925426297	-0.1315595237	 0.143573
H	-0.6137144964	 1.7990235438	-0.9941228947	 0.129354
H	-0.5923349126	 1.9734068643	 0.7704191128	 0.143644
H	-0.9618468689	-0.4534344525	 0.0710498488	 0.16129
H	 0.5311159336	-0.4347372931	-0.8162076491	 0.161285
60.9389	64.2148	160.7979	163.0594	202.2697	284.1611	365.8045	491.7523	546.2596	715.4191	717.723	758.8352	806.1828	891.335	958.9878	1021.9711	1085.7864	1099.5104	1104.4683	1124.8281	1167.9261	1243.6977	1279.5502	1341.5461	1380.6252	1419.2947	1422.7992	1442.5419	1492.8459	1498.7569	1881.4693	3050.4053	3059.2724	3078.8369	3135.2454	3135.5261
CCC(=O)N1N=NN=N1	CCC(=O)n1nnnn1	
InChI=1S/C3H5N5O/c1-2-3(9)8-6-4-5-7-8/h2H2,1H3	InChI=1S/C3H5N5O/c1-2-3(9)8-6-4-5-7-8/h2H2,1H3
