14
gdb 23917	3.35902	1.60869	1.42809	2.956	50.86	-0.2694	0.0601	0.3295	887.4216	0.103556	-510.207599	-510.199893	-510.198949	-510.240359	27.615	
C	-0.0535817204	 1.5490997821	-0.2331148066	-0.406981
C	-0.0274461819	 0.063347982	 0.0345747554	 0.009937
N	 1.2495460324	-0.6482282828	-0.127734744	-0.324246
C	 0.6304271467	-0.5988740067	 1.1954162473	-0.194476
C	 1.3904369622	 0.1162599695	 2.283768626	 0.304689
F	 2.1150539934	 1.1477585121	 1.8436950171	-0.066437
F	 0.5406667069	 0.5799142833	 3.217775935	-0.081627
F	 2.2303378034	-0.731271729	 2.9020183483	-0.080443
H	 0.8711490052	 2.0262232671	 0.0882541636	 0.14673
H	-0.1826227873	 1.7305693293	-1.3049993172	 0.122516
H	-0.8927311376	 2.0176212158	 0.2916210936	 0.124391
H	-0.91956226	-0.4622857787	-0.306303723	 0.093319
H	 1.1237702477	-1.5646783089	-0.54691781	 0.241861
H	 0.1546035694	-1.4929325151	 1.5929668045	 0.110768
46.268	139.7759	198.2493	220.8865	289.9427	388.9213	409.7534	476.0999	526.3273	602.7046	679.1745	787.5121	809.0672	879.4218	944.6567	1009.431	1041.1286	1071.0046	1135.3868	1165.5897	1186.1934	1205.6399	1247.063	1269.0261	1317.9227	1409.7318	1438.7005	1479.709	1497.0429	1508.8522	3045.0714	3102.7966	3103.839	3136.3259	3167.6785	3519.0406
CC1NC1C(F)(F)F	C[C@H]1N[C@H]1C(F)(F)F	
InChI=1S/C4H6F3N/c1-2-3(8-2)4(5,6)7/h2-3,8H,1H3	InChI=1S/C4H6F3N/c1-2-3(8-2)4(5,6)7/h2-3,8H,1H3/t2-,3-/m1/s1
