21
gdb 30722	2.88909	1.18526	0.90949	1.7607	88.11	-0.1683	0.0567	0.225	1360.7597	0.182568	-383.315244	-383.304922	-383.303978	-383.350677	37.638	
C	 0.0777651873	 1.5734012019	 0.1781710751	-0.360254
C	-0.0099937242	 0.049364049	-0.0339073893	-0.308312
C	-1.4036757729	-0.4875383363	-0.0906204959	 0.255622
C	-2.2389354485	-0.7426609596	-1.1614791859	 0.070051
N	-1.9736350174	-0.5126280906	-2.5312847171	-0.611182
C	-3.4923136775	-1.2103035976	-0.6543016584	 0.253321
C	-4.6835485687	-1.5975948705	-1.4744978194	-0.513787
C	-3.3803718553	-1.2207018303	 0.7179922997	-0.186833
N	-2.1297014697	-0.7767764768	 1.052622496	-0.313892
H	 1.1198190209	 1.9092436549	 0.2133074993	 0.105587
H	-0.4295036912	 2.1068976751	-0.6310701997	 0.127544
H	-0.4038789614	 1.8657716732	 1.1168696524	 0.111683
H	 0.5087901047	-0.2130340756	-0.9651228548	 0.097431
H	 0.5508727317	-0.45855495	 0.7632136965	 0.095633
H	-0.9851138813	-0.3825112783	-2.7114417363	 0.230431
H	-2.2989506566	-1.2789288271	-3.1103719943	 0.235707
H	-4.4855811073	-2.4704042073	-2.112256076	 0.109946
H	-5.5350032813	-1.8530421448	-0.8369324889	 0.116567
H	-4.9969577314	-0.7847483275	-2.1410242723	 0.127559
H	-4.0932017493	-1.512459064	 1.4732281498	 0.106454
H	-1.7722857606	-0.7023086677	 1.9879136396	 0.250723
45.6423	102.0626	117.8592	177.3808	196.6624	222.0347	241.6314	280.049	292.794	370.9136	408.0744	481.1568	560.515	643.0243	694.592	705.5001	719.7308	731.4061	786.5475	812.1414	941.7065	987.8969	1004.9965	1046.6519	1064.0594	1079.8219	1125.4514	1216.057	1231.9932	1247.2162	1299.0668	1349.8606	1361.2009	1405.7214	1417.9173	1437.5934	1477.5581	1481.1865	1493.0716	1494.6897	1504.05	1515.9759	1566.275	1640.1723	1666.0699	3003.2851	3005.2768	3031.4185	3038.4843	3052.2777	3100.1389	3101.2796	3112.3546	3254.4532	3506.9886	3595.9379	3690.0201
CCC1=C(N)C(C)=CN1	CCc1c(N)c(C)c[nH]1	
InChI=1S/C7H12N2/c1-3-6-7(8)5(2)4-9-6/h4,9H,3,8H2,1-2H3	InChI=1S/C7H12N2/c1-3-6-7(8)5(2)4-9-6/h4,9H,3,8H2,1-2H3
