22
gdb 112662	3.11201	1.02557	0.82262	3.8417	83.54	-0.2352	0.0373	0.2725	1469.8085	0.194833	-404.41553	-404.40588	-404.404936	-404.450196	36.	
C	 0.0486113602	 1.617870529	-0.0663274361	-0.394569
C	 0.0394154503	 0.0860552283	-0.0716782914	-0.177664
C	-1.3524853805	-0.5308120355	 0.0811229108	 0.051655
C	-1.3624263342	-2.0763681277	 0.0337215927	-0.240661
C	-2.5481342883	-2.4918882257	 0.9207051277	-0.101545
C	-2.4338340677	-3.8367005405	 1.6325046946	-0.399884
C	-2.6866588031	-1.3148354897	 1.8992701276	 0.4148
O	-3.3303784713	-1.2949725691	 2.9266021118	-0.390451
N	-1.9556580093	-0.2778497899	 1.3845769634	-0.321504
H	 1.0591988794	 2.0046866882	-0.2266471148	 0.122195
H	-0.592175792	 2.0222299446	-0.8577737883	 0.119115
H	-0.3034999621	 2.0233936268	 0.8886474268	 0.115193
H	 0.463641321	-0.2772599429	-1.016255068	 0.101845
H	 0.6804616992	-0.2970645424	 0.731692963	 0.103769
H	-1.99780256	-0.1310121571	-0.7192318058	 0.073431
H	-1.4255916681	-2.4522526162	-0.990148222	 0.104457
H	-0.4287351919	-2.4525613775	 0.4695398941	 0.105079
H	-3.471717045	-2.4831712922	 0.3237515687	 0.099247
H	-1.4947725415	-3.9042415179	 2.1923464279	 0.117032
H	-3.2558145639	-3.9500853835	 2.3439880695	 0.14146
H	-2.4657606452	-4.6682275288	 0.9219376447	 0.109524
H	-2.0439075358	 0.6431040896	 1.7844235333	 0.247476
71.91	102.7001	112.7922	196.8448	212.116	239.2877	247.5298	343.7336	390.84	437.8925	511.8646	530.6479	572.7384	649.0011	703.29	783.481	797.0311	876.0365	916.116	937.418	972.6024	1019.2626	1049.0263	1074.0657	1090.016	1134.604	1155.8356	1175.8183	1205.6002	1255.0775	1288.3353	1297.2168	1316.9975	1333.2409	1356.2524	1379.6089	1402.1929	1410.4969	1416.3209	1433.3824	1477.03	1491.6207	1497.1304	1500.2756	1500.945	1506.4563	1824.2225	2952.9445	3005.4386	3024.1889	3031.6862	3035.8039	3039.5202	3062.5837	3097.3725	3101.0811	3104.976	3106.921	3123.9892	3638.5902
CCC1CC(C)C(=O)N1	CC[C@H]1C[C@@H](C)C(=O)N1	
InChI=1S/C7H13NO/c1-3-6-4-5(2)7(9)8-6/h5-6H,3-4H2,1-2H3,(H,8,9)	InChI=1S/C7H13NO/c1-3-6-4-5(2)7(9)8-6/h5-6H,3-4H2,1-2H3,(H,8,9)/t5-,6+/m1/s1
