22
gdb 70308	2.91884	1.50975	1.23308	1.1665	84.88	-0.219	0.0864	0.3055	1111.0742	0.196438	-367.182761	-367.174832	-367.173888	-367.214563	32.851	
C	 0.0275224146	 1.5027167112	 0.0138889784	-0.473553
C	-0.0369251582	-0.0101223975	 0.0211514448	 0.382379
C	-0.875611905	-0.7155157632	 1.0610611743	-0.354718
C	 0.6308948361	-0.7803440674	 1.1419504568	-0.036975
C	 1.4024476574	-2.0253538965	 0.7040971894	-0.27832
C	 2.243367153	-1.6874757825	-0.5242372294	 0.022137
C	 1.9863228734	-2.3069111171	-1.8511828786	-0.257061
N	 1.57698781	-0.9257491052	-1.5938954018	-0.084087
C	 0.1428368941	-0.6878840207	-1.3352320992	-0.249428
H	 0.9552732239	 1.8498889273	-0.4543935362	 0.129352
H	-0.8107401952	 1.9345028968	-0.546185765	 0.11221
H	-0.0088472267	 1.9067882287	 1.0307894879	 0.108265
H	-1.3976541066	-0.104221555	 1.7904833982	 0.106554
H	-1.4130551613	-1.6151775493	 0.7741141041	 0.103697
H	 1.1010627785	-0.1878319437	 1.921644705	 0.080366
H	 2.0466682639	-2.3867493351	 1.5106477842	 0.10302
H	 0.7079657978	-2.8413165893	 0.4790834794	 0.100845
H	 3.2493001321	-1.3309859486	-0.3080443361	 0.084588
H	 2.7877632155	-2.4365872101	-2.5742234579	 0.110632
H	 1.2059259568	-3.0664528262	-1.9041957413	 0.102284
H	-0.4358750124	-1.6225705507	-1.3704908583	 0.084916
H	-0.2400368616	-0.048802696	-2.1378381787	 0.102895
141.8317	193.4759	232.9703	277.5383	340.1778	363.7976	432.7999	443.6987	472.2705	493.9874	593.0414	738.5693	778.514	813.2009	820.6791	883.4526	914.2327	925.4206	949.8726	965.68	975.993	996.0077	1043.7626	1058.1229	1071.5832	1101.3608	1117.0753	1120.8005	1134.2858	1154.227	1171.9574	1229.5994	1237.5914	1298.1017	1308.4904	1312.0786	1330.3531	1369.4437	1408.8879	1409.0924	1420.3453	1483.4895	1486.875	1492.0477	1500.5048	1503.8471	1520.6238	2982.9928	3020.7187	3045.6063	3059.8876	3081.3007	3082.7857	3084.3859	3097.4998	3111.8895	3115.7546	3143.0908	3168.8457	3199.9775
CC12CC1CC1CN1C2	C[C@]12C[C@H]1C[C@H]1CN1C2	
InChI=1S/C8H13N/c1-8-3-6(8)2-7-4-9(7)5-8/h6-7H,2-5H2,1H3	InChI=1S/C8H13N/c1-8-3-6(8)2-7-4-9(7)5-8/h6-7H,2-5H2,1H3/t6-,7+,8-,9?/m1/s1
