20
gdb 52878	2.13186	1.27214	0.91614	1.4333	89.67	-0.2289	0.0482	0.2771	1368.5101	0.169094	-365.942753	-365.932975	-365.932031	-365.980024	35.29	
C	-0.1075263306	 1.5268291055	 0.0685774719	-0.500647
C	-0.0642359688	 0.0713353401	 0.0435363055	-0.004452
C	-0.0464397557	-1.1350445678	 0.0364234353	 0.084833
C	 0.0199944052	-2.5765194076	-0.004532222	 0.210259
C	-0.4360194915	-3.357130123	 1.2157460809	-0.300855
C	-1.2806314261	-3.3603592687	-0.0268849422	-0.300832
N	 1.1005417047	-3.2102242448	-0.7372623086	-0.125271
C	 1.5801596699	-2.5795488121	-1.9634160204	-0.234435
C	 2.4166400096	-2.5784749533	-0.7302991508	-0.234562
H	 0.8807866424	 1.9552251452	-0.1314692163	 0.149213
H	-0.7987112514	 1.9241053672	-0.6832678674	 0.147505
H	-0.4327945016	 1.896463293	 1.0474989966	 0.149514
H	 0.1364953545	-4.249549917	 1.4386831014	 0.12515
H	-0.7767955447	-2.7911425011	 2.0742545758	 0.120427
H	-2.2055804461	-2.7964802654	-0.0279669932	 0.120535
H	-1.2750648208	-4.254950451	-0.638073534	 0.125163
H	 1.7972218824	-3.2601769993	-2.7817086128	 0.112366
H	 1.1388373784	-1.6286772008	-2.2520554747	 0.121794
H	 2.5209658756	-1.6270466239	-0.2143815463	 0.121887
H	 3.2578052247	-3.258232175	-0.6285138688	 0.112409
6.012	81.8354	85.8283	131.4659	238.2732	249.3294	293.984	301.8989	383.3498	451.8324	529.0439	568.239	588.2219	745.8699	790.2723	828.4408	890.3995	904.2775	924.234	953.0365	1004.8183	1048.0737	1051.6965	1053.5664	1061.3999	1066.9037	1083.6853	1117.0403	1125.4137	1176.6854	1183.8127	1195.9004	1230.4588	1325.277	1342.3688	1414.6145	1449.6771	1476.6694	1479.9335	1482.1619	1483.8383	1510.0037	2352.0187	3024.8989	3083.8572	3087.0823	3104.6578	3107.0409	3143.2489	3146.7186	3186.3999	3200.047	3232.1555	3245.797
CC#CC1(CC1)N1CC1	CC#CC1(CC1)N1CC1	
InChI=1S/C8H11N/c1-2-3-8(4-5-8)9-6-7-9/h4-7H2,1H3	InChI=1S/C8H11N/c1-2-3-8(4-5-8)9-6-7-9/h4-7H2,1H3
