21
gdb 57904	2.81668	1.06779	0.97825	4.6011	82.17	-0.2333	0.0241	0.2574	1355.3613	0.181307	-420.406092	-420.395624	-420.39468	-420.442471	36.844	
C	 0.2356506601	 1.4852694061	-0.6093792542	-0.402084
C	 0.0263883469	 0.0574380755	-0.1674283847	 0.006868
N	 1.2237586431	-0.7703948846	-0.0340506271	-0.303361
C	 0.4626231626	-0.4483847246	 1.1799984773	-0.179472
C	 1.1512855807	 0.4567516171	 2.1782010984	 0.433613
O	 2.2354482107	 0.9617622329	 1.9445091516	-0.375355
N	 0.4778883439	 0.6804021843	 3.3579308315	-0.094098
C	 1.1338568232	 1.4458019678	 4.4043876011	-0.342805
C	-0.8697739543	 0.231946745	 3.6524961048	-0.336224
H	 1.1408420676	 1.8913139426	-0.1545645663	 0.163061
H	 0.3444666476	 1.5305127625	-1.6981321039	 0.11884
H	-0.6196246535	 2.110094353	-0.3293815564	 0.107948
H	-0.8704599534	-0.4202803097	-0.563161802	 0.081658
H	 1.0354889605	-1.7316368475	-0.3051985102	 0.232081
H	-0.1408780984	-1.2460389701	 1.6036364491	 0.090975
H	 0.5862205272	 2.3741048834	 4.6127729829	 0.118282
H	 1.1840693058	 0.8634888928	 5.3333250267	 0.117521
H	 2.1403006399	 1.6897508139	 4.0690406924	 0.171313
H	-1.4160135872	-0.0052331762	 2.7405403461	 0.141019
H	-0.8827916313	-0.6474463727	 4.3127058089	 0.122211
H	-1.4152894217	 1.0355735287	 4.1609021541	 0.128008
32.1496	86.2566	98.0789	139.9241	174.128	205.1227	214.5626	241.3008	353.7274	382.2938	401.536	433.2652	476.1153	607.6545	718.1309	790.0322	818.1769	864.6489	921.1564	982.2762	1016.4933	1024.7678	1080.6524	1085.7898	1131.0972	1138.0524	1160.9463	1176.2949	1190.5276	1246.887	1257.7943	1288.1037	1380.4982	1403.2542	1428.4086	1440.7491	1463.5874	1473.1527	1492.0667	1495.0754	1500.4933	1502.3752	1505.9315	1539.4302	1757.8009	2997.8307	3011.3057	3036.0336	3054.7002	3059.381	3095.6794	3096.2012	3135.366	3145.5881	3154.3767	3170.7006	3506.761
CC1NC1C(=O)N(C)C	C[C@H]1N[C@H]1C(=O)N(C)C	
InChI=1S/C6H12N2O/c1-4-5(7-4)6(9)8(2)3/h4-5,7H,1-3H3	InChI=1S/C6H12N2O/c1-4-5(7-4)6(9)8(2)3/h4-5,7H,1-3H3/t4-,5-/m1/s1
