15
gdb 31112	1.97939	1.20958	0.75376	2.6739	69.03	-0.2473	-0.0672	0.1801	1439.1284	0.109105	-491.128171	-491.117961	-491.117017	-491.164393	34.976	
N	 0.6526665404	 1.5935863304	-0.6761231553	-0.725588
H	 1.0827183569	 0.96539188	-1.3497499635	 0.232241
H	 1.1139632617	 1.4181643739	 0.2160998437	 0.265795
H	 0.9223565618	 2.5321840758	-0.9583168234	 0.232263
C	-1.460549892	 0.7621706289	 1.7794287095	-0.395308
C	-0.4843777506	 0.638211519	 2.6826834141	 0.207702
C	-0.7044807455	 0.2573512118	 4.1058248856	 0.389589
O	-1.6602840539	-0.0085231138	 4.7588045932	-0.302685
O	 0.6084698229	 0.257093241	 4.6630301751	-0.265089
C	 1.4214478966	 0.6039001609	 3.6247116514	 0.499214
O	 2.7108848754	 0.6700227569	 3.9059465994	-0.384824
N	 0.8963675188	 0.8346753443	 2.4831571142	-0.40402
H	-1.2309967156	 1.042037954	 0.7553165546	 0.18157
H	-2.484745656	 0.5767672369	 2.0799064004	 0.142489
H	 2.8361013591	 0.44925346	 4.8383744611	 0.32665
44.5265	76.576	120.2164	141.663	160.735	190.4385	210.6125	305.128	357.9875	367.9049	423.6565	447.709	606.5701	651.1698	653.1826	728.5739	760.565	809.4879	826.675	896.5318	995.3149	1002.6931	1084.1576	1121.2727	1235.5994	1281.1231	1420.8716	1430.5758	1674.7535	1689.5443	1699.5112	1770.1503	1919.9735	3142.7592	3257.4771	3445.7603	3559.7639	3581.3465	3799.0635
[NH3+]CC1=C([O-])OC(O)=N1	N.C=C1C(=O)OC(=N1)O	
InChI=1S/C4H6N2O3/c5-1-2-3(7)9-4(8)6-2/h7H,1,5H2,(H,6,8)	InChI=1S/C4H3NO3.H3N/c1-2-3(6)8-4(7)5-2;/h1H2,(H,5,7);1H3
