20
gdb 8010	2.85997	1.84105	1.58292	2.5068	70.09	-0.2477	0.0616	0.3094	929.7594	0.178193	-386.157771	-386.149667	-386.148723	-386.189936	31.88	
C	 0.0655682794	 1.5511485193	 0.0435659819	-0.401256
C	 0.0384235091	 0.0258949149	 0.1027847902	 0.022144
C	 0.6110814288	-0.6829143562	-1.1608105098	-0.227998
C	 1.4621191485	-1.8679723145	-0.6543643396	 0.102652
O	 2.8412694081	-1.4588905589	-0.7530024832	-0.435562
C	 1.0482080007	-2.0366008868	 0.8181250791	-0.265793
C	 0.8391995478	-0.5852756578	 1.2837157372	 0.136982
O	 2.0735906439	 0.0723741475	 1.5263891511	-0.448101
H	 1.0947441825	 1.9151342536	-0.0143958873	 0.124726
H	-0.4833871653	 1.9211518585	-0.8287351761	 0.104714
H	-0.3894680226	 1.9903522544	 0.9375902225	 0.110861
H	-1.0019094571	-0.3006786403	 0.2328167477	 0.065888
H	-0.1881442163	-1.0274312874	-1.8222655368	 0.099839
H	 1.2520503869	-0.0198164293	-1.7489388006	 0.116263
H	 1.3138912849	-2.7776803775	-1.2490103948	 0.067971
H	 3.3852335001	-2.1678884419	-0.3924833569	 0.286005
H	 0.1044390159	-2.5923909628	 0.8752244986	 0.098709
H	 1.7929226668	-2.5720849127	 1.4160184361	 0.090869
H	 0.2785491248	-0.5190331006	 2.2213779151	 0.070103
H	 2.6534992731	-0.1463378517	 0.7823412056	 0.280982
68.7173	204.6863	218.1313	252.8586	326.2918	360.3208	389.2325	400.9372	438.3584	513.9115	620.7551	661.8667	772.1678	815.176	827.7505	849.4924	904.5668	958.6424	965.9941	990.0598	999.2319	1037.2895	1071.9981	1106.6531	1166.6605	1187.6886	1200.3008	1240.0159	1258.4069	1280.5738	1312.2847	1334.0702	1349.2447	1363.2421	1377.9903	1409.9209	1410.7214	1465.8129	1476.9679	1487.4464	1492.8212	1500.0964	3008.6786	3018.6676	3034.6568	3037.0598	3059.7269	3065.6351	3085.3302	3096.5775	3103.879	3118.9961	3713.9557	3805.1689	68.7182	204.6863	218.1313	252.8587	326.292	360.3211	389.2327	400.9372	438.3583	513.9115	620.755	661.8667	772.1678	815.176	827.7505	849.4924	904.5668	958.6424	965.9942	990.0598	999.2319	1037.2894	1071.9981	1106.653	1166.6605	1187.6884	1200.3008	1240.0158	1258.4067	1280.5736	1312.2846	1334.07	1349.2447	1363.2419	1377.9901	1409.9209	1410.7213	1465.8131	1476.9679	1487.4461	1492.8211	1500.0963	3008.6786	3018.6677	3034.6569	3037.0598	3059.7269	3065.6351	3085.3301	3096.5775	3103.879	3118.9961	3713.9557	3805.1692
CC1CC(O)CC1O	C[C@H]1C[C@@H](O)C[C@H]1O	
InChI=1S/C6H12O2/c1-4-2-5(7)3-6(4)8/h4-8H,2-3H2,1H3	InChI=1S/C6H12O2/c1-4-2-5(7)3-6(4)8/h4-8H,2-3H2,1H3/t4-,5+,6+/m0/s1
