17
gdb 99048	3.15032	0.87716	0.78426	3.5953	70.22	-0.2576	-0.0069	0.2508	1492.1461	0.134049	-455.183065	-455.172813	-455.171869	-455.220702	34.607	
C	 0.3253031736	 1.7813362836	 0.2905890789	-0.399574
C	-0.0342973182	 0.3543428666	-0.112556254	-0.009994
O	 0.524367805	 0.107143387	-1.4162739687	-0.248242
C	-0.1781071285	-0.7257184024	-2.2321456262	 0.429682
O	-1.2237525533	-1.2370468294	-1.931951912	-0.345885
C	 0.5448262492	-0.8993854851	-3.5636735702	-0.276542
N	-0.1157599189	-1.7676266472	-4.5171631167	-0.484327
C	 0.5013353217	-0.6347109399	 0.837934338	 0.276443
N	 0.9238826543	-1.3947764369	 1.5979863832	-0.311665
H	 1.4091251297	 1.9145533231	 0.3068778175	 0.151849
H	-0.1093019092	 2.4796277532	-0.4282448764	 0.138869
H	-0.0719259612	 2.0008415447	 1.284566033	 0.147397
H	-1.1175680751	 0.2138161305	-0.1679059817	 0.159508
H	 0.6890405009	 0.0976049186	-3.9969339341	 0.143245
H	 1.5521149175	-1.2739390546	-3.347577525	 0.149696
H	-0.2305046594	-2.6910371418	-4.1091883274	 0.241044
H	-1.0604037182	-1.43177909	-4.6821119882	 0.238497
14.0335	53.6192	69.56	150.4986	185.9668	217.7833	225.141	273.5073	312.673	352.3023	417.2707	561.9125	565.4216	617.8316	696.8318	824.1411	881.0103	916.9747	920.9529	951.6469	1051.4016	1114.995	1147.0347	1152.7627	1182.3523	1186.1326	1321.8509	1369.6796	1384.0385	1388.7405	1410.5115	1452.5957	1483.942	1494.598	1678.867	1832.2171	2363.686	3043.6069	3057.9494	3080.0034	3083.4099	3139.337	3144.7157	3499.0438	3568.1097
CC(OC(=O)CN)C#N	C[C@@H](OC(=O)CN)C#N	
InChI=1S/C5H8N2O2/c1-4(2-6)9-5(8)3-7/h4H,3,7H2,1H3	InChI=1S/C5H8N2O2/c1-4(2-6)9-5(8)3-7/h4H,3,7H2,1H3/t4-/m1/s1
