19
gdb 36723	5.51919	0.72162	0.67059	4.4444	82.89	-0.2454	0.0094	0.2548	1645.7089	0.160681	-382.079569	-382.070783	-382.069839	-382.114198	31.918	
N	-0.0184597974	-1.170488517	 0.2284831212	-0.298984
C	-0.0133403975	-0.0253405119	 0.0782860227	 0.25543
C	-0.0133094185	 1.4309420978	-0.0828972538	-0.265337
N	 1.3305575573	 1.975680612	 0.0777227904	-0.31142
C	 1.3647716558	 3.4453481663	 0.044918187	 0.02639
C	 2.7460541156	 3.9726004614	 0.5028619537	-0.250874
C	 3.057149009	 5.1890516126	-0.4036391985	-0.255966
C	 2.1410808918	 4.9698433191	-1.5832278451	-0.065595
C	 1.2328031702	 4.0262271477	-1.3485444661	-0.046217
H	-0.3788032763	 1.6605612519	-1.0907290634	 0.158167
H	-0.7566905161	 1.851237552	 0.6207388174	 0.129629
H	 1.7068456442	 1.657216426	 0.9656984575	 0.231614
H	 0.5614202693	 3.8619481797	 0.6864611064	 0.061177
H	 2.7737192112	 4.2126711764	 1.5687485403	 0.09956
H	 3.4785563396	 3.180637759	 0.3156319021	 0.120196
H	 2.8256109152	 6.139591711	 0.0964376783	 0.110919
H	 4.1139982095	 5.2423307578	-0.6869610281	 0.110375
H	 2.2141384723	 5.5520316396	-2.4954721989	 0.097612
H	 0.4514445948	 3.7277123184	-2.0384260733	 0.093324
52.3786	73.3241	100.4154	150.9435	243.8872	311.7153	368.8055	393.2249	482.4139	564.2275	645.0196	752.605	760.1104	791.3795	853.7098	885.5278	923.8353	959.0905	970.1742	981.2656	998.8552	1043.5996	1059.8536	1117.4511	1127.0174	1158.4825	1191.185	1230.5102	1241.9916	1302.5301	1312.9902	1328.7215	1345.479	1384.4249	1395.7807	1482.0907	1491.8227	1497.2784	1498.5544	1690.2545	2368.4319	2878.765	2928.5491	3014.511	3050.4391	3056.5242	3063.323	3104.8983	3182.2966	3207.7254	3512.5961
N#CCNC1CCC=C1	N#CCN[C@H]1CCC=C1	
InChI=1S/C7H10N2/c8-5-6-9-7-3-1-2-4-7/h1,3,7,9H,2,4,6H2	InChI=1S/C7H10N2/c8-5-6-9-7-3-1-2-4-7/h1,3,7,9H,2,4,6H2/t7-/m1/s1
