23
gdb 114659	3.22492	1.08266	0.99476	1.4982	84.83	-0.2427	0.0741	0.3168	1329.0351	0.20712	-388.280441	-388.271595	-388.270651	-388.313683	35.063	
C	 0.0501332103	 1.5678774682	 0.0106827286	-0.382208
C	 0.0821030403	 0.0365601205	-0.0407311158	-0.204225
C	 0.6788397824	-0.5949077841	 1.2204325975	 0.059197
C	-0.1799078027	-0.4445339801	 2.533174869	-0.236695
C	-0.2766480479	-1.9236818422	 2.9495898135	-0.055813
C	 1.1755362563	-2.427065693	 2.6909718182	-0.270524
C	 0.800830577	-2.13467581	 1.2059818996	-0.079699
C	-0.6469668625	-2.591693539	 1.5868346503	 0.192002
O	-0.9138471844	-3.9737797825	 1.5821602135	-0.459782
H	 1.0586968701	 1.9794741716	 0.13078927	 0.112564
H	-0.3734390258	 1.9874118358	-0.9070323938	 0.111724
H	-0.5544633946	 1.9285401442	 0.8497129807	 0.117761
H	-0.9333951155	-0.3424955328	-0.2096667015	 0.098372
H	 0.6734390792	-0.2828555246	-0.9089695031	 0.093063
H	 1.6734827201	-0.1575263684	 1.3740180064	 0.064713
H	 0.3075506719	 0.1752534126	 3.2907747887	 0.095804
H	-1.1658634002	-0.01144142	 2.332507442	 0.097182
H	-0.8231245491	-2.1613608167	 3.8632564316	 0.059843
H	 2.0015743967	-1.8586329901	 3.1288630129	 0.091999
H	 1.32419962	-3.4868443758	 2.9154123472	 0.082704
H	 1.3359219032	-2.5881438668	 0.3696691568	 0.057295
H	-1.4764767659	-2.1431191633	 1.034413433	 0.075436
H	-0.1978814888	-4.4362664034	 2.0286558848	 0.279287
93.418	134.9506	190.4568	213.0257	259.9509	279.1095	338.8122	380.5509	430.3806	465.342	554.8261	627.8984	766.925	809.6591	834.9407	842.831	876.7782	884.283	931.0317	956.872	976.1108	979.4258	1002.7925	1045.4139	1053.3745	1058.7463	1076.405	1102.9032	1141.0329	1158.1512	1187.616	1208.2882	1227.2563	1246.0153	1261.3609	1274.2619	1287.246	1294.5808	1313.569	1319.4486	1355.6384	1396.297	1411.7029	1446.393	1485.414	1498.489	1500.335	1507.8251	1522.6196	3012.5489	3018.5077	3030.2931	3043.278	3050.4603	3052.3864	3078.8049	3089.0101	3097.0764	3097.8765	3100.0931	3102.9049	3108.9374	3822.3419
CCC1CC2CC1C2O	CC[C@H]1C[C@@H]2C[C@H]1[C@H]2O	
InChI=1S/C8H14O/c1-2-5-3-6-4-7(5)8(6)9/h5-9H,2-4H2,1H3	InChI=1S/C8H14O/c1-2-5-3-6-4-7(5)8(6)9/h5-9H,2-4H2,1H3/t5-,6+,7+,8-/m0/s1
