21
gdb 101703	3.77462	0.82904	0.7942	2.3284	74.8	-0.255	0.0481	0.3031	1514.6057	0.180846	-461.33863	-461.328683	-461.327739	-461.373724	37.622	
O	 0.1646971485	 1.340118888	-0.2612821954	-0.422585
C	 0.1184737183	-0.0605009495	-0.1066936503	-0.057238
C	-1.2982389796	-0.5380019656	 0.2062813499	 0.083145
O	-2.1911731118	-0.0438246282	-0.8120510922	-0.449015
C	-1.402392898	-2.0574493051	 0.3954246834	-0.315518
C	-2.8337474655	-2.5601159595	 0.2600881059	 0.44909
O	-3.7877162458	-1.7767805376	 0.9230773287	-0.476198
C	-3.2731823982	-3.2437241485	-1.0181707361	-0.329083
C	-3.1126860198	-4.0282224629	 0.2714438746	-0.311013
H	-0.6072934081	 1.5660263762	-0.7957888496	 0.285999
H	 0.4776644254	-0.5806014858	-1.014525378	 0.07202
H	 0.7984867058	-0.3257943653	 0.7104752663	 0.111211
H	-1.6401936993	-0.0333377666	 1.115154062	 0.110552
H	-2.0837979719	-0.5961720828	-1.5956314778	 0.289649
H	-0.7654717932	-2.5763512455	-0.3331039025	 0.094019
H	-1.0092508713	-2.3016690722	 1.3899438044	 0.116791
H	-3.8288440884	-0.943678152	 0.4339956418	 0.290127
H	-4.2851982252	-3.0481176275	-1.354217778	 0.11845
H	-2.5498859804	-3.407720911	-1.8113847766	 0.100551
H	-2.2775547069	-4.7148146467	 0.3596633475	 0.111797
H	-4.0181967345	-4.341933882	 0.777268842	 0.127249
54.7708	83.4532	127.1829	152.1079	260.8754	293.6322	301.4336	335.6985	365.1845	434.7498	451.4077	466.248	500.5353	573.716	601.5956	752.428	781.7128	834.0864	873.2439	922.4108	926.1969	937.7771	986.7309	1038.3231	1050.4621	1077.4196	1079.9659	1094.329	1111.7448	1170.7868	1191.7108	1213.0094	1272.4271	1291.0109	1300.7811	1331.8022	1356.382	1386.7425	1409.3942	1437.7399	1440.6234	1452.3121	1481.0498	1500.7744	1503.623	2930.5402	3018.3259	3055.3839	3065.4338	3081.2344	3123.2596	3137.6678	3213.7909	3231.3133	3750.8511	3772.973	3791.7736
OCC(O)CC1(O)CC1	OC[C@@H](O)CC1(O)CC1	
InChI=1S/C6H12O3/c7-4-5(8)3-6(9)1-2-6/h5,7-9H,1-4H2	InChI=1S/C6H12O3/c7-4-5(8)3-6(9)1-2-6/h5,7-9H,1-4H2/t5-/m0/s1
