23
gdb 118879	2.77668	1.15734	0.99757	1.0065	86.06	-0.2389	0.0894	0.3282	1339.3026	0.204382	-388.262666	-388.253093	-388.252149	-388.297018	36.765	
C	-0.2101117844	 1.5275511335	 0.1344306782	-0.381243
C	-0.0406948147	 0.0214592563	 0.0093427047	-0.049475
O	-1.3246256226	-0.5514179649	-0.158404144	-0.297553
C	-1.4059430635	-1.9612521859	-0.0420185287	 0.432466
C	-0.594954509	-2.6822327404	-1.1166703996	-0.456632
C	-1.1909504505	-2.5588911481	 1.4036849609	-0.300649
C	-2.6414279409	-3.0495383803	 1.3800023564	-0.038744
C	-3.5697681997	-1.8828125057	 1.2039191883	-0.285752
C	-2.8629234212	-2.4292736141	-0.0023037077	-0.082592
H	 0.7633346802	 2.0148703686	 0.2464318453	 0.11062
H	-0.7001054043	 1.9312158979	-0.7562918176	 0.126119
H	-0.8266555326	 1.7746029466	 1.0034459921	 0.122253
H	 0.6106388489	-0.2139127486	-0.8463724839	 0.088214
H	 0.4486203196	-0.3840958326	 0.9092157374	 0.0868
H	 0.4806742166	-2.5263496531	-0.9892909595	 0.114866
H	-0.7832143998	-3.7589118799	-1.0742669083	 0.118803
H	-0.8824636926	-2.3207928015	-2.1097165281	 0.119649
H	-0.4460900202	-3.3580657739	 1.4200504695	 0.097747
H	-0.9529573499	-1.8348685665	 2.1894489357	 0.094161
H	-2.9838692315	-4.0088989284	 1.7472463879	 0.082097
H	-4.628975182	-2.1138075826	 1.2555550153	 0.106944
H	-3.3010951364	-0.9027456698	 1.5873112265	 0.114528
H	-3.3985557593	-2.8243316866	-0.8578322806	 0.077369
62.5336	106.1212	139.886	199.881	241.9708	260.9102	285.8481	335.3455	381.6649	411.8997	463.3624	514.9718	648.7114	756.8175	794.201	820.5803	830.1364	894.7612	900.8504	916.3753	954.7807	970.6052	992.421	996.3341	1030.5947	1064.3327	1083.2967	1093.9661	1134.5666	1145.8548	1166.8195	1186.3278	1193.1296	1215.9087	1242.3552	1254.1699	1299.8351	1313.7916	1366.9402	1398.2598	1401.4872	1426.1363	1475.7278	1482.9168	1489.3435	1493.092	1496.9836	1500.693	1529.4961	2972.4878	3000.2716	3035.1192	3042.7539	3047.2023	3102.971	3106.8464	3112.5677	3116.646	3119.868	3120.5795	3172.8598	3187.7497	3208.2594
CCOC1(C)CC2CC12	CCO[C@@]1(C)C[C@H]2C[C@@H]12	
InChI=1S/C8H14O/c1-3-9-8(2)5-6-4-7(6)8/h6-7H,3-5H2,1-2H3	InChI=1S/C8H14O/c1-3-9-8(2)5-6-4-7(6)8/h6-7H,3-5H2,1-2H3/t6-,7-,8+/m1/s1
