17
gdb 79802	2.57048	1.89059	1.40172	2.9799	75.08	-0.2155	-0.0561	0.1594	962.9785	0.134184	-417.85073	-417.842917	-417.841973	-417.8824	30.96	
C	 0.0216185019	 1.3012623544	 0.1479784609	-0.33172
N	 0.1355909102	 0.0239453802	-0.5689964149	-0.129027
C	-0.9078762788	-0.9604754365	 0.041710006	-0.071176
C	-0.5195226376	-2.5319362327	 0.1789678138	-0.160276
C	 0.7508880848	-3.0964106221	-0.4913076379	-0.186401
N	 1.5338391267	-1.8517742911	-0.7337783978	-0.17769
C	 1.0157358557	-0.9883585778	 0.0452617272	 0.074923
C	-0.0577618855	-1.4785697726	 1.1139586302	 0.31837
O	-0.1269694798	-1.3437344848	 2.4799405136	-0.462637
H	 0.88117113	 1.9216376901	-0.1199543881	 0.133623
H	-0.8834891012	 1.8161062742	-0.1877683062	 0.123478
H	-0.0161854699	 1.1952626194	 1.2437235079	 0.121964
H	-1.9531378517	-0.6667790353	 0.0256026034	 0.119684
H	-1.3755688276	-3.1603408141	 0.4178091565	 0.096577
H	 1.230670272	-3.8633471833	 0.1372597838	 0.10489
H	 0.5851373794	-3.5365168632	-1.4795369797	 0.132873
H	 0.3539231214	-2.0741657448	 2.8864830613	 0.292547
157.955	223.4595	254.0055	260.3652	270.2545	308.962	379.285	461.1024	482.2471	569.7365	641.1446	676.7817	715.324	767.2339	854.8473	904.831	932.4449	939.2891	948.5395	968.0488	1021.9551	1071.5324	1094.0991	1108.3884	1135.4718	1166.8466	1180.3869	1201.8148	1251.742	1289.9977	1328.0543	1442.3663	1476.1208	1489.0163	1492.6733	1496.1719	1603.9447	2981.6012	2984.025	3075.4096	3081.1235	3116.0466	3142.3407	3167.224	3785.6898
CN1C2C3CN=C1C23O	CN1[C@H]2[C@H]3C[N][C]1[C@@]23O	
InChI=1S/C6H8N2O/c1-8-4-3-2-7-5(8)6(3,4)9/h3-4,9H,2H2,1H3	InChI=1S/C6H8N2O/c1-8-4-3-2-7-5(8)6(3,4)9/h3-4,9H,2H2,1H3/t3-,4+,6+/m1/s1
