12
gdb 42383	3.57798	1.03535	0.80299	1.347	71.67	-0.2867	-0.0948	0.1918	1283.2344	0.077896	-427.862663	-427.854093	-427.853149	-427.897769	29.21	
N	-0.5706144135	-0.2555321526	-1.5652800078	-0.473867
C	-0.1741922217	-0.2623747798	-0.3590439677	 0.310667
N	-1.0216484147	-0.096010589	 0.7221212512	-0.36511
C	-2.394927883	 0.1016567052	 0.7365099093	 0.328262
N	-2.9652675391	 0.2311325919	 1.8703528118	-0.490554
C	-3.1280399929	 0.154291768	-0.5108038991	 0.276981
N	-3.8794260125	 0.2251372576	-1.3868390826	-0.328136
C	 1.2116290236	-0.4444548953	 0.0429232227	 0.229775
N	 2.3247797402	-0.592724298	 0.3171065609	-0.300417
H	 0.1941493477	-0.3924245232	-2.220710921	 0.260646
H	-0.6213444664	-0.1146643226	 1.6499841818	 0.291697
H	-3.9680161178	 0.3705520477	 1.7670044905	 0.260055
16.2734	97.6974	123.757	184.0453	258.7417	302.5194	330.7538	407.8328	472.7039	580.1768	608.2571	654.852	714.9078	727.4664	797.1289	839.1543	870.2233	951.435	1091.4568	1168.0227	1286.9645	1406.8221	1525.4393	1678.9852	1708.8644	2350.1886	2352.0309	3530.4065	3542.5964	3612.6847
N=C(NC(=N)C#N)C#N	N=C(NC(=N)C#N)C#N	
InChI=1S/C4H3N5/c5-1-3(7)9-4(8)2-6/h(H3,7,8,9)	InChI=1S/C4H3N5/c5-1-3(7)9-4(8)2-6/h(H3,7,8,9)
