23
gdb 108490	2.53791	1.45691	1.17288	0.1503	90.29	-0.2334	0.0269	0.2604	1192.1211	0.207217	-351.166746	-351.158111	-351.157167	-351.199806	34.283	
C	 0.0542643752	 1.5780918525	 0.1950753501	-0.38719
C	-0.0139333288	 0.0589093302	-0.0006962713	-0.254138
C	-1.4369341003	-0.505750272	-0.0328469117	 0.337119
C	-2.2340467165	-0.4600812722	 1.312327904	-0.267948
C	-2.6453934739	-1.9420587153	 1.0990994873	-0.227389
C	-1.6254325641	-2.0671980681	-0.0702803235	-0.054257
C	-2.200649989	-2.4389889187	-1.4494353551	-0.283627
C	-2.6467678826	-1.0983287118	-1.9906301862	-0.064864
C	-2.244241495	-0.0754880834	-1.2357619522	-0.135885
H	 1.0922244567	 1.9191569856	 0.2593945204	 0.111109
H	-0.4170034054	 2.1137508576	-0.6352536432	 0.116587
H	-0.4522946842	 1.8830323742	 1.1172770614	 0.117478
H	 0.5012614009	-0.2149974491	-0.9307475389	 0.093012
H	 0.5354911073	-0.4327449747	 0.8131753194	 0.088152
H	-1.5731314423	-0.3242229363	 2.1745461121	 0.091888
H	-3.044203338	 0.2707182728	 1.3823071928	 0.092675
H	-2.4909804885	-2.6115069855	 1.9486373711	 0.094373
H	-3.6791713622	-2.0532878202	 0.7604572423	 0.099803
H	-0.734285115	-2.6392875955	 0.1980614443	 0.057665
H	-1.4573024852	-2.9071368928	-2.1098006705	 0.1002
H	-3.0295034565	-3.1548432479	-1.367978284	 0.099927
H	-3.2243630742	-1.0030916932	-2.9046964141	 0.087602
H	-2.4576295884	 0.9676182235	-1.4473224244	 0.08771
91.3872	118.1572	177.847	217.6735	254.2725	299.2528	347.6286	426.1354	462.9028	610.7535	638.9457	719.7779	755.5992	775.2422	792.4229	817.3671	871.9873	902.0922	938.1302	953.1331	964.9848	979.7364	980.5825	1007.4414	1040.9139	1054.42	1096.2502	1109.4292	1156.409	1159.0428	1189.9496	1211.8993	1229.124	1248.503	1267.2385	1280.7933	1306.1188	1314.6907	1330.1315	1359.8489	1389.1488	1410.5105	1474.9315	1482.0397	1484.7394	1495.9428	1502.5612	1507.306	1676.8727	3005.0598	3009.523	3032.5848	3034.1067	3043.0337	3044.7558	3057.3691	3076.3971	3091.9811	3100.4443	3103.7216	3112.9881	3168.9274	3194.4948
CCC12CCC1CC=C2	CC[C@]12CC[C@H]1CC=C2	
InChI=1S/C9H14/c1-2-9-6-3-4-8(9)5-7-9/h3,6,8H,2,4-5,7H2,1H3	InChI=1S/C9H14/c1-2-9-6-3-4-8(9)5-7-9/h3,6,8H,2,4-5,7H2,1H3/t8-,9+/m1/s1
