18
gdb 109047	2.89078	1.31122	1.0216	2.7058	72.78	-0.2364	0.0033	0.2397	1172.5915	0.148762	-439.053301	-439.045071	-439.044127	-439.086198	31.703	
O	 0.1637122508	 1.376833927	-0.0035105992	-0.411178
C	 0.0171153457	-0.0225098167	 0.16651684	-0.164975
C	-1.403712493	-0.494205372	 0.1663796067	 0.228412
C	-2.5106972003	 0.2538435246	 0.1473906362	-0.167196
C	-3.7284039805	-0.6037776542	 0.0303339037	-0.075818
N	-3.7456327698	-1.4008569143	-1.2393509196	-0.354886
C	-3.2584618124	-2.0053717393	 0.0232239676	-0.077698
C	-1.726600002	-1.9896292829	 0.0687211298	 0.037892
O	-1.141907388	-2.5933319505	-1.0752059014	-0.434561
H	-0.2060854899	 1.5990170702	-0.8645900538	 0.28288
H	 0.5748113	-0.5927845111	-0.5931577512	 0.115585
H	 0.4882395323	-0.2565509788	 1.1309560177	 0.122055
H	-2.5364833638	 1.3362179548	 0.1734590999	 0.10392
H	-4.6780620734	-0.3068564024	 0.4612397172	 0.094694
H	-4.6924911498	-1.734152799	-1.4131125488	 0.23274
H	-3.8142033152	-2.8231478838	 0.4667901067	 0.093449
H	-1.3409482065	-2.5469418437	 0.930855495	 0.08679
H	-1.6686755444	-2.2643516982	-1.8184177966	 0.287893
89.6012	124.7156	186.22	225.6597	283.0309	329.6052	399.464	472.9365	509.9845	568.9507	576.1407	703.6452	725.9674	798.4272	849.7334	874.9839	882.1459	906.6896	963.3981	984.7094	996.6454	1060.0569	1078.1142	1084.3234	1128.3576	1143.266	1172.7649	1208.0907	1240.8082	1267.3749	1290.7212	1324.44	1351.7641	1389.5692	1404.1786	1418.7482	1441.1237	1490.9396	1705.0644	2986.1428	3032.713	3040.8516	3172.6481	3183.1303	3210.351	3479.9861	3730.4247	3810.1803
OCC1=CC2NC2C1O	OCC1=C[C@H]2N[C@H]2[C@H]1O	
InChI=1S/C6H9NO2/c8-2-3-1-4-5(7-4)6(3)9/h1,4-9H,2H2	InChI=1S/C6H9NO2/c8-2-3-1-4-5(7-4)6(3)9/h1,4-9H,2H2/t4-,5-,6+/m1/s1
