16
gdb 86525	3.44214	1.01716	0.82447	4.0056	74.73	-0.245	-0.0246	0.2204	1338.566	0.122239	-437.851041	-437.841764	-437.84082	-437.886732	32.441	
O	 0.3864491272	 1.2560476742	-0.4055192212	-0.42286
C	 0.0088575665	-0.0279236423	 0.0161051645	 0.101642
C	 0.1038283878	-0.3328112661	 1.547826127	-0.203119
N	-1.3423615092	-0.5323851272	 1.5403564226	-0.086796
C	-1.5327063568	-0.1536225099	 0.1383709141	-0.185871
C	-2.1703444959	-0.8178654951	 2.5734755469	 0.256622
O	-1.7748691795	-1.0236917313	 3.7089323536	-0.36445
C	-3.5794612051	-0.8683514954	 2.199895599	 0.233841
C	-4.7493372412	-0.9127805938	 1.9249383207	-0.42403
H	 1.3469491723	 1.2931588194	-0.4568087883	 0.291521
H	 0.4599753456	-0.8110464027	-0.6042624557	 0.085773
H	 0.6755567474	-1.2173014111	 1.8452267441	 0.123162
H	 0.4230926566	 0.5289696796	 2.1443469364	 0.126005
H	-2.0399417938	 0.8068294343	-0.00017158	 0.134722
H	-2.012745539	-0.9172055004	-0.4801641815	 0.124762
H	-5.7866648229	-0.9552085622	 1.6978839979	 0.209074
21.6331	92.7967	104.4945	117.1401	222.3516	284.6879	288.5196	384.0519	408.7192	490.4077	539.4948	658.4219	664.55	676.7082	753.9356	788.1059	868.8862	915.1239	974.3406	1021.5438	1072.5623	1132.5599	1154.6258	1191.4782	1198.2097	1242.1873	1286.8156	1312.2757	1316.6928	1423.6824	1455.1601	1493.3458	1513.891	1740.1756	2223.9889	3033.354	3037.0523	3046.2291	3091.4844	3098.5808	3496.5352	3819.9664
OC1CN(C1)C(=O)C#C	OC1CN(C1)C(=O)C#C	
InChI=1S/C6H7NO2/c1-2-6(9)7-3-5(8)4-7/h1,5,8H,3-4H2	InChI=1S/C6H7NO2/c1-2-6(9)7-3-5(8)4-7/h1,5,8H,3-4H2
