12
gdb 19337	5.26243	1.70676	1.52676	3.2209	59.68	-0.2522	-0.0099	0.2423	789.9375	0.083727	-377.421908	-377.41582	-377.414876	-377.452089	23.357	
N	 0.0825332711	-1.1482399911	-0.1120919556	-0.33949
C	 0.0677859869	 0.0080529131	-0.0414263344	 0.175457
C	 0.0291486601	 1.4212427838	 0.0698880668	 0.205134
N	 0.2108211768	 2.3427215182	-1.0847490435	-0.331457
C	 1.1534855867	 2.4082391107	 0.0362827834	-0.160623
C	 0.4719004216	 3.2044642867	 1.2073535511	 0.031251
O	-0.8453367541	 3.5756125538	 0.8016511936	-0.197224
C	-0.632101394	 2.2496699776	 1.2476267643	-0.033608
H	 0.6541354523	 1.8043547074	-1.8302979582	 0.256098
H	 2.2113579314	 2.2108973518	-0.0712271319	 0.131964
H	 0.9618946562	 3.7821576917	 1.9797341665	 0.129526
H	-1.236613875	 1.8464150763	 2.0496150478	 0.132971
158.5006	159.3429	392.2305	419.2874	481.2899	537.1994	574.0359	676.7389	761.8432	804.3392	808.6031	857.7826	874.0818	925.5734	954.6531	1003.8189	1022.4395	1034.2993	1112.3618	1197.5458	1207.8896	1257.731	1314.6796	1359.7984	1397.9253	2339.6927	3204.0833	3215.9523	3222.0526	3476.0231
N#CC12NC1C1OC21	N#C[C@]12N[C@H]1[C@H]1O[C@@H]21	
InChI=1S/C5H4N2O/c6-1-5-3(7-5)2-4(5)8-2/h2-4,7H	InChI=1S/C5H4N2O/c6-1-5-3(7-5)2-4(5)8-2/h2-4,7H/t2-,3+,4-,5+/m1/s1
