19
gdb 63287	1.90112	1.6325	1.10028	2.9572	82.44	-0.2386	-0.0228	0.2158	1180.7048	0.155506	-385.873307	-385.863705	-385.862761	-385.907452	36.284	
C	-0.2165897981	 1.5522843407	-0.0330140046	-0.438497
C	-0.0126855005	 0.0373698511	-0.0318417528	 0.303361
C	-1.3173003371	-0.7086151321	-0.2880642889	-0.456152
C	 1.2035653458	-0.3789642922	-0.9270927478	-0.387726
C	 2.0571726229	-0.4670912526	 0.3402578352	 0.397278
O	 3.2280783638	-0.4461404962	 0.5661507097	-0.284551
C	 0.7917741624	-0.4591311246	 1.2450924856	-0.341075
C	 0.7832253188	 0.2908132781	 2.476444403	 0.329964
C	 0.7837276264	 0.9368252751	 3.4908904033	-0.438167
H	 0.7217249653	 2.0861617709	 0.1490520976	 0.126976
H	-0.6102819196	 1.8807984112	-1.0007972967	 0.11472
H	-0.9224156146	 1.8544725094	 0.7462495251	 0.129029
H	-1.7486703811	-0.4217089194	-1.2535120556	 0.120715
H	-1.1631373467	-1.7930871094	-0.2992935245	 0.112492
H	-2.0574138993	-0.4816085117	 0.4869884903	 0.127081
H	 1.0798770577	-1.3636378245	-1.3915362503	 0.128121
H	 1.5430325511	 0.3283359307	-1.6875227866	 0.131378
H	 0.5318131717	-1.5100510667	 1.4353578066	 0.126319
H	 0.791610121	 1.5012100722	 4.3903148514	 0.198732
61.3349	115.0976	150.2782	225.8136	248.0511	283.7082	330.0829	341.6665	358.8072	388.521	430.1898	530.283	585.9304	611.7488	624.0709	646.0435	727.7112	784.0631	849.0886	894.6399	960.1094	983.8943	1004.7097	1032.528	1081.0734	1089.6055	1129.3034	1177.8	1216.7715	1270.3481	1271.3847	1329.8241	1406.5893	1423.1963	1444.177	1480.6299	1488.7379	1502.1552	1503.4166	1900.4144	2233.0414	3012.9214	3024.646	3033.6133	3051.3109	3093.2363	3096.0748	3101.7213	3110.5915	3115.5327	3502.6193
CC1(C)CC(=O)C1C#C	CC1(C)CC(=O)[C@H]1C#C	
InChI=1S/C8H10O/c1-4-6-7(9)5-8(6,2)3/h1,6H,5H2,2-3H3	InChI=1S/C8H10O/c1-4-6-7(9)5-8(6,2)3/h1,6H,5H2,2-3H3/t6-/m1/s1
