15
gdb 47155	3.44548	1.11959	0.85388	4.1026	72.85	-0.2706	-0.0412	0.2294	1270.0353	0.111761	-420.643661	-420.635509	-420.634565	-420.677131	29.752	
O	-0.2018730425	 0.2051335048	-1.0807287719	-0.352967
C	-0.1010699455	 1.2533647884	-0.5062555465	 0.413473
O	-1.0698501641	 2.2216643286	-0.5386747883	-0.231057
C	-0.6499142583	 3.342065891	 0.2401289017	-0.131654
C	 0.7015347007	 2.9700390453	 0.7710407495	-0.198236
C	 1.0195535726	 1.7521524309	 0.3345579534	 0.159092
C	 2.2354971998	 0.900296896	 0.5551801642	-0.467245
C	 3.2485181048	 1.5197351705	 1.3993863508	 0.293704
C	 4.0715664135	 2.0474584661	 2.0975473398	-0.430577
H	-0.6250425934	 4.2328128157	-0.4003173163	 0.139049
H	-1.3851866431	 3.5199587601	 1.0350795331	 0.139034
H	 1.2962717904	 3.6134740794	 1.4054611388	 0.138411
H	 1.9176803075	-0.0601719965	 0.9831967645	 0.163783
H	 2.6621374434	 0.6383518622	-0.4226102387	 0.163785
H	 4.8126060544	 2.4948421774	 2.7127729858	 0.201407
47.7818	113.1344	180.6715	243.0783	256.5754	330.7206	392.8146	415.5023	570.5768	625.992	648.4144	664.0891	748.9631	778.0949	831.9952	853.2996	940.1062	958.901	966.706	1029.3813	1064.1048	1089.4522	1198.2862	1199.2844	1222.9625	1278.7274	1370.6039	1380.7596	1450.7082	1492.9255	1719.8197	1863.2184	2245.0775	3021.2345	3026.0628	3041.541	3058.0093	3232.7911	3504.907
O=C1OCC=C1CC#C	O=C1OCC=C1CC#C	
InChI=1S/C7H6O2/c1-2-3-6-4-5-9-7(6)8/h1,4H,3,5H2	InChI=1S/C7H6O2/c1-2-3-6-4-5-9-7(6)8/h1,4H,3,5H2
