17
gdb 74870	2.46688	1.6307	1.09434	2.885	74.28	-0.243	-0.0333	0.2097	1092.9563	0.134614	-421.825111	-421.816836	-421.815892	-421.858542	30.476	
C	 0.010904297	 1.4631087768	 0.1435226796	-0.48506
C	-0.0179219338	-0.0261986377	 0.0212165452	 0.288498
C	-0.012485631	-0.7618873483	-1.0981004866	-0.195695
C	 0.0052982756	-2.2166774559	-0.7864184982	 0.007969
O	 1.1755745713	-2.6412034651	-0.0391537768	-0.255154
C	-0.0205183443	-2.335527909	 0.6809318612	-0.001962
C	-0.0383199532	-0.9228771616	 1.2672168238	-0.193432
C	 1.1790688767	-0.652154633	 2.1457274978	 0.151416
O	 1.1689020046	 0.0757988506	 3.1048218624	-0.257024
H	 0.8866210726	 1.8024446371	 0.7085971988	 0.147736
H	 0.0277332018	 1.941487899	-0.8387650265	 0.128485
H	-0.8664921818	 1.8273947717	 0.6921211882	 0.136415
H	-0.0106487871	-0.3648463176	-2.1059184616	 0.105006
H	-0.3959098554	-2.9657659613	-1.4611046878	 0.10436
H	-0.4722214287	-3.1643521396	 1.2187425465	 0.106931
H	-0.9310821875	-0.7302228764	 1.8733272402	 0.102289
H	 2.1008587132	-1.1675179297	 1.8060201038	 0.109223
54.7309	110.9197	164.2523	212.4632	227.438	331.9602	428.5931	463.3404	468.3277	560.2952	663.8281	729.0316	797.8848	839.9793	859.7843	888.3369	933.7525	973.0028	1003.6913	1036.7445	1041.5095	1077.0554	1088.8315	1111.6573	1182.8897	1236.2107	1252.7947	1280.7758	1286.392	1342.3362	1395.3912	1414.3846	1419.8439	1475.5014	1482.6407	1690.8718	1820.47	2928.9231	3027.3873	3051.0365	3077.593	3120.6482	3152.6425	3173.9522	3208.4662
CC1=CC2OC2C1C=O	CC1=C[C@H]2O[C@H]2[C@H]1C=O	
InChI=1S/C7H8O2/c1-4-2-6-7(9-6)5(4)3-8/h2-3,5-7H,1H3	InChI=1S/C7H8O2/c1-4-2-6-7(9-6)5(4)3-8/h2-3,5-7H,1H3/t5-,6+,7-/m0/s1
