17
gdb 75144	3.19429	1.14322	1.11464	4.1127	74.3	-0.2313	0.0255	0.2568	1162.7567	0.137583	-414.224946	-414.21634	-414.215396	-414.257983	32.636	
C	 0.0701003062	 1.4710227445	 0.1074992147	-0.4357
C	-0.0528562233	-0.0587308621	 0.0017580538	 0.110842
C	 0.8016616837	-0.6328140582	-1.196014211	-0.196406
N	 2.0260061671	-1.1504756673	-0.5988910841	-0.308308
C	 1.8394074584	-1.1677062527	 0.6663259435	 0.415578
N	 2.7755462805	-1.5448956913	 1.6045890764	-0.58488
N	 0.5874845806	-0.7465560764	 1.1373354238	-0.355734
C	-1.4697760542	-0.4399204532	-0.1014111059	 0.269772
N	-2.5875539557	-0.7147353628	-0.2044168234	-0.343071
H	 1.1288525783	 1.7446107217	 0.1305619869	 0.141067
H	-0.3985658825	 1.954125747	-0.7541706786	 0.144378
H	-0.4169759343	 1.8462705574	 1.0128791874	 0.131121
H	 0.2580660302	-1.4334196844	-1.7110652567	 0.127656
H	 1.006097126	 0.1521572795	-1.9318164842	 0.114911
H	 3.5639790511	-2.0198352868	 1.1874322849	 0.267437
H	 2.4000643846	-2.0418655055	 2.4003524077	 0.258714
H	 0.5915805831	-0.2309152693	 2.0089015848	 0.242623
78.0309	155.0412	191.6588	233.7506	267.9868	328.1549	375.7804	394.3684	409.9581	491.64	563.4256	577.9049	607.3009	682.9227	703.1585	752.5259	841.6028	915.161	941.3588	985.1579	990.4988	1031.6545	1117.6094	1146.3203	1197.3535	1207.8527	1255.6493	1321.0966	1358.8794	1407.8027	1473.7278	1488.7564	1492.2968	1505.2746	1628.6729	1744.4063	2356.2537	3032.1959	3039.9697	3068.5902	3116.8148	3126.544	3560.3775	3562.5929	3664.0657
CC1(CN=C(N)N1)C#N	C[C@]1(C[N][C](N)N1)C#N	
InChI=1S/C5H8N4/c1-5(2-6)3-8-4(7)9-5/h3H2,1H3,(H3,7,8,9)	InChI=1S/C5H8N4/c1-5(2-6)3-8-4(7)9-5/h3H2,1H3,(H3,7,8,9)/t5-/m1/s1
