14
gdb 27447	2.54336	1.75177	1.11947	4.6416	74.31	-0.2417	-0.0846	0.157	1028.3008	0.102849	-432.912652	-432.905196	-432.904251	-432.944665	28.19	
N	 0.0603585849	 1.2466279322	 0.3825021702	-0.507844
C	-0.0512379271	-0.0346950791	-0.0550111092	 0.417736
N	-1.2259549039	-0.5761350074	-0.0973202483	-0.331584
C	-1.4987600513	-1.9068697837	-0.3158946328	 0.335403
O	-2.4940405775	-2.2917856079	-0.8974540553	-0.340909
C	-0.5844888754	-2.9251035173	 0.2824000658	-0.149866
C	 0.758120434	-2.8698385272	 0.2203394378	-0.084836
C	 1.5166512455	-1.7641036869	-0.3355879321	 0.013325
N	 1.1917695755	-0.5283403411	-0.4734737856	-0.27601
H	 0.9045297167	 1.7473730747	 0.1652042091	 0.270699
H	-0.7898604812	 1.7617504206	 0.5377451812	 0.273141
H	-1.0786967638	-3.8201948104	 0.650303621	 0.137314
H	 1.3447471402	-3.7322249379	 0.5270351166	 0.116452
H	 2.5277452735	-2.0140270886	-0.6676746284	 0.126978
92.3159	145.7229	249.0181	320.182	370.1342	411.2796	433.8515	462.3633	546.2182	561.5521	624.3808	699.9081	741.5463	817.6946	834.1218	886.5001	927.4171	992.8171	1012.8964	1021.168	1118.2409	1202.7823	1310.4245	1370.4265	1413.8744	1446.2164	1583.0269	1621.2196	1671.7413	1701.757	1763.6111	3095.2569	3157.1148	3181.1087	3611.5737	3746.1968
NC1=NC(=O)C=CC=N1	Nc1nc(=O)cccn1	
InChI=1S/C5H5N3O/c6-5-7-3-1-2-4(9)8-5/h1-3H,(H2,6,8,9)	InChI=1S/C5H5N3O/c6-5-7-3-1-2-4(9)8-5/h1-3H,(H2,6,8,9)
