17
gdb 127463	3.48485	1.12896	0.87899	5.0588	71.66	-0.2264	0.0228	0.2492	1294.7575	0.137342	-451.35099	-451.341796	-451.340852	-451.385504	32.599	
C	-0.2318798961	 1.4159158979	 0.0400434695	-0.337926
N	-0.0635523657	-0.0170325854	-0.0172990056	-0.00078
N	-0.0706973021	-0.6905575917	-1.2151824615	-0.321017
C	 0.0989604628	-1.9399963589	-0.8356650382	 0.329687
C	 0.1311405676	-3.1143744746	-1.7671295088	-0.149221
O	 1.0941563654	-4.0678401941	-1.3610836733	-0.421189
N	 0.2421969595	-2.1263947109	 0.5119756847	-0.393585
C	 0.143556749	-0.8959865571	 0.9868786342	 0.399526
N	 0.1602756777	-0.5358733162	 2.3220620264	-0.60559
H	 0.7274014746	 1.9431929514	-0.020034922	 0.139822
H	-0.8529751881	 1.7208837468	-0.8026305941	 0.167214
H	-0.7347100541	 1.6831076871	 0.9733221067	 0.1471
H	-0.8749707971	-3.5652255249	-1.8131127253	 0.099672
H	 0.3847262874	-2.777569701	-2.7761364449	 0.124565
H	 1.0639384774	-4.0800289179	-0.3962125389	 0.293497
H	 0.4213974874	-1.3202491525	 2.9041136738	 0.26952
H	 0.7166657144	 0.2802893521	 2.5381592173	 0.258706
50.6896	101.4874	134.0367	183.8206	227.8875	265.3606	287.58	340.0521	367.4023	412.4296	525.7602	650.722	652.1269	682.8563	746.8643	773.8273	846.4571	1010.0884	1033.798	1045.8036	1081.8723	1124.7526	1152.3916	1221.126	1262.687	1305.5891	1352.608	1393.142	1436.4181	1444.2388	1488.4065	1501.718	1506.2673	1520.4169	1581.3764	1596.2951	1655.9186	2956.6536	3032.3467	3090.5697	3104.8843	3153.6732	3554.6693	3651.3619	3777.8513
CN1N=C(CO)N=C1N	Cn1nc(CO)nc1N	
InChI=1S/C4H8N4O/c1-8-4(5)6-3(2-9)7-8/h9H,2H2,1H3,(H2,5,6,7)	InChI=1S/C4H8N4O/c1-8-4(5)6-3(2-9)7-8/h9H,2H2,1H3,(H2,5,6,7)
