21
gdb 101692	3.3579	0.85416	0.76208	3.6301	75.07	-0.2578	0.0543	0.3121	1541.207	0.180097	-461.338083	-461.327932	-461.326988	-461.373573	37.532	
C	 0.2251843382	 1.586623727	-0.4720041817	-0.471447
C	-0.0102272916	 0.1199789813	-0.1798943461	 0.434917
C	-1.4222710701	-0.4180872442	-0.3624633396	-0.303684
C	-2.422598319	 0.0793058584	 0.6864245639	 0.097284
O	-2.7465584013	 1.4710722784	 0.5431982375	-0.435784
C	-3.7257468136	-0.7252539028	 0.6834184975	-0.061938
O	-4.646976947	-0.1998479521	 1.6114074393	-0.42415
C	 1.1188985474	-0.8204579629	-0.2621271124	-0.231431
O	 0.6344551147	-0.3728893414	 1.0066699594	-0.274031
H	 1.2647817553	 1.8519558262	-0.2649288317	 0.123664
H	 0.0156816371	 1.8068871386	-1.5252807018	 0.110924
H	-0.4298981607	 2.2108274344	 0.1397026145	 0.151237
H	-1.7897946847	-0.1698558342	-1.3688089036	 0.091327
H	-1.3885022739	-1.5117648976	-0.3025487135	 0.109332
H	-1.9683796446	 0.0063908618	 1.6800656101	 0.121063
H	-3.0497583775	 1.609325487	-0.3626009872	 0.280963
H	-4.142446534	-0.7303221627	-0.3424895706	 0.067412
H	-3.5308491903	-1.7672543986	 0.9601899914	 0.110125
H	-4.5472583653	 0.7597147524	 1.5539164475	 0.284609
H	 0.9389392182	-1.8711916058	-0.488327993	 0.108415
H	 2.1065643628	-0.4534297132	-0.5397370299	 0.111193
51.2863	74.1284	136.3328	159.9523	206.5402	262.1318	300.2714	338.0318	361.429	380.7188	402.7706	454.9181	468.8186	519.7033	603.554	732.3923	839.7324	852.6225	890.9086	914.5755	931.5863	1005.2362	1052.8943	1067.7332	1093.2769	1102.3325	1115.2965	1137.9049	1159.0878	1191.4119	1215.5131	1277.033	1284.736	1322.8916	1371.5158	1383.2637	1404.5903	1420.3383	1426.842	1446.6112	1464.5264	1484.1971	1505.5372	1508.8177	1532.8291	2918.6296	3008.393	3038.1026	3062.1026	3065.7834	3075.7961	3081.131	3108.6443	3137.2957	3160.4884	3759.7065	3780.4889
CC1(CC(O)CO)CO1	C[C@@]1(C[C@@H](O)CO)CO1	
InChI=1S/C6H12O3/c1-6(4-9-6)2-5(8)3-7/h5,7-8H,2-4H2,1H3	InChI=1S/C6H12O3/c1-6(4-9-6)2-5(8)3-7/h5,7-8H,2-4H2,1H3/t5-,6-/m1/s1
