21
gdb 92349	2.85752	1.57911	1.40744	1.6399	77.19	-0.2515	0.079	0.3305	1039.6777	0.185431	-424.251737	-424.244232	-424.243288	-424.283212	31.087	
C	 0.1612028719	 1.5745807862	 0.007265458	-0.400313
C	 0.0196666371	 0.0672436235	 0.0019166492	 0.224509
O	 0.5992828737	-0.425491813	-1.1904381337	-0.284266
C	 0.8067906672	-1.8424246285	-1.1843757281	 0.119789
C	-0.4648083579	-2.6284251853	-0.7822623535	-0.23996
C	-0.4339609684	-2.6368684621	 0.7753776997	-0.239962
C	 0.8527338034	-1.855012353	 1.1353270303	 0.119787
C	 1.7813841574	-2.1712139071	-0.0451212837	-0.225604
O	 0.6459696867	-0.4382638527	 1.1649459526	-0.284259
H	 1.2200976066	 1.8429679071	-0.0115987957	 0.129803
H	-0.3310122392	 1.9970759162	-0.8718642745	 0.123341
H	-0.296873451	 1.9876536192	 0.9090332263	 0.123321
H	-1.0475614379	-0.215005374	 0.0215470481	 0.059191
H	 1.1656452781	-2.0871712853	-2.1857398803	 0.074877
H	-1.3638459579	-2.1648815118	-1.1959721145	 0.111646
H	-0.4062099092	-3.6429455561	-1.1869611678	 0.101082
H	-1.3158160428	-2.1780299734	 1.2293562822	 0.111646
H	-0.359603409	-3.6557017801	 1.1664227209	 0.101082
H	 1.2508946428	-2.1105217108	 2.1189886014	 0.074877
H	 2.068846253	-3.2286534457	-0.0565641485	 0.091861
H	 2.6754447754	-1.5455805936	-0.0594274983	 0.107554
161.059	202.069	228.3371	296.6621	374.5348	381.0971	448.9037	454.748	528.7133	604.0006	765.8707	777.2064	813.4676	814.3519	832.8355	894.5723	905.6644	913.8169	953.6135	975.9935	982.1899	1023.682	1065.2248	1074.2292	1122.5322	1125.9566	1168.344	1177.0683	1203.9052	1234.3435	1252.2356	1260.6289	1302.3243	1335.8543	1346.139	1379.4177	1383.1711	1395.7348	1397.9647	1433.2157	1470.745	1478.9894	1482.0866	1488.0481	1501.5644	2949.9789	3047.4046	3054.7252	3056.2669	3064.401	3093.8807	3097.8999	3099.5775	3115.5095	3124.6637	3137.8373	3139.6096
CC1OC2CCC(C2)O1	C[C@H]1O[C@@H]2CC[C@@H](C2)O1	
InChI=1S/C7H12O2/c1-5-8-6-2-3-7(4-6)9-5/h5-7H,2-4H2,1H3	InChI=1S/C7H12O2/c1-5-8-6-2-3-7(4-6)9-5/h5-7H,2-4H2,1H3/t5-,6+,7-
