17
gdb 53522	3.11303	0.82275	0.67349	2.1664	84.92	-0.2477	-0.0318	0.216	1643.3037	0.131139	-384.639615	-384.628876	-384.627932	-384.677758	35.975	
C	 0.0026546217	 1.5029548354	-0.0094269226	-0.499078
C	 0.019722682	 0.0487763795	 0.0497544326	 0.120546
C	 0.0406760797	-1.1539484498	 0.0989818757	 0.016907
C	 0.0153240844	-2.6096027299	 0.1460742342	-0.370767
C	-1.4271851875	-3.1858460971	 0.0017622917	-0.242035
C	-2.0176438053	-2.780428811	-1.3560884122	 0.179386
O	-3.0264705125	-2.147579329	-1.4933875927	-0.23555
C	-1.4182111945	-4.640865753	 0.0871758603	 0.295837
C	-1.3951287358	-5.8427403896	 0.1086291412	-0.436003
H	 0.7037041242	 1.87865848	-0.7626553272	 0.150251
H	-0.9946127178	 1.8738508441	-0.2695017096	 0.156612
H	 0.2810514813	 1.9439015135	 0.9539186479	 0.149834
H	 0.6400272842	-3.0332376432	-0.6504664637	 0.140232
H	 0.4336886612	-2.9784553297	 1.088973415	 0.146779
H	-2.0711581142	-2.7541931921	 0.7741933121	 0.134227
H	-1.4192711052	-3.1382123165	-2.223807284	 0.087923
H	-1.3889415759	-6.9041795417	 0.1483359213	 0.204898
24.0947	46.9081	57.5369	83.8206	154.6264	194.277	212.0328	266.0558	326.2244	385.0548	439.0084	469.0579	490.9438	551.2912	646.4399	648.7209	774.4759	841.6862	941.3988	994.9183	1050.1781	1052.7186	1063.6604	1079.216	1171.0598	1196.3578	1271.8045	1300.2652	1346.4508	1414.646	1417.3178	1474.04	1477.4633	1477.7114	1845.779	2232.2522	2374.9864	2884.0037	3029.1585	3029.7364	3063.6604	3075.7457	3090.9727	3093.0484	3502.7303
CC#CCC(C=O)C#C	CC#CC[C@@H](C=O)C#C	
InChI=1S/C8H8O/c1-3-5-6-8(4-2)7-9/h2,7-8H,6H2,1H3	InChI=1S/C8H8O/c1-3-5-6-8(4-2)7-9/h2,7-8H,6H2,1H3/t8-/m0/s1
