18
gdb 37180	3.85321	1.66953	1.52331	1.5233	74.14	-0.2187	0.069	0.2877	908.8018	0.14995	-401.83421	-401.82808	-401.827135	-401.86421	27.022	
C	-0.034677886	 1.4694618862	 0.1894425614	-0.193184
C	 1.500189317	 1.4955415161	-0.1208556031	-0.343531
C	 1.254718184	 0.1340959236	-0.7849037614	 0.307978
C	 0.4080029189	 0.1403986059	-2.1034411786	-0.273769
C	-0.4563485473	-0.7864520793	-1.2310957985	-0.061043
C	 0.516993361	-1.9955792098	-1.013850039	 0.057786
O	 1.6337649264	-2.0742289815	-1.9172581487	-0.255787
C	 1.7831423636	-1.3100869804	-0.7130279162	-0.038945
N	-0.0208526612	-0.0353791867	 0.0261133844	-0.144087
H	-0.3365467856	 1.7525528599	 1.1998121443	 0.109477
H	-0.6347895778	 2.0391833546	-0.5270175446	 0.106456
H	 1.8815814345	 2.2981822804	-0.7545347207	 0.107741
H	 2.1019576577	 1.425336947	 0.7886135003	 0.117504
H	-0.0552254097	 1.1065232326	-2.2923737209	 0.099932
H	 0.8497746548	-0.2602987206	-3.0134425121	 0.120252
H	-1.5105046261	-1.0099163606	-1.4011752082	 0.069423
H	 0.1883034189	-2.9270150643	-0.5679685014	 0.107818
H	 2.521453457	-1.6484997232	 0.0047192132	 0.105979
279.2393	310.2915	319.0737	460.3793	496.7474	538.3849	579.8435	655.0774	719.5355	770.5137	802.8276	824.2571	843.7501	878.8494	882.7792	899.7022	917.0184	932.3089	969.7523	1005.0441	1011.3986	1039.3163	1067.1596	1086.9249	1143.1278	1171.3315	1198.8374	1201.9747	1223.2787	1226.8539	1252.7437	1260.2534	1274.2277	1280.5107	1319.4591	1380.1494	1476.8324	1484.988	1525.8797	3047.2862	3069.3837	3100.9222	3104.1824	3114.9049	3130.2859	3170.4085	3180.3304	3192.1088
C1CC23CC(C4OC24)N13	C1C[C@@]23C[C@@H]([C@H]4O[C@@H]24)N13	
InChI=1S/C7H9NO/c1-2-8-4-3-7(1,8)6-5(4)9-6/h4-6H,1-3H2	InChI=1S/C7H9NO/c1-2-8-4-3-7(1,8)6-5(4)9-6/h4-6H,1-3H2/t4-,5+,6+,7+/m0/s1
