15
gdb 128963	3.9509	1.65569	1.16675	2.4255	82.16	-0.2049	-0.0311	0.1738	978.5899	0.118244	-379.742868	-379.736899	-379.735955	-379.772981	24.846	
N	 0.0133145449	 1.3233991604	 0.0093820855	-0.163009
C	 1.2447757471	 1.8761470692	 0.0004886015	-0.172557
C	 2.1365144005	 0.8039020274	-0.0139701747	 0.22309
C	 3.5444002064	 0.6570525124	-0.0283747336	-0.247326
C	 4.0612724226	-0.6134555992	-0.04030616	-0.112654
C	 3.2165666922	-1.762676041	-0.0384189879	-0.109624
C	 1.8494496663	-1.6555981663	-0.0246231689	-0.203499
C	 1.2869749851	-0.3564014019	-0.0120950749	 0.316558
N	-0.0173045026	-0.0185675351	 0.0023678947	-0.336954
H	-0.8643960863	 1.8180612911	 0.0205598992	 0.279557
H	 1.389189972	 2.9444065192	 0.0049179612	 0.140529
H	 4.1940261761	 1.5259773327	-0.0299109956	 0.093939
H	 5.1366129234	-0.7571924769	-0.0514832953	 0.092552
H	 3.6774148012	-2.745131208	-0.0482349097	 0.094525
H	 1.204952231	-2.5271641239	-0.0231491913	 0.104873
221.0954	261.2524	411.3609	443.5966	548.6991	578.289	612.4859	618.5148	683.7075	726.4988	775.3388	777.8431	795.5256	873.518	901.9686	937.8288	946.5741	976.9441	1016.6827	1078.4845	1146.486	1171.1061	1203.1002	1257.3054	1303.4216	1361.3072	1389.2575	1416.6571	1484.0875	1505.1834	1552.8464	1585.761	1672.1268	3170.3668	3180.1011	3193.5725	3203.4966	3266.1659	3654.6786
N1C=C2C=CC=CC2=N1	[nH]1cc2ccccc2n1	
InChI=1S/C7H6N2/c1-2-4-7-6(3-1)5-8-9-7/h1-5H,(H,8,9)	InChI=1S/C7H6N2/c1-2-4-7-6(3-1)5-8-9-7/h1-5H,(H,8,9)
