17
gdb 6815	3.14395	1.69363	1.44726	2.8588	68.38	-0.2657	0.0163	0.2819	932.5865	0.140836	-363.870128	-363.861755	-363.860811	-363.902879	30.492	
C	-0.182947087	 1.5400007438	 0.0180743235	-0.429994
C	-0.025765973	 0.0267625617	 0.0201041422	 0.417575
C	-1.2937981976	-0.6967582724	-0.4011006062	-0.43228
O	 1.1027070107	-0.3762582618	-0.8100209392	-0.312399
C	 1.8875914284	-0.7722159941	 0.3219417295	-0.08176
C	 0.6882646106	-0.5805177034	 1.2843766455	-0.261806
C	 0.8791449776	 0.2558943982	 2.4534019021	 0.285445
N	 1.0353790599	 0.9303825817	 3.3796374228	-0.332496
H	 0.7413222152	 2.0359905379	 0.3244432667	 0.134982
H	-0.4354403258	 1.8754459961	-0.9921461972	 0.129068
H	-0.9807300488	 1.8529800004	 0.6986864523	 0.131002
H	-1.5920822997	-0.3754536525	-1.4038449861	 0.133998
H	-1.1355885257	-1.7784896198	-0.4234750734	 0.122378
H	-2.1142348091	-0.4737057967	 0.2889305119	 0.127033
H	 2.26294838	-1.7967481644	 0.2346312119	 0.119104
H	 2.726024527	-0.092040734	 0.5116654246	 0.121761
H	 0.2364317772	-1.5271467909	 1.5886679289	 0.128389
68.628	143.8577	190.8653	204.9064	247.3063	303.7455	346.7976	380.8184	429.4333	531.0252	561.514	645.373	755.9416	862.7195	905.9885	940.0155	984.6615	996.497	1025.3267	1059.9813	1084.6818	1162.5701	1176.1498	1180.6257	1256.0661	1266.2955	1337.8816	1362.4755	1404.4428	1418.4247	1470.7887	1479.9135	1492.7022	1502.8639	1526.7006	2354.4206	3029.7952	3036.9349	3045.1425	3076.8763	3093.9205	3110.5701	3118.1653	3119.5153	3126.7352
CC1(C)OCC1C#N	CC1(C)OC[C@H]1C#N	
InChI=1S/C6H9NO/c1-6(2)5(3-7)4-8-6/h5H,4H2,1-2H3	InChI=1S/C6H9NO/c1-6(2)5(3-7)4-8-6/h5H,4H2,1-2H3/t5-/m1/s1
