16
gdb 25770	4.20076	1.02464	0.82799	2.9442	77.7	-0.207	-0.0362	0.1708	1321.0188	0.123874	-437.943172	-437.934442	-437.933498	-437.97673	32.096	
C	-0.04193706	 1.507888753	-0.0376001948	-0.513752
C	 0.0525752398	-0.0134811706	 0.0135290992	 0.313829
O	 1.1318471156	-0.57832344	 0.0376884944	-0.325275
C	-1.1973085946	-0.7687288048	 0.0322110674	 0.254025
C	-1.3753424755	-2.1481336557	 0.0770401691	-0.365677
C	-2.7622914733	-2.3930735321	 0.0781680504	 0.330809
O	-3.4196219677	-3.5848979811	 0.1143941552	-0.445095
C	-3.4121185526	-1.1682999709	 0.0341860062	-0.153085
N	-2.4499599881	-0.1988556658	 0.0068082181	-0.328932
H	 0.9662296133	 1.9221747496	-0.0456037321	 0.148269
H	-0.5723631668	 1.8398590937	-0.937876293	 0.132294
H	-0.5825958976	 1.8988283726	 0.8323973289	 0.132229
H	-0.5711573399	-2.8672995949	 0.1049838982	 0.120318
H	-2.7689286443	-4.2921827867	 0.1415167555	 0.301548
H	-4.464239568	-0.9373982085	 0.0211603175	 0.13251
H	-2.6342670605	 0.7881668422	-0.0269219503	 0.265986
83.2486	116.2388	155.132	162.9998	253.4936	335.4773	338.2534	418.7082	457.8266	509.3828	567.409	602.3648	639.8477	684.4525	707.7542	741.1483	827.7548	917.183	988.5564	999.4483	1036.9507	1094.449	1127.2984	1174.463	1243.6829	1308.6201	1361.5186	1370.3068	1463.735	1466.6945	1477.4081	1480.1045	1528.3001	1643.1359	1755.1703	3028.1881	3088.6385	3155.2127	3254.6929	3274.404	3689.0387	3845.4994
CC(=O)C1=CC(O)=CN1	CC(=O)c1cc(O)c[nH]1	
InChI=1S/C6H7NO2/c1-4(8)6-2-5(9)3-7-6/h2-3,7,9H,1H3	InChI=1S/C6H7NO2/c1-4(8)6-2-5(9)3-7-6/h2-3,7,9H,1H3
