22
gdb 86220	2.44917	1.18067	0.85466	4.2465	86.73	-0.3042	0.0389	0.3431	1405.5104	0.195052	-367.260234	-367.250702	-367.249758	-367.295129	35.692	
C	-0.0877797345	 1.5968711955	 0.0158583512	-0.412022
C	 0.0413815687	 0.0757733876	-0.0418171866	 0.046907
C	 0.9250291843	-0.4557234873	-1.1833333274	-0.227494
C	 1.2483920434	-1.897909205	-0.7695958925	 0.031187
C	 2.3675696765	-2.5790794705	-1.5512619126	-0.42128
C	 1.5503974	-1.7383218846	 0.751272692	-0.133334
C	 0.6581240441	-0.5500407962	 1.239329427	-0.249008
C	 1.3568674197	-2.972444736	 1.5045980851	 0.26344
N	 1.192811832	-3.9560708026	 2.0903618549	-0.335561
H	 0.8933042619	 2.0688570668	 0.145365169	 0.113665
H	-0.5304136982	 1.9930285054	-0.9040510254	 0.116666
H	-0.7215125193	 1.9120938333	 0.8514763866	 0.118574
H	-0.9612205389	-0.3502490072	-0.1764863013	 0.079836
H	 0.4381167226	-0.3982481392	-2.1616398593	 0.100637
H	 1.8544659239	 0.1287425614	-1.2474025848	 0.092952
H	 0.3325165995	-2.4950068578	-0.8657550625	 0.093063
H	 3.2982811547	-2.0031077928	-1.4870489347	 0.114778
H	 2.565560489	-3.5845413049	-1.1664055259	 0.135
H	 2.1057768043	-2.6726582006	-2.6098356066	 0.120321
H	 2.6061239866	-1.4601158825	 0.8559985569	 0.117395
H	 1.2756550091	 0.1787627856	 1.7728549217	 0.11008
H	-0.1114108696	-0.8858718283	 1.9375496651	 0.124197
31.33	130.8004	138.9921	215.4582	233.8617	246.1863	259.5227	346.1652	407.502	423.6675	493.106	501.4071	559.5606	610.6302	779.515	842.0683	886.3121	913.3138	925.0962	944.5612	990.341	1009.9797	1044.4158	1069.2849	1079.5368	1127.2956	1157.7841	1178.4519	1188.7391	1243.587	1276.1749	1290.1141	1312.0114	1322.1535	1351.1067	1364.6168	1379.9473	1386.6174	1414.1103	1415.5476	1490.7703	1496.1918	1496.3636	1497.8981	1500.2456	1505.0597	2351.9662	3004.875	3016.0561	3023.3609	3026.6257	3029.1052	3038.5387	3059.9605	3082.5083	3093.1355	3097.5702	3099.0844	3106.6982	3110.9551
CC1CC(C)C(C1)C#N	C[C@H]1C[C@@H](C)[C@@H](C1)C#N	
InChI=1S/C8H13N/c1-6-3-7(2)8(4-6)5-9/h6-8H,3-4H2,1-2H3	InChI=1S/C8H13N/c1-6-3-7(2)8(4-6)5-9/h6-8H,3-4H2,1-2H3/t6-,7+,8-/m0/s1
