14
gdb 45871	2.11963	1.7886	1.2997	1.7066	67.99	-0.244	-0.0472	0.1968	993.4166	0.099894	-436.662998	-436.655	-436.654056	-436.696234	28.902	
O	 0.0526601106	-0.0024566707	 0.1822782352	-0.292827
C	-0.0199219522	 1.1848419775	 0.0046998034	 0.359878
C	-1.3135827346	 1.9586160764	-0.158930116	-0.26208
N	-1.2167705956	 3.2063448056	-0.903156606	-0.260142
C	-0.0874529031	 3.5995704665	-1.3027872124	 0.138813
O	 1.1425280178	 3.0521668743	-1.1069863947	-0.222867
C	 1.2464617178	 2.0663135889	-0.0589371782	-0.159389
C	 1.463817307	 2.6987755918	 1.2374239687	 0.335064
C	 1.604581871	 3.2046400927	 2.3180556073	-0.453764
H	-2.0482032464	 1.3038651653	-0.6390955658	 0.153143
H	-1.709184341	 2.1710174116	 0.8446632748	 0.157989
H	 0.0065988342	 4.4931266906	-1.9161613149	 0.138802
H	 2.0919370925	 1.4287747047	-0.3278469716	 0.150361
H	 1.745198572	 3.6536564248	 3.2709055301	 0.217019
64.6334	89.213	128.0712	218.7008	348.4118	427.845	435.5253	468.7138	541.7805	591.534	613.8093	642.797	689.7177	741.1207	890.5225	945.5264	954.238	977.8204	1016.5594	1020.6123	1136.0769	1195.6774	1242.6399	1271.1304	1328.3425	1338.9494	1403.3508	1438.6462	1750.6608	1841.4903	2234.8626	3018.7434	3078.0684	3093.5388	3169.8136	3499.4433
O=C1CN=COC1C#C	O=C1CN=CO[C@H]1C#C	
InChI=1S/C6H5NO2/c1-2-6-5(8)3-7-4-9-6/h1,4,6H,3H2	InChI=1S/C6H5NO2/c1-2-6-5(8)3-7-4-9-6/h1,4,6H,3H2/t6-/m0/s1
