21
gdb 63007	2.34186	1.7273	1.4728	1.1417	80.32	-0.2429	0.0787	0.3216	1026.813	0.183131	-387.068911	-387.060788	-387.059843	-387.100716	33.877	
C	-0.0184716842	 1.5655138714	 0.0022142603	-0.422483
C	 0.0300548764	 0.0351392229	-0.0104214924	 0.345607
O	-1.3040410853	-0.4896529926	 0.0466768093	-0.475274
C	 0.7400050008	-0.5660350144	-1.2410381101	-0.068438
C	 2.2052243002	-0.3287218467	-1.5084724614	-0.320151
C	 1.766472555	-1.5737278625	-0.7744454148	-0.03595
C	 1.755642339	-1.5850417244	 0.7453242747	-0.042224
C	 2.1769805415	-0.3478945395	 1.5018861893	-0.322448
C	 0.7184145008	-0.5879538529	 1.2129897556	-0.030655
H	 0.9842779126	 2.0010306004	 0.0094809943	 0.114505
H	-0.5349578507	 1.9433534712	-0.8888304292	 0.10043
H	-0.5574288425	 1.9185524647	 0.8862152433	 0.121135
H	-1.7988310011	-0.1049931513	-0.684756808	 0.272259
H	 0.0976265852	-0.76351736	-2.094104116	 0.071665
H	 2.5324709383	-0.4518507231	-2.5360006885	 0.107065
H	 2.7406405841	 0.4518473956	-0.9816419782	 0.109954
H	 1.885719781	-2.5294023347	-1.2714788204	 0.082621
H	 1.8704405968	-2.5473064214	 1.2303856363	 0.082658
H	 2.4888684692	-0.482528743	 2.5325619217	 0.108802
H	 2.716795693	 0.4419979914	 0.9936298715	 0.108956
H	 0.0536602498	-0.7948997011	 2.0437080627	 0.091965
160.1907	195.2795	237.7277	274.1978	338.3176	359.3396	360.9091	393.5694	488.9223	522.8637	597.4435	672.9926	695.3152	786.5314	795.1174	829.8948	835.1269	920.9849	933.3012	953.4596	971.9857	985.6687	1028.3509	1040.2608	1054.1489	1073.4375	1089.2512	1090.5507	1102.0687	1110.6951	1115.9077	1176.2487	1185.0484	1203.7839	1219.0311	1301.2296	1340.4648	1357.7058	1378.861	1401.5539	1409.7551	1479.0592	1489.0432	1491.7243	1512.7848	3027.2924	3095.5382	3121.5921	3132.8701	3138.455	3145.9343	3167.0762	3174.5492	3182.762	3213.0731	3220.5546	3805.4774
CC1(O)C2CC2C2CC12	C[C@@]1(O)[C@H]2C[C@H]2[C@H]2C[C@@H]12	
InChI=1S/C8H12O/c1-8(9)6-2-4(6)5-3-7(5)8/h4-7,9H,2-3H2,1H3	InChI=1S/C8H12O/c1-8(9)6-2-4(6)5-3-7(5)8/h4-7,9H,2-3H2,1H3/t4-,5+,6-,7+,8+
