13
gdb 48050	3.94596	0.68346	0.58463	2.2193	76.23	-0.2626	-0.1078	0.1548	1755.8788	0.084725	-419.369137	-419.35957	-419.358625	-419.406362	31.71	
O	-0.868006202	 1.5205052814	 0.2482481546	-0.214874
C	 0.1404221578	 1.0464046556	-0.1964778311	 0.083141
C	 1.4242616759	 1.8457989947	-0.4716666025	 0.117093
O	 2.3846664497	 1.2580872714	-0.9234678241	-0.254339
C	 1.3865832825	 3.2492218973	-0.1676176283	 0.08466
C	 1.3429236859	 4.4263963043	 0.0915178416	 0.115318
C	 1.2734204658	 5.8498307208	 0.41058644	-0.503869
C	 2.5097076268	 6.5821767697	 0.1381668357	 0.311372
C	 3.5186125737	 7.1930795099	-0.0814038127	-0.423439
H	 0.2609869637	-0.0251954657	-0.4601925394	 0.113124
H	 0.4415608754	 6.2949178493	-0.153307953	 0.180679
H	 0.9984156943	 5.9584180565	 1.4691945076	 0.180679
H	 4.4143729705	 7.7290741448	-0.2776876083	 0.210455
11.3168	56.0982	115.0727	117.6995	138.6692	261.959	312.8249	346.1305	373.5852	437.079	540.5408	605.9067	637.6667	660.776	681.6318	707.4508	920.3312	933.6493	1028.4009	1030.7291	1226.5098	1247.8207	1333.8569	1363.4935	1435.598	1753.9155	1833.2106	2252.9141	2340.5661	2931.2617	3011.4806	3036.9086	3504.8988
O=CC(=O)C#CCC#C	O=CC(=O)C#CCC#C	
InChI=1S/C7H4O2/c1-2-3-4-5-7(9)6-8/h1,6H,3H2	InChI=1S/C7H4O2/c1-2-3-4-5-7(9)6-8/h1,6H,3H2
