15
gdb 19244	3.23158	2.07017	1.61013	1.4297	66.43	-0.2364	0.0197	0.2561	820.244	0.117682	-362.570335	-362.562683	-362.561739	-362.60245	28.322	
O	-0.1826031269	 1.4442642363	 0.1314916094	-0.42695
C	-0.0393188267	 0.056010579	-0.0066909792	 0.105997
C	-1.3546076991	-0.7029499279	 0.0008406026	-0.039374
C	-2.1733707227	-0.3393672669	-1.1696454801	-0.23571
N	-1.1018335948	-1.3327511012	-1.3669451272	-0.13351
C	 0.1948080574	-0.5471838547	-1.4429182754	-0.226868
C	 0.3545414676	 0.3841306036	-2.5387793422	 0.350566
C	 0.5041684517	 1.1936709364	-3.4164339658	-0.44449
H	 0.5881395269	 1.8673787504	-0.2635441763	 0.288149
H	 0.6900211006	-0.3499199725	 0.7060761794	 0.08192
H	-1.7330283021	-1.2881676587	 0.8311529738	 0.099732
H	-3.1610495351	-0.783488933	-1.2386766847	 0.124878
H	-2.0756475894	 0.6465839454	-1.6132256142	 0.139452
H	 1.0163857225	-1.2685098881	-1.4371140618	 0.112081
H	 0.6322353799	 1.888423592	-4.2097596183	 0.204128
67.603	128.5312	174.5997	213.7164	337.6014	381.6239	503.1363	553.8889	610.9311	625.8309	664.1653	758.8041	775.1084	789.1983	827.8816	949.2672	980.8653	1021.4843	1050.2432	1068.2537	1109.3372	1140.1037	1148.7573	1187.9168	1231.537	1251.5737	1325.4715	1346.4458	1371.745	1420.5241	1497.0118	2226.2444	3017.0218	3071.5294	3127.2194	3179.4301	3217.8497	3500.5513	3803.3294
OC1C2CN2C1C#C	O[C@H]1[C@H]2CN2[C@H]1C#C	
InChI=1S/C6H7NO/c1-2-4-6(8)5-3-7(4)5/h1,4-6,8H,3H2	InChI=1S/C6H7NO/c1-2-4-6(8)5-3-7(4)5/h1,4-6,8H,3H2/t4-,5+,6+,7?/m0/s1
