21
gdb 113025	4.99669	0.83733	0.77023	0.9021	91.12	-0.2434	0.0157	0.2591	1536.613	0.181993	-349.937984	-349.928601	-349.927657	-349.972492	35.481	
C	 0.5205788431	 1.3083359229	 0.5068222379	-0.38678
C	 0.0463090769	-0.1004614698	 0.1397708657	-0.170987
C	-1.4498220029	-0.1819795442	-0.2340525952	-0.028855
C	-1.9101740277	-1.6207678057	-0.5952612242	-0.245971
C	-2.6295434214	-2.1726487069	 0.6762088084	-0.19117
C	-2.9929517354	-0.8948011041	 1.4197446054	-0.071726
C	-2.366972903	 0.1668020222	 0.920217843	-0.075422
C	-3.7662651839	-3.0383758955	 0.3817816254	 0.314695
C	-4.7058510456	-3.7474373456	 0.1362031318	-0.469547
H	 1.5946706213	 1.3204822936	 0.7161142497	 0.113561
H	 0.3338138621	 2.0138415847	-0.3109473637	 0.113637
H	 0.0071180481	 1.6875005644	 1.3961220605	 0.117988
H	 0.6334450459	-0.470105897	-0.7105348514	 0.094752
H	 0.2437093998	-0.7856488468	 0.9745231312	 0.096262
H	-1.6133565444	 0.4956386431	-1.0829249475	 0.071888
H	-2.6336056992	-1.5864622551	-1.4135141827	 0.114654
H	-1.0844630266	-2.2638682745	-0.9107697416	 0.10114
H	-1.9211350135	-2.751469111	 1.2884322017	 0.108949
H	-3.6680500915	-0.9029081771	 2.2672582989	 0.103512
H	-2.456472088	 1.1741196328	 1.3117712797	 0.096981
H	-5.5348676042	-4.3745755003	-0.0794776529	 0.192438
47.6757	94.4097	136.8226	175.3082	231.9309	245.6479	310.7451	365.0608	460.8643	519.3351	541.5848	613.0511	629.9831	655.7936	732.9311	767.1747	804.5073	834.4772	862.417	932.4182	970.6507	974.3409	993.2707	1037.3043	1051.4358	1065.7725	1112.5804	1116.0877	1142.505	1208.8576	1266.5792	1273.8524	1281.8535	1307.3838	1325.5633	1347.7685	1373.3784	1384.5385	1412.0694	1485.0176	1490.5403	1500.2332	1506.9564	1685.7631	2234.1653	2982.0171	3005.8736	3017.0446	3031.5172	3052.5938	3065.545	3097.8725	3105.2018	3111.1697	3186.4265	3214.397	3505.364
CCC1CC(C=C1)C#C	CC[C@H]1C[C@@H](C=C1)C#C	
InChI=1S/C9H12/c1-3-8-5-6-9(4-2)7-8/h1,5-6,8-9H,4,7H2,2H3	InChI=1S/C9H12/c1-3-8-5-6-9(4-2)7-8/h1,5-6,8-9H,4,7H2,2H3/t8-,9-/m1/s1
