19
gdb 111795	2.48877	1.37235	1.11507	1.7945	70.44	-0.2366	0.0595	0.2961	1147.0909	0.160016	-460.118967	-460.110632	-460.109688	-460.151954	32.157	
O	 0.0719748854	 1.5109315018	-0.0755550268	-0.420717
C	 0.1048970151	 0.0875730546	-0.0697473821	-0.120099
C	-1.2921816825	-0.5039752506	-0.0004556969	 0.007762
C	-1.5463910998	-2.0524870299	 0.08673073	-0.124851
C	-0.7786010875	-2.4151206927	 1.36028038	-0.098262
O	-1.1673368381	-1.3068995896	 2.2169436117	-0.282272
C	-2.0461558269	-0.5647969846	 1.3561455014	 0.024979
C	-2.9211550832	-1.6929342544	 0.7295902838	 0.12967
O	-3.8713020964	-1.3172206281	-0.2360062324	-0.436424
H	-0.2284169066	 1.795964032	 0.793118675	 0.284072
H	 0.585316231	-0.2014505481	-1.0113421257	 0.108862
H	 0.731758738	-0.2837819384	 0.7513937187	 0.100137
H	-1.924417584	-0.0672990826	-0.7732042426	 0.103869
H	-1.4681406722	-2.7166327729	-0.7729214401	 0.080833
H	-1.1031793275	-3.3619583818	 1.8067255718	 0.105031
H	 0.3096762809	-2.4370970839	 1.2410703801	 0.106538
H	-2.4470613003	 0.2974717171	 1.8903945672	 0.070897
H	-3.3265330476	-2.415836735	 1.4505403925	 0.071471
H	-4.6087163276	-0.8969197227	 0.2179477045	 0.288504
71.6633	157.006	214.5534	278.0135	284.1324	302.4401	328.2051	367.7873	438.096	508.6972	607.7184	693.4843	776.7801	856.9452	890.7611	909.1873	938.8192	947.9533	971.658	1005.7599	1036.5876	1049.589	1072.6056	1116.6651	1134.9623	1141.8956	1175.3701	1177.9677	1209.2886	1220.2876	1262.917	1267.6946	1275.2226	1319.6039	1358.2847	1363.9707	1406.5757	1423.1047	1430.7809	1501.5017	1532.4962	3012.1313	3017.9165	3032.1895	3067.3681	3072.2436	3113.8554	3126.243	3134.4229	3815.7999	3819.7095
OCC1C2COC1C2O	OC[C@H]1[C@H]2CO[C@@H]1[C@H]2O	
InChI=1S/C6H10O3/c7-1-3-4-2-9-6(3)5(4)8/h3-8H,1-2H2	InChI=1S/C6H10O3/c7-1-3-4-2-9-6(3)5(4)8/h3-8H,1-2H2/t3-,4+,5-,6-/m0/s1
