12
gdb 132064	2.42149	1.911	1.06838	4.7998	62.26	-0.2291	-0.049	0.1801	993.585	0.077555	-513.966301	-513.958877	-513.957933	-513.998202	27.509	
N	 0.0365968833	 1.3622854393	 0.1105305	-0.564502
C	-0.0015354914	 0.0096720654	 0.0410608408	 0.297107
C	-1.1741506502	-0.6994126794	 0.0203070584	 0.019323
F	-2.3427357511	-0.038271123	 0.0296670326	-0.077508
C	-1.2135507804	-2.1227385426	-0.0139558773	 0.354063
O	-2.1432958135	-2.875113868	-0.0359171099	-0.338452
O	 0.1102994924	-2.6892008345	-0.0251944083	-0.205813
C	 1.1870872892	-1.9128064698	-0.0124124616	 0.144856
N	 1.2220017396	-0.6317052594	 0.0188396052	-0.336502
H	 0.9183453173	 1.8085877615	-0.0767604653	 0.275045
H	-0.8095985517	 1.8810391472	-0.0498671966	 0.277718
H	 2.1070469866	-2.4900316569	-0.0325394579	 0.154664
117.1809	183.2869	267.9116	279.8552	317.6698	338.6615	485.7844	504.5708	516.7586	530.7586	565.8716	679.2226	705.7661	753.2428	877.4464	921.3197	968.3009	1023.3424	1202.9118	1236.491	1346.8118	1393.3343	1455.1761	1609.4957	1636.2389	1698.7101	1877.8882	3189.6241	3614.9581	3744.0217
NC1=C(F)C(=O)OC=N1	Nc1c(F)c(=O)ocn1	
InChI=1S/C4H3FN2O2/c5-2-3(6)7-1-9-4(2)8/h1H,6H2	InChI=1S/C4H3FN2O2/c5-2-3(6)7-1-9-4(2)8/h1H,6H2
