19
gdb 29639	2.31662	1.66198	0.98561	3.6617	81.66	-0.1772	0.0408	0.218	1211.8047	0.158035	-419.250866	-419.240988	-419.240044	-419.286102	35.013	
C	 0.0747228601	 1.4383365877	-0.0033418523	-0.344347
N	 0.0374545995	-0.0049110607	 0.0441780897	-0.135464
C	-0.066822432	-0.7925187306	-1.0821840624	 0.445924
N	-0.142783662	-0.3826791184	-2.2832455907	-0.623168
O	-0.0716408827	-2.0957595385	-0.6441709814	-0.254655
C	 0.0297201983	-2.096201204	 0.7468911148	 0.239994
C	 0.0404683382	-3.4221747756	 1.4072783833	-0.491391
C	 0.0971247407	-0.82815277	 1.1814314316	 0.185308
C	 0.2130220733	-0.2679283471	 2.555171884	-0.501105
H	 1.009461459	 1.8305018386	 0.4132962541	 0.127065
H	 0.0060863622	 1.7235468336	-1.0538245079	 0.181439
H	-0.7661680732	 1.8806144349	 0.5429243401	 0.127065
H	-0.2116945961	-1.1663294295	-2.9256914031	 0.220167
H	 0.8836555299	-4.0335091668	 1.0638015584	 0.139158
H	 0.1225996833	-3.3081720459	 2.4904953175	 0.13159
H	-0.8764850997	-3.9839068168	 1.1920439981	 0.139159
H	 0.2441209282	-1.0725151674	 3.2923749658	 0.137972
H	 1.1238428106	 0.3310968948	 2.6737843369	 0.137644
H	-0.6360408577	 0.3806277215	 2.8020735735	 0.137645
38.9743	106.8276	149.4007	153.1618	180.9928	219.2249	260.4852	270.3884	325.328	328.831	548.424	595.2633	605.1255	630.619	698.1981	717.5142	737.3897	875.6504	957.1224	1013.32	1030.7673	1060.7395	1067.5316	1134.4728	1156.8238	1159.4263	1225.6451	1301.8876	1363.5315	1416.7997	1419.6115	1432.7296	1465.7547	1466.2661	1473.8036	1493.4834	1497.8407	1498.1587	1513.3856	1750.9036	1783.8883	3021.1875	3023.1616	3027.2833	3069.4097	3070.0922	3075.9797	3125.1702	3131.6506	3151.268	3548.5309
CN1C(=N)OC(C)=C1C	CN1[C@@H]([NH])OC(=C1C)C	
InChI=1S/C6H10N2O/c1-4-5(2)9-6(7)8(4)3/h7H,1-3H3	InChI=1S/C6H11N2O/c1-4-5(2)9-6(7)8(4)3/h6-7H,1-3H3/t6-/m1/s1
