23
gdb 102653	3.02992	0.901	0.73783	2.1249	83.31	-0.2434	0.0847	0.3281	1607.3903	0.203017	-425.396407	-425.385535	-425.384591	-425.434041	38.221	
C	-0.1452419648	 1.1879201802	-0.6000102717	-0.388451
C	 0.0274758567	-0.2784703572	-0.2006909362	-0.175671
C	 0.8152130561	-0.4625277682	 1.1028162053	 0.124675
C	 0.9044957994	-1.9548184821	 1.4864554587	-0.218047
C	 1.2819645516	-2.248555398	 2.9183121822	 0.079403
C	 1.9270975404	-3.5079215685	 3.3127120979	-0.184
O	 2.6717142089	-2.2903223623	 3.2571121648	-0.224743
O	 2.0920357182	 0.1190638761	 0.8930656693	-0.248048
C	 2.7312780574	 0.6637171752	 2.0300590326	-0.254577
H	 0.8285996367	 1.6704361363	-0.7091072957	 0.133525
H	-0.6836628738	 1.2769005231	-1.5484502083	 0.107988
H	-0.7129298604	 1.7404383045	 0.1577097773	 0.10652
H	-0.9529615592	-0.7562095413	-0.0863676723	 0.089192
H	 0.5525316351	-0.8223937231	-0.9962264924	 0.103967
H	 0.2933214938	 0.0840242265	 1.9091570112	 0.05742
H	-0.0786568047	-2.4114944438	 1.309219057	 0.099092
H	 1.6187880132	-2.4435623042	 0.8147420158	 0.112703
H	 0.6678701836	-1.7484042592	 3.671195092	 0.088542
H	 1.7661525397	-3.9147893293	 4.310194573	 0.114006
H	 2.1788172501	-4.2416613876	 2.5477562354	 0.114752
H	 2.0697130326	 1.3622683013	 2.5661230685	 0.095595
H	 3.0770781079	-0.1062187198	 2.7285348033	 0.146144
H	 3.5982792513	 1.2215274812	 1.6650673124	 0.120011
20.2769	62.5655	90.6509	124.8237	148.0063	201.2638	220.5147	253.0119	291.5156	322.3113	374.5016	431.105	500.7298	532.5274	761.9637	781.4801	852.6959	870.9555	909.7573	949.6218	975.0054	1031.6012	1047.9867	1077.611	1107.562	1124.4389	1142.7564	1158.6394	1172.916	1174.525	1184.4353	1224.3437	1251.7572	1287.5597	1298.8533	1312.4087	1360.0216	1387.9178	1394.1379	1404.2951	1442.4705	1453.6742	1475.6107	1479.6292	1493.8072	1500.2373	1510.946	1518.5259	1531.2389	2940.1574	2981.9248	3018.8818	3028.2792	3034.3033	3063.7174	3071.9768	3073.5424	3082.0559	3088.9572	3098.4132	3109.6484	3128.8779	3168.1172
CCC(CC1CO1)OC	CC[C@@H](C[C@H]1CO1)OC	
InChI=1S/C7H14O2/c1-3-6(8-2)4-7-5-9-7/h6-7H,3-5H2,1-2H3	InChI=1S/C7H14O2/c1-3-6(8-2)4-7-5-9-7/h6-7H,3-5H2,1-2H3/t6-,7-/m0/s1
