21
gdb 118787	4.33945	0.74668	0.71716	1.8338	86.71	-0.2389	0.0479	0.2867	1627.5264	0.179591	-387.043745	-387.033255	-387.032311	-387.07926	38.644	
C	-0.0240631047	 1.7070949349	 0.1288858758	-0.46669
C	-0.0632808782	 0.193847023	 0.0311652377	 0.335448
C	-1.3733244972	-0.4046226682	-0.4572507648	-0.246515
C	-1.7270962893	-0.0318356815	-1.8952629384	-0.075488
O	-2.9055177485	-0.7461322147	-2.2389611182	-0.419429
C	 1.2082989005	-0.5282848999	-0.3242385251	-0.320589
C	 0.6746162725	-0.6180070269	 1.1007908534	-0.262026
C	 1.3732539514	 0.0099863986	 2.1824952326	 0.327468
C	 1.9542042806	 0.5274685995	 3.1010047165	-0.451553
H	 0.8992166359	 2.0488543005	 0.6021948855	 0.131147
H	-0.0874979801	 2.170645498	-0.8612995252	 0.115413
H	-0.8618062921	 2.0813409325	 0.7283504248	 0.119743
H	-1.3287058594	-1.4985974962	-0.4031701705	 0.105212
H	-2.1959431589	-0.0916273704	 0.1977635335	 0.108018
H	-1.884681255	 1.0539552731	-1.9816719051	 0.088598
H	-0.8896782035	-0.295054452	-2.5617961167	 0.086971
H	-3.1616920794	-0.4927606963	-3.1303780487	 0.285698
H	 1.1503682405	-1.4266413197	-0.9299811254	 0.115132
H	 2.1073169669	 0.0594616406	-0.4720308528	 0.121127
H	 0.2049923201	-1.5620120122	 1.36398285	 0.110527
H	 2.4673042379	 0.9816410573	 3.911727141	 0.191788
69.4521	88.2363	102.7216	150.1593	209.3893	214.4447	261.3291	300.3966	329.207	357.9305	402.326	417.9015	526.8534	571.8789	612.0637	646.5313	728.0209	796.9732	810.2741	867.2742	943.8796	959.8793	987.7068	1014.4282	1049.3317	1073.1489	1076.5857	1106.3821	1115.5982	1144.1878	1219.1647	1245.2924	1268.7238	1303.8496	1347.6224	1355.994	1398.3045	1423.9974	1460.8759	1478.8103	1486.3385	1501.1549	1503.2157	1529.1206	2231.8413	2967.2146	2997.8542	3028.8772	3033.2248	3073.5001	3091.0365	3123.3011	3131.0784	3138.6987	3220.9605	3505.2735	3831.3388
CC1(CCO)CC1C#C	C[C@@]1(CCO)C[C@H]1C#C	
InChI=1S/C8H12O/c1-3-7-6-8(7,2)4-5-9/h1,7,9H,4-6H2,2H3	InChI=1S/C8H12O/c1-3-7-6-8(7,2)4-5-9/h1,7,9H,4-6H2,2H3/t7-,8-/m1/s1
