17
gdb 89950	3.45604	1.30915	1.12514	1.1853	74.65	-0.2557	0.0155	0.2712	1094.3629	0.134605	-421.748697	-421.740432	-421.739488	-421.781983	31.78	
O	 0.2865596635	 1.2528188472	-0.4138217088	-0.430429
C	 0.0363680512	-0.0741821066	-0.0268373388	 0.129528
C	 0.1599687085	-0.4081268715	 1.4929249127	-0.319859
C	-1.3569087542	-0.6844787822	 1.5431034125	 0.251117
O	-2.1012931579	 0.5671318136	 1.6755235798	-0.333124
C	-2.4573022499	 0.5588667263	 0.2666692353	-0.106377
C	-1.4609857983	-0.5568235727	-0.0180359432	-0.155794
C	-1.8798693174	-1.7621629625	 2.343292377	 0.243797
C	-2.2999134572	-2.6743391085	 3.0049989029	-0.403692
H	-0.0905414785	 1.8333655838	 0.25677626	 0.291872
H	 0.6694584049	-0.6951532201	-0.6637366296	 0.098649
H	 0.7619636943	-1.2989488354	 1.6886559102	 0.118149
H	 0.493529103	 0.4052340935	 2.1426919561	 0.114524
H	-3.5058959134	 0.2702932773	 0.1245907181	 0.11131
H	-2.2768815043	 1.5252092247	-0.2158071466	 0.107258
H	-1.7338437692	-1.3723254872	-0.6848343458	 0.088213
H	-2.6759758251	-3.4744327697	 3.5936717082	 0.194858
36.9449	132.5601	174.7715	277.8419	328.5061	385.9209	414.1496	438.0539	520.0291	543.3427	605.3103	620.534	667.707	670.8273	778.5593	822.4905	904.8493	922.0763	980.3762	991.8567	1006.0039	1042.3432	1088.264	1108.725	1129.7114	1148.7432	1172.362	1211.4981	1248.2897	1285.3621	1291.1818	1321.9581	1352.2267	1435.8032	1455.6478	1525.6455	2232.8675	3023.479	3061.745	3075.9603	3089.9636	3123.6015	3135.3156	3500.3147	3800.9761
OC1CC2(OCC12)C#C	O[C@H]1C[C@]2(OC[C@@H]12)C#C	
InChI=1S/C7H8O2/c1-2-7-3-6(8)5(7)4-9-7/h1,5-6,8H,3-4H2	InChI=1S/C7H8O2/c1-2-7-3-6(8)5(7)4-9-7/h1,5-6,8H,3-4H2/t5-,6-,7+/m0/s1
