20
gdb 7182	5.73168	0.75952	0.70643	3.3146	72.88	-0.2427	-0.0199	0.2228	1608.3899	0.173894	-386.154951	-386.144903	-386.143959	-386.190776	34.838	
C	 0.0145251026	 1.6007697237	 0.0418941903	-0.382697
C	 0.0736487783	 0.0713261737	 0.0410545492	-0.166976
C	 0.6763390594	-0.5030698049	-1.245379242	-0.184563
C	 0.6833874013	-2.0348641876	-1.2864160026	 0.106804
O	-0.6273567821	-2.5806532355	-1.1478975612	-0.426378
C	 1.3687117395	-2.5760526431	-2.5561448864	-0.29587
C	 1.4903337582	-4.0857480522	-2.5567003483	 0.154518
O	 2.4865438189	-4.6857658398	-2.8726938958	-0.24357
H	 1.0131869607	 2.0388137378	-0.0657277618	 0.1146
H	-0.5994216461	 1.9752304332	-0.7851054687	 0.11241
H	-0.416331328	 1.9808461645	 0.973194849	 0.115672
H	 0.6658613115	-0.2749442939	 0.8982105917	 0.098565
H	-0.9297039771	-0.3454384421	 0.1794060927	 0.108665
H	 0.1165583587	-0.1314562799	-2.1183785691	 0.083771
H	 1.7048619179	-0.140709601	-1.3711341506	 0.101449
H	 1.2231506329	-2.4083804848	-0.4064227998	 0.100378
H	-1.1747820293	-2.2105939032	-1.8503919262	 0.278839
H	 0.7587171058	-2.2880508348	-3.4268938897	 0.109982
H	 2.3647981956	-2.1453085941	-2.6946461006	 0.121701
H	 0.5709014114	-4.6191975159	-2.2341387199	 0.092702
53.5877	68.5936	96.5003	125.355	131.2596	245.8596	251.0685	313.395	323.797	364.2557	435.7119	497.3981	560.1419	747.6807	807.4129	851.0291	890.1771	902.5551	990.9753	1026.4369	1049.1989	1067.2754	1098.0485	1117.7623	1153.3418	1201.2176	1242.8852	1269.88	1305.2634	1318.693	1355.296	1367.9955	1396.8349	1413.9255	1414.8004	1423.1456	1450.356	1479.0844	1494.005	1500.3412	1511.4418	1829.8025	2911.6549	2987.168	2996.8852	3024.9411	3028.9212	3032.7455	3046.0294	3071.4919	3096.1495	3098.0099	3103.79	3789.2378
CCCC(O)CC=O	CCC[C@@H](O)CC=O	
InChI=1S/C6H12O2/c1-2-3-6(8)4-5-7/h5-6,8H,2-4H2,1H3	InChI=1S/C6H12O2/c1-2-3-6(8)4-5-7/h5-6,8H,2-4H2,1H3/t6-/m1/s1
