20
gdb 122604	3.69749	0.77335	0.67012	2.8008	77.3	-0.2463	0.0334	0.2797	1683.4897	0.170114	-440.295729	-440.285833	-440.284889	-440.331734	34.402	
C	-0.1221010545	 1.3865609339	-0.046619388	-0.228689
O	 0.0669804179	-0.0051735509	 0.0341322788	-0.2332
C	 0.6095226305	-0.552069359	-1.1484807144	-0.057007
C	 0.7334586029	-2.0606710008	-0.9583047793	-0.226631
C	 1.324316573	-2.7475774903	-2.1847511608	-0.147648
C	 1.2973984995	-4.3072176846	-2.2336904348	-0.188024
N	 0.4726385384	-4.1895106956	-3.4391094356	-0.319251
C	 0.4096677484	-2.8183893073	-3.4389973013	 0.430628
O	-0.1602211866	-2.0224989219	-4.1388277854	-0.365469
H	 0.8276904031	 1.9202125944	-0.2132020808	 0.101048
H	-0.8127264502	 1.6594940101	-0.8600989846	 0.107617
H	-0.5482694805	 1.7157341583	 0.9044250654	 0.123928
H	-0.0301047088	-0.3303249231	-2.016572397	 0.121122
H	 1.6011903487	-0.1110814241	-1.3560047302	 0.079859
H	 1.3587368827	-2.2577341147	-0.079471652	 0.10906
H	-0.2603240145	-2.4698834612	-0.7403122777	 0.111548
H	 2.3089241503	-2.3368369549	-2.4300025398	 0.101923
H	 2.264022906	-4.7941460954	-2.3951988619	 0.113242
H	 0.786091305	-4.7761564808	-1.3862720452	 0.114948
H	 0.0118080988	-4.8793687619	-4.0136521755	 0.250996
58.0057	80.1865	89.2436	121.3091	152.9031	211.0748	237.2506	276.2105	348.3306	424.7981	485.6503	514.1835	713.0261	759.965	797.2256	856.4573	900.5313	977.7324	993.3051	1019.86	1080.5582	1093.9594	1142.1908	1161.7312	1168.26	1176.5243	1181.8652	1206.5122	1227.9259	1242.8346	1282.3404	1308.0927	1323.0698	1365.2542	1396.8024	1430.4313	1481.8896	1485.1277	1494.0241	1506.828	1527.0694	1535.8653	1883.9607	2943.5205	2968.7285	3007.0134	3011.9385	3030.8983	3038.8342	3061.1253	3077.7162	3088.4512	3111.2454	3611.705
COCCC1CNC1=O	COCC[C@H]1CNC1=O	
InChI=1S/C6H11NO2/c1-9-3-2-5-4-7-6(5)8/h5H,2-4H2,1H3,(H,7,8)	InChI=1S/C6H11NO2/c1-9-3-2-5-4-7-6(5)8/h5H,2-4H2,1H3,(H,7,8)/t5-/m0/s1
