18
gdb 53972	3.05696	1.06803	1.00682	2.7346	74.01	-0.2452	0.0228	0.2679	1248.556	0.143956	-439.09422	-439.083814	-439.08287	-439.129753	38.276	
C	-0.0419559487	 1.6744658114	-0.1536156395	-0.418653
C	 0.0374379236	 0.1462697377	-0.0516017571	 0.253281
O	 0.7795744527	-0.2500890205	 1.0968722165	-0.485199
C	-1.3775965289	-0.5016974042	-0.0217188175	-0.366877
C	-2.0914150806	-0.1680960094	 1.2035544668	 0.266205
C	-2.6123097841	 0.1153780146	 2.2508184289	-0.430649
C	 0.7517945884	-0.3996112287	-1.3041785156	 0.385725
N	 1.9036296965	-1.0665393528	-1.0613681817	-0.528258
O	 0.2784050702	-0.2220375578	-2.41253658	-0.392204
H	 0.9625573031	 2.0999817463	-0.0824521446	 0.125358
H	-0.4819829303	 1.9662211963	-1.1096108965	 0.143655
H	-0.6514290312	 2.0776117824	 0.6605803104	 0.121311
H	 0.2332211058	-0.0676825442	 1.8713915698	 0.28737
H	-1.9299415072	-0.180023276	-0.9092087715	 0.157967
H	-1.2648537657	-1.5900343944	-0.0911637006	 0.139313
H	-3.1126283528	 0.3591199524	 3.155538656	 0.201563
H	 2.2187788174	-1.1976114923	-0.1155753617	 0.278852
H	 2.411778202	-1.4557275107	-1.8375073219	 0.261239
33.8481	79.6029	128.7205	215.3161	243.3189	272.4427	294.9425	319.0408	330.3511	355.9895	381.2425	399.079	466.8928	526.9199	610.9326	624.8378	636.9231	662.8613	752.6897	771.4244	873.1457	902.2072	969.001	978.7853	1092.5397	1114.1969	1123.6039	1184.8998	1264.383	1293.4044	1331.5302	1394.9295	1422.9147	1461.0806	1489.6592	1500.9661	1593.0946	1791.7384	2228.0284	3042.3616	3046.762	3097.8921	3120.7682	3139.3064	3502.7822	3603.2517	3745.2373	3773.6049
CC(O)(CC#C)C(N)=O	C[C@@](O)(CC#C)C(=O)N	
InChI=1S/C6H9NO2/c1-3-4-6(2,9)5(7)8/h1,9H,4H2,2H3,(H2,7,8)	InChI=1S/C6H9NO2/c1-3-4-6(2,9)5(7)8/h1,9H,4H2,2H3,(H2,7,8)/t6-/m1/s1
