23
gdb 60540	2.69659	1.17749	0.95057	1.6903	84.97	-0.2577	0.0848	0.3425	1334.3583	0.204196	-388.258732	-388.248894	-388.24795	-388.293539	37.462	
C	 0.3734564403	 1.7213111564	 0.1620874919	-0.428428
C	-0.0364618304	 0.2553499498	-0.045472882	-0.081457
C	-1.5442709739	 0.1820963153	-0.2290116117	 0.105079
C	-2.3928528489	-0.7985924874	 0.4596393155	-0.181792
O	-2.3408814899	 0.55927402	 0.8982570937	-0.245321
C	 0.6721284121	-0.4812181804	-1.1911604583	 0.376902
C	 0.457425957	-1.9867054002	-1.1753788646	-0.46039
C	 0.7780255603	 0.1661663652	-2.554988633	-0.299807
C	 2.012785012	-0.0084625034	-1.7035176727	-0.323064
H	 1.424774742	 1.8089228153	 0.4475082296	 0.117391
H	 0.2110003937	 2.3273663509	-0.7359534076	 0.115789
H	-0.2305568173	 2.1521893532	 0.9648110066	 0.137602
H	 0.1974747755	-0.2812387768	 0.88489978	 0.072626
H	-1.9084150516	 0.5860704266	-1.1762616184	 0.090613
H	-3.3376044543	-1.1125362248	 0.0169779234	 0.112092
H	-1.9346742416	-1.5232187135	 1.1320269214	 0.111876
H	-0.6015481795	-2.2464681934	-1.2754863431	 0.118861
H	 0.9943605294	-2.4687374038	-1.9981639545	 0.111497
H	 0.8213037338	-2.4268631349	-0.2390106016	 0.112388
H	 0.6560161448	-0.4672068874	-3.4274324731	 0.107827
H	 0.4015053925	 1.1743100258	-2.6901402265	 0.111044
H	 2.4596736187	 0.8820084799	-1.2787679845	 0.111885
H	 2.7332933654	-0.7664389325	-1.9927502404	 0.106787
45.7803	89.061	166.2169	217.0304	235.5673	255.0081	294.9015	321.0275	339.5404	353.7426	442.8421	477.649	515.8754	708.6829	788.1711	805.0905	857.998	875.1625	897.7062	929.3979	948.9956	958.7444	969.5976	1028.5295	1053.5951	1065.7144	1081.7772	1100.5882	1115.1928	1129.794	1157.3819	1173.4316	1184.7662	1190.9512	1259.6544	1290.8061	1308.7445	1341.8856	1364.3396	1405.7528	1416.6299	1442.0051	1464.0004	1491.1474	1496.0215	1504.2966	1510.8647	1511.5677	1529.1292	3003.73	3024.6878	3040.6739	3077.7523	3086.0941	3087.7906	3100.5593	3108.7135	3122.5934	3130.7006	3138.7104	3163.3186	3208.2084	3225.8663
CC(C1CO1)C1(C)CC1	C[C@@H]([C@H]1CO1)C1(C)CC1	
InChI=1S/C8H14O/c1-6(7-5-9-7)8(2)3-4-8/h6-7H,3-5H2,1-2H3	InChI=1S/C8H14O/c1-6(7-5-9-7)8(2)3-4-8/h6-7H,3-5H2,1-2H3/t6-,7+/m0/s1
