20
gdb 66588	2.95965	1.84253	1.5564	1.9053	80.26	-0.2342	0.0802	0.3144	951.2472	0.173867	-365.977081	-365.970036	-365.969091	-366.008183	29.102	
C	-0.1041715554	 1.4714749267	-0.0750054696	-0.512162
C	 0.0521732708	-0.0107971788	 0.0552597633	 0.354403
C	 0.9221713275	-0.849371818	-0.8299441219	-0.100065
C	 1.1268992444	-2.1732069745	-0.0946358883	-0.027323
C	 1.9250819027	-2.0793006288	 1.2142114713	-0.232518
C	 1.0257161906	-1.202353887	 2.145660643	-0.236103
C	-0.2088943772	-0.8867452543	 1.2865376653	-0.080738
C	-0.3785210451	-2.0052633498	 0.2313783884	-0.015416
N	-0.5768038151	-0.9785006185	-0.9103812319	-0.217817
H	 0.656594178	 2.001894551	 0.5096084777	 0.11915
H	-0.003048608	 1.7786116709	-1.1206521647	 0.129541
H	-1.0895126528	 1.7958591994	 0.2766911347	 0.123594
H	 1.4992481115	-0.43102961	-1.6478575673	 0.085683
H	 1.3815443039	-3.0055983583	-0.7519677715	 0.072227
H	 2.0874293007	-3.0725134114	 1.6458862878	 0.097865
H	 2.9131758317	-1.637688353	 1.0512240414	 0.100139
H	 0.7449483269	-1.7502112121	 3.0512240631	 0.097579
H	 1.5313442936	-0.288421064	 2.4731882178	 0.099932
H	-1.1108967846	-0.6048407714	 1.8328017249	 0.067974
H	-1.0693711041	-2.8390548582	 0.3393476366	 0.074055
152.4506	187.4338	209.6026	294.5311	372.0108	483.6144	598.4663	646.3056	700.028	756.1982	784.2539	792.0134	826.5763	839.601	885.7152	902.1976	932.4344	935.6428	955.7484	995.4813	1012.1805	1026.6197	1053.3128	1073.4663	1089.8625	1142.0914	1148.7764	1191.189	1223.4483	1232.6078	1253.8612	1263.2113	1272.1944	1277.4895	1323.2307	1342.0084	1359.2263	1403.912	1435.4965	1481.8822	1483.9242	1493.1357	1504.1818	3026.3585	3038.5138	3049.6627	3071.7517	3088.9703	3092.6587	3098.4973	3105.0172	3105.379	3135.6597	3168.7462
CC12C3C4CCC1C4N23	C[C@@]12[C@H]3[C@H]4CC[C@@H]1[C@H]4N23	
InChI=1S/C8H11N/c1-8-5-3-2-4-6(5)9(8)7(4)8/h4-7H,2-3H2,1H3	InChI=1S/C8H11N/c1-8-5-3-2-4-6(5)9(8)7(4)8/h4-7H,2-3H2,1H3/t4-,5+,6-,7+,8-,9?/m0/s1
