18
gdb 127842	4.79117	1.03653	0.86165	3.81	91.35	-0.194	-0.0311	0.1629	1347.6158	0.148276	-398.129889	-398.12103	-398.120086	-398.164012	31.794	
C	-0.0380935819	 1.4506083846	 0.0259955311	-0.321401
N	-0.0242690476	-0.0012544377	 0.0319111238	-0.320566
C	 0.5412419737	-0.6164383832	-0.9499587393	 0.269583
C	 0.5866577449	-2.0648076676	-0.9963775718	-0.201176
C	 1.1862419212	-2.6946176166	-2.0291888801	 0.036045
N	 1.7749580373	-1.9965430868	-3.0532173496	-0.001462
C	 2.329445839	-2.6592250617	-4.2217803068	-0.322381
N	 1.7637518349	-0.6516757422	-3.0954728534	-0.208891
C	 1.1977589138	-0.0108052844	-2.1182272252	-0.064132
H	 0.9716858643	 1.891510327	 0.0257967058	 0.105844
H	-0.5754895645	 1.8723663929	-0.838472423	 0.106024
H	-0.5461611136	 1.8049865717	 0.927315066	 0.11516
H	 0.1373392111	-2.6275090542	-0.188105475	 0.115865
H	 1.247799295	-3.7733159545	-2.1119493888	 0.128487
H	 1.5559166214	-2.8752563126	-4.9687632563	 0.141051
H	 3.0742483193	-1.9989403138	-4.6652937731	 0.160718
H	 2.8057294184	-3.5961500436	-3.9228605545	 0.139274
H	 1.2387878233	 1.0682228527	-2.2159970498	 0.121958
69.597	77.6943	118.5355	184.785	215.5664	249.0546	361.9174	449.3572	454.2523	467.4974	539.9015	659.5975	726.9752	767.6225	813.0004	836.3091	929.224	964.5879	997.6304	1039.7923	1054.5768	1095.5044	1144.3501	1151.4506	1175.5914	1267.578	1308.3431	1337.151	1393.1454	1433.0626	1444.5642	1467.7208	1485.6919	1491.7263	1505.0762	1511.3043	1587.0086	1650.2781	1694.8477	2960.0189	3004.5444	3028.0195	3087.5091	3103.9702	3160.0424	3197.1579	3199.4419	3222.9922
CN=C1C=CN(C)N=C1	CN=c1ccn(C)nc1	
InChI=1S/C6H9N3/c1-7-6-3-4-9(2)8-5-6/h3-5H,1-2H3	InChI=1S/C6H9N3/c1-7-6-3-4-9(2)8-5-6/h3-5H,1-2H3
