20
gdb 103568	2.33547	1.25837	1.17253	1.751	76.6	-0.2663	0.0159	0.2822	1211.8205	0.168605	-440.294187	-440.284161	-440.283217	-440.329035	36.674	
C	-0.4273150984	 1.3808893283	 0.302907278	-0.398745
C	 0.040641553	-0.0689809721	 0.1399337271	-0.20153
C	 1.0264253568	-0.5284579018	 1.2056178511	 0.37627
C	 2.3428072286	 0.2219461829	 1.2392835849	-0.449241
O	 0.3799604048	-0.4734242577	 2.5570648671	-0.289874
C	 0.3346465612	-1.8366178236	 2.637926785	 0.385286
N	-0.2456198668	-2.616289526	 3.4337404867	-0.560735
C	 1.1277795337	-2.0812065293	 1.3748042104	-0.048197
O	 0.531756275	-2.8998842837	 0.4052506919	-0.42676
H	 0.3884016702	 2.0963726515	 0.1617429014	 0.117466
H	-1.2005245903	 1.6160307092	-0.4340460837	 0.117757
H	-0.8492621056	 1.5405022461	 1.2993932849	 0.134365
H	-0.8198534836	-0.7442042366	 0.1589285011	 0.107786
H	 0.51307407	-0.2141807702	-0.8390101306	 0.110493
H	 2.1872270363	 1.2852864289	 1.4382469964	 0.135661
H	 2.99490441	-0.1765646956	 2.0216821219	 0.126277
H	 2.8561512042	 0.1229296661	 0.2772039214	 0.129408
H	-0.7707443731	-2.1096692791	 4.1484838624	 0.230014
H	 2.1603660842	-2.3997851615	 1.5690626877	 0.100399
H	-0.1103014502	-3.456585656	 0.8612657747	 0.3039
67.8778	92.5265	169.6025	179.6253	210.7301	219.5487	226.9458	295.3446	322.8072	342.2868	439.0535	458.5209	569.3403	634.5467	693.1453	777.3416	790.4153	835.6473	872.0237	917.1149	946.2173	1001.9929	1021.7878	1040.6775	1066.9603	1135.1431	1147.2247	1200.0267	1218.8942	1254.483	1296.4732	1327.1989	1375.2214	1378.0945	1389.0693	1411.1229	1412.7737	1472.4288	1487.3762	1494.1185	1507.067	1511.3245	1818.6376	3019.9329	3040.7891	3044.5048	3046.1091	3084.8934	3112.0233	3114.1909	3119.8011	3124.9538	3476.2232	3796.9866
CCC1(C)OC(=N)C1O	CC[C@@]1(C)O[C]([NH])[C@H]1O	
InChI=1S/C6H11NO2/c1-3-6(2)4(8)5(7)9-6/h4,7-8H,3H2,1-2H3	InChI=1S/C6H11NO2/c1-3-6(2)4(8)5(7)9-6/h4,7-8H,3H2,1-2H3/t4-,6-/m1/s1
