18
gdb 86596	2.49136	1.37564	1.19611	3.5456	72.59	-0.2438	-0.0259	0.2179	1124.7213	0.146459	-439.053794	-439.045085	-439.044141	-439.087734	31.903	
C	 0.6114179941	 1.4434591958	-0.2152701903	-0.385029
C	 0.0939545429	 0.0275415142	 0.00401561	-0.08406
N	 0.7422448947	-1.0096571829	-0.8602357454	-0.326536
C	 1.2586255039	-1.7903555495	 0.2945705043	-0.160852
C	 2.7652122039	-1.9125139971	 0.3609976848	 0.086927
C	 3.6083327886	-1.7157372938	-0.8236107452	-0.168105
O	 3.4959839372	-0.7000161891	 0.1775933451	-0.231973
C	 0.6472865496	-0.7169075209	 1.2314552442	 0.40137
O	 0.6171789629	-0.5477888283	 2.4115332988	-0.290497
H	 1.7039606638	 1.4430506858	-0.1895393755	 0.14869
H	 0.2857255637	 1.8240467051	-1.1880750772	 0.11891
H	 0.2329172729	 2.1106014665	 0.5653730287	 0.127109
H	-1.0045748183	 0.0033525572	-0.0168959179	 0.096275
H	 0.0822003136	-1.5302417316	-1.4247722609	 0.225545
H	 0.8052812188	-2.7808417356	 0.4393087717	 0.095217
H	 3.1322047667	-2.538783472	 1.1748453657	 0.104771
H	 4.5782444913	-2.2072833273	-0.8821790508	 0.114595
H	 3.1252724497	-1.4768527463	-1.7677102501	 0.127643
61.9845	85.7919	150.9549	207.2589	225.9462	237.8931	341.9795	399.5833	518.124	552.4359	625.4694	648.7185	762.6543	794.6228	854.0886	887.1084	923.7012	942.1845	977.1191	1034.1226	1059.5775	1068.7493	1097.614	1101.5115	1129.8238	1163.4951	1172.4594	1179.0761	1265.8054	1284.9287	1303.2814	1363.6577	1376.4993	1401.4374	1416.5857	1484.4944	1502.2992	1509.1778	1913.0461	3011.4314	3015.1052	3040.9803	3092.3673	3110.6669	3113.8452	3132.1913	3192.3868	3553.9956
CC1NC(C2CO2)C1=O	C[C@H]1N[C@@H]([C@H]2CO2)C1=O	
InChI=1S/C6H9NO2/c1-3-6(8)5(7-3)4-2-9-4/h3-5,7H,2H2,1H3	InChI=1S/C6H9NO2/c1-3-6(8)5(7-3)4-2-9-4/h3-5,7H,2H2,1H3/t3-,4-,5+/m1/s1
