18
gdb 13187	4.34004	1.28662	1.19004	2.1533	68.74	-0.2702	-0.0369	0.2334	1058.8457	0.153057	-384.938512	-384.930385	-384.929441	-384.971494	29.81	
O	-0.2486182595	 1.3776988976	-0.0092511647	-0.430987
C	-0.0393953206	-0.0091313406	-0.0160732606	 0.017869
C	 0.7459684957	-0.412148136	-1.2457408066	 0.142845
O	 1.1361018106	 0.400658168	-2.0498004929	-0.265207
C	 0.6765617783	-0.4869296023	 1.2554073997	 0.02056
C	 2.0034925929	 0.2108220106	 1.6667840776	-0.226164
C	 1.5185945063	 0.1733373343	 3.1408502712	-0.209847
C	 0.0731610517	-0.0606116435	 2.6230979907	-0.236152
H	 0.1818488282	 1.7099305136	-0.8130448273	 0.295291
H	-1.0086436851	-0.5400361458	-0.0763800404	 0.093203
H	 0.9515940749	-1.4958093209	-1.3651569118	 0.096575
H	 0.7982279655	-1.5754929557	 1.207104023	 0.068947
H	 2.9422529355	-0.2915464451	 1.4210398406	 0.094549
H	 2.0305282937	 1.2323376224	 1.2795530013	 0.116111
H	 1.9061057835	-0.6992451493	 3.6746292241	 0.100558
H	 1.6960232345	 1.060953174	 3.7519190266	 0.101061
H	-0.4751824036	 0.8790860146	 2.5236886275	 0.126715
H	-0.5514879624	-0.7872382758	 3.1482329819	 0.094072
69.1179	110.7766	120.9782	234.6685	267.1747	310.4238	370.2546	460.3304	571.1861	645.1399	727.2089	778.8813	792.2255	859.1839	899.075	933.1779	939.948	962.2984	987.0182	1032.7974	1079.9508	1129.7601	1183.5326	1201.2143	1242.4243	1251.5314	1261.9693	1264.7317	1279.6672	1293.0608	1328.9665	1357.6492	1404.5146	1434.4034	1473.1636	1485.1019	1508.4498	1809.3544	2920.303	2936.9681	3037.7083	3057.1863	3061.9943	3067.2695	3103.4068	3119.3424	3129.1672	3689.4349
OC(C=O)C1CCC1	O[C@@H](C=O)C1CCC1	
InChI=1S/C6H10O2/c7-4-6(8)5-2-1-3-5/h4-6,8H,1-3H2	InChI=1S/C6H10O2/c7-4-6(8)5-2-1-3-5/h4-6,8H,1-3H2/t6-/m0/s1
