21
gdb 106617	2.36058	1.57313	1.17847	2.4849	77.84	-0.2429	0.0827	0.3255	1133.5806	0.183378	-424.203874	-424.195371	-424.194427	-424.23669	33.545	
C	-0.2043179443	 1.5530289309	-0.1452434036	-0.438068
C	 0.0063653377	 0.052763736	 0.0098548207	-0.016391
C	 1.1827500452	-0.6093885639	-0.7958742264	-0.083031
C	 2.1311053719	-0.1561666415	 0.3573685877	-0.280315
C	 0.8689696522	-0.4803631281	 1.1944705516	 0.427003
C	 0.6836905268	-0.1584665369	 2.65260055	-0.170808
O	 1.6456543981	-0.8265602587	 3.4493963132	-0.42206
O	 0.7508231551	-1.9176270983	 1.0246508234	-0.33371
C	 0.9758435646	-2.0744684786	-0.3975024975	-0.088282
H	 0.7197041954	 2.1304925499	-0.0587025523	 0.120744
H	-0.639493177	 1.7755325056	-1.1256238755	 0.120052
H	-0.9008268169	 1.9279848073	 0.6124647489	 0.12239
H	-0.9541198268	-0.4672255472	-0.0783569217	 0.073032
H	 1.3739061364	-0.3877985375	-1.84570825	 0.070327
H	 3.0215994849	-0.7552193247	 0.5584698811	 0.102188
H	 2.384522897	 0.9024611732	 0.3279413151	 0.105237
H	 0.8152149136	 0.9151293041	 2.8216380474	 0.107518
H	-0.3441879497	-0.4231633833	 2.9510213366	 0.091003
H	 1.6364928536	-1.7444615037	 3.1522952445	 0.292725
H	 0.0997924966	-2.5386634507	-0.8650899745	 0.100608
H	 1.8535558857	-2.7076137836	-0.5729954489	 0.09984
102.4732	142.6974	188.6072	236.3187	265.5663	321.2125	374.3315	429.046	458.7383	491.2208	539.5328	645.5843	693.5308	787.0178	834.3829	873.9935	911.0662	912.0487	948.9389	974.8221	989.5504	1027.3274	1063.3814	1070.814	1086.0095	1112.3569	1120.5162	1139.4569	1163.9012	1188.6479	1218.33	1247.1764	1256.1594	1268.9754	1330.3796	1355.9455	1376.2839	1385.5993	1415.2661	1449.9463	1492.4401	1496.2733	1497.9135	1510.9346	1531.7636	2971.4977	3023.0969	3034.1308	3043.4568	3064.5948	3077.2536	3082.9971	3091.8038	3113.8358	3119.9298	3153.1091	3791.6269
CC1C2CC1(CO)OC2	C[C@H]1[C@H]2C[C@]1(CO)OC2	
InChI=1S/C7H12O2/c1-5-6-2-7(5,4-8)9-3-6/h5-6,8H,2-4H2,1H3	InChI=1S/C7H12O2/c1-5-6-2-7(5,4-8)9-3-6/h5-6,8H,2-4H2,1H3/t5-,6-,7+/m0/s1
