20
gdb 12287	4.15442	1.38827	1.18831	1.8674	71.6	-0.2488	0.07	0.3188	1085.2459	0.175944	-386.121362	-386.112398	-386.111454	-386.154885	32.997	
C	 0.2810164136	 1.072385249	-0.4158940018	-0.251964
O	-0.3838613637	 0.1586725815	 0.4416195329	-0.251165
C	 0.4814489873	-0.4999915	 1.3376811803	 0.107409
C	-0.2376214678	-1.3860626166	 2.3718251796	-0.285604
C	 0.812901232	-2.5041047507	 2.1003232896	 0.014035
C	 0.3430609378	-3.9467195529	 2.0199153254	-0.39904
C	 1.1924076034	-1.7748885987	 0.7693496903	 0.094488
O	 0.518269252	-2.2642568453	-0.3691870373	-0.443251
H	 1.0223616594	 0.5697361456	-1.0515294429	 0.124703
H	-0.480753757	 1.5306676799	-1.0507188755	 0.131463
H	 0.7868116528	 1.8595316983	 0.161453256	 0.114621
H	 1.1861822833	 0.209253969	 1.7919078474	 0.069401
H	-0.3358973286	-0.9990128379	 3.3881232776	 0.099033
H	-1.2286133103	-1.6659337487	 2.0024164449	 0.110426
H	 1.6469007544	-2.4113732954	 2.8054233496	 0.066103
H	-0.4092013923	-4.0579853725	 1.2346998674	 0.12497
H	 1.1719178181	-4.6225748369	 1.7831540999	 0.113484
H	-0.0936081213	-4.2708233965	 2.9708639943	 0.107825
H	 2.2622870829	-1.7071423631	 0.5426675973	 0.063382
H	-0.2199815761	-1.6586487981	-0.5268001153	 0.289681
63.6179	100.7635	173.3067	210.9737	234.0554	270.3894	290.5941	335.3462	422.9788	456.655	527.9972	591.2979	692.3226	765.8288	849.1219	885.864	931.4641	951.1553	1010.0526	1023.9811	1106.1478	1115.6497	1152.2056	1158.5778	1166.4726	1182.5416	1217.7698	1245.7965	1255.2551	1261.7885	1291.3899	1348.168	1358.5837	1384.967	1407.6057	1425.7981	1479.0036	1485.9596	1489.9204	1490.273	1501.2595	1507.2364	2993.541	3012.7713	3030.6157	3032.9918	3046.4754	3051.7682	3062.0352	3094.4094	3117.6456	3120.932	3121.7435	3725.3936
COC1CC(C)C1O	CO[C@H]1C[C@@H](C)[C@H]1O	
InChI=1S/C6H12O2/c1-4-3-5(8-2)6(4)7/h4-7H,3H2,1-2H3	InChI=1S/C6H12O2/c1-4-3-5(8-2)6(4)7/h4-7H,3H2,1-2H3/t4-,5+,6-/m1/s1
