19
gdb 116350	3.08165	1.31102	1.0223	1.7405	70.8	-0.2549	0.0797	0.3345	1170.0987	0.160667	-460.139144	-460.13111	-460.130166	-460.17183	31.134	
O	 0.0121043427	 1.4362795716	-0.0335742899	-0.424472
C	 0.0507259134	 0.0251129229	 0.0124115628	-0.067142
C	-1.3534749828	-0.5698103991	 0.0332993455	 0.068834
O	-2.0004988357	-0.0905574382	-1.1521064385	-0.265067
C	-3.267005089	-0.6726151066	-1.31444618	 0.013132
O	-3.1822718497	-2.0290539242	-1.6664660623	-0.244158
C	-2.4186998686	-2.7894535445	-0.7655290768	 0.093394
C	-0.9533787373	-2.9443706482	-1.0667769453	-0.310148
C	-1.3991561192	-2.0838029014	 0.0980679393	-0.083246
H	-0.5783939232	 1.6612119636	-0.7621302237	 0.291503
H	 0.6051219413	-0.3968310982	-0.8397045223	 0.094209
H	 0.5794266059	-0.2549479688	 0.929481321	 0.10754
H	-1.8906653684	-0.1612060156	 0.9054486365	 0.078085
H	-3.8532657491	-0.5471744377	-0.3866926758	 0.083019
H	-3.75862248	-0.166103861	-2.1470833064	 0.11948
H	-2.9723587826	-3.6305851737	-0.357714849	 0.100084
H	-0.4670659107	-3.8887399661	-0.8498708178	 0.114703
H	-0.6093221757	-2.4410814296	-1.9632542077	 0.132658
H	-1.2444939914	-2.4890260252	 1.0933637405	 0.097592
101.6966	126.1635	164.9778	265.1484	318.5426	371.932	418.2681	432.2673	500.8585	539.161	603.4291	745.7442	769.5063	815.2657	831.2524	893.1999	980.3665	1005.4522	1014.2669	1053.7842	1065.5982	1076.3676	1091.1751	1116.3603	1122.1522	1140.0668	1181.1108	1192.1869	1232.7366	1250.2284	1310.1837	1318.1865	1359.3744	1373.4193	1392.551	1407.8394	1438.0184	1450.6937	1475.4575	1498.407	1512.563	2944.8833	2967.0362	2995.6471	3079.7854	3116.1526	3137.6533	3141.1342	3156.9331	3231.0509	3798.4115
OCC1OCOC2CC12	OC[C@H]1OCO[C@H]2C[C@@H]12	
InChI=1S/C6H10O3/c7-2-6-4-1-5(4)8-3-9-6/h4-7H,1-3H2	InChI=1S/C6H10O3/c7-2-6-4-1-5(4)8-3-9-6/h4-7H,1-3H2/t4-,5+,6-/m1/s1
