21
gdb 113893	4.19023	0.73759	0.67501	3.7475	80.63	-0.2296	0.0418	0.2714	1710.7515	0.181607	-420.415942	-420.405725	-420.404781	-420.452162	36.854	
C	-0.0402530057	-2.8809424532	-0.0643457728	-0.383594
C	-0.1744666635	-1.6908833272	 0.8934436406	-0.201084
C	-1.4086304352	-0.8653973895	 0.5894542874	 0.033845
C	-2.7092801785	-1.1275302663	 1.2698641871	-0.257152
N	-1.9712380427	 0.1088971579	 1.5280746286	-0.111834
C	-1.3687657004	 0.2906253243	 2.8432397586	-0.250268
C	-2.1605088213	 1.2669001791	 3.7253278392	 0.377671
N	-3.0247385655	 2.0575114965	 3.0426439251	-0.50645
O	-1.9767337474	 1.3199624716	 4.9262028773	-0.368589
H	 0.8670990364	-3.4543562061	 0.1461023758	 0.118412
H	-0.8965911484	-3.5571521467	 0.0250298276	 0.121944
H	 0.0109537245	-2.5460632078	-1.1060423629	 0.119377
H	-0.2035469772	-2.0519311233	 1.92649972	 0.105377
H	 0.7157230323	-1.053586762	 0.8110243495	 0.105942
H	-1.4500627462	-0.51534133	-0.4425345842	 0.089828
H	-3.6534146648	-1.0222523633	 0.7422177713	 0.115537
H	-2.7118273538	-1.8810129946	 2.0568810984	 0.115741
H	-1.2529772487	-0.6313949699	 3.4280189563	 0.120044
H	-0.367530448	 0.7210277413	 2.7190694803	 0.133335
H	-3.1175785658	 1.9358735293	 2.0470835667	 0.265173
H	-3.56611166	 2.7415459898	 3.5427573299	 0.256744
46.1097	63.6495	93.9106	107.8039	207.5883	227.1463	270.2767	289.4197	342.7917	435.0016	464.9013	502.3221	560.8768	581.8885	703.4878	758.844	799.7169	855.154	879.772	908.5349	961.5874	1004.0452	1007.9697	1068.5248	1073.3693	1097.4953	1119.9543	1151.97	1171.5153	1197.6079	1262.3535	1290.9193	1330.5579	1347.7326	1350.6684	1362.2668	1409.8908	1430.3792	1468.0942	1486.3624	1498.5458	1507.3676	1514.3038	1580.9779	1806.9416	3013.2069	3025.4603	3035.1791	3062.5903	3072.2129	3092.1861	3096.1597	3107.3074	3111.0735	3179.2121	3586.539	3734.6255
CCC1CN1CC(N)=O	CC[C@H]1CN1CC(=O)N	
InChI=1S/C6H12N2O/c1-2-5-3-8(5)4-6(7)9/h5H,2-4H2,1H3,(H2,7,9)	InChI=1S/C6H12N2O/c1-2-5-3-8(5)4-6(7)9/h5H,2-4H2,1H3,(H2,7,9)/t5-,8?/m0/s1
