21
gdb 80143	2.27466	1.63238	1.43583	1.3057	83.53	-0.2309	0.0146	0.2455	1063.9218	0.183678	-387.094844	-387.086375	-387.085431	-387.127093	34.075	
C	-0.0422986735	 1.5110055368	-0.0030362023	-0.46223
C	 0.0095237572	-0.0040599991	-0.0179375225	 0.269016
C	-1.2704934382	-0.6632791599	-0.5163847459	-0.255352
C	-1.3432386694	-2.1975347704	-0.368449296	-0.274899
C	-0.7412031556	-2.6912885282	 0.9210564562	-0.098215
C	 0.1670590712	-1.9913535792	 1.612702609	-0.064203
C	 0.7063633976	-0.6935236558	 1.154543165	-0.172774
C	 1.3571834164	-0.639444812	-0.233288068	 0.076571
O	 1.540446157	-1.7996507781	-0.9829146604	-0.427739
H	 0.8954253426	 1.9402976922	 0.3643574921	 0.112403
H	-0.2181924362	 1.9088703527	-1.0096275467	 0.117531
H	-0.8493786484	 1.8725294723	 0.6452032125	 0.1155
H	-2.0985159973	-0.2202009482	 0.0528345611	 0.099733
H	-1.4391624832	-0.3909711503	-1.5649672217	 0.101926
H	-2.3897501832	-2.5176546546	-0.434462367	 0.099582
H	-0.8320382508	-2.6680927732	-1.2169176617	 0.124767
H	-1.0742751893	-3.6563704833	 1.2939011534	 0.089527
H	 0.5662804755	-2.3916929981	 2.5410546257	 0.088953
H	 1.1559973853	-0.0681007894	 1.9198839662	 0.080044
H	 2.1997324385	 0.0408656615	-0.3419199826	 0.092171
H	 1.348681774	-2.5527775559	-0.4078671363	 0.287688
156.6564	203.6479	211.7468	217.8537	264.3454	313.4059	347.838	402.6817	456.6212	480.3275	534.9424	623.0745	662.792	740.3799	764.4251	810.6328	837.6344	882.5543	939.9633	957.5628	992.5505	1006.5559	1020.7884	1050.3723	1081.0619	1095.0273	1119.1703	1144.2777	1196.497	1207.2148	1230.7269	1278.0705	1312.7576	1343.2049	1352.022	1377.9484	1389.7472	1414.7953	1423.3619	1449.1827	1475.5018	1489.0302	1494.2297	1505.6816	1694.4479	3012.7526	3019.9212	3027.5987	3049.8733	3062.6992	3080.3514	3094.4888	3120.0986	3144.0359	3153.3358	3172.2386	3734.5436
CC12CCC=CC1C2O	C[C@]12CCC=C[C@H]1[C@H]2O	
InChI=1S/C8H12O/c1-8-5-3-2-4-6(8)7(8)9/h2,4,6-7,9H,3,5H2,1H3	InChI=1S/C8H12O/c1-8-5-3-2-4-6(8)7(8)9/h2,4,6-7,9H,3,5H2,1H3/t6-,7+,8-/m0/s1
