20
gdb 22622	2.40034	1.51552	1.18823	1.0692	82.85	-0.2374	0.0255	0.2629	1132.6919	0.171534	-403.101596	-403.093141	-403.092196	-403.134233	33.302	
C	-0.0736506015	 1.5320632058	 0.0162239145	-0.496191
C	-0.0489342447	 0.0244570541	-0.0076297196	 0.24985
C	 0.6779716454	-0.8129812249	-1.1252171009	-0.27023
C	-0.2745906044	-1.9619217933	-0.6513741457	-0.119591
C	 0.2492839037	-2.2177553643	 0.781627555	-0.220575
C	 0.4193016018	-0.735120983	 1.2631215015	-0.248186
C	-1.2511010735	-0.8236848593	-0.4008176152	 0.448862
N	-2.4620449844	-0.52599861	-0.593218962	-0.314832
O	-3.1904334772	-1.6344186147	-1.094985641	-0.401051
H	 0.9288918186	 1.9366305962	 0.1936974356	 0.113937
H	-0.4443515911	 1.9367016037	-0.9302061549	 0.124217
H	-0.7287643629	 1.8979585178	 0.8137453866	 0.126787
H	 0.4510938096	-0.4562879995	-2.1314874033	 0.11012
H	 1.7530929391	-0.977376785	-1.0004381529	 0.093285
H	-0.525162394	-2.8146956895	-1.2765885092	 0.087189
H	-0.4642543516	-2.7785187479	 1.3900813277	 0.110382
H	 1.1944518784	-2.7679626816	 0.7724596093	 0.100522
H	 1.4552264257	-0.4880882668	 1.5153080917	 0.097614
H	-0.2049253561	-0.4996906437	 2.1295092966	 0.105491
H	-4.072505251	-1.2608200541	-1.1929810439	 0.302401
116.3469	160.134	199.937	241.7162	267.5608	296.4819	342.7508	399.9989	433.9338	552.0678	588.365	671.1718	706.8666	754.2034	843.7747	847.2555	875.2613	897.442	912.6068	943.9806	963.1795	991.0878	1013.1332	1057.2428	1078.9763	1125.1962	1141.5009	1168.6888	1213.7637	1231.1841	1252.7378	1254.4167	1266.773	1315.2287	1351.0898	1407.5825	1417.6	1486.413	1490.6269	1491.9955	1495.4351	1516.6794	1806.0476	3032.5253	3047.9767	3049.7483	3061.3476	3091.0796	3097.708	3107.7622	3111.4593	3126.624	3159.1843	3820.8436
CC12CC(CC1)C2=NO	C[C@@]12C[C@@H](CC1)C2=NO	
InChI=1S/C7H11NO/c1-7-3-2-5(4-7)6(7)8-9/h5,9H,2-4H2,1H3	InChI=1S/C7H11NO/c1-7-3-2-5(4-7)6(7)8-9/h5,9H,2-4H2,1H3/t5-,7+/m1/s1
