21
gdb 82955	2.52062	1.5836	1.50617	2.0474	81.42	-0.2054	0.0658	0.2711	1031.1526	0.185653	-383.222503	-383.214621	-383.213677	-383.254579	31.722	
C	 0.1514038456	 1.7408174713	-0.1644392275	-0.443142
C	 0.0570741594	 0.2361672238	-0.0668078464	 0.011694
C	 0.4997195603	-0.6887613884	-1.1557971535	-0.039943
C	 1.1231345979	-0.2074831195	-2.4677496119	-0.245398
C	 2.6054654726	 0.1268292097	-2.3954231608	-0.028679
N	 2.9706535793	 1.4245939194	-1.8030521435	-0.322723
C	 3.3107233387	 0.1805618869	-1.089105615	-0.027781
C	 2.5839151783	-0.123054598	 0.2137099088	-0.16436
N	 1.2149978249	-0.6419034329	 0.1238624774	-0.114943
H	 0.9870337696	 2.0693622371	-0.7856622138	 0.164112
H	-0.7791163206	 2.1432660252	-0.5817721479	 0.109514
H	 0.2738470877	 2.1804868816	 0.8329240243	 0.11224
H	-0.7966993371	-0.0958976077	 0.5263014656	 0.076984
H	-0.0678002328	-1.6110100984	-1.2766785653	 0.081377
H	 0.9985810308	-1.0098259638	-3.2017792507	 0.102796
H	 0.5799202135	 0.6585121433	-2.8627790311	 0.116216
H	 3.1864224114	-0.1963810161	-3.2559008009	 0.085157
H	 3.7939209462	 1.8052696484	-2.2605892509	 0.229402
H	 4.3602086022	-0.1056393954	-1.083875325	 0.08221
H	 3.1695831953	-0.8902267697	 0.7358859265	 0.103336
H	 2.594780077	 0.767846373	 0.8523699015	 0.111931
100.6835	164.1777	231.2349	241.9987	316.781	380.7528	436.3243	495.2412	525.137	545.9641	666.8692	742.7556	773.009	798.0054	837.4811	862.1003	893.2185	935.1618	957.6199	991.7478	1010.9146	1040.8	1053.1307	1107.1152	1122.0098	1158.2073	1164.0989	1172.5996	1195.3781	1210.9757	1248.7309	1276.7412	1284.3593	1351.4903	1361.3425	1367.9795	1392.0362	1402.1098	1427.6137	1439.5697	1463.1973	1480.5574	1492.0135	1505.9937	1517.9667	3014.713	3022.9958	3036.48	3055.4916	3070.3795	3077.0536	3078.6928	3097.881	3122.3506	3131.9214	3134.228	3507.0402
CC1C2CC3NC3CN12	C[C@H]1[C@H]2C[C@H]3N[C@H]3CN12	
InChI=1S/C7H12N2/c1-4-7-2-5-6(8-5)3-9(4)7/h4-8H,2-3H2,1H3	InChI=1S/C7H12N2/c1-4-7-2-5-6(8-5)3-9(4)7/h4-8H,2-3H2,1H3/t4-,5+,6-,7+,9?/m0/s1
