19
gdb 90422	2.23564	1.65686	1.32523	1.9237	75.36	-0.2415	-0.0269	0.2146	1067.4193	0.157784	-423.019654	-423.010938	-423.009994	-423.053097	32.593	
C	 0.3322277968	 1.5357614205	-0.2219606494	-0.407106
C	 0.0978691473	 0.0664948423	 0.0548072367	 0.148671
O	 0.8678837449	-0.8255827143	-0.7973587795	-0.309103
C	 1.2858357826	-1.6295114646	 0.3240572231	 0.096013
C	 2.7258810423	-1.2929530306	 0.7976569325	-0.114252
C	 3.8198239003	-0.9669627294	-0.2071403855	-0.414861
C	 2.1056363858	-0.1664841942	 1.6541038036	 0.397728
O	 2.5671091652	 0.7222690937	 2.3101206385	-0.309255
C	 0.6661773946	-0.6123334693	 1.329837673	-0.246015
H	 1.380174851	 1.813100665	-0.0850215648	 0.13622
H	 0.0401599022	 1.7703338546	-1.2504196559	 0.129813
H	-0.2761561688	 2.1467996975	 0.4530994494	 0.126783
H	-0.9703626032	-0.1691054975	-0.051254792	 0.085779
H	 0.99310752	-2.6768564864	 0.2288582413	 0.081683
H	 3.051939942	-2.0750099725	 1.5003482892	 0.104787
H	 3.4272484482	-0.3149774987	-0.9912082581	 0.138668
H	 4.6510530355	-0.4573615123	 0.2887827492	 0.134087
H	 4.2081312989	-1.8739281975	-0.6805276065	 0.120374
H	-0.0113511358	-0.8304634664	 2.1538263153	 0.099984
69.3684	132.8883	189.578	197.7452	202.5489	236.254	324.0921	421.5834	482.0171	529.4631	599.955	625.3297	729.4823	810.9319	836.6549	875.1287	892.5209	908.3792	977.1003	993.674	1033.9599	1073.4203	1086.0266	1107.5177	1134.4528	1148.8569	1158.8001	1198.832	1220.8693	1252.8844	1300.9626	1325.4228	1334.7429	1386.8519	1401.348	1413.3878	1481.7882	1490.5305	1493.1829	1504.5585	1883.4182	2999.4222	3004.8887	3041.2799	3044.3415	3093.1191	3110.0852	3111.7976	3127.5019	3129.2005	3130.9846
CC1OC2C(C)C(=O)C12	C[C@H]1O[C@H]2[C@@H](C)C(=O)[C@@H]12	
InChI=1S/C7H10O2/c1-3-6(8)5-4(2)9-7(3)5/h3-5,7H,1-2H3	InChI=1S/C7H10O2/c1-3-6(8)5-4(2)9-7(3)5/h3-5,7H,1-2H3/t3-,4+,5+,7-/m0/s1
