18
gdb 41209	2.90697	1.77255	1.57262	2.4065	72.64	-0.2336	0.0357	0.2693	917.1014	0.149586	-438.931185	-438.924376	-438.923432	-438.962066	28.075	
C	 0.0460582906	 1.5935806468	 0.1388535416	-0.204679
O	 1.5204869895	 1.4802831007	 0.012992383	-0.321565
C	 1.2100346357	 0.3021217539	-0.8534707049	 0.151155
C	 1.2249201153	-1.2557294057	-1.1340668644	-0.117985
C	 1.6595398903	-2.1240917186	 0.0268923039	-0.046623
O	 1.4005706247	-1.4826463191	 1.2578613655	-0.252567
C	 0.2327165453	-0.6750582518	 1.2512114684	-0.061392
C	-0.0088563602	 0.0437972935	-0.0898880767	 0.204171
N	-0.3212943572	-1.1225431176	-1.0696139704	-0.400514
H	-0.2415655673	 1.9905267555	 1.1157827317	 0.121623
H	-0.3718370607	 2.1974394988	-0.6755107031	 0.109456
H	 0.9912324115	 0.7453361773	-1.8356693204	 0.081402
H	 1.6123751778	-1.6076275161	-2.0932087822	 0.087968
H	 1.1397447745	-3.0924641514	-0.0439122673	 0.101945
H	 2.7392403269	-2.3057094953	-0.0106607491	 0.11269
H	-0.664050024	-1.28023443	 1.4568910173	 0.09889
H	 0.3736839287	 0.0383563926	 2.0654339828	 0.112178
H	-0.6322598714	-0.7462766134	-1.9664916356	 0.223848
159.8372	215.8894	281.8342	368.6299	414.5023	444.4826	531.0994	536.967	620.9129	729.6061	765.9484	828.5426	844.0951	844.9722	889.2664	902.3175	944.8244	967.8536	1011.3848	1036.2431	1048.2924	1086.2375	1122.346	1145.8808	1157.2082	1177.5785	1202.8707	1253.1443	1266.7638	1288.0031	1292.3034	1344.4452	1353.2326	1389.6207	1430.3001	1464.9069	1486.7652	1500.7995	1507.5996	2980.9704	2982.7519	2989.5626	3028.9729	3067.0285	3089.9729	3101.0449	3112.0835	3450.797
C1OC2C3COCC12N3	C1O[C@H]2[C@H]3COC[C@@]12N3	
InChI=1S/C6H9NO2/c1-4-5-6(7-4,2-8-1)3-9-5/h4-5,7H,1-3H2	InChI=1S/C6H9NO2/c1-4-5-6(7-4,2-8-1)3-9-5/h4-5,7H,1-3H2/t4-,5+,6-/m1/s1
