14
gdb 30535	6.97915	0.84515	0.75393	4.4816	75.51	-0.1899	-0.0213	0.1686	1407.7823	0.101326	-470.045309	-470.036901	-470.035956	-470.078824	30.151	
N	 0.0064545641	 1.2988854978	-0.059256093	-0.493662
C	 0.0615947084	-0.0503247247	-0.0291998264	 0.127185
N	 1.1860871824	-0.6723854208	 0.0126715095	-0.355009
C	 1.1994752144	-2.0348198841	 0.003528235	 0.491641
N	 2.2657605578	-2.787808643	 0.0706598855	-0.423157
C	 1.7819783344	-4.0749868471	 0.0304838116	 0.330612
O	 2.6130664135	-5.1336495057	 0.0800706765	-0.434228
C	 0.4298822498	-4.0731166977	-0.0608893812	-0.167408
O	 0.0415822985	-2.7444108838	-0.0798422034	-0.195027
H	 0.8619809297	 1.8208805652	 0.0445456805	 0.273935
H	-0.8679194498	 1.7807405664	 0.0422258529	 0.270954
H	-0.9120967255	-0.5460755523	-0.0623817228	 0.132671
H	 3.5054786459	-4.7716487614	 0.1408640163	 0.304221
H	-0.3413184937	-4.8177524287	-0.1202838411	 0.137271
54.751	127.5738	151.4762	183.2972	294.4115	355.6241	367.1506	396.5612	426.8563	549.757	610.6879	621.0401	698.8515	703.433	767.9247	798.3089	966.3704	1019.2136	1031.4397	1092.5417	1113.296	1193.7662	1262.2209	1316.2153	1340.7315	1389.8706	1411.9837	1597.4747	1638.1112	1695.9265	1725.9539	3099.1946	3313.2277	3608.1765	3749.3389	3804.09
NC=NC1=NC(O)=CO1	NC=Nc1nc(O)co1	
InChI=1S/C4H5N3O2/c5-2-6-4-7-3(8)1-9-4/h1-2,8H,(H2,5,6,7)	InChI=1S/C4H5N3O2/c5-2-6-4-7-3(8)1-9-4/h1-2,8H,(H2,5,6,7)
