20
gdb 112938	4.12561	0.82234	0.72918	4.7101	77.87	-0.2319	0.0359	0.2677	1563.9728	0.169325	-440.297802	-440.287516	-440.286572	-440.334861	35.203	
C	-0.1326537032	 1.3805562526	-0.3843574404	-0.489099
C	-0.051492539	-0.1248412375	-0.1793993783	 0.363492
O	 0.9724155506	-0.7704412411	-0.3274820127	-0.368939
N	-1.2182637932	-0.7185398032	 0.1843956454	-0.057569
C	-2.5464772864	-0.2363821089	 0.5634932151	-0.214597
C	-2.9231505709	-1.7040080615	 0.9249096015	 0.0052
C	-4.0026045157	-2.3241426964	 0.0604628817	-0.086545
O	-4.0655261371	-3.7029833375	 0.3838665501	-0.419143
C	-1.4635631482	-2.1101802734	 0.5604868	-0.174973
H	 0.8295509663	 1.7315581971	-0.7560355211	 0.146818
H	-0.9192594164	 1.6461581779	-1.0982559865	 0.130963
H	-0.3599108986	 1.8903126033	 0.5585447719	 0.134333
H	-2.5506340524	 0.4657558777	 1.4059080512	 0.112404
H	-3.1224858013	 0.2059145202	-0.260189862	 0.107769
H	-3.1689078825	-1.8523979462	 1.9777713666	 0.093923
H	-4.9650293125	-1.8200127542	 0.2487694883	 0.088835
H	-3.7533111367	-2.1705139705	-1.0027278803	 0.091245
H	-4.6967537221	-4.1263729579	-0.2050807607	 0.291083
H	-1.3675484167	-2.8231609009	-0.2644200959	 0.124175
H	-0.841965744	-2.4535192694	 1.3932993061	 0.120625
34.234	64.2297	73.74	98.2651	137.5214	177.1496	237.2306	260.4755	339.0644	417.6429	457.3695	565.6463	593.5122	644.5492	802.8512	890.2529	906.3522	925.3111	962.6197	1013.0486	1048.8661	1066.1486	1090.6272	1123.1621	1137.5645	1146.1441	1176.6477	1200.6452	1240.3932	1276.5892	1281.4753	1298.497	1325.7132	1369.8175	1380.0767	1447.1624	1465.4988	1474.1329	1482.4021	1508.7575	1519.3598	1532.4318	1767.0145	2956.947	2985.7465	3006.19	3039.2871	3046.0909	3046.8424	3087.0768	3099.4141	3103.5402	3160.6222	3833.2876
CC(=O)N1CC(CO)C1	CC(=O)N1CC(CO)C1	
InChI=1S/C6H11NO2/c1-5(9)7-2-6(3-7)4-8/h6,8H,2-4H2,1H3	InChI=1S/C6H11NO2/c1-5(9)7-2-6(3-7)4-8/h6,8H,2-4H2,1H3
