18
gdb 78189	2.19252	1.61587	1.42986	1.6052	77.64	-0.2311	0.0231	0.2542	1030.4167	0.14605	-401.857054	-401.848162	-401.847217	-401.890163	33.869	
C	-0.4078613414	 1.4623641838	-0.0360555126	-0.421248
C	-0.0250681374	 0.0008451435	-0.1056956612	 0.029061
C	 0.6289186122	-0.7128863191	-1.2231432775	-0.075337
C	 1.7234375745	 0.0843633825	-1.9106967082	 0.093908
O	 1.2767782344	 1.2120564335	-2.6187670644	-0.421359
C	 2.3868503965	 0.2430895362	-0.4936767375	-0.232253
C	 2.6861937287	 1.561475315	 0.024092041	 0.354505
C	 2.9978481069	 2.653290589	 0.4221219986	-0.440758
N	 1.3036917337	-0.595800882	 0.1559437022	-0.160102
H	 0.2183534658	 2.0980543982	-0.6562024382	 0.15137
H	-1.441895313	 1.5657184894	-0.3832000409	 0.115312
H	-0.3643700508	 1.815929592	 0.9990075034	 0.121214
H	-0.7558988834	-0.6352344944	 0.3941298541	 0.099944
H	 0.2667239483	-1.667406302	-1.5908419104	 0.095873
H	 2.3521048312	-0.5542943961	-2.5442206859	 0.087134
H	 2.0482240163	 1.7238882398	-2.8861087555	 0.288697
H	 3.2988857077	-0.3608176538	-0.4502943106	 0.11345
H	 3.2529622898	 3.6161924044	 0.7905535136	 0.200588
104.2356	126.3066	192.7373	220.8595	231.3535	261.8534	317.4849	356.3975	424.7447	520.8265	578.9746	617.9062	658.22	661.1816	711.5518	756.3972	789.7989	837.2362	905.3925	974.8295	979.4389	1030.4774	1065.8123	1087.3172	1115.9089	1150.7192	1168.5103	1209.0242	1250.216	1268.0383	1320.8129	1346.9205	1369.1709	1417.8776	1432.4578	1450.0231	1491.0101	1504.5013	2226.3542	3015.4604	3042.015	3053.434	3097.3129	3106.3074	3164.9999	3188.659	3500.5893	3806.7898
CC1C2C(O)C(C#C)N12	C[C@H]1[C@H]2[C@@H](O)[C@@H](C#C)N12	
InChI=1S/C7H9NO/c1-3-5-7(9)6-4(2)8(5)6/h1,4-7,9H,2H3	InChI=1S/C7H9NO/c1-3-5-7(9)6-4(2)8(5)6/h1,4-7,9H,2H3/t4-,5+,6-,7-,8?/m0/s1
