25
gdb 101234	3.56547	0.771	0.69245	1.5206	89.92	-0.2543	0.0722	0.3264	1766.7852	0.227454	-389.492364	-389.481595	-389.480651	-389.528466	40.069	
C	-0.0961212073	 1.6063409351	-0.001238353	-0.381787
C	 0.0646416268	 0.0844269676	-0.0173603704	-0.186367
C	 0.6692724836	-0.473500864	 1.2776471258	 0.117758
O	-0.1173077305	-0.1233901208	 2.4184631373	-0.434345
C	 0.9003850918	-1.977733113	 1.2179727653	 0.02986
C	 2.0140898158	-2.5398517737	 0.288933215	-0.254687
C	 2.3835531738	-3.5590187358	 1.4048266636	 0.054245
C	 3.8485682828	-3.8752357439	 1.6611497371	-0.406003
C	 1.6144309492	-2.6611755747	 2.41525832	-0.250362
H	 0.8777438582	 2.1033432912	 0.0710175275	 0.112676
H	-0.5872309191	 1.9653235191	-0.9107515281	 0.106398
H	-0.6909215329	 1.9192507345	 0.8608671694	 0.127213
H	-0.9131017976	-0.3940683983	-0.1780296037	 0.081058
H	 0.6941360761	-0.2213139936	-0.8624833578	 0.100492
H	 1.6343401291	 0.0204196701	 1.4587448306	 0.07595
H	-0.9691911149	-0.5653706389	 2.3275099295	 0.273732
H	-0.0545759098	-2.4793173806	 1.006751386	 0.053728
H	 1.7223197641	-2.9308589332	-0.6891179934	 0.093183
H	 2.8151240558	-1.8049013278	 0.1434235602	 0.093911
H	 1.8271628984	-4.4900194235	 1.2448044425	 0.067994
H	 4.4257213539	-2.9571215965	 1.8209416734	 0.109596
H	 3.9701725821	-4.5031375194	 2.5511490237	 0.113215
H	 4.2975225906	-4.4079728533	 0.8149586036	 0.11163
H	 2.2869627342	-1.9598116708	 2.9215800725	 0.098655
H	 0.9969193659	-3.1510297658	 3.1716627435	 0.092257
59.346	70.1669	108.1904	138.7265	215.5117	224.9296	251.893	288.4431	304.1098	321.421	365.2765	420.0217	460.6448	509.2643	634.647	769.4617	798.98	809.7043	887.3595	896.2859	926.1164	952.8309	969.0737	982.9218	1034.7415	1053.784	1064.5506	1105.0219	1113.6188	1135.3649	1147.3954	1174.9626	1224.0182	1232.1774	1258.8713	1263.4579	1268.8004	1298.5067	1299.7679	1329.7039	1370.0999	1380.2046	1401.1976	1405.3181	1411.8738	1419.9471	1474.801	1480.8506	1493.3681	1495.4966	1495.8868	1502.1654	1509.2959	2997.2662	3000.1283	3019.5541	3020.5867	3030.2948	3034.6913	3036.317	3047.41	3051.3913	3087.4916	3088.6594	3096.3916	3100.1064	3105.3932	3121.5005	3793.1289
CCC(O)C1CC(C)C1	CC[C@@H](O)[C@H]1C[C@@H](C)C1	
InChI=1S/C8H16O/c1-3-8(9)7-4-6(2)5-7/h6-9H,3-5H2,1-2H3	InChI=1S/C8H16O/c1-3-8(9)7-4-6(2)5-7/h6-9H,3-5H2,1-2H3/t6-,7+,8-/m1/s1
