15
gdb 28087	4.48461	0.8671	0.78552	4.0353	68.62	-0.2096	-0.0134	0.1962	1390.0848	0.112656	-453.997882	-453.989522	-453.988578	-454.032179	30.005	
O	 0.1278981205	 1.3031860921	 0.3277391349	-0.422161
C	 0.0908613536	-0.020005618	 0.105964728	 0.445938
N	 0.2587479024	-0.6323278292	-1.0351834085	-0.40817
C	 0.1345130596	-1.9847376536	-0.7327698043	 0.253849
C	 0.2300905305	-3.0226862867	-1.8054693592	-0.381266
C	-0.9992008827	-3.0177409588	-2.7044638931	 0.161558
O	-1.5880151537	-4.0062549212	-3.0569168364	-0.240923
C	-0.1133956204	-2.1533039178	 0.5993653817	-0.190857
N	-0.1363843095	-0.8693070146	 1.1364645675	-0.294992
H	 0.3037485749	 1.7176270952	-0.5263411192	 0.31686
H	 1.0959177493	-2.8021179833	-2.445783329	 0.135655
H	 0.35526661	-4.0272238159	-1.3945039634	 0.122701
H	-1.3225023232	-2.0016637859	-3.0204161955	 0.091421
H	-0.2686883617	-3.0278427889	 1.2076784594	 0.135059
H	-0.2760244295	-0.6092356534	 2.097670197	 0.275329
38.4192	62.9673	137.8646	249.8546	299.7621	371.1027	409.4691	436.0955	468.5834	492.2856	640.6082	675.2254	711.2506	736.675	747.3163	824.7037	993.6184	1022.8201	1044.459	1055.0761	1100.7415	1183.7433	1196.5398	1256.8104	1306.2601	1314.5044	1380.7165	1415.8713	1446.062	1562.465	1613.2299	1629.2337	1833.0302	2896.8118	3017.9503	3112.1211	3282.6399	3676.8744	3806.6374
OC1=NC(CC=O)=CN1	Oc1nc(CC=O)c[nH]1	
InChI=1S/C5H6N2O2/c8-2-1-4-3-6-5(9)7-4/h2-3H,1H2,(H2,6,7,9)	InChI=1S/C5H6N2O2/c8-2-1-4-3-6-5(9)7-4/h2-3H,1H2,(H2,6,7,9)
