20
gdb 58721	2.24587	1.41289	1.23696	1.0284	75.17	-0.2096	-0.0316	0.1779	1141.6431	0.16864	-440.245807	-440.23615	-440.235206	-440.280064	34.969	
C	-0.0588233371	 1.4361948746	-0.3152956162	-0.341932
N	-0.1294706398	 0.0286776462	 0.0647696698	-0.114134
C	 0.5045523048	-0.2378025571	 1.3522227859	-0.341935
C	-1.4307692369	-0.5701620715	-0.096724207	 0.168652
C	-1.9517648579	-0.7094422436	-1.5585336414	-0.122781
O	-2.2249133414	-2.1097683869	-1.3742721247	-0.27083
C	-1.4746678459	-2.126848871	-0.1469526418	-0.122772
C	-2.5499822894	-0.0547051259	 0.7991544004	 0.141522
O	-2.4329142119	 0.8106847635	 1.6288988541	-0.267511
H	 0.9935136562	 1.7341042945	-0.3716604842	 0.119562
H	-0.4927755347	 1.574528935	-1.31113077	 0.115913
H	-0.5732302257	 2.1104894167	 0.384455926	 0.128389
H	 0.0382203801	 0.29367256	 2.1942562127	 0.128408
H	 0.4786222958	-1.3118482498	 1.5640955194	 0.115907
H	 1.5568543751	 0.0602058105	 1.2957531908	 0.119551
H	-2.8499465605	-0.1491433365	-1.8402275243	 0.112454
H	-1.1530543106	-0.5319514209	-2.2889876355	 0.114496
H	-0.472543086	-2.5537116441	-0.2755586537	 0.114502
H	-2.0072697724	-2.6526323252	 0.6529859318	 0.112455
H	-3.5311245618	-0.5581384786	 0.6252855577	 0.090085
113.1976	113.3735	121.6058	198.371	214.9985	226.494	236.8201	319.1536	328.9045	356.4079	403.2906	494.7832	508.4961	723.587	787.8241	887.6778	919.904	958.0949	982.1263	1012.9592	1036.732	1075.5328	1099.0818	1119.3746	1156.7998	1166.6342	1181.7485	1190.7173	1241.7479	1258.9786	1306.2771	1346.2017	1382.4907	1416.1565	1440.732	1473.7042	1476.4549	1491.4473	1499.1209	1512.732	1525.1917	1529.0772	1825.309	2847.6039	2996.9724	3003.246	3015.1735	3024.9754	3065.6462	3067.1114	3075.3781	3076.1452	3094.711	3097.1448
CN(C)C1(COC1)C=O	CN(C)C1(COC1)C=O	
InChI=1S/C6H11NO2/c1-7(2)6(3-8)4-9-5-6/h3H,4-5H2,1-2H3	InChI=1S/C6H11NO2/c1-7(2)6(3-8)4-9-5-6/h3H,4-5H2,1-2H3
