27
gdb 60531	2.32651	1.16223	0.97481	0.0814	95.37	-0.2684	0.0794	0.3478	1423.7845	0.249974	-353.554865	-353.543731	-353.542787	-353.590709	43.077	
C	-0.0212261676	 1.6592267789	 0.0947587815	-0.411111
C	-0.0070794793	 0.1188761906	 0.0936223916	 0.011518
C	 0.8442622151	-0.368852169	 1.2602097607	 0.028772
C	 1.7117794168	-1.5996372568	 1.1678005497	-0.272247
C	 2.3472753577	-0.2336218962	 1.2011703292	-0.280071
C	-1.4359202814	-0.5242209805	 0.0322775484	 0.274544
C	-2.1589168613	-0.062100743	-1.2500335184	-0.414247
C	-1.3220903499	-2.0605760275	-0.0236035455	-0.404815
C	-2.298505667	-0.1396376083	 1.2507278362	-0.411377
H	 1.0034797307	 2.0407273897	 0.0635523634	 0.113727
H	-0.5548861972	 2.0731722496	-0.7642145456	 0.110591
H	-0.4860155944	 2.0563766593	 1.0032913265	 0.113299
H	 0.5046284639	-0.2004450225	-0.8271632951	 0.058919
H	 0.4122717031	-0.177625331	 2.2396035249	 0.079643
H	 1.8043494814	-2.2370492497	 2.0408715788	 0.107016
H	 1.7284032828	-2.138542867	 0.2265341617	 0.110206
H	 2.7847490911	 0.1387459284	 0.2797486376	 0.107736
H	 2.8788589089	 0.0710901663	 2.0959626713	 0.106845
H	-1.5567023111	-0.2700208768	-2.1420295928	 0.104952
H	-3.1103471575	-0.5933211561	-1.362603285	 0.105535
H	-2.3843015198	 1.0078118777	-1.238244814	 0.11132
H	-0.8751718152	-2.470740196	 0.8848867605	 0.118405
H	-2.3142560823	-2.5102138191	-0.1417357047	 0.101466
H	-0.710900892	-2.3839368634	-0.8739151308	 0.101465
H	-2.4576496883	 0.9409102183	 1.316699591	 0.110455
H	-3.2853093716	-0.609815438	 1.1774757852	 0.107087
H	-1.8495242156	-0.4735064479	 2.1914309037	 0.110364
32.1658	104.7687	178.1955	201.8825	205.3926	249.3676	266.6651	293.4825	298.1691	311.8266	344.5763	374.163	395.9302	431.9604	492.9956	524.558	712.5734	774.7278	817.9866	829.7327	877.0602	925.8004	933.2972	935.3541	955.4721	958.9306	983.2363	1017.6359	1032.7108	1059.5174	1078.493	1086.8169	1105.0683	1141.5614	1184.0314	1199.3822	1227.0611	1233.6761	1248.5495	1264.9518	1315.0865	1343.1532	1397.3099	1398.2828	1405.5313	1418.1189	1433.394	1470.0137	1478.4199	1483.6652	1488.6473	1497.8605	1501.8803	1505.565	1510.8232	1514.8591	1520.1342	2983.6997	3024.4068	3028.2487	3034.8751	3043.9626	3085.149	3089.7262	3094.9964	3101.6205	3104.6162	3109.2086	3120.3913	3121.2917	3125.2412	3129.8812	3135.61	3202.2768	3218.0694
CC(C1CC1)C(C)(C)C	C[C@@H](C1CC1)C(C)(C)C	
InChI=1S/C9H18/c1-7(8-5-6-8)9(2,3)4/h7-8H,5-6H2,1-4H3	InChI=1S/C9H18/c1-7(8-5-6-8)9(2,3)4/h7-8H,5-6H2,1-4H3/t7-/m0/s1
