13
gdb 129408	2.94567	1.67882	1.07479	3.6223	63.79	-0.25	-0.0553	0.1947	1014.9291	0.089527	-482.20267	-482.195145	-482.194201	-482.235027	28.205	
N	 0.618599308	 0.1371833945	-0.8445757217	-0.564005
C	-0.060974996	 0.1405749423	 0.3395118015	 0.445864
N	 0.0955325431	 0.8253853674	 1.3952984501	-0.513694
N	-1.165835359	-0.7809506999	 0.3148418712	-0.144348
N	-2.0966725373	-0.7767776446	 1.2983048714	 0.014061
N	-2.9345080076	-1.6695313995	 1.1083371452	 0.020203
O	-2.5831019053	-2.3750745196	-0.0965273147	-0.2411
C	-1.45839458	-1.8014446285	-0.58901089	 0.572876
N	-0.8055400731	-2.1084562108	-1.6313452829	-0.616199
H	 1.5288063353	 0.5654033645	-0.834892499	 0.260017
H	 0.4640269517	-0.6402783765	-1.4839915978	 0.294784
H	 0.8833598135	 1.4630396243	 1.3019446298	 0.221158
H	-1.2232999033	-2.8931706537	-2.121932443	 0.250383
67.2035	136.9428	242.437	265.6885	393.2099	406.4886	444.4574	538.7273	583.8586	642.1336	647.9614	696.4746	725.2114	747.3039	752.3332	780.7891	804.5845	999.2325	1056.0759	1096.0201	1135.3452	1200.4706	1223.2943	1352.8522	1432.7755	1564.9699	1649.9589	1752.925	1775.0059	3424.4764	3517.7262	3554.9529	3685.742
NC(=N)N1N=NOC1=N	NC(=N)N1N=NO[C@@H]1[NH]	
InChI=1S/C2H4N6O/c3-1(4)8-2(5)9-7-6-8/h5H,(H3,3,4)	InChI=1S/C2H5N6O/c3-1(4)8-2(5)9-7-6-8/h2,5H,(H3,3,4)/t2-/m1/s1
