17
gdb 13117	4.07788	1.28751	1.05092	1.6769	66.63	-0.254	0.016	0.2699	1133.5446	0.141428	-400.986023	-400.977717	-400.976772	-401.019539	29.263	
C	-0.0629560888	 1.4578521368	 0.0304331985	-0.3871
C	-0.1619127393	-0.0506846331	 0.1648057368	-0.052093
O	 0.8902869873	-0.487956125	 1.0253483598	-0.253285
C	 0.914782491	-1.867323902	 1.2172473434	 0.005854
C	 1.9722137863	-2.3327248397	 2.2344968504	-0.114748
O	 0.9238013373	-2.9311356889	 3.0623171996	-0.2519
C	-0.0688400377	-2.4648793783	 2.2258840491	 0.419575
N	-1.3174741988	-2.5176185931	 2.3208944358	-0.544775
H	 0.90697561	 1.7468648024	-0.3844214212	 0.124736
H	-0.8497760112	 1.8294199145	-0.6325665984	 0.119327
H	-0.1769524816	 1.9385160262	 1.0060720113	 0.130363
H	-1.1316457831	-0.3504895537	 0.58182588	 0.132664
H	-0.0566186804	-0.5396063908	-0.8177395432	 0.088543
H	 0.9284573391	-2.4131283336	 0.2620049767	 0.095339
H	 2.6913198	-3.0843664826	 1.9038338321	 0.123182
H	 2.4666792853	-1.510272529	 2.7551270231	 0.134152
H	-1.6105797755	-2.9803518801	 3.1837935162	 0.230165
68.214	92.0486	114.1913	197.2484	237.5402	265.2251	383.9869	401.4119	476.5598	687.6884	742.6981	820.2124	832.6831	872.0746	918.8419	946.8875	967.0566	1014.2153	1065.1425	1086.0044	1152.0707	1157.1756	1188.3238	1198.1965	1234.2207	1257.1791	1302.9985	1336.498	1380.1178	1404.9168	1445.628	1483.933	1500.9238	1506.7328	1530.1377	1821.9468	2972.3937	2996.9093	3045.5572	3047.7938	3074.5925	3120.9987	3122.9438	3140.899	3466.8995
CCOC1COC1=N	CCO[C@H]1CO[C]1[NH]	
InChI=1S/C5H9NO2/c1-2-7-4-3-8-5(4)6/h4,6H,2-3H2,1H3	InChI=1S/C5H9NO2/c1-2-7-4-3-8-5(4)6/h4,6H,2-3H2,1H3/t4-/m0/s1
