15
gdb 128350	4.95829	1.07987	0.89346	5.6807	75.16	-0.2281	-0.0835	0.1446	1246.4872	0.112654	-450.092756	-450.084463	-450.083519	-450.126503	29.857	
C	-0.0490371385	 1.4382611447	 0.0032669694	-0.321017
N	-0.0584140258	-0.0128348116	 0.0888149068	-0.359275
C	-1.2451975972	-0.6962237724	 0.0585445664	 0.40375
N	-2.3635213045	-0.0475928794	 0.113090141	-0.182365
O	-3.5196214668	-0.8489565616	 0.1689110151	-0.277333
C	-3.4883159449	-2.2246827082	 0.0214072429	 0.455565
N	-4.5643794368	-2.8873087577	-0.064267131	-0.506853
N	-2.2538282762	-2.8805910586	-0.0053040344	-0.230955
C	-1.2042452224	-2.1566815916	 0.0182161984	-0.02689
H	 0.9821798647	 1.7874777526	 0.0770164275	 0.130069
H	-0.4951905774	 1.8059327396	-0.9301607346	 0.138454
H	-0.6276408365	 1.8535271171	 0.8321187339	 0.161401
H	 0.7236340505	-0.4921259685	-0.3294591436	 0.253504
H	-5.3660687708	-2.2555083284	-0.0409499223	 0.232139
H	-0.2312675076	-2.6525997561	 0.0117996844	 0.129806
33.0291	131.2601	156.7524	191.1418	294.8771	357.4453	384.7018	427.2377	460.8477	569.9648	582.7132	632.8101	768.2568	779.9347	838.3297	873.7449	929.0564	968.0724	1024.4684	1050.3319	1087.4123	1150.0121	1191.3421	1282.2725	1320.2488	1432.6354	1456.5467	1475.3692	1506.3486	1549.9505	1624.2587	1714.4804	1719.8652	3020.3209	3098.6535	3107.4738	3143.0663	3489.9339	3624.0162
CNC1=NOC(=N)N=C1	CNC1=NOC(=N[CH]1)[NH]	
InChI=1S/C4H6N4O/c1-6-3-2-7-4(5)9-8-3/h2,5H,1H3,(H,6,8)	InChI=1S/C4H6N4O/c1-6-3-2-7-4(5)9-8-3/h2,5H,1H3,(H,6,8)
