23
gdb 99750	1.84961	1.39039	1.00048	3.5338	83.09	-0.2271	0.0627	0.2898	1341.5695	0.204598	-421.655075	-421.644061	-421.643117	-421.69113	40.572	
C	-0.2924467819	 1.6380706903	-0.1138882857	-0.381004
C	 0.0736279211	 0.1536906991	 0.018909793	-0.170502
N	 0.7092181895	-0.4257443393	-1.1599197778	-0.101855
C	 2.1518193395	-0.7236391961	-1.135514757	 0.037352
C	 2.9975019605	 0.5214491105	-0.8412850835	-0.392182
C	 2.4767734211	-1.8786734195	-0.1780420922	-0.387263
C	 0.015230095	-0.7313074366	-2.3131800818	 0.447374
N	-1.3516357833	-0.4645802962	-2.2925066122	-0.569141
O	 0.5456740485	-1.1686325044	-3.323427379	-0.413259
H	 0.6010647997	 2.2421756398	-0.2911315062	 0.127887
H	-0.9810273563	 1.7990624662	-0.9465312502	 0.139473
H	-0.7700825869	 1.9931213713	 0.805608616	 0.111053
H	 0.7633674586	 0.0242825542	 0.8568964812	 0.116451
H	-0.816281647	-0.4295667203	 0.2959526283	 0.098837
H	 2.3685209286	-1.0523530996	-2.1526887124	 0.133289
H	 4.0610979594	 0.2738364616	-0.9152372318	 0.117058
H	 2.78302094	 1.3176560343	-1.5596078335	 0.125559
H	 2.8246606627	 0.9113090197	 0.1683624723	 0.108712
H	 1.8955562253	-2.7684309422	-0.4359827725	 0.123148
H	 3.5391507919	-2.1344282499	-0.2434558644	 0.117043
H	 2.2672585883	-1.6229653994	 0.8671410716	 0.107983
H	-1.8534295951	-0.5255142869	-1.4209680755	 0.246625
H	-1.8188403893	-0.9050499665	-3.0702996366	 0.25736
49.148	88.67	112.7885	154.7372	208.1064	223.5704	233.7518	262.0395	312.6952	338.1355	387.3159	398.6161	469.9199	473.1809	539.4212	553.9147	610.3499	709.8768	775.0418	795.0689	881.3477	926.7557	945.8728	948.8726	1028.3743	1084.7513	1104.7709	1111.8585	1142.8911	1174.6849	1223.0648	1250.8667	1329.3677	1361.5966	1370.3908	1398.4599	1404.8503	1410.1511	1418.4911	1448.9423	1483.378	1489.5877	1492.558	1497.711	1506.2336	1507.6363	1521.884	1620.6413	1768.4357	2996.1031	3028.6725	3033.0956	3043.9323	3087.5903	3092.226	3092.5687	3113.4463	3114.9638	3116.4881	3123.229	3135.7178	3583.1026	3696.4454
CCN(C(C)C)C(N)=O	CCN(C(C)C)C(=O)N	
InChI=1S/C6H14N2O/c1-4-8(5(2)3)6(7)9/h5H,4H2,1-3H3,(H2,7,9)	InChI=1S/C6H14N2O/c1-4-8(5(2)3)6(7)9/h5H,4H2,1-3H3,(H2,7,9)
