15
gdb 33702	3.2234	1.8327	1.3499	4.446	73.8	-0.2418	-0.0343	0.2076	913.1794	0.114373	-379.595365	-379.588909	-379.587964	-379.626014	26.256	
N	 0.0429552698	-1.1241917665	-0.041714495	-0.338227
C	 0.0290680282	 0.030864272	-7.8257*^-6	 0.184018
C	 0.0270271715	 1.4764527539	 0.0760892417	 0.226223
C	-0.8990895457	 2.1689806905	 1.0622117053	-0.152545
C	-0.7048149358	 3.4587849601	 0.791090351	-0.09309
C	 0.3147637987	 3.427448968	-0.3243965184	-0.054692
C	 1.3578171361	 2.3068485802	-0.0322953563	-0.093708
C	 1.3457400922	 2.0099400593	-1.5345361707	-0.203805
N	-0.1443228478	 2.2697620448	-1.2740097045	-0.161164
H	-1.555659007	 1.6759529879	 1.7627476833	 0.136586
H	-1.167685013	 4.3344021755	 1.2213050483	 0.129157
H	 0.6148234866	 4.3419514287	-0.8337634217	 0.092361
H	 2.1838678854	 2.3115261526	 0.6878315083	 0.085864
H	 1.7965792493	 2.7480116112	-2.2014933869	 0.111338
H	 1.5623883413	 0.9925673519	-1.8662273288	 0.131684
153.7385	172.0413	399.0247	427.0197	479.8111	524.6177	530.3566	568.9373	692.3018	710.5703	747.5419	791.0152	832.1961	871.9572	916.4477	918.4886	937.2147	977.4379	1043.126	1048.616	1082.5897	1103.1719	1132.3997	1152.7532	1201.89	1228.4447	1244.995	1254.2313	1303.5465	1333.5399	1532.6884	1635.7333	2356.546	3046.1253	3071.929	3134.7261	3138.7092	3240.3476	3267.0366
N#CC12C=CC3C1CN23	N#C[C@@]12C=C[C@H]3[C@@H]1CN23	
InChI=1S/C7H6N2/c8-4-7-2-1-6-5(7)3-9(6)7/h1-2,5-6H,3H2	InChI=1S/C7H6N2/c8-4-7-2-1-6-5(7)3-9(6)7/h1-2,5-6H,3H2/t5-,6-,7-/m0/s1
