16
gdb 22093	3.19355	0.9772	0.76518	9.2674	73.97	-0.2217	-0.0644	0.1572	1407.8923	0.122547	-471.16035	-471.150911	-471.149967	-471.195679	33.199	
N	 0.5353830684	 1.1498157356	 0.6660201054	-0.531682
C	 0.163933577	 0.0137698108	-0.0014995528	 0.408031
N	 0.9381722328	-0.9578053991	-0.3176861797	-0.537719
H	 1.9019895013	-0.8212594159	-0.0162827564	 0.21406
H	-0.0830015589	-1.8930951193	-1.5157554723	 0.299558
C	-1.3150112959	-0.0481278775	-0.3520163058	-0.368245
C	-1.7207170665	-0.7760418354	-1.6172707161	 0.174341
C	-2.9651234781	-0.3807187084	-2.2717177774	 0.095563
O	-3.4747905582	-0.8843872986	-3.247489158	-0.266641
N	-0.9668681791	-1.7742866643	-2.0655428012	 0.056795
O	-1.1537648921	-2.5075401853	-3.0538646427	-0.401946
H	 1.42933404	 1.1746289585	 1.1299753611	 0.2595
H	-0.1663787139	 1.772851112	 1.0281947068	 0.265909
H	-1.8168633187	-0.4920099643	 0.5227882575	 0.153857
H	-1.7050917578	 0.9734864907	-0.4204530739	 0.128555
H	-3.4428828303	 0.4943600205	-1.7663309744	 0.050065
35.7657	60.2749	166.668	196.8773	226.3914	273.1677	289.6262	338.9639	371.245	408.4607	454.4955	503.377	547.009	593.5701	772.933	839.9223	893.8974	934.2624	943.4858	1012.6475	1092.0272	1094.8749	1148.7188	1192.2721	1237.75	1326.1194	1424.5526	1451.135	1452.0684	1465.0974	1514.5679	1644.7134	1659.279	1721.9928	1790.0359	2820.5203	2982.9015	3056.2381	3059.8239	3482.1213	3596.4076	3715.4454
NC(=[NH2+])CC(C=O)=N[O-]	NC(=N)C[C](C=O)N[O]	
InChI=1S/C4H7N3O2/c5-4(6)1-3(2-8)7-9/h2,9H,1H2,(H3,5,6)	InChI=1S/C4H7N3O2/c5-4(6)1-3(2-8)7-9/h2,7H,1H2,(H3,5,6)
