13
gdb 25113	3.42019	1.41684	1.05712	2.7903	70.9	-0.2725	-0.0868	0.1856	1050.036	0.090196	-452.774839	-452.767597	-452.766653	-452.807361	26.377	
N	-0.0921941756	 1.2659672815	 0.6358662234	-0.478849
C	-0.0067435253	 0.1797481897	-0.008008057	 0.367168
O	 1.2317785762	-0.1812104419	-0.539671464	-0.235554
C	 1.5653498782	-1.3358037369	-1.1721504319	 0.139229
N	 0.8917050647	-2.1707377182	-1.8324166877	-0.276127
C	-0.4930009688	-2.1433541616	-2.0650838619	 0.358368
O	-0.944700328	-2.5255760664	-3.1184549973	-0.299452
C	-1.4039095881	-1.6957307306	-0.9803772427	-0.185851
C	-1.1843992221	-0.6811146236	-0.1377150934	-0.07593
H	 0.8034513077	 1.7564344552	 0.6454804568	 0.239708
H	 2.6427264215	-1.4654664073	-1.0808899481	 0.153164
H	-2.3797011005	-2.170730653	-0.9974974999	 0.144261
H	-1.98033548	-0.3520645569	 0.5214058838	 0.149867
57.4005	93.5746	261.1732	325.2848	345.2992	420.7584	450.2572	558.9536	605.8221	713.3541	743.888	787.4942	833.1528	849.0353	868.9772	913.9447	987.3918	1020.1788	1027.2439	1129.5794	1184.5831	1275.03	1330.5449	1396.647	1445.514	1677.8736	1725.4437	1736.2221	1791.5606	3157.3459	3185.7797	3205.7794	3486.5558
N=C1OC=NC(=O)C=C1	[NH][C]1OC=NC(=O)C=C1	
InChI=1S/C5H4N2O2/c6-4-1-2-5(8)7-3-9-4/h1-3,6H	InChI=1S/C5H4N2O2/c6-4-1-2-5(8)7-3-9-4/h1-3,6H
