21
gdb 68226	3.11572	1.63015	1.40732	1.6281	80.86	-0.2364	0.0839	0.3202	1018.0264	0.184592	-387.081985	-387.074516	-387.073572	-387.113232	31.476	
C	-0.0096370582	 1.5551113255	 0.0476888979	-0.469384
C	 0.0079023207	 0.0476786179	-0.0553169038	 0.41286
C	 0.938043479	-0.6357613124	-1.0913186671	-0.284094
C	 1.1816406583	-1.6131066401	 0.0764243271	 0.071191
O	 0.7946069204	-0.5757889286	 1.0180547441	-0.325689
C	 0.1214279588	-2.7011775417	 0.0625532454	-0.030675
C	-0.7852505966	-2.8352238712	 1.2559894497	-0.292695
C	-1.2816648231	-2.1308474655	 0.0123482859	-0.035068
C	-1.3860126903	-0.6027375678	-0.0437096578	-0.260915
H	 1.0097204702	 1.9487797479	 0.0859982441	 0.120693
H	-0.5216930997	 1.9934983391	-0.8156489385	 0.117061
H	-0.5363494598	 1.8737640075	 0.9535226141	 0.123824
H	 0.4973243444	-1.0323204262	-2.008717928	 0.09446
H	 1.8095543637	-0.0174582099	-1.3158270642	 0.099828
H	 2.1923038474	-1.9824722407	 0.271122176	 0.071891
H	 0.355803642	-3.5823281628	-0.5273379912	 0.079489
H	-1.1955453646	-3.8149666779	 1.4755797908	 0.101532
H	-0.5538110921	-2.2226640879	 2.1191212945	 0.1286
H	-2.0197595295	-2.6686002199	-0.5734792906	 0.080011
H	-1.9563939188	-0.2136559242	 0.8090603983	 0.101066
H	-1.9248186424	-0.3017906809	-0.9504161568	 0.096013
175.4599	202.1838	274.4066	286.0941	373.4024	395.7043	433.8105	470.1953	537.122	646.173	682.9734	764.3244	812.889	832.288	834.2761	867.6614	908.4559	926.6856	933.031	966.1821	984.7197	1010.0308	1047.6139	1053.4172	1084.2769	1106.7493	1112.3672	1130.4357	1149.4495	1209.096	1215.4371	1238.5066	1247.3799	1254.0489	1300.4044	1339.3843	1361.6862	1365.4009	1397.7791	1407.9006	1468.6001	1476.8434	1484.8005	1488.9173	1494.4707	3020.7194	3034.193	3059.9055	3062.9993	3071.9443	3102.842	3115.5512	3129.2192	3136.7276	3148.6148	3159.3361	3231.6191
CC12CC(O1)C1CC1C2	C[C@@]12C[C@@H](O1)[C@H]1C[C@H]1C2	
InChI=1S/C8H12O/c1-8-3-5-2-6(5)7(4-8)9-8/h5-7H,2-4H2,1H3	InChI=1S/C8H12O/c1-8-3-5-2-6(5)7(4-8)9-8/h5-7H,2-4H2,1H3/t5-,6-,7+,8+/m0/s1
