23
gdb 95213	2.38989	1.65554	1.15899	1.2339	84.74	-0.243	0.0778	0.3209	1159.5801	0.207394	-388.291422	-388.282736	-388.281792	-388.324282	34.88	
C	 0.0464504385	 1.5249396698	-0.1644604258	-0.414035
C	 0.0753715024	 0.0092161644	-0.0256108134	 0.138899
O	 0.6735686926	-0.5128504713	-1.2117499241	-0.260585
C	 0.3536049846	-1.8798851983	-1.397257952	-0.10372
C	 0.8110497712	-2.7326409276	-0.2307383228	-0.039151
C	 2.2154184592	-2.5570200378	 0.2751513714	-0.284735
C	 1.0529363689	-2.0333956587	 1.0910658362	-0.036097
C	 0.7943684946	-0.5259099087	 1.235727109	-0.006484
C	 2.0745197384	 0.2394104011	 1.6041508812	-0.395777
H	 1.0526611046	 1.9257780445	-0.3117960829	 0.12803
H	-0.5592293794	 1.8068602797	-1.0297766139	 0.11874
H	-0.3850208325	 1.9892013659	 0.7278897005	 0.11173
H	-0.9656339813	-0.3557621763	 0.0160463125	 0.059431
H	-0.7359083287	-1.9916480489	-1.5365989372	 0.083794
H	 0.8429536915	-2.1857472842	-2.3287021055	 0.103161
H	 0.3817315053	-3.730168699	-0.2031729236	 0.079309
H	 2.7486123834	-3.426320735	 0.6441375099	 0.103835
H	 2.836573869	-1.834463023	-0.2429674479	 0.120367
H	 0.8259258409	-2.6105623513	 1.9823951717	 0.080319
H	 0.0861809666	-0.4003184272	 2.0651272872	 0.068246
H	 2.7754224139	 0.2735345986	 0.764807602	 0.125033
H	 1.8584402422	 1.269185788	 1.9031424777	 0.109421
H	 2.5821205742	-0.2514803246	 2.4403048498	 0.110269
71.3428	207.2354	232.5693	257.2825	287.478	302.1714	316.662	358.4123	397.5075	473.8118	525.1545	641.4744	706.7348	723.7956	775.3874	821.1074	859.1083	877.4973	927.492	988.8868	992.7142	1012.493	1029.321	1071.1513	1081.7609	1093.6368	1114.1933	1125.1447	1133.2577	1160.599	1170.4057	1188.4866	1231.9329	1291.4449	1324.6838	1347.4088	1369.1855	1375.6602	1388.7845	1397.1728	1410.9269	1417.1357	1425.4461	1480.2649	1484.472	1496.841	1498.8992	1503.1086	1513.1682	2943.5608	2953.2516	3015.2662	3038.6652	3045.3297	3058.9616	3105.6841	3111.4841	3116.9102	3124.7675	3132.8932	3138.9325	3149.7443	3219.2381
CC1OCC2CC2C1C	C[C@H]1OC[C@H]2C[C@H]2[C@H]1C	
InChI=1S/C8H14O/c1-5-6(2)9-4-7-3-8(5)7/h5-8H,3-4H2,1-2H3	InChI=1S/C8H14O/c1-5-6(2)9-4-7-3-8(5)7/h5-8H,3-4H2,1-2H3/t5-,6+,7+,8-/m0/s1
