18
gdb 85797	2.54213	1.21036	1.18174	3.5112	80.89	-0.2412	0.0237	0.2649	1192.5397	0.14524	-401.940826	-401.931028	-401.930084	-401.975417	35.054	
C	-0.0152862752	 1.4398350631	-0.0492200567	-0.344761
N	-0.005027256	 0.000368973	-0.0656401041	-0.075304
C	-1.0820639762	-0.987449651	-0.0650406455	-0.211793
C	 0.0232647786	-2.1062398382	-0.0525585893	-0.0314
C	 0.110498089	-2.9333022726	 1.2358113881	-0.442875
C	 0.0640489237	-2.9295532211	-1.2457385369	 0.30664
C	 0.101253042	-3.6151754381	-2.2326729934	-0.47166
C	 1.027917534	-0.8954212791	-0.069844294	 0.387445
O	 2.2222082453	-0.7671220068	-0.0587292222	-0.373585
H	 1.0235007748	 1.7781309212	-0.0394336321	 0.164515
H	-0.5121448351	 1.8478443431	-0.937722266	 0.132272
H	-0.5228967711	 1.8281152836	 0.8422382348	 0.129299
H	-1.7119769706	-0.9625141837	 0.8318070619	 0.11043
H	-1.7083897674	-0.9706889689	-0.962051741	 0.121681
H	-0.7034293413	-3.6619030349	 1.2853848351	 0.129345
H	 1.0601393142	-3.4728681466	 1.2671488699	 0.149352
H	 0.0554966765	-2.2825743968	 2.1140148764	 0.121503
H	 0.1439408446	-4.2189235762	-3.1052059649	 0.198894
79.6328	115.7463	141.1053	160.0418	186.6259	212.9328	246.7848	248.9328	352.3234	403.6806	493.6041	587.1589	593.9703	620.3075	640.0389	733.593	786.0836	812.8963	935.105	940.7143	984.2718	1046.5619	1123.1245	1127.5959	1165.3306	1177.8948	1235.8382	1266.8282	1315.5112	1401.6018	1421.9151	1448.6426	1482.3556	1487.0355	1494.593	1510.4517	1532.034	1885.0314	2234.478	3015.996	3029.9238	3042.1621	3068.0375	3086.1181	3115.6206	3129.3576	3131.2238	3502.3459
CN1CC(C)(C#C)C1=O	CN1C[C@@](C)(C#C)C1=O	
InChI=1S/C7H9NO/c1-4-7(2)5-8(3)6(7)9/h1H,5H2,2-3H3	InChI=1S/C7H9NO/c1-4-7(2)5-8(3)6(7)9/h1H,5H2,2-3H3/t7-/m1/s1
