20
gdb 100651	2.50574	1.09443	0.96879	4.224	75.51	-0.2757	0.0181	0.2938	1331.952	0.16735	-440.297868	-440.286972	-440.286027	-440.33341	39.472	
C	-0.0554734339	 1.6103644627	 0.1156817495	-0.390507
C	-0.006627598	 0.0836478869	 0.0052688336	-0.212371
C	-1.4028119579	-0.5365767425	-0.0945785898	 0.110827
O	-2.0832302196	-0.1674126597	-1.2809665372	-0.424798
C	-1.394320761	-2.0912860466	 0.0825835297	 0.178173
C	-0.5751269567	-2.8188996797	-0.9878536175	-0.41787
O	-0.8206700501	-2.4442983055	 1.3361443708	-0.440311
C	-2.7986615739	-2.5665565328	 0.0365176768	 0.260791
N	-3.8906633999	-2.9435292414	 0.0611955309	-0.33682
H	 0.9523193875	 2.0350186481	 0.1265301316	 0.117191
H	-0.6027985101	 2.0468506075	-0.7245006628	 0.129337
H	-0.5597209171	 1.9218021494	 1.0367781342	 0.12018
H	 0.5767243725	-0.2042460467	-0.8805024615	 0.092907
H	 0.5081625397	-0.3502939136	 0.8678873763	 0.12108
H	-2.0240689892	-0.139387939	 0.7201047019	 0.091721
H	-1.4757401251	-0.2686184744	-2.0217982005	 0.286554
H	 0.4760842072	-2.5363658188	-0.9018359239	 0.138335
H	-0.655923809	-3.8980042126	-0.8453283864	 0.150599
H	-0.941542153	-2.5744626811	-1.9875637044	 0.129884
H	-1.3972087423	-2.12264003	 2.0391720686	 0.295098
72.4668	98.4972	128.3957	186.158	207.6775	231.3379	240.9846	268.0506	298.2967	308.8449	319.3504	366.6191	425.7249	446.0418	502.6201	592.4337	630.2906	747.5579	787.9126	880.5643	941.4118	963.8335	993.1882	1045.8863	1096.4765	1099.6461	1141.3872	1169.3407	1197.3173	1257.1137	1302.1087	1334.7655	1364.5292	1393.5168	1406.1324	1416.2312	1423.7832	1484.3815	1488.794	1497.2015	1498.8258	1509.2584	2353.4344	3010.0135	3023.8607	3039.9059	3061.1781	3084.1031	3107.6968	3119.9418	3141.3642	3145.1989	3799.3938	3807.1335
CCC(O)C(C)(O)C#N	CC[C@@H](O)[C@@](C)(O)C#N	
InChI=1S/C6H11NO2/c1-3-5(8)6(2,9)4-7/h5,8-9H,3H2,1-2H3	InChI=1S/C6H11NO2/c1-3-5(8)6(2,9)4-7/h5,8-9H,3H2,1-2H3/t5-,6+/m1/s1
