14
gdb 66749	2.7918	1.99042	1.53635	2.3097	63.89	-0.2284	-0.0318	0.1966	851.037	0.100663	-436.594792	-436.588142	-436.587198	-436.62577	26.341	
O	-0.1590574519	 1.4478052027	-0.0171475803	-0.466878
C	-0.0321850969	 0.0868864662	 0.0130770596	 0.400382
C	-1.2111936557	-0.9153791814	 0.0960640625	-0.11096
C	-0.3955496411	-1.8514736694	-0.7091689629	-0.030649
C	 0.6843639446	-0.8337711938	-1.0973593801	-0.295353
C	 1.8121421273	-1.0548354061	-0.0720008282	 0.445231
O	 3.0034369259	-1.1284013566	-0.1164863814	-0.311637
C	 0.7657490078	-0.824547278	 1.0322481338	-0.217657
N	-0.3120366281	-1.8666859864	 0.8137926538	-0.141202
H	 0.7078006015	 1.8538139364	-0.1385179359	 0.298498
H	-2.2718276574	-0.8283168864	 0.2919963744	 0.114433
H	-0.6622849536	-2.7778317119	-1.2010345635	 0.115468
H	 0.8372400423	-0.5558910492	-2.1364668656	 0.099634
H	 0.9950615853	-0.621397936	 2.0749735838	 0.100689
114.785	186.8103	329.9352	339.2765	387.6956	562.4551	566.3797	621.1423	700.7202	723.6489	766.4334	782.6596	807.6078	858.2627	925.9332	940.4545	982.818	991.7268	1006.5251	1037.4559	1072.649	1107.1796	1124.3956	1157.8372	1184.9749	1206.8481	1235.8011	1301.3151	1329.0924	1415.3126	1894.5424	3161.1618	3167.756	3194.416	3208.9663	3790.8632
OC12C3C4C1C(=O)C2N34	O[C@@]12[C@H]3[C@H]4[C@@H]1C(=O)[C@@H]2N34	
InChI=1S/C6H5NO2/c8-3-1-2-4-6(1,9)5(3)7(2)4/h1-2,4-5,9H	InChI=1S/C6H5NO2/c8-3-1-2-4-6(1,9)5(3)7(2)4/h1-2,4-5,9H/t1-,2-,4-,5+,6-,7?/m1/s1
