23
gdb 87394	2.04472	1.47837	1.15122	1.688	85.88	-0.2364	0.0803	0.3167	1237.0242	0.203765	-388.273116	-388.263172	-388.262227	-388.307639	37.666	
C	-0.0257469979	 1.5039455136	-0.2989426326	-0.407156
C	 0.0748387317	 0.0043572119	-0.1184841948	-0.057625
C	 1.4125492963	-0.6918833342	-0.2416991334	-0.359741
C	 0.7079744137	-0.6450497818	 1.0809833684	 0.258992
C	 1.2051226608	-0.0808418686	 2.4190195385	 0.0842
C	 0.6544864901	 1.2212015635	 2.9726614247	-0.399102
O	 0.6473529965	-1.2257205289	 3.1139055061	-0.32096
C	 0.1938184171	-1.8428883939	 1.8839600166	 0.098609
C	-1.2935097584	-2.1411153149	 1.9022038726	-0.401575
H	 0.8590339134	 2.0149552224	 0.0920260221	 0.116067
H	-0.1077756035	 1.7564209306	-1.3619515013	 0.117083
H	-0.902059677	 1.918737008	 0.2102722406	 0.118698
H	-0.771644529	-0.5435896136	-0.5285442451	 0.084535
H	 1.4689108748	-1.6435162488	-0.7621674569	 0.108516
H	 2.2910298498	-0.0641543788	-0.3670107141	 0.10791
H	 2.3026551245	-0.0843177275	 2.4990097785	 0.071294
H	-0.4291439903	 1.2813154216	 2.8392764883	 0.118009
H	 0.8715328981	 1.2745227352	 4.0445224401	 0.124918
H	 1.1181543735	 2.0875827089	 2.4906351033	 0.112452
H	 0.7593018045	-2.7668048882	 1.6889875315	 0.069915
H	-1.8746734325	-1.2275835994	 2.0574309284	 0.117922
H	-1.6086557939	-2.601410391	 0.9589184607	 0.11164
H	-1.5248722022	-2.8405664861	 2.7118747877	 0.125398
60.9918	121.3392	169.7317	196.3334	222.0214	226.1078	260.1892	270.2646	364.4382	381.9284	423.5251	480.2834	533.3789	573.6515	745.3881	800.1187	826.0681	876.2797	886.0479	919.212	925.2865	977.5091	1041.5971	1052.9756	1070.9242	1081.9409	1099.2066	1117.7744	1127.4648	1135.3871	1153.756	1183.9832	1228.9386	1270.6195	1299.1073	1346.7747	1367.2423	1397.1366	1399.3645	1407.5918	1411.7128	1436.482	1477.8984	1485.1409	1485.8205	1488.5313	1497.1174	1499.1391	1507.5207	2979.1175	2985.6255	3030.035	3032.2904	3038.0743	3090.1364	3099.9618	3101.5121	3107.9375	3111.1949	3115.9511	3120.347	3124.2681	3194.5937
CC1CC11C(C)OC1C	C[C@H]1C[C@]21[C@@H](C)O[C@H]2C	
InChI=1S/C8H14O/c1-5-4-8(5)6(2)9-7(8)3/h5-7H,4H2,1-3H3	InChI=1S/C8H14O/c1-5-4-8(5)6(2)9-7(8)3/h5-7H,4H2,1-3H3/t5-,6-,7+,8+/m0/s1
