25
gdb 100023	2.37695	1.25876	1.16014	1.0803	88.6	-0.2456	0.0795	0.3251	1282.3284	0.225658	-389.473697	-389.462585	-389.461641	-389.510106	41.971	
C	-0.3529148107	 1.3469690694	-0.0724771503	-0.241673
O	-0.1192445999	-0.0403139756	-0.1306406354	-0.280435
C	 0.7657245558	-0.5426601363	-1.1496139522	 0.298483
C	 0.2927409633	-0.1307010569	-2.5575723149	-0.429652
C	 2.1850060589	-0.0014291018	-0.9087238319	-0.446954
C	 0.6505611367	-2.0736295485	-0.9888083993	 0.382518
C	-0.771562783	-2.610614772	-1.0754212083	-0.465279
C	 1.7289441583	-2.9779316805	-1.5390190482	-0.317632
C	 1.5707001152	-2.8124665906	-0.0460538605	-0.312018
H	 0.5599241423	 1.9284663912	 0.1205356091	 0.102301
H	-0.8257421688	 1.7397261579	-0.9836038306	 0.104001
H	-1.0392307956	 1.5073575305	 0.763669404	 0.12449
H	 0.4438936722	 0.9374297043	-2.7377862952	 0.109428
H	 0.8630374108	-0.6771706346	-3.3142878079	 0.119748
H	-0.7673176567	-0.3526336315	-2.6999128671	 0.123076
H	 2.4899079445	-0.1520471289	 0.1292576044	 0.125882
H	 2.9169681647	-0.4780852653	-1.5653777851	 0.118997
H	 2.2245807169	 1.0709620215	-1.1180484203	 0.113928
H	-1.2038322965	-2.4694280502	-2.0717170205	 0.108454
H	-0.7834592616	-3.6849849763	-0.8679819038	 0.103557
H	-1.4174731771	-2.1117621069	-0.349904349	 0.133137
H	 1.4112941837	-3.9108162134	-1.9934711989	 0.105277
H	 2.6067931458	-2.5446222936	-2.0048030745	 0.106372
H	 2.3408041662	-2.2653175237	 0.4827732947	 0.108368
H	 1.1483827148	-3.6336174082	 0.5232627119	 0.105624
23.9693	59.6563	167.0406	195.4591	203.4543	244.781	270.1905	283.0366	322.3663	346.5154	364.3807	375.3854	388.5855	457.7056	482.5992	507.6964	653.6545	780.6842	791.6696	875.1184	880.316	908.9944	926.8814	951.8692	968.6697	1007.3285	1038.4031	1069.952	1082.2833	1106.5978	1132.4437	1177.86	1178.9399	1187.0396	1192.5813	1194.4865	1231.7469	1312.7175	1347.751	1390.4201	1406.5802	1412.4727	1465.4135	1474.1851	1478.5209	1486.7377	1491.6636	1499.6872	1502.986	1510.5335	1512.0233	1517.6115	1521.8019	2989.6745	3036.0982	3036.7026	3048.2271	3054.2383	3093.7771	3101.7648	3110.7578	3117.8523	3128.1839	3128.9711	3130.6222	3134.9263	3141.2634	3210.1174	3227.762
COC(C)(C)C1(C)CC1	COC(C)(C)C1(C)CC1	
InChI=1S/C8H16O/c1-7(2,9-4)8(3)5-6-8/h5-6H2,1-4H3	InChI=1S/C8H16O/c1-7(2,9-4)8(3)5-6-8/h5-6H2,1-4H3
