19
gdb 53109	2.51622	1.05056	0.8259	2.6384	85.92	-0.2293	-0.0193	0.2099	1456.8216	0.156323	-385.881515	-385.871423	-385.870479	-385.918804	35.316	
C	 0.2889653629	 1.5660698652	-0.3899268645	-0.500342
C	 0.1802059533	 0.1243185328	-0.2233107509	 0.103464
C	 0.0867289055	-1.0701541238	-0.0955678459	 0.065209
C	-0.0560931546	-2.4955898548	 0.0798238798	-0.310414
C	 0.3757058091	-3.2070090357	 1.426060382	-0.008227
C	 0.460122606	-2.2811915649	 2.6323405391	-0.392407
C	-0.9239461998	-4.0697565347	 1.3778930555	-0.35596
C	-1.4679296273	-3.113672266	 0.3080625684	 0.397783
O	-2.5544176568	-2.8625586938	-0.1150040531	-0.285036
H	 1.180833562	 1.8369918766	-0.9658083442	 0.147654
H	-0.5823817441	 1.9676632234	-0.9189596543	 0.153898
H	 0.3510495797	 2.0752373518	 0.5781798583	 0.148243
H	 0.3903361436	-3.0368799824	-0.7662295347	 0.125545
H	 1.2981731153	-3.7815105756	 1.3212161072	 0.080971
H	-0.4647965018	-1.7079218273	 2.759408591	 0.125771
H	 0.6286320515	-2.8572368075	 3.5480206257	 0.115059
H	 1.2775193198	-1.5632221116	 2.5208501199	 0.128015
H	-0.7736717191	-5.0771770573	 0.9762499237	 0.130468
H	-1.5155759452	-4.1435150845	 2.2939859768	 0.130306
13.7228	57.7883	78.1573	104.9316	234.1663	241.234	247.853	346.3356	372.0181	398.3197	412.9342	489.0369	580.2637	664.2113	702.9519	801.2287	874.4254	885.8722	909.2921	1000.8195	1040.3126	1050.7547	1054.2068	1072.0271	1087.0719	1130.5676	1188.0635	1212.7156	1224.1885	1265.5609	1319.5478	1366.2154	1414.3947	1415.5841	1441.062	1477.2522	1478.0776	1492.4472	1495.0206	1899.3655	2365.6075	3010.4984	3026.3008	3033.4893	3055.5691	3080.6039	3086.7955	3088.219	3103.4088	3111.8837	3115.538
CC#CC1C(C)CC1=O	CC#C[C@H]1[C@@H](C)CC1=O	
InChI=1S/C8H10O/c1-3-4-7-6(2)5-8(7)9/h6-7H,5H2,1-2H3	InChI=1S/C8H10O/c1-3-4-7-6(2)5-8(7)9/h6-7H,5H2,1-2H3/t6-,7-/m0/s1
