13
gdb 42165	3.90007	1.1216	0.8932	5.299	66.76	-0.2802	-0.1228	0.1573	1208.5014	0.087634	-452.743894	-452.735339	-452.734395	-452.77827	28.913	
O	 0.0033167466	-0.0631734807	-0.2879418534	-0.250606
C	-0.0702427692	 1.1268564766	-0.1326938707	 0.19463
C	 1.1243576454	 1.9446094982	 0.1433167295	 0.274748
N	 2.1050215548	 2.522436653	 0.3452040983	-0.294435
C	-1.3783352214	 1.9362613444	-0.1503816463	 0.314123
O	-1.3654917155	 3.103389461	 0.1711147518	-0.312348
N	-2.45356456	 1.2401555974	-0.6228380427	-0.076258
C	-3.0576260984	 0.0295983646	-0.1048910256	-0.216132
C	-3.8091270005	 1.3313501188	-0.1351474955	-0.227236
H	-3.2744459361	-0.7386238532	-0.84019132	 0.147842
H	-2.7070512643	-0.3357086392	 0.8556067224	 0.148811
H	-3.9584180265	 1.8661860294	 0.7986362833	 0.151279
H	-4.5707893549	 1.4909876098	-0.891901201	 0.145582
38.0059	101.5268	133.8858	180.8968	195.3024	271.4623	300.6813	430.8806	452.1473	528.1456	624.0372	718.8731	802.2078	835.3224	865.0716	984.9017	1039.6906	1056.8373	1135.5827	1141.2295	1165.8505	1172.8353	1227.2237	1438.7978	1494.844	1524.4947	1782.6119	1797.6941	2343.0752	3122.6466	3127.2839	3209.8578	3222.9504
O=C(C#N)C(=O)N1CC1	O=C(C#N)C(=O)N1CC1	
InChI=1S/C5H4N2O2/c6-3-4(8)5(9)7-1-2-7/h1-2H2	InChI=1S/C5H4N2O2/c6-3-4(8)5(9)7-1-2-7/h1-2H2
