20
gdb 54265	2.36125	1.42451	1.34982	2.7865	74.29	-0.2276	0.0363	0.2639	1099.2805	0.171231	-440.339632	-440.330395	-440.329451	-440.373825	34.792	
C	-0.2440069129	 1.6870141042	 0.0113554728	-0.429475
C	 0.031664917	 0.183795943	-0.0319921184	 0.299472
C	 0.9301352686	-0.2546455054	-1.2024259796	-0.255238
C	 1.6857825458	-1.4519137606	-0.6111906891	-0.235573
C	 1.8761462894	-1.0078408817	 0.8416959512	-0.074706
O	 0.7380150353	-0.1998978752	 1.1652482914	-0.319854
C	-1.3293733476	-0.5519493644	-0.1089505235	 0.357948
N	-1.6628975321	-1.2335047234	 1.0142755665	-0.520866
O	-2.0272129514	-0.4865137741	-1.1051778649	-0.387978
H	 0.698113763	 2.2419238363	 0.0288023309	 0.113723
H	-0.823278413	 1.981413509	-0.8669922112	 0.14309
H	-0.8151152775	 1.9479571744	 0.9072624877	 0.122737
H	 0.3360701918	-0.4905086692	-2.0855828444	 0.13585
H	 1.6257733726	 0.5526712503	-1.455701294	 0.096974
H	 1.0687572481	-2.3552294639	-0.6580406433	 0.116635
H	 2.6323568168	-1.6623090555	-1.1141571283	 0.105235
H	 1.9271213484	-1.8408365285	 1.5505272489	 0.103466
H	 2.7895687326	-0.40693076	 0.9576578768	 0.099702
H	-1.0478436885	-1.1974746388	 1.8093937087	 0.270051
H	-2.5673881866	-1.6699807366	 1.0719025217	 0.258808
53.4705	75.3009	176.5712	236.3879	247.3356	291.9716	312.2025	329.7652	373.6646	485.5756	510.8037	574.4195	643.2093	662.7441	730.6478	780.168	848.9727	882.3318	901.4593	929.5716	936.1423	1012.9293	1051.514	1059.4974	1091.4352	1122.1583	1185.0968	1193.7637	1219.1901	1232.2009	1264.8416	1325.7202	1340.4659	1367.9301	1389.1686	1398.4581	1483.3793	1487.4211	1494.2661	1500.0084	1529.9318	1582.9399	1790.5478	3000.4566	3043.0381	3048.5386	3054.0453	3069.7044	3111.6784	3115.6745	3134.5779	3137.7191	3598.7556	3741.8029
CC1(CCCO1)C(N)=O	C[C@]1(CCCO1)C(=O)N	
InChI=1S/C6H11NO2/c1-6(5(7)8)3-2-4-9-6/h2-4H2,1H3,(H2,7,8)	InChI=1S/C6H11NO2/c1-6(5(7)8)3-2-4-9-6/h2-4H2,1H3,(H2,7,8)/t6-/m0/s1
