13
gdb 22700	2.85482	1.30183	1.02779	4.2677	68.51	-0.2703	-0.0304	0.24	1114.0144	0.087656	-452.615684	-452.607984	-452.60704	-452.648136	28.441	
O	-0.0731055653	 1.3679220922	 0.0446569762	-0.385214
N	 0.0614553622	-0.0279557252	-0.0191616365	-0.298373
C	-1.0526406848	-0.6026242635	-0.0535700207	 0.490971
C	-2.5715002631	-0.4839870632	 0.0017412127	-0.055234
C	-2.6486671124	-1.5612608727	-1.1148886102	-0.25182
C	-1.5895521293	-2.0291692801	-0.0697138348	 0.236374
O	-2.5328751862	-1.5980742219	 1.0020759056	-0.323129
C	-0.9115396022	-3.2926855397	 0.0459799858	 0.189307
N	-0.3594994916	-4.3053214934	 0.106865794	-0.333516
H	 0.845812557	 1.6569513793	 0.0810676937	 0.317793
H	-3.2157077392	 0.3637566525	 0.2090090334	 0.138575
H	-3.5642764806	-2.1531680578	-1.0961056006	 0.139462
H	-2.2986887447	-1.3065542465	-2.1167062286	 0.134805
107.2414	139.4667	177.0987	224.8514	330.9218	406.437	416.7284	513.2101	520.6315	544.6528	675.4846	702.2027	763.9468	768.4773	861.62	933.061	952.8064	976.7729	1023.5381	1058.0066	1107.6161	1188.9226	1200.085	1214.8894	1310.2603	1422.1064	1475.6132	1835.7245	2368.9231	3079.7098	3168.4898	3195.2333	3811.644
ON=C1C2CC1(O2)C#N	ON=C1[C@H]2C[C@@]1(O2)C#N	
InChI=1S/C5H4N2O2/c6-2-5-1-3(9-5)4(5)7-8/h3,8H,1H2	InChI=1S/C5H4N2O2/c6-2-5-1-3(9-5)4(5)7-8/h3,8H,1H2/t3-,5-/m1/s1
