18
gdb 28092	4.26878	0.85598	0.76713	1.349	81.35	-0.2102	-0.0375	0.1726	1489.9073	0.146464	-401.992348	-401.983168	-401.982224	-402.028076	32.416	
C	 0.013535962	 1.5223759688	-0.1093890759	-0.497782
C	 0.004023288	 0.0265649808	-0.0083952662	 0.270294
C	 0.0054114298	-0.8655764881	-1.0571908483	-0.19863
N	-0.0292185321	-2.1476395588	-0.5513271289	 0.023175
C	 0.0802031905	-3.3504800114	-1.3360302149	-0.266013
C	 1.520660879	-3.6700672818	-1.7416914345	 0.145553
O	 1.8033339745	-4.431935316	-2.6258671362	-0.225509
C	-0.034550793	-2.0792152991	 0.8213808627	-0.093697
C	-0.0205800523	-0.7544241575	 1.1858412585	-0.260629
H	 0.8813583136	 1.9573055497	 0.3999222035	 0.125261
H	 0.0467112532	 1.8477937443	-1.1532633573	 0.118666
H	-0.8793238942	 1.9662616028	 0.3463402496	 0.125544
H	 0.0153272629	-0.6962680807	-2.1232007298	 0.118137
H	-0.3007323636	-4.1973886113	-0.7531743953	 0.150082
H	-0.5319033845	-3.2842279657	-2.2409715607	 0.150262
H	 2.290817051	-3.1404098104	-1.1371531593	 0.102651
H	-0.0581452762	-2.9802472871	 1.4144716432	 0.118131
H	-0.0403290787	-0.3778555387	 2.1977937296	 0.094505
27.6938	71.5362	90.2788	98.4077	247.7504	258.612	351.3349	388.211	425.7315	615.7443	636.078	644.5301	677.7822	708.1029	759.8962	781.9867	810.1776	979.6437	1010.8817	1013.7642	1030.2953	1063.1212	1063.9058	1101.0855	1195.9847	1205.7696	1275.369	1326.9477	1371.1467	1403.6689	1408.0808	1423.5452	1426.8583	1445.9681	1483.7491	1498.0377	1536.1782	1610.3349	1840.8814	2890.7044	3025.0767	3045.8275	3073.5228	3096.251	3104.3795	3237.4158	3247.7372	3260.1658
CC1=CN(CC=O)C=C1	Cc1cn(CC=O)cc1	
InChI=1S/C7H9NO/c1-7-2-3-8(6-7)4-5-9/h2-3,5-6H,4H2,1H3	InChI=1S/C7H9NO/c1-7-2-3-8(6-7)4-5-9/h2-3,5-6H,4H2,1H3
