22
gdb 100265	2.10664	1.38798	1.05251	5.9613	77.95	-0.2436	0.0318	0.2754	1260.1295	0.193646	-441.528125	-441.517844	-441.5169	-441.562882	38.536	
C	-0.0002234716	 1.5219670404	 0.2656627948	-0.40472
C	-0.0335108076	 0.020913559	-0.044505504	-0.181795
C	 0.7167117259	-0.4553636928	-1.3142047203	 0.095771
C	 2.1417836311	 0.1357719185	-1.3874979708	-0.428783
C	 0.7994765892	-2.0048727277	-1.2365101311	-0.200097
N	 1.5153889649	-2.6004312374	-2.3833541132	-0.533112
H	 0.8511490074	-1.4345518362	-3.488340315	 0.314433
H	 2.5196625885	-2.5556021681	-2.248702108	 0.248819
H	 1.2713330107	-3.5784980012	-2.4912309968	 0.250458
C	-0.0545725767	-0.0161036806	-2.5870751242	 0.407486
O	-0.8788137487	 0.8636903092	-2.5893558482	-0.340254
O	 0.2728359144	-0.6580423482	-3.7156124556	-0.38755
H	 1.013906196	 1.872622474	 0.4809225949	 0.105937
H	-0.4039796956	 2.098517897	-0.5669435786	 0.155885
H	-0.6069860183	 1.7273851924	 1.1533933302	 0.107325
H	 0.3866768732	-0.5239313029	 0.8120287589	 0.081368
H	-1.0778895218	-0.2983704444	-0.132974732	 0.107415
H	 2.7130994981	-0.1314313857	-0.4905389924	 0.111681
H	 2.6852575257	-0.2255424333	-2.2651823341	 0.116678
H	 2.1117930251	 1.2251215799	-1.4553139563	 0.144785
H	 1.2614012664	-2.2773351188	-0.2775294055	 0.104135
H	-0.2152075662	-2.416835593	-1.2321927924	 0.124129
68.9027	117.8535	159.6222	199.4371	228.0495	252.6128	276.9711	289.5038	332.9939	341.4459	346.2196	398.1967	427.5942	552.4915	594.5651	747.0838	767.0398	777.3739	843.7514	886.7336	911.5308	975.0542	999.1468	1014.5005	1026.0317	1051.1316	1085.8028	1129.3343	1179.5172	1203.7593	1242.4973	1267.6739	1320.8273	1367.2962	1379.455	1396.4919	1404.714	1422.6337	1473.6096	1489.8549	1494.8706	1496.057	1504.9538	1516.8412	1521.4135	1650.4767	1837.3355	2999.4613	3012.944	3032.5637	3044.2893	3062.6946	3076.2428	3100.7679	3103.5468	3129.4456	3153.2471	3202.2639	3516.6516	3595.2536
CCC(C)(C[NH3+])C([O-])=O	CC[C@@](C)(CN)C(=O)O	
InChI=1S/C6H13NO2/c1-3-6(2,4-7)5(8)9/h3-4,7H2,1-2H3,(H,8,9)	InChI=1S/C6H13NO2/c1-3-6(2,4-7)5(8)9/h3-4,7H2,1-2H3,(H,8,9)/t6-/m0/s1
