21
gdb 100585	3.25457	0.83705	0.72597	2.2942	80.66	-0.2478	-0.0421	0.2057	1609.6707	0.178712	-424.262194	-424.251312	-424.250368	-424.299715	37.695	
C	 0.3359265101	 1.6886560271	 0.0598338833	-0.39948
C	 0.0547649482	 0.1832851424	 0.071625269	-0.165684
C	 0.4904259951	-0.5431204546	-1.2092797892	-0.07394
C	 2.0209265761	-0.5347135274	-1.4245842848	-0.413888
C	 0.0035602629	-1.9884112552	-1.2177168361	 0.357013
O	-0.4002861407	-2.5598344715	-0.2317292832	-0.309629
C	 0.0882695937	-2.7430827201	-2.554675955	-0.370196
C	 1.1080942577	-3.8658493535	-2.4480274401	 0.16465
O	 2.0581548709	-3.9836918514	-3.1760690751	-0.235034
H	 1.4068238207	 1.9090540718	 0.0126638498	 0.119477
H	-0.1422367872	 2.1776799676	-0.796820786	 0.11295
H	-0.0533250516	 2.1595748597	 0.9675104201	 0.119011
H	 0.5474107132	-0.2875929805	 0.9295011204	 0.112116
H	-1.0172342683	 0.0130244699	 0.2193152724	 0.106454
H	 0.0310912011	-0.0511934271	-2.0799646934	 0.089473
H	 2.3162767197	-1.0963689811	-2.3154694548	 0.13982
H	 2.3851316298	 0.4883119325	-1.5437017733	 0.131173
H	 2.5304037768	-0.9784137198	-0.5626428441	 0.131849
H	-0.8950922002	-3.2020576571	-2.7125217091	 0.150454
H	 0.3402351926	-2.1035864531	-3.4017249028	 0.126341
H	 0.9116142796	-4.5734861887	-1.6155488379	 0.10707
31.4284	56.2149	79.6977	95.0881	177.4038	204.5295	219.2524	242.8559	291.0182	333.864	350.5877	438.0163	479.9822	605.7911	679.3308	762.347	798.5331	838.3065	879.6357	961.0075	968.1058	989.241	1034.2839	1044.4441	1089.0488	1110.6664	1140.08	1182.2832	1204.0153	1267.8657	1286.0214	1315.5092	1337.3707	1390.2887	1410.3392	1411.3828	1418.5077	1452.2573	1479.5682	1497.6043	1503.4014	1506.9012	1514.0613	1790.2916	1835.6074	2921.52	2996.6036	3033.011	3042.1334	3044.8105	3047.4994	3074.25	3100.9735	3108.8925	3112.3123	3124.597	3135.047
CCC(C)C(=O)CC=O	CC[C@@H](C)C(=O)CC=O	
InChI=1S/C7H12O2/c1-3-6(2)7(9)4-5-8/h5-6H,3-4H2,1-2H3	InChI=1S/C7H12O2/c1-3-6(2)7(9)4-5-8/h5-6H,3-4H2,1-2H3/t6-/m1/s1
