21
gdb 117994	3.49123	0.72555	0.68714	2.6244	81.07	-0.2629	0.0309	0.2938	1693.9584	0.17869	-424.181833	-424.170564	-424.16962	-424.218564	40.236	
C	-0.1006656272	 1.6321047736	 0.0095747821	-0.417834
C	 0.0046893482	 0.1009978121	-0.0294137207	 0.014904
C	 0.6874531641	-0.4238924123	-1.3026417937	-0.171453
C	-0.0373714155	-0.0740435405	-2.5969855464	-0.093891
O	 0.6236310244	-0.7586260939	-3.6518536432	-0.419712
C	 0.7568170181	-0.4437896667	 1.2156227193	-0.067116
O	 2.0984955496	 0.0357689512	 1.2903342889	-0.423475
C	 0.0249880273	-0.1804321146	 2.4584879363	 0.295927
C	-0.5658969682	 0.069725781	 3.4756687558	-0.438381
H	 0.885820858	 2.0945564001	-0.1079030343	 0.115866
H	-0.7370428416	 2.008922239	-0.7950913019	 0.119987
H	-0.531153324	 1.9709239689	 0.9568950638	 0.124877
H	-1.0097847656	-0.3181303055	 0.0228430774	 0.082005
H	 1.7151154476	-0.0486938438	-1.350120708	 0.119725
H	 0.7572584291	-1.5177582067	-1.2540728372	 0.102798
H	-1.0953027157	-0.3800394404	-2.5265814891	 0.081018
H	-0.0236428939	 1.0131921911	-2.7666349795	 0.086739
H	 0.2054286365	-0.5082233437	-4.4806606468	 0.284667
H	 0.8571113543	-1.5296189331	 1.0954192298	 0.115611
H	 2.070703639	 0.9213976137	 1.667385102	 0.288831
H	-1.0850387044	 0.2713369403	 4.3801868554	 0.198908
58.5529	74.5008	109.6157	114.4607	177.7079	212.411	239.8348	266.2293	272.1149	282.0919	316.2831	364.1776	400.7395	528.0568	573.7424	627.1301	664.4535	670.9593	795.3578	824.5287	897.2707	966.0734	997.4762	1003.495	1030.6435	1069.9738	1112.2381	1119.4533	1182.6851	1229.8316	1242.267	1261.6519	1297.6562	1309.8656	1321.7188	1365.9887	1377.1224	1407.5905	1419.0386	1463.4476	1491.9782	1503.9438	1509.3982	1529.5777	2229.0855	2954.7055	2995.3239	3012.7005	3031.8537	3035.8015	3037.6534	3087.3242	3103.963	3115.4311	3501.5791	3817.5544	3829.4748
CC(CCO)C(O)C#C	C[C@@H](CCO)[C@@H](O)C#C	
InChI=1S/C7H12O2/c1-3-7(9)6(2)4-5-8/h1,6-9H,4-5H2,2H3	InChI=1S/C7H12O2/c1-3-7(9)6(2)4-5-8/h1,6-9H,4-5H2,2H3/t6-,7-/m0/s1
