13
gdb 21824	5.89878	1.44675	1.1618	5.5531	62.56	-0.2193	0.0063	0.2256	940.5971	0.098315	-394.819428	-394.812698	-394.811754	-394.850813	24.469	
O	-0.2871605646	 0.0209148251	 0.001825616	-0.306401
C	-0.0949570799	 1.2163058035	 0.0091542327	 0.141233
N	 1.1274445556	 1.8264370125	 0.0022050039	-0.41055
C	 2.3687586532	 1.1777587894	-0.012955743	 0.280398
C	 3.6064074824	 1.7937058704	-0.0182980184	-0.144893
N	 4.5165077923	 0.7865262351	-0.0338278469	-0.172431
N	 3.9607320395	-0.4338724111	-0.0388835532	-0.213248
C	 2.6491262782	-0.2114312749	-0.0259864779	-0.066089
H	-0.9116613082	 1.9640784196	 0.02030089	 0.079954
H	 1.1322379435	 2.8344474071	 0.0086756718	 0.253202
H	 3.8948488196	 2.8325938116	-0.0125301152	 0.129554
H	 5.5184588168	 0.8680667758	-0.041523623	 0.278341
H	 1.9427622418	-1.022880014	-0.0263120469	 0.150931
65.2389	183.9547	210.544	353.0964	392.77	487.2449	535.3542	611.8932	653.1834	694.89	745.03	862.795	897.0367	946.3838	1005.5962	1012.879	1065.9562	1148.3506	1175.583	1257.4688	1313.9918	1394.447	1403.7314	1437.9284	1504.9663	1527.6975	1641.4091	1807.0681	2944.8791	3261.1808	3302.8531	3628.0947	3681.8892
O=CNC1=CNN=C1	O=CNc1c[nH]nc1	
InChI=1S/C4H5N3O/c8-3-5-4-1-6-7-2-4/h1-3H,(H,5,8)(H,6,7)	InChI=1S/C4H5N3O/c8-3-5-4-1-6-7-2-4/h1-3H,(H,5,8)(H,6,7)
