20
gdb 68790	2.67419	1.29864	1.12833	1.8207	86.05	-0.2225	0.0509	0.2735	1192.8658	0.168919	-365.949626	-365.940233	-365.939289	-365.983209	36.111	
C	-0.1602092725	 1.5491281098	 0.073316595	-0.511228
C	 0.1188781647	 0.0795851952	 0.0212471903	 0.304375
C	 0.7091612273	-0.6992303785	-1.1595870691	-0.281737
C	 1.3421102833	-1.7199951045	-0.1321831002	-0.207969
C	 2.7891794143	-1.783948739	-0.1553241831	 0.31084
C	 3.9917584723	-1.823150381	-0.1673464156	-0.460421
C	 0.7290394614	-0.859828171	 1.0082128107	 0.280259
C	 1.2896339033	-0.6748146226	 2.3823516366	-0.512738
N	-0.7330316186	-0.9076493568	 0.7436932332	-0.41289
H	 0.6874972345	 2.1242106853	-0.3142906418	 0.127279
H	-1.0408577575	 1.8059397217	-0.5275957168	 0.129687
H	-0.3500654379	 1.8811020496	 1.1000349865	 0.116777
H	-0.0136486276	-1.1193433449	-1.8629893435	 0.105853
H	 1.4808060138	-0.1449365353	-1.6965593164	 0.113011
H	 0.9077047308	-2.7234164082	-0.1768339224	 0.105909
H	 5.0523308233	-1.8701483861	-0.1829929323	 0.192358
H	 2.3693225818	-0.5033465749	 2.3389706129	 0.139462
H	 0.8256422572	 0.1804821542	 2.8857333413	 0.114624
H	 1.1157625858	-1.5625238974	 3.0023111723	 0.129047
H	-1.1820819598	-0.4040029755	 1.5101777624	 0.217502
91.8073	137.5008	185.3988	193.9736	206.0246	256.6025	320.9597	331.7903	447.0821	468.4334	485.4678	526.9891	600.3341	620.4225	629.0591	695.1009	730.6072	805.7362	860.9249	908.6883	956.381	976.8415	1015.0651	1051.2534	1076.5099	1103.9817	1118.7443	1144.9098	1176.1096	1208.7958	1232.9585	1309.2236	1328.5401	1346.7592	1411.3724	1413.7847	1452.4713	1477.3179	1480.315	1492.451	1493.7488	1509.035	2230.8779	3021.9099	3025.6589	3059.5673	3068.3024	3083.3788	3085.8819	3095.6562	3107.9592	3133.043	3451.2509	3503.8432
CC12CC(C#C)C1(C)N2	C[C@@]12C[C@@H](C#C)[C@]1(C)N2	
InChI=1S/C8H11N/c1-4-6-5-7(2)8(6,3)9-7/h1,6,9H,5H2,2-3H3	InChI=1S/C8H11N/c1-4-6-5-7(2)8(6,3)9-7/h1,6,9H,5H2,2-3H3/t6-,7-,8+/m1/s1
