15
gdb 16640	3.17978	2.34175	1.59924	0.9794	60.09	-0.2415	-0.041	0.2005	792.1629	0.119374	-399.78676	-399.77995	-399.779006	-399.817771	26.088	
O	-0.1030554341	 1.4925448972	-0.0688951186	-0.435994
C	-0.0446470625	 0.0902664343	-0.011310782	 0.044482
C	-1.3815838023	-0.6133131215	-0.0549488178	-0.035484
C	-2.1048859142	-0.6037331185	-1.3488538286	-0.248576
N	-1.319133164	-1.7895861348	-0.9760758293	-0.106391
C	 0.0125166815	-1.8063331996	-1.6016993091	-0.266204
C	 0.6808417372	-0.4838305584	-1.2408164038	 0.332551
O	 1.5599991898	 0.1044187622	-1.8165508619	-0.31475
H	 0.6771680326	 1.766654372	-0.5740960939	 0.291968
H	 0.509832135	-0.2452264399	 0.8848900512	 0.095084
H	-1.9210112505	-0.7736713097	 0.8722588716	 0.103391
H	-3.1787765458	-0.7584732997	-1.365428782	 0.128568
H	-1.7297156373	 0.0489304973	-2.1358825002	 0.126947
H	 0.5962808589	-2.6395454197	-1.1891693449	 0.140521
H	-0.0439717142	-1.9426671211	-2.6850993807	 0.143888
87.8907	197.6315	255.5766	372.7943	397.5536	450.4243	500.3836	581.0015	619.4143	678.5993	750.5994	784.6017	844.162	942.0386	966.4656	1015.7313	1026.0458	1099.6293	1110.539	1132.0773	1165.6798	1173.1504	1205.0697	1237.7584	1273.7199	1297.2583	1349.755	1393.7925	1423.4902	1457.7482	1510.8295	1848.6876	2933.4632	3031.3028	3099.6075	3102.2472	3167.122	3197.2144	3718.1696
OC1C2CN2CC1=O	O[C@H]1[C@H]2CN2CC1=O	
InChI=1S/C5H7NO2/c7-4-2-6-1-3(6)5(4)8/h3,5,8H,1-2H2	InChI=1S/C5H7NO2/c7-4-2-6-1-3(6)5(4)8/h3,5,8H,1-2H2/t3-,5+,6?/m1/s1
