17
gdb 80579	2.83185	1.41869	1.24137	4.2494	68.29	-0.2333	-0.035	0.1983	1066.8601	0.133831	-458.925066	-458.916575	-458.915631	-458.958692	31.442	
C	-0.0553789614	 1.5061676834	-0.3778769566	-0.483971
C	 0.0847505721	 0.076040052	 0.0952210593	 0.391903
O	 1.1525100246	-0.4160183073	 0.3838552894	-0.307422
C	-1.2163418533	-0.7149332097	 0.1983842509	-0.000232
O	-1.047472476	-2.1442873079	 0.2488112145	-0.288881
C	-1.8753112752	-2.2300631238	 1.4195464212	 0.029211
C	-1.2112896087	-1.5514879775	 2.563528749	 0.137383
O	 0.1480607778	-1.5440788139	 2.800017443	-0.43519
C	-1.9621830168	-0.7009454556	 1.542454286	-0.223953
H	 0.8827645403	 2.0412415508	-0.229465893	 0.153327
H	-0.3164169766	 1.5182791341	-1.4427593862	 0.151175
H	-0.8668272282	 2.0137657899	 0.1555676145	 0.145274
H	-1.8790716483	-0.4446914332	-0.6351501223	 0.09833
H	-2.6211012613	-3.0171548737	 1.4413724671	 0.107246
H	-1.7658212814	-1.628787954	 3.4957577528	 0.114243
H	 0.6129694005	-1.5798147374	 1.9483283438	 0.307648
H	-2.7914987983	-0.0494385062	 1.7845561365	 0.10391
50.709	117.0655	159.9065	178.2382	243.5436	290.5643	368.4337	494.4626	540.682	575.9201	608.7457	660.3361	726.9005	793.8439	796.3859	864.4154	927.4061	942.5798	991.2758	1015.146	1026.4445	1050.0649	1063.4753	1080.7249	1103.9133	1193.6526	1205.8363	1241.3948	1254.4503	1317.8558	1366.6421	1385.0235	1391.5549	1460.3153	1473.141	1474.2276	1807.9804	3011.8989	3036.369	3095.9434	3150.2067	3157.7257	3171.6938	3197.7167	3680.2551
CC(=O)C1OC2C(O)C12	CC(=O)[C@H]1O[C@H]2[C@@H](O)[C@@H]12	
InChI=1S/C6H8O3/c1-2(7)5-3-4(8)6(3)9-5/h3-6,8H,1H3	InChI=1S/C6H8O3/c1-2(7)5-3-4(8)6(3)9-5/h3-6,8H,1H3/t3-,4-,5+,6+/m0/s1
