23
gdb 80396	2.82245	1.30419	1.18937	1.3119	84.24	-0.2473	0.0682	0.3155	1187.6255	0.20606	-388.293292	-388.284204	-388.28326	-388.326474	36.513	
C	 0.0620245657	 1.5332484524	 0.1044223168	-0.441004
C	 0.0094019192	 0.0032233297	 0.0524115099	 0.335768
C	-1.4509071757	-0.4708987532	-0.05346477	-0.417696
C	 0.8227705748	-0.5769514483	-1.1438343971	-0.257322
C	 1.3055678186	-1.9553580821	-0.6982438219	-0.102287
C	 2.5559836623	-2.0053375335	 0.1508090194	 0.086541
O	 3.3660749805	-0.8763387111	 0.3085505917	-0.412318
C	 1.2159561541	-2.0026408302	 0.8250924793	-0.078763
C	 0.675029345	-0.6543040436	 1.2986542712	-0.261962
H	 1.0956038202	 1.8871154332	 0.1824373487	 0.113891
H	-0.3801273399	 1.9778723404	-0.7946880788	 0.105193
H	-0.4909350911	 1.9203500767	 0.9678890625	 0.107579
H	-1.9295803008	-0.0770034399	-0.9571594292	 0.105117
H	-1.5096487783	-1.5640714738	-0.0931352865	 0.114002
H	-2.0371907736	-0.1356537303	 0.8093818235	 0.10653
H	 0.2131465777	-0.6411680628	-2.0501745878	 0.089723
H	 1.6704314768	 0.0797027908	-1.3727178231	 0.080282
H	 1.0690713926	-2.8218473558	-1.3062397081	 0.078276
H	 3.1009962879	-2.949625183	 0.1584633433	 0.079177
H	 3.8550302049	-0.7427919615	-0.5103235367	 0.28837
H	 0.9116942522	-2.9045047871	 1.3442524244	 0.081646
H	 1.4882532413	-0.0249961195	 1.6726454644	 0.111732
H	-0.0432772944	-0.7797623873	 2.1143777343	 0.087525
69.1404	186.9425	230.6568	242.1706	272.0338	289.8465	321.2426	343.3007	393.1128	407.6757	510.2532	560.4189	600.7568	693.9415	770.5256	771.5729	785.0228	895.8814	897.8854	917.5822	924.4528	948.4306	983.4853	1016.259	1028.6272	1040.0814	1067.6384	1074.927	1115.0304	1160.7979	1194.7698	1213.9342	1228.1639	1253.5252	1281.8183	1296.9269	1309.2914	1336.2931	1345.9045	1362.6275	1397.7746	1417.8643	1445.8188	1481.6024	1484.2801	1486.6991	1503.4684	1505.5097	1508.6753	3018.5955	3022.38	3030.6572	3050.1135	3076.8652	3083.4634	3088.445	3091.2321	3092.0359	3093.1207	3095.1315	3158.8661	3170.2396	3804.2515
CC1(C)CC2C(O)C2C1	CC1(C)C[C@H]2[C@@H](O)[C@H]2C1	
InChI=1S/C8H14O/c1-8(2)3-5-6(4-8)7(5)9/h5-7,9H,3-4H2,1-2H3	InChI=1S/C8H14O/c1-8(2)3-5-6(4-8)7(5)9/h5-7,9H,3-4H2,1-2H3/t5-,6+,7-
