21
gdb 92486	2.46091	1.60823	1.59155	1.3025	76.3	-0.2354	0.0734	0.3088	999.8684	0.18606	-424.243984	-424.236186	-424.235242	-424.276624	31.286	
O	-0.0375012204	 1.4345562098	-0.0658869649	-0.445617
C	 0.0094347273	 0.0141145416	 0.0078256878	 0.140723
C	 0.729970864	-0.5104447724	 1.2836884214	-0.258595
C	-0.2552131247	-1.3639240619	 2.0970481835	 0.115068
C	-1.4613264511	-0.5264504715	 2.5447556065	-0.212003
C	-2.1635236411	 0.0379313212	 1.277778945	-0.212363
C	-1.4359210161	-0.5019875556	 0.0324640219	-0.041961
C	-1.3834260692	-2.0314202258	 0.1112873339	-0.072255
O	-0.7019712588	-2.4608690706	 1.2958842781	-0.2815
H	 0.8665055027	 1.7632603147	-0.0409246918	 0.280375
H	 0.5077923832	-0.3847196614	-0.8889547402	 0.062812
H	 1.6043842989	-1.1140667343	 1.0229165907	 0.10008
H	 1.0735534393	 0.3398666789	 1.8839521929	 0.093445
H	 0.2444045099	-1.8223429435	 2.9547328123	 0.070034
H	-2.1357669101	-1.1670981433	 3.1201513242	 0.101448
H	-1.1299443846	 0.2769850497	 3.2111964582	 0.095576
H	-3.2144760983	-0.2663230283	 1.2467880838	 0.091831
H	-2.1393378407	 1.1290380269	 1.2637829898	 0.118041
H	-1.9501996607	-0.196321239	-0.883524662	 0.070118
H	-2.4012739641	-2.4458370246	 0.1201820261	 0.094277
H	-0.8624204552	-2.4519217706	-0.7617029374	 0.090467
35.5561	217.1378	273.3572	288.6381	309.4979	379.5973	405.3917	441.8921	533.1744	603.3366	657.8865	794.9214	813.526	826.2386	845.781	874.6577	917.5404	957.0822	962.5496	999.3171	1027.3169	1050.4658	1069.7451	1097.3669	1115.4429	1126.9613	1165.2904	1217.0734	1230.7401	1231.9233	1267.3889	1273.8434	1314.6647	1345.078	1346.2394	1348.205	1359.9671	1378.5633	1391.9722	1405.9942	1433.779	1466.7945	1481.2599	1502.4719	1525.1324	2971.8003	2986.9126	3018.4304	3036.4128	3042.458	3053.0013	3068.2913	3074.0559	3085.271	3089.5997	3115.1334	3818.8168
OC1CC2CCC1CO2	O[C@H]1C[C@H]2CC[C@@H]1CO2	
InChI=1S/C7H12O2/c8-7-3-6-2-1-5(7)4-9-6/h5-8H,1-4H2	InChI=1S/C7H12O2/c8-7-3-6-2-1-5(7)4-9-6/h5-8H,1-4H2/t5-,6-,7+/m1/s1
