19
gdb 41466	3.27536	1.60299	1.2581	1.647	81.69	-0.2269	0.0128	0.2397	1027.8762	0.161036	-385.84971	-385.842533	-385.841589	-385.881212	28.981	
C	 0.0269826377	 1.5320576156	-0.1799176221	-0.142343
O	 1.3423228362	 1.6292392456	 0.412454881	-0.28601
C	 1.4557521585	 0.2076725967	 0.5435614372	 0.034894
C	 0.8957947635	-0.2965762312	 1.9222633886	-0.349197
C	-0.3776668457	-0.659319303	 1.1764483751	 0.263098
C	-1.3053839245	-1.5985995524	 1.0219465768	-0.233625
C	-1.7569704821	-1.6317011881	-0.4364700199	-0.244543
C	-0.5983282527	-0.8976469145	-1.1950695938	-0.350117
C	 0.0285270118	-0.0124052874	-0.114381154	 0.276048
H	-0.7395017326	 2.0568331406	 0.404503022	 0.10195
H	 0.0309284381	 1.9281567033	-1.2040576651	 0.100804
H	 2.4107657477	-0.1892126245	 0.1894846519	 0.080618
H	 1.4099777542	-1.1417277394	 2.3886110582	 0.114405
H	 0.83488314	 0.5259369884	 2.6397949949	 0.122359
H	-1.647399731	-2.3134815757	 1.761612159	 0.093985
H	-1.8933342244	-2.6577930163	-0.7947628201	 0.104071
H	-2.7205892769	-1.1247181458	-0.5854091875	 0.107017
H	 0.1246889936	-1.6375549322	-1.5555443186	 0.110086
H	-0.9471021912	-0.3333028097	-2.0655859435	 0.096499
102.3406	191.4519	243.0811	277.588	374.207	446.7495	485.6832	631.6698	665.6954	701.7731	793.9968	809.5574	828.8776	864.0939	870.628	894.8068	941.9966	959.3626	996.7741	1006.4419	1029.9176	1059.1653	1077.5922	1119.5501	1130.928	1160.0918	1167.2665	1199.6433	1210.2143	1234.3528	1251.1537	1282.6979	1295.1748	1311.697	1334.3918	1364.3294	1457.2381	1478.6029	1496.8511	1520.4309	1728.1864	3002.4838	3009.5114	3040.8549	3048.7477	3054.9584	3063.2062	3077.5492	3088.1202	3108.9982	3196.1143
C1OC2CC3=CCCC123	C1O[C@H]2C[C]3[CH]CC[C@]123	
InChI=1S/C8H10O/c1-2-6-4-7-8(6,3-1)5-9-7/h2,7H,1,3-5H2	InChI=1S/C8H10O/c1-2-6-4-7-8(6,3-1)5-9-7/h2,7H,1,3-5H2/t7-,8+/m0/s1
