18
gdb 91964	2.49559	1.71843	1.42223	2.934	70.95	-0.2447	0.0589	0.3036	981.2439	0.149259	-439.045867	-439.038476	-439.037532	-439.077445	29.921	
O	 0.1077146593	 1.435826385	-0.0891877107	-0.435408
C	 0.0285129055	 0.0261263942	 0.0065162214	 0.011143
C	 0.6114593518	-0.5146933646	 1.3415209025	-0.247102
C	-0.5830689749	-0.5573401778	 2.2805891708	-0.03136
N	-1.3959905343	 0.6798050083	 2.2132895791	-0.363922
C	-1.8306670087	-0.5330939297	 1.4722012073	-0.134845
C	-1.4306521854	-0.4594304178	 0.0276996331	 0.469061
C	-2.3433500746	-0.3038629587	-1.1011995173	-0.254119
O	-1.7812378636	-1.5868310679	-0.7814946164	-0.289435
H	-0.3783203077	 1.7693339426	 0.680639141	 0.288433
H	 0.5463197653	-0.3797209506	-0.8652902668	 0.093238
H	 1.0027886269	-1.5297649568	 1.2093066601	 0.111987
H	 1.4224966075	 0.1275313986	 1.6945486202	 0.112813
H	-0.528598009	-1.0897686614	 3.2240726254	 0.094466
H	-1.9526491061	 0.7795881876	 3.0576571477	 0.240498
H	-2.7402516693	-1.0481694021	 1.7596609725	 0.096761
H	-3.4142783517	-0.2097706508	-0.9263599233	 0.111652
H	-1.9788739612	 0.1517377418	-2.0200757667	 0.126138
116.4942	216.3816	235.5634	304.9618	355.9882	405.1667	448.9459	494.8291	574.0598	610.7325	713.8716	809.6354	812.5401	850.3787	875.1101	884.7751	903.6439	913.0078	965.833	1002.5403	1010.4937	1052.2401	1100.5127	1112.1314	1124.7689	1139.6751	1156.5454	1193.2303	1232.2922	1248.4473	1266.2598	1303.0506	1330.3732	1341.4508	1400.3334	1461.0125	1463.0941	1475.7235	1536.1006	3048.0201	3086.0299	3094.2847	3105.7079	3168.9868	3174.4698	3183.7808	3513.7331	3699.9583
OC1CC2NC2C11CO1	O[C@H]1C[C@H]2N[C@H]2[C@]21CO2	
InChI=1S/C6H9NO2/c8-4-1-3-5(7-3)6(4)2-9-6/h3-5,7-8H,1-2H2	InChI=1S/C6H9NO2/c8-4-1-3-5(7-3)6(4)2-9-6/h3-5,7-8H,1-2H2/t3-,4+,5-,6-/m1/s1
