21
gdb 59362	2.94072	1.04545	0.93584	0.9971	74.23	-0.251	0.0502	0.3011	1330.3312	0.180961	-461.341653	-461.331591	-461.330646	-461.376691	37.668	
C	 0.5932588238	 0.4178065964	-0.7077854452	-0.416511
C	 0.0027758923	-0.1907783522	 0.5627788748	 0.111157
O	-0.1516255212	 0.8081103965	 1.5752862645	-0.433793
C	-1.3175558407	-0.9540602597	 0.3883331398	 0.004827
C	-2.4805074436	-0.4109845433	-0.4962275214	-0.313344
C	-2.8239651545	-1.8836799536	-0.8600338846	 0.148156
O	-3.1487967041	-2.2066846263	-2.1836416081	-0.440693
C	-1.3986562582	-2.3041994487	-0.3711297995	 0.025254
O	-0.4926910551	-2.3538450234	-1.4697767542	-0.430383
H	 1.5347183294	 0.9189927305	-0.4669347106	 0.117897
H	 0.7723822647	-0.3489538527	-1.4630862979	 0.141623
H	-0.0841083891	 1.1669132085	-1.1362133614	 0.101698
H	 0.7319973105	-0.8920744835	 0.9874112148	 0.089369
H	-0.7135809519	 1.5011727773	 1.2115035121	 0.275726
H	-1.6926586322	-1.1340037144	 1.4011645498	 0.088197
H	-3.2583746341	 0.1877276516	-0.0171154554	 0.100657
H	-2.1188412708	 0.1213745109	-1.3806361161	 0.104159
H	-3.6147785102	-2.2929019491	-0.2257402956	 0.090766
H	-2.3676142764	-1.979825069	-2.7048204213	 0.27532
H	-1.3108881855	-3.2138330573	 0.2347485325	 0.066621
H	-0.5725392033	-3.2268421784	-1.8677155073	 0.293298
59.0824	74.3494	168.6952	177.2418	249.3735	263.8109	276.0679	288.6938	321.2469	369.058	409.4991	482.3254	542.7152	566.7341	631.096	699.0149	751.7704	850.6956	894.4094	917.7494	952.2701	987.6296	994.5252	1065.5946	1081.9081	1100.2535	1120.6739	1149.8819	1175.1196	1193.384	1225.1593	1246.6358	1268.7382	1294.7187	1312.9551	1326.2979	1349.9299	1377.6166	1402.8073	1419.6033	1421.6443	1443.8471	1483.5482	1498.0709	1504.2068	3025.6449	3028.3855	3036.862	3057.8704	3060.4992	3080.3305	3102.5015	3117.9865	3147.9945	3765.4574	3800.2735	3818.2577
CC(O)C1CC(O)C1O	C[C@@H](O)[C@H]1C[C@@H](O)[C@H]1O	
InChI=1S/C6H12O3/c1-3(7)4-2-5(8)6(4)9/h3-9H,2H2,1H3	InChI=1S/C6H12O3/c1-3(7)4-2-5(8)6(4)9/h3-9H,2H2,1H3/t3-,4-,5-,6+/m1/s1
