21
gdb 109168	2.74588	1.21544	0.95441	0.6905	80.87	-0.2393	0.0191	0.2584	1304.5037	0.182453	-424.242255	-424.232635	-424.231691	-424.277205	35.777	
C	 0.1836780708	 1.3677454062	 0.2184732643	-0.376206
C	-0.0520546772	-0.1352344404	-0.0145425442	-0.285623
C	-1.5042978528	-0.5056725605	-0.0879582326	 0.296044
C	-2.1803994132	-0.9615663793	-1.1438736137	-0.182193
C	-3.6380384612	-1.2201556375	-0.8579491885	-0.263128
C	-3.7450732666	-1.0812321492	 0.6736697304	 0.079997
O	-3.8256606127	-2.3883435535	 1.2281726966	-0.439157
C	-2.4131240494	-0.3840652148	 1.1218336085	 0.01855
O	-1.8713584813	-0.9609556732	 2.3057919234	-0.439658
H	 1.254513074	 1.5897188248	 0.2561172407	 0.113347
H	-0.2591890189	 1.9639246373	-0.5857246395	 0.116201
H	-0.2564468211	 1.6968803345	 1.1647656779	 0.127011
H	 0.450424352	-0.4488865997	-0.9362621872	 0.098874
H	 0.4153510719	-0.6910427363	 0.808406978	 0.106676
H	-1.7487624726	-1.1168614238	-2.1279812866	 0.087478
H	-4.2831597498	-0.4938872632	-1.3690331651	 0.105964
H	-3.9723964309	-2.2150809735	-1.1715886149	 0.120221
H	-4.622204002	-0.4928709522	 0.9731909356	 0.063081
H	-3.8126718511	-2.2777732978	 2.1862700683	 0.282874
H	-2.5939892949	 0.6648715999	 1.3852296606	 0.090083
H	-1.6959667132	-1.8854647077	 2.0892422881	 0.279565
52.5933	63.615	159.1561	183.9622	199.8386	264.4082	278.3482	310.4535	384.4939	442.975	514.0744	588.5073	614.8882	660.2605	778.0897	792.9687	812.2578	850.4652	891.3453	922.7343	968.6758	979.5417	1019.9377	1065.9811	1076.1436	1093.6054	1106.0089	1181.9802	1209.5231	1242.8596	1264.0261	1270.7541	1287.6398	1322.2674	1330.149	1356.9059	1370.9165	1407.6128	1419.1899	1434.1047	1476.1324	1478.8965	1499.4824	1506.6664	1721.7561	3003.9503	3024.1158	3026.6087	3036.5628	3041.8914	3064.9745	3068.5328	3108.0304	3111.5393	3178.0053	3775.693	3791.4627
CCC1=CCC(O)C1O	CCC1=CC[C@@H](O)[C@H]1O	
InChI=1S/C7H12O2/c1-2-5-3-4-6(8)7(5)9/h3,6-9H,2,4H2,1H3	InChI=1S/C7H12O2/c1-2-5-3-4-6(8)7(5)9/h3,6-9H,2,4H2,1H3/t6-,7+/m1/s1
