20
gdb 73055	3.17777	1.01509	0.89019	3.1605	80.47	-0.2443	-0.0214	0.2229	1366.7081	0.168844	-403.113148	-403.103949	-403.103005	-403.147946	33.834	
C	-0.0283221188	 1.5353977724	-0.0815456194	-0.485076
C	-0.0704668389	 0.042038205	 0.0552985272	 0.332146
C	-1.3567920291	-0.8152984803	 0.1120429495	-0.285573
C	-0.6501664381	-1.7726490679	 1.1217315152	-0.242884
C	 0.6170049723	-0.9077682577	 1.0168233923	-0.097241
N	 1.0771306684	-0.7430793132	-0.3527528823	-0.12906
C	 1.024714718	-1.802796337	-1.3434018386	-0.238404
C	 2.3811128014	-2.4843706224	-1.4449394777	 0.15874
O	 2.5406993604	-3.619642499	-1.8093630097	-0.240243
H	 0.9838437155	 1.9062634	 0.0988516041	 0.13157
H	-0.3265490956	 1.8461362499	-1.0903615118	 0.120951
H	-0.7116951155	 2.0145918685	 0.6276429141	 0.118255
H	-2.192957678	-0.2788933352	 0.5660628371	 0.10728
H	-1.6950858316	-1.2412292461	-0.8374704386	 0.099774
H	-1.0960334711	-1.7215564013	 2.1171691213	 0.10987
H	-0.55414458	-2.8265097985	 0.8430959803	 0.108303
H	 1.3209264341	-0.7051571473	 1.8176820647	 0.09251
H	 0.2610654284	-2.5765427542	-1.1905871697	 0.120747
H	 0.8285981161	-1.3452961995	-2.3244610091	 0.131306
H	 3.2326365721	-1.8263587961	-1.1624644389	 0.087026
42.8188	71.8473	149.7603	193.0219	214.7847	272.0518	281.6391	335.8928	449.1081	476.0794	575.7908	636.0237	699.5498	777.9975	788.5015	809.5215	919.2993	921.7887	951.3212	955.9031	1002.8938	1026.3441	1058.9421	1101.7877	1120.0507	1146.3678	1155.7728	1212.1325	1220.7206	1228.1321	1255.5041	1274.1264	1283.6603	1330.5947	1402.1936	1404.1578	1440.7368	1452.9133	1480.5242	1484.1308	1493.2262	1503.3482	1838.4593	2894.6573	3003.6174	3026.8027	3047.3117	3052.1504	3059.302	3085.8303	3101.9483	3118.872	3121.0826	3162.8286
CC12CCC1N2CC=O	C[C@]12CC[C@H]1N2CC=O	
InChI=1S/C7H11NO/c1-7-3-2-6(7)8(7)4-5-9/h5-6H,2-4H2,1H3	InChI=1S/C7H11NO/c1-7-3-2-6(7)8(7)4-5-9/h5-6H,2-4H2,1H3/t6-,7+,8?/m1/s1
