19
gdb 65352	3.14805	0.96322	0.9234	3.3618	82.13	-0.2612	0.0189	0.2801	1366.2996	0.158839	-382.049684	-382.040455	-382.039511	-382.084166	33.935	
C	-0.0925509147	 1.5743784021	-0.1089405111	-0.45214
C	-0.0176539504	 0.0674527864	 0.0400479583	 0.153153
N	 1.3087036386	-0.5598593462	-0.1639700013	-0.363485
C	 0.7053802181	-0.6225337331	 1.1697882865	-0.052309
C	 1.3753993154	 0.109973627	 2.2835589113	 0.019973
C	 0.7355093238	 0.1262408164	 3.6516861129	-0.269038
C	 1.9878471917	-0.6764820128	 3.4198816849	-0.27162
C	-1.1636249742	-0.6466093894	-0.4829669112	 0.23566
N	-2.0741459642	-1.2174385972	-0.9126015182	-0.34227
H	 0.8259898234	 2.0338086775	 0.2576155878	 0.138381
H	-0.2133735806	 1.8467395981	-1.1613017211	 0.14043
H	-0.9411292736	 1.9778692436	 0.4509423932	 0.137585
H	 1.2211222306	-1.4464867223	-0.654018455	 0.249598
H	 0.2665490658	-1.5740777375	 1.4693294481	 0.101826
H	 1.9098153348	 1.0026846837	 1.9795634643	 0.096947
H	 0.8027186984	 1.038105735	 4.2338885563	 0.119834
H	-0.1968555501	-0.4137208734	 3.7800989405	 0.120005
H	 1.9006368624	-1.7577090202	 3.3923257158	 0.116842
H	 2.9205282348	-0.3171297475	 3.8391609681	 0.120627
57.7427	103.6336	126.2781	160.2583	205.6787	267.8576	306.1871	355.6791	423.5448	465.1603	580.3206	595.1775	685.2958	763.0434	805.296	829.343	872.1347	896.0629	926.3525	969.1965	1012.1376	1058.2873	1065.1371	1080.3898	1085.3177	1107.7958	1126.8549	1145.7188	1197.9141	1225.0568	1247.0032	1282.6389	1335.1317	1341.9853	1417.0893	1469.1462	1471.1702	1484.7745	1495.3754	1507.8285	2343.2795	3051.8768	3110.7208	3118.6719	3133.5795	3137.7448	3148.5778	3175.342	3212.8642	3227.9651	3510.8269
CC1(NC1C1CC1)C#N	C[C@]1(N[C@H]1C1CC1)C#N	
InChI=1S/C7H10N2/c1-7(4-8)6(9-7)5-2-3-5/h5-6,9H,2-3H2,1H3	InChI=1S/C7H10N2/c1-7(4-8)6(9-7)5-2-3-5/h5-6,9H,2-3H2,1H3/t6-,7-/m0/s1
