13
gdb 5186	5.94199	1.49035	1.1915	1.7626	62.35	-0.2107	0.0033	0.214	928.6223	0.098141	-394.812716	-394.806114	-394.805169	-394.843746	24.255	
N	 0.2071025085	 1.2726908558	 0.0043644347	-0.459549
C	 0.0435898353	 0.0066759682	 0.0014909299	 0.075303
N	-1.1962063392	-0.5723184149	 0.011088265	-0.379209
C	-2.4039542524	 0.1049528717	 0.0250876835	 0.333152
C	-2.6966363824	 1.4328503275	 0.0324847701	-0.09604
O	-4.070657229	 1.5329144829	 0.0460637831	-0.142521
C	-4.5093329839	 0.2643603672	 0.0459296303	 0.086902
N	-3.5780352606	-0.6347485948	 0.0338353552	-0.332376
H	 1.1985816623	 1.4987986583	-0.0042118044	 0.224883
H	 0.842493599	-0.7428602192	-0.0086891094	 0.096688
H	-1.2710389889	-1.5760077265	 0.0085317488	 0.265068
H	-2.1171085614	 2.3336702177	 0.0300373185	 0.175978
H	-5.5769604272	 0.1119301761	 0.0556908346	 0.151721
94.7076	187.342	207.9341	367.7902	370.287	477.5705	608.7435	638.0845	698.4261	751.4743	804.5703	826.0248	841.4493	937.2993	1006.4123	1036.9994	1071.6731	1127.2212	1147.9206	1220.4822	1258.2159	1276.0377	1350.3047	1409.8923	1526.9477	1585.3023	1654.2754	1718.8784	3061.1649	3278.3102	3355.8908	3520.1831	3661.1881
N=CNC1=COC=N1	N=CNc1cocn1	
InChI=1S/C4H5N3O/c5-2-6-4-1-8-3-7-4/h1-3H,(H2,5,6)	InChI=1S/C4H5N3O/c5-2-6-4-1-8-3-7-4/h1-3H,(H2,5,6)
