21
gdb 96635	3.00456	1.10431	0.84847	1.8822	84.85	-0.2352	-0.0063	0.2289	1416.4336	0.179549	-420.442689	-420.431657	-420.430713	-420.479376	38.545	
C	 1.2743239104	 1.7107935006	 0.3050762126	-0.324632
N	 1.5179836619	 0.2910204684	 0.4820681058	-0.271182
C	 0.6990313248	-0.4160710395	 1.1519957741	 0.367217
C	-0.5789108993	 0.0796712406	 1.7870330813	-0.459235
N	 0.9900096062	-1.8084442694	 1.2234651737	-0.152027
C	 1.9724801757	-2.3078873415	 0.2579195938	-0.32584
C	 0.5999039947	-2.5821513817	 2.3129530783	 0.396697
C	 0.9738690533	-4.0574460005	 2.2819281968	-0.499517
O	-0.0138563736	-2.1249984739	 3.2585829635	-0.357599
H	 0.4232065604	 1.9022224366	-0.364331893	 0.120709
H	 1.0770584377	 2.2381394482	 1.2480288813	 0.11875
H	 2.1569877504	 2.1638386579	-0.1542230132	 0.122448
H	-0.9554163084	 0.9293289022	 1.2123132374	 0.117661
H	-1.340404286	-0.6968051525	 1.8281232347	 0.143796
H	-0.4047760172	 0.40316848	 2.8162588771	 0.158664
H	 3.0001992883	-2.1288152621	 0.5920136735	 0.134776
H	 1.8266296546	-3.3741046254	 0.0943632263	 0.123846
H	 1.838531036	-1.7750871677	-0.6817312403	 0.150739
H	 2.0581381078	-4.2034093801	 2.271224434	 0.143819
H	 0.5627302396	-4.5072117962	 3.1849508836	 0.148213
H	 0.5614504528	-4.5662533437	 1.4051372687	 0.142697
53.5716	71.6224	98.7972	103.7686	165.2036	184.555	214.8309	235.2679	303.6388	341.5563	385.8163	403.2577	444.0776	549.4905	583.5596	608.901	626.0993	716.3109	874.2042	976.8338	1015.5961	1045.9718	1051.4181	1078.7124	1110.0484	1139.8292	1147.7617	1165.6233	1187.6404	1309.9946	1360.17	1395.4686	1405.3802	1439.5707	1452.6834	1458.7371	1471.3073	1477.862	1485.3989	1492.3628	1494.2473	1512.4348	1516.4959	1722.5601	1770.2978	2991.7548	3044.5848	3046.283	3048.1635	3062.2949	3096.1361	3111.9228	3126.4814	3134.0717	3161.8228	3164.6199	3175.6937
CN=C(C)N(C)C(C)=O	CN=C(C)N(C)C(=O)C	
InChI=1S/C6H12N2O/c1-5(7-3)8(4)6(2)9/h1-4H3	InChI=1S/C6H12N2O/c1-5(7-3)8(4)6(2)9/h1-4H3
