20
gdb 65512	3.46722	1.22725	1.18933	1.7076	78.67	-0.2326	0.084	0.3166	1137.8458	0.169849	-403.070919	-403.062512	-403.061568	-403.10406	32.82	
C	 0.1882415996	 1.6462957137	-0.041724221	-0.486939
C	 0.0756926182	 0.1242201812	-0.064538419	 0.311829
C	 1.1714572698	-0.6295684664	-0.9216171585	-0.295707
C	 1.6469892798	-1.3095651912	 0.3651539818	 0.043727
O	 2.0335488005	-0.2702856624	 1.2799999858	-0.255704
C	 0.6495218773	-0.6069886888	 1.1787842897	 0.00597
N	-1.2231369552	-0.4790917418	-0.3598506512	-0.111161
C	-2.4598789415	 0.1239809695	 0.1209825015	-0.235031
C	-2.1281127688	 0.117817918	-1.3332180865	-0.228127
H	 1.2022207067	 1.9107207713	 0.2664062425	 0.143005
H	 0.012403023	 2.0829199705	-1.030083502	 0.116698
H	-0.5068479219	 2.1056315579	 0.668462779	 0.115285
H	 0.7017983925	-1.3141503911	-1.6293775403	 0.115452
H	 1.9188359434	-0.0097428764	-1.4229480872	 0.101665
H	 2.1099816582	-2.2799176213	 0.5007320843	 0.101576
H	 0.1261750835	-0.8949524285	 2.0838648124	 0.098298
H	-3.1905849052	-0.5730152625	 0.5227039685	 0.116404
H	-2.4258817321	 1.0847397757	 0.6285521987	 0.113498
H	-1.8705498578	 1.0729846603	-1.784152204	 0.113503
H	-2.61264808	-0.5834696377	-2.0074647046	 0.115759
47.7677	157.9225	202.9253	227.5378	283.8705	320.9081	363.0749	413.7582	483.3015	509.5893	631.5023	769.9416	804.8821	825.7529	839.3123	860.1948	888.8391	915.566	926.1555	974.0091	985.5886	997.433	1037.2982	1046.9741	1106.6584	1118.0776	1120.5556	1151.5352	1163.5681	1174.5674	1182.9098	1221.9711	1236.1725	1258.0725	1287.9325	1336.0831	1383.7943	1403.1842	1462.0071	1484.8963	1486.982	1511.3625	1522.8826	3037.5412	3069.4517	3098.7002	3106.5638	3107.4388	3126.7349	3138.4805	3176.1521	3179.3633	3193.5966	3193.66
CC1(CC2OC12)N1CC1	C[C@]1(C[C@H]2O[C@@H]12)N1CC1	
InChI=1S/C7H11NO/c1-7(8-2-3-8)4-5-6(7)9-5/h5-6H,2-4H2,1H3	InChI=1S/C7H11NO/c1-7(8-2-3-8)4-5-6(7)9-5/h5-6H,2-4H2,1H3/t5-,6-,7-/m1/s1
