17
gdb 47004	2.76338	1.77515	1.43942	3.7261	67.24	-0.2642	0.0112	0.2754	935.4593	0.139012	-459.007858	-459.000902	-458.999958	-459.03944	27.003	
O	-0.0060648824	 0.0064868118	 0.3768800989	-0.331758
C	-0.0216267807	 1.1484532545	 0.0098107435	 0.424071
O	-1.1975027433	 1.7062959016	-0.3820516113	-0.240296
C	-1.3022753404	 3.0606478317	-0.8655704628	-0.06913
C	 0.0073359396	 3.8427886004	-0.8137135163	 0.08204
C	 1.1488665899	 2.9401646266	-1.2822535393	-0.258186
C	 1.2075229433	 2.0469504765	-0.0323463113	-0.170867
C	 1.1251991285	 3.111394077	 1.0817822238	-0.087027
O	 0.3345237104	 4.173688637	 0.5364003498	-0.271133
H	-1.6720157074	 3.001217723	-1.8961189471	 0.116349
H	-2.0556094407	 3.5596380018	-0.249350566	 0.131653
H	-0.1049393329	 4.7758693947	-1.3728078974	 0.093474
H	 0.9247167504	 2.3945320084	-2.2020494484	 0.120831
H	 2.0765962367	 3.502350727	-1.4171051736	 0.116953
H	 2.0881945105	 1.4123056275	 0.0552567474	 0.107577
H	 0.6600122116	 2.7358840303	 1.9993051017	 0.126097
H	 2.1259152969	 3.4882428803	 1.3291858384	 0.109352
101.81	143.2086	231.0881	360.0605	385.0605	433.8403	508.8538	604.6189	702.7279	732.2035	805.1206	837.7662	875.8033	889.3222	950.5156	954.1479	981.7686	1007.3468	1039.3953	1050.4413	1096.5348	1117.2449	1144.4434	1191.941	1224.8946	1249.3586	1264.5123	1310.1557	1313.3502	1342.2773	1356.1606	1391.6471	1419.3453	1493.6447	1502.3745	1530.449	1850.8856	3019.618	3037.0184	3064.8528	3071.9252	3083.4257	3096.0717	3119.0142	3133.1083
O=C1OCC2CC1CO2	O=C1OC[C@@H]2C[C@H]1CO2	
InChI=1S/C6H8O3/c7-6-4-1-5(3-9-6)8-2-4/h4-5H,1-3H2	InChI=1S/C6H8O3/c7-6-4-1-5(3-9-6)8-2-4/h4-5H,1-3H2/t4-,5-/m0/s1
