13
gdb 25536	4.90189	0.97697	0.82552	1.9584	65.18	-0.2258	-0.0119	0.2139	1289.8589	0.088569	-489.880469	-489.872695	-489.871751	-489.914064	27.554	
N	-0.006550753	 1.2312106257	 0.2207943782	-0.41168
C	-0.0092272201	 0.0029004638	-0.0284785899	 0.108151
O	-1.078567935	-0.7415813006	 0.4245657336	-0.217199
C	-1.0890872344	-2.0550510255	 0.1806415683	 0.404017
C	-2.0831063581	-2.8892195524	-0.1019802253	-0.184826
O	-1.555310364	-4.1781845332	-0.1552831263	-0.219642
C	-0.2104722149	-4.0770383503	 0.075959867	 0.517553
N	 0.6612066076	-4.9771958713	 0.0935287746	-0.569311
O	 0.0925728819	-2.7552212099	 0.3038511838	-0.233501
H	 0.8295840337	 1.6673608058	-0.1627464088	 0.248264
H	 0.7336212538	-0.5926592741	-0.5623350484	 0.141612
H	-3.1358271747	-2.76160616	-0.2672817526	 0.173638
H	 0.2467747072	-5.885521048	-0.0973767743	 0.242925
47.0328	86.4617	128.9809	201.4632	349.5082	398.212	458.0378	543.9039	617.6885	702.1115	719.7691	731.1262	777.7658	802.6216	828.4568	922.8456	973.7242	1000.8939	1040.5738	1044.2109	1106.9907	1193.6231	1244.818	1324.2622	1346.9246	1415.0221	1734.042	1784.7741	1833.4398	3115.9615	3323.9178	3526.4905	3551.5353
N=COC1=COC(=N)O1	[NH][CH]OC1=CO[C@@H]([NH])O1	
InChI=1S/C4H4N2O3/c5-2-8-3-1-7-4(6)9-3/h1-2,5-6H	InChI=1S/C4H5N2O3/c5-2-8-3-1-7-4(6)9-3/h1-2,4-6H/t4-/m1/s1
