16
gdb 8811	3.99997	1.27328	0.97818	3.9781	65.58	-0.2487	-0.0632	0.1855	1154.8002	0.128286	-417.077133	-417.067883	-417.066939	-417.111158	32.39	
C	-0.0311717847	 1.4180102839	 0.0591423375	-0.343969
N	-0.0306969468	-0.0322183032	 0.0529902212	-0.275769
C	 0.5711020833	-0.6171450247	-0.9131861357	 0.282077
N	 1.2570201922	-0.06555176	-1.959278278	-0.552763
C	 0.5760971692	-2.1235577608	-0.9241550368	 0.329291
O	 1.0750279512	-2.73642584	-1.8499552011	-0.349331
C	-0.0534992294	-2.869129083	 0.2345684466	-0.129009
O	 0.027718038	-4.253438965	 0.0442212587	-0.426581
H	 0.9898075994	 1.8308217964	 0.0572384506	 0.12189
H	-0.5537103648	 1.8353607887	-0.8173174485	 0.114452
H	-0.5434138755	 1.7820312184	 0.9522166331	 0.132537
H	 1.1089966239	 0.8975481422	-2.2055251572	 0.26263
H	 1.5242179779	-0.7021642996	-2.6947854126	 0.273251
H	 0.4533140302	-2.5538359291	 1.1588520756	 0.133171
H	-1.0948360288	-2.533154175	 0.3375788249	 0.136291
H	 0.4953717248	-4.3762408992	-0.7955636784	 0.291834
79.8736	93.1866	141.9511	165.678	186.6829	284.9399	318.4146	356.2385	365.7418	391.0986	495.4502	501.2214	555.1729	694.6995	715.982	824.9714	988.0591	1006.0872	1076.1014	1098.2571	1110.9359	1153.3612	1201.5791	1224.9923	1300.6222	1377.5347	1431.1811	1449.9727	1474.9606	1489.9323	1501.4947	1605.232	1728.8183	1772.1765	2965.0957	3007.1576	3012.3966	3029.3202	3111.0241	3590.6482	3710.9174	3721.6889
CN=C(N)C(=O)CO	CN=C(N)C(=O)CO	
InChI=1S/C4H8N2O2/c1-6-4(5)3(8)2-7/h7H,2H2,1H3,(H2,5,6)	InChI=1S/C4H8N2O2/c1-6-4(5)3(8)2-7/h7H,2H2,1H3,(H2,5,6)
