18
gdb 99723	1.90892	1.74067	0.97182	3.0796	70.	-0.2578	0.0194	0.2772	1200.3809	0.14786	-472.494445	-472.484717	-472.483773	-472.529384	35.629	
C	-0.3292645445	 0.779229257	-0.703298012	-0.386799
C	 0.1672818998	-0.5718697795	-0.182152735	-0.167267
N	 0.7156247244	-0.5101521054	 1.1832964445	-0.208871
C	-0.2555015821	-0.7008572257	 2.2216828354	 0.491024
N	 0.2135087178	-0.7101154784	 3.4853476211	-0.561173
O	-1.428561975	-0.8357017775	 1.9228797074	-0.414025
C	 2.0660588612	-0.2634070533	 1.4130160549	 0.496077
N	 2.8218455856	 0.0112939088	 0.2937680969	-0.561529
O	 2.602156894	-0.3171568436	 2.5139867483	-0.420996
H	 0.4609425949	 1.5384040172	-0.7235554558	 0.105954
H	-0.7181240105	 0.6704970162	-1.7206078213	 0.122812
H	-1.1354663638	 1.145845771	-0.0639586653	 0.153604
H	-0.670163888	-1.2669370294	-0.1427153228	 0.15364
H	 0.9290794671	-1.0056908133	-0.8339072051	 0.114425
H	 1.2082793693	-0.6270693554	 3.6536544589	 0.290735
H	-0.4667797639	-0.8463361432	 4.2116207181	 0.260658
H	 2.4055837485	 0.440609313	-0.5147635642	 0.264513
H	 3.7504151251	 0.3271833518	 0.5262926161	 0.267217
58.3658	76.4789	113.8837	158.7846	224.4931	302.1909	324.213	386.6709	415.2374	430.3044	450.3571	475.0382	537.4637	575.7326	644.7819	683.3758	727.5356	775.6025	787.3101	794.6231	959.2563	1014.0577	1093.2854	1109.6329	1128.2921	1208.0594	1217.9889	1328.4303	1366.3056	1387.2304	1408.3359	1441.8687	1485.7489	1497.2298	1509.234	1574.3352	1622.9621	1759.0611	1805.0462	3033.7026	3080.6306	3097.7539	3131.5834	3149.5276	3507.6439	3600.5588	3719.015	3723.8655
CCN(C(N)=O)C(N)=O	CCN(C(=O)N)C(=O)N	
InChI=1S/C4H9N3O2/c1-2-7(3(5)8)4(6)9/h2H2,1H3,(H2,5,8)(H2,6,9)	InChI=1S/C4H9N3O2/c1-2-7(3(5)8)4(6)9/h2H2,1H3,(H2,5,8)(H2,6,9)
