19
gdb 81254	2.94787	1.51023	1.39898	2.1738	74.68	-0.2473	0.0627	0.31	1014.6538	0.16088	-422.943117	-422.935812	-422.934868	-422.974874	29.901	
O	 0.0091894842	 1.4353643173	-0.1338200592	-0.45348
C	 0.1106904779	 0.0544671244	-0.0491130778	 0.150346
C	 0.0194177063	-0.6063081405	 1.3402835016	-0.061948
O	-1.4243266818	-0.1494237309	 1.3860529648	-0.406135
C	-1.2183403656	-0.7785861025	 0.0408684727	 0.395307
C	-2.0886034671	-1.2891693326	-1.0694641401	-0.375746
C	-1.177715571	-2.4765499668	-1.5843885688	-0.194146
C	-0.0266121341	-2.751070702	-0.5228782114	-0.289565
C	-0.4841934673	-1.9315413445	 0.6879405112	-0.001287
H	-0.6881152336	 1.6679274254	 0.4977056935	 0.28651
H	 0.8914621757	-0.2760676381	-0.7343640587	 0.088678
H	 0.5894490521	-0.4307344921	 2.2538385445	 0.0939
H	-3.0398162171	-1.6646663878	-0.6800678127	 0.119558
H	-2.3018084467	-0.55792076	-1.853007574	 0.114507
H	-1.7859406903	-3.3718529881	-1.7331649187	 0.113025
H	-0.7433614718	-2.2284203178	-2.555910478	 0.113322
H	 0.0578313025	-3.8159617372	-0.2957002866	 0.105062
H	 0.9401723893	-2.4368497153	-0.9223801106	 0.114082
H	-1.1196117918	-2.4888427309	 1.3796951385	 0.088009
73.913	212.2876	237.0724	330.6581	362.5178	460.0571	533.2375	601.0138	629.5568	655.1049	698.1051	727.4107	759.9409	826.1319	837.4089	870.4939	901.7546	930.254	933.1268	966.825	1021.1128	1041.5085	1078.0489	1101.4073	1147.3386	1163.9198	1177.2255	1197.7276	1215.8667	1242.3272	1248.6286	1263.5496	1290.2729	1304.0419	1310.6416	1350.6082	1384.0506	1466.5885	1484.3349	1498.1122	1511.9982	3056.1324	3066.1602	3075.3827	3086.3695	3096.7687	3106.5035	3111.3439	3119.5652	3127.079	3726.8349
OC1C2OC11CCCC21	O[C@H]1[C@H]2O[C@]31CCC[C@@H]23	
InChI=1S/C7H10O2/c8-6-5-4-2-1-3-7(4,6)9-5/h4-6,8H,1-3H2	InChI=1S/C7H10O2/c8-6-5-4-2-1-3-7(4,6)9-5/h4-6,8H,1-3H2/t4-,5-,6-,7+/m0/s1
