20
gdb 110613	3.11036	1.28848	1.1495	1.7349	79.08	-0.2302	0.0682	0.2984	1165.3359	0.170181	-403.077452	-403.068788	-403.067843	-403.110702	33.548	
C	-0.1155477801	 1.467814781	-0.3189343208	-0.374943
C	 0.0486526077	 0.0727742416	 0.2789100635	-0.117965
N	-1.2092324957	-0.6672434568	 0.1748622109	-0.089506
C	-1.5886684127	-1.3787527228	-1.0287121614	-0.049458
C	-0.4411516556	-2.0817286942	-1.7307671899	-0.143773
C	-0.6383626289	-3.5826637282	-1.6462005987	-0.343414
C	-0.1328403252	-2.8329013488	-0.4388670662	 0.385907
O	 1.1304480596	-3.0473585118	 0.0898375792	-0.465819
C	-1.2739516635	-2.1125888023	 0.2643708874	-0.147772
H	 0.8031025015	 2.0501113834	-0.1983768096	 0.11037
H	-0.3396161207	 1.4109304953	-1.3896555544	 0.114209
H	-0.9355657307	 2.0040261726	 0.1673661315	 0.123049
H	 0.8908121363	-0.4469491072	-0.1965902786	 0.109321
H	 0.2840580909	 0.1462180246	 1.3468441703	 0.100075
H	-2.5682659911	-1.1918051432	-1.4553747336	 0.095007
H	 0.2686880202	-1.6414333559	-2.4201329363	 0.100096
H	-1.638370338	-4.0083343039	-1.6691637943	 0.107442
H	 0.1182936014	-4.1732254314	-2.1561339707	 0.112164
H	 1.1445928577	-3.917612111	 0.5021264298	 0.287138
H	-1.9642306729	-2.553525511	 0.976727732	 0.08787
69.2402	128.4374	183.7463	219.3767	254.4106	287.5973	362.3372	393.4983	444.1243	530.9278	629.647	667.7811	723.9764	808.5004	814.8991	845.9547	873.6227	903.7848	936.9111	953.7635	985.7897	999.7722	1027.032	1050.4182	1062.315	1087.8793	1090.1756	1118.4004	1174.4148	1202.5776	1245.6477	1269.5499	1272.4842	1302.6299	1306.248	1342.7091	1385.594	1390.7947	1410.0283	1489.5025	1490.779	1495.1245	1511.482	3020.0864	3036.4998	3059.4188	3104.6845	3106.1126	3117.1263	3156.5071	3171.5607	3187.4121	3196.2765	3801.3589
CCN1C2C3CC3(O)C12	CCN1[C@H]2[C@@H]3C[C@]3(O)[C@@H]12	
InChI=1S/C7H11NO/c1-2-8-5-4-3-7(4,9)6(5)8/h4-6,9H,2-3H2,1H3	InChI=1S/C7H11NO/c1-2-8-5-4-3-7(4,9)6(5)8/h4-6,9H,2-3H2,1H3/t4-,5-,6-,7+,8?/m0/s1
