16
gdb 126845	3.1125	1.30448	0.99436	3.0725	67.87	-0.2072	0.0121	0.2194	1173.0957	0.123829	-471.200371	-471.191352	-471.190408	-471.234478	32.2	
C	 0.0199111851	 1.5125564005	-0.0468902288	-0.385481
C	-0.0472632484	-0.0082981653	 0.0980050423	-0.142993
N	-1.4030256248	-0.522834978	-0.0107179695	 0.012511
N	-2.1078887565	-0.8724354425	 1.0900248797	-0.181939
N	-3.2955771095	-1.2590424857	 0.6833739021	-0.276803
C	-3.3585798536	-1.1561437182	-0.6569997659	 0.252374
O	-4.4409951372	-1.4773401558	-1.4080235564	-0.452573
C	-2.1533454686	-0.6831832236	-1.1249883681	 0.305335
O	-1.6623690798	-0.3950864459	-2.3513285464	-0.443417
H	 1.0548168587	 1.8502167349	 0.0613375469	 0.124614
H	-0.341892517	 1.8274162281	-1.0293647113	 0.13941
H	-0.5861643587	 1.9985607997	 0.7223085258	 0.141461
H	 0.5630354428	-0.4986120678	-0.6665683713	 0.132388
H	 0.308097365	-0.3292617724	 1.0792090699	 0.145608
H	-5.1201509813	-1.793078646	-0.7997316305	 0.308475
H	-2.340000136	-0.6129821119	-3.0014254784	 0.32103
50.7886	101.7434	202.1311	229.7149	242.0245	254.7593	281.4109	298.2999	368.2402	425.4415	536.3389	597.3176	683.3586	712.4103	743.607	783.2591	822.6961	974.2413	1061.5779	1075.4996	1109.5619	1162.1762	1221.0241	1272.1305	1286.6674	1360.0132	1377.2235	1392.8228	1411.6038	1427.4148	1476.7188	1492.0607	1506.0594	1593.8201	1703.4859	3047.5476	3064.4784	3116.0416	3123.5474	3138.6269	3806.1196	3820.48
CCN1N=NC(O)=C1O	CCn1nnc(O)c1O	
InChI=1S/C4H7N3O2/c1-2-7-4(9)3(8)5-6-7/h8-9H,2H2,1H3	InChI=1S/C4H7N3O2/c1-2-7-4(9)3(8)5-6-7/h8-9H,2H2,1H3
