16
gdb 100578	2.53112	1.05394	0.79186	5.3783	66.45	-0.2815	-0.05	0.2315	1377.2964	0.121609	-475.039983	-475.030282	-475.029338	-475.075443	33.898	
O	 0.4413129757	 0.1759946206	 1.0431785871	-0.401502
C	-0.0475579332	 0.1211555939	-0.2862608766	-0.11367
C	-1.4832211196	-0.4563506559	-0.4030863797	 0.022686
O	-1.9503708766	-0.2441200819	-1.7036688958	-0.428235
C	-1.5153374103	-1.9521323844	-0.080124412	 0.362744
O	-1.7629704045	-2.7445192331	-0.9577567934	-0.297928
C	-1.2263422864	-2.3646758797	 1.3611148784	-0.471262
C	-1.1020974453	-3.8044446651	 1.5475411865	 0.290602
N	-0.9943442087	-4.9408801818	 1.7187008139	-0.29318
H	 0.0308707164	 0.9239444755	 1.4889409706	 0.295997
H	-0.0650676309	 1.1083797949	-0.7627839451	 0.129495
H	 0.6453833494	-0.5076079553	-0.85396555	 0.134938
H	-2.1222428984	 0.0718823807	 0.3253313307	 0.085614
H	-2.0720037562	-1.1282879884	-2.0870030781	 0.301636
H	-0.324012679	-1.8403878416	 1.6987167105	 0.205824
H	-2.0405983524	-1.9815641785	 1.9905706132	 0.176241
47.9744	70.8338	127.573	150.538	201.2077	291.1391	306.7176	333.8316	363.2556	382.8722	425.1939	443.625	510.5633	593.171	700.6244	842.8502	906.5875	944.4014	1008.0525	1030.2589	1055.7261	1089.6228	1152.9273	1157.0743	1227.8991	1289.434	1325.1744	1348.2246	1383.5658	1396.563	1440.1307	1442.1569	1501.9659	1808.0564	2376.9746	2961.6988	3035.9132	3037.2756	3073.142	3097.3688	3677.3727	3820.5944
OCC(O)C(=O)CC#N	OC[C@@H](O)C(=O)CC#N	
InChI=1S/C5H7NO3/c6-2-1-4(8)5(9)3-7/h5,7,9H,1,3H2	InChI=1S/C5H7NO3/c6-2-1-4(8)5(9)3-7/h5,7,9H,1,3H2/t5-/m1/s1
