17
gdb 76956	2.50559	1.20299	1.00369	2.8427	70.58	-0.2477	-0.0282	0.2195	1212.2307	0.134084	-458.919202	-458.910464	-458.90952	-458.953174	31.461	
O	-0.0387243924	 1.3791772593	-0.0330624253	-0.411398
C	-0.0034590982	-0.0111969571	 0.0368898984	 0.01742
C	-0.5415736799	-0.7369877849	 1.2867551009	-0.243537
C	-1.0263799336	 0.051436315	 2.44117583	 0.157504
O	-0.9314147334	-0.3065468291	 3.5912733926	-0.271006
C	-1.3081225915	-0.690460625	-0.0286338962	 0.23349
C	-2.6600387964	-0.0554275661	-0.3487393222	-0.133953
O	-2.9695641573	-1.144810399	-1.2473927368	-0.272151
C	-1.7537041917	-1.8469337116	-0.9151839018	-0.13748
H	 0.7193915243	 1.7327276958	 0.4448975832	 0.300421
H	 0.849311527	-0.4870234066	-0.4486239561	 0.106914
H	-0.0671803334	-1.6771798829	 1.5523496449	 0.109536
H	-1.4907385127	 1.0260569782	 2.1792260779	 0.085331
H	-3.3740334278	 0.0017517228	 0.4819216322	 0.111537
H	-2.6146456901	 0.9112200231	-0.8613111985	 0.126611
H	-1.1324322197	-2.0467650436	-1.7974557829	 0.110209
H	-1.953078983	-2.7896915782	-0.3890147803	 0.110552
71.9183	108.9183	140.1894	188.1725	212.0871	245.5968	356.416	405.45	438.8636	467.7659	561.7772	604.8099	813.6674	860.9077	898.7971	955.3151	968.575	990.3489	1031.9051	1047.8138	1063.9229	1107.8405	1128.3309	1153.9328	1160.268	1165.3777	1201.9097	1264.1028	1291.4971	1311.8393	1338.7304	1387.8471	1438.4011	1495.8292	1510.0145	1534.2356	1807.7174	2902.8206	3005.3513	3024.0986	3050.8629	3076.1299	3097.335	3162.681	3805.6596
OC1C(C=O)C11COC1	O[C@H]1[C@@H](C=O)C21COC2	
InChI=1S/C6H8O3/c7-1-4-5(8)6(4)2-9-3-6/h1,4-5,8H,2-3H2	InChI=1S/C6H8O3/c7-1-4-5(8)6(4)2-9-3-6/h1,4-5,8H,2-3H2/t4-,5+/m1/s1
