14
gdb 132596	3.14928	1.28031	0.91099	1.7412	69.01	-0.2097	-0.0033	0.2064	1140.9583	0.100879	-486.001746	-485.994401	-485.993456	-486.033354	28.972	
N	-0.0096749399	 1.4122192944	 0.1601932244	-0.597003
C	-0.0276711778	 0.0272698985	 0.0578861963	 0.232195
C	-1.2119286294	-0.7161239663	 0.0412997991	-0.356667
C	-1.1522701197	-2.1021908571	-0.0029891587	 0.325959
F	-2.3046309998	-2.7848788718	-0.0184573606	-0.086773
C	 0.0454982079	-2.7986167339	-0.0324956414	-0.277442
C	 1.2306774554	-2.0612326879	-0.0201834294	-0.214293
C	 1.1802464834	-0.6833364485	 0.0233906493	 0.228957
F	 2.3201636639	 0.0379277835	 0.022772667	-0.098755
H	 0.8584379589	 1.8366027518	-0.1309292359	 0.258397
H	-0.8190100754	 1.8839509229	-0.2141129068	 0.253203
H	-2.1775793235	-0.2244945413	 0.0682422356	 0.104202
H	 0.0467323534	-3.8800706115	-0.066557827	 0.112046
H	 2.1978301427	-2.549023713	-0.0481843521	 0.115974
157.2192	227.2268	293.3753	327.9598	345.851	391.1779	444.543	456.3489	506.1866	574.3605	601.9342	635.0319	713.9981	742.8359	786.4609	809.7634	856.0872	912.4159	984.9722	1084.4017	1133.1192	1199.2926	1245.431	1275.8901	1346.4185	1365.4189	1481.1076	1552.7791	1637.8877	1643.2509	1673.4224	3197.122	3202.9671	3222.8359	3573.6012	3677.9958
NC1=CC(F)=CC=C1F	Nc1cc(F)ccc1F	
InChI=1S/C6H5F2N/c7-4-1-2-5(8)6(9)3-4/h1-3H,9H2	InChI=1S/C6H5F2N/c7-4-1-2-5(8)6(9)3-4/h1-3H,9H2
