13
gdb 132870	3.19126	1.36679	0.95747	3.0154	67.08	-0.2077	-0.0477	0.16	1094.2014	0.089123	-497.900601	-497.893259	-497.892314	-497.932294	28.378	
N	 0.0054240793	 1.3880539382	 0.1290522299	-0.572132
C	-0.0794614441	 0.0251377876	 0.0441207979	 0.173172
C	-1.2217654162	-0.7208063151	 0.0242356077	-0.304755
C	-1.1124906742	-2.1388318249	-0.0068598514	 0.209986
F	-2.2367826455	-2.8601279494	-0.0201744641	-0.074316
C	 0.0855288005	-2.7481210958	-0.0211069576	-0.083062
O	 1.2296412769	-2.0076997107	-0.014356175	-0.206679
C	 1.2345570391	-0.6425959049	 0.0081651008	 0.429041
O	 2.2867258972	-0.0462363989	-0.010364341	-0.370857
H	 0.9206683272	 1.7601096297	-0.0804775994	 0.276245
H	-0.7854663136	 1.9422291456	-0.1537950836	 0.259641
H	-2.2073441425	-0.2690678075	 0.0390485039	 0.115077
H	 0.259847086	-3.812837904	-0.0414417181	 0.14864
124.7381	204.3031	304.5072	361.8802	374.6816	387.2594	442.0878	469.495	500.976	509.8531	591.1946	609.7581	680.6284	780.6938	793.6793	820.1855	863.0856	999.7382	1091.3435	1135.1247	1208.0987	1219.2338	1317.1679	1388.2727	1468.8174	1593.0802	1648.5494	1702.7964	1799.5175	3195.1616	3256.6937	3574.6687	3703.3643
NC1=CC(F)=COC1=O	Nc1cc(F)coc1=O	
InChI=1S/C5H4FNO2/c6-3-1-4(7)5(8)9-2-3/h1-2H,7H2	InChI=1S/C5H4FNO2/c6-3-1-4(7)5(8)9-2-3/h1-2H,7H2
