16
gdb 11821	3.72064	1.67968	1.3302	2.0991	66.49	-0.2341	-0.0291	0.205	932.6174	0.129157	-383.728258	-383.720283	-383.719339	-383.761036	28.895	
O	-0.2180640249	 1.5112291582	-0.1164554758	-0.433583
C	 0.0022233232	 0.1308136482	 0.0228006526	 0.041313
C	-1.2773142319	-0.7470942477	 0.1873854691	-0.354702
C	-0.7900460282	-1.6378231452	-0.9719357647	 0.228204
C	-0.6433542294	-3.1469140197	-1.0305417052	-0.306601
C	-1.5581439671	-2.4514391438	-1.9863096743	-0.308631
C	 0.3053219278	-0.6610054909	-1.2717692552	 0.310919
O	 1.0549338355	-0.4710016304	-2.1911372989	-0.324942
H	 0.4732067277	 1.8530774791	-0.69571873	 0.296723
H	 0.7499121266	-0.0923955374	 0.8012438568	 0.091606
H	-1.3984643857	-1.2273721474	 1.1598283394	 0.109544
H	-2.1746783298	-0.1740522447	-0.0568535979	 0.124325
H	 0.2978615469	-3.5364819262	-1.4035161628	 0.134852
H	-1.0807129931	-3.7086277139	-0.2117271806	 0.125929
H	-2.6286419239	-2.5393981527	-1.8348421659	 0.126725
H	-1.2447418136	-2.3500297855	-3.0200433967	 0.138317
51.6412	125.7267	192.1684	207.9958	255.0507	287.3553	380.7654	495.2378	541.3522	713.5409	746.3006	785.0052	821.862	829.0377	916.387	939.1045	960.3393	1028.7466	1047.6466	1064.1069	1081.9218	1122.7132	1159.1003	1197.6574	1199.1945	1228.8698	1252.7349	1327.8337	1360.924	1392.2836	1458.4249	1482.2612	1490.9618	1872.8978	2970.6956	3073.0425	3130.4742	3130.8629	3132.9683	3214.1449	3229.0255	3795.1421
OC1CC2(CC2)C1=O	O[C@H]1CC2(CC2)C1=O	
InChI=1S/C6H8O2/c7-4-3-6(1-2-6)5(4)8/h4,7H,1-3H2	InChI=1S/C6H8O2/c7-4-3-6(1-2-6)5(4)8/h4,7H,1-3H2/t4-/m0/s1
