18
gdb 7983	3.40127	1.70963	1.23855	4.2328	67.97	-0.2604	0.017	0.2774	1006.9419	0.153909	-385.00595	-384.9979	-384.996956	-385.038359	29.826	
C	-0.3052945355	 1.5184274795	 0.1503739793	-0.399967
C	 0.0128769278	 0.0511642815	-0.0670730308	 0.133829
C	 1.0735092683	-0.2538326687	-1.1361390095	-0.247051
C	 1.711422955	-1.5475272598	-0.6177669346	-0.131605
C	 3.1596757454	-1.8218842627	-1.0124589019	-0.403325
C	 1.5275672947	-1.4142472775	 0.8959385189	 0.437914
O	 2.1115921579	-1.9987000719	 1.7628332063	-0.345487
O	 0.5585870131	-0.4977682069	 1.1571893097	-0.234232
H	 0.6024523966	 2.074481997	 0.4032786948	 0.128863
H	-0.7339774792	 1.9471827931	-0.7611154541	 0.121953
H	-1.0259155072	 1.6444391528	 0.9625519604	 0.135369
H	-0.9109332107	-0.5028292818	-0.2834348582	 0.089394
H	 0.640973922	-0.3396978742	-2.135506339	 0.111515
H	 1.8195073986	 0.5500144789	-1.1581402885	 0.109754
H	 1.0888657039	-2.40386082	-0.9157477155	 0.109814
H	 3.799125076	-0.9667833401	-0.7704042466	 0.12307
H	 3.5391416644	-2.6884055465	-0.4654252994	 0.144585
H	 3.2446569889	-2.0180366229	-2.0851186814	 0.115606
94.7214	125.1879	201.939	227.497	250.2278	297.9409	374.8934	458.8659	510.5017	566.49	631.3168	709.0942	777.6332	875.99	899.9862	931.2111	968.2551	1002.8092	1061.1829	1090.6166	1134.751	1141.0823	1182.5724	1191.2621	1217.8428	1291.149	1315.1594	1359.077	1375.0245	1392.6672	1410.8101	1416.2494	1484.0395	1491.14	1496.7415	1498.0848	1499.0848	1875.8116	3007.2705	3010.1096	3038.8651	3042.2643	3044.1492	3105.9948	3110.9698	3116.349	3125.0603	3128.2667
CC1CC(C)C(=O)O1	C[C@H]1C[C@@H](C)C(=O)O1	
InChI=1S/C6H10O2/c1-4-3-5(2)8-6(4)7/h4-5H,3H2,1-2H3	InChI=1S/C6H10O2/c1-4-3-5(2)8-6(4)7/h4-5H,3H2,1-2H3/t4-,5+/m1/s1
