17
gdb 126050	3.86532	1.13545	1.03116	1.7766	74.88	-0.2392	0.0077	0.2469	1190.3555	0.138747	-414.188782	-414.180926	-414.179981	-414.221873	29.189	
C	 0.1124315321	 1.5314443437	-0.3424265405	-0.40498
C	 0.008120352	 0.0679196888	 0.0034587444	 0.010669
N	 1.236588674	-0.7282678952	-0.0652191984	-0.327757
C	 0.5936973605	-0.5368024742	 1.2462748621	-0.136159
C	 1.3139848109	 0.2180505514	 2.2927224836	 0.383241
N	 2.2785657417	 1.1018341	 2.0693299005	-0.275088
N	 2.5866546526	 1.5110732804	 3.3232728674	-0.16982
C	 1.8220407924	 0.8717649151	 4.2284095231	 0.011956
N	 1.0009543755	 0.0437740574	 3.6159768466	-0.311877
H	 1.0353939683	 1.9566123233	 0.0555819875	 0.154605
H	 0.1096374324	 1.6647502685	-1.4296690719	 0.115702
H	-0.7386329098	 2.0857388868	 0.0682677074	 0.110972
H	-0.9098396005	-0.4143850846	-0.333725189	 0.082947
H	 1.0480413335	-1.6666185286	-0.4070578676	 0.232604
H	 0.0385710468	-1.3674156877	 1.67431264	 0.094741
H	 3.3168617995	 2.1901063647	 3.4616187372	 0.282444
H	 1.8997628881	 1.0345366004	 5.2929446076	 0.145801
48.0699	131.894	178.099	206.964	288.4452	385.432	441.8728	500.5943	542.4636	680.3026	702.3355	780.1137	797.6954	851.3236	864.3559	939.6183	989.3229	995.8607	1017.5377	1020.9821	1077.6464	1103.2166	1143.2245	1166.1673	1202.4538	1247.5736	1251.6385	1267.7915	1321.0236	1396.4276	1420.6145	1450.0713	1471.5867	1492.7906	1496.2368	1526.4143	1559.3823	3035.1691	3094.5784	3097.969	3142.7954	3146.4956	3258.1417	3505.2816	3665.0626
CC1NC1C1=NNC=N1	C[C@H]1N[C@H]1c1n[nH]cn1	
InChI=1S/C5H8N4/c1-3-4(8-3)5-6-2-7-9-5/h2-4,8H,1H3,(H,6,7,9)	InChI=1S/C5H8N4/c1-3-4(8-3)5-6-2-7-9-5/h2-4,8H,1H3,(H,6,7,9)/t3-,4-/m1/s1
