18
gdb 112990	3.3266	1.0281	0.85426	12.507	82.55	-0.1748	-0.0149	0.1599	1356.1527	0.147881	-439.037302	-439.02829	-439.027346	-439.071617	32.352	
C	-0.003675367	 1.4817426327	 0.1824856994	-0.361243
N	-0.0263851281	 0.0016698804	-0.0725218583	-0.239158
H	 0.5091107028	-0.2327082122	-0.9111503356	 0.300998
H	 0.4186907245	-0.4798561447	 0.7148815617	 0.313384
C	-1.4438817871	-0.5417558617	-0.1298439508	-0.132987
C	-1.5259466848	-2.0852007072	-0.1101174677	-0.384314
C	-2.0670620669	-1.9548190099	 1.3158146173	 0.082757
C	-2.450970777	-2.965667818	 2.2517785579	 0.015025
O	-2.857789196	-2.8006614636	 3.3919274289	-0.319583
C	-2.0164073682	-0.5449820906	 1.3366672454	 0.284698
O	-2.1776829414	 0.4261606041	 2.071815395	-0.419882
H	 1.021533805	 1.797581333	 0.3804866649	 0.15541
H	-0.3895405657	 1.9820118204	-0.7061293379	 0.167476
H	-0.6631873172	 1.6530688554	 1.0378374732	 0.240703
H	-1.9548426244	 0.0072970179	-0.9246861024	 0.103339
H	-2.1951808981	-2.4831150477	-0.8845282628	 0.108914
H	-0.5540931031	-2.5906403798	-0.2402565848	 0.070768
H	-2.3419157072	-4.0041561984	 1.8419821466	 0.013699
47.8885	132.6447	153.7895	195.7522	213.7506	256.8937	277.1235	334.5463	359.9094	474.5131	524.1363	688.6408	740.2691	761.75	798.3653	889.8227	956.9977	971.7031	993.3622	1010.4858	1038.5215	1082.3868	1085.7799	1146.379	1190.3272	1215.2565	1240.5807	1334.145	1358.4198	1392.0987	1408.6514	1451.5331	1459.2554	1492.5243	1513.744	1520.0259	1635.22	1722.4677	1783.5836	2775.1788	2948.7361	3013.7272	3049.4221	3087.6917	3152.383	3168.2918	3401.2278	3462.3511
C[NH2+]C1C[C-](C=O)C1=O	C[NH2][C@H]1C[C](C=O)C1=O	
InChI=1S/C6H8NO2/c1-7-5-2-4(3-8)6(5)9/h3,5,7H,2H2,1H3/q-1/p+1	InChI=1S/C6H9NO2/c1-7-5-2-4(3-8)6(5)9/h3,5H,2,7H2,1H3/t5-/m0/s1
