19
gdb 82118	3.17514	1.18417	0.99832	5.1586	79.09	-0.2431	0.0425	0.2857	1212.9126	0.160018	-382.044321	-382.035741	-382.034797	-382.077744	32.37	
C	-0.3277966348	 1.5289088333	 0.1378126186	-0.425076
C	-0.0748182741	 0.0291246385	 0.0680296707	 0.012485
C	 0.463854664	-0.5481522391	-1.2494701423	-0.05267
N	 1.8175787342	 0.0271340007	-1.4421761781	-0.336473
C	 1.6356656523	-1.1579063542	-0.5685046959	-0.082193
C	 1.1842871095	-0.6181110601	 0.7929797971	-0.013544
C	 2.1970461868	 0.2790306496	 1.5188708931	-0.349728
C	 1.6693433287	 0.8508310075	 2.755427402	 0.262041
N	 1.2349928469	 1.2864753517	 3.7342493996	-0.320475
H	 0.5194866993	 2.0896299848	-0.2649091581	 0.134112
H	-1.2120836059	 1.7902440954	-0.4538062989	 0.113319
H	-0.5069056026	 1.8565083725	 1.16609475	 0.140481
H	-0.9684866497	-0.5189150097	 0.3799469704	 0.083321
H	-0.1064380639	-0.9085614115	-2.0970793047	 0.095604
H	 2.1665263135	-0.3086559217	-2.3387665408	 0.233074
H	 2.1607516602	-2.0837273705	-0.7703704751	 0.096501
H	 0.8626076413	-1.4232599308	 1.4575061111	 0.093764
H	 3.0914476954	-0.3053707864	 1.767489289	 0.144738
H	 2.5184608188	 1.0837155501	 0.8515604924	 0.170721
73.4567	106.6803	175.0805	222.2947	233.1601	264.9638	381.0775	399.4861	477.336	563.83	595.7528	669.9954	750.2171	814.0628	841.8037	863.0732	915.8119	944.0452	965.3894	986.8669	1008.8901	1036.2114	1074.4264	1103.7638	1116.3207	1130.0561	1144.9479	1188.1104	1218.2495	1260.2318	1294.9688	1303.7917	1329.197	1363.8334	1380.7107	1387.4056	1410.2533	1468.2757	1493.6482	1508.4671	2357.2878	3038.6199	3041.9741	3062.4959	3083.7814	3101.7011	3104.4424	3126.1071	3180.1604	3193.815	3483.1435
CC1C2NC2C1CC#N	C[C@H]1[C@H]2N[C@H]2[C@H]1CC#N	
InChI=1S/C7H10N2/c1-4-5(2-3-8)7-6(4)9-7/h4-7,9H,2H2,1H3	InChI=1S/C7H10N2/c1-4-5(2-3-8)7-6(4)9-7/h4-7,9H,2H2,1H3/t4-,5+,6-,7+/m1/s1
