16
gdb 54021	2.17137	1.64339	1.01458	0.8909	70.06	-0.2432	-0.0105	0.2327	1135.1498	0.125758	-467.436301	-467.427276	-467.426332	-467.470221	33.396	
N	 0.7872530536	 0.2331021863	 1.0902221643	-0.506637
C	 0.0354007337	 0.1604550273	-0.0509896202	 0.367597
N	 0.2684551174	 0.9088168721	-1.0602924891	-0.535376
N	-1.0686005274	-0.7687171692	 0.0341050332	-0.188989
C	-0.9290125618	-2.0519848511	 0.5659342613	 0.11707
N	 0.1414294114	-2.4627658333	 1.1189772241	-0.504819
C	-2.3962424787	-0.4169023024	-0.3708407784	 0.482721
N	-2.5859835799	 0.8854923591	-0.7047358595	-0.572231
O	-3.2858505887	-1.2429104743	-0.3932329851	-0.38583
H	 1.6585047031	 0.721718941	 0.9384788032	 0.259781
H	 0.8737710076	-0.6515119249	 1.5829190061	 0.281896
H	-0.3760720562	 0.7219440493	-1.8227659682	 0.229178
H	-1.8489663836	-2.62016809	 0.4369115991	 0.160904
H	 0.0290018629	-3.4257691276	 1.4255874046	 0.237817
H	-1.8796214697	 1.5906356042	-0.5769421454	 0.282821
H	-3.5397964735	 1.1539602235	-0.87489906	 0.274098
62.4538	100.4728	154.5432	225.8011	268.5236	290.478	304.5475	429.7625	444.3998	474.9017	506.9869	573.4889	593.8657	649.1821	680.4941	738.1456	770.1536	788.2301	827.4925	870.6463	1062.2964	1085.6016	1108.7264	1146.01	1169.4262	1202.3016	1336.6464	1363.9259	1396.1558	1410.9195	1603.3711	1636.3506	1712.6832	1735.0659	1811.5831	3153.1788	3478.1382	3520.9643	3539.6923	3597.998	3638.4425	3737.3576
NC(=N)N(C=N)C(N)=O	NC(=N)N(C=N)C(=O)N	
InChI=1S/C3H7N5O/c4-1-8(2(5)6)3(7)9/h1,4H,(H3,5,6)(H2,7,9)	InChI=1S/C3H7N5O/c4-1-8(2(5)6)3(7)9/h1,4H,(H3,5,6)(H2,7,9)
