19
gdb 45424	2.49506	1.72063	1.69951	4.0253	75.22	-0.2245	0.0346	0.2591	945.8857	0.164102	-419.228197	-419.221047	-419.220103	-419.259695	28.91	
N	-0.0623858136	 1.282120974	 0.0577752962	-0.549237
C	-0.0336811955	 0.0209240437	-0.0016384031	 0.453974
O	 1.1223813602	-0.7120656798	-0.035109146	-0.265632
C	 0.8797498942	-2.1398102242	-0.0447550495	 0.091156
C	 0.1372915687	-2.5155017454	 1.2438096803	-0.217317
C	-1.2046662433	-1.7319901885	 1.2743134907	-0.225487
C	-1.2625096387	-0.8585992107	-0.0030784056	-0.08509
N	-1.2104562733	-1.6823682013	-1.2249190834	-0.301512
C	 0.0423536362	-2.4643094861	-1.2834337049	-0.170826
H	 0.8893934621	 1.6560618812	 0.0748255208	 0.216514
H	 1.8672928498	-2.6008778585	-0.0998278231	 0.087999
H	-0.0213171391	-3.5981875338	 1.2700527258	 0.104111
H	 0.7657777016	-2.2602285059	 2.1011497044	 0.115568
H	-2.0649445356	-2.4095068399	 1.2786484723	 0.09499
H	-1.2823397134	-1.1069306426	 2.169135845	 0.118365
H	-2.1488270469	-0.2254409296	-0.0290728013	 0.099052
H	-2.0170770517	-2.2950418451	-1.2454677135	 0.220583
H	 0.6117338595	-2.1998097713	-2.1836293442	 0.114133
H	-0.1503592012	-3.5435535361	-1.321474631	 0.098655
94.9352	175.2305	264.1378	362.1934	378.1143	421.0086	521.4707	532.3766	640.0168	688.161	768.6316	796.2198	823.7031	838.071	877.74	908.1401	919.4256	957.1968	963.6267	1003.2177	1040.4344	1071.8238	1084.7768	1106.9177	1114.421	1199.4933	1232.1363	1245.7144	1263.8358	1290.8125	1300.9719	1339.9781	1346.2645	1373.0996	1398.447	1401.9495	1465.534	1479.0663	1496.7803	1510.1016	1776.6732	3013.1452	3039.2489	3048.4676	3056.3814	3079.8939	3101.9291	3104.264	3122.9244	3456.2402	3537.004
N=C1OC2CCC1NC2	[NH][C]1O[C@H]2CC[C@@H]1NC2	
InChI=1S/C6H10N2O/c7-6-5-2-1-4(9-6)3-8-5/h4-5,7-8H,1-3H2	InChI=1S/C6H10N2O/c7-6-5-2-1-4(9-6)3-8-5/h4-5,7-8H,1-3H2/t4-,5-/m0/s1
