21
gdb 116177	3.20613	1.01542	0.81221	3.0335	75.19	-0.2588	0.0737	0.3325	1411.0577	0.183425	-461.368144	-461.359111	-461.358167	-461.401724	34.767	
O	 0.02336974	 1.4015771084	 0.1112755114	-0.427337
C	 0.0378487602	-0.0045818823	-0.0177349856	-0.066906
C	-1.3749148461	-0.5768848057	-0.034693317	 0.088715
C	-1.4203798458	-2.1020662544	-0.1517987705	-0.203763
C	-2.8558498203	-2.6084338793	-0.0184572373	 0.115546
O	-2.8075389905	-4.0274098674	-0.0215248453	-0.436723
C	-3.489919451	-2.0430461017	 1.2587657404	-0.232359
C	-3.3355798524	-0.5202603685	 1.298565292	-0.081882
O	-1.9749731139	-0.14099346	 1.1864325183	-0.272369
H	-0.5778115965	 1.5856964957	 0.8432025866	 0.288535
H	 0.54455305	-0.2405461556	-0.9591983349	 0.106806
H	 0.6029110852	-0.4811063308	 0.8001626059	 0.089389
H	-1.9246827954	-0.1216568726	-0.8771224585	 0.070866
H	-0.9996962103	-2.4240292829	-1.110279613	 0.106168
H	-0.8158442416	-2.5511777956	 0.6451509051	 0.111087
H	-3.4349892276	-2.2459910159	-0.886167497	 0.063082
H	-3.7066641008	-4.3573264009	 0.0772698009	 0.27954
H	-4.5533459595	-2.3096508309	 1.3148225084	 0.086162
H	-2.9872777395	-2.4864266384	 2.125941869	 0.113769
H	-3.9241466065	-0.0571230652	 0.488153028	 0.090625
H	-3.6937706378	-0.1110831461	 2.2473521131	 0.111047
98.0589	134.6188	168.3432	211.7619	285.4385	293.3527	321.295	376.3981	414.3848	450.5846	480.2464	488.8918	529.2302	634.1027	809.9593	839.7255	869.6656	942.9856	956.7436	1008.3227	1050.6841	1071.628	1085.0249	1091.5658	1116.7553	1141.3627	1151.7266	1191.0589	1229.91	1235.5523	1276.8738	1286.9379	1304.8669	1340.6367	1361.4689	1373.3815	1395.8307	1397.1382	1418.3902	1438.568	1446.0951	1472.3356	1488.2585	1498.7219	1502.8935	2941.0353	2953.407	2964.9223	2976.5392	3023.9819	3039.9193	3076.1262	3077.0346	3088.0425	3090.4965	3789.9112	3811.2434
OCC1CC(O)CCO1	OC[C@H]1C[C@@H](O)CCO1	
InChI=1S/C6H12O3/c7-4-6-3-5(8)1-2-9-6/h5-8H,1-4H2	InChI=1S/C6H12O3/c7-4-6-3-5(8)1-2-9-6/h5-8H,1-4H2/t5-,6+/m0/s1
