14
gdb 25090	3.60975	1.34117	0.97786	2.1513	76.73	-0.2602	-0.0792	0.181	1110.3213	0.10418	-432.916392	-432.90918	-432.908236	-432.949038	26.747	
N	-0.030837168	 1.0081137627	 1.0293142805	-0.47392
C	 0.0363119355	 0.1112999958	 0.1142953995	 0.314819
C	-1.2598368676	-0.4583153708	-0.2971523907	-0.045041
C	-1.5612751545	-1.3946477937	-1.2051364853	-0.195545
C	-0.6809578135	-2.1646282154	-2.0950289401	 0.421591
O	-1.1144409364	-2.9892022606	-2.8732467158	-0.342455
N	 0.7052289395	-1.9549359715	-2.0592013086	-0.363633
C	 1.5128630953	-1.1218641341	-1.3199857117	 0.111158
N	 1.2811634171	-0.2558183882	-0.4147848127	-0.329686
H	 0.9191224969	 1.3295230894	 1.2340093504	 0.228049
H	-2.0786201863	-0.0112602026	 0.2583443701	 0.139782
H	-2.5999641866	-1.6702243723	-1.3519020403	 0.135856
H	 1.1788881429	-2.5532630845	-2.7243151747	 0.266331
H	 2.5591035957	-1.2646192142	-1.5974957306	 0.132696
36.7089	124.6255	288.9828	355.781	395.764	399.5958	413.6236	555.9125	622.0997	689.5025	713.7409	786.2744	790.5189	849.3924	883.4415	901.6707	956.2077	992.0301	1048.7551	1051.371	1184.4156	1220.8478	1302.3395	1389.4869	1414.0845	1479.2685	1490.3291	1644.1924	1694.5993	1737.3132	1784.2021	3112.9811	3183.0208	3202.7908	3450.4404	3583.3923
N=C1C=CC(=O)NC=N1	[NH]C1=C[CH]C(=O)NC=N1	
InChI=1S/C5H5N3O/c6-4-1-2-5(9)8-3-7-4/h1-3H,(H2,6,7,8,9)	InChI=1S/C5H5N3O/c6-4-1-2-5(9)8-3-7-4/h1-3H,(H2,6,7,8,9)
