16
gdb 45007	2.44276	1.77537	1.16154	2.4443	72.04	-0.2517	-0.0183	0.2335	1031.4651	0.127618	-434.096251	-434.089011	-434.088067	-434.128106	28.231	
N	-0.0499289835	 1.3270667454	 0.3907411094	-0.51012
C	-0.0213585062	 0.1133316265	 0.0127164291	 0.389268
C	-1.3219727831	-0.6331953583	-0.2026181202	-0.26759
C	-1.2357966768	-1.720404572	-1.2471131208	-0.043344
N	-0.5077523555	-1.3738783895	-2.4656965291	-0.325195
C	 0.0857256001	-2.3505917036	-1.5146902139	-0.161516
C	 1.2987437712	-1.8625057804	-0.7891209237	 0.46063
O	 2.351226885	-2.4630709388	-0.7688196392	-0.361217
N	 1.1441228202	-0.6469396614	-0.1398885667	-0.385244
H	 0.8898940614	 1.7017329858	 0.5377291615	 0.208878
H	-1.6078925558	-1.087010776	 0.7556218304	 0.133372
H	-2.0876657604	 0.1037512842	-0.4531355907	 0.146418
H	-2.1101451742	-2.3613403894	-1.3314754192	 0.101452
H	-0.8806253026	-1.8755293292	-3.2675392137	 0.245918
H	 0.1479159252	-3.393546329	-1.8038810067	 0.115532
H	 2.009050905	-0.2572180542	 0.2124066634	 0.252757
98.6188	134.5527	254.3559	343.112	375.4852	469.2268	508.3859	522.2028	560.8816	624.7899	667.4056	750.4496	812.6953	859.2136	872.7551	891.368	921.5517	941.7081	1005.8748	1011.3719	1086.4084	1141.5354	1160.3801	1168.121	1223.1603	1257.6235	1307.1529	1355.2504	1382.506	1404.0067	1425.3894	1453.9867	1468.0794	1734.3018	1807.6497	3033.0386	3115.4791	3139.1443	3185.457	3446.4248	3510.3839	3586.4447
N=C1CC2NC2C(=O)N1	[NH][C]1C[C@H]2N[C@H]2C(=O)N1	
InChI=1S/C5H7N3O/c6-3-1-2-4(7-2)5(9)8-3/h2,4,7H,1H2,(H2,6,8,9)	InChI=1S/C5H7N3O/c6-3-1-2-4(7-2)5(9)8-3/h2,4,7H,1H2,(H2,6,8,9)/t2-,4-/m1/s1
