12
gdb 129897	5.57554	1.35778	1.09291	3.8816	66.23	-0.215	-0.0557	0.1593	990.1603	0.079256	-464.941273	-464.93471	-464.933765	-464.972004	25.386	
N	 0.0341567392	 1.3424130737	 0.1480558206	-0.584496
C	-0.0462933591	-0.0288822519	 0.0521885414	 0.330085
C	-1.1796867476	-0.8251191518	 0.0218988478	-0.236711
N	-0.6413379397	-2.1110833086	-0.0033316487	 0.024881
N	-0.9778683243	-3.4036488936	-0.0474864266	-0.066834
N	 0.075146477	-4.1002906969	-0.0620728177	-0.013647
O	 1.2238403744	-3.2138957959	-0.0264706406	-0.242167
C	 0.7165214486	-1.9863910121	 0.0080391733	 0.553934
N	 1.1442814981	-0.7604029431	 0.0404244981	-0.437105
H	 0.9291339731	 1.7073256985	-0.1442353724	 0.266288
H	-0.7462716007	 1.8586628462	-0.2283316643	 0.257319
H	-2.2338332989	-0.6233532145	 0.0324678691	 0.148455
156.4187	287.0534	312.4802	332.0902	338.3541	518.3164	558.9908	563.4767	601.4675	629.3176	686.4552	712.8026	747.6694	804.555	890.5473	985.6208	1025.2368	1083.0393	1192.3653	1252.2368	1369.891	1378.7353	1416.4429	1476.5831	1589.5754	1651.5514	1655.382	3316.683	3574.6047	3681.2402
NC1=CN2N=NOC2=N1	Nc1cn2nnoc2n1	
InChI=1S/C3H3N5O/c4-2-1-8-3(5-2)9-7-6-8/h1H,4H2	InChI=1S/C3H3N5O/c4-2-1-8-3(5-2)9-7-6-8/h1H,4H2
