21
gdb 68474	2.66433	1.64736	1.24695	1.3508	82.64	-0.2338	0.0184	0.2522	1073.7097	0.184414	-387.087989	-387.080033	-387.079089	-387.119797	32.852	
O	-0.1578738689	 1.5629119145	-0.0023644494	-0.492214
C	-0.0827811089	 0.1522962992	-0.0334901887	 0.392835
C	 0.3123325011	-0.5804057572	 1.2898328965	-0.275379
C	-0.8293222035	-1.5967771742	 1.0031756871	-0.003348
C	-1.4763990882	-0.5169601262	 0.0848668178	-0.270384
C	-0.3618005064	-2.8789850192	 0.291256662	-0.207376
C	-0.0348749774	-2.7694159079	-1.2147801275	-0.260577
C	 0.7722733227	-1.5813963039	-1.6863624629	-0.062714
C	 0.7288674985	-0.337428587	-1.2097064823	-0.12233
H	 0.7394094104	 1.9133515491	-0.021480318	 0.272241
H	 1.3323725412	-0.9653210729	 1.3720506407	 0.086365
H	 0.0808143611	 0.0550322812	 2.1493901589	 0.097307
H	-1.4197225061	-1.8738782163	 1.8797287949	 0.068334
H	-2.1440557228	 0.1398320651	 0.6474581515	 0.106735
H	-1.9703665046	-0.8286194436	-0.8375746072	 0.098844
H	 0.5185251383	-3.2605070854	 0.8240759932	 0.099104
H	-1.1348297207	-3.6495225178	 0.3967090687	 0.094123
H	 0.4838313326	-3.6870871578	-1.515081383	 0.099814
H	-0.9759337751	-2.7838701212	-1.7835837183	 0.117975
H	 1.4161346812	-1.7710338374	-2.542588408	 0.086828
H	 1.3403625556	 0.4262873988	-1.6879082161	 0.073819
139.9061	195.5223	255.3402	291.1572	322.8906	342.2612	407.0051	419.9445	482.0022	545.3753	643.5769	664.8711	727.3168	760.1667	845.4279	847.7566	862.599	887.0966	922.216	963.1025	986.1681	1013.1424	1017.1686	1033.3086	1076.2786	1093.3547	1139.5653	1151.3487	1178.3918	1224.8634	1238.1272	1247.3676	1260.3942	1274.0504	1294.2291	1343.2867	1374.2716	1381.7254	1389.8908	1421.6534	1463.7664	1478.4031	1488.584	1502.4603	1719.6301	3001.0659	3018.4315	3047.1836	3049.5184	3058.153	3065.2861	3075.3858	3110.9247	3124.4749	3126.7722	3153.7249	3800.6085
OC12CC(C1)CCC=C2	O[C@@]12C[C@@H](C1)CCC=C2	
InChI=1S/C8H12O/c9-8-4-2-1-3-7(5-8)6-8/h2,4,7,9H,1,3,5-6H2	InChI=1S/C8H12O/c9-8-4-2-1-3-7(5-8)6-8/h2,4,7,9H,1,3,5-6H2/t7-,8-
