12
gdb 130515	4.05789	1.79154	1.24283	3.0204	70.57	-0.2745	-0.1115	0.163	888.1764	0.081002	-431.666488	-431.660826	-431.659882	-431.69651	22.14	
O	-0.0974597647	 1.277488193	 0.0101491494	-0.222735
N	 1.0316417924	 2.0854251416	 0.0034050825	-0.083918
C	 2.1894101833	 1.4833232303	-0.0112142375	 0.055681
C	 2.4443257462	 0.0792932822	-0.0212811189	-0.257909
C	 1.3380179215	-0.7090040415	-0.0146552177	 0.290277
N	 1.0961025553	-2.0517993848	-0.019542935	-0.343046
C	-0.2325115832	-2.0932106672	-0.0066277718	 0.04694
N	-0.9433755366	-0.9043254311	 0.0067347591	-0.341355
C	 0.0366755964	-0.0383960513	 0.0017419665	 0.411197
H	 3.0123002941	 2.1914960918	-0.0154951644	 0.155492
H	 3.4589755572	-0.3000985621	-0.0333059021	 0.150122
H	-0.7693539518	-3.034605011	-0.00646103	 0.139255
217.4979	252.1653	365.931	460.7968	547.7745	589.7431	623.248	635.5121	766.9299	805.1801	894.8954	897.9185	937.3173	946.7948	978.933	983.8802	1050.7256	1155.07	1214.9019	1272.652	1321.5682	1343.327	1397.0382	1428.2541	1556.1033	1585.0188	1697.1031	3191.1514	3214.5278	3223.7322
O1N=CC=C2N=CN=C12	O1N=C[CH]c2ncnc12	
InChI=1S/C5H3N3O/c1-2-8-9-5-4(1)6-3-7-5/h1-3H	InChI=1S/C5H4N3O/c1-2-8-9-5-4(1)6-3-7-5/h1-3H,(H,6,7)
