21
gdb 106588	3.21492	1.40089	1.29037	0.0993	85.94	-0.2177	-0.0014	0.2163	1101.5407	0.183939	-349.949288	-349.941443	-349.940499	-349.981379	32.395	
C	-0.0801942277	 1.5590507362	-0.0673401457	-0.388664
C	 0.0211715088	 0.0314674317	 0.0261903125	-0.28989
C	 0.7601990777	-0.4822199866	 1.256760183	 0.270332
C	 0.9025167876	-2.0319234936	 1.4181272533	-0.232691
C	 1.6853684754	-1.8966259226	 2.7572597232	-0.125144
C	 2.8090016156	-0.9639765439	 2.2610682816	-0.088317
C	 2.2630503203	-0.126470738	 1.3811334549	-0.105367
C	 0.6641444485	-1.0296998437	 3.5215826493	-0.088329
C	 0.12287822	-0.1920631239	 2.6388915402	-0.105354
H	 0.908378111	 2.0281366327	-0.1041027002	 0.118056
H	-0.6204534911	 1.8585956874	-0.9706871301	 0.112851
H	-0.6130506345	 1.9819600349	 0.7904987745	 0.118053
H	-0.9887715964	-0.3983207432	 0.0173345101	 0.094894
H	 0.5228996232	-0.3524294922	-0.8714037606	 0.094891
H	-0.0613693928	-2.5383147646	 1.5282399837	 0.088672
H	 1.4897008427	-2.4907807002	 0.6166905516	 0.088671
H	 2.0069016331	-2.810223111	 3.2567473208	 0.057221
H	 3.8281397037	-0.9847673428	 2.6236906581	 0.095646
H	 2.7376880974	 0.6942000749	 0.8594294016	 0.09441
H	 0.4868307385	-1.087208888	 4.5873318903	 0.095648
H	-0.600433961	 0.5918821165	 2.8211225079	 0.09441
76.2219	177.0937	198.9428	299.0656	369.7986	433.5947	462.5379	511.1217	553.0638	608.9955	682.1085	714.7285	757.234	776.4451	787.1517	814.5443	901.9088	903.2461	911.7415	915.3781	922.961	940.311	965.3289	1008.9795	1037.0733	1081.65	1088.6262	1118.2058	1127.7214	1186.2122	1200.3598	1249.9083	1254.817	1273.2728	1284.5166	1316.8365	1356.7189	1371.0164	1409.0278	1483.1874	1489.8687	1499.4288	1505.3305	1615.3041	1660.4269	3016.0917	3035.6404	3042.9361	3047.8837	3102.2726	3103.777	3103.9383	3116.5734	3203.0462	3204.4182	3229.3113	3231.8773
CCC12CC(C=C1)C=C2	CC[C@@]12C[C@@H](C=C1)C=C2	
InChI=1S/C9H12/c1-2-9-5-3-8(7-9)4-6-9/h3-6,8H,2,7H2,1H3	InChI=1S/C9H12/c1-2-9-5-3-8(7-9)4-6-9/h3-6,8H,2,7H2,1H3/t8-,9+
