18
gdb 116664	2.65415	0.95808	0.71012	2.1531	80.96	-0.2539	-0.029	0.225	1561.3648	0.146671	-435.29452	-435.284802	-435.283858	-435.329941	33.886	
C	 0.5708630993	 0.3806320528	 0.8202253187	-0.400643
C	-0.1675130822	 0.2804153337	-0.5161334581	-0.112938
N	 0.5077097229	-0.3482609573	-1.6418704251	-0.251061
C	 1.6781678094	-0.7993204364	-1.5103613962	 0.120221
N	 2.3525378915	-1.4140012971	-2.5913601761	-0.148948
C	 3.6537028818	-1.9069778719	-2.4179531635	 0.096553
N	 4.2557894688	-1.8183128443	-1.3050108219	-0.460993
C	 1.7443581813	-1.5441129835	-3.8476189679	 0.169841
O	 2.2803368425	-2.0604617834	-4.7974895173	-0.308277
H	 0.8311538447	-0.605441103	 1.2186634738	 0.128583
H	 1.4913212854	 0.9675660933	 0.7358989194	 0.128583
H	-0.072617976	 0.8756709233	 1.5533155207	 0.119014
H	-1.1115775188	-0.2625740283	-0.3760980392	 0.119794
H	-0.4628015984	 1.2837531172	-0.8505221079	 0.119791
H	 2.2983427085	-0.785115096	-0.6151807931	 0.150048
H	 4.0293787454	-2.3481082622	-3.3416980543	 0.149062
H	 5.1844771729	-2.229303143	-1.3737867858	 0.239476
H	 0.732679811	-1.119441464	-3.847586186	 0.141893
43.2649	118.8939	126.0392	176.7608	182.3429	239.375	243.2609	283.3325	287.7409	392.2872	416.9544	514.8729	636.6819	757.1654	777.76	837.4262	891.4227	917.614	1009.1406	1058.4854	1065.1855	1090.1332	1093.2776	1147.9605	1172.4831	1269.5681	1311.211	1340.116	1372.563	1396.4859	1406.0579	1421.9444	1430.9554	1480.3968	1494.0175	1504.934	1721.5628	1758.328	1810.6683	3019.7362	3036.3313	3040.313	3073.4571	3105.917	3111.9635	3135.7144	3146.5443	3512.2794
CCN=CN(C=N)C=O	CCN=CN(C=N)C=O	
InChI=1S/C5H9N3O/c1-2-7-4-8(3-6)5-9/h3-6H,2H2,1H3	InChI=1S/C5H9N3O/c1-2-7-4-8(3-6)5-9/h3-6H,2H2,1H3
