13
gdb 130839	2.34907	1.56543	0.93941	1.6609	77.99	-0.2497	-0.078	0.1717	1139.2474	0.089929	-415.612401	-415.604783	-415.603838	-415.644802	27.857	
O	 0.0560422657	-0.0946745569	-0.0014636212	-0.290568
C	-0.0115487936	 1.1173478257	 0.0097448164	 0.064651
C	 1.1691034775	 1.9715242548	 0.0034720982	 0.189574
C	 1.3361043923	 3.3612657494	 0.0135106708	 0.013882
C	 2.742291247	 3.5360502086	-0.0011321766	-0.098726
N	 3.3847600656	 2.3696751648	-0.0186831898	-0.191896
N	 2.42006269	 1.4479121565	-0.0155008535	-0.230913
C	 0.329646091	 4.349128192	 0.0336825974	 0.232199
C	-0.5210307396	 5.2014461367	 0.0505238056	-0.42315
H	-0.9775486857	 1.6570319546	 0.0255772974	 0.104306
H	 3.2936593456	 4.4635251742	 0.0005603244	 0.135712
H	 2.6401026397	 0.4636642479	-0.0265372336	 0.295759
H	-1.2719028955	 5.9523929016	 0.0644436146	 0.199169
114.4182	147.1938	173.1354	212.4028	280.5041	428.2721	472.3457	566.8312	583.8938	608.7501	610.0961	663.014	698.8485	722.0099	801.8576	888.6261	962.9555	1033.7445	1139.5681	1167.4972	1232.0724	1310.5633	1367.1682	1388.9927	1446.3692	1496.5925	1581.1208	1769.8212	2234.0982	2956.258	3264.5954	3500.3716	3650.0875
O=CC1=C(C=NN1)C#C	O=Cc1c(cn[nH]1)C#C	
InChI=1S/C6H4N2O/c1-2-5-3-7-8-6(5)4-9/h1,3-4H,(H,7,8)	InChI=1S/C6H4N2O/c1-2-5-3-7-8-6(5)4-9/h1,3-4H,(H,7,8)
