18
gdb 35062	2.38069	1.55726	1.49064	5.1291	75.43	-0.2597	0.0288	0.2886	1006.2036	0.15037	-401.95532	-401.947688	-401.946744	-401.987566	29.377	
N	-0.231084522	-1.1676882699	-0.1114272167	-0.352834
C	-0.1071952278	-0.0183902148	-0.0594056694	 0.309588
C	-0.0186224774	 1.4133273895	-0.003937955	-0.192988
C	 0.4741921887	 2.1182048727	 1.2620949114	-0.056288
C	 0.9577496988	 1.2963939769	 2.4547300592	-0.241861
C	 2.4367290179	 0.9247552957	 2.3073087572	-0.068991
O	 2.7069323287	 0.4019355233	 1.0170898754	-0.231207
C	 2.6330024304	 1.3928891681	 0.0139865548	-0.111691
C	 1.3146801958	 2.1446959001	 0.0125373733	-0.058687
H	-0.8209071333	 1.9072057766	-0.542715423	 0.131471
H	-0.0791938939	 3.0196384174	 1.5019239175	 0.103783
H	 0.8164697634	 1.8701832064	 3.3759791416	 0.10514
H	 0.3635311153	 0.3817305817	 2.5508127635	 0.135451
H	 3.0730710312	 1.8061579968	 2.4944489746	 0.087355
H	 2.7175671845	 0.1457656413	 3.0205390507	 0.117167
H	 3.4461557144	 2.1277869347	 0.1459507008	 0.095843
H	 2.7947411602	 0.8774785881	-0.9377161794	 0.125803
H	 1.3306604851	 3.0650926256	-0.5634494165	 0.102946
104.2776	115.2643	169.4279	297.3147	360.7574	377.9583	453.568	502.266	569.4181	612.8208	729.6222	747.8383	784.8475	814.5726	867.8362	925.5658	958.7726	988.3455	1032.8642	1046.8926	1086.3809	1089.2884	1110.5419	1144.1031	1156.3376	1225.8986	1255.3596	1272.2643	1323.2323	1352.7041	1366.4806	1371.5168	1386.8595	1417.0913	1439.8478	1482.2493	1491.9042	1502.2258	2351.5842	2955.2926	2967.1097	3047.3889	3079.8355	3088.5548	3098.6257	3152.4629	3158.751	3170.623
N#CC1C2CCOCC12	N#C[C@H]1[C@H]2CCOC[C@@H]12	
InChI=1S/C7H9NO/c8-3-6-5-1-2-9-4-7(5)6/h5-7H,1-2,4H2	InChI=1S/C7H9NO/c8-3-6-5-1-2-9-4-7(5)6/h5-7H,1-2,4H2/t5-,6+,7-/m1/s1
