15
gdb 27741	2.39537	1.4689	0.91621	4.0338	75.5	-0.2216	-0.0458	0.1758	1211.4339	0.112291	-454.004878	-453.996305	-453.995361	-454.038408	30.699	
C	-0.017612452	 1.4230295568	 0.0803684309	-0.490553
C	 0.0103316158	-0.0562626913	-0.0436272191	 0.399749
N	-0.0406478914	-0.7574957236	-1.144290156	-0.34861
C	 0.0177088071	-2.0681714427	-0.7216311968	 0.235081
N	 0.0371836885	-3.076122808	-1.6416044644	-0.590822
C	 0.1019866299	-2.1038782596	 0.659054463	 0.184478
O	 0.0958960767	-0.7778759481	 1.077363761	-0.194636
C	 0.1826328316	-3.1714592061	 1.6103527668	 0.049864
O	 0.2495276947	-3.0638430028	 2.8189949024	-0.304547
H	 0.8939728893	 1.7851562253	 0.5661540123	 0.159189
H	-0.0998814116	 1.8670585838	-0.9112682672	 0.159027
H	-0.8651776009	 1.7423680942	 0.6947824617	 0.158022
H	-0.296994316	-2.8165841587	-2.556872199	 0.269957
H	-0.228053174	-3.9986966068	-1.3380222063	 0.266324
H	 0.1791229922	-4.1738058524	 1.1187246606	 0.04748
78.6945	129.727	155.1049	206.5435	228.6123	278.7245	377.8691	397.6451	412.8341	477.8184	562.0836	643.7161	672.6772	694.2595	754.7619	862.4122	1005.6403	1007.5659	1027.4997	1065.679	1080.3137	1170.6399	1292.9616	1338.2079	1402.846	1430.2651	1472.3095	1474.0657	1479.6296	1592.0164	1620.7908	1672.1033	1769.8834	2833.1092	3050.6265	3107.6476	3164.9258	3592.1318	3705.7275
CC1=NC(N)=C(O1)C=O	Cc1nc(N)c(o1)C=O	
InChI=1S/C5H6N2O2/c1-3-7-5(6)4(2-8)9-3/h2H,6H2,1H3	InChI=1S/C5H6N2O2/c1-3-7-5(6)4(2-8)9-3/h2H,6H2,1H3
