19
gdb 103207	3.13798	1.47031	1.26677	1.9752	74.14	-0.2375	0.0603	0.2978	1043.8751	0.159529	-422.962112	-422.954191	-422.953247	-422.994227	31.962	
O	-0.1089701705	 1.4656312065	-0.0413108383	-0.436498
C	 0.0367620795	 0.0454667982	 0.0277837903	-0.169493
C	-1.3711865858	-0.5272745276	 0.1047365248	 0.467557
O	-2.1078003857	-0.063905939	-1.0155680767	-0.504132
C	-1.5860134098	-2.0258540432	 0.2410522155	-0.119768
C	-1.6100668587	-2.3750953978	 1.7398114162	-0.077816
C	-1.3889964231	-1.0867844012	 2.5320964142	-0.252217
C	-2.2158472823	-0.3939801791	 1.4179203988	-0.116838
C	-2.8326748374	-1.8109601226	 1.0646060834	-0.072287
H	 0.7303858011	 1.8495173986	-0.3085750567	 0.294005
H	 0.5199726422	-0.34690545	-0.8791366699	 0.094674
H	 0.6429903198	-0.2490436156	 0.893507752	 0.094851
H	-1.893514813	 0.8755395547	-1.0853259133	 0.281721
H	-1.4133967426	-2.7798490684	-0.5166247601	 0.084709
H	-1.4431642322	-3.3957147962	 2.0612384841	 0.08372
H	-1.9401381485	-1.1143827948	 3.476896763	 0.098954
H	-0.3701254717	-0.7317779259	 2.7236417806	 0.086505
H	-2.7662793821	 0.5264229588	 1.5985029728	 0.071148
H	-3.8398598092	-2.1803512753	 0.9486408292	 0.091206
96.7727	166.1379	242.8525	256.275	318.4734	394.9801	423.5433	473.0845	475.8138	542.1057	680.4536	745.8545	790.413	801.158	813.9924	861.525	916.6175	933.3392	953.5944	996.2578	1002.6782	1028.8193	1034.6304	1042.4286	1053.614	1097.2282	1115.9571	1151.0087	1154.5816	1176.8312	1184.2254	1211.8816	1248.1854	1268.8303	1273.5198	1308.4271	1364.9841	1418.0029	1454.1535	1495.599	1517.7837	2995.4338	3031.2126	3047.0126	3086.6181	3145.2363	3188.1997	3197.1433	3236.5084	3768.3328	3842.8842
OCC1(O)C2C3CC1C23	OC[C@@]1(O)[C@H]2[C@H]3C[C@@H]1[C@@H]23	
InChI=1S/C7H10O2/c8-2-7(9)4-1-3-5(4)6(3)7/h3-6,8-9H,1-2H2	InChI=1S/C7H10O2/c8-2-7(9)4-1-3-5(4)6(3)7/h3-6,8-9H,1-2H2/t3-,4+,5-,6-,7-/m0/s1
