17
gdb 6266	3.00878	1.3905	1.17965	2.8791	71.97	-0.2236	-0.0585	0.1652	1088.5735	0.138698	-363.819828	-363.81047	-363.809525	-363.854562	32.673	
C	 0.5308463649	 0.4572561194	-0.7644016329	-0.324051
N	-0.4047527691	-0.286016336	 0.067656339	-0.052351
C	 0.2056733373	-0.7235112347	 1.3130774874	-0.31502
C	-1.643007972	 0.4366850283	 0.2775371664	-0.246702
C	-2.5138238358	 0.5201042688	-0.9759334278	 0.22134
O	-3.1517369355	 1.5118702489	-1.2525328188	-0.27801
C	-2.5791587385	-0.6771067471	-1.7984159179	 0.321373
C	-2.6803169933	-1.6513764465	-2.4980557828	-0.465449
H	 1.4090603075	-0.1613255553	-0.9714115977	 0.122559
H	 0.0659513926	 0.7100021156	-1.7219679308	 0.130499
H	 0.8746435967	 1.3973403578	-0.2929394704	 0.098059
H	 0.5230732149	 0.113023134	 1.9641904591	 0.096348
H	-0.499115288	-1.3434988198	 1.8756053005	 0.120774
H	 1.0899007686	-1.3296200455	 1.0926764452	 0.121786
H	-2.2391529085	-0.1044497356	 1.0251069036	 0.127735
H	-1.5128987027	 1.4691818299	 0.6489532358	 0.105587
H	-2.766539119	-2.5124793322	-3.1151978578	 0.215523
35.7545	77.7092	123.9155	194.8399	243.9456	249.8374	260.6675	348.9026	375.7545	396.3082	477.6015	600.069	640.148	678.252	715.0456	751.6221	877.5359	987.2707	1069.4229	1072.9274	1119.8697	1151.6019	1194.6497	1206.6002	1300.9408	1312.8403	1371.3718	1444.5765	1458.5434	1478.8963	1485.0906	1496.0389	1499.3471	1512.5012	1770.5336	2210.5726	2926.607	2934.0759	2950.0582	3036.4847	3061.2142	3068.1982	3105.8939	3111.7038	3495.8361
CN(C)CC(=O)C#C	CN(C)CC(=O)C#C	
InChI=1S/C6H9NO/c1-4-6(8)5-7(2)3/h1H,5H2,2-3H3	InChI=1S/C6H9NO/c1-4-6(8)5-7(2)3/h1H,5H2,2-3H3
