18
gdb 81180	3.06727	1.1318	0.98482	2.5497	73.91	-0.2571	0.0026	0.2598	1239.8226	0.14697	-439.029501	-439.021056	-439.020112	-439.06343	31.068	
C	-0.25179082	 1.5704127976	-0.4053278993	-0.449907
C	-0.0380034761	 0.1001344803	-0.1146699616	 0.041715
N	 1.2391169079	-0.5989252137	-0.6562782875	-0.150349
C	 1.9880955687	 0.0379624348	 0.5253800641	-0.253985
C	 0.6605572959	-0.4442376969	 1.1492563906	 0.349716
C	 0.8902143679	-1.724949118	 0.3332408281	-0.215403
O	 0.1702983058	-0.3600692518	 2.4689137812	-0.235947
C	 0.9474046043	 0.2008161688	 3.4201824064	 0.145014
O	 0.5985493602	 0.3055404854	 4.5566350407	-0.27103
H	 0.5658334395	 2.2168422756	-0.0798900384	 0.123886
H	-0.39031446	 1.7175393651	-1.4809914945	 0.139953
H	-1.1632216099	 1.9084968684	 0.0981709013	 0.137167
H	-0.9262420335	-0.4673283084	-0.4096015928	 0.087017
H	 2.9011285108	-0.4997316143	 0.7900400261	 0.116965
H	 2.1783491077	 1.1045130816	 0.4154383143	 0.118393
H	 0.0180072243	-2.312429764	 0.0402187223	 0.116092
H	 1.744374717	-2.3543219288	 0.5902559462	 0.1118
H	 1.9223220296	 0.5444793482	 3.0295927329	 0.088901
40.4884	130.965	152.6656	183.4322	211.832	347.048	392.074	434.8808	461.4472	583.7956	613.1591	739.3155	758.2032	811.3272	848.4317	910.9033	975.4569	991.6008	1020.5724	1042.1653	1052.4525	1102.0516	1117.463	1151.6652	1168.3407	1176.2799	1190.9677	1207.128	1209.2849	1234.9051	1286.452	1411.0455	1424.0358	1435.087	1491.4185	1494.6097	1519.5975	1554.7252	1865.3798	2976.9947	3046.0646	3059.061	3070.5676	3081.6655	3109.7042	3126.3451	3143.7448	3155.5298
CC1N2CC1(C2)OC=O	C[C@H]1N2C[C@@]1(C2)OC=O	
InChI=1S/C6H9NO2/c1-5-6(9-4-8)2-7(5)3-6/h4-5H,2-3H2,1H3	InChI=1S/C6H9NO2/c1-5-6(9-4-8)2-7(5)3-6/h4-5H,2-3H2,1H3/t5-/m1/s1
