22
gdb 91912	2.35909	1.47953	1.02163	0.3957	81.57	-0.2172	0.0721	0.2893	1226.3034	0.19554	-404.329998	-404.32122	-404.320276	-404.363009	34.668	
C	-0.0844374455	 1.5521643797	-0.0117929419	-0.39823
C	 0.0523896724	 0.0246529567	-0.001443977	-0.005391
C	 0.6883408086	-0.5195120762	-1.2886121948	-0.211365
C	 0.9165115172	-2.0191122631	-1.1600139954	 0.112928
O	 1.3832422033	-2.5064931123	-2.4112237883	-0.435823
C	 1.9341703068	-2.3129811378	-0.0485659097	-0.184353
N	 1.6725669203	-1.6361897442	 1.2338921021	-0.113267
C	 2.2563196387	-0.3045537654	 1.4061804727	-0.24773
C	 0.7875583828	-0.4575189034	 1.2440606145	 0.010162
H	 0.8967306292	 2.0333695605	-0.0824283594	 0.116754
H	-0.6863193281	 1.8852048815	-0.8640242441	 0.112755
H	-0.5682731679	 1.91347637	 0.9017483872	 0.113568
H	-0.9608789326	-0.3990795273	 0.0553519585	 0.077741
H	 0.0342563874	-0.3195316086	-2.1436674165	 0.104759
H	 1.644789744	-0.02499224	-1.5020886446	 0.100192
H	-0.0455643118	-2.494117825	-0.9026190107	 0.066027
H	 1.5296234922	-3.4545015941	-2.3270043038	 0.282105
H	 1.958428325	-3.3939241592	 0.1458814876	 0.090721
H	 2.9247390074	-2.0359772443	-0.4308174544	 0.106201
H	 2.6884042947	-0.1000408441	 2.3830086356	 0.109137
H	 2.8194042225	 0.1125709059	 0.5725236725	 0.106524
H	 0.1829160533	-0.4002445294	 2.1489481099	 0.086584
95.2527	165.3447	214.4661	234.4083	267.752	286.5718	371.9315	385.7474	419.6151	431.7295	474.0222	548.4156	608.2573	738.7711	814.6753	882.3862	894.2331	909.6497	935.2605	990.605	1018.6913	1026.6801	1059.818	1085.7051	1089.8597	1117.5447	1122.3776	1138.5315	1169.0966	1188.4112	1213.9989	1251.8166	1279.563	1315.0206	1324.4899	1337.6406	1365.165	1371.4513	1390.2877	1405.3356	1422.6605	1447.1626	1493.9969	1496.196	1500.8432	1503.0146	1523.1252	2952.1443	2994.6705	3003.1729	3028.1649	3032.566	3047.6309	3078.2639	3088.4575	3097.9755	3099.2703	3103.1608	3168.834	3810.2458
CC1CC(O)CN2CC12	C[C@H]1C[C@@H](O)CN2C[C@@H]12	
InChI=1S/C7H13NO/c1-5-2-6(9)3-8-4-7(5)8/h5-7,9H,2-4H2,1H3	InChI=1S/C7H13NO/c1-5-2-6(9)3-8-4-7(5)8/h5-7,9H,2-4H2,1H3/t5-,6+,7-,8?/m0/s1
