22
gdb 33162	2.9861	1.05731	0.84077	2.1484	89.92	-0.1902	0.0486	0.2388	1455.7261	0.194626	-367.26161	-367.251916	-367.250972	-367.296644	35.82	
C	 0.0009756113	 1.5482598147	 0.083436967	-0.379835
C	 0.0300855106	 0.0185529868	 0.048808308	-0.169277
C	 0.6537514608	-0.5218196851	-1.245999085	-0.164348
N	 0.7100838722	-1.9715166108	-1.3032027745	-0.023221
C	 1.7411776061	-2.7295362713	-0.794558692	-0.110869
C	 1.4218978628	-4.0564324667	-0.9462012731	-0.166555
C	 0.1447801657	-4.1074393495	-1.5679793808	-0.231883
C	-0.278830114	-2.8122076629	-1.7773292362	 0.289871
C	-1.5368075425	-2.3082260435	-2.4062680527	-0.507312
H	 1.0105399785	 1.9678713409	 0.009590326	 0.117273
H	-0.5869334417	 1.9550043329	-0.7470360977	 0.117124
H	-0.4427005145	 1.913779595	 1.0139327035	 0.119992
H	 0.6000528371	-0.3705019615	 0.9004795151	 0.110009
H	-0.9856837493	-0.3808159706	 0.1499418315	 0.110015
H	 0.0908897823	-0.1583753265	-2.1120011188	 0.11516
H	 1.6753586188	-0.140344479	-1.3527046774	 0.114212
H	 2.6125194326	-2.2508795323	-0.3751723408	 0.105159
H	 2.0381819015	-4.8935535617	-0.6560975243	 0.088281
H	-0.4064355828	-4.9933421197	-1.8468177324	 0.084178
H	-2.1452955523	-1.7028016541	-1.7223007562	 0.123699
H	-1.3470654566	-1.6955349369	-3.2972114649	 0.125073
H	-2.1473947564	-3.1580061379	-2.7203076345	 0.133254
65.0172	85.4362	95.0036	153.6105	225.5961	234.939	275.2798	297.1565	369.8738	424.0003	625.1575	637.6874	659.0421	706.8142	748.0604	758.9301	770.2975	829.0735	879.666	896.3585	906.8818	991.7657	1038.9921	1044.4114	1062.1818	1093.2023	1121.4534	1130.5175	1199.887	1247.6562	1275.7024	1318.6749	1329.1304	1333.4773	1403.4163	1413.6578	1418.5674	1422.4584	1458.3828	1480.203	1483.9907	1490.2338	1494.3102	1499.068	1510.8346	1532.0081	1598.9231	3010.8676	3030.2375	3034.4972	3045.4388	3051.6547	3064.1764	3086.0465	3102.0215	3108.3333	3119.014	3234.065	3244.9395	3262.6296
CCCN1C=CC=C1C	CCCn1cccc1C	
InChI=1S/C8H13N/c1-3-6-9-7-4-5-8(9)2/h4-5,7H,3,6H2,1-2H3	InChI=1S/C8H13N/c1-3-6-9-7-4-5-8(9)2/h4-5,7H,3,6H2,1-2H3
