19
gdb 53162	5.20674	0.86943	0.86554	0.4742	90.74	-0.2232	0.0066	0.2298	1430.3957	0.159698	-348.697251	-348.688874	-348.68793	-348.731721	31.642	
C	 0.0848711099	 1.5156173905	-0.0717339461	-0.50198
C	 0.0559255548	 0.0612170437	-0.0142121349	 0.14226
C	 0.0317325497	-1.1434558073	 0.033586552	-0.000336
C	 0.025947302	-2.5924334571	 0.0704798743	-0.15461
C	-0.0306553248	-3.2854803576	 1.501291867	-0.065962
C	-1.5619297791	-2.9644917198	 1.4812033347	-0.215953
C	-1.3854538115	-3.319125977	-0.0325113059	-0.065962
C	-0.9297741127	-4.7781505978	 0.0706557616	-0.099324
C	-0.0448855659	-4.7561750549	 1.072461403	-0.099323
H	 0.8640090048	 1.8722181004	-0.7547315012	 0.147379
H	-0.8715024375	 1.9203499764	-0.4217067169	 0.146933
H	 0.2857197258	 1.9501957583	 0.9140348321	 0.14692
H	 0.7901216033	-3.0026476299	-0.5955100048	 0.089233
H	 0.627247115	-2.9701298587	 2.3098378363	 0.065907
H	-2.2134618654	-3.612760066	 2.0709178476	 0.09136
H	-1.7848531504	-1.9091722416	 1.6549602765	 0.109252
H	-2.1130756586	-3.0381830613	-0.7925545613	 0.065906
H	-1.2584400223	-5.5964906929	-0.5538447208	 0.099151
H	 0.551821853	-5.5515341974	 1.4956004769	 0.099151
19.925	94.1951	99.1174	274.5793	285.1299	378.9819	445.1536	484.3954	494.6248	552.9018	695.0934	716.7777	819.5949	840.7407	862.871	887.3937	904.5	911.601	918.7466	948.4417	990.7355	1044.9682	1052.5501	1054.3651	1076.7722	1108.5618	1139.0465	1178.0933	1190.8066	1220.2317	1226.5592	1249.3042	1252.3592	1322.6148	1340.0309	1414.6013	1478.3326	1478.5266	1492.8815	1621.0975	2357.9334	3023.8735	3063.6501	3066.3397	3083.2626	3084.4282	3126.526	3128.4339	3131.6159	3219.685	3246.5391
CC#CC1C2CC1C=C2	CC#C[C@H]1[C@H]2C[C@@H]1C=C2	
InChI=1S/C9H10/c1-2-3-9-7-4-5-8(9)6-7/h4-5,7-9H,6H2,1H3	InChI=1S/C9H10/c1-2-3-9-7-4-5-8(9)6-7/h4-5,7-9H,6H2,1H3/t7-,8+,9+
