22
gdb 56253	5.44501	0.56729	0.53414	3.1105	84.39	-0.2319	-0.0082	0.2236	2093.491	0.191543	-404.340771	-404.330232	-404.329288	-404.378309	36.862	
C	 0.0374508186	 1.4610785469	-0.0870286866	-0.472692
C	 0.0917223982	-0.0493750429	 0.07086564	 0.377998
O	 1.1200161261	-0.6254593734	 0.341511905	-0.288479
C	-1.2244369867	-0.7929890523	-0.1293756375	-0.303332
C	-1.081781884	-2.3138021126	-0.11957161	-0.170905
C	-2.428416997	-3.0290873871	-0.2206605119	-0.148881
N	-2.2459761312	-4.4749231506	-0.2751133605	-0.057611
C	-2.1900144341	-5.1671412296	 1.0081286458	-0.217811
C	-3.3858142192	-5.2883389864	 0.1290095657	-0.221264
H	 0.995578803	 1.8987210424	 0.1956321489	 0.142503
H	-0.1838811177	 1.717993128	-1.1296458562	 0.140417
H	-0.7650906434	 1.8907338614	 0.5222067879	 0.133159
H	-1.9096163531	-0.4573751411	 0.664134481	 0.118898
H	-1.6835399624	-0.4398714654	-1.0635029431	 0.115118
H	-0.4422950388	-2.6336344901	-0.9483131952	 0.119524
H	-0.5645810632	-2.6209030383	 0.7952483595	 0.116645
H	-3.0764724546	-2.728261941	 0.6258471428	 0.071694
H	-2.948667159	-2.7258940302	-1.138692969	 0.098476
H	-1.4700710813	-5.9770322389	 1.0811833215	 0.118009
H	-2.3002170684	-4.5725834319	 1.9144312973	 0.106772
H	-4.2911325274	-4.7753080746	 0.4513904542	 0.105781
H	-3.5566771044	-6.1887035522	-0.4543352197	 0.115982
31.8661	52.957	93.8781	100.3213	122.4806	131.4483	231.2783	272.1043	381.2222	395.0908	474.99	485.7074	600.2222	732.3937	763.2032	817.7331	825.202	857.1616	902.9305	941.6482	970.0035	1018.7086	1033.0142	1067.279	1089.2799	1113.1817	1117.0464	1130.0212	1166.3743	1171.5338	1181.4627	1229.4948	1283.8276	1304.2624	1314.6955	1326.247	1374.8851	1385.483	1409.2136	1451.203	1465.3161	1477.719	1484.2405	1492.4099	1503.4521	1523.3408	1813.4243	2908.8104	3002.8225	3031.99	3033.4834	3036.7402	3057.1507	3090.1011	3094.9614	3096.328	3099.0889	3151.6958	3174.6233	3188.9231
CC(=O)CCCN1CC1	CC(=O)CCCN1CC1	
InChI=1S/C7H13NO/c1-7(9)3-2-4-8-5-6-8/h2-6H2,1H3	InChI=1S/C7H13NO/c1-7(9)3-2-4-8-5-6-8/h2-6H2,1H3
