17
gdb 106992	3.05764	1.27384	1.02773	2.4201	69.06	-0.2369	-0.0343	0.2026	1182.9599	0.132907	-458.932576	-458.923316	-458.922372	-458.967097	32.856	
C	 0.0320052475	 1.5131160709	 0.2195397895	-0.386282
C	 0.047855948	 0.0043470674	-0.0688683494	-0.321679
C	-1.3321705257	-0.5485718025	-0.2184768197	 0.306004
O	-2.1569548289	-0.7421794886	 0.9633207061	-0.272224
C	-1.9627204623	-1.8607068335	 0.1037199136	-0.081108
C	-2.9964192755	-1.7502432729	-1.0170126822	 0.002873
O	-4.3338263892	-1.906113757	-0.6434507078	-0.423929
C	-2.3954703297	-0.3263362244	-1.2934122906	 0.342024
O	-2.6417497916	 0.5316600945	-2.0891947821	-0.310163
H	 1.050936537	 1.899430346	 0.3091875434	 0.117529
H	-0.4720540973	 2.0560505327	-0.584971685	 0.144033
H	-0.4972739386	 1.7214077698	 1.1536568441	 0.136802
H	 0.6046817853	-0.1952288494	-0.9925166502	 0.115279
H	 0.5559143476	-0.5359716328	 0.7375146448	 0.118323
H	-1.4939856015	-2.7458321929	 0.516167728	 0.120445
H	-2.7167081062	-2.3952647039	-1.8698441476	 0.091974
H	-4.8764649989	-1.4283058735	-1.280503915	 0.300097
64.0205	94.8719	125.755	171.9405	191.6159	245.6469	249.1791	315.9039	379.451	498.9517	588.9238	639.2993	692.5154	749.8108	806.8001	822.3506	876.9256	945.6329	960.8677	976.7666	1013.2772	1073.1041	1101.2541	1155.7879	1170.1372	1216.2922	1258.795	1300.7033	1315.7368	1344.8926	1398.8477	1410.8656	1449.6239	1471.6557	1498.3956	1510.8847	1893.8142	2947.5773	3033.5507	3046.5729	3074.485	3121.1889	3124.9354	3201.461	3808.2495
CCC12OC1C(O)C2=O	CC[C@]12O[C@H]1[C@@H](O)C2=O	
InChI=1S/C6H8O3/c1-2-6-4(8)3(7)5(6)9-6/h3,5,7H,2H2,1H3	InChI=1S/C6H8O3/c1-2-6-4(8)3(7)5(6)9-6/h3,5,7H,2H2,1H3/t3-,5-,6+/m0/s1
