19
gdb 55155	3.54561	1.22138	1.01235	4.7735	76.48	-0.2295	0.038	0.2675	1198.8384	0.160756	-419.223832	-419.21543	-419.214486	-419.25737	31.373	
C	-0.0174911051	 1.4951978546	 0.1503706031	-0.498207
C	 0.0335633022	-0.0232314899	 0.0741487755	 0.396036
O	 1.0786825948	-0.6458713053	 0.1760436695	-0.376969
N	-1.158372838	-0.6618200766	-0.1172444225	-0.085291
C	-2.4756972262	-0.0356649677	-0.2399725536	-0.168431
C	-3.3409012487	-1.132245608	-0.826743781	-0.052015
N	-2.8030846961	-1.6569704544	-2.0970930458	-0.327739
C	-2.5613141795	-2.3923946546	-0.8385483553	-0.0575
C	-1.1925949885	-2.1215272747	-0.2550305456	-0.150453
H	 0.9849544104	 1.8536253283	 0.3816290055	 0.144906
H	-0.3400050077	 1.9263292793	-0.8036018372	 0.140099
H	-0.7145217279	 1.8416801985	 0.9201254789	 0.130727
H	-2.877657095	 0.2772089373	 0.7352945089	 0.105063
H	-2.4350549347	 0.8438217558	-0.8903359967	 0.12264
H	-4.412253098	-1.1063594167	-0.6617774994	 0.096452
H	-3.5517177164	-2.1138876395	-2.6125129212	 0.234592
H	-3.0241980572	-3.360742309	-0.6851652349	 0.096786
H	-0.3691284999	-2.4474988042	-0.8951023442	 0.139763
H	-1.0796379186	-2.620199713	 0.717162146	 0.109543
53.5244	118.3704	146.0472	221.0599	229.2905	333.5721	351.1582	443.4275	536.384	597.8796	628.8162	671.6828	809.1586	817.2452	860.4856	889.1326	950.8033	960.6013	976.3213	1020.8029	1048.753	1056.1978	1092.3032	1105.5436	1125.2439	1167.7285	1206.4353	1229.9163	1251.1408	1254.745	1333.1085	1371.6079	1379.0792	1388.6341	1426.0917	1443.9805	1471.6809	1483.95	1504.0523	1513.5698	1759.5523	2990.5109	3017.8186	3040.1923	3068.9219	3097.9823	3101.7748	3161.2487	3172.2845	3182.4632	3501.5195
CC(=O)N1CC2NC2C1	CC(=O)N1C[C@H]2N[C@H]2C1	
InChI=1S/C6H10N2O/c1-4(9)8-2-5-6(3-8)7-5/h5-7H,2-3H2,1H3	InChI=1S/C6H10N2O/c1-4(9)8-2-5-6(3-8)7-5/h5-7H,2-3H2,1H3/t5-,6+
