17
gdb 18914	4.00915	2.32136	2.04919	1.8908	70.04	-0.2183	0.0819	0.3002	742.7656	0.144168	-326.675056	-326.668942	-326.667998	-326.704836	25.232	
C	-0.056638684	 1.5318440114	 0.0289320073	-0.518646
C	 0.035045343	 0.0375991614	 0.0104190674	 0.329852
C	-0.0756189951	-0.8639546569	-1.2167357757	-0.127671
C	 0.9652451214	-1.9645368403	-1.1885823899	-0.245044
C	 1.0379844607	-2.1453208359	 0.3111847652	-0.045113
C	 0.7844659933	-0.8626601887	 1.0143320184	-0.108264
N	-0.2892087461	-1.9085940492	 0.9659668657	-0.158314
C	-1.0108956078	-1.0448028496	-0.0464847402	-0.071058
H	 0.9076286003	 1.996168811	-0.2109607011	 0.12051
H	-0.7863694423	 1.8881370285	-0.7053406721	 0.121246
H	-0.368605648	 1.9015999072	 1.0123768286	 0.123857
H	-0.4556271234	-0.4427542889	-2.1394964917	 0.087614
H	 0.6309239813	-2.8724221547	-1.7022057063	 0.108426
H	 1.9290407751	-1.6580503671	-1.6097699628	 0.105486
H	 1.6321740064	-2.9285813673	 0.7687095117	 0.094064
H	 1.2323232293	-0.5490506044	 1.9510404955	 0.090222
H	-2.092575264	-1.0267035562	-0.0728355601	 0.092832
200.7844	222.3571	281.0876	400.1798	552.1093	583.889	699.2593	732.3259	753.5479	799.3021	819.7969	859.7128	870.7255	912.2997	953.1913	958.1314	988.8208	989.7856	1022.0443	1043.0661	1051.4864	1080.5058	1115.8903	1160.2198	1180.1152	1207.4574	1218.7373	1246.7372	1292.2926	1306.9741	1369.5762	1416.637	1453.2855	1485.8752	1489.0676	1500.7256	3020.8031	3042.7099	3077.9717	3085.4622	3096.7867	3166.2973	3182.7861	3190.9586	3200.7867
CC12C3CC4C1N4C23	C[C@@]12[C@H]3C[C@H]4[C@@H]1N4[C@@H]23	
InChI=1S/C7H9N/c1-7-3-2-4-6(7)8(4)5(3)7/h3-6H,2H2,1H3	InChI=1S/C7H9N/c1-7-3-2-4-6(7)8(4)5(3)7/h3-6H,2H2,1H3/t3-,4-,5+,6-,7-,8?/m0/s1
