17
gdb 89872	2.92672	1.16895	0.97724	2.0211	75.48	-0.2568	0.0185	0.2753	1226.1423	0.133108	-421.7521	-421.743355	-421.742411	-421.785863	33.081	
O	-0.5652286142	 1.1984049096	 0.8033751844	-0.43377
C	-0.0369986471	 0.0917993166	 0.1010335704	 0.122505
C	 0.5489057227	-1.0255342779	 1.0248516202	-0.353859
C	-0.7842732252	-1.756841518	 0.8747445734	 0.471319
C	-1.2029863391	-0.8561315068	-0.2893376113	-0.321164
O	-0.9611429493	-3.1533420433	 0.9310826904	-0.278935
C	-1.6284875674	-2.3476285751	 1.9308356205	-0.271867
C	-1.1678432555	-2.4634709144	 3.2863834752	 0.354694
C	-0.7957008475	-2.5383809363	 4.4272549617	-0.433909
H	 0.1673978989	 1.6684793324	 1.2146181016	 0.284686
H	 0.6130079737	 0.4121735487	-0.7221558475	 0.0704
H	 1.3698810545	-1.5782331985	 0.5587992555	 0.11472
H	 0.8371701997	-0.7227531082	 2.0346387391	 0.114699
H	-2.19715571	-0.4064772018	-0.260023672	 0.121948
H	-1.0457676204	-1.3462911675	-1.2539188191	 0.117174
H	-2.7094750014	-2.2979949904	 1.8046416916	 0.118378
H	-0.4682182226	-2.615102499	 5.4346704159	 0.20298
48.8317	122.0915	134.2915	285.27	290.6202	328.9108	355.3629	388.26	414.293	516.5263	555.3505	596.2919	621.7722	669.4312	797.9655	821.8081	835.9453	862.202	927.0381	953.1529	990.9044	1029.82	1054.4165	1073.2615	1143.7626	1154.5213	1199.6996	1219.0407	1235.9138	1266.6241	1322.4644	1339.1719	1413.9205	1447.728	1455.2413	1485.6884	2238.5505	3021.9334	3058.2603	3070.0435	3116.4244	3117.4908	3130.9279	3502.712	3813.7962
OC1CC2(C1)OC2C#C	O[C@H]1C[C@@]2(C1)O[C@H]2C#C	
InChI=1S/C7H8O2/c1-2-6-7(9-6)3-5(8)4-7/h1,5-6,8H,3-4H2	InChI=1S/C7H8O2/c1-2-6-7(9-6)3-5(8)4-7/h1,5-6,8H,3-4H2/t5-,6-,7-/m0/s1
