18
gdb 87052	2.40718	1.43873	1.02072	2.3665	78.5	-0.2454	0.0174	0.2628	1199.4843	0.14542	-401.866231	-401.857067	-401.856123	-401.90011	34.089	
C	-0.0266403355	 1.4829524398	-0.1096613302	-0.433018
C	 0.0247851346	-0.0094789139	 0.0690807028	 0.049771
O	 1.3023774257	-0.6420132462	-0.0686259524	-0.289021
C	 0.6685546879	-0.6820403333	 1.226019911	 0.12524
C	 1.3006290506	 0.1044425754	 2.260543188	 0.300505
C	 1.8055749894	 0.7263706336	 3.156663118	-0.403031
C	 0.2170406729	-2.0512958209	 1.6679237997	-0.074948
C	 0.0433285699	-3.1359922786	 0.6749082471	-0.245942
N	 1.1698305016	-3.1717775424	 1.6264707909	-0.318331
H	 0.7713297921	 1.9726381241	 0.451434803	 0.143516
H	 0.0787611857	 1.7383968183	-1.1689731427	 0.132662
H	-0.990718165	 1.870149412	 0.236311144	 0.127933
H	-0.7851363568	-0.5700381496	-0.4006193394	 0.093911
H	 2.2613786332	 1.2770089579	 3.9424496443	 0.200801
H	-0.4050235333	-2.0371247503	 2.5597031827	 0.100981
H	-0.7186531779	-3.893107753	 0.8350553917	 0.116766
H	 0.2636094459	-2.9048875993	-0.362305577	 0.128177
H	 2.011757719	-2.8658649938	 1.1412511586	 0.244029
78.1102	137.612	155.176	167.5111	188.4746	238.1822	307.9217	376.4577	467.141	489.3753	547.2549	610.7854	631.427	667.2688	673.5344	797.7294	856.4039	866.2237	915.7997	960.6853	968.5083	1005.3257	1055.1789	1101.5727	1133.4296	1141.2677	1162.7189	1197.729	1211.3996	1271.1306	1301.9196	1325.8284	1406.2742	1414.3487	1442.9574	1485.3055	1494.3013	1499.5382	2237.4681	3042.4883	3097.663	3105.9947	3118.4213	3138.9472	3142.654	3209.9084	3486.1368	3500.3862
CC1OC1(C#C)C1CN1	C[C@H]1O[C@]1(C#C)[C@H]1CN1	
InChI=1S/C7H9NO/c1-3-7(5(2)9-7)6-4-8-6/h1,5-6,8H,4H2,2H3	InChI=1S/C7H9NO/c1-3-7(5(2)9-7)6-4-8-6/h1,5-6,8H,4H2,2H3/t5-,6-,7+/m1/s1
