20
gdb 14875	3.85697	1.21743	1.01128	2.7902	70.73	-0.2451	0.0643	0.3094	1203.8065	0.176721	-386.119425	-386.110462	-386.109518	-386.153612	32.16	
C	-0.1225265949	 1.6772440166	-0.192774342	-0.384563
C	-0.0295082387	 0.2249060982	 0.2892236027	-0.202417
C	-1.3451348955	-0.5269155738	 0.1142996065	-0.034087
C	-1.7840296542	-0.9366105841	-1.3102988707	-0.082575
O	-1.9987684489	-2.3059824502	-0.901935671	-0.306619
C	-1.4424148133	-2.0469488392	 0.4166664726	 0.091729
C	-0.177431017	-2.8742808458	 0.5952727837	-0.066709
O	-0.4820729496	-4.2451644602	 0.4220325127	-0.424894
H	 0.829329265	 2.2001552962	-0.0613322533	 0.117708
H	-0.3839923673	 1.7277723267	-1.2556011484	 0.119963
H	-0.8880386619	 2.230285794	 0.3625541555	 0.117822
H	 0.7721233699	-0.2870054889	-0.2560550281	 0.103318
H	 0.2591777814	 0.210084224	 1.3479183634	 0.102347
H	-2.1408860427	 0.0179634814	 0.6318157933	 0.081866
H	-2.7010692357	-0.4819503681	-1.7006578248	 0.106228
H	-0.9962005614	-0.855320389	-2.0724157217	 0.097539
H	-2.1638575153	-2.3267564962	 1.1943795246	 0.082837
H	 0.5965616635	-2.547339169	-0.1163097924	 0.08242
H	 0.2246329655	-2.7560625951	 1.6076439883	 0.105942
H	-0.9656254489	-4.2974424475	-0.4124286207	 0.292145
59.7808	95.0447	119.3562	138.0836	217.7031	252.2595	307.2435	393.1912	467.0094	479.6251	530.127	734.8496	794.7618	825.1285	886.1079	932.313	966.7742	977.2829	1019.8838	1044.044	1046.5674	1080.2012	1137.6166	1142.6656	1160.7925	1189.8337	1214.6175	1261.152	1280.0332	1303.8308	1330.0931	1344.6123	1364.2509	1398.6979	1405.981	1414.4223	1438.7217	1486.0125	1500.4145	1500.7848	1506.8116	1525.3966	2981.9928	3001.1164	3025.4334	3027.6795	3031.6857	3047.2623	3058.6422	3068.1391	3074.4028	3098.8654	3107.4028	3774.8892
CCC1COC1CO	CC[C@H]1CO[C@H]1CO	
InChI=1S/C6H12O2/c1-2-5-4-8-6(5)3-7/h5-7H,2-4H2,1H3	InChI=1S/C6H12O2/c1-2-5-4-8-6(5)3-7/h5-7H,2-4H2,1H3/t5-,6-/m0/s1
