15
gdb 80347	2.25876	1.55987	1.3766	5.6669	65.5	-0.2409	-0.0093	0.2315	1002.3388	0.111586	-453.887048	-453.878589	-453.877645	-453.919946	31.411	
N	 0.1713087631	 1.4813881876	-0.018228597	-0.60798
C	 0.0143512981	 0.0819789948	-0.0430386488	 0.194239
C	-0.3029878961	-0.7574985263	-1.2687333722	 0.095761
O	 0.5039587237	-1.7555228969	-1.7891761415	-0.422696
C	-1.1568637597	-0.9384441053	-0.0614573107	-0.037871
O	-0.4714358193	-1.8118381796	 0.8522706825	-0.30201
C	 0.5916491679	-0.8386499011	 1.0421417871	-0.046428
C	 1.9378582884	-1.3917686022	 0.8822360859	 0.281482
N	 3.0072059889	-1.8192212714	 0.7857040044	-0.318799
H	 0.1788290695	 1.9013339087	-0.9374176373	 0.24902
H	-0.4903652397	 1.965585438	 0.5758595137	 0.244023
H	-0.7610998857	-0.1609465786	-2.0555319434	 0.113898
H	 0.5127805137	-2.485392992	-1.1561445616	 0.305195
H	-2.2353021572	-0.8727494303	 0.0237883608	 0.116937
H	 0.5078104043	-0.3907950553	 2.0391418281	 0.135228
110.9066	132.7632	167.0728	216.7316	268.6154	295.193	340.3432	389.8029	465.7968	527.1323	571.6017	633.9282	662.2049	715.8276	793.8574	832.846	916.4394	942.2122	968.4423	1008.9016	1026.2139	1086.2491	1093.5113	1191.0567	1218.7706	1255.1243	1293.7373	1323.2293	1345.7284	1387.0768	1477.9582	1655.5036	2355.0763	3047.6692	3139.3041	3186.8489	3534.928	3627.5652	3774.455
NC12C(O)C1OC2C#N	N[C@]12[C@@H](O)[C@H]1O[C@H]2C#N	
InChI=1S/C5H6N2O2/c6-1-2-5(7)3(8)4(5)9-2/h2-4,8H,7H2	InChI=1S/C5H6N2O2/c6-1-2-5(7)3(8)4(5)9-2/h2-4,8H,7H2/t2-,3-,4+,5+/m0/s1
