18
gdb 54108	2.89229	1.57075	1.20528	4.8787	71.72	-0.2487	0.01	0.2587	1042.902	0.149446	-439.059303	-439.051644	-439.0507	-439.091531	30.581	
N	-0.0477781187	 1.0731757443	-0.0186399383	-0.618335
H	-0.712964773	 0.867598647	-0.7583043385	 0.24739
H	 0.5544425177	 0.2676453483	 0.0895269799	 0.245364
H	 0.2985318459	 2.9238476482	-0.1217343434	 0.30489
C	-0.7250270358	 1.4436272358	 1.228233687	 0.197897
C	-1.7428058062	 0.4902930796	 1.9530487062	-0.077596
C	-0.548581727	-0.4680444349	 2.2401620129	-0.249303
C	-0.0193770773	 0.9685513456	 2.5514455569	-0.084269
C	-1.3674576142	 1.1947975584	 3.2941649876	-0.225512
C	-1.1037816615	 2.9368704051	 1.0903460726	 0.381797
O	-2.0369794474	 3.471446979	 1.6308048327	-0.340095
O	-0.2742407828	 3.6121225448	 0.2801197818	-0.366829
H	-2.7403017563	 0.2258275688	 1.6006764532	 0.081627
H	-0.665101491	-1.1188192881	 3.1093929929	 0.103628
H	-0.1177328069	-1.0252867911	 1.4064695746	 0.079165
H	 0.9818476162	 1.2550854253	 2.8781230719	 0.083024
H	-1.7105664172	 2.2139750021	 3.4357134206	 0.144821
H	-1.5008611847	 0.5830187618	 4.188866879	 0.092336
66.789	161.6292	271.2448	286.6018	344.9049	409.5618	417.4223	484.4686	595.2266	624.6603	710.817	738.1897	788.6033	817.778	839.5328	865.2454	894.7379	902.8639	907.392	993.0137	1010.7188	1028.6705	1056.2604	1087.4464	1109.7741	1122.3548	1172.789	1184.7871	1195.0231	1200.8954	1239.5815	1243.6452	1263.4488	1289.6191	1415.5861	1509.4617	1546.6259	1647.8688	1852.0704	3067.9767	3080.0906	3100.4717	3112.7602	3124.4966	3201.3523	3495.1636	3511.2229	3608.1573
[NH3+]C1(C2CC1C2)C([O-])=O	N[C@]1([C@H]2C[C@@H]1C2)C(=O)O	
InChI=1S/C6H9NO2/c7-6(5(8)9)3-1-4(6)2-3/h3-4H,1-2,7H2,(H,8,9)	InChI=1S/C6H9NO2/c7-6(5(8)9)3-1-4(6)2-3/h3-4H,1-2,7H2,(H,8,9)/t3-,4+,6-
