23
gdb 59964	2.60373	0.94694	0.82988	2.9107	83.	-0.2374	-0.0105	0.2269	1532.3687	0.200586	-425.453566	-425.441951	-425.441007	-425.49185	41.086	
C	-0.8407215979	 1.3471384594	 0.3796853391	-0.389589
C	-0.0559077517	 0.0583178811	 0.1224939869	 0.150955
C	 1.0057959159	 0.2345905085	-0.9573585068	-0.389467
O	 0.6307076949	-0.3666876101	 1.3028046498	-0.276084
C	-0.1312610102	-1.1058463328	 2.2405656247	 0.025349
C	-0.187761097	-2.5972768188	 1.9032664455	-0.393462
C	 0.4481708258	-0.876369094	 3.6493061304	 0.364967
C	 1.3531138429	 0.3198290957	 3.8449303223	-0.470362
O	 0.1531603202	-1.6255429475	 4.5519374609	-0.30625
H	-0.1590293603	 2.1536790661	 0.6682731016	 0.122129
H	-1.3802461191	 1.6563321462	-0.5213233626	 0.116713
H	-1.5778723023	 1.218568573	 1.1781950761	 0.116209
H	-0.755211048	-0.7307643066	-0.1925898914	 0.072407
H	 1.734525268	 0.9916206668	-0.6501414823	 0.123108
H	 1.5392688659	-0.7042078459	-1.1267506486	 0.121948
H	 0.5513087811	 0.5554244767	-1.8994083304	 0.114002
H	-1.160194	-0.7094513816	 2.2928332504	 0.094063
H	-0.7204065197	-2.7685708359	 0.963897945	 0.112391
H	 0.8260496677	-2.9961168001	 1.8045509188	 0.124984
H	-0.6985528252	-3.1350764412	 2.7040418669	 0.143047
H	 0.8503075764	 1.2374058918	 3.5224369591	 0.138272
H	 1.6369638712	 0.3903685149	 4.8954688652	 0.132184
H	 2.2402974114	 0.2229685143	 3.2121851993	 0.152486
22.7908	39.5682	74.2727	158.8123	162.4903	205.6753	212.6578	238.7448	255.6098	319.7587	344.8105	372.401	430.8578	452.0581	472.4967	558.242	603.7617	756.2282	824.6312	888.9501	924.1058	939.8205	946.4714	961.7695	1008.7097	1077.7388	1118.9963	1143.1435	1144.2729	1167.1586	1200.768	1221.9162	1322.354	1337.9604	1366.9079	1378.1692	1390.2706	1397.2212	1403.351	1414.5144	1453.4322	1464.8504	1479.9674	1484.1887	1488.9293	1492.9617	1494.7315	1508.4691	1810.6842	2957.1846	2989.4701	3035.3079	3042.1949	3047.7675	3049.127	3106.4291	3109.4082	3111.5035	3116.1207	3119.3141	3123.4471	3144.3685	3156.8796
CC(C)OC(C)C(C)=O	CC(C)O[C@@H](C)C(=O)C	
InChI=1S/C7H14O2/c1-5(2)9-7(4)6(3)8/h5,7H,1-4H3	InChI=1S/C7H14O2/c1-5(2)9-7(4)6(3)8/h5,7H,1-4H3/t7-/m0/s1
