15
gdb 27193	3.53703	1.59208	1.2205	2.8133	72.3	-0.1956	0.0117	0.2073	980.285	0.115065	-416.772226	-416.765593	-416.764649	-416.803208	26.507	
O	 0.1546048136	 1.3399864722	-0.1056521562	-0.430635
C	 0.0684901628	-0.0060455983	-0.106917418	 0.257057
C	-0.1658303827	-0.8591640455	-1.1591395457	 0.117905
C	 0.0975571877	-1.4086166488	-2.5443396396	-0.204725
C	 1.3806960445	-2.2253183471	-2.4948107278	-0.273142
C	 0.1244554855	-2.788465861	-1.882107265	-0.020396
N	-0.1682086422	-2.1298146146	-0.594598549	-0.004139
C	 0.1000160504	-2.0089162275	 0.7295259959	-0.03015
N	 0.1596026709	-0.7253098537	 1.0601844951	-0.343927
H	 0.2583845249	 1.600856403	 0.817904192	 0.301364
H	-0.3842887753	-1.1252176963	-3.4691155072	 0.114737
H	 1.6821870695	-2.6938283277	-3.4286047055	 0.123613
H	 2.1988187407	-1.908935225	-1.8556765171	 0.134884
H	-0.3564422769	-3.7143736709	-2.1648096339	 0.122815
H	 0.1493318866	-2.8342509288	 1.422747942	 0.134738
116.7005	212.1739	317.5981	388.8905	412.487	483.9643	538.0648	654.8695	676.105	700.9443	720.5399	789.3974	793.3521	823.6689	884.3599	925.7868	996.8085	1006.6954	1044.3077	1078.7758	1085.4482	1099.8239	1175.804	1202.1791	1235.3268	1284.8995	1301.9448	1339.3007	1374.9783	1411.0348	1467.0123	1472.338	1675.9799	3116.6384	3207.1569	3212.8514	3223.6262	3257.895	3798.0825
OC1=C2C3CC3N2C=N1	Oc1c2[C@H]3C[C@H]3n2cn1	
InChI=1S/C6H6N2O/c9-6-5-3-1-4(3)8(5)2-7-6/h2-4,9H,1H2	InChI=1S/C6H6N2O/c9-6-5-3-1-4(3)8(5)2-7-6/h2-4,9H,1H2/t3-,4+/m0/s1
