19
gdb 98305	2.98806	1.06383	0.90293	2.9777	72.42	-0.2365	0.0052	0.2417	1347.4121	0.159271	-456.337709	-456.327852	-456.326907	-456.373425	34.563	
C	 0.2434367248	 1.3329721588	 0.1103685099	-0.242328
O	 0.2116348153	-0.0969124115	-0.0156118751	-0.227696
C	 0.6171857411	-0.5835843851	-1.1970156525	 0.459028
O	 0.9641008195	 0.1032775454	-2.1272056556	-0.367049
C	 0.5895720163	-2.1142828745	-1.2126497035	-0.152572
N	 0.9562729246	-2.6043538474	-2.5371743316	-0.525098
C	 1.5297354234	-2.6573341992	-0.12558125	 0.030451
C	 2.0484957733	-4.0379715463	-0.22602818	-0.243333
N	 2.9423715933	-2.8834737256	-0.4448603536	-0.31694
H	 1.2609360249	 1.7058992945	-0.0277675393	 0.148411
H	-0.4081793116	 1.7975187918	-0.6335647864	 0.143285
H	-0.110386823	 1.5485800691	 1.1181546507	 0.138173
H	-0.4321576451	-2.4087256407	-0.9379807546	 0.103727
H	 0.1869274795	-3.0982119481	-2.9703195598	 0.23874
H	 1.1764100942	-1.8038498743	-3.1239687286	 0.251522
H	 1.3528161811	-2.2299460489	 0.8572865064	 0.100251
H	 2.2426998274	-4.6113362213	 0.6758887763	 0.112237
H	 1.7585107749	-4.6167484244	-1.0981661947	 0.112887
H	 3.0442191862	-2.7783765122	-1.4552743378	 0.236304
48.1688	70.3291	118.715	128.3337	193.3337	207.0296	243.3237	289.9421	346.9618	378.1588	448.3978	600.3079	653.9456	763.0281	811.5721	866.6043	882.8825	893.6981	951.9644	992.2116	1019.3973	1026.2245	1106.4941	1142.3037	1151.368	1178.2483	1188.7935	1206.8628	1216.5592	1262.0224	1286.1389	1298.0212	1321.4726	1388.3074	1413.6416	1474.3992	1482.5613	1495.7598	1496.5046	1655.6465	1811.9062	3018.4816	3055.6424	3112.9082	3132.802	3152.6644	3164.5046	3202.7099	3457.3567	3501.4459	3601.8673
COC(=O)C(N)C1CN1	COC(=O)[C@@H](N)[C@H]1CN1	
InChI=1S/C5H10N2O2/c1-9-5(8)4(6)3-2-7-3/h3-4,7H,2,6H2,1H3	InChI=1S/C5H10N2O2/c1-9-5(8)4(6)3-2-7-3/h3-4,7H,2,6H2,1H3/t3-,4+/m1/s1
