17
gdb 75221	3.78712	1.15751	1.03602	3.5625	80.12	-0.2488	-0.004	0.2449	1183.3705	0.136922	-380.875898	-380.867874	-380.866929	-380.908327	30.59	
C	-0.0033627994	 1.499780947	 0.0754990373	-0.501962
C	-0.0176384941	 0.0069801618	-0.0059967425	 0.374749
C	 0.0222881443	-0.7633040959	-1.098136459	-0.180028
C	-0.0165163829	-2.2448461221	-0.7947390987	-0.32003
C	-0.0240486797	-2.2741574581	 0.7357629371	 0.207168
N	 1.1896566044	-1.680560395	 1.3552535337	-0.35543
C	-0.0316696412	-0.8532475072	 1.2211492625	-0.201549
C	-0.7164733918	-3.3155209262	 1.4380785699	 0.197378
N	-1.2629062011	-4.1673741488	 1.9997894346	-0.344381
H	 0.8819567241	 1.8573606425	 0.6154880808	 0.138394
H	-0.0032798368	 1.952812186	-0.9190236446	 0.131018
H	-0.8784664275	 1.8760625549	 0.6199400072	 0.130444
H	 0.1041337447	-0.3902097799	-2.1130184548	 0.101315
H	-0.9143919385	-2.7271259704	-1.1994399588	 0.129107
H	 0.8507933303	-2.7806155862	-1.1960522023	 0.135288
H	 1.259155137	-2.0241320301	 2.3130462069	 0.246416
H	-0.5628293217	-0.5565263925	 2.1199857006	 0.112104
111.5292	151.7445	181.8843	222.039	295.7781	333.8055	376.169	475.4091	565.4706	570.3014	598.9408	626.8918	750.624	813.3015	839.8589	875.6519	938.4278	961.2137	989.233	1016.9102	1036.7623	1068.5941	1072.4975	1156.5429	1189.989	1194.3141	1255.2513	1272.5181	1320.5229	1353.903	1412.3809	1415.7616	1468.564	1479.1701	1489.1957	1710.5999	2347.0985	3021.9387	3036.556	3070.1215	3075.0618	3117.7099	3169.7496	3196.7574	3474.9331
CC1=CCC2(NC12)C#N	CC1=CC[C@]2(N[C@@H]12)C#N	
InChI=1S/C7H8N2/c1-5-2-3-7(4-8)6(5)9-7/h2,6,9H,3H2,1H3	InChI=1S/C7H8N2/c1-5-2-3-7(4-8)6(5)9-7/h2,6,9H,3H2,1H3/t6-,7-/m0/s1
