23
gdb 84832	2.58491	1.47854	1.09885	0.2646	91.17	-0.2345	0.0289	0.2634	1216.5951	0.206751	-351.171351	-351.162511	-351.161567	-351.204186	35.512	
C	 0.280733581	 1.5970957629	-0.0196860229	-0.385385
C	 0.0039140792	 0.0838580397	 0.0267040787	-0.050417
C	 0.3850756836	-0.5868117224	-1.2689774909	-0.050647
C	 0.9194114479	-1.8032128838	-1.3606045089	-0.077368
C	 1.210773793	-2.6879704174	-0.1800102863	-0.326429
C	 1.2541109484	-1.9601513308	 1.1577797117	 0.33033
C	 1.1187978786	-2.8654397451	 2.3655445779	-0.467215
C	 2.1672991287	-0.761145259	 1.2731121338	-0.324654
C	 0.6663866969	-0.5690661647	 1.2322475144	-0.052382
H	 1.3508944604	 1.7939958737	-0.1397895499	 0.119252
H	-0.2468274619	 2.0678067661	-0.8563528916	 0.107152
H	-0.0495035988	 2.0843824264	 0.9034879337	 0.108743
H	-1.0848214194	-0.0385535669	 0.1479052196	 0.082248
H	 0.1849825151	-0.0209085119	-2.1768316413	 0.078789
H	 1.1441648999	-2.2166797306	-2.3411387621	 0.08286
H	 0.4418692862	-3.4752783834	-0.1316763972	 0.105883
H	 2.1571382392	-3.2246411401	-0.3407480314	 0.101143
H	 1.9148959488	-3.6199689206	 2.3861983688	 0.112516
H	 1.1789103181	-2.295453784	 3.2982476604	 0.110427
H	 0.1594248377	-3.3968812172	 2.3593884714	 0.111636
H	 2.6813920087	-0.5972589162	 2.214502399	 0.100723
H	 2.7359220152	-0.4712719105	 0.3952087423	 0.111072
H	 0.2039503533	-0.303289544	 2.1802401808	 0.071724
98.2258	168.083	232.7737	239.5672	248.5674	304.725	349.8974	362.9238	399.9815	474.6452	491.0492	574.8991	669.7654	722.5754	756.0813	828.1065	872.3356	897.1567	913.4644	929.0502	972.087	996.1931	1009.9	1016.4344	1036.4932	1060.4949	1074.081	1106.0673	1109.7363	1132.1954	1176.5066	1207.084	1221.9633	1263.2018	1317.2008	1326.3469	1346.8807	1370.6083	1401.295	1411.2912	1418.8986	1430.6087	1475.5996	1489.8206	1491.501	1496.6428	1499.4213	1506.5449	1725.2889	2964.103	2982.1779	3009.2352	3016.7137	3029.4534	3074.4053	3095.2898	3097.5818	3105.0087	3123.7085	3127.5411	3134.5846	3159.6017	3209.4683
CC1C=CCC2(C)CC12	C[C@H]1C=CC[C@@]2(C)C[C@@H]12	
InChI=1S/C9H14/c1-7-4-3-5-9(2)6-8(7)9/h3-4,7-8H,5-6H2,1-2H3	InChI=1S/C9H14/c1-7-4-3-5-9(2)6-8(7)9/h3-4,7-8H,5-6H2,1-2H3/t7-,8-,9-/m0/s1
