16
gdb 9740	3.15806	1.85666	1.58966	2.327	60.47	-0.2488	-0.0321	0.2166	863.2875	0.128941	-420.884193	-420.876207	-420.875263	-420.917078	28.193	
C	-0.0266808496	 1.6455431104	 0.2520203577	-0.443137
C	 0.0532873745	 0.1288482099	 0.0812904112	 0.279478
C	 0.7658471177	-0.3390880702	-1.1999716941	-0.149839
O	 1.4159367682	-1.5310467541	-0.7840499887	-0.238979
C	 1.8344877413	-1.2637811787	 0.5262359726	 0.020027
O	 0.8333169887	-0.4584081143	 1.1322197446	-0.303641
C	-1.3557737164	-0.4654496436	 0.1843441577	 0.132644
O	-2.1088004905	-0.588257757	-0.7450245862	-0.251366
H	 0.9793971744	 2.0738741505	 0.2522341542	 0.129947
H	-0.6059100083	 2.0890440418	-0.5635524627	 0.139676
H	-0.5087106219	 1.9046710445	 1.1992168725	 0.134989
H	 0.0654164986	-0.5743112063	-2.0019332082	 0.146263
H	 1.4925492739	 0.4131191747	-1.5425346351	 0.095053
H	 1.9316120141	-2.2087845775	 1.0691896226	 0.12367
H	 2.795328509	-0.7192270656	 0.534217163	 0.089544
H	-1.6276670537	-0.7682884843	 1.2194071688	 0.095672
60.6694	86.7152	198.7492	219.9095	280.0778	307.1474	318.0708	406.2733	550.4112	626.5398	745.0323	820.7536	876.8699	944.5801	960.0299	989.9614	1005.8605	1049.4866	1117.3836	1142.2972	1166.6797	1197.4309	1210.6135	1254.1665	1289.5291	1350.3347	1389.2119	1402.5633	1429.6913	1481.4975	1493.1592	1509.5593	1546.4102	1834.4447	2899.7164	2945.8706	2992.1232	3040.9707	3081.8773	3117.7858	3122.6975	3135.2234
CC1(COCO1)C=O	C[C@]1(COCO1)C=O	
InChI=1S/C5H8O3/c1-5(2-6)3-7-4-8-5/h2H,3-4H2,1H3	InChI=1S/C5H8O3/c1-5(2-6)3-7-4-8-5/h2H,3-4H2,1H3/t5-/m1/s1
