18
gdb 15351	5.52739	0.99016	0.93394	1.5942	74.68	-0.2481	0.0609	0.309	1276.1506	0.151304	-347.741901	-347.732911	-347.731967	-347.775956	32.336	
C	 0.4031769476	 1.0277129482	 0.4708100664	-0.231091
O	-0.3319576413	 0.1750164283	-0.3843863474	-0.234879
C	 0.4554642118	-0.4303417783	-1.3600371703	 0.103176
C	 1.2388767345	-1.6747990621	-1.0109346588	-0.314223
C	-0.0042773771	-1.7609796416	-1.8734386682	-0.035147
C	-1.2743585626	-2.3899660313	-1.3169232568	-0.372406
C	-1.2671504009	-3.8472325117	-1.4004124823	 0.309512
C	-1.2486244229	-5.0463306795	-1.4822525739	-0.453247
H	 1.1901453536	 0.481198944	 1.0096028845	 0.111059
H	 0.873741374	 1.8508003748	-0.0878332129	 0.107331
H	-0.302595116	 1.4473337786	 1.1913392461	 0.128066
H	 0.8970309643	 0.2698215162	-2.0716393708	 0.085812
H	 2.2104653705	-1.8369212952	-1.4642342722	 0.112359
H	 1.1468011587	-2.0355628619	 0.0084941949	 0.121611
H	 0.1543990156	-1.9447048703	-2.931711728	 0.097392
H	-1.4055926817	-2.0718626728	-0.277618685	 0.141365
H	-2.1439909933	-1.9983627902	-1.8607533519	 0.131638
H	-1.2395541847	-6.1059078953	-1.5466477736	 0.191671
49.3096	104.3574	115.8829	184.0089	197.342	280.2711	335.8805	347.6502	451.3012	503.5835	595.4793	614.1398	635.4633	775.8365	825.1654	883.2584	887.3383	960.6599	1017.3687	1021.0416	1055.0099	1091.7907	1127.8369	1144.404	1171.2926	1183.5203	1222.0242	1248.3489	1260.6137	1319.029	1379.5165	1414.7023	1467.1859	1477.3759	1485.681	1492.8717	1508.5656	2238.5511	2984.9136	3026.0069	3036.9521	3076.7389	3081.3945	3119.7711	3131.8749	3155.1558	3220.4457	3507.669
COC1CC1CC#C	CO[C@H]1C[C@H]1CC#C	
InChI=1S/C7H10O/c1-3-4-6-5-7(6)8-2/h1,6-7H,4-5H2,2H3	InChI=1S/C7H10O/c1-3-4-6-5-7(6)8-2/h1,6-7H,4-5H2,2H3/t6-,7+/m1/s1
