25
gdb 84089	2.2472	1.40477	0.99278	0.32	94.92	-0.2216	0.0332	0.2548	1341.6328	0.228205	-352.386169	-352.375986	-352.375042	-352.420392	39.643	
C	-0.2972792147	 1.5624816592	-0.0218827777	-0.410145
C	 0.0363890527	 0.066983501	 0.0084732533	-0.009531
C	 0.8577519018	-0.4261917454	-1.1624779726	-0.179136
C	 1.6925597812	-1.4100330698	-0.8237573884	 0.330267
C	 2.5912429056	-2.183801303	-1.7373815299	-0.500525
C	 1.5491142224	-1.7366492292	 0.6591626895	-0.064996
C	 2.8282931364	-2.1986714915	 1.3657335342	-0.416654
C	 0.8613945643	-0.4544281829	 1.2289435763	-0.013274
C	 1.865174092	 0.578352282	 1.7579943749	-0.391503
H	 0.6021118811	 2.1826981797	-0.0790323503	 0.117358
H	-0.9132480151	 1.794753028	-0.8974575583	 0.108476
H	-0.8622302669	 1.8657319999	 0.8663809692	 0.109213
H	-0.9249196817	-0.4739943552	 0.0035864399	 0.072454
H	 0.7233140388	-0.0457216551	-2.171056511	 0.075761
H	 2.5145934565	-1.8265213661	-2.76806381	 0.119464
H	 3.6420939018	-2.1125623947	-1.4314840756	 0.12504
H	 2.3398230499	-3.2529918473	-1.7312590283	 0.121498
H	 0.8253066527	-2.5653247783	 0.7410550259	 0.072713
H	 3.6371542011	-1.467184716	 1.2765705489	 0.117859
H	 2.647500725	-2.3697239874	 2.4323300237	 0.111902
H	 3.1872996265	-3.14187337	 0.94126189	 0.110692
H	 0.1895005716	-0.7231316995	 2.052577763	 0.056963
H	 2.5719065531	 0.8909922816	 0.9819741935	 0.116345
H	 1.3524159858	 1.4726907285	 2.1228739028	 0.110451
H	 2.4431526881	 0.1726368314	 2.5930220372	 0.109309
77.3342	151.7358	199.3098	226.7417	239.1292	253.0076	260.2129	263.9813	316.8612	336.6002	374.8897	438.4177	470.6679	556.1057	619.3045	671.3172	743.2925	789.2427	843.5704	856.0887	929.3991	972.8026	1004.6701	1016.8257	1030.3148	1042.8684	1055.4813	1073.3236	1101.888	1125.1977	1139.654	1185.22	1210.2453	1259.4825	1279.6385	1302.1661	1329.4418	1358.7798	1365.2815	1373.1308	1404.5663	1406.1698	1410.8078	1414.6246	1479.0059	1485.8885	1489.4303	1495.157	1497.9923	1501.738	1510.8907	1514.5236	1717.1779	2948.3912	2951.7446	3014.1147	3029.0111	3031.3544	3033.3133	3039.4101	3060.9233	3091.4658	3095.3717	3103.6742	3104.7986	3106.9563	3107.8217	3111.1881	3169.2539
CC1C=C(C)C(C)C1C	C[C@H]1C=C(C)[C@@H](C)[C@H]1C	
InChI=1S/C9H16/c1-6-5-7(2)9(4)8(6)3/h5-6,8-9H,1-4H3	InChI=1S/C9H16/c1-6-5-7(2)9(4)8(6)3/h5-6,8-9H,1-4H3/t6-,8-,9+/m0/s1
