21
gdb 90337	2.2152	1.68767	1.53287	1.2286	84.43	-0.2237	0.0094	0.2331	1046.8329	0.182123	-387.072794	-387.064124	-387.063179	-387.105474	33.966	
C	-0.0407396197	 1.4848207998	 0.0662267132	-0.390992
C	 0.0568454545	-0.0300474257	-0.014027056	-0.04923
C	 1.2855953343	-0.5624996368	-0.8623986481	-0.330839
C	 1.9883221296	-0.6858847977	 0.470139552	 0.198855
C	 2.9595049822	-0.12892499	 1.1834305601	-0.236598
C	 2.4044343248	 0.1418272231	 2.5750303695	-0.12503
O	 0.976479576	 0.002208225	 2.4513791654	-0.31953
C	 0.714550462	-0.7269304278	 1.2567352261	 0.388415
C	 0.0830204481	-2.073844452	 1.5889615549	-0.443428
H	 0.9236668239	 1.9271638848	 0.3347701606	 0.119634
H	-0.3538640172	 1.9069566867	-0.8943490677	 0.108441
H	-0.7659886623	 1.7887508378	 0.8267662015	 0.124719
H	-0.9039445136	-0.4689158888	-0.3010800633	 0.067543
H	 1.0609251623	-1.5150721598	-1.3503411827	 0.111728
H	 1.727391477	 0.1197091815	-1.5920246619	 0.11088
H	 3.9209794779	 0.2402253243	 0.848723803	 0.100829
H	 2.7849847112	-0.5420700582	 3.3509050626	 0.101191
H	 2.6302826161	 1.1651098193	 2.9023283906	 0.109066
H	-0.8867073249	-1.9200025823	 2.0736286729	 0.123754
H	-0.0790304024	-2.6731391879	 0.6873629081	 0.111652
H	 0.7214055504	-2.6419244254	 2.272055789	 0.118939
115.2439	184.5506	204.3515	214.2864	231.8797	249.298	311.6202	401.0869	427.602	491.0043	586.1369	684.8197	715.1439	785.8125	795.1908	813.9466	875.2597	890.6043	911.1324	935.9191	1009.6431	1019.227	1028.3037	1045.0034	1063.7323	1114.7493	1136.298	1160.5494	1182.1682	1190.3867	1200.8829	1236.7942	1259.2679	1321.5956	1351.0674	1366.74	1403.0624	1411.8023	1478.4458	1484.8387	1490.5046	1492.1345	1495.0567	1516.9386	1724.275	2969.7576	3028.9752	3033.7252	3035.9621	3050.277	3060.9993	3103.4141	3105.1324	3110.8724	3111.1109	3115.0954	3208.9236
CC1CC2=CCOC12C	C[C@H]1C[C]2[CH]CO[C@@]12C	
InChI=1S/C8H12O/c1-6-5-7-3-4-9-8(6,7)2/h3,6H,4-5H2,1-2H3	InChI=1S/C8H12O/c1-6-5-7-3-4-9-8(6,7)2/h3,6H,4-5H2,1-2H3/t6-,8-/m0/s1
