20
gdb 126812	2.08222	1.58772	0.97422	3.3957	82.93	-0.1946	0.0436	0.2381	1261.6732	0.172334	-399.346855	-399.337529	-399.336585	-399.381425	34.033	
C	 0.1396850651	 1.5360813487	 0.0457054235	-0.381062
C	-0.0173286125	 0.0197176879	-0.0944099916	-0.149248
N	 0.6997891803	-0.5236931644	-1.231563152	-0.036704
N	 0.0232117561	-0.8063132419	-2.3821356719	-0.28055
C	 0.9641757853	-1.1858594913	-3.2341850386	-0.001139
C	 2.2539518407	-1.1632955086	-2.6621068728	-0.322492
C	 2.0403774001	-0.7242647555	-1.3647896277	 0.438554
N	 2.9276068486	-0.4365794396	-0.333490715	-0.393974
C	 4.3146958983	-0.829690555	-0.5315078767	-0.323767
H	 1.1898650339	 1.8073824511	 0.1834809665	 0.134284
H	-0.2329301146	 2.038138549	-0.8511455691	 0.139918
H	-0.4285867904	 1.8972741776	 0.9086025099	 0.114774
H	 0.316797493	-0.4877222658	 0.8200571182	 0.101358
H	-1.063168084	-0.2523858975	-0.2489372104	 0.140651
H	 0.6872790078	-1.4780990421	-4.237177769	 0.102913
H	 3.1921915135	-1.4340382834	-3.1158731283	 0.094102
H	 2.5755823308	-0.6974049542	 0.5782048513	 0.237165
H	 4.444833282	-1.9065717795	-0.7188687442	 0.117827
H	 4.7268806764	-0.2851488584	-1.386326085	 0.141828
H	 4.8912704195	-0.5538225872	 0.3542950229	 0.125562
63.029	83.5711	128.4836	181.9148	204.0646	242.746	293.0625	323.632	404.0214	489.8991	576.5875	640.2536	658.078	701.5493	746.7183	771.8915	794.0392	880.1156	940.9307	971.023	1030.3439	1072.869	1095.3977	1103.8151	1143.8514	1161.7733	1213.1925	1248.4905	1260.8014	1342.7564	1375.8953	1387.3822	1405.9287	1429.756	1456.3036	1470.5152	1484.3067	1488.6374	1490.7424	1509.1758	1518.8679	1560.7403	1606.3316	2987.167	3019.703	3044.0606	3078.7446	3110.2319	3119.6189	3124.3801	3133.8097	3236.4526	3275.1046	3562.9589
CCN1N=CC=C1NC	CCn1nccc1NC	
InChI=1S/C6H11N3/c1-3-9-6(7-2)4-5-8-9/h4-5,7H,3H2,1-2H3	InChI=1S/C6H11N3/c1-3-9-6(7-2)4-5-8-9/h4-5,7H,3H2,1-2H3
