20
gdb 38899	2.66544	1.76489	1.50786	2.2277	77.01	-0.2147	0.0776	0.2923	970.9825	0.174306	-403.107072	-403.099915	-403.098971	-403.138366	29.183	
C	 0.0309994716	 1.5966249223	 0.2372395567	-0.265078
C	 1.2726826889	 0.8015397018	 0.0090971265	-0.002817
C	 2.3190614527	 0.4989286532	 1.0712331479	-0.252705
C	 1.7832078486	 0.1431002886	 2.4623082662	-0.070648
C	 1.2007493855	 1.2802645412	 3.3261639711	-0.088088
O	-0.1421265561	 0.768678359	 3.1834978108	-0.290278
C	 0.3370092092	-0.4209790523	 2.5005866469	 0.118338
C	-0.3557197532	-0.7029976469	 1.1714367669	-0.179982
N	-0.0386407163	 0.1462301457	 0.0215070938	-0.101858
H	-0.1922874248	 1.9720615226	 1.2283030027	 0.14345
H	-0.3689623107	 2.1955304785	-0.5780838694	 0.107026
H	 1.7043051481	 0.8569084286	-0.9901255085	 0.086611
H	 2.9170062552	-0.3451444523	 0.7035224254	 0.107152
H	 3.0167175017	 1.3431297341	 1.1497317814	 0.10751
H	 2.5161826766	-0.4709228981	 2.9889983697	 0.079066
H	 1.5251523956	 1.2759099543	 4.3742561626	 0.102316
H	 1.3016793861	 2.2968646033	 2.9265533855	 0.101733
H	 0.2215250112	-1.2988557024	 3.1515375833	 0.074662
H	-0.1132860614	-1.7355431585	 0.8850047888	 0.104101
H	-1.4398785886	-0.6659747328	 1.3323833216	 0.119487
145.5506	177.0076	276.2915	307.1291	356.7806	366.0759	464.1852	596.0919	683.3406	704.678	749.8839	808.5435	823.9772	864.2459	878.0618	922.7564	969.3605	990.4532	1014.1615	1024.7043	1057.6699	1097.1725	1109.905	1119.6164	1132.1543	1145.6084	1167.9031	1185.0345	1222.3975	1260.6266	1294.7872	1308.8016	1321.0555	1325.9916	1359.6399	1367.3407	1383.9918	1404.0806	1426.4932	1464.7456	1484.806	1508.424	1523.3973	2994.9058	3012.2921	3013.1767	3020.2485	3042.2923	3053.2649	3062.2358	3085.8393	3098.7921	3111.3711	3222.002
C1C2CC3COC3CN12	C1[C@H]2C[C@H]3CO[C@H]3CN12	
InChI=1S/C7H11NO/c1-5-4-9-7(5)3-8-2-6(1)8/h5-7H,1-4H2	InChI=1S/C7H11NO/c1-5-4-9-7(5)3-8-2-6(1)8/h5-7H,1-4H2/t5-,6+,7-,8?/m0/s1
