15
gdb 8094	3.04839	2.06624	1.54555	3.5981	61.97	-0.2453	0.008	0.2533	846.2003	0.118153	-399.791422	-399.783908	-399.782963	-399.822863	28.362	
C	-0.0188638021	 1.5594047507	 0.0565358649	-0.482739
C	 0.0243195435	 0.0625205919	 0.0513647566	 0.336405
N	-1.224150605	-0.7180973487	 0.072049217	-0.382846
C	-0.6810805174	-1.6803964514	 0.9486463829	 0.441352
O	-1.1345801881	-2.6952887584	 1.3932498973	-0.344132
C	 0.6363007108	-0.9343420949	 1.0553674901	-0.365862
C	 1.1707129161	-0.7900223586	-0.3754231211	 0.062355
O	 0.9847303292	-1.7639146861	-1.3513896553	-0.418219
H	 0.9799530959	 1.9763132345	 0.2144986443	 0.12649
H	-0.391283112	 1.9413764159	-0.9008617523	 0.132025
H	-0.6808497974	 1.9239247637	 0.8472750161	 0.137861
H	-1.6819404432	-1.0076887114	-0.7864066447	 0.245173
H	 1.2474622313	-0.7727087194	 1.9329496755	 0.114936
H	 2.1331765554	-0.2752066104	-0.4180983616	 0.098995
H	 1.4655443527	-2.5570059075	-1.0906193396	 0.298205
130.6504	203.077	213.631	256.8454	287.6368	309.8197	449.0487	485.3816	554.6639	585.3971	682.223	749.3192	763.6396	833.7523	910.9781	928.0133	975.5263	977.6614	1070.2666	1093.9156	1134.5149	1147.3226	1202.6215	1279.0774	1304.9963	1315.13	1344.3834	1418.9704	1475.2618	1480.3601	1500.708	1902.2285	3035.0716	3084.4156	3099.1743	3119.8151	3214.2591	3536.6119	3806.6095
CC12NC(=O)C1C2O	C[C@]12NC(=O)[C@H]1[C@H]2O	
InChI=1S/C5H7NO2/c1-5-2(3(5)7)4(8)6-5/h2-3,7H,1H3,(H,6,8)	InChI=1S/C5H7NO2/c1-5-2(3(5)7)4(8)6-5/h2-3,7H,1H3,(H,6,8)/t2-,3-,5+/m1/s1
