15
gdb 124074	5.03671	0.97202	0.92478	1.9263	66.48	-0.262	-0.0471	0.2149	1230.8377	0.113038	-453.892041	-453.884585	-453.88364	-453.926025	26.314	
C	-0.0000116096	 1.3963105888	-0.3455251024	-0.081601
O	 1.3614370153	 1.6225362821	 0.0611417137	-0.266768
C	 1.4605644361	 0.3065303793	 0.6342040713	-0.0816
C	 0.0650859695	-0.0950776604	 0.0831843433	-0.155707
C	-0.9585152536	-0.6257177123	 1.0189163062	 0.243896
C	-1.4277895211	-0.177644206	 2.2168268573	-0.04801
O	-2.3557168771	-1.0148149885	 2.6689976053	-0.157665
N	-2.4696065305	-2.0498679816	 1.6876736889	-0.001612
N	-1.6581949943	-1.7915998337	 0.7652355905	-0.173406
H	-0.7120789176	 2.0009215652	 0.2324405228	 0.10039
H	-0.1526977049	 1.587022557	-1.4133296167	 0.116833
H	 2.3157691816	-0.2547752293	 0.2424753113	 0.116833
H	 1.5214165297	 0.3344403322	 1.7306328073	 0.10039
H	 0.1313283466	-0.7722063623	-0.7687580976	 0.113386
H	-1.2000161803	 0.6790182396	 2.8300521189	 0.17464
25.8501	61.1389	150.1904	214.7046	377.609	406.9937	610.921	624.224	649.3009	727.5402	833.4939	856.4139	887.5203	929.1517	985.7844	1013.8699	1022.1451	1045.1436	1071.3665	1099.1061	1151.8706	1159.0334	1165.4266	1220.7902	1256.9032	1306.1028	1320.928	1368.5768	1397.7639	1472.3293	1514.1665	1539.2412	1608.1867	3003.035	3013.7483	3065.3842	3065.934	3114.2614	3281.605
C1OCC1C1=CON=N1	C1OCC1c1conn1	
InChI=1S/C5H6N2O2/c1-4(2-8-1)5-3-9-7-6-5/h3-4H,1-2H2	InChI=1S/C5H6N2O2/c1-4(2-8-1)5-3-9-7-6-5/h3-4H,1-2H2
