14
gdb 129963	3.23971	1.48229	1.01788	3.3059	70.29	-0.2068	-0.0314	0.1755	1079.1116	0.102779	-466.228264	-466.220347	-466.219403	-466.260204	30.714	
N	-0.0213483392	 1.3598042733	-0.0794572451	-0.570624
C	-0.027886255	 0.0049409046	-0.0528069347	 0.335509
N	-1.1656466005	-0.6611751599	-0.0670038447	-0.374873
C	-1.0540692713	-2.0081366625	-0.0698156732	 0.447535
N	-2.2277245897	-2.7157960178	-0.1581896788	-0.552426
H	-3.0543775265	-2.2273301932	 0.1450252968	 0.256143
H	-2.1595199945	-3.685236346	 0.1083192192	 0.261226
N	 0.0729325065	-2.7184752318	-0.026354105	-0.304359
N	 1.2228414951	-2.0212588265	-0.0065789132	-0.284396
C	 1.1972771964	-0.7219826208	-0.0276992785	 0.381067
O	 2.358003222	-0.0148758383	-0.0046858438	-0.441273
H	 0.837798718	 1.8446070516	 0.1127195399	 0.278687
H	-0.895167417	 1.8398454525	 0.0575532025	 0.265551
H	 3.0715341557	-0.6678769351	 0.0289828585	 0.302235
124.5627	220.2095	252.8554	294.4388	334.5173	385.563	425.2418	445.0493	484.7293	508.748	516.9315	539.037	555.9624	599.4649	743.7073	761.5512	809.439	821.6087	1000.0135	1059.9027	1155.7981	1190.5898	1216.6034	1331.9476	1412.7112	1481.4459	1522.2237	1596.5277	1610.4911	1633.9799	1656.8541	3594.7954	3609.7144	3716.6066	3743.4058	3757.6565
NC1=NC(=[NH2+])[N-]N=C1O	Nc1nc(N)nnc1O	
InChI=1S/C3H4N5O/c4-1-2(9)7-8-3(5)6-1/h(H4-,4,5,6,7,8,9)/q-1/p+1	InChI=1S/C3H5N5O/c4-1-2(9)7-8-3(5)6-1/h(H,7,9)(H4,4,5,6,8)
