18
gdb 31513	3.23169	1.08175	0.85913	0.3179	77.17	-0.1787	0.0334	0.212	1363.7055	0.147044	-439.113213	-439.103772	-439.102828	-439.147578	34.6	
C	 0.0053636094	 1.5217480349	 0.3254698201	-0.37008
C	-0.0423155254	 0.0418336852	-0.0933135759	-0.289998
C	-1.4241456222	-0.5031984367	-0.1993620299	 0.376788
C	-2.1567925392	-1.0017477132	-1.2314757962	-0.344815
C	-3.440779312	-1.3742037855	-0.6987983282	 0.144069
N	-4.4926283179	-2.0093795069	-1.3846480084	-0.616831
C	-3.3845332783	-1.062003817	 0.6227871989	 0.272638
O	-4.326620454	-1.1291736792	 1.5899089074	-0.431755
O	-2.1653144416	-0.5322194405	 0.9507585275	-0.213824
H	 1.0399817354	 1.868091537	 0.4105855362	 0.109837
H	-0.5084649585	 2.15122598	-0.4074403596	 0.119798
H	-0.4838907091	 1.6652102855	 1.2927179667	 0.131817
H	 0.4434233638	-0.0903540625	-1.0656545763	 0.111016
H	 0.5344553184	-0.5539815047	 0.626971179	 0.112233
H	-1.8257008059	-1.1119146151	-2.253133508	 0.099466
H	-4.6937797094	-1.5604671644	-2.2707894631	 0.241488
H	-5.3386282393	-2.0086390464	-0.8264568783	 0.243956
H	-4.0729551942	-1.7868662004	 2.2500495781	 0.304197
55.1754	116.9739	181.9571	202.2029	244.1814	251.1622	276.379	289.2484	322.1758	391.249	524.5943	583.3986	644.9806	663.6417	685.864	780.4963	792.128	809.5709	835.9402	949.8477	1002.4893	1064.6526	1075.8502	1086.754	1167.6382	1192.5027	1248.0101	1269.7365	1326.3437	1327.6843	1357.656	1406.1654	1460.8164	1473.9423	1496.0942	1507.0774	1622.7402	1648.8519	1733.936	3016.4695	3040.0991	3075.4114	3110.5961	3121.7527	3246.39	3515.2547	3602.3847	3746.3817
CCC1=CC(N)=C(O)O1	CCc1cc(N)c(O)o1	
InChI=1S/C6H9NO2/c1-2-4-3-5(7)6(8)9-4/h3,8H,2,7H2,1H3	InChI=1S/C6H9NO2/c1-2-4-3-5(7)6(8)9-4/h3,8H,2,7H2,1H3
