21
gdb 74811	3.55405	1.21171	1.0399	1.824	85.15	-0.2268	0.0089	0.2356	1244.1838	0.182419	-387.107187	-387.098435	-387.097491	-387.139992	34.332	
C	 0.0848606547	 1.5304533314	 0.0013782623	-0.479356
C	-0.0167464592	 0.0327123496	-0.0232610875	 0.291221
C	 0.0208032555	-0.6814641858	-1.1537631386	-0.136061
C	-0.044319721	-2.1620216864	-1.1407819291	-0.046734
O	 0.8649033629	-2.8640612031	-0.2502796682	-0.302333
C	-0.5318039012	-2.8625756409	 0.0632805234	 0.398105
C	-1.2200245	-4.2029497077	-0.0429967207	-0.470048
C	-0.9342934853	-1.9834958324	 1.2343197927	-0.279894
C	-0.1235787243	-0.677441401	 1.3091416776	-0.30448
H	 0.9466509536	 1.8561298932	 0.5987098613	 0.127689
H	 0.1908953735	 1.9482455973	-1.003308576	 0.120824
H	-0.8014007608	 1.978122099	 0.4697246184	 0.123187
H	 0.1104435803	-0.1900490828	-2.1186312615	 0.078529
H	-0.1582727292	-2.6537835261	-2.1055848852	 0.080685
H	-0.8794907647	-4.7422335783	-0.9305049162	 0.126171
H	-0.9988396854	-4.8193714645	 0.8357178219	 0.123121
H	-2.307135955	-4.0822394361	-0.1016454871	 0.119235
H	-2.0024611104	-1.7528009934	 1.1261413223	 0.103278
H	-0.8282991276	-2.5401543551	 2.1730626436	 0.10188
H	 0.8878014736	-0.9047499895	 1.6676933316	 0.130607
H	-0.5721129598	-0.0121085574	 2.0558487151	 0.094374
114.646	175.5518	189.5061	207.4023	263.9822	312.5921	342.1338	384.0072	395.149	461.4975	498.484	607.9569	690.5648	703.8197	765.3834	799.7945	842.5693	880.6554	932.6412	952.7405	995.3089	1031.4668	1038.1469	1053.2775	1070.8942	1103.2056	1118.5911	1184.2654	1223.4415	1225.9331	1269.5061	1323.9284	1344.7494	1364.5656	1399.723	1411.0143	1412.4305	1455.8855	1471.0226	1478.8799	1482.418	1488.0443	1489.5495	1503.2167	1723.9446	3012.9151	3019.4386	3029.8503	3032.4653	3056.7823	3058.8407	3067.9713	3094.1996	3111.1807	3118.4584	3121.6734	3164.3092
CC1=CC2OC2(C)CC1	CC1=C[C@H]2O[C@@]2(C)CC1	
InChI=1S/C8H12O/c1-6-3-4-8(2)7(5-6)9-8/h5,7H,3-4H2,1-2H3	InChI=1S/C8H12O/c1-6-3-4-8(2)7(5-6)9-8/h5,7H,3-4H2,1-2H3/t7-,8+/m1/s1
