22
gdb 118258	3.05762	0.76444	0.67291	2.3685	84.44	-0.2464	0.0256	0.2721	1769.6966	0.190581	-441.470385	-441.459109	-441.458165	-441.507958	38.719	
C	 0.1417145135	 0.6379286992	 0.8246814805	-0.240976
O	-0.3941175406	 0.2376329288	-0.4263495894	-0.237
C	-1.4918188413	-0.6408511872	-0.3505710558	-0.080906
C	-1.1151246863	-2.1205818895	-0.2195975189	 0.101624
C	-0.0770113182	-2.5623206299	-1.2463509601	-0.387229
O	-0.6214375551	-2.3249699234	 1.1165958246	-0.218494
C	-0.7520137105	-3.560906683	 1.6363583676	 0.133679
N	-0.2212830799	-3.8587581362	 2.7366739961	-0.211003
C	-0.4489404984	-5.1949831612	 3.2447786728	-0.314462
H	 0.8993151637	 1.3959491664	 0.6104310189	 0.122013
H	-0.6356728117	 1.0846655847	 1.4628109275	 0.104681
H	 0.5989790048	-0.1955285174	 1.3677737333	 0.139705
H	-2.1605356266	-0.3696525402	 0.4804168022	 0.097531
H	-2.0471892679	-0.5213260833	-1.2886517865	 0.106116
H	-2.0412405325	-2.7032853974	-0.3422512364	 0.079794
H	-0.46946054	-2.4380042296	-2.2606339567	 0.120199
H	 0.8255392178	-1.9556010989	-1.1507471783	 0.147291
H	 0.1848317049	-3.615031927	-1.1072549831	 0.11726
H	-1.3662933234	-4.2455690224	 1.0282091415	 0.071458
H	-0.9393177602	-5.1395059221	 4.2235806305	 0.127299
H	-1.0671120878	-5.8274176153	 2.585906259	 0.094147
H	 0.5122056058	-5.6983220149	 3.4002161306	 0.127272
47.731	64.2513	84.8164	97.9555	156.9146	203.5374	204.3466	229.4358	263.7433	294.83	302.2204	385.7003	438.2826	454.3474	545.2105	677.5953	831.4108	906.0162	947.6615	964.7686	983.9561	1032.5894	1079.2749	1129.7588	1140.4273	1142.7816	1156.5975	1175.0723	1185.4012	1230.7444	1250.9625	1322.8338	1357.83	1367.0989	1397.5306	1417.2712	1420.2018	1450.2027	1468.3093	1480.4622	1481.7684	1488.4251	1492.3592	1495.9859	1504.999	1516.3563	1777.0754	2962.9548	2975.1826	2985.3649	2991.9657	2999.3636	3046.8559	3056.3845	3061.2256	3075.8764	3076.0075	3114.4758	3120.3165	3142.5574
COCC(C)OC=NC	COC[C@@H](C)OC=NC	
InChI=1S/C6H13NO2/c1-6(4-8-3)9-5-7-2/h5-6H,4H2,1-3H3	InChI=1S/C6H13NO2/c1-6(4-8-3)9-5-7-2/h5-6H,4H2,1-3H3/t6-/m1/s1
