19
gdb 49064	2.6641	1.53143	1.27766	3.1516	75.	-0.2465	-0.0276	0.2189	1057.4765	0.159741	-423.035204	-423.027189	-423.026245	-423.068076	30.547	
O	-0.9771808965	 1.5272462274	 0.5237434162	-0.262001
C	 0.043681478	 1.0243488019	 0.1273152197	 0.101546
C	 1.3476119648	 1.7634509941	-0.0315802959	 0.325301
C	 1.5327557868	 3.0556262417	 0.8115661391	-0.278488
C	 1.7669253021	 3.8857016079	-0.4802796287	-0.230559
C	 1.5152064134	 2.6230911077	-1.3528015612	-0.074163
C	 2.7297154116	 1.9835171233	-2.0318263737	-0.235849
C	 3.4425020354	 1.2784145227	-0.8676640474	-0.095871
O	 2.400005245	 0.8214315878	-0.0077995674	-0.30564
H	 0.0977859222	-0.0414110189	-0.1869382736	 0.085258
H	 0.6201541108	 3.3153574148	 1.3509237064	 0.129833
H	 2.3682897087	 3.0010223898	 1.5123998368	 0.10926
H	 1.0498841487	 4.6928623973	-0.6408536342	 0.111468
H	 2.7744191515	 4.2987484339	-0.5835628878	 0.099476
H	 0.6402852816	 2.6812329215	-2.0012126221	 0.086683
H	 2.4048532152	 1.2472001607	-2.7734922951	 0.111455
H	 3.3697171667	 2.715016919	-2.5336492148	 0.10827
H	 4.031987807	 0.4085237847	-1.167497368	 0.115277
H	 4.1062817472	 1.9737326829	-0.3318678983	 0.098742
80.2883	95.1997	206.4052	223.4071	247.339	374.8618	400.1502	484.3901	595.4095	646.6078	693.3857	747.7668	805.0857	827.0879	888.7355	906.9239	927.7393	960.9191	963.6565	1005.8962	1035.7791	1070.122	1096.8774	1143.7749	1159.5605	1166.7797	1223.3672	1231.6724	1240.8708	1254.0108	1272.9537	1295.9632	1311.722	1336.4888	1382.5618	1402.1966	1464.2876	1484.5622	1490.0843	1520.2915	1825.139	2894.1617	2991.9606	3052.3355	3059.3359	3075.2895	3095.7739	3098.8745	3105.5631	3115.7454	3139.0311
O=CC12CCC1CCO2	O=C[C@]12CC[C@H]1CCO2	
InChI=1S/C7H10O2/c8-5-7-3-1-6(7)2-4-9-7/h5-6H,1-4H2	InChI=1S/C7H10O2/c8-5-7-3-1-6(7)2-4-9-7/h5-6H,1-4H2/t6-,7+/m0/s1
