17
gdb 74327	3.65753	0.9889	0.81861	2.1885	76.03	-0.2242	0.0519	0.2761	1367.5032	0.136138	-417.997467	-417.988608	-417.987664	-418.031937	32.636	
N	 0.0490624222	 1.3551722419	-0.0954459282	-0.573466
C	-0.0390994782	-0.0079997153	-0.0516369134	 0.469874
N	-1.0811403964	-0.6989904374	 0.1968488059	-0.340352
C	-0.6969776374	-2.1007408267	 0.0305777999	 0.010539
C	-1.5370023325	-2.807644068	-1.0572958604	-0.359511
C	-2.9392881267	-2.9661330866	-0.6986438166	 0.316852
C	-4.0906065582	-3.1167707283	-0.3894948292	-0.442998
C	 0.8164419828	-2.0463899419	-0.3372957259	-0.129084
O	 1.1284483701	-0.6401208276	-0.3589919299	-0.251604
H	 0.9653146609	 1.7370333607	 0.0792394238	 0.263403
H	-0.7096554779	 1.8319323154	 0.3656061694	 0.270257
H	-0.8514084537	-2.6387615697	 0.9732880732	 0.090934
H	-1.449332068	-2.234731899	-1.9892950359	 0.130502
H	-1.0986447228	-3.7963654556	-1.2514608698	 0.12244
H	-5.1105748047	-3.2354075239	-0.1205684803	 0.191562
H	 1.4607388361	-2.5324241525	 0.4003428313	 0.116578
H	 1.0344687844	-2.4619047755	-1.3270263641	 0.114074
37.5232	79.9901	135.6916	193.035	296.2827	344.7425	375.1683	399.2529	437.9194	514.4123	544.1333	612.5127	633.8094	696.2568	730.7348	758.7718	861.5986	901.0728	930.2704	962.7012	1035.6904	1044.0596	1053.862	1106.689	1180.1336	1218.9781	1243.4031	1292.0558	1327.6728	1348.0813	1380.8563	1434.2012	1462.0211	1524.8205	1618.8814	1758.9521	2241.7685	3010.1188	3025.9448	3044.3023	3054.0865	3094.2256	3508.6203	3594.0559	3708.3233
NC1=NC(CC#C)CO1	NC1=N[C@@H](CC#C)CO1	
InChI=1S/C6H8N2O/c1-2-3-5-4-9-6(7)8-5/h1,5H,3-4H2,(H2,7,8)	InChI=1S/C6H8N2O/c1-2-3-5-4-9-6(7)8-5/h1,5H,3-4H2,(H2,7,8)/t5-/m0/s1
