16
gdb 123348	6.97033	0.72091	0.68505	0.3238	76.6	-0.2585	-0.0085	0.25	1573.2299	0.125455	-396.904074	-396.89565	-396.894706	-396.939002	30.	
C	-0.0108560015	-1.2272703839	-0.022069911	-0.441052
C	-0.0258759077	-0.0283637235	 0.0630421196	 0.294731
C	-0.0051318412	 1.4251750284	 0.1590229454	-0.343367
C	 1.3916990601	 2.0221474659	-0.1510892158	-0.30606
C	 1.4080745078	 3.5141438711	-0.0418760134	 0.307217
N	 0.8389880048	 4.3007439992	-0.962852841	-0.26668
N	 1.0468667484	 5.523284962	-0.4936198138	-0.068495
N	 1.7041482789	 5.6193005972	 0.6520205619	-0.192102
C	 1.9435093483	 4.3441575298	 0.9613869033	-0.135021
H	-0.0139520069	-2.2864191516	-0.0955709229	 0.195415
H	-0.7344481657	 1.8579747861	-0.5354833272	 0.148709
H	-0.3163931275	 1.7354943015	 1.1642100842	 0.133251
H	 2.1257803864	 1.5968533765	 0.539215479	 0.121117
H	 1.6863539435	 1.7197576764	-1.1602808127	 0.134412
H	 0.7315684029	 6.3402427617	-0.9914023158	 0.293756
H	 2.4780339597	 4.0825308333	 1.8609393901	 0.124171
23.1832	63.3718	97.9657	187.0997	315.4642	365.1099	372.7688	478.1278	532.8295	619.0719	643.8679	707.0534	725.1547	767.0938	776.3786	881.8283	969.1705	996.2125	1013.522	1015.3259	1036.0074	1156.3724	1176.6645	1207.9697	1254.9144	1286.686	1308.934	1351.428	1373.3324	1409.1572	1471.7259	1480.8323	1496.1958	1563.4605	2239.2038	3029.8548	3060.4211	3064.9323	3107.25	3267.09	3507.3597	3667.777
C#CCCC1=NNN=C1	C#CCCc1n[nH]nc1	
InChI=1S/C6H7N3/c1-2-3-4-6-5-7-9-8-6/h1,5H,3-4H2,(H,7,8,9)	InChI=1S/C6H7N3/c1-2-3-4-6-5-7-9-8-6/h1,5H,3-4H2,(H,7,8,9)
