20
gdb 92421	2.03503	1.79041	1.20049	2.5821	80.71	-0.2116	-0.0322	0.1794	1113.8821	0.169904	-403.113376	-403.104535	-403.103591	-403.146992	32.97	
C	-0.0863287076	 1.5575592702	-0.0786498736	-0.339674
N	-0.0235045881	 0.1304512799	 0.138422423	-0.109821
C	-1.2203735322	-0.6144502373	 0.5601905864	-0.178683
C	-0.3311590057	-1.5415347959	 1.4084882553	-0.088943
C	 0.5129827432	-2.594879767	 0.6360530847	-0.223429
C	 1.732269188	-1.623316828	 0.6004484177	-0.26235
C	 0.8405405353	-0.4980523307	 1.167028968	 0.253536
C	 1.3382742932	 0.3430837273	 2.2988727604	 0.068315
O	 2.374449263	 0.1492685788	 2.8890008949	-0.261315
H	 0.9248046988	 1.9552113027	-0.21625046	 0.129403
H	-0.6486624637	 1.7608221535	-0.9975435509	 0.125341
H	-0.5718616451	 2.1244687709	 0.7362736899	 0.097849
H	-1.9091334704	-0.0193060814	 1.1839409576	 0.086187
H	-1.7960791166	-1.0662499529	-0.258185946	 0.098989
H	-0.6779700496	-1.8118657168	 2.4041853837	 0.087897
H	 0.6859064542	-3.5241970047	 1.1824287993	 0.106947
H	 0.0982876271	-2.8428319134	-0.3441378945	 0.108272
H	 2.5166212302	-1.8975140836	 1.3090362785	 0.1247
H	 2.1729356841	-1.4152654788	-0.3758505206	 0.102695
H	 0.656628952	 1.1688189672	 2.6043775262	 0.074084
81.7765	95.335	186.9241	200.875	213.9368	280.5171	290.8181	369.1081	393.3381	514.3607	608.5266	703.8827	718.8982	788.2766	814.8869	850.7707	919.0412	954.1179	984.1036	1008.436	1035.781	1081.7121	1109.6988	1121.3671	1139.4027	1164.8214	1181.037	1212.3049	1230.0095	1242.5238	1252.3465	1274.6904	1300.2033	1317.9385	1338.9057	1425.5044	1451.4775	1466.7203	1479.1357	1485.6942	1510.6622	1522.0581	1803.6351	2871.2681	2937.6511	2953.1149	3028.6368	3046.0913	3065.4591	3076.3657	3093.6433	3112.0002	3129.4186	3139.8614
CN1CC2CCC12C=O	CN1C[C@H]2CC[C@@]12C=O	
InChI=1S/C7H11NO/c1-8-4-6-2-3-7(6,8)5-9/h5-6H,2-4H2,1H3	InChI=1S/C7H11NO/c1-8-4-6-2-3-7(6,8)5-9/h5-6H,2-4H2,1H3/t6-,7+/m1/s1
