19
gdb 97410	5.85998	0.72995	0.70052	4.1973	81.68	-0.2354	0.0291	0.2644	1656.3072	0.158501	-419.146497	-419.137582	-419.136638	-419.181528	32.262	
C	 0.1215227926	 1.3806300429	 0.077322545	-0.314275
N	-0.109026294	-0.0451501706	-0.0136160462	-0.207218
C	 0.522683728	-0.6763917044	-0.8982553564	 0.131352
O	 0.3424454799	-2.0021429182	-1.0667220011	-0.206943
C	 1.189145873	-2.6459636829	-1.9980716882	 0.159301
C	 2.5067827041	-3.3350013935	-1.4822339098	-0.265214
C	 1.9873309957	-4.636575578	-2.102097514	-0.045885
N	 0.7458866523	-4.9447357786	-1.362762468	-0.313669
C	 0.6977493117	-3.9950210436	-2.500450591	-0.096259
H	 0.8525615273	 1.7660899575	-0.653261383	 0.092335
H	-0.8230407308	 1.9175150347	-0.0684107109	 0.126583
H	 0.4769121163	 1.6326617454	 1.0831256652	 0.126941
H	 1.2426812001	-0.2219638682	-1.5994133519	 0.06692
H	 1.4080960377	-1.975230636	-2.8376226484	 0.087085
H	 3.4064222774	-2.9259758623	-1.9457926254	 0.104162
H	 2.6150058864	-3.3674477133	-0.3966722158	 0.125987
H	 2.5530214376	-5.4063361363	-2.610128898	 0.099931
H	 0.388420602	-5.8315490063	-1.7176958122	 0.23219
H	 0.0488357627	-4.1769421285	-3.3479568601	 0.096675
28.9498	83.7679	101.5198	202.0394	210.2129	293.1775	342.032	384.3913	433.4009	485.2919	654.3858	700.5477	803.2954	832.3353	864.1439	900.9276	956.6963	981.564	998.2658	1008.5448	1043.7611	1063.5333	1087.0549	1116.3547	1134.0343	1141.5524	1154.7915	1164.4349	1209.7802	1245.1957	1257.0461	1295.7577	1334.4385	1373.3881	1392.2531	1423.2958	1450.8286	1469.5165	1480.8857	1505.5126	1779.8766	2960.2526	2973.2608	3033.5484	3055.327	3075.1025	3076.2848	3139.4643	3190.6131	3207.9362	3473.5008
CN=COC1CC2NC12	CN=CO[C@H]1C[C@H]2N[C@@H]12	
InChI=1S/C6H10N2O/c1-7-3-9-5-2-4-6(5)8-4/h3-6,8H,2H2,1H3	InChI=1S/C6H10N2O/c1-7-3-9-5-2-4-6(5)8-4/h3-6,8H,2H2,1H3/t4-,5+,6-/m1/s1
