17
gdb 125890	3.68593	1.19773	1.17473	2.8822	74.26	-0.2734	-0.024	0.2494	1117.7481	0.13765	-414.161938	-414.154141	-414.153197	-414.195317	28.581	
C	-0.1253285731	 1.5236938919	-0.0519251468	-0.41999
C	-0.0023082748	 0.0192939033	 0.0261608523	-0.007628
C	 1.321712882	-0.663906617	-0.2196164631	-0.315501
C	 0.7369046532	-0.6622076553	 1.1622102783	 0.05569
N	 1.3637532824	 0.1125101039	 2.1974873871	 0.141014
N	 0.8527868988	 0.1868805029	 3.4224406821	-0.252976
C	 1.7160748972	 1.0025203721	 4.0155835356	 0.076287
N	 2.7024339511	 1.4120528197	 3.190083599	-0.210137
N	 2.4681779693	 0.8339488228	 2.0358444083	-0.126904
H	 0.7811773937	 2.0192668336	 0.3052077332	 0.144541
H	-0.2910371805	 1.83804487	-1.0873317364	 0.127659
H	-0.9681480234	 1.8821311122	 0.5480255546	 0.128279
H	-0.8855424978	-0.5258381303	-0.2959782056	 0.100527
H	 1.3486363798	-1.6121982705	-0.7440566356	 0.125964
H	 2.1841040322	-0.0281397451	-0.3796106566	 0.15722
H	 0.3233706437	-1.5733511774	 1.5742699554	 0.128875
H	 1.634160226	 1.2995721932	 5.0484443783	 0.147079
34.0048	109.64	188.2365	221.9308	265.6233	352.523	449.0706	516.5612	669.5005	720.509	733.4988	781.4048	838.546	888.126	901.2296	935.2973	1027.0491	1033.4778	1056.2145	1075.7165	1087.8145	1111.0704	1144.3215	1163.2777	1196.7737	1211.1987	1223.6211	1265.4987	1321.5763	1376.8932	1399.8356	1424.9979	1432.5236	1481.5156	1494.7326	1499.041	1504.4048	3039.5097	3101.6701	3119.3582	3146.0962	3148.4131	3201.8849	3239.9178	3287.0586
CC1CC1N1N=CN=N1	C[C@H]1C[C@H]1n1ncnn1	
InChI=1S/C5H8N4/c1-4-2-5(4)9-7-3-6-8-9/h3-5H,2H2,1H3	InChI=1S/C5H8N4/c1-4-2-5(4)9-7-3-6-8-9/h3-5H,2H2,1H3/t4-,5+/m0/s1
