19
gdb 67026	2.13211	2.09592	1.63887	0.8746	79.33	-0.2226	0.0178	0.2404	947.8348	0.159079	-385.865744	-385.857749	-385.856805	-385.897585	32.214	
C	-0.0241186255	 1.5297646653	-0.0046563055	-0.515125
C	-0.0150919178	 0.0333026507	 0.0243791566	 0.308288
C	 0.4644676259	-1.0166294818	-0.949185341	-0.125082
C	 1.2951409312	-1.7039638419	 0.1251833409	-0.283847
C	 0.4804512815	-0.8784661797	 1.2037371791	 0.322453
O	 1.1957358	-0.2128488459	 2.2055731473	-0.499287
C	-0.7185127868	-1.7157312369	 1.5935021109	-0.182858
C	-1.550508932	-1.7796234854	 0.5483690698	-0.075933
C	-1.0383177437	-0.9139949566	-0.5489220148	-0.136389
H	 0.9642481594	 1.9352255438	 0.2351477086	 0.130156
H	-0.3094266943	 1.8944297255	-0.9970466322	 0.114996
H	-0.7351596672	 1.9371255805	 0.7227330286	 0.126619
H	 0.7430060544	-0.9012200954	-1.9906227978	 0.084259
H	 1.2864219381	-2.7969183937	 0.2008966382	 0.082975
H	 2.3225368049	-1.3305569172	 0.0989947015	 0.105111
H	 1.5148957512	-0.8640370493	 2.8390014684	 0.27829
H	-0.7734157091	-2.2936230369	 2.5093996428	 0.08808
H	-2.4376590788	-2.395653564	 0.4664447915	 0.096661
H	-1.6916991216	-0.566256621	-1.3417794931	 0.080636
156.1373	181.407	194.717	207.4707	325.5075	358.732	412.4279	448.1315	532.8025	596.9655	636.8309	711.2104	729.6315	756.2521	790.4644	838.0632	876.4868	911.9739	935.4886	941.9237	972.1386	994.7221	1025.7909	1047.9249	1066.5939	1108.7729	1120.2651	1152.1319	1194.9179	1214.5911	1241.067	1247.0829	1299.7237	1349.5322	1372.4894	1406.5579	1451.7785	1480.2873	1485.0793	1498.1251	1641.7081	3027.9104	3033.5139	3091.7425	3100.2483	3103.0693	3167.4822	3177.0942	3186.1791	3214.3617	3812.0922
CC12C3CC1(O)C=CC23	C[C@@]12[C@H]3C[C@]1(O)C=C[C@@H]23	
InChI=1S/C8H10O/c1-7-5-2-3-8(7,9)4-6(5)7/h2-3,5-6,9H,4H2,1H3	InChI=1S/C8H10O/c1-7-5-2-3-8(7,9)4-6(5)7/h2-3,5-6,9H,4H2,1H3/t5-,6+,7-,8-/m1/s1
