17
gdb 75713	2.23261	1.69708	1.33632	2.7684	68.38	-0.2361	-0.0448	0.1913	1021.7525	0.133774	-458.932081	-458.923329	-458.922384	-458.96558	31.888	
C	-0.3448033194	 1.5161710526	-0.1398395037	-0.508464
C	 0.0256207425	 0.0590109571	 0.0095994095	 0.265494
C	-1.0588556336	-0.9551026807	 0.4137264001	-0.120117
O	-0.2367091748	-1.5031857808	 1.4790494835	-0.282873
C	 0.8302120831	-0.5675764645	 1.2086201276	-0.07527
C	 1.7589202859	-1.2534724667	 0.1810088802	 0.377148
O	 2.5715312796	-2.1318616423	 0.2196734857	-0.304165
C	 1.0643947202	-0.5395439836	-0.9926106655	-0.03607
O	 0.6088284077	-1.3081278398	-2.0719989422	-0.431283
H	 0.5456487091	 2.1458401686	-0.2404466412	 0.122884
H	-0.9605444996	 1.6689404379	-1.0336661387	 0.135908
H	-0.9143385023	 1.8735075784	 0.7240492608	 0.126929
H	-1.9709821607	-0.5037304209	 0.8208079824	 0.107655
H	-1.3185234217	-1.7022136829	-0.3422767056	 0.12362
H	 1.2119322013	-0.0606745956	 2.09768114	 0.095755
H	 1.7208984636	 0.2801811289	-1.3370176854	 0.099641
H	 1.1326563891	-2.1183129657	-2.0893835075	 0.303206
67.2606	152.0363	187.217	204.156	211.7803	240.8213	275.0602	318.4482	474.6846	512.4028	598.3627	646.3841	669.7309	818.5822	840.0808	893.9958	948.9821	983.3211	993.7879	1000.5316	1055.2532	1127.5506	1139.9703	1144.0066	1170.9022	1188.8981	1258.1167	1263.0734	1280.4302	1329.257	1354.8513	1397.2123	1414.7227	1490.6578	1494.0544	1519.5445	1886.9702	2943.1847	3026.9017	3032.0971	3090.6272	3091.6203	3093.8142	3101.7245	3786.9199
CC12COC1C(=O)C2O	C[C@]12CO[C@H]1C(=O)[C@H]2O	
InChI=1S/C6H8O3/c1-6-2-9-5(6)3(7)4(6)8/h4-5,8H,2H2,1H3	InChI=1S/C6H8O3/c1-6-2-9-5(6)3(7)4(6)8/h4-5,8H,2H2,1H3/t4-,5+,6-/m1/s1
