15
gdb 124898	3.76521	1.34951	1.07061	2.4415	67.04	-0.282	-0.0378	0.2443	1083.0592	0.112374	-453.925354	-453.917669	-453.916724	-453.958269	27.885	
C	 0.1623235504	 1.4633677729	 0.3121035819	-0.467906
C	-0.0361340427	 0.0104479312	-0.043980437	 0.266044
C	 0.5409461156	-0.5688315164	-1.2758202443	-0.211943
O	 1.1295963089	-0.8261730365	-0.00605251	-0.25435
C	-1.2503862919	-0.6228476317	 0.5256327807	 0.436288
N	-2.186624213	-0.0508643836	 1.2263052785	-0.330454
C	-3.0377576289	-1.101479231	 1.4631086927	 0.032193
N	-2.6683155224	-2.2441587789	 0.9547175906	-0.105104
O	-1.4617155582	-1.9284604464	 0.3194120788	-0.200616
H	 1.0901703277	 1.8253482644	-0.1356050071	 0.13105
H	-0.673729016	 2.0676147135	-0.0494666633	 0.143102
H	 0.2200916153	 1.5882102621	 1.3964338957	 0.147369
H	 0.0593344552	-1.4214657035	-1.7494265324	 0.137822
H	 1.1073811577	 0.087097929	-1.9354378233	 0.125092
H	-3.9526672579	-1.0108973251	 2.0302353085	 0.151413
45.7813	165.6483	182.6389	189.888	320.2322	352.5857	449.5677	451.9199	563.5911	656.4355	777.5055	806.7855	871.8963	918.2171	930.3589	936.656	981.3495	1014.9263	1028.3995	1103.2654	1141.3353	1163.5607	1175.8306	1196.7186	1271.5004	1353.4792	1371.801	1419.3739	1475.7965	1487.4564	1520.958	1521.983	1615.7408	3055.1917	3090.0259	3128.0344	3140.4826	3186.3802	3263.2189
CC1(CO1)C1=NC=NO1	C[C@]1(CO1)c1ncno1	
InChI=1S/C5H6N2O2/c1-5(2-8-5)4-6-3-7-9-4/h3H,2H2,1H3	InChI=1S/C5H6N2O2/c1-5(2-8-5)4-6-3-7-9-4/h3H,2H2,1H3/t5-/m0/s1
