17
gdb 66820	2.77728	2.20904	1.82036	3.8618	75.76	-0.2084	-0.0454	0.163	833.4853	0.13675	-380.742568	-380.736048	-380.735104	-380.772887	27.709	
C	-0.016364069	 1.5906203075	-0.1235224447	-0.519563
C	 0.078628368	 0.0918926166	-0.0872349301	 0.317511
C	 0.7388455945	-0.7946724055	-1.1312905423	-0.179469
C	 1.1521711663	-1.9711653589	-0.2564871355	-0.010065
N	 1.0673832874	-1.7559044339	 1.1494568961	-0.138013
C	 0.3546880244	-0.6891564631	 1.2512423553	 0.019348
N	-1.0568704502	-0.954327629	 1.5970194263	-0.339893
C	-1.1245341754	-0.8729608068	 0.0372682203	-0.055568
C	-0.2949307768	-1.8775581119	-0.8375374933	-0.101568
H	 0.9780048674	 2.0459291477	-0.0616143769	 0.134395
H	-0.4900801623	 1.9421777819	-1.0463880796	 0.123002
H	-0.603285398	 1.9686240041	 0.7213751134	 0.118099
H	 1.2275560604	-0.5125977744	-2.0535145847	 0.098577
H	 1.8046115467	-2.7462792764	-0.6407941542	 0.104942
H	-1.5341433468	-0.0961909282	 1.8901690037	 0.223457
H	-2.1137190388	-0.6122246899	-0.342200939	 0.102111
H	-0.6928113277	-2.6524623799	-1.4772291247	 0.102699
214.9867	234.6636	255.6285	403.4075	516.482	528.3093	588.1602	677.7795	696.9043	709.4816	728.7208	759.2819	802.7978	827.0721	848.6593	859.5373	925.269	940.7748	951.2266	991.7277	997.501	1041.1422	1079.8213	1092.3963	1112.7811	1151.3728	1174.8389	1188.3724	1215.7649	1255.4822	1305.4519	1325.8902	1346.4283	1415.0166	1484.699	1497.1276	1544.4994	3025.5986	3090.8885	3094.0849	3109.9386	3190.6538	3208.8823	3222.6629	3394.2163
CC12C3C4N=C1NC2C34	C[C@@]12[C@H]3[C@H]4[N][C]1N[C@@H]2[C@@H]34	
InChI=1S/C7H8N2/c1-7-3-2-4(3)8-6(7)9-5(2)7/h2-5H,1H3,(H,8,9)	InChI=1S/C7H8N2/c1-7-3-2-4(3)8-6(7)9-5(2)7/h2-5H,1H3,(H,8,9)/t2-,3+,4-,5+,7-/m0/s1
