19
gdb 63129	2.24014	1.57062	1.16031	4.4219	77.87	-0.2354	-0.0158	0.2196	1123.0454	0.15739	-423.009132	-423.000133	-422.999189	-423.042326	34.296	
C	-0.0478943589	 1.5731968882	 0.0424821614	-0.457744
C	 0.0594741574	 0.0644061504	 0.0575745933	 0.339976
O	-1.1152150239	-0.5716499305	-0.3897387468	-0.465563
C	 1.300753615	-0.7108197467	-0.2480386022	-0.167634
C	 2.5745736049	-0.0651059868	 0.3036006358	-0.243183
C	 1.950801978	-0.0428047127	 1.7359605568	-0.309522
C	 0.6824851679	-0.7132296294	 1.2028308753	 0.217302
C	 0.0072302125	-1.8295635027	 1.8805919439	 0.055662
O	 0.3386555446	-2.2359185432	 2.9736797056	-0.282828
H	 0.8518314087	 2.0640950852	 0.417022212	 0.129671
H	-0.215508736	 1.9253467949	-0.9826656434	 0.11269
H	-0.8977981253	 1.8916083292	 0.6529540724	 0.136076
H	-1.1838522242	-0.4285884361	-1.3400848982	 0.287212
H	 1.2570419706	-1.5295059483	-0.9577485239	 0.098996
H	 3.4374184463	-0.7306478727	 0.2409319222	 0.116372
H	 2.8507508207	 0.8977574077	-0.1371848264	 0.102926
H	 2.4674240694	-0.7001177497	 2.436117204	 0.134443
H	 1.8216515347	 0.9347530871	 2.2081843712	 0.103641
H	-0.8251154923	-2.2917220739	 1.3162837472	 0.091509
98.9105	186.578	194.6114	217.317	248.1766	256.6963	279.4863	333.5376	389.662	411.8722	503.5826	566.0306	643.7351	685.0493	763.1071	791.1271	879.2623	931.623	949.1979	956.2339	996.3789	1013.8492	1051.5281	1081.668	1103.3524	1144.2006	1185.2347	1219.9341	1229.3836	1253.1528	1272.0597	1310.6215	1334.5028	1409.2022	1416.3787	1448.9131	1475.5523	1496.1805	1499.2242	1506.0896	1782.2481	2953.0371	3033.4544	3054.1865	3067.7315	3100.481	3109.846	3134.1678	3140.008	3177.6162	3800.1834
CC1(O)C2CCC12C=O	C[C@@]1(O)[C@H]2CC[C@@]12C=O	
InChI=1S/C7H10O2/c1-6(9)5-2-3-7(5,6)4-8/h4-5,9H,2-3H2,1H3	InChI=1S/C7H10O2/c1-6(9)5-2-3-7(5,6)4-8/h4-5,9H,2-3H2,1H3/t5-,6-,7+/m1/s1
