16
gdb 67411	2.72909	1.54637	1.27773	3.9108	74.44	-0.2532	0.0131	0.2663	1017.9049	0.124342	-400.702446	-400.694826	-400.693882	-400.734506	29.088	
C	-0.1630310174	 1.5344452099	-0.0507231067	-0.528731
C	-0.0134421141	 0.0518691512	 0.0040438913	 0.230807
C	 0.0886515359	-1.0447578994	-0.9874051608	 0.017259
O	 1.2169895514	-1.6752315469	-0.4162685633	-0.286142
C	 0.8905538897	-0.9658114791	 0.8152353763	 0.009995
C	-0.3805846809	-1.6859806833	 1.322924267	-0.29167
C	-1.0572456398	-1.087599012	 0.0874919765	 0.128229
C	-2.4327046648	-1.0373286887	-0.257491264	 0.164468
N	-3.5530850421	-0.9820732769	-0.5484162474	-0.353647
H	 0.7733960337	 2.0128929124	-0.3561660019	 0.139179
H	-0.9377586127	 1.8114977152	-0.7725657253	 0.148364
H	-0.4540989153	 1.9433379643	 0.9225394854	 0.13627
H	-0.0953499631	-1.1098883982	-2.0516348945	 0.134586
H	 1.7526195155	-0.7551884801	 1.4427726058	 0.104469
H	-0.3206123652	-2.7735619348	 1.4125848157	 0.122475
H	-0.7671697307	-1.2377399537	 2.240749416	 0.12409
114.2522	155.1964	200.262	223.9514	282.19	441.3185	464.8523	534.2542	548.872	584.6049	667.1307	703.3419	771.2785	830.7777	913.0202	925.9855	934.767	981.1913	1026.2138	1039.8678	1090.8151	1108.5588	1134.0381	1172.0021	1177.8619	1219.262	1242.347	1283.8284	1317.4914	1412.7112	1459.7277	1482.3909	1488.3521	1495.3061	2336.1526	3033.0305	3065.8818	3098.7171	3108.1955	3130.8294	3161.9083	3217.3061
CC12C3OC1CC23C#N	C[C@@]12[C@H]3O[C@@H]1C[C@@]23C#N	
InChI=1S/C7H7NO/c1-6-4-2-7(6,3-8)5(6)9-4/h4-5H,2H2,1H3	InChI=1S/C7H7NO/c1-6-4-2-7(6,3-8)5(6)9-4/h4-5H,2H2,1H3/t4-,5-,6+,7+/m1/s1
