16
gdb 19301	3.53507	1.84853	1.48533	2.5862	59.21	-0.2532	0.0577	0.3109	857.7852	0.130732	-420.8241	-420.816868	-420.815924	-420.855531	27.707	
O	 0.0977598562	 1.3322550559	 0.2119921183	-0.427767
C	 0.0549213958	-0.0264052477	-0.1866866748	-0.088355
C	-1.3626442591	-0.5821081447	-0.0855088197	-0.078055
C	-1.5682093951	-2.1016024186	-0.045490346	 0.005795
O	-0.9183906658	-2.5898513239	 1.1442177851	-0.258714
C	-2.2438648312	-2.046285323	 1.2620200182	-0.017129
C	-2.0402176455	-0.5268222858	 1.3492382178	 0.097356
O	-1.2476644049	-0.0720616162	 2.4235959942	-0.436148
H	-0.1874365154	 1.3423955013	 1.1351266207	 0.2914
H	 0.4069819766	-0.062643558	-1.2233562693	 0.108048
H	 0.7395507104	-0.6477502408	 0.4094635116	 0.090547
H	-2.0152366818	-0.1035877414	-0.8215876101	 0.087147
H	-1.6912987331	-2.8095560523	-0.8562580108	 0.113602
H	-3.00123291	-2.6812352262	 1.706669698	 0.111567
H	-2.9643391171	 0.0535121855	 1.3578231142	 0.102342
H	-0.56507688	-0.744765334	 2.5514279327	 0.298364
125.9483	142.2136	202.1488	265.4269	337.0852	471.2511	490.481	580.4265	603.0176	656.946	718.5426	788.4308	851.2087	870.0138	905.2044	942.2457	996.7816	1012.2918	1054.3902	1076.2238	1096.6288	1121.4846	1171.7186	1216.7755	1235.533	1239.278	1262.2767	1302.3259	1331.5159	1371.8403	1402.71	1434.4711	1444.0372	1512.704	2993.7812	3062.5256	3077.1228	3107.3336	3184.7859	3200.4298	3760.0717	3765.1971
OCC1C2OC2C1O	OC[C@H]1[C@H]2O[C@H]2[C@H]1O	
InChI=1S/C5H8O3/c6-1-2-3(7)5-4(2)8-5/h2-7H,1H2	InChI=1S/C5H8O3/c6-1-2-3(7)5-4(2)8-5/h2-7H,1H2/t2-,3+,4-,5+/m1/s1
