16
gdb 36591	2.96878	0.92478	0.76848	4.0953	74.07	-0.2905	0.0042	0.2947	1428.4595	0.124361	-396.927985	-396.919088	-396.918144	-396.962501	31.474	
N	 0.0388875989	-1.177484362	-0.0124711667	-0.295104
C	 0.0112149394	-0.0242431792	-0.0754283997	 0.260091
C	 0.0102749501	 1.4337957561	-0.1537690674	-0.346858
C	 1.3849493902	 2.030473167	 0.2205113628	-0.282741
C	 1.4092578415	 3.5456747363	 0.0882368344	 0.143446
C	 2.686491084	 4.2344703232	-0.2688116705	-0.268301
N	 1.5912558831	 4.1738468586	-1.2389688592	-0.32059
C	 0.4649898174	 4.2357931405	 0.9470756279	 0.290528
N	-0.2896786749	 4.7429555529	 1.6608529971	-0.334204
H	-0.2722026375	 1.7309351934	-1.170160651	 0.160828
H	-0.7634965422	 1.8264121683	 0.515127246	 0.183514
H	 1.6358472109	 1.7442505029	 1.2468470012	 0.150057
H	 2.1605081935	 1.6102373388	-0.4281181384	 0.127519
H	 2.8899081345	 5.2223120336	 0.1311719402	 0.152506
H	 3.5587799988	 3.6012870202	-0.4078365937	 0.134101
H	 1.7661271123	 3.4486213594	-1.9316995327	 0.245208
59.5485	93.5603	117.1564	162.3402	226.3903	258.1909	343.3011	394.2946	413.3277	517.7288	571.2667	595.0238	712.8945	767.8423	849.1442	897.9689	940.7269	956.0981	985.9654	1030.1344	1047.2866	1089.4047	1146.7575	1190.7396	1242.9265	1292.0045	1300.972	1319.5476	1376.325	1390.1104	1468.4674	1484.2581	1509.1567	2358.271	2366.4467	3045.2413	3054.363	3082.5476	3103.8808	3118.5297	3213.3467	3494.6305
N#CCCC1(CN1)C#N	N#CCC[C@]1(CN1)C#N	
InChI=1S/C6H7N3/c7-3-1-2-6(4-8)5-9-6/h9H,1-2,5H2	InChI=1S/C6H7N3/c7-3-1-2-6(4-8)5-9-6/h9H,1-2,5H2/t6-/m1/s1
