14
gdb 132875	3.03472	1.39377	0.95661	4.8282	71.99	-0.1974	-0.0436	0.1538	1127.5427	0.101105	-477.986745	-477.979087	-477.978142	-478.018853	29.332	
N	 0.0382563377	 1.4352987283	 0.1466216765	-0.589046
C	-0.0006115895	 0.0329425916	 0.0321064898	 0.193671
C	-1.1367320868	-0.6905749153	-0.0017593353	-0.017582
O	-1.1464711458	-2.0592595486	-0.0025429846	-0.240772
C	 0.0058299117	-2.8140954752	-0.0225385238	 0.307081
N	-0.009021116	-4.0830515752	-0.0506191834	-0.538025
C	 1.2388249015	-2.0343447859	-0.0031622423	 0.209137
F	 2.3612829108	-2.7354205025	-0.0113824285	-0.044369
C	 1.2499626494	-0.6913387028	 0.0325739785	-0.246118
H	 0.7099658197	 1.8601374685	-0.4819098328	 0.249786
H	-0.8663571735	 1.867902051	 0.0080451386	 0.246644
H	-2.1401177327	-0.2868659472	-0.0089819293	 0.121141
H	-0.9687063509	-4.4289595956	-0.0572967849	 0.224816
H	 2.1924768744	-0.157002991	 0.0724272016	 0.123636
99.6688	206.1838	243.7813	309.2689	330.6375	340.2254	401.6798	461.6213	502.7262	578.2284	588.8545	677.2551	743.8544	751.6928	799.1309	830.5294	839.801	903.003	991.8289	1004.8032	1127.1173	1188.022	1228.2499	1237.4376	1333.0342	1403.3713	1450.2929	1634.7759	1659.1824	1706.3816	1745.8231	3200.792	3225.0257	3494.1778	3524.2829	3617.3336
NC1=COC(=N)C(F)=C1	NC1=CC(=C(OC1)[NH])F	
InChI=1S/C5H5FN2O/c6-4-1-3(7)2-9-5(4)8/h1-2,8H,7H2	InChI=1S/C5H6FN2O/c6-4-1-3(7)2-9-5(4)8/h1,8H,2,7H2
