19
gdb 111705	2.74364	1.17629	0.94772	0.9786	84.09	-0.232	0.031	0.263	1302.2635	0.157461	-385.815963	-385.806891	-385.805947	-385.849908	34.111	
C	 0.0337042827	 1.47733699	-0.2458104505	-0.376403
C	 0.0316501704	 0.0073147549	 0.192312837	-0.21423
C	-1.3571253666	-0.5941078405	 0.1477122905	-0.0787
C	-1.9418289841	-1.25616917	-1.0552276836	 0.040158
O	-0.9529160304	-1.9448589296	-1.8151240099	-0.280623
C	-0.6969587221	-2.8506224597	-0.7116523842	-0.140402
C	-1.668473796	-2.0951076665	 0.2031683317	 0.075586
C	-2.533319647	-2.6898912236	 1.157983042	 0.174582
C	-3.252967324	-3.2075853748	 1.972978967	-0.406127
H	 1.0426038039	 1.8984303051	-0.2017780959	 0.114597
H	-0.3291108557	 1.5797746337	-1.2735447754	 0.124721
H	-0.6104501744	 2.0861967555	 0.3981389503	 0.114226
H	 0.6972530651	-0.5639982283	-0.4612498921	 0.116978
H	 0.4306140348	-0.0787840935	 1.2102693787	 0.102614
H	-2.1094471394	-0.0420849259	 0.7091886239	 0.099729
H	-2.8690495518	-0.9922638982	-1.5516094408	 0.114808
H	-1.0515115976	-3.857368224	-0.9530888209	 0.122125
H	 0.3596399364	-2.8808844004	-0.4240828803	 0.110662
H	-3.8907657144	-3.6611530442	 2.6903185427	 0.185699
65.5307	125.7834	140.6625	200.3377	205.7324	264.8637	319.7279	391.7792	484.1912	513.0021	561.6357	588.2675	616.5618	654.6635	746.7751	788.8236	837.8908	902.339	932.4611	955.8261	992.6659	1019.7438	1027.0528	1077.9986	1083.1039	1118.001	1129.8577	1159.4347	1223.643	1261.7506	1285.8841	1312.8632	1339.7542	1377.7744	1409.6177	1461.1413	1482.5896	1497.9905	1505.201	1514.454	2230.9188	3033.1021	3034.9739	3037.1731	3082.7716	3091.279	3105.3351	3109.4669	3132.105	3180.3792	3502.6274
CCC1C2OCC12C#C	CC[C@H]1[C@H]2OC[C@@]12C#C	
InChI=1S/C8H10O/c1-3-6-7-8(6,4-2)5-9-7/h2,6-7H,3,5H2,1H3	InChI=1S/C8H10O/c1-3-6-7-8(6,4-2)5-9-7/h2,6-7H,3,5H2,1H3/t6-,7+,8-/m0/s1
