16
gdb 24236	4.05212	1.5869	1.24518	1.3548	74.38	-0.1759	0.0333	0.2092	972.1054	0.127694	-400.744596	-400.738217	-400.737273	-400.775107	26.543	
C	 0.0277477475	 1.4990438956	 0.0948471034	-0.301812
C	 1.3277912949	 0.7270741424	 0.0177559814	-0.00329
N	 2.0429627832	 0.3172056415	 1.232538865	-0.410329
C	 1.1025120565	-0.4541247109	 1.9133272966	 0.361181
C	-0.0365307194	-0.7594842621	 1.2458063912	 0.240681
C	-0.7499759862	-1.6481458624	 2.1137063676	-0.359621
C	 0.0234505037	-1.779723432	 3.2293302163	-0.031994
O	 1.1905739791	-1.0340033989	 3.1171730431	-0.205153
C	-0.0176360945	-0.0131074029	-0.0413527387	-0.198165
H	-0.2795774917	 1.9292480665	 1.0421213625	 0.11413
H	-0.2184843702	 2.0918513937	-0.7799242615	 0.112874
H	 1.9563562942	 0.846533237	-0.8567694366	 0.101523
H	 2.4638226621	 1.0774560697	 1.7548166783	 0.243666
H	-1.705188009	-2.1248227305	 1.9557825146	 0.110076
H	-0.0838489638	-2.3185766732	 4.1543602682	 0.130492
H	-0.3728467863	-0.4553383536	-0.9649480914	 0.095741
148.9365	252.0738	357.4519	423.2769	451.9936	588.0705	602.964	641.3035	653.2019	693.9198	743.1433	782.4749	810.7551	819.7915	837.1638	916.228	949.0033	973.1098	1020.8398	1040.2945	1056.1759	1093.3353	1120.4942	1139.0518	1170.2909	1191.5208	1240.0151	1305.0374	1325.4659	1354.5738	1425.1495	1465.1975	1499.4778	1529.1507	1648.187	3126.8779	3170.3154	3177.904	3218.7297	3250.8404	3297.9817	3539.4372
C1C2NC3=C(C=CO3)C12	C1[C@H]2Nc3c(cco3)[C@@H]12	
InChI=1S/C7H7NO/c1-2-9-7-4(1)5-3-6(5)8-7/h1-2,5-6,8H,3H2	InChI=1S/C7H7NO/c1-2-9-7-4(1)5-3-6(5)8-7/h1-2,5-6,8H,3H2/t5-,6-/m1/s1
