17
gdb 116129	2.59431	1.30716	0.91218	3.0746	65.21	-0.2594	0.0001	0.2594	1230.742	0.136103	-496.121388	-496.112984	-496.11204	-496.155005	30.717	
O	-0.0216448035	 1.4149016479	-0.0323226191	-0.418046
C	 0.0247371592	 0.0125297687	 0.0949978722	-0.065828
C	-1.346987979	-0.6194452396	-0.1173455559	 0.09591
C	-1.3729750155	-2.1312781843	 0.0097972374	-0.121339
O	-2.7110364129	-2.584397052	-0.0572932694	-0.236041
C	-3.4548140935	-2.1252909882	 1.0491217941	-0.218286
C	-3.2598542534	-0.6575309473	 1.41943061	 0.38464
O	-3.9740741415	-0.101690969	 2.2057955673	-0.316017
O	-2.2107507833	-0.0014265942	 0.872973992	-0.254687
H	-0.6960089898	 1.7270923745	 0.5828024319	 0.299276
H	 0.7160407634	-0.3557661698	-0.6705243012	 0.117323
H	 0.4127202401	-0.2971169577	 1.0790701528	 0.096919
H	-1.7349513152	-0.327661526	-1.1003002418	 0.113074
H	-0.8363515837	-2.5886801665	-0.8255065963	 0.130707
H	-0.8946044805	-2.4528586777	 0.9501184179	 0.102547
H	-4.5129792007	-2.2744355849	 0.8249551232	 0.157005
H	-3.2214382502	-2.7070119838	 1.9567529151	 0.132842
86.4608	101.4642	118.7743	191.9635	291.8164	368.7223	428.7292	440.4268	445.278	502.9586	543.072	561.7762	652.2011	799.8373	930.7553	946.7993	983.4755	1019.9517	1082.3173	1096.2526	1114.0295	1131.0246	1160.6895	1222.9483	1243.8933	1269.764	1289.7407	1318.2231	1366.7153	1388.7379	1402.7276	1419.7548	1439.4647	1467.3232	1489.9693	1498.9028	1854.2169	2969.3745	2976.3742	2980.0828	3051.1191	3077.2781	3102.4167	3117.7236	3796.8638
OCC1COCC(=O)O1	OC[C@H]1COCC(=O)O1	
InChI=1S/C5H8O4/c6-1-4-2-8-3-5(7)9-4/h4,6H,1-3H2	InChI=1S/C5H8O4/c6-1-4-2-8-3-5(7)9-4/h4,6H,1-3H2/t4-/m0/s1
