14
gdb 9089	3.47224	1.31551	1.00442	3.7807	60.	-0.2755	-0.0073	0.2681	1097.9735	0.105636	-415.850388	-415.841728	-415.840784	-415.88464	29.162	
O	 0.7912451867	 1.4665034562	 0.8493984453	-0.401267
C	 0.1644780734	 0.6553914442	-0.1213573448	-0.007747
C	 0.7981896669	 0.8576721974	-1.515629965	-0.115943
O	 0.0040269088	 0.2760644928	-2.5280518655	-0.179082
C	 0.3753266247	-0.9364204308	-3.0135705188	 0.135856
N	-0.3415716189	-1.5006299618	-3.8792635574	-0.432081
C	 0.1829459136	-0.7692356971	 0.2621950782	 0.25097
N	 0.2631551805	-1.8827001842	 0.5611564663	-0.312594
H	 1.6641558511	 1.1046770415	 1.0414978426	 0.302035
H	-0.8776776288	 0.9854156983	-0.1751257827	 0.162933
H	 0.8387198753	 1.9338841784	-1.7005525243	 0.1444
H	 1.822198184	 0.4606016834	-1.526403705	 0.114108
H	 1.314124615	-1.3083715209	-2.5830761024	 0.100369
H	 0.0707193578	-2.3905492274	-4.1505789365	 0.238043
54.2624	68.1269	131.4576	155.5739	234.6759	279.4314	315.075	363.6429	391.4919	567.6024	595.1473	668.8193	802.7277	820.1203	967.8339	1036.2416	1038.0228	1064.4648	1104.3394	1151.7254	1223.1272	1265.7798	1311.1487	1348.7666	1388.5187	1416.5749	1421.172	1497.6755	1751.9293	2354.4245	3019.0465	3037.423	3081.1711	3111.258	3525.9459	3804.1497
OC(COC=N)C#N	O[C@@H](CO[CH][NH])C#N	
InChI=1S/C4H6N2O2/c5-1-4(7)2-8-3-6/h3-4,6-7H,2H2	InChI=1S/C4H6N2O2/c5-1-4(7)2-8-3-6/h3-4,6-7H,2H2/t4-/m1/s1
