18
gdb 102887	2.09187	0.97245	0.69361	4.8964	77.88	-0.2737	-0.0027	0.271	1581.4044	0.146783	-398.142523	-398.132467	-398.131523	-398.178599	34.704	
C	-0.1398007487	 1.53888342	 0.1823113154	-0.412072
C	 0.019152767	 0.0218726379	 0.0470905735	-0.192318
C	 0.7228348463	-0.4086946509	-1.257383173	-0.100529
N	 2.115549101	 0.039303603	-1.2736925878	-0.30462
C	 2.7982324101	-0.2105178974	-2.5426678328	-0.27682
C	 4.1465298171	 0.3588941493	-2.5202768348	 0.261511
N	 5.1995117117	 0.8327169301	-2.5110887039	-0.29164
C	 0.6841347637	-1.8763006248	-1.3880556238	 0.306478
N	 0.6384871359	-3.0246851704	-1.5054656299	-0.322673
H	 0.8202991146	 2.0534597031	 0.2931428799	 0.130552
H	-0.6589033007	 1.9662308341	-0.6826036404	 0.125743
H	-0.7285561127	 1.7759188993	 1.0725649018	 0.136705
H	 0.5857944577	-0.3841019034	 0.8907091095	 0.136657
H	-0.9666563619	-0.4529381879	 0.0620983783	 0.129001
H	 0.1430854811	-0.0083000253	-2.111878153	 0.108935
H	 2.1436172669	 1.0304064932	-1.062782696	 0.243325
H	 2.8764371103	-1.2931554118	-2.6963486603	 0.184366
H	 2.2689673706	 0.1976734621	-3.4226497526	 0.137399
55.8912	86.6927	96.5277	123.1066	148.6723	220.679	239.6408	305.5126	328.6571	392.3029	431.7226	515.4533	551.8963	621.5755	732.6381	789.3428	864.9729	933.1069	966.3909	993.1246	1051.1875	1052.9292	1111.956	1149.7358	1169.1708	1248.0087	1282.1887	1322.4916	1356.531	1381.6086	1393.1186	1416.6881	1479.9897	1487.3584	1493.8712	1499.2589	1518.4597	2361.1598	2371.7125	2912.5062	2947.4689	3036.2944	3057.6986	3064.5959	3089.8249	3112.9638	3115.3846	3548.3413
CCC(NCC#N)C#N	CC[C@@H](NCC#N)C#N	
InChI=1S/C6H9N3/c1-2-6(5-8)9-4-3-7/h6,9H,2,4H2,1H3	InChI=1S/C6H9N3/c1-2-6(5-8)9-4-3-7/h6,9H,2,4H2,1H3/t6-/m1/s1
