21
gdb 99121	4.14766	0.70751	0.65569	3.0241	79.78	-0.2612	-0.0229	0.2383	1756.8998	0.180039	-424.231863	-424.22164	-424.220696	-424.268672	36.648	
C	-0.1251680466	 1.4134571908	-0.1523596085	-0.405002
C	 0.2206552875	-0.0603447091	-0.1425996089	-0.011672
C	 1.6575284765	-0.5257763614	-0.1240170569	-0.291207
C	 0.7694420875	-0.7699393764	 1.0737983688	 0.021506
C	 1.0232884903	-0.0607573688	 2.3862505864	-0.340507
C	 1.8420886695	-0.8863740322	 3.3628117813	 0.363576
O	 1.8916299503	-2.0980410125	 3.3329108253	-0.32172
C	 2.6143085353	-0.1446536181	 4.4462455205	-0.130315
O	 3.2119606389	-1.028067949	 5.3450391856	-0.419555
H	 0.5943849537	 2.0091290549	 0.4174442938	 0.111964
H	-0.1275016865	 1.8024678229	-1.1763391021	 0.120597
H	-1.1186296835	 1.5963394097	 0.272865354	 0.117256
H	-0.4535587063	-0.665334378	-0.7439520805	 0.086935
H	 1.9514832789	-1.3703506757	-0.7370905642	 0.115738
H	 2.4231771687	 0.2396947453	-0.0311703778	 0.104862
H	 0.4406681411	-1.7942300063	 1.2138376927	 0.105595
H	 1.508705309	 0.9113908197	 2.2469970637	 0.114592
H	 0.0741905148	 0.1566164514	 2.9018968788	 0.136291
H	 3.3626003775	 0.4913009298	 3.9399547005	 0.11321
H	 1.9268476338	 0.5459142134	 4.9616349792	 0.11398
H	 3.0315969797	-1.9104804902	 4.9815468185	 0.293875
28.5884	44.1045	100.6612	135.208	188.0871	210.6294	282.8421	318.154	375.211	409.1461	422.8277	476.9103	494.1643	697.3532	758.2461	804.861	826.2574	860.5659	886.1895	926.8474	954.2169	1008.7844	1060.0921	1064.5948	1079.6508	1112.3406	1144.6196	1151.249	1166.9148	1199.3653	1224.3471	1248.2739	1265.794	1304.4221	1336.2117	1393.9872	1418.8351	1432.4878	1451.4861	1453.4767	1490.7442	1493.3111	1493.9709	1507.7466	1796.7361	2954.4345	2986.1367	2996.2037	3028.7729	3066.718	3087.4804	3100.1373	3122.2241	3134.3003	3167.0842	3209.1896	3674.9983
CC1CC1CC(=O)CO	C[C@H]1C[C@H]1CC(=O)CO	
InChI=1S/C7H12O2/c1-5-2-6(5)3-7(9)4-8/h5-6,8H,2-4H2,1H3	InChI=1S/C7H12O2/c1-5-2-6(5)3-7(9)4-8/h5-6,8H,2-4H2,1H3/t5-,6-/m0/s1
