17
gdb 42191	2.93227	1.35876	1.0285	2.9982	81.78	-0.2545	-0.0561	0.1985	1157.4783	0.134747	-384.643445	-384.635075	-384.634131	-384.676819	31.524	
O	 0.0641622652	 0.2025066992	 0.9786437807	-0.318645
C	-0.0338575794	 1.249776189	 0.3638104419	 0.150044
C	 1.1291707922	 1.8559762539	-0.2706281825	 0.257562
C	 2.0968540811	 2.3550691886	-0.7846954252	-0.435394
C	-1.3119522623	 1.9662742315	 0.1903916473	 0.254087
C	-2.4727058028	 1.6694504191	 1.1156850584	-0.313121
C	-2.6346443189	 1.3020977733	-0.3132597774	-0.070413
C	-2.9234307688	 2.5334303066	-1.1778495029	-0.223362
C	-1.6055787521	 3.2037021127	-0.6672280972	-0.321941
H	 2.961746062	 2.7822678295	-1.2311384572	 0.212323
H	-2.2858347324	 0.8457040065	 1.7950824814	 0.145399
H	-3.0229994511	 2.509646789	 1.5335783617	 0.111749
H	-2.7346770238	 0.2688523956	-0.622284734	 0.111412
H	-2.8929686565	 2.3229881644	-2.2482975279	 0.112853
H	-3.8588582891	 3.0539347263	-0.9496378693	 0.105003
H	-1.7124136699	 4.1429963945	-0.1157587793	 0.102244
H	-0.8746988433	 3.3479862002	-1.4644147987	 0.120198
50.3359	128.1193	156.0647	238.5503	254.8262	308.5756	400.6217	472.8413	486.7179	640.6509	657.2093	694.0038	716.697	735.2797	786.351	822.7114	847.2049	917.0128	932.9881	971.2282	1002.5068	1020.6737	1088.206	1093.78	1107.4671	1160.4942	1220.9952	1231.4244	1249.3425	1288.1143	1315.5575	1387.1179	1473.3495	1482.6714	1503.4269	1728.2331	2209.5136	3050.2177	3057.7402	3109.949	3110.2876	3127.7983	3193.5453	3222.7925	3493.9156
O=C(C#C)C12CC1CC2	O=C(C#C)[C@]12C[C@H]1CC2	
InChI=1S/C8H8O/c1-2-7(9)8-4-3-6(8)5-8/h1,6H,3-5H2	InChI=1S/C8H8O/c1-2-7(9)8-4-3-6(8)5-8/h1,6H,3-5H2/t6-,8-/m1/s1
