20
gdb 66166	3.90429	0.86036	0.82839	1.8428	75.38	-0.2388	-0.0276	0.2112	1432.7406	0.168748	-440.254504	-440.244828	-440.243884	-440.290119	34.687	
C	-0.6011094306	 1.3251072543	 0.1700967331	-0.445368
C	-0.0910312455	-0.0976873146	-0.0358068739	 0.278837
C	 1.2146261418	-0.1589700206	-0.8958709134	-0.111661
O	 2.0134060382	-0.377710362	 0.2834085392	-0.27019
C	 0.8444501136	-0.5816193878	 1.0973829608	-0.122779
N	-1.1724520999	-1.0249677283	-0.3273577892	-0.342298
C	-1.922087201	-0.7826507145	-1.554048685	-0.266289
C	-3.1190034381	 0.1340668907	-1.3316183635	 0.177834
O	-3.573620629	 0.870477493	-2.1667562462	-0.241737
H	 0.2245766686	 1.9774994647	 0.4679777856	 0.131462
H	-1.0326973018	 1.7411290121	-0.74596405	 0.13633
H	-1.3645886086	 1.3495455683	 0.9537265245	 0.125175
H	 1.252458651	-1.0161362197	-1.5843747974	 0.086544
H	 1.5150795267	 0.7481864614	-1.4325608862	 0.104558
H	 0.8635791164	 0.0166876474	 2.0152645098	 0.108255
H	 0.7039583096	-1.6396926094	 1.3644181504	 0.090829
H	-0.8094211711	-1.9703926295	-0.327871539	 0.224284
H	-1.3308908799	-0.3895124039	-2.395681429	 0.119266
H	-2.3481163534	-1.7389568876	-1.8875582717	 0.132172
H	-3.560193587	 0.0422614759	-0.313288409	 0.084773
48.0742	64.2993	83.803	141.0978	222.4432	266.8174	282.991	333.0275	383.8246	406.336	457.2591	574.1872	634.4112	725.6414	782.5655	839.796	898.6945	932.2767	956.6299	974.0183	1011.6517	1034.8225	1048.7174	1102.9169	1111.312	1152.1117	1163.8918	1176.4646	1223.8976	1257.3526	1293.2248	1302.5483	1350.2465	1372.184	1398.0888	1411.6428	1453.822	1488.7264	1497.1536	1505.6538	1514.9109	1534.7318	1836.8935	2884.654	2983.2456	2987.6531	2996.5784	3037.9394	3044.0713	3057.3137	3060.392	3109.3796	3117.0516	3542.5742
CC1(COC1)NCC=O	CC1(COC1)NCC=O	
InChI=1S/C6H11NO2/c1-6(4-9-5-6)7-2-3-8/h3,7H,2,4-5H2,1H3	InChI=1S/C6H11NO2/c1-6(4-9-5-6)7-2-3-8/h3,7H,2,4-5H2,1H3
