18
gdb 10201	2.74989	1.36247	0.95649	1.5047	71.75	-0.2482	0.0385	0.2868	1225.5181	0.149813	-384.873782	-384.863856	-384.862912	-384.909116	33.874	
C	 0.0008450454	 1.435290102	 0.0031906598	-0.230624
O	 0.0564483739	 0.0276252854	 0.0302206385	-0.234644
C	 0.590011514	-0.5223296788	-1.1526381207	-0.056736
C	 0.5279324991	-2.0533003293	-1.0532847778	-0.094758
O	-0.8049825775	-2.5336144287	-1.1276245531	-0.245987
C	-1.4537652552	-2.6778417931	 0.1237986507	-0.23697
C	 1.3030108319	-2.6531562635	-2.1415896079	 0.314327
C	 1.9522800505	-3.1157024948	-3.0399110825	-0.421719
H	 1.0011472103	 1.8785423935	-0.1220803895	 0.107398
H	-0.6420626116	 1.8019962065	-0.8117888967	 0.110233
H	-0.4146425825	 1.7644337658	 0.958454709	 0.129392
H	 0.0130800563	-0.2050034631	-2.0350959393	 0.106145
H	 1.6359403178	-0.2052638136	-1.2957782956	 0.095976
H	 0.9784514583	-2.3425009785	-0.0901333344	 0.102863
H	-0.9004423694	-3.3618072097	 0.7854944753	 0.104183
H	-1.5786440525	-1.7171625803	 0.633877816	 0.129202
H	-2.4343509943	-3.1126536097	-0.0852568662	 0.124151
H	 2.5214421056	-3.54043756	-3.8295925856	 0.197567
62.3272	85.7656	105.6763	127.9141	170.7327	194.7384	233.5159	275.6901	348.0467	383.2426	453.6184	533.4998	562.4493	632.3713	670.6089	865.5366	971.2817	1019.2889	1038.9076	1099.3023	1138.6587	1166.2515	1179.6608	1185.0475	1215.3694	1223.2642	1263.3408	1302.3423	1376.0886	1412.4887	1474.3202	1478.5559	1482.6794	1485.5799	1497.3286	1516.4249	1520.2644	2243.2021	2966.3634	2976.7396	2978.3509	2989.1295	3015.1804	3022.0271	3074.2253	3117.4721	3121.0864	3504.3362
COCC(OC)C#C	COC[C@@H](OC)C#C	
InChI=1S/C6H10O2/c1-4-6(8-3)5-7-2/h1,6H,5H2,2-3H3	InChI=1S/C6H10O2/c1-4-6(8-3)5-7-2/h1,6H,5H2,2-3H3/t6-/m0/s1
