17
gdb 35240	3.56802	1.12193	0.97446	3.5155	72.97	-0.264	0.0071	0.271	1202.5929	0.137387	-417.992351	-417.98435	-417.983406	-418.025808	29.559	
N	-0.2017809513	-1.1357459857	 0.0097819754	-0.337591
C	-0.1166441055	 0.0167448208	 0.047385801	 0.339886
C	 0.0074234717	 1.4540752975	 0.0427004042	-0.264312
N	 0.6437404287	 2.0760932735	 1.2257791192	-0.343404
C	 1.3436617845	 2.1220864137	-0.0531618985	 0.305004
C	 2.6773557345	 1.3859471189	-0.1784260883	-0.301283
C	 3.4186509641	 2.2305864718	-1.2271833141	-0.087037
O	 2.9000576108	 3.5506770314	-1.0763272082	-0.241019
C	 1.5094786741	 3.4115968482	-0.8706511092	-0.149271
H	-0.8356702411	 1.9635897464	-0.4188541962	 0.129857
H	 0.1798436141	 2.9593042353	 1.429169319	 0.242534
H	 3.18894751	 1.4154537397	 0.7868364433	 0.133432
H	 2.5597787787	 0.3402709941	-0.4714437953	 0.134329
H	 4.4985056826	 2.2776274047	-1.0748868286	 0.121893
H	 3.2241693782	 1.8563532921	-2.2449162339	 0.099265
H	 0.9747784383	 3.328290843	-1.8317982834	 0.102935
H	 1.1450508175	 4.3021151644	-0.3478451463	 0.114782
40.826	121.3851	142.402	253.553	303.0442	367.1475	390.8094	458.5572	566.8012	601.4064	674.3678	761.6371	802.9226	872.0211	908.7102	936.0104	953.1212	975.1263	1014.585	1036.2503	1059.5061	1108.4478	1132.221	1199.9263	1211.0964	1222.2914	1260.8114	1282.9235	1300.7871	1326.5736	1356.6182	1405.298	1448.0514	1485.9885	1502.1863	1519.4168	2358.8282	2962.023	2981.4531	3068.638	3072.9326	3111.5936	3124.4515	3134.2232	3489.0524
N#CC1NC11CCOC1	N#C[C@H]1N[C@]21CCOC2	
InChI=1S/C6H8N2O/c7-3-5-6(8-5)1-2-9-4-6/h5,8H,1-2,4H2	InChI=1S/C6H8N2O/c7-3-5-6(8-5)1-2-9-4-6/h5,8H,1-2,4H2/t5-,6-/m1/s1
