20
gdb 100404	2.56437	0.87413	0.82823	2.7726	79.8	-0.2375	-0.0199	0.2176	1524.7877	0.166621	-440.302879	-440.291783	-440.290839	-440.341054	37.543	
C	 0.2244265348	 1.4099050439	 0.0458459815	-0.227488
O	-0.020266737	 0.0050364304	-0.0154107474	-0.239322
C	 0.508474704	-0.6537477206	-1.0681865245	 0.412757
C	 0.1805263373	-2.1268669072	-0.9868560918	-0.49317
N	 1.1743427485	-0.0289120727	-1.9489950729	-0.318468
C	 1.7525438371	-0.7277339514	-3.0773047928	-0.050614
C	 1.0350268362	-0.3188571374	-4.3794402287	-0.389476
C	 3.2148648001	-0.3045193684	-3.1913440748	 0.170211
O	 4.1033123923	-1.0235723105	-3.5660699232	-0.253025
H	 1.2974593566	 1.6164789212	 0.0892639377	 0.133227
H	-0.1869369985	 1.9151213781	-0.8324085485	 0.133015
H	-0.2703644955	 1.7551220776	 0.9545916033	 0.126509
H	-0.4757454431	-2.3141615353	-0.1372576047	 0.145972
H	-0.3130551067	-2.4683849698	-1.9006236016	 0.146516
H	 1.0925303621	-2.718808977	-0.8631732055	 0.154009
H	 1.743204333	-1.8225424517	-2.9930784256	 0.084457
H	-0.0196850332	-0.6042701716	-4.3278555709	 0.121889
H	 1.0836582699	 0.765406044	-4.5185071679	 0.129345
H	 1.4932764796	-0.8108697544	-5.241960045	 0.131428
H	 3.3896170325	 0.7583329027	-2.9100578469	 0.08223
21.6153	53.418	76.2923	118.267	148.6103	171.874	209.8865	230.6383	256.1291	308.7109	379.0173	442.6321	487.4931	511.2544	587.4456	644.99	822.0064	887.5128	914.7177	963.0761	1032.9968	1054.8712	1078.788	1096.613	1142.1987	1153.5582	1180.5483	1220.7328	1290.5406	1306.1077	1348.2679	1389.5522	1400.6092	1407.9166	1468.6358	1475.8277	1485.4176	1487.2822	1488.3731	1497.6287	1498.6961	1739.6008	1837.9957	2886.0765	3018.9937	3039.2963	3044.5739	3054.6858	3114.8302	3115.389	3115.9865	3123.9383	3149.2318	3156.9374
COC(C)=NC(C)C=O	COC(=N[C@@H](C)C=O)C	
InChI=1S/C6H11NO2/c1-5(4-8)7-6(2)9-3/h4-5H,1-3H3	InChI=1S/C6H11NO2/c1-5(4-8)7-6(2)9-3/h4-5H,1-3H3/t5-/m0/s1
