16
gdb 24059	3.9522	1.04066	0.9026	1.1095	76.39	-0.1833	0.0261	0.2094	1274.2048	0.124095	-400.730217	-400.721812	-400.720868	-400.764042	31.348	
C	 1.4232842468	-0.4916958673	 0.2274575376	-0.456044
C	 0.6203225883	 0.3601666465	-0.0417123212	 0.322027
C	-0.3796757849	 1.3747625642	-0.3687496236	-0.23153
O	-0.3008117374	 2.5401442832	 0.4445101262	-0.262668
C	 0.7083099581	 3.3967314779	 0.142139203	 0.40791
C	 1.7664832371	 3.3629014831	-0.7352678083	-0.282738
C	 2.4547915576	 4.6078705082	-0.5771565653	-0.140912
C	 1.8000574318	 5.3392048802	 0.3777742876	-0.096066
N	 0.7267660228	 4.5847498948	 0.8153807204	-0.320831
H	 2.1410380846	-1.2377100871	 0.4650538528	 0.206659
H	-0.3019094915	 1.6573934762	-1.4278043217	 0.139873
H	-1.3838883498	 0.9754759651	-0.1983734238	 0.145881
H	 2.0380227459	 2.5471236708	-1.3839448132	 0.100711
H	 3.340592676	 4.9152986478	-1.1112472354	 0.091329
H	 1.9921019621	 6.3156242597	 0.790031953	 0.114072
H	 0.0433861424	 4.8511751666	 1.5020316421	 0.26233
42.8413	70.9696	191.9533	226.7532	294.4137	340.6465	413.3049	429.633	617.9192	621.4457	623.2941	639.9884	655.6289	686.8622	694.905	752.8915	831.3926	889.67	933.345	976.2946	1038.5968	1051.6401	1074.4584	1107.1463	1144.6437	1262.9786	1290.4112	1304.4221	1391.0702	1421.1306	1474.1442	1495.93	1530.0278	1622.0779	2239.6953	3012.9976	3085.0253	3247.8946	3270.1738	3279.7636	3504.3523	3688.8164
C#CCOC1=CC=CN1	C#CCOc1ccc[nH]1	
InChI=1S/C7H7NO/c1-2-6-9-7-4-3-5-8-7/h1,3-5,8H,6H2	InChI=1S/C7H7NO/c1-2-6-9-7-4-3-5-8-7/h1,3-5,8H,6H2
