17
gdb 99505	2.65665	1.06882	0.82598	2.5125	71.06	-0.264	-0.0006	0.2633	1387.6288	0.132459	-458.950726	-458.940372	-458.939428	-458.987836	35.454	
C	 0.8946099559	 1.4399848988	-0.164566739	-0.242541
O	 0.9892983669	 0.0118597514	-0.2754476684	-0.22548
C	-0.001760732	-0.5790093114	-0.9584887586	 0.455382
O	-0.9386517139	 0.0033839559	-1.4404931957	-0.354619
C	 0.2022609651	-2.0964051496	-1.0195869196	-0.298776
C	-1.0070102211	-2.7853948191	-1.6973640869	-0.057829
O	-0.8745613156	-4.1883358564	-1.6918479556	-0.421382
C	 1.4416000863	-2.4435862509	-1.7091925845	 0.308513
C	 2.417463489	-2.7782887889	-2.3268512697	-0.465652
H	 0.8946232274	 1.9014104873	-1.1549376848	 0.145742
H	-0.0220010697	 1.7245952707	 0.3578171171	 0.144041
H	 1.7714526314	 1.7500340045	 0.4030259055	 0.139081
H	 0.2687239735	-2.456156024	 0.0156938374	 0.141664
H	-1.9122737506	-2.5481991988	-1.1340997409	 0.125499
H	-1.126706051	-2.3778112307	-2.7095333042	 0.112727
H	-0.0710783848	-4.4031466607	-2.1805052803	 0.287409
H	 3.3002653529	-3.051550218	-2.8506405416	 0.206218
14.9318	96.2948	108.1485	121.5011	152.9423	175.4888	223.2606	303.54	352.9862	397.3968	408.326	436.9663	553.0614	629.9275	658.3835	662.2994	795.0105	844.5941	923.4591	1011.8463	1055.737	1081.147	1091.1892	1178.6829	1192.0927	1207.9523	1223.4892	1299.7482	1323.6885	1383.2697	1420.6009	1473.5403	1482.8293	1495.6312	1500.8311	1821.5406	2231.8416	3021.9322	3034.8463	3055.0384	3111.7834	3131.2438	3165.046	3501.6462	3786.9864
COC(=O)C(CO)C#C	COC(=O)[C@@H](CO)C#C	
InChI=1S/C6H8O3/c1-3-5(4-7)6(8)9-2/h1,5,7H,4H2,2H3	InChI=1S/C6H8O3/c1-3-5(4-7)6(8)9-2/h1,5,7H,4H2,2H3/t5-/m1/s1
