16
gdb 14368	4.17438	2.21058	1.92697	1.5957	63.99	-0.2392	0.0564	0.2956	736.1291	0.131749	-383.636911	-383.630874	-383.629929	-383.666907	24.425	
C	-0.0605739133	 1.572431833	 0.022451504	-0.265343
C	 1.4284058607	 1.2291686468	 0.0203292813	-0.013401
O	 1.1427603208	 0.0739996027	 0.9454663325	-0.371932
C	 0.1049798778	 0.0305366108	-0.1215060131	 0.41687
C	-0.8829668317	-0.918657957	-0.7348473971	-0.397576
C	-0.7349094355	-0.4028011317	-2.2254893972	-0.067168
O	 0.4836309962	 0.3946854279	-2.3539465872	-0.285867
C	 1.1890843626	 0.208865939	-1.150788303	 0.103693
H	-0.4596795114	 1.9038662046	 0.9812139549	 0.105453
H	-0.457355107	 2.1203202904	-0.8331123266	 0.115316
H	 2.3018427013	 1.8295843882	 0.2743583037	 0.096321
H	-0.5510332719	-1.9565044393	-0.6438974019	 0.128378
H	-1.912537236	-0.8376980981	-0.3800216508	 0.118066
H	-0.6859778927	-1.241759549	-2.9271967181	 0.116705
H	-1.5756409175	 0.2377025406	-2.5080346562	 0.118545
H	 1.9503480976	-0.575931609	-1.2046596452	 0.081941
120.9081	293.0595	323.9683	410.0378	541.0437	556.0839	684.815	704.8526	729.5197	832.6511	857.1222	883.0904	906.2945	920.7377	939.2922	984.6166	989.3547	1040.1434	1077.2318	1087.1862	1134.7746	1157.305	1189.3957	1195.6456	1206.7055	1221.8726	1268.7282	1272.5495	1315.1804	1366.0222	1378.6276	1482.4842	1489.2611	1517.3186	3044.5662	3061.6676	3067.7803	3082.9893	3088.0152	3122.8741	3123.1651	3162.3316
C1C2OC11CCOC21	C1[C@H]2O[C@]31CCO[C@@H]23	
InChI=1S/C6H8O2/c1-2-7-5-4-3-6(1,5)8-4/h4-5H,1-3H2	InChI=1S/C6H8O2/c1-2-7-5-4-3-6(1,5)8-4/h4-5H,1-3H2/t4-,5+,6+/m1/s1
