16
gdb 55553	3.33772	1.09355	0.86449	3.1912	68.62	-0.254	-0.0026	0.2514	1285.934	0.124812	-471.226176	-471.217334	-471.21639	-471.260491	32.003	
N	 0.2396456875	 1.0636773955	-0.3661738281	-0.560971
C	-0.4390758929	-0.1333085079	-0.4820978921	 0.470251
O	-0.8992290268	-0.5328887491	-1.533579768	-0.381081
N	-0.5012529648	-0.8384683306	 0.7120218989	-0.383154
C	-1.0519105931	-2.1037833429	 0.9235166208	 0.349359
N	-0.7862087325	-2.681504698	 2.0253534462	-0.521626
C	-1.9431745396	-2.6735031769	-0.1446410095	 0.01178
C	-1.531453559	-3.8847813321	-0.8676756792	-0.158718
O	-2.4935106173	-3.9466391165	 0.1882761921	-0.236009
H	 0.1389426827	 1.6602644376	-1.1723102707	 0.269344
H	 0.2571787288	 1.541234022	 0.5211755945	 0.25739
H	 0.0605648174	-0.5308452054	 1.4937946711	 0.256722
H	-1.2935903353	-3.5669190494	 2.0586218893	 0.23967
H	-2.6184902791	-1.9836954667	-0.6385236027	 0.130447
H	-1.9172316791	-4.0637031155	-1.8689813594	 0.130776
H	-0.566340267	-4.3336960442	-0.6407709132	 0.125818
59.6394	74.0047	125.8725	188.8881	267.2938	288.2741	378.8883	387.844	424.9165	509.1068	592.5748	612.6925	706.0054	723.0825	769.9324	775.1907	878.4146	912.6739	933.1675	1001.7899	1048.0761	1085.219	1104.4925	1154.4592	1160.2456	1181.0225	1278.9998	1309.6415	1360.3074	1462.5377	1515.8884	1521.0349	1627.6605	1717.7238	1807.5654	3095.3405	3179.0334	3192.3825	3480.8356	3586.5567	3601.2011	3705.5818
NC(=O)NC(=N)C1CO1	NC(=O)NC(=N)[C@H]1CO1	
InChI=1S/C4H7N3O2/c5-3(2-1-9-2)7-4(6)8/h2H,1H2,(H4,5,6,7,8)	InChI=1S/C4H7N3O2/c5-3(2-1-9-2)7-4(6)8/h2H,1H2,(H4,5,6,7,8)/t2-/m1/s1
