17
gdb 71363	3.02363	1.9159	1.56336	1.5881	69.91	-0.2348	0.0644	0.2992	884.4069	0.136078	-421.73954	-421.732827	-421.731883	-421.77024	27.823	
C	 0.0586731438	 1.4923258245	-0.1221699027	-0.523991
C	-0.0097536856	 0.0055645466	 0.017728755	 0.453687
O	 0.5976144775	-0.827471845	-1.0477354354	-0.355392
C	 0.0626999226	-1.7825849022	-0.0883570556	 0.044277
C	 0.5894955024	-0.9312404897	 1.1203192316	-0.13402
C	-0.4204065601	-1.0365331394	 2.2501056458	 0.012718
O	-1.3213960157	 0.0853800065	 2.3400438849	-0.258276
C	-1.6978443844	-1.0455121622	 1.5289340254	 0.012751
C	-1.2533588844	-0.9441793512	 0.0799422362	-0.134014
H	 1.1015257301	 1.8219876503	-0.1635834732	 0.129887
H	-0.4403734621	 1.809727102	-1.0431226943	 0.129952
H	-0.4326282485	 1.9604527361	 0.7329013485	 0.151977
H	 0.1901239417	-2.8448293056	-0.3008479078	 0.094593
H	 1.6601961747	-0.894691748	 1.3127138441	 0.082072
H	-0.2271004698	-1.568039386	 3.1757063977	 0.105856
H	-2.5845085454	-1.5846312714	 1.8448192965	 0.10585
H	-1.971580327	-0.9202680252	-0.7375755067	 0.082073
188.7995	217.1943	244.9286	359.1761	417.898	503.5999	526.0427	629.0912	729.582	739.4582	744.557	772.9648	843.9158	859.7661	882.0873	923.0403	936.4218	959.6562	972.0575	999.9887	1017.569	1028.0641	1098.7238	1101.271	1153.0246	1162.8303	1195.8546	1213.6085	1252.7981	1255.1986	1281.4423	1316.0706	1359.8182	1403.9342	1426.0526	1484.7	1485.7371	3043.3893	3109.9854	3110.6708	3141.4948	3143.9828	3144.6156	3169.3652	3180.8464
CC12OC3C1C1OC1C23	C[C@@]12O[C@H]3[C@@H]1[C@H]1O[C@H]1[C@@H]23	
InChI=1S/C7H8O2/c1-7-2-4(9-7)3(7)6-5(2)8-6/h2-6H,1H3	InChI=1S/C7H8O2/c1-7-2-4(9-7)3(7)6-5(2)8-6/h2-6H,1H3/t2-,3+,4+,5-,6+,7-
