21
gdb 71290	2.57085	1.87711	1.42266	1.434	81.41	-0.2324	0.091	0.3234	1004.3386	0.184804	-387.069607	-387.062094	-387.06115	-387.100904	31.286	
C	 0.0081078438	 1.466925565	 0.0442662727	-0.475935
C	-0.0005999397	-0.0523646064	 0.0026423986	 0.300406
C	 0.2535098773	-0.6922915204	-1.410277875	-0.27447
C	-1.0701682423	-1.4526981465	-1.284411725	-0.073488
C	-1.2198456775	-2.1862259093	 0.0303517419	-0.040406
C	-0.1079489885	-2.8067791247	 0.8554064431	-0.106123
O	 1.0914815979	-2.0522321491	 0.877527634	-0.247351
C	 0.8953782279	-0.6630891083	 1.0833257215	-0.118488
C	-1.4092987728	-0.7002120611	 0.0046903578	-0.120569
H	 1.0078908875	 1.8628833813	-0.1681948245	 0.114801
H	-0.6832944999	 1.8827540628	-0.6961035803	 0.116454
H	-0.2979075496	 1.8395767377	 1.02944337	 0.113023
H	 0.2002484858	 0.0677580497	-2.1948852966	 0.093372
H	 1.1668205992	-1.2781223823	-1.5351771282	 0.105956
H	-1.7304853174	-1.6844412026	-2.1123469081	 0.080838
H	-2.1483512131	-2.7505343862	 0.0907550931	 0.08536
H	-0.4838301622	-2.946823574	 1.8852454655	 0.08398
H	 0.1712413573	-3.7933730783	 0.4693143473	 0.106283
H	 1.8980643851	-0.221950397	 1.0574798838	 0.100393
H	 0.463251994	-0.4700786065	 2.0812919074	 0.08109
H	-2.3259106325	-0.2018524437	 0.2992595008	 0.074874
180.907	233.3872	259.9978	275.4862	337.0779	372.8874	380.3456	478.7081	540.4334	602.7529	722.7563	761.0844	775.0129	829.5539	859.1648	890.4352	920.7765	957.7688	974.087	986.0695	1002.4277	1015.2721	1054.2882	1060.5735	1086.5393	1113.7476	1154.9128	1175.1899	1188.5209	1206.0143	1250.9572	1268.8481	1273.224	1299.8258	1321.1952	1333.7575	1384.5585	1408.8919	1420.2994	1443.4442	1488.1926	1488.8567	1493.6464	1497.208	1500.2138	2939.2207	2951.1311	3019.1565	3055.6706	3059.0682	3062.2528	3082.8816	3094.4685	3110.8019	3132.3908	3165.5095	3177.8824
CC12CC3C(COC1)C23	C[C@@]12C[C@H]3[C@@H](COC1)[C@@H]23	
InChI=1S/C8H12O/c1-8-2-5-6(7(5)8)3-9-4-8/h5-7H,2-4H2,1H3	InChI=1S/C8H12O/c1-8-2-5-6(7(5)8)3-9-4-8/h5-7H,2-4H2,1H3/t5-,6+,7-,8+/m0/s1
