20
gdb 12688	2.81015	1.93163	1.25268	1.7961	78.8	-0.2194	0.0291	0.2485	1033.6881	0.175487	-349.029374	-349.020284	-349.01934	-349.062829	32.993	
C	 0.13583956	 1.5789874197	-0.072526303	-0.39196
C	 0.0080773814	 0.0609593944	 0.064329318	 0.064021
O	 0.6080502533	-0.5705078439	-1.0695371801	-0.278589
C	 1.5417024524	-1.5512052315	-0.6433320615	-0.151232
C	 1.5879010583	-1.4541651363	 0.8596037748	 0.185612
C	 2.5082926902	-2.3215816435	 1.6561637027	-0.498189
C	 0.7074640703	-0.5364711967	 1.2666258318	 0.198792
C	 0.3595766448	-0.1072491328	 2.6563248012	-0.503645
H	 1.1878342296	 1.879607004	-0.0473975429	 0.11508
H	-0.2945593546	 1.9027108032	-1.0242650323	 0.124931
H	-0.3974476445	 2.0920247993	 0.7346307209	 0.109006
H	-1.0676570718	-0.1937713386	 0.0863922267	 0.070854
H	 1.2242638791	-2.5549957505	-0.9763589496	 0.093653
H	 2.5220128206	-1.3592342397	-1.1095957318	 0.097147
H	 2.3087726548	-3.3848595409	 1.4703021082	 0.127994
H	 3.5552398728	-2.1478795667	 1.3761855055	 0.128466
H	 2.4165411453	-2.1464779799	 2.7307049876	 0.125752
H	 0.9084518251	-0.6747296836	 3.4116923667	 0.124364
H	 0.5765830711	 0.9561930305	 2.814895997	 0.130997
H	-0.7126291382	-0.2392539063	 2.8514957602	 0.126944
77.4871	138.5964	163.4723	165.5753	214.0025	246.386	275.7805	305.8316	400.0403	419.7654	549.0735	617.901	631.2708	770.6295	866.4891	893.2992	969.611	976.2756	1026.41	1042.2747	1080.6662	1092.7768	1102.0082	1119.2962	1155.7665	1200.7417	1210.4354	1272.6047	1348.145	1370.6295	1386.3515	1397.9701	1411.7555	1421.3721	1477.3987	1480.6743	1485.8147	1489.9115	1492.6982	1496.4739	1524.5994	1758.1147	2924.645	2948.433	2972.8806	3017.2867	3019.9299	3036.0039	3060.705	3064.4281	3108.8968	3113.7697	3117.7161	3118.6246
CC1OCC(C)=C1C	C[C@H]1OCC(=C1C)C	
InChI=1S/C7H12O/c1-5-4-8-7(3)6(5)2/h7H,4H2,1-3H3	InChI=1S/C7H12O/c1-5-4-8-7(3)6(5)2/h7H,4H2,1-3H3/t7-/m1/s1
