12
gdb 132308	2.10668	1.57741	0.90912	3.7481	64.83	-0.2637	-0.0458	0.2179	1141.8947	0.07521	-510.148988	-510.140216	-510.139272	-510.183507	30.378	
N	 0.0149364125	 1.2483496822	 0.0758660399	-0.514829
C	 0.0237942078	-0.093041519	-0.0203971577	 0.466235
N	-1.2214711065	-0.6172321435	-0.2620787893	-0.324819
C	-1.7106515325	-1.7243916959	-0.0280897487	 0.511303
N	-2.4758213605	-2.6234507739	 0.2300375503	-0.516839
O	 0.4382344237	-2.9036831913	-0.1461562754	-0.37154
C	 1.2781903953	-2.0414771437	-0.0384978931	 0.381917
F	 2.5657087265	-2.4062830942	-0.0086106625	-0.077357
N	 1.1850581481	-0.6940260813	 0.0675012269	-0.424171
H	 0.8929513252	 1.7259504614	 0.1839380563	 0.283969
H	-0.8439826569	 1.758400672	-0.0280897955	 0.280314
H	-2.2777859528	-3.5830872726	-0.0148216913	 0.305817
38.8997	95.1703	149.9178	175.8683	242.9338	250.2858	379.727	410.8305	439.9404	511.4902	576.1739	600.1448	612.0217	725.6767	743.4495	804.0888	812.6165	872.3398	965.5283	1124.0741	1305.7832	1375.793	1516.6703	1574.4502	1651.3715	1782.5254	2245.9778	3622.4781	3642.8166	3764.5385
NC1=NC(=N)OC(F)=N1	NC(=N[C][NH])[N]C(=O)F	
InChI=1S/C3H3FN4O/c4-1-7-2(5)8-3(6)9-1/h(H3,5,6,8)	InChI=1S/C3H3FN4O/c4-2(9)8-3(6)7-1-5/h5H,(H2,6,7)
