19
gdb 72282	3.16721	1.61276	1.35106	1.8242	74.08	-0.2321	0.0857	0.3178	1005.2187	0.161191	-422.991003	-422.98365	-422.982706	-423.022455	29.677	
C	-0.0879656348	 1.5732697397	 0.0257224806	-0.495945
C	-0.0151704365	 0.0749697973	-0.0433377166	 0.273907
C	 0.6474842238	-0.6948152337	-1.1897558041	-0.330441
C	-0.3575094611	-1.873130384	-0.9645969435	 0.095544
O	 0.1468583308	-3.0517323269	-0.3455828347	-0.260766
C	 1.0372080796	-2.7752052709	 0.7000185883	 0.024233
O	 0.5528411692	-1.8526760644	 1.6565532651	-0.273152
C	-0.2449486255	-0.807501181	 1.1643364231	 0.086225
C	-1.1560818827	-0.9893492968	 0.0019036683	-0.169458
H	 0.8991761193	 2.0060433433	 0.2290525448	 0.124908
H	-0.4459272278	 1.9971891424	-0.9201175725	 0.11699
H	-0.7643880529	 1.9082395235	 0.8189120658	 0.119864
H	 0.4331085211	-0.2158636461	-2.1500822539	 0.103305
H	 1.7214324972	-0.8935962405	-1.1407143042	 0.102801
H	-0.8788497643	-2.2066752079	-1.860861721	 0.09054
H	 1.1984761357	-3.7164635405	 1.2314921603	 0.116773
H	 1.9978026697	-2.4131617439	 0.3011065512	 0.087748
H	-0.6598292672	-0.2739203125	 2.0137841618	 0.102111
H	-2.2340356036	-0.8853020072	 0.0423210312	 0.084814
136.8167	201.1352	240.1016	283.1466	332.3369	424.2507	444.6258	537.0708	555.6353	620.5479	710.0907	757.8956	829.939	852.0725	901.4524	943.2679	955.6778	960.2998	991.5885	1004.5702	1028.722	1058.1073	1090.7418	1106.8136	1154.2924	1181.0561	1201.0754	1225.9813	1238.9415	1255.4489	1289.0304	1315.7676	1345.3019	1377.7826	1416.6828	1435.3241	1467.0544	1484.8604	1494.06	1502.9455	1536.9897	2973.2632	3018.3664	3051.3789	3076.2811	3092.8785	3093.8485	3096.5831	3119.4543	3163.3657	3179.5471
CC12CC3OCOC1C23	C[C@@]12C[C@H]3OCO[C@@H]1[C@@H]23	
InChI=1S/C7H10O2/c1-7-2-4-5(7)6(7)9-3-8-4/h4-6H,2-3H2,1H3	InChI=1S/C7H10O2/c1-7-2-4-5(7)6(7)9-3-8-4/h4-6H,2-3H2,1H3/t4-,5+,6-,7+/m1/s1
