19
gdb 113114	3.41619	0.80462	0.71188	2.7877	72.82	-0.2517	-0.0284	0.2233	1575.1272	0.15735	-460.148333	-460.138792	-460.137848	-460.184575	33.478	
O	-0.1078025378	 1.1548506782	 0.826848802	-0.418164
C	-0.0308488982	-0.1603009954	 0.3175337315	-0.065748
C	-1.3731433259	-0.6000755379	-0.2374095783	 0.139275
C	-1.6238863474	-2.1046241653	-0.4660139869	-0.342246
C	-2.7550612462	-1.9349776887	 0.5711649119	 0.150021
C	-2.701285277	-2.7790840429	 1.8423000037	-0.29543
C	-3.6855461824	-2.2930787299	 2.8874310466	 0.156542
O	-4.5260786713	-2.9838788771	 3.403870638	-0.236195
O	-2.38584055	-0.5520558711	 0.8067591593	-0.328977
H	-0.8497318987	 1.1609022335	 1.4438699909	 0.29432
H	 0.7243841017	-0.1573129232	-0.4769000966	 0.11161
H	 0.2953453388	-0.876597155	 1.0902296985	 0.080526
H	-1.6616183319	 0.0487996716	-1.0736398159	 0.089635
H	-1.9330991486	-2.3974874163	-1.4692936328	 0.119833
H	-0.8063252234	-2.7506360872	-0.1354813577	 0.113317
H	-3.7600555429	-1.9875708396	 0.1317113451	 0.093606
H	-2.915682995	-3.8282569671	 1.6158230894	 0.12437
H	-1.690161338	-2.7062156689	 2.2654941371	 0.119371
H	-3.5781314759	-1.2188520375	 3.1520792843	 0.094334
36.9145	58.0627	80.8239	107.2251	188.0649	235.8493	345.5992	378.031	429.2989	448.7847	488.3796	509.6708	708.9048	805.1258	852.1002	884.397	908.2087	959.4942	990.1286	1030.1709	1043.5662	1083.0871	1091.7297	1117.3207	1142.9025	1165.0432	1219.9676	1229.3751	1254.9998	1281.069	1291.4764	1329.7815	1351.6222	1381.9955	1407.6129	1423.1856	1435.3247	1450.2925	1490.6791	1496.3894	1832.0375	2902.4613	2964.8757	3012.2508	3026.0858	3032.5162	3068.3	3071.7864	3098.8163	3137.2472	3789.6177
OCC1CC(CC=O)O1	OC[C@H]1C[C@@H](CC=O)O1	
InChI=1S/C6H10O3/c7-2-1-5-3-6(4-8)9-5/h2,5-6,8H,1,3-4H2	InChI=1S/C6H10O3/c7-2-1-5-3-6(4-8)9-5/h2,5-6,8H,1,3-4H2/t5-,6-/m1/s1
