18
gdb 45141	2.94544	1.54591	1.19699	2.6576	77.09	-0.2575	0.0267	0.2842	1059.7823	0.148508	-401.917112	-401.909634	-401.90869	-401.949192	29.611	
N	 0.2382022136	 1.1105052369	 0.367782663	-0.55543
C	 0.0612847974	-0.0764162761	 0.0054671855	 0.453609
O	 0.9256815595	-0.9660218435	-0.6157970882	-0.274635
C	-0.113145489	-1.9925833297	-0.6936345689	 0.112303
C	-0.061841941	-2.9712347611	 0.4980251441	-0.330993
C	-0.9789663278	-2.0091665965	 1.2794956582	 0.375529
C	-2.1040818343	-2.3854268527	 2.1979567474	-0.340162
C	-0.914086963	-1.617006172	 2.7240544217	-0.313811
C	-1.0884888725	-1.053259059	 0.0711519566	-0.263285
H	 1.1872492428	 1.4259278091	 0.1588001117	 0.227016
H	-0.2388161088	-2.3553427329	-1.7125984911	 0.096447
H	-0.5289737714	-3.9358679077	 0.2773409257	 0.11049
H	 0.9416080402	-3.1392170093	 0.8968133074	 0.118403
H	-3.0475595204	-1.8595116667	 2.0914867479	 0.118337
H	-2.2042221712	-3.4307441579	 2.4736154641	 0.114527
H	-0.2068938894	-2.141670039	 3.358388781	 0.1159
H	-1.0419055463	-0.5676005506	 2.9671143767	 0.135595
H	-2.0715744784	-0.7306839416	-0.2661378828	 0.100161
85.9006	125.6951	242.0803	301.3263	364.1498	381.0789	453.5085	536.1712	630.0606	745.217	775.5687	812.967	841.3778	864.327	869.4948	879.135	909.9745	941.288	965.7926	1005.3842	1010.4553	1011.4343	1055.1514	1057.9501	1079.95	1144.423	1170.4647	1186.7135	1192.3378	1218.5323	1232.4432	1264.3519	1285.6267	1336.6753	1375.9886	1465.4481	1465.7053	1502.5985	1820.2539	3053.471	3110.5534	3122.6698	3126.6932	3131.2023	3139.4415	3203.3636	3220.3807	3472.6141
N=C1OC2CC3(CC3)C12	[NH][C]1O[C@H]2CC3(CC3)[C@@H]12	
InChI=1S/C7H9NO/c8-6-5-4(9-6)3-7(5)1-2-7/h4-5,8H,1-3H2	InChI=1S/C7H9NO/c8-6-5-4(9-6)3-7(5)1-2-7/h4-5,8H,1-3H2/t4-,5+/m0/s1
