22
gdb 119632	3.9298	0.89924	0.82759	2.7161	81.81	-0.2266	0.0793	0.3059	1466.0904	0.195364	-404.33124	-404.322179	-404.321235	-404.365385	34.49	
O	-0.1792433906	 1.4960801605	-0.2603237412	-0.418452
C	-0.0147536886	 0.0863265504	-0.2324674948	-0.071603
C	-1.3646975626	-0.5296800272	 0.1228348064	-0.272522
C	-1.3355814269	-2.0407347152	 0.1595397183	 0.348127
C	-1.5677113593	-2.840930902	-1.0761258836	-0.296954
N	-2.6169243784	-2.7519928115	-0.0475690499	-0.136356
C	-2.6350677386	-3.9031581394	 0.874000204	-0.148406
C	-1.1938864972	-4.131770757	 1.3866659259	-0.244548
C	-0.5490251715	-2.7350891485	 1.2707957639	-0.271653
H	 0.667808354	 1.8933580359	-0.4819330443	 0.284441
H	 0.3211187935	-0.2977976252	-1.20947739	 0.086026
H	 0.7439487181	-0.2089903495	 0.5103345207	 0.08468
H	-1.6825547234	-0.1387049286	 1.0976471277	 0.102387
H	-2.1068003073	-0.197950308	-0.6099226275	 0.115104
H	-1.8089167615	-2.3344468505	-2.0069332849	 0.110906
H	-1.0340285715	-3.7798242038	-1.2051713419	 0.103796
H	-3.3033473635	-3.641768112	 1.702092674	 0.106574
H	-3.0573761095	-4.7811642886	 0.3749071335	 0.103836
H	-1.1734638996	-4.5217200179	 2.407264955	 0.101943
H	-0.6637768265	-4.8562101804	 0.7615813063	 0.106498
H	 0.5257238297	-2.7855350633	 1.0704780162	 0.102685
H	-0.6778950587	-2.1671072481	 2.2003905961	 0.10349
71.2894	87.8029	124.291	224.0036	261.4379	266.0722	325.6192	345.0612	422.4536	451.3232	625.0134	650.4105	712.2906	796.2347	816.4185	832.1085	893.9383	903.5966	931.7604	945.4787	986.9115	1018.3497	1025.9367	1071.057	1077.0105	1092.7252	1110.4051	1175.5348	1191.6208	1203.0239	1214.4104	1244.922	1259.9617	1273.8684	1300.1723	1322.7323	1332.7063	1344.9846	1354.4458	1398.3963	1462.6991	1486.8158	1490.475	1493.5709	1500.4726	1525.2147	1527.7446	2961.7066	2987.0208	3030.4132	3034.0922	3039.3093	3057.7224	3079.2431	3081.8376	3089.6899	3100.7305	3107.3293	3182.1567	3830.9603
OCCC12CN1CCC2	OCC[C@]12CN1CCC2	
InChI=1S/C7H13NO/c9-5-3-7-2-1-4-8(7)6-7/h9H,1-6H2	InChI=1S/C7H13NO/c9-5-3-7-2-1-4-8(7)6-7/h9H,1-6H2/t7-,8?/m1/s1
