27
gdb 118464	2.00545	1.014	0.7213	1.0206	93.66	-0.249	0.0818	0.3308	1715.4825	0.249478	-390.689805	-390.677795	-390.676851	-390.727399	43.369	
C	 0.0367204589	 1.4099172948	 0.4279589304	-0.378676
C	-0.1170300696	-0.0540117395	-0.0015970533	-0.194473
C	 0.6494161789	-0.4537273098	-1.27939766	 0.033215
C	 2.1519875805	-0.157934401	-1.1473601583	-0.067857
O	 2.4022501678	 1.2040106066	-1.4364842333	-0.226841
C	 3.7617523235	 1.5439366255	-1.3217301566	-0.22915
C	 0.4436052494	-1.9446949928	-1.6799258399	 0.032128
C	-0.9857816761	-2.462368557	-1.4558214538	-0.40259
C	 0.8317993218	-2.1852080908	-3.1489554913	-0.391176
H	 1.0704681799	 1.6626065089	 0.6720975548	 0.121726
H	-0.2789020911	 2.0899433197	-0.3700269385	 0.115442
H	-0.5821095668	 1.6129966183	 1.3083809359	 0.099196
H	 0.2010517554	-0.7109732681	 0.8210700071	 0.086886
H	-1.1826503047	-0.2535943137	-0.1511742034	 0.096526
H	 0.2818331542	 0.170383262	-2.1064844663	 0.076301
H	 2.4929323814	-0.4001564014	-0.1243541748	 0.079733
H	 2.7424022822	-0.7879107559	-1.8308728612	 0.083525
H	 4.390245473	 0.951492984	-2.0065012625	 0.100894
H	 3.8599063625	 2.6014667159	-1.5795316707	 0.125159
H	 4.1396264048	 1.3917348023	-0.2977060021	 0.101345
H	 1.1114966966	-2.5493711445	-1.0469447833	 0.06736
H	-1.7172795155	-1.856180452	-2.0039209501	 0.112699
H	-1.0742987211	-3.4909400317	-1.8210700916	 0.10615
H	-1.2724795795	-2.4629544426	-0.401642997	 0.115821
H	 0.7867602094	-3.2515702008	-3.3933785073	 0.109242
H	 0.1370194755	-1.663039353	-3.8175358524	 0.113919
H	 1.8403794186	-1.8360537934	-3.3863164306	 0.113498
50.472	75.8739	91.2979	111.232	167.5046	210.0209	215.4204	237.5068	247.3045	274.9442	320.7523	341.6853	363.0481	394.3371	431.4002	469.8909	534.3852	792.8469	840.6966	857.0773	926.5258	939.0758	967.058	975.5144	989.0982	1013.6225	1044.7371	1091.1706	1149.307	1151.8366	1163.6709	1177.4518	1193.2062	1194.2013	1229.8519	1264.2979	1280.6634	1309.1875	1345.4851	1351.3816	1375.9692	1385.0244	1400.7259	1418.1799	1420.9341	1428.6557	1477.516	1482.1539	1484.8443	1487.9612	1492.5261	1497.7357	1500.1832	1506.2874	1508.9929	1515.7839	1528.7408	2939.1324	2964.6316	2980.6698	2988.7566	3001.0444	3005.9005	3016.0363	3026.8852	3032.2929	3038.0237	3069.852	3087.7636	3095.0093	3099.1298	3109.6621	3110.7408	3116.2102	3129.0722
CCC(COC)C(C)C	CC[C@@H](COC)C(C)C	
InChI=1S/C8H18O/c1-5-8(6-9-4)7(2)3/h7-8H,5-6H2,1-4H3	InChI=1S/C8H18O/c1-5-8(6-9-4)7(2)3/h7-8H,5-6H2,1-4H3/t8-/m0/s1
