15
gdb 10694	2.9025	1.92781	1.35117	2.5612	61.62	-0.29	-0.0049	0.2851	907.7086	0.11707	-399.786396	-399.778215	-399.777271	-399.818886	29.745	
C	-0.0368959426	 1.5495369138	 0.3355581295	-0.419754
C	-0.017797889	 0.0682930145	-0.0462795773	 0.038151
O	 0.8146470163	-0.6888445516	 0.8064339348	-0.424811
C	-1.4336781197	-0.5319465279	-0.0407867205	 0.245609
C	-1.6515149069	-1.9492777741	 0.3011797268	-0.212249
O	-1.9031920519	-0.9126707365	 1.2587771959	-0.268226
C	-2.4096893738	 0.1317383967	-0.8861287891	 0.26089
N	-3.1499921319	 0.6748385952	-1.5882247394	-0.328639
H	 0.9860242006	 1.9317812641	 0.35798587	 0.135228
H	-0.6174389835	 2.1391332301	-0.3795673367	 0.146276
H	-0.4815610497	 1.6835025321	 1.3279293512	 0.12854
H	 0.3956331211	-0.0517501204	-1.0540061	 0.115796
H	 0.4217094404	-0.6458884698	 1.6880646921	 0.293046
H	-2.5378725879	-2.4561942041	-0.0719920342	 0.142259
H	-0.7751623215	-2.558828472	 0.499848657	 0.147884
77.0704	146.6543	206.3963	240.1737	268.1811	280.9835	389.0815	398.3224	465.2214	515.74	560.7305	599.3134	688.381	858.9024	876.2171	922.5999	957.0791	1052.6228	1090.0059	1128.2663	1137.6135	1179.183	1204.9431	1306.3538	1342.3277	1362.8584	1406.4564	1425.3617	1492.6078	1495.3486	1503.8291	2356.7135	3040.6264	3057.4653	3112.5932	3114.9034	3134.0698	3217.7656	3774.6665
CC(O)C1(CO1)C#N	C[C@@H](O)[C@]1(CO1)C#N	
InChI=1S/C5H7NO2/c1-4(7)5(2-6)3-8-5/h4,7H,3H2,1H3	InChI=1S/C5H7NO2/c1-4(7)5(2-6)3-8-5/h4,7H,3H2,1H3/t4-,5-/m1/s1
