21
gdb 108989	2.67922	1.44501	1.1807	1.2939	84.02	-0.2169	0.0185	0.2354	1152.4318	0.182418	-387.065532	-387.056745	-387.055801	-387.098935	34.376	
C	-0.1700357397	 1.4960613291	 0.0106252908	-0.372618
C	 0.0838060903	-0.0237976131	-0.0047969913	-0.320576
C	 0.7911222458	-0.4992097753	-1.2291726111	 0.290623
C	 2.0376918947	-0.9299489653	-1.4472562755	-0.214693
C	 2.0443614591	-1.2774020998	-2.9430863535	-0.072112
C	 0.6732556752	-2.0293976153	-3.0660176399	-0.234937
C	 0.1489822804	-0.6261898352	-2.6386605733	 0.31554
O	-1.2042357601	-0.3365385816	-2.8053685999	-0.48368
C	 1.2946272104	-0.0356661127	-3.5358840842	-0.274088
H	 0.7715328882	 2.0499517169	-0.0508766087	 0.122707
H	-0.7952037061	 1.8094009642	-0.8325445383	 0.099894
H	-0.6864515216	 1.7955329704	 0.9279266119	 0.116742
H	 0.668362024	-0.2984675585	 0.8805083454	 0.105223
H	-0.8810841475	-0.5412661954	 0.0772056362	 0.113929
H	 2.8618221779	-1.0413527605	-0.7554246874	 0.094211
H	 2.9566470831	-1.6652638286	-3.3908492806	 0.06507
H	 0.4021937597	-2.287180896	-4.0945789121	 0.09507
H	 0.4916624072	-2.863670212	-2.3854113044	 0.093633
H	-1.3302751686	 0.6121401348	-2.6994710021	 0.280316
H	 1.6827932002	 0.9541415541	-3.2823176768	 0.085822
H	 1.0817306675	-0.1205335802	-4.6062549451	 0.093923
61.6563	123.4369	181.4015	194.9919	258.2109	303.6915	381.0094	422.9372	487.4661	508.3062	591.876	646.1825	653.0775	769.501	783.6814	802.0784	843.9349	880.4278	909.5528	913.7531	956.6986	973.4805	1008.3677	1051.1128	1055.934	1079.8931	1084.5797	1129.0591	1156.6091	1177.5477	1221.7244	1229.3341	1247.6586	1265.2111	1287.1581	1334.5284	1347.9526	1353.3128	1404.2113	1474.0924	1475.5178	1497.6313	1500.8763	1517.2706	1691.2024	3020.1199	3032.6897	3042.5833	3054.9068	3062.3847	3098.8728	3112.5153	3114.4955	3125.1333	3140.0914	3216.7322	3813.5656
CCC1=CC2CC1(O)C2	CCC1=C[C@H]2C[C@]1(O)C2	
InChI=1S/C8H12O/c1-2-7-3-6-4-8(7,9)5-6/h3,6,9H,2,4-5H2,1H3	InChI=1S/C8H12O/c1-2-7-3-6-4-8(7,9)5-6/h3,6,9H,2,4-5H2,1H3/t6-,8-
