14
gdb 129414	5.10744	1.05384	0.87541	2.2097	67.96	-0.2212	-0.0354	0.1858	1222.4184	0.104177	-462.363155	-462.355438	-462.354493	-462.396058	28.507	
N	 0.343613246	 0.3768426794	-0.8656368111	-0.55711
C	 0.0715792788	 0.05615318	 0.440403518	 0.419322
N	 0.8894465026	-0.1552675309	 1.4017643839	-0.56626
N	-1.2849533218	-0.1223145738	 0.7513709561	-0.406683
C	-2.3983790133	 0.1491286104	 0.0155661199	 0.558164
N	-3.6312028281	-0.0694413878	 0.4784638775	-0.315937
N	-4.3546287296	 0.3411620905	-0.5641343083	-0.061788
N	-3.6659297724	 0.7770017146	-1.5921180311	-0.094984
N	-2.4053486356	 0.6659643013	-1.2461770939	-0.297482
H	 1.2642365265	 0.7394732712	-1.0452790216	 0.251716
H	-0.4073428204	 0.7235818938	-1.4491895043	 0.279461
H	 1.8526715472	-0.0399687784	 1.0958002451	 0.205782
H	-1.4305548445	-0.4382989536	 1.6978782159	 0.278238
H	-5.3631183054	 0.3173760931	-0.565480076	 0.307562
63.0565	82.231	199.3676	325.7725	374.3243	398.5228	431.3769	504.319	556.114	566.7632	591.0012	708.3103	719.4049	768.8659	783.7776	826.4547	978.3145	1022.8295	1085.0655	1139.6051	1145.5105	1180.3122	1193.1728	1263.8054	1350.3053	1423.1471	1467.3534	1518.1917	1633.3008	1655.7774	1736.2067	3516.8852	3524.5329	3641.9276	3655.89	3696.5582
NC(=N)NC1=NNN=N1	NC(=N)Nc1n[nH]nn1	
InChI=1S/C2H5N7/c3-1(4)5-2-6-8-9-7-2/h(H5,3,4,5,6,7,8,9)	InChI=1S/C2H5N7/c3-1(4)5-2-6-8-9-7-2/h(H5,3,4,5,6,7,8,9)
