14
gdb 16677	3.62842	1.92922	1.69507	2.6313	63.73	-0.2529	-0.005	0.2478	807.9988	0.106596	-382.51599	-382.509231	-382.508287	-382.546968	25.364	
C	 0.0176166304	 1.4457590949	 0.0526276354	-0.514693
C	-0.0474383321	-0.0412817196	 0.0140338991	 0.341064
C	-0.0596696237	-0.9175466084	-1.0126502597	-0.190781
C	-0.0151461505	-2.2584051082	-0.3187834049	-0.094856
O	-0.8860548963	-2.0598507761	 0.8322075686	-0.260963
C	-0.003130342	-0.9709449455	 1.2142457886	-0.152617
C	 1.1571177756	-1.9454651028	 0.7130735288	 0.426526
O	 2.2355445436	-2.3158517981	 1.0194316473	-0.294187
H	 0.915099043	 1.7873399017	 0.5829102062	 0.141494
H	 0.0401430771	 1.8693006982	-0.9547780311	 0.135121
H	-0.8431117743	 1.8688469112	 0.5842311399	 0.139557
H	-0.0129931908	-0.7353014044	-2.0763749942	 0.11822
H	-0.15590934	-3.1949667107	-0.8516078843	 0.104839
H	-0.1269152298	-0.6057734722	 2.2311386803	 0.101277
115.4664	151.1702	231.8391	295.356	398.1229	519.7652	578.905	592.6945	642.3002	761.9425	812.82	840.7298	884.5476	914.3511	943.9587	947.018	1008.8157	1043.9856	1060.375	1108.2518	1152.5188	1199.3283	1238.3126	1294.8094	1312.6564	1414.857	1478.2545	1485.4498	1646.0628	1929.9934	3024.2275	3073.6673	3115.9976	3160.6537	3169.862	3241.2739
CC1=CC2OC1C2=O	CC1=C[C@@H]2O[C@H]1C2=O	
InChI=1S/C6H6O2/c1-3-2-4-5(7)6(3)8-4/h2,4,6H,1H3	InChI=1S/C6H6O2/c1-3-2-4-5(7)6(3)8-4/h2,4,6H,1H3/t4-,6+/m0/s1
