18
gdb 109353	3.44886	1.24189	0.95697	2.2478	76.13	-0.23	0.0053	0.2353	1223.9144	0.149877	-435.284523	-435.276035	-435.275091	-435.317895	31.13	
C	 0.2454729147	 1.41283958	 0.1840632502	-0.224665
O	-0.0184878805	 0.0274071183	-0.0295456649	-0.266317
C	 0.4689147719	-0.4953094696	-1.1804621084	 0.499562
N	 1.0694944933	 0.2094447015	-2.0397275939	-0.352462
C	 1.6661894328	-0.3956012718	-3.2134828591	-0.176705
C	 0.7447009287	-1.3257257218	-4.0272024672	-0.1671
N	 0.4778254191	-2.6298714672	-3.4479466069	-0.233886
C	 0.2376151038	-2.7781273024	-2.2150027986	 0.088117
N	 0.1929484322	-1.8598588461	-1.1699630481	-0.371316
H	 1.3206351952	 1.6106114238	 0.172059922	 0.136477
H	-0.2269497079	 2.0218733514	-0.5910149386	 0.138287
H	-0.1777461257	 1.6429470656	 1.1628580157	 0.126068
H	 1.9969676434	 0.4171104015	-3.8695649386	 0.104639
H	 2.5685742358	-0.9595211147	-2.9368505086	 0.111255
H	-0.2054926818	-0.8044047258	-4.2064215646	 0.115777
H	 1.1978894552	-1.4915248148	-5.0115713962	 0.103446
H	 0.0159862455	-3.7824566781	-1.8486124253	 0.112105
H	-0.1684967257	-2.1988950998	-0.290569249	 0.256719
79.493	131.1327	150.3578	191.0741	230.9362	282.1062	378.4682	409.277	480.48	530.439	584.7783	660.2364	721.9056	772.743	841.7493	907.1254	944.5759	951.7633	1025.66	1056.7344	1083.107	1110.0396	1183.8244	1192.3435	1223.4689	1254.6171	1265.0988	1316.7917	1347.5329	1378.1227	1445.5402	1469.0912	1475.6209	1485.8443	1496.8561	1501.2888	1531.9318	1746.3368	1782.7309	3003.5093	3014.8035	3047.6543	3052.4702	3058.2715	3110.5313	3121.0532	3149.3389	3609.624
COC1=NCCN=CN1	COC1=NCCN=CN1	
InChI=1S/C5H9N3O/c1-9-5-7-3-2-6-4-8-5/h4H,2-3H2,1H3,(H,6,7,8)	InChI=1S/C5H9N3O/c1-9-5-7-3-2-6-4-8-5/h4H,2-3H2,1H3,(H,6,7,8)
