18
gdb 7698	3.42212	2.08628	1.86631	1.6929	66.47	-0.2421	0.0742	0.3163	804.4157	0.1542	-384.921038	-384.913878	-384.912934	-384.951741	29.007	
C	-0.0599084728	 1.5106525859	 0.0060758798	-0.468548
C	 0.0230257873	-0.0105252567	-0.0026558381	 0.425725
O	-1.2708967076	-0.6020511805	-0.0392444755	-0.487587
C	 1.0051985259	-0.5919032423	-1.0846831172	-0.280142
C	 1.9677352594	-1.3033593883	-0.1157078404	 0.078604
C	 1.0352161242	-2.0485988978	 0.8646290885	-0.235255
C	 0.7652552842	-0.5780448284	 1.2355889443	 0.055484
O	 2.1560538729	-0.2723329635	 0.9131204449	-0.30408
H	 0.9309827085	 1.9418487399	 0.1677395148	 0.139666
H	-0.4407570976	 1.8883641475	-0.9510399969	 0.104104
H	-0.7313092061	 1.8517290566	 0.800865728	 0.118461
H	-1.7749740594	-0.1751355175	-0.7392870412	 0.277611
H	 0.4892937522	-1.2732974112	-1.7661604104	 0.098229
H	 1.5160929932	 0.1822687231	-1.6622518155	 0.10192
H	 2.8967418316	-1.7241287964	-0.500338066	 0.077683
H	 0.2155174012	-2.6524411769	 0.4740568844	 0.113745
H	 1.5950335133	-2.5654609343	 1.6444718604	 0.107426
H	 0.4413801196	-0.2428378493	 2.220942196	 0.076953
177.4015	250.3894	259.5409	264.7447	354.0401	401.15	446.8386	495.5939	555.3538	610.4617	770.7024	817.4984	837.9641	878.6738	897.4603	933.0093	942.6431	956.8947	974.9001	1025.3276	1045.7307	1062.7754	1110.8852	1126.1389	1181.7104	1206.0675	1227.2639	1240.2909	1253.8207	1268.062	1311.8304	1330.1665	1390.4338	1400.042	1470.8415	1488.6346	1493.856	1501.1581	3024.6378	3061.7572	3086.3133	3090.6641	3115.8501	3120.7338	3125.7729	3128.0474	3157.6148	3814.5006
CC1(O)CC2CC1O2	C[C@@]1(O)C[C@@H]2C[C@H]1O2	
InChI=1S/C6H10O2/c1-6(7)3-4-2-5(6)8-4/h4-5,7H,2-3H2,1H3	InChI=1S/C6H10O2/c1-6(7)3-4-2-5(6)8-4/h4-5,7H,2-3H2,1H3/t4-,5+,6+/m0/s1
