19
gdb 73440	2.87397	1.89599	1.47775	1.6211	78.39	-0.2267	0.0064	0.2331	947.5614	0.161601	-385.887076	-385.880021	-385.879077	-385.918027	29.27	
C	-0.0166058944	 1.4885612321	 0.048485355	-0.497348
C	 0.0046855482	-0.0196616322	-0.0085545929	 0.320848
C	 0.9826238483	-0.7012465019	-0.9746418997	-0.151202
O	 0.2460003134	-1.7221444232	-1.6516576497	-0.260791
C	-0.7949424569	-2.140072702	-0.751657313	 0.023036
C	-0.1577743045	-2.9709795531	 0.3575537469	-0.095318
C	 0.1072811171	-2.2018296271	 1.4162908004	-0.088325
C	-0.4411136703	-0.8234629445	 1.2345535079	-0.131196
C	-1.2459379846	-0.8490879855	-0.038412339	-0.121448
H	 0.9338705257	 1.8880795972	 0.4204656928	 0.121873
H	-0.1914906873	 1.9171624243	-0.9452074639	 0.123219
H	-0.8079583317	 1.8491055629	 0.7130738069	 0.118242
H	 1.353859058	-0.0009916921	-1.7302537881	 0.101627
H	 1.8461023609	-1.1316255857	-0.4483567872	 0.094636
H	-1.5517541489	-2.6485859876	-1.3513682275	 0.077977
H	 0.1881707976	-3.9847217852	 0.1968486748	 0.100424
H	 0.6764502727	-2.498602547	 2.2900942934	 0.096855
H	-0.7651268966	-0.2459885853	 2.094016099	 0.080801
H	-2.2432469267	-0.4406285741	-0.1426996663	 0.086088
201.5771	215.5361	232.0735	305.8149	321.0605	442.4704	535.0261	570.4519	658.8324	726.3649	749.3825	795.8305	816.3392	844.6731	889.0411	922.2609	925.0025	943.0873	968.1199	978.0139	990.013	1020.719	1039.2045	1052.7572	1085.7069	1120.8281	1126.3723	1199.2985	1238.3919	1270.2684	1286.4176	1294.0374	1321.672	1359.9811	1364.18	1417.3948	1418.0997	1489.0857	1498.1916	1507.1771	1656.9986	3002.5131	3023.1981	3066.4692	3083.1628	3099.3078	3100.4091	3164.0946	3188.8255	3190.638	3218.2873
CC12COC3C=CC1C23	C[C@@]12CO[C@H]3C=C[C@@H]1[C@@H]23	
InChI=1S/C8H10O/c1-8-4-9-6-3-2-5(8)7(6)8/h2-3,5-7H,4H2,1H3	InChI=1S/C8H10O/c1-8-4-9-6-3-2-5(8)7(6)8/h2-3,5-7H,4H2,1H3/t5-,6+,7-,8-/m1/s1
