14
gdb 24541	3.90927	1.74163	1.20485	3.2542	81.03	-0.2205	-0.0711	0.1494	942.4748	0.104913	-399.598341	-399.592433	-399.591489	-399.628454	24.087	
O	-0.0526966581	 1.3555612451	 0.0098637228	-0.198229
C	 1.110702869	 2.0305136532	 0.0026299666	 0.03588
C	 2.3262562059	 1.4230365574	-0.0125432507	-0.157836
C	 2.4278290458	 0.0017189319	-0.0217605934	-0.200706
C	 1.2654191643	-0.714662736	-0.0147764583	 0.254186
N	 1.03170098	-2.0639545019	-0.0204136085	-0.348256
C	-0.2951364673	-2.1645864853	-0.0081033392	-0.017565
C	-1.0087460339	-0.9191914453	 0.0058112802	-0.345097
C	-0.0038385787	 0.008251614	 0.0015901879	 0.365021
H	 0.9493404569	 3.0997282205	 0.0103712004	 0.145065
H	 3.2109667096	 2.0466641532	-0.0174161668	 0.121281
H	 3.394519489	-0.4895799486	-0.0338866962	 0.129354
H	-0.7663659105	-3.1422613534	-0.0092733439	 0.107148
H	-2.075876022	-0.7673552648	 0.0168787191	 0.109753
209.7889	260.5694	385.4211	441.2213	536.4384	566.4363	604.8742	634.3363	755.1201	757.02	777.0228	795.0223	886.6536	902.5477	911.687	937.5777	971.944	1021.8389	1041.4767	1085.2021	1200.2365	1221.9936	1278.2729	1292.7492	1351.0042	1396.6009	1409.8543	1457.4528	1554.2664	1610.8379	1685.5672	3189.596	3198.9599	3217.1313	3241.2601	3263.3984
O1C=CC=C2N=CC=C12	o1cccc2nccc12	
InChI=1S/C7H5NO/c1-2-6-7(9-5-1)3-4-8-6/h1-5H	InChI=1S/C7H5NO/c1-2-6-7(9-5-1)3-4-8-6/h1-5H
