19
gdb 89090	4.22477	0.63096	0.59038	2.7689	77.25	-0.2561	0.0151	0.2712	1848.1295	0.158023	-419.184617	-419.174717	-419.173773	-419.221027	34.425	
C	-0.6302656833	 1.1477825237	 0.9442457676	-0.425928
C	-0.0194461322	-0.1101822459	 0.3815343802	 0.087272
O	 1.1077108166	 0.0330980271	-0.4916479983	-0.260545
C	 1.303898002	-0.653566957	 0.743913263	 0.042315
C	 2.2460924135	-0.0116153922	 1.7362116306	-0.174217
N	 2.0690237502	-0.6258948337	 3.0494898362	-0.30437
C	 3.0143478894	-0.1245156102	 4.0388677603	-0.257617
C	 2.7739609193	-0.7297527593	 5.351784091	 0.256769
N	 2.5694656447	-1.1871969669	 6.3922752439	-0.294769
H	 0.125689435	 1.838574563	 1.3229927538	 0.127373
H	-1.1987720452	 1.6679231199	 0.1665071647	 0.137756
H	-1.3251802983	 0.9042384248	 1.755564799	 0.124001
H	-0.7495413189	-0.8381122478	 0.0212630372	 0.094853
H	 1.4449437477	-1.7312869866	 0.6477186873	 0.101691
H	 3.277199354	-0.2016203179	 1.4098382393	 0.120319
H	 2.1155390397	 1.0829990616	 1.7341299648	 0.097397
H	 1.1206816953	-0.4741973933	 3.3781893162	 0.234393
H	 4.0310241866	-0.3850719367	 3.7186812053	 0.159951
H	 3.0000498337	 0.9740945676	 4.1648297178	 0.133357
32.3238	81.5568	92.0127	114.4465	163.9206	225.23	259.179	330.6259	377.9052	393.2396	445.1514	528.6792	586.0098	772.1478	782.7284	805.1154	936.7219	959.4596	977.4236	996.4169	1015.8577	1066.144	1114.1891	1135.2871	1147.6645	1175.0373	1179.546	1223.4755	1281.5337	1295.099	1333.2691	1383.9868	1411.5009	1424.9234	1469.9292	1487.0591	1490.4258	1496.2146	1509.3488	1518.899	2369.3319	2935.6494	2969.5545	3037.0765	3039.9671	3047.874	3084.2005	3100.5147	3104.1269	3134.4498	3521.4904
CC1OC1CNCC#N	C[C@H]1O[C@H]1CNCC#N	
InChI=1S/C6H10N2O/c1-5-6(9-5)4-8-3-2-7/h5-6,8H,3-4H2,1H3	InChI=1S/C6H10N2O/c1-5-6(9-5)4-8-3-2-7/h5-6,8H,3-4H2,1H3/t5-,6+/m1/s1
