16
gdb 62249	4.62104	0.59157	0.5576	2.7708	67.85	-0.29	-0.0052	0.2848	1863.1514	0.121898	-475.04449	-475.034648	-475.033704	-475.081256	32.943	
O	-0.1889891938	 1.3904168299	-0.0808289984	-0.409
C	-0.0092514093	-0.0140104059	-0.0140113031	-0.023959
C	 0.5281776621	-0.6108608262	-1.3262797033	-0.211936
C	-0.4096145198	-0.3056161493	-2.4916191259	-0.09419
O	 0.1012891726	-0.9045279236	-3.6836988926	-0.177245
C	 0.4275879032	-0.0975273144	-4.7146866682	 0.170576
O	 0.8684000844	-0.5113664066	-5.7421000238	-0.265143
C	 0.8575771435	-0.3886804874	 1.1202513035	 0.258622
N	 1.5636687284	-0.6572466208	 1.9943735108	-0.303866
H	 0.6798597062	 1.8090985369	-0.0985338892	 0.300235
H	-1.0089853071	-0.4188672041	 0.1841937647	 0.147513
H	 1.5243937693	-0.2023123033	-1.5325061017	 0.123676
H	 0.642231207	-1.6940108882	-1.2165313688	 0.144965
H	-1.4028025904	-0.7317289877	-2.3121563991	 0.129916
H	-0.5238035447	 0.7764657289	-2.6196371358	 0.129243
H	 0.2377576583	 0.9720092319	-4.4955371891	 0.080593
32.1415	51.8679	100.9397	115.9256	164.5112	215.7769	274.8832	318.3746	342.9817	377.8408	437.3534	579.651	592.4847	671.9669	792.9444	884.3283	968.7776	1042.4043	1046.314	1059.945	1096.6492	1107.9064	1153.9953	1249.6836	1273.3488	1305.4829	1334.9544	1361.426	1406.1036	1420.6264	1436.1343	1482.0958	1512.5933	1873.3894	2358.4518	2943.063	3036.9191	3043.9596	3055.2259	3080.367	3105.1139	3798.2862
OC(CCOC=O)C#N	O[C@@H](CCOC=O)C#N	
InChI=1S/C5H7NO3/c6-3-5(8)1-2-9-4-7/h4-5,8H,1-2H2	InChI=1S/C5H7NO3/c6-3-5(8)1-2-9-4-7/h4-5,8H,1-2H2/t5-/m0/s1
