20
gdb 109231	3.32671	1.06501	0.8716	2.2764	81.96	-0.2105	0.0234	0.234	1369.5277	0.170626	-403.12749	-403.118485	-403.117541	-403.161248	33.731	
C	-0.0561905358	 1.4713549144	-0.0250373555	-0.414575
C	-0.0136522294	-0.0329459245	-0.1311075754	 0.031169
C	 0.7548868849	-0.7456702519	-1.1965759766	-0.167423
N	 1.2679583074	-0.6661166474	 0.1947281599	-0.121976
C	 1.1641109324	-2.0357847193	 0.7520012645	-0.208404
C	 0.5586063368	-2.8873824276	-0.3406877698	-0.192246
C	 0.3596397027	-2.1646486698	-1.4444072458	 0.337346
C	-0.1860340521	-2.6173645463	-2.7579022403	-0.188683
O	-0.4420992817	-4.0086599124	-2.7147787288	-0.412922
H	 0.8761067391	 1.908883408	-0.3920452942	 0.125354
H	-0.8881898129	 1.8822798356	-0.6073894306	 0.111917
H	-0.1850642021	 1.7834239596	 1.0173140341	 0.120153
H	-0.9126399175	-0.5522983402	 0.2039914366	 0.081046
H	 1.2857540506	-0.1817720391	-1.9620609013	 0.082853
H	 2.166476689	-2.3847313857	 1.036451135	 0.110325
H	 0.5637266039	-2.0245488634	 1.6716332916	 0.108577
H	 0.3144752051	-3.9354742897	-0.2283362796	 0.111475
H	-1.1029822324	-2.0456246348	-2.9876210622	 0.098935
H	 0.5377500734	-2.3643274598	-3.5536395067	 0.096822
H	-0.7980610013	-4.2736980956	-3.5674198748	 0.290256
72.7998	146.8338	180.5931	200.9319	227.1149	244.0295	266.3502	335.1913	398.8967	440.9815	561.5649	661.6088	758.0331	781.846	790.5976	823.4336	919.5493	949.1544	965.2524	1021.4101	1034.0072	1056.8406	1061.79	1069.1286	1083.4106	1147.5179	1164.5553	1180.8123	1203.0803	1216.2436	1248.7967	1257.6303	1285.1823	1334.1835	1344.7052	1407.7293	1434.9082	1469.8811	1487.3643	1492.9519	1498.2574	1508.2099	1715.9395	2938.6267	2950.4463	3003.8712	3031.1002	3032.8573	3093.233	3093.627	3116.4495	3121.6671	3226.3309	3838.5002
CC1C2N1CC=C2CO	C[C@H]1[C@H]2N1CC=C2CO	
InChI=1S/C7H11NO/c1-5-7-6(4-9)2-3-8(5)7/h2,5,7,9H,3-4H2,1H3	InChI=1S/C7H11NO/c1-5-7-6(4-9)2-3-8(5)7/h2,5,7,9H,3-4H2,1H3/t5-,7+,8?/m0/s1
