19
gdb 115980	2.10408	1.44813	0.90232	1.1152	87.44	-0.2292	-0.025	0.2042	1304.7692	0.157625	-385.871721	-385.862427	-385.861482	-385.906223	34.157	
C	 0.0825691923	 1.5582170024	 0.0785869912	-0.384124
C	 0.0817185017	 0.0281631956	 0.0547258762	-0.175267
C	 0.5899602798	-0.5386052902	-1.2734619962	 0.011518
O	 1.9370312304	-0.1215828794	-1.5130770645	-0.278383
C	 2.7798309688	-1.2391504923	-1.7649445978	-0.111133
C	 1.9027502073	-2.4415321659	-1.5963931887	-0.232918
C	 0.6508879355	-2.0584867978	-1.3246299829	 0.180749
C	-0.4871984342	-2.8699916457	-1.1207782233	 0.258859
C	-1.4881742247	-3.5172916078	-0.9437064067	-0.442093
H	 1.089923194	 1.9443020699	-0.0980600481	 0.134328
H	-0.574273869	 1.9657898753	-0.6982227834	 0.112113
H	-0.2667669244	 1.9367724649	 1.0437819564	 0.109587
H	 0.712320022	-0.3658602502	 0.8607587196	 0.096168
H	-0.9310326922	-0.3574366331	 0.2227686752	 0.105703
H	-0.0513164126	-0.1594763548	-2.0874981001	 0.083522
H	 3.2027256433	-1.1775138796	-2.7816456985	 0.109705
H	 3.6295334282	-1.2329856771	-1.0644447848	 0.111902
H	 2.2522555573	-3.4604717922	-1.6969946151	 0.113638
H	-2.3611495834	-4.101671292	-0.7888332787	 0.196126
66.3297	92.0859	124.8663	164.1458	207.3836	230.6182	324.3559	376.4923	435.3503	536.4527	540.849	594.7219	623.2447	640.0414	753.0741	779.3592	836.3017	865.5118	923.3625	949.7855	976.2137	1040.4953	1055.1823	1088.7926	1123.318	1140.2582	1194.0246	1198.5032	1271.1623	1287.0367	1309.9529	1349.8962	1385.3635	1392.2847	1406.3799	1476.8876	1496.2054	1508.7276	1518.959	1684.1163	2223.9389	2953.8127	2964.5611	2988.0295	3030.6083	3035.7636	3070.461	3101.9277	3122.1798	3227.1658	3502.8216
CCC1OCC=C1C#C	CC[C@H]1OCC=C1C#C	
InChI=1S/C8H10O/c1-3-7-5-6-9-8(7)4-2/h1,5,8H,4,6H2,2H3	InChI=1S/C8H10O/c1-3-7-5-6-9-8(7)4-2/h1,5,8H,4,6H2,2H3/t8-/m1/s1
