16
gdb 87613	2.85421	1.50873	1.13019	3.9486	72.09	-0.2228	-0.0294	0.1934	1079.1522	0.123822	-437.910326	-437.902216	-437.901272	-437.942924	30.508	
C	-0.0641443013	 1.5232311253	-0.1246239625	-0.422923
C	-0.0189359573	 0.0314626541	 0.0692516777	 0.021459
O	 1.2333774465	-0.6208515586	-0.1085673926	-0.283419
C	 0.671585047	-0.6158531435	 1.2103921341	 0.297661
C	 1.3474031966	 0.0211971048	 2.3643302574	-0.27624
C	 1.1913944517	-0.7949528068	 3.4160679212	-0.019094
N	 0.4657443112	-1.9483425989	 3.0774632797	-0.360889
C	 0.1387597297	-1.9513194366	 1.732476659	 0.37434
O	-0.4518910317	-2.8114686748	 1.1254471273	-0.362771
H	 0.804200311	 2.0104704377	 0.324323022	 0.128071
H	-0.0760867201	 1.7622379924	-1.1930809823	 0.136191
H	-0.9732820035	 1.9383345999	 0.3225023621	 0.129209
H	-0.8584465854	-0.5337743811	-0.3397676952	 0.114602
H	 1.8632131358	 0.9673356639	 2.3552319249	 0.118986
H	 1.5320071766	-0.666169566	 4.4333536519	 0.138894
H	 0.2913440434	-2.7305791117	 3.6855068951	 0.265923
107.8831	153.4062	179.0008	195.2445	267.1894	316.0982	441.3092	446.9185	516.7229	572.805	610.349	700.0643	723.6166	736.2798	813.1905	835.7757	894.3872	928.4117	992.6617	1008.7136	1072.3639	1096.6297	1133.4656	1142.9993	1187.3351	1261.9312	1319.6915	1372.7301	1406.0752	1411.9514	1460.2851	1483.6329	1502.6506	1652.1821	1846.9452	3041.5849	3099.6785	3105.4478	3133.4025	3239.6569	3271.9817	3669.0493
CC1OC11C=CNC1=O	C[C@H]1O[C@]21C=CNC2=O	
InChI=1S/C6H7NO2/c1-4-6(9-4)2-3-7-5(6)8/h2-4H,1H3,(H,7,8)	InChI=1S/C6H7NO2/c1-4-6(9-4)2-3-7-5(6)8/h2-4H,1H3,(H,7,8)/t4-,6+/m1/s1
