15
gdb 46843	2.83738	1.8977	1.5252	2.6266	64.67	-0.2395	-0.0419	0.1976	874.172	0.114127	-457.771189	-457.764549	-457.763604	-457.80233	26.094	
O	 0.0098383776	-0.00521471	 0.242650802	-0.306382
C	 0.0181675557	 1.1722846481	-0.0030400503	 0.38274
C	-1.2968731587	 1.9541000033	-0.2140787665	-0.180307
O	-1.2058434745	 3.2562470094	-0.7964348903	-0.258448
C	 0.0831376113	 3.832146054	-0.7313363668	 0.134841
O	 1.043400555	 2.9071440933	-1.2064948249	-0.232246
C	 1.2687592657	 2.0554909316	-0.078820378	-0.084212
C	 1.2007284192	 3.0033406361	 1.1066693464	-0.115057
C	 0.5120395036	 4.0710520573	 0.7114601355	-0.0936
H	-1.9452481797	 1.350071782	-0.8550553882	 0.1477
H	-1.7779644023	 2.0118086464	 0.7730357411	 0.136011
H	 0.0556940577	 4.700545328	-1.3904460381	 0.103974
H	 2.185285274	 1.4797516764	-0.2087257119	 0.109266
H	 1.5732864838	 2.7639626625	 2.0931550886	 0.131235
H	 0.1994178517	 4.9234706915	 1.2984007014	 0.124484
94.0692	186.5244	322.1305	396.5249	424.5396	469.4729	560.781	583.439	654.6682	742.0613	773.7394	833.8948	858.332	915.5531	932.3863	951.1066	963.8965	983.8542	1012.4712	1040.3732	1123.6249	1132.4819	1189.6359	1236.9982	1249.8007	1278.8223	1321.2269	1346.9527	1351.4333	1381.361	1471.1442	1654.6688	1839.2462	3009.6961	3092.7373	3119.0909	3125.4804	3223.7972	3247.9457
O=C1COC2OC1C=C2	O=C1CO[C@@H]2O[C@H]1C=C2	
InChI=1S/C6H6O3/c7-4-3-8-6-2-1-5(4)9-6/h1-2,5-6H,3H2	InChI=1S/C6H6O3/c7-4-3-8-6-2-1-5(4)9-6/h1-2,5-6H,3H2/t5-,6+/m0/s1
