18
gdb 127139	4.03211	1.10191	0.88284	1.7321	76.7	-0.2127	-0.0013	0.2114	1326.1485	0.14689	-435.277892	-435.268385	-435.267441	-435.312885	32.855	
C	 0.0574925555	 1.4246348788	-0.0210371398	-0.342357
N	 0.2023224766	-0.0207452676	-0.0323716107	-0.16051
C	-0.0395877191	-0.7197052406	 1.2169295757	-0.333717
C	 0.0008691389	-0.7061771813	-1.1927825994	 0.470451
N	-0.2667228822	-1.9986457611	-1.2307423833	-0.24962
O	-0.3057509865	-2.2623218397	-2.6223658475	-0.207349
C	-0.0855230904	-1.1018883589	-3.2399911573	 0.428984
C	-0.0845204541	-1.0887348784	-4.726908344	-0.493813
N	 0.1074688604	-0.1032260638	-2.4335687179	-0.387719
H	 0.7183193173	 1.8472009786	 0.7426519293	 0.122905
H	 0.3361737365	 1.8238928496	-0.9951728921	 0.165142
H	-0.9734234536	 1.7380443671	 0.2060580733	 0.114509
H	-1.1098302128	-0.774395699	 1.4674760162	 0.12
H	 0.3448645671	-1.7384795363	 1.1459512173	 0.160364
H	 0.4800815128	-0.1946224504	 2.0234129787	 0.121149
H	 0.6854079927	-1.7616429018	-5.1161372097	 0.156716
H	-1.0486383796	-1.4304173439	-5.1153372382	 0.156174
H	 0.1091372006	-0.0759741912	-5.0792835807	 0.158692
58.3139	87.6351	114.5978	160.4537	179.5944	202.7849	246.6758	338.2401	362.3788	372.0686	532.5258	596.2429	654.5303	726.3269	775.7155	918.2436	951.6423	1004.2991	1044.8777	1068.1254	1078.5716	1089.9177	1132.1889	1177.8741	1248.6658	1290.7146	1319.28	1406.0951	1439.1677	1446.3468	1466.3975	1475.8909	1477.3138	1484.6827	1493.7521	1504.2825	1512.9321	1627.9799	1647.5591	2984.1036	2994.3421	3053.359	3071.6716	3081.5806	3112.2837	3139.3862	3162.2307	3163.3839
CN(C)C1=NOC(C)=N1	CN(C)c1noc(C)n1	
InChI=1S/C5H9N3O/c1-4-6-5(7-9-4)8(2)3/h1-3H3	InChI=1S/C5H9N3O/c1-4-6-5(7-9-4)8(2)3/h1-3H3
