19
gdb 41805	2.35315	2.06798	1.55116	1.9651	75.31	-0.2444	0.0126	0.257	937.4382	0.162754	-423.034574	-423.027479	-423.026535	-423.065994	28.573	
C	-0.1066484187	 1.405817171	-0.3412088612	-0.07079
O	 1.0620723585	 2.0319550122	 0.196932546	-0.26482
C	 2.0586280173	 1.0653227432	 0.4729621946	 0.215152
C	 1.5626123394	-0.2388427066	-0.1651198162	-0.257815
C	 0.0375617238	-0.0971244641	-0.0151016715	-0.088112
C	-0.4545923079	-0.4218351097	 1.3762716013	-0.081726
C	 0.047082234	 0.0384513691	 2.5232843243	-0.061911
C	 1.2031715319	 0.9866232972	 2.7449720202	-0.122388
O	 2.3069089618	 0.9389025135	 1.8547757268	-0.260968
H	-0.9887439453	 1.864088272	 0.113796716	 0.111129
H	-0.1441093043	 1.5688955551	-1.4282130025	 0.094172
H	 3.0109320765	 1.4126416297	 0.0593840095	 0.087149
H	 1.8406917674	-0.2610272046	-1.2246614798	 0.100493
H	 1.9812579959	-1.1131723494	 0.3328059017	 0.116007
H	-0.5017636086	-0.702251456	-0.7472898668	 0.072887
H	-1.3293130583	-1.0654650038	 1.4298409409	 0.087543
H	-0.4578089425	-0.242281957	 3.4463981479	 0.091091
H	 0.8041733381	 2.0121172309	 2.7885533672	 0.119877
H	 1.6457669709	 0.7796179175	 3.7244352416	 0.113028
100.3948	190.4993	262.5241	305.8179	387.0588	453.5609	478.7466	548.6025	688.9452	715.5565	774.6025	806.6758	833.4655	856.353	895.3698	925.7286	952.8567	992.1951	998.64	1015.5586	1032.7437	1054.063	1076.0636	1105.4619	1154.6563	1196.2331	1224.3394	1233.3358	1261.9017	1295.6009	1320.581	1325.1746	1376.425	1385.838	1402.171	1420.0609	1424.266	1479.0141	1481.0153	1521.7336	1723.6492	2986.2792	2996.0845	3045.5296	3062.4127	3071.7255	3083.1767	3088.7041	3132.0247	3138.2364	3159.2775
C1OC2CC1C=CCO2	C1O[C@@H]2C[C@H]1C=CCO2	
InChI=1S/C7H10O2/c1-2-6-4-7(8-3-1)9-5-6/h1-2,6-7H,3-5H2	InChI=1S/C7H10O2/c1-2-6-4-7(8-3-1)9-5-6/h1-2,6-7H,3-5H2/t6-,7-/m1/s1
