21
gdb 114233	3.27769	0.92694	0.8721	2.8142	79.24	-0.2538	0.073	0.3268	1430.9066	0.180582	-424.196707	-424.187092	-424.186148	-424.231518	35.728	
C	-0.346669868	 1.4387042611	 0.5510145066	-0.415437
C	-0.208993116	-0.0573574566	 0.4467175739	-0.025743
O	 0.9359334973	-0.5533740084	-0.2702753804	-0.297187
C	 0.850656018	-0.8177942769	 1.119293897	 0.458301
C	 1.8711866334	-0.3481268023	 2.1622071493	-0.34731
C	 1.5592372985	-1.6467353683	 2.9704541353	 0.019397
C	 0.6740637576	-1.4065901473	 4.1798401824	-0.079166
O	 0.2719729444	-2.6696639097	 4.6872610627	-0.420399
C	 0.7976398279	-2.218367836	 1.7341123709	-0.325405
H	 0.6067402211	 1.9019646983	 0.8174799547	 0.127153
H	-0.6764454808	 1.8623472009	-0.4034415698	 0.129814
H	-1.0907891056	 1.7050200228	 1.3101451246	 0.117388
H	-1.1313624118	-0.5941157838	 0.212964725	 0.086792
H	 2.886907421	-0.3331028921	 1.758388449	 0.114951
H	 1.6789194852	 0.6064418323	 2.6624187033	 0.098774
H	 2.4327652226	-2.2257053092	 3.2774746677	 0.080738
H	 1.2313965025	-0.8290465594	 4.9356672437	 0.085701
H	-0.1990701339	-0.8000328496	 3.8841998407	 0.081267
H	-0.3132465969	-2.5231244212	 5.4360156228	 0.2869
H	-0.1846302817	-2.6560526701	 1.9272044774	 0.11147
H	 1.3963274255	-2.9313007546	 1.1605545132	 0.112002
45.5444	112.5102	156.1839	182.7045	210.9174	248.3305	258.6792	319.9207	379.2292	435.3644	468.8456	474.8935	574.8919	771.8654	805.8424	822.1704	842.8059	908.6378	934.3796	964.9587	972.7592	1023.9383	1054.4662	1070.6486	1089.9607	1124.3913	1139.4885	1153.5427	1183.6972	1190.2986	1210.734	1241.1645	1261.2131	1283.0794	1288.3204	1352.4669	1363.7159	1408.7939	1458.8497	1466.0334	1470.4969	1487.7531	1491.3682	1518.5815	1522.7711	2952.5589	2981.4452	3034.1295	3049.0546	3062.3703	3080.6301	3085.2303	3097.0069	3106.1118	3116.5743	3123.8865	3829.9755
CC1OC11CC(CO)C1	C[C@H]1O[C@]21C[C@@H](CO)C2	
InChI=1S/C7H12O2/c1-5-7(9-5)2-6(3-7)4-8/h5-6,8H,2-4H2,1H3	InChI=1S/C7H12O2/c1-5-7(9-5)2-6(3-7)4-8/h5-6,8H,2-4H2,1H3/t5-,6-,7-/m1/s1
