18
gdb 10086	3.08366	1.29819	1.05482	4.0641	64.7	-0.2523	-0.0273	0.225	1136.7487	0.151273	-422.074858	-422.065403	-422.064459	-422.109301	32.969	
O	 0.7195899401	 0.2822435527	 0.7730178065	-0.434964
C	-0.1551490114	 0.4621908174	-0.3262747234	-0.050458
C	-1.4594895173	-0.3473896233	-0.211648436	-0.019421
C	-2.2425637789	-0.3036786473	-1.523862711	-0.092866
O	-2.5292948641	 1.0528458326	-1.8240440232	-0.420247
C	-1.193515716	-1.7964522747	 0.2154341356	-0.29986
C	-1.0172180931	-2.0038617988	 1.7015306555	 0.168363
O	-1.0604985071	-1.1395563139	 2.5430570046	-0.253648
H	 0.1976859361	 0.3618526367	 1.5807718217	 0.292462
H	-0.4034590822	 1.5196590565	-0.4825735656	 0.109903
H	 0.4035445229	 0.1260993716	-1.2105120671	 0.09335
H	-2.0855115457	 0.1207167501	 0.5587570902	 0.101227
H	-1.6478409284	-0.7725997273	-2.326301713	 0.086351
H	-3.1691971971	-0.8911671535	-1.4176898141	 0.086202
H	-2.967811133	 1.0896226723	-2.6788082483	 0.289966
H	-2.0187495554	-2.4620129392	-0.0833181476	 0.118072
H	-0.3013855558	-2.2111912144	-0.2757357085	 0.136862
H	-0.8575378935	-3.0650916772	 1.9959867636	 0.088705
80.7134	106.1747	122.8921	143.9714	189.116	223.2434	258.7157	269.9695	394.0311	415.613	467.5275	527.0883	678.3835	716.6526	848.8874	904.3769	957.2121	991.8852	1067.3575	1071.4514	1100.0203	1125.5616	1128.7691	1206.5508	1233.3003	1249.8313	1288.8868	1309.1734	1347.3848	1388.6975	1400.7424	1419.5904	1432.7145	1445.762	1461.8163	1514.425	1520.5595	1818.3243	2886.5501	2951.964	2980.4785	3000.4297	3011.5682	3029.9503	3039.5421	3056.2027	3782.2831	3834.6861
OCC(CO)CC=O	OCC(CO)CC=O	
InChI=1S/C5H10O3/c6-2-1-5(3-7)4-8/h2,5,7-8H,1,3-4H2	InChI=1S/C5H10O3/c6-2-1-5(3-7)4-8/h2,5,7-8H,1,3-4H2
