15
gdb 34180	4.49416	1.47129	1.31539	3.5312	72.49	-0.2508	0.0169	0.2678	936.0652	0.115104	-379.62642	-379.620167	-379.619223	-379.65697	25.376	
N	 0.1379364497	-1.0675235057	 0.0050722643	-0.341751
C	 0.0597598843	 0.087215076	-0.0077138283	 0.176891
C	-0.0429483496	 1.5114361673	-0.0266471652	 0.191448
C	-1.144659204	 2.2403894387	-0.7779054251	-0.304517
C	-0.7591275148	 3.649247632	-0.3985428009	-0.05548
C	 0.7092677424	 3.7831386184	-0.2284231147	-0.054598
C	 1.2379963172	 2.3668060797	 0.0342921548	-0.14137
C	 0.323566953	 2.3206870554	 1.2142777446	-0.049357
N	-0.1813958562	 3.7222122276	 0.9820078917	-0.159879
H	-1.0993586104	 2.0748053055	-1.8583690251	 0.130909
H	-2.1383174149	 1.9615177537	-0.4155515702	 0.132989
H	-1.3685059206	 4.5012188897	-0.6765560379	 0.112544
H	 1.3024526261	 4.6589319928	-0.460221091	 0.112734
H	 2.2298200051	 1.9687474503	-0.1209733731	 0.122671
H	 0.4157796827	 1.9141870186	 2.2115312961	 0.126767
153.5105	158.5143	382.2309	494.897	508.1584	534.8948	567.1827	702.3036	741.1247	751.2257	793.6478	804.9677	876.8227	884.695	922.4489	955.2306	970.3381	1008.6398	1012.1092	1038.1584	1056.9579	1076.6213	1147.3433	1162.7085	1183.3981	1221.1519	1237.1526	1286.8441	1311.2275	1350.9218	1382.8287	1488.976	2350.3838	3061.6008	3109.8313	3187.1825	3197.0432	3217.9965	3233.5289
N#CC12CC3C4C1C2N34	N#C[C@]12C[C@@H]3[C@@H]4[C@H]1[C@H]2N34	
InChI=1S/C7H6N2/c8-2-7-1-3-5-4(7)6(7)9(3)5/h3-6H,1H2	InChI=1S/C7H6N2/c8-2-7-1-3-5-4(7)6(7)9(3)5/h3-6H,1H2/t3-,4+,5-,6-,7-,9?/m1/s1
