20
gdb 54273	2.87992	1.23909	1.13397	5.2331	73.54	-0.2445	0.0244	0.2688	1171.2288	0.172768	-440.339705	-440.330739	-440.329795	-440.374625	33.392	
N	-0.003930617	 0.8198215986	 0.1804680063	-0.582951
H	-0.6155394574	 0.3530834389	-0.4810571653	 0.243366
H	 0.6438134189	 0.1278990166	 0.5380427199	 0.245058
H	 0.357993957	 2.5549204026	-0.3535270705	 0.305427
C	-0.7737283974	 1.4721899758	 1.2648374272	 0.147448
C	-2.1892295401	 0.8901993095	 1.4455751334	-0.243273
C	-1.9712723344	-0.424812893	 2.2185645317	-0.213696
C	-0.708182678	-0.1830881946	 3.0934216024	-0.217442
C	-0.1338248603	 1.1853958257	 2.6424108572	-0.246077
C	-0.8144098531	 2.9952398498	 0.9985408183	 0.41445
O	-0.042261034	 3.3906311463	-0.0173043529	-0.376337
O	-1.4716952457	 3.7546110527	 1.6632560391	-0.36162
H	-2.7694139736	 1.605903145	 2.0341233565	 0.137441
H	-2.7099939781	 0.75435804	 0.4912778438	 0.094596
H	-2.8475840919	-0.6969681176	 2.8119506172	 0.108479
H	-1.7967263506	-1.2513102573	 1.521954479	 0.093453
H	-0.948584119	-0.1641143888	 4.159362382	 0.112698
H	 0.0199531484	-0.9883615992	 2.957655788	 0.097974
H	 0.9598148057	 1.2073547942	 2.596235152	 0.102316
H	-0.4457112791	 1.9796437347	 3.3245195944	 0.138689
35.786	43.7677	147.3531	200.3038	247.7019	302.9707	376.8047	394.9061	410.401	546.7774	636.5642	694.9196	736.7956	748.2136	806.4188	825.215	850.3966	891.5856	904.6234	941.8265	956.0626	1014.6999	1035.2289	1046.8671	1059.3296	1083.9372	1200.8894	1205.8089	1233.4982	1256.207	1273.2783	1287.1942	1319.3345	1332.4614	1341.7575	1357.931	1438.6854	1487.2952	1495.1024	1497.2014	1518.827	1649.5876	1855.176	3042.2199	3048.5916	3052.4327	3063.3829	3082.9191	3098.013	3108.0827	3117.4989	3420.4071	3514.9442	3598.3161
[NH3+]C1(CCCC1)C([O-])=O	NC1(CCCC1)C(=O)O	
InChI=1S/C6H11NO2/c7-6(5(8)9)3-1-2-4-6/h1-4,7H2,(H,8,9)	InChI=1S/C6H11NO2/c7-6(5(8)9)3-1-2-4-6/h1-4,7H2,(H,8,9)
