17
gdb 10151	3.01875	1.30009	0.98847	1.3727	72.1	-0.2287	-0.0344	0.1943	1197.6898	0.139006	-363.821284	-363.811876	-363.810932	-363.855984	32.74	
C	 0.0093025665	 1.5657910023	 0.01207144	-0.392512
C	 0.0227472196	 0.0418834335	 0.0689365152	-0.109232
N	-1.3339344176	-0.4846887914	-0.1141675774	-0.274707
C	-1.4213044841	-1.9310237709	-0.0354077589	-0.241817
C	-1.2954102893	-2.5064065569	 1.3967832837	 0.157715
O	-1.2584351668	-1.8150820524	 2.3782759071	-0.239896
C	-2.682513082	-2.4491829752	-0.5734043901	 0.28675
C	-3.7333769799	-2.9010091685	-0.9419821369	-0.401599
H	 1.0242981497	 1.964240895	 0.099229104	 0.116777
H	-0.4257060633	 1.9137167609	-0.9290796158	 0.128261
H	-0.5821400742	 1.9830407762	 0.8348589321	 0.119855
H	 0.6412733783	-0.3520975438	-0.7484008012	 0.100962
H	 0.4861952757	-0.2887801953	 1.0119976518	 0.099054
H	-1.9443430871	-0.0899586336	 0.596379808	 0.226588
H	-0.5938366534	-2.361147522	-0.6206711568	 0.124345
H	-1.2708960727	-3.616650115	 1.4525656042	 0.096037
H	-4.6568102595	-3.286040983	-1.2988440691	 0.203418
63.3363	85.3055	107.1251	129.8472	201.1627	250.922	269.5965	296.4801	401.5272	471.0917	521.9063	624.2236	668.7047	679.34	766.848	812.1327	833.3587	934.1062	971.838	1019.618	1070.398	1138.9825	1154.0522	1203.0314	1253.1901	1290.5361	1326.1621	1390.676	1404.2104	1419.0758	1485.0626	1498.7793	1509.7544	1519.7405	1834.6915	2233.136	2895.7121	2977.4826	2998.1936	3030.7232	3037.6404	3103.9416	3121.3493	3502.6994	3508.9615
CCNC(C=O)C#C	CCN[C@@H](C=O)C#C	
InChI=1S/C6H9NO/c1-3-6(5-8)7-4-2/h1,5-7H,4H2,2H3	InChI=1S/C6H9NO/c1-3-6(5-8)7-4-2/h1,5-7H,4H2,2H3/t6-/m1/s1
