18
gdb 22671	5.2595	0.81105	0.73287	1.8871	80.71	-0.2178	-0.025	0.1928	1503.2097	0.147245	-439.054471	-439.045461	-439.044517	-439.088836	33.164	
O	-0.1321607484	 1.4745723053	-0.0334374278	-0.422356
C	 0.0173228339	 0.0639341526	-0.0634701913	-0.085234
C	-1.3741041015	-0.5557523159	 0.07597133	-0.036031
C	-1.3568868684	-2.1083195252	 0.0442356023	-0.338393
C	-2.1316146231	-2.5260877103	 1.2845091349	 0.378141
C	-2.4515305261	-1.3230624492	 2.0513548875	-0.154991
C	-2.0360715646	-0.2316775241	 1.3951073912	-0.063485
N	-2.4048045274	-3.7525207561	 1.5200778699	-0.238642
O	-3.1208071113	-3.897117735	 2.7251109828	-0.398344
H	 0.7414437741	 1.8741564112	-0.0718189464	 0.289807
H	 0.4727161261	-0.2714232979	-1.0091111934	 0.090397
H	 0.658454804	-0.2912597294	 0.7594473381	 0.090243
H	-1.9804485103	-0.1508186354	-0.7454697263	 0.097424
H	-1.8024494067	-2.5176255585	-0.8652288882	 0.126661
H	-0.3307384818	-2.4906401625	 0.0946590973	 0.121286
H	-2.9615001125	-1.3523646581	 3.0034452818	 0.120034
H	-2.1451827382	 0.7912974875	 1.7342572975	 0.119266
H	-3.2543962477	-4.8494335491	 2.7642773702	 0.304216
34.6161	116.82	189.1135	232.2408	253.2455	261.1509	268.4053	347.5356	374.1644	451.5186	554.5811	625.1559	699.8616	738.3366	823.5833	845.7859	866.8271	909.0326	972.1784	994.1406	1016.534	1065.5931	1072.7122	1099.5193	1128.6977	1177.4478	1237.4642	1242.5004	1257.3032	1281.7304	1313.0299	1341.7262	1373.2294	1403.1464	1452.3032	1475.4399	1522.0656	1644.6844	1727.3188	2963.377	2993.0527	3020.2799	3042.9694	3101.4696	3211.6184	3248.321	3826.9034	3834.3819
OCC1CC(C=C1)=NO	OC[C@H]1CC(=NO)C=C1	
InChI=1S/C6H9NO2/c8-4-5-1-2-6(3-5)7-9/h1-2,5,8-9H,3-4H2	InChI=1S/C6H9NO2/c8-4-5-1-2-6(3-5)7-9/h1-2,5,8-9H,3-4H2/t5-/m1/s1
