18
gdb 39343	2.77265	1.90972	1.41533	1.5399	70.23	-0.2517	0.0849	0.3365	941.4831	0.150952	-439.070065	-439.0631	-439.062156	-439.10151	27.543	
C	 0.046207078	 1.3775420585	 0.14892119	-0.070069
C	 1.4730038355	 1.9266338684	-0.0574985817	-0.340799
C	 2.2240500337	 0.6247876082	-0.0130367506	 0.301259
N	 3.6537749385	 0.3810415248	 0.0492620692	-0.41892
C	 2.803594749	-0.0425588952	 1.1795283937	-0.094018
C	 2.2405881388	-1.4485448906	 1.2082169147	-0.117029
O	 1.6328128238	-1.6526633985	-0.0717472253	-0.263986
C	 1.329455359	-0.4138562407	-0.6661699418	 0.186414
O	 0.0144403779	 0.0634647846	-0.436648533	-0.280033
H	-0.1910455233	 1.3097860418	 1.2196901458	 0.101311
H	-0.7258306583	 1.9821009117	-0.334933833	 0.112296
H	 1.5750721855	 2.4124689522	-1.0341249031	 0.11452
H	 1.770278081	 2.6371286031	 0.7159833654	 0.117364
H	 3.9010335101	-0.4155868499	-0.5375337868	 0.238997
H	 2.9817700648	 0.4779999211	 2.1148471799	 0.10317
H	 2.9883208297	-2.2378750015	 1.3443766879	 0.114092
H	 1.5011621752	-1.5322539574	 2.0176345195	 0.111175
H	 1.4577239411	-0.5661323706	-1.7453814708	 0.084256
116.4255	146.2928	225.6635	343.5109	386.9127	459.6782	541.1576	601.4029	670.3422	749.273	790.9776	856.7041	899.5453	918.6735	930.4414	953.7197	965.1899	987.0191	1032.8767	1044.9479	1066.2196	1093.1719	1118.1346	1127.7284	1170.6336	1189.068	1228.9996	1238.5142	1278.492	1309.6972	1314.3964	1349.9595	1370.0617	1394.327	1402.0536	1468.9171	1491.759	1514.0116	1526.2158	3003.6565	3006.7869	3029.594	3049.4622	3062.9379	3085.8137	3118.954	3166.7554	3463.3874
C1CC23NC2COC3O1	C1C[C@@]23N[C@@H]2CO[C@H]3O1	
InChI=1S/C6H9NO2/c1-2-8-5-6(1)4(7-6)3-9-5/h4-5,7H,1-3H2	InChI=1S/C6H9NO2/c1-2-8-5-6(1)4(7-6)3-9-5/h4-5,7H,1-3H2/t4-,5-,6-/m1/s1
