14
gdb 124260	3.87288	1.29525	0.97641	0.2725	70.49	-0.2509	-0.0938	0.1571	1127.2928	0.101122	-432.893896	-432.886198	-432.885254	-432.9268	27.301	
C	-0.0197494941	 1.5022430639	-0.0200815904	-0.479674
C	-0.0211921558	-0.0052022909	 0.027690926	 0.334287
O	-0.035326562	-0.6407798786	 1.0596051525	-0.289647
C	-0.0037294683	-0.7473293408	-1.2850417148	 0.213835
C	-0.0037709508	-2.1493264765	-1.3102835114	-0.015433
N	 0.011549074	-2.8035707665	-2.4611746456	-0.232494
C	 0.0264269864	-2.017616056	-3.5459620882	 0.1153
N	 0.0272613536	-0.6845315375	-3.5758837876	-0.178063
N	 0.011719016	-0.0400249779	-2.4138015438	-0.236871
H	 0.8640858168	 1.8641367889	-0.5545099564	 0.158502
H	-0.8841315935	 1.8655236231	-0.5843893101	 0.158533
H	-0.0364545564	 1.8919827348	 0.9977147932	 0.142287
H	-0.0164159852	-2.7155682672	-0.3841658945	 0.161413
H	 0.0394325592	-2.5072644188	-4.5153005789	 0.148024
62.4363	130.9449	147.873	199.6697	358.8483	363.5305	386.2824	482.2378	605.366	623.1728	644.0269	800.2982	802.3101	957.6919	961.5015	1030.5002	1052.2809	1060.5808	1075.073	1146.3555	1159.9648	1219.34	1310.3658	1389.549	1400.389	1443.0461	1452.7568	1464.0492	1553.9807	1598.0444	1793.5427	3052.1119	3114.0752	3163.4257	3188.5487	3193.2547
CC(=O)C1=CN=CN=N1	CC(=O)c1cncnn1	
InChI=1S/C5H5N3O/c1-4(9)5-2-6-3-7-8-5/h2-3H,1H3	InChI=1S/C5H5N3O/c1-4(9)5-2-6-3-7-8-5/h2-3H,1H3
