21
gdb 26177	3.89546	0.90476	0.87506	1.6646	87.29	-0.1691	0.0563	0.2254	1456.1583	0.183051	-383.31098	-383.30105	-383.300106	-383.345864	37.303	
C	 0.0333134962	 1.4754459789	-0.2484784619	-0.37942
C	 0.0061700297	-0.0298797645	 0.080475807	-0.084593
C	 0.6958608567	-0.3113625757	 1.4296040309	-0.379526
C	-1.3840607504	-0.5967529737	 0.0247951518	 0.351156
C	-1.9204287182	-1.5662685448	-0.797935389	-0.325016
C	-3.2901479881	-1.7434694737	-0.4413240254	 0.262598
N	-4.2040560121	-2.5924331351	-1.1009524988	-0.606532
C	-3.5539171634	-0.8745939482	 0.5942342176	-0.175163
N	-2.3863707657	-0.1807306019	 0.8610669978	-0.312813
H	 1.061466241	 1.8525717241	-0.26598381	 0.108989
H	-0.4242221141	 1.6727126562	-1.2218281943	 0.123777
H	-0.5163046656	 2.0566846173	 0.5012664764	 0.101591
H	 0.5743208741	-0.5511690643	-0.6989870624	 0.085575
H	 0.175917041	 0.1895132773	 2.2548280064	 0.101376
H	 0.7094876478	-1.3828783087	 1.6477393674	 0.121167
H	 1.7284477085	 0.0537835811	 1.4239060233	 0.109435
H	-1.3900580269	-2.0880696977	-1.5812976766	 0.077959
H	-3.7716057703	-3.4640629343	-1.3818325017	 0.236408
H	-5.008085146	-2.8085992132	-0.5247257878	 0.233421
H	-4.4587471751	-0.6861412781	 1.1489414369	 0.097424
H	-2.2888007588	 0.5152906789	 1.5779244922	 0.252186
37.1097	120.2051	173.3384	185.2588	225.9131	254.9406	278.366	289.628	342.2783	381.2868	453.6313	483.7427	611.6808	624.2608	658.8865	701.2393	707.8548	768.4782	805.7615	876.7165	927.0524	957.7479	985.4874	999.6512	1063.2567	1104.4546	1120.0145	1135.7844	1157.1478	1205.497	1294.2761	1328.7453	1336.4794	1346.6896	1396.4164	1417.8379	1460.5687	1481.1934	1484.5042	1490.7782	1502.2698	1504.7687	1551.1665	1640.6574	1659.3885	3024.6804	3028.326	3037.0934	3085.7245	3094.3863	3111.4143	3113.9072	3233.6495	3260.4545	3524.0505	3611.1006	3693.0938
CC(C)C1=CC(N)=CN1	CC(C)c1cc(N)c[nH]1	
InChI=1S/C7H12N2/c1-5(2)7-3-6(8)4-9-7/h3-5,9H,8H2,1-2H3	InChI=1S/C7H12N2/c1-5(2)7-3-6(8)4-9-7/h3-5,9H,8H2,1-2H3
