20
gdb 116334	2.46685	1.60913	1.24152	1.4367	74.75	-0.2412	0.0694	0.3106	1091.4264	0.172385	-440.246639	-440.238203	-440.237259	-440.279812	31.886	
C	 0.6078025851	 1.1424772648	 0.2236521738	-0.240912
O	 0.6268755411	-0.2586955545	 0.0241342926	-0.223341
C	 0.433843789	-0.6318873682	-1.3092049618	 0.215966
O	 1.4630119096	-0.164001506	-2.1647100194	-0.28368
C	 2.7377791076	-0.8173363639	-2.1067116598	-0.056209
C	 2.7970513683	-2.0365821637	-1.1721168445	-0.243742
C	 1.5734056987	-2.9058932229	-1.3870492844	-0.028579
N	 0.6345308845	-2.9834334074	-0.2539895981	-0.318565
C	 0.2978209492	-2.147746596	-1.4155052284	-0.07457
H	 1.4041322498	 1.6447870556	-0.337877081	 0.121026
H	-0.3576267808	 1.5756497306	-0.0805522931	 0.103409
H	 0.7516085841	 1.3122103629	 1.2928012746	 0.12542
H	-0.4628218595	-0.1353402795	-1.7095600088	 0.06771
H	 2.9797170454	-1.1216234764	-3.1336241887	 0.099043
H	 3.4859791108	-0.0759453776	-1.7998425401	 0.100241
H	 3.7271161527	-2.5812782274	-1.3613859735	 0.095156
H	 2.8018278359	-1.707210376	-0.1308180567	 0.138148
H	 1.6726719659	-3.7707631028	-2.0378697556	 0.08349
H	 0.1003062207	-3.8473478913	-0.3062228015	 0.230784
H	-0.4946123581	-2.4786143803	-2.0801761458	 0.089203
94.986	120.7962	144.1052	194.334	218.0946	319.2314	390.9882	439.0381	496.6136	539.2631	601.7469	742.0597	806.8112	812.1413	861.1306	910.8569	945.4429	950.1942	978.7573	1000.5616	1046.8917	1061.7243	1078.3325	1123.7997	1144.998	1179.3939	1182.5226	1200.8468	1235.1875	1246.8014	1259.9477	1280.3213	1345.0949	1374.4991	1391.7654	1413.5465	1417.6404	1459.2245	1473.6275	1481.625	1484.3781	1513.2773	1523.7188	2985.9528	2992.4067	3010.0098	3041.83	3059.9858	3060.6483	3116.497	3124.5278	3138.018	3151.7744	3500.0886
COC1OCCC2NC12	CO[C@H]1OCC[C@H]2N[C@@H]12	
InChI=1S/C6H11NO2/c1-8-6-5-4(7-5)2-3-9-6/h4-7H,2-3H2,1H3	InChI=1S/C6H11NO2/c1-8-6-5-4(7-5)2-3-9-6/h4-7H,2-3H2,1H3/t4-,5-,6+/m1/s1
