17
gdb 44069	3.30636	1.5429	1.42307	3.7033	72.86	-0.2341	-0.0127	0.2214	953.1495	0.136967	-421.73192	-421.725275	-421.72433	-421.762744	27.609	
O	-0.0389369048	 0.0310127994	 0.1419921789	-0.336676
C	 0.0072676179	 1.229765895	 0.0802771932	 0.460654
C	-1.1331690644	 2.25119097	 0.142924075	-0.352184
C	-0.3087165697	 3.5645312921	 0.0727979307	 0.218805
C	-0.9042428969	 4.5132324562	-1.0086877909	-0.199214
O	-0.2721140433	 3.6457384585	-2.0384799041	-0.319141
C	 0.7007572678	 3.3029568918	-0.9882866965	 0.150265
C	 1.213306717	 2.1300281212	-0.067790101	-0.224663
C	 0.853295376	 3.2405047668	 1.0802175888	-0.337584
H	-1.8012318062	 2.1188355065	-0.7112862364	 0.142662
H	-1.7152832869	 2.1601528032	 1.0652119145	 0.121762
H	-1.9899319177	 4.5444498128	-1.1257671418	 0.122667
H	-0.4732318743	 5.5199720811	-1.0411835898	 0.11513
H	 1.4978737688	 4.0549540511	-1.0405603027	 0.090842
H	 2.1964771452	 1.6700596788	-0.1490831388	 0.094486
H	 1.6310970344	 4.0006838539	 1.1565354483	 0.127732
H	 0.5975804972	 2.8454067715	 2.0665328625	 0.124457
121.5389	305.4272	322.693	351.3612	448.2189	473.9552	546.8696	571.1544	624.5623	722.8314	764.5274	778.4656	817.8177	864.392	885.0435	914.4111	954.726	957.2279	988.9368	1024.3867	1025.3223	1106.806	1113.4234	1132.1635	1155.951	1180.3153	1204.9992	1214.5435	1249.3821	1254.6314	1286.5959	1313.6591	1414.0729	1447.2607	1491.6958	1503.8606	1870.5836	3018.2651	3039.7173	3061.9733	3070.8113	3115.2596	3119.8756	3143.8492	3148.1522
O=C1CC23COC2C1C3	O=C1C[C@]23CO[C@@H]2[C@H]1C3	
InChI=1S/C7H8O2/c8-5-2-7-1-4(5)6(7)9-3-7/h4,6H,1-3H2	InChI=1S/C7H8O2/c8-5-2-7-1-4(5)6(7)9-3-7/h4,6H,1-3H2/t4-,6+,7+/m0/s1
