14
gdb 33822	2.29257	1.57624	1.12416	6.5373	73.02	-0.3018	-0.0386	0.2632	1066.7965	0.101885	-395.709348	-395.701683	-395.700739	-395.741763	28.305	
N	 0.0305129591	-1.1662964668	 0.0476052636	-0.329753
C	 0.0429396373	-0.0104009011	 0.0318671076	 0.268247
C	 0.0246612112	 1.418699271	-0.0468841504	 0.125092
C	-0.7317431707	 2.2474229364	-1.103210094	-0.289799
C	 0.440346251	 3.2802339682	-1.1087541181	-0.289825
C	 1.1729715752	 2.4303771354	-0.0524749	 0.125119
N	 0.3573877947	 2.2050929293	 1.1301862083	-0.349846
C	 2.5887982905	 2.2324940307	 0.0194270758	 0.268233
N	 3.7371568052	 2.0995520902	 0.0295009289	-0.329744
H	-0.8314522635	 1.7266927496	-2.0559898705	 0.147907
H	-1.7150547478	 2.5991633825	-0.7808679057	 0.127742
H	 0.9643346823	 3.3092016764	-2.0645178304	 0.147902
H	 0.216881352	 4.3014842413	-0.7899201028	 0.127753
H	-0.3062072365	 2.9590996568	 1.3032771377	 0.250973
92.2317	151.5613	182.1842	208.0133	309.6887	432.8208	454.9992	500.9706	572.0811	579.3492	644.6723	653.3224	772.8821	781.5416	818.6897	948.8801	1003.8483	1055.5763	1085.1078	1104.9999	1133.3824	1170.2626	1206.9067	1245.2361	1259.7828	1320.5542	1435.431	1477.8542	1497.8599	2359.5733	2362.1934	3072.2609	3078.0396	3133.178	3148.0384	3468.3199
N#CC12CCC1(N2)C#N	N#C[C@]12CC[C@]1(N2)C#N	
InChI=1S/C6H5N3/c7-3-5-1-2-6(5,4-8)9-5/h9H,1-2H2	InChI=1S/C6H5N3/c7-3-5-1-2-6(5,4-8)9-5/h9H,1-2H2/t5-,6+
