19
gdb 80892	2.56138	1.76942	1.47035	0.4547	73.4	-0.2369	0.0724	0.3093	986.3617	0.158705	-422.97221	-422.964451	-422.963507	-423.003804	31.474	
C	-0.1095890046	 1.5426031872	-0.0354322974	-0.435287
C	-0.0695925574	 0.0224651711	-0.0225782459	-0.014341
C	 1.1692777513	-0.6037165537	-0.7092040018	 0.013977
O	 1.951644256	-0.2948925809	 0.4965962683	-0.337934
C	 0.6801923669	-0.6160440968	 1.1889771715	 0.366251
C	 0.5967458815	-0.1485654746	 2.6133363804	-0.517307
C	 0.6092764927	-2.1433164902	 0.8844602066	-0.002005
O	-0.3456850135	-2.5325439227	-0.1160674518	-0.247975
C	 0.972754435	-2.1311976693	-0.5280988246	 0.02721
H	 0.8662908765	 1.9666389628	 0.2125836192	 0.13253
H	-0.4032605035	 1.9080722648	-1.0252547142	 0.115051
H	-0.8455599092	 1.9198536054	 0.6827682393	 0.115549
H	-1.0355716022	-0.4140075164	-0.2741712082	 0.096175
H	 1.612522547	-0.2285634441	-1.6313188729	 0.07654
H	 0.7307801422	 0.9336798164	 2.6826211793	 0.133563
H	-0.3775252587	-0.4082295147	 3.0400861811	 0.13015
H	 1.3729695683	-0.628491399	 3.2189163727	 0.131428
H	 0.8916747704	-2.8959814838	 1.6130926818	 0.106182
H	 1.5734327912	-2.8749187814	-1.0390313535	 0.110243
195.8264	217.4888	232.7193	235.6069	274.745	337.8498	405.8119	430.2109	596.5906	604.152	626.2491	705.418	776.2833	804.3977	835.1362	859.61	880.1687	889.3879	923.6145	963.9545	985.0629	1050.0142	1074.7705	1080.2362	1107.307	1120.7127	1176.1299	1228.7018	1234.3645	1241.8277	1256.3161	1285.5103	1319.9765	1371.704	1401.3999	1409.9256	1422.0135	1479.7014	1489.5056	1499.1556	1508.325	3035.0855	3039.18	3093.5486	3105.7273	3112.4595	3123.1863	3126.7452	3131.656	3170.3613	3187.6003
CC1C2OC1(C)C1OC21	C[C@H]1[C@H]2O[C@]1(C)[C@H]1O[C@@H]21	
InChI=1S/C7H10O2/c1-3-4-5-6(8-5)7(3,2)9-4/h3-6H,1-2H3	InChI=1S/C7H10O2/c1-3-4-5-6(8-5)7(3,2)9-4/h3-6H,1-2H3/t3-,4+,5-,6-,7-/m0/s1
