17
gdb 88920	3.67465	0.82616	0.71794	3.8398	76.5	-0.2643	-0.0614	0.2029	1552.0613	0.131801	-421.784547	-421.774771	-421.773826	-421.820902	34.143	
C	-0.0633826909	 1.527905889	-0.100869179	-0.420102
C	 0.0398206004	 0.0302550041	 0.0425519595	 0.065109
O	 1.3445639034	-0.5569114928	-0.0148280102	-0.257705
C	 0.6061739055	-0.6686683099	 1.207415002	 0.064567
C	 1.1733838982	 0.0428548868	 2.4124184579	-0.348473
C	 2.0156119287	-0.8694627628	 3.2982543683	 0.233014
O	 2.0588155692	-2.0723586477	 3.1693475296	-0.282693
C	 2.7565424743	-0.1876184031	 4.3473324057	 0.245574
C	 3.3620499183	 0.3984232734	 5.2068967222	-0.382898
H	 0.6857718117	 2.0511917013	 0.4967210495	 0.124133
H	 0.0791282925	 1.8159835944	-1.147529109	 0.133397
H	-1.0573625381	 1.8712265358	 0.2064461222	 0.123351
H	-0.7065974714	-0.5234497587	-0.5316507052	 0.090624
H	 0.2535380486	-1.6772018971	 1.4182266472	 0.111715
H	 1.7821623273	 0.9011178093	 2.1143382407	 0.143223
H	 0.3688375589	 0.4429975156	 3.0471989978	 0.141252
H	 3.9059074936	 0.8970729324	 5.9723123808	 0.215911
28.9771	47.597	97.868	161.8054	189.6051	222.8354	235.8068	339.3927	408.43	478.3148	504.1413	571.5416	615.4372	648.2855	707.6205	767.5356	814.8128	863.3028	904.079	975.3261	1001.7137	1070.2036	1088.5571	1118.5667	1170.3274	1177.4454	1220.261	1306.6503	1324.3648	1401.7425	1416.9213	1426.8604	1471.0174	1488.406	1512.4394	1774.7026	2211.714	3016.4265	3039.4247	3080.168	3095.7224	3100.3573	3128.4003	3134.0582	3494.7444
CC1OC1CC(=O)C#C	C[C@H]1O[C@H]1CC(=O)C#C	
InChI=1S/C7H8O2/c1-3-6(8)4-7-5(2)9-7/h1,5,7H,4H2,2H3	InChI=1S/C7H8O2/c1-3-6(8)4-7-5(2)9-7/h1,5,7H,4H2,2H3/t5-,7+/m1/s1
