21
gdb 38857	2.65983	1.92128	1.80271	1.4521	79.94	-0.2291	0.0774	0.3064	915.7169	0.187806	-387.10126	-387.094754	-387.093809	-387.131686	28.342	
C	-0.0684924275	 1.5124103926	 0.0820436675	-0.232836
C	 1.4763816934	 1.4516970548	-0.0719329995	-0.039809
C	 2.0919905923	 1.1521942834	 1.3103205238	-0.229284
C	 1.6922914047	-0.2916929805	 1.6799844309	 0.104818
C	 2.5371830207	-1.2898099864	 0.8784367878	-0.203652
C	 2.3377354606	-1.0002003639	-0.6341051144	-0.24099
C	 1.2741425927	 0.0812022819	-0.8069445907	-0.010614
C	-0.0149970318	-0.0334182262	 0.0623308296	 0.114999
O	 0.3111011642	-0.527275922	 1.3628393659	-0.290164
H	-0.4786954238	 1.9767975047	 0.9828128545	 0.092324
H	-0.5595536815	 1.917700896	-0.8072870254	 0.091392
H	 1.9854541117	 2.2624982502	-0.5981907367	 0.057151
H	 3.185189103	 1.2284818995	 1.2907186513	 0.093307
H	 1.7287557044	 1.871431248	 2.0525383788	 0.097571
H	 1.7840305489	-0.4758285711	 2.7535150102	 0.070924
H	 3.5903584852	-1.2108677077	 1.1686490532	 0.090918
H	 2.2045151527	-2.3004116713	 1.1313804871	 0.102058
H	 3.2725819019	-0.6676550815	-1.0998343674	 0.097467
H	 2.0380385126	-1.9084309602	-1.1675622517	 0.101256
H	 1.0120349974	 0.2387549135	-1.856244185	 0.066604
H	-0.8734309318	-0.6078716939	-0.2939558899	 0.06656
167.5978	299.5558	326.7621	405.1068	441.8412	502.0997	525.1783	639.3495	723.2964	779.4211	801.83	814.6457	841.6975	866.1098	877.0854	912.48	927.3982	944.7721	999.6393	1012.4898	1034.2622	1064.0658	1068.2102	1090.7794	1108.6519	1124.773	1152.3174	1184.6171	1209.2745	1243.3495	1248.1358	1266.9098	1280.5604	1293.638	1319.4306	1338.2708	1344.005	1350.6071	1370.0221	1386.8412	1394.8155	1474.7267	1479.0729	1493.226	1503.9	3030.2728	3031.4986	3045.5258	3049.3842	3062.9996	3068.505	3072.0019	3076.0386	3077.4585	3085.7223	3094.0751	3111.0417
C1C2CC3CCC2C1O3	C1[C@H]2C[C@@H]3CC[C@H]2[C@H]1O3	
InChI=1S/C8H12O/c1-2-7-5-3-6(1)9-8(7)4-5/h5-8H,1-4H2	InChI=1S/C8H12O/c1-2-7-5-3-6(1)9-8(7)4-5/h5-8H,1-4H2/t5-,6+,7-,8+/m1/s1
