18
gdb 17175	3.99235	1.83166	1.59087	1.6526	71.37	-0.2275	0.0873	0.3148	880.6921	0.153394	-347.71922	-347.712064	-347.71112	-347.750607	27.889	
C	-0.0593380037	 1.5565165706	 0.0713815082	-0.379625
C	 0.0048323189	 0.0245883709	 0.0858416711	-0.329559
C	 0.7836724671	-0.5073238493	 1.2489485339	 0.502435
O	 0.3258827017	-0.1905373271	 2.6086276633	-0.365302
C	 1.5158104121	-1.0056742524	 2.8013310042	 0.089791
C	 1.2197592961	-1.9689690847	 1.6130408936	-0.14397
C	 2.6290714057	-1.7710357439	 1.0148631227	-0.280935
C	 2.308290473	-0.3848059755	 1.613150628	-0.132795
H	 0.9388477502	 1.9918326517	-0.0409012194	 0.117258
H	-0.6786862897	 1.914132434	-0.7561098483	 0.111944
H	-0.4836696802	 1.9302014812	 1.0070046507	 0.14138
H	-1.0077484065	-0.3950854931	 0.1300841274	 0.113938
H	 0.4618596998	-0.3527501469	-0.8376717492	 0.10741
H	 1.8396514994	-1.2276570691	 3.8176973354	 0.091672
H	 0.5792325236	-2.8510644739	 1.6324199044	 0.078988
H	 3.4414794638	-2.3293758315	 1.4880764636	 0.09839
H	 2.7139610195	-1.8292785083	-0.0738559819	 0.099093
H	 2.9042859293	 0.5277180873	 1.6346299323	 0.079886
83.4591	169.5132	191.3857	275.1207	362.1385	463.0224	545.4299	626.1797	724.3481	763.0291	775.7733	819.1525	854.7647	879.5082	897.5649	913.1237	972.7989	985.8655	1006.5196	1031.6174	1074.1664	1089.2559	1113.9112	1137.8092	1146.9086	1168.7231	1183.235	1237.5493	1242.1269	1272.5157	1302.663	1339.2539	1402.5127	1412.4062	1468.3132	1496.3683	1507.8288	1514.1965	3026.6879	3042.2003	3051.0532	3062.2187	3105.6775	3109.7423	3113.3913	3115.6832	3124.3394	3131.0015
CCC12OC3C1CC23	CC[C@@]12O[C@H]3[C@@H]1C[C@@H]23	
InChI=1S/C7H10O/c1-2-7-4-3-5(7)6(4)8-7/h4-6H,2-3H2,1H3	InChI=1S/C7H10O/c1-2-7-4-3-5(7)6(4)8-7/h4-6H,2-3H2,1H3/t4-,5+,6-,7+
