13
gdb 20370	6.39112	1.43971	1.29458	3.2013	59.92	-0.2877	-0.0685	0.2191	907.1051	0.095889	-394.715088	-394.708645	-394.707701	-394.746745	23.195	
C	-0.0888291147	 1.4597714666	-0.1307427873	-0.25775
C	 1.2919632153	 0.9154013608	 0.0543964412	-0.257769
C	 0.1060784665	-0.0341037048	 0.065229869	-0.097852
C	-0.3126122702	-0.6703284098	 1.3168990312	 0.428511
N	-0.2646227191	-0.1442008101	 2.5100326639	-0.174832
O	-0.7545525572	-1.1068126694	 3.3310063931	-0.136836
N	-1.0909776622	-2.2175099576	 2.5696629846	 0.045124
N	-0.8283538508	-1.9591563884	 1.368442466	-0.214641
H	-0.5361277368	 2.0026396106	 0.6938073774	 0.143878
H	-0.3934436431	 1.7895429871	-1.1171741331	 0.129302
H	 1.9535754247	 0.8642617293	-0.8024816199	 0.129299
H	 1.7834118322	 1.0881862011	 1.0048117561	 0.143894
H	-0.0316014944	-0.6761014153	-0.795879822	 0.119672
36.5833	180.2585	182.6747	405.2723	421.5979	656.3577	669.8056	715.3229	773.0319	795.2091	829.3619	915.7633	917.7829	960.189	1052.785	1062.6506	1071.9397	1093.4617	1130.0841	1141.3446	1206.1785	1212.6518	1237.8441	1404.2046	1466.6551	1487.8368	1510.8836	1596.4673	3143.332	3146.0642	3194.247	3228.819	3243.6269
C1CC1C1=NON=N1	C1CC1c1nonn1	
InChI=1S/C4H5N3O/c1-2-3(1)4-5-7-8-6-4/h3H,1-2H2	InChI=1S/C4H5N3O/c1-2-3(1)4-5-7-8-6-4/h3H,1-2H2
