22
gdb 10732	2.94902	1.64068	1.28001	0.8609	77.85	-0.2291	0.0839	0.313	1077.3045	0.197901	-350.182074	-350.172437	-350.171493	-350.216218	36.053	
C	-0.0020829428	 1.2873789314	 0.2485447442	-0.248413
O	 0.4342742515	-0.0388665293	 0.0805055507	-0.290669
C	 0.7300600166	-0.5063074695	-1.2191349692	 0.463356
C	 0.3213849471	 0.2621081582	-2.4486260866	-0.333936
C	 1.7829246287	 0.195181444	-2.0345938991	-0.33898
C	 0.6100958408	-2.0299269243	-1.1707737399	-0.010033
C	-0.8615721486	-2.4353802934	-0.9901004909	-0.384851
C	 1.241654179	-2.7679293541	-2.3563112322	-0.415174
H	 0.714775299	 2.0283333009	-0.1358854772	 0.10624
H	-0.9786020103	 1.4701789439	-0.2215846463	 0.110263
H	-0.1021535857	 1.4418906053	 1.3260134247	 0.127087
H	 0.0045249069	-0.3017957691	-3.3193589924	 0.11354
H	-0.1857886919	 1.2129462166	-2.3394431203	 0.112555
H	 2.2175829096	 1.0975995101	-1.6176209868	 0.111531
H	 2.470461187	-0.387065565	-2.6355813383	 0.113765
H	 1.1528273389	-2.3287002637	-0.2640311555	 0.084396
H	-0.9520431909	-3.5119592727	-0.8125590201	 0.10373
H	-1.3044389279	-1.9088512143	-0.1416716076	 0.124201
H	-1.4467270043	-2.194164674	-1.885206031	 0.10616
H	 2.3183251432	-2.591705452	-2.4273076409	 0.116887
H	 1.0932112861	-3.8460305702	-2.2398950058	 0.114316
H	 0.7840918781	-2.4822329787	-3.3103674295	 0.114028
50.7975	83.1601	204.7442	222.3856	231.578	259.3258	265.3772	316.8295	350.0282	365.9828	451.9795	493.9842	536.022	653.4923	761.8847	832.1117	878.9313	915.1283	930.1821	936.3946	957.2644	980.7748	1043.8543	1071.2548	1100.7917	1123.3482	1146.7868	1175.5795	1185.8242	1192.5699	1214.8015	1245.3268	1341.4679	1349.6295	1370.132	1396.2889	1419.7851	1453.3714	1482.1507	1489.2428	1491.2679	1494.8417	1503.7288	1508.0235	1510.8809	1516.5902	2983.1347	3017.3923	3030.7671	3033.7908	3036.5272	3092.3126	3099.7436	3108.5267	3110.552	3125.2943	3138.8799	3140.5817	3216.3198	3228.8864
COC1(CC1)C(C)C	COC1(CC1)C(C)C	
InChI=1S/C7H14O/c1-6(2)7(8-3)4-5-7/h6H,4-5H2,1-3H3	InChI=1S/C7H14O/c1-6(2)7(8-3)4-5-7/h6H,4-5H2,1-3H3
