18
gdb 44056	2.56529	1.73907	1.55693	3.7417	75.18	-0.2403	0.0325	0.2728	954.2598	0.148942	-401.918095	-401.910677	-401.909733	-401.949772	29.666	
O	-0.0657034137	 0.0019509602	 0.0122995933	-0.358742
C	-0.0132011139	 1.2012290241	 0.0184812347	 0.354608
N	-1.0015605593	 2.1826005793	 0.044557722	-0.371162
C	-0.0802539369	 3.3052772232	 0.0325291684	 0.282614
C	 0.4240416653	 3.881758626	 1.39147635	-0.279737
C	 1.6119973979	 2.8526673113	 1.3595472014	-0.296969
C	 1.0764910089	 2.2999974984	 0.0030826295	 0.106287
C	 1.5569962176	 2.8691447358	-1.367054298	-0.296993
C	 0.3690263784	 3.8983740244	-1.3384485771	-0.279792
H	-2.0110834223	 2.1112784516	 0.0642546211	 0.241182
H	 0.7295506493	 4.9299812036	 1.3512407233	 0.106434
H	-0.27943271	 3.7561106868	 2.2165822367	 0.110861
H	 2.6008494676	 3.3116079015	 1.285019845	 0.110097
H	 1.6341045039	 2.1271538267	 2.1750216124	 0.121945
H	 2.5482486514	 3.3272136009	-1.327105069	 0.110103
H	 1.5457104209	 2.1535753657	-2.1914864487	 0.121949
H	-0.3670582688	 3.7829234051	-2.1361557092	 0.110858
H	 0.6762639237	 4.9460606754	-1.2975205558	 0.106456
103.3105	160.1685	243.2611	300.8476	358.3202	385.0302	465.1233	614.6574	662.5022	673.7741	718.2248	720.8951	726.5347	745.9464	849.6778	884.15	906.6233	907.2709	924.4215	1000.7407	1024.4827	1092.9929	1115.9557	1152.8006	1201.4206	1203.1312	1223.2914	1236.7964	1242.7422	1256.8107	1265.2308	1270.0459	1289.291	1360.9449	1462.2594	1470.4396	1473.5671	1487.1618	1879.8253	3064.0561	3065.1273	3068.3684	3071.2263	3112.3916	3114.2073	3128.9504	3132.6915	3560.1874
O=C1NC23CCC12CC3	O=C1N[C@@]23CC[C@@]12CC3	
InChI=1S/C7H9NO/c9-5-6-1-3-7(6,8-5)4-2-6/h1-4H2,(H,8,9)	InChI=1S/C7H9NO/c9-5-6-1-3-7(6,8-5)4-2-6/h1-4H2,(H,8,9)/t6-,7-
