17
gdb 78179	2.34591	1.71745	1.35021	4.0902	67.9	-0.2596	-0.0016	0.258	1004.0609	0.136212	-458.992278	-458.984357	-458.983413	-459.024509	30.614	
C	 0.035148645	 1.5666623609	-0.0676645381	-0.41167
C	 0.0464597826	 0.0498149832	 0.0446788643	 0.097981
O	 0.7288104388	-0.5287348494	-1.0990445216	-0.262225
C	 1.3726033005	-1.697894373	-0.748042534	 0.429115
O	 1.7267435967	-2.4947930741	-1.5645333113	-0.331634
C	 1.5620610627	-1.7143643244	 0.7315582279	-0.260395
C	 2.2505062619	-0.4630753971	 1.2641700603	 0.128923
O	 3.0173525107	 0.3979836704	 0.4848957241	-0.41981
C	 0.7573749665	-0.527570019	 1.2611469812	-0.135908
H	 1.0429445197	 1.9787674149	 0.0136084036	 0.141576
H	-0.4065137162	 1.8749505999	-1.0189239836	 0.136364
H	-0.5705513198	 1.9852606669	 0.7421498392	 0.126871
H	-0.9845048643	-0.3261429659	 0.016160185	 0.102988
H	 1.6839227347	-2.6712653589	 1.2202277256	 0.122161
H	 2.7296412993	-0.5963846709	 2.2280092337	 0.126069
H	 2.6712349931	 0.4097927163	-0.4157471047	 0.30249
H	 0.2096629783	-0.5742017697	 2.1951350982	 0.107106
132.8416	157.4793	175.5424	238.3196	284.4144	381.1034	406.4854	469.5268	497.3582	565.905	651.1319	722.605	764.1958	785.5768	797.0278	844.493	936.7434	944.8478	972.4417	1009.711	1049.6217	1063.3822	1101.3025	1121.1757	1153.343	1182.1525	1198.9669	1304.8702	1317.4685	1348.6573	1383.6126	1388.1511	1412.05	1458.5503	1491.3563	1501.3574	1886.9245	3019.6297	3050.13	3119.7745	3142.046	3176.0492	3184.3028	3214.0318	3783.3894
CC1OC(=O)C2C(O)C12	C[C@H]1OC(=O)[C@H]2[C@@H](O)[C@@H]12	
InChI=1S/C6H8O3/c1-2-3-4(5(3)7)6(8)9-2/h2-5,7H,1H3	InChI=1S/C6H8O3/c1-2-3-4(5(3)7)6(8)9-2/h2-5,7H,1H3/t2-,3+,4-,5+/m1/s1
