20
gdb 120718	3.11911	0.81676	0.7308	3.7023	76.81	-0.2486	0.0246	0.2732	1588.3739	0.170268	-440.305434	-440.295265	-440.29432	-440.341331	36.581	
N	 0.0338386095	 1.2333689735	 0.3863070262	-0.533564
C	 0.0323112986	 0.0425077634	-0.2851766589	 0.421494
O	 0.9878575061	-0.3193639305	-0.9529381055	-0.37823
C	-1.2310604014	-0.7491746839	-0.1485727345	-0.149614
C	-1.5513846196	-1.7555212053	-1.2341600086	-0.282127
C	-1.1748177786	-2.2533379353	 0.1273324752	-0.003232
C	 0.1193939539	-2.9966964961	 0.3816831208	-0.243218
C	 0.0102158811	-4.4816759871	 0.0215978842	-0.050625
O	 1.1930356143	-5.2034864794	 0.3259425656	-0.421054
H	 0.8887870488	 1.7652725127	 0.3932571774	 0.260103
H	-0.6896553243	 1.4800737402	 1.0381998432	 0.257469
H	-2.0666806371	-0.2224062598	 0.3018478569	 0.077937
H	-2.5798392208	-1.8337498569	-1.5676055755	 0.112313
H	-0.7996805136	-1.8300507009	-2.0128097744	 0.139991
H	-2.0071101897	-2.5964225404	 0.7386577077	 0.089461
H	 0.9230800769	-2.5352386432	-0.2005243925	 0.129683
H	 0.3991255107	-2.917106982	 1.439558368	 0.099371
H	-0.7840212839	-4.9594410478	 0.607033811	 0.102659
H	-0.2647368266	-4.5881463424	-1.0399702086	 0.089395
H	 1.9099945656	-4.8124534488	-0.1839198778	 0.281787
56.8478	79.5029	98.9382	127.0354	193.1591	210.5689	245.3306	317.5065	356.6846	370.1723	447.8348	472.7704	581.3895	628.4212	753.2872	790.8364	801.3249	820.466	872.3278	926.455	971.5137	1032.73	1047.3859	1074.6763	1080.7404	1084.8784	1122.7153	1130.4029	1151.9576	1224.0028	1242.2717	1285.8927	1301.0792	1319.6683	1387.4655	1423.5318	1426.1923	1439.1946	1480.9966	1496.9164	1517.547	1615.7948	1773.2526	2977.5589	3033.3219	3055.6218	3093.1565	3126.5934	3136.3531	3151.3476	3229.3817	3603.0619	3738.9821	3812.1348
NC(=O)C1CC1CCO	NC(=O)[C@H]1C[C@H]1CCO	
InChI=1S/C6H11NO2/c7-6(9)5-3-4(5)1-2-8/h4-5,8H,1-3H2,(H2,7,9)	InChI=1S/C6H11NO2/c7-6(9)5-3-4(5)1-2-8/h4-5,8H,1-3H2,(H2,7,9)/t4-,5+/m1/s1
