22
gdb 16417	3.22522	1.98849	1.60572	0.0552	80.71	-0.2738	0.0824	0.3562	924.1627	0.203822	-313.078375	-313.071178	-313.070234	-313.109232	29.903	
C	-0.724241828	 1.3014969123	 0.1705711968	-0.407938
C	 0.0984070415	 0.0277672364	-0.049309006	 0.051732
C	 0.9667758467	 0.1437486724	-1.3283509906	-0.201118
C	 2.2188908317	-0.7652820792	-1.310079901	-0.213713
C	 2.7330555673	-0.9603216103	 0.1258557833	 0.008184
C	 1.6496328186	-1.6978080556	 0.9585174067	-0.227191
C	 0.9935635485	-0.3062668889	 1.1632327976	 0.006204
C	 2.423427603	 0.2935377618	 0.997839965	-0.231611
H	-0.0719134615	 2.1595390947	 0.3726742265	 0.112765
H	-1.3252761047	 1.5441481272	-0.712706683	 0.108102
H	-1.4061039315	 1.1937772364	 1.0209727023	 0.107704
H	-0.6040216345	-0.8090968502	-0.1702578528	 0.065898
H	 0.3602118713	-0.045409416	-2.2202215481	 0.089106
H	 1.2984861783	 1.1851751344	-1.4131145594	 0.097876
H	 1.9951362893	-1.7492574271	-1.7414657899	 0.092646
H	 2.9968128996	-0.3206481174	-1.9418302187	 0.089375
H	 3.749709078	-1.3615190447	 0.139747772	 0.053641
H	 1.0592136386	-2.4723811266	 0.4567473561	 0.080772
H	 2.053761831	-2.1011912174	 1.8916018011	 0.087839
H	 0.4665428273	-0.1237359937	 2.1043274243	 0.050331
H	 2.9742638275	 0.2665818312	 1.9417594961	 0.092055
H	 2.5346275219	 1.2865723404	 0.5530789716	 0.087339
141.1424	227.2313	263.1005	305.4494	378.0699	414.4195	436.2483	508.1902	559.4832	753.5159	787.5901	818.2332	827.1613	891.5688	901.6969	912.2487	940.7719	950.864	979.951	1017.1813	1039.6193	1054.602	1074.8344	1106.4633	1112.5319	1126.0963	1143.8933	1191.5786	1231.3869	1242.8746	1252.5646	1276.0381	1290.1971	1323.1624	1333.3145	1347.1073	1357.4389	1374.4645	1391.6373	1411.0856	1478.4327	1492.9633	1496.5555	1498.8448	1500.5882	1521.1952	2994.8222	3019.131	3021.0952	3030.6923	3033.5782	3048.9501	3053.8024	3059.5491	3070.5921	3073.6608	3088.024	3092.0511	3094.2603	3103.5714
CC1CCC2CC1C2	C[C@H]1CC[C@@H]2C[C@H]1C2	
InChI=1S/C8H14/c1-6-2-3-7-4-8(6)5-7/h6-8H,2-5H2,1H3	InChI=1S/C8H14/c1-6-2-3-7-4-8(6)5-7/h6-8H,2-5H2,1H3/t6-,7-,8+/m0/s1
