18
gdb 46979	2.7607	1.76754	1.4382	2.5279	72.38	-0.2572	0.027	0.2842	954.5595	0.151208	-439.107019	-439.0999	-439.098956	-439.138805	27.914	
N	-0.0731542759	 1.2793599759	 0.3069917199	-0.52686
C	 0.0048547759	 0.0587416741	-0.0193485304	 0.407719
O	 1.2012130943	-0.5181864261	-0.3415890516	-0.269419
C	 1.2884572012	-1.8439824875	-0.8959976492	-0.075328
C	-0.017866187	-2.6302601376	-0.8259801971	 0.084398
C	-1.1710296002	-1.7316355875	-1.2759552238	-0.256587
C	-1.2130097884	-0.8354250733	-0.0254901782	-0.112061
C	-1.1095107985	-1.9013041201	 1.0848402182	-0.083711
O	-0.3242650664	-2.9638676567	 0.5277339517	-0.273456
H	 0.8517797984	 1.7134910796	 0.2655025788	 0.217956
H	 1.6138818961	-1.7462405642	-1.940027368	 0.108754
H	 2.0672926551	-2.3665114551	-0.3333353655	 0.126485
H	 0.0900820924	-3.5615187712	-1.389530097	 0.089273
H	-0.9665617501	-1.1853272733	-2.1998880416	 0.116498
H	-2.0969727873	-2.3003817438	-1.3939293727	 0.113445
H	-2.097329649	-0.2085021956	 0.0730362268	 0.106676
H	-0.6286849537	-1.5226534541	 1.9925159069	 0.121626
H	-2.1035737368	-2.2837337733	 1.3502210928	 0.104594
82.8821	139.6335	232.1444	358.6574	385.7968	415.917	490.9791	605.2449	677.9385	734.3775	789.249	834.4553	873.5306	884.9747	911.7447	939.5926	951.3373	973.4571	991.3043	1041.796	1048.4075	1086.2295	1118.2688	1122.341	1190.179	1200.7091	1228.1256	1262.8229	1298.0624	1313.7493	1316.2407	1349.1351	1361.2601	1391.121	1425.9134	1494.0298	1503.1968	1528.8009	1750.7947	3018.7779	3021.9194	3064.1294	3075.0957	3079.3529	3091.4488	3118.8257	3139.7808	3458.9909
N=C1OCC2CC1CO2	[NH][C]1OC[C@@H]2C[C@H]1CO2	
InChI=1S/C6H9NO2/c7-6-4-1-5(3-9-6)8-2-4/h4-5,7H,1-3H2	InChI=1S/C6H9NO2/c7-6-4-1-5(3-9-6)8-2-4/h4-5,7H,1-3H2/t4-,5-/m0/s1
