23
gdb 73492	2.66603	1.71675	1.37705	0.1239	87.62	-0.2505	0.0814	0.3319	1065.2385	0.2096	-351.178877	-351.171195	-351.170251	-351.21053	32.172	
C	-0.0121624341	 1.4811812379	 0.078468491	-0.493008
C	 0.0367640379	-0.0265977122	-0.0267657981	 0.373927
C	 1.0567501626	-0.6475090788	-0.9883664894	-0.295687
C	 0.2931155564	-1.785910654	-1.7079440937	-0.196979
C	-0.8666928266	-2.1784415199	-0.7614456933	-0.03813
C	-0.4151073715	-3.1260322984	 0.3763370499	-0.194386
C	 0.2434641676	-2.2165167755	 1.4444841165	-0.243579
C	-0.3619248403	-0.8356895091	 1.2015195215	-0.075973
C	-1.2248099967	-0.8615712092	-0.0420899558	-0.116759
H	 0.9238289143	 1.884147299	 0.4839565479	 0.114181
H	-0.1723433019	 1.9431355042	-0.9032401998	 0.11117
H	-0.8237761917	 1.8088794019	 0.7364277501	 0.111248
H	 1.4164119885	 0.103887084	-1.6985866794	 0.090896
H	 1.9427533275	-1.0208134091	-0.4612078841	 0.096816
H	-0.1270805841	-1.3999073185	-2.6434760436	 0.093423
H	 0.9322346533	-2.6361178374	-1.9692859432	 0.087302
H	-1.705139118	-2.6032011738	-1.3193343424	 0.061808
H	-1.2987198074	-3.6074675179	 0.8101426202	 0.093884
H	 0.2462502149	-3.924325953	 0.0229799776	 0.08741
H	 0.0222170558	-2.5634413974	 2.4582474934	 0.093168
H	 1.3360348938	-2.2093735093	 1.3529048049	 0.097247
H	-0.6754620169	-0.2551254535	 2.0638051165	 0.071261
H	-2.2186150334	-0.43076041	-0.0872147467	 0.070761
118.997	211.0734	222.8315	283.0242	323.0273	371.8185	446.4537	522.9643	568.6339	695.8282	706.31	749.7148	787.1001	829.3279	842.4136	866.8049	904.448	915.2577	938.075	964.52	973.263	986.3099	1003.5331	1039.2633	1060.2019	1076.1884	1111.6299	1121.5929	1143.5788	1178.5064	1200.6848	1225.2496	1249.8556	1271.3073	1284.4392	1294.8743	1301.0781	1316.0196	1335.3018	1351.4105	1361.0807	1416.8782	1422.3597	1481.3727	1490.9825	1498.0543	1499.0483	1501.4569	1521.5658	3016.8532	3030.5556	3032.6628	3035.2024	3035.9237	3065.5843	3070.0841	3074.4504	3074.5789	3081.7436	3087.5439	3092.6697	3149.089	3171.1199
CC12CCC3CCC1C23	C[C@@]12CC[C@H]3CC[C@@H]1[C@@H]23	
InChI=1S/C9H14/c1-9-5-4-6-2-3-7(9)8(6)9/h6-8H,2-5H2,1H3	InChI=1S/C9H14/c1-9-5-4-6-2-3-7(9)8(6)9/h6-8H,2-5H2,1H3/t6-,7-,8+,9-/m1/s1
