16
gdb 42944	2.47021	2.14058	1.48343	3.3375	67.37	-0.2327	-0.0315	0.2012	891.6863	0.126879	-437.850676	-437.844174	-437.84323	-437.881479	26.405	
O	-0.0210146396	-0.0056569799	-0.0610727386	-0.323705
C	-0.0040828522	 1.1987381692	 0.0021442735	 0.454012
C	-1.25170002	 2.0523169648	-0.0604067743	-0.141476
N	-1.5445905993	 2.8746833418	 1.1470365101	-0.332511
C	-1.0185424606	 3.5231213118	-0.0610414112	-0.045221
C	 0.4660702618	 3.8856209792	-0.0387406063	 0.085792
C	 1.2271692533	 3.1551117868	 1.0872601757	-0.268419
C	 1.2834847267	 2.0337129551	 0.0280309479	-0.024382
O	 1.1358580651	 3.035925041	-1.0252956996	-0.29834
H	-2.0872621209	 1.6143729625	-0.5967060213	 0.112306
H	-2.5513674829	 3.0101763326	 1.2062639008	 0.24377
H	-1.6778738985	 4.1546092542	-0.64905529	 0.099286
H	 0.6532955094	 4.9459724506	-0.2204352465	 0.084367
H	 2.2151256331	 3.5896110162	 1.2442813469	 0.116282
H	 0.714117211	 2.9735259679	 2.0292710697	 0.14168
H	 2.1673338035	 1.4045101862	-0.0872334868	 0.09656
120.6562	244.3146	333.31	405.5483	435.319	465.0851	528.0779	603.3467	712.7013	756.081	798.4204	866.4073	883.0667	892.593	923.4471	932.0141	950.6922	958.4066	1011.8008	1042.4019	1076.4132	1109.6353	1154.5773	1169.7584	1219.121	1236.4479	1242.7166	1259.5867	1302.6959	1305.6079	1352.1093	1376.0656	1423.0888	1480.3799	1831.1387	3087.692	3096.7436	3113.0503	3155.1781	3168.9993	3170.6038	3498.003
O=C1C2NC2C2CC1O2	O=C1[C@H]2N[C@H]2[C@H]2C[C@@H]1O2	
InChI=1S/C6H7NO2/c8-6-3-1-2(9-3)4-5(6)7-4/h2-5,7H,1H2	InChI=1S/C6H7NO2/c8-6-3-1-2(9-3)4-5(6)7-4/h2-5,7H,1H2/t2-,3+,4+,5+/m1/s1
