22
gdb 89058	4.19257	0.68473	0.65026	0.5522	83.8	-0.223	0.0945	0.3175	1800.3599	0.192884	-404.293826	-404.284024	-404.28308	-404.329735	35.564	
C	 0.368042422	 1.5512379633	-0.4120383717	-0.412429
C	 0.1291085045	 0.1006428056	-0.0512632311	 0.02989
C	 1.2603596429	-0.8478717213	 0.1567650237	-0.256477
N	 0.4044826385	-0.4569709015	 1.2754495728	-0.085169
C	 0.9913134801	 0.3845282679	 2.311793226	-0.13829
C	 1.5385855417	-0.490265763	 3.4449310648	-0.215498
C	 2.1147401355	 0.3326966595	 4.5691673364	 0.095195
C	 3.3023311128	-0.0824163843	 5.3245947116	-0.180485
O	 3.3917280254	 0.9391448732	 4.330385252	-0.238019
H	 1.3327184591	 1.9195979112	-0.0557565735	 0.124329
H	 0.3506972477	 1.6690305944	-1.500711008	 0.122135
H	-0.4160788695	 2.195732185	 0.0009875681	 0.12202
H	-0.7864740893	-0.3054218771	-0.4809107809	 0.08792
H	 1.1944977198	-1.8851656678	-0.1618460722	 0.11053
H	 2.2648497585	-0.4253225136	 0.1179895828	 0.106543
H	 1.8032213532	 1.0326396096	 1.9465916892	 0.102215
H	 0.2031676922	 1.0412254322	 2.7023529709	 0.098071
H	 0.7317585916	-1.1264677538	 3.8276794239	 0.110223
H	 2.3162040403	-1.1538999239	 3.0497577811	 0.103893
H	 1.4086971671	 0.9966226951	 5.0733909668	 0.088994
H	 3.4381985625	 0.2506901269	 6.3528150486	 0.112508
H	 3.7929779333	-1.0225518877	 5.0744082889	 0.111903
46.4646	64.1846	95.1817	131.0459	191.4661	231.8455	270.5392	331.1954	401.2699	421.851	477.7342	529.7793	753.1743	768.8734	809.4837	824.3702	881.6648	903.8424	939.3817	958.192	1013.4652	1035.4129	1048.9172	1067.3671	1103.1364	1113.914	1144.6645	1151.2026	1158.797	1165.9773	1186.6745	1191.0317	1248.8336	1289.387	1301.8395	1323.4569	1337.6148	1393.1089	1407.0404	1422.2291	1449.3071	1473.7972	1492.4091	1495.3572	1503.6632	1516.8333	1530.7606	2976.7614	3035.1566	3036.0686	3039.2916	3074.6253	3080.2094	3081.3287	3092.0933	3093.0483	3098.2255	3127.3072	3165.2974	3169.0156
CC1CN1CCC1CO1	C[C@H]1CN1CC[C@H]1CO1	
InChI=1S/C7H13NO/c1-6-4-8(6)3-2-7-5-9-7/h6-7H,2-5H2,1H3	InChI=1S/C7H13NO/c1-6-4-8(6)3-2-7-5-9-7/h6-7H,2-5H2,1H3/t6-,7-,8?/m0/s1
