21
gdb 9684	4.4683	1.06823	0.98056	1.706	75.59	-0.2416	0.0636	0.3052	1280.5635	0.187129	-366.241377	-366.231528	-366.230584	-366.276233	35.51	
C	-0.2010263385	 1.5119061927	-0.3790822215	-0.373327
C	-0.0202767184	 0.118257884	 0.2342977356	-0.192678
C	-1.3351202106	-0.6228517617	 0.3385526933	-0.035902
N	-1.840328745	-1.2815261506	-0.8793853221	-0.36594
C	-1.5051395722	-2.105190638	 0.2969170591	 0.304917
C	-0.3371001828	-3.0548732942	 0.1182465853	-0.463109
C	-2.6641892614	-2.6751604222	 1.0986102538	-0.141494
O	-3.3768333467	-3.6974770528	 0.4143421641	-0.416372
H	 0.7547098061	 2.0389743639	-0.4566024358	 0.110306
H	-0.630361926	 1.4342270046	-1.3826510892	 0.130726
H	-0.8736422482	 2.1288698633	 0.2274922834	 0.109533
H	 0.6815631914	-0.4578515744	-0.3755821966	 0.103259
H	 0.4222325657	 0.2043547008	 1.2354383109	 0.093865
H	-2.0734991098	-0.0957874147	 0.9463885945	 0.071869
H	-2.8495854515	-1.1855728772	-0.9646401294	 0.230491
H	 0.4318682606	-2.6253929955	-0.5245754914	 0.135271
H	 0.1152494398	-3.3121785045	 1.0828353463	 0.113731
H	-0.666471816	-3.9850977261	-0.360640463	 0.107834
H	-2.3011861717	-3.0309994769	 2.076509576	 0.089127
H	-3.4024694408	-1.8890619111	 1.2907128231	 0.101594
H	-2.7932686441	-4.4558957296	 0.3158212134	 0.286298
52.5024	74.2833	146.4606	162.9263	194.729	248.1763	278.0399	291.274	336.0626	377.0548	405.1123	468.6265	617.5764	713.6188	773.8203	827.8155	886.7884	929.4721	944.9493	966.2808	1010.4019	1055.5723	1073.9088	1085.7018	1102.3364	1116.3296	1146.3181	1200.3189	1236.3683	1286.5926	1306.6186	1343.7502	1365.3016	1382.6475	1405.7058	1415.3232	1427.3652	1464.1376	1475.4839	1489.8789	1496.1902	1499.9157	1503.65	1510.3118	2973.5413	3024.8702	3027.3516	3032.6118	3065.6314	3074.2056	3081.601	3086.0607	3104.3712	3113.1067	3141.6096	3493.096	3826.2594
CCC1NC1(C)CO	CC[C@H]1N[C@]1(C)CO	
InChI=1S/C6H13NO/c1-3-5-6(2,4-8)7-5/h5,7-8H,3-4H2,1-2H3	InChI=1S/C6H13NO/c1-3-5-6(2,4-8)7-5/h5,7-8H,3-4H2,1-2H3/t5-,6-/m1/s1
