19
gdb 62902	2.91922	1.5002	1.13102	1.4531	83.02	-0.2482	0.0315	0.2797	1109.1466	0.157663	-385.803321	-385.794787	-385.793843	-385.835848	34.246	
C	-0.0031933814	 1.6916704335	-0.047671988	-0.44805
C	 0.0075981066	 0.1669787373	-0.0542263697	 0.463965
O	-1.2994506634	-0.1644557789	-0.4350658002	-0.497222
C	 1.224556205	-0.6092992319	-0.6939898418	-0.125186
C	 2.0671243484	-0.1777092439	 0.541341031	-0.245724
C	 0.6955014186	-0.6195726946	 1.1292260692	-0.124957
C	 0.8341236501	-1.8658345124	 0.1740379039	-0.177374
C	-0.277166842	-2.7382118907	-0.1534667496	 0.24482
C	-1.1559270191	-3.5209722795	-0.4131635302	-0.405691
H	-0.2812279328	 2.0473228384	-1.044032448	 0.127597
H	-0.7748798554	 2.0355710681	 0.647338589	 0.127678
H	 0.9430175614	 2.1521568059	 0.2319907969	 0.11366
H	-1.4094948881	-1.1229889204	-0.4740970343	 0.286559
H	 1.5353971413	-0.6286218502	-1.7400334537	 0.078703
H	 2.9113781853	-0.8265872931	 0.782646177	 0.097575
H	 2.3482127923	 0.8682818974	 0.6287840321	 0.102137
H	 0.3981795624	-0.6506493581	 2.1789054431	 0.078696
H	 1.6983797721	-2.4903337466	 0.4213193079	 0.101904
H	-1.9403243112	-4.1989595904	-0.6447569845	 0.200911
122.4495	140.7482	168.8589	234.1254	344.5818	382.4967	408.1651	436.6979	463.4607	510.538	518.0861	623.866	627.8108	645.9601	665.6678	755.3204	797.3112	865.2517	887.7813	888.5716	968.3782	1007.4731	1027.6878	1059.3482	1063.6454	1088.3034	1099.6384	1138.4945	1151.864	1181.6317	1206.4542	1221.1558	1226.4942	1273.5448	1389.1579	1394.8095	1429.9401	1481.3184	1496.8435	1539.0539	2214.1175	3051.5473	3054.0483	3080.8492	3098.6539	3105.6265	3112.8572	3149.3309	3173.633	3498.4725	3734.0029
CC1(O)C2CC1C2C#C	C[C@@]1(O)[C@H]2C[C@@H]1[C@H]2C#C	
InChI=1S/C8H10O/c1-3-5-6-4-7(5)8(6,2)9/h1,5-7,9H,4H2,2H3	InChI=1S/C8H10O/c1-3-5-6-4-7(5)8(6,2)9/h1,5-7,9H,4H2,2H3/t5-,6-,7+,8+
