16
gdb 22732	3.21864	1.16071	0.94591	2.2425	69.81	-0.255	-0.0117	0.2434	1213.5186	0.121852	-474.932084	-474.923458	-474.922514	-474.965574	32.041	
O	-0.0931462192	 1.3543274815	 0.0709697736	-0.388118
N	 0.0490338906	-0.0410783208	 0.1344412673	-0.227344
C	-1.07220062	-0.618892517	 0.0545387244	 0.358845
C	-2.5168710348	-0.1860566497	-0.1677803593	-0.402925
C	-2.8055012231	-1.6568421374	-0.4993978631	 0.359944
C	-4.0102531421	-2.4277562769	-0.7750019979	-0.263971
O	-3.1178657964	-2.0340292292	-1.8372955204	-0.269487
C	-1.4238613289	-2.1144218648	 0.0310361079	 0.002396
O	-0.7217160948	-3.024052987	-0.7534571134	-0.419482
H	 0.821528946	 1.6546340346	 0.1149779922	 0.310004
H	-3.0124205534	 0.1882379269	 0.7337466878	 0.133023
H	-2.6821964293	 0.5198283258	-0.985300672	 0.147618
H	-4.0266145885	-3.4944750767	-0.5569663478	 0.128498
H	-4.9816013743	-1.9363458639	-0.7881744737	 0.125849
H	-1.4741319184	-2.5178817113	 1.0501773452	 0.110338
H	-1.0228123632	-2.8925353041	-1.6629438109	 0.294811
59.776	155.9714	179.4341	193.2807	275.186	338.8906	352.2814	369.2477	409.0607	491.6087	504.5791	591.7265	684.2313	759.0809	803.5087	829.262	883.6173	944.1958	980.9905	1017.9756	1078.7769	1107.646	1122.2599	1135.9026	1169.9997	1195.3266	1212.0366	1240.1072	1317.289	1403.9919	1423.3364	1434.4582	1460.7964	1532.3738	1786.9865	3035.4067	3057.7142	3088.2631	3114.606	3177.3531	3757.08	3811.3296
ON=C1CC2(CO2)C1O	ON=C1C[C@]2(CO2)[C@H]1O	
InChI=1S/C5H7NO3/c7-4-3(6-8)1-5(4)2-9-5/h4,7-8H,1-2H2	InChI=1S/C5H7NO3/c7-4-3(6-8)1-5(4)2-9-5/h4,7-8H,1-2H2/t4-,5-/m0/s1
