18
gdb 82067	2.59686	1.53544	1.17976	3.1332	71.45	-0.2324	-0.0068	0.2256	1081.2182	0.146847	-439.053374	-439.044862	-439.043917	-439.086757	32.138	
C	-0.4873137869	 1.3537147947	 0.0785164588	-0.486023
C	 0.2415787092	 0.0265059274	 0.1111083632	 0.385186
O	 0.8618148544	-0.3575730372	 1.0759533599	-0.302982
C	 0.1667733269	-0.8065446106	-1.1585745547	-0.167396
C	 0.5306303505	-2.2832708373	-1.073501971	-0.047245
N	-0.5424373493	-2.9324666907	-0.2803230743	-0.349184
C	-0.7408386159	-2.6934815363	-1.7294735102	-0.084822
C	-1.2485964591	-1.243699873	-1.7694529094	 0.116665
O	-2.403909136	-0.9866712239	-1.0248285417	-0.425111
H	-0.1453970477	 1.9602398845	-0.7684656287	 0.127575
H	-1.5555630291	 1.1656958085	-0.0745861215	 0.16367
H	-0.3235424652	 1.8949083799	 1.0112289522	 0.135187
H	 0.7349517239	-0.2927403417	-1.9430741122	 0.098281
H	 1.5129857578	-2.7312309368	-1.1388508338	 0.106015
H	-0.2900248028	-3.9098352973	-0.1495641393	 0.239121
H	-0.9619113583	-3.5049766088	-2.4111266291	 0.100675
H	-1.405599923	-0.843566924	-2.7722570361	 0.093646
H	-2.3161663894	-1.5351010075	-0.2299533922	 0.296743
65.9848	126.1964	163.7949	178.4518	225.7189	309.4094	396.5366	458.939	538.13	587.9179	595.484	660.0393	714.1898	760.6103	840.4981	847.1045	903.4003	925.2888	943.2686	974.7534	1013.3935	1032.9488	1041.4007	1085.33	1102.0523	1132.6527	1159.836	1195.6655	1212.8958	1252.5681	1315.2702	1320.2644	1358.6742	1374.5422	1384.0072	1450.3386	1469.9289	1476.3579	1807.5798	3033.4421	3046.3357	3099.054	3105.4087	3151.7915	3194.0809	3211.721	3501.0797	3713.8812
CC(=O)C1C2NC2C1O	CC(=O)[C@H]1[C@H]2N[C@H]2[C@H]1O	
InChI=1S/C6H9NO2/c1-2(8)3-4-5(7-4)6(3)9/h3-7,9H,1H3	InChI=1S/C6H9NO2/c1-2(8)3-4-5(7-4)6(3)9/h3-7,9H,1H3/t3-,4+,5+,6-/m0/s1
