21
gdb 86327	2.08195	1.46508	1.13015	3.1238	79.35	-0.2368	-0.0244	0.2124	1216.7413	0.179823	-424.23875	-424.228703	-424.227759	-424.274345	36.464	
C	 0.3349867861	 1.1254698677	-1.3026587396	-0.41392
C	 0.1424913282	-0.0831494757	-0.4114606721	 0.164734
O	 0.866959772	-1.237152829	-0.8820910353	-0.303093
C	 1.4381108048	-1.486998616	 0.4176875751	 0.164734
C	 2.9368677324	-1.6937208508	 0.3624692221	-0.413915
C	 0.8215177859	-0.1686074185	 0.9980935151	-0.225222
C	 1.76829738	 0.944444228	 1.4032073607	 0.399981
C	 1.5454791895	 1.5500747936	 2.7769163289	-0.484002
O	 2.6575853297	 1.3363845599	 0.6771132659	-0.310634
H	 1.3869933006	 1.4053172997	-1.366339472	 0.154838
H	-0.0331692772	 0.8879298858	-2.3059429742	 0.124619
H	-0.2385761272	 1.9789001975	-0.9237300694	 0.107627
H	-0.9294264792	-0.3153107077	-0.3257899349	 0.075534
H	 0.9588157745	-2.3612852208	 0.8826013496	 0.075534
H	 3.440749002	-0.8200349101	-0.0520971263	 0.154836
H	 3.3354194557	-1.8934312208	 1.3635580804	 0.107628
H	 3.1515450407	-2.5628188992	-0.2677078588	 0.124616
H	 0.1061220276	-0.354609332	 1.8010336275	 0.073384
H	 1.6249426607	 0.7758485881	 3.5493567979	 0.140358
H	 2.2776359517	 2.3362326271	 2.9641770671	 0.141997
H	 0.5314294214	 1.9609903432	 2.8494575824	 0.140363
38.8667	57.8208	157.2962	180.224	195.6832	234.5175	253.2114	302.7693	357.7065	363.3359	433.0318	435.1686	591.1278	620.1209	704.9601	794.2565	827.4467	885.0813	916.8884	927.5797	987.0553	1002.9353	1046.5292	1087.9504	1118.3942	1125.0165	1136.5136	1159.9607	1196.3345	1229.896	1283.8265	1317.6559	1366.041	1373.6345	1386.5208	1398.3957	1403.4144	1428.7191	1461.2654	1474.6049	1479.2918	1484.9638	1496.742	1500.3368	1793.9089	2981.8477	2986.7821	3030.0437	3038.2813	3038.7794	3088.7146	3089.1059	3102.3804	3102.6012	3152.1016	3152.5795	3152.9999
CC1OC(C)C1C(C)=O	C[C@H]1O[C@@H](C)[C@H]1C(=O)C	
InChI=1S/C7H12O2/c1-4(8)7-5(2)9-6(7)3/h5-7H,1-3H3	InChI=1S/C7H12O2/c1-4(8)7-5(2)9-6(7)3/h5-7H,1-3H3/t5-,6+,7+
