21
gdb 60002	3.96769	0.81184	0.73946	3.2341	75.58	-0.2496	0.0722	0.3218	1584.0611	0.180954	-461.341931	-461.33218	-461.331236	-461.376822	36.478	
C	-0.0800271469	 1.5955098136	 0.0880853646	-0.384451
C	-0.0156674175	 0.0723671517	 0.1074516257	 0.147377
O	 0.6279171392	-0.3021031417	 1.3134636731	-0.448784
C	-1.409976512	-0.5652603159	-0.015017119	-0.221775
C	-1.3731067234	-2.0929554432	-0.1701460522	 0.072697
O	-0.7116634535	-2.7301136376	 0.9235534032	-0.438005
C	-2.772456025	-2.6728203614	-0.3176410908	 0.064495
C	-3.0678075344	-4.0692445565	 0.0129465085	-0.18801
O	-3.4005403439	-3.0090525717	 0.9273530707	-0.249039
H	 0.9228320148	 2.010279148	 0.2206362516	 0.124065
H	-0.4875691224	 1.9623566681	-0.8590295555	 0.103864
H	-0.7085160321	 1.9606892811	 0.9068155351	 0.118507
H	 0.58240391	-0.2615764582	-0.7619195371	 0.053545
H	 0.4978143428	-1.255853561	 1.4100393511	 0.286885
H	-2.0034258181	-0.3023042504	 0.8705725735	 0.108819
H	-1.923968594	-0.1441265731	-0.8890320092	 0.09342
H	-0.7875732845	-2.3488897295	-1.0630819958	 0.099962
H	-1.3775949137	-2.787487256	 1.6259067467	 0.296729
H	-3.4227272706	-2.1558593293	-1.023320222	 0.102454
H	-3.9222078776	-4.562010767	-0.446029973	 0.124801
H	-2.2594303071	-4.71820902	 0.3395832409	 0.132445
70.0393	76.9724	146.071	159.4903	229.3085	271.3846	288.7119	324.0412	351.7384	446.9645	475.3143	484.3598	546.4846	641.9009	664.8288	787.0397	844.2124	869.8349	902.5951	928.9918	956.6804	986.5762	1032.628	1069.2988	1090.9895	1111.0365	1129.5268	1160.1871	1168.2674	1177.8018	1219.5231	1263.5695	1282.2129	1314.2573	1341.5126	1366.3299	1384.9417	1403.0251	1419.1056	1439.3277	1461.423	1474.9078	1486.456	1500.9836	1516.9137	2913.8453	3016.6869	3028.8458	3038.906	3065.8121	3102.854	3111.1262	3117.8337	3119.9945	3198.4298	3716.3559	3731.2293
CC(O)CC(O)C1CO1	C[C@@H](O)C[C@@H](O)[C@H]1CO1	
InChI=1S/C6H12O3/c1-4(7)2-5(8)6-3-9-6/h4-8H,2-3H2,1H3	InChI=1S/C6H12O3/c1-4(7)2-5(8)6-3-9-6/h4-8H,2-3H2,1H3/t4-,5-,6-/m1/s1
