15
gdb 22023	2.5532	1.60115	0.9849	3.3343	79.18	-0.1706	-0.0168	0.1538	1115.1923	0.114613	-450.08668	-450.078628	-450.077684	-450.118874	31.125	
N	 0.0842052073	 1.3814144542	 0.012645821	-0.589459
C	 0.0247154445	 0.0020817861	 0.0182193121	 0.237785
C	-1.120465916	-0.7270760854	 0.0936049839	-0.083575
N	-1.0712322323	-2.1030386344	 0.1563638444	-0.230835
N	 0.0485912809	-2.8238248325	 0.1454796484	-0.195923
C	 1.171700465	-2.1651162841	 0.0626191821	-0.075828
C	 1.2866860329	-0.7228492049	-0.0132619015	 0.306316
N	 2.3744849407	-0.0204838376	-0.1143817843	-0.299091
O	 3.5132227529	-0.8570978834	-0.1628082642	-0.407477
H	 0.9708949914	 1.7284542254	-0.3283512686	 0.264577
H	-0.7207012294	 1.8697212715	-0.3483447093	 0.244713
H	-2.1102731694	-0.2891170041	 0.1165765907	 0.114534
H	-1.916231716	-2.6437673472	 0.2211232885	 0.273221
H	 2.0704775723	-2.7656705767	 0.0494386156	 0.140077
H	 4.229337725	-0.2162230869	-0.2006993488	 0.300967
122.504	215.478	220.6511	282.5806	333.3933	336.1396	381.9222	394.3062	493.6343	509.0947	558.1626	579.7928	617.0769	623.7259	754.6926	803.0561	808.783	903.2655	915.6731	994.9307	1024.8897	1118.7971	1241.125	1260.09	1331.8924	1361.5579	1394.3511	1462.0837	1531.1803	1594.2491	1624.6431	1652.8132	1691.6363	3209.9374	3235.9098	3551.1625	3668.539	3670.0403	3835.5412
NC1=CNN=CC1=NO	Nc1c[nH]ncc1=NO	
InChI=1S/C4H6N4O/c5-3-1-6-7-2-4(3)8-9/h1-2,9H,(H2,5,7)(H,6,8)	InChI=1S/C4H6N4O/c5-3-1-6-7-2-4(3)8-9/h1-2,9H,(H2,5,7)(H,6,8)
