14
gdb 129411	5.58959	0.80643	0.70579	0.9308	75.95	-0.2308	-0.0721	0.1587	1468.001	0.100309	-466.204795	-466.195843	-466.194899	-466.23909	31.928	
N	 0.5880813511	 0.7895941431	-0.6125603258	-0.550821
C	 0.1626740216	 0.1236751992	 0.502385105	 0.432854
N	 0.8349396805	-0.3239716075	 1.4948367311	-0.567166
N	-1.2346006319	-0.0483830117	 0.5976136086	-0.375151
C	-2.200975353	 0.177321056	-0.3539142233	 0.470402
C	-3.5489290258	-0.1615393977	 0.1076829762	-0.247019
N	-4.5292146614	 0.018953122	-0.7332585371	 0.296581
N	-5.3557018112	 0.1861609988	-1.485034634	-0.20247
O	-1.9822119859	 0.6174627101	-1.4771555297	-0.421981
H	 1.5660057158	 0.7186021328	-0.8353516389	 0.250804
H	-0.0776481556	 0.8818677524	-1.3715251182	 0.283752
H	 1.8297949416	-0.1456219803	 1.3753855401	 0.20746
H	-1.4931268639	-0.46828898	 1.4778960668	 0.266131
H	-3.8165024418	-0.5424556773	 1.0818988393	 0.156625
64.6207	92.8686	115.3071	141.4412	253.6842	343.2108	393.7923	426.2361	443.1284	462.9897	548.4185	560.6513	588.4091	619.0727	720.8727	740.2013	789.4822	818.5093	938.0659	1017.804	1126.5944	1142.7303	1191.2374	1216.4501	1406.8969	1451.0113	1502.4443	1618.2503	1734.9694	1741.3798	2238.7282	3237.3306	3505.3393	3511.9841	3629.0519	3697.4757
NC(=N)NC1=CN=NO1	NC(=N)NC(=O)[CH][N][N]	
InChI=1S/C3H5N5O/c4-3(5)7-2-1-6-8-9-2/h1H,(H4,4,5,7)	InChI=1S/C3H5N5O/c4-3(5)8-2(9)1-7-6/h1H,(H4,4,5,8,9)
