14
gdb 9468	2.94247	1.82301	1.6006	2.6361	59.6	-0.2577	-0.0646	0.193	854.5709	0.103481	-419.679555	-419.671461	-419.670517	-419.7124	28.052	
C	-0.1035864005	 1.6678418888	 0.0565909002	-0.433237
C	 0.046705815	 0.1572813385	-0.0306195336	 0.18173
O	 1.162387005	-0.2938266597	-0.8393496769	-0.318378
C	 1.8360321216	-0.9626485208	 0.2459963976	-0.190226
C	 0.7249041599	-0.5202097106	 1.1991938129	 0.303677
O	 0.4856543681	-0.6077765534	 2.3599213889	-0.251408
C	-1.23971698	-0.5356633786	-0.4637791372	 0.124707
O	-2.3389429444	-0.173766012	-0.1404268295	-0.233743
H	 0.780476117	 2.1284711597	 0.5033167455	 0.127679
H	-0.2490324141	 2.0837276573	-0.944423106	 0.142415
H	-0.9824750891	 1.8994955935	 0.6624090068	 0.162303
H	 1.9097087533	-2.0484946431	 0.1024993756	 0.141707
H	 2.8326326577	-0.554549331	 0.4534671409	 0.143819
H	-1.0598847598	-1.4233623786	-1.1085278251	 0.098954
80.3687	102.2762	171.2857	179.6085	245.3169	258.561	372.7635	489.1675	491.9187	534.4994	692.2433	743.3195	862.6862	918.0893	970.1384	1003.0247	1014.6395	1033.6717	1132.0785	1140.4726	1183.4724	1209.0188	1298.5277	1382.5902	1397.1351	1476.905	1479.6982	1489.5942	1821.7795	1930.851	2902.637	3020.3459	3051.6552	3069.9871	3127.8119	3144.9457
CC1(OCC1=O)C=O	C[C@]1(OCC1=O)C=O	
InChI=1S/C5H6O3/c1-5(3-6)4(7)2-8-5/h3H,2H2,1H3	InChI=1S/C5H6O3/c1-5(3-6)4(7)2-8-5/h3H,2H2,1H3/t5-/m0/s1
