18
gdb 8699	2.91681	1.54041	1.30772	3.7279	64.09	-0.2504	-0.032	0.2184	1003.438	0.150989	-422.077058	-422.067557	-422.066613	-422.110937	33.84	
C	 0.0351933268	 1.5381832594	-0.0474861454	-0.416554
C	-0.0061601228	-0.0022831587	 0.0432508074	 0.115784
C	 0.6920316856	-0.4973060833	 1.3293383334	-0.092546
O	 2.0331218441	-0.0745755287	 1.4307744362	-0.427934
C	-1.4616592349	-0.5024329177	 0.0334008186	-0.114693
O	-2.1113430133	-0.0038657403	-1.1258155216	-0.421326
C	 0.7057524981	-0.5525016219	-1.1856964943	 0.15372
O	 1.8073766758	-1.0555061249	-1.1772278056	-0.279684
H	 1.0613134805	 1.8884818411	 0.0796071908	 0.141032
H	-0.3607623174	 1.8944455804	-1.0010237152	 0.133842
H	-0.5773803236	 1.9691650545	 0.7520036913	 0.1191
H	 0.1666381387	-0.0898914299	 2.201028211	 0.103752
H	 0.6125428545	-1.595430339	 1.381145959	 0.088408
H	 2.4849646075	-0.4789708699	 0.6772530326	 0.29483
H	-1.4780111047	-1.6039516291	 0.0537931905	 0.096765
H	-1.9566711386	-0.1483380962	 0.952113388	 0.098078
H	-3.0004634343	-0.3682958196	-1.1576803585	 0.294869
H	 0.1404077581	-0.4506847463	-2.1338125984	 0.112557
86.2581	114.6488	157.0049	197.8309	216.0714	240.8018	259.4918	300.5219	331.567	353.3736	403.8911	490.8788	598.245	636.9345	792.1022	884.3392	924.7999	966.2487	982.8877	1035.9471	1061.4353	1110.0579	1159.4759	1187.7548	1199.1126	1244.8766	1280.1054	1325.7919	1387.5536	1396.566	1422.5188	1445.5863	1463.0814	1491.2442	1496.7227	1501.5652	1522.2017	1799.1115	2939.8771	2960.724	2972.4302	2994.7379	3041.901	3057.7262	3114.6774	3144.0284	3746.7216	3835.2966
CC(CO)(CO)C=O	CC(CO)(CO)C=O	
InChI=1S/C5H10O3/c1-5(2-6,3-7)4-8/h2,7-8H,3-4H2,1H3	InChI=1S/C5H10O3/c1-5(2-6,3-7)4-8/h2,7-8H,3-4H2,1H3
