23
gdb 57251	2.11004	1.38554	1.2677	0.4923	90.66	-0.2573	0.0604	0.3178	1205.4966	0.202575	-351.11464	-351.104129	-351.103185	-351.149618	40.841	
C	 0.1822293988	 1.486923088	 0.1516575777	-0.409634
C	 0.0196059386	-0.0498300598	 0.0302719055	-0.01052
C	 0.5637636831	-0.6865064645	 1.332298736	-0.430636
C	-1.411675023	-0.3770552297	-0.0616229669	 0.374773
C	-2.5826752703	-0.6459186939	-0.1179709435	-0.515075
C	 0.7261092752	-0.5586789472	-1.2575643483	 0.382097
C	 0.2217134665	 0.071926676	-2.5477280188	-0.470392
C	 2.1959074476	-0.9090365495	-1.2283805429	-0.322949
C	 1.1585993125	-2.0004623318	-1.3632534378	-0.306661
H	 1.2453635258	 1.7483980019	 0.1617787122	 0.114659
H	-0.2972020879	 2.0123027441	-0.6760468033	 0.125843
H	-0.2712954664	 1.8434460816	 1.0805648024	 0.118357
H	-0.0135623548	-0.314748586	 2.1827056969	 0.125522
H	 0.474926824	-1.774574897	 1.327732865	 0.126632
H	 1.6106143617	-0.4155011071	 1.4951635735	 0.116196
H	-3.6160128911	-0.8842310739	-0.1718875591	 0.1918
H	 0.45308277	 1.140559846	-2.6009333556	 0.11475
H	 0.6917873887	-0.4050454313	-3.4129247632	 0.108912
H	-0.8618528359	-0.0464882735	-2.6456086198	 0.130305
H	 2.7881324224	-0.6472173494	-2.0991596306	 0.107274
H	 2.7431242536	-0.8496873345	-0.295296745	 0.109063
H	 1.0131397268	-2.6634165133	-0.5191578579	 0.112218
H	 1.0417168443	-2.4883750951	-2.3250627465	 0.107467
31.9718	144.151	173.2429	202.7527	226.0484	265.462	294.0725	306.6977	350.9311	371.0072	391.3628	396.5558	461.0861	522.3216	562.7556	621.405	627.6898	635.0245	780.4239	794.8055	879.5232	891.3502	917.703	940.3724	953.1907	973.0745	1024.6289	1038.811	1069.6309	1081.5597	1125.6457	1154.1467	1184.0113	1186.3261	1232.8895	1292.4249	1334.7476	1392.3386	1413.3121	1418.0266	1465.1131	1481.4769	1488.1839	1496.1268	1502.1137	1505.3169	1513.0418	1521.384	2226.2456	3035.2704	3042.0615	3051.3488	3098.8831	3108.7173	3112.3132	3119.7701	3131.6615	3134.4755	3137.5709	3141.9917	3213.9453	3228.0015	3501.8628
CC(C)(C#C)C1(C)CC1	CC(C)(C#C)C1(C)CC1	
InChI=1S/C9H14/c1-5-8(2,3)9(4)6-7-9/h1H,6-7H2,2-4H3	InChI=1S/C9H14/c1-5-8(2,3)9(4)6-7-9/h1H,6-7H2,2-4H3
