19
gdb 75900	2.44494	1.49026	1.23329	5.1904	70.75	-0.2601	0.0161	0.2762	1096.9559	0.158045	-460.214704	-460.205617	-460.204673	-460.248079	34.478	
C	 0.2095745167	 1.581982388	-0.2334915829	-0.425717
C	-0.0220185932	 0.1010833534	 0.1004790188	-0.153875
C	 0.4600865637	-0.7653112312	-1.065236758	 0.442942
O	-0.0447794589	-0.9034672291	-2.1399167542	-0.346762
O	 1.640428223	-1.3646121519	-0.7336810313	-0.222103
C	 2.0410235309	-0.9871969635	 0.5854497074	-0.106156
C	 0.767800229	-0.4733188067	 1.2908253393	 0.348951
C	 1.0594353899	 0.4667633676	 2.455212632	-0.461957
O	-0.0221531673	-1.5822881568	 1.724986464	-0.469785
H	 1.2714554352	 1.8109163299	-0.3741863556	 0.123636
H	-0.3088688204	 1.8278521429	-1.1635444178	 0.148567
H	-0.1767925031	 2.2292174184	 0.5581133951	 0.125738
H	-1.0879494255	-0.0805544728	 0.2514533981	 0.12213
H	 2.4604264269	-1.8670156779	 1.082251573	 0.110943
H	 2.8172943688	-0.214793161	 0.5211273626	 0.109946
H	 1.6162091759	 1.3533154326	 2.1409768632	 0.126059
H	 0.1250551332	 0.7861223239	 2.9246255678	 0.136152
H	 1.658667459	-0.0482307408	 3.2161981285	 0.111802
H	 0.4635940965	-2.0513336349	 2.4123495499	 0.279487
74.4007	181.6448	211.2444	236.0231	245.7599	275.3314	302.1248	306.502	366.1313	406.1929	473.7593	538.4826	588.8523	691.3595	725.22	784.8142	820.2189	885.3354	939.9304	988.3233	1020.8242	1049.8189	1077.7881	1083.8895	1141.3101	1152.3759	1193.2036	1202.6078	1257.667	1300.2314	1324.9668	1360.1774	1399.5538	1408.0834	1418.3501	1489.1329	1493.4335	1501.5412	1506.4208	1510.4091	1885.9437	3027.6163	3032.556	3040.4792	3088.3884	3094.6099	3099.35	3114.1083	3126.3099	3128.4643	3802.4486
CC1C(=O)OCC1(C)O	C[C@H]1C(=O)OC[C@]1(C)O	
InChI=1S/C6H10O3/c1-4-5(7)9-3-6(4,2)8/h4,8H,3H2,1-2H3	InChI=1S/C6H10O3/c1-4-5(7)9-3-6(4,2)8/h4,8H,3H2,1-2H3/t4-,6-/m0/s1
