15
gdb 43455	3.06874	1.47757	1.08347	1.9057	67.48	-0.2661	-0.0208	0.2453	1061.5536	0.11391	-453.97624	-453.968856	-453.967912	-454.008574	27.917	
N	-0.1265321856	 1.2500104752	-0.108702489	-0.546177
C	-0.0658737152	-0.0020324375	-0.0039053627	 0.369744
O	 1.0981571216	-0.740494469	 0.0622633649	-0.218689
C	 0.835605119	-2.1086632925	 0.0599325763	 0.422724
O	 1.716593363	-2.9030568949	 0.1358944522	-0.299158
C	-0.663689218	-2.3256236009	-0.0608117531	-0.463574
C	-1.2362667007	-0.9282146039	 0.0354531362	 0.254063
C	-2.448585867	-0.5212315988	 0.8010414516	-0.269878
N	-2.4658094855	-0.5483733546	-0.6623193589	-0.347677
H	 0.7972994141	 1.6801665337	-0.1317354522	 0.243139
H	-0.8789871292	-2.7918465647	-1.0274871034	 0.168596
H	-0.9978303585	-3.0129813989	 0.7193769888	 0.15661
H	-3.0427758025	-1.2928381	 1.2834980879	 0.129462
H	-2.4139369162	 0.4394550029	 1.3060765027	 0.144297
H	-2.3446338392	 0.4005609337	-1.0163645812	 0.256518
61.5943	145.2793	264.0601	267.4352	349.8661	366.0985	505.3761	555.0759	585.891	645.098	707.778	749.3119	833.4211	858.9582	885.1214	920.1642	964.4499	992.7562	1019.6732	1038.1245	1102.2189	1117.804	1145.462	1180.1388	1248.3019	1276.5735	1301.5314	1345.3627	1414.5226	1456.5627	1499.9437	1783.5274	1924.8898	3069.3229	3111.4412	3117.5203	3208.5477	3475.2878	3506.3542
N=C1OC(=O)CC11CN1	[NH][C]1OC(=O)C[C@]21CN2	
InChI=1S/C5H6N2O2/c6-4-5(2-7-5)1-3(8)9-4/h6-7H,1-2H2	InChI=1S/C5H6N2O2/c6-4-5(2-7-5)1-3(8)9-4/h6-7H,1-2H2/t5-/m1/s1
