15
gdb 75705	2.2539	2.06685	1.19847	1.8315	66.79	-0.2549	-0.0533	0.2016	981.5362	0.112706	-453.931328	-453.923699	-453.922755	-453.963548	28.829	
O	 0.6757843025	 0.674810693	 0.9069939157	-0.43138
C	 0.1079965456	-0.2845003044	 0.07695866	-0.008604
C	-1.388097358	-0.1441157574	-0.1875485269	 0.338686
O	-2.1687514691	 0.4025912555	 0.5488789392	-0.320262
C	-1.6183854785	-0.8264434669	-1.5085651162	-0.148488
C	-1.2430095364	-0.0732338799	-2.742981285	-0.228
N	-0.2946874883	-1.0249660993	-2.1577039066	-0.102162
C	 0.6746882798	-0.3554182641	-1.3355345198	 0.281324
N	 1.7536074898	 0.1073563776	-1.7912655047	-0.48558
H	-0.0570028875	 1.1124610058	 1.3641058167	 0.303027
H	 0.2111105414	-1.3050289238	 0.5007955366	 0.132176
H	-2.3397108558	-1.6349002003	-1.5647100443	 0.135224
H	-1.687612506	-0.3820068799	-3.6836460935	 0.14508
H	-1.0099600691	 0.985152987	-2.6667564693	 0.145925
H	 2.2733985296	 0.5582105971	-1.0348340618	 0.243034
78.6281	185.6717	237.9879	241.7436	298.9139	319.841	438.964	536.9096	569.6676	604.4863	639.1226	701.7007	808.566	857.2601	868.5955	907.9908	942.5536	991.5925	1018.3138	1053.8796	1107.0215	1133.2787	1155.2632	1176.8198	1214.2324	1243.3396	1313.1139	1334.2324	1370.8841	1380.7746	1507.2621	1770.7164	1850.2701	2903.5655	3120.7058	3173.3455	3213.4493	3462.8856	3738.7883
OC1C(=O)C2CN2C1=N	O[C@H]1C(=O)[C@H]2CN2[C]1[NH]	
InChI=1S/C5H6N2O2/c6-5-4(9)3(8)2-1-7(2)5/h2,4,6,9H,1H2	InChI=1S/C5H6N2O2/c6-5-4(9)3(8)2-1-7(2)5/h2,4,6,9H,1H2/t2-,4+,7?/m1/s1
