16
gdb 29146	3.01714	1.43747	0.9794	2.1544	79.97	-0.1861	-0.0464	0.1397	1149.5694	0.125284	-434.108637	-434.100511	-434.099567	-434.141043	31.386	
C	-0.0308495997	 1.4808461058	-0.0071483661	-0.45313
C	-0.0030196187	-0.0141766157	-0.0178628988	 0.305327
N	-0.0193484934	-0.652022988	-1.1490416009	-0.383717
C	 0.0057866997	-2.0196953056	-1.1720875663	 0.373079
O	-0.0139305807	-2.603946658	-2.3984935751	-0.435869
C	 0.0479984827	-2.7538794935	-0.0372701291	-0.111425
N	 0.065565008	-2.0802220802	 1.1682935251	-0.36394
C	 0.0425894823	-0.6974702621	 1.2909828459	 0.32321
N	 0.0571142014	-0.016902018	 2.3845294638	-0.5581
H	 0.8478475969	 1.8722902818	 0.5160684864	 0.149205
H	-0.0639573066	 1.8616625577	-1.0282876224	 0.124623
H	-0.8958516652	 1.8395255777	 0.5604701497	 0.149225
H	-0.0435253345	-1.8753417097	-3.0310454159	 0.296853
H	 0.0689708081	-3.8335360146	-0.0115021437	 0.136579
H	 0.0968888191	-2.6193017397	 2.0197430528	 0.255201
H	 0.0890396205	-0.6202641379	 3.2081555545	 0.192877
100.8457	159.0335	222.8659	296.0161	321.9643	354.9992	392.2688	421.0094	489.2174	514.9994	549.1157	583.8339	630.7897	696.538	766.3519	786.3091	805.2918	809.5064	966.1167	1019.3932	1051.191	1072.8155	1196.1474	1199.2784	1237.0095	1306.9496	1392.5023	1408.9805	1421.1722	1459.6835	1462.3257	1477.3202	1604.1265	1681.3326	1723.8442	3044.964	3097.5754	3153.5717	3238.839	3451.5619	3629.1511	3796.4439
CC1=NC(O)=CNC1=N	CC1=C(NCC(=N1)O)[NH]	
InChI=1S/C5H7N3O/c1-3-5(6)7-2-4(9)8-3/h2H,1H3,(H2,6,7)(H,8,9)	InChI=1S/C5H8N3O/c1-3-5(6)7-2-4(9)8-3/h6-7H,2H2,1H3,(H,8,9)
