17
gdb 34603	3.69329	1.21298	1.01749	4.2405	80.6	-0.2429	-0.0433	0.1996	1157.7651	0.138259	-380.871735	-380.864166	-380.863222	-380.903994	28.999	
N	 0.2252442855	-0.9308384622	 0.7837779761	-0.333924
C	 0.1011474781	 0.1532962091	 0.3939210997	 0.217962
C	 0.0018257299	 1.4848641581	-0.1109365738	 0.143683
C	-1.1090068356	 2.2109620055	 0.0732274355	-0.139025
C	-1.2591339925	 3.5985691542	-0.470305891	-0.28141
C	 0.0644997173	 4.2616182467	-0.8153437582	-0.008984
C	 1.1725433275	 4.2743999829	 0.1805524881	-0.249278
N	 1.273873106	 3.4649070089	-1.033043103	-0.09436
C	 1.1977283333	 2.0149870384	-0.888700996	-0.247645
H	-1.9463333634	 1.7855057053	 0.6174464097	 0.120248
H	-1.8888722282	 3.5545371007	-1.3714836989	 0.134334
H	-1.8165420989	 4.2210427859	 0.2414383732	 0.127758
H	-0.0240487114	 5.1070950829	-1.4944551469	 0.097747
H	 1.857960178	 5.1154094136	 0.2360823418	 0.121383
H	 0.9943378499	 3.7664138773	 1.1265364376	 0.118992
H	 2.125163522	 1.6669622513	-0.4209839803	 0.13543
H	 1.1794152925	 1.5793872915	-1.8964489634	 0.137089
77.4078	159.8781	186.0755	301.7951	349.0394	384.5491	443.8283	526.0951	559.4031	574.4712	676.0117	748.7611	795.953	842.3549	878.5691	945.5643	956.4388	1003.3689	1007.9078	1061.5154	1094.2122	1114.5291	1126.7229	1160.2201	1174.0277	1234.2951	1280.8437	1324.2307	1329.1437	1364.9883	1376.0148	1414.9095	1469.2147	1479.6589	1508.3033	1701.4945	2332.5806	3002.19	3021.8522	3038.8269	3068.6375	3100.7206	3123.3298	3181.7201	3187.1749
N#CC1=CCC2CN2C1	N#CC1=CC[C@H]2CN2C1	
InChI=1S/C7H8N2/c8-3-6-1-2-7-5-9(7)4-6/h1,7H,2,4-5H2	InChI=1S/C7H8N2/c8-3-6-1-2-7-5-9(7)4-6/h1,7H,2,4-5H2/t7-,9?/m0/s1
