15
gdb 16676	3.45588	1.9881	1.71949	3.3251	67.35	-0.2339	0.0006	0.2344	813.7718	0.119554	-362.638283	-362.631522	-362.630578	-362.669139	25.889	
C	 0.05318263	 1.4368332897	 0.0559488977	-0.511953
C	-0.0717280162	-0.0476775552	 0.0246392183	 0.321696
C	-0.071894238	-0.9207881628	-1.0082607541	-0.194256
C	-0.0360782701	-2.2803452475	-0.3312625097	-0.169095
N	-0.9189213967	-2.1283108475	 0.8665397006	-0.288252
C	-0.0475182594	-0.9729945374	 1.2379015111	-0.223294
C	 1.1149616306	-1.9245932934	 0.7060927305	 0.457113
O	 2.238847316	-2.1969396289	 0.9462190577	-0.297731
H	 0.9767576004	 1.7404992131	 0.5646879349	 0.142836
H	 0.0721970316	 1.8571506186	-0.9531866781	 0.132408
H	-0.7746276899	 1.90006555	 0.6062317358	 0.132653
H	 0.0366241275	-0.7212033676	-2.0653947699	 0.111818
H	-0.0876989471	-3.1998784128	-0.9094389574	 0.090783
H	-1.8480274234	-1.8017712237	 0.5863754298	 0.207677
H	-0.1061393854	-0.5709323249	 2.2475117028	 0.087597
126.3887	157.195	246.9186	298.8247	401.1961	516.4765	583.0877	588.9771	637.5074	753.0511	800.8857	827.2139	854.9573	904.2251	939.1159	965.9237	1012.1128	1039.0171	1059.7784	1066.2651	1087.1897	1185.3208	1191.4889	1237.1896	1280.8231	1298.9368	1316.1843	1414.5312	1478.1542	1485.5719	1636.7689	1939.0751	3021.7515	3070.1811	3112.7194	3145.7533	3155.1363	3229.8854	3412.5272
CC1=CC2NC1C2=O	CC1=C[C@@H]2N[C@H]1C2=O	
InChI=1S/C6H7NO/c1-3-2-4-6(8)5(3)7-4/h2,4-5,7H,1H3	InChI=1S/C6H7NO/c1-3-2-4-6(8)5(3)7-4/h2,4-5,7H,1H3/t4-,5+/m0/s1
