21
gdb 36985	5.74592	0.68735	0.64843	1.2217	79.76	-0.2455	0.0774	0.3228	1765.249	0.18173	-424.176467	-424.167173	-424.166229	-424.212346	33.338	
C	 0.3140448677	 1.0176056875	 0.8037619845	-0.076802
O	-0.1376870512	 0.3047369088	-0.3327539914	-0.256473
C	-1.349754673	-0.3510951396	-0.1288858309	 0.155086
C	-1.6004525357	-1.5617452528	-0.9652009284	-0.287722
C	-1.3504621004	-1.7101796704	 0.5240600419	-0.286752
C	 1.6372297731	 1.6662085252	 0.4421147244	 0.135323
C	 1.6004426721	 2.9183822616	-0.4591150875	-0.280281
C	 2.2160599882	 3.6346955306	 0.7599105962	-0.061351
O	 2.1615447967	 2.4274001643	 1.5531681366	-0.295648
H	-0.4129503573	 1.7917185826	 1.0992089284	 0.086135
H	 0.4530327522	 0.3466099663	 1.6652905089	 0.099928
H	-2.1873850852	 0.3150022974	 0.0838624385	 0.08243
H	-2.5999300172	-1.7277926123	-1.350700727	 0.114028
H	-0.7988351133	-1.8603803403	-1.6308451536	 0.125374
H	-0.3871430724	-2.1097690126	 0.8208651767	 0.120331
H	-2.1767113074	-1.9804115145	 1.1722954192	 0.11324
H	 2.3426682692	 0.8913937153	 0.1140467609	 0.081262
H	 2.2233317816	 2.8784068982	-1.3530591758	 0.112955
H	 0.5960809478	 3.2438198722	-0.7362803313	 0.113264
H	 3.2466769306	 3.9867740244	 0.6280214724	 0.10229
H	 1.6220751738	 4.442042148	 1.2044046671	 0.103381
46.4672	52.5628	75.4335	118.0006	151.3676	268.727	324.4842	409.039	445.8381	497.9609	751.4352	771.4336	801.2079	819.7289	838.0772	883.3032	939.2949	946.8417	970.1759	979.8985	1022.8819	1046.3349	1051.975	1072.8187	1101.9038	1122.1559	1131.8193	1156.3354	1173.9181	1193.4037	1205.419	1211.5394	1246.0319	1251.8161	1256.9725	1276.8752	1344.3556	1370.7219	1393.8394	1434.4489	1453.5972	1491.5321	1499.1773	1517.658	1532.0056	2969.2483	3005.4699	3016.3234	3026.2014	3056.192	3084.2125	3088.2092	3136.0432	3139.407	3142.4677	3220.4359	3235.0935
C(OC1CC1)C1CCO1	C(OC1CC1)[C@H]1CCO1	
InChI=1S/C7H12O2/c1-2-6(1)9-5-7-3-4-8-7/h6-7H,1-5H2	InChI=1S/C7H12O2/c1-2-6(1)9-5-7-3-4-8-7/h6-7H,1-5H2/t7-/m1/s1
