14
gdb 48474	2.49742	1.50726	1.21964	5.8523	68.52	-0.2668	-0.0598	0.207	1034.8765	0.099203	-436.693788	-436.685572	-436.684628	-436.727384	28.847	
O	-0.8236749998	 0.9753168624	 0.3706850947	-0.222053
C	 0.3214956118	 0.8295358536	 0.0589788955	 0.14043
C	 1.3899408328	 1.9506410019	 0.0864028653	 0.101855
O	 2.6645548989	 1.3527864663	 0.2559855366	-0.289939
C	 3.5382685508	 1.7197932038	-0.8207547841	-0.136662
C	 2.6652604894	 2.4697330202	-1.7820691997	-0.086563
C	 1.4471475404	 2.6198429634	-1.2781412458	-0.120612
C	 1.1054774095	 2.9212708731	 1.1619360098	 0.285586
N	 0.8988743571	 3.6911478542	 1.9973438424	-0.325366
H	 0.7466446428	-0.1209939736	-0.3271085588	 0.106969
H	 4.3670965339	 2.3363330578	-0.443604061	 0.133054
H	 3.9693523074	 0.8059609269	-1.2491419835	 0.130725
H	 3.0183241408	 2.8490747529	-2.7322624364	 0.134547
H	 0.5944464143	 3.1307048869	-1.702000955	 0.14803
62.9961	87.6271	148.1264	168.8808	251.2644	300.9142	432.1848	439.3244	518.491	552.1721	705.6411	754.0389	774.7043	836.122	925.7799	960.6762	966.543	985.456	1044.5633	1098.5631	1110.6586	1126.5878	1154.8971	1203.0545	1327.7968	1376.5854	1380.1737	1514.3537	1681.9317	1851.0684	2361.6832	2920.3986	3004.0777	3042.4703	3222.6113	3252.482
O=CC1(OCC=C1)C#N	O=C[C@]1(OCC=C1)C#N	
InChI=1S/C6H5NO2/c7-4-6(5-8)2-1-3-9-6/h1-2,5H,3H2	InChI=1S/C6H5NO2/c7-4-6(5-8)2-1-3-9-6/h1-2,5H,3H2/t6-/m1/s1
