15
gdb 131126	3.88436	0.99957	0.97786	4.0041	67.94	-0.2457	-0.0398	0.2059	1216.3464	0.113363	-453.964822	-453.956798	-453.955854	-453.998837	28.829	
O	-0.0893529295	 1.4850501488	 0.1014132669	-0.426932
C	 0.0100411952	 0.0883955465	 0.0327333947	-0.074426
C	 0.764049591	-0.3125860964	-1.2331899066	 0.137398
O	 1.1664866323	 0.5090533802	-2.0187424539	-0.259385
C	 0.7069504085	-0.4896311784	 1.232855777	 0.197638
C	 0.4136180116	-1.6500293477	 1.9221821498	-0.147356
N	 1.3471136423	-1.7596812729	 2.896915796	-0.177907
N	 2.2323948512	-0.7447750539	 2.9019650444	-0.218554
C	 1.8506759873	 0.0259225498	 1.8901857483	-0.068244
H	 0.300436703	 1.8123218682	-0.7255385282	 0.295881
H	-0.9899536278	-0.3763437223	-0.0533865157	 0.09499
H	 0.9230652996	-1.3996323221	-1.377978099	 0.102431
H	-0.373549411	-2.3777463434	 1.8006673444	 0.139093
H	 1.4259955191	-2.478235801	 3.5964717782	 0.278489
H	 2.3856918072	 0.9368875746	 1.6692823237	 0.126884
29.644	81.7639	154.3227	231.8044	304.786	377.1925	417.8807	476.9247	525.8634	667.5379	684.2372	704.1145	780.5199	792.2953	864.8155	894.2932	952.3318	1008.3408	1023.3243	1063.1668	1140.4931	1169.7905	1224.108	1252.7499	1288.4701	1348.1309	1385.1304	1394.8965	1422.9598	1435.2852	1493.7914	1604.2076	1814.5662	2929.1371	2947.9033	3257.9521	3260.2256	3674.6459	3680.8386
OC(C=O)C1=CNN=C1	O[C@@H](C=O)c1c[nH]nc1	
InChI=1S/C5H6N2O2/c8-3-5(9)4-1-6-7-2-4/h1-3,5,9H,(H,6,7)	InChI=1S/C5H6N2O2/c8-3-5(9)4-1-6-7-2-4/h1-3,5,9H,(H,6,7)/t5-/m0/s1
