15
gdb 43783	4.14288	1.22697	1.10913	2.7027	70.11	-0.2558	-0.0323	0.2235	1061.7255	0.114202	-416.802927	-416.795825	-416.794881	-416.834532	27.595	
O	 0.0465423962	 0.0555933364	-0.0367207339	-0.313479
C	 0.0216870569	 1.2506077021	 0.0067443166	 0.471303
C	-1.1957700064	 2.2040893591	 0.0292799182	-0.35737
C	-0.380829645	 3.5170645751	 0.0264114956	 0.203978
C	 0.7089365846	 3.265173028	-1.0614904133	-0.274803
C	 1.1795627739	 2.2554435571	 0.0234338033	-0.131363
N	 0.6424516594	 3.1845865582	 1.1033679606	-0.350159
C	-1.0962952309	 4.7706652473	 0.1199350392	 0.176671
N	-1.6536239259	 5.7812567256	 0.1802141492	-0.327351
H	-1.8369143737	 2.0768806132	-0.8455406429	 0.14426
H	-1.7855768064	 2.0842661317	 0.9395930235	 0.158674
H	 0.3959199223	 2.9051570589	-2.0461483617	 0.125967
H	 1.3935710539	 4.1102479078	-1.1563437005	 0.130987
H	 2.1920987894	 1.8711555787	 0.1097147165	 0.106271
H	 1.2859977416	 3.9759154508	 1.1650541895	 0.236415
119.2643	143.3935	203.3021	387.2378	420.6395	483.3029	512.9355	541.0012	563.961	616.7337	648.4285	762.4345	823.8052	825.8555	884.9738	955.2402	972.7853	998.6707	1028.0259	1036.8845	1118.0122	1128.5876	1169.7481	1182.2684	1210.9296	1235.4089	1256.0989	1304.0644	1357.782	1448.7656	1499.676	1896.187	2360.8461	3056.6317	3085.1371	3130.8744	3143.8924	3170.9329	3444.2943
O=C1CC2(CC1N2)C#N	O=C1C[C@@]2(C[C@H]1N2)C#N	
InChI=1S/C6H6N2O/c7-3-6-1-4(8-6)5(9)2-6/h4,8H,1-2H2	InChI=1S/C6H6N2O/c7-3-6-1-4(8-6)5(9)2-6/h4,8H,1-2H2/t4-,6+/m1/s1
