17
gdb 54512	3.23154	1.42774	1.185	3.0121	73.46	-0.2277	0.0023	0.23	1059.0901	0.137449	-418.023621	-418.015863	-418.014919	-418.055861	30.389	
N	-0.1171416338	 1.2773372778	 0.3428381589	-0.535606
C	 0.0407460329	-0.0208758488	-0.0371004272	 0.309942
O	 1.0974589603	-0.518422846	-0.3785227943	-0.369199
C	-1.2419606702	-0.8119875426	-0.045404028	 0.214387
C	-2.4152721683	-0.375605135	-0.871988136	-0.253108
N	-2.466299267	-0.2416726967	 0.5830014424	-0.162026
C	-3.1327532758	-1.3665809148	 1.2849404007	-0.217763
C	-2.2847915941	-2.5895743828	 1.0017250681	-0.098919
C	-1.2144429069	-2.2661152207	 0.2778865502	-0.138408
H	 0.7099748551	 1.8387477754	 0.4616751681	 0.259184
H	-0.9725932831	 1.5381084992	 0.8091789368	 0.270169
H	-2.3760018149	 0.5681612241	-1.4089465432	 0.125065
H	-2.9946303079	-1.1639935203	-1.3476254481	 0.12134
H	-3.179718763	-1.140918676	 2.3582391131	 0.119573
H	-4.1679441667	-1.4667928003	 0.9357655753	 0.119485
H	-2.5472661671	-3.5820409326	 1.3478458479	 0.107072
H	-0.4132431395	-2.9133652	-0.0493542747	 0.128811
76.5612	169.2038	195.072	286.5941	379.4286	402.12	416.1263	484.7914	520.2509	615.9481	656.7852	733.7218	741.4788	757.6816	776.8097	852.2469	911.1618	933.8147	953.1935	965.1796	1007.8157	1041.4532	1097.6821	1109.5049	1121.505	1155.0687	1201.6956	1224.0962	1293.8385	1340.6544	1347.8116	1407.9557	1485.3024	1499.474	1595.9705	1670.8173	1795.0174	3017.8194	3050.8989	3099.3681	3193.4642	3206.1748	3248.2642	3576.1153	3717.3455
NC(=O)C12CN1CC=C2	NC(=O)[C@]12CN1CC=C2	
InChI=1S/C6H8N2O/c7-5(9)6-2-1-3-8(6)4-6/h1-2H,3-4H2,(H2,7,9)	InChI=1S/C6H8N2O/c7-5(9)6-2-1-3-8(6)4-6/h1-2H,3-4H2,(H2,7,9)/t6-,8?/m0/s1
