18
gdb 54859	2.97548	1.40157	1.2591	6.8305	71.75	-0.2359	0.0293	0.2652	1052.1085	0.151089	-439.114119	-439.106834	-439.10589	-439.146058	28.558	
O	 0.2832005646	 0.3404962548	-0.8277612234	-0.348417
C	 0.0972422398	 1.0794789286	 0.1085301993	 0.391337
O	 1.0208831047	 1.255118184	 1.0536022443	-0.398484
C	-1.2218426338	 1.8239220052	 0.2072860139	-0.158205
C	-2.0800895697	 2.112664738	 1.4324287187	-0.062114
C	-1.4511597786	 2.1541738936	 2.812945669	-0.195997
N	-0.2377098766	 2.9727562372	 2.6139746592	-0.339402
H	 0.1156301707	 3.3801763651	 3.4707325027	 0.241905
H	 0.694532828	 1.8993565775	 1.7481987786	 0.32777
C	-0.5184454077	 3.9726670746	 1.5635018409	-0.195974
C	-1.4928802462	 3.2575075748	 0.6458265531	-0.06212
H	-1.8190447499	 1.5398899813	-0.6519893116	 0.121013
H	-3.1297831114	 1.8517538472	 1.3734694584	 0.103284
H	-2.1635291662	 2.6120141181	 3.5155796736	 0.1075
H	-1.1702256325	 1.1712127067	 3.2059710327	 0.128561
H	-1.0001168235	 4.8803612267	 1.9570220561	 0.107498
H	 0.4180647652	 4.2678927879	 1.0783294753	 0.128564
H	-2.0939991667	 3.8712046086	-0.0140533008	 0.103281
93.5549	145.2734	233.0509	310.285	365.3326	378.3631	475.7023	605.1911	636.184	719.2956	763.6141	786.4176	809.0825	849.6952	900.0518	920.0222	981.9402	1002.0983	1003.5676	1032.5486	1054.825	1091.3587	1094.5137	1115.6443	1133.3517	1167.1012	1215.2681	1252.1467	1280.1233	1315.7293	1331.6695	1358.5167	1369.6594	1425.6568	1438.049	1512.4051	1522.4624	1531.6336	1831.769	2987.2245	2991.7626	3041.0396	3065.651	3068.1738	3175.6875	3181.8722	3193.2151	3562.5856
[O-]C(=O)C1C2C[NH2+]CC12	O=C(O)[C@H]1[C@H]2CNC[C@@H]12	
InChI=1S/C6H9NO2/c8-6(9)5-3-1-7-2-4(3)5/h3-5,7H,1-2H2,(H,8,9)	InChI=1S/C6H9NO2/c8-6(9)5-3-1-7-2-4(3)5/h3-5,7H,1-2H2,(H,8,9)/t3-,4+,5-
