17
gdb 29764	3.11627	1.23251	0.88916	2.6716	88.36	-0.1817	0.0203	0.2019	1279.4993	0.135616	-380.872936	-380.863579	-380.862635	-380.907676	34.417	
C	-0.0162412983	 1.4719755563	-0.010884419	-0.333063
N	 0.0033556506	 0.0264231817	-0.0016911551	 0.022661
C	 0.004907823	-0.7707619898	-1.1360457693	-0.163674
C	 0.0025310181	-2.0874608022	-0.7351641992	 0.117688
N	-0.0585995291	-3.2370824912	-1.5295902206	-0.622114
C	-0.0006825131	-2.090138913	 0.702540784	 0.115387
C	-0.0050989287	-0.7605080974	 1.1039407303	-0.220801
C	 0.0137740351	-3.242181178	 1.5158196099	 0.220698
C	 0.0383573491	-4.2587996659	 2.1657617758	-0.45659
H	 0.8379534738	 1.8693571894	-0.5694338639	 0.138827
H	-0.9373138304	 1.8527387748	-0.4661110052	 0.140295
H	 0.0408302119	 1.8367555796	 1.016040771	 0.142301
H	-0.0000363964	-0.3311459854	-2.1200541836	 0.107834
H	 0.4547115577	-3.1591229384	-2.3971600483	 0.239497
H	 0.2419105272	-4.0596847711	-1.0214997503	 0.247066
H	-0.0053936196	-0.3377619502	 2.0954439782	 0.125707
H	 0.0439298391	-5.1419450793	 2.7540560753	 0.178281
26.7558	126.7978	138.0729	182.1251	222.5423	281.7908	314.4656	396.0466	459.2634	500.7317	526.3998	583.7112	600.5177	616.7345	623.5916	660.9119	691.0303	740.8649	764.0056	814.6593	1027.2466	1085.4708	1112.8584	1149.9219	1187.4837	1206.7518	1255.4586	1379.3448	1417.2046	1450.6522	1469.0993	1479.8459	1525.8317	1571.1569	1620.982	1651.7641	2217.7816	3029.4329	3084.0374	3137.737	3261.5503	3266.8198	3505.029	3535.1317	3629.095
CN1C=C(N)C(=C1)C#C	Cn1cc(N)c(c1)C#C	
InChI=1S/C7H8N2/c1-3-6-4-9(2)5-7(6)8/h1,4-5H,8H2,2H3	InChI=1S/C7H8N2/c1-3-6-4-9(2)5-7(6)8/h1,4-5H,8H2,2H3
