21
gdb 121750	4.19216	0.62381	0.56327	3.8145	78.98	-0.2329	0.0658	0.2987	2005.444	0.181428	-457.580953	-457.569774	-457.56883	-457.619376	38.482	
C	 0.222285756	 1.3797599955	 0.2646023437	-0.372899
C	-0.3565208779	 0.139939764	-0.4160923213	-0.129639
N	 0.5824631557	-0.460414815	-1.3494377082	-0.371468
C	 0.7715356768	-1.827019109	-1.3953604195	 0.511143
O	 0.2988627334	-2.597531785	-0.5743652471	-0.41729
N	 1.541001613	-2.2491058156	-2.4601940602	-0.377946
C	 2.0278084936	-3.614591734	-2.5121510126	-0.119075
C	 2.3408585699	-3.9978742512	-3.9477714076	-0.089161
O	 3.3322608914	-3.0884610498	-4.4188137602	-0.426944
H	 1.1294336597	 1.1284543272	 0.8217149188	 0.126365
H	 0.4785355733	 2.1559126827	-0.4658432469	 0.106396
H	-0.5057644083	 1.8086813272	 0.960480331	 0.116421
H	-0.5880269147	-0.6371937854	 0.3148203016	 0.150679
H	-1.2984521101	 0.3968863658	-0.9230209804	 0.095836
H	 0.8144003427	 0.0724981316	-2.172837758	 0.229619
H	 2.1254606859	-1.5794053163	-2.936853553	 0.24023
H	 2.9327008799	-3.7484980518	-1.900565766	 0.107668
H	 1.2538398782	-4.2640130541	-2.0989482041	 0.139807
H	 2.7042428203	-5.0359588596	-3.9788803553	 0.092659
H	 1.4259039423	-3.9326031188	-4.5546168199	 0.096182
H	 3.4673413689	-3.2433974383	-5.3577662949	 0.291415
29.601	32.8072	86.478	98.9822	122.898	187.7081	245.2753	263.8469	297.9744	315.5727	368.935	381.5138	475.1746	510.6189	553.1474	731.6789	766.695	804.8974	874.0722	898.0343	930.8625	1015.6453	1079.8437	1096.7435	1108.558	1119.2647	1163.746	1187.955	1210.5543	1242.0128	1265.7254	1300.5562	1307.4694	1385.1601	1396.9085	1412.3438	1456.983	1489.8372	1495.0943	1498.034	1505.4632	1511.5836	1513.0666	1554.5474	1776.9292	2985.0912	2993.3356	2993.9836	3027.1921	3031.4058	3092.1	3115.808	3123.222	3126.1408	3617.3498	3624.1961	3836.9997
CCNC(=O)NCCO	CCNC(=O)NCCO	
InChI=1S/C5H12N2O2/c1-2-6-5(9)7-3-4-8/h8H,2-4H2,1H3,(H2,6,7,9)	InChI=1S/C5H12N2O2/c1-2-6-5(9)7-3-4-8/h8H,2-4H2,1H3,(H2,6,7,9)
