15
gdb 44166	3.08824	1.16396	0.99086	5.528	69.53	-0.2628	-0.0103	0.2525	1171.578	0.113291	-416.808925	-416.801167	-416.800223	-416.842072	28.635	
O	 0.2550010357	 0.0780899692	 0.2791486723	-0.327707
C	 0.1712332919	 1.2568760728	 0.0967398584	 0.412335
N	-0.9418647091	 2.111275258	-0.0240402884	-0.338817
C	-0.1034672954	 3.3055698777	-0.1268117502	-0.042746
C	 0.8485052148	 3.4575953493	 1.0220430115	-0.017126
C	 0.5135061963	 3.1104986612	 2.466733997	-0.380118
C	 1.716835148	 2.8927437728	 3.269687283	 0.270271
N	 2.6763543884	 2.7416160863	 3.8948689653	-0.298122
C	 1.1403588203	 2.4268017044	-0.0700689839	-0.228112
H	-1.7846846543	 2.03373738	 0.5335680927	 0.247545
H	-0.3441055756	 4.0882342335	-0.8340670122	 0.125138
H	 1.4945730281	 4.3286896489	 0.9321438802	 0.125935
H	-0.0597474028	 3.9277075157	 2.9208389812	 0.157632
H	-0.1106721072	 2.2132840549	 2.5219832239	 0.163719
H	 2.040326961	 2.4525051353	-0.6668455208	 0.130171
48.3697	125.7776	145.5225	247.4286	361.7573	386.1637	456.5644	518.2081	541.4779	607.9951	711.3731	764.6454	802.1546	844.8409	870.5131	915.8944	952.1554	988.6598	1006.6898	1048.9859	1062.9433	1086.8809	1133.3694	1175.6919	1245.6905	1269.1303	1312.2758	1323.1252	1338.8487	1431.6966	1464.4013	1904.7359	2366.4377	3043.7152	3091.4246	3141.126	3206.2565	3233.7291	3552.5221
O=C1NC2C(CC#N)C12	O=C1N[C@H]2[C@@H](CC#N)[C@@H]12	
InChI=1S/C6H6N2O/c7-2-1-3-4-5(3)8-6(4)9/h3-5H,1H2,(H,8,9)	InChI=1S/C6H6N2O/c7-2-1-3-4-5(3)8-6(4)9/h3-5H,1H2,(H,8,9)/t3-,4+,5-/m0/s1
