19
gdb 74858	2.26701	1.73722	1.12419	0.5601	86.68	-0.2238	0.0199	0.2436	1123.2349	0.158798	-348.723663	-348.715196	-348.714252	-348.756434	33.192	
C	 0.0791427261	 1.4703794022	 0.0310221943	-0.491145
C	 0.005444975	-0.020548953	-0.0255463869	 0.310242
C	-0.1254320259	-0.8012700757	-1.1018898201	-0.185288
C	-0.0796309069	-2.253926257	-0.773876929	-0.076518
C	 1.2279406505	-2.7363687693	-0.1734700421	-0.279077
C	 0.1017211632	-2.3157295516	 0.7307220222	-0.044459
C	 0.0825354348	-0.8696076276	 1.2546425553	-0.275418
C	 1.2154241551	-0.5292745082	 2.1131711525	 0.349882
C	 2.1510126581	-0.2389293276	 2.8107676411	-0.48924
H	 1.0205897535	 1.8012900368	 0.4847247573	 0.13989
H	 0.0018829197	 1.9110823841	-0.9663510414	 0.121631
H	-0.7268808997	 1.8842016214	 0.6514245108	 0.12259
H	-0.2186633257	-0.4315773986	-2.1177078143	 0.091213
H	-0.7076947902	-2.9567200485	-1.3102400813	 0.086267
H	 1.4417019034	-3.7994102279	-0.2167757244	 0.108952
H	 2.0964305118	-2.0926267323	-0.2642506271	 0.120357
H	-0.3856657326	-3.0750337971	 1.3294571941	 0.091112
H	-0.8373857587	-0.7092075066	 1.8385100909	 0.105798
H	 2.9754500783	 0.0077949862	 3.432646098	 0.193211
98.3764	135.1161	176.928	192.6664	309.0479	330.5298	392.2826	454.8611	496.332	564.2627	620.1438	628.9849	637.5095	693.5026	788.5525	815.2635	833.8155	873.6187	932.7478	937.052	991.4456	1022.4338	1036.8431	1062.7924	1065.0563	1069.2911	1092.4462	1104.0415	1185.1771	1212.1953	1262.3421	1289.0799	1306.2043	1350.6127	1374.5917	1414.1256	1475.507	1479.3391	1490.2638	1712.7553	2230.9958	2977.4695	3018.2079	3069.3486	3114.3171	3126.8427	3166.0489	3184.2198	3187.6821	3217.1217	3503.9327
CC1=CC2CC2C1C#C	CC1=C[C@H]2C[C@H]2[C@H]1C#C	
InChI=1S/C9H10/c1-3-8-6(2)4-7-5-9(7)8/h1,4,7-9H,5H2,2H3	InChI=1S/C9H10/c1-3-8-6(2)4-7-5-9(7)8/h1,4,7-9H,5H2,2H3/t7-,8-,9+/m0/s1
