21
gdb 53701	10.17162	0.40654	0.39568	0.8247	95.25	-0.243	0.0558	0.2988	2697.2984	0.178901	-349.907567	-349.896058	-349.895114	-349.947461	39.085	
C	 0.0137609133	 1.5220864579	 0.0101576944	-0.497008
C	 0.0241206795	 0.0658094722	 0.0022077631	 0.109887
C	 0.0444378561	-1.138209477	-0.0045598209	 0.023666
C	 0.0308295201	-2.5971844318	-0.0123797529	-0.363283
C	-1.3929641676	-3.1896995206	-0.001692313	-0.168828
C	-1.3903897029	-4.7199695631	-0.0100598301	-0.17254
C	-2.8151267357	-5.3103845173	 0.0006946723	-0.361609
C	-2.8288322677	-6.7681431457	-0.0070462602	 0.292102
C	-2.8105387726	-7.9700712076	-0.0139771922	-0.436002
H	 1.0316517144	 1.9277911357	 0.0025055138	 0.146357
H	-0.5071891342	 1.9233068468	-0.8664205836	 0.145158
H	-0.4901061446	 1.9137958454	 0.9009082586	 0.145156
H	 0.5686628756	-2.9675455359	-0.8957253309	 0.124882
H	 0.5857773574	-2.9770919373	 0.8562008949	 0.124882
H	-1.9249274606	-2.8200024483	 0.8832657255	 0.107243
H	-1.9420824226	-2.810433845	-0.8720007044	 0.107242
H	-0.8593188007	-5.0904527808	-0.8950366383	 0.109849
H	-0.8421147469	-5.1000217036	 0.8602466178	 0.109849
H	-3.3542908273	-4.944637894	 0.8845613554	 0.130084
H	-3.3714696538	-4.9351089803	-0.8684135623	 0.130093
H	-2.8071406092	-9.0316602396	-0.0202178369	 0.192818
9.9823	36.6229	56.8127	95.5072	115.4695	121.7693	220.3987	233.4544	301.5671	346.267	349.2908	387.4371	488.6989	544.7441	615.9118	635.3353	732.2616	769.8231	775.9507	902.8724	942.7147	1015.0622	1053.2238	1054.0524	1055.2084	1056.2866	1103.3293	1159.822	1168.4086	1243.7058	1272.219	1318.6348	1320.0324	1322.7461	1370.8403	1392.9042	1415.6504	1471.1669	1475.8264	1479.272	1479.9679	1487.5286	1506.7635	2238.8582	2374.0121	3007.4944	3014.1735	3024.9753	3027.0254	3033.0626	3037.5953	3040.9031	3061.8139	3084.3771	3084.8341	3086.2337	3507.7245
CC#CCCCCC#C	CC#CCCCCC#C	
InChI=1S/C9H12/c1-3-5-7-9-8-6-4-2/h1H,5,7-9H2,2H3	InChI=1S/C9H12/c1-3-5-7-9-8-6-4-2/h1H,5,7-9H2,2H3
