19
gdb 106347	4.99126	0.93423	0.90777	3.4141	78.34	-0.2507	-0.0277	0.223	1325.4764	0.15784	-422.97825	-422.969452	-422.968508	-423.012272	32.387	
C	-0.0093885428	 1.3472783647	 0.0175366518	-0.266065
O	 0.046477422	-0.066581492	 0.0726243922	-0.283488
C	 0.6995701858	-0.5690655567	 1.1689650982	 0.445586
C	 0.3276807558	-0.4061102955	 2.6829920442	-0.337194
C	 1.5623976112	-1.3671015429	 2.6127280005	 0.245391
C	 0.87625311	-2.0833833491	 1.4189332306	-0.317872
C	 2.197183315	-0.3689032876	 1.5864722662	-0.33741
C	 2.2553586408	-1.980605712	 3.774438278	 0.038896
O	 2.3775536202	-3.1671338466	 3.9509886447	-0.248383
H	 0.9949302493	 1.7912307996	-0.0240165057	 0.115344
H	-0.5506675699	 1.6082920135	-0.8938529185	 0.134485
H	-0.5430850069	 1.7658965284	 0.8820720156	 0.115279
H	 0.4975784655	 0.5706888621	 3.1421105512	 0.098497
H	-0.6108966635	-0.8588072839	 3.0110953741	 0.108304
H	-0.0278909527	-2.6506163402	 1.6480277862	 0.106181
H	 1.5336661014	-2.6196554409	 0.7319376559	 0.106098
H	 2.9545434101	-0.7877421179	 0.9197491306	 0.108218
H	 2.4859397204	 0.6103138969	 1.9757703698	 0.098484
H	 2.6696920882	-1.2439796099	 4.5018118845	 0.069648
61.8869	87.6219	131.438	180.06	230.8518	249.581	410.9116	430.4877	450.1889	548.2382	555.972	625.9408	716.6409	752.8545	849.4947	931.8335	953.5505	960.5048	987.6966	1037.5915	1065.5386	1073.4662	1117.7675	1122.4453	1135.8474	1152.0522	1168.1429	1168.9146	1174.4201	1180.6537	1236.3995	1294.7282	1348.6358	1422.5579	1484.7117	1489.8402	1491.3623	1496.6771	1505.1711	1560.4312	1817.622	2858.8536	2995.6485	3048.8139	3056.3445	3060.6534	3072.9939	3127.8046	3127.8913	3132.6676	3141.2169
COC12CC(C1)(C2)C=O	CO[C@@]12C[C@@](C1)(C2)C=O	
InChI=1S/C7H10O2/c1-9-7-2-6(3-7,4-7)5-8/h5H,2-4H2,1H3	InChI=1S/C7H10O2/c1-9-7-2-6(3-7,4-7)5-8/h5H,2-4H2,1H3/t6-,7+
