15
gdb 29566	2.38705	1.80401	1.02749	6.987	75.23	-0.1718	0.0024	0.1741	1074.6712	0.113464	-453.964075	-453.95567	-453.954726	-453.996777	31.783	
O	-0.1276916059	 1.3023371344	 0.2140119822	-0.443617
C	-0.0073668854	-0.049830845	 0.048909485	 0.249785
C	 1.186050066	-0.6914139827	 0.0026940953	-0.120831
N	 1.2429257781	-2.0531896586	-0.1652183623	-0.341614
C	 0.0854466824	-2.7873775001	-0.2896133583	-0.125691
C	-1.1357057115	-2.1945089363	-0.2503805564	 0.290605
O	-2.3006138835	-2.8862127141	-0.3695877259	-0.415139
C	-1.2881539432	-0.7496240253	-0.0746180722	 0.186334
N	-2.4539084487	-0.2005414971	-0.0391436182	-0.560837
H	 0.7448139561	 1.7010470564	 0.2887075262	 0.295217
H	 2.1372189644	-0.1797005123	 0.0933314425	 0.107974
H	 2.1325832454	-2.515591024	-0.1985552148	 0.262911
H	 0.2118536835	-3.8556983651	-0.4190990271	 0.10726
H	-2.1041976281	-3.8222808107	-0.4819882428	 0.290344
H	-2.3432183998	 0.8062216906	 0.0895495566	 0.217298
102.9293	126.0898	252.9871	266.7346	320.7955	328.2672	339.5672	359.9943	468.7896	504.077	521.8584	533.7467	569.5728	703.9052	758.3264	784.6512	805.3645	868.0187	874.4448	979.0907	1086.7812	1178.1125	1199.2905	1256.3552	1259.1121	1336.6651	1351.11	1443.3578	1465.0169	1557.0852	1635.7381	1670.2566	1695.1968	3190.2127	3196.3018	3470.3615	3697.1819	3816.4371	3831.3672
OC1=CNC=C(O)C1=N	OC1=CNCC(=C1[NH])O	
InChI=1S/C5H6N2O2/c6-5-3(8)1-7-2-4(5)9/h1-2,8-9H,(H2,6,7)	InChI=1S/C5H7N2O2/c6-5-3(8)1-7-2-4(5)9/h1,6-9H,2H2
