25
gdb 104730	1.92686	1.36727	1.02557	1.3196	89.27	-0.2437	0.0711	0.3147	1355.4871	0.225998	-389.488937	-389.47767	-389.476726	-389.524868	42.368	
C	 0.9604935915	 1.538116445	 0.2313177647	-0.381016
C	 0.1743872017	 0.2406450603	-0.0011047594	-0.253866
C	 0.5190434877	-0.4635630887	-1.3111729848	 0.320273
C	 0.267176421	 0.3469168831	-2.5810917401	-0.235777
C	-1.2096160417	 0.6849875953	-2.821930513	-0.387045
C	 1.7427288831	-1.3747004076	-1.3136250916	-0.410408
C	 0.3527188676	-1.9655322102	-1.4135831442	 0.354444
C	-0.211436917	-2.8238017937	-0.301196338	-0.44799
O	-0.0643561156	-2.4109590805	-2.6857612988	-0.462842
H	 2.0396056915	 1.3595338104	 0.1720900576	 0.116536
H	 0.7103139426	 2.307408907	-0.5050855825	 0.120598
H	 0.742024947	 1.9494652134	 1.2218090447	 0.108125
H	 0.3705579041	-0.4326412518	 0.8387907512	 0.09067
H	-0.9009694981	 0.4554325859	 0.0338767398	 0.099304
H	 0.8578410977	 1.2701882323	-2.537061222	 0.087855
H	 0.6395968823	-0.2187672873	-3.4375541503	 0.105581
H	-1.8041955399	-0.2297673347	-2.9023902313	 0.130664
H	-1.6312787452	 1.2946075372	-2.0158672581	 0.109349
H	-1.330060525	 1.248174546	-3.7530114858	 0.105787
H	 2.3550857094	-1.3924584166	-2.2095395804	 0.104117
H	 2.2932341116	-1.5027088376	-0.3859283683	 0.099986
H	 0.1266782341	-2.5099499886	 0.6882138799	 0.119194
H	-1.3061376119	-2.8083546323	-0.3174440147	 0.124523
H	 0.1092466606	-3.8648112691	-0.4366669389	 0.103329
H	 0.3434937909	-3.2698835976	-2.8417334858	 0.278606
52.8968	97.4	126.7128	173.5562	198.1779	225.7574	233.4641	267.1707	290.5679	319.1034	345.0167	407.2956	408.5349	423.3293	475.9135	562.9351	671.5038	717.0201	788.7235	792.2618	888.2166	894.0132	919.9801	957.2424	988.5357	996.8903	1043.207	1048.717	1062.1087	1077.837	1090.9564	1131.7758	1188.577	1216.609	1277.2118	1284.5094	1313.9746	1327.0046	1361.5867	1368.3702	1404.6171	1407.4799	1410.5117	1423.1593	1472.5737	1481.791	1485.4981	1490.9322	1499.9735	1501.728	1505.136	1507.6113	1514.1661	3022.542	3029.7564	3032.0084	3037.2285	3037.4089	3071.154	3084.2891	3090.0204	3101.6261	3106.067	3110.0203	3115.3895	3118.0545	3128.5824	3204.4323	3793.3326
CCC1(CC)CC1(C)O	CCC1(CC)C[C@]1(C)O	
InChI=1S/C8H16O/c1-4-8(5-2)6-7(8,3)9/h9H,4-6H2,1-3H3	InChI=1S/C8H16O/c1-4-8(5-2)6-7(8,3)9/h9H,4-6H2,1-3H3/t7-/m0/s1
