23
gdb 100919	2.58827	0.95707	0.85183	2.8582	82.56	-0.2545	-0.0382	0.2163	1527.4086	0.203092	-425.446547	-425.435504	-425.43456	-425.483063	39.535	
C	 0.0145506631	 1.57043912	 0.0934852958	-0.380397
C	 0.0178105931	 0.0413921373	 0.1603282234	-0.206174
C	-1.3841085879	-0.5560587035	-0.0460230259	 0.133867
O	-1.9526477789	-0.1685452921	-1.2877682764	-0.443555
C	-1.4172071611	-2.0938686325	 0.1311639872	-0.101409
C	-2.8779616781	-2.6201888541	 0.1375239256	-0.179161
C	-3.0325448025	-4.1277256051	 0.3625939084	-0.404592
C	-0.6225533916	-2.8164163739	-0.9376489902	 0.159974
O	-0.3996466964	-2.3832899256	-2.0470763637	-0.267726
H	 1.0268082232	 1.9736033682	 0.1918801649	 0.107436
H	-0.4031462753	 1.9083822185	-0.8580674374	 0.133893
H	-0.5962893849	 1.9995197101	 0.8958714192	 0.109926
H	 0.6960753817	-0.3612997775	-0.6017956768	 0.105486
H	 0.404388151	-0.2914329757	 1.1328793763	 0.086354
H	-2.0489783318	-0.1301504715	 0.7184904532	 0.07851
H	-1.4415523531	-0.6333446152	-1.9661580101	 0.290694
H	-0.9621284873	-2.3553679743	 1.0974145848	 0.082831
H	-3.4079114081	-2.0787830469	 0.9299764365	 0.106381
H	-3.3464220096	-2.3204580914	-0.8048511198	 0.129116
H	-4.0906974505	-4.393533852	 0.4438756143	 0.1241
H	-2.6137470733	-4.7161674955	-0.4602278184	 0.122669
H	-2.539161346	-4.4497090755	 1.2867334024	 0.115943
H	-0.2482041858	-3.8254416318	-0.6593896232	 0.095834
70.6942	82.197	97.4371	105.0909	149.7018	219.472	234.6168	253.8268	270.9623	306.9652	321.5861	415.5276	477.571	501.2036	595.6815	739.9374	777.6794	811.3735	851.7171	866.0629	934.8648	962.8765	984.7539	1018.274	1039.9497	1075.0666	1078.4734	1123.4601	1156.3803	1165.5702	1259.4544	1264.1706	1295.0969	1299.0611	1343.84	1351.8466	1392.7873	1395.1189	1408.7939	1419.1851	1432.2	1457.0127	1485.7048	1491.6987	1496.0057	1502.8497	1507.2965	1509.544	1797.4899	2893.8048	3005.0869	3011.1255	3020.1694	3032.2817	3036.2555	3038.2743	3062.0302	3082.5036	3101.267	3105.1923	3106.6979	3126.2268	3728.2266
CCC(O)C(CC)C=O	CC[C@@H](O)[C@@H](CC)C=O	
InChI=1S/C7H14O2/c1-3-6(5-8)7(9)4-2/h5-7,9H,3-4H2,1-2H3	InChI=1S/C7H14O2/c1-3-6(5-8)7(9)4-2/h5-7,9H,3-4H2,1-2H3/t6-,7+/m0/s1
