17
gdb 66126	2.74333	1.44246	1.32688	2.0104	73.36	-0.235	0.0264	0.2614	1033.9198	0.134752	-421.766671	-421.75844	-421.757496	-421.799166	32.187	
O	 0.1216003758	 1.3456386015	 0.2054526171	-0.453852
C	 0.0473251874	-0.0658366039	 0.0178762259	 0.16077
C	 0.6370637551	-0.7017037342	 1.3182696012	-0.130978
O	-0.1105134185	-1.8684545946	 1.607674909	-0.250143
C	-1.3774571182	-1.7362350478	 1.017532528	 0.131675
C	-2.1734318648	-0.4841848927	 1.2636880694	-0.351186
C	-1.3693388802	-0.6461217063	-0.0147562882	-0.116986
C	 0.778224595	-0.4650937476	-1.1878937039	 0.309271
C	 1.3601041495	-0.7667994639	-2.1958705553	-0.476465
H	-0.0971716962	 1.7654392131	-0.6334163941	 0.284579
H	 1.6875471905	-0.979257196	 1.2176061266	 0.126729
H	 0.5420390658	 0.0514842208	 2.110971023	 0.116362
H	-1.8639942061	-2.6946416795	 0.8837225198	 0.104984
H	-3.2517458594	-0.5568967663	 1.1739526424	 0.115461
H	-1.830439374	 0.233262117	 2.0004103745	 0.132034
H	-1.864368604	-0.7413488691	-0.9729017524	 0.096508
H	 1.8859296822	-1.0402751004	-3.077349743	 0.201238
96.4711	145.2266	191.6363	253.8755	297.4062	356.0823	402.4794	477.8018	488.9427	529.1163	630.3915	641.7812	662.6816	701.5226	741.2407	803.5923	836.426	923.8048	958.9304	962.2177	995.4156	1042.2008	1065.3696	1067.3488	1103.464	1130.8302	1158.0143	1179.8762	1202.3115	1247.4555	1308.1016	1338.5474	1388.2566	1396.5915	1477.0361	1515.3632	2230.5984	3023.4089	3116.7652	3138.7129	3185.8967	3194.2207	3226.8702	3499.9919	3814.8632
OC1(COC2CC12)C#C	O[C@]1(CO[C@H]2C[C@@H]12)C#C	
InChI=1S/C7H8O2/c1-2-7(8)4-9-6-3-5(6)7/h1,5-6,8H,3-4H2	InChI=1S/C7H8O2/c1-2-7(8)4-9-6-3-5(6)7/h1,5-6,8H,3-4H2/t5-,6+,7+/m1/s1
