15
gdb 32386	6.55824	0.89579	0.79453	1.7669	81.94	-0.2006	-0.0313	0.1692	1387.7797	0.112223	-416.79794	-416.789489	-416.788545	-416.83113	30.877	
C	 0.0210497539	 1.3986901684	 0.1632446036	-0.332567
N	-0.0228280036	-0.0108170846	-0.1727916073	-0.389619
C	-1.2225715931	-0.6763690543	-0.0632324195	 0.301724
C	-2.5019874577	-0.1976835836	 0.0060398266	-0.133203
O	-3.3459974701	-1.2802154509	 0.045818988	-0.171079
C	-2.5266630947	-2.3554017678	 0.0124132027	 0.237713
N	-1.2573503816	-2.0564380202	-0.0512140497	-0.374405
C	-3.1125906516	-3.6378228705	 0.0508843711	 0.256046
C	-3.6164049569	-4.7295835257	 0.0839152731	-0.366595
H	 1.0458608405	 1.7607340945	 0.0604650076	 0.131768
H	-0.602539842	 1.9662542363	-0.5368156823	 0.134311
H	-0.3309167043	 1.6166098066	 1.1842378764	 0.115803
H	 0.7542543902	-0.5647626081	 0.1554674328	 0.249142
H	-2.9608085377	 0.7734859922	 0.0246550321	 0.139348
H	-4.0562564614	-5.6961090525	 0.1114898049	 0.201614
79.7957	128.4141	161.5996	179.8309	216.9027	341.9517	411.1285	452.0198	510.5482	556.1213	593.8285	638.6873	652.6728	690.6139	706.2088	733.6758	753.7349	984.352	1001.9564	1102.2613	1131.6099	1157.0093	1172.0069	1242.3365	1310.0364	1346.0442	1459.9415	1480.2058	1492.9277	1521.1547	1566.2014	1654.2927	2242.5455	2977.7134	3060.4982	3126.6215	3310.2515	3500.8428	3611.5642
CNC1=COC(=N1)C#C	CNc1coc(n1)C#C	
InChI=1S/C6H6N2O/c1-3-6-8-5(7-2)4-9-6/h1,4,7H,2H3	InChI=1S/C6H6N2O/c1-3-6-8-5(7-2)4-9-6/h1,4,7H,2H3
