19
gdb 41430	3.71093	1.81597	1.4644	1.7649	77.55	-0.2346	0.0944	0.329	917.9975	0.163332	-385.855202	-385.849128	-385.848184	-385.885251	26.448	
C	-0.0396883339	 1.558589355	-0.0295378888	-0.225351
C	 1.4941971298	 1.8789378854	-0.0197415836	-0.345271
C	 2.0208001045	 0.4568139575	 0.0365340986	 0.327385
C	 3.3995947998	-0.166000417	 0.0767791173	-0.185748
O	 3.0450190175	-1.566951239	 0.1203669351	-0.292312
C	 1.6152213395	-1.5400041603	 0.1000093671	 0.121426
C	 1.113185041	-0.3964363287	 1.0020919265	-0.111259
C	-0.014022362	 0.0173068389	 0.0240727368	-0.055547
C	 1.1389197826	-0.4618792521	-0.8921190524	-0.111258
H	-0.5594288213	 1.99192972	 0.8310087107	 0.099615
H	-0.5354347335	 1.9309894804	-0.9317637782	 0.099616
H	 1.8174385605	 2.4153000285	-0.9176035476	 0.101617
H	 1.7934258868	 2.4762285295	 0.8474578055	 0.101617
H	 4.0057342401	 0.0381798058	-0.8145190496	 0.100813
H	 3.9815329835	 0.0997623245	 0.9679713628	 0.100813
H	 1.2261940022	-2.5567231611	 0.129849311	 0.07954
H	 1.1168116844	-0.3418309463	 2.0929258073	 0.066425
H	-0.970881309	-0.5077244859	 0.0292113589	 0.061453
H	 1.1721859174	-0.4826558452	-1.9836206872	 0.066425
230.5567	287.2764	357.3692	395.2372	447.7442	626.9936	711.6416	736.9457	739.0025	764.9077	825.4719	832.4624	895.5628	905.7963	934.5865	938.0539	963.5424	975.3374	1002.8758	1021.0086	1045.214	1052.9327	1076.9349	1123.4708	1151.6334	1158.4957	1179.7474	1195.0289	1198.4946	1228.0728	1249.6018	1253.3477	1265.9043	1269.6679	1301.4312	1339.7152	1349.3211	1387.638	1490.4811	1510.901	1523.6807	3017.0827	3041.3145	3051.26	3054.3655	3075.2899	3087.6292	3087.9602	3094.8263	3102.6084	3137.9136
C1CC23COC4C2C1C34	C1C[C@@]23CO[C@H]4[C@@H]2[C@@H]1[C@@H]34	
InChI=1S/C8H10O/c1-2-8-3-9-7-5(8)4(1)6(7)8/h4-7H,1-3H2	InChI=1S/C8H10O/c1-2-8-3-9-7-5(8)4(1)6(7)8/h4-7H,1-3H2/t4-,5+,6-,7+,8-
