19
gdb 112462	2.48543	1.3687	0.94989	4.1106	78.4	-0.2596	0.0045	0.2641	1262.0709	0.159056	-423.078073	-423.069197	-423.068253	-423.112939	32.437	
C	 0.1189571546	 1.5210138706	 0.0511678612	-0.388996
C	 0.2251769921	-0.005531324	 0.0497745318	-0.173442
C	 0.5744001785	-0.5902894367	-1.328429407	 0.085129
O	 1.8193106921	-0.005651276	-1.7644658632	-0.243239
C	 2.9680885151	-0.6822855525	-1.9861853914	 0.409497
O	 3.9524004516	-0.0688664613	-2.2980292504	-0.326502
C	 2.9737915076	-2.1965482922	-1.8430185538	-0.404622
C	 1.6437648045	-2.8204526029	-1.5588222424	-0.077882
C	 0.563466035	-2.0855913259	-1.3314551302	-0.07624
H	 1.0583309637	 1.9762130737	-0.2711387773	 0.145987
H	-0.6703963048	 1.8619158802	-0.6280512517	 0.114849
H	-0.1182193311	 1.8927916377	 1.052104778	 0.115051
H	 0.986074515	-0.3400780087	 0.7650636424	 0.107151
H	-0.724316307	-0.4518460621	 0.3702407792	 0.100672
H	-0.1683043188	-0.2234196556	-2.0521631431	 0.103741
H	 3.4175828047	-2.5952051203	-2.7633210894	 0.150317
H	 3.7012363405	-2.4355859468	-1.0557287415	 0.150859
H	 1.5918086617	-3.905472617	-1.5446934165	 0.103624
H	-0.3986594451	-2.54398498	-1.1221746548	 0.104046
32.3431	74.3994	104.2101	190.2505	229.3072	312.2368	404.5732	459.9187	463.9644	537.0464	553.6736	574.2415	702.9968	731.8154	814.6856	887.5681	904.4151	971.3574	973.0211	984.4591	1007.1858	1037.6774	1074.2571	1123.3057	1145.3663	1181.7105	1212.5422	1236.7965	1289.0431	1315.1285	1351.3237	1376.9166	1403.1225	1413.3037	1418.8191	1449.4362	1475.7795	1496.7788	1508.8082	1751.6522	1840.0994	2996.9589	3029.3817	3030.0835	3039.4301	3057.8418	3069.0888	3105.6929	3130.772	3160.0481	3182.5691
CCC1OC(=O)CC=C1	CC[C@H]1OC(=O)CC=C1	
InChI=1S/C7H10O2/c1-2-6-4-3-5-7(8)9-6/h3-4,6H,2,5H2,1H3	InChI=1S/C7H10O2/c1-2-6-4-3-5-7(8)9-6/h3-4,6H,2,5H2,1H3/t6-/m1/s1
