19
gdb 122280	2.51612	1.10019	0.84486	2.76	73.61	-0.249	-0.0267	0.2222	1380.4728	0.156588	-460.142577	-460.132921	-460.131977	-460.178349	34.766	
O	-0.0669928734	 1.4742059291	-0.4168737611	-0.422842
C	-0.0326692271	 0.1378466207	 0.0472012215	-0.065141
C	-1.4248694974	-0.464255621	 0.1300539325	-0.097814
O	-1.9593115038	-0.4168137116	-1.1996729183	-0.305683
C	-3.3120844546	-0.6885280463	-1.3098809567	 0.343755
C	-4.3114472404	 0.4195204508	-0.9690553108	-0.323214
C	-4.0433124249	 0.070885051	-2.3982612193	-0.311906
C	-3.7534777593	-2.0847627906	-1.0549773568	 0.119804
O	-3.032804541	-2.9835574785	-0.7006764169	-0.273022
H	-0.5591328307	 1.4487864191	-1.2452238949	 0.285457
H	 0.5965308427	-0.4965801746	-0.596213087	 0.100339
H	 0.4166241815	 0.1537542205	 1.0453581328	 0.111587
H	-1.392998559	-1.4978892419	 0.4898621487	 0.126932
H	-2.0549383925	 0.1352847052	 0.8019634946	 0.095866
H	-5.2631167417	 0.1435892602	-0.5282855615	 0.130093
H	-3.8673105459	 1.3265390338	-0.5759536776	 0.142739
H	-3.4168786788	 0.7382517272	-2.9777877617	 0.139853
H	-4.8047125698	-0.4535240098	-2.96504665	 0.130522
H	-4.8459459739	-2.2412092433	-1.2179550177	 0.072675
23.8982	86.1857	146.1784	159.3972	177.739	241.7007	317.3647	334.4868	351.9299	419.3413	490.9093	519.3248	565.8439	774.673	800.4801	827.3339	881.626	907.0099	925.464	965.0864	1007.9334	1039.3364	1053.9291	1079.771	1086.8057	1104.3559	1134.2638	1197.8209	1234.1663	1259.023	1272.035	1339.2733	1387.3509	1405.6813	1434.8212	1438.4889	1452.3927	1485.0084	1497.2679	1508.1539	1821.1569	2855.3792	2989.3611	3009.5679	3083.7736	3084.9453	3140.3681	3143.1176	3227.3171	3241.0231	3804.3171
OCCOC1(CC1)C=O	OCCOC1(CC1)C=O	
InChI=1S/C6H10O3/c7-3-4-9-6(5-8)1-2-6/h5,7H,1-4H2	InChI=1S/C6H10O3/c7-3-4-9-6(5-8)1-2-6/h5,7H,1-4H2
