22
gdb 7668	3.47504	1.73245	1.54359	0.0915	81.24	-0.2596	0.0811	0.3407	967.0788	0.200673	-313.052814	-313.044688	-313.043744	-313.084904	32.422	
C	 0.1129122432	 1.5279145703	-0.0709093995	-0.450997
C	 0.0258504809	 0.0062573803	-0.0093178017	 0.350966
C	-1.425979402	-0.4505963322	-0.1852241669	-0.434181
C	 0.9829921618	-0.7953054565	-0.9570786326	-0.28241
C	 1.4323393846	-1.6908947102	 0.2312080295	-0.000913
C	 2.7777197862	-1.2849979808	 0.8783989147	-0.220647
C	 2.0353319586	-0.2237578593	 1.7461900691	-0.249859
C	 0.6635339607	-0.7323936958	 1.2109371317	-0.037587
H	 1.1434259667	 1.886675621	 0.006556922	 0.110184
H	-0.2899221233	 1.8982249182	-1.0212090485	 0.109849
H	-0.466190841	 1.9930286337	 0.7358925231	 0.109055
H	-1.8217397872	-0.1340218825	-1.1573264373	 0.106882
H	-1.5108567983	-1.5414327701	-0.1293618834	 0.110603
H	-2.0684654046	-0.0264742411	 0.5953845031	 0.107872
H	 0.4812176494	-1.3127887716	-1.7796027382	 0.091939
H	 1.7965249833	-0.1969241402	-1.3803483819	 0.087679
H	 1.2138543926	-2.7558352253	 0.1410657779	 0.058038
H	 3.2176003292	-2.0835706018	 1.4821457229	 0.096125
H	 3.5467647441	-0.9147048578	 0.193034345	 0.090803
H	 2.1648567028	-0.3598714424	 2.8225010018	 0.098895
H	 2.2703865878	 0.8183148535	 1.5163129803	 0.096735
H	-0.0352355254	-1.0857659895	 1.9729077487	 0.05097
63.6366	201.5415	250.0429	256.7859	286.4876	338.2242	358.9563	399.4844	447.2292	582.9323	718.6863	742.8535	763.3844	831.5251	841.976	893.9794	901.5422	946.8193	952.3383	971.0568	992.3484	998.7214	1024.4017	1047.501	1090.7702	1137.9904	1165.7089	1197.4906	1214.4884	1228.7711	1245.1706	1248.6502	1271.7639	1282.9736	1295.5887	1306.3897	1330.1296	1399.6046	1418.6912	1473.2718	1481.2273	1483.974	1487.045	1497.2097	1504.1512	1511.2383	3016.2268	3022.6073	3040.6926	3044.2853	3061.1292	3070.7987	3079.4922	3084.9511	3086.421	3088.1043	3090.1255	3100.2526	3100.877	3114.5298
CC1(C)CC2CCC12	CC1(C)C[C@H]2CC[C@@H]12	
InChI=1S/C8H14/c1-8(2)5-6-3-4-7(6)8/h6-7H,3-5H2,1-2H3	InChI=1S/C8H14/c1-8(2)5-6-3-4-7(6)8/h6-7H,3-5H2,1-2H3/t6-,7-/m1/s1
