17
gdb 87268	2.19356	1.57724	1.08922	1.8922	72.08	-0.2561	-0.0359	0.2202	1123.3014	0.132734	-458.981807	-458.97272	-458.971776	-459.01567	33.454	
C	-0.429590709	 1.3650340342	 0.1855778863	-0.470184
C	 0.1751029756	 0.0001776713	-0.0139154308	 0.338684
O	 0.7196170488	-0.5821656305	 0.9186077737	-0.365571
C	 0.0990464044	-0.6673706851	-1.3452926715	 0.042247
C	 1.2336950153	-1.6735185047	-1.6599373498	-0.357685
C	-0.0331117774	-2.278956908	-1.2494333077	 0.138303
O	-0.2463799385	-2.8650533545	-0.0393414733	-0.397205
C	-0.5963207588	-0.0844228985	-2.5101600911	 0.090309
O	-1.2485184989	 0.9328749767	-2.5333518837	-0.279709
H	-0.0197976764	 2.0819875648	-0.5312152998	 0.153727
H	-1.5047389326	 1.3360179614	-0.0121227696	 0.163361
H	-0.235037579	 1.6847554781	 1.2099552617	 0.133686
H	 1.5329158018	-1.7310461002	-2.7016398073	 0.135382
H	 2.0429328382	-1.6640522564	-0.9384272957	 0.153392
H	-0.6808816772	-2.6979214797	-2.0131494607	 0.132858
H	 0.2510886094	-2.3437159866	 0.6206237251	 0.314696
H	-0.4839981758	-0.7019643321	-3.4331454356	 0.073707
68.9706	111.9543	163.9565	215.1879	242.0702	274.6301	289.4152	361.527	416.7546	480.0028	495.9464	576.471	611.9583	641.7119	677.3113	718.8742	864.2324	948.1182	962.2712	997.9057	1044.2982	1056.5528	1082.881	1103.2694	1153.7775	1214.6801	1262.6083	1338.6508	1384.4263	1397.3864	1437.2375	1448.8363	1454.1765	1465.5379	1495.563	1721.9584	1802.513	2843.7886	3055.4912	3121.0935	3132.1689	3159.4393	3172.203	3230.4724	3565.4176
CC(=O)C1(CC1O)C=O	CC(=O)[C@]1(C[C@H]1O)C=O	
InChI=1S/C6H8O3/c1-4(8)6(3-7)2-5(6)9/h3,5,9H,2H2,1H3	InChI=1S/C6H8O3/c1-4(8)6(3-7)2-5(6)9/h3,5,9H,2H2,1H3/t5-,6+/m1/s1
