14
gdb 127173	4.33165	1.13791	0.90631	1.6868	68.63	-0.2516	-0.0722	0.1794	1190.1144	0.101042	-466.128525	-466.12052	-466.119575	-466.161838	27.925	
C	 0.0066268511	 1.4849177273	-0.0187408101	-0.348405
N	-0.0004822367	 0.0221233883	 0.0095332393	-0.168222
C	-0.0303888656	-0.6758744737	 1.2149386557	 0.08885
N	-0.0524703138	-0.0662559502	 2.3279711675	-0.470981
C	 0.0237491031	-0.6408643474	-1.1818109819	 0.572072
N	 0.0525678145	-0.0594076722	-2.3557973082	-0.218199
O	 0.0682883897	-1.1143317607	-3.2296149107	-0.140579
N	 0.048126661	-2.2906704964	-2.5253048667	 0.051978
N	 0.0212988932	-2.0237582613	-1.2948843365	-0.237594
H	 0.908323331	 1.8463696141	-0.5207317623	 0.150718
H	-0.867130399	 1.8540157369	-0.5627875629	 0.150762
H	-0.0162826689	 1.828444012	 1.0130332222	 0.181961
H	-0.0316663823	-1.7563560323	 1.0661956491	 0.149034
H	-0.0724822872	-0.7334723845	 3.0953316155	 0.238605
71.351	114.6602	129.9107	192.1389	256.9211	324.7447	371.5688	468.1551	496.0376	650.4722	761.8806	775.5661	796.5327	813.0392	936.2326	978.3486	1063.6891	1065.2383	1086.4592	1119.4021	1162.3753	1246.8126	1324.7277	1380.5031	1418.0818	1445.2874	1496.0901	1504.2746	1522.0261	1648.0032	1723.5302	3052.6884	3115.5019	3128.8195	3185.6118	3525.7605
CN(C=N)C1=NON=N1	CN(C=N)c1nonn1	
InChI=1S/C3H5N5O/c1-8(2-4)3-5-7-9-6-3/h2,4H,1H3	InChI=1S/C3H5N5O/c1-8(2-4)3-5-7-9-6-3/h2,4H,1H3
