21
gdb 103149	1.88671	1.53327	1.17998	2.8389	78.79	-0.2334	-0.018	0.2155	1192.4223	0.179443	-424.239072	-424.228796	-424.227852	-424.274099	37.822	
C	-0.308791646	 1.4427412456	-0.0174875943	-0.403191
C	-0.0739177776	-0.0681793567	-0.1177179979	-0.204745
C	 0.8194772106	-0.4904861708	-1.3066509404	 0.168669
C	 2.2024959769	 0.1574384058	-1.2740852459	-0.457881
C	 0.7880413811	-2.0415696361	-1.5553681631	 0.069291
O	 0.3656752451	-2.7863007381	-0.4379181507	-0.42766
C	-0.2228054064	-1.8541144135	-2.7296040915	-0.3984
C	 0.0641336986	-0.3486295387	-2.6431814086	 0.390194
O	-0.1464493556	 0.5796750134	-3.3722891536	-0.313067
H	 0.6130870149	 1.9848827251	 0.2120498773	 0.117723
H	-0.7083892409	 1.8456055817	-0.9530971248	 0.138432
H	-1.025017031	 1.6620198604	 0.7803094085	 0.112472
H	 0.3890514433	-0.4472484626	 0.8004376329	 0.111261
H	-1.037693305	-0.5828577698	-0.193660273	 0.103461
H	 2.7017085842	-0.0397127983	-0.3188081408	 0.12037
H	 2.8396449174	-0.2302249059	-2.075529306	 0.113522
H	 2.1312326656	 1.2397048614	-1.4087181021	 0.138001
H	 1.7621471325	-2.3944961605	-1.9207717233	 0.074069
H	 0.3331328799	-3.7149781792	-0.6873065231	 0.288807
H	-0.0176789813	-2.3392865129	-3.6868938188	 0.123477
H	-1.2471722463	-2.0880104504	-2.4194614609	 0.135197
61.9864	105.263	137.4151	181.9826	210.6319	221.624	254.0703	284.6006	304.8832	329.5872	411.1281	474.4399	491.4239	564.1481	665.094	687.3531	769.5171	798.3572	861.5744	904.9537	966.5623	1008.2687	1030.799	1037.172	1069.4137	1105.1598	1133.5651	1157.013	1182.0566	1214.2106	1227.4056	1253.0436	1302.1277	1338.9661	1360.3095	1403.3837	1414.6587	1416.8294	1436.4888	1480.3049	1490.99	1497.4057	1505.39	1512.8416	1878.1919	3002.9325	3032.5395	3040.0085	3041.6623	3052.4701	3072.4112	3097.0113	3107.6107	3115.9372	3116.9331	3121.6186	3822.7222
CCC1(C)C(O)CC1=O	CC[C@@]1(C)[C@@H](O)CC1=O	
InChI=1S/C7H12O2/c1-3-7(2)5(8)4-6(7)9/h5,8H,3-4H2,1-2H3	InChI=1S/C7H12O2/c1-3-7(2)5(8)4-6(7)9/h5,8H,3-4H2,1-2H3/t5-,7-/m0/s1
