20
gdb 107580	2.61341	1.54004	1.12358	2.0577	78.98	-0.2384	-0.0218	0.2166	1145.1926	0.171234	-403.160206	-403.151575	-403.150631	-403.193468	32.932	
C	-0.45187722	 1.4804667948	-0.1119895325	-0.385227
C	 0.083356212	 0.0523323574	 0.0525989367	-0.279138
C	 0.824525702	-0.4412792442	-1.1693134988	 0.222524
C	 0.1020767752	-0.9427894623	-2.3859106125	-0.281829
N	 0.8053419278	-1.8817027545	-1.5257614913	-0.14382
C	 2.1494414993	-2.2482656551	-2.0497022285	-0.162723
C	 2.9424784354	-0.9544078913	-2.3052436039	-0.357937
C	 2.1930227712	 0.1014355027	-1.4778332064	 0.377044
O	 2.6448791181	 1.1477928727	-1.0830783551	-0.324625
H	 0.3679425868	 2.1793449709	-0.2915951076	 0.148146
H	-1.1483719906	 1.5459738698	-0.9549438261	 0.109854
H	-0.9855030191	 1.798109914	 0.7887027279	 0.112052
H	 0.7569789361	 0.0089926838	 0.9165802509	 0.107559
H	-0.7354667187	-0.6460112067	 0.2553052601	 0.109248
H	-0.9822529377	-0.9993091935	-2.3413795665	 0.126894
H	 0.502813005	-0.719978304	-3.3725915699	 0.115246
H	 2.6377773596	-2.8535363049	-1.2803704075	 0.120066
H	 2.0296153519	-2.8735572356	-2.9387447839	 0.114517
H	 3.9824961927	-1.0073600578	-1.9788271919	 0.138054
H	 2.9549664633	-0.6456426662	-3.3564348433	 0.134096
86.43	110.4691	168.1498	202.8725	244.4762	284.8415	360.1708	442.4795	472.9803	531.7793	630.4619	651.9784	678.8005	774.5756	799.437	827.5611	860.2498	907.8971	963.1449	976.7879	1008.8327	1035.1718	1048.4892	1096.4927	1114.2731	1120.0256	1162.4169	1196.8577	1240.9386	1259.6048	1287.3061	1329.013	1339.854	1359.733	1380.5661	1408.9483	1457.7712	1482.8387	1496.4037	1499.8967	1511.3588	1514.8179	1828.9855	3036.4994	3039.9045	3053.4591	3055.9479	3077.1395	3097.772	3099.4669	3104.3344	3122.7877	3134.4856	3184.943
CCC12CN1CCC2=O	CC[C@]12CN1CCC2=O	
InChI=1S/C7H11NO/c1-2-7-5-8(7)4-3-6(7)9/h2-5H2,1H3	InChI=1S/C7H11NO/c1-2-7-5-8(7)4-3-6(7)9/h2-5H2,1H3/t7-,8?/m1/s1
