15
gdb 123832	3.58369	1.56087	1.12915	3.3024	67.02	-0.2604	-0.0393	0.221	1005.8032	0.114502	-453.926601	-453.919845	-453.918901	-453.957807	26.034	
C	-0.0024231237	 1.4134957534	 0.0122223771	-0.082759
C	 1.4402560837	 1.9617223477	 0.0136855826	-0.337542
C	 2.1729920111	 1.2157265711	-1.0486778704	 0.207698
C	 1.7091535451	 0.0661478422	-1.6047991061	 0.331929
C	 0.4280888243	-0.5912595249	-1.2066055597	-0.190465
O	-0.0347119559	-0.0117004254	-0.0000547068	-0.245737
O	 2.5424595467	-0.3571742561	-2.5364451785	-0.23496
N	 3.6353744529	 0.6357464419	-2.5448952223	-0.027472
N	 3.3630351075	 1.4954758095	-1.6782481806	-0.18259
H	-0.5356757022	 1.7120904762	 0.917190103	 0.123685
H	-0.5479503469	 1.8117352412	-0.8575236374	 0.103246
H	 1.4299582828	 3.0394281414	-0.1806626228	 0.129083
H	 1.9026687726	 1.811915261	 0.9963978401	 0.132364
H	-0.3166476822	-0.4906550439	-2.0140748045	 0.125498
H	 0.5670799241	-1.6594423052	-1.0137870136	 0.148022
119.3544	221.0677	287.6606	331.4104	366.0971	448.4375	505.0184	523.8897	657.6733	690.6083	718.7693	750.6562	854.974	946.2568	976.3515	1001.9755	1025.0686	1092.2471	1117.5331	1184.9512	1219.5462	1234.3887	1267.4556	1308.9004	1336.2767	1368.7461	1412.2391	1445.7405	1469.7675	1481.7159	1483.2577	1498.8276	1641.2597	2969.2107	2988.419	3038.3597	3082.4726	3083.8154	3110.0291
C1CC2=C(CO1)ON=N2	C1Cc2c(CO1)onn2	
InChI=1S/C5H6N2O2/c1-2-8-3-5-4(1)6-7-9-5/h1-3H2	InChI=1S/C5H6N2O2/c1-2-8-3-5-4(1)6-7-9-5/h1-3H2
