15
gdb 123758	4.88395	1.08054	1.01973	4.1266	67.92	-0.2681	-0.0482	0.2199	1156.569	0.113204	-453.897063	-453.889666	-453.888722	-453.930298	26.32	
C	-0.0269411165	 1.1927743689	-0.262309381	-0.059179
C	 1.4624147711	 1.5059080942	-0.0203186585	-0.302505
C	 1.4595920448	 0.1859972938	 0.7948553917	 0.025098
O	 0.0687874776	-0.0453137681	 0.4823452382	-0.281721
C	 2.3437878262	-0.9138940774	 0.3226255855	 0.433773
C	 3.1934245156	-1.7618511837	 0.9632874833	-0.219515
N	 3.7576668853	-2.5688226467	 0.0041906879	-0.108963
N	 3.3187202129	-2.275344181	-1.1354946366	-0.002615
O	 2.3889802887	-1.1931751743	-0.9805857571	-0.217035
H	-0.7390670884	 1.8861323068	 0.1990069375	 0.110925
H	-0.3172191743	 1.0168271608	-1.3033334111	 0.121662
H	 2.0913163027	 1.4845225133	-0.9098696871	 0.135847
H	 1.6765969514	 2.4024198809	 0.5614067505	 0.122744
H	 1.6111472067	 0.309986455	 1.8739715494	 0.09603
H	 3.4347869761	-1.8558804324	 2.0080236872	 0.145455
54.5232	67.4356	146.3095	196.8578	380.9763	399.3811	613.5361	694.3876	700.3323	745.7426	799.7395	832.8552	834.9663	936.6083	947.4595	989.2844	1018.0167	1029.1158	1065.7389	1091.8987	1119.2108	1163.7571	1218.2501	1248.0036	1264.4477	1272.7805	1328.6175	1355.1509	1402.1059	1458.3449	1486.2612	1530.9081	1607.8807	3030.1104	3036.1746	3078.8803	3096.0516	3156.3957	3292.1624
C1CC(O1)C1=CN=NO1	C1C[C@@H](O1)c1cnno1	
InChI=1S/C5H6N2O2/c1-2-8-4(1)5-3-6-7-9-5/h3-4H,1-2H2	InChI=1S/C5H6N2O2/c1-2-8-4(1)5-3-6-7-9-5/h3-4H,1-2H2/t4-/m1/s1
