12
gdb 48051	3.21253	0.77147	0.62447	3.1419	70.51	-0.2728	-0.1193	0.1535	1622.2813	0.074395	-435.472751	-435.463549	-435.462605	-435.50967	29.697	
O	 0.2058464129	 2.1507262289	-1.8299972683	-0.206213
C	 0.5775377554	 1.3531558016	-1.0154225839	 0.085251
C	 1.3481552298	 1.7285127827	 0.2593009585	 0.118982
O	 1.6825614827	 0.8507374074	 1.0250203483	-0.24862
C	 1.6259844025	 3.1285363588	 0.4605608824	 0.116252
C	 1.864787039	 4.2956740975	 0.6408477209	 0.095075
C	 2.1696434991	 5.6995662966	 0.8887207542	-0.483425
C	 1.6794872674	 6.605269062	-0.157515664	 0.288445
N	 1.3035785822	 7.336218168	-0.9674669075	-0.284482
H	 0.4085085891	 0.2589870467	-1.0884316095	 0.118246
H	 1.7386895866	 6.0065621486	 1.8506876462	 0.200246
H	 3.2553398834	 5.8297180912	 0.9870729726	 0.200244
13.4122	51.3278	118.2516	133.4002	139.2504	250.782	349.9342	353.1166	383.333	468.2736	532.4896	606.2419	673.3614	716.46	918.629	924.2684	1027.8309	1033.1015	1232.7137	1248.3081	1337.6347	1363.2377	1433.0915	1758.1631	1834.4071	2347.2273	2378.37	2938.4537	3029.4003	3061.1815
O=CC(=O)C#CCC#N	O=CC(=O)C#CCC#N	
InChI=1S/C6H3NO2/c7-4-2-1-3-6(9)5-8/h5H,2H2	InChI=1S/C6H3NO2/c7-4-2-1-3-6(9)5-8/h5H,2H2
