18
gdb 117469	5.75976	0.59395	0.56373	3.406	71.9	-0.2513	-0.0316	0.2196	1942.9137	0.144744	-476.274949	-476.264518	-476.263574	-476.312652	34.773	
C	-0.1291993097	 1.4568557326	 0.1382026181	-0.392402
C	-0.0757028385	-0.0510793961	 0.2886760522	-0.036461
O	-1.3236677597	-0.5792794316	-0.1996251746	-0.278331
C	-1.4477910106	-1.9230283326	-0.1253773487	 0.528654
O	-0.6046603049	-2.677360246	 0.3064649286	-0.410216
N	-2.6703769719	-2.3014692127	-0.6067215449	-0.377336
C	-3.0510068076	-3.6884901842	-0.7128468325	-0.242696
C	-4.2078048639	-4.0494358898	 0.2094510844	 0.153435
O	-5.0398207429	-4.8779361159	-0.0463522027	-0.229939
H	 0.8049821748	 1.8975063276	 0.4984310813	 0.125487
H	-0.2626212361	 1.7411159547	-0.909440072	 0.129165
H	-0.955145971	 1.8789577169	 0.717687427	 0.129425
H	 0.745817219	-0.4900481938	-0.2859136021	 0.123524
H	 0.0550637338	-0.3536648633	 1.332181825	 0.123931
H	-3.2606353137	-1.5820458304	-0.9904681757	 0.259316
H	-3.3076367026	-3.9772665907	-1.7377746789	 0.133501
H	-2.1786133228	-4.27603392	-0.4003659933	 0.176149
H	-4.2148813516	-3.4743149748	 1.1639591988	 0.084795
34.3866	47.5673	62.4847	96.5363	130.3938	161.5302	259.6225	284.8045	330.5949	368.8743	418.2463	469.8128	573.4658	703.2342	775.6887	785.5864	810.0694	897.9242	976.6621	1050.4751	1059.0937	1112.9456	1137.6163	1181.6075	1185.1367	1243.71	1270.4045	1291.7826	1340.1733	1395.528	1409.9621	1421.1174	1445.2642	1486.0919	1497.9832	1519.2389	1546.8821	1812.8738	1842.1713	2875.461	3038.831	3046.7649	3053.1952	3091.0685	3091.1815	3122.0489	3126.2162	3653.0297
CCOC(=O)NCC=O	CCOC(=O)NCC=O	
InChI=1S/C5H9NO3/c1-2-9-5(8)6-3-4-7/h4H,2-3H2,1H3,(H,6,8)	InChI=1S/C5H9NO3/c1-2-9-5(8)6-3-4-7/h4H,2-3H2,1H3,(H,6,8)
