17
gdb 44910	2.79985	1.74648	1.49331	2.6534	72.54	-0.232	-0.0234	0.2086	933.113	0.138219	-421.860576	-421.85377	-421.852826	-421.891699	27.578	
O	 0.0256531605	 0.0093392662	 0.0437305395	-0.31047
C	-0.0087426523	 1.2072779445	 0.0038104804	 0.413583
C	-1.2528528788	 2.1143125144	-0.0229165296	-0.35022
C	-0.6459583349	 3.528948937	-0.0611838888	 0.070959
C	-0.4169691172	 4.1452124373	 1.3287649475	-0.261107
C	 0.7086569876	 3.4406626988	 2.0444455001	-0.062373
C	 1.4672681039	 2.5320494541	 1.428249296	-0.066873
C	 1.1770915288	 2.1971922882	-0.0169529939	-0.077444
O	 0.6328911071	 3.3250022099	-0.6925451354	-0.262039
H	-1.8173567343	 1.8989295749	-0.9350642186	 0.140682
H	-1.9024971071	 1.9073176358	 0.8309740936	 0.133315
H	-1.2100071438	 4.2098059876	-0.7012897871	 0.089018
H	-0.1861785569	 5.214109835	 1.2303505285	 0.120702
H	-1.3415206279	 4.0878052098	 1.9190267167	 0.110488
H	 0.8926220548	 3.7059785381	 3.0819880909	 0.099996
H	 2.2517561101	 1.9849264968	 1.9398752077	 0.107013
H	 2.0413722406	 1.8253838017	-0.5675265276	 0.10477
106.8831	194.9743	322.7206	386.1333	431.7608	470.9077	530.956	551.026	644.5797	688.3452	711.3748	808.2604	841.7131	861.1945	899.1198	913.2983	968.015	982.0544	992.1356	1026.3862	1045.897	1065.8701	1137.9232	1155.2077	1182.4744	1202.9485	1217.5086	1259.0809	1304.1517	1338.0351	1357.9376	1372.5679	1404.5693	1447.9445	1470.8981	1697.6263	1862.2509	3016.7983	3045.1279	3066.4433	3095.2265	3116.9063	3120.2181	3161.7102	3194.1735
O=C1CC2CC=CC1O2	O=C1C[C@H]2CC=C[C@@H]1O2	
InChI=1S/C7H8O2/c8-6-4-5-2-1-3-7(6)9-5/h1,3,5,7H,2,4H2	InChI=1S/C7H8O2/c8-6-4-5-2-1-3-7(6)9-5/h1,3,5,7H,2,4H2/t5-,7+/m1/s1
