21
gdb 39623	4.3181	0.92669	0.79177	2.3042	87.15	-0.2223	0.0148	0.2371	1466.864	0.183696	-387.083392	-387.074906	-387.073961	-387.117198	31.929	
C	 0.0213318275	 1.4970009944	-0.1546295862	-0.168876
O	 1.3874240241	 1.5362587287	 0.3220070785	-0.277325
C	 1.4425842939	 0.0943848839	 0.4355517485	-0.168881
C	 0.0176759798	-0.0112730323	-0.0572606286	 0.167705
C	-0.8447962955	-0.9855772497	-0.2959309761	 0.202428
C	-0.5709466333	-2.4713565153	-0.113960734	-0.30291
C	-1.9610581846	-3.1318293689	-0.219877529	-0.203456
C	-2.7215949205	-2.2194936121	-1.1980148149	-0.203463
C	-2.2699373365	-0.8001649573	-0.796262776	-0.302923
H	-0.6653987029	 2.032278708	 0.5172349138	 0.106991
H	-0.0772246711	 1.9225874602	-1.1641475132	 0.106793
H	 2.2177107176	-0.3408922604	-0.2119309644	 0.106992
H	 1.6285665504	-0.2326204295	 1.4692049638	 0.106795
H	 0.0793343469	-2.8344068992	-0.9220727164	 0.111567
H	-0.0560183401	-2.6956773264	 0.8257442038	 0.105906
H	-1.9149432833	-4.1737470663	-0.5476450521	 0.096278
H	-2.4551575483	-3.1179319031	 0.7591036362	 0.101297
H	-2.4048727578	-2.4337398886	-2.2258827609	 0.101296
H	-3.80618685	-2.3502203286	-1.1565531211	 0.096282
H	-2.9057029639	-0.4198311947	 0.0154286057	 0.111577
H	-2.3413375322	-0.0759725528	-1.6141718675	 0.105927
55.6783	125.2102	127.4809	166.8455	256.2107	295.4089	376.521	473.7101	479.6207	576.8948	686.9474	832.1089	869.8112	870.5701	907.1628	916.3587	921.5125	932.5811	958.6758	1016.7831	1018.6975	1041.5247	1056.7426	1071.3944	1095.9909	1133.0547	1134.9284	1152.1539	1182.9911	1211.55	1239.2022	1258.5167	1296.2737	1303.1276	1329.5606	1338.9325	1348.5357	1359.6808	1475.9627	1476.8159	1493.5649	1495.1188	1508.6047	1522.2987	1817.6948	2978.4204	2991.1049	3009.1949	3010.393	3015.6432	3016.094	3032.7663	3038.5576	3069.2857	3070.7313	3092.4566	3099.4122
C1OCC1=C1CCCC1	C1OCC1=C1CCCC1	
InChI=1S/C8H12O/c1-2-4-7(3-1)8-5-9-6-8/h1-6H2	InChI=1S/C8H12O/c1-2-4-7(3-1)8-5-9-6-8/h1-6H2
