23
gdb 80476	2.38737	1.46324	1.26521	1.4131	84.7	-0.2528	0.0614	0.3143	1159.3834	0.206789	-388.289724	-388.280619	-388.279675	-388.323032	36.158	
C	-0.150497154	 1.5721333799	-0.184016666	-0.401895
C	 0.0425971079	 0.082108823	 0.0030927812	 0.009445
C	 1.3135998083	-0.6684992122	-0.3115026438	-0.067394
C	 2.6284065325	 0.1104251854	-0.3677323937	-0.250472
C	 3.1167256879	 0.1837207552	 1.1003574798	 0.041723
C	 4.0700172816	 1.335499299	 1.4120794004	-0.432838
C	 1.8247411906	 0.1431246856	 1.9739017612	 0.067431
O	 1.328408256	 1.4309734005	 2.3393934417	-0.423629
C	 0.8021363874	-0.6031057546	 1.1231386033	-0.067688
H	 0.7370643028	 2.1489343862	 0.071627544	 0.127742
H	-0.4222473561	 1.7859848868	-1.2246591819	 0.099554
H	-0.9592387081	 1.9368517665	 0.4569341989	 0.117441
H	-0.8512207426	-0.4789873142	-0.2655020078	 0.078328
H	 1.2416528949	-1.5877551539	-0.882919406	 0.075343
H	 3.3618188015	-0.3911262435	-1.0058564643	 0.093862
H	 2.4907912534	 1.1154481502	-0.7833616955	 0.10031
H	 3.6335085472	-0.7629340631	 1.3078085576	 0.070858
H	 3.5904755099	 2.3022563513	 1.2284004367	 0.123805
H	 4.4046897338	 1.3133827328	 2.4568337171	 0.103232
H	 4.9662095358	 1.2847714214	 0.7855300858	 0.116702
H	 2.0221855422	-0.4311163162	 2.8913165926	 0.061108
H	 1.9694633756	 1.8333229831	 2.9338672648	 0.280553
H	 0.3223555417	-1.4614835888	 1.5803007539	 0.07648
66.7889	166.7757	231.5207	249.1401	263.1221	270.9704	313.0238	336.5028	341.7766	476.1651	493.1543	578.2598	643.4742	713.7303	745.7493	752.5047	816.2448	870.3034	911.2376	931.3905	973.262	978.9605	992.5984	1033.5825	1067.5602	1072.6133	1095.2801	1123.7146	1142.5377	1157.4932	1170.8835	1218.3429	1230.6076	1244.1557	1295.5994	1324.5341	1330.8776	1356.0251	1366.2347	1375.7467	1403.2341	1418.0506	1428.8558	1442.1199	1486.6834	1496.0025	1500.5579	1504.5062	1513.7278	2977.7052	3013.0062	3023.026	3032.01	3040.9628	3081.4445	3086.1921	3091.9907	3104.9239	3108.6175	3154.5725	3155.5647	3166.3557	3817.3081
CC1C2CC(C)C(O)C12	C[C@H]1[C@H]2C[C@@H](C)[C@@H](O)[C@@H]12	
InChI=1S/C8H14O/c1-4-3-6-5(2)7(6)8(4)9/h4-9H,3H2,1-2H3	InChI=1S/C8H14O/c1-4-3-6-5(2)7(6)8(4)9/h4-9H,3H2,1-2H3/t4-,5+,6-,7+,8-/m1/s1
