19
gdb 79359	2.73813	1.7889	1.58323	0.2819	73.31	-0.2313	0.0734	0.3047	931.4883	0.162608	-423.027406	-423.020368	-423.019424	-423.058506	29.001	
O	-0.0357540956	 1.3606986409	 0.0794651826	-0.439128
C	-0.0060799795	-0.0580359197	-0.0232258547	 0.101887
C	-1.4299557302	-0.5390427363	-0.197726956	-0.061718
C	-1.7006529314	-0.6252375615	-1.6930153217	-0.059227
C	-0.4192661956	-0.2185541929	-2.4084646898	-0.233076
C	 0.6414717723	-0.5478807835	-1.341262322	 0.049285
O	 0.8765243304	-1.9494863362	-1.2536636315	-0.280443
C	-0.30668928	-2.730355568	-1.0759996574	-0.091241
C	-1.5502044868	-1.8842006521	-0.8773268493	-0.07265
H	 0.8640794964	 1.6634249674	 0.2397841676	 0.282323
H	 0.5031083978	-0.5086250352	 0.8402458357	 0.067382
H	-2.185320654	-0.2131264999	 0.5069259656	 0.087654
H	-2.6670430123	-0.3606729454	-2.1053056933	 0.081178
H	-0.2296444344	-0.7665312379	-3.3366112505	 0.099539
H	-0.4213414768	 0.8537188974	-2.6262383543	 0.1111
H	 1.6177179075	-0.0941252897	-1.5302982287	 0.068233
H	-0.4353578513	-3.3795461911	-1.9552107291	 0.098714
H	-0.1492046272	-3.387873364	-0.209871028	 0.102165
H	-2.4500599792	-2.4546296524	-0.6681309254	 0.088023
137.8335	218.7699	299.7262	309.9741	383.2722	401.4602	483.2858	524.8466	648.931	727.4418	771.744	808.0761	819.2655	853.3921	904.1728	925.8585	958.2885	972.0193	1004.8807	1046.3158	1054.7117	1066.0586	1087.8317	1102.2515	1113.5433	1116.9059	1166.3164	1195.5449	1233.8811	1246.8416	1258.0694	1306.0604	1323.3782	1333.5859	1341.0935	1362.3278	1406.9416	1432.8383	1442.4877	1481.142	1528.1962	2985.8184	3006.7431	3016.2902	3051.2725	3082.172	3098.5293	3154.8223	3178.2291	3190.2947	3812.7722
OC1C2C3CC1OCC23	O[C@H]1[C@H]2[C@H]3C[C@@H]1OC[C@@H]23	
InChI=1S/C7H10O2/c8-7-5-1-3-4(2-9-5)6(3)7/h3-8H,1-2H2	InChI=1S/C7H10O2/c8-7-5-1-3-4(2-9-5)6(3)7/h3-8H,1-2H2/t3-,4+,5-,6-,7+/m0/s1
