19
gdb 109448	2.44781	1.37432	0.98056	3.9601	75.97	-0.269	0.0105	0.2795	1246.3326	0.158229	-423.043927	-423.0351	-423.034156	-423.077637	32.92	
C	 0.110119007	 1.5752480334	 0.0446388845	-0.387972
C	-0.1756782667	 0.087225205	-0.1843143586	-0.199245
C	 0.657864707	-0.4928121332	-1.3270917526	-0.291571
C	 2.1523082295	-0.6969705369	-1.0440264086	 0.459255
O	 3.0907754507	-0.0407482858	-0.721642801	-0.3301
O	 2.1160259262	-2.0532106843	-1.2696751202	-0.268117
C	 0.690176481	-2.0040752965	-1.5409731019	 0.452066
C	-0.2100706459	-3.0935251822	-1.0800264956	-0.332678
C	 0.077095271	-2.8874607001	-2.5652798945	-0.336156
H	 1.1705523521	 1.7385498743	 0.2556846343	 0.151312
H	-0.1498541423	 2.1673801215	-0.8395790253	 0.1164
H	-0.472213504	 1.9588184552	 0.8872453164	 0.116264
H	 0.0263922214	-0.4798824271	 0.7318041418	 0.112488
H	-1.2383429204	-0.0621553779	-0.4133488624	 0.102626
H	 0.4992923698	 0.0726894457	-2.2515454761	 0.112488
H	 0.2507839804	-3.9482853128	-0.5975238298	 0.136928
H	-1.1897481866	-2.8273941832	-0.6970727841	 0.125263
H	-0.7068357837	-2.4806655699	-3.1956751485	 0.124312
H	 0.7245020634	-3.608879305	-3.051334448	 0.136436
93.3573	107.9785	137.9545	185.5264	236.5721	259.5591	324.0015	363.6418	481.6525	522.0144	552.2169	699.2151	760.7228	779.4233	814.1501	863.9698	875.9946	907.8408	960.3992	981.3911	995.7721	1052.6472	1075.124	1079.5247	1086.1648	1108.7431	1155.248	1185.3165	1214.2258	1266.8853	1277.6431	1339.4733	1367.3017	1399.0544	1417.433	1451.2143	1491.3993	1499.3254	1505.9692	1511.5048	1931.5656	3026.2537	3038.8613	3054.1779	3070.2942	3106.7567	3124.4122	3133.1057	3135.4107	3216.6375	3229.6414
CCC1C(=O)OC11CC1	CC[C@H]1C(=O)OC21CC2	
InChI=1S/C7H10O2/c1-2-5-6(8)9-7(5)3-4-7/h5H,2-4H2,1H3	InChI=1S/C7H10O2/c1-2-5-6(8)9-7(5)3-4-7/h5H,2-4H2,1H3/t5-/m0/s1
