18
gdb 125669	2.90528	1.34942	0.97621	1.4791	77.79	-0.2328	0.0219	0.2547	1198.9827	0.149792	-398.126463	-398.118006	-398.117062	-398.160587	30.946	
C	-0.1194462696	 1.4672425111	-0.0206012878	-0.495073
C	-0.0423655093	-0.0255859688	 0.0272553477	 0.275756
N	-0.0245511343	-0.7431178088	-1.0934619213	-0.283381
N	 0.0546515409	-2.0234451278	-0.6790236315	-0.189465
C	 0.0883649829	-2.1427437159	 0.6687086035	-0.124658
C	 0.0198067523	-0.8610560092	 1.1790301308	 0.133283
C	 0.0466049048	-0.4467730123	 2.6017827401	-0.135084
C	-1.1887047362	 0.029445452	 3.2835782146	-0.229654
N	-0.5966973237	-1.2713166648	 3.6427684125	-0.320209
H	 0.7875601071	 1.9303402389	 0.3848653336	 0.128619
H	-0.241324381	 1.8004204065	-1.0532017803	 0.140067
H	-0.9618752446	 1.8422259322	 0.5706138568	 0.128604
H	 0.0756894822	-2.7576726	-1.365372959	 0.274076
H	 0.1647943683	-3.1027845804	 1.1553774398	 0.137314
H	 0.9866942966	-0.0148659649	 2.9432312406	 0.101769
H	-1.1233809432	 0.7909531585	 4.0554089633	 0.117878
H	-2.1095608493	 0.0374773113	 2.7070056424	 0.113002
H	-1.1349257839	-2.0083088177	 3.192336504	 0.227156
35.8564	98.1671	147.0871	161.0397	265.9281	301.5661	402.9713	488.1356	492.4583	602.6074	673.2355	708.5092	728.5278	799.5541	846.6171	878.6713	948.0478	964.508	1000.1767	1008.9868	1066.252	1078.7766	1097.3338	1141.3904	1154.472	1186.5789	1219.2011	1257.2222	1298.6957	1321.2517	1385.6241	1404.5306	1414.7207	1476.3068	1481.4982	1489.6062	1504.4636	1517.931	1610.5072	3033.2344	3083.2344	3104.3515	3111.2149	3133.877	3198.6847	3254.7116	3491.3642	3681.2429
CC1=NNC=C1C1CN1	Cc1n[nH]cc1[C@H]1CN1	
InChI=1S/C6H9N3/c1-4-5(2-8-9-4)6-3-7-6/h2,6-7H,3H2,1H3,(H,8,9)	InChI=1S/C6H9N3/c1-4-5(2-8-9-4)6-3-7-6/h2,6-7H,3H2,1H3,(H,8,9)/t6-/m1/s1
