22
gdb 115164	2.75561	1.14834	0.9658	2.4548	82.49	-0.2082	-0.0174	0.1908	1334.6513	0.19334	-404.371014	-404.361226	-404.360282	-404.406852	36.069	
C	-0.2323193496	 1.4383444703	 0.1762636662	-0.381481
C	-0.4549019529	 0.0253564388	-0.3628217115	-0.128527
N	 0.6910145607	-0.4669335475	-1.1312645268	-0.072398
C	 0.7903795638	 0.1033291826	-2.4920624218	-0.193206
C	 0.1039492737	-0.8976545967	-3.4357498953	-0.326907
C	 0.3510651592	-2.2342491768	-2.7404760521	 0.399768
O	 0.2738606936	-3.332860485	-3.2259385126	-0.317968
C	 0.7508760046	-1.9283320254	-1.2820302425	-0.078137
C	 2.1404277537	-2.5051480044	-0.9737455447	-0.383548
H	 0.6734059962	 1.4722232705	 0.7882788807	 0.124866
H	-0.1219331606	 2.1724981647	-0.6280575334	 0.117183
H	-1.0844726512	 1.749541878	 0.7890668636	 0.112869
H	-0.592005466	-0.6525689075	 0.4861123783	 0.105093
H	-1.4001728618	-0.0052676031	-0.9390801624	 0.07561
H	 0.3437071856	 1.098414809	-2.5211328321	 0.109963
H	 1.8464966156	 0.2176545621	-2.7660596921	 0.109127
H	-0.9801292353	-0.7307397317	-3.4725123355	 0.132537
H	 0.4711288347	-0.9074088234	-4.4640736382	 0.128488
H	 0.0182646876	-2.4119613139	-0.6253333261	 0.097368
H	 2.9093987613	-2.0218271721	-1.5846421466	 0.117692
H	 2.3926230961	-2.3407375939	 0.0769001305	 0.118542
H	 2.1556019411	-3.5778083547	-1.1862471458	 0.133064
18.3953	82.7558	132.105	196.1826	224.089	234.6045	246.1574	315.3407	375.134	440.9256	486.5461	540.3316	616.7402	649.8598	763.0255	771.1169	806.4204	840.1649	931.335	952.6387	970.8167	992.1189	1055.8705	1087.1825	1099.0188	1115.4852	1122.2161	1152.3753	1206.1839	1210.3101	1254.6576	1272.3607	1306.3577	1332.268	1351.4739	1365.9632	1395.8174	1402.778	1418.144	1448.5725	1485.2767	1489.6833	1492.8344	1493.9177	1509.2124	1512.7258	1846.5208	2908.1844	3024.9155	3037.4617	3039.2193	3040.6825	3042.3563	3061.7464	3105.3477	3113.1295	3114.6147	3117.3534	3120.1136	3127.3158
CCN1CCC(=O)C1C	CCN1CCC(=O)[C@H]1C	
InChI=1S/C7H13NO/c1-3-8-5-4-7(9)6(8)2/h6H,3-5H2,1-2H3	InChI=1S/C7H13NO/c1-3-8-5-4-7(9)6(8)2/h6H,3-5H2,1-2H3/t6-/m1/s1
