12
gdb 130681	5.47417	1.33764	1.07496	4.0977	61.58	-0.2182	0.0068	0.225	993.3077	0.080756	-468.839959	-468.833335	-468.832391	-468.871141	24.688	
O	-0.0061731019	-0.0187209378	 0.0037459069	-0.371449
C	-0.0300019501	 1.1754580859	 0.0098358486	 0.454829
N	-1.1528693496	 2.016576947	 0.0291109937	-0.515105
C	-0.7041403857	 3.3214269192	 0.0303427784	 0.445716
C	 0.6604109718	 3.2926570317	 0.0110492199	 0.238717
O	 1.1010921698	 1.9863640064	-0.0020419869	-0.253381
C	 1.0811116132	 4.6293410883	 0.0117515567	-0.132126
N	 0.0114239393	 5.4333668088	 0.0309242535	-0.229553
N	-1.083771318	 4.6118684191	 0.0418576134	-0.339645
H	-2.0859982221	 1.6453181028	 0.0430211844	 0.284536
H	 2.0717001083	 5.0541599815	-0.0000298293	 0.134172
H	-1.9999528852	 5.0229690471	 0.0569291307	 0.28329
123.3578	142.4931	327.1787	360.4621	383.757	412.6725	583.5422	598.0276	653.5913	725.0977	755.4593	779.8467	857.4551	868.2108	907.5107	977.0054	1046.6983	1076.2178	1234.7853	1259.4156	1286.87	1361.1294	1415.9815	1491.7896	1616.615	1631.7526	1907.9154	3271.1	3693.9056	3697.9488
O=C1NC2=C(O1)C=NN2	O=c1[nH]c2c(o1)cn[nH]2	
InChI=1S/C4H3N3O2/c8-4-6-3-2(9-4)1-5-7-3/h1H,(H2,5,6,7,8)	InChI=1S/C4H3N3O2/c8-4-6-3-2(9-4)1-5-7-3/h1H,(H2,5,6,7,8)
