19
gdb 72668	2.30059	1.51007	1.44169	2.0137	81.79	-0.2432	0.0194	0.2626	1062.8215	0.157354	-385.82927	-385.820444	-385.8195	-385.862587	33.811	
C	-0.2750936185	 1.5296260025	 0.0813415582	-0.495754
C	-0.0341629311	 0.0425263717	 0.004147137	 0.227514
C	-1.2604475149	-0.9178374215	-0.0203309586	-0.280656
C	-0.6772433432	-1.7287705251	 1.1762187051	-0.275556
C	 0.5897576795	-0.8357205054	 1.1607569564	 0.237262
O	 1.5915699497	-1.3526479338	 0.2483046823	-0.32916
C	 1.1513402174	-0.484141915	-0.821613191	-0.120271
C	 1.1281357005	-0.3282432958	 2.3968768178	 0.260137
C	 1.5480630951	 0.1192232358	 3.4317870041	-0.425305
H	 0.6503909888	 2.0720082918	 0.3002772271	 0.127546
H	-0.6725201533	 1.9078913163	-0.8685145476	 0.120612
H	-1.0006871084	 1.7745693508	 0.8640308141	 0.122801
H	-2.2025715637	-0.4162588301	 0.2127153388	 0.105031
H	-1.3895603804	-1.4723571887	-0.9533893632	 0.103186
H	-1.2595955712	-1.6299015213	 2.0947697889	 0.112262
H	-0.4561473587	-2.782908884	 0.9992434527	 0.116654
H	 0.9095195689	-1.0410623037	-1.7353024884	 0.098783
H	 1.9110442534	 0.2745076921	-1.0537859671	 0.100458
H	 1.9296495801	 0.5046083535	 4.3449091237	 0.194455
74.1026	115.3391	172.1856	197.3042	252.4421	331.977	350.5221	368.3133	513.3758	537.2867	547.135	617.6739	657.4268	664.0805	687.2928	747.041	847.0493	892.5503	943.1951	958.9379	975.3353	1006.3935	1017.5186	1069.3919	1096.7726	1146.0987	1162.2402	1204.3235	1226.3626	1241.1102	1263.0431	1287.7934	1294.9816	1367.5409	1412.6515	1461.3156	1485.7124	1489.2014	1492.1107	1524.158	2228.3743	3001.8779	3024.2699	3050.0029	3060.4265	3072.3921	3088.0322	3102.1025	3108.2161	3134.9067	3500.6781
CC12CCC1(OC2)C#C	C[C@]12CC[C@]1(OC2)C#C	
InChI=1S/C8H10O/c1-3-8-5-4-7(8,2)6-9-8/h1H,4-6H2,2H3	InChI=1S/C8H10O/c1-3-8-5-4-7(8,2)6-9-8/h1H,4-6H2,2H3/t7-,8-/m1/s1
