17
gdb 7649	5.13876	1.24194	1.11733	5.4431	64.49	-0.2458	0.0183	0.2641	1076.7293	0.143025	-401.021981	-401.01417	-401.013226	-401.054659	28.653	
C	-0.4343005758	 1.4409900695	-0.0687606482	-0.40559
C	 0.0382535904	-0.0045459054	-0.0084224457	 0.076029
C	 1.2675145569	-0.3387732641	-0.898110499	-0.258125
C	 2.106230492	-0.3673599698	 0.4139505834	-0.105248
N	 0.8463822122	-0.3537769408	 1.2011362666	-0.356135
H	 0.807087691	 0.3241200459	 1.9559668412	 0.227375
H	 1.4579103117	-2.1327166853	 1.6264379332	 0.301879
C	 2.9450841437	-1.623046749	 0.642940169	 0.420349
O	 4.0423347717	-1.7777227855	 0.1773954104	-0.345277
O	 2.3165793128	-2.5464524062	 1.3847138883	-0.369384
H	 0.4055661574	 2.1393624165	 0.0204840276	 0.120988
H	-0.9399068846	 1.6402493566	-1.0194859758	 0.129601
H	-1.1451670089	 1.6549776273	 0.7371799385	 0.123463
H	-0.8173990095	-0.6773001432	-0.1306797094	 0.086947
H	 1.2095984077	-1.3071529885	-1.3973280135	 0.127955
H	 1.5531951352	 0.4218027571	-1.6251108835	 0.120918
H	 2.7511044062	 0.5078407349	 0.5329901969	 0.104256
65.0308	99.3973	176.1805	257.0499	260.9104	355.7999	401.1442	494.9811	612.3829	699.2815	739.3717	796.8496	807.4924	876.4554	907.0329	912.6726	956.4725	986.2833	1019.2936	1072.9006	1105.5078	1124.5162	1182.8411	1231.3413	1255.691	1258.9433	1304.1299	1324.4853	1346.68	1405.5131	1412.6035	1429.79	1486.7335	1493.9501	1496.9651	1871.6432	3026.4418	3040.5308	3070.5385	3087.8463	3096.7022	3102.6038	3144.5458	3465.0746	3518.0962
CC1CC([NH2+]1)C([O-])=O	C[C@H]1C[C@@H](N1)C(=O)O	
InChI=1S/C5H9NO2/c1-3-2-4(6-3)5(7)8/h3-4,6H,2H2,1H3,(H,7,8)	InChI=1S/C5H9NO2/c1-3-2-4(6-3)5(7)8/h3-4,6H,2H2,1H3,(H,7,8)/t3-,4+/m0/s1
