16
gdb 125439	4.49131	0.87464	0.78469	5.2537	72.11	-0.2414	-0.019	0.2223	1430.5766	0.124046	-434.114334	-434.105404	-434.10446	-434.150801	30.21	
C	 0.0999818722	 1.4609207057	-0.1152548961	-0.502082
C	 0.0260246629	-0.0273414789	-0.0646232267	 0.353835
N	 0.1438154951	-0.8601324228	-1.0853410595	-0.338614
C	 0.019214255	-2.0940171991	-0.5088517484	 0.309511
C	 0.1122916515	-3.3621175736	-1.2926121604	-0.376826
C	 1.4860863795	-3.5527106157	-1.926757425	 0.15925
O	 2.0411503022	-4.6149740293	-2.020266774	-0.236107
N	-0.1661334881	-2.0752852534	 0.8013656245	-0.258859
N	-0.1620898819	-0.7440396625	 1.065131132	-0.231065
H	 1.0710204612	 1.8239195974	 0.2394099268	 0.150419
H	-0.0281255204	 1.7876782179	-1.1477601974	 0.165619
H	-0.6764313811	 1.9245395882	 0.5009232448	 0.138011
H	-0.1225331904	-4.2282061658	-0.6722417109	 0.144477
H	-0.6069908523	-3.3230466409	-2.1229393273	 0.145273
H	 1.9387273419	-2.6172994709	-2.3213678104	 0.098127
H	-0.2982512573	-0.4232643863	 2.0098253479	 0.279033
17.9501	42.8898	63.5903	130.6696	227.2856	283.6887	374.4011	414.6635	450.6686	548.9838	648.1474	699.9241	713.7154	774.2384	831.9527	990.8189	1018.7117	1034.3887	1049.1647	1064.0589	1081.1391	1156.9186	1201.1705	1285.9354	1291.7827	1385.5591	1414.0261	1417.3358	1434.2275	1440.8383	1482.6115	1499.6097	1537.1705	1590.9878	1837.2724	2903.54	3022.1487	3042.1347	3099.3389	3133.581	3151.3978	3661.4463
CC1=NC(CC=O)=NN1	Cc1nc(CC=O)n[nH]1	
InChI=1S/C5H7N3O/c1-4-6-5(2-3-9)8-7-4/h3H,2H2,1H3,(H,6,7,8)	InChI=1S/C5H7N3O/c1-4-6-5(2-3-9)8-7-4/h3H,2H2,1H3,(H,6,7,8)
