23
gdb 58278	3.00145	0.82198	0.80144	3.4984	82.91	-0.2377	-0.0079	0.2298	1603.94	0.201889	-425.455496	-425.444088	-425.443143	-425.492802	40.945	
C	 0.0136048907	 1.458467421	 0.305637248	-0.410166
C	-0.1387948612	-0.0070001746	-0.1299426205	 0.020609
C	-1.6051180799	-0.3364721376	-0.4411690425	-0.393304
C	 0.7572056026	-0.37870261	-1.3335300257	 0.138565
O	 0.4178989905	 0.3588854515	-2.5076818738	-0.438335
C	 2.2696525443	-0.2811042632	-1.0295035997	-0.321298
C	 3.0827514435	-0.9717718576	-2.1236119812	 0.391619
C	 3.5706387852	-0.1063707257	-3.2661486543	-0.483123
O	 3.2800809101	-2.1646833044	-2.080190079	-0.306244
H	 1.0420863637	 1.7085598651	 0.5833750229	 0.118528
H	-0.3048113526	 2.1496035213	-0.4851328799	 0.107841
H	-0.6196218123	 1.6651383959	 1.1735477747	 0.123464
H	 0.1881047849	-0.6424404234	 0.7040640821	 0.079892
H	-1.9502867781	 0.2293756213	-1.3116209392	 0.125694
H	-1.7322663798	-1.4005253832	-0.6654432465	 0.11564
H	-2.2515156632	-0.0911141433	 0.4072709672	 0.108373
H	 0.544617593	-1.4212070089	-1.5971338022	 0.108036
H	 0.5352519895	 1.2950393192	-2.3119902549	 0.280542
H	 2.5609909429	 0.7703717728	-0.9252451957	 0.091877
H	 2.4775898023	-0.7975665077	-0.0876725813	 0.121667
H	 4.2251156064	 0.6896241188	-2.8921529798	 0.129875
H	 4.105510873	-0.7119449709	-3.9986418496	 0.137294
H	 2.7042950846	 0.3767834536	-3.7310079789	 0.152953
32.0374	74.3903	82.1696	138.6271	178.2201	215.5102	231.6567	240.8877	287.2875	298.6543	331.0937	382.5274	417.0132	455.7486	542.6534	579.2988	620.4257	784.9152	813.6749	880.9351	913.2792	930.8568	964.309	974.7732	1007.8676	1047.5328	1063.9267	1103.4063	1147.1352	1157.2093	1201.8031	1238.6534	1281.6744	1295.6672	1341.5884	1363.7728	1371.5118	1378.1174	1400.0811	1417.6789	1428.4139	1463.3937	1474.5869	1478.1853	1487.9343	1492.7397	1508.8978	1512.2045	1811.1612	3016.3824	3024.8903	3032.7467	3036.0545	3038.336	3051.7055	3089.1476	3099.114	3101.3587	3103.6243	3109.0094	3114.6932	3152.9333	3803.1546
CC(C)C(O)CC(C)=O	CC(C)[C@@H](O)CC(=O)C	
InChI=1S/C7H14O2/c1-5(2)7(9)4-6(3)8/h5,7,9H,4H2,1-3H3	InChI=1S/C7H14O2/c1-5(2)7(9)4-6(3)8/h5,7,9H,4H2,1-3H3/t7-/m0/s1
