14
gdb 5729	5.03772	2.14682	1.54316	4.7956	62.62	-0.2005	0.0355	0.236	770.9926	0.111232	-378.744723	-378.738841	-378.737896	-378.774802	22.316	
C	 0.0276673503	 1.4071365537	-0.0895409866	-0.102162
C	 1.526775717	 1.8098587303	 0.0007427502	-0.204677
N	 2.0496804333	 0.6208380781	 0.6469030426	-0.053338
C	 3.1983050552	 0.1038690151	 1.1938271037	-0.018721
N	 3.0443159195	-1.1670330067	 1.47809249	-0.264554
C	 1.7574365567	-1.5176487013	 1.0918272481	-0.226252
C	 1.1532518989	-0.4092579711	 0.5727136069	 0.371829
O	-0.0095034745	-0.0338685236	-0.0193079753	-0.276255
H	-0.5328512401	 1.8165213097	 0.7589883915	 0.127688
H	-0.4487158539	 1.7161327745	-1.0209703192	 0.133557
H	 1.9807170272	 1.9593423508	-0.985632521	 0.13423
H	 1.672302815	 2.7129868804	 0.5979142983	 0.136614
H	 4.0801389215	 0.6981206202	 1.3754780284	 0.128889
H	 1.3718934937	-2.5151231401	 1.2165316324	 0.113151
140.4539	175.6107	301.023	450.0641	626.9929	659.3961	676.7358	748.3001	758.416	765.4777	790.1206	879.1516	944.2846	955.7038	1020.6073	1106.3469	1131.5669	1150.7277	1211.963	1246.6296	1252.2956	1271.9882	1325.6698	1378.9463	1393.7346	1449.4869	1501.7507	1512.7465	1533.6178	1628.0544	3036.1042	3039.8517	3101.2737	3127.2814	3257.8643	3274.8675
C1CN2C=NC=C2O1	C1Cn2cncc2O1	
InChI=1S/C5H6N2O/c1-2-8-5-3-6-4-7(1)5/h3-4H,1-2H2	InChI=1S/C5H6N2O/c1-2-8-5-3-6-4-7(1)5/h3-4H,1-2H2
