17
gdb 71048	3.06968	2.15221	1.66055	0.3776	76.72	-0.1986	-0.0279	0.1708	836.3381	0.136916	-384.580581	-384.574212	-384.573268	-384.61065	27.789	
O	-0.0355677988	 1.2618281708	 0.24822245	-0.475255
C	 0.0510635786	-0.1045172096	-0.0200419379	 0.420983
C	 1.2643130666	-0.9464899223	 0.5808433101	-0.333023
C	 0.9018820216	-1.8580149125	-0.5984164382	 0.000011
C	-0.0672987191	-2.7567772935	-0.3092221303	-0.094299
C	-1.368346793	-2.1729292135	-0.7009020785	-0.088985
C	-1.1780989842	-1.0027769529	-1.6311310129	-0.086099
C	-1.4020798483	-0.7053076346	-0.1613721431	-0.122182
C	 0.312025267	-0.7028485422	-1.437603502	-0.138659
H	 0.8392847497	 1.6457876106	 0.1213354121	 0.280509
H	 2.1807253078	-0.3455536607	 0.4853694307	 0.084251
H	 1.1994077357	-1.3700291295	 1.5846838063	 0.107902
H	-0.0003522079	-3.4419228325	 0.531485247	 0.097523
H	-2.3121474392	-2.707504767	-0.6899831856	 0.090268
H	-1.8061843151	-0.8004025813	-2.487031021	 0.092529
H	-2.2747867974	-0.3062113313	 0.337622313	 0.097619
H	 0.9345378559	-0.1983325683	-2.1748804298	 0.066907
254.248	294.8532	340.6454	387.3906	447.0248	513.3331	565.5114	671.3651	692.8748	706.4335	760.063	802.1108	809.6237	830.1744	878.4672	889.0463	930.1638	934.7471	948.5723	980.1229	1008.1888	1043.0847	1062.0605	1069.0592	1081.8634	1088.0034	1099.8937	1170.9928	1211.5846	1227.433	1244.1955	1264.1045	1321.2884	1353.4079	1366.2143	1492.4674	1575.1526	2994.4725	3112.4236	3123.6928	3159.9267	3173.5734	3205.087	3217.427	3796.6452
OC12CC3=CC4C(C14)C23	O[C@@]12C[C]3[CH][C@@H]4[C@@H]([C@H]14)[C@@H]23	
InChI=1S/C8H8O/c9-8-2-3-1-4-5(6(3)8)7(4)8/h1,4-7,9H,2H2	InChI=1S/C8H8O/c9-8-2-3-1-4-5(6(3)8)7(4)8/h1,4-7,9H,2H2/t4-,5-,6+,7-,8-/m1/s1
