19
gdb 41378	2.44898	1.8425	1.75447	1.4852	73.07	-0.2476	0.0556	0.3033	920.7977	0.16126	-422.982607	-422.975484	-422.974539	-423.01395	28.805	
C	-0.0365067926	 1.5129233171	-0.3080070228	-0.291001
C	 1.4352244386	 1.6310420826	 0.2190365287	-0.285445
C	 1.3842066407	 0.1301166134	 0.6072876175	 0.39185
C	 1.2831882425	-0.3329957869	 2.0548814617	-0.156607
O	-0.113353746	-0.2197349686	 2.3600238464	-0.262721
C	-0.8618882657	-0.5534085413	 1.1789789951	-0.169386
C	-0.0314333334	-0.005442707	 0.0284914734	 0.206154
C	 0.649603553	-0.941219815	-0.994924009	-0.153009
O	 1.9502398381	-0.7787849099	-0.3615999853	-0.337466
H	-0.755268555	 2.0736660608	 0.2942916121	 0.112668
H	-0.1937774125	 1.7635151357	-1.3600485523	 0.103071
H	 2.1893589164	 1.8459490574	-0.5400619442	 0.114845
H	 1.5647272439	 2.3178514315	 1.0588604091	 0.108268
H	 1.6304927901	-1.3745720008	 2.1272557433	 0.100374
H	 1.8205843792	 0.2796639662	 2.7832423613	 0.108573
H	-0.9821061423	-1.6452926124	 1.0938748537	 0.090859
H	-1.8511594062	-0.1016591336	 1.2926088568	 0.110828
H	 0.318531222	-1.9869268483	-0.9725505489	 0.104692
H	 0.657058349	-0.5877322609	-2.0328741166	 0.103454
114.9373	181.0525	283.2307	323.5584	345.0502	374.4657	532.8944	620.2111	635.0127	691.2094	735.6232	777.8883	891.9625	897.3877	910.8948	925.9047	944.8537	961.8827	969.8103	986.8252	1017.9223	1059.8498	1136.128	1153.5947	1163.2598	1200.9491	1211.0128	1233.5625	1240.9771	1254.3976	1272.9453	1288.1465	1300.4108	1336.3347	1355.0886	1383.0635	1462.4558	1479.9347	1497.475	1506.8907	1520.8277	2976.082	2996.2091	3013.2907	3059.9279	3061.8108	3069.0118	3088.2295	3096.4741	3110.6472	3133.3899
C1CC23COCC12CO3	C1C[C@@]23COC[C@@]12CO3	
InChI=1S/C7H10O2/c1-2-7-5-8-3-6(1,7)4-9-7/h1-5H2	InChI=1S/C7H10O2/c1-2-7-5-8-3-6(1,7)4-9-7/h1-5H2/t6-,7-/m1/s1
