21
gdb 77066	2.60547	1.26621	1.17679	1.3201	84.31	-0.2474	0.0385	0.2859	1191.922	0.179756	-387.055455	-387.045494	-387.04455	-387.089498	38.287	
C	-0.3470568122	 1.4918630341	 0.0305424485	-0.453536
C	-0.0992075551	-0.0182074294	-0.0135398801	 0.301854
C	-1.3992368124	-0.7766433548	-0.2640603721	-0.45497
C	 1.1064597094	-0.4027985085	-0.9290711399	-0.279627
C	 2.0392494796	-0.5242295161	 0.3223489302	-0.238903
C	 2.8968793053	 0.6156143609	 0.5766077749	 0.315862
C	 3.57205431	 1.5770821082	 0.8436157849	-0.459794
C	 0.7389091752	-0.5273342333	 1.2126154634	 0.112949
O	 0.7359889186	 0.1795155061	 2.4158683792	-0.423842
H	 0.5811916114	 2.0584819512	 0.1478500119	 0.119882
H	-0.8220245453	 1.8256760468	-0.8986593155	 0.110669
H	-1.008380899	 1.7499300126	 0.8636774467	 0.122916
H	-1.8488751553	-0.4902953412	-1.2219873447	 0.112539
H	-1.2308289865	-1.8591352959	-0.2857971418	 0.106512
H	-2.1325904093	-0.5669617058	 0.5230178382	 0.12122
H	 0.9745762849	-1.3703840237	-1.4197978739	 0.101394
H	 1.408274147	 0.3340097324	-1.675659228	 0.109942
H	 2.6277582772	-1.4443218929	 0.3773498386	 0.103503
H	 4.1960114919	 2.4116417252	 1.0493273591	 0.201632
H	 0.4633050169	-1.5584878254	 1.4561623812	 0.08459
H	 1.2885673375	 0.9633443295	 2.2989206493	 0.28521
83.2548	130.323	177.583	205.4413	223.1555	249.3392	284.7463	341.4139	353.6589	359.3649	403.0784	470.8244	525.7787	596.3767	620.6092	640.662	701.227	765.0013	797.7854	843.5307	889.3455	945.5967	961.2885	987.3931	1020.2604	1041.9154	1121.5989	1142.8034	1155.099	1200.6096	1227.5893	1246.5585	1268.4594	1285.9087	1342.4255	1343.5429	1400.1545	1418.6693	1439.3715	1480.3707	1484.929	1489.4631	1501.6904	1511.3091	2218.5886	3018.6523	3032.3918	3053.3105	3061.1148	3071.2162	3086.2932	3089.7361	3099.2569	3111.1266	3123.5683	3501.2197	3757.6896
CC1(C)CC(C#C)C1O	CC1(C)C[C@@H](C#C)[C@H]1O	
InChI=1S/C8H12O/c1-4-6-5-8(2,3)7(6)9/h1,6-7,9H,5H2,2-3H3	InChI=1S/C8H12O/c1-4-6-5-8(2,3)7(6)9/h1,6-7,9H,5H2,2-3H3/t6-,7-/m1/s1
