16
gdb 20142	5.29421	1.4055	1.26549	2.6139	64.31	-0.2557	0.0785	0.3342	961.3747	0.130318	-383.669609	-383.662716	-383.661772	-383.701169	25.868	
C	 0.144663411	 1.5029143463	-0.0394681798	-0.18455
O	 1.2277684512	 0.5735016743	-0.0742601172	-0.240419
C	-0.1080653254	 0.056828094	-0.0130449574	 0.085348
C	-0.4850774781	-0.6648277435	 1.2486426836	-0.040486
C	-2.0115563563	-0.9721588508	 1.5045465611	-0.282576
C	-1.6605961194	-2.4654662352	 1.5137658891	 0.038676
O	-1.0603537227	-2.7613377242	 0.2466936621	-0.244103
C	-0.2368147675	-2.1881759166	 1.2694159557	 0.012312
H	 0.0548533906	 2.0816787956	 0.879633737	 0.108869
H	-0.0214252923	 2.0655544037	-0.9572163213	 0.115038
H	-0.4432668983	-0.424249552	-0.9316696263	 0.107914
H	-0.0288915211	-0.1696750074	 2.1101795358	 0.085543
H	-2.3516073	-0.5918059637	 2.470149516	 0.110784
H	-2.7138167091	-0.6692134169	 0.7237517064	 0.112491
H	-2.1459098317	-3.2831828378	 2.0328868815	 0.107083
H	 0.6590173691	-2.7304029056	 1.5476397337	 0.108076
76.7888	139.5159	184.5847	327.5744	383.2017	430.4387	580.7083	738.8504	791.4388	842.6934	848.8797	865.8173	908.6176	924.5166	929.0428	974.5247	1014.1741	1021.4097	1052.2252	1104.1107	1123.8603	1154.5015	1176.5213	1191.9054	1220.6058	1235.8387	1239.2459	1274.4166	1289.7042	1293.6156	1386.0935	1453.444	1474.5948	1529.7542	3066.4647	3077.0031	3078.9452	3120.4343	3126.2099	3164.2568	3185.5088	3200.7752
C1OC1C1CC2OC12	C1O[C@H]1[C@H]1C[C@H]2O[C@@H]12	
InChI=1S/C6H8O2/c1-3(5-2-7-5)6-4(1)8-6/h3-6H,1-2H2	InChI=1S/C6H8O2/c1-3(5-2-7-5)6-4(1)8-6/h3-6H,1-2H2/t3-,4-,5-,6+/m1/s1
