17
gdb 24438	3.43884	1.61666	1.14169	2.645	73.83	-0.19	0.0451	0.2351	1033.9408	0.140353	-418.054089	-418.04719	-418.046246	-418.085265	27.593	
C	 0.0007581638	 1.5110725758	-0.0040057684	-0.224262
C	 1.430524479	 2.0638258882	 0.0522960507	-0.081944
O	 2.1320234647	 1.6805558151	 1.2533360579	-0.280256
C	 1.9138239898	 0.3777515344	 1.5257225743	 0.391833
C	 0.9844767679	-0.4827403163	 1.0134792668	 0.164191
C	-0.0234214399	-0.034650845	 0.0044347349	-0.329013
N	 1.1367063062	-1.7259237985	 1.5976928753	-0.323447
C	 2.1334546157	-1.6028393201	 2.4387491123	-0.013672
N	 2.6547333927	-0.327167502	 2.4374238995	-0.365503
H	-0.5530189921	 1.8938666251	 0.8608890006	 0.116562
H	-0.4851226436	 1.9080806776	-0.9013747855	 0.103702
H	 2.0099981598	 1.7093164044	-0.8115874725	 0.109629
H	 1.43682553	 3.1557390797	 0.0538737317	 0.116241
H	-1.0264809707	-0.3959527893	 0.2562255691	 0.116028
H	 0.2036313231	-0.4276847305	-0.9959870767	 0.107245
H	 2.5290247491	-2.3770579078	 3.0780622918	 0.125051
H	 3.4205177643	 0.0286338193	 2.9840102482	 0.267617
120.4318	218.8166	305.3301	342.4451	399.2594	456.6018	467.3378	523.9535	668.5812	681.3831	702.8429	719.409	761.4629	865.0905	884.773	919.9708	953.9792	999.7308	1058.0731	1085.7474	1094.8381	1174.719	1201.5019	1216.8665	1271.3722	1287.2041	1296.5746	1367.1785	1370.1036	1380.3231	1404.4617	1473.4896	1482.2542	1493.597	1507.4154	1535.4214	1662.1171	3009.2699	3013.0712	3041.1553	3063.9493	3088.7905	3111.0546	3255.7692	3670.3064
C1COC2=C(C1)N=CN2	C1COc2c(C1)nc[nH]2	
InChI=1S/C6H8N2O/c1-2-5-6(9-3-1)8-4-7-5/h4H,1-3H2,(H,7,8)	InChI=1S/C6H8N2O/c1-2-5-6(9-3-1)8-4-7-5/h4H,1-3H2,(H,7,8)
