18
gdb 74226	2.24954	1.58875	1.00808	4.7711	78.68	-0.2195	-0.0258	0.1937	1166.9664	0.149144	-439.10736	-439.099061	-439.098117	-439.140257	31.917	
N	 0.1067315793	 1.2606766455	-0.6860879273	-0.558623
C	-0.0286440306	 0.0466676388	-0.0568780315	 0.366278
C	-1.2240174285	-0.582501979	 0.0589465769	-0.275704
C	-1.4550019856	-1.9385101714	 0.5474123759	 0.384323
O	-2.5819471933	-2.3486035078	 0.7761654581	-0.356141
C	-0.253279827	-2.8785974231	 0.6772287444	-0.353261
C	 0.7764556595	-2.4828597247	 1.7428305859	-0.071788
O	 1.1447613216	-1.1105677667	 1.7399222499	-0.23312
C	 1.2839447418	-0.5104232291	 0.4776725857	-0.181487
H	 0.8479881297	 1.8712067575	-0.3785585015	 0.255883
H	-0.7403625551	 1.7412191598	-0.9495805266	 0.261198
H	-2.1293638527	-0.0537733781	-0.2287301483	 0.080145
H	-0.6401427108	-3.8722781195	 0.916896977	 0.122507
H	 0.2368748931	-2.9460509105	-0.3018298705	 0.112993
H	 0.3707204278	-2.6629873336	 2.7427685853	 0.125532
H	 1.6727911218	-3.1123546298	 1.6252113148	 0.094176
H	 1.7380908076	-1.1899882494	-0.2598580385	 0.119498
H	 1.9890791614	 0.3199085809	 0.6075434105	 0.107591
76.7076	150.1357	191.0352	260.2214	317.3851	354.6033	399.6649	409.8003	494.3998	516.5014	551.2821	554.0078	628.2145	708.3593	786.8091	863.8421	876.0779	887.4221	954.3711	1005.0551	1028.6409	1069.3296	1120.2079	1152.5735	1234.2322	1248.1215	1260.0984	1301.9264	1310.3895	1356.2597	1379.8044	1409.1791	1428.3701	1466.2307	1490.692	1511.2158	1642.358	1678.5534	1743.2415	2977.7611	2988.6141	3035.87	3045.7838	3082.2514	3108.2564	3158.6207	3571.4765	3680.8095
NC1=CC(=O)CCOC1	NC1=CC(=O)CCOC1	
InChI=1S/C6H9NO2/c7-5-3-6(8)1-2-9-4-5/h3H,1-2,4,7H2	InChI=1S/C6H9NO2/c7-5-3-6(8)1-2-9-4-5/h3H,1-2,4,7H2
