17
gdb 44967	2.60174	1.81254	1.62315	4.6609	66.8	-0.2627	0.0109	0.2736	906.1382	0.139408	-459.010759	-459.004122	-459.003178	-459.041675	26.696	
O	-0.0128159378	 0.0053986198	-0.2687059256	-0.345645
C	 0.0196537451	 1.1804503345	-0.0616530422	 0.460348
O	-1.1083963599	 1.9340236263	 0.1259171792	-0.229183
C	-0.7109931274	 3.2925930017	 0.4209893176	 0.078838
C	 0.597040566	 3.4529583484	-0.3634160437	-0.247704
C	 1.2288996116	 2.118758258	 0.0534826777	-0.18609
C	 1.6117686278	 2.2119079787	 1.5451145212	-0.083186
O	 0.464019435	 2.3958652906	 2.3624158029	-0.249194
C	-0.429818383	 3.4069655968	 1.9251854278	-0.082129
H	-1.5237361842	 3.9535441558	 0.115199762	 0.098203
H	 0.4094874781	 3.5067802629	-1.4390161813	 0.119589
H	 1.1755308994	 4.3284596095	-0.0575243042	 0.109456
H	 2.0654091533	 1.7685338518	-0.5508879355	 0.103301
H	 2.0732316846	 1.2838212787	 1.8911717465	 0.134849
H	 2.3323869366	 3.0346213168	 1.6829217175	 0.096479
H	-0.0364080183	 4.4146680247	 2.1398794219	 0.093743
H	-1.3459253069	 3.262231215	 2.5031261082	 0.128324
139.5902	238.0495	265.6526	367.5155	418.0364	471.9119	498.2776	584.8833	694.5602	754.0685	795.8656	833.3427	859.645	890.458	931.9606	945.5716	982.2438	1011.5918	1051.7277	1057.3625	1087.3199	1117.138	1159.6918	1189.6032	1213.7977	1267.207	1270.5368	1317.1279	1326.0333	1346.4254	1366.4196	1386.6836	1414.509	1489.6729	1493.1682	1506.3758	1898.1131	2970.0317	2975.3249	3061.7058	3098.4763	3101.0716	3107.1462	3113.21	3123.9616
O=C1OC2CC1COC2	O=C1O[C@@H]2C[C@H]1COC2	
InChI=1S/C6H8O3/c7-6-4-1-5(9-6)3-8-2-4/h4-5H,1-3H2	InChI=1S/C6H8O3/c7-6-4-1-5(9-6)3-8-2-4/h4-5H,1-3H2/t4-,5+/m0/s1
