19
gdb 111011	2.60614	1.50067	1.18067	2.249	71.19	-0.2323	0.0661	0.2984	1104.2122	0.159058	-460.120489	-460.112146	-460.111202	-460.153357	32.181	
C	 0.0864854923	 1.2885464584	 0.1378141862	-0.241684
O	-0.2956500571	-0.0048892859	-0.2871052624	-0.269935
C	 0.5362971266	-0.5461716926	-1.2778524343	 0.076959
C	 1.8268607255	-1.3005597063	-0.8278110311	 0.051097
C	 0.9143084615	-2.4262511838	-0.2955940251	-0.311762
C	 0.1010148715	-2.016831273	-1.5766178184	 0.336051
O	-1.2107400891	-2.3664846259	-1.8328662501	-0.483823
C	 1.1112998337	-2.370325516	-2.6685164102	-0.110325
O	 2.310663339	-1.8069907916	-2.0847510045	-0.279153
H	 1.0761220307	 1.287927333	 0.6156212374	 0.114357
H	 0.1079622219	 1.9958320693	-0.704287714	 0.114545
H	-0.6579062716	 1.6230010084	 0.8639695474	 0.130392
H	 0.6566477141	 0.1409511804	-2.127458439	 0.069741
H	 2.6415704608	-0.8517878185	-0.2642955401	 0.083211
H	 1.3334310416	-3.4331992855	-0.2491566961	 0.10061
H	 0.398342683	-2.1568701175	 0.6251732003	 0.112842
H	-1.757323376	-1.9020401474	-1.187699784	 0.292509
H	 1.22406163	-3.4499986631	-2.8188949878	 0.107463
H	 0.8907392117	-1.8918351625	-3.6288948044	 0.106905
82.8282	142.812	181.8676	258.3917	290.913	345.425	376.4054	397.5916	446.9116	513.6047	554.6017	617.0626	675.3644	847.4257	882.6213	902.9431	931.483	967.8206	992.5595	1013.5696	1023.405	1079.0641	1099.7675	1128.5119	1155.5728	1162.2025	1183.4902	1194.0468	1220.8894	1236.5879	1244.4087	1265.7099	1298.5124	1344.1323	1393.4009	1419.9802	1477.5162	1486.4226	1489.297	1508.1912	1533.1921	2988.6615	3008.8932	3030.3454	3041.8826	3074.863	3083.5912	3120.2606	3150.9876	3159.8132	3792.427
COC1C2CC1(O)CO2	CO[C@H]1[C@H]2C[C@]1(O)CO2	
InChI=1S/C6H10O3/c1-8-5-4-2-6(5,7)3-9-4/h4-5,7H,2-3H2,1H3	InChI=1S/C6H10O3/c1-8-5-4-2-6(5,7)3-9-4/h4-5,7H,2-3H2,1H3/t4-,5+,6+/m1/s1
