19
gdb 24581	4.75179	1.00749	0.95694	0.3923	83.33	-0.2105	0.0195	0.23	1292.6751	0.161399	-385.912672	-385.904961	-385.904016	-385.945627	29.674	
C	-0.0580673803	 1.5054309393	-0.1146334617	-0.215675
C	 1.4926210942	 1.5016602785	-0.0877838247	-0.225587
C	 1.4427379539	 0.090517839	 0.5843438417	-0.079359
C	-0.0270567204	-0.0347290024	 0.0651285224	-0.225584
C	 2.44112787	-0.9343200071	 0.2095560858	 0.372044
C	 3.3023997852	-1.7155152031	 0.9198029599	-0.290882
C	 4.0167066327	-2.5161426204	-0.0309990131	-0.168501
C	 3.5361966414	-2.1636722346	-1.249976747	-0.022437
O	 2.5796666634	-1.2040961399	-1.1248874264	-0.184657
H	-0.4770025343	 2.0071147626	 0.7626337818	 0.100685
H	-0.5478053271	 1.9010321146	-1.0069294283	 0.098144
H	 1.9143912779	 1.4320126902	-1.0936579279	 0.114338
H	 2.0053225641	 2.2977437482	 0.4572796122	 0.097451
H	 1.4515143146	 0.1902236071	 1.6733980973	 0.078244
H	-0.7570152919	-0.4949757932	 0.7352317851	 0.097446
H	-0.0506824225	-0.554662939	-0.8959305111	 0.11433
H	 3.4146841305	-1.7196569478	 1.9929783985	 0.103533
H	 4.7803928405	-3.2509524491	 0.1704713811	 0.108083
H	 3.7529340181	-2.4789942028	-2.2572724157	 0.128384
57.9466	111.3159	130.4973	230.4835	372.8514	390.7081	564.1551	614.2961	696.9477	716.7698	741.612	786.2782	805.3138	846.4575	853.0731	900.1052	906.397	934.84	939.0837	950.0488	1007.8975	1026.8656	1034.3783	1094.4189	1129.6383	1186.7314	1202.5074	1226.8554	1245.9589	1251.6006	1254.7783	1260.7961	1277.3892	1281.5128	1353.1233	1418.4056	1475.2925	1487.9089	1508.1105	1542.7165	1635.1658	3057.7305	3060.8093	3066.0572	3068.7489	3103.9368	3116.9842	3128.0682	3248.1093	3259.74	3284.4273
C1CC(C1)C1=CC=CO1	C1CC(C1)c1ccco1	
InChI=1S/C8H10O/c1-3-7(4-1)8-5-2-6-9-8/h2,5-7H,1,3-4H2	InChI=1S/C8H10O/c1-3-7(4-1)8-5-2-6-9-8/h2,5-7H,1,3-4H2
