20
gdb 61561	2.87565	0.9916	0.88973	2.9046	75.91	-0.2335	0.0322	0.2657	1400.4938	0.16916	-440.300318	-440.290343	-440.289399	-440.33594	36.449	
C	-1.1559195936	 1.3128034865	-1.5018508661	-0.403727
C	-0.5675411096	 0.4672245034	-0.3744359916	 0.031531
O	-1.4567214958	-0.6198264842	-0.1237770818	-0.271335
C	-1.3755553988	-1.1353959634	 1.1763385844	 0.12729
C	-2.1615286629	-0.4666958757	 2.2729666082	-0.280169
C	-2.6096798704	-1.796238993	 1.6962951297	-0.289804
C	 0.8465676261	-0.0011569448	-0.7647699133	 0.364989
N	 0.9231042209	-1.307044757	-1.1358345143	-0.511561
O	 1.7899115923	 0.7657599939	-0.7578988379	-0.371899
H	-0.4683456381	 2.1245633342	-1.7485198382	 0.145284
H	-1.3132293901	 0.6996922693	-2.3945586943	 0.123987
H	-2.1178886919	 1.7323070469	-1.197037293	 0.120827
H	-0.4562016138	 1.0790106001	 0.5289953643	 0.103418
H	-0.4084373281	-1.5676408711	 1.4300876569	 0.095441
H	-1.7424342719	-0.4415164445	 3.2726123391	 0.118362
H	-2.7424173542	 0.4066200142	 1.9985497689	 0.122368
H	-3.474202311	-1.7813704687	 1.0426699737	 0.127065
H	-2.5046095287	-2.6932866366	 2.295709424	 0.116858
H	 0.0831012207	-1.8567535899	-1.2026002374	 0.270263
H	 1.7927488288	-1.6580569696	-1.5007074313	 0.260812
48.3269	73.5833	86.0747	169.3317	221.5979	230.6703	285.6687	317.9341	351.7996	404.756	466.9779	529.5523	568.8102	632.2353	754.0051	758.3704	801.2768	824.7291	826.2296	907.0218	981.122	1004.3975	1047.3962	1060.9132	1074.5338	1095.4981	1113.3634	1133.7899	1149.7657	1194.1394	1199.5697	1239.5862	1327.1174	1340.1589	1360.4459	1399.4331	1404.603	1453.9206	1487.3301	1495.9685	1498.6583	1590.7226	1802.9062	3040.1606	3048.269	3110.5058	3121.3521	3138.0323	3141.8438	3143.227	3222.3965	3236.4579	3597.9883	3738.2062
CC(OC1CC1)C(N)=O	C[C@@H](OC1CC1)C(=O)N	
InChI=1S/C6H11NO2/c1-4(6(7)8)9-5-2-3-5/h4-5H,2-3H2,1H3,(H2,7,8)	InChI=1S/C6H11NO2/c1-4(6(7)8)9-5-2-3-5/h4-5H,2-3H2,1H3,(H2,7,8)/t4-/m1/s1
