16
gdb 27298	3.30244	1.34338	0.96154	3.4726	77.44	-0.2077	-0.0287	0.179	1178.4127	0.125061	-437.943907	-437.935736	-437.934791	-437.976441	31.136	
C	 0.0523075438	 1.5019872832	 0.0309050394	-0.471968
C	-0.0331556323	 0.0100970317	-0.0053811598	 0.386196
C	-1.1602984108	-0.7223930282	-0.1683313346	-0.328333
C	-1.1361073054	-2.1683113092	-0.1815577994	 0.366769
O	-2.1214341043	-2.8960168241	-0.2904850194	-0.406075
C	 0.2157068789	-2.7524242483	-0.0325128857	 0.114596
N	 0.2648951437	-4.1292210796	-0.1139347866	-0.581737
C	 1.2757146003	-1.9297818027	 0.1314143451	-0.042488
O	 1.1715120571	-0.5686728613	 0.1500864671	-0.22147
H	 0.7039257544	 1.870216928	-0.7686520973	 0.147834
H	-0.9372577726	 1.9446771811	-0.0892594609	 0.14207
H	 0.4788894049	 1.8409188316	 0.9809978162	 0.146857
H	-2.1157281467	-0.2250068583	-0.2792326606	 0.112643
H	-0.6637533269	-4.5232280547	-0.0115892397	 0.264629
H	 0.981885168	-4.602199422	 0.4132100114	 0.247114
H	 2.3026772479	-2.2448913771	 0.2595149147	 0.123364
117.421	126.5961	193.3717	295.1503	327.0197	330.9639	386.0154	423.9224	450.2553	517.2486	581.261	600.2788	636.9357	741.3685	778.7213	786.9958	825.0281	884.9742	920.087	1030.1434	1063.9984	1109.2623	1183.0477	1221.4868	1245.3674	1307.0418	1404.3518	1417.0065	1447.2627	1472.0917	1485.0366	1604.1402	1649.8106	1689.8705	1726.5598	3041.5545	3097.2842	3147.385	3213.6196	3221.1125	3529.5614	3664.8931
CC1=CC(=O)C(N)=CO1	Cc1cc(=O)c(N)co1	
InChI=1S/C6H7NO2/c1-4-2-6(8)5(7)3-9-4/h2-3H,7H2,1H3	InChI=1S/C6H7NO2/c1-4-2-6(8)5(7)3-9-4/h2-3H,7H2,1H3
