18
gdb 52056	2.59795	1.17426	0.9225	3.4202	78.86	-0.2303	-0.0171	0.2132	1288.6992	0.144352	-401.88815	-401.878589	-401.877645	-401.92331	35.076	
O	 0.9684782494	 0.5105375256	 1.0758685754	-0.245522
C	 0.7060661782	 1.4619661335	 0.3887785856	 0.176984
C	 1.1233378483	 1.5925777869	-1.0727898447	-0.263187
N	 1.1816435256	 2.9816668052	-1.5081131249	-0.350275
C	 2.4196607992	 3.6674758259	-1.2067221165	 0.144801
C	 3.6852057764	 3.3702156002	-2.0170922029	-0.290791
C	 2.9366383921	 4.6601405585	-2.222860081	-0.316773
C	 2.5984549224	 3.9730552913	 0.19159968	 0.345484
C	 2.761717146	 4.2075414256	 1.3599465598	-0.471475
H	 0.0936748499	 2.3147491227	 0.7539196895	 0.090402
H	 2.0519423575	 1.021212552	-1.2256960008	 0.117902
H	 0.3340422361	 1.0904106793	-1.6486289101	 0.127496
H	 0.9722502558	 3.0629744573	-2.4941808469	 0.227249
H	 4.6408210809	 3.4025872329	-1.5075481019	 0.132207
H	 3.5986674846	 2.6042432711	-2.7805227302	 0.117541
H	 2.3538769723	 4.7794313686	-3.1310926562	 0.119073
H	 3.3707028768	 5.5790063924	-1.8483334225	 0.13608
H	 2.8971698486	 4.412494711	 2.3931145083	 0.202803
39.0781	65.2149	147.4576	180.0065	206.8116	239.6349	280.5754	377.2753	412.5784	520.5008	547.1763	584.3578	606.8098	640.7753	673.5639	700.0841	752.5701	780.0883	881.8308	932.7474	939.5968	978.2327	1040.8021	1053.2807	1083.2937	1109.0432	1120.3506	1190.687	1247.0351	1272.9834	1296.4293	1355.8398	1402.1764	1450.7635	1460.1731	1489.0583	1493.4331	1837.0691	2235.1338	2906.5436	2988.2489	3047.82	3132.3557	3138.1928	3221.2998	3235.7225	3501.5932	3566.844
O=CCNC1(CC1)C#C	O=CCNC1(CC1)C#C	
InChI=1S/C7H9NO/c1-2-7(3-4-7)8-5-6-9/h1,6,8H,3-5H2	InChI=1S/C7H9NO/c1-2-7(3-4-7)8-5-6-9/h1,6,8H,3-5H2
