19
gdb 79423	3.57358	1.24637	1.05032	3.1009	81.56	-0.2426	-0.0258	0.2168	1178.3925	0.158651	-385.827013	-385.818992	-385.818048	-385.859582	30.909	
C	-0.1599332817	 1.592770891	-0.0203229804	-0.424849
C	-0.0378336754	 0.0762650411	-0.0012023176	-0.006405
C	 1.1817064536	-0.5953652856	-0.6710975597	-0.090427
C	 2.1323344139	-0.2958432103	 0.5431260254	-0.053014
C	 2.6013586949	-1.7600847691	 0.650122276	-0.320703
C	 1.1165834827	-1.8654870798	 0.2749473552	 0.280827
C	 0.2941064269	-3.0785377149	 0.0581939144	 0.019913
O	 0.715234541	-4.2065846095	 0.1555417163	-0.253233
C	 0.7207582112	-0.6094293785	 1.1570234848	-0.090436
H	 0.7889504303	 2.0812272749	 0.2226701504	 0.117079
H	-0.4748139073	 1.9475113841	-1.0078255745	 0.119001
H	-0.906629081	 1.934338525	 0.7048867751	 0.119001
H	-1.000478168	-0.3871357168	-0.2474912868	 0.069133
H	 1.4691719669	-0.6223428132	-1.7242661449	 0.079643
H	 2.7123364854	 0.6139392819	 0.696367523	 0.079695
H	 3.3191976756	-2.1058133251	-0.0990020443	 0.103318
H	 2.8794849307	-2.1192273869	 1.6449448345	 0.103315
H	-0.7708298363	-2.8869810969	-0.2087189673	 0.0685
H	 0.4746351567	-0.6526699115	 2.2200768701	 0.07964
91.075	143.1636	208.9308	245.2989	248.6668	289.5143	391.3588	435.133	580.0726	679.3281	702.0645	771.5151	843.462	844.7902	854.911	873.3826	939.357	992.0302	1011.9399	1025.0038	1027.9446	1035.2037	1080.2288	1087.1546	1114.8209	1131.0988	1152.8384	1160.0217	1188.3274	1223.4423	1240.1183	1242.8131	1303.5471	1322.7837	1401.5172	1416.9373	1431.5987	1494.9154	1499.7382	1513.1288	1807.3421	2862.1927	3030.648	3036.0911	3052.236	3092.198	3093.1341	3093.6489	3104.8697	3110.6832	3117.544
CC1C2C3CC2(C=O)C13	C[C@H]1[C@H]2[C@@H]3C[C@@]2(C=O)[C@H]13	
InChI=1S/C8H10O/c1-4-6-5-2-8(6,3-9)7(4)5/h3-7H,2H2,1H3	InChI=1S/C8H10O/c1-4-6-5-2-8(6,3-9)7(4)5/h3-7H,2H2,1H3/t4-,5-,6-,7+,8-
