17
gdb 34884	2.34694	1.73309	1.23996	2.5109	76.27	-0.256	0.0163	0.2724	1034.6018	0.136625	-380.820295	-380.812634	-380.81169	-380.852479	29.665	
N	-0.1083110539	-1.2061938729	-0.0475086579	-0.33659
C	-0.0796525499	-0.0506934498	-0.0139826028	 0.290216
C	 0.0036816105	 1.402740206	 0.0268256424	-0.26902
C	-0.1721574937	 2.1016976848	 1.3837464946	-0.038566
C	 0.9406049881	 1.801666082	 2.301939186	-0.242112
N	 1.152784143	 2.8317247413	 1.26140933	-0.159432
C	 1.3974896453	 2.0717026218	 0.0097336966	 0.382041
C	 2.7223045938	 1.5167349796	-0.3949083529	-0.329077
C	 2.0962690194	 2.6701736261	-1.1601927154	-0.342835
H	-0.6507771071	 1.8275458696	-0.7385840366	 0.13471
H	-1.0812244198	 2.6076712954	 1.6873901526	 0.115164
H	 0.8802195932	 2.2190244848	 3.3017162794	 0.131422
H	 1.4732347299	 0.8572371363	 2.2256614022	 0.139007
H	 3.5684477058	 1.73635281	 0.247470819	 0.129996
H	 2.7453424603	 0.5372848212	-0.8610199225	 0.137739
H	 1.701847806	 2.4786989747	-2.1527704854	 0.122903
H	 2.5201644389	 3.6582024892	-1.0179124793	 0.134433
104.0889	126.5308	203.7992	261.0998	302.3012	389.2169	495.4006	506.0186	550.0265	623.8086	758.4357	768.9624	775.8664	803.5799	898.1336	920.3052	948.7424	976.9128	985.6989	1037.8618	1051.0861	1053.9233	1075.4769	1082.3399	1117.3613	1146.8114	1186.9499	1189.8973	1205.0523	1255.1959	1320.0572	1361.1603	1377.1109	1454.4898	1494.4462	1505.6124	2352.6228	3082.0605	3118.4919	3132.1036	3134.2544	3180.9008	3212.9231	3215.6429	3228.7167
N#CC1C2CN2C11CC1	N#C[C@H]1[C@H]2CN2C21CC2	
InChI=1S/C7H8N2/c8-3-5-6-4-9(6)7(5)1-2-7/h5-6H,1-2,4H2	InChI=1S/C7H8N2/c8-3-5-6-4-9(6)7(5)1-2-7/h5-6H,1-2,4H2/t5-,6+,9?/m0/s1
