21
gdb 110062	1.91361	1.76644	1.04108	1.1656	74.	-0.2511	0.0554	0.3065	1194.4428	0.182799	-461.359903	-461.350582	-461.349638	-461.394367	35.395	
C	 0.3189422795	 1.0496158253	 0.3993139824	-0.254256
O	-0.0711821412	-0.0010594522	-0.4747511728	-0.278955
C	-1.3668317527	-0.5390371106	-0.2043057705	 0.03396
C	-1.9292447983	-1.024357302	-1.5613661028	 0.144036
O	-1.6591673767	-0.1414515466	-2.6211198624	-0.44409
C	-1.3553613674	-2.4459526204	-1.6968097524	-0.248557
C	-1.5418108485	-3.0128191062	-0.282215749	-0.242955
C	-1.2545009229	-1.8278961654	 0.6844657647	 0.120475
O	 0.0092936759	-1.9175009434	 1.3162210878	-0.432892
H	 1.3069648178	 1.3847807646	 0.0740217224	 0.130356
H	-0.3833909465	 1.8920896807	 0.3383763492	 0.121268
H	 0.3761027838	 0.7005603645	 1.4365570264	 0.135606
H	-1.9912188729	 0.2383510906	 0.2494553989	 0.070292
H	-3.0216564343	-1.0913290879	-1.4769449506	 0.085853
H	-0.7661541623	 0.1887754886	-2.4558666087	 0.281991
H	-1.8526399365	-3.0260834265	-2.4774816353	 0.101547
H	-0.2921173686	-2.3784822944	-1.9584946937	 0.09901
H	-2.5752821838	-3.3545599809	-0.1507896185	 0.09792
H	-0.8868173134	-3.8543801337	-0.0465375332	 0.109377
H	-1.9882681112	-1.8024875361	 1.4947981147	 0.084878
H	 0.6521701701	-1.6037772277	 0.6673053137	 0.285136
36.3725	115.4273	174.7123	188.7386	238.7307	316.5854	320.3895	375.7733	430.3806	447.4943	469.7497	486.5184	558.7336	624.9574	756.3497	780.7253	832.9736	889.4442	928.5723	970.7375	1003.281	1037.8906	1068.1267	1113.5185	1125.479	1135.7545	1157.4033	1180.8201	1190.9426	1217.6082	1244.7708	1275.0985	1301.4966	1306.4174	1326.8651	1346.787	1372.2188	1385.2753	1439.0182	1446.1328	1477.7076	1482.3549	1487.6062	1496.593	1513.62	3004.9927	3024.0612	3034.552	3041.1866	3044.2688	3072.6608	3075.8571	3104.4243	3110.6965	3120.898	3762.1912	3767.6761
COC1C(O)CCC1O	CO[C@H]1[C@@H](O)CC[C@H]1O	
InChI=1S/C6H12O3/c1-9-6-4(7)2-3-5(6)8/h4-8H,2-3H2,1H3	InChI=1S/C6H12O3/c1-9-6-4(7)2-3-5(6)8/h4-8H,2-3H2,1H3/t4-,5+,6-
