17
gdb 50845	3.61744	0.95298	0.78657	4.8306	71.64	-0.2494	-0.0201	0.2293	1403.1915	0.136211	-455.154461	-455.145722	-455.144778	-455.188728	31.206	
N	 0.3638590975	 1.1259293825	-1.5575316534	-0.494972
C	-0.1475804938	 0.3540624784	-0.6916359728	 0.355569
C	-1.5953313711	-0.0877089793	-0.8008507221	-0.303386
C	-2.4143027677	 0.2336364437	 0.4309565593	 0.081858
C	-3.386418589	-0.7161200152	 0.9841726572	-0.178017
O	-2.1095683957	-0.5390045424	 1.6081133683	-0.243886
N	 0.5030856301	-0.2054841019	 0.43219043	-0.333674
C	 1.8148929602	-0.0271935206	 0.7877158175	 0.163704
O	 2.6383754853	 0.6119186946	 0.1702753703	-0.302309
H	 1.3469364507	 1.3018068176	-1.3444230368	 0.252313
H	-2.017339888	 0.4110231882	-1.6757701551	 0.14431
H	-1.6282973903	-1.1706827572	-0.9745423789	 0.118707
H	-2.5585185598	 1.2940209514	 0.6369599995	 0.116878
H	-4.232769225	-0.3524399827	 1.5631544452	 0.12909
H	-3.5360898221	-1.6746599229	 0.4899441444	 0.124634
H	-0.0838520427	-0.7295206	 1.0701270318	 0.274154
H	 2.0518106314	-0.5528509842	 1.7324110653	 0.095028
77.198	84.3495	102.9053	191.3446	239.909	269.6662	322.8891	355.8263	468.0826	509.7866	647.5122	714.0007	783.743	796.8037	867.1614	901.6774	943.1342	973.3111	980.3385	1029.1871	1072.8302	1101.1536	1119.5884	1159.0704	1173.7354	1207.7912	1244.2508	1289.8327	1311.9558	1360.7012	1436.2999	1439.215	1459.7099	1524.7767	1535.1964	1736.3682	1810.3378	2952.829	3035.4146	3093.4047	3115.6647	3127.6341	3183.9964	3479.4642	3559.6405
N=C(CC1CO1)NC=O	N=C(C[C@H]1CO1)NC=O	
InChI=1S/C5H8N2O2/c6-5(7-3-8)1-4-2-9-4/h3-4H,1-2H2,(H2,6,7,8)	InChI=1S/C5H8N2O2/c6-5(7-3-8)1-4-2-9-4/h3-4H,1-2H2,(H2,6,7,8)/t4-/m0/s1
