18
gdb 128812	4.757	0.83934	0.75272	2.5178	76.03	-0.248	0.0111	0.2592	1546.0713	0.147757	-435.288405	-435.278948	-435.278004	-435.324945	32.113	
C	 0.1043850902	 1.3338590207	-0.0553307819	-0.218309
O	 0.1144803767	-0.0727552318	-0.0699894309	-0.231878
C	 0.5748735073	-0.6188745055	 1.1511536419	-0.163901
C	 0.6168491992	-2.1065638935	 1.0365196529	 0.329515
N	-0.2639524727	-2.8836766897	 1.6466351153	-0.260336
N	 0.1414821529	-4.1195385938	 1.2678799394	-0.230863
C	 1.2277839964	-4.0446613965	 0.462980665	 0.348949
C	 1.9199501603	-5.2261542009	-0.127728019	-0.50475
N	 1.5552312234	-2.7759641932	 0.3018034175	-0.326883
H	 1.1114644351	 1.7494812219	 0.1109746154	 0.102638
H	-0.2579611229	 1.6668419114	-1.0308920339	 0.126608
H	-0.5623887867	 1.7325480116	 0.726523317	 0.101521
H	 1.5843159186	-0.2405487413	 1.3798268173	 0.09927
H	-0.0913893947	-0.3423288733	 1.9821233377	 0.10432
H	-0.3573522441	-4.9305029973	 1.595316266	 0.27575
H	 1.2627423977	-5.7785858978	-0.8078588735	 0.143452
H	 2.7860284668	-4.8780196131	-0.6911076489	 0.165499
H	 2.2620215166	-5.922347018	 0.6453639528	 0.139399
23.2231	47.3281	82.6212	105.1963	225.2798	241.5808	277.706	344.4661	399.12	421.9728	543.9917	662.1074	701.3242	746.7217	838.6811	984.2637	988.9771	1008.7532	1028.1592	1065.9175	1078.6329	1148.6878	1172.3739	1183.7235	1223.0325	1250.1238	1296.7487	1380.1741	1405.7751	1418.4155	1442.1941	1476.6076	1483.748	1484.521	1495.9674	1501.1458	1517.6411	1541.4299	1593.9829	2961.7276	2975.9729	3006.2486	3016.241	3041.1653	3095.0893	3114.3045	3154.3445	3660.5664
COCC1=NNC(C)=N1	COCc1n[nH]c(C)n1	
InChI=1S/C5H9N3O/c1-4-6-5(3-9-2)8-7-4/h3H2,1-2H3,(H,6,7,8)	InChI=1S/C5H9N3O/c1-4-6-5(3-9-2)8-7-4/h3H2,1-2H3,(H,6,7,8)
