16
gdb 97019	2.70231	1.44344	0.97125	3.3215	75.61	-0.2606	-0.0591	0.2016	1178.1765	0.124016	-437.937453	-437.929099	-437.928154	-437.971361	29.89	
C	-0.2112990503	 1.4412822687	 0.0248732228	-0.337246
N	-0.1850389067	-0.0061127684	-0.0999214353	-0.274356
C	 0.5830640569	-0.5780523948	-0.9128648553	 0.398401
C	 0.5866653402	-2.0781843577	-1.0703387397	-0.358291
C	 1.9187197882	-2.6115518129	-1.495105138	-0.058649
C	 2.8470072224	-1.819415697	-2.0316585254	-0.190467
C	 2.5988882174	-0.3881854755	-2.2691156364	 0.418204
O	 3.3262052519	 0.3402189563	-2.8836666757	-0.316182
O	 1.4305589668	 0.137140702	-1.7504609748	-0.251186
H	 0.5583559912	 1.9615745759	-0.5527448767	 0.13754
H	-1.1962829726	 1.8021662833	-0.2923912192	 0.133784
H	-0.1070095394	 1.6999013619	 1.0837270032	 0.13119
H	 0.2518949335	-2.5174815927	-0.1275678473	 0.155466
H	-0.1685543015	-2.3650800125	-1.8186140349	 0.154379
H	 2.098804494	-3.6761667986	-1.3768310012	 0.126471
H	 3.8106373081	-2.1774000478	-2.3717273263	 0.130942
64.2638	70.804	114.9233	222.5586	244.6547	317.7653	415.9232	475.2676	513.3547	568.0061	605.3648	662.5245	701.0565	831.4566	906.6438	944.0461	961.5263	970.5431	1021.5674	1047.2554	1100.4973	1133.4447	1160.309	1194.1376	1212.3003	1289.6424	1351.5254	1402.2561	1437.2142	1448.583	1491.7252	1497.0352	1703.5315	1785.1433	1848.9291	2998.3748	3028.1981	3086.6978	3102.3789	3108.3895	3175.7073	3221.1759
CN=C1CC=CC(=O)O1	CN=C1CC=CC(=O)O1	
InChI=1S/C6H7NO2/c1-7-5-3-2-4-6(8)9-5/h2,4H,3H2,1H3	InChI=1S/C6H7NO2/c1-7-5-3-2-4-6(8)9-5/h2,4H,3H2,1H3
