17
gdb 17745	3.88697	2.60449	2.13663	1.7056	70.19	-0.2191	0.0878	0.3069	712.5228	0.143687	-326.642328	-326.636322	-326.635378	-326.671898	25.191	
C	-0.0633871248	 1.4713618764	 0.0236591924	-0.49654
C	 0.0159894017	-0.027561892	-0.0401089919	 0.357207
C	 0.2344199532	-0.8193255399	-1.3476235103	-0.282905
C	-0.5041447559	-1.9247516215	-0.578974159	-0.010788
C	 0.2847345092	-2.2486409867	 0.6979587312	-0.091554
C	-0.6387484427	-1.3959934787	 1.5146449474	-0.030759
C	 0.6817377669	-0.8172560736	 1.1050363977	-0.136701
N	-1.2686182291	-0.8596603523	 0.237505738	-0.214829
H	 0.9205528496	 1.9196565263	-0.1580123669	 0.115904
H	-0.7608673883	 1.8557851759	-0.7265861613	 0.12404
H	-0.4074340688	 1.7999445781	 1.0100744562	 0.12365
H	-0.3778986093	-0.4169540524	-2.1600726267	 0.107611
H	 1.2558003316	-1.0039631122	-1.6898986433	 0.095741
H	-1.0811240266	-2.7079212894	-1.0707301218	 0.07418
H	 0.8595345226	-3.1226747506	 0.975032422	 0.088037
H	-1.1369604607	-1.5294607851	 2.4663794841	 0.092983
H	 1.5610500013	-0.5915929422	 1.6949850022	 0.084723
216.4519	266.5219	280.8143	416.6423	543.8707	595.4016	739.7419	777.2246	795.2456	810.1201	820.7139	837.8761	855.7711	906.1714	919.1102	939.5897	979.0759	1004.4945	1016.7641	1017.4657	1046.6614	1054.9392	1079.4392	1133.613	1169.2311	1205.5316	1207.7391	1229.2479	1262.7634	1296.8632	1321.7447	1364.6901	1412.0953	1476.1948	1483.0684	1490.2577	3028.1439	3055.674	3094.1948	3107.8934	3113.3247	3117.7755	3184.7134	3190.4752	3206.0394
CC12CC3C4C(C14)N23	C[C@@]12C[C@H]3[C@@H]4[C@@H]([C@H]14)N23	
InChI=1S/C7H9N/c1-7-2-3-4-5(7)6(4)8(3)7/h3-6H,2H2,1H3	InChI=1S/C7H9N/c1-7-2-3-4-5(7)6(4)8(3)7/h3-6H,2H2,1H3/t3-,4-,5+,6-,7+/m0/s1
