18
gdb 10313	2.47655	1.74787	1.09404	4.3617	69.12	-0.253	0.0274	0.2804	1097.0902	0.152029	-381.116159	-381.10642	-381.105475	-381.150682	33.927	
C	 0.1511448795	 1.416580229	 0.0490281206	-0.250207
O	-0.1343989349	 0.0432624647	-0.153969452	-0.236573
C	 0.5987239658	-0.5572297855	-1.1937399244	 0.010104
C	 2.0408980031	-0.6144775778	-0.8601869506	 0.295484
N	 3.1522553843	-0.603843031	-0.5443871173	-0.336002
C	 0.034454434	-1.9729909117	-1.4505468814	 0.002118
C	-1.4794940084	-1.9232402428	-1.6804800552	-0.401872
N	 0.8068425248	-2.556344662	-2.5480976978	-0.507181
H	 1.1943720504	 1.5725981907	 0.3524926965	 0.139185
H	-0.0458200489	 2.0034010065	-0.8604831431	 0.111451
H	-0.5107408028	 1.7594199305	 0.8464069287	 0.136852
H	 0.5019339502	 0.0306032677	-2.1240241795	 0.101164
H	 0.2436387982	-2.5632249479	-0.5516209826	 0.109439
H	-1.8647066841	-2.935032629	-1.8400575509	 0.11249
H	-2.0000007321	-1.4784463294	-0.829866946	 0.14072
H	-1.7142438105	-1.3285764755	-2.5723629746	 0.108126
H	 0.7187740635	-3.5663074957	-2.5443730912	 0.23812
H	 0.4440781081	-2.2373535307	-3.4424737193	 0.226582
66.0547	103.0542	145.0771	180.2562	189.3132	209.5757	237.2017	279.6731	334.11	383.5376	441.9011	450.7016	542.5558	612.8806	837.0474	860.62	916.0194	983.6795	999.8326	1036.8694	1111.9886	1146.4449	1180.2166	1184.9885	1198.8382	1249.0615	1312.2162	1350.6948	1373.6155	1398.0197	1407.21	1479.5365	1487.0449	1488.8424	1501.1285	1509.2449	1662.3247	2355.1935	2950.5263	2992.4571	3027.2565	3057.2667	3057.688	3098.2303	3131.8449	3133.4287	3494.6317	3583.0811
COC(C#N)C(C)N	CO[C@@H](C#N)[C@@H](C)N	
InChI=1S/C5H10N2O/c1-4(7)5(3-6)8-2/h4-5H,7H2,1-2H3	InChI=1S/C5H10N2O/c1-4(7)5(3-6)8-2/h4-5H,7H2,1-2H3/t4-,5+/m1/s1
