20
gdb 103716	2.84383	1.19747	0.99011	5.2511	80.76	-0.2283	0.0276	0.2559	1261.8956	0.169304	-399.308883	-399.298489	-399.297544	-399.343907	38.253	
C	 0.1131171628	 1.3150531312	-0.3792337851	-0.32206
N	-0.1244411115	 0.0463295306	 0.3043466619	-0.326732
C	-1.454913793	-0.4833883298	 0.1594448369	 0.305535
C	-2.4842395279	 0.2086626868	 1.0289226986	-0.439646
C	-1.9007735748	-1.0671486851	-1.1671836415	-0.358937
C	-1.5319171674	-2.0135822815	-0.0316040199	 0.072541
N	-0.3625465208	-2.8410111535	-0.1626418224	-0.567964
C	-2.6219365242	-2.7029709236	 0.6316992014	 0.301428
N	-3.4867424353	-3.2421051674	 1.178980764	-0.35782
H	 1.1682760852	 1.5822287654	-0.2752929501	 0.12257
H	-0.1388349253	 1.3011289645	-1.4535505047	 0.098405
H	-0.4736814354	 2.11104947	 0.0890181859	 0.131844
H	 0.5521970926	-0.6419964043	-0.0040885712	 0.198569
H	-2.6105567784	 1.2515143106	 0.7195823948	 0.119359
H	-3.4600264054	-0.2767817138	 0.9631113988	 0.14028
H	-2.1600263776	 0.2005710957	 2.0732839101	 0.134308
H	-2.9445529999	-1.0112625646	-1.4547739095	 0.137197
H	-1.2033971134	-1.0401982363	-1.999368271	 0.116299
H	 0.1549376301	-2.6779691283	-1.0140597538	 0.243102
H	 0.2510590996	-2.8000970666	 0.6423704167	 0.251723
64.4473	104.8157	142.0446	179.7024	206.2655	218.1572	255.5106	262.3888	303.5825	390.6016	414.9806	452.5139	460.1965	578.3185	611.1964	651.2843	699.1449	726.9974	772.3561	862.0729	912.0932	943.7603	962.8215	1055.8215	1075.4765	1097.3729	1108.0224	1156.2463	1171.4033	1216.1143	1281.6401	1331.7582	1340.0758	1417.692	1457.5534	1465.172	1479.6501	1481.1559	1495.784	1508.5065	1521.6516	1643.807	2349.355	2958.5058	3043.304	3072.5457	3107.1644	3113.9141	3126.0302	3135.5135	3219.0397	3532.5871	3535.3578	3642.1765
CNC1(C)CC1(N)C#N	CN[C@@]1(C)C[C@]1(N)C#N	
InChI=1S/C6H11N3/c1-5(9-2)3-6(5,8)4-7/h9H,3,8H2,1-2H3	InChI=1S/C6H11N3/c1-5(9-2)3-6(5,8)4-7/h9H,3,8H2,1-2H3/t5-,6-/m0/s1
