21
gdb 110395	5.41883	0.95592	0.94172	1.0057	84.05	-0.2439	0.0926	0.3365	1357.8207	0.181876	-387.006318	-386.997781	-386.996837	-387.039559	32.646	
C	-0.3397455169	 1.3581213281	 0.1383070921	-0.238041
O	 0.3595197359	 0.1640256896	-0.1299569034	-0.256482
C	 0.8621652398	-0.455836214	 1.023525919	 0.140261
C	-0.0704567616	-1.3697881571	 1.8472029842	-0.095089
C	 0.0103449815	-2.5191460056	 0.7802529493	-0.043412
C	 0.396984534	-3.5656031861	 1.8502228545	 0.003054
C	 1.1981838544	-4.7948653139	 1.4497609304	-0.420084
C	 1.135097367	-2.2751055914	 2.2772812464	-0.06151
C	 1.4358807539	-1.8539477564	 0.794030702	-0.097443
H	 0.2977436645	 2.0958440252	 0.651139149	 0.102593
H	-0.6563060306	 1.7743330636	-0.8212002778	 0.125376
H	-1.2312438765	 1.1852392503	 0.7599470769	 0.105154
H	 1.4839771418	 0.2455417185	 1.604108893	 0.054745
H	-0.9350376248	-1.1263081226	 2.4666557732	 0.066148
H	-0.6333006099	-2.6305262625	-0.0918990977	 0.075086
H	-0.4295074532	-3.8418964668	 2.518270743	 0.059349
H	 2.0279722807	-4.5384846879	 0.7830502552	 0.1143
H	 1.619300968	-5.2948999739	 2.3292713084	 0.113024
H	 0.5657012602	-5.5230663841	 0.929656361	 0.114287
H	 1.7889131943	-2.1041037874	 3.1348211169	 0.065246
H	 2.2990709874	-2.1365952257	 0.1920572944	 0.07344
74.9774	132.7328	164.42	207.669	214.6081	280.2702	307.4396	443.3253	495.4266	583.0886	736.5224	757.6554	840.9289	846.1042	848.5918	859.0695	919.0324	947.2349	972.4888	1001.0909	1020.8429	1040.8954	1052.6498	1100.3485	1119.3977	1126.7711	1139.6826	1151.6047	1166.5817	1171.001	1183.4842	1187.632	1223.8612	1243.11	1254.5663	1291.5182	1312.2506	1394.2752	1404.0414	1413.0444	1482.5627	1487.0489	1494.1817	1497.9437	1508.7557	2964.99	2975.5864	3016.8582	3019.4887	3027.5282	3088.4018	3089.2279	3099.2081	3101.9936	3112.4466	3113.5885	3124.1729
COC1C2C3C(C)C2C13	CO[C@H]1[C@H]2[C@@H]3[C@@H](C)[C@H]2[C@H]13	
InChI=1S/C8H12O/c1-3-4-6-5(3)7(4)8(6)9-2/h3-8H,1-2H3	InChI=1S/C8H12O/c1-3-4-6-5(3)7(4)8(6)9-2/h3-8H,1-2H3/t3-,4-,5+,6-,7+,8-/m1/s1
