21
gdb 87523	3.29908	1.33718	1.26721	1.6906	82.22	-0.2505	0.0951	0.3456	1119.3092	0.18398	-387.069762	-387.061852	-387.060908	-387.101859	31.826	
C	 0.028059647	 1.5143487135	-0.1270868572	-0.415396
C	 0.0094755014	 0.0201979467	 0.0630947862	-0.08065
O	 1.2863984254	-0.6602263606	-0.042520957	-0.328519
C	 0.6188523529	-0.6556025648	 1.2018437747	 0.544616
C	 1.1593844397	-0.1333271453	 2.5416159719	-0.130643
C	-0.0775629486	-0.8597616313	 3.1546830498	-0.230071
C	 0.1819032041	-1.8860381807	 2.0086785365	-0.130979
C	 1.5545506337	-2.4726796729	 2.4047519351	-0.212583
C	 2.2930408561	-1.1483229142	 2.8088075312	-0.211119
H	 0.8538333305	 1.9682526337	 0.4260731557	 0.12701
H	 0.1452902332	 1.7651042233	-1.1865833733	 0.128931
H	-0.9122786377	 1.9569489577	 0.2198778316	 0.120399
H	-0.7952802586	-0.5018917183	-0.4589208536	 0.089349
H	 1.3646713752	 0.9209907997	 2.7239974754	 0.064369
H	 0.0162945938	-1.2229914233	 4.1813900376	 0.092935
H	-1.0080481172	-0.3026012735	 3.0281120526	 0.098796
H	-0.5867557519	-2.5727099278	 1.6550243356	 0.064191
H	 1.4758160216	-3.1831877327	 3.2321657797	 0.094252
H	 2.0379919388	-2.9766596277	 1.5643259704	 0.110743
H	 3.1687273793	-0.9544706531	 2.1845201432	 0.110137
H	 2.609814111	-1.1430642685	 3.8553707939	 0.094231
136.3712	152.9706	193.7864	223.5144	279.7196	390.7767	439.5773	458.7747	564.6623	605.4221	688.1109	799.1074	819.1909	834.6642	843.9721	900.0081	902.5337	948.1058	962.6971	976.0426	993.8796	996.1724	1041.5302	1052.1393	1072.7211	1118.0547	1131.724	1137.8538	1155.0596	1190.809	1217.6508	1223.8802	1254.9969	1264.0612	1267.2218	1314.5837	1321.0271	1365.1807	1408.2336	1475.7047	1488.095	1489.0501	1492.7921	1509.6829	1548.4848	3035.7973	3055.3812	3061.2333	3064.8991	3084.1282	3097.5424	3098.3912	3115.378	3119.0678	3121.1309	3126.2868	3128.2148
CC1OC11C2CC1CC2	C[C@H]1O[C@]21[C@H]1C[C@@H]2CC1	
InChI=1S/C8H12O/c1-5-8(9-5)6-2-3-7(8)4-6/h5-7H,2-4H2,1H3	InChI=1S/C8H12O/c1-5-8(9-5)6-2-3-7(8)4-6/h5-7H,2-4H2,1H3/t5-,6-,7+,8-/m1/s1
