21
gdb 75344	3.27209	1.30919	1.023	0.2104	91.87	-0.2101	-0.0121	0.198	1228.9142	0.184293	-349.961338	-349.953141	-349.952197	-349.993666	32.923	
C	 0.1732248889	 1.5202975622	 0.5486389546	-0.479707
C	-0.069361955	 0.1155253315	 0.0493530799	 0.301865
C	-1.2598283716	-0.48563045	 0.2054544657	-0.158682
C	-1.5915044683	-1.8540644811	-0.3344319541	-0.288817
C	-0.7412247872	-2.9734153674	 0.2490717955	-0.002302
C	-0.0976664824	-3.9729062252	-0.681322069	-0.308692
C	 0.7460573666	-2.9260057068	 0.0250548505	-0.05241
C	 1.4029026253	-1.8057962625	-0.6955772789	-0.09332
C	 1.0653955206	-0.5076031663	-0.6498931765	-0.123972
H	 0.9895151898	 1.5493011842	 1.2808942382	 0.125075
H	 0.4685954569	 2.1845614638	-0.273829486	 0.121227
H	-0.7204764678	 1.9391349396	 1.0182557031	 0.11832
H	-2.0502676641	 0.0572468294	 0.7188930522	 0.077685
H	-2.6521465054	-2.0770332624	-0.1785665753	 0.096563
H	-1.4370614905	-1.8428722526	-1.4224270994	 0.111272
H	-1.06898474	-3.3404573759	 1.2172666361	 0.080255
H	 0.0056384317	-5.0035347557	-0.3606226862	 0.10773
H	-0.275429489	-3.8481765772	-1.7447063046	 0.109864
H	 1.3622498619	-3.3309204844	 0.8272381173	 0.092772
H	 2.3029090129	-2.0723455213	-1.2491674703	 0.086338
H	 1.7224260267	 0.193027908	-1.1658789428	 0.078935
107.0379	177.698	205.9252	249.7253	324.1663	339.4702	378.504	396.1899	440.7049	580.7489	663.7327	698.6307	746.4141	794.9859	799.6719	844.1314	860.1156	891.1251	918.9928	965.5501	1006.8468	1029.194	1033.3013	1055.3135	1070.759	1087.3379	1105.2377	1127.3724	1139.0846	1180.5583	1221.1466	1257.4305	1269.7205	1332.4603	1355.3967	1379.2841	1411.2144	1413.7005	1452.2136	1471.4931	1478.5396	1491.2206	1494.1829	1676.0832	1711.5204	3009.8108	3017.0702	3064.7892	3067.3014	3103.0107	3110.6934	3113.3815	3128.9047	3135.1923	3145.6473	3149.1661	3216.2962
CC1=CCC2CC2C=C1	CC1=CC[C@H]2C[C@H]2C=C1	
InChI=1S/C9H12/c1-7-2-4-8-6-9(8)5-3-7/h2-4,8-9H,5-6H2,1H3	InChI=1S/C9H12/c1-7-2-4-8-6-9(8)5-3-7/h2-4,8-9H,5-6H2,1H3/t8-,9+/m1/s1
