13
gdb 28405	3.2716	1.46754	1.01377	0.7854	68.18	-0.202	-0.053	0.149	1064.6381	0.089508	-489.940986	-489.933293	-489.932349	-489.972973	29.19	
N	-0.0060096583	 1.3607288204	 0.1241871711	-0.550047
C	-0.0680771992	-0.0043357307	 0.0358084084	 0.243605
N	-1.1922905772	-0.6482702699	 0.0125632712	-0.311945
C	-1.168498498	-2.0235806969	-0.0069231139	-0.185534
C	-0.0029827591	-2.7003305991	-0.0117827451	 0.427332
O	 0.1310943559	-4.0346679358	-0.0200644444	-0.405414
O	 1.1863309172	-2.0476072699	-0.0104851382	-0.240713
C	 1.2509034083	-0.6674812315	 0.0031112085	 0.389575
O	 2.3222911648	-0.1209873896	-0.0265901935	-0.344046
H	 0.8722519815	 1.7803821515	-0.1369873834	 0.273654
H	-0.8482404715	 1.8630926235	-0.1059108417	 0.263845
H	-2.1123304351	-2.5505667183	-0.0178802703	 0.125902
H	 1.0733490108	-4.2443400636	-0.0406648987	 0.313784
113.1568	183.6045	253.0554	303.7005	346.7864	386.3249	412.9836	458.6052	490.6829	505.1802	535.669	599.2533	653.6705	715.5213	795.0925	805.3976	841.4793	1028.6638	1046.7702	1112.231	1202.3833	1279.3819	1299.8802	1397.6445	1420.3716	1579.8011	1653.5797	1705.4668	1829.2052	3226.1974	3589.3432	3715.5386	3802.8257
NC1=NC=C(O)OC1=O	Nc1ncc(O)oc1=O	
InChI=1S/C4H4N2O3/c5-3-4(8)9-2(7)1-6-3/h1,7H,(H2,5,6)	InChI=1S/C4H4N2O3/c5-3-4(8)9-2(7)1-6-3/h1,7H,(H2,5,6)
