22
gdb 116703	4.07444	0.67737	0.66042	2.7185	91.8	-0.2236	0.0222	0.2458	1843.0912	0.190869	-404.337792	-404.326969	-404.326025	-404.374438	38.508	
C	 0.1812453927	 1.4334887598	 0.1331892646	-0.248142
O	-0.1611235763	 0.0678272469	-0.059232451	-0.196767
C	 0.5152960802	-0.5674118122	-1.0390660377	 0.117941
N	 0.2973648585	-1.7832151243	-1.2815963588	-0.212643
C	 1.0309301373	-2.403490478	-2.3263138958	 0.023836
C	 1.4372015749	-3.8533311804	-2.1361512801	-0.348471
C	 0.3701357343	-3.5040720664	-3.1443784303	 0.322148
C	-1.0650612161	-3.8806880714	-2.8359010962	-0.448927
C	 0.7401917482	-3.5747915869	-4.6135584794	-0.448074
H	 1.2335079825	 1.5487188696	 0.4217702767	 0.125876
H	-0.012145423	 2.0290102104	-0.7678248194	 0.125451
H	-0.4516105232	 1.7983471844	 0.9430617942	 0.145532
H	 1.2425498819	 0.0611775718	-1.5759270828	 0.07282
H	 1.7375127984	-1.770039507	-2.8703292493	 0.06357
H	 2.4174570825	-4.1576577139	-2.488982282	 0.103311
H	 1.1235846714	-4.3155415861	-1.2067937076	 0.11724
H	-1.2922245233	-3.7441042221	-1.7774394476	 0.138498
H	-1.7634448532	-3.2591841282	-3.4091188746	 0.107592
H	-1.2549439354	-4.926613623	-3.1046887903	 0.105371
H	 0.6234937888	-4.5956383035	-4.9971501218	 0.114169
H	 0.0983784805	-2.9197536176	-5.2148390937	 0.112323
H	 1.7792702084	-3.2750348019	-4.7843114773	 0.107346
39.3509	73.0165	105.482	145.7848	195.1753	202.5418	229.1137	235.5318	298.1613	342.861	363.2262	392.2161	452.6273	506.6592	612.484	700.6874	845.9136	877.2568	919.5503	961.7407	973.0899	989.4211	1023.2421	1051.9087	1056.4734	1082.1953	1113.8889	1153.8755	1159.2047	1177.3288	1200.5812	1271.1958	1287.2469	1336.3722	1381.9893	1407.1212	1421.102	1434.6874	1479.9436	1482.5674	1488.5478	1491.5944	1494.4625	1501.2436	1502.1352	1512.6322	1769.0764	2991.9577	3013.0273	3016.6514	3024.8417	3047.4884	3071.8749	3075.758	3079.19	3093.0536	3127.7209	3135.8737	3143.2266	3218.8164
COC=NC1CC1(C)C	COC=N[C@H]1CC1(C)C	
InChI=1S/C7H13NO/c1-7(2)4-6(7)8-5-9-3/h5-6H,4H2,1-3H3	InChI=1S/C7H13NO/c1-7(2)4-6(7)8-5-9-3/h5-6H,4H2,1-3H3/t6-/m0/s1
