18
gdb 77351	2.92597	1.20029	0.90116	2.5715	73.49	-0.2475	-0.0355	0.212	1253.6495	0.147508	-439.146008	-439.13704	-439.136096	-439.180461	32.221	
C	-0.0183108968	 1.6331532946	 0.0549828684	-0.403321
C	 0.144646861	 0.1167233555	 0.0216629227	-0.132187
C	 0.9034800114	-0.4568322118	-1.2010825048	-0.07666
C	 1.5813369847	-1.7379301903	-0.6464278239	-0.202999
N	 1.7226678658	-1.4415825533	 0.7650529721	-0.314473
C	 0.9266450374	-0.430673907	 1.2283105221	 0.415497
O	 0.8416050279	-0.0482850467	 2.3735369923	-0.379013
C	-0.0210025035	-0.7405453828	-2.3608437367	 0.154165
O	 0.0372756795	-0.2131197687	-3.4400292773	-0.242805
H	 0.950767463	 2.1326367772	-0.0432087877	 0.125904
H	-0.664834047	 1.9820100987	-0.7552189195	 0.124611
H	-0.4550474999	 1.9323444303	 1.0108519821	 0.146625
H	-0.8492704455	-0.3531552011	 0.0824283827	 0.105812
H	 1.6631841376	 0.2553727253	-1.5342818362	 0.106081
H	 0.9547287386	-2.6267786024	-0.8178160897	 0.110734
H	 2.5496074709	-1.9165074552	-1.1229147431	 0.129763
H	 2.2299690133	-2.0290816724	 1.4075278042	 0.256842
H	-0.8119852883	-1.4946540097	-2.1291042177	 0.075423
58.9914	66.0631	149.4038	203.6883	231.4957	255.4718	292.7931	406.1685	426.0423	486.0421	530.8408	604.3203	701.4502	710.8274	814.1819	865.1881	937.3602	986.4307	1038.8595	1068.7673	1083.4625	1097.4194	1129.2961	1153.5758	1230.913	1240.6779	1251.6313	1311.2273	1328.2892	1344.2783	1361.225	1410.0886	1427.7256	1449.2251	1492.7134	1498.3143	1530.2048	1832.428	1837.1463	2839.7393	2983.7142	2993.6678	3043.6948	3071.1363	3085.9737	3112.7148	3130.5126	3643.2586
CC1C(CNC1=O)C=O	C[C@H]1[C@@H](CNC1=O)C=O	
InChI=1S/C6H9NO2/c1-4-5(3-8)2-7-6(4)9/h3-5H,2H2,1H3,(H,7,9)	InChI=1S/C6H9NO2/c1-4-5(3-8)2-7-6(4)9/h3-5H,2H2,1H3,(H,7,9)/t4-,5-/m0/s1
