16
gdb 19048	4.19222	2.0793	1.85873	0.6404	71.45	-0.2112	-0.0306	0.1806	760.2856	0.131213	-346.49222	-346.485953	-346.485009	-346.522253	25.697	
O	 0.0226147194	 1.4440194459	 0.281410882	-0.428209
C	 0.0475503054	 0.0471213296	 0.0365210707	 0.089107
C	 0.6149201744	-0.681485815	 1.274126628	-0.145662
C	-0.2211283984	-1.6760851423	 1.6223167123	 0.049401
C	-1.3195581291	-1.348230491	 2.63790822	-0.258251
C	-2.1323802475	-1.0523559183	 1.3191980328	-0.057414
C	-1.3648261099	-0.5435146562	 0.0346976227	-0.048151
C	-1.248737965	-1.9514142197	 0.5089002962	-0.123624
H	 0.8922035014	 1.8014097984	 0.0750114504	 0.285859
H	 0.5302625428	-0.1590204947	-0.9323898409	 0.068535
H	 1.1453812705	-0.0753606679	 2.0044059814	 0.093775
H	-1.7918561946	-2.1927622449	 3.1532279715	 0.104354
H	-1.1144189744	-0.5378631355	 3.3426932454	 0.106455
H	-3.2189566244	-1.0151584845	 1.2890426423	 0.091752
H	-2.0395054621	-0.2899045359	-0.7809794983	 0.081552
H	-1.4580272786	-2.874833608	-0.0139576664	 0.090521
134.1173	296.0531	314.8936	387.3585	463.5202	545.5916	607.6003	675.7791	720.7969	770.0343	792.9217	820.7941	871.849	907.5514	945.8277	975.0164	979.5265	1013.7848	1039.5004	1047.2675	1055.6148	1089.2453	1095.8041	1126.6617	1206.3131	1221.9619	1231.8905	1264.361	1287.269	1290.1037	1367.5145	1418.1421	1499.9089	1598.9802	2957.9509	3028.292	3097.6086	3131.1903	3139.9927	3157.4673	3202.1669	3817.4857
OC1C=C2CC3C1C23	O[C@H]1[CH][C]2C[C@H]3[C@@H]1[C@@H]23	
InChI=1S/C7H8O/c8-5-2-3-1-4-6(3)7(4)5/h2,4-8H,1H2	InChI=1S/C7H8O/c8-5-2-3-1-4-6(3)7(4)5/h2,4-8H,1H2/t4-,5+,6+,7+/m1/s1
