16
gdb 73346	2.56889	1.9453	1.521	1.586	67.75	-0.2362	-0.0155	0.2208	900.8502	0.125124	-437.862589	-437.855445	-437.854501	-437.893903	28.29	
O	 0.1994819521	 1.3699432532	-0.1203990194	-0.487662
C	 0.0915187581	-0.0105035693	-0.1249085863	 0.305526
C	 0.7605773413	-0.72037292	-1.3059245766	-0.272204
C	 0.2334418567	-2.1596914369	-1.1651941121	-0.170631
N	-0.9583217846	-2.1035547872	-0.2682744244	-0.091781
C	-0.7324599202	-1.6632777345	 1.1195854999	-0.173669
C	-1.2971528238	-0.7452458288	 0.0249116649	-0.126368
C	 0.3879169953	-0.6829941078	 1.234668036	 0.339913
O	 1.0244729347	-0.2546398722	 2.1644660061	-0.353161
H	 0.5466239351	 1.6254283366	 0.7457064487	 0.299101
H	 0.4461721177	-0.2440297125	-2.2403845405	 0.11811
H	 1.8499150649	-0.6580545654	-1.2444425071	 0.121461
H	-0.0958333803	-2.5811230977	-2.1180219378	 0.12244
H	 0.9693940083	-2.8416000094	-0.7316066323	 0.122996
H	-1.2281465471	-2.1969271727	 1.9221130514	 0.121221
H	-2.2964278681	-0.3354430555	-0.0486222906	 0.124708
134.5557	191.9604	232.1005	316.0091	373.7156	390.5908	486.0493	542.393	667.0251	679.2888	709.2332	758.1704	798.9452	852.8156	868.1039	887.6743	935.0682	949.9383	992.4909	1024.8778	1092.383	1114.8495	1128.2218	1164.4814	1199.6547	1222.9207	1236.6105	1273.4825	1285.5332	1344.8044	1359.1005	1390.0571	1490.5921	1507.9951	1842.0706	3052.7217	3067.6886	3101.1964	3118.5496	3187.4687	3206.3911	3745.1633
OC12CCN3C(C13)C2=O	O[C@]12CCN3[C@H]([C@@H]13)C2=O	
InChI=1S/C6H7NO2/c8-5-3-4-6(5,9)1-2-7(3)4/h3-4,9H,1-2H2	InChI=1S/C6H7NO2/c8-5-3-4-6(5,9)1-2-7(3)4/h3-4,9H,1-2H2/t3-,4+,6-,7?/m1/s1
