19
gdb 6464	3.76395	1.36236	1.2427	4.0187	72.11	-0.2439	0.0391	0.2831	1063.229	0.164274	-365.099941	-365.091185	-365.09024	-365.13318	32.703	
C	-0.1496473891	 1.5530786662	 0.0583611254	-0.394114
C	 0.0875549976	 0.0395947062	 0.0407572798	-0.20939
C	 0.7817455575	-0.4883274942	-1.2223849362	 0.357086
C	 2.1964848171	 0.0593621231	-1.4097639524	-0.441003
C	 0.6606677543	-2.0375995248	-1.4137462103	-0.453151
C	-0.1680001414	-1.7161570265	-2.6794581367	 0.438031
O	-0.7034407721	-2.3487550051	-3.5500389595	-0.364707
N	-0.0556501961	-0.3693329446	-2.4397406	-0.354126
H	 0.7873599922	 2.1179775236	 0.0600669911	 0.120921
H	-0.7343413007	 1.8714699907	-0.8119198217	 0.113735
H	-0.7096115283	 1.8450781103	 0.9515188704	 0.121891
H	 0.6878747786	-0.2519403106	 0.9119527473	 0.100797
H	-0.875549174	-0.4751007986	 0.1363293845	 0.102102
H	 2.8170570235	-0.166572578	-0.5361602714	 0.122682
H	 2.6674247261	-0.3851412289	-2.2912703933	 0.123223
H	 2.1930442439	 1.1456279227	-1.5439771766	 0.120569
H	 1.5982774732	-2.5581287352	-1.6175643789	 0.126136
H	 0.1085712162	-2.5651322843	-0.6334557673	 0.125459
H	-0.3281591885	 0.427015278	-2.9977892442	 0.24386
60.3155	97.2725	214.9124	233.3881	251.9865	331.3914	347.0685	358.2551	396.5598	458.0484	534.4703	563.3118	631.7792	773.6155	794.6503	882.8972	889.2052	946.2568	973.3739	1009.3785	1031.5221	1061.8042	1085.1382	1133.3888	1187.3993	1199.3504	1245.0464	1273.3299	1325.4112	1356.5941	1386.9515	1410.4225	1413.788	1460.7429	1475.509	1493.1042	1496.3369	1505.4361	1509.4359	1892.667	3024.8506	3035.0172	3037.3682	3063.884	3081.7778	3102.3112	3103.5669	3110.7387	3114.067	3139.862	3602.7771
CCC1(C)CC(=O)N1	CC[C@@]1(C)CC(=O)N1	
InChI=1S/C6H11NO/c1-3-6(2)4-5(8)7-6/h3-4H2,1-2H3,(H,7,8)	InChI=1S/C6H11NO/c1-3-6(2)4-5(8)7-6/h3-4H2,1-2H3,(H,7,8)/t6-/m0/s1
