24
gdb 60543	2.64393	1.25635	1.00016	1.0058	89.57	-0.2286	0.0856	0.3142	1313.2805	0.216372	-368.369608	-368.359791	-368.358847	-368.40427	38.112	
C	-0.5052923782	 1.513000731	 0.1391127118	-0.413314
C	-0.1152589632	 0.0360884113	 0.0308005588	-0.029977
N	 0.7089941651	-0.1310195695	-1.1772798767	-0.054205
C	 0.5770160469	-1.3735162544	-1.929626579	-0.218322
C	 0.0098885575	-0.1042797155	-2.4570575971	-0.229633
C	 0.6361702498	-0.5302487292	 1.2434618526	 0.392725
C	 0.6932218834	-2.0488256368	 1.2957068069	-0.466414
C	 1.8458540288	 0.2009052756	 1.7687875171	-0.283152
C	 0.5755346536	 0.1749746319	 2.582524555	-0.318585
H	 0.3693873081	 2.1514240329	 0.2933525912	 0.125634
H	-0.9881943137	 1.8367489246	-0.7870288316	 0.115215
H	-1.2118648159	 1.6772237571	 0.955785135	 0.117396
H	-1.0532387468	-0.5454843897	-0.0707881	 0.048697
H	 1.4973881037	-1.7858111039	-2.3344549396	 0.11346
H	-0.1367918399	-2.1163775004	-1.5771216917	 0.109297
H	-1.0761169314	-0.0145753765	-2.4490910232	 0.105709
H	 0.5030757101	 0.4392862264	-3.2581044777	 0.113156
H	 1.2596425028	-2.463954262	 0.4567994463	 0.125907
H	 1.179209542	-2.3862057457	 2.2166219125	 0.108519
H	-0.3124107616	-2.4865611824	 1.2739943467	 0.106853
H	 2.6886829396	-0.3948283371	 2.1035034542	 0.104514
H	 2.1300197735	 1.1336606673	 1.2952845938	 0.115884
H	 0.0172497302	 1.0980700465	 2.6758149611	 0.107905
H	 0.5445419555	-0.4473390113	 3.4710302838	 0.102731
35.6692	121.24	180.9202	219.7546	236.9158	263.4703	313.4104	314.6609	339.0553	362.3183	422.6791	489.9503	527.4592	705.9553	753.031	786.6039	833.9384	872.8623	892.5396	906.3426	943.0027	951.4725	978.7006	1020.3161	1030.3204	1054.6422	1063.6456	1080.6978	1104.0544	1110.7662	1119.4989	1121.5919	1132.9469	1177.6014	1187.5331	1194.7332	1270.9898	1313.8638	1344.4039	1359.4859	1380.7822	1408.1408	1414.2969	1466.9335	1488.9976	1491.0219	1493.2483	1504.953	1506.5364	1514.7622	1518.7834	2891.943	3024.1832	3049.6513	3086.8784	3087.4953	3094.0251	3104.7808	3115.4017	3127.0696	3134.4445	3138.6463	3169.921	3184.7	3212.6784	3227.2286
CC(N1CC1)C1(C)CC1	C[C@@H](N1CC1)C1(C)CC1	
InChI=1S/C8H15N/c1-7(9-5-6-9)8(2)3-4-8/h7H,3-6H2,1-2H3	InChI=1S/C8H15N/c1-7(9-5-6-9)8(2)3-4-8/h7H,3-6H2,1-2H3/t7-/m1/s1
