22
gdb 16958	3.10274	2.02165	1.8452	0.1134	79.98	-0.2803	0.0775	0.3577	884.3106	0.204554	-313.101343	-313.094318	-313.093374	-313.132134	29.346	
C	-0.2577006602	 1.5503707782	-0.0048197457	-0.419437
C	 0.0307926967	 0.0496984366	 0.0060128632	 0.068344
C	 0.7598438342	-0.4869585983	-1.274221887	-0.226976
C	 1.9277971912	-1.3243334965	-0.7016210674	 0.009379
C	 2.9959782072	-0.3535130811	-0.1474217817	-0.203172
C	 2.3130066003	 0.2260691628	 1.1342612821	-0.210136
C	 0.9370877125	-0.4794595806	 1.1499239335	-0.00491
C	 1.3087923483	-1.874546288	 0.6024134265	-0.221842
H	 0.6487773882	 2.1418114621	-0.1694074471	 0.11447
H	-0.9580729997	 1.8027058907	-0.8084754041	 0.110672
H	-0.7058517075	 1.8794112639	 0.9395776865	 0.108143
H	-0.931853574	-0.4681896772	 0.100001671	 0.064955
H	 0.0897481962	-1.1005672709	-1.8844815088	 0.088867
H	 1.1202595447	 0.327643713	-1.9122785405	 0.087919
H	 2.3259519669	-2.0644223933	-1.3990233602	 0.050459
H	 3.9176993379	-0.8874842376	 0.1041506796	 0.090104
H	 3.2589612018	 0.421446747	-0.8738785868	 0.089362
H	 2.8797326316	-0.0358762122	 2.0332166125	 0.09194
H	 2.2351346805	 1.315872902	 1.1192056996	 0.094153
H	 0.4475030231	-0.4594187373	 2.1268901188	 0.047918
H	 0.4395202707	-2.5185032061	 0.4338368743	 0.085263
H	 2.0285494293	-2.4105644471	 1.2297408915	 0.084526
110.9372	230.9175	294.6638	318.8592	390.767	445.4972	480.2734	527.8036	719.8866	761.5264	796.856	814.6396	831.7595	881.1368	910.0863	931.0881	940.0075	959.8571	966.8122	980.911	1002.0019	1033.1685	1074.3619	1099.6952	1129.9236	1135.4525	1150.3653	1192.308	1203.3748	1244.5419	1266.8295	1277.7279	1287.3683	1309.1967	1327.9136	1337.5275	1345.237	1359.7839	1381.0226	1409.9366	1485.586	1492.7223	1494.0305	1499.1942	1509.5361	1522.9381	3013.3644	3027.2876	3037.4586	3040.809	3042.4207	3053.4466	3075.8057	3078.8428	3079.7381	3089.7052	3090.5986	3091.3647	3097.4305	3104.3587
CC1CC2CCC1C2	C[C@H]1C[C@H]2CC[C@@H]1C2	
InChI=1S/C8H14/c1-6-4-7-2-3-8(6)5-7/h6-8H,2-5H2,1H3	InChI=1S/C8H14/c1-6-4-7-2-3-8(6)5-7/h6-8H,2-5H2,1H3/t6-,7+,8+/m0/s1
