19
gdb 107738	3.38047	1.42202	1.26395	1.537	82.76	-0.2084	-0.0327	0.1758	1064.2784	0.158834	-385.774996	-385.767178	-385.766234	-385.807177	30.831	
C	-0.0394624916	 1.3152438414	-0.0911602244	-0.254264
O	-0.0876860563	-0.0758200647	 0.1827261521	-0.270857
C	-1.3584471626	-0.6037826844	 0.1168515629	 0.418116
C	-2.3781443527	-0.5183110866	 1.3267961335	-0.32833
C	-2.9974142922	-1.7004608592	 0.5766892158	 0.051726
C	-3.9620223326	-1.4184559837	-0.3220476918	-0.096548
C	-3.3504273175	-1.2801969162	-1.7141627926	-0.262898
C	-1.8716939529	-1.1505401737	-1.3033371098	-0.105538
C	-1.664663568	-2.0385506854	-0.1228871943	-0.20062
H	 1.0072411045	 1.6183491739	-0.0174366095	 0.127225
H	-0.4120072045	 1.5360835387	-1.1007551879	 0.111405
H	-0.6297847841	 1.8921013447	 0.6339794934	 0.112865
H	-1.8191778441	-0.7426272567	 2.2428048133	 0.110229
H	-3.0071005319	 0.3654935621	 1.4673229315	 0.097857
H	-4.855348823	-0.8580816738	-0.0601875599	 0.095872
H	-3.4908676798	-2.1139283568	-2.4182352921	 0.106976
H	-3.7707444817	-0.3872668818	-2.1936712438	 0.105877
H	-1.0901196545	-1.0688850666	-2.0563375016	 0.083875
H	-1.0498515144	-2.921515291	-0.0056421448	 0.097032
89.4348	164.8952	175.3748	280.439	348.6017	366.686	389.3142	469.2319	549.433	659.7688	685.342	731.7678	797.005	853.7176	893.0246	902.9928	912.997	935.8574	971.7095	999.5941	1009.5255	1036.6641	1066.1765	1074.7495	1104.1866	1146.1951	1180.1884	1183.8023	1195.2996	1210.9394	1236.7148	1253.4176	1290.4092	1292.7352	1385.1721	1478.6915	1481.2128	1488.6352	1501.9251	1506.7318	1597.5335	2990.2135	2996.292	3027.7438	3043.6535	3051.7537	3094.0709	3122.9091	3136.185	3162.5926	3196.7359
COC12CC3=CCC1C23	CO[C@@]12C[C]3[CH]C[C@@H]1[C@@H]23	
InChI=1S/C8H10O/c1-9-8-4-5-2-3-6(8)7(5)8/h2,6-7H,3-4H2,1H3	InChI=1S/C8H10O/c1-9-8-4-5-2-3-6(8)7(5)8/h2,6-7H,3-4H2,1H3/t6-,7+,8+/m1/s1
