21
gdb 103361	3.05244	1.49434	1.30978	1.0435	82.83	-0.2191	0.0137	0.2328	1072.9766	0.182285	-387.044987	-387.036515	-387.035571	-387.077633	33.757	
C	 0.0336883459	 1.355470714	-0.0980565597	-0.251478
O	-0.0910707707	-0.0216651523	 0.1878816954	-0.298109
C	-1.3944654491	-0.5715589448	 0.1007714709	 0.478706
C	-2.3100832278	 0.0720676696	 1.1369690416	-0.479937
C	-1.8940098204	-0.8033083299	-1.4012881435	-0.141156
C	-0.7933569919	-1.9166472174	-1.4715769395	-0.212916
C	-1.2548082384	-2.1467149545	 0.0086365391	-0.121127
C	-2.7114551884	-2.545459513	-0.2261735513	-0.096387
C	-3.1293268314	-1.665515402	-1.1439722763	-0.089995
H	 1.1045387681	 1.5706846723	-0.1390340536	 0.126101
H	-0.4128532567	 1.6197514297	-1.0672550713	 0.106416
H	-0.4175939069	 1.9901825158	 0.6766145711	 0.110142
H	-2.5087063561	 1.1201131526	 0.8910888276	 0.113654
H	-3.2692643671	-0.4384087169	 1.2055653848	 0.127103
H	-1.8224919052	 0.0453653081	 2.1169683362	 0.120093
H	-1.9623682786	 0.0070201839	-2.1275039641	 0.055637
H	-0.9826577449	-2.7352912026	-2.1682800141	 0.087138
H	 0.2222691029	-1.5342831649	-1.5616172588	 0.110069
H	-0.6559291361	-2.6968988013	 0.7340294413	 0.061166
H	-3.2525775499	-3.3338632432	 0.2775367913	 0.097943
H	-4.1053989775	-1.5391691832	-1.5911178872	 0.096938
85.2771	161.2163	183.7321	221.1473	285.0195	333.5017	410.8403	415.8652	488.9376	525.9459	571.7052	626.64	728.2396	732.6336	822.9904	840.5222	897.9986	907.0304	908.9913	924.8929	943.4178	985.1527	1021.9863	1081.0595	1084.7239	1112.3418	1123.6213	1143.2043	1169.8219	1181.2757	1188.0647	1216.7318	1232.5293	1246.8897	1258.4866	1264.4683	1330.4415	1397.6685	1475.295	1484.7366	1487.6221	1491.3653	1506.7706	1512.3704	1618.5048	2993.1155	3041.3424	3048.3001	3081.0459	3102.0578	3109.3036	3112.7612	3121.9826	3156.7116	3157.9433	3215.4462	3242.1947
COC1(C)C2CC1C=C2	CO[C@@]1(C)[C@H]2C[C@@H]1C=C2	
InChI=1S/C8H12O/c1-8(9-2)6-3-4-7(8)5-6/h3-4,6-7H,5H2,1-2H3	InChI=1S/C8H12O/c1-8(9-2)6-3-4-7(8)5-6/h3-4,6-7H,5H2,1-2H3/t6-,7+,8+
