15
gdb 5664	5.04375	2.09696	1.49483	2.1382	73.51	-0.1806	0.012	0.1926	803.7897	0.122426	-325.566552	-325.560589	-325.559645	-325.596248	24.362	
C	-0.0728226315	 1.5031093113	 0.010933784	-0.41604
C	 1.4023477746	 1.8977580471	-0.0013293869	-0.091243
C	 2.1972098623	 0.8087634189	-0.0147838263	-0.196004
C	 1.3663329798	-0.395560384	-0.013087076	 0.305664
C	 0.0478885548	 0.0119091384	 0.0018563446	 0.285497
N	-0.7493370165	-1.092982906	 0.0038814825	-0.370701
C	 0.0581149148	-2.2177150889	-0.0100342495	-0.071
C	 1.3792258462	-1.8181611631	-0.020635814	-0.34003
H	-0.5865420742	 1.8982985858	 0.8980586268	 0.123952
H	-0.6037134116	 1.9076705732	-0.8617356427	 0.123946
H	 1.7239323145	 2.9306002363	 0.0009919125	 0.090777
H	 3.2802411841	 0.8208001534	-0.0252243444	 0.091787
H	-1.7542250108	-1.1095404764	 0.0135503115	 0.258068
H	-0.3793785882	-3.203340267	-0.0110714602	 0.113976
H	 2.2315051918	-2.4804815391	-0.0323604921	 0.091352
183.1799	263.0857	423.7261	429.876	472.2493	621.9207	648.2612	654.8904	698.297	709.9949	739.6027	815.1216	854.6916	921.7176	925.2427	944.793	948.4777	1047.901	1079.8388	1115.9721	1130.9012	1171.0825	1220.1366	1266.9343	1323.138	1370.2845	1436.3518	1462.4073	1478.8687	1523.5307	1556.4588	1620.1201	3017.3634	3042.9929	3202.6678	3229.9632	3242.6987	3266.6259	3677.5737
C1C=CC2=C1NC=C2	C1C=Cc2c1[nH]cc2	
InChI=1S/C7H7N/c1-2-6-4-5-8-7(6)3-1/h1-2,4-5,8H,3H2	InChI=1S/C7H7N/c1-2-6-4-5-8-7(6)3-1/h1-2,4-5,8H,3H2
