16
gdb 78154	2.10498	1.85233	1.06149	1.3164	73.5	-0.2455	-0.0235	0.222	1104.7941	0.125628	-434.084552	-434.07686	-434.075916	-434.11667	29.509	
C	-0.1057668819	 1.3712530489	 0.041400356	-0.318857
N	 0.0823305853	-0.0748023908	-0.0576860662	-0.106445
C	 0.7488707037	-0.5239042645	-1.290327883	-0.090077
C	 1.4879681739	-0.515645878	 0.0034900199	-0.179992
C	 1.5896820685	-1.9554792435	 0.4509239434	 0.451898
O	 2.1565252141	-2.4121495913	 1.4105919963	-0.357912
N	 0.8931975796	-2.6909580453	-0.507584527	-0.381169
C	 0.4412616017	-1.9562385424	-1.6098383354	 0.418461
N	-0.0910207625	-2.3525934089	-2.6897634511	-0.541011
H	 0.7020640533	 1.9580562209	-0.4244060815	 0.107579
H	-1.0503719212	 1.6345099984	-0.4428260538	 0.140177
H	-0.1698606602	 1.64561877	 1.0981199406	 0.138894
H	 0.929418094	 0.1774707301	-2.0952744965	 0.120372
H	 2.2708094317	 0.1878156959	 0.2593277537	 0.120344
H	 0.7608174789	-3.6857877301	-0.4033130137	 0.262228
H	-0.204983209	-3.3677496694	-2.7113704915	 0.215508
137.1576	162.5889	215.2662	239.3143	284.7861	339.4459	434.0866	511.7983	561.4796	620.762	627.639	684.2049	748.782	845.7458	858.4748	871.4734	901.2101	932.9911	960.3888	1047.6119	1106.0572	1129.9085	1145.1954	1155.4483	1214.6321	1229.6418	1318.1083	1359.4783	1370.9328	1389.3815	1454.1128	1494.4977	1494.9718	1769.4044	1858.1899	2976.8542	3081.8507	3119.3766	3196.9533	3205.8982	3456.9684	3631.3866
CN1C2C1C(=O)NC2=N	CN1[C@H]2[C@@H]1C(=O)N[C]2[NH]	
InChI=1S/C5H7N3O/c1-8-2-3(8)5(9)7-4(2)6/h2-3H,1H3,(H2,6,7,9)	InChI=1S/C5H7N3O/c1-8-2-3(8)5(9)7-4(2)6/h2-3H,1H3,(H2,6,7,9)/t2-,3+,8?/m0/s1
