19
gdb 98319	4.14055	0.74238	0.7146	2.3849	78.42	-0.2622	-0.0314	0.2308	1610.7589	0.155345	-423.011473	-423.000986	-423.000042	-423.047881	37.22	
C	 0.0417320068	 1.5692498928	-0.0328364024	-0.397616
C	 0.0518453159	 0.0271239804	-0.0188948342	-0.08859
C	-1.3795800378	-0.5600597878	 0.041147032	-0.359188
C	-2.0985333256	-0.1791430444	 1.2492141522	 0.294297
C	-2.6711537014	 0.1397071794	 2.257071089	-0.436836
C	 0.7631487964	-0.4693621663	-1.2665780326	 0.361345
O	 0.1984738031	-0.6069459005	-2.3327651957	-0.338544
C	 2.2469981939	-0.7897396668	-1.1695546891	-0.137461
O	 2.7849191042	-1.1168721744	-2.4134385857	-0.418423
H	 1.0570404073	 1.9763100709	-0.0403758078	 0.123851
H	-0.4819295639	 1.9389808735	-0.9197670907	 0.13798
H	-0.4722811091	 1.9425888677	 0.8559832366	 0.144607
H	 0.6131601906	-0.3087715185	 0.8611980742	 0.096749
H	-1.9265475564	-0.2342998047	-0.8503975787	 0.153555
H	-1.3258940448	-1.6537734193	-0.0218281478	 0.135839
H	-3.1930770968	 0.4134407013	 3.1403689525	 0.197753
H	 2.7690062222	 0.0715753916	-0.7219482804	 0.11904
H	 2.3544455143	-1.6180840347	-0.4458460573	 0.116807
H	 2.026464641	-1.1251056903	-3.0197515839	 0.294836
37.0662	62.2653	96.6061	142.1003	209.1383	226.7098	251.4186	280.1203	343.8878	353.686	396.246	433.6059	531.6418	567.2424	621.5723	647.7363	702.1284	838.6838	859.2603	899.5136	962.8324	995.9728	1047.5245	1060.138	1098.5682	1133.3807	1151.5649	1244.3875	1249.6103	1298.6346	1318.6396	1336.7195	1381.6096	1406.3426	1450.2475	1468.6555	1486.919	1498.3752	1500.7425	1789.5716	2237.8204	2952.6663	2990.1982	3034.9161	3039.5625	3043.978	3076.8282	3115.9722	3130.0012	3505.4522	3680.1648
CC(CC#C)C(=O)CO	C[C@@H](CC#C)C(=O)CO	
InChI=1S/C7H10O2/c1-3-4-6(2)7(9)5-8/h1,6,8H,4-5H2,2H3	InChI=1S/C7H10O2/c1-3-4-6(2)7(9)5-8/h1,6,8H,4-5H2,2H3/t6-/m0/s1
