15
gdb 84334	2.49208	1.49934	1.15234	4.2228	69.5	-0.2537	-0.0763	0.1774	1058.2668	0.111752	-457.800355	-457.792177	-457.791233	-457.83356	29.889	
O	-0.2144097126	 1.4437319441	 0.2130544926	-0.430445
C	-0.0095897254	 0.04587078	-0.0134071759	-0.014189
C	 0.7577796749	-0.5899227295	 1.1239040563	-0.1106
C	 0.1663901018	-1.1358313831	 2.1935126629	-0.129783
C	-1.3076113487	-1.2221044825	 2.3418829588	 0.365596
O	-1.8242100695	-1.7858232899	 3.2798874699	-0.310854
C	-2.1404549928	-0.5561125066	 1.2403888648	-0.404483
C	-1.4117741254	-0.5757036377	-0.0876194826	 0.383588
O	-1.8493625132	-1.0619171106	-1.0975955064	-0.300562
H	 0.634961376	 1.8436860312	 0.4294751292	 0.293181
H	 0.4922965308	-0.1290103181	-0.9728757931	 0.098432
H	 1.8433269635	-0.574173531	 1.0523389601	 0.122108
H	 0.7397552796	-1.5678844399	 3.0076920147	 0.124207
H	-3.1191809991	-1.0308175497	 1.1711706815	 0.145831
H	-2.2628287899	 0.4951271031	 1.5319398473	 0.167973
64.2085	109.0432	187.2092	218.4885	250.9405	375.2656	421.0161	431.2766	499.1587	525.4472	621.2943	639.1661	690.9278	807.9802	814.7402	935.2012	962.3928	972.1199	1024.9851	1049.8411	1079.2029	1158.4461	1200.6218	1228.578	1251.3635	1283.1102	1343.1366	1383.2913	1407.5759	1431.3539	1675.4509	1786.1248	1846.2185	3035.9955	3045.1831	3146.0307	3152.1455	3192.4847	3806.2261
OC1C=CC(=O)CC1=O	O[C@H]1C=CC(=O)CC1=O	
InChI=1S/C6H6O3/c7-4-1-2-5(8)6(9)3-4/h1-2,5,8H,3H2	InChI=1S/C6H6O3/c7-4-1-2-5(8)6(9)3-4/h1-2,5,8H,3H2/t5-/m0/s1
