16
gdb 96824	2.85685	1.15454	0.96732	3.2203	73.	-0.2594	-0.0075	0.2519	1244.5609	0.123778	-434.057811	-434.048507	-434.047563	-434.0926	32.227	
C	-0.277452195	 1.3788683353	-0.0443462593	-0.342707
N	-0.2642711603	-0.0722487028	-0.1741052858	-0.322124
C	 0.5311758975	-0.6246796554	-0.9556249347	 0.443729
O	 1.500927001	-0.0803500029	-1.809137351	-0.265951
C	 2.0183544763	-1.3952800075	-2.1458412104	-0.039122
C	 3.36649604	-1.6019110748	-1.6260311139	 0.304671
N	 4.4269591427	-1.7734945888	-1.201061588	-0.31516
C	 0.8640515003	-2.0704986043	-1.3228979267	-0.138539
N	 1.2159050147	-3.0588685051	-0.3458884963	-0.503057
H	 0.5369792027	 1.8807804253	-0.5784406726	 0.133694
H	-1.2328600351	 1.7613642533	-0.419505586	 0.136369
H	-0.222411981	 1.6388327313	 1.0173330988	 0.135218
H	 2.0000060245	-1.562865799	-3.2252056412	 0.141112
H	 0.1144159984	-2.488318671	-2.0001052925	 0.128607
H	 1.7425306748	-2.6541330227	 0.421557821	 0.251267
H	 0.3846458086	-3.4867351809	 0.0449693788	 0.251994
63.0249	87.916	133.3982	148.8388	190.3725	212.0169	261.9676	297.9407	391.2122	502.4835	537.7475	622.2412	676.548	747.0102	803.1172	820.8436	912.395	960.0562	1019.141	1057.133	1095.8751	1131.6836	1154.9671	1172.4984	1209.3927	1243.6538	1262.3298	1356.9948	1425.1459	1440.9955	1491.6894	1498.4367	1669.0741	1861.7689	2362.3333	3023.8085	3082.5854	3091.5865	3095.3482	3099.2097	3516.7028	3600.8465
CN=C1OC(C#N)C1N	CN=C1O[C@@H](C#N)[C@H]1N	
InChI=1S/C5H7N3O/c1-8-5-4(7)3(2-6)9-5/h3-4H,7H2,1H3	InChI=1S/C5H7N3O/c1-8-5-4(7)3(2-6)9-5/h3-4H,7H2,1H3/t3-,4+/m0/s1
