18
gdb 67011	2.15915	1.77337	1.6071	4.4178	75.66	-0.2396	0.0081	0.2477	986.9944	0.146595	-401.92527	-401.916891	-401.915947	-401.957907	31.773	
C	-0.1984600634	 1.5181172453	-0.0205391036	-0.523563
C	 0.0923609143	 0.0581379525	-0.0251803245	 0.303386
C	 0.3877680325	-0.9763163109	-1.0222539969	-0.084879
C	 1.4038596862	-1.6804800977	-0.1225360599	-0.285299
C	 0.6980033893	-0.9507876691	 1.0607659309	 0.106327
C	 1.3694945195	-0.6642737737	 2.3737348953	-0.50732
C	-0.7010087935	-1.5454487632	 0.9670231364	 0.408242
O	-1.455219985	-2.0726967743	 1.7251902099	-0.328752
N	-0.9723546653	-1.0002927973	-0.3563583383	-0.242624
H	 0.7274512441	 2.1016775355	 0.0161216796	 0.131376
H	-0.7468929593	 1.795177645	-0.9250950502	 0.147087
H	-0.8095432815	 1.7945574129	 0.8450433537	 0.140979
H	 0.3591110603	-0.9228000275	-2.1033164147	 0.111936
H	 1.4200692004	-2.7753102499	-0.0974849191	 0.112744
H	 2.4124954243	-1.2950175337	-0.2952821953	 0.113334
H	 2.2915073188	-0.0900520959	 2.2368690804	 0.121139
H	 0.7094563412	-0.1043887195	 3.0434151267	 0.13503
H	 1.6292210472	-1.6017294887	 2.8767025195	 0.140855
114.6319	164.2625	178.3978	188.838	217.0401	282.9339	364.5514	427.3138	510.6734	612.6724	636.9685	651.4654	669.8475	759.6821	787.0873	841.4088	897.3918	942.5578	961.688	990.3168	1022.1394	1074.1619	1107.1818	1116.9418	1122.7921	1171.0067	1208.6327	1238.9104	1260.7536	1349.7886	1405.4146	1416.3691	1453.3959	1481.692	1487.3233	1488.1771	1490.626	1500.6373	1906.7387	3034.705	3035.9524	3044.6104	3099.7307	3102.402	3104.7536	3107.6281	3118.2563	3197.4047
CC12C3CC1(C)C(=O)N23	C[C@@]12[C@H]3C[C@]1(C)C(=O)N23	
InChI=1S/C7H9NO/c1-6-3-4-7(6,2)8(4)5(6)9/h4H,3H2,1-2H3	InChI=1S/C7H9NO/c1-6-3-4-7(6,2)8(4)5(6)9/h4H,3H2,1-2H3/t4-,6-,7-,8?/m1/s1
