23
gdb 104177	3.45417	0.99142	0.95406	1.5746	81.78	-0.2401	0.0627	0.3028	1396.8884	0.204426	-425.443527	-425.433392	-425.432448	-425.47849	38.072	
C	-0.1621369928	 1.7512920544	 0.325868978	-0.408299
C	 0.0542475997	 0.2379897352	 0.212499674	-0.222246
C	-1.2109874802	-0.5521963509	-0.1474781364	 0.346547
O	-2.2185235623	-0.3881235146	 0.8589563971	-0.48062
C	-1.7810845804	-0.2320674486	-1.5506335097	-0.095063
O	-2.3204856165	-1.4325759161	-2.0834559821	-0.280958
C	-2.1699373311	-2.5013643094	-1.1371497138	 0.151227
C	-1.9839657803	-3.8038532613	-1.8962592307	-0.401174
C	-0.996573701	-2.0670815721	-0.2552195991	-0.252588
H	 0.768320847	 2.2580942311	 0.5972546892	 0.121112
H	-0.5094644003	 2.186646255	-0.6176854298	 0.120835
H	-0.8972719402	 1.9899149876	 1.1019118072	 0.114063
H	 0.8242371758	 0.0305201197	-0.5403635255	 0.095666
H	 0.4307697727	-0.1468312306	 1.1672754895	 0.104766
H	-2.579223585	 0.5007468883	 0.782957723	 0.278689
H	-2.5624487034	 0.539463212	-1.4901362726	 0.082561
H	-0.9979450025	 0.1403717967	-2.2260028711	 0.090984
H	-3.0770089972	-2.5594757405	-0.5170892484	 0.07856
H	-1.0769213502	-3.767830335	-2.5081473092	 0.1146
H	-1.9043609942	-4.6448015912	-1.1998241344	 0.112632
H	-2.8357576675	-3.9868959931	-2.5574278145	 0.124108
H	-0.0452634898	-2.2815022817	-0.7550318061	 0.093487
H	-0.9957673202	-2.5377833249	 0.7301418354	 0.111111
64.0624	95.5235	114.0248	191.7893	232.8804	240.5016	286.6529	291.7905	347.5257	364.4601	409.4437	447.6737	490.8212	604.7405	642.4263	786.1889	814.9909	839.1846	899.1077	909.1886	933.2776	975.9317	996.2158	1032.4773	1047.262	1073.8405	1097.5061	1124.4965	1155.2408	1184.2745	1196.0878	1214.4863	1258.0861	1295.0026	1328.7742	1332.3332	1362.4783	1381.5919	1388.8576	1405.7808	1410.3064	1414.3533	1470.7513	1479.2924	1484.3913	1499.3792	1503.4061	1509.983	1516.9514	2985.8869	2992.4088	3019.6691	3030.1622	3033.7241	3036.7685	3048.9833	3067.7202	3100.6735	3107.2419	3109.6041	3114.9581	3119.774	3819.4118
CCC1(O)COC(C)C1	CC[C@@]1(O)CO[C@@H](C)C1	
InChI=1S/C7H14O2/c1-3-7(8)4-6(2)9-5-7/h6,8H,3-5H2,1-2H3	InChI=1S/C7H14O2/c1-3-7(8)4-6(2)9-5-7/h6,8H,3-5H2,1-2H3/t6-,7-/m0/s1
