17
gdb 52077	2.78814	0.91385	0.75214	3.6244	70.63	-0.2533	-0.0493	0.204	1470.9389	0.132115	-458.956956	-458.947472	-458.946528	-458.992876	32.526	
O	-0.8360670578	 0.87766373	 0.3771671078	-0.233216
C	 0.1612112227	 0.9621594592	-0.2906719569	 0.155379
C	 1.2518977767	 1.9909808622	-0.0967885496	-0.277711
C	 1.5130533124	 2.7852713977	-1.3916691119	-0.303936
C	 2.6647139162	 3.7528742852	-1.2501026726	 0.31091
C	 2.594569493	 5.1321662663	-1.7873077173	-0.222919
O	 2.4672155854	 4.8947541316	-0.3965290968	-0.259378
C	 4.0460004147	 3.1814170646	-1.1231178787	 0.126237
O	 4.3221650109	 2.0278740265	-1.3335077628	-0.255598
H	 0.3484618444	 0.2539520815	-1.1328173415	 0.074412
H	 0.9755257707	 2.6550340441	 0.7258000513	 0.135814
H	 2.1673639398	 1.4495867063	 0.1758262067	 0.142031
H	 1.7491757035	 2.0944969111	-2.2090660927	 0.130247
H	 0.6130001647	 3.3398688376	-1.6745460253	 0.120405
H	 3.5022336955	 5.6496619397	-2.0962665836	 0.127947
H	 1.6850755199	 5.4272425508	-2.3080332342	 0.134069
H	 4.8048962772	 3.930655086	-0.8074976919	 0.095305
47.6907	63.9347	87.0673	130.7957	155.2911	240.0338	291.6203	353.5564	387.0836	443.0712	531.9435	545.8987	753.4007	799.5594	845.5643	865.1562	884.2579	963.2649	1009.7485	1035.085	1079.3161	1098.0715	1135.0639	1164.4557	1192.3399	1266.3099	1284.622	1326.3276	1349.4228	1378.034	1430.5918	1431.8362	1461.2304	1475.2019	1521.3459	1822.9115	1839.093	2850.9392	2901.0052	3033.9282	3047.0584	3084.0633	3090.7754	3118.6011	3175.1952
O=CCCC1(CO1)C=O	O=CCC[C@]1(CO1)C=O	
InChI=1S/C6H8O3/c7-3-1-2-6(4-8)5-9-6/h3-4H,1-2,5H2	InChI=1S/C6H8O3/c7-3-1-2-6(4-8)5-9-6/h3-4H,1-2,5H2/t6-/m1/s1
