19
gdb 112100	2.75749	1.42359	1.02273	2.919	79.46	-0.2019	0.0148	0.2167	1196.8186	0.160998	-419.265265	-419.256235	-419.255291	-419.300433	32.581	
C	 0.0299222162	 1.5834456505	 0.0027508768	-0.375978
C	 0.0083326025	 0.0537598114	 0.0360658361	-0.155867
N	-1.3410640317	-0.5070417335	 0.0347502693	-0.143412
C	-2.0167829449	-0.7533784362	 1.2265474917	 0.036782
C	-3.2593360348	-1.2317244691	 1.2885794193	-0.14839
C	-4.0335831538	-1.5443427369	 0.0435131339	-0.198344
N	-3.266291767	-1.1433814876	-1.129235547	-0.377587
C	-1.9790782953	-0.6800218137	-1.1913226448	 0.48649
O	-1.4288021556	-0.4251750359	-2.2503539131	-0.426499
H	 1.061953749	 1.9487063152	 0.0168868034	 0.114977
H	-0.4499553309	 1.9435526236	-0.9104801482	 0.145611
H	-0.4938839074	 2.0089992901	 0.8650469615	 0.113952
H	 0.5236882501	-0.3435750278	-0.839784326	 0.141343
H	 0.5190234161	-0.3221597245	 0.9287052406	 0.10189
H	-1.4432292844	-0.5314297267	 2.1195823012	 0.112209
H	-3.7260447745	-1.4165706469	 2.2468549276	 0.097332
H	-4.273788052	-2.6204349447	-0.0037107843	 0.110902
H	-5.0023165187	-1.0198224684	 0.047347759	 0.112801
H	-3.6744370431	-1.2676096788	-2.0415520568	 0.251787
34.5212	57.965	98.7498	133.2488	228.214	352.6896	372.0973	441.735	481.5104	521.0969	563.737	586.5441	708.57	717.1238	765.0506	783.3897	875.7031	938.0415	947.2367	971.7436	1043.7753	1049.8568	1102.0266	1115.8573	1189.5187	1234.7174	1237.6961	1285.9214	1305.8006	1375.6787	1392.5028	1409.7389	1428.2044	1453.719	1480.3552	1490.9359	1495.3847	1506.2977	1539.6253	1744.6725	1784.0477	2944.2826	2968.7546	3038.3203	3052.6001	3101.6955	3121.9705	3135.138	3190.9637	3223.3214	3647.436
CCN1C=CCNC1=O	CCN1C=CCNC1=O	
InChI=1S/C6H10N2O/c1-2-8-5-3-4-7-6(8)9/h3,5H,2,4H2,1H3,(H,7,9)	InChI=1S/C6H10N2O/c1-2-8-5-3-4-7-6(8)9/h3,5H,2,4H2,1H3,(H,7,9)
