21
gdb 83290	2.64876	1.3119	1.18642	0.8879	77.48	-0.2469	0.0682	0.3151	1152.5804	0.184239	-424.220724	-424.212162	-424.211218	-424.253459	34.008	
O	 0.1440495043	 1.3954170756	 0.0304590714	-0.408776
C	 0.030062941	 0.0016687369	 0.0074142505	 0.083167
C	-0.4515884435	-0.6718711295	 1.2557914003	-0.05509
C	-0.8617967255	 0.1009537355	 2.5026278799	-0.226833
C	-1.9826051541	 1.1291513004	 2.2723963561	-0.227051
C	-3.1049983868	 0.5485787412	 1.4096314176	 0.144935
O	-4.1823606493	 1.4626650422	 1.2402275647	-0.444549
C	-2.5930287833	 0.217051504	 0.006924231	-0.210105
C	-1.3406990843	-0.6521324448	 0.0176102886	-0.110995
H	-0.082362866	 1.7308456467	-0.8440211918	 0.289717
H	 0.816024913	-0.4996320038	-0.5577355016	 0.080027
H	 0.0357461302	-1.6182585333	 1.4735445584	 0.082984
H	-1.2068120179	-0.6330567112	 3.2421943185	 0.095622
H	 0.0114048953	 0.5948947255	 2.944042501	 0.105725
H	-2.3883739634	 1.4405446062	 3.2443540997	 0.072835
H	-1.5900262217	 2.0222993902	 1.7786659973	 0.120662
H	-3.4689417181	-0.3818717313	 1.8809696914	 0.05567
H	-4.4780778113	 1.7353544971	 2.1146161689	 0.276287
H	-3.3875122899	-0.2805314432	-0.5559329381	 0.101949
H	-2.4040500551	 1.1731013406	-0.4976147976	 0.091671
H	-1.4175600534	-1.5830722351	-0.5354080263	 0.082147
100.0341	177.792	218.6771	247.0849	274.2626	296.4271	342.8272	404.7784	443.0778	488.1822	507.926	597.659	688.6347	742.7953	779.3733	822.4607	865.6266	915.7101	947.2173	971.18	1008.4324	1040.3091	1077.9401	1094.7812	1098.0806	1121.385	1128.6788	1149.805	1185.4193	1231.2632	1249.2685	1262.1544	1291.3109	1298.8365	1326.373	1342.3759	1360.5248	1374.0945	1387.8892	1405.8743	1435.906	1461.1381	1481.8701	1486.4638	1503.2636	2937.9391	3012.7492	3024.1415	3028.3362	3056.8252	3085.4188	3091.6359	3100.4752	3136.6105	3151.8686	3795.306	3815.2158
OC1C2CCC(O)CC12	O[C@H]1[C@H]2CC[C@@H](O)C[C@@H]12	
InChI=1S/C7H12O2/c8-4-1-2-5-6(3-4)7(5)9/h4-9H,1-3H2	InChI=1S/C7H12O2/c8-4-1-2-5-6(3-4)7(5)9/h4-9H,1-3H2/t4-,5+,6-,7+/m1/s1
