21
gdb 115393	3.12957	1.13712	1.02478	0.9072	75.43	-0.2388	0.0887	0.3275	1283.4495	0.182194	-461.359937	-461.350667	-461.349723	-461.393963	34.36	
C	-0.1087336158	 1.4573495278	 0.1161719557	-0.239242
O	-0.0468627617	 0.0449887254	 0.0268948645	-0.240412
C	 0.7027348322	-0.5502220016	 1.0499893906	 0.208674
C	 0.5361129291	-2.0664704051	 0.946533553	-0.114465
O	 1.2276340561	-2.6057909963	-0.1614591837	-0.260446
C	 2.6116783389	-2.2666238541	-0.1427687391	 0.131694
C	 3.2568143419	-2.9054645316	-1.3613389245	-0.408346
C	 2.750317275	-0.7471738015	-0.1237477214	-0.093222
O	 2.0691987504	-0.1882951865	 1.0011731998	-0.269355
H	 0.8854615975	 1.9130213321	 0.0436971422	 0.12383
H	-0.7288008577	 1.8023819714	-0.7138589061	 0.126784
H	-0.5695104339	 1.7757874074	 1.063844804	 0.105685
H	 0.3592867069	-0.1942205397	 2.0339696855	 0.069712
H	 0.9000758077	-2.5129804378	 1.8864928805	 0.089612
H	-0.5199299755	-2.3147613127	 0.8177017393	 0.118641
H	 3.0661166317	-2.6656613396	 0.7814861941	 0.067392
H	 2.8176738871	-2.5062038721	-2.2806744137	 0.128404
H	 4.334041058	-2.7137489106	-1.3749470661	 0.115728
H	 3.095779292	-3.9864163158	-1.3481933934	 0.128743
H	 3.7970000462	-0.4465812971	-0.0224697599	 0.104494
H	 2.3472902438	-0.3339510722	-1.0581223314	 0.106094
81.3669	115.8616	163.9536	188.9051	218.5862	247.1521	300.2999	306.9777	372.416	452.299	478.2776	536.3048	587.6573	755.3268	833.1195	886.9063	898.1957	906.756	966.7168	1009.1398	1073.2011	1099.3681	1108.6484	1135.8163	1158.5945	1161.9793	1181.0394	1183.8246	1220.0077	1286.3318	1301.2333	1334.244	1373.7668	1383.0616	1392.4098	1410.8492	1416.3412	1423.7927	1475.4476	1479.0904	1481.4896	1484.5099	1487.1023	1502.3101	1513.3765	2948.454	2971.7415	2988.2904	2994.3768	3019.5867	3044.1454	3063.9128	3094.5409	3106.9744	3117.7775	3124.0936	3125.8397
COC1COC(C)CO1	CO[C@H]1CO[C@@H](C)CO1	
InChI=1S/C6H12O3/c1-5-3-9-6(7-2)4-8-5/h5-6H,3-4H2,1-2H3	InChI=1S/C6H12O3/c1-5-3-9-6(7-2)4-8-5/h5-6H,3-4H2,1-2H3/t5-,6+/m0/s1
