19
gdb 10173	2.62896	1.55865	1.15037	1.5176	71.3	-0.2444	0.0161	0.2605	1119.866	0.162672	-402.178196	-402.168016	-402.167072	-402.214452	33.845	
C	-0.7971308373	-1.8968890879	-3.5477403387	-0.238376
O	-1.7211226438	-2.8124445971	-2.988494928	-0.229554
C	-2.403587046	-2.3029483779	-1.8557645172	-0.182445
C	-1.5195080935	-2.1488003347	-0.6312644208	 0.383472
O	-0.896269649	-3.2444605339	-0.1181201794	-0.247145
C	-1.2661989515	-4.5552812887	-0.548134452	-0.25738
N	-1.3529642177	-0.9979736179	-0.1272438103	-0.281867
C	-0.5201246419	-0.8749751959	 1.0605655879	-0.318157
H	-0.355977675	-2.3865315746	-4.4187937214	 0.127303
H	-1.2978020312	-0.9717368071	-3.868918563	 0.114143
H	 0.0004981866	-1.6286170829	-2.8423028221	 0.12273
H	-2.8349420955	-1.3151841695	-2.0555762154	 0.123241
H	-3.2191171368	-3.0074582732	-1.6592066852	 0.115076
H	-0.5540286659	-5.2338316411	-0.0752174653	 0.13497
H	-2.2760866107	-4.813383988	-0.2074129738	 0.122498
H	-1.2078080155	-4.6495728323	-1.634160684	 0.156142
H	 0.5443745603	-0.9284630222	 0.7968933742	 0.122156
H	-0.7017273126	 0.0985756253	 1.5229806855	 0.115275
H	-0.7081603632	-1.6649399805	 1.7981119789	 0.117915
32.6764	73.512	92.8146	126.6668	157.9276	186.8224	231.4002	236.8531	283.5668	357.352	440.393	457.2015	598.1248	724.4087	802.6699	934.7986	977.6966	1074.6846	1080.2254	1107.7475	1127.6639	1175.568	1180.2326	1186.7364	1196.7447	1220.9467	1281.3293	1315.5688	1385.9358	1435.2523	1471.387	1480.1645	1483.9368	1485.1522	1487.6147	1496.4447	1498.276	1508.6011	1515.8877	1752.6229	2993.0128	3009.1959	3025.8593	3034.1742	3049.5092	3062.4001	3084.3086	3103.5919	3110.7046	3121.6829	3146.5278
COCC(OC)=NC	COCC(=NC)OC	
InChI=1S/C5H11NO2/c1-6-5(8-3)4-7-2/h4H2,1-3H3	InChI=1S/C5H11NO2/c1-6-5(8-3)4-7-2/h4H2,1-3H3
