19
gdb 55021	3.03564	1.17823	1.03363	4.8834	76.98	-0.2286	-0.0219	0.2067	1236.5473	0.158829	-419.167281	-419.158199	-419.157255	-419.201791	33.084	
C	 0.3948718733	 1.3033299206	-0.4504827955	-0.483353
C	 0.0872827467	 0.1071938716	 0.4312029729	 0.407788
O	 0.9100034224	-0.3769101801	 1.1725592108	-0.29626
C	-1.3184137383	-0.4232649684	 0.3109720042	-0.150831
N	-1.6269014666	-1.7004304104	 0.9643321608	-0.32361
C	-2.2865036586	-0.5082150249	 1.4701157272	-0.025947
C	-2.001358527	-0.0939952979	 2.8828626675	-0.011221
C	-2.0861968382	-1.1289553666	 3.9511457846	-0.232558
N	-0.7995966282	-0.5273103096	 3.5924487332	-0.310199
H	 1.3962547587	 1.6750213304	-0.2325947135	 0.148022
H	 0.3321201979	 1.0193995854	-1.5078371014	 0.140144
H	-0.3423476983	 2.0982845423	-0.2902360474	 0.140879
H	-1.7865866691	-0.215827157	-0.6506269293	 0.089283
H	-2.245606026	-2.2621512637	 0.3878551947	 0.242393
H	-3.3251408561	-0.341569214	 1.1793889753	 0.092649
H	-2.319567313	 0.922018859	 3.1125415422	 0.087353
H	-2.4668847334	-0.8675719025	 4.9347932513	 0.111351
H	-2.2862392259	-2.1487148028	 3.6319076833	 0.112881
H	-0.2630212502	-1.1505096516	 2.9914552891	 0.261235
52.526	95.2768	128.8121	149.5579	203.9781	252.4835	276.7732	378.8257	459.6416	580.5597	616.5912	646.5232	716.9573	793.4764	845.3912	870.8918	899.6355	938.5057	953.5048	971.3685	995.978	1040.7134	1054.8163	1090.9087	1111.4194	1141.6939	1178.7425	1183.7987	1187.4186	1215.25	1248.5946	1270.5365	1320.9174	1379.1203	1400.8564	1426.8349	1459.6778	1467.4985	1476.5408	1504.5083	1813.931	3032.9238	3087.2665	3092.3377	3104.3933	3112.657	3116.3952	3156.5696	3191.962	3498.807	3523.6796
CC(=O)C1NC1C1CN1	CC(=O)[C@H]1N[C@H]1[C@H]1CN1	
InChI=1S/C6H10N2O/c1-3(9)5-6(8-5)4-2-7-4/h4-8H,2H2,1H3	InChI=1S/C6H10N2O/c1-3(9)5-6(8-5)4-2-7-4/h4-8H,2H2,1H3/t4-,5-,6+/m1/s1
