21
gdb 92206	2.92366	1.70132	1.41376	1.4577	80.94	-0.2357	0.0758	0.3115	1013.3516	0.184769	-387.077994	-387.070582	-387.069638	-387.109645	30.477	
C	-0.1861128874	 1.574179846	-0.0495748681	-0.401797
C	 0.047181137	 0.0731269744	 0.0196505015	 0.138049
O	 0.8206003182	-0.3289338226	-1.1181540445	-0.289044
C	 1.6044086017	-1.4743025823	-0.8060439147	 0.110218
C	 3.1096239436	-1.1436404451	-0.59242495	-0.240496
C	 2.8938572758	-1.1693771996	 0.9400275918	-0.027509
C	 2.2334665127	 0.1121741551	 1.5206150114	-0.247733
C	 0.8070689771	-0.4637518788	 1.2337087581	-0.043183
C	 1.4604473447	-1.7703832564	 0.7161806501	-0.072106
H	 0.757684377	 2.1240750734	-0.0003291925	 0.121198
H	-0.6813985568	 1.8353105058	-0.9888894674	 0.125934
H	-0.8258131666	 1.9001416287	 0.776885631	 0.110759
H	-0.931953656	-0.4371659198	-0.0149905204	 0.061073
H	 1.3797604411	-2.276572515	-1.5153396522	 0.071661
H	 3.7501304854	-1.9676947731	-0.9212994163	 0.095395
H	 3.4592447308	-0.2129728314	-1.047739351	 0.098011
H	 3.6628163301	-1.6430926499	 1.5504189709	 0.063072
H	 2.4150773913	 0.2272241124	 2.5918734514	 0.100187
H	 2.4976712253	 1.0519241529	 1.0275331115	 0.099337
H	 0.1677523002	-0.5430115356	 2.1150259117	 0.067918
H	 1.1192912348	-2.7489891392	 1.0497887276	 0.059056
91.7843	211.3115	225.0128	289.591	341.2484	397.3884	501.2839	578.7806	639.3288	692.2015	734.7536	792.1614	811.9128	849.2457	889.3814	917.657	922.4155	943.2581	948.4638	958.3729	1018.4923	1038.1006	1052.5595	1091.5727	1113.7375	1126.5428	1138.4696	1163.3833	1176.0561	1192.3456	1221.5689	1243.2671	1253.5652	1277.196	1293.3179	1304.5854	1324.9025	1342.6371	1373.8743	1388.957	1408.4787	1464.3862	1478.7219	1485.8062	1499.2384	2936.5819	3042.0137	3045.0333	3055.1461	3056.8188	3086.2404	3097.8082	3105.2943	3110.6867	3114.0554	3121.3803	3125.6658
CC1OC2CC3CC1C23	C[C@H]1O[C@H]2C[C@H]3C[C@@H]1[C@@H]23	
InChI=1S/C8H12O/c1-4-6-2-5-3-7(9-4)8(5)6/h4-8H,2-3H2,1H3	InChI=1S/C8H12O/c1-4-6-2-5-3-7(9-4)8(5)6/h4-8H,2-3H2,1H3/t4-,5-,6+,7+,8+/m1/s1
