19
gdb 115190	4.18132	1.00406	0.84491	3.431	80.06	-0.2342	-0.0564	0.1778	1369.6026	0.158919	-423.055535	-423.046815	-423.045871	-423.089266	32.45	
C	-0.0284904375	 1.5856148141	 0.0475241917	-0.386666
C	-0.015358064	 0.0559148966	 0.0410357129	-0.191846
C	-1.4217859248	-0.5530364324	 0.010742062	 0.088966
O	-2.0547100717	-0.0975319959	-1.1728558465	-0.257708
C	-3.315474868	-0.6866605184	-1.4193149547	-0.1891
C	-3.2526031775	-2.2116188123	-1.4939438555	 0.351758
O	-4.0608878943	-2.8543398402	-2.1309930595	-0.320324
C	-2.1959845877	-2.8242153258	-0.667140755	-0.179708
C	-1.3922858611	-2.0566780032	 0.0780499396	-0.05536
H	 0.9906152905	 1.9828295717	 0.0508173945	 0.114584
H	-0.5455029601	 1.9706606563	-0.8342235924	 0.14058
H	-0.5416732017	 1.9721964064	 0.9351872877	 0.112934
H	 0.5343326985	-0.3160446682	-0.831434025	 0.114198
H	 0.5013074564	-0.3235342801	 0.9307698504	 0.098717
H	-1.980459397	-0.1808797246	 0.8946001592	 0.081263
H	-4.0466937648	-0.4132837274	-0.6365202468	 0.110858
H	-3.680309169	-0.2938269534	-2.3706299934	 0.137747
H	-2.1587535762	-3.9087096464	-0.6444494912	 0.113947
H	-0.6788988901	-2.4996105468	 0.769830692	 0.11516
61.9225	109.9405	164.6015	196.6531	239.8022	295.8607	366.0359	416.4896	423.8394	515.1919	546.6458	608.243	743.7226	758.9032	773.6889	858.8004	893.6961	963.4344	992.9839	1016.5521	1025.2708	1061.5084	1107.5863	1131.5605	1155.4277	1183.8424	1246.8258	1272.3174	1291.2169	1313.228	1347.1878	1376.3477	1386.8256	1404.7059	1411.2482	1468.5855	1477.5311	1495.1378	1508.248	1678.9809	1790.5228	2889.276	2946.037	3033.757	3039.3559	3073.142	3105.6991	3113.9597	3131.8531	3152.9651	3190.3387
CCC1OCC(=O)C=C1	CC[C@H]1OCC(=O)C=C1	
InChI=1S/C7H10O2/c1-2-7-4-3-6(8)5-9-7/h3-4,7H,2,5H2,1H3	InChI=1S/C7H10O2/c1-2-7-4-3-6(8)5-9-7/h3-4,7H,2,5H2,1H3/t7-/m1/s1
