16
gdb 86175	2.83907	1.19794	0.90112	3.9724	74.11	-0.2762	-0.0512	0.2251	1239.889	0.124062	-437.904117	-437.895418	-437.894474	-437.937734	31.82	
O	-0.1119460342	 1.4521277593	 0.0321209495	-0.421424
C	 0.0333770476	 0.0415355044	-0.0239584769	 0.080835
C	-1.36033354	-0.6147108014	-0.071948509	-0.241597
C	-1.2442205015	-1.8166128695	-1.0255162689	 0.00873
O	-2.4196299035	-1.920452868	-1.8025987429	-0.418558
C	 0.0061712654	-1.4696776305	-1.8358497116	 0.190449
C	 0.6913909361	-0.4593185074	-1.2915831979	-0.203568
C	 0.3354231529	-2.2025880643	-3.0072547005	 0.196574
N	 0.545054295	-2.8421393177	-3.9505311598	-0.335652
H	 0.7345377598	 1.8398291307	 0.2756334981	 0.288385
H	 0.60415832	-0.3132576346	 0.8497899263	 0.087184
H	-1.7443722641	-0.8838851203	 0.9128389572	 0.113368
H	-2.0475061533	 0.1028748374	-0.5289327331	 0.147317
H	-1.0694747435	-2.7520914883	-0.4714067387	 0.088776
H	-2.3724282637	-2.7268815225	-2.3278402426	 0.296701
H	 1.6169814269	-0.0468955475	-1.6775361692	 0.122481
85.329	113.7095	125.8078	244.7683	260.5373	296.0017	315.2814	409.9338	430.4382	483.4939	549.6851	572.3906	632.774	680.1313	818.7726	888.5841	914.9435	977.556	999.1923	1045.1296	1062.3819	1117.4027	1156.6678	1175.2597	1257.0581	1264.8794	1280.8821	1294.9906	1332.2893	1338.3678	1418.5689	1421.396	1483.9795	1684.9753	2334.737	2963.6239	2976.7264	3078.1886	3135.66	3201.8905	3809.3855	3823.0147
OC1CC(O)C(=C1)C#N	O[C@H]1C[C@@H](O)C(=C1)C#N	
InChI=1S/C6H7NO2/c7-3-4-1-5(8)2-6(4)9/h1,5-6,8-9H,2H2	InChI=1S/C6H7NO2/c7-3-4-1-5(8)2-6(4)9/h1,5-6,8-9H,2H2/t5-,6-/m1/s1
