17
gdb 124738	2.55025	1.52738	0.98884	3.6468	70.88	-0.2186	-0.0042	0.2144	1160.0445	0.136993	-455.134939	-455.126694	-455.12575	-455.167804	31.475	
C	-0.0166367064	 1.5667467015	 0.8825751461	-0.387565
C	-0.1852028051	 0.4306692311	-0.1293894937	-0.093118
N	 0.8237181125	-0.6515678642	-0.0149315543	-0.533459
H	 1.7424986072	-0.2949883897	-0.2596314551	 0.243528
H	 0.8812941523	-0.9607099375	 0.953080509	 0.244133
H	-0.1268614532	-2.0482132469	-0.9540267564	 0.302564
C	-1.5444411491	-0.2166293752	-0.0750207378	 0.287171
N	-2.6027115765	 0.3816119989	 0.4188872803	-0.213804
O	-3.6536938119	-0.4993832453	 0.2509291686	-0.173333
C	-3.2006806164	-1.6317933702	-0.3364671658	-0.028573
C	-1.8666339418	-1.5196909385	-0.5742067173	 0.147285
O	-1.0227717734	-2.4022982572	-1.1435561092	-0.440407
H	 0.9674731924	 2.0326965794	 0.7696666649	 0.105289
H	-0.7857516099	 2.3296072439	 0.7403329657	 0.151678
H	-0.1110081162	 1.1895395202	 1.9059380893	 0.123973
H	-0.0586305591	 0.8403490479	-1.1411666977	 0.116158
H	-3.9278615654	-2.4050698081	-0.5181699567	 0.14848
70.266	176.9176	209.5292	241.9359	309.5301	317.8181	359.0282	408.386	474.3815	526.9416	604.2571	628.5524	716.6582	751.0221	771.3748	786.4677	887.2463	927.7461	951.4373	961.5845	1015.7256	1086.9365	1126.134	1136.4214	1209.8729	1224.6742	1282.8314	1329.2301	1386.5494	1405.8026	1409.7897	1484.5038	1493.8992	1498.0571	1527.5548	1651.8916	1698.0549	3013.8328	3038.7334	3109.2177	3130.1634	3283.611	3461.0501	3481.828	3565.4922
CC([NH3+])C1=NOC=C1[O-]	C[C@@H](N)c1nocc1O	
InChI=1S/C5H8N2O2/c1-3(6)5-4(8)2-9-7-5/h2-3,8H,6H2,1H3	InChI=1S/C5H8N2O2/c1-3(6)5-4(8)2-9-7-5/h2-3,8H,6H2,1H3/t3-/m1/s1
