12
gdb 20332	6.65469	1.38396	1.16899	5.7535	60.31	-0.2846	-0.0196	0.265	936.5708	0.084128	-373.639571	-373.632696	-373.631751	-373.672011	23.859	
C	-0.2654278726	-0.9413414195	-0.8139341323	-0.410657
C	-0.0640052411	 0.0642100321	-0.1904963048	 0.277865
C	 0.1562525635	 1.2891468243	 0.5633504748	-0.28094
N	 1.4099404173	 1.9480362881	 0.1992180377	 0.022011
C	 2.154344665	 1.9014983873	-0.9196535093	 0.077713
N	 3.1721219883	 2.7242029796	-0.7868560095	-0.227022
N	 3.0324203079	 3.2830135882	 0.4444108156	-0.090172
N	 1.9834739013	 2.8300295721	 1.0458457499	-0.12345
H	-0.4438466367	-1.8370523971	-1.3574958757	 0.221153
H	-0.6718378255	 1.9894472384	 0.4025862737	 0.174647
H	 0.206629239	 1.0872396198	 1.6374164005	 0.182696
H	 1.9337298536	 1.2731212766	-1.7655096606	 0.176157
24.3395	124.4551	215.2369	318.4017	320.5319	466.7876	640.6618	662.5646	698.8072	735.5589	760.1152	875.3049	974.6319	989.8371	991.8156	1044.8937	1118.8429	1169.4254	1199.1882	1269.4673	1311.1279	1366.6217	1458.5096	1483.5352	1518.9808	2252.6941	3042.9151	3091.7264	3300.5947	3500.2234
C#CCN1C=NN=N1	C#CCn1cnnn1	
InChI=1S/C4H4N4/c1-2-3-8-4-5-6-7-8/h1,4H,3H2	InChI=1S/C4H4N4/c1-2-3-8-4-5-6-7-8/h1,4H,3H2
