18
gdb 84233	2.98543	1.55765	1.35551	3.7259	77.5	-0.2132	-0.0521	0.1611	1029.0066	0.145313	-401.820565	-401.812455	-401.811511	-401.852773	31.665	
C	-0.0374143027	 1.5488129343	-0.0461565409	-0.36996
C	 0.0148932019	 0.0274540157	-0.0091390998	 0.031333
N	 0.8853713113	-0.4091876102	-1.1802622609	-0.244822
C	 1.6149380454	-1.2748884078	-0.6167687672	 0.225507
O	 2.9491612331	-1.0157615656	-0.2635529591	-0.267655
C	 2.3263637628	-1.0273593741	 1.1019380226	 0.022492
C	 0.7724765912	-0.5793490827	 1.205088727	-0.150726
C	 1.2307985683	-1.9285645311	 0.7601735984	 0.200321
C	 0.8553266999	-3.3345383642	 1.1058399501	-0.51923
H	 0.9734369499	 1.9642839069	-0.0585770417	 0.132762
H	-0.5630550602	 1.89504326	-0.9394161642	 0.129295
H	-0.5647053356	 1.9225429441	 0.8396055863	 0.106994
H	-1.0072308301	-0.3804985667	-0.0432523974	 0.084004
H	 3.0330312253	-0.9810684345	 1.9226290623	 0.126969
H	 0.4214504458	-0.4026656893	 2.2213939675	 0.090656
H	-0.1072830813	-3.605772414	 0.6603058509	 0.135851
H	 1.6070873199	-4.0451864217	 0.7476092639	 0.137311
H	 0.766937895	-3.4528176891	 2.1906522423	 0.128898
117.4466	189.08	191.5663	219.9338	252.9108	319.2455	411.0815	481.4479	537.1833	560.3153	603.3925	657.8415	712.9745	759.4424	823.485	879.3166	889.8372	914.2329	936.2545	982.7114	1012.3739	1030.3453	1033.9677	1086.6468	1118.2315	1151.2318	1177.7896	1200.6253	1252.5454	1263.9074	1345.7742	1400.8862	1411.9466	1469.9802	1477.9147	1488.91	1495.1002	1495.3106	1624.5773	2977.9422	3033.1725	3034.1053	3101.6514	3103.3928	3109.366	3126.2021	3131.4707	3189.9562
CC1N=C2OC3C1C23C	C[C@H]1[N][C]2O[C@H]3[C@@H]1[C@@]23C	
InChI=1S/C7H9NO/c1-3-4-5-7(4,2)6(8-3)9-5/h3-5H,1-2H3	InChI=1S/C7H9NO/c1-3-4-5-7(4,2)6(8-3)9-5/h3-5H,1-2H3/t3-,4-,5+,7-/m1/s1
