19
gdb 85966	3.19522	1.15513	0.97709	2.3143	72.93	-0.2222	0.0273	0.2495	1253.7842	0.158002	-456.351054	-456.341457	-456.340512	-456.385676	35.701	
C	-0.0646219801	 1.4485937004	-0.0762036901	-0.32207
N	-0.0123992934	 0.0172259576	 0.1275746799	-0.098205
C	-1.2297798993	-0.6712778146	 0.6087606515	-0.217822
C	-0.3139645532	-1.6273132118	 1.4230354904	 0.310765
O	 0.0190278275	-2.8227827643	 0.7440341197	-0.517077
C	 0.7501536366	-0.50306779	 1.2832297407	-0.217676
C	-0.7706477435	-1.9461267747	 2.8427791092	 0.367775
N	-0.7677356111	-3.2621829453	 3.1618606108	-0.530188
O	-1.1055746697	-1.0558142634	 3.6043296939	-0.382573
H	 0.9310123018	 1.8220140986	-0.3386235682	 0.120633
H	-0.7390776151	 1.680095505	-0.9075381782	 0.12062
H	-0.4153833898	 1.9989923399	 0.8161685256	 0.102834
H	-1.8504627661	-0.0582630904	 1.2775840619	 0.116035
H	-1.8496913709	-1.1316442161	-0.1685672381	 0.09954
H	 0.2993763306	-2.5796502846	-0.1452380953	 0.293047
H	 1.7750330951	-0.8238426323	 1.0661113061	 0.099589
H	 0.736270316	 0.1615404056	 2.1586953712	 0.11601
H	-0.4797539099	-3.9470306049	 2.4844622299	 0.277979
H	-1.0593149055	-3.5380241147	 4.0841555192	 0.260782
45.3411	73.8851	198.748	244.5386	276.2624	284.0357	298.7152	319.3545	351.2947	386.4671	412.1714	447.0708	538.4714	626.4595	630.638	733.5561	756.6476	916.717	937.8679	948.5629	984.6073	1044.4973	1063.7324	1095.9191	1117.5313	1128.9591	1198.6704	1210.809	1221.6352	1264.8631	1289.6162	1297.6841	1338.2246	1442.6893	1450.2585	1484.6592	1488.4965	1499.5796	1518.7155	1597.5122	1793.0652	2940.3931	2998.2247	3007.5108	3057.5452	3067.61	3067.8675	3097.5736	3605.7501	3747.0745	3806.7037
CN1CC(O)(C1)C(N)=O	CN1CC(O)(C1)C(=O)N	
InChI=1S/C5H10N2O2/c1-7-2-5(9,3-7)4(6)8/h9H,2-3H2,1H3,(H2,6,8)	InChI=1S/C5H10N2O2/c1-7-2-5(9,3-7)4(6)8/h9H,2-3H2,1H3,(H2,6,8)
