18
gdb 87299	2.18078	1.30905	0.95029	1.5947	84.77	-0.2406	0.0335	0.2741	1288.1694	0.144147	-364.719953	-364.710042	-364.709098	-364.75478	36.619	
C	 0.0241622216	 1.5033364978	-0.1383461068	-0.404875
C	 0.0699268471	 0.0053745686	 0.0456935585	-0.036579
N	 1.3825485941	-0.6475406169	 0.0244039567	-0.354645
C	 0.5887654957	-0.6942464073	 1.2735988287	 0.100886
C	 1.179477123	 0.078235665	 2.4564678864	-0.425683
C	 2.2166867681	-0.666331065	 3.1616963602	 0.325418
C	 3.0712823574	-1.2806854781	 3.7405855401	-0.448444
C	-0.053850817	-1.9382115225	 1.6191617029	 0.310259
C	-0.5876892004	-2.9774274846	 1.9053882018	-0.452684
H	 0.8954437011	 1.9936780167	 0.299801335	 0.132005
H	 0.0153139453	 1.7443929641	-1.2067081781	 0.12651
H	-0.8821136702	 1.9255146429	 0.3084053367	 0.123572
H	-0.7475053693	-0.5248812214	-0.4405079603	 0.095967
H	 1.3405003586	-1.5470090193	-0.447155429	 0.241263
H	 1.5970568256	 1.0192636568	 2.0882094286	 0.138489
H	 0.3701190504	 0.3339687601	 3.1515888583	 0.135097
H	 3.827537214	-1.8234690054	 4.2508580198	 0.195263
H	-1.0531727051	-3.8963106316	 2.1632888905	 0.19818
55.1349	109.4709	140.8771	161.7891	173.7684	237.5389	314.9119	333.3332	384.8236	425.6342	490.2179	554.3974	564.9151	598.7014	616.3425	641.1688	659.1023	715.766	802.189	867.8019	923.1552	962.0003	980.7672	1039.5597	1056.944	1092.4889	1122.2675	1216.903	1240.6181	1299.4686	1315.4376	1352.0763	1408.1444	1451.2728	1455.0159	1487.9924	1500.6937	2232.7952	2243.3551	3034.7588	3039.8665	3092.2138	3099.4073	3115.946	3138.1709	3502.3035	3507.9925	3513.7866
CC1NC1(CC#C)C#C	C[C@H]1N[C@]1(CC#C)C#C	
InChI=1S/C8H9N/c1-4-6-8(5-2)7(3)9-8/h1-2,7,9H,6H2,3H3	InChI=1S/C8H9N/c1-4-6-8(5-2)7(3)9-8/h1-2,7,9H,6H2,3H3/t7-,8+/m1/s1
