20
gdb 91513	2.52158	1.39778	1.1205	2.7608	80.83	-0.2326	-0.0222	0.2104	1179.4765	0.1698	-403.135911	-403.126706	-403.125762	-403.169913	34.35	
C	 0.4148432346	 1.8140589215	 0.2432690284	-0.409348
C	 0.0927041221	 0.3278408225	 0.1726856346	-0.059485
C	 0.7993950717	-0.5417494394	-0.9345626154	-0.237877
C	 1.3803326041	-1.4300237614	 0.1676626606	-0.07873
N	 2.1873737126	-0.5801298578	 1.0310343455	-0.364182
C	 0.7185852671	-0.5900771402	 1.2415035422	 0.247661
C	 0.190621687	-1.1338756334	 2.5135301648	 0.283452
C	-1.2493356659	-0.8200464247	 2.8648799329	-0.494495
O	 0.896686193	-1.8196517565	 3.2305679864	-0.336032
H	 1.492877012	 1.9636072121	 0.3432492409	 0.142375
H	 0.0756624587	 2.3302410194	-0.6611493978	 0.113654
H	-0.0775528283	 2.2875879473	 1.1002465155	 0.110615
H	-0.9887821271	 0.1691267382	 0.1252178673	 0.074842
H	 0.0906174448	-1.0559380776	-1.5863908082	 0.105049
H	 1.5495300131	-0.0264254379	-1.5399674651	 0.113063
H	 1.50200778	-2.5068905571	 0.1685041721	 0.110762
H	 2.5586041167	-1.1671739235	 1.7813666871	 0.249348
H	-1.9266319264	-1.1956784963	 2.0898916298	 0.141406
H	-1.4984842727	-1.2780630697	 3.8224348114	 0.144041
H	-1.4006683174	 0.2638633743	 2.9213607371	 0.143882
73.2651	118.4376	134.7358	188.2024	199.8624	241.5144	302.6349	379.3328	426.4985	461.794	561.9695	599.3566	638.9737	679.9253	810.6004	842.7599	863.8199	903.4249	936.5542	960.6891	993.4387	1011.8726	1048.5681	1087.688	1107.1976	1110.6981	1151.319	1167.7688	1214.2547	1244.0578	1251.1517	1305.3504	1331.7936	1377.2328	1383.2674	1401.8505	1419.319	1461.5845	1473.3522	1477.7855	1491.1396	1505.9777	1762.7603	3031.3272	3036.6362	3059.8547	3066.913	3092.1905	3096.9038	3123.4742	3127.2013	3154.9006	3188.4837	3451.8788
CC1CC2NC12C(C)=O	C[C@H]1C[C@H]2N[C@@]12C(=O)C	
InChI=1S/C7H11NO/c1-4-3-6-7(4,8-6)5(2)9/h4,6,8H,3H2,1-2H3	InChI=1S/C7H11NO/c1-4-3-6-7(4,8-6)5(2)9/h4,6,8H,3H2,1-2H3/t4-,6+,7+/m0/s1
