20
gdb 114004	3.96213	0.69523	0.67362	4.8946	77.45	-0.2622	0.0136	0.2758	1732.9437	0.169742	-440.282935	-440.273003	-440.272059	-440.319311	34.731	
C	 0.8745846679	 1.272253899	 0.1767247653	-0.377419
C	-0.1249890983	 0.1537221855	-0.1388317383	-0.188069
C	 0.2968223549	-0.6477425023	-1.351853167	 0.001194
N	 1.3199940691	-1.6884206475	-1.1551224427	-0.337798
C	-0.0272076216	-2.0794697654	-1.6041323699	-0.034075
C	-0.8042035544	-2.9546741366	-0.6552909506	-0.103557
O	-0.4063675003	-4.3262122177	-0.8074302185	-0.183663
C	 0.6215916104	-4.7544232125	-0.0444448819	 0.174199
O	 1.0804435913	-5.8522316354	-0.1490089264	-0.278647
H	 1.8659304834	 0.8546589187	 0.3772161317	 0.132174
H	 0.9668761035	 1.9707508761	-0.6625182004	 0.113828
H	 0.5622344827	 1.8457278694	 1.0542176231	 0.116255
H	-0.2155263896	-0.5070029484	 0.7287135375	 0.103285
H	-1.1198082958	 0.5797112263	-0.3218562727	 0.101061
H	 0.3910334415	-0.0441512196	-2.2556091928	 0.087669
H	 1.979728169	-1.7123622975	-1.92700025	 0.239311
H	-0.1422663811	-2.3725473488	-2.6464290972	 0.099666
H	-0.6582478563	-2.6357355923	 0.3811771661	 0.117693
H	-1.8736826417	-2.9329777495	-0.8805297037	 0.125659
H	 0.9705489755	-3.9913719113	 0.6749835284	 0.091235
38.1406	71.2592	83.9463	126.0818	164.068	214.7153	256.6814	298.6589	352.6344	408.9067	476.2646	536.2393	680.934	758.3959	817.9019	840.1673	897.946	950.4751	985.8094	1002.4446	1029.0794	1043.7381	1055.092	1067.4007	1110.4322	1142.3347	1162.4891	1224.8992	1261.8214	1271.8155	1301.631	1316.2579	1343.0416	1378.5511	1408.5594	1424.2724	1435.2386	1474.2749	1484.4288	1493.9102	1499.3761	1508.1124	1863.7337	2977.3599	3029.5798	3035.0209	3056.1784	3076.3079	3096.4033	3106.4936	3108.5424	3115.5132	3128.3044	3516.1601
CCC1NC1COC=O	CC[C@H]1N[C@H]1COC=O	
InChI=1S/C6H11NO2/c1-2-5-6(7-5)3-9-4-8/h4-7H,2-3H2,1H3	InChI=1S/C6H11NO2/c1-2-5-6(7-5)3-9-4-8/h4-7H,2-3H2,1H3/t5-,6+/m1/s1
