13
gdb 130542	3.65972	1.21316	0.91113	2.0266	73.53	-0.261	-0.0666	0.1944	1167.9801	0.090255	-415.607158	-415.599574	-415.59863	-415.639841	27.524	
O	 0.0213139042	-0.0666174737	 0.0031234149	-0.317792
C	-0.0196241348	 1.1516069986	 0.0074350581	 0.166146
C	 1.2025781566	 1.9452454417	 0.0009170764	 0.255565
C	 2.2184624502	 2.590735679	-0.0045626576	-0.432065
C	-1.2716499292	 1.9088466767	 0.0188867171	 0.119445
C	-2.5474095594	 1.3592496767	 0.0264282882	-0.089311
N	-3.4000810742	 2.3965345207	 0.0357841431	-0.184785
N	-2.7864837716	 3.6058211067	 0.035151731	-0.216292
C	-1.4958937274	 3.310975466	 0.0249410701	-0.104582
H	 3.1252479879	 3.1451493514	-0.0096946802	 0.213673
H	-2.8698140081	 0.3308519772	 0.0255562705	 0.170392
H	-4.4064498041	 2.3657153216	 0.0429203319	 0.28511
H	-0.75841454	 4.0992938273	 0.0220890665	 0.134496
72.4314	116.87	179.9312	233.8877	279.8375	447.249	493.5638	576.9759	638.9797	651.2935	671.0425	691.2423	693.7543	779.2806	854.4559	915.6956	946.78	960.5543	1027.2093	1107.516	1162.4427	1231.4305	1348.7005	1382.6121	1431.349	1495.398	1586.8579	1726.5178	2214.3686	3258.4697	3279.0985	3495.3892	3666.3595
O=C(C#C)C1=CNN=C1	O=C(C#C)c1c[nH]nc1	
InChI=1S/C6H4N2O/c1-2-6(9)5-3-7-8-4-5/h1,3-4H,(H,7,8)	InChI=1S/C6H4N2O/c1-2-6(9)5-3-7-8-4-5/h1,3-4H,(H,7,8)
