18
gdb 37512	3.29539	2.1662	1.92641	1.2071	71.62	-0.2219	0.0726	0.2945	792.8457	0.153304	-401.908946	-401.903705	-401.902761	-401.938211	23.98	
C	-0.0275983826	 1.51015644	 0.0219869443	-0.178795
C	 1.5021329367	 1.698887805	 0.0293816849	-0.080528
C	 1.8169611084	 0.9562707342	 1.3522187125	 0.091576
O	 3.0867288688	 0.2981574489	 1.1939001995	-0.299269
C	 2.4220232288	-0.4533985151	 0.1624848813	 0.091577
C	 1.0483763603	-0.3370183969	 0.9098526422	-0.048408
N	-0.0436124312	 0.0195077838	-0.0679345987	-0.131248
C	 0.6783668265	-0.1346000776	-1.3661515705	-0.178794
C	 1.999150987	 0.5409385144	-0.947903526	-0.080528
H	-0.498785212	 1.8516368015	 0.9493967868	 0.104071
H	-0.5629369328	 1.9522953037	-0.8215364701	 0.105217
H	 1.9282010503	 2.6913913617	-0.1035251092	 0.071608
H	 1.6916067304	 1.4751933731	 2.302318898	 0.084374
H	 2.9188618196	-1.3840614893	-0.110833057	 0.084374
H	 0.787222281	-1.0807932822	 1.6583082236	 0.083876
H	 0.8075745757	-1.1919227995	-1.6193094282	 0.104071
H	 0.1249276429	 0.3497274779	-2.1740733717	 0.105217
H	 2.740912312	 0.7979361965	-1.7015639315	 0.071608
374.0225	443.4298	468.3135	536.4807	650.7426	650.7896	754.5208	812.6441	823.0503	855.4553	860.6126	873.717	906.3971	907.0499	925.468	938.2261	959.2638	974.4645	974.771	989.2151	1039.958	1074.9333	1080.2788	1137.8484	1160.3252	1165.1249	1204.005	1204.0489	1236.7757	1242.3046	1251.4222	1259.0652	1268.8865	1293.9419	1300.6345	1317.9226	1356.152	1500.4093	1525.0613	3050.7369	3055.6395	3101.3082	3110.7216	3121.5799	3123.3669	3134.4203	3142.9219	3154.4513
C1C2C3OC4C3N1CC24	C1[C@H]2[C@@H]3O[C@H]4[C@@H]3N1C[C@@H]24	
InChI=1S/C7H9NO/c1-3-4-2-8(1)5-6(3)9-7(4)5/h3-7H,1-2H2	InChI=1S/C7H9NO/c1-3-4-2-8(1)5-6(3)9-7(4)5/h3-7H,1-2H2/t3-,4+,5-,6+,7-
