20
gdb 87836	2.95039	1.34212	1.13989	2.434	79.47	-0.2301	0.0834	0.3135	1168.8599	0.169183	-403.092475	-403.08354	-403.082596	-403.125772	34.01	
C	-0.0155215134	 1.5535657653	-0.0643101325	-0.417548
C	-0.0700013119	 0.0555402406	 0.0841203484	-0.037094
O	 1.1807875792	-0.6532302084	-0.0512133923	-0.295957
C	 0.5396443966	-0.653376736	 1.2120513823	 0.389907
C	 1.2701987005	-0.2106375515	 2.4818076961	-0.26029
N	 0.9579284885	-1.5255066992	 3.1540041374	-0.165695
C	-0.5162852534	-1.6067576138	 3.1813839521	-0.285303
C	 0.1698532972	-1.944626773	 1.9135677706	 0.240173
C	 0.2393928417	-3.3072861569	 1.2959553521	-0.493032
H	 0.8176863014	 1.9726019393	 0.5058586136	 0.128052
H	 0.113501136	 1.8331900513	-1.1150305581	 0.13217
H	-0.9467920645	 2.0071475003	 0.2921491328	 0.122627
H	-0.9001601351	-0.4359806047	-0.4274154789	 0.088635
H	 2.3461997073	-0.1132784539	 2.3221871541	 0.127864
H	 0.8948156557	 0.665926315	 3.0210041016	 0.105114
H	-0.8856635369	-2.4299961332	 3.7861552107	 0.121515
H	-1.0951587309	-0.6883034357	 3.2667978236	 0.106724
H	-0.6513774596	-3.50812381	 0.6895382837	 0.122062
H	 1.1151285706	-3.3922541194	 0.6463458098	 0.139315
H	 0.302109261	-4.0747486961	 2.0724674229	 0.130761
109.1631	142.9788	163.293	182.0858	204.422	251.7474	327.9815	428.9263	441.1656	480.9462	511.411	561.8849	669.0124	741.1612	793.6761	832.2827	881.0836	905.1033	957.134	975.3227	1014.8386	1029.9853	1063.0971	1096.1602	1098.4508	1123.3326	1132.1081	1135.8864	1188.6409	1198.3836	1272.4071	1298.8219	1353.9801	1369.4238	1409.4168	1417.1216	1472.7437	1477.877	1484.5737	1489.3846	1494.2027	1506.5438	1531.5465	3034.4132	3036.205	3043.2074	3085.6121	3093.3108	3099.6958	3100.8551	3115.4519	3122.4172	3124.0757	3187.6821
CC1OC11CN2CC12C	C[C@H]1O[C@]21CN1C[C@@]21C	
InChI=1S/C7H11NO/c1-5-7(9-5)4-8-3-6(7,8)2/h5H,3-4H2,1-2H3	InChI=1S/C7H11NO/c1-5-7(9-5)4-8-3-6(7,8)2/h5H,3-4H2,1-2H3/t5-,6+,7+,8?/m1/s1
