19
gdb 18393	3.2073	2.18593	1.50062	1.5407	75.83	-0.2361	0.0146	0.2506	882.0845	0.168985	-327.909736	-327.90287	-327.901926	-327.940372	27.893	
C	 0.0386517774	 1.528766721	-0.1122393599	-0.194077
C	 1.4423122353	 2.151053871	 0.1146487595	-0.245056
C	 2.2418059368	 1.5110442228	 1.2301584964	-0.052611
C	 2.7388689185	 0.2753494741	 1.1510087678	-0.050013
C	 2.5329627678	-0.580705996	-0.0524642767	-0.068737
N	 1.7573552309	-1.8300932708	 0.1214151211	-0.343295
C	 1.1740283289	-0.7107983472	-0.6467042047	-0.022104
C	 0.0004950137	-0.0074958161	 0.0083339243	-0.193879
H	-0.6733585117	 1.9451782826	 0.6095176278	 0.099163
H	-0.313435616	 1.8444254183	-1.1017504499	 0.093512
H	 2.0117056975	 2.0650059357	-0.8178424239	 0.109448
H	 1.3289139037	 3.2236850398	 0.3002448834	 0.09481
H	 2.4076504779	 2.094771374	 2.1326469522	 0.086611
H	 3.3131501225	-0.1472057776	 1.9723153878	 0.088892
H	 3.3796117686	-0.6349634653	-0.7382854183	 0.086296
H	 2.1149815605	-2.5399598545	-0.5132135457	 0.226495
H	 1.1249101518	-0.8218228785	-1.7290180038	 0.07487
H	 0.0111418609	-0.2904286943	 1.0638334387	 0.119321
H	-0.9421974352	-0.386441979	-0.404070696	 0.090354
171.5981	196.3127	283.3407	319.0622	339.2608	435.3788	532.5555	579.6269	679.9236	735.147	795.9667	827.1244	841.5137	859.7164	910.5979	933.8442	966.4727	989.8396	997.4494	1022.063	1069.1238	1081.7551	1120.757	1159.6292	1190.1613	1207.4268	1231.9335	1258.1388	1275.3208	1300.2942	1326.6933	1355.564	1372.9985	1395.3632	1423.2318	1460.4713	1483.3798	1493.2648	1502.0329	1707.2518	3024.7775	3033.8354	3042.3735	3060.113	3079.531	3085.6154	3098.2769	3117.5532	3142.0105	3165.4291	3494.7546
C1CC=CC2NC2C1	C1CC=C[C@H]2N[C@H]2C1	
InChI=1S/C7H11N/c1-2-4-6-7(8-6)5-3-1/h2,4,6-8H,1,3,5H2	InChI=1S/C7H11N/c1-2-4-6-7(8-6)5-3-1/h2,4,6-8H,1,3,5H2/t6-,7+/m1/s1
