16
gdb 18132	5.4094	1.31625	1.2951	4.4136	69.12	-0.2494	0.0233	0.2727	978.6846	0.131357	-342.749851	-342.742533	-342.741589	-342.781384	27.345	
C	-0.0753936616	 1.5662957553	-0.0345012485	-0.42997
C	 0.069372356	 0.0626891233	-0.0669032278	 0.015663
C	 0.6229580881	-0.7462522103	-1.1724213999	-0.047563
C	 1.7721080285	-0.0225468932	-1.8958489317	-0.182388
C	 2.4446649958	 0.0683239323	-0.4881734825	-0.17488
N	 1.3267920699	-0.6816886768	 0.1760640048	-0.141243
C	 2.4975240027	-0.8343575423	-2.8579624662	 0.267664
N	 3.0758249659	-1.4794485112	-3.6234973521	-0.319833
H	 0.6568498967	 2.0940917838	-0.6492577868	 0.124995
H	-1.0698928577	 1.8458126113	-0.3965480093	 0.134295
H	 0.0209108025	 1.9356344068	 0.9918484048	 0.136638
H	-0.7365856201	-0.4464674142	 0.4590146416	 0.109507
H	 0.1614505207	-1.6560403934	-1.5414978492	 0.118144
H	 1.4992122243	 0.9236084446	-2.3735149993	 0.126765
H	 3.3624325431	-0.5159115766	-0.4234676139	 0.143906
H	 2.6264163652	 1.0734771905	-0.0990860639	 0.1183
112.3096	150.2949	186.7912	256.0652	306.0324	396.6673	509.4503	549.8367	561.251	709.2788	730.4553	790.9037	857.6164	919.8107	930.7965	971.7242	1038.2616	1064.6772	1080.0435	1089.62	1120.3684	1140.6634	1193.7352	1214.0161	1254.7483	1293.6868	1313.4261	1367.2589	1415.2029	1438.4624	1488.1424	1502.336	1508.7467	2357.5824	3043.6798	3057.7467	3070.5791	3103.839	3117.0793	3134.033	3139.482	3172.2553
CC1C2C(CN12)C#N	C[C@H]1[C@H]2[C@@H](CN12)C#N	
InChI=1S/C6H8N2/c1-4-6-5(2-7)3-8(4)6/h4-6H,3H2,1H3	InChI=1S/C6H8N2/c1-4-6-5(2-7)3-8(4)6/h4-6H,3H2,1H3/t4-,5+,6-,8?/m0/s1
