20
gdb 31698	5.46504	0.81645	0.7506	1.4274	84.46	-0.1835	0.0337	0.2172	1585.5909	0.171037	-403.176275	-403.166802	-403.165858	-403.211007	34.74	
C	 0.0596971972	 1.5069373645	 0.2918082164	-0.37021
C	-0.0307820964	 0.0234514755	-0.1058659219	-0.290601
C	-1.4312938422	-0.4748594152	-0.2159093633	 0.404978
C	-2.1679303027	-0.9551756201	-1.2542428752	-0.406876
C	-3.4711638184	-1.2678598359	-0.7295368204	 0.289655
N	-4.5537986583	-1.7364468188	-1.4707488915	-0.382495
C	-5.7056721682	-2.2173233534	-0.7301705377	-0.324543
C	-3.4212208216	-0.9534955622	 0.5981532714	-0.118626
O	-2.17911963	-0.4592875078	 0.9173569612	-0.198779
H	 1.1039641992	 1.821652205	 0.3807636236	 0.109998
H	-0.4278523577	 2.1414715977	-0.4545376659	 0.121023
H	-0.4326439471	 1.6793059517	 1.2526288408	 0.132618
H	 0.4616062156	-0.1394960369	-1.0699401438	 0.110204
H	 0.5148947377	-0.5805362978	 0.6311184306	 0.114532
H	-1.8367912843	-1.0713897406	-2.2752034976	 0.096985
H	-4.2728673643	-2.3605857817	-2.213639294	 0.232553
H	-6.450712033	-2.6048690519	-1.428951018	 0.120796
H	-5.4614243616	-3.0055504773	 0.0013744119	 0.108388
H	-6.1616699279	-1.3844789548	-0.1829505669	 0.131979
H	-4.1308022561	-1.0002718602	 1.4047982404	 0.118422
52.024	80.7229	153.1085	167.2754	207.3957	229.3274	304.1221	324.2269	394.5986	475.1605	546.8463	626.5574	648.8534	669.7415	703.3324	738.1722	780.8621	791.603	939.159	981.0466	991.5618	1064.4634	1078.7401	1091.3172	1140.3424	1157.4782	1170.3999	1192.2227	1246.395	1291.0018	1324.9986	1355.1931	1392.906	1408.7131	1458.52	1474.6928	1480.5876	1495.5887	1505.097	1507.7013	1526.0753	1595.1387	1674.9825	2966.0786	3020.812	3040.9707	3058.4664	3077.6102	3111.1176	3117.3463	3123.0288	3244.8846	3294.6724	3583.1432
CCC1=CC(NC)=CO1	CCc1cc(NC)co1	
InChI=1S/C7H11NO/c1-3-7-4-6(8-2)5-9-7/h4-5,8H,3H2,1-2H3	InChI=1S/C7H11NO/c1-3-7-4-6(8-2)5-9-7/h4-5,8H,3H2,1-2H3
