21
gdb 120225	4.32837	0.90238	0.88084	2.0107	79.32	-0.2359	0.0854	0.3213	1420.1385	0.183455	-424.18439	-424.175945	-424.175	-424.218088	32.001	
C	-0.6680375951	 1.2128533789	-1.9555510031	-0.223847
O	-0.4467500835	-0.1743617503	-1.8814235216	-0.232571
C	 0.6039296202	-0.517907901	-0.998538373	-0.114059
C	 0.6952765611	-2.0296127745	-0.954301659	 0.023351
C	 1.2399512011	-2.7655553205	-2.2294222849	-0.06346
C	 2.6779980827	-2.4539099477	-1.7025357441	-0.250058
C	 1.9648336731	-2.698266297	-0.3517750976	 0.086886
O	 1.6345187354	-4.095765854	-0.4079484033	-0.283958
C	 1.1019873959	-4.2156137958	-1.7522324632	-0.088469
H	-0.9443611591	 1.6367818303	-0.9767266945	 0.103323
H	 0.2211144831	 1.7517363984	-2.3209790277	 0.101828
H	-1.4911810362	 1.3768812012	-2.6553415853	 0.127168
H	 1.5425630893	-0.0456894201	-1.3288823147	 0.085919
H	 0.3921817504	-0.1295724124	 0.0133537759	 0.086454
H	-0.2434377982	-2.4273893666	-0.5561200665	 0.080254
H	 0.9039248226	-2.5191677529	-3.2349256021	 0.080723
H	 3.4819369317	-3.1466766661	-1.9625908664	 0.099549
H	 2.9928694435	-1.4248425533	-1.8697258252	 0.104505
H	 2.3844376947	-2.460295719	 0.6251586739	 0.076457
H	 0.0645649756	-4.5674523159	-1.7141990911	 0.101562
H	 1.7015548319	-4.9284663217	-2.3304128465	 0.098444
67.9024	90.8052	121.9023	233.1064	297.9267	328.2876	345.4981	380.1549	501.9652	595.2289	655.8029	796.6458	848.3836	853.7543	906.9876	919.82	942.3836	961.3423	990.5325	1001.3752	1025.6789	1061.6676	1077.2277	1110.5232	1121.2863	1136.2471	1161.4373	1177.4039	1188.2008	1214.0256	1225.3558	1239.0977	1252.3118	1260.1224	1277.8365	1296.3305	1351.833	1385.8491	1432.4785	1480.8036	1486.1042	1492.2785	1507.1452	1526.4457	1531.3219	2948.259	2967.8525	2984.3713	3009.4364	3023.6056	3061.4462	3066.2434	3077.0765	3112.9317	3128.673	3139.3491	3149.4867
COCC1C2CC1OC2	COC[C@H]1[C@H]2C[C@@H]1OC2	
InChI=1S/C7H12O2/c1-8-4-6-5-2-7(6)9-3-5/h5-7H,2-4H2,1H3	InChI=1S/C7H12O2/c1-8-4-6-5-2-7(6)9-3-5/h5-7H,2-4H2,1H3/t5-,6-,7-/m0/s1
