21
gdb 84553	2.75711	1.76007	1.351	0.3456	87.87	-0.2377	0.0166	0.2543	1033.3247	0.184695	-349.893229	-349.885942	-349.884998	-349.924417	30.809	
C	 0.0940410849	 1.5771789729	 0.0702989754	-0.403909
C	 0.0165121166	 0.0488852457	 0.0197994826	-0.1819
C	 0.7860592157	-0.5841627386	-1.1578553734	-0.036256
C	 1.489812811	-1.681690101	-0.8383614098	-0.174461
C	 1.1912151264	-2.0586616912	 0.593023753	-0.009764
C	 1.9601738322	-1.8608964921	 1.9492465342	-0.091926
C	 2.2048767743	-0.3930490907	 1.5461786111	-0.241259
C	 0.7172267947	-0.696221662	 1.147758375	 0.357972
C	 0.5768825383	-1.3841599696	 2.5409425823	-0.319216
H	 1.1322362125	 1.9148336073	 0.1506652852	 0.121373
H	-0.3353027955	 2.0241764362	-0.8326056421	 0.111067
H	-0.4571348101	 1.9695691737	 0.9308906212	 0.115626
H	-1.0416358093	-0.2485981261	-0.0475208942	 0.080779
H	 0.735548657	-0.1517498906	-2.1534784015	 0.088823
H	 2.064513202	-2.2703882337	-1.5454851829	 0.089018
H	 0.4582032114	-2.8760830262	 0.6370546085	 0.069155
H	 2.6629230204	-2.5415627214	 2.4335527516	 0.066847
H	 2.3472463797	 0.3183352667	 2.3645242479	 0.082297
H	 2.9079487261	-0.2123654561	 0.7322660547	 0.095907
H	-0.2048209891	-2.1429187166	 2.6376902163	 0.090417
H	 0.6320011409	-0.7482951667	 3.4288443049	 0.089409
160.7857	215.0136	228.2155	304.8998	358.7289	477.655	503.5492	534.8123	590.5599	660.1234	735.499	764.2475	791.4447	842.441	856.2839	900.7957	909.264	940.9869	962.5323	976.7103	1008.0578	1028.7396	1045.08	1060.8446	1078.467	1095.9769	1108.6557	1127.2844	1148.1733	1153.189	1161.7831	1201.6568	1212.8446	1238.5727	1259.9024	1294.9817	1329.2242	1360.6728	1367.1882	1409.1222	1495.4938	1497.4644	1498.3886	1534.713	1624.5188	2982.6521	3002.1364	3032.371	3045.9997	3057.3162	3091.5476	3098.5735	3106.1548	3112.9845	3130.6269	3163.5334	3192.2979
CC1C=CC2C3CC12C3	C[C@H]1C=C[C@H]2[C@H]3C[C@@]12C3	
InChI=1S/C9H12/c1-6-2-3-8-7-4-9(6,8)5-7/h2-3,6-8H,4-5H2,1H3	InChI=1S/C9H12/c1-6-2-3-8-7-4-9(6,8)5-7/h2-3,6-8H,4-5H2,1H3/t6-,7-,8-,9+/m0/s1
