20
gdb 92813	2.71598	1.7804	1.55388	1.4637	83.96	-0.2236	-0.0102	0.2134	965.8122	0.172823	-365.927047	-365.919666	-365.918722	-365.958313	30.591	
C	-0.1861298578	 1.5971557793	-0.0420075057	-0.389087
C	 0.0164323284	 0.0765452943	-0.0487166045	-0.004107
C	 0.6621355914	-0.4492301687	-1.3815054008	-0.265904
C	 2.1010618085	-0.0127963254	-1.2794984066	-0.130409
C	 2.7382391792	-0.3872416796	-0.1671913116	 0.125799
C	 3.2127865047	 0.5572790812	 0.9141494117	-0.188144
N	 2.1539499713	-0.0530519806	 1.8315358583	-0.170424
C	 0.8227503799	-0.4586727146	 1.1544159888	 0.00716
C	 2.048441078	-1.2264995826	 0.8972487637	-0.128524
H	 0.7608085197	 2.1293767483	-0.1707393929	 0.122237
H	-0.8591728865	 1.9058203066	-0.8490428133	 0.110615
H	-0.6230969229	 1.9266871434	 0.9057917056	 0.120853
H	-0.9744948175	-0.3871875874	 0.0522210923	 0.07328
H	 0.5492931307	-1.5377020086	-1.4192127671	 0.111489
H	 0.1551465803	-0.0323980782	-2.2559164915	 0.098111
H	 2.422103816	 0.8751928907	-1.8188275082	 0.092979
H	 4.1726974408	 0.3284317607	 1.3875276	 0.115749
H	 3.1352145404	 1.6327885283	 0.725735135	 0.105414
H	 0.1956048091	-0.7931459623	 1.9770814248	 0.100722
H	 2.2756070363	-2.2431859652	 1.2017840119	 0.092191
142.9356	215.9926	224.7416	329.2016	354.1925	407.3906	469.0498	506.6436	588.7363	616.0723	733.5866	770.6566	783.6856	796.9618	867.3928	884.6917	903.9367	927.2313	941.6217	996.5514	1012.5201	1021.0485	1055.369	1074.8528	1083.6431	1116.1162	1139.6214	1140.7189	1216.2054	1234.0822	1249.0279	1268.7123	1293.9208	1334.2594	1353.8125	1358.0694	1384.1262	1411.8308	1480.5258	1495.637	1499.1894	1506.6329	1690.9917	3004.6118	3035.2333	3038.9157	3048.0112	3093.574	3096.5981	3102.1745	3112.1579	3137.3296	3153.0349	3156.5469
CC1CC=C2CN3C1C23	C[C@H]1C[CH][C]2CN3[C@@H]1[C@@H]23	
InChI=1S/C8H11N/c1-5-2-3-6-4-9-7(5)8(6)9/h3,5,7-8H,2,4H2,1H3	InChI=1S/C8H11N/c1-5-2-3-6-4-9-7(5)8(6)9/h3,5,7-8H,2,4H2,1H3/t5-,7-,8+,9?/m0/s1
