24
gdb 10358	1.85411	1.59945	1.1032	1.3254	81.38	-0.2607	0.0777	0.3384	1258.7832	0.221445	-351.411389	-351.400608	-351.399664	-351.44693	39.109	
C	-0.2436470509	 1.6565923048	-0.3071478346	-0.388952
C	 0.0426456899	 0.1756060166	-0.0295977864	-0.192221
C	 0.815089624	-0.5432051266	-1.1551078991	 0.057442
C	 2.2929023707	-0.1400124904	-1.1473058917	-0.098465
O	 2.9009107657	-0.6360308461	-2.3339695811	-0.422197
C	 0.6525426134	-2.0880489814	-1.1475587714	 0.03521
C	 0.9552657887	-2.734616208	 0.2132678564	-0.393521
C	-0.7334093257	-2.5153950605	-1.6513934151	-0.403862
H	 0.6740085464	 2.2405086421	-0.4297986257	 0.116161
H	-0.8344386252	 1.7765355772	-1.2219939115	 0.116599
H	-0.809042736	 2.1073182185	 0.5148357334	 0.110079
H	 0.5938910718	 0.0805363092	 0.9152433385	 0.093224
H	-0.9132446652	-0.3348364644	 0.132025721	 0.098298
H	 0.414817506	-0.1910874363	-2.1166342941	 0.07289
H	 2.3817407562	 0.9554780547	-1.097816476	 0.082967
H	 2.7884143042	-0.5451931781	-0.2501340476	 0.083855
H	 3.8406055828	-0.437175794	-2.2967659961	 0.285299
H	 1.3901903956	-2.4640570596	-1.8654578304	 0.092916
H	 0.2180269973	-2.448241572	 0.9712998423	 0.110418
H	 0.92959964	-3.8262503541	 0.130581747	 0.108588
H	 1.9453446794	-2.4607530321	 0.5916615419	 0.107835
H	-0.9358998192	-2.1098324901	-2.6483084277	 0.110363
H	-0.8043283919	-3.6065472147	-1.7143986577	 0.107215
H	-1.5354869579	-2.1780195246	-0.9846017143	 0.10986
68.0426	75.113	119.0181	200.0062	205.0136	226.1476	234.7481	253.2006	266.7179	290.0992	312.8798	397.2461	453.9016	504.3186	552.612	748.3717	777.4071	896.5846	927.291	931.1039	960.2518	978.7313	1014.0536	1050.5959	1058.7436	1073.7823	1127.0908	1158.5094	1180.1294	1202.6778	1245.5962	1263.1859	1296.0294	1320.2405	1342.5381	1370.4402	1382.9718	1398.892	1405.4959	1413.7765	1425.8904	1454.0792	1484.5769	1487.5227	1499.4144	1501.725	1505.8307	1509.7369	1511.4036	1522.4733	2969.2884	2996.2562	3010.2363	3023.9432	3025.9984	3032.5717	3033.2175	3044.0447	3061.3686	3089.4972	3096.1221	3097.5479	3098.7948	3099.5667	3103.7582	3834.6734
CCC(CO)C(C)C	CC[C@@H](CO)C(C)C	
InChI=1S/C7H16O/c1-4-7(5-8)6(2)3/h6-8H,4-5H2,1-3H3	InChI=1S/C7H16O/c1-4-7(5-8)6(2)3/h6-8H,4-5H2,1-3H3/t7-/m0/s1
