19
gdb 35854	2.1659	1.65634	1.18699	1.3822	79.93	-0.2518	0.0442	0.296	1109.2758	0.158922	-385.851205	-385.842714	-385.84177	-385.884921	32.629	
C	 0.0586402471	-1.2818930024	 0.4578822199	-0.491363
C	 0.0503452435	-0.0999706104	 0.2352780954	 0.347477
C	 0.0507226815	 1.3370779504	-0.0225962576	-0.255676
C	-0.6742722574	 2.1299817879	 1.0949163062	-0.225152
C	 0.3864444466	 2.2340058115	 2.2053777163	-0.211019
C	 1.7155779357	 2.4645304374	 1.4491995605	-0.288491
C	 1.4751264808	 1.9277143533	 0.0337500514	 0.446635
C	 2.5262449506	 1.5410020743	-0.9062700306	-0.248631
O	 1.8330733524	 2.7867020288	-1.053987192	-0.280212
H	 0.0602881593	-2.326983407	 0.6457131441	 0.196762
H	-0.3760801329	 1.5314293361	-1.0114416525	 0.112815
H	-0.9208300287	 3.1254433309	 0.7086799879	 0.109182
H	-1.6001001222	 1.6511132969	 1.4195759728	 0.108652
H	 0.1678734394	 3.0269059713	 2.9246874542	 0.101333
H	 0.4259746558	 1.2903279308	 2.758656723	 0.116154
H	 1.9536204811	 3.5295836218	 1.368506276	 0.121663
H	 2.5628442666	 1.9755735161	 1.9370810243	 0.109865
H	 3.5711443348	 1.6211942219	-0.6082720025	 0.112234
H	 2.3198453962	 0.7940085903	-1.6719488667	 0.117774
32.973	132.3439	139.1015	251.5126	304.5459	360.066	370.7904	465.1363	510.4206	538.1612	622.1051	630.7081	632.7483	791.8224	817.6781	841.2683	846.935	902.8533	908.9166	957.6664	970.5642	993.751	1046.2284	1096.4737	1127.7098	1145.8005	1158.3714	1180.126	1214.8851	1249.8526	1258.8478	1304.1528	1317.3202	1337.6239	1354.7848	1419.7321	1479.4718	1488.0261	1502.48	1533.4225	2230.739	3045.1839	3054.7338	3058.8182	3064.8689	3078.887	3095.0398	3108.9253	3116.6925	3164.5606	3503.0466
C#CC1CCCC11CO1	C#C[C@H]1CCC[C@]21CO2	
InChI=1S/C8H10O/c1-2-7-4-3-5-8(7)6-9-8/h1,7H,3-6H2	InChI=1S/C8H10O/c1-2-7-4-3-5-8(7)6-9-8/h1,7H,3-6H2/t7-,8+/m0/s1
