17
gdb 13860	3.69084	1.69155	1.38239	3.0139	63.64	-0.2309	0.0341	0.2649	923.478	0.143833	-401.045086	-401.037315	-401.036371	-401.077861	28.631	
N	 0.7538053249	-0.2472729482	 0.2869764649	-0.513968
C	-0.2191050416	 0.2775746925	-0.4973324363	 0.361031
O	-0.0387499766	 1.128475538	-1.3487886972	-0.374284
C	-1.626680714	-0.283128468	-0.2235922523	 0.031679
C	-2.281289079	-0.8384588743	-1.4993703622	-0.237289
C	-1.9579415647	-2.3369130215	-1.3982738624	-0.226658
C	-2.0525056504	-2.5688034695	 0.1108999212	-0.066288
O	-1.5940510251	-1.3570061372	 0.7249016853	-0.285977
H	 1.6882886153	 0.1192016292	 0.2223208717	 0.259668
H	 0.5032343462	-0.9130304377	 0.9983823626	 0.269941
H	-2.2076285046	 0.5443721567	 0.2009432636	 0.109525
H	-3.3631793015	-0.6779328412	-1.4681998803	 0.104514
H	-1.8845530622	-0.3493993428	-2.3892756906	 0.137832
H	-2.6437762926	-2.9694986157	-1.9661300594	 0.106896
H	-0.9399771703	-2.5339246033	-1.750341908	 0.116758
H	-3.0904118984	-2.7627865118	 0.4186207719	 0.099887
H	-1.4304156154	-3.3937511854	 0.4715392474	 0.106733
54.4257	74.8579	191.7158	285.0328	306.3707	343.0287	469.1581	501.1896	579.4638	645.8158	700.9158	736.6262	823.9721	885.6082	907.3783	932.9755	946.963	970.1527	1052.4363	1085.9304	1100.0785	1117.0235	1189.9776	1197.3873	1255.6171	1290.5793	1320.048	1332.3551	1342.7862	1376.1605	1392.4961	1488.534	1500.1702	1529.0205	1584.609	1798.378	2998.7922	3036.8775	3053.2145	3064.7616	3077.705	3114.2535	3139.5741	3599.2827	3741.8507
NC(=O)C1CCCO1	NC(=O)[C@H]1CCCO1	
InChI=1S/C5H9NO2/c6-5(7)4-2-1-3-8-4/h4H,1-3H2,(H2,6,7)	InChI=1S/C5H9NO2/c6-5(7)4-2-1-3-8-4/h4H,1-3H2,(H2,6,7)/t4-/m1/s1
