17
gdb 54250	2.54315	1.45113	1.37915	5.35	68.95	-0.2352	0.0036	0.2388	1026.5645	0.137037	-455.200249	-455.191899	-455.190955	-455.233377	31.106	
C	-0.0371382642	 1.5804673385	 0.0524062398	-0.426496
C	 0.1260680713	 0.0562019735	 0.0072115295	 0.146376
C	 0.8966815871	-0.4385144288	-1.2536548741	-0.229379
N	 1.8317528824	-1.3956304795	-0.6537505961	-0.286803
C	 1.8102915974	-1.2108004062	 0.6985484768	 0.066086
N	 0.9045398565	-0.4326482197	 1.172107687	-0.320458
H	-0.827825545	-0.9235814098	 1.8368019692	 0.308213
C	-1.2882923767	-0.56859453	 0.0681952777	 0.422427
O	-2.0260976887	-0.6167384394	-0.879835842	-0.350217
O	-1.6326127783	-1.01087313	 1.2837305015	-0.373866
H	 0.9443198675	 2.0620799522	 0.0233902569	 0.118716
H	-0.6311958061	 1.9215623343	-0.8000676342	 0.140625
H	-0.5408103522	 1.8850565787	 0.9738511131	 0.134264
H	 0.2273630441	-0.9075999141	-1.977625768	 0.148911
H	 1.4302062932	 0.3843804948	-1.7453883358	 0.107989
H	 2.6656667477	-1.6931318631	-1.1336212758	 0.255803
H	 2.519322414	-1.7472561315	 1.3226818644	 0.137808
77.4083	92.6114	227.1237	240.9815	257.9191	312.3058	338.6857	413.4052	479.3223	513.778	604.6488	687.5437	761.5573	789.7675	798.2415	870.3383	880.8947	956.0403	973.2854	1000.2183	1021.6021	1140.6796	1149.7556	1161.9125	1187.6868	1203.5616	1267.389	1309.7741	1344.5982	1398.7512	1413.1425	1462.3898	1487.5711	1495.6082	1529.6526	1664.7425	1862.7724	3023.9562	3043.1235	3108.325	3120.8497	3126.9839	3186.4553	3520.9727	3644.0985
CC1(CNC=[NH+]1)C([O-])=O	C[C@]1(CN[CH][N]1)C(=O)O	
InChI=1S/C5H8N2O2/c1-5(4(8)9)2-6-3-7-5/h3H,2H2,1H3,(H,6,7)(H,8,9)	InChI=1S/C5H8N2O2/c1-5(4(8)9)2-6-3-7-5/h3H,2H2,1H3,(H,6,7)(H,8,9)/t5-/m0/s1
