15
gdb 52747	2.94878	0.82855	0.66775	6.5554	79.19	-0.2861	-0.0056	0.2805	1619.6344	0.110568	-379.669738	-379.659732	-379.658788	-379.707158	32.992	
C	-0.0411306019	 1.4739165785	 0.0432257946	-0.501009
C	-0.0150322262	 0.019521239	 0.028071442	 0.145638
C	 0.0223305503	-1.1824182345	 0.013436464	 0.040302
C	 0.0340368649	-2.6440809666	-0.0006528161	-0.33765
C	-1.4162164162	-3.2040036346	-0.158910838	-0.336449
C	-1.4823853876	-4.6539277682	-0.0017598857	 0.267046
N	-1.5292007199	-5.7988537032	 0.1427263436	-0.287881
C	 0.9108928039	-3.1575540522	-1.0671019759	 0.306112
N	 1.5922907285	-3.5590714931	-1.9082070207	-0.309073
H	 0.6099532382	 1.8829403068	-0.7362539759	 0.165587
H	-1.0535003548	 1.8521855024	-0.1326522397	 0.158894
H	 0.3013863189	 1.8644928968	 1.0070263651	 0.160565
H	 0.4319934739	-3.0179329573	 0.9518113766	 0.174546
H	-2.0447436387	-2.7300789529	 0.6003140292	 0.173224
H	-1.8106334833	-2.9189569909	-1.1380874232	 0.180145
16.6756	60.399	79.2712	97.7632	164.0173	212.4345	270.2132	299.2429	382.0069	399.3961	465.4061	474.2527	548.0712	586.2177	804.3023	836.8944	955.2807	1003.9777	1030.0514	1051.5946	1053.6894	1176.0549	1208.4969	1277.1241	1331.5227	1350.3869	1413.6663	1464.1689	1474.2984	1474.8387	2368.4274	2369.0171	2381.9456	3029.1267	3035.2882	3069.9669	3100.1746	3101.6373	3116.5813
CC#CC(CC#N)C#N	CC#C[C@@H](CC#N)C#N	
InChI=1S/C7H6N2/c1-2-3-7(6-9)4-5-8/h7H,4H2,1H3	InChI=1S/C7H6N2/c1-2-3-7(6-9)4-5-8/h7H,4H2,1H3/t7-/m0/s1
