16
gdb 75069	2.00891	1.83448	1.03577	3.5865	77.52	-0.2165	-0.0065	0.21	1131.0457	0.122988	-400.761794	-400.753029	-400.752084	-400.795278	32.488	
C	 0.0218248068	 1.4898024122	 0.043636376	-0.492244
C	 0.0033938016	 0.0013325705	-0.0252905946	 0.267889
C	-0.093421268	-0.7845905543	-1.1013870153	-0.12123
N	-0.0750415021	-2.1495979756	-0.7643607171	-0.331025
C	 0.0733599771	-2.3440751744	 0.5912550044	 0.424915
O	 0.1502368822	-3.3990057893	 1.1682563244	-0.35872
C	 0.0929905341	-0.9044527215	 1.199668227	-0.400823
C	 1.2519342566	-0.6661030959	 2.0457929814	 0.353992
C	 2.2171479419	-0.4466853066	 2.7266434522	-0.473889
H	 0.9289777281	 1.8491485874	 0.5435969145	 0.142001
H	-0.0157464801	 1.9308640917	-0.9565510596	 0.123763
H	-0.8298059727	 1.8800728941	 0.6159889302	 0.126927
H	-0.1880953214	-0.497198624	-2.1393380527	 0.130591
H	-0.0917894324	-2.9150934414	-1.4173897819	 0.264265
H	-0.820488389	-0.8169979786	 1.807594099	 0.142754
H	 3.0676420274	-0.2694492043	 3.337226272	 0.200832
69.3752	121.0986	170.0536	193.9232	266.5359	276.7914	379.2137	402.6902	471.4394	512.7091	549.3364	589.7464	626.6123	640.3363	688.2375	754.0191	840.3417	882.4741	888.5946	1007.5311	1041.5414	1066.2642	1095.0135	1173.3321	1185.822	1258.6988	1283.0721	1348.7139	1405.5197	1420.5964	1475.2587	1495.7838	1723.2899	1848.7177	2240.6572	2997.3268	3017.4177	3066.9102	3108.354	3233.3192	3504.1958	3664.685
CC1=CNC(=O)C1C#C	CC1=CNC(=O)[C@H]1C#C	
InChI=1S/C7H7NO/c1-3-6-5(2)4-8-7(6)9/h1,4,6H,2H3,(H,8,9)	InChI=1S/C7H7NO/c1-3-6-5(2)4-8-7(6)9/h1,4,6H,2H3,(H,8,9)/t6-/m0/s1
