17
gdb 109521	1.93132	1.40994	1.09987	6.0724	77.45	-0.305	-0.0089	0.296	1193.6726	0.135573	-380.891546	-380.882359	-380.881415	-380.926019	32.624	
C	-0.0056110261	 1.4667973346	-0.2952175933	-0.387375
C	-0.0196030005	 0.0315464446	 0.2429968384	-0.213153
C	-1.3866033267	-0.6096097774	 0.1360711894	-0.02339
C	-1.8479467242	-1.2903525636	-1.139972468	-0.192918
C	-0.9757304212	-1.3759781723	-2.277525786	 0.312054
N	-0.2868773137	-1.4232350325	-3.2051989527	-0.32948
C	-1.5646444996	-2.1150578808	 0.12553678	-0.215593
C	-0.425142792	-2.9869668066	 0.1905311585	 0.312153
N	 0.4853889334	-3.6954605295	 0.2678066387	-0.327039
H	 0.984750986	 1.9129228593	-0.1711391754	 0.129149
H	-0.2523860275	 1.4911902125	-1.36094056	 0.137987
H	-0.7262514637	 2.0990140772	 0.2347887598	 0.116933
H	 0.7170816862	-0.575146173	-0.2931192379	 0.143087
H	 0.2815662421	 0.0213094035	 1.2972033159	 0.11863
H	-2.1800086932	-0.0791679297	 0.6558584167	 0.118466
H	-2.8973627143	-1.2034482188	-1.4008857234	 0.149969
H	-2.446733135	-2.5144858775	 0.6148938591	 0.15052
74.7028	94.6307	108.0678	148.3946	224.4217	243.007	269.1467	369.6301	398.551	470.0152	596.0334	636.7882	657.5671	750.7801	785.5861	803.1894	827.429	956.6103	984.8112	990.4626	1048.2279	1087.1187	1106.2276	1145.7838	1171.6128	1236.9682	1295.5132	1338.7877	1362.9873	1386.4768	1414.9467	1427.3778	1484.5261	1500.3381	1506.0131	2359.1625	2360.7285	3038.2705	3042.2999	3082.7868	3110.0493	3120.0463	3149.7259	3167.5842	3176.4104
CCC1C(C#N)C1C#N	CC[C@H]1[C@@H](C#N)[C@H]1C#N	
InChI=1S/C7H8N2/c1-2-5-6(3-8)7(5)4-9/h5-7H,2H2,1H3	InChI=1S/C7H8N2/c1-2-5-6(3-8)7(5)4-9/h5-7H,2H2,1H3/t5-,6+,7-
