21
gdb 108021	3.77904	1.36964	1.25906	0.0668	84.2	-0.2152	0.0892	0.3045	1096.3299	0.184164	-349.91834	-349.910811	-349.909867	-349.950191	31.111	
C	 0.1488155666	 1.4493140642	 0.2234945445	-0.377102
C	-0.1114643664	-0.0123290218	-0.1644214347	-0.288504
C	 0.6433205928	-0.4655808511	-1.3934011267	 0.348294
C	 0.419786575	 0.1657181681	-2.7607702267	-0.293192
C	 1.395147021	-0.6578154456	-3.5765881359	-0.074367
C	 2.5925952875	-1.056572405	-2.732623145	-0.088312
C	 1.4996343668	-2.0661139727	-3.0210765241	-0.091369
C	 0.9943026696	-1.9363231904	-1.5636140731	-0.138472
C	 2.0893262563	-0.9268280275	-1.2737849623	-0.120318
H	 1.214892219	 1.6250711277	 0.401089437	 0.116554
H	-0.173926359	 2.1362598182	-0.5652935698	 0.117811
H	-0.3938198799	 1.714751302	 1.1361939692	 0.108841
H	 0.1590481952	-0.6625617591	 0.6771957749	 0.094293
H	-1.1877297226	-0.1604778155	-0.325929126	 0.095631
H	-0.6160701465	 0.0478066013	-3.102011237	 0.093214
H	 0.6678878111	 1.2332547051	-2.7737539113	 0.096467
H	 1.5301520267	-0.4983049931	-4.6399705699	 0.080244
H	 3.6192666039	-1.0317150383	-3.0710949031	 0.081594
H	 1.5272453669	-2.9645966338	-3.6220642877	 0.081905
H	 0.6017067867	-2.7264895308	-0.9373811937	 0.078375
H	 2.6948602092	-0.8033787822	-0.3855992987	 0.078413
83.6678	160.3121	213.6328	304.2251	345.3229	429.0697	537.8472	587.4722	703.4397	719.8565	750.7882	766.2044	780.7355	807.596	841.0089	853.9347	907.3516	933.1878	949.9653	953.8558	968.3497	976.8893	1009.3618	1024.4042	1039.819	1053.7	1066.5641	1098.3654	1110.2623	1149.5566	1191.4061	1208.9493	1228.1044	1262.3198	1278.2589	1289.3624	1333.057	1354.9745	1381.3549	1408.52	1410.5392	1481.0591	1491.8293	1498.3163	1507.6489	3012.0593	3028.0492	3034.8873	3044.7267	3069.4756	3104.2721	3105.1023	3184.9727	3188.1289	3199.5458	3201.5041	3213.4843
CCC12CC3C4C3C1C24	CC[C@]12C[C@H]3[C@@H]4[C@H]3[C@H]1[C@H]24	
InChI=1S/C9H12/c1-2-9-3-4-5-6(4)8(9)7(5)9/h4-8H,2-3H2,1H3	InChI=1S/C9H12/c1-2-9-3-4-5-6(4)8(9)7(5)9/h4-8H,2-3H2,1H3/t4-,5+,6-,7+,8-,9+
