22
gdb 59505	2.38387	1.08202	0.81332	2.6988	83.46	-0.2383	-0.0239	0.2144	1466.0957	0.191184	-404.328386	-404.317998	-404.317054	-404.364473	37.497	
C	 0.5599612924	 1.1979265971	 0.39657013	-0.388597
C	 0.1590293513	-0.2583905068	 0.681380462	 0.00624
C	 0.4013088918	-0.6191109778	 2.1549450966	-0.402402
C	-1.2964293193	-0.4623498918	 0.2905086813	 0.033222
C	-1.6864068634	-0.7704537113	-1.1152649447	-0.263635
N	-1.9022565198	-1.7546265519	-0.0605588001	-0.111255
C	-1.1138513572	-2.9744738288	-0.0831867865	-0.23498
C	-1.3286965245	-3.7559882974	 1.2028774296	 0.167599
O	-0.496857626	-4.4555063927	 1.7203471756	-0.245559
H	 1.6075834968	 1.372381289	 0.6612969215	 0.114772
H	 0.4287004249	 1.4491673395	-0.6603572453	 0.11572
H	-0.0503528105	 1.8938183777	 0.9840687095	 0.11635
H	 0.7893205399	-0.9031885494	 0.0565323325	 0.076533
H	 0.1929483278	-1.6731136109	 2.3588017411	 0.13399
H	 1.4416806467	-0.426407144	 2.4359155111	 0.115298
H	-0.237077293	-0.0167549794	 2.8118924848	 0.114968
H	-1.979952416	 0.1589201162	 0.8713128423	 0.08982
H	-2.5820971684	-0.3466317519	-1.5626780808	 0.116074
H	-0.8725022262	-0.9503286434	-1.8179066213	 0.10762
H	-1.5000506489	-3.6051210512	-0.8983113031	 0.131824
H	-0.0345078241	-2.8561419952	-0.2530354052	 0.116246
H	-2.3487222445	-3.6334117755	 1.6300916886	 0.090151
53.6437	61.5034	91.2913	170.198	203.5209	223.0582	238.1933	270.2819	337.8927	348.2282	412.3124	479.6068	491.3171	532.8676	728.8967	771.9287	829.4525	888.1707	930.7598	948.1853	965.973	985.4976	1037.037	1063.9681	1096.3261	1107.4726	1127.3841	1150.5664	1175.4821	1186.0094	1211.5065	1241.7729	1307.9179	1330.8206	1340.9285	1342.0172	1399.7193	1405.8864	1418.4349	1434.2047	1466.0794	1486.7116	1491.8647	1504.9197	1508.7812	1512.6954	1834.6685	2894.8607	2994.4463	3022.0245	3028.1388	3033.2866	3038.6848	3082.9973	3091.4419	3093.6344	3101.028	3107.6474	3116.4548	3169.4078
CC(C)C1CN1CC=O	CC(C)[C@H]1CN1CC=O	
InChI=1S/C7H13NO/c1-6(2)7-5-8(7)3-4-9/h4,6-7H,3,5H2,1-2H3	InChI=1S/C7H13NO/c1-6(2)7-5-8(7)3-4-9/h4,6-7H,3,5H2,1-2H3/t7-,8?/m1/s1
