16
gdb 49408	3.84154	1.67237	1.5412	3.199	70.9	-0.2277	-0.0276	0.2	876.6904	0.125071	-400.651731	-400.645297	-400.644353	-400.68267	25.691	
O	-0.1701684963	 0.0047520108	 0.2383937703	-0.245487
C	-0.049974126	 1.1569287042	-0.0947509731	 0.153803
C	 1.2226591332	 1.9452830172	-0.002741371	-0.073004
C	 1.4607303438	 2.8728654771	 1.2302169683	-0.110614
C	 1.5267415716	 1.9194564984	 2.4451982523	-0.082374
C	 3.0492698664	 1.841871776	 2.4345606172	-0.12412
C	 2.2557436669	 0.7528754773	 1.7783337849	-0.002475
N	 2.4891705553	 1.2293398474	 0.3752278625	-0.158445
C	 2.9758404013	 2.527441988	 1.0532810839	-0.000389
H	-0.9188669409	 1.7380556994	-0.4842891632	 0.075423
H	 1.383370766	 2.498362214	-0.9370774969	 0.098098
H	 1.0448657535	 3.873571114	 1.3377773217	 0.077078
H	 0.8348763552	 1.8029597697	 3.2669616055	 0.09923
H	 3.7841344109	 1.8305733588	 3.2268346273	 0.099712
H	 2.1100087764	-0.2867828271	 2.0307982858	 0.109555
H	 3.7179985427	 3.1359697846	 0.5409364043	 0.08401
104.2022	167.1325	226.9489	395.7047	560.3188	685.8557	730.5299	761.0824	782.6547	814.0227	816.2941	842.4786	863.3932	887.7561	888.3587	914.5568	952.0869	988.3493	1002.5145	1036.9125	1039.7992	1051.347	1066.5878	1106.7539	1134.6875	1167.1793	1175.0363	1199.5062	1216.7939	1247.9935	1287.2845	1345.1462	1366.4487	1421.4615	1822.9743	2855.6824	3039.4265	3125.6067	3139.2662	3212.4521	3220.8853	3236.171
O=CC1C2C3C4C3N1C24	O=C[C@H]1[C@H]2[C@@H]3[C@H]4[C@@H]3N1[C@@H]24	
InChI=1S/C7H7NO/c9-1-2-3-4-5-6(3)8(2)7(4)5/h1-7H	InChI=1S/C7H7NO/c9-1-2-3-4-5-6(3)8(2)7(4)5/h1-7H/t2-,3-,4+,5+,6-,7+/m0/s1
