22
gdb 104033	2.81151	1.26756	1.1488	1.937	80.58	-0.2235	0.0663	0.2898	1200.1781	0.194647	-404.330107	-404.321148	-404.320204	-404.363367	35.346	
C	-0.3040961717	 1.3909664325	 0.0500031783	-0.416367
C	-0.2068780368	-0.1005248988	-0.2915254367	-0.219073
C	 0.8571377536	-0.4597777753	-1.3492606686	 0.397875
O	 2.1458577101	-0.0362260013	-0.8904801572	-0.480984
C	 0.9654083505	-1.9913644881	-1.5792649017	-0.280727
C	 0.4289359152	-2.2544089669	-2.973633171	-0.014807
C	-0.939943254	-1.7828783341	-3.3044835453	-0.251098
N	 0.2292084722	-0.9875413211	-3.7055529819	-0.090569
C	 0.55706985	 0.1068181314	-2.7800392654	-0.23001
H	 0.6246370055	 1.7629301429	 0.4964051013	 0.115211
H	-0.5286147398	 2.0045411777	-0.8290740293	 0.122786
H	-1.0977074508	 1.5664688183	 0.7820403442	 0.122751
H	 0.0303946044	-0.660264417	 0.6208501433	 0.106225
H	-1.1857955124	-0.4582958149	-0.6310128248	 0.099275
H	 2.1281783653	 0.9208908203	-0.7894833552	 0.276944
H	 2.0223302732	-2.26385604	-1.5211911288	 0.122903
H	 0.4344137306	-2.5601898677	-0.8098024908	 0.102148
H	 0.8616142508	-3.0738759372	-3.5408741619	 0.090005
H	-1.4841568391	-2.2303023364	-4.131724532	 0.113939
H	-1.5742639366	-1.4205843242	-2.4987624633	 0.108585
H	-0.2465447026	 0.850644452	-2.7873126882	 0.098101
H	 1.4683362227	 0.5907506079	-3.1463314649	 0.106883
85.4627	124.2177	199.1759	241.232	275.3837	301.017	348.7718	375.2899	380.402	436.7817	480.1116	615.1495	666.2859	758.0328	774.2533	787.6459	836.3525	877.5792	912.8809	937.5959	981.5324	995.0911	1013.7339	1034.6191	1041.5935	1103.2683	1104.0728	1108.2751	1149.7415	1172.8367	1182.8136	1229.5362	1271.8483	1297.8258	1300.5803	1310.7627	1325.1553	1356.4124	1377.775	1399.1129	1413.9787	1474.0519	1486.2144	1490.9587	1500.8014	1511.9828	1513.762	3031.857	3034.0273	3040.4203	3055.9595	3068.889	3084.4189	3100.0568	3102.5446	3105.5035	3107.0299	3143.6659	3186.3648	3817.5124
CCC1(O)CC2CN2C1	CC[C@@]1(O)C[C@H]2CN2C1	
InChI=1S/C7H13NO/c1-2-7(9)3-6-4-8(6)5-7/h6,9H,2-5H2,1H3	InChI=1S/C7H13NO/c1-2-7(9)3-6-4-8(6)5-7/h6,9H,2-5H2,1H3/t6-,7+,8?/m0/s1
