25
gdb 118842	2.13261	0.98722	0.81895	1.0799	90.13	-0.2322	0.0853	0.3175	1602.0204	0.226291	-389.477235	-389.466019	-389.465075	-389.513728	40.837	
C	-0.3279371578	 1.5721812048	 0.0093141625	-0.378449
C	-0.2209696906	 0.0561373037	 0.1956702383	-0.165448
C	-1.476675811	-0.6894266118	-0.2802511152	-0.246465
C	-1.4229795264	-2.1975803008	-0.0901210356	 0.314373
C	-0.4535919739	-2.9477257102	-0.9841332506	-0.462407
C	-1.6344752398	-2.7310398737	 1.3211002191	-0.361936
C	-2.7029542717	-2.9222563155	 0.2916766163	 0.070892
O	-3.8925915873	-2.225457012	 0.4942886933	-0.231695
C	-4.6718628239	-2.117396346	-0.6808025277	-0.236092
H	 0.5746150181	 2.0832315404	 0.3591845901	 0.10908
H	-0.4697796296	 1.8333733062	-1.045516294	 0.11127
H	-1.1791656804	 1.9802406065	 0.5658442978	 0.113606
H	 0.6594080826	-0.3134322506	-0.3444865755	 0.094283
H	-0.0470597023	-0.1744941662	 1.2542284488	 0.097131
H	-2.3507892931	-0.2985606588	 0.2521923331	 0.106455
H	-1.6389673233	-0.4673179803	-1.3452640729	 0.08377
H	 0.586318787	-2.6690024252	-0.7797704405	 0.118738
H	-0.5328853062	-4.0301102043	-0.8376471704	 0.110329
H	-0.6513554913	-2.7396865598	-2.0427182822	 0.111346
H	-1.0684645366	-3.5943824809	 1.6549483789	 0.106083
H	-1.8516284003	-2.0053397323	 2.0980907031	 0.118784
H	-2.8464518537	-3.9223676469	-0.1242537368	 0.074868
H	-5.5893442656	-1.5884927599	-0.4118678437	 0.125719
H	-4.1505001378	-1.5560064442	-1.4686124446	 0.109664
H	-4.9371926352	-3.1086285423	-1.0792214416	 0.106101
77.722	86.3317	91.4525	140.3766	165.7609	193.7992	210.1526	243.8777	252.4892	307.1332	356.5757	388.1652	419.6111	480.6963	576.9235	729.3143	747.6927	796.9226	867.8754	873.9583	906.4537	938.8829	980.4568	1020.8962	1050.1274	1059.5141	1061.7713	1094.1623	1109.5294	1135.823	1138.4609	1182.6785	1188.7981	1237.551	1255.1491	1297.3053	1303.2277	1333.9053	1346.9254	1393.1049	1408.4759	1411.9345	1419.1747	1470.7943	1481.2206	1485.2107	1491.6389	1492.6803	1496.6264	1498.9988	1504.5283	1508.7157	1512.7373	2982.8397	2998.7279	3019.3115	3024.0355	3027.9109	3036.8454	3048.9738	3068.5654	3071.0456	3081.2318	3091.1573	3095.508	3099.8175	3116.8946	3128.1024	3215.0238
CCCC1(C)CC1OC	CCC[C@@]1(C)C[C@H]1OC	
InChI=1S/C8H16O/c1-4-5-8(2)6-7(8)9-3/h7H,4-6H2,1-3H3	InChI=1S/C8H16O/c1-4-5-8(2)6-7(8)9-3/h7H,4-6H2,1-3H3/t7-,8+/m1/s1
