21
gdb 114685	3.61006	1.07782	1.01161	1.0205	77.92	-0.2489	0.0821	0.331	1274.1192	0.18242	-424.227858	-424.218815	-424.217871	-424.261309	34.623	
C	 0.3846025682	 1.2493649191	-0.4396960869	-0.484672
C	-0.1691006868	-0.0253654299	 0.1349878296	 0.424652
C	-1.6707460675	-0.2155647235	 0.2950215294	-0.311518
C	-1.8423797504	-1.4758725144	 1.1871640985	 0.014293
C	-2.1665454969	-2.7202715823	 0.3606316456	-0.087401
O	-2.3681623007	-3.8026717014	 1.2625358811	-0.426179
C	-0.5014843611	-1.6217564517	 1.960837352	-0.252821
C	 0.5122182824	-0.8758268565	 1.1219344863	-0.008629
O	 0.4915907634	-1.2421282575	-0.2706301942	-0.300224
H	 1.4770638717	 1.2230754788	-0.4529696919	 0.129013
H	 0.0363584517	 1.39530549	-1.4683750459	 0.125389
H	 0.0610789389	 2.1151453762	 0.1480505918	 0.119826
H	-2.0921843421	 0.6718908291	 0.7816888598	 0.099593
H	-2.1738912429	-0.3180067136	-0.6737096321	 0.101719
H	-2.6698850988	-1.3409124233	 1.8900193857	 0.079973
H	-3.0760524884	-2.5333961259	-0.2338119003	 0.077239
H	-1.3414739673	-2.9222797504	-0.3340922668	 0.111124
H	-2.3968451359	-4.616105126	 0.7513697926	 0.28592
H	-0.5587556758	-1.1523538507	 2.950203113	 0.096673
H	-0.2455097388	-2.6734651735	 2.1154256617	 0.121663
H	 1.4970031771	-0.6358737325	 1.518107651	 0.084367
93.9816	139.1383	173.0875	204.3063	243.5311	273.9796	295.8726	367.7162	387.5917	431.4385	472.5936	605.8549	687.5705	757.2648	810.2373	849.4675	882.5125	905.2418	925.7659	960.4603	1010.1163	1027.2182	1030.72	1067.3163	1081.4767	1108.939	1137.8556	1194.5965	1208.4811	1224.1436	1241.6482	1276.7052	1288.1416	1314.5209	1332.625	1345.2851	1371.1541	1412.8427	1444.0591	1462.59	1481.0907	1486.5555	1492.0696	1504.3526	1528.6912	2963.9819	3030.0876	3034.9857	3037.4649	3043.4979	3064.8917	3073.4938	3094.5516	3097.9981	3121.8298	3133.9597	3835.6278
CC12CC(CO)CC1O2	C[C@]12C[C@@H](CO)C[C@H]1O2	
InChI=1S/C7H12O2/c1-7-3-5(4-8)2-6(7)9-7/h5-6,8H,2-4H2,1H3	InChI=1S/C7H12O2/c1-7-3-5(4-8)2-6(7)9-7/h5-6,8H,2-4H2,1H3/t5-,6+,7-/m0/s1
