19
gdb 78465	3.37806	1.44584	1.42446	1.3054	77.97	-0.2352	0.0166	0.2518	997.237	0.162017	-385.862094	-385.855267	-385.854323	-385.892784	29.331	
O	-0.1738963396	 1.4655316501	 0.0287951288	-0.440748
C	 0.0072838112	 0.0765586825	-0.0084673827	 0.068806
C	-0.3824212104	-0.7074421256	 1.2262934074	-0.093607
C	-1.2702487408	-0.7053953126	-0.0103391841	-0.050708
C	-1.3081155327	-2.2099127465	-0.4355866828	-0.083204
C	-1.3502227954	-2.8640072495	 0.9764312773	-0.18935
C	-0.0004526136	-2.2142195565	 1.3991871931	-0.08132
C	 0.860963877	-2.6553650714	 0.2216850737	-0.084001
C	 0.0844952771	-2.6523188835	-0.8671018683	-0.081527
H	 0.5682547807	 1.8441800247	 0.5113910758	 0.283408
H	 0.8436015579	-0.2626314749	-0.6145609156	 0.085292
H	-0.6580014687	-0.1424045887	 2.1096129961	 0.086128
H	-2.1947533881	-0.1408514903	-0.0367092833	 0.095282
H	-2.1204065128	-2.4484301089	-1.1220373534	 0.059952
H	-2.1977425043	-2.5265218518	 1.5816671487	 0.088502
H	-1.3143013221	-3.9571301077	 0.9475377716	 0.090087
H	 0.3833396872	-2.4574598183	 2.3901193024	 0.057482
H	 1.9276389139	-2.8366018806	 0.2688225103	 0.093756
H	 0.3862724033	-2.8302102008	-1.8917822049	 0.09577
223.2972	248.5046	304.7398	317.7969	377.6715	492.0976	509.9125	519.1572	694.7172	756.3185	760.1753	801.481	826.0457	857.362	886.1504	907.0974	928.4642	933.2721	942.6784	970.754	977.7257	987.3998	1045.2819	1083.14	1101.3308	1107.3317	1136.7809	1138.6254	1168.1803	1170.4975	1226.9723	1237.2075	1269.8553	1276.6016	1283.9019	1297.1305	1327.461	1359.7133	1448.3689	1492.3024	1638.2595	3045.9702	3105.0824	3110.3558	3114.4582	3131.5351	3171.4037	3183.7408	3195.0131	3220.7528	3807.3796
OC1C2C1C1CC2C=C1	O[C@H]1[C@H]2[C@@H]1[C@@H]1C[C@H]2C=C1	
InChI=1S/C8H10O/c9-8-6-4-1-2-5(3-4)7(6)8/h1-2,4-9H,3H2	InChI=1S/C8H10O/c9-8-6-4-1-2-5(3-4)7(6)8/h1-2,4-9H,3H2/t4-,5+,6-,7+,8+
