13
gdb 23654	4.12903	1.8013	1.26394	2.4483	61.76	-0.2668	-0.0367	0.23	883.5096	0.096399	-402.816226	-402.809601	-402.808657	-402.847557	23.936	
C	 0.0027256644	 1.5029138773	-0.0049608297	-0.46878
C	 0.0189956743	 0.0015225998	 0.0325664318	 0.351559
N	 0.1587883256	-0.6337131535	-1.1463152521	-0.303048
C	 0.1727618508	-1.9593086096	-1.1085952042	 0.068554
N	 0.063309871	-2.7420628013	-0.0277543088	-0.305874
C	-0.0717242626	-2.0948153862	 1.1068049167	 0.36547
F	-0.1833406415	-2.8320650193	 2.2013870001	-0.059207
C	-0.1034704783	-0.7103462263	 1.2215188969	-0.328615
H	 0.9316280553	 1.8752066157	-0.4480304775	 0.152102
H	-0.8152673031	 1.8514651601	-0.6430417791	 0.1521
H	-0.1143067016	 1.9345676073	 0.9912705753	 0.126065
H	 0.2855155019	-2.4745343449	-2.0592312189	 0.128641
H	-0.2171372462	-0.228939109	 2.1841139896	 0.121032
67.7658	185.9313	231.7387	309.0138	464.4042	465.397	547.5168	570.6814	635.4838	793.3342	814.4828	880.1243	966.3139	999.6763	1001.907	1027.7631	1062.1382	1175.163	1265.0087	1303.5388	1352.0034	1403.4935	1420.7896	1472.9302	1480.9728	1503.6754	1605.9401	1631.247	3046.3122	3108.777	3134.835	3169.3824	3216.3364
CC1=NC=NC(F)=C1	Cc1ncnc(F)c1	
InChI=1S/C5H5FN2/c1-4-2-5(6)8-3-7-4/h2-3H,1H3	InChI=1S/C5H5FN2/c1-4-2-5(6)8-3-7-4/h2-3H,1H3
