15
gdb 128190	7.11426	0.87545	0.78533	4.1819	80.04	-0.213	-0.0183	0.1947	1398.9677	0.111761	-416.765432	-416.756809	-416.755865	-416.79892	31.24	
C	-0.1034051688	 1.4628405736	 0.1062934138	-0.334404
N	-0.0143367841	 0.0283395565	-0.1317216336	-0.407582
C	-1.1201522721	-0.7651767741	-0.059309032	 0.538795
C	-1.2944207478	-2.1222498402	 0.0182839524	-0.487673
C	-2.7081273408	-2.2678561665	-0.0082065105	 0.26959
N	-3.340943259	-1.1088325861	-0.0889722496	-0.230721
O	-2.3112411578	-0.1497680078	-0.1170877867	-0.212851
C	-3.4418259385	-3.4821784962	 0.0427758114	 0.249925
C	-4.0313710774	-4.5290798853	 0.088265197	-0.381078
H	 0.8658863867	 1.9113065607	-0.1194317318	 0.13276
H	-0.8492799436	 1.8982340962	-0.5613010831	 0.162223
H	-0.3803399549	 1.712005816	 1.1395906659	 0.13206
H	 0.8357493339	-0.419319026	 0.1710146195	 0.256371
H	-0.5493628467	-2.8958993265	 0.0760111958	 0.116163
H	-4.5651168191	-5.4464280144	 0.1270894516	 0.196423
72.542	120.7247	138.5183	164.2403	224.9959	301.264	403.7095	464.0409	477.2031	548.0627	610.2491	620.7526	666.9186	686.6962	717.2893	738.9682	758.4489	927.3563	997.1262	1025.9295	1072.2699	1143.4213	1156.1515	1197.4348	1344.6637	1418.3049	1451.2487	1486.9424	1493.6231	1506.7156	1520.7125	1663.3875	2246.218	3013.7835	3103.8761	3144.3202	3288.7837	3503.1619	3637.3053
CNC1=CC(=NO1)C#C	CNc1cc(no1)C#C	
InChI=1S/C6H6N2O/c1-3-5-4-6(7-2)9-8-5/h1,4,7H,2H3	InChI=1S/C6H6N2O/c1-3-5-4-6(7-2)9-8-5/h1,4,7H,2H3
