13
gdb 36566	2.6925	0.95109	0.73349	3.9261	70.28	-0.3088	-0.0434	0.2653	1432.3032	0.086222	-415.560107	-415.550886	-415.549942	-415.595326	31.177	
C	 0.0728146996	-1.2399310681	-0.0672164646	-0.361806
C	 0.0698257609	-0.0424025141	-0.0121925092	 0.299997
C	 0.035711503	 1.4127000592	 0.0737592022	-0.174148
O	 1.3661621814	 1.9012252926	 0.127209162	-0.232461
C	 1.4401869592	 3.2944520372	 0.3887470996	-0.203864
C	 2.8476203564	 3.6606074778	 0.5417496099	 0.280198
N	 3.9480531866	 3.9835068409	 0.6710125478	-0.281948
C	-0.7055881018	 1.9968557803	-1.0735110882	 0.284746
N	-1.2698289205	 2.5008754254	-1.9459805825	-0.31194
H	 0.0839979557	-2.3014928259	-0.1223156388	 0.222722
H	-0.5089639775	 1.7089050924	 0.9870263972	 0.153582
H	 1.0021170704	 3.8809981775	-0.4315341281	 0.17366
H	 0.9012375666	 3.5534362648	 1.3133651328	 0.151261
47.4323	93.0746	105.8069	126.6796	209.311	231.5152	338.2442	348.6818	381.7329	462.7841	532.3587	569.7279	656.951	665.8233	704.9605	884.7472	957.1861	1005.4839	1033.3611	1056.2172	1121.2409	1257.7852	1324.9587	1328.6999	1423.1237	1494.7126	2259.6237	2360.3458	2378.4647	2960.8377	2992.3552	3033.7197	3499.113
C#CC(OCC#N)C#N	C#C[C@@H](OCC#N)C#N	
InChI=1S/C6H4N2O/c1-2-6(5-8)9-4-3-7/h1,6H,4H2	InChI=1S/C6H4N2O/c1-2-6(5-8)9-4-3-7/h1,6H,4H2/t6-/m1/s1
