16
gdb 34605	3.8202	1.18681	0.98597	4.5404	76.48	-0.2664	-0.0404	0.226	1161.498	0.125989	-400.766364	-400.758934	-400.75799	-400.79851	28.214	
N	-0.0164864938	-1.2282506853	-0.2800473155	-0.333903
C	-0.064064551	-0.086985727	-0.0871787624	 0.216432
C	-0.0729945913	 1.3227721186	 0.1540486846	 0.169533
C	-1.2205685163	 2.0077912464	 0.0580769971	-0.12159
C	-1.3446534406	 3.4855802987	 0.2724968111	-0.296125
C	-0.1049367701	 4.1294341699	 0.847929199	 0.047808
O	 0.3411653847	 3.6162880252	 2.1062931768	-0.252529
C	 1.1556811836	 3.3820014013	 0.9548561698	 0.044168
C	 1.2641472974	 1.9484848377	 0.4909769975	-0.335947
H	-2.1299723325	 1.4734359227	-0.199594306	 0.120195
H	-1.5887734976	 3.9708493773	-0.6842089278	 0.130401
H	-2.201630255	 3.69078961	 0.9286544274	 0.13669
H	-0.062594295	 5.2157713254	 0.7690720338	 0.097922
H	 2.0936247972	 3.9374729152	 0.9518977129	 0.098663
H	 1.7660673065	 1.3521191203	 1.2630232706	 0.143605
H	 1.9181697436	 1.9077429436	-0.3903624591	 0.134678
84.2034	161.9854	189.2711	320.4659	338.9015	381.5711	448.0046	550.9981	567.2196	597.2213	692.2411	782.9791	817.8692	845.7996	909.8708	942.4584	958.9544	976.511	1040.1356	1066.499	1090.3232	1146.0573	1152.4937	1235.947	1248.3143	1294.8304	1324.818	1373.1318	1385.7432	1401.3825	1455.5767	1465.8165	1486.9696	1708.1663	2336.4321	3007.0835	3024.0853	3034.9489	3055.7353	3104.8901	3117.0442	3179.9969
N#CC1=CCC2OC2C1	N#CC1=CC[C@H]2O[C@H]2C1	
InChI=1S/C7H7NO/c8-4-5-1-2-6-7(3-5)9-6/h1,6-7H,2-3H2	InChI=1S/C7H7NO/c8-4-5-1-2-6-7(3-5)9-6/h1,6-7H,2-3H2/t6-,7+/m1/s1
