21
gdb 63472	2.78825	1.21759	1.0872	1.9345	79.88	-0.2402	0.0713	0.3115	1236.549	0.17959	-424.194603	-424.184709	-424.183764	-424.228827	38.126	
C	-0.1161645547	 1.5705966655	 0.3236520953	-0.442165
C	-0.0844144571	 0.0821708872	 0.0674983809	 0.363665
O	-1.3459826794	-0.4887622717	-0.1752953669	-0.462094
C	 1.0998154007	-0.546829881	-0.6529716122	-0.4268
C	 0.8572454029	-0.8136891197	 0.8258345467	 0.326022
O	 1.697884457	-0.1477042405	 1.7350305732	-0.466523
C	 0.3974875887	-2.1722648963	 1.2712906831	-0.004144
C	 1.3238877338	-3.0860434132	 2.0364945159	-0.293997
C	 0.1466276737	-2.4449032303	 2.7309870484	-0.261392
H	 0.8665090683	 1.93991726	 0.6197870435	 0.131832
H	-0.4338926149	 2.1091584342	-0.5779404061	 0.100442
H	-0.827195573	 1.798491685	 1.123808002	 0.127158
H	-1.6550384202	-0.1591121297	-1.0264004525	 0.280457
H	 0.8917989467	-1.3515391654	-1.3502862141	 0.110042
H	 1.9334326834	 0.0967274925	-0.9159639595	 0.105789
H	 2.5862814081	-0.5022711227	 1.6224339345	 0.285036
H	-0.2803274301	-2.6457329497	 0.5718234804	 0.09461
H	 1.2903823639	-4.1474888918	 1.8170803085	 0.108291
H	 2.3113574658	-2.7213051456	 2.3005131849	 0.092722
H	 0.3656631103	-1.6431123024	 3.4263757368	 0.123111
H	-0.7018877239	-3.0643714845	 2.9982944873	 0.107936
65.6958	134.4366	171.8045	185.958	255.4796	276.3747	289.0864	315.6943	324.0927	394.1663	428.6345	465.3029	486.7787	570.4722	681.8098	736.8103	788.271	828.1455	866.2833	909.2743	910.4314	939.2571	958.854	978.8666	1021.6522	1058.0808	1071.5514	1079.5923	1088.9556	1122.1581	1139.6018	1197.312	1208.4176	1235.6207	1271.7269	1296.71	1334.2126	1378.8172	1408.0972	1425.7571	1459.0257	1474.7058	1483.6795	1498.914	1515.5526	3027.0168	3092.9582	3121.9899	3128.2023	3141.0839	3143.407	3187.8024	3208.3536	3217.7998	3232.6141	3794.2091	3803.1796
CC1(O)CC1(O)C1CC1	C[C@@]1(O)C[C@]1(O)C1CC1	
InChI=1S/C7H12O2/c1-6(8)4-7(6,9)5-2-3-5/h5,8-9H,2-4H2,1H3	InChI=1S/C7H12O2/c1-6(8)4-7(6,9)5-2-3-5/h5,8-9H,2-4H2,1H3/t6-,7+/m1/s1
