13
gdb 125201	3.58243	1.66509	1.14485	4.2796	66.31	-0.25	-0.0483	0.2017	978.0591	0.090852	-452.736206	-452.729491	-452.728547	-452.767768	24.793	
C	 0.0555316772	 1.5230431743	-0.0136939829	-0.503423
C	-0.0899457719	 0.0483305744	 0.0644762981	 0.277515
C	-1.0960780221	-0.8511199016	-0.0390349769	 0.15701
O	-2.4376123327	-1.0189400437	-0.2484911478	-0.222405
C	-2.5671616413	-2.3920370971	-0.1747468118	 0.06418
N	-1.5095792573	-3.0944809897	 0.048183568	-0.323389
C	-0.5162962567	-2.1189982509	 0.1443156052	 0.378604
N	 0.7771998823	-2.0693594617	 0.3540349582	-0.244094
O	 1.0367372819	-0.6859190659	 0.3009978926	-0.216627
H	 0.7415666742	 1.8068712743	-0.8181752391	 0.158994
H	-0.9156764877	 1.9831607734	-0.2056153145	 0.148731
H	 0.4547985813	 1.9274001578	 0.9219723173	 0.158994
H	-3.5739171572	-2.7580740134	-0.3153054364	 0.16591
77.5726	176.545	247.5019	296.9318	391.4772	554.7379	597.6331	601.3512	616.8647	708.7868	788.231	806.7833	903.9505	908.2753	918.3323	985.7238	1062.199	1064.1748	1127.4029	1192.6766	1251.0781	1340.5476	1416.0922	1446.1152	1472.2195	1487.2895	1556.8462	1595.309	1736.7951	3043.5615	3101.9722	3138.3725	3266.0386
CC1=C2OC=NC2=NO1	Cc1c2ocnc2no1	
InChI=1S/C5H4N2O2/c1-3-4-5(7-9-3)6-2-8-4/h2H,1H3	InChI=1S/C5H4N2O2/c1-3-4-5(7-9-3)6-2-8-4/h2H,1H3
