20
gdb 89661	2.97018	1.26913	1.05568	1.5409	88.32	-0.2167	0.0327	0.2494	1220.082	0.169084	-365.951078	-365.941681	-365.940737	-365.984633	36.111	
C	-0.0850318118	 1.5777597963	 0.0704319097	-0.41272
C	 0.0368045908	 0.0636090358	-0.0256991304	-0.00426
C	 1.1328269658	-0.5472204969	-0.9726838236	-0.308967
C	 1.7111436104	-1.2978012301	 0.2359354284	 0.184231
N	 2.0825406086	-0.2264493201	 1.2172921453	-0.406836
C	 0.6835307807	-0.6898744573	 1.1567592417	 0.256792
C	-0.0148960286	-1.2627576382	 2.3499084362	-0.506027
C	 2.3208074837	-2.579178405	 0.2708177479	 0.151708
C	 2.8276900029	-3.6718631669	 0.2868035245	-0.406194
H	 0.8766268545	 2.0203010926	 0.3430872522	 0.138292
H	-0.4031906334	 2.005961678	-0.8862271706	 0.112199
H	-0.8240276508	 1.8698927533	 0.8250654248	 0.10914
H	-0.9347640139	-0.3868897987	-0.2539806671	 0.073081
H	 0.7200880628	-1.2091605596	-1.7356400541	 0.110825
H	 1.8251479481	 0.1632069164	-1.4308048211	 0.108073
H	 2.5233759697	-0.6961522528	 2.0089325835	 0.229889
H	-0.2649160717	-0.4797164677	 3.075604247	 0.130262
H	-0.9467615106	-1.7578521061	 2.0576076125	 0.127459
H	 0.6162820484	-2.0030702379	 2.8530285341	 0.127753
H	 3.2783408546	-4.6330878851	 0.3006372891	 0.185301
108.1979	121.4811	177.2318	192.172	219.3677	249.5949	304.5141	339.1314	434.9244	466.4324	533.9148	550.6728	569.5498	614.7418	660.9626	680.5101	702.9765	786.736	845.3406	899.4354	923.9081	1004.63	1039.6105	1058.5499	1083.5355	1103.3787	1125.5645	1136.7987	1184.4256	1234.2444	1242.8523	1306.9395	1340.2788	1357.6985	1401.5836	1410.4562	1442.5892	1480.9702	1484.6268	1492.1761	1496.966	1504.6327	2226.7165	3024.844	3030.876	3050.3091	3069.2119	3087.9323	3091.2117	3101.355	3121.2264	3132.1462	3466.5326	3502.4835
CC1CC2(NC12C)C#C	C[C@H]1C[C@]2(N[C@@]12C)C#C	
InChI=1S/C8H11N/c1-4-8-5-6(2)7(8,3)9-8/h1,6,9H,5H2,2-3H3	InChI=1S/C8H11N/c1-4-8-5-6(2)7(8,3)9-8/h1,6,9H,5H2,2-3H3/t6-,7-,8+/m0/s1
