18
gdb 14066	3.38903	1.65662	1.36151	2.9452	74.07	-0.2336	-0.0154	0.2182	975.5018	0.152789	-347.809434	-347.801355	-347.800411	-347.842032	30.04	
C	-0.0334740929	 1.4817704856	-0.1696452516	-0.406753
C	 0.0859295126	-0.019774863	-0.04923365	-0.044152
C	 1.4149542655	-0.6987776185	-0.1306192428	-0.339565
C	 0.69421445	-0.6361629993	 1.2008252458	 0.233802
C	 1.1059928124	 0.0206657567	 2.5311986587	-0.331368
C	 0.4999087588	-1.2013112929	 3.2986649288	-0.342885
C	 0.1259799094	-1.8153536704	 1.9322576521	 0.346771
O	-0.4074728524	-2.8324805039	 1.5838015433	-0.318667
H	 0.8373665479	 1.986841259	 0.2602585391	 0.119055
H	-0.1058886576	 1.7813323308	-1.2207705154	 0.125786
H	-0.9253639816	 1.8551666067	 0.3450255177	 0.122738
H	-0.7545479802	-0.5850518445	-0.445070346	 0.106901
H	 1.479018517	-1.6739438824	-0.6022624817	 0.131904
H	 2.3004033874	-0.0781025759	-0.2315867762	 0.117087
H	 2.1829013723	 0.1434128543	 2.6669270195	 0.109196
H	 0.6149295345	 0.9729385974	 2.7449393146	 0.10926
H	 1.2099284933	-1.8022274796	 3.8735392278	 0.130674
H	-0.3618435663	-0.9817281001	 3.9351262262	 0.130217
74.1466	122.7117	170.2257	196.6488	250.8529	334.5969	409.5928	502.5824	515.9319	602.1544	721.7293	745.9124	765.4246	858.4019	896.4452	909.643	931.0589	998.0416	1025.5731	1055.4808	1070.4653	1093.2704	1117.3587	1130.5814	1179.6201	1191.3688	1210.9835	1231.4395	1259.5265	1324.4792	1404.9548	1426.0174	1438.8909	1476.5322	1491.4761	1493.2121	1503.4246	1874.1812	3030.7674	3061.4513	3067.9753	3093.5689	3101.2381	3106.4609	3122.4516	3122.9829	3141.5149	3213.3886
CC1CC11CCC1=O	C[C@H]1C[C@]21CCC2=O	
InChI=1S/C7H10O/c1-5-4-7(5)3-2-6(7)8/h5H,2-4H2,1H3	InChI=1S/C7H10O/c1-5-4-7(5)3-2-6(7)8/h5H,2-4H2,1H3/t5-,7-/m0/s1
