23
gdb 84028	2.589	1.35621	1.11168	1.2634	85.56	-0.2334	0.0817	0.315	1216.9899	0.208332	-388.284767	-388.276251	-388.275307	-388.317478	34.091	
C	-0.1475908635	 1.6005994303	-0.0190988905	-0.408676
C	 0.0082350958	 0.0960356934	 0.0278868316	-0.043513
C	 1.2972074458	-0.6189716551	-0.3291298952	-0.031236
C	 2.5888227149	 0.088973213	-0.7050526155	-0.234913
C	 3.8094788114	-0.4250357889	 0.0731609329	-0.057871
O	 3.9094681712	 0.0926554129	 1.3878184404	-0.244371
C	 3.0154696484	-0.4360903103	 2.3508975847	-0.057871
C	 1.5740103346	 0.074834929	 2.2060791787	-0.234911
C	 0.7981174031	-0.6259346242	 1.1025902989	-0.031237
H	 0.75196813	 2.1340668682	 0.2969534869	 0.123835
H	-0.383421969	 1.9343939078	-1.0358292443	 0.115965
H	-0.9652060684	 1.9262830045	 0.6337504905	 0.115966
H	-0.8931522372	-0.4239910058	-0.2888646844	 0.079964
H	 1.166560238	-1.5607612584	-0.8573150341	 0.077092
H	 2.7739488714	-0.0480618087	-1.7783452232	 0.093159
H	 2.5274112321	 1.1694907412	-0.5416049535	 0.104706
H	 3.8086961396	-1.5281043237	 0.0943866928	 0.081015
H	 4.7286650704	-0.1033637751	-0.4290071975	 0.098463
H	 3.0313855556	-1.5389266382	 2.3242443551	 0.081015
H	 3.422328698	-0.1215445143	 3.3184076221	 0.098463
H	 1.0522345101	-0.0720454062	 3.1606386797	 0.093159
H	 1.6242419838	 1.1569071379	 2.0492321551	 0.104705
H	 0.3702982738	-1.5718710393	 1.4269214185	 0.077092
110.6375	151.5751	208.9715	257.5699	277.3399	308.0451	349.5164	392.3248	474.0372	481.256	560.4869	586.481	745.086	760.5215	773.2331	849.9769	896.063	937.0242	951.1606	980.7086	984.9759	1018.6039	1054.4842	1070.9922	1100.0022	1115.9352	1141.1974	1153.4785	1159.6028	1182.501	1236.1132	1247.8438	1274.6618	1299.4206	1329.5957	1341.2736	1363.9544	1390.7127	1394.4158	1409.0723	1417.9382	1427.2991	1453.3006	1471.4353	1481.3093	1488.947	1500.182	1501.3347	1508.732	2962.7653	2967.1612	3024.2316	3025.349	3032.6268	3061.1747	3064.4093	3079.8926	3083.1518	3086.468	3111.3729	3116.9421	3122.2985	3137.8886
CC1C2CCOCCC12	C[C@H]1[C@H]2CCOCC[C@@H]12	
InChI=1S/C8H14O/c1-6-7-2-4-9-5-3-8(6)7/h6-8H,2-5H2,1H3	InChI=1S/C8H14O/c1-6-7-2-4-9-5-3-8(6)7/h6-8H,2-5H2,1H3/t6-,7+,8-
