20
gdb 94742	3.61145	1.13145	1.00447	4.5436	83.94	-0.2744	0.0347	0.3091	1243.2044	0.172728	-366.043382	-366.035025	-366.034081	-366.076059	32.633	
C	-0.0354677618	 1.5667897583	-0.003705876	-0.400329
C	 0.0488643743	 0.0392288469	 0.021124115	 0.02669
C	 0.8012167518	-0.5689633947	-1.187630125	-0.247876
C	 1.3102668995	-1.948060623	-0.7176152388	-0.282637
C	 1.5285428047	-1.7830390282	 0.7891961709	 0.199495
C	 2.2708924522	-0.5360704836	 1.2478826023	-0.325989
C	 0.7691989334	-0.5354622038	 1.2372526562	-0.069045
C	 1.587930857	-2.9600421648	 1.606381306	 0.196165
N	 1.6335959329	-3.9177612027	 2.2549522634	-0.351883
H	 0.9638958762	 2.0151883767	 0.0149859052	 0.116735
H	-0.5435638399	 1.916514196	-0.9083511313	 0.118004
H	-0.5900316646	 1.9499904859	 0.8588639853	 0.11821
H	-0.9718952969	-0.3660562289	 0.0340314224	 0.083055
H	 0.1643226859	-0.6448633372	-2.0724861771	 0.10861
H	 1.6425580699	 0.0758408276	-1.46441229	 0.106968
H	 0.5497438482	-2.7192691236	-0.8786802213	 0.121762
H	 2.215627879	-2.2684077583	-1.2416874415	 0.114811
H	 2.7594747389	-0.59327884	 2.2132128701	 0.136895
H	 2.8218033763	 0.0257784277	 0.5011671802	 0.123696
H	 0.2586089229	-0.5337948601	 2.1936888441	 0.106664
109.6063	147.674	176.7785	233.7232	266.1057	311.7757	373.511	449.5242	512.6859	562.4545	573.2664	594.3888	677.9353	792.641	828.8431	865.6158	925.1943	939.8119	967.6859	977.849	981.846	1014.4972	1062.6744	1078.2175	1080.8629	1124.5042	1156.5238	1200.315	1232.0255	1249.2801	1268.4829	1318.8183	1323.6902	1345.7602	1370.0896	1398.0587	1413.1443	1481.0146	1493.5077	1497.2369	1499.5942	1513.0941	2347.1598	3012.8943	3031.0685	3046.902	3049.8997	3089.0956	3099.2819	3101.9718	3104.0347	3140.0651	3177.6622	3228.4409
CC1CCC2(CC12)C#N	C[C@H]1CC[C@]2(C[C@@H]12)C#N	
InChI=1S/C8H11N/c1-6-2-3-8(5-9)4-7(6)8/h6-7H,2-4H2,1H3	InChI=1S/C8H11N/c1-6-2-3-8(5-9)4-7(6)8/h6-7H,2-4H2,1H3/t6-,7-,8-/m0/s1
