17
gdb 31829	5.01411	1.02717	0.86023	1.622	83.98	-0.1846	-0.0284	0.1563	1320.9595	0.138312	-414.241129	-414.23273	-414.231786	-414.274038	31.672	
C	 0.0687751629	 1.4158476475	 0.1625891879	-0.324203
N	-0.0302938821	 0.0065417461	-0.1476465399	-0.350864
C	-1.2273603322	-0.677318821	-0.0656426305	 0.369145
C	-2.4825142057	-0.0494457275	-0.0525788484	-0.092138
N	-3.6197372035	-0.7418276487	-0.0156568581	-0.298869
C	-3.5367903652	-2.0728343948	 0.0024242399	 0.334213
N	-4.727045372	-2.7960486484	-0.0344390236	-0.57418
C	-2.2808012839	-2.7006512759	 0.0056802714	-0.065887
N	-1.1467230469	-2.016637021	-0.0202790891	-0.314026
H	 1.1184968412	 1.7131467069	 0.1181689715	 0.129028
H	-0.4732476443	 2.0168536346	-0.5767652355	 0.134408
H	-0.3232376707	 1.6737688325	 1.1593057356	 0.116216
H	 0.758622372	-0.5705129859	 0.1006641804	 0.241666
H	-2.5744640238	 1.0321351822	-0.0669944129	 0.100912
H	-5.522663003	-2.2370092688	 0.2412556414	 0.250101
H	-4.7028898114	-3.68866897	 0.4368063196	 0.246432
H	-2.2014667912	-3.7859256879	 0.0355817304	 0.098047
81.8567	138.0739	193.4172	209.8147	303.1486	357.458	387.7504	435.7164	444.1779	483.0307	555.7758	576.588	652.6908	667.5833	781.4361	805.7805	886.0224	901.2212	932.4663	1030.5312	1083.2514	1097.9927	1155.8829	1179.9994	1260.6992	1305.	1342.1718	1356.8104	1421.0823	1469.6665	1478.271	1485.0079	1522.8424	1552.2772	1591.8982	1631.5741	1649.4741	2977.3544	3053.4696	3123.0497	3137.7589	3171.1754	3557.3343	3619.8552	3663.5609
CNC1=CN=C(N)C=N1	CNc1cnc(N)cn1	
InChI=1S/C5H8N4/c1-7-5-3-8-4(6)2-9-5/h2-3H,1H3,(H2,6,8)(H,7,9)	InChI=1S/C5H8N4/c1-7-5-3-8-4(6)2-9-5/h2-3H,1H3,(H2,6,8)(H,7,9)
