21
gdb 93017	2.23359	1.81479	1.20164	1.0609	83.55	-0.2239	0.0205	0.2444	1100.3618	0.183468	-387.095809	-387.08725	-387.086306	-387.128287	34.329	
C	 0.0468313701	 1.5013282483	-0.0344916551	-0.471075
C	-0.0207201124	-0.0127039754	 0.0048594848	 0.358237
C	-0.8555211761	-0.6525982367	 1.0791954605	-0.322651
C	 0.6667514272	-0.7321656648	 1.1511137261	-0.121524
C	 1.3339606235	-2.0265879645	 0.8739280469	-0.040144
C	 1.1287431247	-2.7127279438	-0.251502135	-0.092487
C	 0.2004832206	-2.205383207	-1.3243508113	-0.313589
C	 0.0983722464	-0.6689140299	-1.359531411	 0.061127
O	-1.0261786825	-0.249728958	-2.1327349834	-0.440141
H	 0.9890839464	 1.8428199411	-0.4798225435	 0.109684
H	-0.7737042967	 1.9058072098	-0.6339358476	 0.135275
H	-0.0204701753	 1.9255348622	 0.9721117349	 0.106614
H	-1.364188908	 0.0036700162	 1.7776834386	 0.108105
H	-1.386337338	-1.5729885838	 0.8651034617	 0.118001
H	 1.1425807783	-0.1039547919	 1.8980138481	 0.079048
H	 1.9974083532	-2.4179867402	 1.6404262528	 0.08603
H	 1.611683936	-3.6727754596	-0.4074930933	 0.085363
H	 0.5248372087	-2.5604324874	-2.3109991707	 0.090758
H	-0.8127319245	-2.6068441498	-1.1836969882	 0.120159
H	 1.0251496159	-0.2791140629	-1.8140535336	 0.063786
H	-0.9008845174	-0.5683374715	-3.0323465118	 0.279422
112.2431	190.0735	223.528	264.7847	270.8969	289.4164	349.2982	405.7589	427.0802	478.8017	535.8341	566.1078	681.2256	728.6689	779.7932	809.4574	877.1729	901.6758	952.9331	962.6488	985.5239	1001.3242	1015.0224	1059.438	1072.206	1076.7156	1092.2709	1110.4567	1121.074	1186.8822	1208.609	1251.3596	1259.8569	1322.0013	1337.4672	1370.0067	1398.3175	1409.8027	1427.4525	1445.748	1480.2374	1487.0723	1500.9187	1507.3465	1711.2315	2950.2424	3011.4822	3026.5488	3041.6845	3090.5886	3113.0162	3134.1678	3146.0018	3157.5213	3178.75	3221.8357	3815.7088
CC12CC1C=CCC2O	C[C@]12C[C@H]1C=CC[C@H]2O	
InChI=1S/C8H12O/c1-8-5-6(8)3-2-4-7(8)9/h2-3,6-7,9H,4-5H2,1H3	InChI=1S/C8H12O/c1-8-5-6(8)3-2-4-7(8)9/h2-3,6-7,9H,4-5H2,1H3/t6-,7-,8+/m1/s1
