21
gdb 40311	2.64218	1.35945	1.04907	1.6693	81.78	-0.2541	0.0908	0.3449	1215.7134	0.182174	-387.034621	-387.025802	-387.024857	-387.0691	33.659	
C	-0.4203972081	 1.2861365887	-0.1230521714	-0.250191
C	 1.0581043937	 1.1383134797	 0.1344465905	-0.293749
C	 0.1654696894	-0.0764797604	 0.1559572049	-0.071186
C	-0.1977042724	-0.8354282609	 1.4065838145	 0.333919
C	 0.8957619141	-1.5667889273	 2.1603595965	-0.299726
C	 0.2443283393	-0.3486484893	 2.7621815546	-0.321949
C	-1.5190521002	-1.5352629645	 1.2645930158	 0.028197
C	-2.4265665899	-1.8889879954	 2.3626916936	-0.192997
O	-2.7145744124	-0.7816366226	 1.5102472227	-0.238852
H	-1.0243857388	 1.7293321922	 0.6605382023	 0.12547
H	-0.754993858	 1.5125311833	-1.1291917352	 0.110417
H	 1.7406385654	 1.2414843765	-0.7020955511	 0.110225
H	 1.4518258235	 1.5246050912	 1.0677110731	 0.112165
H	 0.2614582364	-0.7258449946	-0.7125855133	 0.08228
H	 0.6621031745	-2.5356806755	 2.5888567816	 0.110301
H	 1.9093094732	-1.4697453477	 1.7866605781	 0.115336
H	 0.8241477153	 0.5650920858	 2.8145987882	 0.1163
H	-0.4215847805	-0.4831155296	 3.6059656284	 0.115292
H	-1.5861654787	-2.150930822	 0.3639798476	 0.086229
H	-3.0833411398	-2.7519503106	 2.2523988803	 0.11045
H	-2.1800534759	-1.6362001569	 3.3920534884	 0.11207
41.9642	50.6969	164.152	226.0071	227.5021	294.7376	388.6754	409.3302	482.8333	525.6847	668.4852	765.5022	786.1021	813.8423	832.0126	853.2807	900.9503	919.3791	947.8018	953.9473	967.8957	978.1794	1049.1961	1058.9495	1060.8851	1079.4728	1086.7446	1099.8283	1132.2236	1140.0449	1157.8398	1173.416	1186.1179	1196.8546	1218.3182	1255.6005	1296.4177	1360.418	1408.6333	1443.6275	1460.9407	1471.3948	1506.0801	1509.2781	1534.7853	3073.3419	3082.5192	3115.1912	3130.564	3135.778	3140.9184	3150.1177	3164.093	3212.4049	3213.9637	3228.8733	3231.1401
C1CC1C1(CC1)C1CO1	C1CC1C1(CC1)[C@H]1CO1	
InChI=1S/C8H12O/c1-2-6(1)8(3-4-8)7-5-9-7/h6-7H,1-5H2	InChI=1S/C8H12O/c1-2-6(1)8(3-4-8)7-5-9-7/h6-7H,1-5H2/t7-/m1/s1
