23
gdb 99024	3.3915	0.84275	0.80161	3.3863	82.53	-0.2501	-0.0228	0.2272	1594.2652	0.20175	-425.466608	-425.455484	-425.45454	-425.50316	40.835	
C	 0.1644707644	 1.5423164133	-0.3184831965	-0.379083
C	-0.1042410672	 0.0448693457	-0.4416407877	-0.276037
C	-1.4769925641	-0.3803884247	 0.0521335537	 0.387459
O	-2.3107921834	 0.4420860756	 0.382474061	-0.324846
C	-1.7368968466	-1.8785604148	 0.1330170457	-0.327154
C	-3.2290085092	-2.2928739018	 0.0912939473	 0.355873
C	-3.8669524473	-1.9115755421	-1.2571322407	-0.418975
C	-3.3482978489	-3.8003100768	 0.3273511397	-0.396657
O	-3.9297878582	-1.6751181129	 1.1635348545	-0.472135
H	 1.1557236142	 1.7894636113	-0.7079886608	 0.113108
H	-0.5807268526	 2.1177841984	-0.872592351	 0.135573
H	 0.1136743308	 1.8644917371	 0.7249720347	 0.131237
H	-0.0249317528	-0.287413082	-1.4870701461	 0.128856
H	 0.6477448423	-0.5480257692	 0.0969582222	 0.124148
H	-1.1633183952	-2.3906686792	-0.6485720541	 0.107245
H	-1.3110006942	-2.2094950327	 1.091292551	 0.133627
H	-3.3703745347	-2.4145019825	-2.0945502922	 0.101408
H	-4.9207604192	-2.2030073972	-1.2564581058	 0.122663
H	-3.8155464801	-0.8319641436	-1.4238206458	 0.121834
H	-2.9154353344	-4.0701938127	 1.2950396499	 0.115616
H	-4.4032466558	-4.0884691069	 0.3369673009	 0.12305
H	-2.8394572718	-4.3687390699	-0.4573180722	 0.1044
H	-3.7490260461	-0.7268036624	 1.0853881723	 0.288791
38.0267	67.5658	124.6255	154.8836	196.014	204.5546	248.5577	271.5919	300.0445	333.051	348.4827	401.7341	448.3574	477.3412	510.1787	610.7382	670.5088	731.5574	779.14	840.6319	873.2927	925.6215	932.3955	983.512	1002.9733	1010.2658	1044.1976	1059.8542	1128.475	1152.0799	1184.9706	1237.5575	1267.0933	1295.6864	1337.1125	1378.3715	1392.5809	1411.7632	1413.668	1435.4186	1441.1793	1448.1838	1476.9806	1490.0679	1492.8825	1498.4229	1500.6265	1511.6305	1777.9366	3012.13	3018.2711	3033.3492	3040.9558	3042.4951	3052.863	3065.9625	3104.9942	3114.68	3117.4517	3122.3263	3123.0491	3130.5982	3716.3896
CCC(=O)CC(C)(C)O	CCC(=O)CC(C)(C)O	
InChI=1S/C7H14O2/c1-4-6(8)5-7(2,3)9/h9H,4-5H2,1-3H3	InChI=1S/C7H14O2/c1-4-6(8)5-7(2,3)9/h9H,4-5H2,1-3H3
