19
gdb 50698	2.77185	1.41742	1.09001	2.7416	74.58	-0.243	-0.0227	0.2203	1129.6489	0.160332	-423.021363	-423.013349	-423.012405	-423.054373	30.478	
O	-0.5990068172	 0.8560426107	-0.65576971	-0.249557
C	 0.1803833355	 1.0299033186	 0.2473328918	 0.159945
C	 1.3884665715	 1.939747341	 0.1803274335	-0.123826
C	 1.52158991	 2.638826483	-1.180404325	-0.101697
O	 2.5762181977	 3.5792232405	-1.1541287915	-0.241259
C	 2.2593615359	 4.7067053073	-0.3551874899	-0.097547
C	 1.8273514275	 4.3512021253	 1.0676944922	-0.057331
C	 0.3748612417	 4.0703329907	 1.3719469379	-0.29284
C	 1.3674402316	 2.9354117257	 1.3385502007	-0.032509
H	 0.0431931797	 0.5168861557	 1.2276942214	 0.077209
H	 2.2732102649	 1.3007267423	 0.3232475057	 0.103516
H	 1.7614044578	 1.9100993591	-1.9577097813	 0.121137
H	 0.5710889964	 3.1170325773	-1.4629140416	 0.10461
H	 3.1684806651	 5.3129884741	-0.3285145964	 0.112187
H	 1.4754754918	 5.3010527467	-0.8538777905	 0.093106
H	 2.4036100786	 4.8277282646	 1.853843648	 0.094186
H	-0.022380068	 4.3713379853	 2.3348937924	 0.115517
H	-0.3331058651	 4.1605924037	 0.5530918043	 0.122798
H	 1.6433791248	 2.5110540885	 2.2992402681	 0.092357
64.1551	110.742	203.1923	217.0715	299.4361	377.6385	379.2678	469.3487	524.7274	624.8568	703.346	739.6723	810.3346	844.3286	893.4059	925.5667	945.9334	966.384	991.6611	1044.4208	1059.3315	1075.2354	1105.1322	1125.1462	1132.0394	1173.5339	1177.939	1235.0542	1253.3537	1287.6784	1316.3383	1337.9314	1356.926	1383.1484	1409.4298	1417.6284	1433.7636	1488.6089	1495.1967	1505.9159	1822.4202	2860.2055	2962.7177	2989.6623	3000.8914	3088.9169	3105.0089	3126.6636	3143.9763	3159.8349	3212.6793
O=CC1COCC2CC12	O=C[C@H]1COC[C@H]2C[C@@H]12	
InChI=1S/C7H10O2/c8-2-6-4-9-3-5-1-7(5)6/h2,5-7H,1,3-4H2	InChI=1S/C7H10O2/c8-2-6-4-9-3-5-1-7(5)6/h2,5-7H,1,3-4H2/t5-,6+,7-/m1/s1
