18
gdb 22552	2.57577	1.23469	0.96179	0.4984	82.37	-0.2332	0.0045	0.2377	1256.9179	0.14399	-401.864919	-401.85501	-401.854066	-401.90029	36.387	
C	 0.1866670384	 1.4902274077	-0.0031699639	-0.482502
C	 0.0590736852	-0.0090693566	 0.0128863591	 0.287601
N	 0.046854725	-0.7083135578	 1.0829846882	-0.174328
O	 0.1855021622	 0.0947200993	 2.2258219851	-0.401273
C	-0.0070383274	-0.7604418612	-1.2867335125	 0.10553
C	 1.2734205434	-1.4850387968	-1.7375280299	-0.280795
C	 0.0942474441	-2.27788518	-1.2734536708	-0.299049
C	-0.8106038138	-0.1561799923	-2.3171137072	 0.232678
C	-1.4829415996	 0.3475886315	-3.1784781264	-0.441434
H	 1.1007624754	 1.7928891212	 0.5174737951	 0.144146
H	 0.1984968216	 1.87692579	-1.0219168478	 0.134554
H	-0.6460592892	 1.9458284698	 0.5419569382	 0.148384
H	 0.1426140386	-0.5552959571	 2.9349235041	 0.305518
H	 1.5046994652	-1.4579905307	-2.7958130749	 0.128047
H	 2.1244175174	-1.399091275	-1.0716395123	 0.128344
H	 0.1357181898	-2.7383427746	-0.2953591023	 0.144622
H	-0.4939011176	-2.8025039994	-2.0162850306	 0.127174
H	-2.0809458388	 0.7877043419	-3.9373293512	 0.192784
41.6996	57.2559	136.5845	181.2083	203.282	243.5654	310.6247	353.6307	409.6219	424.7032	462.4214	531.3231	561.5188	578.0334	600.4514	655.0943	726.6793	788.7735	861.9233	874.7471	956.2442	962.8387	982.5519	1045.5544	1051.1031	1064.0443	1092.4653	1166.2819	1199.9996	1290.2754	1317.9655	1401.9136	1403.5402	1458.2086	1473.6011	1484.0939	1487.2772	1716.7524	2232.3106	3047.2096	3101.7659	3140.7748	3154.3296	3157.4682	3233.1474	3255.4945	3503.2764	3820.6109
CC(=NO)C1(CC1)C#C	CC(=NO)C1(CC1)C#C	
InChI=1S/C7H9NO/c1-3-7(4-5-7)6(2)8-9/h1,9H,4-5H2,2H3	InChI=1S/C7H9NO/c1-3-7(4-5-7)6(2)8-9/h1,9H,4-5H2,2H3
