19
gdb 82561	2.82624	1.7296	1.369	0.8801	75.	-0.2335	0.0695	0.3031	988.6621	0.16077	-422.968163	-422.960969	-422.960025	-422.999313	30.008	
O	-0.0050439835	 1.4290425533	-0.0171545926	-0.439452
C	 0.0679992627	 0.0154428719	 0.0315134543	 0.070981
C	 0.5428569445	-0.5945924488	 1.398854397	 0.02276
C	-0.6297759982	-0.4359182708	 2.4197767061	-0.33596
C	-1.2231693983	-1.3919873108	 1.376044976	 0.425638
C	-2.3198873921	-2.3504403161	 0.9097830583	-0.344731
C	-1.9740399776	-1.8663074361	-0.551518471	-0.268347
C	-1.3575091436	-0.5760799627	 0.0816346974	 0.012719
O	 0.1227073505	-1.9690579042	 1.1952250882	-0.325058
H	 0.8924166133	 1.7761247886	-0.0345284277	 0.284123
H	 0.6927274547	-0.3868583716	-0.7766243422	 0.076095
H	 1.5886622934	-0.4793552434	 1.6903510404	 0.071811
H	-0.3695208395	-0.8988960036	 3.3726482942	 0.109238
H	-1.1004590689	 0.5412472253	 2.5478784969	 0.107965
H	-2.1881053464	-3.4052744656	 1.1588680343	 0.112695
H	-3.3163895489	-2.021694082	 1.2157654796	 0.112429
H	-1.2259173959	-2.5077390171	-1.0177837307	 0.121926
H	-2.8132717224	-1.7247400159	-1.2349654728	 0.098478
H	-2.0938180638	 0.2292000095	 0.1396396143	 0.08669
155.5334	262.1721	278.3862	298.3471	337.2512	389.2863	504.2614	527.1835	582.6428	654.5135	693.1845	799.2434	818.4913	828.0071	858.2309	890.8981	913.2174	941.8296	977.8329	991.3607	1038.9031	1047.7005	1069.0178	1090.6598	1129.05	1152.9386	1189.5935	1201.5798	1217.1674	1224.5778	1230.3032	1245.6593	1264.3828	1276.6082	1301.0338	1331.1962	1342.9667	1414.591	1468.6273	1480.1696	1485.3854	3018.5776	3068.3971	3072.3465	3080.2774	3086.3771	3104.3023	3124.8405	3145.3815	3147.3938	3818.0424
OC1C2CC3(CCC13)O2	O[C@H]1[C@H]2C[C@]3(CC[C@H]13)O2	
InChI=1S/C7H10O2/c8-6-4-1-2-7(4)3-5(6)9-7/h4-6,8H,1-3H2	InChI=1S/C7H10O2/c8-6-4-1-2-7(4)3-5(6)9-7/h4-6,8H,1-3H2/t4-,5-,6-,7+/m1/s1
