18
gdb 48775	2.86492	1.51512	1.25287	3.5164	76.09	-0.2307	-0.0226	0.2081	1042.3601	0.148863	-401.921828	-401.914445	-401.913501	-401.953596	29.283	
O	-0.0985227975	 0.0071669066	 0.1166013637	-0.267472
C	 0.0259616857	 1.1901878741	-0.0878575698	 0.084712
C	 1.303347651	 1.9307674099	-0.0428851172	 0.259082
C	 1.2522631686	 3.4199373279	 0.2822302788	-0.348231
C	 1.6030229209	 3.0060431516	-1.104261847	-0.085081
C	 3.0632165788	 2.7943185222	-1.5175816609	-0.185982
N	 3.6233359686	 1.6354613331	-0.7840411938	-0.096594
C	 3.8070223749	 1.8256817752	 0.6617585913	-0.262064
C	 2.5831684524	 1.1560367222	 0.1555577461	-0.105095
H	-0.8547226595	 1.8275915648	-0.33760248	 0.066356
H	 0.2631201908	 3.8429787662	 0.4350494801	 0.124633
H	 2.0054581479	 3.8222009806	 0.9475239257	 0.130734
H	 0.8791893916	 3.2030344889	-1.8888950534	 0.104529
H	 3.1008154437	 2.5605663947	-2.5860973744	 0.120424
H	 3.6817442266	 3.6845384544	-1.3563132997	 0.11366
H	 4.6059373635	 1.2283568251	 1.0939099874	 0.120555
H	 3.7370189688	 2.8264669604	 1.0781205368	 0.108395
H	 2.455977743	 0.0832205919	 0.2541118164	 0.117439
103.239	198.4598	219.7351	266.7444	336.312	419.6879	452.4919	535.5068	647.499	671.8723	698.9143	794.8417	811.3021	841.1208	853.8366	902.188	949.1428	982.784	1005.4236	1034.7122	1059.9405	1079.7592	1092.8842	1108.6312	1118.5949	1122.7841	1169.6955	1224.2555	1254.9766	1269.1585	1275.9701	1341.9807	1369.5497	1414.3396	1441.2648	1481.8927	1497.3343	1525.6998	1811.0005	2855.028	3040.4599	3079.8312	3107.1455	3130.8695	3159.5277	3172.9708	3186.7767	3225.0303
O=CC12CC1CN1CC21	O=C[C@]12C[C@H]1CN1C[C@@H]21	
InChI=1S/C7H9NO/c9-4-7-1-5(7)2-8-3-6(7)8/h4-6H,1-3H2	InChI=1S/C7H9NO/c9-4-7-1-5(7)2-8-3-6(7)8/h4-6H,1-3H2/t5-,6-,7+,8?/m0/s1
