21
gdb 40585	5.35555	0.98796	0.9716	0.0801	87.79	-0.2604	0.098	0.3583	1310.5053	0.183997	-349.862474	-349.855031	-349.854087	-349.894653	30.283	
C	-0.2514790681	 1.4165954735	-0.2328670915	-0.270644
C	 1.2037556654	 1.2879354185	 0.1407973553	-0.270648
C	 0.340424642	 0.0534094289	 0.0352848054	 0.004159
C	-0.0451231791	-0.7037215879	 1.2760686075	-0.00646
C	-1.1019699874	-1.830918861	 1.1923712538	-0.051371
C	-0.0721944057	-2.8773983477	 0.6321806702	-0.041778
C	-0.4397350066	-3.9220357235	 1.703708509	-0.268917
C	-0.5094744933	-2.5712097538	 2.4410204669	-0.045843
C	 0.7207680779	-1.9922347948	 1.6603175829	-0.051375
H	-0.9308736347	 1.8255522498	 0.5083283889	 0.108245
H	-0.5004457162	 1.68077519	-1.2547653474	 0.108152
H	 1.9507765256	 1.4640623629	-0.6253556561	 0.108152
H	 1.5026729461	 1.6103950938	 1.1331996049	 0.108245
H	 0.5106888667	-0.5665240474	-0.8412576533	 0.076196
H	-0.1984114423	-0.0080499796	 2.1129711212	 0.051887
H	-2.1592283504	-1.7678967014	 0.9263908202	 0.064655
H	 0.1826455646	-3.0385660762	-0.4160349497	 0.068816
H	-1.3842314605	-4.4588863564	 1.5659975977	 0.089196
H	 0.3523875619	-4.6125763464	 2.0118353152	 0.089196
H	-0.7583235317	-2.3609229241	 3.482831572	 0.065477
H	 1.7703861657	-2.1156771472	 1.935229687	 0.064656
73.7724	145.704	163.5837	307.1785	365.4567	461.9458	481.8397	730.5286	762.2097	790.5407	821.4863	845.0251	845.5316	858.21	890.9349	896.8032	899.5877	925.849	949.3724	968.134	1002.6813	1013.235	1028.0209	1056.8982	1066.7535	1076.5369	1120.0083	1129.7119	1143.9776	1145.9009	1152.7778	1157.7433	1188.7873	1198.3168	1209.0493	1226.7423	1230.2252	1244.5293	1284.2417	1315.0431	1329.2244	1446.6747	1470.3157	1506.1955	1511.1727	3006.9963	3033.5207	3085.5091	3088.3369	3089.4994	3095.5039	3107.6739	3126.5955	3130.7229	3138.6204	3204.2398	3219.6448
C1CC1C1C2C3CC2C13	C1CC1[C@H]1[C@H]2[C@@H]3C[C@H]2[C@H]13	
InChI=1S/C9H12/c1-2-4(1)7-8-5-3-6(8)9(5)7/h4-9H,1-3H2	InChI=1S/C9H12/c1-2-4(1)7-8-5-3-6(8)9(5)7/h4-9H,1-3H2/t5-,6+,7-,8-,9+
