18
gdb 15997	3.73667	1.48371	1.21644	2.1598	67.98	-0.2247	0.0676	0.2923	1022.5387	0.152847	-384.894491	-384.886284	-384.885339	-384.927555	30.152	
O	-0.0718536002	 1.4161605325	-0.2086816213	-0.422846
C	-0.0351546403	 0.0580760993	 0.2048582856	-0.090163
C	-1.4301495004	-0.5075620747	 0.0206345524	-0.122351
C	-1.8646311437	-0.7445522817	-1.4421085891	-0.07985
O	-1.8909055618	-2.1801470456	-1.2479912515	-0.30921
C	-1.5698620183	-2.0244950472	 0.1345795875	 0.455902
C	-0.7472170886	-3.0358992387	 0.8653895243	-0.340445
C	-2.2268972307	-2.8564151421	 1.1851763324	-0.334434
H	 0.816976559	 1.7770760038	-0.143042899	 0.288939
H	 0.6798713888	-0.5273154357	-0.3945237051	 0.094317
H	 0.269319676	-0.0315966114	 1.26041348	 0.085715
H	-2.1431626063	 0.066632213	 0.6172735223	 0.087557
H	-2.8519576727	-0.3543316074	-1.7123054046	 0.104611
H	-1.13495773	-0.446102648	-2.2027034715	 0.107869
H	-0.4616003042	-3.9230813482	 0.3102730832	 0.125134
H	-0.0136952352	-2.6996495731	 1.5911865591	 0.112369
H	-2.5020294173	-2.3890929686	 2.1256237767	 0.112793
H	-2.9072866741	-3.6288840362	 0.8432149685	 0.124094
61.0296	100.1149	149.798	252.0598	267.9229	278.8619	357.0256	451.6927	500.1242	574.5636	757.437	821.8514	869.5385	878.5928	900.2446	934.2046	959.5881	996.1964	1012.8565	1047.7361	1065.2994	1080.3339	1094.2439	1144.755	1165.2677	1187.4029	1215.1996	1221.6817	1261.0344	1274.5346	1341.0232	1353.7347	1397.1181	1447.6953	1460.9828	1494.7634	1517.9445	1531.7833	2964.0722	2996.0202	3029.7813	3072.357	3086.8266	3125.2406	3128.6252	3208.7298	3223.03	3831.3685
OCC1COC11CC1	OC[C@H]1COC21CC2	
InChI=1S/C6H10O2/c7-3-5-4-8-6(5)1-2-6/h5,7H,1-4H2	InChI=1S/C6H10O2/c7-3-5-4-8-6(5)1-2-6/h5,7H,1-4H2/t5-/m0/s1
