25
gdb 122629	3.43664	0.67443	0.6083	1.454	89.42	-0.2518	0.0751	0.327	1950.8674	0.228398	-389.488649	-389.478079	-389.477135	-389.524929	39.132	
C	-0.2369729165	 1.4447426116	-0.0316402017	-0.379608
C	-0.1682217775	-0.0803784807	 0.0841494764	-0.16429
C	 0.735751362	-0.5581999937	 1.2257794902	-0.163938
C	 0.8198685063	-2.0849112485	 1.3389177218	-0.205892
C	 1.7126722932	-2.5631805462	 2.4853325087	-0.034505
C	 1.0526021696	-2.5019234044	 3.8973628207	-0.228699
C	 0.7072165421	-4.0125293673	 3.7834334843	-0.257867
C	 1.7643888987	-4.118308179	 2.6548584893	 0.149249
O	 1.5444868066	-4.9624453875	 1.5523571067	-0.430537
H	 0.7549202349	 1.8726226494	-0.2152378042	 0.113868
H	-0.8901014214	 1.7554477811	-0.8531661769	 0.110724
H	-0.6237399675	 1.8946668947	 0.8896390008	 0.112977
H	-1.1795859216	-0.4828108897	 0.2307284239	 0.091948
H	 0.1909578588	-0.5047226927	-0.8628872478	 0.094668
H	 1.7472037137	-0.153245253	 1.0824799162	 0.093727
H	 0.3745295203	-0.1370079887	 2.1738237268	 0.09515
H	-0.1975317799	-2.4879457141	 1.4580392548	 0.07996
H	 1.2043160212	-2.4970711766	 0.3963310622	 0.101981
H	 2.6919615996	-2.0801191147	 2.3997976363	 0.062352
H	 1.7795755272	-2.3012019854	 4.6882758435	 0.10207
H	 0.2142061908	-1.8114167314	 4.0186901236	 0.097195
H	 0.8347834742	-4.6459387513	 4.6643928765	 0.099007
H	-0.3042297388	-4.1681465177	 3.3925644109	 0.093158
H	 2.7339860459	-4.4217536544	 3.0610555991	 0.087961
H	 0.6720233282	-4.7661642399	 1.1959208878	 0.279341
58.4911	77.4062	101.0601	133.6116	155.8046	204.8789	244.9364	288.8223	310.5555	381.7803	412.687	435.4904	562.7426	654.5933	737.0837	754.5259	789.998	852.789	887.3016	905.1072	923.0083	938.7103	963.9256	1005.4337	1026.1855	1061.0352	1068.6569	1083.1762	1122.9459	1142.9695	1166.5376	1205.5718	1228.8606	1239.7805	1255.5556	1260.2306	1287.0627	1290.0869	1317.6971	1324.327	1333.3768	1348.681	1388.3937	1399.2689	1412.8238	1437.2284	1480.1579	1483.2854	1487.6271	1498.1591	1499.5843	1503.5832	1513.3638	2988.3156	3005.814	3015.4043	3026.2504	3028.7682	3034.5583	3043.7193	3047.3512	3059.4803	3061.6138	3068.39	3095.061	3100.219	3100.6027	3115.7314	3816.7345
CCCCC1CCC1O	CCCC[C@H]1CC[C@H]1O	
InChI=1S/C8H16O/c1-2-3-4-7-5-6-8(7)9/h7-9H,2-6H2,1H3	InChI=1S/C8H16O/c1-2-3-4-7-5-6-8(7)9/h7-9H,2-6H2,1H3/t7-,8+/m0/s1
