18
gdb 28288	4.93431	1.23378	0.99915	1.9378	88.09	-0.1947	0.0033	0.198	1183.017	0.149866	-364.865753	-364.858271	-364.857327	-364.897416	29.695	
C	-0.0208808776	 1.4779849932	 0.0417855831	-0.486833
C	 0.0008649462	-0.0131361236	-0.0130275033	 0.252237
C	-0.0300995978	-0.7938500642	-1.1028774909	-0.116219
N	 0.0065630665	-2.1496655297	-0.7370475987	 0.006805
C	 0.0025127701	-3.3819191086	-1.3372057624	-0.137623
C	 0.0582233488	-4.3177030977	-0.3247977897	-0.144502
C	 0.0972233446	-3.6250674895	 0.925962586	-0.32958
C	 0.0637574085	-2.2823296746	 0.6356236429	 0.363432
C	 0.065083454	-0.9005632534	 1.2289699547	-0.470386
H	 0.8744581728	 1.8762872072	 0.536348984	 0.127487
H	-0.0708197345	 1.9127259945	-0.9604987345	 0.125463
H	-0.8830217724	 1.8478290467	 0.6116492387	 0.127442
H	-0.0765257034	-0.5138940899	-2.1455358304	 0.125891
H	-0.0386805439	-3.490124347	-2.408764232	 0.114458
H	 0.0700493976	-5.3883804651	-0.4623601313	 0.091765
H	 0.1438337644	-4.0732036657	 1.9065628253	 0.092276
H	 0.9644849125	-0.6897209402	 1.8234461036	 0.128944
H	-0.7903194464	-0.7182109525	 1.8936619449	 0.128943
120.0417	176.1226	245.0119	262.1201	282.7516	448.5886	471.6827	533.337	608.1956	670.1534	689.6184	729.5426	763.3598	805.9773	820.0062	839.4941	875.7487	928.6468	937.0671	1014.2145	1036.7472	1059.5465	1088.9182	1154.9746	1156.7883	1179.5864	1215.1272	1284.2955	1305.2985	1323.6635	1413.8768	1426.1034	1446.27	1461.8882	1477.1446	1493.672	1507.1635	1596.0666	1702.4327	3011.617	3016.1375	3034.807	3056.9842	3107.2728	3239.6713	3240.4879	3253.6027	3271.5642
CC1=CN2C=CC=C2C1	CC1=Cn2cccc2C1	
InChI=1S/C8H9N/c1-7-5-8-3-2-4-9(8)6-7/h2-4,6H,5H2,1H3	InChI=1S/C8H9N/c1-7-5-8-3-2-4-9(8)6-7/h2-4,6H,5H2,1H3
