20
gdb 97426	4.67453	0.7463	0.7108	2.7367	80.46	-0.2488	0.021	0.2699	1658.5141	0.170318	-440.281058	-440.271594	-440.270649	-440.317343	33.056	
C	 0.2460820789	 1.0942389963	 0.2678011622	-0.315013
N	 0.0811731775	-0.3397264932	 0.1583779159	-0.206079
C	-1.0880770893	-0.7771044833	 0.0114802766	 0.128449
O	-1.3185518647	-2.0966646224	-0.1459120816	-0.217676
C	-2.6861346416	-2.5235474027	-0.1161464434	 0.072347
C	-2.7519176982	-3.9015681208	-0.7782717527	-0.23885
C	-2.4485557065	-4.8230393452	 0.406123713	-0.071258
O	-3.1315059733	-4.2289545289	 1.5057888231	-0.255667
C	-3.1565767626	-2.8173996856	 1.3275762595	-0.075846
H	 0.7503536506	 1.3353741069	 1.210456618	 0.128537
H	 0.8946606691	 1.4532498378	-0.5396010171	 0.128659
H	-0.6995731639	 1.6601456674	 0.2268145754	 0.094626
H	-1.9939556277	-0.1496422419	-0.0247577199	 0.070566
H	-3.3104705118	-1.7735950969	-0.6136949825	 0.086699
H	-3.7649410401	-4.0844916487	-1.1488409971	 0.11208
H	-2.0455903278	-3.9838971303	-1.605743402	 0.122407
H	-2.8287461327	-5.8407517077	 0.2857716826	 0.110401
H	-1.3654737106	-4.8703395059	 0.5931595065	 0.11035
H	-2.4907656935	-2.3192025827	 2.044624719	 0.11121
H	-4.1806487019	-2.4651625224	 1.5012421046	 0.104059
28.7909	50.1947	82.1832	142.1048	204.6322	215.8964	292.8883	344.0353	380.0507	467.699	560.5218	656.1111	747.1275	863.1661	885.1931	926.1097	936.7751	981.9771	986.8991	1005.9294	1056.3438	1075.4773	1117.5121	1141.1454	1143.992	1157.0514	1194.7846	1230.5504	1249.7833	1252.9435	1291.5543	1327.0167	1359.2157	1372.9749	1405.2503	1422.8436	1450.5871	1471.7665	1480.1588	1504.9922	1506.3855	1523.6481	1778.048	2963.0642	2978.3946	2998.0504	3013.8125	3044.5009	3056.8693	3057.5977	3068.7658	3077.5135	3095.9385	3134.031
CN=COC1CCOC1	CN=CO[C@H]1CCOC1	
InChI=1S/C6H11NO2/c1-7-5-9-6-2-3-8-4-6/h5-6H,2-4H2,1H3	InChI=1S/C6H11NO2/c1-7-5-9-6-2-3-8-4-6/h5-6H,2-4H2,1H3/t6-/m0/s1
