15
gdb 6311	4.44659	1.16393	0.95259	3.5367	64.14	-0.2407	0.0128	0.2535	1148.7621	0.116823	-399.794458	-399.785604	-399.78466	-399.828407	31.903	
N	 0.5195615105	 0.3173737726	 0.7987217742	-0.51048
C	-0.0019941382	 0.1001930217	-0.4384067892	 0.364658
O	 0.3883326979	 0.669967951	-1.4391715789	-0.361711
C	-1.1656381918	-0.8989585305	-0.4959444628	-0.293937
C	-1.0310766344	-2.1519975292	 0.3963331457	-0.091663
O	-1.0241758497	-1.8301543091	 1.7961261181	-0.415577
C	-2.0822213715	-3.1230450657	 0.0939275186	 0.296066
C	-2.9804189611	-3.8862695023	-0.141147079	-0.419412
H	 1.3022674437	 0.9454204421	 0.8776719884	 0.256292
H	 0.2015066097	-0.2177666326	 1.5927806348	 0.26928
H	-2.093526807	-0.3774512794	-0.228558435	 0.124282
H	-1.2596452068	-1.2018948234	-1.5403772974	 0.145388
H	-0.0520110084	-2.6117077395	 0.2183325361	 0.136613
H	-1.9338369234	-1.6389326302	 2.0531579192	 0.292649
H	-3.7604261095	-4.5761843355	-0.3517683329	 0.207552
41.3307	92.2659	134.5725	240.339	253.6066	303.8194	346.9601	411.0906	428.9352	494.7423	575.7468	582.6996	616.4522	640.2786	683.2738	738.9752	859.0804	872.6509	959.3849	1025.3916	1066.1674	1131.9772	1186.4012	1268.0359	1298.6544	1350.4489	1366.6492	1416.0969	1457.7021	1610.9669	1800.5975	2235.8817	3036.8565	3054.6584	3125.0285	3501.104	3558.7959	3711.7064	3799.8609
NC(=O)CC(O)C#C	NC(=O)C[C@@H](O)C#C	
InChI=1S/C5H7NO2/c1-2-4(7)3-5(6)8/h1,4,7H,3H2,(H2,6,8)	InChI=1S/C5H7NO2/c1-2-4(7)3-5(6)8/h1,4,7H,3H2,(H2,6,8)/t4-/m0/s1
