21
gdb 89437	2.76346	1.59351	1.35297	1.1021	80.61	-0.2417	0.0774	0.319	1049.7496	0.183707	-387.074199	-387.066193	-387.065249	-387.106048	32.948	
C	-0.2592264786	 1.557117006	 0.0491196012	-0.398632
C	 0.0297237826	 0.0538485504	-0.0303227911	 0.007867
C	 0.7525260197	-0.4181234186	-1.3295011223	-0.291276
C	 2.1438415322	-0.876978322	-0.863672032	 0.414872
O	 2.8330272048	-1.7251259012	-1.7421052579	-0.498791
C	 2.9405878102	 0.3186708627	-0.240239462	-0.296439
C	 2.4136145145	-0.112155013	 1.1299435307	-0.06944
C	 0.934109734	-0.4745359179	 1.0880746705	-0.039955
C	 1.9476613534	-1.4474521136	 0.5710645015	-0.130245
H	 0.6581019482	 2.1495548428	-0.0206811823	 0.120326
H	-0.9282305359	 1.874424178	-0.7580642498	 0.109317
H	-0.7420084413	 1.8105023892	 0.9993680786	 0.110555
H	-0.9299370962	-0.4713879658	 0.0431792177	 0.072025
H	 0.2325463484	-1.2696646711	-1.7810242139	 0.0985
H	 0.8148114854	 0.3755671976	-2.0839902789	 0.083356
H	 2.9443912794	-1.2626868033	-2.579796065	 0.275237
H	 4.0127324959	 0.1190806419	-0.3208813854	 0.103611
H	 2.7280436431	 1.3305229281	-0.6048237525	 0.080112
H	 2.902110968	 0.0816913802	 2.0778856413	 0.080945
H	 0.4922870993	-0.6577067945	 2.0626009468	 0.079361
H	 2.122868173	-2.4633190559	 0.8976010349	 0.088693
143.8693	208.4979	223.7893	239.7517	310.4317	356.8914	407.1674	425.4878	482.1009	604.4912	628.2926	661.4672	754.8931	784.5487	834.3075	860.3342	877.2877	929.4539	951.1044	960.5881	973.1658	997.1607	1009.4257	1052.4624	1063.0727	1074.635	1110.8147	1134.36	1145.1719	1184.3684	1208.0877	1228.2986	1234.9001	1249.024	1291.3539	1316.5658	1337.0704	1365.8509	1382.224	1402.8913	1417.2855	1485.2309	1494.5049	1498.1565	1504.5384	3020.9723	3026.8587	3028.4664	3034.2182	3076.7585	3093.5082	3095.2366	3108.6199	3159.1911	3173.8506	3210.5914	3804.2043
CC1CC2(O)CC3C1C23	C[C@H]1C[C@@]2(O)C[C@H]3[C@@H]1[C@@H]23	
InChI=1S/C8H12O/c1-4-2-8(9)3-5-6(4)7(5)8/h4-7,9H,2-3H2,1H3	InChI=1S/C8H12O/c1-4-2-8(9)3-5-6(4)7(5)8/h4-7,9H,2-3H2,1H3/t4-,5-,6+,7-,8+/m0/s1
