18
gdb 45058	2.54742	1.84232	1.27402	3.527	76.29	-0.237	0.0274	0.2644	1010.3201	0.149683	-401.97021	-401.962762	-401.961818	-402.001953	29.936	
O	 0.0540286059	-0.0046947198	 0.1391051174	-0.390962
C	 0.0397658696	 1.2041069475	 0.0386544496	 0.350982
N	-1.0803542337	 1.9998466107	-0.0488348502	-0.328962
C	-0.804365394	 3.4073170619	-0.0150296514	-0.000779
C	-0.1418787903	 3.9604278163	 1.2246310214	-0.311624
C	 0.7012660094	 3.5344228971	 0.0363120737	-0.155507
C	 1.2341575358	 2.1306450447	 0.0130433633	 0.251586
C	 2.4906580434	 1.6622530018	 0.7118809254	-0.29563
C	 2.4446220315	 1.6981484875	-0.7854877025	-0.312964
H	-1.9882270322	 1.6099586838	 0.1501929	 0.251444
H	-1.419885448	 4.0364092549	-0.6478748391	 0.105066
H	-0.2287467854	 5.0264635304	 1.4064952742	 0.11601
H	-0.1347713466	 3.3408256818	 2.1155312157	 0.121549
H	 1.205119758	 4.3006490869	-0.5406273739	 0.0965
H	 3.0774924304	 2.4115617443	 1.2315082831	 0.115417
H	 2.4320987106	 0.6917831719	 1.1924601394	 0.137132
H	 2.3658062905	 0.7538129866	-1.3124308772	 0.136348
H	 2.9988007051	 2.4743207214	-1.3028439988	 0.114394
100.1067	187.8573	237.6691	247.8285	382.9867	451.0128	484.333	496.7667	572.0458	699.9709	717.7497	751.5835	779.9408	808.0162	816.4883	896.9189	923.4312	943.6101	966.1342	999.6549	1028.2922	1058.5771	1062.0464	1068.5999	1089.29	1094.1845	1133.283	1196.4231	1202.0529	1213.899	1279.3242	1323.0114	1380.16	1403.3329	1415.1813	1452.4761	1476.3221	1489.2535	1818.8761	3127.7377	3131.9419	3135.0588	3170.0558	3179.5983	3219.0672	3220.3899	3233.6853	3636.9756
O=C1NC2CC2C11CC1	O=C1N[C@H]2C[C@H]2C21CC2	
InChI=1S/C7H9NO/c9-6-7(1-2-7)4-3-5(4)8-6/h4-5H,1-3H2,(H,8,9)	InChI=1S/C7H9NO/c9-6-7(1-2-7)4-3-5(4)8-6/h4-5H,1-3H2,(H,8,9)/t4-,5+/m1/s1
