15
gdb 66084	2.30672	1.46998	1.17498	1.649	67.53	-0.2573	-0.0469	0.2104	1077.1697	0.108669	-457.701735	-457.692809	-457.691865	-457.735753	32.126	
O	-0.0377082	 1.4057846146	-0.1987564087	-0.447818
C	 0.0022861501	 0.011213431	-0.0228384653	 0.131359
C	 0.2928183034	-0.3314444164	 1.4615419383	-0.09172
O	-1.0481960059	-0.8257599448	 1.6747664058	-0.288705
C	-1.389405333	-0.645143279	 0.2945217315	-0.012107
C	-2.5870312839	 0.253746336	 0.0944786747	 0.135373
O	-2.7750780277	 0.8719630039	-0.9245595604	-0.256322
C	 0.8026921197	-0.6633919396	-1.0355972681	 0.306449
C	 1.449350082	-1.2178248308	-1.8834973697	-0.46151
H	-0.589364319	 1.5877663763	-0.9720977105	 0.302101
H	 1.0453325564	-1.1097383316	 1.6168467625	 0.120612
H	 0.5136922069	 0.5520375349	 2.0674857023	 0.130041
H	-1.5578784201	-1.5982823718	-0.2259489082	 0.117598
H	-3.273930125	 0.3109515563	 0.9658545882	 0.107728
H	 2.0278112661	-1.7010098192	-2.6322792825	 0.206921
65.8205	98.4141	139.849	173.3636	202.3459	299.7631	362.8371	411.5842	424.4466	512.9162	540.3663	590.056	647.4424	670.3007	675.5744	784.6843	924.9556	948.9497	994.5961	1006.7125	1058.4628	1079.7879	1140.4989	1151.5588	1197.147	1261.0363	1326.8308	1335.5806	1376.9178	1394.735	1505.7574	1811.5421	2235.3168	2913.6787	3015.1996	3049.0238	3111.5148	3498.4412	3762.2104
OC1(COC1C=O)C#C	O[C@]1(CO[C@H]1C=O)C#C	
InChI=1S/C6H6O3/c1-2-6(8)4-9-5(6)3-7/h1,3,5,8H,4H2	InChI=1S/C6H6O3/c1-2-6(8)4-9-5(6)3-7/h1,3,5,8H,4H2/t5-,6-/m0/s1
