20
gdb 85521	2.38148	1.57659	1.07983	2.7178	78.46	-0.2187	-0.0185	0.2002	1155.6542	0.171525	-403.151396	-403.143034	-403.142089	-403.184604	32.41	
C	-0.2636064704	 1.5170360037	 0.0503615071	-0.393606
C	 0.0387744245	 0.0140758706	 0.1069811262	-0.013495
C	 0.6271142188	-0.493629508	-1.2178622202	-0.330528
C	 1.1401548801	-1.9267453885	-1.1669799622	 0.365787
O	 1.2500599841	-2.6040172626	-2.1618017507	-0.308304
C	 1.497914655	-2.5056857748	 0.2089977264	-0.261632
N	 1.6380936137	-1.6053470547	 1.348119161	-0.103914
C	 2.4193106794	-0.3811839967	 1.1712247929	-0.259322
C	 0.9328316112	-0.3239171802	 1.2902068108	 0.00357
H	 0.6551605361	 2.0931559646	-0.1052105617	 0.119849
H	-0.9503634982	 1.7483731178	-0.7702505338	 0.117814
H	-0.7239614859	 1.8640589333	 0.9809434823	 0.118194
H	-0.9135802982	-0.5117576745	 0.2720142193	 0.087378
H	-0.0991482852	-0.4250383308	-2.0335990658	 0.128518
H	 1.474028291	 0.1390604013	-1.5186106858	 0.131262
H	 0.7037631999	-3.2274092709	 0.4469481902	 0.138739
H	 2.4145861788	-3.0936522451	 0.0961075642	 0.139385
H	 3.0463339272	-0.1064732532	 2.0151849595	 0.118333
H	 2.8723891418	-0.185129482	 0.2018391184	 0.11108
H	 0.5177113365	-0.018295419	 2.2503678118	 0.090893
49.9249	129.3478	223.6021	254.1772	286.1373	339.0581	396.4584	450.7341	480.1105	497.1228	549.9918	594.148	739.592	760.8653	824.3855	870.0555	891.055	947.2567	961.0817	1015.6198	1028.3318	1075.6472	1089.3082	1111.3847	1116.2334	1168.5609	1182.2921	1192.9715	1241.6004	1267.7012	1293.357	1325.6858	1335.7913	1360.4163	1367.3568	1405.9084	1419.6074	1444.8073	1456.2306	1495.9927	1499.0173	1516.1322	1811.9659	2990.5487	3018.4068	3022.7841	3030.7969	3081.5669	3085.9086	3099.9249	3102.6743	3103.3003	3105.8814	3182.0295
CC1CC(=O)CN2CC12	C[C@H]1CC(=O)CN2C[C@@H]12	
InChI=1S/C7H11NO/c1-5-2-6(9)3-8-4-7(5)8/h5,7H,2-4H2,1H3	InChI=1S/C7H11NO/c1-5-2-6(9)3-8-4-7(5)8/h5,7H,2-4H2,1H3/t5-,7-,8?/m0/s1
