19
gdb 105421	2.41282	1.25856	1.01304	3.589	72.44	-0.2668	0.0079	0.2747	1233.9515	0.157684	-460.170084	-460.160758	-460.159814	-460.204456	33.992	
O	 0.5836459992	 0.6663608355	 0.7086644546	-0.422674
C	-0.2255072005	 0.4608446886	-0.4361500151	-0.115439
C	-1.4385122846	-0.4215182418	-0.1367068853	 0.397674
C	-2.1980144174	-0.8485767675	-1.4104981849	-0.272423
C	-1.4478056683	-2.2092556603	-1.3546348675	-0.226772
C	-1.088842292	-1.9131065773	 0.127950217	-0.275702
O	-2.2721736061	 0.26652321	 0.809813131	-0.246445
C	-1.9988677415	 0.1438595862	 2.1242196003	 0.127769
O	-2.5604036797	 0.7991244732	 2.9539538303	-0.285475
H	 0.2458209894	 1.4304758118	 1.1853241968	 0.302126
H	-0.5764348181	 1.4104121555	-0.8621067103	 0.109416
H	 0.4015143492	-0.031510304	-1.1877379309	 0.114664
H	-3.2639011579	-0.9543185238	-1.1979747061	 0.123926
H	-2.0714786589	-0.2218904768	-2.2972935942	 0.104632
H	-2.038675731	-3.1058651112	-1.5463011858	 0.112394
H	-0.5686571003	-2.2301968812	-2.0029608204	 0.113552
H	-0.0767137047	-2.1288665446	 0.4752915234	 0.121383
H	-1.8081479663	-2.3741934564	 0.8094854835	 0.116043
H	-1.2290394604	-0.6128390659	 2.3448836037	 0.101352
74.1684	104.6813	152.0029	181.1058	189.4564	222.1529	322.158	334.7919	353.7201	436.8815	462.345	578.5773	697.2895	785.543	796.1725	858.9941	911.4576	932.8483	949.4205	976.9634	1034.1227	1047.3707	1071.9298	1115.3759	1120.0976	1178.5197	1195.2439	1212.6058	1246.8382	1250.7233	1277.2158	1293.6712	1301.4821	1396.9202	1403.803	1428.8843	1471.5758	1483.8243	1488.0063	1506.5739	1846.7019	3013.2083	3015.7789	3063.4502	3068.2376	3073.6676	3077.4161	3115.3001	3125.0361	3136.4148	3834.4175
OCC1(CCC1)OC=O	OCC1(CCC1)OC=O	
InChI=1S/C6H10O3/c7-4-6(9-5-8)2-1-3-6/h5,7H,1-4H2	InChI=1S/C6H10O3/c7-4-6(9-5-8)2-1-3-6/h5,7H,1-4H2
