22
gdb 40799	3.63992	1.094	0.8999	1.0008	88.09	-0.2305	0.0315	0.262	1344.5915	0.19627	-367.200431	-367.192129	-367.191184	-367.233353	32.799	
C	-0.1686891485	 1.328573056	-0.2240786983	-0.226423
C	 1.2533969862	 0.9595603438	 0.0161440173	-0.226528
N	 0.2034799501	-0.0536844648	 0.0567185297	-0.061782
C	-0.1537675766	-0.5672805395	 1.3784807031	 0.05217
C	-1.5905848639	-1.0974777213	 1.3659984936	-0.204127
C	-2.0088601023	-1.5946775538	 2.7574885114	-0.263879
C	-0.9321487318	-2.4250308449	 3.4072072921	-0.041089
C	 0.3232660163	-2.4726498714	 2.9630097765	-0.058548
C	 0.8188583178	-1.6842279281	 1.7785311233	-0.24783
H	-0.6721264239	 1.8915147737	 0.5611198346	 0.107553
H	-0.5271694549	 1.5304110174	-1.2294004441	 0.114473
H	 1.9550011442	 0.885973473	-0.8098297553	 0.114452
H	 1.6929446274	 1.2772790825	 0.9608544226	 0.108236
H	-0.0886185071	 0.2358110762	 2.1391102798	 0.050709
H	-2.2751539347	-0.3174193915	 1.0154500724	 0.090905
H	-1.64734465	-1.9193316371	 0.6423594684	 0.107202
H	-2.2568987243	-0.7422145911	 3.4079924487	 0.104757
H	-2.9349145651	-2.1786434434	 2.6825432456	 0.102526
H	-1.2172651614	-3.0069527204	 4.2806891129	 0.081241
H	 1.049916862	-3.1058497437	 3.4668516184	 0.081251
H	 0.9684040888	-2.3446860753	 0.9124295295	 0.117075
H	 1.8062024616	-1.2581832763	 1.9982342579	 0.097656
98.9329	112.7389	184.0816	194.0685	298.4919	379.7691	409.7207	456.6102	470.4679	514.1752	670.2911	723.3877	788.7834	830.4999	861.4442	894.4854	902.7014	932.7524	957.1333	979.2699	1003.7499	1028.8433	1047.9204	1053.3106	1090.8092	1111.9733	1115.1436	1118.9788	1154.6303	1173.241	1182.897	1214.0235	1246.0696	1273.761	1316.4689	1329.8324	1330.6007	1366.1951	1379.3636	1402.1093	1417.7586	1475.7716	1479.8598	1490.8884	1498.1514	1519.0215	1725.7408	2898.4888	2994.6198	3009.6049	3030.1997	3041.0681	3043.0821	3076.8924	3089.9566	3095.311	3140.1955	3164.1553	3173.9021	3188.3259
C1CN1C1CCC=CC1	C1CN1[C@H]1CCC=CC1	
InChI=1S/C8H13N/c1-2-4-8(5-3-1)9-6-7-9/h1-2,8H,3-7H2	InChI=1S/C8H13N/c1-2-4-8(5-3-1)9-6-7-9/h1-2,8H,3-7H2/t8-/m1/s1
