16
gdb 24445	3.50644	1.64782	1.16083	2.3614	70.38	-0.1817	0.0357	0.2174	1006.0576	0.127944	-437.898996	-437.892292	-437.891348	-437.930001	26.948	
C	-0.0102329887	 1.4331222175	 0.0781406702	-0.190734
C	 1.4456487993	 1.9403880771	 0.0265992504	-0.090418
O	 2.2234083011	 1.4201122808	 1.1189594487	-0.26425
C	 1.9487221269	 0.1144141021	 1.2759585361	 0.401923
C	 0.9224848263	-0.6173028404	 0.764561349	 0.101671
N	-0.1231165026	-0.0270147531	 0.0108540888	-0.400441
C	 1.1145873807	-1.944988711	 1.2817006762	-0.279725
C	 2.2330606158	-1.8918424341	 2.0496014329	-0.024873
O	 2.755841617	-0.6173667758	 2.0646457571	-0.192772
H	-0.4584605898	 1.7722606769	 1.0198972076	 0.128508
H	-0.5780773031	 1.8819287345	-0.7416394898	 0.110675
H	 1.9175144086	 1.6395051581	-0.918608757	 0.107964
H	 1.4918193034	 3.0276328062	 0.1186254002	 0.121648
H	-0.1326042785	-0.3534206694	-0.9499451954	 0.227989
H	 0.4995621881	-2.8132812537	 1.1034679454	 0.109155
H	 2.7759257055	-2.6163207156	 2.6308997395	 0.133681
121.2808	234.8975	332.592	348.1192	417.9021	473.4914	531.5084	607.9204	647.2333	689.3449	700.1605	717.626	781.7722	816.6693	871.7876	907.5998	938.0122	1027.0111	1055.7434	1063.9934	1124.799	1154.9884	1185.096	1270.3633	1282.8828	1288.9409	1329.8292	1374.6634	1390.3241	1448.1857	1468.9855	1480.8817	1507.0937	1553.1296	1692.2318	3015.9452	3038.7988	3099.6145	3112.6368	3255.1819	3298.0868	3503.6161
C1COC2=C(N1)C=CO2	C1COc2c(N1)cco2	
InChI=1S/C6H7NO2/c1-3-8-6-5(1)7-2-4-9-6/h1,3,7H,2,4H2	InChI=1S/C6H7NO2/c1-3-8-6-5(1)7-2-4-9-6/h1,3,7H,2,4H2
