13
gdb 128886	6.81367	1.0843	0.94677	7.95	72.77	-0.2744	-0.0398	0.2346	1149.606	0.092075	-411.783514	-411.776654	-411.77571	-411.815248	24.74	
N	 0.0789762379	-1.0977622874	-0.402698424	-0.331307
C	 0.0328879896	 0.0358081964	-0.179585354	 0.262626
C	-0.0150096571	 1.4332255185	 0.0962892834	 0.225135
N	-1.1905766263	 2.0942639396	 0.1120717195	-0.311147
N	-0.7365522879	 3.3195192469	 0.4043743187	 0.085945
C	-0.9747288743	 4.7553481809	 0.6701241216	-0.16819
C	 0.6022350787	 4.8493580537	 0.8459037069	-0.371228
C	 0.5853965929	 3.356829094	 0.5434068542	 0.375655
N	 1.1237925254	 2.169228584	 0.3581188288	-0.395638
H	-1.3903688334	 5.292912295	-0.183561778	 0.157743
H	-1.5648783508	 4.9397340577	 1.5691373649	 0.15776
H	 1.1047913178	 5.4752880356	 0.1070812886	 0.156324
H	 0.9311578775	 5.1236999853	 1.8492936794	 0.156322
85.1519	161.0838	174.2636	257.3371	432.8742	501.3683	525.4352	603.8336	685.59	755.8335	782.3173	810.6676	839.4128	907.4758	1005.7341	1060.5612	1131.2286	1135.2548	1171.1777	1216.6704	1262.0121	1281.1407	1311.6402	1442.1433	1471.355	1482.1044	1517.0478	1560.8536	2365.4006	3086.4894	3092.8816	3143.9405	3155.756
N#CC1=NN2CCC2=N1	N#Cc1nn2CCc2n1	
InChI=1S/C5H4N4/c6-3-4-7-5-1-2-9(5)8-4/h1-2H2	InChI=1S/C5H4N4/c6-3-4-7-5-1-2-9(5)8-4/h1-2H2
