19
gdb 107324	2.63023	1.55625	1.17621	1.655	75.25	-0.2468	-0.0022	0.2446	1091.3537	0.15895	-423.01311	-423.004569	-423.003625	-423.046203	32.803	
C	-0.3060671224	 1.4445491082	 0.0006555159	-0.405252
C	-0.0524890803	-0.0675138057	-0.1064657367	-0.091082
C	 0.9291026507	-0.4476314465	-1.2012216479	-0.083295
C	 1.9595417463	-1.1652713032	-0.7478403543	-0.093234
C	 1.8434963852	-1.3439062927	 0.730134873	-0.077749
O	 1.8768756881	-0.0899709268	 1.4609090823	-0.311332
C	 0.5977169914	-0.6762618068	 1.1455613219	 0.373142
C	-0.2159213634	-1.0480957132	 2.3558241311	-0.157933
O	-0.7140320046	 0.1033522156	 3.0235003433	-0.413209
H	 0.6312975626	 1.9655606966	 0.2136547533	 0.131649
H	-0.7169371775	 1.8405365384	-0.9333277973	 0.108931
H	-1.0115065873	 1.6526758043	 0.8087214788	 0.134523
H	-1.0153362668	-0.5698208323	-0.2810282138	 0.084608
H	 0.7964815133	-0.1155842617	-2.2257257693	 0.101653
H	 2.7870931656	-1.5460385886	-1.3331727913	 0.104578
H	 2.2830886656	-2.1873704508	 1.2549637021	 0.095816
H	-1.0937175765	-1.6333464609	 2.0620307258	 0.110329
H	 0.3964267171	-1.6662213248	 3.0287684676	 0.093587
H	 0.0543442326	 0.6367793309	 3.2578368357	 0.294268
70.1847	135.0452	193.3165	237.6017	264.1849	299.7269	347.2338	433.2921	438.8854	503.8891	571.8235	694.863	702.0491	755.7092	804.0608	837.4546	910.6051	925.4832	958.5198	968.2726	986.9909	1026.0648	1042.6335	1076.6126	1103.4653	1117.6889	1147.6105	1170.3513	1251.5472	1268.1861	1306.292	1331.3485	1360.4385	1381.0295	1402.7095	1421.713	1449.588	1490.4117	1493.4331	1510.9083	1662.3892	2996.3744	2999.7865	3042.5553	3076.6545	3114.0925	3130.8787	3156.4004	3183.8377	3218.0833	3798.6661
CC1C=CC2OC12CO	C[C@H]1C=C[C@H]2O[C@@]12CO	
InChI=1S/C7H10O2/c1-5-2-3-6-7(5,4-8)9-6/h2-3,5-6,8H,4H2,1H3	InChI=1S/C7H10O2/c1-5-2-3-6-7(5,4-8)9-6/h2-3,5-6,8H,4H2,1H3/t5-,6+,7-/m0/s1
