25
gdb 122188	3.35674	0.7442	0.70899	1.5333	89.53	-0.2391	0.0801	0.3191	1784.5748	0.227379	-389.490963	-389.480193	-389.479249	-389.527612	39.269	
C	 0.0684979851	 1.5924264606	-0.1489595104	-0.380325
C	-0.0681498002	 0.0753617658	 0.0058776398	-0.164688
C	 0.6772234117	-0.473310851	 1.2276160153	-0.167439
C	 0.5384145144	-1.9925601725	 1.381022172	-0.230693
C	 1.4286588314	-2.6029992464	 2.4675207992	 0.436651
C	 1.1075162512	-2.1064649377	 3.871021398	-0.436972
C	 1.6316995506	-4.1375039993	 2.3383588546	-0.337042
C	 3.0839240188	-3.7809723504	 1.97302801	-0.062458
O	 2.8401948657	-2.3736396254	 2.156296256	-0.322244
H	 1.1189341682	 1.8852922985	-0.2550618157	 0.115409
H	-0.4695040895	 1.9554211574	-1.0304544993	 0.108898
H	-0.3326163553	 2.1176099656	 0.7252123869	 0.111848
H	-1.1314059946	-0.191628056	 0.0765765053	 0.090445
H	 0.307743706	-0.4206217008	-0.8988763617	 0.093807
H	 1.7436829652	-0.2291398293	 1.1492529203	 0.115295
H	 0.3066773241	 0.0336280472	 2.1277049488	 0.090688
H	-0.5066894691	-2.2621765111	 1.5885157909	 0.089299
H	 0.7982307409	-2.4689674638	 0.4267917726	 0.089564
H	 0.0655142837	-2.3250435361	 4.1305136208	 0.111781
H	 1.7561517407	-2.5925159955	 4.6053016392	 0.114148
H	 1.2619752297	-1.0267818243	 3.9493707551	 0.127821
H	 1.5103149984	-4.6942630586	 3.2694601942	 0.104275
H	 1.0471156735	-4.6203676775	 1.5529703058	 0.104167
H	 3.8569544928	-4.1548261704	 2.6555015761	 0.099388
H	 3.3841674265	-4.015856199	 0.9439386161	 0.098378
52.2995	69.5791	90.4026	123.1063	138.0873	220.0875	244.362	271.8351	299.7538	346.6283	364.5051	461.4544	479.3151	692.8059	738.5601	785.5814	789.1639	859.8074	878.5021	907.0623	918.9295	949.0311	971.4603	996.5503	1018.8394	1031.2766	1061.0817	1074.5606	1108.3269	1163.0154	1173.5262	1208.5922	1211.3824	1242.0269	1263.275	1282.6786	1293.4083	1327.9272	1337.1742	1353.2598	1373.8043	1398.7283	1407.4138	1412.4491	1470.0081	1485.0005	1487.1267	1489.872	1498.7489	1499.115	1499.6949	1512.9983	1532.3323	3006.0108	3010.3366	3011.721	3024.1459	3029.0836	3035.3104	3037.2347	3043.6001	3048.0452	3073.996	3074.2385	3095.5417	3100.0713	3105.9676	3117.8157	3128.2403
CCCCC1(C)CCO1	CCCC[C@@]1(C)CCO1	
InChI=1S/C8H16O/c1-3-4-5-8(2)6-7-9-8/h3-7H2,1-2H3	InChI=1S/C8H16O/c1-3-4-5-8(2)6-7-9-8/h3-7H2,1-2H3/t8-/m0/s1
