20
gdb 19019	4.31884	1.5943	1.58836	0.1481	77.92	-0.2299	0.0878	0.3177	935.5881	0.178604	-311.8185	-311.811458	-311.810514	-311.849228	28.87	
C	-0.0543827035	 1.4426203725	 0.0031912325	-0.422217
C	 0.0533285787	-0.0683719549	 0.0351496902	-0.005247
C	 1.4136874139	-0.6603904402	-0.2134598244	-0.06724
C	 0.7933975197	-0.6748089979	 1.1959292745	-0.067241
C	 0.7818419062	-2.2205165093	 1.183962988	-0.022053
C	-0.4663272166	-2.9759148244	 0.6321163763	-0.241123
C	 0.1642722121	-2.9611901297	-0.800943714	-0.241133
C	 1.408669242	-2.2059392572	-0.2404450889	-0.022045
H	 0.8497704914	 1.9119464197	 0.4059368999	 0.114649
H	-0.1904926005	 1.8087813902	-1.0202915596	 0.115836
H	-0.9037453686	 1.792207252	 0.6002570754	 0.115835
H	-0.8259939082	-0.5733427215	-0.3570176636	 0.078139
H	 2.2185895638	-0.042984911	-0.5979944399	 0.075602
H	 1.0489129202	-0.0701695038	 2.0596692329	 0.075602
H	 1.3087576723	-2.6767090632	 2.0226468399	 0.062901
H	-0.5750485838	-3.9824576551	 1.0436536927	 0.095051
H	-1.4238585797	-2.4602935291	 0.7440218655	 0.098365
H	 0.4018100191	-3.9596537418	-1.1763880987	 0.095048
H	-0.4040037899	-2.4364484802	-1.5735792778	 0.098369
H	 2.3863975814	-2.651670225	-0.426224871	 0.0629
196.5163	199.8433	227.6269	256.2142	354.3591	390.6753	520.1788	668.6026	732.1942	739.378	767.0668	843.4556	857.3997	870.7838	886.5307	914.1493	950.3515	958.1767	1008.0735	1012.0656	1045.9277	1048.2225	1073.6769	1100.2491	1112.4972	1147.4962	1164.7603	1202.0568	1207.3207	1227.6676	1246.1754	1254.2932	1290.1559	1292.3345	1301.8757	1328.5096	1416.6073	1426.9788	1475.4786	1493.6587	1496.3874	1502.5496	3026.3088	3054.2413	3060.5053	3089.6206	3090.2654	3092.6194	3100.3741	3102.1932	3117.4221	3133.3918	3155.6681	3166.7551
CC1C2C1C1CCC21	C[C@H]1[C@H]2[C@@H]1[C@H]1CC[C@@H]21	
InChI=1S/C8H12/c1-4-7-5-2-3-6(5)8(4)7/h4-8H,2-3H2,1H3	InChI=1S/C8H12/c1-4-7-5-2-3-6(5)8(4)7/h4-8H,2-3H2,1H3/t4-,5+,6-,7+,8-
