21
gdb 108519	2.63788	1.42069	1.17294	1.6286	77.43	-0.2408	0.0703	0.311	1136.399	0.18362	-424.217655	-424.209086	-424.208141	-424.251064	32.944	
O	-0.0887020101	 1.5029395224	 0.104625889	-0.426591
C	 0.0304977866	 0.0917543967	-0.0211917215	-0.177582
C	-1.3620084463	-0.5008629975	-0.0001304085	 0.359383
C	-2.0767366502	-0.4696799914	 1.3886823083	-0.27937
C	-2.1077435505	-2.0239819562	 1.4184413419	-0.243704
C	-1.4551511081	-2.0658832217	 0.0061890598	 0.060384
O	-2.2995249536	-2.4546291131	-1.0598997678	-0.259481
C	-3.1229838538	-1.3410181502	-1.3976981864	-0.099537
C	-2.2380865745	-0.1013451931	-1.1966192275	-0.275915
H	 0.7954005513	 1.8813554477	 0.1169940883	 0.287803
H	 0.5327269616	-0.1853561656	-0.963246247	 0.085633
H	 0.6269232958	-0.3278497063	 0.8059949518	 0.080877
H	-1.4850616414	 0.0005410656	 2.1771110188	 0.105135
H	-3.0595524975	 0.0087958445	 1.3758675497	 0.097242
H	-1.4913518687	-2.4745406921	 2.2004772182	 0.09885
H	-3.0982186847	-2.4838393122	 1.4541302391	 0.106206
H	-0.5304308105	-2.644125249	-0.0782001505	 0.070058
H	-3.4664170565	-1.480124157	-2.4261145108	 0.1084
H	-4.0104604602	-1.2999983067	-0.7460937497	 0.090763
H	-2.8136575055	 0.809762245	-1.017505369	 0.109928
H	-1.6129057332	 0.0603493301	-2.081232716	 0.101519
66.2984	109.6355	167.8948	215.113	267.6194	327.7688	352.0623	382.334	445.7335	599.9792	639.3702	674.8884	735.4509	821.4998	856.9351	890.5105	934.2347	939.2663	954.0116	975.4944	1003.6943	1023.9195	1043.2097	1072.3723	1099.5324	1149.0887	1178.6197	1196.2162	1209.7006	1215.8628	1234.0668	1250.9364	1260.7823	1277.9691	1285.441	1306.037	1339.3456	1358.6004	1393.9559	1457.8121	1469.7763	1482.5247	1490.6574	1516.7125	1520.9311	2952.2732	2977.6601	2981.8089	3049.3179	3058.0251	3060.8156	3069.0255	3092.1957	3103.8899	3110.8792	3123.1101	3827.049
OCC12CCC1OCC2	OC[C@]12CC[C@H]1OCC2	
InChI=1S/C7H12O2/c8-5-7-2-1-6(7)9-4-3-7/h6,8H,1-5H2	InChI=1S/C7H12O2/c8-5-7-2-1-6(7)9-4-3-7/h6,8H,1-5H2/t6-,7-/m1/s1
