20
gdb 65527	3.67371	1.17165	1.14882	1.6286	78.64	-0.2313	0.0589	0.2902	1168.7304	0.170922	-403.081246	-403.072913	-403.071969	-403.114042	32.941	
O	 0.0765524354	 1.4341026507	 0.1335130185	-0.477204
C	 0.0782193551	 0.0180845364	 0.0794198377	 0.35457
C	 0.1505791334	-0.7466330333	 1.4389352353	-0.236825
N	-1.1917655667	-1.3900501555	 1.2127988379	-0.129221
C	-2.1476280469	-0.271616074	 1.1371518464	-0.248929
C	-1.3308396376	-0.5552605646	-0.0558448316	-0.045781
C	 1.0288040306	-0.5224382629	-0.9718490737	-0.01242
C	 1.192090318	 0.186272666	-2.2900677668	-0.268288
C	 2.3300221989	 0.1674475003	-1.2978859502	-0.302545
H	 0.9311469386	 1.7192942339	 0.4748124826	 0.279698
H	 0.9365060858	-1.50350014	 1.4833322769	 0.109343
H	 0.1915906623	-0.1183060687	 2.3352241906	 0.097684
H	-3.1820068521	-0.6008925448	 1.118835147	 0.119983
H	-1.9590360503	 0.6308029977	 1.7129547548	 0.121823
H	-1.7400764439	-0.9693476591	-0.9716684092	 0.092787
H	 1.049484986	-1.6082673784	-1.0040328249	 0.094731
H	 1.2786157639	-0.4091599841	-3.191762433	 0.111152
H	 0.6645320238	 1.1257694104	-2.4075785542	 0.127397
H	 2.570042296	 1.1028098934	-0.8020994649	 0.096742
H	 3.1956558395	-0.4514691333	-1.5051691292	 0.115307
78.4353	135.235	186.366	260.2443	274.5765	334.0633	374.5331	452.8518	485.0275	524.9374	667.4598	747.3284	777.8274	791.0216	822.4127	834.7404	887.4109	925.2953	950.4314	961.16	987.6145	1054.9243	1056.1859	1068.6711	1071.7131	1086.7253	1102.2551	1111.3417	1132.4644	1145.2067	1193.4112	1198.8878	1218.6859	1232.9826	1257.3986	1283.3364	1313.6844	1374.6147	1418.203	1461.3091	1483.413	1500.9867	1505.2313	3040.4814	3111.0225	3112.6818	3127.8401	3140.2261	3147.4304	3164.8926	3204.5092	3208.4848	3232.4631	3805.3916
OC1(CN2CC12)C1CC1	O[C@]1(CN2C[C@@H]12)C1CC1	
InChI=1S/C7H11NO/c9-7(5-1-2-5)4-8-3-6(7)8/h5-6,9H,1-4H2	InChI=1S/C7H11NO/c9-7(5-1-2-5)4-8-3-6(7)8/h5-6,9H,1-4H2/t6-,7+,8?/m0/s1
