20
gdb 79530	3.03979	1.75881	1.66598	0.8542	76.9	-0.2074	0.0845	0.2919	931.5029	0.174415	-403.128436	-403.121621	-403.120677	-403.159213	28.721	
C	-0.1052604747	 1.5477847399	 0.0391826579	-0.425216
C	 0.0240687654	 0.0278382666	 0.0246804907	 0.01643
C	 0.9694395944	-0.5409246774	-1.0243024248	-0.031178
C	 2.4038901047	-0.2739965304	-0.4780172385	 0.094947
C	 2.6782503499	-1.7522972811	-0.7689076926	-0.186519
N	 1.1972325773	-2.0247569063	-0.6901698969	-0.145355
C	 0.828603458	-2.0751495991	 0.7607105519	-0.187795
C	 0.8497986488	-0.5944730092	 1.1716602937	 0.070774
O	 2.1757608574	-0.0873929853	 0.9294922643	-0.287572
H	 0.8669206963	 2.0237942876	 0.1910288251	 0.134876
H	-0.5253477646	 1.9164308232	-0.9024085501	 0.114643
H	-0.7684298291	 1.8737196673	 0.8469721119	 0.116412
H	-0.962306544	-0.4428923521	-0.0450801326	 0.081542
H	 0.7662953783	-0.3646698583	-2.0796113837	 0.076951
H	 3.060832395	 0.5203444759	-0.8419642127	 0.071814
H	 3.0383761992	-1.9392897297	-1.7862750341	 0.101537
H	 3.2952441159	-2.2991484761	-0.0502802022	 0.104658
H	-0.1694127894	-2.5110822016	 0.8835024645	 0.099619
H	 1.5428552799	-2.6897072729	 1.3139193304	 0.105104
H	 0.5674045813	-0.3542097911	 2.1974935379	 0.074328
185.2517	205.7488	252.8397	351.8591	403.1314	490.2994	532.1437	627.3717	656.5686	748.4004	808.458	810.8841	855.2484	880.7044	889.0009	920.2385	943.6568	965.7817	975.5186	993.354	1007.416	1036.5076	1061.4852	1090.6263	1103.7106	1126.3853	1183.0832	1210.6865	1218.9698	1228.3032	1242.4893	1270.9032	1285.1986	1301.1707	1313.9018	1326.5612	1367.732	1385.2688	1407.489	1484.9093	1495.5442	1502.6009	1505.581	3034.2564	3037.7516	3038.2326	3058.8268	3071.5066	3097.5694	3098.7013	3103.8352	3114.6107	3121.8405	3129.0567
CC1C2C3CN2CC1O3	C[C@H]1[C@H]2[C@@H]3CN2C[C@H]1O3	
InChI=1S/C7H11NO/c1-4-5-2-8-3-6(9-5)7(4)8/h4-7H,2-3H2,1H3	InChI=1S/C7H11NO/c1-4-5-2-8-3-6(9-5)7(4)8/h4-7H,2-3H2,1H3/t4-,5-,6+,7+/m1/s1
