20
gdb 8068	3.41179	1.68444	1.41013	0.84	76.29	-0.2477	0.0991	0.3468	989.6966	0.176707	-348.952387	-348.944243	-348.943298	-348.984766	30.928	
C	 0.0158174114	 1.3291972372	-0.2846845767	-0.240889
O	-0.0683565134	 0.0909376867	 0.3853988507	-0.259405
C	-1.297388669	-0.5535660797	 0.2063660761	 0.160895
C	-1.5646303325	-1.4007962656	-1.0787009285	-0.099904
C	-0.5003822463	-2.4029725989	-0.547455654	-0.256861
C	-1.3605549571	-2.0215446805	 0.7051086941	 0.292035
C	-1.1907209415	-2.5020140567	 2.1212082754	-0.517331
C	-2.6091819768	-2.1654373815	-0.2206752959	-0.260767
H	 0.985142778	 1.7687705508	-0.0374211663	 0.125816
H	-0.0534643953	 1.2120051091	-1.3762120788	 0.108173
H	-0.7793921773	 2.0193514183	 0.0382321192	 0.104205
H	-2.1255630465	 0.1013340838	 0.5209147133	 0.052412
H	-1.6920138745	-1.0460826566	-2.1017676517	 0.066566
H	-0.5929628193	-3.4358304813	-0.8956483276	 0.081725
H	 0.5357694904	-2.0649590478	-0.5445710769	 0.104722
H	-0.2161328139	-2.1986853842	 2.5175664049	 0.129439
H	-1.9646759965	-2.0849419394	 2.7752737131	 0.11532
H	-1.2549119527	-3.5939957875	 2.1785165348	 0.116399
H	-3.5113502898	-1.6202101041	 0.0756271464	 0.084949
H	-2.8458322973	-3.1804121022	-0.5484308815	 0.092504
85.3336	156.9324	180.0138	202.9042	266.4948	287.3818	359.0447	460.3274	535.8897	592.3011	640.4783	762.459	817.0736	895.5742	904.0952	910.9532	955.4737	1009.6386	1018.9186	1021.1818	1060.5604	1091.7125	1096.1358	1143.4554	1165.1449	1182.8025	1188.1886	1203.4673	1219.757	1229.4884	1241.6255	1255.4174	1335.8267	1406.0328	1413.4103	1480.9934	1487.9899	1488.5986	1491.0998	1493.801	1508.9647	1537.2429	2972.4983	2981.4986	3025.7055	3027.6903	3044.0031	3058.3464	3093.1351	3100.824	3108.3357	3113.9425	3114.2203	3141.013
COC1C2CC1(C)C2	CO[C@H]1[C@H]2C[C@]1(C)C2	
InChI=1S/C7H12O/c1-7-3-5(4-7)6(7)8-2/h5-6H,3-4H2,1-2H3	InChI=1S/C7H12O/c1-7-3-5(4-7)6(7)8-2/h5-6H,3-4H2,1-2H3/t5-,6-,7+/m0/s1
