17
gdb 80341	2.17255	1.52926	1.35145	5.4271	72.7	-0.2331	0.0011	0.2342	1055.4286	0.135069	-417.964131	-417.955295	-417.954351	-417.997387	32.816	
C	-0.0608111419	 1.5757445736	-0.0749778382	-0.426214
C	 0.0322102769	 0.07211492	 0.067125162	-0.068024
C	 1.274419489	-0.7323403643	-0.178481588	 0.021118
O	 2.4391353189	-0.0255084047	 0.2752296771	-0.286164
C	 1.9759385918	-0.0860246266	 1.6453480565	-0.031752
C	 1.9933401265	 1.1945589614	 2.3556053169	 0.280579
N	 2.0005577308	 2.1887004262	 2.9452136193	-0.327486
C	 0.6376958187	-0.7112809511	 1.2170603739	 0.223368
N	-0.0664443578	-1.6083178813	 2.051560454	-0.606089
H	 0.9040850592	 2.0535107883	 0.1019448046	 0.152839
H	-0.3790470892	 1.8334224021	-1.0903492479	 0.119762
H	-0.7856816192	 2.0006726724	 0.6256961377	 0.129892
H	-0.8436381535	-0.4675805997	-0.2958623561	 0.09166
H	 1.4190577922	-1.5008586841	-0.928437465	 0.112065
H	 2.5799914644	-0.8058901918	 2.2120872081	 0.128517
H	-1.0588357737	-1.6311176388	 1.8622776866	 0.244428
H	 0.301455007	-2.5521259217	 2.0390336884	 0.241502
114.3433	127.358	170.757	184.8335	225.9443	270.0884	302.916	348.7448	432.1786	524.3444	562.4256	591.5058	668.7655	726.6552	763.0783	771.6882	913.9393	937.8558	958.8722	980.158	995.8165	1048.7526	1083.7529	1106.4554	1128.7314	1190.08	1217.6832	1260.0264	1322.4487	1332.3972	1355.5351	1416.6343	1473.1337	1494.3737	1503.7144	1654.5494	2353.107	3032.6975	3044.3647	3103.0879	3106.4957	3141.8684	3189.5091	3530.3796	3626.5363
CC1C2OC(C#N)C12N	C[C@H]1[C@H]2O[C@@H](C#N)[C@@]12N	
InChI=1S/C6H8N2O/c1-3-5-6(3,8)4(2-7)9-5/h3-5H,8H2,1H3	InChI=1S/C6H8N2O/c1-3-5-6(3,8)4(2-7)9-5/h3-5H,8H2,1H3/t3-,4-,5+,6-/m0/s1
