18
gdb 6148	4.23613	1.34851	1.27231	2.1651	68.15	-0.2414	-0.0295	0.2119	1028.0723	0.150737	-384.942701	-384.933964	-384.93302	-384.97655	31.458	
C	-0.3962237248	 1.5769326851	-0.114316298	-0.428054
C	 0.0485258507	 0.1225497679	-0.1052257626	 0.431977
C	-1.1207591133	-0.8449325189	 0.0033653694	-0.424046
C	 1.1316098813	-0.2525189516	-1.1541319212	-0.346971
C	 2.0360453567	-0.4911363854	 0.0631196663	 0.055183
O	 1.0036483716	-0.105406242	 0.9903730887	-0.340701
C	 2.4762629979	-1.9185859994	 0.3256958074	 0.1329
O	 2.7275290951	-2.7239501792	-0.5329809726	-0.23854
H	 0.4668499645	 2.2469269764	-0.1612255499	 0.118621
H	-1.0393436709	 1.7786022719	-0.9777907931	 0.118197
H	-0.9600102192	 1.8088262528	 0.7948734157	 0.126018
H	-1.7983378164	-0.7270746319	-0.8491784552	 0.118874
H	-0.7699728364	-1.8807072984	 0.022962831	 0.122698
H	-1.6873265719	-0.6572887007	 0.9209637324	 0.125605
H	 0.9356825285	-1.14670761	-1.7474766998	 0.127758
H	 1.4394399667	 0.562411786	-1.8100795957	 0.110506
H	 2.9208340209	 0.1600084221	 0.1410446306	 0.099554
H	 2.5354555788	-2.1677167348	 1.4093106166	 0.09042
38.4751	80.8397	173.9424	206.0599	248.9823	302.2697	334.9193	358.7256	401.8407	466.7329	581.1346	657.67	784.9569	854.1245	891.5423	900.4563	932.4259	974.5699	985.1866	1025.8002	1041.832	1076.7525	1130.0416	1170.3405	1237.7639	1266.3401	1285.2413	1290.442	1353.9464	1401.7684	1402.8386	1415.2247	1473.9147	1480.2041	1492.9163	1496.4132	1506.4315	1831.5495	2886.2158	2982.6519	3031.6607	3037.3568	3087.4541	3102.9691	3110.0895	3112.8504	3115.8299	3144.196
CC1(C)CC(O1)C=O	CC1(C)C[C@@H](O1)C=O	
InChI=1S/C6H10O2/c1-6(2)3-5(4-7)8-6/h4-5H,3H2,1-2H3	InChI=1S/C6H10O2/c1-6(2)3-5(4-7)8-6/h4-5H,3H2,1-2H3/t5-/m1/s1
