13
gdb 127963	3.95186	1.25049	0.95909	2.4227	68.41	-0.2725	-0.0974	0.1751	1142.9228	0.088738	-486.05519	-486.047296	-486.046352	-486.088734	27.555	
C	-0.3220263897	 1.4307203215	-0.1038912064	-0.332427
N	-0.0565868695	 0.0079146729	-0.0343233064	-0.257132
C	 0.8074891155	-0.5272326883	-0.7670257236	 0.480122
O	 1.0176117216	-1.8953936623	-0.5702176937	-0.234578
C	 1.7351868382	-2.6239935532	-1.4528299674	 0.514073
O	 1.8892563371	-3.8030229415	-1.3500702532	-0.34113
N	 2.2794072208	-1.860168283	-2.4790417059	-0.308439
N	 2.2987200059	-0.5003188213	-2.5405565282	-0.017301
N	 1.5997856216	 0.1445445193	-1.7267171893	-0.232222
H	 0.3245717432	 1.9795931189	-0.7944210735	 0.144893
H	-1.3682412086	 1.5710261506	-0.3973013609	 0.142979
H	-0.2213706139	 1.846501961	 0.9042060587	 0.142799
H	 2.8999711677	-2.3187907147	-3.1290872203	 0.298362
39.8177	115.473	136.727	226.3198	258.1494	394.6673	408.9873	498.5029	566.8113	612.9789	630.3634	740.2121	752.5712	767.1054	951.0258	985.1079	1026.7388	1109.1983	1133.4024	1154.2524	1180.4348	1293.4493	1415.9452	1436.6934	1489.8458	1491.6566	1606.143	1760.8824	1893.4886	3029.1927	3089.0537	3113.1998	3642.99
CN=C1OC(=O)NN=N1	C[N]c1oc(=O)[nH]nn1	
InChI=1S/C3H4N4O2/c1-4-2-5-7-6-3(8)9-2/h1H3,(H,4,5,6,8)	InChI=1S/C3H7N4O2/c1-4-2-5-7-6-3(8)9-2/h2,5,7H,1H3,(H,6,8)
