21
gdb 87816	2.57873	1.52412	1.1993	1.1213	83.29	-0.2311	0.0774	0.3085	1123.5591	0.181654	-387.043475	-387.034648	-387.033704	-387.07632	34.981	
C	-0.0769197154	 1.5705533311	 0.1436383952	-0.484757
C	 0.0309622084	 0.0755336758	 0.0363855089	 0.291821
C	-0.8748770488	-0.8669678359	 0.7904258147	-0.322149
C	 0.609616324	-0.9462387712	 1.0272140359	-0.090713
C	 1.2847922684	-1.7190950278	-0.1122176115	-0.318802
C	 0.6698766235	-0.710018832	-1.1052419736	 0.312661
C	 0.0974571268	-0.9876109844	-2.4775273467	-0.398173
C	 1.3604829788	-0.1712895045	-2.3126745073	 0.015236
O	 1.3191602016	 1.2116934507	-2.5262629522	-0.42246
H	 0.8783470401	 2.0578754132	-0.067164718	 0.131512
H	-0.8082163465	 1.9708613421	-0.5673990909	 0.114493
H	-0.4005169018	 1.8553629664	 1.1507352855	 0.103004
H	-1.4488242395	-0.4079340254	 1.5901161213	 0.103914
H	-1.3933843635	-1.6732072729	 0.2756491168	 0.100276
H	 1.0440682694	-0.7660851847	 2.0034107781	 0.08212
H	 2.376796558	-1.6590655212	-0.0867762265	 0.103226
H	 0.9898610502	-2.7688234938	-0.2257529606	 0.09176
H	 0.1707494208	-1.9906375669	-2.8868328612	 0.107021
H	-0.7980990221	-0.4411669277	-2.7588521015	 0.111306
H	 2.304882036	-0.643524018	-2.5912386959	 0.081711
H	 1.2055349815	 1.3607660169	-3.4708113504	 0.286992
111.6375	159.6376	187.8644	227.1435	270.7456	299.2795	309.5926	390.0866	415.8409	446.0311	555.6441	579.607	632.498	773.0834	797.4793	839.4875	867.7207	878.3046	900.8624	955.1532	971.7473	1012.1363	1015.1732	1031.8051	1043.8498	1082.3322	1092.8026	1108.145	1120.7332	1165.2528	1172.0393	1180.0684	1245.7088	1265.6427	1272.0555	1299.8934	1354.8659	1388.5362	1421.9996	1425.0551	1480.5009	1482.7881	1490.3401	1495.2002	1503.5985	3028.8869	3030.1732	3073.8588	3086.0672	3088.0813	3100.2415	3114.4908	3116.877	3176.7176	3192.0517	3206.0388	3803.2328
CC12CC1CC21CC1O	C[C@]12C[C@H]1C[C@]12C[C@H]1O	
InChI=1S/C8H12O/c1-7-2-5(7)3-8(7)4-6(8)9/h5-6,9H,2-4H2,1H3	InChI=1S/C8H12O/c1-7-2-5(7)3-8(7)4-6(8)9/h5-6,9H,2-4H2,1H3/t5-,6+,7-,8-/m0/s1
