16
gdb 68561	2.59842	1.63278	1.37437	2.3983	72.48	-0.257	-0.0239	0.233	984.8202	0.123861	-400.718906	-400.711286	-400.710342	-400.750807	29.628	
C	 0.0077830293	 1.5130020472	-0.0612399387	-0.515434
C	-0.0160616825	 0.0160662895	 0.0275975154	 0.368362
O	 0.3418840377	-0.7086165611	-1.2002697867	-0.309496
C	-0.2604973622	-1.8481605383	-0.5186365102	 0.00671
C	 0.6610393093	-2.0132207731	 0.7042189141	-0.080687
C	 0.8274396167	-0.7452000728	 1.0776089522	-0.11724
C	-1.3426954029	-0.8478408867	 0.0167470876	-0.200591
C	-2.0826893772	-1.1091493875	 1.2397140088	 0.271595
N	-2.6830260269	-1.3059821144	 2.2079094317	-0.327245
H	 1.0294382359	 1.8631356135	-0.2375804827	 0.143344
H	-0.6243586395	 1.8656191374	-0.8799750975	 0.136835
H	-0.350366093	 1.9534619481	 0.8742632548	 0.140869
H	-0.504670232	-2.6929817598	-1.1589621672	 0.100123
H	 1.0344188345	-2.9360879565	 1.1209011751	 0.12704
H	 1.3822752811	-0.3074223089	 1.8939645503	 0.124051
H	-2.0128963083	-0.5217447566	-0.7823058473	 0.131765
125.9059	149.476	193.2856	282.9466	299.9401	400.5264	458.2275	537.2768	592.6134	604.601	630.5037	727.9336	782.6831	811.1112	834.8522	859.207	895.9	913.3809	924.3662	963.2424	1051.1172	1064.0883	1105.5952	1119.5057	1185.6961	1225.8577	1260.2239	1277.9447	1320.145	1363.8488	1417.7258	1478.8955	1490.2398	1622.8359	2354.9941	3045.08	3094.0388	3117.1722	3126.7554	3153.4092	3239.173	3266.4035
CC12OC(C=C1)C2C#N	C[C@@]12O[C@@H](C=C1)[C@H]2C#N	
InChI=1S/C7H7NO/c1-7-3-2-6(9-7)5(7)4-8/h2-3,5-6H,1H3	InChI=1S/C7H7NO/c1-7-3-2-6(9-7)5(7)4-8/h2-3,5-6H,1H3/t5-,6+,7-/m1/s1
