18
gdb 104272	2.2954	1.31938	1.0919	1.3911	74.14	-0.2335	0.0326	0.2661	1179.1423	0.145836	-439.014539	-439.005153	-439.004209	-439.048469	35.304	
O	-0.1299786423	 1.4963177826	-0.1031050097	-0.440956
C	-0.0407350808	 0.0917342346	-0.3459591345	-0.143673
C	-1.4049492321	-0.4766474467	 0.0161691477	 0.399807
O	-1.7583155909	-0.1097880794	 1.319131901	-0.484784
C	-2.4784668138	-0.2967373	-1.0972770498	-0.228967
N	-2.1502561498	-1.6607586266	-1.5802114659	-0.316241
C	-1.5507333742	-2.0064018733	-0.2624432353	-0.227547
C	-0.3785397412	-2.8657028192	-0.2851494365	 0.348488
C	 0.59461824	-3.5722922488	-0.2891869073	-0.446857
H	 0.7566699451	 1.8664068245	-0.1160045493	 0.296632
H	 0.1961700824	-0.1285350999	-1.3943651787	 0.117386
H	 0.723158615	-0.3731072551	 0.2915511731	 0.106526
H	-1.4103375628	 0.7840259134	 1.4429278093	 0.288154
H	-3.471622227	-0.1937028564	-0.6417352188	 0.098372
H	-2.3254757897	 0.4963438109	-1.8351126959	 0.109414
H	-2.9429848167	-2.2358792395	-1.8435647082	 0.223754
H	-2.2787565174	-2.3964960946	 0.4641386461	 0.105121
H	 1.4498460061	-4.2017621266	-0.2993759673	 0.195373
98.3393	113.6247	129.2345	191.3094	251.0958	260.2632	322.5985	359.3665	393.4762	450.5735	487.5885	538.1859	585.0656	619.9026	652.1737	660.7116	742.7942	872.6555	910.5615	947.6748	997.6713	1014.0147	1049.0346	1063.4864	1095.0021	1124.1683	1158.9942	1188.5344	1218.5129	1260.0183	1274.8598	1330.7024	1354.795	1380.4768	1411.2782	1452.8375	1508.8559	1516.9689	2231.9314	2993.741	3010.5931	3018.5629	3059.304	3083.3684	3501.9111	3528.986	3753.1893	3845.7467
OCC1(O)CNC1C#C	OC[C@@]1(O)CN[C@H]1C#C	
InChI=1S/C6H9NO2/c1-2-5-6(9,4-8)3-7-5/h1,5,7-9H,3-4H2	InChI=1S/C6H9NO2/c1-2-5-6(9,4-8)3-7-5/h1,5,7-9H,3-4H2/t5-,6-/m0/s1
