18
gdb 59919	3.51277	0.86908	0.72035	6.699	71.56	-0.2407	-0.0244	0.2162	1535.4356	0.145586	-476.276319	-476.266434	-476.26549	-476.311894	34.813	
C	 0.3703720694	 1.3038663155	 0.3432429786	-0.402241
C	-0.0741856973	-0.1543416196	 0.4030052149	 0.098613
O	-0.5054787578	-0.4998290633	 1.730944637	-0.422776
C	-1.1589828029	-0.4708146801	-0.6416745255	-0.313974
C	-1.5020120912	-1.9497478665	-0.8578958495	 0.392934
O	-1.6947837534	-2.4067106258	-1.9557442003	-0.304937
N	-1.5901289556	-2.6859555317	 0.3283581011	-0.346112
C	-1.9173460231	-4.0295314773	 0.472024801	 0.162662
O	-2.2195868757	-4.7982776495	-0.3987842041	-0.256899
H	 1.1135806519	 1.5040684125	 1.1194997852	 0.134289
H	 0.8103515593	 1.5398366503	-0.6298888243	 0.134901
H	-0.4814106321	 1.9786442954	 0.4956891276	 0.115273
H	 0.7923542283	-0.8023881627	 0.2295192448	 0.114119
H	-1.1563169602	 0.1557837976	 2.0089173164	 0.287431
H	-2.0824732978	 0.0567451587	-0.3618650123	 0.11881
H	-0.8629404692	-0.090990708	-1.6222539619	 0.1392
H	-1.3479833028	-2.1754559453	 1.1737164723	 0.266873
H	-1.8668270599	-4.3156825204	 1.543228569	 0.081834
50.7195	76.1541	119.5063	156.2799	217.6529	235.1669	245.9398	288.465	346.0954	381.113	443.6856	483.9566	529.7211	654.2152	774.8575	826.2891	847.7008	901.8026	943.7838	953.7228	1031.8605	1045.3885	1070.6943	1139.7044	1143.773	1182.5882	1246.1268	1300.8839	1317.4982	1378.3094	1407.2773	1419.8855	1448.4489	1454.2595	1491.6772	1494.624	1547.5131	1806.2342	1868.1332	2915.9949	3014.2922	3027.7499	3055.8387	3101.2918	3112.9696	3126.6764	3490.0037	3788.4811
CC(O)CC(=O)NC=O	C[C@@H](O)CC(=O)NC=O	
InChI=1S/C5H9NO3/c1-4(8)2-5(9)6-3-7/h3-4,8H,2H2,1H3,(H,6,7,9)	InChI=1S/C5H9NO3/c1-4(8)2-5(9)6-3-7/h3-4,8H,2H2,1H3,(H,6,7,9)/t4-/m1/s1
