19
gdb 91388	2.88157	1.43816	1.19768	1.7264	70.85	-0.2489	0.0692	0.3181	1096.3791	0.159404	-460.156883	-460.148693	-460.147749	-460.190248	31.473	
C	-0.0207818731	 1.53670602	-0.3968480662	-0.405131
C	 0.0556025659	 0.0619620599	-0.0771648545	 0.224483
O	 0.4283387288	-0.6809930441	-1.222718282	-0.272528
C	 1.1887720993	-1.7960555937	-0.7776654589	 0.085241
C	 2.7098157483	-1.6958174629	-1.0809448089	-0.287093
C	 3.0018257449	-1.6038135424	 0.4535316435	 0.128563
O	 3.7562982424	-0.531723215	 0.9366282625	-0.432937
C	 1.4683663684	-1.5331669984	 0.7254832578	 0.034292
O	 1.0586990255	-0.1840973252	 0.9018313531	-0.286869
H	 0.9462448304	 1.8854285397	-0.7679210685	 0.128908
H	-0.7791050806	 1.7094698988	-1.1643381833	 0.134806
H	-0.2910687647	 2.1014684174	 0.4988530215	 0.130949
H	-0.9097900255	-0.3138826483	 0.3068133779	 0.070155
H	 0.6965819704	-2.7341131044	-1.0474870102	 0.080783
H	 3.1563390743	-2.549759106	-1.5946989526	 0.104518
H	 2.953954845	-0.7795207597	-1.6214170951	 0.112061
H	 3.4452466195	-2.5243496954	 0.8437678828	 0.088304
H	 3.1593581308	 0.2291076823	 0.9376379478	 0.286689
H	 1.0348103399	-2.1860634924	 1.4899082332	 0.074809
44.5162	92.4155	209.7043	256.0223	312.1786	388.9489	393.4711	454.0121	499.2264	551.2666	647.4552	689.5253	727.2752	823.9281	850.3278	887.6229	900.6877	922.9155	937.5326	1033.574	1049.5396	1091.3905	1116.2318	1125.6115	1135.922	1158.1379	1168.5156	1182.599	1247.2118	1276.2215	1281.6232	1317.294	1331.4045	1348.6343	1381.4002	1396.0467	1435.0138	1446.054	1462.6097	1485.2023	1485.8528	2941.4909	3048.3472	3054.4656	3069.2758	3069.88	3078.9397	3136.5793	3136.7999	3137.7921	3751.79
CC1OC2CC(O)C2O1	C[C@H]1O[C@H]2C[C@@H](O)[C@H]2O1	
InChI=1S/C6H10O3/c1-3-8-5-2-4(7)6(5)9-3/h3-7H,2H2,1H3	InChI=1S/C6H10O3/c1-3-8-5-2-4(7)6(5)9-3/h3-7H,2H2,1H3/t3-,4+,5-,6+/m0/s1
