16
gdb 73534	2.66305	2.11797	1.39388	3.0626	68.43	-0.2304	-0.0299	0.2006	900.8066	0.124433	-437.7915	-437.784613	-437.783669	-437.822272	28.407	
O	 0.0373429508	 1.3284725919	 0.0681910667	-0.461554
C	 0.0345534241	-0.0669892818	-0.0130784893	 0.379628
C	 1.0740333696	-0.687474399	-0.980732143	-0.299935
C	 0.3727770011	-1.7707463238	-1.872331248	-0.168763
N	-0.1427935495	-2.7414360569	-0.8886181953	-0.216685
C	-0.8884287904	-2.1182383524	-0.0905967268	 0.302027
O	-0.7358062626	-2.1662173978	 1.2981798451	-0.262179
C	-0.7303237605	-0.7072795866	 1.2285101975	 0.009888
C	-1.3396073818	-0.6542059467	-0.1186511761	-0.287914
H	 0.8642394936	 1.6021766813	 0.4805227874	 0.292266
H	 1.4681086268	 0.1303072406	-1.5955761726	 0.107376
H	 1.9118490184	-1.1562245802	-0.4566316586	 0.126159
H	-0.4020047598	-1.2942103422	-2.4891337938	 0.111698
H	 1.0816996797	-2.2682219339	-2.5367662767	 0.114872
H	-0.9233898572	-0.1619764672	 2.143097267	 0.127267
H	-2.238312792	-0.2025210652	-0.5152960936	 0.125849
186.0804	287.4928	306.5135	331.0549	378.1486	416.5619	474.1563	519.9113	549.0521	655.8675	710.8662	757.3294	828.7556	847.8349	876.6174	902.4662	908.341	923.9846	1006.6573	1030.1136	1039.8341	1082.5087	1105.1317	1118.4284	1175.0499	1201.83	1236.3959	1257.5752	1276.0478	1305.6416	1340.8467	1402.4074	1474.919	1500.2055	1725.0974	3008.5014	3041.2168	3096.3098	3111.3081	3205.5188	3217.0423	3800.3212
OC12CCN=C3OC1C23	O[C@@]12CC[N][C]3O[C@@H]1[C@@H]23	
InChI=1S/C6H7NO2/c8-6-1-2-7-5-3(6)4(6)9-5/h3-4,8H,1-2H2	InChI=1S/C6H7NO2/c8-6-1-2-7-5-3(6)4(6)9-5/h3-4,8H,1-2H2/t3-,4-,6-/m1/s1
