17
gdb 127445	3.89963	1.09853	0.8664	3.3847	87.19	-0.2205	0.0015	0.2219	1316.4627	0.135172	-380.871406	-380.862262	-380.861318	-380.905547	32.96	
C	 0.0096062335	 1.3724928174	-0.0464805875	-0.328661
N	 0.0157986501	-0.0729562279	 0.0332689246	-0.013572
N	 0.006462828	-0.7952945507	-1.1015517678	-0.329184
C	 0.0155884721	-2.0719160946	-0.6926873573	 0.208033
C	 0.0310302701	-2.1517464118	 0.7216402341	-0.407415
C	 0.0306831897	-0.8443580168	 1.1590201216	 0.37802
C	 0.0435086829	-0.2663824393	 2.5353001047	-0.510283
C	 0.0097580565	-3.1467376504	-1.6172281134	 0.268148
C	 0.005240239	-4.0841479831	-2.3721524877	-0.427346
H	 0.903260146	 1.7960992246	 0.4231385308	 0.139466
H	-0.0026451746	 1.6364997475	-1.1028673918	 0.168557
H	-0.8769433523	 1.7895165784	 0.4421144171	 0.139471
H	 0.0408142639	-3.0426931144	 1.3277438421	 0.109895
H	 0.9282350257	 0.3570359731	 2.7109017393	 0.137291
H	-0.8377043969	 0.3571132005	 2.7273247032	 0.137189
H	 0.050373354	-1.069750542	 3.2744199388	 0.144135
H	 0.0011266223	-4.9032619607	-3.0472394107	 0.186257
66.8317	119.8042	134.0534	141.7587	207.2366	262.4647	275.1528	398.0806	477.8838	531.3245	568.3568	575.4418	645.8624	649.8375	659.2261	728.4171	794.8814	814.6912	996.4961	1028.9608	1062.6405	1067.7486	1148.1738	1160.1162	1205.4781	1329.2024	1381.4757	1417.9019	1437.8592	1454.1177	1468.3402	1478.7313	1490.4741	1499.4323	1512.948	1591.3535	2238.3847	3026.8657	3038.0196	3074.8761	3095.387	3131.2227	3170.0816	3269.7957	3506.1627
CN1N=C(C=C1C)C#C	Cn1nc(cc1C)C#C	
InChI=1S/C7H8N2/c1-4-7-5-6(2)9(3)8-7/h1,5H,2-3H3	InChI=1S/C7H8N2/c1-4-7-5-6(2)9(3)8-7/h1,5H,2-3H3
