19
gdb 116913	4.65489	0.55575	0.54054	2.5024	82.9	-0.2311	0.0417	0.2728	2062.9842	0.156629	-422.973602	-422.963257	-422.962313	-423.010549	36.733	
O	-0.1129265202	 1.4167192588	 0.1456764403	-0.414686
C	-0.0967403752	 0.0135271883	 0.3425988577	-0.061428
C	-1.2620897097	-0.5646036972	-0.4681399641	-0.327677
C	-1.3675048125	-2.0129719319	-0.3562483357	-0.019113
C	-1.449568	-3.211334043	-0.2498010129	 0.09756
C	-1.5035890143	-4.6473123618	-0.1500205609	 0.232633
O	-0.9149598415	-5.3525146546	-1.2143971785	-0.444485
C	-1.4484660541	-5.2966547328	 1.2248954169	-0.312974
C	-2.7233051526	-5.3233771427	 0.4189227021	-0.289453
H	 0.6096683671	 1.8018486275	 0.6494444516	 0.289257
H	 0.8464164495	-0.4365717914	-0.0019815202	 0.095481
H	-0.2227124482	-0.2519536737	 1.4029583283	 0.096643
H	-2.1898763628	-0.0872496308	-0.1292146589	 0.138761
H	-1.1330412894	-0.2724330664	-1.5175659278	 0.139636
H	 0.0101261942	-5.0857436692	-1.2599462748	 0.28274
H	-0.8768448653	-6.215798549	 1.2854228704	 0.120102
H	-1.3946277707	-4.6518547142	 2.0941547631	 0.120425
H	-3.5509200374	-4.6975918013	 0.7291845494	 0.126343
H	-2.9974046768	-6.2579792747	-0.0565932158	 0.130234
25.3216	71.2532	74.5627	131.6198	189.8611	239.3277	285.8493	306.7089	344.5882	359.2926	399.9788	468.7669	555.2924	573.1666	649.9635	777.187	791.7264	870.9215	890.4227	924.6378	984.9328	1000.5169	1053.4866	1076.5008	1081.1566	1082.591	1086.9248	1194.4001	1221.5466	1237.0968	1238.8861	1303.7375	1304.3827	1336.2358	1383.9701	1449.1516	1454.5445	1473.7632	1487.9787	1527.6672	2357.2802	2981.8587	3012.3123	3030.0278	3067.1745	3139.0388	3147.2794	3229.7336	3245.2315	3797.5877	3834.5524
OCCC#CC1(O)CC1	OCCC#CC1(O)CC1	
InChI=1S/C7H10O2/c8-6-2-1-3-7(9)4-5-7/h8-9H,2,4-6H2	InChI=1S/C7H10O2/c8-6-2-1-3-7(9)4-5-7/h8-9H,2,4-6H2
