22
gdb 14795	12.64265	0.54795	0.53575	0.2111	77.41	-0.2495	0.0868	0.3363	2128.0888	0.197579	-387.32419	-387.313471	-387.312527	-387.361213	35.753	
C	-0.2645913426	 1.7695510655	-0.3875972779	-0.382345
C	-0.1390259805	 0.2475711037	-0.4888353477	-0.182807
C	-1.2777626994	-0.4777443137	 0.2143704672	-0.026552
O	-1.0884543026	-1.8699416283	 0.0752238549	-0.250732
C	-2.0953394047	-2.6348469785	 0.6946743778	-0.069065
C	-1.7682106298	-4.1027066721	 0.4674619229	-0.068334
O	-2.7761182271	-4.8669956943	 1.0876510824	-0.232517
C	-2.5794779735	-6.2522123904	 0.9438120652	-0.224271
H	 0.5639709575	 2.2670476801	-0.8997153963	 0.117075
H	-1.1962273019	 2.1250479636	-0.8416320868	 0.11634
H	-0.2572079992	 2.1028864903	 0.656099327	 0.116342
H	-0.1243419233	-0.064044036	-1.539585881	 0.106055
H	 0.8088671089	-0.0860603943	-0.0511255302	 0.10606
H	-1.3072929083	-0.2011396027	 1.283106933	 0.082868
H	-2.2487670997	-0.1790673739	-0.2186687626	 0.082869
H	-2.1447821596	-2.4301793773	 1.776567239	 0.093906
H	-3.0876128359	-2.4073652562	 0.2722290186	 0.093906
H	-1.7194586101	-4.3091701122	-0.6142469739	 0.093711
H	-0.7763918441	-4.3318228685	 0.8904365585	 0.093705
H	-3.4052401071	-6.7555138094	 1.4527554091	 0.126001
H	-2.5755084279	-6.557220774	-0.1148706345	 0.103889
H	-1.6300422792	-6.5799683216	 1.3965851253	 0.103893
41.7605	66.7993	83.2633	99.8558	136.5352	152.1584	209.0344	234.0762	238.0015	297.0725	357.4839	499.7868	511.1098	765.1212	834.2987	901.4155	910.29	983.934	1027.3549	1059.9523	1085.1267	1154.0466	1159.8236	1168.958	1178.0457	1185.5288	1200.934	1234.0505	1234.5652	1271.3431	1290.9056	1314.7981	1330.6735	1361.3823	1412.6615	1422.6867	1460.5073	1483.5179	1485.1304	1491.7197	1501.125	1504.7029	1507.0393	1517.7761	1533.2255	1539.9648	2942.3844	2960.8333	2967.9252	2969.2371	2974.4522	2985.6324	3011.2669	3013.5501	3031.8881	3038.3149	3071.0643	3099.8384	3108.3427	3112.8786
CCCOCCOC	CCCOCCOC	
InChI=1S/C6H14O2/c1-3-4-8-6-5-7-2/h3-6H2,1-2H3	InChI=1S/C6H14O2/c1-3-4-8-6-5-7-2/h3-6H2,1-2H3
