20
gdb 119642	4.42966	1.0287	0.97989	0.9918	79.06	-0.2419	0.0679	0.3098	1289.114	0.171247	-403.078063	-403.069694	-403.06875	-403.111737	31.372	
C	-0.0386858546	 1.3820589487	-0.003844092	-0.218304
O	-0.019488121	-0.0257285726	-0.01735181	-0.242305
C	-1.3114423465	-0.5938255061	 0.0306325866	-0.186208
C	-1.1563916124	-2.0864151475	 0.0111537854	 0.347307
C	-0.6804258095	-2.8455989735	-1.2464974743	-0.27175
C	-1.595741668	-3.9416218715	-0.7355892429	-0.039632
C	-1.5345666557	-3.954774402	 0.7585943647	-0.03963
C	-0.5797890207	-2.867227008	 1.2121800482	-0.271752
N	-2.443304659	-2.9811281894	 0.0559707012	-0.204824
H	 0.9984107144	 1.723826821	-0.0433547305	 0.127619
H	-0.5821993491	 1.7912201518	-0.870153028	 0.10541
H	-0.5090300493	 1.7751159989	 0.9113563065	 0.10541
H	-1.8466732191	-0.2826107478	 0.9441135014	 0.092336
H	-1.9194422996	-0.2670143771	-0.8303607975	 0.092339
H	-1.0808454376	-2.3910911066	-2.1568293357	 0.107074
H	 0.3899061807	-3.0391023532	-1.3648422472	 0.101547
H	-2.0516833046	-4.7502958653	-1.2959323223	 0.093374
H	-1.9437646357	-4.7735095713	 1.3400158102	 0.093372
H	 0.4964951355	-3.0620046148	 1.2392475102	 0.101545
H	-0.9041574081	-2.4290647233	 2.160028666	 0.107073
55.0104	89.0686	124.4297	218.8833	320.7318	330.0308	340.4614	436.7214	439.911	714.3578	731.8779	780.0693	804.0568	822.018	895.2135	908.6064	961.1998	998.0552	999.5433	1019.3934	1021.8645	1033.6345	1076.7607	1100.6002	1111.5366	1156.2156	1161.8859	1173.6287	1201.9723	1224.2573	1243.2636	1246.7349	1273.9363	1334.125	1341.8327	1375.6468	1423.8467	1480.1143	1484.1246	1486.5443	1501.7646	1505.1342	1523.1895	2950.0372	2972.2095	2981.1012	3015.1492	3046.1176	3051.5836	3103.5977	3106.3181	3114.4222	3171.9463	3183.8524
COCC12CC3C(C1)N23	COC[C@@]12C[C@H]3[C@@H](C1)N23	
InChI=1S/C7H11NO/c1-9-4-7-2-5-6(3-7)8(5)7/h5-6H,2-4H2,1H3	InChI=1S/C7H11NO/c1-9-4-7-2-5-6(3-7)8(5)7/h5-6H,2-4H2,1H3/t5-,6+,7+,8?
