19
gdb 61791	3.58746	0.74633	0.72083	1.675	73.31	-0.2482	-0.0348	0.2134	1592.2458	0.154575	-460.175784	-460.165028	-460.164084	-460.213242	36.625	
C	 0.1303072515	 1.5781658921	 0.0874326964	-0.434258
C	 0.0100612056	 0.0449886604	 0.0144041765	-0.064242
C	 0.7663042424	-0.563592611	 1.1845548948	 0.14599
O	 1.8049537461	-1.1647213075	 1.0839219149	-0.248737
C	-1.4580703114	-0.4541075628	 0.0388861325	 0.093971
O	-2.1704450741	 0.0277304083	 1.1727885936	-0.429722
C	-2.2188678098	-0.1525106412	-1.2607190702	-0.320903
C	-3.6400217739	-0.6764928504	-1.1902978889	 0.168854
O	-4.6196832203	-0.0162706279	-1.4145683835	-0.235433
H	 1.1797206626	 1.8800523865	 0.0362307535	 0.143032
H	-0.3941327814	 2.0630713777	-0.7411282654	 0.130431
H	-0.2796942022	 1.9634278439	 1.0268875015	 0.128045
H	 0.49280546	-0.3213326938	-0.8980886011	 0.096359
H	 0.281417043	-0.4038640509	 2.1727109999	 0.095007
H	-1.440986223	-1.5434195181	 0.1753296362	 0.106452
H	-2.3917803011	 0.9537211618	 1.0240301779	 0.29255
H	-2.2590042571	 0.9205423516	-1.4744066441	 0.120971
H	-1.7104178857	-0.6471212215	-2.0997544864	 0.130651
H	-3.7196242814	-1.7522613973	-0.911655438	 0.080984
38.9982	53.9088	73.1287	88.7938	155.9539	205.4502	252.4025	273.3351	281.2542	338.3137	374.5352	432.9839	458.1572	552.0095	667.0005	778.2825	853.5799	900.5932	936.1921	980.045	1013.9298	1043.1972	1058.5685	1096.6891	1145.7502	1164.0862	1190.1809	1257.0414	1290.0024	1303.8767	1347.3898	1378.2252	1402.7438	1419.2103	1424.2642	1429.8389	1459.56	1500.5895	1507.0459	1831.0579	1840.0136	2872.6475	2896.9662	3024.9503	3025.9057	3041.5306	3060.0157	3091.7058	3111.4993	3119.1495	3807.9037
CC(C=O)C(O)CC=O	C[C@@H](C=O)[C@@H](O)CC=O	
InChI=1S/C6H10O3/c1-5(4-8)6(9)2-3-7/h3-6,9H,2H2,1H3	InChI=1S/C6H10O3/c1-5(4-8)6(9)2-3-7/h3-6,9H,2H2,1H3/t5-,6-/m0/s1
