12
gdb 16273	3.1939	2.16692	1.47019	5.3998	56.25	-0.2693	-0.0463	0.2231	803.7733	0.082551	-418.47437	-418.467684	-418.46674	-418.505602	23.954	
O	-0.2141149883	 0.0098469425	 0.0953213289	-0.240222
C	-0.0667705509	 1.1997788083	-0.0086950312	 0.071616
C	 1.2378507406	 1.8849425038	-0.0090504749	 0.009195
C	 1.3973191493	 3.3844337445	 0.3585617226	-0.333673
C	 1.811295703	 2.9305679923	-0.9737287291	 0.071461
O	 3.1152977225	 2.3170740945	-0.9142097805	-0.256247
C	 2.6280258818	 1.292721185	-0.0932467278	 0.441242
O	 3.2152002927	 0.3413696135	 0.2889767593	-0.298193
H	-0.9337016736	 1.8911278795	-0.1225859525	 0.077505
H	 0.4493153591	 3.9117284674	 0.4263277249	 0.147785
H	 2.1454320604	 3.6648445016	 1.0921352121	 0.158722
H	 1.4465113034	 3.2440372371	-1.9414378319	 0.150809
102.0086	143.4866	214.1902	274.346	446.727	465.6716	489.134	676.1644	744.4914	776.9772	814.1605	870.3888	930.6062	968.0618	1014.997	1034.1578	1053.3632	1071.4733	1096.0807	1232.913	1302.6304	1375.7349	1435.0164	1476.6088	1816.1076	1966.8278	2861.588	3126.374	3221.8662	3233.5755
O=CC12CC1OC2=O	O=C[C@]12C[C@H]1OC2=O	
InChI=1S/C5H4O3/c6-2-5-1-3(5)8-4(5)7/h2-3H,1H2	InChI=1S/C5H4O3/c6-2-5-1-3(5)8-4(5)7/h2-3H,1H2/t3-,5-/m1/s1
