14
gdb 21136	5.27396	1.63455	1.25771	1.0527	70.11	-0.2298	-0.0715	0.1583	916.0568	0.108566	-374.874939	-374.867988	-374.867044	-374.906179	25.415	
C	 0.0345786311	 1.4454515629	 0.0073711603	-0.347469
N	 0.0808640159	-0.0043747881	 0.0024976377	-0.316123
C	-1.0229278943	-0.647750446	 0.0088487094	 0.451375
N	-2.3101593473	-0.0749130455	 0.0204429948	-0.312919
N	-3.5036186506	-0.7084221844	 0.0274153988	-0.03439
N	-3.5315871722	-1.9746268182	 0.0235874854	-0.212378
C	-2.326565704	-2.6761846872	 0.012276951	 0.041155
C	-1.1131234523	-2.0906691402	 0.0049728068	-0.174892
H	 1.0539554404	 1.8381252742	 0.0004374001	 0.133769
H	-0.4796711964	 1.860007119	-0.8761544839	 0.11128
H	-0.4654314081	 1.8544193379	 0.9016028791	 0.11131
H	-2.4151297147	 0.9280112863	 0.0244446774	 0.278123
H	-2.4504880822	-3.7527127936	 0.0098013535	 0.135165
H	-0.1875295153	-2.6525702171	-0.0038024104	 0.135995
107.4496	162.1558	223.4819	233.564	369.024	456.0142	514.4648	576.6507	659.2927	671.4111	758.4572	811.3093	869.7269	988.7685	1014.0861	1019.9725	1062.5036	1100.0802	1104.0754	1176.6444	1202.3933	1268.7361	1387.45	1429.9358	1445.3174	1493.7817	1507.4303	1556.0025	1639.2416	1732.6882	2949.8316	2992.2135	3104.0727	3202.7445	3224.4897	3639.4204
CN=C1NN=NC=C1	C[N]c1[nH]nncc1	
InChI=1S/C4H6N4/c1-5-4-2-3-6-8-7-4/h2-3H,1H3,(H,5,6,7)	InChI=1S/C4H11N4/c1-5-4-2-3-6-8-7-4/h4,6-8H,2-3H2,1H3
