20
gdb 90082	3.56046	1.47686	1.28441	2.0899	80.18	-0.2098	0.0906	0.3003	1055.1009	0.172209	-403.073204	-403.065885	-403.064941	-403.10451	30.235	
C	 0.1105622869	 1.5659613162	 0.0553546312	-0.321222
N	 0.0515688964	 0.1212465915	 0.0303953817	-0.090322
C	 0.9418113484	-0.5966084411	-0.9399477156	-0.297726
C	 1.0798233802	-1.6874730855	 0.1246539274	 0.394088
C	 1.8821243571	-2.7189293701	 0.9272548085	-0.330547
C	 0.4240670013	-2.8797610776	 1.4971540631	 0.06524
C	 0.0206222581	-1.5420684871	 2.2055086076	-0.268064
C	 0.6830710087	-0.6189415841	 1.1530046807	 0.049366
O	-0.0588133148	-2.5975514833	 0.1562527492	-0.3049
H	 1.135121341	 1.9617815731	 0.2009964434	 0.08493
H	-0.2776844682	 1.9716509619	-0.8848686338	 0.120734
H	-0.5177054596	 1.9449703551	 0.8683167633	 0.122077
H	 0.4711729372	-0.8781604492	-1.885772486	 0.117941
H	 1.8874891056	-0.0652481455	-1.1308987885	 0.093087
H	 2.1667715535	-3.6102236826	 0.3671304744	 0.114747
H	 2.6905197576	-2.3642278564	 1.5723068567	 0.096822
H	 0.0721641751	-3.824480656	 1.9129172486	 0.082846
H	-1.0679072068	-1.4701474047	 2.2457947994	 0.12157
H	 0.43109233	-1.4104220381	 3.2103142942	 0.093
H	 1.5428485124	-0.0665328464	 1.5636490645	 0.056332
143.3343	226.355	262.7805	314.7936	321.7852	401.2147	449.1262	487.0135	595.3944	658.0705	744.4914	796.8345	807.1108	830.3743	861.9275	875.6771	932.1951	967.4666	978.3147	996.3553	1051.5183	1054.3244	1062.1095	1118.2878	1132.0277	1156.5573	1174.5848	1186.0966	1202.3516	1208.1719	1227.5212	1263.4923	1275.6449	1283.3218	1298.9577	1345.1954	1378.5623	1449.9535	1470.5635	1482.2461	1487.3674	1498.1733	1499.6664	2912.5957	2968.989	2986.3035	3055.92	3063.7759	3067.6647	3090.0211	3098.9924	3119.0196	3126.5214	3143.6979
CN1CC23CC(CC12)O3	CN1C[C@@]23C[C@@H](C[C@H]12)O3	
InChI=1S/C7H11NO/c1-8-4-7-3-5(9-7)2-6(7)8/h5-6H,2-4H2,1H3	InChI=1S/C7H11NO/c1-8-4-7-3-5(9-7)2-6(7)8/h5-6H,2-4H2,1H3/t5-,6+,7+/m1/s1
