19
gdb 66254	1.95431	1.6238	1.39459	2.6141	80.97	-0.2359	-0.0242	0.2117	1085.8029	0.157842	-385.896639	-385.887553	-385.886609	-385.930183	34.583	
C	-0.1590701128	 1.6210325111	 0.0081989567	-0.438699
C	 0.0304999458	 0.0991899686	-0.0509049197	-0.007179
C	 0.874517047	-0.4205464411	-1.2421380483	-0.242113
C	 1.4272460345	-1.7790518743	-0.7646243382	-0.224095
C	 1.7755213979	-1.5446483629	 0.7140368586	-0.314366
C	 0.8562771246	-0.4124865025	 1.177567607	 0.395028
O	 0.7924715837	 0.0506514645	 2.282979598	-0.314154
C	-1.2555998124	-0.596268533	 0.0003107096	 0.355344
C	-2.3053623296	-1.1815923946	 0.0521182839	-0.50674
H	 0.809561627	 2.1254167703	-0.0641234351	 0.115328
H	-0.7956818445	 1.9658166336	-0.8106294056	 0.122923
H	-0.6203874046	 1.9006817751	 0.95777208	 0.147029
H	 0.2934771107	-0.4925246724	-2.1637368267	 0.112873
H	 1.6979869372	 0.2829183883	-1.416809985	 0.100861
H	 0.6480577488	-2.5421471716	-0.8529667407	 0.12189
H	 2.2833505015	-2.1106778895	-1.3563735747	 0.104285
H	 1.663483716	-2.4189810596	 1.3600752676	 0.136162
H	 2.8069862745	-1.1916726786	 0.8384858186	 0.134987
H	-3.2381468552	-1.6871496616	 0.1001585439	 0.200633
75.5638	128.9993	152.9207	214.8661	222.8739	258.8393	332.7275	404.6294	474.0473	525.8736	547.2716	606.0989	615.5051	620.0641	639.503	669.5067	803.4095	824.2324	902.1415	922.8615	951.9642	1022.0003	1034.0196	1061.4391	1084.0198	1149.2357	1181.6446	1215.2301	1232.6439	1264.236	1299.6361	1334.8918	1345.2204	1408.4421	1447.7847	1486.1407	1490.1388	1494.7646	1500.6313	1851.5558	2222.7586	3035.0501	3042.7603	3045.0625	3061.3887	3101.0127	3108.537	3114.6469	3118.2244	3136.5713	3500.9004
CC1(CCCC1=O)C#C	C[C@]1(CCCC1=O)C#C	
InChI=1S/C8H10O/c1-3-8(2)6-4-5-7(8)9/h1H,4-6H2,2H3	InChI=1S/C8H10O/c1-3-8(2)6-4-5-7(8)9/h1H,4-6H2,2H3/t8-/m1/s1
