23
gdb 60347	3.44936	0.64072	0.61142	2.9504	87.38	-0.268	0.0296	0.2976	1925.5708	0.204751	-384.491893	-384.480725	-384.47978	-384.529029	40.064	
C	-0.1584692906	 1.5688399157	 0.1186274515	-0.383183
C	-0.0417194108	 0.041094134	 0.0156593021	 0.03589
C	-1.4323979283	-0.6073786167	 0.0505974068	-0.389376
C	 0.7235216027	-0.4085000042	-1.2429454019	-0.170126
C	 2.1999325337	 0.0011836121	-1.2681916843	-0.186477
C	 2.9383392075	-0.5189859591	-2.517891712	-0.136681
N	 2.3769529441	 0.0653123351	-3.7391416645	-0.491474
C	 4.3942847312	-0.2838155948	-2.3866854972	 0.254181
N	 5.5292489633	-0.0722282961	-2.3179377847	-0.324161
H	 0.818593739	 2.0575763483	 0.1776205365	 0.113299
H	-0.6859188427	 1.9780610441	-0.7516204395	 0.112732
H	-0.721771347	 1.8570078132	 1.0121576445	 0.113195
H	 0.5167263523	-0.3154496529	 0.8939080801	 0.071205
H	-2.0338313782	-0.2905973461	-0.8099793972	 0.113665
H	-1.3650616832	-1.7000950031	 0.0242191585	 0.109671
H	-1.9778339988	-0.3261087913	 0.9573288524	 0.110598
H	 0.6667010878	-1.5034076153	-1.3146176244	 0.088325
H	 0.2244495148	-0.0196711098	-2.1378408549	 0.115824
H	 2.3069274433	 1.0920111225	-1.2390383215	 0.111069
H	 2.7133647387	-0.3831816312	-0.3792800107	 0.116694
H	 2.7932442169	-1.6048292351	-2.5791988854	 0.13026
H	 2.564478277	 1.0644744683	-3.7559680832	 0.240296
H	 2.8339272274	-0.3261067575	-4.5572825711	 0.244576
36.5256	68.598	98.5532	127.6324	189.5785	222.6	242.5508	252.4051	276.0684	292.625	364.5241	390.5318	423.5375	459.711	584.3209	587.3247	771.9011	807.8085	853.3048	920.4965	929.7464	938.4074	965.3438	978.6488	986.4552	1054.7469	1083.9044	1125.2817	1157.231	1192.8987	1210.1832	1270.1637	1278.4452	1328.4621	1334.1523	1364.1547	1372.3497	1393.0634	1395.0015	1403.8862	1424.8475	1478.12	1488.8537	1492.4259	1501.2653	1505.6074	1512.2091	1662.6729	2342.6578	2993.2713	3012.811	3024.0007	3029.1192	3033.0742	3041.2821	3063.8941	3084.7934	3089.2436	3095.1988	3099.7052	3105.0381	3490.8781	3571.3003
CC(C)CCC(N)C#N	CC(C)CC[C@@H](N)C#N	
InChI=1S/C7H14N2/c1-6(2)3-4-7(9)5-8/h6-7H,3-4,9H2,1-2H3	InChI=1S/C7H14N2/c1-6(2)3-4-7(9)5-8/h6-7H,3-4,9H2,1-2H3/t7-/m1/s1
