19
gdb 38970	3.08326	1.6552	1.37084	2.6831	72.81	-0.2442	0.0804	0.3246	979.2114	0.162857	-423.023997	-423.017117	-423.016173	-423.055329	27.747	
C	 0.5283980621	 1.5186991767	 0.4893363752	-0.094038
O	 1.2537443137	 2.025289216	-0.6195763957	-0.248651
C	 2.0587903031	 0.9602041565	-1.110846831	-0.090372
C	 1.2736528135	-0.3499850838	-0.8455461575	-0.06792
C	 2.0119122428	-1.3864494409	-0.0196578914	 0.020096
O	 2.4076430857	-0.8864640715	 1.2681839409	-0.256312
C	 1.240705733	-1.7172856524	 1.1862135432	 0.058376
C	-0.0609540073	-0.9404244778	 1.1949988756	-0.277834
C	 0.0852871042	 0.1067397881	 0.0653881821	-0.01934
H	 1.1619894952	 1.4655266718	 1.3868561266	 0.102911
H	-0.303528915	 2.2021720211	 0.6811267395	 0.101182
H	 2.2421979636	 1.1483307415	-2.1720510071	 0.102911
H	 3.0247720877	 0.9352673213	-0.5860713739	 0.104229
H	 0.9232724122	-0.8041965196	-1.7769709222	 0.077247
H	 2.7117306058	-2.0792340682	-0.4815721815	 0.094095
H	 1.3204139817	-2.6739510171	 1.697812637	 0.093713
H	-0.8894520698	-1.6288527129	 0.9936883302	 0.104982
H	-0.2551062446	-0.4795225411	 2.1700359803	 0.113722
H	-0.8352719076	 0.1860374122	-0.5170476401	 0.081005
104.85	181.5956	260.6397	338.2209	366.6501	488.5163	572.933	634.3415	687.4038	762.4529	801.6114	831.2942	868.505	897.6455	914.369	955.6668	968.7535	1008.3884	1018.6941	1052.3737	1055.0648	1078.3298	1098.6214	1119.8365	1135.1913	1213.437	1216.4649	1242.2446	1262.2944	1276.0684	1290.7817	1318.8949	1325.5385	1339.2827	1353.7379	1378.3027	1402.3074	1439.6631	1481.9136	1504.8401	1520.7348	2997.4345	3003.2558	3039.5286	3059.3075	3072.6528	3080.4688	3088.2054	3096.0245	3133.8119	3146.8461
C1OCC2C3OC3CC12	C1OC[C@H]2[C@H]3O[C@H]3C[C@@H]12	
InChI=1S/C7H10O2/c1-4-2-8-3-5(4)7-6(1)9-7/h4-7H,1-3H2	InChI=1S/C7H10O2/c1-4-2-8-3-5(4)7-6(1)9-7/h4-7H,1-3H2/t4-,5+,6-,7+/m0/s1
