14
gdb 5473	3.47368	1.90933	1.24155	0.9426	68.26	-0.2425	-0.052	0.1906	915.5033	0.108494	-378.787424	-378.78018	-378.779235	-378.81931	25.73	
C	 0.0245825574	 1.5189989364	 0.1085557011	-0.493298
C	 0.0479915909	 0.030027776	 0.0012627602	 0.227323
C	-0.0373568248	-0.7637978951	-1.1363431857	 0.154241
N	 0.0334141821	-2.0657563743	-0.6727495471	-0.287138
C	 0.1533937982	-2.0060390416	 0.6676626932	 0.030127
N	 0.166031585	-0.7600627078	 1.1123499552	-0.312091
C	-0.1710694826	-0.4978480476	-2.5492981476	 0.066534
O	-0.2280054957	-1.3752869825	-3.392566765	-0.316316
H	 0.9424554458	 1.8831353454	 0.5814533259	 0.146959
H	-0.0726149056	 1.996576609	-0.8689316776	 0.126981
H	-0.8109498532	 1.8444700492	 0.7368149054	 0.146938
H	-0.0033869053	-2.8719414259	-1.2769678836	 0.284841
H	 0.2288850415	-2.8889457595	 1.2854121312	 0.144978
H	-0.2197468737	 0.5746947782	-2.8258401656	 0.079922
81.0719	154.5754	178.3039	230.9748	317.9569	334.3551	539.6466	600.3581	645.5003	681.4391	704.9595	818.6021	861.4193	959.8476	993.0518	1022.3539	1059.6105	1104.4378	1156.6282	1273.1494	1310.3931	1374.5165	1413.9815	1421.0338	1461.7436	1472.9223	1484.4696	1517.4488	1600.2642	1753.7036	2925.2215	3041.7357	3098.2125	3128.37	3251.1282	3649.8034
CC1=C(NC=N1)C=O	Cc1c([nH]cn1)C=O	
InChI=1S/C5H6N2O/c1-4-5(2-8)7-3-6-4/h2-3H,1H3,(H,6,7)	InChI=1S/C5H6N2O/c1-4-5(2-8)7-3-6-4/h2-3H,1H3,(H,6,7)
