25
gdb 103175	1.82839	1.43705	1.16257	1.5821	88.61	-0.2368	0.0781	0.3149	1296.8261	0.22679	-389.492685	-389.481951	-389.481007	-389.527766	40.669	
C	 0.4777542179	 1.2772605621	-0.0680186957	-0.402578
C	 0.2222404672	-0.234077922	 0.0063518021	-0.226567
C	-1.2497166768	-0.6605270238	 0.1211796156	 0.23866
C	-1.9613749752	 0.0342628529	 1.2805336491	-0.470894
C	-2.0548450915	-0.7011500074	-1.2217677139	 0.140803
C	-1.5993854029	-0.014124083	-2.4938591646	-0.416186
O	-1.9093368691	-2.1362673674	-1.3031082605	-0.318347
C	-1.4549900853	-2.2108559828	 0.0651599468	 0.135768
C	-0.3153305233	-3.1934373305	 0.2462740963	-0.415809
H	 1.54546332	 1.4746827716	-0.2062927611	 0.113368
H	-0.0533314424	 1.7420877351	-0.9037968508	 0.11956
H	 0.167973974	 1.7881683808	 0.8481732112	 0.119056
H	 0.6714448242	-0.7153886519	-0.8688591097	 0.104553
H	 0.7604217827	-0.636434994	 0.8747768766	 0.094863
H	-2.041426812	 1.1140962319	 1.1198460795	 0.11853
H	-2.9767950448	-0.3550515456	 1.4059947609	 0.114047
H	-1.4255731992	-0.1195929843	 2.2248685636	 0.112277
H	-3.11008843	-0.4413398436	-1.0360149995	 0.059237
H	-0.5397783519	-0.1862854381	-2.6986238109	 0.119706
H	-2.1724817936	-0.4137275899	-3.3372110745	 0.126413
H	-1.782046383	 1.0642291823	-2.4458836875	 0.11549
H	-2.288839623	-2.5082947	 0.7219996026	 0.058877
H	 0.5436844031	-2.9457697609	-0.3815961457	 0.120079
H	 0.0085648366	-3.2236311895	 1.292300819	 0.113843
H	-0.6559396519	-4.1971329722	-0.0283153887	 0.125249
59.601	139.9507	170.0931	198.6882	220.8361	224.006	238.3532	255.0778	292.6022	317.7935	335.5881	374.0956	453.9689	494.4636	531.6382	646.9218	724.4375	780.1657	820.0278	875.5553	904.9463	917.6938	1012.6574	1014.255	1026.2436	1047.9478	1074.4004	1082.7804	1124.0488	1130.4241	1156.6366	1189.9696	1217.8799	1258.9863	1277.2724	1316.1125	1353.0923	1367.1212	1375.5363	1399.9128	1402.76	1411.7594	1415.9522	1434.1277	1479.1865	1480.5315	1486.4482	1494.5466	1495.2721	1500.0478	1505.4192	1509.8369	1514.7427	2955.0441	2963.5246	3019.9478	3026.0674	3037.4358	3038.5674	3043.7019	3064.2428	3090.3688	3099.0584	3102.6446	3103.0656	3107.7975	3117.9746	3120.8132	3126.5235
CCC1(C)C(C)OC1C	CC[C@@]1(C)[C@@H](C)O[C@H]1C	
InChI=1S/C8H16O/c1-5-8(4)6(2)9-7(8)3/h6-7H,5H2,1-4H3	InChI=1S/C8H16O/c1-5-8(4)6(2)9-7(8)3/h6-7H,5H2,1-4H3/t6-,7+,8+
