12
gdb 21353	5.51442	2.2856	1.61586	5.3453	61.48	-0.2177	-0.0046	0.2131	709.6982	0.088859	-373.724017	-373.718559	-373.717615	-373.75328	21.498	
N	 0.0329576979	 1.3233457148	 0.0092638956	-0.177447
C	 1.2823110976	 1.8921852416	 0.0001758434	-0.199583
C	 2.1302351979	 0.8087109398	-0.0139393899	 0.279154
N	 3.4148896196	 0.3070185667	-0.0290276836	-0.435052
C	 3.2732804303	-1.0728108185	-0.0350974572	 0.013628
N	 2.0394962198	-1.503211875	-0.0254411925	-0.330178
C	 1.2961680921	-0.3372616624	-0.011967578	 0.375799
N	-0.0000842842	-0.0271211635	 0.0023149976	-0.335926
H	-0.8421536249	 1.8189502448	 0.0203947524	 0.276664
H	 1.4166857801	 2.9605470836	 0.004605307	 0.132968
H	 4.283897516	 0.8104379485	-0.0352201554	 0.266649
H	 4.1477931476	-1.7089094304	-0.0470058094	 0.133326
260.6417	313.359	375.5689	477.4858	515.4507	625.5819	652.4359	701.8197	731.0816	750.5231	788.6615	863.1722	945.6985	975.3041	1050.1071	1078.9916	1160.3283	1208.0614	1300.9467	1320.7639	1383.4288	1442.674	1470.6055	1509.4909	1544.3134	1678.8812	3238.9245	3274.8042	3678.3574	3687.118
N1C=C2NC=NC2=N1	[nH]1cc2[nH]cnc2n1	
InChI=1S/C4H4N4/c1-3-4(8-7-1)6-2-5-3/h1-2H,(H2,5,6,7,8)	InChI=1S/C4H4N4/c1-3-4(8-7-1)6-2-5-3/h1-2H,(H2,5,6,7,8)
