16
gdb 107379	3.26894	1.30295	1.05169	3.0937	65.95	-0.2532	0.0472	0.3004	1122.601	0.124203	-475.012974	-475.005088	-475.004144	-475.045826	29.768	
O	 0.02095155	 1.4514447641	 0.4522071152	-0.406831
C	 0.088156727	 0.0883963092	 0.0828899885	-0.150946
C	-1.2706231285	-0.5292212173	-0.0850593336	 0.373107
C	-2.1573786771	-1.006189259	 1.0406081128	-0.373203
C	-1.6585549071	-1.9696830469	-0.0113178893	 0.002717
O	-2.5183333605	-2.194739785	-1.1085638542	-0.251749
C	-2.6961970238	-1.0169187051	-1.7891209294	 0.478311
N	-3.4254153637	-0.8215412666	-2.7911943203	-0.569741
O	-1.9635652675	-0.0236072117	-1.2160505393	-0.271286
H	-0.4321378276	 1.9200983872	-0.2575825494	 0.299069
H	 0.6604168057	-0.0537731856	-0.8463402419	 0.108107
H	 0.6200982212	-0.4275530645	 0.888262177	 0.116716
H	-1.7005375711	-1.0739756764	 2.0220010259	 0.136717
H	-3.2062550215	-0.7306272949	 1.029523963	 0.14401
H	-1.0006186015	-2.8033338094	 0.1974830898	 0.128615
H	-3.888012764	-1.6844061681	-3.0658550348	 0.236389
72.9587	117.2678	156.052	269.5409	358.792	374.0983	413.235	462.6828	479.6492	676.6985	715.2118	737.7227	777.1112	798.743	853.3961	897.8753	918.1585	981.487	994.4678	1024.7355	1039.7349	1049.584	1079.3463	1088.5824	1142.4328	1185.6652	1239.865	1275.2372	1340.7508	1389.2554	1400.0295	1434.476	1475.5941	1488.9343	1804.2824	2995.756	3086.2004	3137.2678	3200.3916	3232.9733	3543.3178	3809.4269
OCC12CC1OC(=N)O2	OC[C@]12C[C@H]1O[C]([NH])O2	
InChI=1S/C5H7NO3/c6-4-8-3-1-5(3,2-7)9-4/h3,6-7H,1-2H2	InChI=1S/C5H7NO3/c6-4-8-3-1-5(3,2-7)9-4/h3,6-7H,1-2H2/t3-,5-/m1/s1
