21
gdb 80970	2.75526	1.41373	1.15513	1.4926	84.86	-0.2141	0.0254	0.2395	1167.9347	0.18163	-387.070289	-387.061306	-387.060362	-387.103149	35.37	
C	-0.0074938269	 1.4588567125	 0.0733676964	-0.516121
C	-0.0308437282	-0.0302294621	 0.0275672176	 0.345366
C	-0.0174246955	-0.887604332	-1.002729319	-0.260058
C	 0.0037832039	-2.273335063	-0.3465739746	 0.300542
C	 0.0468984496	-3.5206579726	-1.1960714217	-0.515132
C	-1.0469677506	-2.0532954063	 0.8018590561	-0.252967
C	-0.0189041881	-0.9640612878	 1.2419729166	-0.180927
C	 1.0914407376	-1.9805631483	 0.7529974625	 0.130444
O	 1.3304343988	-3.1047491518	 1.5647924173	-0.445879
H	 0.8750635648	 1.8305847302	 0.6102976392	 0.123227
H	 0.0049794767	 1.8879215236	-0.9329023467	 0.123619
H	-0.8821717992	 1.8589369449	 0.6024070352	 0.125549
H	 0.0164473961	-0.6866238096	-2.0656687426	 0.089834
H	 0.8807316252	-3.4882093441	-1.9068857371	 0.111682
H	 0.1741656177	-4.4086633962	-0.5703024884	 0.129699
H	-0.8775508756	-3.6379448588	-1.7724842809	 0.113816
H	-2.0413166547	-1.7098811793	 0.5058611052	 0.083095
H	-1.1016923876	-2.8961430364	 1.4940744179	 0.104081
H	-0.0097309263	-0.5280203075	 2.2422826088	 0.050028
H	 2.0267706696	-1.5289176102	 0.3954394683	 0.056243
H	 1.9524368026	-2.8544863352	 2.2547508898	 0.283861
155.1918	176.4023	193.1849	216.1851	227.7157	243.6118	280.6679	361.3101	418.5684	491.1329	518.3246	572.0759	596.4254	658.6854	774.6147	787.5929	845.2755	889.6504	890.808	926.3605	955.6059	1003.8296	1029.2984	1059.4378	1082.4987	1102.2002	1103.0369	1130.7167	1169.2469	1193.0378	1205.9795	1218.056	1234.5353	1275.8696	1303.0543	1345.8945	1407.1796	1410.3642	1413.3136	1477.5564	1485.9651	1488.0554	1491.9479	1496.3056	1684.9947	3011.3453	3012.0275	3027.3136	3055.7494	3061.2233	3087.5819	3101.9468	3103.5763	3109.2365	3130.9346	3212.0154	3821.427
CC1=CC2(C)CC1C2O	CC1=C[C@]2(C)C[C@H]1[C@H]2O	
InChI=1S/C8H12O/c1-5-3-8(2)4-6(5)7(8)9/h3,6-7,9H,4H2,1-2H3	InChI=1S/C8H12O/c1-5-3-8(2)4-6(5)7(8)9/h3,6-7,9H,4H2,1-2H3/t6-,7-,8-/m1/s1
