20
gdb 101598	2.30745	1.25353	1.01774	0.8591	73.57	-0.2535	0.0492	0.3027	1273.0814	0.168988	-477.424477	-477.414069	-477.413125	-477.460498	36.921	
C	 0.1810170156	-0.1132570694	 0.5731138352	-0.229552
O	 0.5599638969	-0.9660124394	-0.517338973	-0.253881
C	 0.8912797318	-0.3336172161	-1.6669793143	 0.492158
N	 0.8193438616	 0.9254121865	-1.7741066675	-0.578737
O	 1.2474093154	-1.1614587679	-2.6597856225	-0.29829
C	 1.7111995222	-2.5375699931	-2.4969792648	 0.108236
C	 2.8881863702	-2.6523296573	-1.5357952045	-0.401472
C	 0.5687854413	-3.5283105726	-2.2223251324	-0.075569
O	 0.2309633832	-3.7141359133	-0.8682844662	-0.4186
H	 0.9911931359	 0.5788049591	 0.810521039	 0.150097
H	-0.7094060786	 0.4624915825	 0.3128422752	 0.150399
H	-0.0180050744	-0.7817660017	 1.4116323919	 0.132462
H	 1.1262109817	 1.2124846318	-2.7000778096	 0.230424
H	 2.0587928967	-2.7460232304	-3.5141996002	 0.100396
H	 3.3308151508	-3.6486808222	-1.6299526549	 0.125892
H	 3.6540566356	-1.9117204347	-1.7810302187	 0.124134
H	 2.5748249395	-2.5223717626	-0.5002332686	 0.140606
H	-0.2970222846	-3.2212039774	-2.8306947031	 0.096496
H	 0.8941903776	-4.5080661737	-2.5917803468	 0.11031
H	 0.0443289814	-2.8369409479	-0.5118531642	 0.29449
47.9706	64.3177	138.6118	163.3008	169.405	197.154	211.5997	267.4969	307.317	352.3646	412.3269	485.9418	538.8858	591.5887	686.8873	737.9532	769.0439	827.4519	872.8985	914.5713	965.6728	1011.9937	1067.0633	1102.2874	1129.0987	1144.1963	1176.2634	1184.8593	1220.0046	1260.1788	1328.9394	1338.0774	1394.5563	1419.8591	1426.848	1459.0497	1474.4467	1480.3413	1486.468	1495.2705	1500.5422	1502.4681	1743.7596	2980.8107	3052.3318	3054.1586	3058.6893	3066.2855	3119.474	3142.8035	3157.9337	3160.2021	3537.7099	3777.4818
COC(=N)OC(C)CO	CO[C]([NH])O[C@@H](C)CO	
InChI=1S/C5H11NO3/c1-4(3-7)9-5(6)8-2/h4,6-7H,3H2,1-2H3	InChI=1S/C5H11NO3/c1-4(3-7)9-5(6)8-2/h4,6-7H,3H2,1-2H3/t4-/m0/s1
