21
gdb 109381	2.54586	1.25739	1.00776	1.7772	81.16	-0.2401	0.0142	0.2543	1277.8778	0.182942	-424.234478	-424.225272	-424.224328	-424.268595	34.664	
C	-0.1979680605	 1.5458689646	 0.0225451998	-0.374379
C	 0.023702171	 0.023201557	 0.0068330211	-0.282088
C	 0.7524981599	-0.4671858456	-1.2188433511	 0.291232
C	 2.0188503542	-0.8888286278	-1.2052721885	-0.177126
C	 2.7151093407	-1.4271944549	-2.4252525608	-0.128422
O	 1.823597635	-1.7244609672	-3.4848941456	-0.257184
C	 0.9122370023	-0.6584681008	-3.7079925766	-0.116652
C	-0.0349592307	-0.5308662057	-2.5169548451	 0.043367
O	-0.9706935589	-1.6097680269	-2.4826748666	-0.436561
H	 0.7574518376	 2.0800404929	 0.0130818027	 0.116804
H	-0.7762976881	 1.8801790123	-0.8446673119	 0.120177
H	-0.747574808	 1.8473659142	 0.9195882248	 0.11564
H	 0.5802787748	-0.2699847181	 0.903936611	 0.096488
H	-0.9481622513	-0.483785691	 0.0547291638	 0.119567
H	 2.6041083286	-0.8624732984	-0.2877938373	 0.086467
H	 3.4882563326	-0.7129488216	-2.7670139049	 0.099262
H	 3.2337944639	-2.3638891828	-2.1901323494	 0.118253
H	 1.4510271437	 0.28826565	-3.8785875035	 0.087538
H	 0.3483107972	-0.9123791769	-4.6093556739	 0.113373
H	-0.6469156071	 0.3704861647	-2.6384576216	 0.08338
H	-0.4390621573	-2.4152567279	-2.4617435264	 0.280866
66.1224	97.8006	160.5415	198.5369	246.1081	270.7051	301.9091	377.9821	403.5901	429.2101	455.3675	624.6176	664.8334	693.6996	793.0358	841.2181	847.5439	890.3643	936.8875	956.9257	983.338	1035.6051	1066.2311	1070.8424	1092.0494	1112.3703	1158.2413	1185.4446	1240.2017	1273.1927	1276.1975	1305.5107	1326.313	1353.1629	1365.5898	1387.7795	1407.6249	1413.2871	1424.8949	1481.3858	1482.2069	1493.6094	1499.0022	1505.5369	1734.2741	2927.0056	2972.5266	3028.1152	3035.9791	3047.8419	3053.503	3067.1744	3097.8328	3106.7937	3109.3518	3143.1741	3781.9928
CCC1=CCOCC1O	CCC1=CCOC[C@H]1O	
InChI=1S/C7H12O2/c1-2-6-3-4-9-5-7(6)8/h3,7-8H,2,4-5H2,1H3	InChI=1S/C7H12O2/c1-2-6-3-4-9-5-7(6)8/h3,7-8H,2,4-5H2,1H3/t7-/m1/s1
