18
gdb 29269	3.89624	1.08715	0.90979	3.3275	80.93	-0.206	0.0267	0.2327	1300.8438	0.149915	-398.152245	-398.143886	-398.142942	-398.185826	30.927	
C	 0.029527674	 1.4826513232	 0.060292087	-0.488928
C	 0.0012934434	-0.0091349155	-0.0097515327	 0.288175
C	-0.1608528674	-0.8117098664	-1.1086551486	-0.194168
N	-0.1171314806	-2.108728811	-0.6317409596	-0.305461
C	 0.0714314162	-2.040550208	 0.7153955463	 0.382065
N	 0.1425909727	-0.7894994438	 1.1201586665	-0.371954
C	 0.1680026792	-3.2223003161	 1.5918240844	-0.120271
C	 1.1809527713	-3.2264636945	 2.6881556517	-0.227097
N	-0.2431780022	-3.0750644031	 2.9983577809	-0.312647
H	 0.9798005916	 1.8406459627	 0.4712751622	 0.131793
H	-0.1019392533	 1.9256620653	-0.9305818658	 0.116641
H	-0.7647946332	 1.861380088	 0.7125794311	 0.132596
H	-0.302255319	-0.5927861226	-2.1538953976	 0.125622
H	-0.2045185974	-2.9481799148	-1.1794013161	 0.263693
H	-0.1154771156	-4.1675296492	 1.1338141732	 0.083216
H	 1.6262525904	-4.1659774518	 3.0046598023	 0.116257
H	 1.8219921518	-2.3525864459	 2.7564443025	 0.130798
H	-0.4410314218	-2.0856793365	 3.1472654624	 0.249669
58.3051	115.7231	144.5999	155.7791	271.6768	334.7448	415.0361	436.4078	523.2193	620.5421	658.503	714.5962	727.6363	751.8732	831.0815	890.0647	976.1427	989.7638	995.4812	1013.4784	1054.8102	1065.3452	1105.7848	1118.1766	1136.6414	1193.2033	1216.8594	1274.5949	1291.2542	1319.2903	1345.9446	1413.9936	1416.3506	1476.1432	1477.1437	1493.9454	1507.2319	1568.9257	1611.0663	3033.7528	3087.3342	3108.9735	3116.1538	3127.9253	3204.4113	3273.6468	3477.2158	3664.445
CC1=CNC(=N1)C1CN1	Cc1c[nH]c(n1)[C@H]1CN1	
InChI=1S/C6H9N3/c1-4-2-8-6(9-4)5-3-7-5/h2,5,7H,3H2,1H3,(H,8,9)	InChI=1S/C6H9N3/c1-4-2-8-6(9-4)5-3-7-5/h2,5,7H,3H2,1H3,(H,8,9)/t5-/m1/s1
