15
gdb 45847	2.39425	1.72742	1.06086	3.7965	69.42	-0.2383	-0.0117	0.2267	1065.0273	0.11549	-454.029146	-454.021668	-454.020724	-454.061416	28.255	
O	-0.1920179554	 0.0914426869	-0.7336597892	-0.331757
C	-0.1551055263	 1.2102653588	-0.2799631798	 0.402136
C	-1.343266754	 1.9040485261	 0.3644411748	-0.379323
C	-1.6298608138	 3.2517111172	-0.2377646319	-0.111877
C	-0.7595458385	 4.2577588573	-0.1759362269	 0.016071
N	 0.5228346191	 4.1559396055	 0.3762129781	-0.343237
C	 1.4605050121	 3.1494385553	 0.2382785234	 0.434012
O	 2.6256709321	 3.3317386343	 0.5244706558	-0.378199
N	 1.0446757439	 1.9258402204	-0.2986331556	-0.365211
H	-2.1909994434	 1.2263273353	 0.2713647693	 0.141725
H	-1.1146706713	 2.0185390474	 1.4342934007	 0.141328
H	-2.5743581513	 3.4063481046	-0.7443599078	 0.114454
H	-1.000278455	 5.2451447943	-0.5566322404	 0.121507
H	 0.9726272144	 5.0101989531	 0.6710547648	 0.26666
H	 1.8379803474	 1.3496973134	-0.551571775	 0.271711
103.2736	128.0932	158.9245	322.8833	364.1043	422.7411	485.9654	555.214	568.6027	614.1365	658.4276	699.4157	745.3759	769.1403	831.2706	888.1179	942.0843	951.7625	979.4867	1010.0809	1133.0204	1191.4932	1253.9708	1295.8177	1317.0825	1393.2034	1426.1397	1434.177	1464.358	1483.9168	1731.3055	1803.163	1814.4716	3007.9481	3140.9536	3178.5457	3212.9933	3591.5609	3620.9328
O=C1CC=CNC(=O)N1	O=C1CC=CNC(=O)N1	
InChI=1S/C5H6N2O2/c8-4-2-1-3-6-5(9)7-4/h1,3H,2H2,(H2,6,7,8,9)	InChI=1S/C5H6N2O2/c8-4-2-1-3-6-5(9)7-4/h1,3H,2H2,(H2,6,7,8,9)
