17
gdb 32234	2.87155	1.50388	1.05345	3.6076	78.99	-0.2149	-0.0142	0.2007	1123.4558	0.13965	-414.242835	-414.234831	-414.233886	-414.275313	30.464	
C	-0.694985061	 0.828894859	 0.1145494147	-0.341516
N	 0.6387945404	 0.2074462595	 0.1454345086	-0.39549
C	 0.990439255	-0.5400843674	-1.0054763476	 0.183772
C	 1.8944429587	-0.1198511518	-1.9648400753	-0.055391
N	 2.2479982847	-0.8549112461	-3.0310539041	-0.27421
C	 1.6489469584	-2.0370202446	-3.121459315	 0.060941
N	 0.7803126307	-2.5741972303	-2.2622165253	-0.322724
C	 0.4564878352	-1.8382640604	-1.1972551085	 0.361857
N	-0.4300081797	-2.3627072735	-0.2909363459	-0.566
H	-0.8146843789	 1.5591542472	-0.6994132384	 0.116434
H	-1.4543639386	 0.0537627203	-0.0144404869	 0.147641
H	-0.8757102327	 1.3315491747	 1.0686567347	 0.123372
H	 1.3418964324	 0.9151099145	 0.3269247179	 0.23186
H	 2.3693829673	 0.8565639722	-1.8659568619	 0.097545
H	 1.9011190784	-2.6469116394	-3.985975515	 0.110094
H	-0.5636214165	-3.3599724221	-0.3708756595	 0.258646
H	-0.3388845638	-2.004007672	 0.6492150873	 0.263168
104.9	139.8644	200.0886	221.1695	302.4277	348.2766	444.565	485.807	533.0727	556.631	588.5885	627.5831	639.3862	769.7333	786.9003	830.7039	918.9183	949.0615	998.1076	1030.9183	1067.2193	1147.9925	1156.843	1178.0211	1278.8187	1301.4285	1324.6866	1358.3397	1427.804	1457.7522	1469.8395	1498.0709	1513.113	1523.0007	1600.8037	1612.3677	1643.2979	2994.2868	3085.1333	3125.3443	3126.9088	3160.7601	3533.321	3558.2251	3679.2636
CNC1=CN=CN=C1N	CNc1cncnc1N	
InChI=1S/C5H8N4/c1-7-4-2-8-3-9-5(4)6/h2-3,7H,1H3,(H2,6,8,9)	InChI=1S/C5H8N4/c1-7-4-2-8-3-9-5(4)6/h2-3,7H,1H3,(H2,6,8,9)
