18
gdb 22590	4.02292	1.03863	0.87355	1.3116	72.52	-0.2532	-0.0037	0.2496	1314.3328	0.146974	-476.182549	-476.173899	-476.172955	-476.215846	32.509	
C	-0.055685267	 1.4860220745	-0.0090100761	-0.410038
C	 0.0181088071	-0.0246194349	-0.0037483253	 0.22747
O	 0.699622674	-0.439641443	-1.1659029848	-0.241592
C	 0.765425961	-1.8551626954	-1.2596295085	-0.173325
C	 1.3238442861	-2.4531389486	 0.0074272405	 0.35968
C	 0.8025124432	-1.8411307518	 1.2857691478	-0.183341
O	 0.7012051671	-0.4286309062	 1.1608009498	-0.246867
N	 2.1579502894	-3.4091727164	-0.1014777398	-0.186756
O	 2.5463884954	-3.9215158316	 1.145635614	-0.393051
H	 0.9562588898	 1.8979114739	-0.0110477124	 0.139428
H	-0.5830642356	 1.8297905976	-0.9013991162	 0.127627
H	-0.5824047083	 1.8372776484	 0.8807952647	 0.127689
H	-0.9928747923	-0.4810214865	-0.0026432739	 0.05088
H	-0.2468922715	-2.2616232711	-1.4353671501	 0.102573
H	 1.3922891299	-2.1089798931	-2.1157211169	 0.134009
H	-0.1837823631	-2.2774636443	 1.5231455175	 0.108238
H	 1.4749086995	-2.0466206956	 2.1180405802	 0.146943
H	 3.2116815755	-4.5728464259	 0.8995051595	 0.310432
68.4096	180.7577	210.1974	215.8541	236.7874	317.5354	328.4327	356.5992	415.083	481.6177	527.6711	570.3146	595.23	733.4133	835.4887	864.0717	887.3044	931.8166	979.1906	1055.22	1064.2052	1076.6032	1126.1033	1160.8313	1176.4062	1253.4809	1274.5457	1279.5841	1363.8655	1374.9108	1392.5496	1403.9967	1421.7462	1434.1787	1480.3887	1481.3266	1487.9383	1491.9529	1751.8328	2895.5601	2945.5335	2956.5784	3060.3048	3122.0959	3139.7008	3142.5518	3143.8811	3820.4605
CC1OCC(CO1)=NO	C[C@H]1OCC(=NO)CO1	
InChI=1S/C5H9NO3/c1-4-8-2-5(6-7)3-9-4/h4,7H,2-3H2,1H3	InChI=1S/C5H9NO3/c1-4-8-2-5(6-7)3-9-4/h4,7H,2-3H2,1H3/t4-
