16
gdb 64919	2.27788	1.48057	1.0462	3.9812	71.01	-0.2725	-0.0562	0.2163	1148.6271	0.120008	-437.891303	-437.88162	-437.880676	-437.926026	33.866	
C	-0.0191948026	 1.57723059	-0.0779758594	-0.475028
C	-0.0300060221	 0.075871477	 0.0505860812	 0.205114
O	 1.2044645969	-0.6421687461	-0.1367520622	-0.287901
C	 0.6460355747	-0.6545294583	 1.172409697	 0.19489
C	 1.4131886375	 0.0466755219	 2.2751945804	-0.470624
C	 0.1070706907	-1.9459202345	 1.5906333509	 0.262172
N	-0.3027867711	-2.958052062	 1.9690338199	-0.328319
C	-1.1976382567	-0.6164179785	-0.6162675647	 0.122754
O	-2.1637909084	-0.02459099	-1.0189142065	-0.238798
H	 0.8574229956	 2.0240574744	 0.3889387331	 0.133294
H	-0.0264030846	 1.8503407528	-1.1368039169	 0.153261
H	-0.924303543	 1.9925068557	 0.3720492285	 0.154437
H	 1.8670290188	 0.9665282046	 1.9086445538	 0.147015
H	 0.7495283852	 0.2779338805	 3.1130966017	 0.152509
H	 2.2076788599	-0.6100270556	 2.6405329631	 0.158031
H	-1.0760121208	-1.712950052	-0.7247470899	 0.117194
78.0827	107.1381	120.4337	147.3158	167.7059	243.6612	267.4948	306.4663	368.6538	392.5377	458.6872	514.4576	582.1471	607.3679	665.8044	752.6413	862.8565	885.3792	980.7529	1004.8924	1074.9294	1103.0082	1124.0502	1197.771	1265.2346	1373.626	1404.0367	1417.32	1431.1668	1469.3783	1478.9895	1486.5769	1505.1349	1829.7946	2355.779	2943.4521	3057.151	3064.2386	3124.3164	3128.564	3158.297	3170.2339
CC1(OC1(C)C#N)C=O	C[C@]1(O[C@]1(C)C#N)C=O	
InChI=1S/C6H7NO2/c1-5(3-7)6(2,4-8)9-5/h4H,1-2H3	InChI=1S/C6H7NO2/c1-5(3-7)6(2,4-8)9-5/h4H,1-2H3/t5-,6+/m1/s1
