16
gdb 131795	3.30554	1.01794	0.82324	2.0316	66.84	-0.2333	0.0006	0.2339	1338.6543	0.125264	-471.202647	-471.193842	-471.192897	-471.237086	31.305	
O	-0.1213429117	 1.4877188281	 0.0470472011	-0.417475
C	 0.0027071815	 0.078464496	 0.1471129864	-0.073414
C	-1.3743892455	-0.521513746	-0.1480931681	-0.296221
C	-1.3879105069	-2.0105700615	-0.0405278159	 0.225091
N	-1.4628724582	-2.8257379264	-1.096840429	-0.258909
N	-1.4350537873	-4.0396628545	-0.572644876	-0.092677
N	-1.3487918089	-4.1100481191	 0.7600362403	-0.302419
C	-1.3159095516	-2.8307379498	 1.1073372648	 0.308404
O	-1.2270482342	-2.4080356622	 2.3835126135	-0.426581
H	 0.7346452163	 1.879724816	 0.2418106143	 0.286786
H	 0.7355174918	-0.3162000766	-0.5738755176	 0.093367
H	 0.3273984208	-0.2277627902	 1.1534026047	 0.100244
H	-2.0915055877	-0.0853077565	 0.5563477579	 0.123711
H	-1.6834337618	-0.2304025241	-1.1554246679	 0.128898
H	-1.4937143224	-4.8670680116	-1.1411805575	 0.292167
H	-1.2086467241	-3.1879485814	 2.951676919	 0.309026
44.2517	94.5414	119.2114	248.3471	252.0196	304.0272	345.6138	367.1212	381.2123	442.3125	479.8402	697.8218	704.3453	760.3372	788.5978	820.801	981.1159	1010.384	1060.5795	1080.8016	1150.2797	1194.6671	1215.6134	1240.7577	1259.3248	1287.5721	1313.8912	1344.5695	1413.7406	1457.8776	1466.0339	1483.0315	1528.237	1589.3712	1595.3177	2975.1365	3007.1998	3049.5988	3108.4432	3685.5628	3801.7451	3833.3856
OCCC1=NNN=C1O	OCCc1n[nH]nc1O	
InChI=1S/C4H7N3O2/c8-2-1-3-4(9)6-7-5-3/h8H,1-2H2,(H2,5,6,7,9)	InChI=1S/C4H7N3O2/c8-2-1-3-4(9)6-7-5-3/h8H,1-2H2,(H2,5,6,7,9)
