20
gdb 119119	2.46747	1.18043	0.91098	5.3076	75.64	-0.2423	0.0216	0.2639	1344.4412	0.170388	-440.308067	-440.298536	-440.297592	-440.343084	35.085	
C	 3.3248880584	 0.8048229913	-1.3047382566	-0.396248
C	 2.7847818013	-0.5980790204	-1.5609170575	-0.120752
N	 1.3491845218	-0.6673477161	-1.260821051	-0.399379
H	 1.1413638501	-1.0585613651	 0.6130039024	 0.298518
H	 0.8392992948	 0.0412177879	-1.7749281248	 0.228542
C	 0.7257313356	-1.9671642447	-1.3775283912	 0.160483
C	-0.4443233338	-2.1765922761	-2.320277069	-0.292991
C	 0.8625348255	-2.8456077269	-2.6099949508	-0.282897
C	 0.6085913125	-2.6988953451	-0.0556291179	 0.426753
O	 0.9288377929	-1.9356922787	 0.9996765401	-0.383639
O	 0.2476101185	-3.8432600421	 0.0464237942	-0.358673
H	 2.8272663934	 1.5432771696	-1.9442249994	 0.116486
H	 3.1697617262	 1.1022550004	-0.263474124	 0.128762
H	 4.3957941994	 0.8484742815	-1.5216033694	 0.127052
H	 3.0049929343	-0.9002036413	-2.5969157751	 0.096956
H	 3.2920916956	-1.3209714797	-0.9120103842	 0.123245
H	-1.2607658379	-2.7849776211	-1.9501332231	 0.145882
H	-0.7371286861	-1.3310901235	-2.9349231904	 0.114471
H	 1.4623477558	-2.4616317187	-3.4270478948	 0.117344
H	 0.9381121614	-3.9103198111	-2.4265925578	 0.150087
57.4131	72.2464	108.7532	177.6488	242.2263	258.7844	266.5091	344.4644	370.9084	439.8625	511.1083	595.7702	702.0718	756.6112	768.3165	784.7078	817.7694	857.0256	888.607	927.4877	943.3026	969.0446	1006.8879	1065.6746	1081.4117	1096.34	1145.6657	1170.5901	1183.0522	1203.0121	1277.4496	1300.4554	1328.6537	1379.7863	1416.4856	1426.9268	1445.4756	1471.5797	1480.742	1495.9723	1498.2557	1521.831	1856.822	2978.3718	3034.5525	3058.692	3102.9011	3121.5857	3132.4025	3146.2154	3226.7525	3244.8727	3489.7578	3541.7029
CC[NH2+]C1(CC1)C([O-])=O	CCNC1(CC1)C(=O)O	
InChI=1S/C6H11NO2/c1-2-7-6(3-4-6)5(8)9/h7H,2-4H2,1H3,(H,8,9)	InChI=1S/C6H11NO2/c1-2-7-6(3-4-6)5(8)9/h7H,2-4H2,1H3,(H,8,9)
