18
gdb 13081	3.66988	1.46224	1.10749	4.1226	72.98	-0.2263	0.0332	0.2595	1068.9707	0.153956	-343.979558	-343.97123	-343.970286	-344.01269	29.987	
C	-0.0271645784	 1.5167984283	 0.0304425795	-0.338141
N	-0.0119388885	 0.0709990403	 0.1235599316	-0.066801
C	-1.2666780504	-0.631024125	 0.4556123133	-0.157668
C	-0.4447840478	-1.6372176544	 1.2963769992	-0.269186
C	 0.679224295	-0.5732160312	 1.2532158804	 0.069052
C	 2.1083401813	-1.0573524037	 0.9677643888	-0.346872
C	 3.0639329879	 0.0409429424	 0.8387349867	 0.26719
N	 3.8022684618	 0.9253841415	 0.7447342754	-0.315973
H	 0.9891121629	 1.8924875416	-0.1165758996	 0.148523
H	-0.628870907	 1.8213892471	-0.8321785423	 0.122641
H	-0.4492950073	 2.0007296103	 0.9312212122	 0.092288
H	-1.9453636308	-0.0290956417	 1.0820238199	 0.088987
H	-1.8260511773	-1.0089912844	-0.4062101044	 0.106277
H	-0.8325752517	-1.9084700553	 2.2781022178	 0.112382
H	-0.1864144986	-2.5427786724	 0.7423928687	 0.112092
H	 0.6806201274	 0.0486549525	 2.1640703256	 0.07433
H	 2.4424996265	-1.717392757	 1.7772324544	 0.148434
H	 2.109213305	-1.6388127889	 0.039943423	 0.152446
65.4133	100.8501	165.4737	212.1	263.7441	272.2585	378.0095	393.8241	429.9675	526.4065	672.3475	751.3177	835.8211	893.1564	938.9178	959.0306	974.9429	1019.1524	1079.5008	1106.3246	1138.815	1166.0435	1197.3917	1216.1039	1234.0562	1250.7738	1269.2464	1293.2766	1308.8882	1351.8575	1388.8243	1452.7401	1453.8286	1485.6878	1489.981	1498.994	1524.7389	2358.343	2931.4951	2958.5108	2970.7274	3042.5285	3062.088	3067.3491	3079.1248	3091.0771	3116.5154	3141.1545
CN1CCC1CC#N	CN1CC[C@H]1CC#N	
InChI=1S/C6H10N2/c1-8-5-3-6(8)2-4-7/h6H,2-3,5H2,1H3	InChI=1S/C6H10N2/c1-8-5-3-6(8)2-4-7/h6H,2-3,5H2,1H3/t6-/m1/s1
