18
gdb 65011	1.81399	1.71782	1.02423	3.0316	76.53	-0.2703	-0.0517	0.2186	1183.9979	0.145286	-401.957898	-401.94839	-401.947446	-401.992858	34.112	
C	-0.2820357942	 1.4386283276	 0.4723250908	-0.465773
C	-0.0133423245	 0.0129653017	 0.0265411774	 0.328652
C	 1.3491461504	-0.329553311	-0.5358150929	-0.302772
C	 0.9569303551	-0.8092877462	 0.8396038509	-0.318531
C	-1.2607813471	-0.6684854157	-0.5806690912	-0.288243
C	-1.5835232506	 0.0070658103	-1.9263408823	 0.172286
O	-2.4013428247	 0.8765940318	-2.0428678909	-0.23371
C	-1.0937812838	-2.1039938315	-0.7927530745	 0.267897
N	-0.9584124177	-3.233752218	-0.9966392307	-0.323627
H	 0.6350288519	 1.8936559889	 0.8561813333	 0.123026
H	-0.6519518356	 2.0630849482	-0.3463889519	 0.141173
H	-1.0296024916	 1.4649357419	 1.2733873539	 0.126217
H	 1.4167198517	-1.0777500871	-1.318243654	 0.13351
H	 2.0718978332	 0.4739265781	-0.6237546271	 0.121935
H	 1.4019071352	-0.3259507541	 1.7024250876	 0.120151
H	 0.7678785134	-1.8690500459	 0.9657868178	 0.143003
H	-2.1189261205	-0.5026447939	 0.0805729603	 0.143974
H	-0.9619766507	-0.3430374852	-2.7763815367	 0.110832
43.0237	77.1372	146.6957	175.2194	217.4867	224.865	328.7641	336.6306	349.7324	428.9735	478.2198	534.5251	542.5819	722.3961	788.2604	872.3309	913.2934	918.9982	955.5343	966.9259	1040.2604	1051.1571	1063.4568	1078.6812	1092.9981	1129.9814	1190.8488	1223.6053	1264.7686	1299.5377	1355.905	1416.8766	1428.6006	1468.5847	1491.6937	1497.9946	1508.1184	1838.6903	2355.3304	2921.5947	3034.6386	3056.6015	3099.4141	3118.0495	3135.9222	3140.3549	3217.0637	3230.8191
CC1(CC1)C(C=O)C#N	CC1(CC1)[C@@H](C=O)C#N	
InChI=1S/C7H9NO/c1-7(2-3-7)6(4-8)5-9/h5-6H,2-3H2,1H3	InChI=1S/C7H9NO/c1-7(2-3-7)6(4-8)5-9/h5-6H,2-3H2,1H3/t6-/m1/s1
