18
gdb 86688	2.31085	1.32933	0.93854	4.1381	80.33	-0.2441	0.0175	0.2616	1261.9939	0.145842	-401.925064	-401.915578	-401.914634	-401.960932	33.605	
C	-0.4958416335	 1.4523270218	-0.0329330414	-0.406786
C	 0.0422272392	 0.0322175847	-0.0441447705	-0.011289
C	 1.357188718	-0.2074312243	-0.8461444956	-0.182222
N	 1.9983074671	-0.6353696528	 0.3929057681	-0.02543
C	 3.2725883806	-1.0137238961	 0.6395360589	 0.131565
O	 4.1383809265	-1.0855397172	-0.208313565	-0.329465
C	 0.8125395683	-0.4672634981	 1.2472914394	-0.203532
C	 0.9530562348	 0.4531587688	 2.3647540736	 0.353909
C	 1.0597153625	 1.2049810766	 3.2967555767	-0.45196
H	 0.2805821082	 2.1697215233	 0.2481806779	 0.134609
H	-0.8669685542	 1.7223953615	-1.0270600658	 0.121768
H	-1.3213127807	 1.5586614607	 0.6772901443	 0.128008
H	-0.7459804279	-0.6732777107	-0.3145915492	 0.092564
H	 1.3165874572	-0.9873397503	-1.6129725937	 0.123935
H	 1.806389794	 0.6918494342	-1.2815216905	 0.125229
H	 3.4352157169	-1.2515891385	 1.7100149955	 0.076377
H	 0.4241193978	-1.4247455663	 1.6175509178	 0.115313
H	 1.1618534854	 1.8690753126	 4.1196365795	 0.207409
21.846	54.5011	133.0627	172.1273	217.2064	240.5477	297.2072	331.1581	384.4574	440.9274	521.9858	631.2395	636.27	667.7207	772.1455	790.7005	865.8558	909.0941	923.3621	1013.7876	1033.624	1081.9509	1112.3509	1138.9341	1164.5936	1198.0544	1242.5369	1271.9798	1311.4029	1350.7705	1365.7121	1403.0477	1417.7026	1446.0551	1492.2996	1494.3036	1519.6288	1789.5344	2233.5201	2934.9325	3014.6393	3037.866	3040.3639	3077.8781	3090.7966	3107.8766	3119.5277	3499.9999
CC1CN(C=O)C1C#C	C[C@H]1CN(C=O)[C@H]1C#C	
InChI=1S/C7H9NO/c1-3-7-6(2)4-8(7)5-9/h1,5-7H,4H2,2H3	InChI=1S/C7H9NO/c1-3-7-6(2)4-8(7)5-9/h1,5-7H,4H2,2H3/t6-,7-/m0/s1
