18
gdb 70288	4.09148	1.08121	0.95511	3.4719	82.18	-0.232	-0.0624	0.1697	1249.7309	0.147293	-401.948966	-401.940726	-401.939782	-401.981744	31.225	
C	 0.0163776583	 1.5274256902	 0.0450070167	-0.481079
C	-0.0148975761	 0.0199918894	-0.0158307309	 0.312972
C	-0.8464360953	-0.7996454043	 0.9222653545	-0.270885
N	 0.6069057053	-0.7749372163	 1.0840157436	-0.142809
C	 1.3005798788	-1.9224096175	 0.4537250172	-0.269447
C	 1.0264817289	-1.801226488	-1.0329907377	 0.209932
C	 1.4771791544	-2.7663492881	-2.0326319869	 0.073145
O	 2.0678295931	-3.7913003915	-1.7660415497	-0.27281
C	 0.3131683126	-0.6907428453	-1.279683314	-0.227513
H	 0.9849281534	 1.9163482682	-0.2857934349	 0.128207
H	-0.7606810803	 1.9586731795	-0.5958312543	 0.121863
H	-0.1550370775	 1.8692348726	 1.0683227184	 0.136103
H	-1.3964506106	-0.2986911465	 1.7154113181	 0.1194
H	-1.3179626748	-1.7001054104	 0.5334727078	 0.115231
H	 2.373914985	-1.8652970646	 0.6678764592	 0.128935
H	 0.9435643102	-2.8697255826	 0.8720694895	 0.132198
H	 1.2461543648	-2.4907793084	-3.0858879264	 0.06851
H	 0.0081231598	-0.3395889364	-2.2595731402	 0.118048
92.0628	165.6676	174.443	214.3331	243.9457	318.7476	400.2844	428.8904	492.526	506.3968	617.0105	714.0865	748.9378	779.3857	871.8981	890.2389	915.1476	941.3627	981.3363	1000.0605	1035.9422	1067.1133	1097.9855	1120.1657	1155.788	1184.2714	1210.8989	1269.7846	1330.7615	1348.0386	1357.0076	1415.7014	1419.8708	1484.726	1487.1766	1495.9169	1502.7495	1669.5912	1777.3174	2879.5391	3035.5478	3039.3644	3075.7048	3092.7445	3098.3381	3126.3547	3181.3415	3197.6401
CC12CN1CC(C=O)=C2	C[C@]12CN1CC(=C2)C=O	
InChI=1S/C7H9NO/c1-7-2-6(4-9)3-8(7)5-7/h2,4H,3,5H2,1H3	InChI=1S/C7H9NO/c1-7-2-6(4-9)3-8(7)5-7/h2,4H,3,5H2,1H3/t7-,8?/m0/s1
