21
gdb 59838	3.46768	0.64312	0.55956	0.5949	92.95	-0.2467	0.0406	0.2874	2005.6189	0.178828	-349.903116	-349.891993	-349.891049	-349.941732	39.469	
C	-1.1288604376	 0.1094214274	 0.261362499	-0.383174
C	 0.3421685167	-0.3174330972	 0.2109904309	 0.051023
C	 0.8749946142	-0.3250276691	-1.2264539516	-0.39066
C	 1.2280294844	 0.5910837452	 1.0999997003	-0.347167
C	 0.8754091615	 0.5548960234	 2.5150306971	 0.03009
C	 0.5664572116	 0.5021724121	 3.677045917	 0.131348
C	 0.1927644663	 0.4473724401	 5.0920920606	-0.493865
C	-1.2523139309	 0.3492465724	 5.3112779531	 0.319255
C	-2.4351059741	 0.267897685	 5.5008810737	-0.447394
H	-1.2552313301	 1.120429973	-0.1452984803	 0.108289
H	-1.7522625	-0.5670118463	-0.3322237981	 0.108884
H	-1.5061614963	 0.1102617727	 1.2875881591	 0.135127
H	 0.4179079791	-1.3357169075	 0.6139323668	 0.083952
H	 0.8342627928	 0.6792864582	-1.6653653587	 0.112548
H	 1.9150506689	-0.6659647922	-1.2691255448	 0.109833
H	 0.2786060152	-0.9873034993	-1.8619065713	 0.112343
H	 2.2784595498	 0.2944600235	 0.9813427912	 0.121544
H	 1.1618683266	 1.624335811	 0.7304219605	 0.122117
H	 0.6881926427	-0.406993564	 5.5741236047	 0.158032
H	 0.5751525014	 1.3382823642	 5.6096743219	 0.158901
H	-3.4817241121	 0.1967050974	 5.6644205089	 0.198975
9.0598	46.5903	75.0286	130.7911	217.2821	229.6116	256.6619	281.6413	319.1195	323.6662	363.5027	383.3576	415.4746	460.1341	584.9816	620.2914	646.3191	793.7106	819.2032	883.1382	931.8978	935.7439	940.0571	957.8773	969.6637	1126.5271	1139.5886	1159.0747	1191.3782	1230.28	1256.8947	1309.2396	1335.2976	1366.9201	1368.9157	1401.3033	1421.655	1454.4078	1468.755	1488.8381	1493.38	1503.5561	1510.8088	2245.9579	2373.3194	3003.8824	3005.1731	3018.9902	3022.9296	3028.371	3029.1356	3041.6507	3087.535	3093.6362	3100.9188	3115.7769	3507.4539	9.0559	46.5901	75.0285	130.791	217.2821	229.6119	256.6623	281.6416	319.1205	323.6672	363.5033	383.3595	415.4748	460.1348	584.9827	620.2925	646.3197	793.7108	819.2032	883.1382	931.8977	935.7445	940.0571	957.8773	969.6636	1126.5268	1139.5883	1159.075	1191.3779	1230.2819	1256.894	1309.2392	1335.2983	1366.9197	1368.9153	1401.3031	1421.6547	1454.4099	1468.754	1488.8377	1493.3795	1503.5557	1510.8084	2245.9585	2373.3196	3003.8824	3005.1729	3018.9903	3022.9297	3028.3708	3029.1356	3041.6508	3087.535	3093.6362	3100.9188	3115.777	3507.4533
CC(C)CC#CCC#C	CC(C)CC#CCC#C	
InChI=1S/C9H12/c1-4-5-6-7-8-9(2)3/h1,9H,5,8H2,2-3H3	InChI=1S/C9H12/c1-4-5-6-7-8-9(2)3/h1,9H,5,8H2,2-3H3
