13
gdb 123536	4.14176	1.79498	1.25227	4.7068	74.92	-0.244	-0.0773	0.1667	898.8945	0.093147	-411.784472	-411.778765	-411.77782	-411.814479	22.807	
C	 0.0775384212	 1.3697053482	 0.0092790572	 0.038321
N	 1.3500687905	 1.7887948541	-0.0008377007	-0.242748
N	 2.0575010932	 0.6559216452	-0.0142401409	 0.00866
N	 3.406462674	 0.6866189396	-0.0272880658	-0.056762
N	 4.0138955656	-0.4403432636	-0.0395803533	-0.193068
C	 3.323383305	-1.6252886241	-0.0394799502	 0.0452
C	 1.9601806622	-1.7075306549	-0.0265780662	-0.268265
C	 1.2542643228	-0.4929249907	-0.0128214624	 0.509012
C	-0.0518378312	-0.0264440753	 0.0025565899	-0.368435
H	-0.7114474355	 2.1077620383	 0.0212152493	 0.133883
H	 3.9553330731	-2.5046133195	-0.0506433532	 0.137502
H	 1.4390821612	-2.6573832376	-0.0268386746	 0.133845
H	-0.9534525523	-0.6159772795	 0.0080186308	 0.122856
218.7297	231.2416	411.2737	445.6288	594.5461	626.5013	629.6863	652.1815	756.0666	777.1295	792.2878	857.2268	898.8205	928.031	934.2882	984.3806	1043.6489	1071.5082	1180.8173	1198.4544	1240.8501	1269.4664	1301.0772	1330.5544	1416.2398	1454.5552	1484.4517	1558.733	1650.5005	3202.8708	3219.6196	3248.0867	3277.2819
C1=NN2N=NC=CC2=C1	c1nn2nnccc2c1	
InChI=1S/C5H4N4/c1-3-6-8-9-5(1)2-4-7-9/h1-4H	InChI=1S/C5H4N4/c1-3-6-8-9-5(1)2-4-7-9/h1-4H
