16
gdb 130407	2.73569	0.96327	0.74467	8.7661	71.88	-0.2232	-0.0751	0.1481	1493.5635	0.120718	-471.201988	-471.191287	-471.190342	-471.239492	36.465	
N	 0.2858987718	 0.4985714847	-1.1488576203	-0.595338
C	 0.0664950352	-0.3477505325	-0.1012362504	 0.339782
N	-1.007662833	-0.3043080551	 0.6279318969	-0.209
O	-0.9416212785	-1.3939884184	 1.5737012905	-0.247158
C	 0.2203786325	-2.0845689443	 1.422989376	 0.463275
O	 0.5286792115	-3.0242179147	 2.1029215091	-0.3507
C	 0.9512398559	-1.4400578482	 0.291640358	 0.09413
C	 2.1173757827	-1.8560545316	-0.1966395253	-0.4009
N	 3.1686156746	 1.4530695709	-1.6807297155	-0.701888
H	 3.6117739831	 1.1426437415	-2.5412641788	 0.256913
H	 3.1021775712	 2.465629649	-1.7457816453	 0.257389
H	 3.8283772106	 1.2613620142	-0.9315166631	 0.25797
H	 1.2545092554	 0.7698560972	-1.3325877071	 0.292599
H	-0.3768691984	 1.2596339059	-1.2048707181	 0.253888
H	 2.5970649972	-1.3682718198	-1.0376086262	 0.134673
H	 2.6086992582	-2.7148938986	 0.2496444296	 0.154365
29.1059	53.9077	61.5852	121.1866	159.384	232.8519	250.3703	270.3895	298.5043	334.5027	351.4291	508.4885	567.0632	582.7026	583.1501	726.5711	746.4245	772.6342	801.303	827.5709	889.4285	922.4758	992.2816	1132.9916	1140.9347	1175.6218	1234.7222	1420.4659	1492.3951	1638.5389	1671.5518	1676.2777	1691.3304	1733.4091	1861.8885	3153.6733	3247.7963	3372.1009	3470.5986	3584.9442	3588.2176	3618.2337
NC1=NOC([O-])=C1C[NH3+]	NC1=NOC(=O)C1=C.N	
InChI=1S/C4H7N3O2/c5-1-2-3(6)7-9-4(2)8/h8H,1,5H2,(H2,6,7)	InChI=1S/C4H4N2O2.H3N/c1-2-3(5)6-8-4(2)7;/h1H2,(H2,5,6);1H3
