13
gdb 45934	2.98841	1.54597	1.0705	2.5065	63.19	-0.2837	-0.0676	0.2161	1034.1149	0.089492	-489.914717	-489.907275	-489.906331	-489.947449	26.952	
N	 0.0323008835	 1.2141852622	 0.5570211476	-0.464509
C	 0.0194511657	 0.0526344903	 0.0682542499	 0.366086
O	 1.1467626845	-0.5846646071	-0.3612229916	-0.243494
C	 0.9831140413	-1.7389111676	-1.1780728833	-0.240132
C	-0.01838719	-2.7181538879	-0.6011406857	 0.410567
O	 0.0629878365	-3.9056858552	-0.6675131422	-0.28671
O	-1.1006658616	-2.1279444866	-0.0048512095	-0.223818
C	-1.2525218709	-0.7410137432	 0.0014885338	 0.305037
N	-2.3896889277	-0.2101896149	 0.0198660428	-0.43831
H	 0.9805849106	 1.5960693541	 0.5339945671	 0.239611
H	 0.662292635	-1.4575787961	-2.1914004902	 0.15515
H	 1.9549298961	-2.2261343416	-1.2430873103	 0.171946
H	-3.1206595129	-0.9245510064	-0.0028964985	 0.248577
55.9716	114.2184	165.2707	339.3529	384.7673	405.8836	461.3001	478.9683	569.6127	607.9611	674.4443	760.8077	813.2087	887.5128	908.2351	944.1162	989.067	1023.7909	1078.1596	1137.9588	1194.0764	1248.5005	1302.5973	1331.6471	1398.5062	1484.4922	1747.9369	1766.868	1890.3062	3016.1522	3153.3479	3470.8002	3476.511
N=C1OCC(=O)OC1=N	[NH][C]1OCC(=O)O[C]1[NH]	
InChI=1S/C4H4N2O3/c5-3-4(6)9-2(7)1-8-3/h5-6H,1H2	InChI=1S/C4H4N2O3/c5-3-4(6)9-2(7)1-8-3/h5-6H,1H2
