21
gdb 69545	2.71361	1.51067	1.364	1.8769	82.02	-0.2364	0.0777	0.3141	1083.4674	0.181852	-387.044366	-387.035947	-387.035003	-387.07664	33.762	
C	-0.0879497308	 1.5650788253	 0.0344462537	-0.498125
C	 0.0190057296	 0.0668495742	 0.0008181572	 0.350198
C	-0.8279363109	-0.8321064937	 0.8590985165	-0.351196
C	 0.6647018233	-0.9064283361	 1.0097064024	-0.143238
C	 1.2947017893	-1.6911389145	-0.1641331406	 0.462672
C	 2.7570437274	-2.0322925302	-0.0626670626	-0.479027
O	 0.4877065556	-2.7898513151	-0.6938821876	-0.339395
C	-0.0470181547	-1.9465379501	-1.746457866	-0.117732
C	 0.6671491259	-0.7088298535	-1.1766677909	-0.183593
H	 0.8540339501	 2.0428703425	-0.2593635241	 0.114857
H	-0.8673143743	 1.9236241336	-0.6496304647	 0.12005
H	-0.3434094066	 1.9192720175	 1.0385616806	 0.118334
H	-1.3402136404	-0.3203720489	 1.6685578738	 0.105586
H	-1.3702713919	-1.6819135405	 0.4594251294	 0.127727
H	 1.1630264343	-0.6983220888	 1.9508448698	 0.076076
H	 2.9076132366	-2.8215433271	 0.6828706973	 0.129089
H	 3.1439096455	-2.3900025636	-1.0211188332	 0.120823
H	 3.3374959945	-1.1575888236	 0.2488355309	 0.118262
H	 0.319946192	-2.2632098936	-2.7310615106	 0.098178
H	-1.143229907	-1.9377434166	-1.7597025404	 0.098968
H	 1.2794133326	-0.1036661873	-1.8456102809	 0.071487
134.5798	206.3584	211.9739	243.469	262.648	299.467	335.5688	351.3627	466.2346	519.0789	574.506	638.2857	731.3366	771.642	847.1602	872.9924	881.5158	917.5233	944.0607	975.1429	982.7445	995.489	1011.3756	1035.9935	1064.8366	1078.8635	1109.3617	1121.8994	1150.1134	1163.4146	1185.2606	1219.3613	1254.0083	1288.1052	1331.0785	1349.0435	1393.3811	1408.7489	1421.9672	1480.9355	1484.754	1487.8216	1497.1809	1500.8395	1519.4391	3011.3413	3017.0392	3030.8319	3055.9444	3073.5506	3094.6701	3098.1652	3109.149	3113.1608	3127.8324	3161.87	3209.2538
CC12CC1C1(C)OCC21	C[C@]12C[C@H]1[C@@]1(C)OC[C@@H]21	
InChI=1S/C8H12O/c1-7-3-5(7)8(2)6(7)4-9-8/h5-6H,3-4H2,1-2H3	InChI=1S/C8H12O/c1-7-3-5(7)8(2)6(7)4-9-8/h5-6H,3-4H2,1-2H3/t5-,6+,7+,8-/m1/s1
