15
gdb 129936	3.31348	1.17514	0.87494	3.7291	71.84	-0.2016	0.0084	0.2101	1250.478	0.11411	-450.130423	-450.12186	-450.120916	-450.16431	30.568	
N	 0.0733848319	 1.4207377171	 0.2156597715	-0.622155
C	 0.0140751537	 0.0311462725	 0.0329398875	 0.085245
C	-1.0667498394	-0.8285819269	 0.0823709555	-0.080597
N	-0.5697372418	-2.0873602425	-0.0758236985	-0.20523
N	 0.7675092406	-2.1151569739	-0.2333109277	-0.315078
C	 1.1119406703	-0.8387492552	-0.1604851037	 0.412277
O	 2.3911784087	-0.3843590175	-0.2867135589	-0.229736
C	 3.414966252	-1.2261748079	 0.0298688918	 0.114306
N	 4.5947133071	-0.8542778345	-0.2065231475	-0.436452
H	 0.9846359164	 1.7796494666	-0.041898072	 0.257946
H	-0.6375779719	 1.9211700591	-0.3024627595	 0.246185
H	-2.1197682259	-0.6428875706	 0.2184307592	 0.132482
H	-1.0812147646	-2.949915502	-0.1247375739	 0.277647
H	 3.0724713867	-2.1628676063	 0.4755806337	 0.129206
H	 5.2481269261	-1.5708089679	 0.1038798626	 0.233955
59.5101	97.3101	155.103	175.3231	272.0836	280.9085	323.5795	413.8047	475.5354	537.6164	640.2904	683.3339	712.5719	745.5946	797.3094	826.5099	854.6616	947.5124	1045.6749	1052.177	1075.9138	1119.4227	1214.8521	1270.9652	1291.6619	1344.0839	1404.8093	1437.2506	1489.1735	1549.3339	1646.0983	1660.7268	1744.4093	3108.3794	3267.1868	3516.9687	3533.0361	3620.6845	3697.3122
NC1=CNN=C1OC=N	Nc1c[nH]nc1O[CH][NH]	
InChI=1S/C4H6N4O/c5-2-9-4-3(6)1-7-8-4/h1-2,5H,6H2,(H,7,8)	InChI=1S/C4H6N4O/c5-2-9-4-3(6)1-7-8-4/h1-2,5H,6H2,(H,7,8)
