16
gdb 89948	3.16945	1.31305	1.08871	3.1703	69.76	-0.267	0.0072	0.2742	1095.8114	0.124182	-437.852476	-437.844395	-437.843451	-437.885443	29.882	
O	-0.2358369339	 1.5504454329	 0.2626869369	-0.42101
C	-0.029017426	 0.1841472885	 0.058752998	 0.138674
C	 0.4331864417	-0.7153226561	 1.2514623463	-0.340253
C	-0.7503223873	-1.6953697971	 0.9526231187	 0.135282
C	-2.0228589442	-1.3545729637	 1.7575861617	-0.111588
O	-2.3460665558	-0.2711904197	 0.8635801238	-0.272826
C	-1.322726848	-0.6407017856	-0.0694748066	 0.053168
C	-0.4460514549	-3.0680142028	 0.6464771632	 0.188238
N	-0.198546875	-4.1704966868	 0.3976786574	-0.339436
H	 0.6098621468	 2.0044201988	 0.1955807591	 0.292924
H	 0.5998298936	-0.0152413202	-0.8219943407	 0.08529
H	 1.4286873651	-1.1495724574	 1.1541659741	 0.127235
H	 0.3365440326	-0.2318071383	 2.2258642009	 0.122969
H	-2.7866404436	-2.1407357372	 1.7326726548	 0.12392
H	-1.8643092739	-1.0208644096	 2.7887808296	 0.11974
H	-1.7170950072	-0.8692399758	-1.0623621572	 0.097673
65.7516	152.6702	173.7936	223.2237	236.6134	351.1428	389.3802	456.2243	540.7408	565.4975	604.6116	654.1305	803.8248	868.0183	898.0693	924.5137	966.4702	1013.098	1023.9927	1067.4363	1089.9651	1138.9818	1171.6227	1175.7578	1195.9513	1209.2092	1244.302	1277.3838	1318.6284	1330.0744	1367.4247	1437.5329	1474.5197	1522.313	2349.0871	2989.8484	3024.5426	3076.8905	3080.1877	3088.5857	3142.6144	3825.1057
OC1CC2(COC12)C#N	O[C@H]1C[C@]2(CO[C@@H]12)C#N	
InChI=1S/C6H7NO2/c7-2-6-1-4(8)5(6)9-3-6/h4-5,8H,1,3H2	InChI=1S/C6H7NO2/c7-2-6-1-4(8)5(6)9-3-6/h4-5,8H,1,3H2/t4-,5-,6+/m0/s1
