19
gdb 102489	2.86841	0.87599	0.75976	3.1498	69.09	-0.2597	-0.0336	0.2261	1509.6172	0.156768	-497.299502	-497.289124	-497.28818	-497.335762	36.549	
O	 0.1696174819	 1.3617458883	 0.2020429374	-0.423009
C	 0.0808786078	-0.0226407278	-0.0180745639	-0.052181
C	-1.3872457235	-0.5398456131	 0.0150119517	-0.130508
C	-2.1538974918	-0.1372952244	-1.2478155709	-0.088476
O	-2.1063121171	 1.2849484522	-1.3679337281	-0.427929
C	-1.3735778625	-2.0477302954	 0.1555561183	 0.347428
O	-1.2194511044	-2.7929671276	-0.7925970677	-0.340813
C	-1.5298309484	-2.6417363825	 1.546241621	-0.135417
O	-1.3836483648	-4.0279860529	 1.5324862314	-0.419111
H	-0.4428653549	 1.7732471371	-0.4230595328	 0.293117
H	 0.5289153687	-0.3283976153	-0.9778645596	 0.101101
H	 0.6623192804	-0.5031945282	 0.7767679704	 0.111236
H	-1.8619089782	-0.0941509763	 0.8972271411	 0.102183
H	-1.689769593	-0.6269931098	-2.1127650495	 0.123259
H	-3.1958836382	-0.4828355621	-1.1851468591	 0.10396
H	-2.4450491278	 1.5318587083	-2.2332853195	 0.298972
H	-0.7965649443	-2.1667861085	 2.2186011478	 0.123604
H	-2.5239228881	-2.3385861374	 1.9215633172	 0.118059
H	-1.2780628519	-4.2601333346	 0.595623955	 0.294523
39.3889	94.0215	105.1654	121.3257	200.0833	217.3261	261.0949	273.0606	344.8104	356.3191	388.8282	426.4132	493.5774	556.4884	569.0165	749.6356	843.704	903.3194	931.8884	975.3836	1036.0461	1063.4548	1093.5457	1102.2698	1134.1325	1153.96	1215.2344	1242.505	1252.0478	1287.9763	1295.1728	1315.1137	1372.0902	1380.9099	1448.4504	1458.3618	1468.6833	1487.5746	1507.4677	1524.3264	1781.1259	2955.3231	2971.8853	2988.1833	2997.8033	3042.7787	3057.5681	3064.6051	3682.3317	3745.4241	3835.7912
OCC(CO)C(=O)CO	OCC(CO)C(=O)CO	
InChI=1S/C5H10O4/c6-1-4(2-7)5(9)3-8/h4,6-8H,1-3H2	InChI=1S/C5H10O4/c6-1-4(2-7)5(9)3-8/h4,6-8H,1-3H2
