14
gdb 73784	2.47424	1.74203	1.02492	3.5923	72.79	-0.2108	-0.0609	0.1499	1070.506	0.102605	-470.072096	-470.064041	-470.063097	-470.104397	30.448	
N	 0.0419819448	 1.3870445355	 0.196600027	-0.615139
C	-0.0391118238	 0.0257100097	 0.0388774322	 0.191711
C	-1.1075903641	-0.801322597	-0.0663626054	 0.079482
N	-2.466984193	-0.532172455	-0.1362086488	-0.618517
C	-0.6011379132	-2.1742604102	-0.150586542	 0.406306
O	-1.2087098025	-3.2031402527	-0.2363010774	-0.344814
O	 0.7962930497	-2.1336104096	-0.1059562237	-0.23884
C	 1.1680841498	-0.8086342067	 0.0073169877	 0.386678
N	 2.3531790003	-0.3761049113	 0.057034284	-0.545932
H	 0.9798963172	 1.7443794621	 0.0686606896	 0.275335
H	-0.6644647275	 1.9303353646	-0.2789843159	 0.260043
H	-2.7939890548	 0.1520830114	 0.5342865298	 0.255367
H	-3.0147631967	-1.3829655727	-0.0837065631	 0.266583
H	 3.0328903636	-1.1348629881	 0.0039816059	 0.241736
135.0187	168.3021	223.1805	258.1583	280.7142	308.1941	372.705	389.362	534.1604	540.0794	635.7663	651.8361	680.1029	704.968	730.5334	743.188	779.4238	884.7483	926.4421	997.8652	1055.2045	1122.0237	1278.1856	1296.2145	1383.0005	1434.9992	1634.7998	1641.3526	1753.547	1763.5511	1882.2349	3499.8302	3526.1439	3546.6776	3621.9937	3653.8066
NC1=C(N)C(=O)OC1=N	NC1=C(OC(=O)[C]1N)[NH]	
InChI=1S/C4H5N3O2/c5-1-2(6)4(8)9-3(1)7/h7H,5-6H2	InChI=1S/C4H5N3O2/c5-1-2(6)4(8)9-3(1)7/h7H,5-6H2
