20
gdb 18470	3.29911	1.48374	1.29988	1.885	74.59	-0.2466	0.0781	0.3246	1039.5273	0.177329	-348.967404	-348.959071	-348.958126	-349.000107	31.671	
C	 0.7699246617	 0.6129845788	-1.7457310071	-0.416048
C	 1.2565135305	-0.6874265083	-1.1153580399	 0.050032
C	 2.7580222491	-1.129333428	-1.2097526196	-0.266395
C	 2.7607129515	-1.3932963474	 0.3051921719	-0.085102
C	 2.4663497962	-0.1423000228	 1.0932730235	-0.015672
C	 3.0480830316	 1.2251931086	 0.8082427833	-0.096561
O	 4.3065091084	 1.3907159386	 1.4519944728	-0.421401
C	 1.3244108876	-0.8537154692	 0.4124229672	-0.10903
H	 1.3418484592	 1.482364554	-1.4114166045	 0.121287
H	 0.8440597169	 0.5661059713	-2.8382484574	 0.112812
H	-0.2813504128	 0.7939711689	-1.4945679098	 0.114827
H	 0.6453709569	-1.5068648059	-1.5092237164	 0.077748
H	 2.8944627123	-2.0327267164	-1.8075890716	 0.102542
H	 3.4676749761	-0.376529238	-1.5691769395	 0.094065
H	 3.1808279686	-2.2759693225	 0.7728741156	 0.084462
H	 2.4577275926	-0.3367260273	 2.1653402411	 0.092943
H	 3.1358160801	 1.4126012768	-0.2697350764	 0.088908
H	 2.401286407	 2.0072073045	 1.2208246457	 0.109242
H	 4.8681490187	 0.6634556468	 1.1633450156	 0.280538
H	 0.5065632576	-1.2430074126	 1.0093934255	 0.080804
74.3375	148.8844	183.5804	206.92	253.2955	304.3368	342.8068	404.8961	482.0201	578.0042	672.4454	744.9884	779.9803	838.4364	863.1068	914.8678	961.804	965.5578	996.6806	1007.8526	1038.8766	1058.4887	1080.3094	1100.8304	1123.5178	1136.1963	1181.3897	1204.9623	1233.7326	1246.9144	1274.8737	1305.0727	1334.8345	1363.6823	1381.1367	1409.2852	1413.0224	1456.8529	1488.333	1494.4113	1497.9626	1513.2496	3012.6458	3029.989	3038.5343	3046.4942	3067.3902	3088.8617	3105.9446	3118.2876	3120.2316	3161.6071	3178.7512	3806.995
CC1CC2C(CO)C12	C[C@H]1C[C@H]2[C@@H](CO)[C@@H]12	
InChI=1S/C7H12O/c1-4-2-5-6(3-8)7(4)5/h4-8H,2-3H2,1H3	InChI=1S/C7H12O/c1-4-2-5-6(3-8)7(4)5/h4-8H,2-3H2,1H3/t4-,5-,6+,7-/m0/s1
