19
gdb 37059	3.18859	1.69425	1.45039	1.5644	78.8	-0.2315	0.014	0.2455	959.2916	0.162387	-385.887499	-385.880677	-385.879733	-385.918257	28.551	
C	 0.0159268507	 1.4400087675	-0.0166773408	-0.362453
C	 1.3377431394	 0.7160274275	-0.0181046677	 0.267555
C	 1.9678770446	 0.5040573601	 1.3438495019	-0.15745
O	 0.9113106918	 0.0412392592	 2.1904383669	-0.26004
C	-0.0194725316	-0.7067959922	 1.401061421	-0.1572
C	 0.036794527	-0.0755328781	 0.0245533231	 0.255826
C	-0.0360468831	-0.7805382929	-1.2863307623	-0.188356
C	 1.0233161749	-0.4939559164	-2.051259789	-0.061945
C	 2.0197090085	 0.4191081418	-1.3510241949	-0.37178
H	-0.2599683751	 1.9633058708	 0.8939369703	 0.121522
H	-0.3154810187	 1.9058687984	-0.9382764606	 0.111214
H	 2.7765974503	-0.2421294566	 1.2676020787	 0.088054
H	 2.3743815743	 1.4041087561	 1.8174376137	 0.106612
H	 0.2682325538	-1.7690004921	 1.3401074904	 0.090744
H	-0.9867457767	-0.6379641114	 1.9095825415	 0.105821
H	-0.8662123749	-1.4124910275	-1.5820939696	 0.096609
H	 1.1697549179	-0.8394506311	-3.0695557495	 0.094847
H	 2.2285024495	 1.3236286251	-1.9357257343	 0.112671
H	 2.9871717073	-0.0820635282	-1.2069643189	 0.107752
198.9406	216.3036	270.2342	339.4131	396.3471	460.2911	533.8558	590.6914	610.3545	735.7036	754.213	799.9476	808.5736	897.7043	922.5238	928.4878	945.3676	960.0406	963.6183	974.768	1019.887	1062.6968	1069.0107	1082.7144	1124.3802	1146.6596	1183.3438	1224.8857	1239.3765	1252.6013	1262.671	1319.2842	1344.1354	1354.2566	1396.1287	1404.389	1467.7641	1482.2496	1511.4552	1522.6008	1656.6048	2963.5752	2974.0739	3010.9995	3045.1469	3063.093	3067.4415	3124.0978	3177.298	3202.6534	3216.8849
C1C23COCC12C=CC3	C1[C@@]23COC[C@@]12C=CC3	
InChI=1S/C8H10O/c1-2-7-4-8(7,3-1)6-9-5-7/h1-2H,3-6H2	InChI=1S/C8H10O/c1-2-7-4-8(7,3-1)6-9-5-7/h1-2H,3-6H2/t7-,8+/m1/s1
