21
gdb 75213	2.65498	1.51466	1.21321	1.6401	83.76	-0.2347	0.0207	0.2554	1135.3235	0.182647	-387.097334	-387.088675	-387.08773	-387.130292	33.498	
C	 0.3860395088	 1.4444751902	 0.0709075159	-0.5006
C	 0.04860372	-0.0086480134	-0.0323486526	 0.323567
C	 0.0363009905	-0.7778011574	-1.125666296	-0.166965
C	-0.3331039235	-2.2174905397	-0.8578254429	-0.337155
C	-0.4334457855	-2.2841764504	 0.6820536986	 0.295374
C	-1.5948710087	-3.1104868135	 1.2112966353	-0.483174
C	 0.9091151065	-2.4826488101	 1.4346653977	-0.118399
O	 0.8585956942	-1.1569795527	 2.0050661775	-0.297831
C	-0.2978676526	-0.8226796365	 1.1892805217	-0.00509
H	 1.2252063335	 1.5928996365	 0.760973084	 0.141941
H	 0.6578923045	 1.8701107624	-0.8988593623	 0.120617
H	-0.4569582725	 2.0207284286	 0.4733925616	 0.123369
H	 0.2656458619	-0.4198047283	-2.1253400973	 0.088127
H	-1.2851694106	-2.4864215957	-1.3367359379	 0.101334
H	 0.4127242145	-2.9201119553	-1.2535557318	 0.103019
H	-1.4946946782	-4.1627996144	 0.920500917	 0.116448
H	-1.6460082543	-3.0693781399	 2.3044382688	 0.122008
H	-2.5496770154	-2.7468282683	 0.8152477104	 0.116833
H	 0.9136844777	-3.2566535177	 2.2118337463	 0.096747
H	 1.7850301122	-2.619594726	 0.7865819661	 0.094417
H	-1.092690473	-0.3873999387	 1.8091563698	 0.065415
83.0117	177.3148	200.1111	236.305	245.5825	250.7474	325.645	347.424	418.2746	543.5836	561.8859	631.4971	715.0305	822.7323	871.5676	892.893	916.147	927.2872	953.6371	974.6384	987.5889	1003.1756	1017.9532	1034.9802	1066.4335	1128.0132	1154.709	1174.9042	1181.4963	1240.9316	1250.7337	1277.5496	1303.1894	1327.1688	1356.5222	1371.5771	1409.7763	1413.5207	1478.4349	1488.2065	1491.5533	1494.8419	1497.4808	1519.1203	1716.5045	3002.5205	3004.7846	3017.7218	3020.937	3024.8463	3030.106	3052.4144	3071.0489	3087.3543	3096.6297	3110.9317	3171.7953
CC1=CCC2(C)COC12	CC1=CC[C@@]2(C)CO[C@@H]12	
InChI=1S/C8H12O/c1-6-3-4-8(2)5-9-7(6)8/h3,7H,4-5H2,1-2H3	InChI=1S/C8H12O/c1-6-3-4-8(2)5-9-7(6)8/h3,7H,4-5H2,1-2H3/t7-,8-/m0/s1
