19
gdb 35709	2.36518	1.33383	0.94873	2.0038	80.98	-0.2523	0.0235	0.2758	1265.1961	0.158218	-385.81538	-385.806491	-385.805547	-385.849928	32.95	
C	-0.1797573111	-1.1568941108	-0.3418052352	-0.472336
C	-0.0826989755	 0.024101123	-0.1379027004	 0.367611
C	 0.0290388008	 1.4544335294	 0.1037902994	-0.080578
O	-0.1308786715	 1.8123824276	 1.4991080314	-0.276963
C	 1.2289549115	 2.2867475899	 1.5932267767	-0.088504
C	 1.4649265588	 2.0849198581	 0.0798915777	-0.061107
C	 2.6315522714	 1.2514018079	-0.3603118093	 0.019724
C	 3.1246460548	 1.3197038136	-1.7846077697	-0.268535
C	 3.9527218727	 1.9137331094	-0.6740579432	-0.280724
H	-0.2738876307	-2.1996387481	-0.5204792437	 0.20105
H	-0.7029972192	 1.9865927105	-0.5166896147	 0.103185
H	 1.2780735227	 3.3155710258	 1.9667283709	 0.103508
H	 1.8419942703	 1.6418619748	 2.2365556073	 0.103279
H	 1.4544719532	 3.0316785429	-0.4673592271	 0.080578
H	 2.6861847672	 0.2752629624	 0.112572643	 0.096077
H	 3.4660580129	 0.4028008991	-2.2511557883	 0.116657
H	 2.6233379258	 2.0017559125	-2.4636864813	 0.111318
H	 4.0090266528	 2.995373028	-0.6055837184	 0.111039
H	 4.8632898432	 1.4047119139	-0.378642935	 0.114721
44.1467	78.9421	114.9548	193.1777	214.0335	285.475	343.5179	417.5764	529.6108	569.3835	626.362	668.5963	731.7043	799.5125	816.046	832.0212	893.844	919.7848	933.6193	981.4897	997.6757	1022.4815	1057.6391	1060.9183	1080.8609	1095.4717	1135.689	1158.9593	1191.3449	1198.536	1226.534	1252.9793	1263.384	1307.8731	1350.434	1358.9401	1440.6231	1472.0871	1507.7828	1525.7834	2230.5781	3011.6784	3021.1614	3056.9424	3073.9215	3130.8399	3135.7405	3152.6564	3209.2619	3224.515	3502.3683
C#CC1OCC1C1CC1	C#C[C@H]1OC[C@H]1C1CC1	
InChI=1S/C8H10O/c1-2-8-7(5-9-8)6-3-4-6/h1,6-8H,3-5H2	InChI=1S/C8H10O/c1-2-8-7(5-9-8)6-3-4-6/h1,6-8H,3-5H2/t7-,8+/m0/s1
