17
gdb 35998	5.05111	0.55417	0.54042	3.6976	81.62	-0.2537	0.0149	0.2686	2013.2404	0.135484	-380.823156	-380.813695	-380.81275	-380.860619	32.538	
N	 0.0853773054	-0.8099716369	-1.2767167155	-0.30075
C	 0.088632657	 0.183270712	-0.6881640594	 0.278646
C	 0.0778909626	 1.4462332511	 0.0629142471	-0.471317
C	 1.4127169309	 2.0079727483	 0.2545685422	 0.081991
C	 2.5115913136	 2.4693312391	 0.4124346269	 0.099941
C	 3.8398380118	 3.0510763173	 0.5896137434	-0.392334
C	 3.9290562511	 4.4917529848	 0.1077257893	 0.045739
C	 5.1996723337	 5.0004837729	-0.4619703029	-0.247333
N	 4.0210482282	 4.7950422117	-1.324020938	-0.304776
H	-0.5646928149	 2.1566961578	-0.4731011253	 0.184093
H	-0.4085918904	 1.2638993583	 1.0298772057	 0.180993
H	 4.1219723565	 3.0042829622	 1.6499529241	 0.140534
H	 4.5780277275	 2.441456978	 0.0509554161	 0.131397
H	 3.2890655817	 5.1813312486	 0.6538775812	 0.10353
H	 5.4890036448	 6.0375057777	-0.3190430499	 0.123864
H	 6.033408906	 4.3065516082	-0.5405020117	 0.112563
H	 4.1227469845	 3.9342901588	-1.8574860833	 0.233219
8.4158	54.6847	77.6185	119.5709	214.5585	285.7604	344.38	366.5685	381.177	391.1097	500.2559	574.9375	780.4598	803.4592	829.4598	923.0925	923.9074	936.7614	941.6691	975.9563	1050.4439	1125.5094	1148.951	1162.4718	1176.8553	1234.3102	1245.0644	1266.0521	1311.2496	1323.1315	1338.1136	1419.5384	1448.7019	1459.9766	1513.7658	2370.4828	2383.0446	3011.6062	3024.9192	3044.7033	3054.8287	3106.2848	3132.4845	3191.7898	3492.6621
N#CCC#CCC1CN1	N#CCC#CC[C@H]1CN1	
InChI=1S/C7H8N2/c8-5-3-1-2-4-7-6-9-7/h7,9H,3-4,6H2	InChI=1S/C7H8N2/c8-5-3-1-2-4-7-6-9-7/h7,9H,3-4,6H2/t7-/m0/s1
