18
gdb 31156	2.05735	1.75781	1.00731	1.1943	76.1	-0.1902	0.0335	0.2236	1184.5084	0.146848	-439.097748	-439.088264	-439.087319	-439.131927	34.323	
C	-0.2198302063	 1.4042062052	 0.1023659895	-0.258547
O	 0.031923781	 0.0065239757	-0.0498118438	-0.286709
C	 0.6705782232	-0.561089014	 1.0179725186	 0.137795
C	 1.974497196	-0.9521169873	 1.0810142717	 0.27935
C	 3.0874114434	-0.8802825572	 0.1023807451	-0.496019
O	 2.2093768037	-1.5279816233	 2.2896102685	-0.193186
C	 1.0344351709	-1.5041270882	 3.001915311	-0.110876
C	 0.049148979	-0.921038915	 2.2674843257	 0.148839
N	-1.2835425225	-0.6282645887	 2.5898919684	-0.617992
H	 0.720090189	 1.9658747531	 0.1749188447	 0.115929
H	-0.7656825497	 1.7226067449	-0.7887045222	 0.125261
H	-0.823473188	 1.605957124	 0.9951484018	 0.133344
H	 3.9241366214	-0.2803310167	 0.478673352	 0.133537
H	 3.4790031672	-1.8756349275	-0.1373039435	 0.135873
H	 2.7204951335	-0.4248206684	-0.8203307992	 0.140081
H	 1.0733484539	-1.9294374093	 3.9902100818	 0.118614
H	-1.6420003761	-1.1965328939	 3.3465449549	 0.24441
H	-1.8857199696	-0.7299704534	 1.781091965	 0.250297
84.3892	140.2066	149.7725	167.3673	191.8546	234.0625	252.3224	295.4963	343.0039	451.2946	526.7713	571.0405	608.2784	655.4726	695.1563	739.3431	759.3115	803.1145	947.7304	1038.0752	1053.9403	1064.4042	1126.4812	1151.556	1180.7246	1201.2124	1231.5453	1306.1494	1331.6894	1409.8498	1455.2804	1476.3334	1484.8929	1486.8483	1492.384	1510.0709	1625.938	1647.6366	1702.0359	3010.5262	3027.0596	3075.8763	3076.4151	3124.9969	3128.9372	3279.4792	3525.1428	3617.56
COC1=C(C)OC=C1N	COc1c(C)occ1N	
InChI=1S/C6H9NO2/c1-4-6(8-2)5(7)3-9-4/h3H,7H2,1-2H3	InChI=1S/C6H9NO2/c1-4-6(8-2)5(7)3-9-4/h3H,7H2,1-2H3
