15
gdb 123379	3.63775	1.04038	0.95588	1.1732	71.82	-0.2151	0.0032	0.2183	1231.1679	0.114181	-412.943474	-412.935269	-412.934324	-412.977497	29.726	
C	 0.3637717343	-0.1123811748	-1.2092887777	-0.453886
C	 0.140116332	 0.5667788236	-0.2433115062	 0.315187
C	-0.0932740201	 1.3997477388	 0.9420845132	-0.334135
N	 1.0183437553	 2.2638280242	 1.3262351754	-0.367791
C	 1.3922491607	 3.2866089323	 0.466751794	 0.375873
N	 2.6282540594	 3.7901367143	 0.4860800621	-0.308708
N	 2.5602773019	 4.778133617	-0.4105357562	-0.074618
N	 1.4011834776	 4.953455968	-1.013282518	-0.192858
C	 0.6261649604	 4.0103263326	-0.4740268223	-0.116626
H	 0.5569583247	-0.7094430463	-2.0661597171	 0.204094
H	-0.9795826037	 2.0259062315	 0.787009299	 0.149177
H	-0.325719086	 0.7608459264	 1.8006867907	 0.144207
H	 1.8218441403	 1.7548616801	 1.6701886271	 0.249729
H	 3.3593506849	 5.3533332991	-0.6170763764	 0.291023
H	-0.3997517817	 3.8935801631	-0.7805006477	 0.119332
39.9781	57.1075	182.3319	214.737	327.0975	344.8139	419.1929	445.394	598.3999	603.9101	627.9575	666.6988	705.0142	721.4649	744.6162	832.1671	925.5626	981.0234	999.6712	1027.1115	1113.9811	1178.0429	1205.3877	1240.5346	1291.8185	1349.9151	1374.4199	1412.4184	1469.0076	1493.323	1523.6626	1604.1877	2233.6059	3040.4657	3075.0283	3279.5449	3504.4062	3583.6041	3682.2766
C#CCNC1=NNN=C1	C#CCNc1n[nH]nc1	
InChI=1S/C5H6N4/c1-2-3-6-5-4-7-9-8-5/h1,4H,3H2,(H2,6,7,8,9)	InChI=1S/C5H6N4/c1-2-3-6-5-4-7-9-8-5/h1,4H,3H2,(H2,6,7,8,9)
