13
gdb 129942	3.35203	1.69745	1.12836	3.4362	66.93	-0.2134	-0.0254	0.1879	976.6371	0.09168	-452.721479	-452.714811	-452.713866	-452.752452	25.861	
N	 0.0455890355	 1.4262661498	 0.161347025	-0.611374
C	 0.0236683658	 0.036582288	 0.0396995318	 0.055574
C	-1.0541494934	-0.8161114937	-0.001468683	-0.078418
O	-0.6930890422	-2.1543171955	-0.0303901812	-0.208559
C	 0.6567090991	-2.1328732196	-0.0168841027	 0.224531
C	 1.1390567591	-0.8582603663	 0.029484253	 0.323514
O	 2.4787742361	-0.8599558819	 0.0358943577	-0.243436
N	 2.8900131729	-2.2160454397	-0.0088200773	-0.141329
C	 1.7984857673	-2.9573548058	-0.0391054404	-0.11472
H	 0.8280163453	 1.8530482212	-0.3168610481	 0.260515
H	-0.8170860275	 1.8698206957	-0.124067988	 0.252274
H	-2.1148754344	-0.627159311	-0.003169064	 0.135358
H	 1.9025943563	-4.0313401115	-0.0746267629	 0.146071
177.6397	211.981	261.7945	267.3339	428.3603	535.9701	590.3665	610.8593	623.9982	678.3395	690.9581	718.0616	751.9683	801.0944	847.4766	888.57	959.9889	1085.9849	1095.3446	1152.8451	1204.5843	1273.8224	1321.779	1430.3594	1459.3979	1534.9097	1604.0605	1644.591	1671.148	3256.5401	3277.2461	3546.5637	3638.8096
NC1=COC2=C1ON=C2	Nc1coc2c1onc2	
InChI=1S/C5H4N2O2/c6-3-2-8-4-1-7-9-5(3)4/h1-2H,6H2	InChI=1S/C5H4N2O2/c6-3-2-8-4-1-7-9-5(3)4/h1-2H,6H2
