21
gdb 111996	2.69223	1.28006	1.1113	1.4041	83.34	-0.2225	0.0218	0.2443	1200.46	0.183351	-387.079615	-387.070857	-387.069913	-387.112741	34.054	
C	-0.4489191714	 1.2598699385	-0.2157650167	-0.415276
C	-0.1435057994	-0.175335018	 0.1539194948	 0.006098
C	 1.1573856131	-0.8878929886	-0.1872221324	-0.111166
C	 2.3562998829	-0.024237345	-0.3970373726	-0.086799
C	 2.7084317661	 0.6228968188	 0.7165907914	-0.082866
C	 1.8393554479	 0.2346881379	 1.8980753028	-0.018495
C	 1.3249373029	 1.4073662712	 2.7348643716	-0.09178
O	 2.4588417178	 2.030742833	 3.3269682739	-0.424031
C	 0.7637487006	-0.6576749534	 1.2694912527	-0.109715
H	 0.4491977375	 1.8803507143	-0.2339741652	 0.125814
H	-0.9032079628	 1.3044334866	-1.212412479	 0.109575
H	-1.1591878569	 1.7072005542	 0.4886227668	 0.110736
H	-1.0102545266	-0.8247119659	 0.0428579899	 0.081998
H	 1.1082574285	-1.8645829617	-0.6577552643	 0.081058
H	 2.8454048654	 0.0744431847	-1.3601331891	 0.090426
H	 3.5087430158	 1.3464964522	 0.8126209178	 0.103521
H	 2.439471162	-0.3733120863	 2.592434695	 0.090452
H	 0.7671688049	 2.1160254137	 2.1082514927	 0.090504
H	 0.6334872954	 1.0286438183	 3.5044010743	 0.083838
H	 2.1594076066	 2.810447396	 3.8031106649	 0.286035
H	 0.3909947696	-1.4798434905	 1.8703829809	 0.080072
104.8875	140.5146	174.2954	232.4743	249.2322	254.5611	291.0548	376.3415	459.0548	516.2603	588.5008	713.0512	721.8604	759.6016	794.8938	805.7346	870.8928	906.5729	956.4524	966.5046	995.5053	1020.7488	1044.3319	1068.5321	1079.242	1093.2356	1100.0638	1118.9872	1131.3034	1147.8764	1232.2156	1239.2613	1239.8289	1303.5959	1315.0214	1339.7692	1363.0857	1385.1716	1412.8601	1430.8787	1448.8949	1499.4239	1504.7793	1523.4521	1665.0834	2973.229	2984.1266	3027.8679	3031.6647	3081.3413	3112.4322	3130.8696	3153.3752	3166.4305	3184.9188	3217.1077	3832.4918
CC1C2C=CC(CO)C12	C[C@H]1[C@H]2C=C[C@@H](CO)[C@@H]12	
InChI=1S/C8H12O/c1-5-7-3-2-6(4-9)8(5)7/h2-3,5-9H,4H2,1H3	InChI=1S/C8H12O/c1-5-7-3-2-6(4-9)8(5)7/h2-3,5-9H,4H2,1H3/t5-,6-,7+,8+/m0/s1
