16
gdb 26762	3.5216	1.11461	0.85564	5.4748	83.22	-0.2333	-0.0377	0.1957	1307.3959	0.123721	-400.8104	-400.801539	-400.800595	-400.844516	31.267	
C	 0.1716990985	 1.441550631	-0.0018587129	-0.499767
C	-0.0518305178	-0.0277374819	-0.014080421	 0.2594
C	-1.1731030556	-0.814506137	 0.0405408449	 0.196261
C	-2.603198683	-0.3780338625	 0.1355320769	-0.507619
C	-0.7024014603	-2.1630757647	-0.011937877	-0.37063
C	 0.6586833123	-2.1008839564	-0.093941809	 0.264936
O	 1.067092571	-0.7971997354	-0.0959398067	-0.204667
C	 1.6467428051	-3.1037451977	-0.1719592654	 0.217925
N	 2.4425325208	-3.9441482608	-0.2353677642	-0.341886
H	 0.7919149243	 1.7400089983	 0.8503932308	 0.15071
H	 0.6845285264	 1.7709631113	-0.912116459	 0.150711
H	-0.7802636763	 1.9708938358	 0.0654459319	 0.140867
H	-3.1870986422	-0.738365639	-0.7184372924	 0.139341
H	-3.079627187	-0.7691324947	 1.0411212709	 0.139343
H	-2.6914485568	 0.7107847223	 0.1599566557	 0.129925
H	-1.2944833896	-3.0648918686	 0.0083570165	 0.13515
72.1228	105.1474	120.5481	146.5846	219.2469	266.5213	305.1815	383.3452	505.0635	523.2001	586.6162	629.1074	651.2077	675.6001	764.1401	847.5964	972.1651	992.383	1023.4384	1056.3252	1068.051	1153.0933	1182.6355	1245.8689	1285.3831	1399.2452	1425.1389	1434.5586	1471.1415	1483.66	1485.7224	1496.7471	1563.9538	1657.7048	2338.7467	3035.7052	3037.8462	3087.426	3090.1528	3120.021	3139.0647	3259.7023
CC1=C(C)C=C(O1)C#N	Cc1c(C)cc(o1)C#N	
InChI=1S/C7H7NO/c1-5-3-7(4-8)9-6(5)2/h3H,1-2H3	InChI=1S/C7H7NO/c1-5-3-7(4-8)9-6(5)2/h3H,1-2H3
