14
gdb 16389	3.00866	2.52128	1.78209	3.3061	56.78	-0.2292	-0.0343	0.1949	744.8822	0.107842	-419.653205	-419.646821	-419.645877	-419.683718	24.687	
O	 0.0510234763	 1.3789737289	 0.0968732182	-0.433709
C	 0.0115602542	-0.025565688	 0.050518205	 0.06265
C	-1.3908182061	-0.5879979494	-0.2417709105	 0.030642
C	-1.1637266302	-2.041000119	-0.7041152887	-0.254619
C	-0.5488063197	-1.2654105227	-1.8936014457	-0.03259
O	-1.5302513039	-0.1928466934	-1.658207244	-0.315632
C	 0.6810638018	-0.6241185729	-1.2349429814	 0.392598
O	 1.8148751771	-0.5503572518	-1.6114065129	-0.310704
H	-0.3911627308	 1.6905087757	-0.7039050775	 0.291003
H	 0.4730795591	-0.3970352103	 0.9691293894	 0.110622
H	-2.2178183133	-0.2688730407	 0.390806141	 0.10133
H	-0.5218436923	-2.6958888636	-0.1086705687	 0.118228
H	-2.0940703545	-2.5370122458	-0.9827664982	 0.131229
H	-0.4875668678	-1.625415987	-2.9180276659	 0.108953
112.1888	226.694	269.8308	427.8802	445.3596	471.6779	541.5939	663.5663	688.8461	798.0686	830.8894	861.1488	889.89	908.3128	925.0464	999.6913	1015.8358	1063.2608	1119.0009	1152.0412	1177.8981	1218.2799	1230.6964	1261.0736	1268.7812	1290.523	1309.3692	1428.8405	1482.7873	1890.2697	3068.0652	3089.8963	3136.7057	3144.1563	3158.9945	3769.8095
OC1C2CC(O2)C1=O	O[C@H]1[C@@H]2C[C@@H](O2)C1=O	
InChI=1S/C5H6O3/c6-4-2-1-3(8-2)5(4)7/h2-4,6H,1H2	InChI=1S/C5H6O3/c6-4-2-1-3(8-2)5(4)7/h2-4,6H,1H2/t2-,3+,4-/m0/s1
