21
gdb 83234	2.43017	1.5648	1.34127	1.6747	77.53	-0.228	0.0656	0.2936	1084.958	0.181418	-424.212074	-424.202739	-424.201795	-424.246129	35.468	
C	 0.1673458204	 1.5987289884	-0.3277648203	-0.408286
C	 0.0667912438	 0.1268586483	 0.0096237812	-0.060056
C	 1.235994344	-0.8212064052	-0.0430007685	 0.077831
O	 2.5310878095	-0.2729850035	-0.0747596623	-0.260022
C	 2.8103393086	 0.3938730104	 1.1533942085	-0.134726
C	 1.6276564543	 0.1517166347	 2.145979448	 0.350842
C	 2.0455956318	-0.7476264481	 3.3147809191	-0.452144
O	 1.0923691282	 1.3795516411	 2.6440317171	-0.465353
C	 0.5867269514	-0.5389182169	 1.2809552156	-0.106978
H	 1.1894114103	 1.9703751969	-0.247030042	 0.129145
H	-0.1572660559	 1.7631159849	-1.3609510519	 0.109514
H	-0.4622757364	 2.2027262538	 0.3309894556	 0.127751
H	-0.8669347527	-0.3279879005	-0.3158290436	 0.084228
H	 1.180305663	-1.7717857358	-0.5631573533	 0.093691
H	 3.7628721214	 0.0111081173	 1.5410981261	 0.095989
H	 2.914904257	 1.4727070416	 0.9860530573	 0.102026
H	 2.8493790417	-0.2787727511	 3.8961653439	 0.1052
H	 1.1982226539	-0.9247946089	 3.9831448842	 0.125987
H	 2.4177561675	-1.711804515	 2.9545289525	 0.128009
H	 1.7208697059	 1.7432629057	 3.2771683224	 0.274638
H	-0.0539750477	-1.2633794282	 1.7709181203	 0.082714
57.707	95.2275	156.9679	201.0516	276.0577	280.0256	290.7425	345.929	370.5168	423.6709	524.4519	586.5605	614.9975	703.5544	751.229	776.7839	855.7205	904.7372	927.8281	955.4219	965.4069	981.7729	1021.3611	1059.3259	1084.7953	1105.9696	1122.2636	1134.191	1158.0893	1186.9253	1207.4974	1230.5803	1252.3696	1312.0478	1340.4797	1367.7557	1402.3645	1415.0783	1421.3596	1430.9322	1485.7586	1490.2898	1496.2016	1497.3848	1524.1249	3012.2619	3023.7056	3043.6695	3052.1375	3091.3032	3104.942	3117.5366	3119.7192	3144.9677	3158.3231	3170.4609	3800.7479
CC1C2OCC(C)(O)C12	C[C@H]1[C@H]2OC[C@@](C)(O)[C@@H]12	
InChI=1S/C7H12O2/c1-4-5-6(4)9-3-7(5,2)8/h4-6,8H,3H2,1-2H3	InChI=1S/C7H12O2/c1-4-5-6(4)9-3-7(5,2)8/h4-6,8H,3H2,1-2H3/t4-,5+,6-,7-/m1/s1
