17
gdb 95609	2.36981	1.78146	1.06572	5.9355	72.68	-0.2514	-0.0337	0.2176	1100.9195	0.137168	-455.179973	-455.171545	-455.170601	-455.213486	30.512	
C	-0.0672589256	 1.4376606014	 0.0787323072	-0.349726
N	 0.006224859	-0.0085386343	-0.0415229511	-0.115366
C	-1.2207624225	-0.7731691449	 0.0993359481	-0.17125
C	-1.0805750057	-2.080826381	-0.65099507	-0.097412
O	 0.0408300482	-2.8178146568	-0.1678192772	-0.251193
C	 1.2257620677	-2.1470683792	-0.0470292028	 0.288159
N	 2.3111070972	-2.7496304354	 0.1817607808	-0.465149
C	 1.234418692	-0.6172339996	-0.1256139991	 0.354794
O	 2.2775294168	-0.0079879553	-0.2275438211	-0.351884
H	 0.9395012034	 1.8369908638	-0.0334117967	 0.178272
H	-0.7175865981	 1.8550086425	-0.6987445989	 0.125906
H	-0.467382904	 1.7284106811	 1.0583552285	 0.128136
H	-1.4625989049	-0.9609137134	 1.156414949	 0.123564
H	-2.0476335945	-0.195533355	-0.3292099101	 0.122588
H	-1.951202953	-2.7219491934	-0.4978092163	 0.129697
H	-0.9663935664	-1.8904039456	-1.7263412236	 0.122595
H	 2.1434755903	-3.757957535	 0.2230846432	 0.228269
75.5041	101.5569	127.9713	179.2136	303.4068	333.7043	378.6523	433.1256	460.21	498.2787	550.3425	647.0898	702.1292	800.0389	914.2021	925.2867	927.9794	990.81	1051.4961	1102.3837	1114.5554	1157.1088	1172.8017	1228.4385	1280.0229	1284.0697	1321.4101	1373.2222	1416.066	1431.406	1455.9762	1496.2617	1500.3243	1504.278	1528.9676	1740.4256	1785.6553	2993.6727	3017.8903	3024.8351	3063.6413	3069.864	3114.2467	3169.9649	3461.2382
CN1CCOC(=N)C1=O	CN1CCO[C]([NH])C1=O	
InChI=1S/C5H8N2O2/c1-7-2-3-9-4(6)5(7)8/h6H,2-3H2,1H3	InChI=1S/C5H8N2O2/c1-7-2-3-9-4(6)5(7)8/h6H,2-3H2,1H3
