17
gdb 17471	4.22626	1.95389	1.67239	2.2485	66.59	-0.2225	0.0692	0.2917	809.5858	0.143585	-363.815676	-363.809023	-363.808079	-363.845954	27.244	
O	-0.1482576825	 1.3855696618	 0.0054989863	-0.460824
C	-0.052332181	-0.0071448857	 0.0161643595	 0.390872
C	-0.4599360102	-0.7800175074	-1.2070134431	-0.364857
C	-1.3013543451	-0.8523085367	 0.0583567441	-0.089154
C	-1.065122304	-1.9464078921	 1.0699363655	-0.026224
C	 0.0019993926	-2.9562223513	 0.8518097496	-0.251754
N	 0.2753452581	-1.7817131489	 1.688241145	-0.09326
C	 0.9318018882	-0.6402125719	 1.0156220298	-0.246634
H	 0.494746317	 1.7255072485	-0.6257122077	 0.283869
H	-0.8895460735	-0.1924505148	-2.0126418535	 0.11413
H	 0.1160388322	-1.6363369933	-1.5394569734	 0.113516
H	-2.2770954295	-0.3826989387	 0.0360604709	 0.09913
H	-1.8852305432	-2.168360234	 1.7470204445	 0.091638
H	-0.0228340155	-3.8967506279	 1.3967759302	 0.113296
H	 0.4636498462	-3.0319547289	-0.1290644053	 0.107315
H	 1.8776997738	-0.956743961	 0.5604861102	 0.099511
H	 1.1592366165	 0.1184152323	 1.7710177074	 0.119431
183.4382	258.7282	269.1336	366.1236	396.6578	428.6523	507.0869	588.9073	668.4525	719.7408	758.7779	809.3729	863.9581	892.4064	914.3157	966.2305	971.2871	1000.9467	1034.0564	1056.2147	1063.8916	1091.4348	1112.3379	1120.5636	1149.7085	1214.0451	1249.8488	1266.1583	1281.0108	1313.2372	1341.4208	1375.8291	1404.7798	1482.9701	1496.5379	1522.0734	3034.6886	3082.4725	3103.7833	3129.2659	3143.8215	3182.1817	3191.453	3216.3448	3801.9717
OC12CC1C1CN1C2	O[C@]12C[C@H]1[C@H]1CN1C2	
InChI=1S/C6H9NO/c8-6-1-4(6)5-2-7(5)3-6/h4-5,8H,1-3H2	InChI=1S/C6H9NO/c8-6-1-4(6)5-2-7(5)3-6/h4-5,8H,1-3H2/t4-,5+,6-,7?/m0/s1
