16
gdb 8664	2.16701	1.93833	1.39367	2.2405	62.11	-0.257	-0.0609	0.1961	950.955	0.126152	-420.886813	-420.877355	-420.876411	-420.921508	32.082	
C	-0.3475512017	 1.6119592974	-0.0950001431	-0.436443
C	-0.0365259745	 0.1078699951	-0.0054456363	 0.061724
C	 0.8542229146	-0.2600162698	 1.1802839489	-0.109373
O	 0.1360284631	 0.0836156719	 2.3562322443	-0.42814
C	-1.3449422286	-0.6955511588	 0.0892962807	 0.151091
O	-2.3999413837	-0.3218044805	-0.347597033	-0.24798
C	 0.6234745234	-0.3330830525	-1.3151111997	 0.126249
O	 1.6231319412	-0.998676163	-1.3868113898	-0.245846
H	 0.5588168069	 2.184456614	-0.3146754281	 0.120041
H	-1.088585869	 1.8014569244	-0.8739766095	 0.14305
H	-0.753600826	 1.9553099519	 0.8580640763	 0.154403
H	 1.0835114632	-1.3342232613	 1.1426558613	 0.109197
H	 1.8090300628	 0.2789912055	 1.1073643452	 0.105848
H	 0.6573683379	-0.1790794632	 3.1202957969	 0.295708
H	-1.2326763905	-1.6910089427	 0.5700132843	 0.095721
H	 0.0925883811	 0.0241945116	-2.2239971585	 0.104751
49.0034	84.2263	120.4926	182.0581	187.9954	256.1065	280.9142	288.0138	307.9665	361.9778	425.2104	584.1541	666.5784	770.5108	872.8778	915.8218	956.9945	982.427	1057.8361	1085.0387	1146.2767	1182.6731	1231.8825	1262.1418	1288.7693	1390.1309	1412.2123	1421.0322	1454.1219	1484.7009	1502.3312	1516.5786	1802.4675	1841.6135	2900.8669	2903.2952	2999.7524	3034.4439	3051.3342	3127.9443	3148.9484	3834.449
CC(CO)(C=O)C=O	CC(CO)(C=O)C=O	
InChI=1S/C5H8O3/c1-5(2-6,3-7)4-8/h2-3,8H,4H2,1H3	InChI=1S/C5H8O3/c1-5(2-6,3-7)4-8/h2-3,8H,4H2,1H3
