15
gdb 52359	10.40824	0.42396	0.40946	1.1966	75.45	-0.2696	-0.0706	0.199	2433.2524	0.107492	-457.722637	-457.712385	-457.711441	-457.760582	32.257	
O	-0.1925325099	 0.1987304848	 0.6221753133	-0.232208
C	 0.063947444	 1.0670790772	-0.1668384765	 0.140576
C	 1.3373870643	 1.8958292414	-0.1111132393	-0.138124
O	 1.3071057839	 2.8098890044	-1.1815434671	-0.245271
C	 2.4501297946	 3.6395523737	-1.2284478431	-0.211572
C	 2.3589078723	 4.5580331559	-2.3510802902	 0.045857
C	 2.3224794285	 5.3377127519	-3.2716192208	 0.09531
C	 2.2392931276	 6.2518527746	-4.3827805667	 0.022536
O	 3.0838060414	 7.0734052631	-4.6537914964	-0.224741
H	-0.6100480567	 1.3398164072	-1.0075537403	 0.104885
H	 1.3880893139	 2.4046620487	 0.8660622151	 0.129089
H	 2.2056441194	 1.2183597848	-0.1698788583	 0.129111
H	 2.5536335764	 4.2175262858	-0.2939686145	 0.138556
H	 3.3688512728	 3.0360142034	-1.3269968865	 0.138572
H	 1.3167405373	 6.142113563	-4.9875102588	 0.107425
39.1866	55.0767	55.1896	89.2795	96.3393	150.5744	189.5447	223.5003	360.4307	397.1823	458.5072	557.8726	641.4948	744.6006	844.5383	1004.0991	1011.252	1020.906	1075.9445	1114.4491	1146.9991	1171.6702	1234.8978	1255.6212	1341.0249	1395.7142	1420.2125	1425.8679	1473.7768	1497.1077	1770.4561	1847.3767	2335.7266	2908.9871	2926.88	2956.7091	2968.0306	2977.2418	2999.3706
O=CCOCC#CC=O	O=CCOCC#CC=O	
InChI=1S/C6H6O3/c7-3-1-2-5-9-6-4-8/h3-4H,5-6H2	InChI=1S/C6H6O3/c7-3-1-2-5-9-6-4-8/h3-4H,5-6H2
