14
gdb 129741	3.31492	1.18045	0.88323	1.5869	69.26	-0.2164	-0.0162	0.2002	1230.562	0.100983	-469.976802	-469.968497	-469.967553	-470.010784	29.171	
N	-0.0308282428	 1.4348652924	 0.2651437358	-0.618813
C	-0.0178541898	 0.0446682357	 0.0807364926	-0.004522
C	-1.0629512974	-0.8103065181	-0.100151433	 0.485744
O	-2.3665652716	-0.5252351409	-0.2783711728	-0.22685
C	-3.3095861932	-1.3908689894	 0.2220368531	 0.108232
N	-4.5175243535	-1.150189056	-0.0190885955	-0.418647
O	-0.6541922452	-2.0903150806	-0.141985838	-0.223062
N	 0.7366969484	-2.1100223536	 0.0127106593	-0.151966
C	 1.0852024162	-0.8513915516	 0.1456833166	 0.019464
H	 0.6367133667	 1.9124022829	-0.3288820716	 0.252851
H	-0.9515121589	 1.8221422281	 0.0958521481	 0.257433
H	-2.8743821925	-2.2150862139	 0.791096261	 0.138604
H	-5.1091525558	-1.8557326961	 0.4150906765	 0.245043
H	 2.1299351396	-0.6113055289	 0.2886269678	 0.136488
48.7292	91.5735	147.044	174.738	261.1525	287.121	362.1813	464.04	525.1339	629.8562	681.604	685.0357	790.9333	815.6008	830.8191	904.905	928.0905	947.7049	1021.1533	1045.3243	1103.2904	1220.6397	1238.5609	1266.6265	1331.0558	1409.2644	1449.0115	1521.139	1653.3633	1720.2643	1759.8816	3111.3067	3239.2078	3524.3522	3524.8462	3610.8553
NC1=C(OC=N)ON=C1	Nc1c(O[CH][NH])onc1	
InChI=1S/C4H5N3O2/c5-2-8-4-3(6)1-7-9-4/h1-2,5H,6H2	InChI=1S/C4H5N3O2/c5-2-8-4-3(6)1-7-9-4/h1-2,5H,6H2
