17
gdb 33745	3.30083	1.5205	1.28882	3.1609	76.12	-0.2457	0.0161	0.2618	993.7957	0.138997	-380.813082	-380.806392	-380.805447	-380.844022	27.612	
N	 0.0148975662	-1.1552111322	-0.0396549389	-0.33779
C	 0.0133065707	 0.0013224636	-0.0420561529	 0.143761
C	 0.0292237529	 1.4476816594	-0.0135417222	 0.202
C	-0.2860888032	 2.3023646964	 1.2741070487	-0.195372
N	 0.4777265412	 3.4062264732	 0.5503946632	-0.146599
C	 1.340079334	 2.2768721907	 0.0371077304	-0.222156
C	-0.4839703719	 3.6231525805	-0.5718324404	-0.001832
C	-0.1762882746	 3.1879970909	-1.978103204	-0.318506
C	-0.8447696828	 2.2197777357	-1.0315254379	-0.092303
H	-1.333235217	 2.5260145168	 1.4853882877	 0.118585
H	 0.2424365661	 1.9779533486	 2.1728914714	 0.124899
H	 2.0136334916	 1.94502774	 0.827395611	 0.129574
H	 1.9081763587	 2.4609571478	-0.8719462011	 0.122329
H	-1.2135292698	 4.4003772128	-0.3831272105	 0.107903
H	-0.8378659406	 3.6122873651	-2.7274907992	 0.125845
H	 0.831708566	 3.0419230039	-2.3449591041	 0.128542
H	-1.8553918277	 1.8718041268	-1.2039934812	 0.111121
143.9164	164.2453	334.8906	426.4109	507.5426	509.5922	531.0831	572.4338	592.6634	668.5225	777.8918	785.9709	817.2067	862.322	894.6314	944.6339	947.3748	977.94	992.0513	1021.9497	1066.9626	1076.883	1092.0026	1107.7991	1128.802	1165.0734	1187.7137	1204.6851	1218.3751	1229.7536	1262.128	1325.2009	1357.5677	1477.3495	1508.3896	1550.7706	2350.187	3072.8558	3102.4311	3139.361	3145.459	3163.6938	3189.5349	3196.8748	3219.3177
N#CC12CN(C1)C1CC21	N#C[C@@]12CN(C1)[C@H]1C[C@@H]21	
InChI=1S/C7H8N2/c8-2-7-3-9(4-7)6-1-5(6)7/h5-6H,1,3-4H2	InChI=1S/C7H8N2/c8-2-7-3-9(4-7)6-1-5(6)7/h5-6H,1,3-4H2/t5-,6+/m1/s1
