17
gdb 80376	2.37059	1.71033	1.21956	3.0379	72.73	-0.2496	0.0063	0.2559	1038.9364	0.134753	-417.959513	-417.95096	-417.950016	-417.992354	32.311	
C	-0.1931125673	 1.4524443906	-0.1829198609	-0.328578
N	 0.1011463209	 0.0434464337	 0.039054578	-0.069703
C	 1.3876434328	-0.5713214268	-0.1536097414	-0.042187
C	 2.5564953145	 0.309050724	 0.334035328	-0.319502
C	 1.9183446001	 0.3055497362	 1.7679711923	 0.26164
O	 2.5942614004	-0.5383467975	 2.6777003382	-0.453385
C	 1.646002542	 1.6068205317	 2.3952705849	 0.230422
N	 1.4692268141	 2.6313488719	 2.9018639214	-0.346938
C	 0.7231002193	-0.5097656693	 1.2038209645	-0.08512
H	 0.6224539289	 2.1471432101	 0.0541216843	 0.124468
H	-0.4592055802	 1.5823383817	-1.2359389823	 0.128433
H	-1.0579621285	 1.7288578568	 0.4258617151	 0.14081
H	 1.4761572257	-1.4064232434	-0.8391041009	 0.106335
H	 3.5080685087	-0.2241631458	 0.3666412106	 0.124431
H	 2.6902035371	 1.2738823701	-0.1609424069	 0.11803
H	 3.3922660509	-0.0889264703	 2.9796990169	 0.294692
H	 0.2208642106	-1.2642924536	 1.7991702882	 0.116152
109.8929	143.3427	180.7166	214.5076	263.2898	298.6152	318.5238	399.766	457.7071	490.6543	551.1126	603.7181	659.2556	728.5094	833.4216	840.6113	913.328	930.7066	976.3512	999.2815	1035.2564	1056.3452	1107.874	1124.7292	1159.0707	1185.3665	1200.5145	1234.0596	1245.2975	1279.2805	1351.0717	1398.5081	1452.8381	1469.1897	1494.0322	1505.0569	2343.3165	3021.8718	3070.7321	3089.4108	3120.3534	3134.0747	3174.6849	3185.3674	3798.2352
CN1C2CC(O)(C#N)C12	CN1[C@H]2C[C@@](O)(C#N)[C@@H]12	
InChI=1S/C6H8N2O/c1-8-4-2-6(9,3-7)5(4)8/h4-5,9H,2H2,1H3	InChI=1S/C6H8N2O/c1-8-4-2-6(9,3-7)5(4)8/h4-5,9H,2H2,1H3/t4-,5-,6+,8?/m0/s1
