17
gdb 31082	2.2704	1.48493	0.90883	1.6525	73.12	-0.1684	0.0544	0.2227	1250.3756	0.137071	-451.347726	-451.338188	-451.337244	-451.382219	34.157	
C	-0.0642610421	 1.4044754407	 0.0752341384	-0.230766
O	-0.0127261235	-0.0149800036	 0.0409114996	-0.283438
C	-1.2079231332	-0.6473199862	 0.0067152715	 0.337726
C	-1.3694170071	-2.0079747875	-0.0108825444	 0.106343
N	-0.5146052263	-3.125269109	 0.0108953501	-0.620817
N	-2.7660154371	-2.1712828278	-0.0363816873	-0.302994
C	-3.3224359216	-0.9395313229	-0.0316685545	 0.378758
N	-4.698698888	-0.7319624512	-0.1369553192	-0.596605
N	-2.4101036738	 0.0144060036	 0.003797486	-0.406077
H	 0.9741019406	 1.7410291896	 0.0992190535	 0.117885
H	-0.5668527941	 1.8082374206	-0.8102595451	 0.126208
H	-0.5939465675	 1.7644159711	 0.9639818078	 0.12415
H	 0.0699928091	-3.1746521443	-0.8176090929	 0.243155
H	 0.1066265683	-3.1112197781	 0.8133003885	 0.243441
H	-3.2324848066	-3.0568991169	-0.135580427	 0.260195
H	-5.2353065646	-1.2320638178	 0.5628986172	 0.245704
H	-4.8918955325	 0.2594599897	-0.0641611822	 0.257132
57.821	147.1227	159.4585	188.3328	197.4974	220.0167	267.4648	279.9646	350.4596	387.9381	473.5286	594.4553	621.1291	651.7465	675.81	726.0137	785.8573	804.4349	854.011	1051.713	1068.8886	1137.0137	1180.3203	1196.4525	1207.8315	1217.2572	1242.7202	1321.8854	1426.1758	1478.569	1487.7955	1505.4271	1521.0881	1594.0031	1648.8918	1659.8257	1680.9331	3026.0003	3088.9568	3131.2643	3492.7953	3519.9429	3550.5569	3618.3896	3669.634
COC1=C(N)NC(N)=N1	COc1c(N)[nH]c(N)n1	
InChI=1S/C4H8N4O/c1-9-3-2(5)7-4(6)8-3/h5H2,1H3,(H3,6,7,8)	InChI=1S/C4H8N4O/c1-9-3-2(5)7-4(6)8-3/h5H2,1H3,(H3,6,7,8)
