21
gdb 51425	3.83669	0.96487	0.93477	2.712	82.66	-0.2467	-0.0193	0.2274	1341.8044	0.183967	-387.090503	-387.082323	-387.081379	-387.124339	31.452	
O	-0.5586334955	 0.797640926	 0.7288993333	-0.240315
C	 0.0904953072	 1.0178116744	-0.2608108556	 0.166013
C	 1.4184033931	 1.7430734779	-0.2879185839	-0.327386
C	 1.3845896519	 2.922225691	-1.2649897697	 0.035686
C	 0.6349231538	 4.2202476324	-0.8128094978	-0.019114
C	 1.9404883863	 4.6127667517	-0.0612428463	-0.231227
C	 2.611631669	 3.8913460196	-1.2664861928	-0.027904
C	 2.2491105787	 4.8342499894	-2.4313053231	-0.217205
C	 0.7388526873	 5.0838982626	-2.085551152	-0.214322
H	-0.2707789075	 0.6890470516	-1.2647873739	 0.068824
H	 1.6711210362	 2.0311826973	 0.7345759816	 0.122412
H	 2.1758239354	 1.0232723625	-0.6334486739	 0.116669
H	 1.0961059518	 2.5479437214	-2.2562246073	 0.061075
H	-0.3313754906	 4.1786494222	-0.3085114702	 0.069147
H	 2.1477035837	 5.6790727573	 0.0697358807	 0.08936
H	 2.0728151756	 4.0974197201	 0.889913358	 0.103501
H	 3.6352396176	 3.515992742	-1.2211312365	 0.057307
H	 2.8414726213	 5.7533967413	-2.4174717957	 0.097792
H	 2.3852977394	 4.3620454325	-3.4085730468	 0.095507
H	 0.064619388	 4.7429827672	-2.8765529942	 0.096194
H	 0.5200918171	 6.1372571595	-1.8897731239	 0.097985
46.3115	60.1601	162.5029	264.5216	301.5165	348.9934	424.4796	481.3517	563.0457	647.7968	752.9798	830.6272	833.0465	841.7394	872.5672	887.2994	905.6557	942.2229	964.128	997.5585	999.8104	1026.1152	1055.2153	1077.1534	1087.2532	1098.2251	1136.4366	1167.4227	1196.4693	1212.9785	1230.8703	1246.6673	1259.2054	1270.4595	1285.2919	1293.0354	1316.9784	1327.7106	1408.4284	1429.6506	1461.3722	1493.8119	1503.4366	1523.8222	1835.0817	2844.4626	3004.378	3012.4129	3049.1972	3057.5457	3061.0947	3086.5125	3101.4591	3105.3304	3108.6043	3112.9758	3136.7025
O=CCC1C2CC1CC2	O=CC[C@H]1[C@H]2C[C@@H]1CC2	
InChI=1S/C8H12O/c9-4-3-8-6-1-2-7(8)5-6/h4,6-8H,1-3,5H2	InChI=1S/C8H12O/c9-4-3-8-6-1-2-7(8)5-6/h4,6-8H,1-3,5H2/t6-,7+,8+
