23
gdb 65026	2.55332	1.40675	1.16631	1.774	84.22	-0.2422	0.078	0.3203	1184.0472	0.20502	-388.25581	-388.246352	-388.245408	-388.290081	36.594	
C	-0.0654670423	 1.4934004286	 0.0132377725	-0.473653
C	-0.0020494597	-0.02867159	-0.0228453652	 0.309759
C	 1.1934880646	-0.6096472485	-0.7446074144	-0.314292
C	 1.1327763162	-0.6535245781	 0.763379803	-0.302457
C	-1.3556924235	-0.7529665669	-0.0320364206	 0.225849
C	-1.2840796074	-2.2404914884	-0.374597593	-0.487748
C	-2.2124709945	-0.4263125196	 1.2256729301	-0.104202
O	-3.1496268903	 0.349169591	 0.4537397007	-0.277215
C	-2.5070854321	-0.0176709063	-0.7819875679	-0.113188
H	 0.9200454321	 1.9102085177	 0.2406976038	 0.10975
H	-0.3769664442	 1.9093283288	-0.9503968723	 0.1188
H	-0.7655955237	 1.8588926781	 0.7709782748	 0.132517
H	 1.089842629	-1.5459302753	-1.2790846658	 0.110148
H	 1.882670002	 0.0866979494	-1.211039915	 0.107571
H	 1.7799604574	 0.0099128308	 1.3270954585	 0.109244
H	 0.9805461961	-1.6181383848	 1.2349639808	 0.109769
H	-0.5968005133	-2.7895759674	 0.2765904293	 0.120794
H	-2.2719486324	-2.6981257863	-0.2645610162	 0.119121
H	-0.9655695946	-2.3958375328	-1.4103155488	 0.122664
H	-2.6884369666	-1.297683635	 1.6957596201	 0.09002
H	-1.7223796458	 0.1713262055	 2.0031742248	 0.099036
H	-2.2451932145	 0.8575534219	-1.3848826331	 0.099545
H	-3.1367669626	-0.6839392024	-1.387566906	 0.088167
57.3157	65.7771	191.0496	236.4875	258.627	292.4345	338.3055	354.9869	375.3704	383.9785	426.4369	502.5017	576.717	763.1577	790.9087	855.5578	870.7393	890.515	909.5118	932.4838	952.2504	973.2703	1003.0726	1009.3984	1037.8662	1042.3792	1067.1608	1081.2927	1120.16	1159.3058	1160.9537	1167.686	1189.3298	1196.0077	1217.106	1308.4445	1315.139	1347.225	1379.4177	1415.2148	1422.9479	1466.712	1488.509	1494.8069	1498.188	1503.5686	1513.0681	1525.6811	1542.3649	2998.4795	3008.5535	3035.2995	3036.3358	3053.8302	3069.1286	3098.1516	3101.6512	3104.8837	3108.5149	3132.8666	3138.6273	3209.7961	3225.9887
CC1(CC1)C1(C)COC1	CC1(CC1)C1(C)COC1	
InChI=1S/C8H14O/c1-7(3-4-7)8(2)5-9-6-8/h3-6H2,1-2H3	InChI=1S/C8H14O/c1-7(3-4-7)8(2)5-9-6-8/h3-6H2,1-2H3
