19
gdb 88762	3.98676	1.05526	0.93585	0.8884	75.81	-0.2403	0.0628	0.3031	1293.9885	0.158166	-422.957392	-422.948994	-422.94805	-422.991201	31.604	
C	-0.1295537193	 1.4995444486	-0.0886539313	-0.420492
C	-0.0528202342	 0.0056466862	 0.0959122782	 0.082676
O	 1.2345389558	-0.6157968365	 0.0069758373	-0.262779
C	 0.5378393	-0.6814196516	 1.2585444291	 0.032961
C	 1.1867663776	 0.0376306799	 2.4081885242	 0.112278
O	 0.2520589073	 0.3726356815	 3.4780328705	-0.309033
C	 1.12692882	-0.2228306216	 4.4435218056	 0.112043
C	 1.2458938204	-1.692622671	 4.2131557575	-0.298397
C	 2.0796407216	-0.7294529836	 3.3872346877	-0.152364
H	 0.6593916166	 2.0222848305	 0.4546175153	 0.130053
H	-0.0334415687	 1.7508451103	-1.1500754523	 0.1285
H	-1.0982159518	 1.8728052839	 0.2596563925	 0.130753
H	-0.8320647716	-0.5493935343	-0.4310350016	 0.090006
H	 0.1498533188	-1.6712764755	 1.5020302544	 0.088448
H	 1.6846676711	 0.945551222	 2.0526225678	 0.087961
H	 1.2720080672	 0.2945709573	 5.3841548253	 0.105344
H	 1.8175760787	-2.2393484885	 4.9567554093	 0.117394
H	 0.4104341483	-2.2384615146	 3.7848919986	 0.118542
H	 3.1597388722	-0.7576647428	 3.3594918018	 0.106105
39.0075	125.5235	150.5294	190.3358	223.4621	379.8756	409.849	436.884	488.5423	551.9798	743.9071	771.7109	785.9429	815.1972	860.7867	946.3729	957.0699	965.6267	985.1454	991.3872	1026.5039	1038.7408	1049.8118	1072.178	1082.9602	1095.6523	1130.0376	1169.8943	1189.223	1206.5888	1247.7314	1288.5267	1299.8361	1311.5595	1357.9509	1407.7996	1425.9839	1470.6623	1476.3777	1488.4599	1512.3001	3042.5234	3053.9407	3081.9759	3103.8758	3105.145	3121.2417	3140.4816	3186.0498	3207.2725	3216.4382
CC1OC1C1OC2CC12	C[C@H]1O[C@H]1[C@H]1O[C@H]2C[C@@H]12	
InChI=1S/C7H10O2/c1-3-6(8-3)7-4-2-5(4)9-7/h3-7H,2H2,1H3	InChI=1S/C7H10O2/c1-3-6(8-3)7-4-2-5(4)9-7/h3-7H,2H2,1H3/t3-,4-,5+,6-,7+/m1/s1
