17
gdb 45750	2.79705	1.41727	1.08993	2.875	73.36	-0.2442	-0.0218	0.2224	1120.1062	0.135489	-421.827475	-421.819502	-421.818557	-421.861152	29.479	
O	-0.0210691052	 0.0700907561	 0.2301057111	-0.311541
C	-0.0422020815	 1.2652520751	 0.1007307042	 0.398258
C	-1.2890993806	 2.1577942652	 0.0585035518	-0.369685
C	-0.7127436225	 3.5420519451	-0.0571404684	-0.077135
C	 0.6200197823	 3.5480818492	-0.0994160326	-0.063191
C	 1.2115540679	 2.1635924343	-0.0338520264	-0.206542
C	 2.1934024185	 1.8823762894	 1.0921519377	 0.092545
C	 3.1790837006	 2.8580871329	 1.5684178654	-0.19125
O	 1.9971869669	 2.5776946164	 2.3226093446	-0.226311
H	-1.9259640835	 1.871659358	-0.7888512335	 0.137901
H	-1.8939445946	 2.0022646599	 0.9608333154	 0.145078
H	-1.3348526925	 4.4283389231	-0.1018923752	 0.105712
H	 1.2284472873	 4.4402856024	-0.1863564659	 0.103857
H	 1.7162799577	 1.8847827636	-0.972091578	 0.114858
H	 2.4172430524	 0.8212201703	 1.2060856555	 0.114508
H	 4.1115215744	 2.5094585167	 2.0101490728	 0.119771
H	 3.2224122522	 3.8507875422	 1.1230425015	 0.113166
39.2351	78.5791	173.0421	181.0977	343.4402	370.898	461.3021	537.7973	576.4368	653.8447	717.9271	763.6934	775.4627	819.3413	882.756	954.276	965.5219	972.2141	987.6096	990.1686	1092.7109	1096.1999	1129.279	1138.194	1157.5289	1161.7754	1178.9135	1241.4384	1264.4604	1285.6788	1318.4241	1381.941	1424.8115	1439.4771	1532.3046	1682.3887	1850.6527	2991.7935	3027.9785	3057.0934	3085.9154	3112.9453	3170.6963	3191.4858	3214.2653
O=C1CC=CC1C1CO1	O=C1CC=C[C@H]1[C@H]1CO1	
InChI=1S/C7H8O2/c8-6-3-1-2-5(6)7-4-9-7/h1-2,5,7H,3-4H2	InChI=1S/C7H8O2/c8-6-3-1-2-5(6)7-4-9-7/h1-2,5,7H,3-4H2/t5-,7-/m1/s1
