16
gdb 126708	2.00641	1.91307	1.05792	3.5645	65.89	-0.2149	0.0544	0.2693	1103.5492	0.124833	-471.23043	-471.221766	-471.220822	-471.264446	31.503	
C	-0.0585071641	 1.5930526791	-0.0708536867	-0.381233
C	-0.0143089732	 0.0653467152	-0.0179362144	-0.162024
N	 0.6880547548	-0.4393349923	 1.1557420495	-0.132167
C	 2.0254376959	-0.6966690785	 1.3160262875	 0.447388
O	 2.8628187596	-0.509118369	 0.2838301695	-0.430136
N	 2.3168445267	-1.1138390715	 2.5079859874	-0.339517
N	 1.1036576574	-1.1411597774	 3.2224528076	-0.339683
C	 0.1888896136	-0.7381377215	 2.3975578617	 0.447578
O	-1.125410995	-0.59954025	 2.6325200994	-0.430076
H	 0.9523311609	 2.0087305332	-0.1022137442	 0.138783
H	-0.5936103843	 1.9210182812	-0.9670364528	 0.125271
H	-0.574356663	 1.9962467624	 0.8049169929	 0.138351
H	-1.0243060346	-0.3514370791	 0.0069101576	 0.139271
H	 0.4934758013	-0.3384483878	-0.8975811699	 0.138859
H	 3.7408859115	-0.7658102926	 0.5949180658	 0.319666
H	-1.2703444576	-0.8810025415	 3.5454286091	 0.319669
35.4891	105.9552	199.799	200.8865	286.1364	314.1735	371.5127	385.8189	430.7629	438.2784	552.2833	616.0197	684.9801	726.1395	736.197	773.9475	808.744	973.5512	1028.048	1045.5431	1105.9768	1177.6885	1199.0001	1238.5381	1302.7263	1349.9574	1392.6633	1413.7999	1478.0909	1490.5984	1495.0335	1503.932	1588.2064	1602.0696	1666.9007	3046.2755	3070.5627	3110.7879	3121.7181	3135.2909	3795.1172	3796.3265
CCN1C(O)=NN=C1O	CCn1c(O)nnc1O	
InChI=1S/C4H7N3O2/c1-2-7-3(8)5-6-4(7)9/h2H2,1H3,(H,5,8)(H,6,9)	InChI=1S/C4H7N3O2/c1-2-7-3(8)5-6-4(7)9/h2H2,1H3,(H,5,8)(H,6,9)
