17
gdb 109645	2.02758	1.38057	1.0443	4.0426	70.84	-0.2418	-0.0007	0.2411	1192.2127	0.135096	-455.11759	-455.107916	-455.106971	-455.15213	35.12	
N	 0.0872719493	 1.5280549434	-0.1617244197	-0.509168
C	 0.0159788672	 0.1045602316	-0.0227134764	-0.064174
C	-1.2873538365	-0.6074995662	 0.2073751339	-0.104727
C	-2.6307846985	 0.1034433152	 0.2428870604	-0.080988
O	-3.6387822792	-0.629505856	-0.425948898	-0.421443
C	-0.5988352462	-0.7722307253	-1.1406174374	 0.196714
O	-1.2436066906	-0.095834497	-2.1891323507	-0.460048
C	 0.015485339	-2.0221554518	-1.5003901561	 0.241604
N	 0.5514862056	-3.0049351931	-1.796951689	-0.342702
H	 0.9990189655	 1.7975147474	-0.5176251503	 0.240922
H	-0.6030266899	 1.8607571687	-0.8269928706	 0.241752
H	 0.8817955524	-0.3130824792	 0.4806631739	 0.120724
H	-1.2363534108	-1.4875924391	 0.8403930942	 0.124397
H	-2.9521363416	 0.193132813	 1.2850652246	 0.123532
H	-2.5460006848	 1.1232426961	-0.1517173963	 0.095665
H	-3.396826111	-0.645989974	-1.3589516352	 0.296636
H	-0.5957328498	 0.1045399963	-2.8749672574	 0.301302
76.7879	103.0354	151.0037	162.9097	209.1108	241.0545	290.8221	320.0718	344.1603	442.1661	460.1761	511.3869	569.5361	586.3846	608.5318	724.8433	807.9685	821.2918	888.206	977.1066	1021.268	1063.679	1076.3753	1111.255	1134.8301	1173.9926	1247.5836	1266.4796	1272.0311	1321.358	1377.1059	1404.064	1431.3372	1466.6851	1502.0788	1666.0467	2335.0374	3028.567	3083.9915	3162.7122	3172.888	3503.6285	3585.4674	3791.3528	3803.8029
NC1C(CO)C1(O)C#N	N[C@H]1[C@@H](CO)[C@]1(O)C#N	
InChI=1S/C5H8N2O2/c6-2-5(9)3(1-8)4(5)7/h3-4,8-9H,1,7H2	InChI=1S/C5H8N2O2/c6-2-5(9)3(1-8)4(5)7/h3-4,8-9H,1,7H2/t3-,4+,5-/m1/s1
