23
gdb 90405	2.19059	1.47162	1.27401	1.1456	85.86	-0.2347	0.071	0.3057	1180.9369	0.203561	-388.266945	-388.256799	-388.255855	-388.300878	39.12	
C	-0.3075187927	 1.4188652424	-0.2133708345	-0.42891
C	 0.1397776184	-0.0386086497	-0.1594665774	-0.012975
C	 1.2831454573	-0.5976330979	-1.0771120112	-0.28431
C	 1.9190621624	-1.2710153001	 0.1452151173	-0.153058
C	 2.3378795984	-0.2614619531	 1.1998784898	 0.251101
C	 2.9947437246	-0.9030135352	 2.4167589926	-0.455385
C	 2.9519023952	 1.088904905	 0.8666198955	-0.463163
C	 0.8712903897	-0.6208421153	 1.0590486032	 0.326442
O	 0.1562996897	-1.2141365227	 2.0947535898	-0.460657
H	 0.5183317204	 2.1227761368	-0.0849843702	 0.11587
H	-0.7881138859	 1.6419309368	-1.1725939592	 0.113548
H	-1.0424813068	 1.6228898261	 0.5739387932	 0.112771
H	-0.7401612204	-0.6744437876	-0.3078376777	 0.084822
H	 0.9186600825	-1.3045960943	-1.8253410539	 0.101066
H	 1.9019793389	 0.1477413453	-1.5859596951	 0.095378
H	 2.3050420085	-2.2837870385	 0.1653194419	 0.084432
H	 4.0691356306	-1.0320743893	 2.2449736609	 0.113695
H	 2.8830407156	-0.2687763543	 3.3055200388	 0.1029
H	 2.5620745297	-1.8784320422	 2.6475723611	 0.130559
H	 2.5832202706	 1.512699436	-0.0676503477	 0.121476
H	 2.7580958351	 1.8176529893	 1.6629222756	 0.108173
H	 4.0403385865	 0.9919283676	 0.7727046941	 0.111172
H	 0.1759264318	-0.6261536951	 2.8570786732	 0.285054
134.456	161.6576	175.3276	182.8906	207.1871	231.7895	248.0252	290.756	316.2452	361.0109	364.8597	433.1654	509.964	544.861	634.3957	654.4149	695.1747	825.4486	866.3764	922.3609	931.5401	958.515	966.8467	993.5648	1024.1527	1048.7406	1094.3442	1120.1355	1141.3488	1160.0705	1172.5113	1192.1008	1227.6272	1253.911	1264.0208	1294.0104	1334.6065	1384.9953	1400.7609	1405.2896	1419.8541	1433.7519	1481.9476	1485.4366	1495.074	1498.694	1506.4075	1510.2678	1514.974	3019.9299	3025.5235	3029.7199	3041.3398	3054.7299	3073.161	3077.2505	3086.6074	3105.4163	3116.1012	3127.2972	3142.4278	3175.7039	3801.9105
CC1CC2C(C)(C)C12O	C[C@H]1C[C@H]2C(C)(C)[C@@]12O	
InChI=1S/C8H14O/c1-5-4-6-7(2,3)8(5,6)9/h5-6,9H,4H2,1-3H3	InChI=1S/C8H14O/c1-5-4-6-7(2,3)8(5,6)9/h5-6,9H,4H2,1-3H3/t5-,6-,8+/m0/s1
