16
gdb 26756	3.10901	1.52876	1.04742	1.9492	73.01	-0.1859	0.0382	0.2241	1095.5036	0.126263	-434.062252	-434.054055	-434.053111	-434.095342	30.061	
N	 0.109940489	 1.5513252405	 0.1863612972	-0.609408
C	 0.0266921492	 0.1681033207	-0.0470965946	 0.074709
C	-1.0092801146	-0.7540391527	 0.0111355051	 0.296236
O	-2.295534373	-0.4504369186	 0.3090526205	-0.439985
N	-0.6209926888	-2.0532812353	-0.2254880293	-0.444835
C	 0.6802168404	-1.9219271904	-0.3880982862	 0.337616
C	 1.9858119127	-2.4563267558	-0.9449231144	-0.360351
C	 2.4405388384	-0.9443292961	-0.8808067447	-0.169184
N	 1.1284423961	-0.6609290984	-0.2592420846	 0.002344
H	-0.4038445399	 1.8181767839	 1.0196019936	 0.247188
H	-0.2666742355	 2.0944016235	-0.5843145137	 0.242481
H	-2.7765230546	-1.2865433506	 0.2971455799	 0.299973
H	 2.5488704439	-3.1416802434	-0.3065344198	 0.129269
H	 1.9377833177	-2.865216137	-1.9572969713	 0.132118
H	 3.2929715686	-0.708195444	-0.2397326931	 0.130133
H	 2.5684793502	-0.4761857564	-1.8602020048	 0.131694
65.1007	117.6045	182.3342	250.7602	268.1775	315.2572	333.7373	372.9998	589.4883	615.2702	662.8253	690.2218	721.8735	775.8048	809.3642	839.5374	887.5453	981.6922	1048.6946	1090.7294	1125.6741	1145.2674	1172.6868	1216.3412	1225.0391	1262.0577	1321.3195	1342.404	1438.8568	1457.9273	1483.6984	1509.9891	1565.1625	1646.8395	1667.8722	3062.4129	3067.0273	3109.1752	3123.2212	3495.0914	3558.6547	3807.4549
NC1=C(O)N=C2CCN12	Nc1c(O)nc2CCn12	
InChI=1S/C5H7N3O/c6-4-5(9)7-3-1-2-8(3)4/h9H,1-2,6H2	InChI=1S/C5H7N3O/c6-4-5(9)7-3-1-2-8(3)4/h9H,1-2,6H2
