16
gdb 131627	2.44144	1.53645	1.00055	3.7772	67.43	-0.2512	-0.0147	0.2365	1133.5594	0.124928	-475.004562	-474.996377	-474.995433	-475.037727	30.036	
O	 0.2282892407	 0.8154493481	-1.0557905414	-0.421932
C	-0.3051018268	 0.4311563991	 0.1859642044	-0.168003
C	-1.4380851328	-0.5459226614	 0.0557449017	 0.328129
C	-2.1382850733	-1.0297869449	-1.0150761302	 0.084948
C	-1.9582506132	-0.7417694964	-2.4696429174	-0.236368
O	-2.0453766246	 0.6794358613	-2.6775695272	-0.414269
C	-3.1045671976	-1.8751958542	-0.4013534628	-0.038975
N	-2.9995192023	-1.908078731	 0.9015442711	-0.144404
O	-1.9358490538	-1.0496597503	 1.1940824378	-0.2097
H	-0.5066969404	 1.1205341952	-1.6133128098	 0.293814
H	 0.5052025813	-0.0348312195	 0.7591639737	 0.139505
H	-0.6532604833	 1.2914820461	 0.7822033586	 0.120087
H	-0.9854919161	-1.108845338	-2.8212026924	 0.125863
H	-2.7416117208	-1.2560203508	-3.0417095863	 0.111515
H	-1.8813231524	 0.8526327424	-3.6114203972	 0.297838
H	-3.8734612647	-2.4664194559	-0.8805856025	 0.131952
69.6416	134.8324	198.4465	219.2067	232.487	314.4219	384.4046	422.7221	457.6906	636.4906	660.9311	668.3424	716.2425	738.3334	913.8225	915.5546	956.2305	1001.0191	1020.1895	1022.2914	1111.2665	1173.597	1197.8353	1225.5981	1245.162	1255.7369	1269.6591	1369.8583	1415.8832	1467.549	1476.3198	1492.7455	1509.934	1519.3631	1654.1125	2965.2859	3009.2513	3045.0649	3056.0197	3234.8831	3652.0307	3806.3905
OCC1=C(CO)C=NO1	OCc1c(CO)cno1	
InChI=1S/C5H7NO3/c7-2-4-1-6-9-5(4)3-8/h1,7-8H,2-3H2	InChI=1S/C5H7NO3/c7-2-4-1-6-9-5(4)3-8/h1,7-8H,2-3H2
