17
gdb 32648	2.06313	1.77785	1.03086	4.4046	83.14	-0.2278	-0.0201	0.2077	1149.1146	0.13771	-380.932255	-380.923869	-380.922925	-380.96591	30.702	
C	-0.0163059243	 1.5469630423	-0.030444347	-0.379276
C	-0.032866756	 0.0170896958	-0.0217597443	-0.168039
N	-1.3819158872	-0.5400922778	 0.0053889105	-0.049956
C	-2.072042821	-0.9055475531	 1.1217406641	-0.092501
C	-3.3398582558	-1.3174959903	 0.7558284825	-0.154078
C	-3.429523583	-1.1942878689	-0.645184212	-0.240055
C	-2.2085817297	-0.7085740214	-1.0929409903	 0.200307
C	-1.7747684335	-0.4102040145	-2.4013090689	 0.210407
N	-1.4011825471	-0.1564751017	-3.4702023026	-0.369454
H	 1.0169063135	 1.9067919786	-0.029968328	 0.127977
H	-0.5120842618	 1.9358627074	-0.9235097686	 0.150398
H	-0.5229608409	 1.9486580319	 0.8517888635	 0.128794
H	 0.4751461705	-0.3739940637	-0.9076741234	 0.147479
H	 0.4933967802	-0.3717010112	 0.8543862208	 0.124485
H	-1.6045071729	-0.8481802358	 2.0924680395	 0.12966
H	-4.1062709357	-1.6752324188	 1.4250796929	 0.111498
H	-4.2706682453	-1.4346125787	-1.2759347688	 0.122353
49.5568	125.4746	147.2733	166.6824	225.8766	357.0144	380.8889	516.8457	545.0587	602.0827	620.2825	676.1816	693.1462	747.6706	796.0436	810.351	866.9173	903.5784	964.8652	1043.2797	1086.5891	1105.9531	1127.4399	1193.6175	1253.9358	1293.1078	1337.153	1390.6721	1412.7242	1433.145	1444.0358	1477.5434	1490.6998	1501.2692	1512.0411	1567.7483	2327.7479	3046.225	3063.2296	3103.5918	3121.534	3133.817	3249.3673	3262.0784	3273.5644
CCN1C=CC=C1C#N	CCn1cccc1C#N	
InChI=1S/C7H8N2/c1-2-9-5-3-4-7(9)6-8/h3-5H,2H2,1H3	InChI=1S/C7H8N2/c1-2-9-5-3-4-7(9)6-8/h3-5H,2H2,1H3
