18
gdb 30173	4.41332	1.26167	1.02342	2.771	79.01	-0.1741	0.0447	0.2188	1162.7619	0.149906	-401.979703	-401.971948	-401.971004	-402.012002	30.263	
C	 0.1582108515	 1.5274599959	 0.0754474922	-0.39864
C	 0.0782736217	 0.0161387092	-0.0210581151	 0.141174
C	 0.814469796	-0.6100811042	-1.2627663797	-0.394921
C	 1.4295619657	-1.7897774205	-0.5872744623	 0.202301
C	 1.3366345643	-1.6712613966	 0.7680244954	 0.375142
O	 0.6579622971	-0.5609600493	 1.1878017691	-0.304387
C	 2.0465258203	-2.7253161129	 1.3879836085	-0.328313
C	 2.571951016	-3.466721589	 0.3406656636	-0.067382
N	 2.211202146	-2.8871421027	-0.8554581016	-0.365335
H	 1.2019631518	 1.8549280718	 0.1040840785	 0.12562
H	-0.3286328987	 1.9908024493	-0.7889761299	 0.115005
H	-0.339502008	 1.8821522291	 0.9821544672	 0.1289
H	-0.9711490296	-0.307026073	-0.0447498989	 0.085968
H	 0.0949504853	-0.8359083631	-2.0576892684	 0.108122
H	 1.5556284278	 0.0868770007	-1.6826821177	 0.105008
H	 2.1693894998	-2.9317223375	 2.438720388	 0.098255
H	 3.1529763478	-4.3747974644	 0.3575395413	 0.11489
H	 2.4245368952	-3.263268203	-1.7617008101	 0.258592
66.1494	168.2587	233.0203	266.5614	314.8594	402.5042	444.3522	464.8545	577.2585	624.1991	672.825	692.8443	726.7667	781.733	796.791	819.3736	891.3628	928.6733	944.7185	1055.1432	1070.5231	1082.6422	1114.3466	1129.2885	1178.1859	1197.23	1243.5833	1288.1965	1338.5284	1371.0319	1382.7087	1408.4024	1457.6011	1476.1617	1484.0408	1497.047	1503.0332	1542.4317	1636.5563	2981.4459	3008.2345	3039.3754	3049.2988	3111.6834	3120.5173	3254.9129	3272.3647	3689.6032
CC1CC2=C(O1)C=CN2	C[C@H]1Cc2c(O1)cc[nH]2	
InChI=1S/C7H9NO/c1-5-4-6-7(9-5)2-3-8-6/h2-3,5,8H,4H2,1H3	InChI=1S/C7H9NO/c1-5-4-6-7(9-5)2-3-8-6/h2-3,5,8H,4H2,1H3/t5-/m0/s1
