21
gdb 89084	5.52007	0.56921	0.53989	4.9628	85.02	-0.235	0.0382	0.2732	2024.3888	0.181579	-383.260137	-383.250022	-383.249078	-383.296444	35.85	
C	 0.1323389313	 1.5031383076	-0.4721905979	-0.412863
C	 0.0577736174	 0.0431927867	-0.0801781186	 0.030186
C	 1.2875496723	-0.7857452989	 0.0741690955	-0.256441
N	 0.461490749	-0.4606954896	 1.2350782142	-0.083979
C	 1.0109178463	 0.4468616676	 2.2310750097	-0.145227
C	 1.6796058579	-0.3603784155	 3.3462232499	-0.175149
C	 2.2351276832	 0.5536271311	 4.4551846717	-0.342575
C	 2.8938968813	-0.1939570621	 5.5237109027	 0.257741
N	 3.4134618332	-0.797981309	 6.3607164299	-0.304312
H	 1.075776918	 1.9699773294	-0.1793637876	 0.120232
H	 0.0417581788	 1.5979574074	-1.5592984743	 0.126646
H	-0.6863989984	 2.0765872759	-0.0232681119	 0.124346
H	-0.8359289677	-0.4584527562	-0.449847961	 0.093561
H	 1.307630527	-1.8302960937	-0.2253164352	 0.117367
H	 2.2415442451	-0.2673578948	-0.0289943187	 0.104047
H	 1.7403814776	 1.1650959999	 1.8177272545	 0.082787
H	 0.1840258421	 1.0363036588	 2.6483660291	 0.104807
H	 0.9545093175	-1.0616361928	 3.7688226636	 0.133073
H	 2.4943590287	-0.9608813187	 2.9277975169	 0.123621
H	 2.95696676	 1.2663393425	 4.0383119394	 0.150204
H	 1.4280355994	 1.1498215444	 4.8976653479	 0.151929
42.3358	82.4182	86.9765	113.144	157.1297	198.8886	277.064	316.4874	357.6388	398.3263	439.1126	496.0743	577.9434	748.3101	754.9293	811.7182	861.242	905.5245	938.0185	959.6167	1031.944	1032.9554	1056.5771	1071.0686	1113.5392	1120.2463	1149.4061	1161.2779	1190.4916	1224.8251	1270.3284	1303.9746	1322.7413	1340.0175	1362.771	1399.8146	1411.1993	1424.1017	1469.008	1485.3086	1492.7072	1500.4047	1504.6184	1516.3149	2363.087	2946.2579	3034.021	3034.8234	3036.4147	3056.946	3069.4712	3081.9285	3094.7121	3102.3013	3107.748	3125.3765	3172.2554
CC1CN1CCCC#N	C[C@H]1CN1CCCC#N	
InChI=1S/C7H12N2/c1-7-6-9(7)5-3-2-4-8/h7H,2-3,5-6H2,1H3	InChI=1S/C7H12N2/c1-7-6-9(7)5-3-2-4-8/h7H,2-3,5-6H2,1H3/t7-,9?/m0/s1
