20
gdb 33124	3.13297	0.99907	0.80587	1.7639	82.24	-0.1855	0.0517	0.2371	1461.321	0.170881	-403.186793	-403.177096	-403.176152	-403.221752	35.716	
C	 0.0263475492	 1.5683953644	 0.0956933636	-0.377919
C	 0.0224793689	 0.0382384661	 0.0805898814	-0.153872
C	-1.3940836187	-0.561522125	-0.0298725496	-0.341178
C	-1.4193091828	-2.0618114716	-0.0242448146	 0.168159
C	-1.6326264461	-2.9066786671	-1.0948358393	-0.167709
N	-1.5338550576	-4.197251834	-0.6570971421	-0.241411
C	-1.2646704193	-4.2179571391	 0.6957578394	-0.165786
C	-1.1875155871	-2.9078538354	 1.1037107851	 0.22764
O	-0.9167400698	-2.5160109258	 2.3872400215	-0.452887
H	 1.0436531745	 1.9652145826	 0.1692566399	 0.112396
H	-0.4242581765	 1.9741694709	-0.8172489535	 0.113297
H	-0.5453740004	 1.9604629083	 0.9448371216	 0.10949
H	 0.624623202	-0.3319410837	-0.7575371839	 0.101816
H	 0.5070558832	-0.34571983	 0.9874559249	 0.097138
H	-2.0098536114	-0.1653173081	 0.7936826792	 0.085998
H	-1.8694455272	-0.1923822204	-0.9467163389	 0.100531
H	-1.8489053458	-2.6795992556	-2.1268728688	 0.11292
H	-1.6553822314	-5.0130037025	-1.2286044456	 0.26
H	-1.1519526102	-5.1365438467	 1.2454282112	 0.117013
H	-1.0842846336	-1.5716339474	 2.4553050685	 0.294362
56.8964	87.3917	108.4435	185.6776	239.2296	253.044	281.0057	309.2015	359.3725	424.7566	457.6396	623.3738	632.9708	659.6087	718.2583	741.1422	742.5405	769.6393	868.0531	893.8631	907.1657	1039.859	1064.5291	1079.7901	1109.511	1129.8896	1176.9966	1228.8371	1246.6985	1293.1632	1309.1624	1324.0108	1355.7735	1383.4765	1412.148	1440.802	1481.3417	1483.1107	1493.5584	1499.7607	1511.4325	1565.9835	1655.0114	2974.5001	3024.2637	3027.235	3044.1496	3063.234	3093.6262	3101.3924	3255.5146	3279.3967	3701.2831	3839.1727
CCCC1=CNC=C1O	CCCc1c[nH]cc1O	
InChI=1S/C7H11NO/c1-2-3-6-4-8-5-7(6)9/h4-5,8-9H,2-3H2,1H3	InChI=1S/C7H11NO/c1-2-3-6-4-8-5-7(6)9/h4-5,8-9H,2-3H2,1H3
