20
gdb 38519	2.92844	1.91821	1.40243	1.4645	83.57	-0.2152	0.0136	0.2288	967.4138	0.174797	-365.9638	-365.957038	-365.956094	-365.994584	28.621	
C	-0.0621901173	 1.4525317517	-0.1591103655	-0.191393
C	 1.4830916507	 1.5592811175	 0.0724024154	 0.010304
C	 2.0507478318	 2.5303655558	 1.1336895515	-0.22472
C	 2.3477142524	 1.8221418138	 2.493831428	-0.247273
C	 1.1847243883	 0.9231188923	 2.8511665381	-0.182062
C	 0.8189918282	 0.0449692366	 1.9224172199	 0.21993
C	-0.4971282969	-0.4862654006	 1.3912303609	-0.244897
N	-0.0543657385	-0.0502232814	 0.0089795134	-0.140018
C	 1.3744418772	 0.084846572	 0.5154835141	-0.064595
H	-0.6638900363	 1.9760141741	 0.5934471391	 0.097295
H	-0.4117410032	 1.7439890708	-1.1527628682	 0.10611
H	 2.0093888436	 1.6717661542	-0.8784854387	 0.076276
H	 2.9689607165	 3.0036833496	 0.7687833243	 0.094689
H	 1.3334848918	 3.341079623	 1.3067533996	 0.100574
H	 3.2726968211	 1.2410554028	 2.3904712302	 0.111562
H	 2.5362698658	 2.5683024781	 3.2704219939	 0.098697
H	 0.5912527045	 1.1180658807	 3.7400188217	 0.087018
H	-0.6155885834	-1.5751411133	 1.3980868131	 0.111917
H	-1.4183099146	-0.023024323	 1.7617039547	 0.107349
H	 2.1080516982	-0.6579883644	 0.1910701345	 0.073235
134.4281	250.7346	322.4315	385.4071	396.661	456.6347	503.5377	625.2824	681.8561	741.0641	777.7774	817.2899	846.2836	866.4047	889.995	910.0309	930.9665	958.6865	968.5296	1010.528	1016.0464	1043.2483	1077.0576	1095.0761	1122.2029	1158.6194	1182.3391	1185.1179	1207.7397	1219.1743	1251.6454	1276.6801	1281.0624	1301.0768	1321.9084	1340.8377	1352.4019	1363.5418	1485.3246	1489.5104	1494.4965	1500.8416	1736.6663	3024.8374	3027.1831	3030.3089	3032.5191	3060.4615	3066.5604	3077.6388	3080.2518	3089.3675	3095.8868	3164.983
C1C2CCC=C3CN1C23	C1[C@H]2CC[CH][C]3CN1[C@@H]23	
InChI=1S/C8H11N/c1-2-6-4-9-5-7(3-1)8(6)9/h2,7-8H,1,3-5H2	InChI=1S/C8H11N/c1-2-6-4-9-5-7(3-1)8(6)9/h2,7-8H,1,3-5H2/t7-,8-/m1/s1
