19
gdb 117280	3.03713	0.79932	0.71089	1.4903	73.62	-0.2499	-0.0427	0.2072	1625.9592	0.155082	-460.197619	-460.186871	-460.185927	-460.235435	36.568	
C	 0.393424111	 0.66294576	 0.3665665462	-0.478688
C	-0.3487942608	-0.1383992912	-0.678819128	 0.380132
O	 0.1456114351	-0.5013260723	-1.7190223876	-0.291452
C	-1.7906546909	-0.5297053263	-0.3132733971	-0.379359
C	-1.7196999181	-1.8598140977	 0.4480641954	 0.36299
O	-1.4952563941	-1.8847472834	 1.637507732	-0.306222
C	-1.8819550884	-3.1061402858	-0.3918307381	-0.28651
C	-1.6177014386	-4.3951695692	 0.3713103518	-0.075856
O	-1.8589578167	-5.4672769085	-0.5264814767	-0.422962
H	 1.4484521739	 0.7453435539	 0.1036764576	 0.142935
H	-0.045572121	 1.6651012951	 0.4402651232	 0.144158
H	 0.2711355934	 0.1906521188	 1.3472854383	 0.164751
H	-2.2410898031	 0.2165571723	 0.3444882597	 0.129546
H	-2.3623699266	-0.6347578068	-1.2368224855	 0.131268
H	-2.9006995549	-3.1176844803	-0.8035106098	 0.136851
H	-1.2204149945	-3.021202219	-1.2643092397	 0.1549
H	-0.5823364889	-4.3984394921	 0.7423138669	 0.10106
H	-2.2744637388	-4.4421313518	 1.2514305886	 0.10371
H	-1.6873478379	-6.2908311157	-0.0608864674	 0.288749
27.9104	51.0392	85.1465	97.9749	154.7399	165.8199	178.0133	266.724	313.3086	383.9576	420.3406	492.0499	501.4072	563.2495	656.6358	766.6229	823.7994	855.5322	903.7577	964.7117	1020.3971	1041.4062	1072.8654	1090.2884	1105.7128	1164.3101	1204.4784	1240.0487	1248.3302	1263.665	1303.8122	1357.4656	1383.3418	1446.2214	1460.1757	1469.6397	1473.4195	1474.0579	1523.4864	1788.0522	1820.286	2993.4975	3022.0262	3027.4309	3035.9124	3063.015	3074.4868	3099.2111	3145.0619	3156.4063	3832.0791
CC(=O)CC(=O)CCO	CC(=O)CC(=O)CCO	
InChI=1S/C6H10O3/c1-5(8)4-6(9)2-3-7/h7H,2-4H2,1H3	InChI=1S/C6H10O3/c1-5(8)4-6(9)2-3-7/h7H,2-4H2,1H3
