16
gdb 50013	2.8213	1.2104	1.04007	3.9	72.27	-0.2495	-0.0277	0.2218	1168.6595	0.12359	-437.875894	-437.867757	-437.866813	-437.9091	29.799	
N	-0.0260903137	 1.2051381184	-0.2274090927	-0.555817
C	-0.0036127805	-0.0185578613	 0.0408562734	 0.408336
O	 1.0035676565	-0.8283229119	 0.533692561	-0.262789
C	 0.1338447414	-2.0066141825	 0.5255347932	-0.14941
C	-0.9951331916	-1.1348226476	-0.0163279208	 0.175862
C	-2.4464858304	-1.0880976819	 0.3035971325	-0.354146
C	-2.0067853737	-1.4476489455	-1.1064082989	-0.171103
C	-2.2288977449	-0.4656294445	-2.2025578284	 0.158013
O	-2.489315922	-0.7857390629	-3.3359700281	-0.265812
H	 0.8704507723	 1.6557644882	-0.0423270836	 0.236027
H	 0.5228634653	-2.7756562986	-0.146157723	 0.133071
H	 0.0019778547	-2.402441875	 1.5358140045	 0.130009
H	-2.8716671646	-1.8813969702	 0.9081169006	 0.137632
H	-2.8790784174	-0.1043781028	 0.4569917007	 0.151474
H	-2.0869726783	-2.4868007354	-1.4093787661	 0.115901
H	-2.1413042529	 0.5970807335	-1.8955974144	 0.112754
82.3912	106.7764	164.132	198.72	275.901	319.6795	368.3369	445.6087	499.6754	608.3708	704.39	767.2179	837.4112	852.4048	874.1606	902.878	956.084	978.0323	1001.4143	1049.6999	1061.6295	1078.9881	1098.9884	1147.4726	1167.325	1186.5723	1239.5703	1285.9941	1345.8385	1414.169	1447.7322	1487.2254	1513.7629	1816.7917	1827.7899	2930.4931	3060.5957	3120.4769	3133.6445	3171.9731	3226.6074	3492.7639
N=C1OCC11CC1C=O	[NH][C]1OC[C@]21C[C@H]2C=O	
InChI=1S/C6H7NO2/c7-5-6(3-9-5)1-4(6)2-8/h2,4,7H,1,3H2	InChI=1S/C6H7NO2/c7-5-6(3-9-5)1-4(6)2-8/h2,4,7H,1,3H2/t4-,6+/m0/s1
