18
gdb 56535	2.62269	1.17555	1.03003	1.9147	72.16	-0.2623	-0.041	0.2213	1209.877	0.1437	-439.103264	-439.092854	-439.091909	-439.138785	36.815	
C	-0.0493797314	 1.6630877348	-0.1219052939	-0.455344
C	-0.0422601585	 0.12201756	-0.041008444	 0.127176
C	 0.5833464101	-0.36832999	 1.2679039879	-0.43204
C	-1.4999149534	-0.3412619789	-0.1447128754	 0.130757
O	-2.1068638392	-0.8672561097	 0.7512054555	-0.242625
C	 0.7145791087	-0.4823143934	-1.2690149322	-0.030588
O	 0.1519954049	-0.1254168808	-2.5187709263	-0.41895
C	 2.1497577594	-0.1368371932	-1.2278020344	 0.26712
N	 3.261445417	 0.179069549	-1.2149542521	-0.321968
H	 0.9739679818	 2.0509957909	-0.1498987287	 0.148935
H	-0.5827975892	 2.0232385965	-1.0078861982	 0.121243
H	-0.5470571645	 2.0850716127	 0.7553078194	 0.143604
H	-0.0259400942	-0.0454271955	 2.1143863688	 0.140917
H	 0.6283736526	-1.461145039	 1.3012246235	 0.129162
H	 1.5955465215	 0.0252654555	 1.390944056	 0.138321
H	-1.9784355636	-0.1327159824	-1.1238890682	 0.10276
H	 0.6360368191	-1.5744135818	-1.2168499926	 0.149139
H	 0.3925802789	 0.7861644953	-2.7182566949	 0.302379
53.6808	70.0006	142.9551	194.5819	218.6269	238.4148	247.1841	281.7885	311.1214	325.4515	354.6499	370.2158	450.3721	483.6123	610.0843	694.1765	769.5216	841.7357	918.5749	959.156	965.2013	1020.227	1040.8557	1083.4868	1165.6401	1220.4131	1250.0947	1282.0419	1327.5852	1398.2813	1408.8128	1419.5439	1431.1091	1484.9011	1487.1383	1502.3849	1510.9735	1829.6364	2352.2107	2925.1159	3035.1259	3050.1312	3055.2345	3104.8414	3118.5581	3120.1014	3137.6737	3813.7794
CC(C)(C=O)C(O)C#N	CC(C)(C=O)[C@@H](O)C#N	
InChI=1S/C6H9NO2/c1-6(2,4-8)5(9)3-7/h4-5,9H,1-2H3	InChI=1S/C6H9NO2/c1-6(2,4-8)5(9)3-7/h4-5,9H,1-2H3/t5-/m0/s1
