18
gdb 97237	2.94441	1.43301	0.99871	3.7265	79.15	-0.2196	-0.0302	0.1894	1180.8142	0.149201	-435.274705	-435.266154	-435.26521	-435.308456	31.7	
C	 0.1400240531	 1.3971764917	 0.3608386575	-0.293758
N	-0.0266991566	-0.012199145	 0.0817357193	-0.308014
C	-1.147334554	-0.5879195427	-0.095645087	 0.302058
N	-1.1424591778	-1.9692610845	-0.2682831483	-0.334229
C	-2.2576915013	-2.638210992	-0.9010226857	-0.180598
C	-3.5093798278	-2.1631387403	-0.1934006692	-0.064195
O	-3.6211662852	-0.739026997	-0.2752830612	-0.260528
C	-2.5164787993	 0.0508086797	-0.1191138018	 0.342059
N	-2.6471183514	 1.3104242241	-0.042946472	-0.50422
H	 1.1976617908	 1.5767490159	 0.5777768717	 0.10044
H	-0.1540911162	 2.021120183	-0.4910547549	 0.129779
H	-0.4626320835	 1.7396584105	 1.209451456	 0.12738
H	-0.2118083671	-2.3219061442	-0.4418606315	 0.24372
H	-2.3389750038	-2.4327201991	-1.981430488	 0.11085
H	-2.1499737051	-3.7197046914	-0.7730339814	 0.120865
H	-4.4164941756	-2.5560972799	-0.6580340944	 0.12214
H	-3.4834896932	-2.4677111602	 0.860142629	 0.121608
H	-3.6394675161	 1.5526063415	-0.0880108681	 0.224643
41.5552	105.8935	180.1576	242.3401	267.5337	315.1579	393.5314	416.6263	433.8323	490.8957	561.3993	602.573	670.4035	724.5948	790.551	909.3689	911.5333	970.5648	985.9734	1054.6377	1105.0357	1117.1649	1122.4889	1150.4254	1162.6845	1253.9866	1276.7391	1284.2415	1365.9196	1392.5404	1422.578	1437.5557	1469.9438	1478.9634	1493.5187	1505.0111	1506.4237	1706.6011	1735.468	2965.3542	3016.8026	3034.2974	3075.3602	3080.8334	3088.689	3111.341	3462.9939	3599.4939
CN=C1NCCOC1=N	C[N]C1=C(OCCN1)[NH]	
InChI=1S/C5H9N3O/c1-7-5-4(6)9-3-2-8-5/h6H,2-3H2,1H3,(H,7,8)	InChI=1S/C5H9N3O/c1-7-5-4(6)9-3-2-8-5/h6H,2-3H2,1H3,(H,7,8)
