18
gdb 32689	4.55002	0.96121	0.83095	5.5417	88.32	-0.2	-0.0166	0.1834	1402.6578	0.149499	-398.165355	-398.15682	-398.155875	-398.200036	31.37	
C	-0.1944130177	 1.5568725918	-0.0325298296	-0.35632
C	 0.1057135474	 0.0560227556	 0.0380092886	-0.131755
N	 0.8287567192	-0.3651782641	-1.1488862648	-0.331021
C	 1.9384169738	-0.9936655412	-1.0399266409	 0.354561
C	 2.6569344158	-1.3997022942	-2.2496685483	-0.162141
C	 3.8172328614	-2.0679386486	-2.1656472877	-0.00073
N	 4.3387638378	-2.3718721337	-0.916560977	-0.314147
C	 3.6511884193	-1.9762593228	 0.1993177375	 0.09607
N	 2.5409061723	-1.3388482156	 0.199470906	-0.315144
H	 0.7328468492	 2.138821355	-0.0124416585	 0.109422
H	-0.7232307077	 1.8011483589	-0.9586261687	 0.116455
H	-0.8120950701	 1.8696004108	 0.8161247899	 0.098645
H	 0.6344786211	-0.1822284797	 0.9686436018	 0.10445
H	-0.8486890283	-0.4903142056	 0.056331499	 0.09125
H	 2.2234738128	-1.1467890126	-3.2081217701	 0.116234
H	 4.3963875385	-2.3982321896	-3.0183864988	 0.131995
H	 5.2056044871	-2.8735206541	-0.8255514776	 0.266682
H	 4.1232548781	-2.2465477903	 1.1439127495	 0.125493
17.415	92.9991	157.1645	197.092	279.7755	350.2813	391.0188	447.9249	478.3312	526.9202	593.2335	652.1822	754.7413	782.2482	822.6283	830.7755	912.3957	957.4365	968.7276	994.0261	1014.8891	1068.9234	1106.5138	1117.3574	1166.4988	1213.2257	1243.4617	1294.8817	1369.9811	1400.45	1414.3387	1431.2407	1487.6805	1492.5048	1495.8407	1509.3967	1646.1415	1692.219	1722.4599	2994.7291	3032.4509	3048.5385	3101.4566	3112.1681	3130.8301	3211.6961	3232.0156	3663.4725
CCN=C1C=CNC=N1	CC[N]C1=NCNC=C1	
InChI=1S/C6H9N3/c1-2-8-6-3-4-7-5-9-6/h3-5H,2H2,1H3,(H,7,8,9)	InChI=1S/C6H10N3/c1-2-8-6-3-4-7-5-9-6/h3-4,7H,2,5H2,1H3
