17
gdb 128374	2.64272	1.31612	0.8903	3.7576	72.46	-0.2092	0.0152	0.2244	1287.0258	0.135662	-455.115984	-455.106956	-455.106011	-455.150127	32.145	
C	 0.032714075	 1.3647331093	-0.0695413388	-0.320169
N	-0.0181772847	-0.0667731132	 0.1783451727	-0.386096
C	-1.2185042444	-0.7205519074	 0.0793651389	 0.378881
N	-2.3815763469	-0.1064667451	 0.0472187002	-0.243403
O	-3.3461179603	-1.1244442275	 0.0094375331	-0.191764
C	-2.7251664335	-2.3229332831	 0.0021678413	-0.053197
C	-1.3813127284	-2.1450853606	 0.0439706769	 0.154307
O	-0.33038631	-2.9965800444	 0.0460739911	-0.270672
C	-0.6756697581	-4.3704112027	-0.0145490588	-0.25554
H	 1.0532405104	 1.716012717	 0.0968854384	 0.121081
H	-0.2816994583	 1.6361856702	-1.0872381628	 0.124094
H	-0.6323704992	 1.8764903998	 0.6305683836	 0.155204
H	 0.7633520955	-0.6071301676	-0.1596165585	 0.250073
H	-3.3619894172	-3.1911725486	-0.0310543198	 0.142763
H	-1.2807459911	-4.6609027409	 0.8545137232	 0.127978
H	-1.2366033811	-4.5939611141	-0.9319125503	 0.126318
H	 0.2592114825	-4.9321098712	-0.0117554904	 0.140142
77.0612	120.7876	141.9737	154.9316	213.5465	238.3908	290.7639	341.4546	425.2451	491.0914	565.5015	581.6741	661.1568	736.3559	774.1316	776.4223	909.1222	946.5555	1057.6022	1093.3568	1143.9784	1153.0033	1182.0603	1185.1758	1217.2864	1266.4977	1304.1607	1410.2411	1455.7759	1476.6632	1481.649	1486.089	1507.0508	1512.6282	1538.8416	1610.6661	1688.6558	3002.2491	3005.8763	3060.2693	3091.2816	3133.6808	3142.0668	3275.5703	3620.1333
CNC1=NOC=C1OC	CNc1nocc1OC	
InChI=1S/C5H8N2O2/c1-6-5-4(8-2)3-9-7-5/h3H,1-2H3,(H,6,7)	InChI=1S/C5H8N2O2/c1-6-5-4(8-2)3-9-7-5/h3H,1-2H3,(H,6,7)
