21
gdb 74717	2.40155	1.85273	1.42602	0.3291	86.78	-0.2101	0.0037	0.2138	1032.6496	0.183367	-349.958468	-349.950406	-349.949462	-349.990254	33.275	
C	-0.0239236908	 1.5011983891	 0.0305694451	-0.510973
C	 0.0406388266	 0.0120518651	-0.0326803142	 0.325369
C	 0.0277904228	-0.792985747	-1.0968973402	-0.197733
C	 0.002947459	-2.2448908046	-0.5864444253	-0.116623
C	 0.9233073864	-2.0611953947	 0.6544651224	-0.219026
C	 0.0420823755	-0.9064000686	 1.227139894	 0.200947
C	 0.4591415172	-0.2764878362	 2.5456553919	-0.505018
C	-1.3138283348	-1.6525352925	 1.2218439593	-0.111176
C	-1.3349347963	-2.4507922419	 0.1560684947	-0.082812
H	 0.8244301829	 1.9261844951	 0.5814058141	 0.123818
H	-0.0311343581	 1.9415544436	-0.9705236124	 0.122118
H	-0.9304161475	 1.8372398061	 0.552628965	 0.123831
H	-0.0312744123	-0.5067612652	-2.1393138809	 0.088377
H	 0.2706008429	-3.0129253767	-1.3118394126	 0.055014
H	 0.9527076083	-2.9371940517	 1.3098973468	 0.086708
H	 1.9367412452	-1.7380525433	 0.3972210654	 0.086205
H	 1.4614194015	 0.1603181526	 2.4807875224	 0.114525
H	-0.2303667465	 0.5191214476	 2.8490064683	 0.114499
H	 0.4728503083	-1.0236311594	 3.3460814566	 0.116328
H	-2.0926829819	-1.4885809034	 1.9559165361	 0.090989
H	-2.1375615284	-3.0893322841	-0.1885681366	 0.094636
153.6491	197.8994	213.5762	240.4555	300.5149	344.1637	447.6865	469.0716	533.6847	568.2973	598.4336	624.4683	717.3204	748.7505	809.0696	814.7456	845.3565	884.7326	906.6799	917.0013	926.4706	948.633	1008.5204	1023.6276	1061.4398	1082.2292	1088.0198	1122.3322	1176.0524	1188.8115	1220.4332	1254.4919	1258.3071	1269.9571	1288.4763	1346.1804	1408.4863	1415.4894	1476.8191	1482.5515	1491.2386	1497.3219	1499.2029	1633.8354	1700.6326	3009.4597	3027.9078	3042.6903	3055.2154	3092.2201	3096.6404	3103.0137	3105.1695	3115.0842	3199.3503	3208.828	3227.9621
CC1=CC2CC1(C)C=C2	CC1=C[C@H]2C[C@]1(C)C=C2	
InChI=1S/C9H12/c1-7-5-8-3-4-9(7,2)6-8/h3-5,8H,6H2,1-2H3	InChI=1S/C9H12/c1-7-5-8-3-4-9(7,2)6-8/h3-5,8H,6H2,1-2H3/t8-,9-/m0/s1
