19
gdb 77396	2.16417	1.97681	1.23925	2.9606	74.97	-0.2252	0.0633	0.2884	1054.7637	0.156674	-422.939271	-422.930523	-422.929579	-422.971964	33.803	
C	-0.1583581675	 1.6179276876	 0.0287858661	-0.429971
C	-0.0563331117	 0.0990368283	 0.0100834616	-0.135284
C	 0.8606210283	-0.5820442572	-1.0383934753	 0.313183
C	 0.760490108	-0.6187395937	-2.5345618548	-0.526952
C	 2.1630225793	-0.334473389	-0.2006637785	-0.050117
O	 2.5915839056	-1.7261891713	-0.2469755307	-0.33001
C	 1.1444439978	-1.8008176182	-0.0939673053	-0.013133
C	 1.0321816208	-0.5907200454	 0.8703110372	 0.360277
O	 1.1350124048	-0.6842374382	 2.2383430392	-0.463128
H	 0.82586904	 2.0911282085	-0.0657815143	 0.11306
H	-0.7811697393	 1.9857789312	-0.7935037807	 0.123652
H	-0.6120012825	 1.9734641972	 0.9612358574	 0.115772
H	-1.0467949175	-0.3644422898	 0.0991154943	 0.070013
H	 0.8090806555	 0.3880861635	-2.9633645264	 0.121331
H	 1.5869000386	-1.2059548347	-2.9481466744	 0.138071
H	-0.1805619959	-1.0750186085	-2.8601279488	 0.121615
H	 2.9206376724	 0.4446513031	-0.2828229154	 0.089707
H	 0.6636880127	-2.7779725752	-0.0492512285	 0.093483
H	 1.2009591005	 0.2038342217	 2.6061890173	 0.288432
174.715	177.7161	197.8564	211.5501	231.8891	244.0188	256.1236	324.9965	419.4908	529.5206	583.6472	595.8759	707.5186	736.4756	751.0903	825.8962	858.5776	904.8298	923.0308	950.3132	1012.4278	1037.3286	1060.1045	1096.1308	1101.8707	1109.5345	1146.2246	1167.8006	1173.8605	1220.6436	1282.901	1286.9228	1328.4563	1384.8523	1405.3865	1412.1664	1451.7053	1490.4013	1491.6076	1494.2158	1504.8533	3023.5638	3028.5675	3030.517	3086.2048	3092.7644	3093.6693	3103.3295	3118.0672	3125.5906	3805.1012
CC1C2(C)C3OC2C13O	C[C@H]1[C@@]2(C)[C@@H]3O[C@H]2[C@]13O	
InChI=1S/C7H10O2/c1-3-6(2)4-7(3,8)5(6)9-4/h3-5,8H,1-2H3	InChI=1S/C7H10O2/c1-3-6(2)4-7(3,8)5(6)9-4/h3-5,8H,1-2H3/t3-,4-,5+,6-,7-/m0/s1
