15
gdb 65763	2.74325	1.35742	1.17967	4.7746	61.27	-0.2611	-0.053	0.2081	1062.9779	0.11047	-494.925987	-494.917531	-494.916587	-494.959648	30.069	
O	-0.1815006346	 1.3909914726	 0.3265128327	-0.470176
C	-0.0307034718	 0.0200685286	 0.1066515917	 0.219869
C	 0.9552837586	-0.6348159702	 1.0799791474	-0.373071
C	 2.3227203835	 0.0191317171	 1.0859196894	 0.172587
O	 2.5451901726	 1.1404932262	 0.6946217774	-0.24599
C	-1.3837942988	-0.6919579159	-0.0846080587	-0.116535
O	-1.0202614376	-1.0632155318	-1.4527782249	-0.239654
C	 0.1836873482	-0.4104510568	-1.3758933307	 0.403931
O	 1.0115948351	-0.2964697815	-2.21939998	-0.319496
H	 0.7144642111	 1.7660025194	 0.3159863481	 0.305498
H	 0.5655971514	-0.5548588843	 2.1061830359	 0.15182
H	 1.0734375141	-1.705767602	 0.8764776957	 0.137582
H	 3.140098734	-0.5986643677	 1.5122305809	 0.110035
H	-1.5715809261	-1.5801405653	 0.5220385337	 0.121515
H	-2.2359606397	-0.0113639786	-0.0732094988	 0.142086
78.8528	106.7106	113.9904	187.9902	250.482	284.6367	323.9767	396.8234	553.7585	598.5213	607.5423	704.4166	753.4207	780.9479	848.9703	887.2317	940.9296	961.7319	977.3919	1064.1904	1120.0658	1152.0485	1158.181	1216.3378	1266.9109	1336.2794	1349.4377	1417.8053	1432.8398	1453.095	1506.9618	1810.1035	1939.0061	2922.0071	3012.8764	3069.6994	3077.5601	3147.7616	3679.2841
OC1(CC=O)COC1=O	O[C@@]1(CC=O)COC1=O	
InChI=1S/C5H6O4/c6-2-1-5(8)3-9-4(5)7/h2,8H,1,3H2	InChI=1S/C5H6O4/c6-2-1-5(8)3-9-4(5)7/h2,8H,1,3H2/t5-/m0/s1
