16
gdb 9661	4.81161	1.12108	1.04415	1.4316	62.83	-0.2606	-0.0399	0.2207	1127.3342	0.127197	-420.861868	-420.852951	-420.852007	-420.895976	30.913	
C	 0.0736983214	 1.5707617405	-0.1691994531	-0.473485
C	-0.0145297924	 0.0918925262	 0.1091665006	 0.269814
O	 1.1976305865	-0.6900512779	 0.0875543819	-0.289637
C	 0.5043647107	-0.575526593	 1.329951578	-0.012716
C	 1.2247733003	 0.1354243886	 2.4513124526	-0.093782
O	 2.1717602115	-0.723525561	 3.0618900839	-0.411137
C	-1.1476921719	-0.6360305343	-0.5602042463	 0.127827
O	-2.0771045889	-0.0915897848	-1.0969353633	-0.249945
H	 0.9434837871	 2.022061903	 0.3080133802	 0.130304
H	 0.1406198101	 1.7408600278	-1.2474801673	 0.144064
H	-0.8321748697	 2.0705516269	 0.1840918738	 0.145844
H	 0.021766442	-1.5032103548	 1.647224097	 0.103997
H	 1.693149752	 1.0573147183	 2.0850785017	 0.101569
H	 0.5073544646	 0.4053761819	 3.2336366137	 0.123359
H	 2.8209733524	-0.9581177535	 2.389376247	 0.295022
H	-1.0431886858	-1.7429619339	-0.5204021604	 0.088902
59.2335	88.4795	111.4308	161.1002	238.2034	267.6437	317.4472	387.4736	396.7499	448.9567	509.014	597.831	747.1921	818.0461	874.1784	935.4679	998.5149	1039.8253	1066.139	1100.0375	1115.3926	1130.7675	1222.4567	1271.0878	1330.4803	1364.1255	1404.8452	1413.9622	1422.7661	1458.9348	1481.4661	1489.4547	1499.5504	1829.3291	2896.3202	3027.2331	3058.9095	3077.9027	3092.5869	3122.5983	3154.1176	3805.6491
CC1(OC1CO)C=O	C[C@]1(O[C@H]1CO)C=O	
InChI=1S/C5H8O3/c1-5(3-7)4(2-6)8-5/h3-4,6H,2H2,1H3	InChI=1S/C5H8O3/c1-5(3-7)4(2-6)8-5/h3-4,6H,2H2,1H3/t4-,5-/m0/s1
