17
gdb 45059	2.60098	1.85606	1.27543	3.2286	72.89	-0.2444	0.0149	0.2593	987.7394	0.13854	-418.011717	-418.004427	-418.003483	-418.043345	28.982	
O	 0.0750342594	-0.0140617698	 0.07181482	-0.393096
C	 0.0407720027	 1.1993301382	 0.039563043	 0.349657
N	-1.0738090147	 1.9943873989	-0.01688663	-0.330823
C	-0.8000472739	 3.4051224848	-0.0154697825	-0.005311
C	-0.1403968952	 3.9816840306	 1.2132272275	-0.310637
C	 0.7050518542	 3.5362598732	 0.0349589186	-0.142168
C	 1.2355029723	 2.1325272058	 0.0506007331	 0.24501
C	 2.4803717246	 1.6523881487	 0.7054963936	-0.273409
N	 2.4047883449	 1.757128935	-0.7555219457	-0.363224
H	-1.992938209	 1.6038894935	 0.116192027	 0.25659
H	-1.4189543791	 4.0163469719	-0.6618091945	 0.109757
H	-0.2264079164	 5.0505950631	 1.3767947354	 0.120642
H	-0.1357252668	 3.3781002988	 2.1153231233	 0.121873
H	 1.2262096581	 4.2752200647	-0.5596322556	 0.112456
H	 3.1327802197	 2.3761754905	 1.1854797424	 0.121559
H	 2.4472035888	 0.6638804334	 1.1548773184	 0.134297
H	 2.2340766906	 0.8286947288	-1.1420121338	 0.246828
103.2749	185.8601	253.7812	264.6379	391.0623	452.5873	476.325	500.6203	576.9356	701.697	719.2801	757.7786	810.9826	815.0235	880.1672	912.802	938.7649	968.0035	1000.9598	1013.679	1047.3535	1066.1762	1087.8423	1110.7787	1122.9565	1140.7429	1195.3535	1226.0696	1277.5469	1304.3784	1343.2301	1377.4264	1417.1925	1423.2674	1477.0721	1497.3201	1816.9449	3111.6725	3127.8528	3175.6215	3199.2446	3207.323	3220.8071	3469.2196	3644.316
O=C1NC2CC2C11CN1	O=C1N[C@H]2C[C@H]2[C@]21CN2	
InChI=1S/C6H8N2O/c9-5-6(2-7-6)3-1-4(3)8-5/h3-4,7H,1-2H2,(H,8,9)	InChI=1S/C6H8N2O/c9-5-6(2-7-6)3-1-4(3)8-5/h3-4,7H,1-2H2,(H,8,9)/t3-,4+,6+/m1/s1
