18
gdb 95038	2.68668	1.85739	1.32574	1.9448	71.1	-0.2549	0.0182	0.2731	982.7791	0.150183	-439.112583	-439.10525	-439.104306	-439.144414	28.402	
C	 0.071746716	 1.5786966365	-0.0100547073	-0.406627
C	 0.1875690341	 0.066060535	-0.0257274422	 0.116582
O	 1.0709731004	-0.3366090104	-1.0670198154	-0.256872
C	 1.3899287335	-1.6962492806	-0.8217832486	-0.094819
C	 1.5776702039	-1.8069670441	 0.7054486921	-0.027398
N	 2.9636003047	-1.5308934001	 1.1145066602	-0.2635
C	 2.9339423206	-0.4147504567	 1.7118924663	 0.116361
O	 1.7554717266	 0.2289464726	 1.8920399872	-0.223066
C	 0.7560156799	-0.5948408949	 1.2447413106	 0.049429
H	 1.0414988357	 2.0328450579	 0.2011398007	 0.136246
H	-0.2828082199	 1.9340696571	-0.9807970327	 0.128116
H	-0.6380468728	 1.8999009992	 0.7579837391	 0.118406
H	-0.8072893044	-0.3847887136	-0.1977407281	 0.06612
H	 0.5704956883	-2.3542382994	-1.1541993091	 0.087587
H	 2.2993331858	-1.9464394698	-1.3704434437	 0.127125
H	 1.2643013288	-2.7814274656	 1.0870413293	 0.089557
H	 3.7916994027	 0.1003237986	 2.1300323891	 0.143081
H	-0.012283244	-0.8230724217	 1.9854808327	 0.093672
98.4984	187.5141	216.6056	237.8789	312.7071	396.3173	494.9837	544.6997	609.471	725.3009	809.9837	838.004	863.1687	877.7098	892.9814	939.9185	959.899	965.544	1020.8318	1054.7123	1094.7723	1097.1945	1123.033	1144.6435	1167.8943	1229.9947	1260.3342	1284.5158	1315.5888	1325.4013	1346.5761	1365.9223	1379.4824	1395.2868	1413.172	1485.2115	1494.7873	1503.0626	1702.7697	2932.8608	2973.1011	3053.0167	3081.0982	3100.7795	3120.6732	3123.575	3143.6591	3217.4531
CC1OCC2N=COC12	C[C@H]1OC[C@H]2N=CO[C@@H]12	
InChI=1S/C6H9NO2/c1-4-6-5(2-8-4)7-3-9-6/h3-6H,2H2,1H3	InChI=1S/C6H9NO2/c1-4-6-5(2-8-4)7-3-9-6/h3-6H,2H2,1H3/t4-,5-,6+/m1/s1
