23
gdb 103771	3.06208	1.06839	0.95033	1.9942	85.95	-0.2383	0.0662	0.3045	1367.9192	0.204352	-388.260971	-388.251101	-388.250156	-388.295593	36.969	
C	 0.2653714784	 1.4796513635	 0.3011913466	-0.381965
C	-0.1724838967	 0.0849214724	-0.1637666427	-0.245449
C	 0.6056604819	-0.4488705676	-1.3593097956	 0.300706
C	 0.4411905194	 0.3293563163	-2.6519870064	-0.466596
C	 1.9538547513	-1.0907336542	-1.0867530372	-0.394814
C	 0.7776756224	-1.9409352624	-1.4667175862	 0.243469
C	 0.1056180406	-3.0572588233	-0.6707875606	-0.140201
O	-0.0317044128	-3.8559918605	-1.8662744565	-0.277859
C	 0.607874974	-2.849707686	-2.6815349101	-0.139914
H	 1.3317053753	 1.4939699935	 0.550517093	 0.11801
H	 0.093553752	 2.237690187	-0.4690936026	 0.118647
H	-0.2921653686	 1.7850472136	 1.1919907028	 0.112589
H	-0.0668756378	-0.615835434	 0.6734152437	 0.09549
H	-1.243089036	 0.1019762609	-0.4102727754	 0.09597
H	 0.803462479	 1.3578249824	-2.5511759739	 0.120883
H	 1.0002954746	-0.1327149202	-3.4714124905	 0.115404
H	-0.6121001146	 0.3761041318	-2.953830527	 0.11632
H	 2.7468588788	-0.9617470656	-1.8180477801	 0.10773
H	 2.3022380626	-1.1383690905	-0.0585228043	 0.108143
H	 0.7307491442	-3.5534338076	 0.0838735271	 0.098404
H	-0.869150775	-2.8176623338	-0.2251806354	 0.098673
H	-0.0575439851	-2.4822613881	-3.4744816798	 0.098136
H	 1.5354471022	-3.2210106175	-3.1380213489	 0.098224
80.6085	105.6573	138.6124	162.4657	205.5	221.9515	266.0763	300.3701	361.2048	408.8008	413.4133	456.346	620.666	678.6546	790.241	854.5696	873.418	886.7845	915.1275	943.4503	982.162	997.1367	1021.0576	1031.4308	1040.92	1054.206	1069.7255	1121.7488	1135.6951	1156.5425	1162.4106	1193.2275	1213.8221	1283.5971	1309.3452	1323.1607	1358.837	1372.6423	1410.2518	1416.5806	1436.1549	1479.0098	1488.9662	1494.5119	1501.4023	1508.3614	1510.0133	1513.1284	1535.6066	2991.7907	3003.2485	3011.5747	3025.4475	3035.6537	3036.6525	3037.5051	3049.1648	3087.0538	3099.9187	3104.1038	3108.6584	3110.4418	3193.3554
CCC1(C)CC11COC1	CC[C@@]1(C)CC21COC2	
InChI=1S/C8H14O/c1-3-7(2)4-8(7)5-9-6-8/h3-6H2,1-2H3	InChI=1S/C8H14O/c1-3-7(2)4-8(7)5-9-6-8/h3-6H2,1-2H3/t7-/m0/s1
