21
gdb 70516	2.73195	1.57073	1.185	0.5169	90.89	-0.2041	-0.0194	0.1848	1122.7578	0.184311	-349.959976	-349.951768	-349.950824	-349.992302	33.051	
C	-0.1975774137	 1.5354400729	 0.036601589	-0.468552
C	-0.1011336793	 0.0177492475	 0.0307272559	 0.302001
C	-0.7052921296	-0.7175917891	 1.2281766327	-0.324291
C	 0.7849049894	-0.6135514265	 1.092787931	-0.047132
C	 1.6976491448	-1.8029148834	 0.8000356524	-0.278194
C	 1.066612135	-3.0131301045	 0.1640512653	-0.098161
C	 0.3297525838	-3.0117650742	-0.955162664	-0.070293
C	-0.0774136556	-1.8494633116	-1.7357016763	-0.114326
C	-0.2329342019	-0.5788388833	-1.3237939728	-0.107539
H	 0.6020413864	 1.986434378	-0.5627154107	 0.116823
H	-1.155026718	 1.8729216379	-0.3774434323	 0.116433
H	-0.1173435044	 1.9337268353	 1.0523999663	 0.110767
H	-1.2050358026	-0.1204423481	 1.9842515217	 0.105066
H	-1.1678671125	-1.6776849814	 1.0325451112	 0.12496
H	 1.2574707857	 0.1142641073	 1.7505043868	 0.079741
H	 2.5138498944	-1.4433840167	 0.1545450849	 0.115048
H	 2.1722310088	-2.1072464925	 1.7398971419	 0.101223
H	 1.2705706148	-3.9684786995	 0.640439673	 0.087362
H	 0.0044385544	-3.9725541294	-1.3503585655	 0.083672
H	-0.3188158588	-2.0553036483	-2.7765561744	 0.083821
H	-0.5521233712	 0.1357129298	-2.080639556	 0.08157
89.1474	180.3594	232.7918	249.602	316.1064	331.7698	381.6683	409.3086	471.4528	577.7657	645.6346	683.0746	713.2566	742.101	824.4455	857.616	881.1916	905.776	926.3808	938.2891	974.9491	995.771	1000.6232	1013.8855	1056.955	1064.8045	1107.6522	1123.156	1149.2294	1229.9528	1251.4785	1255.0832	1275.863	1332.4275	1360.3466	1403.3933	1417.7417	1434.044	1465.1696	1481.7154	1489.6551	1492.1679	1503.638	1672.8437	1706.8453	2987.7368	3021.7269	3049.9807	3081.1683	3101.4367	3112.9942	3125.501	3131.5007	3134.4189	3152.3055	3164.506	3222.9894
CC12CC1CC=CC=C2	C[C@]12C[C@H]1CC=CC=C2	
InChI=1S/C9H12/c1-9-6-4-2-3-5-8(9)7-9/h2-4,6,8H,5,7H2,1H3	InChI=1S/C9H12/c1-9-6-4-2-3-5-8(9)7-9/h2-4,6,8H,5,7H2,1H3/t8-,9+/m1/s1
