23
gdb 110019	1.96042	1.53552	0.97905	2.7344	85.38	-0.2307	-0.0135	0.2172	1307.1495	0.205604	-388.337895	-388.328187	-388.327242	-388.372477	36.695	
C	-0.1351593783	 1.6265019163	 0.0469598997	-0.386709
C	-0.1778751158	 0.0971111064	-0.0283351571	-0.187542
C	 0.6750905075	-0.4868652039	-1.1825653904	-0.103624
C	 0.786064811	-2.0343790954	-1.2086411805	 0.015668
C	 0.9611478129	-2.7416288522	 0.1340644749	-0.415354
C	-0.4612690951	-2.4877997259	-2.0031065145	-0.220596
C	-0.6007286401	-1.4387096843	-3.1132366163	-0.317993
C	 0.0130645357	-0.1584332395	-2.5310742375	 0.402569
O	-0.0284589625	 0.9283215533	-3.0522301282	-0.324292
H	 0.8858514085	 1.9773685457	 0.2337856415	 0.112731
H	-0.4734548408	 2.0841031198	-0.8852915672	 0.147906
H	-0.7677788318	 1.9898484411	 0.8629555364	 0.10679
H	 0.1878855314	-0.320138411	 0.9158712063	 0.102963
H	-1.2184301827	-0.2396327714	-0.1254953958	 0.097159
H	 1.6606225023	-0.0097579814	-1.1445922566	 0.087461
H	 1.6638602813	-2.2714541542	-1.8269858754	 0.075078
H	 0.086975764	-2.6118557313	 0.7795514488	 0.11969
H	 1.0988780182	-3.8174860459	-0.0180444499	 0.113108
H	 1.8374069707	-2.3698119807	 0.6759878474	 0.115237
H	-0.3602099403	-3.5084426503	-2.3824393178	 0.099935
H	-1.3425735267	-2.474093198	-1.3502864484	 0.103468
H	-0.0088685646	-1.7083636774	-3.9976623543	 0.130124
H	-1.6200888549	-1.25555888	-3.4623328749	 0.126225
58.7448	101.657	167.6265	188.2303	218.3592	243.1643	261.2389	294.9257	358.5932	446.1817	501.5314	531.2974	575.998	623.3388	735.0622	789.6629	840.1458	852.0154	887.6637	944.5598	958.995	1002.6056	1019.5177	1040.6629	1050.3599	1097.1035	1106.5525	1156.9226	1171.034	1193.014	1234.967	1248.4716	1284.075	1302.0333	1317.0012	1334.8233	1351.8324	1367.6975	1383.352	1413.7931	1417.4122	1450.9292	1487.9047	1496.4648	1499.3303	1500.9167	1505.4246	1510.9395	1830.8676	2994.512	3019.8856	3030.8332	3034.9201	3037.0368	3037.9763	3049.6363	3067.7424	3087.9931	3095.3988	3099.4804	3102.5692	3105.0562	3131.9014
CCC1C(C)CCC1=O	CC[C@H]1[C@@H](C)CCC1=O	
InChI=1S/C8H14O/c1-3-7-6(2)4-5-8(7)9/h6-7H,3-5H2,1-2H3	InChI=1S/C8H14O/c1-3-7-6(2)4-5-8(7)9/h6-7H,3-5H2,1-2H3/t6-,7-/m0/s1
