18
gdb 14275	2.96432	2.62478	1.87413	1.9741	66.6	-0.25	0.0785	0.3285	774.8023	0.157073	-384.923139	-384.916898	-384.915954	-384.953095	25.814	
C	-0.0199999863	 1.5583323501	 0.0467254044	-0.266839
C	 1.5355600106	 1.5127177001	 0.011735296	-0.026416
C	 1.4399747035	 0.0474917199	 0.5302239402	-0.232144
C	-0.0162703513	 0.0071490874	-0.0228018717	 0.133962
O	-0.1176934394	-0.5515746681	-1.324148329	-0.259814
C	 0.4767558937	 0.1608148427	-2.3805556565	 0.018258
O	 1.8389266201	 0.439849801	-2.2032338412	-0.236745
C	 2.1248684622	 1.5817898971	-1.4012382092	-0.094392
H	-0.3818770704	 1.8847012936	 1.0253193267	 0.104331
H	-0.5549663739	 2.1211590661	-0.7227034757	 0.100741
H	 2.0519790632	 2.2399666995	 0.6452092189	 0.068263
H	 2.1332961167	-0.6860861634	 0.1169033074	 0.114836
H	 1.4512645761	-0.0007636313	 1.6225126819	 0.096076
H	-0.7609973607	-0.5256835916	 0.5718493254	 0.079959
H	 0.3998847295	-0.5012653415	-3.246176391	 0.116151
H	-0.0721608137	 1.0964327982	-2.5817671193	 0.079268
H	 1.7765947211	 2.4959903794	-1.9095682453	 0.092135
H	 3.2173036892	 1.6212042509	-1.3515011519	 0.112368
215.6377	290.3774	329.3026	381.3813	411.4996	440.5443	522.7383	649.6851	776.0799	787.9426	811.5853	880.5793	900.4909	937.2864	942.8269	960.7559	1023.3051	1049.8253	1078.4025	1091.7984	1117.6683	1134.0575	1165.3443	1199.6158	1225.172	1252.3937	1264.3901	1276.8991	1305.0849	1335.826	1350.1906	1386.6561	1402.7631	1447.2479	1459.705	1489.8409	1492.2047	1518.459	2957.2986	2973.6721	3056.4532	3061.5164	3069.5363	3082.3193	3090.6733	3102.4642	3111.7992	3135.6793
C1C2CC1OCOC2	C1[C@H]2C[C@@H]1OCOC2	
InChI=1S/C6H10O2/c1-5-2-6(1)8-4-7-3-5/h5-6H,1-4H2	InChI=1S/C6H10O2/c1-5-2-6(1)8-4-7-3-5/h5-6H,1-4H2/t5-,6+
