13
gdb 130238	2.3646	1.86969	1.04753	4.7952	63.75	-0.2404	-0.0427	0.1978	1034.6875	0.089532	-486.065315	-486.057561	-486.056616	-486.097788	28.33	
N	 0.1072341701	 1.3547393027	 0.077165896	-0.592619
C	 0.0058555758	-0.0168172547	 0.0046558433	 0.470611
N	-1.103413559	-0.6681706318	 0.0644414331	-0.203668
O	-0.7275535293	-2.0455550824	 0.0698961195	-0.253376
C	 0.6303831006	-2.1696846283	-0.053602691	 0.50488
N	 1.3057107194	-3.2254222597	-0.1307014942	-0.550119
N	 1.1241762577	-0.8421823236	-0.0674107281	-0.201904
C	 2.4597056461	-0.4195905738	 0.0174251903	 0.167766
O	 3.4145780355	-1.1375613766	-0.0362816903	-0.246842
H	 0.6571957715	 1.7785452718	-0.6601008276	 0.271904
H	-0.8085991008	 1.7825630649	 0.1411923959	 0.281436
H	 0.6968894027	-4.0407576989	-0.0830746787	 0.243239
H	 2.5123450496	 0.6747451105	 0.1520694517	 0.108691
85.6429	169.1536	208.463	232.4141	313.3202	339.33	345.6904	464.5584	548.4074	642.7704	661.0412	720.451	763.7467	777.1925	795.327	808.0544	931.8777	1018.4754	1020.4091	1126.6262	1166.2836	1216.8854	1353.2141	1449.8182	1491.2589	1628.0929	1708.3103	1780.0719	1858.2135	2986.7388	3521.1959	3536.1308	3630.6327
NC1=NOC(=N)N1C=O	NC1=NO[C@H]([NH])N1C=O	
InChI=1S/C3H4N4O2/c4-2-6-9-3(5)7(2)1-8/h1,5H,(H2,4,6)	InChI=1S/C3H5N4O2/c4-2-6-9-3(5)7(2)1-8/h1,3,5H,(H2,4,6)/t3-/m1/s1
