13
gdb 5378	5.37801	1.72464	1.31656	2.7971	64.78	-0.2531	-0.0753	0.1778	873.7428	0.096121	-394.800153	-394.793066	-394.792122	-394.832727	24.374	
C	-0.0056923051	 1.43995873	 0.0336069088	-0.321475
N	-0.0058753041	-0.0106276485	-0.0146231494	-0.292242
C	 0.5452492043	-0.6664179685	 0.9020646846	 0.462518
O	 1.1728645932	 0.0357576706	 1.9941785984	-0.214888
C	 1.7502379391	-0.6809140061	 2.9551220428	 0.158922
N	 1.8117438596	-1.9585093946	 3.0183702588	-0.280657
C	 1.1945494451	-2.5968165404	 1.9455807703	 0.070727
N	 0.5988809562	-2.0440659189	 0.9483754363	-0.261344
H	 1.0127482564	 1.850197648	 0.0373406487	 0.125797
H	-0.5290030947	 1.8229787028	-0.844646615	 0.130279
H	-0.509768398	 1.8206721649	 0.9316586956	 0.125784
H	 2.1901454196	-0.0505452114	 3.7253445816	 0.155361
H	 1.2334773184	-3.6832249678	 1.9758204584	 0.141218
31.3765	89.7967	217.9201	227.278	365.815	490.1185	529.67	589.8332	662.5799	707.4644	772.8611	933.9887	966.331	975.964	1027.04	1083.3001	1108.8703	1139.4937	1195.202	1245.2294	1405.986	1424.3891	1437.2975	1483.6456	1500.8824	1584.162	1688.4069	1786.9484	3005.8782	3057.2695	3116.9939	3168.0304	3172.0041
CN=C1OC=NC=N1	C[N]C1=NCN=CO1	
InChI=1S/C4H5N3O/c1-5-4-7-2-6-3-8-4/h2-3H,1H3	InChI=1S/C4H6N3O/c1-5-4-7-2-6-3-8-4/h3H,2H2,1H3
