17
gdb 76482	3.31822	1.04348	1.00713	4.0794	69.78	-0.2398	-0.0205	0.2193	1221.882	0.1333	-458.937709	-458.928969	-458.928025	-458.971487	32.885	
O	 0.0784208305	 1.3630978075	 0.2508616659	-0.426424
C	 0.0964404348	-0.0393238864	 0.1422529532	-0.043154
C	-0.5916930518	-0.7932674392	 1.2601387261	 0.031408
O	-1.1038875673	-0.0530280715	 2.3234676644	-0.429282
C	-1.2402708451	-0.6746520048	-0.0979105342	 0.260561
C	-2.5545653942	 0.0766667058	-0.3608582587	-0.415718
C	-2.9261656269	-1.0643637845	-1.3276916554	 0.409932
O	-3.8828228357	-1.2956750147	-2.0048893389	-0.283919
C	-1.5860659452	-1.7971847108	-1.0911672623	-0.438033
H	 0.892036742	 1.6372650164	 0.6895166422	 0.299006
H	 0.9734429277	-0.4587205814	-0.349100973	 0.095966
H	-0.2041735863	-1.7565944603	 1.5806013045	 0.104936
H	-0.9897712147	 0.8768974502	 2.0807242584	 0.286419
H	-3.217115144	 0.1759081533	 0.5052148254	 0.142365
H	-2.4594306945	 1.0538765697	-0.8446218897	 0.14245
H	-0.9597243288	-1.8551635048	-1.9882819041	 0.130469
H	-1.6893917304	-2.8032366744	-0.6711691238	 0.133018
44.1721	153.5353	158.6213	237.4504	245.0204	273.2067	394.1223	421.1004	481.0816	485.9543	490.8478	613.2175	650.6342	690.2117	719.7477	819.2903	841.7431	906.3531	975.8093	1016.7809	1054.8714	1075.3146	1078.5983	1124.6333	1148.0665	1169.7132	1195.7535	1202.3545	1210.0124	1260.4777	1302.6371	1331.2334	1407.1059	1429.2468	1446.4395	1477.634	1901.0131	3041.375	3052.0803	3092.4253	3102.2897	3109.3605	3147.7888	3736.246	3796.2104
OC1C(O)C11CC(=O)C1	O[C@H]1[C@@H](O)C21CC(=O)C2	
InChI=1S/C6H8O3/c7-3-1-6(2-3)4(8)5(6)9/h4-5,8-9H,1-2H2	InChI=1S/C6H8O3/c7-3-1-6(2-3)4(8)5(6)9/h4-5,8-9H,1-2H2/t4-,5+
