23
gdb 63488	3.03654	0.96213	0.84856	2.9313	87.25	-0.2406	-0.0177	0.2229	1464.1138	0.20181	-388.297883	-388.286966	-388.286021	-388.333951	39.869	
C	 0.0498345199	 1.4891767067	-0.2416717396	-0.450125
C	 0.0184560607	-0.0106099313	 0.0109728364	 0.279306
C	-1.2092601635	-0.6543988464	-0.6147814018	-0.451035
C	 1.3223106961	-0.7789355938	-0.0158436567	-0.370658
C	 0.6052790753	-0.5682235367	 1.307971455	 0.296479
C	 1.2250893627	 0.3766139466	 2.3287225448	-0.461251
C	-0.0423588129	-1.7755879694	 1.9826395322	-0.34425
C	 0.9773676005	-2.6482394891	 2.6865562028	 0.167762
O	 0.8859238454	-3.0462228108	 3.8194130868	-0.246352
H	 0.9628271134	 1.9655278005	 0.1187896015	 0.115722
H	-0.0172022519	 1.6879591929	-1.3175747144	 0.116402
H	-0.8006886912	 1.9894576104	 0.2367483439	 0.116093
H	-1.265645005	-0.3918073101	-1.6774504733	 0.116795
H	-1.2011124239	-1.744971316	-0.5577712061	 0.114238
H	-2.1321891284	-0.2996462953	-0.1405084153	 0.11711
H	 1.3168446234	-1.7725232296	-0.4545806368	 0.104179
H	 2.2445148292	-0.2316101102	-0.1858556085	 0.107697
H	 1.803006208	 1.1777084198	 1.8657001583	 0.118371
H	 0.4553900467	 0.8369934384	 2.9595277375	 0.121225
H	 1.9049252119	-0.1665416924	 2.9953924582	 0.12645
H	-0.7989662532	-1.4741907134	 2.7151195526	 0.116436
H	-0.5345218188	-2.417111495	 1.2425989559	 0.114608
H	 1.8560322354	-2.9167264158	 2.0543662466	 0.0748
58.7387	73.7879	122.8071	164.4374	166.2677	183.7095	223.6825	278.3722	326.419	357.1804	374.7119	399.1236	440.3149	492.9559	519.7258	692.9691	696.6297	808.2189	877.5546	913.4143	933.7359	956.8798	966.7087	980.4545	1033.8745	1049.2719	1055.5531	1062.6882	1115.5726	1151.164	1178.0366	1219.7028	1260.0193	1296.3971	1314.0658	1388.5673	1410.4069	1418.3558	1426.2656	1428.7152	1453.4705	1481.1853	1486.7664	1490.622	1491.386	1500.7808	1508.9395	1519.4885	1832.4418	2859.6639	3023.8214	3027.1389	3030.6172	3040.471	3078.2807	3081.0293	3082.7	3089.5139	3114.3765	3117.5435	3120.9284	3137.8904	3197.8872
CC1(C)CC1(C)CC=O	CC1(C)C[C@]1(C)CC=O	
InChI=1S/C8H14O/c1-7(2)6-8(7,3)4-5-9/h5H,4,6H2,1-3H3	InChI=1S/C8H14O/c1-7(2)6-8(7,3)4-5-9/h5H,4,6H2,1-3H3/t8-/m0/s1
