18
gdb 63595	4.73535	0.69521	0.66008	2.2419	98.62	-0.2324	-0.0166	0.2158	1722.1283	0.144732	-364.742374	-364.732572	-364.731628	-364.777022	36.333	
C	-0.130119095	 1.5290126127	-0.1271989918	-0.438612
C	-0.0368244728	 0.0238487925	-0.0040462057	 0.333722
C	-1.2309340151	-0.7434336205	-0.5345334046	-0.457268
N	 1.3048926915	-0.5276720148	-0.2240780101	-0.344472
C	 0.7208298491	-0.5890700513	 1.1453917382	-0.392293
C	 1.3480857684	 0.1798566034	 2.1773301833	 0.471328
C	 1.8505954601	 0.8135613123	 3.0793760686	-0.183461
C	 2.418058821	 1.5275488112	 4.0876105602	 0.293864
C	 2.9209243361	 2.1608282356	 4.9850187422	-0.567895
H	 0.7721231285	 2.0072320673	 0.257004066	 0.143411
H	-0.249872402	 1.8143582968	-1.1780808983	 0.11871
H	-0.9923167151	 1.9117724715	 0.4289879645	 0.119356
H	-1.3485413914	-0.56994441	-1.6105409631	 0.127105
H	-1.1208702057	-1.8211367492	-0.3745227548	 0.114781
H	-2.156261506	-0.4217404812	-0.0450778768	 0.130724
H	 1.2451666381	-1.4537526797	-0.643358188	 0.23118
H	 0.3537918771	-1.5587961038	 1.4777930119	 0.109723
H	 3.3653906032	 2.7177686372	 5.7719871481	 0.190094
69.9465	78.827	182.3434	197.5027	202.7935	244.899	311.922	347.7729	383.5444	395.1315	473.9513	508.2581	535.1931	555.6913	594.6996	606.3437	704.7254	749.7897	833.1952	899.2155	960.3549	967.0922	1010.709	1058.8168	1081.656	1149.7627	1167.479	1234.3057	1299.9951	1348.937	1414.262	1424.2868	1431.2435	1476.4171	1487.4163	1496.4711	1508.9807	2180.6569	2354.6791	3025.5858	3038.0001	3091.2344	3098.9983	3101.5293	3115.0101	3141.3446	3484.3127	3504.6456
CC1(C)NC1C#CC#C	CC1(C)N[C@H]1C#CC#C	
InChI=1S/C8H9N/c1-4-5-6-7-8(2,3)9-7/h1,7,9H,2-3H3	InChI=1S/C8H9N/c1-4-5-6-7-8(2,3)9-7/h1,7,9H,2-3H3/t7-/m0/s1
