23
gdb 119421	3.17555	0.94935	0.83033	1.7023	86.99	-0.2364	0.0878	0.3242	1528.4494	0.203761	-388.277069	-388.267019	-388.266075	-388.312337	37.419	
C	-0.0156001669	 1.5512392164	-0.2614811718	-0.383191
C	-0.0775839065	 0.0232540707	-0.2066756473	-0.157701
C	-1.4209940366	-0.5004347412	 0.3273614418	-0.310023
C	-1.4804395266	-1.9953120891	 0.3816347161	 0.369292
C	-0.7730393792	-2.9515159027	 1.3615466665	-0.285395
C	-1.9197706647	-3.9890089495	 1.1061778876	-0.280524
C	-2.5606690147	-2.9778924797	 0.1381444211	 0.338764
C	-3.9988518676	-2.8447278647	-0.244692707	-0.499394
O	-1.5660978886	-2.7109072707	-0.8678972116	-0.333499
H	 0.9480638081	 1.8970974448	-0.6480116087	 0.112577
H	-0.7994577065	 1.9562341779	-0.9113222878	 0.114792
H	-0.1525724768	 1.9907754634	 0.7331198693	 0.111751
H	 0.0879047788	-0.3956313969	-1.2058494806	 0.116146
H	 0.7358502056	-0.3561701482	 0.424755638	 0.098182
H	-1.5992052254	-0.0997410023	 1.3345188962	 0.095459
H	-2.2357705907	-0.1351793564	-0.3095621489	 0.102182
H	 0.2354471815	-3.252633914	 1.0680869567	 0.105574
H	-0.7589806349	-2.5841532158	 2.3911196407	 0.099428
H	-1.632087994	-4.9411390445	 0.6532218996	 0.10457
H	-2.5228468071	-4.1776616675	 1.9983057524	 0.09952
H	-4.6383270119	-2.8249286546	 0.6439623482	 0.120831
H	-4.16415437	-1.9281494471	-0.8174583	 0.13084
H	-4.3136780753	-3.6916468082	-0.8655290903	 0.129821
60.3742	83.9542	105.0478	188.4507	206.7866	237.7461	244.9285	310.1786	322.9228	347.9246	491.8859	507.3972	615.7285	719.5258	742.1085	756.4323	778.9292	856.765	882.5205	893.9603	918.1723	938.3858	993.7511	1013.4324	1047.3552	1070.4136	1119.4375	1133.0167	1174.6061	1197.9736	1215.7364	1218.2181	1229.4489	1278.892	1300.1545	1316.9893	1334.8819	1387.9675	1408.3854	1412.2655	1461.1105	1464.4943	1470.6562	1481.0225	1490.8538	1492.3565	1499.5918	1508.8167	1522.5495	3014.1441	3026.7874	3029.3075	3031.1527	3052.3407	3056.7829	3064.7279	3071.0684	3091.9693	3096.965	3102.3263	3107.3637	3117.1841	3124.2454
CCCC12CCC1(C)O2	CCC[C@@]12CC[C@]1(C)O2	
InChI=1S/C8H14O/c1-3-4-8-6-5-7(8,2)9-8/h3-6H2,1-2H3	InChI=1S/C8H14O/c1-3-4-8-6-5-7(8,2)9-8/h3-6H2,1-2H3/t7-,8+/m0/s1
