21
gdb 64035	2.18714	1.49666	1.14734	2.9216	83.86	-0.237	-0.0272	0.2097	1172.6593	0.1812	-387.117643	-387.108391	-387.107447	-387.151645	35.242	
C	-0.0191603929	 1.5626562603	-0.0423193723	-0.446816
C	 0.0491540761	 0.0299806331	-0.00118329	 0.280142
C	-1.3797994297	-0.5411723476	-0.0027877887	-0.418865
C	 0.8452928704	-0.5715798738	-1.2012459664	-0.289907
C	 1.5417117726	-1.7693229094	-0.6091022021	-0.058404
C	 1.4890784907	-1.7740188025	 0.7222293796	-0.097995
C	 0.7920220285	-0.5449480847	 1.267504668	-0.139432
C	 1.8346422187	 0.3982307829	 1.8480995355	 0.147866
O	 1.8279510606	 0.8188952123	 2.9762513983	-0.254407
H	 0.9730152046	 2.0225961272	-0.0880579783	 0.115655
H	-0.5738864705	 1.894760093	-0.9265199912	 0.113999
H	-0.5321197393	 1.9610685508	 0.8394987478	 0.125835
H	-1.9156982905	-0.2329282147	-0.9072548164	 0.111565
H	-1.3681319095	-1.6351735583	 0.0285276421	 0.12073
H	-1.946867496	-0.1822701123	 0.8624225505	 0.117243
H	 0.1832308991	-0.8341143375	-2.0356609018	 0.103041
H	 1.5738237039	 0.1451001601	-1.6051497141	 0.105878
H	 2.0270383628	-2.5264470749	-1.215585858	 0.099775
H	 1.9314130337	-2.5213059815	 1.3712500472	 0.105124
H	 0.0875356387	-0.763142906	 2.076996569	 0.085299
H	 2.6537702277	 0.6644737437	 1.1404023712	 0.073672
63.3441	77.8089	201.1965	240.9834	264.2227	299.2602	312.654	347.7273	360.6137	434.6662	460.3442	495.8562	595.2978	736.4956	760.5563	802.9209	907.3329	927.4922	946.271	958.3794	973.7235	981.4031	987.2496	1014.4994	1060.8806	1085.6438	1132.8697	1138.1949	1202.7554	1214.1443	1248.717	1269.8721	1300.7526	1328.586	1363.4171	1398.6737	1421.562	1423.5193	1480.7239	1485.6962	1493.9977	1504.1226	1510.9699	1679.3401	1824.8511	2858.6327	3009.1822	3026.7131	3031.4693	3044.9965	3056.5113	3094.4954	3098.1946	3101.1353	3105.4179	3182.9143	3208.3388
CC1(C)CC=CC1C=O	CC1(C)CC=C[C@H]1C=O	
InChI=1S/C8H12O/c1-8(2)5-3-4-7(8)6-9/h3-4,6-7H,5H2,1-2H3	InChI=1S/C8H12O/c1-8(2)5-3-4-7(8)6-9/h3-4,6-7H,5H2,1-2H3/t7-/m0/s1
