23
gdb 104427	2.9963	1.16744	1.05554	1.1989	87.61	-0.2421	0.0232	0.2653	1285.9377	0.205834	-388.302433	-388.293007	-388.292063	-388.336154	36.496	
C	-0.0025987486	 1.5536762036	 0.2200397053	-0.399222
C	-0.0100224768	 0.0418200305	-0.0321465291	-0.205485
C	 0.7243946944	-0.4439412399	-1.3071355878	 0.23149
C	 2.182120312	 0.0611222898	-1.3435911005	-0.42176
C	 0.7199972928	-1.9864594866	-1.2959086914	-0.114708
O	 1.1415243195	-2.5286109674	-2.5351413733	-0.254199
C	 0.2291235585	-2.2514287563	-3.5794369712	-0.12095
C	-0.2490271675	-0.8265433451	-3.5756209215	-0.095255
C	-0.0094210102	-0.0033228078	-2.5577899481	-0.076007
H	 1.0125809368	 1.9380663613	 0.3542809831	 0.12111
H	-0.4644554703	 2.1110543205	-0.6011623666	 0.118655
H	-0.566155495	 1.7887830461	 1.1282969687	 0.114391
H	 0.4469384399	-0.4601181479	 0.8321538031	 0.09279
H	-1.0485831705	-0.3102823757	-0.0751796952	 0.096152
H	 2.6855871875	-0.1301983408	-0.3881920867	 0.104708
H	 2.73106569	-0.4575013806	-2.133577996	 0.129216
H	 2.2366348182	 1.1349808685	-1.5444214197	 0.111106
H	 1.4178543632	-2.3693480641	-0.5440301061	 0.101053
H	-0.2891153429	-2.3525408584	-1.0427263392	 0.081805
H	 0.755735434	-2.4786133309	-4.5142238551	 0.115529
H	-0.6367781212	-2.9387847344	-3.5293226619	 0.09543
H	-0.8059072686	-0.4971968361	-4.4493647474	 0.089676
H	-0.3441765252	 1.0299790217	-2.6048913833	 0.084473
93.4176	110.1937	185.0998	224.12	254.7547	273.8959	285.3992	322.	364.8712	403.0514	484.2973	510.6447	548.9091	695.3841	730.9676	785.5869	831.0602	887.2623	919.0769	943.4312	965.7719	993.2421	997.71	1018.9673	1030.7154	1066.7731	1084.8372	1127.9057	1176.6309	1197.5174	1217.7652	1248.6896	1267.3105	1310.2943	1341.2747	1370.7063	1372.3456	1394.5226	1406.0007	1418.0998	1430.0376	1478.0663	1484.4522	1488.6957	1496.7277	1501.3375	1505.7884	1509.9359	1720.2748	2925.7024	2964.2036	3007.1492	3026.1796	3040.4215	3045.3256	3047.3209	3071.8625	3095.9613	3102.6559	3112.13	3121.7889	3145.3761	3168.7613
CCC1(C)COCC=C1	CC[C@@]1(C)COCC=C1	
InChI=1S/C8H14O/c1-3-8(2)5-4-6-9-7-8/h4-5H,3,6-7H2,1-2H3	InChI=1S/C8H14O/c1-3-8(2)5-4-6-9-7-8/h4-5H,3,6-7H2,1-2H3/t8-/m1/s1
