13
gdb 130718	3.18463	1.49318	1.01655	2.8453	79.28	-0.2371	-0.0819	0.1552	1068.5914	0.090557	-415.6154	-415.608137	-415.607193	-415.647246	27.42	
O	-0.0314090399	-0.0557067193	 0.0038721432	-0.367053
C	 0.0271875455	 1.1566823531	 0.0091639271	 0.363251
N	-1.1440412051	 1.9273963959	 0.0281747855	-0.262688
N	-1.2884697102	 3.2548053437	 0.0366369599	-0.17521
C	-0.1822180912	 3.9481191148	 0.0257037021	 0.008124
C	 1.1070226364	 3.3521030054	 0.0059846668	-0.198108
C	 1.2421352788	 1.9896862171	-0.0025271493	-0.009879
C	 2.4998893491	 1.3398407674	-0.0221214112	 0.270033
C	 3.5734658436	 0.7951309289	-0.0387668863	-0.373846
H	-2.0083373075	 1.4002403726	 0.0367863228	 0.278733
H	-0.3019842708	 5.0249218506	 0.0326033636	 0.133176
H	 1.9880037788	 3.9845003128	-0.0023393649	 0.127768
H	 4.5139307425	 0.3014368568	-0.0533438093	 0.205699
109.3833	140.5071	198.2665	350.9355	387.227	459.7912	479.1858	567.6555	604.213	608.1021	628.0695	652.2267	723.2163	748.1807	802.309	881.1096	898.9393	971.6156	1060.5041	1142.7418	1181.9943	1249.4151	1348.5621	1401.0849	1445.6246	1573.8223	1628.2823	1791.2016	2227.0908	3192.747	3209.6565	3500.3366	3586.0477
O=C1NN=CC=C1C#C	O=c1[nH]nccc1C#C	
InChI=1S/C6H4N2O/c1-2-5-3-4-7-8-6(5)9/h1,3-4H,(H,8,9)	InChI=1S/C6H4N2O/c1-2-5-3-4-7-8-6(5)9/h1,3-4H,(H,8,9)
