19
gdb 97900	5.46771	0.5586	0.522	5.0471	86.45	-0.2575	0.0185	0.276	2090.9364	0.158147	-382.056732	-382.046089	-382.045144	-382.094037	36.815	
C	 0.2188355879	 1.4963061554	 0.2223985373	-0.36496
C	-0.2817742905	 0.1128001286	-0.2315725375	-0.317281
C	 0.4299983581	-0.396156284	-1.4004357255	 0.138653
C	 1.0352136594	-0.7711801443	-2.373242638	-0.011822
C	 1.7582233389	-1.2880418771	-3.5273951693	-0.359541
C	 2.0261261575	-2.8210375286	-3.3826093685	-0.116007
N	 0.8415800182	-3.6575768544	-3.2101349915	-0.501154
C	 2.7933632137	-3.2887153709	-4.5467376861	 0.293517
N	 3.3927446085	-3.6161405901	-5.4783702029	-0.316543
H	 1.279209754	 1.4590058862	 0.485748065	 0.130617
H	 0.094450158	 2.2350772051	-0.5737692642	 0.131268
H	-0.3429533388	 1.8342992606	 1.0979180061	 0.118933
H	-0.180087519	-0.602752941	 0.5943410897	 0.132114
H	-1.3552691742	 0.1651032011	-0.4537264789	 0.132136
H	 1.1874217834	-1.1192575543	-4.4492575301	 0.138475
H	 2.714619923	-0.7654752543	-3.6517080133	 0.145878
H	 2.6577548411	-2.9622609854	-2.4972079808	 0.142994
H	 0.3159479166	-3.2969640571	-2.417894083	 0.244109
H	 0.2385540442	-3.5743135558	-4.0244948486	 0.238613
28.5975	53.2627	72.8833	144.7588	170.3078	194.6321	244.064	278.6817	315.4195	344.2715	385.3995	481.8909	506.7602	551.1946	579.5891	747.759	787.8372	841.1103	881.4508	919.7252	966.8781	1024.0617	1078.2845	1105.9858	1122.867	1165.4915	1183.9917	1252.3959	1287.3613	1296.6467	1348.0248	1352.1889	1411.4661	1417.2661	1468.3758	1476.0998	1495.3746	1505.6392	1659.2137	2361.1241	2364.593	3021.9584	3023.8509	3043.0954	3046.8314	3049.375	3064.9407	3120.9917	3126.0003	3482.523	3565.8656
CCC#CCC(N)C#N	CCC#CC[C@@H](N)C#N	
InChI=1S/C7H10N2/c1-2-3-4-5-7(9)6-8/h7H,2,5,9H2,1H3	InChI=1S/C7H10N2/c1-2-3-4-5-7(9)6-8/h7H,2,5,9H2,1H3/t7-/m1/s1
