21
gdb 88079	3.34159	1.23413	1.15031	1.7088	82.47	-0.2275	0.0787	0.3062	1179.4853	0.184499	-383.231903	-383.223717	-383.222773	-383.264426	32.509	
C	-0.0755824282	 1.5335841381	-0.0889540848	-0.396569
C	-0.0313909518	 0.0349849435	 0.092359571	-0.063651
N	 1.2700355877	-0.6325692067	-0.1150129048	-0.384753
C	 0.6510620432	-0.6387367043	 1.2251017414	 0.368664
C	 1.4073181839	 0.0489070218	 2.3594117158	-0.32799
C	 1.8480411882	-1.1408639813	 3.2496063122	-0.158267
N	 0.9158954814	-2.2682135317	 3.0207421091	-0.099497
C	-0.4975285068	-1.8908901268	 3.1393368153	-0.256648
C	 0.1525894195	-1.9367388697	 1.8015633797	-0.099501
H	 0.831708203	 2.0020962608	 0.2992509966	 0.126279
H	-0.1590103367	 1.7907637015	-1.1503928523	 0.120593
H	-0.9391343802	 1.9640947966	 0.4299792896	 0.114874
H	-0.9079878243	-0.4862031671	-0.2942179919	 0.078502
H	 1.1397033536	-1.5338534488	-0.5700933963	 0.224517
H	 2.2563554378	 0.6200266163	 1.9820564279	 0.120144
H	 0.7550971685	 0.7402148067	 2.9029668879	 0.10512
H	 2.8437739007	-1.486857204	 2.9546022064	 0.114943
H	 1.8818608067	-0.893980489	 4.314846009	 0.104825
H	-1.1554870447	-2.699209029	 3.4451618644	 0.115663
H	-0.7549922566	-0.9197397447	 3.5556718453	 0.109788
H	-0.0661859447	-2.7508156424	 1.1132016385	 0.082965
102.9655	157.5186	179.9704	205.4492	305.5677	375.5474	389.0128	448.7229	490.5885	552.715	657.0446	715.6366	780.4595	814.0942	834.8725	865.8196	884.2379	943.4967	954.8449	985.9573	1011.2106	1036.0395	1054.8219	1067.7022	1100.5562	1106.6597	1113.9541	1129.7522	1163.9438	1203.6746	1233.3453	1243.95	1265.5474	1290.4428	1300.9722	1334.8529	1345.0017	1389.3906	1411.2499	1470.9156	1481.784	1490.8317	1497.4509	1505.1157	1516.508	3034.3965	3049.3883	3053.2562	3093.3544	3094.0834	3094.8002	3105.3997	3123.5732	3125.3794	3129.394	3189.1939	3483.2264
CC1NC11CCN2CC12	C[C@H]1N[C@]21CCN1C[C@@H]21	
InChI=1S/C7H12N2/c1-5-7(8-5)2-3-9-4-6(7)9/h5-6,8H,2-4H2,1H3	InChI=1S/C7H12N2/c1-5-7(8-5)2-3-9-4-6(7)9/h5-6,8H,2-4H2,1H3/t5-,6+,7+,9?/m1/s1
