21
gdb 122246	2.65524	0.92178	0.77137	1.3095	86.57	-0.2407	0.0555	0.2962	1581.3885	0.179402	-387.037605	-387.027228	-387.026283	-387.073758	37.59	
C	 0.377887856	 1.4186778164	 0.3025065284	-0.384304
C	-0.0368700682	-0.0019768836	-0.0407067945	-0.022441
O	 0.8188943139	-0.4866855794	-1.0553036957	-0.242177
C	 0.5165366144	-1.8015532169	-1.4595223219	-0.126706
C	 1.4106453596	-2.1784266395	-2.6240239788	 0.145141
C	 2.8404426731	-2.5860261585	-2.3040107867	-0.279368
C	 1.8539300192	-3.6325570491	-2.727281945	-0.305877
C	 1.1675691186	-1.4633870203	-3.8488260427	 0.289591
C	 0.9517847112	-0.875926791	-4.8759894902	-0.471643
H	 1.4122703389	 1.4412959234	 0.657031022	 0.125855
H	 0.3046239986	 2.0611165045	-0.5793587484	 0.130389
H	-0.2677671322	 1.8262084885	 1.0861994902	 0.112853
H	 0.0238697727	-0.6493912635	 0.8514827784	 0.081551
H	-1.0852579792	-0.0278242534	-0.3835011522	 0.086837
H	 0.6785586479	-2.5098410333	-0.6284636999	 0.077627
H	-0.5416930097	-1.8810195915	-1.7581625743	 0.093975
H	 3.6089945407	-2.2892571265	-3.0068575002	 0.129234
H	 3.1352357842	-2.5403400545	-1.2616538495	 0.123322
H	 1.4742072388	-4.3217110773	-1.9804300344	 0.117585
H	 1.9392228383	-4.0479352714	-3.723914279	 0.128875
H	 0.7668947534	-0.3484165531	-5.7783740055	 0.18968
47.3701	67.9712	108.3867	129.9702	175.2838	219.0255	247.5354	287.5391	316.1882	385.8449	462.8336	539.2185	565.3682	585.3601	644.6315	716.1696	786.1176	821.3213	872.4478	907.1377	945.1382	953.6081	965.8243	1046.0446	1052.1698	1070.2858	1086.5675	1146.1886	1162.697	1187.9799	1192.8643	1250.2773	1295.4314	1297.4083	1345.8542	1384.5742	1406.3418	1449.3929	1465.8569	1483.4284	1493.6126	1499.4887	1510.0382	1533.8114	2236.4211	2943.5362	2955.6538	2974.6451	2986.1538	3045.3761	3119.309	3123.1939	3138.442	3144.9013	3225.0473	3239.78	3505.1031
CCOCC1(CC1)C#C	CCOCC1(CC1)C#C	
InChI=1S/C8H12O/c1-3-8(5-6-8)7-9-4-2/h1H,4-7H2,2H3	InChI=1S/C8H12O/c1-3-8(5-6-8)7-9-4-2/h1H,4-7H2,2H3
