16
gdb 51900	6.03002	0.71706	0.65993	3.533	69.07	-0.246	-0.0213	0.2248	1609.5101	0.122876	-475.030596	-475.021875	-475.020931	-475.066089	29.548	
O	 0.9450199152	-0.1544789196	 0.2998425429	-0.242032
C	 0.5959555512	 0.7751512733	-0.378450044	 0.155334
C	 0.5130841814	 2.2083811315	 0.1245545128	-0.244721
N	 0.483350164	 3.1293426586	-0.9960482369	-0.343298
C	 0.8983397023	 4.3047773274	-0.839011165	 0.417824
C	 0.9838170521	 5.3816725112	-1.9008639492	-0.189606
O	 1.2010640014	 6.5699870805	-1.152981304	-0.234086
C	 1.8359331585	 6.1667774195	 0.0276792845	 0.021843
O	 1.3598073789	 4.8510882244	 0.3251558909	-0.239985
H	 0.2865819121	 0.6557554268	-1.4405815215	 0.088977
H	-0.4273723431	 2.2839263379	 0.693895078	 0.142999
H	 1.3244481389	 2.3893757878	 0.8404250343	 0.137154
H	 1.8152043299	 5.1752135054	-2.5918729576	 0.129637
H	 0.060668097	 5.4772151877	-2.4740205762	 0.15285
H	 2.931224651	 6.1238397561	-0.085046997	 0.109619
H	 1.5577871093	 6.8411089316	 0.8409453379	 0.137491
25.3175	70.2905	113.1787	130.6227	213.6834	234.7332	316.1954	391.4268	572.8262	594.1415	685.7847	735.4411	755.4104	871.6608	983.6429	1007.7664	1038.2632	1053.3676	1070.1629	1086.1183	1116.0761	1153.3848	1202.8795	1230.1068	1238.2339	1242.0011	1325.825	1348.5075	1403.8876	1437.487	1440.7777	1499.1731	1543.8662	1820.144	1843.4332	2894.3322	2977.7683	2988.3776	2998.2075	3052.3913	3105.6844	3123.7669
O=CCN=C1COCO1	O=CCN=C1COCO1	
InChI=1S/C5H7NO3/c7-2-1-6-5-3-8-4-9-5/h2H,1,3-4H2	InChI=1S/C5H7NO3/c7-2-1-6-5-3-8-4-9-5/h2H,1,3-4H2
