18
gdb 126531	4.68556	0.88944	0.79987	2.7626	80.63	-0.2345	-0.0702	0.1643	1457.6272	0.148677	-398.148524	-398.14005	-398.139106	-398.183257	30.314	
C	 0.0650048562	 1.5664417029	-0.0501119074	-0.3821
C	 0.2348699941	 0.0463883579	-0.0795869086	-0.162805
C	 0.5454556455	-0.5411453246	 1.3113097467	-0.273856
C	 0.6812698735	-2.0380738268	 1.2787810322	 0.332134
C	 1.9188987079	-2.6902497585	 1.1868270427	-0.04698
N	 2.0039401505	-4.0101761221	 1.1286799021	-0.228575
C	 0.8251381834	-4.6422417091	 1.16365407	 0.104246
N	-0.3776609457	-4.080055576	 1.2558497179	-0.182291
N	-0.4468069188	-2.7533400644	 1.3157272294	-0.232767
H	 0.9745333084	 2.0624630044	 0.3066687773	 0.115599
H	-0.1581299382	 1.9570169536	-1.0474243071	 0.118912
H	-0.7548930883	 1.859255329	 0.6145918323	 0.121798
H	-0.6770249173	-0.4283935584	-0.4590589212	 0.123712
H	 1.0389028957	-0.226195758	-0.7750487216	 0.099631
H	 1.4678998896	-0.0963982872	 1.7033285196	 0.104719
H	-0.2652237378	-0.282935117	 2.0003855837	 0.127835
H	 2.8492662976	-2.1252742373	 1.1667115635	 0.124286
H	 0.8374737938	-5.7271750485	 1.1169824385	 0.136501
23.7974	89.8039	101.3504	239.5574	249.4089	309.6533	343.9869	390.8227	512.8559	642.07	667.1312	746.6432	805.9027	851.4312	876.6974	900.6718	948.7367	1009.6419	1044.6293	1066.2302	1080.743	1099.6022	1110.3574	1162.014	1223.4862	1253.1713	1285.1893	1317.9982	1328.342	1377.5251	1414.3926	1416.2422	1444.9726	1478.5102	1492.6882	1500.1346	1508.8974	1552.266	1606.1385	3025.0715	3031.6667	3037.0895	3063.8505	3088.5846	3102.9126	3107.775	3144.9892	3185.9499
CCCC1=CN=CN=N1	CCCc1cncnn1	
InChI=1S/C6H9N3/c1-2-3-6-4-7-5-8-9-6/h4-5H,2-3H2,1H3	InChI=1S/C6H9N3/c1-2-3-6-4-7-5-8-9-6/h4-5H,2-3H2,1H3
