20
gdb 120098	4.07684	0.95102	0.87132	2.3087	79.46	-0.2178	0.0622	0.28	1396.9446	0.170321	-403.028587	-403.020065	-403.019121	-403.062242	32.346	
C	-0.236658696	 1.3896370485	 0.022627849	-0.231215
O	-0.1698153745	-0.0077454678	-0.1272589	-0.242336
C	 0.854285716	-0.4118487363	-1.0146917837	-0.118163
C	 0.8101395674	-1.9338200275	-1.0502269246	 0.012681
C	 1.0753840631	-2.9198054205	-2.1231920508	-0.075502
C	 2.3060517568	-2.7174354515	-3.024139508	-0.068135
C	 3.0680379945	-1.4577090431	-2.7257252273	-0.302881
C	 3.112953813	-2.6082340192	-1.7535512846	-0.001914
N	 1.9205083261	-2.8960491099	-0.8616435708	-0.171755
H	 0.6999153755	 1.8028544837	 0.4298927316	 0.105312
H	-0.4452233773	 1.8952624867	-0.9339812944	 0.103249
H	-1.0498707341	 1.6045580808	 0.7198588151	 0.12967
H	 0.6790807657	 0.0285482532	-2.0098766494	 0.102098
H	 1.8299616049	-0.0516422714	-0.6531178599	 0.108161
H	-0.0120919614	-2.2572307381	-0.4125283273	 0.120088
H	 0.3941096102	-3.747576635	-2.3009365269	 0.097278
H	 2.482715807	-3.324542287	-3.9015121396	 0.096289
H	 3.9901867097	-1.3736375024	-3.295282552	 0.116275
H	 2.5980391378	-0.5027887248	-2.5419110801	 0.116315
H	 4.0413152854	-3.0833005485	-1.4644688064	 0.104486
60.5678	106.1744	151.7523	200.8856	256.1125	302.8768	373.1231	430.338	464.4606	650.6755	674.5801	696.6749	747.1184	782.9772	874.4881	892.6281	925.3714	963.1693	983.9516	1007.6919	1025.7328	1048.4872	1058.4318	1072.5288	1082.463	1093.0191	1142.8087	1157.264	1185.3695	1190.7926	1224.5732	1265.1456	1274.8444	1288.3303	1333.7864	1354.1849	1389.1169	1450.7426	1478.9003	1485.0855	1493.3622	1501.8562	1531.3422	2955.8878	2970.7102	2996.1651	3011.6079	3116.2494	3118.1348	3137.7853	3142.7052	3192.4278	3206.0077	3240.6451
COCC1C2C3CC3N12	COC[C@H]1[C@H]2[C@H]3C[C@H]3N12	
InChI=1S/C7H11NO/c1-9-3-6-7-4-2-5(4)8(6)7/h4-7H,2-3H2,1H3	InChI=1S/C7H11NO/c1-9-3-6-7-4-2-5(4)8(6)7/h4-7H,2-3H2,1H3/t4-,5+,6-,7+,8?/m0/s1
