17
gdb 28887	2.33082	1.81859	1.02914	3.2938	79.86	-0.2016	0.002	0.2036	1120.5565	0.137456	-418.075001	-418.066579	-418.065634	-418.107457	32.465	
C	 0.0400678122	 1.5066042154	-0.0288822479	-0.541086
C	 0.0337423083	-0.0004310663	-0.0171204862	 0.165797
C	 0.0988484361	-0.7294424724	-1.2034880381	 0.263992
O	 0.1653302026	-0.1533682909	-2.4408216848	-0.449704
C	 0.0917933449	-2.1319156622	-1.1704572838	 0.195063
N	 0.219499189	-2.8621764129	-2.3508068013	-0.59634
C	 0.0068424825	-2.7301064374	 0.0886717129	-0.065403
N	-0.0573005494	-2.058208252	 1.2388259258	-0.286734
C	-0.0403902909	-0.7287199997	 1.1732479778	-0.079461
H	 0.9531333092	 1.9135216836	-0.4836511149	 0.131945
H	-0.8156210932	 1.9215877535	-0.5788292796	 0.129024
H	-0.0141597088	 1.8982233287	 0.9896180754	 0.141675
H	 0.1369279826	 0.8041303037	-2.3506240951	 0.30172
H	-0.0732456607	-2.3578306758	-3.1753502466	 0.258028
H	-0.1761944401	-3.7903417741	-2.312693279	 0.247971
H	-0.0074199821	-3.817272967	 0.1557983356	 0.09073
H	-0.0906873021	-0.1940078441	 2.1197561597	 0.092782
139.2635	152.9751	234.1511	278.7466	296.6007	309.9678	321.7136	334.2084	490.1671	495.9675	526.4226	591.3923	603.5321	642.2155	687.0766	778.9554	847.6867	893.9859	936.452	969.4047	1034.1837	1059.2247	1114.1397	1205.1111	1232.6951	1293.362	1327.0781	1349.4311	1368.0513	1414.1277	1465.9767	1488.1403	1495.9291	1536.4188	1610.1507	1642.9501	1661.4817	3005.9926	3051.2174	3116.2469	3130.7653	3142.6284	3561.7185	3663.8452	3834.6502
CC1=C(O)C(N)=CN=C1	Cc1c(O)c(N)cnc1	
InChI=1S/C6H8N2O/c1-4-2-8-3-5(7)6(4)9/h2-3H,7H2,1H3,(H,8,9)	InChI=1S/C6H8N2O/c1-4-2-8-3-5(7)6(4)9/h2-3H,7H2,1H3,(H,8,9)
