18
gdb 34612	3.02452	1.3972	1.06293	4.5628	83.61	-0.2576	-0.0389	0.2187	1134.0372	0.150168	-364.838442	-364.830919	-364.829975	-364.870682	29.14	
N	-0.0572927379	-0.9770668028	 0.6085772234	-0.338703
C	-0.0892023257	 0.154395921	 0.3606421202	 0.20368
C	-0.0799099053	 1.5438273076	 0.0543440744	 0.201034
C	-1.1698044331	 2.3214222491	-0.0378194851	-0.150489
C	-0.8355061303	 3.7464857028	-0.3963104301	-0.276909
C	 0.7016006265	 3.7826688112	-0.2980400927	-0.010834
C	 1.3138341453	 4.0348760753	 1.1138133818	-0.225732
C	 2.0452495468	 2.6638966855	 1.0464661221	-0.222219
C	 1.2043044856	 2.3018149403	-0.2117328642	-0.133647
H	-2.1841066897	 1.9691291053	 0.1119611414	 0.119021
H	-1.2041787504	 3.9850455104	-1.4036376137	 0.119388
H	-1.3138969891	 4.4651495683	 0.2814321627	 0.117659
H	 1.1669954257	 4.3826359378	-1.0810286384	 0.076107
H	 1.9517114865	 4.9160771607	 1.2091824871	 0.105441
H	 0.5528243924	 4.0788706743	 1.8979971302	 0.105693
H	 3.1076514885	 2.7621787628	 0.8106507506	 0.10812
H	 1.9430233861	 2.001610942	 1.9093015232	 0.113687
H	 1.758447138	 1.8756966383	-1.0528350629	 0.088703
90.1953	137.8156	176.1611	252.3461	354.4147	412.1784	499.3307	558.3217	634.5272	684.3482	713.3755	764.8865	807.4629	842.4857	881.1831	900.6525	950.1715	958.7089	984.1275	997.2936	1059.9578	1067.4773	1101.3401	1160.6838	1192.6931	1200.2376	1229.0951	1250.3613	1267.0716	1271.3874	1286.1949	1315.7986	1331.6328	1347.7894	1474.253	1480.3992	1495.8986	1666.7463	2335.1017	3012.0891	3044.479	3059.8764	3061.2594	3069.6388	3096.7539	3108.7815	3124.482	3204.6301
N#CC1=CCC2CCC12	N#CC1=CC[C@H]2CC[C@@H]12	
InChI=1S/C8H9N/c9-5-7-2-1-6-3-4-8(6)7/h2,6,8H,1,3-4H2	InChI=1S/C8H9N/c9-5-7-2-1-6-3-4-8(6)7/h2,6,8H,1,3-4H2/t6-,8+/m0/s1
