18
gdb 99079	4.04867	0.71106	0.68936	2.4224	71.11	-0.2585	-0.0407	0.2178	1651.5645	0.144438	-476.260398	-476.250007	-476.249063	-476.297544	35.48	
C	 0.1204761124	 1.5936875666	-0.3234312266	-0.397063
C	-0.0790818626	 0.1339972131	 0.0758269147	-0.058139
N	-1.4815147429	-0.2615627411	 0.1120079398	-0.333662
C	-2.0924315864	-0.7298386023	 1.232117746	 0.393759
O	-1.5124830604	-0.9197081011	 2.2902183004	-0.382391
C	-3.5913072263	-1.0232309604	 1.1194279071	-0.146396
O	-4.0777211882	-1.5022350962	 2.3360478592	-0.416768
C	 0.6926775586	-0.8350121708	-0.8197790963	 0.149569
O	 1.5435809502	-0.5074350559	-1.603111112	-0.23251
H	 1.1867583073	 1.8214469079	-0.3789116322	 0.149034
H	-0.306688396	 1.7925138903	-1.3118113421	 0.122765
H	-0.3524126243	 2.2574470767	 0.4038556723	 0.129684
H	 0.2851679536	-0.0391679912	 1.0974739734	 0.153114
H	-2.044098021	-0.0921597192	-0.7084042393	 0.255722
H	-4.1101946845	-0.0981305084	 0.81869335	 0.11185
H	-3.7498200052	-1.7554929797	 0.3112572289	 0.113495
H	-3.3058828476	-1.5029522023	 2.9268159107	 0.296799
H	 0.3924175731	-1.8986249658	-0.6859117241	 0.091138
35.5457	59.9178	71.5937	89.1788	161.5309	208.307	248.8775	328.9113	348.2004	379.0625	436.4066	459.9093	482.6341	608.1902	646.609	716.7423	825.5883	921.3757	925.2953	977.8124	1036.274	1111.1306	1129.2796	1146.7166	1166.271	1243.2111	1249.8287	1313.1183	1332.6879	1334.1005	1401.2576	1419.8965	1461.6098	1487.2908	1491.4326	1507.6499	1545.4695	1769.2911	1837.194	2887.981	2971.3	2990.5683	3039.7109	3049.9742	3120.1751	3144.5351	3615.8783	3665.499
CC(NC(=O)CO)C=O	C[C@@H](NC(=O)CO)C=O	
InChI=1S/C5H9NO3/c1-4(2-7)6-5(9)3-8/h2,4,8H,3H2,1H3,(H,6,9)	InChI=1S/C5H9NO3/c1-4(2-7)6-5(9)3-8/h2,4,8H,3H2,1H3,(H,6,9)/t4-/m1/s1
