18
gdb 17899	2.80738	2.2236	2.15181	1.9421	65.96	-0.2362	0.065	0.3013	783.1252	0.156316	-384.929968	-384.923093	-384.922149	-384.96067	27.38	
O	-0.0303810358	 1.4983768921	-0.0144152849	-0.419509
C	 0.006686757	 0.0956385097	 0.0402476167	 0.107128
C	 0.1411471059	-0.645310032	 1.396475256	 0.042795
C	-0.524546977	 0.1551708881	 2.5207397742	-0.214962
C	-2.0540191871	 0.1718345471	 2.285054756	-0.18286
C	-2.4161292469	 0.1706522832	 0.7804398759	-0.221494
C	-1.3523052872	-0.6254703324	 0.0141271731	 0.065481
O	-0.7793471879	-1.6524603357	 0.8797545432	-0.299193
H	 0.8656246042	 1.8281335421	-0.1284402267	 0.290529
H	 0.6878897906	-0.3286240568	-0.706051053	 0.078021
H	 1.1068502476	-1.0798323619	 1.6704109061	 0.067976
H	-0.2996054617	-0.2833295946	 3.4978526465	 0.094132
H	-0.1107182999	 1.1697434725	 2.5123014559	 0.100878
H	-2.4689796079	-0.7359538607	 2.7299991351	 0.113009
H	-2.518661626	 1.0185680991	 2.7981088271	 0.091349
H	-3.405908793	-0.272989229	 0.6341679158	 0.094619
H	-2.4492983907	 1.1865201348	 0.3732362417	 0.118315
H	-1.7075663942	-1.0388515655	-0.9333560887	 0.073785
146.6069	223.7284	245.3075	258.1443	406.0698	423.4901	576.6505	589.426	595.9142	743.0507	810.4398	830.7829	858.3343	868.1909	920.7542	932.49	1007.6613	1015.9373	1055.3695	1072.4331	1082.7283	1114.0408	1175.4788	1183.2998	1223.4923	1247.9898	1261.918	1284.2599	1327.0734	1332.0533	1349.7161	1354.8562	1380.4038	1381.7861	1437.4671	1477.129	1482.4403	1499.7756	3037.3862	3041.1934	3045.6233	3060.8625	3067.0969	3075.9933	3082.3321	3087.1782	3107.4154	3833.1595
OC1C2CCCC1O2	O[C@H]1[C@H]2CCC[C@@H]1O2	
InChI=1S/C6H10O2/c7-6-4-2-1-3-5(6)8-4/h4-7H,1-3H2	InChI=1S/C6H10O2/c7-6-4-2-1-3-5(6)8-4/h4-7H,1-3H2/t4-,5+,6+
