22
gdb 11133	3.73795	1.15701	1.00208	1.4671	78.97	-0.2394	0.0879	0.3273	1291.1598	0.199324	-350.206204	-350.196836	-350.195892	-350.240839	34.021	
C	-0.118755591	 1.3969732862	 0.5292723478	-0.379654
C	-0.0598255683	-0.0876132726	 0.1579660158	-0.188041
C	-1.4203798026	-0.6439163666	-0.2224946595	 0.182489
C	-1.5923023235	-2.1729646259	-0.342991095	-0.343582
C	-2.7014123666	-1.9946899762	 0.7153848462	 0.182492
C	-2.601213475	-2.7673370807	 2.0185737556	-0.188042
C	-3.5927133109	-2.2660630342	 3.0726127253	-0.379653
O	-2.3702539989	-0.5908884921	 0.8729928974	-0.317085
H	 0.8619448747	 1.7685556416	 0.840806951	 0.109652
H	-0.4535140222	 2.0047506529	-0.318743537	 0.112042
H	-0.8220911537	 1.5537064009	 1.3519715465	 0.136674
H	 0.6255151803	-0.2456068285	-0.685857654	 0.093097
H	 0.3329023547	-0.6694757929	 1.0010427853	 0.094898
H	-1.8175632865	-0.0961122844	-1.0908939777	 0.065994
H	-1.9007951161	-2.5563936856	-1.3165800306	 0.104015
H	-0.7299581273	-2.7432347704	 0.0135317791	 0.102348
H	-3.7151098945	-2.0969638409	 0.2983467339	 0.065994
H	-2.7743303569	-3.8305204634	 1.80325089	 0.093097
H	-1.5754883496	-2.6817357746	 2.3982277705	 0.094898
H	-3.4346836303	-1.2010647352	 3.2646676345	 0.136674
H	-4.6276269625	-2.3965718267	 2.7371905277	 0.112042
H	-3.4764413333	-2.8059478208	 4.0170201372	 0.109652
47.6503	90.6736	104.106	193.25	213.1898	224.3247	244.684	378.2798	404.9153	453.885	455.8901	676.6367	777.4543	781.6766	820.5085	898.2925	931.2002	963.0955	966.2749	974.8345	1015.476	1030.6646	1078.6371	1105.0182	1120.5562	1134.1774	1188.504	1204.3077	1250.5837	1271.7633	1281.8802	1303.2934	1318.3277	1335.0693	1361.3867	1394.8671	1405.6506	1406.3113	1425.3881	1471.7498	1475.9505	1492.7466	1496.1032	1496.6894	1508.054	1508.991	2977.6364	2983.2926	3016.6573	3017.3444	3035.3465	3035.6014	3055.9693	3057.9477	3064.1159	3101.6493	3102.0254	3118.4873	3118.7394	3125.3089
CCC1CC(CC)O1	CC[C@H]1C[C@@H](CC)O1	
InChI=1S/C7H14O/c1-3-6-5-7(4-2)8-6/h6-7H,3-5H2,1-2H3	InChI=1S/C7H14O/c1-3-6-5-7(4-2)8-6/h6-7H,3-5H2,1-2H3/t6-,7+
