15
gdb 6755	4.27296	1.16857	0.94565	7.5445	66.43	-0.2619	-0.0248	0.2371	1172.6119	0.118944	-399.792041	-399.783546	-399.782601	-399.825855	29.515	
N	-0.4397947003	 1.7151786018	 1.2997652252	-0.494927
H	-0.5688597149	 2.0792780759	 0.358772987	 0.240984
H	 0.5494548016	 1.8169446097	 1.5068438573	 0.246914
H	-1.5401849444	 3.1321569171	 2.6386970921	 0.313518
C	-0.8005550217	 0.2877696064	 1.3420660598	-0.147065
C	-2.3128712239	 0.0688900571	 1.0817803334	-0.355375
C	-3.0698105474	 0.9961234853	 1.9053648532	 0.088464
C	-3.3962162852	 1.9318543107	 2.5908117506	-0.044776
C	-3.3289751835	 3.189562606	 3.315218272	 0.340816
O	-4.2019401585	 3.7205035311	 3.9431188884	-0.325748
O	-2.0913505994	 3.7263078636	 3.1908616453	-0.379438
H	-0.237598488	-0.3272649993	 0.6240958079	 0.101179
H	-0.5628001486	-0.0787702881	 2.345386584	 0.13125
H	-2.5429266078	 0.2464000811	 0.0225584664	 0.140425
H	-2.5667055781	-0.9781361383	 1.2802969376	 0.143777
58.822	82.3695	126.7966	188.3606	219.6087	291.9206	357.3345	391.9681	491.1614	572.4691	608.7876	749.909	768.1676	789.6583	841.3417	881.8132	943.2929	1019.1012	1067.9986	1092.3012	1154.6372	1210.2619	1264.1039	1304.3112	1359.1817	1395.363	1418.7223	1467.7841	1507.1711	1656.0425	1855.4479	2341.7529	2990.6903	3025.3262	3067.9168	3086.0339	3485.4479	3513.1382	3563.9844
[NH3+]CCC#CC([O-])=O	NCCC#CC(=O)O	
InChI=1S/C5H7NO2/c6-4-2-1-3-5(7)8/h2,4,6H2,(H,7,8)	InChI=1S/C5H7NO2/c6-4-2-1-3-5(7)8/h2,4,6H2,(H,7,8)
