16
gdb 53067	6.31054	0.82528	0.77868	1.1833	83.45	-0.2337	-0.0238	0.2099	1485.9083	0.123914	-400.7216	-400.7133	-400.712356	-400.756776	29.778	
C	-0.0838751457	 1.4111907507	 0.0515336331	-0.511738
C	-0.0269119898	-0.0395839381	 0.0129781077	 0.289355
C	 0.0272593846	-1.2423348491	-0.0232001664	-0.078705
C	 0.0838456342	-2.6582765523	-0.0631768212	 0.208868
N	 1.1272083581	-3.3741946747	-0.2660721028	-0.317875
C	 0.7027641918	-4.7452613349	-0.1658631659	-0.031697
C	 0.138783736	-5.1734450131	 1.1775900983	-0.319315
C	-0.7930702485	-4.6895152353	 0.1080395716	 0.054404
O	-1.1107750045	-3.3098622173	 0.1283159761	-0.244339
H	 0.6412735165	 1.81375211	 0.7669913737	 0.160685
H	 0.1448085515	 1.8378987432	-0.9311511449	 0.161198
H	-1.0793397383	 1.758965118	 0.3465290916	 0.15943
H	 1.2029539243	-5.4617875821	-0.8055192012	 0.103657
H	 0.1202266308	-6.2393494934	 1.3762999044	 0.122661
H	 0.3266759831	-4.5406390222	 2.0384862632	 0.130278
H	-1.5737237141	-5.2985037892	-0.3284007773	 0.113132
10.9812	86.747	93.6027	232.3616	315.9168	364.7242	397.2317	463.2905	528.1355	536.7438	714.5952	745.886	756.4527	818.8951	892.0149	932.2849	978.7375	1013.5632	1025.079	1048.0097	1050.7145	1053.3467	1083.8123	1122.6701	1132.4799	1187.4889	1276.3729	1346.1595	1368.1117	1411.4166	1460.7122	1472.2044	1472.585	1657.5351	2372.5658	3031.1717	3093.9401	3098.5436	3131.9954	3185.5341	3200.2086	3227.0722
CC#CC1=NC2CC2O1	CC#CC1=N[C@H]2C[C@H]2O1	
InChI=1S/C7H7NO/c1-2-3-7-8-5-4-6(5)9-7/h5-6H,4H2,1H3	InChI=1S/C7H7NO/c1-2-3-7-8-5-4-6(5)9-7/h5-6H,4H2,1H3/t5-,6+/m0/s1
