19
gdb 39768	2.96569	1.8418	1.50232	1.7928	78.02	-0.2455	0.0879	0.3334	938.6205	0.16102	-385.820333	-385.813618	-385.812674	-385.850992	28.689	
C	-0.0161275056	 1.4878969743	 0.0096582235	-0.383121
C	 1.3417499929	 0.8057737174	-0.0076312215	-0.344853
C	 0.0989819962	-0.0056140252	 0.0012305183	 0.500752
C	-0.5067607104	-0.9672022569	 1.0355937719	-0.178422
C	-1.6976212573	-1.0960621844	 0.0143523259	-0.221727
C	-0.5279769983	-0.9570997432	-1.0298321936	-0.178403
C	 0.2137387658	-2.2852984663	-0.7434530609	 0.044199
O	 1.4497837814	-2.1692717427	-0.0232186801	-0.249209
C	 0.2287678314	-2.2924695861	 0.7210477811	 0.044205
H	-0.3303752913	 1.9788189716	 0.9258021507	 0.10955
H	-0.3491563561	 1.9876562074	-0.8950004203	 0.10955
H	 1.9225922076	 0.8422504995	-0.9233369934	 0.113137
H	 1.941321714	 0.8334624656	 0.8962344616	 0.113137
H	-0.6534884264	-0.687726743	 2.0785782622	 0.064304
H	-2.2613816343	-2.0337828564	 0.0155594255	 0.089159
H	-2.3719649692	-0.2374111536	 0.0254828357	 0.10462
H	-0.6960699845	-0.6674356126	-2.066794903	 0.064304
H	 0.1032308994	-3.160281708	-1.3752284215	 0.09941
H	 0.1311510447	-3.1736048373	 1.3463639578	 0.099409
182.7643	228.0541	266.717	371.1654	423.7989	501.3103	544.166	678.8914	696.8384	763.3305	799.0198	831.4156	832.5848	866.3718	892.7303	914.4088	915.4493	940.3652	948.6678	990.2203	1007.6913	1025.7448	1056.6968	1068.4999	1069.3466	1076.8554	1095.9235	1118.3735	1180.7133	1204.8846	1207.6924	1224.2047	1226.4481	1250.5851	1271.749	1306.6887	1385.346	1419.8287	1463.6747	1496.4527	1516.2694	3054.4632	3117.8216	3118.2214	3118.4311	3126.0828	3130.0773	3165.1058	3177.2489	3196.0177	3214.3904
C1CC11C2CC1C1OC21	C1CC21[C@H]1C[C@@H]2[C@H]2O[C@@H]12	
InChI=1S/C8H10O/c1-2-8(1)4-3-5(8)7-6(4)9-7/h4-7H,1-3H2	InChI=1S/C8H10O/c1-2-8(1)4-3-5(8)7-6(4)9-7/h4-7H,1-3H2/t4-,5+,6-,7+
