17
gdb 78461	4.06102	1.19947	1.12853	1.6315	66.75	-0.2502	0.065	0.3152	1091.3172	0.13656	-458.888328	-458.88107	-458.880126	-458.919612	29.739	
O	 0.0847579561	 1.398280993	 0.0223303198	-0.443282
C	 0.0928813851	 0.0047026702	-0.0237061454	 0.127933
C	-0.3149307605	-0.7693863082	 1.2074784731	-0.116259
C	-1.2246738942	-0.7337262831	-0.0330087257	-0.116276
C	-1.2635351142	-2.2397418569	-0.3116983983	 0.003662
O	-1.4723021966	-2.8041330973	 1.0434198391	-0.329649
C	-0.1022328396	-2.2852601807	 1.2718117958	 0.003663
C	 0.2007755633	-2.7490514059	-0.1819799031	 0.183515
O	 0.3432396681	-4.131719355	-0.3262080334	-0.462958
H	-0.6516427688	 1.6901367958	 0.5703972556	 0.286934
H	 0.9239313934	-0.3094531067	-0.6422105046	 0.118135
H	-0.5476480241	-0.2258946507	 2.1171830263	 0.097536
H	-2.1470055732	-0.1632220773	-0.0636124857	 0.09753
H	-1.9566328552	-2.6269678682	-1.0579144351	 0.087842
H	 0.3899324959	-2.7189481414	 2.1417856593	 0.087842
H	 1.0034257913	-2.2894659225	-0.7574082751	 0.087539
H	-0.3755344269	-4.5224362352	 0.1896966374	 0.286292
195.3963	226.8656	282.0069	300.7935	318.6292	366.5767	411.1662	545.0061	553.7178	627.5118	690.0754	823.175	829.9789	839.2178	853.7429	854.3135	933.578	943.4869	972.7277	985.0828	1040.6136	1057.4021	1089.5805	1106.1769	1129.6403	1161.6044	1167.7288	1203.7871	1238.1473	1242.13	1282.2164	1286.1562	1287.0681	1328.6662	1365.1464	1446.4971	1478.4125	3119.9065	3130.5068	3134.2376	3162.5276	3171.8049	3191.1117	3757.8924	3810.8484
OC1C2C1C1OC2C1O	O[C@H]1[C@H]2[C@@H]1[C@@H]1O[C@H]2[C@H]1O	
InChI=1S/C6H8O3/c7-3-1-2(3)6-4(8)5(1)9-6/h1-8H	InChI=1S/C6H8O3/c7-3-1-2(3)6-4(8)5(1)9-6/h1-8H/t1-,2+,3+,4-,5-,6+
