17
gdb 97018	2.72988	1.38006	0.92712	2.0185	79.54	-0.2448	-0.0501	0.1947	1224.577	0.136966	-418.066402	-418.057951	-418.057006	-418.100803	30.767	
C	 0.2542062302	 1.4552362754	-0.2057709463	-0.346692
N	 0.0857905055	 0.0145568996	-0.132148146	-0.292181
C	 0.3744377079	-0.5859067231	 0.9509784913	 0.401219
C	 0.1980725876	-2.0915080089	 1.0259656273	-0.357337
C	 0.5564170879	-2.7192153631	 2.335869875	-0.053772
C	 1.0051505398	-2.0243121343	 3.3817846391	-0.170041
C	 1.1833778498	-0.5618816031	 3.3212876951	 0.417795
O	 1.5891044743	 0.1128793008	 4.2459807262	-0.361297
N	 0.8511671691	 0.0315166732	 2.1050389262	-0.41241
H	 1.2984123663	 1.7674856679	-0.0458777867	 0.116821
H	-0.0405967861	 1.8012363526	-1.1991195769	 0.130601
H	-0.368771329	 1.992086796	 0.5271535047	 0.116712
H	-0.8429552921	-2.3268768485	 0.7710828806	 0.156046
H	 0.7889732126	-2.5455471385	 0.2203990125	 0.156055
H	 0.4342487855	-3.7968914708	 2.4067475128	 0.118135
H	 1.2642156268	-2.4808959628	 4.329082501	 0.123254
H	 0.9834241939	 1.0330789373	 2.0953586941	 0.257093
21.1023	123.2673	153.0607	207.3283	227.0714	315.9216	416.5414	483.8222	525.9017	560.602	569.0814	658.3329	671.7945	709.5407	835.343	917.7149	946.0712	956.421	976.9029	1023.7435	1043.7916	1105.266	1159.2762	1169.3977	1206.5191	1280.2762	1350.2677	1371.4602	1414.5647	1418.7182	1441.0018	1444.1543	1497.952	1510.8256	1700.4617	1742.6828	1794.3777	2967.3051	3014.548	3033.7634	3054.4772	3104.4073	3165.6356	3217.7841	3612.5239
CN=C1CC=CC(=O)N1	CN=C1CC=CC(=O)N1	
InChI=1S/C6H8N2O/c1-7-5-3-2-4-6(9)8-5/h2,4H,3H2,1H3,(H,7,8,9)	InChI=1S/C6H8N2O/c1-7-5-3-2-4-6(9)8-5/h2,4H,3H2,1H3,(H,7,8,9)
