19
gdb 38462	2.95567	2.19789	1.80299	1.6391	79.54	-0.2372	0.0625	0.2997	840.8494	0.162108	-385.747889	-385.742027	-385.741083	-385.777538	26.88	
C	-0.0765978433	 1.5725438259	 0.0882297321	-0.191714
C	 1.4365149876	 1.4337307903	 0.0060955017	-0.075787
C	 1.2089034514	 0.1888190668	 1.0152906227	-0.333407
C	-0.028480229	 0.006107982	 0.0356254286	 0.244859
C	-1.2784301688	-0.4823437673	-0.7767339612	-0.380724
C	-0.3404495043	-0.2221471956	-2.0545256368	 0.076432
O	 0.2728631103	 1.1024833434	-2.3196069872	-0.327397
C	 1.4800049709	 0.8163154837	-1.4625378756	 0.088754
C	 0.8423602102	-0.5006466512	-1.1692390991	-0.014206
H	-0.4293622853	 1.8649482802	 1.0811637179	 0.081721
H	-0.5928775145	 2.1331540394	-0.6841931054	 0.117139
H	 2.126457649	 2.2391404686	 0.2647898714	 0.063677
H	 1.9371796856	-0.6253652798	 1.0463906198	 0.096781
H	 1.0085655317	 0.5598892801	 2.022087784	 0.105886
H	-1.4892677116	-1.5583362993	-0.7771795249	 0.10734
H	-2.2044057374	 0.0751223577	-0.6149983586	 0.110371
H	-0.6144419049	-0.6998274643	-2.9971790662	 0.08162
H	 2.3877951555	 0.9707147753	-2.0477790332	 0.07216
H	 1.331244947	-1.4595086861	-1.0140094099	 0.076494
320.0455	360.6996	422.4932	457.98	535.349	605.1601	627.8778	707.4163	766.4816	774.4659	786.3713	799.0189	842.4169	847.6298	860.5661	912.9298	929.8628	935.1219	962.5303	982.9276	1001.776	1024.4669	1053.3441	1083.6187	1095.0273	1121.7841	1151.1512	1167.4948	1188.9854	1203.6258	1206.7383	1211.7095	1240.5373	1261.7717	1275.2211	1298.6291	1308.3659	1335.8978	1471.135	1492.1233	1530.4007	3035.9898	3060.8193	3065.4615	3090.022	3091.9869	3103.8352	3108.6635	3128.5909	3136.1013	3174.644
C1C2CC11CC3OC2C13	C1[C@H]2C[C@]31C[C@H]1O[C@@H]2[C@@H]31	
InChI=1S/C8H10O/c1-4-2-8(1)3-5-6(8)7(4)9-5/h4-7H,1-3H2	InChI=1S/C8H10O/c1-4-2-8(1)3-5-6(8)7(4)9-5/h4-7H,1-3H2/t4-,5-,6+,7+,8+/m1/s1
