21
gdb 115921	3.67151	1.16797	0.98181	1.5789	78.62	-0.2465	0.0873	0.3337	1275.0967	0.183226	-424.220432	-424.211896	-424.210952	-424.253665	32.953	
C	-0.0585105554	 1.5016341615	 0.0673052803	-0.386213
C	 0.0481328465	-0.0226125895	-0.0026472974	-0.206277
C	 0.7518567178	-0.5067535882	-1.2575499378	 0.221505
O	 2.085714458	-0.0544023976	-1.2381013412	-0.247455
C	 2.7333339205	-0.2907237722	-2.4815314283	-0.108587
C	 2.5656814522	-1.7284668464	-2.9295138028	-0.071994
C	 2.8797533122	-2.8695979804	-1.9879411732	-0.304559
C	 1.447117689	-2.5146829113	-2.2901994864	 0.10097
O	 0.6929722932	-1.9181546909	-1.2693132148	-0.260187
H	 0.933100324	 1.9602600008	 0.0380590403	 0.133143
H	-0.6382112404	 1.9001250838	-0.7729688327	 0.11094
H	-0.5549446574	 1.8146099157	 0.9902131658	 0.113386
H	 0.6050344742	-0.4126395928	 0.8559438402	 0.113811
H	-0.9432442659	-0.4865747866	 0.018631124	 0.107633
H	 0.2609926379	-0.1149291596	-2.1696769045	 0.052575
H	 2.3178859532	 0.3829425758	-3.2492036842	 0.093293
H	 3.7856146634	-0.0282492752	-2.3341638206	 0.112406
H	 2.7412471035	-1.8945307187	-3.9880615212	 0.091976
H	 3.2940510158	-3.7822095265	-2.4019027187	 0.110058
H	 3.2228952007	-2.6110536576	-0.9922239327	 0.129274
H	 0.853881547	-3.1908821339	-2.899959374	 0.094302
80.1806	119.7798	171.8114	202.8123	253.2396	322.8834	361.3448	435.6779	484.5043	522.6444	579.74	736.3185	761.3165	773.7017	817.9597	851.2615	901.7896	937.086	966.9988	1006.1046	1017.4212	1047.5629	1068.492	1079.464	1102.7655	1125.9389	1137.848	1144.1812	1186.4556	1187.8347	1232.2756	1274.7744	1301.0517	1335.9985	1359.6284	1381.7031	1404.5508	1412.39	1416.5629	1432.0883	1477.9904	1479.489	1497.4296	1501.2973	1510.9655	2913.1759	2969.3181	3038.2288	3051.7337	3073.354	3089.2074	3106.5675	3126.2656	3134.0109	3137.4281	3155.4599	3228.7523
CCC1OCC2CC2O1	CC[C@H]1OC[C@H]2C[C@H]2O1	
InChI=1S/C7H12O2/c1-2-7-8-4-5-3-6(5)9-7/h5-7H,2-4H2,1H3	InChI=1S/C7H12O2/c1-2-7-8-4-5-3-6(5)9-7/h5-7H,2-4H2,1H3/t5-,6-,7+/m1/s1
