20
gdb 59184	2.62058	1.347	1.19455	2.2245	75.48	-0.2454	0.056	0.3014	1148.0168	0.170312	-440.201324	-440.192434	-440.19149	-440.23488	34.611	
C	-0.0716582372	 1.3809669679	 0.849067129	-0.405782
C	-0.0442401018	 0.1910025796	-0.1141182825	 0.086976
O	 0.9716969875	-0.7382996074	 0.2656532437	-0.435138
C	-1.4352947529	-0.4585469664	-0.2232067742	-0.005495
N	-1.9570940506	-0.9293022623	-1.6074708389	-0.152834
C	-1.0041901986	-2.1272459045	-1.4486318746	-0.243345
C	-1.6285203291	-1.9715125682	-0.0390190685	 0.320834
O	-1.3388811494	-2.6265871584	 1.1553475778	-0.478304
C	-2.961032252	-1.7675913486	-0.8009577474	-0.230558
H	 0.9298289063	 1.808085288	 0.941171966	 0.124088
H	-0.7550942752	 2.1598844401	 0.4943654644	 0.117172
H	-0.404095365	 1.0663570833	 1.8455147807	 0.114851
H	 0.2527627157	 0.5483382494	-1.1072142848	 0.104107
H	 0.623012988	-1.2753903415	 0.9878813642	 0.288317
H	-2.1887601991	 0.1668550373	 0.2658853578	 0.075312
H	-1.3073637346	-2.9906712724	-2.0478955127	 0.091667
H	 0.0495163046	-1.8899689903	-1.5737718834	 0.138583
H	-1.4018898743	-3.5784821154	 1.017373154	 0.285745
H	-3.7475980783	-1.1766649743	-0.3252982266	 0.105299
H	-3.3674519642	-2.6087361659	-1.3684512639	 0.098506
46.5243	142.5397	220.1946	259.7364	263.004	325.9088	347.6875	378.3008	398.3891	432.3834	482.6132	591.6758	624.7784	674.1056	770.4326	814.6924	873.1341	898.8898	915.2453	962.8236	987.3884	1024.2627	1042.708	1069.1383	1093.1677	1103.1232	1123.6431	1156.4957	1173.9963	1186.669	1202.2983	1240.4003	1278.9132	1302.3193	1339.9253	1353.1635	1401.8799	1426.027	1434.935	1491.3524	1495.567	1509.4927	1552.3545	3027.7995	3042.193	3052.3187	3055.774	3064.7361	3097.1392	3124.3381	3126.1772	3173.924	3779.8245	3801.6483
CC(O)C1N2CC1(O)C2	C[C@@H](O)[C@H]1N2C[C@]1(O)C2	
InChI=1S/C6H11NO2/c1-4(8)5-6(9)2-7(5)3-6/h4-5,8-9H,2-3H2,1H3	InChI=1S/C6H11NO2/c1-4(8)5-6(9)2-7(5)3-6/h4-5,8-9H,2-3H2,1H3/t4-,5-/m1/s1
