23
gdb 115821	4.34283	0.90301	0.82808	1.535	86.26	-0.2245	0.0833	0.3077	1501.72	0.205997	-388.289646	-388.28037	-388.279426	-388.324739	35.429	
C	-0.0392094639	 1.5991752941	 0.0272325325	-0.386699
C	-0.003986505	 0.0673929031	 0.0642121947	-0.193775
C	-1.3858299658	-0.5844991176	-0.0129687937	 0.040009
C	-2.1437001367	-0.3664993789	-1.3333474402	-0.100767
O	-3.1288780127	-1.3872985767	-1.3666450965	-0.287101
C	-2.5468827398	-2.551212025	-0.8125597343	 0.464456
C	-3.4907690726	-3.6672601249	-0.5074865259	-0.334878
C	-2.5154119658	-3.788268936	-1.669504016	-0.327635
C	-1.3729727678	-2.1286565711	 0.0739880777	-0.344924
H	 0.9669371072	 2.0193840108	 0.1203268589	 0.113906
H	-0.4658337462	 1.9714416104	-0.9101917573	 0.120094
H	-0.6443773685	 2.0002491398	 0.8479586185	 0.116097
H	 0.6138700144	-0.3083339564	-0.762983367	 0.095091
H	 0.4927010756	-0.2605519636	 0.9860506949	 0.098037
H	-2.0127881242	-0.1917688117	 0.7976443296	 0.076525
H	-2.6596031367	 0.5943597771	-1.4019920863	 0.10609
H	-1.4530276484	-0.4530515483	-2.1908087966	 0.082169
H	-3.3171438666	-4.2637363568	 0.3822322625	 0.10941
H	-4.5350522015	-3.5050367076	-0.75096498	 0.121753
H	-2.9263170458	-3.7050947903	-2.669490852	 0.118027
H	-1.6752498031	-4.4690915138	-1.5721951922	 0.105556
H	-0.4288946143	-2.5248650561	-0.3167755431	 0.101577
H	-1.4773397918	-2.4836828906	 1.1030000318	 0.106982
19.4961	101.613	157.324	180.7204	239.6634	287.0565	311.0723	387.0391	407.0196	469.3781	526.8109	603.0058	764.1327	776.5275	781.4198	840.0884	868.7804	898.9836	916.0741	952.3492	959.2798	976.3254	997.9973	1037.4514	1045.6261	1072.1293	1087.8865	1108.8218	1142.9801	1153.0953	1190.1665	1212.0484	1238.8025	1254.118	1277.2052	1299.9087	1329.3511	1356.2116	1365.0555	1380.8932	1404.0911	1413.846	1450.8202	1486.2641	1495.4804	1495.7831	1500.0186	1506.3008	1517.7632	2948.6105	3011.5087	3022.8555	3031.7947	3039.6437	3048.9205	3086.9946	3094.4942	3098.5199	3104.0276	3123.8664	3129.9242	3211.0279	3225.6112
CCC1COC2(CC2)C1	CC[C@H]1COC2(CC2)C1	
InChI=1S/C8H14O/c1-2-7-5-8(3-4-8)9-6-7/h7H,2-6H2,1H3	InChI=1S/C8H14O/c1-2-7-5-8(3-4-8)9-6-7/h7H,2-6H2,1H3/t7-/m1/s1
