23
gdb 77006	2.67182	0.9782	0.90232	0.8059	92.31	-0.25	0.0586	0.3087	1459.956	0.202336	-351.11952	-351.108549	-351.107604	-351.155383	40.726	
C	-0.3863407469	 1.1175151587	-1.7523428099	-0.417941
C	-0.1163594457	-0.1111651057	-0.90883551	-0.037515
C	 1.2731102753	-0.5163964698	-0.4562188379	-0.048986
C	 2.5207658713	 0.2905099067	-0.7994159543	-0.389591
C	 3.0669504323	-0.0589820954	-2.1086582915	 0.310792
C	 3.5038389442	-0.3666407545	-3.1855309412	-0.451063
C	 0.2446252657	-0.0680792293	 0.5674488909	 0.291149
C	 0.3936860954	 1.2586638188	 1.2912254016	-0.451911
C	-0.3475559037	-1.1525142939	 1.4519854358	-0.446526
H	 0.2372956992	 1.9717919914	-1.4785683695	 0.11295
H	-0.1993939152	 0.9062519219	-2.8106115979	 0.127497
H	-1.4306598801	 1.4345114515	-1.6549738895	 0.115395
H	-0.7532894301	-0.9491641786	-1.1850668828	 0.076932
H	 1.4692026513	-1.5857009785	-0.4724504311	 0.085777
H	 2.315993498	 1.3654987624	-0.7748299262	 0.125639
H	 3.2878660326	 0.1170520378	-0.0326495951	 0.129209
H	 3.8943567283	-0.629787644	-4.1369117414	 0.192083
H	 0.7962165971	 2.0557806338	 0.6634166089	 0.112767
H	-0.5780657346	 1.6007956646	 1.6665637696	 0.114038
H	 1.0575897735	 1.1544467165	 2.1578401119	 0.11422
H	 0.2792459055	-1.3318037136	 2.3341744379	 0.110995
H	-1.3453533204	-0.8687168966	 1.8084647633	 0.111932
H	-0.443844823	-2.1006466342	 0.9138319985	 0.11216
44.1874	100.2027	145.4825	168.9423	205.1093	213.1739	220.2992	268.2876	279.1235	339.7704	354.3486	425.3245	453.1741	486.0627	570.2443	613.5869	632.0443	685.9105	772.9633	829.4496	919.7896	949.4305	966.618	979.7892	997.6076	1010.0415	1044.4665	1074.4551	1130.0335	1151.4229	1168.984	1179.4654	1227.1895	1270.8755	1315.5377	1332.2945	1385.1391	1409.6015	1414.894	1427.1034	1454.425	1468.4475	1482.8244	1489.6591	1494.7783	1499.4055	1505.386	1519.7991	2236.805	3016.1445	3018.9289	3026.0537	3034.7503	3070.4683	3073.8556	3077.8036	3090.81	3096.8657	3106.2303	3120.1825	3126.2214	3135.5242	3507.6273
CC1C(CC#C)C1(C)C	C[C@H]1[C@@H](CC#C)C1(C)C	
InChI=1S/C9H14/c1-5-6-8-7(2)9(8,3)4/h1,7-8H,6H2,2-4H3	InChI=1S/C9H14/c1-5-6-8-7(2)9(8,3)4/h1,7-8H,6H2,2-4H3/t7-,8+/m0/s1
