17
gdb 26691	2.30376	1.56291	0.94229	1.6941	73.7	-0.1647	0.0505	0.2152	1205.521	0.134945	-455.16606	-455.156039	-455.155095	-455.200415	36.127	
C	-0.0195028181	 1.5256195817	 0.1051079966	-0.509402
C	 0.0394498833	 0.0414756532	-0.00391351	 0.205528
C	 0.0808124532	-0.7766356175	-1.1045096923	 0.189936
O	 0.0760817388	-0.3754568714	-2.4117896958	-0.464211
C	 0.1086193642	-2.1327312189	-0.6587044206	 0.074772
O	 0.0602895125	-3.2442212996	-1.4823230555	-0.462802
C	 0.0782835109	-2.1195832391	 0.7164924618	 0.224497
N	 0.1417055081	-3.1598281521	 1.6622805302	-0.611423
N	 0.0300190534	-0.8052640641	 1.1051320945	-0.359023
H	 0.8626644122	 1.953865388	 0.6008493125	 0.116366
H	-0.0719157932	 1.9550767686	-0.8982099412	 0.146741
H	-0.9027388087	 1.868087812	 0.6603206148	 0.118658
H	-0.1697269051	-1.1467262609	-2.9358665911	 0.291801
H	 0.9511478894	-3.4295733175	-1.8006285292	 0.295735
H	 0.3277616447	-4.033242396	 1.1815039792	 0.246402
H	-0.73899487	-3.2755332125	 2.1580677588	 0.243125
H	 0.1930933345	-0.5074004638	 2.0511326673	 0.2533
109.8326	139.2053	156.7498	180.2957	205.8906	241.0049	250.3429	276.7041	282.6961	316.3064	409.8015	419.2978	550.6304	603.9558	617.1112	634.6217	686.6429	758.7746	860.1098	924.5158	995.591	1062.104	1107.2048	1165.043	1223.738	1240.766	1270.5863	1320.0128	1369.8803	1415.9216	1481.5745	1485.1681	1500.0368	1520.236	1627.449	1656.1656	1707.1161	3001.4247	3040.6048	3121.362	3474.5349	3578.5068	3677.9471	3770.1412	3796.3963
CC1=C(O)C(O)=C(N)N1	Cc1c(O)c(O)c(N)[nH]1	
InChI=1S/C5H8N2O2/c1-2-3(8)4(9)5(6)7-2/h7-9H,6H2,1H3	InChI=1S/C5H8N2O2/c1-2-3(8)4(9)5(6)7-2/h7-9H,6H2,1H3
