19
gdb 112132	2.94056	1.15317	0.91907	4.5208	78.89	-0.2321	-0.0561	0.1761	1307.9635	0.159823	-419.251909	-419.242874	-419.24193	-419.286655	33.36	
C	 0.0540219812	 1.521312372	-0.1253802877	-0.397119
C	 0.0370368154	-0.0039955129	-0.0012624296	-0.169085
C	 0.6790564636	-0.5287955512	 1.2945068548	 0.02079
C	 0.6956633326	-2.0734626447	 1.3667244576	-0.360003
C	 2.1476250289	-2.4672067739	 1.1291095415	 0.349221
O	 2.5939089401	-3.5653848813	 0.925108352	-0.306205
C	 2.9817736368	-1.19941858	 1.2021608211	 0.277013
N	 4.2470712176	-1.0959105579	 1.0941708199	-0.543595
N	 2.0951754223	-0.1815371269	 1.4209172512	-0.309714
H	 1.07626514	 1.9121475524	-0.1646015892	 0.119961
H	-0.4503502703	 1.844825256	-1.0401918113	 0.126129
H	-0.4566616989	 1.9949789132	 0.7207949307	 0.119186
H	-0.9997376742	-0.3622623316	-0.030360937	 0.104292
H	 0.5522162885	-0.4567355078	-0.8584303935	 0.106761
H	 0.1296075947	-0.1077063279	 2.1461766544	 0.087863
H	 0.404603062	-2.4340928441	 2.3592996179	 0.147016
H	 0.0340158849	-2.5498954928	 0.6399743868	 0.140696
H	 4.6294740185	-2.0348542759	 0.9629750886	 0.230763
H	 2.4111529363	 0.7744708653	 1.4240435015	 0.25603
31.8117	92.123	109.1851	228.7103	238.1402	313.6784	359.1114	368.7879	435.5507	486.4172	556.2338	618.2158	660.9502	702.0649	755.3735	807.351	825.6026	859.027	946.2288	971.1416	1030.9476	1055.2762	1088.501	1092.1576	1127.5407	1178.9093	1206.2496	1245.5245	1289.0174	1312.4471	1353.6187	1389.3486	1409.9173	1413.4173	1442.6775	1447.2596	1479.1111	1500.118	1508.715	1742.0278	1853.2937	3013.0269	3021.9178	3033.1508	3058.2833	3061.6046	3099.7242	3110.3454	3114.3011	3459.9677	3650.2237
CCC1CC(=O)C(=N)N1	CC[C@H]1CC(=O)[C]([NH])N1	
InChI=1S/C6H10N2O/c1-2-4-3-5(9)6(7)8-4/h4H,2-3H2,1H3,(H2,7,8)	InChI=1S/C6H10N2O/c1-2-4-3-5(9)6(7)8-4/h4H,2-3H2,1H3,(H2,7,8)/t4-/m0/s1
