16
gdb 31869	4.80474	0.9928	0.87806	0.961	76.93	-0.2243	-0.0264	0.1979	1294.1724	0.126359	-434.124307	-434.115955	-434.11501	-434.159111	30.532	
N	-0.0155332847	 1.3383644211	 0.1049862328	-0.551978
C	 0.0025922981	-0.0228899016	 0.0397494567	 0.440817
N	-1.1900386618	-0.6450536259	 0.0334505401	-0.317048
C	-1.1457826056	-1.972289218	 0.0130644043	-0.046456
C	 0.0388549754	-2.7079326944	 0.0005241037	 0.242868
C	 0.058884639	-4.2058251501	-0.058090101	-0.201606
O	 0.0571579662	-4.6093507284	-1.4262224284	-0.417146
C	 1.2031388249	-1.9403719881	-0.0001472462	-0.046429
N	 1.2115438224	-0.6124245415	 0.0199445233	-0.317043
H	 0.8406854027	 1.8183631357	-0.1138488813	 0.263292
H	-0.8868832466	 1.7948927408	-0.1041292378	 0.263292
H	-2.1076298793	-2.4843171915	 0.0080407879	 0.109648
H	 0.9536163982	-4.5830506373	 0.4615870298	 0.09132
H	-0.8197579675	-4.607112602	 0.4709388672	 0.091314
H	 0.070662649	-5.572050366	-1.4487162957	 0.285506
H	 2.1784262496	-2.4260760328	-0.0160689553	 0.109649
10.047	96.7542	206.1337	263.9762	300.577	364.7944	417.5827	421.2546	422.1377	518.6622	528.8253	604.9672	669.6232	788.8267	838.5512	894.1283	980.1975	994.8774	1008.7783	1042.8767	1060.7544	1069.3483	1224.5312	1239.7988	1279.3219	1287.7786	1334.7415	1395.4977	1438.4672	1455.37	1507.2521	1518.6283	1590.5823	1628.0747	1658.0264	2969.6754	2998.6692	3133.8694	3136.5747	3613.024	3743.7452	3807.8211
NC1=NC=C(CO)C=N1	Nc1ncc(CO)cn1	
InChI=1S/C5H7N3O/c6-5-7-1-4(3-9)2-8-5/h1-2,9H,3H2,(H2,6,7,8)	InChI=1S/C5H7N3O/c6-5-7-1-4(3-9)2-8-5/h1-2,9H,3H2,(H2,6,7,8)
