17
gdb 56839	3.1778	1.13264	0.97678	1.2635	74.09	-0.2398	0.0235	0.2634	1221.3464	0.133954	-421.701898	-421.693449	-421.692505	-421.735535	31.947	
O	 0.5971905409	-0.2847943339	-1.1496076532	-0.412717
C	-0.203254619	 0.0185569301	-0.0079188442	-0.110807
C	-1.53222733	-0.5965364703	-0.0891519496	 0.305187
C	-2.5995386747	-1.1469425593	-0.1479801134	-0.451412
C	 0.5081795529	-0.4132264485	 1.2762786564	 0.039402
C	 1.7603370151	 0.3268293087	 1.8225484005	 0.026258
C	 0.8844694137	 1.5065063128	 2.3094547902	-0.235125
C	 0.19599909	 0.1714641129	 2.682881748	 0.034553
O	 1.5162576458	-0.337188626	 3.1267483194	-0.310327
H	 0.5981618591	-1.2427923339	-1.2569740987	 0.286861
H	-0.3169673138	 1.1065578951	-0.0377830145	 0.118987
H	-3.5507851729	-1.6158864075	-0.208495939	 0.203755
H	 0.6256393387	-1.5002812729	 1.3056937864	 0.086478
H	 2.7803871242	 0.3277623346	 1.440043071	 0.101896
H	 1.2966463779	 2.0529433587	 3.1579355214	 0.114021
H	 0.4160108215	 2.1664121503	 1.5768720133	 0.102583
H	-0.6595192194	-0.0152060009	 3.331653656	 0.100408
46.6951	108.7044	187.3584	204.4318	263.2318	311.1782	399.4945	466.4707	543.0435	582.481	626.6663	641.913	676.4527	730.017	819.4196	872.9248	897.7611	917.9699	939.6341	950.2164	1008.3278	1053.2405	1059.4773	1095.2491	1103.6715	1159.1787	1168.6246	1200.1133	1217.2282	1233.1295	1265.6431	1278.6299	1294.4755	1398.9392	1416.5401	1497.1515	2231.3087	3061.0677	3075.9986	3084.075	3123.2723	3130.5123	3152.9033	3501.098	3803.0297
OC(C#C)C1C2CC1O2	O[C@@H](C#C)[C@H]1[C@H]2C[C@@H]1O2	
InChI=1S/C7H8O2/c1-2-4(8)7-5-3-6(7)9-5/h1,4-8H,3H2	InChI=1S/C7H8O2/c1-2-4(8)7-5-3-6(7)9-5/h1,4-8H,3H2/t4-,5-,6+,7+/m0/s1
