19
gdb 66468	3.35011	1.56586	1.44315	1.249	78.36	-0.2251	0.0771	0.3022	986.0129	0.159333	-385.821361	-385.813929	-385.812985	-385.852556	30.968	
C	 0.0042027465	 1.4294170633	 0.0197016894	-0.517463
C	-0.0243454323	-0.0681488261	 0.0344778489	 0.371646
C	 0.4725670513	-1.0646387095	-0.9942220248	-0.158256
C	 1.1855757713	-0.953226115	 0.3390423174	-0.154191
C	 0.48584256	-2.1822994336	 0.955114548	 0.40284
O	 1.3316496643	-3.2252418989	 1.3001162716	-0.483765
C	-0.6654594698	-1.6583128056	 1.8530488894	-0.314619
C	-1.1605811972	-0.9979229121	 0.5436726494	-0.115743
C	-0.4604141925	-2.112443201	-0.3199206772	-0.134985
H	 0.9361404377	 1.8000169263	-0.4210400682	 0.119894
H	-0.8258934533	 1.8400164254	-0.5668968455	 0.117292
H	-0.0688932588	 1.8413153272	 1.0336570745	 0.118628
H	 0.8350535184	-0.9245720564	-2.00414457	 0.082911
H	 2.1676806936	-0.5609691787	 0.5700679099	 0.08306
H	 0.7925963499	-3.9656991602	 1.5976130185	 0.278739
H	-1.3309232937	-2.4711730236	 2.1692355325	 0.083699
H	-0.4172465732	-1.0236677253	 2.7098180258	 0.093507
H	-2.1949373477	-0.6884794139	 0.4000901239	 0.062942
H	-0.9683698847	-2.9620260622	-0.7704031533	 0.063866
194.0325	205.4991	233.3159	290.6564	357.167	364.185	437.3652	525.621	571.387	643.9013	743.2511	753.6538	811.4092	839.1427	845.5522	877.4367	893.0445	900.1381	912.3942	946.1347	991.8113	1000.3979	1016.6941	1056.1751	1087.6143	1094.5617	1118.2718	1150.8344	1167.0114	1181.4809	1209.7068	1217.0689	1233.173	1280.9736	1314.9	1394.2296	1408.4541	1433.1962	1484.5659	1486.1626	1499.2156	3017.7021	3027.6241	3075.9406	3087.8573	3090.3516	3121.695	3143.3961	3191.5329	3203.0012	3808.2715
CC12C3C1C1(O)CC2C31	C[C@@]12[C@H]3[C@@H]1[C@@]1(O)C[C@@H]2[C@@H]31	
InChI=1S/C8H10O/c1-7-3-2-8(9)4(3)5(7)6(7)8/h3-6,9H,2H2,1H3	InChI=1S/C8H10O/c1-7-3-2-8(9)4(3)5(7)6(7)8/h3-6,9H,2H2,1H3/t3-,4+,5-,6+,7-,8-/m1/s1
