23
gdb 99737	1.71128	1.3397	1.03712	1.7175	81.95	-0.2386	-0.0137	0.225	1346.9657	0.202299	-425.448105	-425.436671	-425.435727	-425.484887	40.893	
C	 0.9334543615	-0.4460478093	 1.2234160103	-0.408759
C	 0.1755590723	-0.1412729404	-0.076976597	 0.048718
C	 0.977191295	-0.6062508586	-1.3004915047	-0.395052
C	-1.2843768234	-0.6904361077	-0.0312379381	-0.094673
C	-2.0897285958	-0.3323772373	-1.286300659	-0.095871
O	-2.0348996342	 1.0754470019	-1.4619242776	-0.425197
C	-1.3357941966	-2.2081307693	 0.1635765912	 0.391163
C	-1.770642804	-2.717789244	 1.5241901001	-0.481611
O	-1.0576171668	-2.9686230224	-0.7390411911	-0.319919
H	 1.897560113	 0.0722470828	 1.2340027859	 0.114987
H	 0.37301888	-0.1187549382	 2.1064325779	 0.10721
H	 1.1420393342	-1.5170953762	 1.3313699883	 0.117691
H	 0.059169578	 0.9451004717	-0.149789159	 0.098201
H	 1.0456697461	-1.696263863	-1.3501740087	 0.135579
H	 0.5271629637	-0.2533452916	-2.2323605596	 0.115389
H	 1.9933593661	-0.2004471022	-1.2543425093	 0.104082
H	-1.7735563909	-0.2128144744	 0.8268404667	 0.07671
H	-1.6750969117	-0.8706680408	-2.1474282391	 0.116114
H	-3.1300289076	-0.6725958492	-1.1579530927	 0.085022
H	-2.4857667995	 1.2925394612	-2.2828607526	 0.289106
H	-2.7996391184	-2.3958306972	 1.7260774216	 0.139929
H	-1.7151747825	-3.8068030023	 1.5538968358	 0.138374
H	-1.1477122686	-2.2858760933	 2.3145006307	 0.142808
48.4886	68.604	122.6156	154.5043	175.7009	187.2241	226.9657	240.7506	269.8788	284.8663	326.6935	339.1413	383.4773	443.6829	522.3436	596.3604	630.3554	742.0149	875.3167	913.2549	933.9942	957.7674	967.3035	987.057	1036.8885	1074.089	1086.4414	1126.6443	1158.7251	1183.5618	1200.9867	1245.9042	1261.1771	1305.2044	1339.4168	1368.7244	1377.2006	1396.6849	1404.3337	1425.3868	1450.5189	1462.049	1473.9993	1490.0677	1494.3804	1507.8634	1511.5876	1531.738	1796.1942	2970.5786	3021.9765	3026.1774	3034.127	3041.1579	3049.0336	3052.6908	3088.5024	3095.4479	3097.4687	3104.8933	3125.3989	3150.6213	3832.6829
CC(C)C(CO)C(C)=O	CC(C)[C@@H](CO)C(=O)C	
InChI=1S/C7H14O2/c1-5(2)7(4-8)6(3)9/h5,7-8H,4H2,1-3H3	InChI=1S/C7H14O2/c1-5(2)7(4-8)6(3)9/h5,7-8H,4H2,1-3H3/t7-/m1/s1
