18
gdb 66195	2.28321	1.56337	1.43522	3.3198	76.69	-0.2592	0.0088	0.2681	1038.3663	0.14763	-401.971486	-401.963044	-401.9621	-402.004196	32.14	
C	 0.0059622317	 1.5165843339	 0.0642791658	-0.422307
C	-0.010612652	-0.0126490591	-0.0114969455	 0.197642
C	 0.7237681327	-0.5385065122	-1.2643400773	-0.274623
C	 1.0652549054	-1.9969111988	-1.1206360907	-0.068467
C	 1.0320054296	-2.6104170628	 0.0583873825	-0.05424
C	 0.6786155497	-1.8867058556	 1.3232385938	-0.132334
O	 0.6331480057	-0.4716445481	 1.1689731481	-0.276544
C	-1.422471634	-0.4830379262	-0.029053581	 0.264722
N	-2.5195566485	-0.8464290892	-0.0256111664	-0.346146
H	 1.0430135685	 1.8521652845	 0.1417511323	 0.134236
H	-0.4480477925	 1.950977281	-0.8298616381	 0.133818
H	-0.5420805526	 1.8592009925	 0.9441346573	 0.144386
H	 0.100604786	-0.3721774827	-2.1505780065	 0.125649
H	 1.6321742361	 0.0619635411	-1.4044752949	 0.120619
H	 1.3341384315	-2.5394462206	-2.0219896195	 0.099849
H	 1.245544619	-3.6713778095	 0.1510316422	 0.101296
H	-0.2827278438	-2.2572241037	 1.7164627034	 0.126612
H	 1.4328210175	-2.0653013847	 2.0979019744	 0.12583
106.7728	144.1635	193.3318	219.8936	250.5171	307.8072	381.67	407.3203	434.4159	510.4769	600.5865	612.4662	661.5215	695.2097	839.5318	849.7135	912.192	929.7686	981.7373	997.4	1004.816	1038.4519	1109.3495	1126.6884	1154.6247	1188.4315	1215.2884	1272.1701	1274.383	1356.0144	1394.0675	1405.6415	1412.8691	1466.1513	1480.043	1488.321	1493.8271	1732.1261	2349.1222	2974.2139	3022.0384	3054.8378	3060.8538	3064.9917	3136.0542	3142.6423	3163.0319	3184.5168
CC1(CC=CCO1)C#N	C[C@]1(CC=CCO1)C#N	
InChI=1S/C7H9NO/c1-7(6-8)4-2-3-5-9-7/h2-3H,4-5H2,1H3	InChI=1S/C7H9NO/c1-7(6-8)4-2-3-5-9-7/h2-3H,4-5H2,1H3/t7-/m0/s1
