19
gdb 96071	2.62111	1.53998	1.11029	1.775	71.12	-0.249	0.0611	0.3102	1121.3389	0.158815	-460.145774	-460.137206	-460.136262	-460.178543	32.892	
C	 0.0539503196	 1.5046710121	-0.0249234155	-0.475549
C	-0.0304483654	 0.0001067065	 0.0785874213	 0.363072
C	-1.2630616048	-0.6471080629	-0.5504314572	-0.137843
O	-1.7464942339	-1.7883011637	 0.1354174194	-0.248541
C	-0.7195799636	-2.6878798572	 0.5103058027	-0.130251
C	 0.1470333948	-2.0642815842	 1.6119783687	 0.082057
O	 1.2554043715	-2.8833440491	 1.9522565944	-0.431125
C	 0.6800068501	-0.7331279411	 1.1407705449	-0.0059
O	 1.1995212677	-0.6968206271	-0.1925774389	-0.286125
H	 1.0112530375	 1.8585699335	 0.364906281	 0.133462
H	-0.0264844665	 1.824698958	-1.0700397424	 0.129188
H	-0.7559792986	 1.982355975	 0.5362442203	 0.125581
H	-2.093024775	 0.0659562954	-0.5613800574	 0.10989
H	-1.0160712842	-0.8983858029	-1.5951542411	 0.105387
H	-1.2163735707	-3.5919677505	 0.8771998399	 0.095978
H	-0.0771826173	-2.9554524692	-0.3399843717	 0.116377
H	-0.4886385333	-1.8707864948	 2.4916668063	 0.075234
H	 0.9190561238	-3.6876274628	 2.360391111	 0.287544
H	 1.2695968483	-0.1786303149	 1.8714991144	 0.091562
118.0692	163.4469	208.4717	243.7552	256.7079	288.4751	355.7553	382.0198	385.6196	454.8442	481.2688	599.3154	641.2178	746.606	839.3395	904.971	921.635	956.3431	977.6994	1006.0487	1061.0127	1081.158	1108.6719	1125.8284	1131.1412	1143.1907	1243.2675	1248.8138	1258.782	1316.8773	1322.8632	1339.8532	1380.3051	1409.3156	1416.3011	1440.828	1468.3727	1484.3994	1488.2618	1497.1605	1504.1613	2971.6077	2973.578	3017.1165	3033.5671	3079.951	3082.4297	3096.7355	3110.1313	3126.5834	3817.9232
CC12COCC(O)C1O2	C[C@]12COC[C@@H](O)[C@H]1O2	
InChI=1S/C6H10O3/c1-6-3-8-2-4(7)5(6)9-6/h4-5,7H,2-3H2,1H3	InChI=1S/C6H10O3/c1-6-3-8-2-4(7)5(6)9-6/h4-5,7H,2-3H2,1H3/t4-,5-,6+/m1/s1
