20
gdb 85661	2.53722	1.23223	0.91547	4.0913	86.33	-0.251	0.0074	0.2583	1326.4	0.170934	-366.057072	-366.047812	-366.046868	-366.091175	34.39	
C	-0.0347788568	 1.5658323282	-0.0795321492	-0.399378
C	 0.0376260138	 0.0382360557	 0.0231674487	-0.018447
C	 0.7498981257	-0.6313409907	-1.1795558218	-0.236548
C	 1.490456864	-1.8612351476	-0.5811422851	-0.236587
C	 2.7570952623	-2.1579776265	-1.251855477	 0.273114
N	 3.7630115024	-2.387975902	-1.7734596846	-0.336518
C	 1.6428822199	-1.4951125233	 0.8984083589	 0.317714
C	 2.5343247808	-2.2762984409	 1.8083918248	-0.498369
C	 0.8364614048	-0.4771002112	 1.1976673881	-0.17254
H	 0.9686994844	 2.0006608826	-0.1395605603	 0.121603
H	-0.5917078189	 1.8740230497	-0.9705200945	 0.118016
H	-0.5373213587	 1.9966938724	 0.792601583	 0.116631
H	-0.9928736714	-0.3426343384	 0.0994791503	 0.083671
H	 0.0717805386	-0.9095795461	-1.9892635141	 0.112775
H	 1.4905671045	 0.0609615062	-1.5913593551	 0.125099
H	 0.8699233609	-2.7660177826	-0.6653603884	 0.126015
H	 3.5720268767	-2.2607421113	 1.4554238572	 0.15143
H	 2.5080509147	-1.8785018126	 2.8257967698	 0.127921
H	 2.2347368226	-3.3317033272	 1.8469152683	 0.130243
H	 0.7207865497	-0.0685012344	 2.1969223809	 0.094156
65.3625	136.8704	142.5155	189.1946	221.5193	244.3358	280.6249	357.4403	407.5183	467.1111	499.1537	573.1104	612.9796	616.3802	795.6828	856.4173	870.6313	932.6954	940.9852	975.6534	1009.9815	1045.9883	1049.967	1067.2713	1109.1961	1136.0679	1185.4246	1223.7645	1260.7612	1284.0787	1306.316	1325.8299	1339.5122	1370.4746	1409.8702	1417.8176	1477.4337	1488.0991	1490.9595	1497.6787	1499.6981	1726.7995	2353.2186	2975.9277	2994.3647	3021.6482	3029.7094	3060.3766	3072.8095	3100.8269	3101.5449	3113.3156	3119.229	3179.1237
CC1CC(C#N)C(C)=C1	C[C@H]1C[C@@H](C#N)C(=C1)C	
InChI=1S/C8H11N/c1-6-3-7(2)8(4-6)5-9/h3,6,8H,4H2,1-2H3	InChI=1S/C8H11N/c1-6-3-7(2)8(4-6)5-9/h3,6,8H,4H2,1-2H3/t6-,8+/m1/s1
