18
gdb 53394	2.89861	1.01823	0.83247	2.4842	81.69	-0.244	0.0187	0.2627	1426.1396	0.146202	-401.868978	-401.859648	-401.858704	-401.904921	32.787	
C	 0.0473368399	 1.4980831063	-0.2673821137	-0.499936
C	 0.0025400152	 0.0588806294	-0.0582605909	 0.075524
C	-0.0275801339	-1.131148304	 0.128255192	 0.092491
C	-0.0720587475	-2.5667711192	 0.329717966	-0.136905
O	-0.1616851244	-2.9785341051	 1.7216933311	-0.287334
C	-1.3333030815	-3.7939944279	 1.4781436923	-0.12982
C	-1.3895240266	-3.3116666248	 0.0366323306	 0.280541
C	-2.5103809774	-2.8817281469	-0.8142173093	-0.297273
N	-1.7360174049	-4.1060179964	-1.1246394188	-0.360682
H	 0.5151821568	 1.7449219282	-1.2266872828	 0.151311
H	-0.9563815746	 1.9366777152	-0.2612066256	 0.150939
H	 0.6298174145	 1.98858072	 0.5201761735	 0.157237
H	 0.7958705473	-3.0445562694	-0.1504826312	 0.099021
H	-1.125679011	-4.8651966184	 1.5914623247	 0.110873
H	-2.1704269267	-3.5093083595	 2.1257829591	 0.111643
H	-3.5354802519	-3.0596705514	-0.5001961957	 0.122797
H	-2.3628851635	-1.9943499603	-1.4244546353	 0.124266
H	-1.0838055897	-3.9311885757	-1.8863417562	 0.235306
26.0894	59.9292	84.1652	142.5681	235.2729	270.3885	319.5817	349.1721	380.5474	475.7486	508.6798	593.1816	788.268	823.4827	880.4621	915.3479	930.9969	969.2016	982.4842	1006.9016	1049.2097	1050.1625	1054.5278	1088.107	1126.3974	1145.854	1182.8722	1241.8729	1259.0872	1275.4159	1323.6821	1358.2524	1413.2397	1439.2456	1475.2783	1477.764	1517.9082	1521.0879	2364.1257	2979.055	3019.8609	3029.1689	3068.0171	3091.1756	3092.1311	3106.7546	3194.2696	3488.2005
CC#CC1OCC11CN1	CC#C[C@H]1OC[C@]21CN2	
InChI=1S/C7H9NO/c1-2-3-6-7(4-8-7)5-9-6/h6,8H,4-5H2,1H3	InChI=1S/C7H9NO/c1-2-3-6-7(4-8-7)5-9-6/h6,8H,4-5H2,1H3/t6-,7+/m1/s1
