19
gdb 69527	2.45261	1.64661	1.26892	3.4193	75.55	-0.2355	0.0577	0.2932	1085.3911	0.155088	-422.955568	-422.946378	-422.945434	-422.988739	34.936	
C	-0.178153134	 1.5708445303	 0.1288398495	-0.51145
C	 0.1065899492	 0.1070451169	 0.0612249196	 0.384464
O	-0.7700329349	-0.8154080072	 0.7113210823	-0.26086
C	 0.6234662868	-0.8665857265	 1.0247020137	-0.17156
C	 1.3757414727	-1.6397509297	-0.1363437064	 0.318307
C	 2.6439391814	-2.4164229596	-0.0160591973	-0.512907
O	 0.3853604538	-2.0315971137	-1.092868804	-0.301044
C	 0.8530425155	-0.677608246	-1.1147574503	 0.275275
C	 1.3800083878	-0.1027320207	-2.3880583829	-0.513778
H	 0.7086667053	 2.1558210353	-0.1367832117	 0.124387
H	-0.9810968164	 1.8457664904	-0.5645006047	 0.134519
H	-0.489543952	 1.8499392061	 1.1389512397	 0.137962
H	 0.925119786	-0.763481704	 2.0610976535	 0.105293
H	 2.4671636413	-3.3714404113	 0.491787684	 0.136927
H	 3.0625961401	-2.6287969909	-1.0035040524	 0.134382
H	 3.386263118	-1.8595359926	 0.565892914	 0.12461
H	 0.5616544484	 0.1280733227	-3.0796096272	 0.13602
H	 1.9329363452	 0.823866964	-2.2014317844	 0.124155
H	 2.0488344558	-0.8132464735	-2.881444965	 0.135297
148.6018	173.306	183.6349	190.0167	192.4896	219.3599	287.3938	343.1874	371.8483	456.1502	532.1913	564.231	591.6321	618.3559	750.925	768.5437	792.402	840.6395	871.741	933.7373	979.3137	1014.0325	1072.7981	1096.0263	1099.3522	1107.9603	1159.0122	1179.0499	1238.0213	1269.4408	1401.4873	1409.4978	1411.2628	1459.7868	1471.492	1476.1848	1483.8202	1487.7151	1493.2151	1496.6239	1530.0932	3030.7329	3031.5574	3034.188	3092.3205	3092.6286	3095.4578	3115.7984	3117.5019	3119.4163	3179.652
CC12OC1C1(C)OC21C	C[C@]12O[C@H]1[C@@]1(C)O[C@@]21C	
InChI=1S/C7H10O2/c1-5-4(8-5)6(2)7(5,3)9-6/h4H,1-3H3	InChI=1S/C7H10O2/c1-5-4(8-5)6(2)7(5,3)9-6/h4H,1-3H3/t4-,5+,6-,7+/m1/s1
