20
gdb 56037	3.49734	0.9924	0.92236	2.3323	75.12	-0.2635	0.0591	0.3226	1351.2856	0.172321	-440.353374	-440.344244	-440.3433	-440.389349	33.464	
N	-0.7123502385	 1.18828734	 0.4383986551	-0.56192
C	-0.1809208298	-0.0504362176	 0.1957675584	 0.48881
O	 0.9984205602	-0.3173904456	 0.2295425075	-0.403763
O	-1.1747241443	-0.9351756441	-0.0551077914	-0.279513
C	-0.7581270414	-2.3076098119	-0.2630801955	 0.145436
C	-0.5654353421	-3.0357326129	 1.0889601012	-0.215315
C	-1.8570852486	-3.8689828478	 1.3227099161	-0.200144
C	-2.85113367	-3.3898816043	 0.2451721304	-0.195233
C	-1.9379403142	-3.0163007434	-0.9326571357	-0.226373
H	-0.0636001685	 1.9560882066	 0.4075780133	 0.266376
H	-1.6612907831	 1.3659111992	 0.1553233878	 0.261395
H	 0.1524301845	-2.2890831484	-0.8622791674	 0.098785
H	 0.3233157326	-3.6712961335	 1.0528760944	 0.106968
H	-0.3923755459	-2.3020293175	 1.8787048111	 0.117718
H	-1.6461596032	-4.9349155103	 1.1831293111	 0.098621
H	-2.2504858431	-3.7555707854	 2.3362047196	 0.098068
H	-3.601028369	-4.1431973363	-0.0108281287	 0.092336
H	-3.3831408561	-2.4960971749	 0.5891194718	 0.106432
H	-2.4122907999	-2.3904529988	-1.6924345436	 0.101623
H	-1.5675219798	-3.9235732331	-1.4252042355	 0.099692
19.0883	43.6222	98.7759	156.5876	238.4121	336.278	375.0269	409.1433	474.8979	518.5012	575.1837	648.3156	707.5263	781.0855	793.298	840.6617	863.6729	895.324	906.8554	930.3713	962.893	1013.2674	1044.641	1060.9575	1097.2976	1116.0064	1190.7407	1194.6183	1223.6633	1251.1257	1290.1985	1311.8276	1339.4278	1341.2453	1353.1342	1361.6095	1411.3652	1474.1989	1478.1664	1490.4273	1509.7801	1610.83	1826.2191	3038.0943	3042.6859	3047.365	3070.9878	3087.3108	3098.2754	3106.5754	3111.7564	3120.853	3610.5346	3739.2669
NC(=O)OC1CCCC1	NC(=O)OC1CCCC1	
InChI=1S/C6H11NO2/c7-6(8)9-5-3-1-2-4-5/h5H,1-4H2,(H2,7,8)	InChI=1S/C6H11NO2/c7-6(8)9-5-3-1-2-4-5/h5H,1-4H2,(H2,7,8)
