15
gdb 21253	7.16321	1.29339	1.11085	1.9444	65.17	-0.2252	0.0155	0.2407	1052.4341	0.118105	-399.796229	-399.788361	-399.787417	-399.828744	27.654	
C	 0.0141757628	 1.4226430683	 0.0772446425	-0.250044
O	 0.0512835747	-0.006260398	-0.0205618935	-0.265575
C	 0.6185306111	-0.6676926166	 0.9800211311	 0.564626
C	 0.7944473311	-2.0083350558	 1.1564565858	-0.498534
C	 1.4587640105	-2.0801789892	 2.4110264537	 0.421355
C	 1.9205035674	-3.2982540426	 3.1451017541	-0.490762
N	 1.6636998586	-0.8940853283	 2.9408499789	-0.226519
O	 1.1171536731	 0.0237050665	 2.0096442449	-0.229735
H	 1.0251840956	 1.836478753	 0.1301389299	 0.146503
H	-0.484132181	 1.76291754	-0.830119069	 0.143133
H	-0.5505573978	 1.7388309377	 0.9588889392	 0.146505
H	 0.4970207307	-2.8044325399	 0.4970477996	 0.116023
H	 2.6398778929	-3.8655452553	 2.5456755068	 0.137296
H	 2.3960153848	-3.0104574351	 4.0846892004	 0.148451
H	 1.0790986853	-3.9631702747	 3.3654226256	 0.137276
73.9566	133.8736	151.0711	208.381	209.6967	326.0048	381.8739	503.3346	614.7883	651.898	712.9425	741.7347	763.6847	902.7668	982.7093	999.8194	1039.0168	1061.165	1065.8968	1176.6096	1187.6723	1211.2267	1336.7709	1405.5519	1455.6794	1478.43	1481.1519	1484.5959	1485.7402	1499.7027	1557.6078	1663.7634	3042.9257	3044.4266	3100.0072	3117.6554	3139.2373	3160.1863	3288.6697
COC1=CC(C)=NO1	COc1cc(C)no1	
InChI=1S/C5H7NO2/c1-4-3-5(7-2)8-6-4/h3H,1-2H3	InChI=1S/C5H7NO2/c1-4-3-5(7-2)8-6-4/h3H,1-2H3
