16
gdb 5898	3.03796	1.22842	1.07517	4.8986	74.08	-0.2565	0.0115	0.268	1179.0254	0.128279	-342.765902	-342.75618	-342.755236	-342.801382	33.391	
C	-0.0068950697	 1.4827483665	 0.0131856568	-0.499172
C	 0.0051292465	 0.0275638092	 0.0032660422	 0.021333
C	 0.0220274721	-1.1765193196	 0.0073752003	 0.13269
C	 0.0354312787	-2.6494466076	-0.0495479657	-0.112241
C	-1.393846062	-3.2108490796	 0.1300993751	-0.385588
N	 0.5869584931	-3.1893841344	-1.3094237716	-0.505592
C	 0.8867423648	-3.1578599271	 1.0531437195	 0.319872
N	 1.5427892104	-3.5494669229	 1.9191792867	-0.340769
H	 0.5036997451	 1.8717902734	 0.9005269308	 0.160708
H	 0.4998960558	 1.8898676094	-0.8683736995	 0.153555
H	-1.0308766074	 1.8711771994	 0.0196233246	 0.154407
H	-2.027561134	-2.8341148302	-0.6775223156	 0.126807
H	-1.3636047864	-4.3012318037	 0.0872914631	 0.147361
H	-1.8172097947	-2.8889975486	 1.0828976169	 0.144206
H	 0.0146703121	-2.8378591859	-2.0734959013	 0.2374
H	 1.5184527457	-2.8087679883	-1.4556214824	 0.245023
22.4266	84.7378	113.8178	186.7214	213.306	245.3271	274.4393	304.9425	323.0523	376.0228	470.4067	508.1116	543.0614	604.4284	656.4819	838.4251	895.4162	968.145	1031.1207	1050.9554	1053.1369	1074.2027	1175.7793	1229.9205	1327.2065	1402.0071	1413.5228	1475.8529	1476.2341	1485.3963	1486.925	1657.1011	2362.2447	2366.5458	3031.7299	3054.6451	3094.2973	3096.5269	3135.0991	3153.5801	3481.7669	3563.0242
CC#CC(C)(N)C#N	CC#C[C@@](C)(N)C#N	
InChI=1S/C6H8N2/c1-3-4-6(2,8)5-7/h8H2,1-2H3	InChI=1S/C6H8N2/c1-3-4-6(2,8)5-7/h8H2,1-2H3/t6-/m1/s1
