17
gdb 32464	3.04503	1.30449	0.94776	3.4541	73.01	-0.1687	0.033	0.2017	1207.5394	0.137602	-455.157274	-455.148521	-455.147577	-455.190531	32.903	
N	 0.0174587368	 1.3466478174	 0.0679757226	-0.602292
C	-0.0213775145	-0.0473278931	 0.0133706111	 0.264736
C	-1.0279669583	-0.9458117428	-0.1731058298	 0.133634
O	-2.3263960503	-0.6599184654	-0.4708233479	-0.467393
C	-0.4548180597	-2.2547961269	 0.0031278651	 0.164763
C	-1.2344103507	-3.5275716062	-0.0917015389	-0.293844
N	-2.2172613688	-3.4146872004	-1.1933735018	-0.518434
H	-2.694399956	-1.4962241167	-0.8175322362	 0.294361
H	-1.7329308515	-3.4175048424	-2.0866395618	 0.241445
H	-2.8443752254	-4.2128348599	-1.1926087204	 0.238959
C	 0.8632223445	-2.0460440571	 0.2621943294	-0.142636
O	 1.1388589424	-0.7110292456	 0.2989083025	-0.169814
H	 0.6172171391	 1.7499406885	-0.6463543164	 0.244969
H	-0.9187914603	 1.7160980165	-0.0482949055	 0.257616
H	-0.5588878033	-4.3904425033	-0.1894888451	 0.101649
H	-1.8153938134	-3.6838864862	 0.8268387098	 0.124342
H	 1.6979787395	-2.7037299665	 0.4382919931	 0.127939
96.8751	146.7503	153.1924	215.1512	266.5835	285.7871	329.0216	363.5198	433.2613	527.4061	589.9514	611.5531	674.9169	687.6611	693.7842	729.433	787.3655	815.5021	891.8377	977.8781	1015.053	1031.3181	1111.8467	1169.2955	1173.0826	1243.5245	1264.6011	1321.8791	1341.3665	1406.5971	1419.8104	1483.1894	1503.9162	1610.419	1641.2435	1649.8421	1737.5635	2988.1814	3031.2679	3274.3728	3488.3594	3492.0577	3547.6763	3575.8652	3600.6068
NC1=C([O-])C(C[NH3+])=CO1	Nc1c(O)c(CN)co1	
InChI=1S/C5H8N2O2/c6-1-3-2-9-5(7)4(3)8/h2,8H,1,6-7H2	InChI=1S/C5H8N2O2/c6-1-3-2-9-5(7)4(3)8/h2,8H,1,6-7H2
