18
gdb 59331	3.4544	1.13018	0.90073	3.2028	77.13	-0.2422	-0.0326	0.2096	1281.1944	0.147262	-439.106873	-439.098132	-439.097187	-439.140463	32.762	
C	-0.0091934301	 1.5353996008	-0.0484853694	-0.41871
C	 0.0032304907	 0.0140352965	 0.0363191783	 0.118567
O	 0.6749508149	-0.462533612	 1.1966787943	-0.430987
C	-1.4203625764	-0.5835256196	 0.0046373386	 0.034991
O	-2.1068974659	-0.1776795785	-1.1823371822	-0.229586
C	-2.5187566842	-1.2775635308	-1.8905164209	 0.386184
N	-3.1476161129	-1.1223398546	-2.9792026472	-0.524493
C	-2.08482574	-2.4725396694	-1.1413574743	-0.196008
C	-1.448586541	-2.0835379753	-0.0374150757	-0.082653
H	 1.0134297449	 1.9219512521	-0.0412495028	 0.126792
H	-0.5111672583	 1.8657891274	-0.9606762506	 0.153679
H	-0.5485067013	 1.9659571639	 0.8056919335	 0.107165
H	 0.5563364367	-0.4002268618	-0.8142966137	 0.102156
H	 0.3932419677	 0.0771521798	 1.9435476009	 0.283325
H	-1.9754139636	-0.1946134651	 0.8739830488	 0.092487
H	-3.3805826184	-2.0303544286	-3.3767574299	 0.220893
H	-2.2735618698	-3.4804685416	-1.4838515296	 0.120286
H	-0.9893314529	-2.6943018732	 0.726643882	 0.135912
77.0442	100.6676	165.0387	231.8612	263.0325	284.0901	331.5228	388.8526	438.8271	490.1391	500.1988	689.8587	716.4426	788.9667	811.6267	846.3131	879.9274	915.9703	923.6923	969.4351	993.0635	1048.3642	1064.4328	1080.881	1120.3752	1127.537	1157.1623	1253.2402	1270.2385	1318.862	1349.2202	1371.5069	1381.6836	1400.2304	1416.6132	1489.7634	1494.0562	1655.5861	1745.8652	2974.7699	3023.0175	3054.7508	3102.7729	3137.5019	3229.1008	3253.6563	3510.1477	3802.7322
CC(O)C1OC(=N)C=C1	C[C@@H](O)[C@H]1OC(=C[CH]1)[NH]	
InChI=1S/C6H9NO2/c1-4(8)5-2-3-6(7)9-5/h2-5,7-8H,1H3	InChI=1S/C6H9NO2/c1-4(8)5-2-3-6(7)9-5/h2-5,7-8H,1H3/t4-,5+/m1/s1
