16
gdb 46649	2.37223	1.56739	1.38866	2.8194	74.49	-0.2188	-0.0214	0.1974	1004.7218	0.124462	-400.710798	-400.702983	-400.702039	-400.743216	30.178	
O	 0.0308261562	 0.0054444286	 0.1649471338	-0.321557
C	-0.0166847563	 1.195363458	-0.0164122534	 0.413027
C	-1.2902007551	 2.0029655996	-0.3346465448	-0.298676
N	-0.86529241	 3.3382139801	-0.7893413327	-0.302751
C	 0.560373985	 3.4582728548	-0.5452277414	-0.021345
C	 1.0193353716	 3.3865729213	 0.8859711105	-0.237153
C	 0.1303844815	 3.4505401884	 2.0080056694	 0.345057
C	-0.5952522828	 3.5268545139	 2.9640076102	-0.440498
C	 1.1362690051	 2.1481705259	-0.0390574887	-0.209302
H	-1.8806565847	 1.4803162805	-1.0916755211	 0.132271
H	-1.8959943562	 2.0642811477	 0.5765510014	 0.152794
H	-1.0290349784	 3.4298988934	-1.7840514852	 0.232256
H	 1.0999043099	 4.1077258739	-1.224096336	 0.10916
H	 1.9891034059	 3.8442441943	 1.0618011386	 0.129931
H	-1.2402703282	 3.5954061663	 3.8047667603	 0.201109
H	 2.1253295366	 1.7628277132	-0.2490378309	 0.115676
84.1959	136.6871	159.4059	250.5729	351.2951	441.6158	459.96	592.0339	599.7174	610.9268	631.822	660.5232	676.1407	744.9594	776.4444	788.2704	856.0367	925.9732	960.8469	979.3837	1024.484	1026.4432	1090.5701	1119.6225	1174.4521	1195.779	1216.1249	1291.0988	1299.7795	1364.2316	1390.5478	1463.6464	1471.7381	1838.9398	2237.0129	3048.3853	3100.2223	3144.39	3186.1145	3205.0481	3502.6933	3554.4983
O=C1CNC2C(C#C)C12	O=C1CN[C@H]2[C@@H](C#C)[C@@H]12	
InChI=1S/C7H7NO/c1-2-4-6-5(9)3-8-7(4)6/h1,4,6-8H,3H2	InChI=1S/C7H7NO/c1-2-4-6-5(9)3-8-7(4)6/h1,4,6-8H,3H2/t4-,6-,7-/m0/s1
