18
gdb 20836	5.17317	1.28732	1.12296	2.0006	75.67	-0.2292	0.0284	0.2576	1116.9358	0.154788	-344.017359	-344.008917	-344.007973	-344.051885	29.648	
C	-0.4908394794	 1.3971992618	 0.1413154097	-0.368018
C	 0.3746133881	 0.1444820174	-0.0764953061	-0.281461
C	 0.8813893617	-0.4506039038	 1.2035358028	 0.355062
N	 2.1556973215	-0.2940012496	 1.5670642934	-0.336605
N	 2.2649262332	-0.9143243468	 2.7600183986	 0.063786
C	 3.5460321362	-0.9614633831	 3.4278355496	-0.315888
C	 1.0924316815	-1.4637673357	 3.1599848725	-0.021049
C	 0.1656480295	-1.1851621228	 2.1787428663	-0.310876
H	 0.0808947498	 2.1787190184	 0.6508991869	 0.123789
H	-0.8438242461	 1.799380259	-0.8137178944	 0.108679
H	-1.3674084977	 1.1707883074	 0.7568483066	 0.114883
H	-0.2080896055	-0.6068505505	-0.6233863303	 0.101299
H	 1.237671508	 0.3956845996	-0.7005574755	 0.114823
H	 3.9437970127	 0.0496925845	 3.5453590365	 0.148955
H	 3.4160816633	-1.4139096826	 4.4125236729	 0.135174
H	 4.2620419404	-1.5548292612	 2.8510885676	 0.145185
H	 1.0140713628	-2.0024491439	 4.0916461757	 0.124823
H	-0.8744441701	-1.4695053781	 2.1666745373	 0.097437
32.5978	35.7079	139.4815	203.8378	213.3029	293.8172	384.9916	434.4311	615.9371	629.7139	718.6268	734.5863	768.9631	791.9283	827.594	960.0013	1015.843	1017.4215	1060.4561	1069.2978	1086.3478	1107.0943	1152.1821	1233.0866	1283.3005	1321.4874	1353.6572	1402.9163	1407.9889	1441.0911	1458.7535	1474.1219	1480.3077	1496.794	1498.2408	1510.5661	1532.3993	1568.9955	3032.1211	3034.817	3046.1945	3082.0018	3105.5915	3111.7987	3113.4657	3143.7447	3248.3177	3268.3371
CCC1=NN(C)C=C1	CCc1nn(C)cc1	
InChI=1S/C6H10N2/c1-3-6-4-5-8(2)7-6/h4-5H,3H2,1-2H3	InChI=1S/C6H10N2/c1-3-6-4-5-8(2)7-6/h4-5H,3H2,1-2H3
