20
gdb 62159	4.56528	0.63991	0.61587	4.6246	77.99	-0.2523	-0.0263	0.226	1790.2212	0.168264	-440.324143	-440.313496	-440.312551	-440.361927	36.274	
C	 0.0290803836	 1.3217117641	 0.4649842262	-0.385868
C	 0.0976937821	-0.1310601138	-0.0215763911	-0.000463
C	 0.9111615249	-1.0235963081	 0.9355129237	-0.1665
N	 2.2925297959	-0.6036959289	 1.0973783972	-0.277142
C	 2.7831589236	-0.0848643976	 2.2572466764	 0.154846
O	 2.1408474333	 0.1000584256	 3.2683609585	-0.319863
C	-1.310835224	-0.7316020231	-0.2093401113	-0.275276
C	-2.0675238932	-0.0761281329	-1.3427052798	 0.161887
O	-3.1694435297	 0.3997889512	-1.2611376824	-0.237249
H	 1.0291832747	 1.7515567107	 0.5617709255	 0.122749
H	-0.5409398711	 1.9470562226	-0.2290964569	 0.124125
H	-0.4555985021	 1.3799112667	 1.4452431952	 0.13715
H	 0.6004676007	-0.1483923979	-1.0013547493	 0.070329
H	 0.4694905077	-1.0043828307	 1.9355575238	 0.152583
H	 0.8887555187	-2.0608687401	 0.5780413488	 0.104466
H	 2.9291578114	-0.7132391227	 0.3238014835	 0.24696
H	 3.8620388882	 0.1541468506	 2.1734788932	 0.076547
H	-1.2194999528	-1.7985919328	-0.4632268615	 0.114877
H	-1.9066756077	-0.6516669911	 0.7053188168	 0.127165
H	-1.510241674	-0.0650679218	-2.3107767967	 0.068678
34.0157	50.6277	55.6432	84.7964	158.2615	214.1622	236.4642	254.5825	308.7445	362.6651	407.7788	463.2511	529.7824	551.24	754.9016	780.5108	858.0638	923.9218	938.7459	973.2898	1004.1556	1029.6161	1032.1095	1131.4194	1153.717	1158.3014	1203.6519	1230.3722	1272.7806	1296.1535	1355.6222	1378.051	1395.627	1418.1416	1428.2273	1430.9126	1458.4988	1479.8141	1492.0444	1500.0227	1535.4074	1807.5997	1837.8532	2839.1372	2935.9067	2982.6623	3003.5501	3024.7387	3040.3582	3091.0819	3106.8413	3111.1632	3121.2656	3631.0315
CC(CNC=O)CC=O	C[C@@H](CNC=O)CC=O	
InChI=1S/C6H11NO2/c1-6(2-3-8)4-7-5-9/h3,5-6H,2,4H2,1H3,(H,7,9)	InChI=1S/C6H11NO2/c1-6(2-3-8)4-7-5-9/h3,5-6H,2,4H2,1H3,(H,7,9)/t6-/m1/s1
