16
gdb 51721	5.40721	0.78992	0.71385	3.0367	67.62	-0.2561	-0.0039	0.2522	1481.1726	0.124602	-475.088162	-475.079749	-475.078805	-475.122708	29.665	
O	-0.0635219618	 0.0319484258	-0.2205422978	-0.266285
C	-0.0262692539	 1.2230014098	-0.2535388336	 0.165597
O	 1.0311109461	 1.9311743184	 0.1970718243	-0.183862
C	 0.9868057093	 3.3553898157	 0.1148683422	 0.109589
C	 1.164820613	 3.9775576234	 1.5182405285	-0.193214
N	 1.8395012641	 5.2236629722	 1.2127503181	-0.306619
C	 2.480102302	 5.2549594051	-0.0013549421	 0.407163
O	 3.1758714917	 6.1510976395	-0.4161432003	-0.366476
C	 2.1438122486	 3.9330721506	-0.7039411923	-0.359123
H	-0.8362862655	 1.867610321	-0.6477222372	 0.083267
H	 0.0248524466	 3.6660949296	-0.3092788963	 0.105132
H	 0.2080941007	 4.142976156	 2.0229275457	 0.122228
H	 1.7705943129	 3.3046970228	 2.1402168361	 0.131572
H	 2.0249161115	 5.9370793891	 1.9002146347	 0.25862
H	 3.0151579754	 3.2724080663	-0.6384296137	 0.153666
H	 1.9180878392	 4.0920520246	-1.7589912464	 0.138746
35.7369	70.7599	143.7005	160.8766	270.3595	328.6139	376.2115	469.6541	500.8797	550.6962	613.8319	674.9692	738.7396	863.5538	902.5866	926.332	1040.98	1047.539	1067.9709	1088.0892	1110.9819	1163.4756	1193.8824	1240.3357	1259.874	1267.1358	1323.2923	1351.5207	1384.5452	1438.0313	1451.5285	1467.8087	1532.787	1845.0478	1873.1713	2946.9123	3015.8968	3037.9581	3065.7016	3078.1931	3133.1964	3640.4326
O=COC1CNC(=O)C1	O=CO[C@H]1CNC(=O)C1	
InChI=1S/C5H7NO3/c7-3-9-4-1-5(8)6-2-4/h3-4H,1-2H2,(H,6,8)	InChI=1S/C5H7NO3/c7-3-9-4-1-5(8)6-2-4/h3-4H,1-2H2,(H,6,8)/t4-/m1/s1
