20
gdb 72130	2.13896	2.00563	1.77037	1.9497	77.99	-0.2194	0.0726	0.292	943.1937	0.172146	-403.095284	-403.087553	-403.086609	-403.126757	31.88	
C	 0.032268467	 1.5360496234	-0.0364237049	-0.500221
C	-0.0531234833	 0.0374390453	-0.085682912	 0.337202
C	 0.3804003875	-0.8163209865	-1.2823841673	-0.292742
C	-0.3385376671	-1.9540844713	-0.5155625436	-0.133682
C	 0.5846873112	-2.0654958935	 0.7053338043	-0.156754
N	 0.3719021544	-0.6818961059	 1.248710917	-0.181605
C	-1.1045582175	-0.7808317308	 1.5852780872	-0.261186
C	-1.3290539114	-0.8392618654	 0.0786888908	 0.365622
O	-2.5083556926	-0.5397705653	-0.5923222842	-0.487405
H	 1.0797268428	 1.8561216928	-0.0276107698	 0.124777
H	-0.4553925245	 1.9760545023	-0.9121173212	 0.123544
H	-0.4451332032	 1.9433982774	 0.8596405776	 0.123398
H	-0.1699849082	-0.4962144139	-2.1708078371	 0.110088
H	 1.4424653139	-0.9379282318	-1.5170785107	 0.09189
H	-0.7060725905	-2.8512727466	-1.014661425	 0.059498
H	 0.2953679928	-2.8122048983	 1.4490275918	 0.096295
H	 1.633530007	-2.2283770487	 0.4406784396	 0.098867
H	-1.3718943791	-1.6187237828	 2.2369809004	 0.090187
H	-1.4628902119	 0.1549982554	 2.0210131115	 0.109481
H	-3.0634925074	-1.3268022859	-0.6117811045	 0.282747
177.5271	196.1553	244.5369	277.0327	286.7071	355.1953	459.9754	484.1552	524.0531	599.7078	630.2336	676.8938	702.4677	778.7162	855.5172	872.5494	898.8296	925.4428	938.9169	946.0916	989.6765	1017.2088	1046.1372	1094.1538	1120.5828	1150.4336	1163.076	1173.2624	1189.6715	1209.9551	1228.7284	1239.3853	1261.146	1280.5657	1317.3953	1325.8415	1380.723	1416.9353	1484.7695	1486.836	1487.2733	1506.9263	1532.6337	3035.1023	3046.0861	3048.5864	3055.6698	3098.7388	3101.4072	3107.4784	3109.0095	3112.0261	3114.7307	3800.4015
CC12CC3CN1CC23O	C[C@@]12C[C@H]3CN1C[C@@]23O	
InChI=1S/C7H11NO/c1-6-2-5-3-8(6)4-7(5,6)9/h5,9H,2-4H2,1H3	InChI=1S/C7H11NO/c1-6-2-5-3-8(6)4-7(5,6)9/h5,9H,2-4H2,1H3/t5-,6-,7-/m0/s1
