19
gdb 47818	2.36424	1.88288	1.23888	4.1873	75.43	-0.2361	0.0472	0.2833	1036.3687	0.162787	-419.23222	-419.224533	-419.223589	-419.264189	30.484	
O	 0.085796589	-0.0438653265	 0.460824296	-0.387531
C	-0.0126805127	 1.1401720943	 0.2095186619	 0.38377
N	-1.2127996279	 1.8033171174	 0.16628556	-0.310006
C	-1.3601374897	 3.2448436413	 0.042920428	-0.162351
C	-0.8573654132	 4.0351854127	 1.2712005377	-0.200746
C	 0.4901733183	 3.4978450293	 1.8036044976	-0.218942
C	 1.4237474139	 3.1329716116	 0.6710411429	-0.012533
C	 2.2737060748	 1.9041983865	 0.7044718229	-0.250929
N	 1.0918323782	 1.9526400126	-0.1384126393	-0.116707
H	-2.0032275616	 1.2385639347	 0.4308160341	 0.250847
H	-0.8207213243	 3.5729104593	-0.8516460092	 0.132234
H	-2.4173788346	 3.4591101952	-0.1350580017	 0.110748
H	-0.7592884558	 5.0879480468	 0.9799254564	 0.103156
H	-1.5999145277	 4.0002920829	 2.076086082	 0.102905
H	 0.9590247572	 4.2394244859	 2.4593293661	 0.105394
H	 0.3126448434	 2.6077033942	 2.4168388132	 0.120359
H	 1.776465176	 3.9741006169	 0.0741490321	 0.094547
H	 3.2253506315	 1.8865833751	 0.1809576697	 0.121195
H	 2.2204442251	 1.2657620901	 1.5827304295	 0.134591
97.4125	187.0875	248.4645	284.9663	317.6494	395.5261	412.8971	454.9338	517.0173	598.5117	636.5311	706.9205	780.7013	796.4357	840.0624	868.895	924.6324	977.2667	986.229	1011.2145	1061.4242	1092.7672	1117.5342	1131.318	1155.9455	1172.2055	1239.7583	1246.1812	1278.7763	1305.033	1340.1444	1357.3139	1382.5971	1418.6619	1429.1709	1453.0831	1482.465	1493.2036	1497.1937	1515.3473	1797.32	3031.4147	3042.1582	3048.6201	3069.3037	3083.0235	3099.0472	3107.7916	3111.937	3198.7581	3652.2068
O=C1NCCCC2CN12	O=C1NCCC[C@H]2CN12	
InChI=1S/C6H10N2O/c9-6-7-3-1-2-5-4-8(5)6/h5H,1-4H2,(H,7,9)	InChI=1S/C6H10N2O/c9-6-7-3-1-2-5-4-8(5)6/h5H,1-4H2,(H,7,9)/t5-,8?/m0/s1
