14
gdb 74826	3.61339	1.32286	1.09714	3.7145	68.69	-0.2449	0.0016	0.2465	1062.164	0.102263	-432.881416	-432.874029	-432.873085	-432.913147	28.491	
N	 0.0912097088	 1.288305547	-0.1446935763	-0.57799
C	-0.0480686925	-0.0596178302	-0.0273052065	 0.462008
N	-1.1358380846	-0.7345936627	-0.0069137413	-0.331681
C	-0.7541361736	-2.1140954443	-0.0256226839	-0.052465
C	 0.0435826342	-2.6098293739	-1.204674681	-0.340068
C	 0.7879267761	-2.1123109883	 0.0149599572	 0.252205
O	 1.1434337066	-0.7396485611	 0.0135784874	-0.268526
C	 1.6303865587	-2.9457301011	 0.8137338468	 0.233758
N	 2.2904700336	-3.6481707312	 1.4535500194	-0.342489
H	 0.9377431278	 1.6796920344	 0.2389302459	 0.273915
H	-0.7507594064	 1.8122441865	 0.0358004278	 0.278172
H	-1.3538266931	-2.8079939517	 0.5506285999	 0.12702
H	 0.0764694817	-3.6815058939	-1.3652831175	 0.145468
H	 0.0936545728	-1.9959638496	-2.097916468	 0.140673
124.7435	155.7165	221.2853	356.9895	366.5816	427.2429	463.1582	494.5858	532.1163	557.0886	605.2599	701.9673	734.0624	766.7228	847.6682	880.7257	934.0651	975.3181	1033.285	1057.2267	1069.2378	1097.1567	1197.0582	1223.5259	1277.3854	1345.2951	1419.6203	1456.8649	1614.9135	1740.6032	2352.7354	3135.1393	3192.0805	3234.0779	3590.6386	3706.0921
NC1=NC2CC2(O1)C#N	NC1=N[C@H]2C[C@]2(O1)C#N	
InChI=1S/C5H5N3O/c6-2-5-1-3(5)8-4(7)9-5/h3H,1H2,(H2,7,8)	InChI=1S/C5H5N3O/c6-2-5-1-3(5)8-4(7)9-5/h3H,1H2,(H2,7,8)/t3-,5-/m0/s1
