23
gdb 123007	3.89288	0.64245	0.60491	2.3984	83.94	-0.2583	0.0826	0.3409	1936.5412	0.204337	-425.40082	-425.390227	-425.389282	-425.437828	37.962	
C	 0.3046830131	 1.4801345488	-0.2915785968	-0.407329
C	 0.1368307271	 0.0113649153	 0.0375373897	 0.002161
C	 1.328300457	-0.9016249927	 0.1868746112	-0.287857
C	 0.4670337705	-0.5884306858	 1.3879988845	-0.013499
C	 1.010595575	 0.2281460301	 2.5285147422	-0.074341
O	 1.7443574172	-0.6295183958	 3.3867399315	-0.260363
C	 2.3062130729	 0.0260484023	 4.5076062403	-0.067294
C	 3.1843180031	-0.9973009076	 5.2113844552	-0.057211
O	 4.1863058996	-1.4903810375	 4.344853614	-0.422871
H	 1.2138030856	 1.9003996053	 0.1476279323	 0.117701
H	 0.3736506777	 1.6226089866	-1.3756445241	 0.119794
H	-0.5444213138	 2.0732488238	 0.0664137297	 0.117063
H	-0.7306272803	-0.4373148909	-0.4401335239	 0.085654
H	 1.2902096908	-1.8988215972	-0.2373360345	 0.111292
H	 2.3124272121	-0.4431995018	 0.1525745423	 0.11039
H	-0.1929858511	-1.3848587203	 1.7207156298	 0.089357
H	 1.6618782664	 1.0379835106	 2.1649854819	 0.086458
H	 0.1902501565	 0.7023846527	 3.093428709	 0.087873
H	 2.9170322781	 0.8838079175	 4.1816598247	 0.092037
H	 1.5198501414	 0.4022872089	 5.1830745334	 0.085185
H	 3.6879603613	-0.5317656633	 6.0650197071	 0.10545
H	 2.5481414947	-1.8106682459	 5.5962437038	 0.091415
H	 3.7261357452	-1.7160481831	 3.5272397068	 0.288935
36.4458	57.789	100.477	112.1366	167.2423	202.6274	222.8046	277.8458	340.0837	366.2871	446.7013	451.9242	485.8398	571.2765	763.3648	832.3081	854.8157	890.2681	896.678	914.5257	945.014	996.7728	1051.2106	1065.9849	1081.1669	1089.4178	1111.5215	1136.9117	1146.9108	1152.0043	1190.3512	1201.2158	1239.0933	1249.488	1258.9674	1279.3542	1361.5038	1384.5593	1393.4794	1414.1898	1425.0388	1442.1527	1456.7283	1491.4655	1495.4703	1500.4564	1502.9971	1509.1722	1525.4624	2955.1447	2965.7167	2975.0729	2996.3147	3003.1781	3030.9721	3077.5499	3087.8797	3105.2011	3126.0748	3134.3265	3147.66	3210.9676	3787.9243
CC1CC1COCCO	C[C@H]1C[C@H]1COCCO	
InChI=1S/C7H14O2/c1-6-4-7(6)5-9-3-2-8/h6-8H,2-5H2,1H3	InChI=1S/C7H14O2/c1-6-4-7(6)5-9-3-2-8/h6-8H,2-5H2,1H3/t6-,7-/m0/s1
