18
gdb 15334	3.62302	1.02456	0.86026	1.3958	78.23	-0.2288	0.0549	0.2837	1361.9532	0.151933	-347.762381	-347.752858	-347.751914	-347.79811	32.827	
C	 0.1085958107	 1.5236190686	 0.0977908827	-0.498086
C	 0.0483988527	 0.0689079883	 0.0779478643	 0.047031
C	 0.00197082	-1.1357936919	 0.0670031886	 0.094436
C	-0.0247055151	-2.5713957808	 0.0387175989	-0.202842
C	-0.5504402093	-3.3663016548	 1.2259290504	-0.278735
C	-1.3324840576	-3.3496069825	-0.0535349289	 0.017148
C	-2.6496139881	-2.6268210305	-0.1289876348	-0.103279
O	-3.6545142824	-3.4959807948	 0.3801925446	-0.421992
H	 1.0994913883	 1.8820325898	-0.2031482358	 0.147675
H	-0.6232998251	 1.9675219399	-0.5866919951	 0.14402
H	-0.0929820164	 1.9193151069	 1.0997273405	 0.145582
H	 0.8096798659	-3.0230190796	-0.4909414668	 0.107524
H	-0.0173824301	-4.2683536094	 1.5038580847	 0.115654
H	-0.9441869725	-2.7957294777	 2.0594172041	 0.124859
H	-1.289666505	-4.2502822582	-0.659048069	 0.094503
H	-2.5903243194	-1.6938057707	 0.4501334537	 0.094299
H	-2.8596032529	-2.348389777	-1.1741268701	 0.087656
H	-4.5044368237	-3.0583063557	 0.274905478	 0.284548
27.597	76.9413	85.3496	129.6962	204.9485	248.8	270.8753	309.4616	375.8263	428.0636	513.1364	589.882	700.4628	802.7617	857.925	910.5648	945.9686	980.1289	1050.667	1053.8708	1063.581	1072.5276	1081.3567	1125.6775	1167.1111	1184.0185	1235.9046	1256.1029	1280.1196	1374.6813	1404.8805	1416.4405	1470.936	1477.9982	1480.2648	1488.7517	1521.4472	2365.1959	2972.7847	3013.6277	3023.206	3081.1075	3083.8838	3137.3476	3139.4271	3153.9952	3229.3599	3826.1581
CC#CC1CC1CO	CC#C[C@H]1C[C@H]1CO	
InChI=1S/C7H10O/c1-2-3-6-4-7(6)5-8/h6-8H,4-5H2,1H3	InChI=1S/C7H10O/c1-2-3-6-4-7(6)5-8/h6-8H,4-5H2,1H3/t6-,7-/m0/s1
