23
gdb 100533	2.49868	0.9513	0.84185	2.7623	82.93	-0.2569	-0.0251	0.2317	1545.6101	0.202555	-425.459887	-425.448599	-425.447655	-425.497518	40.373	
C	 0.2016046031	 1.4698080114	-0.0624807721	-0.383077
C	 0.0246574658	-0.0453315532	 0.0579536668	-0.187615
C	-1.4644081191	-0.4552066172	-0.0070387268	 0.039016
O	-2.0492139985	-0.0256029126	-1.2082069144	-0.437914
C	-1.6129021013	-1.9700494399	 0.1270735114	 0.377221
O	-1.9912429651	-2.6081270088	-0.8355766432	-0.354778
C	-1.3143712278	-2.6383203828	 1.4625980649	-0.062036
C	-2.6525764971	-3.0856640455	 2.0853568144	-0.389352
C	-0.3596983099	-3.8258983198	 1.2699662666	-0.38984
H	 1.2616467389	 1.7405618709	-0.0710765408	 0.111004
H	-0.2570946155	 1.8316677243	-0.9855280224	 0.143665
H	-0.2715491743	 1.9904304767	 0.7776492769	 0.112147
H	 0.5489379313	-0.5496467686	-0.7630002891	 0.107222
H	 0.4688150518	-0.4032948119	 0.9943969071	 0.097714
H	-1.9888233175	 0.0120689002	 0.8443775677	 0.08375
H	-2.2454841213	-0.8431681767	-1.6951413498	 0.291296
H	-0.8530094128	-1.900558194	 2.1287744548	 0.082597
H	-2.4772697806	-3.5557712637	 3.0575292428	 0.120062
H	-3.3323649512	-2.2409847761	 2.2364733668	 0.121735
H	-3.14944627	-3.8095275125	 1.4330840832	 0.140193
H	 0.6142977766	-3.5012803507	 0.8908563549	 0.11974
H	-0.197853703	-4.3439860082	 2.2198938592	 0.115317
H	-0.7823556426	-4.5337844512	 0.5523323811	 0.141932
17.4801	69.6575	95.347	156.4593	200.6098	216.5357	231.0149	246.3408	262.291	287.9524	346.8501	371.8373	418.8088	463.1523	510.6103	651.9133	718.9939	776.5417	850.716	882.3982	919.3605	934.946	975.2192	1000.0945	1055.2155	1071.0421	1087.0563	1117.5329	1135.0646	1174.9472	1198.8508	1261.9692	1287.4293	1333.3775	1346.4463	1368.4262	1375.2368	1392.8348	1405.9186	1416.1101	1443.9431	1476.4836	1485.4079	1489.8869	1494.9464	1500.6387	1508.9455	1512.7285	1783.7629	2960.1894	3027.0355	3036.9334	3037.3629	3041.0789	3044.542	3068.9994	3102.7837	3106.774	3109.2262	3120.234	3128.3225	3131.1621	3667.3962
CCC(O)C(=O)C(C)C	CC[C@@H](O)C(=O)C(C)C	
InChI=1S/C7H14O2/c1-4-6(8)7(9)5(2)3/h5-6,8H,4H2,1-3H3	InChI=1S/C7H14O2/c1-4-6(8)7(9)5(2)3/h5-6,8H,4H2,1-3H3/t6-/m1/s1
