21
gdb 99136	3.91917	0.81184	0.71747	1.8321	80.7	-0.2633	0.0184	0.2817	1657.9021	0.179898	-424.256659	-424.246244	-424.2453	-424.294128	36.59	
C	 0.119174133	 1.4271024989	-0.0980382648	-0.370531
C	-0.1224990362	-0.0408900581	 0.2440482816	-0.304191
C	-1.5795143769	-0.4388727356	 0.1240580795	 0.448616
O	-2.4796098718	 0.2841065629	-0.2180364829	-0.351411
O	-1.7430364813	-1.7388756074	 0.4697590996	-0.25163
C	-3.0611594723	-2.2515248087	 0.3908099719	 0.134836
C	-3.3754826597	-3.2058400036	-0.7254053126	-0.31495
C	-3.2200248009	-3.7089207484	 0.6995717356	-0.041766
C	-2.035364243	-4.5670852693	 1.0855714985	-0.400115
H	 1.1807084113	 1.6719568095	-0.0037440669	 0.111143
H	-0.1981669562	 1.648204634	-1.1201335153	 0.133018
H	-0.4475958193	 2.0826218221	 0.5679280178	 0.132195
H	 0.4571719255	-0.7055368036	-0.4079644145	 0.130265
H	 0.2056193229	-0.2769804639	 1.2631388647	 0.131986
H	-3.8101464348	-1.5360841079	 0.706236497	 0.120239
H	-4.358661684	-3.1657253508	-1.1807912272	 0.118918
H	-2.5648048171	-3.4304540908	-1.4108439171	 0.11886
H	-4.1444563446	-3.9607394233	 1.2130285257	 0.091479
H	-1.1276823921	-4.2423445585	 0.5713346507	 0.125808
H	-1.8428968349	-4.5127233552	 2.1624737111	 0.119302
H	-2.2166995675	-5.6160110224	 0.8290695376	 0.117929
22.2572	39.1761	91.1944	111.3412	187.2386	202.4039	210.2385	285.9381	326.7913	375.3747	470.4717	532.3035	583.6728	665.2512	762.1813	809.0608	828.0065	861.4508	893.1638	928.8201	982.4317	1025.3923	1035.2015	1068.714	1097.9634	1106.057	1110.4721	1139.3921	1170.8035	1196.3062	1208.0801	1242.1634	1277.36	1363.2857	1385.5795	1414.4567	1416.6555	1421.9675	1459.2064	1484.9395	1493.0595	1493.2043	1500.1978	1505.3912	1823.2317	3036.4936	3041.2691	3052.3434	3070.7412	3095.1621	3119.0563	3123.791	3129.2491	3133.3956	3141.7566	3192.2105	3222.9465
CCC(=O)OC1CC1C	CCC(=O)O[C@H]1C[C@H]1C	
InChI=1S/C7H12O2/c1-3-7(8)9-6-4-5(6)2/h5-6H,3-4H2,1-2H3	InChI=1S/C7H12O2/c1-3-7(8)9-6-4-5(6)2/h5-6H,3-4H2,1-2H3/t5-,6+/m1/s1
