17
gdb 99534	2.2783	1.20691	0.83469	5.1785	73.02	-0.2998	0.0035	0.3033	1334.537	0.134654	-418.029354	-418.019448	-418.018504	-418.064711	34.565	
C	-0.0775084745	 1.5632372882	 0.1150787074	-0.412335
C	-0.0199657209	 0.0269718673	-0.0076606102	-0.15617
C	-1.3807212114	-0.5212726379	-0.0059753651	 0.283854
N	-2.4632487988	-0.9247830055	-0.0125228518	-0.307942
C	 0.7470013171	-0.4496070176	-1.278155749	-0.16024
C	 2.2017220259	 0.0926978302	-1.3463396571	-0.077939
O	 2.8860616503	-0.3741014949	-2.4798361574	-0.410868
C	 0.8101504718	-1.9127771095	-1.3386433836	 0.273628
N	 0.9444579542	-3.0598995626	-1.3860409395	-0.316064
H	 0.9191458595	 1.9791753506	 0.2748422176	 0.140285
H	-0.5066712112	 2.0106567322	-0.7859029856	 0.146257
H	-0.7024109969	 1.8456880333	 0.9648684914	 0.152642
H	 0.4953497119	-0.381771384	 0.8702882726	 0.147443
H	 0.2128481644	-0.099535598	-2.1689002098	 0.153161
H	 2.171281678	 1.1805453221	-1.4364680391	 0.130706
H	 2.7215950944	-0.158251402	-0.4085445995	 0.110003
H	 2.9993462161	-1.3287477921	-2.3990790313	 0.303579
50.4882	101.5432	122.6908	153.149	199.9915	213.6939	257.0105	300.9404	335.9616	394.0053	407.4824	496.8095	533.454	580.5991	630.5159	817.7167	847.5783	937.7844	1015.2239	1034.8903	1078.2079	1095.2217	1110.545	1144.7198	1204.1013	1254.5464	1314.6527	1340.5451	1357.7288	1391.4412	1414.066	1427.7856	1494.3986	1500.0234	1507.8509	2355.227	2362.1345	2986.7186	3039.5681	3056.2077	3061.7106	3109.7427	3133.089	3142.149	3792.1991
CC(C#N)C(CO)C#N	C[C@@H](C#N)[C@@H](CO)C#N	
InChI=1S/C6H8N2O/c1-5(2-7)6(3-8)4-9/h5-6,9H,4H2,1H3	InChI=1S/C6H8N2O/c1-5(2-7)6(3-8)4-9/h5-6,9H,4H2,1H3/t5-,6+/m0/s1
