20
gdb 60617	2.86918	1.0802	0.85747	5.1373	75.05	-0.2463	0.0193	0.2655	1370.9403	0.170799	-440.306916	-440.297307	-440.296363	-440.34206	35.429	
C	-0.6333841901	 1.923762515	 0.7513121188	-0.412356
C	-0.0630906833	 0.694495905	 0.0755554711	-0.022975
C	 1.3224432697	 0.7015363203	-0.5197439262	-0.278126
C	 1.0369782768	-0.1535407864	 0.6865377687	 0.022281
C	 1.6515013494	 0.1622189993	 2.0323357399	-0.163001
N	 0.8587496305	-0.2700551863	 3.2029789577	-0.543942
H	 2.5526202558	-0.70290121	 3.9101764494	 0.305003
H	 0.1271999988	 0.4023849065	 3.4059328215	 0.247671
H	 0.3930989263	-1.1506353255	 2.9990472537	 0.2429
C	 3.0809729843	-0.4225653709	 2.1556254859	 0.435114
O	 3.8572698239	-0.4771753692	 1.240805256	-0.334812
O	 3.3809006942	-0.8302512999	 3.3964139677	-0.373893
H	 0.13651314	 2.5050467655	 1.2682299689	 0.11561
H	-1.0929134928	 2.5904425319	 0.0137367416	 0.125949
H	-1.4079253517	 1.6634321841	 1.4829051888	 0.110255
H	-0.8044121613	 0.1246379714	-0.4791731743	 0.086619
H	 1.4998496213	 0.2108172535	-1.4695268315	 0.118179
H	 1.9325620897	 1.585414466	-0.3628598394	 0.118078
H	 0.9638222656	-1.2228226172	 0.49766127	 0.085583
H	 1.7883285329	 1.2457704568	 2.1278965117	 0.115862
46.453	68.8295	126.1364	193.5751	207.7628	276.2147	307.7723	348.0041	361.2846	395.245	481.2809	559.272	600.707	722.9695	773.2796	831.804	847.8772	862.1064	877.4528	911.6827	928.3417	1015.4733	1037.9536	1070.8287	1089.1006	1110.7518	1137.9376	1145.5365	1194.5608	1205.334	1217.655	1253.2322	1271.4179	1379.0032	1395.6996	1418.0306	1422.422	1433.5913	1494.1235	1495.9401	1508.3211	1658.4986	1869.9817	3024.3122	3049.1419	3083.5653	3097.4161	3121.5504	3135.9074	3138.5244	3219.8396	3470.8202	3497.5056	3579.8642
CC1CC1C([NH3+])C([O-])=O	C[C@H]1C[C@H]1[C@@H](N)C(=O)O	
InChI=1S/C6H11NO2/c1-3-2-4(3)5(7)6(8)9/h3-5H,2,7H2,1H3,(H,8,9)	InChI=1S/C6H11NO2/c1-3-2-4(3)5(7)6(8)9/h3-5H,2,7H2,1H3,(H,8,9)/t3-,4+,5+/m0/s1
