17
gdb 49506	3.64927	1.22561	1.12895	3.0852	72.98	-0.2415	-0.0394	0.2021	1096.3747	0.136491	-421.839427	-421.83199	-421.831045	-421.871637	28.549	
O	-0.7768274799	 1.0327023569	 0.5213360805	-0.238817
C	 0.2289727076	 0.9436756568	-0.1369776612	 0.120603
C	 1.3908105015	 1.8997938568	-0.1067111355	-0.091541
C	 1.3396536107	 3.0433764177	-1.1936527528	-0.045151
C	 0.4077150636	 3.806421841	-0.2119319506	-0.247849
C	 1.2937982005	 3.1094155741	 0.8799899289	-0.128868
C	 2.6329116856	 3.778502894	 0.5952810901	 0.43264
O	 3.4402085924	 4.2263298453	 1.361871678	-0.330054
C	 2.6934291711	 3.7376689668	-0.9528256196	-0.338373
H	 0.3691668393	 0.0999524282	-0.8517445402	 0.085175
H	 2.3169542647	 1.3107760174	-0.1002420131	 0.093876
H	 1.0517745555	 2.8319757177	-2.2230610203	 0.082581
H	 0.4173281359	 4.8987428687	-0.2527887784	 0.108461
H	-0.6142359166	 3.4327569359	-0.1937130349	 0.142122
H	 0.9868666085	 2.9966067725	 1.9159802538	 0.09838
H	 3.5611900404	 3.17004823	-1.3021571081	 0.126769
H	 2.7482484893	 4.7455923603	-1.3755172065	 0.130044
89.0548	136.6983	177.9622	264.3723	348.0491	434.01	468.2747	586.7623	610.2956	689.3924	773.3997	792.5208	827.8674	852.4493	894.6646	945.409	957.7719	960.5939	1002.4834	1043.229	1055.6576	1080.3184	1098.6316	1147.6073	1161.7293	1198.5573	1218.8281	1227.7983	1257.4046	1272.8289	1301.1597	1368.0671	1424.6908	1460.7393	1511.2279	1819.5219	1874.1442	2865.8588	3029.289	3057.1928	3072.7326	3104.8558	3119.1117	3161.2848	3167.9476
O=CC1C2CC1C(=O)C2	O=C[C@H]1[C@H]2C[C@@H]1C(=O)C2	
InChI=1S/C7H8O2/c8-3-6-4-1-5(6)7(9)2-4/h3-6H,1-2H2	InChI=1S/C7H8O2/c8-3-6-4-1-5(6)7(9)2-4/h3-6H,1-2H2/t4-,5-,6-/m0/s1
