13
gdb 10454	2.85885	1.82301	1.32053	5.5865	58.89	-0.2785	-0.0566	0.2219	906.7143	0.093419	-398.594039	-398.586287	-398.585343	-398.626845	26.767	
O	-0.9144024994	 0.9067243335	-0.2165107683	-0.242975
C	 0.1564188503	 0.8671052638	 0.3294117577	 0.127793
C	 1.2815228277	 1.8117933331	 0.0155775749	 0.303948
C	 1.154231416	 2.6177425204	-1.2667238831	-0.422737
C	 1.3051676119	 1.7883411786	-2.4629450778	 0.280319
N	 1.4346732499	 1.1381888843	-3.4083164575	-0.297386
C	 2.0485255763	 2.3359054867	 1.1681761685	-0.22073
O	 2.575300416	 1.3065645946	 0.3469365009	-0.244878
H	 0.4063252282	 0.1307423228	 1.1229850195	 0.103994
H	 0.1659382145	 3.0881983195	-1.2891127687	 0.177927
H	 1.9104890299	 3.4074528712	-1.2876708405	 0.159762
H	 2.5181174954	 3.3134534521	 1.071363955	 0.137765
H	 1.7785863133	 2.0407481295	 2.1810689395	 0.137198
52.1576	124.6254	143.4413	238.0457	336.8051	353.8308	376.0029	391.0347	520.2727	567.0825	789.5975	869.9538	883.336	917.488	960.4826	984.7441	1047.9712	1133.8237	1164.3928	1213.2659	1300.7495	1330.1007	1357.1281	1426.253	1441.2039	1523.8288	1830.3091	2371.1043	2915.6321	3062.9902	3087.9324	3111.1009	3179.7056
O=CC1(CC#N)CO1	O=C[C@@]1(CC#N)CO1	
InChI=1S/C5H5NO2/c6-2-1-5(3-7)4-8-5/h3H,1,4H2	InChI=1S/C5H5NO2/c6-2-1-5(3-7)4-8-5/h3H,1,4H2/t5-/m0/s1
