18
gdb 110183	2.69692	1.12552	0.89062	3.7567	74.16	-0.2537	-0.0396	0.214	1326.211	0.145947	-439.119751	-439.110364	-439.109419	-439.154664	33.119	
C	-0.1364189077	 1.5750831185	-0.0273955973	-0.387698
C	 0.1034830219	 0.0642667476	 0.0753519812	-0.203808
C	 0.7441454001	-0.4993616067	-1.1895734027	-0.164702
C	 0.8485567098	-2.0635845395	-1.3450346789	-0.079202
N	-0.0618083083	-1.9586304116	-2.4775506014	-0.321777
C	-0.146542817	-0.5831303737	-2.4594402457	 0.445774
O	-0.7096263237	 0.2107119671	-3.1621082044	-0.354275
C	 2.2283856099	-2.585604636	-1.6584546398	 0.149849
O	 2.5844457713	-2.9406122616	-2.7522298168	-0.244636
H	 0.8093453768	 2.1168484507	-0.1367882192	 0.11763
H	-0.7576940398	 1.8108688179	-0.8954343965	 0.154273
H	-0.6356763862	 1.9515882833	 0.8700199632	 0.115743
H	 0.7469127005	-0.1574773283	 0.9359805168	 0.10231
H	-0.8469254462	-0.4538471229	 0.2554142561	 0.109347
H	 1.6900698779	 0.0074738398	-1.4098250285	 0.111467
H	 0.4423246904	-2.6105239733	-0.4828569536	 0.104034
H	-0.2066416767	-2.6078423472	-3.2373620392	 0.261987
H	 2.9124984869	-2.6191076039	-0.7800003333	 0.083684
72.0362	76.8546	114.8053	151.6828	206.8786	233.7617	265.0997	324.078	368.8595	418.9323	512.3631	693.5201	700.6931	761.3697	778.8265	847.7573	871.9308	943.3265	981.5732	1016.8024	1079.4781	1090.2467	1101.2517	1134.4088	1178.2434	1202.4528	1243.4896	1278.3027	1335.0372	1351.6587	1369.8823	1383.8849	1416.8855	1417.7145	1490.1873	1499.0788	1511.1691	1830.7001	1893.6628	2876.7284	3014.2673	3021.9707	3039.5454	3049.4941	3066.4075	3106.4095	3127.1278	3612.4037
CCC1C(NC1=O)C=O	CC[C@H]1[C@@H](NC1=O)C=O	
InChI=1S/C6H9NO2/c1-2-4-5(3-8)7-6(4)9/h3-5H,2H2,1H3,(H,7,9)	InChI=1S/C6H9NO2/c1-2-4-5(3-8)7-6(4)9/h3-5H,2H2,1H3,(H,7,9)/t4-,5-/m0/s1
