18
gdb 118335	2.35888	1.1559	0.82558	1.0468	69.87	-0.2542	-0.0387	0.2155	1360.157	0.145525	-476.261443	-476.251445	-476.250501	-476.297409	35.469	
N	-0.434824061	 1.3111897149	 0.1570139006	-0.519145
C	-0.094976069	 0.0236982334	-0.1107939595	 0.376935
O	 1.0073931632	-0.3288073765	-0.4770410958	-0.350536
C	-1.2788938655	-0.9775044025	 0.0241284694	-0.163613
C	-0.8543866108	-2.4075968501	-0.3108748896	-0.232758
C	-2.038660694	-3.2925702427	-0.6941306545	-0.089218
O	-3.0473307953	-3.340607578	 0.3121354457	-0.412165
C	-1.9291806759	-0.8457549661	 1.3958255407	 0.169947
O	-2.5059421881	 0.145306409	 1.7748251336	-0.272872
H	 0.3071866101	 1.992090532	 0.1813348788	 0.261495
H	-1.3017101808	 1.5068483994	 0.6370261154	 0.27696
H	-2.036241785	-0.6279843191	-0.6905059723	 0.134048
H	-0.1289322234	-2.3793048942	-1.128417709	 0.134698
H	-0.3208193532	-2.8446953861	 0.5444042582	 0.100218
H	-2.534733597	-2.8853262175	-1.5827243401	 0.116831
H	-1.689389586	-4.3018625799	-0.9534666475	 0.098076
H	-2.7279105887	-3.8996560234	 1.0274473866	 0.286893
H	-1.8112607397	-1.7229855929	 2.0628266493	 0.084207
43.1086	65.7767	83.3367	164.0609	210.3741	246.173	268.0003	336.4657	354.2755	413.5868	451.3036	460.2578	563.956	603.7956	621.6384	723.7738	780.617	853.5194	919.5247	952.0917	1026.6132	1065.8596	1085.761	1102.7469	1139.6451	1183.6893	1202.6666	1270.3426	1297.5951	1331.9337	1384.3234	1390.8445	1412.5273	1416.766	1480.8901	1503.5539	1621.7491	1802.379	1806.3653	2928.6791	3006.3774	3020.6707	3032.6925	3068.06	3102.4664	3557.4304	3700.6427	3819.1021
NC(=O)C(CCO)C=O	NC(=O)[C@@H](CCO)C=O	
InChI=1S/C5H9NO3/c6-5(9)4(3-8)1-2-7/h3-4,7H,1-2H2,(H2,6,9)	InChI=1S/C5H9NO3/c6-5(9)4(3-8)1-2-7/h3-4,7H,1-2H2,(H2,6,9)/t4-/m0/s1
