17
gdb 84140	2.64099	1.3815	1.03719	3.0536	74.14	-0.2679	-0.0011	0.2668	1174.6055	0.135483	-418.048093	-418.039175	-418.038231	-418.082472	31.841	
C	-0.001164626	 1.5266127215	-0.1200068485	-0.394445
C	 0.0555876058	 0.0083582873	 0.0187950945	-0.001626
N	 0.6834051141	-0.6236279561	-1.14675499	-0.295299
C	 1.5981359299	-1.3936964769	-0.7295705299	 0.405575
C	 2.5000492929	-2.2508063417	-1.5458061436	-0.475563
O	 1.8068522115	-1.482275005	 0.6264694731	-0.25018
C	 0.9015609822	-0.5430973729	 1.2320348869	-0.063194
C	 1.6743775639	 0.4665374951	 1.9656963037	 0.285179
N	 2.2624689496	 1.2675840614	 2.5548722448	-0.322177
H	 1.0015072867	 1.95067173	-0.2187636562	 0.140588
H	-0.5736814513	 1.7834210862	-1.0142842163	 0.135073
H	-0.4848840576	 1.9845462422	 0.7477387808	 0.127553
H	-0.9670363271	-0.3762830034	 0.109418418	 0.102985
H	 3.5444910265	-1.9799744572	-1.3636447569	 0.15547
H	 2.3812738392	-3.3011879029	-1.2624028427	 0.151487
H	 2.2654381351	-2.1266462704	-2.602129438	 0.158216
H	 0.2788122547	-1.0834707171	 1.9502349802	 0.140358
35.8847	126.8823	155.2997	159.3517	228.8266	253.9164	302.5443	371.4793	433.761	498.1023	572.2791	616.5572	679.2294	738.0749	820.7836	896.5628	930.7457	961.4638	1022.2688	1038.0461	1066.5722	1090.0947	1125.3467	1144.4974	1247.2048	1270.0545	1330.6616	1352.5791	1374.5974	1412.4008	1415.187	1473.6227	1475.1062	1484.9988	1495.2559	1757.5111	2359.9885	3032.405	3049.5453	3053.6306	3076.4639	3112.3683	3124.4321	3133.771	3169.7335
CC1N=C(C)OC1C#N	C[C@H]1N=C(C)O[C@H]1C#N	
InChI=1S/C6H8N2O/c1-4-6(3-7)9-5(2)8-4/h4,6H,1-2H3	InChI=1S/C6H8N2O/c1-4-6(3-7)9-5(2)8-4/h4,6H,1-2H3/t4-,6+/m1/s1
