23
gdb 95762	2.32534	1.43139	1.14138	0.2353	82.06	-0.2304	0.0852	0.3156	1222.8162	0.204738	-425.442263	-425.43266	-425.431716	-425.475768	37.429	
C	 0.0564453623	 1.5315720366	 0.0750591889	-0.403223
C	 0.0124123826	 0.014751782	-0.0307782973	 0.120961
C	 0.7584848716	-0.513498399	-1.2551769887	-0.083837
O	 0.8204578412	-1.9298130196	-1.238085892	-0.256015
C	 1.4827319857	-2.3869607095	-0.0717449573	-0.098123
C	 0.7527784084	-1.9355261874	 1.203781421	 0.350642
C	-0.6147628459	-2.625298046	 1.3267161806	-0.423896
C	 1.6135396301	-2.2031172587	 2.4358767541	-0.421537
O	 0.6049140576	-0.5045295893	 1.1574366759	-0.309606
H	 1.0915525476	 1.8830208343	 0.127933525	 0.122517
H	-0.4280149315	 1.9950641223	-0.7901015915	 0.114159
H	-0.4611121083	 1.8605771827	 0.9798274872	 0.126738
H	-1.0356985083	-0.3165439074	-0.0996134827	 0.071341
H	 0.2440824897	-0.2308971138	-2.1787473448	 0.104295
H	 1.7770527592	-0.0887169137	-1.2736229	 0.085324
H	 1.5147791185	-3.4788192335	-0.1371770845	 0.103437
H	 2.5168498649	-2.0050698681	-0.0507225831	 0.084621
H	-0.4856504833	-3.6868856348	 1.5606305023	 0.111388
H	-1.1952877765	-2.163775165	 2.1306091801	 0.117851
H	-1.1822132743	-2.5588681785	 0.3956937733	 0.128125
H	 2.5586832667	-1.6574328482	 2.3665724268	 0.119767
H	 1.0935451929	-1.8693284022	 3.3383049419	 0.123017
H	 1.8295060792	-3.2713374432	 2.536821345	 0.112054
135.6171	148.2928	194.6333	211.2949	230.3413	266.5055	281.9183	324.4793	349.7759	408.053	443.3612	463.3162	499.5141	500.7881	611.9436	780.7966	842.6958	888.3711	906.4224	937.138	947.2565	971.4711	978.6725	1010.3923	1048.6784	1119.0856	1135.0627	1151.9227	1170.3757	1208.9433	1234.0003	1264.2422	1279.0403	1331.6443	1341.407	1380.877	1385.1146	1395.48	1408.3538	1412.2244	1427.8658	1474.1186	1479.5448	1483.4815	1485.5406	1492.7663	1497.4869	1500.5447	1513.1076	2957.9078	2970.7935	2983.0742	3039.6183	3041.5006	3044.8019	3081.9089	3084.3808	3109.7419	3114.2298	3116.9252	3118.8742	3122.4011	3129.321
CC1COCC(C)(C)O1	C[C@H]1COCC(C)(C)O1	
InChI=1S/C7H14O2/c1-6-4-8-5-7(2,3)9-6/h6H,4-5H2,1-3H3	InChI=1S/C7H14O2/c1-6-4-8-5-7(2,3)9-6/h6H,4-5H2,1-3H3/t6-/m0/s1
