19
gdb 111294	3.16533	1.24592	1.05813	2.1185	71.81	-0.2354	0.0724	0.3078	1180.7017	0.157583	-460.112713	-460.103529	-460.102585	-460.146415	34.607	
C	 0.0277136331	 1.3021882106	 0.230943827	-0.2511
O	-0.0069662777	-0.0536639422	-0.1818879435	-0.250463
C	-1.2990486947	-0.6200254093	-0.12263991	 0.081038
C	-1.4127237327	-1.9877580201	-0.7683697457	-0.17707
C	-0.4412840982	-2.9411406	-0.1050099651	-0.327116
C	-1.7030049905	-2.6290499989	 0.6179728364	 0.384207
O	-2.5385116395	-3.6665115728	 0.9740155482	-0.455165
C	-1.6624803053	-1.2503558446	 1.2804565907	 0.02231
O	-0.7842552088	-1.0009102312	 2.3464958118	-0.434278
H	 1.0641599186	 1.6374894021	 0.1448238392	 0.127467
H	-0.6026206065	 1.9301732335	-0.4166715262	 0.108589
H	-0.3048645321	 1.4214109739	 1.2699230967	 0.125717
H	-2.0473674448	 0.1000277061	-0.4783980788	 0.064457
H	-1.845089604	-2.1935636256	-1.7390021517	 0.091181
H	-0.4377371684	-3.9372693721	-0.5355045829	 0.124595
H	 0.5309527692	-2.5981223554	 0.2355016526	 0.113732
H	-3.428403732	-3.3147147168	 1.0890832276	 0.284879
H	-2.6604946235	-0.9455346772	 1.6149960171	 0.077353
H	 0.1054247978	-0.9970654599	 1.9728769868	 0.289666
81.5792	120.3451	170.28	215.4471	233.1386	270.5884	328.0394	355.2104	369.5676	396.9134	502.6005	529.429	616.9103	721.0882	734.4002	814.5161	839.7006	918.4631	951.5068	985.3193	1013.6859	1046.4975	1058.3829	1093.6028	1122.4744	1138.5938	1170.7527	1183.6191	1199.6714	1227.3922	1261.9137	1283.5244	1299.1135	1342.8064	1381.7264	1418.9568	1445.831	1477.7037	1488.7137	1507.8367	1513.9208	2987.6919	3014.4775	3051.067	3054.0289	3117.3901	3124.7437	3197.1039	3211.5041	3786.5196	3794.8061
COC1C2CC2(O)C1O	CO[C@H]1[C@H]2C[C@@]2(O)[C@H]1O	
InChI=1S/C6H10O3/c1-9-4-3-2-6(3,8)5(4)7/h3-5,7-8H,2H2,1H3	InChI=1S/C6H10O3/c1-9-4-3-2-6(3,8)5(4)7/h3-5,7-8H,2H2,1H3/t3-,4+,5+,6+/m1/s1
