19
gdb 90780	3.91027	1.34206	1.24742	2.49	73.98	-0.2285	0.0663	0.2948	1064.0842	0.159706	-422.998506	-422.990677	-422.989733	-423.030434	31.336	
C	-0.0569285536	 1.4430336268	 0.0753640704	-0.500928
C	 0.0501335307	-0.0444916815	 0.0291725107	 0.483635
O	-1.1589573165	-0.7922220204	-0.1797585018	-0.34042
C	-0.5629923978	-1.927482019	 0.5235556565	 0.055937
C	 0.6604707495	-1.0809603761	 0.929134684	-0.242343
C	 1.229894902	-0.8558814749	-0.4703912702	-0.131066
C	 0.9050039904	-2.0406424418	-1.3797652144	-0.270358
C	-0.0657752284	-2.9159024143	-0.5350503483	 0.136304
O	 0.5629880603	-4.038965932	 0.0620764761	-0.438444
H	 0.9150017059	 1.889437633	 0.3048423577	 0.123875
H	-0.3905697408	 1.8333731745	-0.8925766539	 0.133265
H	-0.7763980459	 1.7590229885	 0.8370687387	 0.130877
H	-1.2245376004	-2.3367594789	 1.2878001342	 0.083483
H	 1.1762535416	-1.0145055796	 1.8771542905	 0.096036
H	 2.1746861451	-0.3315284565	-0.5637029646	 0.087229
H	 0.4415862693	-1.7199294319	-2.3168942715	 0.112438
H	 1.7974225689	-2.6223881671	-1.6288856601	 0.102855
H	-0.8903786448	-3.3162013291	-1.1301330977	 0.095038
H	 1.3172185043	-3.7155871496	 0.5688152937	 0.282587
116.2179	191.7685	201.5886	280.9352	303.3704	339.2194	413.6352	440.3218	534.9026	628.9468	723.5499	748.7048	768.7385	825.6608	844.4043	884.984	893.5889	921.1689	956.946	973.5341	991.403	1018.401	1044.5598	1061.0033	1084.6219	1110.8751	1172.4432	1186.8745	1206.4853	1225.7657	1264.832	1273.8962	1308.0381	1309.6773	1327.5961	1404.4472	1419.469	1463.1346	1473.8653	1483.726	1500.673	3034.1814	3056.4345	3088.1047	3099.6517	3102.9174	3114.0572	3116.1752	3175.268	3203.8281	3788.436
CC12OC3C1C2CC3O	C[C@]12O[C@@H]3[C@H]1[C@H]2C[C@H]3O	
InChI=1S/C7H10O2/c1-7-3-2-4(8)6(9-7)5(3)7/h3-6,8H,2H2,1H3	InChI=1S/C7H10O2/c1-7-3-2-4(8)6(9-7)5(3)7/h3-6,8H,2H2,1H3/t3-,4-,5-,6+,7-/m1/s1
