13
gdb 12162	3.64064	1.56249	1.20275	3.0018	61.15	-0.2502	-0.0043	0.2459	955.6312	0.094525	-398.574611	-398.566876	-398.565932	-398.606891	27.719	
N	-0.0202913551	 1.3252441045	 0.3237103632	-0.51064
C	 0.0517803075	-0.0514936739	-0.0827251736	-0.175516
C	-1.2870168708	-0.8293201141	-0.2843171571	-0.03768
O	-0.8469678558	-1.2179765371	-1.6375717156	-0.248554
C	 0.2911781889	-0.4518503024	-1.5554032257	 0.425559
O	 1.07684078	-0.2217217314	-2.4164845743	-0.318007
C	-1.5679656264	-1.9583420958	 0.5713240227	 0.318052
C	-1.7919932077	-2.8836728615	 1.3040814698	-0.427082
H	 0.8962103481	 1.6756124315	 0.5769847134	 0.25205
H	-0.3722929699	 1.9169671759	-0.4221514355	 0.244872
H	 0.7244286455	-0.5983354851	 0.5818995567	 0.136584
H	-2.1472951217	-0.1585957227	-0.364230866	 0.128135
H	-1.9961941326	-3.704861608	 1.9465249722	 0.212226
85.6427	142.2613	174.4286	226.6562	251.1291	354.1937	435.5598	491.454	572.7658	631.8073	684.9801	708.9968	743.4142	787.8147	892.3244	925.93	944.7789	1057.0582	1115.5615	1171.0356	1195.8599	1205.328	1269.8228	1365.1113	1423.734	1670.2371	1936.829	2242.8536	3073.3162	3100.1111	3500.873	3512.6045	3597.0363
NC1C(OC1=O)C#C	N[C@H]1[C@@H](OC1=O)C#C	
InChI=1S/C5H5NO2/c1-2-3-4(6)5(7)8-3/h1,3-4H,6H2	InChI=1S/C5H5NO2/c1-2-3-4(6)5(7)8-3/h1,3-4H,6H2/t3-,4-/m0/s1
