16
gdb 86706	2.46256	1.40187	1.05722	3.9756	67.5	-0.2515	-0.0526	0.1989	1127.1386	0.122527	-475.026855	-475.017901	-475.016957	-475.062001	30.899	
O	 0.3197751963	 1.2003406184	-0.4712182293	-0.412433
C	 0.0608746672	-0.0867200228	-0.0022769155	 0.111171
C	 0.0875057696	-0.3250762001	 1.5349019209	-0.208524
N	-1.2744679977	-0.8466284111	 1.4444548049	-0.031397
C	-2.167027384	-1.0264197571	 2.4540158826	 0.142781
O	-1.8732178834	-0.9701900585	 3.6276772355	-0.320566
C	-1.4570244051	-0.5838380073	 0.0252945265	-0.149187
C	-2.4162900004	 0.5276019903	-0.3427167174	 0.154253
O	-2.8668503597	 1.3177175415	 0.4467771357	-0.249452
H	-0.1283872039	 1.8381132241	 0.0976356426	 0.299898
H	 0.7005744952	-0.7594162655	-0.5737505071	 0.120223
H	 0.8264262137	-1.0426201578	 1.9027495354	 0.133192
H	 0.1622608342	 0.5954971338	 2.1262589596	 0.129349
H	-3.1839838696	-1.255978162	 2.0809345581	 0.078412
H	-1.6538231649	-1.4674968194	-0.5939987025	 0.104336
H	-2.6421391674	 0.5920523935	-1.4291276999	 0.097944
45.6663	61.4697	74.0465	180.5261	224.6982	277.7932	325.8296	391.233	432.0776	440.2181	578.6449	686.0614	757.8119	837.0043	860.048	933.6032	969.8911	1007.3691	1028.2676	1033.2711	1131.871	1152.4354	1170.6925	1215.2474	1257.2653	1302.1577	1313.4268	1360.3455	1386.6125	1413.0847	1435.7088	1449.361	1511.2715	1794.5549	1825.107	2901.6738	2947.7943	3032.8455	3037.1643	3089.2818	3120.876	3788.9028
OC1CN(C=O)C1C=O	O[C@H]1CN(C=O)[C@H]1C=O	
InChI=1S/C5H7NO3/c7-2-4-5(9)1-6(4)3-8/h2-5,9H,1H2	InChI=1S/C5H7NO3/c7-2-4-5(9)1-6(4)3-8/h2-5,9H,1H2/t4-,5-/m0/s1
