19
gdb 100260	2.05171	1.46757	1.0941	0.7443	67.57	-0.2443	-0.029	0.2153	1174.5085	0.156473	-497.309685	-497.29952	-497.298576	-497.344693	37.314	
C	 0.0633997863	 1.4421475229	 0.2614141492	-0.481714
C	 0.0585206334	-0.024750548	-0.0900942832	 0.360455
O	 1.0416493746	-0.584463109	-0.5366830938	-0.334566
C	-1.2712547117	-0.8070930779	 0.0763436862	 0.212016
O	-2.2929816762	-0.1053902279	-0.6351967978	-0.48276
C	-1.1212511689	-2.2128667214	-0.5200295554	-0.116925
O	-0.9057500429	-2.1244530516	-1.9206650733	-0.438354
C	-1.7383150932	-0.8755785889	 1.5422283516	-0.1044
O	-2.2153181045	 0.3625454661	 2.0234049622	-0.413496
H	 1.0704328781	 1.8445188668	 0.1478047033	 0.133065
H	-0.6286535783	 1.9680808796	-0.4042405613	 0.151748
H	-0.3181653951	 1.5910703654	 1.2751426959	 0.167502
H	-2.2174032364	-0.4082029421	-1.5523857452	 0.296863
H	-0.3169061884	-2.7623003766	-0.0175011041	 0.113304
H	-2.0601262782	-2.7579158489	-0.3829979173	 0.114075
H	 0.0032395163	-1.809839253	-2.0178183129	 0.30167
H	-2.519662575	-1.6491628706	 1.6081702377	 0.100946
H	-0.9112502319	-1.1790051589	 2.1925954655	 0.120803
H	-2.850447858	 0.675064474	 1.3667099229	 0.29977
54.1329	116.2531	148.3683	179.7592	204.6993	215.2068	263.1009	303.9246	359.4508	387.9077	415.5371	482.0719	504.231	535.3326	597.0958	621.9281	682.4081	692.7814	874.9032	944.4996	963.7866	1005.8188	1051.9046	1091.3062	1095.9715	1114.9436	1156.0927	1211.1488	1225.6704	1300.3566	1345.5198	1383.2057	1389.2431	1408.9557	1427.7264	1437.2405	1463.1379	1468.574	1485.2885	1498.8335	1777.9839	2978.399	3037.4282	3051.472	3077.5437	3095.9194	3118.0759	3160.9533	3726.0743	3765.3635	3786.0286
CC(=O)C(O)(CO)CO	CC(=O)C(O)(CO)CO	
InChI=1S/C5H10O4/c1-4(8)5(9,2-6)3-7/h6-7,9H,2-3H2,1H3	InChI=1S/C5H10O4/c1-4(8)5(9,2-6)3-7/h6-7,9H,2-3H2,1H3
