20
gdb 87582	2.49139	1.56647	1.33637	2.6369	78.96	-0.2404	0.0836	0.324	1067.1222	0.170736	-403.083508	-403.075011	-403.074066	-403.116283	33.21	
C	-0.2183294629	 1.4244183942	 0.0907411502	-0.314222
N	-0.0425027265	-0.0203688163	 0.1872949441	-0.141942
C	 1.2907463284	-0.5421425681	-0.1450879635	-0.337749
C	 0.805193716	-0.5442601591	 1.2503635016	 0.334168
C	 1.3308006767	 0.1579956648	 2.4809499896	-0.157583
C	 0.2025577876	 0.332564096	 3.4700390425	-0.288327
C	 0.8340364697	-1.0178224448	 3.3462028779	-0.060254
C	 0.3225392416	-1.7441493539	 2.0886675966	 0.056878
O	-1.0508510139	-2.0190573014	 1.9933259768	-0.448442
H	 0.6721052554	 1.9947171988	 0.3962460475	 0.106967
H	-0.4573299257	 1.687307475	-0.9442859828	 0.125778
H	-1.0552211503	 1.7335134987	 0.7238542038	 0.127405
H	 1.3154833319	-1.4606867666	-0.7268224259	 0.118322
H	 2.0589488073	 0.1846489128	-0.4090171405	 0.108979
H	 2.2608802858	 0.7067783139	 2.5597017684	 0.090024
H	 0.4577783275	 0.887585123	 4.3667233951	 0.113412
H	-0.8157954468	 0.4809409676	 3.1237085616	 0.118274
H	 1.3442025033	-1.4968744551	 4.171780794	 0.088828
H	 0.9114478858	-2.6499236194	 1.8898310556	 0.07206
H	-1.3511228308	-1.5248915002	 1.2156746576	 0.287422
103.7364	151.1107	181.0247	195.4	240.7892	305.5669	422.1163	425.8278	481.3454	508.4438	585.9787	624.516	752.7818	788.3814	815.653	830.6462	901.2971	924.1199	940.6262	980.1628	1008.9151	1041.3353	1059.0611	1073.8328	1083.1677	1117.6408	1127.6984	1142.195	1158.6058	1193.2456	1208.528	1216.3683	1219.0373	1295.094	1333.7549	1371.0642	1396.2571	1439.38	1450.1587	1486.992	1492.2102	1494.9058	1515.8598	2987.4427	3009.1513	3075.1246	3084.2063	3108.3648	3124.2626	3169.9998	3184.9686	3196.9816	3212.5754	3706.7358
CN1CC11C2CC2C1O	CN1C[C@]21[C@H]1C[C@H]1[C@H]2O	
InChI=1S/C7H11NO/c1-8-3-7(8)5-2-4(5)6(7)9/h4-6,9H,2-3H2,1H3	InChI=1S/C7H11NO/c1-8-3-7(8)5-2-4(5)6(7)9/h4-6,9H,2-3H2,1H3/t4-,5+,6-,7+,8?/m1/s1
