18
gdb 92400	2.18052	1.65057	1.2658	2.8467	77.27	-0.2366	0.0074	0.244	1065.189	0.15002	-398.099779	-398.091674	-398.09073	-398.132356	31.383	
N	 0.5109773221	 1.1266660701	-0.6108068479	-0.508131
C	 0.170563773	-0.1038127701	 0.0455505203	 0.000631
C	 0.1840196392	-0.0953680444	 1.6049783855	-0.242926
C	-1.2114522101	-0.7774289334	 1.6569361033	-0.099971
C	-2.403508851	 0.1898340365	 1.795394604	-0.170199
N	-2.2395220991	 0.5880781926	 0.3682469587	-0.361071
C	-1.3390677063	-0.5683096115	 0.1039665431	 0.215869
C	-1.8164341639	-1.5618856358	-0.8279655853	 0.164346
N	-2.1827722332	-2.351039403	-1.5922792819	-0.343865
H	 0.5471789626	 1.0034522432	-1.6182262026	 0.232352
H	-0.2211663256	 1.8075607421	-0.4173481995	 0.236545
H	 0.7890685165	-0.91553711	-0.3474230629	 0.095231
H	 1.0006867099	-0.6621638855	 2.0551239594	 0.113903
H	 0.1906641994	 0.913646609	 2.0254858112	 0.113033
H	-1.2775653544	-1.7557052525	 2.126788747	 0.097084
H	-3.3445836889	-0.333591019	 2.0033335264	 0.110199
H	-2.2920210238	 1.0188391789	 2.5026637529	 0.109905
H	-3.0910494065	 0.5945033428	-0.1804114219	 0.237066
101.5374	126.5698	176.2244	252.9488	326.1779	342.5631	391.8569	487.8638	509.5253	553.3189	600.4073	642.4273	713.0716	791.6682	839.7099	873.8025	936.2213	950.0165	971.8397	1003.2394	1021.217	1037.586	1078.3853	1119.3755	1149.9793	1161.9516	1176.682	1188.8963	1253.8325	1261.19	1286.2498	1309.0861	1326.2832	1384.2952	1423.5055	1477.8659	1516.4007	1664.3417	2331.8165	3021.2306	3068.7069	3071.3522	3073.8257	3123.8238	3145.7588	3473.3185	3552.6719	3560.7335
NC1CC2CNC12C#N	N[C@H]1C[C@H]2CN[C@@]12C#N	
InChI=1S/C6H9N3/c7-3-6-4(2-9-6)1-5(6)8/h4-5,9H,1-2,8H2	InChI=1S/C6H9N3/c7-3-6-4(2-9-6)1-5(6)8/h4-5,9H,1-2,8H2/t4-,5-,6+/m0/s1
