19
gdb 51133	3.8283	1.05303	0.92668	2.6344	80.72	-0.231	-0.0208	0.2102	1276.1295	0.159013	-385.897904	-385.889653	-385.888709	-385.931523	31.34	
O	-0.6030872317	 0.5367946389	 0.4907974759	-0.241501
C	 0.226778744	 0.8903401582	-0.3063964173	 0.169188
C	 1.2624773439	 1.9707238193	-0.061625759	-0.379515
C	 1.2468097747	 3.0233378804	-1.1526242211	 0.34152
C	 2.0052230169	 2.775882006	-2.4362385031	-0.320509
C	 2.4711159018	 3.86673602	-1.4900067874	-0.134875
C	 1.9455653476	 5.2294701721	-1.7898915279	-0.067073
C	 0.6150898737	 5.2779067491	-1.6923234901	-0.083826
C	 0.0298640009	 3.9571825002	-1.2402659769	-0.328279
H	 0.2828636689	 0.4293650046	-1.3202170323	 0.074717
H	 1.0817801895	 2.404442665	 0.9273043964	 0.119616
H	 2.2459650032	 1.4800185888	-0.0425203841	 0.115977
H	 2.6025737477	 1.8704566826	-2.4885445345	 0.108219
H	 1.563786946	 3.0815825061	-3.3793448401	 0.115085
H	 3.4159911323	 3.7404622636	-0.9717154754	 0.087658
H	 2.5868348368	 6.0523610347	-2.0841513562	 0.097758
H	-0.0018343362	 6.1405359863	-1.916029834	 0.096697
H	-0.7356466018	 3.5825415817	-1.9324250282	 0.113813
H	-0.4649742081	 4.0520826724	-0.2633779548	 0.115329
49.2863	79.5137	152.9056	253.2937	310.3861	352.4195	385.5707	478.9585	494.7629	632.0624	720.354	745.6331	770.6075	804.2282	872.065	886.4292	926.6362	951.5062	961.4176	973.7584	1003.9295	1026.6887	1053.9823	1070.6021	1077.8278	1088.3307	1142.9723	1170.4259	1193.9571	1242.0485	1287.521	1304.5012	1325.0916	1369.8817	1394.1353	1426.4218	1455.5241	1471.7983	1488.055	1669.6787	1833.6957	2861.7079	3008.7158	3014.5385	3038.6697	3085.1737	3118.8903	3162.6073	3188.6325	3207.6335	3213.1359
O=CCC12CC1C=CC2	O=CC[C@]12C[C@H]1C=CC2	
InChI=1S/C8H10O/c9-5-4-8-3-1-2-7(8)6-8/h1-2,5,7H,3-4,6H2	InChI=1S/C8H10O/c9-5-4-8-3-1-2-7(8)6-8/h1-2,5,7H,3-4,6H2/t7-,8-/m1/s1
