19
gdb 56513	2.53945	1.25284	1.05182	3.507	81.22	-0.2543	0.0171	0.2715	1210.0997	0.156597	-382.048552	-382.038105	-382.037161	-382.083256	38.681	
C	-0.0441532645	 1.5811004533	 0.1167210139	-0.416273
C	 0.0057936425	 0.0419777282	 0.0479030564	 0.067879
C	 0.7176518171	-0.5396456178	 1.2865581964	-0.414741
C	-1.3684408964	-0.4797943702	-0.0030303436	 0.263133
N	-2.44496717	-0.8967477203	-0.0727005478	-0.348792
C	 0.7188360669	-0.4612127521	-1.2807413126	-0.168725
N	 0.0454706833	-0.135851013	-2.5336958155	-0.51595
C	 2.1010093479	 0.0174490967	-1.3260153491	 0.349601
C	 3.2293284829	 0.4295701002	-1.3600680058	-0.443551
H	 0.9736643606	 1.978252128	 0.1371550747	 0.13987
H	-0.5678788117	 2.001700843	-0.7456205319	 0.124578
H	-0.5675106097	 1.9078054426	 1.0186318021	 0.135542
H	 0.2053910245	-0.2391256374	 2.2041178674	 0.133497
H	 0.7402530208	-1.6326434638	 1.2516901587	 0.133801
H	 1.7459457259	-0.1721694537	 1.3217918238	 0.14081
H	 0.7400427398	-1.5569999598	-1.2082556378	 0.127731
H	-0.9225443318	-0.4425225291	-2.5006187887	 0.249921
H	 0.0550668981	 0.8644249509	-2.7017994081	 0.237224
H	 4.2325146538	 0.7758805143	-1.4040203525	 0.204445
70.4757	129.8151	171.6532	188.7797	214.6765	225.6142	249.2422	272.9967	327.4316	334.692	363.1561	415.5143	496.2695	566.4588	580.3358	611.1808	637.7224	659.2514	723.4435	827.0254	868.5652	936.1182	950.8014	961.8229	1031.1384	1114.6687	1166.0061	1200.0079	1205.9765	1237.0968	1337.3932	1396.6493	1408.1127	1420.4082	1483.9074	1485.5512	1500.0367	1508.4932	1651.7974	2238.147	2345.9352	3017.5835	3047.4786	3052.0713	3121.267	3125.6307	3132.5006	3135.3739	3498.2336	3502.8223	3590.9096
CC(C)(C#N)C(N)C#C	CC(C)(C#N)[C@@H](N)C#C	
InChI=1S/C7H10N2/c1-4-6(9)7(2,3)5-8/h1,6H,9H2,2-3H3	InChI=1S/C7H10N2/c1-4-6(9)7(2,3)5-8/h1,6H,9H2,2-3H3/t6-/m0/s1
