23
gdb 94572	2.88277	1.14717	0.90219	1.4321	85.39	-0.2495	0.0634	0.313	1366.0519	0.206774	-388.267324	-388.258269	-388.257324	-388.301347	34.982	
O	 0.4651445998	 0.817264119	-0.8076484395	-0.428557
C	 0.093842954	-0.2412964881	 0.0408918572	 0.152315
C	-0.0744020974	-0.001891077	 1.5637446665	-0.25757
C	-1.2600274648	-1.0059516137	 1.5397542524	-0.238456
C	-1.3553477461	-0.8301078236	-0.0077584948	-0.055374
C	-2.4256550158	 0.1505962743	-0.4571681957	 0.050693
C	-2.5682508836	 0.4781389419	-1.9738113064	-0.226948
C	-4.1093692745	 0.4625815746	-1.7973190618	-0.212664
C	-3.910661385	-0.3204794543	-0.471207821	-0.236212
H	-0.1469413923	 1.5453280301	-0.6609450903	 0.279443
H	 0.8280636826	-1.0307075746	-0.1457266645	 0.087939
H	 0.7789587062	-0.217024805	 2.2109138873	 0.098993
H	-0.4116578471	 1.0199832318	 1.7684159373	 0.09387
H	-0.9538679945	-2.0157159258	 1.8242442764	 0.101254
H	-2.148388063	-0.7395272877	 2.117363968	 0.098939
H	-1.4579080364	-1.7549499521	-0.5863195703	 0.056935
H	-2.3562942876	 1.084443559	 0.1180744637	 0.053315
H	-2.1014024945	 1.3908915896	-2.3516675004	 0.09114
H	-2.2204769088	-0.3591800384	-2.5869566571	 0.102756
H	-4.5082595733	 1.4655926939	-1.6188486861	 0.099191
H	-4.7064338553	-0.0101512004	-2.5806347323	 0.09628
H	-3.9766161907	-1.4022609992	-0.6280405615	 0.098972
H	-4.541230602	-0.0559606045	 0.3812854628	 0.093747
78.3792	106.9579	126.9148	158.3409	232.7984	294.8947	345.3558	364.5986	423.8859	552.4486	623.2428	666.0369	753.6264	763.5553	783.1806	890.5145	899.0897	923.2433	935.6456	937.802	951.5649	964.613	1000.1783	1007.3045	1039.898	1087.3798	1109.9066	1136.6834	1157.518	1202.7649	1210.6886	1229.743	1233.1142	1256.4889	1257.0583	1262.964	1271.7492	1272.9739	1291.4397	1294.0663	1315.8472	1324.7633	1406.651	1437.6625	1477.5075	1481.5881	1486.9762	1498.9705	1510.3914	2998.9057	3036.1705	3046.9394	3048.2812	3053.323	3057.4103	3062.3958	3068.6237	3094.5885	3101.2815	3102.3462	3115.8708	3117.6713	3820.6244
OC1CCC1C1CCC1	O[C@H]1CC[C@H]1C1CCC1	
InChI=1S/C8H14O/c9-8-5-4-7(8)6-2-1-3-6/h6-9H,1-5H2	InChI=1S/C8H14O/c9-8-5-4-7(8)6-2-1-3-6/h6-9H,1-5H2/t7-,8-/m0/s1
