22
gdb 91910	2.46957	1.44233	1.02109	1.2028	81.69	-0.2208	0.075	0.2959	1225.3399	0.195481	-404.333203	-404.324479	-404.323535	-404.366093	34.703	
C	-0.0237631652	 1.5734533297	 0.015288995	-0.392351
C	 0.0268696608	 0.0468895743	-0.0262433837	 0.056468
C	 0.5554446401	-0.492641372	-1.3680678154	-0.246506
C	 0.6927200168	-2.0142532473	-1.3137173204	 0.133721
O	 1.129847827	-2.5727435573	-2.5458288633	-0.443568
C	 1.7299170012	-2.4110186183	-0.263073753	-0.231799
C	 1.5538326764	-1.6662174907	 1.0620223712	-0.021453
C	 2.1860195883	-0.3260553848	 1.2465335865	-0.249497
N	 0.7359959837	-0.451102581	 1.1610376592	-0.084288
H	 0.9766328862	 2.002972141	-0.1050570713	 0.114373
H	-0.6565509007	 1.9619451986	-0.7888168873	 0.109917
H	-0.4269004843	 1.9151242407	 0.9724733082	 0.12472
H	-1.0007241268	-0.3291344447	 0.0845989951	 0.079739
H	-0.1446529661	-0.2039074565	-2.1633026485	 0.08333
H	 1.5259984812	-0.0501840898	-1.6267567942	 0.099884
H	-0.2858626561	-2.4396576646	-1.0308792201	 0.063561
H	 0.489362015	-2.3331361456	-3.2234201134	 0.277176
H	 1.6781935924	-3.4895916855	-0.0913058869	 0.107469
H	 2.7178480378	-2.2103265661	-0.6931360644	 0.113713
H	 1.4613943196	-2.3069239597	 1.9363374973	 0.089529
H	 2.5708451607	-0.0121525595	 2.2139638246	 0.109655
H	 2.7393619219	 0.0698332091	 0.3959733248	 0.106207
101.4373	164.5133	226.4874	241.5129	271.1899	293.9006	362.5442	394.9553	426.5809	441.2429	471.2318	547.0327	647.7554	705.4645	815.2442	874.1723	884.6921	907.3843	930.5636	955.4897	991.7844	1028.2694	1063.3683	1082.3044	1113.3958	1118.8811	1123.7451	1139.4034	1160.4423	1174.0981	1198.2376	1234.492	1282.8241	1295.4972	1328.8894	1334.2038	1368.7788	1375.9079	1396.0107	1401.3576	1406.8697	1437.2832	1483.8497	1488.9724	1494.9715	1501.1706	1519.6142	2946.2866	2992.6373	3015.7166	3036.3355	3043.1842	3059.0984	3088.2018	3090.166	3104.1182	3118.1915	3121.9083	3169.3002	3813.0696
CC1CC(O)CC2CN12	C[C@H]1C[C@@H](O)C[C@H]2CN12	
InChI=1S/C7H13NO/c1-5-2-7(9)3-6-4-8(5)6/h5-7,9H,2-4H2,1H3	InChI=1S/C7H13NO/c1-5-2-7(9)3-6-4-8(5)6/h5-7,9H,2-4H2,1H3/t5-,6-,7+,8?/m0/s1
