21
gdb 108312	3.12871	1.22154	1.0608	1.1691	77.74	-0.2437	0.0646	0.3083	1225.2321	0.18166	-424.196422	-424.187243	-424.186299	-424.231122	34.631	
C	-0.1132522951	 1.4998312102	 0.1010963881	-0.382689
C	-0.1523708333	-0.026923098	-0.0401907981	-0.273092
C	 0.6884773574	-0.5155069567	-1.194539633	 0.469554
C	 0.2678035314	-0.2408829952	-2.658300665	-0.324474
C	 0.6394693737	-1.7133883107	-3.0280726786	 0.136905
O	 1.5998701153	-1.9302316478	-4.0317401365	-0.430316
C	 1.0261363629	-2.0020905683	-1.5398145746	-0.175483
C	 2.4598341127	-1.6219947413	-1.1734571033	-0.102739
O	 2.1084828918	-0.2262834001	-1.0198920803	-0.337181
H	 0.9170036482	 1.8427765932	 0.2299884846	 0.138346
H	-0.5242122341	 1.9926252375	-0.7865164	 0.116995
H	-0.6958653419	 1.8292276214	 0.9662032363	 0.112056
H	 0.2108783494	-0.494720436	 0.8829150732	 0.100458
H	-1.1846485629	-0.3699646895	-0.1862653983	 0.094921
H	-0.7915197894	-0.0070230601	-2.7984475844	 0.102224
H	 0.8691745805	 0.5284767949	-3.1502572673	 0.104731
H	-0.2327430539	-2.2990796369	-3.3289778354	 0.09359
H	 2.308172978	-1.288475047	-3.9145613555	 0.287752
H	 0.5792974256	-2.8734922391	-1.0621011204	 0.072628
H	 2.8145456818	-2.0524084243	-0.2284262458	 0.102257
H	 3.2286403017	-1.7837728161	-1.9398052757	 0.093556
26.7592	91.3409	156.4913	212.9696	254.8251	301.1044	330.9103	340.3267	391.2982	429.103	557.3945	631.8047	657.7608	770.7484	782.0632	830.1346	908.254	923.0407	955.2073	970.5819	998.1346	1002.9926	1016.0181	1061.5961	1070.1839	1105.862	1142.3825	1149.3477	1171.3535	1190.3587	1214.199	1253.9941	1288.1262	1293.5041	1321.4643	1324.8686	1350.7589	1379.3145	1404.9407	1434.7228	1456.6823	1475.583	1497.911	1509.3857	1531.3125	3009.4333	3022.629	3039.4363	3047.1002	3051.7021	3059.7304	3075.5866	3106.3489	3110.8523	3115.6126	3121.4898	3812.3092
CCC12CC(O)C1CO2	CC[C@]12C[C@@H](O)[C@H]1CO2	
InChI=1S/C7H12O2/c1-2-7-3-6(8)5(7)4-9-7/h5-6,8H,2-4H2,1H3	InChI=1S/C7H12O2/c1-2-7-3-6(8)5(7)4-9-7/h5-6,8H,2-4H2,1H3/t5-,6-,7+/m1/s1
