14
gdb 25850	3.96109	1.29801	0.97764	3.6815	71.56	-0.2475	-0.0693	0.1782	1114.7582	0.103718	-432.951692	-432.944348	-432.943404	-432.983823	27.281	
N	-0.0753785246	 1.322702888	 0.0081471262	-0.538333
C	 0.0544300999	-0.0250923782	 0.0019862915	 0.355704
O	 1.1166450284	-0.6223246983	-0.0086568116	-0.35959
C	-1.2608714624	-0.7648506538	 0.0096973214	 0.209615
N	-2.39810056	-0.0620122201	 0.0207405047	-0.317591
C	-3.5310075614	-0.7628667367	 0.0271160597	-0.025308
C	-3.5278433088	-2.1569254711	 0.0225042878	-0.002881
N	-2.3964634921	-2.8650071293	 0.0114866199	-0.243172
C	-1.2634778163	-2.1615589247	 0.0051005073	-0.019906
H	 0.7519158765	 1.893918375	 0.0025454798	 0.265194
H	-0.993999131	 1.7344004399	 0.0158076992	 0.274207
H	-4.4629578318	-0.2041347911	 0.0360925582	 0.123706
H	-4.4610365253	-2.7139225979	 0.027837756	 0.125866
H	-0.322074641	-2.6996170118	-0.0039234802	 0.15249
77.5661	156.2528	215.0413	279.5648	378.4059	394.778	457.026	495.2461	609.1506	631.4631	648.9495	747.5147	805.3776	807.438	894.5177	993.1096	1008.5786	1037.4233	1073.4323	1092.4332	1186.4737	1196.3654	1244.6715	1315.9762	1374.1847	1439.9515	1501.6865	1580.023	1591.224	1616.6341	1791.7524	3160.0113	3178.1383	3205.2046	3598.8403	3742.6437
NC(=O)C1=NC=CN=C1	NC(=O)c1nccnc1	
InChI=1S/C5H5N3O/c6-5(9)4-3-7-1-2-8-4/h1-3H,(H2,6,9)	InChI=1S/C5H5N3O/c6-5(9)4-3-7-1-2-8-4/h1-3H,(H2,6,9)
