23
gdb 112736	2.3644	1.20339	0.92452	1.6771	85.61	-0.2541	0.072	0.3261	1367.49	0.204988	-388.264969	-388.255185	-388.254241	-388.299705	37.242	
C	-0.8850597205	 0.9892261782	-1.0719265208	-0.410716
C	 0.0978196627	-0.1362544505	-0.7872104798	-0.03054
C	 1.5546092247	 0.0026135626	-1.3225558623	-0.267546
C	 2.0969204679	-0.5187401092	 0.0442043613	-0.068848
C	 3.2805591587	 0.2164071856	 0.6533952573	-0.083267
O	 4.4889973727	-0.0171294755	-0.056477644	-0.422462
C	 0.6899918111	-0.294756072	 0.6275802022	 0.344545
C	 0.3473262557	 0.5496001526	 1.8267954496	-0.323661
C	 0.0629282376	-0.9350370215	 1.827003373	-0.327517
H	-0.4782504561	 1.9577259659	-0.7615837213	 0.113783
H	-1.1113137491	 1.0477382417	-2.1423826002	 0.113939
H	-1.834125713	 0.8396438804	-0.5441487678	 0.113454
H	-0.3323187029	-1.0901168795	-1.1166229935	 0.071568
H	 1.8112486125	-0.5674825875	-2.2185621458	 0.097297
H	 1.818832493	 1.0544333068	-1.48741777	 0.090667
H	 2.3388073831	-1.5864334091	-0.0110510098	 0.07611
H	 3.0559300298	 1.2938128674	 0.7156747122	 0.082686
H	 3.4680549647	-0.1349473235	 1.6747932557	 0.105549
H	 4.3542589787	 0.2829336174	-0.9613461147	 0.283504
H	 1.1519362858	 0.9156122124	 2.4561935747	 0.113117
H	-0.4945728116	 1.2302372852	 1.7504532066	 0.110707
H	-0.9717691119	-1.2564237052	 1.7512180947	 0.107916
H	 0.6808977964	-1.5743179627	 2.4505108429	 0.109713
53.6865	99.0228	154.7457	205.0943	224.6351	237.3156	272.9432	330.6872	336.8624	419.9804	455.3951	502.5998	533.5231	713.3672	778.322	808.8423	865.7563	881.0488	888.977	918.0509	956.2243	965.237	990.1033	1047.669	1052.6287	1076.762	1077.5348	1102.9262	1112.6339	1149.0592	1177.2625	1189.3713	1218.9311	1228.1148	1250.2362	1280.3394	1286.552	1342.2929	1359.9828	1371.8899	1395.4136	1407.8117	1423.006	1464.914	1484.9813	1493.0974	1497.6188	1504.819	1509.1183	2969.3839	3020.8417	3023.9711	3029.5426	3038.2284	3058.9122	3087.2405	3094.9861	3100.5553	3115.6509	3126.4464	3193.4838	3210.9111	3811.5821
CC1CC(CO)C11CC1	C[C@H]1C[C@@H](CO)C21CC2	
InChI=1S/C8H14O/c1-6-4-7(5-9)8(6)2-3-8/h6-7,9H,2-5H2,1H3	InChI=1S/C8H14O/c1-6-4-7(5-9)8(6)2-3-8/h6-7,9H,2-5H2,1H3/t6-,7-/m0/s1
