16
gdb 67578	3.02763	2.01506	1.50605	2.4653	66.57	-0.2409	0.0715	0.3124	864.9666	0.125773	-437.779634	-437.773394	-437.77245	-437.809817	26.787	
O	-0.0989250088	 1.3700703483	 0.0017124455	-0.497863
C	-0.0555036418	-0.0040092503	-0.0152037175	 0.480904
C	-1.3488956077	-0.7597622152	 0.1867077051	-0.134634
N	-1.709226438	-1.5883174995	-0.9922149784	-0.335524
C	-0.8844544314	-2.1652236516	 0.1015769276	-0.070607
C	 0.6080013079	-2.0034276122	-0.1389307004	-0.049129
C	 0.8108461478	-0.7758432463	-1.0652306933	-0.022192
O	 2.0439584059	-0.3799935654	-0.348727574	-0.344979
C	 1.1147139261	-0.7938874864	 0.7101279524	-0.030418
H	 0.8122543662	 1.663043067	-0.1459726024	 0.288518
H	-2.1090441211	-0.4093924773	 0.8740978304	 0.101302
H	-2.6695664304	-1.9103103664	-0.8809652782	 0.232458
H	-1.2836833589	-2.9576794879	 0.7232471269	 0.097301
H	 1.2626966507	-2.8624155125	-0.2663592026	 0.088843
H	 0.8101769134	-0.7161915991	-2.1512530959	 0.104235
H	 1.4719750302	-0.7533799452	 1.7404821649	 0.091783
266.8705	276.7647	305.1126	416.1696	497.0974	517.092	556.2708	687.1233	695.5872	707.0028	790.0819	811.0056	859.2367	861.5919	885.0086	900.8362	912.0122	924.0492	982.4565	1023.503	1047.4318	1074.9819	1106.6926	1128.974	1139.0662	1151.0914	1174.7374	1196.1827	1228.9569	1261.019	1302.7023	1309.2271	1355.7102	1403.7686	1448.6582	3106.5464	3145.7083	3155.4283	3182.1933	3193.7925	3483.0235	3737.0864
OC12C3NC3C3C1OC23	O[C@@]12[C@H]3N[C@H]3[C@H]3[C@@H]1O[C@@H]23	
InChI=1S/C6H7NO2/c8-6-3-2(7-3)1-4(6)9-5(1)6/h1-5,7-8H	InChI=1S/C6H7NO2/c8-6-3-2(7-3)1-4(6)9-5(1)6/h1-5,7-8H/t1-,2-,3-,4-,5+,6-/m0/s1
