20
gdb 91712	2.52861	1.60694	1.45565	3.88	77.5	-0.2317	0.0343	0.266	1022.0799	0.174516	-403.207759	-403.200233	-403.199289	-403.23944	30.758	
C	-0.1758924206	 1.5548508287	 0.0134653234	-0.421714
C	 0.0237436595	 0.0409375596	 0.0043864652	 0.050623
C	 0.8946715193	-0.4961643226	-1.1825392599	-0.242899
C	 1.9964790157	-1.3476922116	-0.4741707328	-0.130892
C	 1.2067091766	-1.9260023163	 0.7175884985	-0.226062
C	 0.7986507099	-0.5305927479	 1.2298236324	-0.018018
N	 2.1268258299	 0.0886614321	 1.3140226937	-0.292818
C	 2.885816077	-0.3113592003	 0.2284671992	 0.407936
O	 3.9643876607	 0.1235487446	-0.103723426	-0.389976
H	 0.7828735124	 2.0833855424	 0.0397710572	 0.120436
H	-0.7048168402	 1.8833841928	-0.8868649948	 0.121497
H	-0.7656176734	 1.8762900643	 0.8794698755	 0.110771
H	-0.9613998443	-0.4393434261	-0.0179236744	 0.075116
H	 0.307848772	-1.1244083804	-1.8582348234	 0.102927
H	 1.3303274443	 0.3107251964	-1.77841216	 0.117415
H	 2.549091935	-2.0267403741	-1.1198530806	 0.084032
H	 0.3523716388	-2.5385486764	 0.4174636082	 0.100229
H	 1.8246029479	-2.4737681768	 1.4325889803	 0.110228
H	 0.2665289224	-0.4836659062	 2.180934882	 0.073656
H	 2.298604017	 0.9820016478	 1.7491971263	 0.247516
109.0522	201.7491	246.4318	274.3488	376.7435	443.4611	465.1308	486.0517	507.0441	589.1316	714.0403	742.6896	774.0877	830.8475	842.0552	880.1122	917.1213	946.606	957.2704	964.4229	1000.412	1021.1887	1057.1973	1081.7557	1110.7799	1149.3049	1171.8857	1193.4074	1233.3888	1237.1202	1282.2619	1293.411	1298.8471	1329.0675	1362.8143	1371.1346	1400.3149	1413.6565	1490.8804	1498.5673	1502.9083	1505.8672	1841.5559	3028.9997	3031.6869	3057.4507	3064.2229	3094.4133	3101.5809	3103.3174	3108.1727	3121.602	3144.7844	3631.4259
CC1CC2CC1NC2=O	C[C@H]1C[C@@H]2C[C@H]1NC2=O	
InChI=1S/C7H11NO/c1-4-2-5-3-6(4)8-7(5)9/h4-6H,2-3H2,1H3,(H,8,9)	InChI=1S/C7H11NO/c1-4-2-5-3-6(4)8-7(5)9/h4-6H,2-3H2,1H3,(H,8,9)/t4-,5+,6+/m0/s1
