19
gdb 105388	1.88952	1.24882	0.90478	2.2739	72.45	-0.2537	-0.0286	0.2251	1346.7448	0.155543	-460.14844	-460.138225	-460.137281	-460.185021	35.7	
C	 1.3000470955	 1.6164821322	 2.3634534583	-0.431369
C	 0.4375189882	 0.5692348907	 1.7068007385	 0.03266
O	 0.6647098696	 0.2850424779	 0.3168843979	-0.305262
C	 0.8642606798	-0.7750560983	 1.2712623211	 0.323145
C	 2.3030258554	-1.251203174	 1.3387033953	-0.133187
O	 2.6528272611	-1.94544095	 0.1523078271	-0.414727
C	-0.1830995191	-1.8858183463	 1.1819708005	-0.349973
C	-0.4566475217	-2.526606105	 2.5255393229	 0.156787
O	-1.5238868981	-2.5067292274	 3.0830346736	-0.236208
H	 2.3505691424	 1.5265770015	 2.0831336476	 0.130757
H	 0.9573019133	 2.613772138	 2.06901611	 0.136859
H	 1.2182591772	 1.5450921414	 3.4532493053	 0.131852
H	-0.6233677059	 0.6570768002	 1.95263561	 0.101484
H	 2.9782554608	-0.4066215556	 1.5187418903	 0.098904
H	 2.4343887298	-1.9645386024	 2.1596809462	 0.114694
H	 2.5226462919	-1.3272039248	-0.5765362892	 0.296409
H	-1.1176939276	-1.4803562932	 0.7895155721	 0.131221
H	 0.1977814665	-2.6510298369	 0.4933668666	 0.138015
H	 0.418189471	-3.033140368	 2.9950787659	 0.07794
39.9212	53.0057	81.1637	147.9229	169.0269	213.9646	258.0778	268.8751	375.8006	417.807	446.5632	483.1536	521.4756	565.8838	714.5549	780.7689	859.7011	903.4154	947.9917	986.49	998.2049	1061.6741	1076.3383	1090.4528	1119.6303	1159.9766	1184.3032	1217.5829	1269.71	1291.6792	1349.7011	1389.5288	1409.2349	1426.4753	1433.3339	1463.7961	1467.5039	1490.4589	1496.1095	1511.8838	1831.2465	2861.9771	3030.6766	3037.3183	3043.7523	3078.6533	3083.5906	3103.745	3124.2178	3141.2676	3796.1114
CC1OC1(CO)CC=O	C[C@H]1O[C@]1(CO)CC=O	
InChI=1S/C6H10O3/c1-5-6(4-8,9-5)2-3-7/h3,5,8H,2,4H2,1H3	InChI=1S/C6H10O3/c1-5-6(4-8,9-5)2-3-7/h3,5,8H,2,4H2,1H3/t5-,6+/m1/s1
