17
gdb 49113	3.11941	1.3341	1.00194	3.8439	79.94	-0.2453	-0.0638	0.1815	1158.887	0.136256	-421.810525	-421.80281	-421.801866	-421.843078	28.874	
O	-0.0705358166	 0.1159054936	 0.2718852163	-0.274537
C	 0.0295751744	 1.3101888058	 0.0795850509	 0.067766
C	 1.2952470819	 1.9974742842	-0.1347421974	 0.067654
C	 1.5148095806	 3.3086940304	-0.3032850562	 0.130438
C	 1.0697013493	 4.6634270523	 0.1932718058	-0.316038
C	 2.4885127319	 4.705969093	 0.8828044142	-0.253514
C	 2.9655608687	 3.6064302845	-0.1485582275	 0.103507
O	 3.5938071216	 2.4029820893	 0.2239600033	-0.280072
C	 2.6596462877	 1.3261711182	-0.0119350971	-0.162906
H	-0.8680698278	 1.9661897487	 0.0506194828	 0.068709
H	 0.9921114221	 5.4140777994	-0.5980706499	 0.130408
H	 0.1788615553	 4.7056689109	 0.8204196863	 0.129116
H	 3.0160689752	 5.6614690665	 0.8661807097	 0.115318
H	 2.4561157958	 4.2987856192	 1.8940886337	 0.130373
H	 3.4722585553	 4.0753649989	-1.0034143818	 0.092771
H	 2.6846702446	 0.6346005329	 0.8365538746	 0.134456
H	 2.95257033	 0.7650636721	-0.9108431477	 0.116549
95.0753	146.5558	166.1457	211.307	278.2101	371.2965	415.1599	511.1011	631.2632	696.5854	706.8839	774.599	797.5681	874.9643	909.468	952.8803	979.327	997.9675	1041.8075	1056.8287	1088.9121	1120.6383	1127.4043	1168.7567	1187.5334	1211.6162	1240.0917	1262.1029	1288.7673	1355.3378	1375.946	1417.1271	1468.4805	1482.2121	1518.1203	1709.2908	1770.2214	2886.6103	3002.3476	3008.479	3069.4492	3072.5495	3077.5385	3131.8194	3153.2125
O=CC1=C2CCC2OC1	O=C[C]1[C]2CC[C@H]2OC1	
InChI=1S/C7H8O2/c8-3-5-4-9-7-2-1-6(5)7/h3,7H,1-2,4H2	InChI=1S/C7H8O2/c8-3-5-4-9-7-2-1-6(5)7/h3,7H,1-2,4H2/t7-/m1/s1
