19
gdb 23168	2.17116	1.28743	0.93496	2.5791	77.08	-0.2354	0.0001	0.2355	1298.6807	0.157522	-456.266792	-456.257234	-456.25629	-456.301323	34.896	
C	-0.0194778007	 1.3786808583	 0.0365928345	-0.330663
N	 0.0811567771	-0.0658981055	 0.0890722188	-0.098618
C	-1.1672858422	-0.843502613	 0.3175253746	-0.268507
C	-0.4087656089	-1.6495231873	 1.3453055957	 0.42616
N	-0.5819927238	-2.6957660131	 2.0290892358	-0.239566
O	-1.8396790409	-3.2658751523	 1.7704569257	-0.390204
C	 0.7602701067	-0.6882804259	 1.2682888428	-0.09431
C	 2.1496013913	-1.2271051668	 0.9287426642	-0.065107
O	 2.1433024848	-1.9114245172	-0.3011311706	-0.420827
H	 0.9812747742	 1.817766729	-0.0227961495	 0.129356
H	-0.5702340576	 1.6796469247	-0.8603253104	 0.128713
H	-0.5331032254	 1.8088618926	 0.9155867337	 0.100438
H	-1.9865378346	-0.2554095632	 0.7605975287	 0.115845
H	-1.5484568422	-1.3747748802	-0.5604139235	 0.133635
H	-1.824652196	-4.0540825154	 2.3240906763	 0.309947
H	 0.8083995765	-0.0231520573	 2.1458615013	 0.082497
H	 2.8644237968	-0.3853704798	 0.9224556123	 0.081819
H	 2.4695879006	-1.9275267406	 1.707598872	 0.120908
H	 1.5737857843	-1.3765527571	-0.8742531925	 0.278482
81.6535	99.9496	142.7264	177.1333	207.3531	238.2102	289.5854	322.1755	376.2595	388.0148	486.1923	526.9818	539.724	640.9973	706.5636	795.9615	849.0089	953.3865	975.2035	990.8	1017.1868	1035.5581	1111.5001	1123.0669	1153.284	1169.1443	1191.1092	1212.8076	1232.7586	1290.008	1301.5307	1329.8119	1382.7959	1416.8918	1442.2217	1455.1881	1484.0894	1498.2956	1500.0157	1502.5287	1813.2852	2943.4087	2947.147	2975.6141	2986.7129	3065.1673	3069.9826	3073.6381	3106.0252	3709.4137	3816.0764
CN1CC(=NO)C1CO	CN1CC(=NO)[C@H]1CO	
InChI=1S/C5H10N2O2/c1-7-2-4(6-9)5(7)3-8/h5,8-9H,2-3H2,1H3	InChI=1S/C5H10N2O2/c1-7-2-4(6-9)5(7)3-8/h5,8-9H,2-3H2,1H3/t5-/m1/s1
