20
gdb 42405	5.04633	0.80687	0.76897	3.2502	81.76	-0.2395	0.0312	0.2707	1554.6379	0.171079	-403.155389	-403.146198	-403.145253	-403.190538	33.832	
O	 0.1844127493	 0.3008521552	-1.0455350971	-0.390505
C	 0.0727926859	 1.272661628	-0.3172048826	 0.43492
N	 1.140381037	 1.8296881959	 0.3382728141	-0.349312
C	 2.4428049515	 1.2351624448	 0.314089613	 0.064713
C	 3.2968634419	 1.4034435548	-0.9120820217	-0.235153
C	 3.634712356	 2.1542209357	 0.3519212817	-0.29713
C	-1.2374320668	 1.9591580356	-0.0835752825	-0.128699
C	-2.2184524494	 1.970689714	-1.2405956455	-0.247961
C	-2.4754363304	 1.0816971775	-0.0678585272	-0.248395
H	 0.9578680972	 2.5351186199	 1.0342004904	 0.242604
H	 2.5244319975	 0.2853873461	 0.8373735333	 0.102767
H	 3.9214234177	 0.5688956019	-1.2079063085	 0.120318
H	 2.8692109	 1.9650973497	-1.7332980094	 0.12529
H	 3.4416770384	 3.2217104568	 0.3668688875	 0.112773
H	 4.4956284722	 1.8452629391	 0.9335490797	 0.118131
H	-1.2319251452	 2.8248909144	 0.5711732285	 0.073635
H	-2.8262640964	 2.8587925783	-1.3699020963	 0.111881
H	-1.8703968317	 1.5000107914	-2.1524273621	 0.139515
H	-2.2985349544	 0.0211495114	-0.2022184085	 0.138912
H	-3.2643133003	 1.3439544796	 0.6277435232	 0.111695
42.5754	60.416	104.9058	132.215	258.7844	268.1508	329.0674	375.6773	452.5761	481.0447	670.662	755.3216	763.5953	791.9422	827.9936	832.1905	837.0499	876.4992	920.5771	939.3198	1008.0391	1016.0242	1061.5021	1067.7127	1076.1454	1093.6881	1111.677	1120.588	1125.2677	1175.0042	1192.976	1208.8249	1216.0084	1228.0612	1272.8309	1393.3436	1410.7094	1450.4967	1462.0288	1484.6973	1498.1878	1517.9433	1769.8124	3127.8878	3135.3489	3141.264	3142.4267	3151.3783	3153.8741	3219.1589	3229.8677	3241.9874	3243.7377	3626.0655
O=C(NC1CC1)C1CC1	O=C(NC1CC1)C1CC1	
InChI=1S/C7H11NO/c9-7(5-1-2-5)8-6-3-4-6/h5-6H,1-4H2,(H,8,9)	InChI=1S/C7H11NO/c9-7(5-1-2-5)8-6-3-4-6/h5-6H,1-4H2,(H,8,9)
