17
gdb 125267	5.06138	1.19366	0.97749	2.8677	83.67	-0.1996	-0.0115	0.1881	1180.9939	0.138971	-380.905164	-380.897788	-380.896843	-380.936785	28.777	
C	-0.0202556066	 1.4678382804	 0.0270272971	-0.48635
C	-0.0000843699	-0.0255974848	-0.0181585991	 0.310064
C	-0.0330306436	-0.8109784597	-1.1198761919	-0.316223
C	 0.00549016	-2.1942889795	-0.6781874715	 0.39412
C	 0.062657721	-2.2767202187	 0.7016378083	 0.200777
C	 0.064074775	-0.8788085934	 1.2516601048	-0.4705
C	 0.0944234899	-3.6527020292	 0.9782647148	-0.161798
N	 0.0595101432	-4.3749196215	-0.148030521	-0.235345
N	 0.0051374809	-3.4582933005	-1.1514938446	-0.347245
H	 0.8750296477	 1.8670487851	 0.5209081587	 0.129168
H	-0.0696616372	 1.8964933342	-0.9776328907	 0.125803
H	-0.8812957507	 1.8410733026	 0.5963055327	 0.129117
H	-0.0797855278	-0.4629993018	-2.1437124591	 0.098878
H	 0.9624786894	-0.6391410914	 1.8360459947	 0.128266
H	-0.7909605468	-0.6652914922	 1.9069507622	 0.128271
H	 0.1405632477	-4.1694940543	 1.9259004574	 0.104976
H	-0.0285080025	-3.7869301156	-2.1007711028	 0.26802
133.3365	159.327	258.1577	268.5867	306.2121	447.5505	467.046	486.1115	518.2739	672.1438	721.3082	734.3637	796.0268	837.108	866.5427	880.0956	927.5838	980.2336	1008.1426	1052.9222	1088.6674	1149.7251	1153.7133	1153.9942	1219.0473	1239.8034	1309.9256	1334.7025	1396.1908	1411.3535	1434.4873	1462.1086	1476.8885	1485.9764	1558.7854	1567.7983	1644.8888	3014.2425	3024.4193	3049.4868	3059.438	3109.731	3213.4927	3241.0303	3680.1234
CC1=CC2=C(C1)C=NN2	CC1=Cc2c(C1)cn[nH]2	
InChI=1S/C7H8N2/c1-5-2-6-4-8-9-7(6)3-5/h3-4H,2H2,1H3,(H,8,9)	InChI=1S/C7H8N2/c1-5-2-6-4-8-9-7(6)3-5/h3-4H,2H2,1H3,(H,8,9)
