18
gdb 45618	3.97456	0.99353	0.85182	1.6523	80.48	-0.2347	-0.0222	0.2125	1341.445	0.148167	-401.953602	-401.94547	-401.944525	-401.987158	30.559	
O	 0.0039603206	 0.03941615	 0.2017644806	-0.299669
C	-0.033077859	 1.2382439331	 0.1322349393	 0.400391
C	-1.2799005644	 2.0945511294	-0.1341185978	-0.368749
C	-0.7436529664	 3.4966755277	-0.1039099782	-0.195783
C	 0.5740257207	 3.5612362051	 0.1342888775	 0.355546
C	 1.1715460854	 2.1819442833	 0.2992941966	-0.45371
C	 1.3509008071	 4.8122069256	 0.2207113323	-0.091908
C	 2.5544185995	 4.9316158138	 1.0955873471	-0.246811
N	 2.709343575	 4.9243375227	-0.362254608	-0.319579
H	-1.7299943438	 1.8103300689	-1.0947022383	 0.139855
H	-2.0435408994	 1.8906513475	 0.6282534802	 0.139156
H	-1.3724719099	 4.3665332132	-0.2589417921	 0.099242
H	 1.6361144318	 2.0120157028	 1.2788022916	 0.140425
H	 1.9339643517	 1.9294673619	-0.4495337551	 0.136342
H	 0.7564044298	 5.7098913293	 0.0674203161	 0.091952
H	 2.7669159902	 5.8824349756	 1.576159918	 0.125427
H	 2.8675604421	 4.0593867835	 1.6625410015	 0.114898
H	 3.0288881289	 4.0090098667	-0.6706061215	 0.232976
62.9102	71.0776	169.0614	182.8353	331.1877	392.9832	463.9116	474.6884	533.1781	569.9084	667.1746	788.6746	800.0995	818.8515	841.9464	864.9982	901.6541	957.5935	979.2019	1002.3287	1005.5527	1080.9279	1126.7951	1128.6414	1143.5305	1163.3336	1187.7196	1215.9289	1249.0009	1272.6081	1287.4574	1297.5536	1366.9954	1409.5824	1441.9291	1446.6833	1505.847	1695.7964	1856.3002	3020.9081	3024.3578	3047.0628	3054.4172	3111.9882	3134.3573	3191.0456	3196.9972	3500.4185
O=C1CC=C(C1)C1CN1	O=C1CC=C(C1)[C@H]1CN1	
InChI=1S/C7H9NO/c9-6-2-1-5(3-6)7-4-8-7/h1,7-8H,2-4H2	InChI=1S/C7H9NO/c9-6-2-1-5(3-6)7-4-8-7/h1,7-8H,2-4H2/t7-/m1/s1
