23
gdb 113309	2.42384	1.01489	0.82468	0.8932	93.76	-0.2357	0.0572	0.2928	1536.8466	0.203033	-351.122094	-351.111292	-351.110348	-351.157942	40.042	
C	 0.3214349118	 1.5181707129	 0.1710017936	-0.37459
C	-0.1862453845	 0.1042705073	-0.1406943136	-0.208501
C	 0.5648088098	-0.5237487013	-1.297614484	-0.029283
C	 1.8428054301	-1.2890186721	-1.0964078648	-0.318355
C	 0.5950436917	-2.0291981259	-1.5730280927	 0.12507
C	-0.07958431	-3.0239697046	-0.6293189544	-0.253127
C	 0.5778407197	-4.4081882958	-0.6475015491	-0.380387
C	 0.5550993567	-2.4076907855	-2.9630430111	 0.291645
C	 0.502601736	-2.728882773	-4.1221005135	-0.469755
H	 1.3832708472	 1.5048122111	 0.4381158703	 0.119266
H	 0.2063720982	 2.1792779059	-0.6947602713	 0.116754
H	-0.2316296456	 1.9610841001	 1.0050201952	 0.111593
H	-0.0919759786	-0.5157300683	 0.7569836614	 0.098463
H	-1.2574414154	 0.1444748596	-0.3767289907	 0.102419
H	 0.530136332	 0.0729227498	-2.2058189976	 0.093913
H	 2.6586580436	-1.1556166488	-1.7968153646	 0.120416
H	 2.1521575524	-1.4874250967	-0.0741073332	 0.110753
H	-0.0572673275	-2.6256294483	 0.3895103197	 0.095517
H	-1.1368368035	-3.1148363676	-0.9063346604	 0.104436
H	 0.0604131233	-5.0934317822	 0.0308586004	 0.108625
H	 0.5530060074	-4.8397969211	-1.6521902795	 0.132219
H	 1.6258544225	-4.3498520756	-0.335120331	 0.114475
H	 0.4616205528	-3.0089786599	-5.1452133991	 0.188432
64.4552	90.9579	128.5391	134.8714	157.8362	212.1444	235.6114	261.6252	306.7751	335.7769	408.1478	458.8717	542.2434	569.3202	620.1415	641.4075	656.113	767.8516	793.8269	811.6322	887.8515	923.0872	940.2126	958.585	1001.686	1035.6866	1061.64	1066.227	1097.5306	1122.4711	1138.6392	1197.817	1248.237	1282.3405	1300.9066	1321.3923	1348.9359	1363.9526	1407.986	1409.299	1427.6833	1477.6292	1480.7083	1492.8006	1495.6123	1497.4582	1507.256	1508.8675	2227.0794	3024.3639	3032.5507	3034.2814	3037.2446	3064.2424	3081.1577	3102.3753	3104.9419	3105.9195	3117.3555	3126.612	3139.1629	3219.5654	3503.4895
CCC1CC1(CC)C#C	CC[C@H]1C[C@]1(CC)C#C	
InChI=1S/C9H14/c1-4-8-7-9(8,5-2)6-3/h2,8H,4,6-7H2,1,3H3	InChI=1S/C9H14/c1-4-8-7-9(8,5-2)6-3/h2,8H,4,6-7H2,1,3H3/t8-,9+/m0/s1
