20
gdb 81956	2.5033	1.66552	1.26884	2.6569	74.01	-0.2243	0.046	0.2703	1056.9853	0.171867	-440.261369	-440.252921	-440.251977	-440.293827	33.55	
C	 0.0372559176	 1.6273180908	 0.0856496027	-0.389856
C	 0.1083949412	 0.1085808672	 0.0014007908	 0.035705
C	 0.8258245094	-0.4521118521	-1.2495116486	 0.041846
O	 1.8878051771	 0.3775446801	-1.6820648298	-0.429748
C	 1.3777710294	-1.8227471326	-0.7511576636	 0.063708
O	 2.6179396337	-2.1589931927	-1.3757960598	-0.43178
C	 1.5427404428	-1.6408734061	 0.7453848189	-0.030438
C	 2.2088282075	-0.4021107258	 1.2280938889	-0.254656
N	 0.7396913271	-0.4953220177	 1.2052221209	-0.109939
H	 1.0347030767	 2.0690680128	 0.0411173373	 0.1343
H	-0.5456958769	 2.0324314004	-0.7471966794	 0.114231
H	-0.4417835267	 1.9260196662	 1.022072901	 0.12067
H	-0.9138577574	-0.2930892944	-0.0107003426	 0.078249
H	 0.1094368453	-0.5892458983	-2.0738171568	 0.061487
H	 2.6157919346	-0.2292230811	-1.8879266022	 0.285292
H	 0.6398547171	-2.6134157585	-0.9374953623	 0.080338
H	 2.4278004043	-2.6309430334	-2.1932509464	 0.29376
H	 1.532320651	-2.5320953379	 1.366185757	 0.087427
H	 2.6374448028	-0.3973482929	 2.2262859893	 0.112364
H	 2.7053037634	 0.2351255261	 0.5058314147	 0.137041
115.195	197.2349	212.9767	239.4099	293.3452	296.8168	313.3805	414.0094	469.843	480.6045	574.8003	600.5899	673.0826	732.5148	793.0118	825.0898	867.388	884.5115	918.0892	992.0684	1008.9132	1026.5099	1074.478	1098.1237	1121.1659	1122.8733	1149.2332	1170.0945	1185.2231	1219.7787	1239.2426	1273.6669	1321.6453	1347.618	1361.661	1384.405	1389.6177	1406.0027	1414.0612	1431.7132	1488.5999	1497.0202	1499.8988	2973.4702	3013.2635	3025.4328	3048.2675	3115.3574	3121.0196	3136.8997	3148.3772	3221.185	3695.5748	3816.6312
CC1C(O)C(O)C2CN12	C[C@H]1[C@@H](O)[C@@H](O)[C@H]2CN12	
InChI=1S/C6H11NO2/c1-3-5(8)6(9)4-2-7(3)4/h3-6,8-9H,2H2,1H3	InChI=1S/C6H11NO2/c1-3-5(8)6(9)4-2-7(3)4/h3-6,8-9H,2H2,1H3/t3-,4+,5+,6-,7?/m0/s1
