17
gdb 14535	4.32767	1.57301	1.41659	4.3722	72.94	-0.2774	0.0353	0.3128	924.4514	0.14296	-326.715781	-326.708324	-326.707379	-326.747164	28.521	
C	-0.0327375018	 1.5351668779	 0.0119560119	-0.471107
C	 0.0718499293	 0.0170195605	 0.0431314882	 0.15838
C	-1.1000144401	-0.6367553179	-0.4966977793	 0.233624
N	-2.0470871369	-1.1387493983	-0.9325540222	-0.346116
C	 1.3486347069	-0.7734268261	-0.2224682902	-0.072412
C	 2.577697672	-0.0361153005	 0.3224052603	-0.253682
C	 1.9298795786	-0.0509593069	 1.7467054454	-0.253738
C	 0.7175393521	-0.7882784953	 1.1656375849	-0.072358
H	 0.8598216437	 2.008721274	 0.4226681067	 0.129882
H	-0.1615546703	 1.889444211	-1.0149692839	 0.138464
H	-0.893848521	 1.8721087661	 0.5964591888	 0.138464
H	 1.3578026403	-1.5491784615	-0.9778774569	 0.110476
H	 3.4762008298	-0.6543251118	 0.276989209	 0.117055
H	 2.8066935758	 0.9364157794	-0.1220946839	 0.107768
H	 2.4911537771	-0.6767479251	 2.4430592821	 0.117033
H	 1.7374853502	 0.9119088122	 2.2280909471	 0.107793
H	 0.1606889342	-1.5773593876	 1.655314032	 0.110474
152.7472	164.3409	170.8644	273.588	283.2842	375.4575	430.2904	553.5866	557.0749	654.3149	710.9008	787.2195	846.688	865.9239	931.2881	950.1127	966.3155	1013.65	1015.5119	1043.9885	1097.1676	1106.7707	1110.8811	1201.0023	1219.7611	1253.6227	1257.1917	1282.0093	1289.2901	1382.3024	1420.6957	1475.2464	1495.8621	1501.7016	1510.5617	2347.9654	3050.6815	3060.4795	3066.8666	3107.4253	3113.3028	3124.8444	3143.8766	3187.4954	3198.0067
CC1(C#N)C2CCC12	C[C@@]1(C#N)[C@H]2CC[C@@H]12	
InChI=1S/C7H9N/c1-7(4-8)5-2-3-6(5)7/h5-6H,2-3H2,1H3	InChI=1S/C7H9N/c1-7(4-8)5-2-3-6(5)7/h5-6H,2-3H2,1H3/t5-,6+,7+
