18
gdb 24676	3.62179	1.59508	1.14281	1.3178	86.65	-0.1977	0.0005	0.1982	1052.8264	0.15173	-364.870249	-364.863371	-364.862426	-364.90132	28.213	
C	-0.046204018	 1.4974730531	 0.0611614024	-0.262052
C	 1.3885947293	 2.0633574307	 0.0046696201	-0.323858
C	 2.2103819086	 1.3607934951	-1.0326784542	 0.328979
C	 3.2747849921	 1.722062381	-1.8216656459	-0.286911
C	 3.7058625012	 0.5589675464	-2.5304910989	-0.16537
C	 2.8945856488	-0.4786056647	-2.1494787199	-0.108243
N	 1.9809970923	 0.0108364752	-1.2379150733	-0.048626
C	 0.9237667016	-0.6728959887	-0.6281261389	 0.036515
C	-0.0429912058	-0.0115056449	 0.0109354051	-0.135043
H	-0.5491771248	 1.8512075587	 0.9668926875	 0.104789
H	-0.6318971639	 1.8857375717	-0.7856451774	 0.117131
H	 1.3740571727	 3.1393464143	-0.190609759	 0.11254
H	 1.853893278	 1.9308317557	 0.9928955462	 0.113887
H	 3.7080803725	 2.7094559974	-1.878675851	 0.092848
H	 4.517544021	 0.4990425139	-3.2390169463	 0.096028
H	 2.859299929	-1.5113183134	-2.4579835175	 0.116346
H	 0.9591151583	-1.7514849097	-0.724162124	 0.113703
H	-0.853995083	-0.5661000517	 0.4677214051	 0.097337
136.8126	173.1085	270.0809	384.3709	429.7485	506.6083	588.8173	615.8345	644.4689	695.5404	705.6451	737.3234	773.9711	794.0232	831.3232	890.2553	904.6271	923.4252	947.3032	1015.8296	1038.7603	1046.518	1100.5947	1163.8827	1181.0696	1207.2915	1229.8988	1263.3368	1316.5387	1347.7285	1357.0098	1375.6046	1435.2462	1458.1263	1477.5034	1485.38	1519.6251	1604.0666	1717.9134	2988.3169	3000.4268	3068.6594	3084.3021	3193.0505	3214.2915	3238.3224	3250.48	3268.802
C1CC2=CC=CN2C=C1	C1Cc2cccn2C=C1	
InChI=1S/C8H9N/c1-2-6-9-7-3-5-8(9)4-1/h2-3,5-7H,1,4H2	InChI=1S/C8H9N/c1-2-6-9-7-3-5-8(9)4-1/h2-3,5-7H,1,4H2
