20
gdb 61829	1.99271	1.41925	0.94129	3.0634	76.24	-0.2542	0.0245	0.2787	1290.203	0.168847	-440.297981	-440.287841	-440.286897	-440.333847	36.048	
C	-0.3868907492	 1.5261043752	-0.4173510036	-0.414908
C	 0.0629709377	 0.1439596751	 0.0589524257	 0.002104
N	 0.9579783666	 0.2716317104	 1.2077026331	-0.278743
C	 1.9577705364	-0.6062541977	 1.4808882592	 0.157379
O	 2.2395055664	-1.578913233	 0.811847407	-0.324343
C	-1.1365015957	-0.719470775	 0.4237316827	 0.075851
O	-2.0230866813	-1.0769927888	-0.6353773491	-0.267937
C	-1.3077891835	-2.1292278412	 0.0385942671	 0.076387
C	-0.3226773187	-2.9353683878	-0.7655556737	-0.414608
H	 0.4702264591	 2.1347851475	-0.7182982966	 0.124266
H	-1.0616701914	 1.417638696	-1.2693891516	 0.150687
H	-0.930246148	 2.0594177447	 0.372632838	 0.112634
H	 0.6368920216	-0.3474386353	-0.728963709	 0.116707
H	 0.8056848933	 1.0325403877	 1.8515171655	 0.246738
H	 2.5129043003	-0.3243654723	 2.39801507	 0.075892
H	-1.642762104	-0.3808889293	 1.3333491731	 0.075213
H	-1.947602648	-2.7225760577	 0.6954424122	 0.08836
H	 0.1761080756	-2.3219290717	-1.5177040929	 0.129667
H	 0.4449821298	-3.3589499379	-0.1127529815	 0.151249
H	-0.8398259069	-3.7506303688	-1.2818415654	 0.117404
37.7464	72.1635	136.0366	160.3777	199.1068	216.6225	232.9831	254.2572	365.8628	397.781	416.5534	466.0992	519.6889	561.519	772.0881	789.4816	824.8704	893.2109	940.6843	993.2538	1008.4612	1031.6758	1065.9052	1107.6051	1140.2008	1147.5486	1170.9691	1200.542	1219.2319	1300.0205	1320.6717	1331.102	1403.1585	1406.7731	1421.675	1430.6877	1461.2948	1489.158	1495.2655	1497.6273	1511.2417	1523.8357	1800.3571	2932.6989	3030.3995	3048.0627	3053.3091	3085.6242	3094.3665	3112.1237	3119.4593	3135.3801	3143.5993	3624.8066
CC(NC=O)C1OC1C	C[C@@H](NC=O)[C@H]1O[C@H]1C	
InChI=1S/C6H11NO2/c1-4(7-3-8)6-5(2)9-6/h3-6H,1-2H3,(H,7,8)	InChI=1S/C6H11NO2/c1-4(7-3-8)6-5(2)9-6/h3-6H,1-2H3,(H,7,8)/t4-,5+,6-/m1/s1
