20
gdb 106334	4.80321	0.91465	0.88664	4.654	85.57	-0.3051	0.0282	0.3332	1377.0096	0.171618	-365.992749	-365.984123	-365.983178	-366.026109	33.011	
C	-0.0351804603	 1.5239110655	 0.0414955167	-0.38379
C	 0.0323591041	-0.0043440413	-0.0598409234	-0.310053
C	 0.7409526012	-0.4934185684	-1.2965868749	 0.331537
C	 2.2203936935	-0.2118497802	-1.7234701617	-0.286346
C	 1.6265011925	-1.120713991	-2.8420865129	 0.220893
C	 0.9902795725	-1.9802172627	-1.7079197645	-0.299947
C	 0.3475742461	-0.2310540152	-2.7887645534	-0.286346
C	 2.3024788067	-1.5988332172	-4.0219341695	 0.156348
N	 2.845697119	-1.9810555673	-4.968842815	-0.35369
H	 0.966764824	 1.9647630143	 0.065383577	 0.121874
H	-0.5689932566	 1.9551272854	-0.8116907584	 0.121831
H	-0.5570205616	 1.8324765988	 0.9518081833	 0.119393
H	 0.5419045709	-0.412460645	 0.8227850001	 0.104251
H	-0.9827810964	-0.4221510207	-0.0470805196	 0.104257
H	 2.4686224778	 0.8101351359	-2.0190526327	 0.107703
H	 3.0052933117	-0.6587321848	-1.1082025535	 0.106073
H	 1.6867431362	-2.5536601086	-1.0911731846	 0.10613
H	 0.1133606346	-2.5699910694	-1.9861907284	 0.106124
H	-0.5753863894	-0.6954418914	-3.1448698684	 0.106065
H	 0.4589673336	 0.7894998134	-3.1623007762	 0.107693
80.4911	115.1401	139.5147	214.4516	220.8917	327.1225	384.9825	511.2009	517.7838	535.7801	570.4905	572.3728	627.5518	756.4554	814.7993	823.6894	925.8224	960.4363	968.4436	998.2534	999.9485	1019.828	1084.4878	1086.1154	1105.6411	1135.7565	1135.9082	1168.8275	1169.9671	1174.5408	1195.7771	1273.2308	1307.5266	1329.5959	1386.8923	1415.6667	1480.102	1497.8038	1498.1214	1500.8798	1506.506	1557.6066	2350.1131	3018.2887	3037.7759	3050.1622	3055.4041	3056.8622	3064.6279	3105.8492	3111.4169	3124.5324	3129.7491	3130.5258
CCC12CC(C1)(C2)C#N	CC[C@@]12C[C@@](C1)(C2)C#N	
InChI=1S/C8H11N/c1-2-7-3-8(4-7,5-7)6-9/h2-5H2,1H3	InChI=1S/C8H11N/c1-2-7-3-8(4-7,5-7)6-9/h2-5H2,1H3/t7-,8-
