19
gdb 91376	3.29719	1.15808	0.97028	2.9878	78.94	-0.2325	0.009	0.2415	1238.4012	0.159576	-423.00039	-422.99206	-422.991116	-423.033295	32.549	
O	-0.2596255711	 1.4269626208	-0.1089675231	-0.426314
C	-0.0158519949	 0.0501874848	-0.0016203638	 0.040945
C	 0.2620775965	-0.6027286949	 1.4173718963	-0.290568
C	-0.6876656319	-1.7796880892	 1.0050821526	-0.050581
C	-1.9525148664	-2.2372385213	 1.7589967707	-0.274124
C	-3.1269765148	-1.9347860739	 0.7651712588	 0.130535
O	-4.3363994802	-1.567070497	 1.4093980892	-0.431658
C	-2.5534971537	-0.8338018583	-0.1293637929	-0.303762
C	-1.2296040881	-0.833777174	-0.0346218895	 0.29028
H	 0.5836328586	 1.8793189784	-0.207703642	 0.286807
H	 0.7549491864	-0.281418533	-0.7138696765	 0.080038
H	 1.300395297	-0.8381127126	 1.665963771	 0.094506
H	-0.1810102778	 0.022746053	 2.1964583804	 0.111066
H	-0.1147766424	-2.6212749353	 0.6009142589	 0.077758
H	-1.932941922	-3.2816520962	 2.081873411	 0.099707
H	-2.1097909562	-1.6199554631	 2.6522689825	 0.093984
H	-3.396478204	-2.8317872786	 0.1928285523	 0.0938
H	-4.1738186168	-0.7356148963	 1.8699663427	 0.272534
H	-3.1899685184	-0.1362582033	-0.6600527887	 0.105048
83.8914	121.3427	219.2166	246.2304	296.8719	345.3603	385.8716	405.9437	488.2694	527.0726	581.5227	649.2779	664.5566	811.1977	833.4253	860.5733	871.6186	919.3802	950.4932	995.9254	1016.1572	1045.4054	1070.6684	1093.2482	1107.8469	1149.4712	1168.8593	1201.4803	1217.1352	1222.6126	1242.0869	1259.5315	1281.853	1308.9363	1324.6956	1336.0748	1427.5486	1436.808	1471.8771	1481.4605	1741.1939	2983.2515	3023.2997	3034.4142	3042.2249	3054.913	3097.9575	3123.6121	3210.0329	3787.5991	3825.4143
OC1CC2CC(O)C=C12	O[C@H]1C[C@H]2C[C@@H](O)[CH][C]12	
InChI=1S/C7H10O2/c8-5-1-4-2-7(9)6(4)3-5/h3-5,7-9H,1-2H2	InChI=1S/C7H10O2/c8-5-1-4-2-7(9)6(4)3-5/h3-5,7-9H,1-2H2/t4-,5-,7+/m1/s1
