17
gdb 33090	6.36526	0.78187	0.70407	2.1945	71.91	-0.1893	0.039	0.2283	1569.0847	0.13619	-455.175357	-455.166544	-455.1656	-455.209257	32.289	
C	-0.0681190117	 1.5278591142	 0.0094212121	-0.399773
C	-0.0573769065	 0.0087514128	-0.120120252	-0.114516
N	-1.3700753116	-0.5453924581	 0.1642303383	-0.389591
C	-1.5451223062	-1.9080714334	 0.0827555789	 0.329648
C	-0.6366977638	-2.9195765288	 0.0800566849	-0.158445
O	-1.3708950263	-4.116336543	 0.0448189717	-0.208278
C	-2.6446108172	-3.7044760831	 0.011875164	 0.479568
O	-3.5906807149	-4.6408421725	-0.0390307511	-0.402988
N	-2.8394143982	-2.4294623041	 0.0298873349	-0.406381
H	 0.927450609	 1.936768606	-0.1829331613	 0.122656
H	-0.7577255746	 1.9793797943	-0.7129985154	 0.119286
H	-0.3811353928	 1.8302068514	 1.0128535652	 0.132462
H	 0.3012015445	-0.2863612736	-1.1213885537	 0.094836
H	 0.6507736404	-0.4181531785	 0.6020618601	 0.112522
H	-2.1480523514	-0.0357501309	-0.2316581431	 0.241559
H	 0.4312252164	-3.014693423	 0.1129953304	 0.131267
H	-3.160102875	-5.5042817896	-0.0434733339	 0.316168
65.2584	98.2878	123.7606	240.5473	273.0149	337.8619	351.2784	357.3713	370.7261	516.1596	541.6253	550.7924	692.724	730.5588	752.56	785.044	821.3672	927.723	994.3852	1027.6116	1080.4673	1091.6453	1156.8719	1178.6888	1224.5918	1263.1871	1283.5839	1303.0171	1394.9037	1417.6059	1442.5885	1489.6361	1499.4099	1510.8908	1528.0725	1674.024	1702.8414	2954.0215	3029.0148	3038.3436	3105.0085	3123.8287	3324.1537	3589.2046	3816.2351
CCNC1=COC(O)=N1	CCNc1coc(O)n1	
InChI=1S/C5H8N2O2/c1-2-6-4-3-9-5(8)7-4/h3,6H,2H2,1H3,(H,7,8)	InChI=1S/C5H8N2O2/c1-2-6-4-3-9-5(8)7-4/h3,6H,2H2,1H3,(H,7,8)
