16
gdb 94136	1.93497	1.57897	1.23262	3.0578	75.2	-0.2746	-0.0023	0.2723	1098.2236	0.121964	-400.704182	-400.695114	-400.694169	-400.738139	32.764	
C	-0.4221316362	 1.4216859582	-0.0051015371	-0.413303
C	 0.1880901074	 0.0445768231	-0.0781125011	 0.138626
O	 1.4840313671	 0.0265591894	-0.7064922237	-0.278241
C	 2.0529930172	-0.7843055764	 0.3251020827	-0.090046
C	 0.7856666014	-0.6183684322	 1.2342404715	-0.118557
C	 0.9698038265	 0.2680918084	 2.3707284057	 0.29435
C	 1.1423206712	 1.0079851463	 3.3007487468	-0.426967
C	 0.1344945752	-1.8641223488	 1.6318308471	 0.245675
N	-0.3845619732	-2.857746048	 1.9121054248	-0.334214
H	 0.2302785692	 2.1135892513	 0.5314458046	 0.139027
H	-0.5770047665	 1.7977362389	-1.021007336	 0.138624
H	-1.3924330355	 1.3827573983	 0.4996894185	 0.133956
H	-0.4916987329	-0.6629464674	-0.5706180721	 0.099827
H	 2.22141976	-1.8200369076	 0.0080276352	 0.126383
H	 2.9708818871	-0.358839284	 0.7385240293	 0.132573
H	 1.2890760421	 1.6559721203	 4.1299892737	 0.212287
68.5502	128.1835	144.1369	159.6671	216.4481	228.4378	309.2222	407.4868	470.6276	510.0739	545.3805	582.3253	590.3105	650.241	659.6945	764.0595	886.9298	916.848	957.7219	1021.8012	1039.0702	1098.638	1122.6134	1159.6427	1170.3126	1229.1383	1298.742	1353.3794	1384.9606	1411.1324	1479.866	1486.553	1521.0562	2243.2068	2359.2457	3020.7337	3034.2782	3046.6258	3104.0951	3117.6428	3138.7402	3498.226
CC1OCC1(C#C)C#N	C[C@H]1OC[C@]1(C#C)C#N	
InChI=1S/C7H7NO/c1-3-7(4-8)5-9-6(7)2/h1,6H,5H2,2H3	InChI=1S/C7H7NO/c1-3-7(4-8)5-9-6(7)2/h1,6H,5H2,2H3/t6-,7+/m1/s1
