19
gdb 72378	2.33943	1.90045	1.43266	1.2223	80.57	-0.238	0.0184	0.2564	989.3977	0.160703	-385.912836	-385.905137	-385.904193	-385.944956	30.864	
O	-0.0645711024	 1.323242206	 0.3732214642	-0.478313
C	 0.0368205981	-0.0401110596	-0.0492694865	 0.368821
C	 0.5949557598	-0.1661178547	-1.4989683746	-0.332772
C	-0.40786058	-1.0489601565	-2.1950650273	-0.060403
C	-1.4719108658	-1.3070925455	-1.4369427596	-0.077738
C	-1.3938291044	-0.6737329282	-0.0718981296	-0.079419
C	-1.4548010654	-1.6801690825	 1.1127386763	-0.284299
C	-0.025690248	-1.7569182201	 1.5853235423	-0.055374
C	 0.7691139687	-0.8899775124	 0.9635914975	-0.138029
H	 0.827584518	 1.6549637978	 0.5208023793	 0.272119
H	 0.6431086397	 0.8290077105	-1.9605413073	 0.107425
H	 1.6113564762	-0.5797332872	-1.5228885516	 0.096148
H	-0.2656729731	-1.402321834	-3.2109712513	 0.090298
H	-2.3246290227	-1.9048905475	-1.7427725636	 0.089165
H	-2.1476972716	 0.1116888651	 0.0467968183	 0.091929
H	-2.117089002	-1.3362593948	 1.9177514698	 0.108799
H	-1.8382777538	-2.6581350379	 0.796978427	 0.103293
H	 0.2917789487	-2.4460451851	 2.3615096993	 0.093995
H	 1.83295911	-0.7670371333	 1.1464233574	 0.084358
64.1452	203.8585	228.8413	259.6855	338.8737	408.179	451.4223	463.1219	609.6976	618.0811	701.8565	738.9378	764.6108	810.1047	831.7508	884.7956	934.4029	956.1531	972.1601	977.3355	979.22	1009.5878	1054.7555	1061.6764	1097.7433	1111.9139	1132.6773	1142.911	1177.4291	1208.0292	1260.5793	1288.0941	1304.9447	1316.7318	1356.0171	1375.254	1391.7485	1476.5049	1482.0282	1689.5827	1691.8349	3013.7054	3020.0007	3045.7803	3046.1832	3055.722	3163.3532	3172.2904	3192.0944	3198.1826	3805.929
OC12CC=CC1CC=C2	O[C@]12CC=C[C@H]1CC=C2	
InChI=1S/C8H10O/c9-8-5-1-3-7(8)4-2-6-8/h1-3,6-7,9H,4-5H2	InChI=1S/C8H10O/c9-8-5-1-3-7(8)4-2-6-8/h1-3,6-7,9H,4-5H2/t7-,8-/m0/s1
