19
gdb 43740	4.00313	1.09734	1.06368	4.3295	74.99	-0.2686	0.0158	0.2844	1199.7968	0.160623	-423.080255	-423.072319	-423.071375	-423.113533	30.394	
O	 0.8403931769	 0.363127843	-0.6014369848	-0.322456
C	 0.3453609258	 1.3008443504	-0.0626088515	 0.441664
C	-1.0546278621	 1.8625796713	 0.1748026146	-0.509589
C	-0.3164710262	 2.980532131	 0.9317075112	 0.447621
C	-0.3351104907	 4.4199374357	 0.3977402559	-0.266077
C	 0.0461113439	 5.3281026469	 1.602280945	-0.205095
C	 0.3735347469	 4.3574424656	 2.7614631665	-0.206839
C	-0.4665508332	 3.1116849559	 2.4431312451	-0.260437
O	 0.9781634913	 2.3118809713	 0.6064564139	-0.278581
H	-1.5759124612	 2.1601644587	-0.7371714322	 0.139695
H	-1.702799731	 1.2205310421	 0.7744419647	 0.139888
H	 0.3581702372	 4.5099071948	-0.4418334221	 0.122598
H	-1.3339219808	 4.6605153757	 0.0209590066	 0.108725
H	 0.883189943	 5.9911315316	 1.3724725106	 0.108645
H	-0.8000176214	 5.9677883179	 1.8721239523	 0.103692
H	 1.4344791776	 4.0873579808	 2.7411439859	 0.121766
H	 0.1594509478	 4.7814223198	 3.7455859775	 0.099079
H	-1.5241086315	 3.2899182429	 2.6780458479	 0.104281
H	-0.1501216422	 2.2069869645	 2.968387373	 0.111418
43.3194	94.3719	170.4616	263.5581	341.1961	419.0908	434.569	524.2746	540.0094	588.697	714.8508	762.9052	818.3146	834.1137	856.6293	891.9603	902.5195	944.96	969.3936	978.8968	1022.2392	1047.4144	1087.3198	1120.734	1146.1938	1198.4769	1214.539	1238.9149	1249.1034	1264.3341	1287.291	1302.0258	1338.4193	1346.3915	1371.0101	1454.3032	1470.9826	1477.492	1492.2085	1511.1103	1934.7536	3029.237	3049.9223	3054.2424	3062.071	3082.2708	3094.2233	3101.6281	3106.6938	3117.1307	3138.5256
O=C1CC2(CCCC2)O1	O=C1CC2(CCCC2)O1	
InChI=1S/C7H10O2/c8-6-5-7(9-6)3-1-2-4-7/h1-5H2	InChI=1S/C7H10O2/c8-6-5-7(9-6)3-1-2-4-7/h1-5H2
