17
gdb 44533	3.51233	1.50148	1.41869	2.006	71.61	-0.2487	0.0207	0.2693	958.9265	0.138645	-417.975701	-417.968956	-417.968012	-418.006986	27.207	
N	-0.0262000029	 0.9980057659	 0.6794932698	-0.536745
C	-0.0397869229	-0.0882046789	 0.039932005	 0.395444
C	-1.2941470778	-0.8591928768	-0.3538359104	-0.325799
C	-0.7746499446	-2.1493742589	-0.9785883544	-0.005739
C	 0.756731784	-1.985013499	-1.0136634867	 0.064773
O	 1.0865997928	-0.734006518	-0.4131971259	-0.237175
C	 0.8476993971	-3.2283150988	-0.1295178915	-0.03985
C	 0.0450728583	-3.0808820315	 1.0969251364	-0.259895
N	-0.673573365	-3.4144258234	-0.1443800949	-0.144091
H	 0.931555365	 1.3237917706	 0.8188597346	 0.224796
H	-1.9372098595	-1.0178808277	 0.5147442145	 0.150131
H	-1.8657762686	-0.2664143417	-1.073250039	 0.142013
H	-1.2480581751	-2.4039134589	-1.925613295	 0.098839
H	 1.2630823298	-2.0612245702	-1.9761675066	 0.099418
H	 1.5229777617	-4.0602893552	-0.2964313931	 0.102327
H	 0.0628617081	-3.9144903491	 1.7920049019	 0.131673
H	-0.0783932603	-2.1127378385	 1.5727926152	 0.13988
84.4152	174.914	304.1367	383.1764	463.6126	527.087	542.1924	650.1863	673.6779	732.703	755.6012	818.6489	841.3463	877.0431	891.4073	908.002	959.0093	999.371	1015.9561	1039.3087	1059.2535	1062.7205	1112.6195	1119.2228	1150.0978	1178.3816	1218.2658	1229.0965	1251.0172	1294.594	1299.8717	1344.679	1359.3334	1382.0672	1461.3928	1510.5004	1775.2819	3073.0214	3108.6176	3115.6671	3124.7082	3126.035	3174.8334	3207.8709	3477.0789
N=C1CC2C(O1)C1CN21	[NH][C]1C[C@H]2[C@@H](O1)[C@H]1CN21	
InChI=1S/C6H8N2O/c7-5-1-3-6(9-5)4-2-8(3)4/h3-4,6-7H,1-2H2	InChI=1S/C6H8N2O/c7-5-1-3-6(9-5)4-2-8(3)4/h3-4,6-7H,1-2H2/t3-,4+,6+,8?/m0/s1
