19
gdb 110988	2.61362	1.38467	1.19902	1.602	74.58	-0.2372	-0.0064	0.2308	1121.5736	0.158224	-422.973092	-422.964548	-422.963603	-423.006215	33.038	
C	 0.023281244	 1.5017456531	-0.0430935031	-0.51414
C	-0.0409180452	 0.0025074542	 0.0390318772	 0.343343
O	 0.2697360346	-0.7142777305	-1.2107804428	-0.314369
C	-0.3285458449	-1.8490835331	-0.5109720713	-0.017391
C	 0.6552818064	-2.0387750143	 0.6589260248	-0.090145
C	 0.8509803944	-0.7755006563	 1.0380005571	-0.11951
C	-1.3713950129	-0.8371978837	 0.0797682953	-0.028464
C	-2.1668692643	-1.0897215181	 1.3484299889	-0.110853
O	-3.2171789115	-2.0277095393	 1.1375227462	-0.416501
H	 1.0379200204	 1.8259523033	-0.2952995568	 0.135272
H	-0.6587035501	 1.8784298122	-0.8097245307	 0.132169
H	-0.2494506358	 1.9509550635	 0.9173618706	 0.124197
H	-0.5898909251	-2.6892278926	-1.1534852907	 0.079559
H	 1.0529147185	-2.9658552456	 1.0450818642	 0.110782
H	 1.4607651537	-0.3538741505	 1.8241536401	 0.110228
H	-2.0409804491	-0.5003083685	-0.7173832394	 0.09267
H	-1.5095246733	-1.3998488045	 2.1713309996	 0.09102
H	-2.6620006496	-0.1617315046	 1.6565439122	 0.109798
H	-2.8129198603	-2.8800694947	 0.9472274883	 0.282335
69.2849	149.9294	184.8874	239.4046	257.0169	291.4696	321.5936	399.8184	545.981	568.6913	616.8876	627.8694	716.6609	753.8738	800.0684	826.446	853.5627	888.9102	903.8295	911.8094	963.4536	1012.9363	1054.2687	1061.8193	1112.5698	1118.6639	1140.5616	1182.1228	1217.3697	1236.6674	1260.3472	1285.5416	1335.1884	1352.9543	1400.0779	1412.0258	1425.5008	1478.7494	1493.045	1505.0537	1618.0743	3016.4405	3040.5025	3063.0219	3080.3175	3109.2955	3121.6417	3129.5864	3225.2517	3253.3853	3818.0231
CC12OC(C=C1)C2CO	C[C@@]12O[C@@H](C=C1)[C@H]2CO	
InChI=1S/C7H10O2/c1-7-3-2-6(9-7)5(7)4-8/h2-3,5-6,8H,4H2,1H3	InChI=1S/C7H10O2/c1-7-3-2-6(9-7)5(7)4-8/h2-3,5-6,8H,4H2,1H3/t5-,6+,7-/m1/s1
