22
gdb 102380	1.70665	1.37993	1.18913	3.2375	82.46	-0.2776	0.0233	0.3008	1279.3967	0.191043	-404.362439	-404.351211	-404.350267	-404.398626	39.79	
C	 0.1269447702	 1.5550676807	-0.0726640247	-0.404824
C	 0.0400864964	 0.0358407745	 0.0968021715	-0.211264
C	-1.4066060025	-0.5234105337	 0.0412029636	 0.212546
C	-2.2767776607	-0.0044461112	 1.2067390135	-0.204885
C	-3.6926550762	-0.5831812654	 1.2376336809	-0.40073
O	-2.0911478413	-0.1434042062	-1.1445013325	-0.267379
C	-1.5859151106	-0.6367715625	-2.374569619	-0.260708
C	-1.3193947673	-2.0069002085	 0.1264330939	 0.274145
N	-1.2353781705	-3.1582769586	 0.1859932646	-0.355566
H	 1.1736472735	 1.8632135999	-0.1475201749	 0.119879
H	-0.3905726029	 1.881220038	-0.9786793886	 0.1347
H	-0.3125834704	 2.088677348	 0.7743797575	 0.125985
H	 0.6331802605	-0.4580056485	-0.6797841487	 0.115424
H	 0.4817418145	-0.2724106843	 1.0505875923	 0.117857
H	-1.7526771431	-0.2213575304	 2.1438616588	 0.110212
H	-2.324318064	 1.083417993	 1.1040910784	 0.11658
H	-4.2187169062	-0.3656869996	 0.3055033942	 0.136462
H	-3.6773900154	-1.6684205295	 1.3763060812	 0.138433
H	-4.2611332769	-0.1467204024	 2.0638066752	 0.114422
H	-0.6045277859	-0.2122985629	-2.6235527381	 0.114921
H	-1.5103383267	-1.7316035552	-2.3724562638	 0.137562
H	-2.3026563044	-0.3313140351	-3.139608155	 0.136228
86.0294	96.3595	105.9743	144.6801	153.8494	183.4132	197.4378	216.2158	264.2063	292.5008	312.3694	383.6296	435.0288	488.168	579.8875	614.5163	674.0354	775.9485	780.6412	919.4855	947.8281	958.215	1034.5324	1045.999	1080.7082	1117.1557	1138.1283	1179.836	1182.2903	1194.7157	1235.5116	1306.1466	1321.0163	1364.2869	1370.8	1409.6116	1411.8437	1472.1195	1474.3906	1483.5515	1495.438	1496.7784	1499.4858	1504.7591	1509.8833	1513.2583	2345.8435	3004.8495	3045.9043	3048.3304	3048.7654	3051.4176	3065.7129	3080.0386	3094.6327	3115.3287	3117.8292	3125.6565	3126.7744	3134.4652
CCC(CC)(OC)C#N	CCC(CC)(OC)C#N	
InChI=1S/C7H13NO/c1-4-7(5-2,6-8)9-3/h4-5H2,1-3H3	InChI=1S/C7H13NO/c1-4-7(5-2,6-8)9-3/h4-5H2,1-3H3
