19
gdb 118895	3.46736	1.11384	1.03653	2.9268	70.9	-0.244	0.0564	0.3004	1206.9325	0.157929	-460.114826	-460.106123	-460.105178	-460.14818	33.611	
O	 0.5165885824	 0.2244022199	-0.6557120347	-0.419143
C	-0.2707723394	 0.3369454073	 0.5375195909	-0.096314
C	-1.6139949454	-0.3401665135	 0.2930421411	-0.260864
C	-1.5042683995	-1.8356523259	-0.0018275428	 0.406778
O	-0.8763006205	-2.1013413734	-1.2338780798	-0.500145
C	-0.9722219261	-2.7739065213	 1.1678732192	-0.317862
C	-2.3195606647	-3.5006127744	 1.123999296	 0.034342
O	-3.3358883355	-2.5187384004	 1.3845945075	-0.254038
C	-2.8259243333	-2.6333199774	 0.0530677992	-0.016665
H	 1.4166872645	 0.5014671821	-0.4622412119	 0.295212
H	 0.2457815547	-0.1409832559	 1.3825786191	 0.100867
H	-0.4222788311	 1.3954255289	 0.7924822943	 0.099096
H	-2.2419702024	-0.203424358	 1.1787391097	 0.12148
H	-2.1117441521	 0.1506857561	-0.5521804788	 0.110561
H	-0.1522512615	-1.4635745218	-1.3180491155	 0.28688
H	-0.1416821234	-3.3794672875	 0.8001942883	 0.11226
H	-0.7203995772	-2.321082065	 2.1312134443	 0.093295
H	-2.5573374513	-4.529323907	 1.367849509	 0.102706
H	-3.5249220582	-2.8135678728	-0.7558013651	 0.101554
63.9991	139.8335	195.0951	217.6894	279.3365	297.8643	351.2462	425.601	439.7881	484.9745	549.7955	560.9138	643.1139	792.732	828.1202	866.342	869.1406	895.0139	946.3557	955.1606	983.8787	994.7832	1033.1033	1051.1808	1096.252	1116.9557	1128.9125	1201.5596	1216.1464	1233.8898	1253.5011	1254.1743	1273.3419	1308.8665	1364.082	1393.2479	1440.6718	1453.4584	1467.3153	1474.7903	1519.2053	2990.619	3021.3055	3043.2513	3057.5299	3098.1382	3129.4703	3179.897	3195.3887	3709.5831	3836.4067
OCCC1(O)CC2OC12	OCC[C@@]1(O)C[C@H]2O[C@@H]12	
InChI=1S/C6H10O3/c7-2-1-6(8)3-4-5(6)9-4/h4-5,7-8H,1-3H2	InChI=1S/C6H10O3/c7-2-1-6(8)3-4-5(6)9-4/h4-5,7-8H,1-3H2/t4-,5-,6-/m1/s1
