15
gdb 26708	2.3286	1.57911	0.94868	1.4237	64.39	-0.1673	0.045	0.2123	1151.1478	0.111751	-491.087388	-491.07787	-491.076926	-491.120967	34.831	
N	 0.1989000318	 1.4414424023	 0.0392965554	-0.61221
C	 0.0178116675	 0.0440214465	-0.0168886906	 0.144661
C	-1.081409312	-0.7793115544	-0.0392262852	 0.206033
O	-2.3867782987	-0.3767112411	-0.0143271713	-0.46264
C	-0.6255531818	-2.1310116977	-0.1092587986	-0.008736
O	-1.4181116262	-3.2678123161	-0.0860040444	-0.462782
C	 0.7502183231	-2.0939176724	-0.1070911517	 0.320221
O	 1.6736423521	-3.0876852382	-0.1377591142	-0.442405
N	 1.1389867026	-0.7942109522	-0.0638389902	-0.328628
H	-0.2239990725	 1.8428006664	 0.8703929256	 0.242465
H	-0.2155831847	 1.9113640962	-0.7595215235	 0.241637
H	-2.916095115	-1.1629991277	 0.1619970864	 0.293723
H	-1.6835936138	-3.477985154	-0.9890610556	 0.296613
H	 1.194900174	-3.9152342874	-0.0122798061	 0.306823
H	 2.0869058937	-0.4624591802	-0.028590096	 0.265223
146.6547	174.8431	190.1319	200.631	236.3818	255.6071	266.7982	295.8169	305.2303	334.0388	422.8213	443.8824	552.8902	618.9515	644.1526	650.7413	683.5741	759.9219	806.5352	942.8257	1121.0948	1174.0574	1212.4591	1222.1189	1247.0731	1258.3956	1321.6434	1407.8174	1485.3978	1567.245	1634.8451	1663.9849	1701.897	3490.3206	3547.4847	3689.7983	3761.0604	3801.9686	3811.9555
NC1=C(O)C(O)=C(O)N1	Nc1c(O)c(O)c(O)[nH]1	
InChI=1S/C4H6N2O3/c5-3-1(7)2(8)4(9)6-3/h6-9H,5H2	InChI=1S/C4H6N2O3/c5-3-1(7)2(8)4(9)6-3/h6-9H,5H2
