23
gdb 95829	2.64172	1.20747	0.93399	0.7135	81.63	-0.2395	0.0758	0.3153	1336.6642	0.206586	-425.435298	-425.42597	-425.425026	-425.468932	36.443	
C	 0.5694059592	 1.4268455714	 0.2173677295	-0.394764
C	-0.2440392714	 0.195846348	-0.1886565807	 0.14229
C	 0.3315718906	-0.4892993551	-1.4411241877	-0.213666
C	-0.2080809094	-1.9040713707	-1.7110864119	-0.214256
C	 0.5130560387	-3.004486931	-0.9179699877	-0.182778
C	 0.3035964339	-2.9712139224	 0.594159243	 0.114592
O	 1.1723920554	-3.961067079	 1.1376611017	-0.43412
C	 0.5897117762	-1.6006659624	 1.2275712579	-0.110073
O	-0.438136148	-0.6777833642	 0.92472966	-0.261427
H	 1.5937646156	 1.1510329074	 0.4911532833	 0.115359
H	 0.6271340682	 2.1439046725	-0.6084713971	 0.111923
H	 0.106653657	 1.9216963771	 1.0753688388	 0.120358
H	-1.2662014536	 0.5181585446	-0.4250326707	 0.082389
H	 0.1049575646	 0.1654250206	-2.2908298576	 0.096982
H	 1.4274291427	-0.5272493691	-1.3812464921	 0.094497
H	-1.2867763161	-1.9359369609	-1.5117875767	 0.101699
H	-0.0863736875	-2.1274898196	-2.7768009446	 0.095319
H	 0.2000278871	-3.990067678	-1.2794116438	 0.099959
H	 1.5934253415	-2.9371253886	-1.1047205389	 0.100953
H	-0.749527241	-3.2083089041	 0.8164755199	 0.07013
H	 0.9816772676	-4.0413095017	 2.0777989131	 0.281505
H	 0.6000892861	-1.7122018101	 2.3204316751	 0.085571
H	 1.5866348027	-1.2446175848	 0.9337937173	 0.097559
84.2923	141.1802	214.2315	238.0765	263.6941	293.9812	301.706	334.1667	355.7657	401.2968	443.4463	501.9361	521.064	574.6827	750.6862	824.4871	854.7695	884.439	925.0637	955.582	968.6633	1013.8776	1039.1365	1067.7192	1086.9436	1101.7507	1115.7743	1143.9519	1169.1726	1213.3022	1245.8104	1270.7141	1277.713	1313.3167	1338.0343	1341.3225	1363.2041	1377.6635	1390.993	1396.8644	1405.4676	1410.2611	1441.9887	1484.0864	1485.3683	1487.1976	1490.9413	1496.9084	1507.2714	2970.8554	3000.0055	3016.8668	3021.9366	3022.4423	3026.4305	3033.2712	3044.2849	3061.0211	3067.4856	3073.2872	3100.536	3117.9774	3814.3046
CC1CCCC(O)CO1	C[C@H]1CCC[C@@H](O)CO1	
InChI=1S/C7H14O2/c1-6-3-2-4-7(8)5-9-6/h6-8H,2-5H2,1H3	InChI=1S/C7H14O2/c1-6-3-2-4-7(8)5-9-6/h6-8H,2-5H2,1H3/t6-,7+/m0/s1
