13
gdb 20681	3.93536	1.99594	1.33525	1.7819	65.33	-0.2611	-0.0653	0.1958	862.5346	0.095661	-394.764894	-394.757946	-394.757001	-394.796519	24.941	
C	 0.0011309062	 1.4934696297	-0.0558676421	-0.464469
C	-0.0757051416	 0.0030286316	 0.0331288448	 0.431842
N	-1.1307588884	-0.6557719716	-0.2535013486	-0.311521
C	-1.0817932761	-2.0481206146	-0.1321913742	 0.306165
N	-2.1123933726	-2.7502877559	-0.40823491	-0.48288
C	 0.2104090879	-2.5858175196	 0.3217004346	-0.004395
N	 1.2515316869	-1.8970462156	 0.6016964641	-0.061241
O	 1.1161103877	-0.508979513	 0.452473695	-0.257554
H	 0.7888199397	 1.789280992	-0.7555591671	 0.157606
H	-0.9598219075	 1.8804505107	-0.3913802463	 0.164424
H	 0.2555607052	 1.9171064268	 0.9204640424	 0.157586
H	-1.9116738309	-3.742365108	-0.2687067544	 0.220844
H	 0.3403815536	-3.6592167026	 0.4453093116	 0.143592
81.9966	108.3068	199.0293	312.0455	402.1976	468.9905	547.1892	575.6124	594.0839	731.3328	765.2757	876.1194	878.9866	935.0731	954.5411	971.8269	1055.2846	1064.5238	1146.1597	1236.6672	1321.6617	1393.8464	1405.0428	1468.8924	1472.8507	1643.6572	1703.936	1710.4213	3053.8445	3114.7136	3159.9086	3173.9917	3462.4482
CC1=NC(=N)C=NO1	CC1=N[C]([NH])C=NO1	
InChI=1S/C4H5N3O/c1-3-7-4(5)2-6-8-3/h2,5H,1H3	InChI=1S/C4H5N3O/c1-3-7-4(5)2-6-8-3/h2,5H,1H3
