14
gdb 132117	3.0798	1.42724	0.97814	4.0404	71.36	-0.1977	-0.0464	0.1513	1105.7974	0.102326	-474.179319	-474.171496	-474.170552	-474.211827	29.16	
N	 0.0392207995	 1.4669818364	 0.1653183187	-0.606674
C	-0.0010205972	 0.0534828013	 0.0636230638	 0.020542
C	-1.1339246835	-0.6977987787	 0.0622475126	 0.362844
F	-2.3490664931	-0.1715591593	 0.1092038694	-0.055191
N	-1.0991503433	-2.0456343946	 0.0480894855	-0.394246
C	 0.1063139153	-2.7801302694	-0.0311167864	 0.420537
N	 0.0125916519	-4.0516881257	-0.0900201038	-0.570986
N	 1.2759736452	-2.0258655369	-0.0240032706	-0.315626
C	 1.1981329717	-0.7299999988	 0.0354588541	 0.010622
H	 0.3840816105	 1.9018792247	-0.6847481476	 0.250389
H	-0.8792216046	 1.8484629027	 0.35789753	 0.247762
H	-1.9595185272	-2.5743828506	 0.0712735792	 0.280125
H	 0.9515222173	-4.4428055835	-0.1306736143	 0.224963
H	 2.1405804873	-0.1807970176	 0.0624499395	 0.124939
91.0562	140.2259	203.5518	273.2462	296.5627	352.0335	442.5541	465.5121	548.4945	558.6044	591.371	679.4119	757.2357	766.1315	796.825	827.336	834.5654	932.5774	997.0006	1060.517	1140.8927	1256.6783	1269.0908	1312.3332	1334.5683	1433.4296	1499.6939	1581.0772	1655.7581	1707.3763	1745.3665	3121.6571	3503.1385	3522.2121	3598.131	3619.5291
NC1=C(F)NC(=N)N=C1	NC1=CN=C(N[C@H]1F)[NH]	
InChI=1S/C4H5FN4/c5-3-2(6)1-8-4(7)9-3/h1H,6H2,(H2,7,8,9)	InChI=1S/C4H6FN4/c5-3-2(6)1-8-4(7)9-3/h1,3,7H,6H2,(H,8,9)/t3-/m1/s1
