20
gdb 67557	2.83134	2.04397	1.50592	1.2324	81.73	-0.2272	0.0964	0.3235	939.3198	0.173343	-365.942503	-365.935671	-365.934727	-365.973115	29.397	
C	-0.1218296691	 1.5131815927	 0.0202808622	-0.493972
C	 0.0141851515	 0.0110616863	 0.0558324076	 0.380482
C	 1.1480453273	-0.780392641	-0.6907492979	-0.083317
C	 2.1478533964	-0.4099587066	 0.4217240194	-0.271713
C	 0.8385891447	-0.7453002238	 1.1716237138	-0.11328
C	 0.6196916322	-1.9590729467	 0.2156837619	-0.026574
C	-0.8611044938	-2.086853669	-0.0790624408	-0.055025
C	-1.8179205886	-1.4536076729	 0.8666491378	-0.259332
N	-1.2644069391	-0.6792720544	-0.2614731253	-0.153251
H	 0.830325688	 2.0183134903	 0.2019331526	 0.116153
H	-0.5073077543	 1.8346552897	-0.9519304447	 0.129513
H	-0.8327983663	 1.8479666411	 0.7834069456	 0.12082
H	 1.3127883259	-0.8122118921	-1.7692976038	 0.070853
H	 2.9774674839	-1.1050939086	 0.5754639314	 0.091899
H	 2.5013159373	 0.6227723032	 0.4621893543	 0.093672
H	 0.6811632913	-0.7223300786	 2.2510774806	 0.068776
H	 1.2288368321	-2.8550312532	 0.338193856	 0.067191
H	-1.2035997804	-2.8065670285	-0.8177595618	 0.089988
H	-2.878267989	-1.673376162	 0.7778073491	 0.113236
H	-1.48899132	-1.2224203058	 1.8754634119	 0.113881
206.6754	229.0127	305.2783	342.8913	377.4246	451.437	540.5418	626.8083	661.6772	698.2999	763.6084	798.0841	820.8567	850.4212	893.0897	910.4015	912.9624	924.1706	992.9344	1001.9544	1032.5545	1047.7788	1061.6816	1078.7614	1094.3278	1110.0981	1115.996	1143.6224	1169.7625	1177.4023	1178.3104	1203.2442	1235.3808	1248.1894	1261.8237	1306.4438	1322.0425	1367.9177	1416.8402	1483.437	1493.4119	1504.5731	1526.6283	3039.4683	3057.6141	3092.4277	3098.0601	3101.6014	3113.1832	3114.8802	3117.3422	3121.4822	3144.2471	3199.6474
CC12C3CC1C3C1CN21	C[C@@]12[C@H]3C[C@@H]1[C@H]3[C@H]1CN21	
InChI=1S/C8H11N/c1-8-4-2-5(8)7(4)6-3-9(6)8/h4-7H,2-3H2,1H3	InChI=1S/C8H11N/c1-8-4-2-5(8)7(4)6-3-9(6)8/h4-7H,2-3H2,1H3/t4-,5+,6-,7-,8+,9?/m1/s1
