13
gdb 35627	2.17627	1.85499	1.13252	6.3924	66.8	-0.2757	-0.0287	0.247	1012.4971	0.091095	-411.808222	-411.800568	-411.799624	-411.841057	27.198	
N	-0.2338538619	-1.168590327	 0.365810494	-0.302861
C	-0.0945912704	-0.0352951726	 0.190325697	 0.295743
C	 0.0084856126	 1.4165724416	-0.0118900089	-0.158394
N	-0.6366920291	 2.1635262319	 1.0761343705	-0.295628
C	 0.3809664158	 2.6239305544	 1.8988537943	 0.080133
N	 1.573366239	 2.5879012083	 1.448522449	-0.226656
C	 1.4749971023	 2.0058964464	 0.0981224808	-0.127376
C	 2.5377442535	 1.0397081821	-0.1787825628	 0.308153
N	 3.3753502725	 0.285740985	-0.4288685542	-0.307684
H	-0.4320721502	 1.6613523443	-0.9811961813	 0.154925
H	-1.4645237544	 1.7643848701	 1.4966991416	 0.269821
H	 0.1242510243	 3.0396864347	 2.8679693958	 0.155032
H	 1.5662734259	 2.8172168809	-0.6354711157	 0.154795
63.4674	114.0257	184.4807	203.8599	291.3173	435.0365	474.9118	475.1971	568.2365	601.5224	618.0138	770.7535	826.7949	876.6344	938.7682	977.208	1025.9954	1048.9804	1067.2536	1127.6261	1225.8651	1269.5387	1321.862	1341.0496	1361.2302	1430.3496	1691.3089	2359.6943	2373.6241	3029.4751	3087.1681	3203.0153	3601.6934
N#CC1NC=NC1C#N	N#C[C@H]1N[CH][N][C@H]1C#N	
InChI=1S/C5H4N4/c6-1-4-5(2-7)9-3-8-4/h3-5H,(H,8,9)	InChI=1S/C5H4N4/c6-1-4-5(2-7)9-3-8-4/h3-5H,(H,8,9)/t4-,5+
