19
gdb 103441	2.41659	1.54308	1.29733	2.5026	70.46	-0.2333	0.0492	0.2825	1057.6595	0.15866	-460.120692	-460.111967	-460.111023	-460.153449	34.433	
O	-0.1213321882	 1.4331979883	 0.0840503212	-0.444816
C	 0.0468002384	 0.0187742213	-0.1083275352	-0.165187
C	-1.3547766558	-0.5573457399	 0.0056471071	 0.396879
O	-2.1652991536	-0.0552873093	-1.0398840179	-0.496931
C	-1.5528884407	-2.0667298697	 0.1171640015	-0.103088
C	-0.938515873	-2.6162423303	 1.3751500978	-0.29967
C	-2.2559534721	-1.9081217879	 1.4732179953	-0.055464
C	-2.0470875805	-0.3970542287	 1.4180117348	 0.052875
O	-1.2892138064	 0.1349520252	 2.4804895365	-0.440937
H	 0.7156338838	 1.8723542098	-0.0917992477	 0.29801
H	 0.4574154288	-0.1960858245	-1.1042569535	 0.102604
H	 0.7152967739	-0.3976702785	 0.6529987062	 0.10466
H	-2.0176562446	 0.8989974063	-1.0545881806	 0.281181
H	-1.8332330796	-2.6880185437	-0.7240083672	 0.093218
H	-0.9888445784	-3.6963647574	 1.4669244381	 0.113032
H	-0.0507516125	-2.1761410487	 1.8174612295	 0.11941
H	-3.1495903245	-2.3999260721	 1.8354425537	 0.086728
H	-2.9943161766	 0.1391618789	 1.2734235902	 0.071159
H	-0.9624378986	 0.991140341	 2.1764096304	 0.286338
125.8913	138.824	190.8241	269.8428	289.0083	318.4418	329.6877	398.3948	437.915	456.1011	502.3779	521.8705	601.8889	661.66	779.7305	801.69	847.2135	925.9629	940.2587	985.4063	1008.1771	1011.0754	1030.3419	1066.5564	1083.4547	1088.2059	1124.358	1139.3178	1176.4536	1189.2696	1217.0854	1256.0601	1267.195	1282.7709	1328.3941	1360.8475	1409.9008	1417.9602	1450.3319	1493.3632	1505.6021	3011.3142	3016.6132	3068.4034	3129.045	3187.9322	3196.0381	3212.0306	3775.6936	3778.5899	3838.1108
OCC1(O)C2CC2C1O	OC[C@@]1(O)[C@H]2C[C@H]2[C@H]1O	
InChI=1S/C6H10O3/c7-2-6(9)4-1-3(4)5(6)8/h3-5,7-9H,1-2H2	InChI=1S/C6H10O3/c7-2-6(9)4-1-3(4)5(6)8/h3-5,7-9H,1-2H2/t3-,4+,5-,6-/m1/s1
