19
gdb 106473	2.5806	1.6335	1.26289	4.1302	74.41	-0.2592	0.0138	0.2731	1060.8583	0.160338	-423.053736	-423.045834	-423.044889	-423.086129	30.876	
C	 0.0636144039	 1.5380619725	 0.1594605894	-0.393621
C	-0.0808518492	 0.0218427733	-0.0242274604	-0.293385
C	 0.6773034467	-0.5111041855	-1.2172962155	 0.151414
C	 2.2366066581	-0.3917613821	-1.4280088037	-0.273431
C	 1.9301887968	-1.4587741919	-2.4975827656	 0.095096
C	 0.8735727176	-2.0421432139	-1.5386770188	-0.286429
O	 1.1063425174	-0.7165868223	-3.4516337728	-0.247958
C	 0.2376199064	-0.063293675	-2.612994694	 0.458191
O	-0.6373687076	 0.6641491115	-2.9786782877	-0.363061
H	 1.1107261751	 1.8219113526	 0.3110237011	 0.1134
H	-0.3121254372	 2.0697994282	-0.718039672	 0.150827
H	-0.5014277458	 1.8766234374	 1.0325716161	 0.115133
H	 0.2651643659	-0.4997187538	 0.8766258901	 0.09545
H	-1.1409051813	-0.2329061821	-0.1450479021	 0.11511
H	 2.6464719122	 0.5596420139	-1.7734382167	 0.120243
H	 2.7994646235	-0.7771017535	-0.5751033442	 0.112098
H	 2.6745434491	-2.0360674514	-3.0398780924	 0.099281
H	 1.3003857104	-2.5884006556	-0.6948914655	 0.111958
H	 0.040851658	-2.5915514422	-1.9836455155	 0.119682
90.2881	157.7709	196.2898	216.9839	286.4961	395.8148	468.1796	475.9377	518.9942	611.1683	677.321	754.1373	764.1413	808.2898	868.6226	905.219	911.0232	928.2385	960.4085	988.4341	1000.566	1052.5456	1054.8544	1089.0375	1105.1719	1123.239	1186.5815	1215.4521	1234.3025	1244.408	1304.3446	1321.2387	1354.192	1380.5149	1410.642	1477.4879	1480.4246	1500.0377	1513.7437	1514.6153	1898.6269	3025.9326	3040.3613	3061.2368	3066.7403	3072.3517	3105.8831	3131.1529	3133.956	3138.094	3158.8418
CCC12CC(C1)OC2=O	CC[C@@]12C[C@@H](C1)OC2=O	
InChI=1S/C7H10O2/c1-2-7-3-5(4-7)9-6(7)8/h5H,2-4H2,1H3	InChI=1S/C7H10O2/c1-2-7-3-5(4-7)9-6(7)8/h5H,2-4H2,1H3/t5-,7+
