15
gdb 62311	3.59173	1.45855	1.19294	3.2575	69.5	-0.2446	0.0105	0.2551	999.2204	0.112949	-416.712112	-416.704925	-416.703981	-416.743646	28.053	
O	-0.0046434587	 1.4289878796	-0.0932322197	-0.469307
C	 0.053475749	 0.0257189321	-0.0326158963	 0.283006
C	 1.0093649209	-0.5168113453	-1.0074668679	 0.218529
N	 1.7896018586	-0.931143688	-1.7534130358	-0.336914
C	 0.0465548726	-0.6480750873	 1.363735597	-0.13737
C	-1.4783772185	-0.3223141557	 1.5538091756	-0.033019
N	-1.8953788323	-1.7288610443	 1.8504009373	-0.344249
C	-0.7993841014	-1.8584942042	 0.8370247033	-0.026199
C	-1.3341657033	-0.6351415793	 0.0303517522	-0.074582
H	 0.8876275734	 1.7837529138	-0.0096819287	 0.295665
H	 0.8324974647	-0.6602212333	 2.1198175383	 0.089623
H	-1.9289502805	 0.5540599039	 2.0147672864	 0.105677
H	-1.5598361552	-2.0124023044	 2.7752200504	 0.212476
H	-0.4438528075	-2.8102156374	 0.4450959533	 0.109382
H	-2.120343952	-0.6333609704	-0.7212427054	 0.107284
124.4292	160.9573	240.332	295.5552	330.6261	465.525	499.4532	518.0935	601.1678	660.5791	768.7905	808.1035	838.6565	847.48	897.5341	908.004	971.1958	981.0769	1007.7278	1048.8353	1104.307	1109.3629	1125.8654	1155.1976	1160.0127	1168.0187	1185.4602	1229.0997	1272.1368	1291.556	1331.4398	1371.6818	2347.2806	3113.5424	3133.5794	3143.0269	3156.7491	3400.5085	3806.0044
OC1(C#N)C2C3NC2C13	O[C@@]1(C#N)[C@H]2[C@@H]3N[C@H]2[C@H]13	
InChI=1S/C6H6N2O/c7-1-6(9)2-4-3(6)5(2)8-4/h2-5,8-9H	InChI=1S/C6H6N2O/c7-1-6(9)2-4-3(6)5(2)8-4/h2-5,8-9H/t2-,3+,4-,5+,6-
