18
gdb 52486	5.26585	0.54717	0.51504	1.239	103.94	-0.222	-0.0073	0.2147	2159.4582	0.145826	-364.749254	-364.73908	-364.738135	-364.786936	35.128	
C	 0.0816629231	 1.5422828887	 0.0263237469	-0.518009
C	 0.0602200622	 0.090846191	 0.0236865274	 0.235085
C	 0.0419295659	-1.1197354132	 0.0233117273	-0.199809
C	 0.0227157041	-2.4785340698	 0.021657108	-0.147393
C	 0.0007361867	-3.690322514	 0.0262589587	 0.371483
C	 0.001182077	-5.12220696	-0.0188488516	-0.329845
N	-0.4698683342	-5.8570149603	 1.1864982886	-0.317531
C	-1.2605395243	-5.9379578185	-0.043369086	 0.021704
C	-2.6306402856	-5.3110294538	-0.0190460082	-0.398984
H	 1.1088886703	 1.9242245347	 0.0152139919	 0.155577
H	-0.4345308097	 1.9497482196	-0.8504793309	 0.154942
H	-0.4119548735	 1.9433857599	 0.9188755012	 0.156513
H	 0.8474294961	-5.5509011641	-0.553138421	 0.109311
H	 0.0980505789	-6.6920770236	 1.3064150221	 0.234898
H	-1.1859147449	-6.8599634572	-0.6195993564	 0.08819
H	-2.6146378869	-4.3753654508	 0.5437613713	 0.1432
H	-2.9778136193	-5.1000594355	-1.0358552264	 0.119906
H	-3.3509808559	-5.9861526132	 0.454670167	 0.120762
11.8319	57.5914	72.0739	139.675	169.0506	202.2657	273.7189	328.2008	366.4599	399.7769	439.7541	526.3627	563.1322	602.4792	663.4426	767.3246	829.1216	892.0916	955.1746	988.7875	1019.0383	1047.9882	1048.2819	1079.908	1141.0209	1185.8472	1232.944	1246.3255	1302.6554	1393.9779	1410.9837	1425.3423	1452.6542	1471.7494	1472.564	1486.6326	1495.4307	2276.1574	2379.5632	3022.8064	3039.4311	3084.0473	3084.9797	3102.4012	3103.6441	3117.6546	3137.0978	3500.9112
CC#CC#CC1NC1C	CC#CC#C[C@H]1N[C@H]1C	
InChI=1S/C8H9N/c1-3-4-5-6-8-7(2)9-8/h7-9H,1-2H3	InChI=1S/C8H9N/c1-3-4-5-6-8-7(2)9-8/h7-9H,1-2H3/t7-,8+/m0/s1
