18
gdb 120530	5.87544	0.67261	0.638	3.4194	73.48	-0.2737	0.0011	0.2748	1699.2229	0.14669	-439.070624	-439.061189	-439.060245	-439.106244	32.918	
O	-0.2015677767	 1.5271131649	-0.3434623913	-0.420833
C	-0.0397623332	 0.1412650668	-0.087216656	-0.076031
C	-1.4326718462	-0.4654982571	 0.0427686116	-0.195004
C	-1.39649748	-1.9509154082	 0.3339187925	 0.147915
C	-2.7129982073	-2.750921926	 0.2184209946	-0.323354
C	-1.9514457276	-3.5769108636	-0.8503541283	 0.004411
O	-0.80215247	-2.7199817613	-0.7574814242	-0.293191
C	-1.6523792998	-4.9668176444	-0.4840893337	 0.272506
N	-1.4308845356	-6.0623469049	-0.1903834453	-0.316063
H	 0.6677225252	 1.9076664118	-0.4985886166	 0.288778
H	 0.5007132317	-0.362299005	-0.9017313469	 0.1109
H	 0.5282090259	-0.0310799535	 0.8421477379	 0.086935
H	-1.9708822057	 0.042219076	 0.8533410758	 0.113832
H	-1.9894476675	-0.2824175383	-0.8833919589	 0.109944
H	-0.8485664052	-2.1506266264	 1.2644150514	 0.093296
H	-3.0307028265	-3.29910211	 1.1041858583	 0.137698
H	-3.5511967943	-2.1840212834	-0.188685898	 0.12751
H	-2.384796007	-3.5678703874	-1.8568391029	 0.130752
36.8687	78.5535	104.1474	127.206	208.3401	226.7994	261.6584	336.9846	383.7253	482.6896	530.9784	576.8887	769.0734	786.6387	804.5689	907.4225	938.3087	982.5489	1001.327	1032.5635	1050.1101	1085.1946	1099.58	1131.579	1178.4727	1220.54	1249.563	1254.1137	1261.8512	1301.0619	1317.6759	1334.6797	1361.0485	1409.9786	1463.7761	1478.1286	1490.1246	1530.6299	2355.3754	2963.8355	3014.2688	3016.4814	3032.7728	3045.6624	3081.3746	3094.0681	3158.1145	3832.0258
OCCC1CC(O1)C#N	OCC[C@H]1C[C@@H](O1)C#N	
InChI=1S/C6H9NO2/c7-4-6-3-5(9-6)1-2-8/h5-6,8H,1-3H2	InChI=1S/C6H9NO2/c7-4-6-3-5(9-6)1-2-8/h5-6,8H,1-3H2/t5-,6+/m0/s1
