16
gdb 31842	5.04895	1.02924	0.86166	2.2138	78.53	-0.1975	-0.0366	0.1609	1293.4462	0.126137	-434.123151	-434.115098	-434.114154	-434.155831	30.203	
C	 0.0369085587	 1.4355070436	-0.1269790877	-0.325129
N	-0.0360421412	 0.0131068112	 0.1226792035	-0.350661
C	-1.2240365063	-0.6828902445	 0.0776415591	 0.380628
N	-1.1267543117	-2.0212969527	-0.0029847833	-0.312697
C	-2.2491596467	-2.7247049538	-0.0046478513	-0.083331
C	-3.4996781585	-2.1007421001	 0.0697679343	 0.387263
O	-4.6254464462	-2.8538036852	 0.0686063491	-0.426235
N	-3.6114106073	-0.7838087243	 0.135101878	-0.327401
C	-2.4847924022	-0.0681517527	 0.1366216024	-0.098743
H	 1.085168007	 1.740345681	-0.1212663252	 0.131925
H	-0.4053494654	 1.7318805357	-1.0910088897	 0.1194
H	-0.47259937	 1.9980525894	 0.6641397767	 0.13493
H	 0.7542668757	-0.5466085452	-0.1573411713	 0.245341
H	-2.1740062023	-3.8062923104	-0.0703517883	 0.121131
H	-5.3642233383	-2.2327681243	 0.1213458976	 0.296595
H	-2.5921947352	 1.0101513622	 0.187598986	 0.106985
83.4447	141.5085	194.2792	208.3241	363.7801	395.6544	434.3952	443.9911	465.1029	486.0741	571.219	585.3911	666.363	778.9695	799.827	888.8382	896.8416	941.4593	1030.2445	1093.0952	1153.8318	1156.7228	1198.7791	1270.1819	1294.0131	1344.7997	1357.9123	1429.7146	1469.6721	1484.7021	1490.7814	1523.1235	1553.8601	1603.7054	1650.3445	2981.713	3053.0997	3125.88	3171.2586	3180.6467	3626.5264	3777.7237
CNC1=NC=C(O)N=C1	CNc1ncc(O)nc1	
InChI=1S/C5H7N3O/c1-6-4-2-8-5(9)3-7-4/h2-3H,1H3,(H,6,7)(H,8,9)	InChI=1S/C5H7N3O/c1-6-4-2-8-5(9)3-7-4/h2-3H,1H3,(H,6,7)(H,8,9)
