17
gdb 60518	2.71911	1.02899	0.9537	0.6581	69.28	-0.2536	-0.102	0.1516	1296.5259	0.132417	-458.955111	-458.94552	-458.944576	-458.99103	32.878	
C	 0.2369819694	 1.1942686559	-0.3495079941	-0.414949
C	-0.1628316272	-0.2459400391	 0.0508062597	-0.137007
C	 0.5615176513	-0.6824736393	 1.3065338329	 0.100102
C	 1.1033639734	-2.0371550131	 1.4594714548	-0.183391
O	 1.9579902406	-0.932013852	 1.1513828076	-0.241756
C	-1.6638101817	-0.3127651369	 0.2393813308	 0.288328
O	-2.2340585835	-0.2392454394	 1.3042901635	-0.286212
C	-2.5304910477	-0.4658235397	-1.0218800496	 0.095121
O	-2.0816167077	-0.5994996829	-2.1294273721	-0.217203
H	 1.3206448822	 1.236338765	-0.4823332383	 0.151008
H	-0.240029468	 1.4906702205	-1.2868807398	 0.137984
H	-0.0463633586	 1.9084107275	 0.4301529695	 0.131402
H	 0.1053493225	-0.9077739002	-0.7796552463	 0.113709
H	 0.2976583768	-0.1299226003	 2.2073976782	 0.111598
H	 1.2275610023	-2.4620659182	 2.4539780988	 0.122632
H	 0.9735471722	-2.7623498658	 0.656931671	 0.115961
H	-3.6176506263	-0.4524587721	-0.7956967067	 0.112672
30.1995	69.7245	122.918	142.2029	185.9105	218.9447	231.5519	289.6333	377.684	453.567	515.3064	604.2216	621.8237	791.9491	830.4728	878.085	938.1527	970.7036	986.1851	1046.7252	1091.4527	1108.4892	1133.1773	1161.5082	1171.6304	1193.0645	1288.6953	1306.0341	1335.7565	1362.0956	1398.5619	1448.0978	1498.4046	1500.1214	1529.9659	1796.5625	1823.2703	2925.3863	3044.6078	3062.7697	3085.208	3120.9519	3125.2738	3133.5238	3173.5824
CC(C1CO1)C(=O)C=O	C[C@@H]([C@H]1CO1)C(=O)C=O	
InChI=1S/C6H8O3/c1-4(5(8)2-7)6-3-9-6/h2,4,6H,3H2,1H3	InChI=1S/C6H8O3/c1-4(5(8)2-7)6-3-9-6/h2,4,6H,3H2,1H3/t4-,6-/m1/s1
