20
gdb 114135	4.70394	0.86654	0.81689	1.8606	75.07	-0.2445	0.0532	0.2977	1433.0442	0.170615	-440.224281	-440.215006	-440.214062	-440.258682	34.544	
O	 0.7176853482	-0.7419803706	-1.1640283568	-0.421791
C	 0.1552233775	-0.0776685848	-0.0473708758	-0.072069
C	-1.3328154637	-0.3545115591	 0.0530008263	 0.055365
C	-2.2415120083	 0.4135497022	 1.0474642802	-0.352877
C	-3.0578745443	 0.8375012426	-0.1776347744	 0.336757
C	-4.5555241043	 0.7912204678	-0.2811362384	-0.172742
O	-5.1713763891	 1.8282269113	 0.4703908514	-0.409981
C	-2.1947716493	 1.5743141485	-1.1226896782	-0.300391
N	-2.151292593	 0.0923523124	-1.1478488049	-0.208535
H	 0.1343847518	-0.5707965637	-1.912997606	 0.295999
H	 0.6624431077	-0.4651868254	 0.8439111358	 0.110939
H	 0.355646878	 1.0057233202	-0.0822888443	 0.082385
H	-1.473380511	-1.4357313638	 0.1325695648	 0.097862
H	-2.7808122859	-0.2405859813	 1.7343745443	 0.117917
H	-1.789175413	 1.2271786837	 1.6219542597	 0.10598
H	-4.8460748558	 0.8162314417	-1.3426956816	 0.098771
H	-4.9372313938	-0.1444918304	 0.1412032805	 0.114585
H	-4.8551235034	 2.6676016548	 0.1196219626	 0.283409
H	-2.6519073374	 1.9788798334	-2.0213262431	 0.121055
H	-1.343008531	 2.1423301304	-0.7579136421	 0.117362
65.8602	93.6675	103.5292	202.2319	235.4741	297.541	339.1837	370.7485	388.3548	418.5742	457.4069	554.5641	689.7169	706.1081	815.5847	822.1668	884.4761	925.5225	963.0674	973.7694	1011.8254	1051.6751	1061.5976	1080.5188	1107.7308	1115.3528	1124.9422	1171.7384	1181.5009	1225.5826	1242.8521	1291.3179	1322.6005	1336.7107	1352.3892	1388.2535	1399.8615	1422.9939	1437.374	1486.6573	1497.0878	1504.9293	1516.8598	2970.1504	2990.4355	3056.5846	3059.7579	3072.5019	3075.7784	3110.303	3122.3536	3194.856	3790.3585	3808.1845
OCC1CC2(CO)CN12	OC[C@H]1C[C@@]2(CO)CN12	
InChI=1S/C6H11NO2/c8-2-5-1-6(4-9)3-7(5)6/h5,8-9H,1-4H2	InChI=1S/C6H11NO2/c8-2-5-1-6(4-9)3-7(5)6/h5,8-9H,1-4H2/t5-,6+,7?/m1/s1
