15
gdb 33696	4.06018	1.46041	1.3721	3.7166	73.26	-0.2503	0.0104	0.2607	936.9493	0.115282	-379.628416	-379.622188	-379.621244	-379.659006	25.256	
N	 0.1662775204	-1.1321646794	-0.0131560324	-0.355544
C	 0.0691424893	 0.0219321762	 0.0119290292	 0.141847
C	-0.0614689466	 1.4322093736	 0.0251934127	 0.259963
C	 0.1016782245	 2.3350070365	 1.2443604804	-0.145766
C	-0.9859512388	 3.3904247293	 1.1781167005	-0.174813
N	-1.1253143684	 3.590838075	-0.2704230458	-0.110589
C	 0.1772599241	 3.3686587038	-0.9206891424	-0.060806
C	 1.0196255597	 2.5169279321	 0.0694253098	-0.142682
C	-0.8803074299	 2.3244562722	-0.9650410873	-0.132731
H	 0.4694271153	 1.9081365727	 2.1684138855	 0.122334
H	-1.9368818796	 3.0538676792	 1.6003336359	 0.125838
H	-0.691028203	 4.3294134376	 1.6559146596	 0.12228
H	 0.543327095	 4.0624537666	-1.6647848596	 0.112098
H	 2.0904807522	 2.3794647207	 0.0778018393	 0.121676
H	-1.5420167043	 1.9740488839	-1.7453276353	 0.116895
142.8339	162.6759	398.6843	487.4653	498.7403	535.2016	598.7236	717.0235	757.7517	775.6856	785.2278	838.1789	865.4429	891.7771	904.3406	948.7687	965.8817	981.0706	1004.3922	1038.8752	1054.6687	1084.7451	1138.9668	1172.332	1204.961	1217.6597	1233.743	1264.8349	1303.4605	1328.4725	1412.1226	1494.833	2342.6984	3061.3256	3111.5568	3207.0356	3213.3783	3218.6548	3238.7945
N#CC12C3CN4C(C13)C24	N#C[C@@]12[C@@H]3CN4[C@@H]([C@H]13)[C@@H]24	
InChI=1S/C7H6N2/c8-2-7-3-1-9-5(4(3)7)6(7)9/h3-6H,1H2	InChI=1S/C7H6N2/c8-2-7-3-1-9-5(4(3)7)6(7)9/h3-6H,1H2/t3-,4-,5+,6+,7-,9?/m1/s1
