18
gdb 35250	3.19211	1.02255	0.86358	1.9099	78.28	-0.2452	0.0304	0.2756	1342.558	0.146981	-401.856024	-401.84722	-401.846276	-401.891102	31.865	
C	-0.3127978514	-1.2124305176	 0.2608611691	-0.441856
C	-0.1658689016	-0.0229354574	 0.165361348	 0.38024
C	-0.0089236838	 1.3972667596	 0.0099347193	-0.255474
N	 0.597702929	 2.1513349445	 1.134704253	-0.333546
C	 1.3332050461	 2.0539534655	-0.1295683795	-0.027405
C	 2.6178018815	 1.276675144	-0.1088399515	-0.029556
C	 3.2765872413	 0.9918522759	-1.4791006139	-0.08547
O	 4.4436244995	 1.7651775587	-1.135206225	-0.272796
C	 3.9094259209	 2.084102695	 0.1656656423	-0.084009
H	-0.4426200088	-2.2618946944	 0.3582934039	 0.200971
H	-0.8249048955	 1.8803051679	-0.5238233857	 0.112803
H	 0.1405707324	 3.0557200363	 1.2183974876	 0.238814
H	 1.3478154277	 2.9363440367	-0.7705739943	 0.093649
H	 2.5018952569	 0.3963648343	 0.5235211765	 0.101611
H	 3.5202123186	-0.0580476203	-1.6800776077	 0.10521
H	 2.7502822805	 1.4051986398	-2.3502348177	 0.09615
H	 3.7700122483	 3.1650518848	 0.3007760625	 0.095617
H	 4.5430207185	 1.7056549268	 0.976517333	 0.105047
39.3386	48.2602	106.0021	171.0079	238.897	304.6863	339.648	439.1521	551.8618	600.8983	620.2437	662.7339	758.8442	823.963	837.9857	885.0863	895.4318	936.9474	973.3233	980.3175	1038.2485	1046.987	1061.5552	1087.503	1145.1695	1157.0142	1161.6563	1202.2466	1231.2188	1251.229	1271.485	1309.0711	1318.84	1382.2696	1408.1871	1470.6775	1512.8588	1538.4638	2240.1402	3001.4356	3012.4094	3052.307	3053.112	3096.69	3117.2534	3126.3217	3503.5642	3504.7512
C#CC1NC1C1COC1	C#C[C@H]1N[C@H]1C1COC1	
InChI=1S/C7H9NO/c1-2-6-7(8-6)5-3-9-4-5/h1,5-8H,3-4H2	InChI=1S/C7H9NO/c1-2-6-7(8-6)5-3-9-4-5/h1,5-8H,3-4H2/t6-,7+/m1/s1
