12
gdb 27613	3.62551	1.2842	0.9483	2.0504	70.19	-0.281	-0.0891	0.1919	1110.947	0.080282	-431.742584	-431.7358	-431.734856	-431.774084	25.165	
O	 0.1064266289	 1.2966192777	 0.088891917	-0.382114
C	 0.0697916705	-0.0362712154	 0.0490351872	 0.460044
N	 0.0756965896	-0.609231367	-1.1560338443	-0.395781
C	 0.0383044691	-1.946954969	-1.1612836556	 0.224905
C	-0.0041428174	-2.7016123454	 0.0074150399	-0.188273
C	-0.005411994	-1.9736621054	 1.1961648258	 0.023623
N	 0.0310619802	-0.6460630336	 1.2365492298	-0.274682
C	 0.0436017836	-2.5949785121	-2.4483501933	 0.250984
N	 0.0467188958	-3.1450789879	-3.4650997695	-0.311469
H	 0.1317770508	 1.6051714274	-0.8275960445	 0.31524
H	-0.0340778724	-3.782033292	-0.0111704295	 0.137596
H	-0.0371767446	-2.4830088074	 2.1562287472	 0.139927
140.6346	154.4052	191.9929	398.0362	435.0908	476.194	487.2598	577.9828	598.5469	605.4314	726.0397	755.7475	823.0551	863.7109	978.2175	1013.815	1016.954	1106.0233	1213.4576	1249.4997	1306.5239	1385.9388	1465.4083	1504.4499	1608.5857	1614.7708	2358.3266	3167.0605	3236.5549	3780.1379
OC1=NC(=CC=N1)C#N	Oc1nc(ccn1)C#N	
InChI=1S/C5H3N3O/c6-3-4-1-2-7-5(9)8-4/h1-2H,(H,7,8,9)	InChI=1S/C5H3N3O/c6-3-4-1-2-7-5(9)8-4/h1-2H,(H,7,8,9)
