14
gdb 42558	4.29143	1.30352	1.13469	4.1192	72.22	-0.2542	-0.0144	0.2397	1032.8194	0.100104	-399.454296	-399.447215	-399.446271	-399.485897	27.429	
O	 0.0767885344	 0.0725577818	 0.2688909078	-0.303118
C	-0.0248249373	 1.2447171519	 0.1071920347	 0.436661
C	-1.1032688381	 2.2703881648	 0.0689038876	-0.242157
C	-0.3971801859	 3.5626669922	 0.5722231728	-0.070905
C	-0.1685110282	 3.0930216061	-0.8087136994	-0.018195
N	 1.0121095776	 2.2433900762	-0.3117722466	-0.219106
C	 1.0270432121	 3.1276000696	 0.9519787384	-0.210667
C	 2.0144174559	 4.1858599724	 0.8916031236	 0.343
C	 2.815412575	 5.0809602269	 0.8648730105	-0.417267
H	-2.1805456367	 2.176073503	 0.0451298226	 0.125634
H	-0.9748961357	 4.407617919	 0.9263750642	 0.119076
H	-0.291548692	 3.4785424991	-1.8083356164	 0.129508
H	 1.1500993958	 2.5379159897	 1.868379925	 0.12324
H	 3.5332871129	 5.8633034371	 0.8355486253	 0.204296
114.9005	146.3388	168.669	342.4324	429.3308	483.6672	548.1916	638.3731	645.2187	659.7838	752.4327	796.2661	821.7496	829.2602	845.554	883.0319	925.4539	937.0955	966.7224	1013.4388	1025.6639	1038.901	1077.9737	1091.7997	1177.6655	1229.5133	1268.2207	1340.1614	1365.7615	1928.9247	2241.8855	3040.7089	3194.9316	3214.879	3252.9198	3502.6847
O=C1C2C3C2N1C3C#C	O=C1[C@H]2[C@@H]3[C@H]2N1[C@H]3C#C	
InChI=1S/C7H5NO/c1-2-3-4-5-6(4)8(3)7(5)9/h1,3-6H	InChI=1S/C7H5NO/c1-2-3-4-5-6(4)8(3)7(5)9/h1,3-6H/t3-,4+,5-,6+/m0/s1
