18
gdb 17859	4.20722	1.69534	1.48341	2.0227	72.49	-0.23	0.0854	0.3154	911.4044	0.15329	-347.711145	-347.703924	-347.702979	-347.74233	28.381	
C	-0.0546997758	 1.5542031291	-0.0680627828	-0.405504
C	-0.0027269673	 0.0419785749	-0.0122726575	-0.102656
C	 1.3273827891	-0.68872083	-0.2098097036	-0.391176
C	 0.6610036426	-0.6692936375	 1.1172747402	 0.467729
C	 1.1459497615	-0.2773066103	 2.5222688746	-0.045618
C	-0.2329059817	-0.6988144597	 3.0913587011	-0.21815
C	 0.2596843935	-1.7806527177	 2.0966064255	-0.050042
O	 1.6090215325	-1.6766473199	 2.7100525922	-0.31116
H	 0.8440128818	 1.9945459021	 0.3765230787	 0.114782
H	-0.1214162687	 1.9100153855	-1.101986584	 0.120244
H	-0.92058025	 1.9475534624	 0.4762854362	 0.117387
H	-0.8703579272	-0.4556642392	-0.441288156	 0.085358
H	 1.3296959381	-1.612302795	-0.7798536145	 0.11431
H	 2.2160149832	-0.0795559149	-0.3476505609	 0.113889
H	 1.8167704093	 0.5218188873	 2.8378372452	 0.094239
H	-0.2215605488	-1.0019104497	 4.1390490325	 0.104782
H	-1.1087099363	-0.1057111241	 2.8169120661	 0.097613
H	-0.1312900358	-2.7792729831	 1.899982037	 0.093972
143.0957	160.8662	195.0161	249.1207	371.5688	409.7515	484.5165	590.8466	669.9168	727.815	795.534	821.3065	868.1891	870.396	892.8997	919.2337	971.6554	990.6634	1023.7125	1037.1591	1061.2566	1101.5281	1114.4275	1134.3893	1137.8316	1166.4989	1172.3518	1183.4859	1218.7035	1235.6755	1263.1949	1347.3447	1413.7729	1441.5673	1477.6368	1492.3337	1498.0759	1522.3019	3026.2638	3063.2146	3088.2558	3094.1044	3115.8846	3121.3641	3121.9075	3126.5344	3148.547	3204.6963
CC1CC11C2CC1O2	C[C@H]1C[C@]21[C@H]1C[C@@H]2O1	
InChI=1S/C7H10O/c1-4-3-7(4)5-2-6(7)8-5/h4-6H,2-3H2,1H3	InChI=1S/C7H10O/c1-4-3-7(4)5-2-6(7)8-5/h4-6H,2-3H2,1H3/t4-,5-,6+,7+/m0/s1
