18
gdb 87275	2.38704	1.44165	1.04926	2.8545	74.4	-0.2352	-0.0437	0.1915	1176.6161	0.143925	-439.082193	-439.072434	-439.07149	-439.116987	34.711	
C	-0.4621985237	 1.5749828712	 0.4126853426	-0.336553
N	-0.2708283316	 0.1244138326	 0.4059496847	-0.11676
C	 0.9223924697	-0.4196578709	-0.1662533157	-0.257967
C	 0.6953050178	-0.5128519156	 1.3320720964	 0.101591
C	 1.6093997964	 0.3155760891	 2.1913529668	 0.097468
O	 2.1764935808	 1.3150387591	 1.8136947582	-0.274224
C	 0.2726509613	-1.827182507	 1.9431173451	 0.325829
C	-0.9933418469	-2.4789672451	 1.4345920066	-0.479496
O	 0.9522249984	-2.3156100325	 2.8207333901	-0.303917
H	 0.4634332769	 2.1471455129	 0.5310902368	 0.153781
H	-0.9358266421	 1.8435628602	-0.5360681982	 0.131436
H	-1.1495221452	 1.835859142	 1.2225580519	 0.129011
H	 0.8135026921	-1.3192133469	-0.767458077	 0.12821
H	 1.7211828465	 0.2601526507	-0.4594459601	 0.147215
H	 1.7138490059	-0.0573874613	 3.2261222841	 0.117542
H	-0.9839484289	-2.5797063384	 0.3453905802	 0.143782
H	-1.103791892	-3.4567764614	 1.904196737	 0.139831
H	-1.8539432655	-1.8458550187	 1.6726593006	 0.153218
57.9512	115.595	135.9423	169.0481	202.5692	215.2901	244.8479	290.248	364.8571	391.6046	440.2923	482.8565	593.6358	606.7696	740.2	747.9516	869.1579	922.5782	967.2026	1024.435	1040.2458	1056.4732	1095.0201	1117.8893	1150.8849	1176.9844	1213.3155	1296.6522	1357.0643	1386.7625	1421.7342	1444.661	1449.4052	1466.0824	1486.9439	1497.4389	1512.9928	1789.296	1796.0248	2977.7411	3034.58	3050.6969	3091.3628	3110.8607	3112.524	3114.9662	3158.6792	3185.6509
CN1CC1(C=O)C(C)=O	CN1C[C@]1(C=O)C(=O)C	
InChI=1S/C6H9NO2/c1-5(9)6(4-8)3-7(6)2/h4H,3H2,1-2H3	InChI=1S/C6H9NO2/c1-5(9)6(4-8)3-7(6)2/h4H,3H2,1-2H3/t6-,7?/m0/s1
