19
gdb 36868	4.41594	0.84333	0.80276	2.4347	78.62	-0.2275	0.0185	0.246	1469.9233	0.159002	-423.000707	-422.992052	-422.991108	-423.035681	30.945	
C	-0.055156107	 1.5620330908	 0.1386741284	-0.356392
C	-0.1152606094	 0.062942445	 0.3712492791	 0.10587
C	-1.2267899851	-0.7535995299	-0.1291866787	-0.18073
O	 0.0461007153	-0.764381318	-0.779706522	-0.227708
C	 1.3475218488	 2.0771523552	 0.0058769951	 0.312511
C	 1.9744305646	 2.505277733	-1.0861008795	-0.200864
C	 3.3774389725	 2.9199361912	-0.7529811299	-0.102208
O	 3.5112826452	 2.6931526517	 0.6493344634	-0.263963
C	 2.2953232463	 2.1804465801	 1.1771042703	-0.149582
H	-0.6263247518	 1.7944431613	-0.7655159722	 0.114443
H	-0.5574813798	 2.0595101767	 0.9810384087	 0.109463
H	 0.4198347245	-0.2982855642	 1.2512264087	 0.096014
H	-1.50098115	-1.6744799502	 0.3835942903	 0.116267
H	-2.0320793275	-0.2768852044	-0.6873399749	 0.113508
H	 1.5611079824	 2.5586486838	-2.0856468153	 0.102444
H	 4.1325322864	 2.3317486346	-1.2985844442	 0.106841
H	 3.5705255042	 3.9809092266	-0.9799838852	 0.102825
H	 1.9073789101	 2.854862887	 1.9596731179	 0.098382
H	 2.4806433004	 1.2067688999	 1.65999785	 0.102878
40.6366	58.5392	107.0003	132.0308	246.6141	309.32	354.0709	413.6803	496.6111	666.4534	773.5515	784.2923	833.2628	859.298	906.1751	926.2386	936.3771	961.6918	985.8079	1028.0353	1063.0837	1088.8049	1097.5109	1114.6587	1158.4911	1166.6533	1173.2157	1204.7496	1224.2588	1228.9295	1295.7516	1317.0595	1324.2916	1371.8741	1398.4292	1442.1969	1463.7963	1516.4671	1529.2503	1531.4257	1732.2231	2954.8471	2970.0409	2972.5254	2984.9094	3008.4786	3077.9159	3081.7263	3099.8177	3167.1473	3213.5055
C(C1CO1)C1=CCOC1	C([C@H]1CO1)C1=CCOC1	
InChI=1S/C7H10O2/c1-2-8-4-6(1)3-7-5-9-7/h1,7H,2-5H2	InChI=1S/C7H10O2/c1-2-8-4-6(1)3-7-5-9-7/h1,7H,2-5H2/t7-/m0/s1
