20
gdb 46055	3.62419	1.02898	0.88267	3.9401	79.64	-0.2353	0.0383	0.2736	1348.6551	0.172946	-403.188555	-403.180145	-403.179201	-403.222237	32.083	
O	-0.15447206	-0.0599728513	-0.0039812503	-0.379601
C	-0.1105651153	 1.1485727523	 0.0610305489	 0.399985
C	-1.2902506155	 2.1180401096	 0.1904143775	-0.329557
C	-0.6444926628	 3.4822111181	 0.480756449	-0.230293
C	 0.8107910645	 3.3563507639	-0.0529734573	-0.009934
N	 1.0248010553	 1.9166110452	 0.0136862017	-0.290559
C	 1.0037713392	 3.9130005922	-1.4505150957	 0.033838
C	 1.3870498846	 5.3583781199	-1.6372242163	-0.26966
C	 2.3863739812	 4.2688538024	-1.9382704573	-0.278618
H	-1.8390726953	 2.1038437382	-0.7577792042	 0.129521
H	-1.9802064537	 1.776698163	 0.9641629599	 0.130129
H	-1.1643588512	 4.3224090864	 0.0163357849	 0.111906
H	-0.6191383489	 3.6628643351	 1.558950098	 0.111981
H	 1.5104121298	 3.8706207639	 0.6188176825	 0.076367
H	 1.9029305316	 1.4898147408	-0.238900523	 0.247389
H	 0.3287789756	 3.4907962828	-2.1913803118	 0.087332
H	 0.9514175389	 5.9044412799	-2.466109544	 0.116778
H	 1.5484851157	 5.9592789367	-0.747732134	 0.113602
H	 3.2169269363	 4.1446462351	-1.2499604361	 0.111231
H	 2.63642978	 4.067697336	-2.9737258524	 0.118163
74.4131	81.1685	116.5364	202.0774	289.1834	360.4586	425.417	486.3546	506.3238	589.0058	653.5667	739.5478	761.2529	808.603	830.8539	847.8812	890.2977	915.3266	944.6133	978.0957	1011.4012	1036.1188	1058.7767	1081.665	1097.7754	1129.2481	1135.9057	1196.5462	1204.1936	1220.0347	1230.4892	1253.2066	1296.3981	1299.1546	1335.6541	1363.5536	1428.5083	1434.6049	1468.7134	1470.8288	1498.7741	1505.4353	1829.7947	3011.5034	3056.2935	3065.4322	3111.2412	3122.3099	3127.8683	3132.5489	3136.9576	3207.8063	3222.5925	3632.1081
O=C1CCC(N1)C1CC1	O=C1CC[C@@H](N1)C1CC1	
InChI=1S/C7H11NO/c9-7-4-3-6(8-7)5-1-2-5/h5-6H,1-4H2,(H,8,9)	InChI=1S/C7H11NO/c9-7-4-3-6(8-7)5-1-2-5/h5-6H,1-4H2,(H,8,9)/t6-/m1/s1
