18
gdb 17861	4.40375	1.69157	1.51992	1.7358	72.45	-0.2518	0.101	0.3528	904.8825	0.153988	-347.734813	-347.727758	-347.726814	-347.765794	27.868	
C	 0.004896179	 1.5438503532	-0.1228618071	-0.413383
C	-0.0338777119	 0.0485136845	 0.0532783181	-0.091673
O	 1.2439097332	-0.6468072383	-0.0582585795	-0.32912
C	 0.5789556876	-0.6399092068	 1.1791011483	 0.561672
C	 1.1540794145	-0.2444321032	 2.5497935426	-0.148784
C	-0.1789883267	-0.800750676	 3.1400188692	-0.220226
C	 0.2431688104	-1.8498665484	 2.0650048938	-0.150889
C	 1.6985047421	-1.7088576435	 2.619001227	-0.225673
H	 0.8201639948	 1.9833834987	 0.4572870296	 0.125932
H	 0.151599945	 1.8051564372	-1.1761346689	 0.129584
H	-0.93940973	 1.9921597193	 0.205383355	 0.121075
H	-0.8391312937	-0.4624496594	-0.4780028144	 0.091516
H	 1.6739432311	 0.6721266888	 2.8271511197	 0.077972
H	-0.1275717198	-1.1425825726	 4.1762172522	 0.096227
H	-1.0892377083	-0.227013928	 2.9476833041	 0.09344
H	-0.2785257427	-2.7646721481	 1.7852154324	 0.078527
H	 2.5108419605	-1.963162637	 1.9359860467	 0.112952
H	 1.8677860746	-2.1070166503	 3.6229117412	 0.090851
154.4231	170.7925	190.8198	264.9824	410.4514	447.6458	488.3253	611.2167	621.1117	782.5168	794.2797	802.5606	891.1462	901.8122	921.265	958.9788	1003.0183	1016.8089	1019.0239	1054.2352	1078.7298	1091.227	1101.1311	1124.8803	1127.1466	1180.8648	1185.2436	1193.2682	1237.7074	1239.9156	1250.8244	1352.9264	1408.9132	1476.8844	1490.9655	1494.4913	1519.9797	1565.8539	3035.3133	3057.1232	3060.6548	3089.2209	3098.5295	3118.2201	3122.4997	3124.8102	3126.0046	3134.3054
CC1OC11C2CC1C2	C[C@H]1O[C@]21[C@H]1C[C@@H]2C1	
InChI=1S/C7H10O/c1-4-7(8-4)5-2-6(7)3-5/h4-6H,2-3H2,1H3	InChI=1S/C7H10O/c1-4-7(8-4)5-2-6(7)3-5/h4-6H,2-3H2,1H3/t4-,5-,6+,7-/m1/s1
