17
gdb 80249	2.39126	1.6153	1.2964	2.797	68.08	-0.2317	-0.0068	0.2249	1016.6905	0.136111	-458.959367	-458.951502	-458.950558	-458.99139	30.951	
O	-0.0520105921	 1.5153739378	 0.0408180207	-0.437033
C	 0.0293441758	 0.1161771722	-0.0099291713	 0.142418
C	-1.3284392301	-0.6232778281	-0.1284339353	-0.081902
C	-1.9581849567	 0.0527565429	-1.3608870389	-0.341468
C	-0.7082489677	 0.0546456788	-2.2689502408	 0.44056
O	-0.6041922372	 0.4477647598	-3.3991687202	-0.338659
C	 0.3373646813	-0.5969038685	-1.3792285587	-0.249544
C	-0.5280528476	-1.7778991158	-0.7830062656	 0.125344
O	 0.1177643928	-2.5759115727	 0.1788609407	-0.440636
H	 0.8377306334	 1.876914601	 0.0968606072	 0.290308
H	 0.6463542109	-0.2967356093	 0.7905746039	 0.098568
H	-1.9572978716	-0.8047160074	 0.7417714836	 0.081917
H	-2.7748382697	-0.5185767369	-1.8128883136	 0.120367
H	-2.3013142261	 1.0712621184	-1.1691525654	 0.145721
H	 1.3375954891	-0.736915848	-1.7861636224	 0.072732
H	-1.0696557141	-2.3910109337	-1.5145646956	 0.081781
H	 0.7334179095	-3.1583904805	-0.2774676783	 0.289527
120.5957	211.657	255.0673	280.3725	283.3028	319.9612	356.2539	452.6858	479.4343	560.6159	636.2716	651.334	747.1611	804.2117	843.5557	883.5084	909.5682	957.7106	974.7727	994.8199	1072.9596	1095.8591	1120.0789	1141.4289	1149.944	1173.2057	1196.308	1208.0448	1254.8111	1261.7988	1298.4223	1317.9674	1329.8216	1420.857	1434.8355	1462.3656	1869.2394	3018.2976	3065.7421	3091.2432	3126.0913	3131.9759	3136.3158	3817.5488	3827.6317
OC1C2CC(=O)C1C2O	O[C@H]1[C@H]2CC(=O)[C@@H]1[C@H]2O	
InChI=1S/C6H8O3/c7-3-1-2-5(8)4(3)6(2)9/h2,4-6,8-9H,1H2	InChI=1S/C6H8O3/c7-3-1-2-5(8)4(3)6(2)9/h2,4-6,8-9H,1H2/t2-,4+,5-,6-/m0/s1
