15
gdb 81523	3.72066	1.29831	1.08338	1.413	66.48	-0.2716	0.0002	0.2719	1064.5202	0.112603	-453.872761	-453.865039	-453.864095	-453.90471	29.97	
O	 0.1802594307	 1.4108699558	-0.1064039743	-0.445779
C	 0.1004074509	 0.0344199481	-0.0504166109	 0.189657
C	 0.0062118057	-0.6506067569	 1.3547003377	-0.147881
N	-1.3711239295	-0.0238607565	 1.4468580691	-0.371294
C	-1.317721335	-0.6276737457	 0.054336747	-0.116529
C	-0.6261858247	-1.8941809642	 0.6309054716	 0.313375
O	 0.116109392	-2.6570085135	-0.2782223509	-0.466967
C	-1.4599761713	-2.7474876403	 1.4883172766	 0.213124
N	-2.0727103689	-3.4615295371	 2.160920647	-0.335331
H	-0.4566988086	 1.7359621227	 0.547960549	 0.296142
H	 0.7932766195	-0.3989159597	-0.7660080945	 0.12083
H	 0.7064999267	-0.6398235762	 2.1906930619	 0.102609
H	-1.9878121347	-0.5589796982	 2.0638537713	 0.238382
H	-2.1629750974	-0.588635091	-0.6324769649	 0.108133
H	 0.5989999447	-3.3401930673	 0.2007549744	 0.30153
137.8037	147.6599	253.2755	281.3356	319.8749	364.1294	375.8492	488.2742	522.3973	573.0552	600.4062	659.9048	719.4668	767.9853	825.2919	867.705	912.3522	958.9662	1012.172	1062.0434	1106.1047	1129.7249	1134.1235	1167.7191	1191.3958	1204.6922	1224.008	1271.2729	1274.8626	1342.2196	1359.2217	1459.344	2344.2358	3117.6728	3128.8762	3173.9488	3419.1074	3722.6948	3805.6764
OC1C2NC1C2(O)C#N	O[C@H]1[C@H]2N[C@@H]1[C@]2(O)C#N	
InChI=1S/C5H6N2O2/c6-1-5(9)3-2(8)4(5)7-3/h2-4,7-9H	InChI=1S/C5H6N2O2/c6-1-5(9)3-2(8)4(5)7-3/h2-4,7-9H/t2-,3+,4-,5-
