13
gdb 28140	5.46303	1.36603	1.09382	2.5864	67.05	-0.1883	0.0155	0.2039	1006.6522	0.093303	-448.965013	-448.958394	-448.957449	-448.9958	25.808	
N	 0.0686747863	 1.3053417968	 0.1518943861	-0.587193
C	-0.0560585751	-0.0533636671	 0.0530666052	 0.432558
N	-1.1697556971	-0.7423325843	 0.0290076817	-0.433511
C	-0.6762337775	-2.0328631917	 0.0151481537	 0.318115
C	 0.6809012416	-2.0607077151	 0.0198303412	 0.316833
O	 1.1243564375	-0.754092329	 0.0462325539	-0.234478
N	 1.222503471	-3.2952017679	-0.0164692496	-0.349493
C	 0.1418629598	-4.0669000256	-0.0398448445	-0.022421
N	-1.0469967721	-3.3527313915	-0.0242897266	-0.390777
H	 0.9143303363	 1.6854600041	-0.2470531081	 0.269808
H	-0.7700305566	 1.8031282476	-0.1064972926	 0.273377
H	 0.1499885469	-5.144821812	-0.0651715458	 0.133253
H	-1.9742472412	-3.7416025843	-0.0344961846	 0.273929
145.332	270.92	306.2113	345.523	355.837	477.5309	553.0813	574.2289	610.4549	653.9343	717.8158	736.9115	766.5944	782.9174	852.4108	941.4332	975.3012	1070.7914	1114.0131	1170.7008	1257.1452	1358.3955	1376.5685	1442.3875	1469.2388	1529.1	1591.6487	1622.0219	1672.4034	3269.8967	3578.2383	3676.5929	3689.7309
NC1=NC2=C(O1)N=CN2	Nc1nc2c(o1)nc[nH]2	
InChI=1S/C4H4N4O/c5-4-8-2-3(9-4)7-1-6-2/h1H,(H2,5,8)(H,6,7)	InChI=1S/C4H4N4O/c5-4-8-2-3(9-4)7-1-6-2/h1H,(H2,5,8)(H,6,7)
