23
gdb 74752	2.7002	1.45353	1.27121	0.2634	91.15	-0.2109	0.0242	0.2351	1154.9704	0.205515	-351.133887	-351.124889	-351.123944	-351.166696	36.219	
C	-0.3488293394	 1.3332468394	-0.073737143	-0.521306
C	-0.1521370621	-0.1413407989	-0.1359721423	 0.349315
C	 0.0853985668	-0.9661634845	-1.1638115151	-0.203654
C	 0.2064749423	-2.3446827923	-0.5030106713	-0.099242
C	-1.0209634724	-2.25722533	 0.4667427312	-0.226184
C	-0.1564582294	-1.0991081011	 1.0706669214	-0.153058
C	 1.1173106886	-2.0015075885	 0.7580244619	 0.363859
C	 1.3559102202	-3.1599042028	 1.7370149833	-0.458902
C	 2.4654283666	-1.3162150134	 0.5267820486	-0.457726
H	 0.4222600509	 1.8143462014	 0.5427022665	 0.124609
H	-0.3128416849	 1.7828465976	-1.0706101223	 0.122672
H	-1.3136756992	 1.5932915435	 0.3809370151	 0.124453
H	 0.1921956712	-0.740181658	-2.2160980767	 0.089277
H	 0.3970190428	-3.2156902528	-1.1321440333	 0.050314
H	-1.9689228351	-1.9620545917	 0.013049069	 0.088819
H	-1.169616201	-3.1187199418	 1.1188078415	 0.091396
H	-0.3401738926	-0.6825947526	 2.0634366325	 0.048147
H	 0.4627742734	-3.7316573322	 1.9898061386	 0.113646
H	 2.0876683444	-3.8603608639	 1.3177917209	 0.112713
H	 1.7791223691	-2.7785237409	 2.6737097685	 0.112214
H	 2.8709503377	-0.9421983925	 1.4744417931	 0.105924
H	 3.1930847218	-2.0330521649	 0.1283782107	 0.107328
H	 2.4000515904	-0.480431409	-0.170021359	 0.115384
141.9552	167.4294	180.1834	185.1476	230.6815	299.6485	347.6842	384.7383	410.2856	506.8169	532.27	578.0979	613.9398	646.5349	777.2973	790.4496	832.3733	860.7539	866.0882	929.128	944.729	952.4034	988.4152	996.278	1014.8398	1042.3532	1064.5263	1088.3567	1112.4579	1163.3107	1173.6831	1188.3918	1213.6444	1227.2404	1242.1453	1263.4659	1281.0586	1308.9042	1398.1809	1412.5785	1418.2685	1476.8984	1480.2253	1485.6936	1488.576	1498.8994	1515.0586	1524.3759	1686.7458	3009.5487	3025.4884	3032.2637	3052.7402	3073.3806	3077.1603	3083.6634	3091.8573	3101.062	3102.0652	3125.6651	3138.1641	3144.6889	3219.7699
CC1=CC2CC1C2(C)C	CC1=C[C@@H]2C[C@H]1C2(C)C	
InChI=1S/C9H14/c1-6-4-7-5-8(6)9(7,2)3/h4,7-8H,5H2,1-3H3	InChI=1S/C9H14/c1-6-4-7-5-8(6)9(7,2)3/h4,7-8H,5H2,1-3H3/t7-,8-/m1/s1
