21
gdb 103623	2.64516	1.21446	1.07423	3.7583	74.71	-0.2436	0.0545	0.298	1228.1734	0.180798	-461.347901	-461.337998	-461.337054	-461.382114	37.719	
C	-0.0454867401	 1.5721206605	-0.0207258782	-0.405516
C	 0.1077799868	 0.0607122488	-0.0300758607	-0.046553
C	 1.2154377013	-0.6075129218	-0.9132866079	 0.124953
O	 2.3680769227	 0.1840294441	-1.0929923533	-0.440624
C	 1.3640228961	-1.6908678759	 0.1940044575	-0.293704
C	 0.7349190356	-0.6714317709	 1.1902780545	 0.398466
O	 1.7425234724	 0.171431297	 1.749882414	-0.48734
C	-0.1648159216	-1.1788203915	 2.3001916608	-0.164173
O	 0.6878845384	-1.8297592816	 3.2419033353	-0.436333
H	 0.9070120456	 2.0653401169	 0.1799766503	 0.129852
H	-0.4094597089	 1.9236477311	-0.9916475654	 0.114814
H	-0.7609701965	 1.8955075841	 0.7429235872	 0.107016
H	-0.8503785009	-0.4222161608	-0.2582202177	 0.0693
H	 0.9142813309	-0.9419255584	-1.9090070092	 0.073504
H	 2.6682197033	 0.4356056857	-0.2088650716	 0.287413
H	 0.7178992414	-2.5564657491	 0.0220348238	 0.095309
H	 2.3799681388	-2.0275993572	 0.4114729871	 0.100568
H	 2.0861579577	-0.3130502252	 2.512573748	 0.288071
H	-0.6879555843	-0.3295472799	 2.7636893775	 0.09823
H	-0.916082918	-1.8723204748	 1.8951405947	 0.090641
H	 0.2018156395	-1.9651977509	 4.0597765735	 0.296102
100.7972	124.6622	156.0119	173.5362	224.7914	250.6073	264.7015	325.6878	339.9457	402.657	441.5975	481.5363	529.6085	554.5243	602.5257	686.5049	769.2317	839.9201	857.7279	908.87	946.154	981.5809	1000.9928	1037.7992	1056.7239	1072.6626	1135.0954	1150.0855	1163.7514	1192.1106	1214.6279	1232.1446	1247.6623	1285.8639	1295.5158	1330.6046	1356.1766	1401.1742	1413.0653	1449.4805	1454.8898	1474.2214	1491.9625	1494.085	1506.4958	2985.9239	3025.636	3032.9428	3040.8912	3058.2397	3082.7499	3097.7471	3122.543	3137.1231	3751.2926	3763.6543	3842.1847
CC1C(O)CC1(O)CO	C[C@H]1[C@@H](O)C[C@]1(O)CO	
InChI=1S/C6H12O3/c1-4-5(8)2-6(4,9)3-7/h4-5,7-9H,2-3H2,1H3	InChI=1S/C6H12O3/c1-4-5(8)2-6(4,9)3-7/h4-5,7-9H,2-3H2,1H3/t4-,5-,6-/m0/s1
