20
gdb 61556	3.11014	0.84607	0.79331	1.8922	75.97	-0.2432	0.033	0.2762	1517.1312	0.169132	-440.30094	-440.290546	-440.289601	-440.338264	36.372	
C	-0.083527037	 1.8064476446	 0.1234157431	-0.395766
C	-0.0282186467	 0.2718870188	 0.1110167167	-0.080725
C	 0.6475561463	-0.3147404789	 1.372665306	-0.212409
C	 2.1160578974	 0.0160236997	 1.4700382757	 0.081001
C	 3.1069235653	-0.9670904982	 1.9244378641	-0.18053
O	 2.9742052865	-0.6540321248	 0.5367285403	-0.24105
C	-1.4552276588	-0.2797789698	 0.0439120237	 0.4058
N	-1.6982670758	-1.1563421443	-0.9723078228	-0.526708
O	-2.3070997139	 0.0308055046	 0.8559062996	-0.37888
H	 0.9149806365	 2.2423214025	 0.2129615698	 0.115915
H	-0.5302311527	 2.1888424742	-0.7996248908	 0.118151
H	-0.6985938375	 2.1482988982	 0.9599910419	 0.14225
H	 0.544028179	-0.0667868397	-0.7609352192	 0.081918
H	 0.1200182122	 0.0542829305	 2.2598318789	 0.123623
H	 0.5401369781	-1.4055813613	 1.363999494	 0.102426
H	 2.3645154118	 1.0690273427	 1.6078479059	 0.096186
H	 4.0307473833	-0.6319454581	 2.3941436567	 0.114891
H	 2.7765469155	-1.964440357	 2.2127182288	 0.113432
H	-0.9973265977	-1.4093350275	-1.6454874466	 0.260923
H	-2.6175819818	-1.5605467961	-1.0484266559	 0.259551
20.811	51.3594	84.2025	140.4489	155.8687	217.7337	231.5618	277.508	315.0084	377.8619	441.9302	520.8529	596.8515	618.3079	762.759	785.3341	812.7944	858.283	904.6016	914.3791	961.7014	1038.8568	1039.4065	1082.287	1109.2424	1124.2544	1158.7836	1162.9074	1180.9116	1240.1837	1277.5872	1295.6959	1326.3259	1349.1502	1403.2948	1409.4443	1447.3958	1472.3574	1495.1624	1505.4939	1530.1899	1617.094	1791.2962	3032.7475	3036.2432	3044.9316	3079.398	3081.4593	3104.4192	3112.7744	3129.4817	3167.4136	3601.9452	3742.2591
CC(CC1CO1)C(N)=O	C[C@@H](C[C@H]1CO1)C(=O)N	
InChI=1S/C6H11NO2/c1-4(6(7)8)2-5-3-9-5/h4-5H,2-3H2,1H3,(H2,7,8)	InChI=1S/C6H11NO2/c1-4(6(7)8)2-5-3-9-5/h4-5H,2-3H2,1H3,(H2,7,8)/t4-,5-/m0/s1
