23
gdb 115269	2.63773	1.1263	0.99092	2.7442	81.64	-0.2433	0.073	0.3163	1342.4734	0.204958	-425.447124	-425.437237	-425.436292	-425.482161	37.658	
C	 0.1450148643	 1.4924502719	 0.1925327885	-0.411503
C	 0.0365855059	-0.0283555714	 0.0230600631	 0.400961
C	-1.4202210901	-0.4835223033	 0.1158024854	-0.420396
C	 0.7406484505	-0.5222006974	-1.2619436839	-0.261789
C	 2.1678722552	-0.8331834767	-0.7918403979	-0.254765
C	 1.9295518442	-1.3455174617	 0.6307425458	 0.125168
C	 3.0515637178	-1.0790594389	 1.6260114022	-0.062696
O	 2.6834419409	-1.4632247709	 2.9350647444	-0.425683
O	 0.7679330802	-0.6528021349	 1.1041235128	-0.335908
H	 1.1784601544	 1.8313156263	 0.0724299321	 0.111639
H	-0.4751131911	 2.0139001375	-0.5441015998	 0.110872
H	-0.1910612635	 1.782181912	 1.1923686334	 0.120699
H	-2.0118313255	-0.0644240285	-0.7049739416	 0.112049
H	-1.4838348374	-1.5742884953	 0.0670104618	 0.116043
H	-1.866996132	-0.1568247961	 1.0596956818	 0.119306
H	 0.2563121173	-1.4346252661	-1.6260069863	 0.100841
H	 0.7005989509	 0.2179773683	-2.0650542226	 0.102985
H	 2.6794062144	-1.564320967	-1.4221717693	 0.10549
H	 2.7795403434	 0.0762992789	-0.7698955878	 0.104007
H	 1.7159567587	-2.4261934086	 0.6235711739	 0.071909
H	 3.9412934026	-1.6600146843	 1.358103029	 0.101862
H	 3.3171135799	-0.0093701929	 1.5786817389	 0.078916
H	 1.8194096388	-1.0618524709	 3.087998536	 0.289992
34.8324	105.7409	142.868	212.5256	224.7722	256.8924	313.1967	338.5211	384.0838	409.6695	445.1798	462.6281	484.8519	584.9738	609.4882	763.1253	816.4161	899.8349	907.1819	926.5825	941.3822	969.0055	982.5311	1008.2381	1059.0096	1069.6917	1093.7181	1108.0463	1154.4596	1172.9116	1225.2904	1243.623	1254.9273	1267.6272	1310.2631	1339.3128	1359.3894	1368.7918	1397.0892	1400.9359	1414.2366	1442.0186	1475.0247	1481.4624	1491.2126	1494.2618	1498.211	1502.0673	1507.6984	2959.7101	2979.3486	3032.9599	3037.5032	3042.611	3048.3192	3067.3546	3099.1557	3104.2997	3107.6028	3110.2425	3114.9385	3116.334	3790.1845
CC1(C)CCC(CO)O1	CC1(C)CC[C@@H](CO)O1	
InChI=1S/C7H14O2/c1-7(2)4-3-6(5-8)9-7/h6,8H,3-5H2,1-2H3	InChI=1S/C7H14O2/c1-7(2)4-3-6(5-8)9-7/h6,8H,3-5H2,1-2H3/t6-/m0/s1
