18
gdb 30803	2.29841	1.34892	0.88134	2.806	78.37	-0.1769	0.0319	0.2088	1311.4826	0.148025	-435.306387	-435.296626	-435.295681	-435.342036	34.637	
C	-0.0609656541	 1.4455471052	 0.034661927	-0.498865
C	-0.061532367	-0.0456516018	-0.0173943373	 0.338596
N	 0.0258273505	-0.7738602687	-1.1165124941	-0.349371
C	 0.0296795337	-2.0834874105	-0.7023166866	 0.177296
N	 0.0477192513	-3.1157222943	-1.6491281775	-0.601638
C	-0.0654644791	-2.1625333434	 0.6676541848	 0.273858
C	-0.1675166422	-3.285326776	 1.6285561303	-0.219807
O	 0.7360929174	-3.043307922	 2.71313236	-0.425887
N	-0.1386711978	-0.8358358705	 1.0834292608	-0.330773
H	 0.8138761951	 1.8358267915	 0.5684112503	 0.130528
H	-0.0387243105	 1.830417466	-0.9855709666	 0.154239
H	-0.9539445254	 1.8377020076	 0.5346983473	 0.129368
H	 0.3687506192	-2.7571246652	-2.5400824186	 0.246398
H	 0.6216442635	-3.9019768811	-1.3712298455	 0.237746
H	-1.1941630932	-3.3859161494	 2.0219106017	 0.095651
H	 0.064575327	-4.2264464518	 1.1069873388	 0.09533
H	 0.5442203164	-3.6859962398	 3.4038342206	 0.285125
H	-0.0853550651	-0.5443837458	 2.0452089745	 0.262204
42.9957	48.6171	124.7761	190.4496	206.3613	253.3467	270.776	312.9216	323.8786	406.6099	511.6573	528.4793	629.5552	640.3152	686.7897	710.629	791.4222	837.327	981.4996	1018.6423	1032.0791	1042.5042	1059.7406	1101.106	1194.5829	1207.7102	1250.3615	1272.492	1339.961	1408.2016	1434.354	1448.6992	1476.3205	1482.6816	1509.4402	1514.3993	1564.3751	1636.4494	1666.62	2940.8424	2994.5333	3028.0175	3076.3672	3147.6294	3529.5798	3624.0706	3663.9685	3811.3613
CC1=NC(N)=C(CO)N1	Cc1nc(N)c(CO)[nH]1	
InChI=1S/C5H9N3O/c1-3-7-4(2-9)5(6)8-3/h9H,2,6H2,1H3,(H,7,8)	InChI=1S/C5H9N3O/c1-3-7-4(2-9)5(6)8-3/h9H,2,6H2,1H3,(H,7,8)
