20
gdb 103200	2.99663	1.49689	1.26245	2.7875	77.	-0.239	0.0617	0.3007	1074.2418	0.170837	-403.086056	-403.07771	-403.076765	-403.118754	32.81	
C	-0.0853100011	 1.5881611913	 0.0622058315	-0.402092
C	-0.0112989463	 0.0564127174	 0.0316164947	-0.246503
C	 0.6278004226	-0.4985001715	-1.2406706833	 0.444061
O	 1.9934878626	-0.1121132357	-1.3328629507	-0.488698
C	 0.5658872134	-1.984866373	-1.5428979573	-0.089901
C	-0.7017969281	-2.2799894502	-2.2802918982	-0.046954
C	-1.4764997956	-0.9903212791	-2.4938407399	-0.257037
C	-0.0756962543	-0.3674622368	-2.622954475	-0.083677
N	 0.498429283	-1.7677070308	-3.0265648469	-0.153044
H	 0.9120207214	 2.0398681291	 0.0247169592	 0.11354
H	-0.6660328771	 1.9802094446	-0.7805784225	 0.118803
H	-0.5616883488	 1.9394099816	 0.9818041841	 0.12196
H	 0.5839450404	-0.3016732042	 0.8799178784	 0.107749
H	-1.0145770287	-0.3639301082	 0.1552583089	 0.100843
H	 2.02427997	 0.8363423612	-1.4943727333	 0.278871
H	 1.1911877828	-2.7610508416	-1.1159438763	 0.097558
H	-1.0510170248	-3.297459887	-2.4182459327	 0.097078
H	-1.9871794318	-1.0112544946	-3.4604768564	 0.114068
H	-2.1615771494	-0.618292388	-1.7259830157	 0.097315
H	 0.1208073998	 0.4947183057	-3.2596259186	 0.076059
76.2442	165.6368	197.8865	230.1164	272.7934	308.9438	389.789	409.5795	474.4664	538.2134	637.9661	755.1171	780.5027	789.0973	818.3971	825.1132	898.7206	944.0184	948.742	986.5254	993.9308	1030.7931	1034.2053	1039.991	1058.2588	1107.3018	1117.0894	1131.6442	1177.6747	1187.807	1217.4847	1240.1954	1262.8951	1295.7438	1312.7388	1354.0242	1372.246	1404.3394	1415.8009	1476.0023	1498.4484	1504.9072	1511.3645	3030.7816	3039.8233	3047.1184	3074.6638	3097.7474	3101.7661	3107.9378	3122.0305	3172.8794	3185.3622	3815.9536
CCC1(O)C2C3CC1N23	CC[C@@]1(O)[C@H]2[C@H]3C[C@@H]1N23	
InChI=1S/C7H11NO/c1-2-7(9)5-3-4-6(7)8(4)5/h4-6,9H,2-3H2,1H3	InChI=1S/C7H11NO/c1-2-7(9)5-3-4-6(7)8(4)5/h4-6,9H,2-3H2,1H3/t4-,5+,6-,7+,8?/m1/s1
