20
gdb 107577	2.63756	1.54374	1.12623	2.9221	80.21	-0.2515	0.0279	0.2795	1139.6761	0.172294	-403.167227	-403.158775	-403.157831	-403.200172	32.545	
C	-0.4371212195	 1.485024325	-0.139348274	-0.380393
C	 0.1762515639	 0.0951402383	 0.0713483171	-0.27675
C	 0.8434659119	-0.4611889713	-1.1685841553	 0.284591
C	 0.0108315741	-1.01114394	-2.3173983628	-0.319631
C	 0.9022390241	-1.9319917083	-1.5402407008	-0.132783
C	 2.2777106009	-2.1646484274	-2.1288229693	-0.108536
O	 2.8501081496	-0.858783946	-2.3233424107	-0.250157
C	 2.1591249916	 0.0890022943	-1.6114043251	 0.360334
N	 2.5975900737	 1.2501275403	-1.370565602	-0.547765
H	 0.3346012748	 2.1967324507	-0.4392378725	 0.158733
H	-1.2043971224	 1.4602307996	-0.9207167148	 0.107319
H	-0.9068122749	 1.8432592868	 0.7819938046	 0.104463
H	 0.9137871029	 0.1383664941	 0.8809900208	 0.108931
H	-0.6009632703	-0.6100504728	 0.3915587033	 0.089697
H	-1.0562044273	-1.079155931	-2.1349806325	 0.120882
H	 0.2814208908	-0.7532582035	-3.3365976385	 0.126031
H	 0.4736741784	-2.6917680992	-0.8978420524	 0.100207
H	 2.9176505264	-2.7349900554	-1.4442655836	 0.114701
H	 2.2663230784	-2.6692811847	-3.1003711679	 0.118891
H	 3.5427528931	 1.3585426205	-1.7415464535	 0.221235
98.0842	127.566	182.5081	212.5573	249.3011	292.3172	347.8949	419.9711	460.306	595.4403	668.4525	705.9355	751.1568	780.2015	843.6426	869.2254	889.3038	916.3683	949.8108	979.0942	991.2722	1009.4626	1058.1033	1065.8091	1092.1067	1105.9369	1115.385	1142.4015	1226.4239	1230.8901	1257.526	1300.8497	1363.4667	1365.8098	1386.6683	1409.0638	1419.9936	1477.961	1492.9815	1495.5684	1515.6225	1521.2907	1767.7318	3024.6025	3027.2623	3037.8221	3064.9537	3075.938	3101.6799	3127.4713	3138.8147	3185.862	3216.8593	3475.5962
CCC12CC1COC2=N	CC[C@]12C[C@H]1CO[C]2[NH]	
InChI=1S/C7H11NO/c1-2-7-3-5(7)4-9-6(7)8/h5,8H,2-4H2,1H3	InChI=1S/C7H11NO/c1-2-7-3-5(7)4-9-6(7)8/h5,8H,2-4H2,1H3/t5-,7-/m0/s1
