23
gdb 100666	2.57544	1.09425	0.95871	2.9554	82.74	-0.248	-0.0205	0.2275	1369.5396	0.200955	-425.434672	-425.423137	-425.422192	-425.471466	41.03	
C	-0.0586427795	 1.4010623861	-0.0717521255	-0.239184
O	-0.0286186309	 0.0018107686	 0.0926236533	-0.252391
C	-1.2918471725	-0.6418013736	 0.0059067202	 0.126028
C	-1.7727142249	-0.7454876537	-1.4452395658	-0.421974
C	-1.14658225	-2.017627666	 0.720557911	 0.148191
C	-0.1560665816	-2.9455162809	 0.0082976999	-0.419974
C	-0.7118299576	-1.772773846	 2.1842798461	-0.431891
C	-2.5310644845	-2.6476193609	 0.7906121048	 0.141548
O	-2.8289087658	-3.738477214	 0.3779350703	-0.256337
H	 0.9527290049	 1.7671943566	 0.1217192197	 0.130036
H	-0.3480592769	 1.7023078912	-1.0884450612	 0.110827
H	-0.7502886661	 1.8779268994	 0.6402937442	 0.105295
H	-2.029318507	-0.0506659824	 0.5781405718	 0.061327
H	-1.0280952088	-1.2509885183	-2.0649082393	 0.134905
H	-2.7115436765	-1.3046292287	-1.5092695141	 0.130254
H	-1.9523268856	 0.2464563616	-1.8687013174	 0.11787
H	 0.804649768	-2.4412179477	-0.1182632938	 0.127191
H	-0.0011190556	-3.8559119432	 0.5929901918	 0.119748
H	-0.5268312012	-3.2547269944	-0.9713094455	 0.125439
H	-1.4458437278	-1.1637881253	 2.7245758019	 0.110035
H	-0.5970943048	-2.7202916643	 2.7190220114	 0.121689
H	 0.2411339044	-1.2413799599	 2.1968609456	 0.142648
H	-3.2910774198	-2.006425144	 1.3002427205	 0.06872
63.3769	65.8747	77.8464	174.9525	189.1547	207.4735	221.4995	244.5503	270.95	287.217	317.0563	344.4668	361.962	393.083	460.187	525.5011	659.2173	760.8324	837.6137	892.7184	921.4198	957.9697	995.1762	1014.8722	1066.0774	1072.1937	1116.1346	1150.2038	1182.1762	1199.971	1212.4145	1225.8499	1282.8133	1361.9691	1383.4885	1390.8248	1406.2664	1411.5596	1435.2184	1476.3153	1480.9664	1481.1021	1490.299	1492.0065	1504.1203	1504.6291	1511.0163	1516.5809	1830.097	2833.9338	2937.6239	2979.3972	3031.5891	3034.0574	3048.3223	3056.2169	3100.3741	3111.8429	3113.6062	3123.7559	3131.3003	3137.7042	3139.9065
COC(C)C(C)(C)C=O	CO[C@@H](C)C(C)(C)C=O	
InChI=1S/C7H14O2/c1-6(9-4)7(2,3)5-8/h5-6H,1-4H3	InChI=1S/C7H14O2/c1-6(9-4)7(2,3)5-8/h5-6H,1-4H3/t6-/m0/s1
