18
gdb 14207	2.7892	2.37169	1.8454	1.1378	71.7	-0.2286	0.0739	0.3025	823.071	0.154027	-347.752653	-347.74538	-347.744436	-347.783521	29.068	
C	-0.1421200939	 1.434005826	-0.012343306	-0.506781
C	 0.0090446709	-0.0571197189	-0.0400339341	 0.302238
C	 0.9496216725	-0.8958679847	-0.9066337556	-0.272985
C	 0.1078698258	-2.1283306374	-0.4756423041	-0.134317
C	 0.4030124405	-2.2641491073	 1.0435522815	-0.226655
C	-0.325139358	-0.9337386439	 1.2127965666	-0.193209
C	-1.0628791413	-1.1024545524	-0.0968152281	 0.334344
O	-2.3737508685	-0.9636897218	-0.4714718482	-0.455081
H	 0.7340443936	 1.9194303557	 0.4332252529	 0.116235
H	-0.2685763366	 1.8363905982	-1.0238605282	 0.119514
H	-1.0205310308	 1.730065754	 0.5705401518	 0.121612
H	 0.8204681275	-0.6587584409	-1.9671621773	 0.096839
H	 2.0189396706	-0.9152858829	-0.6621182972	 0.082763
H	 0.028955166	-3.0054272458	-1.1149291216	 0.067739
H	-0.1500129845	-3.0894878391	 1.5024885395	 0.090066
H	 1.4579598854	-2.3264422036	 1.3348526526	 0.087749
H	-0.6698721873	-0.4551178852	 2.1213146295	 0.08096
H	-2.9038119118	-1.6083447699	 0.011087956	 0.288969
179.5441	191.4099	238.0456	291.6759	332.4326	367.3478	434.0014	520.1744	588.9689	656.2871	689.806	765.5526	836.3355	900.7431	908.171	928.456	953.8305	980.7261	993.8155	1011.0393	1062.367	1085.8332	1113.5189	1141.4874	1167.8814	1196.0687	1216.9151	1231.7721	1261.0934	1283.5754	1297.5165	1351.5774	1418.2169	1477.3734	1486.5209	1493.4427	1499.6358	1525.4458	3020.6933	3023.4565	3031.9631	3081.2398	3084.4663	3087.4327	3095.7195	3134.3812	3190.71	3781.5268
CC12CC3CC1C23O	C[C@@]12C[C@H]3C[C@@H]1[C@@]23O	
InChI=1S/C7H10O/c1-6-3-4-2-5(6)7(4,6)8/h4-5,8H,2-3H2,1H3	InChI=1S/C7H10O/c1-6-3-4-2-5(6)7(4,6)8/h4-5,8H,2-3H2,1H3/t4-,5+,6-,7-/m1/s1
