16
gdb 33958	3.31912	1.43522	1.24323	3.5748	73.72	-0.2481	0.0099	0.258	1015.2944	0.126936	-396.891047	-396.884051	-396.883107	-396.92237	27.839	
N	 0.0772419856	-1.1575511428	-0.0620658499	-0.341477
C	 0.0685472812	-0.0025044498	 0.0131755445	 0.183759
C	 0.0411494028	 1.4278243117	 0.1057428981	 0.237242
N	 0.2874607775	 2.2466612696	-1.1070005696	-0.335525
C	 1.2896074576	 2.2583608536	-0.0398350401	-0.090442
C	 1.2064275147	 3.4384628356	 0.9290607249	-0.22316
C	-0.1347109671	 3.2992309964	 1.6520074322	-0.040021
N	-1.3196188224	 3.4265207987	 0.7860252498	-0.305417
C	-0.8424689104	 2.0867223088	 1.155829396	-0.128242
H	 0.5968499022	 1.6367980638	-1.8619088383	 0.248189
H	 2.2499945283	 1.7858924198	-0.2212142444	 0.112993
H	 2.0237149652	 3.3679889255	 1.6539742469	 0.112506
H	 1.2933161893	 4.394370185	 0.4048810424	 0.132183
H	-0.2058569755	 3.6162089389	 2.6877506152	 0.096613
H	-2.1334091627	 3.6569204932	 1.3515997365	 0.237132
H	-1.4406116762	 1.4455459618	 1.7923545257	 0.103668
138.5191	154.9007	263.416	323.267	409.9406	472.6208	514.129	552.4161	613.687	695.5407	725.0295	802.242	845.7237	855.6318	871.7152	891.3797	926.8525	977.5994	1013.0482	1031.9551	1057.34	1089.889	1132.9407	1155.0587	1186.299	1208.96	1238.7383	1266.4474	1278.6778	1335.7541	1361.9701	1422.3877	1430.4734	1466.2368	2346.3492	3057.2439	3105.0711	3158.3987	3163.2261	3186.9563	3491.4641	3498.7521
N#CC12NC1CC1NC21	N#C[C@]12N[C@H]1C[C@H]1N[C@@H]21	
InChI=1S/C6H7N3/c7-2-6-4(9-6)1-3-5(6)8-3/h3-5,8-9H,1H2	InChI=1S/C6H7N3/c7-2-6-4(9-6)1-3-5(6)8-3/h3-5,8-9H,1H2/t3-,4+,5-,6+/m1/s1
