17
gdb 69735	3.71006	1.58106	1.39633	2.1594	70.25	-0.2292	0.0712	0.3004	936.0305	0.136701	-421.732337	-421.725743	-421.724799	-421.76286	27.991	
O	-0.108624723	 1.3906499764	 0.0319435839	-0.46741
C	 0.0019458778	 0.0020716706	-0.0040854893	 0.380814
C	-0.3538397754	-0.7705114608	-1.2534559785	-0.361061
C	-1.2370089805	-0.8555038465	-0.0154111846	-0.122483
C	-0.8913425261	-1.8951190363	 1.0334621598	-0.043072
C	 0.6258772105	-2.2392846387	 0.9470680954	 0.030508
O	 0.7201102667	-2.3980584489	 2.4025935274	-0.31863
C	-0.0982238676	-1.2001626144	 2.1996504123	 0.053347
C	 0.8465030222	-0.7021021379	 1.0473837353	-0.114568
H	 0.6513293917	 1.7635271116	-0.4279499252	 0.284513
H	-0.7542527738	-0.1726682149	-2.0656959102	 0.116755
H	 0.2338182628	-1.6262017267	-1.5704960612	 0.111758
H	-2.2213036024	-0.404468882	-0.0443756538	 0.101949
H	-1.5845685991	-2.6969294261	 1.2832556643	 0.081301
H	 1.1387312976	-2.9751154836	 0.3267884879	 0.093484
H	-0.4627073041	-0.6739008466	 3.0825084851	 0.096643
H	 1.8383266828	-0.3295093653	 1.3012619814	 0.076151
206.1054	266.8592	298.8933	352.9396	430.8324	500.9489	521.4817	579.8887	662.6045	762.2511	763.4491	840.4414	864.3162	881.9895	889.4588	899.3868	926.342	947.2483	968.042	989.3391	1015.1068	1042.0952	1063.239	1078.616	1124.3658	1153.1485	1160.9591	1181.9616	1201.1796	1221.5446	1242.9135	1271.1136	1315.4188	1328.0514	1338.1103	1408.2076	1485.8144	3106.7169	3113.102	3125.6625	3132.3637	3139.3179	3191.02	3214.9425	3796.8987
OC12CC1C1C3OC1C23	O[C@]12C[C@H]1[C@H]1[C@@H]3O[C@H]1[C@H]23	
InChI=1S/C7H8O2/c8-7-1-2(7)3-5-4(7)6(3)9-5/h2-6,8H,1H2	InChI=1S/C7H8O2/c8-7-1-2(7)3-5-4(7)6(3)9-5/h2-6,8H,1H2/t2-,3-,4+,5-,6+,7+/m0/s1
