20
gdb 113896	3.76308	0.78733	0.77097	6.0166	76.33	-0.25	0.0261	0.2761	1567.1099	0.170985	-440.307048	-440.297649	-440.296704	-440.342387	34.219	
C	-0.2372799432	 1.3161384836	-0.7902624351	-0.381223
C	 0.0274866801	 0.0734547888	 0.0681222495	-0.188915
C	-1.2539687076	-0.5388878862	 0.5841463101	-0.001228
N	-1.9968882489	-1.4276218427	-0.3285157558	-0.353098
H	-3.0006766711	-1.2917330096	-0.2625214039	 0.247661
H	-1.5289111281	-2.9319865303	-1.259045718	 0.311473
C	-1.4428288762	-1.9757725632	 0.9344251758	-0.039874
C	-0.370959973	-3.0443987685	 0.7937528979	-0.356429
C	-0.7615680518	-4.2330561811	-0.0975170745	 0.40181
O	-1.3501294363	-3.9002354166	-1.2573271915	-0.371429
O	-0.5194765401	-5.3742012919	 0.1898420496	-0.327068
H	 0.6984619038	 1.7460737562	-1.1583112939	 0.121031
H	-0.8576062034	 1.0626198921	-1.6554129104	 0.130518
H	-0.758140291	 2.0913041896	-0.2175131184	 0.116071
H	 0.5779870203	-0.6646863274	-0.5231469049	 0.111184
H	 0.6625893696	 0.3351777099	 0.9238872799	 0.107451
H	-1.869194741	 0.1542545955	 1.1579797055	 0.094809
H	-2.1696630439	-2.1798987141	 1.7174933826	 0.106792
H	 0.5408073723	-2.6179980264	 0.3615457174	 0.13377
H	-0.1049117105	-3.4450809977	 1.7732197481	 0.136695
44.4318	72.7929	92.2673	179.0807	217.3347	250.5403	273.3842	373.5917	441.0571	483.2535	517.4883	596.427	700.4104	758.9104	810.5053	831.5975	848.3985	885.5355	930.1464	957.2881	967.3707	995.3476	1037.9947	1061.6915	1110.4636	1154.5922	1170.0886	1234.6629	1249.4178	1270.3689	1289.9812	1305.0622	1307.2172	1344.4263	1408.7142	1417.168	1454.2816	1467.4524	1470.5647	1477.8191	1499.1869	1507.9798	1864.2106	3032.8767	3036.5489	3056.6518	3078.5106	3103.5932	3111.9041	3116.3411	3121.754	3138.7614	3400.6052	3525.4918
CCC1[NH2+]C1CC([O-])=O	CC[C@H]1N[C@H]1CC(=O)O	
InChI=1S/C6H11NO2/c1-2-4-5(7-4)3-6(8)9/h4-5,7H,2-3H2,1H3,(H,8,9)	InChI=1S/C6H11NO2/c1-2-4-5(7-4)3-6(8)9/h4-5,7H,2-3H2,1H3,(H,8,9)/t4-,5+/m1/s1
