15
gdb 17730	4.66787	2.59462	2.1146	0.9899	63.87	-0.2397	0.0766	0.3163	664.35	0.120822	-362.528393	-362.523164	-362.52222	-362.55734	22.177	
C	-0.0856536824	 1.5311858894	 0.002626547	-0.251289
N	 1.4485039283	 1.3157882749	-0.0277985102	-0.186453
C	 1.295354947	 0.1665231974	 0.9968266297	-0.037799
C	 1.8239343941	-0.9948317511	 0.1412348357	-0.141389
C	 0.6726517615	-2.0545386253	 0.2595295843	-0.115758
O	-0.5566519581	-1.2515411394	 0.2346393941	-0.345653
C	 0.0447472544	 0.0104417185	 0.1174745565	 0.400164
C	 1.238450307	 0.0221519441	-0.8502948767	-0.037798
H	-0.4292643668	 2.0910062073	 0.8766595712	 0.11513
H	-0.4847658097	 1.9501800246	-0.9250342483	 0.11513
H	 1.3482215184	 0.349069967	 2.0693331614	 0.086107
H	 2.8486655234	-1.3681639974	 0.138845254	 0.081196
H	 0.6556984569	-2.7550916101	-0.5817027911	 0.116153
H	 0.7105476673	-2.6159351982	 1.1987479536	 0.116153
H	 1.2247230886	 0.0357501083	-1.9393381815	 0.086107
268.0342	421.777	429.5601	454.8315	675.4325	718.5491	773.806	806.739	837.0049	847.5876	868.3445	890.6878	908.5807	926.7051	951.8402	979.9338	1018.7857	1047.8186	1089.1383	1108.3407	1119.9677	1159.6124	1169.011	1179.6813	1233.2382	1235.6296	1263.0133	1276.8906	1312.1431	1363.5282	1506.3071	1515.5438	3041.9305	3055.5273	3091.3131	3108.5099	3123.7981	3124.0674	3131.5285
C1N2C3C4COC13C24	C1N2[C@@H]3[C@H]4CO[C@@]13[C@@H]24	
InChI=1S/C6H7NO/c1-3-4-6(8-1)2-7(4)5(3)6/h3-5H,1-2H2	InChI=1S/C6H7NO/c1-3-4-6(8-1)2-7(4)5(3)6/h3-5H,1-2H2/t3-,4-,5+,6+
