15
gdb 28988	3.08149	1.49695	1.00751	0.7816	86.01	-0.2204	-0.0302	0.1901	1108.2315	0.113658	-383.534806	-383.527309	-383.526365	-383.566526	29.666	
O	 0.0671421657	 1.336043927	-0.0212460286	-0.436588
C	 0.0482666083	-0.01572017	-0.0013442883	 0.308622
C	 0.0337625052	-0.6979236483	-1.2172044586	-0.183656
C	 0.0142291016	-2.0866642595	-1.2314594402	-0.103143
C	 0.0088719584	-2.8139014604	-0.0391450704	-0.119069
C	 0.023242878	-2.1400718348	 1.1730642507	-0.19516
C	 0.0430714801	-0.7376713862	 1.212525116	 0.048976
C	 0.0582868511	-0.0061549382	 2.4319636148	 0.18023
C	 0.0719061291	 0.6816862125	 3.4233882918	-0.411994
H	 0.0752887036	 1.6520257021	 0.8941616134	 0.295982
H	 0.0381328958	-0.1206868822	-2.1344154708	 0.108789
H	 0.0030591122	-2.6075991586	-2.1831495725	 0.102863
H	-0.0063988822	-3.8974237938	-0.0578619477	 0.098157
H	 0.0194015367	-2.6852929584	 2.1100450601	 0.10602
H	 0.0834430363	 1.2564798889	 4.3164241905	 0.19997
131.1291	140.6052	236.9697	385.9556	388.0258	463.6611	487.3157	495.8303	545.1956	563.76	580.3108	592.0214	674.1384	742.3015	753.3377	775.9249	855.4044	882.2092	939.3375	968.8451	1053.2059	1113.1646	1177.099	1199.249	1252.8546	1284.8104	1332.2998	1382.9208	1495.5941	1514.5204	1612.6266	1654.7611	2209.6421	3178.9847	3191.5038	3203.0295	3208.9864	3497.9639	3724.8032
OC1=CC=CC=C1C#C	Oc1ccccc1C#C	
InChI=1S/C8H6O/c1-2-7-5-3-4-6-8(7)9/h1,3-6,9H	InChI=1S/C8H6O/c1-2-7-5-3-4-6-8(7)9/h1,3-6,9H
