15
gdb 28388	3.2253	1.41609	0.9851	1.3504	77.1	-0.1757	-0.0216	0.154	1121.123	0.113588	-453.985096	-453.977154	-453.97621	-454.017191	30.985	
N	 0.0247759328	 1.4045002426	 0.1452255126	-0.585766
C	-0.0544044831	 0.0206791538	 0.043608639	 0.213069
C	-1.1990160545	-0.7137808444	 0.0149267436	-0.157907
C	-1.1669689333	-2.147505535	-0.0213360937	-0.291741
C	 0.0336604911	-2.7513189296	-0.0209426405	 0.455211
O	 0.2402979028	-4.0791855674	-0.0407597558	-0.410823
O	 1.1952138728	-2.0533951251	-0.0009460038	-0.276908
C	 1.2321810537	-0.663959669	 0.0125729853	 0.364244
N	 2.3424096222	-0.0407418185	-0.0079113956	-0.555602
H	 0.9363613185	 1.7542706134	-0.1207398008	 0.265896
H	-0.739709624	 1.9123021706	-0.2740695054	 0.243866
H	-2.1611236097	-0.2123356993	 0.0274433207	 0.095962
H	-2.0677126215	-2.7429487656	-0.0420299274	 0.112809
H	 1.1930512948	-4.2319052713	-0.0457038253	 0.307687
H	 3.1346368671	-0.6796585052	-0.037314943	 0.220003
119.3906	168.4159	272.2923	319.8427	330.2319	345.6126	384.7441	406.5471	473.5608	523.8331	585.0415	634.9742	649.3424	743.8997	758.3565	787.8626	798.543	809.0464	892.8366	977.0794	1023.5977	1094.4398	1153.2618	1203.0403	1247.9983	1287.4114	1325.9658	1426.8538	1446.8054	1614.5202	1656.9216	1689.8246	1752.2628	3183.4465	3241.6446	3513.9073	3545.7723	3660.1505	3810.1879
NC1=CC=C(O)OC1=N	NC1=C(OC(=CC1)O)[NH]	
InChI=1S/C5H6N2O2/c6-3-1-2-4(8)9-5(3)7/h1-2,7-8H,6H2	InChI=1S/C5H7N2O2/c6-3-1-2-4(8)9-5(3)7/h2,7-8H,1,6H2
