12
gdb 128984	4.05444	1.85446	1.27245	5.0591	69.76	-0.2635	-0.0896	0.1738	870.0839	0.083182	-427.87866	-427.873166	-427.872221	-427.908508	21.627	
N	 0.0245096387	 1.2494127943	 0.009037258	-0.1795
C	 1.1525744862	 1.9964254033	 0.0022254819	 0.083023
N	 2.3683123048	 1.50455731	-0.0123653276	-0.314627
C	 2.3952428762	 0.15965915	-0.0200318885	 0.35139
N	 3.4276118418	-0.6639718865	-0.0357200881	-0.33851
C	 2.806185557	-1.8929934075	-0.0358147751	 0.043012
N	 1.4738153274	-1.9543057834	-0.0221318441	-0.322203
C	 1.1491350466	-0.6375355664	-0.0127072655	 0.363825
N	-0.0424951184	-0.0942543089	 0.0021105414	-0.272155
H	-0.8785914466	 1.7027592844	 0.0204512072	 0.298222
H	 0.994867859	 3.0705116354	 0.0097351931	 0.155868
H	 3.4044332571	-2.7970346247	-0.0465054927	 0.131656
232.7141	270.4238	420.6843	512.5278	573.2606	596.0572	635.116	639.41	707.6072	789.2509	846.7537	919.5809	919.8158	954.0372	990.0679	1056.2557	1133.8916	1186.0762	1269.7984	1318.0748	1357.5055	1410.8534	1436.7164	1503.6122	1573.4731	1605.9019	1638.1452	3189.4807	3217.5202	3608.0504
N1C=NC2=NC=NC2=N1	[nH]1cnc2ncnc2n1	
InChI=1S/C4H3N5/c1-5-3-4(6-1)9-8-2-7-3/h1-2H,(H,5,6,7,8,9)	InChI=1S/C4H3N5/c1-5-3-4(6-1)9-8-2-7-3/h1-2H,(H,5,6,7,8,9)
