20
gdb 59387	4.14123	0.81258	0.71785	5.1623	78.33	-0.2396	0.0265	0.2662	1570.9586	0.169603	-440.293725	-440.283814	-440.28287	-440.329944	34.958	
C	 0.124253908	 1.4418344173	-0.1773629073	-0.410711
C	-0.050068419	-0.0644812296	 0.013235507	 0.124523
O	 0.7337912206	-0.5509581865	 1.0980114577	-0.427836
C	-1.5117473407	-0.469427194	 0.188915215	-0.012696
C	-2.4132582753	-0.4201496393	-1.085715276	-0.207852
N	-2.6040334305	-1.8641496607	-0.9472499966	-0.034267
C	-1.7783986317	-2.0024466859	 0.2529674086	-0.190884
C	-3.3777764322	-2.7661224006	-1.5862217051	 0.131225
O	-3.4709331467	-3.9368641955	-1.2765306118	-0.331743
H	 1.1827683328	 1.6884006096	-0.293363346	 0.131916
H	-0.4130694392	 1.8001206614	-1.0615377006	 0.122112
H	-0.2627239264	 1.9890390919	 0.6916258788	 0.109297
H	 0.3502153503	-0.5877143576	-0.8652572617	 0.094537
H	 0.4809232882	-0.0611643864	 1.8888195928	 0.278638
H	-1.9459960046	 0.0763874353	 1.0326853701	 0.073961
H	-3.3317190665	 0.1695308622	-0.9915589826	 0.11689
H	-1.8952181976	-0.1214206169	-2.0058495224	 0.113764
H	-0.8922473444	-2.6296650793	 0.1165535171	 0.133974
H	-2.3328668745	-2.361237518	 1.1253574868	 0.121503
H	-3.9244371408	-2.3109741475	-2.4391390439	 0.063649
26.133	77.5261	89.8846	147.3458	214.4087	244.3465	286.262	305.0787	320.807	353.4222	448.8825	486.3981	570.781	762.8336	807.5687	889.6338	904.9001	941.1343	980.3333	1010.9777	1028.093	1034.5259	1085.8199	1118.8569	1138.5181	1160.9217	1190.4622	1201.5266	1259.6093	1276.2213	1286.4724	1319.9756	1332.9363	1389.4589	1405.9606	1408.6203	1421.3633	1453.9584	1491.7124	1496.2793	1507.1208	1525.5996	1792.3575	2910.1748	3014.9643	3023.4973	3028.2025	3048.5059	3052.9089	3067.0587	3093.7381	3095.6737	3121.5081	3795.7341
CC(O)C1CN(C1)C=O	C[C@@H](O)C1CN(C1)C=O	
InChI=1S/C6H11NO2/c1-5(9)6-2-7(3-6)4-8/h4-6,9H,2-3H2,1H3	InChI=1S/C6H11NO2/c1-5(9)6-2-7(3-6)4-8/h4-6,9H,2-3H2,1H3/t5-/m1/s1
