18
gdb 46998	2.71862	1.76212	1.42017	3.0627	71.02	-0.2413	0.0312	0.2725	956.9199	0.151894	-439.136943	-439.129871	-439.128927	-439.168481	28.029	
O	-0.0142700842	-0.0691487101	-0.0046485827	-0.3841
C	-0.0309710678	 1.1468406385	 0.0024603129	 0.388301
N	-1.1972079752	 1.8653233198	 0.0171291549	-0.303582
C	-1.3294608955	 3.3180873079	 0.0062146373	-0.162202
C	 0.0492066531	 3.9844500608	 0.0812308389	 0.105182
C	 1.0294010641	 3.2568361043	-0.8426846677	-0.254918
C	 1.2360946782	 2.0022138365	 0.022341157	-0.140879
C	 1.4128861112	 2.6476138318	 1.4105938361	-0.082072
O	 0.6015504602	 3.8295514986	 1.3897190636	-0.273492
H	-2.03516885	 1.3022612699	 0.0194744372	 0.247342
H	-1.8451906893	 3.6461886186	-0.9079637735	 0.10501
H	-1.9236788569	 3.6517204548	 0.865069085	 0.12112
H	-0.0523800923	 5.0549039998	-0.1150645458	 0.086285
H	 0.6178268255	 3.0437126431	-1.8321611965	 0.114808
H	 1.9582519556	 3.8225969196	-0.957738916	 0.111103
H	 2.0756500407	 1.3684053547	-0.2602608776	 0.09887
H	 1.0902469982	 1.9952906117	 2.2288715847	 0.120421
H	 2.4611506343	 2.9265064998	 1.5816695423	 0.102804
101.2894	166.2384	238.9154	359.5287	389.0474	436.2095	489.4066	575.0265	622.0162	706.0853	746.1132	807.6076	833.3752	881.1488	894.5466	948.9794	955.1677	974.2997	1026.0153	1039.3769	1064.2629	1096.6196	1131.3907	1146.8499	1193.8048	1223.9235	1254.4334	1301.37	1308.5947	1321.1942	1336.8238	1355.2749	1393.2033	1399.179	1475.415	1495.218	1521.0864	1530.5328	1797.4692	2998.0922	3013.1255	3052.1212	3060.9343	3070.2535	3084.1935	3115.5665	3130.7251	3611.7128
O=C1NCC2CC1CO2	O=C1NC[C@@H]2C[C@H]1CO2	
InChI=1S/C6H9NO2/c8-6-4-1-5(2-7-6)9-3-4/h4-5H,1-3H2,(H,7,8)	InChI=1S/C6H9NO2/c8-6-4-1-5(2-7-6)9-3-4/h4-5H,1-3H2,(H,7,8)/t4-,5-/m0/s1
