14
gdb 127983	5.01454	1.09678	0.90499	0.7215	71.52	-0.2426	-0.0909	0.1518	1212.8007	0.100254	-469.976747	-469.968747	-469.967802	-470.009937	28.7	
C	 0.1989346492	 1.4220063951	 0.1292303524	-0.328362
N	 0.2073450062	-0.0316173651	 0.099440345	-0.306804
C	 0.4003961139	-0.6094378232	-1.013941808	 0.415961
O	 0.6005541268	 0.0798407292	-2.1817764515	-0.287658
N	 0.8096663494	-0.6113685691	-3.3970966452	-0.210198
C	 0.798269379	-1.8973013695	-3.3195019521	 0.490708
O	 0.9920711469	-2.6007239868	-4.4421318287	-0.380477
N	 0.608961917	-2.7050924035	-2.2055277553	-0.256828
C	 0.420098826	-2.063230309	-1.1118402914	-0.013912
H	 1.1548679666	 1.838041885	-0.2159314073	 0.135519
H	-0.5802915079	 1.8351598157	-0.5250351853	 0.135453
H	 0.0166066429	 1.7576248573	 1.1516308887	 0.126952
H	 1.1149025143	-1.9681006789	-5.1644322182	 0.317695
H	 0.2621780598	-2.6101377172	-0.1850545831	 0.161951
55.4304	108.7901	189.371	189.7162	303.5537	391.5196	399.6098	441.2289	542.2328	586.7142	619.5301	619.6281	775.7078	791.5897	824.3151	942.7221	999.1804	1015.5641	1041.9894	1098.7041	1166.94	1247.6082	1293.7041	1355.1314	1430.634	1444.3386	1482.2836	1493.1967	1618.3422	1688.5889	1719.8506	3005.7955	3056.3906	3121.9339	3172.9482	3771.622
CN=C1ON=C(O)N=C1	CN=c1onc(O)nc1	
InChI=1S/C4H5N3O2/c1-5-3-2-6-4(8)7-9-3/h2H,1H3,(H,7,8)	InChI=1S/C4H5N3O2/c1-5-3-2-6-4(8)7-9-3/h2H,1H3,(H,7,8)
