14
gdb 49035	2.6255	1.42745	1.10925	3.5885	68.33	-0.275	-0.0608	0.2142	1066.8963	0.099911	-436.656729	-436.64891	-436.647966	-436.689494	28.03	
O	-0.1987106493	 0.1967071394	-0.6173842317	-0.260895
C	 0.0566341759	 1.0615209016	 0.1864440313	 0.065612
C	 1.2739501614	 1.8913345152	 0.1392452473	 0.134919
C	 1.6912816909	 3.0377009051	 1.0572593473	-0.157327
O	 2.1524932092	 3.833818778	-0.0742434023	-0.261074
C	 1.7268333844	 2.8449044437	-0.9786186453	 0.080529
C	 2.4327515434	 1.5355175654	-0.7979933668	-0.277477
C	 3.7827888347	 1.4549628001	-0.3108788434	 0.323637
N	 4.8633617803	 1.3932097125	 0.0952781733	-0.334841
H	-0.640860933	 1.3091522023	 1.0157712679	 0.090347
H	 0.8397331565	 3.5291536504	 1.5383665871	 0.132446
H	 2.4881964091	 2.8444581542	 1.780361561	 0.148205
H	 1.2393636507	 3.1429393168	-1.8998968892	 0.145735
H	 2.135764856	 0.7681560054	-1.5074991265	 0.170185
100.609	139.2225	145.0408	200.9491	241.2893	356.3038	389.1619	491.123	561.3284	633.243	718.5629	784.818	793.8445	896.8298	935.5673	978.3367	1008.5696	1017.9103	1054.5742	1083.3146	1103.3502	1161.9032	1208.8108	1255.1279	1289.3051	1354.7356	1421.3877	1443.2121	1506.1891	1799.4088	2361.0268	2898.3364	3049.9115	3112.4589	3168.4383	3191.5418
O=CC12COC1C2C#N	O=C[C@]12CO[C@H]1[C@H]2C#N	
InChI=1S/C6H5NO2/c7-1-4-5-6(4,2-8)3-9-5/h2,4-5H,3H2	InChI=1S/C6H5NO2/c7-1-4-5-6(4,2-8)3-9-5/h2,4-5H,3H2/t4-,5+,6-/m1/s1
