13
gdb 9457	2.93586	1.82097	1.71453	5.3542	60.48	-0.2608	-0.0093	0.2515	824.4035	0.095346	-394.771352	-394.763702	-394.762758	-394.803276	27.553	
O	 0.2105007727	 1.4052031601	 0.1155238287	-0.445942
C	 0.0495263172	 0.0163619752	 0.0480048009	 0.189231
C	-1.440439707	-0.4344255615	-0.1116754395	-0.196825
N	-1.0358079308	-1.0861133283	-1.3697069539	-0.329755
C	 0.2426145173	-0.5644209886	-1.3722139838	 0.341362
N	 1.2309411807	-0.434398687	-2.1429058926	-0.545033
C	 0.7873908172	-0.6825521232	 1.109355307	 0.253075
N	 1.3680597556	-1.2269064412	 1.9468541905	-0.330792
H	 1.0249890001	 1.6145379268	-0.3618861672	 0.308478
H	-1.8287032863	-1.1175306754	 0.6460808156	 0.139125
H	-2.093356573	 0.4345643366	-0.2301452966	 0.138125
H	-1.6166739141	-1.2997732779	-2.1672115544	 0.25399
H	 1.0696181704	-0.8145640255	-3.0757398746	 0.22496
104.6915	137.0764	200.6739	203.9371	309.7812	368.2721	425.655	442.1375	554.6611	590.8572	644.9397	716.8868	789.7356	827.1748	933.4992	955.3958	1012.6978	1047.9718	1140.0067	1186.1335	1212.5281	1238.0187	1325.2868	1363.5425	1387.6845	1513.5389	1813.3649	2356.9233	3062.2624	3127.2813	3482.776	3608.824	3767.8289
OC1(CNC1=N)C#N	O[C@]1(CN[C]1[NH])C#N	
InChI=1S/C4H5N3O/c5-1-4(8)2-7-3(4)6/h8H,2H2,(H2,6,7)	InChI=1S/C4H5N3O/c5-1-4(8)2-7-3(4)6/h8H,2H2,(H2,6,7)/t4-/m0/s1
