15
gdb 46655	2.40947	1.62149	1.42786	5.3624	69.2	-0.2573	0.001	0.2583	965.6205	0.115006	-416.852279	-416.84486	-416.843916	-416.884438	27.827	
O	 0.0128740967	-0.0320727445	-0.0938838212	-0.369418
C	 0.0083178526	 1.174320591	-0.0244860388	 0.416518
N	-1.091571006	 1.9872536013	 0.078654316	-0.305211
C	-0.8391485084	 3.4159838	 0.0263331259	-0.193715
C	 0.6857496546	 3.5021845081	 0.0016884097	-0.072181
C	 1.4261742519	 2.9467820272	 1.2033105009	-0.189432
C	 0.7431127011	 2.6898782028	 2.4419638161	 0.314982
N	 0.1894376164	 2.5198092907	 3.4431564948	-0.345576
C	 1.2115198486	 2.0946124587	-0.0461896719	-0.173947
H	-2.0063796434	 1.5916793585	 0.2229394875	 0.263852
H	-1.2566738946	 3.8670150999	-0.8827681095	 0.122639
H	-1.2678087493	 3.9348451229	 0.8921859996	 0.138561
H	 1.1492243374	 4.3164615093	-0.5399188735	 0.11854
H	 2.440449594	 3.3096635116	 1.334440831	 0.145639
H	 2.0837581585	 1.7789971626	-0.6020348066	 0.12875
94.7178	129.5705	165.9147	273.3414	356.4886	454.1053	471.3184	546.0534	580.036	657.7837	724.4368	767.58	786.4054	808.8463	871.1657	947.7893	987.9187	999.7032	1023.3435	1070.7616	1094.2491	1112.8803	1182.6737	1225.3863	1251.6055	1314.7553	1330.0011	1358.8774	1403.7353	1454.107	1525.3161	1840.6872	2355.2683	3018.639	3054.1003	3168.152	3199.842	3218.5335	3655.7884
O=C1NCC2C(C#N)C12	O=C1NC[C@H]2[C@@H](C#N)[C@@H]12	
InChI=1S/C6H6N2O/c7-1-3-4-2-8-6(9)5(3)4/h3-5H,2H2,(H,8,9)	InChI=1S/C6H6N2O/c7-1-3-4-2-8-6(9)5(3)4/h3-5H,2H2,(H,8,9)/t3-,4+,5-/m1/s1
