17
gdb 130951	6.14278	0.72856	0.68936	2.0946	76.37	-0.2447	-0.0322	0.2126	1579.5143	0.136657	-418.033833	-418.025371	-418.024427	-418.069014	29.528	
O	-0.2568740768	 0.0486689146	-0.0643118607	-0.231239
C	 0.0065860759	 1.213891954	 0.0801165609	 0.155218
C	 1.3697552005	 1.8267662221	-0.1450700277	-0.270574
C	 1.3143733501	 2.9811025686	-1.1608225514	-0.171046
N	 2.5631543383	 3.7153707762	-1.2177255183	 0.066052
C	 3.4710935367	 3.7515136854	-2.2255229835	-0.032612
C	 4.5076490339	 4.5564219344	-1.800908727	-0.233795
C	 4.1263075161	 4.9598747206	-0.505615184	 0.003594
N	 2.9488648001	 4.4482849499	-0.1539010173	-0.271994
H	-0.7742741272	 1.9414092636	 0.4054298263	 0.077984
H	 1.7166560845	 2.2482983639	 0.8072878017	 0.155095
H	 2.0688863065	 1.049003878	-0.4620512872	 0.128682
H	 1.1053410027	 2.6052245539	-2.165647835	 0.133588
H	 0.5177816427	 3.6821610613	-0.8900689049	 0.136111
H	 3.3076215966	 3.2153580305	-3.1472078318	 0.132591
H	 5.3996220326	 4.8144690363	-2.3477449349	 0.107855
H	 4.6551562965	 5.6033339769	 0.182247655	 0.114491
36.304	65.6382	66.4202	122.394	264.6106	324.5262	375.1235	518.8356	629.7702	674.506	747.3297	764.275	775.1974	830.5568	860.9583	894.5329	933.4939	981.8519	1000.2538	1062.2961	1083.9853	1107.0744	1113.6779	1183.2713	1245.3197	1275.6028	1287.0997	1325.5744	1374.1596	1405.5939	1429.4556	1432.1192	1464.712	1489.3614	1490.4346	1558.4234	1838.1941	2854.6047	3038.4784	3052.7758	3103.1787	3122.1143	3244.713	3256.7557	3279.7816
O=CCCN1C=CC=N1	O=CCCn1cccn1	
InChI=1S/C6H8N2O/c9-6-2-5-8-4-1-3-7-8/h1,3-4,6H,2,5H2	InChI=1S/C6H8N2O/c9-6-2-5-8-4-1-3-7-8/h1,3-4,6H,2,5H2
