19
gdb 64178	2.1972	1.49205	1.38159	4.7911	75.44	-0.2496	0.0271	0.2767	1075.268	0.157923	-419.206081	-419.196515	-419.195571	-419.239619	36.545	
C	-0.1416728383	 1.5119858185	 0.0152974383	-0.465539
C	 0.0031092014	-0.0049752799	-0.0703060871	 0.410659
O	-1.2131394991	-0.6135702335	-0.4195733142	-0.459397
C	 1.1732733797	-0.4768274877	-0.9640588748	-0.260878
C	 2.0690542568	-0.6161751139	 0.2920336776	-0.273735
C	 0.7752537532	-0.6102810813	 1.1869933962	 0.048395
N	 0.692563905	 0.1445278358	 2.4295275658	-0.570175
C	 0.3327078462	-1.9800286329	 1.454452891	 0.300692
N	 0.0166205875	-3.0664776229	 1.689293219	-0.341865
H	 0.8188690467	 2.0138965166	 0.1715081852	 0.112768
H	-0.5646121942	 1.8785465763	-0.9242237018	 0.134491
H	-0.8064285783	 1.7950269065	 0.8379513666	 0.131014
H	-1.8901054857	-0.3352093484	 0.2082991	 0.286264
H	 0.9360997514	-1.4453740814	-1.4084403133	 0.135485
H	 1.5019959883	 0.2096152922	-1.7463799793	 0.105273
H	 2.7167903825	-1.4905772609	 0.3626387321	 0.123259
H	 2.6614159841	 0.2818315315	 0.4895671424	 0.103664
H	 1.1068215066	-0.3767261468	 3.195918536	 0.244871
H	 1.2117357461	 1.0120942622	 2.3430628602	 0.234753
94.1735	144.2562	206.6731	223.135	262.1832	264.8004	282.0136	318.0822	346.2149	383.288	420.9294	463.0843	537.2203	595.1548	642.9049	679.881	756.592	831.724	894.2383	903.8595	927.3692	952.2541	986.7402	1011.9253	1083.5463	1106.5637	1157.832	1190.83	1223.3415	1239.7786	1264.9181	1277.9613	1343.5002	1377.0672	1405.8699	1477.1825	1490.034	1494.4425	1499.0311	1655.022	2357.5576	3035.1259	3061.8579	3078.1177	3103.8981	3118.5409	3126.661	3140.107	3502.0929	3585.0581	3795.508
CC1(O)CCC1(N)C#N	C[C@@]1(O)CC[C@]1(N)C#N	
InChI=1S/C6H10N2O/c1-5(9)2-3-6(5,8)4-7/h9H,2-3,8H2,1H3	InChI=1S/C6H10N2O/c1-5(9)2-3-6(5,8)4-7/h9H,2-3,8H2,1H3/t5-,6+/m1/s1
