14
gdb 9031	4.68851	0.88449	0.76687	3.3005	75.02	-0.2683	-0.0639	0.2044	1403.8787	0.103518	-345.344286	-345.335168	-345.334224	-345.379613	30.621	
C	 0.0249588046	 1.4781777965	-0.1588692783	-0.381102
C	 0.0023897468	-0.0537422589	 0.087236978	-0.33633
C	 0.6998609755	-0.4090832964	 1.3272777753	 0.339666
C	 1.2877640797	-0.6757619568	 2.3395091564	-0.454127
C	-1.3704825543	-0.5643084843	 0.071305175	 0.173298
C	-2.5102851141	-0.9589996098	 0.0245662862	-0.019734
C	-3.8639125828	-1.4529079534	 0.0142219332	 0.025495
O	-4.6398868491	-1.3063010173	-0.9018714526	-0.22809
H	 1.059272459	 1.8279005808	-0.1880503204	 0.136523
H	-0.4625605723	 1.7105835754	-1.1082678066	 0.138404
H	-0.4991574989	 1.998683968	 0.6451465006	 0.144652
H	 0.5327205694	-0.5306879477	-0.7503053799	 0.152295
H	 1.8031100913	-0.9214326421	 3.2351795884	 0.206411
H	-4.1533980849	-1.995239904	 0.9370984347	 0.10264
23.9304	71.4424	121.1309	155.678	209.5106	239.8221	267.165	349.9255	455.4514	510.4539	564.738	630.9393	644.3825	658.5056	777.438	876.4934	998.1649	1022.2685	1066.1	1087.1033	1174.2127	1286.1025	1321.3826	1404.3436	1421.8735	1488.3863	1496.8055	1768.6553	2245.004	2333.9206	2922.1001	3001.1642	3056.5905	3140.5011	3144.066	3503.5285
CC(C#C)C#CC=O	C[C@@H](C#C)C#CC=O	
InChI=1S/C7H6O/c1-3-7(2)5-4-6-8/h1,6-7H,2H3	InChI=1S/C7H6O/c1-3-7(2)5-4-6-8/h1,6-7H,2H3/t7-/m0/s1
