15
gdb 128602	2.64491	1.35447	0.9009	6.7213	71.76	-0.2335	-0.0426	0.1909	1219.9269	0.113139	-453.955584	-453.947375	-453.94643	-453.988849	29.24	
C	-0.04432874	 1.3591784841	 0.0675772839	-0.253498
O	-0.0028793265	-0.057014996	 0.0082852519	-0.256854
C	 0.6132680159	-0.579468251	-1.0701924097	 0.234664
C	 1.2202934722	 0.0409173997	-2.1455324234	-0.164126
N	 1.672792526	-0.9824232225	-2.9305855806	-0.173167
N	 1.4117762521	-2.1929035729	-2.4573451901	-0.25255
C	 0.7564063834	-1.9771817204	-1.3064662613	 0.138468
C	 0.2743685425	-3.064206222	-0.4458224603	 0.092132
O	 0.4081406633	-4.2452237515	-0.6671593391	-0.271406
H	 0.9684225769	 1.7825175476	 0.0918536955	 0.126141
H	-0.5875095193	 1.7739880765	-0.7917115892	 0.126134
H	-0.5685466047	 1.6179435803	 0.9881438043	 0.145179
H	 1.3648537241	 1.0736670617	-2.4110922411	 0.143354
H	 2.1678664406	-0.899968455	-3.8036093511	 0.284779
H	-0.2466893466	-2.7007049386	 0.4655466903	 0.080751
83.97	141.8288	151.6548	206.6226	251.0125	256.2066	372.7612	387.5416	545.9294	568.5694	664.6124	685.623	711.6562	751.7834	821.2314	950.3988	1039.878	1058.6795	1087.449	1174.2523	1180.9541	1218.2196	1273.0952	1335.9095	1374.3078	1425.8587	1472.3486	1477.228	1488.7754	1504.9552	1524.8796	1614.7169	1801.2025	2904.3565	3003.6897	3063.1566	3144.492	3284.0249	3658.4806
COC1=CNN=C1C=O	COc1c[nH]nc1C=O	
InChI=1S/C5H6N2O2/c1-9-5-2-6-7-4(5)3-8/h2-3H,1H3,(H,6,7)	InChI=1S/C5H6N2O2/c1-9-5-2-6-7-4(5)3-8/h2-3H,1H3,(H,6,7)
