18
gdb 127534	4.58541	1.24671	1.01002	0.4091	80.15	-0.2341	-0.0008	0.2334	1184.2649	0.151048	-398.148754	-398.141	-398.140055	-398.181515	28.766	
C	 0.0069711774	 1.4066433386	 0.00962438	-0.308608
N	-0.0418197323	-0.0391900322	 0.0020762992	 0.125843
N	-0.0116810506	-0.7395569541	-1.1413244772	-0.349236
C	 0.0451129704	-1.9940515506	-0.706076398	 0.310313
C	 0.0567807605	-3.3735090842	-1.2857781693	-0.344077
C	 0.4290889868	-4.2269816619	-0.0230565205	-0.20359
C	 0.0701001165	-3.3872395908	 1.2526651981	-0.344078
C	 0.0524624625	-2.0015926443	 0.6880712426	 0.310328
N	 0.0007180405	-0.7518678933	 1.1374423948	-0.349254
H	 1.0416450529	 1.7658215321	 0.0064375257	 0.144105
H	-0.5037479008	 1.7725312749	-0.8812067271	 0.156223
H	-0.4948835024	 1.762944353	 0.9093401548	 0.156206
H	-0.9304199817	-3.6479829533	-1.6778166352	 0.118957
H	 0.7729735563	-3.5122941421	-2.1003994191	 0.119717
H	-0.062974989	-5.2022733673	-0.0257468601	 0.103761
H	 1.5078109965	-4.4102527096	-0.0297153496	 0.114716
H	-0.9129274524	-3.6659831282	 1.6521135724	 0.118958
H	 0.794842559	-3.5347887568	 2.0581308787	 0.119717
65.118	113.7167	171.3388	253.1216	286.5639	293.6393	515.1731	533.1434	653.6032	675.8854	690.1328	735.2473	805.8908	855.0581	900.6378	903.8067	988.7225	999.1931	1052.13	1057.6504	1145.0084	1148.9679	1172.6553	1218.2909	1218.9848	1296.8543	1302.8567	1315.6222	1341.0721	1369.1067	1442.2381	1452.3098	1484.3896	1485.1213	1487.4619	1504.1477	1506.7255	1535.2868	1576.3937	3031.2576	3031.6434	3046.4628	3057.4021	3084.9371	3085.8236	3111.5669	3128.5078	3171.7257
CN1N=C2CCCC2=N1	Cn1nc2CCCc2n1	
InChI=1S/C6H9N3/c1-9-7-5-3-2-4-6(5)8-9/h2-4H2,1H3	InChI=1S/C6H9N3/c1-9-7-5-3-2-4-6(5)8-9/h2-4H2,1H3
