14
gdb 21181	5.44998	1.59656	1.24452	5.3723	67.96	-0.2257	-0.0478	0.1779	924.3937	0.109287	-374.917455	-374.910325	-374.909381	-374.949246	25.247	
C	-0.0495179912	 1.4574767817	 0.076721081	-0.330616
N	 0.0221464463	 0.0176976782	-0.0444635116	-0.352471
C	 0.6085104169	-0.649511131	-1.0633315314	 0.42294
C	 1.227602462	-0.0059864381	-2.1645558129	-0.056569
N	 1.7881251838	-0.6927817368	-3.1410541134	-0.167835
N	 1.7766345618	-2.0308724355	-3.0986714973	-0.219035
C	 1.1846483894	-2.5914493272	-2.0451697742	 0.105616
N	 0.5952214801	-1.9862579474	-1.0162357362	-0.329121
H	 0.9465177939	 1.9145338959	 0.1289016551	 0.141841
H	-0.5928311741	 1.9107353139	-0.7614873952	 0.142479
H	-0.5825554354	 1.7035943005	 0.9960747227	 0.142924
H	-0.3725251321	-0.5654152312	 0.6762737368	 0.258404
H	 1.2685675761	 1.0744684924	-2.2538038903	 0.113845
H	 1.1887263927	-3.6786677955	-2.033463623	 0.127598
76.0218	120.213	205.6553	218.3729	372.6416	453.2832	483.5071	566.0044	574.7366	689.4371	816.4036	864.4819	905.4864	1001.8134	1018.0116	1057.4641	1104.5655	1159.6989	1162.2973	1211.7637	1296.0124	1337.3875	1395.6606	1458.8825	1474.2951	1486.1646	1514.7163	1531.7454	1589.4409	1615.5787	3015.919	3064.4526	3138.6182	3169.7062	3184.1222	3636.9206
CNC1=CN=NC=N1	CNc1cnncn1	
InChI=1S/C4H6N4/c1-5-4-2-7-8-3-6-4/h2-3H,1H3,(H,5,6,8)	InChI=1S/C4H6N4/c1-5-4-2-7-8-3-6-4/h2-3H,1H3,(H,5,6,8)
