23
gdb 104073	3.50155	0.98507	0.937	1.1554	87.83	-0.2268	0.0354	0.2622	1416.3097	0.204302	-388.318466	-388.308458	-388.307514	-388.352996	38.268	
C	-0.0793861977	 1.5239566792	-0.0931902445	-0.408088
C	 0.0036235479	-0.0020910553	 0.0135418461	-0.215489
C	 0.7135744187	-0.5117660807	 1.2780723837	 0.399051
O	 2.0614697036	-0.0269974366	 1.3236610355	-0.482025
C	-0.0254755866	-0.1621612324	 2.6074630625	-0.300695
C	 0.1479277561	-1.3974166491	 3.451229631	-0.168087
C	 0.6217840065	-2.4331163539	 2.7566025925	 0.341751
C	 0.8907294486	-3.816784136	 3.2565180259	-0.495361
C	 0.8491677968	-2.0542238153	 1.3106700314	-0.330892
H	 0.9184817677	 1.974488761	-0.1284709618	 0.112338
H	-0.5990087259	 1.8238497788	-1.0079144432	 0.117313
H	-0.6212243095	 1.9625408405	 0.7519863945	 0.118053
H	-1.0066639313	-0.4287805008	-0.0156820997	 0.09192
H	 0.5392115528	-0.3977006827	-0.8579284366	 0.100444
H	 2.0299916251	 0.9197441356	 1.49427739	 0.273717
H	 0.4027253761	 0.7370148905	 3.0697755534	 0.089546
H	-1.0886362193	 0.0584470523	 2.4350054413	 0.098939
H	-0.1128776428	-1.427484135	 4.5043609197	 0.08006
H	 0.6528852479	-3.9163869302	 4.3192411537	 0.120425
H	 0.3012828883	-4.5609802823	 2.7049798642	 0.121285
H	 1.9441680866	-4.0903579559	 3.115043689	 0.126462
H	 0.1114050293	-2.5398718387	 0.6568183659	 0.095083
H	 1.8397914712	-2.3420261231	 0.9409028451	 0.11425
62.8434	110.1004	167.8887	193.7753	234.2322	242.7964	296.3658	304.7273	355.5431	375.6919	418.7694	439.4349	479.413	605.5834	649.602	780.2546	794.1261	812.1219	880.5801	912.0189	931.1044	959.3281	978.9334	1006.2515	1026.0354	1037.7589	1051.4319	1101.5256	1123.8464	1152.9514	1177.2164	1202.4373	1252.7607	1287.7725	1310.1943	1320.6147	1336.8667	1359.5597	1389.781	1409.4926	1414.6148	1467.6392	1473.9738	1479.3449	1481.5605	1489.5366	1501.913	1511.2275	1728.5631	2999.85	3008.9633	3014.8009	3024.9108	3030.0014	3032.78	3058.9443	3059.9907	3063.9029	3098.1524	3104.3722	3107.1151	3179.2449	3814.9861
CCC1(O)CC=C(C)C1	CC[C@@]1(O)CC=C(C)C1	
InChI=1S/C8H14O/c1-3-8(9)5-4-7(2)6-8/h4,9H,3,5-6H2,1-2H3	InChI=1S/C8H14O/c1-3-8(9)5-4-7(2)6-8/h4,9H,3,5-6H2,1-2H3/t8-/m1/s1
