15
gdb 56391	3.33313	0.72809	0.61683	0.1796	76.44	-0.2673	-0.0352	0.2322	1718.3784	0.110747	-416.823111	-416.812977	-416.812033	-416.860274	34.045	
C	-0.1010429552	 1.6237867384	 0.3771079301	-0.383622
C	-0.0537479406	 0.1120790979	 0.0381702649	-0.311911
C	 0.8110002212	-0.6097953036	 0.9879898711	 0.290586
N	 1.4998977371	-1.1601220311	 1.7338299228	-0.31498
C	-1.3909023957	-0.4808334595	-0.002741142	 0.083387
C	-2.5026210727	-0.9405703802	-0.0464475227	 0.055518
C	-3.8682141597	-1.4470009758	-0.1497988633	 0.270581
N	-4.1075963713	-2.5377823359	 0.6298870323	-0.519647
O	-4.7000003696	-0.9303175291	-0.8690061507	-0.329853
H	 0.9086910304	 2.0400059863	 0.3660831851	 0.144515
H	-0.7132641096	 2.1401199243	-0.3646959004	 0.149397
H	-0.5380942958	 1.7788353582	 1.3652143502	 0.153451
H	 0.4017176367	-0.0024826673	-0.9552124826	 0.168134
H	-3.3947361077	-2.9398254971	 1.2132731872	 0.273566
H	-5.0281390475	-2.9454009754	 0.612765798	 0.270877
18.238	61.0559	100.535	152.7756	154.228	211.5175	232.41	249.3728	366.2997	396.3641	481.1235	562.3027	572.503	584.4453	606.7815	723.1345	772.1525	830.1338	972.769	1052.9639	1073.7587	1091.1543	1150.4271	1290.0828	1322.5005	1352.1403	1409.3562	1489.5581	1496.673	1610.3307	1778.6423	2356.21	2367.1357	3021.4213	3060.8789	3145.1823	3150.3282	3601.9508	3743.2838
CC(C#N)C#CC(N)=O	C[C@@H](C#N)C#CC(=O)N	
InChI=1S/C6H6N2O/c1-5(4-7)2-3-6(8)9/h5H,1H3,(H2,8,9)	InChI=1S/C6H6N2O/c1-5(4-7)2-3-6(8)9/h5H,1H3,(H2,8,9)/t5-/m1/s1
