14
gdb 5633	3.30977	1.79845	1.17377	1.8679	59.24	-0.2065	0.0304	0.2369	947.827	0.106854	-419.684732	-419.677011	-419.676066	-419.717257	27.777	
O	-0.0394995122	 1.4463334312	 0.0588381882	-0.421611
C	 0.0194837229	 0.0301377282	-0.0077675998	-0.187591
C	-1.3766467889	-0.4985658072	-0.004459359	 0.169788
C	-2.5398178709	 0.2020730853	 0.0503677321	-0.07307
O	-3.613278142	-0.6269001179	 0.0336600787	-0.150281
C	-3.1318481121	-1.9050262799	-0.034160305	-0.143062
C	-1.77080594	-1.8766885291	-0.0596174946	 0.174636
O	-0.862017534	-2.8893357247	-0.1237048283	-0.442524
H	 0.8610567189	 1.7819018395	 0.0560705722	 0.290795
H	 0.5423711461	-0.3086765776	-0.9174958357	 0.104543
H	 0.5773875059	-0.3901655895	 0.8454003571	 0.104548
H	-2.7469586675	 1.2565433623	 0.1026029701	 0.148848
H	-3.8624994059	-2.6957347403	-0.0558839393	 0.124426
H	-1.3266097404	-3.7316249902	-0.1528983367	 0.300554
50.0561	163.0201	213.6494	248.2989	280.8344	315.52	352.4764	536.9611	605.8999	623.09	634.0496	695.9206	759.8846	780.4769	898.8053	1048.0548	1067.5601	1077.0294	1145.6323	1195.9597	1220.5457	1230.3967	1241.7615	1278.0939	1331.5937	1455.0726	1482.5493	1516.9533	1598.7856	1674.8986	2960.0981	2975.1481	3275.9101	3297.5006	3829.5238	3841.6749
OCC1=COC=C1O	OCc1cocc1O	
InChI=1S/C5H6O3/c6-1-4-2-8-3-5(4)7/h2-3,6-7H,1H2	InChI=1S/C5H6O3/c6-1-4-2-8-3-5(4)7/h2-3,6-7H,1H2
