17
gdb 77052	3.39942	1.07284	0.86359	2.6405	74.46	-0.2561	0.0171	0.2733	1289.9315	0.135565	-418.048563	-418.039434	-418.03849	-418.083219	31.9	
C	-0.0571569392	 1.4330363005	 0.1222987287	-0.354203
N	-0.0054607595	-0.0011485637	-0.0411204019	-0.073062
C	-1.0380729868	-1.0391367859	 0.0116586773	 0.040354
C	-2.0134994419	-1.0664351341	-1.1778271353	-0.352478
C	-2.9341127751	 0.0689768386	-1.1782431236	 0.263136
N	-3.6497354374	 0.9761145396	-1.1542398523	-0.304357
C	 0.1078803965	-2.0909941558	-0.0307362441	-0.418337
C	 1.0604988479	-0.8724942039	-0.0330693781	 0.416933
O	 2.2481181621	-0.6912423983	-0.0141399245	-0.363507
H	 0.9733528714	 1.7956692183	 0.1236925381	 0.163046
H	-0.6058122645	 1.9145147482	-0.6926857157	 0.149637
H	-0.533383263	 1.7090467391	 1.0708533735	 0.135497
H	-1.6048404367	-1.0318448271	 0.950464803	 0.10384
H	-1.4499749086	-1.0694990807	-2.1174876428	 0.158474
H	-2.5998763401	-1.9917696611	-1.1431317073	 0.161523
H	 0.1930670124	-2.7257396378	 0.8524744037	 0.140949
H	 0.1492826327	-2.7074393261	-0.9313857787	 0.132554
63.6399	92.4471	115.0712	144.2062	177.2281	243.8165	300.2215	393.9637	401.5784	490.4168	551.3816	565.7195	723.8679	737.3149	851.47	909.022	940.8652	1002.3965	1025.0254	1059.6817	1079.3141	1134.7327	1151.5592	1196.395	1218.759	1254.3707	1295.0751	1312.8361	1387.152	1411.0515	1449.6352	1456.7199	1468.7093	1483.8098	1516.7684	1887.2645	2360.9571	3026.753	3034.2064	3045.52	3084.9135	3090.0439	3090.3333	3135.5582	3144.3308
CN1C(CC#N)CC1=O	CN1[C@@H](CC#N)CC1=O	
InChI=1S/C6H8N2O/c1-8-5(2-3-7)4-6(8)9/h5H,2,4H2,1H3	InChI=1S/C6H8N2O/c1-8-5(2-3-7)4-6(8)9/h5H,2,4H2,1H3/t5-/m0/s1
