15
gdb 7265	4.52326	1.19	0.99435	1.4017	60.97	-0.2774	-0.0356	0.2418	1138.3596	0.116447	-436.967801	-436.958972	-436.958027	-437.001974	30.21	
C	-0.0217582183	 1.605859163	 0.072852233	-0.398643
C	-0.0237707694	 0.0724982802	-0.0086533524	 0.040373
O	 0.4839505949	-0.3672570282	-1.2424793871	-0.436008
C	 0.7876964978	-0.5432721741	 1.118861223	 0.439099
O	 1.7656390001	-1.2244194431	 0.9411114514	-0.360178
O	 0.2709555833	-0.2308981939	 2.3372360319	-0.1998
C	 0.9001858783	-0.7230588803	 3.461687838	 0.117483
N	 0.415096633	-0.4173640464	 4.5784502526	-0.411953
H	 1.0005793711	 1.9893762975	 0.005068307	 0.127753
H	-0.5918274845	 2.0007324088	-0.7710545994	 0.138312
H	-0.4757454207	 1.9517973314	 1.004368028	 0.138489
H	-1.0581758443	-0.2840767509	 0.1177920852	 0.112442
H	 1.2610961714	-0.9087990905	-1.0446327237	 0.296885
H	 1.7689583514	-1.3370402201	 3.2258063052	 0.150088
H	 0.9651664658	-0.8412872733	 5.3243183972	 0.245657
50.3856	102.8357	106.8767	163.4571	233.5108	274.0217	322.5779	354.2744	382.3517	461.3239	539.6394	674.3653	762.8829	853.9582	888.1878	949.5685	1000.9152	1055.6078	1069.7122	1102.6056	1164.8301	1219.8753	1255.6293	1288.4582	1352.6059	1387.8765	1399.5225	1437.4399	1492.6082	1498.395	1749.4001	1818.4417	2988.2214	3049.8253	3127.9777	3140.5099	3145.3652	3509.5657	3738.8525
CC(O)C(=O)OC=N	C[C@@H](O)C(=O)O[CH][NH]	
InChI=1S/C4H7NO3/c1-3(6)4(7)8-2-5/h2-3,5-6H,1H3	InChI=1S/C4H7NO3/c1-3(6)4(7)8-2-5/h2-3,5-6H,1H3/t3-/m1/s1
