14
gdb 28190	5.26791	1.27374	1.02573	1.4013	69.3	-0.1748	0.0382	0.213	1067.3241	0.102515	-436.71346	-436.706062	-436.705118	-436.745222	28.102	
O	 0.0781013376	 1.3051548616	 0.2379083085	-0.434973
C	 0.0684001782	-0.0313171616	-0.0000674479	 0.407032
C	 0.0811074339	-0.7801244375	-1.1522632298	-0.505815
C	 0.0587821382	-2.1566834003	-0.7202713173	 0.271716
C	 0.0344567597	-2.1275372435	 0.6497006513	 0.403592
N	 0.0395852065	-0.8451349844	 1.1248973215	-0.456534
O	 0.0113111174	-3.3328125416	 1.2388343794	-0.219069
C	 0.0215908202	-4.2170534081	 0.164119652	-0.0282
C	 0.0496505017	-3.5629298706	-1.0306458061	-0.351497
H	 0.0994658709	 1.7609114559	-0.6089215538	 0.309038
H	 0.1032029156	-0.3877070314	-2.1567284923	 0.092935
H	 0.0255963722	-0.5173518858	 2.0740784728	 0.274897
H	 0.0058414689	-5.2568140222	 0.4411378011	 0.129246
H	 0.062004039	-4.0396256504	-1.9987020795	 0.107631
107.8211	158.1994	213.5201	317.9542	323.6574	353.2582	520.7082	564.2365	581.2932	645.4373	656.7713	703.6584	735.7856	753.979	811.2482	820.5624	917.4594	1005.6474	1023.1868	1124.5105	1149.5869	1164.7861	1197.7844	1257.5576	1312.1193	1439.418	1491.4518	1524.6698	1569.3509	1589.3807	1623.3822	3248.572	3251.201	3295.9204	3695.5247	3849.106
OC1=CC2=C(N1)OC=C2	Oc1cc2c([nH]1)occ2	
InChI=1S/C6H5NO2/c8-5-3-4-1-2-9-6(4)7-5/h1-3,7-8H	InChI=1S/C6H5NO2/c8-5-3-4-1-2-9-6(4)7-5/h1-3,7-8H
