17
gdb 49626	4.93583	0.99771	0.92338	3.9396	75.97	-0.241	0.0027	0.2436	1261.7363	0.135929	-417.943822	-417.93599	-417.935046	-417.97647	29.593	
O	 0.1561240552	 0.0807967036	 0.4672791302	-0.295896
C	 0.087062193	 1.203031697	 0.026108748	 0.133893
N	 1.1177164691	 1.8724979732	-0.6087745084	-0.073367
C	 2.492893249	 1.8404887324	-0.1540722833	-0.027579
C	 3.361614375	 2.3473810849	-1.319182607	-0.347695
C	 2.5500304881	 3.6727976115	-1.2646961232	 0.368325
C	 3.0899634074	 5.0380449494	-1.4283653496	-0.313436
N	 2.0553242953	 4.5091051667	-2.3434351717	-0.356788
C	 1.6998572493	 3.1281136276	-0.1343023459	-0.135262
H	-0.8483038237	 1.7941829371	 0.0106792255	 0.088652
H	 2.7747294743	 1.1980386553	 0.6691038025	 0.128722
H	 4.4120060362	 2.4829804964	-1.0514270052	 0.118705
H	 3.2829062173	 1.7602738229	-2.2376290314	 0.120195
H	 2.7545723275	 5.8465839821	-0.7838436559	 0.123487
H	 4.1125943874	 5.1376531774	-1.7846075498	 0.11641
H	 2.4701157347	 4.2291634549	-3.2288264626	 0.236866
H	 1.258821505	 3.6577443877	 0.7019641078	 0.11477
79.825	135.6952	178.9476	235.19	301.9902	328.6774	410.3948	465.6069	573.5523	688.3254	769.4639	824.4397	831.1186	869.6733	890.3441	928.4511	950.8797	973.7017	979.5138	1004.0254	1033.1668	1041.2962	1075.8908	1124.4573	1140.1178	1176.1043	1216.3796	1241.103	1251.804	1261.5744	1303.4995	1404.1776	1414.6465	1434.0987	1473.2579	1517.4947	1792.4346	2956.2195	3063.9329	3101.6087	3122.5944	3186.0683	3191.6019	3220.6273	3502.1605
O=CN1C2CC3(CN3)C12	O=CN1[C@H]2C[C@]3(CN3)[C@@H]12	
InChI=1S/C6H8N2O/c9-3-8-4-1-6(2-7-6)5(4)8/h3-5,7H,1-2H2	InChI=1S/C6H8N2O/c9-3-8-4-1-6(2-7-6)5(4)8/h3-5,7H,1-2H2/t4-,5-,6-,8?/m0/s1
