16
gdb 19603	3.19552	2.38337	1.77946	3.4681	67.65	-0.2341	0.0092	0.2433	782.7394	0.130959	-346.577028	-346.57043	-346.569485	-346.607555	26.064	
C	 0.0794715091	 1.5914898036	 0.0570348068	-0.421468
C	 0.0938758293	 0.07075337	 0.0032112683	 0.016229
C	 0.8005013519	-0.6750870393	-1.142076255	-0.07861
C	 1.2754291726	-1.7558064374	-0.2329036162	-0.085094
C	 2.300442885	-0.7510169351	-0.8093334879	-0.193204
C	 2.4548813211	-0.2111482131	 0.5772353827	 0.443434
O	 3.3764854487	 0.2197105981	 1.2123396769	-0.348318
C	 1.0479206165	-0.72651706	 0.9487719656	-0.197269
H	 1.0860703724	 2.0086159268	-0.0468691923	 0.132022
H	-0.5408942581	 2.0034432238	-0.7460970615	 0.117296
H	-0.331323382	 1.9443468592	 1.0090581941	 0.1227
H	-0.9210874885	-0.3296716262	 0.1002821893	 0.081002
H	 0.4894764169	-0.7621917749	-2.1763048052	 0.097117
H	 1.3045727046	-2.8329428848	-0.2774368045	 0.115234
H	 3.050984969	-0.9251656819	-1.5677571548	 0.110056
H	 0.7916164516	-0.9483423486	 1.9812172237	 0.088872
134.1194	208.7067	227.8899	313.7486	433.7243	554.2574	607.403	660.7023	761.4553	772.3832	814.1281	824.5652	844.7473	870.1479	889.9635	918.4351	1008.8254	1025.9161	1037.4081	1059.3918	1090.0651	1102.1774	1130.8041	1149.2612	1172.1635	1182.9037	1272.153	1298.2718	1347.4712	1381.0426	1415.6964	1493.676	1496.7131	1877.0755	3032.7854	3048.7939	3098.6764	3108.1757	3162.0518	3186.3942	3221.4721	3248.7653
CC1C2C3C2C(=O)C13	C[C@H]1[C@@H]2[C@H]3[C@@H]2C(=O)[C@@H]13	
InChI=1S/C7H8O/c1-2-3-5-4(2)7(8)6(3)5/h2-6H,1H3	InChI=1S/C7H8O/c1-2-3-5-4(2)7(8)6(3)5/h2-6H,1H3/t2-,3+,4-,5+,6+/m0/s1
