19
gdb 79814	2.18721	1.95744	1.73099	2.2098	73.48	-0.2463	0.0873	0.3336	936.6325	0.160151	-423.005774	-422.998154	-422.99721	-423.037301	30.989	
C	-0.1085539734	 1.4930940494	 0.0036097061	-0.487283
C	 0.0556672113	-0.0043791383	 0.0295724201	 0.353838
O	-1.2334025371	-0.62708636	-0.1454588862	-0.31943
C	-1.157600381	-1.9800447591	 0.3321909178	-0.121952
C	 0.2171848611	-2.1074113455	 0.9615385344	-0.071507
C	 1.4294868832	-1.6647231902	 0.1674655174	-0.127821
C	 0.7649418969	-0.7348356586	 1.1905267387	-0.130703
C	 1.0457797617	-0.7025218015	-0.9633061384	 0.128383
O	 0.506229884	-1.1739004057	-2.1682155252	-0.457941
H	 0.8584428291	 1.9863799795	 0.1352251941	 0.121449
H	-0.5308506478	 1.8131584886	-0.9537704341	 0.132659
H	-0.7817034378	 1.8212065212	 0.8014149336	 0.126053
H	-1.9534625394	-2.1394173275	 1.0705371795	 0.106761
H	-1.3119498209	-2.6791051016	-0.4993399334	 0.105149
H	 0.3830535685	-2.8787463035	 1.7047399975	 0.09558
H	 2.3715793142	-2.1928639585	 0.2573103636	 0.086582
H	 1.1264984183	-0.3229651217	 2.1223859832	 0.091768
H	 1.8966031283	-0.0518589701	-1.1949257538	 0.079145
H	-0.4527344091	-1.1655036768	-2.0421743249	 0.28927
160.8855	198.4278	226.5383	272.0698	305.0808	322.1496	465.9901	523.1658	591.7432	608.1013	660.8809	733.2786	777.5617	815.6297	827.2569	868.7819	886.9613	935.7992	968.8145	983.9489	1009.2712	1034.5093	1046.8984	1079.0573	1114.2399	1124.1812	1154.6908	1169.9346	1195.5423	1210.6117	1228.5519	1314.6025	1322.8685	1336.7362	1372.4086	1411.6363	1412.9412	1425.4942	1482.1174	1491.8241	1524.7663	3013.9622	3040.8015	3046.7971	3049.3143	3113.2689	3119.7038	3177.0023	3186.7566	3213.1178	3741.4252
CC12OCC3C(C13)C2O	C[C@]12OC[C@H]3[C@H]([C@@H]13)[C@H]2O	
InChI=1S/C7H10O2/c1-7-5-3(2-9-7)4(5)6(7)8/h3-6,8H,2H2,1H3	InChI=1S/C7H10O2/c1-7-5-3(2-9-7)4(5)6(7)8/h3-6,8H,2H2,1H3/t3-,4+,5-,6+,7-/m0/s1
