24
gdb 56141	3.01007	0.88177	0.82615	3.3328	86.87	-0.2412	0.0355	0.2767	1569.5701	0.214213	-405.602503	-405.590816	-405.589872	-405.640538	42.018	
C	-0.1320740533	 1.4556650692	-0.1000773338	-0.483279
C	-0.2544960981	-0.0353936625	-0.3801483031	 0.411375
O	 0.2655007434	-0.553329468	-1.3523712599	-0.377649
N	-0.9756821547	-0.7416573798	 0.5423575027	-0.317338
C	-1.1420480662	-2.1836982261	 0.4740857504	-0.172351
C	-2.5524371381	-2.6635892643	 0.0495177816	 0.259547
C	-2.8944254504	-2.1325166102	-1.3525129455	-0.395001
C	-2.5270700791	-4.2018185552	 0.0302672878	-0.402309
C	-3.6050837747	-2.1801576275	 1.0625751857	-0.409418
H	-0.3876310964	 2.0045474357	-1.009212422	 0.152309
H	-0.7647389052	 1.8050174622	 0.7203989756	 0.10839
H	 0.9108539139	 1.6852906722	 0.137413708	 0.151531
H	-1.3538270135	-0.2501263117	 1.3341364713	 0.242786
H	-0.4007445804	-2.5391312257	-0.2459865225	 0.139894
H	-0.89673768	-2.6139449506	 1.4539019919	 0.093711
H	-2.14860851	-2.4480436195	-2.0881823445	 0.127011
H	-3.8737999579	-2.5012946818	-1.6761688745	 0.102499
H	-2.9276313429	-1.0391846828	-1.3649601006	 0.1126
H	-2.2767912812	-4.6106098743	 1.0160335148	 0.106456
H	-3.5040007139	-4.6038284159	-0.2578181736	 0.111125
H	-1.7875943222	-4.576440511	-0.6858150389	 0.116419
H	-3.6517627266	-1.086242498	 1.0997762816	 0.102229
H	-4.6030512914	-2.5385345812	 0.7890237743	 0.115114
H	-3.3865876013	-2.5468211132	 2.0725940932	 0.104348
30.7939	48.3481	62.9165	89.183	206.3291	241.9553	253.5252	264.0398	272.629	306.9831	343.5224	380.8799	408.2906	442.3519	448.2421	533.1456	632.0768	637.2368	745.7399	850.8619	904.1607	935.9537	940.4692	958.47	969.4693	997.5547	1047.0194	1050.6529	1081.8764	1114.8185	1230.5601	1236.9838	1263.4433	1274.5732	1332.7858	1388.0331	1395.8901	1398.313	1400.7855	1433.8182	1469.1124	1469.9311	1478.6512	1484.7671	1486.4906	1487.9174	1505.0703	1507.7583	1518.0565	1539.9813	1778.6959	3016.7807	3019.9036	3025.1839	3035.5843	3047.5737	3086.2755	3090.5046	3093.3869	3096.7587	3102.8551	3108.4469	3113.299	3120.4154	3134.2775	3656.3461
CC(=O)NCC(C)(C)C	CC(=O)NCC(C)(C)C	
InChI=1S/C7H15NO/c1-6(9)8-5-7(2,3)4/h5H2,1-4H3,(H,8,9)	InChI=1S/C7H15NO/c1-6(9)8-5-7(2,3)4/h5H2,1-4H3,(H,8,9)
