20
gdb 58291	3.03219	0.90674	0.73322	7.8417	72.21	-0.2423	0.0338	0.2761	1527.5215	0.169742	-477.458562	-477.448447	-477.447503	-477.49398	37.074	
C	 0.1238532318	 1.5666435073	 0.1174834247	-0.419959
C	 0.0398199984	 0.0427050549	 0.015022395	 0.13057
O	 0.6633816559	-0.5747098806	 1.1330756778	-0.4266
C	-1.4089620831	-0.4849735141	-0.0058296062	 0.00663
N	-2.2279340657	 0.0764703793	-1.0977439212	-0.53455
H	-3.5096918985	-1.1478979456	-0.8481959386	 0.312344
H	-2.4055071516	 1.0655969317	-0.9630324957	 0.2487
H	-1.7569094479	-0.0311083802	-1.9927573674	 0.24079
C	-1.445447244	-2.0200202202	-0.095438224	-0.334678
C	-2.8274249567	-2.6619831801	 0.0794471181	 0.390376
O	-3.8564802325	-1.9882095138	-0.4568871772	-0.374662
O	-2.9811396376	-3.7160877914	 0.6378465809	-0.331279
H	 1.1703446986	 1.8866199543	 0.1702378271	 0.116707
H	-0.317571327	 2.0608981401	-0.7533434093	 0.109725
H	-0.3834860153	 1.9190823341	 1.0216122025	 0.13163
H	 0.5276520239	-0.2813932922	-0.9230031023	 0.061897
H	 1.5703982949	-0.2590975488	 1.1897569035	 0.288582
H	-1.8809745434	-0.1763332693	 0.9353429144	 0.110852
H	-1.0607653454	-2.328147429	-1.0791869401	 0.113807
H	-0.7859026349	-2.4536385462	 0.654221178	 0.159122
61.2258	90.306	98.6001	164.9363	237.2967	260.616	278.6303	329.5629	344.165	381.3844	413.5068	446.969	491.0562	524.1991	617.5057	691.6429	834.5792	876.4218	907.7902	916.1832	937.2577	957.8456	1000.3196	1079.519	1089.4455	1098.9895	1143.673	1151.3263	1222.9029	1267.3702	1295.2871	1308.3525	1356.6434	1368.4417	1397.2182	1409.3107	1421.9038	1466.7951	1486.766	1495.1801	1499.8694	1648.2717	1859.9183	2929.1257	3009.88	3031.7894	3044.0244	3097.2101	3112.7411	3156.1877	3295.151	3491.0919	3585.3494	3826.3263
CC(O)C([NH3+])CC([O-])=O	C[C@@H](O)[C@@H](N)CC(=O)O	
InChI=1S/C5H11NO3/c1-3(7)4(6)2-5(8)9/h3-4,7H,2,6H2,1H3,(H,8,9)	InChI=1S/C5H11NO3/c1-3(7)4(6)2-5(8)9/h3-4,7H,2,6H2,1H3,(H,8,9)/t3-,4+/m1/s1
