21
gdb 117549	2.18973	1.00381	0.81201	4.4434	79.65	-0.2363	0.0306	0.2669	1495.6667	0.180524	-420.397905	-420.386909	-420.385965	-420.434536	38.389	
C	-0.0079951213	 1.4568182516	-0.0585425345	-0.330557
N	 0.0154175981	 0.0029716709	 0.0611745379	-0.048909
C	 0.8685081143	-0.4311938596	 1.163811089	-0.338652
C	-1.3259438598	-0.5769304667	 0.0690942887	-0.129643
C	-1.34167344	-2.096019967	-0.1807364679	-0.198407
C	-0.6524578878	-2.4768539286	-1.4864122152	-0.08066
O	-0.8427966293	-3.871581143	-1.6624954275	-0.420117
C	-2.0788191766	-0.2563984978	 1.3119098541	 0.274876
N	-2.6142837582	 0.0217091642	 2.2983612607	-0.331955
H	 1.0145091228	 1.8221458629	-0.1900922561	 0.125344
H	-0.5878730524	 1.7468558941	-0.9403784239	 0.121105
H	-0.4417141245	 1.9610883491	 0.822303001	 0.120953
H	 0.4996502656	-0.1074120219	 2.1518428502	 0.124003
H	 0.962119483	-1.5196459758	 1.1710990638	 0.127758
H	 1.8681241409	-0.0125332426	 1.0183269886	 0.125624
H	-1.8740651921	-0.1004927432	-0.7535215768	 0.1237
H	-0.8780577274	-2.6344203196	 0.6508252883	 0.126564
H	-2.383920144	-2.4284525023	-0.2204931679	 0.129769
H	-1.0945032117	-1.9025725048	-2.3181736801	 0.084434
H	 0.4122104446	-2.2124711192	-1.441841274	 0.106025
H	-0.3465909543	-4.1472202708	-2.4384954584	 0.288745
67.6522	75.5008	97.2913	119.6486	140.2268	217.842	240.2074	255.7109	284.8744	310.1735	346.8844	361.0527	427.1782	463.7021	608.3952	617.9554	761.0325	840.7505	909.7607	984.403	1029.6747	1062.2218	1082.8226	1096.583	1107.2799	1124.4319	1189.6108	1197.6154	1238.9398	1249.8782	1292.1159	1303.6946	1317.0111	1359.2355	1382.1976	1444.5579	1460.8584	1474.5798	1480.4455	1494.3534	1500.4195	1503.2233	1516.0166	1526.7683	2340.6446	2961.0986	2961.3083	2970.4809	3029.0499	3031.5262	3062.3322	3067.4504	3081.2706	3105.0311	3110.0969	3122.4434	3833.2179
CN(C)C(CCO)C#N	CN(C)[C@@H](CCO)C#N	
InChI=1S/C6H12N2O/c1-8(2)6(5-7)3-4-9/h6,9H,3-4H2,1-2H3	InChI=1S/C6H12N2O/c1-8(2)6(5-7)3-4-9/h6,9H,3-4H2,1-2H3/t6-/m0/s1
