23
gdb 108663	2.07171	1.40155	0.95118	1.3717	88.79	-0.2219	0.0233	0.2452	1339.2744	0.205269	-388.312857	-388.302673	-388.301729	-388.348054	37.783	
C	 0.4363703237	 1.5616694468	-0.177390093	-0.391461
C	-0.0010647562	 0.1225390192	 0.1551792775	-0.058782
C	 0.2763741275	-0.8819959417	-0.9932784703	-0.229463
C	 1.5614499433	-1.6326025214	-0.5787761284	-0.282146
C	 1.6580964792	-1.3997230162	 0.9162832451	 0.219258
C	 2.689034435	-2.1413460244	 1.7137582378	-0.508748
C	 0.7869917889	-0.4615704364	 1.3188627863	 0.152206
C	 0.56098911	 0.085179367	 2.7063377877	-0.15982
O	 0.8047917796	-0.827881897	 3.7693430409	-0.405315
H	 1.4995498584	 1.595516686	-0.4399862196	 0.115394
H	-0.1356520704	 1.9573463483	-1.0235033555	 0.111382
H	 0.281762876	 2.2368513615	 0.6711895313	 0.113377
H	-1.0738553581	 0.1519599957	 0.3922928101	 0.062972
H	-0.5538581967	-1.5912009063	-1.0685981914	 0.097712
H	 0.3653972545	-0.3880862486	-1.9652969189	 0.09215
H	 1.5254181253	-2.6999758356	-0.8306972024	 0.095579
H	 2.456650391	-1.238250971	-1.0819817639	 0.101454
H	 3.692734477	-1.9339631363	 1.3186546869	 0.120069
H	 2.6656904082	-1.8705410333	 2.7688075462	 0.147415
H	 2.5482890417	-3.2269716262	 1.6247205666	 0.114982
H	 1.223735591	 0.9379037061	 2.9028001654	 0.121885
H	-0.4679201028	 0.4794361455	 2.7658053908	 0.089911
H	 0.311351614	-1.6303262315	 3.5690526207	 0.279988
58.5848	81.6162	147.7499	169.4902	209.3245	238.6006	254.8132	293.0204	333.7864	369.2344	389.7634	431.5115	555.3485	601.8856	694.0854	735.4655	785.4527	894.0426	914.6172	954.685	969.0492	985.5095	1015.7827	1033.657	1045.5687	1098.7506	1108.6277	1121.222	1165.2067	1196.7152	1210.9731	1229.221	1256.0268	1306.5587	1328.3799	1346.0575	1353.5058	1381.7319	1405.1383	1408.5777	1422.7108	1482.0661	1486.6639	1494.2643	1498.9299	1499.2511	1502.239	1503.4615	1728.7642	2955.6933	2995.2335	2998.5897	3012.2026	3025.6457	3033.889	3034.326	3050.2984	3052.4438	3089.7286	3096.0179	3097.8719	3153.7168	3809.2474
CC1CCC(C)=C1CO	C[C@H]1CCC(=C1CO)C	
InChI=1S/C8H14O/c1-6-3-4-7(2)8(6)5-9/h6,9H,3-5H2,1-2H3	InChI=1S/C8H14O/c1-6-3-4-7(2)8(6)5-9/h6,9H,3-5H2,1-2H3/t6-/m0/s1
