16
gdb 42848	2.71476	1.92324	1.62619	3.9615	66.95	-0.246	-0.0182	0.2278	871.099	0.126588	-437.836127	-437.829626	-437.828682	-437.867016	26.005	
O	-0.0706015032	-0.0188838288	 0.0850548972	-0.312708
C	-0.0476557458	 1.166996864	 0.0252226637	 0.483638
C	-1.0587806836	 2.3388131866	 0.1001020335	-0.142862
N	 0.0253958125	 2.9783814434	 0.9321085994	-0.324435
C	 0.9977587521	 2.3034685952	-0.0005012436	-0.16096
C	 0.6707103297	 2.9445156629	-1.3761687202	 0.11556
O	 0.6141306994	 2.0395890943	-2.4995931479	-0.293503
C	-0.8325004919	 2.1180660685	-2.5561019465	-0.107084
C	-0.8821259744	 3.0009351995	-1.2881586597	-0.086926
H	-2.0533640724	 2.2476461429	 0.5325650291	 0.096328
H	 0.0361654591	 3.9954966165	 0.8372938869	 0.224253
H	 2.0324206161	 2.1919443749	 0.3165600687	 0.097371
H	 1.2530588055	 3.8451981941	-1.5951092609	 0.08656
H	-1.1657736427	 2.6235769842	-3.4692969356	 0.109491
H	-1.3023557448	 1.1304136752	-2.4928412894	 0.125094
H	-1.3958650556	 3.9593996967	-1.3707013748	 0.090181
142.1028	154.126	314.9382	368.7156	455.4427	493.3479	623.8873	634.5497	793.0315	801.6643	826.6308	856.9963	861.2427	875.8106	940.349	978.1105	1004.8379	1024.0383	1028.213	1046.1762	1057.291	1071.3017	1125.6265	1159.9475	1175.47	1208.7166	1239.298	1246.203	1273.9445	1282.2094	1336.6818	1338.3876	1359.0919	1521.4178	1941.6315	3029.3432	3057.0473	3077.7601	3104.5277	3144.4521	3151.9158	3439.2459
O=C1C2NC1C1OCC21	O=C1[C@H]2N[C@@H]1[C@H]1OC[C@@H]21	
InChI=1S/C6H7NO2/c8-5-3-2-1-9-6(2)4(5)7-3/h2-4,6-7H,1H2	InChI=1S/C6H7NO2/c8-5-3-2-1-9-6(2)4(5)7-3/h2-4,6-7H,1H2/t2-,3-,4-,6-/m0/s1
