19
gdb 75552	2.12489	1.63436	1.10042	4.6856	81.63	-0.2403	0.0032	0.2435	1156.4541	0.161057	-382.092559	-382.083929	-382.082985	-382.125846	32.578	
C	-0.1728013302	 1.6207103253	 0.0899011635	-0.487008
C	-0.1243210181	 0.1208189062	 0.0202740368	 0.31332
C	-0.0624192404	-0.5707898448	-1.1183692197	-0.148945
C	 0.0317437163	-2.0716074208	-1.1939501554	-0.259338
C	 0.3692620085	-2.6751632809	 0.1761658707	-0.180549
N	-0.3888268586	-2.0667404503	 1.2731805795	-0.284871
C	-0.166832685	-0.6223152157	 1.3584986637	-0.233059
C	 1.0778634658	-0.3553977764	 2.1152933919	 0.314074
N	 2.0572451292	-0.1218868282	 2.6825888846	-0.334863
H	 0.6696660733	 2.0169284696	 0.6696015806	 0.150865
H	-0.1375274512	 2.064521148	-0.9081400096	 0.127161
H	-1.0880593195	 1.9688955907	 0.5866875843	 0.123326
H	-0.0800888066	-0.0286756757	-2.0618642274	 0.089409
H	-0.9163505819	-2.4841587908	-1.571710666	 0.106772
H	 0.7916602056	-2.3603758985	-1.9312762415	 0.113315
H	 0.1875233093	-3.7536597835	 0.1888458035	 0.108438
H	 1.4335582396	-2.5268942456	 0.3938502195	 0.131359
H	-1.3814442953	-2.2239362762	 1.1300244831	 0.225227
H	-0.9826913409	-0.2012039624	 1.9616420079	 0.125366
71.6448	141.4748	175.4968	193.9374	272.0272	315.2829	327.2369	405.7129	454.7891	489.1692	592.0263	607.0715	647.1779	763.8934	822.0285	837.9459	892.1803	910.7882	958.0952	987.5965	1035.9803	1071.429	1077.1406	1099.3222	1145.5374	1172.9243	1216.4963	1256.5832	1287.83	1350.0825	1356.2854	1375.0336	1388.3855	1416.7886	1472.7499	1478.6891	1490.964	1491.9107	1492.9844	1743.6946	2354.0318	2992.9378	3016.651	3020.5393	3035.8602	3048.9724	3069.1139	3092.1392	3116.385	3144.4797	3518.472
CC1=CCCNC1C#N	CC1=CCCN[C@H]1C#N	
InChI=1S/C7H10N2/c1-6-3-2-4-9-7(6)5-8/h3,7,9H,2,4H2,1H3	InChI=1S/C7H10N2/c1-6-3-2-4-9-7(6)5-8/h3,7,9H,2,4H2,1H3/t7-/m0/s1
