18
gdb 116867	3.34081	0.59971	0.52755	2.6049	81.73	-0.2675	0.0173	0.2847	2043.0474	0.14536	-401.93103	-401.920332	-401.919388	-401.969661	36.14	
C	-0.1762522365	 1.6318241415	 0.4580215216	-0.38018
C	-0.0506259925	 0.1446338908	 0.0432813678	-0.303387
C	 0.7571939505	-0.5964135864	 1.0288190993	 0.29004
N	 1.4032326697	-1.1589906886	 1.8036821411	-0.32291
C	-1.3561418157	-0.4923146421	-0.1424212539	 0.125554
C	-2.4405946956	-0.9878457843	-0.303503153	 0.03313
C	-3.7414825813	-1.6206415683	-0.4735088694	-0.327042
C	-3.9104607151	-2.8595343399	 0.4147493567	-0.063872
O	-5.2051375542	-3.3714580295	 0.1549102398	-0.414583
H	 0.8142700663	 2.0811703361	 0.5616608194	 0.138279
H	-0.7380000742	 2.1722261559	-0.3067165087	 0.138024
H	-0.7057012033	 1.7177254786	 1.4089009023	 0.148152
H	 0.5023809917	 0.1014857959	-0.9053979264	 0.155296
H	-4.5446105459	-0.9122346929	-0.2375882633	 0.141746
H	-3.887108085	-1.9197980971	-1.5183870576	 0.14202
H	-3.124487688	-3.5906736329	 0.175164125	 0.104289
H	-3.786922814	-2.572469459	 1.4693376164	 0.10372
H	-5.336282457	-4.1531032277	 0.6991842929	 0.291724
9.2063	53.4874	77.6867	139.3365	155.699	207.1401	233.1813	239.4313	306.9745	342.5805	377.9083	452.8908	488.0766	573.1705	601.3165	757.3163	794.236	863.677	989.848	1004.2026	1071.6102	1083.0391	1087.8174	1093.8936	1182.9836	1221.5039	1239.3636	1298.8733	1303.9567	1325.4309	1333.0911	1407.3897	1455.7739	1477.4711	1489.3099	1496.9126	1528.3211	2362.4605	2376.8342	2987.1167	3014.2594	3018.7184	3033.7557	3056.579	3072.1152	3138.9316	3145.3028	3835.3702
CC(C#N)C#CCCO	C[C@@H](C#N)C#CCCO	
InChI=1S/C7H9NO/c1-7(6-8)4-2-3-5-9/h7,9H,3,5H2,1H3	InChI=1S/C7H9NO/c1-7(6-8)4-2-3-5-9/h7,9H,3,5H2,1H3/t7-/m1/s1
