23
gdb 95241	2.63555	1.36816	1.04624	1.6984	84.84	-0.2566	0.0779	0.3344	1243.8617	0.207835	-388.297358	-388.288753	-388.287809	-388.330305	34.176	
C	-0.2326083476	 1.5276560841	 0.0188587151	-0.396628
C	 0.0056940557	 0.0095276394	 0.0013563986	 0.039179
C	 0.6905001193	-0.3923659721	-1.3169422223	-0.179433
C	 0.6990650911	-1.8852026178	-1.6656103988	-0.259536
C	 1.5641342322	-2.7894562605	-0.8116201706	 0.068247
O	 2.6902829792	-2.2287941806	-0.1200162583	-0.257112
C	 1.6242566419	-2.7969297713	 0.6556621041	 0.068244
C	 0.8323646291	-1.9017411333	 1.5867151808	-0.259536
C	 0.7958736451	-0.4054522798	 1.2550717498	-0.179429
H	 0.7186042635	 2.0721953019	-0.0173079845	 0.114963
H	-0.830134278	 1.8479518185	-0.8409140655	 0.107582
H	-0.7577161201	 1.8389233995	 0.9278197692	 0.107584
H	-0.9778110916	-0.4848774785	 0.0391298512	 0.060782
H	 0.1810893041	 0.1252718529	-2.1389124261	 0.086373
H	 1.7227420727	-0.022260436	-1.3110137282	 0.110266
H	-0.3257607778	-2.2835566592	-1.6523970317	 0.100859
H	 1.0418865493	-1.9883728205	-2.7029908377	 0.10272
H	 1.7947301335	-3.741486082	-1.2965452609	 0.082329
H	 1.8933371115	-3.7537458393	 1.1104005968	 0.082329
H	-0.1902540414	-2.3003991569	 1.6534381519	 0.100857
H	 1.2589418862	-2.0152481491	 2.5914441248	 0.102722
H	 1.8243157777	-0.0348469612	 1.1684869119	 0.110266
H	 0.3556087743	 0.1035888116	 2.1211706304	 0.086373
79.7745	184.8193	220.2897	228.6889	252.8965	312.9699	337.0953	411.4506	414.9676	458.7846	597.4457	610.5874	725.3928	771.2798	798.6815	862.3975	882.4308	906.7402	942.8458	959.7289	974.132	1003.8762	1034.6876	1086.6435	1097.7295	1120.2912	1123.3855	1161.8242	1167.0968	1206.7483	1250.4346	1283.849	1293.4567	1316.112	1336.834	1345.544	1388.7639	1393.0789	1393.8148	1404.8916	1411.0482	1421.0406	1471.3921	1474.353	1480.4047	1490.4462	1499.6955	1500.5797	1509.7321	2978.7184	3006.9172	3008.2712	3022.0067	3022.7214	3028.5264	3042.6051	3045.0855	3065.3299	3066.5067	3070.5128	3080.1272	3091.42	3098.9025
CC1CCC2OC2CC1	C[C@H]1CC[C@H]2O[C@H]2CC1	
InChI=1S/C8H14O/c1-6-2-4-7-8(9-7)5-3-6/h6-8H,2-5H2,1H3	InChI=1S/C8H14O/c1-6-2-4-7-8(9-7)5-3-6/h6-8H,2-5H2,1H3/t6-,7+,8-
