21
gdb 58972	2.31083	1.25677	0.97361	3.0826	82.5	-0.2195	0.0229	0.2425	1313.4346	0.18067	-424.234087	-424.223957	-424.223013	-424.269569	36.399	
C	-0.164142646	 1.5139805191	 0.0389811188	-0.405822
C	 0.0308734528	-0.0067829487	-0.0531573121	 0.012167
O	 0.8602537897	-0.3494137365	-1.1660559991	-0.438941
C	 0.698468712	-0.5660175667	 1.1682295395	 0.242315
C	 0.1566169614	-1.2053993275	 2.2065322893	 0.144222
C	-1.2638767393	-1.5926007104	 2.4666572464	-0.502136
C	 1.2436518762	-1.5383698279	 3.1973819219	-0.137258
O	 2.4472344274	-1.0222601528	 2.6499847552	-0.267643
C	 2.1882209904	-0.441989626	 1.3746901126	-0.1519
H	 0.7964174159	 2.0206363345	 0.1685993961	 0.130126
H	-0.634037768	 1.8963013366	-0.8754376848	 0.10461
H	-0.8119239362	 1.7722158698	 0.8818950002	 0.123448
H	-0.9590652832	-0.4750584054	-0.1679825492	 0.06733
H	 0.5039108429	 0.0902159258	-1.9446336225	 0.282331
H	-1.3426872492	-2.6658180479	 2.6810789433	 0.13029
H	-1.6632022208	-1.0694566687	 3.3451298681	 0.130394
H	-1.9178419393	-1.3691646651	 1.6203234886	 0.127366
H	 1.0575526539	-1.0880612595	 4.1871435822	 0.096322
H	 1.3301717417	-2.6273376144	 3.3565526153	 0.096624
H	 2.7503191563	-0.9703261791	 0.5917919165	 0.118868
H	 2.5352945914	 0.6034404308	 1.3697294538	 0.097287
46.0363	96.8903	137.6026	157.1026	186.7406	218.245	248.1578	281.1095	289.1227	361.5285	405.451	514.9583	587.5961	593.3826	657.6109	818.1354	895.682	933.3513	953.3225	967.5803	1004.2543	1047.5555	1065.7976	1085.2612	1096.0499	1108.4228	1145.127	1173.2525	1182.8137	1222.8336	1250.5171	1300.1201	1355.1401	1375.5311	1390.4524	1401.6101	1416.5784	1426.6849	1480.1127	1489.8803	1491.4071	1497.9676	1518.0332	1530.9489	1759.1204	2950.322	2964.5393	2974.6012	2975.9711	3013.1008	3019.1883	3027.1604	3063.3714	3096.8504	3114.878	3122.3892	3817.402
CC(O)C1=C(C)COC1	C[C@@H](O)C1=C(C)COC1	
InChI=1S/C7H12O2/c1-5-3-9-4-7(5)6(2)8/h6,8H,3-4H2,1-2H3	InChI=1S/C7H12O2/c1-5-3-9-4-7(5)6(2)8/h6,8H,3-4H2,1-2H3/t6-/m1/s1
