17
gdb 31733	4.42467	0.93525	0.78173	3.0719	72.28	-0.202	0.0091	0.2112	1431.5225	0.135918	-455.16496	-455.155762	-455.154817	-455.199753	32.372	
C	 0.1460661276	 1.2986677605	-0.1304058753	-0.330263
N	 0.2510537537	-0.1458501741	-0.0630809033	-0.378557
C	 0.7444932338	-0.7098202118	 1.0924192029	 0.31384
C	 0.8948875165	-0.194169602	 2.3436470129	-0.146369
O	 1.3794204987	-1.2139582902	 3.1521306066	-0.181015
C	 1.5019092685	-2.2642267076	 2.3327377327	 0.377813
C	 2.0038895023	-3.5722343922	 2.8575427892	-0.141404
O	 2.1126002996	-4.5198964835	 1.8254188756	-0.421505
N	 1.1467806799	-2.041884454	 1.10551628	-0.402122
H	 1.1005348159	 1.8156033812	 0.0583610749	 0.115674
H	-0.2216032616	 1.5875217502	-1.1170045241	 0.131117
H	-0.5799726946	 1.6505907016	 0.6112930089	 0.135039
H	 0.6090676431	-0.595042881	-0.8930781334	 0.24676
H	 0.7250363068	 0.7555345366	 2.8145234336	 0.137335
H	 2.9830299255	-3.4206775596	 3.3357561828	 0.123526
H	 1.3215702434	-3.9254232688	 3.6477978477	 0.119752
H	 1.725737611	-4.1154728954	 1.0369078583	 0.30038
44.5877	90.0631	144.1524	182.0024	198.189	229.5778	248.7172	360.4229	443.4773	474.3704	533.7384	616.6094	654.4571	715.521	729.5048	759.4348	1002.6458	1007.3163	1041.7114	1089.7524	1103.6455	1119.1474	1157.2983	1172.2116	1238.6092	1248.4855	1298.6039	1319.883	1372.9641	1459.3883	1476.6294	1483.3627	1500.6943	1512.3126	1523.7729	1617.76	1671.9741	2976.4334	2977.8737	3006.0338	3060.8396	3126.1538	3316.3644	3607.6878	3746.6086
CNC1=COC(CO)=N1	CNc1coc(CO)n1	
InChI=1S/C5H8N2O2/c1-6-4-3-9-5(2-8)7-4/h3,6,8H,2H2,1H3	InChI=1S/C5H8N2O2/c1-6-4-3-9-5(2-8)7-4/h3,6,8H,2H2,1H3
