17
gdb 20827	4.86822	1.35656	1.12348	2.5516	70.59	-0.2446	0.0209	0.2655	1089.748	0.143534	-360.092271	-360.084073	-360.083129	-360.125799	28.974	
C	 0.0173464529	 1.5379444181	-0.1439548286	-0.368043
C	-0.0205001078	 0.0105070408	 0.0117587497	-0.304832
C	-1.4160305076	-0.5232099422	 0.0816595421	 0.370867
N	-2.3743932576	-0.1268199084	 0.9013296067	-0.34594
C	-3.4360985067	-0.9220587075	 0.5675628936	 0.336968
C	-4.763838326	-0.8326298866	 1.2413101976	-0.481622
N	-3.1896217438	-1.783877951	-0.4086583941	-0.267886
N	-1.8927958128	-1.5110084394	-0.7056163174	-0.245347
H	 1.0491858814	 1.9002460586	-0.1324082831	 0.114374
H	-0.4452052791	 1.8489674272	-1.0854388785	 0.122413
H	-0.5308261439	 2.0128150061	 0.6727573985	 0.15021
H	 0.5110091024	-0.4728967705	-0.8162159968	 0.101472
H	 0.5079531664	-0.2745064348	 0.9295130613	 0.13349
H	-5.189116719	 0.1694539401	 1.1271128288	 0.136778
H	-5.4533213927	-1.5618340404	 0.8126959224	 0.137501
H	-4.6666543011	-1.0225605268	 2.3148754388	 0.136978
H	-1.425506695	-2.0280414431	-1.4320155108	 0.272618
33.8534	109.8166	138.4585	196.6326	256.2879	306.421	388.7425	430.7209	539.9191	617.4472	712.3479	725.066	762.1749	796.876	979.1646	1003.1896	1023.7403	1064.8014	1070.7168	1093.9478	1096.2586	1162.5165	1247.6423	1298.3565	1354.0824	1386.5621	1406.5938	1411.2152	1463.1588	1478.4354	1480.9508	1482.903	1496.0877	1506.9338	1543.5356	1586.6207	3031.9698	3046.1145	3046.6712	3066.9853	3101.7281	3116.039	3135.365	3143.9507	3663.0143
CCC1=NC(C)=NN1	CCc1nc(C)n[nH]1	
InChI=1S/C5H9N3/c1-3-5-6-4(2)7-8-5/h3H2,1-2H3,(H,6,7,8)	InChI=1S/C5H9N3/c1-3-5-6-4(2)7-8-5/h3H2,1-2H3,(H,6,7,8)
