19
gdb 32467	2.98693	1.11299	0.85692	3.2306	82.08	-0.1816	0.0352	0.2168	1389.9301	0.158279	-419.23662	-419.226752	-419.225808	-419.272666	34.54	
C	-0.2642065499	 1.495576167	-0.1774476205	-0.372769
C	 0.0939507139	 0.0087304781	-0.0061854462	-0.296444
C	 0.8658042935	-0.5490265685	-1.1447725348	 0.348726
C	 2.100186853	-1.0504395501	-1.2763225623	-0.203624
N	 2.2802753283	-1.3718424391	-2.6219925059	-0.369663
C	 1.1117895359	-1.1212596749	-3.3142664053	 0.503598
O	 0.240121477	-0.5680350443	-2.3906688355	-0.25934
N	 0.8869449599	-1.3526372029	-4.534917551	-0.385034
C	-0.4220248454	-1.0129862586	-5.0641932509	-0.317275
H	 0.6393516862	 2.1087028911	-0.2464792513	 0.121281
H	-0.846849308	 1.649996949	-1.0894768629	 0.137433
H	-0.8566175972	 1.8494079056	 0.6713661432	 0.114913
H	 0.6859760356	-0.1368575892	 0.9037266941	 0.113117
H	-0.8294996371	-0.5714134286	 0.1234042867	 0.119416
H	 2.8763405572	-1.1835637985	-0.5425308623	 0.144013
H	 3.0269037642	-1.9099906771	-3.0219686068	 0.270042
H	-0.5520745134	-1.5031078294	-6.0331765268	 0.113105
H	-1.2477388041	-1.325353395	-4.4090879333	 0.108306
H	-0.5302992897	 0.0694078153	-5.2265403083	 0.110199
30.929	68.1621	120.9803	131.7829	171.336	221.3284	235.1031	299.2789	347.4364	417.4327	532.642	591.4836	643.9557	722.4069	745.5705	759.7915	789.756	914.539	944.0526	980.8646	1061.8723	1071.1081	1087.009	1098.2638	1125.0545	1143.0571	1200.271	1259.2115	1281.7343	1360.2636	1376.9368	1406.212	1409.4108	1447.5339	1470.554	1492.3179	1495.4725	1501.2408	1507.2932	1725.6968	1811.9005	2985.929	3019.0169	3030.4144	3043.167	3073.8275	3090.5258	3114.8036	3124.7388	3286.5954	3706.2654
CCC1=CNC(O1)=NC	CCc1c[nH]c(=NC)o1	
InChI=1S/C6H10N2O/c1-3-5-4-8-6(7-2)9-5/h4H,3H2,1-2H3,(H,7,8)	InChI=1S/C6H10N2O/c1-3-5-4-8-6(7-2)9-5/h4H,3H2,1-2H3,(H,7,8)
