20
gdb 98526	3.64597	1.08919	0.97476	3.3726	81.52	-0.2364	0.0292	0.2656	1293.1069	0.171757	-403.132208	-403.123312	-403.122368	-403.167192	32.757	
C	-0.0958259861	 1.4347411705	-0.2409041552	-0.336036
N	-0.2263747123	-0.0033999232	-0.3597915804	-0.322942
C	-1.022623165	-0.7408789479	 0.4674664799	 0.251376
O	-1.6874413215	-0.2601149481	 1.3702296032	-0.388821
C	-1.0281726752	-2.2201226082	 0.1882207492	 0.289893
C	-0.6475671458	-3.334516725	 1.2128782705	-0.234256
C	-1.1115191	-4.0811639708	-0.0700508011	-0.060001
C	-2.2938947125	-3.073230202	-0.1386057885	-0.234258
C	-0.2741049799	-3.0591048665	-0.8925651832	-0.292958
H	 0.939517478	 1.7274809426	-0.032469693	 0.123751
H	-0.4261722892	 1.944117369	-1.1533137822	 0.123751
H	-0.7289977282	 1.7466142329	 0.5908472942	 0.171861
H	 0.2872569512	-0.4847379618	-1.078612415	 0.24959
H	 0.4117714339	-3.4100258096	 1.4738156422	 0.091055
H	-1.2884166976	-3.4125028215	 2.0932245747	 0.108679
H	-1.1545445248	-5.1590931851	-0.2260380111	 0.076421
H	-3.0456417424	-3.133617591	 0.6507042313	 0.108679
H	-2.7477618275	-2.9085795825	-1.119871928	 0.091055
H	-0.5753634392	-2.9070335581	-1.933706272	 0.09158
H	 0.813712004	-3.1274815136	-0.7934100053	 0.09158
23.3551	90.4175	116.347	144.5755	236.272	303.8917	369.9046	446.5959	473.0335	539.0566	562.6597	725.5695	795.8094	807.8291	815.01	884.466	934.3124	957.2527	963.9356	965.0897	995.3481	1042.1407	1097.9251	1100.7758	1131.3184	1142.883	1151.3926	1160.1626	1163.2114	1173.0404	1199.5789	1233.8963	1235.1413	1252.4453	1326.479	1437.0228	1492.0698	1497.7315	1499.6417	1500.3135	1552.6032	1560.5135	1769.6082	3024.679	3036.3528	3053.7028	3058.0517	3075.7964	3101.2442	3111.2224	3126.1416	3130.3613	3150.1999	3654.4129
CNC(=O)C12CC(C1)C2	CNC(=O)[C@@]12C[C@@H](C1)C2	
InChI=1S/C7H11NO/c1-8-6(9)7-2-5(3-7)4-7/h5H,2-4H2,1H3,(H,8,9)	InChI=1S/C7H11NO/c1-8-6(9)7-2-5(3-7)4-7/h5H,2-4H2,1H3,(H,8,9)/t5-,7-
