17
gdb 29726	3.29796	1.32085	0.9544	4.953	85.52	-0.2195	-0.0169	0.2026	1195.5166	0.136736	-380.936758	-380.927866	-380.926922	-380.970785	31.784	
C	 0.0238870521	 1.4167972975	 0.0191420836	-0.357088
N	 0.0119587711	-0.0345659695	 0.0009696094	-0.110034
C	 0.0167913008	-0.8186368555	-1.1216604231	 0.291115
C	 0.0360008872	-0.2354716347	-2.495206295	-0.506883
C	 0.0012898261	-2.1445860289	-0.7191244434	-0.21411
C	-0.0134761574	-2.1714948436	 0.6885770695	-0.236717
C	-0.0066425922	-0.8549027539	 1.1211257187	 0.1902
C	-0.0156446485	-0.3326873453	 2.4298894874	 0.205462
N	-0.0229394506	 0.1137749676	 3.5013202145	-0.372077
H	 0.9221266396	 1.8055509232	-0.4703949466	 0.145175
H	-0.8566201151	 1.8203268538	-0.4902233249	 0.145175
H	 0.0152023562	 1.7578190417	 1.0546473493	 0.175611
H	 0.9258446441	 0.381275618	-2.6709855704	 0.136836
H	 0.0367740754	-1.0387540406	-3.2345494537	 0.142957
H	-0.8393231447	 0.3963875853	-2.6892798656	 0.136829
H	 0.0008688411	-2.995515748	-1.3828828736	 0.106164
H	-0.027484295	-3.036180257	 1.332773184	 0.121385
55.8164	112.8341	150.3467	157.6731	209.0415	260.6427	280.1363	408.2621	511.0437	524.937	588.7078	640.5598	663.4555	691.5431	744.3358	779.8029	849.4768	966.9205	1010.1648	1054.8065	1059.9836	1151.965	1161.5016	1209.0227	1240.9534	1351.162	1398.5691	1419.7002	1438.7357	1474.2525	1477.795	1491.9971	1505.3443	1509.6865	1520.1701	1590.0009	2324.2089	3022.324	3041.4356	3068.489	3100.6767	3130.5392	3153.3032	3249.2999	3268.5444
CN1C(C)=CC=C1C#N	Cn1c(C)ccc1C#N	
InChI=1S/C7H8N2/c1-6-3-4-7(5-8)9(6)2/h3-4H,1-2H3	InChI=1S/C7H8N2/c1-6-3-4-7(5-8)9(6)2/h3-4H,1-2H3
