14
gdb 62351	4.13729	1.14556	1.10545	1.5067	69.58	-0.276	-0.0194	0.2566	1088.2602	0.100954	-432.831591	-432.82376	-432.822816	-432.863902	29.377	
N	-0.178606257	 1.4359224676	 0.0283849991	-0.547293
C	-0.0822681066	 0.010218919	 0.029905376	 0.112427
C	 1.0274738584	-0.5991597701	-0.6835874365	 0.237576
N	 1.9344677056	-1.0389591387	-1.2520511564	-0.326906
C	-0.5350343615	-0.7984315522	 1.2325169624	 0.069324
O	-1.5553010559	-0.0893291079	 1.9475241428	-0.260764
C	-2.3911819639	-0.1586274134	 0.8262285152	 0.465959
N	-3.5814291434	 0.180552569	 0.6697772527	-0.54509
C	-1.3644553938	-0.8493103174	-0.0222865948	-0.25055
H	 0.6576506626	 1.8641351601	 0.4112783456	 0.25188
H	-0.3206552855	 1.7921325595	-0.9107641495	 0.254201
H	 0.0579792393	-1.5293288233	 1.7639033294	 0.148838
H	-3.9688642333	 0.6016079977	 1.5154002992	 0.241922
H	-1.5249414751	-1.6126019498	-0.7684540752	 0.148477
118.6839	133.0595	177.3303	239.5625	297.896	360.6198	431.1999	466.5494	550.2798	580.3914	649.2349	732.731	750.5357	795.1859	844.0997	876.839	891.2923	939.9113	964.123	1016.4156	1040.0369	1083.451	1109.2415	1180.2394	1252.6936	1261.8383	1290.4908	1370.776	1657.7806	1847.268	2339.6116	3226.3315	3243.7173	3489.2852	3510.6651	3594.2772
NC1(C#N)C2OC(=N)C12	N[C@@]1(C#N)[C@H]2O[C]([NH])[C@@H]12	
InChI=1S/C5H5N3O/c6-1-5(8)2-3(5)9-4(2)7/h2-3,7H,8H2	InChI=1S/C5H5N3O/c6-1-5(8)2-3(5)9-4(2)7/h2-3,7H,8H2/t2-,3-,5+/m0/s1
