13
gdb 129558	3.40507	1.13565	1.0513	3.8621	64.74	-0.2926	-0.0613	0.2313	1126.0822	0.089565	-448.897214	-448.889261	-448.888317	-448.930644	27.96	
N	-0.1380726763	 1.4430831036	 0.1021082389	-0.49347
C	 0.0141166519	-0.0061536161	-0.0182645274	-0.245644
C	 0.7527025503	-0.4377736199	-1.2313858867	 0.267816
N	 1.3080978924	-0.7234209288	-2.2036878771	-0.307868
C	 0.6729753389	-0.5530741238	 1.2153369731	 0.481826
C	 0.2974183927	-1.4736975459	 2.1399770644	-0.216755
N	 1.3156223299	-1.5421248694	 3.0625229903	-0.096787
N	 2.244141541	-0.7552503154	 2.7691907299	 0.008265
O	 1.8682873976	-0.0759856707	 1.5472913477	-0.227072
H	 0.7769951952	 1.8800713662	 0.1655162839	 0.261797
H	-0.5908593951	 1.8118077	-0.7287484469	 0.255479
H	-0.9854104388	-0.4508357903	-0.0750205575	 0.158111
H	-0.5928713396	-2.0731082996	 2.2183520874	 0.154303
48.8734	102.6355	172.8617	208.2605	275.118	330.7879	399.7734	463.522	576.3309	593.453	696.495	733.0333	775.1392	833.2117	848.0256	956.1738	984.8378	1038.3982	1099.7083	1115.4382	1185.841	1245.6494	1309.4062	1385.3157	1392.6612	1472.9205	1614.1686	1660.5317	2351.3922	3063.1174	3295.4164	3501.2255	3584.7088
NC(C#N)C1=CN=NO1	N[C@@H](C#N)c1cnno1	
InChI=1S/C4H4N4O/c5-1-3(6)4-2-7-8-9-4/h2-3H,6H2	InChI=1S/C4H4N4O/c5-1-3(6)4-2-7-8-9-4/h2-3H,6H2/t3-/m0/s1
