16
gdb 14624	2.55507	1.63017	1.07059	2.7248	64.68	-0.261	0.0183	0.2793	1078.574	0.12927	-417.0435	-417.034601	-417.033657	-417.079173	29.469	
N	-1.2020349269	 0.9449132869	-0.6502427876	-0.440685
C	-0.947239338	-0.2891990073	-0.649472137	 0.130774
O	-1.1810309739	-1.0182067484	 0.4665723262	-0.187897
C	-0.9885496086	-2.4241323706	 0.3929199473	-0.085708
C	-2.3171977133	-3.145148361	 0.2103074445	-0.085737
O	-2.8555663421	-2.8961811997	-1.0809207833	-0.187903
C	-3.8240920163	-1.9573095147	-1.1912357729	 0.130777
N	-4.2543246443	-1.639471072	-2.3322176871	-0.440697
H	-0.9590444935	 1.3474972014	-1.5528111426	 0.233851
H	-0.5333680063	-0.8786703304	-1.4774463134	 0.102221
H	-0.3088253536	-2.6837351521	-0.4281746114	 0.123216
H	-0.5284683548	-2.7358028462	 1.3364585128	 0.12423
H	-2.1623385357	-4.2261269453	 0.2913317968	 0.124244
H	-3.0194619075	-2.8344875384	 0.9938471332	 0.123221
H	-4.1543347436	-1.5548869277	-0.2251645941	 0.102245
H	-4.9843634414	-0.9360559545	-2.2427766714	 0.233849
39.1434	41.8216	91.394	97.9144	149.2941	266.7223	356.7057	397.3684	479.6685	609.8794	614.6163	813.888	818.1171	871.4118	926.736	986.0605	1005.1073	1038.8239	1039.6931	1130.8007	1143.2585	1156.1879	1240.0931	1268.1078	1325.9229	1347.4891	1398.1178	1401.4079	1421.7821	1424.5732	1487.9368	1493.1323	1738.709	1752.1484	3028.7961	3030.0788	3041.5083	3043.4392	3088.0239	3091.8826	3522.6484	3522.7272
N=COCCOC=N	[NH][CH]OCCO[CH][NH]	
InChI=1S/C4H8N2O2/c5-3-7-1-2-8-4-6/h3-6H,1-2H2	InChI=1S/C4H8N2O2/c5-3-7-1-2-8-4-6/h3-6H,1-2H2
