20
gdb 51465	2.98238	1.19519	1.12394	3.2122	80.31	-0.2505	0.0212	0.2717	1196.804	0.172712	-403.14459	-403.136201	-403.135257	-403.178494	31.384	
N	-0.4462089933	 1.243638178	 0.1475903025	-0.447221
C	-0.4270299939	-0.0081179742	 0.3068617503	 0.13632
O	-1.1426265505	-0.8015851066	-0.5190053118	-0.187302
C	-1.0585346967	-2.1865328673	-0.2644569252	 0.098106
C	-1.8889991917	-2.8568350543	 0.8027769175	-0.093133
C	-3.0526208676	-2.0912571221	 1.4215718167	-0.216696
C	-3.8692112893	-1.5190598651	 0.2365494542	-0.219941
C	-3.5483587942	-2.4274682586	-0.9753412173	-0.207755
C	-2.1967169197	-3.0652938478	-0.6771048227	-0.097499
H	 0.1448789457	 1.6898612099	 0.8459548935	 0.228497
H	 0.1281283508	-0.5660722291	 1.0726238417	 0.089757
H	-0.0573712703	-2.5812502556	-0.4256717144	 0.100802
H	-1.4052331435	-3.6248018253	 1.3976502553	 0.083777
H	-3.653606531	-2.7979463032	 2.0051790105	 0.102315
H	-2.7292733831	-1.3051849481	 2.1128284204	 0.101732
H	-4.9400241917	-1.4928809895	 0.4557172619	 0.09339
H	-3.5538762068	-0.4966746838	 0.0247173773	 0.135402
H	-4.2899932973	-3.2286532732	-1.0714137608	 0.099473
H	-3.5521969208	-1.8688401087	-1.9162026435	 0.112789
H	-1.945527415	-3.9897795554	-1.1860053462	 0.087187
52.2551	88.7851	116.4855	203.1936	231.4648	277.4038	466.816	498.1433	596.1065	691.3616	717.9901	761.4285	802.595	813.0466	825.0255	885.485	887.6414	934.9577	984.6823	1007.6981	1043.4918	1049.8125	1054.6237	1090.2534	1094.0539	1116.7765	1124.5328	1191.7962	1216.995	1235.8326	1259.2371	1286.8929	1316.3425	1321.0614	1332.1731	1362.1985	1364.3597	1413.5317	1437.994	1489.7896	1490.6266	1512.1584	1744.5524	3031.3212	3035.389	3039.6294	3068.7208	3071.5545	3082.9109	3120.3304	3127.7273	3156.9066	3168.6017	3516.8819
N=COC1C2CCCC12	[NH][CH]O[C@H]1[C@H]2CCC[C@@H]12	
InChI=1S/C7H11NO/c8-4-9-7-5-2-1-3-6(5)7/h4-8H,1-3H2	InChI=1S/C7H11NO/c8-4-9-7-5-2-1-3-6(5)7/h4-8H,1-3H2/t5-,6+,7-
