19
gdb 81869	2.86649	1.44989	1.09334	3.1448	75.21	-0.2444	-0.0182	0.2262	1146.4401	0.157727	-423.055712	-423.046982	-423.046037	-423.088926	33.153	
C	 0.2644837907	 1.6348522508	-0.0258281451	-0.396665
C	 0.0841821118	 0.1153312049	-0.0215302907	-0.128706
C	 0.7169558236	-0.6248412742	-1.1786042603	-0.026811
O	 2.1525629014	-0.5854419348	-1.1395784147	-0.300139
C	 1.4898443011	-1.792679786	-0.7124453287	 0.40458
C	 1.7506057049	-3.0233057758	-1.5351327821	-0.484506
C	 1.4090132939	-1.864985412	 0.7996019074	-0.391789
C	 0.7312633471	-0.5498919342	 1.2131973186	 0.392687
O	 0.7012998863	-0.1003788892	 2.3276876391	-0.309199
H	 1.3173530974	 1.8873322929	-0.178876549	 0.137447
H	-0.3230593853	 2.1018151837	-0.8215519834	 0.112612
H	-0.0527231391	 2.0478540266	 0.9348024162	 0.139518
H	-0.9888178352	-0.1285322488	 0.0169485508	 0.101506
H	 0.2774146506	-0.5846683342	-2.1730928399	 0.093406
H	 1.7428012561	-2.7801655185	-2.6006665479	 0.132529
H	 2.7279574882	-3.4533171316	-1.2906997416	 0.132383
H	 0.9906952627	-3.7883078648	-1.343492856	 0.123522
H	 0.7917299783	-2.7096505233	 1.132204983	 0.127574
H	 2.3850050254	-1.9600900817	 1.2839756042	 0.14005
76.4017	147.6196	200.9693	216.4413	228.2525	273.2662	335.5205	372.2071	481.4636	494.8229	551.1477	576.6946	667.975	725.8645	763.8212	849.2257	881.4177	931.326	933.4446	1001.784	1017.1681	1028.7944	1071.83	1105.779	1120.8154	1166.7772	1201.2122	1215.2299	1271.5822	1306.6921	1317.3688	1337.4721	1399.657	1413.3956	1434.3887	1459.0216	1486.0871	1493.2261	1497.6903	1504.1157	1851.7525	2998.8569	3034.5608	3038.8264	3046.2378	3097.6933	3099.9944	3118.6581	3122.4398	3130.9206	3136.3395
CC1C2OC2(C)CC1=O	C[C@H]1[C@H]2O[C@@]2(C)CC1=O	
InChI=1S/C7H10O2/c1-4-5(8)3-7(2)6(4)9-7/h4,6H,3H2,1-2H3	InChI=1S/C7H10O2/c1-4-5(8)3-7(2)6(4)9-7/h4,6H,3H2,1-2H3/t4-,6-,7+/m1/s1
