18
gdb 84049	3.32985	1.20093	0.98135	4.7081	84.57	-0.2506	-0.0426	0.208	1218.8258	0.148987	-364.834427	-364.826441	-364.825497	-364.86688	30.881	
C	-0.1796775953	 1.5897471272	 0.0503821376	-0.39447
C	 0.0320976931	 0.0679101283	 0.011341753	-0.034508
C	 0.8254834824	-0.4179555552	-1.1827777045	-0.17617
C	 1.8217791666	-1.2470925404	-0.8307149618	 0.207742
C	 2.7180143304	-1.890367279	-1.7281128868	 0.197229
N	 3.4552340651	-2.4344668421	-2.4371682298	-0.339966
C	 1.9146038564	-1.399875071	 0.6579953434	-0.150162
C	 2.2507306318	-0.1202991243	 1.3951979316	-0.282612
C	 0.8081198885	-0.5133108387	 1.2002155747	-0.053754
H	 0.774680702	 2.1218611385	 0.0994448277	 0.124459
H	-0.7146396444	 1.9348409176	-0.8400968215	 0.119989
H	-0.770257793	 1.8717724267	 0.9271244105	 0.1235
H	-0.9631836123	-0.4009172669	-0.0256412429	 0.097134
H	 0.6097419041	-0.1095288637	-2.1991757202	 0.118959
H	 2.1774710791	-2.3596756812	 1.0855773506	 0.106399
H	 2.6497835154	-0.2168419273	 2.3990760279	 0.120306
H	 2.66853948	 0.6992174406	 0.8201208467	 0.121264
H	 0.2469982201	-0.813241869	 2.0770759037	 0.094661
110.9516	144.1109	186.8105	232.4629	263.2586	376.327	412.5292	489.8497	539.6296	569.3173	641.116	684.0243	773.944	805.8058	848.0842	882.9062	908.6753	931.4507	968.0815	1026.2175	1040.9527	1070.8272	1075.0079	1101.3954	1111.4939	1130.3778	1173.0027	1201.897	1264.756	1308.2873	1328.6004	1361.5522	1376.692	1411.436	1477.1153	1497.4525	1499.2843	1657.4728	2337.5006	2986.017	3039.3207	3108.2174	3116.4373	3131.4084	3179.2072	3189.2927	3207.0614	3220.1418
CC1C=C(C#N)C2CC12	C[C@H]1C=C(C#N)[C@H]2C[C@@H]12	
InChI=1S/C8H9N/c1-5-2-6(4-9)8-3-7(5)8/h2,5,7-8H,3H2,1H3	InChI=1S/C8H9N/c1-5-2-6(4-9)8-3-7(5)8/h2,5,7-8H,3H2,1H3/t5-,7-,8+/m0/s1
