22
gdb 60468	4.72447	0.60894	0.56338	2.4896	80.23	-0.2474	0.073	0.3204	1982.6234	0.192431	-441.441915	-441.431398	-441.430453	-441.47866	37.464	
C	-0.0650948836	 0.3606542598	-0.9430019407	-0.399646
C	-0.001733861	-0.1216969679	 0.5026574356	 0.109246
O	 0.2324766304	 0.9411681362	 1.4197837538	-0.429621
C	-1.2599513896	-0.8862627418	 0.9225443941	-0.061193
O	-1.4097256153	-2.0168428206	 0.0928080473	-0.247277
C	-2.5241857695	-2.8185113708	 0.4256658009	-0.074414
C	-2.5472407383	-4.0216893188	-0.4756273521	 0.01593
C	-3.8505208738	-4.613461912	-0.8673358733	-0.246509
N	-3.0283226423	-3.9030659193	-1.8590559503	-0.304742
H	 0.8592784497	 0.8773095043	-1.2145714538	 0.122483
H	-0.2180875076	-0.482746501	-1.6206249714	 0.140921
H	-0.9025644073	 1.0580168633	-1.0805755386	 0.098654
H	 0.8541385559	-0.7957373896	 0.6221776065	 0.100732
H	-0.4138644981	 1.6322494237	 1.2377942852	 0.277726
H	-1.1668044207	-1.1790808265	 1.9801403155	 0.096254
H	-2.1420883668	-0.2231500973	 0.8411617158	 0.068613
H	-2.4648683237	-3.1342064712	 1.4815655009	 0.094044
H	-3.4614029314	-2.2440111776	 0.3107236269	 0.076314
H	-1.6843276203	-4.6756190847	-0.3713929734	 0.100293
H	-3.9355741045	-5.6849144274	-1.0227214284	 0.12192
H	-4.756819289	-4.1388858354	-0.4981118495	 0.109686
H	-3.3966313231	-2.9670768652	-2.014240541	 0.230588
46.7929	55.2552	97.0974	120.7738	156.3847	230.123	257.1089	279.9679	298.3038	373.0004	407.4939	458.7608	472.6768	549.3792	805.9837	839.325	851.5878	927.8176	934.8171	945.2342	968.9882	1013.7592	1034.1793	1073.4018	1083.3203	1123.4655	1148.6677	1153.3719	1161.5373	1170.8402	1217.1521	1244.1556	1252.336	1278.2278	1299.7375	1312.8577	1355.0124	1372.8516	1398.1145	1410.0852	1420.934	1459.2092	1490.0459	1497.7065	1502.9495	1515.3963	1524.4806	2926.3285	2940.9035	2973.0784	2996.4846	3020.6846	3054.9685	3100.6784	3107.1843	3134.3928	3137.6357	3192.2504	3491.7096	3800.3817
CC(O)COCC1CN1	C[C@@H](O)COC[C@H]1CN1	
InChI=1S/C6H13NO2/c1-5(8)3-9-4-6-2-7-6/h5-8H,2-4H2,1H3	InChI=1S/C6H13NO2/c1-5(8)3-9-4-6-2-7-6/h5-8H,2-4H2,1H3/t5-,6-/m1/s1
