23
gdb 123078	9.15082	0.39921	0.38806	0.9979	93.36	-0.2427	0.0624	0.305	2862.1216	0.202438	-388.26929	-388.257312	-388.256367	-388.30921	39.924	
C	 0.0953211848	 1.4839351543	 0.0089893573	-0.382267
C	-0.0060912242	-0.043267691	 0.0017671264	-0.182492
C	-1.4487784692	-0.5297832253	 0.012939252	-0.031297
O	-1.4545620358	-1.9418473639	 0.0053861275	-0.244243
C	-2.748833339	-2.4972439918	 0.01484962	-0.044659
C	-2.6029723762	-4.022726995	 0.0050186198	-0.35111
C	-3.8918197475	-4.7038908427	 0.0136562407	 0.038467
C	-4.9702135335	-5.2393455523	 0.0211967572	 0.073131
C	-6.2672126713	-5.9014579899	 0.0304776869	-0.496422
H	 1.1397020394	 1.808698206	 0.0007812704	 0.117273
H	-0.3948768326	 1.9210906251	-0.8679789059	 0.116222
H	-0.3780351042	 1.9116091901	 0.8997763922	 0.116221
H	 0.4924466789	-0.4541194541	-0.8836596629	 0.10638
H	 0.5092265919	-0.463543766	 0.873050524	 0.106379
H	-1.9747029854	-0.1496937974	 0.9065176705	 0.082735
H	-1.9916491016	-0.1401509183	-0.8662792453	 0.082736
H	-3.3083969203	-2.1783119522	 0.9092544989	 0.094153
H	-3.3255692669	-2.1685231474	-0.8649862989	 0.094153
H	-2.0217139344	-4.3088973528	-0.8800705403	 0.133166
H	-2.0047742274	-4.3185904225	 0.8755240185	 0.133168
H	-6.1566259889	-6.9915986343	 0.0243676546	 0.147221
H	-6.846618802	-5.6339670684	 0.9212085097	 0.145544
H	-6.8633898847	-5.6257761401	-0.8465844433	 0.145538
25.1724	39.4534	56.8601	66.5405	122.0046	137.9259	151.8625	222.7351	233.7476	271.2523	272.9674	392.134	395.136	469.3946	528.8787	766.5491	780.6161	795.4043	902.8777	909.5483	1012.7683	1053.6452	1054.7252	1056.819	1061.4022	1087.499	1154.6476	1156.9072	1172.7493	1190.5302	1230.5818	1270.3509	1297.8938	1307.3246	1315.9861	1336.0121	1398.049	1414.4846	1415.5803	1450.1749	1478.895	1478.9753	1479.9981	1492.6155	1500.9422	1506.7454	1517.2106	1537.577	2375.968	2942.3386	2966.9891	2968.2833	2994.5254	3025.4356	3028.3538	3032.0097	3039.2598	3064.1132	3071.7612	3085.0839	3085.7043	3099.9992	3108.1235
CCCOCCC#CC	CCCOCCC#CC	
InChI=1S/C8H14O/c1-3-5-6-8-9-7-4-2/h4,6-8H2,1-2H3	InChI=1S/C8H14O/c1-3-5-6-8-9-7-4-2/h4,6-8H2,1-2H3
