25
gdb 113576	3.75089	0.90133	0.82659	0.1687	93.37	-0.2527	0.09	0.3427	1551.5626	0.230343	-352.368864	-352.35936	-352.358416	-352.403714	36.694	
C	-0.0929516349	 1.5795147575	-0.5073837425	-0.372238
C	-0.0343767327	 0.2039700215	 0.1678857988	-0.199151
C	-1.3807164135	-0.4902465531	 0.195017244	-0.041621
C	-1.8439194666	-1.327100621	-0.9753478709	-0.344395
C	-1.5301040432	-1.9841358974	 0.3504744788	 0.371781
C	-0.3306622757	-2.944930722	 0.48505928	-0.285177
C	-0.8100918829	-4.0585139139	 1.4464784039	-0.199396
C	-2.3410378304	-4.0547387733	 1.301986209	-0.201022
C	-2.6685798621	-2.5566003642	 1.2030509465	-0.274508
H	 0.8904462212	 2.0601957077	-0.5194441823	 0.107241
H	-0.4407663943	 1.4932148455	-1.5421143786	 0.117441
H	-0.7841875121	 2.247723901	 0.0181681092	 0.112174
H	 0.6944992229	-0.4266481988	-0.355364587	 0.094851
H	 0.3438000791	 0.3175964871	 1.1931818178	 0.092212
H	-2.1596350963	 0.0953688104	 0.6830771334	 0.070828
H	-2.8807532318	-1.2625322668	-1.2917112723	 0.101198
H	-1.1398904307	-1.477882454	-1.7899928336	 0.100101
H	-0.0697495502	-3.3698547178	-0.4906129748	 0.096816
H	 0.5685963609	-2.4490412205	 0.862707362	 0.097017
H	-0.3555526168	-5.028991424	 1.2281572189	 0.091197
H	-0.5424005319	-3.8023137049	 2.478683649	 0.096249
H	-2.6317798117	-4.5629861794	 0.3741712467	 0.096668
H	-2.8542438925	-4.5566764385	 2.1273701282	 0.089379
H	-2.6501516928	-2.1111057647	 2.207203224	 0.092645
H	-3.656760651	-2.3535031963	 0.7790448419	 0.08971
38.7295	93.3072	134.963	167.754	240.3643	271.1093	298.4192	348.3758	422.6235	439.8501	548.0954	585.032	714.6077	773.983	808.4831	834.3465	859.0601	875.7293	910.6625	922.7748	936.4406	957.8921	971.7536	983.2591	1031.1816	1047.1965	1050.8866	1085.9802	1090.6786	1129.893	1169.4614	1184.9566	1196.9629	1225.0892	1249.0308	1261.0846	1293.7544	1299.0275	1316.9116	1336.7266	1341.8065	1348.7363	1365.9602	1408.5433	1429.7032	1482.7154	1487.2588	1490.5842	1493.002	1497.026	1498.4578	1507.8133	1512.5427	3010.7101	3011.7228	3028.8856	3030.4326	3034.2243	3035.7701	3050.213	3074.1888	3076.0833	3086.0731	3094.5092	3096.6425	3103.1718	3105.6283	3107.9216	3192.171
CCC1CC11CCCC1	CC[C@H]1CC21CCCC2	
InChI=1S/C9H16/c1-2-8-7-9(8)5-3-4-6-9/h8H,2-7H2,1H3	InChI=1S/C9H16/c1-2-8-7-9(8)5-3-4-6-9/h8H,2-7H2,1H3/t8-/m0/s1
