16
gdb 23429	3.10998	1.06083	0.93667	3.0269	75.05	-0.2388	-0.0289	0.2099	1253.1527	0.122821	-437.816351	-437.808109	-437.807164	-437.849627	30.628	
O	-0.1281378669	 1.2979698285	-0.0502976878	-0.390857
N	 0.027115649	-0.098507108	-0.0006535789	-0.25559
C	-1.0975230858	-0.678218944	-0.0609870336	 0.432512
C	-2.5614069295	-0.2426016805	-0.0352773642	-0.340447
C	-2.9186717718	-1.7389528173	 0.0772375233	-0.075991
C	-2.378050876	-2.5540374361	-1.0745687304	-0.111173
C	-2.2369756191	-2.0699562328	-2.4734675727	 0.149911
O	-2.4871985615	-2.752522622	-3.4366729763	-0.262259
C	-1.434299996	-2.1249651839	 0.0559565322	-0.165938
H	 0.7821541582	 1.6059104756	 0.015322504	 0.310227
H	-2.7790281947	 0.310837585	 0.882663396	 0.140589
H	-2.9542732112	 0.3215740222	-0.8839312754	 0.130006
H	-3.7007079497	-2.145202313	 0.7050717356	 0.11362
H	-2.6473942946	-3.6053626474	-1.0261710508	 0.118466
H	-1.8663067815	-1.0298309549	-2.590302571	 0.088455
H	-0.8863699489	-2.8705066013	 0.6171404202	 0.118467
73.5561	102.7404	207.7087	226.8666	243.9835	346.2618	410.1593	413.4047	489.1226	511.6943	596.7673	697.2856	789.8029	804.649	836.7174	917.126	964.9971	975.2257	1006.793	1014.5838	1038.7955	1047.6613	1085.8855	1125.4281	1170.5468	1195.064	1230.4596	1289.0795	1308.7845	1363.6504	1413.492	1451.5849	1477.3745	1784.3498	1814.9001	2909.1628	3067.7455	3115.2073	3163.2081	3200.8396	3210.8775	3818.6505
ON=C1CC2C(C=O)C12	ON=C1C[C@H]2[C@@H](C=O)[C@@H]12	
InChI=1S/C6H7NO2/c8-2-4-3-1-5(7-9)6(3)4/h2-4,6,9H,1H2	InChI=1S/C6H7NO2/c8-2-4-3-1-5(7-9)6(3)4/h2-4,6,9H,1H2/t3-,4+,6-/m0/s1
