15
gdb 123608	4.11833	1.67907	1.30597	5.1317	70.19	-0.2402	-0.0003	0.24	919.004	0.116817	-412.952666	-412.946577	-412.945633	-412.983117	24.203	
C	 0.0614721804	 1.4835325168	-0.0122903455	-0.24888
C	 1.2926588993	 0.6596762314	 0.0435102498	-0.036705
C	 1.9217567285	 0.3438118105	 1.4095462161	-0.202367
N	 0.8117706994	-0.3542765313	 2.0393367978	 0.062001
N	 0.6196210243	-0.8973395493	 3.2537564176	-0.176849
N	-0.5738459336	-1.4350411775	 3.2192325385	-0.188948
C	-1.1441955248	-1.2468902432	 1.988602901	-0.189735
C	-0.2471162919	-0.5459550258	 1.2216822515	 0.353818
N	-0.0501351164	 0.0005190673	-0.0662859476	-0.196692
H	-0.2788081987	 1.9735323245	 0.8960997519	 0.140916
H	-0.2021960631	 1.9836936185	-0.9383453256	 0.137527
H	 1.927725814	 0.5824925552	-0.8317105364	 0.12124
H	 2.7931798122	-0.3104048339	 1.3109393739	 0.147391
H	 2.2108841776	 1.2315547942	 1.9786072621	 0.148932
H	-2.1275388373	-1.6169841473	 1.7547256049	 0.128352
158.083	199.0582	336.6335	431.4864	442.2669	618.5641	702.0655	706.1375	735.6257	776.886	797.6931	836.57	849.8419	922.2309	974.6387	1001.4251	1082.5975	1096.2734	1113.0725	1118.0279	1121.7247	1176.9372	1203.5078	1231.1691	1257.8814	1275.3209	1334.0018	1346.2717	1379.7743	1476.179	1498.8208	1521.7713	1594.7978	3058.5178	3102.1442	3118.5624	3178.8847	3214.571	3286.8756
C1C2CN3N=NC=C3N12	C1[C@H]2Cn3nncc3N12	
InChI=1S/C5H6N4/c1-5-8-2-4(8)3-9(5)7-6-1/h1,4H,2-3H2	InChI=1S/C5H6N4/c1-5-8-2-4(8)3-9(5)7-6-1/h1,4H,2-3H2/t4-,8?/m0/s1
