15
gdb 131122	3.84989	1.08545	0.97588	2.3233	68.26	-0.244	-0.0522	0.1918	1186.4615	0.113697	-453.96813	-453.960297	-453.959353	-454.001453	28.493	
O	-1.0038010745	 0.0996705573	 0.0094348758	-0.435637
C	 0.2460877427	-0.4944595713	-0.2231483407	-0.065277
C	 1.1015935737	 0.432351583	-1.0884746224	 0.13886
O	 0.6662705186	 1.4806769211	-1.4937183974	-0.25179
C	 0.9600783958	-0.7642364034	 1.0736565238	 0.349825
C	 2.0839647372	-1.4982393319	 1.4066910636	-0.329847
C	 2.2410309987	-1.2860996715	 2.7934646122	 0.003369
N	 1.2947360643	-0.4911115096	 3.2868229737	-0.226483
N	 0.539650692	-0.1788538832	 2.2193189504	-0.222992
H	-0.9975181944	 0.9196782289	-0.513035791	 0.301139
H	 0.1377244386	-1.4406437458	-0.7815371938	 0.1197
H	 2.1307006009	 0.0892728873	-1.3061616212	 0.116858
H	 2.6901498455	-2.1034826028	 0.7518693644	 0.104066
H	 3.0007208928	-1.6849861546	 3.4494496329	 0.116193
H	-0.294150032	 0.3772716764	 2.3158869199	 0.282017
51.0906	87.1973	175.7178	233.4144	313.4641	362.2173	439.323	521.2472	594.0056	661.2625	698.286	716.958	781.1922	798.5262	866.777	894.3274	940.0016	1021.2021	1038.1832	1061.5866	1120.552	1150.2992	1241.2613	1245.1878	1294.3832	1309.1776	1366.5268	1386.7467	1426.0761	1441.7035	1501.9752	1586.5972	1815.4801	2953.3308	2968.1597	3245.1609	3265.9028	3661.3912	3671.3672
OC(C=O)C1=CC=NN1	O[C@@H](C=O)c1ccn[nH]1	
InChI=1S/C5H6N2O2/c8-3-5(9)4-1-2-6-7-4/h1-3,5,9H,(H,6,7)	InChI=1S/C5H6N2O2/c8-3-5(9)4-1-2-6-7-4/h1-3,5,9H,(H,6,7)/t5-/m0/s1
