15
gdb 45664	3.21239	1.79906	1.42167	4.6505	71.13	-0.2433	-0.0461	0.1971	894.1811	0.113711	-416.724388	-416.717936	-416.716991	-416.755114	26.303	
O	-0.0691264213	-0.0621105274	-0.1284130078	-0.29472
C	-0.0604834055	 1.1257022953	 0.039244977	 0.387085
C	-1.3584366441	 2.0138456424	 0.0155822053	-0.273094
N	-1.2036807978	 2.7929379306	 1.2327101483	-0.143933
C	-0.1228266423	 3.4470187805	 1.2293811865	 0.170951
N	 0.8338729577	 3.3245868678	 2.344243808	-0.339246
C	 1.7910832817	 2.9432192685	 1.2481232302	-0.01233
C	 0.963333588	 3.453460411	 0.1280851548	-0.226195
C	 1.2114351147	 1.9667037772	 0.1596427696	-0.122236
H	-1.3598102764	 2.5870586778	-0.9231716724	 0.122377
H	-2.2480188896	 1.3865125168	 0.0591497766	 0.136648
H	 1.1511848621	 4.2428001837	 2.6655395542	 0.234444
H	 2.8612324023	 2.984096771	 1.4139014433	 0.120428
H	 1.1471930102	 4.1450771639	-0.6837632234	 0.118109
H	 2.0086432904	 1.5623103908	-0.4598939103	 0.121713
107.2418	281.8124	345.0749	425.5042	476.1041	508.5694	515.417	589.4837	659.2338	739.3137	753.2227	789.7581	803.7926	880.4391	907.2571	952.1288	980.2964	994.4526	1022.5771	1033.4975	1063.4013	1083.3408	1109.9092	1162.3905	1196.1785	1217.6804	1248.2891	1264.8025	1313.6973	1366.8646	1485.4344	1703.7578	1837.1099	2998.9629	3140.8566	3146.6812	3186.759	3199.104	3423.0612
O=C1CN=C2NC3C2C13	O=C1C[N][C]2N[C@@H]3[C@H]2[C@H]13	
InChI=1S/C6H6N2O/c9-2-1-7-6-4-3(2)5(4)8-6/h3-5H,1H2,(H,7,8)	InChI=1S/C6H6N2O/c9-2-1-7-6-4-3(2)5(4)8-6/h3-5H,1H2,(H,7,8)/t3-,4+,5-/m0/s1
