14
gdb 15287	4.64951	1.15765	1.00757	3.5449	66.62	-0.3088	0.003	0.3118	1099.8856	0.107633	-341.602497	-341.594815	-341.593871	-341.635267	27.064	
N	-0.0188055425	-1.0543595443	-0.500317423	-0.296487
C	-0.0053381688	 0.0383114206	-0.1257788359	 0.267217
C	 0.0352183165	 1.4223102466	 0.347855091	-0.373605
C	 1.4161662667	 2.0349026017	 0.1735390933	 0.00127
C	 1.825012257	 2.6413415307	-1.1319471705	-0.273907
C	 1.5723519127	 3.547164123	 0.0662846444	-0.188918
C	 0.4095369815	 4.3894727265	 0.0824189758	 0.286295
N	-0.5380892316	 5.0534293263	 0.098353713	-0.332839
H	-0.7162542525	 2.0058731525	-0.1947957663	 0.175183
H	-0.2603492905	 1.4414250757	 1.4030902309	 0.167395
H	 2.19559992	 1.5432668506	 0.7462880324	 0.127639
H	 2.8515026422	 2.5357093279	-1.4612173945	 0.143815
H	 1.0917325189	 2.6706766936	-1.9297999102	 0.151792
H	 2.4391321104	 3.9805302589	 0.5529064397	 0.145151
60.0683	98.8728	163.5343	212.6504	343.309	359.3814	391.2601	516.5941	557.2352	622.0114	774.7449	818.9281	879.3193	882.607	927.5159	980.6485	1028.4467	1081.9712	1110.8131	1122.9294	1160.7645	1227.9321	1255.4994	1325.7591	1373.2624	1420.471	1461.5444	1491.8426	2352.8689	2366.4714	3048.8836	3088.4759	3150.1659	3168.6812	3178.1999	3241.6315
N#CCC1CC1C#N	N#CC[C@H]1C[C@H]1C#N	
InChI=1S/C6H6N2/c7-2-1-5-3-6(5)4-8/h5-6H,1,3H2	InChI=1S/C6H6N2/c7-2-1-5-3-6(5)4-8/h5-6H,1,3H2/t5-,6-/m0/s1
