19
gdb 66925	2.2488	1.92671	1.5135	1.8393	74.13	-0.2273	0.0676	0.2948	972.1083	0.158107	-422.969856	-422.961556	-422.960612	-423.001832	33.601	
C	 0.0078453895	 1.612661392	-0.0840133638	-0.477835
C	 0.0944627297	 0.0960501417	-0.0019706488	 0.350884
O	-1.2107065161	-0.4776237366	-0.1031953791	-0.498766
C	 1.1256835781	-0.7117948342	-0.864505116	-0.132848
C	 2.5220891344	-0.1542803647	-0.4748954362	-0.25039
C	 2.2405713417	-0.7420410772	 0.9079708958	-0.118766
C	 1.2428056541	-1.7370326865	 0.3344104397	-0.162205
C	 0.7483584771	-0.5913877311	 1.1891001106	 0.398699
O	 0.2792251809	-0.5914124505	 2.4822947207	-0.475375
H	 0.9774079014	 2.0910286695	 0.0690022394	 0.12713
H	-0.3737139881	 1.9318419899	-1.0626149153	 0.102758
H	-0.6784784655	 1.9824901609	 0.6836657724	 0.12919
H	-1.6250667323	-0.1338445696	-0.9014314911	 0.275956
H	 0.8688080573	-0.9604867535	-1.893040983	 0.062955
H	 3.3234692201	-0.7066108871	-0.9745865899	 0.100708
H	 2.7033309673	 0.9203890067	-0.5842668689	 0.087727
H	 2.9232780839	-0.8994089474	 1.733459599	 0.092448
H	 1.1559160916	-2.8090681826	 0.41933237	 0.093139
H	-0.6340545052	-0.9014031195	 2.4432732745	 0.294592
180.2998	193.7858	218.068	233.5977	275.4791	326.4903	386.3088	410.8167	440.9244	485.0735	566.707	636.6806	659.2949	742.779	807.2663	831.8486	846.424	904.1211	925.9486	944.7192	948.5231	979.5591	997.4865	1033.8951	1088.4271	1101.0368	1133.031	1141.3574	1170.4302	1187.8021	1205.4681	1229.3447	1258.5451	1287.1718	1327.3003	1401.0012	1405.9179	1461.1066	1486.2409	1495.3126	1511.9297	3024.4493	3038.2666	3089.161	3096.3444	3126.9264	3129.885	3198.1616	3239.1614	3781.4477	3809.5943
CC1(O)C2CC3C2C13O	C[C@@]1(O)[C@H]2C[C@@H]3[C@H]2[C@]13O	
InChI=1S/C7H10O2/c1-6(8)3-2-4-5(3)7(4,6)9/h3-5,8-9H,2H2,1H3	InChI=1S/C7H10O2/c1-6(8)3-2-4-5(3)7(4,6)9/h3-5,8-9H,2H2,1H3/t3-,4+,5-,6+,7-/m0/s1
