16
gdb 21002	5.06412	1.30217	1.08056	1.7893	68.05	-0.233	0.0174	0.2505	1078.4938	0.131728	-379.934975	-379.926883	-379.925938	-379.968824	28.092	
C	 0.1451122137	 1.374070541	 0.0231425624	-0.319048
N	 0.0278626931	-0.0680337218	-0.0130452039	 0.066841
C	 0.1182129158	-0.8827235809	-1.0916387267	-0.117687
C	 0.0239070418	-2.1845297794	-0.628707894	 0.134306
C	 0.0628036016	-3.443625864	-1.4405706228	-0.17215
O	 1.0653398152	-3.4232994658	-2.4517541615	-0.41425
C	-0.1156606173	-2.03214242	 0.7677573867	-0.085292
N	-0.1139924398	-0.7534085447	 1.1383094438	-0.273146
H	 1.1468844912	 1.6802778034	 0.3417172867	 0.144563
H	-0.0531250619	 1.7751807029	-0.9724336767	 0.1395
H	-0.5858731555	 1.7730121905	 0.7283595171	 0.156688
H	 0.2441942355	-0.4924710046	-2.0892257907	 0.138952
H	 0.1839952038	-4.3072073774	-0.7679280484	 0.093209
H	-0.8777273998	-3.5969923533	-1.9824395685	 0.119026
H	 1.8969380032	-3.2028009927	-2.0187291062	 0.278672
H	-0.2261595606	-2.8058650431	 1.5146417928	 0.109816
40.5142	52.962	138.4054	196.5871	267.1893	351.6235	377.507	449.6122	619.0284	657.1529	683.2547	768.0039	806.3927	880.3293	980.5042	1004.7662	1027.346	1060.0262	1074.9775	1149.5345	1182.605	1196.598	1233.1872	1337.7725	1346.0602	1390.5097	1417.9767	1441.5182	1451.2984	1475.3176	1481.6543	1508.7951	1523.5931	1600.507	2981.5504	3045.0834	3050.3202	3118.0688	3150.9763	3234.9888	3261.3172	3806.4916
CN1C=C(CO)C=N1	Cn1cc(CO)cn1	
InChI=1S/C5H8N2O/c1-7-3-5(4-8)2-6-7/h2-3,8H,4H2,1H3	InChI=1S/C5H8N2O/c1-7-3-5(4-8)2-6-7/h2-3,8H,4H2,1H3
