19
gdb 114639	2.30162	1.31745	0.97225	0.618	71.28	-0.2558	0.0656	0.3213	1245.2095	0.157818	-460.110979	-460.101673	-460.100729	-460.145547	34.051	
O	-0.0324321077	 1.439061898	-0.2473711637	-0.426197
C	-0.077353995	 0.0978531035	 0.2239163893	-0.101365
C	-1.4759735506	-0.4284961377	-0.0272105747	-0.040012
C	-1.9359017362	-0.6690376948	-1.5111315143	-0.258732
C	-2.1467264858	-2.1462539014	-1.1555693327	-0.055877
O	-0.8841851356	-2.6519695222	-0.6981705398	-0.300064
C	-1.715019755	-1.9286348247	 0.2375540137	 0.379215
C	-2.0140629038	-2.6260570693	 1.5246063885	-0.186552
O	-0.8695143524	-2.6702142914	 2.3671230009	-0.413987
H	 0.8679581491	 1.7611420265	-0.1472373274	 0.286592
H	 0.645619661	-0.5393630032	-0.3051542337	 0.096615
H	 0.1456928113	 0.0386332414	 1.300654977	 0.097324
H	-2.205080233	 0.1876518906	 0.5077997966	 0.085132
H	-2.858874466	-0.1405948761	-1.7581267622	 0.109085
H	-1.1895073681	-0.4838391585	-2.2864354679	 0.116597
H	-2.8395896301	-2.8677763042	-1.5746157003	 0.104034
H	-2.7803430126	-2.0791507452	 2.0835400562	 0.114956
H	-2.4007936861	-3.6334044987	 1.3103204664	 0.099369
H	-0.1853404335	-3.1428655927	 1.8796595481	 0.293865
72.2256	83.3844	120.1588	166.7465	235.9263	262.3509	286.349	353.0132	405.9635	440.1143	496.4649	546.4147	708.0171	729.0577	831.5635	864.7613	909.5777	938.6328	960.2116	975.6846	1016.6368	1064.4748	1069.4344	1080.8665	1110.8698	1150.7039	1170.0633	1194.4489	1234.7046	1250.0567	1255.7006	1273.2114	1293.1265	1356.8001	1369.3583	1416.7958	1445.5464	1466.3286	1482.5339	1487.2972	1528.4213	2980.4932	2997.7603	3020.0953	3068.3648	3075.6009	3080.9336	3132.0475	3180.1347	3803.5198	3830.9501
OCC1CC2OC12CO	OC[C@H]1C[C@H]2O[C@@]12CO	
InChI=1S/C6H10O3/c7-2-4-1-5-6(4,3-8)9-5/h4-5,7-8H,1-3H2	InChI=1S/C6H10O3/c7-2-4-1-5-6(4,3-8)9-5/h4-5,7-8H,1-3H2/t4-,5-,6+/m1/s1
