18
gdb 33661	3.05743	1.47125	1.39414	1.7656	82.91	-0.2366	0.0337	0.2703	1018.3235	0.149119	-364.74708	-364.739807	-364.738863	-364.778512	29.691	
C	-0.0172927128	-1.1750708787	-0.0311212672	-0.355099
C	-0.0322115513	 0.0277789996	-0.0034019884	 0.075441
C	 0.0056305039	 1.4471257929	 0.0438341532	 0.247439
C	-0.6943200535	 2.4756248372	 0.8957933174	-0.100185
C	 0.6116008681	 3.2494895112	 1.1086489335	-0.252738
C	 1.2570088251	 2.3883780883	-0.0223633786	-0.096724
C	 1.1050900405	 3.0857817089	-1.3741515225	-0.227546
C	-0.4324357545	 3.2721292318	-1.4652885408	-0.163472
N	-1.0405569261	 2.3061587993	-0.5197186552	-0.137746
H	-0.0198080079	-2.2362821498	-0.0586599558	 0.180439
H	-1.4915016574	 2.3359389485	 1.6178565546	 0.103698
H	 0.5949388815	 4.335310108	 0.965340836	 0.096089
H	 1.038476294	 3.025706631	 2.0890693629	 0.111925
H	 2.2346271389	 1.9577392492	 0.1864430909	 0.082632
H	 1.6473161986	 4.035405346	-1.419726048	 0.101958
H	 1.4729512407	 2.4474300469	-2.1846381012	 0.10866
H	-0.7479773177	 4.2854687033	-1.1990787161	 0.110392
H	-0.81655239	 3.0590533164	-2.4660127345	 0.114838
128.4626	154.5101	229.321	358.422	391.9935	495.6626	526.4528	547.3981	594.9991	639.3337	652.3255	726.4528	748.7151	820.3681	842.9007	871.5663	894.6146	930.4919	944.7256	995.6957	1012.0909	1026.2132	1053.0402	1104.2527	1114.0473	1147.0386	1170.4062	1228.9474	1232.8133	1260.5272	1271.6032	1293.0958	1333.9368	1340.4282	1398.0532	1486.9294	1488.5689	1511.7169	2237.0363	3042.333	3043.1115	3057.8827	3085.4038	3103.8867	3106.9821	3134.6608	3172.4827	3503.6183
C#CC12C3CC1CCN23	C#C[C@@]12[C@H]3C[C@@H]1CCN23	
InChI=1S/C8H9N/c1-2-8-6-3-4-9(8)7(8)5-6/h1,6-7H,3-5H2	InChI=1S/C8H9N/c1-2-8-6-3-4-9(8)7(8)5-6/h1,6-7H,3-5H2/t6-,7+,8-,9?/m0/s1
