16
gdb 54073	2.48071	1.17867	0.83293	5.7277	73.33	-0.2414	-0.0095	0.232	1314.5099	0.120882	-437.893529	-437.883778	-437.882834	-437.928944	34.693	
N	-0.0715426688	 1.380606821	 0.4098438718	-0.537122
C	 0.0154840549	 0.1652365296	-0.1759648255	 0.446776
O	 0.9626769604	-0.201417348	-0.8457805466	-0.353088
C	-1.2097878669	-0.7678180788	-0.008363729	-0.338416
C	-0.723653281	-2.2280256432	 0.1150615352	-0.269742
C	 0.033540392	-2.7262214449	-1.1070102802	 0.183845
O	 0.8783109093	-3.5794579846	-1.0589272201	-0.25534
C	-2.1130807062	-0.3908527489	 1.0718287504	 0.291548
C	-2.8429713124	-0.0768073657	 1.9750355154	-0.413533
H	 0.7143227208	 2.0053188453	 0.3334793988	 0.268781
H	-0.8296316204	 1.6026539344	 1.0330938683	 0.272235
H	-1.7558498346	-0.6751869551	-0.9597894197	 0.144146
H	-0.0999582558	-2.3695014656	 1.0008588369	 0.141374
H	-1.6039727668	-2.8742252332	 0.2288279976	 0.136982
H	-0.3086949241	-2.2982595585	-2.0750335947	 0.075251
H	-3.4991150903	 0.1854853863	 2.7683693813	 0.206303
39.9669	82.9801	111.9544	155.8967	205.99	245.1527	317.6834	328.5398	391.4579	455.7105	496.6205	507.3452	571.4484	621.1316	632.0907	659.5614	716.2079	731.9156	852.4385	984.0941	1036.6492	1069.9913	1077.4856	1119.2391	1189.5464	1257.0979	1294.9612	1338.2367	1361.5991	1429.7644	1452.8313	1610.3632	1792.6574	1837.559	2229.8477	2884.085	2997.3593	3036.4198	3114.42	3499.3152	3594.2683	3729.0396
NC(=O)C(CC=O)C#C	NC(=O)[C@@H](CC=O)C#C	
InChI=1S/C6H7NO2/c1-2-5(3-4-8)6(7)9/h1,4-5H,3H2,(H2,7,9)	InChI=1S/C6H7NO2/c1-2-5(3-4-8)6(7)9/h1,4-5H,3H2,(H2,7,9)/t5-/m1/s1
