20
gdb 52879	2.85799	0.99617	0.816	1.7788	89.26	-0.2264	0.0446	0.271	1487.7274	0.169985	-365.950188	-365.940412	-365.939468	-365.986766	35.205	
C	 0.0515340221	 1.5902625722	 0.4408844757	-0.502511
C	 0.0504268585	 0.1489819337	 0.2366819565	 0.129792
C	 0.0477092219	-1.0450701204	 0.0713328282	-0.00916
C	 0.0699910695	-2.470682121	-0.1542593509	 0.130832
C	-0.6169032623	-3.3382944743	 0.8541356789	-0.268154
N	-1.2171334261	-3.1402501886	-0.4709782844	-0.353786
C	 1.2692381173	-2.9814665793	-0.9111822561	-0.067105
C	 1.2243326352	-4.3072260502	-1.6227532893	-0.277864
C	 1.2468936121	-3.0252159108	-2.4175123223	-0.253093
H	 0.966262402	 2.0434113582	 0.0430541514	 0.151131
H	-0.7973753292	 2.0655520626	-0.0633353629	 0.14848
H	-0.0088751151	 1.8455322557	 1.5047907193	 0.147685
H	-0.2272617395	-4.3371143559	 1.0299234917	 0.121976
H	-1.0722119814	-2.8566718702	 1.7140710687	 0.117759
H	-1.9678512853	-2.4574689386	-0.41218515	 0.237475
H	 2.2119311463	-2.7047335898	-0.4483956611	 0.086248
H	 2.1170764606	-4.9224538256	-1.6028784957	 0.102471
H	 0.2871106892	-4.8506256928	-1.5982855534	 0.132985
H	 0.3228246143	-2.7348092092	-2.9048691541	 0.118068
H	 2.14919336	-2.7555621456	-2.9548056501	 0.106773
15.737	63.6973	90.9981	137.7934	214.7671	242.3706	295.8913	314.1512	400.2969	425.6838	533.1382	563.7809	619.4613	785.0195	800.2473	824.3848	850.7993	895.572	949.3796	959.6679	993.5916	1023.3321	1052.0961	1053.9255	1062.5512	1086.8942	1089.8089	1131.0459	1136.2185	1149.9374	1201.6151	1223.9661	1269.4921	1300.3612	1342.1894	1413.8335	1420.0809	1457.2547	1476.9032	1478.9006	1494.4553	1503.6937	2363.6883	3025.6747	3084.908	3088.031	3112.6343	3135.4138	3137.8456	3151.8233	3205.2025	3218.7234	3233.2322	3512.5937
CC#CC1(CN1)C1CC1	CC#C[C@]1(CN1)C1CC1	
InChI=1S/C8H11N/c1-2-5-8(6-9-8)7-3-4-7/h7,9H,3-4,6H2,1H3	InChI=1S/C8H11N/c1-2-5-8(6-9-8)7-3-4-7/h7,9H,3-4,6H2,1H3/t8-/m0/s1
