16
gdb 130974	4.00446	0.96819	0.81235	4.9157	71.61	-0.2024	-0.0289	0.1735	1340.3962	0.125326	-434.073415	-434.065066	-434.064122	-434.107698	29.976	
O	 0.7820201829	 1.0965872256	 1.3125820067	-0.238104
C	 0.5343150397	 1.7124256171	 0.3103642869	 0.176622
C	 1.1935698809	 1.4479638865	-1.0401374811	-0.264877
N	 1.2403241376	 2.6468342776	-1.8537549404	-0.406044
C	 2.2541447913	 3.5749343034	-1.5738458945	 0.234038
C	 2.6640382875	 4.6379851224	-2.3601190977	-0.146819
N	 3.6355639554	 5.2746254479	-1.650499654	-0.171409
N	 3.8859152024	 4.7121557319	-0.4644183531	-0.225504
C	 3.0522047752	 3.6724566268	-0.4060065821	-0.070159
H	-0.2256239324	 2.5256169997	 0.280050954	 0.09093
H	 2.1705656188	 0.971555781	-0.8672459666	 0.126571
H	 0.5551273083	 0.7141374192	-1.5487426003	 0.131471
H	 1.1423448584	 2.4588901064	-2.8401359192	 0.239336
H	 2.3469870845	 4.9764514713	-3.3331936742	 0.124792
H	 4.1580698072	 6.0883917235	-1.925359674	 0.275511
H	 3.0505295524	 3.0373331497	 0.4667325698	 0.123646
49.099	59.1525	113.9843	211.1601	284.627	349.0959	407.7546	486.8576	518.9786	613.4973	650.648	681.7903	693.9466	739.3111	775.5722	860.0201	948.8538	1001.3117	1037.4291	1069.9989	1103.5335	1129.4411	1173.868	1241.3493	1286.5912	1318.6401	1333.3092	1392.4534	1394.2007	1409.0055	1456.1728	1492.33	1518.8695	1633.6565	1839.5837	2888.5259	2992.5478	3057.4701	3254.9972	3264.0023	3597.9057	3680.1449
O=CCNC1=CNN=C1	O=CCNc1c[nH]nc1	
InChI=1S/C5H7N3O/c9-2-1-6-5-3-7-8-4-5/h2-4,6H,1H2,(H,7,8)	InChI=1S/C5H7N3O/c9-2-1-6-5-3-7-8-4-5/h2-4,6H,1H2,(H,7,8)
