16
gdb 43279	3.25541	1.72356	1.36206	4.2212	75.22	-0.2333	-0.0658	0.1675	933.7821	0.126095	-400.65328	-400.646854	-400.64591	-400.683928	26.373	
O	-0.1188739902	-0.0463268452	-0.3423858821	-0.310089
C	-0.0477863485	 1.1283059525	-0.0880703309	 0.306522
C	-1.2202597462	 2.0772862263	 0.0943544413	-0.158496
C	-0.8631910156	 3.250002039	 0.6572722747	-0.237965
C	 0.6042566884	 3.1592659531	 0.9561876484	 0.261678
C	 2.0403006236	 3.7550291273	 0.9037796158	-0.250277
N	 2.3194366206	 2.2352113354	 1.1009835554	-0.170002
C	 1.1863411145	 2.3102472402	 2.1276110752	-0.191801
C	 1.1585508967	 2.0733472168	 0.0563173703	-0.058517
H	-2.2283045891	 1.7615490583	-0.1472129828	 0.124968
H	-1.5439917666	 4.0457630297	 0.9401971884	 0.124397
H	 2.3984518667	 4.1490493507	-0.0498117434	 0.115529
H	 2.3877953801	 4.3545330132	 1.7486391096	 0.111485
H	 1.4644536521	 2.8276488416	 3.0488793219	 0.105399
H	 0.7142816843	 1.3458845024	 2.3337341356	 0.123271
H	 1.4774776393	 2.3811470987	-0.9460474372	 0.103896
140.1741	232.2989	330.2088	379.5316	491.1703	567.5133	595.0374	606.6539	657.7211	736.6209	747.7571	802.0489	846.8612	903.7068	909.2562	946.0913	976.5156	977.8419	996.7626	1042.8614	1071.1404	1085.3177	1125.6923	1140.2662	1164.8031	1190.6426	1194.0934	1231.9828	1277.0636	1340.8904	1352.6614	1508.396	1544.7011	1583.9181	1827.1698	3046.2823	3053.9578	3062.9354	3125.0737	3134.5479	3184.5123	3216.4144
O=C1C=CC23CN(C2)C13	O=C1C=C[C@@]23CN(C2)[C@@H]13	
InChI=1S/C7H7NO/c9-5-1-2-7-3-8(4-7)6(5)7/h1-2,6H,3-4H2	InChI=1S/C7H7NO/c9-5-1-2-7-3-8(4-7)6(5)7/h1-2,6H,3-4H2/t6-/m0/s1
