21
gdb 110107	1.76365	1.50298	1.03492	0.2386	76.5	-0.2296	0.0747	0.3043	1284.53	0.17821	-461.314383	-461.303512	-461.302568	-461.349963	38.78	
C	-0.3804149345	 1.155796924	 0.0941120546	-0.23306
O	 0.5088623132	 0.0793389921	-0.1621522609	-0.238118
C	 0.982794557	-0.5208808938	 0.994077113	-0.00392
C	 0.1094065437	-1.4981751147	 1.7619476072	 0.034005
O	-1.1936952831	-1.6703885282	 1.3137585453	-0.233989
C	-1.773937653	-2.8855588978	 1.7530899563	-0.234622
C	 1.2782905595	-2.0058031892	 0.9421515557	 0.277751
C	 1.0427143388	-2.7598856455	-0.3443344391	-0.445994
O	 2.349183062	-2.4587652171	 1.7310127026	-0.462951
H	 0.1116298215	 1.9509013795	 0.6743702977	 0.101427
H	-0.6755257226	 1.5599471654	-0.8771545418	 0.123556
H	-1.2697287382	 0.8147765489	 0.6357987082	 0.132004
H	 1.6536867424	 0.0939470478	 1.5986392348	 0.084737
H	 0.2399385691	-1.5315433346	 2.8452299719	 0.092218
H	-2.7928035501	-2.9140831933	 1.3600498408	 0.127467
H	-1.2188057912	-3.7580680351	 1.384028369	 0.117171
H	-1.8117119638	-2.9362417473	 2.8513557728	 0.11062
H	 0.1321762605	-2.4127744351	-0.8336325959	 0.144861
H	 1.8768139157	-2.6066354936	-1.0393207736	 0.109743
H	 0.9619438892	-3.8322315989	-0.1417363196	 0.117573
H	 3.1675691341	-2.2415715336	 1.269070901	 0.279522
106.8066	112.5272	127.1201	160.4359	176.9916	180.4123	210.3059	220.5524	279.4702	300.541	332.5555	379.2711	406.6738	509.7982	533.3417	666.5305	734.9353	852.3835	886.9375	980.0451	1016.3152	1023.608	1057.5954	1086.2892	1105.528	1163.1659	1180.9239	1183.5079	1187.2646	1217.4665	1243.645	1260.6204	1293.1937	1336.2372	1346.9347	1407.4138	1442.8633	1480.3053	1484.2934	1486.0211	1486.7407	1489.9553	1507.184	1507.631	1509.6735	2990.7237	2991.689	3033.3377	3048.6637	3069.2042	3072.5315	3088.7814	3094.302	3120.6997	3122.2576	3151.5956	3779.3307
COC1C(OC)C1(C)O	CO[C@H]1[C@@H](OC)[C@]1(C)O	
InChI=1S/C6H12O3/c1-6(7)4(8-2)5(6)9-3/h4-5,7H,1-3H3	InChI=1S/C6H12O3/c1-6(7)4(8-2)5(6)9-3/h4-5,7H,1-3H3/t4-,5+,6+
