19
gdb 113107	5.84321	0.66335	0.64807	4.1491	75.07	-0.2616	0.0098	0.2714	1729.1561	0.157112	-460.161782	-460.152294	-460.15135	-460.197521	33.239	
C	 0.3370455375	 1.3092451837	 0.027119553	-0.239463
O	-0.1979267732	 0.0264296079	-0.2140356608	-0.248422
C	 0.4227927667	-0.6468882895	-1.2856880652	 0.129962
C	 1.768903977	-1.3363045681	-0.8978534858	-0.287363
C	 0.9575103236	-2.6156736163	-0.595951726	 0.149074
C	-0.2116576685	-2.0497493179	-1.4316171337	-0.276339
O	 1.5255541827	-3.8320239384	-1.0681690704	-0.186995
C	 1.6515640646	-4.8640476226	-0.2127743458	 0.161132
O	 2.1174223249	-5.9160789216	-0.5313653053	-0.27576
H	 1.4010358972	 1.2725817115	 0.3045956378	 0.10766
H	 0.2347378665	 1.960399512	-0.854769837	 0.10884
H	-0.2263884313	 1.7440328177	 0.8558820745	 0.131333
H	 0.4418345568	-0.0095716623	-2.1796080337	 0.071433
H	 2.4113850471	-1.488562491	-1.768863658	 0.123367
H	 2.3512951011	-0.895337968	-0.0862459592	 0.110696
H	 0.7039152018	-2.7083250282	 0.464811523	 0.100015
H	-1.225609875	-2.1619869951	-1.0445136338	 0.118587
H	-0.1588184703	-2.4142646154	-2.4599579297	 0.124115
H	 1.2789922608	-4.6257071983	 0.8031294561	 0.078126
40.8415	52.362	121.65	147.9509	193.2277	238.2443	272.7902	325.4185	371.5302	456.8881	478.2056	567.6561	787.4526	799.9329	832.8218	924.7317	938.4495	977.0385	1006.8688	1045.1926	1076.9483	1089.6783	1130.2552	1151.2536	1180.7929	1184.5396	1208.1503	1226.776	1258.6401	1263.2788	1276.7021	1293.519	1376.0884	1388.4242	1440.3341	1452.9483	1480.9786	1481.8298	1488.4941	1509.6218	1866.4748	2943.199	2978.379	3012.4621	3026.6974	3057.495	3070.1085	3079.3884	3118.6465	3130.7191	3142.2256
COC1CC(C1)OC=O	CO[C@H]1C[C@@H](C1)OC=O	
InChI=1S/C6H10O3/c1-8-5-2-6(3-5)9-4-7/h4-6H,2-3H2,1H3	InChI=1S/C6H10O3/c1-8-5-2-6(3-5)9-4-7/h4-6H,2-3H2,1H3/t5-,6-
