18
gdb 86742	3.1437	0.68346	0.65208	1.3825	71.9	-0.216	-0.012	0.204	1771.0773	0.140637	-439.142188	-439.129183	-439.128238	-439.187046	39.169	
N	 0.4845715356	-0.2930404758	-0.7392737876	-0.714212
H	 0.2865310836	-0.506269923	 0.2359405453	 0.248017
H	 1.3816021325	 0.1853462712	-0.7408594846	 0.237288
H	 0.6454862358	-1.1871722127	-1.1957679212	 0.234958
C	-0.9396319932	 2.3340693447	 1.7498611299	-0.088103
C	-1.898707273	 1.4285053861	 1.0278306905	-0.302561
C	-1.9020020734	 0.1887902022	 1.8795072632	-0.094664
C	-1.0505528975	 0.3560574633	 2.9115227958	-0.102441
C	-0.4511948861	 1.6958257076	 2.8310201455	-0.096014
C	-3.4520474684	 2.3296493199	 4.3961570474	 0.596439
O	-2.8328616422	 2.0951364905	 5.3519615248	-0.30218
O	-4.0881469035	 2.5720852097	 3.4530488199	-0.298366
H	-0.6888284994	 3.3321083183	 1.4160181529	 0.097134
H	-2.8986639091	 1.870368526	 0.924065066	 0.132297
H	-1.5431307662	 1.2016493121	 0.0114974618	 0.164375
H	-2.4979380525	-0.6880223341	 1.6632524905	 0.097307
H	-0.8319108663	-0.3640563292	 3.6907090707	 0.095671
H	 0.2685596234	 2.0851582931	 3.5404841791	 0.095056
14.7805	21.7732	31.9294	42.375	61.2847	65.767	72.799	86.3232	114.5842	129.4582	220.3106	361.2422	532.1684	680.1471	686.0966	696.6327	728.8532	813.2146	814.0746	924.8616	929.0808	956.3339	957.5285	976.86	1013.5671	1103.8785	1115.7561	1131.7969	1138.757	1272.0006	1315.9675	1378.4606	1396.0446	1410.5416	1551.6317	1636.4537	1676.6671	1685.8093	2432.1327	3016.701	3055.9543	3197.806	3208.2988	3227.7808	3234.5008	3458.3898	3573.5725	3581.4403
[NH3+]C1CC(C=C1)C([O-])=O	N.C1=CC=CC1.C(=O)=O	
InChI=1S/C6H9NO2/c7-5-2-1-4(3-5)6(8)9/h1-2,4-5H,3,7H2,(H,8,9)	InChI=1S/C5H6.CO2.H3N/c1-2-4-5-3-1;2-1-3;/h1-4H,5H2;;1H3
