18
gdb 41318	3.26163	1.75717	1.37803	1.778	74.7	-0.2366	0.0175	0.2541	953.6234	0.150356	-401.93945	-401.932696	-401.931751	-401.970569	27.421	
C	 0.0098701378	 1.5450946866	 0.0949922414	-0.227442
C	 1.5638464225	 1.5402844561	-0.0887141088	-0.317273
C	 1.5258971013	 0.0230895114	 0.0381812487	 0.443765
O	 2.4042921715	-0.787075141	-0.7436482262	-0.265061
C	 2.6541538734	-1.876738638	 0.0366602394	 0.088927
N	 2.1899944648	-1.9414312199	 1.2158776735	-0.263049
C	 1.4476199174	-0.6893965204	 1.4219821756	-0.066014
C	-0.1003563639	-0.8062282902	 1.2820012329	-0.238569
C	-0.0343170371	-0.0111901538	-0.051771181	-0.098763
H	-0.323658187	 1.9008298645	 1.0731608024	 0.105578
H	-0.5352697166	 2.0934691546	-0.6747240207	 0.11091
H	 1.853921413	 1.8478573452	-1.0969542335	 0.117438
H	 2.171837185	 2.0892061499	 0.6361014767	 0.103053
H	 3.2689340352	-2.6329514099	-0.439126926	 0.138152
H	 1.8189207784	-0.1703752543	 2.3111323851	 0.07952
H	-0.4137639358	-1.8458297527	 1.1632157152	 0.114062
H	-0.6908439526	-0.3471748063	 2.0801123514	 0.099909
H	-0.5772661972	-0.3941508017	-0.9160500559	 0.074859
96.1524	222.2511	291.0708	319.865	437.1337	464.7679	566.786	645.1679	704.9556	766.4552	790.1602	836.4553	874.3549	886.5743	909.6872	924.5455	958.3152	978.9613	1018.3567	1029.2803	1076.6744	1091.7161	1108.1082	1122.6889	1176.0223	1192.4915	1210.7204	1227.2617	1239.1996	1273.2235	1279.9238	1284.0502	1303.2106	1318.0772	1339.8844	1472.0593	1479.2984	1495.1433	1682.5619	3052.6965	3054.4465	3060.238	3067.9703	3102.2329	3107.1698	3117.7679	3128.4317	3214.2769
C1CC23OC=NC2CC13	C1C[C@@]23OC=N[C@@H]2C[C@@H]13	
InChI=1S/C7H9NO/c1-2-7-5(1)3-6(7)8-4-9-7/h4-6H,1-3H2	InChI=1S/C7H9NO/c1-2-7-5(1)3-6(7)8-4-9-7/h4-6H,1-3H2/t5-,6-,7+/m1/s1
