21
gdb 51171	3.65985	0.99886	0.89446	2.8225	82.65	-0.2413	-0.0182	0.2231	1355.3913	0.183047	-387.107894	-387.099258	-387.098314	-387.141902	32.858	
O	-0.5149162921	 0.4023917848	 0.4942787339	-0.242819
C	 0.230835918	 0.8373303844	-0.3449113595	 0.168529
C	 1.3141934402	 1.8686880273	-0.0971907128	-0.378695
C	 1.2370324281	 3.0259910921	-1.0733684605	 0.359476
C	 1.843274582	 2.882761354	-2.4544701042	-0.335347
C	 2.4497438819	 3.8482228225	-1.4640137872	-0.080052
C	 2.035069552	 5.3090766879	-1.5565607127	-0.213691
C	 0.4947150155	 5.2712266569	-1.6939460871	-0.22949
C	 0.055826393	 3.9889156035	-0.9520664616	-0.264123
H	 0.1665292518	 0.4932638905	-1.4037578502	 0.073818
H	 1.2381741358	 2.2045547607	 0.9426156813	 0.115982
H	 2.2791510074	 1.3550648328	-0.2166633955	 0.114962
H	 2.4008709719	 1.973929125	-2.6564075465	 0.107081
H	 1.3089224571	 3.2652619157	-3.3181883823	 0.111528
H	 3.428194446	 3.6110129786	-1.0589091302	 0.080196
H	 2.3259365114	 5.8241103737	-0.633003309	 0.100863
H	 2.5120552198	 5.8422084465	-2.3861075466	 0.099172
H	 0.0166095832	 6.1684206566	-1.2930113426	 0.100927
H	 0.2116015977	 5.2128533181	-2.749575099	 0.106671
H	-0.8804133423	 3.578775818	-1.3473600511	 0.1014
H	-0.1139695286	 4.1992678906	 0.1116410435	 0.103612
52.7701	73.7567	146.081	233.6687	261.5975	309.7128	365.5197	424.5357	473.2621	595.7067	622.0059	689.9328	793.8766	814.8907	850.9169	884.5743	893.8299	926.0366	936.6743	966.4178	991.7404	1027.6021	1050.2165	1069.5042	1081.2666	1083.8201	1120.2142	1170.8338	1196.6544	1201.5274	1251.6246	1264.6134	1299.0841	1311.3901	1322.7569	1342.2079	1351.2391	1405.7395	1425.9612	1452.53	1486.5979	1491.0362	1494.4038	1517.9863	1833.864	2860.1614	3010.0249	3024.7198	3031.3215	3050.5948	3065.8875	3072.4496	3079.0649	3101.7732	3126.16	3159.5816	3206.406
O=CCC12CC1CCC2	O=CC[C@]12C[C@H]1CCC2	
InChI=1S/C8H12O/c9-5-4-8-3-1-2-7(8)6-8/h5,7H,1-4,6H2	InChI=1S/C8H12O/c9-5-4-8-3-1-2-7(8)6-8/h5,7H,1-4,6H2/t7-,8-/m1/s1
