15
gdb 42513	3.13825	1.23104	1.05699	4.1219	72.82	-0.2587	-0.052	0.2067	1137.6813	0.112095	-416.792281	-416.784165	-416.783221	-416.825605	29.638	
O	 0.0210568775	 0.0457530357	 0.5625264583	-0.280275
C	-0.0331317743	 1.2078196911	 0.3130961332	 0.332794
C	-1.2026067929	 2.2448808182	 0.0952388067	-0.218492
N	-0.1563152909	 3.31290613	-0.0202583482	-0.39167
C	 0.9345129891	 2.3237512946	 0.0984268933	 0.23807
C	 2.2490266137	 2.5292281637	 0.8076824482	-0.296258
C	 2.231861101	 2.2697517521	-0.6714596498	-0.316702
C	-2.0091109954	 2.0152581384	-1.090981575	 0.275364
N	-2.6228104048	 1.846540478	-2.0567996976	-0.314071
H	-1.843794814	 2.3725375598	 0.9730859244	 0.156644
H	-0.1836503222	 3.7640045221	-0.9298684322	 0.244442
H	 2.4476007063	 3.5398066219	 1.1469262735	 0.140967
H	 2.579427779	 1.7379030547	 1.471843793	 0.143992
H	 2.5474481496	 1.3002471537	-1.0413479683	 0.148517
H	 2.4301887082	 3.1026821659	-1.3382383197	 0.136679
49.4702	130.6064	176.9725	207.2356	225.3731	361.3289	405.0915	456.6661	545.3708	591.9417	711.1788	732.0066	767.5606	779.8487	844.0882	899.4172	937.4243	965.8492	1014.1546	1046.8025	1060.2688	1067.8777	1080.3611	1171.1155	1195.6786	1263.4863	1270.4256	1352.4691	1377.9304	1450.5162	1482.1142	1919.3012	2348.5857	3067.0514	3132.7832	3137.6786	3219.8921	3236.3235	3521.7421
O=C1C(NC11CC1)C#N	O=C1[C@@H](NC21CC2)C#N	
InChI=1S/C6H6N2O/c7-3-4-5(9)6(8-4)1-2-6/h4,8H,1-2H2	InChI=1S/C6H6N2O/c7-3-4-5(9)6(8-4)1-2-6/h4,8H,1-2H2/t4-/m0/s1
