14
gdb 17236	5.11167	1.80973	1.5986	2.7697	62.47	-0.2455	-0.0348	0.2107	791.8213	0.106665	-382.477275	-382.470964	-382.470019	-382.507811	24.005	
O	-0.2839279289	 0.482797952	-0.6760763625	-0.271317
C	 0.2010857643	 1.1062872733	 0.2392916805	 0.051616
C	 1.4163448741	 1.9187960599	 0.1149273606	 0.368909
O	 1.9169409719	 2.6954465244	 1.1978023775	-0.326264
C	 2.7639406128	 3.362061177	 0.217720567	 0.054288
C	 3.7950403848	 2.2680995893	-0.1744630955	-0.234164
C	 2.6052376171	 1.5725189078	-0.8332456269	-0.137139
C	 1.8499425955	 2.8706766344	-0.9680795339	-0.164196
H	-0.2460442356	 1.1168567654	 1.2569440747	 0.091253
H	 3.0333493915	 4.3778508963	 0.4958518259	 0.098476
H	 4.5035690715	 2.6294462145	-0.9234939007	 0.115204
H	 4.3153333346	 1.7755678828	 0.651602897	 0.111834
H	 2.5604428785	 0.7001615939	-1.4708751644	 0.121318
H	 1.293992298	 3.3357440991	-1.7697527994	 0.120182
121.2182	174.5105	204.3048	431.4481	489.0947	548.8971	663.5546	728.0425	784.1843	790.5518	850.1219	904.2393	920.985	936.6777	945.5638	999.6706	1035.645	1051.3046	1076.2774	1098.4812	1131.6349	1149.9986	1182.2674	1246.5237	1271.778	1298.3881	1383.048	1429.1535	1485.9647	1802.8064	2902.6131	3059.9872	3123.7665	3157.4506	3215.0052	3225.3295
O=CC12OC3CC1C23	O=C[C@@]12O[C@H]3C[C@@H]1[C@@H]23	
InChI=1S/C6H6O2/c7-2-6-3-1-4(8-6)5(3)6/h2-5H,1H2	InChI=1S/C6H6O2/c7-2-6-3-1-4(8-6)5(3)6/h2-5H,1H2/t3-,4+,5-,6-/m1/s1
