19
gdb 81999	2.44278	1.42209	1.29541	1.2382	80.98	-0.2504	0.0454	0.2958	1102.6881	0.156442	-385.821856	-385.812745	-385.811801	-385.855049	35.072	
C	-0.1238539015	 1.5546725966	-0.1256729789	-0.415219
C	 0.0146754	 0.044415395	-0.0152680277	-0.062452
C	 1.0544866831	-0.6427484327	-0.9104023564	 0.033142
O	 2.3527078381	-0.1764413809	-0.507145068	-0.254187
C	 1.752110697	-1.2392409668	 0.2321612364	-0.006775
C	 0.7732126647	-0.59534842	 1.2533861559	 0.090063
C	 1.4199047877	 0.361179866	 2.2597607962	-0.456539
C	-0.050317586	-1.5955835872	 1.9124807898	 0.273241
C	-0.7212504235	-2.4338667854	 2.4552892353	-0.458539
H	 0.8535502942	 2.042943675	-0.1158208207	 0.134728
H	-0.6245833369	 1.8216249069	-1.0629669993	 0.117315
H	-0.7230752482	 1.9609937769	 0.6953057643	 0.121045
H	-0.9573190202	-0.4449567343	-0.1162795152	 0.092576
H	 0.9532202545	-0.9886082814	-1.9327551222	 0.103544
H	 2.3046348463	-2.1658393396	 0.3365260616	 0.110062
H	 2.1104520778	 1.0339119909	 1.747641891	 0.136549
H	 0.6614874549	 0.9554384488	 2.7775269248	 0.123835
H	 1.9758554656	-0.2026141924	 3.014826756	 0.12408
H	-1.3163157576	-3.1685068353	 2.9387646971	 0.193532
111.4707	151.5561	181.1605	212.9009	222.4087	250.6886	276.4336	359.8895	470.5183	488.5172	526.5808	584.7326	620.1679	632.7192	636.5545	744.2207	832.5814	858.0336	865.6481	890.2995	942.4159	988.9772	1028.7465	1052.0699	1074.0793	1113.1548	1140.4712	1160.3126	1204.5686	1236.9328	1248.2724	1284.4013	1361.1136	1383.9076	1399.2452	1415.4237	1484.0216	1491.8592	1497.8949	1507.9964	2228.577	3036.1756	3045.5385	3079.9808	3096.8393	3112.4509	3125.5919	3137.7358	3178.4593	3194.0872	3501.7991
CC1C2OC2C1(C)C#C	C[C@H]1[C@H]2O[C@H]2[C@]1(C)C#C	
InChI=1S/C8H10O/c1-4-8(3)5(2)6-7(8)9-6/h1,5-7H,2-3H3	InChI=1S/C8H10O/c1-4-8(3)5(2)6-7(8)9-6/h1,5-7H,2-3H3/t5-,6+,7+,8+/m0/s1
