17
gdb 6170	3.52771	1.45462	1.32907	14.8691	68.94	-0.1663	-0.0307	0.1356	983.6688	0.141465	-400.946882	-400.93845	-400.937506	-400.979667	31.127	
C	 0.1742627895	 1.5548518743	-0.1919022407	-0.484032
C	 0.1162831113	 0.0663059194	 0.0039698836	 0.253837
N	-1.1677602829	-0.506636267	-0.5750020853	-0.431854
H	-1.2506044727	-0.3220867409	-1.5801446644	 0.315037
H	-1.2020457958	-1.5170768652	-0.4188729343	 0.320401
H	-1.9769713169	-0.0877763323	-0.1070251134	 0.325691
C	 1.2808410888	-0.8666734107	-0.1069870173	-0.31637
C	 0.5867095035	-0.6734282753	 1.2265368531	-0.188523
C	 1.3204686704	 0.1545798534	 2.3563997799	 0.370413
O	 2.1723800337	 0.9532549277	 1.9093798654	-0.478771
O	 0.9247337316	-0.1052121321	 3.4944441534	-0.458955
H	 1.0638817042	 1.8876376812	 0.3543919699	 0.227276
H	 0.2506781097	 1.8307275783	-1.2513587533	 0.101019
H	-0.698496782	 2.0565038766	 0.2462583812	 0.113319
H	 1.1725464322	-1.7947120284	-0.6640641703	 0.090252
H	 2.2501272242	-0.3814453776	-0.1667883267	 0.168949
H	-0.0551394188	-1.4725718715	 1.5944840893	 0.072311
70.5626	144.3428	204.5195	215.3794	286.5833	297.2594	343.6449	366.0697	406.5769	445.8912	633.5204	649.2464	784.325	790.9099	834.1591	893.6499	921.2463	939.0498	966.7884	1032.667	1057.7631	1086.0254	1119.3596	1176.8347	1181.8163	1257.1022	1310.4023	1371.2224	1412.8411	1446.7057	1464.6684	1485.6444	1508.1976	1633.2449	1648.9586	1793.8686	2999.2023	3068.9667	3095.6176	3100.9692	3118.7935	3208.3696	3372.2319	3461.7007	3488.8991
CC1([NH3+])CC1C([O-])=O	C[C@@]1([NH3])C[C@H]1C(=O)[O]	
InChI=1S/C5H9NO2/c1-5(6)2-3(5)4(7)8/h3H,2,6H2,1H3,(H,7,8)	InChI=1S/C5H9NO2/c1-5(6)2-3(5)4(7)8/h3H,2H2,1,6H3/t3-,5+/m0/s1
