21
gdb 94226	2.47485	1.31702	1.12374	3.8634	83.04	-0.219	0.0301	0.2491	1197.3292	0.181396	-383.268722	-383.25903	-383.258085	-383.302857	36.122	
C	-0.0967872571	 1.4582689018	-0.2433796054	-0.340489
N	-0.0753425543	 0.0500226355	 0.0805587385	-0.071584
C	-1.3017810771	-0.6306512672	 0.5083090789	-0.168203
C	-0.4337522935	-1.5677945073	 1.379542811	-0.280553
C	 0.7082326075	-0.5213397216	 1.2022427462	 0.309105
C	 2.0828063788	-1.0381279822	 0.7971016024	-0.44715
C	 0.7955537128	 0.372614603	 2.4777428555	-0.391542
C	 1.7282094792	 1.4912659292	 2.3686109861	 0.26978
N	 2.4755517079	 2.3681771678	 2.2728001824	-0.322435
H	 0.9149050948	 1.8135568186	-0.4579584062	 0.142405
H	-0.7031678657	 1.6076500302	-1.1435998986	 0.121866
H	-0.5208463234	 2.0977097633	 0.5524003469	 0.095634
H	-1.9795735808	 0.0010781387	 1.1083348489	 0.082408
H	-1.8841304857	-1.0802531313	-0.3034028705	 0.104488
H	-0.7736587742	-1.7571116746	 2.3992617139	 0.102556
H	-0.2026352833	-2.5166226347	 0.8928768538	 0.113993
H	 1.9891732013	-1.6838277131	-0.0789716697	 0.123118
H	 2.7584062246	-0.2141257222	 0.5457675907	 0.141264
H	 2.5428587446	-1.6110330711	 1.6104426983	 0.113702
H	-0.194551663	 0.7655482786	 2.7337028432	 0.148606
H	 1.1142501368	-0.2531140314	 3.3194353739	 0.153028
87.3651	114.661	157.4024	205.4695	221.7325	230.6266	273.3838	321.4729	343.5992	402.9352	414.051	440.8735	529.7884	671.4683	718.0966	783.4359	861.267	890.5059	927.2637	958.8733	972.6318	982.8713	1009.0029	1119.0066	1124.5698	1172.6219	1180.8851	1195.0339	1213.077	1232.2843	1251.4534	1278.2131	1289.9858	1330.0649	1341.1604	1411.5686	1452.5332	1458.2322	1483.4295	1485.1951	1486.2176	1498.2276	1506.4892	1530.3785	2354.7725	2937.618	2951.0838	3033.758	3042.6607	3051.6634	3057.6988	3079.4743	3082.1119	3101.779	3110.947	3125.5031	3135.2963
CN1CCC1(C)CC#N	CN1CC[C@]1(C)CC#N	
InChI=1S/C7H12N2/c1-7(3-5-8)4-6-9(7)2/h3-4,6H2,1-2H3	InChI=1S/C7H12N2/c1-7(3-5-8)4-6-9(7)2/h3-4,6H2,1-2H3/t7-/m0/s1
