22
gdb 88164	2.46447	1.37872	1.08348	0.8908	82.16	-0.2401	0.0746	0.3147	1229.0261	0.194569	-404.338073	-404.328881	-404.327937	-404.372322	35.049	
C	 0.028737393	 1.5982126524	-0.0876815578	-0.396694
C	-0.0151992321	 0.0980228681	 0.0776075966	-0.050234
N	 1.2585585215	-0.6337841902	-0.0931186766	-0.378803
C	 0.6045611224	-0.6117588574	 1.2257440041	 0.289002
C	 1.3235342155	 0.092372511	 2.3762188657	-0.285879
C	 1.4221570824	-1.02573142	 3.4205129606	-0.093099
O	 0.2450872145	-1.8007588716	 3.2325864133	-0.260613
C	 0.031483028	-1.9140948137	 1.8304430333	 0.071434
C	-1.4422079025	-2.200660266	 1.5922911986	-0.406493
H	 0.9488344363	 2.0121267856	 0.3315866009	 0.127013
H	-0.0092171257	 1.8706396097	-1.1478167402	 0.120235
H	-0.8241602419	 2.0711515702	 0.4118438848	 0.115405
H	-0.9021188848	-0.3695081679	-0.3472113871	 0.078548
H	 1.0892211536	-1.5291019088	-0.5491354187	 0.221678
H	 2.2933468509	 0.4856462087	 2.0662285415	 0.115236
H	 0.7176069255	 0.918101563	 2.7637147619	 0.107063
H	 2.3221922126	-1.6395018236	 3.2513800517	 0.091485
H	 1.4315859078	-0.6767166409	 4.4558412133	 0.107653
H	 0.6335083279	-2.757255497	 1.4414329779	 0.063903
H	-2.058073179	-1.3601352012	 1.9239982677	 0.123401
H	-1.6413434274	-2.3869948562	 0.5323025195	 0.112384
H	-1.7400576884	-3.0916612442	 2.152058479	 0.127376
35.0623	160.1549	175.1479	197.5089	223.952	256.963	277.076	393.1089	434.1663	455.6804	514.0888	535.0609	639.8155	710.8473	793.8967	864.9305	870.2449	889.042	941.1724	973.34	1000.378	1037.8783	1054.607	1061.6565	1086.405	1121.8467	1123.5882	1141.4472	1151.0026	1212.9045	1244.2197	1248.7967	1285.6852	1304.4976	1333.0522	1348.6185	1378.8521	1396.2432	1408.1988	1413.7429	1463.0255	1481.6072	1485.216	1489.4129	1496.8518	1503.1927	1518.0412	2913.3451	2971.3458	3034.2323	3042.0555	3051.1399	3094.8793	3098.2016	3110.5111	3114.5821	3119.6307	3123.2449	3131.5062	3469.2202
CC1NC11CCOC1C	C[C@H]1N[C@]21CCO[C@H]2C	
InChI=1S/C7H13NO/c1-5-7(8-5)3-4-9-6(7)2/h5-6,8H,3-4H2,1-2H3	InChI=1S/C7H13NO/c1-5-7(8-5)3-4-9-6(7)2/h5-6,8H,3-4H2,1-2H3/t5-,6+,7+/m1/s1
