14
gdb 8266	6.64285	0.93257	0.91392	4.5649	67.78	-0.2643	0.0091	0.2734	1267.9762	0.105672	-382.542538	-382.534417	-382.533473	-382.57736	27.51	
C	 0.2285752584	 1.6027391676	-0.2198485466	-0.498478
C	 0.101129876	 0.1587962278	-0.1008854616	 0.060308
C	-0.0088006897	-1.0363942389	-0.0059061487	 0.112863
C	-0.1250361596	-2.4713573351	 0.1098947782	-0.057475
C	 0.190639262	-3.1215119732	 1.480173263	-0.420968
C	-1.279941599	-3.533183294	 1.4423115744	 0.45109
O	-2.0419201064	-4.1428075666	 2.1188645375	-0.310651
O	-1.5281282719	-2.9343045561	 0.2330348133	-0.236859
H	 1.2818806767	 1.90088498	-0.2582087044	 0.156535
H	-0.2549392115	 1.9679850846	-1.1320855177	 0.159007
H	-0.2323079993	 2.112848029	 0.632549641	 0.158075
H	 0.33444663	-2.9832662805	-0.7398649082	 0.124769
H	 0.8964799393	-3.9529188327	 1.4658747718	 0.147938
H	 0.444101165	-2.4258481319	 2.280151158	 0.153846
13.9559	67.7518	112.9505	176.6512	302.4362	330.2153	459.0547	461.5975	520.3845	556.4402	704.5155	778.8224	881.9531	912.3163	974.4109	1023.1437	1050.9343	1052.6512	1110.7369	1132.4011	1195.33	1221.8914	1279.3983	1371.2237	1413.1453	1452.6393	1473.5427	1476.5731	1944.3179	2373.4867	3032.394	3074.9773	3095.8588	3097.3393	3098.291	3160.8078
CC#CC1CC(=O)O1	CC#C[C@H]1CC(=O)O1	
InChI=1S/C6H6O2/c1-2-3-5-4-6(7)8-5/h5H,4H2,1H3	InChI=1S/C6H6O2/c1-2-3-5-4-6(7)8-5/h5H,4H2,1H3/t5-/m0/s1
