17
gdb 113616	3.03296	0.80439	0.68102	4.3438	85.	-0.2491	-0.0548	0.1943	1620.9308	0.133116	-421.776549	-421.766863	-421.765919	-421.812453	33.17	
C	-0.5698276954	 0.8590782856	 0.0265273624	-0.24516
O	 0.5100178998	-0.0541863967	 0.1532496942	-0.226275
C	 0.9245895304	-0.5772034409	-1.0509258356	 0.145542
C	 1.630137315	-1.8767684941	-1.0115476454	-0.321041
C	 0.2230005571	-1.8275460443	-1.6278187673	-0.259781
C	-0.8670685628	-2.4152823376	-0.9305235103	 0.143486
C	-1.8128292238	-2.9152063296	-0.362350661	 0.013041
C	-2.9081681986	-3.4995380745	 0.3557492194	 0.013928
O	-3.8712798955	-4.0275409101	-0.1564328071	-0.239636
H	-0.2968859986	 1.7114697195	-0.6123892217	 0.112034
H	-1.4588927624	 0.3704016814	-0.3908422024	 0.128626
H	-0.7940468646	 1.2237975999	 1.0305354699	 0.136259
H	 1.2248250269	 0.1595132606	-1.7981918703	 0.100047
H	 2.4596856458	-2.0514049622	-1.6863406864	 0.131682
H	 1.7054988206	-2.3532059322	-0.0416914318	 0.148261
H	 0.1718831199	-1.8814872795	-2.7111962788	 0.125581
H	-2.807965674	-3.4312641052	 1.4590569123	 0.093408
49.5335	76.6827	96.848	140.2728	164.384	201.3705	246.2003	268.3905	395.0343	444.3899	519.5781	569.664	674.3893	749.2599	771.3512	834.3937	925.1743	949.551	1019.105	1057.5408	1067.2525	1090.8563	1118.8283	1157.7286	1182.2731	1200.9146	1229.082	1268.8946	1380.4138	1401.645	1422.3914	1467.3913	1488.3603	1493.6627	1505.139	1757.611	2307.633	2907.2041	2997.0637	3062.6148	3088.7444	3133.7558	3149.1467	3152.7999	3246.5205
COC1CC1C#CC=O	CO[C@H]1C[C@H]1C#CC=O	
InChI=1S/C7H8O2/c1-9-7-5-6(7)3-2-4-8/h4,6-7H,5H2,1H3	InChI=1S/C7H8O2/c1-9-7-5-6(7)3-2-4-8/h4,6-7H,5H2,1H3/t6-,7+/m1/s1
