21
gdb 122694	4.64901	0.57339	0.56144	2.8246	85.85	-0.2422	-0.0593	0.1829	2041.8185	0.180793	-420.430715	-420.419985	-420.419041	-420.467767	37.861	
C	-0.3845387659	 1.8258313933	-0.005923961	-0.379362
C	-0.1970421926	 0.3063466257	-0.0282020662	-0.16057
C	-1.5217032363	-0.4602804193	 0.0381131439	-0.158271
C	-1.3334383134	-1.9878718942	 0.0271685556	-0.18543
N	-2.597163409	-2.6831787034	 0.1979002536	-0.263267
C	-3.2606832748	-3.0362690352	-0.8390239012	 0.265115
N	-2.9641429762	-2.9154714708	-2.17111102	-0.556992
C	-4.5615975723	-3.7338608889	-0.5730916108	 0.142024
O	-5.3158377832	-4.0820388237	-1.4502091093	-0.271048
H	 0.5765855495	 2.3471601861	-0.0518990067	 0.11353
H	-0.987716806	 2.163612621	-0.8560533989	 0.113078
H	-0.8951368198	 2.1473017571	 0.9084067296	 0.117761
H	 0.348492324	 0.0174109275	-0.9366192723	 0.092048
H	 0.4375903492	 0.0023828545	 0.8144021442	 0.100315
H	-2.069430641	-0.1869621528	 0.9478674024	 0.112244
H	-2.1637791775	-0.1648999068	-0.8032096907	 0.087447
H	-0.8014645832	-2.2900765793	-0.8907801205	 0.083424
H	-0.686342776	-2.265386069	 0.8676926315	 0.10832
H	-2.3147369595	-2.2158836778	-2.4842042644	 0.262136
H	-3.7228247415	-3.1481907211	-2.7953985422	 0.269441
H	-4.7597171045	-3.887807003	 0.5036839834	 0.108056
38.2853	65.5155	76.1602	120.7466	165.3243	239.1226	250.351	267.0451	297.1361	352.0192	362.2443	443.8275	523.59	545.6239	643.7967	680.4245	740.8467	810.3519	901.8501	912.5099	959.2453	990.7111	1026.0497	1032.513	1059.4324	1118.3276	1139.5489	1195.9205	1253.3089	1286.3715	1314.5399	1324.1228	1360.6769	1366.549	1374.9502	1390.966	1415.1128	1486.2169	1494.3796	1500.5699	1509.208	1525.4066	1611.087	1724.0185	1805.1318	2959.0197	2977.8782	3011.1092	3016.5743	3030.7244	3041.3609	3044.2007	3071.1114	3097.8415	3103.3074	3584.3875	3720.2113
CCCCN=C(N)C=O	CCCCN=C(N)C=O	
InChI=1S/C6H12N2O/c1-2-3-4-8-6(7)5-9/h5H,2-4H2,1H3,(H2,7,8)	InChI=1S/C6H12N2O/c1-2-3-4-8-6(7)5-9/h5H,2-4H2,1H3,(H2,7,8)
