15
gdb 56416	3.83351	0.63241	0.58931	2.5874	80.18	-0.2717	0.0003	0.272	1836.7963	0.11047	-379.600027	-379.590051	-379.589107	-379.637243	34.327	
N	-0.611343422	 1.0970605375	 0.24854873	-0.484749
C	 0.1719536388	-0.0772671778	-0.1546407751	-0.297535
C	 1.0664657992	 0.1826669369	-1.3140909864	 0.271968
N	 1.7237421983	 0.4357070401	-2.2305666019	-0.321907
C	 0.9482764389	-0.6047808048	 0.9685910889	 0.137131
C	 1.5904663481	-1.0390657065	 1.8861515697	 0.103402
C	 2.3752337795	-1.5648154711	 3.0047647378	-0.493346
C	 1.8645228012	-2.8308699601	 3.5321459701	 0.31443
C	 1.4552520445	-3.8694808847	 3.972590318	-0.435829
H	 0.0185608493	 1.8343754094	 0.5517925624	 0.248383
H	-1.1208902756	 1.4539006962	-0.5553282988	 0.247551
H	-0.5423849361	-0.8470795137	-0.4769175997	 0.16473
H	 3.4180249991	-1.6945429959	 2.6844620672	 0.171272
H	 2.4026479384	-0.817132347	 3.8091698933	 0.168895
H	 1.0905875385	-4.7885971385	 4.3599155644	 0.205603
10.5554	70.7999	88.8516	148.6187	213.9989	251.7466	299.2553	308.8014	325.416	376.2017	472.125	515.493	592.8494	611.2013	629.4535	658.193	786.0164	849.6764	932.2128	938.3925	958.912	1064.4679	1173.6144	1195.6459	1231.7251	1316.6589	1336.2673	1392.0007	1449.5126	1656.1394	2250.2681	2348.6515	2387.1483	3013.4595	3023.226	3039.4897	3491.381	3505.7745	3576.4677
NC(C#N)C#CCC#C	N[C@@H](C#N)C#CCC#C	
InChI=1S/C7H6N2/c1-2-3-4-5-7(9)6-8/h1,7H,3,9H2	InChI=1S/C7H6N2/c1-2-3-4-5-7(9)6-8/h1,7H,3,9H2/t7-/m1/s1
