14
gdb 21657	3.37233	2.05466	1.288	2.3132	59.79	-0.1965	0.0575	0.254	880.4234	0.109642	-412.048387	-412.040655	-412.039711	-412.079838	29.077	
N	-0.0083726002	 1.3607225502	 0.2684620498	-0.590802
C	 0.0378528976	-0.02202992	 0.0798014589	 0.321812
N	-1.0681863777	-0.7538702742	 0.0774636317	-0.328073
N	-0.6147110345	-2.0496058146	-0.036069992	-0.28566
C	 0.7243359381	-2.1084642721	-0.1125092272	 0.465279
O	 1.3909118059	-3.2687006454	-0.2242441635	-0.432278
C	 1.2113029331	-0.8177989091	-0.0449750055	-0.057628
N	 2.6033540725	-0.5257704831	-0.0670045511	-0.63879
H	 0.6248583761	 1.8629672183	-0.3408535638	 0.236004
H	-0.9516987915	 1.7119748795	 0.156245388	 0.249498
H	-1.2705467771	-2.8092209621	-0.0529172391	 0.273482
H	 2.3283892715	-3.02142348	-0.2172364165	 0.30715
H	 2.894522182	 0.0074522415	 0.7465756774	 0.244128
H	 2.8835486941	 0.0011488409	-0.888749577	 0.235879
180.0417	216.812	219.4619	278.6866	282.7233	285.287	328.4335	443.6992	518.0716	552.5157	600.3553	674.8432	709.6483	744.2351	777.7165	816.1814	842.9899	1048.8534	1112.8605	1170.1496	1207.8241	1215.2689	1299.5057	1388.6789	1462.953	1543.2362	1614.7994	1634.8457	1649.1384	1689.5149	3484.6349	3529.5398	3548.6264	3624.5148	3701.2871	3729.5462
NC1=NNC(O)=C1N	Nc1n[nH]c(O)c1N	
InChI=1S/C3H6N4O/c4-1-2(5)6-7-3(1)8/h4H2,(H4,5,6,7,8)	InChI=1S/C3H6N4O/c4-1-2(5)6-7-3(1)8/h4H2,(H4,5,6,7,8)
