27
gdb 122159	2.86443	0.72558	0.6528	0.1126	97.39	-0.2535	0.0864	0.3399	1922.4708	0.250339	-353.562559	-353.551081	-353.550137	-353.599487	42.453	
C	 0.1047705216	 1.538907818	-0.3084751129	-0.380859
C	 0.0126024459	 0.0609573716	 0.0809322684	-0.161629
C	-1.4030101959	-0.5111742729	-0.0533773972	-0.15756
C	-1.4944789498	-1.9909670739	 0.3491586495	-0.269894
C	-2.8718334644	-2.6124411808	 0.155252286	 0.366555
C	-3.9706114569	-2.002459118	 1.010224554	-0.458916
C	-3.2591435488	-3.0839722521	-1.2316914657	-0.327576
C	-3.0018704028	-4.0963731302	-0.1379959084	-0.037984
C	-1.8389464298	-5.0626348979	-0.2106938938	-0.413086
H	 1.1260279002	 1.9186726066	-0.2033716443	 0.109364
H	-0.2026622993	 1.693962547	-1.3488060211	 0.112563
H	-0.5460870289	 2.1552899786	 0.321795416	 0.112423
H	 0.7014547757	-0.5257520778	-0.5415696313	 0.091756
H	 0.3584328407	-0.067366302	 1.1154221435	 0.092754
H	-2.087870584	 0.0880513275	 0.5598429411	 0.093774
H	-1.7459966001	-0.3977916256	-1.0908836055	 0.093542
H	-0.7515197691	-2.5498258491	-0.2305764663	 0.089263
H	-1.1960433914	-2.0947365783	 1.4027198831	 0.088166
H	-4.131309477	-0.9448061787	 0.7749301566	 0.115959
H	-4.9231916203	-2.5189789398	 0.8555451905	 0.109173
H	-3.7247050709	-2.0712557794	 2.0772108254	 0.10972
H	-4.2765788442	-2.9250570579	-1.5747998256	 0.101533
H	-2.5124597583	-3.0026596461	-2.0167248241	 0.100967
H	-3.8978320751	-4.5458595799	 0.2857286972	 0.075416
H	-0.9697409243	-4.6316198326	-0.7148290077	 0.116039
H	-1.5188216953	-5.3841773709	 0.7871394665	 0.114025
H	-2.1235481872	-5.9603364052	-0.7711747438	 0.114512
53.7753	79.6766	103.2032	132.7849	168.7407	199.4805	225.0267	247.4321	249.9143	288.2537	362.3859	384.7835	419.983	436.8617	522.3276	716.108	737.5104	772.9423	795.5544	876.6504	900.2529	908.8402	924.6565	949.9553	982.4924	1016.09	1032.8064	1052.6726	1064.9719	1075.9959	1104.9752	1132.4357	1136.6672	1161.8669	1192.812	1238.0918	1279.3007	1287.2729	1322.1247	1330.324	1342.854	1374.4053	1398.3072	1408.6947	1413.9346	1416.5197	1430.5726	1475.6159	1485.901	1490.3529	1493.6522	1496.3674	1499.7317	1500.5968	1503.7803	1509.6193	1513.0436	3000.7193	3009.0819	3018.5507	3021.1482	3028.2103	3028.4076	3033.9713	3051.3265	3070.9966	3082.4585	3082.9898	3094.6805	3096.5071	3099.5725	3104.5821	3116.8188	3125.3617	3198.9183
CCCCC1(C)CC1C	CCCC[C@@]1(C)C[C@H]1C	
InChI=1S/C9H18/c1-4-5-6-9(3)7-8(9)2/h8H,4-7H2,1-3H3	InChI=1S/C9H18/c1-4-5-6-9(3)7-8(9)2/h8H,4-7H2,1-3H3/t8-,9+/m1/s1
