20
gdb 91237	3.49687	1.17366	1.02002	2.9578	79.79	-0.2583	0.0292	0.2876	1232.3791	0.172808	-403.170911	-403.162846	-403.161901	-403.203741	31.438	
C	-0.3696072893	 1.5146568162	-0.0629829585	-0.405099
C	 0.0037128396	 0.0367438271	 0.0231135036	 0.049342
C	 0.7349717214	-0.5141058276	-1.2237377198	-0.248929
C	 1.4132460981	-1.7977323796	-0.7357350249	 0.111381
O	 2.8800940835	-1.7989080748	-0.85990627	-0.272602
C	 3.0344552763	-1.7400277831	 0.5118618838	 0.42785
N	 4.0738706554	-1.7276404608	 1.213317027	-0.549159
C	 1.5484364824	-1.6882179751	 0.8049129677	-0.161004
C	 0.9518822861	-0.3175345926	 1.1937219351	-0.243217
H	 0.524630984	 2.1353293063	-0.1921019314	 0.118269
H	-1.0367931174	 1.7090148917	-0.9092115698	 0.115645
H	-0.8800772853	 1.8490416749	 0.8461563681	 0.116976
H	-0.9182722431	-0.5482530866	 0.1527586304	 0.076074
H	 0.061448383	-0.6792281761	-2.069048498	 0.103122
H	 1.5105733993	 0.1880917181	-1.550724774	 0.116954
H	 1.0108556157	-2.7219466629	-1.1540853631	 0.092601
H	 4.9132618586	-1.7660750569	 0.6319760353	 0.225672
H	 1.1734464047	-2.5191473724	 1.402710668	 0.102272
H	 1.745607901	 0.4335856398	 1.2751221119	 0.116375
H	 0.435354726	-0.3428022256	 2.1563087288	 0.107476
77.988	108.2232	208.3361	243.9287	296.3721	375.6689	403.1626	440.1398	521.9136	629.0125	677.4901	751.3302	821.2923	841.1092	848.1212	871.2393	904.2489	916.4553	945.6298	965.5745	1012.7112	1043.1528	1059.493	1080.1404	1121.5895	1141.7235	1166.1379	1200.9768	1222.0466	1250.0866	1279.5353	1289.2536	1312.2159	1321.977	1353.1656	1364.3354	1381.4886	1411.9362	1483.8328	1496.45	1497.1296	1503.8656	1820.8455	2998.3312	3027.4489	3044.4991	3049.0037	3087.8998	3093.396	3098.3845	3100.0307	3104.3824	3118.2872	3471.0928
CC1CC2OC(=N)C2C1	C[C@H]1C[C@H]2O[C]([NH])[C@H]2C1	
InChI=1S/C7H11NO/c1-4-2-5-6(3-4)9-7(5)8/h4-6,8H,2-3H2,1H3	InChI=1S/C7H11NO/c1-4-2-5-6(3-4)9-7(5)8/h4-6,8H,2-3H2,1H3/t4-,5+,6-/m1/s1
