16
gdb 56100	4.09381	0.79715	0.67291	1.8699	75.07	-0.2516	-0.0325	0.2191	1605.3962	0.120006	-437.866964	-437.856914	-437.85597	-437.904478	34.156	
C	-0.0315160911	 1.4528015809	-0.0130365259	-0.483479
C	 0.0719509347	-0.0620795019	 0.0139565765	 0.352615
O	 1.1238408421	-0.6486079375	 0.022024898	-0.267
C	-1.2725724971	-0.7814152318	 0.0283065376	-0.163487
O	-1.0536777981	-2.1815380898	-0.0093374087	-0.209684
C	-2.1594336023	-2.9490374962	 0.0190122056	 0.261627
N	-3.3297816009	-2.4504367066	 0.0755052727	-0.540767
C	-1.8353492233	-4.3480688581	-0.0222494648	 0.279629
C	-1.6177326614	-5.5295849887	-0.0550765962	-0.399516
H	 0.9651460089	 1.8861031558	 0.0741865134	 0.149548
H	-0.4901676057	 1.7832555763	-0.9521949147	 0.145744
H	-0.6685509101	 1.8183666093	 0.7997740742	 0.140841
H	-1.8373867497	-0.5019173106	 0.9273602441	 0.143058
H	-1.8853344556	-0.4612053757	-0.8243525771	 0.140308
H	-4.0306828567	-3.1876607965	 0.0893629177	 0.238117
H	-1.4172206637	-6.5727523891	-0.0842121224	 0.212447
14.9319	53.204	81.5165	98.9659	155.4891	199.2231	282.4081	305.4741	360.4988	474.6181	543.3951	562.2401	620.9019	663.0152	665.6768	732.8481	821.0892	843.5422	865.2718	908.392	975.9868	1061.673	1091.8244	1132.4114	1189.623	1253.6312	1354.9771	1382.6459	1407.2955	1461.1839	1475.6659	1481.5895	1679.1285	1837.7826	2238.9329	3024.0103	3038.2595	3056.3287	3098.0592	3155.5104	3499.0578	3528.0501
CC(=O)COC(=N)C#C	CC(=O)CO[C]([NH])C#C	
InChI=1S/C6H7NO2/c1-3-6(7)9-4-5(2)8/h1,7H,4H2,2H3	InChI=1S/C6H7NO2/c1-3-6(7)9-4-5(2)8/h1,7H,4H2,2H3
