15
gdb 10144	2.65152	1.45799	1.06486	5.8583	66.29	-0.2686	-0.0032	0.2655	1095.9347	0.119264	-358.858483	-358.849861	-358.848917	-358.892223	29.837	
N	-0.9625560829	 2.1270577792	-0.0671054925	-0.505224
H	-1.009466539	 1.490055562	-0.8564730981	 0.235542
H	-0.3840009054	 2.9073633233	-0.3571665109	 0.243545
H	-2.9706352064	 1.9829244577	 1.3263142219	 0.192744
C	-0.3813497685	 1.4589180076	 1.0998744348	-0.183032
C	-1.4290025767	 0.566201902	 1.7728189203	-0.189668
C	-2.676673817	 1.3892335054	 2.2027549179	-0.266433
C	-3.7954422202	 0.5204035464	 2.5822091578	 0.291325
N	-4.6661468959	-0.1897305252	 2.8481765652	-0.307482
C	-2.3511706343	 2.3290853052	 3.283818356	 0.296915
N	-2.0523894424	 3.0748398094	 4.1132691062	-0.314425
H	 0.5025268199	 0.8428255284	 0.8744538875	 0.102658
H	-0.056179752	 2.2306547371	 1.8061024161	 0.138556
H	-1.7726732036	-0.2041016543	 1.0743010713	 0.1283
H	-1.0031751854	 0.0555064759	 2.6405701665	 0.136677
56.4773	121.5558	144.6744	156.3268	231.8873	264.7049	300.604	390.0464	462.6766	531.6391	569.7484	590.6524	760.7352	845.7145	902.4398	957.3732	970.655	1035.1041	1061.2715	1098.1188	1162.5938	1229.7452	1298.2264	1320.6233	1354.2361	1375.6634	1419.5466	1481.678	1503.7853	1662.3903	2365.9354	2371.9041	2985.2926	3033.0584	3054.3895	3074.2612	3112.0423	3505.5368	3587.5782
[NH3+]CC[C-](C#N)C#N	NCCC(C#N)C#N	
InChI=1S/C5H6N3/c6-2-1-5(3-7)4-8/h1-2,6H2/q-1/p+1	InChI=1S/C5H7N3/c6-2-1-5(3-7)4-8/h5H,1-2,6H2
