16
gdb 53169	3.04827	1.02737	0.86277	3.4897	79.75	-0.2257	-0.022	0.2037	1367.7537	0.122599	-400.687445	-400.678547	-400.677603	-400.725146	31.141	
C	 0.0363065095	 1.5498259502	 0.0086045642	-0.499305
C	 0.0314599253	 0.0948618454	 0.0224538128	 0.074337
C	 0.0209598116	-1.1090970788	 0.0396367538	 0.104473
C	-0.0100811835	-2.5526647159	 0.0496612366	-0.321994
C	 0.3027240513	-3.3269304519	 1.3494294305	-0.052472
N	-0.7320938067	-2.9558366619	 2.3100394833	-0.314603
C	-1.0093846647	-4.058484186	 1.3198996986	-0.193636
C	-1.3882445766	-3.3392736537	 0.0476646784	 0.44739
O	-2.2685285686	-3.4370874658	-0.7486987606	-0.297008
H	 1.0549712375	 1.9469141853	-0.0646685005	 0.145821
H	-0.5320491488	 1.937709752	-0.844019167	 0.151539
H	-0.4151993985	 1.9564619251	 0.9201662747	 0.151128
H	 0.5646221616	-2.9727495122	-0.786904811	 0.126658
H	 1.2689306924	-3.7080464274	 1.6523405194	 0.114498
H	-0.5278861756	-3.4243874822	 3.1932790086	 0.24277
H	-1.2833829562	-5.0496599819	 1.6568378381	 0.120405
1.9014	76.8551	90.4967	158.7754	246.4295	259.5826	389.3716	395.1316	501.2631	528.6907	594.5434	678.2501	787.155	825.664	847.0165	873.5438	911.7435	964.1983	981.9569	1039.0765	1051.3748	1053.3653	1096.2528	1099.6328	1155.4088	1189.6294	1249.8769	1309.6835	1341.2146	1356.311	1414.1493	1477.0034	1478.1245	1908.6296	2371.2679	3025.8341	3026.0728	3085.7762	3088.7855	3201.9854	3213.1352	3469.539
CC#CC1C2NC2C1=O	CC#C[C@H]1[C@H]2N[C@H]2C1=O	
InChI=1S/C7H7NO/c1-2-3-4-5-6(8-5)7(4)9/h4-6,8H,1H3	InChI=1S/C7H7NO/c1-2-3-4-5-6(8-5)7(4)9/h4-6,8H,1H3/t4-,5+,6+/m0/s1
