16
gdb 25773	3.95457	1.11039	0.87252	2.9269	78.5	-0.2006	-0.0446	0.1561	1274.3213	0.125165	-434.136519	-434.127833	-434.126888	-434.170338	31.589	
C	-0.0323833443	 1.4855077438	 0.0150564383	-0.478823
C	-0.0131455299	-0.0252303954	-0.0096033719	 0.312513
O	 1.0153800451	-0.681715279	-0.0515478833	-0.349956
C	-1.3099153074	-0.7098708621	 0.0193678585	 0.25262
N	-2.5292904341	-0.1770872857	 0.0532951427	-0.35144
C	-3.3897015496	-1.2296484162	 0.0696986093	 0.285427
N	-4.7648915126	-1.0316622293	 0.1734412576	-0.59863
C	-2.6878194334	-2.42927595	 0.0433650376	-0.162819
N	-1.3693271824	-2.0661102277	 0.0083321661	-0.253785
H	 0.9909327577	 1.8609800732	-0.0097592344	 0.134399
H	-0.598938544	 1.8702805948	-0.838634731	 0.14916
H	-0.5464318468	 1.8421819959	 0.9130058966	 0.151189
H	-5.0188000817	-0.0894673973	-0.0927551158	 0.252963
H	-5.3191217397	-1.7088359091	-0.3320256082	 0.245412
H	-3.0080303206	-3.4573284805	 0.0536271689	 0.131053
H	-0.5510248661	-2.6538253854	-0.021210191	 0.280718
59.2844	112.0875	151.4385	156.9793	237.4317	335.6274	361.6994	376.6338	529.5145	553.4142	623.6634	641.0472	660.705	694.514	721.4611	733.7034	773.962	950.1549	998.4013	1026.5118	1043.0474	1092.4488	1105.6035	1164.0269	1292.3623	1347.3772	1382.7802	1434.6437	1458.4734	1466.5403	1474.7479	1531.3308	1599.8725	1646.5195	1751.2694	3049.6869	3112.4797	3158.8788	3277.6933	3551.0261	3648.2993	3653.5807
CC(=O)C1=NC(N)=CN1	CC(=O)c1nc(N)c[nH]1	
InChI=1S/C5H7N3O/c1-3(9)5-7-2-4(6)8-5/h2H,6H2,1H3,(H,7,8)	InChI=1S/C5H7N3O/c1-3(9)5-7-2-4(6)8-5/h2H,6H2,1H3,(H,7,8)
