14
gdb 19316	7.34877	0.8091	0.80565	0.6761	69.47	-0.2554	0.0008	0.2561	1392.061	0.105704	-382.451474	-382.443718	-382.442774	-382.4853	26.592	
C	-0.2763492912	 1.214937189	-0.3572986925	-0.158371
O	 0.8608147523	 1.3348386072	 0.4858938701	-0.213249
C	 0.382517216	 0.0113748865	 0.1897125707	-0.118759
C	-0.2000735508	-0.7423925402	 1.2648239917	 0.116749
C	-0.6796639828	-1.3895130396	 2.161382469	 0.116769
C	-1.2397637828	-2.1779787378	 3.223481624	-0.118762
C	-1.7695046937	-1.554572633	 4.4533837827	-0.158371
O	-2.6529526371	-2.0643422965	 3.4643766235	-0.213247
H	-1.2206109783	 1.5390856327	 0.0754851463	 0.129606
H	-0.1205382301	 1.4709005782	-1.4045130124	 0.122732
H	 1.035963417	-0.5523644534	-0.4750170044	 0.121281
H	-0.8632550341	-3.1975823576	 3.2963388518	 0.121283
H	-1.7283000097	-2.113632545	 5.3873018731	 0.122732
H	-1.7411825645	-0.4708483905	 4.5468802465	 0.129607
31.8559	82.9441	105.3732	232.0056	234.064	398.2598	491.3272	549.7063	584.2778	703.9449	825.1071	835.3981	858.218	922.0336	974.8248	1024.7084	1080.672	1090.5063	1148.3095	1156.4919	1158.6562	1165.0822	1192.0213	1277.2589	1285.9101	1397.9482	1415.6088	1519.7882	1520.0083	2361.1939	3087.3272	3087.4714	3117.9482	3118.1692	3181.9975	3182.167
C1OC1C#CC1CO1	C1O[C@H]1C#C[C@H]1CO1	
InChI=1S/C6H6O2/c1(5-3-7-5)2-6-4-8-6/h5-6H,3-4H2	InChI=1S/C6H6O2/c1(5-3-7-5)2-6-4-8-6/h5-6H,3-4H2/t5-,6-/m0/s1
