15
gdb 131873	5.71288	0.83296	0.76225	1.4897	63.71	-0.2693	-0.0108	0.2585	1429.0286	0.11287	-491.067962	-491.059821	-491.058877	-491.102106	28.456	
O	-0.063068432	 1.4252135691	 0.0221415432	-0.413683
C	-0.02881375	 0.0154311804	 0.005341094	-0.069457
C	-1.4186449481	-0.5930720834	 0.0446184832	-0.092375
O	-2.0710968794	-0.1679698676	-1.1785338278	-0.272379
C	-3.3286446974	-0.5040921705	-1.3612548424	 0.5432
N	-4.0648028007	-0.1642724743	-2.3793354765	-0.368319
C	-5.2447377888	-0.7798927752	-2.0571446531	 0.060763
N	-5.2662140573	-1.4511856498	-0.9381185063	-0.131017
O	-3.9442710865	-1.2655717883	-0.4512613847	-0.216083
H	-0.5416494593	 1.7088487252	-0.7646480141	 0.298114
H	 0.5114600999	-0.3735547536	-0.8711888327	 0.10894
H	 0.5140808222	-0.3027321139	 0.9011443169	 0.125582
H	-1.3851982774	-1.6868222184	 0.0779942034	 0.132296
H	-1.9885135189	-0.2185564657	 0.8997841594	 0.143126
H	-6.1256804763	-0.725877114	-2.6812231126	 0.151292
43.994	71.7718	138.0737	178.0446	287.1279	312.8306	389.4188	488.634	497.7679	640.0171	735.7253	769.8833	886.0533	898.3286	905.0729	941.8644	973.3897	1011.7989	1063.1222	1094.6767	1126.0215	1215.2977	1232.9857	1268.3683	1283.2565	1356.8459	1388.0914	1398.9017	1431.5762	1490.3312	1493.7512	1558.6245	1656.1429	2996.8025	3051.7776	3087.8551	3113.3066	3255.5544	3811.2393
OCCOC1=NC=NO1	OCCOc1ncno1	
InChI=1S/C4H6N2O3/c7-1-2-8-4-5-3-6-9-4/h3,7H,1-2H2	InChI=1S/C4H6N2O3/c7-1-2-8-4-5-3-6-9-4/h3,7H,1-2H2
