18
gdb 23082	3.30953	1.22324	1.10111	1.7396	74.44	-0.2442	0.0063	0.2504	1143.253	0.148573	-439.03992	-439.032099	-439.031155	-439.072663	30.077	
O	-0.1111691647	 1.2009367784	 0.4731170387	-0.392412
N	-0.0001589361	-0.1790293294	 0.2276740165	-0.218565
C	-1.1294813461	-0.7002905496	-0.0360959739	 0.393521
C	-1.2598033498	-2.1753143189	-0.3556155693	-0.310633
C	-2.6717849798	-2.5453951767	 0.1253670376	-0.079306
C	-2.8517312791	-2.7104045266	 1.6479527475	-0.076495
O	-3.4832303676	-1.4184712221	 1.7674874327	-0.291236
C	-3.4369655206	-1.2029772842	 0.3388021943	 0.12101
C	-2.4983455913	-0.0558874088	-0.038896014	-0.316071
H	 0.7912039487	 1.4362449441	 0.7133539023	 0.306108
H	-1.1871916697	-2.3191110817	-1.441929061	 0.117715
H	-0.4649332783	-2.7690503413	 0.1023729018	 0.12426
H	-3.1509739063	-3.3088144247	-0.4870943451	 0.080069
H	-3.5250560565	-3.5219709379	 1.9514325172	 0.100072
H	-1.9284221475	-2.7731675042	 2.2377041263	 0.106581
H	-4.4429162935	-1.1063902053	-0.0828603479	 0.073782
H	-2.5636527027	 0.7801135596	 0.6597793151	 0.145078
H	-2.7340530491	 0.3264595993	-1.0413290688	 0.11652
70.2904	100.0771	237.5048	277.9906	355.634	363.5662	375.0909	467.8121	530.6899	629.4892	697.2532	794.7606	824.7063	845.7584	860.9397	889.6938	907.8044	977.6333	993.4382	1020.3868	1032.6461	1078.7668	1091.6472	1146.386	1163.2351	1177.9046	1218.661	1232.9781	1271.1012	1286.0698	1299.6087	1342.0035	1355.245	1370.025	1406.8123	1449.3	1473.3979	1524.3932	1759.9073	3009.5333	3020.8705	3025.2783	3051.4442	3052.1355	3101.2082	3112.2902	3122.9166	3819.6216
ON=C1CC2COC2C1	ON=C1C[C@H]2CO[C@H]2C1	
InChI=1S/C6H9NO2/c8-7-5-1-4-3-9-6(4)2-5/h4,6,8H,1-3H2	InChI=1S/C6H9NO2/c8-7-5-1-4-3-9-6(4)2-5/h4,6,8H,1-3H2/t4-,6-/m0/s1
