13
gdb 80217	2.32727	1.61677	1.1966	3.4068	66.51	-0.256	-0.0184	0.2376	1020.1164	0.086986	-456.512884	-456.505073	-456.504128	-456.545227	29.379	
O	 0.0203872534	 1.392343874	 0.0063373254	-0.406473
C	-0.0478435255	 0.0227834114	 0.018378082	 0.094828
C	-0.4746981139	-0.7603801975	 1.1885391109	-0.027854
O	-1.457699124	 0.0209406136	 1.9105463678	-0.285629
C	-2.3737817431	-0.1129124014	 0.852357383	 0.421199
O	-3.5041506939	 0.2322773029	 0.8411349909	-0.30063
C	-1.3916996904	-0.8137699904	-0.0506641684	-0.074241
C	-1.6478348472	-1.7982920388	-1.0338487465	 0.157611
C	-1.8574999387	-2.6289801891	-1.8780856992	-0.384835
H	-0.4119670601	 1.7216990078	 0.8061079539	 0.310224
H	 0.7027815259	-0.4262865774	-0.6248578105	 0.148798
H	 0.0218673868	-1.5559223057	 1.7276305118	 0.147857
H	-2.0539705293	-3.3634670694	-2.6197531111	 0.199146
126.449	130.2499	156.2268	254.8397	368.0986	393.0544	431.8678	492.473	514.0032	588.1164	632.4986	647.2813	678.7157	717.0944	782.1056	821.192	867.9237	923.9108	961.1165	1031.4353	1049.4424	1112.2532	1219.9313	1287.7598	1294.9584	1379.6677	1463.2744	1958.4549	2240.12	3177.6835	3217.008	3499.6587	3763.5734
OC1C2OC(=O)C12C#C	O[C@H]1[C@H]2OC(=O)[C@@]12C#C	
InChI=1S/C6H4O3/c1-2-6-3(7)4(6)9-5(6)8/h1,3-4,7H	InChI=1S/C6H4O3/c1-2-6-3(7)4(6)9-5(6)8/h1,3-4,7H/t3-,4+,6-/m0/s1
