16
gdb 66712	2.87732	1.68246	1.27426	1.7997	80.46	-0.2091	0.0222	0.2313	999.984	0.122401	-363.460981	-363.453275	-363.45233	-363.492905	30.18	
C	-0.1122983333	 1.4919009252	 0.013794233	-0.523664
C	 0.0186299405	 0.0081613652	-0.0099019816	 0.265005
C	 0.9118583664	-0.9819045032	-0.8076980964	-0.117973
C	-0.1584907573	-2.0095021284	-0.8100603171	-0.141748
N	 0.8523481074	-1.9988646964	 0.3018669257	-0.175964
C	-0.0500152599	-1.0365737954	 1.0654246176	-0.127994
C	-1.114686541	-1.0656313433	-0.0279236404	 0.292793
C	-2.5104125663	-0.8859536337	 0.0183052558	 0.016014
C	-3.7054296937	-0.731004558	 0.0504960834	-0.385523
H	 0.8145794159	 1.9681036761	 0.3534012833	 0.130084
H	-0.3531743884	 1.8865159289	-0.9794696337	 0.132105
H	-0.9157829896	 1.7919786259	 0.6940598671	 0.138204
H	 1.7886716565	-0.8510752538	-1.4308498342	 0.102706
H	-0.3358470193	-2.8764843902	-1.4347292421	 0.105109
H	-0.1476792707	-0.9899692403	 2.1431986634	 0.111757
H	-4.7581033871	-0.5977871186	 0.0830035261	 0.179087
111.8372	151.8145	202.1316	254.9149	280.5358	471.9886	485.0606	540.0251	546.018	623.5955	672.7925	682.4809	728.6005	769.9773	785.8453	859.0292	881.057	909.0844	954.9512	967.9614	986.5001	998.7981	1055.702	1093.2238	1122.4732	1180.7938	1192.1663	1230.8084	1312.8235	1344.4987	1408.3034	1444.4225	1478.757	1495.5059	2222.2753	3026.0487	3087.3912	3103.4324	3177.7624	3190.6454	3193.0207	3502.6759
CC12C3C4N3C1C24C#C	C[C@@]12[C@@H]3[C@H]4N3[C@@H]1[C@@]24C#C	
InChI=1S/C8H7N/c1-3-8-5-4-7(8,2)6(8)9(4)5/h1,4-6H,2H3	InChI=1S/C8H7N/c1-3-8-5-4-7(8,2)6(8)9(4)5/h1,4-6H,2H3/t4-,5+,6-,7+,8-,9?/m0/s1
