21
gdb 115233	3.71729	0.93428	0.7958	3.6356	78.92	-0.2323	-0.0087	0.2236	1439.0446	0.18329	-424.263559	-424.254462	-424.253518	-424.297624	34.257	
O	-0.0081742364	 1.4457129613	-0.0226547677	-0.424005
C	 0.0450309866	 0.0269391302	 0.0065030641	-0.09866
C	-1.3848795546	-0.5065367238	 0.0061427272	 0.04703
C	-2.1492916515	-0.0865804755	-1.2591433424	-0.202514
C	-3.6013322673	-0.6009273015	-1.2487129853	-0.309059
C	-3.6691300022	-2.1010624358	-0.9979258414	 0.39555
O	-4.3252430279	-2.8509877256	-1.6829035851	-0.308669
C	-2.8441382292	-2.5869160332	 0.1887196611	-0.304821
C	-1.4061826409	-2.0347291189	 0.1589663417	-0.221337
H	 0.8909101103	 1.7819723512	-0.074721927	 0.288766
H	 0.5861780966	-0.3699740709	-0.8688875087	 0.085234
H	 0.5706670047	-0.3311840865	 0.9065099183	 0.084627
H	-1.8911379065	-0.062441501	 0.8762207406	 0.079583
H	-2.1335384086	 1.0014671216	-1.3580946782	 0.121723
H	-1.6290758521	-0.4911435854	-2.1389740893	 0.098045
H	-4.1505680376	-0.1045794612	-0.4353732608	 0.115332
H	-4.1228100494	-0.3793875418	-2.1829330893	 0.116412
H	-3.3429505085	-2.2333307062	 1.1026481582	 0.115436
H	-2.863950489	-3.6791996332	 0.2019130959	 0.116762
H	-0.8632808774	-2.4897284954	-0.6809561016	 0.105068
H	-0.8785306988	-2.3379264586	 1.0706859998	 0.099499
67.5168	110.9409	163.9584	186.7832	224.5665	258.0989	344.8439	398.9864	422.0031	457.8052	490.9875	524.713	686.1594	750.8712	763.9423	821.4031	914.3767	931.217	950.2379	984.6828	1015.9819	1063.6085	1074.6176	1089.5218	1117.6003	1138.8489	1173.4589	1211.1929	1246.9947	1261.0979	1270.3737	1279.301	1313.8158	1331.0077	1346.288	1350.4958	1381.6083	1399.0326	1459.7534	1462.3873	1472.2243	1490.5632	1505.2875	1520.9589	1818.3197	2956.3931	2982.8144	3000.4827	3006.9418	3014.4025	3015.2282	3023.9457	3061.2468	3100.522	3104.357	3106.0029	3834.4311
OCC1CCC(=O)CC1	OCC1CCC(=O)CC1	
InChI=1S/C7H12O2/c8-5-6-1-3-7(9)4-2-6/h6,8H,1-5H2	InChI=1S/C7H12O2/c8-5-6-1-3-7(9)4-2-6/h6,8H,1-5H2
