19
gdb 83130	2.07687	1.727	1.35832	2.8015	75.86	-0.2374	-0.0223	0.2152	1056.4781	0.158961	-423.048277	-423.039647	-423.038703	-423.081256	33.147	
C	-0.2416202329	 1.5407508874	 0.1624254311	-0.431345
C	 0.0233608948	 0.0558918452	 0.0234174665	-0.062506
C	 0.5458314207	-0.6477540852	-1.2034672667	-0.143513
C	 1.2938088984	 0.1899242164	-2.2463212433	-0.232634
C	 2.5024148264	 0.8307540384	-1.5182522426	-0.341055
C	 2.6265162097	 0.0675158392	-0.2047637549	 0.338893
O	 3.6304103024	-0.0894109773	 0.4564434897	-0.353237
C	 1.3605061175	-0.6580789766	 0.0945000887	 0.32284
O	 1.4914669614	-1.7355126007	 0.9532669072	-0.476749
H	 0.4494509739	 2.1620687911	-0.4109351375	 0.11925
H	-1.253230222	 1.7765441104	-0.1865234998	 0.124389
H	-0.1733343303	 1.849017763	 1.2107945444	 0.131143
H	-0.7043893356	-0.5531123231	 0.5570305003	 0.110763
H	 0.0386758004	-1.5491804215	-1.5289944205	 0.101988
H	 1.6491209911	-0.4650814653	-3.0470033086	 0.116608
H	 0.6446137138	 0.9387440655	-2.7117576248	 0.10912
H	 3.4378637717	 0.7377617125	-2.0748141086	 0.135731
H	 2.3695941981	 1.8982583095	-1.312081053	 0.136614
H	 2.4098578007	-1.695729009	 1.2628047624	 0.2937
90.8687	144.9888	185.8244	215.1341	249.5502	294.4754	362.0523	398.1286	476.8802	510.1609	547.3525	632.9881	647.4691	678.0882	776.038	820.2584	869.1603	900.4845	955.9274	993.6231	1016.0693	1044.0504	1068.9578	1111.008	1116.6618	1126.6227	1176.3745	1224.3377	1247.4459	1265.2949	1316.101	1329.1671	1353.8407	1413.4314	1418.6604	1460.0479	1462.9092	1492.0551	1502.8828	1506.8325	1802.7276	3037.3966	3048.0786	3059.1226	3085.4104	3093.8053	3111.1267	3118.6818	3135.2529	3175.5327	3706.5281
CC1C2CCC(=O)C12O	C[C@H]1[C@H]2CCC(=O)[C@@]12O	
InChI=1S/C7H10O2/c1-4-5-2-3-6(8)7(4,5)9/h4-5,9H,2-3H2,1H3	InChI=1S/C7H10O2/c1-4-5-2-3-6(8)7(4,5)9/h4-5,9H,2-3H2,1H3/t4-,5+,7+/m0/s1
