18
gdb 95991	2.76032	1.37925	1.03958	2.6374	67.63	-0.2437	0.0271	0.2708	1143.0517	0.149232	-476.254069	-476.245594	-476.244649	-476.288179	31.873	
N	 0.8632718418	-0.1908811765	 0.9899291074	-0.528811
C	-0.2027049623	 0.2906654259	 0.2950156846	 0.360807
O	-0.3829900384	 1.4742302865	 0.0730806408	-0.37133
C	-1.2460279451	-0.7308222651	-0.1732420788	-0.137647
C	-1.5519458615	-0.5914257905	-1.6976212547	-0.09208
O	-1.5195253327	-1.9194912383	-2.2319767487	-0.263175
C	-1.864803774	-2.7893047985	-1.1612528694	-0.112616
C	-1.0144302699	-2.2553879638	-0.0079875951	 0.084555
O	 0.3440461356	-2.6629682921	-0.1802496568	-0.435556
H	 1.5835590542	 0.4762379969	 1.2202519757	 0.253954
H	 1.1044418938	-1.1679160658	 0.8922736786	 0.271838
H	-2.1497610078	-0.473565046	 0.3891652758	 0.118306
H	-2.5382693989	-0.140584159	-1.8622374151	 0.111628
H	-0.809818769	 0.0092966284	-2.2267441824	 0.129766
H	-2.9401282032	-2.7379516202	-0.9256811275	 0.09719
H	-1.6052027616	-3.8117985087	-1.4447095239	 0.120458
H	-1.3165317581	-2.6242620871	 0.9742054726	 0.098994
H	 0.5566336471	-2.5212309459	-1.112348903	 0.29372
27.8641	95.3285	199.1366	220.5147	275.3779	346.189	393.7575	455.285	487.4755	540.3015	579.9028	651.7367	714.7587	746.7309	791.1158	816.3948	882.7687	931.6839	958.0363	990.9638	1017.3762	1059.9967	1095.0046	1125.7894	1152.8316	1204.6641	1240.2926	1255.6591	1262.0097	1303.0025	1324.4525	1348.8694	1372.8101	1393.5063	1433.7569	1503.6425	1525.192	1618.3908	1786.9906	2979.3011	3026.2687	3058.2135	3103.4422	3109.432	3113.2139	3534.5222	3682.9288	3768.2049
NC(=O)C1COCC1O	NC(=O)[C@H]1COC[C@H]1O	
InChI=1S/C5H9NO3/c6-5(8)3-1-9-2-4(3)7/h3-4,7H,1-2H2,(H2,6,8)	InChI=1S/C5H9NO3/c6-5(8)3-1-9-2-4(3)7/h3-4,7H,1-2H2,(H2,6,8)/t3-,4+/m0/s1
