20
gdb 109839	2.66578	0.9767	0.83938	3.7146	78.18	-0.2319	0.0329	0.2648	1448.0356	0.169689	-440.291164	-440.281117	-440.280173	-440.327265	35.96	
C	 0.0203950571	 1.4035552437	-0.1427142474	-0.375238
C	-0.0815705639	-0.0477108469	 0.3414139225	-0.191071
C	-1.4638604509	-0.6317219273	 0.1334015084	-0.05494
C	-1.8943716235	-1.1881749717	-1.1983425102	 0.033939
O	-0.9165710092	-1.205197902	-2.2074774948	-0.421556
C	-1.701860176	-2.1283286127	-0.0296509816	-0.025275
N	-0.5981812724	-3.0327824393	-0.1160407916	-0.275019
C	-0.3844415299	-4.029688548	 0.7816783556	 0.152226
O	-1.0691228258	-4.2498793368	 1.7583979344	-0.326745
H	 1.0180967035	 1.8118035331	 0.0467535774	 0.110639
H	-0.1743913845	 1.4668022842	-1.2174657063	 0.129175
H	-0.7045576224	 2.0460536168	 0.369208321	 0.111574
H	 0.6630938471	-0.6570450986	-0.1775490442	 0.098722
H	 0.1641497086	-0.1054255277	 1.4088191716	 0.105407
H	-2.2512762362	-0.1118926661	 0.6746491456	 0.093402
H	-2.9045282617	-0.9860027159	-1.5493259214	 0.095741
H	-1.2099938965	-1.8154711585	-2.8926159611	 0.295731
H	-2.5606107052	-2.5708562808	 0.4606696942	 0.124873
H	 0.0114408636	-2.9397341763	-0.9143201015	 0.24843
H	 0.5006567881	-4.6391313992	 0.5092105195	 0.069985
33.2523	61.7753	133.3778	153.6674	197.6257	233.3776	248.1157	283.6555	310.0168	341.183	543.0218	583.6988	606.5761	610.6702	737.1925	751.0889	792.3666	838.8691	905.2242	979.8401	1016.9633	1025.49	1030.1522	1075.278	1104.5662	1139.5188	1142.2121	1179.5136	1218.876	1253.9947	1272.0799	1300.4359	1336.2738	1350.8389	1397.4818	1410.4822	1430.7493	1462.1728	1486.6299	1498.8171	1508.4974	1530.3423	1804.2343	2930.6473	3033.499	3036.6026	3084.6268	3103.7353	3113.5496	3114.7461	3135.158	3187.6859	3619.3071	3804.9426
CCC1C(O)C1NC=O	CC[C@H]1[C@@H](O)[C@H]1NC=O	
InChI=1S/C6H11NO2/c1-2-4-5(6(4)9)7-3-8/h3-6,9H,2H2,1H3,(H,7,8)	InChI=1S/C6H11NO2/c1-2-4-5(6(4)9)7-3-8/h3-6,9H,2H2,1H3,(H,7,8)/t4-,5+,6-/m1/s1
