17
gdb 75167	3.18409	1.3522	0.9604	5.3624	79.62	-0.2376	-0.0352	0.2024	1198.9447	0.136157	-418.059844	-418.051114	-418.05017	-418.093651	31.208	
C	-0.0569079868	 1.5212747563	 0.0222164978	-0.484679
C	-0.0398913309	 0.0314023876	-0.0188417158	 0.219216
C	-1.0382493058	-0.8482850861	-0.129153635	-0.209995
C	-0.5197852687	-2.2556590833	-0.1254578049	-0.225548
N	 0.9203866036	-2.0783503682	 0.0024361724	-0.118853
C	 1.7680863624	-3.1762793542	 0.0431769023	 0.087347
N	 3.0296515913	-3.1049546937	 0.1530052651	-0.417831
C	 1.2570849552	-0.7083265923	 0.070545521	 0.375573
O	 2.3586441312	-0.2311252502	 0.1783322292	-0.343071
H	 0.5463305225	 1.9330366839	-0.793884466	 0.149555
H	-1.0725416989	 1.9164995195	-0.0534501772	 0.121593
H	 0.3972495379	 1.883264055	 0.9507245048	 0.149552
H	-2.0949083779	-0.6278166576	-0.2128031726	 0.117368
H	-0.9277318671	-2.8406362929	 0.7110995965	 0.133021
H	-0.7775107819	-2.7899390345	-1.0509710823	 0.133024
H	 1.1931869203	-4.1096331579	-0.0328679948	 0.086658
H	 3.4234227137	-4.0446590014	 0.1594987694	 0.22707
73.3772	108.1182	134.3854	196.3123	207.5167	264.212	271.652	407.3014	463.7501	516.6679	607.822	726.3608	750.1658	763.0971	813.512	844.6952	952.5496	1006.4765	1018.4716	1042.6169	1063.9647	1068.0161	1139.1387	1197.4035	1225.5651	1248.999	1310.4333	1339.8563	1411.4334	1418.2781	1436.5309	1470.9608	1482.425	1497.7021	1714.5646	1723.1161	1833.4568	2998.7119	3016.4517	3025.7534	3039.9471	3095.2235	3126.8211	3215.0422	3497.2937
CC1=CCN(C=N)C1=O	CC1=CCN([CH][NH])C1=O	
InChI=1S/C6H8N2O/c1-5-2-3-8(4-7)6(5)9/h2,4,7H,3H2,1H3	InChI=1S/C6H8N2O/c1-5-2-3-8(4-7)6(5)9/h2,4,7H,3H2,1H3
