18
gdb 16966	3.3241	2.24374	2.04852	1.2458	66.44	-0.2388	0.0918	0.3306	774.841	0.156099	-384.946763	-384.940211	-384.939267	-384.977107	26.51	
C	-0.1704337336	 1.5444049799	-0.0172205836	-0.406215
C	 0.018423361	 0.0380905116	 0.0230542358	 0.143912
O	 0.8135528279	-0.4092503478	-1.1094617896	-0.304417
C	 1.9063912844	-1.1591375467	-0.5605452957	 0.080574
C	 2.8362559068	-0.1656275319	 0.1457819478	-0.080963
O	 2.0619067837	 0.225647635	 1.301918094	-0.281484
C	 0.8320817465	-0.5089476192	 1.2130127955	 0.069002
C	 1.2760849851	-1.8660788605	 0.6492106971	-0.244225
H	 0.7791705525	 2.056344619	 0.1517502231	 0.133706
H	-0.5711098058	 1.8459859123	-0.9888375349	 0.123275
H	-0.8777020194	 1.8598681977	 0.7575929373	 0.109755
H	-0.9612443822	-0.4610809156	-0.023556586	 0.071339
H	 2.3587293238	-1.7624707413	-1.3470703247	 0.082681
H	 3.7857327973	-0.6120569106	 0.4694537276	 0.097092
H	 3.0397898816	 0.7067800434	-0.4836022445	 0.108128
H	 0.3328047101	-0.4791515403	 2.1811616179	 0.081167
H	 0.4552727229	-2.5287298877	 0.3698843021	 0.109287
H	 1.9893941974	-2.3817407474	 1.2947848211	 0.107387
157.9072	221.5203	268.3893	353.8429	435.7177	470.166	521.2162	612.5839	770.3954	808.8147	827.1817	845.7503	895.145	912.7894	938.2431	961.6395	971.3886	1003.5142	1035.422	1059.0808	1071.9674	1117.137	1141.193	1153.6855	1198.4693	1224.3742	1267.2608	1293.8384	1310.439	1313.7929	1353.7052	1378.4526	1386.3805	1408.3913	1480.0129	1487.8165	1496.4199	1515.5253	2986.5941	3015.2468	3043.0083	3075.526	3079.9185	3110.725	3126.7564	3131.6644	3138.416	3141.9515
CC1OC2COC1C2	C[C@H]1O[C@H]2CO[C@@H]1C2	
InChI=1S/C6H10O2/c1-4-6-2-5(8-4)3-7-6/h4-6H,2-3H2,1H3	InChI=1S/C6H10O2/c1-4-6-2-5(8-4)3-7-6/h4-6H,2-3H2,1H3/t4-,5-,6-/m1/s1
