18
gdb 36515	4.03839	1.01074	0.85045	5.1558	78.71	-0.2629	0.0015	0.2643	1332.1051	0.148814	-401.970906	-401.962653	-401.961709	-402.00432	30.76	
N	-0.0536254107	-1.1737658847	-0.0840157351	-0.307715
C	-0.0230328454	-0.0190426845	-0.0785959237	 0.273967
C	 0.0038155945	 1.4415705527	-0.0465839209	-0.358811
C	 1.4353916665	 2.0096068689	 0.010389312	 0.093532
O	 2.0729427641	 1.5931547978	-1.1798151146	-0.259484
C	 3.298422583	 2.2677314699	-1.4245340692	-0.077671
C	 3.0576700753	 3.7569017653	-1.6782602023	-0.258953
C	 2.137401484	 4.3078832861	-0.6215559843	-0.070331
C	 1.4166293662	 3.5105416154	 0.1632719416	-0.079334
H	-0.4934518684	 1.8323970769	-0.9401062156	 0.160819
H	-0.561997703	 1.78356011	 0.8263949889	 0.148904
H	 1.9437953407	 1.5609874009	 0.8837435535	 0.094737
H	 3.9794050861	 2.1389405752	-0.5683765668	 0.097855
H	 3.7462849751	 1.7748412129	-2.290832775	 0.115996
H	 4.0132519429	 4.2958407863	-1.6714948249	 0.110301
H	 2.6250995768	 3.9089864381	-2.6762800464	 0.121895
H	 2.0861168734	 5.3865820042	-0.5001870009	 0.098768
H	 0.7891773892	 3.9127213584	 0.9545436839	 0.095526
66.0411	90.4235	146.8072	277.7489	279.43	350.7966	392.8474	421.071	491.0771	557.6955	581.0226	686.023	784.5581	822.0626	886.4973	933.8415	937.8146	979.512	1000.7195	1002.4631	1063.8798	1077.163	1101.445	1120.751	1207.8786	1227.011	1242.9896	1287.4303	1302.6196	1352.14	1364.2967	1370.7386	1400.7243	1427.5931	1452.5016	1469.7631	1501.2569	1723.0009	2367.1292	2932.885	2984.1651	3019.3691	3054.8519	3055.2686	3099.5603	3100.7403	3151.8596	3174.2306
N#CCC1OCCC=C1	N#CC[C@H]1OCCC=C1	
InChI=1S/C7H9NO/c8-5-4-7-3-1-2-6-9-7/h1,3,7H,2,4,6H2	InChI=1S/C7H9NO/c8-5-4-7-3-1-2-6-9-7/h1,3,7H,2,4,6H2/t7-/m0/s1
