20
gdb 100906	2.09818	1.24677	0.91391	3.7201	76.8	-0.2643	0.0205	0.2848	1368.0244	0.167324	-440.273212	-440.262238	-440.261293	-440.309886	37.478	
C	-0.0341677097	 1.3401588234	 0.1092449604	-0.23605
O	-0.0264615591	-0.064124146	-0.0237736726	-0.240255
C	 0.6970344186	-0.5487954692	-1.1348230956	 0.118062
C	 2.2022486712	-0.6188721423	-0.8702786998	-0.413325
C	 0.1229687643	-1.9385704056	-1.4688784123	-0.024071
O	 0.4106434073	-2.8220256281	-0.4172054117	-0.230506
C	 0.1019726866	-4.1768268443	-0.6933432526	-0.246887
C	-1.3340708033	-1.8477832345	-1.7275349054	 0.283391
N	-2.4653413221	-1.8112470841	-1.9585948254	-0.329982
H	 0.9655608953	 1.7490162054	 0.3151922323	 0.108468
H	-0.4322972326	 1.8292464148	-0.7928297567	 0.111864
H	-0.6859139639	 1.5744669754	 0.9536380001	 0.137157
H	 0.5023559736	 0.0874311541	-2.0142944627	 0.08085
H	 2.734515218	-0.9996496476	-1.7480624529	 0.114985
H	 2.5970290406	 0.3759383088	-0.6490307704	 0.122101
H	 2.40105588	-1.2771503908	-0.0231398589	 0.149811
H	 0.5937658131	-2.2848411242	-2.4052129555	 0.106978
H	 0.6518661117	-4.540966269	-1.5743345428	 0.110321
H	 0.4078287609	-4.7514722946	 0.1826447063	 0.139371
H	-0.9731501904	-4.3212672315	-0.8626509038	 0.137717
61.7768	70.414	98.0461	130.8345	178.3394	184.2147	201.8534	218.6021	256.2409	313.5971	341.3921	358.1893	422.8773	512.1491	601.4982	706.6985	817.3231	899.4384	956.4826	985.3572	1049.2876	1105.9857	1131.1537	1142.1985	1183.1185	1183.5277	1186.9789	1215.1921	1233.1299	1317.6436	1360.3251	1372.0667	1384.2992	1404.3493	1478.1492	1481.202	1483.7066	1489.1395	1495.2172	1498.6388	1508.2528	1510.6781	2356.5658	2959.8309	2970.9002	2983.3821	2989.1788	3033.0726	3049.8733	3053.5077	3115.3922	3122.8157	3133.3872	3149.1847
COC(C)C(OC)C#N	CO[C@@H](C)[C@@H](OC)C#N	
InChI=1S/C6H11NO2/c1-5(8-2)6(4-7)9-3/h5-6H,1-3H3	InChI=1S/C6H11NO2/c1-5(8-2)6(4-7)9-3/h5-6H,1-3H3/t5-,6-/m0/s1
