23
gdb 112614	3.64801	0.84227	0.80714	1.6218	82.83	-0.2435	0.0694	0.3129	1566.8325	0.203243	-425.411431	-425.400985	-425.400041	-425.446801	38.846	
C	-0.1255882224	 1.6313548513	-0.0939759349	-0.409562
C	-0.1149005672	 0.0992933684	-0.1128585465	-0.21622
C	 0.7629657632	-0.5070094826	-1.2148032287	 0.412607
O	 0.3319690508	-0.1053760028	-2.5032404849	-0.482278
C	 2.2995815562	-0.4081449237	-0.9396731894	-0.326163
C	 2.273316064	-1.8691267903	-0.4525997219	 0.163382
C	 0.8813307932	-2.0490250725	-1.1261953958	-0.303681
O	 3.3479598059	-2.6374298476	-0.9246232325	-0.237408
C	 3.2826455162	-3.9872080804	-0.5247621398	-0.240277
H	 0.8828248366	 2.0430657304	 0.024541352	 0.120303
H	-0.553349127	 2.0410569587	-1.0158982038	 0.11292
H	-0.7344152212	 2.007816503	 0.7330647374	 0.120626
H	 0.2277463031	-0.2763754126	 0.8594510935	 0.096116
H	-1.1369840637	-0.2738278442	-0.2522663068	 0.102915
H	 0.4128631314	 0.8523278502	-2.5644499614	 0.275479
H	 2.8480032033	-0.344782391	-1.8822627367	 0.115369
H	 2.6620526085	 0.3551035671	-0.2468945834	 0.092399
H	 2.2061088372	-1.9470068359	 0.6440257095	 0.058873
H	 0.0978446106	-2.5829493755	-0.5828886514	 0.091946
H	 0.9938836836	-2.4689887655	-2.1285993608	 0.116649
H	 3.2866621634	-4.0877858463	 0.5725550402	 0.101273
H	 2.3827685695	-4.4886953567	-0.9116183712	 0.108833
H	 4.1652186947	-4.4898391013	-0.9277629227	 0.125898
63.6971	105.3375	113.503	169.1714	208.1391	238.5557	261.345	264.1069	320.4971	345.1795	394.7649	452.5374	477.1311	504.0753	619.478	729.0121	783.0134	830.0897	866.5208	923.2952	960.5921	1001.0814	1007.5866	1018.5736	1048.0634	1062.5143	1110.7956	1140.38	1167.6074	1185.9599	1192.2033	1216.1706	1245.2667	1265.4289	1281.3341	1294.5615	1321.5172	1335.0281	1386.9282	1394.8512	1410.831	1456.9473	1476.9528	1478.9927	1486.5795	1491.9756	1501.216	1510.2315	1511.1554	2967.6701	2975.9631	3020.9352	3023.1462	3030.361	3059.543	3060.4034	3065.7634	3095.2012	3106.2895	3113.8221	3125.7674	3128.6065	3809.1503
CCC1(O)CC(C1)OC	CC[C@@]1(O)C[C@@H](C1)OC	
InChI=1S/C7H14O2/c1-3-7(8)4-6(5-7)9-2/h6,8H,3-5H2,1-2H3	InChI=1S/C7H14O2/c1-3-7(8)4-6(5-7)9-2/h6,8H,3-5H2,1-2H3/t6-,7+
