19
gdb 89967	3.31234	1.16266	1.01866	3.2378	76.09	-0.2395	-0.0299	0.2096	1231.2624	0.158038	-423.012644	-423.003734	-423.00279	-423.047047	32.211	
C	-0.9249217286	 1.1586616749	 0.2500025891	-0.40776
C	 0.0247241904	-0.0037164886	-0.0070411723	-0.087906
C	 0.9238265209	-0.0250553236	-1.2892657631	-0.347662
C	 2.1680717889	-0.3799112232	-0.4334528451	 0.175692
C	 2.8820985324	-1.752351904	-0.5409999174	-0.118132
O	 4.1691769308	-1.1304016744	-0.6846959957	-0.269171
C	 3.5876061482	 0.1864823878	-0.6168504264	-0.132248
C	 1.3277319211	-0.0633897416	 0.8086512467	 0.336091
O	 1.6092856276	 0.1700786703	 1.9496625016	-0.304801
H	-0.4113286507	 2.1186966853	 0.1334435186	 0.121368
H	-1.7696217855	 1.1398499818	-0.4455682825	 0.122221
H	-1.3196438247	 1.1133273679	 1.2692421513	 0.138082
H	-0.504691048	-0.9593284671	 0.103160346	 0.106169
H	 0.6521966601	-0.7497283674	-2.0596845611	 0.109901
H	 1.0082539076	 0.9643464378	-1.7490502716	 0.112543
H	 2.8278858478	-2.388365407	 0.3511364087	 0.115712
H	 2.6005092075	-2.3383657314	-1.4261966624	 0.104288
H	 3.7434492382	 0.7582570932	-1.540815227	 0.10417
H	 3.9625508561	 0.7585877495	 0.2405068927	 0.121442
48.0294	79.0687	155.6616	194.5714	209.5873	251.4513	273.9377	344.7406	453.8047	535.0202	690.6491	706.6347	775.149	846.1667	858.9757	897.5209	932.7911	949.3613	954.8108	995.0504	1048.879	1075.2157	1115.5602	1147.9006	1160.1342	1163.9816	1168.351	1205.2467	1218.0611	1241.1137	1291.0402	1308.6123	1332.9312	1371.8636	1407.574	1481.7038	1494.6459	1495.987	1501.5788	1526.2607	1879.3698	2999.946	3012.5861	3026.7169	3036.6401	3053.0985	3057.1239	3060.6459	3105.0194	3113.7068	3116.1111
CC1CC2(COC2)C1=O	C[C@H]1CC2(COC2)C1=O	
InChI=1S/C7H10O2/c1-5-2-7(6(5)8)3-9-4-7/h5H,2-4H2,1H3	InChI=1S/C7H10O2/c1-5-2-7(6(5)8)3-9-4-7/h5H,2-4H2,1H3/t5-/m0/s1
