23
gdb 121124	3.12822	0.897	0.85562	1.0226	82.36	-0.2448	0.0702	0.315	1504.3236	0.206045	-425.429541	-425.419702	-425.418758	-425.464949	36.312	
C	-0.2291617453	 1.3465756234	-0.42782512	-0.224398
O	-0.0982309725	-0.0328081646	-0.1922700937	-0.234868
C	 0.6838175811	-0.6863571835	-1.1714096993	-0.069792
C	 0.71866473	-2.1775298782	-0.856555827	 0.017566
C	-0.7003286439	-2.8198453438	-0.8880392049	-0.196982
C	-0.559081144	-4.0887455311	-1.7508497221	-0.240141
C	 0.5364420976	-3.7234464921	-2.7607580917	 0.136628
O	 0.0618756913	-2.8038875632	-3.7460441734	-0.439725
C	 1.555946826	-2.9662105975	-1.9038305593	-0.239898
H	 0.7463053632	 1.8597855048	-0.4168223148	 0.099623
H	-0.7094913744	 1.5535660178	-1.3977747305	 0.101379
H	-0.852128508	 1.7602580724	 0.3695444951	 0.122135
H	 0.2582169879	-0.5321739777	-2.1769377741	 0.101303
H	 1.7072586989	-0.2717075991	-1.1788889796	 0.077748
H	 1.1598156271	-2.2910188808	 0.1387472587	 0.072733
H	-1.0810062424	-3.0349893095	 0.1127578926	 0.097648
H	-1.4060939295	-2.1246531848	-1.350966658	 0.106306
H	-0.217183638	-4.9382977835	-1.1465652023	 0.095687
H	-1.4944674761	-4.3953687212	-2.2332682775	 0.082185
H	 0.9757671736	-4.6060845526	-3.2476201337	 0.054986
H	-0.7029610849	-3.1991962899	-4.1765136595	 0.279417
H	 2.1822451287	-2.3211400405	-2.526965586	 0.105158
H	 2.2157206036	-3.6850749149	-1.4084439991	 0.095302
44.3688	93.0332	115.3688	148.2717	189.2218	238.6098	315.6937	332.1888	385.0298	391.8071	404.1871	472.6823	639.974	755.5223	798.0003	851.7799	858.1118	889.5932	941.7634	968.2288	1002.1591	1013.5383	1025.8639	1035.2941	1081.8835	1119.6874	1159.1348	1179.9329	1191.4382	1206.8266	1210.1295	1229.9674	1248.9065	1275.6699	1294.8714	1319.4134	1322.5082	1343.7992	1368.9463	1374.8793	1417.8098	1420.9758	1476.3335	1479.9725	1485.3323	1487.0041	1499.5837	1505.8998	1533.5048	2945.1687	2966.1152	2988.0896	2993.0222	3006.2289	3028.937	3047.0416	3059.5566	3061.1128	3072.419	3098.8874	3107.6338	3110.0405	3814.4247
COCC1CCC(O)C1	COC[C@H]1CC[C@@H](O)C1	
InChI=1S/C7H14O2/c1-9-5-6-2-3-7(8)4-6/h6-8H,2-5H2,1H3	InChI=1S/C7H14O2/c1-9-5-6-2-3-7(8)4-6/h6-8H,2-5H2,1H3/t6-,7+/m0/s1
