18
gdb 26524	2.26429	1.80471	1.01701	6.4407	83.11	-0.2076	-0.0069	0.2007	1150.1196	0.148187	-402.023612	-402.014599	-402.013655	-402.058763	32.759	
C	 0.0881126453	 1.5306368912	-0.0614839359	-0.496297
C	-0.0259884395	 0.0315427185	-0.0282988103	 0.298921
C	-1.1952650379	-0.6643767777	 0.0493461373	 0.064989
C	-2.5433103105	 0.0067892854	 0.1243607507	-0.508848
C	-1.1900945154	-2.1433596418	 0.0585998084	 0.332583
O	-2.2237802082	-2.8078305575	 0.1296494074	-0.404744
C	 0.1325722232	-2.754028614	-0.0241253579	-0.244568
C	 1.2517519964	-2.0012168912	-0.1000742909	 0.01752
N	 1.1782163939	-0.6373321359	-0.1020500487	-0.378683
H	 0.8649035005	 1.8819337871	 0.628113857	 0.129498
H	 0.3535877477	 1.885388793	-1.0652331963	 0.14224
H	-0.8513135128	 2.0033424271	 0.2213925781	 0.152409
H	-2.7421462972	 0.6411839711	-0.7464850077	 0.118049
H	-3.3035403722	-0.775156755	 0.1635198873	 0.161554
H	-2.6472386741	 0.6321957544	 1.0186484454	 0.119529
H	 0.1928039154	-3.8349696288	-0.0222937982	 0.108781
H	 2.2511090835	-2.4162233826	-0.16099079	 0.129261
H	 2.0263051419	-0.0980222335	-0.153350696	 0.257805
18.0651	76.3527	120.9272	188.0089	276.0373	312.2358	345.1501	442.6411	481.6994	511.8009	524.1789	548.6714	576.6809	670.2589	751.4251	833.7246	848.8889	914.796	953.3666	991.5773	1042.0747	1070.088	1084.9905	1130.6481	1174.5832	1210.7477	1263.1737	1344.0171	1395.3787	1416.3556	1424.1769	1475.103	1485.2073	1491.109	1510.1044	1544.4343	1639.6857	1678.8845	1710.4066	3025.5674	3026.3211	3074.7531	3077.2666	3137.8441	3158.7848	3195.1004	3220.3459	3653.01	18.0831	76.3608	120.9274	188.0089	276.0374	312.2358	345.1499	442.6409	481.6994	511.801	524.179	548.6713	576.6811	670.2589	751.4254	833.7248	848.8889	914.7959	953.3672	991.5771	1042.0744	1070.0877	1084.9903	1130.6479	1174.5834	1210.7477	1263.1738	1344.017	1395.378	1416.3553	1424.1772	1475.1023	1485.2067	1491.1082	1510.1033	1544.4342	1639.6858	1678.8844	1710.4064	3025.5674	3026.3211	3074.7531	3077.2666	3137.8441	3158.7848	3195.1005	3220.346	3653.0099
CC1=C(C)C(=O)C=CN1	Cc1c(C)c(=O)cc[nH]1	
InChI=1S/C7H9NO/c1-5-6(2)8-4-3-7(5)9/h3-4H,1-2H3,(H,8,9)	InChI=1S/C7H9NO/c1-5-6(2)8-4-3-7(5)9/h3-4H,1-2H3,(H,8,9)
