19
gdb 122731	9.47057	0.39802	0.38561	1.6405	95.34	-0.2405	-0.0093	0.2312	2674.6721	0.156143	-385.836206	-385.825417	-385.824473	-385.873332	37.518	
O	-0.0952871811	 1.4882341795	 0.0109558458	-0.42101
C	 0.0269503897	 0.0740820731	 0.0023533368	-0.082359
C	-1.3775296219	-0.5156275405	 0.0124055514	-0.160194
C	-1.3777168684	-2.0455388407	 0.0043660171	-0.180225
C	-2.8087392114	-2.6254621852	 0.0145964808	-0.398615
C	-2.8371572314	-4.0795270247	 0.0071798852	 0.335266
C	-2.8372226175	-5.290062192	 0.000974994	-0.189115
C	-2.8381529595	-6.6509834392	-0.0063533612	 0.287915
C	-2.8399760579	-7.8587827406	-0.0130693373	-0.557567
H	 0.7883115914	 1.8676047588	 0.0046469543	 0.286685
H	 0.5703073366	-0.2743715292	-0.8914520767	 0.086601
H	 0.586950389	-0.2837214996	 0.8820814375	 0.0866
H	-1.9043943305	-0.1406022023	 0.8986546403	 0.107973
H	-1.9208448547	-0.1313746573	-0.8598475724	 0.107972
H	-0.8507775539	-2.4211110756	-0.8806220213	 0.112977
H	-0.8344713171	-2.4303236611	 0.8754268528	 0.112979
H	-3.3456014418	-2.2558941925	 0.8987360622	 0.137928
H	-3.3618961534	-2.2466954517	-0.8555025213	 0.137921
H	-2.8411855264	-8.9201359691	-0.018808388	 0.18827
44.3728	51.9279	90.8593	124.6138	149.1306	170.349	226.7657	264.8488	330.0101	358.6255	412.5287	499.6107	531.843	539.2801	588.5315	593.2906	738.6824	740.1675	795.2574	921.9339	989.355	1036.6105	1055.2905	1086.6003	1124.0751	1177.586	1203.628	1223.2243	1275.4739	1287.0371	1315.5804	1321.8826	1344.732	1390.1807	1460.9644	1466.7278	1489.2376	1503.5592	1528.7537	2181.3775	2363.967	2957.9677	2983.2101	3010.7501	3025.9737	3038.0812	3039.0878	3060.7949	3086.4496	3507.6712	3830.3139
OCCCCC#CC#C	OCCCCC#CC#C	
InChI=1S/C8H10O/c1-2-3-4-5-6-7-8-9/h1,9H,5-8H2	InChI=1S/C8H10O/c1-2-3-4-5-6-7-8-9/h1,9H,5-8H2
