20
gdb 103848	4.12859	0.94111	0.87863	1.7108	75.22	-0.2476	0.0711	0.3187	1374.7899	0.169981	-440.234737	-440.22526	-440.224316	-440.269221	34.967	
C	 0.0224153916	 1.5926930022	 0.0667598225	-0.474881
C	-0.1536480622	 0.0991366028	 0.211946398	 0.34577
C	-1.3183156391	-0.4950209974	-0.5614900068	-0.109883
O	-1.1317372982	-0.3497423019	-1.9586457605	-0.415561
O	 1.0421523148	-0.7145581861	 0.0554835526	-0.306526
C	 0.4056961696	-0.6689401184	 1.3393806468	-0.0296
C	 1.2097570937	-0.061595656	 2.4526355347	-0.041591
C	 2.526085689	-0.6555714539	 2.7989967483	-0.238262
N	 2.4479474361	 0.6653902814	 2.1500585878	-0.313915
H	 0.9047258431	 1.9582539637	 0.5917886374	 0.14851
H	 0.0955100124	 1.8504099275	-0.9934919519	 0.138988
H	-0.8551701973	 2.1080958507	 0.4725734815	 0.123969
H	-1.4436149748	-1.5514390015	-0.2816294702	 0.090591
H	-2.2467565872	 0.0327014534	-0.3182419937	 0.112331
H	-0.3043947692	-0.7975806702	-2.1708694763	 0.293256
H	-0.108276054	-1.5938284328	 1.6125610524	 0.092423
H	 0.6114207586	 0.3759755254	 3.2498753902	 0.100728
H	 2.8735801806	-0.6471056238	 3.8278966181	 0.120019
H	 2.8696653523	-1.4979008986	 2.2040620095	 0.120745
H	 2.6374757603	 0.5378165637	 1.1566716398	 0.242887
68.2933	102.6709	134.8609	165.8629	197.3903	255.62	300.1368	344.8486	370.459	413.3345	444.8054	618.725	640.1643	714.1112	791.5409	850.0544	860.1591	916.1412	938.3891	951.1824	998.5376	1008.4329	1054.5298	1089.038	1103.0478	1124.5029	1137.74	1148.0998	1190.6884	1210.0918	1268.225	1285.1537	1309.5821	1333.6817	1387.0087	1404.563	1419.5513	1427.4505	1465.9129	1486.614	1495.4998	1508.5655	1508.6811	2994.6514	3046.5094	3075.4063	3077.4993	3109.4915	3110.3126	3124.0041	3157.5575	3198.3396	3479.1385	3796.2334
CC1(CO)OC1C1CN1	C[C@@]1(CO)O[C@H]1[C@H]1CN1	
InChI=1S/C6H11NO2/c1-6(3-8)5(9-6)4-2-7-4/h4-5,7-8H,2-3H2,1H3	InChI=1S/C6H11NO2/c1-6(3-8)5(9-6)4-2-7-4/h4-5,7-8H,2-3H2,1H3/t4-,5+,6+/m1/s1
