24
gdb 62939	1.83575	1.78251	1.47369	1.5361	88.46	-0.2244	0.0852	0.3096	1122.8489	0.215755	-368.379106	-368.369255	-368.368311	-368.41242	39.407	
C	-0.0502749971	 1.5466311917	-0.1228944242	-0.441437
C	-0.0155537607	 0.0205597883	-0.0322192898	 0.278934
C	-1.4128755941	-0.5486427657	-0.292365662	-0.449453
C	 1.0434534232	-0.6662671211	-0.9188460061	-0.07901
N	 2.373362188	-0.1472956899	-0.5191925879	-0.35664
C	 1.7443198996	-1.2457397475	 0.2524935368	-0.07904
C	 0.7498920709	-0.6126943078	 1.2473611	 0.278917
C	 1.3619371877	 0.3781433915	 2.2382871866	-0.441413
C	-0.0395202665	-1.6848948743	 2.0032808537	-0.449432
H	 0.9539890193	 1.9692469737	-0.0728043092	 0.136041
H	-0.5013738584	 1.8598197794	-1.0718707884	 0.101371
H	-0.6528198471	 1.9789272352	 0.6840130846	 0.105345
H	-1.7989470687	-0.1580652497	-1.2410053143	 0.108407
H	-1.4179310744	-1.6393758949	-0.3639516142	 0.111081
H	-2.1188171694	-0.2576717192	 0.4925326774	 0.113801
H	 0.8865794135	-1.0791120109	-1.9097859072	 0.080389
H	 3.061437304	-0.5710689824	-1.1406220425	 0.225705
H	 2.2449318975	-2.2021746102	 0.3603539789	 0.080391
H	 2.0360761848	 1.0739656323	 1.7372716761	 0.13602
H	 0.5856992606	 0.9535287589	 2.7554208709	 0.105339
H	 1.9367708116	-0.1570641137	 3.0033070602	 0.101376
H	 0.5991154196	-2.1419320743	 2.7679899965	 0.108408
H	-0.9088729762	-1.2590761744	 2.5151265309	 0.113814
H	-0.3914684679	-2.488491245	 1.3511939034	 0.111085
117.7405	196.1644	223.0129	234.3167	254.5657	266.689	277.8925	303.6062	325.433	327.1829	391.464	448.3274	502.1166	549.016	605.0657	644.2063	801.982	836.97	844.6741	860.9089	933.6384	944.9705	955.7109	960.6132	980.2664	1006.8835	1014.7018	1046.0668	1086.3721	1105.2042	1169.8521	1176.227	1185.9574	1230.2827	1240.7448	1263.7947	1306.9822	1333.2364	1379.1738	1391.7514	1401.5105	1408.0937	1428.8161	1473.6877	1480.5871	1489.2427	1490.0099	1503.6351	1503.9649	1511.0448	1527.2473	3023.8801	3027.2639	3028.3352	3034.9902	3079.2073	3083.9693	3088.1108	3092.6409	3103.0888	3117.852	3134.0247	3143.7587	3159.2516	3173.3876	3474.3397
CC1(C)C2NC2C1(C)C	CC1(C)[C@H]2N[C@H]2C1(C)C	
InChI=1S/C8H15N/c1-7(2)5-6(9-5)8(7,3)4/h5-6,9H,1-4H3	InChI=1S/C8H15N/c1-7(2)5-6(9-5)8(7,3)4/h5-6,9H,1-4H3/t5-,6+
