19
gdb 40737	3.59985	1.16035	1.09153	2.6407	74.14	-0.259	0.0878	0.3468	1168.9335	0.160388	-422.997079	-422.989407	-422.988462	-423.029624	29.717	
C	-0.0831358719	 1.2658803757	-0.2817834368	-0.189842
O	 0.8243900834	 0.1865134534	-0.5143322181	-0.245777
C	-0.420391689	-0.1020987242	 0.1308115452	 0.092359
C	-0.3318570857	-0.5449159902	 1.5757540924	-0.031914
C	-1.7116975108	-0.4567237277	 2.2941362918	-0.266354
C	-2.2676327282	-1.8646093149	 2.2400978239	 0.055728
O	-2.2142752781	-2.4496439974	 0.9296121984	-0.254655
C	-1.1953745279	-2.8002935342	 1.8813414635	 0.054526
C	 0.0986697087	-2.0373958631	 1.694668627	-0.262417
H	 0.2367041992	 1.9902673273	 0.4671977829	 0.107788
H	-0.5393408874	 1.6950641838	-1.1728781305	 0.113597
H	-1.1200026079	-0.6685997909	-0.4822242932	 0.112593
H	 0.4028229059	 0.0998221822	 2.0663278994	 0.07862
H	-1.5905387875	-0.1600092059	 3.3425690251	 0.105057
H	-2.3768331275	 0.2748042549	 1.8234103414	 0.112144
H	-3.1275129149	-2.1499833451	 2.8409316431	 0.093947
H	-1.1924230108	-3.8420958533	 2.191885217	 0.0942
H	 0.6690728017	-2.3662124065	 0.8208371137	 0.127247
H	 0.7326599088	-2.194165364	 2.5754269235	 0.103151
79.5738	117.4358	183.7667	316.4115	324.2445	335.3468	413.6155	485.915	671.6886	761.9263	779.4874	820.6698	858.5027	861.5091	897.5701	914.2858	925.7415	957.7221	981.3382	1004.3812	1035.2727	1058.017	1101.3166	1118.143	1142.5379	1158.6658	1187.9286	1194.204	1220.5743	1243.7452	1271.1104	1293.8395	1310.7593	1316.1149	1329.8049	1351.7659	1441.4325	1450.1293	1477.8164	1488.9373	1529.6387	3038.1305	3040.329	3068.0875	3077.9195	3082.2065	3091.6493	3131.6996	3141.4308	3154.1716	3163.8049
C1OC1C1CC2OC2C1	C1O[C@H]1[C@H]1C[C@H]2O[C@H]2C1	
InChI=1S/C7H10O2/c1-4(7-3-8-7)2-6-5(1)9-6/h4-7H,1-3H2	InChI=1S/C7H10O2/c1-4(7-3-8-7)2-6-5(1)9-6/h4-7H,1-3H2/t4-,5+,6-,7-/m1/s1
