14
gdb 61352	3.20194	0.93659	0.81004	4.2615	70.87	-0.2915	-0.0728	0.2187	1378.2948	0.097588	-436.679707	-436.670359	-436.669415	-436.714862	32.287	
C	-0.041039963	 1.5520225197	 0.0366857539	-0.403189
C	 0.0074369598	 0.0243093193	 0.0058261979	-0.072401
O	-1.3615760257	-0.5027533146	 0.0855181504	-0.233355
C	-1.8406923242	-0.700848635	 1.3118131311	 0.375506
O	-1.2871033747	-0.489881124	 2.357036532	-0.335311
C	-3.2045649566	-1.2397109215	 1.2309544924	 0.258544
N	-4.2799358979	-1.6602219953	 1.2268196288	-0.302203
C	 0.592741867	-0.507981334	-1.2146313432	 0.330499
C	 1.107285538	-0.9180692371	-2.2185002451	-0.424744
H	 0.9728739083	 1.9490069981	-0.0558994333	 0.14523
H	-0.642527655	 1.929412588	-0.7931594342	 0.146753
H	-0.4658003818	 1.8914562305	 0.9839650916	 0.147401
H	 0.5447122853	-0.349246127	 0.8821700282	 0.152669
H	 1.5605484704	-1.290668937	-3.1044061106	 0.214602
43.9963	74.1819	118.5825	181.3982	210.1661	241.2041	297.9169	312.1996	404.0497	467.7079	542.4281	555.121	626.4184	639.506	695.4753	774.8107	835.7497	881.8492	945.4542	1035.6546	1110.0397	1137.5811	1263.3143	1349.2877	1362.4348	1404.0304	1487.8311	1492.1106	1810.9508	2250.5054	2362.197	3057.1699	3079.224	3138.2229	3146.3258	3500.9948
CC(OC(=O)C#N)C#C	C[C@@H](OC(=O)C#N)C#C	
InChI=1S/C6H5NO2/c1-3-5(2)9-6(8)4-7/h1,5H,2H3	InChI=1S/C6H5NO2/c1-3-5(2)9-6(8)4-7/h1,5H,2H3/t5-/m1/s1
