19
gdb 53192	3.01814	1.08662	1.00845	1.3813	84.23	-0.2156	0.0519	0.2675	1297.0784	0.159436	-385.855066	-385.846118	-385.845174	-385.890459	32.162	
C	-0.1154532357	 1.5051372584	 0.0191079876	-0.500705
C	-0.0714467849	 0.0505654131	 0.0638933219	 0.083619
C	-0.0417269953	-1.1547437799	 0.0901869967	 0.093591
C	 0.0276083261	-2.5850652169	 0.1028122342	-0.281961
C	-0.4055812113	-3.4396534148	 1.3048949526	-0.100444
C	-1.3210703804	-2.8030025369	 2.3370847154	-0.252537
C	-2.5283627877	-2.3018148096	 1.5051744911	-0.082724
O	-2.4719113759	-2.9554497021	 0.2287089817	-0.256854
C	-1.2023197848	-3.4942946086	 0.0425384588	 0.10722
H	 0.4603830726	 1.8911555651	-0.8295822592	 0.148491
H	-1.1431256389	 1.870250514	-0.0888936889	 0.147507
H	 0.3008689439	 1.9510530883	 0.9296391416	 0.144153
H	 0.8859975007	-2.9969208321	-0.4239405443	 0.107665
H	 0.2517025901	-4.2438312067	 1.6136425577	 0.093405
H	-1.623625502	-3.5629692681	 3.0639673467	 0.108048
H	-0.8500376967	-1.981089611	 2.8836456981	 0.115262
H	-3.4930824767	-2.546313772	 1.9610693173	 0.103735
H	-2.4744387191	-1.2194427419	 1.3579795275	 0.117756
H	-1.2049710641	-4.3301746983	-0.6479602663	 0.104772
21.4387	84.7322	89.0932	162.1798	219.0338	242.82	355.7012	399.8611	519.2987	590.1009	673.5576	717.8066	743.2586	773.906	844.1611	870.9678	914.7845	960.6874	983.6895	1000.0001	1042.1132	1052.6981	1055.6614	1084.5595	1100.1038	1132.2512	1169.0598	1221.3236	1228.7847	1248.1154	1302.738	1311.4675	1361.0619	1396.6586	1412.8259	1422.0215	1477.4888	1479.7279	1490.1842	1521.3109	2361.1304	3022.5543	3044.6947	3054.6294	3080.5621	3080.9524	3083.7313	3102.6508	3122.7908	3171.2807	3182.0078
CC#CC1C2CCOC12	CC#C[C@H]1[C@H]2CCO[C@@H]12	
InChI=1S/C8H10O/c1-2-3-6-7-4-5-9-8(6)7/h6-8H,4-5H2,1H3	InChI=1S/C8H10O/c1-2-3-6-7-4-5-9-8(6)7/h6-8H,4-5H2,1H3/t6-,7+,8-/m0/s1
