16
gdb 11322	4.21841	1.49668	1.12789	1.0326	69.19	-0.2477	-0.0062	0.2415	1028.2759	0.131438	-379.983207	-379.975305	-379.974361	-380.016603	27.936	
C	-0.0437451469	 1.4202250169	 0.0587560642	-0.342807
N	-0.022086802	-0.0341146117	 0.0419320321	-0.304216
C	 0.5354219444	-0.6152619371	-0.9336894004	 0.412449
C	 0.6394538967	-2.1253286427	-1.0956106383	-0.310503
C	 1.392965727	-2.3423167204	-2.4215479691	-0.344773
C	 1.6864412082	-0.9428988216	-2.9604422871	 0.40948
O	 2.2601232639	-0.6407525755	-3.9766763313	-0.351509
N	 1.1600927029	-0.0432823917	-2.0445739822	-0.364635
H	 0.9682051383	 1.8537900472	 0.0744281821	 0.113973
H	-0.5733698912	 1.8418710977	-0.8096239194	 0.113602
H	-0.5613461996	 1.7647987154	 0.9566987919	 0.131437
H	 1.1638181388	-2.5468442442	-0.2350623159	 0.141263
H	-0.3630321356	-2.5591363725	-1.1008439767	 0.141266
H	 2.3394093171	-2.8761550935	-2.3033109351	 0.144574
H	 0.8125800455	-2.889403218	-3.1689030467	 0.144554
H	 1.2394820326	 0.9501208817	-2.1981067482	 0.265844
36.9434	96.3194	131.404	201.3076	230.3247	435.8139	520.8064	535.0967	596.4706	627.3468	638.0757	663.4256	822.7331	848.4318	917.8026	1000.006	1026.2367	1043.885	1107.5027	1159.3723	1164.5513	1197.6793	1242.8523	1259.4407	1313.8298	1345.9185	1374.0866	1438.829	1463.2243	1485.2291	1494.8365	1510.8567	1779.5097	1853.9433	2972.9754	3021.2943	3073.4384	3081.5546	3107.1565	3107.2078	3124.5046	3642.4514
CN=C1CCC(=O)N1	CN=C1CCC(=O)N1	
InChI=1S/C5H8N2O/c1-6-4-2-3-5(8)7-4/h2-3H2,1H3,(H,6,7,8)	InChI=1S/C5H8N2O/c1-6-4-2-3-5(8)7-4/h2-3H2,1H3,(H,6,7,8)
