21
gdb 70316	2.96345	1.52201	1.24468	1.3055	81.3	-0.2172	0.0721	0.2893	1084.727	0.184899	-383.226276	-383.218433	-383.217489	-383.25811	32.172	
C	 0.0464360969	 1.4921924989	 0.0203108583	-0.455198
C	-0.0850127108	-0.0171323778	-0.0043759914	 0.356018
C	-0.8731897726	-0.7134534941	 1.0498841417	-0.298065
N	 0.5911209502	-0.709116452	 1.1087721554	-0.124615
C	 1.2925523868	-1.95880885	 0.7497054176	-0.179099
C	 2.1769520192	-1.7389687952	-0.4680513845	-0.018838
N	 1.8116942944	-2.4984930783	-1.6821767023	-0.336266
C	 1.5203702492	-1.0540874926	-1.6114837755	-0.019809
C	 0.0631511046	-0.6648165474	-1.3865507438	-0.308775
H	 0.9870793214	 1.8113945361	-0.4439480097	 0.113193
H	-0.7758255053	 1.9652709278	-0.5291307147	 0.110412
H	 0.0385290263	 1.8620981025	 1.0483788959	 0.123864
H	-1.3778230315	-0.149241271	 1.8313581522	 0.105802
H	-1.3675706329	-1.6459765894	 0.7782402117	 0.104081
H	 1.8870507707	-2.2666278274	 1.6156239047	 0.10397
H	 0.595876161	-2.7766309834	 0.5220326969	 0.107373
H	 3.230539332	-1.5467564226	-0.2866724705	 0.086045
H	 2.6414514289	-2.6539418576	-2.2497228889	 0.229044
H	 2.1237761945	-0.3877945282	-2.2219976195	 0.084275
H	-0.5469010294	-1.5683304091	-1.4638967245	 0.116689
H	-0.2839461138	 0.0247947009	-2.1615677589	 0.099899
127.2523	186.9561	220.9452	289.7074	343.3891	389.977	443.4693	459.9788	483.1321	495.3029	615.2351	732.2296	782.9429	820.4979	853.5153	888.9321	902.6429	936.6595	943.6158	966.0843	974.9345	1013.8355	1022.811	1060.8426	1105.4075	1115.7874	1133.6492	1148.2172	1174.8181	1199.2302	1236.4451	1248.2373	1266.2058	1280.4816	1330.6039	1353.4318	1389.3309	1397.2335	1412.487	1448.0176	1479.071	1487.5631	1494.0176	1498.7838	1518.5992	3009.9434	3024.1592	3055.632	3067.1061	3080.0214	3083.5437	3100.7536	3120.2853	3137.7874	3149.7437	3163.5334	3496.1115
CC12CN1CC1NC1C2	C[C@]12CN1C[C@H]1N[C@H]1C2	
InChI=1S/C7H12N2/c1-7-2-5-6(8-5)3-9(7)4-7/h5-6,8H,2-4H2,1H3	InChI=1S/C7H12N2/c1-7-2-5-6(8-5)3-9(7)4-7/h5-6,8H,2-4H2,1H3/t5-,6+,7-,9?/m0/s1
