18
gdb 75718	2.18107	1.59147	1.38836	3.4911	71.78	-0.2209	-0.0203	0.2006	1042.1137	0.146162	-439.053973	-439.045135	-439.044191	-439.087369	33.113	
C	-0.5152145203	 1.3872436118	-0.1051894667	-0.419232
C	-0.0257689272	-0.0505876605	 0.0114222794	-0.183916
C	 1.1977002946	-0.4756377209	-0.8403883181	 0.455958
O	 1.4225136659	-0.4530515351	-2.014612483	-0.310137
C	 1.9815528265	-0.9067394231	 0.4100429926	-0.204595
N	 2.6204110065	 0.3300378943	 0.9556796561	-0.320626
C	 1.6158064199	 0.4378464118	 2.0424366888	-0.231885
C	 0.7263269243	-0.5770387707	 1.2872326439	 0.379549
O	 0.094539761	-1.5867121366	 2.0132210798	-0.476862
H	 0.2916057687	 2.0969390908	 0.0968858838	 0.14046
H	-0.8736274708	 1.5755389795	-1.1215676806	 0.13896
H	-1.3398234094	 1.5922839198	 0.5860616936	 0.111258
H	-0.8396054424	-0.7567652108	-0.2033814956	 0.10711
H	 2.5462674022	-1.8400962013	 0.4501661966	 0.091296
H	 3.5801254342	 0.2094896353	 1.2526080072	 0.233949
H	 1.935946367	 0.0054146599	 2.9990317331	 0.104312
H	 1.2356298801	 1.4513442607	 2.2114436835	 0.100446
H	-0.7554160709	-1.2563768149	 2.3244966257	 0.283954
67.7913	176.6652	184.9942	197.2491	218.4375	247.0355	310.9927	366.5112	433.6378	479.5437	599.8396	623.0785	637.0695	684.5209	779.6926	847.2659	895.0264	974.0532	975.3754	1017.5936	1031.116	1040.1175	1076.4256	1113.2673	1128.6374	1145.3699	1189.1709	1204.016	1218.9498	1268.8317	1304.8098	1328.0177	1370.4309	1390.5119	1405.2427	1490.0812	1498.0294	1516.385	1895.2476	3015.5821	3023.8884	3036.1523	3067.7535	3098.4621	3103.708	3119.2009	3562.5608	3799.5117
CC1C(=O)C2NCC12O	C[C@H]1C(=O)[C@H]2NC[C@@]12O	
InChI=1S/C6H9NO2/c1-3-4(8)5-6(3,9)2-7-5/h3,5,7,9H,2H2,1H3	InChI=1S/C6H9NO2/c1-3-4(8)5-6(3,9)2-7-5/h3,5,7,9H,2H2,1H3/t3-,5+,6+/m0/s1
