17
gdb 54770	2.73282	1.56511	1.18482	6.7504	68.86	-0.2544	0.0096	0.264	1042.9606	0.137359	-455.09	-455.082253	-455.081308	-455.122417	30.135	
N	-0.0489722428	 1.234914743	-0.0246784483	-0.629939
H	 0.1925290499	 0.2560853407	-0.1446293212	 0.246138
H	 1.1408159053	 2.7438018626	 0.7033940645	 0.311765
H	-0.5831334901	 1.5254007722	-0.8388043501	 0.244739
C	-0.7723361326	 1.4682213521	 1.1974178274	 0.248773
C	-2.2317051039	 1.2527458473	 1.6913979813	-0.217963
N	-1.5592044907	 1.9285481638	 2.9003285073	-0.12351
C	-0.3795514887	 0.9803644291	 2.6074944673	-0.208955
C	-0.9078194502	 2.8560195459	 1.8526862711	-0.119107
C	 0.3567190308	 3.6175429817	 2.2296967879	 0.385101
O	 0.4520217389	 4.3562524001	 3.168184823	-0.315674
O	 1.3767860854	 3.4279338421	 1.3629214567	-0.383484
H	-3.025353258	 1.8539566319	 1.2399880582	 0.107677
H	-2.5638824658	 0.2335594931	 1.9033002877	 0.107637
H	-0.5902307412	-0.0609130319	 2.8635675381	 0.104542
H	 0.5697180097	 1.3099309736	 3.0343578882	 0.136609
H	-1.632753986	 3.5519259026	 1.416723021	 0.105651
68.4254	172.5932	202.0149	275.5319	329.395	366.3322	427.6179	507.9968	594.306	625.2779	655.0448	730.1005	773.8634	793.4298	832.1058	861.8376	905.4885	931.3773	950.9665	992.8387	1019.8863	1031.732	1083.7236	1118.3604	1168.3762	1175.0784	1189.4686	1228.6451	1252.777	1303.9828	1320.6422	1375.9789	1410.3574	1512.2273	1557.2232	1641.4547	1875.2623	3053.862	3057.6327	3066.3935	3126.6593	3134.1077	3492.7909	3522.397	3577.8616
[NH3+]C12CN(C1)C2C([O-])=O	N[C@@]12CN(C1)[C@H]2C(=O)O	
InChI=1S/C5H8N2O2/c6-5-1-7(2-5)3(5)4(8)9/h3H,1-2,6H2,(H,8,9)	InChI=1S/C5H8N2O2/c6-5-1-7(2-5)3(5)4(8)9/h3H,1-2,6H2,(H,8,9)/t3-/m0/s1
