18
gdb 72330	2.64288	2.11975	1.6609	1.758	74.92	-0.2504	0.0065	0.2569	884.4978	0.149171	-401.876345	-401.869515	-401.868571	-401.906995	28.652	
C	-0.1358555459	 1.5883145805	-0.1268422332	-0.475814
C	 0.0135763323	 0.0850608242	 0.0012997383	 0.426635
O	-1.3257667141	-0.4349104934	 0.3291276416	-0.292796
C	-1.2201499381	-0.6775679243	 1.6823938302	 0.072311
N	-0.0735193988	-0.7437996955	 2.2516104124	-0.36486
C	 0.7860505292	-0.6582179442	 1.0831478349	 0.318827
C	 2.1074932783	-0.1474635323	 0.4438914374	-0.321894
C	 1.1737133295	-0.6528355934	-0.7507477018	-0.142839
C	 0.8919776843	-1.8930575987	 0.1155862325	-0.255607
H	 0.7856312504	 2.0745107892	-0.4520534369	 0.123719
H	-0.9059424589	 1.799417871	-0.8755012295	 0.134069
H	-0.4585492812	 2.039143505	 0.8174571571	 0.1302
H	-2.1741893164	-0.8159852428	 2.1792065501	 0.136737
H	 2.3273275703	 0.9177984757	 0.508517774	 0.109595
H	 3.0018781461	-0.7516082271	 0.6061468353	 0.109557
H	 1.4232322894	-0.6156775338	-1.8114403205	 0.082484
H	 1.7341004502	-2.5634039747	 0.295028037	 0.096883
H	-0.0305435666	-2.4361693553	-0.0844930791	 0.112792
198.1439	222.045	310.3022	332.333	401.8352	464.4014	530.2903	565.8859	596.1876	643.394	751.5682	788.7033	826.0487	837.3172	895.4556	915.2647	944.573	954.9802	983.5557	999.9181	1016.0881	1058.0515	1069.0517	1119.9976	1128.7283	1151.6046	1170.0309	1182.0122	1211.9919	1228.9474	1261.3616	1297.7402	1322.0981	1410.1054	1483.4404	1490.0262	1502.4297	1536.8131	1600.0773	3041.6039	3079.5927	3082.2482	3103.9199	3112.854	3130.3444	3153.5525	3157.6708	3213.7346
CC12OC=NC11CC2C1	C[C@]12O[CH][N][C@@]31C[C@H]2C3	
InChI=1S/C7H9NO/c1-6-5-2-7(6,3-5)8-4-9-6/h4-5H,2-3H2,1H3	InChI=1S/C7H9NO/c1-6-5-2-7(6,3-5)8-4-9-6/h4-5H,2-3H2,1H3/t5-,6-,7-/m1/s1
