22
gdb 113207	3.26399	0.96965	0.85529	0.8296	83.45	-0.2189	0.0766	0.2955	1434.7782	0.192438	-404.291813	-404.281874	-404.280929	-404.326677	37.228	
C	 0.0959605647	 1.3846730762	-0.4099684744	-0.438602
C	 0.111975166	-0.0665438079	 0.0280308276	 0.306913
C	 1.4387396215	-0.8031040731	 0.0568918398	-0.339615
C	 0.7063538416	-0.4865720999	 1.3459774322	-0.0076
C	 1.2696643935	 0.4697906721	 2.3625898851	-0.114411
O	 2.2089480921	-0.2480791837	 3.1559826193	-0.418655
N	-1.1320540211	-0.7040889856	-0.3677533084	-0.107934
C	-1.1994164028	-1.3116494599	-1.6941625395	-0.221977
C	-1.2397561264	-2.1509429215	-0.4643273103	-0.233911
H	 1.0143391034	 1.9075459931	-0.1342678241	 0.112126
H	-0.0046011492	 1.4440376533	-1.4994549943	 0.11694
H	-0.7560071879	 1.9113123576	 0.0312500889	 0.124113
H	 1.5006572133	-1.8393522954	-0.2555938605	 0.109146
H	 2.3305989263	-0.227166912	-0.1701161974	 0.108338
H	 0.2102658768	-1.3376739046	 1.8061998436	 0.093524
H	 1.7507135649	 1.3252745645	 1.8651434271	 0.081323
H	 0.4550324159	 0.8713280627	 2.9867435493	 0.089406
H	 2.5182545602	 0.3386126489	 3.8526797075	 0.284061
H	-2.1025768034	-1.1144493272	-2.2647532404	 0.113789
H	-0.2822086376	-1.3515863157	-2.2794523236	 0.112095
H	-0.3691591898	-2.7689589092	-0.2573387754	 0.1152
H	-2.178254692	-2.5682951428	-0.109524552	 0.115733
75.1993	79.4768	153.2213	164.4158	214.9062	253.9627	276.0292	284.103	348.3817	356.1662	437.9989	474.4171	576.9138	653.8476	783.0942	836.048	860.3963	879.8017	904.1387	922.918	933.1712	1001.9911	1024.6253	1039.3191	1054.0815	1075.4795	1109.0234	1115.7866	1119.8045	1123.4136	1168.1093	1171.6043	1183.9588	1224.5401	1254.5302	1279.2353	1318.7994	1334.0613	1404.9902	1415.9916	1465.8597	1479.7948	1484.614	1493.942	1510.2243	1519.5373	1523.4886	2967.8765	3000.6686	3036.4624	3095.6091	3097.0153	3106.786	3124.0704	3130.8353	3140.6361	3177.595	3191.7432	3211.6442	3824.1179
CC1(CC1CO)N1CC1	C[C@]1(C[C@H]1CO)N1CC1	
InChI=1S/C7H13NO/c1-7(8-2-3-8)4-6(7)5-9/h6,9H,2-5H2,1H3	InChI=1S/C7H13NO/c1-7(8-2-3-8)4-6(7)5-9/h6,9H,2-5H2,1H3/t6-,7+/m0/s1
