21
gdb 122750	7.2599	0.40268	0.39307	1.615	86.77	-0.2451	0.0352	0.2803	2767.8602	0.179127	-424.183441	-424.171866	-424.170922	-424.223234	38.493	
C	-0.0628819197	 1.4828429335	 0.1119669857	-0.384656
C	-0.1744870108	-0.03063338	 0.1835191859	-0.029732
O	 0.7882525134	-0.5107514761	 1.1004044085	-0.240077
C	 0.7719061366	-1.9111192302	 1.2458071566	-0.043859
C	 1.8514833842	-2.2841522595	 2.2677204104	-0.354062
C	 1.9306328056	-3.7202299719	 2.4983447661	 0.033419
C	 1.970136422	-4.9104764733	 2.6732558095	 0.114994
C	 2.0488950759	-6.3503608912	 2.8800351654	-0.215159
O	 1.0060024441	-6.76910344	 3.7538500187	-0.409597
H	 0.9362892872	 1.7784864742	-0.2203507932	 0.126346
H	-0.7971348805	 1.8866229516	-0.5914645334	 0.114698
H	-0.2420384701	 1.9273638424	 1.0950429673	 0.127028
H	-1.1866285064	-0.3300519167	 0.5045851659	 0.087202
H	-0.0082803356	-0.4790405291	-0.8108342677	 0.085873
H	-0.2128997092	-2.2614092738	 1.5945867016	 0.099344
H	 0.9744539374	-2.4106432553	 0.2844004191	 0.094319
H	 2.8159881499	-1.9024720162	 1.9112628691	 0.136817
H	 1.6399951879	-1.7587040953	 3.2067664543	 0.139732
H	 1.9774191013	-6.8596721347	 1.9047870519	 0.11365
H	 3.0392013235	-6.6000358652	 3.2953419246	 0.115306
H	 1.0949539833	-7.7207448433	 3.8689326636	 0.288414
14.2432	41.5284	65.0533	91.9066	119.2231	153.8899	175.9737	229.119	247.4268	278.1785	336.9368	381.5934	420.2419	511.3306	575.9618	780.1953	794.0955	821.8798	901.7806	1027.876	1042.5877	1045.5383	1054.8025	1086.5513	1146.22	1154.3437	1168.7725	1186.5185	1232.5702	1247.12	1256.7942	1296.2275	1300.8666	1310.4818	1388.3498	1407.0902	1448.8305	1460.4059	1474.0994	1483.5398	1499.7281	1503.6153	1516.8615	1538.8834	2374.5009	2951.6907	2959.7679	2969.3596	2976.9421	2978.3401	2996.8993	3031.4453	3044.6108	3067.9924	3119.1984	3121.1682	3816.6206
CCOCCC#CCO	CCOCCC#CCO	
InChI=1S/C7H12O2/c1-2-9-7-5-3-4-6-8/h8H,2,5-7H2,1H3	InChI=1S/C7H12O2/c1-2-9-7-5-3-4-6-8/h8H,2,5-7H2,1H3
