21
gdb 93686	3.2424	1.18823	1.09541	1.8706	81.02	-0.2412	0.0106	0.2518	1228.3993	0.181624	-424.240888	-424.231703	-424.230758	-424.274207	35.923	
C	 0.1105035115	 1.5423425222	-0.0479798451	-0.398981
C	 0.0574913853	 0.0179064684	 0.0052147402	 0.085478
O	 0.7133659177	-0.4649420122	-1.1627958339	-0.277204
C	 0.9180098586	-1.8693234877	-1.1261219397	-0.122507
C	 1.9673851408	-2.2135078664	-0.0617507262	 0.329917
C	 2.1241048428	-3.7211954324	 0.104390695	-0.422936
O	 3.247502489	-1.723347904	-0.4797546192	-0.469932
C	 1.5607772214	-1.5395054296	 1.2339489445	-0.111092
C	 0.684400154	-0.5378291729	 1.2599093577	-0.083995
H	 1.1464636342	 1.8898472352	 0.0038748514	 0.123572
H	-0.3309188716	 1.8996488435	-0.9819512035	 0.127879
H	-0.4446171001	 1.9747043778	 0.7896174569	 0.116791
H	-1.003390045	-0.2974676724	-0.0305570358	 0.077772
H	-0.0293130089	-2.3960247847	-0.9279378312	 0.086056
H	 1.2843033264	-2.1580596653	-2.1152270706	 0.110169
H	 2.4117206773	-4.1789504582	-0.8468814532	 0.122744
H	 2.9100899966	-3.9349034056	 0.8344198928	 0.126393
H	 1.1927212998	-4.1783121174	 0.4509656879	 0.116783
H	 3.1159142366	-0.7881210875	-0.6791220736	 0.277108
H	 2.0353883478	-1.8939571868	 2.1455502166	 0.09117
H	 0.3916902658	-0.0685774141	 2.1963160691	 0.094815
76.2244	187.647	207.3624	220.7215	241.4455	315.208	320.2206	336.1213	410.3871	423.1682	463.9283	491.0695	558.1324	603.5517	710.9319	758.8848	816.4349	838.9334	904.0146	922.4822	957.1439	996.463	1015.2273	1040.0982	1086.6831	1100.9669	1127.4576	1140.7596	1181.8709	1209.5749	1265.2584	1302.9674	1334.822	1348.1114	1367.2105	1389.1404	1404.7628	1410.7413	1429.9556	1481.204	1484.373	1485.1448	1497.4358	1498.7755	1711.8676	2913.2349	2978.7424	3041.3078	3044.2499	3092.3375	3115.7764	3119.7071	3119.8057	3125.7279	3145.7173	3168.7571	3783.4967
CC1OCC(C)(O)C=C1	C[C@H]1OC[C@@](C)(O)C=C1	
InChI=1S/C7H12O2/c1-6-3-4-7(2,8)5-9-6/h3-4,6,8H,5H2,1-2H3	InChI=1S/C7H12O2/c1-6-3-4-7(2,8)5-9-6/h3-4,6,8H,5H2,1-2H3/t6-,7+/m1/s1
