19
gdb 103024	2.28009	1.75435	1.19703	4.1324	80.14	-0.2499	0.0094	0.2592	1087.5397	0.159998	-382.001278	-381.992951	-381.992007	-382.034288	31.876	
C	-0.4264985564	 1.526273271	-0.1774518961	-0.386091
C	 0.0009902891	 0.0679844987	 0.0285622767	-0.288276
C	 0.6596630641	-0.5342015275	-1.2213190511	 0.225764
C	 1.9719218416	 0.1048104789	-1.3845671652	 0.257966
N	 3.0053885148	 0.6197380081	-1.4478961362	-0.353305
C	 0.5827311349	-2.0579377065	-1.5651660404	-0.108437
C	-0.8911229961	-1.7798440808	-1.9224913855	-0.187148
N	-0.17885926	-0.5605373059	-2.5461133471	-0.166556
C	 0.8477236736	-1.6152192988	-3.0198589592	-0.190689
H	 0.4319481043	 2.158811332	-0.4217151683	 0.143658
H	-1.1468034617	 1.6076020182	-0.9959120986	 0.140371
H	-0.8880282674	 1.9203222019	 0.7321062914	 0.11798
H	 0.7279060571	 0.0013035195	 0.8460431822	 0.123516
H	-0.8565586953	-0.5334093105	 0.3362472354	 0.109491
H	 1.0201517936	-2.8873774343	-1.0003560545	 0.083222
H	-1.3461521854	-2.4238119601	-2.677318893	 0.113709
H	-1.6101589715	-1.5407230984	-1.141313173	 0.112932
H	 1.8236429589	-1.2025040712	-3.2775504472	 0.141569
H	 0.4585771919	-2.2502282444	-3.8175855604	 0.110323
70.3268	146.7361	170.0651	195.9308	222.4526	375.9611	391.3547	499.8754	531.9019	545.4516	624.7372	655.7087	768.9715	779.6353	791.05	868.4128	903.6057	918.9635	964.1958	987.9896	1020.6828	1060.3941	1071.9113	1094.012	1111.5322	1156.3829	1183.3025	1197.3748	1210.2131	1228.6869	1238.2786	1271.3897	1309.717	1356.759	1413.2511	1484.6509	1495.2216	1508.0947	1527.5314	1562.433	2344.4671	3047.0906	3050.2035	3054.1128	3079.3967	3087.6952	3098.8835	3120.6603	3126.3846	3149.2876	3157.7805
CCC1(C#N)C2CN1C2	CC[C@@]1(C#N)[C@H]2CN1C2	
InChI=1S/C7H10N2/c1-2-7(5-8)6-3-9(7)4-6/h6H,2-4H2,1H3	InChI=1S/C7H10N2/c1-2-7(5-8)6-3-9(7)4-6/h6H,2-4H2,1H3/t7-/m1/s1
