17
gdb 40156	2.67938	1.54741	1.2493	2.4876	67.71	-0.2529	0.0569	0.3098	1036.047	0.134915	-458.888792	-458.88095	-458.880006	-458.921695	29.119	
C	 0.2087005574	 1.4650524519	-0.1378089361	-0.260738
O	 1.2677897905	 0.5086753157	 0.0530207009	-0.255534
C	-0.0596127727	 0.0384983451	 0.0150583732	 0.297106
C	-0.7250792924	-0.7798939125	 1.1136904926	-0.159059
O	-1.2128525705	-1.7097180589	 0.1147253319	-0.319203
C	-0.5684053655	-1.0157669676	-0.9631637549	 0.29134
C	-1.3654534262	-0.7145537763	-2.2424858339	-0.13332
O	-0.3239430391	-1.2786085395	-3.0636121133	-0.274333
C	 0.3866129579	-1.7688740136	-1.9049187907	-0.131733
H	 0.0357576752	 2.1405743563	 0.6986259079	 0.125239
H	 0.1702094247	 1.9223611969	-1.1251908355	 0.130769
H	-0.0271898609	-1.2494938558	 1.8162421948	 0.123131
H	-1.5425655398	-0.3012121451	 1.6642532801	 0.115399
H	-2.3024800569	-1.2843018464	-2.2962525314	 0.113549
H	-1.5613803668	 0.3385534624	-2.4776760118	 0.102688
H	 1.433329555	-1.4474142009	-1.8892665828	 0.122417
H	 0.32039574	-2.8590020516	-1.799001481	 0.112282
75.6233	92.803	178.8572	243.37	290.8376	349.0646	428.5404	503.7812	527.2825	577.978	812.9747	857.7229	883.137	899.9062	929.7933	932.7379	990.2274	1011.5352	1026.8387	1045.3758	1124.038	1126.9477	1133.7476	1147.0821	1150.3539	1158.3654	1173.6017	1194.6329	1281.2079	1293.492	1323.0786	1375.5723	1458.1784	1491.7538	1514.2636	1521.4307	1544.8401	3009.1899	3024.459	3028.755	3061.9864	3079.0379	3083.2915	3087.0262	3175.9055
C1OC11COC11COC1	C1O[C@]21COC12COC1	
InChI=1S/C6H8O3/c1-5(2-7-1)6(3-8-5)4-9-6/h1-4H2	InChI=1S/C6H8O3/c1-5(2-7-1)6(3-8-5)4-9-6/h1-4H2/t6-/m0/s1
