16
gdb 10645	2.67574	1.85563	1.34776	2.2335	67.92	-0.2416	0.0262	0.2678	953.0886	0.12706	-383.669336	-383.660606	-383.659662	-383.702201	32.103	
C	 0.1875018851	 1.1554897244	 0.2959051216	-0.252409
O	-0.1671929916	-0.1288062438	-0.1972175171	-0.287876
C	 0.6173253532	-0.5785365088	-1.2683854544	 0.147566
C	 1.9770587484	-1.1860509167	-0.9106772484	-0.375604
C	 0.8072032537	-2.084663767	-1.2164906981	 0.097187
O	 0.1660710844	-2.7876807008	-0.2082675399	-0.429964
C	 0.437257855	 0.108714602	-2.5167899674	 0.327092
C	 0.2914538109	 0.6909617121	-3.5596065051	-0.47042
H	 1.222394783	 1.171370734	 0.6627221926	 0.115147
H	 0.0736729907	 1.9192933797	-0.4825593565	 0.131078
H	-0.4939245673	 1.3732760261	 1.1205594249	 0.132488
H	 2.7808152067	-1.096403095	-1.6324636409	 0.126921
H	 2.2668377656	-1.1053021472	 0.1317084544	 0.124579
H	 0.8055090994	-2.6188678722	-2.1608798831	 0.118215
H	-0.2753944797	-2.1281122723	 0.3449708541	 0.297332
H	 0.1542279625	 1.1963824455	-4.4835083464	 0.198668
105.6829	143.5173	157.992	190.3609	200.4294	308.4131	354.4042	390.0306	438.3196	485.8635	548.1945	578.0875	637.7545	673.6637	683.4206	825.4842	892.5472	929.055	998.9519	1033.2032	1093.0783	1107.0699	1147.7793	1184.1187	1215.6269	1247.8851	1262.8567	1355.9781	1423.7299	1464.2113	1476.6145	1485.2625	1508.9913	2228.8995	3008.8291	3073.002	3131.6366	3133.7315	3169.9398	3232.0364	3500.2181	3745.8392
COC1(CC1O)C#C	CO[C@]1(C[C@H]1O)C#C	
InChI=1S/C6H8O2/c1-3-6(8-2)4-5(6)7/h1,5,7H,4H2,2H3	InChI=1S/C6H8O2/c1-3-6(8-2)4-5(6)7/h1,5,7H,4H2,2H3/t5-,6+/m1/s1
