14
gdb 15513	2.90041	2.13366	1.48355	1.9881	58.47	-0.2471	-0.054	0.1931	838.575	0.106074	-419.699857	-419.692608	-419.691664	-419.731956	25.673	
O	 0.4060395674	-0.1069130106	 0.1047450507	-0.229013
C	 0.1799752133	 1.0720549482	 0.1162505427	 0.141521
C	 1.2736254405	 2.1436253168	 0.129148743	-0.094346
O	 2.5616728609	 1.6292115761	 0.3217988832	-0.238814
C	 3.1392081547	 1.3595990198	-0.9656605265	-0.095021
C	 2.6338868401	 2.4818131808	-1.8771910143	-0.335089
C	 1.2903180054	 2.8479381701	-1.2490857365	 0.363428
O	 0.4071881525	 3.5189149845	-1.7068297285	-0.294633
H	-0.8511311435	 1.4868490859	 0.0924716036	 0.103121
H	 1.0333925329	 2.8731694151	 0.9128215101	 0.133542
H	 4.2225315804	 1.3483993206	-0.8367881146	 0.124772
H	 2.8132435357	 0.3752344831	-1.323287227	 0.127648
H	 3.2805930737	 3.3652753657	-1.8264525434	 0.148261
H	 2.5123188561	 2.2104256638	-2.9276112326	 0.144624
78.2548	111.7266	168.3212	226.5955	299.3709	450.2573	523.3848	592.1403	646.2356	764.8062	770.5842	824.5159	882.0128	935.9927	954.481	990.9763	1085.2552	1116.2162	1164.9691	1193.1124	1206.9419	1242.3564	1280.0383	1322.3581	1381.8799	1407.983	1446.6725	1521.7009	1827.829	1862.3809	2902.0575	3035.3928	3044.0528	3055.1336	3118.1304	3126.8122
O=CC1OCCC1=O	O=C[C@H]1OCCC1=O	
InChI=1S/C5H6O3/c6-3-5-4(7)1-2-8-5/h3,5H,1-2H2	InChI=1S/C5H6O3/c6-3-5-4(7)1-2-8-5/h3,5H,1-2H2/t5-/m1/s1
