16
gdb 69132	2.83018	1.53562	1.15208	5.2374	69.8	-0.2418	-0.0869	0.1549	1059.6618	0.123209	-437.904559	-437.896565	-437.895621	-437.937305	30.114	
C	-0.0326467897	 1.511020914	 0.0251948477	-0.469894
C	-0.0135741239	 0.0029529485	-0.0170243403	 0.3098
C	 0.7018362699	-0.7096921664	-1.1012603415	-0.288741
N	 1.3067874991	-0.6382304299	 0.2597217629	-0.156972
C	 1.0977122145	-1.8141504979	 1.0259897267	 0.281263
O	 1.9357197736	-2.6102097732	 1.336395838	-0.278616
C	-0.4172199219	-1.916417933	 1.3925793367	 0.326999
O	-0.8935642323	-2.7814257799	 2.0701551617	-0.267048
C	-1.1239347322	-0.7530544332	 0.7060037524	-0.430532
H	 0.8695146358	 1.9225933407	-0.4339033324	 0.137915
H	-0.9046429556	 1.8990265725	-0.5123355836	 0.128562
H	-0.0835908093	 1.8704535198	 1.0582484322	 0.130984
H	 0.3302369071	-1.676913569	-1.4334920048	 0.135026
H	 1.2483490702	-0.1521958351	-1.8553687216	 0.14108
H	-1.6038286788	-0.1286369597	 1.467272805	 0.149922
H	-1.9159470665	-1.118814348	 0.0452723508	 0.150251
59.6192	144.3122	205.9706	298.2422	319.8428	355.3607	368.3033	394.2358	530.0015	580.0813	607.3591	677.9195	698.6653	752.0337	834.1374	916.2984	925.8633	955.6736	1004.0278	1043.7147	1082.3648	1105.3748	1136.8609	1146.458	1197.9	1242.0808	1319.1095	1378.9209	1421.3474	1444.6215	1486.1659	1493.1953	1514.6018	1855.7637	1864.0361	3036.2046	3055.0953	3095.7363	3101.6173	3107.7489	3125.219	3200.2727
CC12CN1C(=O)C(=O)C2	C[C@@]12CN1C(=O)C(=O)C2	
InChI=1S/C6H7NO2/c1-6-2-4(8)5(9)7(6)3-6/h2-3H2,1H3	InChI=1S/C6H7NO2/c1-6-2-4(8)5(9)7(6)3-6/h2-3H2,1H3/t6-,7?/m1/s1
