19
gdb 104794	2.40212	1.53957	1.14296	1.4607	70.66	-0.2503	0.0666	0.3168	1113.7458	0.157226	-460.099882	-460.090828	-460.089883	-460.133796	33.574	
C	-1.3546608538	-0.4282347386	 0.0983925634	-0.258349
O	-0.0572046675	 0.0681685444	-0.1787797696	-0.298289
C	 0.6720948135	-0.6531438313	-1.1564914317	 0.360337
C	 0.3418001941	-0.0983102613	-2.5411155275	-0.104191
O	 0.6095772173	 1.2868290177	-2.6008191447	-0.422109
C	 2.2093893338	-0.6830648376	-0.8466697215	-0.312913
C	 2.1205163507	-2.2121304815	-0.847462805	 0.040776
O	 1.1971022251	-2.5829017492	 0.1817635865	-0.242168
C	 0.6668589744	-2.1969408527	-1.0884410809	-0.069999
H	-2.0018035739	-0.4402025963	-0.790268217	 0.107092
H	-1.3088930492	-1.4409299056	 0.5181737041	 0.134056
H	-1.7955860323	 0.2424349884	 0.8392666884	 0.131464
H	 0.9546812904	-0.5861103685	-3.3065297254	 0.106929
H	-0.7135829196	-0.3153368567	-2.7799746681	 0.084382
H	 0.2506746157	 1.653746748	-1.782485739	 0.288024
H	 2.8065919777	-0.2541166734	-1.6529563611	 0.122669
H	 2.4914683026	-0.244812413	 0.1115492677	 0.120385
H	 2.8602452017	-2.9481527652	-1.1379577293	 0.109123
H	 0.0219856091	-2.9031834877	-1.5998943093	 0.102782
77.5642	109.0016	143.3429	171.867	225.6111	246.6758	347.5804	379.6876	425.2948	448.1388	485.7963	626.5273	689.0951	791.2547	833.6704	863.8777	886.8943	921.5767	965.7213	972.5678	1037.4961	1061.9566	1088.3605	1094.6037	1124.7357	1146.6346	1179.8169	1200.0924	1219.3668	1234.2754	1241.951	1267.3078	1287.6412	1362.5374	1385.6646	1435.0675	1467.6213	1478.8231	1490.3737	1504.4854	1512.3685	2957.3074	2996.6961	3059.3123	3070.3918	3084.5728	3121.1953	3147.2088	3174.5467	3198.5951	3771.327
COC1(CO)CC2OC12	CO[C@@]1(CO)C[C@H]2O[C@@H]12	
InChI=1S/C6H10O3/c1-8-6(3-7)2-4-5(6)9-4/h4-5,7H,2-3H2,1H3	InChI=1S/C6H10O3/c1-8-6(3-7)2-4-5(6)9-4/h4-5,7H,2-3H2,1H3/t4-,5-,6-/m1/s1
