17
gdb 30854	2.60071	1.29884	0.91467	2.2449	74.12	-0.1669	0.0482	0.2151	1266.1663	0.135142	-455.150636	-455.140881	-455.139937	-455.185945	34.801	
C	 0.1784624402	 1.1431247344	-0.4933450051	-0.324362
N	-0.3513263727	 0.3584975437	 0.6263920625	-0.382263
C	-1.3200307212	-0.5886341475	 0.3351950494	 0.218669
C	-1.3110893551	-1.886498937	-0.0719012928	 0.267026
O	-0.1731547891	-2.5839815915	-0.3581360757	-0.45361
C	-2.6690058202	-2.3520251845	-0.1329934035	-0.418996
C	-3.4245425131	-1.2741583453	 0.2313825397	 0.400336
N	-4.790333525	-1.0981769334	 0.4107984433	-0.597062
O	-2.6571178557	-0.2106641547	 0.5234506328	-0.191746
H	 0.9009788197	 1.8706515578	-0.1103201007	 0.112622
H	 0.6684416372	 0.5337758882	-1.2674183846	 0.111711
H	-0.6398973294	 1.6974818864	-0.9614577293	 0.128427
H	 0.3925960516	-0.0285766091	 1.1921566085	 0.235318
H	-0.409223185	-3.502294897	-0.5142828699	 0.29731
H	-3.0227209728	-3.3336892655	-0.407557767	 0.088918
H	-5.3507117307	-1.6357066176	-0.2363224926	 0.252894
H	-5.0516161585	-0.1209243473	 0.3869248449	 0.254807
29.2466	126.5175	162.7652	165.897	167.9243	218.0447	267.236	302.4443	332.2252	428.4857	518.621	584.6596	622.8058	643.1994	666.3129	678.8314	717.4822	735.9522	827.1046	1016.895	1038.0957	1071.7742	1108.0916	1141.3514	1165.1526	1202.2084	1226.9782	1336.0501	1383.8808	1451.717	1471.338	1481.8339	1492.0024	1515.6537	1616.5423	1656.5683	1725.4556	2990.0267	3073.987	3111.8348	3245.8386	3546.8979	3558.2092	3645.889	3850.6605
CNC1=C(O)C=C(N)O1	CNc1c(O)cc(N)o1	
InChI=1S/C5H8N2O2/c1-7-5-3(8)2-4(6)9-5/h2,7-8H,6H2,1H3	InChI=1S/C5H8N2O2/c1-7-5-3(8)2-4(6)9-5/h2,7-8H,6H2,1H3
