16
gdb 9478	2.96238	1.68697	1.57231	5.2453	65.11	-0.2585	0.0089	0.2673	905.0168	0.129843	-379.908068	-379.899643	-379.898699	-379.940973	30.33	
C	 0.1384279721	 1.4321653666	-0.2222659122	-0.426407
C	-0.0167930885	-0.0692995785	-0.0202088355	 0.269013
O	 0.7354325151	-0.838493966	-0.9882423588	-0.305103
C	 1.6368285322	-1.3517969438	 0.0153114851	-0.096099
C	 0.8057832526	-0.7148271104	 1.1583763756	-0.073349
N	 1.3847733541	 0.1812084884	 2.1228012571	-0.50865
C	-1.435400531	-0.4553615056	-0.0344271431	 0.256335
N	-2.5487111061	-0.7659429163	-0.0164656815	-0.33927
H	 1.1978768412	 1.6995806968	-0.2372222633	 0.117511
H	-0.3064020663	 1.7272715958	-1.1758652631	 0.144842
H	-0.3511040631	 1.9791853596	 0.5870277834	 0.149816
H	 1.6982694715	-2.4451397186	-0.0072821165	 0.117587
H	 2.6469962148	-0.9322091101	-0.0914941118	 0.097377
H	 0.2016268523	-1.4525918997	 1.6879590191	 0.117053
H	 1.6543186018	-0.3061850533	 2.9682010803	 0.244122
H	 2.2059687175	 0.6544952851	 1.7630804252	 0.23522
64.6579	149.3646	186.3463	188.9444	227.4943	256.6112	365.9622	381.8662	477.8099	552.343	568.2798	636.8351	764.4542	776.31	882.3072	907.2041	939.7937	1017.7896	1029.4632	1100.6421	1134.2172	1153.064	1176.4172	1207.9206	1265.4684	1276.4396	1332.9716	1401.8079	1438.4027	1475.4322	1486.0529	1520.8952	1666.9896	2350.3416	3003.4992	3052.7977	3067.4548	3108.6353	3130.8053	3138.3966	3523.5391	3608.3317
CC1(OCC1N)C#N	C[C@]1(OC[C@H]1N)C#N	
InChI=1S/C5H8N2O/c1-5(3-6)4(7)2-8-5/h4H,2,7H2,1H3	InChI=1S/C5H8N2O/c1-5(3-6)4(7)2-8-5/h4H,2,7H2,1H3/t4-,5+/m1/s1
