19
gdb 96773	2.95549	1.27433	1.07396	4.0394	79.91	-0.2344	0.0059	0.2403	1205.2146	0.157323	-419.160299	-419.150817	-419.149873	-419.194294	34.822	
C	-0.0024348425	 1.3401176053	 0.1611182283	-0.338593
N	-0.0188460473	-0.1063951885	 0.0105493518	-0.288255
C	 0.5589930406	-0.6143557106	-0.9764301606	 0.383311
C	 1.3149632098	-0.1582404888	-2.2334516239	-0.076543
O	 2.4398162468	 0.6581928504	-2.0061513582	-0.421922
C	 1.4924967896	-1.6580189794	-2.5242891603	 0.309477
C	 1.3022781971	-2.3030809626	-3.8636942789	-0.498782
C	 2.078725835	-2.3266487316	-1.3518414783	-0.285701
N	 0.6146804875	-2.0243690472	-1.3133857083	-0.19792
H	 0.4344111312	 1.588248262	 1.1346570685	 0.131528
H	 0.5589645383	 1.8732798167	-0.6161566987	 0.122831
H	-1.0351631285	 1.706626678	 0.1767875634	 0.126499
H	 0.6224870028	 0.2964628017	-2.9575182256	 0.092804
H	 2.8004922427	 0.9300287719	-2.856759942	 0.289195
H	 2.1747756137	-2.1335988704	-4.5058575969	 0.122481
H	 1.16847472	-3.3832595707	-3.7582641744	 0.1382
H	 0.4215751295	-1.9015707382	-4.3763502149	 0.126731
H	 2.2775298751	-3.3909275999	-1.4284068744	 0.127646
H	 2.7371793886	-1.782281948	-0.6808169565	 0.137013
83.6079	140.4304	170.166	183.4425	204.5103	246.257	261.5413	274.7647	350.7936	361.9442	531.5093	551.7132	618.774	650.6812	705.5429	775.7087	840.6674	922.8243	974.567	1005.9829	1059.5791	1061.1533	1082.6809	1124.0733	1126.5548	1136.6094	1147.9648	1178.9302	1203.5759	1263.9789	1300.6224	1385.5806	1416.8514	1425.7689	1443.3373	1484.3332	1486.255	1490.621	1500.5524	1507.827	1831.3115	2996.2842	3011.8923	3028.488	3081.6854	3084.0662	3089.6219	3113.888	3119.7889	3210.6067	3806.6885
CN=C1C(O)C2(C)CN12	CN=C1[C@@H](O)[C@@]2(C)CN12	
InChI=1S/C6H10N2O/c1-6-3-8(6)5(7-2)4(6)9/h4,9H,3H2,1-2H3	InChI=1S/C6H10N2O/c1-6-3-8(6)5(7-2)4(6)9/h4,9H,3H2,1-2H3/t4-,6-,8?/m1/s1
