19
gdb 34855	2.56761	1.55504	1.44629	1.2316	79.21	-0.2418	0.037	0.2788	1017.1036	0.160893	-385.850182	-385.842481	-385.841536	-385.882184	30.862	
C	-0.0942613877	-1.2986100657	-0.1265772655	-0.462391
C	-0.0485265629	-0.0982277268	-0.0545620838	 0.323762
C	 0.0096817883	 1.3428777703	 0.0360660054	-0.187951
C	-0.1153389442	 2.0836251674	 1.4012212826	 0.080809
C	 0.5759140398	 1.3152610531	 2.5308887171	-0.233749
C	 2.104642705	 1.3078564698	 2.2760863181	-0.182854
C	 2.4610538203	 1.349949278	 0.7683764919	-0.233747
C	 1.3653433723	 2.1108674313	 0.0168559043	 0.080818
O	 0.7786717137	 3.1146416997	 0.8934194797	-0.299811
H	-0.139305537	-2.3573967253	-0.1957793262	 0.198238
H	-0.6719885697	 1.8037723531	-0.6839541426	 0.111412
H	-1.0958308311	 2.4841285123	 1.6696118443	 0.082129
H	 0.3637906388	 1.7881468996	 3.4949131098	 0.10029
H	 0.1654713584	 0.3004808202	 2.5718727716	 0.114645
H	 2.5230296239	 2.2034400904	 2.741208608	 0.115929
H	 2.5754384409	 0.4493976267	 2.7627435425	 0.095411
H	 3.4276480842	 1.8445265229	 0.6303566381	 0.100292
H	 2.5493477777	 0.3443472228	 0.3430660281	 0.114637
H	 1.6908734693	 2.5353969801	-0.9358272435	 0.082129
105.4429	146.2895	183.9267	302.2629	349.2934	425.2956	479.8478	545.6051	601.1653	602.2346	636.4121	637.8746	736.7075	803.2221	832.5567	862.1838	870.4041	915.9938	932.259	1008.9554	1015.1835	1041.2503	1058.6135	1067.9669	1116.6312	1132.3259	1182.3726	1235.0223	1239.9695	1257.0637	1304.8157	1329.063	1339.5509	1346.9991	1365.835	1380.3324	1380.9633	1479.5278	1483.3501	1500.216	2228.9765	3043.018	3043.8411	3063.639	3068.1331	3077.7774	3078.2511	3086.0727	3088.2778	3109.6316	3501.1786
C#CC1C2CCCC1O2	C#C[C@H]1[C@H]2CCC[C@@H]1O2	
InChI=1S/C8H10O/c1-2-6-7-4-3-5-8(6)9-7/h1,6-8H,3-5H2	InChI=1S/C8H10O/c1-2-6-7-4-3-5-8(6)9-7/h1,6-8H,3-5H2/t6-,7+,8-
