19
gdb 62500	1.86251	1.55501	1.10468	1.0212	89.33	-0.2371	0.0293	0.2664	1207.6229	0.155022	-348.684795	-348.674693	-348.673749	-348.719089	38.104	
C	-0.1025170394	 1.5498726343	 0.0066089271	-0.45128
C	 0.0083932021	 0.0402290631	 0.0181434009	 0.281398
C	-1.1965936563	-0.6864676796	-0.5467489907	-0.446169
C	 1.3682073575	-0.5982740421	-0.2306037837	-0.281871
C	 2.5404319721	 0.1787438526	-0.4931934541	 0.350703
C	 3.5311196183	 0.8174480342	-0.7331894536	-0.440051
C	 0.7301589519	-0.634355304	 1.176867582	-0.281855
C	 1.2905449426	 0.108088295	 2.2638666169	 0.350661
C	 1.7510468583	 0.716959498	 3.1934988313	-0.440043
H	 0.7870635254	 2.0252051306	 0.4216844896	 0.144583
H	-0.2369452085	 1.9134759081	-1.0179158806	 0.118293
H	-0.9678544717	 1.8721190172	 0.5959119111	 0.118307
H	-1.3690997545	-0.3981780154	-1.5897716182	 0.123594
H	-1.0670945787	-1.7729014246	-0.515828818	 0.115746
H	-2.0999257028	-0.4394154642	 0.0222175177	 0.123596
H	 1.343833659	-1.5560901327	-0.7438554737	 0.113258
H	 4.406633576	 1.3816419267	-0.9384269258	 0.19394
H	 0.346758247	-1.61247738	 1.4556376273	 0.113252
H	 2.1639436115	 1.2558997928	 4.0096002046	 0.193938
94.6013	128.7961	154.6934	163.4375	183.0245	237.1588	297.3642	347.3061	357.9225	358.043	427.7127	537.6588	547.7238	584.3063	590.6299	645.0268	651.8025	652.2256	700.7962	804.0816	815.4303	950.231	975.0258	997.5919	1005.0285	1069.4923	1090.0016	1139.4765	1152.0908	1233.7118	1325.1335	1349.8961	1407.3691	1416.0366	1431.1405	1478.4471	1489.9189	1497.9988	1508.9561	2235.5556	2237.2736	3026.0309	3037.0793	3090.7659	3095.6074	3100.5746	3132.0005	3140.8152	3142.2798	3505.3763	3506.0281
CC1(C)C(C#C)C1C#C	CC1(C)[C@@H](C#C)[C@H]1C#C	
InChI=1S/C9H10/c1-5-7-8(6-2)9(7,3)4/h1-2,7-8H,3-4H3	InChI=1S/C9H10/c1-5-7-8(6-2)9(7,3)4/h1-2,7-8H,3-4H3/t7-,8+
