21
gdb 73465	2.74081	1.77587	1.52603	1.5073	81.	-0.2286	0.0867	0.3153	985.7778	0.185539	-387.106301	-387.09887	-387.097925	-387.137679	30.705	
C	 0.0227653846	 1.4727239863	-0.0575007284	-0.480053
C	 0.0355856485	-0.0397022022	-0.0277669553	 0.305829
C	-1.2309682996	-0.6810083059	-0.5794832361	-0.127612
O	-1.2233926017	-2.108016948	-0.5534066836	-0.281435
C	-0.0319893681	-2.6760495506	-0.0158233174	 0.094496
C	 0.2069427599	-2.1416711882	 1.4096997262	-0.23938
C	 0.7238382541	-0.7387219177	 1.1224062222	-0.095563
C	 1.3418036652	-0.7608717537	-0.2705222422	-0.095564
C	 1.1912867118	-2.1769503021	-0.8090836591	-0.239381
H	 0.9536639496	 1.879840704	 0.3489701713	 0.116629
H	-0.0875138653	 1.850549981	-1.0810064544	 0.116937
H	-0.8053876349	 1.8762812421	 0.5372947252	 0.116938
H	-2.1013837738	-0.3296363805	-0.0044364168	 0.094248
H	-1.3847409934	-0.3553450652	-1.6197054008	 0.094247
H	-0.179364237	-3.7565985425	-0.0640236142	 0.075278
H	-0.7158350002	-2.1708278886	 1.9971589838	 0.102325
H	 0.9656179676	-2.7368319534	 1.9315790206	 0.095367
H	 1.1522202147	-0.1415809987	 1.9202851994	 0.0745
H	 2.2277564445	-0.1801295733	-0.5040290852	 0.0745
H	 2.0802927797	-2.7767833494	-0.5809808352	 0.095368
H	 1.0070350138	-2.2325773835	-1.8863184299	 0.102326
137.7855	198.996	246.3649	297.9838	362.4773	412.6361	450.1981	467.5612	548.0043	654.448	703.6146	809.1285	836.701	848.1068	874.5616	891.7195	913.4659	959.2252	975.8585	999.2086	1027.5534	1036.3936	1056.2058	1066.9726	1085.432	1124.2524	1145.1064	1170.6504	1192.1412	1223.6095	1229.709	1257.5263	1307.3743	1308.3022	1318.2243	1347.4536	1360.9839	1407.0122	1415.7094	1450.3579	1477.6594	1488.7234	1491.8631	1502.698	1527.3353	2975.1417	2996.5491	3019.8981	3032.2224	3037.4359	3078.1816	3084.3068	3086.3101	3097.5425	3098.9829	3159.3389	3168.8348
CC12COC3CC1C2C3	C[C@]12CO[C@@H]3C[C@H]1[C@H]2C3	
InChI=1S/C8H12O/c1-8-4-9-5-2-6(8)7(8)3-5/h5-7H,2-4H2,1H3	InChI=1S/C8H12O/c1-8-4-9-5-2-6(8)7(8)3-5/h5-7H,2-4H2,1H3/t5-,6+,7-,8+
