16
gdb 52568	4.07874	0.62384	0.54478	2.2118	79.16	-0.2627	-0.0424	0.2203	1945.643	0.119953	-437.862734	-437.852287	-437.851343	-437.902029	33.78	
C	 0.1716349739	 1.3933669941	-0.0629520953	-0.506919
C	 0.0650180988	-0.0553661026	-0.0396999507	 0.228288
C	-0.0345148421	-1.2551011531	-0.0208511087	 0.016636
C	-0.1562951289	-2.6818278875	 0.0013129359	 0.192043
N	-1.2891900363	-3.2537557045	-0.0467227488	-0.522825
O	 1.0842045993	-3.2581822697	 0.0779677291	-0.240885
C	 1.1573539379	-4.6705141543	 0.1100334155	-0.187223
C	 2.6287446639	-5.0488833728	 0.1947848759	 0.138708
O	 3.0066960012	-6.1875121462	 0.2374902288	-0.231235
H	 1.2182081716	 1.7150522712	-0.0624816215	 0.157781
H	-0.3091209175	 1.8059763635	-0.9564391523	 0.161586
H	-0.3181156578	 1.8346018366	 0.8118412445	 0.1615
H	-1.2244008692	-4.2700249608	-0.0229921385	 0.228054
H	 0.630478997	-5.0857258182	 0.9808479917	 0.147669
H	 0.7235992222	-5.1211854596	-0.7938875067	 0.147669
H	 3.3194134059	-4.1792056061	 0.2135037213	 0.109152
10.0814	45.6618	62.4296	68.1956	111.5124	174.3188	191.0327	307.9164	350.7864	384.313	428.5941	527.8704	618.2948	710.6565	741.4729	788.2538	842.0145	977.2012	1047.7823	1053.5043	1058.577	1112.2347	1125.4842	1137.4935	1236.8668	1313.1565	1363.9524	1406.7582	1411.504	1472.297	1473.3932	1478.2814	1701.9129	1847.7468	2373.3253	2917.2377	3002.0689	3032.0433	3044.5998	3095.4519	3098.8088	3508.0857
CC#CC(=N)OCC=O	CC#C[C]([NH])OCC=O	
InChI=1S/C6H7NO2/c1-2-3-6(7)9-5-4-8/h4,7H,5H2,1H3	InChI=1S/C6H7NO2/c1-2-3-6(7)9-5-4-8/h4,7H,5H2,1H3
