16
gdb 80817	2.01829	1.6862	1.24265	4.4013	70.66	-0.2745	0.0234	0.2979	1049.6837	0.124374	-437.841628	-437.833494	-437.83255	-437.874093	31.084	
O	 0.103167999	 1.4439109801	 0.0983939781	-0.433856
C	 0.0542116805	 0.0516018028	 0.0398933591	 0.121805
C	-0.0364431205	-0.6656700931	 1.4087075935	-0.15668
C	-1.5065524783	-0.1614513251	 1.5161225844	-0.272993
C	-1.3617840546	-0.6656680582	 0.0449511474	 0.156331
C	-2.3524589462	-0.6531033798	-0.9969805937	 0.138011
N	-3.1365274516	-0.6214672164	-1.84712126	-0.351387
C	-0.624971473	-1.8956757238	 0.6377965577	 0.108767
O	 0.1633802514	-2.6114858697	-0.2686611143	-0.433997
H	 0.1190894194	 1.7874070142	-0.8003806209	 0.297697
H	 0.7648108738	-0.3646448691	-0.6761360139	 0.105964
H	 0.7175356873	-0.6714540871	 2.1942603039	 0.088785
H	-2.1841713569	-0.735058894	 2.1524173299	 0.106558
H	-1.6366617149	 0.9113454616	 1.6285044363	 0.140079
H	-1.2615135032	-2.5511654868	 1.2430920311	 0.090002
H	 0.6076726378	-3.3217728556	 0.2040751414	 0.294914
118.7984	144.2311	231.0802	249.402	304.1344	307.9682	366.8606	379.3007	514.727	544.6245	570.4152	589.1114	681.6617	786.5374	834.2088	874.7007	931.2777	958.8006	970.4492	1044.6475	1087.7024	1134.2666	1147.5224	1166.8505	1171.0308	1206.1493	1220.5246	1229.3005	1259.1146	1292.9314	1325.5566	1434.6302	1449.7978	1515.8732	2346.4203	3043.4861	3082.4487	3101.0561	3134.3792	3184.9674	3825.9694	3830.7515
OC1C2CC1(C#N)C2O	O[C@H]1[C@H]2C[C@]1(C#N)[C@H]2O	
InChI=1S/C6H7NO2/c7-2-6-1-3(4(6)8)5(6)9/h3-5,8-9H,1H2	InChI=1S/C6H7NO2/c7-2-6-1-3(4(6)8)5(6)9/h3-5,8-9H,1H2/t3-,4-,5-,6-/m0/s1
