16
gdb 89781	2.4758	1.50675	1.08254	4.4055	69.13	-0.2788	0.0144	0.2932	1099.8447	0.123352	-437.858225	-437.849955	-437.849011	-437.891373	30.786	
O	 0.510514029	 0.7452894748	-0.7559115605	-0.420128
C	-0.0139691669	-0.2436678	 0.0650350529	 0.164448
C	-0.0236331636	-0.0597518775	 1.6119423911	-0.370659
C	-1.4155522007	-0.6851800798	 1.6257340155	 0.47425
C	-1.9385412414	-1.8000926167	 2.4149995322	-0.264294
O	-2.4133414218	-0.4538229397	 2.58416297	-0.253405
C	-1.5878075621	-0.4699789228	 0.1027702746	-0.348483
C	-2.2988520788	 0.7500931066	-0.2339544677	 0.295948
N	-2.7915422981	 1.7598118081	-0.5096044516	-0.327902
H	 0.0156062648	 1.5635878005	-0.6208783018	 0.298615
H	 0.472622145	-1.1777688625	-0.2235718195	 0.113674
H	 0.7688144354	-0.5397238762	 2.1884183989	 0.121677
H	-0.0726630928	 1.0014514696	 1.8782815157	 0.131764
H	-2.6532584968	-2.4924917527	 1.9727779995	 0.127126
H	-1.3524762447	-2.1938780917	 3.2437974111	 0.128333
H	-1.9774282665	-1.30856357	-0.4782062204	 0.129037
70.4751	122.7994	143.6438	268.7137	314.4918	359.9587	380.2932	409.7811	440.6775	494.0124	557.9641	671.1404	750.8879	802.4304	855.9027	887.1546	909.2948	968.1085	1014.4295	1050.4479	1094.9795	1126.283	1142.0368	1161.6656	1180.7952	1187.9884	1233.0462	1252.2676	1303.1885	1339.6812	1428.8843	1446.8906	1477.8105	1536.5822	2348.4366	3058.4055	3086.5611	3089.9099	3098.6513	3127.1796	3177.0082	3774.6215
OC1CC2(CO2)C1C#N	O[C@H]1C[C@]2(CO2)[C@H]1C#N	
InChI=1S/C6H7NO2/c7-2-4-5(8)1-6(4)3-9-6/h4-5,8H,1,3H2	InChI=1S/C6H7NO2/c7-2-4-5(8)1-6(4)3-9-6/h4-5,8H,1,3H2/t4-,5-,6-/m0/s1
