12
gdb 133393	2.52457	1.81802	1.0574	2.9045	63.85	-0.2418	-0.0812	0.1605	998.8464	0.076812	-510.021854	-510.014495	-510.013551	-510.053654	27.842	
N	 0.0110865508	 1.3068791103	-0.0667240064	-0.548608
C	 0.0071748587	-0.0452016889	 0.0179201216	 0.444104
N	-1.1187464915	-0.6925118193	 0.0660735083	-0.193465
O	-1.0756163893	-2.0773631931	 0.2121483672	-0.216249
N	 0.0875218811	-2.7787107365	 0.2955695115	-0.126556
C	 1.1854617335	-2.1261804326	 0.2250704355	 0.335774
F	 2.3040963468	-2.8344774916	 0.3015289982	-0.054254
C	 1.3233350689	-0.6972428131	 0.067700321	 0.104404
N	 2.3968600226	-0.00644778	-0.0342517996	-0.548216
H	 0.8938771693	 1.729577029	-0.3083558893	 0.286896
H	-0.8451960587	 1.7810831563	-0.2985146018	 0.27362
H	 3.2217763677	-0.6066999705	 0.0100462638	 0.24255
97.7356	241.647	301.3502	314.9895	327.6051	375.33	444.8874	476.5785	514.8692	557.1815	562.7212	571.4946	702.8767	791.4312	872.3153	893.911	908.6848	990.597	1068.6259	1157.7476	1278.5764	1407.1593	1499.4788	1597.7204	1635.5896	1643.771	1686.3456	3476.8329	3592.0206	3726.3384
NC1=NON=C(F)C1=N	NC1=NON=C(F)[C]1[NH]	
InChI=1S/C3H3FN4O/c4-2-1(5)3(6)8-9-7-2/h5H,(H2,6,8)	InChI=1S/C3H3FN4O/c4-2-1(5)3(6)8-9-7-2/h5H,(H2,6,8)
