20
gdb 69654	4.10381	1.16234	1.08108	2.4612	79.47	-0.2365	0.0742	0.3107	1198.9769	0.171081	-403.096533	-403.088181	-403.087236	-403.129665	32.139	
C	 0.2515801022	 1.5497828047	 0.0268531288	-0.484272
C	-0.0110362719	 0.0755415514	 0.0741144557	 0.348518
C	-1.3862826824	-0.6098213388	-0.0217057927	-0.379608
C	-0.8690732063	-1.7003850904	 0.9651481707	 0.452434
C	-1.6253374411	-2.0590021572	 2.2595407477	-0.361136
C	-1.5347633035	-3.5079812748	 1.7433858845	-0.071055
O	-0.884320359	-3.0771172017	 0.5291692338	-0.319044
C	 0.4845627727	-0.9936643532	 1.0164689057	-0.155223
N	 1.0358163296	-0.8558558434	-0.3307415045	-0.362321
H	 1.2941549008	 1.7591967491	 0.2796725392	 0.133356
H	 0.0633735226	 1.9475202552	-0.9774959655	 0.122386
H	-0.3963108464	 2.0892601396	 0.7260638729	 0.114595
H	-2.2077645615	-0.0270968604	 0.4062236056	 0.10356
H	-1.6772062436	-0.9632009183	-1.0165861519	 0.102796
H	-1.0881631738	-1.8480090765	 3.1865467982	 0.113058
H	-2.6356245725	-1.6516609144	 2.3287331405	 0.112146
H	-0.8981733234	-4.1791708147	 2.3322219132	 0.104989
H	-2.4875432515	-4.010090219	 1.5396868233	 0.104585
H	 1.1630458153	-0.9465843062	 1.8627289673	 0.083305
H	 0.7071359838	-1.5959016709	-0.9498350826	 0.236931
72.5526	89.8652	202.5552	222.8573	282.2685	323.1629	402.0223	419.5768	452.1855	557.7829	665.4023	779.2609	792.8638	829.8552	867.4999	870.7703	920.2591	940.8778	971.5596	986.9965	1000.4744	1020.6264	1047.3444	1109.6863	1125.11	1148.1125	1155.4943	1164.1592	1176.38	1215.6696	1228.7798	1234.4988	1257.1209	1292.2415	1316.0897	1352.8057	1400.025	1448.4994	1478.6329	1484.666	1486.9547	1495.7053	1532.9917	3021.094	3028.7128	3040.9363	3061.6153	3073.3643	3087.5535	3095.7871	3119.9285	3127.8948	3158.9348	3457.8166
CC12CC3(CCO3)C1N2	C[C@]12C[C@]3(CCO3)[C@H]1N2	
InChI=1S/C7H11NO/c1-6-4-7(2-3-9-7)5(6)8-6/h5,8H,2-4H2,1H3	InChI=1S/C7H11NO/c1-6-4-7(2-3-9-7)5(6)8-6/h5,8H,2-4H2,1H3/t5-,6-,7+/m0/s1
