18
gdb 22751	2.44699	1.59064	1.25884	0.7626	75.32	-0.236	0.0058	0.2418	1058.5063	0.145828	-439.011703	-439.002948	-439.002004	-439.044448	34.179	
C	-0.0590877145	 1.6335194015	-0.0479225692	-0.447291
C	 0.0608002747	 0.1176217292	 0.0220630549	 0.3289
O	-1.1847979756	-0.4785050166	 0.344662556	-0.483914
C	 0.6842585716	-0.6398761952	-1.17185928	-0.072743
C	 2.1120473999	-0.2569409259	-1.3706956497	-0.303617
C	 1.792673075	-1.2353273137	-0.2598914742	-0.14339
C	 1.1657176136	-0.5326866516	 0.8821183796	 0.372746
N	 1.292180445	-0.7165032003	 2.1304632412	-0.270436
O	 0.3057367245	 0.0499273445	 2.821990642	-0.416048
H	 0.879669028	 2.1120500034	-0.3398718206	 0.113792
H	-0.8311411848	 1.9031814801	-0.7753349981	 0.124316
H	-0.3480200926	 2.0283508091	 0.9300496382	 0.13142
H	-1.3136774208	-0.3336540651	 1.2912323055	 0.293062
H	 0.09120704	-1.1588902227	-1.9127631541	 0.109543
H	 2.5974550354	-0.7102598267	-2.2291616929	 0.125065
H	 2.46932996	 0.7423684254	-1.1418099518	 0.12069
H	 2.2100573579	-2.2331730995	-0.2333323069	 0.108762
H	 0.4635637728	-0.1993708957	 3.7383546002	 0.309142
110.9568	177.7188	205.7087	225.5273	254.9971	324.0601	364.5585	385.3517	419.3057	445.9026	491.3557	498.6349	666.4691	677.939	713.212	775.5538	836.7441	895.9848	923.0714	948.3638	970.8956	1002.8875	1006.5495	1052.6681	1093.953	1113.5615	1147.4247	1184.6577	1197.2863	1217.3491	1287.3799	1332.7141	1387.4241	1397.4592	1405.2191	1484.7866	1488.2214	1501.542	1772.8041	3041.8057	3115.9129	3120.5032	3125.073	3201.9321	3205.4526	3216.9041	3770.5435	3826.7763
CC1(O)C2CC2C1=NO	C[C@@]1(O)[C@H]2C[C@H]2[C]1[N]O	
InChI=1S/C6H9NO2/c1-6(8)4-2-3(4)5(6)7-9/h3-4,8-9H,2H2,1H3	InChI=1S/C6H9NO2/c1-6(8)4-2-3(4)5(6)7-9/h3-4,8-9H,2H2,1H3/t3-,4+,6-/m1/s1
