20
gdb 87555	2.60905	1.47338	1.20533	1.6334	78.97	-0.2295	0.072	0.3015	1114.5215	0.170109	-403.080932	-403.07225	-403.071306	-403.113809	33.888	
C	-0.110644193	 1.5909586553	-0.0378290965	-0.417056
C	 0.0433893648	 0.0780814695	 0.0338208899	-0.064453
C	 1.1055188822	-0.622160717	-0.8226087018	-0.047178
C	 2.4775433413	-0.3452223556	-0.3547383365	-0.239014
N	 1.6932199232	-1.3654568661	 0.3734844612	-0.175213
C	 0.7551090874	-0.5877499114	 1.2215449012	 0.366821
C	 1.0952198346	-0.0350368784	 2.5793885928	-0.397199
C	 0.1031714003	-1.1743488162	 2.4169635171	 0.000422
O	-1.2668627582	-0.9266818853	 2.5471818449	-0.423662
H	 0.8435884138	 2.1069773465	 0.1060096681	 0.113761
H	-0.5157283388	 1.895322911	-1.0089529481	 0.115858
H	-0.8027210203	 1.9413164805	 0.7351131387	 0.122898
H	-0.9314112218	-0.3977292994	-0.1078625587	 0.100227
H	 0.9094601561	-1.1384133923	-1.7570181118	 0.093526
H	 3.2951866784	-0.7734460266	-0.9266655362	 0.117702
H	 2.714838613	 0.5886164032	 0.149165344	 0.114641
H	 2.0692302744	-0.2638589942	 3.0004088347	 0.117359
H	 0.6955084575	 0.9421378463	 2.8327895189	 0.114532
H	 0.4361795214	-2.1672049129	 2.7192275387	 0.096697
H	-1.4642225864	-0.8233374768	 3.4839062393	 0.28933
118.9933	144.507	176.8131	220.21	242.6483	296.292	321.212	390.6178	445.1399	532.5026	565.4446	590.8207	729.0827	757.9355	790.1572	834.8214	871.6157	907.2143	964.2778	981.2509	989.5462	1020.2221	1050.4615	1079.7203	1083.6156	1092.0363	1113.9041	1140.5153	1159.1656	1167.8476	1195.2042	1228.005	1263.0908	1289.7975	1325.7862	1364.5452	1382.6599	1409.3767	1420.6587	1490.397	1491.1087	1501.4858	1506.7511	3032.668	3065.6709	3098.8001	3105.9131	3107.0046	3111.2265	3120.7893	3160.173	3199.8265	3213.0651	3806.6983
CC1C2CN2C11CC1O	C[C@H]1[C@H]2CN2[C@]21C[C@H]2O	
InChI=1S/C7H11NO/c1-4-5-3-8(5)7(4)2-6(7)9/h4-6,9H,2-3H2,1H3	InChI=1S/C7H11NO/c1-4-5-3-8(5)7(4)2-6(7)9/h4-6,9H,2-3H2,1H3/t4-,5+,6+,7-,8?/m0/s1
