22
gdb 120986	3.67134	0.96312	0.88835	1.5216	82.52	-0.2091	0.0694	0.2785	1429.8445	0.194391	-404.294662	-404.28558	-404.284636	-404.329659	33.615	
C	 0.0109161862	 1.5062105315	-0.2961379047	-0.385891
C	-0.1290219152	-0.0062708392	-0.298262121	-0.03853
O	 0.9198153292	-0.5546157246	-1.0772600001	-0.250996
C	 0.9200811908	-1.9552386036	-1.1204563193	 0.133378
C	-0.0886737519	-2.6716666619	-2.0685702239	-0.21475
N	 1.0262815979	-3.3763719215	-2.7806936861	-0.13221
C	 1.444236162	-2.6611885649	-4.0308499874	-0.161382
C	 2.4488995348	-1.7687588299	-3.2527486452	-0.248844
C	 2.0392296352	-2.5590212355	-1.9899436369	-0.014924
H	 0.9753897742	 1.801318721	 0.1267326326	 0.127796
H	-0.0507409278	 1.8995527826	-1.3148678377	 0.12625
H	-0.7850482439	 1.9618208566	 0.3004080528	 0.115894
H	-0.0786133532	-0.4031112087	 0.7295498303	 0.088543
H	-1.1071832538	-0.3025804655	-0.7105233647	 0.09155
H	 0.904717578	-2.3672187054	-0.1002159162	 0.066687
H	-0.7875624075	-3.365713166	-1.5921800582	 0.100866
H	-0.654147455	-1.9795186208	-2.7043819196	 0.09829
H	 1.9092156694	-3.3501657404	-4.7428895256	 0.103233
H	 0.6235503938	-2.1442852879	-4.5404286162	 0.098941
H	 3.4946939925	-1.8826458328	-3.5442960335	 0.10215
H	 2.2057925528	-0.7062663245	-3.2079346869	 0.122297
H	 2.8297474016	-3.1018079785	-1.4649236423	 0.071653
41.5541	80.6036	92.1523	135.0144	245.3478	275.717	342.8172	394.4217	443.9983	521.1355	690.99	721.8895	772.8061	815.7202	821.4034	876.4205	900.7016	920.0055	930.3823	979.0909	996.6149	1025.0849	1047.2365	1094.6567	1101.7791	1153.9173	1164.4645	1181.9364	1189.2998	1213.3499	1214.7342	1224.139	1260.3316	1277.3661	1292.9898	1298.0367	1315.3614	1349.621	1372.028	1403.5926	1440.4809	1483.2045	1483.8424	1487.7533	1499.6803	1511.7937	1528.2815	2960.4252	2984.0138	2988.6616	3023.158	3033.0137	3044.9112	3065.116	3076.573	3079.4865	3081.7618	3119.4175	3121.4753	3135.8692
CCOC1CN2CCC12	CCO[C@H]1CN2CC[C@@H]12	
InChI=1S/C7H13NO/c1-2-9-7-5-8-4-3-6(7)8/h6-7H,2-5H2,1H3	InChI=1S/C7H13NO/c1-2-9-7-5-8-4-3-6(7)8/h6-7H,2-5H2,1H3/t6-,7-/m0/s1
