15
gdb 67122	2.91503	1.64942	1.38821	2.8433	74.27	-0.2335	-0.0784	0.1552	940.5664	0.112128	-420.540855	-420.533855	-420.532911	-420.57201	28.053	
O	-0.2481066356	 1.4809609536	 0.2905506239	-0.457505
C	-0.0012064045	 0.1485732967	 0.095270051	 0.359931
C	-0.943903528	-0.9720237354	-0.039309227	-0.122846
C	-0.4446201157	-1.2900219676	-1.5109237854	-0.267097
C	 0.7994588616	-0.5674136103	-1.0196678834	 0.022915
C	 1.861393439	-1.24518483	-0.5289869072	-0.244389
C	 1.5864727907	-1.4690234471	 0.940444561	 0.380631
O	 2.243579023	-2.0894259692	 1.7402612769	-0.332692
C	 0.1762790279	-0.9455305325	 1.1182880789	-0.238207
H	 0.5475396937	 1.8921221034	 0.6490050699	 0.298227
H	-1.9822102482	-1.0298335444	 0.2758438989	 0.117284
H	-0.3206368434	-2.3258797767	-1.8359646067	 0.120084
H	-1.0978301377	-0.7394160301	-2.1947297245	 0.133123
H	 2.4047124078	-2.0154524906	-1.0681349788	 0.121779
H	-0.2521179305	-0.85441064	 2.1122642326	 0.108762
126.7427	231.7963	270.8753	323.1712	405.6316	449.144	465.5231	581.2948	601.4424	624.5899	714.3835	736.5377	801.6698	820.2187	868.7016	891.5053	928.4338	977.9483	989.4666	1029.1965	1042.5036	1079.0821	1108.238	1131.7628	1168.8114	1222.4997	1243.3775	1264.3924	1310.1273	1475.2315	1492.8586	1574.3513	1799.2275	3052.0346	3119.8696	3156.5007	3171.2195	3179.6255	3788.3325
OC12C3CC1=CC(=O)C23	O[C@@]12[C@H]3C[C]1[CH]C(=O)[C@@H]23	
InChI=1S/C7H6O2/c8-5-2-3-1-4-6(5)7(3,4)9/h2,4,6,9H,1H2	InChI=1S/C7H6O2/c8-5-2-3-1-4-6(5)7(3,4)9/h2,4,6,9H,1H2/t4-,6-,7+/m0/s1
