24
gdb 122435	4.33627	0.61252	0.58738	2.2094	87.68	-0.2203	0.0804	0.3006	1993.6511	0.214568	-405.520526	-405.509284	-405.50834	-405.557551	40.466	
C	 0.0726659336	 1.5173643181	-0.3978456894	-0.454405
C	 0.0256421277	 0.0355850145	-0.0687491935	 0.337593
C	-1.209534722	-0.6720217339	-0.5928998565	-0.434309
C	 1.3070178986	-0.7247071841	 0.0474454367	-0.294054
N	 0.4865776537	-0.4712252546	 1.2301869311	-0.108166
C	 1.0156222554	 0.4275912047	 2.2487264592	-0.144674
C	 1.771882488	-0.3738418874	 3.3093908365	-0.162199
C	 2.3174876177	 0.500066711	 4.4304083846	-0.074448
O	 3.0129149849	-0.3402636561	 5.3396092861	-0.420269
H	 0.9990631787	 1.9951458963	-0.0729833311	 0.118044
H	-0.0100182019	 1.6615780099	-1.4804704563	 0.1199
H	-0.7668782331	 2.0479987236	 0.0669165706	 0.11782
H	-1.2583782819	-0.6174304318	-1.686552369	 0.109487
H	-1.2051951844	-1.7226398429	-0.2939063465	 0.123971
H	-2.1207990182	-0.210938265	-0.1941215611	 0.112659
H	 1.37615134	-1.7602824596	-0.2781355795	 0.107196
H	 2.2326315034	-0.1576619232	-0.0575016705	 0.09863
H	 1.6827446317	 1.2041977526	 1.8367335973	 0.078536
H	 0.1675998287	 0.9493664165	 2.7112147477	 0.098167
H	 1.1084220267	-1.1343756903	 3.7333253609	 0.115601
H	 2.6078181623	-0.9075973957	 2.8419077185	 0.107242
H	 2.9856077262	 1.27218647	 4.0132160883	 0.080839
H	 1.4880141327	 1.0272320458	 4.9308255275	 0.082671
H	 3.3499148414	 0.2060974617	 6.0554112583	 0.284167
47.5255	72.8067	95.556	125.3059	177.059	192.3992	219.7881	257.1021	266.7558	286.4149	366.7487	416.1237	417.5525	476.8997	523.9868	705.8	772.2906	789.012	881.6358	901.0009	922.9618	958.8855	1007.4521	1022.2862	1032.3782	1053.9746	1080.7514	1087.5709	1121.2836	1143.6835	1175.5597	1204.4068	1233.2996	1238.1314	1286.7759	1305.3564	1313.6403	1319.2899	1384.3699	1396.9607	1413.4279	1421.4449	1463.5685	1477.851	1485.436	1489.5211	1499.202	1500.3643	1508.1396	1518.5623	1529.3019	2947.2219	2955.6218	2977.099	3025.2419	3031.0349	3032.8894	3045.0028	3076.5119	3083.979	3088.9998	3093.48	3123.2567	3124.8968	3161.4656	3830.1598
CC1(C)CN1CCCO	CC1(C)CN1CCCO	
InChI=1S/C7H15NO/c1-7(2)6-8(7)4-3-5-9/h9H,3-6H2,1-2H3	InChI=1S/C7H15NO/c1-7(2)6-8(7)4-3-5-9/h9H,3-6H2,1-2H3
