18
gdb 24313	2.71571	2.36393	1.4634	2.1936	82.71	-0.1841	0.0002	0.1843	900.4025	0.151793	-364.783093	-364.776757	-364.775813	-364.813424	26.757	
C	-0.1468935253	 1.5123657953	-0.1121692544	-0.330234
C	 1.407977116	 1.735482935	 0.0928909223	 0.011377
C	 2.1270559175	 1.7794781156	 1.4737257656	-0.234627
C	 3.1050762725	 0.5255158504	 1.423929924	-0.295149
C	 2.2338210422	-0.4539094798	 0.667626328	 0.101258
C	 1.363124994	-1.4867528667	 0.9939432678	-0.183058
C	 0.0704576894	-1.182917921	 0.4271466412	-0.18537
C	 0.2065790454	 0.0071042372	-0.2683155008	 0.070877
N	 1.5566536555	 0.3132561444	-0.2417350595	 0.075063
H	-0.7665839285	 1.7148540459	 0.7636189878	 0.126235
H	-0.5621521774	 2.0332746434	-0.9780026465	 0.118351
H	 1.8677588634	 2.417644513	-0.6292429157	 0.087715
H	 2.64948854	 2.7225108519	 1.6579552284	 0.102752
H	 1.4079385164	 1.628347408	 2.2848788211	 0.118191
H	 4.0295776833	 0.7872308161	 0.8966307364	 0.115399
H	 3.3751548273	 0.1765183342	 2.4219242798	 0.117584
H	 1.582516957	-2.341973364	 1.6182602604	 0.091854
H	-0.8325222687	-1.7501524789	 0.6028177938	 0.091782
169.3211	288.4256	295.9738	370.13	518.8172	577.4487	619.8264	664.2248	687.1591	732.59	778.5489	810.0799	842.7604	847.6609	860.3977	897.5144	928.1696	1003.7689	1009.7367	1019.5827	1040.5924	1090.7786	1106.8869	1175.3378	1192.7919	1215.6316	1218.9678	1255.1468	1265.0281	1292.3454	1301.1772	1341.4287	1356.8706	1394.574	1449.5456	1468.7321	1484.0829	1490.5963	1540.0554	3040.009	3049.3108	3054.0418	3067.2242	3104.7043	3122.4243	3124.5231	3224.4961	3240.0808
C1C2CCC3=CC=C1N23	C1[C@H]2CC[C]3C=C[C]1N23	
InChI=1S/C8H9N/c1-3-7-5-8-4-2-6(1)9(7)8/h1,3,8H,2,4-5H2	InChI=1S/C8H9N/c1-3-7-5-8-4-2-6(1)9(7)8/h1,3,8H,2,4-5H2/t8-/m1/s1
