21
gdb 118362	2.21641	0.95223	0.71067	1.5267	79.98	-0.244	-0.0196	0.2245	1605.265	0.180052	-424.214432	-424.203983	-424.203038	-424.251386	36.587	
O	-0.1173070305	 1.3861689219	-0.1527690653	-0.42005
C	 0.025030331	-0.0228757937	-0.0726314358	-0.086025
C	-1.3751309536	-0.6222620946	-0.0058742787	-0.193727
C	-1.3807233447	-2.1594652992	 0.0832239436	-0.097073
C	-0.7852698152	-2.6193253433	 1.4021475413	 0.17203
O	 0.184379077	-3.3226301823	 1.5233064414	-0.258325
C	-2.7932356848	-2.7170960068	-0.0300470209	 0.011123
C	-3.3719133354	-3.0420004459	-1.3844829648	-0.27288
C	-3.0151711233	-4.1541323401	-0.4297717221	-0.275702
H	 0.7610746695	 1.7765017882	-0.1793261957	 0.28787
H	 0.5572208343	-0.4238144354	-0.9507660147	 0.090988
H	 0.6068072247	-0.3158545033	 0.8161775829	 0.09757
H	-1.8990171447	-0.1952628832	 0.8591246614	 0.108386
H	-1.937129169	-0.3127009127	-0.8933356063	 0.117186
H	-0.7588012954	-2.586230773	-0.7129215053	 0.087001
H	-1.3427661503	-2.2518842952	 2.2982523471	 0.069153
H	-3.4890747481	-2.3093169033	 0.6995192926	 0.088698
H	-4.4202124562	-2.8271962134	-1.5594012379	 0.117088
H	-2.7382832672	-2.8970793064	-2.2533882528	 0.115951
H	-2.1393300922	-4.7538620678	-0.6543146937	 0.124524
H	-3.8187375661	-4.7039422505	 0.0470973337	 0.116215
48.5035	65.7894	79.1684	101.9558	125.0736	203.23	267.2086	272.7384	322.9659	351.0611	419.5964	457.0861	564.682	776.2585	783.1251	828.4408	851.9529	920.4292	937.7678	976.8555	989.4466	1023.647	1060.4545	1073.043	1081.134	1101.8017	1134.1704	1138.8193	1178.0962	1198.7346	1219.9233	1225.9754	1248.4873	1278.6365	1304.4747	1321.3402	1353.3858	1410.6998	1425.7148	1467.187	1472.3604	1491.6496	1505.7774	1526.3324	1832.2043	2835.9772	2964.186	2990.4698	3030.0568	3044.1014	3081.7908	3131.6197	3132.8271	3137.857	3210.7753	3225.6258	3831.1775
OCCC(C=O)C1CC1	OCC[C@@H](C=O)C1CC1	
InChI=1S/C7H12O2/c8-4-3-7(5-9)6-1-2-6/h5-8H,1-4H2	InChI=1S/C7H12O2/c8-4-3-7(5-9)6-1-2-6/h5-8H,1-4H2/t7-/m0/s1
