23
gdb 113383	2.72132	0.96541	0.81785	1.5122	83.64	-0.2395	0.0708	0.3103	1533.5555	0.202908	-425.397508	-425.386476	-425.385532	-425.433783	39.733	
C	-1.9035377333	-0.0900659175	-3.4052711255	-0.37332
C	-1.163135702	-0.5898787005	-2.1581568525	-0.212523
C	-2.1154943982	-1.13743878	-1.1140949925	-0.044974
C	-2.5635313048	-2.585120276	-1.1180975153	-0.343224
C	-1.7334291898	-2.0459692422	 0.026395646	 0.421164
C	-0.3124459914	-2.5189329905	 0.2147843419	-0.15594
O	-0.3215353629	-3.8835315759	 0.6326507972	-0.41935
O	-2.4110620769	-1.7333960128	 1.2143830572	-0.2965
C	-2.8426533594	-2.8444780259	 1.9859246307	-0.242454
H	-1.2044028884	 0.2984703178	-4.1522452142	 0.108966
H	-2.4806341794	-0.8971276229	-3.8683900311	 0.119662
H	-2.6032000943	 0.7137707887	-3.1519009022	 0.116143
H	-0.4439542528	-1.361328432	-2.4566405798	 0.095873
H	-0.5744808201	 0.2319438232	-1.7294792641	 0.098725
H	-2.8903233714	-0.4356844403	-0.8145881252	 0.093523
H	-3.6069245588	-2.8031149826	-0.9218414276	 0.114074
H	-2.0796198059	-3.2683625134	-1.8091774141	 0.113475
H	 0.2503052309	-2.4090326407	-0.7222722511	 0.085327
H	 0.1633892141	-1.8773490848	 0.9714270022	 0.09629
H	 0.582433339	-4.1320213321	 0.8489009448	 0.28547
H	-3.471068721	-3.5253888115	 1.3952622565	 0.103574
H	-2.0015950801	-3.4186188006	 2.3871384843	 0.122134
H	-3.4364838131	-2.4362240075	 2.8080635544	 0.113885
69.1767	84.8011	110.5569	140.0893	155.0612	205.134	234.5637	249.8619	264.1976	309.9718	349.2542	381.7652	417.4438	465.4893	636.7309	711.2318	787.0882	825.669	902.6242	921.1804	937.2017	976.9424	996.7732	1042.8251	1047.4343	1060.4989	1083.8029	1126.8981	1129.5083	1187.1944	1192.235	1216.3583	1228.1099	1251.3234	1295.6044	1302.1128	1318.4884	1349.4615	1410.6676	1421.3164	1463.9082	1474.9048	1483.0829	1486.1288	1491.2641	1498.2361	1503.7321	1508.1907	1514.8493	2988.3839	3006.5243	3017.7361	3028.3942	3033.0364	3056.1584	3078.311	3101.6515	3105.9651	3115.9522	3130.9064	3140.373	3220.1848	3821.8178
CCC1CC1(CO)OC	CC[C@H]1C[C@]1(CO)OC	
InChI=1S/C7H14O2/c1-3-6-4-7(6,5-8)9-2/h6,8H,3-5H2,1-2H3	InChI=1S/C7H14O2/c1-3-6-4-7(6,5-8)9-2/h6,8H,3-5H2,1-2H3/t6-,7+/m0/s1
