16
gdb 44987	3.43163	1.26155	1.05983	3.3525	76.58	-0.2378	0.0197	0.2576	1125.5432	0.124379	-400.747125	-400.739282	-400.738337	-400.779429	30.708	
O	 0.0090981391	-0.012449634	 0.1713900071	-0.364287
C	-0.0396256502	 1.1889293693	 0.0484426721	 0.387973
C	-1.302501053	 2.0702389775	 0.0207134195	-0.354667
C	-0.7957630588	 3.4986426829	 0.0593587889	-0.089244
C	 0.0608715608	 3.9414908553	 1.2175600811	-0.319242
C	 0.7269493674	 3.4335680898	-0.0549983797	 0.16173
N	 1.0411033289	 2.0303648792	-0.0734865581	-0.364057
C	 1.5025825974	 4.298014388	-0.8921466372	 0.25526
C	 2.1745966312	 5.0237935527	-1.5760330999	-0.421321
H	-1.8635194342	 1.8592772057	-0.8949763435	 0.139246
H	-1.9437730616	 1.8017843474	 0.8647776904	 0.13966
H	-1.3209836292	 4.2624667562	-0.4992170362	 0.11568
H	 0.1131462569	 5.0064736479	 1.4124610186	 0.131919
H	 0.1382531118	 3.3041692022	 2.092852366	 0.126378
H	 1.978955834	 1.6835358907	 0.0552443733	 0.25697
H	 2.7608579697	 5.662087969	-2.1899912423	 0.198002
91.5086	142.3939	166.7611	317.4851	420.9267	440.1666	458.2859	483.5352	534.6167	579.3511	590.0009	594.1199	650.9094	679.2176	757.07	832.0819	861.0213	894.9535	924.6872	966.1606	1041.7083	1063.2781	1083.9256	1090.1107	1192.5363	1236.8165	1248.209	1287.4399	1301.9397	1370.3234	1416.9347	1462.9213	1476.9762	1835.0627	2239.6495	3063.287	3104.8149	3130.8458	3196.9236	3228.5823	3500.479	3637.9525
O=C1CC2CC2(N1)C#C	O=C1C[C@H]2C[C@]2(N1)C#C	
InChI=1S/C7H7NO/c1-2-7-4-5(7)3-6(9)8-7/h1,5H,3-4H2,(H,8,9)	InChI=1S/C7H7NO/c1-2-7-4-5(7)3-6(9)8-7/h1,5H,3-4H2,(H,8,9)/t5-,7+/m0/s1
