13
gdb 20585	3.59824	1.89514	1.25101	2.6415	68.94	-0.2393	-0.0241	0.2152	903.9658	0.094509	-361.437311	-361.429979	-361.429035	-361.469068	26.507	
C	 0.0655601357	 1.4986433887	 0.0684159033	-0.5039
C	-0.0432760164	 0.0183366713	 0.0696079151	 0.348707
C	-1.1172895515	-0.8332658809	-0.0114706479	-0.044795
C	-0.5078417003	-2.1260449319	 0.0464505373	-0.05645
N	 0.7908536575	-2.0598741065	 0.1509621679	-0.131558
O	 1.0877405784	-0.6929728069	 0.1657883051	-0.205266
C	-2.4851407698	-0.5064120311	-0.1242087415	 0.233884
C	-3.6542871411	-0.2345728363	-0.2205264546	-0.445931
H	 0.6774618499	 1.8445406993	-0.7710329182	 0.156194
H	-0.9295369405	 1.9387603713	-0.0144848525	 0.156185
H	 0.5359925169	 1.8563886255	 0.990075026	 0.156191
H	-0.9934148276	-3.0906857184	 0.0136821025	 0.142674
H	-4.6853407613	 0.0045294158	-0.3054645526	 0.194065
95.4319	136.0767	172.5241	248.1198	320.2242	474.649	512.4896	557.7207	591.8808	633.6251	667.285	697.3739	701.2816	897.1924	912.7663	956.2902	1010.9203	1062.9547	1159.3388	1204.7655	1272.7366	1388.1969	1417.7386	1474.7772	1478.1226	1519.1764	1640.4279	2237.276	3043.2197	3100.7509	3144.5304	3251.7757	3502.8442
CC1=C(C=NO1)C#C	Cc1c(cno1)C#C	
InChI=1S/C6H5NO/c1-3-6-4-7-8-5(6)2/h1,4H,2H3	InChI=1S/C6H5NO/c1-3-6-4-7-8-5(6)2/h1,4H,2H3
