17
gdb 97783	2.86205	0.80206	0.67809	0.8987	85.34	-0.2372	0.0212	0.2584	1652.6627	0.133133	-384.602058	-384.592162	-384.591218	-384.638486	34.967	
O	 0.0837118089	 1.196554877	-0.7340238696	-0.409635
C	-0.0480735607	 0.1722373256	 0.2461845272	-0.218369
C	-1.3850083158	-0.40061997	 0.1890610843	 0.115561
C	-2.4821970018	-0.8962762648	 0.1553798088	 0.085301
C	-3.7920250622	-1.4705760267	 0.12696496	-0.198762
C	-4.3593777854	-2.0328398517	-1.1584440836	-0.289119
C	-3.9850773479	-2.9905611116	-0.0501995522	-0.191665
C	-2.8608751972	-3.8661164895	-0.1842423347	 0.345881
C	-1.9284038004	-4.6185280568	-0.2859647144	-0.463188
H	 0.9798551742	 1.5419489622	-0.6667096799	 0.288107
H	 0.6901587665	-0.6303420654	 0.0847513998	 0.118479
H	 0.1301690722	 0.5675731279	 1.2598464949	 0.115313
H	-4.5126613406	-1.0139051961	 0.7995488283	 0.117574
H	-5.4136083541	-1.8768161974	-1.3561999707	 0.124644
H	-3.7143202803	-2.0112236526	-2.0276512186	 0.14428
H	-4.8129809462	-3.3982668009	 0.5226078046	 0.119941
H	-1.1016217992	-5.2776809593	-0.3796344342	 0.195657
24.9928	62.6422	95.034	161.1582	197.5886	233.1393	238.5453	305.3631	426.607	443.7203	516.1917	577.0316	587.9304	627.5965	650.2398	722.4132	765.2972	833.761	895.8543	963.798	1021.041	1025.2165	1057.6991	1078.8945	1117.6611	1135.6138	1169.0248	1230.7963	1246.8386	1256.8006	1377.4862	1393.0456	1460.0524	1478.9877	1501.1338	2240.7596	2368.4056	2961.7639	2979.9131	3141.1597	3146.2945	3152.0774	3246.098	3506.5661	3816.4597
OCC#CC1CC1C#C	OCC#C[C@H]1C[C@H]1C#C	
InChI=1S/C8H8O/c1-2-7-6-8(7)4-3-5-9/h1,7-9H,5-6H2	InChI=1S/C8H8O/c1-2-7-6-8(7)4-3-5-9/h1,7-9H,5-6H2/t7-,8+/m1/s1
