15
gdb 14720	10.4954	0.57422	0.55	6.3474	76.34	-0.281	-0.0368	0.2442	1866.1608	0.117652	-362.647848	-362.638824	-362.637879	-362.682543	30.304	
O	-0.0419137256	 1.4409468906	 0.0106337882	-0.418347
C	 0.0324497036	 0.0274630045	 0.002051588	-0.073911
C	-1.3962525348	-0.5029944789	 0.0128318054	-0.164802
C	-1.4332559347	-2.0450840442	 0.0046219075	-0.379214
C	-2.7843841403	-2.5782514262	 0.0145924465	 0.052465
C	-3.9151203714	-3.0042115474	 0.0231268943	 0.087995
C	-5.19080146	-3.4897002667	 0.0328045485	 0.205463
N	-6.2765514102	-3.903233018	 0.041144038	-0.338656
H	 0.852790777	 1.7933382646	 0.0038559378	 0.290724
H	 0.5601531003	-0.3438519138	-0.8924073788	 0.089895
H	 0.5772051197	-0.3537243675	 0.8820184508	 0.089894
H	-1.9127691869	-0.123797991	 0.8998265316	 0.130069
H	-1.929676107	-0.1140321065	-0.8598116492	 0.130066
H	-0.9081178417	-2.4278365279	-0.8807474559	 0.149178
H	-0.8912498081	-2.4375859017	 0.8754416475	 0.149182
62.8166	64.057	110.0078	158.9689	184.3831	251.4934	273.6024	367.899	385.1662	510.9565	578.1261	583.1102	730.2244	753.1148	862.5459	1012.8756	1026.4096	1089.5957	1113.3401	1174.8916	1211.894	1231.1549	1294.3366	1302.3829	1312.1369	1368.1859	1463.9612	1467.816	1498.2711	1528.384	2266.6239	2402.9138	2955.2012	2981.0302	3016.164	3047.5217	3061.0451	3108.8717	3831.9493
OCCCC#CC#N	OCCCC#CC#N	
InChI=1S/C6H7NO/c7-5-3-1-2-4-6-8/h8H,2,4,6H2	InChI=1S/C6H7NO/c7-5-3-1-2-4-6-8/h8H,2,4,6H2
