23
gdb 91107	2.61573	1.72077	1.39655	0.2016	86.86	-0.2563	0.0753	0.3316	1056.7162	0.210081	-351.174553	-351.167062	-351.166118	-351.206122	31.697	
C	-0.2286283136	 1.5585372393	-0.0553529739	-0.415933
C	 0.0234943955	 0.052414104	-0.0040925091	 0.067912
C	 0.7733946663	-0.5263496919	-1.2324036689	-0.250903
C	 1.4209731379	-1.8091000216	-0.7186128504	-0.041407
C	 2.6351525287	-1.7208108379	 0.1926103035	-0.034189
C	 3.1921334252	-0.3496227996	 0.5671559024	-0.236243
C	 2.1352920736	 0.2529692631	 1.5276317594	-0.200492
C	 0.8079806134	-0.4865422703	 1.2261351819	-0.052748
C	 1.2562782968	-1.8955990882	 0.7827050333	-0.083589
H	 0.7019374222	 2.1252343675	-0.1646226052	 0.114878
H	-0.8666174066	 1.8167261302	-0.9076717341	 0.110175
H	-0.7312290695	 1.9121335487	 0.851806554	 0.108906
H	-0.9530442753	-0.4498205347	 0.0302591254	 0.068634
H	 0.0868939442	-0.7333540532	-2.0591580225	 0.091783
H	 1.5136155432	 0.1876202701	-1.6166274521	 0.093631
H	 1.3435242992	-2.7051371865	-1.3253944247	 0.074747
H	 3.3197167857	-2.5618390406	 0.1573286365	 0.074753
H	 4.1655968631	-0.4475469165	 1.0568018615	 0.092953
H	 3.3513397525	 0.2843763329	-0.3131033182	 0.097369
H	 2.4249897916	 0.0295284525	 2.5603646314	 0.094894
H	 2.0547160575	 1.3411972809	 1.4516563882	 0.090938
H	 0.1638729489	-0.5033289602	 2.1098404968	 0.060308
H	 0.9350092594	-2.7916410878	 1.2996102847	 0.073621
98.1911	223.4102	269.1045	284.0286	330.6495	445.0103	481.8583	504.276	665.6015	686.6778	708.1269	747.8328	792.9357	801.3989	852.3786	883.4104	917.1667	926.4967	940.3249	959.3257	982.7007	1002.4981	1018.0575	1026.8883	1071.8203	1086.6481	1098.0658	1127.0176	1151.8983	1158.7859	1185.903	1214.5154	1224.1837	1275.2601	1282.7634	1288.248	1306.668	1322.8777	1333.6732	1355.5575	1366.6347	1374.1958	1407.2142	1411.1443	1484.8658	1495.3502	1497.1636	1507.4283	1521.06	3001.6877	3022.893	3028.1692	3033.1042	3039.2892	3066.8097	3072.2793	3075.2295	3089.3366	3091.4211	3099.5272	3153.739	3162.2406	3182.0493
CC1CC2C3CCC1C23	C[C@H]1C[C@H]2[C@H]3CC[C@@H]1[C@@H]23	
InChI=1S/C9H14/c1-5-4-8-7-3-2-6(5)9(7)8/h5-9H,2-4H2,1H3	InChI=1S/C9H14/c1-5-4-8-7-3-2-6(5)9(7)8/h5-9H,2-4H2,1H3/t5-,6-,7+,8-,9+/m0/s1
