21
gdb 36356	4.36992	0.7613	0.69497	0.813	90.	-0.2467	0.057	0.3037	1658.0795	0.181155	-349.892175	-349.882654	-349.88171	-349.927385	35.811	
C	 0.0639185048	-1.1971938905	-0.4672714491	-0.445217
C	 0.0345032713	-0.0515808425	-0.1046001782	 0.304861
C	 0.0237372959	 1.3390036701	 0.3413398286	-0.379241
C	 1.3844551431	 2.0095290606	 0.2019939357	 0.000964
C	 1.7911319434	 2.6743803966	-1.0890223083	-0.301014
C	 1.5331644067	 3.5147751921	 0.1414080205	-0.02574
C	 0.3700879798	 4.4550539917	 0.212674644	 0.033487
C	 0.0847698528	 5.2178700909	 1.4851242369	-0.269746
C	 0.6105442153	 5.9443939015	 0.2720833215	-0.28361
H	 0.0812263962	-2.2080758946	-0.7907955584	 0.192024
H	-0.7299514078	 1.8930352199	-0.2301102104	 0.12623
H	-0.3036989229	 1.380090551	 1.388860147	 0.131922
H	 2.1717178226	 1.4817934312	 0.7327820464	 0.092268
H	 2.80815851	 2.5543441738	-1.4455315858	 0.110686
H	 1.0483196113	 2.7164197825	-1.8803853301	 0.111602
H	 2.4195417914	 3.8994995087	 0.6419119022	 0.078565
H	-0.5018402247	 4.1509032556	-0.3593190873	 0.078412
H	-0.9483991939	 5.3753390157	 1.7747709798	 0.110417
H	 0.7616525646	 5.0723323315	 2.3207481853	 0.110792
H	 1.640121146	 6.2869164249	 0.2923620598	 0.111568
H	-0.062651846	 6.5985092793	-0.27094345	 0.110768
47.5271	60.6184	104.2171	162.9139	224.3309	292.0619	330.0703	343.5355	403.05	485.9447	567.9466	614.4821	634.0489	737.4072	796.7728	811.4312	822.7662	858.2239	876.4286	917.9672	939.1826	963.2517	993.6357	1034.0512	1036.8778	1060.5461	1069.1374	1077.7073	1123.0289	1142.4121	1153.3201	1198.6718	1211.5775	1221.5499	1250.1544	1256.3693	1314.6421	1323.9066	1405.9099	1451.8663	1466.9137	1469.9464	1494.7777	1509.2408	2238.0763	3018.6544	3056.3681	3119.4842	3125.3447	3128.3127	3133.0269	3143.8005	3147.9088	3206.2521	3210.2656	3221.7716	3508.0564
C#CCC1CC1C1CC1	C#CC[C@H]1C[C@H]1C1CC1	
InChI=1S/C9H12/c1-2-3-8-6-9(8)7-4-5-7/h1,7-9H,3-6H2	InChI=1S/C9H12/c1-2-3-8-6-9(8)7-4-5-7/h1,7-9H,3-6H2/t8-,9-/m0/s1
