19
gdb 110267	2.36938	1.47907	1.05333	2.743	72.04	-0.2404	0.0722	0.3126	1170.5336	0.158773	-460.090093	-460.081499	-460.080554	-460.123152	33.172	
C	 0.113294604	 1.3290604368	 0.1598310846	-0.252999
O	-0.3033877325	 0.0219843256	-0.1891908388	-0.278132
C	 0.4950857216	-0.5643986567	-1.1968050578	 0.168569
C	 1.7814495296	-1.3692982563	-0.8033095044	-0.221789
C	 0.8335654392	-2.4767895808	-0.2238003946	 0.18795
O	 0.1922163384	-2.3260635064	 0.9991141904	-0.453119
C	 0.1550448915	-2.0320622877	-1.5690065026	-0.188784
C	 1.5806960164	-2.1063694497	-2.1668354888	 0.140907
O	 1.7674437896	-1.4124743028	-3.3755149118	-0.43782
H	 1.1203197832	 1.3335091533	 0.5998696408	 0.11696
H	 0.1123521654	 1.9895628132	-0.71897702	 0.117694
H	-0.599124538	 1.7116100579	 0.8938026926	 0.133233
H	 0.6081121155	 0.1303856554	-2.0333653832	 0.091788
H	 2.7163031624	-0.9948463375	-0.3829255486	 0.067739
H	 1.2523355634	-3.4880277856	-0.2380951665	 0.076877
H	-0.2192271036	-1.4496611948	 0.9891301143	 0.288818
H	-0.7660059438	-2.4040986412	-2.0176206311	 0.080141
H	 2.0093418322	-3.1149976884	-2.2114613505	 0.075165
H	 2.7131872955	-1.3584558541	-3.5442322142	 0.286803
87.1494	170.7355	180.4083	250.9185	268.2446	290.2393	316.7107	419.972	427.0337	481.1857	532.6536	603.5188	672.2747	717.9851	828.5667	855.8313	908.3438	935.7721	957.6522	1025.9671	1043.7274	1071.9634	1081.0615	1105.4005	1141.5071	1147.0218	1184.6216	1203.799	1213.0688	1216.6457	1233.2116	1248.5049	1280.7385	1319.1765	1347.1965	1414.3561	1443.1774	1482.9559	1488.3266	1502.4622	1510.7488	2991.981	3026.2679	3046.1261	3061.2976	3074.5383	3101.2528	3121.3018	3124.236	3714.536	3820.728
COC1C2C(O)C1C2O	CO[C@H]1[C@H]2[C@@H](O)[C@@H]1[C@H]2O	
InChI=1S/C6H10O3/c1-9-6-2-4(7)3(6)5(2)8/h2-8H,1H3	InChI=1S/C6H10O3/c1-9-6-2-4(7)3(6)5(2)8/h2-8H,1H3/t2-,3+,4+,5-,6-
