20
gdb 119282	2.29806	1.16923	0.91442	4.0828	79.64	-0.2745	0.0088	0.2833	1374.8788	0.169827	-403.150856	-403.141135	-403.140191	-403.186217	34.675	
C	 0.1647205517	 1.5418366618	 0.0826499302	-0.385614
C	 0.1005367861	 0.0128580753	 0.0462400082	-0.18113
C	 0.5990444344	-0.5627877427	-1.2840421857	-0.232933
C	 0.6150202823	-2.0907000785	-1.3195810188	 0.269635
C	 1.4201260307	-2.7685114355	-2.4666316357	-0.336973
C	 2.2574383179	-3.3800116687	-1.3277891356	-0.067579
O	 1.5083014732	-2.6503844792	-0.3262480544	-0.301284
C	-0.7449073642	-2.6415905463	-1.1627966016	 0.271385
N	-1.811158693	-3.0762063357	-1.0611767078	-0.345171
H	 1.1901534599	 1.9010558227	-0.0590180136	 0.114906
H	-0.4538623004	 1.9851425498	-0.7055550695	 0.116599
H	-0.192792901	 1.9271875986	 1.0420247571	 0.119334
H	 0.7057205102	-0.40779744	 0.8567612701	 0.1224
H	-0.9297903363	-0.3184809507	 0.221519183	 0.121739
H	-0.019338301	-0.2025851858	-2.1167285326	 0.112892
H	 1.6257138533	-0.228105654	-1.4754110864	 0.103304
H	 0.8629170866	-3.4694517668	-3.086759756	 0.136599
H	 1.9452668858	-2.0525672104	-3.1002481944	 0.124355
H	 2.1514659751	-4.462874399	-1.2006099544	 0.121164
H	 3.3195561585	-3.1160976449	-1.3067984921	 0.116372
64.4958	85.1087	93.748	133.9176	199.2578	204.2877	246.2374	322.1113	366.2053	404.8448	538.2828	576.7596	694.2535	745.9028	777.9298	847.0604	869.1786	901.0797	934.0502	977.4361	999.0043	1016.8659	1054.0741	1071.1351	1141.9306	1161.4501	1169.7703	1204.5701	1235.1091	1261.868	1283.3547	1316.2915	1337.2581	1351.2236	1396.5581	1413.0713	1468.8404	1487.5333	1494.1152	1499.9414	1509.5935	1530.804	2349.5423	3021.1885	3030.4572	3037.2855	3040.9295	3060.3135	3078.6239	3082.5971	3093.0469	3101.9499	3107.6303	3155.1675
CCCC1(CCO1)C#N	CCC[C@]1(CCO1)C#N	
InChI=1S/C7H11NO/c1-2-3-7(6-8)4-5-9-7/h2-5H2,1H3	InChI=1S/C7H11NO/c1-2-3-7(6-8)4-5-9-7/h2-5H2,1H3/t7-/m0/s1
