19
gdb 47811	2.17442	1.90312	1.19928	3.3982	75.55	-0.2346	-0.0254	0.2091	1060.7259	0.160637	-423.025263	-423.017391	-423.016447	-423.057793	30.609	
O	-0.0474058095	-0.0796699221	 0.0051465068	-0.297473
C	-0.013257975	 1.127630593	-0.0078644259	 0.343022
C	-1.3000521776	 1.9702696445	 0.0245416962	-0.149425
O	-1.6522445801	 2.2573418313	 1.369890744	-0.243166
C	-0.8543879715	 3.2090004032	 2.056670495	-0.062089
C	 0.5373166472	 2.6833661149	 2.4504646943	-0.242502
C	 1.5381429317	 2.7230081592	 1.3087806486	-0.005456
C	 2.3899553793	 1.5276970828	 0.9406481393	-0.310293
C	 1.2587803354	 1.9331323726	 0.0457731549	-0.115249
H	-1.1768598073	 2.8992742639	-0.5551133575	 0.088036
H	-2.1232812364	 1.3818162729	-0.387096923	 0.124774
H	-0.7609240214	 4.1327077716	 1.4613268978	 0.086654
H	-1.4280182582	 3.44710902	 2.9577222599	 0.111659
H	 0.9183192642	 3.2757974747	 3.2909710098	 0.102142
H	 0.4093773465	 1.6595999062	 2.821189317	 0.122193
H	 1.9905420237	 3.6984953049	 1.1495141959	 0.089489
H	 3.4065755496	 1.6984944736	 0.6044220198	 0.116318
H	 2.2521402367	 0.615103946	 1.5115319594	 0.133318
H	 1.4849654425	 2.4331432568	-0.8935841722	 0.108049
66.4705	167.3169	198.7892	279.3478	323.6308	369.4519	378.3045	458.6942	532.1817	579.2164	652.653	747.8867	820.2604	841.926	858.398	923.3525	939.8734	961.8525	978.3363	1017.8919	1061.0635	1074.0988	1094.436	1123.7276	1137.4855	1150.8561	1170.6551	1218.2111	1246.2052	1278.8723	1319.5197	1353.0163	1376.4395	1382.1038	1405.2279	1418.5416	1472.8002	1473.1523	1489.6512	1493.8466	1811.3118	2969.7552	2977.0194	3030.8203	3073.5914	3080.4826	3108.7428	3128.4431	3133.8134	3141.3281	3220.4143
O=C1COCCC2CC12	O=C1COCC[C@H]2C[C@@H]12	
InChI=1S/C7H10O2/c8-7-4-9-2-1-5-3-6(5)7/h5-6H,1-4H2	InChI=1S/C7H10O2/c8-7-4-9-2-1-5-3-6(5)7/h5-6H,1-4H2/t5-,6+/m0/s1
