16
gdb 44431	3.61148	1.51092	1.47245	5.1303	69.39	-0.2387	0.0047	0.2433	929.0739	0.126143	-437.79267	-437.78614	-437.785196	-437.823403	26.733	
O	-0.2041054083	 0.1142021943	-0.53282107	-0.309121
C	-0.0922156383	 1.2010214923	-0.0878183467	 0.424592
O	-1.1236116409	 2.0730303138	 0.3319591891	-0.275791
C	-0.1191922546	 2.8411093725	 1.0969827838	 0.141891
C	 0.7244281081	 4.1721950563	 1.0330660651	-0.11697
C	 1.9515210696	 3.1268498868	 1.1724255025	-0.322791
C	 0.9795262412	 2.2957881337	 0.2541028453	 0.035297
N	 0.8965183646	 3.1286382131	-0.987823365	-0.302742
C	 0.7715269765	 4.5071861388	-0.4503662543	-0.171341
H	-0.1387521136	 2.4646684126	 2.1203986194	 0.109333
H	 0.5782176516	 4.9746877696	 1.7545788071	 0.090026
H	 2.9066626991	 3.4426933287	 0.7472464577	 0.113664
H	 2.0768658764	 2.7462001795	 2.1857714492	 0.126674
H	 1.7460622565	 3.0001588789	-1.525558834	 0.230006
H	-0.1470407779	 4.9868390467	-0.8041328384	 0.12288
H	 1.61918925	 5.1507110225	-0.7101591508	 0.104391
146.9772	221.991	310.2405	373.0653	460.3414	476.1691	607.4709	674.9581	686.3881	709.3527	785.0196	796.3956	818.5917	837.3319	907.215	925.2977	968.7102	988.15	1008.8605	1019.4226	1057.3064	1066.3511	1103.7388	1133.9987	1161.5612	1183.3149	1218.2004	1235.3631	1271.5959	1339.2451	1401.9602	1405.7089	1482.9365	1521.1226	1952.9535	3035.5232	3073.5958	3076.2592	3097.5497	3134.8331	3155.2754	3540.0932
O=C1OC2C3CC12NC3	O=C1O[C@@H]2[C@H]3C[C@@]12NC3	
InChI=1S/C6H7NO2/c8-5-6-1-3(2-7-6)4(6)9-5/h3-4,7H,1-2H2	InChI=1S/C6H7NO2/c8-5-6-1-3(2-7-6)4(6)9-5/h3-4,7H,1-2H2/t3-,4+,6-/m0/s1
