13
gdb 50775	3.54635	0.65074	0.5624	2.6765	79.22	-0.2702	-0.0886	0.1817	1818.5145	0.084612	-419.374527	-419.364932	-419.363988	-419.412011	31.582	
O	-0.4039726501	 0.700187339	 0.9867767068	-0.219235
C	-0.0186486763	 1.1085149298	-0.0722206581	 0.171338
C	 1.3593979854	 1.7559061084	-0.2685130712	-0.424978
C	 1.3435240531	 2.8317018016	-1.2415651437	-0.012721
C	 1.2867394648	 3.7225866516	-2.0541158883	 0.104251
C	 1.251803877	 4.8003886606	-3.0163024876	 0.156994
O	 2.055743364	 5.7112824622	-3.0167005374	-0.262892
C	 0.1775067575	 4.7091206658	-3.985562114	 0.283217
C	-0.7120509051	 4.6413995366	-4.7933445162	-0.470126
H	-0.6259438616	 1.0299198114	-0.9987043345	 0.105052
H	 1.7350703051	 2.0841844269	 0.7059376118	 0.171883
H	 2.034340139	 0.959466043	-0.6185462979	 0.174101
H	-1.4951541928	 4.5899323129	-5.5106127096	 0.223115
14.5879	47.4317	69.4669	133.44	159.8113	226.7889	261.6716	379.6645	418.7688	454.7806	559.4297	596.6347	654.8795	695.2707	707.8324	749.4682	772.329	998.8825	1024.1897	1038.7643	1204.7139	1222.6371	1285.6972	1412.8766	1429.0854	1723.1287	1845.9521	2216.888	2334.4332	2914.4071	3007.6128	3086.1525	3492.5997
O=CCC#CC(=O)C#C	O=CCC#CC(=O)C#C	
InChI=1S/C7H4O2/c1-2-7(9)5-3-4-6-8/h1,6H,4H2	InChI=1S/C7H4O2/c1-2-7(9)5-3-4-6-8/h1,6H,4H2
