15
gdb 133690	2.4846	1.16475	1.01955	3.2853	55.69	-0.2656	0.0166	0.2822	1173.6947	0.107909	-585.487044	-585.477842	-585.476898	-585.52221	32.064	
C	-0.2788378419	 1.814328009	 0.0964760143	-0.412295
C	 0.0137431118	 0.3123344743	 0.0742439633	-0.106143
N	 0.7879161232	-0.1176371546	 1.2216806337	-0.284009
C	 1.9610531971	-0.8050357133	 1.1011068452	 0.160125
O	 2.5057301928	-1.069914492	 0.0532047897	-0.312812
C	-1.2776390393	-0.5060177763	 0.0060630021	 0.282784
F	-2.0204047096	-0.1518646546	-1.0509868151	-0.074244
F	-1.0289123378	-1.8145458486	-0.0848190039	-0.065337
F	-2.0252563569	-0.3131216545	 1.111635951	-0.094956
H	 0.6611427845	 2.3697611951	 0.0978605525	 0.138634
H	-0.8598664053	 2.1061588965	-0.7810030581	 0.144054
H	-0.8486200686	 2.0887342865	 0.9895746762	 0.12964
H	 0.6051373309	 0.0447214212	-0.8049408876	 0.152779
H	 0.3940657411	 0.0144235377	 2.1405004536	 0.256079
H	 2.3755827678	-1.0815509764	 2.0894262233	 0.085702
38.8313	65.6587	163.7812	188.9607	214.9003	250.0999	270.1142	360.9233	411.7725	466.9691	526.2783	543.8693	579.4578	657.8457	763.3325	840.1979	908.904	1026.5872	1034.4175	1104.8428	1134.1843	1183.7946	1214.0163	1227.5084	1280.2834	1339.2255	1386.5278	1412.3672	1429.7078	1491.3916	1497.41	1530.3184	1811.0329	2952.9843	3052.5262	3103.2231	3128.9301	3143.3391	3630.2374
CC(NC=O)C(F)(F)F	C[C@@H](NC=O)C(F)(F)F	
InChI=1S/C4H6F3NO/c1-3(8-2-9)4(5,6)7/h2-3H,1H3,(H,8,9)	InChI=1S/C4H6F3NO/c1-3(8-2-9)4(5,6)7/h2-3H,1H3,(H,8,9)/t3-/m1/s1
