18
gdb 23139	2.12324	1.32854	0.95055	0.6644	81.35	-0.2383	0.0046	0.2429	1267.6471	0.145383	-401.857605	-401.848165	-401.847221	-401.892314	35.068	
O	-0.4461537397	 1.8158399814	 1.1469717452	-0.397835
N	-0.1212932723	 0.4523730992	 1.2130017466	-0.181263
C	-0.8923401763	-0.2728108369	 0.4903550434	 0.358959
C	-0.5772199658	-1.757910592	 0.5755929241	-0.42582
C	-0.1904484339	-2.3828601372	-0.6878548117	 0.314297
C	 0.1376421136	-2.9142239203	-1.7150871511	-0.466158
C	-2.0390318404	 0.2501065784	-0.2885350895	-0.071177
C	-2.1303717428	 0.1076699667	-1.8029442181	-0.257357
C	-3.0806056364	-0.6464618621	-0.9239936189	-0.285328
H	 0.1881340842	 2.2008111849	 1.7604046401	 0.306627
H	 0.232991657	-1.8709902123	 1.3025275473	 0.15282
H	-1.4500238865	-2.2849059167	 0.9837753405	 0.141312
H	 0.4307627987	-3.3832176877	-2.621635237	 0.201274
H	-2.3948261348	 1.1981795916	 0.0945960176	 0.114374
H	-2.4904164889	 0.9718609239	-2.3495903317	 0.116812
H	-1.3530136526	-0.4581454562	-2.3001721164	 0.137328
H	-2.9471582806	-1.7202035649	-0.8581527407	 0.124798
H	-4.1131356723	-0.3209515797	-0.8636695397	 0.116337
50.711	73.2641	131.1538	218.3492	245.0472	291.5359	305.3842	354.1135	408.3225	431.0878	458.5964	604.9684	621.558	641.4056	659.4875	749.933	805.2707	840.1882	891.743	921.5164	955.6125	959.932	1018.5774	1062.0463	1077.9901	1090.0894	1144.5198	1203.775	1213.6929	1228.4608	1294.4757	1324.6953	1373.6425	1419.7448	1454.8834	1468.5405	1499.6276	1710.8543	2235.5368	3020.5221	3083.156	3139.1755	3147.0847	3191.4401	3222.0438	3244.0313	3504.3534	3823.7483
ON=C(CC#C)C1CC1	ON=C(CC#C)C1CC1	
InChI=1S/C7H9NO/c1-2-3-7(8-9)6-4-5-6/h1,6,9H,3-5H2	InChI=1S/C7H9NO/c1-2-3-7(8-9)6-4-5-6/h1,6,9H,3-5H2
