21
gdb 68290	2.82918	1.40878	1.32779	1.8188	82.67	-0.2265	0.0841	0.3106	1104.0273	0.181839	-387.019722	-387.011349	-387.010404	-387.05248	33.106	
C	 0.0465135865	 1.4888783948	 0.0764070806	-0.519549
C	 0.0022870233	 0.0001835379	-0.0651635652	 0.325184
C	 0.7070417161	-0.9293813658	-1.090466825	-0.274346
C	 0.0863721687	-1.7954489635	 0.0259608501	-0.021242
O	 0.5959235507	-0.8314878625	 1.0268172251	-0.353604
C	-1.2146491948	-0.9652432552	-0.0549847207	 0.408382
C	-2.2788129736	-1.027285556	 1.0577993442	-0.307514
C	-3.2872826561	-1.5721897912	 0.0047251811	-0.214667
C	-2.3138066098	-1.1402484201	-1.1298561068	-0.327398
H	 1.0802856262	 1.8369635684	 0.1622399843	 0.134237
H	-0.4072870255	 1.9664941223	-0.798005511	 0.12523
H	-0.5010003657	 1.8075544908	 0.969003706	 0.132788
H	 0.2904427573	-0.9988733623	-2.0986199353	 0.095329
H	 1.797052394	-0.8792499149	-1.0810570579	 0.100736
H	 0.2224048042	-2.8565175037	 0.2396600361	 0.087481
H	-2.0546292617	-1.6561529617	 1.9213436417	 0.108805
H	-2.5556392287	-0.0324223018	 1.4217339018	 0.098671
H	-3.3966014445	-2.6583700023	 0.0608793013	 0.103436
H	-4.2839527269	-1.1260980341	-0.0054849929	 0.097875
H	-2.6029456864	-0.1871187706	-1.5848857502	 0.100893
H	-2.1272958434	-1.8594087582	-1.9318244471	 0.099274
80.6997	172.6959	184.5302	204.568	229.5798	334.9749	371.0894	454.369	544.2837	630.8541	649.7299	699.0939	720.1431	765.1595	799.8004	867.6004	878.004	903.5432	937.0613	951.2289	958.4991	1011.5018	1020.6844	1040.851	1104.4844	1121.3407	1142.4586	1150.6586	1166.6336	1197.0243	1205.2955	1233.1764	1244.8522	1252.2045	1274.4457	1276.157	1301.3146	1363.2422	1411.8321	1471.271	1475.5212	1480.2719	1487.5519	1490.4779	1503.2932	3036.8267	3044.0542	3052.0337	3061.0617	3063.3047	3093.104	3108.5744	3109.4342	3109.9191	3112.7839	3122.4133	3140.3678
CC12CC(O1)C21CCC1	C[C@@]12C[C@@H](O1)C12CCC1	
InChI=1S/C8H12O/c1-7-5-6(9-7)8(7)3-2-4-8/h6H,2-5H2,1H3	InChI=1S/C8H12O/c1-7-5-6(9-7)8(7)3-2-4-8/h6H,2-5H2,1H3/t6-,7+/m1/s1
