16
gdb 123814	5.57671	0.97386	0.87849	1.3408	70.79	-0.2313	0.0011	0.2324	1291.6241	0.126038	-434.04208	-434.034424	-434.03348	-434.075259	28.241	
C	-0.3649841608	 1.0952780668	-0.1719435525	-0.277775
C	 1.100860205	 1.0564888927	 0.2190007399	-0.29949
C	 0.3501730008	-0.2120530852	-0.0077019251	 0.152482
O	 0.0989795682	-0.9759877756	 1.1521647277	-0.274759
C	-0.904224599	-1.8639893523	 1.0709428136	 0.387656
N	-1.6343427117	-2.0892907702	-0.0179965392	-0.300855
N	-2.4701357868	-3.0488406728	 0.3930661091	-0.084185
N	-2.3398418639	-3.4556885598	 1.6438548373	-0.188421
C	-1.3378249078	-2.7117377306	 2.1098529245	-0.143959
H	-1.0745435812	 1.3665831689	 0.6010718341	 0.126283
H	-0.6391698402	 1.4073442031	-1.173218617	 0.120969
H	 1.8511035353	 1.3462315492	-0.5076581018	 0.119758
H	 1.3445068591	 1.299256313	 1.2469852388	 0.129058
H	 0.5535478404	-0.8175103739	-0.8852990799	 0.112926
H	-3.1666163814	-3.4347802791	-0.2216197939	 0.291804
H	-0.978756946	-2.8045733442	 3.1208387744	 0.128507
60.5164	65.7439	151.3297	310.2945	359.8715	392.1663	427.4534	481.9594	704.2871	731.4066	735.0516	764.1394	828.3606	846.5575	851.9378	976.6001	984.7027	991.4481	1042.4533	1058.8843	1074.7776	1120.5377	1161.7767	1183.2195	1190.4551	1202.1837	1239.267	1261.272	1381.2222	1388.7054	1424.5823	1454.919	1494.9428	1515.5865	1589.3179	3141.3951	3144.0299	3160.4489	3224.67	3238.4951	3284.3942	3682.9284
C1CC1OC1=NNN=C1	C1CC1Oc1n[nH]nc1	
InChI=1S/C5H7N3O/c1-2-4(1)9-5-3-6-8-7-5/h3-4H,1-2H2,(H,6,7,8)	InChI=1S/C5H7N3O/c1-2-4(1)9-5-3-6-8-7-5/h3-4H,1-2H2,(H,6,7,8)
