16
gdb 98172	2.31576	1.26091	1.14073	3.6135	65.93	-0.2866	-0.0295	0.257	1173.2149	0.120822	-475.059012	-475.04884	-475.047896	-475.09488	34.829	
C	-0.422580538	 1.3564040588	-0.5307613524	-0.247333
O	-0.3526839714	-0.0713515518	-0.6935190092	-0.251205
C	 0.8808124298	-0.5831945943	-0.8275171274	 0.441947
O	 1.897662181	 0.0526992157	-0.8134359528	-0.344395
C	 0.7868788759	-2.1225234468	-1.0088820185	 0.102639
C	 2.127767263	-2.7813902574	-0.6893519004	-0.4008
O	-0.1877091058	-2.6710751589	-0.1469847572	-0.432408
C	 0.4156703659	-2.3629034677	-2.4279093593	 0.257421
N	 0.1073098813	-2.5442508962	-3.5267252847	-0.327665
H	 0.1039282416	 1.6590076214	 0.3770247179	 0.152173
H	 0.0282759303	 1.8553659957	-1.3911080413	 0.156562
H	-1.4831500404	 1.5934122466	-0.4589372413	 0.146225
H	 2.371005745	-2.5934371052	 0.3582842916	 0.142641
H	 2.050675541	-3.8573686367	-0.8543447868	 0.146119
H	 2.9153298993	-2.3661058873	-1.3182815155	 0.155794
H	-0.9878129285	-2.137820316	-0.2321695026	 0.302286
35.1523	95.1375	107.6611	172.7194	183.664	202.2357	211.6881	314.5468	326.6506	373.4402	398.0072	437.6565	472.6118	602.6937	621.7177	766.9765	811.3437	883.818	953.1028	1007.7933	1097.9198	1162.3732	1179.2227	1181.9614	1214.1958	1258.183	1386.5911	1411.8825	1473.0931	1476.988	1481.4952	1486.5873	1494.8036	1843.9552	2350.567	3060.7394	3069.0186	3141.4876	3151.2696	3165.8136	3172.9324	3794.8458
COC(=O)C(C)(O)C#N	COC(=O)[C@@](C)(O)C#N	
InChI=1S/C5H7NO3/c1-5(8,3-6)4(7)9-2/h8H,1-2H3	InChI=1S/C5H7NO3/c1-5(8,3-6)4(7)9-2/h8H,1-2H3/t5-/m0/s1
