23
gdb 102321	2.66752	0.91976	0.72601	3.2147	83.66	-0.2326	-0.0011	0.2314	1635.9399	0.2019	-425.446122	-425.434712	-425.433768	-425.483405	40.441	
C	-0.0176395832	 1.562089526	 0.0806397961	-0.390151
C	-0.0403046779	 0.0381446676	-0.0676751578	-0.197701
C	 0.6949494562	-0.4823364011	-1.327893905	-0.051107
C	 0.8761452187	-2.0081602807	-1.2661749981	-0.200157
C	 1.6722026448	-2.5817683456	-2.4374165168	 0.107457
C	 1.9789485771	-4.0703005642	-2.2719996493	-0.394687
O	 0.8783068076	-2.3524017144	-3.6032844377	-0.4195
C	-0.1014956435	-0.0463590958	-2.5471020159	 0.186163
O	 0.1713759192	 0.8985318212	-3.2432578682	-0.276486
H	 1.0089044057	 1.9305515319	 0.1798634443	 0.118145
H	-0.4596146274	 2.0589820558	-0.7876487484	 0.137882
H	-0.5731786169	 1.8740469425	 0.9702763665	 0.111678
H	 0.4211013489	-0.4255534671	 0.8127825712	 0.098769
H	-1.0785708983	-0.3211757378	-0.0870769218	 0.100685
H	 1.6746281804	 0.0073341449	-1.3927054912	 0.083492
H	 1.3807727201	-2.2674479112	-0.3285739923	 0.098778
H	-0.1051856067	-2.501609503	-1.2430412709	 0.106632
H	 2.6207707887	-2.0266437696	-2.5182728231	 0.072358
H	 1.0508240844	-4.6423358929	-2.1754625212	 0.125439
H	 2.5234612359	-4.4521907261	-3.1422733903	 0.10804
H	 2.5957171936	-4.2503245634	-1.38530679	 0.114674
H	 1.4379108439	-2.4302867827	-4.3816111457	 0.288337
H	-1.0332116311	-0.6342729742	-2.7107404241	 0.071263
40.8238	73.1348	99.5179	122.6718	133.8886	219.6221	234.3924	250.8885	277.9394	299.5388	312.156	350.7178	421.3783	472.0356	474.1796	577.4293	772.5747	842.8474	852.0206	896.5593	937.2912	959.1462	1007.5068	1033.9613	1035.487	1074.8737	1094.5396	1130.08	1146.2915	1160.9448	1200.8274	1261.189	1290.8293	1299.1051	1345.7182	1354.7446	1368.9923	1385.5894	1405.8567	1416.5219	1422.0323	1426.938	1468.8765	1488.9492	1491.0713	1497.0547	1497.4794	1506.5437	1824.3711	2871.6638	2970.1799	3011.9904	3020.2084	3031.5317	3036.2973	3038.3742	3050.3381	3071.2634	3100.023	3104.1918	3112.6403	3116.84	3831.0589
CCC(CC(C)O)C=O	CC[C@@H](C[C@@H](C)O)C=O	
InChI=1S/C7H14O2/c1-3-7(5-8)4-6(2)9/h5-7,9H,3-4H2,1-2H3	InChI=1S/C7H14O2/c1-3-7(5-8)4-6(2)9/h5-7,9H,3-4H2,1-2H3/t6-,7+/m1/s1
