18
gdb 46749	2.79083	1.7704	1.38555	3.802	74.16	-0.2266	0.034	0.2606	965.332	0.151024	-401.959656	-401.95264	-401.951696	-401.991088	28.246	
O	-0.0397413094	-0.0438199706	 0.0125730993	-0.384932
C	-0.0102468996	 1.1680469557	 0.0276869307	 0.389813
N	-1.1106762399	 1.9903373715	 0.0676466463	-0.301456
C	-0.8784513666	 3.4277743502	 0.0073339211	-0.197467
C	 0.6635047476	 3.5367359634	 0.0550647513	-0.031069
C	 1.3703252019	 3.7581896278	 1.4074770923	-0.062377
C	 0.9506392194	 2.7439944185	 2.4362420019	-0.293151
C	 1.9246866859	 2.3298537883	 1.3715016815	-0.04219
C	 1.2105227398	 2.0821110488	 0.022773907	-0.144933
H	-2.0333905603	 1.5839683219	 0.047172813	 0.247661
H	-1.2896921615	 3.8551989645	-0.9162272697	 0.106985
H	-1.3485566817	 3.9449617848	 0.8529709171	 0.112428
H	 1.0544645382	 4.184753665	-0.7292048537	 0.082686
H	 1.8743950825	 4.6749403168	 1.6886230673	 0.088336
H	 1.3924154776	 2.8925004755	 3.4164605436	 0.115276
H	-0.0579998058	 2.3423214371	 2.4674805767	 0.12347
H	 2.9182538004	 1.9726831539	 1.6090916764	 0.093795
H	 1.8863058916	 1.8317932869	-0.794959972	 0.097125
109.3592	157.0182	223.312	336.0194	456.5167	475.9446	559.3348	597.6713	694.8416	716.6004	732.7779	771.2721	802.5991	841.166	923.9694	934.0572	943.9523	984.1942	1018.9911	1025.0952	1038.8024	1064.3488	1087.0672	1094.061	1102.0996	1172.1882	1182.0941	1221.4023	1245.7943	1255.2226	1273.506	1304.204	1313.5914	1357.2154	1367.7175	1452.0453	1493.4977	1532.0021	1822.2789	3009.5013	3042.1456	3105.7197	3117.7975	3122.177	3179.0385	3194.2482	3206.7709	3630.6147
O=C1NCC2C3CC3C12	O=C1NC[C@H]2[C@H]3C[C@H]3[C@@H]12	
InChI=1S/C7H9NO/c9-7-6-4-1-3(4)5(6)2-8-7/h3-6H,1-2H2,(H,8,9)	InChI=1S/C7H9NO/c9-7-6-4-1-3(4)5(6)2-8-7/h3-6H,1-2H2,(H,8,9)/t3-,4+,5-,6+/m0/s1
