20
gdb 114757	2.42241	1.44881	1.09889	2.0982	73.68	-0.2263	0.0614	0.2878	1152.7496	0.171799	-440.246866	-440.238005	-440.237061	-440.280477	33.593	
O	 0.0226318958	 1.2723883591	-0.4650560671	-0.427534
C	 0.0081840966	-0.1499809827	-0.4004829143	-0.091071
C	-1.3941964303	-0.5440760157	 0.0651954179	-0.026858
C	-2.5228725146	-0.1341497168	-0.9207472023	-0.176844
N	-3.1418943855	-1.3455222753	-1.4997855718	-0.092237
C	-2.1976498002	-2.2199413456	-2.2036548687	-0.248999
C	-2.5739657458	-2.5073303226	-0.7963216609	-0.058479
C	-1.5913881818	-2.0724199299	 0.2849500087	 0.078962
O	-0.331619674	-2.7374502249	 0.233031513	-0.429379
H	 0.8928693053	 1.5475954086	-0.7671254059	 0.286089
H	 0.24145918	-0.588954737	-1.3810116215	 0.091392
H	 0.7538889891	-0.5284273566	 0.3101878736	 0.105319
H	-1.5436830851	-0.0202861173	 1.0138424789	 0.091082
H	-3.3139516478	 0.4098189157	-0.3959673147	 0.106532
H	-2.1513246046	 0.5218324705	-1.7131456539	 0.119626
H	-2.6359311011	-2.8034751092	-3.0085256902	 0.113404
H	-1.1899343357	-1.8653764937	-2.4008176626	 0.1191
H	-3.2594962449	-3.3201699833	-0.5671214235	 0.083419
H	-2.0524302263	-2.2454928145	 1.268329051	 0.071176
H	-0.494567519	-3.6847074288	 0.2727514144	 0.285302
70.7465	115.7965	197.677	207.214	244.1485	269.738	305.6789	364.7795	417.9578	493.3511	522.8946	654.4381	740.4158	769.8719	801.4263	867.5424	908.6761	939.1911	977.109	1006.1772	1026.4003	1061.3527	1069.0265	1097.7247	1117.5813	1119.802	1131.3995	1168.9701	1212.2436	1231.5968	1245.1004	1269.7018	1278.6408	1308.3818	1342.4336	1353.2434	1370.5002	1393.5137	1416.8082	1453.169	1503.779	1508.8426	1524.4931	2985.5914	2997.7254	3036.7495	3051.1246	3067.5808	3098.2368	3111.603	3129.1003	3196.1688	3825.0319	3832.7464
OCC1CN2CC2C1O	OC[C@H]1CN2C[C@H]2[C@H]1O	
InChI=1S/C6H11NO2/c8-3-4-1-7-2-5(7)6(4)9/h4-6,8-9H,1-3H2	InChI=1S/C6H11NO2/c8-3-4-1-7-2-5(7)6(4)9/h4-6,8-9H,1-3H2/t4-,5+,6+,7?/m1/s1
