23
gdb 39493	2.15995	1.74573	1.23763	0.988	84.26	-0.226	0.0794	0.3054	1128.2711	0.208828	-388.268375	-388.260137	-388.259193	-388.300651	33.594	
C	-0.0068320446	 1.4821791756	-0.4102372581	-0.347483
C	 1.2479332515	 0.706689616	-0.0306939635	-0.026213
C	 2.0578464062	 0.9910982576	 1.2422608242	-0.23416
C	 1.7853856486	 0.0769950637	 2.4629230146	-0.176572
C	 0.7265062934	 0.5851271004	 3.4683315269	-0.177233
C	-0.5222522899	 1.2577859745	 2.8789401393	-0.219356
C	-1.4052147603	 0.3631697168	 1.9993251099	-0.062777
O	-0.7074026069	-0.4876226511	 1.1065155259	-0.246092
C	-0.1050257404	 0.027286798	-0.0435893188	 0.117905
H	-0.3601921498	 2.2265971036	 0.2917392366	 0.118277
H	-0.1652597869	 1.7579755493	-1.4476748238	 0.108986
H	 1.8723906499	 0.4294476624	-0.8754601542	 0.082207
H	 3.1112534601	 0.8723767387	 0.9687276253	 0.098032
H	 1.9591394375	 2.0438527842	 1.5357854645	 0.096063
H	 1.5115722337	-0.9173503491	 2.1045880427	 0.117434
H	 2.7241780085	-0.040992539	 3.0169837864	 0.081904
H	 0.423951201	-0.25082301	 4.11201471	 0.093672
H	 1.201173921	 1.3193790541	 4.1318471269	 0.091079
H	-1.1533418342	 1.6229056851	 3.699789404	 0.094183
H	-0.2168349223	 2.1537536926	 2.3291571127	 0.100777
H	-1.9666982726	-0.3284558122	 2.6376149791	 0.104085
H	-2.1376201899	 0.9763133159	 1.4533727159	 0.092068
H	-0.2768190936	-0.6614391372	-0.8671150165	 0.093213
120.1538	210.2729	218.3591	235.7161	293.2654	300.1108	350.6107	420.2214	491.768	573.0846	638.689	700.0408	734.9155	785.6771	816.133	835.5971	854.9132	855.9536	931.507	960.8971	1001.3628	1018.874	1039.2637	1051.9694	1072.1868	1115.8116	1136.195	1141.185	1155.9983	1197.1458	1212.0409	1228.4836	1279.5858	1284.354	1293.5438	1331.1	1363.2114	1377.3704	1381.442	1392.5976	1400.0398	1409.6199	1425.408	1477.4139	1481.181	1486.1007	1495.4641	1499.568	1508.5859	2994.0342	3011.9966	3022.9492	3029.9067	3036.1491	3045.6887	3056.4266	3063.1724	3081.9859	3107.4776	3125.9833	3135.0311	3142.7732	3226.5129
C1C2CCCCCOC12	C1[C@H]2CCCCCO[C@@H]12	
InChI=1S/C8H14O/c1-2-4-7-6-8(7)9-5-3-1/h7-8H,1-6H2	InChI=1S/C8H14O/c1-2-4-7-6-8(7)9-5-3-1/h7-8H,1-6H2/t7-,8+/m1/s1
