17
gdb 53275	2.69557	1.05041	0.8582	3.0377	79.07	-0.2357	0.0331	0.2688	1391.2934	0.134479	-417.992333	-417.982518	-417.981574	-418.028678	34.241	
C	-0.4066916856	 1.2160127229	-0.2120071099	-0.500094
C	-0.2080587663	-0.2175829265	-0.0694120499	 0.05983
C	-0.0611609789	-1.4080785318	 0.0324220967	 0.131095
C	 0.1533435726	-2.8242031424	 0.1455764995	-0.190988
C	-0.5281258748	-3.6003955827	 1.2477998476	-0.256222
N	-0.9072530814	-3.7862218448	-0.1390327853	-0.12335
C	-2.1549605869	-3.4167628401	-0.6767414224	 0.420111
N	-3.2173927599	-3.960477997	 0.0183895513	-0.536643
O	-2.2788623619	-2.7296091119	-1.6638863565	-0.364246
H	 0.4977226732	 1.7036051115	-0.5919240335	 0.150537
H	-1.2195162395	 1.4280727629	-0.9150412414	 0.160555
H	-0.660400206	 1.6841671674	 0.7454895014	 0.146817
H	 1.1348504607	-3.1686181534	-0.1734450255	 0.120356
H	-0.0124904624	-4.4330512479	 1.7201402698	 0.122813
H	-1.201473558	-3.0379048016	 1.889286771	 0.138966
H	-3.0469894732	-4.770527839	 0.5932448674	 0.257719
H	-4.0861025016	-3.9629306456	-0.4932365603	 0.262745
29.1428	58.0918	75.3031	137.1737	189.8131	232.194	313.5847	329.0169	427.6786	459.0985	487.7076	516.9176	538.8195	641.1697	699.055	748.3242	786.3724	945.2176	961.1485	1011.2824	1049.5933	1054.8022	1082.524	1108.8548	1122.8293	1156.8271	1202.9657	1278.045	1376.2418	1405.3083	1412.8777	1475.2923	1477.2298	1503.6656	1617.0452	1819.1884	2375.0968	3028.3876	3089.1854	3093.0317	3102.1232	3126.3996	3196.5461	3583.6357	3704.7743
CC#CC1CN1C(N)=O	CC#C[C@H]1CN1C(=O)N	
InChI=1S/C6H8N2O/c1-2-3-5-4-8(5)6(7)9/h5H,4H2,1H3,(H2,7,9)	InChI=1S/C6H8N2O/c1-2-3-5-4-8(5)6(7)9/h5H,4H2,1H3,(H2,7,9)/t5-,8?/m0/s1
