18
gdb 86736	3.78019	1.07439	0.94063	5.5102	73.73	-0.2356	-0.003	0.2326	1265.5824	0.148695	-439.129606	-439.121259	-439.120315	-439.163222	31.264	
C	 0.3751086674	 1.7125368329	 0.0430234358	-0.405217
C	-0.0788378173	 0.2515708637	 0.1589075309	 0.01114
N	 0.2907575295	-0.5674468558	-1.0287502442	-0.354502
H	-0.6675761899	-2.084676542	-1.6094205504	 0.302535
H	 0.6189307785	 0.0142980628	-1.7892311319	 0.233709
C	 1.2884402421	-1.5892190768	-0.6482952969	-0.177964
C	 1.3448931883	-1.4863664139	 0.8554305378	-0.067762
C	 0.5784240561	-0.4941770528	 1.2931279894	-0.071323
C	 0.8436005742	-3.0033145781	-1.0914173067	 0.422649
O	 1.5372252915	-3.9738653902	-0.9466134394	-0.348911
O	-0.3798701957	-3.0278414929	-1.626778769	-0.363951
H	 1.4641408169	 1.7763678879	-0.0512979549	 0.124422
H	-0.0824679344	 2.1946156577	-0.8279722424	 0.121429
H	 0.0756912406	 2.280613933	 0.9293033158	 0.127497
H	-1.1723906482	 0.2449665105	 0.2758871609	 0.094079
H	 2.2758608878	-1.4251089682	-1.1009752131	 0.112198
H	 1.9286606263	-2.1790828686	 1.4462396146	 0.130411
H	 0.4248890961	-0.2144388192	 2.3282109036	 0.109561
48.7035	107.9232	153.4428	246.325	253.9047	307.7376	393.238	445.629	524.2067	603.1334	684.916	724.0575	752.2512	779.6282	838.9546	865.6524	892.5408	905.0912	950.7274	973.4244	1004.5428	1025.1546	1085.0892	1101.9974	1128.9852	1156.542	1218.2236	1257.5507	1294.1281	1331.4696	1351.0546	1358.8526	1402.722	1437.2416	1439.8439	1495.1054	1496.7413	1691.6797	1870.0631	2990.2971	3013.0723	3029.7855	3101.2632	3110.786	3208.4371	3240.752	3413.9025	3562.8409
CC1[NH2+]C(C=C1)C([O-])=O	C[C@H]1N[C@@H](C=C1)C(=O)O	
InChI=1S/C6H9NO2/c1-4-2-3-5(7-4)6(8)9/h2-5,7H,1H3,(H,8,9)	InChI=1S/C6H9NO2/c1-4-2-3-5(7-4)6(8)9/h2-5,7H,1H3,(H,8,9)/t4-,5+/m1/s1
