18
gdb 97218	1.9525	1.77262	0.96058	6.293	77.73	-0.2234	0.0026	0.226	1215.4614	0.147947	-435.295753	-435.286387	-435.285443	-435.33058	32.407	
C	-0.0383022188	 1.4878649013	-0.083563473	-0.335059
N	 0.0306906144	 0.0423687141	-0.1878468835	-0.305754
C	-1.0487055194	-0.5970005972	-0.0332873331	 0.482512
N	-2.3361133634	-0.1191006696	 0.1875872908	-0.37002
C	-3.3375207366	-1.1752589958	 0.2232872538	-0.169996
C	-2.5462502102	-2.4178293556	-0.2353215144	-0.186191
N	-1.154199264	-2.0111291275	-0.0444588575	-0.1467
C	-0.1427158202	-2.9318941388	 0.1412053471	 0.151893
O	 1.0228410384	-2.7057655643	 0.3318999333	-0.280845
H	 0.9751480191	 1.8947385409	-0.0440093102	 0.130845
H	-0.5336168029	 1.944235545	-0.9569441023	 0.101259
H	-0.5756025876	 1.828487536	 0.8157086815	 0.107159
H	-2.5714256225	 0.7983379313	-0.1491764852	 0.256222
H	-3.7369516544	-1.3062193164	 1.2369258691	 0.121822
H	-4.1780680459	-0.9658496828	-0.4442151538	 0.120387
H	-2.7803909894	-3.3060950501	 0.3550185258	 0.130965
H	-2.7464686984	-2.6430174099	-1.2905615439	 0.123897
H	-0.5591228982	-3.9608716604	 0.1005163155	 0.067604
61.2409	95.8018	141.9744	150.2975	184.2728	215.5161	254.6455	263.7748	336.4754	472.4139	520.4254	688.467	710.796	733.5153	820.951	896.5635	971.8068	1023.4008	1033.9721	1071.2588	1113.0297	1134.9897	1156.4763	1201.2693	1225.0065	1245.1042	1258.1355	1336.8519	1359.9735	1418.7657	1428.3459	1443.9616	1461.9814	1493.9451	1506.1575	1519.301	1532.0439	1762.2193	1842.6155	2901.6421	2957.5449	3003.3003	3015.7238	3020.8798	3079.8707	3099.7551	3104.7249	3670.0519
CN=C1NCCN1C=O	CN=C1NCCN1C=O	
InChI=1S/C5H9N3O/c1-6-5-7-2-3-8(5)4-9/h4H,2-3H2,1H3,(H,6,7)	InChI=1S/C5H9N3O/c1-6-5-7-2-3-8(5)4-9/h4H,2-3H2,1H3,(H,6,7)
