17
gdb 127889	2.43717	1.65224	0.99672	4.4429	84.02	-0.2109	-0.0496	0.1613	1165.4957	0.135697	-414.166642	-414.15773	-414.156786	-414.201443	31.826	
C	-0.0180366066	 1.3941205593	 0.0072612257	-0.307444
N	 0.012150304	-0.0602650048	 0.0023181536	-0.305347
C	-1.0956834824	-0.6991334573	 0.0093112011	 0.321069
N	-2.3529436814	-0.0141703	 0.0215020943	-0.270675
N	-3.4564779853	-0.6262153893	 0.028114781	-0.04706
N	-3.459687195	-1.9755197592	 0.023544628	-0.246826
C	-2.3239539922	-2.75185752	 0.0120195604	-0.042295
C	-1.1143022376	-2.1598836147	 0.0044759975	 0.202557
C	 0.1759734987	-2.9124422593	-0.0083256852	-0.478591
H	 1.0098626981	 1.7665223277	-0.0016667317	 0.10755
H	-0.5434491852	 1.8018550211	-0.8660355985	 0.121963
H	-0.5258443782	 1.7959624517	 0.893629396	 0.12192
H	-4.3849267414	-2.3714971943	 0.0295517525	 0.279736
H	-2.4803244349	-3.8244240021	 0.0096860455	 0.135389
H	 0.0126966284	-3.9937331121	-0.0094967131	 0.10882
H	 0.7679707379	-2.633222323	-0.8861317486	 0.149595
H	 0.782878313	-2.6372010437	 0.8604810117	 0.149639
24.4971	80.5837	167.7343	194.1024	207.4089	297.1409	304.1531	414.4442	483.2228	500.2618	533.7567	601.2621	610.9025	747.6932	793.1919	867.4004	901.1873	963.4542	1023.1474	1063.1583	1064.1469	1100.8289	1110.7695	1177.0356	1203.0343	1283.2813	1390.4071	1413.9485	1434.0437	1437.9607	1458.8731	1478.8625	1484.7682	1495.7892	1583.3555	1686.1692	1711.1895	3005.7664	3036.5854	3057.0573	3095.5532	3097.4668	3119.1799	3198.2719	3660.9841
CN=C1N=NNC=C1C	C[N]c1nn[nH]cc1C	
InChI=1S/C5H8N4/c1-4-3-7-9-8-5(4)6-2/h3H,1-2H3,(H,6,7,8)	InChI=1S/C5H13N4/c1-4-3-7-9-8-5(4)6-2/h4-5,7-9H,3H2,1-2H3
