15
gdb 44688	3.35745	1.53424	1.17112	5.0744	66.45	-0.2618	-0.0193	0.2425	1006.9673	0.113922	-457.778849	-457.771857	-457.770913	-457.810664	26.393	
O	-0.1278229142	 0.1235300152	 0.3405946892	-0.313683
C	-0.0179527165	 1.259321024	 0.0172952988	 0.443713
O	-0.9841472188	 2.0896812129	-0.4924845982	-0.259933
C	-0.0349809012	 3.2185279973	-0.6076054325	 0.068512
C	-0.3769513734	 4.4212789394	 0.1974022424	-0.095982
C	 0.4657325384	 4.8434237122	 1.1377719078	-0.063799
C	 1.6907355644	 4.0527097427	 1.5111691345	-0.12283
O	 1.541672083	 2.661922419	 1.2635388325	-0.25967
C	 1.0880153531	 2.3351203742	-0.0240317986	-0.085451
H	 0.0831446202	 3.4572979366	-1.6689003955	 0.109346
H	-1.2845442977	 4.9622557838	-0.0508453252	 0.115359
H	 0.2897211547	 5.7690165086	 1.6782432174	 0.11279
H	 2.5823423851	 4.4514108961	 0.9959202862	 0.111515
H	 1.8814286825	 4.1330902858	 2.585606265	 0.134827
H	 1.9188575104	 2.1183483323	-0.7082741939	 0.105284
85.5506	146.1068	226.3368	286.4633	417.0045	475.8842	495.7404	572.1563	683.0252	706.2447	783.751	832.5542	879.2157	912.0936	925.4715	961.3459	989.8552	1022.0287	1052.478	1083.4845	1130.4554	1152.24	1211.3561	1235.5224	1273.0222	1307.0531	1347.4993	1358.8199	1401.6563	1415.0541	1489.3771	1715.3479	1948.2553	2954.0739	3021.6873	3066.8603	3081.6498	3168.9152	3190.54
O=C1OC2C=CCOC12	O=C1O[C@H]2C=CCO[C@@H]12	
InChI=1S/C6H6O3/c7-6-5-4(9-6)2-1-3-8-5/h1-2,4-5H,3H2	InChI=1S/C6H6O3/c7-6-5-4(9-6)2-1-3-8-5/h1-2,4-5H,3H2/t4-,5+/m0/s1
