15
gdb 116838	3.81733	0.617	0.53472	3.6724	83.1	-0.2719	-0.0805	0.1914	1976.2988	0.108428	-420.549783	-420.539753	-420.538809	-420.586556	33.421	
C	-0.0160956468	 1.4032365853	 0.0198727367	-0.223133
O	-0.0251438278	-0.0076467553	 0.0584045223	-0.226539
C	 0.6118051244	-0.5715473777	-1.0652802516	-0.203406
C	 0.5825869754	-2.0235209966	-0.9894208111	-0.072845
C	 0.5771266905	-3.229805067	-0.9598976488	 0.184435
C	 0.5778743523	-4.6728263951	-0.9377047468	 0.148703
O	 1.0792375617	-5.3469126072	-1.8164962551	-0.266738
C	-0.0690826002	-5.2586662797	 0.2199664752	 0.291704
C	-0.6042976709	-5.7527261648	 1.1778651255	-0.474557
H	 1.0093854151	 1.8044310148	 0.0108621598	 0.110701
H	-0.5463141362	 1.7905168773	-0.8641707535	 0.110695
H	-0.5257722342	 1.750699648	 0.9204827342	 0.138124
H	 0.1211221633	-0.2507625904	-2.0016160217	 0.130948
H	 1.6621425844	-0.2364713363	-1.1352829386	 0.130942
H	-1.0760275811	-6.1937740752	 2.0222533336	 0.220967
44.5576	53.2783	73.3411	146.4243	148.9032	232.9401	234.2215	262.9491	339.0571	396.4223	435.5843	563.3919	619.0432	653.0118	705.8855	720.8202	773.0305	970.4183	1008.1333	1011.8221	1151.6219	1182.3629	1218.6293	1228.9624	1250.1281	1403.9806	1474.625	1486.196	1487.9146	1513.0218	1720.8887	2217.6817	2336.8959	2945.1073	2962.7302	2975.2926	3021.5651	3128.9354	3494.6526
COCC#CC(=O)C#C	COCC#CC(=O)C#C	
InChI=1S/C7H6O2/c1-3-7(8)5-4-6-9-2/h1H,6H2,2H3	InChI=1S/C7H6O2/c1-3-7(8)5-4-6-9-2/h1H,6H2,2H3
