19
gdb 81131	3.27538	1.11939	0.99398	1.0364	81.04	-0.2489	0.055	0.3039	1240.6012	0.158152	-385.804627	-385.795963	-385.795019	-385.8381	33.653	
O	 0.1403534842	 1.4041870746	-0.1963988502	-0.451476
C	 0.0397666793	 0.0179117481	-0.0355248387	 0.143539
C	 0.0056494123	-0.6574776772	 1.368523783	-0.104069
C	-1.4657128221	-0.1626639328	 1.5098615506	-0.284414
C	-1.3529099627	-0.6943382573	 0.0459344613	 0.303239
C	-2.429542605	-0.7013548904	-1.0227735713	-0.485544
C	-3.6400038671	-1.4051785748	-0.613506873	 0.303004
C	-4.6231761739	-1.9909149921	-0.2456813346	-0.455487
C	-0.5755349921	-1.9033654205	 0.6412325763	-0.25158
H	-0.3841201832	 1.8426670793	 0.4812932423	 0.283435
H	 0.7426798816	-0.4170189129	-0.7519934144	 0.081034
H	 0.7838072078	-0.6443350592	 2.1317208663	 0.076354
H	-2.1106561233	-0.7355898582	 2.179856662	 0.106756
H	-1.6427412935	 0.9088179989	 1.6529009331	 0.07501
H	-2.6738506766	 0.3367529944	-1.2856228116	 0.135138
H	-2.0262561479	-1.1580328015	-1.936537048	 0.133165
H	-5.4986308144	-2.5057496864	 0.0635972166	 0.195069
H	 0.0951470756	-2.4404508156	-0.0362814769	 0.091253
H	-1.1610804992	-2.5882565565	 1.2568463672	 0.105573
55.8031	102.8004	194.779	253.3936	285.7338	339.02	349.5039	383.8608	499.6571	539.364	608.4671	619.838	634.7762	688.4778	760.9818	817.5556	868.3243	887.4098	924.4219	940.4639	972.6166	985.6103	1023.6041	1046.8523	1073.5166	1128.1485	1137.4796	1146.7954	1168.8948	1204.8939	1226.5498	1239.7622	1258.4217	1288.5935	1307.3252	1342.8918	1452.2272	1462.9348	1508.0433	1549.6252	2237.7474	3013.2051	3040.5169	3044.3283	3053.8285	3075.3846	3108.5	3115.943	3129.2276	3506.8648	3815.9572
OC1C2CC1(CC#C)C2	O[C@H]1[C@H]2C[C@]1(CC#C)C2	
InChI=1S/C8H10O/c1-2-3-8-4-6(5-8)7(8)9/h1,6-7,9H,3-5H2	InChI=1S/C8H10O/c1-2-3-8-4-6(5-8)7(8)9/h1,6-7,9H,3-5H2/t6-,7-,8+/m0/s1
