18
gdb 71262	2.50735	2.04152	1.4391	2.4806	74.46	-0.2401	-0.0215	0.2186	945.3562	0.14841	-401.943124	-401.935636	-401.934692	-401.974799	29.73	
C	-0.0676764477	 1.5295315674	 0.0729844989	-0.480672
C	-0.0334898313	 0.0245515096	 0.0200790657	 0.207513
C	 0.3088159161	-0.6894833588	-1.3322323782	-0.296038
C	-0.8979034325	-1.5711816885	-1.0588433525	-0.034071
C	-0.9521779512	-2.0663632153	 0.340474453	-0.02757
C	 0.2802817801	-2.0908354103	 1.2149535135	-0.367692
C	 0.8060716208	-0.6536523085	 1.0982882717	 0.400284
O	 1.7095774442	-0.1604194881	 1.7198011114	-0.321598
N	-1.3971307126	-0.6705092878	 0.0511648324	-0.17907
H	 0.9520581819	 1.9255093239	 0.0580498612	 0.136122
H	-0.6253728211	 1.9402440366	-0.7727961687	 0.119566
H	-0.547570748	 1.8667545666	 0.996570879	 0.133185
H	 0.1310894392	-0.0108478104	-2.1693330845	 0.122914
H	 1.2921419787	-1.1551390191	-1.4544219624	 0.110578
H	-1.5741027385	-1.9577635491	-1.8155781466	 0.096236
H	-1.7738126881	-2.733784573	 0.5790184623	 0.102269
H	 0.031031084	-2.3046735552	 2.2593826838	 0.141008
H	 1.0506623958	-2.80702499	 0.9109486102	 0.137037
106.415	175.41	234.3099	296.1743	309.3465	384.7653	480.6238	524.0191	617.2057	631.8231	701.9531	750.7832	773.0212	792.4093	844.8832	859.3507	954.5125	964.5775	984.8217	1024.3605	1034.807	1071.5097	1079.4967	1118.9924	1142.2681	1164.8405	1192.5936	1223.1285	1255.0157	1277.5124	1328.0503	1350.4628	1410.5774	1412.2293	1452.7272	1477.6953	1488.3531	1496.1606	1849.3016	3043.5345	3046.1523	3053.3748	3092.569	3109.348	3117.4037	3123.1937	3152.6012	3169.8852
CC12CC3C(CC1=O)N23	C[C@@]12C[C@H]3[C@@H](CC1=O)N23	
InChI=1S/C7H9NO/c1-7-3-5-4(8(5)7)2-6(7)9/h4-5H,2-3H2,1H3	InChI=1S/C7H9NO/c1-7-3-5-4(8(5)7)2-6(7)9/h4-5H,2-3H2,1H3/t4-,5+,7-,8?/m1/s1
