19
gdb 116851	5.22947	0.52117	0.47957	2.5307	85.43	-0.2621	-0.0284	0.2337	2305.4522	0.156553	-423.036163	-423.025355	-423.02441	-423.074425	36.086	
C	-0.033531844	 1.5570172464	 0.037927566	-0.382949
C	-0.0178105403	 0.027486546	 0.0352980277	-0.15855
C	 0.695321948	-0.5442832873	-1.2071619487	-0.353727
C	 0.7300535918	-1.9987025622	-1.2433641849	 0.19292
C	 0.7462041323	-3.2041206077	-1.2519946509	-0.014268
C	 0.8125088869	-4.6409160421	-1.346258826	 0.249368
O	 1.3258148214	-5.2503355222	-2.2531790869	-0.359795
O	 0.2225013487	-5.2236002537	-0.2822308206	-0.21771
C	 0.2422843414	-6.6566326588	-0.2939857043	-0.239851
H	 0.9830731486	 1.9656429149	 0.0330272079	 0.118715
H	-0.5535610851	 1.9513951401	-0.8421375875	 0.118724
H	-0.5427949158	 1.9427321354	 0.9258101292	 0.119284
H	 0.4829802678	-0.3478039979	 0.934403341	 0.115173
H	-1.0412174645	-0.3619935271	 0.0661834885	 0.115159
H	 0.2030389815	-0.1777745849	-2.1182819907	 0.139479
H	 1.724772041	-0.1633678296	-1.251333175	 0.13948
H	-0.2695940665	-6.9648264522	 0.6175570145	 0.133855
H	-0.2763055864	-7.0431642756	-1.1751117406	 0.14243
H	 1.2699961632	-7.0288897014	-0.3016345487	 0.142263
22.845	54.8345	66.3784	113.5175	126.7355	163.521	221.5234	247.3624	300.0877	306.5435	404.4444	412.3112	578.409	582.1368	741.1731	774.5813	826.1622	868.8163	890.3604	981.0994	1041.924	1102.3514	1110.5594	1118.8282	1177.4926	1211.987	1256.8571	1279.8938	1304.4759	1321.8774	1381.2538	1416.3227	1462.5516	1470.8744	1480.3071	1491.9226	1496.8624	1500.699	1508.7358	1789.4973	2352.9569	3013.5155	3032.1069	3041.3344	3045.0624	3050.9341	3077.2022	3103.1843	3109.7725	3124.798	3159.9523
CCCC#CC(=O)OC	CCCC#CC(=O)OC	
InChI=1S/C7H10O2/c1-3-4-5-6-7(8)9-2/h3-4H2,1-2H3	InChI=1S/C7H10O2/c1-3-4-5-6-7(8)9-2/h3-4H2,1-2H3
