19
gdb 107151	4.50627	0.99975	0.9494	3.337	76.3	-0.2467	0.0744	0.3211	1308.0641	0.157346	-422.968283	-422.95969	-422.958746	-423.001738	32.545	
C	 0.2522622942	 1.5028258448	 0.1940042378	-0.380409
C	-0.0822186618	 0.0212081327	-0.0291562652	-0.301781
C	 0.4504947402	-0.4958600451	-1.328574454	 0.436658
C	-0.0188355754	-0.1627187392	-2.7654519281	-0.401571
C	 0.4206959672	-1.5981731732	-3.1459950782	 0.467968
C	-0.2271442973	-2.5406851572	-4.0569658936	-0.271351
O	 1.0701257583	-1.9908319113	-4.3347154831	-0.26274
C	 0.9267132164	-1.8368656698	-1.7390419496	-0.165773
O	 1.852210172	-0.7766661011	-1.4393776467	-0.286004
H	 1.334982951	 1.6584930287	 0.192378486	 0.137286
H	-0.1794160367	 2.1304879185	-0.5925384724	 0.121193
H	-0.1416664206	 1.8500093222	 1.1534075298	 0.116187
H	 0.3379371661	-0.5839641533	 0.7815602076	 0.113529
H	-1.1695636744	-0.1243270835	-0.0100522756	 0.103851
H	-1.0949142481	-0.0004937556	-2.8692704703	 0.110166
H	 0.5347171562	 0.6461120556	-3.2461507488	 0.124107
H	-0.241251174	-3.6053679416	-3.8255983866	 0.117525
H	-1.0319237339	-2.194871889	-4.7045836557	 0.117503
H	 1.0340654607	-2.7636787427	-1.1863625634	 0.103658
70.7701	94.522	172.848	213.3866	283.7427	306.3391	359.284	404.7569	436.7641	507.4655	611.7185	677.3832	765.1654	799.4128	842.0151	857.4762	902.7183	933.7999	954.181	966.3553	1004.6874	1025.8688	1065.5155	1104.1152	1123.1734	1147.5769	1157.3202	1162.1688	1208.8701	1230.7979	1236.616	1314.4621	1345.9235	1408.7355	1435.9307	1446.9779	1471.47	1476.7258	1498.0994	1509.3401	1539.7424	3029.8751	3039.7454	3067.1147	3072.8226	3078.6747	3109.5295	3119.1069	3129.4838	3164.9506	3181.5335
CCC12CC3(CO3)C1O2	CC[C@]12C[C@]3(CO3)[C@H]1O2	
InChI=1S/C7H10O2/c1-2-6-3-7(4-8-7)5(6)9-6/h5H,2-4H2,1H3	InChI=1S/C7H10O2/c1-2-6-3-7(4-8-7)5(6)9-6/h5H,2-4H2,1H3/t5-,6-,7-/m0/s1
