14
gdb 16082	4.68072	1.78497	1.52877	2.2553	69.34	-0.2267	0.0115	0.2382	822.1888	0.107769	-341.542309	-341.535551	-341.534607	-341.57286	26.529	
C	-0.0443415841	-1.1880267556	-0.0046844289	-0.429257
C	-0.0167115675	 0.0152350873	-0.0016768237	 0.223309
C	 0.0089367701	 1.439805721	 0.0087806826	 0.173285
C	 0.4032962263	 2.269175003	-1.1933002055	-0.316655
C	 1.2815104677	 2.3606125877	 0.0259478782	-0.052249
N	 1.0244130568	 3.397274	 0.9787580849	-0.234629
C	-0.1595050372	 3.2091353786	 1.4385805549	 0.04366
N	-0.8691903785	 2.13808484	 0.9273659861	-0.350201
H	-0.0617225158	-2.2497190709	-0.0097124729	 0.194608
H	 0.8052775914	 1.7183256494	-2.0354807839	 0.129369
H	-0.2298361535	 3.1144193475	-1.4431654393	 0.124335
H	 2.2933440883	 1.9745531069	-0.0215459909	 0.110055
H	-0.6311077296	 3.8576118539	 2.1695578628	 0.13061
H	-1.4876560345	 1.5995481012	 1.5152463557	 0.253758
146.0352	158.68	347.2674	383.4103	416.8196	472.5072	533.6863	553.6696	572.843	640.0161	680.901	695.5903	783.9125	864.0403	922.0699	929.5832	960.4633	1035.0605	1061.5616	1086.2151	1121.4315	1132.856	1225.4309	1261.5879	1335.0358	1354.4245	1429.947	1466.5611	1643.364	2232.9452	3131.8401	3176.6859	3199.0557	3230.7704	3501.6972	3617.2719
C#CC12CC1N=CN2	C#C[C@]12C[C@H]1N=CN2	
InChI=1S/C6H6N2/c1-2-6-3-5(6)7-4-8-6/h1,4-5H,3H2,(H,7,8)	InChI=1S/C6H6N2/c1-2-6-3-5(6)7-4-8-6/h1,4-5H,3H2,(H,7,8)/t5-,6+/m1/s1
