19
gdb 6149	4.55964	1.18057	1.16733	4.3713	74.27	-0.2383	0.0289	0.2673	1120.5531	0.164373	-365.082965	-365.074123	-365.073178	-365.1175	31.621	
C	-0.3509325983	 1.6107285691	-0.0461597088	-0.446094
C	 0.0161437839	 0.1307967008	 0.013135576	 0.32261
C	-1.19577669	-0.7657159443	-0.2235638966	-0.446304
C	 1.2655687049	-0.2489296051	-0.8579596203	-0.225453
N	 1.9704214363	-0.5899227326	 0.3766098257	-0.031877
C	 0.8644219595	-0.2640604468	 1.2712896073	-0.212256
C	 3.2178190955	-1.0224096241	 0.6535397796	 0.130901
O	 3.6399648492	-1.2386234593	 1.7721077917	-0.334006
H	 0.524361486	 2.2460394556	 0.1238980587	 0.121475
H	-0.7726691789	 1.8723281249	-1.0231290785	 0.118274
H	-1.0978004488	 1.8580021003	 0.7163478486	 0.121344
H	-1.6417157899	-0.5725251651	-1.2057066725	 0.118307
H	-0.9225991846	-1.8250770625	-0.1804213407	 0.121432
H	-1.9671554145	-0.587218488	 0.5337069152	 0.121315
H	 1.1137895191	-1.0948828102	-1.5387704717	 0.110443
H	 1.7110896339	 0.5823997894	-1.4170954125	 0.11064
H	 1.0875078015	 0.5519174163	 1.9672453064	 0.117731
H	 0.4923967223	-1.1217781686	 1.8421486539	 0.117262
H	 3.8216323029	-1.1605171699	-0.2680266217	 0.064257
21.0436	72.045	171.7881	235.3946	273.2445	276.4954	320.9329	346.0202	396.0598	411.0688	519.5714	678.1532	807.4308	869.8191	921.6937	931.2219	945.5321	964.3757	993.2188	1034.6869	1057.1571	1140.3689	1163.3385	1181.6515	1216.37	1240.8549	1288.6286	1293.9914	1340.0128	1402.7595	1405.2582	1423.8057	1452.9842	1485.6818	1488.7911	1501.448	1504.8264	1514.0468	1526.5568	1790.9045	2913.5787	3015.1882	3024.0289	3027.8467	3035.1868	3060.2007	3076.8998	3092.0925	3096.7286	3099.3037	3101.2761
CC1(C)CN(C1)C=O	CC1(C)CN(C1)C=O	
InChI=1S/C6H11NO/c1-6(2)3-7(4-6)5-8/h5H,3-4H2,1-2H3	InChI=1S/C6H11NO/c1-6(2)3-7(4-6)5-8/h5H,3-4H2,1-2H3
