20
gdb 56005	4.26619	0.82988	0.80692	3.4557	83.64	-0.2339	0.0153	0.2492	1515.3522	0.171234	-403.201226	-403.191772	-403.190828	-403.237936	33.738	
C	-0.0419363285	 1.5329676101	-0.044644959	-0.484293
C	-0.2527705225	 0.026853909	 0.016019316	 0.410149
O	-0.9184178714	-0.4939403236	 0.8935276702	-0.374826
N	 0.3591647001	-0.6858128337	-0.9769540356	-0.324182
C	 0.2778061657	-2.1340566554	-1.0861003271	 0.016059
C	-0.4555328299	-2.6258139871	-2.3671600739	-0.229209
C	 0.3217432067	-3.8783817856	-2.8419669752	-0.253632
C	 1.6522217861	-3.7436003609	-2.1385931227	-0.067865
C	 1.6285472642	-2.8094779652	-1.1908180962	-0.088456
H	 0.5486820794	 1.8643191866	-0.9029064002	 0.107959
H	-1.0190580669	 2.0218871989	-0.0734782644	 0.152057
H	 0.4555793253	 1.8545149906	 0.8743682891	 0.151845
H	 0.8948229824	-0.1931759871	-1.6736083952	 0.237463
H	-0.2486819259	-2.4459954869	-0.1778129847	 0.128393
H	-1.5163979382	-2.8154963161	-2.189785378	 0.111487
H	-0.3905468974	-1.8398148995	-3.1274277842	 0.096006
H	-0.180966451	-4.8054930176	-2.5342555778	 0.113585
H	 0.4173958386	-3.9320282364	-3.9324267436	 0.103758
H	 2.4996817811	-4.3811103021	-2.3663149163	 0.096336
H	 2.443305402	-2.5567880178	-0.5214031613	 0.097365
20.255	43.6216	75.4119	91.2731	196.6451	294.3639	350.7449	401.9301	467.0672	518.2689	569.6778	638.2439	663.4433	754.1862	779.9224	846.2101	887.3961	924.6955	948.4716	976.1672	987.6635	1008.7109	1049.3121	1052.7106	1078.0007	1109.5563	1148.9215	1179.7494	1229.7337	1252.6418	1295.2883	1305.3737	1325.7999	1353.7854	1383.5948	1397.7277	1471.007	1483.9439	1486.0271	1500.6574	1529.3232	1686.9104	1776.9545	3016.4784	3043.1229	3048.9215	3058.5198	3064.5947	3109.0386	3126.188	3129.4781	3182.7147	3208.486	3633.8996
CC(=O)NC1CCC=C1	CC(=O)N[C@H]1CCC=C1	
InChI=1S/C7H11NO/c1-6(9)8-7-4-2-3-5-7/h2,4,7H,3,5H2,1H3,(H,8,9)	InChI=1S/C7H11NO/c1-6(9)8-7-4-2-3-5-7/h2,4,7H,3,5H2,1H3,(H,8,9)/t7-/m1/s1
