23
gdb 96236	2.2079	1.51981	1.05216	1.2361	87.52	-0.241	0.0212	0.2622	1244.5692	0.206622	-388.293225	-388.283937	-388.282993	-388.327114	35.905	
C	 0.0662820197	 1.2269585941	-0.5248472242	-0.415487
C	 0.1419737435	-0.2617497614	-0.1511459515	 0.015023
C	 0.8744202172	-1.0494565267	-1.2476556865	-0.084211
O	 0.5068025715	-2.4143148268	-1.2796387492	-0.23622
C	 1.2079240642	-3.2579782423	-0.3966578341	-0.133663
C	 1.0104846018	-3.0317259138	 1.0824098603	-0.062222
C	 0.7829448035	-1.9026628218	 1.7542317348	-0.075507
C	 0.6979369815	-0.4694792675	 1.2779679214	-0.031059
C	 2.0685011172	 0.2049688195	 1.5233911537	-0.390884
H	 1.0568972983	 1.6551490121	-0.7113092185	 0.118057
H	-0.5261823599	 1.3654448406	-1.4348330268	 0.114679
H	-0.4036327328	 1.8135123349	 0.2714889015	 0.113016
H	-0.8799644302	-0.6613564405	-0.1502380485	 0.085282
H	 0.5885818317	-0.6466972172	-2.2260129454	 0.099027
H	 1.9684029498	-0.9439686838	-1.1605402917	 0.084675
H	 0.8751606257	-4.2717947763	-0.6456135494	 0.111559
H	 2.2920012526	-3.2238275806	-0.6202945766	 0.094524
H	 1.1132340686	-3.9445323838	 1.6684707702	 0.085195
H	 0.7183253737	-1.9950776661	 2.8383007315	 0.084449
H	-0.0136880351	 0.0357781639	 1.94671427	 0.075392
H	 2.8400772225	-0.2035070398	 0.8632236405	 0.118879
H	 2.0207388478	 1.2865407731	 1.369104296	 0.115089
H	 2.3981341371	 0.0313491805	 2.5523840026	 0.114407
55.9667	120.7327	218.1432	229.6054	248.8268	296.7126	309.7224	316.3449	379.8284	393.9178	472.3342	531.8665	593.1032	712.685	744.2751	786.8612	868.9655	883.0207	934.2507	965.1209	985.4224	1006.8537	1013.3216	1021.2553	1046.0319	1089.2189	1119.0669	1150.5447	1177.9985	1194.2288	1255.6825	1291.168	1313.0998	1317.3156	1340.016	1369.9673	1383.6415	1400.7075	1405.604	1410.6342	1426.8707	1434.461	1477.8916	1487.1915	1495.4806	1501.4765	1502.609	1512.8338	1734.7964	2917.2977	2975.0608	2992.8689	3028.6768	3031.6202	3038.3559	3055.9387	3059.1536	3098.7874	3100.6579	3104.6781	3112.66	3113.6954	3139.4442
CC1COCC=CC1C	C[C@H]1COCC=C[C@H]1C	
InChI=1S/C8H14O/c1-7-4-3-5-9-6-8(7)2/h3-4,7-8H,5-6H2,1-2H3	InChI=1S/C8H14O/c1-7-4-3-5-9-6-8(7)2/h3-4,7-8H,5-6H2,1-2H3/t7-,8+/m1/s1
