23
gdb 104190	2.34517	1.26065	1.23271	1.3888	81.23	-0.2476	0.0718	0.3194	1211.3879	0.203172	-425.417325	-425.406872	-425.405927	-425.451596	40.309	
C	 0.4287811006	 1.4833674569	-0.3803311098	-0.447645
C	-0.0189468526	 0.087376866	 0.0433231179	 0.361508
O	-1.4279056208	 0.0600599556	 0.2199943579	-0.479199
C	 0.6080956378	-1.0357187967	-0.8365583701	-0.286681
C	 1.6463053177	-1.2910237643	 0.2879099577	-0.254049
C	 0.7392536088	-0.5069540138	 1.2862174617	 0.29738
C	 1.4239881783	 0.4553519164	 2.2530544926	-0.473297
C	-0.1636317674	-1.4724332231	 2.0616799547	-0.116149
O	 0.6681287467	-2.2387500194	 2.9294163006	-0.431455
H	 1.5115269786	 1.5416762093	-0.5238058529	 0.121093
H	-0.0386543359	 1.7450869133	-1.3386183267	 0.101008
H	 0.1346724193	 2.2325293318	 0.3602065304	 0.123983
H	-1.8364402598	 0.4380836581	-0.5658951166	 0.273381
H	-0.0883768857	-1.8678932161	-0.9624821318	 0.10353
H	 0.9868920245	-0.7405677099	-1.8192055543	 0.085786
H	 1.8573015662	-2.3273437713	 0.5551685162	 0.110924
H	 2.5949091208	-0.7792089939	 0.1041222096	 0.092551
H	 2.1463555405	 1.1005940686	 1.7455670461	 0.102404
H	 0.6911982465	 1.097744331	 2.7559867017	 0.110159
H	 1.9544456518	-0.1100956438	 3.0235175268	 0.135197
H	-0.9103455351	-0.8990120126	 2.6290321253	 0.094099
H	-0.7127586834	-2.1253872847	 1.3706039445	 0.090103
H	 0.1022423327	-2.8245891876	 3.4395428287	 0.285368
102.0509	144.8425	192.7307	209.106	238.4091	243.4792	274.8236	280.7234	309.735	327.2286	352.1582	376.1131	412.5745	469.2519	552.1583	605.0808	707.027	749.8335	877.5346	889.5784	909.9758	936.7809	953.0408	966.5032	988.4061	1028.6045	1061.7018	1096.939	1134.6768	1188.5375	1191.6976	1206.8451	1221.4634	1236.0651	1249.6714	1262.2979	1290.639	1324.6006	1368.2312	1399.0217	1411.2715	1450.9256	1478.5335	1483.8899	1490.4962	1496.2914	1501.7057	1508.0492	1518.9031	2997.2618	3021.5907	3030.4236	3033.7404	3054.9348	3065.1308	3090.053	3097.3287	3109.2376	3120.3279	3121.1385	3128.7772	3804.9346	3837.288
CC1(O)CCC1(C)CO	C[C@@]1(O)CC[C@]1(C)CO	
InChI=1S/C7H14O2/c1-6(5-8)3-4-7(6,2)9/h8-9H,3-5H2,1-2H3	InChI=1S/C7H14O2/c1-6(5-8)3-4-7(6,2)9/h8-9H,3-5H2,1-2H3/t6-,7-/m1/s1
