19
gdb 110182	2.36131	1.12671	0.80939	0.6518	78.62	-0.2537	-0.0328	0.2209	1408.1641	0.156407	-423.050745	-423.041171	-423.040227	-423.08611	34.023	
C	 0.0588042603	 1.5747460302	 0.1513600314	-0.388622
C	 0.0979923128	 0.0510481956	-0.0120365908	-0.203877
C	-1.2901732928	-0.5787402959	 0.0499853175	-0.105897
C	-1.450362514	-2.1443108533	-0.0193337979	-0.105269
C	-2.5063840344	-2.0797257461	 1.1328644994	-0.37011
C	-2.0273616798	-0.6455196966	 1.3992516037	 0.396019
O	-2.0760735157	 0.0819713665	 2.3474442132	-0.290652
C	-1.9407671194	-2.6816450358	-1.332754043	 0.160553
O	-1.3829373353	-3.5124765613	-2.0005096309	-0.24858
H	 1.0685342879	 1.9947323499	 0.1258688905	 0.117534
H	-0.5179732934	 2.043372521	-0.65376847	 0.114783
H	-0.4047546725	 1.84939828	 1.1023753422	 0.148987
H	 0.5658387336	-0.2174248948	-0.9671235597	 0.11191
H	 0.7232134942	-0.3901154415	 0.7739157494	 0.107107
H	-1.9575457608	-0.1101530011	-0.6894131288	 0.104186
H	-0.5354831609	-2.6618310443	 0.2751728596	 0.104176
H	-3.535500365	-2.089973102	 0.7531520708	 0.136295
H	-2.4244376925	-2.7995819271	 1.9492755082	 0.14308
H	-2.9057065323	-2.2252651736	-1.6668923948	 0.068375
63.7191	67.8535	94.7557	155.8636	187.9944	259.5444	272.1973	326.5154	372.4589	427.2382	470.6366	578.6523	704.1942	726.3064	776.3541	832.4007	884.58	945.5415	977.8097	1022.509	1039.9122	1046.9759	1084.7244	1110.0485	1145.7697	1175.7894	1206.6118	1214.8967	1237.6031	1273.8998	1315.7586	1332.4589	1367.9219	1412.4068	1427.1348	1439.4151	1488.0066	1498.9589	1512.3062	1832.5117	1889.4854	2826.019	2999.341	3026.2715	3037.8661	3043.5115	3061.4475	3102.8839	3104.5727	3126.1226	3127.1875
CCC1C(CC1=O)C=O	CC[C@H]1[C@@H](CC1=O)C=O	
InChI=1S/C7H10O2/c1-2-6-5(4-8)3-7(6)9/h4-6H,2-3H2,1H3	InChI=1S/C7H10O2/c1-2-6-5(4-8)3-7(6)9/h4-6H,2-3H2,1H3/t5-,6-/m0/s1
