19
gdb 53418	4.6632	0.8249	0.72334	1.006	87.07	-0.239	0.021	0.26	1588.7365	0.158704	-385.869698	-385.860478	-385.859534	-385.905495	33.101	
C	-0.0189823724	 1.4728615693	-0.0331047828	-0.502633
C	-0.0020205971	 0.0179182962	-0.0010874316	 0.178577
C	-0.0003807873	-1.1853951777	 0.0168306641	-0.011426
C	 0.0427005017	-2.6422324703	 0.0646632168	-0.075889
C	 0.6518529362	-3.1725124847	 1.3771015609	-0.24899
C	 0.4470927816	-4.6613001532	 1.4691148164	-0.07217
C	-0.4330306757	-5.2918362509	 0.6958620752	-0.063875
C	-1.3094866672	-4.5504766783	-0.2752322354	-0.111544
O	-1.2839633587	-3.1467311088	-0.0953786401	-0.260251
H	 0.5638224131	 1.8610119181	-0.8756755285	 0.148205
H	-1.0423907416	 1.8497712934	-0.1366964047	 0.153388
H	 0.3990799343	 1.8981677456	 0.8858919012	 0.147757
H	 0.6649600147	-3.0096572592	-0.7704293992	 0.090267
H	 1.7194332568	-2.9239671096	 1.4064011033	 0.111171
H	 0.1883131971	-2.6562727816	 2.2271447211	 0.122522
H	 1.0528771611	-5.2126148747	 2.1831941526	 0.089193
H	-0.5529923791	-6.3712067783	 0.7360371847	 0.090861
H	-1.0294437752	-4.8144731738	-1.3126267597	 0.096208
H	-2.3576755323	-4.8469442414	-0.1488740944	 0.11863
16.4656	82.5704	87.8355	174.8861	228.3157	297.8148	334.4172	395.4707	403.1961	486.223	521.182	556.784	669.4564	739.076	857.4075	900.3401	926.833	958.4564	993.2983	1025.1057	1043.3816	1050.6733	1054.2996	1059.6769	1116.2919	1178.6493	1204.584	1211.2838	1260.4182	1309.0288	1359.773	1382.4767	1397.0289	1410.6445	1414.3774	1468.3586	1476.9305	1478.7276	1485.71	1726.8724	2377.5903	2927.2515	2942.6523	3027.3583	3027.5599	3048.9867	3062.8601	3087.9301	3090.0188	3151.6934	3174.6751
CC#CC1CC=CCO1	CC#C[C@H]1CC=CCO1	
InChI=1S/C8H10O/c1-2-5-8-6-3-4-7-9-8/h3-4,8H,6-7H2,1H3	InChI=1S/C8H10O/c1-2-5-8-6-3-4-7-9-8/h3-4,8H,6-7H2,1H3/t8-/m0/s1
