20
gdb 5858	4.2978	0.96276	0.94558	1.3104	79.98	-0.2375	0.0564	0.294	1363.6986	0.172898	-348.992055	-348.981499	-348.980555	-349.028173	37.324	
C	 0.0900792924	 1.5409429465	-0.0140336218	-0.498424
C	 0.0421579263	 0.085623506	 0.005537384	 0.089213
C	 0.0028422674	-1.1177568385	 0.0106924277	 0.055983
C	-0.0267127468	-2.575561023	 0.0279842704	-0.354758
C	-1.444513217	-3.197988945	 0.0344461206	 0.347783
C	-1.3236536989	-4.7274819334	 0.1038456989	-0.410304
C	-2.2900916867	-2.6599809513	 1.1943560645	-0.413141
O	-2.0203066346	-2.8163755927	-1.2169801083	-0.454425
H	 1.0345244126	 1.9019344122	-0.4367294786	 0.145201
H	-0.7218874471	 1.9577026832	-0.6204526478	 0.146789
H	-0.0009417086	 1.9605752349	 0.9942275046	 0.142279
H	 0.4964758763	-2.9646581586	-0.8541401037	 0.129485
H	 0.5174592325	-2.9475439687	 0.905227153	 0.11799
H	-0.8458656054	-5.0530738467	 1.0337387402	 0.111965
H	-2.3158752718	-5.1907248319	 0.0603736366	 0.101619
H	-0.7381848614	-5.1019452891	-0.7409491004	 0.12077
H	-2.3777978827	-1.5737465887	 1.124347698	 0.137177
H	-3.2954725086	-3.0970186072	 1.1678363445	 0.09809
H	-1.8458813973	-2.9127044106	 2.162819492	 0.112244
H	-2.9321224907	-3.1258645474	-1.2260604442	 0.274462
27.5221	63.4135	91.8286	206.2053	232.049	250.1814	260.0307	265.6272	313.1368	331.7363	384.6674	398.5972	414.1693	451.3293	544.9853	765.4654	784.3062	884.7291	916.8914	929.8681	982.7852	1019.0972	1053.2754	1055.2673	1146.9071	1171.0715	1171.9405	1197.9686	1293.1736	1344.5778	1377.6542	1394.9872	1413.7938	1415.6386	1458.1143	1479.2011	1480.2157	1480.9552	1484.8624	1498.9705	1508.248	2373.8304	3021.7627	3024.2367	3026.1107	3032.7396	3058.6294	3082.9114	3084.5217	3089.9904	3098.1094	3112.9242	3132.1145	3810.0472
CC#CCC(C)(C)O	CC#CCC(C)(C)O	
InChI=1S/C7H12O/c1-4-5-6-7(2,3)8/h8H,6H2,1-3H3	InChI=1S/C7H12O/c1-4-5-6-7(2,3)8/h8H,6H2,1-3H3
