14
gdb 34194	4.32944	1.4219	1.28342	4.6804	72.33	-0.2505	-0.0368	0.2136	952.7515	0.102071	-399.510712	-399.504249	-399.503305	-399.541486	25.838	
N	 0.0226893492	-1.0827644889	-0.0098672708	-0.342331
C	-0.0266634981	 0.0733979375	-0.0223069566	 0.206346
C	-0.0460004652	 1.4975208952	-0.0525570353	 0.374367
O	-1.1099001367	 2.1995528524	 0.5334457445	-0.324487
C	-0.7216883492	 3.4021611145	-0.2786355629	 0.024385
C	 0.1498335194	 4.2131563417	 0.6406191019	-0.094899
C	 1.2978410901	 3.5404554506	 0.8153290938	-0.054802
C	 1.315031145	 2.3495810717	-0.0618784175	-0.168715
C	 0.2482066002	 2.510009418	-1.1084006725	-0.20795
H	-1.6030124064	 3.8478347737	-0.732963422	 0.102886
H	-0.1972897448	 5.0696127832	 1.2020438356	 0.11878
H	 2.0699630965	 3.7578813529	 1.5418635006	 0.12052
H	 2.209546215	 1.7797707136	-0.2777875261	 0.119351
H	 0.3595448452	 2.4241825439	-2.1809992926	 0.126548
137.0502	162.7421	380.1622	406.0966	488.0612	509.3939	566.8336	628.7433	664.8239	717.9296	771.1605	806.9114	827.3819	877.7467	895.1082	909.5204	941.7617	978.1527	999.5498	1036.0326	1058.8017	1127.0249	1134.9775	1211.1914	1251.2411	1266.8507	1291.8223	1360.5078	1397.5902	1623.2224	2348.2334	3155.4993	3203.4017	3209.7573	3218.1172	3240.4993
N#CC12OC3C=CC1C23	N#C[C@@]12O[C@H]3C=C[C@@H]1[C@@H]23	
InChI=1S/C7H5NO/c8-3-7-4-1-2-5(9-7)6(4)7/h1-2,4-6H	InChI=1S/C7H5NO/c8-3-7-4-1-2-5(9-7)6(4)7/h1-2,4-6H/t4-,5+,6-,7-/m1/s1
