16
gdb 123827	3.59575	1.54729	1.1233	4.4731	70.06	-0.2452	-0.0016	0.2436	1023.6576	0.128428	-434.069578	-434.062856	-434.061912	-434.100764	26.212	
C	-0.0160504312	 1.4041794299	 0.0220233883	-0.069424
C	 1.4190393087	 1.9806584711	 0.0285026189	-0.350921
C	 2.1617971513	 1.2428413242	-1.0317450307	 0.314966
C	 1.730677707	 0.0806475626	-1.6194691145	 0.240013
C	 0.4450533912	-0.573907663	-1.2214931156	-0.188619
O	-0.0194696601	-0.0119981921	 0.0037428763	-0.247696
N	 2.63575898	-0.314498548	-2.5555365461	-0.271816
N	 3.6172867626	 0.5431285208	-2.576990146	-0.122042
N	 3.337939117	 1.4924523606	-1.6534909474	-0.292121
H	-0.5516405597	 1.6982770614	 0.9280763231	 0.116539
H	-0.5638892077	 1.8036394914	-0.8464727658	 0.099696
H	 1.3875274787	 3.0611970495	-0.1553399107	 0.115946
H	 1.8801040863	 1.829494125	 1.0123609819	 0.131518
H	-0.3181960812	-0.4597955598	-2.0090209113	 0.110638
H	 0.5748923342	-1.64437255	-1.0391184039	 0.136506
H	 3.9890421829	 2.2495356964	-1.5193817866	 0.276815
114.5432	223.27	288.7279	330.8087	374.2978	456.9954	523.7267	561.4973	679.6771	711.3672	724.0621	760.4379	859.8081	944.6385	969.2851	1028.2189	1031.0444	1051.0061	1092.0104	1114.5404	1201.923	1208.4848	1230.4395	1258.6264	1300.9063	1307.1816	1335.3155	1385.2202	1387.6824	1420.6871	1473.2018	1490.8078	1498.2259	1517.0502	1631.3018	2969.5017	2980.6597	3026.8646	3065.7454	3087.7957	3098.9979	3656.5881
C1CC2=C(CO1)N=NN2	C1Cc2c(CO1)nn[nH]2	
InChI=1S/C5H7N3O/c1-2-9-3-5-4(1)6-8-7-5/h1-3H2,(H,6,7,8)	InChI=1S/C5H7N3O/c1-2-9-3-5-4(1)6-8-7-5/h1-3H2,(H,6,7,8)
