14
gdb 14320	5.75161	1.70551	1.39251	4.5594	65.54	-0.2277	-0.0157	0.212	839.347	0.110392	-378.723767	-378.717707	-378.716763	-378.753817	23.935	
O	 0.093619841	-0.045999189	-0.0605602605	-0.371341
C	 0.0423391651	 1.1586650599	 0.0166264075	 0.411719
N	-1.1644677634	 1.8882667603	 0.2320264055	-0.359558
C	-0.9203763808	 3.2809750459	-0.0024716402	-0.031066
C	-0.8043247343	 4.44849104	 1.0595851744	-0.207913
N	 0.5993557152	 4.6562545818	 0.5457228746	-0.366526
C	 0.5709200773	 3.3569951185	 0.0448303102	 0.345085
C	 1.1576832629	 2.1527694929	 0.0206226064	-0.390826
H	-2.0112239767	 1.4461478686	-0.0947403806	 0.242935
H	-1.3750234272	 3.6601892995	-0.9232570274	 0.114503
H	-1.4571917812	 5.315727425	 0.9395760717	 0.119565
H	-0.8284062428	 4.0706292809	 2.0853634483	 0.130157
H	 1.3395207497	 4.932420244	 1.1795254588	 0.24825
H	 2.1845865052	 1.8668935019	 0.1855100411	 0.115014
151.9837	230.2818	374.3196	397.5276	503.4223	563.1051	603.3797	681.9588	725.3066	740.6814	805.6462	824.0063	869.1171	890.6759	947.9216	957.7371	1032.062	1114.0513	1138.0365	1147.7535	1171.5529	1224.0117	1226.0142	1328.3134	1340.4899	1359.9053	1410.3277	1499.1881	1700.9861	1826.7506	3055.6663	3056.0371	3126.3734	3257.8011	3560.5034	3613.7316
O=C1NC2CNC2=C1	O=C1N[C@H]2CN[C]2[CH]1	
InChI=1S/C5H6N2O/c8-5-1-3-4(7-5)2-6-3/h1,4,6H,2H2,(H,7,8)	InChI=1S/C5H6N2O/c8-5-1-3-4(7-5)2-6-3/h1,4,6H,2H2,(H,7,8)/t4-/m0/s1
