15
gdb 77889	2.16867	1.78611	1.2497	3.1164	62.71	-0.2359	-0.0247	0.2112	1000.8308	0.110977	-494.870514	-494.862193	-494.861248	-494.903249	31.553	
O	-0.2036106627	 1.4245810862	 0.1630813117	-0.426364
C	-0.1334075693	 0.0244272344	 0.0023345519	 0.037174
C	-1.3842549195	-0.7690603214	 0.0190538092	-0.217869
C	-2.4967422422	-0.0404751427	-0.7503772434	 0.031673
O	-2.9703578631	 1.1809698581	-0.2672385981	-0.431297
C	-1.584866774	-0.121400276	-2.0155010669	 0.274541
O	-1.8119245366	-0.1217076906	-3.1982958574	-0.338392
C	-0.4066263971	-0.6684272279	-1.2916472498	 0.248321
O	 0.5185844427	-1.4995128443	-1.8481908438	-0.440175
H	 0.5115705699	 1.8275876375	-0.3418905482	 0.299113
H	 0.6994471075	-0.4357735212	 0.5361785014	 0.121616
H	-1.5248161241	-1.6150663291	 0.6793942922	 0.122716
H	-3.3710777102	-0.67721031	-0.9199639917	 0.116326
H	-2.1927349398	 1.7206678119	-0.069424622	 0.294932
H	 0.1284195885	-1.862163765	-2.6554154147	 0.307686
74.6555	206.7503	222.0277	240.2117	268.2376	324.6191	360.6637	397.2317	446.5723	506.5112	557.9296	595.8964	631.4315	685.1669	775.9821	832.821	876.6454	910.7295	955.957	995.9247	1067.8603	1087.7041	1146.3391	1182.3282	1225.7601	1262.3088	1299.7306	1314.3045	1374.7473	1391.2731	1467.8144	1483.8099	1844.4007	3071.0282	3104.1641	3207.3571	3751.0213	3758.96	3806.2047
OC1C2C(O)C(=O)C12O	O[C@H]1[C@H]2[C@@H](O)C(=O)[C@@]12O	
InChI=1S/C5H6O4/c6-2-1-3(7)5(1,9)4(2)8/h1-3,6-7,9H	InChI=1S/C5H6O4/c6-2-1-3(7)5(1,9)4(2)8/h1-3,6-7,9H/t1-,2-,3+,5+/m1/s1
