21
gdb 87262	3.3712	0.89462	0.7992	4.4803	81.61	-0.2378	0.0393	0.2771	1502.2339	0.181272	-420.40821	-420.398096	-420.397152	-420.443811	36.585	
C	 0.0409942587	 1.3888885405	-0.3253999978	-0.317722
N	 0.0709617542	-0.0286653804	 0.0022734525	-0.121882
C	 1.3573247005	-0.7253367415	-0.0220191791	-0.280528
C	 0.6424337142	-0.5045226923	 1.2686834049	 0.3028
C	 1.2199252931	 0.4528109931	 2.2922482606	-0.46876
C	-0.1492619903	-1.6431803153	 1.9090855792	-0.198836
N	-0.854683905	-2.430355841	 0.9216994923	-0.275478
C	-0.9727427694	-3.7789924657	 0.9872152983	 0.150726
O	-0.5493029206	-4.4796875086	 1.8842838352	-0.331262
H	 0.9519205399	 1.9397681933	-0.049531293	 0.105268
H	-0.098967284	 1.4944500221	-1.4059329471	 0.128495
H	-0.8112471732	 1.8617070939	 0.1730288952	 0.125977
H	 1.3603375309	-1.7016995525	-0.4993375524	 0.118596
H	 2.250870722	-0.1274824793	-0.198071638	 0.108218
H	 1.8525079841	 1.2185623738	 1.8397871434	 0.123618
H	 0.4251228855	 0.9535744756	 2.8569336024	 0.124791
H	 1.8349774478	-0.0994687743	 3.0107079575	 0.132884
H	 0.514475839	-2.3141698566	 2.4619453036	 0.142974
H	-0.8533826934	-1.2145382471	 2.6384278408	 0.106072
H	-1.1995536103	-1.9192705018	 0.1210085225	 0.254127
H	-1.5143601938	-4.1848133058	 0.1090798788	 0.069921
38.0832	88.1243	165.6215	177.1	185.0934	204.4616	254.7069	288.2807	309.9479	370.4494	439.7466	459.4543	527.8724	637.6209	690.2821	738.925	798.7133	911.5178	921.2596	968.5722	998.2897	1035.2985	1051.6816	1064.4088	1121.3624	1130.4711	1152.0132	1179.9272	1206.4755	1221.577	1261.0898	1266.6061	1373.2584	1404.451	1415.5096	1427.8727	1449.8371	1485.8243	1486.3688	1498.227	1503.9823	1511.0444	1518.7882	1520.623	1800.8893	2929.9533	2989.0446	2993.1152	3035.7088	3070.9331	3091.1424	3092.8054	3095.6152	3102.5895	3129.7297	3180.4991	3596.2128
CN1CC1(C)CNC=O	CN1C[C@]1(C)CNC=O	
InChI=1S/C6H12N2O/c1-6(3-7-5-9)4-8(6)2/h5H,3-4H2,1-2H3,(H,7,9)	InChI=1S/C6H12N2O/c1-6(3-7-5-9)4-8(6)2/h5H,3-4H2,1-2H3,(H,7,9)/t6-,8?/m0/s1
