23
gdb 115874	2.39993	1.38638	1.02572	1.7432	84.9	-0.2498	0.0856	0.3354	1280.2964	0.20575	-388.30609	-388.296754	-388.29581	-388.33991	35.965	
C	-0.0092770369	 1.5441187964	 0.1015289542	-0.387018
C	-0.0388084561	 0.0195783189	-0.0473365312	-0.189051
C	 0.7129232928	-0.4965429449	-1.28092531	-0.024277
C	 2.2315266052	-0.174660203	-1.2827558134	-0.228228
C	 2.9048071966	-1.2952982683	-2.1080411296	-0.252381
C	 1.9784153065	-2.4776864235	-1.9210815604	-0.012273
O	 1.5820365462	-2.6888285142	-0.5551235385	-0.309308
C	 0.6666181989	-2.0168244137	-1.4472744754	 0.415141
C	-0.6316815666	-2.7276478824	-1.7169612916	-0.493044
H	 1.0127951082	 1.9182527346	 0.2182994243	 0.119468
H	-0.4435495477	 2.0358258614	-0.7766937127	 0.110606
H	-0.5808294902	 1.8654225935	 0.9778180294	 0.111499
H	 0.3931451389	-0.4523428893	 0.8440011783	 0.109306
H	-1.0837811244	-0.3121333949	-0.0956922007	 0.091431
H	 0.2487147404	-0.0630723928	-2.1803306426	 0.063863
H	 2.447940735	 0.8202682157	-1.6785544133	 0.096323
H	 2.6030785781	-0.2063466303	-0.2547565421	 0.114048
H	 2.9432819221	-1.0427327112	-3.1753421445	 0.099437
H	 3.9301396718	-1.4995084478	-1.7836641818	 0.10623
H	 2.0994533712	-3.3835244444	-2.5119309209	 0.083592
H	-1.3248741268	-2.6147534207	-0.8766270228	 0.128682
H	-1.1195085788	-2.3204252428	-2.6093521745	 0.118441
H	-0.4601584446	-3.7962244762	-1.8690019803	 0.127515
91.328	116.8922	175.0443	189.8116	240.6889	242.9926	284.8015	307.8913	414.7492	445.7063	512.8921	561.4989	663.5492	704.2736	774.1266	827.624	847.6801	869.7614	924.1635	943.2603	957.4574	989.4416	1003.9264	1032.1853	1040.6864	1074.6975	1096.5085	1141.702	1156.0984	1192.7128	1231.3002	1244.7977	1278.7771	1300.0361	1317.9481	1333.2009	1337.2728	1358.4395	1385.3655	1410.5476	1411.3148	1457.3134	1478.0215	1485.85	1489.4745	1494.1726	1499.6026	1503.356	1508.6821	2987.3954	3021.1699	3030.3178	3031.0062	3034.9254	3057.0004	3061.3222	3080.0476	3095.8148	3096.573	3104.9005	3110.0912	3120.1204	3133.4205
CCC1CCC2OC12C	CC[C@H]1CC[C@H]2O[C@@]12C	
InChI=1S/C8H14O/c1-3-6-4-5-7-8(6,2)9-7/h6-7H,3-5H2,1-2H3	InChI=1S/C8H14O/c1-3-6-4-5-7-8(6,2)9-7/h6-7H,3-5H2,1-2H3/t6-,7+,8-/m0/s1
