16
gdb 45331	2.54074	1.9462	1.21644	4.2062	71.43	-0.251	0.0057	0.2566	988.5473	0.126929	-434.074346	-434.067163	-434.066219	-434.106324	27.454	
N	 0.1164665842	 1.2652854978	 0.5630925082	-0.516219
C	 0.0085482286	 0.0826204928	 0.1657104925	 0.366168
C	-1.1543027698	-0.7886083351	-0.3071970122	-0.343586
C	-0.0715316272	-1.833472102	-0.7069974021	 0.001084
C	 0.4185692576	-1.9273410311	-2.1617728921	-0.116191
O	 1.8111023134	-1.5558586218	-2.0912380874	-0.24471
C	 2.0419238202	-0.8029992313	-0.9684221684	 0.423646
N	 3.0397783311	-0.0669418993	-0.7418852018	-0.554441
N	 0.9589270842	-0.9686937695	-0.0931486459	-0.137722
H	 1.0959812796	 1.5046886247	 0.7352004774	 0.250345
H	-1.8381951196	-1.1084239785	 0.4810806297	 0.141877
H	-1.7290724919	-0.3606666002	-1.1312232912	 0.139033
H	-0.1569332178	-2.8132057762	-0.2314660552	 0.103869
H	 0.3615004761	-2.9327492275	-2.5815612348	 0.132726
H	-0.1037749591	-1.2281936062	-2.8263894464	 0.121255
H	 3.6522432205	-0.0361422966	-1.5554104405	 0.232866
92.5061	139.5078	156.6362	313.0078	425.3528	453.4398	505.4564	610.4643	670.7926	716.2026	725.941	784.8001	840.4433	851.2864	895.2853	918.2445	974.3076	989.2214	1035.975	1056.1593	1067.2911	1105.7025	1154.7258	1166.3544	1226.0071	1236.9946	1243.4913	1286.7935	1301.3291	1374.6041	1397.6416	1460.8113	1518.7833	1763.7775	1826.8331	3031.8373	3078.1541	3083.3436	3121.7839	3137.6651	3462.1941	3514.3649
N=C1CC2COC(=N)N12	[NH][C]1C[C@H]2CO[C]([NH])N12	
InChI=1S/C5H7N3O/c6-4-1-3-2-9-5(7)8(3)4/h3,6-7H,1-2H2	InChI=1S/C5H7N3O/c6-4-1-3-2-9-5(7)8(3)4/h3,6-7H,1-2H2/t3-/m0/s1
