20
gdb 121342	2.58919	1.23464	0.93682	3.0407	76.35	-0.2286	0.0393	0.2678	1292.3425	0.172166	-440.331139	-440.321897	-440.320953	-440.366164	33.356	
O	 0.0269188515	 1.3927589267	 0.1814520144	-0.415581
C	 0.0012174499	-0.0255040297	 0.083426977	-0.076383
C	-1.4492790745	-0.4703688278	-0.0719184878	-0.16769
N	-2.0634297817	-0.0559653078	-1.3146629754	-0.064803
C	-2.5335119772	 1.2978901007	-1.5793055888	-0.156696
C	-3.3655865368	 1.1340175739	-2.8693024464	-0.224893
C	-2.7528818305	-0.1004587947	-3.5486546739	-0.327797
C	-2.1297270306	-0.8928615217	-2.3982934619	 0.406453
O	-1.7406902168	-2.0446298504	-2.4226414419	-0.404849
H	 0.944722883	 1.6787698403	 0.1979007482	 0.29005
H	 0.5811233183	-0.381367089	-0.7804503194	 0.106744
H	 0.4185452981	-0.4959432777	 0.9880185908	 0.09019
H	-1.4857300786	-1.5631750067	-0.0512488596	 0.138647
H	-2.0348441716	-0.0783716526	 0.7685588774	 0.108564
H	-3.12787255	 1.6694942091	-0.7372210854	 0.107288
H	-1.6906345352	 1.9866979048	-1.7091717008	 0.117538
H	-4.4103175826	 0.9368204385	-2.6104069909	 0.113351
H	-3.3414638876	 2.0323210556	-3.489458343	 0.106677
H	-3.4656919691	-0.7188532716	-4.0968302021	 0.127582
H	-1.950356038	 0.1671528202	-4.2464055504	 0.125609
34.4364	110.2158	129.0967	153.8947	180.7777	261.7049	264.4042	358.3731	442.3941	506.6986	574.3437	618.3042	664.7375	737.9573	856.0137	870.3382	904.7215	928.5401	949.3778	1013.5464	1032.2874	1089.7136	1100.1808	1115.8546	1177.5399	1201.8734	1217.8739	1242.4364	1254.4126	1283.3452	1297.0897	1309.7059	1338.9695	1363.672	1403.3455	1444.6536	1453.5426	1463.2237	1472.1112	1499.7248	1516.0128	1539.136	1797.1946	2975.0631	3015.77	3030.6858	3039.8813	3045.9151	3053.9072	3067.3948	3107.2884	3109.6104	3120.5769	3832.2646
OCCN1CCCC1=O	OCCN1CCCC1=O	
InChI=1S/C6H11NO2/c8-5-4-7-3-1-2-6(7)9/h8H,1-5H2	InChI=1S/C6H11NO2/c8-5-4-7-3-1-2-6(7)9/h8H,1-5H2
