20
gdb 22430	3.52228	1.227	1.07335	0.8243	81.36	-0.2365	0.0117	0.2481	1173.5884	0.172876	-403.115199	-403.107375	-403.106431	-403.14831	31.394	
O	-0.1737016807	 1.343537985	-0.5039444218	-0.399568
N	 0.0033747581	-0.0445118188	-0.3445891722	-0.208813
C	-1.0461895818	-0.5995513024	 0.1216654952	 0.374328
C	-2.3223552505	 0.1481998683	 0.4601312405	-0.283783
C	-3.3966513088	-0.7985767906	 0.9986012165	-0.024565
C	-2.7879744622	-1.7321728883	 2.0829256965	-0.225096
C	-2.3148380741	-2.6291403727	 0.9038998369	-0.013068
C	-3.5058296658	-2.0531195269	 0.0864387322	-0.225083
C	-0.9883616868	-2.106870958	 0.3429766186	-0.281528
H	 0.680940408	 1.6150730196	-0.8545831916	 0.304324
H	-2.0870611177	 0.9354941435	 1.1875608339	 0.123402
H	-2.6713061486	 0.674087053	-0.4376618318	 0.123395
H	-4.3137431354	-0.25663026	 1.2412253306	 0.060944
H	-2.026385971	-1.3160295806	 2.7507742837	 0.091925
H	-3.561784801	-2.2214603679	 2.6799417578	 0.096867
H	-2.2733115908	-3.7092175015	 1.0625932001	 0.061227
H	-4.4291338906	-2.6092410134	 0.2676882871	 0.096865
H	-3.3721250544	-1.9177004878	-0.9919861572	 0.091917
H	-0.7542204165	-2.6047225339	-0.6053420397	 0.118153
H	-0.1663517192	-2.3421617363	 1.0292089947	 0.118156
22.3093	234.4033	252.8728	310.5236	351.0063	371.5453	406.7587	486.2347	505.7151	524.3841	632.4547	755.3863	825.3615	840.5142	845.9288	884.9441	896.3765	905.9461	928.6879	968.2966	1010.2116	1067.2343	1069.8607	1088.7822	1093.2496	1095.6593	1134.6048	1209.6855	1222.2748	1241.954	1259.2668	1268.1544	1307.4699	1312.7657	1330.3192	1356.2344	1372.5203	1401.4774	1461.2955	1471.6676	1478.9014	1508.8115	1727.2141	3025.6738	3030.	3041.6743	3045.4379	3054.6612	3064.9381	3075.3441	3077.6322	3101.8988	3105.6628	3821.5803
ON=C1CC2CC(C2)C1	ON=C1C[C@@H]2C[C@@H](C2)C1	
InChI=1S/C7H11NO/c9-8-7-3-5-1-6(2-5)4-7/h5-6,9H,1-4H2	InChI=1S/C7H11NO/c9-8-7-3-5-1-6(2-5)4-7/h5-6,9H,1-4H2/t5-,6+
