17
gdb 93118	2.09179	1.78774	1.28486	4.2881	72.58	-0.265	0.006	0.271	1039.0185	0.137288	-418.039654	-418.03145	-418.030506	-418.072539	30.286	
C	 0.024295428	 1.5385121092	-0.0793235361	-0.420705
C	 0.0386702542	 0.0253210127	 0.0323261938	 0.135426
O	 0.6010212853	-0.4882925741	-1.1843638859	-0.231029
C	 0.9920308341	-1.7872914996	-1.168904052	 0.137818
N	 1.0830078199	-2.5819391705	-0.1911487461	-0.256102
C	 0.7953698879	-2.0835144722	 1.1428102126	-0.171105
C	 0.8112382845	-0.5371936012	 1.2462453607	-0.213619
C	 2.1780692908	-0.0148277539	 1.305437931	 0.297162
N	 3.2554779425	 0.3998287502	 1.3602562258	-0.327902
H	 1.0422942252	 1.9308819899	-0.144461984	 0.158428
H	-0.5243128234	 1.8398994186	-0.974967199	 0.137584
H	-0.4669320251	 1.9773594956	 0.7942448087	 0.12486
H	-0.9883959138	-0.356531811	 0.1106625509	 0.100182
H	 1.2531815392	-2.107138051	-2.1752520588	 0.135546
H	-0.1900075132	-2.4471898438	 1.4593043136	 0.123419
H	 1.5242687393	-2.5130036005	 1.8365658931	 0.137378
H	 0.2967399047	-0.2228342085	 2.1614766618	 0.132657
97.8454	126.384	148.2443	231.3865	255.4367	307.5579	406.305	444.3178	463.6928	503.9162	646.1502	683.9504	766.8894	838.6766	885.7257	912.0844	953.9971	972.8285	1012.8667	1042.8917	1067.9258	1146.0752	1166.049	1170.8227	1239.351	1258.0938	1322.9206	1364.9001	1376.7892	1391.7661	1408.51	1419.9534	1483.3815	1486.009	1498.9663	1738.9337	2356.7195	3014.1723	3032.1272	3049.9334	3054.6712	3080.8072	3126.0784	3135.9735	3170.3062
CC1OC=NCC1C#N	C[C@H]1OC=NC[C@H]1C#N	
InChI=1S/C6H8N2O/c1-5-6(2-7)3-8-4-9-5/h4-6H,3H2,1H3	InChI=1S/C6H8N2O/c1-5-6(2-7)3-8-4-9-5/h4-6H,3H2,1H3/t5-,6-/m1/s1
