21
gdb 87173	2.26736	1.33638	0.98697	3.5952	79.31	-0.2283	-0.005	0.2234	1274.0921	0.179359	-424.233975	-424.22367	-424.222726	-424.269552	38.058	
C	 2.0196368402	-0.278886951	-3.3375502396	-0.484714
C	 1.8540678019	-0.7397871919	-1.9048828314	 0.387312
O	 2.8023099718	-0.9811830591	-1.1907060826	-0.308563
C	 0.4176770776	-0.9020244348	-1.3931541925	-0.356335
C	 0.0145028661	-2.3709243807	-1.2483676474	 0.32392
C	 0.7936597429	-3.1685634515	-0.2185396764	-0.455465
C	-1.464012895	-2.6978501657	-1.4026837641	-0.381722
C	-0.4772568391	-3.0995780242	-2.4719631999	 0.06994
O	-0.4690008358	-2.4059454908	-3.6902532597	-0.416849
H	 1.44728941	-0.9340662106	-4.0015708128	 0.167489
H	 1.6012792901	 0.7290885428	-3.4504905691	 0.132008
H	 3.0754854094	-0.2691234895	-3.6109772194	 0.130868
H	 0.3637974049	-0.4257801514	-0.4072560568	 0.117661
H	-0.2783644339	-0.3942695446	-2.0636929176	 0.104156
H	 0.621345695	-2.7676967637	 0.7869878938	 0.116467
H	 0.4782927915	-4.2167832515	-0.2167066326	 0.104326
H	 1.8682913922	-3.1263231363	-0.4092638159	 0.148651
H	-1.8940407152	-3.4667087976	-0.7687727105	 0.111688
H	-2.1341231454	-1.8792446271	-1.6449444482	 0.110578
H	-0.2172479064	-4.1547771102	-2.5561770038	 0.087947
H	-1.2568915828	-2.6561787609	-4.1836332133	 0.290636
28.0299	116.2957	158.8397	185.4362	199.3949	230.6307	253.3851	279.9121	330.1724	368.3209	394.8853	464.6199	499.4606	518.0561	589.1057	743.2133	794.1698	808.1279	882.0447	906.1855	931.3881	971.6655	996.8322	1032.7239	1041.4223	1069.3703	1105.6422	1127.5471	1160.1638	1188.0948	1231.2154	1272.9348	1296.7406	1323.1441	1352.145	1385.072	1421.9735	1427.6521	1461.5232	1471.0765	1475.5784	1486.3848	1491.5648	1507.5407	1804.227	3032.6753	3033.2111	3042.8999	3092.1087	3099.0074	3102.7735	3113.8852	3124.5307	3128.9925	3154.1646	3213.4523	3807.8087
CC(=O)CC1(C)CC1O	CC(=O)C[C@@]1(C)C[C@H]1O	
InChI=1S/C7H12O2/c1-5(8)3-7(2)4-6(7)9/h6,9H,3-4H2,1-2H3	InChI=1S/C7H12O2/c1-5(8)3-7(2)4-6(7)9/h6,9H,3-4H2,1-2H3/t6-,7+/m1/s1
