19
gdb 113690	2.67327	1.12517	0.95809	2.4343	74.14	-0.2495	0.0141	0.2635	1317.2726	0.156918	-460.168387	-460.158448	-460.157504	-460.204224	34.496	
C	-0.765727734	 0.8792191652	-0.4186715051	-0.238514
O	 0.3734588226	 0.1414207507	-0.0179564434	-0.21557
C	 0.9271634113	-0.6046403658	-1.0369424661	 0.141399
C	 1.7147506768	-1.8009009373	-0.6656233346	-0.326133
C	 0.3862746864	-2.0060567626	-1.3795679665	-0.209895
C	-0.7394296314	-2.5630567772	-0.5899885841	 0.472184
O	-0.8213474744	-2.593240936	 0.6137128014	-0.374303
O	-1.7025857263	-3.0410408896	-1.4147106995	-0.24617
C	-2.8401555464	-3.6047258996	-0.7538654531	-0.23958
H	-0.5229604832	 1.5869959088	-1.2256850074	 0.106551
H	-1.5737119328	 0.219940208	-0.7641571293	 0.115262
H	-1.1069739731	 1.4373152373	 0.4552506818	 0.134514
H	 1.2420480244	-0.0231287399	-1.9058938559	 0.092465
H	 2.6283731213	-2.0264097768	-1.2027104686	 0.120327
H	 1.6980839673	-2.0631265436	 0.3863976552	 0.155028
H	 0.3867695085	-2.2760634582	-2.4281688348	 0.105816
H	-3.5009029218	-3.9562868715	-1.5467203587	 0.129638
H	-2.5415672746	-4.4349187137	-0.1085078205	 0.139919
H	-3.3454953706	-2.8533955082	-0.1411050406	 0.137061
42.7839	84.8384	115.9993	145.0684	155.3828	193.7517	235.2511	265.6808	327.654	406.8026	455.9	525.2774	670.8813	765.9563	807.9307	829.6734	858.322	957.6709	976.1349	1048.5026	1077.774	1097.9424	1112.8252	1128.2646	1163.0901	1179.2789	1184.0275	1194.3345	1213.9821	1228.5716	1270.2411	1398.1584	1406.1107	1464.5897	1474.0641	1480.4778	1486.5252	1491.9025	1499.155	1507.7409	1809.9041	2986.6536	3042.7162	3048.8441	3080.8321	3121.539	3129.7215	3143.3975	3154.5513	3191.2399	3241.112
COC1CC1C(=O)OC	CO[C@H]1C[C@H]1C(=O)OC	
InChI=1S/C6H10O3/c1-8-5-3-4(5)6(7)9-2/h4-5H,3H2,1-2H3	InChI=1S/C6H10O3/c1-8-5-3-4(5)6(7)9-2/h4-5H,3H2,1-2H3/t4-,5+/m1/s1
