20
gdb 104745	2.68671	1.16223	0.94605	4.0032	79.92	-0.29	-0.0013	0.2887	1314.3649	0.168708	-403.150781	-403.140696	-403.139752	-403.186103	36.224	
C	 0.0520684839	-0.6206138105	 1.2565994616	-0.385772
C	-0.3918849514	-0.3096862594	-0.1769048533	-0.280607
C	 0.702663999	-0.4232490013	-1.2398459775	 0.39878
C	 0.6923833944	 0.628488629	-2.3375623689	-0.259072
C	 1.1462688044	 2.0068384361	-1.8394518016	-0.384486
O	 2.0201277898	-0.7746259133	-0.7823892714	-0.258236
C	 1.3143451153	-1.7384899684	-1.5630353457	-0.162379
C	 0.9039647246	-2.9625599042	-0.908527347	 0.307213
N	 0.5596264259	-3.9561441589	-0.4278324084	-0.33659
H	 0.3947589278	-1.6513191429	 1.3657527988	 0.148759
H	 0.8674067515	 0.0379429901	 1.5665892537	 0.128077
H	-0.7884940607	-0.4728266742	 1.9408087641	 0.114915
H	-1.2208256585	-0.9673370728	-0.4658923176	 0.123798
H	-0.7919621494	 0.7089050199	-0.2139719221	 0.108305
H	 1.3515211933	 0.3058098301	-3.1504124901	 0.107009
H	-0.3210011235	 0.6871997038	-2.7535876827	 0.111317
H	 0.4854670915	 2.4011800658	-1.0614488209	 0.124979
H	 2.1576692754	 1.949317276	-1.4274562441	 0.13918
H	 1.1532325307	 2.7268678224	-2.6623761127	 0.121967
H	 1.7098750861	-1.9001020074	-2.5649421042	 0.132844
55.5089	91.7103	125.5984	141.9241	206.2448	220.0324	249.6238	269.19	338.5819	364.1605	438.3292	495.9415	580.652	621.5703	684.8942	774.3139	789.5427	837.3414	938.7068	946.0963	973.5922	1035.5407	1050.3906	1073.7998	1079.7852	1113.1788	1136.3947	1217.876	1275.0981	1305.4685	1334.8461	1372.3758	1377.0221	1408.783	1417.9592	1441.8288	1477.265	1486.1529	1497.9625	1502.4912	1506.3498	1509.9579	2355.4393	3032.4086	3037.6308	3045.1	3053.4271	3072.0076	3074.3015	3114.0916	3120.7954	3121.6359	3122.438	3140.9794
CCC1(CC)OC1C#N	CCC1(CC)O[C@H]1C#N	
InChI=1S/C7H11NO/c1-3-7(4-2)6(5-8)9-7/h6H,3-4H2,1-2H3	InChI=1S/C7H11NO/c1-3-7(4-2)6(5-8)9-7/h6H,3-4H2,1-2H3/t6-/m0/s1
