18
gdb 104774	2.44059	1.22227	1.06393	3.4659	69.57	-0.2529	-0.0034	0.2495	1196.9937	0.146435	-476.203747	-476.194389	-476.193444	-476.238144	33.874	
O	-0.0296290794	 1.186620274	 0.7079374049	-0.42624
C	-0.0903925264	-0.1273375939	 0.1840776566	-0.126286
C	-1.5164566227	-0.56459256	-0.1088324596	 0.234644
C	-2.207388475	 0.1856604456	-1.2321219502	-0.133096
O	-2.3121564237	 1.5818027413	-0.9477740823	-0.415649
C	-1.9388909389	-1.9745783217	 0.1985984261	-0.2916
N	-2.3902301837	-0.8746577304	 1.0230556699	-0.106003
C	-2.0469540939	-0.7419054515	 2.3662043215	 0.134951
O	-2.0189515667	-1.6536160598	 3.1543473805	-0.283929
H	-0.5551514117	 1.7423114943	 0.1151208508	 0.29044
H	 0.5050830898	-0.2248220817	-0.7386681743	 0.097513
H	 0.3574468701	-0.7869967524	 0.934779278	 0.120374
H	-1.6179709522	 0.1127595062	-2.1517467449	 0.124657
H	-3.1963854085	-0.2503067145	-1.4218528781	 0.109739
H	-2.9121525864	 1.6709972547	-0.1975309764	 0.298294
H	-2.6948032591	-2.4571621657	-0.4153776779	 0.127088
H	-1.2046523032	-2.6453214951	 0.6374703523	 0.142022
H	-1.8634337785	 0.3122593806	 2.6375488533	 0.103079
76.0861	99.828	132.1958	181.2357	210.7814	247.6012	309.6247	357.8124	367.6289	395.7714	495.1569	532.3661	597.7804	628.3651	842.7	869.043	902.0565	941.8047	956.652	1024.3954	1036.6273	1050.1722	1077.6498	1118.074	1136.6385	1162.5771	1193.8466	1271.4375	1305.6271	1363.7941	1371.81	1408.4453	1417.0433	1434.7003	1469.3745	1489.5523	1504.0286	1511.1401	1801.0358	2971.0434	2991.3286	3024.6177	3072.2919	3088.973	3109.3713	3197.2598	3735.3243	3794.7663
OCC1(CO)CN1C=O	OCC1(CO)CN1C=O	
InChI=1S/C5H9NO3/c7-2-5(3-8)1-6(5)4-9/h4,7-8H,1-3H2	InChI=1S/C5H9NO3/c7-2-5(3-8)1-6(5)4-9/h4,7-8H,1-3H2
