18
gdb 91604	2.32011	2.01412	1.49705	2.2895	71.72	-0.2616	0.0239	0.2855	948.8163	0.15004	-439.115421	-439.108196	-439.107251	-439.146912	28.972	
C	-0.1549123215	 1.5396203841	-0.0617887925	-0.406215
C	 0.0310130627	 0.0362279786	 0.0265055009	 0.137254
O	 0.8360486332	-0.4417990927	-1.090795393	-0.274229
C	 1.8625113215	-1.2077766322	-0.519299826	 0.19805
C	 1.2118537634	-1.8988008839	 0.6806770973	-0.26897
C	 0.8107386882	-0.5183303353	 1.2525913172	-0.16051
C	 2.1691843568	 0.1511560589	 1.2423061084	 0.448553
N	 2.6329017898	 0.9791527559	 2.0711657399	-0.566436
O	 2.8147458823	-0.3183425203	 0.1168553125	-0.256703
H	 0.7989529747	 2.0654967424	 0.0206047342	 0.142247
H	-0.6166245482	 1.8006686828	-1.0179303051	 0.128958
H	-0.8109979046	 1.8860519643	 0.7431568375	 0.121454
H	-0.9465215277	-0.4621783758	-0.0258165891	 0.083407
H	 2.3813773406	-1.7762872394	-1.2871647884	 0.104356
H	 0.3655019643	-2.5294183501	 0.4022817051	 0.116887
H	 1.9188688001	-2.4512948882	 1.3010485933	 0.123565
H	 0.2868630361	-0.4634791054	 2.2028798346	 0.104084
H	 3.5760524183	 1.2661495165	 1.800684693	 0.224249
139.0901	155.6018	208.635	313.3146	413.9774	460.8009	495.7955	505.6459	569.0373	712.9774	727.9869	817.1652	844.7506	857.126	884.9345	898.0863	906.9819	945.9072	972.8263	990.7994	1037.7009	1049.151	1083.951	1112.5887	1135.6011	1147.6023	1202.5282	1254.046	1270.9847	1285.8431	1318.5113	1362.4838	1372.2552	1389.7994	1416.9022	1484.172	1493.3511	1495.3271	1794.6518	3008.2109	3047.0016	3082.5263	3117.0202	3135.108	3144.7803	3164.7289	3167.9228	3463.6659
CC1OC2CC1C(=N)O2	C[C@H]1O[C@@H]2C[C@H]1[C]([NH])O2	
InChI=1S/C6H9NO2/c1-3-4-2-5(8-3)9-6(4)7/h3-5,7H,2H2,1H3	InChI=1S/C6H9NO2/c1-3-4-2-5(8-3)9-6(4)7/h3-5,7H,2H2,1H3/t3-,4-,5+/m1/s1
