18
gdb 20001	3.80814	1.25191	1.03071	3.3121	74.28	-0.2423	-0.0144	0.2279	1151.3541	0.153143	-347.787455	-347.779442	-347.778498	-347.820533	29.618	
O	-0.0239362444	-0.011042626	-0.4331582595	-0.273358
C	 0.0158443858	 1.1338186599	-0.0524162218	 0.169406
C	 1.248417505	 1.9438479638	 0.0347882153	-0.109664
C	 1.1550656661	 3.450513274	-0.1919663012	-0.316945
C	 1.4548689604	 2.9475206268	 1.1787274218	-0.004557
C	 0.4858293895	 3.1026094292	 2.3092560761	 0.013007
C	 0.7505831868	 2.4290033384	 3.6336371445	-0.26527
C	 0.8767224935	 3.9268821012	 3.5128660634	-0.274991
H	-0.9155307828	 1.6654331587	 0.2521087982	 0.061549
H	 2.1318671232	 1.4313740425	-0.330175513	 0.10506
H	 1.9382543706	 3.9113225628	-0.7826999977	 0.127517
H	 0.1625444876	 3.8538941801	-0.3713333496	 0.123391
H	 2.4948780201	 3.0124475235	 1.4901325846	 0.095431
H	-0.5563940455	 3.1741418288	 2.0136840272	 0.086397
H	-0.0918937256	 2.0218836955	 4.181300841	 0.117367
H	 1.6629581812	 1.8497077011	 3.7298845503	 0.116401
H	 1.8737353923	 4.3551070047	 3.5287592177	 0.113602
H	 0.1200449162	 4.5502419449	 3.9758611628	 0.115656
52.8704	103.3508	172.1922	213.5951	296.3066	305.0725	412.1818	442.8137	555.3458	736.2848	796.9756	820.1879	837.1798	862.5661	880.9477	932.1938	964.1742	995.6759	1035.5064	1047.795	1062.2411	1075.8055	1079.3411	1125.2096	1139.6183	1189.2265	1196.3739	1198.0666	1225.3278	1250.5545	1323.9058	1343.0988	1441.5623	1457.1805	1469.9776	1488.9144	1508.8271	1815.53	2858.7839	3128.5383	3130.5756	3131.4693	3136.6372	3152.3801	3176.385	3209.7739	3218.268	3225.1121
O=CC1CC1C1CC1	O=C[C@H]1C[C@H]1C1CC1	
InChI=1S/C7H10O/c8-4-6-3-7(6)5-1-2-5/h4-7H,1-3H2	InChI=1S/C7H10O/c8-4-6-3-7(6)5-1-2-5/h4-7H,1-3H2/t6-,7+/m1/s1
