16
gdb 23093	2.24849	1.49446	0.97239	0.9558	79.12	-0.2457	0.0019	0.2475	1186.126	0.122792	-400.680712	-400.672225	-400.67128	-400.714193	31.951	
O	-0.1676358108	 1.3464931103	 0.0443217977	-0.389961
N	-0.0105545038	-0.0480226646	-0.0046801314	-0.206612
C	-1.1363471893	-0.6333394033	-0.0188171911	 0.386247
C	-2.5181192441	-0.0161193755	 0.0304724599	-0.345757
C	-3.4150229206	-1.2268655384	 0.0613186535	-0.082036
C	-2.7402026956	-2.3728745462	 0.0191086789	-0.061643
C	-1.2339193833	-2.165330878	-0.0511603252	-0.299696
C	-0.6278839366	-2.7794294174	-1.2311203851	 0.351723
C	-0.1510240503	-3.3033039168	-2.2015378123	-0.480492
H	 0.7451899539	 1.6540022765	 0.0456703376	 0.308802
H	-2.6253219905	 0.6316642172	 0.9103666808	 0.136637
H	-2.6957000032	 0.6339225472	-0.8368130315	 0.13952
H	-4.4947095047	-1.1461819374	 0.1132331054	 0.104481
H	-3.1668845756	-3.3679122824	 0.0179170477	 0.111521
H	-0.7435868936	-2.5804732178	 0.8413867764	 0.130059
H	 0.2810549181	-3.7555374335	-3.0595028712	 0.197208
54.0679	115.7088	163.3694	232.191	294.6412	363.3116	392.0396	433.0635	480.6722	537.6986	574.4495	623.2317	637.8762	695.3203	728.5349	804.2616	825.9366	945.7249	962.9107	972.843	984.7693	1005.4926	1037.8161	1132.0434	1156.5963	1199.5022	1235.4744	1290.4113	1299.2268	1362.7971	1403.5129	1460.0824	1688.2281	1762.3982	2238.2232	2998.2732	3022.5368	3042.9655	3194.7878	3223.679	3505.0823	3817.7484
ON=C1CC=CC1C#C	ON=C1CC=C[C@H]1C#C	
InChI=1S/C7H7NO/c1-2-6-4-3-5-7(6)8-9/h1,3-4,6,9H,5H2	InChI=1S/C7H7NO/c1-2-6-4-3-5-7(6)8-9/h1,3-4,6,9H,5H2/t6-/m1/s1
