12
gdb 21483	5.18542	1.61357	1.23272	0.8474	58.25	-0.2433	-0.0588	0.1845	885.8219	0.084646	-410.82277	-410.815935	-410.814991	-410.854254	24.976	
N	-0.1035745766	 1.3103542982	 0.2035432415	-0.524468
C	 0.0734723977	-0.0380171648	 0.0479450217	 0.267879
N	 1.2470299983	-0.5405403583	-0.0642124892	-0.527384
C	-1.1926876018	-0.8020551878	 0.0609505268	 0.253041
C	-1.4451697594	-2.1409879291	 0.0688244033	-0.05479
O	-2.7549497454	-2.3406710386	 0.0713113916	-0.158116
N	-3.3601763402	-1.038147422	 0.0641920384	 0.002558
N	-2.4334430858	-0.1942922799	 0.0605071515	-0.18742
H	 0.7025701019	 1.8855423627	 0.0203158778	 0.263491
H	-1.0129268335	 1.7035555637	 0.0282011885	 0.273511
H	 1.2135077896	-1.5546506879	-0.1333372868	 0.208661
H	-0.8147750448	-3.0150097463	 0.077109455	 0.183036
55.9108	205.1323	211.4182	356.2353	409.477	490.2553	503.1298	601.7925	605.26	659.5056	684.3227	757.7262	803.4923	870.6019	981.429	1027.3685	1118.9962	1135.8451	1163.5117	1231.0967	1321.4721	1416.4797	1480.3187	1599.5857	1627.0824	1710.5795	3284.3269	3515.3193	3600.093	3727.6456
NC(=N)C1=CON=N1	NC(=N)c1conn1	
InChI=1S/C3H4N4O/c4-3(5)2-1-8-7-6-2/h1H,(H3,4,5)	InChI=1S/C3H4N4O/c4-3(5)2-1-8-7-6-2/h1H,(H3,4,5)
