20
gdb 40699	3.20228	1.23257	1.03785	1.4897	79.19	-0.2136	0.0886	0.3023	1211.2382	0.170406	-403.065699	-403.057101	-403.056157	-403.099676	32.443	
C	 0.0358087836	 0.7343297967	-0.7401761845	-0.271838
C	 1.2153390042	 0.8186073202	 0.2032628111	-0.276452
C	 0.5300711469	-0.4985361259	-0.0165318746	 0.056106
N	-0.1126908752	-1.1661874613	 1.0899928393	-0.103738
C	-1.2636905226	-0.5870968117	 1.7695468923	-0.264779
C	-1.4203485341	-1.8071974009	 0.92914861	-0.028361
C	-2.2067858978	-1.7551101117	-0.3473870146	 0.057506
C	-3.6683945854	-1.5915245034	-0.3248694676	-0.176242
O	-2.8151234626	-0.5236220563	-0.7378011123	-0.221738
H	-0.897345519	 1.1897842781	-0.4344748896	 0.130643
H	 0.2186500495	 0.7919018596	-1.808048504	 0.108377
H	 2.211299817	 0.9639476318	-0.2001695131	 0.110578
H	 1.0466943698	 1.3014664005	 1.1603304002	 0.115494
H	 1.0692560466	-1.2191454721	-0.6255921985	 0.091687
H	-1.2525397584	-0.6594321883	 2.8541279682	 0.112494
H	-1.7130848434	 0.3191596177	 1.371865845	 0.13153
H	-1.478896724	-2.7815849794	 1.4151267937	 0.094473
H	-1.7783051451	-2.3123112418	-1.1821319278	 0.100153
H	-4.2774310017	-2.0347577807	-1.111025016	 0.116777
H	-4.1704018782	-1.4425548311	 0.6299571229	 0.117332
54.1315	82.6834	121.12	199.8884	253.463	283.9898	366.7673	476.3181	546.7246	608.4974	681.7994	749.9796	777.3065	816.612	855.4454	885.9657	904.6569	941.3754	950.1743	993.1302	1023.2992	1045.7804	1058.0412	1071.0982	1098.3967	1112.8989	1130.703	1144.0288	1155.4564	1161.3123	1168.8022	1187.5645	1192.1816	1227.9907	1288.9119	1342.135	1396.5003	1399.2072	1428.8705	1464.9456	1499.4949	1513.6023	1524.1673	3085.4176	3093.8311	3101.6226	3105.1744	3131.8827	3137.8534	3144.595	3174.9516	3190.6923	3213.9488	3234.0382
C1CC1N1CC1C1CO1	C1CC1N1C[C@H]1[C@H]1CO1	
InChI=1S/C7H11NO/c1-2-5(1)8-3-6(8)7-4-9-7/h5-7H,1-4H2	InChI=1S/C7H11NO/c1-2-5(1)8-3-6(8)7-4-9-7/h5-7H,1-4H2/t6-,7+,8?/m0/s1
