19
gdb 110741	2.54995	1.27474	1.07599	1.5605	77.58	-0.2402	0.019	0.2592	1223.495	0.159023	-419.176679	-419.167606	-419.166662	-419.210613	34.051	
C	 0.2181998239	 1.4334818462	 0.2025722801	-0.374589
C	-0.2087384045	-0.0071029325	-0.1024904299	-0.21435
C	 0.5563078881	-0.5936697302	-1.2707971448	-0.055094
C	 1.8887091366	-1.2518446464	-1.1681581195	 0.037533
O	 1.9842366325	-1.9862927581	 0.0841670662	-0.277067
C	 0.9578595971	-2.8384670468	-0.3274154742	 0.378552
N	 0.5311553405	-3.9023533827	 0.179715681	-0.562033
C	 0.687610659	-2.0884895362	-1.6007199861	 0.140005
N	 0.3054553903	-2.5986890359	-2.8646799992	-0.597231
H	 1.2791511584	 1.4791609045	 0.4687990757	 0.124447
H	 0.0632633901	 2.0877924515	-0.6624795071	 0.113883
H	-0.3564795982	 1.8441719259	 1.0380404744	 0.11594
H	-0.0581519855	-0.6310066323	 0.7832311902	 0.121287
H	-1.281431198	-0.0373285943	-0.3291751291	 0.101569
H	 0.4594016446	-0.0399874229	-2.2047913449	 0.106318
H	 2.8153820599	-1.0023627313	-1.6659276919	 0.123006
H	 1.0256593879	-4.1281343029	 1.0445399818	 0.230115
H	 0.6810906575	-3.5316809836	-3.0043714196	 0.244048
H	-0.70484207	-2.6689022419	-2.9364926331	 0.243662
64.3882	109.0463	163.2126	213.6356	247.6136	270.1136	286.9062	308.0573	419.1448	489.0098	590.1588	664.7334	721.0062	726.6835	771.9897	803.8276	853.0376	867.6608	916.5648	919.3038	948.172	960.69	1001.6778	1018.2887	1074.4605	1108.1222	1142.6401	1186.5936	1241.1903	1264.4916	1287.2588	1302.6156	1346.5914	1386.2233	1411.3024	1481.2683	1485.2276	1499.2928	1506.1909	1666.5772	1822.0874	3033.2192	3035.9179	3082.1548	3104.8295	3109.6801	3124.8409	3219.66	3476.5438	3498.0048	3571.0693
CCC1C2OC(=N)C12N	CC[C@H]1[C@H]2O[C]([NH])[C@@]12N	
InChI=1S/C6H10N2O/c1-2-3-4-6(3,8)5(7)9-4/h3-4,7H,2,8H2,1H3	InChI=1S/C6H10N2O/c1-2-3-4-6(3,8)5(7)9-4/h3-4,7H,2,8H2,1H3/t3-,4+,6+/m0/s1
