23
gdb 85877	2.01544	1.51422	1.0738	0.673	91.78	-0.2504	0.0515	0.3019	1265.0741	0.203111	-351.127246	-351.116963	-351.116019	-351.161673	39.71	
C	-0.5485117877	 0.8016514947	-1.5018103725	-0.414739
C	 0.3752661512	-0.2227480391	-0.8654128802	 0.042667
C	 1.8910158891	-0.1544919689	-1.1784071873	-0.26798
C	 2.2209858097	-0.4681662117	 0.311909702	 0.330793
C	 2.4909909756	-1.9568866058	 0.5447522353	-0.435571
C	 3.3092139789	 0.3847962714	 0.9512175788	-0.44825
C	 0.7133447115	-0.1182695402	 0.6724822803	-0.265273
C	 0.483858781	 1.1789312238	 1.2757114732	 0.35605
C	 0.2879031317	 2.257092712	 1.7742399811	-0.476283
H	-0.2133886594	 1.8211078216	-1.2895344486	 0.125623
H	-0.573544905	 0.6696004991	-2.5893148189	 0.110027
H	-1.5736171365	 0.7046757686	-1.1282720063	 0.115523
H	-0.0069463683	-1.2294639207	-1.0607627287	 0.075842
H	 2.2813154471	-0.8491934052	-1.9278550752	 0.090751
H	 2.1970592625	 0.8604211694	-1.4524103897	 0.097238
H	 3.457274385	-2.2455692629	 0.116001493	 0.112707
H	 2.5174758976	-2.1871730097	 1.6158867019	 0.114321
H	 1.7225941921	-2.5883617082	 0.0862060703	 0.11146
H	 3.1042055251	 1.4511905557	 0.8289618991	 0.123233
H	 3.3958980014	 0.1829959076	 2.0249302083	 0.112639
H	 4.2797965353	 0.1667416814	 0.4904092342	 0.107049
H	 0.2273756243	-0.8847015237	 1.2858990814	 0.09025
H	 0.1127760977	 3.202937271	 2.2236717984	 0.191924
66.4226	140.0307	166.5924	213.1801	225.3619	248.0799	272.7261	311.2654	329.6701	366.6004	390.4882	405.8553	506.4443	550.9524	613.3134	620.9537	624.6509	752.5305	813.4861	859.0875	896.2484	923.4253	953.4896	966.6209	981.0483	1009.1526	1043.4487	1111.4996	1130.4517	1136.8114	1191.3088	1209.4639	1236.4861	1270.0409	1284.9025	1293.8931	1341.4265	1373.8336	1403.643	1412.664	1421.3711	1481.9936	1484.32	1489.0953	1491.9595	1497.4903	1501.2184	1507.9551	2222.7714	3021.6801	3027.3097	3030.0126	3037.3839	3044.2455	3054.4324	3086.1937	3091.8381	3093.0509	3093.8657	3096.7278	3111.9589	3117.4701	3503.3707
CC1CC(C)(C)C1C#C	C[C@H]1CC(C)(C)[C@H]1C#C	
InChI=1S/C9H14/c1-5-8-7(2)6-9(8,3)4/h1,7-8H,6H2,2-4H3	InChI=1S/C9H14/c1-5-8-7(2)6-9(8,3)4/h1,7-8H,6H2,2-4H3/t7-,8-/m0/s1
