14
gdb 27852	2.13039	1.84863	0.98998	4.5477	71.71	-0.2126	-0.0195	0.1931	1102.4738	0.101678	-470.05814	-470.050228	-470.049284	-470.090481	30.251	
N	-0.0265665534	 1.3426851064	-0.0799458095	-0.556826
C	 0.0057432406	-0.0132814737	-0.0338292144	 0.428287
N	-1.1474222337	-0.6384866534	-0.0151856809	-0.368732
C	-1.1960578216	-1.9867384103	-0.0082610097	 0.425499
N	-2.2388249276	-2.7003180224	-0.0004576118	-0.536343
O	 0.0891145632	-2.7076003703	-0.002757293	-0.289757
C	 1.2254853978	-2.0256957669	-0.0175177574	 0.508288
O	 2.311144767	-2.8005404969	-0.0137704856	-0.39836
C	 1.2793546296	-0.6747622556	-0.0349472317	-0.387822
H	 0.8003190451	 1.8784460322	 0.114444783	 0.26378
H	-0.9228116369	 1.7814484314	 0.0549062315	 0.270626
H	-2.0027471146	-3.6896451288	 0.0078422265	 0.218461
H	 2.0163000468	-3.7214387392	-0.0047182997	 0.313092
H	 2.2249896577	-0.1551690525	-0.0569644172	 0.109806
105.4774	177.4962	202.2698	259.2849	327.7088	353.8053	437.5682	506.9112	521.7938	531.9855	569.7113	646.4774	688.144	705.6334	735.246	776.3575	784.968	797.1413	957.6926	1012.4824	1045.0841	1174.3445	1191.1469	1260.9413	1274.938	1433.434	1505.9643	1582.0117	1639.1333	1727.1407	1787.8543	3244.502	3531.0396	3610.1806	3743.3411	3782.448
NC1=NC(=N)OC(O)=C1	NC1=C[C@@H](OC(=N1)[NH])O	
InChI=1S/C4H5N3O2/c5-2-1-3(8)9-4(6)7-2/h1,8H,(H3,5,6,7)	InChI=1S/C4H6N3O2/c5-2-1-3(8)9-4(6)7-2/h1,3,6,8H,(H2,5,7)/t3-/m1/s1
