14
gdb 33917	4.13396	1.33035	1.20048	4.93	66.97	-0.2705	-0.0175	0.253	1003.0912	0.101124	-436.613721	-436.606907	-436.605963	-436.645066	26.096	
N	-0.0090225601	-1.1415881871	-0.137745154	-0.331973
C	 0.0363527374	 0.0110343291	-0.0509763887	 0.188783
C	 0.0626448048	 1.4263081164	 0.133074952	 0.336784
O	 0.2678977982	 2.2729188923	-0.998666533	-0.251377
C	 1.1771680079	 2.4140285184	 0.0846595484	-0.067794
C	 0.5134496557	 3.2972555021	 1.1683566192	-0.129033
C	-0.5871967915	 4.2673353794	 0.6776660201	-0.084041
O	-1.5999484985	 3.2257673039	 0.7804455924	-0.272361
C	-0.6464394449	 2.280011768	 1.2476830588	 0.01442
H	 2.2292388943	 2.257016725	-0.1222711126	 0.13762
H	 1.1247994929	 3.5610136882	 2.0277690176	 0.105988
H	-0.8038613863	 5.0886603511	 1.3680858743	 0.115302
H	-0.487044304	 4.6419045738	-0.3438395954	 0.129305
H	-0.941249056	 1.7258918695	 2.1408655008	 0.108376
127.1638	150.0881	243.603	307.6061	406.5854	478.558	553.79	593.0903	644.8894	736.5857	811.6526	836.0644	861.8433	894.8618	927.6647	973.0648	993.4524	1022.5572	1034.3589	1074.7663	1121.6967	1160.964	1177.9955	1204.8605	1249.3215	1275.6351	1290.9094	1357.5888	1407.717	1506.6332	2352.9689	3047.8652	3102.4813	3110.6828	3152.0227	3196.5052
N#CC12OC1C1COC21	N#C[C@]12O[C@H]1[C@H]1CO[C@@H]21	
InChI=1S/C6H5NO2/c7-2-6-4-3(1-8-4)5(6)9-6/h3-5H,1H2	InChI=1S/C6H5NO2/c7-2-6-4-3(1-8-4)5(6)9-6/h3-5H,1H2/t3-,4+,5-,6+/m0/s1
