16
gdb 129951	2.98983	1.34579	0.99455	3.6644	72.05	-0.2202	-0.0111	0.2091	1158.7377	0.12611	-434.02209	-434.014075	-434.013131	-434.055481	29.551	
N	-0.0302798242	 1.4635595553	-0.045428934	-0.610808
C	-0.0128483123	 0.063943615	-0.0139634759	 0.030113
C	-1.039415456	-0.829483207	 0.0030012085	 0.011798
O	-0.5650484868	-2.0879487748	 0.133296352	-0.172046
N	 0.8114966191	-2.0395401773	 0.190696018	-0.231146
C	 1.1445588422	-0.7701764476	 0.1184729808	 0.391616
C	 2.5631578404	-0.3582646774	 0.1787397161	-0.120004
C	 3.4214375442	-0.8359581892	 1.3048702602	-0.22183
N	 3.620652717	-1.3539273954	-0.0506595736	-0.314769
H	 0.7150583415	 1.8538512815	-0.6084636817	 0.252686
H	-0.9142949757	 1.8394984793	-0.3625783422	 0.250188
H	-2.1113857303	-0.7305863492	-0.0582548469	 0.141048
H	 2.775424376	 0.6202536923	-0.2458780936	 0.086054
H	 4.2180787195	-0.1987213236	 1.678925621	 0.121572
H	 2.9439866678	-1.4730826472	 2.0434273931	 0.130567
H	 3.1812702976	-2.2691807947	-0.1339344118	 0.254962
41.1037	153.2076	165.2712	186.3229	289.8563	306.0113	450.1846	502.8316	596.9875	622.2558	711.9207	740.3762	758.7316	790.5624	835.5557	889.5594	931.7106	971.9216	977.9339	1018.7722	1107.9799	1117.4823	1131.4414	1145.2902	1188.2205	1216.022	1274.5707	1305.137	1320.5793	1399.6146	1472.9329	1505.0737	1531.4394	1648.6548	1681.3009	3111.5898	3128.7242	3205.3996	3269.1549	3492.4402	3536.4479	3625.1351
NC1=CON=C1C1CN1	Nc1conc1[C@H]1CN1	
InChI=1S/C5H7N3O/c6-3-2-9-8-5(3)4-1-7-4/h2,4,7H,1,6H2	InChI=1S/C5H7N3O/c6-3-2-9-8-5(3)4-1-7-4/h2,4,7H,1,6H2/t4-/m1/s1
