18
gdb 34088	3.33503	1.53643	1.31545	1.9248	81.05	-0.2368	0.0349	0.2717	1008.4621	0.149031	-364.749963	-364.742647	-364.741703	-364.781365	29.879	
C	 0.0348118956	-1.1712836903	 0.0188988222	-0.342674
C	 0.0115112323	 0.0304010829	-0.0050997549	 0.142338
C	-0.0010936908	 1.4747425559	-0.0025842159	 0.188351
C	-0.9693473072	 2.1717315436	 1.0074293987	-0.294589
C	-1.4523244575	 2.9967925606	-0.1727436999	-0.039419
C	-0.3277768237	 3.5111950095	-0.9923754746	-0.020264
C	 1.0677335332	 3.6062703613	-0.3882451232	-0.260902
C	 1.3831332754	 2.1403726717	-0.0085620164	-0.251638
N	-0.7664924741	 2.1074201196	-1.189450781	-0.172996
H	 0.049226032	-2.2329728249	 0.0300612953	 0.186298
H	-1.7356065901	 1.481560069	 1.3621784477	 0.125532
H	-0.5193485481	 2.6864168071	 1.862880372	 0.099074
H	-2.4735389418	 3.3334105716	-0.3226369169	 0.093383
H	-0.5876917402	 4.1635342205	-1.8202166654	 0.09563
H	 1.7844254652	 3.9983905322	-1.1142018102	 0.111662
H	 1.0884011391	 4.2734924226	 0.4794430191	 0.109602
H	 1.8835710516	 2.0362993662	 0.9578864831	 0.110313
H	 2.0091931392	 1.6633818009	-0.7677499998	 0.120299
140.7495	151.1112	216.5838	345.3092	403.993	491.3515	508.3458	534.8754	620.6511	635.336	652.1003	708.3498	766.06	777.2365	818.0373	831.122	916.074	925.2011	954.1013	993.2454	1011.6358	1029.2944	1053.3748	1081.4716	1134.1631	1157.5299	1177.9412	1201.1098	1223.3412	1253.6346	1266.5176	1312.816	1333.2588	1352.5721	1403.7837	1482.7137	1491.4625	1510.0279	2239.4187	3044.6246	3051.9531	3061.5556	3092.1623	3113.0998	3126.1843	3152.9147	3166.0539	3502.7843
C#CC12CC3C(CC1)N23	C#C[C@@]12C[C@H]3[C@@H](CC1)N23	
InChI=1S/C8H9N/c1-2-8-4-3-6-7(5-8)9(6)8/h1,6-7H,3-5H2	InChI=1S/C8H9N/c1-2-8-4-3-6-7(5-8)9(6)8/h1,6-7H,3-5H2/t6-,7+,8+,9?/m1/s1
