19
gdb 15802	6.24151	0.91275	0.85785	2.3895	73.38	-0.2549	-0.0212	0.2338	1390.8619	0.164647	-365.064192	-365.055201	-365.054256	-365.098789	31.622	
C	-0.3187131282	 1.5632687722	-0.044223717	-0.387191
C	 0.0858253597	 0.0913175137	 0.0638629063	-0.163348
C	 0.6280588111	-0.469342227	-1.2502587697	-0.291781
C	 1.0026359189	-1.9380274967	-1.1939817866	 0.377956
O	 0.786484193	-2.6372917332	-0.2238227278	-0.336258
C	 1.6622924683	-2.5122568753	-2.4116666997	-0.100797
C	 2.8936806944	-3.33345731	-2.1695990375	-0.217269
N	 1.6472214515	-3.9748906322	-2.5606954887	-0.303669
H	 0.5316179936	 2.1929783859	-0.3298367781	 0.113266
H	-1.1023096314	 1.7075841408	-0.7966739249	 0.114206
H	-0.7022982169	 1.9372817181	 0.9097526582	 0.117344
H	 0.8435192193	-0.035329993	 0.84504124	 0.110633
H	-0.7687110381	-0.5151524505	 0.3812344069	 0.117211
H	-0.1088362559	-0.3530149988	-2.0597851283	 0.127125
H	 1.5089070738	 0.0931600749	-1.5932834903	 0.121915
H	 1.5806405822	-1.9436320522	-3.3334505682	 0.096317
H	 3.678208881	-3.3331547672	-2.920867527	 0.12556
H	 3.2246197622	-3.4235812228	-1.1386859485	 0.131144
H	 1.1995213916	-4.3433869766	-1.7198895791	 0.247637
51.9355	61.9176	115.9595	135.4937	249.0502	264.2192	285.0944	323.2819	390.7282	577.5703	683.8773	746.5758	817.5857	852.6852	877.4446	887.809	917.7487	974.2494	1010.7831	1050.7105	1060.7958	1111.1037	1118.9528	1131.8788	1151.5513	1183.2267	1247.0425	1287.9797	1314.0998	1320.5131	1325.7448	1384.4122	1409.3884	1415.7199	1448.623	1486.4324	1494.1932	1501.0797	1507.6798	1781.3316	3002.3231	3028.1538	3028.7932	3048.5748	3075.3751	3100.3229	3105.0947	3111.332	3153.2568	3205.1566	3456.7641
CCCC(=O)C1CN1	CCCC(=O)[C@H]1CN1	
InChI=1S/C6H11NO/c1-2-3-6(8)5-4-7-5/h5,7H,2-4H2,1H3	InChI=1S/C6H11NO/c1-2-3-6(8)5-4-7-5/h5,7H,2-4H2,1H3/t5-/m1/s1
