14
gdb 11325	4.61184	1.54185	1.17241	3.1689	61.51	-0.2655	0.0016	0.2671	970.5335	0.10752	-415.918324	-415.910493	-415.909549	-415.951944	26.535	
C	 0.0443640641	 1.428688297	 0.0222227724	-0.340637
N	 0.1493832457	-0.0215844833	 0.0382615395	-0.306684
C	 0.6060008012	-0.636210375	-0.9507665733	 0.430481
C	 0.7661621714	-2.1426876621	-1.0574842069	-0.265533
N	 1.3247497456	-2.2585030183	-2.3840232116	-0.367979
C	 1.491264978	-1.0608222722	-3.0105414077	 0.484984
O	 1.9226267995	-0.8202290528	-4.0985700451	-0.374271
O	 1.0517753679	-0.0696321985	-2.1332814621	-0.238004
H	 0.6191580092	 1.8319279338	 0.8628129209	 0.13444
H	 0.3926905544	 1.8960023852	-0.9046280548	 0.136518
H	-1.0014370989	 1.7071886386	 0.1907004406	 0.134447
H	 1.4343883895	-2.5189538347	-0.274626679	 0.148886
H	-0.2022133272	-2.6449532151	-0.9527638397	 0.148863
H	 1.5794863995	-3.1149119726	-2.842679453	 0.27449
34.8169	77.5609	117.6074	202.8252	235.1942	393.377	451.4193	543.2665	600.4981	635.702	739.2064	765.2654	866.4052	953.1312	1028.2324	1049.1115	1080.3707	1119.4675	1134.9291	1173.5766	1192.9617	1294.0495	1353.6146	1435.1417	1444.0002	1494.4229	1496.1185	1516.4201	1825.7573	1928.7385	3026.1929	3034.3213	3067.7991	3089.0248	3101.9	3693.5498
CN=C1CNC(=O)O1	CN=C1CNC(=O)O1	
InChI=1S/C4H6N2O2/c1-5-3-2-6-4(7)8-3/h2H2,1H3,(H,6,7)	InChI=1S/C4H6N2O2/c1-5-3-2-6-4(7)8-3/h2H2,1H3,(H,6,7)
