18
gdb 63154	2.39171	1.65073	1.33558	2.9419	71.9	-0.2309	-0.011	0.2198	1033.388	0.14679	-439.070194	-439.061565	-439.060621	-439.103283	32.329	
C	-0.2968551976	 1.6048991599	 0.0908258046	-0.445871
C	-0.0821144065	 0.1039415886	-0.0133898948	 0.245123
O	-1.2991352451	-0.6111468031	 0.1033747492	-0.47167
C	 0.7302896694	-0.4978826093	-1.1959818026	 0.005787
C	 1.9242113956	 0.2559069935	-1.8469805692	-0.266673
C	 2.8709132337	-0.5354402224	-0.891219129	-0.184733
N	 1.6771284257	-1.1478786417	-0.2212361472	-0.13815
C	 1.0970406702	-0.4482972536	 0.8608877525	 0.322029
O	 1.4759205445	-0.2699414742	 1.9840813627	-0.329013
H	 0.6276170896	 2.1691674574	-0.0577399643	 0.124316
H	-1.0357328068	 1.9286574233	-0.6481583543	 0.130668
H	-0.6687581402	 1.8532115614	 1.090866509	 0.13087
H	-1.642129277	-0.4667482241	 0.992738117	 0.289836
H	 0.1515969751	-1.1645199369	-1.8366667586	 0.097836
H	 2.0619715554	 0.0548142801	-2.9106698149	 0.118121
H	 1.9294602492	 1.3374985354	-1.6956778523	 0.116452
H	 3.4879242966	-1.2896453033	-1.3846602673	 0.123815
H	 3.4942625781	 0.0461319491	-0.2073205305	 0.131255
84.3964	157.0374	191.4604	210.3604	241.8095	254.6766	310.466	354.0301	401.368	524.5386	633.1014	722.4304	730.084	760.4769	813.6374	851.3702	896.3868	946.9124	969.2292	988.3192	1001.7247	1053.5512	1095.5908	1136.08	1182.5138	1184.3817	1197.9334	1222.5089	1251.0442	1259.2688	1305.9247	1325.8596	1367.4775	1404.1848	1474.5373	1484.7841	1494.8042	1511.042	1874.6968	3037.7917	3064.7264	3076.7369	3104.6439	3106.6792	3113.493	3122.6704	3135.3208	3801.3793
CC1(O)C2CCN2C1=O	C[C@@]1(O)[C@H]2CCN2C1=O	
InChI=1S/C6H9NO2/c1-6(9)4-2-3-7(4)5(6)8/h4,9H,2-3H2,1H3	InChI=1S/C6H9NO2/c1-6(9)4-2-3-7(4)5(6)8/h4,9H,2-3H2,1H3/t4-,6-/m1/s1
