12
gdb 131973	2.93941	1.61736	1.0433	3.4115	63.11	-0.2535	-0.0755	0.1781	1015.1939	0.077315	-505.863067	-505.855543	-505.854599	-505.895502	26.901	
N	-0.0123767065	 1.3638836926	 0.0091094996	-0.590631
C	-0.0541749817	 0.0342161348	 0.0013848894	 0.518715
C	-1.1336620525	-0.8409526036	 0.0024411256	 0.13979
C	-0.542216637	-2.1283050548	-0.0080149949	-0.004721
N	 0.757918537	-2.0750155185	-0.0153885348	-0.140648
O	 1.0724923572	-0.6674311579	-0.0089329938	-0.222456
N	-2.4910274882	-0.4772911019	 0.0117240418	 0.335992
O	-3.334894046	-1.3672380912	 0.0113527492	-0.371401
O	-2.7506775903	 0.7388444692	 0.0197397032	-0.428816
H	 0.8639817889	 1.8554091769	 0.0046028791	 0.288028
H	-0.9020105319	 1.8414328605	 0.0152037746	 0.303828
H	-1.0435619592	-3.0848579462	-0.0106215589	 0.172319
96.9586	123.0888	215.3279	222.7327	279.2318	351.0976	451.665	558.4198	582.9938	613.3424	723.0141	726.3907	792.5152	823.6394	846.1161	931.6097	933.8112	1038.4995	1176.2603	1235.5444	1356.6747	1381.5102	1479.5101	1532.2884	1592.7041	1604.0206	1695.7283	3263.1821	3574.9393	3734.5393
NC1=C(C=NO1)N(=O)=O	Nc1c(cno1)N(=O)=O	
InChI=1S/C3H3N3O3/c4-3-2(6(7)8)1-5-9-3/h1H,4H2	InChI=1S/C3H3N3O3/c4-3-2(6(7)8)1-5-9-3/h1H,4H2
