20
gdb 119209	2.00228	1.21837	0.86216	2.9278	81.85	-0.229	0.016	0.245	1421.4682	0.17023	-399.306609	-399.296416	-399.295471	-399.342183	36.187	
C	-0.234427377	 1.4563390747	-0.0303607045	-0.310784
N	-0.1586204111	 0.0037241594	-0.1062496886	-0.287664
C	 0.8357388697	-0.4628916097	-1.0595565422	-0.202628
C	 0.8392403865	-1.9815823384	-1.1450614903	 0.152091
N	-0.104249243	-2.6068555132	-2.0943094487	-0.343347
C	 1.3310964485	-2.7507019078	-2.3426478941	-0.033982
C	 1.9071689093	-2.0995109167	-3.5764850098	-0.40524
C	 1.0285994078	-2.6397418886	 0.1317135173	 0.242867
N	 1.1677277891	-3.1440347122	 1.164355107	-0.350742
H	 0.7297984953	 1.9506709391	 0.1872585901	 0.095254
H	-0.6018848231	 1.8543442362	-0.9832284325	 0.124246
H	-0.9480348261	 1.7431003487	 0.7468427629	 0.124293
H	 0.0503601857	-0.3732125679	 0.8132102189	 0.232187
H	 0.5710479656	-0.0714233094	-2.0456831293	 0.119864
H	 1.8622971458	-0.1151832609	-0.8325801669	 0.088831
H	-0.5067731091	-3.4551080253	-1.7043489633	 0.25041
H	 1.776727403	-3.7139345579	-2.0982853879	 0.106349
H	 1.4053800494	-1.158901224	-3.8090245211	 0.136176
H	 2.9778718204	-1.9094107458	-3.4514944594	 0.129363
H	 1.7813640331	-2.7654336304	-4.4364109378	 0.132456
74.8928	85.3986	118.7201	147.4753	168.2018	176.477	245.0273	268.9461	330.4503	389.7153	402.8157	486.6249	571.004	592.8147	722.2527	780.3116	799.8057	871.0255	968.5434	975.337	987.8084	1038.5702	1064.237	1101.177	1119.3594	1143.0807	1162.8107	1190.1167	1236.5635	1272.7557	1306.9411	1326.6373	1395.5575	1408.54	1452.566	1459.9495	1484.8091	1488.4029	1492.5053	1498.9032	1508.4025	1521.7187	2340.1563	2914.7771	2942.2782	3044.0061	3055.6505	3086.4875	3105.7775	3108.8702	3117.0631	3143.4543	3512.7647	3513.7629
CNCC1(NC1C)C#N	CNC[C@]1(N[C@H]1C)C#N	
InChI=1S/C6H11N3/c1-5-6(3-7,9-5)4-8-2/h5,8-9H,4H2,1-2H3	InChI=1S/C6H11N3/c1-5-6(3-7,9-5)4-8-2/h5,8-9H,4H2,1-2H3/t5-,6+/m0/s1
