22
gdb 59604	3.46655	0.9714	0.7893	3.9171	82.54	-0.2354	0.0384	0.2738	1475.538	0.194929	-404.410151	-404.400643	-404.399699	-404.444513	35.868	
C	 0.0141909884	 1.5351138072	-0.0507311036	-0.396373
C	 0.0292452026	 0.0022518215	 0.0460303112	 0.021693
C	 0.7622257201	-0.4461964081	 1.3184121905	-0.393916
C	-1.3894802847	-0.5840714524	-0.0186191946	 0.04467
C	-2.1810385552	-0.1915085255	-1.2945111611	-0.193123
N	-3.1062657841	-1.2970191245	-1.4549349524	-0.306189
C	-2.7398000353	-2.4530508329	-0.8168445783	 0.402721
O	-3.3071789732	-3.5201038375	-0.8955750119	-0.380213
C	-1.4763488194	-2.1226224507	-0.0163390624	-0.364023
H	 1.0311539378	 1.9374993608	-0.0059587607	 0.114563
H	-0.4374536442	 1.8856883347	-0.9839524951	 0.115972
H	-0.5512693073	 1.9733563179	 0.7805304371	 0.114509
H	 0.5840336128	-0.3876646012	-0.820791824	 0.071729
H	 0.8371445298	-1.5355017379	 1.384210794	 0.120281
H	 1.7782935902	-0.0397943239	 1.346813748	 0.112813
H	 0.2396039515	-0.0923117766	 2.2153693982	 0.113983
H	-1.9559142662	-0.2100446462	 0.8449243045	 0.081227
H	-2.7116401431	 0.7584491393	-1.1791641401	 0.113762
H	-1.5077227518	-0.0941437705	-2.1609040046	 0.101965
H	-3.83382085	-1.3161725948	-2.1520648057	 0.248539
H	-0.6239954029	-2.5758919773	-0.5394057661	 0.124619
H	-1.5257732959	-2.5737406014	 0.975711747	 0.130789
75.528	95.2116	161.8904	179.8364	224.5863	242.128	313.0038	342.8061	383.0524	450.8269	489.5237	510.963	565.2738	632.9792	696.7173	826.0014	879.8164	889.3678	921.7682	929.299	965.1952	984.4232	1040.0424	1056.926	1088.8464	1135.784	1156.9337	1191.8417	1201.857	1242.0405	1260.7978	1270.6086	1316.9748	1339.8097	1343.2669	1357.7525	1392.3715	1401.6966	1423.0201	1449.7753	1467.7676	1486.9758	1492.9457	1506.1299	1510.6894	1534.6992	1832.7332	2976.578	2988.6455	3015.9377	3025.8155	3030.6757	3036.608	3069.2642	3090.4468	3096.1762	3103.4311	3108.0321	3120.5759	3639.2979
CC(C)C1CNC(=O)C1	CC(C)[C@H]1CNC(=O)C1	
InChI=1S/C7H13NO/c1-5(2)6-3-7(9)8-4-6/h5-6H,3-4H2,1-2H3,(H,8,9)	InChI=1S/C7H13NO/c1-5(2)6-3-7(9)8-4-6/h5-6H,3-4H2,1-2H3,(H,8,9)/t6-/m1/s1
