23
gdb 99524	1.95152	1.40555	1.01998	0.8655	87.99	-0.2626	0.0376	0.3002	1321.3716	0.200874	-388.255794	-388.244365	-388.243421	-388.29161	42.154	
C	 0.2844225134	 0.6096905821	-1.2494196613	-0.239328
O	-0.1030475309	 0.2040788491	 0.0460995351	-0.240906
C	-1.342013241	-0.4873146571	 0.096969507	-0.058995
C	-1.2544220701	-1.7869856764	-0.587004877	 0.34048
C	-1.1671353012	-2.8384185557	-1.1644480961	-0.462243
C	-1.7648539039	-0.60719738	 1.5903176036	 0.236506
C	-1.8909954869	 0.814301723	 2.1677767715	-0.413619
C	-3.1282584852	-1.3143672611	 1.6697735412	-0.420313
C	-0.7081246198	-1.4023500786	 2.3755793052	-0.40836
H	 1.2259009995	 1.1534146686	-1.143077005	 0.127351
H	 0.4370764673	-0.2483231429	-1.9176063598	 0.120624
H	-0.4644651821	 1.2775790043	-1.7031558094	 0.103223
H	-2.1115132799	 0.1136662404	-0.4200272163	 0.08424
H	-1.0940143752	-3.7697476436	-1.6700517038	 0.197002
H	-2.6514649736	 1.3933107546	 1.6307352313	 0.102202
H	-2.1899760838	 0.7692579966	 3.220065519	 0.106287
H	-0.9437985941	 1.3527207663	 2.0992638891	 0.129671
H	-3.0760875221	-2.333568407	 1.2776339147	 0.125848
H	-3.4623242459	-1.3674531942	 2.7109634501	 0.111429
H	-3.8939320936	-0.7718552897	 1.1033007636	 0.107125
H	 0.2692296628	-0.917758675	 2.3140222395	 0.128186
H	-0.9933073412	-1.4718596272	 3.4304328563	 0.104101
H	-0.6090982326	-2.4186789566	 1.9827333215	 0.11949
69.0849	101.4134	145.7921	180.6031	185.3741	202.9704	245.7583	252.9822	264.4516	311.7702	327.9428	340.6303	394.1121	409.1732	465.6335	558.6144	596.5653	623.3714	665.9629	785.2521	884.0132	938.2171	942.6681	964.1127	977.7316	990.648	1051.0723	1065.5121	1137.802	1185.0113	1202.1679	1230.2351	1255.7951	1273.224	1337.8294	1359.9056	1394.6526	1397.9241	1429.1721	1475.5128	1478.0768	1484.7905	1487.9392	1490.566	1499.9112	1503.722	1511.4737	1522.1157	2224.1913	2939.9035	2981.921	3027.2058	3031.6961	3040.6352	3045.0236	3089.6846	3096.0269	3105.7683	3116.1242	3119.5038	3124.7758	3131.4233	3500.3322
COC(C#C)C(C)(C)C	CO[C@@H](C#C)C(C)(C)C	
InChI=1S/C8H14O/c1-6-7(9-5)8(2,3)4/h1,7H,2-5H3	InChI=1S/C8H14O/c1-6-7(9-5)8(2,3)4/h1,7H,2-5H3/t7-/m0/s1
