19
gdb 29647	2.35599	1.61058	0.97409	4.0028	80.2	-0.179	0.0484	0.2274	1216.6392	0.158835	-419.285935	-419.276127	-419.275183	-419.320282	35.161	
C	 0.0378680587	 1.4412637294	 0.0132433528	-0.347944
N	-0.0045285845	-0.0013162772	 0.0562876645	-0.145943
C	-0.1222986433	-0.7649842112	-1.0999651431	 0.44397
O	-0.2031437717	-0.3720703418	-2.2514223622	-0.450752
N	-0.1252490638	-2.0654513529	-0.6285189545	-0.420027
C	-0.0136568699	-2.1093724699	 0.7658138717	 0.240371
C	 0.0053007205	-3.4021055456	 1.5035773042	-0.500983
C	 0.0614577719	-0.8255310105	 1.1915410198	 0.200185
C	 0.1904662687	-0.2598167173	 2.56314233	-0.501146
H	 0.9772519837	 1.8307987776	 0.4211517233	 0.126707
H	-0.0393360311	 1.725353797	-1.0378917774	 0.170849
H	-0.7961157845	 1.8871003554	 0.5666224324	 0.126705
H	-0.2002622091	-2.8531095848	-1.2472802678	 0.260491
H	 0.8468073525	-4.0351983169	 1.1940906081	 0.131412
H	 0.0977251829	-3.2329822234	 2.5783210444	 0.135887
H	-0.9131047159	-3.979499154	 1.3366866722	 0.131413
H	 1.1040927771	 0.3368322485	 2.6771497479	 0.132807
H	-0.6537878141	 0.3922233875	 2.8196570972	 0.132808
H	 0.225315072	-1.0608634899	 3.3043714566	 0.133189
107.8833	136.4684	148.1194	159.1631	175.7939	230.0541	269.0539	271.7117	280.117	330.2264	442.5368	553.595	608.3296	625.7689	625.999	743.4354	752.0259	875.1603	983.058	1006.7684	1058.6115	1067.693	1107.5937	1157.7451	1179.155	1212.179	1277.5329	1350.0449	1406.1409	1410.4403	1433.1864	1434.2362	1461.3799	1473.0183	1476.0578	1496.7228	1498.6375	1499.3232	1514.6479	1723.4642	1819.9538	3013.7676	3017.6782	3025.4986	3055.5326	3060.5792	3077.6966	3122.9917	3128.5795	3141.5034	3693.6172
CN1C(=O)NC(C)=C1C	Cn1c(=O)[nH]c(C)c1C	
InChI=1S/C6H10N2O/c1-4-5(2)8(3)6(9)7-4/h1-3H3,(H,7,9)	InChI=1S/C6H10N2O/c1-4-5(2)8(3)6(9)7-4/h1-3H3,(H,7,9)
