23
gdb 120560	5.4713	0.59961	0.58189	1.547	84.01	-0.2501	0.0763	0.3264	1975.1523	0.204331	-425.398739	-425.388243	-425.387299	-425.435283	37.424	
C	-0.0781062101	 1.3891910554	-0.0970504234	-0.222689
O	-0.0893810913	-0.0163314905	-0.1186643917	-0.232913
C	 0.7777934609	-0.5610208843	-1.0915270664	-0.072006
C	 0.6730055539	-2.0697462038	-1.0463051917	 0.024024
C	-0.645908815	-2.739264536	-1.5230590191	-0.253705
C	 0.2059312993	-3.8359260312	-2.2191330078	 0.056615
C	-0.2283543729	-4.3233624105	-3.5842990228	-0.096988
O	 0.7689375887	-5.2101209936	-4.0731296772	-0.422974
C	 1.4353482196	-2.8902873852	-2.1231578947	-0.25183
H	 0.9228939577	 1.7884180981	 0.1339787134	 0.101005
H	-0.4000170568	 1.8175068162	-1.0602636066	 0.100271
H	-0.7738757785	 1.7124595734	 0.6814610688	 0.12463
H	 0.505561695	-0.1911489441	-2.0969064038	 0.07459
H	 1.8186066085	-0.2408555272	-0.9031571549	 0.081888
H	 0.9314504961	-2.4124524635	-0.0391607434	 0.078353
H	-1.3638965371	-3.0522719682	-0.762536719	 0.101382
H	-1.1670008933	-2.1091590562	-2.2533650452	 0.092233
H	 0.3403904961	-4.7015136935	-1.562037647	 0.07858
H	-1.2076106148	-4.8252275898	-3.5060507287	 0.082965
H	-0.3575606693	-3.4593697585	-4.2581778564	 0.075884
H	 0.5067370812	-5.5055806796	-4.9497898123	 0.285561
H	 1.5664682668	-2.3178241734	-3.0488872329	 0.092899
H	 2.3970861254	-3.3279460739	-1.8489116572	 0.102225
45.0073	69.1536	99.7704	116.6452	168.5285	208.232	234.3471	263.5467	326.6403	378.6278	398.4993	445.0256	455.6214	652.5798	788.9711	822.6635	899.9528	932.22	942.2586	969.9733	983.8511	1040.2406	1063.9481	1089.1923	1093.6627	1133.9899	1155.2941	1172.6525	1182.0396	1209.0289	1225.6635	1231.9681	1243.5165	1257.6028	1271.6255	1275.1191	1286.1181	1305.8368	1360.6122	1373.1421	1424.3777	1461.3637	1475.1728	1480.7381	1485.1226	1497.3714	1504.1815	1519.8249	1526.7947	2931.8999	2950.0479	2958.5122	2965.4538	2976.8317	3005.8989	3037.6147	3040.8584	3056.2152	3059.5047	3108.0756	3109.4862	3113.0249	3829.1663
COCC1CC(CO)C1	COC[C@H]1C[C@@H](CO)C1	
InChI=1S/C7H14O2/c1-9-5-7-2-6(3-7)4-8/h6-8H,2-5H2,1H3	InChI=1S/C7H14O2/c1-9-5-7-2-6(3-7)4-8/h6-8H,2-5H2,1H3/t6-,7+
