20
gdb 14341	4.67083	1.52862	1.29936	0.3556	82.22	-0.2209	0.0246	0.2455	1013.7484	0.178563	-311.860093	-311.85271	-311.851765	-311.891441	29.438	
C	-0.1486159669	 1.5718491531	 0.0409927902	-0.395218
C	 0.0236157651	 0.0500331162	 0.0335097587	 0.011911
C	 0.7684450798	-0.4876112246	-1.2379217589	-0.253354
C	 1.4953000797	-1.7467790703	-0.7311753547	-0.031658
C	 3.0479531162	-1.9931827797	-0.7115376225	-0.239425
C	 2.9573098003	-2.2047176175	 0.8481039609	-0.31967
C	 1.6253908672	-1.4976894556	 0.7470543085	 0.309401
C	 0.896591405	-0.4752302693	 1.1788015168	-0.248176
H	 0.8245113473	 2.0757664088	 0.02051533	 0.111586
H	-0.7190275514	 1.9071686928	-0.8320777827	 0.110774
H	-0.6823746385	 1.9098867272	 0.935824789	 0.110291
H	-0.9800063609	-0.4007234027	 0.0827957522	 0.074279
H	 0.0905421362	-0.6653752175	-2.0786762195	 0.089047
H	 1.5001588636	 0.2655494277	-1.5573375187	 0.093813
H	 0.9651801322	-2.6736012025	-0.984181961	 0.071164
H	 3.4339411411	-2.8284791468	-1.3010214218	 0.09678
H	 3.6042346156	-1.0849789367	-0.9579086748	 0.105785
H	 2.8675762202	-3.2679387975	 1.0963820533	 0.109853
H	 3.7288683025	-1.7600300786	 1.4812672338	 0.108109
H	 0.9362696859	 0.0049179035	 2.1507137013	 0.084709
100.336	186.0891	236.7013	296.501	303.214	387.4057	459.7258	561.768	618.7708	684.4632	787.7845	813.2528	821.2204	853.7525	893.9352	905.6446	916.0582	940.6061	998.7288	1025.0564	1053.9007	1073.4015	1103.3885	1142.0319	1149.3753	1177.7442	1193.9862	1232.5531	1234.2614	1254.541	1259.0982	1302.5742	1315.5912	1336.4056	1360.4366	1406.7803	1471.3743	1481.8821	1487.4379	1496.5972	1498.6223	1735.7375	2973.2245	3020.0661	3022.8191	3026.617	3043.7103	3058.0132	3082.1427	3093.2769	3094.0597	3099.8868	3120.8534	3186.6524
CC1CC2CCC2=C1	C[C@H]1C[C@H]2CC[C]2[CH]1	
InChI=1S/C8H12/c1-6-4-7-2-3-8(7)5-6/h4,6,8H,2-3,5H2,1H3	InChI=1S/C8H12/c1-6-4-7-2-3-8(7)5-6/h4,6,8H,2-3,5H2,1H3/t6-,8-/m1/s1
