16
gdb 29634	2.35378	1.95987	1.07806	5.7656	77.42	-0.2039	-0.0403	0.1636	1055.9996	0.126236	-434.124773	-434.116834	-434.115889	-434.156952	30.451	
C	-0.0641810051	 1.4576486371	 0.0178990535	-0.375985
N	-0.0021914788	-0.0006090485	 0.0275593519	-0.173737
C	 0.0229268041	-0.66007441	-1.2370292627	 0.374861
O	 0.0328887601	-0.015943988	-2.2745422538	-0.405303
C	 0.0259268628	-2.1055089652	-1.1255563157	-0.112748
N	 0.0254285107	-2.762590092	 0.0001357961	-0.225212
C	 0.0249467953	-2.0780109492	 1.1648461035	-0.127227
C	 0.0034765799	-0.7000253489	 1.2024650709	 0.403613
N	-0.0837822566	 0.0207374549	 2.3794477272	-0.578797
H	 0.8729960906	 1.8971148474	 0.3799383503	 0.133554
H	-0.2113603305	 1.7553628184	-1.0189653239	 0.189296
H	-0.8926751573	 1.8052081195	 0.6403048743	 0.147908
H	 0.0314965959	-2.6563313505	-2.0612085186	 0.123463
H	 0.0384155484	-2.6471178233	 2.0877364477	 0.097283
H	 0.0778161396	-0.5356880555	 3.2062026598	 0.266768
H	 0.4137819412	 0.8987384137	 2.4093014694	 0.262263
115.6773	183.56	203.1637	241.3039	331.7315	357.0041	391.8859	479.9463	505.0596	529.0185	598.8162	607.9891	691.1182	694.6838	765.1691	804.1487	821.7703	901.9291	971.2849	1091.9752	1135.6397	1151.0543	1203.4001	1231.9819	1241.3137	1334.1012	1391.7543	1424.9235	1493.9657	1508.7562	1511.2908	1549.7186	1621.5626	1660.1362	1760.7077	3030.1202	3102.9758	3171.7983	3177.1829	3183.6987	3568.9525	3668.7752
CN1C(=O)C=NC=C1N	Cn1c(=O)cncc1N	
InChI=1S/C5H7N3O/c1-8-4(6)2-7-3-5(8)9/h2-3H,6H2,1H3	InChI=1S/C5H7N3O/c1-8-4(6)2-7-3-5(8)9/h2-3H,6H2,1H3
