18
gdb 36100	3.34758	1.24597	1.07464	1.3143	80.25	-0.2078	0.0457	0.2535	1158.7419	0.146664	-364.688239	-364.680189	-364.679244	-364.720978	31.934	
C	-0.1909090827	-1.2460249296	 0.1525107216	-0.450891
C	-0.0957180694	-0.0535833916	 0.0397083726	 0.308933
C	 0.0325822252	 1.3959858701	-0.0910259088	-0.482113
C	 1.4610154898	 1.8723727225	-0.0425939178	 0.355118
N	 1.8625744427	 3.1998476104	-0.5677490176	-0.390379
C	 2.512919475	 1.9538570407	-1.0713312884	-0.113017
C	 3.5934007527	 1.5025151865	-0.0472638181	-0.052418
C	 3.6528661899	 2.3995495152	 1.1607297793	-0.295177
C	 2.5133438383	 1.4253813943	 1.0238049035	-0.099725
H	-0.2795709526	-2.299602464	 0.2500324285	 0.198558
H	-0.4217424691	 1.7201094212	-1.03737152	 0.126542
H	-0.5444162867	 1.8846605942	 0.7074523885	 0.140748
H	 1.1702869493	 3.4710958623	-1.2665143026	 0.223665
H	 2.4881196555	 1.701546276	-2.1238104494	 0.09457
H	 4.3547429531	 0.7705084005	-0.2810253003	 0.09009
H	 4.3991728648	 2.1101060636	 1.894431159	 0.105853
H	 3.4843107564	 3.4643331091	 1.0663530811	 0.141184
H	 2.3225144578	 0.6226349887	 1.7230528991	 0.09846
65.0898	101.7653	226.5111	283.7406	341.4743	393.8033	420.8752	481.7017	588.1658	620.5915	627.7733	650.5321	721.2538	753.7342	822.1169	834.3679	868.5888	915.5505	920.4253	940.8334	958.1235	986.8051	1011.6349	1025.0826	1055.3547	1057.9721	1101.267	1135.6709	1178.2482	1186.1283	1240.2343	1292.4953	1311.1717	1319.5221	1352.1961	1443.0736	1460.552	1465.5631	2240.8123	3000.27	3033.4937	3138.2363	3191.4994	3200.7237	3208.8556	3233.7403	3463.9155	3506.3254
C#CCC12NC1C1CC21	C#CC[C@]12N[C@H]1[C@H]1C[C@@H]21	
InChI=1S/C8H9N/c1-2-3-8-6-4-5(6)7(8)9-8/h1,5-7,9H,3-4H2	InChI=1S/C8H9N/c1-2-3-8-6-4-5(6)7(8)9-8/h1,5-7,9H,3-4H2/t5-,6+,7-,8+/m0/s1
