20
gdb 113305	2.52099	1.04309	0.84068	1.5708	82.73	-0.2416	0.0312	0.2728	1431.4091	0.168919	-403.087391	-403.077168	-403.076224	-403.122862	37.472	
C	-0.0504185489	 1.4624375964	-0.5386052456	-0.384494
C	 0.0060155923	 0.135183047	 0.2247891356	-0.249347
C	-1.3460558985	-0.5667687503	 0.2704381683	 0.11853
N	-1.7372739596	-1.2919919198	-0.9691435878	-0.377673
C	-1.5101048892	-2.0613933581	 0.2642996418	-0.076041
C	-0.381675146	-3.0664239821	 0.2023823002	-0.076905
O	-0.736904792	-4.1549398699	-0.6343124137	-0.418149
C	-2.3874912674	 0.1673073054	 0.9520358828	 0.291796
C	-3.2505009222	 0.7897767286	 1.5139826891	-0.45094
H	 0.9353315698	 1.9357847554	-0.5651012292	 0.112704
H	-0.3770348271	 1.2964673375	-1.569732489	 0.128024
H	-0.7498606776	 2.1598220171	-0.0684018695	 0.128624
H	 0.7300458453	-0.5275138911	-0.2547484558	 0.109333
H	 0.3489157839	 0.3022217433	 1.2526116987	 0.106073
H	-2.7329198196	-1.1738381883	-1.1370167509	 0.241508
H	-2.3952996277	-2.4306465103	 0.7781540796	 0.09974
H	 0.5473282058	-2.5918266112	-0.1384469099	 0.093897
H	-0.1982536557	-3.4875121411	 1.1962237449	 0.11354
H	-0.9417651707	-3.7729516889	-1.4960239819	 0.290884
H	-4.0135443848	 1.3341659803	 2.0132454925	 0.198898
59.1337	81.8976	134.4446	146.9643	171.3111	215.2847	261.7854	309.8586	371.62	421.0092	434.2226	486.1352	556.7811	599.6814	646.6502	655.6791	670.6513	780.7106	828.866	877.5373	966.7555	978.6535	1002.4468	1042.4688	1065.289	1089.3127	1108.0543	1126.6459	1189.9076	1260.454	1267.146	1307.2302	1328.7635	1366.4699	1377.0374	1407.6775	1418.9341	1462.1367	1473.8426	1497.9102	1499.7596	1509.1717	2228.6861	3022.1998	3042.0414	3044.4359	3080.4999	3099.1198	3113.8833	3122.1604	3133.9029	3501.0736	3510.0879	3792.3536
CCC1(NC1CO)C#C	CC[C@]1(N[C@H]1CO)C#C	
InChI=1S/C7H11NO/c1-3-7(4-2)6(5-9)8-7/h1,6,8-9H,4-5H2,2H3	InChI=1S/C7H11NO/c1-3-7(4-2)6(5-9)8-7/h1,6,8-9H,4-5H2,2H3/t6-,7+/m0/s1
