15
gdb 43865	3.90232	1.04798	0.92446	3.5498	72.83	-0.259	0.0038	0.2627	1231.2234	0.1106	-420.601336	-420.5933	-420.592355	-420.634184	30.359	
O	 0.2185350429	 0.1752114015	-0.7618528459	-0.305644
C	 0.0223913076	 1.1825455637	-0.1680994577	 0.440245
C	-1.1616840816	 2.0567899859	 0.2574344023	-0.497176
C	-0.0705748474	 2.9151438584	 0.8696302648	 0.454107
C	 0.1408323524	 4.3767577681	 0.9385663481	-0.356716
C	 0.0183302584	 3.5473802308	 2.2321359004	-0.289471
C	-1.1530936022	 3.6372190639	 3.0504613234	 0.331485
C	-2.1499538877	 3.6979568216	 3.7210686732	-0.451025
O	 0.962830677	 2.0156897728	 0.4097569695	-0.263344
H	-1.7178143777	 2.492139407	-0.5745601745	 0.151
H	-1.8492180696	 1.5855737628	 0.9618257741	 0.161337
H	 1.1292059354	 4.7546274054	 0.7030160248	 0.143738
H	-0.6851161262	 5.0294973794	 0.6798159857	 0.1406
H	 0.955361196	 3.3746960981	 2.7540798883	 0.136856
H	-3.022793987	 3.7589318706	 4.3228511031	 0.204006
79.8357	117.3345	159.5946	280.8288	292.0104	389.2175	483.5155	505.9478	519.0119	525.6361	589.3028	619.7383	660.0432	785.6155	805.9897	869.0096	887.7465	940.1799	978.8937	1013.1402	1045.2954	1064.6663	1083.0591	1108.9126	1149.8518	1202.3928	1237.9504	1338.3851	1408.7786	1454.7784	1488.3527	1954.0804	2237.8585	3089.7853	3141.5708	3147.0899	3153.1675	3237.0506	3502.3587
O=C1CC2(CC2C#C)O1	O=C1C[C@]2(C[C@H]2C#C)O1	
InChI=1S/C7H6O2/c1-2-5-3-7(5)4-6(8)9-7/h1,5H,3-4H2	InChI=1S/C7H6O2/c1-2-5-3-7(5)4-6(8)9-7/h1,5H,3-4H2/t5-,7+/m1/s1
