18
gdb 46203	3.05929	1.52856	1.2198	2.5654	77.13	-0.2551	0.0255	0.2806	1049.4817	0.149108	-401.913256	-401.905754	-401.90481	-401.945277	29.257	
N	-0.1006112052	 1.2194428445	-0.3330217085	-0.568694
C	-0.0902195336	-0.0020325281	-0.0409979235	 0.396739
O	 0.9379806516	-0.8017579749	 0.4328009117	-0.2673
C	 0.0710798309	-1.9796240713	 0.471781842	-0.170858
C	-1.0787508143	-1.121691532	-0.0495086429	 0.221907
C	-2.5168565942	-1.1866373021	 0.3807090737	-0.134145
C	-3.2691891199	 0.0612705183	-0.1023985147	-0.229293
C	-2.8617798007	-0.2870191782	-1.5740047289	-0.229303
C	-2.1195906979	-1.526411486	-1.054647966	-0.134133
H	 0.8157040323	 1.6443819082	-0.1800717926	 0.227049
H	 0.4447517573	-2.7613435774	-0.1957801411	 0.121067
H	-0.0223950528	-2.3616572246	 1.4924038131	 0.121067
H	-2.8103440102	-1.8440749013	 1.1918007989	 0.090214
H	-4.3466147651	-0.0137002251	 0.0577795514	 0.103901
H	-2.9092694128	 1.0149296399	 0.2887777199	 0.12883
H	-3.7237616585	-0.5460926751	-2.1920538926	 0.103895
H	-2.2489290266	 0.4504412024	-2.0961149196	 0.128843
H	-2.0530600003	-2.4917770972	-1.5444129204	 0.090215
119.1096	145.1842	157.686	281.8368	313.4818	366.2784	456.1941	620.8663	656.1783	768.1861	785.9735	791.7226	832.7765	855.859	859.1328	922.1679	963.0994	972.3728	975.2066	984.8783	998.8208	1019.3621	1085.2329	1088.1522	1113.7182	1147.186	1192.5655	1211.3078	1225.8122	1250.8193	1258.333	1268.6146	1289.1754	1354.419	1448.0336	1474.6631	1497.5046	1517.5786	1813.6261	3049.2155	3069.8349	3075.658	3104.4574	3119.0578	3134.5151	3164.7588	3176.1592	3474.1209
N=C1OCC11C2CCC12	[NH][C]1OC[C@]21[C@H]1CC[C@@H]21	
InChI=1S/C7H9NO/c8-6-7(3-9-6)4-1-2-5(4)7/h4-5,8H,1-3H2	InChI=1S/C7H9NO/c8-6-7(3-9-6)4-1-2-5(4)7/h4-5,8H,1-3H2/t4-,5+,7-
