16
gdb 85796	2.15451	1.41755	1.29147	3.7416	70.56	-0.2757	-0.0581	0.2176	1099.4353	0.121094	-437.900058	-437.890755	-437.88981	-437.934424	32.817	
C	-0.5491540987	 1.3627997838	-0.1035934757	-0.409861
C	 0.0307274228	-0.0395827304	-0.0359108601	 0.027133
O	 1.2628709114	-0.2020921857	-0.7950312492	-0.322042
C	 2.0773896823	-0.5376022588	 0.3518781232	 0.13185
C	 2.6964739073	-1.9286384122	 0.2733604109	-0.434015
C	 3.0760537891	 0.50059611	 0.6238668953	 0.281596
N	 3.8499993911	 1.327339179	 0.8558963178	-0.326836
C	 0.7917663557	-0.4170734414	 1.2381080804	 0.30719
O	 0.5407482217	-0.5860756752	 2.3858768803	-0.258132
H	 0.1838888523	 2.1080158796	 0.215878174	 0.146545
H	-0.8519446308	 1.5889613747	-1.129631722	 0.144873
H	-1.4291591033	 1.4307947554	 0.5430456724	 0.142339
H	-0.7129264111	-0.7905604963	-0.3334358474	 0.12034
H	 3.4130979602	-1.9720895998	-0.5506201152	 0.155522
H	 3.2147616937	-2.1615156083	 1.2072836169	 0.156438
H	 1.9143513562	-2.6721747646	 0.1022870782	 0.13706
53.8393	120.0416	187.5225	190.6361	195.4179	207.2611	226.2297	311.5624	366.6654	451.452	545.333	583.4143	598.8466	702.1313	741.9826	852.5252	875.6402	934.8815	980.5068	1042.719	1063.3784	1114.4801	1132.567	1170.2978	1204.9606	1276.3452	1345.315	1400.9535	1402.1482	1475.9054	1481.1728	1487.0787	1493.0553	1936.219	2349.7204	3027.1288	3046.5165	3051.119	3124.7825	3130.8282	3135.1163	3136.2196
CC1OC(C)(C#N)C1=O	C[C@H]1O[C@@](C)(C#N)C1=O	
InChI=1S/C6H7NO2/c1-4-5(8)6(2,3-7)9-4/h4H,1-2H3	InChI=1S/C6H7NO2/c1-4-5(8)6(2,3-7)9-4/h4H,1-2H3/t4-,6+/m1/s1
