18
gdb 122714	8.03736	0.47528	0.45382	5.0216	73.74	-0.2645	-0.0245	0.24	2273.3703	0.144797	-476.2305	-476.220114	-476.21917	-476.267492	34.568	
O	-0.3125753191	 1.2862699353	 0.2714959667	-0.42044
C	-0.0965369527	-0.111434285	 0.1707764133	-0.082817
C	-1.3995552441	-0.7470961893	-0.2995751636	-0.188648
C	-1.2725446446	-2.2673303998	-0.4367858787	-0.131995
N	-2.4320479195	-3.0244417929	-0.884978505	-0.243384
C	-3.5188991625	-2.4540338892	-1.1406962922	 0.141913
O	-4.6375604322	-3.1284848245	-1.5661848342	-0.199844
C	-4.7271582274	-4.4824088734	-1.3508048848	 0.180439
O	-5.6184909243	-5.1161023783	-1.821202881	-0.253334
H	 0.5054863677	 1.6985977769	 0.5638590762	 0.288783
H	 0.7096273676	-0.3416001563	-0.5449974391	 0.090375
H	 0.1985725096	-0.5419823389	 1.1418555179	 0.089551
H	-2.1865254889	-0.4868895935	 0.4183289325	 0.114897
H	-1.6757076155	-0.2933329635	-1.2587768451	 0.116793
H	-0.4571694784	-2.5096712909	-1.1313526252	 0.122652
H	-0.9686201895	-2.7011125607	 0.5253896907	 0.120978
H	-3.7469408889	-1.3883128529	-1.0965394079	 0.125943
H	-3.9209307574	-4.8596915228	-0.7091329005	 0.128137
39.9148	81.0468	96.2954	111.7523	122.2381	187.4064	196.669	259.3719	264.9212	332.4189	414.3537	499.6225	552.2474	760.0229	773.7008	875.7266	981.3829	990.7927	1030.1254	1043.1292	1046.837	1083.3523	1103.1172	1153.874	1192.5314	1228.0753	1239.7369	1314.8542	1316.7512	1321.0983	1389.6394	1395.3629	1414.8515	1464.9966	1480.502	1502.3465	1529.5052	1756.5986	1872.6993	2959.0736	2984.957	3015.4208	3033.262	3037.5007	3073.7987	3080.6489	3123.5436	3830.3197
OCCCN=COC=O	OCCCN=COC=O	
InChI=1S/C5H9NO3/c7-3-1-2-6-4-9-5-8/h4-5,7H,1-3H2	InChI=1S/C5H9NO3/c7-3-1-2-6-4-9-5-8/h4-5,7H,1-3H2
