17
gdb 105284	2.3675	1.15042	0.9222	4.4949	75.88	-0.2528	-0.0537	0.1991	1296.3498	0.133875	-417.99605	-417.986532	-417.985588	-418.031012	33.658	
C	-0.3817501286	 1.4240489153	 0.1664164273	-0.336098
N	 0.3378808306	 0.1756438571	-0.0721989961	-0.344932
C	 0.8326994345	-0.464265924	 1.1136569786	 0.159499
C	-0.068151361	-1.1118431879	 2.1468994853	-0.326523
C	 0.8057030627	-1.9908490875	 1.2700225074	-0.155451
C	 0.1579401427	-2.8506781084	 0.2434520678	 0.156537
O	 0.5857276723	-3.9209211948	-0.1019348179	-0.243268
C	 2.0295639628	 0.172125718	 1.6353488644	 0.29789
N	 2.9689583109	 0.6904351001	 2.0661704282	-0.338068
H	 0.2967491793	 2.1507736943	 0.6238377541	 0.152604
H	-0.7104517042	 1.8309792291	-0.7927007332	 0.133466
H	-1.2592569927	 1.3169918911	 0.8246908293	 0.106208
H	-0.1956987347	-0.4575480461	-0.6496229868	 0.235326
H	 0.1824973502	-1.0416730311	 3.1984065281	 0.153231
H	-1.12962768	-1.0947073941	 1.9195526348	 0.13635
H	 1.6882008176	-2.4372824635	 1.7128626285	 0.141687
H	-0.7947676524	-2.4513475677	-0.1771488996	 0.071542
63.2477	85.5026	109.7535	168.8312	206.6967	217.206	291.843	318.866	395.1637	432.4705	480.3749	573.1288	606.9839	635.9183	698.2469	846.5616	886.5945	914.3181	967.4236	1029.0144	1058.4356	1071.0369	1096.732	1149.0832	1169.6668	1178.8123	1228.8425	1306.9115	1350.7775	1432.6064	1460.6481	1466.2147	1483.0283	1496.1637	1520.0261	1826.4303	2354.8499	2848.2248	2973.3976	3078.881	3125.2162	3135.1356	3194.1749	3233.8489	3596.8919
CNC1(CC1C=O)C#N	CN[C@]1(C[C@H]1C=O)C#N	
InChI=1S/C6H8N2O/c1-8-6(4-7)2-5(6)3-9/h3,5,8H,2H2,1H3	InChI=1S/C6H8N2O/c1-8-6(4-7)2-5(6)3-9/h3,5,8H,2H2,1H3/t5-,6+/m0/s1
