20
gdb 5966	3.33137	1.15452	1.05028	1.0975	77.36	-0.2623	0.0384	0.3007	1239.0477	0.173208	-348.977709	-348.967586	-348.966641	-349.012196	37.155	
C	 0.0947957109	 1.6165105795	-0.0182621485	-0.387528
C	-0.0096281131	 0.0884088756	-0.0073995376	-0.178735
C	 0.6077511116	-0.5276937552	 1.2525572964	-0.18188
C	 0.7081006012	-2.0758004675	 1.2359558933	 0.145772
C	-0.6619331661	-2.7554749606	 1.1061737873	-0.398629
O	 1.4600962628	-2.5175045666	 0.0972739306	-0.44522
C	 1.3745123731	-2.5167259723	 2.4728373719	 0.318819
C	 1.9504262409	-2.8515763136	 3.4739968286	-0.476919
H	 1.1401185211	 1.9432367836	 0.0164660884	 0.112864
H	-0.3556304572	 2.037810812	-0.9223656311	 0.112764
H	-0.4164236424	 2.0578354197	 0.8447449842	 0.113536
H	-1.0641630446	-0.2000162282	-0.0871961181	 0.098494
H	 0.4932907674	-0.32933446	-0.8859602797	 0.11163
H	 1.6242074369	-0.1344680188	 1.3892391249	 0.09114
H	 0.0449639374	-0.2239776523	 2.1437981393	 0.103442
H	-1.1114916146	-2.5036537724	 0.1431505658	 0.128713
H	-0.542720942	-3.8395174552	 1.1587027726	 0.132038
H	-1.3294712151	-2.4338958584	 1.9093701213	 0.121048
H	 2.3791812448	-2.266298523	 0.2409639803	 0.282013
H	 2.4517635469	-3.1601408063	 4.35812008	 0.196638
84.3853	100.7724	121.1717	177.4411	232.2748	239.3498	254.8281	299.1847	314.6811	359.3	402.4229	451.9738	565.8904	578.0207	628.3584	662.2812	746.9631	752.3832	861.4786	897.0277	932.3572	955.9306	1019.6041	1047.9567	1097.8117	1137.7683	1184.212	1194.8367	1263.6836	1306.9173	1326.8414	1370.8712	1391.52	1408.7652	1415.4143	1473.3177	1484.3267	1494.9822	1497.4265	1500.5753	1512.2353	2227.7803	3014.9222	3028.4906	3038.3068	3054.3459	3056.83	3076.501	3100.5046	3102.2098	3136.2965	3138.9255	3500.1676	3806.8402
CCCC(C)(O)C#C	CCC[C@@](C)(O)C#C	
InChI=1S/C7H12O/c1-4-6-7(3,8)5-2/h2,8H,4,6H2,1,3H3	InChI=1S/C7H12O/c1-4-6-7(3,8)5-2/h2,8H,4,6H2,1,3H3/t7-/m0/s1
