20
gdb 8494	2.62871	2.06818	1.94004	1.234	75.36	-0.2523	0.075	0.3272	873.1292	0.176142	-348.962829	-348.954608	-348.953664	-348.994515	32.631	
C	-0.141019606	 1.5553928184	-0.0436266354	-0.489358
C	 0.021029717	 0.039824618	-0.0071194644	 0.445548
O	-1.2617261716	-0.5531170835	-0.1472826913	-0.490711
C	 1.2117812818	-0.6562121275	-0.7541530431	-0.122009
C	 2.1424192824	-0.1418960255	 0.3811731917	-0.277253
C	 0.8628782317	-0.6606611494	 1.1109372868	 0.301338
C	 0.5687507899	-0.6655054394	 2.5873891673	-0.521566
C	 0.9513519083	-1.8963864583	 0.1499010739	-0.263671
H	 0.7914607235	 2.1054304908	 0.0858623551	 0.123158
H	-0.5644777729	 1.8620103547	-1.009274567	 0.105524
H	-0.8407205482	 1.8713625304	 0.7365899347	 0.126769
H	-1.6999385844	-0.1411881019	-0.8985371189	 0.274845
H	 1.4166233438	-0.649663759	-1.8264530983	 0.060183
H	 3.0432005758	-0.7374220602	 0.5491112362	 0.090499
H	 2.3732779083	 0.9230671237	 0.4301303306	 0.085965
H	 0.5996858453	 0.3481460932	 3.0029972156	 0.114222
H	-0.4269632082	-1.0784208219	 2.7800312723	 0.129897
H	 1.2989053187	-1.2726464707	 3.1333195907	 0.116489
H	 0.0335652011	-2.4537202158	-0.0227850547	 0.110652
H	 1.8102893838	-2.5538143459	 0.3094720181	 0.079479
174.7929	188.4415	191.7163	222.5363	258.6334	320.5101	361.6414	428.8977	460.3778	558.7955	575.3749	644.7248	679.288	752.3899	796.5921	891.9505	902.3623	937.675	964.2077	1000.0382	1011.5798	1021.0583	1059.8489	1090.2289	1110.3612	1155.5565	1172.3029	1185.9466	1194.4366	1219.3594	1229.7494	1242.6475	1307.6088	1381.2026	1404.1024	1411.8457	1484.197	1489.23	1492.0226	1494.8374	1506.5425	1544.6627	3023.4303	3026.3069	3063.1897	3066.8843	3087.6135	3090.8896	3094.7983	3100.0795	3122.4722	3144.1106	3162.6713	3814.6843
CC1(O)C2CC1(C)C2	C[C@@]1(O)[C@H]2C[C@]1(C)C2	
InChI=1S/C7H12O/c1-6-3-5(4-6)7(6,2)8/h5,8H,3-4H2,1-2H3	InChI=1S/C7H12O/c1-6-3-5(4-6)7(6,2)8/h5,8H,3-4H2,1-2H3/t5-,6+,7-/m1/s1
