17
gdb 114197	2.87554	1.20222	0.95987	2.1701	70.91	-0.2517	-0.0364	0.2152	1234.0238	0.133975	-458.937466	-458.928758	-458.927813	-458.971434	31.877	
O	-0.1238819677	 1.5031028538	-0.1066250742	-0.414987
C	-0.0532969158	 0.1803514291	 0.3834119469	-0.069556
C	-1.3208398676	-0.5866330221	 0.0332193783	-0.015248
O	-1.5043731822	-0.6471412205	-1.4158141944	-0.345857
C	-1.4326892344	-2.0772269117	-1.4287836502	 0.333098
C	-2.2593787095	-2.9527865199	-2.3251205204	-0.32572
C	-0.7629004211	-2.8819808433	-2.5052271231	-0.322561
C	-1.2577330538	-2.1248562709	 0.0575701596	 0.262893
O	-1.1171879953	-2.9744044293	 0.8862952484	-0.298302
H	-0.2987216532	 1.4325222833	-1.0528542374	 0.294943
H	 0.8222754843	-0.3547385225	-0.0157897606	 0.095374
H	 0.0533676519	 0.2388821778	 1.4710831647	 0.127152
H	-2.1977994669	-0.1454916857	 0.5205230355	 0.119503
H	-2.6968553438	-3.8432945658	-1.8866077769	 0.140717
H	-2.8784879107	-2.4367869665	-3.0507045478	 0.140149
H	-0.3845207366	-2.3199743499	-3.3520840255	 0.137986
H	-0.1529670175	-3.7229289459	-2.1927699128	 0.140418
63.4065	102.9904	143.4694	175.2851	208.8683	302.667	370.6117	411.0634	441.0998	530.1522	612.4839	698.7952	744.6858	767.8058	844.0534	860.6031	902.3273	929.1162	987.0732	1028.6775	1035.9473	1061.1178	1068.1812	1082.0541	1091.8505	1193.9452	1208.7136	1225.8771	1239.6511	1315.139	1362.9634	1397.2863	1422.4051	1443.9388	1479.3832	1494.6588	1910.5959	2986.7606	3054.2646	3088.97	3134.5236	3135.9695	3221.6957	3235.7963	3791.1852
OCC1OC2(CC2)C1=O	OC[C@H]1OC2(CC2)C1=O	
InChI=1S/C6H8O3/c7-3-4-5(8)6(9-4)1-2-6/h4,7H,1-3H2	InChI=1S/C6H8O3/c7-3-4-5(8)6(9-4)1-2-6/h4,7H,1-3H2/t4-/m1/s1
