18
gdb 106082	3.28347	1.47609	1.32391	1.9419	78.63	-0.2127	-0.0385	0.1742	1018.6089	0.148016	-401.819157	-401.811515	-401.810571	-401.851312	30.123	
O	 0.3167976937	 1.2506270688	-0.484721349	-0.411935
C	 0.2069243913	 0.0734856181	 0.301063444	-0.198
C	-1.2038089273	-0.4261218208	 0.3639277073	 0.287523
C	-1.7608829378	-1.780551216	 0.3040423365	-0.069753
C	-2.7042959038	-1.9554822045	 1.5089525529	-0.271993
C	-3.2470602423	-0.5364942485	 1.6029399413	-0.111662
C	-2.4820484112	 0.2801204315	 0.8441284567	-0.011287
C	-2.9276271658	 0.398032216	-0.6111002221	-0.173957
N	-1.9648461711	-0.7768241791	-0.8742188055	-0.208433
H	 0.0309398515	 1.01074185	-1.3735998587	 0.290903
H	 0.8564322468	-0.7281471187	-0.0833061425	 0.093602
H	 0.5621327435	 0.3386666284	 1.3023690757	 0.119356
H	-1.1839257615	-2.6207551738	-0.0736086646	 0.100947
H	-3.5443657503	-2.6379606084	 1.3369000251	 0.120113
H	-2.1306835193	-2.3654497925	 2.353008167	 0.119389
H	-4.321163758	-0.3863394691	 1.6761267713	 0.097632
H	-3.9835401846	 0.22194971	-0.8334024335	 0.110583
H	-2.5394565237	 1.2360311987	-1.1961184419	 0.11697
68.6438	152.4437	253.0881	270.351	338.5988	420.9643	436.5194	493.265	557.3036	645.9537	687.6977	745.552	783.7622	808.4141	880.8722	906.792	911.7263	939.9106	975.5407	994.5878	1034.2557	1045.8483	1063.466	1081.4235	1120.0755	1164.3907	1177.2413	1237.0542	1243.0998	1263.3016	1293.4194	1306.4799	1376.9466	1409.7439	1438.9724	1468.5245	1489.0517	1506.8046	1578.0783	2986.0604	3001.1113	3049.7398	3063.3648	3076.7904	3113.9674	3154.1205	3156.5771	3799.6688
OCC12C3CC=C1CN23	OC[C@@]12[C@H]3C[CH][C]1CN23	
InChI=1S/C7H9NO/c9-4-7-5-1-2-6(7)8(7)3-5/h1,6,9H,2-4H2	InChI=1S/C7H9NO/c9-4-7-5-1-2-6(7)8(7)3-5/h1,6,9H,2-4H2/t6-,7+,8?/m1/s1
