17
gdb 110405	5.66493	0.9417	0.92963	3.8213	73.19	-0.2406	0.0068	0.2474	1260.1646	0.135814	-421.758019	-421.750308	-421.749364	-421.790633	29.267	
O	-0.093231248	 1.4809448945	-0.3073242871	-0.420942
C	 0.0505384217	 0.1198155346	 0.0749865741	-0.112968
C	-1.3291855593	-0.5035890682	 0.0397499726	-0.003315
C	-1.9781161404	-0.836860377	-1.3203741483	-0.025589
C	-1.1227799161	-2.1556083737	-1.5079169108	-0.211994
C	-1.4757839496	-2.0402018292	 0.0298690832	-0.059019
C	-2.8865856255	-1.9569574999	-0.6754494157	-0.205215
C	-2.4087798052	-2.9432296963	-1.7333289473	 0.449182
O	-2.8211348225	-3.8489754055	-2.3917710706	-0.332976
H	 0.7699074	 1.9020011319	-0.2588872525	 0.289537
H	 0.7320325715	-0.4162070524	-0.6041296333	 0.085891
H	 0.4661877434	 0.0313302941	 1.0923531888	 0.087925
H	-1.9897404838	 0.0209772799	 0.7394748267	 0.081165
H	-2.2842025365	-0.1699875178	-2.1250158839	 0.098122
H	-0.1347639955	-2.2434972361	-1.9528212857	 0.09566
H	-1.2033054331	-2.7725851309	 0.790349739	 0.09025
H	-3.8459322812	-1.807791768	-0.1842723291	 0.094287
72.9666	135.2744	179.0746	220.9225	266.723	401.0771	452.6743	561.8409	650.2493	696.7109	773.3382	802.2252	812.735	828.5161	857.788	939.534	960.5161	996.2806	1010.2266	1045.103	1067.417	1088.8356	1113.7419	1118.3659	1129.5683	1134.0482	1167.0273	1192.8882	1204.0575	1239.3591	1260.9058	1265.7878	1293.5583	1397.0981	1467.6888	1519.2433	1914.3079	2963.8909	2993.694	3049.6669	3109.4216	3127.7109	3146.902	3155.5951	3831.0222
OCC1C2C3C1C2C3=O	OC[C@H]1[C@H]2[C@H]3[C@@H]1[C@@H]2C3=O	
InChI=1S/C7H8O2/c8-1-2-3-5-4(2)6(3)7(5)9/h2-6,8H,1H2	InChI=1S/C7H8O2/c8-1-2-3-5-4(2)6(3)7(5)9/h2-6,8H,1H2/t2-,3-,4+,5-,6+
