17
gdb 61316	6.31922	0.5873	0.55182	0.4991	98.21	-0.2453	-0.0169	0.2283	1923.6896	0.132038	-347.472768	-347.462618	-347.461674	-347.508265	36.732	
C	-0.0853673051	 1.5842943718	-0.032605966	-0.387151
C	-0.0507452613	 0.0453530122	-0.0055939751	-0.156577
C	 0.7679646755	-0.4969163835	 1.2069151673	-0.39031
C	 2.1667639359	-0.1034670478	 1.1752999582	 0.359663
C	 3.3319114159	 0.2227624267	 1.1322941651	-0.219986
C	 4.6420848583	 0.5877474495	 1.0876597719	 0.289311
C	 5.8047009585	 0.9118850071	 1.0476306772	-0.55433
C	-1.3978275333	-0.5191040993	 0.0227148557	 0.321874
C	-2.5072391038	-0.9794286276	 0.0722726308	-0.458488
H	 0.9315190131	 1.9837650413	-0.0676715421	 0.135234
H	-0.6332954407	 1.9402595816	-0.908275675	 0.129481
H	-0.5830734594	 1.9738514022	 0.8607483489	 0.126361
H	 0.4520572751	-0.3043415903	-0.9163154895	 0.12133
H	 0.2999264801	-0.1418618325	 2.1338862567	 0.145752
H	 0.6935814828	-1.5904868459	 1.2229072402	 0.148614
H	 6.8269937138	 1.1960262525	 1.0135804703	 0.191214
H	-3.4875033556	-1.3868924381	 0.0997639652	 0.198007
46.9296	64.8249	154.1762	160.8005	201.4946	225.0373	264.5671	335.0714	358.59	440.1864	502.5652	528.5404	535.8734	542.3876	591.2057	598.7442	631.4934	649.704	745.2872	821.2836	886.9206	923.3281	1060.9665	1091.8132	1128.866	1178.0861	1236.3366	1289.5162	1333.0744	1358.7056	1407.9887	1464.1368	1494.1943	1498.6874	2181.6399	2235.7512	2362.0501	3022.2676	3031.3683	3046.0259	3066.3727	3120.593	3130.4554	3504.284	3506.0087
CC(CC#CC#C)C#C	C[C@@H](CC#CC#C)C#C	
InChI=1S/C9H8/c1-4-6-7-8-9(3)5-2/h1-2,9H,8H2,3H3	InChI=1S/C9H8/c1-4-6-7-8-9(3)5-2/h1-2,9H,8H2,3H3/t9-/m1/s1
