17
gdb 25566	6.47711	0.69888	0.65293	4.3753	76.34	-0.2242	-0.0205	0.2036	1639.9987	0.136582	-418.058187	-418.049596	-418.048652	-418.093444	30.173	
O	-0.325147489	 0.0846073997	 0.2059535752	-0.239087
C	-0.0847816275	 1.2590657345	 0.0967613334	 0.156432
C	 1.2951974519	 1.8593867444	-0.0139640708	-0.257866
C	 1.4226954603	 2.7945163573	-1.2303212664	-0.342738
C	 2.6728633423	 3.6184451058	-1.1724440413	 0.375265
N	 3.2069917354	 4.1335369622	-0.0864011677	-0.29891
C	 4.3113232162	 4.8385945916	-0.507640203	-0.084243
C	 4.4490638407	 4.749223192	-1.8655821286	-0.114739
N	 3.3937617762	 3.963539309	-2.2801378259	-0.288707
H	-0.9107854984	 2.0109432604	 0.0749874176	 0.068666
H	 1.4807482039	 2.4606457282	 0.885997336	 0.157327
H	 2.0366613517	 1.0571780627	-0.0413577562	 0.125929
H	 1.4024377716	 2.212424818	-2.1593225184	 0.111732
H	 0.5479596056	 3.4599297278	-1.2660886181	 0.128524
H	 4.9433088327	 5.3640640331	 0.1918224684	 0.109153
H	 5.1725206514	 5.1459535898	-2.5578454875	 0.129439
H	 3.1947541651	 3.6913243834	-3.2283007168	 0.263821
32.3888	63.4911	71.5	140.3314	266.0002	304.8247	372.9433	517.8764	539.4842	645.5411	689.7871	728.1895	741.1309	780.4993	854.0645	857.616	928.5285	987.4578	1017.8583	1071.1294	1091.1904	1105.5115	1139.0393	1181.7315	1200.5844	1235.6995	1272.2986	1317.3852	1370.0205	1400.976	1431.1956	1459.2681	1466.1762	1490.6555	1508.9576	1589.3468	1837.5912	2839.1638	3004.0127	3036.7784	3055.8622	3114.0552	3249.91	3282.5205	3661.9835
O=CCCC1=NC=CN1	O=CCCc1ncc[nH]1	
InChI=1S/C6H8N2O/c9-5-1-2-6-7-3-4-8-6/h3-5H,1-2H2,(H,7,8)	InChI=1S/C6H8N2O/c9-5-1-2-6-7-3-4-8-6/h3-5H,1-2H2,(H,7,8)
