25
gdb 113072	2.87828	0.90695	0.76848	1.3164	89.61	-0.2503	0.0699	0.3202	1634.6543	0.227833	-389.490669	-389.479914	-389.478969	-389.526653	39.891	
C	 0.1475924994	 1.5801731003	 0.1171340096	-0.378803
C	-0.0857534026	 0.0711009039	-0.0105115669	-0.213879
C	 0.6461663102	-0.5473173745	-1.1944101379	 0.029733
C	 2.2011476794	-0.5999071133	-1.1914522114	-0.250528
C	 2.116079327	-2.0150154803	-1.8340122093	 0.040488
C	 3.1001124172	-3.0983862001	-1.4117523558	-0.19042
C	 4.5382384008	-2.7865137554	-1.8385679828	-0.38217
C	 0.6402651642	-2.1018978703	-1.3574069192	 0.056325
O	 0.5829638004	-2.8048105053	-0.125939221	-0.428813
H	 1.2126471725	 1.8055520484	 0.2359140323	 0.120973
H	-0.2051771955	 2.1125953537	-0.7731960565	 0.112299
H	-0.378609236	 1.9933266987	 0.9833492221	 0.110149
H	 0.2399756825	-0.4316367549	 0.908062499	 0.100426
H	-1.1645281182	-0.1208286077	-0.1060818868	 0.083072
H	 0.2926237433	-0.0937123525	-2.12882187	 0.063472
H	 2.7395154335	 0.1787211307	-1.7367597302	 0.09124
H	 2.5950718109	-0.6512749327	-0.1707892641	 0.100872
H	 2.1195710908	-1.9178378173	-2.9266875453	 0.065184
H	 3.0481875998	-3.2229232955	-0.3254254857	 0.110152
H	 2.7877289789	-4.0582962419	-1.8432497659	 0.091052
H	 4.6203268801	-2.6959604057	-2.927900923	 0.108358
H	 4.8865006952	-1.8434442208	-1.403237816	 0.115915
H	 5.2275269224	-3.5738273277	-1.517600537	 0.109216
H	-0.0856347103	-2.5185360251	-2.0700895293	 0.050788
H	-0.3064043558	-2.7092855948	 0.2286541309	 0.2849
65.3606	87.7087	97.0386	144.3105	193.8555	218.8674	230.1189	284.5808	294.7771	309.0099	378.4398	414.0117	474.4936	581.8611	695.762	752.6853	782.2499	799.1055	859.565	923.5138	939.1457	951.8764	957.3718	973.4986	1010.0817	1040.6098	1054.366	1119.5488	1134.4072	1150.7134	1164.1496	1189.3251	1223.9719	1246.9123	1255.0144	1284.1618	1287.2172	1291.1814	1317.8002	1340.6325	1349.9288	1376.648	1403.7402	1410.6329	1413.5367	1417.3489	1482.4058	1489.7128	1494.6322	1499.7459	1500.2103	1508.1114	1509.259	2988.6078	3000.1376	3023.7849	3025.8865	3027.507	3030.6422	3032.6903	3047.837	3055.6808	3073.9827	3097.951	3098.1551	3100.2097	3102.5972	3105.8977	3820.1286
CCC1CC(CC)C1O	CC[C@H]1C[C@@H](CC)[C@H]1O	
InChI=1S/C8H16O/c1-3-6-5-7(4-2)8(6)9/h6-9H,3-5H2,1-2H3	InChI=1S/C8H16O/c1-3-6-5-7(4-2)8(6)9/h6-9H,3-5H2,1-2H3/t6-,7+,8-
