18
gdb 85281	2.48993	1.56466	1.16185	4.5158	72.21	-0.2376	0.0258	0.2634	1087.1241	0.147802	-439.117907	-439.109457	-439.108513	-439.150551	32.765	
C	-0.2061891021	 1.5392824649	 0.0772427212	-0.405456
C	 0.0674496212	 0.0389969342	-0.0108350112	-0.021369
N	 0.9401964982	-0.3262563226	-1.1204641516	-0.335497
C	 1.8603318666	-1.3158981954	-0.8385492261	 0.424079
O	 2.4981479623	-1.9418200996	-1.6550270965	-0.383887
C	 1.9004541578	-1.441150699	 0.6615448631	-0.21689
C	 2.2305082167	-0.1524670136	 1.4101962054	-0.352563
C	 0.804346492	-0.5585565521	 1.1968189828	 0.396316
O	 0.0172725011	-0.9716663921	 2.2670347278	-0.469106
H	 0.7243970242	 2.1045857169	 0.1793181833	 0.125526
H	-0.7282856317	 1.8984420974	-0.8153986003	 0.120234
H	-0.8456256623	 1.7551354451	 0.9398386408	 0.116421
H	-0.8931601771	-0.493535928	-0.0809703279	 0.094307
H	 0.6822487143	-0.1607155588	-2.0811293825	 0.247992
H	 2.1658586737	-2.3935813244	 1.098728346	 0.11995
H	 2.6162229146	-0.2901077934	 2.4146486911	 0.123425
H	 2.6564271225	 0.6795517038	 0.8590918849	 0.127327
H	-0.0870723219	-0.2290390933	 2.8713674397	 0.28919
114.4464	152.0647	220.9836	237.7469	260.0147	315.9017	347.0198	407.9734	480.9664	507.4168	528.4928	579.1572	674.3546	694.9712	760.3621	815.9023	891.8757	927.419	954.9728	986.8545	999.001	1051.5629	1068.1855	1077.8305	1117.0834	1139.7389	1198.795	1234.9617	1302.3127	1322.2997	1325.68	1388.6196	1400.5289	1408.6829	1425.6414	1480.8443	1493.6942	1497.861	1832.4898	2988.7731	3036.0233	3101.692	3118.6252	3128.9604	3217.3306	3224.8217	3632.1627	3804.5661
CC1NC(=O)C2CC12O	C[C@H]1NC(=O)[C@H]2C[C@@]12O	
InChI=1S/C6H9NO2/c1-3-6(9)2-4(6)5(8)7-3/h3-4,9H,2H2,1H3,(H,7,8)	InChI=1S/C6H9NO2/c1-3-6(9)2-4(6)5(8)7-3/h3-4,9H,2H2,1H3,(H,7,8)/t3-,4-,6-/m1/s1
