14
gdb 51399	5.83929	0.88464	0.85582	3.1124	65.65	-0.2686	-0.0332	0.2353	1300.3971	0.098809	-473.737095	-473.729196	-473.728251	-473.770868	27.944	
N	-0.2009120342	 1.2906056357	 0.1210601003	-0.426938
C	-0.137849061	 0.0356992027	 0.191034784	 0.121521
O	-1.1479109343	-0.7140281109	-0.3137833349	-0.194141
C	-1.015461652	-2.1006473139	-0.1781976845	 0.166203
C	-1.6246339458	-2.762516499	 1.098784673	-0.122441
O	-2.9749101727	-2.4373068198	 0.5731679535	-0.287211
C	-2.2610795002	-2.8801036431	-0.6533732779	-0.116353
C	-1.7949224656	-4.05422749	 0.2541760153	 0.457715
O	-1.7827065835	-5.2360553092	 0.3291841718	-0.295151
H	 0.6325687206	 1.7081789214	 0.5294728465	 0.236835
H	 0.6758613143	-0.5613248676	 0.6253436363	 0.090965
H	-0.0346791913	-2.4623055453	-0.510211286	 0.108848
H	-1.4293513296	-2.5847853109	 2.1533880895	 0.12768
H	-2.7909599347	-2.83280635	-1.6008449667	 0.132469
43.9617	85.1001	116.7009	195.3879	296.1998	361.4273	466.9996	506.2118	635.8365	718.3002	762.7254	788.4259	798.8766	824.6776	876.6985	963.3549	976.9937	1028.7006	1043.1572	1065.7372	1139.0489	1140.6132	1151.7662	1185.7605	1198.2191	1262.4845	1283.7898	1398.7025	1427.6506	1755.0135	1945.9524	3021.7363	3042.4553	3165.276	3174.7849	3523.3002
N=COC1C2OC1C2=O	[NH][CH]O[C@H]1[C@H]2O[C@@H]1C2=O	
InChI=1S/C5H5NO3/c6-1-8-5-3-2(7)4(5)9-3/h1,3-6H	InChI=1S/C5H5NO3/c6-1-8-5-3-2(7)4(5)9-3/h1,3-6H/t3-,4+,5-
