20
gdb 88058	2.23332	1.34682	1.03079	2.0554	80.88	-0.2417	-0.0284	0.2134	1243.5498	0.169576	-403.125568	-403.116289	-403.115345	-403.160503	33.955	
C	-0.2026728619	 1.3398409749	-0.1592091633	-0.394141
C	 0.0094819399	-0.140346281	 0.0399134387	-0.074633
N	 1.3998038331	-0.631078826	-0.0467732178	-0.380072
C	 0.706764002	-0.7028371738	 1.2272684941	 0.333131
C	 1.142706173	-0.0103683359	 2.5207585301	-0.294418
C	 0.431076791	-1.1462731742	 3.3111606331	-0.251265
C	 0.3067384262	-1.9870320717	 2.0057129084	-0.144625
C	-1.0391191857	-2.5504414457	 1.6471219756	 0.149343
O	-1.2161216084	-3.530674516	 0.9673106974	-0.260235
H	 0.606294958	 1.9122909286	 0.3019408079	 0.128652
H	-0.2226108545	 1.5871180307	-1.2257571428	 0.125483
H	-1.1533172103	 1.6620527913	 0.2798605851	 0.115465
H	-0.7559635511	-0.7765879211	-0.4041379185	 0.09729
H	 1.4378517844	-1.5461587977	-0.4906208534	 0.237297
H	 2.2295850407	-0.0213524468	 2.6396635537	 0.116643
H	 0.782714379	 1.0079651882	 2.6862980169	 0.107688
H	 0.9889908216	-1.6100199737	 4.1256067446	 0.113598
H	-0.549926542	-0.8419561516	 3.6885576112	 0.10921
H	 1.0665742787	-2.7680916481	 1.9101697914	 0.095716
H	-1.9014338138	-1.9531778403	 2.0287135876	 0.069872
44.2128	64.7602	136.7245	185.3346	203.6638	235.3338	317.7487	427.4351	432.9376	462.7814	468.6653	570.0501	716.2249	787.2741	828.9332	851.5354	898.7588	930.9146	950.5282	1011.1404	1019.3652	1040.5729	1058.0657	1077.3242	1109.195	1126.197	1147.7109	1200.4371	1227.7819	1233.9105	1250.6542	1259.6476	1283.4337	1308.5625	1354.5066	1409.4512	1425.5035	1463.6635	1477.2985	1490.0663	1494.8677	1502.6117	1816.781	2847.4992	3034.8793	3058.9825	3062.3641	3072.8927	3097.8984	3104.208	3108.7056	3125.4085	3128.3081	3491.7539
CC1NC11CCC1C=O	C[C@H]1N[C@]21CC[C@H]2C=O	
InChI=1S/C7H11NO/c1-5-7(8-5)3-2-6(7)4-9/h4-6,8H,2-3H2,1H3	InChI=1S/C7H11NO/c1-5-7(8-5)3-2-6(7)4-9/h4-6,8H,2-3H2,1H3/t5-,6+,7+/m1/s1
