23
gdb 112629	2.61874	1.0769	0.86108	1.2791	89.21	-0.2145	0.0397	0.2542	1449.2469	0.204758	-388.317031	-388.306763	-388.305819	-388.352221	37.971	
C	 0.2439173852	 1.3767223078	 0.2512808257	-0.499041
C	-0.0968868104	-0.0712316455	 0.0799261992	 0.233645
C	-0.0637075784	-0.8092643819	-1.0380137185	 0.235328
C	 0.3195915527	-0.3909098875	-2.4236923301	-0.498685
C	-0.5289146648	-2.2281579216	-0.7796404235	-0.324616
C	-0.5858110845	-2.3422192182	 0.7651540824	 0.019251
C	 0.6284106079	-3.1045686183	 1.2908174096	-0.079558
O	 0.5406238431	-3.173316388	 2.707318289	-0.421818
C	-0.5915133953	-0.8746253084	 1.2640439114	-0.303205
H	 1.0410651043	 1.5071648096	 0.9947778953	 0.121894
H	 0.5714675831	 1.8489221168	-0.6781676066	 0.118407
H	-0.6204592308	 1.940467965	 0.6267451439	 0.122457
H	 0.6150539993	 0.6595067829	-2.4810201074	 0.120037
H	 1.1540891813	-0.9955760505	-2.8028163639	 0.119807
H	-0.5123125461	-0.5425153031	-3.1245412535	 0.121413
H	-1.5119563421	-2.4047638568	-1.239469166	 0.097975
H	 0.1446756978	-2.9736989738	-1.2264119733	 0.088488
H	-1.4781091087	-2.8790893687	 1.0998412281	 0.073367
H	 0.6469676329	-4.1134030616	 0.8479165054	 0.081997
H	 1.5481486288	-2.5861527796	 0.9723814491	 0.085179
H	 1.3468562767	-3.577507408	 3.0400573753	 0.284833
H	 0.0322083543	-0.7533463915	 2.1574025188	 0.108449
H	-1.6000287762	-0.5482218291	 1.5566371697	 0.094395
57.7453	131.4002	139.4795	153.7698	182.5679	246.4379	253.8747	284.42	293.6923	342.9089	368.9773	476.3032	505.7307	594.1535	649.663	781.2632	827.5101	892.6833	903.0705	937.6688	985.6643	994.0038	1011.6286	1050.8026	1070.7447	1088.29	1111.5632	1119.1652	1175.0084	1186.8331	1201.338	1235.9439	1251.7024	1280.6906	1294.1988	1326.9487	1350.9531	1370.6616	1408.3323	1419.9063	1452.8285	1478.6694	1482.3477	1484.2031	1490.6865	1493.6781	1498.2744	1519.68	1745.4509	2958.4836	2988.5304	2994.5476	3000.8471	3011.6576	3014.7063	3016.0937	3052.0028	3054.1277	3055.4417	3068.4789	3110.5917	3116.7413	3832.564
CC1=C(C)CC(CO)C1	CC1=C(C)C[C@@H](CO)C1	
InChI=1S/C8H14O/c1-6-3-8(5-9)4-7(6)2/h8-9H,3-5H2,1-2H3	InChI=1S/C8H14O/c1-6-3-8(5-9)4-7(6)2/h8-9H,3-5H2,1-2H3
