14
gdb 20515	4.95955	1.54313	1.18559	1.7328	64.84	-0.2432	-0.034	0.2092	949.8512	0.108695	-378.767574	-378.760415	-378.75947	-378.799439	25.621	
C	-0.0075910796	 1.5093798701	 0.009299442	-0.49397
C	 0.0468147202	-0.0082567714	 0.0031724429	 0.295017
O	 1.1042300845	-0.609543246	-0.008565979	-0.322867
C	-1.2385892762	-0.7265301921	 0.0114288357	 0.117911
C	-1.382473768	-2.1073371673	 0.0073370016	-0.093728
N	-2.7041340742	-2.3506808901	 0.0178287323	-0.176549
N	-3.4615820565	-1.228063751	 0.0286896756	-0.220578
C	-2.5739500484	-0.2437340258	 0.0246270419	-0.094707
H	 1.0075262636	 1.9069898626	 0.0017992379	 0.141213
H	-0.5536860579	 1.8783449911	-0.8660343986	 0.139431
H	-0.5380730713	 1.8717355932	 0.8969081828	 0.13942
H	-0.6396810089	-2.8882390557	-0.0020367204	 0.166292
H	-3.166282409	-3.2449913582	 0.0184373628	 0.282919
H	-2.9172454484	 0.7803870105	 0.0314483925	 0.120196
83.3233	128.2489	179.4527	193.245	370.9632	492.6533	558.0914	586.5876	629.445	684.401	698.0241	847.9672	902.2071	941.8317	949.1642	998.8985	1042.8635	1046.4109	1150.8857	1164.2587	1242.5335	1343.5074	1377.6937	1390.9059	1428.0378	1466.6285	1476.6476	1494.8897	1586.9313	1770.3249	3037.0217	3098.3489	3154.9067	3248.0261	3278.7717	3667.4142
CC(=O)C1=CNN=C1	CC(=O)c1c[nH]nc1	
InChI=1S/C5H6N2O/c1-4(8)5-2-6-7-3-5/h2-3H,1H3,(H,6,7)	InChI=1S/C5H6N2O/c1-4(8)5-2-6-7-3-5/h2-3H,1H3,(H,6,7)
