14
gdb 124102	3.72452	1.60272	1.15583	4.1029	62.61	-0.2564	-0.0131	0.2433	971.0572	0.103822	-473.806335	-473.800007	-473.799062	-473.837208	24.474	
C	 0.031131941	 1.4137354539	-0.0034966177	 0.000692
O	 1.3158873397	 1.9421198962	-0.042828767	-0.227574
C	 2.0390908915	 1.7247347472	 1.1745367041	-0.21141
C	 1.8907359052	 0.2832331588	 1.5480188225	 0.032732
C	 2.5056663681	-0.6169197281	 2.3513684786	-0.031413
O	 1.9284141916	-1.8241017335	 2.2337713861	-0.172478
N	 0.8742350917	-1.7557032676	 1.3133016099	-0.249125
C	 0.8750757131	-0.5045864213	 0.9280406213	 0.446683
O	 0.0148092473	-0.0248136949	 0.016862603	-0.251759
H	-0.5229361508	 1.7733910523	 0.8783515405	 0.105431
H	-0.4742971275	 1.6989581165	-0.925392065	 0.140668
H	 3.0740418752	 2.0043959516	 0.9630595964	 0.14121
H	 1.6580741339	 2.3966417938	 1.9591226624	 0.119308
H	 3.3369378001	-0.560640215	 3.0375281048	 0.157034
124.108	223.2619	345.1714	368.7146	427.0007	480.1084	585.5655	594.512	719.4812	730.7396	778.1236	835.2727	925.7764	937.6647	960.6686	1000.3141	1030.4671	1104.6763	1150.2657	1154.9524	1239.6664	1255.4716	1297.0031	1319.907	1366.1405	1429.4194	1467.1695	1495.4576	1511.4004	1562.7755	1683.7523	2978.6734	2985.8289	3096.3551	3146.7666	3259.9557
C1OCC2=CON=C2O1	C1OCc2conc2O1	
InChI=1S/C5H5NO3/c1-4-2-9-6-5(4)8-3-7-1/h2H,1,3H2	InChI=1S/C5H5NO3/c1-4-2-9-6-5(4)8-3-7-1/h2H,1,3H2
