16
gdb 15027	2.35207	1.84852	1.10637	2.3972	71.65	-0.2489	-0.0297	0.2192	1053.5625	0.127805	-346.560184	-346.551648	-346.550704	-346.594017	30.375	
O	 0.2614404699	 0.0104189708	 0.2940192215	-0.243884
C	 0.1686032773	 1.180767264	 0.0427524573	 0.172267
C	 1.373059823	 2.118084471	-0.118183725	-0.273563
C	 1.2287697361	 2.9080782764	-1.336054744	 0.303421
C	 1.0542548649	 3.5503921392	-2.3370878185	-0.439034
C	 1.472943862	 2.9944339692	 1.1328051324	 0.017551
C	 2.0557859361	 2.4147917052	 2.3959929049	-0.273877
C	 2.8214051356	 3.4566820094	 1.6186505612	-0.266221
H	-0.8163304591	 1.6861724442	-0.0645680201	 0.090383
H	 2.2599830417	 1.4767123956	-0.1783338699	 0.120701
H	 0.9234527565	 4.1179918939	-3.2252236333	 0.202469
H	 0.6495745548	 3.6936994222	 1.2425296066	 0.099656
H	 1.6083197867	 2.6976965103	 3.3419107991	 0.118777
H	 2.4106815742	 1.3902543392	 2.3615997261	 0.129419
H	 3.6955709852	 3.1360707797	 1.0621445335	 0.121509
H	 2.8981167249	 4.4573090496	 2.0285984382	 0.120426
54.3517	74.6301	134.1013	168.8112	219.609	326.6046	379.3413	461.4839	506.9793	517.1045	635.6783	648.2194	770.3785	825.793	851.0408	929.4277	934.6505	967.1925	1052.9431	1061.5882	1068.9867	1083.2054	1135.614	1159.0087	1195.9951	1221.3252	1246.1895	1291.6145	1394.569	1417.1176	1472.2764	1505.124	1837.4925	2234.1383	2892.7082	3047.8338	3135.4573	3139.8275	3154.8969	3214.8437	3229.2057	3502.646
O=CC(C#C)C1CC1	O=C[C@@H](C#C)C1CC1	
InChI=1S/C7H8O/c1-2-6(5-8)7-3-4-7/h1,5-7H,3-4H2	InChI=1S/C7H8O/c1-2-6(5-8)7-3-4-7/h1,5-7H,3-4H2/t6-/m1/s1
