15
gdb 66711	2.89938	1.7172	1.29669	4.9372	74.13	-0.2399	-0.0054	0.2344	968.7314	0.112031	-379.566813	-379.559512	-379.558568	-379.598462	28.134	
C	-0.040326669	 1.4979662809	 0.0379305147	-0.524754
C	 0.0902475959	 0.016876534	-0.0056592091	 0.286199
C	 0.6066873114	-0.9878211148	-1.073489801	-0.164228
C	-0.4744142103	-1.9282357266	-0.6117042891	-0.005215
C	 0.8788228543	-2.0104296977	 0.0359442704	-0.177142
C	 0.3750024078	-0.9841794614	 1.0815411575	 0.259227
C	 0.586275857	-0.8280503888	 2.4765301137	 0.133706
N	 0.795960054	-0.6938569757	 3.6073814573	-0.350866
N	-0.9964506768	-0.9252370302	 0.4193631669	-0.236127
H	 0.9408716748	 1.9804831085	-0.0169267543	 0.137313
H	-0.6494457481	 1.8558210869	-0.7988909863	 0.13857
H	-0.5255207173	 1.8015191098	 0.9701851579	 0.152976
H	 1.0992444431	-0.8698798842	-2.0274764066	 0.112573
H	-1.089649754	-2.6576458585	-1.1208766082	 0.117028
H	 1.6095067972	-2.8034763522	 0.084264796	 0.120737
119.4452	162.2877	206.0408	268.626	289.178	492.4166	515.2204	543.5623	622.6728	700.9157	749.6352	761.6687	786.3753	818.2539	861.527	879.312	923.2471	992.8627	1000.4509	1013.1176	1030.4924	1072.0906	1088.0087	1154.2089	1174.897	1232.2874	1303.5104	1342.4331	1396.2036	1441.1506	1474.5395	1487.9565	2341.2415	3035.7511	3103.75	3119.1408	3205.3972	3225.6614	3240.4019
CC12C3C4C3C1(C#N)N24	C[C@@]12[C@@H]3[C@H]4[C@@H]3[C@]1(C#N)N24	
InChI=1S/C7H6N2/c1-6-3-4-5(3)9(6)7(4,6)2-8/h3-5H,1H3	InChI=1S/C7H6N2/c1-6-3-4-5(3)9(6)7(4,6)2-8/h3-5H,1H3/t3-,4+,5-,6+,7-,9?/m0/s1
