12
gdb 49879	2.52674	1.49078	0.93808	6.8194	63.13	-0.2389	-0.055	0.184	1122.1469	0.076755	-509.818496	-509.810775	-509.809831	-509.850989	27.784	
N	 0.0587819866	 1.1068221458	 0.1454636296	-0.589238
H	 0.2012831718	 0.1326880857	-0.0668316754	 0.285635
H	 0.7931894676	 1.7297919948	-0.1545653135	 0.287763
C	-1.2032101658	 1.5888061286	 0.0653733041	 0.321368
O	-1.3263217988	 2.9382817901	 0.0662009166	-0.222334
C	-2.6982338344	 3.234757769	 0.0441760469	 0.505731
O	-3.1318303963	 4.3361179621	 0.036499024	-0.350635
O	-3.369853961	 2.0730946029	 0.0328306219	-0.228401
C	-2.4402626029	 1.020841828	 0.0392055447	 0.16529
C	-2.8567195765	-0.3507213651	 0.0118880023	 0.063953
O	-3.9996710604	-0.7538101955	-0.0139787774	-0.289632
H	-1.9892948599	-1.0537461065	 0.0150915462	 0.0505
120.4541	156.1285	191.5548	211.7588	303.5289	349.7531	408.3235	443.6333	476.7738	602.7962	661.9088	686.7813	712.0742	771.258	846.2542	938.8855	996.7674	1012.9052	1119.9157	1231.8787	1324.3869	1420.7105	1476.7735	1625.0669	1726.2905	1780.4853	1963.3377	2831.5214	3592.4671	3707.1209
[NH2+]=C1OC(=O)O[C-]1C=O	Nc1oc(=O)oc1C=O	
InChI=1S/C4H2NO4/c5-3-2(1-6)8-4(7)9-3/h1,5H/q-1/p+1	InChI=1S/C4H3NO4/c5-3-2(1-6)8-4(7)9-3/h1H,5H2
