21
gdb 32582	3.14471	1.05517	0.85665	1.6609	88.51	-0.1704	0.0561	0.2264	1434.5153	0.182565	-383.309313	-383.299187	-383.298243	-383.344784	37.034	
C	-0.0777757687	 1.5363889296	 0.017740873	-0.365826
C	 0.0268956016	 0.0074455509	 0.0073512266	-0.152628
N	 0.7129676306	-0.5349675048	 1.1633481533	 0.024619
C	 2.0513417728	-0.8089232335	 1.2442653729	-0.191079
C	 2.3621242211	-1.1832182207	 2.5346092767	 0.226776
C	 3.702635937	-1.5805909494	 3.0708135707	-0.512755
C	 1.1410554716	-1.1287279075	 3.2755111471	 0.13511
N	 1.0333695223	-1.3795030497	 4.6603513795	-0.607076
C	 0.1464135712	-0.7260779195	 2.4102701563	-0.181619
H	 0.9164217129	 1.992049404	 0.036232414	 0.128606
H	-0.6040277572	 1.8889886256	-0.8753845039	 0.113665
H	-0.6254964691	 1.8827435928	 0.8988074476	 0.128563
H	-0.973520601	-0.4378251587	-0.0387871322	 0.112659
H	 0.5640056014	-0.3280395646	-0.8856878115	 0.114111
H	 2.6852735793	-0.7194559144	 0.3749460474	 0.10582
H	 3.9973748658	-0.9598511207	 3.9259593937	 0.127095
H	 3.7235707434	-2.6241000274	 3.4154392737	 0.110115
H	 4.478282721	-1.4810859191	 2.3058115765	 0.116927
H	 1.5942342242	-2.1740833814	 4.94535239	 0.236323
H	 0.0765538614	-1.5492458759	 4.9447860557	 0.233506
H	-0.9074805517	-0.5612155256	 2.5711293728	 0.097087
41.6144	87.3311	115.9246	188.7301	201.5282	229.8579	244.0816	292.7432	301.0798	392.3552	480.9398	589.1789	609.9191	619.9976	624.1619	683.7598	733.256	783.6493	791.9368	807.7294	944.0008	1003.9372	1035.103	1062.0433	1096.4754	1100.4909	1123.7171	1192.701	1210.9524	1261.1538	1287.1466	1387.1147	1403.6078	1411.0831	1417.4722	1430.9019	1456.065	1481.1033	1484.7227	1487.9915	1503.0973	1506.3779	1579.9557	1629.1826	1658.3822	3003.1127	3037.5662	3039.7435	3050.2725	3079.1736	3100.6873	3112.727	3123.5877	3242.3522	3249.646	3517.1258	3606.3132
CCN1C=C(C)C(N)=C1	CCn1cc(C)c(N)c1	
InChI=1S/C7H12N2/c1-3-9-4-6(2)7(8)5-9/h4-5H,3,8H2,1-2H3	InChI=1S/C7H12N2/c1-3-9-4-6(2)7(8)5-9/h4-5H,3,8H2,1-2H3
