18
gdb 76418	3.17307	1.13553	1.04484	3.5672	68.52	-0.2282	0.0356	0.2638	1200.0633	0.146601	-476.152393	-476.143442	-476.142497	-476.185931	34.053	
O	-0.4616850503	 1.4245971627	-0.036263426	-0.437026
C	-0.1313946172	 0.0636763018	-0.0793463641	-0.025042
C	-0.184403057	-0.6586250549	 1.2573336144	-0.035918
O	-0.4875519475	 0.1479216439	 2.3655903268	-0.424782
C	-1.2908713261	-0.871325496	 0.2380340557	 0.361063
O	-2.519226147	-0.2483277912	 0.4358040825	-0.473298
C	-1.4009565181	-2.2058184765	-0.43125316	-0.04373
C	-2.5974159038	-3.0538533989	-0.2113295837	-0.244017
N	-2.3761731285	-2.3921140733	-1.5131178848	-0.329301
H	-0.4355640367	 1.6736469426	 0.9010014095	 0.291366
H	 0.6064937477	-0.184042584	-0.8370174857	 0.107896
H	 0.497723008	-1.4845749251	 1.4476351926	 0.09993
H	 0.3361817335	 0.3239433081	 2.8334662547	 0.299996
H	-2.3855223132	 0.6807073097	 0.1908679007	 0.292125
H	-0.4421690088	-2.6898670842	-0.6101181171	 0.082803
H	-2.5051630951	-4.1361432943	-0.2245141317	 0.112583
H	-3.3741381553	-2.6598319287	 0.436430819	 0.129779
H	-2.9642457346	-1.5606004718	-1.5443863228	 0.235572
72.5025	141.8992	182.5826	223.4045	241.2557	306.3132	312.2065	361.5535	387.8947	413.5837	595.2418	613.4634	644.6649	681.5746	745.536	820.3709	853.0018	866.9406	895.8798	975.7525	1008.2339	1028.6192	1066.2488	1092.8013	1116.3801	1140.527	1144.8607	1177.6624	1206.0447	1232.9619	1272.9039	1305.3216	1310.9124	1323.1264	1375.3817	1397.3055	1431.3878	1483.214	1507.1135	3113.5557	3117.85	3126.5674	3149.4762	3207.819	3484.3671	3688.7537	3699.825	3805.5038
OC1C(O)C1(O)C1CN1	O[C@H]1[C@@H](O)[C@]1(O)[C@H]1CN1	
InChI=1S/C5H9NO3/c7-3-4(8)5(3,9)2-1-6-2/h2-4,6-9H,1H2	InChI=1S/C5H9NO3/c7-3-4(8)5(3,9)2-1-6-2/h2-4,6-9H,1H2/t2-,3-,4+,5-/m1/s1
