16
gdb 30400	3.96241	1.18183	0.92066	3.7154	79.17	-0.2414	-0.0353	0.2061	1249.2987	0.123897	-434.100983	-434.092463	-434.091519	-434.134726	30.239	
C	 0.0128691578	 1.4398852254	 0.0859852049	-0.329112
N	-0.0094209614	-0.00615987	 0.0501299704	-0.278154
C	-1.1101599008	-0.6246783861	-0.0722669709	 0.378606
N	-2.3749809698	 0.017515367	-0.1814247388	-0.291101
C	-3.395856034	-0.7166249336	-0.2985882215	 0.117727
O	-3.4142882433	-2.0795143502	-0.3320115277	-0.218717
C	-2.1650370214	-2.674339233	-0.2233191389	 0.397687
C	-2.2691873266	-4.161138379	-0.2680689642	-0.471566
N	-1.0778575366	-2.0367293947	-0.101900419	-0.301313
H	 0.6593844466	 1.7999377801	-0.7236656452	 0.125514
H	-0.9691076463	 1.9170154066	 0.0001802598	 0.126869
H	 0.4870437249	 1.7593221106	 1.0220886749	 0.12552
H	-4.4024951908	-0.3159411392	-0.3880284979	 0.149247
H	-2.7338471949	-4.4796347535	-1.2069756113	 0.152217
H	-1.2739301842	-4.593956574	-0.1805259279	 0.164357
H	-2.9058531991	-4.5203762566	 0.5470990833	 0.152217
62.7539	115.7941	136.3341	156.1015	234.3571	301.823	342.5865	420.6604	494.6818	543.7303	596.9148	633.355	767.8716	797.6832	843.0591	919.9871	966.1992	1015.5304	1040.3046	1062.996	1125.9919	1129.8801	1153.6847	1228.8869	1268.6769	1405.14	1408.8275	1430.4428	1470.0307	1472.4563	1487.7412	1493.7895	1670.1786	1729.9362	1779.3244	3014.0427	3047.9751	3066.6444	3092.3957	3105.5253	3174.214	3175.8043
CN=C1N=COC(C)=N1	CN=c1ncoc(C)n1	
InChI=1S/C5H7N3O/c1-4-8-5(6-2)7-3-9-4/h3H,1-2H3	InChI=1S/C5H7N3O/c1-4-8-5(6-2)7-3-9-4/h3H,1-2H3
