15
gdb 127172	4.3318	1.09712	0.8803	2.4533	71.91	-0.2394	-0.0494	0.19	1233.4019	0.113214	-450.081739	-450.073613	-450.072668	-450.115244	28.713	
C	 0.0626033162	 1.4813800704	-0.0176487348	-0.360654
N	 0.0060899216	 0.0234218542	 0.0011125797	-0.169607
C	-0.0478756325	-0.6640099488	 1.2075814649	 0.089359
N	-0.0500962108	-0.053927736	 2.3227313906	-0.48031
C	 0.0068007546	-0.6611759327	-1.1934884199	 0.455735
N	-0.0415753807	-1.9695715401	-1.2999201754	-0.194458
O	-0.020746259	-2.2240975999	-2.6523957088	-0.152932
N	 0.0400360906	-1.0784160141	-3.3757681759	-0.059336
C	 0.0581712442	-0.1051505899	-2.5103836992	-0.124118
H	 0.9800553266	 1.829329533	-0.5039417696	 0.136574
H	-0.8031770502	 1.8980396657	-0.5431177707	 0.136587
H	 0.0527659631	 1.8182958917	 1.0171997773	 0.18784
H	-0.0859147496	-1.7447658009	 1.0608705104	 0.148008
H	-0.0931553038	-0.7215157951	 3.0887841396	 0.235847
H	 0.1050534398	 0.9231926726	-2.8287725782	 0.151466
58.6875	108.6907	146.7808	188.6375	247.3398	331.1543	366.5726	457.0764	488.2246	624.1116	725.9308	762.5158	809.7491	869.4504	922.2676	930.1315	961.4983	1036.0994	1058.9483	1061.8569	1140.6561	1158.9874	1195.8749	1275.7988	1345.1113	1413.027	1437.9017	1455.2264	1501.1466	1504.6415	1530.3254	1635.4895	1718.868	3032.5322	3091.5172	3122.0421	3174.2569	3281.8967	3524.3255
CN(C=N)C1=NON=C1	CN(C=N)c1nonc1	
InChI=1S/C4H6N4O/c1-8(3-5)4-2-6-9-7-4/h2-3,5H,1H3	InChI=1S/C4H6N4O/c1-8(3-5)4-2-6-9-7-4/h2-3,5H,1H3
