17
gdb 14611	12.42791	0.57022	0.56029	2.4183	70.77	-0.2606	-0.0317	0.2289	1842.4689	0.140375	-363.893374	-363.884156	-363.883212	-363.928863	30.692	
O	-0.1458554434	-0.0942707552	-0.1774718869	-0.230693
C	-0.0177254054	 1.0987223482	-0.091622529	 0.159605
C	 1.3028336938	 1.8357593173	-0.133806495	-0.278727
C	 1.3306510697	 2.8939875802	-1.2498400739	-0.199327
C	 2.6151674165	 3.7278311829	-1.2351924133	-0.177395
C	 2.6369847043	 4.7719199088	-2.3695437232	-0.343476
C	 3.8534414944	 5.5813896991	-2.3624297141	 0.257629
N	 4.8215966269	 6.2116947365	-2.3395086896	-0.300285
H	-0.9070294668	 1.7635757896	 0.023632646	 0.072212
H	 1.4338481407	 2.3346838511	 0.8376574139	 0.12337
H	 2.1078071141	 1.1046031381	-0.2516080249	 0.128008
H	 1.2249950441	 2.3967037679	-2.2224972406	 0.118328
H	 0.4615550785	 3.5578018709	-1.1464228554	 0.108448
H	 2.7173577776	 4.2414594829	-0.2726602447	 0.124729
H	 3.4884718518	 3.0739153613	-1.3338691997	 0.128645
H	 2.5550863774	 4.2758980935	-3.3438660462	 0.155382
H	 1.7735091759	 5.442496497	-2.2858180334	 0.153545
45.856	56.2715	98.3961	119.3967	128.0937	210.3455	319.2926	368.0134	398.5932	521.2822	556.6776	736.4812	774.0563	838.2623	932.1429	952.8852	994.2842	1020.0196	1055.7564	1101.9431	1130.3076	1178.5429	1244.6272	1267.7801	1307.3804	1322.8549	1334.1181	1369.6653	1398.615	1430.2583	1464.0549	1469.7214	1488.6165	1506.8804	1839.6371	2364.1537	2848.1324	3010.1927	3016.3101	3035.7605	3046.186	3050.73	3069.8537	3093.3134	3101.6716
O=CCCCCC#N	O=CCCCCC#N	
InChI=1S/C6H9NO/c7-5-3-1-2-4-6-8/h6H,1-4H2	InChI=1S/C6H9NO/c7-5-3-1-2-4-6-8/h6H,1-4H2
