17
gdb 67650	3.3068	1.79411	1.59578	0.5643	69.8	-0.2181	0.0737	0.2917	879.6123	0.137654	-421.76703	-421.76058	-421.759636	-421.797417	27.317	
O	-0.0665073682	 1.4279515834	-0.0940013694	-0.467307
C	 0.0404379741	 0.0546711525	-0.0482733164	 0.361901
C	-0.0513581774	-0.8368900146	 1.1354645913	-0.00087
O	 1.0456715602	-1.7069225567	 1.2701378507	-0.261197
C	 1.4600189822	-2.0116264752	-0.0595455901	 0.078035
C	 0.4813643268	-3.0289326467	-0.701612345	-0.247806
C	-0.3716375702	-1.8184800113	-1.1509407186	-0.031998
C	-1.0505699309	-1.0293154168	-0.0089273678	-0.176995
C	 0.8563664299	-0.8681387185	-0.9845681032	-0.162874
H	 0.5808528705	 1.8054523957	 0.5123936768	 0.288803
H	-0.435599777	-0.4798316916	 2.0834345899	 0.10681
H	 2.5294993764	-2.2273303814	-0.0501015924	 0.075856
H	 0.9333331867	-3.5304468499	-1.5631613572	 0.097907
H	 0.0462069478	-3.7708340211	-0.0276919107	 0.101674
H	-0.9454816788	-1.8562105511	-2.077495851	 0.071679
H	-2.1164822912	-0.9449454655	 0.1703708976	 0.090483
H	 1.431829759	-0.4735083412	-1.8173793945	 0.0759
205.4388	272.9695	288.1277	365.2372	427.3521	546.5528	580.1005	641.8503	680.5002	730.6086	811.0304	831.7991	855.2812	869.2237	900.7625	910.857	925.6852	953.596	986.6242	1025.3575	1035.0144	1060.2435	1086.5227	1099.9445	1131.8255	1153.5416	1187.4412	1203.9819	1225.1937	1264.8458	1266.7495	1273.1839	1315.6475	1323.9261	1353.3917	1473.2443	1477.7137	3050.641	3099.0886	3100.7241	3112.2608	3158.8872	3174.7839	3198.2807	3787.1526
OC12C3OC4CC(C13)C24	O[C@@]12[C@@H]3O[C@H]4C[C@@H]([C@H]13)[C@@H]24	
InChI=1S/C7H8O2/c8-7-4-2-1-3(4)9-6(7)5(2)7/h2-6,8H,1H2	InChI=1S/C7H8O2/c8-7-4-2-1-3(4)9-6(7)5(2)7/h2-6,8H,1H2/t2-,3+,4-,5+,6-,7-/m1/s1
