19
gdb 11744	4.84207	1.39823	1.28215	2.5829	71.19	-0.2354	0.0786	0.314	1017.0303	0.165894	-365.018093	-365.010134	-365.00919	-365.050073	30.616	
C	-0.2881637408	 1.4005376185	 0.4438511118	-0.402867
C	 0.1495123941	-0.0399144208	 0.2504067325	 0.090008
C	 0.7874573694	-0.5009058529	-1.0925020974	-0.351448
C	 1.9881617768	-0.9529360416	-0.2594389819	 0.319623
C	 2.639550535	-2.3141139792	-0.3009416832	-0.156226
O	 3.2309898189	-2.6235612163	 0.943558261	-0.416759
C	 2.5463420959	 0.1783666056	 0.4994676658	-0.276995
N	 1.3512847715	-0.5049589557	 1.0505188879	-0.202945
H	 0.484830237	 2.1171322583	 0.15066903	 0.118063
H	-1.1770487634	 1.608410858	-0.1615233962	 0.120305
H	-0.5411309595	 1.5841810567	 1.4932145975	 0.129066
H	-0.6748739095	-0.7029195983	 0.5274060204	 0.087804
H	 0.2446845928	-1.3201430251	-1.5689746097	 0.10945
H	 0.9914416311	 0.2687030736	-1.8428802748	 0.102761
H	 1.8832466629	-3.0652281375	-0.5877266775	 0.083616
H	 3.4345267873	-2.3484915247	-1.0558692629	 0.110629
H	 2.5798308516	-2.3597200771	 1.6099962128	 0.293848
H	 3.4318803454	-0.0139365075	 1.095176972	 0.132286
H	 2.4618881636	 1.191444506	 0.1157888617	 0.109782
108.3202	165.9549	183.3691	214.9881	291.761	330.8497	419.0566	489.4746	506.9257	545.8864	654.6111	693.2823	783.6986	823.5333	855.4612	901.5864	956.032	965.4659	1016.1303	1066.0978	1092.313	1103.0791	1114.169	1132.5511	1140.3683	1203.5947	1221.0409	1227.5977	1272.8022	1306.2108	1363.708	1386.5485	1393.4395	1410.5418	1449.0192	1482.0569	1490.5407	1496.246	1506.0453	1514.1309	2953.1219	3034.8775	3049.2197	3054.4917	3059.6238	3102.3448	3107.8322	3113.0419	3121.8146	3213.945	3730.0627
CC1CC2(CO)CN12	C[C@H]1C[C@@]2(CO)CN12	
InChI=1S/C6H11NO/c1-5-2-6(4-8)3-7(5)6/h5,8H,2-4H2,1H3	InChI=1S/C6H11NO/c1-5-2-6(4-8)3-7(5)6/h5,8H,2-4H2,1H3/t5-,6-,7?/m0/s1
