18
gdb 99325	4.18026	0.84074	0.76492	3.267	69.25	-0.2525	-0.0038	0.2487	1494.3159	0.146851	-476.218654	-476.209288	-476.208344	-476.253982	32.956	
O	-0.0604732197	 0.8822934	-0.8629719281	-0.418191
C	-0.1420142493	-0.1528517523	 0.0737527071	-0.140406
C	-1.5083028183	-0.812378437	 0.0389019706	 0.426203
O	-2.3751947146	-0.4612809854	-0.7320486048	-0.381365
O	-1.6221807659	-1.7876694944	 0.9412734827	-0.238067
C	-2.9034535517	-2.468754864	 1.0191397778	-0.114468
C	-2.9871409479	-3.6211624675	 0.0578952463	 0.007571
C	-4.3114899492	-3.9707069769	-0.5213577054	-0.241034
N	-3.2646932411	-3.3877147968	-1.3659834435	-0.307227
H	-0.9103591874	 0.8857309836	-1.3269484372	 0.297694
H	 0.6127703728	-0.9314458541	-0.1150777457	 0.130089
H	 0.0357966595	 0.216757136	 1.094294826	 0.127944
H	-2.9577824751	-2.8144064174	 2.0543323765	 0.127547
H	-3.6981029934	-1.7416394853	 0.8330061995	 0.129393
H	-2.2696404724	-4.417974346	 0.2426737242	 0.102582
H	-4.5505467566	-5.0100207697	-0.7269738221	 0.124642
H	-5.166171586	-3.3579852393	-0.2434106459	 0.115371
H	-3.4357971037	-2.3961295035	-1.517952838	 0.251722
64.1287	71.8051	89.9325	104.3199	217.5052	260.3285	335.6025	346.5653	363.1745	426.782	551.4093	597.2426	695.3837	802.353	835.5749	893.5877	929.6185	954.5262	989.985	1024.3121	1040.6179	1071.3752	1127.6203	1132.5827	1155.1467	1230.5179	1244.4316	1250.6254	1263.3613	1298.9566	1319.2502	1330.8975	1386.8383	1436.415	1465.6461	1480.3157	1497.1639	1514.3267	1789.0329	2997.2347	3020.389	3066.3421	3105.8899	3118.7676	3137.1667	3191.6939	3504.2474	3729.346
OCC(=O)OCC1CN1	OCC(=O)OC[C@H]1CN1	
InChI=1S/C5H9NO3/c7-2-5(8)9-3-4-1-6-4/h4,6-7H,1-3H2	InChI=1S/C5H9NO3/c7-2-5(8)9-3-4-1-6-4/h4,6-7H,1-3H2/t4-/m1/s1
