18
gdb 35185	3.40271	1.19778	1.08433	1.1431	82.78	-0.2255	0.0432	0.2686	1164.274	0.146999	-364.712175	-364.704127	-364.703183	-364.744743	31.651	
C	 0.0075076144	-1.1683606757	-0.0956436554	-0.463723
C	-0.0076894694	 0.0341618578	-0.0461474555	 0.331595
C	 0.0000863013	 1.4652624272	 0.0009448854	-0.273943
C	 0.5037082517	 2.1914651941	 1.2466696221	-0.363976
C	 1.3289033981	 2.2056344611	 0.0082519411	 0.371835
C	 2.7461095702	 1.6583508654	-0.1693226931	-0.249532
N	 3.1685978549	 2.9007076905	-0.9200553706	-0.125467
C	 2.3035565368	 2.9631601799	-2.1110826712	-0.239403
C	 1.7328658842	 3.3992952842	-0.8191979927	-0.121617
H	 0.0093530011	-2.2293114711	-0.1332504336	 0.196039
H	-0.809501918	 1.9528749927	-0.5359751478	 0.113117
H	-0.0211635258	 3.0980536836	 1.530778754	 0.121502
H	 0.836498895	 1.5783768421	 2.0773592988	 0.129354
H	 3.3098516004	 1.5751132211	 0.762616746	 0.116924
H	 2.8532975235	 0.7334924963	-0.7454188903	 0.117043
H	 2.6089345467	 3.7339120566	-2.8123507551	 0.122349
H	 1.9597285371	 2.0369531951	-2.5675912086	 0.118847
H	 1.5015902879	 4.4352043492	-0.5898885536	 0.099057
89.6354	116.348	176.7465	273.3768	315.526	400.7521	476.1594	488.6175	518.5502	568.1163	612.3385	652.703	742.818	779.4335	800.1362	831.6017	893.5994	911.5953	947.8786	967.0322	1002.9838	1047.4713	1059.6416	1079.9993	1086.1436	1112.9841	1115.9732	1131.1461	1192.4953	1211.5454	1242.2202	1278.2495	1310.0056	1348.3687	1428.7392	1486.7382	1490.1086	1504.3728	2232.5582	3047.9124	3101.6355	3108.5669	3127.814	3139.0092	3155.2161	3196.6421	3218.5018	3505.1128
C#CC1CC11CN2CC12	C#C[C@H]1C[C@]21CN1C[C@@H]21	
InChI=1S/C8H9N/c1-2-6-3-8(6)5-9-4-7(8)9/h1,6-7H,3-5H2	InChI=1S/C8H9N/c1-2-6-3-8(6)5-9-4-7(8)9/h1,6-7H,3-5H2/t6-,7-,8+,9?/m0/s1
