20
gdb 72461	2.58943	1.88762	1.50055	2.2904	77.6	-0.242	0.0279	0.2699	970.0442	0.174005	-403.18798	-403.180571	-403.179627	-403.21932	30.464	
C	-0.1201010324	 1.5014582506	 0.0197358959	-0.459002
C	 0.0551406832	-0.0045831323	 0.0085729996	 0.400549
C	 0.8249636962	-0.5749781175	-1.2059778103	-0.238737
C	 1.4465226857	-1.9159849794	-0.7050013365	-0.214759
C	 0.8785344593	-2.0768473846	 0.7214762271	 0.011844
C	 0.7889533542	-0.621845236	 1.2066705675	-0.265428
N	-0.472158575	-2.6619352049	 0.6615922949	-0.267556
C	-1.3976139871	-1.8644004045	 0.3287702891	 0.112871
O	-1.3022107534	-0.5557145228	-0.0048125801	-0.271519
H	 0.8552240913	 1.9959588589	 0.0418154132	 0.117355
H	-0.65779321	 1.833994924	-0.873346259	 0.12671
H	-0.6909721432	 1.8165275593	 0.8976704371	 0.125858
H	 0.1448172186	-0.7058755037	-2.05094353	 0.113531
H	 1.6006469686	 0.1298542563	-1.5202134623	 0.100536
H	 1.181017253	-2.7685981145	-1.3332690043	 0.112218
H	 2.5393215198	-1.8530810469	-0.6737418875	 0.096546
H	 1.4981720495	-2.7177717271	 1.3521600196	 0.071321
H	 1.7808864015	-0.1702171316	 1.3152230858	 0.097909
H	 0.2416758765	-0.5068303667	 2.145872405	 0.108184
H	-2.4349666764	-2.1914239665	 0.2805090353	 0.12157
136.4377	221.9928	269.4277	315.3381	324.791	407.4811	434.6833	458.8954	577.2838	611.1784	706.0878	769.2673	796.8639	841.4971	861.0157	888.8123	905.8451	940.3004	952.6238	970.0796	980.3727	1034.237	1045.5835	1095.7485	1142.8267	1175.2644	1201.8107	1221.5117	1234.9529	1274.249	1278.112	1283.112	1337.2507	1351.4135	1366.0746	1396.4612	1414.084	1477.8221	1480.4234	1482.9496	1497.143	1503.3129	1713.1561	3041.5914	3046.6281	3048.6386	3061.2716	3085.4526	3099.8628	3106.9669	3115.0425	3117.8646	3121.826	3156.3173
CC12CCC(C1)N=CO2	C[C@@]12CC[C@@H](C1)N=CO2	
InChI=1S/C7H11NO/c1-7-3-2-6(4-7)8-5-9-7/h5-6H,2-4H2,1H3	InChI=1S/C7H11NO/c1-7-3-2-6(4-7)8-5-9-7/h5-6H,2-4H2,1H3/t6-,7+/m0/s1
