15
gdb 46277	3.19128	1.48411	1.2436	5.2148	64.64	-0.2635	-0.0009	0.2625	994.2599	0.112554	-457.736022	-457.728872	-457.727928	-457.767981	26.879	
O	-0.11047041	 0.086919563	-0.3593006926	-0.315642
C	-0.0329153838	 1.2317364523	-0.0578873192	 0.425601
O	-1.0347809298	 2.0436971398	 0.4307558183	-0.248666
C	-0.1236441341	 3.1788390891	 0.5649941885	-0.146903
C	 1.0246183212	 2.3368402736	-0.0131318354	 0.111169
C	 2.4101988879	 2.2019920929	 0.7019071009	-0.338618
C	 3.0758568512	 2.6668092464	-0.6035922413	 0.039174
O	 2.6863643295	 1.7397637092	-1.6199230466	-0.221476
C	 1.7752583387	 2.7813536224	-1.2833085074	-0.04984
H	-0.4623440007	 4.023580843	-0.0403053493	 0.126509
H	-0.0217949137	 3.4743742216	 1.6118676668	 0.126872
H	 2.5095589375	 2.9127727944	 1.5260946445	 0.11836
H	 2.6885950696	 1.2000061288	 1.0338450452	 0.139005
H	 4.0036866029	 3.2062035546	-0.7482838055	 0.117528
H	 1.4197213234	 3.4260117288	-2.079048607	 0.116928
111.9132	122.37	167.8502	320.0107	332.5991	447.4428	461.3833	631.1184	725.6594	776.7663	798.9028	847.6946	860.1539	880.8818	893.4284	948.5656	972.692	994.8902	1035.6751	1079.3446	1110.6827	1136.0306	1162.066	1179.8567	1196.4725	1234.1791	1256.6744	1288.3385	1351.1726	1384.7628	1464.8395	1515.076	1942.5489	3061.2874	3071.1006	3119.7847	3133.7517	3183.7721	3203.7272
O=C1OCC11CC2OC12	O=C1OC[C@]21C[C@H]1O[C@@H]21	
InChI=1S/C6H6O3/c7-5-6(2-8-5)1-3-4(6)9-3/h3-4H,1-2H2	InChI=1S/C6H6O3/c7-5-6(2-8-5)1-3-4(6)9-3/h3-4H,1-2H2/t3-,4-,6-/m1/s1
