25
gdb 112562	2.41489	1.19987	1.04924	0.9641	89.62	-0.2424	0.0795	0.3219	1350.2983	0.226465	-389.484463	-389.473692	-389.472748	-389.519484	40.636	
C	-0.2276104899	 1.3959615452	 0.2088001332	-0.235022
O	 0.2705747125	 0.1111158874	-0.0823726967	-0.239778
C	 0.7932059748	-0.5567370887	 1.0483992148	 0.116801
C	-0.2838925436	-1.2333269541	 1.9436905852	-0.294621
C	-0.0286128011	-2.5881607301	 1.2059188743	 0.336347
C	 0.1370899413	-3.8151048969	 2.0981711867	-0.455635
C	-1.0749029298	-2.8459880347	 0.1178371541	-0.444405
C	 1.3108384738	-1.9659615087	 0.6614118996	-0.022747
C	 1.7884129196	-2.2222045492	-0.7603767763	-0.413776
H	 0.5561871825	 2.0456581952	 0.6295588465	 0.103375
H	-0.5799733301	 1.8295094667	-0.7304724366	 0.124897
H	-1.0660538273	 1.3675703231	 0.920708277	 0.106041
H	 1.5091942938	 0.1021168733	 1.5627690972	 0.053208
H	 0.0148239444	-1.2640438474	 2.9958670854	 0.090803
H	-1.2947200866	-0.8208647607	 1.8773312367	 0.095763
H	-0.8119556364	-4.0927620637	 2.5723018858	 0.109312
H	 0.4805914524	-4.6815663457	 1.5201406237	 0.110498
H	 0.8676109558	-3.6344705085	 2.8945635337	 0.10396
H	-1.2155027862	-1.9662396717	-0.5146276004	 0.129981
H	-0.7859354246	-3.6862568993	-0.5236005384	 0.106869
H	-2.0412169699	-3.0941210204	 0.5728547796	 0.103238
H	 2.1121299182	-2.2276074175	 1.363154133	 0.06506
H	 1.0524256917	-1.8996582321	-1.4993858104	 0.13141
H	 2.7167308316	-1.6762544347	-0.9607872809	 0.110804
H	 1.9916076633	-3.2875054966	-0.9164317068	 0.107616
83.4687	119.3084	173.4682	191.1689	194.7127	221.269	238.1061	253.3015	283.1816	326.4296	351.2323	366.3542	419.043	475.5146	547.6766	663.0367	729.2182	817.2825	855.8817	894.6335	940.3228	952.9701	964.5402	973.5733	1019.2918	1042.4148	1084.9464	1111.0855	1136.1909	1173.4309	1183.1841	1193.4414	1218.8618	1235.9446	1243.1437	1277.4462	1284.0279	1321.6936	1369.6792	1388.5124	1400.9286	1407.8279	1419.5176	1467.4891	1481.3979	1484.1511	1486.2809	1487.111	1493.607	1498.0417	1503.696	1510.839	1515.8591	2971.5704	2979.9126	3014.8482	3021.3099	3024.5503	3026.9628	3035.9157	3049.9679	3078.7493	3084.5644	3085.8205	3091.2655	3102.4372	3111.8166	3121.2318	3130.1361
COC1CC(C)(C)C1C	CO[C@H]1CC(C)(C)[C@H]1C	
InChI=1S/C8H16O/c1-6-7(9-4)5-8(6,2)3/h6-7H,5H2,1-4H3	InChI=1S/C8H16O/c1-6-7(9-4)5-8(6,2)3/h6-7H,5H2,1-4H3/t6-,7-/m0/s1
