17
gdb 54702	3.70878	1.33416	1.24636	3.0459	71.17	-0.2379	0.0174	0.2553	1037.5806	0.137653	-417.977895	-417.970131	-417.969187	-418.010949	29.29	
N	-0.0273898907	 1.3811120706	-0.2890676975	-0.532785
C	 0.080845075	 0.1474822045	 0.2857184961	 0.394249
O	 1.1082885804	-0.2350351367	 0.8154348722	-0.364922
C	-1.1854894847	-0.6926519684	 0.2366166138	-0.09656
C	-1.1046162857	-2.2069810185	 0.1968103887	-0.05293
C	-1.0434403311	-2.7418421455	 1.588309901	-0.017325
C	-1.0556579588	-1.5821420581	 2.5639240589	-0.236325
C	-2.0073656434	-0.9455433875	 1.5328711843	-0.03517
N	-2.3753241845	-2.3668225635	 0.9956111916	-0.174799
H	 0.7721736871	 1.9928145098	-0.2651554857	 0.261341
H	-0.8657872395	 1.6963881688	-0.7433027854	 0.259878
H	-1.8691749786	-0.346497258	-0.5457721181	 0.080275
H	-0.90506729	-2.8278181719	-0.668857257	 0.097834
H	-0.7887805567	-3.7782609725	 1.7781057655	 0.096404
H	-1.6018022389	-1.846181144	 3.4732120383	 0.106925
H	-0.118604021	-1.0753969546	 2.8000386205	 0.130995
H	-2.7985996689	-0.2576085246	 1.824187553	 0.082914
38.1005	141.7344	158.1378	194.522	366.0862	391.5671	442.8986	583.055	641.7758	727.7777	751.599	773.682	781.9281	823.814	844.8544	897.2144	933.2402	985.8687	1014.3649	1021.8516	1038.5885	1060.9514	1083.3241	1091.0512	1121.6715	1141.9267	1192.0824	1206.8368	1264.9064	1275.146	1282.191	1353.9201	1377.2565	1424.4151	1486.4264	1617.0316	1787.9132	3052.2376	3068.4994	3131.6288	3137.5349	3178.5426	3190.4824	3602.9328	3741.3039
NC(=O)C1C2C3CC1N23	NC(=O)[C@H]1[C@H]2[C@H]3C[C@@H]1N23	
InChI=1S/C6H8N2O/c7-6(9)4-2-1-3-5(4)8(2)3/h2-5H,1H2,(H2,7,9)	InChI=1S/C6H8N2O/c7-6(9)4-2-1-3-5(4)8(2)3/h2-5H,1H2,(H2,7,9)/t2-,3+,4+,5+,8?/m0/s1
