14
gdb 48002	3.69237	0.74581	0.65788	2.1681	77.77	-0.2732	-0.079	0.1942	1605.021	0.098521	-436.64594	-436.636964	-436.63602	-436.681447	29.837	
O	-0.1691872243	 0.341667253	 0.2846164191	-0.223377
C	 0.028624794	 1.5224407972	 0.1153447028	 0.022907
C	 1.3377050916	 2.1202033311	 0.0323661819	 0.019932
C	 2.4212036331	 2.6503341534	-0.0490617138	 0.148378
C	 3.7224883952	 3.2458894446	-0.1189393945	-0.216483
C	 4.0177451833	 4.2611179776	-1.2108614586	-0.227014
N	 3.8953949563	 4.6737412815	 0.156984333	-0.06254
C	 2.8806460078	 5.514139539	 0.6151021413	 0.150308
O	 2.5084847418	 6.5007135866	 0.0360669857	-0.270311
H	-0.8050219613	 2.2450229253	 0.009646037	 0.109595
H	 4.5420827361	 2.6206827544	 0.2264311121	 0.142586
H	 5.0174467269	 4.2783701383	-1.6344143118	 0.145859
H	 3.2077515178	 4.5236256726	-1.8851770158	 0.156582
H	 2.5129124416	 5.2048818254	 1.6097412018	 0.103579
47.3813	57.4436	117.2545	131.4364	180.584	247.5448	258.8438	348.3729	477.8071	555.2707	587.19	659.1842	778.6683	831.3597	944.8304	978.7731	1018.5676	1034.0972	1049.2652	1081.3573	1127.4057	1153.5494	1203.6511	1355.7339	1392.0106	1414.8921	1420.5565	1502.4763	1765.7205	1810.7715	2320.3872	2929.9746	2982.0324	3121.1025	3142.5073	3217.7491
O=CC#CC1CN1C=O	O=CC#C[C@H]1CN1C=O	
InChI=1S/C6H5NO2/c8-3-1-2-6-4-7(6)5-9/h3,5-6H,4H2	InChI=1S/C6H5NO2/c8-3-1-2-6-4-7(6)5-9/h3,5-6H,4H2/t6-,7?/m0/s1
