19
gdb 30914	2.08826	1.6667	0.98924	1.3067	81.12	-0.1775	0.0334	0.2109	1203.5429	0.159907	-419.229853	-419.220241	-419.219296	-419.264156	35.277	
C	-0.1146781667	 1.4138567845	 0.1223231841	-0.349372
N	-0.0761212014	-0.0333525183	 0.0719960588	-0.030817
C	-0.0850469552	-0.7904706604	-1.0598236081	-0.094735
C	 0.0280319672	-2.1189076185	-0.7106790645	-0.235369
C	 0.1071837615	-2.1721652834	 0.7075328173	 0.163343
N	 0.3020988329	-3.3427495092	 1.4660958693	-0.606382
C	 0.0458890427	-0.8680777698	 1.1799871005	 0.186027
C	 0.0731592457	-0.341514888	 2.5690679765	-0.193601
O	-1.1410862745	 0.3154182355	 2.9686262729	-0.415038
H	 0.8850261961	 1.8423306298	 0.2677833754	 0.130555
H	-0.5184362864	 1.7942030106	-0.8184034814	 0.131785
H	-0.7562483527	 1.7350337563	 0.9457802416	 0.159756
H	-0.1791307952	-0.3268291954	-2.029662393	 0.112266
H	 0.0452750978	-2.9583569871	-1.3891795992	 0.085417
H	-0.126985468	-4.1502902472	 1.0326720813	 0.239843
H	-0.0409878714	-3.2635583723	 2.4147915597	 0.234455
H	 0.316253241	-1.1653866603	 3.2568746188	 0.094412
H	 0.8516325054	 0.4180004764	 2.7104532775	 0.112814
H	-1.8658658589	-0.2507430635	 2.6811961924	 0.274639
103.0771	107.6772	131.1423	160.6092	178.8004	259.4516	281.7033	302.1446	365.3386	414.74	499.2299	580.2659	619.8533	673.4641	710.4074	736.7515	740.3878	776.3134	792.2808	931.4292	998.5532	1045.0391	1059.1747	1102.4114	1136.5279	1153.5781	1211.0249	1252.6478	1276.834	1339.9829	1378.4845	1416.3937	1426.4645	1453.0349	1482.702	1488.2161	1507.4904	1528.1556	1544.6897	1622.6665	1656.5299	2991.7538	3020.6863	3044.1563	3097.6934	3139.0892	3238.506	3258.9554	3532.9425	3620.9831	3800.7799
CN1C=CC(N)=C1CO	Cn1ccc(N)c1CO	
InChI=1S/C6H10N2O/c1-8-3-2-5(7)6(8)4-9/h2-3,9H,4,7H2,1H3	InChI=1S/C6H10N2O/c1-8-3-2-5(7)6(8)4-9/h2-3,9H,4,7H2,1H3
