13
gdb 24815	3.00441	1.52105	1.00981	6.4818	74.68	-0.2472	-0.0587	0.1885	1069.1582	0.091628	-415.642905	-415.635826	-415.634882	-415.674694	26.413	
N	-0.0871342487	 1.315410303	-0.2190102539	-0.517807
C	 0.0083691202	 0.0510542087	-0.0378561057	 0.234128
C	 1.2282871375	-0.7347107351	 0.1554965639	-0.210243
C	 1.1938134188	-2.0596303503	 0.3359650333	 0.061683
O	 0.0412517414	-2.7876714225	 0.3562396512	-0.19468
C	-1.1175005156	-2.1239242356	 0.1839888134	 0.020823
C	-1.2047203121	-0.7892534202	-0.0062943049	 0.015539
C	-2.4957653238	-0.2064111805	-0.1765844465	 0.252135
N	-3.5580214321	 0.2321894561	-0.3110444367	-0.327234
H	 0.8366227453	 1.7518976109	-0.2149666728	 0.21688
H	 2.1881195958	-0.2307775535	 0.1527419638	 0.125359
H	 2.0557687415	-2.6962720689	 0.4838223247	 0.154589
H	-1.9717407982	-2.7871298021	 0.2160774601	 0.168828
101.5131	152.5361	205.932	375.6647	394.6259	437.4302	451.9126	565.3576	569.7166	586.7637	728.6749	754.8043	823.8672	867.1014	897.2612	932.7705	959.804	982.0515	1092.2815	1169.3999	1212.1589	1279.6715	1349.0992	1406.5183	1440.9869	1625.8748	1654.7292	1720.0773	2351.3685	3199.881	3234.7185	3238.8536	3456.4786
N=C1C=COC=C1C#N	[NH]C1=CCOC=C1C#N	
InChI=1S/C6H4N2O/c7-3-5-4-9-2-1-6(5)8/h1-2,4,8H	InChI=1S/C6H5N2O/c7-3-5-4-9-2-1-6(5)8/h1,4,8H,2H2
