25
gdb 89516	2.25144	1.54967	1.13571	0.0781	91.81	-0.2693	0.0791	0.3484	1233.402	0.230383	-352.373046	-352.363915	-352.362971	-352.406474	36.592	
C	-0.0511345629	 1.6243483335	-0.1109344407	-0.414934
C	 0.0412789118	 0.1087430373	-0.002516207	 0.038825
C	 0.9791925589	-0.6684018673	-0.9687718057	-0.300901
C	 1.4006420073	-1.6087296701	 0.2087065573	 0.396003
C	 0.7119752045	-2.968674953	 0.1702345764	-0.474359
C	 2.9113457322	-1.6935391638	 0.5499441799	-0.28616
C	 3.0490419973	-0.965758212	 1.904507619	-0.192265
C	 1.977323004	 0.1382662486	 1.8426784452	-0.229316
C	 0.769036736	-0.5677139434	 1.2009426323	-0.046219
H	 0.9346126285	 2.0994501142	-0.0699014083	 0.112818
H	-0.5141558005	 1.9173692047	-1.0602074238	 0.111222
H	-0.6584602039	 2.0469482163	 0.6977632566	 0.11089
H	-0.9699737106	-0.3076779574	-0.0706722824	 0.068387
H	 0.5115182448	-1.1450783639	-1.8356568689	 0.088816
H	 1.810819553	-0.0518439032	-1.3253659921	 0.08752
H	 1.1012978888	-3.5861802267	-0.6480042367	 0.11074
H	 0.8690560647	-3.5178189594	 1.1062299458	 0.108762
H	-0.3693663008	-2.868533963	 0.0225994848	 0.108997
H	 3.2711567556	-2.7263738717	 0.5978308496	 0.089065
H	 3.5089206059	-1.1848689495	-0.215293452	 0.091534
H	 2.8152964569	-1.6587003491	 2.7227783435	 0.094633
H	 4.0570332655	-0.5807971098	 2.0874070215	 0.089249
H	 1.7503860816	 0.5742468042	 2.8200401829	 0.091353
H	 2.3381703423	 0.954420881	 1.205747071	 0.09375
H	 0.1098812488	-0.9807712565	 1.9720113018	 0.051589
63.4024	174.5706	200.8794	225.9389	245.3152	264.5525	315.4823	359.247	396.8921	480.2217	539.8869	562.4026	605.8351	756.2911	795.2622	849.7909	853.7213	887.9179	900.4387	911.8896	928.8835	948.2981	978.0191	1006.3185	1016.1409	1034.3724	1059.3864	1113.1038	1140.2761	1150.5863	1166.7103	1210.7654	1220.0424	1221.3041	1246.4609	1268.8385	1290.4993	1304.1458	1312.6673	1334.5416	1343.3857	1361.7854	1379.0452	1408.2625	1412.5114	1481.1228	1485.8132	1490.6187	1493.4616	1495.5599	1496.7207	1498.4257	1508.3907	3015.2877	3022.5273	3025.7299	3028.197	3032.5392	3037.4741	3040.744	3044.5629	3072.682	3080.5137	3081.8788	3085.1373	3086.5091	3089.2604	3089.5368	3097.5274
CC1CC2(C)CCCC12	C[C@H]1C[C@@]2(C)CCC[C@@H]12	
InChI=1S/C9H16/c1-7-6-9(2)5-3-4-8(7)9/h7-8H,3-6H2,1-2H3	InChI=1S/C9H16/c1-7-6-9(2)5-3-4-8(7)9/h7-8H,3-6H2,1-2H3/t7-,8-,9+/m0/s1
