12
gdb 132812	2.37697	1.78695	1.02008	1.7792	60.07	-0.259	-0.024	0.235	1012.5787	0.07725	-521.919621	-521.912722	-521.911778	-521.950994	26.216	
O	 0.0834944584	 1.3704383534	 0.0935688545	-0.419837
C	 0.0547441973	 0.0247307109	 0.0475090814	 0.162908
C	 0.0480885361	-0.6937832225	-1.1471187042	 0.132014
F	 0.072014861	 0.0205028056	-2.2869725861	-0.091955
C	 0.0182370493	-2.0767748791	-1.1536847214	-0.09374
N	-0.0055426212	-2.788818607	-0.0256605965	-0.273776
C	 0.0002141467	-2.1244400872	 1.1323763756	-0.097007
C	 0.0295404869	-0.7400864286	 1.213972733	 0.169875
F	 0.0340670076	-0.1245968584	 2.3945540081	-0.060557
H	 0.0973541837	 1.6993647568	-0.8148358596	 0.313634
H	 0.0137405958	-2.6106291245	-2.0995597555	 0.129161
H	-0.0191589717	-2.7040480693	 2.0509177006	 0.129279
156.9888	260.3143	274.5155	303.7973	312.3088	462.4746	480.437	510.1184	575.6834	603.1739	606.6641	694.8129	748.4808	851.4681	905.7652	950.4511	1025.4283	1178.7953	1263.6304	1288.9065	1293.2111	1338.4647	1375.1451	1469.8673	1555.133	1635.4921	1654.4921	3172.6046	3176.4304	3783.9235
OC1=C(F)C=NC=C1F	Oc1c(F)cncc1F	
InChI=1S/C5H3F2NO/c6-3-1-8-2-4(7)5(3)9/h1-2H,(H,8,9)	InChI=1S/C5H3F2NO/c6-3-1-8-2-4(7)5(3)9/h1-2H,(H,8,9)
