20
gdb 101530	3.84398	0.7196	0.66419	3.7306	81.3	-0.2942	-0.0844	0.2097	1724.8	0.167893	-403.182069	-403.171457	-403.170513	-403.218772	37.039	
C	 0.0741835875	 1.5498095293	 0.1155406957	-0.393686
C	-0.0131370926	 0.0377773528	-0.1128723886	-0.18145
C	 0.8872615407	-0.4909637463	-1.245792779	 0.037716
C	 2.3814005519	-0.2711023199	-0.965437726	-0.402604
C	 0.5903245759	-1.978281936	-1.4890180438	-0.315118
C	 1.1158695345	-2.523778221	-2.7960369865	 0.284118
O	 1.6415609342	-1.8849384354	-3.6718971842	-0.265333
C	 0.9159147686	-3.9840290604	-2.9709413368	 0.230235
N	 0.7552350863	-5.1226918319	-3.0925491295	-0.295638
H	 1.067546586	 1.8580216041	 0.4539977585	 0.123184
H	-0.1512716783	 2.1016797155	-0.8037883489	 0.118636
H	-0.6438566102	 1.8671837039	 0.8777007186	 0.117545
H	 0.234275044	-0.4896051225	 0.8190612673	 0.09671
H	-1.0543408823	-0.2248899516	-0.3417073743	 0.09464
H	 0.6307632394	 0.0475865832	-2.16720497	 0.095706
H	 2.6821908909	-0.7739606364	-0.0379796463	 0.11141
H	 2.9966446679	-0.6590945668	-1.7807598505	 0.134988
H	 2.6140322888	 0.7912439645	-0.8579373886	 0.123845
H	 0.9836053133	-2.6082684083	-0.6780586683	 0.14159
H	-0.4929800865	-2.1733004467	-1.4932230988	 0.143506
39.1571	67.4629	98.5243	112.5171	192.2594	213.041	256.5082	269.2844	275.4636	338.4734	376.1175	418.6823	517.6731	576.9229	612.5582	774.5164	801.4359	858.8332	888.2483	927.5687	976.7088	1013.5928	1044.5126	1069.4917	1119.2727	1157.7996	1185.4251	1235.947	1286.4647	1312.0249	1369.3193	1373.6985	1392.3246	1413.4385	1416.1888	1433.8519	1483.9029	1497.1157	1498.8071	1507.4351	1516.0154	1798.5968	2336.0391	3004.6616	3008.5901	3023.3936	3033.2982	3035.92	3038.5505	3049.0802	3102.9104	3105.8372	3112.8662	3128.1224
CCC(C)CC(=O)C#N	CC[C@@H](C)CC(=O)C#N	
InChI=1S/C7H11NO/c1-3-6(2)4-7(9)5-8/h6H,3-4H2,1-2H3	InChI=1S/C7H11NO/c1-3-6(2)4-7(9)5-8/h6H,3-4H2,1-2H3/t6-/m1/s1
