21
gdb 99645	2.28179	1.13938	0.88056	3.0833	83.69	-0.2448	0.0319	0.2768	1414.2092	0.181895	-383.261468	-383.251209	-383.250265	-383.297286	36.831	
C	 0.0628263621	 1.4987137676	 0.0293814555	-0.330812
N	-0.1957233627	 0.0989819069	-0.2997464678	-0.269598
C	 0.780426128	-0.5076496115	-1.1980448689	-0.135112
C	 2.165740369	-0.4682042612	-0.6544005387	 0.269711
N	 3.2204618465	-0.424846611	-0.181600606	-0.337322
C	 0.3988905184	-1.9410099606	-1.5249976186	 0.00262
C	-0.6424303181	-2.2239065594	-2.5771346788	-0.307647
C	 0.7941730924	-2.6167978698	-2.8199069912	 0.007706
C	 1.6286481892	-1.9431046351	-3.8887780225	-0.416841
H	 1.0488965144	 1.6838558342	 0.483942895	 0.125758
H	-0.0078648891	 2.1027006004	-0.882187804	 0.125571
H	-0.7089603482	 1.8478456115	 0.7201783645	 0.126879
H	-0.2557414209	-0.4525762257	 0.5503867737	 0.226501
H	 0.7862392527	 0.0888279939	-2.117795945	 0.119912
H	 0.3906018191	-2.5812706707	-0.6462750839	 0.09365
H	-1.3812253157	-2.992608397	-2.3804346809	 0.115796
H	-1.0274901494	-1.3716728754	-3.1287925505	 0.116675
H	 1.0112536992	-3.6760535349	-2.7096644903	 0.092061
H	 1.3408172053	-0.8987410873	-4.0427762193	 0.116106
H	 2.6943564848	-1.9634836467	-3.6378061295	 0.135508
H	 1.5007865431	-2.4545989682	-4.8486381129	 0.122878
42.4779	95.0136	117.3013	152.6262	175.6287	201.3685	244.7452	276.0318	307.9099	373.847	432.2101	476.0516	544.9059	615.9439	749.1792	775.9409	845.0747	852.5383	899.2174	950.9561	970.2907	1016.6311	1047.7374	1070.9198	1107.7242	1117.5414	1151.181	1158.9577	1161.2471	1197.1348	1212.7595	1251.4808	1285.693	1339.0597	1392.7274	1419.2958	1430.4838	1457.9858	1485.1597	1491.4284	1493.6005	1500.4684	1506.7609	1521.1574	2338.3026	2982.8199	3034.5119	3047.2911	3065.1832	3096.88	3104.259	3113.7079	3130.3163	3132.7732	3144.6186	3214.9666	3520.7272
CNC(C#N)C1CC1C	CN[C@@H](C#N)[C@H]1C[C@H]1C	
InChI=1S/C7H12N2/c1-5-3-6(5)7(4-8)9-2/h5-7,9H,3H2,1-2H3	InChI=1S/C7H12N2/c1-5-3-6(5)7(4-8)9-2/h5-7,9H,3H2,1-2H3/t5-,6+,7+/m1/s1
