16
gdb 36683	3.07943	0.87786	0.7278	6.4291	74.84	-0.2578	0.0084	0.2662	1484.0363	0.124415	-396.923716	-396.914789	-396.913844	-396.958578	31.444	
N	-0.1458058405	-1.0830895967	-0.1393775073	-0.289852
C	 0.0055475007	 0.0370915324	 0.0961105965	 0.260042
C	 0.2086535127	 1.4514751488	 0.4196775388	-0.262209
N	 1.1237158408	 2.0798753348	-0.5270948432	-0.309895
C	 1.3034398631	 3.48142354	-0.3014194517	 0.046754
C	 2.0797362952	 4.0449644659	 0.8657665839	-0.305699
C	 2.6600597829	 4.1132563781	-0.545401802	-0.194551
C	 3.7713435994	 3.2651071267	-0.8715374357	 0.286628
N	 4.6476314809	 2.5529852929	-1.1255823531	-0.332813
H	-0.7618995767	 1.9595696756	 0.3596856498	 0.159572
H	 0.5324026078	 1.5208854371	 1.4727516025	 0.139219
H	 2.0068743991	 1.5826878949	-0.5724809978	 0.255261
H	 0.4623127142	 4.0790336993	-0.6458977526	 0.121295
H	 1.7654053075	 4.9808524304	 1.3134955142	 0.136638
H	 2.5536778655	 3.3450492345	 1.5447227348	 0.144341
H	 2.6727578275	 5.0774245953	-1.0407783571	 0.14527
54.0376	75.5135	104.2075	162.3755	206.8185	263.1219	373.1818	391.8064	436.6488	539.6966	564.2624	644.2402	694.6773	758.0313	830.564	873.6897	945.1983	977.0665	1002.626	1008.6049	1062.2632	1114.5261	1127.7027	1131.8605	1174.1829	1239.0468	1283.7319	1351.5561	1367.3874	1409.2808	1472.8802	1491.3518	1520.442	2351.091	2372.0339	2958.2643	3050.1494	3132.5071	3142.236	3180.0238	3236.5728	3536.5084
N#CCNC1CC1C#N	N#CCN[C@H]1C[C@H]1C#N	
InChI=1S/C6H7N3/c7-1-2-9-6-3-5(6)4-8/h5-6,9H,2-3H2	InChI=1S/C6H7N3/c7-1-2-9-6-3-5(6)4-8/h5-6,9H,2-3H2/t5-,6-/m0/s1
