21
gdb 70756	2.41132	1.60022	1.18223	1.8831	78.06	-0.2415	0.082	0.3235	1116.7135	0.184307	-424.215665	-424.207549	-424.206604	-424.247761	33.114	
O	 0.0587792045	 1.3511126192	-0.0967874667	-0.474532
C	 0.057552511	-0.0517935878	-0.0436810403	 0.427446
C	-0.4332867977	-0.7409622171	-1.2800077949	-0.360218
C	-1.2813920502	-0.745564182	-0.0192271711	-0.057196
C	-1.4970908361	-1.9798600855	 0.8385571116	-0.23779
C	-1.2740357138	-1.6951217342	 2.3361399041	-0.192578
C	 0.1982064877	-1.560177543	 2.7519987993	-0.064926
O	 0.9180279617	-0.4801951505	 2.1774835513	-0.253565
C	 1.1819289955	-0.6284037424	 0.7866874079	-0.166862
H	-0.0144351184	 1.658861355	 0.8148423404	 0.283168
H	-0.750010048	-0.1051467548	-2.0988169197	 0.123267
H	 0.0490549713	-1.6659376663	-1.5812509459	 0.109325
H	-2.1195579335	-0.0537742476	-0.0398511605	 0.08987
H	-2.5151326985	-2.356137764	 0.6831721275	 0.098949
H	-0.829763167	-2.7913036745	 0.5204083747	 0.093307
H	-1.8154212152	-0.7845614065	 2.6221348268	 0.099682
H	-1.6967458056	-2.5126141916	 2.9353280809	 0.09306
H	 0.2552869227	-1.4017447357	 3.8340977124	 0.10524
H	 0.7222919653	-2.5059547434	 2.5295546719	 0.085654
H	 1.3628430627	-1.6845530967	 0.5406229927	 0.087223
H	 2.1001605315	-0.0680350509	 0.5807336373	 0.111475
135.4548	167.9338	267.2952	309.1561	332.7092	362.6355	376.5163	414.6664	441.9444	469.217	520.1925	577.8459	745.6991	777.3619	838.9216	883.88	909.3835	930.6924	933.3357	947.4103	980.965	1023.6412	1049.1647	1060.5513	1066.9477	1106.5845	1132.6392	1167.9556	1219.4474	1251.084	1255.0546	1290.2896	1302.1907	1333.7366	1339.1459	1368.2721	1382.7518	1395.2439	1419.3165	1435.816	1473.5219	1482.1177	1490.4997	1495.0031	1504.3472	2956.9412	2998.8346	3016.4316	3022.6137	3055.1329	3062.3391	3071.2022	3075.3975	3128.1354	3142.4617	3220.7215	3782.6496
OC12CC1CCCOC2	O[C@]12C[C@H]1CCCOC2	
InChI=1S/C7H12O2/c8-7-4-6(7)2-1-3-9-5-7/h6,8H,1-5H2	InChI=1S/C7H12O2/c8-7-4-6(7)2-1-3-9-5-7/h6,8H,1-5H2/t6-,7+/m1/s1
