18
gdb 67791	3.1658	2.02594	1.49631	1.3682	79.41	-0.2219	0.0144	0.2364	907.9873	0.149145	-364.756188	-364.749459	-364.748515	-364.786676	28.712	
C	 0.0107700566	 1.4753153131	 0.0156358283	-0.477977
C	 0.0780656601	-0.0327100082	-0.0730974105	 0.309193
C	-0.1163958009	-0.6321724659	-1.3968084766	-0.137946
C	-0.1399809799	-1.9657180421	-1.4958362454	-0.092724
C	 0.0113573915	-2.7206268612	-0.2556523131	-0.090594
C	 0.9297897359	-2.2433766508	 0.880988693	-0.130546
C	-0.5552475096	-2.1676115008	 1.054217251	-0.036213
N	-0.5501193332	-0.6733054393	 1.1708762195	-0.200516
C	 0.9267684958	-0.7180878067	 0.9575111882	-0.090282
H	 0.7994639914	 1.9295202028	-0.594038516	 0.118248
H	-0.9556785804	 1.8384514047	-0.3479719229	 0.126984
H	 0.1296651762	 1.811125834	 1.048400661	 0.128939
H	-0.251494852	 0.0276945831	-2.2467851582	 0.089758
H	-0.2932570121	-2.4859340236	-2.4344218306	 0.096397
H	-0.0470146107	-3.8029768393	-0.3105950677	 0.091466
H	 1.6695328131	-2.8904138665	 1.3322254989	 0.096825
H	-1.2573335308	-2.7268922769	 1.6579718847	 0.106073
H	 1.6039291391	-0.1542042566	 1.5921288066	 0.092914
183.1171	250.2634	317.8318	378.2934	391.8657	508.8318	568.8521	587.1575	656.6579	669.9548	736.3774	756.0081	795.2523	835.8934	865.587	893.4164	926.3481	945.8329	955.7972	963.3529	1005.5297	1034.0569	1042.2135	1060.1497	1066.917	1085.5678	1135.3094	1166.1428	1204.618	1252.9903	1273.5493	1297.3071	1351.218	1400.3793	1413.2496	1455.2727	1486.6681	1496.8659	1685.6946	3036.3727	3101.754	3124.6205	3152.2363	3164.3354	3178.9896	3197.1993	3200.6481	3210.5084
CC12C=CC3C4C3N1C24	C[C@]12C=C[C@H]3[C@@H]4[C@H]3N1[C@H]24	
InChI=1S/C8H9N/c1-8-3-2-4-5-6(4)9(8)7(5)8/h2-7H,1H3	InChI=1S/C8H9N/c1-8-3-2-4-5-6(4)9(8)7(5)8/h2-7H,1H3/t4-,5+,6-,7-,8+,9?/m0/s1
