18
gdb 67522	2.4796	1.81885	1.49145	2.7306	75.88	-0.2555	0.0262	0.2817	969.043	0.148097	-401.909907	-401.902307	-401.901363	-401.941612	30.283	
C	-0.0542287172	 1.5494738545	-0.0133943334	-0.494347
C	-0.0053157945	 0.040408423	 0.0051063039	 0.211904
C	-1.2301331872	-0.6976143974	 0.6331694378	-0.09615
C	-1.1443842799	-2.1871786004	 0.514952429	-0.305751
C	-0.2948235471	-1.5039855486	 1.5504821879	-0.065053
C	 0.9144801591	-0.8046064089	 0.9079637446	 0.055891
O	 1.4922643864	-1.4575025357	-0.2753485961	-0.282358
C	 0.7026518275	-0.6914550608	-1.1252748393	 0.378666
N	 0.6690568282	-0.6466365919	-2.3778812802	-0.560593
H	 0.9275069859	 1.9758677903	-0.2396746132	 0.128941
H	-0.7539961713	 1.8951863802	-0.7811423783	 0.142328
H	-0.3885474588	 1.941083716	 0.9530347031	 0.11993
H	-2.1529590762	-0.1865733358	 0.8786322062	 0.096411
H	-1.9962340767	-2.7227712475	 0.9214886443	 0.117897
H	-0.6928469235	-2.6631452928	-0.3491061376	 0.138305
H	-0.3831485683	-1.7239242192	 2.6068493007	 0.093016
H	 1.6841542187	-0.3902134826	 1.5577897387	 0.094752
H	 1.3382053048	-1.2975679123	-2.7937688881	 0.226211
133.193	196.2148	212.9348	260.1212	263.9751	348.5356	459.1848	545.9901	639.5245	675.2332	697.304	759.7632	788.3777	839.0614	869.8697	886.775	902.9357	919.8682	955.5815	973.5939	998.0301	1019.5935	1035.2088	1053.1322	1086.7656	1152.5023	1164.1937	1178.6368	1209.9025	1239.5691	1253.8414	1302.985	1336.4503	1374.8404	1411.1388	1490.2295	1490.9829	1494.7304	1816.1571	3034.7757	3104.3242	3110.8038	3126.6286	3132.48	3184.2597	3193.3503	3215.5266	3467.8632
CC12C3CC3C1OC2=N	C[C@]12[C@H]3C[C@H]3[C@H]1O[C]2[NH]	
InChI=1S/C7H9NO/c1-7-4-2-3(4)5(7)9-6(7)8/h3-5,8H,2H2,1H3	InChI=1S/C7H9NO/c1-7-4-2-3(4)5(7)9-6(7)8/h3-5,8H,2H2,1H3/t3-,4+,5-,7+/m1/s1
