17
gdb 28038	3.88313	0.95213	0.86374	1.3568	82.12	-0.1765	0.0318	0.2083	1359.6941	0.136007	-380.854668	-380.845731	-380.844786	-380.88918	33.322	
N	-0.0204432234	 1.4267071448	 0.0798066828	-0.603955
C	 0.0074586696	 0.0192893169	 0.0248603185	 0.238691
C	-1.0729815463	-0.8361378037	-0.0090374752	-0.177244
N	-0.5929032916	-2.1332908831	 0.056695927	 0.038745
C	-1.4069221014	-3.3278153751	-0.0557761231	-0.335832
C	-1.8019348448	-3.658043768	-1.4273039516	 0.331224
C	-2.1313981395	-3.9327353408	-2.5491698695	-0.455291
C	 0.7732717488	-2.1030396615	 0.1079043987	-0.077644
C	 1.1803829437	-0.7888399396	 0.0991207751	-0.238919
H	 0.7689760949	 1.8394022153	-0.4012682901	 0.238742
H	-0.8712862991	 1.81094627	-0.311504919	 0.236347
H	-2.1313700945	-0.6404942766	-0.0711514848	 0.105498
H	-0.8437523713	-4.1611006083	 0.3781652758	 0.147001
H	-2.303063423	-3.2023806875	 0.5641088862	 0.146408
H	-2.4172479252	-4.1719315836	-3.5436304827	 0.203726
H	 1.3429020411	-3.0182356487	 0.1455905804	 0.115576
H	 2.1989412121	-0.4369943905	 0.1650809316	 0.086927
31.3629	69.877	183.5016	213.1501	270.9101	310.0997	326.0849	420.0088	457.9882	599.4019	609.2593	622.4668	650.2724	661.8641	668.2643	727.7542	756.3711	778.2409	797.2625	940.5951	968.0075	999.6359	1014.8939	1087.6121	1115.5085	1206.5272	1218.8107	1302.2787	1370.8462	1382.7697	1437.6351	1451.9198	1464.4926	1542.3786	1625.1015	1659.1114	2240.9814	3031.3948	3073.2681	3239.6701	3258.1929	3263.3436	3505.1747	3529.3077	3616.6728
NC1=CN(CC#C)C=C1	Nc1cn(CC#C)cc1	
InChI=1S/C7H8N2/c1-2-4-9-5-3-7(8)6-9/h1,3,5-6H,4,8H2	InChI=1S/C7H8N2/c1-2-4-9-5-3-7(8)6-9/h1,3,5-6H,4,8H2
