15
gdb 128278	2.87821	1.36943	0.93419	4.9954	71.45	-0.2382	-0.0471	0.1911	1186.5411	0.113836	-450.159596	-450.151227	-450.150283	-450.193086	29.124	
C	-0.0286875034	 1.4542163288	 0.0730709337	-0.321838
N	-0.0240776341	-0.0046364401	 0.088685138	-0.401694
C	-1.2134633243	-0.6625275021	 0.0469599374	 0.524212
N	-2.3988246277	-0.1041370103	 0.1360912352	-0.355579
C	-3.2454626279	-1.1859667606	 0.0909222828	 0.054463
N	-2.6912046559	-2.3631138463	-0.0266990567	-0.224676
N	-1.3431196033	-2.0427179038	-0.0477177229	-0.119515
C	-0.34374635	-3.0140359924	-0.0841014478	 0.18132
O	-0.5296746685	-4.1936506038	-0.1686009759	-0.25509
H	 0.9916804668	 1.804010822	 0.240698437	 0.131574
H	-0.4044689713	 1.8635431485	-0.8725262993	 0.138473
H	-0.6685363687	 1.8186760295	 0.877939972	 0.166787
H	 0.7559939155	-0.4454578154	-0.3705245509	 0.257274
H	-4.3191671767	-1.0748741206	 0.1409493551	 0.137995
H	 0.6604636194	-2.5554964435	-0.0149427277	 0.086297
88.9179	128.9964	152.8422	169.7668	204.0346	255.4427	350.5388	362.5922	453.8178	586.5381	659.0977	746.763	750.4299	848.1156	933.9565	964.44	1014.1875	1046.3762	1125.1993	1153.2906	1171.3358	1222.5398	1290.5328	1332.6514	1350.0262	1449.2132	1453.1837	1481.5461	1496.1325	1515.7562	1577.3522	1640.3941	1844.9482	2957.2446	3030.7222	3111.7038	3151.8374	3254.6132	3641.0615
CNC1=NC=NN1C=O	CNc1ncnn1C=O	
InChI=1S/C4H6N4O/c1-5-4-6-2-7-8(4)3-9/h2-3H,1H3,(H,5,6,7)	InChI=1S/C4H6N4O/c1-5-4-6-2-7-8(4)3-9/h2-3H,1H3,(H,5,6,7)
