20
gdb 102521	2.1076	1.21077	0.90634	4.9491	75.84	-0.2677	0.035	0.3027	1351.9786	0.168712	-440.288251	-440.277618	-440.276674	-440.324473	37.285	
C	 0.0518476545	 1.3391010538	 0.0587187929	-0.249201
O	 0.065443265	-0.0737697448	-0.0307134238	-0.260263
C	 0.7353935456	-0.5897193152	-1.1773491295	 0.083779
C	 2.2218357732	-0.7692675601	-0.8411542071	-0.087355
O	 2.3799702537	-1.573425688	 0.3108040873	-0.416456
C	 0.0450857938	-1.9348745889	-1.5180429659	-0.128936
C	-1.4784198431	-1.7977500247	-1.6916415689	-0.404578
C	 0.6500872288	-2.5037977224	-2.7252237452	 0.263563
N	 1.1181249544	-2.9338452127	-3.690812946	-0.331339
H	 1.0627819752	 1.7648484716	 0.1184367179	 0.119189
H	-0.465139061	 1.7875516098	-0.8013185981	 0.119802
H	-0.4902013647	 1.594546194	 0.9719746846	 0.137194
H	 0.6198390607	 0.0984159009	-2.0280914767	 0.084816
H	 2.7427975961	-1.2683117528	-1.6632348487	 0.141478
H	 2.6853062711	 0.2211219547	-0.7085621031	 0.091118
H	 1.7914399677	-1.1970425527	 0.9773229233	 0.28793
H	 0.2622343407	-2.618151625	-0.6890033606	 0.14219
H	-1.717301792	-1.1267775417	-2.5223156972	 0.129555
H	-1.9305352481	-2.7701705076	-1.9001018768	 0.136109
H	-1.9103328517	-1.3912544782	-0.7767632485	 0.141405
51.3196	76.1651	113.4718	146.7504	170.5426	207.1988	216.5938	266.2326	299.1398	320.4185	383.918	427.6606	477.3838	551.7896	573.8788	671.801	834.6427	863.7745	902.9504	974.0742	1035.6329	1066.428	1096.8983	1112.6786	1130.1488	1154.5096	1183.7852	1219.99	1227.8976	1270.965	1333.9247	1336.9552	1373.8401	1392.0335	1410.1479	1427.7872	1480.8645	1487.7079	1495.1442	1500.4943	1506.6647	1511.8794	2355.5368	2979.0428	2992.8843	3004.5902	3049.5236	3052.235	3060.3091	3095.9652	3122.9428	3124.3125	3154.1435	3778.5307
COC(CO)C(C)C#N	CO[C@@H](CO)[C@@H](C)C#N	
InChI=1S/C6H11NO2/c1-5(3-7)6(4-8)9-2/h5-6,8H,4H2,1-2H3	InChI=1S/C6H11NO2/c1-5(3-7)6(4-8)9-2/h5-6,8H,4H2,1-2H3/t5-,6-/m0/s1
