16
gdb 31883	4.11047	0.95817	0.81617	6.2161	81.65	-0.2406	-0.0369	0.2037	1379.5907	0.126099	-396.99175	-396.983395	-396.98245	-397.025594	30.016	
C	-0.2762056929	 1.5324587539	 0.1784680349	-0.372906
C	 0.1204630408	 0.0582526804	-0.0201654131	-0.314379
C	 0.8624194375	-0.5277868005	 1.1368940279	 0.313886
C	 2.1675794971	-0.9542129228	 1.282233032	-0.169853
N	 2.4079596389	-1.4094440446	 2.546410752	-0.287187
C	 1.2618883316	-1.2682278457	 3.1861085041	 0.246247
N	 0.2958085523	-0.7356632389	 2.3690866922	-0.341469
C	 0.9953708539	-1.6038140101	 4.537721375	 0.234966
N	 0.7328459511	-1.8629042182	 5.6355281631	-0.338107
H	 0.60751453	 2.1550580244	 0.3438060555	 0.135271
H	-0.8034432126	 1.9095346167	-0.7024007295	 0.126782
H	-0.9383095954	 1.6583859387	 1.0414149074	 0.11561
H	-0.778100496	-0.5377321665	-0.2272361423	 0.119368
H	 0.7581550704	-0.0350248553	-0.9044442114	 0.129863
H	 2.9416665269	-0.9541604266	 0.5293987161	 0.120769
H	-0.657587334	-0.5441101248	 2.6327859863	 0.281138
46.6572	110.6931	143.3881	195.1632	216.3817	330.8352	390.3229	515.4534	551.1866	570.8071	581.9267	666.7304	710.0193	727.8168	785.804	859.9584	960.1173	1007.2946	1046.7522	1070.2906	1087.5561	1194.0565	1201.9931	1278.7852	1290.3715	1353.6168	1410.0663	1423.7736	1427.7167	1478.5897	1483.1388	1497.7538	1506.1094	1603.1943	2345.9866	3023.9594	3039.9265	3081.8724	3110.7606	3122.3066	3249.125	3652.8569
CCC1=CN=C(N1)C#N	CCc1cnc([nH]1)C#N	
InChI=1S/C6H7N3/c1-2-5-4-8-6(3-7)9-5/h4H,2H2,1H3,(H,8,9)	InChI=1S/C6H7N3/c1-2-5-4-8-6(3-7)9-5/h4H,2H2,1H3,(H,8,9)
