21
gdb 77668	2.24047	1.58621	1.32358	2.1961	77.97	-0.2259	0.0569	0.2828	1096.8278	0.18237	-424.225642	-424.216546	-424.215601	-424.258663	35.71	
C	-0.1282569328	 1.5895709441	 0.1152015454	-0.470534
C	 0.096239644	 0.1016739936	 0.0094378418	 0.22939
C	 0.6271668273	-0.4621176215	-1.3075287839	-0.263695
C	 1.2242363781	-1.8493233228	-0.9673206826	-0.229162
C	 1.682335606	-1.7412217848	 0.5041697762	-0.290851
C	 0.7231022699	-0.7368599861	 1.1107807059	 0.320271
O	 1.0640644524	-0.1143144834	 2.324526083	-0.484112
C	-0.7611682475	-0.8563590985	 0.8355605589	 0.021973
O	-1.6156058359	-0.3328760507	 1.8074128917	-0.446568
H	 0.8119579627	 2.1415758396	 0.0067155135	 0.112882
H	-0.8092945009	 1.9298606517	-0.6732069309	 0.115643
H	-0.5756634177	 1.8600468176	 1.0731418648	 0.12264
H	-0.1434783102	-0.5228569394	-2.0844482565	 0.097559
H	 1.4103181054	 0.2079321796	-1.685088299	 0.09874
H	 0.4588091996	-2.6256455588	-1.0639533181	 0.10963
H	 2.0412655629	-2.1290267292	-1.6369328947	 0.101413
H	 1.681670284	-2.7121777439	 1.0146965244	 0.090442
H	 2.6983545807	-1.3323632175	 0.5722736781	 0.106391
H	 1.227879949	-0.8080632367	 2.9744526993	 0.28886
H	-1.178003325	-1.7493961873	 0.3751078771	 0.086876
H	-1.0425515219	-0.0039237355	 2.5143681655	 0.28221
119.9896	173.9887	197.6751	212.7068	258.2125	273.0812	295.2569	321.4043	401.3504	482.7232	510.6334	529.2223	599.0151	636.7991	691.2666	710.0225	822.6079	886.5649	904.0974	924.2204	951.8859	1019.0926	1027.2001	1036.861	1084.1873	1121.617	1152.0056	1185.1873	1202.0806	1223.7657	1248.9994	1255.7266	1282.5384	1311.4636	1326.0231	1341.9429	1350.394	1405.5788	1417.1813	1463.4788	1486.3711	1489.4509	1493.6999	1501.2917	1515.9554	3019.5217	3021.8921	3031.4586	3047.618	3060.0186	3066.9771	3085.0945	3101.5062	3125.2037	3131.5986	3731.9695	3783.4101
CC12CCCC1(O)C2O	C[C@@]12CCC[C@]1(O)[C@H]2O	
InChI=1S/C7H12O2/c1-6-3-2-4-7(6,9)5(6)8/h5,8-9H,2-4H2,1H3	InChI=1S/C7H12O2/c1-6-3-2-4-7(6,9)5(6)8/h5,8-9H,2-4H2,1H3/t5-,6-,7-/m0/s1
