18
gdb 100519	2.3114	1.25464	1.0486	11.8349	71.52	-0.1963	-0.0227	0.1736	1222.9602	0.146466	-476.216401	-476.206679	-476.205735	-476.251305	34.201	
C	-0.6222919481	 0.9148335689	-0.6460944224	-0.367043
N	 0.5460866478	 0.2117767226	-0.0317627848	-0.241473
H	 1.0850587711	 0.8295657238	 0.5722659736	 0.290684
H	 0.2038646132	-0.6279859662	 0.5105067976	 0.301011
C	 1.4078595083	-0.5068911218	-1.046077868	-0.064381
C	 2.8123942647	-0.7172634991	-0.4935772209	-0.435192
C	 0.6507651821	-1.857564067	-1.2000126217	 0.278437
O	 0.1161123365	-2.2680085597	-0.172647098	-0.390398
C	 0.3761512711	-2.2993459479	-2.6478524174	 0.343877
O	 0.8256374038	-3.2835676	-3.1993409422	-0.423894
O	-0.4049184351	-1.3597282624	-2.9844270517	-0.44858
H	-0.2723743668	 1.8381128356	-1.1094725171	 0.163572
H	-1.0283731658	 0.2464527287	-1.4109555915	 0.238154
H	-1.3562969039	 1.1345371513	 0.1296869909	 0.158633
H	 1.3957448843	 0.0565048292	-1.9763755474	 0.145396
H	 2.7831396038	-1.2862911027	 0.4414056525	 0.146898
H	 3.3940031072	-1.2951565188	-1.2160120555	 0.179794
H	 3.3317620359	 0.2324576556	-0.3249525458	 0.124505
67.5558	86.0436	150.4193	196.0337	205.8446	237.1464	242.9017	264.0936	306.1057	390.998	400.2758	451.7701	693.537	712.8042	745.251	803.4617	834.2284	893.6215	999.7607	1018.3918	1038.3478	1076.3436	1086.803	1175.2091	1211.9262	1281.6003	1308.7662	1356.6553	1377.7776	1412.8194	1423.0845	1473.2722	1490.2511	1497.805	1499.8792	1514.7374	1595.5903	1696.7403	1835.1423	2938.9796	3034.9434	3052.0004	3105.3878	3130.4049	3150.2468	3157.1651	3168.0967	3500.7913
C[NH2+]C(C)C(=O)C([O-])=O	C[NH2][C@@H](C)C(=O)C(=O)[O]	
InChI=1S/C5H9NO3/c1-3(6-2)4(7)5(8)9/h3,6H,1-2H3,(H,8,9)	InChI=1S/C5H9NO3/c1-3(6-2)4(7)5(8)9/h3H,6H2,1-2H3/t3-/m0/s1
