16
gdb 87543	2.68105	1.54254	1.14608	3.8823	70.36	-0.239	-0.0336	0.2054	1074.2068	0.12262	-437.824587	-437.816503	-437.815559	-437.857344	30.113	
C	 0.0021468379	 1.5722429333	-0.0451790919	-0.415311
C	-0.0890024817	 0.0779715802	 0.1049149278	-0.015749
O	 1.1191639245	-0.6809047031	-0.1142953497	-0.297135
C	 0.5766829965	-0.6449239787	 1.1878438596	 0.358397
C	 1.3293385826	-0.1741540194	 2.4298132668	-0.182679
N	 0.2862562975	-0.0756352337	 3.4647960583	-0.336716
C	 0.9249395063	-1.4073735304	 3.1948114709	-0.194973
C	 0.2268469182	-1.94468435	 1.9520945246	 0.38984
O	-0.217869575	-3.0029956732	 1.6257498226	-0.30282
H	 0.9068048803	 1.9601956624	 0.4297658461	 0.124278
H	 0.0211407982	 1.8513006595	-1.1035169062	 0.134895
H	-0.8678995262	 2.0498956095	 0.4166481902	 0.135753
H	-0.9712997618	-0.3953651676	-0.3273078808	 0.111074
H	 2.2679954442	 0.360548296	 2.4732188546	 0.124457
H	 0.7243354417	 0.2736041577	 4.3182098171	 0.245114
H	 1.4408538368	-1.9511534323	 3.9748859898	 0.121576
102.1177	138.233	177.1471	186.5739	254.4106	284.5339	431.0088	441.3297	559.0923	627.0901	659.3694	760.1693	795.66	832.1318	848.1178	887.6189	905.8384	956.3587	974.3625	1022.3455	1048.8567	1073.9049	1096.248	1118.5206	1131.66	1183.9184	1260.668	1293.1541	1331.3403	1364.163	1410.8259	1473.8056	1488.0727	1522.281	1902.3009	3041.2539	3106.6486	3108.7818	3129.4476	3210.1151	3222.8826	3461.7463
CC1OC11C2NC2C1=O	C[C@H]1O[C@]21[C@H]1N[C@H]1C2=O	
InChI=1S/C6H7NO2/c1-2-6(9-2)4-3(7-4)5(6)8/h2-4,7H,1H3	InChI=1S/C6H7NO2/c1-2-6(9-2)4-3(7-4)5(6)8/h2-4,7H,1H3/t2-,3-,4+,6-/m1/s1
