14
gdb 132982	3.38617	1.38673	0.98987	6.0029	67.39	-0.2442	-0.052	0.1922	1092.2961	0.101572	-478.044344	-478.036843	-478.035899	-478.076684	27.529	
C	-0.03131975	 1.4511750453	 0.00067436	-0.33362
N	-0.044968378	-0.0085112006	 0.0068752125	-0.122226
C	-1.1826711771	-0.7164095052	-0.1524584865	 0.078096
C	-1.1743004355	-2.0790820072	-0.1436491046	-0.341089
C	 0.1035942873	-2.6584410163	 0.0429994178	 0.361151
F	 0.1550475327	-3.9834679843	 0.0577940281	-0.059355
N	 1.216480818	-2.0306005062	 0.1992184986	-0.388947
C	 1.2239067039	-0.6518855538	 0.1925640833	 0.455437
O	 2.2080083583	 0.0398799162	 0.3299193694	-0.384212
H	 0.6182335336	 1.8128015239	-0.7992364765	 0.164706
H	-1.0479659524	 1.818543592	-0.1467417897	 0.128413
H	 0.3686250255	 1.8225042025	 0.9465587123	 0.16474
H	-2.0917636005	-0.1411658685	-0.2861459648	 0.146834
H	-2.0674654759	-2.6713329378	-0.2685295898	 0.130072
100.2962	120.1503	194.0219	285.5484	332.0634	384.704	435.0831	476.4527	560.2237	619.4802	724.5914	760.2433	777.6804	787.25	801.1809	966.5331	980.3899	1057.8579	1142.2087	1155.7717	1196.0538	1216.5836	1312.1947	1376.8179	1451.5429	1465.5573	1498.4619	1526.8852	1579.0729	1695.9932	1804.1598	3059.7515	3132.8512	3151.5843	3200.6248	3255.1118
CN1C=CC(F)=NC1=O	Cn1ccc(F)nc1=O	
InChI=1S/C5H5FN2O/c1-8-3-2-4(6)7-5(8)9/h2-3H,1H3	InChI=1S/C5H5FN2O/c1-8-3-2-4(6)7-5(8)9/h2-3H,1H3
