18
gdb 105120	2.3674	1.21002	0.9593	3.7627	84.44	-0.2636	0.0064	0.2701	1281.9644	0.145619	-364.78908	-364.779504	-364.77856	-364.823519	35.145	
C	-0.3119130059	 1.5304874761	 0.1075036424	-0.390623
C	 0.1988497699	 0.0982325726	-0.0767700637	-0.255533
C	 0.8026729642	-0.4860338292	 1.1953078096	 0.156579
C	-0.1039780385	-1.0930562868	 2.2465039473	-0.306805
C	 0.7857702541	-2.0113931781	 1.4387195299	-0.261225
C	 0.2417600599	-2.8936313762	 0.4498733942	 0.320097
C	-0.2043321907	-3.6490611865	-0.372811889	-0.422555
C	 1.9855218814	 0.1883481829	 1.6726369965	 0.255668
N	 2.9350777212	 0.7360094842	 2.0434478552	-0.350647
H	 0.4958780352	 2.2037227147	 0.4103070717	 0.142519
H	-0.7335412316	 1.909702252	-0.8276076684	 0.121751
H	-1.0928299673	 1.5774617141	 0.8735336547	 0.120216
H	-0.6140485347	-0.5603903669	-0.396017824	 0.120082
H	 0.9529368052	 0.0667932196	-0.871150056	 0.122266
H	 0.1426493215	-0.9472663947	 3.2910390884	 0.143868
H	-1.1628453938	-1.0990973162	 2.015387612	 0.138911
H	 1.6592406583	-2.392523406	 1.9584697443	 0.141147
H	-0.5966624583	-4.3172228256	-1.099167055	 0.204283
81.6336	106.9648	121.7777	155.1367	215.653	253.559	257.3696	338.3626	381.2156	494.2912	522.9324	576.2172	604.4623	628.7856	661.8662	662.7323	785.1814	806.826	874.019	915.6857	965.8078	1014.751	1021.7495	1082.4938	1096.5312	1118.3217	1137.8844	1241.9531	1279.7325	1321.9116	1364.8194	1398.2106	1415.5842	1474.1753	1488.3028	1498.7623	1507.7581	2238.5153	2347.1555	3039.5872	3047.8217	3089.2251	3112.4045	3117.7339	3147.5765	3160.1771	3243.1934	3502.4653
CCC1(CC1C#C)C#N	CC[C@]1(C[C@H]1C#C)C#N	
InChI=1S/C8H9N/c1-3-7-5-8(7,4-2)6-9/h1,7H,4-5H2,2H3	InChI=1S/C8H9N/c1-3-7-5-8(7,4-2)6-9/h1,7H,4-5H2,2H3/t7-,8+/m1/s1
