18
gdb 91751	2.52549	1.87802	1.6214	1.7529	69.8	-0.2541	0.0138	0.268	911.8448	0.151248	-439.106296	-439.099315	-439.098371	-439.137499	28.488	
O	 0.1963887297	 1.3518067442	-0.2746424288	-0.442926
C	 0.055760471	-0.026785057	-0.0271427058	 0.149964
C	 0.6897493483	-0.5440750737	 1.3118405078	-0.25076
C	-0.4568915611	-1.2883374027	 2.0319255563	 0.011105
C	-1.3239125099	-1.7915039776	 0.860335471	-0.25855
C	-1.4153611009	-0.4929516065	 0.0652310035	 0.070955
O	-2.1680408852	 0.4943711042	 0.8254162001	-0.261545
C	-2.0169792308	 0.4189644672	 2.1795102933	 0.104988
N	-1.2542274145	-0.3442661656	 2.8360969972	-0.250543
H	-0.5018916212	 1.7990370951	 0.2188064922	 0.288117
H	 0.5255648062	-0.5317516131	-0.8782418969	 0.091796
H	 1.5276555197	-1.2188074869	 1.1109913312	 0.100472
H	 1.067605748	 0.2914918592	 1.9046524828	 0.119268
H	-0.1020067489	-2.0804756785	 2.693148421	 0.077855
H	-0.8107725487	-2.5566437654	 0.2687884316	 0.109307
H	-2.2947233111	-2.1807010089	 1.1760355481	 0.117381
H	-1.9222302459	-0.550622142	-0.8981644534	 0.092518
H	-2.6685049747	 1.140162638	 2.6687410688	 0.130597
99.3737	247.8344	319.0155	364.6805	405.5375	416.6972	447.4021	500.1038	627.98	683.4996	739.9381	807.5485	816.7354	848.7383	896.9898	934.8103	948.8677	957.895	974.0387	1027.5333	1036.0848	1087.6766	1105.7594	1149.8795	1160.7073	1208.0488	1236.4235	1248.9508	1288.9957	1315.888	1333.2435	1345.7239	1355.3253	1369.6817	1397.8066	1441.0501	1478.8586	1491.6363	1720.2667	3044.7794	3055.516	3060.4758	3093.8222	3112.9396	3117.9844	3118.5948	3165.0299	3783.8069
OC1CC2CC1OC=N2	O[C@H]1C[C@@H]2C[C@H]1OC=N2	
InChI=1S/C6H9NO2/c8-5-1-4-2-6(5)9-3-7-4/h3-6,8H,1-2H2	InChI=1S/C6H9NO2/c8-5-1-4-2-6(5)9-3-7-4/h3-6,8H,1-2H2/t4-,5+,6-/m1/s1
