20
gdb 39975	3.54852	1.54721	1.40152	1.4267	81.41	-0.2336	0.0901	0.3237	999.1975	0.17373	-365.960968	-365.95408	-365.953136	-365.991955	29.123	
C	 0.0045207957	 1.5251507053	 0.0058428307	-0.332426
C	 1.3102442677	 0.758194135	-0.0229263633	-0.332989
C	-0.0038617059	 0.0234058276	-0.0094737809	 0.417679
C	-0.4462474022	-0.8227672703	 1.1931284899	-0.251881
N	-0.6455441152	-2.1962127389	 0.6773484121	-0.098293
C	-1.6841819379	-2.3653638671	-0.3545055664	-0.038056
C	-2.0053437158	-1.0619979439	-1.0989612616	-0.258044
C	-0.465136209	-0.7970901252	-1.1967149719	-0.140462
C	-0.2384523096	-2.2640566087	-0.7203820647	-0.059252
H	-0.2677113865	 2.0313034661	 0.9267803021	 0.111139
H	-0.2967039244	 2.0525437093	-0.8937038635	 0.110337
H	 1.8880399884	 0.7688320477	-0.9417427961	 0.109808
H	 1.9118044145	 0.7445724779	 0.8806501614	 0.111178
H	 0.3129313726	-0.8523831469	 1.9814422303	 0.106142
H	-1.3769130887	-0.4580521569	 1.6415216096	 0.105183
H	-2.3274374063	-3.2339732177	-0.266004602	 0.08802
H	-2.4417951676	-1.2758002562	-2.0780774809	 0.103224
H	-2.6148019265	-0.3057138976	-0.5927517988	 0.094661
H	-0.0816443433	-0.4791153743	-2.1659065159	 0.065936
H	 0.4853549501	-2.9953546851	-1.0590619903	 0.088096
115.8789	241.4637	280.8236	342.0479	404.2384	460.7489	525.8212	706.5888	737.2453	757.7561	779.9522	812.5624	836.723	882.5592	886.0852	906.3081	945.3901	948.7262	960.1576	982.3886	985.8572	1025.8784	1037.4906	1052.8934	1064.8432	1077.7967	1106.3389	1130.0249	1174.6672	1187.4077	1202.068	1229.334	1236.9919	1254.1381	1274.6273	1295.9253	1308.4364	1352.8715	1401.3284	1464.9897	1488.1083	1503.1212	1509.3268	3035.9995	3043.2638	3076.1585	3099.1886	3117.4772	3119.9543	3124.2531	3167.4755	3187.0303	3197.4804	3212.4889
C1CC11CN2C3CC1C23	C1CC21CN1[C@H]3C[C@@H]2[C@@H]13	
InChI=1S/C8H11N/c1-2-8(1)4-9-6-3-5(8)7(6)9/h5-7H,1-4H2	InChI=1S/C8H11N/c1-2-8(1)4-9-6-3-5(8)7(6)9/h5-7H,1-4H2/t5-,6+,7-,9?/m1/s1
