23
gdb 73811	2.34364	1.56397	1.09707	0.1842	92.8	-0.2073	0.0348	0.2422	1226.3513	0.204995	-351.177301	-351.167706	-351.166762	-351.210878	37.191	
C	 0.1253815461	 1.5107395982	-0.0913505603	-0.492911
C	 0.0194319215	 0.0193212604	-0.0102737979	 0.206893
C	-1.085091493	-0.7396485758	 0.0803194021	 0.162245
C	-2.5136501134	-0.2911130517	 0.1440048324	-0.508097
C	-0.7495858349	-2.2092450893	 0.0634117445	 0.290414
C	-1.537234049	-3.1774533287	 0.9156987945	-0.488115
C	-0.1260944972	-2.6694840497	-1.2426910369	-0.320938
C	 0.7592021119	-2.2618789339	-0.0891307323	-0.085741
C	 1.2786687329	-0.8307759412	-0.052346338	-0.315813
H	 0.7633306071	 1.9036007264	 0.7117050659	 0.120272
H	 0.5907305113	 1.825296426	-1.034909688	 0.121577
H	-0.845136964	 2.007458667	-0.0185753774	 0.119791
H	-2.6092018763	 0.7970472962	 0.1382751737	 0.120344
H	-3.0881002987	-0.6839607274	-0.7052712975	 0.124516
H	-3.0082580136	-0.6628182163	 1.0500530541	 0.124827
H	-2.583288651	-3.2437721157	 0.594239971	 0.115297
H	-1.1124938701	-4.1842939248	 0.8529413081	 0.112716
H	-1.5321426291	-2.8794442451	 1.9708112502	 0.114578
H	-0.1694965963	-3.730155155	-1.4731057507	 0.100337
H	-0.1990633168	-2.0162564348	-2.1069692454	 0.102873
H	 1.3317188901	-3.0409140263	 0.4021507356	 0.077262
H	 1.9059753069	-0.5858642724	-0.9210405492	 0.099998
H	 1.9055022254	-0.6505277161	 0.8333644515	 0.097675
129.741	146.3072	173.0631	173.7065	221.6395	261.4978	264.8424	298.6644	383.0861	409.0006	416.5416	542.2997	579.5676	631.7219	659.075	792.5405	822.9029	859.3813	888.4269	925.9799	969.5084	978.3139	997.8918	1048.6288	1055.2425	1065.7426	1093.3042	1103.9262	1111.7554	1127.02	1155.2226	1197.4091	1223.0906	1273.659	1335.1447	1341.4638	1389.8061	1408.6737	1416.8814	1422.4566	1476.0075	1477.7003	1481.0631	1483.1134	1487.6091	1491.7476	1495.4547	1504.1388	1727.2192	2996.2032	3011.6544	3016.6595	3021.4832	3022.343	3051.4447	3059.7615	3078.6571	3096.539	3111.2517	3112.4955	3118.9057	3165.633	3200.2519
CC1=C(C)C2(C)CC2C1	CC1=C(C)[C@@]2(C)C[C@H]2C1	
InChI=1S/C9H14/c1-6-4-8-5-9(8,3)7(6)2/h8H,4-5H2,1-3H3	InChI=1S/C9H14/c1-6-4-8-5-9(8,3)7(6)2/h8H,4-5H2,1-3H3/t8-,9-/m1/s1
