23
gdb 111002	2.43921	1.38905	1.09432	1.8396	85.21	-0.2313	0.0783	0.3097	1242.8986	0.206249	-388.278027	-388.269082	-388.268138	-388.311399	35.201	
C	-0.0298162336	 1.604699311	 0.0511526263	-0.379627
C	-0.0065552111	 0.0787809964	 0.2085026411	-0.227069
C	-1.3912870578	-0.544807909	 0.06496081	 0.011609
C	-2.0273341902	-0.691762265	-1.3468143017	 0.093705
C	-1.1890124767	-1.9740578294	-1.5429191591	-0.286656
C	-1.4993239182	-2.1182522677	-0.0130397715	 0.271329
C	-0.7569292218	-3.0559563863	 0.9081700663	-0.508101
C	-3.0293956104	-2.242624179	-0.0937363643	-0.111803
O	-3.3386727516	-1.2036797308	-1.0502925321	-0.283482
H	 0.9670052015	 2.0324211368	 0.196352264	 0.111726
H	-0.3767453216	 1.898417642	-0.9451534297	 0.118445
H	-0.7015585989	 2.0669217479	 0.782630773	 0.117508
H	 0.7011274061	-0.3470447092	-0.511057952	 0.096629
H	 0.3879868023	-0.1736882766	 1.2017632044	 0.098192
H	-2.0726294795	-0.0807974517	 0.7890050758	 0.064459
H	-2.1051517112	 0.11212679	-2.0775953647	 0.074228
H	-1.5956511996	-2.7277846616	-2.2223943691	 0.095547
H	-0.1348808237	-1.7991398717	-1.7560922465	 0.10063
H	 0.3194328653	-2.8569120039	 0.8998527192	 0.120057
H	-1.1061319776	-2.9558064206	 1.9426841164	 0.117307
H	-0.903520921	-4.1003510321	 0.6093025713	 0.118727
H	-3.3652893148	-3.2171816372	-0.4707884461	 0.093243
H	-3.529902416	-2.0404158123	 0.861697569	 0.093395
76.3271	142.4347	203.5754	217.4375	254.6189	261.1541	326.9733	361.1881	434.0958	488.3512	519.7609	606.5659	664.6781	759.5435	815.3681	855.2925	874.6042	911.7889	928.0382	958.2206	962.3506	982.152	1000.5908	1032.1205	1053.5402	1073.4644	1107.2403	1129.3568	1148.9811	1183.49	1210.1302	1216.7312	1246.345	1254.0125	1262.4655	1292.7055	1302.5993	1346.8404	1373.7273	1404.5649	1413.2747	1416.2429	1480.6579	1493.0798	1495.674	1496.4796	1500.4841	1509.3723	1529.7779	3008.9582	3019.0017	3023.8257	3027.4822	3033.3555	3048.3675	3061.4164	3071.5325	3084.9363	3097.2618	3101.6293	3104.2641	3130.3552	3141.823
CCC1C2CC1(C)CO2	CC[C@H]1[C@H]2C[C@]1(C)CO2	
InChI=1S/C8H14O/c1-3-6-7-4-8(6,2)5-9-7/h6-7H,3-5H2,1-2H3	InChI=1S/C8H14O/c1-3-6-7-4-8(6,2)5-9-7/h6-7H,3-5H2,1-2H3/t6-,7+,8+/m0/s1
