16
gdb 11733	4.58692	1.47635	1.28561	4.4198	65.3	-0.2722	0.0044	0.2766	971.606	0.129858	-383.747628	-383.740146	-383.739202	-383.77957	27.823	
C	-0.0109223414	 1.5117099834	 0.1143858202	-0.37971
C	-0.0324247238	-0.0060676367	-0.1150127726	-0.289885
C	-1.4041487413	-0.582488629	 0.0165911271	 0.484796
C	-2.1456334905	-1.0273249354	 1.2225216779	-0.327699
C	-1.9532087401	-1.991996771	 0.0359413904	-0.342912
C	-2.8341870083	-1.508971978	-1.0815715134	 0.465402
O	-3.6102011256	-1.9573415935	-1.8602498839	-0.325802
O	-2.392930635	-0.1925080654	-0.9953561565	-0.299192
H	 1.0014901498	 1.9056845138	-0.0098188455	 0.119402
H	-0.6649142893	 2.018637665	-0.6004510452	 0.14359
H	-0.3532014214	 1.7632634951	 1.1229790491	 0.12228
H	 0.3534744976	-0.2403833764	-1.1137670199	 0.120897
H	 0.6206751005	-0.5095177913	 0.6071270189	 0.111525
H	-1.5456521474	-1.2833851148	 2.0911568576	 0.130653
H	-3.129131981	-0.6237675808	 1.4401321933	 0.138233
H	-1.4771704029	-2.9573715551	 0.1260400524	 0.128423
86.8563	128.2369	189.6789	234.7892	347.7452	385.4579	457.1159	486.4414	642.8942	692.1357	763.4512	787.8149	835.1528	889.8239	928.5595	960.2047	982.6203	1000.7735	1015.1831	1044.0886	1081.0166	1098.4244	1134.1293	1209.8775	1236.6717	1308.0746	1354.1877	1409.6314	1422.4681	1472.8072	1493.5403	1499.6572	1511.9347	1943.4528	3036.9916	3044.6272	3075.4196	3116.2497	3123.4778	3124.5423	3215.3016	3229.3614
CCC12CC1C(=O)O2	CC[C@]12C[C@H]1C(=O)O2	
InChI=1S/C6H8O2/c1-2-6-3-4(6)5(7)8-6/h4H,2-3H2,1H3	InChI=1S/C6H8O2/c1-2-6-3-4(6)5(7)8-6/h4H,2-3H2,1H3/t4-,6-/m0/s1
