14
gdb 51770	2.53332	1.19761	0.88272	5.6608	63.78	-0.2991	-0.0207	0.2785	1241.7968	0.099466	-473.81796	-473.80952	-473.808576	-473.852665	28.489	
O	-0.1676388352	 0.0453049606	-0.2774877031	-0.248267
C	-0.0896149926	 1.2300781309	-0.2295894122	 0.175336
O	 1.056123668	 1.8708418717	 0.1265793079	-0.180267
C	 1.0576067028	 3.2749969804	 0.1530136612	 0.073961
C	 1.8858294022	 3.902367528	 1.2854825861	-0.103516
O	 2.6401245658	 4.6932356979	 0.3341834487	-0.263511
C	 2.0662039907	 4.0046993367	-0.7896465014	-0.072516
C	 3.0178486362	 3.1423984287	-1.4940927804	 0.3056
N	 3.7652835197	 2.4745869726	-2.0680183168	-0.303442
H	-0.915600154	 1.9326083571	-0.4528687601	 0.089699
H	 0.0428646427	 3.6725712947	 0.0574331562	 0.116556
H	 1.3538038314	 4.5282321738	 2.0070664444	 0.128902
H	 2.5141422477	 3.1715316997	 1.8057833635	 0.143524
H	 1.6194222745	 4.702542217	-1.5067883839	 0.137942
44.8663	67.9233	125.4196	155.6355	217.9042	277.3968	351.8369	402.04	517.0516	572.4197	659.5839	816.9749	840.7522	920.143	984.5438	1023.9574	1037.0234	1048.9561	1084.6225	1139.6177	1167.3776	1172.3782	1240.8123	1263.6297	1340.3744	1353.4676	1393.5985	1445.3815	1516.0507	1887.3668	2362.2388	2954.6222	3045.6953	3050.9087	3069.8191	3108.2428
O=COC1COC1C#N	O=CO[C@H]1CO[C@H]1C#N	
InChI=1S/C5H5NO3/c6-1-4-5(2-8-4)9-3-7/h3-5H,2H2	InChI=1S/C5H5NO3/c6-1-4-5(2-8-4)9-3-7/h3-5H,2H2/t4-,5-/m0/s1
