16
gdb 126819	2.06809	1.78168	1.0206	3.225	80.06	-0.248	-0.0322	0.2157	1146.3958	0.125065	-396.928736	-396.920374	-396.91943	-396.962356	30.332	
C	-0.1790637853	 1.5819503054	-0.0994329836	-0.378624
C	 0.1310297394	 0.0896812985	 0.0119735543	-0.151675
N	 0.799069385	-0.4243360171	-1.1756320812	-0.026056
N	 0.1353062486	-0.5470014036	-2.3421910787	-0.232327
C	 1.0702917809	-1.009721395	-3.1624891448	 0.005471
N	 2.289626926	-1.1920368614	-2.605831934	-0.320792
C	 2.0930827499	-0.8121803588	-1.3447741105	 0.227115
C	 3.0501768289	-0.8003712972	-0.3040103212	 0.270932
C	 3.8513155301	-0.7834800084	 0.593544646	-0.413396
H	 0.7404034869	 2.1650628331	-0.2031686417	 0.133019
H	-0.8135765687	 1.7744341421	-0.9676071218	 0.150651
H	-0.7034823588	 1.9201423404	 0.7989170038	 0.125202
H	 0.7913109507	-0.1162071014	 0.8573602936	 0.138742
H	-0.7876234371	-0.4881173421	 0.1461112623	 0.138914
H	 0.8569200929	-1.2250380335	-4.1988629397	 0.127727
H	 4.5696013208	-0.7750108811	 1.3762580374	 0.205096
48.6602	133.4263	150.8146	178.052	225.1439	345.0501	377.8179	473.1932	556.375	601.0313	603.0233	685.2691	687.8198	710.9012	753.0466	800.289	906.5496	978.0796	992.5867	1070.2151	1105.1213	1176.4801	1224.134	1271.0466	1313.7201	1343.1437	1392.6167	1406.8876	1411.8568	1465.5626	1485.722	1489.5031	1507.1421	1526.1959	2240.4285	3048.8154	3069.5679	3115.763	3124.6954	3141.6277	3260.6279	3499.2662
CCN1N=CN=C1C#C	CCn1ncnc1C#C	
InChI=1S/C6H7N3/c1-3-6-7-5-8-9(6)4-2/h1,5H,4H2,2H3	InChI=1S/C6H7N3/c1-3-6-7-5-8-9(6)4-2/h1,5H,4H2,2H3
