17
gdb 9603	4.7896	1.19958	1.11558	4.6993	69.8	-0.2826	0.0284	0.311	1079.5771	0.140945	-363.864968	-363.85618	-363.855236	-363.898163	31.604	
C	-0.0900044506	 1.5990952228	 0.0486633869	-0.465769
C	-0.0392048302	 0.0857250975	 0.0103349328	 0.343847
C	-1.3075813875	-0.5805064266	-0.479746329	-0.139695
O	-1.505414539	-0.1965096115	-1.8317656425	-0.418166
C	 1.2595802552	-0.5934413246	-0.3060018677	-0.302786
C	 0.7038864615	-0.6715095706	 1.1111373754	-0.23548
C	 1.3468445117	 0.0412901939	 2.1777920452	 0.290821
N	 1.8601452841	 0.6169984634	 3.0406289621	-0.344163
H	 0.8519389748	 2.0261407688	 0.4006363509	 0.13567
H	-0.2971791465	 1.9828388738	-0.9534119984	 0.141919
H	-0.884848462	 1.9462769521	 0.7180601255	 0.123624
H	-1.2149330941	-1.6748119258	-0.387277618	 0.084781
H	-2.1525577173	-0.2651015411	 0.1523303494	 0.097532
H	-2.3852644337	-0.4764055693	-2.1004939892	 0.292569
H	 1.2454701449	-1.5112461259	-0.8828086448	 0.130029
H	 2.135337096	 0.0264588931	-0.4579820752	 0.137604
H	 0.2861981427	-1.6254730598	 1.4176806065	 0.127662
83.773	127.7616	148.4165	199.1189	235.0661	258.1446	321.0547	359.6155	367.4545	441.9113	553.6474	626.1846	716.0439	808.8774	869.8723	939.1062	957.3873	977.4103	1004.1291	1074.1592	1079.7455	1101.1471	1110.4449	1139.1501	1237.2005	1249.3036	1276.7755	1355.8662	1403.6573	1417.9805	1464.5273	1482.5911	1486.7824	1508.838	1518.2637	2351.1588	2963.1203	2998.2429	3041.1948	3109.2687	3132.224	3143.7395	3159.306	3234.5321	3833.561
CC1(CO)CC1C#N	C[C@@]1(CO)C[C@H]1C#N	
InChI=1S/C6H9NO/c1-6(4-8)2-5(6)3-7/h5,8H,2,4H2,1H3	InChI=1S/C6H9NO/c1-6(4-8)2-5(6)3-7/h5,8H,2,4H2,1H3/t5-,6-/m0/s1
