18
gdb 66872	3.14762	1.94826	1.69569	2.2125	80.79	-0.2022	-0.0306	0.1717	877.0228	0.148915	-364.703478	-364.696817	-364.695873	-364.734003	28.022	
C	-0.0990070676	 1.5140610492	 0.0474219655	-0.497487
C	 0.0137346467	 0.0197508559	-0.0119577312	 0.317565
C	-0.3075393044	-0.782804222	-1.2848588625	-0.116328
C	 0.6370818756	-1.9056452127	-1.3850298735	-0.105029
C	 0.7060295813	-2.4746205776	-0.1595415861	 0.006559
C	 1.8303691785	-1.9340445282	 0.7376930778	-0.279556
C	 0.7030326381	-0.8701504933	 1.0877273687	-0.098485
C	-0.4046256056	-1.8742049183	 0.7189217919	-0.004746
N	-1.1889242803	-0.8787251832	-0.0922062596	-0.181972
H	 0.8684614751	 1.9857104403	-0.1602543265	 0.12235
H	-0.8193887481	 1.8736735393	-0.6931018023	 0.131647
H	-0.4378204939	 1.8542125412	 1.0321884798	 0.125862
H	-0.7239560531	-0.2379543396	-2.1269818054	 0.09405
H	 1.4761483042	-1.8567093927	-2.0723010999	 0.10108
H	 2.0735303696	-2.5060382954	 1.6401461853	 0.107671
H	 2.7458717338	-1.6086457242	 0.2400065802	 0.108194
H	 0.7417345521	-0.3888514676	 2.0673113269	 0.089041
H	-0.961790122	-2.4868964112	 1.424468191	 0.079584
171.8322	220.8873	283.3524	345.9791	463.1011	530.2558	581.1419	652.2381	694.3938	716.0804	730.1163	783.1209	828.5555	854.809	870.7681	905.9343	916.2118	936.6888	976.7757	1022.5107	1033.1222	1054.9728	1070.9663	1072.9891	1100.4226	1131.3915	1183.69	1191.6957	1209.0949	1245.9513	1253.8168	1290.1118	1301.6716	1360.7544	1413.1284	1479.9773	1492.9973	1493.8651	1572.2622	3026.7875	3037.7409	3086.3262	3091.686	3109.8007	3115.2887	3130.8196	3155.7889	3174.315
CC12C3C=C4CC1C4N23	C[C@@]12[C@H]3[CH][C]4C[C@@H]1[C@H]4N23	
InChI=1S/C8H9N/c1-8-5-2-4-3-6(8)9(8)7(4)5/h3,5-7H,2H2,1H3	InChI=1S/C8H9N/c1-8-5-2-4-3-6(8)9(8)7(4)5/h3,5-7H,2H2,1H3/t5-,6-,7+,8+,9?/m1/s1
