19
gdb 39629	3.83011	1.24473	1.17469	1.8878	75.54	-0.2362	0.0773	0.3135	1119.4119	0.159625	-422.934793	-422.927072	-422.926128	-422.967843	29.518	
C	-0.0504585049	 1.0624541083	-0.3261927799	-0.056164
C	 1.4359518797	 1.3989329705	-0.0945875586	-0.300773
C	 1.4350498394	 0.1227927051	 0.7802690246	-0.015284
O	 0.0311710989	-0.1027715065	 0.5259585037	-0.287789
C	 2.283611134	-1.0114533409	 0.2998347613	 0.433589
C	 3.8188794147	-1.2226275411	 0.4103723483	-0.268642
C	 3.2185708864	-2.2920402511	-0.5318595346	 0.047968
C	 2.0721979314	-2.5396404294	 0.4738971542	-0.2549
O	 2.3992035113	-1.2359038772	-1.1706292024	-0.345935
H	-0.7711061648	 1.794305602	 0.0574183755	 0.100865
H	-0.3211594208	 0.7945106889	-1.3534963442	 0.114479
H	 2.0724217041	 1.3324958507	-0.9767067664	 0.13204
H	 1.6312373774	 2.3286492332	 0.4403940603	 0.109429
H	 1.626525448	 0.280106288	 1.8512074756	 0.0784
H	 4.4308409366	-0.4639266803	-0.0792238987	 0.106703
H	 4.2238910275	-1.5475757797	 1.3722855162	 0.095562
H	 3.7263716453	-2.9936797244	-1.1928911081	 0.09653
H	 2.318727528	-2.9844254801	 1.4411917346	 0.09359
H	 1.1460315876	-2.919482786	 0.0443805186	 0.120333
62.2569	75.3984	160.9767	206.9215	366.679	412.0456	520.8147	604.3774	650.2805	732.6648	797.3494	807.1709	826.8179	896.0121	911.453	938.3557	944.5602	962.4348	985.9419	992.3357	1031.212	1043.8054	1078.6271	1095.4484	1103.5721	1134.5612	1155.6582	1166.2868	1211.3048	1220.3985	1237.6153	1240.7984	1262.5767	1269.9205	1303.3116	1358.7083	1400.4848	1466.9775	1485.4498	1514.1417	1527.4091	3004.5782	3024.7271	3059.9729	3068.0836	3070.9408	3091.7549	3124.0518	3144.9885	3152.8474	3162.1728
C1CC(O1)C12CC(C1)O2	C1C[C@@H](O1)[C@@]12C[C@@H](C1)O2	
InChI=1S/C7H10O2/c1-2-8-6(1)7-3-5(4-7)9-7/h5-6H,1-4H2	InChI=1S/C7H10O2/c1-2-8-6(1)7-3-5(4-7)9-7/h5-6H,1-4H2/t5-,6-,7+/m1/s1
