17
gdb 112499	3.45044	1.00524	0.88039	2.8672	75.89	-0.2481	-0.0369	0.2112	1322.5221	0.133911	-421.793284	-421.784227	-421.783283	-421.827601	33.23	
O	 0.1490304213	 1.2962133395	 0.2613375426	-0.420027
C	 0.0477141935	-0.0501709982	-0.1503743648	-0.080657
C	-1.4039324851	-0.5307098722	-0.0889073249	-0.123186
C	-1.7527307853	-2.0464322763	-0.1981687811	-0.278534
C	-2.6539945302	-1.947358544	 1.0890324239	-0.292009
C	-2.5778851012	-2.9605182886	 2.113886535	 0.31547
C	-2.4808981128	-3.7959891711	 2.972707	-0.423245
C	-1.9769302768	-0.5678023516	 1.328864618	 0.396384
O	-1.7983427856	 0.1168211539	 2.2953138404	-0.30873
H	-0.2139437544	 1.3437173057	 1.1555431798	 0.29866
H	 0.4269942653	-0.1007489194	-1.1764073264	 0.115244
H	 0.6760587591	-0.7151524379	 0.4648343866	 0.092802
H	-2.0245965323	 0.0910184784	-0.7436675786	 0.116561
H	-2.2627536	-2.3696340871	-1.1049413727	 0.121918
H	-0.8840408639	-2.6838756644	-0.0214203157	 0.12981
H	-3.6960336097	-1.7633703298	 0.7963718568	 0.136977
H	-2.4024780119	-4.532511157	 3.733693251	 0.202563
48.8282	104.015	147.1534	176.4207	211.5952	272.0746	369.334	383.2054	473.9537	499.4306	569.0423	579.6178	625.222	644.1638	683.2827	775.6964	853.382	906.076	954.481	1005.1004	1046.0006	1058.9854	1078.3798	1095.8921	1125.9662	1177.8802	1209.777	1238.4793	1253.5037	1310.5975	1329.5607	1386.4688	1441.7549	1489.1036	1512.219	1871.5922	2238.1308	2970.1767	3029.4379	3056.2533	3072.7833	3085.7149	3149.5215	3503.1153	3766.737
OCC1CC(C#C)C1=O	OC[C@H]1C[C@@H](C#C)C1=O	
InChI=1S/C7H8O2/c1-2-5-3-6(4-8)7(5)9/h1,5-6,8H,3-4H2	InChI=1S/C7H8O2/c1-2-5-3-6(4-8)7(5)9/h1,5-6,8H,3-4H2/t5-,6-/m1/s1
