17
gdb 5685	4.55853	1.98202	1.42482	1.7476	74.85	-0.1876	0.0504	0.238	867.8053	0.146466	-326.773526	-326.767069	-326.766125	-326.803911	25.784	
C	 0.0342536749	 1.5137170107	-0.053629662	-0.188617
C	 1.5433860884	 1.918667099	 0.0329698604	-0.348629
C	 2.1167271735	 0.6864685201	 0.654722625	 0.297123
C	 1.2776215047	-0.3965187554	 0.659644529	 0.302297
C	-0.0412504169	-0.0473594237	 0.0272283523	-0.345072
C	 1.9919104874	-1.4953228757	 1.212534494	-0.32956
C	 3.2509598055	-1.0261486055	 1.5263271233	-0.075621
N	 3.3239081001	 0.3081220501	 1.1746766665	-0.369522
H	-0.4913270287	 1.9391560809	 0.8066499112	 0.107218
H	-0.4463396099	 1.9098350252	-0.9521121549	 0.094265
H	 1.9660942712	 2.1151584579	-0.9629978651	 0.103783
H	 1.6837783989	 2.8350103406	 0.6186001754	 0.099166
H	-0.9160092549	-0.3738643642	 0.6005964422	 0.099063
H	-0.143224596	-0.4919499707	-0.9724603628	 0.100209
H	 1.6438882235	-2.5045324096	 1.3737836662	 0.087593
H	 4.0941523551	-1.5212389031	 1.9815898778	 0.111132
H	 4.1261982932	 0.8967068434	 1.3134997515	 0.255172
134.7091	216.2346	242.9758	414.7365	451.539	568.919	628.7988	655.2228	695.1707	706.9208	719.5731	815.3356	837.0687	900.1645	909.3276	934.4696	995.7077	1054.9467	1060.8255	1085.737	1141.1536	1159.3036	1204.7222	1217.5406	1257.0646	1282.4195	1309.9586	1336.0102	1363.9638	1441.0184	1482.2809	1488.2933	1497.2012	1508.4536	1525.0114	1617.2215	2995.6082	3005.829	3037.356	3047.8876	3060.7739	3100.4622	3238.5101	3262.6246	3682.007
C1CC2=C(C1)C=CN2	C1Cc2c(C1)cc[nH]2	
InChI=1S/C7H9N/c1-2-6-4-5-8-7(6)3-1/h4-5,8H,1-3H2	InChI=1S/C7H9N/c1-2-6-4-5-8-7(6)3-1/h4-5,8H,1-3H2
