18
gdb 17920	3.22372	2.18653	2.08495	2.4928	65.75	-0.2472	0.0841	0.3314	779.6342	0.156524	-384.949535	-384.942932	-384.941988	-384.979973	26.345	
C	-0.1092272888	 1.5395421081	 0.0192999979	-0.432977
C	 0.0498448118	 0.0236088784	 0.0041720518	-0.002643
C	 1.067456791	-0.5946403218	-0.9908467491	-0.098818
C	 2.3917730219	-0.0679907199	-0.4040430308	-0.080379
O	 2.1457751151	-0.0641166137	 1.0188235685	-0.270439
C	 0.8384085257	-0.5982125816	 1.1673395218	 0.215749
O	 0.8400865855	-1.9849627291	 0.8745575339	-0.273421
C	 0.9644358401	-2.0687554521	-0.5637413854	-0.08148
H	 0.8326266692	 2.0460323526	 0.2420142909	 0.136005
H	-0.4788844337	 1.9054359155	-0.9443335458	 0.11549
H	-0.8333352571	 1.8402863382	 0.7836554104	 0.120131
H	-0.9267347152	-0.4613025796	-0.0911050666	 0.081117
H	 0.9191341026	-0.4046725572	-2.0539017322	 0.075754
H	 3.2401441612	-0.7243667062	-0.6306473888	 0.104624
H	 2.6381467497	 0.9469354962	-0.7370463506	 0.100391
H	 0.5118000561	-0.4497367481	 2.1953963912	 0.089432
H	 0.0812655651	-2.5688470382	-0.9819709791	 0.098128
H	 1.85508058	-2.6546341916	-0.8187913879	 0.103335
172.7865	218.1345	247.8997	278.0039	403.612	490.2379	560.1652	623.3798	760.6118	777.745	853.6673	907.5654	920.9485	924.3226	936.5864	968.6513	973.3149	1002.9669	1054.142	1092.3888	1097.7995	1113.7959	1139.5615	1178.5462	1194.7144	1249.524	1263.063	1285.2156	1315.3712	1319.3206	1368.9043	1381.1121	1407.4257	1414.6609	1494.7794	1503.5063	1522.3194	1537.5505	3013.8608	3024.1819	3039.1688	3056.6785	3062.3567	3063.6603	3097.2986	3120.7642	3127.8683	3145.8081
CC1C2COC1OC2	C[C@H]1[C@H]2CO[C@@H]1OC2	
InChI=1S/C6H10O2/c1-4-5-2-7-6(4)8-3-5/h4-6H,2-3H2,1H3	InChI=1S/C6H10O2/c1-4-5-2-7-6(4)8-3-5/h4-6H,2-3H2,1H3/t4-,5-,6+/m0/s1
