21
gdb 37821	2.83312	1.831	1.66538	0.3759	85.9	-0.2471	0.0869	0.334	947.2005	0.185297	-349.878359	-349.871442	-349.870498	-349.909384	29.484	
C	-0.105661996	 1.5881142398	 0.0821154411	-0.312971
C	 1.4048411062	 1.2941315392	 0.0206263795	-0.102385
C	 1.2651521664	-0.0153278756	 0.8935694518	-0.107553
C	 2.037198118	-0.8662152785	-0.1322057011	-0.31506
C	 1.1999968551	 0.1077504998	-0.9909980019	 0.327529
C	 0.6500093962	-0.069561259	-2.3997689697	-0.354838
C	-0.8106724183	-0.6251941234	-2.1754770463	-0.193965
C	-0.987427139	-0.9249480314	-0.6445936362	-0.351094
C	-0.0145736071	 0.0483865137	-0.0177977788	 0.319355
H	-0.4961845063	 2.0023669298	 1.0177121902	 0.086388
H	-0.534484799	 2.1197746174	-0.7745936505	 0.088493
H	 2.2462357037	 1.9900440378	 0.0592692631	 0.064465
H	 1.2968211239	-0.0522280134	 1.9846389097	 0.064912
H	 3.1250906777	-0.7424482602	-0.1596415069	 0.086471
H	 1.7768518288	-1.9290636165	-0.1865855274	 0.08788
H	 0.6219763768	 0.8657850361	-2.9667083897	 0.105413
H	 1.2631600212	-0.7686172763	-2.9762345846	 0.104213
H	-1.5380689687	 0.1330782445	-2.4825341151	 0.104327
H	-1.0127714393	-1.5118477172	-2.7835046188	 0.097069
H	-2.0262730769	-0.8083909925	-0.3223049589	 0.097563
H	-0.6908390634	-1.9568615441	-0.4243489193	 0.103789
94.3516	239.2835	285.8998	385.7932	414.9179	481.9221	544.9542	650.952	710.4635	732.0908	774.8045	796.3828	840.1462	861.2753	872.769	900.7457	911.0131	935.2327	948.0845	965.6582	987.3609	1018.9676	1029.9574	1063.1347	1108.1254	1122.7156	1129.0174	1152.8419	1177.5261	1193.5547	1205.8136	1216.627	1219.6879	1252.9714	1276.0324	1287.3883	1293.9707	1302.8322	1322.4256	1342.8435	1477.828	1481.101	1499.9855	1511.2263	1514.987	3028.4805	3029.8695	3039.7997	3044.8918	3055.2301	3077.3561	3077.8012	3082.7999	3083.1175	3087.7737	3090.7846	3102.6174
C1C2C3CC22CCCC132	C1[C@H]2[C@@H]3C[C@@]42CCC[C@@]134	
InChI=1S/C9H12/c1-2-8-4-7-6(8)5-9(7,8)3-1/h6-7H,1-5H2	InChI=1S/C9H12/c1-2-8-4-7-6(8)5-9(7,8)3-1/h6-7H,1-5H2/t6-,7-,8+,9+/m0/s1
