14
gdb 16139	4.27671	1.80598	1.47219	2.929	63.38	-0.2592	-0.0405	0.2187	837.8161	0.106761	-382.536006	-382.529414	-382.528469	-382.566803	24.898	
O	-0.1980844839	 0.0408349384	 0.2501700181	-0.253916
C	-0.0306561645	 1.2115328822	 0.0155596813	 0.082638
C	 1.3053798939	 1.8500972458	-0.0783488553	 0.294214
O	 1.3114687429	 3.2771903585	 0.20874175	-0.284077
C	 1.6351008369	 2.877487611	-1.1092242636	-0.020601
C	 3.1273681484	 2.7591912789	-1.4024649937	-0.294525
C	 3.5896310348	 1.6814319482	-0.4425742826	-0.077035
C	 2.5820040348	 1.1583440744	 0.2591483404	-0.135771
H	-0.8742002181	 1.9173331584	-0.1452052311	 0.086441
H	 0.9347832221	 3.1899699417	-1.8801853623	 0.108845
H	 3.3002346837	 2.4782565472	-2.4487581141	 0.123623
H	 3.6397384844	 3.7149402603	-1.2389730258	 0.135345
H	 4.6334593497	 1.4074934853	-0.341608277	 0.111627
H	 2.6381255946	 0.3641696596	 0.9906450458	 0.123192
112.4569	187.4099	252.4361	313.3623	435.1975	463.7828	534.5283	667.798	722.5426	772.1915	799.5967	838.6153	910.1227	934.1156	957.9514	973.4194	993.9769	1040.237	1066.1093	1133.3671	1184.9163	1259.7426	1281.6657	1309.4063	1357.382	1399.9975	1427.7382	1456.4813	1663.5529	1818.0556	2905.7409	3033.5696	3068.823	3145.7172	3200.5744	3239.9445
O=CC12OC1CC=C2	O=C[C@]12O[C@H]1CC=C2	
InChI=1S/C6H6O2/c7-4-6-3-1-2-5(6)8-6/h1,3-5H,2H2	InChI=1S/C6H6O2/c7-4-6-3-1-2-5(6)8-6/h1,3-5H,2H2/t5-,6-/m0/s1
