25
gdb 122953	3.09381	0.58886	0.51738	2.252	87.15	-0.2474	0.0784	0.3258	2205.4619	0.22572	-426.624231	-426.612185	-426.61124	-426.663085	41.92	
C	 0.050652702	 1.5429307762	-0.1185870363	-0.385236
C	 0.0781537025	 0.0160519183	-0.0246260495	-0.171993
C	 0.7275651577	-0.5030152288	 1.2602275211	 0.15886
C	 0.6424274133	-2.0282318981	 1.3703195176	-0.403317
O	 2.0782595505	-0.0519129466	 1.2487539228	-0.25883
C	 2.7244998388	-0.0335315864	 2.5031500724	-0.061722
C	 4.0945370305	 0.6071485144	 2.3224963466	-0.180656
C	 4.8887715115	 0.6703921933	 3.6201495626	-0.072297
O	 6.1377996603	 1.2808331164	 3.3335155486	-0.419574
H	 1.0631430294	 1.9481308963	-0.0518910076	 0.132113
H	-0.3907431279	 1.8726952178	-1.0639786989	 0.107757
H	-0.5411626236	 1.9790235548	 0.6945554422	 0.106341
H	-0.940611287	-0.3856674034	-0.0825444786	 0.09062
H	 0.6302949213	-0.4017089058	-0.8758688032	 0.102616
H	 0.2107420339	-0.0514500461	 2.1259308308	 0.057611
H	 1.1094039229	-2.3953453065	 2.2887592427	 0.113756
H	-0.4024140175	-2.3549445052	 1.3771850362	 0.112707
H	 1.1466530021	-2.4977628498	 0.5194825792	 0.121806
H	 2.1236276244	 0.538262146	 3.231893195	 0.081803
H	 2.8357703619	-1.0521730257	 2.9098989711	 0.084834
H	 4.6647433934	 0.0385937507	 1.5802248578	 0.115579
H	 3.9724046808	 1.620378732	 1.9253563972	 0.114214
H	 4.3287870328	 1.2466128988	 4.375501425	 0.083917
H	 5.0266250487	-0.3458755011	 4.0255545609	 0.084086
H	 6.6446486372	 1.3243878785	 4.1494011442	 0.285005
37.5174	50.2797	95.1115	111.7003	117.7862	133.5943	201.3572	221.7429	243.18	266.3131	274.2788	333.1161	389.8419	467.4893	498.7047	526.599	774.1698	778.6015	834.2523	889.7827	905.1512	975.6274	996.7155	1026.6741	1038.336	1056.6445	1088.9871	1121.1529	1134.6331	1166.2917	1177.7562	1198.7564	1229.6891	1245.4582	1300.6297	1302.4442	1305.2763	1319.1008	1330.9159	1373.5395	1395.6127	1403.9914	1407.4059	1441.7909	1466.7741	1474.8525	1491.4257	1496.6862	1497.4969	1500.0289	1511.5143	1523.5441	1534.9136	2940.5803	2948.58	2957.5058	2974.8405	2982.1689	3027.2469	3035.0286	3038.1833	3050.909	3064.9998	3097.0013	3098.6994	3108.2198	3112.2848	3126.763	3831.2418
CCC(C)OCCCO	CC[C@@H](C)OCCCO	
InChI=1S/C7H16O2/c1-3-7(2)9-6-4-5-8/h7-8H,3-6H2,1-2H3	InChI=1S/C7H16O2/c1-3-7(2)9-6-4-5-8/h7-8H,3-6H2,1-2H3/t7-/m1/s1
