19
gdb 81094	2.00349	1.60971	1.1817	4.274	77.46	-0.2484	-0.036	0.2124	1148.153	0.156472	-422.966091	-422.957028	-422.956084	-422.999858	33.62	
C	-0.1826312991	 1.5553629475	 0.8074050523	-0.432285
C	-0.1391150593	 0.0714592381	 0.4961401274	-0.02483
C	 1.0470534787	-0.4925233355	-0.3319656329	 0.014964
O	 1.9521550567	-0.2313733607	 0.8160748791	-0.325915
C	 0.7561068051	-0.8577590605	 1.3956184696	 0.300857
C	 0.6726474909	-1.088016205	 2.8644888855	 0.034419
O	 1.5241632418	-0.7824592275	 3.6579129359	-0.238854
C	 0.8093617714	-1.9190919694	 0.2361386061	-0.00279
C	-0.3469446306	-2.8196217044	-0.1629190139	-0.448641
H	 0.8090545471	 1.9194662085	 1.0811445811	 0.149599
H	-0.5354010974	 2.1174724086	-0.0641745494	 0.118455
H	-0.8732106415	 1.763302592	 1.6313812637	 0.120118
H	-1.123906994	-0.3273675716	 0.2438416588	 0.075798
H	 1.4047357491	-0.1916976986	-1.3177466571	 0.096314
H	-0.2768526671	-1.5811981914	 3.178538556	 0.076347
H	 1.7512152773	-2.4707010018	 0.2911964601	 0.099883
H	-1.3100959031	-2.3064407905	-0.2130588127	 0.125482
H	-0.1533147211	-3.2566138638	-1.1485339124	 0.130902
H	-0.4464725049	-3.6494289241	 0.5444861127	 0.130176
71.5271	151.1473	173.3208	198.5709	206.7297	239.4496	254.3538	358.0961	378.6477	476.6136	579.0373	626.0557	692.2643	756.1115	766.143	817.9275	829.5289	935.8245	969.8895	1010.5716	1022.929	1057.2441	1078.1623	1088.3342	1126.3478	1158.5247	1178.3396	1212.9593	1225.118	1235.6733	1284.4837	1375.3615	1395.6537	1407.3434	1422.1628	1425.6271	1491.6853	1493.5033	1501.4244	1503.9588	1825.2832	2858.9417	3038.3345	3040.1443	3085.2867	3086.7518	3095.247	3098.0791	3110.442	3125.8562	3142.4139
CC1C2OC1(C=O)C2C	C[C@H]1[C@H]2O[C@]1(C=O)[C@H]2C	
InChI=1S/C7H10O2/c1-4-6-5(2)7(4,3-8)9-6/h3-6H,1-2H3	InChI=1S/C7H10O2/c1-4-6-5(2)7(4,3-8)9-6/h3-6H,1-2H3/t4-,5-,6-,7+/m0/s1
