20
gdb 58360	2.23573	1.35894	1.10405	3.3601	75.24	-0.2423	-0.0333	0.2091	1203.5353	0.169492	-440.260115	-440.250373	-440.249429	-440.294949	35.547	
C	-0.1919000397	 1.4986688164	 0.2003746706	-0.416966
C	-0.1138294434	-0.011876216	-0.0307629905	 0.134083
O	-1.3974511881	-0.5943847996	-0.1797446224	-0.436925
C	 0.8116320808	-0.4140056232	-1.2266149166	-0.143718
C	 1.0798998584	-1.8993690359	-1.0866288924	 0.155651
O	 0.7466251681	-2.7686452009	-1.8526302548	-0.251523
C	 0.2342292842	 0.0588360448	-2.5489115154	-0.000982
C	 0.4358812683	-0.5844970651	-3.869002013	-0.259224
N	-0.8859566018	-0.6462298184	-3.2121163029	-0.338444
H	 0.7987727894	 1.9237519133	 0.3919106232	 0.116192
H	-0.6251830714	 2.0173110509	-0.6607386067	 0.126322
H	-0.8289821027	 1.6978749373	 1.0658922803	 0.133517
H	 0.2973550228	-0.4723140218	 0.876948286	 0.091677
H	-1.7888646389	-0.2520217103	-0.993445414	 0.30013
H	 1.7796761932	 0.0822139468	-1.0550687793	 0.099332
H	 1.6236647515	-2.1558964785	-0.1479672942	 0.090788
H	 0.1040081104	 1.1395740926	-2.5730278271	 0.097639
H	 0.4808752931	 0.0431312957	-4.7545628617	 0.115133
H	 1.0082027712	-1.5028893569	-3.9192812704	 0.135825
H	-0.9601426654	-1.5752408412	-2.8020764087	 0.251494
74.2709	84.1876	102.5811	195.7757	221.1775	236.6217	252.9761	335.447	355.9259	380.168	436.9151	483.7887	612.1167	712.6034	761.5636	825.5806	872.7836	889.0604	937.8511	962.1865	987.1743	1011.653	1021.2997	1084.7274	1105.235	1127.3571	1153.5335	1163.084	1217.3004	1227.0927	1286.5843	1308.2937	1328.1059	1346.4155	1388.1286	1402.8504	1414.9449	1427.8263	1452.6143	1489.0586	1500.4266	1504.2121	1822.1387	2864.1206	2995.6714	3024.7592	3038.9015	3106.8622	3115.3634	3123.0563	3125.6395	3224.9079	3500.3344	3775.2871
CC(O)C(C=O)C1CN1	C[C@@H](O)[C@@H](C=O)[C@H]1CN1	
InChI=1S/C6H11NO2/c1-4(9)5(3-8)6-2-7-6/h3-7,9H,2H2,1H3	InChI=1S/C6H11NO2/c1-4(9)5(3-8)6-2-7-6/h3-7,9H,2H2,1H3/t4-,5-,6-/m1/s1
