12
gdb 132138	3.05828	1.42795	0.97344	0.9791	64.48	-0.2122	-0.0684	0.1439	1063.5164	0.077348	-518.071091	-518.064081	-518.063137	-518.10277	26.464	
F	 0.1042962154	 0.0424691072	 0.0023839702	-0.025023
C	-0.0334612019	 1.3530803441	 0.0111741089	 0.236684
C	-1.2232667322	 2.0048341328	 0.030854299	 0.13496
F	-2.3743330466	 1.3374955437	 0.0429806259	-0.057228
N	-1.272177337	 3.3490406443	 0.0386550114	-0.253117
C	-0.1761221675	 4.0416417858	 0.0273254118	-0.083946
C	 1.1706563061	 3.4651214638	 0.0059177508	 0.34861
N	 2.3157453701	 4.0388559827	-0.0071834085	-0.555895
N	 1.1232407405	 2.0622491854	-0.0007237864	-0.383421
H	-0.2547792051	 5.1259339048	 0.0340642725	 0.132149
H	 2.2051908334	 5.050688674	-0.0006045828	 0.22208
H	 2.0062181148	 1.5693212113	-0.0155300328	 0.284148
107.0199	204.3637	285.5454	327.5525	346.4728	465.414	486.231	509.4614	579.6985	612.9527	647.9161	716.6879	738.1519	778.4659	817.1572	909.3882	957.4774	1104.5292	1217.6069	1286.7442	1300.3206	1363.6219	1419.5201	1502.4511	1579.7172	1686.9781	1717.8661	3163.328	3511.9446	3607.1753
FC1=C(F)N=CC(=N)N1	Fc1c(F)ncc([NH])[nH]1	
InChI=1S/C4H3F2N3/c5-3-4(6)9-2(7)1-8-3/h1H,(H2,7,9)	InChI=1S/C4H8F2N3/c5-3-4(6)9-2(7)1-8-3/h2-4,7-9H,1H2
