19
gdb 52495	7.14971	0.47099	0.45245	0.2108	104.58	-0.2251	0.0013	0.2264	2436.8031	0.157462	-348.704029	-348.693797	-348.692853	-348.741831	35.457	
C	-0.037801431	 1.4293569513	-0.1803606873	-0.517985
C	-0.0125781535	-0.0194783859	-0.088175368	 0.249688
C	 0.0090918738	-1.2272577136	-0.0109301319	-0.205796
C	 0.0339071235	-2.5845257025	 0.0768294955	-0.186889
C	 0.0585582407	-3.7927662492	 0.1542583299	 0.282179
C	 0.0678121713	-5.2467750465	 0.2563896853	-0.415602
C	-1.3211905561	-5.8659393628	 0.1663998806	 0.04487
C	-1.9283817466	-6.1695251087	-1.176333262	-0.246001
C	-1.4723853594	-7.2966485691	-0.2800133672	-0.278145
H	 0.975516884	 1.8399336813	-0.2575223742	 0.154257
H	-0.59860447	 1.7622150398	-1.061282186	 0.154068
H	-0.5102149178	 1.8757402193	 0.7021802811	 0.154054
H	 0.7007523843	-5.6649670514	-0.5386773089	 0.127641
H	 0.542277218	-5.5407474702	 1.2031751444	 0.133602
H	-2.0042165551	-5.5220051621	 0.9371016003	 0.09541
H	-2.9927118574	-6.011865924	-1.3089286926	 0.114553
H	-1.3357343199	-5.9530733011	-2.059242914	 0.115484
H	-0.5752369173	-7.8377624323	-0.5636927134	 0.110925
H	-2.2236992016	-7.9104452723	 0.2041752786	 0.113687
16.5103	45.6033	62.1898	109.7245	146.1882	252.6013	284.4752	320.1495	354.0579	383.1412	448.7547	546.8733	553.0339	632.7524	768.0016	798.3416	840.8947	890.8762	932.1704	980.3798	998.2338	1048.6751	1049.149	1058.8213	1079.5974	1134.7635	1145.1941	1195.9439	1226.1907	1260.1327	1279.0711	1327.422	1404.5587	1413.353	1461.0281	1472.345	1472.9203	1472.988	1507.7299	2278.2959	2387.2151	3003.2963	3022.2005	3032.8549	3083.3464	3083.4294	3129.9471	3135.282	3154.8825	3208.3914	3223.661
CC#CC#CCC1CC1	CC#CC#CCC1CC1	
InChI=1S/C9H10/c1-2-3-4-5-6-9-7-8-9/h9H,6-8H2,1H3	InChI=1S/C9H10/c1-2-3-4-5-6-9-7-8-9/h9H,6-8H2,1H3
