17
gdb 27783	2.01694	1.72687	0.94116	4.9189	81.15	-0.2261	-0.0459	0.1802	1226.5089	0.135209	-421.909278	-421.900736	-421.899791	-421.942457	31.634	
C	 0.0735352004	 1.4866122539	-0.0374490257	-0.468047
C	-0.0619556262	-0.0005873376	-0.0000567721	 0.407272
C	-1.2186658444	-0.6970933738	-0.0758771245	-0.321064
C	-1.185819942	-2.1307942101	-0.0259167645	 0.344219
C	-2.4772384571	-2.8951793164	-0.1115994048	-0.487169
C	 0.0157923016	-2.7547077494	 0.0972480137	-0.365343
C	 1.2595659516	-2.0255877564	 0.1794203146	 0.425382
O	 2.372306677	-2.4656246875	 0.2889260478	-0.348168
O	 1.1278325835	-0.6189395401	 0.1218005769	-0.261318
H	 0.7065906439	 1.7903612785	-0.8779554345	 0.152073
H	-0.9027877746	 1.9638907097	-0.1363315143	 0.133977
H	 0.5571114517	 1.848094656	 0.8763133885	 0.152071
H	-2.1576153219	-0.1675045312	-0.1734320749	 0.102101
H	-2.9974055963	-2.6698726993	-1.0497607001	 0.141539
H	-2.3123309669	-3.9731105972	-0.0576632198	 0.135673
H	-3.1520223544	-2.6056125468	 0.7021613225	 0.141358
H	 0.1033807941	-3.8333836421	 0.1403098012	 0.115443
127.0202	137.5525	159.2975	185.3814	209.1191	269.3531	321.6741	471.961	519.2151	526.4971	555.533	611.5511	638.265	750.3238	826.9927	834.8488	873.0452	967.5099	979.4732	1035.8336	1046.1354	1060.4278	1065.6963	1132.9252	1172.4473	1250.586	1354.9858	1407.6681	1416.1938	1430.2405	1469.2079	1478.9714	1481.7657	1490.877	1602.4454	1693.1773	1842.5467	3032.8146	3041.3279	3086.221	3098.1631	3131.1091	3141.6851	3209.4659	3212.4123
CC1=CC(C)=CC(=O)O1	Cc1cc(C)cc(=O)o1	
InChI=1S/C7H8O2/c1-5-3-6(2)9-7(8)4-5/h3-4H,1-2H3	InChI=1S/C7H8O2/c1-5-3-6(2)9-7(8)4-5/h3-4H,1-2H3
