20
gdb 22564	2.12825	1.51126	1.03841	1.0154	78.21	-0.2501	-0.002	0.248	1212.9538	0.168609	-440.235	-440.225059	-440.224115	-440.269469	37.044	
C	-0.2049005337	 1.4572063259	 0.1849774711	-0.383347
C	 0.0000392664	-0.0442854525	 0.0306805785	-0.059726
C	 0.8396357156	-0.4896706194	-1.2312482422	-0.068146
C	 0.9371000912	 0.3873724093	-2.4719489773	-0.406925
C	 2.024287906	-0.5856587475	-0.2933188663	 0.355721
N	 3.2601255293	-0.4159094844	-0.510762583	-0.253066
O	 3.9808701657	-0.4483652767	 0.7184754723	-0.410301
C	 1.1487003345	-0.6082931837	 0.9448508618	 0.0653
O	 1.5322284347	 0.1779881388	 2.0409330261	-0.437379
H	 0.7382113534	 2.0055326153	 0.1046762321	 0.123382
H	-0.8909357278	 1.8391140508	-0.5775289918	 0.10948
H	-0.6236225887	 1.6827425578	 1.169194526	 0.129303
H	-0.9515570808	-0.5705602943	 0.1378499871	 0.071805
H	 0.5296363727	-1.5011394791	-1.5235653504	 0.095304
H	 1.2455836371	 1.4054425002	-2.221724227	 0.125757
H	 1.6754797405	-0.0208779111	-3.1683347264	 0.130082
H	-0.0259402695	 0.4368183207	-2.9902595695	 0.116213
H	 4.8723636109	-0.2143938368	 0.440636119	 0.310664
H	 0.9263372577	-1.6433494916	 1.2498206792	 0.086034
H	 2.497135225	 0.1562035281	 2.0675781609	 0.299846
59.884	151.4831	182.8873	195.1816	222.6898	229.6471	249.3269	286.9061	350.8767	376.0156	396.2334	481.9584	501.185	529.5047	616.0806	736.894	772.7929	826.6547	854.951	932.4643	986.5957	991.167	1039.362	1070.9111	1091.4354	1143.4932	1172.2693	1182.0419	1191.5472	1257.1806	1276.7311	1338.7983	1360.9198	1379.3653	1384.7917	1396.7116	1409.4186	1418.6671	1485.6464	1488.0434	1498.7883	1500.8918	1777.4378	2970.2344	3022.0288	3040.4444	3043.7391	3072.8637	3108.1032	3112.1435	3118.0499	3123.0093	3776.032	3828.278
CC1C(C)C(=NO)C1O	C[C@H]1[C@@H](C)C(=NO)[C@H]1O	
InChI=1S/C6H11NO2/c1-3-4(2)6(8)5(3)7-9/h3-4,6,8-9H,1-2H3	InChI=1S/C6H11NO2/c1-3-4(2)6(8)5(3)7-9/h3-4,6,8-9H,1-2H3/t3-,4+,6+/m1/s1
