15
gdb 24100	7.30982	0.75896	0.69284	6.2318	73.04	-0.2034	0.0199	0.2233	1506.2065	0.114933	-413.025284	-413.017186	-413.016242	-413.058948	29.109	
N	 0.0907687888	-1.1716295937	-0.0443533586	-0.291874
C	 0.1038159561	-0.0178806511	-0.088095186	 0.256618
C	 0.1157763497	 1.4438097023	-0.1714816363	-0.271176
N	 1.4105166834	 1.9793460252	 0.2008081357	-0.392186
C	 1.5660904249	 3.3602176899	 0.0973760296	 0.345347
C	 0.611928172	 4.3523300061	 0.0921227384	-0.190551
N	 1.341152388	 5.5315310035	 0.0279105112	-0.238627
C	 2.6530005745	 5.1972878502	-0.0128742472	 0.019281
N	 2.8279281197	 3.8935797177	 0.0255203545	-0.321368
H	-0.2087326215	 1.7374107951	-1.1858200654	 0.141796
H	-0.6439635818	 1.8286231158	 0.5215778049	 0.160091
H	 2.1954267098	 1.4859319624	-0.2033705891	 0.255678
H	-0.4628016849	 4.3484547679	 0.1338296535	 0.123073
H	 0.9584406099	 6.4611390219	 0.0070642423	 0.268701
H	 3.4391602314	 5.934574177	-0.0722084375	 0.135196
51.9943	88.5389	110.3914	224.7339	322.6165	393.0253	425.1263	478.7037	506.7621	622.0093	633.6537	657.9381	735.5568	778.8641	816.6912	948.9098	956.7521	999.2734	1015.0074	1090.8111	1138.3731	1152.1002	1230.4546	1260.2065	1281.7779	1352.8362	1392.179	1463.7095	1492.3221	1497.7496	1544.0809	1627.1816	2372.6551	2947.4522	3033.8807	3257.0212	3287.912	3585.7118	3674.575
N#CCNC1=CNC=N1	N#CCNc1c[nH]cn1	
InChI=1S/C5H6N4/c6-1-2-8-5-3-7-4-9-5/h3-4,8H,2H2,(H,7,9)	InChI=1S/C5H6N4/c6-1-2-8-5-3-7-4-9-5/h3-4,8H,2H2,(H,7,9)
