21
gdb 93169	1.97261	1.75596	1.29412	1.4192	85.63	-0.2331	0.0138	0.2469	1108.7133	0.184451	-387.087486	-387.078945	-387.078001	-387.120308	33.729	
O	-0.2811106814	 1.4786652165	 0.1968658439	-0.418
C	 0.0189502051	 0.0789540091	 0.1724434793	 0.069992
C	-1.2440460845	-0.700128084	 0.5799322824	-0.250585
C	-2.369532282	-0.9313715061	-0.3974921666	-0.023337
C	-2.7089836559	-0.2962185823	-1.5197306871	-0.061471
C	-2.0331829103	 0.8877824053	-2.1605810398	-0.266878
C	-0.8294193847	 0.502583638	-3.0400315105	-0.246979
C	 0.3364824274	-0.1948343219	-2.3905119871	-0.017964
C	 0.676947149	-0.3875264569	-1.1120329845	-0.117906
H	 0.4660028315	 1.9335426351	-0.2060387942	 0.279136
H	 0.7452787601	-0.1170870025	 0.9771027216	 0.068184
H	-0.9016677393	-1.6873326937	 0.9169660745	 0.105057
H	-1.6384226196	-0.2108528364	 1.4828247403	 0.120908
H	-3.0024276907	-1.7687347978	-0.1044991325	 0.078283
H	-3.5754650618	-0.6845954048	-2.0531264172	 0.077141
H	-2.7567460066	 1.4053451997	-2.8003920494	 0.084548
H	-1.708745083	 1.5923455115	-1.3943489385	 0.138006
H	-1.1752510713	-0.1509512065	-3.853740137	 0.107359
H	-0.4521900551	 1.4031373042	-3.5491647095	 0.103634
H	 1.0248240025	-0.6184887325	-3.1227251899	 0.08716
H	 1.5856725905	-0.962642894	-0.9426598981	 0.083713
78.9884	166.8198	213.8321	243.735	286.7867	304.0663	336.5619	386.9384	471.8279	512.1295	561.3874	661.609	705.3852	753.3803	765.9044	817.8447	837.4807	862.8118	916.4477	944.5599	998.8553	1011.3919	1019.2668	1028.8039	1060.9463	1100.6509	1108.8821	1206.88	1234.6485	1256.184	1264.9622	1306.7583	1314.5034	1364.6751	1389.6878	1395.1613	1398.1113	1412.3609	1435.2855	1442.129	1455.7182	1466.2301	1502.5257	1719.8939	1736.3814	2959.7367	2989.9154	3006.704	3017.6384	3039.0863	3042.4841	3110.1696	3113.0665	3128.9157	3141.3967	3143.9796	3812.1991
OC1CC=CCCC=C1	O[C@H]1CC=CCCC=C1	
InChI=1S/C8H12O/c9-8-6-4-2-1-3-5-7-8/h2,4-5,7-9H,1,3,6H2/b4-2-,7-5-	InChI=1S/C8H12O/c9-8-6-4-2-1-3-5-7-8/h2,4-5,7-9H,1,3,6H2/b4-2-,7-5-/t8-/m0/s1
