16
gdb 94969	3.6031	1.35528	1.16209	4.204	64.43	-0.2382	0.0177	0.2559	1037.3987	0.125221	-475.034114	-475.026391	-475.025447	-475.06654	29.112	
O	-0.2955285847	 1.3741697528	 0.5594270751	-0.435052
C	-0.0410009145	 0.1172899621	-0.0427737875	 0.109496
C	 0.6885278729	-0.8672532882	 0.8936928675	-0.132319
O	-0.3091353066	-1.3853774687	 1.7691563818	-0.243621
C	-1.4843340943	-1.5297222095	 1.0160066547	-0.036676
C	-1.4122743831	-0.5503384702	-0.2023593034	-0.01566
N	-1.4580269677	-1.7262088813	-1.0688984714	-0.33415
C	-1.4961666902	-2.6723074012	-0.0655800833	 0.386596
O	-1.5173975893	-3.8710615824	-0.0754750856	-0.351739
H	 0.5360272548	 1.7354679162	 0.8811727639	 0.288985
H	 0.4863163168	 0.2243812665	-1.001892995	 0.073116
H	 1.1569394176	-1.6714325883	 0.3071656709	 0.111611
H	 1.4598768597	-0.3909447304	 1.5059223251	 0.108919
H	-2.3501187671	-1.5005211683	 1.6774172229	 0.115281
H	-2.2122126117	 0.1773424171	-0.3464400354	 0.103352
H	-1.4439156825	-1.8194500763	-2.0742426503	 0.251862
77.3392	138.7391	240.2245	269.1474	274.393	369.0975	398.2951	456.6323	498.041	664.0509	721.2046	773.6871	807.7537	854.3057	864.2747	939.3172	973.3786	988.3507	1014.1807	1043.3955	1120.0803	1136.8816	1150.9208	1167.0147	1196.8558	1237.8029	1268.2986	1312.366	1328.0671	1354.5462	1374.4529	1380.8018	1418.3713	1498.7094	1899.3376	2992.7903	3008.7058	3088.878	3107.2206	3126.5727	3605.4883	3825.8216
OC1COC2C1NC2=O	O[C@H]1CO[C@H]2[C@@H]1NC2=O	
InChI=1S/C5H7NO3/c7-2-1-9-4-3(2)6-5(4)8/h2-4,7H,1H2,(H,6,8)	InChI=1S/C5H7NO3/c7-2-1-9-4-3(2)6-5(4)8/h2-4,7H,1H2,(H,6,8)/t2-,3+,4-/m0/s1
