17
gdb 107742	3.66032	1.41342	1.17937	3.6373	74.33	-0.2236	-0.0537	0.1699	1040.2175	0.13576	-417.85559	-417.848012	-417.847068	-417.88754	29.765	
O	 0.5648872042	 0.4011047737	-0.6704025566	-0.400514
C	-0.3563329456	 0.5253852165	 0.3973034699	-0.179556
C	-1.5776775331	-0.3461732781	 0.2111053697	 0.303749
N	-2.4955276988	-0.5674066766	 1.470502252	-0.38294
C	-3.031057245	-1.5738702547	 0.5371218044	 0.130739
N	-4.1217612472	-1.2790763556	-0.048543421	-0.157568
C	-3.7055359599	-0.915311247	-1.432775343	-0.18574
C	-2.2006380736	-0.6385707516	-1.233604914	-0.088008
C	-1.7266340173	-1.7177992009	-0.3200487757	-0.228737
H	 0.9420912858	-0.4841844053	-0.6355782806	 0.290294
H	 0.110433533	 0.2892492872	 1.3675645101	 0.095983
H	-0.6523479906	 1.5782661432	 0.4281738565	 0.139162
H	-1.8341304559	-1.0047330134	 2.1243905147	 0.217917
H	-3.8683023894	-1.6816264991	-2.2058447592	 0.110326
H	-4.2993736182	-0.0357565149	-1.7007917436	 0.129817
H	-1.5731034604	-0.2824513819	-2.0456307519	 0.107007
H	-1.055832558	-2.5566810314	-0.4615332017	 0.09807
91.0701	177.3329	214.878	293.9456	330.1137	377.8828	438.3408	496.7857	585.7985	654.9982	679.5893	707.4747	792.1969	825.3274	889.6858	919.6745	932.9613	956.2186	983.9438	1007.3468	1019.4285	1066.5336	1075.5203	1121.3715	1138.6869	1174.729	1186.2411	1208.9799	1245.7836	1277.8761	1301.5883	1383.6683	1396.9435	1410.0276	1481.4807	1500.3005	1613.7393	2972.2968	2992.926	3076.0131	3084.8056	3165.5669	3179.6094	3348.2346	3813.7946
OCC12NC3=NCC1C23	OC[C@@]12N[C]3[N]C[C@@H]1[C@@H]23	
InChI=1S/C6H8N2O/c9-2-6-3-1-7-5(8-6)4(3)6/h3-4,9H,1-2H2,(H,7,8)	InChI=1S/C6H8N2O/c9-2-6-3-1-7-5(8-6)4(3)6/h3-4,9H,1-2H2,(H,7,8)/t3-,4-,6-/m1/s1
