22
gdb 88464	2.48783	1.33026	1.25323	2.2941	82.18	-0.2358	0.0696	0.3053	1180.9636	0.193565	-404.311938	-404.30246	-404.301516	-404.346172	35.792	
C	 1.5167111619	 0.6507509173	-0.8825306821	-0.408534
C	 0.8564788506	-0.5367673988	-0.2225985185	 0.00744
N	 1.7248060385	-1.6217255959	 0.2782335744	-0.345619
C	 0.9028432021	-0.8650503248	 1.2311759276	-0.072469
C	 1.614129406	-0.0825136713	 2.3227660817	 0.421276
C	 0.6789010033	 0.9303927049	 2.9672189159	-0.441346
C	 2.4317748718	-0.994914965	 3.2809049801	-0.318023
C	 3.6613187763	-0.3669710033	 2.6029531753	-0.060372
O	 2.8360477063	 0.5574748627	 1.8649092911	-0.31045
H	 2.428088922	 0.9264870938	-0.3547576925	 0.159876
H	 1.7605541749	 0.4125524151	-1.9239404468	 0.108993
H	 0.8379914024	 1.511406485	-0.889053739	 0.106426
H	-0.0604524869	-0.859497144	-0.7179797727	 0.076762
H	 1.3118270417	-2.5305807384	 0.0891697492	 0.226291
H	 0.0141341321	-1.364158835	 1.622945812	 0.072713
H	-0.2031617629	 0.4352849259	 3.3884334785	 0.112535
H	 1.1919588194	 1.4676532176	 3.7692624507	 0.117977
H	 0.339261659	 1.6605143169	 2.225660162	 0.127694
H	 2.3149405678	-0.7481768992	 4.3380747143	 0.102445
H	 2.3011599733	-2.0682442947	 3.1365633853	 0.106399
H	 4.3703898977	 0.1560074607	 3.2548002657	 0.096065
H	 4.2053252227	-1.0406580196	 1.9323721978	 0.113922
61.89	103.7387	165.6185	207.5226	216.1983	226.0856	277.4392	341.7053	361.854	400.9613	509.2537	555.81	681.737	764.1751	789.3026	824.7683	877.3419	889.4713	907.4068	957.09	978.3132	997.7978	1014.704	1029.3263	1032.9067	1075.6121	1119.8996	1156.7972	1167.6539	1201.4814	1209.3114	1223.714	1249.685	1262.7398	1270.0683	1289.9638	1355.0405	1398.5174	1403.1889	1428.8145	1464.7341	1482.2849	1483.4757	1492.6398	1503.1046	1504.1523	1522.0824	3027.0151	3032.1778	3033.2464	3072.0654	3075.5651	3078.5936	3086.3047	3092.0884	3103.9839	3117.2614	3134.3518	3171.4521	3503.6492
CC1NC1C1(C)CCO1	C[C@H]1N[C@H]1[C@@]1(C)CCO1	
InChI=1S/C7H13NO/c1-5-6(8-5)7(2)3-4-9-7/h5-6,8H,3-4H2,1-2H3	InChI=1S/C7H13NO/c1-5-6(8-5)7(2)3-4-9-7/h5-6,8H,3-4H2,1-2H3/t5-,6-,7-/m1/s1
