15
gdb 13929	3.65458	1.89106	1.55384	3.1401	60.67	-0.2395	-0.0022	0.2373	837.6909	0.120319	-399.796761	-399.789864	-399.78892	-399.828127	25.357	
O	 0.3401554788	 0.1401738592	-0.5302578588	-0.331945
C	 0.1806849757	 1.2371835106	-0.0977830016	 0.399853
O	-0.9581518044	 1.7769063526	 0.4454285612	-0.247222
C	-0.3341842863	 3.0979205497	 0.5885626732	-0.137263
C	 0.9969211044	 2.5347032839	 0.0607235535	 0.156234
C	 2.3218772481	 2.4782840748	 0.8606600724	-0.299078
C	 3.0263575949	 2.7086639273	-0.4992190683	-0.154424
N	 1.7165152751	 3.1208878475	-1.0698174706	-0.351074
H	-0.8149563268	 3.8298638583	-0.0636203503	 0.130632
H	-0.3530680148	 3.4255020784	 1.6302077303	 0.124098
H	 2.4234291908	 3.3175884829	 1.5513410113	 0.121512
H	 2.5353503328	 1.5447116787	 1.3807858417	 0.12979
H	 3.7944243029	 3.486198624	-0.5447832501	 0.109609
H	 3.4282379079	 1.7810820247	-0.9221849335	 0.11729
H	 1.487442001	 2.7364447074	-1.9808175305	 0.231989
116.4254	130.5619	179.8127	268.997	332.1728	497.6752	575.3338	697.8226	730.5264	762.7779	790.0701	892.2617	898.5358	947.6969	958.9621	972.3808	1023.1484	1098.2709	1140.6472	1150.6528	1162.9925	1182.0239	1216.703	1230.264	1273.3562	1326.9305	1343.3656	1399.6779	1477.9886	1508.0089	1524.4602	1925.7366	3034.1532	3070.2339	3080.0626	3087.6603	3135.8478	3147.1971	3522.3338
O=C1OCC11CCN1	O=C1OC[C@]21CCN2	
InChI=1S/C5H7NO2/c7-4-5(3-8-4)1-2-6-5/h6H,1-3H2	InChI=1S/C5H7NO2/c7-4-5(3-8-4)1-2-6-5/h6H,1-3H2/t5-/m0/s1
