18
gdb 33137	3.57192	1.06617	0.85012	3.4604	75.45	-0.1978	0.0257	0.2236	1343.5486	0.149071	-439.097899	-439.089467	-439.088523	-439.131153	31.706	
C	-0.078250591	 1.479259945	 0.2612513937	-0.314897
N	-0.1276471173	 0.0195506386	 0.2529703375	-0.297578
H	 0.661176384	-0.345754058	-0.2731557329	 0.233308
H	-0.1341270539	-1.2361242822	 1.7894088078	 0.289016
C	-1.3685798708	-0.523318702	-0.3270342912	-0.28188
C	-1.3734748062	-2.0134925259	-0.1980190662	 0.114234
C	-1.8265972488	-2.9733767402	-1.0482138776	-0.100991
O	-1.6839267009	-4.2054804993	-0.5100424323	-0.149524
C	-1.1051992412	-4.0477269922	 0.7242779555	-0.111383
C	-0.8958562771	-2.7243376325	 0.9633242	 0.212477
O	-0.3478951184	-2.1528603745	 2.059548589	-0.447014
H	 0.8880780035	 1.8111304156	 0.6499108854	 0.128388
H	-0.2274097762	 1.9297137277	-0.7337764573	 0.106193
H	-0.8596047293	 1.8655815874	 0.923841756	 0.133268
H	-2.1976092654	-0.0867599167	 0.2479231201	 0.12358
H	-1.521105391	-0.2140658845	-1.3747701209	 0.098945
H	-2.2713131803	-2.9343035823	-2.0297838072	 0.131713
H	-0.9129400399	-4.9454692441	 1.2842592506	 0.132147
82.4531	128.6223	158.3826	249.4679	263.1848	302.0019	340.6617	393.9475	467.4608	605.6531	651.5753	684.9295	705.2516	726.3567	754.9164	772.1014	872.5658	890.4243	968.6393	995.4702	1066.7599	1123.1149	1153.8214	1171.217	1188.4269	1207.8338	1242.1088	1272.3618	1324.6205	1354.0963	1382.8235	1459.0666	1473.5632	1482.05	1492.3708	1506.1909	1516.4547	1596.3423	1699.0905	2961.3091	2973.5157	3015.4268	3070.988	3116.0906	3264.082	3295.0502	3503.7227	3507.924
C[NH2+]CC1=COC=C1[O-]	CNCc1cocc1O	
InChI=1S/C6H9NO2/c1-7-2-5-3-9-4-6(5)8/h3-4,7-8H,2H2,1H3	InChI=1S/C6H9NO2/c1-7-2-5-3-9-4-6(5)8/h3-4,7-8H,2H2,1H3
