13
gdb 25112	3.26918	1.5229	1.1471	3.954	71.06	-0.2705	-0.0868	0.1837	1003.8699	0.090631	-448.927229	-448.920028	-448.919083	-448.959725	26.303	
N	-0.0067797237	 1.2172981084	-0.7425883684	-0.471228
C	 0.0247964199	 0.1666351043	-0.0443034126	 0.364722
O	 1.2276062964	-0.2985394501	 0.4635547955	-0.232481
C	 1.3965552885	-1.4705618498	 1.1473520283	 0.121295
N	 0.6010473688	-2.1171705806	 1.8770007286	-0.272607
C	-0.7156398534	-1.6876622877	 2.1644126056	 0.353077
N	-1.1855313293	-1.6655305734	 3.3415089886	-0.449968
N	-1.5799731983	-1.3757868878	 1.0957417017	-0.194415
C	-1.241534844	-0.5913286836	 0.1588692354	-0.014045
H	 0.9162668516	 1.650797584	-0.8076311311	 0.244748
H	 2.4245469977	-1.801443033	 1.0191042403	 0.154084
H	-0.4558464335	-1.9380205041	 4.0022871618	 0.235333
H	-1.9739856408	-0.3618913665	-0.6146380636	 0.161486
52.4878	93.8226	274.565	318.5915	359.4657	429.1114	465.333	552.2223	617.4418	715.1752	737.7964	818.8319	838.8285	863.117	908.9975	921.8904	966.64	977.6205	1005.8934	1058.6537	1166.1868	1295.4342	1326.0597	1400.4103	1429.0886	1707.6112	1723.366	1727.9638	1750.5446	3144.1528	3175.2161	3479.4599	3480.2621
N=C1OC=NC(=N)N=C1	[NH][C]1OC=N[C]([NH])N=C1	
InChI=1S/C4H4N4O/c5-3-1-7-4(6)8-2-9-3/h1-2,5-6H	InChI=1S/C4H4N4O/c5-3-1-7-4(6)8-2-9-3/h1-2,5-6H
