15
gdb 16926	3.7883	2.21729	2.00395	2.6548	60.51	-0.2638	0.0222	0.286	728.648	0.122278	-399.822038	-399.816225	-399.815281	-399.851878	23.298	
N	-0.0563823489	 1.2708986075	-0.0155331666	-0.557872
C	-0.0184724998	 0.0129144781	-0.013401876	 0.444858
O	 1.0976285598	-0.7884708807	-0.004986573	-0.258207
C	 0.564935548	-2.1382210408	 0.0382990407	 0.182494
C	 0.0679572699	-2.3943204168	 1.4733480706	-0.239736
C	-1.2394510308	-1.5443147704	 1.4607323323	-0.230442
C	-1.1805092388	-0.9633439188	 0.0228571594	-0.035742
O	-0.6129982431	-2.0591242183	-0.7245156505	-0.243944
H	 0.8859413937	 1.665372749	-0.0076644819	 0.226676
H	 1.2882208287	-2.822603299	-0.399512672	 0.106966
H	-0.1321437431	-3.4569318804	 1.625991207	 0.117661
H	 0.7986662859	-2.0639542987	 2.2131462822	 0.12288
H	-2.1275182687	-2.1686606082	 1.5732388513	 0.118934
H	-1.2605257531	-0.7626564773	 2.2216751152	 0.129661
H	-2.1072090597	-0.6127164152	-0.4206041887	 0.115815
150.024	242.8114	407.1961	421.3094	539.3438	634.8424	697.6604	748.1939	832.0556	842.461	854.2329	884.7213	894.3929	918.1651	931.7226	982.2592	999.6785	1027.1165	1067.9347	1101.2572	1146.6198	1223.446	1228.8139	1255.2799	1263.9956	1306.9428	1322.5888	1344.3501	1375.2025	1478.5289	1497.8469	1807.2505	3077.546	3085.806	3126.2173	3142.4326	3158.7323	3183.2487	3471.4251
N=C1OC2CCC1O2	[NH][C]1O[C@H]2CC[C@@H]1O2	
InChI=1S/C5H7NO2/c6-5-3-1-2-4(7-3)8-5/h3-4,6H,1-2H2	InChI=1S/C5H7NO2/c6-5-3-1-2-4(7-3)8-5/h3-4,6H,1-2H2/t3-,4-/m0/s1
