16
gdb 10748	3.16177	1.67644	1.43269	4.1863	64.85	-0.2558	0.0092	0.265	924.1071	0.129425	-379.901616	-379.893142	-379.892198	-379.934312	30.876	
C	-0.1301523092	 1.5093813264	 0.0708828701	-0.412653
C	 0.0806404485	-0.0100878024	-0.0274401863	 0.164432
O	 0.8703786705	-0.4984810275	 1.0491700647	-0.446393
C	-1.2408896389	-0.6904246108	-0.0083344818	 0.251229
N	-2.2758971127	-1.2019348634	 0.0415288633	-0.327195
C	 0.8105011638	-0.3732699695	-1.3207537764	 0.021479
C	 2.2919157994	-0.3537384262	-1.3619107276	-0.249007
N	 1.5509555237	-1.6280727199	-1.4306147614	-0.322423
H	 0.8460474255	 1.9988740992	 0.0919874831	 0.140588
H	-0.6987451393	 1.8798813652	-0.786450921	 0.142943
H	-0.6823113899	 1.7672117746	 0.9797060206	 0.128182
H	 0.3949681383	-0.3513979791	 1.8737428416	 0.299822
H	 0.2463399864	-0.1020209374	-2.2097207574	 0.109524
H	 2.7978699743	-0.0643199435	-2.2781862271	 0.12199
H	 2.8189505909	-0.1185367551	-0.443144591	 0.130155
H	 1.5816629888	-2.0696664707	-0.5136720534	 0.247328
80.8917	146.7125	193.6595	239.5323	245.1345	266.9467	297.3674	378.9799	442.3485	467.1095	581.2899	615.6473	710.8838	834.5472	872.5891	916.1721	935.9244	979.5022	1024.9204	1091.7204	1110.666	1132.4128	1158.4591	1178.6186	1226.6998	1275.5876	1305.2422	1341.8727	1401.5661	1425.6086	1485.7938	1489.6939	1504.1641	2351.7075	3045.4865	3119.7106	3121.2451	3138.1762	3142.1066	3212.8852	3499.2089	3822.0511
CC(O)(C#N)C1CN1	C[C@@](O)(C#N)[C@H]1CN1	
InChI=1S/C5H8N2O/c1-5(8,3-6)4-2-7-4/h4,7-8H,2H2,1H3	InChI=1S/C5H8N2O/c1-5(8,3-6)4-2-7-4/h4,7-8H,2H2,1H3/t4-,5-/m1/s1
