18
gdb 105280	2.37229	1.12445	0.90649	2.8368	81.4	-0.2473	-0.0389	0.2084	1337.8537	0.14453	-401.90035	-401.890591	-401.889647	-401.935302	35.274	
C	 0.0859691137	 1.5503477397	-0.1115117228	-0.386596
C	 0.0098499292	 0.0612835744	 0.2395219248	-0.244776
C	-1.3905073736	-0.5091479813	 0.0443982415	 0.118631
N	-1.7511322702	-0.8747887057	-1.3327548325	-0.359401
C	-1.6334101113	-1.9596593111	-0.346478019	-0.168712
C	-0.5138673418	-2.9250703124	-0.5508181714	 0.167004
O	-0.4824825085	-4.0155924841	-0.0386740729	-0.253539
C	-2.4181843911	 0.0730019809	 0.8745461594	 0.298516
C	-3.2700472336	 0.5744459137	 1.560162205	-0.439785
H	 1.1027635567	 1.92715778	 0.0303116072	 0.117747
H	-0.1950118567	 1.7138730097	-1.1563679836	 0.129732
H	-0.585842463	 2.1404732854	 0.5184462063	 0.130971
H	 0.7053824794	-0.4986261943	-0.3906573153	 0.109666
H	 0.3109940183	-0.1020614925	 1.2803404144	 0.115114
H	-2.7307823981	-0.6728428329	-1.5149302263	 0.250605
H	-2.5323961498	-2.4099584727	 0.0652389734	 0.117739
H	 0.2895245979	-2.567951293	-1.2293980716	 0.091873
H	-4.0225095474	 1.012461826	 2.1688123332	 0.205211
73.3528	90.8251	111.574	152.5672	200.7557	221.4306	281.9123	325.4737	381.037	434.9933	481.6138	560.6627	593.0075	617.5557	663.8259	670.6075	786.4899	818.3959	931.4985	950.1324	996.4724	1026.9979	1054.0248	1078.1553	1100.7116	1110.0907	1215.6325	1239.0957	1300.1517	1329.6495	1369.6283	1375.989	1410.916	1442.1913	1475.8709	1497.114	1508.3	1819.8175	2230.1646	2909.2635	3043.4919	3049.8861	3097.312	3116.3616	3122.5966	3159.4258	3499.4493	3514.7535
CCC1(NC1C=O)C#C	CC[C@]1(N[C@H]1C=O)C#C	
InChI=1S/C7H9NO/c1-3-7(4-2)6(5-9)8-7/h1,5-6,8H,4H2,2H3	InChI=1S/C7H9NO/c1-3-7(4-2)6(5-9)8-7/h1,5-6,8H,4H2,2H3/t6-,7+/m0/s1
