17
gdb 37686	3.1977	2.43883	1.99937	1.8968	73.97	-0.2389	0.0551	0.294	758.6736	0.138597	-384.55107	-384.545775	-384.544831	-384.580252	24.351	
C	-0.0830515191	 1.4979149742	-0.1833172537	-0.345086
C	 1.5043610926	 1.4807007642	 0.0424779623	-0.095712
C	 2.2048302447	 0.3431452905	-0.8531588176	-0.08824
C	 2.2558006467	-0.7011576902	 0.3606444613	-0.123436
C	 1.128272352	-1.6546706389	-0.3439305257	 0.029799
O	-0.2028144757	-1.417470157	 0.2643064269	-0.385793
C	 0.1536110826	-0.0203849604	 0.0075444075	 0.400822
C	 1.3059938409	 0.2877157612	 0.9992780677	-0.012185
C	 0.968191048	-0.4449663756	-1.2447006177	-0.049176
H	-0.5445500637	 2.0142894996	 0.6630233907	 0.115929
H	-0.5192971129	 1.8350677915	-1.1272183695	 0.105335
H	 2.0326763879	 2.3995727762	 0.2904415254	 0.076097
H	 3.0335350688	 0.5450428718	-1.527338165	 0.069074
H	 3.1629584736	-1.0840606896	 0.8212822553	 0.067559
H	 1.3016695054	-2.6986025778	-0.5971338684	 0.084022
H	 1.0195458319	 0.3622988392	 2.0466537251	 0.07505
H	 0.4319399064	-0.4354002489	-2.1923282445	 0.075942
382.0413	430.5279	493.9284	516.8593	682.9577	714.6992	731.6747	755.6329	788.885	799.5474	816.7234	845.7983	857.732	877.8461	914.2311	933.0969	942.3993	960.917	964.3387	1019.5144	1038.7801	1071.4079	1094.7552	1101.6296	1129.1838	1154.0097	1155.036	1168.2219	1178.1416	1189.2488	1230.5636	1235.3311	1253.8553	1286.7856	1307.0034	1323.9183	1485.2905	3055.8008	3120.2464	3123.0506	3125.9165	3134.5647	3143.7586	3144.1028	3157.2109
C1C2C3C4C5OC1(C24)C35	C1[C@@H]2[C@H]3[C@@H]4[C@H]5O[C@@]1([C@H]24)[C@@H]35	
InChI=1S/C8H8O/c1-2-3-4-5(2)8(1)6(3)7(4)9-8/h2-7H,1H2	InChI=1S/C8H8O/c1-2-3-4-5(2)8(1)6(3)7(4)9-8/h2-7H,1H2/t2-,3+,4+,5-,6+,7-,8+/m1/s1
