16
gdb 46004	4.65833	1.02619	0.87712	6.3061	75.27	-0.2424	-0.0262	0.2161	1271.0308	0.12528	-437.904479	-437.896862	-437.895917	-437.937123	28.247	
O	-0.0158125058	 0.0815746274	 0.3712735307	-0.35824
C	 0.0714214739	 1.2585857664	 0.164244113	 0.471635
O	-1.0521806084	 2.0732228919	 0.1232147652	-0.238114
C	-0.6633917116	 3.4115448389	-0.1391786928	-0.156711
C	 0.8418232119	 3.3727760976	-0.2435267957	 0.344822
C	 1.2493404778	 2.1043039189	-0.0702195475	-0.410649
N	 1.5491169257	 4.5039804761	-0.5784650847	-0.126566
C	 1.6443537633	 5.6687468072	 0.2951432394	-0.23567
C	 2.8411883226	 4.8199268192	-0.0010236863	-0.224521
H	-1.1232039476	 3.7601809413	-1.0720581926	 0.140142
H	-1.0100406324	 4.061820904	 0.6745832922	 0.126528
H	 2.252297736	 1.7082426585	-0.0982283667	 0.121808
H	 1.5221789872	 6.6317050651	-0.1906565913	 0.137093
H	 1.2149885567	 5.5908020213	 1.2909320997	 0.134793
H	 3.2039643959	 4.1736990398	 0.7945749696	 0.136435
H	 3.5950841048	 5.1694711365	-0.6993763922	 0.137217
84.2642	124.8724	176.1039	212.5095	268.9095	430.9406	468.9024	554.5952	568.4978	701.119	744.8324	812.3254	850.8252	857.1588	883.2651	930.9324	953.4539	1025.5433	1040.5783	1081.3614	1115.3967	1136.4421	1141.6365	1159.5684	1172.7938	1187.3681	1199.6501	1300.5661	1362.5718	1409.5931	1489.8517	1496.4471	1517.6756	1679.5542	1872.4528	3021.3781	3058.3367	3111.7133	3115.3807	3199.3983	3212.6091	3260.0427
O=C1OCC(=C1)N1CC1	O=C1OCC(=C1)N1CC1	
InChI=1S/C6H7NO2/c8-6-3-5(4-9-6)7-1-2-7/h3H,1-2,4H2	InChI=1S/C6H7NO2/c8-6-3-5(4-9-6)7-1-2-7/h3H,1-2,4H2
