13
gdb 21774	4.17089	2.19603	1.46545	3.8031	59.84	-0.2183	0.0201	0.2384	789.9429	0.098061	-394.783504	-394.776995	-394.776051	-394.815012	23.35	
O	-0.2747528054	-0.1229586096	 0.0742051169	-0.420697
C	-0.1428544676	 1.0757648323	 0.1587608153	 0.444841
N	-1.0760967048	 2.0907160373	-0.0678167499	-0.319472
N	-0.6265486693	 3.4022643982	 0.1124789099	-0.328209
C	 0.6000837349	 3.1831319044	 0.4537930861	 0.417325
C	 1.9706395121	 3.6822838793	 0.8664285337	-0.36725
C	 2.3502130943	 2.1441053813	 0.9147966135	-0.168908
N	 0.957194311	 1.8736241508	 0.5036723759	-0.124312
H	-2.0278432798	 1.928800822	-0.3464229484	 0.280492
H	 2.5070266567	 4.2633474971	 0.1145516641	 0.148175
H	 2.0159209502	 4.1963885119	 1.8278175208	 0.148189
H	 3.0931566606	 1.8208289509	 0.1832676035	 0.144894
H	 2.5985249372	 1.7531912341	 1.9033116688	 0.144933
40.0413	174.2347	243.5398	315.0268	424.775	588.848	650.5726	700.1536	720.5234	726.8124	797.0786	842.495	896.7479	1039.4382	1058.7116	1071.6913	1142.5765	1160.5584	1182.6524	1228.1593	1265.2048	1306.4524	1368.9156	1437.5678	1474.5856	1516.6712	1678.9257	1848.404	3077.7953	3088.9487	3131.8535	3147.0843	3696.9105
O=C1NN=C2CCN12	O=c1[nH]nc2CCn12	
InChI=1S/C4H5N3O/c8-4-6-5-3-1-2-7(3)4/h1-2H2,(H,6,8)	InChI=1S/C4H5N3O/c8-4-6-5-3-1-2-7(3)4/h1-2H2,(H,6,8)
