15
gdb 130211	2.52302	1.84862	1.07056	1.4444	77.53	-0.1827	-0.0313	0.1515	1046.0456	0.115998	-446.300727	-446.292836	-446.291891	-446.332632	31.056	
N	-0.011293108	 1.3167762308	-0.2900625741	-0.574149
C	 0.0276785934	-0.0608488997	-0.0854808634	 0.325963
N	-1.1055979239	-0.7183649418	-0.0787362008	-0.288908
N	-1.0324549196	-2.037565235	 0.0373751428	-0.105533
N	 0.0565424283	-2.7880310935	 0.2381185689	-0.313552
C	 1.1975328803	-2.1459820923	 0.2810067722	 0.405504
N	 2.3549065334	-2.8229333955	 0.5368857769	-0.557663
C	 1.3178290057	-0.7075255849	 0.059589948	 0.168742
N	 2.4983144088	-0.1765209184	 0.012073042	-0.590985
H	 0.601260739	 1.8309818294	 0.3317522382	 0.249638
H	-0.9561264369	 1.677450465	-0.2510568625	 0.253716
H	-1.9083912773	-2.5305018113	 0.0322515115	 0.287166
H	 2.3495543784	-3.8181842951	 0.384643612	 0.255125
H	 3.1865409412	-2.3091980564	 0.2804548016	 0.274865
H	 2.4501879372	 0.8132383787	-0.2270937432	 0.210072
104.9079	267.3686	309.3473	318.9267	320.6077	336.6448	359.7123	462.929	499.8274	511.3772	559.0197	565.2283	579.7206	600.4282	724.9953	741.538	802.6051	834.3646	925.8724	1004.9383	1037.439	1120.0447	1249.0981	1276.0742	1306.7417	1423.0288	1466.9772	1527.3874	1570.8142	1607.8765	1615.901	1646.3157	1657.8374	3483.0997	3526.0942	3564.5589	3629.6581	3677.3601	3700.6616
NC1=NNN=C(N)C1=N	Nc1n[nH]nc(N)c1[NH]	
InChI=1S/C3H6N6/c4-1-2(5)7-9-8-3(1)6/h(H2,4,9)(H4,5,6,7,8)	InChI=1S/C3H11N6/c4-1-2(5)7-9-8-3(1)6/h1-4,7-9H,5-6H2
