23
gdb 39429	2.286	1.86104	1.28339	0.1954	88.78	-0.2515	0.089	0.3405	1093.3072	0.209096	-351.153096	-351.145358	-351.144414	-351.184903	32.376	
C	-0.0340635764	 1.507655253	-0.0142719862	-0.387694
C	 1.2813009483	 0.7525143901	 0.0143832566	-0.067804
C	 2.1159774853	 0.661931765	 1.2895402018	-0.215619
C	 2.0212696128	-0.7350619524	 1.9278732273	-0.193767
C	 0.5696954338	-1.0673402481	 2.3053834197	-0.221483
C	-0.3898430677	-0.9751646066	 1.1122377674	-0.035357
C	-0.3772486279	-2.0962421745	 0.0257104529	-0.227234
C	-0.4531095556	-1.0002874	-1.0774158475	-0.306557
C	-0.0314051897	 0.0129211357	-0.0114140735	 0.376661
H	-0.3399084563	 2.0273582665	 0.8903840278	 0.102487
H	-0.3116805604	 2.0166117135	-0.9325865662	 0.104962
H	 1.8466472847	 0.7545160717	-0.9143982949	 0.077408
H	 3.1599116211	 0.906432278	 1.0675572228	 0.093536
H	 1.7773455158	 1.4076730582	 2.02095446	 0.093498
H	 2.4111674523	-1.4827950932	 1.224613735	 0.093457
H	 2.6553417611	-0.7866701288	 2.8201667404	 0.087979
H	 0.5053264401	-2.0685558601	 2.7493922151	 0.091191
H	 0.2477088701	-0.3652786061	 3.0870364995	 0.089771
H	-1.4156172612	-0.8185419755	 1.4663805801	 0.063528
H	 0.5767386423	-2.6311168639	 0.002639002	 0.099621
H	-1.186787999	-2.828826519	 0.0634444127	 0.092042
H	 0.1972998023	-1.1150819888	-1.9496104392	 0.092296
H	-1.478947496	-0.8389304947	-1.426138884	 0.097079
113.9197	168.8205	233.4641	311.4325	360.0354	409.3241	426.9727	469.2768	544.7241	607.4849	697.3932	762.0577	777.3596	835.8795	851.2106	882.1406	890.3021	910.5812	937.4213	947.8595	980.2529	991.7335	1039.218	1052.2355	1073.9763	1094.5252	1109.8699	1117.3082	1151.3911	1185.8014	1202.6326	1212.3038	1225.7439	1252.5934	1267.0346	1280.6035	1296.4396	1325.3272	1354.5215	1359.3623	1368.7101	1388.8743	1418.1823	1475.9159	1477.6831	1481.9258	1490.9026	1494.978	1501.6735	3004.9117	3014.8987	3020.7946	3029.3497	3038.1093	3049.0125	3055.4015	3064.9975	3068.7075	3084.6339	3107.7804	3111.4438	3130.9649	3192.1762
C1C2CCCC3CCC123	C1[C@H]2CCC[C@@H]3CC[C@]123	
InChI=1S/C9H14/c1-2-7-4-5-9(7)6-8(9)3-1/h7-8H,1-6H2	InChI=1S/C9H14/c1-2-7-4-5-9(7)6-8(9)3-1/h7-8H,1-6H2/t7-,8-,9-/m1/s1
