23
gdb 61168	2.84337	0.93806	0.8567	1.8503	87.69	-0.2583	0.05	0.3083	1478.6211	0.20108	-388.266764	-388.255351	-388.254407	-388.303025	42.747	
C	 0.0106985402	 1.5451743494	-0.0999242095	-0.414384
C	-0.0251456191	 0.019272786	 0.0619646201	 0.038955
C	 0.8056791386	-0.4223869281	 1.2942468484	-0.385004
C	 2.215532917	-0.0621995397	 1.1905402329	 0.298679
C	 3.3774643744	 0.2299893147	 1.090458186	-0.43319
C	-1.4712167714	-0.5521027826	 0.073646816	 0.352297
C	-1.469930897	-2.0898843714	 0.0592577456	-0.424059
C	-2.3225549286	-0.0314482135	 1.2419811222	-0.425907
O	-2.0278658229	-0.0894998928	-1.1659049233	-0.472267
H	 1.0391363084	 1.880294093	-0.2562585354	 0.125388
H	-0.595062111	 1.8544023504	-0.9523992228	 0.135124
H	-0.3654972558	 2.055195057	 0.7940384683	 0.106127
H	 0.4492336563	-0.41956408	-0.8243117473	 0.090304
H	 0.3881613605	 0.0323512122	 2.2022529545	 0.12782
H	 0.7363682931	-1.5068717188	 1.433151537	 0.127503
H	 4.4042838025	 0.4879188107	 1.0118805796	 0.191928
H	-1.1244278248	-2.5201678125	 1.0034930151	 0.116853
H	-2.4884796295	-2.4602944445	-0.1066876727	 0.100563
H	-0.8384777695	-2.4666388764	-0.7507385825	 0.123608
H	-2.3996354708	 1.0576373963	 1.215614435	 0.128066
H	-3.3369131814	-0.4431018272	 1.1781073805	 0.101851
H	-1.915010123	-0.3302808157	 2.2127487834	 0.117045
H	-2.9322137961	-0.4156295866	-1.2203971311	 0.272699
44.8742	64.3896	136.9294	212.4395	227.4766	249.8047	259.4057	263.3848	281.5147	336.7911	347.8038	350.6464	398.7943	411.4959	466.0285	520.5101	552.8118	612.8081	633.4843	740.3787	854.6302	892.0721	908.6358	914.4789	957.8365	984.6652	997.8303	1059.3451	1093.9682	1113.7167	1147.386	1196.292	1216.3847	1258.233	1309.0273	1357.5453	1359.6813	1379.2068	1400.0855	1403.7369	1420.129	1469.8518	1477.9829	1488.2607	1496.9555	1504.3667	1506.5549	1511.2161	2236.5595	3019.5208	3027.4994	3032.4462	3035.804	3042.7807	3066.5782	3090.7719	3097.4501	3108.3774	3119.4245	3131.1068	3147.4866	3507.0769	3809.0352
CC(CC#C)C(C)(C)O	C[C@@H](CC#C)C(C)(C)O	
InChI=1S/C8H14O/c1-5-6-7(2)8(3,4)9/h1,7,9H,6H2,2-4H3	InChI=1S/C8H14O/c1-5-6-7(2)8(3,4)9/h1,7,9H,6H2,2-4H3/t7-/m0/s1
