17
gdb 121070	2.37318	1.53568	1.19192	2.6282	64.27	-0.2585	0.0057	0.2642	1082.4589	0.135032	-496.121596	-496.112854	-496.11191	-496.155958	30.528	
C	-0.6313319494	 0.5265392816	 0.156892354	-0.246131
O	 0.5528434407	-0.2550888443	 0.1893577283	-0.244081
C	 1.0240083829	-0.6575898336	-1.0779991977	-0.106253
C	 0.7554833061	-2.144845485	-1.3075322804	 0.215775
O	 1.4359490801	-2.953296564	-0.3687482454	-0.261371
C	 0.5166146549	-3.3066531529	 0.6462743452	-0.21742
C	-0.8512086677	-3.0305960909	 0.0417291272	 0.411394
O	-1.9364375698	-3.2758768416	 0.472155723	-0.327707
O	-0.6362459142	-2.419173638	-1.158724669	-0.228595
H	-0.4704389019	 1.4672272091	-0.3891159188	 0.111981
H	-1.4678304008	-0.013968288	-0.3023505413	 0.134365
H	-0.8830839093	 0.7601619268	 1.1937755721	 0.134943
H	 0.568629482	-0.0739198501	-1.8895286617	 0.105046
H	 2.1102362664	-0.5075264426	-1.1136648655	 0.121416
H	 1.0646559134	-2.4458027951	-2.3154211718	 0.105013
H	 0.6233071469	-4.3663605299	 0.8957110213	 0.142968
H	 0.6460256797	-2.7040154516	 1.5529304006	 0.148657
67.8786	95.0719	98.2664	153.879	170.4643	267.3672	322.0744	424.4738	487.447	564.1748	628.3069	672.6641	814.5119	840.7977	869.9897	932.4537	993.3071	1030.1562	1043.7562	1065.3004	1117.2499	1146.3308	1183.7565	1210.8595	1221.0073	1236.3839	1300.9199	1340.7863	1377.0256	1387.4709	1402.94	1469.0378	1486.2773	1488.4766	1495.1224	1512.5234	1904.452	2995.2654	3012.2889	3040.9597	3050.9836	3064.0413	3066.0741	3094.2532	3125.3525
COCC1OCC(=O)O1	COC[C@H]1OCC(=O)O1	
InChI=1S/C5H8O4/c1-7-3-5-8-2-4(6)9-5/h5H,2-3H2,1H3	InChI=1S/C5H8O4/c1-7-3-5-8-2-4(6)9-5/h5H,2-3H2,1H3/t5-/m0/s1
