17
gdb 54739	3.19062	1.29805	1.13243	5.3431	74.26	-0.2372	-0.0308	0.2064	1122.1301	0.134196	-421.836381	-421.827987	-421.827042	-421.869872	31.117	
C	-0.0397642928	 1.4397499441	-0.3135671014	-0.485938
C	 0.0788281727	 0.0091605861	 0.1741279301	 0.388061
O	 1.134296533	-0.4665109706	 0.5300364209	-0.305746
C	-1.1953160039	-0.7879866286	 0.1739450277	-0.127059
C	-1.3378852129	-2.1219990997	-0.5212145521	-0.076801
C	-0.0383626564	-2.9414431881	-0.4898548624	-0.351408
C	-0.1334961059	-2.8829992204	 1.0585413891	 0.441751
O	 0.4037915687	-3.4911502744	 1.9356194219	-0.314116
C	-1.3919365415	-2.0403682276	 1.01624634	-0.195447
H	 0.9448271175	 1.9070304474	-0.340009895	 0.148094
H	-0.496097185	 1.4691443182	-1.3094661679	 0.142394
H	-0.6979331626	 2.0083705104	 0.3541082404	 0.145494
H	-2.0982008343	-0.1859469312	 0.106388139	 0.102058
H	-2.1676146144	-2.3006325282	-1.1926305732	 0.109875
H	-0.188267743	-3.9701264049	-0.8312037987	 0.128564
H	 0.8502347148	-2.5216947147	-0.9609878473	 0.137531
H	-2.229568974	-2.107258488	 1.7002717088	 0.112693
58.4812	105.1072	141.0489	208.0912	241.5698	337.6801	391.0673	446.7011	532.4443	600.8844	641.1943	664.5318	744.4414	793.6826	836.2759	874.0552	915.8186	960.6594	968.5045	996.3615	1027.6937	1044.1128	1085.0711	1087.3045	1127.9963	1141.4823	1195.9002	1217.4077	1281.5828	1313.5725	1378.6245	1421.6181	1458.5963	1463.8846	1474.4866	1800.5441	1894.45	3034.0647	3071.4088	3093.9423	3139.7621	3142.1734	3156.8002	3189.8608	3204.2179
CC(=O)C1C2CC(=O)C12	CC(=O)[C@H]1[C@H]2CC(=O)[C@@H]12	
InChI=1S/C7H8O2/c1-3(8)6-4-2-5(9)7(4)6/h4,6-7H,2H2,1H3	InChI=1S/C7H8O2/c1-3(8)6-4-2-5(9)7(4)6/h4,6-7H,2H2,1H3/t4-,6+,7+/m1/s1
