19
gdb 110816	2.30432	1.36498	1.04241	0.5816	81.2	-0.2525	0.046	0.2985	1203.783	0.158448	-385.813457	-385.804534	-385.80359	-385.84732	33.871	
O	-0.2486666539	 1.4164713246	-0.5565814002	-0.424088
C	-0.0351363487	 0.1484603835	 0.0573569034	-0.121382
C	-1.3571307145	-0.5766221413	 0.048160636	 0.017163
C	-1.9439875265	-1.3102680174	-1.1248441781	-0.06107
C	-0.8748316552	-2.0780446661	-1.9095972439	-0.261694
C	-0.5445496691	-2.9094106526	-0.6119442513	-0.171577
C	 0.8236174005	-3.0107230327	-0.1335544326	 0.332419
C	 1.9567734138	-3.1144304659	 0.2581601821	-0.471234
C	-1.5756277543	-2.0604031452	 0.1637956725	-0.108243
H	 0.5793872902	 1.9043285316	-0.5203101669	 0.284339
H	 0.7397449449	-0.4230370535	-0.4672317508	 0.099747
H	 0.3046621426	 0.2639709358	 1.0989617127	 0.087093
H	-2.1197667648	-0.0228629662	 0.5932503944	 0.094605
H	-2.9283540949	-1.069416929	-1.50628875	 0.089063
H	-1.2816296259	-2.7121646888	-2.6989739495	 0.108981
H	-0.0575446086	-1.4834973039	-2.3249773328	 0.11337
H	-0.945068818	-3.9203664372	-0.7378127292	 0.109421
H	 2.9552653038	-3.201693272	 0.6085392692	 0.193743
H	-2.2215555114	-2.4737527837	 0.9294921451	 0.089344
63.0261	104.3716	141.2501	209.8841	250.3072	278.0461	314.2275	453.5725	485.7874	506.8786	591.4874	617.2337	628.9139	703.3616	757.1558	802.9398	828.7219	902.9737	965.9632	977.4733	984.9753	1026.9109	1052.2682	1063.0876	1068.5137	1088.0457	1099.3274	1154.9315	1190.8212	1216.7401	1253.6878	1261.2621	1278.5138	1294.214	1338.3182	1345.8038	1427.5182	1484.4911	1494.0564	1526.2553	2226.7687	2976.9196	3045.1587	3050.9882	3069.9727	3123.1799	3128.8195	3174.3	3190.9536	3503.6678	3826.6396
OCC1C2CC(C#C)C12	OC[C@H]1[C@H]2C[C@@H](C#C)[C@@H]12	
InChI=1S/C8H10O/c1-2-5-3-6-7(4-9)8(5)6/h1,5-9H,3-4H2	InChI=1S/C8H10O/c1-2-5-3-6-7(4-9)8(5)6/h1,5-9H,3-4H2/t5-,6-,7+,8-/m1/s1
