19
gdb 34210	3.69523	1.3547	1.3387	1.1208	85.83	-0.2306	0.0569	0.2875	1041.7314	0.161913	-348.741567	-348.734526	-348.733582	-348.772628	29.832	
C	 0.048621411	-1.151343403	-0.0399448014	-0.348353
C	 0.0129451635	 0.0516333559	-0.0076238056	 0.055299
C	-0.0483015643	 1.4740084778	 0.0464636066	 0.277357
C	-1.0828731542	 2.2285431834	 0.8904715558	-0.286527
C	-0.6270005382	 3.6577485106	 0.523824169	-0.062098
C	 0.8867526538	 3.5968032114	 0.8412283858	-0.226621
C	 1.2021057619	 2.3615407661	 0.005360565	-0.103349
C	 0.2488643175	 2.3650300723	-1.1662490843	-0.103345
C	-0.6300617627	 3.6023579858	-1.0230527349	-0.226625
H	 0.0826919573	-2.2115937093	-0.0704872654	 0.173153
H	-2.1094509292	 2.0127198086	 0.5789230809	 0.101985
H	-0.9872557258	 2.0086005019	 1.9581722266	 0.101985
H	-1.1856695081	 4.4736704951	 0.9807988813	 0.066586
H	 1.4258756587	 4.4861652163	 0.497643064	 0.097198
H	 1.0905731553	 3.4560692079	 1.9075620969	 0.099162
H	 2.1859964746	 1.9171895806	-0.056619799	 0.093918
H	 0.5083626341	 1.9233427083	-2.1185654321	 0.093918
H	-1.6330554265	 3.4660458955	-1.4399915494	 0.099161
H	-0.1814054886	 4.4920468047	-1.4778396898	 0.097196
139.8211	153.8252	394.5262	413.8104	424.2673	499.7356	506.4808	542.9896	568.7179	642.996	648.1139	685.5286	792.3482	871.0506	872.876	907.0693	911.6097	918.135	943.4403	944.0867	960.9031	1008.3156	1019.4341	1069.3641	1074.3102	1121.8494	1149.2016	1153.4539	1179.2225	1211.7373	1242.0222	1279.2576	1279.408	1293.2883	1321.136	1331.7	1402.7957	1486.7143	1489.3448	1515.8088	2234.462	3041.1029	3044.257	3051.7362	3085.9488	3089.4701	3097.7409	3125.4455	3207.6454	3217.014	3506.1003
C#CC12CC3CC1C2C3	C#C[C@@]12C[C@H]3C[C@@H]1[C@@H]2C3	
InChI=1S/C9H10/c1-2-9-5-6-3-7(9)8(9)4-6/h1,6-8H,3-5H2	InChI=1S/C9H10/c1-2-9-5-6-3-7(9)8(9)4-6/h1,6-8H,3-5H2/t6-,7+,8-,9+
