20
gdb 9947	2.96367	1.45099	1.3267	3.2729	77.1	-0.2425	-0.0101	0.2323	1062.1259	0.174349	-349.017978	-349.008288	-349.007344	-349.052235	34.536	
C	-0.2538404294	 0.9803953186	-1.7880026891	-0.414568
C	-0.0083810607	-0.2152133205	-0.8929985448	-0.059659
C	 1.3406655452	-0.6256247951	-0.3890079117	-0.059672
C	 2.6267878265	 0.1040700613	-0.7118511567	-0.414568
C	 0.3130231206	-0.0543223435	 0.6025098761	 0.206794
C	 0.4816799001	 1.3011984805	 1.2550431622	-0.46512
C	-0.3223522382	-1.0758202559	 1.4709499258	 0.123645
O	-0.6904495309	-0.8911337242	 2.6057333822	-0.274699
H	 0.4378330453	 1.8035287538	-1.5997790841	 0.121719
H	-0.1444920441	 0.6934609209	-2.8395826603	 0.124199
H	-1.2700721239	 1.3650373143	-1.6533184923	 0.127297
H	-0.6798110297	-1.0443661095	-1.1095962769	 0.089157
H	 1.4810393543	-1.7017385648	-0.3023539313	 0.089148
H	 2.4879163443	 1.1797444792	-0.8344547926	 0.121714
H	 3.3682079828	-0.045538882	 0.0798117951	 0.127295
H	 3.0549403442	-0.2801780211	-1.6441292254	 0.124197
H	 0.9502492116	 2.0323073402	 0.5951090198	 0.110392
H	-0.4899870064	 1.6960482551	 1.5660793463	 0.132656
H	 1.0942749967	 1.2143777514	 2.1572573122	 0.132629
H	-0.4441826884	-2.0742431688	 0.9845084254	 0.057444
78.953	101.2215	142.5269	156.1951	207.8952	208.821	242.5173	299.9516	305.7401	405.0552	460.8826	531.058	569.3645	723.0585	751.325	802.7859	943.7425	970.4006	996.1689	1027.5177	1041.3218	1052.23	1103.7717	1116.7633	1138.232	1159.0581	1192.1742	1264.651	1338.7712	1381.12	1411.1135	1416.5509	1426.6124	1442.5354	1449.5933	1476.5594	1488.3472	1491.6801	1495.8834	1500.7361	1519.3332	1811.5001	2835.0046	3037.4602	3039.7624	3051.2303	3094.4293	3095.7958	3107.2982	3109.6728	3115.8919	3127.5706	3129.9469	3142.3707
CC1C(C)C1(C)C=O	C[C@H]1[C@@H](C)[C@]1(C)C=O	
InChI=1S/C7H12O/c1-5-6(2)7(5,3)4-8/h4-6H,1-3H3	InChI=1S/C7H12O/c1-5-6(2)7(5,3)4-8/h4-6H,1-3H3/t5-,6+,7+
