16
gdb 57166	3.21772	1.22548	0.8953	0.8334	77.41	-0.2343	-0.049	0.1853	1235.382	0.123055	-434.065985	-434.056561	-434.055617	-434.100484	34.381	
C	-1.2390961284	 0.9654317204	-0.2713826718	-0.326614
N	-0.1826560238	-0.0086353074	 0.0315395299	-0.173254
C	-0.1137317688	-0.4086213787	 1.4031192069	 0.442092
N	 0.9722057412	-1.1616717604	 1.7578201284	-0.559418
N	-1.0448074861	 0.0310168785	 2.1632575943	-0.565571
C	 0.608588173	-0.5376202546	-0.9642468313	 0.353199
O	 1.4746835156	-1.3902918424	-0.8060309158	-0.387529
C	 0.3848435981	-0.0329124634	-2.3103183788	 0.175104
C	 0.3076495816	 0.2872414876	-3.4670984083	-0.365452
H	-1.1362324671	 1.8271980028	 0.3880792204	 0.154711
H	-1.1470591994	 1.2734607439	-1.3097321992	 0.14535
H	-2.2218232205	 0.5243529961	-0.0955604109	 0.151695
H	 1.4814072472	-1.6172132195	 1.0096197846	 0.285867
H	 0.9080219885	-1.6271761504	 2.6474337113	 0.247724
H	-0.904512552	-0.2840355653	 3.121144654	 0.207082
H	 0.2342459609	 0.5771144228	-4.4871826038	 0.215014
59.6259	75.1092	141.7856	171.7785	237.2553	292.4722	335.6704	399.3824	407.1632	438.6976	474.917	567.6772	604.8202	631.6077	650.4634	693.6947	719.9223	735.6223	761.7046	804.0657	937.6603	1111.4406	1124.5246	1142.2856	1159.5539	1213.2179	1384.2206	1424.7628	1467.3419	1474.2356	1515.3152	1602.5865	1705.8886	1727.8801	2221.655	3077.5999	3145.1598	3188.0012	3494.0589	3499.5501	3506.9328	3687.7448
CN(C(N)=N)C(=O)C#C	CN(C(=N)N)C(=O)C#C	
InChI=1S/C5H7N3O/c1-3-4(9)8(2)5(6)7/h1H,2H3,(H3,6,7)	InChI=1S/C5H7N3O/c1-3-4(9)8(2)5(6)7/h1H,2H3,(H3,6,7)
