19
gdb 41681	3.80618	1.46563	1.24034	1.4511	79.63	-0.2122	0.0202	0.2323	1038.4895	0.162109	-385.890194	-385.88327	-385.882326	-385.921185	28.594	
C	 0.1715239495	 1.2103609907	 0.3686405016	-0.087061
C	 1.409335125	 1.9187650039	-0.220911567	-0.34042
C	 2.1006808128	 0.8036492104	-0.9768520831	 0.317265
C	 3.1980461852	 0.9942850072	-2.0140367812	-0.367636
C	 3.8858905488	-0.3560340059	-2.0342178239	-0.080845
C	 3.4177488927	-1.1798295516	-1.0912309037	-0.081282
C	 2.3005842384	-0.572893396	-0.3175762731	-0.186958
C	 1.0627415197	-0.2688192043	-1.1470165836	 0.080854
O	-0.1153894014	 0.0970689729	-0.483365717	-0.266996
H	 0.379742107	 0.8555945508	 1.3876541917	 0.100484
H	-0.7199231467	 1.8423006348	 0.4077410982	 0.110078
H	 1.1166684323	 2.7098655753	-0.9216207859	 0.107234
H	 2.0236568695	 2.3759405922	 0.5612139947	 0.104648
H	 2.7934314486	 1.273503808	-2.9958979835	 0.109133
H	 3.8974733484	 1.7954284167	-1.7314718459	 0.104487
H	 4.6684135926	-0.5977106322	-2.7442669197	 0.093761
H	 3.7689098361	-2.1900489033	-0.9130005596	 0.095922
H	 2.1966249976	-0.7506618606	 0.7481783447	 0.087458
H	 0.875081674	-0.8067855591	-2.070284964	 0.099872
179.5669	218.5537	219.3999	341.3819	373.4226	437.4047	485.0924	656.9317	692.3883	714.9612	750.625	808.7565	871.4429	885.036	931.9053	941.3187	956.2022	961.5627	985.5879	990.9488	1016.9775	1025.8362	1055.6708	1093.3691	1123.6286	1143.4048	1172.512	1204.2388	1222.7199	1230.2226	1255.1783	1276.2242	1304.87	1342.9123	1369.9955	1386.3365	1411.8425	1481.8985	1496.5243	1525.5482	1663.94	2993.1003	3003.7549	3032.0551	3033.3557	3077.3385	3089.4577	3157.8516	3167.9022	3185.9398	3210.6744
C1CC23CC=CC2C3O1	C1C[C@@]23CC=C[C@@H]2[C@H]3O1	
InChI=1S/C8H10O/c1-2-6-7-8(6,3-1)4-5-9-7/h1-2,6-7H,3-5H2	InChI=1S/C8H10O/c1-2-6-7-8(6,3-1)4-5-9-7/h1-2,6-7H,3-5H2/t6-,7-,8+/m1/s1
