17
gdb 33551	2.40892	1.52089	1.17867	2.3436	72.83	-0.2648	0.0117	0.2764	1086.0444	0.135732	-417.955313	-417.946889	-417.945945	-417.989146	30.385	
N	-0.0952062019	-1.2623772097	 0.0840228312	-0.349497
C	-0.0499529937	-0.1066427595	 0.1022741222	 0.230355
C	-0.0398846352	 1.3615536317	 0.0807709962	 0.131983
C	-0.0466540959	 2.0373513682	 1.4826117501	-0.093137
O	 1.2425671117	 2.6289291952	 1.2587201745	-0.259332
C	 1.3726867476	 2.005484534	-0.0283583673	-0.093137
N	-0.9967868101	 1.9649046335	-0.8308133344	-0.116175
C	-1.2849580161	 1.3144124045	-2.109256505	-0.239465
C	-2.30428847	 1.3374236499	-1.0239936059	-0.239463
H	-0.8414883479	 2.7823237328	 1.5899077537	 0.12305
H	-0.0481821331	 1.3499967127	 2.3354543471	 0.119865
H	 2.2091021107	 1.2993175532	-0.0675509785	 0.119866
H	 1.4455841982	 2.7309749921	-0.8448173093	 0.123051
H	-1.3626187443	 1.9872631889	-2.9573494413	 0.129518
H	-0.8177366404	 0.3548509406	-2.3185603467	 0.141503
H	-2.5040732116	 0.3929170322	-0.5231385665	 0.141496
H	-3.1411695979	 2.0274004998	-1.0637789602	 0.12952
62.768	74.5777	145.4939	184.2952	230.52	297.5375	369.192	457.8227	521.2172	578.1903	610.7441	770.8155	827.504	848.8378	900.2868	961.0223	974.4644	996.4708	1018.8365	1055.6229	1092.7424	1114.2476	1132.4227	1148.8913	1164.2921	1167.4841	1180.432	1184.0341	1235.5085	1313.8979	1328.0208	1378.9463	1490.3432	1498.1645	1516.1485	1523.2104	2339.435	3029.5838	3039.2834	3091.7818	3093.6283	3111.0465	3113.5213	3196.4716	3209.5587
N#CC1(COC1)N1CC1	N#CC1(COC1)N1CC1	
InChI=1S/C6H8N2O/c7-3-6(4-9-5-6)8-1-2-8/h1-2,4-5H2	InChI=1S/C6H8N2O/c7-3-6(4-9-5-6)8-1-2-8/h1-2,4-5H2
