16
gdb 90540	4.71441	1.04911	0.95854	5.5942	69.48	-0.2725	-0.0013	0.2712	1197.3848	0.124191	-437.847716	-437.839703	-437.838759	-437.880793	29.526	
O	-0.1924376678	 1.507076551	 0.3648063282	-0.418811
C	 0.0224227594	 0.14528744	 0.1336240763	 0.134926
C	 0.326596223	-0.8120446161	 1.3368854401	-0.306283
C	-0.8283343817	-1.7404998471	 0.8657133657	-0.092084
C	-2.1698628606	-1.3934479122	 1.5474390194	-0.015171
O	-2.3877262746	-0.2924066864	 0.6432152793	-0.279804
C	-1.2526875338	-0.6612062888	-0.1758395678	 0.094594
C	-3.214343635	-2.419530114	 1.4316618933	 0.274805
N	-4.0175511764	-3.2455620364	 1.3427216036	-0.315658
H	 0.6608201201	 1.942060523	 0.4578130756	 0.290935
H	 0.7497464052	-0.0284013945	-0.674461621	 0.076488
H	 1.3198753044	-1.2643531585	 1.3316561702	 0.110106
H	 0.1489560045	-0.3513740202	 2.312088433	 0.115656
H	-0.6142315137	-2.7813165516	 0.6383579335	 0.106074
H	-2.108336459	-1.065900309	 2.5921398136	 0.129393
H	-1.5408207038	-0.8309871992	-1.2151724731	 0.094834
59.165	127.3805	159.1726	235.1975	267.5217	347.945	388.5211	466.1453	536.4237	582.0319	692.2188	773.9797	827.5128	885.4314	889.7885	914.7329	965.5839	994.9837	1038.1294	1059.127	1063.2351	1108.5855	1150.025	1192.0427	1211.6598	1219.0365	1229.5038	1265.7364	1289.888	1322.6474	1326.8596	1366.5036	1437.009	1478.3602	2355.262	2982.191	3040.434	3066.761	3093.5807	3125.5619	3154.1054	3823.3508
OC1CC2C(OC12)C#N	O[C@H]1C[C@H]2[C@@H](O[C@@H]12)C#N	
InChI=1S/C6H7NO2/c7-2-5-3-1-4(8)6(3)9-5/h3-6,8H,1H2	InChI=1S/C6H7NO2/c7-2-5-3-1-4(8)6(3)9-5/h3-6,8H,1H2/t3-,4-,5-,6+/m0/s1
