17
gdb 35509	3.22432	1.47502	1.36027	1.7183	72.12	-0.2505	0.0499	0.3005	991.3918	0.137617	-421.79738	-421.790174	-421.789229	-421.829079	28.598	
C	-0.1044876346	-1.2487808635	-0.1947328391	-0.464762
C	-0.0543117733	-0.0532575566	-0.0809832869	 0.329722
C	-0.0058844126	 1.3916737122	 0.046241754	-0.2029
C	-0.5708999655	 1.970826714	 1.3948329904	-0.249003
C	 0.6470010851	 2.7782501815	 1.8883795049	 0.038783
C	 1.7584277793	 1.8050697449	 2.3237879204	-0.083634
O	 2.2108511953	 1.2973983292	 1.0555387968	-0.262458
C	 1.4342285797	 1.9945366143	 0.0981908244	 0.182328
O	 1.2094145125	 3.2704131372	 0.6562970672	-0.248053
H	-0.1353562522	-2.3053637003	-0.2947069731	 0.195211
H	-0.5307469178	 1.8482049742	-0.7994810836	 0.112729
H	-1.4256956338	 2.6239472627	 1.2112664767	 0.115163
H	-0.8726709575	 1.1853426913	 2.0895008591	 0.11984
H	 0.4413987994	 3.6037969879	 2.5675474588	 0.093294
H	 2.5856082081	 2.3146026902	 2.8302061772	 0.109798
H	 1.3930627241	 0.98609886	 2.9516169133	 0.110848
H	 1.9708118137	 2.0556969509	-0.8473379405	 0.103094
92.269	148.941	234.5682	339.6893	381.6185	489.3691	522.8242	584.0589	628.6497	636.5514	664.3053	783.0359	819.6332	828.9192	869.4236	896.0229	943.4393	968.6789	988.1523	1028.8345	1034.1556	1050.7319	1087.3772	1103.564	1170.3837	1193.6475	1236.4793	1257.9674	1295.781	1305.6203	1317.8895	1338.0376	1350.1418	1383.8695	1490.8222	1523.9667	2239.3931	3035.652	3050.3571	3080.7848	3085.0489	3134.2956	3140.9269	3146.116	3504.8927
C#CC1CC2COC1O2	C#C[C@H]1C[C@H]2CO[C@@H]1O2	
InChI=1S/C7H8O2/c1-2-5-3-6-4-8-7(5)9-6/h1,5-7H,3-4H2	InChI=1S/C7H8O2/c1-2-5-3-6-4-8-7(5)9-6/h1,5-7H,3-4H2/t5-,6-,7+/m0/s1
