18
gdb 11139	3.55278	1.28146	1.08197	2.1763	64.02	-0.2543	0.0541	0.3085	1117.9249	0.153507	-422.04913	-422.040646	-422.039701	-422.082925	30.674	
O	-0.0941142399	 1.1437537369	 0.7861742726	-0.418577
C	-0.0665646368	-0.1678362617	 0.2614129596	-0.067416
C	-1.4512455945	-0.5923794493	-0.192947239	 0.140904
C	-1.7263842949	-2.0943557712	-0.4082614894	-0.347492
C	-2.7337626063	-1.9422730656	 0.74934571	 0.140904
C	-2.4804262892	-2.7085116228	 2.0349273943	-0.067416
O	-3.2387369991	-2.1660762356	 3.0965903708	-0.418576
O	-2.3866352378	-0.5378528277	 0.9228860147	-0.340915
H	-0.7941936868	 1.1502221855	 1.4502255426	 0.291345
H	 0.6248715133	-0.1627206007	-0.5891498608	 0.110556
H	 0.3134112475	-0.8926359831	 1.0006294777	 0.083264
H	-1.7945266383	 0.0647575176	-1.0011788565	 0.089179
H	-2.1501059311	-2.3664068654	-1.3747029317	 0.11807
H	-0.8774175377	-2.7478208569	-0.1888963758	 0.111829
H	-3.7887730243	-2.0342561046	 0.4640359123	 0.089179
H	-2.7874205212	-3.7542808427	 1.9179296815	 0.110556
H	-1.4009471399	-2.6970585051	 2.2602075012	 0.083264
H	-3.046583793	-1.2204962777	 3.105096126	 0.291344
45.9816	109.7521	110.4128	190.8782	255.1612	369.7892	389.6291	439.798	452.2044	495.1269	499.6545	718.3659	848.6741	865.5036	892.286	940.5282	1022.915	1033.9603	1037.7497	1073.011	1088.0897	1117.8741	1146.9704	1169.3649	1218.4848	1224.1087	1256.3593	1288.0838	1317.9855	1337.8988	1353.6631	1386.2612	1407.6126	1430.8938	1439.7551	1491.321	1492.9517	1500.5449	2963.6542	2969.5089	3032.9449	3036.5923	3067.2323	3068.4773	3069.1567	3136.8382	3787.9174	3790.0244
OCC1CC(CO)O1	OC[C@H]1C[C@@H](CO)O1	
InChI=1S/C5H10O3/c6-2-4-1-5(3-7)8-4/h4-7H,1-3H2	InChI=1S/C5H10O3/c6-2-4-1-5(3-7)8-4/h4-7H,1-3H2/t4-,5+
