23
gdb 76643	2.81412	1.06135	0.90761	1.1832	86.3	-0.2412	0.0675	0.3087	1405.7225	0.205521	-388.263036	-388.253314	-388.25237	-388.298058	36.564	
C	-0.1003612612	 1.5970986317	-0.2399489633	-0.406123
C	-0.0000835551	 0.094354721	-0.0829443211	-0.05052
C	 1.3172378701	-0.61773015	-0.2202620254	 0.065988
O	 2.4387508194	 0.1884847908	-0.4563829879	-0.417923
C	 0.6350177321	-0.5696466135	 1.1343773971	-0.088862
C	 1.2226831334	 0.2127436141	 2.2769647229	 0.047497
C	 0.3036474354	 0.6364970886	 3.4616631417	-0.230402
C	 1.4734630215	 0.3240575865	 4.4325946628	-0.208686
C	 2.1185954018	-0.5345706962	 3.3125021625	-0.236731
H	 0.8310173975	 2.0953626423	 0.0326257399	 0.135039
H	-0.3142043551	 1.8568351744	-1.282331005	 0.115448
H	-0.907323915	 2.0064415986	 0.3772482635	 0.112602
H	-0.8495837882	-0.4449743062	-0.4946251423	 0.08118
H	 1.3313926066	-1.568806032	-0.7530605832	 0.079155
H	 3.1834126218	-0.1929936617	 0.0200544423	 0.28873
H	 0.1640085734	-1.5003856634	 1.4474321367	 0.071278
H	 1.7617500748	 1.0856893509	 1.900596726	 0.076587
H	-0.1046710814	 1.6502801601	 3.4528331778	 0.094358
H	-0.5236923356	-0.0694141046	 3.5897688365	 0.095491
H	 2.067575232	 1.216554194	 4.6499095065	 0.100571
H	 1.2339284751	-0.1694195037	 5.3773675758	 0.094165
H	 1.8289225215	-1.5875987325	 3.3965611408	 0.09544
H	 3.2038236353	-0.4842012592	 3.1844587155	 0.085717
48.8742	109.2223	116.5253	162.6429	179.9979	248.8706	270.0963	308.1968	364.9741	475.4019	523.7521	600.8701	655.1886	753.5495	769.4948	790.5132	831.4564	895.6844	923.0565	933.1638	949.5345	975.6353	981.3316	1018.3977	1047.7386	1078.8088	1100.5889	1109.2538	1155.7402	1182.1382	1198.4171	1200.9815	1236.7814	1254.5323	1258.1395	1261.1493	1274.191	1289.8639	1297.5266	1317.2944	1375.5825	1414.4969	1421.1418	1458.7905	1478.0035	1486.574	1494.9502	1505.9014	1510.7873	3036.2086	3039.2033	3046.5637	3056.2848	3070.5489	3087.6984	3089.8767	3090.4766	3097.2206	3108.8964	3116.0512	3128.5899	3144.1219	3805.7807
CC1C(O)C1C1CCC1	C[C@H]1[C@@H](O)[C@H]1C1CCC1	
InChI=1S/C8H14O/c1-5-7(8(5)9)6-3-2-4-6/h5-9H,2-4H2,1H3	InChI=1S/C8H14O/c1-5-7(8(5)9)6-3-2-4-6/h5-9H,2-4H2,1H3/t5-,7-,8-/m1/s1
