16
gdb 67080	2.6918	1.56481	1.34659	4.1973	73.92	-0.2583	0.0152	0.2736	990.7431	0.125159	-400.707739	-400.70036	-400.699416	-400.739376	29.169	
O	-0.1513709969	 1.4278185419	-0.0101475276	-0.434711
C	 0.0000881129	 0.0780383372	-0.0159759638	 0.349375
C	 0.0348106423	-0.9948196232	-1.0728146008	-0.160792
C	 1.2919024538	-1.635667732	-0.499695341	-0.264335
C	 0.9298013227	-0.9396620913	 0.8490199877	 0.105953
C	-0.3917710048	-1.6428845286	 1.2892547226	-0.265876
C	-1.0329157867	-0.995983573	 0.0676929171	-0.118901
C	 1.9440391633	-0.5742702816	 1.793568119	 0.161315
N	 2.7639729252	-0.250331122	 2.5437472105	-0.345777
H	 0.5992052675	 1.8349480233	-0.4594397106	 0.301528
H	-0.2745667037	-0.9240440542	-2.1068878066	 0.103144
H	 1.3606506492	-2.7274221013	-0.4647774851	 0.109612
H	 2.2018904442	-1.2197137001	-0.938131724	 0.117802
H	-0.3519755203	-2.734613887	 1.3577332088	 0.107432
H	-0.7799059614	-1.2216646507	 2.218767228	 0.12824
H	-2.0835515571	-0.9089164372	-0.1730469143	 0.105991
118.4447	158.1081	252.5411	321.2486	378.3755	407.6973	486.7729	521.8436	544.1962	554.5346	664.5071	712.1488	736.1755	843.6098	890.6353	912.0153	936.8932	976.553	993.8772	1025.0379	1056.0174	1079.7704	1096.8232	1126.3956	1150.6205	1218.1503	1243.0447	1254.1897	1268.6326	1306.5859	1316.7497	1485.6187	1491.5392	1515.6065	2343.1647	3049.5928	3055.3603	3114.5643	3122.1868	3209.7768	3219.0944	3779.8214
OC12C3CC1(CC23)C#N	O[C@@]12[C@H]3C[C@@]1(C[C@@H]23)C#N	
InChI=1S/C7H7NO/c8-3-6-1-4-5(2-6)7(4,6)9/h4-5,9H,1-2H2	InChI=1S/C7H7NO/c8-3-6-1-4-5(2-6)7(4,6)9/h4-5,9H,1-2H2/t4-,5+,6+,7+
