18
gdb 83750	2.78403	1.58813	1.36694	2.7071	70.88	-0.2343	0.0655	0.2998	1000.6385	0.148622	-439.024929	-439.017263	-439.016319	-439.057189	30.167	
O	-0.0614247307	 1.2474561636	-0.4468947647	-0.424897
C	-0.0919158598	-0.1071393976	-0.1490047115	 0.115811
C	-0.3693140907	-0.5281532021	 1.265374421	 0.005625
O	-0.8460582226	 0.5488731469	 2.0513843978	-0.2779
C	-2.2667969368	 0.6388868063	 1.8918708503	-0.15288
C	-2.5922024459	 0.0154878427	 0.5304672236	 0.316968
C	-3.9888763121	-0.3174361735	 0.163022112	-0.30534
N	-3.2682519161	 0.7564939631	-0.5413337015	-0.334447
C	-1.3921705466	-0.8322869411	 0.1953894015	-0.209086
H	-0.1258062464	 1.7054458762	 0.4031566756	 0.291395
H	 0.6295097169	-0.6816847502	-0.7239993348	 0.10141
H	 0.2096569747	-1.2644740463	 1.8133620659	 0.099942
H	-2.7598645923	 0.0871363243	 2.7053070219	 0.109359
H	-2.5518100676	 1.6942384678	 1.9639158435	 0.109275
H	-4.2045035088	-1.1977290443	-0.4373007904	 0.121129
H	-4.7744500935	-0.0535352105	 0.868894436	 0.10961
H	-3.57430911	 1.6686922554	-0.2111564728	 0.227353
H	-1.5410509515	-1.8364945507	-0.1836549334	 0.096673
77.7607	124.4314	250.9662	288.8481	333.6656	377.6752	435.2058	499.885	586.9549	660.717	702.5652	757.5594	788.3784	820.7856	865.615	902.0792	944.8347	954.5579	976.1903	1018.4805	1038.7853	1058.2927	1082.6205	1092.1925	1095.6114	1122.039	1142.2531	1205.9009	1229.6961	1253.2594	1275.9752	1306.3482	1322.2233	1344.0737	1375.0154	1423.3347	1436.2225	1508.5646	1515.9296	2996.0167	3066.3313	3093.5336	3142.898	3157.9671	3176.9537	3180.8136	3493.7747	3733.9074
OC1C2OCC3(CN3)C12	O[C@H]1[C@H]2OC[C@]3(CN3)[C@@H]12	
InChI=1S/C6H9NO2/c8-4-3-5(4)9-2-6(3)1-7-6/h3-5,7-8H,1-2H2	InChI=1S/C6H9NO2/c8-4-3-5(4)9-2-6(3)1-7-6/h3-5,7-8H,1-2H2/t3-,4+,5-,6+/m0/s1
