14
gdb 98044	5.84402	0.56067	0.51485	6.8308	73.5	-0.2718	-0.0641	0.2076	1977.0837	0.097645	-436.663632	-436.653708	-436.652764	-436.701685	32.428	
O	 0.0911882642	 1.3884642446	 0.0087152418	-0.392282
C	-0.0088816032	-0.0066004614	 0.0018744658	-0.174853
C	-1.4776385225	-0.41013471	 0.0141419554	 0.238087
O	-2.3921117292	 0.3756358078	 0.0275511444	-0.250207
C	-1.6908652174	-1.8520107522	 0.008250208	 0.03505
C	-1.8801680873	-3.0418657845	 0.0035756903	 0.104974
C	-2.0987137482	-4.4847197482	-0.001783339	-0.482568
C	-3.5172576879	-4.8642939916	 0.0094407268	 0.287967
N	-4.6257846503	-5.1852368783	 0.0180671444	-0.287894
H	 1.0236303233	 1.6232351661	 0.0004291308	 0.297705
H	 0.4482032857	-0.4726488576	-0.8889661632	 0.118741
H	 0.4656918659	-0.4825632814	 0.8782145079	 0.118733
H	-1.6261052598	-4.9320592824	-0.8858387274	 0.193267
H	-1.6098205834	-4.9410574609	 0.868716374	 0.193281
7.7529	56.9705	77.5689	129.3233	151.786	210.7122	270.1332	342.7399	351.9011	383.6914	405.9572	540.6013	574.0084	630.3851	780.9883	915.6218	929.0718	982.9229	1012.6588	1131.463	1179.0768	1234.2417	1242.3057	1242.8601	1336.2019	1438.1103	1441.5281	1488.5726	1795.4458	2347.6046	2376.9849	2950.9222	2973.4102	3028.6104	3059.8835	3839.1766
OCC(=O)C#CCC#N	OCC(=O)C#CCC#N	
InChI=1S/C6H5NO2/c7-4-2-1-3-6(9)5-8/h8H,2,5H2	InChI=1S/C6H5NO2/c7-4-2-1-3-6(9)5-8/h8H,2,5H2
