15
gdb 21297	7.19453	1.27869	1.10069	1.7701	64.83	-0.2432	0.0047	0.2479	1059.8731	0.118305	-399.798014	-399.790212	-399.789267	-399.83042	27.48	
C	-0.0327524301	 1.4069633287	 0.0227790955	-0.241322
O	-0.0124176955	-0.0082001982	-0.1810773465	-0.262371
C	-1.1851490638	-0.6302780458	-0.0368841219	 0.501142
N	-2.2982522919	-0.0050320627	 0.2716401675	-0.254265
O	-3.2683104676	-1.0163950555	 0.3207597334	-0.231051
C	-2.6952012819	-2.2025665987	 0.0398689259	 0.463044
C	-3.5877986837	-3.3922734228	 0.0484459608	-0.488828
C	-1.3693163152	-2.0340402542	-0.1986664851	-0.467592
H	 0.9922472789	 1.744629438	-0.13234673	 0.131774
H	-0.7065218663	 1.8913145892	-0.6906251972	 0.141917
H	-0.3645966708	 1.6472908447	 1.0374855353	 0.141917
H	-4.3928129431	-3.2815818247	-0.6853434874	 0.151372
H	-3.0192479167	-4.2926087208	-0.1910104346	 0.141666
H	-4.0536072585	-3.5237455186	 1.0305304313	 0.151371
H	-0.6290789137	-2.7739361487	-0.449605267	 0.121224
92.6824	100.2331	176.1554	209.478	224.901	329.1299	392.8774	479.8582	627.0797	641.2197	725.3534	744.7119	797.696	935.5122	994.753	1028.4254	1033.9888	1062.8086	1065.1109	1171.3313	1180.5596	1226.7794	1300.3109	1412.242	1447.1545	1473.3854	1479.7522	1481.3589	1494.7196	1505.0479	1565.6388	1661.7889	3038.7656	3043.1492	3100.0015	3108.8219	3139.6994	3151.7974	3285.5713
COC1=NOC(C)=C1	COc1noc(C)c1	
InChI=1S/C5H7NO2/c1-4-3-5(7-2)6-8-4/h3H,1-2H3	InChI=1S/C5H7NO2/c1-4-3-5(7-2)6-8-4/h3H,1-2H3
