20
gdb 60652	2.91222	1.11614	0.86414	4.002	75.74	-0.2551	0.0196	0.2747	1348.5211	0.170657	-440.310289	-440.300732	-440.299788	-440.345296	35.311	
N	 0.0121048062	 1.2482349602	-0.124206453	-0.514711
C	 0.0717857266	-0.1007345872	-0.0159664925	 0.3766
O	 1.1226424668	-0.7185146113	 0.0551694793	-0.380116
C	-1.2671105396	-0.8576507161	 0.0218861639	 0.002101
O	-0.9954089065	-2.2322488474	-0.0511623653	-0.436098
C	-2.06617396	-0.538764804	 1.2892288718	 0.05692
C	-2.8231444781	 0.8154244337	 1.4205983146	-0.25027
C	-4.0049617113	 0.0438809376	 2.0690278654	-0.223409
C	-3.4258573601	-1.2672022979	 1.4722926288	-0.220534
H	 0.8708234677	 1.7738870777	-0.1098581455	 0.266767
H	-0.8627330647	 1.7414675962	-0.1523641586	 0.267498
H	-1.8658692316	-0.5535859728	-0.8538388625	 0.07557
H	-0.0256709656	-2.2926102083	 0.005591688	 0.2922
H	-1.4258401412	-0.708496638	 2.1618032862	 0.079172
H	-2.3520890791	 1.6142728529	 1.9988557478	 0.097898
H	-3.1086260791	 1.2124649706	 0.4378914893	 0.091779
H	-3.9421313245	 0.0579251701	 3.1606575554	 0.106578
H	-5.0167305436	 0.3334835744	 1.7768139843	 0.099102
H	-3.8772951067	-1.5088555148	 0.5049553476	 0.105247
H	-3.4355600356	-2.1653362057	 2.0915160649	 0.107706
48.828	82.7745	129.6887	145.7145	213.2684	262.7663	308.9925	356.523	390.8593	470.956	517.9366	546.892	636.2747	660.828	716.8069	785.9366	818.5049	869.1332	899.902	934.9772	959.6293	976.7199	1043.5554	1090.7586	1100.2975	1143.822	1153.1406	1200.1267	1227.3344	1255.6896	1260.0149	1261.8814	1275.1256	1289.4797	1321.6857	1355.919	1390.8057	1464.869	1480.0126	1486.7674	1510.4479	1620.1023	1782.3658	2957.2699	3021.4872	3048.4016	3060.037	3061.18	3092.4261	3110.3717	3125.8766	3603.7215	3640.402	3740.2594
NC(=O)C(O)C1CCC1	NC(=O)[C@@H](O)C1CCC1	
InChI=1S/C6H11NO2/c7-6(9)5(8)4-2-1-3-4/h4-5,8H,1-3H2,(H2,7,9)	InChI=1S/C6H11NO2/c7-6(9)5(8)4-2-1-3-4/h4-5,8H,1-3H2,(H2,7,9)/t5-/m0/s1
