12
gdb 133354	3.28403	1.46476	1.01321	5.0621	62.58	-0.2542	-0.0533	0.201	1042.0064	0.077503	-510.076134	-510.068689	-510.067745	-510.108266	27.585	
N	 0.004033218	 1.3332471239	 0.108921963	-0.553743
C	-0.0614351357	-0.0144699765	 0.0386162544	 0.529165
N	-1.1785363137	-0.6534610505	 0.0226404558	-0.401196
C	-1.1254222916	-2.0393146675	-0.0021228487	 0.23893
N	-2.1187431974	-2.8378215633	-0.0141414625	-0.51562
C	 0.2412351909	-2.5973621755	-0.0204662859	 0.334303
F	 0.3692849394	-3.9014897968	-0.0493811348	-0.01485
N	 1.3349667861	-1.9394601651	-0.0144151955	-0.148834
O	 1.1894970558	-0.5440987359	 0.0178891642	-0.264819
H	 0.8788958883	 1.7901121786	-0.0840020848	 0.282868
H	-0.852639388	 1.8391908746	-0.037084369	 0.285719
H	-2.9822207722	-2.2895554958	 0.0003973938	 0.228077
78.2746	177.2487	290.4199	325.822	339.6057	349.2013	421.4817	479.765	489.6277	543.2856	594.9492	731.9664	733.6591	789.5622	813.6145	926.158	942.8466	995.4532	1088.9545	1207.0749	1308.1277	1396.2785	1461.4132	1603.3014	1679.3591	1697.6428	1728.7341	3459.0806	3618.662	3748.4248
NC1=NC(=N)C(F)=NO1	N[C]1N=C([NH])C(=NO1)F	
InChI=1S/C3H3FN4O/c4-1-2(5)7-3(6)9-8-1/h(H3,5,6,7)	InChI=1S/C3H3FN4O/c4-1-2(5)7-3(6)9-8-1/h(H3,5,6,7)
