21
gdb 116245	1.93961	1.52604	0.93323	1.1528	84.71	-0.2473	0.0471	0.2944	1311.3757	0.181964	-387.069015	-387.059491	-387.058546	-387.104412	35.382	
C	-0.0665159641	 1.6264248648	 0.1099173127	-0.389594
C	-0.0838620761	 0.0964195132	 0.0535857461	-0.190988
C	 0.7046244695	-0.5392265478	 1.1879716453	 0.135736
O	 0.117725897	-0.1766736255	 2.4312234143	-0.248929
C	 0.5941425913	-1.0990104916	 3.3924740942	-0.082775
C	 0.5020924212	-2.4640190531	 2.6997095457	-0.229027
C	 0.7946993043	-2.116352428	 1.206682305	-0.212745
C	-0.0969052521	-2.8057068199	 0.2857378646	 0.348388
C	-0.8289173661	-3.3931326536	-0.4664098131	-0.488377
H	 0.9552063187	 2.0151882533	 0.0308220757	 0.108889
H	-0.6498411091	 2.0541052126	-0.7110268441	 0.109094
H	-0.4878562132	 1.9838326765	 1.0529503139	 0.135175
H	-1.1126034612	-0.2761902133	 0.0953874553	 0.113215
H	 0.3357029492	-0.2545847158	-0.8962152744	 0.101463
H	 1.7419695763	-0.1613168661	 1.1641420699	 0.062034
H	 1.6361839192	-0.8680644495	 3.6722099946	 0.086615
H	-0.0297431141	-1.0144340168	 4.285554782	 0.111388
H	 1.2012983876	-3.2013219147	 3.099947595	 0.107699
H	-0.5090461276	-2.8656685478	 2.7915162286	 0.123402
H	 1.8230498966	-2.3983992641	 0.9565078268	 0.103906
H	-1.4755796373	-3.9078627529	-1.1328928981	 0.195431
21.3147	105.925	129.6812	188.4658	206.4177	250.9996	258.5719	365.5775	444.7048	470.3613	543.869	608.2025	618.7564	628.3034	731.6901	754.7549	794.8864	884.7267	903.3481	945.4857	960.977	995.0897	1032.9258	1065.2973	1096.492	1119.2074	1132.3614	1166.3224	1212.1451	1246.4855	1266.9834	1293.9016	1318.2024	1322.5212	1355.0543	1357.5707	1397.105	1407.9608	1417.3726	1472.6064	1491.27	1496.9176	1509.1608	1517.2584	2231.5732	2938.7668	2961.3592	3035.001	3043.1502	3043.8727	3074.6029	3081.899	3098.6931	3102.2449	3124.1294	3127.0606	3503.534
CCC1OCCC1C#C	CC[C@H]1OCC[C@H]1C#C	
InChI=1S/C8H12O/c1-3-7-5-6-9-8(7)4-2/h1,7-8H,4-6H2,2H3	InChI=1S/C8H12O/c1-3-7-5-6-9-8(7)4-2/h1,7-8H,4-6H2,2H3/t7-,8-/m1/s1
