17
gdb 91587	3.16314	1.10997	0.95399	2.5674	69.42	-0.2496	-0.0054	0.2442	1242.141	0.133487	-458.935793	-458.927185	-458.926241	-458.96954	31.36	
C	-0.0357580562	 1.5875213516	-0.2447536747	-0.416743
C	 0.1127678396	 0.0867757	-0.1319055294	 0.090682
O	 1.3020928797	-0.4469388724	-0.7983581514	-0.302146
C	 1.6544763236	-1.1903043212	 0.3673578262	 0.030725
C	 1.9881627592	-0.2703678448	 1.5109621264	-0.360847
C	 0.5460784617	-0.5821992423	 1.1755562693	 0.318156
O	-0.3543588668	-1.1860640436	 2.051338834	-0.225543
C	-0.6224415715	-0.5320251022	 3.2120435727	 0.152636
O	-1.4065264492	-0.9472175678	 4.0071754452	-0.262792
H	 0.820750385	 2.1116054736	 0.187327416	 0.124771
H	-0.1199464716	 1.8787441206	-1.2961136934	 0.139319
H	-0.945816542	 1.9145472642	 0.269654233	 0.127509
H	-0.7726034165	-0.4276660213	-0.5262793218	 0.103396
H	 2.0110374838	-2.2060990812	 0.2531210131	 0.127394
H	 2.3463813379	-0.7811269566	 2.4001560744	 0.132683
H	 2.4248290241	 0.7063580015	 1.3254971397	 0.12746
H	-0.033803881	 0.3965623119	 3.3195374208	 0.093339
62.9789	132.7579	144.567	206.1579	212.5694	269.7752	374.6419	378.3437	458.543	485.1053	570.8049	703.2376	772.3827	848.6468	871.75	918.0283	961.5255	994.2065	1018.4431	1042.3217	1048.9529	1081.9704	1083.1645	1120.8678	1143.8157	1158.6425	1228.5835	1263.5009	1282.4	1371.3384	1393.8289	1410.8356	1418.962	1478.8594	1485.3424	1495.0224	1874.4322	2983.5275	3033.3386	3041.108	3110.7566	3119.8243	3124.3086	3200.0744	3213.6345
CC1OC2CC12OC=O	C[C@H]1O[C@H]2C[C@@]12OC=O	
InChI=1S/C6H8O3/c1-4-6(8-3-7)2-5(6)9-4/h3-5H,2H2,1H3	InChI=1S/C6H8O3/c1-4-6(8-3-7)2-5(6)9-4/h3-5H,2H2,1H3/t4-,5+,6-/m1/s1
