13
gdb 5443	3.6654	1.96552	1.28334	4.4709	70.03	-0.1947	0.0181	0.2128	879.4269	0.096821	-357.647094	-357.639836	-357.638892	-357.678279	27.348	
N	 0.0829638688	 1.3926655779	 0.153167627	-0.617663
C	 0.0011257476	 0.0073615315	 0.0319339611	 0.21982
C	-1.0787712006	-0.8573641128	-0.0031420794	 0.121027
N	-0.6297338438	-2.1738041463	-0.0319943845	-0.30975
C	 0.6712201693	-2.0994460615	-0.0239319572	-0.012507
N	 1.1120525822	-0.7957855159	 0.0166504351	-0.279003
C	-2.4368505159	-0.4708716208	-0.0033386413	 0.208935
C	-3.5803864589	-0.0879977861	-0.0064755461	-0.423854
H	 0.5821736461	 1.8370465795	-0.6107370066	 0.250305
H	-0.8480591541	 1.7899544982	 0.2099366254	 0.262183
H	 1.3573549775	-2.932130102	-0.0585617238	 0.129928
H	 2.0629414521	-0.4788970345	 0.1085003592	 0.268041
H	-4.5944155904	 0.2255247127	-0.004368769	 0.182537
134.766	166.3298	228.6374	280.6862	354.5347	463.7634	495.2054	509.4211	540.6748	608.3769	654.2173	676.5172	730.1765	736.276	785.2399	816.5507	951.0775	1071.6726	1103.2367	1179.7106	1287.5843	1298.7245	1390.0635	1482.9581	1542.0785	1609.9857	1660.1234	2222.8565	3253.5197	3503.1711	3504.7457	3595.4159	3661.1233
NC1=C(N=CN1)C#C	Nc1c(nc[nH]1)C#C	
InChI=1S/C5H5N3/c1-2-4-5(6)8-3-7-4/h1,3H,6H2,(H,7,8)	InChI=1S/C5H5N3/c1-2-4-5(6)8-3-7-4/h1,3H,6H2,(H,7,8)
