19
gdb 89101	5.29681	0.61745	0.58611	1.5002	79.4	-0.25	0.0363	0.2863	1868.8968	0.155966	-422.950501	-422.940421	-422.939476	-422.986824	35.895	
O	-0.0869117833	 1.4484850931	 0.502928771	-0.418088
C	-0.0180813087	 0.0815417029	 0.207336901	 0.091583
C	-0.7054652266	-0.9140846624	 1.1039379708	-0.313767
C	-1.2827536976	-0.5829205426	-0.2588941901	-0.039113
C	-2.5612080459	 0.2031855338	-0.3506180635	-0.060989
O	-3.6481021075	-0.6765887364	-0.1071529323	-0.248084
C	-4.8943710872	-0.0212371832	-0.2128910764	-0.202417
C	-5.9779505391	-0.9596981913	 0.0503793196	 0.282032
C	-6.8901708852	-1.7112352004	 0.2624830758	-0.416997
H	 0.4538919202	 1.6095715865	 1.2828772865	 0.289586
H	 0.9077965573	-0.2277773951	-0.2774637378	 0.088519
H	-0.2526382879	-1.8865889604	 1.2612615643	 0.113775
H	-1.236389345	-0.5134374346	 1.9612511712	 0.118535
H	-1.1692793272	-1.3383050103	-1.0304454934	 0.095755
H	-2.5558833678	 1.0273015058	 0.3772629156	 0.100982
H	-2.6611141342	 0.656007615	-1.351836914	 0.089072
H	-4.9526255696	 0.8199230749	 0.5002210313	 0.115458
H	-5.0207768909	 0.4156456207	-1.2192653063	 0.115948
H	-7.6919234938	-2.3813981058	 0.4511285967	 0.198209
32.3139	82.8318	87.9834	114.3556	167.1996	256.9764	297.9536	316.4683	335.0513	385.2113	476.6204	511.9695	605.3923	609.7258	672.6232	773.2294	837.3706	898.756	926.6183	973.5599	993.4348	1028.1553	1032.9112	1054.8363	1080.5154	1134.1753	1135.5022	1178.6423	1186.5939	1239.9288	1251.512	1267.5895	1305.2384	1356.9517	1397.9499	1424.9216	1454.5242	1490.5273	1498.6656	1524.5648	2247.6925	2944.3616	2960.0112	2962.2803	3018.256	3098.5275	3133.8186	3157.148	3223.0041	3507.0505	3809.5885
OC1CC1COCC#C	O[C@H]1C[C@H]1COCC#C	
InChI=1S/C7H10O2/c1-2-3-9-5-6-4-7(6)8/h1,6-8H,3-5H2	InChI=1S/C7H10O2/c1-2-3-9-5-6-4-7(6)8/h1,6-8H,3-5H2/t6-,7-/m0/s1
