19
gdb 85130	2.02003	1.80111	1.14621	3.3649	75.85	-0.2256	-0.0298	0.1958	1124.3251	0.157896	-423.016752	-423.00796	-423.007015	-423.050608	32.49	
C	-0.5016014734	 1.4466728828	-0.1730706851	-0.42319
C	 0.1141397131	 0.0565977684	-0.188820882	-0.04628
C	 1.5542291421	-0.1243122415	-0.7630940486	-0.378578
C	 1.8394773349	-1.0760027932	 0.4120301582	 0.343188
O	 2.6547963153	-1.9229287499	 0.6323782101	-0.298895
C	 0.5684247368	-0.5954324238	 1.1524922933	 0.342254
C	 0.7636504231	 0.1956876299	 2.4718089621	-0.349647
C	-0.0229612549	-0.971534471	 3.0991003185	-0.07275
O	-0.2778718012	-1.5469273814	 1.7973348099	-0.309186
H	 0.1743882656	 2.1788764983	 0.2824535879	 0.115661
H	-0.7201589063	 1.7891551673	-1.1895822539	 0.123684
H	-1.4413890918	 1.4579630418	 0.3894928038	 0.124845
H	-0.5647028317	-0.6548078787	-0.6720642116	 0.099171
H	 1.663594883	-0.5468025131	-1.7640255165	 0.133014
H	 2.1599730209	 0.787140195	-0.6993464479	 0.127099
H	 1.7934001657	 0.3250442382	 2.8071380728	 0.124499
H	 0.2451657172	 1.1552893014	 2.4962418673	 0.119334
H	 0.5733035405	-1.6433576918	 3.7264000094	 0.117763
H	-0.951965099	-0.7169344588	 3.6202068424	 0.108014
68.079	87.19	161.8142	209.8742	221.4768	264.0861	271.9021	424.0989	479.5383	539.6503	592.7986	654.7013	763.8302	811.2411	841.0291	871.0011	873.0427	956.3346	970.7559	1020.5583	1032.5033	1046.5152	1084.2151	1128.7338	1152.3514	1167.5338	1176.4557	1205.4719	1227.3426	1230.5835	1258.2366	1271.0594	1349.9987	1369.039	1409.6493	1444.2563	1480.3424	1495.8357	1498.6763	1528.8373	1890.3598	3028.5723	3031.9397	3046.3357	3052.7026	3077.052	3083.6851	3096.7858	3100.1742	3118.6503	3141.3779
CC1CC(=O)C11CCO1	C[C@H]1CC(=O)[C@]21CCO2	
InChI=1S/C7H10O2/c1-5-4-6(8)7(5)2-3-9-7/h5H,2-4H2,1H3	InChI=1S/C7H10O2/c1-5-4-6(8)7(5)2-3-9-7/h5H,2-4H2,1H3/t5-,7+/m0/s1
