17
gdb 46935	2.88935	1.89871	1.43091	3.9996	73.26	-0.2459	0.0077	0.2535	922.604	0.139324	-417.972499	-417.965832	-417.964888	-418.003532	26.907	
N	-0.0979092546	 1.2898673388	 0.1408439329	-0.521437
C	 0.011708803	 0.0407087577	-0.0441563147	 0.389703
O	 1.2337809058	-0.545312075	-0.2227503157	-0.260732
C	 1.3228170915	-1.8808109626	-0.7435610114	-0.093911
C	 0.2092431883	-2.7670656706	-0.2217343666	-0.072452
C	-0.1612432558	-2.5530303235	 1.2709649755	-0.16992
N	-1.4797137087	-1.9220129175	 0.9129934581	-0.151277
C	-1.1842762642	-2.2079303484	-0.5356614301	-0.072478
C	-1.2118541137	-0.811901741	-0.0548628046	-0.066818
H	 0.8231506197	 1.7315842638	 0.0929469955	 0.220062
H	 1.3076691829	-1.8408800183	-1.8418229288	 0.113439
H	 2.3060004201	-2.2412371981	-0.4273486394	 0.121184
H	 0.3709041153	-3.8063456311	-0.5110142293	 0.091293
H	-0.3567068932	-3.4859627904	 1.8024953039	 0.119605
H	 0.4980571344	-1.9223087783	 1.8732989607	 0.123973
H	-1.9201824503	-2.6241553391	-1.2152185683	 0.101471
H	-2.1087160804	-0.2279451963	-0.2195142477	 0.128293
104.4855	207.8148	325.7352	349.5912	414.8804	487.3435	547.451	657.8771	696.976	765.924	791.2142	813.2736	825.1032	883.03	911.6082	928.3761	970.1321	986.5323	1030.3598	1048.2854	1063.7814	1090.4712	1101.204	1157.4341	1180.65	1211.3076	1225.263	1291.2999	1297.1186	1308.8395	1327.4508	1355.565	1397.7247	1435.054	1501.9379	1505.1782	1736.6965	3010.7696	3066.0591	3085.6976	3103.9226	3125.0821	3169.0865	3202.051	3460.3172
N=C1OCC2CN3C2C13	[NH][C]1OC[C@H]2CN3[C@H]2[C@H]13	
InChI=1S/C6H8N2O/c7-6-5-4-3(2-9-6)1-8(4)5/h3-5,7H,1-2H2	InChI=1S/C6H8N2O/c7-6-5-4-3(2-9-6)1-8(4)5/h3-5,7H,1-2H2/t3-,4-,5-,8?/m1/s1
