25
gdb 104603	2.17701	1.04434	0.89941	1.296	89.14	-0.2588	0.075	0.3338	1497.103	0.227165	-389.47933	-389.468375	-389.46743	-389.51557	40.994	
C	 1.4394771403	 0.2803452158	-0.6345459419	-0.384542
C	 0.6066679497	-0.9797106257	-0.3569280413	 0.051593
C	 1.2649130076	-1.8239109396	 0.7431437133	-0.383005
C	-0.85290276	-0.5798669406	-0.0515433486	-0.283326
C	-1.8634464275	-1.7086823019	 0.1563549795	 0.391258
C	-2.0476728188	-2.1786301008	 1.5842127798	-0.157028
O	-2.5729724827	-1.0939007991	 2.3443802479	-0.421575
C	-3.1260563305	-1.7080871921	-0.6775374009	-0.299192
C	-2.0586548899	-2.7391874147	-0.9339585134	-0.319095
H	 2.4669001303	 0.0234607769	-0.9135429385	 0.10552
H	 1.0087275717	 0.8740975722	-1.4478444885	 0.107523
H	 1.4873835029	 0.9219020598	 0.2537013874	 0.111377
H	 0.6019632695	-1.5832916479	-1.2755314892	 0.068207
H	 1.2408728486	-1.3037522479	 1.7086578512	 0.108943
H	 0.7702149011	-2.7912333011	 0.8670337991	 0.115496
H	 2.3150213886	-2.0224129588	 0.5022236283	 0.105258
H	-0.8777589591	 0.059415797	 0.8397934881	 0.110689
H	-1.1974809857	 0.0507085233	-0.8800603397	 0.087699
H	-2.7388582737	-3.0370722918	 1.598215017	 0.076388
H	-1.0939183897	-2.5194751563	 2.0098720258	 0.085835
H	-2.5238704939	-1.3309579334	 3.2749584392	 0.284759
H	-4.0474832654	-2.0278521183	-0.2028846214	 0.112111
H	-3.2550049888	-0.9143499779	-1.4053955308	 0.108199
H	-1.4610831933	-2.6393403259	-1.8334716253	 0.111082
H	-2.2536454912	-3.7682129012	-0.6489714771	 0.105826
39.8323	75.7559	123.9191	168.3956	234.5031	235.8042	252.9098	268.1327	302.3246	317.4489	333.725	390.6025	425.0637	441.7976	567.4824	739.1499	780.6199	814.3709	874.4554	902.083	927.6802	935.7167	942.412	957.1635	967.6629	1002.1886	1039.8725	1057.8037	1066.31	1080.0548	1120.8915	1148.4211	1186.1994	1194.5435	1233.5424	1246.5039	1257.6623	1317.0044	1339.8486	1358.4652	1380.7298	1382.5351	1401.1954	1422.0306	1460.2747	1471.2079	1479.8468	1490.2149	1494.8262	1503.9427	1506.1588	1511.953	1522.424	2967.1439	3003.2769	3018.0716	3021.3447	3023.3663	3028.567	3063.6162	3084.1917	3091.0411	3096.6817	3107.1788	3127.6546	3132.2106	3204.5546	3219.3947	3830.0691
CC(C)CC1(CO)CC1	CC(C)CC1(CO)CC1	
InChI=1S/C8H16O/c1-7(2)5-8(6-9)3-4-8/h7,9H,3-6H2,1-2H3	InChI=1S/C8H16O/c1-7(2)5-8(6-9)3-4-8/h7,9H,3-6H2,1-2H3
