15
gdb 133016	4.96177	1.01182	0.84489	1.8989	77.24	-0.1986	-0.0665	0.1321	1275.6984	0.112902	-458.111497	-458.103593	-458.102648	-458.144293	29.113	
C	 0.0665954305	 1.4219657212	 0.3200185294	-0.323262
N	 0.0309505704	-0.0171399571	 0.1404120122	-0.333253
C	-1.0853483992	-0.5735401429	-0.1480174523	 0.372572
N	-1.1088359189	-1.9619481097	-0.3190716832	-0.335109
C	-2.2303292748	-2.6725851524	-0.6270041725	-0.13034
C	-3.3945681288	-1.9943058189	-0.7769706513	 0.279283
F	-4.5228907467	-2.6357845362	-1.0779704143	-0.076554
N	-3.4879458483	-0.6545695457	-0.6349584633	-0.262931
C	-2.4152984853	 0.0164468922	-0.3414730642	-0.086516
H	 1.0901890234	 1.7217555131	 0.5594930439	 0.121637
H	-0.2317475511	 1.9769180356	-0.5831363169	 0.110033
H	-0.5752753099	 1.7698458173	 1.1444278397	 0.110028
H	-0.2199811494	-2.4264393378	-0.1981863422	 0.269769
H	-2.1401805433	-3.7444189368	-0.7375550408	 0.151768
H	-2.5140018087	 1.0918552382	-0.2321995042	 0.132876
79.8267	113.8392	208.4741	219.662	330.1726	386.4495	405.6131	480.5068	485.7126	522.3804	639.4158	672.6637	754.4549	769.0012	840.4397	861.767	932.2453	990.3152	1063.3591	1112.1935	1149.2307	1181.328	1280.938	1328.6178	1344.2174	1414.1308	1448.5913	1480.8062	1492.7396	1507.7569	1573.5395	1672.2499	1715.994	2967.5494	3011.5101	3094.2055	3183.9483	3230.1788	3612.278
CN=C1NC=C(F)N=C1	CN=c1[nH]cc(F)nc1	
InChI=1S/C5H6FN3/c1-7-5-3-8-4(6)2-9-5/h2-3H,1H3,(H,7,9)	InChI=1S/C5H6FN3/c1-7-5-3-8-4(6)2-9-5/h2-3H,1H3,(H,7,9)
