18
gdb 116412	2.25444	1.61196	1.2432	1.4579	69.51	-0.2646	0.0099	0.2745	1077.3761	0.14838	-476.214143	-476.205529	-476.204585	-476.247864	31.142	
C	 0.5497011981	 0.570814789	 0.4794671527	-0.241273
O	-0.1098947339	-0.5588040201	-0.0696759429	-0.249666
C	-1.528556882	-0.4427883111	-0.1104260726	-0.026058
C	-2.0486578134	-1.6046965154	-0.9678615401	-0.086475
O	-2.3652499288	-2.7630836397	-0.1934342125	-0.241877
C	-1.6677047792	-2.816933558	 1.0050143254	 0.012074
O	-2.0614436075	-1.7443754766	 1.8775291078	-0.252655
C	-2.1092008788	-0.5177151928	 1.2930036199	 0.411487
N	-2.5741996016	 0.5084314362	 1.8706814199	-0.520184
H	 1.6203653628	 0.3645225045	 0.4190534223	 0.129173
H	 0.3229458043	 1.47929963	-0.0967790255	 0.115289
H	 0.2700073687	 0.7478201385	 1.5248780616	 0.131241
H	-1.8194596154	 0.5209264013	-0.544992715	 0.101651
H	-2.9724722206	-1.3170475199	-1.4761929253	 0.12728
H	-1.283269961	-1.8407186766	-1.7180181893	 0.118053
H	-1.9547671207	-3.7357101701	 1.5172242485	 0.129498
H	-0.5824787658	-2.7658895449	 0.8540275318	 0.120491
H	-2.907805595	 0.2640360858	 2.8067592333	 0.221951
78.5512	105.9916	120.6878	175.4094	257.3816	286.4805	342.5869	398.9537	428.2282	508.6414	592.4094	700.2364	781.6439	843.8696	865.8696	920.4455	942.9215	995.3987	1021.514	1067.1573	1119.8323	1127.1266	1155.2095	1186.4008	1205.7566	1222.1992	1254.1224	1297.9011	1321.2224	1347.7911	1365.6072	1409.3205	1455.3278	1477.8844	1486.4224	1495.9098	1509.3847	1521.9302	1753.8634	2999.9624	3027.8042	3034.7956	3042.8067	3064.6978	3101.0603	3126.8596	3135.0135	3450.6345
COC1COCOC1=N	CO[C@H]1COCO[C]1[NH]	
InChI=1S/C5H9NO3/c1-7-4-2-8-3-9-5(4)6/h4,6H,2-3H2,1H3	InChI=1S/C5H9NO3/c1-7-4-2-8-3-9-5(4)6/h4,6H,2-3H2,1H3/t4-/m0/s1
