14
gdb 49222	3.10807	1.16766	0.96219	2.9271	69.11	-0.2626	-0.0871	0.1756	1178.9312	0.101917	-432.894532	-432.886634	-432.88569	-432.927677	28.074	
O	-0.7813793212	 1.3088511443	 0.2714868511	-0.253791
C	 0.3272954689	 0.9079934548	 0.0151806809	 0.116365
C	 1.4878070082	 1.8256646168	-0.1363514628	 0.280627
N	 2.6803412009	 1.4042390656	-0.3359769895	-0.267692
C	 3.5275422286	 2.5997332644	-0.4083338706	-0.184625
C	 2.622219563	 3.7972283425	 0.0669310565	-0.14443
N	 1.2940745446	 3.1945941409	-0.0767038588	-0.333162
C	 2.9028003866	 4.213788172	 1.4505812429	 0.269467
N	 3.1160060713	 4.5439797725	 2.5374362572	-0.307227
H	 0.579495001	-0.1608874028	-0.1103687504	 0.120855
H	 4.4252275945	 2.4840605491	 0.202102857	 0.149192
H	 3.8430750653	 2.7565768901	-1.4462479419	 0.138819
H	 2.7352467187	 4.6712449883	-0.5801000723	 0.142751
H	 0.5059383395	 3.5472306515	 0.4479357907	 0.272851
70.1747	108.7682	181.6997	209.6947	265.5052	292.5816	458.4723	505.826	556.3192	570.3309	626.5214	757.5003	802.0362	809.3434	945.4617	992.8598	1017.103	1026.4294	1039.8578	1080.7315	1211.8942	1239.0561	1270.9479	1327.9091	1363.2403	1385.5198	1462.0707	1482.4082	1688.9205	1806.7575	2353.6598	2979.4017	3045.1177	3075.1597	3113.6605	3613.4509
O=CC1=NCC(N1)C#N	O=C[C]1[N]C[C@@H](N1)C#N	
InChI=1S/C5H5N3O/c6-1-4-2-7-5(3-9)8-4/h3-4H,2H2,(H,7,8)	InChI=1S/C5H5N3O/c6-1-4-2-7-5(3-9)8-4/h3-4H,2H2,(H,7,8)/t4-/m0/s1
