17
gdb 63410	3.13037	1.17392	1.03768	3.2469	72.36	-0.2565	-0.0323	0.2241	1190.0559	0.134335	-455.164735	-455.155439	-455.154495	-455.19896	33.261	
C	-0.5374585557	 1.5251500343	 0.1422856785	-0.443674
C	-0.0389328922	 0.094971432	-0.0023191772	 0.304071
O	-1.0906975652	-0.8467616584	 0.0404032286	-0.467942
C	 0.9091189045	-0.1972939025	-1.2129321496	-0.216156
N	 1.9724983546	-0.5003894213	-0.2323495207	-0.114367
C	 3.2661553013	-0.9305786926	-0.3391425312	 0.137677
O	 3.9744302218	-1.1745534413	 0.6123347898	-0.301506
C	 1.1486047796	-0.2894144785	 0.892636637	 0.354275
N	 1.2678947986	-0.4042074124	 2.138837087	-0.552601
H	 0.2789213912	 2.2468106182	 0.0405110115	 0.124004
H	-1.2950690062	 1.7337873672	-0.6186038849	 0.130534
H	-0.986129572	 1.6630037355	 1.1307774029	 0.137359
H	-1.3203706486	-0.9759935963	 0.9684269339	 0.297509
H	 0.5921838286	-1.0612234148	-1.8002160338	 0.13917
H	 1.1335209614	 0.6545658015	-1.8591789956	 0.124801
H	 3.595193975	-1.0279810373	-1.3917625358	 0.093855
H	 2.2022055933	-0.7282271133	 2.3939277197	 0.252992
60.8418	122.5094	167.7125	193.9676	227.578	240.2007	252.423	307.5483	338.0788	395.6862	501.267	548.2706	692.3112	706.198	776.5289	867.4242	906.2656	929.0621	949.7549	976.1002	1031.3519	1104.7964	1146.9578	1162.8288	1184.1187	1232.3702	1253.6339	1323.0939	1365.5667	1395.9793	1408.4192	1433.1174	1486.4029	1489.2689	1504.039	1758.2188	1824.0788	2950.2647	3039.3883	3065.5586	3114.1373	3120.897	3130.5695	3484.4316	3796.8281
CC1(O)CN(C=O)C1=N	C[C@@]1(O)CN(C=O)[C]1[NH]	
InChI=1S/C5H8N2O2/c1-5(9)2-7(3-8)4(5)6/h3,6,9H,2H2,1H3	InChI=1S/C5H8N2O2/c1-5(9)2-7(3-8)4(5)6/h3,6,9H,2H2,1H3/t5-/m1/s1
