21
gdb 105768	2.31985	1.35358	1.11809	1.338	83.71	-0.2577	0.0485	0.3062	1206.4747	0.182607	-387.070321	-387.060844	-387.0599	-387.104852	35.858	
O	-0.0130064935	 1.162922692	-0.4835506524	-0.422307
C	-0.2481922561	-0.2134651174	-0.278035639	-0.080488
C	-1.6960103836	-0.5139288004	 0.1965695053	 0.073593
C	-2.7243088488	-0.1023703367	-0.8913078932	-0.224448
C	-2.7211776956	-1.2676869862	-1.9056719259	-0.221258
C	-2.2259094119	-2.5213713508	-1.1265115258	-0.216994
C	-1.9251120738	-2.0435474283	 0.3132578012	-0.241351
C	-1.9050065165	 0.193522974	 1.4573884163	 0.245264
C	-2.0329320816	 0.8082938132	 2.4846848365	-0.440726
H	-0.2140971666	 1.6079800184	 0.3491411052	 0.285252
H	-0.0679944304	-0.6996443651	-1.2415498839	 0.108888
H	 0.4564136722	-0.640856493	 0.4518031164	 0.092529
H	-3.7093487806	 0.0024854496	-0.4265985201	 0.103014
H	-2.4603451582	 0.860787049	-1.3332537587	 0.118287
H	-3.7146943228	-1.4175930501	-2.3360490944	 0.101123
H	-2.0525379739	-1.0484746975	-2.7431170257	 0.107805
H	-2.968569885	-3.3234087883	-1.1242134419	 0.10212
H	-1.3274744754	-2.9350262102	-1.5938445449	 0.104248
H	-1.0704932103	-2.5541659916	 0.7676587476	 0.102162
H	-2.7861771161	-2.2186502903	 0.9651062181	 0.109988
H	-2.1712741714	 1.3319706095	 3.3982948594	 0.193298
49.0045	116.8493	128.3372	150.9831	199.369	253.1332	336.4141	399.8492	447.9097	491.6819	528.8935	596.2055	621.0297	645.5278	655.2191	721.0861	801.4833	816.1179	887.8715	907.0352	928.3735	966.3278	1014.0103	1047.2647	1052.3466	1087.0526	1112.9705	1138.0088	1206.7147	1223.0485	1254.7065	1260.448	1272.2588	1307.6619	1329.0633	1337.5742	1358.5764	1383.7979	1429.5374	1485.1962	1494.7299	1495.633	1506.3642	1520.9142	2221.6365	2986.4019	3049.1553	3052.2749	3056.6651	3063.8047	3079.4744	3085.6565	3092.9953	3107.0003	3118.8615	3499.3169	3775.2009
OCC1(CCCC1)C#C	OCC1(CCCC1)C#C	
InChI=1S/C8H12O/c1-2-8(7-9)5-3-4-6-8/h1,9H,3-7H2	InChI=1S/C8H12O/c1-2-8(7-9)5-3-4-6-8/h1,9H,3-7H2
