20
gdb 12288	2.72943	1.73075	1.47805	2.4259	71.55	-0.2464	0.0733	0.3197	988.2571	0.175979	-386.119416	-386.110545	-386.109601	-386.152519	32.942	
C	 0.1704955605	 0.8794950846	-0.765330741	-0.239232
O	-0.0454452246	-0.4248625117	-0.2688007824	-0.252228
C	-1.3450441838	-0.6181120997	 0.2732452379	 0.098968
C	-2.3917431425	-0.9512384273	-0.828536841	-0.279363
C	-2.0188390748	-2.4525337107	-0.6493315759	 0.13479
O	-1.036332614	-2.9053761646	-1.5550485871	-0.438633
C	-1.4683705376	-2.0845195306	 0.7687531836	-0.01952
C	-0.2580327555	-2.8097920505	 1.3308774644	-0.404407
H	 1.1951086809	 0.9179240796	-1.1425822007	 0.129944
H	-0.5193673605	 1.1329360565	-1.5830403993	 0.112022
H	 0.0539749928	 1.6308576489	 0.0299267512	 0.111198
H	-1.5760900506	 0.1886834671	 0.9827429034	 0.058725
H	-3.413318682	-0.7284745744	-0.5078756168	 0.101136
H	-2.2244787395	-0.5294056551	-1.8228396322	 0.101765
H	-2.8310545904	-3.1823092539	-0.6913729299	 0.075526
H	-0.3218410855	-2.2551208379	-1.535644454	 0.283362
H	-2.3015469271	-2.1238156048	 1.4799005358	 0.075161
H	 0.5776735701	-2.7950856519	 0.6291123411	 0.12473
H	 0.0786200649	-2.3474006255	 2.2647495212	 0.1106
H	-0.5029767507	-3.8559856881	 1.5410974117	 0.115456
102.6178	135.6804	155.2936	180.5112	214.3924	234.92	322.1808	382.966	429.5468	480.9443	515.425	590.9232	708.1834	811.7063	849.4131	885.5866	907.5263	947.5937	1000.5207	1020.6446	1060.3253	1101.4315	1145.3351	1157.1174	1168.404	1178.531	1185.6171	1227.9156	1251.1305	1262.2067	1282.7984	1331.7211	1368.0251	1376.0618	1411.9905	1450.3742	1466.0524	1481.3067	1487.318	1491.7531	1493.8066	1509.3461	2984.701	3002.3834	3036.0363	3038.2952	3045.0637	3058.9289	3083.1248	3099.9359	3116.7421	3117.7604	3134.6476	3763.2512
COC1CC(O)C1C	CO[C@H]1C[C@@H](O)[C@H]1C	
InChI=1S/C6H12O2/c1-4-5(7)3-6(4)8-2/h4-7H,3H2,1-2H3	InChI=1S/C6H12O2/c1-4-5(7)3-6(4)8-2/h4-7H,3H2,1-2H3/t4-,5-,6+/m1/s1
