19
gdb 90855	4.03112	1.45064	1.3679	1.1501	79.29	-0.2208	0.0119	0.2327	1005.3516	0.161344	-385.865172	-385.858316	-385.857372	-385.895979	28.882	
C	-0.106625012	 1.5060415049	-0.0456830517	-0.408879
C	 0.0626990355	-0.0001485301	 0.0729349022	 0.127303
O	 0.8982235068	-0.5093760667	-1.0051062123	-0.292414
C	 1.8983870186	-1.2005192586	-0.301059913	 0.134902
C	 1.1988699076	-2.0020036917	 0.8695731377	-0.100414
C	 2.3595171674	-2.3727130226	 1.7670673354	-0.112833
C	 3.1071410106	-1.2630712463	 1.7952912785	-0.108893
C	 2.353821365	-0.2926606188	 0.9100110151	-0.10003
C	 0.8371973759	-0.5232353883	 1.2805378572	-0.063305
H	 0.8490787041	 2.0261252899	 0.0617809949	 0.121958
H	-0.5246786354	 1.7605320648	-1.0238993409	 0.128306
H	-0.7920333113	 1.874193985	 0.7250801499	 0.114209
H	-0.9198424808	-0.4862004585	-0.0021561435	 0.078645
H	 2.6136042961	-1.6659898383	-0.9804843797	 0.083302
H	 0.4171359598	-2.7305282834	 0.6522686036	 0.062368
H	 2.5305184774	-3.336430723	 2.2249448659	 0.101608
H	 4.0533359457	-1.0765504707	 2.2828523644	 0.101022
H	 2.7552471811	 0.7055987774	 0.7381379322	 0.063624
H	 0.457314658	-0.292234515	 2.277089024	 0.069522
178.2412	216.7403	246.9614	354.7739	427.4699	475.3495	532.7109	612.0243	645.0043	708.3881	735.5846	823.8499	842.7836	888.9763	903.6662	918.8387	925.7295	940.7262	959.0898	971.6856	1024.9853	1035.4358	1053.5369	1081.2382	1095.9002	1133.3067	1145.5612	1180.8179	1190.0431	1194.1149	1241.8029	1245.2599	1269.9278	1303.7468	1332.8927	1355.7045	1388.8656	1411.0073	1488.5639	1497.016	1624.5708	3008.3041	3040.6649	3106.8508	3111.0206	3114.3495	3117.4828	3123.6936	3128.3619	3220.8984	3247.1233
CC1OC2C3C=CC2C13	C[C@H]1O[C@@H]2[C@H]3C=C[C@@H]2[C@@H]13	
InChI=1S/C8H10O/c1-4-7-5-2-3-6(7)8(5)9-4/h2-8H,1H3	InChI=1S/C8H10O/c1-4-7-5-2-3-6(7)8(5)9-4/h2-8H,1H3/t4-,5-,6+,7-,8+/m1/s1
