16
gdb 32552	2.72572	1.56836	1.0019	6.4872	77.83	-0.1971	-0.0044	0.1927	1133.5143	0.126463	-434.085901	-434.077936	-434.076992	-434.118486	29.905	
C	-0.0577718364	 1.3676742339	-0.0585372879	-0.244786
O	 0.0085716717	-0.042817862	 0.0076947349	-0.227399
C	 0.6391357235	-0.5886127476	 1.0644252581	 0.309048
C	 1.2155235655	 0.107743641	 2.071011183	-0.146234
N	 1.8362166831	-0.5872416752	 3.1058081175	-0.313189
C	 1.8519521141	-1.9449312044	 3.0862356349	 0.090707
N	 1.3267626054	-2.6731552233	 2.1658970681	-0.326509
C	 0.6747033119	-2.0667431387	 1.0749728672	 0.274459
N	 0.1311097732	-2.7306018032	 0.1258585776	-0.526743
H	 0.9447695566	 1.8153555298	-0.1020166006	 0.119863
H	-0.5993239054	 1.6053575926	-0.9746362677	 0.145235
H	-0.598195089	 1.7852602808	 0.8022589753	 0.119863
H	 1.2356876632	 1.1842548411	 2.1420471649	 0.123487
H	 2.2694603975	-0.084582109	 3.8616544899	 0.26583
H	 2.3557215196	-2.4151161291	 3.9290745731	 0.124789
H	 0.2660771555	-3.7251737465	 0.3221988316	 0.211577
89.5463	126.0872	233.6112	250.312	331.1699	357.9553	370.3499	435.503	503.863	556.2048	576.9997	585.1627	767.0748	787.6484	805.5603	902.0628	920.8965	953.421	1012.1556	1080.1797	1085.1556	1177.0879	1209.3798	1226.2247	1292.9078	1302.6178	1408.5973	1426.5875	1477.9023	1490.1624	1506.0783	1533.5333	1659.0951	1674.2095	1699.5899	2994.4945	3050.7797	3142.8053	3147.6051	3246.6769	3453.0835	3660.6495
COC1=CNC=NC1=N	COC1=CNCN=C1[NH]	
InChI=1S/C5H7N3O/c1-9-4-2-7-3-8-5(4)6/h2-3H,1H3,(H2,6,7,8)	InChI=1S/C5H8N3O/c1-9-4-2-7-3-8-5(4)6/h2,6-7H,3H2,1H3
