23
gdb 104164	3.00481	1.05475	1.00039	2.6789	81.28	-0.245	0.0747	0.3198	1347.8585	0.205437	-425.443917	-425.434153	-425.433208	-425.478461	37.351	
C	 0.1327498373	 1.5557910191	-0.0292744192	-0.412434
C	 0.1393508599	 0.029511617	-0.026233628	 0.034358
C	 1.0851626862	-0.6113612511	-1.0465160133	-0.091087
O	 1.252185535	-1.9515515763	-0.6090266536	-0.308051
C	 1.2205685948	-1.9855448632	 0.8435304462	 0.364058
C	 0.3585131006	-3.1799798559	 1.2441009737	-0.425209
C	 2.6777411905	-2.1660804145	 1.3012890187	-0.080939
O	 3.2715108838	-3.29834396	 0.7028223034	-0.425063
C	 0.6370389849	-0.6195141457	 1.2822108153	-0.305293
H	 1.1335591455	 1.953380852	 0.1751003761	 0.116222
H	-0.1937988112	 1.9513841971	-0.9970402145	 0.117211
H	-0.5445720877	 1.9512725266	 0.7341944849	 0.120159
H	-0.8733358112	-0.3365272304	-0.2357318989	 0.081602
H	 0.6877029166	-0.6366429988	-2.0657689091	 0.107206
H	 2.0481015412	-0.072693798	-1.0691525751	 0.084203
H	 0.7919007532	-4.1034046586	 0.8538925105	 0.132524
H	 0.3022291682	-3.262513366	 2.3343538877	 0.111277
H	-0.6550374774	-3.0700090146	 0.8485306531	 0.111148
H	 3.2407814775	-1.2478450453	 1.0629386593	 0.075139
H	 2.7241324764	-2.3081509705	 2.3870642084	 0.103305
H	 3.0628202944	-3.2213967999	-0.2375141672	 0.286343
H	 1.4180091087	 0.004786803	 1.734114652	 0.09747
H	-0.1584856673	-0.7328366759	 2.0225720095	 0.10585
46.0869	129.013	162.8772	228.6995	232.2158	254.2348	275.4734	330.6334	352.8904	411.9261	434.3173	478.237	514.1691	591.3078	668.3171	774.9814	858.8509	870.0254	891.369	933.22	935.4321	959.9172	985.1988	1049.7822	1075.1086	1081.7143	1110.3772	1141.4007	1170.3852	1188.3473	1213.8219	1226.3888	1262.4818	1299.7152	1308.786	1335.2437	1352.7249	1380.1436	1400.7415	1409.6605	1415.9122	1437.6236	1480.6479	1495.6513	1497.158	1498.7475	1500.7823	1502.4052	1520.5239	2955.335	2963.0954	3023.9603	3028.0695	3035.036	3042.356	3064.035	3078.4442	3094.0528	3099.4018	3101.6892	3112.4638	3134.827	3767.8773
CC1COC(C)(CO)C1	C[C@H]1CO[C@@](C)(CO)C1	
InChI=1S/C7H14O2/c1-6-3-7(2,5-8)9-4-6/h6,8H,3-5H2,1-2H3	InChI=1S/C7H14O2/c1-6-3-7(2,5-8)9-4-6/h6,8H,3-5H2,1-2H3/t6-,7-/m1/s1
