15
gdb 50450	3.09936	1.33944	0.94075	10.8902	77.59	-0.1906	-0.0513	0.1393	1161.9835	0.113039	-453.979404	-453.971211	-453.970267	-454.012203	30.222	
N	-0.0071935257	 0.9884210764	 0.0043395224	-0.549899
H	-0.1972535976	-0.0151165091	 0.0028062005	 0.294055
H	 0.9290587606	 1.3526788297	-0.0014185381	 0.27827
C	-1.1199411626	 1.686494934	 0.0144268737	 0.439817
N	-1.3257867694	 2.9853486976	 0.0196648192	-0.353988
C	-2.7701189468	 3.2826102932	 0.0309722701	-0.271096
C	-3.4103355349	 1.9166737124	 0.0316991041	 0.024534
C	-4.8387691517	 1.7577256192	 0.0416156539	 0.061772
O	-5.4573900828	 0.7082143634	 0.0428979613	-0.305137
C	-2.422834553	 0.9145847173	 0.0216431205	 0.256956
O	-2.3571813303	-0.3192383504	 0.0176381245	-0.435045
H	-0.6162271134	 3.7006688986	 0.0165661588	 0.269764
H	-2.9991110883	 3.8867314088	 0.9197094515	 0.13404
H	-3.0119318522	 3.8917944643	-0.8508854889	 0.134041
H	-5.394221142	 2.7313492045	 0.0482554865	 0.021917
94.6668	160.6278	186.8859	221.2049	283.214	284.7478	384.2655	442.4794	460.1372	531.8359	562.2542	635.8389	727.5112	738.7955	781.4918	801.5709	977.3911	984.7387	1014.9054	1041.6224	1087.7123	1175.4858	1195.13	1241.9688	1383.2626	1417.4767	1430.2191	1462.1624	1504.3353	1562.4564	1709.7591	1757.9888	1783.437	2780.9926	3004.7508	3029.2784	3439.6132	3632.9185	3703.1119
[NH2+]=C1NC[C-](C=O)C1=O	N[C]1NC[C](C=O)C1=O	
InChI=1S/C5H5N2O2/c6-5-4(9)3(2-8)1-7-5/h2H,1H2,(H2,6,7)/q-1/p+1	InChI=1S/C5H6N2O2/c6-5-4(9)3(2-8)1-7-5/h2,7H,1,6H2
