17
gdb 85574	2.77186	1.42309	1.10487	1.8208	70.47	-0.2519	0.0096	0.2615	1107.1177	0.137198	-455.191555	-455.183164	-455.18222	-455.224918	31.099	
C	 0.2175279639	 1.5155802011	 0.0262685449	-0.392625
C	 0.0487320326	-0.0153676189	 0.030930631	-0.074351
N	 0.6219714961	-0.6577355763	-1.1477525726	-0.313328
C	 1.9358817811	-0.990444694	-1.2494588622	 0.386176
O	 2.4870340955	-1.3250625079	-2.2783928719	-0.364003
C	 2.6907042919	-0.9012457416	 0.0720403465	-0.20372
O	 1.8935670311	-1.1188452851	 1.2401394742	-0.244554
C	 0.6274435794	-0.6304187995	 1.2942756734	 0.411197
N	-0.0705860018	-0.6724811514	 2.3475334039	-0.515244
H	 1.2737084512	 1.8023608048	 0.0396858984	 0.124959
H	-0.2371190131	 1.9412867885	-0.8732220771	 0.123375
H	-0.270610276	 1.943038404	 0.9052738676	 0.151076
H	-1.0178022352	-0.2465865848	 0.0544420002	 0.131612
H	 0.1056983788	-0.6334278865	-2.0157758367	 0.256398
H	 3.4625182259	-1.6708943736	 0.0749391436	 0.158569
H	 3.1852242417	 0.0779309314	 0.133666645	 0.138817
H	 0.4666265269	-1.0775224802	 3.116568922	 0.225647
66.3685	105.5646	158.1826	228.2684	253.0641	380.7907	408.7502	426.0668	466.28	507.0582	581.5557	640.7497	685.5844	736.2143	784.35	879.2011	904.4387	946.8068	1016.0169	1019.3447	1055.0256	1106.4084	1131.3142	1173.4413	1252.4789	1295.7578	1319.1801	1343.7366	1393.9191	1398.5757	1414.9256	1468.2208	1486.2448	1492.0227	1503.4383	1756.2505	1811.8628	3020.538	3042.2861	3093.8193	3117.0468	3134.7262	3139.615	3471.2848	3606.0075
CC1NC(=O)COC1=N	C[C@H]1NC(=O)CO[C]1[NH]	
InChI=1S/C5H8N2O2/c1-3-5(6)9-2-4(8)7-3/h3,6H,2H2,1H3,(H,7,8)	InChI=1S/C5H8N2O2/c1-3-5(6)9-2-4(8)7-3/h3,6H,2H2,1H3,(H,7,8)/t3-/m1/s1
