16
gdb 70065	3.20998	1.62772	1.29502	4.0602	68.42	-0.2345	0.0054	0.2399	963.9215	0.125078	-437.82967	-437.82267	-437.821726	-437.86073	28.267	
O	-0.1832353526	 1.4736261391	 0.0102482702	-0.464275
C	-0.0168834757	 0.0904097283	 0.0188734768	 0.336478
C	-0.4289190652	-0.696475181	-1.203191246	-0.348939
C	-1.2738801478	-0.8214209337	 0.048404373	-0.041619
N	-0.9900591565	-2.0469798387	 0.7943233303	-0.296447
C	 0.1485156778	-1.8155293119	 1.2981962152	 0.405276
O	 1.2339962087	-2.5889700377	 1.6153634447	-0.262853
C	 2.0877721294	-1.5049017596	 1.0687710167	-0.131297
C	 0.8667156671	-0.5241639133	 1.0835280173	-0.218363
H	 0.451688819	 1.8501788312	-0.6089480334	 0.286265
H	-0.834791092	-0.0877653981	-2.0046782482	 0.121612
H	 0.1277454269	-1.5715633828	-1.5237290427	 0.122143
H	-2.2787440847	-0.4182744526	 0.0715518208	 0.108088
H	 2.9090541434	-1.2772635844	 1.749173253	 0.131955
H	 2.4511937944	-1.7905744575	 0.078683397	 0.131554
H	 0.9071793978	 0.1320667227	 1.9565852653	 0.120422
179.6231	214.6131	274.9604	299.7927	358.0161	455.4201	487.4699	503.0752	608.3823	666.5797	695.2952	770.3587	816.4562	861.9283	879.4894	926.1828	954.3387	982.8069	1017.2379	1030.9692	1058.7165	1077.0763	1103.878	1148.9273	1154.5687	1206.9755	1211.1928	1262.1106	1300.025	1321.2734	1355.3581	1393.2991	1462.8987	1498.2181	1737.2316	3068.4565	3085.1847	3123.4404	3144.6619	3195.56	3217.4279	3793.3569
OC12CC1N=C1OCC21	O[C@]12C[C@H]1[N][C]1OC[C@@H]21	
InChI=1S/C6H7NO2/c8-6-1-4(6)7-5-3(6)2-9-5/h3-4,8H,1-2H2	InChI=1S/C6H7NO2/c8-6-1-4(6)7-5-3(6)2-9-5/h3-4,8H,1-2H2/t3-,4-,6+/m1/s1
