21
gdb 119998	3.0907	0.78776	0.77205	3.0809	75.06	-0.2493	0.0532	0.3024	1580.5727	0.181723	-461.328629	-461.318434	-461.317489	-461.364582	37.157	
O	 0.2304217044	 1.3221156913	 0.1501959153	-0.421108
C	 0.0485171839	-0.082050632	 0.2379861837	-0.061082
C	-1.3271189395	-0.531914597	-0.2672424402	-0.222813
C	-1.4750478387	-2.0366917185	-0.1990438367	-0.056268
C	-2.0794578717	-2.6931277772	 1.0165258441	 0.096923
O	-2.5935816228	-1.8669900028	 2.0183271558	-0.4304
C	-2.8190751286	-2.7540471449	-0.3031225738	-0.13871
C	-4.1387642115	-2.0181347674	-0.4095964446	-0.108643
O	-5.0380926086	-2.3571216779	 0.6613508707	-0.418125
H	-0.3932590219	 1.733889301	 0.7567233843	 0.281619
H	 0.8390480017	-0.5208171256	-0.3816057835	 0.105527
H	 0.1992578288	-0.4462171098	 1.2656187341	 0.102081
H	-2.0914155336	-0.0583788801	 0.3575357969	 0.103131
H	-1.4614596302	-0.1671570469	-1.2927261153	 0.099781
H	-0.6516400117	-2.5818579472	-0.6555752426	 0.084628
H	-1.6199526984	-3.6094633019	 1.3860770119	 0.083768
H	-3.5539759949	-1.9941631338	 2.0124160354	 0.295561
H	-2.7974715584	-3.7120636747	-0.8171963079	 0.084288
H	-4.0098573054	-0.9376970036	-0.3305440309	 0.127298
H	-4.6132270459	-2.2177645977	-1.3795880422	 0.1043
H	-5.1920862371	-3.3071565333	 0.6224046653	 0.288245
48.0142	79.2566	96.4413	140.742	196.3643	245.8341	268.9291	306.7745	313.2932	396.6778	415.0228	520.2184	563.8802	620.792	657.1695	770.351	805.5881	806.3055	903.7453	947.1581	983.5845	1018.0008	1033.8538	1060.0369	1074.1343	1085.4533	1114.4195	1137.9143	1149.4293	1200.9916	1230.6669	1256.9806	1291.8679	1322.6106	1355.343	1375.7472	1381.5631	1397.4357	1405.9901	1419.182	1426.7144	1446.1278	1480.972	1506.2197	1511.2298	2991.2488	3017.5886	3033.8339	3058.2847	3087.1245	3098.2234	3115.9031	3125.3858	3138.1819	3705.0936	3811.3914	3815.7078
OCCC1C(O)C1CO	OCC[C@H]1[C@@H](O)[C@H]1CO	
InChI=1S/C6H12O3/c7-2-1-4-5(3-8)6(4)9/h4-9H,1-3H2	InChI=1S/C6H12O3/c7-2-1-4-5(3-8)6(4)9/h4-9H,1-3H2/t4-,5+,6-/m1/s1
