20
gdb 115072	3.095	1.26189	0.98921	1.925	79.95	-0.2246	0.0185	0.2431	1218.4392	0.172864	-403.129209	-403.120862	-403.119918	-403.162182	32.415	
O	 0.0463822195	 1.3734010667	-0.0774609107	-0.425311
C	 0.0350955447	-0.0475616736	-0.0739085431	-0.089326
C	-1.4154895731	-0.516782511	 0.0127028429	 0.019961
C	-2.2453806527	-0.0089029563	-1.1884951093	-0.257197
C	-3.5887566275	-0.6791639783	-1.30521019	-0.094277
C	-3.7981764887	-1.9338014364	-0.9044187481	-0.015235
C	-2.7078242943	-2.734724855	-0.295464299	-0.090695
N	-1.4294116076	-2.8298435411	-1.0618432205	-0.338087
C	-1.4851626105	-2.0243600988	 0.1671796237	-0.04631
H	 0.9506243087	 1.6673381055	-0.2190307329	 0.286227
H	 0.4903797607	-0.4563231771	-0.9897137626	 0.097493
H	 0.6040763497	-0.4431536613	 0.7841470722	 0.076624
H	-1.8452901194	-0.0867127487	 0.9285403966	 0.083283
H	-2.356323894	 1.0754109782	-1.1081713229	 0.115579
H	-1.6755955092	-0.1889324698	-2.1100308419	 0.122824
H	-4.3961406244	-0.1127106158	-1.7616253816	 0.086812
H	-4.7720714886	-2.4020931001	-1.0124273023	 0.082728
H	-3.0082643925	-3.6224128112	 0.2546082584	 0.080138
H	-0.9873553915	-3.7253879114	-0.8684783441	 0.227367
H	-0.9883460993	-2.4197733247	 1.0524725851	 0.0774
83.7805	125.8702	188.2695	246.1378	263.5701	315.198	357.7417	460.5454	502.0515	513.0329	641.6768	713.2109	730.8833	813.3565	856.5645	870.5164	912.7399	930.6053	955.5613	979.5395	985.0494	1044.831	1063.29	1073.5954	1102.6949	1131.7808	1161.9706	1178.584	1204.6471	1225.1994	1245.5316	1262.894	1278.3826	1321.1787	1339.5922	1369.8538	1391.9595	1427.1783	1455.5878	1458.2958	1473.9794	1521.8079	1711.678	2957.3834	2992.175	3012.8985	3025.1038	3092.142	3108.0042	3140.1717	3154.7994	3178.8557	3492.952	3833.4322
OCC1CC=CC2NC12	OC[C@H]1CC=C[C@H]2N[C@@H]12	
InChI=1S/C7H11NO/c9-4-5-2-1-3-6-7(5)8-6/h1,3,5-9H,2,4H2	InChI=1S/C7H11NO/c9-4-5-2-1-3-6-7(5)8-6/h1,3,5-9H,2,4H2/t5-,6-,7+/m1/s1
