21
gdb 88086	3.21633	1.29059	1.20119	1.6052	82.86	-0.2197	0.0784	0.2981	1150.1888	0.184471	-383.225769	-383.217651	-383.216707	-383.25811	32.443	
C	-0.2017226007	 1.4299164042	-0.0447160023	-0.313393
N	 0.0166539352	-0.0045474374	 0.0700842048	-0.134613
C	 1.3649910918	-0.5071406272	-0.1850468907	-0.316679
C	 0.7920590359	-0.5146894184	 1.1934068594	 0.420944
C	 1.3653282141	 0.3571969106	 2.3205965739	-0.311837
C	 1.8875283798	-0.6556932946	 3.3709080963	-0.21703
C	 1.0173667212	-1.8870724118	 3.1719521076	-0.030677
N	-0.4231451374	-1.5598685415	 3.0919782645	-0.347833
C	 0.3550337982	-1.7944903603	 1.8495468794	-0.117152
H	 0.6638470886	 2.0454856112	 0.2470619122	 0.098129
H	-0.4506802199	 1.6670629861	-1.084159395	 0.119708
H	-1.0527141291	 1.7170387928	 0.5808765046	 0.127651
H	 1.430340066	-1.4186329155	-0.7760540326	 0.105419
H	 2.1534037985	 0.2188094536	-0.3855677068	 0.099566
H	 2.1455880188	 1.0419082863	 1.9829606045	 0.096907
H	 0.5597955994	 0.9536815601	 2.7575442252	 0.124647
H	 2.9314908077	-0.9220474832	 3.1677022851	 0.099258
H	 1.8373412396	-0.2588834033	 4.3895985019	 0.102423
H	 1.3180073595	-2.8389605387	 3.5979767133	 0.082235
H	-0.9646517883	-2.3960878303	 3.2973697277	 0.229128
H	 0.1277372511	-2.6604386429	 1.2373974971	 0.083197
109.7321	163.1715	201.291	223.1335	301.9138	370.2703	380.519	436.1042	495.1484	550.3527	651.1611	738.0226	808.9535	821.2025	851.038	871.1385	908.9329	918.687	928.0761	944.2833	997.4104	1045.6425	1048.4736	1076.3896	1109.8569	1113.0966	1133.1955	1155.6608	1164.088	1191.0584	1210.4828	1231.4983	1252.1019	1276.3375	1322.137	1336.6002	1347.5496	1402.0666	1441.3143	1450.3334	1479.7902	1491.6484	1494.0668	1498.9859	1514.1546	2977.98	3037.5246	3065.3192	3067.4353	3075.7258	3083.4966	3101.7994	3114.7019	3158.6008	3159.2804	3174.8013	3499.852
CN1CC11CCC2NC12	CN1C[C@]21CC[C@H]1N[C@@H]21	
InChI=1S/C7H12N2/c1-9-4-7(9)3-2-5-6(7)8-5/h5-6,8H,2-4H2,1H3	InChI=1S/C7H12N2/c1-9-4-7(9)3-2-5-6(7)8-5/h5-6,8H,2-4H2,1H3/t5-,6-,7-,9?/m1/s1
