18
gdb 19736	3.86739	2.42881	2.20706	1.5499	69.82	-0.2319	0.0922	0.3241	721.925	0.158033	-347.79769	-347.792124	-347.79118	-347.826963	24.072	
C	-0.0454883943	 1.5711363553	 0.0545030218	-0.241488
C	 1.4846690379	 1.3662983396	 0.0002230128	 0.09716
O	 1.7604259486	 0.7452395429	 1.2675218579	-0.294915
C	 0.857591584	-0.3940706341	 1.2005934069	 0.105562
C	 1.696516615	-1.5726102191	 0.7028305651	-0.210076
C	 2.1520013378	-1.0693610512	-0.7005491156	-0.236327
C	 1.2407064308	 0.1408338966	-0.9413580435	-0.019266
C	-0.0154521337	 0.0250748068	-0.0092869486	-0.072876
H	-0.4456037393	 2.0591923317	 0.9461850265	 0.097543
H	-0.4596388754	 2.0134736184	-0.8543897583	 0.097094
H	 2.2092559136	 2.157124124	-0.1923901844	 0.073446
H	 0.3565934497	-0.5278761254	 2.1615828883	 0.068628
H	 2.5303892664	-1.7798772641	 1.3777157905	 0.105158
H	 1.0864469258	-2.4807080812	 0.6280336482	 0.090538
H	 3.2081874206	-0.7844812969	-0.7058350208	 0.107027
H	 2.0173604784	-1.8320476977	-1.4728643781	 0.096249
H	 1.0389779386	 0.4113964305	-1.9777453318	 0.069005
H	-0.8833957244	-0.591005736	-0.242753127	 0.067538
222.3412	358.9576	387.3519	486.5275	595.2169	690.2642	727.8458	789.1975	811.8787	850.2823	863.3139	890.432	905.2339	920.1744	936.4234	972.8512	985.8169	1019.0755	1028.9346	1043.7925	1068.8666	1107.4951	1115.8898	1128.6048	1203.0465	1220.9508	1230.7878	1244.0842	1263.2699	1275.0281	1286.0358	1298.6584	1328.211	1349.6968	1359.6927	1476.512	1489.5671	1497.9968	3037.0598	3055.4836	3064.4977	3088.3829	3092.9569	3108.1906	3114.0403	3120.6965	3126.6439	3130.305
C1C2OC3CCC2C13	C1[C@H]2O[C@@H]3CC[C@H]2[C@H]13	
InChI=1S/C7H10O/c1-2-6-5-3-7(8-6)4(1)5/h4-7H,1-3H2	InChI=1S/C7H10O/c1-2-6-5-3-7(8-6)4(1)5/h4-7H,1-3H2/t4-,5-,6+,7+/m0/s1
