15
gdb 66602	3.01582	1.99289	1.95911	3.1397	67.17	-0.1913	-0.0775	0.1138	787.1401	0.111621	-416.614885	-416.608281	-416.607337	-416.645319	27.483	
O	 0.2936189324	 1.355773837	-0.1638310582	-0.467742
C	 0.1542635887	-0.0085406254	-0.1280569156	 0.381167
C	 1.2073286734	-0.9829361088	-0.5725325154	-0.138824
C	-0.1728170885	-0.9603575222	-1.2315717908	-0.164705
C	-0.7023429919	-2.0824174171	-0.2914022821	-0.017174
N	-1.5668908994	-1.5478889448	 0.8187556648	-0.28562
C	-0.5042791594	-0.8525283684	 1.076550807	 0.082679
N	 0.5519069656	-1.5511309172	 1.7690809885	-0.296772
C	 0.8374730398	-2.1459502406	 0.3824859	-0.049269
H	-0.5732515616	 1.74210126	-0.3361628714	 0.29857
H	 2.1762945468	-0.711432227	-0.9704260908	 0.105816
H	-0.4712680879	-0.7192086395	-2.2422570672	 0.105099
H	-1.1299973493	-3.0093249184	-0.6631633302	 0.116986
H	 1.3324737851	-0.9204650793	 1.967118203	 0.230492
H	 1.4222214661	-3.0624787982	 0.4309724984	 0.099296
171.7453	250.4735	293.253	343.4648	507.4181	534.1229	551.8998	596.1559	645.6764	670.3744	748.1592	788.8786	821.5254	845.6266	866.0247	890.6609	891.3342	939.4232	964.2925	992.2059	1017.9201	1025.4304	1117.0207	1119.8125	1130.4178	1176.4579	1185.0997	1204.5892	1254.5712	1276.0689	1316.7606	1448.0507	1482.625	3140.9415	3154.7309	3203.4885	3218.9766	3424.7701	3785.4156
OC12C3C1C1N=C2NC31	O[C@]12[C@@H]3[C@H]1[C@@H]1[N][C]2N[C@H]31	
InChI=1S/C6H6N2O/c9-6-1-2(6)4-3(1)7-5(6)8-4/h1-4,9H,(H,7,8)	InChI=1S/C6H6N2O/c9-6-1-2(6)4-3(1)7-5(6)8-4/h1-4,9H,(H,7,8)/t1-,2+,3-,4+,6-
