17
gdb 43775	3.34908	1.28508	1.08865	4.3002	73.29	-0.2597	0.0027	0.2624	1130.3775	0.135877	-421.812311	-421.804649	-421.803705	-421.844905	29.499	
O	-0.2023353437	 0.1738880124	-0.0988249558	-0.323755
C	-0.0251147796	 1.3418406706	 0.0156892788	 0.464243
O	-0.9814459778	 2.3087042327	 0.3292371184	-0.297808
C	-0.0059512984	 3.368535574	 0.0694630271	 0.475576
C	 1.0672452489	 3.2604965345	 1.0861633337	-0.338582
C	 1.0869994514	 2.3341570639	-0.1458222755	-0.330484
C	-0.4675554603	 4.5393297142	-0.7031433299	-0.11164
C	-1.5027134469	 4.3829943969	-1.7897140967	-0.271778
C	-1.8699729373	 5.0666946711	-0.4981097608	-0.266223
H	 1.833525064	 4.0300557093	 1.0600258055	 0.13197
H	 0.8509368297	 2.8550413313	 2.0694952816	 0.137534
H	 1.9147517272	 2.2805881057	-0.837399232	 0.129325
H	 0.3127057381	 5.2769099299	-0.8633817861	 0.093783
H	-1.3888724041	 4.9855484838	-2.6835073656	 0.116505
H	-1.9032907405	 3.3902155521	-1.9567175841	 0.136111
H	-2.5088471158	 4.5229861649	 0.1879676805	 0.137595
H	-2.0096648449	 6.1416264726	-0.4960285391	 0.117627
73.9827	112.7488	174.9988	249.8567	375.9773	403.8054	482.467	506.4043	614.7406	696.0944	756.0706	791.0369	814.4171	838.5934	864.8158	918.7399	926.1376	954.8357	974.6064	991.9763	1022.1516	1057.9879	1069.835	1077.2044	1090.6315	1109.3384	1125.4183	1200.8975	1215.385	1229.3579	1246.001	1328.5357	1449.6344	1462.8321	1492.0455	1519.6638	1944.7143	3121.8955	3142.0559	3145.4316	3158.3041	3213.4885	3226.2569	3231.6467	3240.0307
O=C1OC2(CC12)C1CC1	O=C1O[C@]2(C[C@@H]12)C1CC1	
InChI=1S/C7H8O2/c8-6-5-3-7(5,9-6)4-1-2-4/h4-5H,1-3H2	InChI=1S/C7H8O2/c8-6-5-3-7(5,9-6)4-1-2-4/h4-5H,1-3H2/t5-,7+/m0/s1
