16
gdb 77201	3.63553	1.07282	0.91991	1.5123	74.55	-0.2648	-0.0186	0.2462	1233.7733	0.12428	-396.926626	-396.917883	-396.916939	-396.960447	31.026	
C	 0.1146662458	 1.5453963048	 0.000196269	-0.34958
N	 0.0219392967	 0.1147895071	 0.2229829519	-0.056427
C	-1.2221946287	-0.5195892741	 0.7086403558	-0.131676
C	-0.3414937885	-1.5376673651	 1.4940457582	-0.258994
C	 0.8126522525	-0.5142069477	 1.2972771409	-0.116142
C	 2.126713792	-1.0124003368	 0.894223285	 0.296066
N	 3.1656889405	-1.4115127463	 0.5840423022	-0.313256
C	-2.0477286164	 0.3233213176	 1.5876362978	 0.272583
N	-2.6735750784	 1.017235921	 2.2686452254	-0.31961
H	 1.1366604295	 1.7846916422	-0.3073462727	 0.146824
H	-0.5579426225	 1.8294164764	-0.8143175481	 0.14143
H	-0.1397114884	 2.1445190363	 0.8889836769	 0.128503
H	-1.8546397288	-0.92127074	-0.0888511745	 0.136327
H	-0.6300571516	-1.7549614166	 2.5199407893	 0.148211
H	-0.1868208574	-2.4574041197	 0.9323871046	 0.150123
H	 0.9362702237	 0.1253822108	 2.1855311181	 0.125618
65.7858	120.4718	149.1278	186.0696	223.7267	243.8641	317.4423	343.4069	474.4368	515.409	555.2749	633.656	679.9085	775.1326	818.4645	943.3438	976.3762	998.1946	1048.4529	1069.3587	1139.3138	1156.2298	1201.0014	1222.1463	1254.2727	1270.8442	1285.8374	1344.1482	1375.8069	1452.7336	1481.895	1491.7659	1500.8614	2346.2531	2361.1044	2981.72	2983.7536	3063.8142	3081.9439	3114.9489	3120.2472	3184.2168
CN1C(CC1C#N)C#N	CN1[C@@H](C[C@H]1C#N)C#N	
InChI=1S/C6H7N3/c1-9-5(3-7)2-6(9)4-8/h5-6H,2H2,1H3	InChI=1S/C6H7N3/c1-9-5(3-7)2-6(9)4-8/h5-6H,2H2,1H3/t5-,6-/m0/s1
