18
gdb 44384	3.69878	1.54721	1.41345	2.885	75.82	-0.2601	0.0267	0.2868	960.2444	0.151401	-401.935127	-401.928746	-401.927802	-401.96574	26.865	
N	-0.0217055075	 1.250479799	-0.4223294945	-0.558653
C	-0.0227739609	 0.0469235591	-0.0702335923	 0.419284
O	 1.034749062	-0.7931852278	 0.2461960868	-0.279926
C	 0.1284518944	-1.9309969799	 0.4378341361	 0.121702
C	-0.1670824164	-2.3328658979	 1.8865427058	-0.053868
C	-1.6971704569	-2.6453137671	 1.7558237634	-0.227045
C	-1.7865198691	-1.1003811555	 1.5181920323	-0.036071
C	-0.6150835312	-0.992326029	 2.534179051	-0.238022
C	-1.0862966392	-1.0116925553	 0.1427480088	-0.144678
H	 0.928920511	 1.623504791	-0.4610925613	 0.226223
H	 0.3874213665	-2.7459510589	-0.2386518956	 0.092928
H	 0.5264583701	-3.014156075	 2.3779047233	 0.071343
H	-2.0244052378	-3.3105359782	 0.950364075	 0.096528
H	-2.1405706681	-2.9570300469	 2.7035482475	 0.107418
H	-2.7123775447	-0.5418236015	 1.6439652573	 0.079021
H	-0.9565611972	-1.1377302746	 3.5605684351	 0.10174
H	 0.057038947	-0.1349177687	 2.4799555286	 0.119816
H	-1.7356741421	-1.2197094627	-0.7070061272	 0.10226
134.6789	233.4433	321.7255	457.5757	461.5142	543.6756	612.8819	667.6404	781.5873	817.9582	828.7261	846.8977	870.2543	873.4779	884.0055	926.4727	948.8545	973.0579	1007.8943	1019.7849	1023.5069	1034.9059	1062.862	1067.6116	1098.5887	1116.7559	1196.3912	1210.4796	1220.9972	1233.6062	1241.1446	1273.4393	1285.6738	1304.8202	1336.9448	1345.6922	1490.6491	1524.7793	1819.7971	3051.6584	3080.4584	3108.9854	3119.7246	3123.8384	3127.4264	3135.6963	3139.0231	3469.6397
N=C1OC2C3CC(C3)C12	[NH][C]1O[C@H]2[C@@H]3C[C@@H](C3)[C@@H]12	
InChI=1S/C7H9NO/c8-7-5-3-1-4(2-3)6(5)9-7/h3-6,8H,1-2H2	InChI=1S/C7H9NO/c8-7-5-3-1-4(2-3)6(5)9-7/h3-6,8H,1-2H2/t3-,4+,5-,6+/m1/s1
