23
gdb 65029	2.71535	1.34933	1.15965	1.3053	85.14	-0.2339	0.0696	0.3035	1196.8776	0.204282	-388.263621	-388.253879	-388.252935	-388.298295	37.776	
C	 0.008249468	 1.5560313821	-0.1367154715	-0.481247
C	-0.0238823003	 0.0306645997	-0.0372249237	 0.329161
C	 1.0095226994	-0.625382659	-1.0167046214	-0.253494
C	 2.0177545924	-0.748595734	 0.1566571363	-0.21345
C	 0.8586872355	-0.480667977	 1.1532857444	-0.253495
C	-1.4231194954	-0.5590586284	-0.0951585682	 0.364451
O	-1.3300292622	-1.964550168	 0.0050635388	-0.47597
C	-2.6166709531	 0.1053465293	 0.5421497527	-0.335286
C	-2.5113418072	 0.0042843534	-0.9729831802	-0.335291
H	 1.0428838317	 1.9094217858	-0.0883690241	 0.117266
H	-0.4105297106	 1.9158979931	-1.0822700822	 0.114505
H	-0.5334504373	 2.0338342619	 0.6862176155	 0.114506
H	 0.6641173152	-1.5985973016	-1.3672560632	 0.114878
H	 1.3098583607	-0.0209129442	-1.8774765836	 0.083523
H	 2.5383877136	-1.7035304482	 0.2565299069	 0.095463
H	 2.7671875644	 0.047559561	 0.1556551498	 0.095534
H	 1.0431359642	 0.2349870331	 1.9597161864	 0.083523
H	 0.459364699	-1.4021516976	 1.5784292161	 0.114881
H	-2.2155855731	-2.3368689506	-0.0317406528	 0.27969
H	-3.3312736816	-0.5394089364	 1.0455309174	 0.103194
H	-2.5129721102	 1.0820927011	 1.0000779054	 0.117233
H	-2.3365754475	 0.9128435203	-1.5373074264	 0.117233
H	-3.1556846057	-0.7078843456	-1.4803276324	 0.103193
37.2985	107.1837	117.7965	223.5437	255.9336	275.9731	331.733	344.9361	365.4328	386.9514	446.4859	537.9055	545.7172	699.2515	762.6084	793.153	816.293	863.5137	869.2759	928.2404	929.1773	931.3369	941.5566	956.9721	978.5333	993.2934	1048.8932	1059.8126	1065.1984	1139.7147	1161.75	1171.2459	1184.4904	1214.8736	1218.2924	1261.455	1267.8294	1274.9016	1297.1958	1315.7395	1410.4698	1428.1235	1458.9438	1473.1825	1482.3274	1498.8381	1503.597	1504.415	1507.9732	3031.585	3053.9803	3055.3393	3064.9846	3098.2422	3099.0689	3101.4274	3123.7253	3127.7547	3129.0253	3135.3892	3205.0066	3219.0103	3835.598
CC1(CCC1)C1(O)CC1	CC1(CCC1)C1(O)CC1	
InChI=1S/C8H14O/c1-7(3-2-4-7)8(9)5-6-8/h9H,2-6H2,1H3	InChI=1S/C8H14O/c1-7(3-2-4-7)8(9)5-6-8/h9H,2-6H2,1H3
