21
gdb 106790	2.49821	1.47587	1.11584	1.2488	83.8	-0.2241	0.0217	0.2458	1182.6259	0.181974	-387.091188	-387.082204	-387.08126	-387.124461	35.188	
C	 0.1229948021	 1.4464084689	-0.3677418532	-0.37805
C	 0.001526495	 0.038553682	 0.228233469	-0.274302
C	-1.4091865663	-0.5089594901	 0.2050070342	 0.295243
C	-1.9949494125	-1.0502197212	-1.1022446079	-0.387687
C	-1.7293373621	-1.9853473122	 0.0490425068	 0.330337
O	-0.6799202105	-2.9021942449	-0.0548364236	-0.470409
C	-2.8873440088	-2.3223271541	 0.9912332909	-0.33662
C	-3.262605575	-0.9785622758	 1.5767075541	-0.082842
C	-2.4462557115	-0.0070923912	 1.1611389021	-0.135887
H	 1.1584324674	 1.7996424869	-0.3334457219	 0.109458
H	-0.2044271863	 1.4609147941	-1.4126079756	 0.115409
H	-0.4910776425	 2.1696460034	 0.1798159655	 0.113376
H	 0.6506191639	-0.6559546818	-0.3157345947	 0.108662
H	 0.3648619421	 0.0453679911	 1.2638384047	 0.097699
H	-3.0154660918	-0.7926381018	-1.3679843798	 0.105807
H	-1.3042022239	-1.1324809948	-1.9369315045	 0.105677
H	-0.9062588393	-3.540333908	-0.7396001767	 0.282432
H	-3.7275441984	-2.805569603	 0.4756689004	 0.101844
H	-2.5440087192	-3.0232548935	 1.7641191126	 0.11457
H	-4.104111842	-0.8485238375	 2.2475215963	 0.0928
H	-2.5116224603	 1.0350640036	 1.4546373914	 0.092481
80.819	145.7727	189.3471	221.6413	263.4618	285.3298	295.7992	379.4778	433.9852	478.7286	506.3377	587.3323	685.1336	729.5917	761.2425	778.877	796.4006	914.1022	915.3797	939.7294	954.5161	966.1304	990.0589	1001.182	1019.646	1051.7737	1091.8812	1120.1239	1142.7867	1179.6711	1228.5137	1251.3147	1285.1459	1304.9746	1331.0427	1366.8463	1384.7972	1399.5315	1409.8302	1466.5157	1481.7375	1490.4938	1497.4424	1507.7078	1667.8582	3014.5427	3025.9305	3031.5122	3044.9865	3069.4251	3100.0885	3103.3118	3113.0622	3181.1524	3205.4402	3207.2176	3800.7592
CCC12CC1(O)CC=C2	CC[C@@]12C[C@]1(O)CC=C2	
InChI=1S/C8H12O/c1-2-7-4-3-5-8(7,9)6-7/h3-4,9H,2,5-6H2,1H3	InChI=1S/C8H12O/c1-2-7-4-3-5-8(7,9)6-7/h3-4,9H,2,5-6H2,1H3/t7-,8-/m1/s1
