16
gdb 85761	3.48157	1.19807	1.02244	5.2735	68.55	-0.2808	0.0242	0.305	1141.4947	0.124915	-437.88269	-437.874809	-437.873865	-437.9153	29.557	
O	-0.0802041538	 1.4462542768	 0.0397054543	-0.432327
C	 0.0031583036	 0.0377476089	 0.0256054031	 0.113898
C	 0.6720128221	-0.5766268279	 1.2793631458	-0.285413
C	 0.0348575596	-1.9874197102	 1.4168532972	-0.184019
C	 0.0609047976	-2.519660755	 2.7772287578	 0.280032
N	 0.0853761441	-2.9458414972	 3.8510569445	-0.318961
C	-1.3745221599	-1.7891153869	 0.8480615669	 0.034814
O	-2.0048006943	-0.6033370511	 1.3173090995	-0.237316
C	-1.3829104279	-0.5758255146	 0.0254892387	 0.035822
H	 0.8107246833	 1.8061092086	-0.0141006594	 0.290481
H	 0.515876227	-0.3147969197	-0.8859845455	 0.07513
H	 1.7605761829	-0.6224748154	 1.2099200337	 0.113959
H	 0.3999736945	 0.0351760649	 2.1406436922	 0.1537
H	 0.5581219137	-2.7039117269	 0.7704310389	 0.130468
H	-2.0188447153	-2.6464662873	 0.6768467332	 0.117372
H	-2.051477527	-0.429358697	-0.817610801	 0.11236
91.0372	135.1085	180.1315	252.5788	289.3317	353.982	398.8788	463.9948	555.6753	571.6501	638.3487	674.7407	832.1358	844.6384	880.7163	917.0168	968.3084	1012.5128	1028.4798	1056.1273	1098.0884	1103.188	1127.0257	1179.8169	1235.0299	1262.1651	1269.7041	1291.8198	1317.9056	1348.9087	1357.9963	1436.324	1440.9108	1486.6841	2360.6451	2955.6735	3033.483	3084.6033	3142.1976	3159.5107	3171.6747	3822.4456
OC1CC(C#N)C2OC12	O[C@H]1C[C@@H](C#N)[C@H]2O[C@@H]12	
InChI=1S/C6H7NO2/c7-2-3-1-4(8)6-5(3)9-6/h3-6,8H,1H2	InChI=1S/C6H7NO2/c7-2-3-1-4(8)6-5(3)9-6/h3-6,8H,1H2/t3-,4-,5+,6-/m0/s1
