17
gdb 17413	4.13547	1.65151	1.60755	1.1059	68.39	-0.2301	0.0723	0.3024	871.4391	0.142112	-363.788698	-363.781505	-363.780561	-363.81982	28.216	
O	-0.1193524642	 1.4136443293	-0.1109517157	-0.423587
C	-0.069555638	 0.0181343551	-0.0308107734	 0.03566
C	-0.5430221973	-0.6861285041	 1.2285109317	-0.410621
C	-1.3830013994	-0.684680689	-0.0115420557	 0.375238
C	-2.7845935587	-0.1020578378	-0.1985617614	-0.327686
C	-3.046380237	-1.3356429368	-1.0656235221	-0.021762
C	-2.035058832	-1.4713462625	-2.1304516239	-0.23701
N	-1.675125529	-1.9317035675	-0.7692775814	-0.173543
H	 0.5740689273	 1.7698015249	 0.4545658018	 0.288975
H	 0.7396762692	-0.4556625298	-0.5879679772	 0.092033
H	-0.0532262576	-1.6147780248	 1.502836989	 0.122973
H	-0.8747630169	-0.0666546156	 2.0562091286	 0.113405
H	-3.3668390458	-0.093367695	 0.7255575555	 0.112016
H	-2.8651807164	 0.8729560179	-0.6859503331	 0.118063
H	-3.9414978253	-1.9476853516	-1.0309867978	 0.096044
H	-2.1486341438	-2.2908749201	-2.8334038984	 0.118035
H	-1.5435078153	-0.5867224827	-2.5295850167	 0.121766
130.5531	162.7727	224.205	299.2289	359.8565	430.415	472.1357	505.777	576.4693	760.5681	772.0095	806.6256	835.0411	897.5833	911.7482	935.6105	991.675	1002.402	1023.5488	1056.7733	1074.0351	1097.2978	1114.3488	1130.6767	1167.7891	1172.3284	1196.7827	1229.6447	1261.5179	1295.6372	1336.7534	1365.7419	1418.1046	1485.5874	1488.2253	1504.6472	3062.3209	3094.1248	3105.6314	3113.9275	3123.4102	3166.6367	3200.452	3217.5611	3801.6023
OC1CC11CC2CN12	O[C@H]1C[C@]21C[C@H]1CN21	
InChI=1S/C6H9NO/c8-5-2-6(5)1-4-3-7(4)6/h4-5,8H,1-3H2	InChI=1S/C6H9NO/c8-5-2-6(5)1-4-3-7(4)6/h4-5,8H,1-3H2/t4-,5-,6-,7?/m0/s1
