17
gdb 62820	2.37047	1.5417	1.35971	1.7895	76.02	-0.2495	0.0074	0.2569	1039.3059	0.133262	-421.725719	-421.717304	-421.71636	-421.75831	33.112	
C	-0.1526272062	 1.6631816029	-0.0485838492	-0.471312
C	-0.0217282999	 0.1565278749	-0.0049616592	 0.438737
O	-1.2885548608	-0.3842346404	-0.1792268528	-0.479028
C	 1.1420714901	-0.6213157158	-0.7089660828	-0.045054
C	 2.1550913188	-0.1344800184	 0.3427703052	-0.276034
C	 0.8732048863	-0.5769638306	 1.0904516031	 0.257235
O	 0.8328198834	-1.7761884195	 0.1826410664	-0.368175
C	 0.6329456945	-0.7469692117	 2.4871675476	 0.082592
C	 0.4089733867	-0.8455723365	 3.664637473	-0.353743
H	 0.7989345673	 2.1823407848	 0.0653092391	 0.121042
H	-0.5998559751	 1.9581225855	-1.0023582245	 0.135942
H	-0.8266257816	 1.9889505676	 0.7487630861	 0.141861
H	-1.1595074453	-1.3437891166	-0.1288529938	 0.289295
H	 1.2895749069	-0.8458066526	-1.7648154281	 0.10207
H	 2.9961610827	-0.8103532992	 0.4918019002	 0.124073
H	 2.4448824177	 0.9154001159	 0.3718060939	 0.108993
H	 0.2129731245	-0.9395157502	 4.7044503157	 0.191505
116.7534	131.0117	160.0474	253.4742	328.675	344.4751	405.9529	480.491	509.0576	540.6625	601.7936	618.6027	626.2809	637.7039	687.7525	730.7711	734.7002	785.7863	892.525	943.4843	973.0637	986.7434	1024.4522	1083.0167	1108.5539	1121.4846	1191.1773	1210.2554	1218.9746	1273.4499	1295.7875	1394.3309	1438.466	1479.452	1490.279	1503.2079	2234.5419	3054.9014	3094.1474	3118.0515	3132.0679	3149.8052	3171.9339	3499.5308	3717.4249
CC1(O)C2CC1(O2)C#C	C[C@@]1(O)[C@H]2C[C@@]1(O2)C#C	
InChI=1S/C7H8O2/c1-3-7-4-5(9-7)6(7,2)8/h1,5,8H,4H2,2H3	InChI=1S/C7H8O2/c1-3-7-4-5(9-7)6(7,2)8/h1,5,8H,4H2,2H3/t5-,6-,7+/m1/s1
