13
gdb 10384	2.67071	2.05921	1.41767	1.394	59.01	-0.2817	-0.0641	0.2176	859.7574	0.094332	-398.586616	-398.579029	-398.578085	-398.619328	25.781	
O	-0.1943109059	 0.0928915254	-0.3616092102	-0.225037
C	-0.0290073635	 1.1760613649	 0.125818935	 0.115253
C	 1.293828194	 1.9429100347	 0.0327292817	-0.001326
C	 2.4567284194	 1.1474771623	-0.6186937414	-0.105847
O	 2.3592367705	 1.9051462273	-1.8387077725	-0.253843
C	 1.3805136964	 2.7888101751	-1.2920284454	-0.097348
C	 1.5613613006	 2.6618086293	 1.2640109003	 0.228083
N	 1.7520647711	 3.229920723	 2.2527691081	-0.319249
H	-0.8396434303	 1.7208049005	 0.6518191449	 0.116755
H	 3.4240010354	 1.2743073368	-0.1227882476	 0.129153
H	 2.2273392254	 0.0893591531	-0.7672762568	 0.147698
H	 0.4596361235	 2.8216456864	-1.8851851069	 0.131282
H	 1.7585316633	 3.8047822512	-1.1329134192	 0.134425
68.8549	90.1273	167.7755	185.9133	276.647	305.7404	503.5998	538.2525	555.6827	666.8097	851.7594	874.7591	924.0964	983.8588	996.7315	1054.092	1080.7912	1156.6581	1170.3821	1189.7146	1245.6234	1312.3692	1364.9451	1419.2807	1501.9089	1527.0948	1837.478	2354.0419	2928.1919	3026.243	3050.7375	3080.9656	3115.9305
O=CC1(COC1)C#N	O=CC1(COC1)C#N	
InChI=1S/C5H5NO2/c6-1-5(2-7)3-8-4-5/h2H,3-4H2	InChI=1S/C5H5NO2/c6-1-5(2-7)3-8-4-5/h2H,3-4H2
