15
gdb 17760	3.07662	2.69738	1.86601	1.2363	63.81	-0.2061	0.0614	0.2675	744.5988	0.117767	-362.532633	-362.52588	-362.524936	-362.563106	26.492	
C	-0.1055479625	 1.4892602974	 0.0279977616	-0.527491
C	 0.0001640556	 0.0027820142	-0.0237269064	 0.2799
C	 0.9024357197	-0.9877407237	-0.811454336	-0.101881
C	-0.1751589147	-2.0131811117	-0.8379101367	-0.145637
N	 0.8250912031	-2.0138496467	 0.2876566132	-0.170733
C	-0.0738291294	-1.0584496176	 1.0681361483	-0.165867
C	-1.108247864	-1.0483984603	-0.0362641052	 0.312142
O	-2.4508999521	-0.7985789597	-0.0459956164	-0.448078
H	 0.8195133502	 1.9487325669	 0.3943389888	 0.124638
H	-0.322889746	 1.9086760464	-0.9610589807	 0.127309
H	-0.9186979783	 1.7880436315	 0.697488681	 0.132903
H	 1.7870984068	-0.8582405391	-1.426020959	 0.092485
H	-0.3342740167	-2.8787172325	-1.4716360922	 0.096532
H	-0.123998011	-0.9938447169	 2.1486123574	 0.099382
H	-2.9000898207	-1.4930823781	 0.4506466922	 0.294395
169.9776	192.5424	251.0058	305.8271	384.3409	396.0048	595.7012	653.0505	685.0964	760.4547	766.4162	779.5443	859.1697	875.7057	893.955	924.9727	974.3682	980.4224	998.5787	1056.0848	1108.0375	1125.2486	1182.4246	1193.0472	1229.6257	1289.1319	1304.7229	1375.0975	1418.1427	1478.8947	1486.456	1503.557	3023.4665	3082.2028	3099.9512	3159.7796	3175.5361	3182.765	3772.6284
CC12C3C4N3C1C24O	C[C@@]12[C@@H]3[C@H]4N3[C@@H]1[C@@]24O	
InChI=1S/C6H7NO/c1-5-2-3-6(5,8)4(5)7(2)3/h2-4,8H,1H3	InChI=1S/C6H7NO/c1-5-2-3-6(5,8)4(5)7(2)3/h2-4,8H,1H3/t2-,3+,4-,5+,6+,7?/m0/s1
