20
gdb 114912	3.10333	1.20124	0.93225	3.5628	83.26	-0.2338	-0.0166	0.2172	1316.2287	0.170684	-403.213388	-403.203848	-403.202903	-403.248448	34.242	
C	-0.228580961	 1.543114365	-0.0435672496	-0.378806
C	 0.1599339586	 0.0612938653	-0.0276650125	-0.150559
N	 0.7868624541	-0.3883844223	-1.2524629397	-0.093888
C	 0.098822463	-0.5762963246	-2.5098008626	-0.223885
C	 1.1849892065	-1.0998919296	-3.4107458658	-0.203723
C	 2.3396237611	-1.2008020461	-2.7467163653	 0.217029
C	 3.684738491	-1.6613250263	-3.1944322243	-0.484607
C	 2.1137955612	-0.7531264488	-1.3341372465	 0.357012
O	 2.9266294717	-0.716760312	-0.4283567917	-0.405798
H	 0.6527562069	 2.1710733617	-0.202706077	 0.132755
H	-0.9533378682	 1.7632084669	-0.8343622647	 0.114307
H	-0.6835016835	 1.8244537045	 0.9113701988	 0.119128
H	 0.8894629086	-0.1296864617	 0.7643195771	 0.143857
H	-0.7252342713	-0.5567180307	 0.1771742868	 0.09877
H	-0.7349947721	-1.2892767563	-2.4127479626	 0.119223
H	-0.3293430876	 0.3620948575	-2.8929664871	 0.122403
H	 1.0045222703	-1.34376041	-4.4500440892	 0.109577
H	 3.679702903	-1.9708681145	-4.2423920488	 0.118522
H	 4.4264552044	-0.8655657674	-3.0648311594	 0.143836
H	 4.0270635035	-2.5001128006	-2.5787337059	 0.144848
44.9626	87.2292	107.3616	168.2198	204.52	254.4123	270.3407	314.6118	359.1233	424.5704	549.6514	561.5141	683.4508	748.805	763.7839	799.7013	834.6626	921.2465	958.224	1001.4432	1011.3308	1045.7582	1066.8693	1093.1495	1117.1206	1184.8077	1198.8903	1264.0821	1269.3987	1331.4422	1356.5375	1398.38	1411.5958	1413.9597	1434.5156	1471.6878	1480.3301	1483.4446	1493.7756	1499.5923	1506.8214	1713.7592	1790.6744	2984.6447	3005.7765	3009.6298	3037.1845	3037.3733	3091.0753	3092.1091	3110.726	3119.9916	3122.911	3214.3483
CCN1CC=C(C)C1=O	CCN1CC=C(C)C1=O	
InChI=1S/C7H11NO/c1-3-8-5-4-6(2)7(8)9/h4H,3,5H2,1-2H3	InChI=1S/C7H11NO/c1-3-8-5-4-6(2)7(8)9/h4H,3,5H2,1-2H3
