21
gdb 106117	2.60547	1.48267	1.21103	1.0348	82.69	-0.2268	0.0944	0.3212	1144.8865	0.182328	-387.028559	-387.020009	-387.019064	-387.061559	33.231	
C	 0.0891736776	 1.4050612841	 0.3945404088	-0.257712
O	 0.0301543924	 0.0768574855	-0.1050141227	-0.281729
C	-1.2226062206	-0.4578529044	-0.0871379922	 0.433041
C	-2.1538760648	-0.8958423981	 1.0202237842	-0.166273
C	-3.3356491874	-0.1467440226	 0.408781972	-0.235545
C	-2.562111164	-0.2015675875	-0.9361040069	-0.14311
C	-2.5360320328	-1.717879081	-1.2986871938	 0.027791
C	-1.8323471434	-2.0320169509	-2.6130373592	-0.411737
C	-1.6430256585	-1.8906764729	-0.0682700869	-0.142205
H	 1.1341005772	 1.7181645684	 0.3438785417	 0.128122
H	-0.5202899616	 2.0883184504	-0.2127460983	 0.114756
H	-0.2570271986	 1.4533338035	 1.4355511689	 0.115236
H	-1.9247538567	-1.0736406997	 2.0631817813	 0.084997
H	-4.3236237509	-0.6213023843	 0.4241658635	 0.088259
H	-3.4137261295	 0.8706388777	 0.8031291319	 0.092967
H	-2.7204649037	 0.5460241675	-1.7117824447	 0.066621
H	-3.5168685547	-2.2102020051	-1.2624165265	 0.056942
H	-0.86161986	-1.5269362234	-2.6667441657	 0.125563
H	-1.6553278821	-3.1078067797	-2.721072315	 0.110702
H	-2.4336822121	-1.7053664193	-3.4687894049	 0.108109
H	-1.045217726	-2.7473545681	 0.2178208045	 0.085206
87.9126	136.9639	176.1952	218.8914	252.4394	281.7279	378.0333	396.4361	464.2058	510.2781	608.2719	735.394	740.7259	795.2916	843.7126	908.6701	922.3106	956.2514	956.45	981.7356	1022.0303	1024.6369	1044.0116	1065.7851	1076.7416	1103.5661	1116.766	1131.8144	1171.1065	1178.737	1204.8607	1207.3744	1238.7615	1253.8556	1289.4673	1291.7251	1375.0902	1411.8254	1433.6103	1486.7481	1495.6755	1497.9181	1499.2883	1504.1285	1509.623	2997.8094	3011.376	3025.157	3033.3222	3054.9488	3090.0379	3090.1409	3098.3775	3125.5892	3127.5447	3190.7369	3200.7466
COC12C3CC1C(C)C23	CO[C@@]12[C@H]3C[C@@H]1[C@@H](C)[C@@H]23	
InChI=1S/C8H12O/c1-4-5-3-6-7(4)8(5,6)9-2/h4-7H,3H2,1-2H3	InChI=1S/C8H12O/c1-4-5-3-6-7(4)8(5,6)9-2/h4-7H,3H2,1-2H3/t4-,5-,6+,7-,8-/m1/s1
