19
gdb 113333	2.26926	1.2062	0.9187	4.2454	78.16	-0.2241	0.0246	0.2488	1322.7445	0.158737	-419.187295	-419.177472	-419.176528	-419.222058	35.599	
C	 0.1752877624	 0.9932791361	-0.6117570087	-0.315943
N	-0.086799863	-0.0761631512	 0.346320025	-0.299717
C	-1.4197410505	-0.5869434075	 0.2726092772	 0.029666
C	-1.8547068679	-1.7004402888	-0.6544842342	-0.341635
C	-1.7324814015	-1.9582243289	 0.8507785833	 0.084165
C	-0.608515126	-2.8478814128	 1.4103233795	-0.164486
O	 0.5050262336	-2.9747704688	 0.5423557004	-0.406533
C	-2.9570533553	-2.0857950631	 1.5968142344	 0.236838
N	-3.9313020581	-2.2054837812	 2.2102864193	-0.343786
H	 1.2097247856	 1.3292641832	-0.5003719442	 0.124055
H	 0.0137181054	 0.7075718684	-1.6652689661	 0.09907
H	-0.4770210287	 1.8468983079	-0.3960064211	 0.125072
H	 0.5813138659	-0.8311155382	 0.2331991703	 0.242268
H	-2.1679616462	 0.1770005439	 0.468897231	 0.118159
H	-2.8503286723	-1.6905938036	-1.0829851252	 0.134964
H	-1.088425984	-2.1501833178	-1.2766175015	 0.11063
H	-0.2249658942	-2.3978813465	 2.3307122502	 0.147237
H	-1.0252268857	-3.8298119154	 1.6668030901	 0.124187
H	 0.2796359406	-3.6024231856	-0.1512743797	 0.295789
82.0064	110.4459	138.323	164.6346	171.0479	222.1204	273.5249	291.5159	354.4991	425.5829	454.1009	468.2995	560.0179	590.0511	693.7953	781.4658	854.4078	864.5965	933.5337	1003.2091	1010.8905	1034.749	1059.2863	1079.2331	1102.8861	1152.4368	1164.715	1214.5605	1229.8702	1275.2562	1290.2793	1371.773	1400.3611	1420.8834	1458.4778	1468.9556	1488.7239	1500.0289	1510.2969	1544.722	2344.8435	2958.5055	3027.3928	3060.0889	3093.7622	3110.1127	3135.2381	3143.9344	3229.1763	3532.9471	3826.0634
CNC1CC1(CO)C#N	CN[C@H]1C[C@]1(CO)C#N	
InChI=1S/C6H10N2O/c1-8-5-2-6(5,3-7)4-9/h5,8-9H,2,4H2,1H3	InChI=1S/C6H10N2O/c1-8-5-2-6(5,3-7)4-9/h5,8-9H,2,4H2,1H3/t5-,6+/m0/s1
