16
gdb 77360	3.09007	1.26586	0.94409	2.0544	66.42	-0.26	-0.053	0.2071	1179.1176	0.123813	-475.075709	-475.067039	-475.066094	-475.109954	29.94	
C	 0.0793965105	 1.4633266923	-0.055813295	-0.34799
N	 0.0379655263	 0.0236040267	 0.1118610498	-0.149815
C	-1.1794269834	-0.7383117045	-0.0455946629	-0.084481
C	-0.6133257146	-2.1819891031	 0.0288461689	-0.116732
O	 0.7834521652	-2.0552032794	-0.2293027424	-0.239866
C	 1.1601945522	-0.7445793954	-0.135521677	 0.499647
O	 2.2921809776	-0.3687093971	-0.2530252966	-0.391977
C	-2.1678834185	-0.4905051294	 1.0865762086	 0.14756
O	-3.354026804	-0.3814754174	 0.9367445365	-0.227819
H	 1.1261931511	 1.7675454141	-0.0211455353	 0.174591
H	-0.3513733486	 1.7680085398	-1.0191887866	 0.130507
H	-0.4695814357	 1.966318526	 0.746047693	 0.135143
H	-1.6869111439	-0.5371653758	-0.9994550858	 0.105255
H	-0.7521461614	-2.6189549521	 1.02534557	 0.126417
H	-1.0598900215	-2.8424193003	-0.7153308245	 0.145836
H	-1.6831052814	-0.4395798342	 2.0889306293	 0.093724
68.6717	74.6335	151.3678	169.7007	183.7182	271.0617	318.1024	367.993	421.2953	531.2406	661.3187	716.9646	766.7926	831.6094	924.0994	949.3549	1044.1853	1062.7304	1087.3332	1122.9797	1130.2906	1163.3793	1236.1256	1273.6941	1301.8861	1314.5881	1379.256	1404.793	1417.2489	1453.9139	1492.4711	1516.3393	1518.7707	1843.7553	1882.4051	2873.8224	3010.6258	3014.7799	3033.098	3083.3862	3124.4603	3153.2377
CN1C(COC1=O)C=O	CN1[C@@H](COC1=O)C=O	
InChI=1S/C5H7NO3/c1-6-4(2-7)3-9-5(6)8/h2,4H,3H2,1H3	InChI=1S/C5H7NO3/c1-6-4(2-7)3-9-5(6)8/h2,4H,3H2,1H3/t4-/m1/s1
