19
gdb 103782	3.39738	1.09623	0.99802	3.4609	72.61	-0.2244	0.0566	0.281	1248.1585	0.15702	-460.10859	-460.099211	-460.098267	-460.142959	34.619	
O	-0.1122830195	 1.3858735704	-0.1552933544	-0.430061
C	-0.0101804609	 0.0045410477	 0.1911087474	-0.151195
C	-1.3954415356	-0.5712977628	 0.0545868126	 0.352407
O	-2.330011577	 0.0491109357	 0.8831253312	-0.468813
C	-1.8709883736	-1.0790698706	-1.3079322036	-0.428473
C	-1.5965583494	-2.0345913969	-0.1841141637	 0.410969
C	-0.6097257514	-3.1950509066	-0.0748759614	-0.363275
C	-1.7758046721	-3.8972679251	 0.6537267647	-0.069186
O	-2.6437831676	-2.7573434048	 0.4557341428	-0.296977
H	 0.6615039396	 1.8435873459	 0.1848575092	 0.291886
H	 0.6986169624	-0.5207657842	-0.4659654154	 0.087301
H	 0.3308653496	-0.1115213952	 1.2306033258	 0.096575
H	-2.2483607707	 0.9934541861	 0.6975331953	 0.288082
H	-2.9186241388	-0.904973499	-1.5288618066	 0.128528
H	-1.1966829421	-1.0464829343	-2.158680322	 0.109667
H	-0.3209597548	-3.6426371937	-1.0279689718	 0.115528
H	 0.2833208822	-3.0124022055	 0.5260747358	 0.112063
H	-2.1722756603	-4.7968270158	 0.170315932	 0.107257
H	-1.6125826499	-4.1007533713	 1.7182785721	 0.107716
69.4196	102.2455	122.4832	170.0825	225.5977	248.2441	314.59	380.9801	392.2671	417.5235	459.1084	513.8144	683.8863	749.864	792.3074	867.2685	872.9506	905.6472	912.6022	966.3817	996.8886	1023.8582	1037.0216	1048.9668	1113.4951	1140.7105	1160.5999	1166.7379	1213.0665	1233.2467	1244.3081	1263.8537	1290.993	1326.0188	1360.1634	1410.1321	1449.7353	1487.2523	1501.6825	1505.6852	1534.7447	2981.1515	3019.9726	3026.7248	3069.6813	3071.373	3121.0414	3124.6046	3220.4914	3774.192	3838.1415
OCC1(O)CC11CCO1	OC[C@@]1(O)C[C@]21CCO2	
InChI=1S/C6H10O3/c7-4-5(8)3-6(5)1-2-9-6/h7-8H,1-4H2	InChI=1S/C6H10O3/c7-4-5(8)3-6(5)1-2-9-6/h7-8H,1-4H2/t5-,6-/m0/s1
