19
gdb 35026	3.20545	1.45596	1.42124	0.5447	84.63	-0.2398	0.0117	0.2515	1010.3887	0.161505	-348.732281	-348.724965	-348.724021	-348.763589	30.493	
C	-0.0583886691	-1.2207287397	-0.1006810237	-0.451646
C	-0.0192285455	-0.0204711876	-0.0259529346	 0.314681
C	 0.0189669041	 1.4299874813	 0.0540412791	-0.171964
C	-0.3311569982	 2.0563861774	 1.4424669131	-0.064606
C	 0.8322351003	 1.4955515125	 2.3261212781	-0.205029
C	 2.0510230106	 1.5170257569	 1.3545155259	-0.205027
C	 1.4366703907	 2.0875321856	 0.0331711207	-0.064579
C	 1.0521701395	 3.527655202	 0.3241190999	-0.088359
C	 0.0069961753	 3.5092418996	 1.157322631	-0.088334
H	-0.0941655179	-2.2797526423	-0.169366438	 0.190931
H	-0.6126122954	 1.8612031184	-0.7286750958	 0.099301
H	-1.3308788425	 1.8524225415	 1.8254203871	 0.067451
H	 0.9849620697	 2.1075546978	 3.2175969999	 0.095929
H	 0.6059257019	 0.4762646643	 2.6491670894	 0.109443
H	 2.8727279425	 2.1408193188	 1.7126855822	 0.095931
H	 2.4382268556	 0.508548951	 1.1884771657	 0.109434
H	 2.0368764071	 1.9117553335	-0.859327135	 0.067447
H	 1.6134073526	 4.3900983221	-0.0133133079	 0.094496
H	-0.4654093613	 4.3534739968	 1.6439042729	 0.0945
144.5026	148.4356	263.1591	369.7562	382.8537	453.9503	514.123	536.0511	628.329	628.7323	686.3638	729.7121	771.0897	799.5299	840.534	843.0839	886.0762	886.5735	927.8253	952.7954	975.04	991.1905	1021.0886	1045.7077	1053.1352	1114.9752	1148.1941	1150.1121	1182.7706	1232.0774	1257.1865	1276.5408	1287.4511	1298.3151	1330.8196	1351.1242	1351.993	1483.5844	1500.7648	1643.8297	2228.4929	3061.9551	3063.2528	3071.22	3103.2497	3115.5708	3118.1355	3121.0947	3195.8424	3221.2099	3502.9363
C#CC1C2CCC1C=C2	C#C[C@H]1[C@H]2CC[C@@H]1C=C2	
InChI=1S/C9H10/c1-2-9-7-3-4-8(9)6-5-7/h1,3-4,7-9H,5-6H2	InChI=1S/C9H10/c1-2-9-7-3-4-8(9)6-5-7/h1,3-4,7-9H,5-6H2/t7-,8+,9+
