12
gdb 48379	2.90635	1.28093	1.03267	2.972	68.5	-0.2857	-0.0784	0.2073	1105.0836	0.073491	-435.428598	-435.420004	-435.41906	-435.462199	29.875	
O	-0.2103410184	 0.3033414361	-0.6779503477	-0.222585
C	 0.131584251	 1.0301527137	 0.2098847854	 0.097206
C	 1.3266660044	 1.9605611401	 0.091061879	 0.172399
O	 2.2606525271	 1.6782377507	-0.9381867627	-0.227697
C	 1.4669564403	 2.8426508363	-1.1284952835	-0.226918
C	 0.4975209766	 2.8574913867	-2.1822950266	 0.355253
C	-0.2982933651	 2.9325953842	-3.0784923384	-0.373877
C	 1.8680752094	 2.4369249016	 1.3482865784	 0.242454
N	 2.2565284818	 2.8035928793	 2.3731382982	-0.307137
H	-0.3975720576	 1.0970164697	 1.1818167411	 0.118715
H	 2.0012009259	 3.7775666362	-0.9616856857	 0.151161
H	-1.0061399755	 2.9783946054	-3.8702668776	 0.221026
98.3569	112.0186	124.6935	161.6266	221.8631	273.774	303.7845	456.5358	513.6209	536.7696	562.9208	600.238	670.136	688.2418	760.7073	852.3953	898.3948	1018.127	1048.0492	1060.4111	1177.3849	1301.7442	1389.8244	1425.2645	1841.7489	2246.9208	2357.1826	2935.6352	3123.4296	3496.9118
O=CC1(OC1C#C)C#N	O=C[C@]1(O[C@H]1C#C)C#N	
InChI=1S/C6H3NO2/c1-2-5-6(3-7,4-8)9-5/h1,4-5H	InChI=1S/C6H3NO2/c1-2-5-6(3-7,4-8)9-5/h1,4-5H/t5-,6+/m0/s1
