21
gdb 59812	3.90648	0.66446	0.65114	1.9014	86.6	-0.2414	-0.0128	0.2286	1856.5164	0.179964	-420.456799	-420.445725	-420.444781	-420.496914	38.343	
C	-0.6755211187	 1.189165384	 0.0610657666	-0.38031
C	-0.3143241009	-0.2643682101	-0.2775986314	 0.067517
C	 0.8235611187	-0.3524706912	-1.3049337549	-0.380225
N	-0.0350686146	-1.0614582617	 0.9278960845	-0.268579
C	 0.9532360184	-0.7391646273	 1.6505337407	 0.117392
N	 1.2458274048	-1.4683706735	 2.7958987131	-0.337317
C	 2.304368105	-1.1871973583	 3.6425527088	 0.411218
C	 2.4146528143	-2.1292271031	 4.827713765	-0.499564
O	 3.0677114948	-0.2660283483	 3.442059198	-0.34316
H	 0.1849254516	 1.7296400104	 0.4702147615	 0.115387
H	-1.0091729543	 1.721075069	-0.8358158191	 0.112712
H	-1.4808062928	 1.2237714107	 0.8005839543	 0.120618
H	-1.2004440885	-0.7268479436	-0.7280913096	 0.079565
H	 1.7312684373	 0.1391919348	-0.9385727035	 0.115368
H	 1.0671077951	-1.3966775846	-1.5214592348	 0.120628
H	 0.5339483896	 0.1345086888	-2.2417460327	 0.112687
H	 1.6562318748	 0.0827433342	 1.497012066	 0.135497
H	 0.6286886	-2.2435077064	 2.9920227059	 0.256384
H	 2.5476401356	-3.1630395781	 4.491726299	 0.144083
H	 3.270488971	-1.8323834834	 5.4324654389	 0.155959
H	 1.5068899088	-2.0926351224	 5.4392477938	 0.144139
2.3157	47.3339	77.9112	107.8443	154.5058	228.9885	239.5082	242.864	265.3537	339.0999	385.6775	452.5983	454.009	584.4653	594.7606	637.2049	658.4012	812.2706	927.4177	928.4711	951.6745	977.6697	1020.3817	1028.8681	1052.8537	1141.4523	1149.7969	1188.1438	1221.9573	1259.4507	1344.3019	1372.7834	1383.8023	1395.9722	1397.275	1416.6663	1466.5495	1482.1366	1484.967	1489.5849	1498.4011	1506.7005	1512.1612	1741.0447	1804.0751	3026.2004	3032.0683	3035.9183	3043.2521	3099.5158	3105.4707	3105.6125	3111.3093	3111.5128	3115.3049	3167.2588	3611.852
CC(C)N=CNC(C)=O	CC(C)N=CNC(=O)C	
InChI=1S/C6H12N2O/c1-5(2)7-4-8-6(3)9/h4-5H,1-3H3,(H,7,8,9)	InChI=1S/C6H12N2O/c1-5(2)7-4-8-6(3)9/h4-5H,1-3H3,(H,7,8,9)
