18
gdb 38277	3.70973	1.7637	1.6995	2.0219	75.43	-0.2172	0.0696	0.2868	867.7771	0.150565	-401.782064	-401.776213	-401.775269	-401.811821	26.155	
C	 0.0056055062	 1.5589717461	-0.0477572611	-0.175721
C	 1.5528321146	 1.3374229462	 0.0158604456	-0.211846
C	 1.0959923365	 0.1811499702	 0.9783413202	-0.158146
N	-0.140450153	 0.027315593	 0.0958543293	-0.188277
C	 0.4045064439	-0.2423848643	-1.2741508628	 0.048359
C	 1.4790389378	-1.1617443256	-1.9440185807	-0.01045
C	 1.9685978219	 0.1256311696	-2.727596289	-0.311507
C	 1.768231487	 0.4663549338	-1.2216112445	 0.398062
O	 2.4617409683	-0.849495344	-0.9250371364	-0.336247
H	-0.3903417106	 2.0495514916	 0.8430308159	 0.116501
H	-0.4425750209	 1.9912035162	-0.9461869483	 0.10387
H	 2.2653831075	 2.1073890799	 0.3076449595	 0.080656
H	 1.7168508377	-0.6997454428	 1.0890130618	 0.141465
H	 0.7789753594	 0.570019222	 1.9484533153	 0.102024
H	-0.3277437869	 0.1263746447	-1.9947928545	 0.084481
H	 1.4335799751	-2.1907121038	-2.307086	 0.096097
H	 3.0027184624	 0.0533367757	-3.0651234889	 0.11702
H	 1.3075119031	 0.6020077714	-3.4555568315	 0.103659
277.203	315.7024	448.2699	479.4721	518.2295	574.5832	642.3971	709.8295	746.2223	784.978	804.235	821.5067	830.1215	865.0573	910.3031	940.5657	965.4409	980.033	995.6823	1013.7679	1044.457	1056.1204	1072.911	1100.3937	1114.4745	1141.983	1161.1727	1177.5457	1187.5475	1197.6778	1221.6664	1235.5118	1258.936	1271.5373	1306.7378	1402.3805	1481.5771	1493.4583	1530.2875	3061.4624	3063.4327	3080.7745	3084.9743	3096.8422	3128.4618	3132.8578	3153.9048	3207.9268
C1C2CN1C1C3CC21O3	C1[C@H]2CN1[C@@H]1[C@H]3C[C@@]21O3	
InChI=1S/C7H9NO/c1-5-6-7(1,9-5)4-2-8(6)3-4/h4-6H,1-3H2	InChI=1S/C7H9NO/c1-5-6-7(1,9-5)4-2-8(6)3-4/h4-6H,1-3H2/t5-,6-,7-/m1/s1
