21
gdb 110205	2.15125	1.50543	1.05792	2.3833	79.01	-0.2436	0.0698	0.3135	1216.8908	0.181153	-424.179337	-424.169956	-424.169011	-424.21311	36.427	
C	-0.005203738	 1.5759912848	 0.004205272	-0.379646
C	-0.1642186222	 0.051664639	-0.0750291833	-0.240458
C	 0.6528941219	-0.5466900231	-1.212403489	-0.0115
C	 2.1902080896	-0.7718094856	-1.1070435999	 0.400982
O	 3.0861191414	 0.262979698	-0.9193233884	-0.474911
C	 1.9295820664	-2.0032330448	-0.1810531537	-0.378569
C	 0.8970072403	-2.0762554497	-1.352573948	 0.389473
O	-0.1320349758	-2.9788409798	-1.5298376401	-0.476481
C	 2.0700758116	-1.7388315302	-2.3280129398	-0.363476
H	 1.0386630688	 1.8500740026	 0.1838093945	 0.13502
H	-0.3159493286	 2.0543982045	-0.9313692694	 0.111541
H	-0.6144208156	 1.9959572006	 0.8106819286	 0.105676
H	 0.1046504735	-0.3906260447	 0.889406569	 0.096421
H	-1.2189483911	-0.2027508013	-0.2396312984	 0.104273
H	 0.362217155	-0.0778041217	-2.1608491826	 0.063578
H	 3.9748064642	-0.1047349389	-0.8658547859	 0.283862
H	 2.7076746477	-2.7736316977	-0.1759588874	 0.077207
H	 1.5499581955	-1.8162654166	 0.8230461755	 0.101167
H	 0.2418430742	-3.8648574325	-1.5827078743	 0.283819
H	 1.7985220436	-1.2894211703	-3.2862433887	 0.095753
H	 2.8534811779	-2.4963466926	-2.4315768203	 0.076271
71.0731	132.8105	221.1816	231.6963	239.5255	252.0587	285.6679	321.9854	377.2645	445.376	507.4676	559.2736	591.696	613.5635	668.7881	738.7456	755.8407	815.0125	869.4616	960.0497	992.1211	1000.4038	1005.3747	1083.7434	1087.2674	1101.5348	1118.1711	1120.1742	1122.7312	1144.6083	1164.342	1179.0952	1270.5609	1295.0966	1331.842	1340.9933	1351.4944	1393.9764	1413.7811	1450.2804	1482.3081	1496.4422	1499.8649	1511.2232	1554.872	3026.5061	3030.4671	3033.5831	3041.5046	3053.0492	3071.3588	3099.6562	3114.3854	3118.3913	3139.7013	3807.669	3809.9551
CCC1C2(O)CC1(O)C2	CC[C@H]1[C@@]2(O)C[C@]1(O)C2	
InChI=1S/C7H12O2/c1-2-5-6(8)3-7(5,9)4-6/h5,8-9H,2-4H2,1H3	InChI=1S/C7H12O2/c1-2-5-6(8)3-7(5,9)4-6/h5,8-9H,2-4H2,1H3/t5-,6-,7+
