16
gdb 132529	3.10744	1.38537	0.96966	1.0946	76.28	-0.2526	-0.0468	0.2058	1177.1637	0.123467	-442.104962	-442.096603	-442.095659	-442.138364	30.179	
C	 0.0035663463	 1.5045686577	 0.0396317833	-0.471746
C	 0.0092383945	 0.0036824915	-0.012040327	 0.30625
C	-0.1738115941	-0.7121861837	-1.1916209447	-0.076421
N	-0.1681981359	-2.0497656018	-1.2341878441	-0.284475
C	 0.0211863386	-2.7087885719	-0.0948695006	 0.187502
C	 0.0362132112	-4.209417598	-0.0883448954	-0.485899
C	 0.2031457981	-1.9603294002	 1.0797990865	 0.27516
F	 0.3928484052	-2.6217234429	 2.2209499204	-0.064465
N	 0.2014754642	-0.6576491765	 1.1448606779	-0.344489
H	 0.9547072425	 1.8778517154	 0.4325286667	 0.146193
H	-0.159632592	 1.936617684	-0.9503477331	 0.127279
H	-0.7831034481	 1.861676647	 0.7119388925	 0.146193
H	-0.3302384167	-0.1954900038	-2.1342709848	 0.111738
H	 0.9906748677	-4.5934988151	 0.2874192871	 0.14188
H	-0.745175757	-4.6096672999	 0.566594757	 0.14188
H	-0.1234883946	-4.5771127518	-1.1026255817	 0.143421
87.8468	96.5601	121.8211	231.3675	274.2071	297.8748	342.6416	485.0089	497.2827	525.212	575.1922	636.3814	723.7273	778.0939	792.8491	920.5453	964.7089	1021.9299	1039.9676	1059.2262	1061.0852	1192.858	1244.8479	1305.0407	1312.7323	1407.2636	1411.2073	1432.3716	1472.8576	1474.9523	1479.8276	1486.6991	1498.4002	1590.8365	1628.7356	3039.7853	3042.2801	3093.1261	3102.1261	3129.3785	3148.435	3168.5046
CC1=CN=C(C)C(F)=N1	Cc1cnc(C)c(F)n1	
InChI=1S/C6H7FN2/c1-4-3-8-5(2)6(7)9-4/h3H,1-2H3	InChI=1S/C6H7FN2/c1-4-3-8-5(2)6(7)9-4/h3H,1-2H3
