19
gdb 91083	3.42089	1.39462	1.2156	1.4599	81.61	-0.2179	0.0155	0.2334	1072.7808	0.16083	-385.851726	-385.844288	-385.843344	-385.883367	30.402	
O	-0.2481120277	 1.4058401338	-0.1369635208	-0.426626
C	 0.0058507388	 0.0303869611	-0.0179332073	 0.051896
C	 0.2706772533	-0.6024481962	 1.4087201784	-0.297561
C	-0.6710099644	-1.7986463749	 1.0128593251	-0.048991
C	-1.9205744592	-2.2808801866	 1.7310416725	-0.066118
C	-2.8661914113	-1.2953513957	 2.3650270713	-0.283689
C	-3.1162785194	-1.7297626341	 0.9327144959	-0.061767
C	-2.5362552793	-0.780019754	-0.0726449027	-0.223874
C	-1.2046973777	-0.860713114	-0.0478324341	 0.228877
H	 0.5939693302	 1.8647727577	-0.2136696967	 0.284619
H	 0.7874287719	-0.2973131014	-0.7203227394	 0.073971
H	 1.3064699	-0.8450354925	 1.6599063885	 0.093558
H	-0.1691458324	 0.0335556272	 2.1796371905	 0.115274
H	-0.079536282	-2.6373748034	 0.6292075374	 0.071336
H	-1.9473868566	-3.2988939083	 2.1009763764	 0.081158
H	-3.5280317029	-1.6909966205	 3.1288291561	 0.107784
H	-2.5440897447	-0.2731273099	 2.5360707422	 0.114885
H	-3.9941820494	-2.3292753747	 0.7152513148	 0.083685
H	-3.1260218173	-0.0226476035	-0.5754839783	 0.101586
111.1364	187.2228	250.4643	257.2453	371.8544	421.0355	498.693	515.7029	641.4711	668.8685	670.7112	774.4033	788.086	837.4139	854.2041	855.6969	913.9999	932.1317	967.4204	990.5208	1024.5978	1054.4231	1069.7375	1074.1625	1094.4762	1097.5486	1103.114	1150.0926	1185.8674	1193.3087	1214.0411	1233.2178	1266.5582	1293.4956	1327.6741	1342.7799	1373.1448	1434.6263	1468.5973	1476.3806	1710.835	2980.613	3035.6927	3059.0289	3122.1622	3131.0246	3158.698	3178.5129	3201.3521	3209.3381	3822.6749
OC1CC2C3CC3C=C12	O[C@H]1C[C@H]2[C@H]3C[C@H]3[CH][C]12	
InChI=1S/C8H10O/c9-8-3-6-5-1-4(5)2-7(6)8/h2,4-6,8-9H,1,3H2	InChI=1S/C8H10O/c9-8-3-6-5-1-4(5)2-7(6)8/h2,4-6,8-9H,1,3H2/t4-,5-,6-,8-/m0/s1
