17
gdb 27552	4.31412	0.98747	0.85313	2.7819	76.25	-0.1859	0.0514	0.2373	1322.5766	0.13753	-418.008903	-418.000622	-417.999678	-418.042006	31.453	
O	 0.5630124195	 1.1898484446	 0.2458982973	-0.435168
C	 0.264965938	-0.1263309986	 0.1063198143	 0.412757
C	 0.7765398784	-1.1328444394	-0.6751260978	-0.448494
C	 0.0212797721	-2.3178967282	-0.3647583824	 0.330984
C	-0.9040492683	-1.9728214285	 0.5886865394	-0.201429
N	-0.7485899154	-0.6256063953	 0.8674990784	-0.303515
C	 0.1995052018	-3.6691286158	-0.9317200478	-0.091153
C	 0.7546107946	-3.8724508469	-2.2975058274	-0.247481
N	 1.5544063544	-4.2416938718	-1.1197844406	-0.32523
H	 1.2915307889	 1.3998939752	-0.3457060196	 0.30833
H	 1.5815525401	-1.0339791864	-1.3877720697	 0.08711
H	-1.6533511852	-2.5624323505	 1.0900491809	 0.119316
H	-1.2802051704	-0.0837937907	 1.5258374554	 0.266465
H	-0.517420876	-4.4011719898	-0.5667853886	 0.078816
H	 0.4185243823	-4.7100108757	-2.9033349667	 0.11333
H	 1.0259230182	-2.98614032	-2.865218117	 0.108148
H	 2.2409830571	-3.5148852122	-0.9290170581	 0.227215
68.5353	141.2064	159.6556	225.7686	281.8075	374.1544	392.7002	447.8817	473.6355	591.1047	634.2702	676.6505	684.152	728.8076	741.2478	808.6742	877.7997	960.6045	972.5621	993.3862	1015.2079	1089.8078	1117.3981	1141.4277	1161.7412	1173.0269	1205.4945	1244.2361	1275.0728	1300.2678	1347.4427	1407.0068	1425.4129	1508.5849	1542.1829	1584.0232	1640.2489	3102.8232	3128.7058	3187.3034	3235.0137	3270.8402	3492.119	3688.2621	3850.4874
OC1=CC(=CN1)C1CN1	Oc1cc(c[nH]1)[C@H]1CN1	
InChI=1S/C6H8N2O/c9-6-1-4(2-8-6)5-3-7-5/h1-2,5,7-9H,3H2	InChI=1S/C6H8N2O/c9-6-1-4(2-8-6)5-3-7-5/h1-2,5,7-9H,3H2/t5-/m1/s1
