19
gdb 105190	1.93335	1.43327	1.09197	3.438	72.34	-0.2458	-0.023	0.2229	1223.6826	0.155412	-460.161328	-460.151029	-460.150085	-460.197078	36.45	
C	 0.2686610851	 1.223333816	-0.2832131323	-0.427861
C	 0.4446291901	-0.1968992179	 0.1880842609	 0.037504
O	 1.7412358452	-0.6099052084	 0.6225069819	-0.293218
C	 0.6756047984	-0.6120560513	 1.5943503016	 0.232616
C	 0.8604068987	 0.3618560559	 2.7408659284	-0.142418
O	 2.0499734108	 0.055954242	 3.4491427019	-0.421737
C	 0.1715212284	-1.9862566233	 2.0073570994	 0.335626
C	 0.7730538838	-3.1876321341	 1.3127393236	-0.479201
O	-0.6729638206	-2.0760257258	 2.8687042155	-0.306571
H	 0.825118113	 1.931733536	 0.331698714	 0.136129
H	 0.6264168818	 1.3146293445	-1.3140073674	 0.136362
H	-0.7909972204	 1.498495838	-0.2708656825	 0.136009
H	-0.047935811	-0.9348730192	-0.4495613512	 0.093995
H	 0.862013058	 1.3988760424	 2.3834710738	 0.088849
H	 0.0321969843	 0.2345609925	 3.4412400738	 0.143125
H	 2.7688433573	 0.0952349505	 2.8074444149	 0.291541
H	 0.7447279327	-3.0863968725	 0.2240431298	 0.142817
H	 1.8316112693	-3.2635285679	 1.5852748354	 0.156001
H	 0.2437821553	-4.0880405974	 1.6255279485	 0.140431
60.6775	74.606	112.9122	148.4431	156.9179	205.3761	216.9756	297.0551	333.9017	410.8134	438.1969	503.1354	524.1519	541.3944	607.208	694.5182	794.4312	880.3791	915.6725	965.1069	997.5271	1024.7111	1047.6788	1075.0065	1105.2983	1136.9527	1197.8294	1213.6174	1303.8328	1333.0911	1379.6759	1386.0289	1409.2091	1425.6241	1447.5059	1456.5818	1468.1544	1487.3452	1495.4462	1507.3641	1805.6481	3028.1759	3045.1437	3046.4318	3078.9999	3106.0188	3108.3734	3118.8883	3146.6234	3158.4645	3794.6962
CC1OC1(CO)C(C)=O	C[C@H]1O[C@]1(CO)C(=O)C	
InChI=1S/C6H10O3/c1-4(8)6(3-7)5(2)9-6/h5,7H,3H2,1-2H3	InChI=1S/C6H10O3/c1-4(8)6(3-7)5(2)9-6/h5,7H,3H2,1-2H3/t5-,6-/m1/s1
