17
gdb 96762	2.23388	1.78883	1.00573	3.8736	81.84	-0.2152	-0.0732	0.142	1154.5393	0.13536	-418.041742	-418.032514	-418.03157	-418.077081	32.014	
C	 0.1165771432	 1.3837579842	 0.0486649546	-0.347747
N	-0.0098557042	-0.0642175014	 0.0172880917	-0.314256
C	-1.1492642655	-0.6165187919	 0.0280922453	 0.277454
N	-1.2685713264	-2.0145277165	-0.0022102164	-0.082111
C	-0.1400914638	-2.9167248437	-0.0472502025	-0.330346
C	-2.5955730713	-2.3531355865	 0.0174146247	-0.001515
C	-3.4322336133	-1.2811024036	 0.059974713	-0.296609
C	-2.6106970838	-0.0851391216	 0.0710017125	 0.33048
O	-2.9281511788	 1.0891613579	 0.1052332746	-0.350343
H	 0.7269126343	 1.6525343535	 0.9191616397	 0.130695
H	 0.6900533196	 1.6937216598	-0.8331314686	 0.130699
H	-0.8312781308	 1.922257405	 0.0812489128	 0.167208
H	 0.5031839946	-2.7784056243	 0.8272585923	 0.147814
H	-0.5092817149	-3.944363675	-0.0631803691	 0.129992
H	 0.4655080047	-2.7374555722	-0.9410314707	 0.147773
H	-2.8609189898	-3.4031659294	-0.0017538461	 0.141588
H	-4.5093416237	-1.3034982843	 0.0819349921	 0.119222
31.7078	66.0552	112.4354	128.5165	224.1583	273.5923	302.5862	345.118	390.7918	535.9395	549.6357	589.6511	699.9544	720.9365	763.3875	828.0211	950.4449	972.4743	1025.8932	1077.3979	1114.8483	1128.334	1156.9566	1163.2205	1182.9297	1315.2912	1328.3929	1431.1064	1443.2199	1463.5634	1469.8398	1486.5272	1499.1696	1523.6689	1608.3104	1732.9139	1782.0523	3024.8118	3038.9892	3071.4335	3097.4596	3133.6328	3144.5932	3214.094	3272.1184
CN=C1N(C)C=CC1=O	CN=C1N(C)C=CC1=O	
InChI=1S/C6H8N2O/c1-7-6-5(9)3-4-8(6)2/h3-4H,1-2H3	InChI=1S/C6H8N2O/c1-7-6-5(9)3-4-8(6)2/h3-4H,1-2H3
