22
gdb 119068	1.91067	1.4187	0.99558	3.2884	79.85	-0.228	0.0657	0.2938	1311.3793	0.191705	-441.432078	-441.421356	-441.420412	-441.468143	38.322	
C	-0.102152449	 1.3794495663	 0.1336098021	-0.230964
O	-0.2269328528	-0.0118052477	 0.3352831864	-0.242824
C	 0.9277937946	-0.5941396892	 0.9330339425	-0.154156
C	 0.7386979608	-2.0960609517	 0.9454134081	 0.249615
C	 0.930749996	-2.7726177569	-0.4058935365	-0.084546
O	 0.380950442	-2.0555851276	-1.497375366	-0.435367
C	 1.0969615341	-2.8652737868	 2.1749912624	-0.299865
N	-0.2975604812	-2.7019164044	 1.7953758672	-0.099286
C	-1.1439787067	-1.8748938813	 2.6459405607	-0.308612
H	 0.7327318619	 1.6171135197	-0.5422150773	 0.116636
H	-1.0347447596	 1.7294793238	-0.314382149	 0.133323
H	 0.0579885525	 1.9098954961	 1.0845440927	 0.110034
H	 1.8241791698	-0.3408408068	 0.3456845279	 0.107834
H	 1.0681729783	-0.1855297111	 1.9437825051	 0.094387
H	 2.0074185214	-2.876884253	-0.6039765631	 0.091093
H	 0.5042124494	-3.7837430946	-0.3348758207	 0.094264
H	-0.2905396461	-1.4587769468	-1.1464623488	 0.289958
H	 1.5062152757	-3.8695520523	 2.0895120562	 0.115199
H	 1.4681899294	-2.2984567434	 3.0290809203	 0.102913
H	-0.6162070031	-1.0628889156	 3.1695912955	 0.095249
H	-1.9385610688	-1.4311928683	 2.0414972834	 0.133659
H	-1.5991465286	-2.5194099784	 3.4048375311	 0.121458
51.6319	76.3364	119.2598	155.321	191.8369	210.2846	229.3409	275.4163	305.5563	326.633	343.6337	403.1354	441.5218	510.8401	521.789	724.047	841.898	900.3842	919.841	967.8801	981.8078	1054.1384	1072.1359	1083.5161	1123.6275	1141.2713	1155.7695	1161.9924	1184.8645	1202.6169	1224.4665	1246.06	1272.4198	1300.4249	1341.9456	1385.2015	1426.6823	1449.9017	1464.4902	1480.0436	1483.8875	1486.898	1495.9717	1504.2111	1511.5756	1513.6028	1524.8948	2975.9188	2980.98	2988.2295	2991.6945	3020.1764	3024.0963	3032.4014	3071.8777	3080.5397	3121.3372	3122.0233	3164.9892	3783.6992
COCC1(CO)CN1C	COC[C@@]1(CO)CN1C	
InChI=1S/C6H13NO2/c1-7-3-6(7,4-8)5-9-2/h8H,3-5H2,1-2H3	InChI=1S/C6H13NO2/c1-7-3-6(7,4-8)5-9-2/h8H,3-5H2,1-2H3/t6-,7?/m0/s1
