24
gdb 118844	2.45326	0.86591	0.72113	2.3487	86.43	-0.2417	0.0712	0.3129	1695.6043	0.216155	-405.530166	-405.519182	-405.518238	-405.567018	39.988	
C	 0.2541747385	 1.5406667024	-0.1505023714	-0.382192
C	 0.3431963502	 0.013418322	-0.0890139491	-0.166501
C	 0.3313225792	-0.5204424424	 1.3511344146	-0.230039
C	 0.5296174348	-2.0269038298	 1.4456155325	 0.318067
C	-0.5764301486	-2.8610206827	 0.8218799974	-0.467927
N	 1.9221890158	-2.483003118	 1.2379635305	-0.381819
C	 1.2888479851	-2.6617461633	 2.5643903286	-0.084102
C	 1.9920558144	-1.9551176959	 3.7012449858	-0.075045
O	 3.2634133263	-2.5397514885	 3.9376235651	-0.422263
H	 1.0945473451	 2.0074954763	 0.375155704	 0.116055
H	 0.2678510912	 1.8994282218	-1.1844331449	 0.111117
H	-0.6686890949	 1.9047295864	 0.3152998786	 0.112124
H	-0.4879365457	-0.4179388328	-0.659820625	 0.09361
H	 1.2651750512	-0.3258308924	-0.5763286817	 0.11003
H	 1.1240460047	-0.014447971	 1.9089439295	 0.102637
H	-0.6163070711	-0.253165886	 1.8389385128	 0.09072
H	-0.6480856445	-2.6872158327	-0.2568638878	 0.126074
H	-0.4000061647	-3.9299724063	 0.9784559511	 0.112807
H	-1.5495779842	-2.6148578578	 1.2612166508	 0.123626
H	 1.933310932	-3.3639178487	 0.7298792905	 0.226384
H	 0.9840219105	-3.6764235144	 2.819599748	 0.082496
H	 2.0867857538	-0.8802605648	 3.4978752824	 0.089987
H	 1.4216581116	-2.0691737226	 4.6293604731	 0.105747
H	 3.7207433093	-2.5134345488	 3.0883055047	 0.288406
48.1468	63.4331	90.1591	133.9369	172.1134	206.589	242.8269	263.8665	313.0557	321.6796	378.3708	434.3038	456.6377	493.8879	588.2979	722.699	745.8353	825.2485	871.792	883.1907	911.9833	972.9736	985.8581	1016.9024	1021.8365	1048.8344	1063.8679	1070.8071	1116.9258	1139.0214	1154.613	1194.4184	1260.0056	1264.8557	1297.6026	1316.0046	1343.9493	1353.8236	1370.3107	1398.2746	1411.6656	1416.9738	1424.4194	1471.5664	1472.5333	1490.7112	1493.8437	1499.3872	1500.7497	1505.3072	1510.4824	3013.1528	3018.0739	3027.0606	3029.0267	3031.2392	3059.5407	3071.7395	3087.8688	3095.2169	3097.8219	3100.7574	3102.6759	3110.777	3494.4034	3785.3357
CCCC1(C)NC1CO	CCC[C@@]1(C)N[C@H]1CO	
InChI=1S/C7H15NO/c1-3-4-7(2)6(5-9)8-7/h6,8-9H,3-5H2,1-2H3	InChI=1S/C7H15NO/c1-3-4-7(2)6(5-9)8-7/h6,8-9H,3-5H2,1-2H3/t6-,7+/m0/s1
