19
gdb 108142	3.61706	1.32877	1.23128	1.4058	74.37	-0.2389	0.0905	0.3294	1080.1994	0.159973	-422.983207	-422.975461	-422.974516	-423.015521	30.151	
C	 0.039408183	 1.3156605449	-0.2366818056	-0.259643
O	-0.0626358964	-0.0225420089	 0.2213354037	-0.281433
C	-1.3399732976	-0.5277269028	 0.1565384235	 0.433901
C	-2.4686840302	-0.2366298133	 1.1500204984	-0.329357
C	-3.0574911892	-1.634274487	 0.7525137252	 0.085861
O	-4.0454568933	-1.5302768481	-0.2610450046	-0.262912
C	-3.4034783153	-0.9686663045	-1.4119571752	-0.102242
C	-1.9089682565	-1.0971832956	-1.1420731778	-0.149831
C	-1.7166633935	-1.9866060485	 0.0626659805	-0.175512
H	 1.0879393578	 1.6058589389	-0.1424101719	 0.129134
H	-0.2676322036	 1.4039194246	-1.2883010796	 0.110269
H	-0.5750731138	 1.9988563039	 0.3658940489	 0.115262
H	-2.0882733159	-0.2374509732	 2.1755636104	 0.107325
H	-3.121236534	 0.6285161576	 0.9950553682	 0.0956
H	-3.4436225683	-2.2638650128	 1.5518837997	 0.088005
H	-3.709244022	-1.5389350888	-2.2972788681	 0.105587
H	-3.7223515653	 0.0736916014	-1.5506550564	 0.095438
H	-1.2089020079	-1.1810041094	-1.9647426721	 0.096916
H	-1.1319032581	-2.8945172285	 0.1063258928	 0.097631
86.2426	157.2249	177.8001	227.007	349.7957	361.549	434.4307	469.37	610.7296	688.7543	712.0962	755.3146	843.9059	873.5548	896.279	912.1558	942.1316	979.3128	991.8415	1001.7326	1036.9003	1063.2162	1091.1082	1114.79	1147.2791	1174.0812	1180.6961	1185.0417	1211.6235	1220.3952	1245.2889	1254.6969	1300.7668	1328.0053	1368.3613	1417.1161	1479.8173	1487.6792	1499.6811	1507.1213	1525.6396	2993.1894	3002.9351	3042.971	3047.6172	3048.3154	3102.2922	3124.154	3137.9387	3192.8953	3216.9826
COC12CC3OCC1C23	CO[C@@]12C[C@H]3OC[C@@H]1[C@@H]23	
InChI=1S/C7H10O2/c1-8-7-2-5-6(7)4(7)3-9-5/h4-6H,2-3H2,1H3	InChI=1S/C7H10O2/c1-8-7-2-5-6(7)4(7)3-9-5/h4-6H,2-3H2,1H3/t4-,5-,6-,7+/m1/s1
