17
gdb 80954	2.45538	1.38405	1.26292	4.6991	74.21	-0.2665	0.0038	0.2703	1087.8243	0.135518	-417.941743	-417.933329	-417.932384	-417.974519	31.869	
C	-0.0679783743	 1.567813032	-0.0514025178	-0.452427
C	 0.0900974039	 0.0649171808	 0.0364559121	 0.039397
N	 1.3014362053	-0.6038120296	-0.6822070045	-0.150703
C	 2.1410829229	-0.1550757531	 0.5263491591	-0.252652
C	 0.8304001047	-0.6527696884	 1.183454881	 0.339195
O	 0.4189274021	-0.6587982671	 2.494019085	-0.450615
C	 0.9815189039	-1.8458329739	 0.1711223203	-0.188803
C	-0.1695236638	-2.6430483464	-0.2193544824	 0.295183
N	-1.0725368745	-3.3089739258	-0.498700184	-0.330603
H	-0.2442793594	 1.8585537387	-1.0917046168	 0.140701
H	-0.943977927	 1.8675842846	 0.5322778416	 0.13931
H	 0.7868419955	 2.1354996203	 0.3205959062	 0.125065
H	-0.8418922696	-0.4156911689	-0.2725168859	 0.110787
H	 3.0478543946	-0.7497421579	 0.6648351705	 0.107485
H	 2.3648208433	 0.9089716227	 0.5376651314	 0.120069
H	 1.0730137243	-1.1133109658	 3.037192684	 0.291259
H	 1.8538471482	-2.4912782022	 0.3000515303	 0.117353
130.6704	147.8565	153.5711	206.5791	258.4734	321.7688	369.7788	402.6322	469.8039	525.3225	548.5376	636.2271	667.9405	766.2582	792.9442	822.7195	893.993	930.0135	992.6801	1038.135	1057.8977	1081.5857	1108.9111	1128.7302	1148.8046	1168.5361	1197.4789	1247.8174	1285.2314	1351.7429	1388.6992	1411.2444	1447.4346	1492.1439	1500.0882	1543.0423	2352.3505	3047.9178	3072.3269	3077.8735	3086.2679	3111.7766	3130.2034	3169.6103	3801.9385
CC1N2CC1(O)C2C#N	C[C@H]1N2C[C@]1(O)[C@H]2C#N	
InChI=1S/C6H8N2O/c1-4-6(9)3-8(4)5(6)2-7/h4-5,9H,3H2,1H3	InChI=1S/C6H8N2O/c1-4-6(9)3-8(4)5(6)2-7/h4-5,9H,3H2,1H3/t4-,5-,6-/m1/s1
