19
gdb 111533	2.40923	1.694	1.22004	3.4563	75.03	-0.246	0.0693	0.3154	1063.5838	0.159646	-422.965496	-422.957525	-422.95658	-422.997826	31.528	
O	 0.5368370968	 0.099248469	 0.7563590274	-0.430701
C	-0.108407126	 0.1553334849	-0.5024435878	-0.09263
C	-1.5093396183	-0.4427052404	-0.4654443679	-0.035959
C	-2.0726566667	-1.4497586129	-1.4341428699	-0.081658
C	-1.0004118792	-2.4323797046	-1.9400447503	-0.332677
C	-0.6946507884	-2.768754735	-0.4692782926	 0.449595
C	-0.1690480398	-3.9912706372	 0.1310119859	-0.277042
O	 0.6219181376	-2.7907781227	 0.0957946652	-0.281667
C	-1.7786468813	-1.8466397378	 0.0254708864	-0.16245
H	 0.7227703595	-0.8343306203	 0.92465465	 0.293812
H	-0.1766670561	 1.2159823488	-0.7668244081	 0.103428
H	 0.5013021845	-0.3254769521	-1.2796610557	 0.093244
H	-2.2669683955	 0.2466306823	-0.0992501624	 0.095602
H	-3.0418915932	-1.3181096439	-1.8978663868	 0.093734
H	-1.4361273417	-3.2845812816	-2.4684525736	 0.113461
H	-0.1764374673	-2.0295187091	-2.5349464972	 0.116407
H	-0.5074687094	-4.297060038	 1.1203495294	 0.121992
H	 0.1921621732	-4.798400355	-0.5050046818	 0.12057
H	-2.4611957486	-2.0515755843	 0.8409056699	 0.09294
120.2721	126.616	195.8619	253.0567	311.8909	376.3285	434.6173	456.96	508.1534	555.5703	639.281	749.237	791.6768	797.3099	852.6539	890.6048	909.6181	930.8109	972.1866	990.3183	1006.7757	1039.6941	1068.3348	1077.5516	1097.1187	1119.8163	1149.5583	1171.3566	1178.5595	1191.3492	1237.593	1257.016	1293.4563	1319.2027	1385.5098	1431.6133	1442.5797	1452.0555	1483.5002	1507.0966	1536.5006	3006.2414	3059.6497	3067.677	3081.4968	3108.9611	3137.2042	3168.1802	3185.9468	3198.026	3753.9439
OCC1C2CC3(CO3)C12	OC[C@H]1[C@H]2C[C@]3(CO3)[C@@H]12	
InChI=1S/C7H10O2/c8-2-5-4-1-7(3-9-7)6(4)5/h4-6,8H,1-3H2	InChI=1S/C7H10O2/c8-2-5-4-1-7(3-9-7)6(4)5/h4-6,8H,1-3H2/t4-,5+,6-,7+/m1/s1
