17
gdb 32685	3.77401	1.25906	0.99891	3.2479	75.85	-0.2229	0.0316	0.2545	1169.0138	0.137817	-417.991486	-417.983675	-417.982731	-418.024462	28.463	
C	-0.286345234	 1.3279751328	-0.1972476891	-0.241553
O	 0.3963229313	 0.1253279557	 0.0944863944	-0.223058
C	 0.8162412298	-0.55466325	-1.0530130504	-0.0645
C	 1.3580904553	-1.9853879762	-0.7043218288	-0.199449
N	 0.2676957363	-2.5138729702	-1.5556136739	-0.011253
C	-0.4209778083	-3.4681341919	-2.2308019526	-0.026291
N	-1.3610205673	-2.8942482678	-2.9662464945	-0.26203
C	-1.2605063728	-1.5316379392	-2.7797735471	-0.232415
C	-0.2397175335	-1.2901598446	-1.8913716626	 0.288722
H	 0.3490775986	 2.0270250349	-0.7625085152	 0.108408
H	-1.2017605538	 1.1389412383	-0.775968955	 0.121429
H	-0.5555904371	 1.7843364689	 0.757387427	 0.134111
H	 1.5109911925	 0.0634069354	-1.6404107672	 0.087824
H	 2.358773838	-2.224506618	-1.0702282366	 0.133558
H	 1.2562565523	-2.2394719242	 0.3521297473	 0.143255
H	-0.2298817565	-4.5272996349	-2.1619775347	 0.134505
H	-1.9231269307	-0.848519709	-3.2869542611	 0.108738
77.199	111.9821	136.5038	210.2262	246.6952	376.0191	440.7153	526.2878	661.9808	667.3733	765.5251	786.1085	793.697	836.9864	878.5001	946.718	1014.0947	1068.6681	1089.646	1118.727	1146.4474	1161.4485	1182.0956	1215.4675	1234.192	1244.5107	1248.2657	1292.2418	1361.927	1365.6355	1424.6713	1454.3521	1481.9999	1487.1515	1505.1926	1508.011	1546.7761	2981.7999	2997.9503	3037.2776	3074.4232	3126.4015	3139.7404	3258.1927	3265.0543
COC1CN2C=NC=C12	CO[C@H]1Cn2cncc12	
InChI=1S/C6H8N2O/c1-9-6-3-8-4-7-2-5(6)8/h2,4,6H,3H2,1H3	InChI=1S/C6H8N2O/c1-9-6-3-8-4-7-2-5(6)8/h2,4,6H,3H2,1H3/t6-/m0/s1
