20
gdb 28313	3.03067	1.42225	0.99275	1.6905	89.53	-0.1886	0.0597	0.2483	1229.1355	0.171304	-366.027519	-366.018387	-366.017443	-366.0621	33.195	
C	-0.2844313799	 1.524837802	 0.0676391053	-0.494462
C	-0.01549571	 0.0509102314	-0.0073142929	 0.234533
C	 0.1397793477	-0.683723235	-1.1755534853	-0.268639
N	 0.3107789651	-1.9805735197	-0.7781395982	 0.013901
C	 0.716698225	-3.3737664872	-1.0108913698	-0.167966
C	 0.6719212406	-3.5540363173	 0.5568205057	-0.381341
C	 0.3071261615	-2.0770239832	 0.5799237192	 0.291495
C	 0.1054755389	-0.8311848909	 1.1299523	-0.024672
C	 0.018438203	-0.4374744076	 2.5727767648	-0.504035
H	 0.4792742731	 2.0501366876	 0.6549685927	 0.118505
H	-0.2983778104	 1.9745655428	-0.9295457299	 0.115076
H	-1.2501509725	 1.7440449976	 0.5408825097	 0.119044
H	 0.1008040488	-0.3755058521	-2.2081151317	 0.112583
H	-0.0061193585	-3.9617943562	-1.5845608428	 0.120304
H	 1.7106676349	-3.4785784601	-1.4566693701	 0.123238
H	-0.09065866	-4.2530181039	 0.9121561663	 0.118602
H	 1.6328801461	-3.82319326	 1.0040727493	 0.120123
H	 0.7630293118	 0.3244180027	 2.835553917	 0.11959
H	-0.9632569033	-0.0183139103	 2.8281798736	 0.119952
H	 0.1854100881	-1.2981652405	 3.2270449371	 0.114169
36.9393	104.1769	126.2216	171.6694	222.4074	254.0218	280.4456	290.9726	536.2768	564.298	624.2049	638.6943	654.5033	696.4211	809.5072	819.4201	848.0823	914.9567	992.1057	1047.2778	1053.4393	1055.986	1071.2567	1098.4163	1137.7523	1171.4872	1177.9183	1214.2139	1232.7052	1279.6217	1360.9605	1406.2342	1416.0954	1424.6455	1436.8466	1477.7721	1486.6584	1487.2906	1492.5148	1501.8887	1511.7402	1540.4756	1637.3832	3013.0823	3014.1683	3044.0683	3055.0507	3055.2221	3056.7414	3088.0177	3099.7098	3101.0364	3103.6984	3256.9062
CC1=CN2CCC2=C1C	Cc1cn2CCc2c1C	
InChI=1S/C8H11N/c1-6-5-9-4-3-8(9)7(6)2/h5H,3-4H2,1-2H3	InChI=1S/C8H11N/c1-6-5-9-4-3-8(9)7(6)2/h5H,3-4H2,1-2H3
