20
gdb 67041	2.12892	2.02703	1.55973	2.3049	77.63	-0.2155	0.0673	0.2828	980.6345	0.171525	-403.120553	-403.112352	-403.111408	-403.152604	32.732	
C	-0.1861537748	 1.4937083601	-0.0148271736	-0.513517
C	 0.0699282005	 0.0222224387	 0.0318511852	 0.310261
C	 0.8012933202	-0.8466710957	-0.9105644597	-0.068407
C	 1.7379395262	-1.8139689039	-0.1911792267	-0.249885
C	 1.4445625715	-1.5670755215	 1.3110830579	-0.271283
C	 0.0640043112	-0.9003765473	 1.2859045619	 0.336843
O	-0.3575237904	-0.2881160104	 2.4725324351	-0.49604
C	-0.9389793147	-1.7799780641	 0.4951866126	-0.213968
N	-0.685026428	-1.009408023	-0.7698471967	-0.192105
H	 0.6605161973	 2.053949659	 0.3974035212	 0.121365
H	-0.3431676423	 1.818030117	-1.0478053116	 0.126895
H	-1.0744231921	 1.7553163634	 0.5686405574	 0.133409
H	 1.0662340063	-0.4885818089	-1.9002703958	 0.092442
H	 1.5483487867	-2.8519116706	-0.4855221702	 0.109559
H	 2.7797422083	-1.5988321899	-0.4455016656	 0.10683
H	 1.449988601	-2.4894043592	 1.9044872141	 0.087256
H	 2.1714238141	-0.8744925573	 1.7500268902	 0.104353
H	-0.3090976758	-0.9341982374	 3.1849443102	 0.279288
H	-0.7557722544	-2.8599654298	 0.4352696	 0.086158
H	-1.9711846111	-1.5994679892	 0.804607714	 0.110547
163.988	191.3706	201.3982	216.5576	238.4247	334.2784	389.8681	445.5457	458.0415	563.3108	611.9076	646.5547	694.7987	751.2981	823.1763	832.8072	887.5233	935.5891	944.0639	954.4876	984.9319	1030.1144	1077.7917	1099.7351	1111.9935	1134.7334	1167.243	1195.8766	1222.2066	1229.2684	1247.0612	1276.9699	1293.4157	1318.4814	1328.6544	1380.3389	1407.3548	1457.2206	1478.7899	1483.2271	1491.2206	1494.3186	1512.4344	3024.0044	3027.4691	3033.1717	3047.4117	3071.1635	3091.2321	3097.0458	3103.3653	3113.3525	3163.3498	3810.7664
CC12C3CCC1(O)CN23	C[C@@]12[C@H]3CC[C@]1(O)CN23	
InChI=1S/C7H11NO/c1-6-5-2-3-7(6,9)4-8(5)6/h5,9H,2-4H2,1H3	InChI=1S/C7H11NO/c1-6-5-2-3-7(6,9)4-8(5)6/h5,9H,2-4H2,1H3/t5-,6-,7+,8?/m1/s1
