18
gdb 10753	2.80108	1.7093	1.44391	1.3771	68.	-0.2467	-0.0315	0.2152	960.2911	0.150788	-384.934519	-384.925574	-384.92463	-384.968117	32.708	
C	 0.2823250198	 1.4071121778	 0.2485823471	-0.401699
C	-0.0173508775	-0.0912642082	 0.0999150401	 0.215035
O	 0.5624207693	-0.7139269189	 1.2424336534	-0.457678
C	-1.542255924	-0.2518042128	 0.1775700705	 0.12233
O	-2.2872699587	-0.2968770881	-0.7652068659	-0.249787
C	 0.5144639327	-0.6364391043	-1.2181357635	 0.018446
C	 1.9884234372	-0.8432477801	-1.4289290775	-0.27519
C	 1.0647094146	-2.0345793917	-1.3455602176	-0.293726
H	 1.3645883965	 1.5511426997	 0.299989615	 0.135314
H	-0.1126363433	 1.9622874597	-0.6057986602	 0.131615
H	-0.1624252907	 1.8024689336	 1.1667552199	 0.125035
H	 0.3530117329	-1.6540379612	 1.2142551516	 0.284955
H	-1.9126064314	-0.3077217853	 1.2284419037	 0.08465
H	-0.0632080141	-0.2840581363	-2.0659056899	 0.106392
H	 2.4175371368	-0.5792114189	-2.388838196	 0.113772
H	 2.6388080074	-0.6742392027	-0.5776249601	 0.123036
H	 1.1482487441	-2.6582365071	-0.4612213353	 0.097621
H	 0.8342612785	-2.587150905	-2.2491502153	 0.119879
61.0539	82.5152	170.6316	222.572	250.298	283.0349	304.8223	355.4702	376.6415	458.6388	510.5352	628.5562	684.4218	790.1831	830.5316	898.8522	905.757	942.9218	980.1055	989.4818	1057.9511	1072.8288	1084.5166	1096.3355	1144.108	1195.581	1196.7088	1219.7959	1250.1117	1334.7387	1386.6327	1396.959	1408.9449	1461.6724	1480.6283	1493.1411	1504.0384	1834.7431	2862.0654	3044.8735	3120.04	3130.7761	3133.9908	3137.5205	3171.3331	3210.2423	3227.6634	3803.4842
CC(O)(C=O)C1CC1	C[C@@](O)(C=O)C1CC1	
InChI=1S/C6H10O2/c1-6(8,4-7)5-2-3-5/h4-5,8H,2-3H2,1H3	InChI=1S/C6H10O2/c1-6(8,4-7)5-2-3-5/h4-5,8H,2-3H2,1H3/t6-/m1/s1
