17
gdb 7257	4.38586	1.16881	0.99583	1.0442	67.9	-0.2736	-0.0224	0.2512	1192.542	0.13996	-401.042912	-401.033693	-401.032748	-401.077627	31.636	
C	 0.2622963828	 1.6100382741	 0.7895559731	-0.38656
C	-0.1708582223	 0.3996130371	-0.0394022977	-0.096192
C	 0.5495302942	-0.8949609467	 0.3932359925	-0.396781
C	-1.6705112193	 0.1992534944	 0.0446970473	 0.471019
O	-2.4207039712	 0.7183611624	 0.8248973059	-0.339095
O	-2.0775243981	-0.7000667897	-0.9183806991	-0.212339
C	-3.4079048708	-1.0295491024	-0.9770873879	 0.114093
N	-3.7715783522	-1.8569425354	-1.8520261919	-0.420158
H	 1.3420164298	 1.7590937901	 0.6991418445	 0.11472
H	-0.2411513241	 2.5219489658	 0.4583591196	 0.126654
H	 0.0200853833	 1.4637364607	 1.8456557619	 0.13366
H	 0.0573911163	 0.5681131201	-1.0989941918	 0.112876
H	 0.3383326501	-1.1242585268	 1.443051718	 0.128228
H	 0.2387131912	-1.7457839281	-0.2169117771	 0.143081
H	 1.6308035491	-0.7697664282	 0.2872471236	 0.125035
H	-4.0070786551	-0.5111750576	-0.2282426914	 0.142452
H	-4.7772166038	-2.0080266398	-1.7845570196	 0.239307
38.5946	104.7911	107.6964	161.4171	206.2066	228.3864	283.2803	312.8782	345.5025	439.4633	537.7793	657.3889	749.5015	854.71	863.5516	930.8867	936.7598	973.1987	1019.6273	1073.0206	1117.1328	1128.6129	1153.856	1204.3506	1266.8946	1320.3895	1367.9036	1389.4957	1401.9962	1423.5416	1487.684	1487.9584	1500.6521	1512.1148	1745.468	1838.8424	3038.0457	3042.7118	3048.8835	3110.7602	3121.6812	3125.4097	3132.4801	3138.3282	3505.415
CC(C)C(=O)OC=N	CC(C)C(=O)O[CH][NH]	
InChI=1S/C5H9NO2/c1-4(2)5(7)8-3-6/h3-4,6H,1-2H3	InChI=1S/C5H9NO2/c1-4(2)5(7)8-3-6/h3-4,6H,1-2H3
