17
gdb 56403	3.66482	0.69403	0.61074	5.1947	84.45	-0.2503	0.0041	0.2544	1794.9757	0.135717	-380.826982	-380.817376	-380.816431	-380.864291	33.662	
N	-0.0165656352	 1.4893736953	 0.1008014315	-0.484342
C	-0.0325650754	 0.0217641993	-0.0273409295	-0.308326
C	-1.4243268411	-0.4531919105	 0.1240584265	 0.318709
N	-2.5089251012	-0.8330673534	 0.2359719511	-0.31959
C	 0.5631461637	-0.5139591336	-1.2593477532	 0.104635
C	 1.0767917685	-0.9073539833	-2.2769356239	 0.071658
C	 1.6786289803	-1.3797446524	-3.4882554405	-0.159314
C	 3.0653522877	-2.0063773691	-3.4624914159	-0.252865
C	 1.8691511243	-2.8729302213	-3.7124767443	-0.248954
H	 0.9498297178	 1.7980733593	 0.035613975	 0.243286
H	-0.4966520249	 1.8930562568	-0.6995538036	 0.246546
H	 0.5225724403	-0.3758020109	 0.8335445011	 0.159639
H	 1.4385382594	-0.7967549124	-4.3723988493	 0.11687
H	 3.7248769716	-1.7762692416	-4.2914268773	 0.124017
H	 3.5552835431	-2.0784576935	-2.4989206262	 0.12861
H	 1.5418967119	-3.5342092877	-2.9194383312	 0.133784
H	 1.6950188192	-3.2446130008	-4.7156110104	 0.125637
6.9868	68.6782	97.6802	166.6229	197.3045	220.2387	259.9037	350.8082	461.2977	467.4108	522.8053	561.893	601.5423	728.6509	793.0852	823.0053	851.1579	889.4285	894.8459	938.9333	1062.0935	1064.8662	1083.5355	1110.7419	1116.2991	1180.7844	1192.9277	1201.3782	1229.8136	1311.584	1386.3578	1391.6565	1468.5052	1498.1354	1660.571	2354.104	2368.36	3019.4535	3143.5426	3147.102	3151.6257	3228.4095	3243.7293	3487.1219	3567.9976
NC(C#N)C#CC1CC1	N[C@@H](C#N)C#CC1CC1	
InChI=1S/C7H8N2/c8-5-7(9)4-3-6-1-2-6/h6-7H,1-2,9H2	InChI=1S/C7H8N2/c8-5-7(9)4-3-6-1-2-6/h6-7H,1-2,9H2/t7-/m1/s1
