21
gdb 103947	3.73253	0.97129	0.92798	2.0097	78.99	-0.2562	0.0619	0.3182	1367.3655	0.180139	-424.19782	-424.188368	-424.187424	-424.232084	36.169	
C	-0.2788897407	 1.4619516695	 0.0053599011	-0.405607
C	 0.0011269362	-0.04446755	 0.0282177952	-0.227459
C	 0.8064464721	-0.5011114698	 1.2422019601	 0.410354
O	 2.0932303592	 0.1037498073	 1.2854163975	-0.490066
C	 0.0973289891	-0.4592001374	 2.6424509257	-0.368815
C	 0.651660316	-1.8628207956	 2.8930301236	 0.466693
C	 1.3204232179	-2.3932755081	 4.0791870099	-0.260815
O	 0.0153857958	-2.8472772251	 3.6848746619	-0.273677
C	 1.018909439	-2.0327492969	 1.4185552374	-0.343862
H	 0.6491728718	 2.0413230778	-0.0545255462	 0.112419
H	-0.8829574807	 1.7356040434	-0.8643035979	 0.121873
H	-0.8233312455	 1.7831698815	 0.9005935976	 0.120967
H	-0.9471375618	-0.5948041473	 0.0105188605	 0.095558
H	 0.5527869663	-0.3324565228	-0.8751876064	 0.105405
H	 1.9736683212	 1.0476396625	 1.4336884125	 0.277386
H	 0.4100662403	 0.3379994073	 3.321781242	 0.098218
H	-0.9944329383	-0.4654995816	 2.5665096479	 0.108771
H	 2.1215035933	-3.1232377135	 3.9687948894	 0.115399
H	 1.3514984213	-1.8031377773	 4.9945564457	 0.112464
H	 0.2738702707	-2.6250389392	 0.8797495771	 0.108618
H	 2.0219124269	-2.3903186645	 1.1791308355	 0.116177
51.5462	96.6984	174.4026	238.7346	274.64	308.084	314.7837	339.3409	357.6425	379.4641	423.7452	489.5363	572.41	690.6549	784.0572	826.6523	838.3731	871.5256	901.1525	915.3237	947.3523	962.6346	996.419	1029.924	1062.354	1095.0145	1125.3573	1142.8625	1157.8654	1186.0521	1205.1111	1217.5536	1242.6937	1288.4431	1318.1671	1333.587	1387.5986	1409.6616	1434.1322	1450.3849	1474.3786	1480.4561	1501.0475	1510.8831	1538.968	3025.938	3030.1326	3050.1374	3061.8263	3065.0621	3077.7435	3095.6439	3106.8071	3108.6965	3127.7689	3164.3447	3810.1247
CCC1(O)CC2(CO2)C1	CC[C@@]1(O)C[C@]2(CO2)C1	
InChI=1S/C7H12O2/c1-2-6(8)3-7(4-6)5-9-7/h8H,2-5H2,1H3	InChI=1S/C7H12O2/c1-2-6(8)3-7(4-6)5-9-7/h8H,2-5H2,1H3/t6-,7-
