24
gdb 89052	4.49719	0.64508	0.60676	1.0452	91.18	-0.2291	0.0909	0.3201	1936.1105	0.216935	-368.37014	-368.360112	-368.359168	-368.40604	37.163	
C	-0.0118277652	 1.5659047256	-0.1479279924	-0.402993
C	 0.022804094	 0.0608233371	 0.0106041723	-0.006148
C	 1.3238970959	-0.7031065825	-0.0595397688	-0.291629
C	 0.5622330525	-0.6270755379	 1.2457497473	 0.012096
C	 1.1223683024	 0.124190006	 2.4357001062	-0.213435
C	 2.0805711704	-0.7346402079	 3.2654252653	-0.132187
N	 2.6307179894	 0.027875753	 4.3811563706	-0.059119
C	 1.8673280343	-0.0026322074	 5.6241655503	-0.219054
C	 3.1524743146	-0.744452227	 5.5011487362	-0.221152
H	 0.8811751999	 2.0419314114	 0.266278625	 0.118081
H	-0.0658812752	 1.8412900369	-1.2071156597	 0.114683
H	-0.8834620625	 2.0028899554	 0.3527043731	 0.114419
H	-0.8296229163	-0.4394280665	-0.4430721965	 0.079147
H	 1.3593354466	-1.6431056328	-0.5996985728	 0.104967
H	 2.2358745609	-0.1170242473	-0.1331424795	 0.106993
H	 0.0315506348	-1.5362047445	 1.5226775771	 0.075504
H	 1.6606353786	 1.021700903	 2.1150701867	 0.106457
H	 0.3033457034	 0.4688863794	 3.0814180572	 0.094861
H	 1.5598638246	-1.6491925656	 3.6092272464	 0.072061
H	 2.9172798232	-1.0635232163	 2.6374197448	 0.10483
H	 1.8162903516	 0.9314619036	 6.1763535376	 0.114663
H	 0.9541142507	-0.5964724986	 5.6479640401	 0.105956
H	 3.0936375821	-1.8307087725	 5.4448417942	 0.106469
H	 4.0599177694	-0.3619184045	 5.9600712894	 0.114529
53.5452	67.9697	96.1462	129.1441	180.2611	222.6887	256.9797	340.5999	378.7068	413.9315	444.2284	526.5495	755.2054	764.586	789.6217	830.1229	844.334	871.7345	905.6275	908.1055	947.7145	1002.2374	1020.7603	1034.3286	1056.0754	1077.3578	1098.5638	1112.1324	1113.4742	1117.0361	1151.8467	1152.1636	1174.1806	1199.6856	1203.2083	1245.1979	1256.6714	1297.4724	1319.8353	1326.407	1387.6686	1403.6961	1417.5502	1430.2529	1480.9159	1490.1889	1493.7273	1495.6321	1503.5975	1505.4485	1524.3425	2915.9505	3017.5812	3029.108	3050.1543	3078.7042	3084.8936	3089.3222	3094.2516	3106.7885	3116.5276	3121.4236	3134.6258	3172.6428	3186.9946	3205.2179
CC1CC1CCN1CC1	C[C@H]1C[C@H]1CCN1CC1	
InChI=1S/C8H15N/c1-7-6-8(7)2-3-9-4-5-9/h7-8H,2-6H2,1H3	InChI=1S/C8H15N/c1-7-6-8(7)2-3-9-4-5-9/h7-8H,2-6H2,1H3/t7-,8+/m0/s1
