21
gdb 86065	2.71585	1.1624	0.84377	0.9074	95.99	-0.2146	-0.009	0.2055	1410.6593	0.181082	-349.960019	-349.950328	-349.949384	-349.994239	36.679	
C	-0.7696759694	 1.2564770072	-0.0192069593	-0.405606
C	 0.1823881577	 0.0626540739	 0.0209355814	 0.039372
C	 1.1525005555	-0.0345802418	-1.1826689892	-0.303354
C	 2.3894435715	-0.6880188084	-0.6113023361	 0.223345
C	 3.4767367136	-1.2252966667	-1.48155134	-0.513438
C	 2.3664676094	-0.6592979287	 0.7359187937	 0.113163
C	 1.1114107638	 0.0203291721	 1.2598117695	-0.330672
C	 3.3777224487	-1.13965013	 1.6019465769	 0.184373
C	 4.2122073882	-1.5400514369	 2.3755269997	-0.420199
H	-0.2142241948	 2.2015502368	-0.028016956	 0.113476
H	-1.4010016471	 1.2326516485	-0.9140185247	 0.11242
H	-1.4314241826	 1.2680181428	 0.8534452333	 0.114206
H	-0.4135934078	-0.8584925466	 0.0310292994	 0.078646
H	 0.7279629871	-0.5954163962	-2.0244771851	 0.100299
H	 1.4027173113	 0.9627641832	-1.578845575	 0.103568
H	 3.8845134903	-0.4382550156	-2.129566876	 0.12694
H	 4.2944825155	-1.6424363958	-0.8895013664	 0.137981
H	 3.0946743298	-2.0079219571	-2.1496226959	 0.125943
H	 1.3501587372	 1.0322073072	 1.6183928135	 0.106082
H	 0.6653253536	-0.5120715009	 2.1060859152	 0.108297
H	 4.9532615683	-1.894277447	 3.047958481	 0.185157
79.5786	134.889	143.3189	168.0911	235.9002	240.8514	265.0666	354.9545	406.8924	418.1787	494.7214	519.3247	558.8864	596.537	611.106	637.0354	731.3341	844.2001	900.7497	925.7298	938.0486	958.6441	1017.0538	1070.241	1073.9892	1112.9074	1153.4997	1164.2126	1196.2893	1232.793	1237.2632	1305.1273	1336.3559	1350.4131	1373.8534	1411.2831	1411.9984	1479.0938	1481.333	1482.6482	1494.2882	1498.3134	1500.7591	1690.1745	2213.916	2980.7654	3003.1403	3015.1076	3019.971	3025.9314	3044.7578	3058.9618	3069.8041	3092.9891	3095.4121	3122.9575	3504.2963
CC1CC(C)=C(C1)C#C	C[C@H]1CC(=C(C1)C#C)C	
InChI=1S/C9H12/c1-4-9-6-7(2)5-8(9)3/h1,7H,5-6H2,2-3H3	InChI=1S/C9H12/c1-4-9-6-7(2)5-8(9)3/h1,7H,5-6H2,2-3H3/t7-/m0/s1
