18
gdb 127000	3.7598	0.98458	0.83155	2.8998	75.35	-0.1919	0.0556	0.2475	1395.7885	0.148692	-435.280832	-435.271692	-435.270748	-435.315042	33.631	
C	-1.1610946095	 1.0330880554	-0.0892741055	-0.387407
C	-0.1272591887	 0.0969523838	 0.5235538684	-0.062652
O	 0.1119758078	-1.0589957525	-0.2874051772	-0.273721
C	-0.7857829689	-2.0549312816	-0.2016289823	 0.499074
C	-1.9196707938	-2.2761143216	 0.5591455465	-0.439541
C	-2.3534332597	-3.5648832547	 0.1428575607	 0.380112
N	-3.4283181942	-4.2871771559	 0.6655796519	-0.588372
N	-1.5749115269	-4.0908262291	-0.7919964721	-0.313948
N	-0.6067248948	-3.1390717743	-0.9835873987	-0.294036
H	-1.279563807	 1.9192564084	 0.5424639725	 0.121106
H	-0.8417181928	 1.3579499183	-1.0834948604	 0.131398
H	-2.1333491403	 0.5426777386	-0.180912727	 0.13807
H	 0.8461943689	 0.5889506001	 0.5952405392	 0.11848
H	-0.4194909945	-0.2213122999	 1.5316103386	 0.118171
H	-2.358251278	-1.6355971303	 1.3044769774	 0.096026
H	-4.2536858141	-3.7207770481	 0.8104718646	 0.241086
H	-3.648789647	-5.0828534209	 0.0792301072	 0.247092
H	 0.1365714736	-3.2958161059	-1.6401676238	 0.269061
58.5928	90.6346	178.2547	206.9741	246.4174	269.202	279.831	356.0858	408.5014	453.7845	514.8925	615.4312	669.011	690.4171	719.6917	754.0784	794.9156	819.7213	904.7353	995.3451	1038.3505	1071.525	1092.1098	1118.7281	1178.7654	1195.2729	1216.7452	1322.1322	1324.9508	1394.0133	1413.1627	1449.9211	1485.0222	1495.8169	1510.7194	1524.1472	1572.9053	1619.9525	1648.0937	3036.0697	3045.8769	3095.7147	3117.6336	3133.3734	3274.8806	3536.4287	3631.46	3697.8971
CCOC1=CC(N)=NN1	CCOc1cc(N)n[nH]1	
InChI=1S/C5H9N3O/c1-2-9-5-3-4(6)7-8-5/h3H,2H2,1H3,(H3,6,7,8)	InChI=1S/C5H9N3O/c1-2-9-5-3-4(6)7-8-5/h3H,2H2,1H3,(H3,6,7,8)
