20
gdb 66853	2.49132	2.06963	1.83061	1.5292	80.52	-0.2218	0.0843	0.3062	903.4372	0.173839	-365.975803	-365.968978	-365.968034	-366.006429	29.073	
C	-0.0609126489	 1.4965070173	 0.0264839256	-0.509211
C	 0.0131816805	-0.0027723238	 0.0194322902	 0.386982
C	 0.8940287152	-0.7746137514	-1.0496126382	-0.094887
C	 1.8276934459	-1.2557572754	 0.1005267678	-0.244035
C	 0.7075163227	-0.8855205337	 1.0908772547	-0.089354
C	-0.5643801794	-1.7463426893	 1.0128421692	-0.060409
C	-0.998564524	-2.0400508547	-0.3792668036	-0.026727
C	-0.0146940201	-1.9132005481	-1.5230815831	-0.233711
N	-1.3270321848	-0.7168239045	 0.1923700171	-0.193395
H	 0.9405858298	 1.9400521901	 0.0163747857	 0.113581
H	-0.6037643907	 1.8593767181	-0.8541309118	 0.122389
H	-0.5884207488	 1.8557407629	 0.9155652529	 0.12582
H	 1.3459825365	-0.1991044781	-1.858849358	 0.065965
H	 2.1638280381	-2.2967674234	 0.0621303252	 0.090598
H	 2.6979582407	-0.6049643574	 0.2258865351	 0.097511
H	 0.9438484214	-0.5178844933	 2.0901392194	 0.067916
H	-1.0309357037	-2.2346127632	 1.8634249292	 0.087485
H	-1.8576819525	-2.6958700086	-0.4934811265	 0.08859
H	-0.5577387945	-1.6434888492	-2.4366517531	 0.103085
H	 0.5387845765	-2.8368620642	-1.7228292077	 0.101809
211.2432	217.549	260.1118	326.4861	405.4917	475.2928	579.8104	613.2158	674.0408	706.1312	751.5186	805.0469	836.7085	853.8372	862.4905	886.5736	918.5546	939.3667	984.4678	992.2304	1032.1038	1056.1819	1067.1434	1084.39	1121.0525	1128.4334	1134.4738	1155.5822	1177.6365	1206.0653	1227.6598	1253.4422	1284.0438	1316.6066	1330.43	1338.5126	1356.2692	1410.1244	1412.0394	1479.8911	1482.8016	1491.2653	1494.5177	3026.4291	3032.849	3042.6326	3076.5485	3091.7091	3092.1165	3097.5373	3103.19	3104.9313	3142.9036	3154.7802
CC12C3CC1C1C(C3)N21	C[C@@]12[C@H]3C[C@@H]1[C@@H]1[C@H](C3)N21	
InChI=1S/C8H11N/c1-8-4-2-5(8)7-6(3-4)9(7)8/h4-7H,2-3H2,1H3	InChI=1S/C8H11N/c1-8-4-2-5(8)7-6(3-4)9(7)8/h4-7H,2-3H2,1H3/t4-,5+,6-,7+,8+,9?/m0/s1
