14
gdb 127615	3.61098	1.63698	1.13447	3.4074	70.16	-0.246	-0.0361	0.21	993.2854	0.103565	-432.842901	-432.835987	-432.835043	-432.874949	25.392	
C	-0.0175027578	 1.4517742197	-0.0776686394	-0.343093
N	-0.0074147631	 0.008881888	 0.0209233443	-0.119454
N	-0.0379701368	-0.7514544677	-1.1008427153	-0.238168
C	-0.0199104628	-2.0338951276	-0.7263504044	-0.153049
C	 0.023515201	-2.0893352544	 0.6784111879	 0.313577
C	 0.0305135329	-0.7843322755	 1.125204852	 0.271093
C	 0.0743675877	-0.9023825851	 2.5381151654	-0.104647
N	 0.0917261657	-2.169328106	 2.8906083409	-0.124341
O	 0.0597522206	-2.944748571	 1.7162048978	-0.237815
H	 0.8864742875	 1.8797495271	 0.3674570832	 0.144237
H	-0.0521668688	 1.7022626195	-1.1372974146	 0.169563
H	-0.8957359456	 1.8710373016	 0.423712339	 0.14423
H	-0.0386413035	-2.8164166603	-1.4669519563	 0.136364
H	 0.0943321629	-0.1525438583	 3.3150278795	 0.141504
50.8508	160.3478	241.6878	268.8831	366.7155	525.3851	614.1072	631.8992	633.4285	692.1541	746.8695	840.3932	844.0942	877.8236	880.6063	967.8304	1012.0775	1132.6725	1152.4274	1196.7075	1219.5886	1289.3714	1341.4984	1393.3038	1438.4534	1449.0428	1484.3561	1497.2561	1507.3021	1555.0515	1619.4772	3038.5879	3097.7196	3166.7532	3252.5087	3272.4624
CN1N=CC2=C1C=NO2	Cn1ncc2c1cno2	
InChI=1S/C5H5N3O/c1-8-4-2-7-9-5(4)3-6-8/h2-3H,1H3	InChI=1S/C5H5N3O/c1-8-4-2-7-9-5(4)3-6-8/h2-3H,1H3
