20
gdb 63004	2.42959	1.75244	1.53182	3.0818	77.14	-0.238	0.0698	0.3078	995.2791	0.171183	-403.109742	-403.1017	-403.100756	-403.141616	32.528	
C	 0.0877290496	 1.5211565702	 0.0214109159	-0.419333
C	-0.0120765772	-0.0095992377	-0.0025598244	 0.25196
C	-1.4752956805	-0.4807284529	 0.0295687831	-0.436468
C	 0.677311649	-0.6268124423	-1.2370442833	-0.07828
N	 2.1045105528	-0.3089245761	-1.4086071591	-0.323839
C	 1.7155830075	-1.6032880359	-0.8097813763	-0.082537
C	 1.744505994	-1.6020142753	 0.70674381	 0.038797
O	 2.1197189455	-0.353058092	 1.2909289284	-0.24227
C	 0.7275101029	-0.6505837887	 1.1856304686	 0.008244
H	 1.1358303402	 1.824968693	-0.0017725572	 0.153103
H	-0.4217723163	 1.9591658449	-0.8439874597	 0.103808
H	-0.377201716	 1.9311692899	 0.9247089953	 0.106101
H	-2.0277836766	-0.0912087752	-0.8319703364	 0.115542
H	-1.5449352137	-1.5740244253	 0.0073769893	 0.115075
H	-1.9805979283	-0.1292939098	 0.9352327484	 0.116632
H	 0.0720832362	-0.7856271383	-2.1260697347	 0.07883
H	 2.3623445744	-0.4617430293	-2.3812809509	 0.230026
H	 1.9142392856	-2.5260239984	-1.3437334802	 0.08569
H	 2.0485417454	-2.4923421082	 1.250458162	 0.093176
H	 0.2049193956	-0.7531719026	 2.1363434313	 0.085743
151.7736	198.91	225.1007	249.1676	310.2397	326.417	333.9577	411.9892	540.0175	564.4648	578.3103	711.2199	789.5946	808.7684	849.6702	875.06	882.3133	906.6139	929.6297	949.9909	959.468	972.2724	1023.6959	1051.7697	1065.7899	1100.4532	1139.7459	1155.78	1208.2592	1228.9545	1234.1172	1260.3738	1269.5518	1313.5168	1375.6172	1393.5626	1406.291	1419.9224	1435.5276	1486.7097	1488.0269	1502.404	1510.5533	3026.1536	3032.1494	3090.9418	3095.3761	3099.4498	3112.4471	3135.2644	3138.6588	3149.091	3175.1062	3490.456
CC1(C)C2NC2C2OC12	CC1(C)[C@H]2N[C@H]2[C@H]2O[C@@H]12	
InChI=1S/C7H11NO/c1-7(2)5-3(8-5)4-6(7)9-4/h3-6,8H,1-2H3	InChI=1S/C7H11NO/c1-7(2)5-3(8-5)4-6(7)9-4/h3-6,8H,1-2H3/t3-,4+,5-,6+/m0/s1
