15
gdb 42602	2.54004	2.16528	1.47059	4.1694	70.09	-0.2616	-0.0307	0.2308	881.7019	0.11427	-416.79459	-416.788036	-416.787092	-416.825632	26.15	
N	-0.1238819946	 1.1780643924	-0.3274689691	-0.540291
C	-0.0808473633	-0.0438269521	-0.0578729901	 0.381471
C	-1.0834287618	-1.0953906259	 0.2389532933	-0.147431
C	-0.6648394665	-2.4093646626	-0.4808490145	-0.065961
C	 0.273909822	-2.3650959339	-1.6683085994	-0.359718
C	 1.4094006466	-1.4462701703	-1.1775298885	 0.376878
O	 2.3610690172	-1.0683290288	-1.7898474842	-0.289156
N	 1.0618158756	-0.9826394112	 0.1676071663	-0.21088
C	 0.0738702605	-1.9553877534	 0.7241381497	-0.039975
H	 0.8147004883	 1.5658220965	-0.440390728	 0.244346
H	-2.0810356821	-0.9694404179	 0.6374702543	 0.119541
H	-1.3937616713	-3.2063378721	-0.3893072802	 0.114426
H	 0.6618775774	-3.3609421742	-1.9067337751	 0.143059
H	-0.1460988466	-1.9445520832	-2.5867947638	 0.151289
H	 0.2471230785	-2.4484096231	 1.6697213093	 0.122402
111.394	140.9484	338.7326	419.0231	473.117	565.3137	575.4496	645.4945	711.7215	742.4068	789.2583	798.0758	834.3056	848.066	884.1119	930.9176	977.6509	982.8564	1010.7072	1029.8017	1056.937	1069.6401	1082.3516	1098.8928	1185.6251	1198.8898	1268.7082	1287.7332	1299.8362	1384.7922	1459.4396	1806.8576	1887.7483	3057.6419	3100.8959	3188.0919	3213.3226	3227.317	3474.7725
N=C1C2C3CC(=O)N1C23	[NH][C]1[C@H]2[C@H]3CC(=O)N1[C@@H]23	
InChI=1S/C6H6N2O/c7-6-4-2-1-3(9)8(6)5(2)4/h2,4-5,7H,1H2	InChI=1S/C6H6N2O/c7-6-4-2-1-3(9)8(6)5(2)4/h2,4-5,7H,1H2/t2-,4+,5-/m1/s1
