17
gdb 51265	4.35348	1.0713	0.91934	2.9964	78.63	-0.2132	-0.0082	0.205	1241.0576	0.138035	-418.015961	-418.008293	-418.007349	-418.048612	29.366	
O	 1.953736808	 4.1123888241	 0.2073080822	-0.303734
C	 1.0724969319	 3.3030364642	 0.0298485536	 0.144945
N	 1.2317318601	 1.9501899704	-0.1260917426	-0.387013
C	 2.423465392	 1.2222729846	-0.1195986027	 0.412753
C	 2.4990714483	-0.1182128909	-0.1415406556	-0.209183
C	 3.9170615206	-0.5474044076	-0.2661965315	-0.066556
N	 4.5552357239	-0.0807363617	-1.5349956036	-0.337402
C	 4.7309409602	 0.6974368712	-0.2891184907	-0.053262
C	 3.7898505298	 1.8877372472	-0.1562868092	-0.289354
H	 0.0014312218	 3.5793345731	-0.0318621691	 0.082576
H	 0.3823461978	 1.4167243155	-0.2421210991	 0.253734
H	 1.6560849149	-0.7987614146	-0.1402113587	 0.084282
H	 4.2656531463	-1.4717307649	 0.1816621073	 0.08712
H	 5.4053479682	-0.6225539541	-1.686968449	 0.224384
H	 5.7168897458	 0.7478973296	 0.1592869181	 0.089304
H	 3.8743727938	 2.5854051891	-0.9940072437	 0.138285
H	 3.9772700668	 2.4656057149	 0.7534304345	 0.12912
58.4548	147.1018	176.9203	285.3165	354.5208	365.6557	484.3141	506.9712	591.9748	606.6376	705.491	792.9736	812.8863	844.0486	849.7576	860.8739	916.178	953.8929	975.503	1012.5239	1020.8346	1085.5291	1108.9657	1133.3167	1168.4123	1196.1894	1221.5231	1274.55	1296.3502	1356.5828	1375.6771	1411.7907	1446.1834	1453.5928	1512.9263	1690.5219	1811.0565	2940.5648	3066.3854	3103.5818	3164.6706	3174.6486	3199.1763	3468.3173	3606.995
O=CNC1=CC2NC2C1	O=CNC1=C[C@H]2N[C@H]2C1	
InChI=1S/C6H8N2O/c9-3-7-4-1-5-6(2-4)8-5/h1,3,5-6,8H,2H2,(H,7,9)	InChI=1S/C6H8N2O/c9-3-7-4-1-5-6(2-4)8-5/h1,3,5-6,8H,2H2,(H,7,9)/t5-,6+/m1/s1
