18
gdb 119124	2.53174	1.25911	0.93262	5.8102	69.29	-0.253	0.0041	0.2572	1271.3103	0.147047	-476.22551	-476.216459	-476.215515	-476.259789	32.697	
C	-0.0738886215	 1.5382178524	-0.1754520893	-0.323517
N	 0.1879222511	 0.10093413	-0.0981084251	-0.3066
H	 0.9408124423	-0.0770490428	 0.5614718675	 0.249533
H	-1.010225678	-1.1686657036	 0.1771593732	 0.308029
C	 0.5500701028	-0.5103620734	-1.384060806	-0.246579
C	 0.6822358099	-2.0097393228	-1.2184776227	 0.227481
C	 1.682346188	-2.7597697907	-1.9844864825	-0.212295
O	 1.9222547346	-2.4316864609	-0.6143192623	-0.272278
C	-0.5292344721	-2.7927197191	-0.6954069748	 0.394293
O	-1.3859374737	-2.0812467134	 0.0406048881	-0.380914
O	-0.6830807081	-3.9623471074	-0.9281027684	-0.334689
H	 0.7652855839	 2.1084643687	-0.6023097512	 0.116487
H	-0.9558278949	 1.7129534226	-0.7992883371	 0.139609
H	-0.2843256817	 1.9235465828	 0.8251111418	 0.137196
H	-0.2513595829	-0.2869990625	-2.0992932138	 0.129044
H	 1.4867860163	-0.1064207997	-1.796224588	 0.110941
H	 1.4863696194	-3.8099514463	-2.1802011806	 0.151666
H	 2.3040999845	-2.231581124	-2.7058044888	 0.112592
69.3268	88.3179	142.6752	196.775	249.9183	274.5845	307.7606	339.9173	362.5023	411.472	514.1255	626.0089	757.0553	768.0944	819.5005	843.4875	922.6396	949.3979	988.1283	992.9749	1030.4691	1126.8393	1132.9663	1147.843	1173.5839	1188.1912	1203.3515	1275.2583	1312.0206	1356.2403	1425.1724	1460.8924	1474.7446	1490.3731	1496.1741	1508.567	1514.0624	1519.776	1856.9966	2990.5219	2993.4012	3057.857	3081.1617	3096.5341	3124.0248	3172.6832	3205.3822	3506.4999
C[NH2+]CC1(CO1)C([O-])=O	CNC[C@]1(CO1)C(=O)O	
InChI=1S/C5H9NO3/c1-6-2-5(3-9-5)4(7)8/h6H,2-3H2,1H3,(H,7,8)	InChI=1S/C5H9NO3/c1-6-2-5(3-9-5)4(7)8/h6H,2-3H2,1H3,(H,7,8)/t5-/m0/s1
