19
gdb 96209	2.72255	1.36192	0.95645	1.4768	87.02	-0.2323	-0.0201	0.2123	1231.5699	0.159449	-385.880077	-385.871394	-385.870449	-385.91314	33.826	
O	-0.0157684718	 1.4169981616	 0.0204760647	-0.437714
C	 0.0356448507	 0.0006817947	-0.0256183631	 0.042657
C	-1.3986285278	-0.5144898221	 0.0649202456	-0.205275
C	-1.4640471213	-2.0148739263	-0.2305315905	-0.222799
C	-0.9786175067	-2.311403772	-1.6569525366	-0.243815
C	 0.2531328957	-1.5315312101	-2.0178905313	-0.136208
C	 0.7237659931	-0.5003108661	-1.2987594978	 0.12565
C	 1.9085394482	 0.1987019512	-1.6653826022	 0.19929
C	 2.8996453649	 0.8449053227	-1.9020018755	-0.415899
H	 0.8638283289	 1.7483748108	-0.1977238668	 0.283394
H	 0.6120625675	-0.3795646899	 0.8366755441	 0.075475
H	-1.7996998238	-0.2855643885	 1.05693985	 0.102926
H	-1.9998124266	 0.0441542983	-0.662436486	 0.109588
H	-0.8329822623	-2.5560927639	 0.486163041	 0.103446
H	-2.4835471328	-2.3887499015	-0.0936282926	 0.09856
H	-0.7821253206	-3.3835452502	-1.7846681383	 0.109272
H	-1.7707510955	-2.0751734153	-2.3841973108	 0.118286
H	 0.7835451249	-1.8275630508	-2.9193280597	 0.095619
H	 3.7799844753	 1.3883547777	-2.141884544	 0.197548
80.6048	144.6198	172.8566	264.9427	301.8322	342.4058	358.7862	405.6774	442.0966	479.3521	543.7529	577.6357	601.147	655.1513	669.7123	761.5126	829.6214	873.0131	887.9952	937.9981	970.4007	1056.803	1081.3328	1088.2561	1106.7774	1153.4798	1159.3	1230.3557	1265.2417	1301.7922	1331.7484	1345.0692	1364.4276	1379.4609	1384.7539	1437.6782	1469.8661	1491.5922	1498.689	1692.0858	2207.9332	2934.517	2993.8186	3024.082	3039.4098	3042.3016	3078.5797	3088.8635	3162.011	3499.9694	3778.7345
OC1CCCC=C1C#C	O[C@H]1CCCC=C1C#C	
InChI=1S/C8H10O/c1-2-7-5-3-4-6-8(7)9/h1,5,8-9H,3-4,6H2	InChI=1S/C8H10O/c1-2-7-5-3-4-6-8(7)9/h1,5,8-9H,3-4,6H2/t8-/m0/s1
