20
gdb 52144	5.57976	0.70526	0.69957	3.5305	81.46	-0.236	-0.0189	0.2171	1636.332	0.171094	-403.07212	-403.063601	-403.062656	-403.106771	31.369	
O	-0.4657196312	 0.5019677958	 0.7098039378	-0.237576
C	-0.3410826931	 1.6300962107	 0.3082284708	 0.155269
C	 0.9620825255	 2.386817325	 0.2254581059	-0.260265
C	 1.2422736464	 2.8985900299	-1.2021733378	-0.279281
C	 2.486913378	 3.7704857669	-1.232480901	 0.101171
C	 2.7930337835	 4.8302652436	-2.3238329036	-0.089169
C	 1.7144889336	 5.6894624348	-1.6318182226	-0.175784
N	 2.4699959818	 5.0964458516	-0.4251174597	-0.15588
C	 3.7273470657	 5.4308055272	-1.2513842371	-0.164152
H	-1.226813424	 2.2092583833	-0.0486554004	 0.067179
H	 0.8956381602	 3.2571292343	 0.8930149008	 0.144077
H	 1.7673654307	 1.7413775554	 0.5879076986	 0.120243
H	 1.4043844727	 2.0465168182	-1.8740892988	 0.116493
H	 0.3607085772	 3.4252235599	-1.5812587275	 0.105935
H	 3.3502752241	 3.1616130452	-0.9374420812	 0.074754
H	 2.9777295392	 4.6812473301	-3.3936598524	 0.066327
H	 1.8103636426	 6.7761428367	-1.7021181732	 0.103745
H	 0.6664955876	 5.3966351496	-1.7001196048	 0.101656
H	 4.6110612158	 4.8597883053	-0.9534389078	 0.10249
H	 3.9388885638	 6.5019678466	-1.2969658463	 0.102768
52.4987	65.9973	87.0312	131.7943	295.9842	342.8072	373.6919	522.1338	602.5891	605.6387	734.2141	765.4909	784.304	801.7438	877.0837	894.2001	904.6062	925.0226	997.4201	1020.509	1052.8132	1059.0594	1079.0611	1098.6516	1138.5785	1154.5048	1170.1571	1177.887	1199.492	1208.1146	1230.2639	1250.6167	1261.4964	1289.8058	1313.3587	1362.2994	1430.229	1442.9323	1466.4785	1490.2301	1520.7654	1557.3612	1836.3939	2842.173	3023.5585	3027.8442	3036.1999	3037.1973	3055.0256	3069.3587	3077.8453	3103.158	3121.1812	3132.878
O=CCCC1C2CN1C2	O=CCC[C@H]1[C@H]2CN1C2	
InChI=1S/C7H11NO/c9-3-1-2-7-6-4-8(7)5-6/h3,6-7H,1-2,4-5H2	InChI=1S/C7H11NO/c9-3-1-2-7-6-4-8(7)5-6/h3,6-7H,1-2,4-5H2/t7-/m0/s1
