18
gdb 65172	2.46552	1.41049	1.20496	5.412	76.09	-0.2787	0.0308	0.3095	1111.8052	0.146559	-401.934063	-401.925268	-401.924324	-401.967715	32.726	
C	 0.1503564035	 1.1742040304	-1.0466882414	-0.468021
C	 0.0071207815	 0.0023196439	-0.1018476965	 0.387592
C	 1.1467714133	-0.8937961818	 0.1551256061	-0.220072
O	 0.7594867783	 0.096828581	 1.1122157561	-0.258315
C	-1.3857221346	-0.5506414011	 0.0510425767	-0.075003
C	-1.8212272224	-1.1753440574	 1.3376432938	-0.302753
C	-2.4217481784	 0.1584458025	 0.9206488939	-0.182687
C	-2.0952054618	 1.3617749177	 1.6338979172	 0.30635
N	-1.8661402887	 2.3489884242	 2.1920902582	-0.348972
H	 1.1950610058	 1.4857123783	-1.1153744578	 0.131809
H	-0.2026047178	 0.9086417844	-2.0491486877	 0.119094
H	-0.4387570056	 2.0247010021	-0.6907592245	 0.151013
H	 0.9666713334	-1.9252827886	 0.4543059303	 0.113869
H	 2.0970306388	-0.7102030478	-0.3438149873	 0.118564
H	-1.7949781999	-0.9619123425	-0.8678382336	 0.106579
H	-2.4770422673	-2.0374903395	 1.3155574318	 0.127248
H	-1.1069230989	-1.1433217299	 2.1514361208	 0.159528
H	-3.443733049	 0.141555974	 0.556526264	 0.13418
64.7711	99.8055	183.8402	203.5062	241.8559	269.725	343.6511	378.2754	437.6787	502.7368	562.4778	620.4064	711.2717	776.5786	816.877	848.1704	878.1742	923.3786	948.8635	998.1973	1029.5944	1057.445	1094.3035	1115.7013	1131.3095	1136.268	1151.4513	1172.1221	1206.6317	1250.4103	1377.6544	1383.0828	1413.7758	1416.1054	1477.7248	1484.7772	1497.2489	1526.5904	2353.8724	3040.2333	3084.4992	3108.7453	3130.3646	3146.2656	3149.7956	3166.5381	3173.1563	3246.2012
CC1(CO1)C1CC1C#N	C[C@]1(CO1)[C@H]1C[C@H]1C#N	
InChI=1S/C7H9NO/c1-7(4-9-7)6-2-5(6)3-8/h5-6H,2,4H2,1H3	InChI=1S/C7H9NO/c1-7(4-9-7)6-2-5(6)3-8/h5-6H,2,4H2,1H3/t5-,6-,7-/m0/s1
