21
gdb 84685	2.12209	1.87936	1.4463	1.47	82.92	-0.2389	0.0193	0.2582	1044.6675	0.182798	-387.095253	-387.086758	-387.085813	-387.127877	33.402	
C	-0.6621045099	 1.3231508351	 0.0348502344	-0.39122
C	-0.0405024662	-0.0734708474	-0.1011205364	-0.078806
C	 0.8116706127	-0.2558496533	-1.3391807096	-0.065911
C	 2.0242712646	-0.7471704656	-1.0833665675	-0.100288
C	 2.2515925212	-0.9645556798	 0.3851447833	-0.161784
C	 2.9326604936	 0.2040540603	 1.1319914893	-0.082543
O	 1.6584205241	 0.7322047136	 1.5496529969	-0.323012
C	 0.9426159022	-0.4355534643	 1.0472248597	 0.42514
C	 0.3215853909	-1.2213503453	 2.185826197	-0.457662
H	 0.1166176204	 2.0860361466	 0.0931544021	 0.134697
H	-1.3077056068	 1.5411014242	-0.821944058	 0.105539
H	-1.273749973	 1.3953524777	 0.9401806019	 0.113534
H	-0.8616730279	-0.8065432244	-0.1128977693	 0.071364
H	 0.4400272328	-0.0069509105	-2.3285217797	 0.091645
H	 2.784484327	-0.9546135647	-1.8291926839	 0.09316
H	 2.5994494566	-1.9673520008	 0.6474225571	 0.075324
H	 3.5484921914	-0.0954934261	 1.9909240897	 0.092977
H	 3.4947499577	 0.9157294349	 0.5164374569	 0.099525
H	-0.477568993	-0.6402887514	 2.6591858717	 0.125167
H	-0.1094777604	-2.1594461005	 1.8200858859	 0.116026
H	 1.066552782	-1.4563036382	 2.9518123484	 0.117126
89.886	197.4142	208.7097	233.1759	255.1162	284.3261	303.0876	372.4101	485.0548	533.1732	597.8705	663.8135	745.4074	780.007	845.4298	862.8549	876.7662	899.179	941.5398	975.2611	1008.2967	1022.2403	1043.2961	1060.5189	1082.1998	1105.1746	1124.4867	1162.4474	1168.4412	1173.2489	1216.5692	1241.6308	1301.7446	1330.0541	1341.3643	1358.0275	1377.3485	1403.5336	1406.2514	1484.0071	1489.4283	1492.6688	1500.2935	1521.9928	1679.3938	2981.9773	3002.9924	3030.3111	3038.8343	3056.9453	3072.7662	3098.8419	3100.3655	3108.61	3135.1963	3170.5546	3196.408
CC1C=CC2COC12C	C[C@H]1C=C[C@H]2CO[C@@]12C	
InChI=1S/C8H12O/c1-6-3-4-7-5-9-8(6,7)2/h3-4,6-7H,5H2,1-2H3	InChI=1S/C8H12O/c1-6-3-4-7-5-9-8(6,7)2/h3-4,6-7H,5H2,1-2H3/t6-,7-,8-/m0/s1
