14
gdb 42302	3.60955	1.19878	0.98075	1.8487	69.26	-0.2547	-0.0671	0.1876	1146.5213	0.100316	-436.668152	-436.660069	-436.659125	-436.702117	28.436	
O	 0.2770333526	 0.4723035085	-1.4270580069	-0.284784
C	 0.0655100125	 1.3504852843	-0.6204292726	 0.222324
C	 1.0167399165	 1.6905359728	 0.4153174187	 0.292392
C	 1.8178715953	 1.9951518372	 1.2598265744	-0.396723
C	-1.2241739734	 2.190570018	-0.627924793	-0.108334
C	-2.2319623064	 1.7455833962	-1.7104778781	-0.131372
O	-3.3861840577	 1.3079307371	-0.9468652139	-0.213204
C	-3.0633128296	 1.5139422861	 0.3442636036	 0.134709
N	-1.9338752319	 2.0040312036	 0.6555778806	-0.274239
H	 2.5257265218	 2.2543861056	 2.0094777614	 0.218184
H	-0.9254570104	 3.241358852	-0.7244578055	 0.115698
H	-2.5487641653	 2.555276955	-2.3705733448	 0.122387
H	-1.8571438787	 0.9048120859	-2.2968036262	 0.152594
H	-3.8351566554	 1.2339212577	 1.0525942521	 0.150368
36.7327	82.8542	128.854	208.7288	272.0655	312.5915	446.3774	508.1709	584.9309	646.2183	690.7117	714.8103	764.5245	811.2277	893.8041	952.624	967.0605	986.0767	1002.5648	1062.8729	1127.1028	1160.3571	1220.5052	1256.1088	1311.7642	1350.394	1375.2056	1515.377	1693.6451	1771.1298	2216.4622	3033.8124	3078.2946	3135.9597	3219.1738	3494.565
O=C(C#C)C1COC=N1	O=C(C#C)[C@H]1COC=N1	
InChI=1S/C6H5NO2/c1-2-6(8)5-3-9-4-7-5/h1,4-5H,3H2	InChI=1S/C6H5NO2/c1-2-6(8)5-3-9-4-7-5/h1,4-5H,3H2/t5-/m1/s1
