20
gdb 11354	4.98978	1.1878	1.04937	1.7281	78.48	-0.2248	0.0229	0.2477	1201.3854	0.176428	-349.02135	-349.012566	-349.011622	-349.055125	31.904	
C	-0.3528045596	 1.495289285	-0.0849095423	-0.374835
C	 0.1422175674	 0.0434382612	 0.046468304	-0.291901
C	 0.8501492171	-0.462749694	-1.1737881691	 0.314543
C	 2.118792189	-0.8421298528	-1.3048766013	-0.225378
C	 2.4017877955	-1.3003926208	-2.7095710757	 0.109951
C	 2.9163532015	-2.7357300182	-2.8244417701	-0.385747
O	 1.140443997	-1.1813535274	-3.3818761087	-0.280178
C	 0.165708341	-0.6235830335	-2.5108773474	-0.156467
H	 0.4820174579	 2.176105739	-0.2777919857	 0.123012
H	-1.0689458452	 1.6040465496	-0.9052621743	 0.122433
H	-0.8497721975	 1.8179438861	 0.8348730812	 0.115961
H	 0.8110069761	-0.0382436814	 0.9100772252	 0.105677
H	-0.7200835319	-0.6044681408	 0.258521097	 0.106602
H	 2.8716332702	-0.8425186283	-0.5253697527	 0.093621
H	 3.1270944569	-0.6303611661	-3.2039239137	 0.076054
H	 2.2350835282	-3.427732227	-2.3206496836	 0.116349
H	 2.9922230118	-3.0243731875	-3.876707806	 0.123867
H	 3.909112176	-2.8273027147	-2.3706603529	 0.108073
H	-0.7099854786	-1.2903991422	-2.4509279839	 0.098993
H	-0.193751933	 0.3377331239	-2.91363272	 0.099371
53.2635	91.2632	129.2853	209.1261	232.6389	246.7782	308.6297	381.497	488.297	501.56	605.8498	728.3049	785.0253	842.703	855.4928	898.954	918.1705	963.357	1021.2283	1029.8445	1052.317	1085.6132	1101.7328	1108.5453	1134.9056	1200.82	1216.8696	1265.1723	1310.8333	1348.6262	1352.9228	1375.0518	1388.8444	1399.2035	1408.7888	1479.9813	1485.7298	1494.5426	1499.1867	1506.5716	1524.1517	1728.2597	2940.7504	2962.9877	2977.244	3009.2672	3035.3467	3038.9799	3064.3409	3108.4387	3110.5067	3112.335	3119.5713	3203.1926
CCC1=CC(C)OC1	CCC1=C[C@@H](C)OC1	
InChI=1S/C7H12O/c1-3-7-4-6(2)8-5-7/h4,6H,3,5H2,1-2H3	InChI=1S/C7H12O/c1-3-7-4-6(2)8-5-7/h4,6H,3,5H2,1-2H3/t6-/m1/s1
