18
gdb 80683	3.00658	1.50079	1.24715	2.876	71.03	-0.2398	0.0661	0.3059	1040.1053	0.148322	-438.996888	-438.989016	-438.988072	-439.029273	30.453	
O	 0.1536407065	 1.4204191708	 0.6019963242	-0.418529
C	 0.0069410543	 0.0594838744	 0.3484465177	 0.096777
C	-0.6636090808	-0.8481183121	 1.3179701467	 0.062312
O	-1.7765715922	-0.2311083292	 1.9651912117	-0.295025
C	-2.4910991744	-0.1428288416	 0.702436157	 0.109474
C	-3.1309976518	 1.1961738754	 0.4387437416	-0.026179
C	-3.7425709058	 1.9554507834	 1.557272806	-0.24262
N	-2.5218146593	 2.4481805069	 0.8957838375	-0.335374
C	-1.2647852749	-0.6392476813	-0.077829511	-0.245753
H	-0.1943505832	 1.9189438672	-0.1456113668	 0.301825
H	 0.8811811506	-0.4068553167	-0.1111685046	 0.100341
H	-0.2122061706	-1.7009755437	 1.8120920553	 0.110786
H	-3.2685349293	-0.9197657585	 0.681937713	 0.093678
H	-3.5981547343	 1.2537686153	-0.5443921094	 0.088784
H	-4.6383681053	 2.546440621	 1.3885624653	 0.11307
H	-3.6429012869	 1.5396699555	 2.5560193523	 0.128275
H	-1.7167315329	 2.211989703	 1.473520566	 0.256253
H	-1.3095116397	-1.2939254096	-0.9384120923	 0.101905
95.2622	166.9021	177.4024	228.3594	277.6885	325.0449	404.0995	498.9273	617.036	644.9428	720.5153	787.1894	812.8155	840.4392	860.3125	920.5123	937.6222	974.2644	993.4483	1016.3799	1034.7205	1052.775	1068.5055	1083.2262	1099.7917	1142.6756	1148.4405	1201.6765	1214.938	1256.9483	1271.6499	1296.0885	1311.518	1326.4961	1350.855	1380.8002	1418.4112	1455.4101	1509.6695	3001.9983	3085.0026	3107.1344	3112.7329	3178.1919	3197.8657	3200.19	3492.9235	3806.2041
OC1C2OC(C3CN3)C12	O[C@H]1[C@H]2O[C@@H]([C@H]3CN3)[C@@H]12	
InChI=1S/C6H9NO2/c8-4-3-5(2-1-7-2)9-6(3)4/h2-8H,1H2	InChI=1S/C6H9NO2/c8-4-3-5(2-1-7-2)9-6(3)4/h2-8H,1H2/t2-,3-,4-,5+,6+/m1/s1
