20
gdb 57006	3.0172	1.13936	0.86068	3.9296	83.77	-0.2483	0.0159	0.2642	1338.0114	0.171785	-366.04774	-366.038835	-366.037891	-366.081678	33.276	
C	 0.0057466454	 1.5692565464	 0.0224957682	-0.398465
C	-0.0038339918	 0.0278896688	 0.0460271636	-0.165366
C	 0.6941965204	-0.4574713421	 1.2433820548	 0.279386
N	 1.2332440406	-0.8338051852	 2.1943113026	-0.333864
C	-1.4264870793	-0.5680451479	-0.0264928631	 0.044832
C	-2.1972232261	-0.1929802794	-1.3234228062	-0.282794
C	-3.0335452913	-1.4216125139	-1.592108847	-0.065232
C	-2.6461840191	-2.4611317417	-0.8561285376	-0.065703
C	-1.4812042487	-2.1197466388	 0.039987609	-0.276503
H	 1.026302141	 1.9560636427	 0.0758061519	 0.136741
H	-0.4532234068	 1.9329295009	-0.8999901509	 0.130642
H	-0.5555992109	 1.9719563172	 0.8706603751	 0.136531
H	 0.562374418	-0.3398438311	-0.8208592561	 0.122973
H	-1.9927917079	-0.1768645039	 0.8266009867	 0.093619
H	-2.7948018732	 0.7173942881	-1.2055097483	 0.11009
H	-1.510220552	-0.0027425602	-2.1628930454	 0.104743
H	-3.825380436	-1.4345540393	-2.3326464095	 0.095752
H	-3.0731851076	-3.4566668607	-0.9021101579	 0.097717
H	-0.5541108428	-2.5754864159	-0.3394817438	 0.111658
H	-1.5971222517	-2.483796994	 1.065769814	 0.123244
73.4282	97.2999	126.8332	212.939	240.8633	257.3542	372.9917	389.823	398.1106	485.5839	578.5666	637.9767	725.712	782.6088	819.0467	859.7382	921.9152	951.2899	966.5768	977.2325	982.0028	1016.8022	1052.2724	1090.3569	1109.0456	1131.1484	1143.9193	1160.8921	1217.9398	1284.3619	1297.1856	1324.2084	1327.6102	1334.5562	1370.7928	1377.4872	1413.1985	1484.9055	1492.7452	1495.8961	1500.3383	1691.0538	2353.7957	2988.1159	2998.6242	3015.6288	3039.1285	3049.5725	3060.8725	3073.6023	3124.4102	3130.9197	3185.3163	3210.4373
CC(C#N)C1CC=CC1	C[C@@H](C#N)[C@H]1CC=CC1	
InChI=1S/C8H11N/c1-7(6-9)8-4-2-3-5-8/h2-3,7-8H,4-5H2,1H3	InChI=1S/C8H11N/c1-7(6-9)8-4-2-3-5-8/h2-3,7-8H,4-5H2,1H3/t7-/m0/s1
