21
gdb 81380	2.38029	1.56438	1.22348	1.3607	76.94	-0.2456	0.0785	0.3241	1119.2288	0.184211	-424.220504	-424.212332	-424.211388	-424.252739	32.889	
C	-0.739511548	 1.2848576382	 0.1801284751	-0.412105
C	 0.1051898645	 0.0246447612	-0.0269427915	 0.032883
C	 0.9829352576	 0.1201012777	-1.3023053721	-0.224839
C	 2.2354287912	-0.7879823669	-1.2331619405	-0.223504
C	 2.6871334745	-0.925428884	 0.2185162203	 0.041038
O	 1.6168895399	-1.5979158786	 0.9580433171	-0.321939
C	 1.0123498088	-0.2823824626	 1.1695504979	 0.029682
C	 2.4247333757	 0.343623086	 1.0649252396	 0.169734
O	 3.1297110638	 0.3848560918	 2.2806238269	-0.457764
H	-0.1069121926	 2.1660165194	 0.3398079994	 0.11743
H	-1.366356579	 1.483800277	-0.6952322051	 0.117462
H	-1.3993371679	 1.1854542061	 1.0484393285	 0.115636
H	-0.5637556474	-0.8407289258	-0.1153670628	 0.08481
H	 0.3878451242	-0.1025415336	-2.1933596651	 0.099082
H	 1.3103696626	 1.1610115787	-1.4138335415	 0.102385
H	 2.0169016558	-1.794851931	-1.605184139	 0.112318
H	 3.0391912251	-0.3783780579	-1.8558548988	 0.098021
H	 3.6527986471	-1.4248868317	 0.342589575	 0.074791
H	 0.5019253689	-0.2107185598	 2.1359689596	 0.07103
H	 2.5407930239	 1.3242608405	 0.5996195117	 0.086632
H	 3.0257646713	-0.4812258348	 2.6936568153	 0.287216
132.8768	185.7219	231.8805	241.1464	294.1195	343.4278	380.9188	443.7732	452.7921	478.6614	528.8939	626.4265	793.3764	846.1483	863.4363	892.0672	916.7725	923.0557	943.8547	967.4733	982.0855	1021.4154	1042.8097	1069.2377	1113.7933	1127.6814	1136.0732	1178.8362	1222.8996	1231.0807	1246.7072	1257.5577	1309.6485	1320.783	1329.9842	1348.5986	1358.9035	1371.7884	1384.1012	1414.2188	1450.8015	1473.6454	1497.0095	1498.6943	1504.8579	3022.5676	3025.7518	3031.7746	3036.7498	3056.6908	3068.586	3071.8681	3084.7225	3093.1675	3100.2581	3101.1577	3785.7563
CC1CCC2OC1C2O	C[C@H]1CC[C@@H]2O[C@H]1[C@H]2O	
InChI=1S/C7H12O2/c1-4-2-3-5-6(8)7(4)9-5/h4-8H,2-3H2,1H3	InChI=1S/C7H12O2/c1-4-2-3-5-6(8)7(4)9-5/h4-8H,2-3H2,1H3/t4-,5-,6-,7+/m0/s1
