16
gdb 44664	2.83969	1.9387	1.73793	3.9528	71.51	-0.2421	-0.0222	0.2199	848.47	0.12708	-400.759649	-400.75343	-400.752485	-400.790107	25.754	
O	-0.049768628	 0.0234613227	 0.3141328055	-0.307021
C	-0.0681128639	 1.2049246902	 0.1156904355	 0.385066
C	-1.3033962891	 2.1080993482	-0.0242394229	-0.311013
C	-0.7664375941	 3.4465595064	 0.5512631792	-0.11825
C	-0.5959517194	 3.2813272959	 2.051911126	-0.082905
C	 0.6475202225	 2.9007940147	 2.3600948973	-0.073256
C	 1.5143748371	 2.884596329	 1.1421175928	-0.067166
C	 0.6909772508	 3.4217903298	 0.0300001136	-0.057419
N	 1.1028693644	 2.0188609482	-0.0304897776	-0.148776
H	-1.5680415346	 2.2202087805	-1.0828195145	 0.130478
H	-2.1554867441	 1.6762409311	 0.5032147942	 0.130286
H	-1.353737627	 4.3147515625	 0.2489734267	 0.086792
H	-1.433617535	 3.3194533705	 2.7389712781	 0.110483
H	 1.0083482606	 2.6218673105	 3.3418394024	 0.111248
H	 2.5882917515	 3.0133382841	 1.2167826629	 0.109748
H	 1.0485140582	 4.0932512758	-0.7434509592	 0.101705
122.4649	246.7757	368.8178	470.9709	490.5142	605.3449	626.1807	661.242	727.6168	752.0195	769.001	835.0699	840.5217	884.6748	899.0893	915.3004	948.0486	975.2774	997.8505	1018.9013	1039.0507	1095.4991	1113.3801	1130.3031	1156.0934	1192.4833	1262.6139	1286.4797	1296.1321	1300.8561	1362.3571	1376.9093	1460.9711	1653.5515	1862.6223	3043.5109	3102.2675	3126.4052	3164.0842	3179.6538	3195.5865	3225.3367
O=C1CC2C=CC3C2N13	O=C1C[C@H]2C=C[C@@H]3[C@H]2N13	
InChI=1S/C7H7NO/c9-6-3-4-1-2-5-7(4)8(5)6/h1-2,4-5,7H,3H2	InChI=1S/C7H7NO/c9-6-3-4-1-2-5-7(4)8(5)6/h1-2,4-5,7H,3H2/t4-,5-,7+,8?/m1/s1
