20
gdb 72562	2.37338	1.87386	1.44776	2.1563	77.18	-0.2157	-0.0133	0.2024	995.6697	0.173191	-403.173526	-403.165774	-403.164829	-403.205382	31.162	
C	 0.0000780361	 1.518800731	 0.0375269892	-0.48182
C	-0.0169938089	 0.0055116695	-0.0095230164	 0.195034
C	 0.6343679729	-0.6629866422	-1.2590701521	-0.263695
C	 0.0364430201	-2.1081379186	-1.2088698046	-0.176963
N	-0.8182658243	-2.1521680032	 0.0071015935	-0.09488
C	 0.0813583638	-2.1121748721	 1.1811929344	-0.295498
C	 0.6747336753	-0.6868059152	 1.1708836656	 0.394436
O	 1.4954236936	-0.224829514	 1.9198081505	-0.334625
C	-1.3621291302	-0.7706912137	 0.0191870678	-0.229192
H	 1.0252772301	 1.8875076918	 0.139369318	 0.136091
H	-0.4336849661	 1.950293213	-0.8704545633	 0.111029
H	-0.564914862	 1.89317774	 0.8972195617	 0.121437
H	 0.3296345864	-0.1260934365	-2.1632724427	 0.105148
H	 1.7268176599	-0.6455477271	-1.2192101617	 0.116614
H	-0.5897363272	-2.3082106561	-2.0825231258	 0.110068
H	 0.7964254781	-2.8911680991	-1.1594822158	 0.109467
H	-0.496673843	-2.261895701	 2.1008730738	 0.131897
H	 0.852822798	-2.8851663718	 1.1429296241	 0.130374
H	-1.957349174	-0.5922063295	 0.9199627325	 0.108082
H	-1.9858512885	-0.5876992052	-0.8608611085	 0.106994
119.4478	180.1435	213.2529	264.9211	294.6763	422.0018	445.7646	485.1865	558.6509	590.2196	617.3927	700.074	758.69	819.0488	840.5592	862.5836	908.4594	940.8692	965.3368	991.8868	999.1633	1030.4435	1066.2813	1073.8928	1109.2857	1171.41	1207.9474	1209.1079	1259.5608	1264.1709	1272.5391	1289.4672	1303.4602	1332.049	1361.2673	1414.9019	1457.5646	1488.4018	1492.0611	1497.6639	1501.3517	1521.8789	1852.7746	3034.7136	3041.8748	3046.1394	3050.7935	3064.4291	3091.4446	3101.3473	3103.4966	3107.6988	3108.4979	3116.0166
CC12CCN(CC1=O)C2	C[C@@]12CCN(CC1=O)C2	
InChI=1S/C7H11NO/c1-7-2-3-8(5-7)4-6(7)9/h2-5H2,1H3	InChI=1S/C7H11NO/c1-7-2-3-8(5-7)4-6(7)9/h2-5H2,1H3/t7-/m0/s1
