19
gdb 41863	2.57825	2.08235	1.63187	1.4922	78.8	-0.2303	0.0191	0.2493	907.0509	0.163034	-385.895659	-385.888909	-385.887965	-385.926778	27.771	
C	-0.0832017405	 1.4806916432	-0.2100871001	-0.085614
O	 1.1095397246	 2.0432979489	 0.3264997966	-0.277607
C	 1.9716005214	 1.0451038162	 0.8897827337	 0.095905
C	 2.080597955	 1.3164112369	 2.3974322637	-0.265666
C	 0.7691177264	 1.0444546533	 3.0948345559	-0.055497
C	-0.1344288361	 0.1921199933	 2.6085707298	-0.065419
C	 0.1063091073	-0.5987908122	 1.3744697903	-0.075936
C	 0.0034271871	-0.0220951601	-0.035344274	-0.080218
C	 1.3486759735	-0.3125765356	 0.5703028964	-0.105886
H	-0.9469946598	 1.9221105761	 0.3058622692	 0.099343
H	-0.159747752	 1.7332206667	-1.276935678	 0.09463
H	 2.9588274231	 1.1353254623	 0.4186174487	 0.072198
H	 2.8863598193	 0.7061992128	 2.8322989333	 0.102327
H	 2.3747720421	 2.3614643313	 2.5406391566	 0.112607
H	 0.5680018395	 1.5828339672	 4.0170353771	 0.087327
H	-1.0761470363	 0.0331185709	 3.1277093316	 0.082644
H	-0.1935670091	-1.6419574235	 1.4358353613	 0.087994
H	-0.4123269867	-0.6557186116	-0.8102995468	 0.09059
H	 1.9873737413	-1.1155901059	 0.2233249048	 0.086279
88.3947	183.9133	330.9833	336.7107	483.5741	513.7666	568.2927	675.4985	722.2688	734.3785	766.4438	810.3966	835.4902	869.8518	911.6566	940.3929	959.3735	985.4097	993.1476	1007.403	1040.8605	1048.0264	1064.852	1071.1841	1113.9777	1126.4774	1173.5223	1197.0698	1214.6835	1229.2012	1314.6501	1316.5897	1338.1321	1354.0235	1376.4964	1390.2998	1421.6062	1434.9236	1464.6717	1521.9632	1710.5026	2997.5259	2999.7516	3019.0764	3026.0728	3068.742	3132.6389	3148.6899	3171.7176	3173.5101	3184.901
C1OC2CC=CC3C1C23	C1O[C@H]2CC=C[C@H]3[C@@H]1[C@@H]23	
InChI=1S/C8H10O/c1-2-5-6-4-9-7(3-1)8(5)6/h1-2,5-8H,3-4H2	InChI=1S/C8H10O/c1-2-5-6-4-9-7(3-1)8(5)6/h1-2,5-8H,3-4H2/t5-,6+,7-,8-/m0/s1
