19
gdb 89903	4.55746	1.01389	0.97551	1.4839	75.17	-0.2466	0.0736	0.3202	1245.8053	0.158662	-422.966912	-422.958856	-422.957912	-422.999639	31.595	
O	-0.0715964154	 1.4520075689	 0.0277310387	-0.432499
C	 0.0380612381	 0.0482512652	 0.0433862982	 0.149256
C	 0.2831240203	-0.6784596577	 1.3960014231	-0.330112
C	-0.8119282095	-1.6953942593	 0.9892756186	 0.365958
C	-0.4341598839	-3.1399098071	 0.4886162978	-0.337649
C	-1.4211140064	-3.6988162033	 1.52209599	 0.040709
O	-0.9915213508	-3.2338335524	 2.806926224	-0.249335
C	-1.7690250619	-2.3480024826	 1.9887854409	-0.061749
C	-1.3176065251	-0.6782779599	-0.0671136658	-0.324532
H	 0.8101917723	 1.8260165404	 0.1234709076	 0.281909
H	 0.7399602836	-0.3045048455	-0.7261919623	 0.067494
H	 1.2824475569	-1.0649230741	 1.6087363155	 0.098816
H	-0.0468079188	-0.0474587377	 2.2271486827	 0.106959
H	-0.7423410914	-3.3145744971	-0.5458878009	 0.10583
H	 0.6032635994	-3.4575371633	 0.6237557282	 0.107544
H	-2.0040617426	-4.6119841696	 1.4942463153	 0.103258
H	-2.6824392571	-1.9477535563	 2.416424881	 0.096108
H	-2.1061232969	-0.0379280945	 0.3416348674	 0.112327
H	-1.6293662107	-1.052327254	-1.0452437497	 0.099709
74.011	114.446	241.3606	267.8589	327.5497	341.5865	381.6639	439.8773	475.2602	569.2342	699.8351	786.4695	824.4936	839.2256	852.8093	861.7856	899.8218	935.5608	949.5425	980.8929	998.7133	1032.2324	1052.7248	1073.083	1107.4058	1148.2821	1173.7483	1194.8392	1219.2653	1223.8102	1230.339	1245.8367	1260.2564	1274.3489	1312.2058	1326.9641	1383.6894	1429.6827	1464.8818	1470.1166	1493.778	2991.4269	3049.6825	3054.6828	3057.2246	3108.4426	3113.2533	3114.965	3169.8001	3190.7992	3814.9787
OC1CC2(CC3OC23)C1	O[C@H]1C[C@]2(C[C@H]3O[C@@H]23)C1	
InChI=1S/C7H10O2/c8-4-1-7(2-4)3-5-6(7)9-5/h4-6,8H,1-3H2	InChI=1S/C7H10O2/c8-4-1-7(2-4)3-5-6(7)9-5/h4-6,8H,1-3H2/t4-,5-,6-,7+/m1/s1
