16
gdb 96952	5.4325	1.17834	1.08846	0.9734	71.88	-0.245	0.0097	0.2547	1108.5894	0.124461	-437.8191	-437.811928	-437.810984	-437.851163	27.365	
C	-0.0659524412	 1.4485965313	 0.1035311572	-0.339693
N	-0.0174214651	-0.0051853677	 0.1379048986	-0.33726
C	-1.0791235029	-0.6654412043	 0.0464076507	 0.460391
O	-2.3723544138	-0.1568491925	-0.0917317307	-0.266119
C	-3.162602719	-1.3341252414	-0.1458889206	 0.056743
C	-2.6143940618	-2.409823635	 0.8336819448	 0.045705
O	-3.0101042567	-3.4764971881	-0.0872601028	-0.315431
C	-2.4376199381	-2.4461936052	-0.955160171	 0.045705
C	-1.2776472911	-2.1493733707	 0.0569588643	-0.185094
H	 0.5558237691	 1.8030411596	-0.7259724202	 0.130171
H	-1.0730111975	 1.8656275465	-0.0044615858	 0.128123
H	 0.3829516462	 1.838663266	 1.0236632669	 0.13017
H	-4.2230664766	-1.1249912203	-0.2549368976	 0.11481
H	-2.7773908313	-2.5536839463	 1.9009208854	 0.111291
H	-2.3892346347	-2.6335445798	-2.0269910229	 0.111291
H	-0.4231249154	-2.8106694821	 0.1548486236	 0.109196
74.4973	112.3321	215.7943	287.1435	410.1656	441.9886	505.1211	675.2258	684.2124	720.124	766.4587	840.9667	843.5837	891.3792	892.3388	914.0224	984.4322	1000.6325	1031.7792	1065.5093	1114.4671	1130.5348	1136.8486	1148.3222	1152.4397	1180.5075	1181.5526	1224.1888	1267.79	1290.1559	1354.9044	1438.2165	1494.2322	1495.2951	1831.5319	3021.3623	3083.3901	3094.7964	3131.5123	3133.8323	3176.9213	3191.485
CN=C1OC2C3OC2C13	CN=C1O[C@@H]2[C@H]3O[C@@H]2[C@@H]13	
InChI=1S/C6H7NO2/c1-7-6-2-3-5(9-6)4(2)8-3/h2-5H,1H3	InChI=1S/C6H7NO2/c1-7-6-2-3-5(9-6)4(2)8-3/h2-5H,1H3/t2-,3-,4+,5+
