15
gdb 29347	1.98789	1.90419	0.97925	4.1025	75.65	-0.2083	-0.0007	0.2075	1139.0875	0.113182	-416.865028	-416.856487	-416.855543	-416.898143	31.293	
C	-0.008766926	 1.4949748331	 0.0391128572	-0.508494
C	-0.0239374409	 0.0014649793	 0.0220468412	 0.170994
C	-0.0494426252	-0.8214804849	-1.0472403058	-0.132255
O	-0.056043842	-2.1505521555	-0.6469942496	-0.175835
C	-0.0317894791	-2.1588333598	 0.6924914057	 0.329335
N	-0.0990870679	-3.3762553724	 1.3072085507	-0.598811
C	-0.0070169457	-0.8712200625	 1.1847038288	-0.004286
C	 0.0399198287	-0.5215602466	 2.5477319145	 0.172071
N	 0.0845130791	-0.2550057351	 3.6767903341	-0.367229
H	 0.884920274	 1.8764048362	 0.5449069272	 0.144167
H	-0.0239120593	 1.8988359304	-0.9761762965	 0.12916
H	-0.8752508405	 1.8934085067	 0.5779255675	 0.14504
H	-0.0653458068	-0.6632231387	-2.1113564723	 0.145337
H	 0.2751378297	-4.1500376861	 0.7777835074	 0.270104
H	 0.1686209618	-3.3767261541	 2.28036668	 0.280705
116.6854	121.4204	151.2609	206.7181	251.7889	297.1268	347.9488	412.4183	522.3404	536.8798	556.0491	585.5039	620.7206	661.3414	688.1992	742.1277	783.7498	999.5903	1015.5803	1066.4683	1091.5624	1130.1567	1227.2192	1281.6635	1343.4453	1421.9373	1477.5571	1479.1703	1497.355	1604.0952	1648.8034	1672.0292	2324.6431	3036.0753	3089.655	3121.1218	3294.748	3573.5961	3682.2678
CC1=COC(N)=C1C#N	Cc1coc(N)c1C#N	
InChI=1S/C6H6N2O/c1-4-3-9-6(8)5(4)2-7/h3H,8H2,1H3	InChI=1S/C6H6N2O/c1-4-3-9-6(8)5(4)2-7/h3H,8H2,1H3
