15
gdb 16309	3.75104	1.68842	1.41862	3.1741	62.78	-0.2492	-0.0451	0.2041	884.0651	0.11776	-399.751485	-399.74396	-399.743016	-399.783378	27.421	
O	 0.2921740401	 1.436946912	 0.2767174583	-0.420861
C	 0.052401837	 0.0635691941	 0.0801137221	 0.018071
C	 0.1251192463	-0.769520031	 1.3748847004	-0.175488
N	-1.2580375724	-1.3381009455	 1.1723782104	-0.140992
C	-2.159376751	-0.1965428804	 1.188444642	-0.268958
C	-1.3945110036	-0.4135847981	-0.0691522269	 0.207152
C	-2.0444888559	-0.8908821355	-1.3096012559	 0.067086
O	-3.1365345923	-1.4020868813	-1.3556585334	-0.252759
H	 0.1924238984	 1.8934868126	-0.5654806986	 0.286314
H	 0.6909565168	-0.3493460159	-0.7128847802	 0.084003
H	 0.8699929429	-1.5655768957	 1.3634745322	 0.122435
H	 0.2230961602	-0.1776595059	 2.2893620542	 0.124667
H	-3.2056578099	-0.480035501	 1.1411735976	 0.150517
H	-1.9182220711	 0.6725055627	 1.7969236677	 0.131789
H	-1.4383221155	-0.7397237411	-2.2331998398	 0.067023
99.7224	144.7442	196.9016	236.6	263.9882	334.8124	449.3622	484.0652	617.9704	679.3808	726.2497	768.1759	871.2663	892.0125	976.9841	1002.5277	1025.5568	1060.7572	1107.987	1128.2724	1141.4289	1202.2789	1229.7234	1231.6856	1286.4959	1312.0913	1370.4773	1423.823	1431.1153	1479.1364	1500.1433	1809.2721	2857.8905	3009.1578	3066.3566	3109.8215	3136.4153	3216.679	3809.2796
OC1CN2CC12C=O	O[C@H]1CN2C[C@@]12C=O	
InChI=1S/C5H7NO2/c7-3-5-2-6(5)1-4(5)8/h3-4,8H,1-2H2	InChI=1S/C5H7NO2/c7-3-5-2-6(5)1-4(5)8/h3-4,8H,1-2H2/t4-,5+,6?/m0/s1
