22
gdb 103977	2.50306	1.48094	1.15633	1.5993	82.05	-0.226	0.0728	0.2988	1177.5072	0.192734	-404.29446	-404.284919	-404.283975	-404.328214	36.437	
C	-0.0782604138	 1.407728122	 0.0732570449	-0.253988
O	-0.1553297634	 0.0034521389	-0.0617528467	-0.288024
C	 0.5775828372	-0.5466843948	-1.1439686103	 0.414589
C	 0.0808020276	-0.0403086838	-2.4982216531	-0.45088
C	 2.1335118655	-0.5759432208	-1.0401893688	-0.238269
N	 2.1611559776	-2.0754975578	-1.1808377509	-0.154225
C	 1.4515244883	-2.6408571145	-0.0130389184	 0.016375
C	 1.5706171316	-2.1442558257	 1.4107154949	-0.427619
C	 0.6288778202	-2.0711809228	-1.1016040635	-0.105521
H	 0.9624699661	 1.7648790225	 0.0784555842	 0.107068
H	-0.6218534066	 1.9382648294	-0.7203065985	 0.112116
H	-0.5367424672	 1.6583691403	 1.0330217633	 0.128222
H	 0.2898469511	 1.0247940312	-2.6358949137	 0.116928
H	 0.5761679266	-0.5833284086	-3.3077428177	 0.133323
H	-0.9994625696	-0.1966011725	-2.5848973264	 0.122779
H	 2.6474784514	-0.1144118538	-1.8858720203	 0.105666
H	 2.5680678128	-0.2010152613	-0.1094998373	 0.103262
H	 1.5102212449	-3.7272681405	-0.0781596666	 0.094319
H	 1.3105540234	-1.0930581799	 1.5184184052	 0.139655
H	 0.8859088234	-2.7153719149	 2.0462080048	 0.121518
H	 2.5867607266	-2.308797234	 1.7871343664	 0.117537
H	 0.0280855164	-2.6981955685	-1.7552603116	 0.085167
103.6866	136.6774	159.5669	183.3631	219.9846	255.734	295.2472	319.7311	370.5681	386.7738	461.1362	482.4522	608.488	640.1758	706.2159	780.3499	838.8429	901.739	919.2247	939.4903	955.0541	979.0359	1026.9756	1072.5857	1098.6696	1112.0901	1128.3977	1168.3544	1179.906	1197.6906	1199.8265	1234.7403	1244.2432	1268.2784	1285.2796	1378.9412	1404.4481	1411.1034	1442.9049	1474.7377	1484.4565	1488.6194	1491.7622	1497.2782	1506.1551	1511.2377	1517.1625	2987.1028	3036.092	3038.4517	3042.5847	3058.0101	3094.5679	3107.5156	3109.1057	3111.5032	3113.3095	3119.4044	3143.6145	3169.6653
COC1(C)CN2C(C)C12	CO[C@@]1(C)CN2[C@@H](C)[C@@H]12	
InChI=1S/C7H13NO/c1-5-6-7(2,9-3)4-8(5)6/h5-6H,4H2,1-3H3	InChI=1S/C7H13NO/c1-5-6-7(2,9-3)4-8(5)6/h5-6H,4H2,1-3H3/t5-,6-,7-,8?/m0/s1
