20
gdb 98696	3.49729	1.0248	0.94327	2.2143	77.61	-0.2516	0.037	0.2887	1354.9893	0.168375	-440.307177	-440.296964	-440.29602	-440.342488	36.304	
C	 0.3706143404	 1.1777698652	-0.19798386	-0.229382
O	 0.0338935121	-0.1813119939	 0.0945101405	-0.241354
C	 0.5956333622	-0.6698967506	 1.2242735122	 0.485248
O	 1.3542217553	-0.0503998347	 1.932208545	-0.408119
N	 0.1168437036	-1.9383519202	 1.4930331822	-0.159009
C	 0.0828799222	-3.0413154917	 0.5505761443	-0.282468
C	 0.9586530823	-3.0955449593	 1.7749005746	 0.310799
C	 2.4577906021	-2.9612257587	 1.5977241906	-0.445031
C	 0.5213813276	-3.9232595936	 2.965932022	-0.44468
H	 1.4489046688	 1.2909965507	-0.3376703665	 0.136352
H	-0.1600183385	 1.4219442959	-1.1187734065	 0.12969
H	 0.0523991952	 1.8391090671	 0.6120612169	 0.140392
H	-0.8480029563	-3.6019009021	 0.5176042224	 0.119189
H	 0.5617781425	-2.8933990391	-0.4139943109	 0.12573
H	 2.7116873221	-2.4286309213	 0.6774354965	 0.121706
H	 2.8955915262	-2.4079299068	 2.433335525	 0.146685
H	 2.9198248012	-3.9529059095	 1.5580031779	 0.117706
H	 0.8865153063	-4.951737712	 2.8741050776	 0.118307
H	 0.9241289643	-3.5030539754	 3.8935104146	 0.131491
H	-0.5679757897	-3.9442046301	 3.0472220716	 0.126748
67.3903	102.1413	125.9428	136.1214	183.7445	199.5095	227.3209	283.2338	335.1907	365.4392	396.6736	417.8607	541.8855	589.3592	735.4068	801.244	818.8682	906.131	917.6414	965.9678	1000.4143	1025.9393	1055.7215	1115.8379	1136.2734	1136.9316	1176.0429	1181.9463	1214.4506	1289.6775	1302.5734	1409.9598	1414.4119	1427.5397	1475.1313	1477.1566	1481.4043	1485.3848	1495.2319	1501.1199	1505.073	1519.4013	1802.4951	3035.7809	3043.0336	3049.2897	3101.4353	3104.6482	3112.2067	3121.1477	3122.7701	3124.7226	3153.6892	3192.0217
COC(=O)N1CC1(C)C	COC(=O)N1CC1(C)C	
InChI=1S/C6H11NO2/c1-6(2)4-7(6)5(8)9-3/h4H2,1-3H3	InChI=1S/C6H11NO2/c1-6(2)4-7(6)5(8)9-3/h4H2,1-3H3
