22
gdb 118421	1.60915	1.14815	0.77788	3.2483	78.92	-0.2457	0.0312	0.2769	1559.7358	0.192072	-441.522289	-441.510672	-441.509727	-441.560739	40.118	
C	-0.3625143967	 1.4378254984	-0.0927966798	-0.395664
C	-0.1882276841	-0.0772346114	 0.044541093	-0.171529
C	 0.7829728455	-0.5126954311	 1.1698320218	-0.094358
C	 0.2519690009	-0.1917620441	 2.5738880042	-0.201382
C	 1.2757281287	-0.4433212612	 3.6830200135	-0.06919
O	 0.7766847949	-0.1097813724	 4.9689182597	-0.420516
C	 1.006502831	-2.0242644104	 1.0322822374	 0.408525
N	 2.1140879165	-2.3874097929	 0.3226738984	-0.52515
O	 0.2298340864	-2.8447824867	 1.4859578792	-0.378287
H	 0.5984174302	 1.9340035041	-0.2706547064	 0.11186
H	-1.0180159247	 1.6731660742	-0.9370312737	 0.117162
H	-0.8067445126	 1.8849314749	 0.8009721624	 0.12689
H	-1.1575047957	-0.5569804224	 0.2232205116	 0.118525
H	 0.1806604199	-0.4799511711	-0.9069780405	 0.096053
H	 1.7388292884	 0.0088048382	 1.0145398115	 0.061407
H	-0.0662886063	 0.8532549254	 2.6326494845	 0.099755
H	-0.6288336824	-0.8209763855	 2.7488096546	 0.113423
H	 1.6199446416	-1.4881132933	 3.6491387245	 0.100538
H	 2.1552162082	 0.1949223392	 3.535554576	 0.101016
H	 0.047571749	-0.7086234166	 5.1598328848	 0.282931
H	 2.7746604781	-1.7170101292	-0.0276002031	 0.258078
H	 2.2852101031	-3.3675954058	 0.1677963466	 0.259912
27.981	69.5871	79.2752	99.4194	124.1676	148.273	174.656	229.5582	289.191	314.5951	325.4538	362.8851	417.425	515.9409	587.0368	624.8471	736.9561	773.2818	784.3562	847.3319	917.7052	990.7494	1011.7342	1042.9525	1064.3071	1080.9596	1113.0555	1114.0839	1131.5575	1192.5948	1257.3202	1278.0415	1310.1345	1335.5574	1352.1147	1366.0595	1400.3428	1411.0305	1415.5803	1426.2367	1475.1096	1489.631	1499.2899	1507.1464	1510.4824	1613.9312	1787.847	2990.604	2996.8667	3026.6278	3033.8925	3041.7258	3055.2142	3066.8023	3097.0194	3100.1851	3113.4887	3602.4393	3741.5305	3815.4971
CCC(CCO)C(N)=O	CC[C@@H](CCO)C(=O)N	
InChI=1S/C6H13NO2/c1-2-5(3-4-8)6(7)9/h5,8H,2-4H2,1H3,(H2,7,9)	InChI=1S/C6H13NO2/c1-2-5(3-4-8)6(7)9/h5,8H,2-4H2,1H3,(H2,7,9)/t5-/m0/s1
