20
gdb 50565	3.1611	1.3695	1.1776	2.8042	78.22	-0.221	-0.0221	0.1989	1103.4173	0.173207	-403.130778	-403.123093	-403.122149	-403.1633	30.163	
O	-0.2312443361	 0.1229637575	-0.3522917774	-0.244133
C	 0.4939198767	 0.724577507	 0.3976944968	 0.148965
C	 1.2139314437	 2.0272736462	 0.0678111024	-0.064594
C	 0.8030641237	 2.6161369531	-1.3053524473	-0.2241
C	 0.8459158786	 4.1675514014	-1.3244597759	-0.219114
C	 0.7011204308	 4.7377290634	 0.0954738639	-0.01261
C	 1.8414417213	 4.175694361	 0.972106246	-0.169457
N	 1.0153718252	 2.9398409093	 1.2133678445	-0.130776
C	-0.1957007436	 3.804413838	 0.9452547148	-0.191997
H	 0.6920838213	 0.3722750613	 1.433174542	 0.090797
H	 2.2835338601	 1.7661196174	 0.0773650152	 0.098028
H	 1.4297384071	 2.1980307681	-2.0975065279	 0.105269
H	-0.2100561035	 2.2689572003	-1.5240824516	 0.12887
H	 1.7872816041	 4.5294755872	-1.7551608001	 0.098824
H	 0.0443568704	 4.5432144104	-1.9697229769	 0.101198
H	 0.5108580414	 5.8144528931	 0.0977565891	 0.063969
H	 2.8161171318	 3.9962931715	 0.5058255056	 0.096159
H	 1.9834488794	 4.715225639	 1.9139061115	 0.103933
H	-0.5273082159	 4.2580711325	 1.8834893144	 0.108405
H	-1.0429801765	 3.3001460323	 0.4723927409	 0.112363
62.5414	126.0299	230.7984	252.9751	362.4103	414.3057	426.4529	496.0566	570.3776	661.0934	761.0818	795.5085	820.8628	856.5421	878.7045	904.8492	940.5554	956.8008	974.1682	984.3056	1018.6137	1082.204	1100.1358	1112.9076	1115.0452	1129.0166	1183.4208	1236.6492	1253.8207	1264.5258	1273.5717	1301.5272	1309.4183	1325.1485	1341.0793	1368.8668	1373.5849	1403.2255	1488.221	1500.3167	1504.3187	1528.3936	1827.7816	2904.354	2992.4785	3027.9892	3033.595	3051.7858	3062.5787	3066.9308	3072.4696	3088.3814	3101.6871	3108.6976
O=CC1CCC2CN1C2	O=C[C@H]1CC[C@@H]2CN1C2	
InChI=1S/C7H11NO/c9-5-7-2-1-6-3-8(7)4-6/h5-7H,1-4H2	InChI=1S/C7H11NO/c9-5-7-2-1-6-3-8(7)4-6/h5-7H,1-4H2/t7-/m1/s1
