20
gdb 88017	2.7864	1.30974	1.11377	1.0854	79.46	-0.2256	0.0663	0.2918	1169.6537	0.170017	-403.083769	-403.074729	-403.073785	-403.118016	34.058	
O	 0.1801004714	 1.3215621477	-0.0826594118	-0.420598
C	 0.0346015048	-0.0645247045	 0.0161463621	 0.085019
C	-0.4936534504	-0.7375774998	 1.2547981279	-0.412278
C	-1.3172168965	-0.719732291	-0.0156321308	 0.249382
C	-2.6327108669	 0.0259909966	-0.2936020495	-0.325605
C	-2.9965294702	-1.0762191624	-1.3414518832	-0.291188
C	-1.7738319156	-1.8815840342	-0.8797111996	 0.292426
C	-0.9690902637	-2.9172476568	-1.5577222912	-0.312856
N	-1.8821277285	-3.2754388226	-0.4493743598	-0.361461
H	-0.5110555323	 1.7422313665	 0.4388127707	 0.285838
H	 0.847412764	-0.5484739854	-0.5168563412	 0.106857
H	-0.0366679342	-1.6722565926	 1.5712462651	 0.109973
H	-0.8303675465	-0.1123151978	 2.0781211933	 0.111328
H	-3.3180772544	 0.061249857	 0.5575363136	 0.106737
H	-2.5129215199	 1.0365310192	-0.6958318409	 0.102049
H	-3.9519113341	-1.5821225062	-1.1909020978	 0.114849
H	-2.9312201689	-0.7298846476	-2.3759044895	 0.108585
H	-1.2671345802	-3.2922866757	-2.5336768618	 0.118216
H	 0.1044378375	-2.9360691393	-1.3800678234	 0.106978
H	-1.3500361956	-3.4159722914	 0.4078642478	 0.225749
50.8288	88.7695	136.4848	176.151	215.7437	299.2588	330.0059	421.1363	457.9584	515.0893	542.7112	630.6077	757.5929	809.6574	815.7439	874.4981	877.4413	891.9886	921.2629	943.0574	972.4456	993.262	1016.2897	1044.6939	1087.0129	1101.2896	1121.2053	1132.4623	1148.46	1173.149	1220.2418	1237.3091	1248.6718	1263.62	1282.2126	1313.9426	1345.899	1412.2653	1436.7916	1469.9208	1482.8455	1492.0033	1517.153	3047.6779	3067.8738	3095.1314	3095.9781	3102.3156	3127.9169	3160.0027	3177.7549	3187.2939	3475.9637	3821.9397
OC1CC11CCC11CN1	O[C@H]1C[C@]21CC[C@]12CN1	
InChI=1S/C7H11NO/c9-5-3-6(5)1-2-7(6)4-8-7/h5,8-9H,1-4H2	InChI=1S/C7H11NO/c9-5-3-6(5)1-2-7(6)4-8-7/h5,8-9H,1-4H2/t5-,6-,7+/m0/s1
