21
gdb 105085	2.7652	1.2128	1.08789	2.6472	77.83	-0.2316	0.0817	0.3133	1238.4243	0.181074	-424.190706	-424.181322	-424.180377	-424.224885	35.905	
C	 0.0547826763	 1.682389328	 0.3114555894	-0.403248
C	 0.0416509404	 0.1671239348	 0.5205387207	-0.239877
C	-1.2228506735	-0.5518746358	 0.0749602492	 0.381791
C	-2.5147786497	 0.1383196398	-0.0726932059	-0.224734
O	-1.7185612396	-0.1673817787	-1.2279337589	-0.290689
C	-1.192478486	-2.0381147032	 0.3100824325	-0.134006
C	-2.0850251019	-2.9702245875	-0.4929210124	-0.360434
C	-0.6067491711	-2.9312245612	-0.7633017093	 0.144848
O	-0.0870619437	-2.4013822402	-1.9438610495	-0.43212
H	 1.0509928448	 2.0852654381	 0.5141212288	 0.116404
H	-0.2089943774	 1.9311169185	-0.7201506196	 0.136442
H	-0.6467864293	 2.1936727197	 0.9782823938	 0.114536
H	 0.8700141043	-0.2914355241	-0.0336395525	 0.12693
H	 0.2130492448	-0.0722423487	 1.57776161	 0.101624
H	-3.4334403259	-0.4378635178	 0.0204699396	 0.115991
H	-2.6050687915	 1.1998823106	 0.1429684352	 0.119063
H	-0.9896248183	-2.3097998317	 1.3427965683	 0.087244
H	-2.5165433086	-3.8328242783	 0.0031945729	 0.110837
H	-2.7220414629	-2.5086268954	-1.2409469313	 0.123113
H	-0.0062293993	-3.7774327873	-0.4458483073	 0.104052
H	-0.657902002	-1.6710702498	-2.2142445336	 0.302233
62.261	92.0284	160.7363	196.4118	239.3676	286.328	340.4499	374.5371	398.137	426.286	462.6779	517.8886	626.8837	696.6272	764.2671	791.0086	803.2564	846.616	866.8813	930.4011	987.9857	1008.9504	1028.5988	1059.1589	1069.2837	1087.1491	1119.2188	1127.7458	1133.1981	1143.6622	1176.1281	1192.9188	1224.1621	1304.0725	1341.9902	1371.5759	1376.4866	1403.591	1418.716	1446.0598	1480.1438	1484.9338	1499.0917	1510.3204	1528.0124	3026.8827	3042.7154	3060.745	3099.1424	3109.1997	3122.3845	3127.0428	3138.5351	3165.7872	3189.4369	3216.9249	3777.1812
CCC1(CO1)C1CC1O	CC[C@]1(CO1)[C@H]1C[C@H]1O	
InChI=1S/C7H12O2/c1-2-7(4-9-7)5-3-6(5)8/h5-6,8H,2-4H2,1H3	InChI=1S/C7H12O2/c1-2-7(4-9-7)5-3-6(5)8/h5-6,8H,2-4H2,1H3/t5-,6+,7-/m0/s1
