13
gdb 129742	3.55083	1.1532	0.87387	1.6504	67.28	-0.2199	-0.0435	0.1764	1220.2825	0.088089	-486.020384	-486.011954	-486.01101	-486.054904	28.938	
N	 0.0302060623	 1.4304365211	 0.2610119715	-0.602456
C	-0.0434182436	 0.0491258741	 0.1104981137	 0.149716
C	-1.122020381	-0.7882803954	 0.0480201403	 0.472283
O	-2.4220906101	-0.4648002924	 0.0016830422	-0.224322
C	-3.3751725758	-1.4304787719	 0.2348688757	 0.106006
N	-4.5786671611	-1.1007003894	 0.1074272741	-0.416958
O	-0.7067913135	-2.0501155069	-0.0197070258	-0.230291
N	 0.7397213565	-1.9835319072	 0.011354939	-0.029442
N	 1.0540131833	-0.7619748309	 0.0814586041	-0.149817
H	 0.9062679102	 1.7976252455	-0.0879263344	 0.264653
H	-0.7511723721	 1.9141257897	-0.1621615398	 0.263394
H	-2.9500438112	-2.3954496891	 0.5144415388	 0.148526
H	-5.1847366338	-1.8915076771	 0.3166647606	 0.248707
35.414	88.4588	115.3719	152.6072	264.207	299.9593	359.4524	460.0406	511.2766	620.8711	656.1247	696.0739	705.363	766.8417	825.8913	842.941	993.1339	1023.4096	1044.3387	1101.6077	1237.9075	1272.9237	1342.914	1408.3071	1430.4329	1468.8348	1638.1698	1709.9505	1756.7318	3126.7684	3525.7814	3544.4641	3640.223
NC1=C(OC=N)ON=N1	Nc1c(O[CH][NH])onn1	
InChI=1S/C3H4N4O2/c4-1-8-3-2(5)6-7-9-3/h1,4H,5H2	InChI=1S/C3H4N4O2/c4-1-8-3-2(5)6-7-9-3/h1,4H,5H2
