22
gdb 32587	2.63014	1.20894	0.89789	1.9029	91.65	-0.1869	0.0509	0.2379	1398.5223	0.193672	-367.266469	-367.256353	-367.255409	-367.301684	36.993	
C	-0.0168136376	 1.5609557197	 0.1064545571	-0.371551
C	-0.0323310608	 0.0354858654	-0.0379156581	-0.156454
N	-1.3692644225	-0.5314835583	-0.0392699906	-0.037358
C	-2.0679063139	-0.8819469978	 1.0966109067	-0.20367
C	-3.3288726602	-1.2968182194	 0.7387049475	 0.276838
C	-4.4064948562	-1.781690396	 1.6611904688	-0.49747
C	-3.3948630548	-1.1844467716	-0.6815169498	-0.342366
C	-2.1843853821	-0.7107261657	-1.1387440638	 0.310885
C	-1.734389953	-0.4296692372	-2.5354072514	-0.505765
H	 1.0130217904	 1.9323398362	 0.1198280838	 0.115928
H	-0.543285556	 2.0398634282	-0.7241173738	 0.129331
H	-0.5060088244	 1.865210824	 1.0362781326	 0.129669
H	 0.4717975092	-0.2615091404	-0.9624320641	 0.116959
H	 0.5243569408	-0.4243365659	 0.7851817273	 0.116639
H	-1.6020193694	-0.8123321007	 2.0681083655	 0.10323
H	-5.3115113034	-1.1663227652	 1.5899668168	 0.119501
H	-4.7052324002	-2.8125093126	 1.4350867946	 0.11967
H	-4.0744220975	-1.7577509871	 2.7036332271	 0.113282
H	-4.2387101147	-1.438501159	-1.3073566789	 0.081351
H	-1.4624977077	 0.6217286411	-2.6944285359	 0.123313
H	-0.866565564	-1.0345567992	-2.8288234277	 0.124941
H	-2.5446356321	-0.6653913583	-3.2293046938	 0.133097
62.8066	101.1789	112.4864	147.3862	195.1409	207.3607	256.8921	288.5529	300.3274	397.4132	460.2674	579.3981	622.2978	640.0363	647.3136	707.9079	768.0181	783.737	802.2741	961.0377	992.2511	1000.5723	1018.6962	1059.989	1062.9572	1094.0516	1105.6759	1167.3289	1190.0972	1238.0093	1291.3394	1370.3715	1389.2676	1404.8911	1411.8694	1417.2952	1425.6831	1448.4381	1479.9361	1483.4564	1485.19	1489.171	1494.8403	1506.2226	1510.6948	1554.4184	1627.2377	3011.2263	3019.5811	3040.0018	3049.4367	3052.0176	3065.3713	3087.3007	3098.6874	3113.4815	3118.8646	3123.6023	3228.4946	3242.5419
CCN1C=C(C)C=C1C	CCn1cc(C)cc1C	
InChI=1S/C8H13N/c1-4-9-6-7(2)5-8(9)3/h5-6H,4H2,1-3H3	InChI=1S/C8H13N/c1-4-9-6-7(2)5-8(9)3/h5-6H,4H2,1-3H3
