14
gdb 62312	3.63247	1.45293	1.19193	2.3218	65.27	-0.2542	0.005	0.2592	982.2406	0.09985	-436.588818	-436.581691	-436.580747	-436.620337	27.597	
O	-0.0027880584	 1.4279691311	-0.0845395175	-0.466315
C	 0.0540545387	 0.0242762245	-0.0366716493	 0.272029
C	 1.0121253662	-0.5136179203	-1.0104696467	 0.220449
N	 1.7894815402	-0.9271394715	-1.7597467051	-0.33258
C	 0.046289718	-0.6528757987	 1.3586587008	-0.163375
C	-1.4758884015	-0.3416262345	 1.5375005601	 0.07359
O	-1.8313650565	-1.7094988388	 1.877950061	-0.321311
C	-0.8193617426	-1.8425985483	 0.83903462	 0.086288
C	-1.3395071076	-0.6292730437	 0.0067616181	-0.127147
H	 0.8888033993	 1.7825540929	 0.0079704354	 0.297521
H	 0.8227513602	-0.6747834928	 2.1214444316	 0.104382
H	-1.9665031151	 0.4803887567	 2.0518006315	 0.121968
H	-0.5185374216	-2.8349213258	 0.5113280805	 0.12458
H	-2.1184302696	-0.6180489308	-0.7525506405	 0.109921
122.2843	163.5964	239.2826	297.6899	335.2054	487.3583	500.1749	519.0955	619.5445	661.4467	775.123	801.8392	806.9798	837.9451	886.608	916.6584	966.8507	974.1667	1021.9244	1054.5747	1113.5587	1130.7064	1152.0538	1162.8811	1173.1987	1184.9517	1188.5201	1273.2547	1327.3301	1368.7607	2348.4558	3138.4485	3149.0085	3156.3388	3167.8407	3805.2634
OC1(C#N)C2C3OC2C13	O[C@@]1(C#N)[C@H]2[C@@H]3O[C@H]2[C@H]13	
InChI=1S/C6H5NO2/c7-1-6(8)2-4-3(6)5(2)9-4/h2-5,8H	InChI=1S/C6H5NO2/c7-1-6(8)2-4-3(6)5(2)9-4/h2-5,8H/t2-,3+,4-,5+,6-
