22
gdb 118189	4.19431	0.64915	0.58648	6.6221	79.72	-0.2445	0.0327	0.2772	1912.7276	0.193833	-441.533752	-441.523393	-441.522448	-441.569894	37.517	
C	 0.0792323137	 1.6616068452	 0.0087993425	-0.379705
C	 0.0491169415	 0.1305498169	 0.0157752307	-0.183859
C	 0.6551800855	-0.482489165	-1.2520722567	-0.161987
C	 0.6887347793	-2.0191719403	-1.2639835405	-0.004583
N	-0.6447078913	-2.6581692208	-1.1737781747	-0.525971
H	-0.0109584619	-4.2371217648	-1.656425401	 0.313824
H	-1.0617796862	-2.5091439793	-0.2612731844	 0.249183
H	-1.2764101495	-2.2530151287	-1.860965554	 0.239413
C	 1.4017772332	-2.557346892	-2.5175242482	-0.33224
C	 1.6644957379	-4.0695837958	-2.5395752715	 0.392249
O	 0.6973748273	-4.8332342042	-2.0151012748	-0.373166
O	 2.663437813	-4.5403517755	-3.0176104322	-0.333842
H	 1.1056675155	 2.0361413101	-0.067148328	 0.120941
H	-0.4829562031	 2.0646689502	-0.8407434909	 0.117429
H	-0.3591447144	 2.0723094935	 0.9232232924	 0.117436
H	 0.593929239	-0.2433024672	 0.8930880309	 0.101775
H	-0.9888709143	-0.2069668483	 0.1332034897	 0.086557
H	 0.0999548411	-0.1318373057	-2.1349326345	 0.091609
H	 1.681538753	-0.1130695686	-1.3739934348	 0.107086
H	 1.2433597284	-2.3603838649	-0.3796828976	 0.103431
H	 0.7998278204	-2.3117505153	-3.4045360713	 0.120399
H	 2.3682739718	-2.0678143795	-2.6497857711	 0.134021
63.977	74.8356	95.7533	121.5461	148.8654	246.2139	260.1557	308.2797	344.1064	367.9887	415.8417	457.8387	527.9179	612.1854	700.0757	747.0827	852.8086	863.9077	874.9732	919.6373	926.5357	961.2022	985.9985	1032.4663	1044.1315	1082.1735	1105.2973	1154.58	1160.4766	1243.7264	1267.6369	1284.5674	1306.7552	1324.1962	1338.5664	1369.9976	1395.5796	1413.0897	1415.8	1459.7785	1480.1841	1492.7153	1499.6037	1502.3599	1510.0833	1647.7054	1857.8757	2998.2403	3011.8556	3014.4398	3030.038	3032.8884	3037.3077	3058.7539	3099.6667	3106.8912	3119.8235	3240.244	3486.0837	3579.384
CCCC([NH3+])CC([O-])=O	CCC[C@@H](N)CC(=O)O	
InChI=1S/C6H13NO2/c1-2-3-5(7)4-6(8)9/h5H,2-4,7H2,1H3,(H,8,9)	InChI=1S/C6H13NO2/c1-2-3-5(7)4-6(8)9/h5H,2-4,7H2,1H3,(H,8,9)/t5-/m1/s1
