19
gdb 88904	5.99594	0.53976	0.51818	4.248	88.53	-0.2616	-0.0562	0.2054	2096.6063	0.156786	-385.85849	-385.848326	-385.847382	-385.896037	34.918	
C	 0.228303275	 1.5568695931	-0.2700753721	-0.406032
C	 0.0986394444	 0.0650879161	-0.0466342557	-0.008177
C	 1.3192648987	-0.8175024245	 0.0684882872	-0.284488
C	 0.4254541123	-0.6113425525	 1.2663970625	 0.013421
C	 0.9142288861	 0.1649158117	 2.4822564883	-0.394352
C	 1.6687137559	-0.6560515944	 3.4208039207	 0.108247
C	 2.2904082154	-1.3367101643	 4.2020739441	 0.03087
C	 3.028546954	-2.1783010703	 5.1055165362	 0.019259
O	 3.5489432429	-1.8007028227	 6.1309454008	-0.231748
H	 1.1165772039	 1.9721048829	 0.2149915168	 0.116279
H	 0.3148133138	 1.7767377994	-1.339504445	 0.122604
H	-0.6448147004	 2.099131353	 0.1099025769	 0.119839
H	-0.7445575282	-0.3769532848	-0.5716324608	 0.08918
H	 1.3252671424	-1.7856416075	-0.4196136357	 0.11484
H	 2.286770458	-0.3236410652	 0.0808178973	 0.113243
H	-0.2115860279	-1.4499168107	 1.5326480485	 0.095476
H	 1.5446299762	 1.0080949127	 2.1763301386	 0.141643
H	 0.0629193532	 0.6098712487	 3.0161296855	 0.144492
H	 3.091418994	-3.2388825708	 4.7854680759	 0.095405
19.8899	41.9598	67.9495	156.5937	176.4375	182.29	212.0584	294.7626	397.5213	401.6111	449.8593	489.46	611.0171	761.5634	825.1051	829.3509	860.1308	878.948	928.7204	978.1372	1022.5865	1051.756	1073.4055	1109.8665	1143.0923	1150.9383	1157.2661	1198.9768	1242.8627	1251.1594	1317.5338	1389.7624	1416.892	1423.4286	1429.6629	1450.8782	1493.4033	1495.2374	1507.4854	1766.4006	2329.0898	2912.0492	3016.4301	3031.7452	3058.188	3090.8873	3103.1296	3126.7231	3135.5135	3149.5905	3211.8924
CC1CC1CC#CC=O	C[C@H]1C[C@H]1CC#CC=O	
InChI=1S/C8H10O/c1-7-6-8(7)4-2-3-5-9/h5,7-8H,4,6H2,1H3	InChI=1S/C8H10O/c1-7-6-8(7)4-2-3-5-9/h5,7-8H,4,6H2,1H3/t7-,8+/m0/s1
