20
gdb 6578	3.50896	1.79611	1.51791	1.4743	75.14	-0.2258	0.0902	0.3161	946.7864	0.174706	-348.984114	-348.975554	-348.97461	-349.016189	33.321	
C	 0.1147290675	 1.4903766511	-0.0384205183	-0.488908
C	 0.0630192228	 0.0007946758	 0.0643179813	 0.480622
C	-0.9302916955	-0.8145312126	 0.8340719364	-0.355784
C	 0.5556273161	-1.0146666002	 1.0716374322	-0.216453
C	 1.1984412568	-1.7199115553	-0.1301185429	 0.416569
C	 2.7102124775	-1.5304313422	-0.1713559952	-0.422356
C	 0.796281503	-3.1507034138	-0.4536150381	-0.436605
O	 0.5647492814	-0.7575210801	-1.045794879	-0.368879
H	 1.1298812506	 1.8365802417	-0.2566568061	 0.124889
H	-0.5417320869	 1.8412660796	-0.8431469573	 0.130794
H	-0.2207405542	 1.9520853945	 0.8947671221	 0.120646
H	-1.4404805812	-0.2929104538	 1.6387138215	 0.109111
H	-1.5295048802	-1.565828183	 0.3280251047	 0.110529
H	 1.0237932503	-0.8816360292	 2.0389619126	 0.089786
H	 3.2001542992	-2.1661421313	 0.5748272835	 0.110647
H	 3.099021264	-1.7971171208	-1.1589636844	 0.12121
H	 2.9752187688	-0.4899832112	 0.0345124448	 0.117922
H	-0.2854679993	-3.2883896246	-0.3957312585	 0.118653
H	 1.1178189631	-3.4107483869	-1.4675089926	 0.123062
H	 1.2717617962	-3.8488209475	 0.2434116634	 0.114546
143.8773	189.8594	195.5011	214.9072	240.4293	322.4363	332.8811	361.0791	400.9539	480.1958	505.3984	604.9349	679.7366	817.7141	832.0349	848.2686	919.6287	932.0067	963.5847	966.2387	984.4725	1000.9786	1008.0341	1062.362	1087.3395	1116.6289	1145.8779	1200.4958	1245.4915	1253.4492	1324.6794	1380.1814	1400.058	1412.5468	1426.7576	1472.6644	1473.6413	1478.6283	1491.8751	1495.9917	1501.3289	1504.5969	3031.1399	3032.3079	3039.5902	3093.5964	3100.3055	3107.3695	3113.7763	3115.6381	3118.7037	3125.1273	3186.315	3203.3211
CC12CC1C(C)(C)O2	C[C@]12C[C@H]1C(C)(C)O2	
InChI=1S/C7H12O/c1-6(2)5-4-7(5,3)8-6/h5H,4H2,1-3H3	InChI=1S/C7H12O/c1-6(2)5-4-7(5,3)8-6/h5H,4H2,1-3H3/t5-,7-/m0/s1
