18
gdb 105772	2.20649	1.46871	1.18895	5.2978	71.7	-0.2758	0.0198	0.2956	1123.4617	0.148094	-439.099442	-439.090632	-439.089688	-439.133905	32.184	
O	 0.1650440248	 1.2376517579	 0.2945114236	-0.411624
C	 0.014229038	-0.1361505035	 0.0549158525	-0.08999
C	-1.461948125	-0.5317723912	-0.1188494466	 0.198896
C	-1.6842528044	-2.0752443679	-0.1688213522	-0.301519
C	-2.4435431822	-2.3739352095	 1.1400014314	-0.213795
C	-3.1099704321	-1.0317660651	 1.4415807452	-0.086672
O	-2.1411477199	-0.058634321	 1.0492147337	-0.28706
C	-2.0414351796	 0.1264045986	-1.3105732239	 0.27996
N	-2.5077323829	 0.6103597977	-2.2505258281	-0.341066
H	-0.4235364561	 1.4568221235	 1.0271802857	 0.298738
H	 0.5736549163	-0.373834595	-0.8549971081	 0.126732
H	 0.4130614031	-0.7506922199	 0.878476062	 0.092448
H	-2.2769450321	-2.3470522192	-1.0438065436	 0.137755
H	-0.7302368843	-2.6038340421	-0.2349195421	 0.124846
H	-3.1586884587	-3.1924233991	 1.0329589759	 0.117527
H	-1.7460971627	-2.6317579904	 1.9421792972	 0.117914
H	-4.0359372062	-0.9032211632	 0.8623988333	 0.114817
H	-3.3313961061	-0.8648160107	 2.4979476442	 0.122093
28.1487	112.4686	157.7963	180.3394	233.4722	262.1048	377.924	420.3848	453.7299	505.9921	583.1746	602.9553	678.5611	753.309	840.5895	883.2764	900.7676	932.2383	996.5127	1018.3821	1058.5829	1081.3094	1091.5365	1137.9618	1174.375	1210.2361	1234.2534	1257.2592	1276.5491	1324.6226	1338.388	1383.3853	1384.2733	1431.0278	1486.1906	1491.7229	1499.5226	1519.8634	2353.9579	2974.1835	3004.3961	3062.5914	3075.8677	3088.6024	3107.4712	3113.6946	3130.1087	3791.5024
OCC1(CCCO1)C#N	OC[C@]1(CCCO1)C#N	
InChI=1S/C6H9NO2/c7-4-6(5-8)2-1-3-9-6/h8H,1-3,5H2	InChI=1S/C6H9NO2/c7-4-6(5-8)2-1-3-9-6/h8H,1-3,5H2/t6-/m0/s1
