20
gdb 107581	2.63437	1.52274	1.11425	3.0716	78.82	-0.2278	-0.0146	0.2133	1151.2299	0.171671	-403.166053	-403.157431	-403.156487	-403.199257	32.98	
C	-0.4667652361	 1.5054372141	-0.2456896177	-0.382667
C	 0.0316871244	 0.0843207758	 0.0530163994	-0.299297
C	 0.8777315602	-0.4909981499	-1.0542071422	 0.225455
N	 0.2604418879	-0.9255926706	-2.3516471906	-0.370288
C	 0.9022404313	-1.9214500713	-1.4846812773	-0.094746
C	 2.2903654469	-2.306420908	-1.9799111652	-0.220422
C	 3.0002279319	-0.9540643809	-2.2139791975	-0.328959
C	 2.267725486	 0.0416916396	-1.3076412602	 0.400926
O	 2.7385391473	 1.03503601	-0.8097004343	-0.330004
H	 0.3793454906	 2.1820999141	-0.3832151444	 0.151751
H	-1.0745818342	 1.5297706941	-1.1563401923	 0.113097
H	-1.0806058512	 1.8812405932	 0.5781988054	 0.111289
H	 0.6246209554	 0.0939898411	 0.9750110786	 0.1157
H	-0.8191053976	-0.5855182413	 0.2345581208	 0.090643
H	-0.7478136194	-0.9564467339	-2.2064394877	 0.234251
H	 0.2827978992	-2.6557063279	-0.9782767531	 0.092531
H	 2.8063007716	-2.8829295994	-1.2043513512	 0.108741
H	 2.2439769985	-2.9246511499	-2.8811528335	 0.111677
H	 4.0679387862	-0.9608565815	-1.9895185863	 0.124204
H	 2.876358831	-0.6175465174	-3.2484317008	 0.146117
92.7854	113.3011	166.7784	201.5385	244.8327	288.001	359.813	434.3873	487.3063	514.6205	629.399	649.0413	683.4741	767.5078	817.3958	837.351	863.1208	896.4333	953.7031	985.1024	1003.8324	1033.6039	1067.659	1083.6674	1113.0157	1121.35	1160.6949	1179.4014	1238.2938	1263.2386	1282.9464	1300.4562	1342.1979	1364.7707	1384.119	1408.1261	1435.5592	1450.1278	1475.0865	1489.2231	1495.7827	1513.4325	1831.7437	3019.5445	3041.3154	3046.9989	3063.2039	3064.6767	3091.5353	3106.2183	3127.7309	3135.9811	3157.6959	3475.727
CCC12NC1CCC2=O	CC[C@]12N[C@H]1CCC2=O	
InChI=1S/C7H11NO/c1-2-7-5(8-7)3-4-6(7)9/h5,8H,2-4H2,1H3	InChI=1S/C7H11NO/c1-2-7-5(8-7)3-4-6(7)9/h5,8H,2-4H2,1H3/t5-,7-/m0/s1
