20
gdb 120015	2.40255	1.1887	0.87873	1.8461	77.65	-0.2515	0.0186	0.2701	1381.581	0.169191	-440.283122	-440.273309	-440.272365	-440.318551	34.979	
C	-0.0223144176	 1.4681169241	 0.0841238292	-0.388103
C	 0.2419790224	-0.0256958374	 0.1294247912	-0.049748
O	 0.3103839537	-0.5042363972	-1.2140040679	-0.253122
C	 0.5536089711	-1.8732973652	-1.3052679539	-0.012921
C	 0.749688886	-2.3942375679	-2.7516802251	 0.093535
C	 0.7934661752	-1.3764106934	-3.867132312	-0.393238
O	 2.0941706628	-2.8749437083	-2.3804920904	-0.267091
C	 1.9883448331	-2.3574290753	-1.1100907206	 0.414731
N	 2.8160140109	-2.3102689716	-0.1681755985	-0.550809
H	 0.7881857835	 1.9859117777	-0.4364167407	 0.129321
H	-0.9588575985	 1.6804530461	-0.4396004809	 0.124034
H	-0.0930262427	 1.8689250062	 1.099554715	 0.119346
H	 1.1813435081	-0.2488468812	 0.6506151329	 0.134223
H	-0.5675819466	-0.5512829862	 0.662307515	 0.088197
H	-0.1726098471	-2.4526178473	-0.7155133714	 0.09194
H	 0.1232605359	-3.2536874579	-3.0068689279	 0.094777
H	 1.4044869082	-0.5166580565	-3.5859573909	 0.139665
H	 1.2048179347	-1.830490504	-4.7731228163	 0.127489
H	-0.2179474381	-1.0202270795	-4.0852603284	 0.130187
H	 3.7102420251	-2.7274846352	-0.4352033783	 0.227588
64.6542	83.5269	98.2289	128.0438	200.6268	225.1679	257.7828	283.3946	377.8109	396.8589	449.9726	535.7881	682.4178	741.6025	821.9258	844.4871	869.5717	891.1399	897.0652	935.9455	1023.0604	1036.972	1068.5462	1074.5159	1132.5706	1168.925	1188.2305	1194.3379	1242.7006	1252.5695	1300.3534	1334.274	1369.894	1379.4571	1403.7167	1412.3891	1443.3226	1483.5727	1484.1989	1488.8958	1500.9609	1529.9103	1817.3739	2972.0402	2993.3108	3045.2841	3049.3759	3049.5034	3071.8391	3119.2095	3120.5734	3122.2943	3142.6693	3463.509
CCOC1C(C)OC1=N	CCO[C@H]1[C@@H](C)O[C]1[NH]	
InChI=1S/C6H11NO2/c1-3-8-5-4(2)9-6(5)7/h4-5,7H,3H2,1-2H3	InChI=1S/C6H11NO2/c1-3-8-5-4(2)9-6(5)7/h4-5,7H,3H2,1-2H3/t4-,5+/m1/s1
