20
gdb 105811	2.56324	1.45848	1.25738	1.5563	78.74	-0.213	0.0498	0.2628	1121.7949	0.168692	-403.046042	-403.03712	-403.036176	-403.079536	33.917	
C	 0.6865736913	 1.5205028608	 0.5995325145	-0.379339
C	 0.1541057812	 0.1341855274	 0.2101928789	-0.285701
C	 0.6576909667	-0.316869698	-1.131761135	 0.309843
C	 0.0376265726	 0.2106844327	-2.4987727124	-0.049424
O	 0.9592002458	-0.0244846455	-3.5685070613	-0.235011
C	 0.1630363192	-1.1142531197	-3.0908131421	-0.001082
C	 0.8012008373	-1.6809743454	-1.7628899217	-0.180743
N	 1.9366788949	-0.9402933454	-1.2936461714	-0.106691
C	 3.1110954931	-0.4887786371	-2.044458218	-0.300322
H	 1.7791381029	 1.5113502395	 0.6622332447	 0.127287
H	 0.4007355712	 2.2794997834	-0.1368819711	 0.115789
H	 0.2937227219	 1.8346011328	 1.5711739744	 0.113512
H	 0.4559280818	-0.6062890687	 0.958284124	 0.111058
H	-0.9439051937	 0.1480691604	 0.1974888549	 0.095659
H	-0.7114225076	 0.9830439472	-2.6287715176	 0.106538
H	-0.4622193592	-1.6414880402	-3.8009648211	 0.109388
H	 0.5819107232	-2.6666110823	-1.3636390311	 0.093421
H	 3.052147908	 0.5745774225	-2.2875829514	 0.125042
H	 4.0020270354	-0.6587722694	-1.4277019042	 0.104609
H	 3.225185334	-1.0401037751	-2.980156853	 0.126167
77.4334	132.7698	150.3201	199.6881	238.0118	267.8459	305.9259	358.2042	417.4905	520.7402	614.0153	690.9492	739.3303	765.9338	783.4582	825.4098	858.0556	875.5569	900.9584	955.4163	969.0824	973.9519	1013.9963	1036.9331	1099.2766	1132.409	1147.1747	1170.78	1182.3211	1217.558	1246.7546	1249.5419	1305.4905	1346.1755	1373.1327	1407.1472	1435.0441	1465.0916	1473.7727	1491.923	1498.2602	1507.4277	1508.198	3020.5131	3021.459	3034.8364	3072.5395	3091.0624	3103.7373	3111.6197	3128.2955	3154.1147	3181.237	3198.7602
CCC12C3OC3C1N2C	CC[C@]12[C@H]3O[C@H]3[C@H]1N2C	
InChI=1S/C7H11NO/c1-3-7-5(8(7)2)4-6(7)9-4/h4-6H,3H2,1-2H3	InChI=1S/C7H11NO/c1-3-7-5(8(7)2)4-6(7)9-4/h4-6H,3H2,1-2H3/t4-,5+,6-,7+,8?/m0/s1
