15
gdb 26521	4.01536	1.48021	1.23446	3.1375	71.47	-0.2208	0.0057	0.2264	976.5249	0.114632	-416.764546	-416.757845	-416.756901	-416.795503	26.727	
O	 0.0090312475	 1.465867615	-0.083241414	-0.442804
C	-0.0040029622	 0.1021942471	 0.0274941345	 0.297938
C	-0.1945297936	-0.7586181701	-1.1951663547	-0.305925
C	-1.1566336872	-0.9212637486	-0.0313592731	-0.124839
N	-0.4887932172	-1.6367487356	 1.0727963514	 0.007154
C	-0.0919347543	-2.8121511393	 1.636194718	-0.022553
N	 1.1143087735	-2.6828326614	 2.1599228765	-0.257859
C	 1.5750608756	-1.4255730742	 1.8106826736	-0.19339
C	 0.5769827073	-0.7600865153	 1.1436420441	 0.101402
H	-0.2444889103	 1.8406917494	 0.7687390342	 0.295631
H	-0.6158780145	-0.2295589577	-2.0468113133	 0.133411
H	 0.5078034735	-1.5491236537	-1.4414936644	 0.136298
H	-2.229729566	-0.8010604233	-0.0732984527	 0.126965
H	-0.7217924223	-3.6845041034	 1.72080456	 0.134629
H	 2.5581752401	-1.092549149	 2.10376672	 0.113939
129.2211	217.9996	272.5523	386.3228	410.1695	469.4456	513.7877	614.5832	659.4482	708.1662	740.4103	811.6965	834.7009	847.4993	883.8072	912.5495	961.3846	978.1417	1032.7673	1044.4759	1098.8872	1112.7187	1174.6273	1206.8045	1232.2776	1254.7458	1312.0629	1339.2159	1394.4313	1418.0511	1456.7479	1484.3719	1556.4804	3114.6003	3207.1639	3223.0107	3255.7795	3259.9379	3786.7892
OC12CC1N1C=NC=C21	O[C@]12C[C@H]1n1cncc21	
InChI=1S/C6H6N2O/c9-6-1-4(6)8-3-7-2-5(6)8/h2-4,9H,1H2	InChI=1S/C6H6N2O/c9-6-1-4(6)8-3-7-2-5(6)8/h2-4,9H,1H2/t4-,6-/m1/s1
