17
gdb 123794	5.36445	0.98728	0.86455	4.1995	74.42	-0.2153	0.0358	0.2511	1308.8072	0.139182	-414.195148	-414.187356	-414.186411	-414.22816	29.185	
C	-0.4308748587	 1.0023699588	-0.317458233	-0.264773
C	 0.9776644445	 1.1334744211	 0.2021607056	-0.281306
C	 0.3575548057	-0.2287165511	 0.0784166958	 0.009342
N	-0.004875598	-0.8986541826	 1.2909198388	-0.38478
C	-1.024514627	-1.8191558161	 1.2943228203	 0.470849
N	-1.2073084669	-2.7650020389	 2.2015300687	-0.360815
C	-2.3650258931	-3.3535404448	 1.7811730102	 0.034002
N	-2.9062431271	-2.8540740679	 0.6892578454	-0.229759
N	-2.01882873	-1.8551982342	 0.3792051956	-0.259303
H	-1.2339013155	 1.3063883661	 0.3436996469	 0.133883
H	-0.6111303661	 1.1745148195	-1.3727136216	 0.12221
H	 1.7663835561	 1.3949765771	-0.4931852104	 0.124865
H	 1.1019894424	 1.5266994272	 1.2043251836	 0.129823
H	 0.7134522791	-0.8611983007	-0.7360479001	 0.100678
H	 0.7543944148	-1.1699089923	 1.8997454691	 0.258446
H	-2.8168112369	-4.1838936774	 2.3037449069	 0.119497
H	-2.1737009134	-1.2628265639	-0.4175609419	 0.27714
73.8978	84.0934	131.2016	293.2311	340.1746	367.7249	471.6136	494.1406	576.5736	681.3152	756.3838	762.1964	783.1681	840.9346	854.795	911.3133	966.3114	977.6678	1016.0759	1053.7813	1061.5492	1086.3148	1100.7168	1134.7556	1193.708	1198.9996	1224.4372	1248.2769	1299.1754	1318.4717	1360.1575	1405.667	1458.332	1486.2147	1500.1359	1557.3519	1638.0563	3085.8921	3140.7278	3147.6074	3227.0761	3240.6897	3255.8714	3599.0863	3687.8521
C1CC1NC1=NC=NN1	C1CC1Nc1ncn[nH]1	
InChI=1S/C5H8N4/c1-2-4(1)8-5-6-3-7-9-5/h3-4H,1-2H2,(H2,6,7,8,9)	InChI=1S/C5H8N4/c1-2-4(1)8-5-6-3-7-9-5/h3-4H,1-2H2,(H2,6,7,8,9)
