21
gdb 102558	2.02482	1.32655	0.98424	1.5458	74.19	-0.2489	0.0567	0.3056	1286.1043	0.180826	-461.331254	-461.321075	-461.320131	-461.366289	37.961	
O	-0.1072720045	 1.3674545123	 0.0347776638	-0.429299
C	-0.1305338647	-0.0338424356	 0.2813950729	-0.08739
C	-1.5212409311	-0.555167585	-0.0821050089	-0.097323
C	-1.8576233554	-0.166878639	-1.5408844931	-0.086517
O	-2.8143893563	-1.0323379724	-2.1561273841	-0.429009
C	-1.6079156695	-2.0662582166	 0.1069873259	 0.454935
O	-0.9600546551	-2.8053507823	-0.8941827239	-0.486471
C	-1.5323822968	-2.6697356086	 1.476648043	-0.321135
C	-2.8450966129	-2.6850658872	 0.7175241582	-0.340306
H	 0.7898523121	 1.6832667257	 0.1748201174	 0.288206
H	 0.6153672662	-0.5641902402	-0.3296539815	 0.103749
H	 0.0856551673	-0.2543130818	 1.3372429376	 0.089754
H	-2.245504081	-0.0791163701	 0.5923469377	 0.072817
H	-2.1812293398	 0.8784484719	-1.5894150325	 0.116835
H	-0.9598035225	-0.2571352815	-2.1588930161	 0.118856
H	-3.614624119	-1.0256194117	-1.6212707341	 0.289051
H	-1.4974835895	-2.6726909467	-1.6887720805	 0.289613
H	-0.9945810743	-3.6066208592	 1.5613147325	 0.12462
H	-1.4421313976	-2.0119876829	 2.3343317955	 0.111322
H	-3.6459850522	-2.0405081272	 1.0666814266	 0.101245
H	-3.1661673733	-3.634344592	 0.3037085236	 0.116447
72.3792	110.9848	114.3486	167.8631	196.8187	258.0844	282.9062	313.1433	321.6813	334.9838	420.2943	472.2596	511.0882	559.9078	631.5728	753.7791	779.4314	869.3566	894.922	926.6604	936.5695	989.0717	998.7645	1035.2308	1048.8863	1069.0821	1078.0905	1083.8544	1104.2634	1192.5912	1197.3032	1223.9281	1264.0095	1278.0152	1298.0309	1327.2259	1356.6871	1379.9293	1410.7085	1426.2245	1450.1067	1454.6425	1498.4793	1503.8987	1526.0951	2981.8599	3008.7159	3027.6775	3045.0687	3096.4524	3124.3296	3137.658	3213.6877	3231.0321	3729.8723	3819.7192	3833.4154
OCC(CO)C1(O)CC1	OCC(CO)C1(O)CC1	
InChI=1S/C6H12O3/c7-3-5(4-8)6(9)1-2-6/h5,7-9H,1-4H2	InChI=1S/C6H12O3/c7-3-5(4-8)6(9)1-2-6/h5,7-9H,1-4H2
