16
gdb 7574	3.02646	2.12602	1.54075	5.1344	60.52	-0.2436	0.0161	0.2597	840.7866	0.132183	-417.063636	-417.056215	-417.055271	-417.095137	28.278	
N	 0.0757196022	 1.5828038229	-0.4244942237	-0.5909
C	-0.0842079306	 0.2173723439	-0.024653151	 0.160708
C	 0.1446639492	-0.2348317503	 1.4618260083	-0.221886
N	-0.9900632514	-1.1759726196	 1.2880886631	-0.344748
H	-0.034678498	-2.1422829851	 0.014203809	 0.315894
H	-1.5849338195	-1.3312586546	 2.0942742914	 0.23516
C	-1.5365842989	-0.3252533704	 0.197403325	-0.197744
C	 0.7068929719	-0.7032415301	-0.9750904268	 0.434959
O	 1.4226326327	-0.2713482844	-1.8419346594	-0.348144
O	 0.5575944945	-2.0167991274	-0.7662142582	-0.384035
H	 0.2283105523	 2.1992795235	 0.3634874755	 0.227138
H	 0.8583094186	 1.6519423587	-1.0686168003	 0.252244
H	 1.0971128103	-0.6983554198	 1.7355019332	 0.124381
H	-0.0713788383	 0.5963844508	 2.148226779	 0.103069
H	-2.1846113618	 0.4886535783	 0.5451834733	 0.110408
H	-2.0275635132	-0.8705111863	-0.6134590583	 0.123498
100.0551	191.8126	250.1821	257.696	315.0692	387.0157	393.5502	471.1444	568.3857	673.8844	740.6826	749.0772	816.0738	850.7654	899.0282	944.3618	968.5267	987.9481	1021.1503	1030.271	1094.4302	1110.6303	1198.6785	1220.9304	1239.3851	1284.2668	1349.1051	1351.6007	1375.683	1466.1849	1500.4639	1530.1813	1632.4938	1852.5681	2999.8314	3027.0172	3084.5606	3095.831	3349.5214	3503.611	3534.6608	3603.1708
NC1(C[NH2+]C1)C([O-])=O	NC1(CNC1)C(=O)O	
InChI=1S/C4H8N2O2/c5-4(3(7)8)1-6-2-4/h6H,1-2,5H2,(H,7,8)	InChI=1S/C4H8N2O2/c5-4(3(7)8)1-6-2-4/h6H,1-2,5H2,(H,7,8)
