20
gdb 105001	1.88743	1.67984	1.03608	3.3006	78.89	-0.2536	0.0292	0.2828	1207.6678	0.171354	-399.3109	-399.301159	-399.300215	-399.345569	36.094	
C	-0.2522911366	 0.607597023	 0.8364338716	-0.392853
C	 0.4343149965	-0.6310125206	 0.2393342915	-0.288679
C	 0.6308614977	-0.6217830092	-1.2752595087	 0.333361
C	 0.1300662271	-1.7803326892	-2.0623528703	-0.277472
N	-0.5360801071	-0.4656882391	-2.1535607332	-0.351332
C	 1.892822681	 0.0863278145	-1.8028542188	-0.171858
N	 1.9580833116	 0.010599795	-3.2603342748	-0.512429
C	 1.9907218474	 1.4855889559	-1.3214289974	 0.27446
N	 2.1109575905	 2.5926035664	-1.0078893506	-0.341114
H	 0.331428237	 1.5174920037	 0.6905259194	 0.161967
H	-1.2396456512	 0.7694410281	 0.3904805131	 0.112761
H	-0.3989908916	 0.4674230551	 1.9116239024	 0.11705
H	 1.4108453507	-0.7763980122	 0.7189807862	 0.109094
H	-0.158169527	-1.5166016754	 0.4967907489	 0.103109
H	 0.6437561811	-2.0857393242	-2.9663861166	 0.1422
H	-0.365173609	-2.5750039494	-1.5109056198	 0.111915
H	-1.3928174966	-0.4513572684	-1.6068465233	 0.236186
H	 2.7595631218	-0.4465681938	-1.3899143986	 0.130986
H	 1.1012158647	 0.4087672602	-3.6373055207	 0.258526
H	 2.7386860221	 0.5578675398	-3.6067905803	 0.244122
51.4915	96.6997	147.2511	211.7557	232.3139	254.7481	287.9015	315.6343	359.8544	366.7887	415.7493	512.2602	541.0177	614.0154	741.7998	779.2085	836.3101	888.3891	906.5666	916.7515	969.2065	989.0793	1005.9276	1039.6453	1091.5744	1117.3173	1125.124	1152.7158	1194.7941	1257.025	1267.625	1314.8505	1333.3116	1368.5685	1382.6876	1406.3311	1422.4106	1480.1696	1500.141	1501.1177	1511.9128	1639.2743	2338.2405	3022.9287	3028.2837	3043.3464	3060.6582	3103.0217	3118.0502	3147.5203	3218.6236	3493.5147	3509.2461	3584.8111
CCC1(CN1)C(N)C#N	CC[C@]1(CN1)[C@@H](N)C#N	
InChI=1S/C6H11N3/c1-2-6(4-9-6)5(8)3-7/h5,9H,2,4,8H2,1H3	InChI=1S/C6H11N3/c1-2-6(4-9-6)5(8)3-7/h5,9H,2,4,8H2,1H3/t5-,6-/m0/s1
