13
gdb 128976	4.14826	1.72296	1.21734	3.7225	72.73	-0.2414	-0.0655	0.1759	913.6341	0.095075	-411.8384	-411.832745	-411.831801	-411.868379	22.561	
N	 0.0197850249	 1.2736643485	 0.0092443195	-0.153781
C	 1.2607650738	 1.8106597702	 0.0001696709	-0.151505
C	 2.1226997053	 0.7134043465	-0.0145005413	 0.253792
N	 3.4751961746	 0.6117387745	-0.0283064455	-0.333567
C	 3.9090093068	-0.6269591375	-0.0395938092	 0.047356
N	 3.1790967838	-1.7870650544	-0.0390493978	-0.259915
C	 1.8696934365	-1.6914365443	-0.025696992	-0.044703
C	 1.2537015603	-0.4208357378	-0.0124504168	 0.271451
N	-0.0439674136	-0.0651466289	 0.0022657007	-0.324248
H	-0.8488418876	 1.7862371617	 0.0206510141	 0.290156
H	 1.4310274508	 2.8742414135	 0.0045484657	 0.156219
H	 4.9864653164	-0.7692930029	-0.0509396062	 0.117831
H	 1.2848261781	-2.6094032992	-0.0251963121	 0.130913
227.0009	245.5822	437.3137	449.1944	568.4354	612.4046	644.4479	645.9305	711.6213	752.1591	790.9641	840.6001	920.1899	949.5039	950.2109	1006.4931	1072.39	1105.3217	1197.9014	1247.9641	1319.8189	1326.7657	1376.8675	1421.7702	1429.5294	1497.587	1531.0761	1565.1995	1642.2686	3150.225	3171.4243	3280.5215	3644.2669
N1C=C2N=CN=CC2=N1	[nH]1cc2ncncc2n1	
InChI=1S/C5H4N4/c1-5-4(2-8-9-5)7-3-6-1/h1-3H,(H,8,9)	InChI=1S/C5H4N4/c1-5-4(2-8-9-5)7-3-6-1/h1-3H,(H,8,9)
