17
gdb 24133	5.11259	1.00414	0.88542	2.1648	74.88	-0.2385	0.0014	0.2399	1296.045	0.137447	-418.0009	-417.993179	-417.992235	-418.034384	28.348	
C	-0.0183155943	 1.4581873709	-0.3891476347	-0.268694
N	-0.0662272817	 0.0113588048	-0.184268967	-0.066742
C	-0.2770473761	-0.4376571105	 1.1895003541	-0.210794
C	-1.3711188774	-0.5301144122	 0.1849842756	-0.220737
C	 1.3684756282	 1.9858459695	-0.2331837611	 0.410853
N	 2.1233951486	 2.5428283302	-1.1264408563	-0.300296
C	 3.2979035649	 2.850207264	-0.4501974731	-0.114095
C	 3.1834215044	 2.4528622604	 0.8371050962	-0.039979
O	 1.9446077086	 1.8982980714	 0.995427907	-0.169571
H	-0.3326816389	 1.6812112768	-1.4115872105	 0.141433
H	-0.6938123882	 1.9974914872	 0.3005458768	 0.100023
H	 0.2808614181	-1.3213182634	 1.4840075939	 0.121075
H	-0.3728207726	 0.3196235237	 1.9650825383	 0.116202
H	-2.2022867953	 0.1658924175	 0.2894376356	 0.110605
H	-1.6293655601	-1.4814709941	-0.2703581271	 0.121658
H	 4.1290828561	 3.3297544627	-0.9418841761	 0.12466
H	 3.8159510259	 2.4775463912	 1.7074516585	 0.144399
43.8144	81.451	119.9861	302.0168	311.0049	356.512	433.4392	631.6086	690.6611	762.9284	768.7925	792.2952	838.2194	864.6738	911.0057	933.3681	940.0699	998.5347	1028.983	1044.6121	1110.2515	1115.0854	1120.9205	1141.2949	1164.7423	1171.4223	1180.6588	1243.5189	1289.1068	1317.9445	1368.622	1397.8931	1476.6809	1494.8935	1522.8106	1554.3459	1623.4427	2931.7448	3096.2922	3104.7702	3106.1664	3182.4216	3197.3603	3265.0095	3300.7458
C(N1CC1)C1=NC=CO1	C(N1CC1)c1ncco1	
InChI=1S/C6H8N2O/c1-4-9-6(7-1)5-8-2-3-8/h1,4H,2-3,5H2	InChI=1S/C6H8N2O/c1-4-9-6(7-1)5-8-2-3-8/h1,4H,2-3,5H2
