17
gdb 128121	2.91041	1.19543	0.86677	5.3261	72.98	-0.1958	0.0092	0.205	1304.1912	0.13689	-451.307121	-451.297964	-451.29702	-451.341968	32.162	
C	 0.1148500837	 1.5031737333	 0.0763722287	-0.316385
N	-0.1440213543	 0.0672255437	 0.0652095021	-0.391706
C	 0.4890318008	-0.7017938701	 1.0337910754	 0.269975
C	 0.5970320744	-2.079214359	 1.1227642781	 0.265246
C	 0.129744219	-3.2178105013	 0.2846931382	-0.205557
O	 0.9640825146	-4.3349248079	 0.5712881995	-0.423906
N	 1.2435147702	-2.2586217633	 2.3044517447	-0.209631
N	 1.5339908022	-1.1035388985	 2.9038634	-0.132312
N	 1.0711446694	-0.1482138266	 2.1338832293	-0.27229
H	 1.1759203523	 1.7602831956	-0.054112079	 0.118139
H	-0.4671158176	 1.966524334	-0.724098032	 0.113078
H	-0.2091413267	 1.9202787008	 1.0317919895	 0.154328
H	-0.0759497116	-0.3362520938	-0.8590472152	 0.230454
H	-0.9246887895	-3.4548855907	 0.5031153495	 0.116583
H	 0.1772920164	-2.9389334561	-0.7808556967	 0.102522
H	 0.5543347236	-5.1209921862	 0.1983837987	 0.296872
H	 1.5587369332	-3.1352122739	 2.6889435093	 0.28459
42.1791	87.8308	144.0339	172.8573	210.1101	250.0633	279.4139	314.6022	374.3655	525.6971	590.9549	597.788	680.428	710.6593	747.3753	791.0132	1011.6563	1032.1134	1056.2756	1080.7076	1118.2049	1135.1394	1157.2915	1207.6862	1216.2934	1229.2084	1277.1404	1350.8189	1367.868	1451.7616	1463.3373	1472.0457	1485.1781	1515.8788	1516.6556	1547.8663	1647.4155	2956.794	2974.3152	3001.005	3092.0967	3136.509	3572.8538	3660.1337	3834.2562
CNC1=C(CO)NN=N1	CNc1c(CO)[nH]nn1	
InChI=1S/C4H8N4O/c1-5-4-3(2-9)6-8-7-4/h9H,2H2,1H3,(H2,5,6,7,8)	InChI=1S/C4H8N4O/c1-5-4-3(2-9)6-8-7-4/h9H,2H2,1H3,(H2,5,6,7,8)
