15
gdb 30040	3.37665	1.63396	1.15919	3.3345	73.49	-0.2302	-0.0331	0.1971	994.2046	0.115753	-416.83648	-416.829652	-416.828708	-416.867746	26.622	
O	 0.1687940326	 1.4140640663	-0.1670717676	-0.411131
C	 0.0574359499	 0.0043648397	-0.0417814902	-0.066292
C	 0.6266601511	-0.56061394	 1.2644132028	-0.17072
C	-0.2959604841	-1.2837007426	 1.9059118136	-0.029352
N	-1.4933893853	-1.287889147	 1.1595770648	-0.022189
C	-2.7724060901	-1.7556342302	 1.1993803425	-0.004045
N	-3.454144208	-1.3491986158	 0.1484021706	-0.278321
C	-2.5777439692	-0.5880235491	-0.6032379573	-0.215181
C	-1.3536100083	-0.5373703085	 0.0070366552	 0.266221
H	-0.3909906263	 1.8081570636	 0.51186541	 0.282845
H	 0.6138304251	-0.3897338693	-0.900890797	 0.121115
H	 1.6365835362	-0.3721921206	 1.5980133198	 0.123089
H	-0.2411667294	-1.8174714116	 2.8434226724	 0.146103
H	-3.1451211906	-2.3824306914	 1.9951295235	 0.136933
H	-2.8910431737	-0.1288644637	-1.5280287431	 0.120924
136.4867	146.1383	279.1709	334.5332	363.5201	489.7139	565.4801	656.966	663.1025	694.0544	731.9636	776.188	802.9405	848.437	868.6334	913.1965	948.368	972.2979	1066.463	1087.8466	1121.5201	1188.7893	1231.9909	1243.2471	1259.4313	1288.4403	1318.3646	1379.1641	1419.8493	1432.1096	1490.2707	1588.6392	1654.6331	3040.1554	3237.6334	3254.4469	3257.6145	3260.6137	3797.4884
OC1C=CN2C=NC=C12	O[C@H]1C=Cn2cncc12	
InChI=1S/C6H6N2O/c9-6-1-2-8-4-7-3-5(6)8/h1-4,6,9H	InChI=1S/C6H6N2O/c9-6-1-2-8-4-7-3-5(6)8/h1-4,6,9H/t6-/m0/s1
