19
gdb 8408	3.59484	1.60171	1.39259	2.1521	71.67	-0.2387	0.0596	0.2983	975.3848	0.164326	-365.020132	-365.011725	-365.010781	-365.052646	31.373	
C	-0.0789703659	 1.5278760127	 0.034280004	-0.438154
C	-0.0511136933	 0.0135898785	 0.0575886584	 0.256656
C	-1.2700870276	-0.6608318069	-0.538019738	-0.461834
N	 1.2855486879	-0.5757210068	-0.2108807129	-0.413357
C	 0.7029281083	-0.6924555528	 1.1197746728	 0.250983
C	 1.3518427277	-0.1948934027	 2.4073519582	-0.134052
O	 0.9137884352	-1.3860480448	 3.1031088916	-0.276467
C	 0.3478861897	-1.954291248	 1.9045490786	-0.150375
H	 0.8477972157	 1.9407424068	 0.4391846661	 0.128429
H	-0.189464907	 1.8954788038	-0.9920361503	 0.119682
H	-0.9195331502	 1.9135375377	 0.6220227365	 0.115483
H	-1.3775880764	-0.3986991389	-1.5969124604	 0.124692
H	-1.2071006693	-1.7512069211	-0.4651887548	 0.114043
H	-2.185616488	-0.3435118486	-0.0263149287	 0.125922
H	 1.1950154113	-1.4569694119	-0.7141931777	 0.223233
H	 2.4452988573	-0.1148193266	 2.366463633	 0.109139
H	 0.933355213	 0.716822609	 2.8514197224	 0.102864
H	-0.7198779653	-2.1832387532	 2.0181437878	 0.103578
H	 0.877454237	-2.8651000962	 1.5895460735	 0.099534
100.4645	165.9008	183.0241	195.4288	214.9449	272.1738	357.0549	435.4346	454.2523	459.4818	557.3348	691.198	816.6881	878.21	944.674	954.7866	960.7661	981.4253	1004.3049	1026.8761	1027.8056	1073.2192	1121.7279	1146.8355	1151.1809	1162.1782	1189.2805	1256.7665	1302.277	1321.1253	1357.6566	1410.7781	1422.6276	1468.8709	1477.4563	1488.9376	1499.0615	1505.0532	1522.9673	1530.3949	2990.8815	3014.8488	3025.1594	3032.1793	3037.5062	3059.544	3087.7979	3092.9507	3101.2581	3124.0385	3473.9106
CC1(C)NC11COC1	CC1(C)NC21COC2	
InChI=1S/C6H11NO/c1-5(2)6(7-5)3-8-4-6/h7H,3-4H2,1-2H3	InChI=1S/C6H11NO/c1-5(2)6(7-5)3-8-4-6/h7H,3-4H2,1-2H3
