14
gdb 133511	3.07332	1.10147	1.02137	2.9478	56.05	-0.2755	-0.0499	0.2256	1164.7346	0.096288	-568.192926	-568.184484	-568.18354	-568.227788	29.594	
F	 0.0474260318	 0.0891742294	-0.0478661245	-0.045488
C	-0.016105439	 1.406828359	 0.0473276172	 0.219747
F	 1.2331434728	 1.8987150362	 0.0834712074	-0.079327
F	-0.6104637562	 1.8920967744	-1.055024727	-0.079347
C	-0.7967919373	 1.8619055887	 1.3087508259	 0.243495
O	-1.2577839938	 1.0384203369	 2.0597910544	-0.310376
C	-0.9058038175	 3.3262460162	 1.4765177486	-0.115968
C	-2.1833634169	 3.8503767163	 2.1268075905	-0.250538
C	-0.92022093	 3.8549719388	 2.908260539	-0.250591
H	-0.4374172331	 3.9371254619	 0.7158034889	 0.114563
H	-2.571553046	 4.7862009123	 1.7427163917	 0.130453
H	-2.9245748822	 3.0985455439	 2.3719352914	 0.146464
H	-0.8046710739	 3.1063378016	 3.6834560443	 0.146472
H	-0.4081597688	 4.7940727044	 3.0811222623	 0.13044
31.228	49.64	158.9806	210.4299	276.1145	282.595	333.7415	418.3845	518.9165	571.592	695.6773	765.9286	768.1113	810.0013	824.0765	891.9341	896.0784	1034.18	1076.4098	1098.723	1117.3419	1119.2741	1174.1733	1210.7345	1212.0331	1243.8716	1309.7783	1422.2532	1457.86	1488.195	1824.3123	3145.2883	3146.7635	3200.0167	3233.14	3247.8426
FC(F)(F)C(=O)C1CC1	FC(F)(F)C(=O)C1CC1	
InChI=1S/C5H5F3O/c6-5(7,8)4(9)3-1-2-3/h3H,1-2H2	InChI=1S/C5H5F3O/c6-5(7,8)4(9)3-1-2-3/h3H,1-2H2
