16
gdb 109524	1.99457	1.47245	1.14178	4.5374	74.61	-0.278	-0.0252	0.2528	1142.4593	0.123344	-396.919782	-396.910719	-396.909775	-396.954032	31.926	
C	 0.2431386163	 1.5584104222	 0.0882698729	-0.386658
C	-0.2302077482	 0.1219334348	-0.1030384971	-0.14304
N	 0.5536102004	-0.5280310689	-1.1657069304	-0.089326
C	 1.8051724165	-1.1984367448	-0.8225890337	-0.167534
C	 2.2721676714	-1.2714528925	 0.5416685809	 0.315268
N	 2.6764481191	-1.2890093056	 1.6247392404	-0.324511
C	 0.5821597591	-1.9839248404	-1.2458431699	-0.171338
C	-0.1163861908	-2.8071757639	-0.2869361681	 0.313383
N	-0.7135533975	-3.4732646526	 0.4453111325	-0.321941
H	 1.2752642622	 1.5882299523	 0.4499720453	 0.136515
H	 0.1886774542	 2.1139481765	-0.8517531183	 0.132986
H	-0.3849940991	 2.061185447	 0.8286793984	 0.131258
H	-0.1802819455	-0.4290998609	 0.846178809	 0.137222
H	-1.2715845816	 0.0996810799	-0.4391014549	 0.127831
H	 2.6029232723	-1.0815954835	-1.5515072122	 0.154822
H	 0.5708663612	-2.3866959294	-2.2555531748	 0.155061
78.5363	96.6341	117.9569	155.391	227.9906	247.667	272.5114	361.9316	407.1261	467.3842	608.4784	638.7171	646.525	710.3304	815.3898	824.2778	854.1516	980.8093	1002.8125	1045.9584	1091.1514	1122.2851	1135.5355	1179.1034	1310.3762	1313.7065	1352.7411	1366.5204	1395.5428	1417.0264	1490.8927	1493.5168	1510.1395	2356.0946	2357.74	3016.7035	3047.6894	3080.9717	3121.953	3128.0016	3143.2834	3150.1753
CCN1C(C#N)C1C#N	CCN1[C@@H](C#N)[C@H]1C#N	
InChI=1S/C6H7N3/c1-2-9-5(3-7)6(9)4-8/h5-6H,2H2,1H3	InChI=1S/C6H7N3/c1-2-9-5(3-7)6(9)4-8/h5-6H,2H2,1H3/t5-,6+,9?
