17
gdb 15170	4.7639	1.01263	0.86823	2.1187	68.55	-0.2451	0.0219	0.267	1311.8343	0.140135	-400.958943	-400.949941	-400.948997	-400.994	30.132	
C	-0.3291170022	 1.1251596174	 0.4983736326	-0.25118
O	 0.5308875316	 0.0438509999	 0.1602521657	-0.193484
C	 0.6245242731	-0.9323590889	 1.0867327428	 0.134108
N	 1.3843433557	-1.9153066574	 0.8793823639	-0.247904
C	 1.4926533645	-2.9629513768	 1.8828739481	-0.153443
C	 0.3609759747	-3.0897669291	 2.8773878752	 0.060045
C	 0.5837134656	-3.5188916549	 4.2630851886	-0.178326
O	 0.3299392006	-2.1466872926	 3.9596231589	-0.236838
H	 0.025067023	 1.6578280334	 1.3891920153	 0.13021
H	-0.3157826145	 1.8061077107	-0.3534912743	 0.144399
H	-1.357968187	 0.7844447018	 0.6681941259	 0.125601
H	 0.0040131337	-0.7695402465	 1.9766475572	 0.107167
H	 1.5855762461	-3.9195306346	 1.3510954609	 0.113668
H	 2.4353236885	-2.8263105874	 2.4296758958	 0.115621
H	-0.6209972212	-3.2835130715	 2.4410076774	 0.096589
H	-0.2094044118	-4.0332468172	 4.8037067809	 0.116134
H	 1.5947394595	-3.7428176164	 4.6011122254	 0.117633
40.1462	80.9998	102.84	134.5231	151.8693	232.8797	296.422	362.8344	398.5906	495.5338	629.8354	785.8206	863.0506	943.9009	956.7587	1006.3123	1032.5271	1071.9551	1097.2115	1131.488	1157.8282	1173.7311	1177.7977	1181.032	1265.5271	1287.8521	1293.1006	1352.6435	1427.3229	1442.6875	1469.6048	1487.887	1494.6897	1501.2131	1528.998	1769.4761	3012.5116	3013.333	3041.7727	3050.1202	3076.6502	3083.1573	3094.4736	3143.4384	3169.6589
COC=NCC1CO1	COC=NC[C@H]1CO1	
InChI=1S/C5H9NO2/c1-7-4-6-2-5-3-8-5/h4-5H,2-3H2,1H3	InChI=1S/C5H9NO2/c1-7-4-6-2-5-3-8-5/h4-5H,2-3H2,1H3/t5-/m0/s1
