16
gdb 17066	3.99201	1.54767	1.31703	2.1711	61.59	-0.2373	0.0582	0.2955	954.6529	0.12876	-420.778479	-420.770784	-420.76984	-420.810674	28.263	
C	-0.2095616477	 1.3181892296	 0.0344446134	-0.242854
O	 0.3731051314	 0.0443523142	-0.1426788005	-0.247171
C	 0.8463792797	-0.5101142348	 1.0363943418	 0.186044
C	-0.1118697014	-1.3774175306	 1.9230883033	-0.029876
O	-0.1278070679	-2.4020253758	 0.857421724	-0.307178
C	 1.2863388068	-1.9843115156	 0.9454210423	-0.055931
C	 1.1243021492	-2.1001179662	 2.4989079287	 0.111321
O	 1.9346055728	-1.3879871426	 3.3897647352	-0.426431
H	 0.4963871902	 2.0271140917	 0.494253217	 0.106823
H	-0.4874547209	 1.6859194741	-0.9556635554	 0.131189
H	-1.1118037789	 1.2730190083	 0.6618785309	 0.109833
H	 1.5119118767	 0.1687818211	 1.5835325232	 0.086351
H	-1.057513424	-1.1319878298	 2.4058168055	 0.095638
H	 1.9960711456	-2.4554941919	 0.2651622256	 0.094108
H	 0.9032944919	-3.1242574357	 2.8140519103	 0.094775
H	 2.6992069367	-1.9304632661	 3.6064106047	 0.293357
79.3702	162.6528	168.2435	250.7663	285.0544	338.7132	366.257	446.2214	595.9212	645.2381	778.8092	823.0687	865.087	899.9663	905.0481	959.2649	1049.723	1061.3183	1111.7958	1128.7969	1152.2987	1169.1914	1181.8347	1194.6351	1214.2637	1226.2874	1253.0601	1271.6797	1304.5827	1403.9689	1428.8634	1484.1607	1490.2749	1508.5569	2978.7023	3028.3733	3039.6965	3073.2867	3120.4035	3121.61	3127.8772	3823.9972
COC1C2OC1C2O	CO[C@H]1[C@H]2O[C@@H]1[C@H]2O	
InChI=1S/C5H8O3/c1-7-5-3-2(6)4(5)8-3/h2-6H,1H3	InChI=1S/C5H8O3/c1-7-5-3-2(6)4(5)8-3/h2-6H,1H3/t2-,3-,4+,5-
