20
gdb 16839	3.30194	1.91417	1.46855	1.325	74.61	-0.2467	0.0906	0.3374	943.8685	0.177693	-349.012278	-349.004486	-349.003542	-349.043892	30.607	
C	 0.068209833	 1.5526699644	-0.072455505	-0.399781
C	 0.0647912629	 0.0365053857	 0.0444843186	 0.131056
O	 0.7639291386	-0.5096936123	-1.076434503	-0.28319
C	 1.2133829163	-1.8252555781	-0.7434615168	 0.131058
C	 2.3753921825	-2.1870587827	-1.6552054863	-0.399782
C	 1.5100567389	-1.7634707971	 0.7506516614	-0.056891
C	 2.2736356891	-0.5525151224	 1.2254340903	-0.296228
C	 0.7657934649	-0.5570749892	 1.2612269781	-0.05689
H	 1.088902737	 1.9424622096	-0.0256654288	 0.12074
H	-0.3776592137	 1.8626127482	-1.021826129	 0.123332
H	-0.5122833343	 1.9979560872	 0.7416175264	 0.111638
H	-0.979166944	-0.3246096036	 0.0404154356	 0.061967
H	 0.3918938855	-2.5469713887	-0.9001467519	 0.061967
H	 3.221974128	-1.5150499206	-1.4889410333	 0.12074
H	 2.7029997103	-3.2137693804	-1.4641411769	 0.111638
H	 2.0744699086	-2.1120159275	-2.7040064066	 0.123333
H	 1.5600579406	-2.6901939276	 1.3104661706	 0.083287
H	 2.7932957365	-0.6331618295	 2.1734776668	 0.107781
H	 2.772761457	 0.0675962281	 0.4877951566	 0.120941
H	 0.2457107822	-0.5597290237	 2.2121293331	 0.083287
131.342	194.2086	224.7675	230.1533	235.7104	362.2451	371.0805	500.8744	535.3025	611.6026	698.2007	765.1009	806.6574	838.9463	877.9673	916.0384	947.6982	978.6043	1000.4419	1043.3281	1068.9651	1079.1139	1097.2211	1114.7169	1128.6009	1131.1819	1142.6841	1186.7044	1196.8318	1323.5951	1335.3492	1344.8804	1375.6723	1383.2551	1405.3288	1406.562	1417.734	1479.1167	1486.3226	1487.9988	1495.0737	1498.3873	2936.8144	2942.2158	3042.1664	3042.4866	3114.3522	3114.6413	3121.0339	3121.3228	3132.5727	3173.6585	3182.2732	3219.011
CC1OC(C)C2CC12	C[C@H]1O[C@@H](C)[C@H]2C[C@@H]12	
InChI=1S/C7H12O/c1-4-6-3-7(6)5(2)8-4/h4-7H,3H2,1-2H3	InChI=1S/C7H12O/c1-4-6-3-7(6)5(2)8-4/h4-7H,3H2,1-2H3/t4-,5+,6+,7-
