15
gdb 47333	3.17083	1.18761	0.88721	2.5856	76.86	-0.2399	-0.099	0.141	1220.9534	0.11445	-416.841264	-416.833469	-416.832525	-416.874011	28.687	
O	 0.0053945819	-0.055401612	 0.0833586355	-0.310066
C	-0.0193398145	 1.1513287212	-0.0360835111	 0.375712
C	-1.317208202	 1.9568312043	-0.0804423871	-0.288514
N	-1.2211935033	 3.1962976127	-0.850028969	-0.289374
C	-0.1181001015	 4.0398699537	-0.4235603408	-0.265897
C	 1.1961976626	 3.289805818	-0.2311228831	 0.14447
C	 1.2283263305	 1.9500112587	-0.0990850954	-0.235218
C	 2.3896058489	 4.0716311333	-0.1811463058	 0.241415
N	 3.3281444595	 4.7501954596	-0.1504672186	-0.312895
H	-2.1123806996	 1.323393752	-0.4803012026	 0.141189
H	-1.5940352511	 2.2036595536	 0.9552594317	 0.138823
H	-1.1108796229	 2.9727668944	-1.8340822773	 0.232951
H	 0.0240757212	 4.8454601238	-1.1499792388	 0.143418
H	-0.377527326	 4.5285204572	 0.5278033372	 0.146993
H	 2.1597929964	 1.4054592794	 0.0139077853	 0.136994
91.7153	123.299	146.9642	262.9517	334.5173	401.1926	428.0464	482.3597	518.3273	570.3422	588.9433	643.1285	768.8925	850.5274	888.9779	906.8129	960.5371	970.2726	1080.7535	1126.4914	1166.6537	1200.4282	1253.5127	1307.3424	1325.5749	1334.8807	1379.4873	1452.3961	1468.5732	1499.8433	1658.4817	1784.4112	2330.8309	3004.0374	3010.988	3086.5187	3111.3316	3198.1282	3519.249
O=C1CNCC(=C1)C#N	O=C1CNCC(=C1)C#N	
InChI=1S/C6H6N2O/c7-2-5-1-6(9)4-8-3-5/h1,8H,3-4H2	InChI=1S/C6H6N2O/c7-2-5-1-6(9)4-8-3-5/h1,8H,3-4H2
