19
gdb 78209	2.32781	1.58033	1.43963	4.2397	76.91	-0.2401	0.0058	0.2459	1047.0046	0.157592	-419.166469	-419.157273	-419.156329	-419.19972	34.892	
C	 0.0281532377	 1.5548303744	 0.1088270378	-0.421298
C	 0.0708390032	 0.0618614952	-0.1212426834	-0.00574
C	 0.7115437205	-0.6460580361	-1.2460349262	-0.103968
N	 1.2669471561	-0.7850124083	 0.1899737441	-0.165493
C	 2.4183957133	-0.0201103702	-0.2330676724	 0.336561
N	 3.3612400345	 0.3899319586	 0.4886260222	-0.518333
C	 2.0377440554	-0.0250266418	-1.7210748118	 0.283365
C	 2.8803009017	-1.0112184989	-2.5295115302	-0.449845
O	 2.0377846028	 1.2580289306	-2.3081665128	-0.466526
H	 0.8694738126	 2.0779668791	-0.3433773977	 0.154724
H	-0.8934711197	 1.9594066804	-0.3228966218	 0.119346
H	 0.0175572629	 1.7646747054	 1.1831874007	 0.133155
H	-0.8152068381	-0.4516018937	 0.2487182858	 0.105597
H	 0.2483538869	-1.5031682528	-1.7255812812	 0.094875
H	 4.0470974784	 0.8912539412	-0.0804169683	 0.229426
H	 2.9228049947	-1.9903467482	-2.0456240239	 0.146463
H	 2.4487145185	-1.1474427981	-3.5294872995	 0.113258
H	 3.8992994348	-0.6302585039	-2.6406761218	 0.132476
H	 1.9145944136	 1.1621241571	-3.2589213297	 0.281955
114.7569	168.675	179.2504	187.3409	237.2949	247.6168	287.5658	299.3348	371.1396	404.9835	515.9456	606.6075	651.5983	669.0607	734.224	781.3946	840.1738	876.6623	909.6704	918.159	959.8733	971.4567	1034.8718	1062.7306	1093.2983	1120.5866	1147.2107	1166.5573	1216.0301	1247.5211	1298.3592	1331.2081	1388.5999	1405.9695	1418.5062	1434.7699	1487.1721	1490.5404	1491.8135	1501.4628	1801.7728	3023.6762	3044.4783	3098.3091	3102.6929	3121.7044	3128.593	3159.0161	3165.8138	3457.3183	3801.3419
CC1C2N1C(=N)C2(C)O	C[C@H]1[C@@H]2N1[C]([NH])[C@]2(C)O	
InChI=1S/C6H10N2O/c1-3-4-6(2,9)5(7)8(3)4/h3-4,7,9H,1-2H3	InChI=1S/C6H10N2O/c1-3-4-6(2,9)5(7)8(3)4/h3-4,7,9H,1-2H3/t3-,4-,6+,8?/m0/s1
