19
gdb 95711	3.07129	1.24816	0.94897	2.869	72.41	-0.2371	-0.0243	0.2128	1239.763	0.158538	-460.172087	-460.163337	-460.162393	-460.206049	32.571	
C	 0.4093709051	 1.6660197617	 0.0400692828	-0.405335
C	-0.0400116907	 0.2107100423	 0.0665448708	 0.117883
C	 0.0305083922	-0.4302161056	-1.3206717159	-0.075058
O	-0.4030825134	-1.7774641418	-1.3263931048	-0.248071
C	 0.5354706997	-2.7274159965	-0.8723495474	-0.182348
C	 0.5598705585	-2.9157558688	 0.6481263729	 0.347591
O	 0.7729359342	-3.9967405882	 1.1417231077	-0.288663
C	 0.3041573973	-1.6808370623	 1.5182448539	-0.179751
O	 0.805716557	-0.4760137064	 0.9846733205	-0.259495
H	 1.4507250017	 1.7389768549	-0.2887907015	 0.129101
H	-0.2124381669	 2.2529598229	-0.6425278727	 0.119683
H	 0.3372527237	 2.1017738449	 1.0392304077	 0.130418
H	-1.0812109119	 0.1446326945	 0.4218549253	 0.077216
H	-0.6316501362	 0.1067857943	-2.0085760595	 0.109424
H	 1.0609264998	-0.355555171	-1.7033617804	 0.096125
H	 0.2737115786	-3.6920876024	-1.3154550097	 0.136673
H	 1.5567080862	-2.4702538969	-1.1996958285	 0.119095
H	-0.7807389693	-1.6166874167	 1.7054890987	 0.119776
H	 0.7993911744	-1.8524412986	 2.4780007901	 0.135736
39.4352	115.7657	200.0982	217.7473	263.6694	315.9726	333.852	380.8279	454.1818	490.0754	499.4768	554.0312	603.4316	730.806	826.4882	901.0947	925.4042	947.5514	976.7402	1048.0942	1083.912	1144.376	1149.9157	1155.8523	1190.1783	1208.9618	1273.9699	1289.6552	1322.3884	1333.5037	1354.2876	1369.2042	1397.6249	1409.9718	1415.2756	1454.3455	1458.4239	1479.3298	1486.8032	1501.0219	1818.2345	2972.2168	2974.8451	2975.4327	2986.9881	3044.6576	3073.6198	3096.5136	3099.3827	3116.5398	3128.1644
CC1COCC(=O)CO1	C[C@H]1COCC(=O)CO1	
InChI=1S/C6H10O3/c1-5-2-8-3-6(7)4-9-5/h5H,2-4H2,1H3	InChI=1S/C6H10O3/c1-5-2-8-3-6(7)4-9-5/h5H,2-4H2,1H3/t5-/m0/s1
