18
gdb 70197	3.66294	1.33825	1.15667	4.6431	73.81	-0.2405	0.0458	0.2863	1097.2275	0.148192	-439.086858	-439.078829	-439.077885	-439.11941	30.991	
C	-0.3339393493	 1.5434691089	 0.0857393923	-0.476246
C	-0.0360849603	 0.0632292398	 0.022942471	 0.269528
C	-0.7219934285	-0.9130104176	 0.9662939823	-0.370658
C	 0.7491947854	-0.6191583799	 1.0957968871	 0.093487
O	 1.7338844606	-1.5631868395	 0.7348265871	-0.231545
C	 1.6032927998	-2.2834062079	-0.3993448812	 0.449185
N	 2.3173507727	-3.3100090192	-0.5625176999	-0.547938
O	 0.6666757437	-1.8656444578	-1.298591884	-0.263326
C	 0.3222558299	-0.4747042926	-1.344844913	-0.146269
H	 0.493909527	 2.1343953035	-0.3228552334	 0.126295
H	-1.2373333567	 1.7901952364	-0.4840978365	 0.126261
H	-0.4966928548	 1.8663939383	 1.1180857203	 0.125845
H	-1.3777521832	-0.5081641328	 1.7295712694	 0.120304
H	-1.0174548443	-1.8802081532	 0.5765863517	 0.142064
H	 1.10854388	-0.0671185201	 1.9557804847	 0.115087
H	 2.1423055308	-3.6978857292	-1.48705405	 0.226257
H	-0.5161171923	-0.4132535572	-2.0448474756	 0.125395
H	 1.1627459796	 0.0966257703	-1.7642903823	 0.116275
69.3745	190.573	203.6978	223.1358	295.519	343.0602	393.4783	450.5276	493.999	575.3312	681.5878	726.1556	755.4495	787.3248	829.1507	864.6772	907.6545	926.3069	959.1367	1007.4524	1047.0014	1052.647	1073.8338	1110.3483	1123.1615	1147.9526	1202.1336	1266.6722	1279.6879	1291.5587	1348.0474	1416.0025	1425.2825	1428.5066	1485.4862	1490.6599	1500.5519	1515.6223	1764.5658	3005.7423	3025.8648	3084.0663	3086.8851	3106.188	3139.11	3188.4652	3230.5461	3528.5845
CC12CC1OC(=N)OC2	C[C@]12C[C@H]1O[C]([NH])OC2	
InChI=1S/C6H9NO2/c1-6-2-4(6)9-5(7)8-3-6/h4,7H,2-3H2,1H3	InChI=1S/C6H9NO2/c1-6-2-4(6)9-5(7)8-3-6/h4,7H,2-3H2,1H3/t4-,6-/m1/s1
