19
gdb 23352	5.86181	0.77794	0.71082	0.8192	82.01	-0.222	0.005	0.2271	1569.8951	0.158111	-419.116908	-419.108047	-419.107103	-419.151002	33.097	
O	-0.2069800904	 1.3794538749	 0.0245410538	-0.39394
N	 0.0144588601	-0.0103372338	 0.0574216381	-0.229444
C	-1.0738807939	-0.6415357238	-0.0479431007	 0.406595
C	-2.5399990511	-0.321791089	-0.2370839742	-0.26342
N	-2.7548050627	-1.7655541995	-0.5320782051	-0.087905
C	-1.3779122653	-2.121208252	-0.0858424216	-0.257469
C	-3.8552580423	-2.4246000096	 0.0905105496	 0.062214
C	-5.172603551	-2.4407738093	-0.6399254393	-0.276183
C	-4.3542030974	-3.7039477625	-0.528835741	-0.276728
H	 0.6878009505	 1.7291535172	 0.0937126075	 0.307949
H	-3.0215449806	 0.0285358976	 0.6896612915	 0.112663
H	-2.8021981281	 0.3630036349	-1.0499368988	 0.128943
H	-0.8115739324	-2.7390799209	-0.7901897155	 0.124927
H	-1.340713368	-2.5912095695	 0.9096581299	 0.109425
H	-3.9052715477	-2.3611008333	 1.1840673223	 0.067092
H	-6.0824856151	-2.3575380286	-0.0564900024	 0.11229
H	-5.2005601979	-1.9499359545	-1.6055413581	 0.120525
H	-3.8434869379	-4.0456584474	-1.4214044006	 0.120222
H	-4.7000639688	-4.4913539407	 0.1311702446	 0.112243
59.8467	77.3532	155.1145	223.5891	234.93	295.4667	340.0854	373.928	459.6742	474.1724	544.2652	653.9582	760.7318	786.8256	831.416	900.0106	901.722	950.08	955.7105	980.3014	1052.9927	1060.8233	1070.1489	1076.2059	1082.1053	1110.2287	1131.8998	1149.8474	1183.6736	1196.3839	1217.0931	1263.0049	1275.3934	1330.5135	1399.5075	1414.2625	1456.2228	1477.9671	1493.9716	1505.1459	1813.4297	2977.9383	2986.2048	3020.0328	3066.4233	3068.3741	3139.5196	3144.255	3224.0076	3237.5437	3818.4636
ON=C1CN(C1)C1CC1	ON=C1CN(C1)C1CC1	
InChI=1S/C6H10N2O/c9-7-5-3-8(4-5)6-1-2-6/h6,9H,1-4H2	InChI=1S/C6H10N2O/c9-7-5-3-8(4-5)6-1-2-6/h6,9H,1-4H2
