20
gdb 121576	4.97765	0.5677	0.53794	3.8704	88.96	-0.245	-0.0126	0.2324	2136.7476	0.16846	-403.16476	-403.153406	-403.152462	-403.205174	37.783	
C	 0.1688013787	 1.461625575	 0.1127788444	-0.378005
C	 0.2999449951	-0.0553902159	-0.042080443	-0.165566
C	 0.2179413787	-0.4970131911	-1.509437636	-0.155113
N	 0.3325344073	-1.934278846	-1.6891311959	-0.315455
C	 1.5185718694	-2.5417956098	-1.992044425	 0.259992
O	 2.5579158607	-1.9347377565	-2.1885710205	-0.368972
C	 1.4251972114	-3.9921709628	-2.0715550982	-0.050678
C	 1.4006759268	-5.1949666473	-2.1463481841	 0.147439
C	 1.3836081023	-6.6453400195	-2.2421458486	-0.504785
H	 0.9642484435	 1.9840814912	-0.4294717599	 0.124156
H	-0.7898171733	 1.8213963085	-0.2780686782	 0.113138
H	 0.2313240984	 1.7590431646	 1.1635540351	 0.116992
H	 1.2566548027	-0.3969631293	 0.3684690324	 0.119002
H	-0.4871896986	-0.5600172592	 0.5331268762	 0.089299
H	-0.7283711959	-0.1634790738	-1.9524738817	 0.100022
H	 1.0327353087	-0.045030155	-2.0806248298	 0.145313
H	-0.4584961886	-2.5237636717	-1.4864396839	 0.249103
H	 2.3908128326	-7.0595406682	-2.1277318764	 0.161287
H	 0.7460048989	-7.0874568982	-1.4691110713	 0.15422
H	 0.9983561112	-6.967169205	-3.2159100855	 0.15861
11.2129	23.7143	46.467	70.6588	107.7268	159.6851	233.6439	276.3134	286.2938	319.9056	373.446	399.8105	465.2836	511.9088	598.8879	737.1644	762.837	810.1562	888.254	915.7615	1008.863	1046.1473	1048.797	1053.3683	1121.6929	1140.834	1179.4408	1251.3462	1287.7157	1333.8533	1341.8501	1406.0231	1411.6974	1414.3064	1472.1401	1472.6244	1475.2582	1490.5258	1499.9563	1507.9498	1535.5323	1750.3841	2355.0548	3023.8893	3030.3307	3031.4008	3033.8465	3068.1521	3093.8829	3097.4409	3097.6346	3108.116	3113.9894	3642.149
CCCNC(=O)C#CC	CCCNC(=O)C#CC	
InChI=1S/C7H11NO/c1-3-5-7(9)8-6-4-2/h4,6H2,1-2H3,(H,8,9)	InChI=1S/C7H11NO/c1-3-5-7(9)8-6-4-2/h4,6H2,1-2H3,(H,8,9)
