18
gdb 111044	1.99485	1.82568	1.13783	1.3776	74.07	-0.2497	-0.0427	0.207	1103.016	0.146797	-439.007344	-438.998847	-438.997903	-439.040759	31.207	
C	 0.2516817341	 0.9454700204	 0.5843713243	-0.263124
O	-0.1639838219	 0.1076714319	-0.4868930671	-0.254506
C	-1.3339409826	-0.5857722454	-0.2247867369	 0.125802
C	-1.7371643243	-1.6969708878	-1.2247140592	-0.079996
C	-0.5831413311	-2.5762338034	-0.681493093	-0.233016
C	-1.3284936367	-1.959395019	 0.5486051895	 0.187764
N	-2.6166689846	-2.3332962623	-0.159792611	-0.351746
C	-1.0991923886	-2.2906818684	 1.9852813402	 0.024639
O	-0.412391133	-1.6401413218	 2.7353380841	-0.246431
H	 1.1755608542	 1.432230998	 0.2657565863	 0.127959
H	-0.5030634413	 1.717508613	 0.7965422614	 0.107076
H	 0.4284117143	 0.3623570831	 1.4956938301	 0.148109
H	-2.1515485222	 0.0847824822	 0.0862839196	 0.065094
H	-2.07722969	-1.5859900819	-2.2542348353	 0.092562
H	-0.7157627243	-3.6507290616	-0.8057719827	 0.113881
H	 0.4313347659	-2.2242122771	-0.8533189994	 0.12853
H	-3.3552204313	-1.6718459227	 0.1097672442	 0.210275
H	-1.6113975864	-3.2185150671	 2.323541835	 0.097128
84.7659	117.078	148.5845	199.5455	223.8781	269.0472	340.5176	433.0409	457.0679	568.0695	576.1044	723.2265	810.0096	827.381	905.0889	913.9975	962.3073	987.4219	1029.4741	1048.2199	1062.133	1101.4994	1133.7523	1173.4059	1182.301	1193.2844	1209.6704	1226.8791	1239.601	1266.8719	1296.893	1305.6592	1394.2039	1407.9683	1474.96	1487.7613	1496.5138	1518.4536	1810.3745	2892.2508	2976.755	2993.6254	3070.1474	3099.6532	3121.1121	3130.8102	3190.2971	3354.7107
COC1C2CC1(N2)C=O	CO[C@H]1[C@H]2C[C@@]1(N2)C=O	
InChI=1S/C6H9NO2/c1-9-5-4-2-6(5,3-8)7-4/h3-5,7H,2H2,1H3	InChI=1S/C6H9NO2/c1-9-5-4-2-6(5,3-8)7-4/h3-5,7H,2H2,1H3/t4-,5+,6-/m1/s1
