17
gdb 51058	4.44819	1.08665	1.03585	2.6889	75.76	-0.2279	-0.0214	0.2065	1170.4014	0.134357	-384.583462	-384.575895	-384.574951	-384.616502	28.809	
O	-0.6363645907	 0.6135592352	 0.6065951971	-0.238617
C	 0.1649771798	 0.9148924402	-0.2388040852	 0.167073
C	 1.246758719	 1.9677286776	-0.0722343948	-0.425346
C	 1.2281773396	 2.9745478198	-1.1805138117	 0.358131
C	 0.1616456627	 4.0359421681	-1.6110308955	-0.158547
C	 0.6260461767	 3.9177639514	-3.0551848729	-0.082686
C	 1.2703169825	 4.9388050045	-2.1293935755	-0.081965
C	 2.3340355145	 3.8829700763	-1.7054911378	-0.164233
C	 1.6900049313	 2.8615758417	-2.6335490308	-0.148583
H	 0.1608449191	 0.4254161604	-1.2400740694	 0.076431
H	 1.1310046101	 2.4327411239	 0.9128026504	 0.124681
H	 2.2157796718	 1.4461813568	-0.0878790959	 0.122448
H	-0.8126187428	 4.291621092	-1.2162791712	 0.094995
H	 0.0707791239	 4.0674952892	-3.9709545438	 0.090792
H	 1.3024263689	 6.0171682587	-2.2034920758	 0.090516
H	 3.3616845531	 3.9642948511	-1.3762216156	 0.087506
H	 2.1394099706	 2.0246827131	-3.1520191717	 0.087403
51.3564	77.9152	148.8684	268.4638	342.4286	449.7673	613.7012	662.0308	745.3717	750.9731	779.2453	792.2094	818.5531	848.1725	864.6579	872.8737	905.7628	937.4269	956.9297	978.4034	993.8656	1008.2602	1020.313	1066.7607	1082.5027	1125.5959	1172.8124	1192.7165	1209.7891	1253.8804	1287.0766	1294.2703	1326.5849	1414.2635	1421.8792	1445.365	1835.7637	2867.7734	3004.8484	3076.536	3188.4513	3196.6421	3203.6942	3204.222	3216.8431
O=CCC12C3C4C3C1C24	O=CC[C@@]12[C@@H]3[C@H]4[C@@H]3[C@@H]1[C@@H]24	
InChI=1S/C8H8O/c9-2-1-8-5-3-4(5)7(8)6(3)8/h2-7H,1H2	InChI=1S/C8H8O/c9-2-1-8-5-3-4(5)7(8)6(3)8/h2-7H,1H2/t3-,4+,5-,6+,7-,8+
