17
gdb 47077	3.02424	1.56825	1.08332	2.7713	76.36	-0.2371	-0.0617	0.1754	1081.6138	0.137594	-421.852322	-421.845064	-421.84412	-421.884201	28.007	
O	 0.0364935843	-0.0041295561	 0.1117240082	-0.309956
C	 0.0206882213	 1.1996802336	 0.0331782019	 0.272163
C	-1.2298485351	 2.1067152505	 0.1326212739	-0.190334
O	-0.769992657	 3.4493975128	 0.265053555	-0.274268
C	 0.5079768949	 3.5179265801	-0.3775217866	 0.059383
C	 1.5268151662	 4.4879824199	 0.2389877588	-0.250615
C	 2.8696449883	 3.6941929279	 0.1734499973	-0.255669
C	 2.4152251779	 2.2478679323	 0.1858034935	-0.19466
C	 1.1220435681	 2.1671245336	-0.1326738417	 0.208688
H	-1.8369374425	 1.9726602713	-0.7786068102	 0.119574
H	-1.8471896074	 1.8451648984	 0.9962150401	 0.139409
H	 0.3613599054	 3.7178228172	-1.4535161249	 0.077164
H	 1.575632136	 5.4571695786	-0.2618393132	 0.106111
H	 1.2451838891	 4.6535071902	 1.2835340875	 0.124017
H	 3.4260711355	 3.9233420526	-0.7465352131	 0.124021
H	 3.5446361727	 3.9255950262	 1.0038260623	 0.11919
H	 3.0514812325	 1.418250091	 0.472935281	 0.125783
111.0164	159.5883	177.5187	288.4358	332.5834	457.2828	549.1185	562.9847	606.4464	657.4069	693.2005	827.7809	831.0706	886.547	910.4299	937.7488	965.7451	1009.7037	1029.3339	1046.3896	1075.3562	1097.6102	1161.8259	1184.1798	1212.4337	1226.542	1266.2697	1283.4416	1315.5598	1334.071	1355.9323	1376.6922	1477.6857	1478.2507	1492.772	1707.0277	1829.5256	2943.218	2970.6993	3013.1989	3061.6455	3074.2365	3096.0264	3119.4756	3202.5577
O=C1COC2CCC=C12	O=C1CO[C@H]2CC[CH][C]12	
InChI=1S/C7H8O2/c8-6-4-9-7-3-1-2-5(6)7/h2,7H,1,3-4H2	InChI=1S/C7H8O2/c8-6-4-9-7-3-1-2-5(6)7/h2,7H,1,3-4H2/t7-/m0/s1
