19
gdb 76149	2.10527	1.48054	1.19071	6.0143	77.21	-0.2459	0.0251	0.2709	1145.9904	0.157434	-419.20467	-419.194658	-419.193713	-419.23881	37.275	
C	 0.0002165701	 1.5183214997	 0.0869877966	-0.454273
C	-0.0009577198	 0.0045559605	 0.0011421092	 0.231747
C	-1.2633888124	-0.6520074263	 0.5289271891	-0.462935
C	 0.6731010837	-0.6875396102	-1.1648052354	-0.149633
N	 1.4139695805	 0.0811357629	-2.1304133995	-0.525466
C	 1.341453899	-0.7078063522	 0.2238965111	 0.239067
O	 2.4953260711	 0.0532927758	 0.344222795	-0.461105
C	 1.381201232	-1.9450722179	 0.9642087512	 0.275071
N	 1.3833242269	-2.9416625552	 1.5522801622	-0.361188
H	 0.9702276998	 1.9455290341	-0.1666676919	 0.133077
H	-0.7587218253	 1.9432568363	-0.5805124984	 0.113102
H	-0.2448308492	 1.8339119166	 1.1060681369	 0.132375
H	-2.1332826609	-0.3275415916	-0.0534099034	 0.117497
H	-1.2117296133	-1.7424909131	 0.4819093545	 0.139456
H	-1.4335697837	-0.3735932936	 1.5741705623	 0.132064
H	 0.2157742075	-1.6151514266	-1.501562411	 0.104207
H	 1.7956636827	-0.5130780594	-2.8569289641	 0.252277
H	 0.8455793726	 0.7951263761	-2.5719595862	 0.251443
H	 2.6971103188	 0.3333064042	-0.568885618	 0.293216
120.0919	129.7027	150.3179	198.983	203.6224	243.2139	251.8354	290.9404	311.3245	356.8702	439.6704	460.2072	545.3375	575.058	597.2819	613.344	699.2727	735.6302	799.7292	897.2551	965.793	979.6472	1001.4217	1040.6779	1103.0598	1145.6888	1161.3409	1201.0435	1237.0597	1292.882	1327.3461	1402.9777	1415.115	1431.1434	1446.0843	1480.7618	1489.0487	1501.1449	1509.8241	1650.6954	2345.8275	3031.6297	3035.7983	3093.3924	3096.4572	3120.4248	3128.016	3149.4082	3518.7304	3583.5067	3599.7421
CC1(C)C(N)C1(O)C#N	CC1(C)[C@@H](N)[C@]1(O)C#N	
InChI=1S/C6H10N2O/c1-5(2)4(8)6(5,9)3-7/h4,9H,8H2,1-2H3	InChI=1S/C6H10N2O/c1-5(2)4(8)6(5,9)3-7/h4,9H,8H2,1-2H3/t4-,6-/m1/s1
