16
gdb 43377	2.98635	1.25484	0.98001	3.9079	76.95	-0.2461	-0.0311	0.2151	1188.8393	0.124108	-400.756373	-400.748073	-400.747129	-400.790062	30.453	
O	-0.0971652701	-0.052701476	-0.4398991661	-0.399423
C	-0.1009649764	 1.1396752714	-0.2079901377	 0.411853
C	-1.2571969162	 2.0759073505	-0.1040051253	-0.181386
C	-0.8142577166	 3.300427158	 0.1835132981	-0.07927
C	 0.6870230317	 3.2990314762	 0.2947534777	-0.220255
N	 1.0198654319	 1.9214417557	 0.01659433	-0.09158
C	 2.3546411223	 1.3659758394	 0.0719318721	-0.314507
C	 3.0022545582	 1.5405136024	 1.3732049344	 0.304311
C	 3.5331817073	 1.7106482803	 2.4376158759	-0.455865
H	-2.2750112294	 1.7432813787	-0.2471493626	 0.12732
H	-1.4012364386	 4.1982614124	 0.3250589071	 0.122855
H	 1.1496512314	 3.9886025651	-0.4279503286	 0.124988
H	 1.0268029309	 3.6052807534	 1.2945947179	 0.139068
H	 2.2388011802	 0.3014831166	-0.1619647413	 0.175185
H	 2.9889697732	 1.8053805104	-0.7112091989	 0.133117
H	 4.0050045601	 1.8398240956	 3.3803742072	 0.203589
48.0464	78.2407	194.2391	219.2816	275.5996	333.2802	374.7869	422.4041	562.1649	619.6585	663.2847	667.6897	687.634	733.8018	819.7539	847.5702	928.6559	950.695	968.3786	984.1639	1014.3944	1069.4851	1131.1129	1187.2531	1212.4082	1266.1055	1322.1453	1352.1443	1388.0567	1422.0633	1470.9342	1496.5524	1654.9477	1802.2862	2238.7406	2993.2278	3001.5201	3022.6924	3072.4658	3221.8759	3253.4035	3504.026
O=C1C=CCN1CC#C	O=C1C=CCN1CC#C	
InChI=1S/C7H7NO/c1-2-5-8-6-3-4-7(8)9/h1,3-4H,5-6H2	InChI=1S/C7H7NO/c1-2-5-8-6-3-4-7(8)9/h1,3-4H,5-6H2
