22
gdb 110608	2.98467	1.21343	1.08091	1.6165	85.66	-0.2472	0.092	0.3392	1253.3196	0.194495	-367.162969	-367.154019	-367.153075	-367.196527	34.704	
C	 0.2693350384	 1.4716381753	 0.1417680538	-0.375922
C	-0.1996906271	 0.0392194035	-0.1413108201	-0.209408
C	 0.5850456034	-0.6073625222	-1.2677357066	 0.008133
C	 1.940782757	-1.2544186463	-1.1160165926	-0.099569
C	 2.0425688267	-2.0891402615	 0.1425461441	-0.106135
N	 2.1694823006	-3.5203948898	-0.1536406104	-0.370594
C	 0.8397356557	-2.9081570388	-0.264242131	 0.337514
C	-0.2832277334	-3.4995050077	 0.5378795738	-0.481309
C	 0.7108264775	-2.0882859078	-1.5385514827	-0.177163
H	 1.3240327202	 1.4880106529	 0.4357974095	 0.119253
H	 0.1642676799	 2.1063963731	-0.7452306074	 0.112701
H	-0.3129481069	 1.9278743982	 0.948236589	 0.111239
H	-0.1146709749	-0.5594951113	 0.7700224294	 0.107604
H	-1.264642249	 0.0482207458	-0.4080063142	 0.094581
H	 0.517537856	-0.0388251911	-2.1971860821	 0.081036
H	 2.7836898318	-0.9726193174	-1.738589893	 0.085194
H	 2.3383492903	-1.7549796233	 1.1306629544	 0.092537
H	 2.5982742911	-3.6733224581	-1.064734751	 0.2204
H	 0.0867901728	-3.8677493538	 1.4980231787	 0.130755
H	-1.0756698813	-2.7671377715	 0.7201233878	 0.118941
H	-0.7310480328	-4.3479989504	 0.0068129602	 0.119032
H	 0.5041579141	-2.5016413177	-2.5211095095	 0.081179
72.0405	132.3696	165.003	190.9832	239.9349	261.2407	318.5605	369.6902	449.0348	529.5389	623.7487	642.081	729.2411	784.3783	800.3028	806.7866	849.1242	899.3406	922.6215	964.0909	976.6627	995.7741	1019.3084	1042.3309	1062.9328	1075.38	1097.8485	1104.8809	1124.6126	1136.2376	1178.8451	1212.8235	1251.4968	1267.782	1294.4249	1312.3965	1324.3755	1351.6911	1397.0608	1408.2229	1434.9612	1448.4367	1483.7074	1485.2021	1495.4908	1497.7698	1506.3292	3023.9874	3030.7435	3032.06	3075.7549	3091.8491	3092.6098	3104.8257	3105.5381	3123.3582	3152.2659	3165.0569	3176.5051	3461.6679
CCC1C2C3NC3(C)C12	CC[C@H]1[C@H]2[C@@H]3N[C@]3(C)[C@@H]12	
InChI=1S/C8H13N/c1-3-4-5-6(4)8(2)7(5)9-8/h4-7,9H,3H2,1-2H3	InChI=1S/C8H13N/c1-3-4-5-6(4)8(2)7(5)9-8/h4-7,9H,3H2,1-2H3/t4-,5+,6-,7-,8+/m0/s1
