14
gdb 27509	2.02346	1.9974	1.00582	4.7518	68.55	-0.2466	-0.0119	0.2348	1085.3063	0.104287	-466.274339	-466.266659	-466.265715	-466.306588	29.274	
N	 0.0070023155	 1.3423941924	-0.0242121599	-0.565719
C	-0.0366046893	-0.0182716587	 0.0544270812	 0.492161
N	-1.1684684265	-0.6298982146	-0.122260962	-0.390668
C	-1.2064466123	-2.002116415	 0.022185301	 0.426166
O	-2.1982250062	-2.6804991905	-0.1032306119	-0.373951
N	 0.0241111188	-2.6389530061	 0.3285549908	-0.408605
C	 1.2382189131	-2.0221410017	 0.5286892057	 0.459826
N	 2.3701019303	-2.5186941346	 0.8344564956	-0.576064
N	 1.1434223592	-0.6399603127	 0.3564660329	-0.364758
H	 0.8724893273	 1.7976708879	-0.2646658762	 0.26472
H	-0.8316872211	 1.7566598269	-0.4005577906	 0.28241
H	-0.0306744977	-3.6412940022	 0.427561293	 0.263039
H	 2.3232537325	-3.5291025043	 0.9401493814	 0.218878
H	 1.9887288664	-0.1293894166	 0.560740519	 0.272565
114.3718	128.6969	196.6348	342.9399	343.9101	385.9712	500.947	525.7481	539.0374	548.815	582.348	616.4731	673.0895	714.6235	743.1276	784.7268	788.8872	953.5215	996.0045	1063.696	1130.7068	1136.0339	1258.0253	1333.2781	1386.2586	1448.0847	1545.1228	1622.1595	1684.4643	1760.5737	1827.4755	3525.7495	3593.0745	3634.7036	3635.7741	3711.741
NC1=NC(=O)NC(=N)N1	NC1=NC(=O)N[C]([NH])N1	
InChI=1S/C3H5N5O/c4-1-6-2(5)8-3(9)7-1/h(H5,4,5,6,7,8,9)	InChI=1S/C3H5N5O/c4-1-6-2(5)8-3(9)7-1/h(H5,4,5,6,7,8,9)
