23
gdb 121229	3.12429	0.8272	0.70729	1.9619	83.26	-0.2407	0.0845	0.3253	1693.675	0.204188	-425.399073	-425.38852	-425.387576	-425.435842	36.952	
C	-0.0999742903	 1.6498540168	-0.2257765443	-0.385458
C	-0.0847444372	 0.2430251323	 0.3821234847	-0.192415
C	-1.3310229321	-0.542448808	 0.0062580741	 0.142038
O	-1.4387205365	-0.767267496	-1.4214904494	-0.295669
C	-1.747691257	-2.1632514553	-1.2226087278	-0.072139
C	-1.4475858334	-2.0662822489	 0.2863856826	-0.081499
C	-0.2026875291	-2.8028017433	 0.7448725097	-0.074056
O	-0.5034917095	-4.1828890028	 0.7433303395	-0.236031
C	 0.5888865445	-4.9840227868	 1.1244921123	-0.227962
H	 0.8132720725	 2.1985228606	 0.0224606038	 0.109956
H	-0.1806016443	 1.5923440237	-1.3147907845	 0.140129
H	-0.9521129084	 2.2309814782	 0.1438002611	 0.113189
H	 0.8060675058	-0.2948585634	 0.039709279	 0.099691
H	-0.0257778418	 0.3038255609	 1.4769079943	 0.094902
H	-2.2180174043	 0.0019681952	 0.3676035566	 0.066847
H	-2.7912203098	-2.3912058705	-1.474492516	 0.09761
H	-1.0899135427	-2.8205346914	-1.8030928908	 0.105135
H	-2.2782930335	-2.3446576789	 0.9385694712	 0.082858
H	 0.6454508676	-2.5986062692	 0.0700176432	 0.091063
H	 0.0984526758	-2.4744602285	 1.7546765499	 0.086113
H	 0.2596557784	-6.0253928367	 1.0898031212	 0.127848
H	 1.4459123177	-4.8591110157	 0.4435888332	 0.104356
H	 0.9288567177	-4.7527527123	 2.1466614267	 0.103494
50.5597	81.061	98.0287	102.9085	117.2188	201.4094	225.2712	236.0619	288.5365	346.9144	426.8383	483.0006	505.2864	747.5745	822.4899	854.7797	884.1776	927.0905	954.0182	978.4554	992.7591	1022.547	1046.8487	1106.4016	1121.093	1149.5138	1157.6937	1169.6334	1176.2863	1196.7904	1222.3507	1246.6651	1263.1701	1286.0482	1303.9712	1330.6942	1355.9541	1372.189	1406.5465	1416.8089	1427.9226	1474.6658	1481.9378	1485.6592	1496.9005	1503.5401	1509.2421	1524.0412	1533.6488	2949.0358	2969.5928	2970.6981	2980.2914	3012.4122	3014.5255	3024.5679	3036.4359	3059.7323	3070.4047	3088.8219	3103.921	3113.9286	3120.6968
CCC1OCC1COC	CC[C@H]1OC[C@H]1COC	
InChI=1S/C7H14O2/c1-3-7-6(4-8-2)5-9-7/h6-7H,3-5H2,1-2H3	InChI=1S/C7H14O2/c1-3-7-6(4-8-2)5-9-7/h6-7H,3-5H2,1-2H3/t6-,7-/m1/s1
