19
gdb 41451	2.79449	2.15306	1.64551	1.7947	78.66	-0.2311	0.0577	0.2888	885.5973	0.161569	-385.77073	-385.76433	-385.763386	-385.800971	27.771	
C	 0.0743238113	 1.4964616559	-0.1826776373	-0.198821
O	 1.5286626505	 1.4266743328	 0.0774130188	-0.348202
C	 1.2969063946	 0.2066983706	 0.8420905306	 0.406077
C	 1.1118168088	 0.3446538711	 2.3494805328	-0.289784
C	 0.0256583328	-0.7497765821	 2.5525650283	-0.232713
C	-0.1420658962	-1.2330852968	 1.1111098696	-0.088985
C	 1.3167649703	-1.3129751441	 0.4370670309	-0.126699
C	 0.6975399215	-0.9425417342	-0.9129838355	-0.257291
C	-0.0189253668	-0.0182071607	 0.1106623594	 0.1639
H	-0.4160751412	 2.1654541506	 0.5331311793	 0.110526
H	-0.1353274099	 1.814550364	-1.207710609	 0.117185
H	 2.0323215533	 0.144357516	 2.9054709853	 0.103461
H	 0.7668180931	 1.3440534268	 2.6277582484	 0.104188
H	 0.3522350213	-1.5636352243	 3.2071712847	 0.103464
H	-0.9029990521	-0.3463290144	 2.9671114956	 0.104098
H	-0.8426048605	-2.0463028162	 0.9081037965	 0.072495
H	 2.0588504029	-2.0890336403	 0.6564753042	 0.064127
H	 1.3563084865	-0.4423143013	-1.6247701693	 0.107858
H	 0.0784629198	-1.7006323532	-1.3999614534	 0.085116
209.0048	278.6137	370.1068	373.518	435.4191	489.1725	572.3205	664.4389	677.0303	749.9244	819.8886	840.2918	854.2996	871.3266	880.9274	927.6999	940.4239	952.3566	980.7847	1013.4169	1041.8007	1046.3991	1079.8974	1107.2341	1124.5627	1147.7688	1166.1211	1187.9745	1197.5637	1216.8264	1237.2553	1244.3981	1248.7757	1264.5064	1296.0585	1314.6714	1336.8004	1486.4242	1496.9313	1507.6335	1513.7765	3033.7865	3038.3901	3048.7203	3059.8642	3062.0649	3084.7979	3093.5279	3100.5834	3105.9017	3128.5812
C1OC23CCC4C2CC134	C1O[C@]23CC[C@@H]4[C@H]2C[C@]134	
InChI=1S/C8H10O/c1-2-8-6-3-7(8,4-9-8)5(1)6/h5-6H,1-4H2	InChI=1S/C8H10O/c1-2-8-6-3-7(8,4-9-8)5(1)6/h5-6H,1-4H2/t5-,6-,7-,8-/m1/s1
