19
gdb 48611	3.42418	1.39632	1.20265	2.5723	80.01	-0.2411	-0.0244	0.2166	1066.1328	0.160612	-385.897915	-385.890356	-385.889412	-385.929991	30.091	
O	-0.1748089138	 0.0436311377	-0.2368127738	-0.253376
C	-0.0033890054	 1.1826557993	 0.1202817719	 0.064673
C	 1.3027036455	 1.9174116634	 0.0526658568	 0.233806
C	 2.5604804005	 1.1712350385	-0.4658737508	-0.253111
C	 2.9935793032	 2.540093213	-1.0758326716	-0.069794
C	 1.47512159	 2.8749504429	-1.1858688506	-0.257548
C	 3.5778244527	 3.3922168864	 0.0323681043	-0.058955
C	 2.9123737636	 3.4668132629	 1.1850123598	-0.065609
C	 1.6209937616	 2.6960404101	 1.3468659064	-0.3116
H	-0.8549170403	 1.7910639762	 0.5107489896	 0.066256
H	 3.2242696461	 0.7166974123	 0.2725044442	 0.100255
H	 2.2820022144	 0.4369205155	-1.2243159929	 0.116855
H	 3.5919515019	 2.5441416857	-1.9872798999	 0.065523
H	 1.0195894635	 2.4397734821	-2.0789547578	 0.11099
H	 1.1744974362	 3.9188943543	-1.0735781662	 0.102633
H	 4.5108864346	 3.9223123168	-0.1300628284	 0.09065
H	 3.265805239	 4.06002814	 2.0229501097	 0.092392
H	 0.7936079931	 3.3772608081	 1.5942588948	 0.10923
H	 1.6997106236	 1.9992212549	 2.1936073345	 0.116729
67.2372	179.4381	243.9144	305.8826	339.2003	392.0333	446.5356	488.1154	570.5111	661.0035	720.4584	739.2267	848.7785	858.5482	876.4542	895.1743	930.267	953.5606	958.7108	978.8953	1006.414	1018.7398	1074.5155	1090.9445	1102.5268	1176.541	1176.6941	1204.7895	1233.3436	1243.5904	1251.1335	1277.1335	1332.9757	1364.1525	1391.3499	1426.4842	1472.6141	1474.663	1504.4918	1701.8731	1821.8339	2839.0543	2997.649	3024.1488	3058.1714	3070.0874	3102.3682	3123.1621	3131.9986	3164.5944	3188.3397
O=CC12CC(C1)C=CC2	O=C[C@@]12C[C@@H](C1)C=CC2	
InChI=1S/C8H10O/c9-6-8-3-1-2-7(4-8)5-8/h1-2,6-7H,3-5H2	InChI=1S/C8H10O/c9-6-8-3-1-2-7(4-8)5-8/h1-2,6-7H,3-5H2/t7-,8-
