19
gdb 72545	2.64072	1.70575	1.69911	1.2462	69.91	-0.2525	0.0787	0.3312	938.4928	0.160807	-460.168288	-460.160633	-460.159689	-460.200239	30.112	
C	 0.0018724217	 1.512397665	 0.0463867801	-0.45787
C	-0.007901748	-0.0038657877	-0.0143794769	 0.286371
C	 0.7163728856	-0.556688585	-1.2502297612	-0.081153
O	 0.6657991826	-1.9899463128	-1.2262245436	-0.270525
C	 0.0033112784	-2.4427140839	-0.0660857216	 0.172588
C	 0.7206504893	-1.9132942727	 1.1745876647	-0.097877
O	 0.6818852999	-0.4819656082	 1.1487959978	-0.308599
O	-1.3436704857	-2.0241145209	-0.0497929815	-0.270537
C	-1.4256061087	-0.5931479446	 0.0048051385	-0.081237
H	 1.030835227	 1.8818963907	 0.062898479	 0.1317
H	-0.5116891768	 1.9430537837	-0.8180517541	 0.12121
H	-0.4961769667	 1.8559177738	 0.9571603538	 0.131685
H	 0.2417627851	-0.203896128	-2.1749376111	 0.102859
H	 1.7638215748	-0.2293823206	-1.2453362722	 0.104721
H	-0.0038296456	-3.5330901961	-0.1099536222	 0.094421
H	 0.2235769132	-2.2767950861	 2.082679017	 0.107304
H	 1.7644888129	-2.251184363	 1.1809638711	 0.10734
H	-1.9411347894	-0.292933647	 0.9259036973	 0.104708
H	-2.0093711895	-0.2417452667	-0.8557289449	 0.102892
84.5343	187.3196	259.6511	267.3264	340.6303	363.1995	426.2011	432.4934	555.793	570.5173	605.6633	755.6598	853.5647	874.6962	880.9315	930.5754	946.3079	969.2864	998.9876	1036.0651	1036.8175	1083.074	1114.2133	1154.3198	1183.3874	1208.3558	1235.2388	1236.5401	1278.6159	1283.934	1344.9089	1350.9074	1395.9838	1398.9315	1409.926	1423.2602	1482.264	1497.3013	1505.1204	1509.9964	1517.9986	3006.9894	3011.6955	3015.0601	3046.3232	3048.7212	3054.1125	3056.9267	3111.2158	3122.2218	3122.5491
CC12COC(CO1)OC2	C[C@@]12CO[C@@H](CO1)OC2	
InChI=1S/C6H10O3/c1-6-3-7-5(2-9-6)8-4-6/h5H,2-4H2,1H3	InChI=1S/C6H10O3/c1-6-3-7-5(2-9-6)8-4-6/h5H,2-4H2,1H3/t5-,6+
