23
gdb 70734	2.39962	1.58051	1.17511	1.2037	85.48	-0.2343	0.0838	0.318	1167.2926	0.207425	-388.292869	-388.284318	-388.283374	-388.32534	34.714	
C	-0.04279783	 1.5342879778	 0.0330177924	-0.452453
C	 0.0236808868	 0.0211954204	 0.0058191101	 0.432857
C	-0.8495650617	-0.7584700306	 0.9452207582	-0.358913
C	 0.6558293908	-0.7376795415	 1.1503105866	-0.064832
C	 1.4785056006	-1.9914285452	 0.89623069	-0.218024
C	 2.7040924027	-1.7611869671	-0.0053241796	-0.187122
C	 2.348722375	-1.6248510374	-1.4934449366	-0.183862
C	 1.4463999702	-0.4424806402	-1.8511402656	-0.078296
O	 0.142560603	-0.5316861493	-1.2807000616	-0.291173
H	 0.8767560505	 1.9953979026	-0.3434146695	 0.114418
H	-0.8745507352	 1.8858144436	-0.5866420355	 0.123317
H	-0.1984032866	 1.8962331403	 1.0533488262	 0.114114
H	-1.4907543501	-0.2122074742	 1.6288618212	 0.105148
H	-1.2737910502	-1.679143386	 0.5595118635	 0.117614
H	 1.0210883316	-0.11999476	 1.9680318833	 0.078091
H	 1.80219004	-2.3952497425	 1.8629341567	 0.092585
H	 0.8493343322	-2.7649630098	 0.4411274473	 0.09995
H	 3.2488887638	-0.8690030976	 0.3328991467	 0.089402
H	 3.3973930809	-2.6036501529	 0.108286361	 0.089938
H	 3.2704508964	-1.5291948234	-2.0831640638	 0.088377
H	 1.855771994	-2.5457414684	-1.8313663178	 0.101069
H	 1.9309825073	 0.5026638399	-1.5681270053	 0.088366
H	 1.2945065381	-0.4156261182	-2.9359425979	 0.099431
137.9847	162.5157	201.6154	276.6686	293.2872	333.7612	354.6848	364.5865	428.8855	466.4327	505.5589	596.31	698.6416	758.9626	813.7273	847.6044	877.1828	902.8828	907.3154	935.3932	971.8478	987.3106	1017.4719	1051.8194	1069.5807	1088.707	1114.1835	1121.928	1134.134	1174.6661	1210.4675	1241.4029	1256.6302	1296.1229	1303.4079	1325.1511	1368.5698	1379.5385	1392.1595	1408.5395	1417.35	1424.0555	1471.8906	1478.8881	1482.5745	1489.8051	1492.2318	1500.8716	1504.4064	3004.7845	3009.9543	3014.3507	3026.83	3032.0788	3050.1789	3056.6488	3065.1776	3068.711	3093.7535	3110.111	3126.4983	3130.9401	3219.5148
CC12CC1CCCCO2	C[C@]12C[C@H]1CCCCO2	
InChI=1S/C8H14O/c1-8-6-7(8)4-2-3-5-9-8/h7H,2-6H2,1H3	InChI=1S/C8H14O/c1-8-6-7(8)4-2-3-5-9-8/h7H,2-6H2,1H3/t7-,8+/m1/s1
