20
gdb 68415	2.54511	1.84511	1.42465	2.5997	78.14	-0.2326	0.0665	0.2991	987.7082	0.173116	-403.113511	-403.10593	-403.104986	-403.144976	31.575	
O	-0.158682889	 1.3723148236	 0.0764919658	-0.49871
C	 0.0140825368	-0.0085391439	 0.0696884382	 0.329803
C	 0.867817024	-0.7836516495	-0.9835524491	-0.293279
C	 0.7044208371	-1.9289707331	 0.0595853151	-0.030292
C	 0.780879785	-0.8244716404	 1.1573596454	-0.286681
C	-0.8124128334	-2.2181123431	-0.0087953333	-0.297478
C	-1.3096122315	-0.7623787368	-0.0022263117	 0.389505
C	-2.5557952474	-0.2410272601	 0.5896661555	-0.324532
N	-2.3885260037	-0.3195914271	-0.8830818075	-0.392494
H	 0.7042856023	 1.7946948138	 0.0345290662	 0.284607
H	 0.4508366367	-0.9240896951	-1.9843134237	 0.104142
H	 1.8957400747	-0.4138656608	-1.0406678157	 0.086007
H	 1.3820423062	-2.7806348648	 0.0702286279	 0.06882
H	 1.7998011131	-0.4588255365	 1.3136253457	 0.087023
H	 0.2842333948	-1.0023267232	 2.1150727683	 0.09685
H	-1.1086602608	-2.7383228463	-0.9236394843	 0.111864
H	-1.1679478506	-2.7938349522	 0.8511551352	 0.099256
H	-3.291436324	-0.927827672	 1.0006104234	 0.110386
H	-2.5274895431	 0.7396483653	 1.0561728744	 0.120822
H	-2.1631913872	 0.6121850022	-1.229540476	 0.23438
128.9661	247.6703	253.6597	278.5203	375.9627	406.3158	419.9691	450.5725	541.1689	555.7293	642.9257	736.5557	826.2942	841.174	852.7458	894.408	917.2963	929.873	947.0403	981.366	989.2881	993.2713	1021.6926	1056.6801	1084.1073	1101.2421	1121.4606	1135.3775	1141.1452	1186.8854	1199.0052	1250.9715	1261.616	1276.2825	1285.8236	1290.4586	1317.9355	1373.4625	1438.0466	1483.0445	1490.2299	1510.2258	1526.9115	3048.4292	3052.013	3056.1787	3101.8086	3106.4075	3112.1124	3115.8061	3130.822	3194.9967	3474.8969	3832.1045
OC12CC(C1)CC21CN1	O[C@@]12C[C@@H](C1)C[C@]12CN1	
InChI=1S/C7H11NO/c9-7-2-5(3-7)1-6(7)4-8-6/h5,8-9H,1-4H2	InChI=1S/C7H11NO/c9-7-2-5(3-7)1-6(7)4-8-6/h5,8-9H,1-4H2/t5-,6-,7-/m1/s1
