21
gdb 104224	2.53961	1.33741	1.24514	2.0799	78.93	-0.2271	0.074	0.3011	1165.6977	0.179848	-424.181258	-424.171679	-424.170735	-424.215518	35.909	
C	 0.0834986747	 1.3144725472	 0.0954620603	-0.252847
O	-0.0991555903	-0.0639640989	 0.3414002502	-0.282415
C	-1.3904055809	-0.5680572395	 0.081026296	 0.257297
C	-2.4710838802	 0.0557535425	 0.9577334016	-0.453585
C	-1.7743858393	-0.7260885414	-1.4190605891	-0.124504
O	-1.9260956236	-2.1547746752	-1.2628975874	-0.310898
C	-1.385523857	-2.0979234926	 0.0573974064	 0.433669
C	-0.3146366346	-3.0205042419	 0.5266389219	-0.326432
C	-1.7227007754	-3.1004083784	 1.1062743498	-0.348486
H	 1.1520170788	 1.5142026402	 0.2055599416	 0.131027
H	-0.2200831006	 1.5945417861	-0.9244973622	 0.107274
H	-0.4643002437	 1.9479768155	 0.8064596782	 0.111549
H	-2.624588228	 1.113710809	 0.723591055	 0.116832
H	-3.42110707	-0.4626780903	 0.8033486544	 0.132864
H	-2.1985438647	-0.0274545886	 2.0145457869	 0.123747
H	-2.7045876728	-0.2528602371	-1.7511781224	 0.099372
H	-0.9575651544	-0.4740629169	-2.1063046736	 0.101807
H	-0.01075377	-3.807297553	-0.15542313	 0.120251
H	 0.4787474309	-2.6037016448	 1.1368703598	 0.126779
H	-1.8890730318	-2.7591294428	 2.1231570436	 0.11405
H	-2.342632147	-3.9371002288	 0.8016842187	 0.122645
68.3942	101.6039	160.0164	192.4762	209.0387	264.3753	276.0466	321.5233	360.7475	400.9366	470.6449	524.2999	589.8342	676.4353	756.7578	866.1683	870.2154	893.3716	923.6202	941.5215	980.7233	989.2884	1019.1069	1046.362	1064.9429	1101.8877	1156.4381	1159.0814	1180.6733	1185.3114	1210.0134	1213.2184	1235.7412	1255.2363	1347.2384	1394.7453	1404.529	1446.581	1475.8957	1484.124	1488.3978	1494.2482	1504.7923	1511.5081	1518.0979	2986.8172	3019.0472	3037.217	3043.2499	3075.1805	3108.7495	3115.4063	3121.153	3125.6399	3135.4779	3210.6563	3229.4819
COC1(C)COC11CC1	CO[C@@]1(C)COC21CC2	
InChI=1S/C7H12O2/c1-6(8-2)5-9-7(6)3-4-7/h3-5H2,1-2H3	InChI=1S/C7H12O2/c1-6(8-2)5-9-7(6)3-4-7/h3-5H2,1-2H3/t6-/m0/s1
