14
gdb 18659	3.3192	2.35624	1.61422	2.6184	62.35	-0.2446	-0.0351	0.2095	777.6151	0.107904	-382.546577	-382.540241	-382.539297	-382.577097	24.37	
O	 0.0683545558	-0.0142689791	 0.1416977943	-0.312465
C	-0.0037458735	 1.1875655004	 0.0294843275	 0.396632
C	-1.330935383	 1.9314392215	-0.0810305348	-0.37697
C	-1.3069939285	 3.0399419821	-1.1051734426	-0.083717
C	-0.1801243416	 3.6458366541	-1.4790996018	-0.044761
C	 1.122171688	 3.288737765	-0.8610146497	-0.003014
O	 1.1713290695	 3.3184263113	 0.5719904297	-0.241679
C	 1.2280308403	 2.0386070234	-0.0612738182	-0.063033
H	-2.1119089611	 1.1961131811	-0.2900727479	 0.136282
H	-1.553346852	 2.3586163231	 0.9086092605	 0.156654
H	-2.2607241975	 3.3418701774	-1.5277442779	 0.111614
H	-0.1848494058	 4.436200085	-2.2223865636	 0.101872
H	 2.0281668846	 3.6550340454	-1.3392796007	 0.110376
H	 2.1730134548	 1.5051179393	 0.012980575	 0.112209
102.416	218.7085	292.3901	441.665	456.7733	490.1604	579.3241	597.5506	713.4643	732.9075	812.919	857.4166	926.3016	946.0238	959.9769	985.074	1004.5677	1047.6983	1117.8138	1173.7795	1184.8971	1245.1074	1257.3917	1319.8587	1353.4063	1400.9479	1430.4308	1438.776	1709.8045	1811.1824	3008.3497	3100.4595	3135.4533	3149.4619	3168.7048	3193.1582
O=C1CC=CC2OC12	O=C1CC=C[C@H]2O[C@@H]12	
InChI=1S/C6H6O2/c7-4-2-1-3-5-6(4)8-5/h1,3,5-6H,2H2	InChI=1S/C6H6O2/c7-4-2-1-3-5-6(4)8-5/h1,3,5-6H,2H2/t5-,6+/m1/s1
