17
gdb 49413	3.31025	1.44935	1.30131	3.0243	75.86	-0.2271	-0.0239	0.2032	1003.7765	0.137023	-384.663187	-384.656178	-384.655234	-384.695231	27.707	
O	 0.0524887687	-0.0894017974	 0.0623733513	-0.258224
C	 0.0283992019	 1.0893847992	-0.1972498227	 0.144318
C	 1.2405854463	 1.9834382341	-0.1217074375	-0.072142
C	 1.5358511586	 2.9976081668	-1.2258524578	-0.111182
C	 0.7941797993	 4.3524492043	-1.0365312653	-0.07443
C	-0.3846435447	 4.4139801262	-0.1261771496	-0.082192
C	-0.0852066619	 3.8088523922	 1.0283398339	-0.099758
C	 1.2952069386	 3.2018898954	 0.9189942954	-0.124058
C	 2.0042284771	 4.015817624	-0.2139847345	-0.073142
H	-0.9117884782	 1.5834885995	-0.5225319425	 0.076572
H	 2.1168500187	 1.3532234623	 0.0476751619	 0.099569
H	 1.9553442347	 2.7538099871	-2.1944583245	 0.098431
H	 0.8921415548	 5.0291771922	-1.8773262933	 0.090901
H	-1.33577426	 4.8519013911	-0.401934993	 0.102541
H	-0.757688635	 3.6262595219	 1.857267881	 0.105349
H	 1.8204167482	 2.9840674819	 1.8465048597	 0.082289
H	 2.921899303	 4.5874166292	-0.1533568325	 0.095157
46.4313	145.6923	249.5861	397.2767	427.0956	450.7133	561.4428	695.9019	735.251	757.0592	761.1574	797.0067	822.395	849.1336	880.0363	927.827	940.5969	968.1511	985.0842	1015.4501	1030.7514	1059.3813	1073.7071	1087.283	1109.1164	1125.4573	1155.2639	1224.6688	1238.7586	1276.0752	1305.7602	1306.0061	1362.686	1379.1048	1426.826	1643.6654	1815.8186	2903.7453	3088.434	3135.7115	3180.1035	3181.9224	3196.0308	3201.2001	3225.3905
O=CC1C2C3C=CC1C23	O=C[C@H]1[C@H]2[C@H]3C=C[C@@H]1[C@@H]23	
InChI=1S/C8H8O/c9-3-6-4-1-2-5-7(4)8(5)6/h1-8H	InChI=1S/C8H8O/c9-3-6-4-1-2-5-7(4)8(5)6/h1-8H/t4-,5-,6+,7+,8+/m0/s1
