20
gdb 113230	3.06343	1.09073	0.98382	1.8288	76.1	-0.2248	0.0632	0.288	1294.0117	0.169669	-440.221143	-440.21174	-440.210796	-440.255502	35.046	
C	-0.4500030025	 1.0286112365	-0.2480660305	-0.248344
O	 0.4072468043	-0.0586055675	 0.0765768172	-0.25221
C	 0.9774843587	-0.6433031015	-1.0601954614	 0.032452
C	 1.6207922916	-1.9886232731	-0.8608821445	-0.388636
C	 0.2879762685	-1.8873522441	-1.5812133497	 0.387227
O	-0.861795047	-2.2817008932	-0.8849772568	-0.484137
C	 0.1841207526	-2.160353493	-3.0466726023	-0.038412
C	-0.5700280591	-3.3363645362	-3.543703796	-0.244473
N	-1.1011977809	-1.9706614204	-3.733938772	-0.332368
H	 0.1073639197	 1.8346864168	-0.744935472	 0.121233
H	-1.2721755867	 0.7148501887	-0.9048692812	 0.122538
H	-0.8579981666	 1.4047303921	 0.6924988614	 0.133672
H	 1.4253502982	 0.0634701208	-1.75885173	 0.094192
H	 2.5197974764	-2.2134801756	-1.4248459904	 0.119807
H	 1.5911894783	-2.3990091153	 0.1428808897	 0.126307
H	-0.9128530718	-1.7119222815	-0.104771401	 0.292686
H	 1.0473487201	-1.8169349729	-3.6139510969	 0.083727
H	-0.254430221	-3.8377239641	-4.4542885096	 0.11248
H	-1.0475888566	-3.9720083007	-2.8048198623	 0.127336
H	-1.8095326362	-1.8111398758	-3.019356552	 0.234925
72.9656	104.2204	125.5575	168.5878	221.7635	273.1125	289.1009	340.2384	402.1018	457.6834	476.2054	536.9859	626.3605	738.5228	796.2262	846.4284	865.7367	874.6909	933.0851	979.3085	1002.9868	1013.3276	1053.3619	1075.9431	1105.111	1118.2365	1144.9528	1151.2466	1176.3763	1183.0513	1211.2678	1244.2293	1273.1096	1305.0384	1310.365	1355.1844	1381.8961	1448.7362	1476.9832	1486.9661	1493.1383	1507.7741	1512.8988	2998.448	3056.0473	3101.1739	3115.5934	3122.7627	3126.8104	3131.8662	3207.5658	3224.5531	3488.025	3742.3164
COC1CC1(O)C1CN1	CO[C@H]1C[C@]1(O)[C@H]1CN1	
InChI=1S/C6H11NO2/c1-9-5-2-6(5,8)4-3-7-4/h4-5,7-8H,2-3H2,1H3	InChI=1S/C6H11NO2/c1-9-5-2-6(5,8)4-3-7-4/h4-5,7-8H,2-3H2,1H3/t4-,5+,6+/m1/s1
