21
gdb 96286	2.10413	1.50606	0.96794	2.0123	78.88	-0.2395	-0.0156	0.2239	1259.4134	0.182922	-424.253103	-424.244137	-424.243192	-424.287521	33.867	
C	-0.0102015593	 1.5440051885	 0.0382153724	-0.402377
C	 0.0278346656	 0.0098308475	-0.0201837013	-0.004379
C	 0.5148196714	-0.4563616881	-1.4066536912	-0.078036
O	 0.0539516468	-1.741598477	-1.7803779988	-0.237867
C	 0.7060659887	-2.8327919121	-1.1739999726	-0.087249
C	 0.4221051415	-2.9871421583	 0.3364070998	-0.299324
C	 1.2335278069	-2.0146161823	 1.176454328	 0.358687
O	 2.1583660642	-2.4005221663	 1.8553856284	-0.306574
C	 0.8811893116	-0.5265964439	 1.1426381688	-0.293366
H	 0.9833566423	 1.9699891885	-0.1457308922	 0.12009
H	-0.6940603428	 1.9523349159	-0.7124170882	 0.118057
H	-0.3397044593	 1.8941491348	 1.0214598018	 0.118426
H	-0.9995551322	-0.3624473817	 0.0805967994	 0.087772
H	 0.11880721	 0.2188222388	-2.1721540499	 0.106318
H	 1.6163942655	-0.4074608499	-1.4616442876	 0.089035
H	 0.3332429763	-3.7206528027	-1.6929264474	 0.116893
H	 1.7946780241	-2.7803098772	-1.3415710741	 0.101205
H	-0.6531201793	-2.8466696887	 0.4969751656	 0.116921
H	 0.7010193486	-3.9958384374	 0.6532834081	 0.11997
H	 1.8349706534	 0.0122698413	 1.1956038715	 0.126652
H	 0.375346066	-0.3132010398	 2.0947947395	 0.129148
28.115	116.8939	176.6145	229.4323	285.9887	295.4809	330.4016	375.4656	401.5041	469.8043	509.2446	536.1704	614.1186	752.1681	845.4132	859.1517	878.2175	942.0457	961.6006	976.3373	1001.0107	1036.2822	1080.1307	1113.2654	1134.0413	1167.1452	1192.7822	1231.7726	1264.5066	1280.5798	1302.2052	1318.4469	1337.7861	1350.2837	1384.2621	1399.2015	1410.1022	1424.27	1446.998	1464.302	1488.4968	1498.3537	1499.7531	1503.8853	1800.539	2958.1261	2973.228	3018.6825	3026.6908	3029.3341	3043.1118	3064.947	3070.9205	3083.9662	3095.1274	3106.4172	3108.5457
CC1COCCC(=O)C1	C[C@H]1COCCC(=O)C1	
InChI=1S/C7H12O2/c1-6-4-7(8)2-3-9-5-6/h6H,2-5H2,1H3	InChI=1S/C7H12O2/c1-6-4-7(8)2-3-9-5-6/h6H,2-5H2,1H3/t6-/m1/s1
