19
gdb 41197	3.27837	1.71617	1.46012	1.468	74.45	-0.2347	0.0869	0.3216	951.249	0.161612	-422.98073	-422.973918	-422.972973	-423.011509	28.416	
C	-0.0724608259	 1.4978289123	-0.1144219588	-0.251568
C	 1.4708546103	 1.6013129746	 0.1564698159	-0.316806
C	 1.4202064004	 0.1440825862	 0.608148284	 0.426213
C	 2.3543667362	-1.0321115944	 0.513084501	-0.159596
O	 1.5372418227	-2.2140594414	 0.5001956099	-0.278431
C	 0.3336162676	-2.1629706904	 1.2710415566	-0.063728
C	-0.250039739	-0.7456117132	 1.3119409534	 0.047834
O	 0.791865153	 0.0590421703	 1.937794839	-0.348774
C	 0.0193934043	-0.0619174453	-0.0267894744	-0.063154
H	-0.6838275269	 1.9499260798	 0.6679512858	 0.116741
H	-0.3993038031	 1.8775843441	-1.0838009404	 0.103411
H	 2.0403240989	 1.7282332483	-0.7693709702	 0.10532
H	 1.8140130133	 2.3244271158	 0.8994642399	 0.11165
H	 2.9229865758	-1.0521274641	-0.4227078715	 0.105764
H	 3.0546496285	-1.0441566285	 1.3606761334	 0.101877
H	-0.3524781659	-2.8764073207	 0.7999384369	 0.104185
H	 0.519649028	-2.4810504188	 2.3079220461	 0.100762
H	-1.2140298417	-0.6856913386	 1.8291929559	 0.07425
H	-0.1301851064	-0.618985256	-0.9508809025	 0.084051
199.079	228.3237	275.1473	319.5584	380.9575	451.1836	490.5359	583.4313	696.8618	722.9258	785.5415	828.4518	841.3125	863.7434	913.7286	925.576	931.4226	961.8291	995.7687	1014.4259	1026.9486	1093.8014	1105.9927	1125.7933	1138.1979	1190.2166	1210.4459	1226.6139	1229.0939	1253.7422	1263.9684	1284.2759	1304.2252	1317.2406	1345.1889	1375.3959	1414.9651	1463.9238	1482.2902	1487.4056	1495.439	2992.0858	3002.8307	3051.6769	3056.9963	3063.7766	3073.5608	3079.793	3114.4151	3119.8739	3139.5966
C1CC23COCC(O2)C13	C1C[C@@]23COC[C@@H](O2)[C@@H]13	
InChI=1S/C7H10O2/c1-2-7-4-8-3-6(9-7)5(1)7/h5-6H,1-4H2	InChI=1S/C7H10O2/c1-2-7-4-8-3-6(9-7)5(1)7/h5-6H,1-4H2/t5-,6-,7+/m1/s1
