20
gdb 93652	2.45261	1.4531	1.17543	2.2176	74.5	-0.2294	-0.0308	0.1986	1139.2759	0.169957	-440.30713	-440.29773	-440.296786	-440.340925	35.698	
C	-0.0062263452	 1.5511371208	 0.0222046811	-0.388894
C	 0.0056970584	 0.0118529673	-0.0069378604	 0.167845
C	-1.4228502868	-0.5408726175	-0.0016335686	-0.443084
N	 0.7791278901	-0.4723042445	-1.17655714	-0.331475
C	 2.1465660468	-0.7787460914	-0.7108536628	-0.218169
C	 1.9616682833	-1.3510954332	 0.7034365375	 0.057831
O	 3.069256574	-1.2984624479	 1.5551370914	-0.439262
C	 0.8017547584	-0.4956641478	 1.2068763901	 0.349959
O	 0.6386589109	-0.2133196577	 2.3690690234	-0.350401
H	 1.0076191407	 1.9543270442	-0.054336005	 0.122373
H	-0.584579862	 1.929069765	-0.825157401	 0.121685
H	-0.4472209058	 1.9110562739	 0.9556788428	 0.131602
H	-1.958208275	-0.2045803384	-0.8951785585	 0.130174
H	-1.4289009132	-1.6364688066	 0.0120000925	 0.11437
H	-1.9629806978	-0.1881601155	 0.8806270764	 0.142245
H	 0.3536521945	-1.3233651371	-1.5294965397	 0.219136
H	 2.6411798914	-1.4626560533	-1.4024312686	 0.115405
H	 2.7465327204	 0.1375938622	-0.6565970896	 0.120823
H	 1.5788712653	-2.3858145784	 0.6050016191	 0.086343
H	 2.7296255513	-1.0045077941	 2.4141869998	 0.291492
61.282	173.2646	194.3549	206.4105	232.5784	267.2221	292.9801	337.4634	373.0217	399.7756	438.1428	509.8962	558.7673	609.4038	694.3373	769.7673	780.8309	846.2997	935.871	951.5824	983.484	1011.5676	1041.1923	1066.8214	1081.9954	1111.8491	1169.8564	1206.0173	1250.0252	1261.8027	1280.5624	1308.1496	1373.4453	1388.9827	1407.5067	1409.9301	1461.4321	1480.5862	1481.8026	1497.0184	1504.1853	1507.4013	1834.6296	2914.6753	3031.9677	3040.6605	3044.6211	3100.254	3117.3363	3119.7745	3123.1875	3129.4056	3518.2132	3708.997
CC1(C)NCC(O)C1=O	CC1(C)NC[C@@H](O)C1=O	
InChI=1S/C6H11NO2/c1-6(2)5(9)4(8)3-7-6/h4,7-8H,3H2,1-2H3	InChI=1S/C6H11NO2/c1-6(2)5(9)4(8)3-7-6/h4,7-8H,3H2,1-2H3/t4-/m1/s1
