23
gdb 122386	4.20883	0.67491	0.66345	1.2145	86.01	-0.2482	0.0814	0.3296	1792.9568	0.206045	-388.254684	-388.245078	-388.244134	-388.290148	35.735	
O	-0.1073737681	 1.3597841929	-0.3484587196	-0.422326
C	-0.0074797974	 0.0043924956	 0.0643131484	-0.075728
C	-1.3742480086	-0.6440433651	-0.1059537524	-0.155917
C	-1.3955036236	-2.1177813398	 0.3185110033	-0.2304
C	-2.7710392808	-2.7386356586	 0.1722289826	 0.01443
C	-3.3544891924	-3.285770419	-1.1054142846	-0.060915
C	-2.3045282346	-4.0315672122	-1.9414626231	-0.228329
C	-2.0240555732	-4.9734109779	-0.725970354	-0.226565
C	-3.0757682166	-4.2104571395	 0.0912631581	-0.088469
H	 0.7555036832	 1.770361377	-0.2422082462	 0.283816
H	 0.7401947137	-0.5403433317	-0.5362279127	 0.081395
H	 0.3099904857	-0.0681030784	 1.1180404228	 0.081402
H	-2.1042864985	-0.0720388233	 0.4802583617	 0.101605
H	-1.6787155773	-0.5519322305	-1.1552168509	 0.108811
H	-0.6566884481	-2.6753036554	-0.2680433576	 0.097632
H	-1.0751607301	-2.203020676	 1.3663305519	 0.092428
H	-3.5274398461	-2.2120162999	 0.754038955	 0.080586
H	-4.3075208133	-2.9361885433	-1.4854545059	 0.07886
H	-2.7451104944	-4.5713341209	-2.7824020549	 0.101447
H	-1.4662764095	-3.4369377509	-2.3198299333	 0.094065
H	-2.3227659923	-6.0034754198	-0.9325904822	 0.100685
H	-1.0053072405	-4.9879541439	-0.3246540166	 0.093402
H	-3.7828571072	-4.6747399493	 0.7693880602	 0.078085
50.0906	73.8282	107.2602	127.5906	228.7756	248.777	267.9348	314.0597	386.2493	480.0672	555.8955	710.4305	752.4513	766.936	789.4422	797.0935	866.7778	917.5825	945.3645	951.7258	991.1569	1006.0132	1021.85	1037.0908	1047.8713	1073.8786	1079.8614	1097.9216	1125.1387	1156.3488	1198.0506	1223.9753	1226.521	1237.2129	1246.7092	1264.3005	1300.7237	1303.9806	1307.7222	1315.8949	1349.6871	1381.5974	1454.4081	1462.8031	1476.2994	1490.8811	1499.7851	1508.4075	1528.7632	2953.9385	2977.8924	3011.6591	3030.9787	3041.8362	3048.6855	3056.4403	3078.7747	3092.8609	3111.1305	3111.4534	3165.8324	3178.1466	3830.4307
OCCCC1C2CCC12	OCCC[C@H]1[C@H]2CC[C@@H]12	
InChI=1S/C8H14O/c9-5-1-2-6-7-3-4-8(6)7/h6-9H,1-5H2	InChI=1S/C8H14O/c9-5-1-2-6-7-3-4-8(6)7/h6-9H,1-5H2/t6-,7+,8-
