20
gdb 100201	1.99606	1.45311	1.14949	2.421	76.27	-0.2434	-0.035	0.2083	1188.9918	0.168176	-440.252133	-440.242038	-440.241094	-440.287292	36.176	
C	 0.2897276657	 1.2997763132	-0.0741624964	-0.254389
O	 0.0902571934	-0.1005262104	-0.147721342	-0.286618
C	-1.2553667357	-0.5583226814	-0.0706549895	 0.222926
C	-2.0070262138	-0.0813908691	 1.173464905	-0.438982
C	-1.9834459727	-0.1708291159	-1.3632983527	 0.133209
O	-3.1680287179	 0.0172201648	-1.4554415561	-0.249257
C	-1.1781801656	-2.0908565378	-0.0908393178	-0.003128
C	-0.1672432697	-2.7999039007	-0.9152955061	-0.248807
N	-0.0573490112	-2.7767161414	 0.555540992	-0.331347
H	 1.334456183	 1.478334494	-0.3382805782	 0.136297
H	-0.3491120694	 1.8487837915	-0.7803016876	 0.119556
H	 0.109188142	 1.6910908139	 0.9346294855	 0.124361
H	-2.0943935732	 1.0072879094	 1.202687574	 0.122808
H	-3.0207938683	-0.4865070738	 1.1583811679	 0.144778
H	-1.4982510298	-0.4252881853	 2.0777643541	 0.129731
H	-1.3038350315	-0.1238353813	-2.2443247181	 0.087613
H	-2.1470854105	-2.5573103998	 0.0684068667	 0.105403
H	-0.4074217564	-3.7681079576	-1.3444512767	 0.119726
H	 0.5336462312	-2.1978421716	-1.484099452	 0.123929
H	 0.6361247506	-2.0748458807	 0.808410848	 0.242192
70.6318	90.4368	117.2864	175.0127	188.9275	214.6505	248.4848	274.4263	331.5918	353.4162	381.5688	474.0307	532.1805	625.9319	717.7283	826.5195	863.6939	917.9693	937.3207	972.1445	997.5975	1013.1057	1094.8324	1115.835	1143.7858	1155.8397	1179.6711	1181.8885	1202.1904	1233.8824	1238.331	1283.0519	1312.8286	1386.5433	1401.9509	1408.6921	1478.5941	1483.7551	1487.5063	1498.2822	1504.8535	1514.7111	1829.9438	2879.4484	2999.8584	3055.2513	3062.0384	3120.5835	3121.5836	3132.0296	3138.315	3144.7247	3211.8267	3493.2356
COC(C)(C=O)C1CN1	CO[C@@](C)(C=O)[C@H]1CN1	
InChI=1S/C6H11NO2/c1-6(4-8,9-2)5-3-7-5/h4-5,7H,3H2,1-2H3	InChI=1S/C6H11NO2/c1-6(4-8,9-2)5-3-7-5/h4-5,7H,3H2,1-2H3/t5-,6+/m1/s1
