17
gdb 36496	4.15107	1.07436	0.93686	6.6252	72.87	-0.2579	0.042	0.2999	1227.2889	0.137626	-417.997315	-417.989489	-417.988544	-418.030298	29.161	
N	-0.1210769205	-1.1120423686	-0.1559561422	-0.31001
C	-0.0650338353	 0.0411884379	-0.1152850013	 0.269541
C	-0.0041041478	 1.4980669782	-0.0364676256	-0.351022
C	 1.431828742	 2.0330133199	 0.0678098866	 0.139585
O	 2.1221829223	 1.6608379821	-1.1196699085	-0.265374
C	 3.038947199	 2.6815345292	-1.5066603447	-0.075845
C	 2.5203609138	 3.9555216944	-0.8754919137	-0.053696
N	 1.0831146391	 4.171396433	-1.1386529705	-0.329253
C	 1.5153317848	 3.5479117639	 0.1293626048	-0.094605
H	-0.4629939331	 1.9374131008	-0.9269321882	 0.174194
H	-0.5811006957	 1.8222987131	 0.837241819	 0.142704
H	 1.9238885876	 1.6071393598	 0.9565275404	 0.089364
H	 4.0535846114	 2.4689903378	-1.1360596459	 0.09999
H	 3.0597560728	 2.7069807885	-2.6004527721	 0.122798
H	 3.1806667007	 4.8032105101	-0.7294273884	 0.10261
H	 0.854415315	 5.1480325005	-0.9699016148	 0.23846
H	 1.3778613037	 4.0632852496	 1.0735621851	 0.100557
67.5542	105.439	154.0366	239.2229	335.1001	390.8514	399.0629	466.7991	557.3214	675.0635	762.3218	810.8806	836.5799	872.4308	880.1163	945.1813	955.5496	1003.237	1013.9576	1022.5464	1087.2911	1089.3508	1105.7904	1152.2288	1160.2292	1228.7484	1234.9994	1255.2172	1293.1432	1330.7472	1361.5388	1387.4176	1396.4296	1433.9336	1455.713	1509.2895	2365.6225	2981.4805	2991.7867	3050.0046	3081.1788	3106.6722	3172.2123	3182.5053	3504.0229
N#CCC1OCC2NC12	N#CC[C@H]1OC[C@H]2N[C@@H]12	
InChI=1S/C6H8N2O/c7-2-1-5-6-4(8-6)3-9-5/h4-6,8H,1,3H2	InChI=1S/C6H8N2O/c7-2-1-5-6-4(8-6)3-9-5/h4-6,8H,1,3H2/t4-,5-,6-/m1/s1
