18
gdb 98488	2.3394	1.34149	0.92803	2.2643	79.66	-0.2525	-0.0285	0.2241	1280.9755	0.14495	-401.911833	-401.902227	-401.901283	-401.946581	35.029	
C	 0.2974622847	 1.5783917263	-0.0466187818	-0.382328
C	 0.7431762847	 0.1195185609	-0.0028181003	-0.30765
C	 0.3747155675	-0.58365952	 1.2844957865	 0.338716
O	-0.2777576863	-0.0565650764	 2.1611957743	-0.331005
C	 0.8555963573	-2.0118328473	 1.4804290714	 0.039166
C	 1.4943106001	-2.2524439781	 2.8316778392	-0.244156
N	 0.1673322172	-2.763668878	 2.5571357269	-0.332458
C	 1.2933548612	-2.761886823	 0.3347768005	 0.238383
C	 1.6722148355	-3.3738843325	-0.6282457906	-0.397519
H	 0.7598225233	 2.1547799183	 0.7590271982	 0.130132
H	 0.5742870992	 2.0345785949	-1.0008041249	 0.113642
H	-0.7853246442	 1.6594821291	 0.0759436781	 0.134952
H	 0.3074631694	-0.4620815514	-0.8261876852	 0.144025
H	 1.8274879751	 0.0177537563	-0.1440558495	 0.13396
H	 2.2824155132	-2.9968730805	 2.8890184752	 0.137585
H	 1.6021127383	-1.3839507989	 3.4756498394	 0.134926
H	-0.5152039278	-2.112880236	 2.9514750904	 0.253037
H	 1.9984169016	-3.9245826639	-1.4757332876	 0.196591
61.0364	82.4368	130.8757	194.2594	212.246	225.3847	278.112	325.5613	369.2392	502.7691	523.2087	555.2297	589.7846	610.3428	665.4884	713.2313	800.1547	844.8286	862.632	952.2074	991.14	1010.9656	1046.1047	1077.7538	1104.3585	1124.3414	1156.8095	1251.344	1273.7727	1323.2866	1357.1656	1379.0201	1416.525	1440.7975	1492.8367	1494.9087	1498.8321	1782.586	2239.1344	3029.5072	3052.6831	3054.2036	3114.3616	3123.9368	3129.1183	3213.2794	3446.8047	3501.2968
CCC(=O)C1(CN1)C#C	CCC(=O)[C@]1(CN1)C#C	
InChI=1S/C7H9NO/c1-3-6(9)7(4-2)5-8-7/h2,8H,3,5H2,1H3	InChI=1S/C7H9NO/c1-3-6(9)7(4-2)5-8-7/h2,8H,3,5H2,1H3/t7-/m1/s1
