16
gdb 34099	3.43277	1.53165	1.31659	3.1829	71.78	-0.2522	0.0187	0.2709	963.4237	0.126447	-400.728986	-400.722218	-400.721274	-400.760061	27.006	
N	 0.0647642359	-1.1187507739	 0.0445170818	-0.337052
C	 0.0296049722	 0.0365350864	 0.0138097893	 0.174549
C	-0.0072615594	 1.4802537622	-0.018086041	 0.154358
C	-0.9760119463	 2.2095184213	 0.9863495242	-0.26954
C	-1.4178088754	 3.1180482492	-0.1592664903	-0.107122
C	-0.1923217784	 3.5650997868	-0.9303495093	 0.108893
O	 1.0615217784	 3.5420963152	-0.2824705742	-0.266421
C	 1.3671528109	 2.1768376969	-0.0030786777	-0.117454
C	-0.7407948358	 2.2080065105	-1.192268102	-0.160821
H	-1.7767772809	 1.5441619686	 1.3121370859	 0.131859
H	-0.4995695804	 2.6729441475	 1.8553577685	 0.117161
H	-2.3670428867	 3.6346536919	-0.2320868545	 0.100028
H	-0.2926283591	 4.3626571915	-1.6559116626	 0.116423
H	 1.858133669	 2.1188215311	 0.9723720862	 0.127719
H	 2.0315927484	 1.7555940244	-0.7708112133	 0.114064
H	-1.0673506925	 1.7789435005	-2.128998411	 0.113358
150.1319	159.7116	248.0389	366.2887	449.3835	516.8605	535.6244	558.4278	641.4651	722.7885	760.278	793.8221	845.4559	897.1108	936.8594	964.957	976.199	1016.6478	1027.0819	1038.2211	1069.3269	1108.0102	1112.9757	1137.9106	1171.7508	1201.4526	1228.6668	1251.8507	1278.9357	1307.0748	1373.2329	1404.111	1489.2818	1513.5702	2356.7432	3006.793	3058.7973	3094.5104	3129.3391	3186.6762	3199.7693	3217.7028
N#CC12CC3C(OC1)C23	N#C[C@@]12C[C@H]3[C@@H](OC1)[C@@H]23	
InChI=1S/C7H7NO/c8-2-7-1-4-5(7)6(4)9-3-7/h4-6H,1,3H2	InChI=1S/C7H7NO/c8-2-7-1-4-5(7)6(4)9-3-7/h4-6H,1,3H2/t4-,5+,6-,7+/m1/s1
