19
gdb 75955	1.94505	1.90263	1.06604	3.5601	76.23	-0.2466	-0.0357	0.2109	1143.4553	0.159126	-423.09011	-423.081395	-423.08045	-423.123728	32.555	
C	-0.0906436129	 1.5529926859	 0.0102274953	-0.394994
C	 0.1503403654	 0.0492834286	 0.0038579017	-0.189948
C	 0.8915108044	-0.4447545782	-1.2520126749	 0.375049
O	 1.2115514918	 0.3076281065	-2.1391459833	-0.293116
C	 1.2026442488	-1.9344164643	-1.2736998804	-0.293924
C	 1.9514283511	-2.3549053837	 0.0044062577	-0.221444
C	 1.1832758038	-1.9482976175	 1.2754764201	-0.29393
C	 0.8726481536	-0.4584226095	 1.2652475332	 0.375118
O	 1.1786754627	 0.2841038763	 2.1655341267	-0.293155
H	 0.8582556287	 2.0930227889	 0.0202836802	 0.139276
H	-0.640519941	 1.8545817395	-0.883407932	 0.123724
H	-0.6538903868	 1.8448926265	 0.8987388555	 0.123733
H	-0.8068879725	-0.4983813827	-0.0063217861	 0.113727
H	 0.2540446171	-2.4856837218	-1.3360285475	 0.116846
H	 1.7807280408	-2.1532672644	-2.1737520331	 0.126688
H	 2.1134500723	-3.4365381798	-0.0002456755	 0.11702
H	 2.9430966892	-1.8869449093	 0.0144962311	 0.125783
H	 0.2338108137	-2.5000159186	 1.3173028507	 0.116863
H	 1.7475624099	-2.1770710424	 2.1817949706	 0.126683
73.1432	99.8199	150.2223	202.0797	276.2999	276.7691	372.7323	387.7927	454.2242	550.8739	566.9439	601.6526	637.6486	782.1367	808.9305	854.8141	868.0659	899.0447	978.9022	1022.0657	1047.0487	1071.4731	1085.9049	1129.4268	1144.8118	1207.7222	1209.1268	1238.6094	1275.9501	1327.6577	1341.6048	1347.5873	1366.1615	1414.032	1464.7478	1473.1804	1483.387	1487.3807	1499.2797	1802.7048	1833.868	2980.9887	3020.3494	3020.5813	3041.6731	3064.7369	3089.7263	3114.5839	3116.1911	3141.2497	3142.2563
CC1C(=O)CCCC1=O	CC1C(=O)CCCC1=O	
InChI=1S/C7H10O2/c1-5-6(8)3-2-4-7(5)9/h5H,2-4H2,1H3	InChI=1S/C7H10O2/c1-5-6(8)3-2-4-7(5)9/h5H,2-4H2,1H3
