19
gdb 50352	4.6288	0.9793	0.88515	3.4426	84.02	-0.2373	-0.0244	0.2129	1323.112	0.159779	-385.883468	-385.875482	-385.874538	-385.916606	30.525	
O	-0.0036789292	-0.1067531575	 0.1376054389	-0.249723
C	 0.0359082639	 1.0954321562	 0.1034728113	 0.158207
C	 1.2972247172	 1.9343160874	 0.0786153666	-0.087479
C	 1.3373046919	 2.8508652822	-1.2005979047	-0.281711
C	 2.0250738675	 4.1366122999	-0.7072002847	-0.032534
C	 1.4050996728	 5.5820491156	-0.6621614255	-0.241652
C	 1.694821403	 5.6153043904	 0.8869697351	-0.319119
C	 1.7920227042	 4.1112595959	 0.7751153608	 0.315403
C	 1.3198835637	 2.9543205926	 1.2260693257	-0.274272
H	-0.9015527925	 1.7028549055	 0.082335831	 0.067335
H	 2.1457804422	 1.2399711862	 0.1099303775	 0.095764
H	 1.836563925	 2.3592697637	-2.0391730395	 0.110681
H	 0.3076157904	 3.0709330062	-1.511365526	 0.104435
H	 3.0831505091	 4.1854052453	-0.9909783793	 0.082133
H	 1.8857145462	 6.3518001434	-1.269865986	 0.104768
H	 0.3316672613	 5.5696667867	-0.8669469625	 0.110848
H	 2.6550237408	 6.0974652353	 1.0976756056	 0.117424
H	 0.9360530825	 6.0306762496	 1.5535277925	 0.115441
H	 0.9345487398	 2.7327510453	 2.2145024632	 0.10405
63.8321	79.8405	182.9069	292.9159	306.8206	369.3481	409.34	419.1915	596.7512	674.0739	686.7882	785.4882	811.3227	838.6874	868.5132	903.0859	917.011	942.8212	959.1003	998.9524	1049.4414	1068.5503	1078.3497	1114.899	1138.7224	1176.0451	1192.0926	1225.5224	1232.0655	1251.3753	1257.5182	1265.5039	1296.4433	1334.3252	1341.4552	1422.7193	1471.0574	1480.3971	1486.291	1728.8784	1833.1852	2838.4464	3024.4483	3032.0381	3035.6113	3051.5025	3063.6506	3101.3365	3109.1431	3127.9235	3199.0284
O=CC1CC2CCC2=C1	O=C[C@H]1C[C@H]2CC[C]2[CH]1	
InChI=1S/C8H10O/c9-5-6-3-7-1-2-8(7)4-6/h3,5-6,8H,1-2,4H2	InChI=1S/C8H10O/c9-5-6-3-7-1-2-8(7)4-6/h3,5-6,8H,1-2,4H2/t6-,8-/m1/s1
