16
gdb 47177	2.29261	1.7884	1.18893	3.5932	72.3	-0.2742	-0.0542	0.22	1037.585	0.125267	-437.928965	-437.921219	-437.920275	-437.961717	29.05	
N	 0.1736357429	 0.6256012299	-0.9692588742	-0.462548
C	-0.1153530191	-0.0062700393	 0.079507953	 0.377332
C	-1.5029894636	-0.5105188028	 0.3735778721	-0.25617
C	-1.5050102532	-1.7950470118	 1.224092628	-0.279249
C	-0.5047560722	-2.812497291	 0.7345366992	-0.055557
C	 0.8167537314	-2.61397214	 0.7051513589	-0.170315
C	 1.4910783163	-1.4036718808	 1.2320061029	 0.378412
O	 2.5547732713	-1.4195012929	 1.7826773299	-0.308973
O	 0.8248602181	-0.1984743159	 1.102784572	-0.247091
H	 1.1530750327	 0.9171042222	-0.9570958848	 0.237786
H	-2.0551154416	 0.2752618054	 0.9036607059	 0.137889
H	-2.0035301645	-0.6589518315	-0.5858939429	 0.143393
H	-1.2710255696	-1.5314761143	 2.2617959192	 0.139896
H	-2.5106467644	-2.2218128375	 1.2285802619	 0.118308
H	-0.8862144439	-3.7742732771	 0.4016821383	 0.118587
H	 1.4990072595	-3.3996255825	 0.4005697205	 0.128302
70.8915	97.4482	177.3351	289.9711	343.7271	389.399	439.2631	522.1508	540.0712	621.2497	666.4273	712.7366	785.2761	829.5439	863.9623	877.8492	942.2776	968.3643	1008.761	1024.6092	1052.7031	1087.3909	1147.5545	1200.4102	1230.5552	1259.676	1318.1491	1337.6407	1371.9029	1409.1504	1466.1113	1492.9044	1691.0284	1763.2934	1844.3601	3040.1529	3047.5802	3099.1125	3115.4371	3164.8582	3203.0217	3471.6027
N=C1CCC=CC(=O)O1	[NH][C]1CCC=CC(=O)O1	
InChI=1S/C6H7NO2/c7-5-3-1-2-4-6(8)9-5/h2,4,7H,1,3H2	InChI=1S/C6H7NO2/c7-5-3-1-2-4-6(8)9-5/h2,4,7H,1,3H2
