18
gdb 5914	3.33291	1.36031	1.22881	2.2844	73.63	-0.2524	-0.0249	0.2275	1057.678	0.149507	-347.789926	-347.780394	-347.77945	-347.823891	34.47	
C	 0.2103388045	 1.6587599316	 0.2719973471	-0.423123
C	 0.0978261513	 0.1347430234	 0.063721715	 0.145642
C	 0.7934653584	-0.6065462651	 1.2235774852	-0.423119
C	-1.3786774662	-0.3080852248	-0.0856613784	-0.377505
C	-2.1960716822	-0.0258123339	 1.0873918941	 0.300106
C	-2.8590542516	 0.2127556968	 2.0619185863	-0.442078
C	 0.8505454213	-0.2084001074	-1.2143406229	 0.149372
O	 0.3782600332	-0.7384791643	-2.1864428994	-0.256687
H	 1.2577117428	 1.9733777233	 0.3277455175	 0.118123
H	-0.2674114337	 2.2089007974	-0.5452334197	 0.12606
H	-0.2814188566	 1.9429628552	 1.2060846278	 0.141928
H	 0.3093582969	-0.3519417297	 2.1701153889	 0.14193
H	 0.736755387	-1.6921927551	 1.0934979289	 0.126064
H	 1.8497918041	-0.3267039288	 1.293894435	 0.118123
H	-1.8082056351	 0.1838930338	-0.9658115197	 0.140019
H	-1.4054028313	-1.3808294283	-0.3086183802	 0.140027
H	-3.4606008273	 0.4155771811	 2.9130787492	 0.194583
H	 1.9279160545	 0.0807624547	-1.1864327148	 0.080537
66.6916	100.7515	136.6408	217.4635	231.7849	253.3054	311.925	340.0306	351.1569	362.1245	388.0902	515.4592	618.3713	630.1764	641.4232	751.6972	892.1447	898.4735	947.0847	963.9826	983.5146	994.2886	1056.1525	1143.5758	1218.6716	1254.7582	1283.53	1349.4998	1393.9167	1407.3703	1426.8292	1459.1814	1483.0145	1487.8961	1504.1528	1510.3584	1829.1368	2234.9643	2852.8711	3032.7125	3035.7879	3041.6876	3073.0863	3101.494	3104.0316	3118.6832	3120.8212	3505.1519
CC(C)(CC#C)C=O	CC(C)(CC#C)C=O	
InChI=1S/C7H10O/c1-4-5-7(2,3)6-8/h1,6H,5H2,2-3H3	InChI=1S/C7H10O/c1-4-5-7(2,3)6-8/h1,6H,5H2,2-3H3
