19
gdb 80637	2.83294	1.5569	1.26667	1.4382	80.72	-0.2564	0.0383	0.2947	1045.3836	0.159957	-385.8448	-385.836777	-385.835833	-385.877073	32.071	
O	-0.1819683187	 1.4276093901	 0.0590686031	-0.444955
C	-0.0972699575	 0.0255805727	-0.0264487407	 0.13871
C	-1.4867077176	-0.6052177384	-0.2180659315	-0.025031
C	-1.133460856	-2.0436400179	-0.6885029458	-0.245933
C	-0.6121994242	-1.2903219069	-1.9456203752	-0.019187
C	-1.7799606345	-0.2919536585	-1.7120594799	-0.224311
C	 0.6038685778	-0.5357183836	-1.344725176	-0.223044
C	 1.1743941833	 0.5059882452	-2.1784533641	 0.284598
C	 1.6433889417	 1.4080226403	-2.8240636606	-0.434711
H	 0.4909830133	 1.811042432	-0.5177790662	 0.284292
H	 0.4103169868	-0.3712105633	 0.8637038672	 0.06889
H	-2.2100160825	-0.4085767192	 0.5727113038	 0.069654
H	-0.4166161471	-2.6256493294	-0.0993992137	 0.089074
H	-2.0203140904	-2.6448112726	-0.8987749861	 0.101297
H	-0.447109213	-1.7869360862	-2.9015971707	 0.070365
H	-2.7392969009	-0.6948167745	-2.0433269347	 0.096946
H	-1.6585547989	 0.7393348003	-2.0478608534	 0.109128
H	 1.3953491522	-1.2437112259	-1.0755397354	 0.103689
H	 2.0643311359	 2.1783464856	-3.4221823201	 0.200529
96.3293	147.0483	204.7993	228.5	345.4601	389.6705	454.3327	472.5195	528.4182	576.9934	625.592	649.974	743.7645	786.835	817.7744	843.694	860.2502	887.4435	936.9897	959.3335	1007.329	1031.8826	1052.9378	1066.6233	1082.4514	1108.6436	1109.3711	1141.5335	1191.9292	1223.0866	1242.0359	1257.5934	1283.7647	1290.8397	1313.3553	1341.0645	1383.6589	1398.2871	1485.289	1517.5171	2221.8137	2998.1841	3042.7648	3047.0368	3073.7096	3114.189	3117.7985	3124.1666	3135.2866	3500.1384	3753.1149
OC1C2CC(C2)C1C#C	O[C@H]1[C@@H]2C[C@@H](C2)[C@H]1C#C	
InChI=1S/C8H10O/c1-2-7-5-3-6(4-5)8(7)9/h1,5-9H,3-4H2	InChI=1S/C8H10O/c1-2-7-5-3-6(4-5)8(7)9/h1,5-9H,3-4H2/t5-,6+,7-,8+/m1/s1
