15
gdb 75317	2.66064	1.69194	1.18015	2.0264	73.83	-0.2326	-0.0051	0.2275	1022.4368	0.112293	-416.765299	-416.757391	-416.756447	-416.797356	30.753	
N	 0.0108310437	 1.310716112	 0.142974431	-0.579366
C	-0.0338004801	-0.0471751814	 0.0170212849	 0.324069
N	-1.1000376739	-0.7354879396	-0.1544577824	-0.307373
C	-0.764620219	-2.1621489554	-0.0815235521	-0.189431
C	 0.7511717111	-2.2559918982	 0.0277977127	-0.053716
O	 1.4282863768	-1.6480247954	-1.0713353725	-0.289885
C	 1.2392812986	-0.8628133647	 0.1326405834	 0.199821
C	 2.4033520937	-0.3880866434	 0.8133653688	 0.189981
C	 3.3584988858	 0.0703769499	 1.3819777661	-0.368184
H	 0.8775028844	 1.7728233017	-0.0798788657	 0.263175
H	-0.8316014392	 1.8042786421	-0.1100859487	 0.263103
H	-1.246411972	-2.6218268765	 0.7911532439	 0.112804
H	-1.1326476022	-2.6870461592	-0.9710456262	 0.123608
H	 1.263919991	-3.0918154396	 0.4956498747	 0.112942
H	 4.208522611	 0.4547788078	 1.8900101123	 0.198452
122.8464	140.8922	227.39	294.0388	337.6972	380.8881	413.2715	490.5398	507.1001	544.4264	583.1731	626.9366	660.3575	671.4693	716.1062	782.9273	836.489	897.2923	938.5577	978.1118	1007.2013	1080.4887	1150.7614	1175.1003	1212.1137	1279.8765	1322.529	1400.4723	1417.3063	1475.7874	1622.7176	1722.5854	2239.855	3024.9893	3061.9773	3159.208	3499.4864	3584.5498	3703.4695
NC1=NCC2OC12C#C	NC1=NC[C@H]2O[C@@]12C#C	
InChI=1S/C6H6N2O/c1-2-6-4(9-6)3-8-5(6)7/h1,4H,3H2,(H2,7,8)	InChI=1S/C6H6N2O/c1-2-6-4(9-6)3-8-5(6)7/h1,4H,3H2,(H2,7,8)/t4-,6-/m1/s1
