21
gdb 118951	3.05913	0.91161	0.8675	1.1295	74.91	-0.2444	0.0638	0.3081	1439.2106	0.179718	-461.336079	-461.32553	-461.324586	-461.372094	37.757	
C	-0.0464413771	 1.6548846867	 0.1818286272	-0.429178
C	-0.0328920087	 0.1334682444	 0.0968290423	 0.391057
C	-1.3892994723	-0.4827614972	-0.2391070671	-0.217125
C	-1.9417049443	-0.075263653	-1.6009522548	-0.087792
O	-3.1123636525	-0.8499873498	-1.8285898653	-0.423417
O	 0.9851021592	-0.3196440756	-0.8531616229	-0.327329
C	 1.8095023396	-0.860480413	 0.1949740915	-0.103434
C	 0.7261179734	-0.5734751297	 1.2559715381	 0.006763
O	 1.0604773445	 0.2735807735	 2.328585099	-0.42487
H	 0.9256305572	 2.032647883	 0.5029554973	 0.12906
H	-0.2774156805	 2.0809218419	-0.7983540494	 0.120422
H	-0.7972886346	 1.999629583	 0.8992391069	 0.120224
H	-1.2928609802	-1.5743047692	-0.2378222508	 0.10351
H	-2.1115656072	-0.2209060332	 0.5441486765	 0.104911
H	-2.1753928536	 0.9999584407	-1.618136326	 0.085148
H	-1.177382549	-0.2640562302	-2.3688438504	 0.10764
H	-3.4513656502	-0.6270293492	-2.7002743328	 0.284418
H	 2.0724943061	-1.9099198428	 0.0156321977	 0.097488
H	 2.7251922987	-0.2748709729	 0.351837068	 0.097922
H	 0.2073862424	-1.4740303254	 1.6070574611	 0.074606
H	 1.4537259291	-0.257816192	 3.026999754	 0.289976
54.0005	90.9741	96.1067	143.3248	195.2989	201.335	261.3244	278.2106	290.4777	335.3046	356.8731	424.6545	456.7719	569.2337	694.7622	786.437	800.0827	875.5938	910.0496	962.1492	999.6434	1017.5245	1022.9344	1068.013	1074.7953	1125.1828	1155.8955	1166.3094	1181.6218	1206.3706	1238.4963	1259.252	1285.4049	1309.0365	1326.1474	1332.9573	1358.5427	1404.3	1442.2863	1459.6748	1477.0823	1485.7255	1495.2185	1514.9645	1531.1329	2981.5671	3006.5962	3016.7239	3020.9231	3033.1238	3049.578	3058.9078	3079.4963	3118.7609	3138.7308	3830.5925	3830.6611
CC1(CCO)OCC1O	C[C@@]1(CCO)OC[C@H]1O	
InChI=1S/C6H12O3/c1-6(2-3-7)5(8)4-9-6/h5,7-8H,2-4H2,1H3	InChI=1S/C6H12O3/c1-6(2-3-7)5(8)4-9-6/h5,7-8H,2-4H2,1H3/t5-,6+/m1/s1
