19
gdb 115690	1.92716	1.72128	1.08517	2.8718	72.24	-0.2262	0.032	0.2582	1161.3167	0.159462	-456.342564	-456.333178	-456.332234	-456.377302	34.148	
C	-0.4906268906	 1.293893155	-1.3839975449	-0.262112
O	 0.1395575764	 0.4242943391	-0.4515226078	-0.241274
C	 0.9130279685	-0.5744061788	-1.0447827994	 0.134672
C	 1.7833127234	-1.32789723	-0.0151985101	-0.194591
N	 0.9620703723	-2.5552280371	-0.1905673757	-0.332906
C	 0.2153061506	-1.9582034953	-1.3267833217	-0.131118
C	-1.3066569278	-1.9775578124	-1.2009988517	 0.417005
N	-1.755105097	-2.5668098708	-0.0694833622	-0.51454
O	-2.018975556	-1.5021991024	-2.0702711031	-0.386973
H	 0.2594466797	 1.8177917833	-1.9961810111	 0.100068
H	-1.1795028266	 0.7491735539	-2.037484263	 0.154403
H	-1.0457778615	 2.0308832354	-0.799341271	 0.123834
H	 1.4587784422	-0.1798538118	-1.911291606	 0.073268
H	 2.8329170085	-1.4283929735	-0.3127870191	 0.101656
H	 1.7349012084	-0.9106304385	 0.9951402657	 0.11891
H	 1.4894721796	-3.3878716964	-0.4247623662	 0.225164
H	 0.4685576637	-2.3567731823	-2.3155593036	 0.091336
H	-1.0740339174	-2.835360224	 0.6248847644	 0.26584
H	-2.7389492864	-2.5482060134	 0.1387809867	 0.257358
45.7495	95.4348	141.0865	165.7255	194.743	278.9887	279.896	362.151	395.3597	461.2556	502.1447	540.1393	653.3273	681.2887	774.688	797.145	831.4863	940.9514	966.0827	1005.2299	1031.2244	1056.1158	1090.0512	1114.503	1145.2231	1156.5322	1190.069	1214.0851	1251.9801	1268.008	1297.9697	1337.1829	1356.9692	1390.9108	1403.098	1482.3925	1491.9829	1505.6232	1517.3723	1578.3063	1786.7905	2987.6241	3014.1551	3034.4398	3047.8345	3081.0445	3087.9827	3128.2958	3543.4045	3569.4422	3722.1151
COC1CNC1C(N)=O	CO[C@H]1CN[C@H]1C(=O)N	
InChI=1S/C5H10N2O2/c1-9-3-2-7-4(3)5(6)8/h3-4,7H,2H2,1H3,(H2,6,8)	InChI=1S/C5H10N2O2/c1-9-3-2-7-4(3)5(6)8/h3-4,7H,2H2,1H3,(H2,6,8)/t3-,4+/m0/s1
