20
gdb 6453	4.18499	1.26807	1.16822	2.8647	75.85	-0.2444	-0.0162	0.2282	1115.5915	0.174985	-349.016177	-349.007211	-349.006267	-349.049661	33.052	
C	-0.9151725448	 1.0189284095	-0.4462930944	-0.410366
C	 0.1347427453	-0.0554131898	-0.2076886492	 0.059094
C	 1.4265112647	-0.0335361818	-1.0687809404	-0.279559
C	 2.2887279272	-0.3269421026	 0.2115226616	 0.221028
C	 3.5513217445	 0.4934581058	 0.4216660388	-0.459135
C	 1.021366237	 0.0439991406	 1.0629936051	-0.279531
C	 2.5607124114	-1.8082255478	 0.3172236707	 0.140739
O	 3.6361294182	-2.3042887055	 0.5402523839	-0.264913
H	-0.4703005921	 2.0195619505	-0.3981318922	 0.112181
H	-1.3809345358	 0.9081462088	-1.4318730209	 0.117676
H	-1.7110787976	 0.9713147655	 0.3052662176	 0.117676
H	-0.3355863662	-1.0434285822	-0.2611365772	 0.076626
H	 1.4979359769	-0.7452253199	-1.8963819672	 0.104509
H	 1.6489930093	 0.9660800981	-1.4545882182	 0.105471
H	 3.3330068336	 1.5627187301	 0.3414667774	 0.104377
H	 3.9843513078	 0.3009748001	 1.4078622334	 0.12821
H	 4.3128511873	 0.2383848926	-0.3214160968	 0.128182
H	 1.1003590858	 1.0710936603	 1.4323417042	 0.105476
H	 0.7751262857	-0.6068637823	 1.9069499557	 0.104522
H	 1.6609703818	-2.4523553401	 0.1692517082	 0.067735
73.2208	81.96	195.9618	221.3845	249.6727	270.0489	296.2881	324.5521	406.07	409.8072	474.0442	662.5959	763.8034	819.7934	847.8657	867.4845	906.0783	925.9759	942.4203	1003.1305	1007.438	1079.1664	1092.9179	1136.331	1165.3829	1190.974	1220.6202	1239.7133	1275.3275	1293.7911	1330.7946	1376.2335	1409.4988	1411.8454	1438.3616	1470.8903	1485.7933	1487.07	1493.6459	1495.3565	1498.5159	1823.6478	2844.4661	3022.8257	3037.7817	3038.791	3044.6632	3049.0051	3089.8946	3093.0011	3098.1655	3101.9061	3111.4249	3112.3439
CC1CC(C)(C1)C=O	C[C@H]1C[C@@](C)(C1)C=O	
InChI=1S/C7H12O/c1-6-3-7(2,4-6)5-8/h5-6H,3-4H2,1-2H3	InChI=1S/C7H12O/c1-6-3-7(2,4-6)5-8/h5-6H,3-4H2,1-2H3/t6-,7-
