17
gdb 48587	3.38478	1.45504	1.27345	1.9695	71.67	-0.2509	-0.0296	0.2213	1001.2686	0.136689	-421.783487	-421.776475	-421.775531	-421.815225	27.809	
O	-0.66068314	 0.7925913927	 0.675284741	-0.24895
C	 0.1149334231	 1.0097837683	-0.2231543976	 0.028045
C	 1.3474054978	 1.8392173377	-0.0942517548	 0.221145
C	 1.8251948294	 2.4732857662	 1.2556186934	-0.258521
C	 3.1947464625	 2.5305047226	 0.4891722796	-0.089332
C	 2.7712843326	 1.18793439	-0.164434594	-0.266751
C	 2.8287081694	 3.557442539	-0.6045446235	 0.046264
O	 2.6438701864	 3.024106248	-1.9273357478	-0.250744
C	 1.5216771828	 3.0655376707	-1.038165969	-0.019632
H	-0.0463252554	 0.5756300273	-1.2374215956	 0.078215
H	 1.3687541716	 3.4201546057	 1.5559244283	 0.102947
H	 1.8115104816	 1.7642298891	 2.0854994638	 0.117256
H	 4.1474076193	 2.6446880927	 1.0038824471	 0.075562
H	 2.8553584655	 0.3522610096	 0.5313011321	 0.11185
H	 3.1707416095	 0.938982702	-1.144957639	 0.128875
H	 3.110984203	 4.6025984168	-0.5426131358	 0.109619
H	 0.6790408408	 3.6767373518	-1.3425678482	 0.114152
67.7375	167.901	264.4833	357.2792	404.4782	469.1302	514.259	592.5777	685.1573	707.4552	798.4508	816.1704	854.5891	882.5538	895.5768	915.5411	957.3495	968.5254	997.5306	1010.3797	1051.2009	1060.9009	1089.7545	1101.0743	1168.7251	1189.0271	1216.0153	1231.7929	1255.523	1258.7271	1293.3285	1313.9972	1395.2171	1424.6325	1475.6516	1514.0794	1817.1425	2862.171	3065.754	3095.2115	3128.6647	3134.015	3171.172	3173.0984	3185.6399
O=CC12CC(C1)C1OC21	O=C[C@@]12C[C@@H](C1)[C@H]1O[C@@H]21	
InChI=1S/C7H8O2/c8-3-7-1-4(2-7)5-6(7)9-5/h3-6H,1-2H2	InChI=1S/C7H8O2/c8-3-7-1-4(2-7)5-6(7)9-5/h3-6H,1-2H2/t4-,5-,6-,7+/m1/s1
