21
gdb 88582	3.26119	1.10106	0.94156	1.9523	85.02	-0.2311	0.0128	0.244	1321.5459	0.183211	-387.086686	-387.077888	-387.076944	-387.120973	33.637	
O	 0.01869956	 1.1604428485	-0.7803108718	-0.429891
C	-0.0057731216	-0.0938514425	-0.1722840621	 0.141716
C	-0.178867587	-0.2191859254	 1.3192244523	-0.328484
C	-1.2922966649	-0.6650304957	 0.3794580675	-0.179878
C	-2.5541014799	 0.1150290229	 0.2790725638	 0.295368
C	-3.0956430524	 0.6052068435	-0.8453354487	-0.171484
C	-4.4269672294	 1.275429233	-0.6066360655	-0.245885
C	-4.4676430238	 1.426587164	 0.9361500784	-0.207114
C	-3.4531365984	 0.3884092902	 1.4723346457	-0.296633
H	-0.878317546	 1.5166808931	-0.7449764729	 0.274871
H	 0.6799530195	-0.7787738326	-0.6627708564	 0.098423
H	 0.3809246573	-0.9731481593	 1.8625064237	 0.109025
H	-0.3304150749	 0.7101954839	 1.859119295	 0.113694
H	-1.4157922044	-1.7413510708	 0.2768007913	 0.099487
H	-2.6716336794	 0.4789643472	-1.8366340584	 0.103128
H	-4.5288362641	 2.2338562201	-1.1277008934	 0.103737
H	-5.2446141169	 0.6393882935	-0.9759034537	 0.106692
H	-4.1346161945	 2.4330986231	 1.2093924199	 0.105039
H	-5.4706024954	 1.2957487411	 1.3495664866	 0.098595
H	-3.9463816318	-0.54366318	 1.784869573	 0.104892
H	-2.8992130221	 0.7448702321	 2.3470881457	 0.104701
31.4914	114.6527	146.2399	180.3006	265.102	302.9147	368.4056	412.9785	488.258	529.0194	618.7569	687.3746	794.8874	807.7924	817.514	852.5443	878.4089	903.5083	914.7201	936.8545	966.1535	1014.9667	1029.8227	1048.6108	1055.3221	1080.2359	1117.1293	1142.6092	1150.2518	1169.8584	1228.131	1229.2875	1241.0246	1273.3382	1318.4615	1328.0674	1343.6053	1355.9281	1378.1352	1428.9453	1481.2016	1483.3272	1486.8843	1505.5347	1687.3614	3003.1493	3004.2949	3045.4708	3058.5679	3067.7601	3102.575	3118.2299	3126.0194	3149.08	3183.462	3215.5305	3750.207
OC1CC1C1=CCCC1	O[C@H]1C[C@H]1C1=CCCC1	
InChI=1S/C8H12O/c9-8-5-7(8)6-3-1-2-4-6/h3,7-9H,1-2,4-5H2	InChI=1S/C8H12O/c9-8-5-7(8)6-3-1-2-4-6/h3,7-9H,1-2,4-5H2/t7-,8-/m0/s1
