17
gdb 13527	2.87838	2.01008	1.33937	5.8298	63.95	-0.2496	0.0231	0.2727	921.8418	0.143589	-401.02319	-401.01548	-401.014535	-401.0557	28.773	
N	-0.113213821	 1.7417754054	 0.0098557053	-0.546679
H	-0.1012225063	 0.9353767034	-0.6067296629	 0.248971
H	 1.539211431	 1.5355810378	 0.7464784129	 0.310451
H	-0.5442805577	 2.5045049277	-0.498024685	 0.246732
C	-0.8190007611	 1.4427736797	 1.2591032599	 0.041464
C	-1.6402311061	 0.136497682	 1.4213418414	-0.239145
C	-1.0854909221	 0.0048539737	 2.867977361	-0.220739
C	 0.030875966	 1.0170893512	 2.5050491033	-0.169808
C	 1.3942524262	 0.374096977	 2.2478565227	 0.393788
O	 1.8102710488	-0.5521789971	 2.8933982606	-0.333018
O	 2.1289360156	 0.9548653597	 1.2862110515	-0.380237
H	-1.4221769081	 2.3144771404	 1.527064707	 0.09127
H	-2.7217242293	 0.1968841356	 1.2792414119	 0.102955
H	-1.2468417361	-0.6549098155	 0.7730791297	 0.10889
H	-1.7759396283	 0.3957419041	 3.6184537629	 0.103527
H	-0.7303463949	-0.9765688612	 3.1815026806	 0.134487
H	 0.2112322433	 1.8213236663	 3.226460667	 0.10709
56.9947	102.0588	238.3655	261.0217	271.5882	373.2128	423.263	538.9409	585.3312	638.418	732.8631	763.4078	809.5557	849.7183	916.3651	928.6854	943.6751	975.6385	1017.9541	1026.7045	1105.0921	1139.9425	1155.701	1220.0724	1237.8703	1250.1048	1262.6283	1265.8785	1280.8178	1341.241	1421.3877	1467.3056	1480.0118	1498.2099	1655.1326	1851.0627	3042.5271	3051.3385	3068.975	3080.2372	3107.4693	3145.1861	3336.3228	3512.5732	3597.511
[NH3+]C1CCC1C([O-])=O	N[C@H]1CC[C@H]1C(=O)O	
InChI=1S/C5H9NO2/c6-4-2-1-3(4)5(7)8/h3-4H,1-2,6H2,(H,7,8)	InChI=1S/C5H9NO2/c6-4-2-1-3(4)5(7)8/h3-4H,1-2,6H2,(H,7,8)/t3-,4+/m1/s1
