21
gdb 99877	1.98092	1.47062	1.07578	0.5537	80.91	-0.2577	0.0423	0.3	1242.4608	0.177124	-424.17903	-424.167675	-424.166731	-424.214791	41.321	
C	-1.1604854377	 0.1705200817	 0.5431998472	-0.249171
O	 0.2250072929	 0.1121943566	 0.2680445144	-0.277644
C	 0.6108389922	-0.5090670121	-0.9609415958	 0.167234
C	 0.2289497999	-1.9997258166	-1.006044811	-0.43926
C	 0.0097347064	 0.1955931223	-2.1073810082	 0.367533
C	-0.5052057922	 0.7791473308	-3.0234675026	-0.491237
C	 2.1531517179	-0.3057518555	-1.0020893392	 0.114302
C	 2.8794036536	-0.8951984092	 0.205727882	-0.426623
O	 2.5985835273	-0.8880261101	-2.2198143715	-0.436502
H	-1.71439668	 0.6654357078	-0.2645357897	 0.121781
H	-1.5942363894	-0.8243493486	 0.7124349431	 0.107923
H	-1.2658063366	 0.75631462	 1.4594511338	 0.125818
H	-0.847654085	-2.1274303934	-1.1357935862	 0.121721
H	 0.7361430858	-2.4758604835	-1.8467879762	 0.149462
H	 0.5314929169	-2.4913067667	-0.0776748936	 0.119627
H	-0.9459340697	 1.2930377218	-3.8418153078	 0.194531
H	 2.3087473841	 0.7828161028	-1.0155197284	 0.081667
H	 2.470058307	-0.4945056883	 1.1348790203	 0.140084
H	 2.7998891024	-1.9857450203	 0.2193337268	 0.122352
H	 3.9434990679	-0.6358297639	 0.1596513193	 0.101254
H	 3.5504782667	-0.7630445356	-2.2754187166	 0.285148
83.2269	97.4592	138.8195	165.9798	187.6526	199.4395	220.7898	238.285	265.5982	288.7509	340.6332	366.4384	421.0847	442.3943	502.2882	554.5399	619.6281	627.0163	656.1358	696.5084	872.5177	902.3379	934.8361	1010.7361	1067.7679	1091.135	1130.3379	1147.1596	1183.555	1186.4006	1194.3031	1236.0615	1281.1105	1375.6475	1387.3166	1399.295	1418.6703	1472.0159	1483.5285	1486.1857	1496.6613	1501.0887	1505.8383	1513.197	2228.4744	2997.0221	3003.1084	3036.2776	3055.5842	3062.3518	3103.2172	3117.1113	3131.2037	3143.5844	3148.6066	3500.4548	3830.9597
COC(C)(C#C)C(C)O	CO[C@@](C)(C#C)[C@@H](C)O	
InChI=1S/C7H12O2/c1-5-7(3,9-4)6(2)8/h1,6,8H,2-4H3	InChI=1S/C7H12O2/c1-5-7(3,9-4)6(2)8/h1,6,8H,2-4H3/t6-,7+/m1/s1
