20
gdb 71806	3.25123	1.64605	1.52339	1.1785	81.38	-0.2325	0.0853	0.3178	975.0774	0.173021	-365.952498	-365.945458	-365.944514	-365.98342	29.884	
C	-0.153727599	 1.5796143919	-0.0131366927	-0.484169
C	-0.0551756035	 0.0842904823	-0.0772989315	 0.32157
C	 0.6086142617	-0.7045421036	-1.2252805015	-0.296613
C	-0.1580845268	-1.9720662248	-0.750845364	-0.069001
C	 0.620668627	-2.7509110274	 0.3228359927	-0.047253
C	 1.894944518	-2.149501392	 0.8948244874	-0.302378
C	 0.5719574701	-1.849363002	 1.5330191363	 0.017649
N	-0.2226064916	-0.6711887737	 1.1916317281	-0.148126
C	-1.0856825613	-0.9960450415	 0.0689072924	-0.101573
H	 0.8214874879	 2.0269431803	 0.2134393994	 0.119946
H	-0.491965304	 1.9875909824	-0.9722464393	 0.113798
H	-0.8537815615	 1.8872117413	 0.7673638807	 0.131225
H	 0.191900514	-0.3397873594	-2.1699701007	 0.098517
H	 1.6961893031	-0.7426205281	-1.3247018767	 0.093366
H	-0.587161787	-2.5989061452	-1.5315506618	 0.066617
H	 0.4756943588	-3.823203161	 0.3957931226	 0.08292
H	 2.5450873917	-2.8264906081	 1.4411628062	 0.108189
H	 2.4281307076	-1.3697585817	 0.3683519654	 0.119102
H	 0.3671869745	-2.2178419716	 2.53279974	 0.090903
H	-2.1678862498	-0.9677136081	 0.1442083871	 0.085312
168.1798	187.0312	296.1296	318.8772	377.2487	483.2592	547.425	584.8256	671.9067	696.1812	730.1827	782.9796	788.1833	844.4054	849.6295	898.0774	912.2915	933.664	954.2907	998.4054	1011.8236	1022.3951	1041.6621	1064.9826	1075.9434	1103.8852	1107.4127	1137.365	1158.7175	1168.1561	1193.1588	1207.3989	1226.6928	1260.5712	1299.0431	1330.039	1367.1777	1393.5855	1426.5516	1479.6902	1484.7377	1492.0057	1522.4394	3027.1799	3047.3131	3084.9668	3091.4879	3119.7765	3121.9358	3136.6875	3156.7537	3163.4095	3169.0555	3230.0474
CC12CC3C4CC4N1C23	C[C@@]12C[C@H]3[C@H]4C[C@H]4N1[C@@H]23	
InChI=1S/C8H11N/c1-8-3-5-4-2-6(4)9(8)7(5)8/h4-7H,2-3H2,1H3	InChI=1S/C8H11N/c1-8-3-5-4-2-6(4)9(8)7(5)8/h4-7H,2-3H2,1H3/t4-,5+,6-,7-,8+,9?/m1/s1
