13
gdb 133344	3.23104	1.39342	0.97396	4.1538	65.49	-0.2291	-0.0497	0.1793	1082.4211	0.090326	-494.073056	-494.065663	-494.064719	-494.104794	28.441	
N	 0.0319694178	 1.4060943562	-0.1170734225	-0.593624
C	-0.0541043591	 0.043069484	-0.044858647	 0.256014
C	-1.2097503062	-0.6877125945	-0.0202165764	-0.343353
C	-1.1883794404	-2.1343851503	 0.0001175903	 0.446291
O	-2.1490207051	-2.8850764531	 0.0195705178	-0.404239
N	 0.1150947225	-2.662442656	-0.0017128525	-0.28675
N	 1.270921451	-1.9830671688	-0.0121242885	-0.248549
C	 1.1772433447	-0.7086918019	-0.0345109062	 0.318227
F	 2.3127674952	-0.0034547948	-0.0381358597	-0.077399
H	 0.9173846806	 1.8258690076	 0.1128971715	 0.271742
H	-0.7862016543	 1.9477703336	 0.1073319388	 0.268101
H	-2.1847635792	-0.2158474997	-0.0205641387	 0.117268
H	 0.2034636823	-3.6686468223	 0.015951953	 0.27627
121.6513	192.7606	304.3491	368.3431	381.2206	393.6414	415.5155	448.0338	471.6947	522.8179	601.2482	637.9514	724.071	737.3865	744.0317	794.2944	871.3083	950.7258	1091.6745	1217.7923	1251.5005	1289.2248	1312.869	1435.4001	1496.8287	1611.1868	1638.3986	1694.2996	1782.4121	3208.887	3603.1653	3613.917	3720.0795
NC1=CC(=O)NN=C1F	Nc1cc(=O)[nH]nc1F	
InChI=1S/C4H4FN3O/c5-4-2(6)1-3(9)7-8-4/h1H,(H3,6,7,9)	InChI=1S/C4H4FN3O/c5-4-2(6)1-3(9)7-8-4/h1H,(H3,6,7,9)
