20
gdb 22531	2.13607	1.31228	1.02709	2.1301	77.74	-0.2495	0.0024	0.2519	1260.1305	0.168285	-440.226581	-440.216456	-440.215512	-440.26157	37.349	
C	 0.5059281091	 1.138908137	-0.2187577629	-0.458926
C	 0.0224615976	-0.2591352121	 0.1435906199	 0.292545
C	 1.0600317275	-1.3179272917	 0.4332991425	-0.276215
C	 0.237078773	-0.7459879751	 1.5603041593	-0.327538
C	-1.2198446792	-0.6646499609	-0.5868312447	 0.232786
C	-2.5603576626	-0.6102494812	 0.1136564384	-0.100304
O	-3.6508700529	-0.9003597651	-0.7195266897	-0.425511
N	-1.2759657057	-1.0008274557	-1.8172990235	-0.191492
O	-0.0313843633	-1.0164548519	-2.4532778352	-0.398042
H	 1.4186972745	 1.3829287192	 0.3337622317	 0.114397
H	 0.7238636833	 1.2042372254	-1.2880058669	 0.140262
H	-0.246514125	 1.8965561265	 0.0267471684	 0.118826
H	 0.8533073278	-2.334039849	 0.1182206815	 0.122124
H	 2.1019173101	-1.0287490286	 0.349111544	 0.114638
H	 0.712658059	-0.0612870725	 2.2543062509	 0.11393
H	-0.5068766821	-1.3889772798	 2.0170746753	 0.116881
H	-2.5432329093	-1.3095197007	 0.9647725981	 0.106854
H	-2.668521612	 0.395325705	 0.5548861057	 0.107618
H	-3.2759207695	-1.0830927501	-1.5926558917	 0.289201
H	-0.2616107903	-1.2834893587	-3.349806311	 0.307966
53.4917	98.1611	172.7721	201.4976	216.6825	234.6812	287.8608	301.2538	306.4699	317.2437	411.5781	423.6907	472.291	607.0682	626.3495	728.5289	782.5358	867.5725	887.3297	937.7438	955.9777	1010.2376	1029.1525	1050.7445	1073.8643	1084.4947	1087.7063	1130.8049	1174.6764	1190.5062	1258.6246	1294.0742	1311.843	1357.1954	1401.7376	1410.0995	1458.3086	1470.1295	1488.0555	1501.0668	1505.3705	1509.3047	1729.5684	2965.6143	2983.6755	3032.1231	3096.7552	3119.4043	3133.1193	3139.3118	3212.2139	3228.2559	3724.0708	3815.8074
CC1(CC1)C(CO)=NO	CC1(CC1)C(=NO)CO	
InChI=1S/C6H11NO2/c1-6(2-3-6)5(4-8)7-9/h8-9H,2-4H2,1H3	InChI=1S/C6H11NO2/c1-6(2-3-6)5(4-8)7-9/h8-9H,2-4H2,1H3
