19
gdb 108261	2.54819	1.34186	1.28775	2.5102	70.74	-0.2462	0.048	0.2942	1100.9684	0.158197	-460.122396	-460.113515	-460.112571	-460.156204	33.522	
O	-0.1004350988	 1.4990133586	 0.2903881543	-0.422099
C	 0.0078355862	 0.0868117901	 0.213238514	-0.145016
C	-1.3266968778	-0.5284787216	-0.1221419196	 0.350713
C	-1.9212284782	-0.4797377484	-1.5508156075	-0.268234
C	-2.314651072	-1.9892776367	-1.4426889287	-0.303387
C	-1.7611821864	-2.0371450333	 0.0039456658	 0.294045
O	-0.9840525528	-3.1134776847	 0.422957014	-0.469428
C	-2.716587438	-1.5260302441	 1.0885907253	-0.109294
O	-2.3249072372	-0.1496001315	 0.8649940409	-0.344339
H	-0.8272519926	 1.6739150408	 0.9008473043	 0.29507
H	 0.7448042797	-0.1328271733	-0.5669307577	 0.100304
H	 0.3776904667	-0.3430221142	 1.1573740077	 0.094336
H	-2.7514009212	 0.2209874445	-1.647298727	 0.116745
H	-1.1868110476	-0.2724479286	-2.3328121607	 0.106588
H	-3.370930512	-2.2437446391	-1.5636321024	 0.108922
H	-1.7339367278	-2.6235052633	-2.1211057111	 0.095633
H	-0.4648547063	-3.4308540443	-0.3230370848	 0.282743
H	-3.7896530706	-1.6857046075	 0.9304189624	 0.102743
H	-2.4353003632	-1.8713599432	 2.090316591	 0.113955
66.5556	88.6862	130.9732	255.1834	292.7041	305.5939	335.7282	385.75	403.2511	454.135	548.7101	619.0574	654.8188	733.1052	761.3687	895.5598	906.3563	920.0572	939.631	988.6493	1002.9029	1041.4095	1065.8675	1104.6003	1120.8037	1132.307	1155.7039	1207.5138	1225.1341	1233.9599	1253.1871	1287.2182	1314.9241	1339.1484	1375.444	1403.9686	1434.9951	1464.3878	1482.6409	1499.4232	1514.5978	2983.395	3020.7906	3043.0452	3067.429	3072.5853	3073.3631	3097.1018	3135.2871	3786.7612	3814.7056
OCC12CCC1(O)CO2	OC[C@@]12CC[C@]1(O)CO2	
InChI=1S/C6H10O3/c7-3-6-2-1-5(6,8)4-9-6/h7-8H,1-4H2	InChI=1S/C6H10O3/c7-3-6-2-1-5(6,8)4-9-6/h7-8H,1-4H2/t5-,6-/m0/s1
