17
gdb 35816	3.04367	1.46655	1.15267	5.4695	71.96	-0.2507	0.0323	0.2831	1056.3128	0.139018	-418.000493	-417.993086	-417.992142	-418.032671	28.245	
N	-0.1093608819	-1.1323203113	-0.1706238195	-0.323306
C	-0.050470578	 0.0171845945	-0.0660558801	 0.284061
C	-0.0110897392	 1.4649213456	 0.0778462115	-0.18226
C	-0.4967228376	 1.9882865316	 1.4679648092	-0.201902
N	 0.067275492	 3.3344551958	 1.6025841437	-0.283864
C	 1.3578174655	 3.3119488054	 0.9257513665	-0.068236
C	 2.4731109699	 2.5556170251	 1.6800617829	-0.073228
O	 2.3761608446	 1.4229803611	 0.7834102225	-0.281449
C	 1.3982047991	 2.0803369441	-0.0351319709	 0.106096
H	-0.6342125735	 1.9087979264	-0.7093727141	 0.11965
H	-1.5836472915	 2.0041078511	 1.5610135648	 0.125556
H	-0.1008644	 1.3349045468	 2.2513570923	 0.14294
H	-0.5409329998	 4.0094117985	 1.1516370067	 0.227539
H	 1.6212724732	 4.2953945916	 0.5380632851	 0.089672
H	 3.4648171933	 3.0200153579	 1.6353348355	 0.110069
H	 2.2365976584	 2.2921123777	 2.7164594078	 0.118361
H	 1.7350289054	 2.1987149581	-1.0691565438	 0.090301
90.1938	141.8718	183.0772	242.1056	364.5361	420.5749	488.3654	535.887	639.8245	658.3565	777.0933	804.773	843.4294	861.634	906.034	958.8278	989.5691	1007.0774	1024.0052	1037.1804	1071.6966	1100.5387	1137.7886	1165.1587	1211.5866	1218.1467	1235.1428	1280.6902	1298.7276	1320.5656	1354.7885	1365.4717	1383.8904	1468.4054	1500.1142	1519.4777	2359.8312	3028.8723	3031.1175	3065.302	3069.1153	3081.5904	3121.9824	3128.7242	3528.8278
N#CC1CNC2COC12	N#C[C@H]1CN[C@H]2CO[C@@H]12	
InChI=1S/C6H8N2O/c7-1-4-2-8-5-3-9-6(4)5/h4-6,8H,2-3H2	InChI=1S/C6H8N2O/c7-1-4-2-8-5-3-9-6(4)5/h4-6,8H,2-3H2/t4-,5-,6-/m0/s1
