17
gdb 39921	3.30087	1.6231	1.41439	0.8315	72.97	-0.2372	-0.0104	0.2268	949.8209	0.137448	-421.783397	-421.776669	-421.775724	-421.814322	27.605	
C	-0.0155556746	 1.5082467223	-0.0060560674	-0.251826
O	 1.1868876111	 0.7367776664	 0.0005689496	-0.290854
C	-0.0729322766	 0.0396957172	-0.0041761985	 0.45271
C	-0.4169960405	-0.7406379187	 1.2190490725	-0.135979
C	-0.9651953329	-1.9451047801	 1.0440041946	-0.074685
C	-1.1832461052	-2.373846163	-0.3941707119	 0.032001
C	 0.1351165966	-2.1859825619	-1.1902910906	-0.252823
C	-0.3956020304	-0.7389890749	-1.2732976165	-0.017273
O	-1.753926661	-1.2445972216	-1.1342241633	-0.293156
H	-0.2243345903	 2.057308319	 0.9113211217	 0.116888
H	-0.2244195225	 2.0490870235	-0.9287424417	 0.118386
H	-0.1978299386	-0.3091170731	 2.1901454249	 0.104637
H	-1.2328029842	-2.6004030472	 1.8655400198	 0.102496
H	-1.770318842	-3.2860561269	-0.5109994789	 0.081537
H	 1.0819487357	-2.3765002607	-0.6841158237	 0.115979
H	 0.0989046091	-2.6741500721	-2.1652053598	 0.111517
H	-0.2399022137	-0.1512828883	-2.1810390306	 0.080445
118.0753	254.6282	317.4262	381.7632	431.7526	445.5391	448.3216	609.9927	658.3097	732.5993	757.3901	854.8108	864.5112	877.8413	905.5343	935.1251	951.0731	967.2616	972.0861	981.8168	1030.3797	1086.6756	1097.0883	1127.1489	1151.6342	1163.6077	1199.6024	1245.6519	1283.5652	1296.3311	1305.409	1335.1626	1371.2838	1436.698	1485.5532	1525.3774	1682.5825	3077.7788	3079.2131	3089.3969	3103.2417	3149.3162	3165.7307	3178.0355	3200.549
C1OC11C=CC2CC1O2	C1O[C@]21C=C[C@@H]1C[C@H]2O1	
InChI=1S/C7H8O2/c1-2-7(4-8-7)6-3-5(1)9-6/h1-2,5-6H,3-4H2	InChI=1S/C7H8O2/c1-2-7(4-8-7)6-3-5(1)9-6/h1-2,5-6H,3-4H2/t5-,6-,7+/m1/s1
