22
gdb 60228	2.8519	0.94187	0.8609	3.3284	83.29	-0.2442	0.0361	0.2802	1483.0505	0.193462	-404.382944	-404.372837	-404.371893	-404.418693	36.775	
C	-0.0493603551	 1.5462050593	-0.0247762317	-0.392692
C	-0.0057006377	 0.0135353466	 0.0316741761	 0.043046
C	 0.9173286883	-0.4575514855	 1.1644697132	-0.386289
C	-1.4340614934	-0.5530685908	 0.1679411506	-0.202512
C	-1.5308231599	-2.0655090719	-0.0228801196	-0.153175
C	-2.9539988767	-2.6900753143	-0.1723825331	-0.187285
N	-2.5444782277	-3.1404426245	-1.5050214257	-0.320984
C	-1.2894803039	-2.5846020201	-1.4667470846	 0.432726
O	-0.3951639069	-2.5264322824	-2.2701666299	-0.367217
H	 0.9545472214	 1.9651326292	-0.1488416081	 0.111148
H	-0.6644387484	 1.8985725068	-0.859549921	 0.110223
H	-0.4700411916	 1.9630978845	 0.8988487436	 0.10689
H	 0.4026598229	-0.3556840438	-0.9169456429	 0.110867
H	 1.0291158652	-1.5457862331	 1.1834645638	 0.115411
H	 1.9191796398	-0.0312383123	 1.0500910028	 0.113375
H	 0.5328418209	-0.1411530888	 2.1423342172	 0.105869
H	-1.8405185474	-0.285729105	 1.1538935794	 0.092521
H	-2.0813205792	-0.0663129082	-0.5738993009	 0.094291
H	-0.9172015599	-2.6026661395	 0.7049199669	 0.10246
H	-3.1927379628	-3.5006966178	 0.5232544483	 0.111091
H	-3.7702310534	-1.9596665343	-0.1791111754	 0.111054
H	-3.0446539745	-3.6126658344	-2.2435133089	 0.249182
44.1173	81.6627	96.8698	163.1835	204.9047	226.0545	258.1905	297.4792	345.7601	408.1928	424.3144	476.0125	497.5104	712.492	761.5951	811.365	819.3033	888.9267	931.568	936.2612	959.6979	969.0672	990.3364	1046.2252	1098.8221	1139.0452	1153.3503	1173.9807	1175.5709	1193.2316	1208.5128	1259.6406	1286.1463	1318.3544	1353.6002	1381.0876	1390.062	1395.0235	1403.3559	1423.2385	1481.6789	1489.4542	1496.7105	1504.8988	1510.7661	1526.8007	1881.7351	3000.747	3020.7659	3024.1906	3033.4404	3036.1602	3047.2878	3077.3126	3085.2548	3090.3947	3093.6624	3099.7301	3105.1223	3609.6099
CC(C)CC1CNC1=O	CC(C)C[C@H]1CNC1=O	
InChI=1S/C7H13NO/c1-5(2)3-6-4-8-7(6)9/h5-6H,3-4H2,1-2H3,(H,8,9)	InChI=1S/C7H13NO/c1-5(2)3-6-4-8-7(6)9/h5-6H,3-4H2,1-2H3,(H,8,9)/t6-/m0/s1
