14
gdb 11106	5.81778	1.16222	1.07036	2.9085	66.13	-0.2711	-0.012	0.2591	1085.5194	0.106624	-378.72257	-378.714725	-378.713781	-378.755479	26.986	
C	 0.3024505484	 1.4430438787	-0.0165786194	-0.343418
N	 0.3853656172	-0.0094480533	 0.0553281184	-0.310805
C	 0.4722863421	-0.6835889042	-0.9857221014	 0.473148
C	 0.5719492572	-2.1590333599	-1.3069340863	-0.392224
C	 0.573592412	-1.6657103664	-2.7789465154	-0.009811
O	 0.4991713264	-0.2847482043	-2.330675058	-0.261439
C	 1.7757354943	-1.9328984991	-3.5637200187	 0.283378
N	 2.7216601565	-2.1678517211	-4.1837487095	-0.305144
H	 1.133100758	 1.8723067982	 0.5529318836	 0.138091
H	 0.3274967651	 1.8434307522	-1.0361223653	 0.132595
H	-0.6226688193	 1.7687995474	 0.4701832171	 0.135581
H	 1.4910339314	-2.6428006182	-0.9755588353	 0.16282
H	-0.2908230551	-2.7609720125	-1.020445921	 0.152976
H	-0.313631484	-1.9319148874	-3.3597323988	 0.144253
67.5917	90.3117	156.1588	210.5286	240.6782	271.7024	477.8704	525.7787	551.4627	572.1966	730.7052	785.0342	940.4627	957.3016	1007.9302	1028.1379	1080.349	1096.1147	1127.7848	1138.2945	1179.2796	1240.959	1272.4943	1363.4871	1441.2475	1466.1986	1493.6632	1497.7233	1872.384	2364.1901	3024.2478	3081.2446	3094.113	3097.1258	3099.155	3158.5655
CN=C1CC(O1)C#N	CN=C1C[C@@H](O1)C#N	
InChI=1S/C5H6N2O/c1-7-5-2-4(3-6)8-5/h4H,2H2,1H3	InChI=1S/C5H6N2O/c1-7-5-2-4(3-6)8-5/h4H,2H2,1H3/t4-/m1/s1
