13
gdb 28265	5.09291	1.30439	1.05295	2.0436	60.09	-0.1765	0.0267	0.2031	1033.7018	0.091437	-489.873222	-489.866403	-489.865459	-489.904313	26.078	
O	 0.193782674	 1.2562158085	 0.1565067273	-0.407981
C	 0.1595905184	-0.0767486827	 0.0262221712	 0.419503
N	 0.0817628965	-0.7448644277	-1.1067940303	-0.43628
C	-0.1320392773	-2.020245808	-0.6585788447	 0.290402
C	-0.2100689675	-2.1170473869	 0.6851104503	 0.205953
N	 0.0922286456	-0.8476530673	 1.1653949643	-0.397385
O	 0.1053642009	-3.3934161217	 1.1144829772	-0.270962
C	-0.1519388444	-4.1201561853	-0.1062490287	 0.010426
O	 0.1005043008	-3.2461914998	-1.2231562348	-0.259235
H	 0.1721832934	 1.619749604	-0.7381034318	 0.320941
H	-0.1198783692	-0.4662959077	 2.0737434733	 0.279051
H	 0.5093966717	-4.9846425062	-0.1601228256	 0.137647
H	-1.2147846129	-4.4072075691	-0.1224790778	 0.107922
146.3162	258.1015	284.7291	312.6758	332.2511	403.9231	495.3974	548.0469	588.2978	624.1857	707.7229	743.8461	761.8836	876.5719	897.1015	1017.059	1052.5747	1132.0727	1134.5915	1177.2336	1246.3937	1272.7147	1380.1044	1417.0591	1474.7588	1512.5321	1515.6039	1601.3892	1652.8676	2982.2518	3138.8843	3645.0924	3801.9013
OC1=NC2=C(N1)OCO2	Oc1nc2c([nH]1)OCO2	
InChI=1S/C4H4N2O3/c7-4-5-2-3(6-4)9-1-8-2/h1H2,(H2,5,6,7)	InChI=1S/C4H4N2O3/c7-4-5-2-3(6-4)9-1-8-2/h1H2,(H2,5,6,7)
