23
gdb 112571	2.80321	1.13299	1.01323	1.2658	88.15	-0.2294	0.0189	0.2483	1350.7311	0.203654	-388.315276	-388.305214	-388.304269	-388.350195	38.051	
C	-0.2791759699	 1.48787898	 0.0886509946	-0.380032
C	-0.1644493664	-0.0382293309	 0.0791496301	-0.174462
C	 0.8432173563	-0.5627545118	 1.110172324	 0.075259
O	 0.4598218438	-0.1682045747	 2.4312870433	-0.314362
C	 0.3647977806	-1.3038776151	 3.3154688557	 0.332382
C	 1.4162859663	-1.152516459	 4.4259728609	-0.405374
C	-1.0509256959	-1.3445651201	 3.9072283308	-0.405503
C	 0.654783769	-2.4794393906	 2.410274278	-0.122464
C	 0.9351654139	-2.0636276962	 1.1825610997	-0.107526
H	 0.6789687618	 1.9576521605	-0.1613638877	 0.109962
H	-1.0206281583	 1.8341646826	-0.6377538896	 0.10698
H	-0.5761690126	 1.8408966784	 1.0796482083	 0.134338
H	-1.1399509131	-0.4939125055	 0.2868514685	 0.096619
H	 0.1463364717	-0.3881950387	-0.9142105196	 0.088223
H	 1.8290139178	-0.1192944615	 0.8809565606	 0.072698
H	 1.2333874181	-0.2345336043	 4.9927493725	 0.120322
H	 1.379426399	-1.9984510844	 5.1206351088	 0.107576
H	 2.4201847725	-1.1008364427	 3.9963852432	 0.117258
H	-1.7946795848	-1.4394205316	 3.1119674565	 0.116978
H	-1.1647055583	-2.1900952644	 4.5938822114	 0.108069
H	-1.2519811704	-0.4231067247	 4.4622062436	 0.120915
H	 0.6363224035	-3.503229031	 2.7638792779	 0.099699
H	 1.1914131152	-2.6780131242	 0.3280716887	 0.102442
50.7969	99.2547	140.8372	201.3702	213.3774	242.8446	263.955	316.8402	340.3949	364.334	419.6753	474.2723	546.3372	626.9139	731.0948	765.8739	799.0035	842.3534	868.352	895.0866	921.4894	950.5894	956.9283	990.0574	1009.5859	1022.411	1063.6702	1095.6513	1135.1006	1140.5559	1191.6492	1201.8736	1248.6135	1287.0327	1307.5138	1360.5689	1363.8308	1390.0905	1391.1811	1405.5593	1410.1775	1474.4267	1477.0423	1480.1647	1494.4123	1495.6197	1502.937	1508.8357	1693.5506	2934.6278	3020.3614	3033.0153	3034.564	3038.3895	3062.1044	3099.5408	3103.7861	3110.7009	3118.8246	3121.4897	3122.1604	3197.3751	3222.5412
CCC1OC(C)(C)C=C1	CC[C@H]1OC(C)(C)C=C1	
InChI=1S/C8H14O/c1-4-7-5-6-8(2,3)9-7/h5-7H,4H2,1-3H3	InChI=1S/C8H14O/c1-4-7-5-6-8(2,3)9-7/h5-7H,4H2,1-3H3/t7-/m1/s1
