17
gdb 96890	3.7611	0.87316	0.74549	3.6083	76.6	-0.2631	0.0146	0.2777	1491.4399	0.135072	-418.018821	-418.009658	-418.008714	-418.053938	31.848	
C	 0.0430497629	 1.5096428925	-0.4241944678	-0.342474
N	 0.0155099237	 0.0537179691	-0.468516034	-0.318118
C	-0.9515818262	-0.5588667866	 0.0242918063	 0.46949
C	-1.3438352163	-2.0141683197	 0.1640599979	-0.413049
C	-2.6014778821	-1.4384178005	 0.8507061818	 0.136373
C	-2.7873464052	-1.7722681769	 2.3302401607	-0.355022
C	-3.8685844769	-1.0083427181	 2.9498501022	 0.267597
N	-4.7322704127	-0.4108751832	 3.4305032236	-0.293917
O	-2.1013380151	-0.084402847	 0.6591143633	-0.269427
H	 0.9438972447	 1.8319642178	 0.108815503	 0.131877
H	 0.1222102452	 1.8941771597	-1.4465580867	 0.132533
H	-0.8326232193	 1.9603471337	 0.0563345866	 0.132018
H	-1.5122809843	-2.5403858521	-0.7764311224	 0.145362
H	-0.6857145636	-2.6094967676	 0.8010139265	 0.137616
H	-3.5369507702	-1.5744863478	 0.3016532692	 0.116626
H	-3.0080752373	-2.8416573931	 2.4311264042	 0.160781
H	-1.8540450272	-1.5767968302	 2.8696758755	 0.161731
53.9293	86.4266	87.893	134.5793	205.5814	226.8831	330.4781	385.7706	394.2738	501.9492	551.2332	563.692	709.6852	828.1087	877.8787	926.0931	962.7743	992.2449	1020.611	1053.688	1095.6282	1106.8951	1134.2096	1148.3022	1183.3157	1237.0186	1246.8191	1285.2261	1341.8013	1395.2909	1440.8535	1451.1617	1468.5911	1494.1303	1498.0007	1860.021	2368.6119	3021.7259	3043.3725	3075.6978	3082.6223	3089.0672	3093.6211	3093.9517	3139.8923
CN=C1CC(CC#N)O1	CN=C1C[C@@H](CC#N)O1	
InChI=1S/C6H8N2O/c1-8-6-4-5(9-6)2-3-7/h5H,2,4H2,1H3	InChI=1S/C6H8N2O/c1-8-6-4-5(9-6)2-3-7/h5H,2,4H2,1H3/t5-/m1/s1
