19
gdb 107845	3.59836	1.36398	1.31706	0.5662	73.85	-0.2398	0.0696	0.3093	1053.7648	0.159856	-422.98022	-422.972802	-422.971858	-423.012103	29.811	
C	-0.0078432423	 1.5338480811	-0.1736574599	-0.383687
C	-0.0431572667	 0.0139803544	 0.0316151386	-0.310081
C	-1.4353839199	-0.5476937657	 0.1057968331	 0.39841
C	-2.461374493	-0.1201172557	 1.1808442798	-0.246245
C	-3.3994016421	-1.2935315732	 0.8551696722	 0.021024
O	-2.5742921905	-2.4390226163	 1.2296143817	-0.296581
C	-1.8005093184	-2.1142503426	 0.0758843339	 0.003265
C	-2.9770347799	-1.499734307	-0.6767435132	 0.064053
O	-2.2416317977	-0.3628254735	-1.1129472333	-0.330924
H	 1.0221674987	 1.8871425349	-0.2771745392	 0.113793
H	-0.5570232252	 1.8122180395	-1.0773542468	 0.139373
H	-0.4595816741	 2.0620700706	 0.6718262175	 0.119307
H	 0.4874320725	-0.4813829942	-0.7902862188	 0.10723
H	 0.4816631318	-0.259430143	 0.9557084739	 0.107935
H	-2.1068575046	-0.1824049569	 2.2116033892	 0.109529
H	-2.8672747034	 0.8692325691	 0.9629341301	 0.111131
H	-4.4152236702	-1.3333933963	 1.2425670883	 0.085971
H	-1.0810775204	-2.8600656992	-0.2581539695	 0.09166
H	-3.6437935548	-1.9599334259	-1.4030600277	 0.094839
86.3619	164.9928	212.4906	297.8618	334.6838	451.0594	531.555	552.2114	630.3519	700.692	765.0549	768.6849	790.3017	845.1066	853.6948	876.3452	934.186	937.6091	968.1828	983.1702	1012.3364	1028.5348	1050.6769	1065.6404	1120.3675	1138.0348	1161.4227	1180.257	1209.317	1230.15	1262.1167	1273.1078	1309.8095	1322.0668	1348.4388	1393.7806	1411.0713	1461.7747	1474.8697	1500.1749	1509.0703	3027.8582	3042.6767	3063.6454	3078.993	3110.3423	3122.0326	3135.113	3141.8211	3144.6575	3153.9759
CCC12CC3OC1C3O2	CC[C@]12C[C@@H]3O[C@H]1[C@@H]3O2	
InChI=1S/C7H10O2/c1-2-7-3-4-5(9-7)6(7)8-4/h4-6H,2-3H2,1H3	InChI=1S/C7H10O2/c1-2-7-3-4-5(9-7)6(7)8-4/h4-6H,2-3H2,1H3/t4-,5+,6-,7-/m0/s1
