18
gdb 84279	3.10429	1.51204	1.20099	3.5683	72.53	-0.2464	0.0187	0.2651	1057.2369	0.148106	-439.058054	-439.050025	-439.049081	-439.09034	31.04	
C	-0.1152079328	 1.5313152021	-0.0984298663	-0.417073
C	 0.0662599307	 0.0218253083	-0.0064576766	 0.037228
N	 0.933732932	-0.4601019371	-1.1337576567	-0.322073
C	 1.550930347	-1.42298259	-0.6037788698	 0.434742
O	 2.7330575684	-2.0720418467	-0.8182193636	-0.277162
C	 2.850808506	-2.2281741401	 0.6607156508	-0.126435
C	 1.3683503765	-1.790897254	 0.8259365035	-0.155409
C	 0.7838347614	-0.4633393858	 1.3306675119	 0.061704
O	 1.85346914	 0.3749003916	 1.7207034429	-0.428042
H	 0.8557574811	 2.0355075542	-0.1139820984	 0.129169
H	-0.6349215482	 1.7930733237	-1.0229245484	 0.137441
H	-0.7069622451	 1.9109639731	 0.7433359166	 0.104876
H	-0.9206136024	-0.4613645031	-0.0567916069	 0.078972
H	 3.0930130808	-3.2594445314	 0.9191252625	 0.126447
H	 3.5874857224	-1.5228945214	 1.0455092958	 0.151052
H	 0.7006385099	-2.6353049041	 1.0072425353	 0.108502
H	 0.0594486661	-0.5862557703	 2.148499123	 0.06461
H	 1.5062869361	 1.258385181	 1.8782446844	 0.291454
107.5101	181.1449	227.4737	246.2412	260.6321	293.6251	365.7252	471.5476	477.2464	541.9364	684.5555	722.9783	741.027	801.0509	812.2158	887.3088	913.7388	960.5289	986.442	1021.0331	1064.0837	1078.9804	1126.2233	1146.7601	1150.6176	1164.0097	1209.2598	1227.071	1280.539	1292.6285	1337.6376	1352.3877	1368.1137	1397.0874	1423.2431	1486.6022	1496.7464	1504.473	1773.0058	2989.6938	3005.0033	3030.3223	3087.5973	3097.5647	3102.4148	3125.1889	3164.5241	3825.2535
CC1N=C2OCC2C1O	C[C@H]1[N][C]2OC[C@H]2[C@H]1O	
InChI=1S/C6H9NO2/c1-3-5(8)4-2-9-6(4)7-3/h3-5,8H,2H2,1H3	InChI=1S/C6H9NO2/c1-3-5(8)4-2-9-6(4)7-3/h3-5,8H,2H2,1H3/t3-,4+,5+/m1/s1
