18
gdb 22555	2.27438	1.33358	1.01147	2.7507	76.85	-0.2419	-0.0207	0.2211	1220.2837	0.144482	-439.047587	-439.0379	-439.036956	-439.082705	34.91	
C	 0.2228111677	 1.4860271514	 0.001155459	-0.483686
C	-0.0034948023	-0.0004581792	 0.0379873635	 0.275484
N	-0.1623031164	-0.6946251629	 1.1004920972	-0.174104
O	-0.1073757604	 0.0821259189	 2.2645310258	-0.393259
C	-0.016007262	-0.7589949606	-1.2527147845	 0.177124
C	 1.2943140825	-1.406210792	-1.731145737	-0.295035
C	 0.1833948379	-2.2702158733	-1.2527955755	-0.301542
C	-0.8891314953	-0.2474119237	-2.3409567601	 0.116587
O	-1.6371173136	 0.6953894932	-2.2635377277	-0.273646
H	 0.8720270026	 1.7529386316	-0.8369956525	 0.122917
H	-0.7284279733	 2.0042033919	-0.1509197497	 0.166823
H	 0.6661395732	 1.8295295072	 0.9360506514	 0.145715
H	-0.2214192397	-0.5806840675	 2.9535635307	 0.306245
H	 1.5127370112	-1.369484588	-2.7936788858	 0.12527
H	 2.1503854192	-1.2577899915	-1.0834488483	 0.138066
H	 0.254278648	-2.7184783205	-0.2709737094	 0.153718
H	-0.3777532682	-2.8420100964	-1.9841121153	 0.124385
H	-0.803258421	-0.8364045186	-3.2850893918	 0.068935
52.7089	66.1804	133.3116	165.3675	207.6843	245.8194	329.6337	338.1051	349.4553	405.7607	477.1528	496.1268	560.6702	617.181	767.9787	788.8255	829.3242	915.081	943.0367	955.7485	990.4304	1037.8462	1046.169	1061.0528	1067.8742	1094.2683	1184.9299	1199.1225	1282.732	1346.3421	1399.1086	1411.9285	1444.3004	1462.2703	1480.6753	1483.9175	1492.5589	1720.9432	1815.561	2848.0307	3056.025	3117.8876	3133.6199	3148.0105	3153.507	3224.2308	3249.742	3822.1833
CC(=NO)C1(CC1)C=O	CC(=NO)C1(CC1)C=O	
InChI=1S/C6H9NO2/c1-5(7-9)6(4-8)2-3-6/h4,9H,2-3H2,1H3	InChI=1S/C6H9NO2/c1-5(7-9)6(4-8)2-3-6/h4,9H,2-3H2,1H3
