16
gdb 126134	4.61119	1.03666	0.85529	4.8474	70.96	-0.2699	-0.0594	0.2105	1301.12	0.12473	-434.108975	-434.100702	-434.099757	-434.142722	29.28	
C	 0.0533526559	 1.5693708035	 0.0102331326	-0.383475
C	-0.0344646423	 0.0444143075	 0.0043602977	-0.319066
C	-1.467070786	-0.448916529	 0.0141486224	 0.448
O	-2.4379379961	 0.2615399057	 0.0245714255	-0.304642
N	-1.6315043137	-1.8613887471	 0.0087475791	-0.118453
C	-0.7002655419	-2.8829005597	-0.0036607785	 0.039144
N	-1.2830344844	-4.0435691581	-0.0042340863	-0.21848
N	-2.6599209316	-3.8160829326	 0.0077363799	-0.222258
C	-2.840856767	-2.5301197677	 0.0151203962	 0.054797
H	 1.0990942468	 1.8864184297	 0.002838372	 0.122355
H	-0.4447932749	 1.9925630458	-0.8649474061	 0.142303
H	-0.4300094245	 1.9849231031	 0.8972854645	 0.142285
H	 0.4664407879	-0.3766295356	-0.8768028358	 0.143652
H	 0.4809750668	-0.3842219728	 0.8733883038	 0.143607
H	 0.3644673481	-2.7163913223	-0.0114099825	 0.154402
H	-3.7819700732	-2.0060277906	 0.0250720054	 0.17583
62.1442	91.444	155.7928	163.319	204.1413	290.1155	374.0268	514.1542	552.4386	645.2732	681.9595	718.4513	817.587	836.6565	885.853	944.768	950.8354	986.4162	1024.6283	1073.5416	1102.7703	1109.6189	1213.536	1237.267	1285.9836	1310.789	1353.0799	1400.9734	1418.2591	1459.0767	1492.102	1498.5076	1527.9413	1540.8454	1828.5522	3030.1298	3058.7263	3063.0102	3132.7889	3136.9419	3280.6155	3294.8834
CCC(=O)N1C=NN=C1	CCC(=O)n1cnnc1	
InChI=1S/C5H7N3O/c1-2-5(9)8-3-6-7-4-8/h3-4H,2H2,1H3	InChI=1S/C5H7N3O/c1-2-5(9)8-3-6-7-4-8/h3-4H,2H2,1H3
