19
gdb 74273	2.70944	1.31502	1.10036	0.8278	79.24	-0.2378	-0.0529	0.1849	1183.9661	0.158534	-419.263422	-419.254213	-419.253269	-419.297173	35.358	
C	-0.0101585061	 1.5265223018	 0.0219254997	-0.406715
C	-0.0161761805	-0.008842677	-0.0205911283	 0.288502
C	-1.4580240328	-0.5345363865	 0.0199209903	-0.408378
C	 0.7692228588	-0.5534392891	-1.24676196	-0.399423
C	 1.9306102622	-1.3079869388	-0.6272406915	 0.35277
O	 2.8629321183	-1.8657251572	-1.1531697514	-0.324776
C	 1.7057900488	-1.2028463237	 0.8581621175	 0.269633
N	 2.5638559934	-1.8546275254	 1.6847207169	-0.573717
N	 0.6857157148	-0.5026034997	 1.1910734999	-0.294114
H	 1.0139665356	 1.9121671728	-0.0104934927	 0.109867
H	-0.5625009856	 1.9431870442	-0.826863241	 0.11041
H	-0.4735810349	 1.8790283824	 0.9474721455	 0.125423
H	-2.0341648618	-0.1611027093	-0.8332552173	 0.109805
H	-1.4732239826	-1.6288000086	-0.0056448702	 0.112511
H	-1.9503796408	-0.2124223272	 0.9416327404	 0.12534
H	 0.1797297234	-1.2387419259	-1.8644444307	 0.136293
H	 1.1439116387	 0.2321014656	-1.909460816	 0.134894
H	 3.4259913102	-2.1678826447	 1.2666433971	 0.26857
H	 2.5767687509	-1.609142884	 2.6605877419	 0.263106
46.2876	133.0185	241.3121	262.4048	279.2497	324.7719	339.6238	341.6107	347.0786	421.588	470.3984	512.7669	554.7885	589.3399	626.1533	671.2078	756.4639	820.1684	898.2544	903.0811	949.1642	975.0563	1025.0148	1099.5515	1109.6773	1136.3403	1195.7393	1238.525	1261.9984	1287.1835	1393.1327	1411.2827	1417.6586	1445.5717	1478.6185	1486.3755	1496.9178	1507.2032	1606.5978	1723.662	1829.2407	3030.4164	3035.1036	3059.6201	3100.2635	3101.2516	3104.9992	3115.0685	3119.828	3591.3326	3716.2307
CC1(C)CC(=O)C(N)=N1	CC1(C)CC(=O)C(=N1)N	
InChI=1S/C6H10N2O/c1-6(2)3-4(9)5(7)8-6/h3H2,1-2H3,(H2,7,8)	InChI=1S/C6H10N2O/c1-6(2)3-4(9)5(7)8-6/h3H2,1-2H3,(H2,7,8)
