23
gdb 78114	2.58589	1.34493	1.08809	1.5093	86.59	-0.2217	0.0922	0.3139	1262.5614	0.202614	-388.274771	-388.264639	-388.263694	-388.308711	39.01	
C	-0.1279605969	 1.4595745637	 0.1240538122	-0.426393
C	 0.039051359	-0.0426019611	 0.0356311089	-0.088146
C	 0.5479216469	-0.6010539962	-1.2856078382	-0.234385
C	 1.4153775389	-0.6396073064	-0.0438779884	 0.469339
C	 2.7141394249	-0.0251501232	 0.3687334487	-0.496204
O	 1.3242068086	-2.070837434	 0.0455193687	-0.372306
C	 0.6097342082	-2.1317947	-1.2399103217	 0.406465
C	-0.6845492862	-2.9238466424	-1.1285822826	-0.438109
C	 1.5384076115	-2.7095699475	-2.302183881	-0.424326
H	 0.6283060055	 1.987778741	-0.465794615	 0.11519
H	-1.1084373621	 1.7647756403	-0.2575282579	 0.1201
H	-0.048137549	 1.8102259872	 1.1587381499	 0.120027
H	-0.7052189487	-0.6146986225	 0.5860964887	 0.082464
H	 0.623826986	 0.0042446094	-2.1812736054	 0.085014
H	 2.6962156849	 1.0608347578	 0.2473062333	 0.122894
H	 2.9129655318	-0.2436071173	 1.4246106174	 0.130294
H	 3.5454797909	-0.4281182277	-0.2181617598	 0.124988
H	-1.3620710598	-2.4892339285	-0.3905316056	 0.11886
H	-1.1986924725	-2.9533561221	-2.0950591174	 0.113821
H	-0.4700637325	-3.9543736231	-0.8266559042	 0.122493
H	 1.7803966396	-3.7509445816	-2.0677914422	 0.120726
H	 1.0635708485	-2.6799324295	-3.2893748982	 0.109851
H	 2.4708046727	-2.1409258165	-2.3501705001	 0.117344
145.1382	163.7426	180.8104	191.6605	197.1705	219.7101	242.8318	277.3846	336.5476	342.703	379.4107	434.4828	491.368	511.5791	616.2016	697.3722	796.0658	846.298	875.4209	918.6582	929.9651	948.8695	963.2324	980.1254	1005.7175	1023.9916	1093.8934	1106.0027	1115.5351	1131.2997	1157.9973	1190.2911	1232.906	1245.7399	1304.9884	1343.089	1399.0652	1407.1494	1413.1274	1417.6805	1451.2356	1472.3032	1475.9823	1478.7185	1493.1394	1495.2789	1497.9565	1502.9987	1510.31	3028.0701	3031.5087	3032.834	3039.5841	3089.9927	3092.427	3094.8364	3099.2859	3106.6765	3118.4649	3120.9669	3123.2454	3127.8731	3178.2423
CC1C2C1(C)OC2(C)C	C[C@H]1[C@H]2[C@]1(C)OC2(C)C	
InChI=1S/C8H14O/c1-5-6-7(2,3)9-8(5,6)4/h5-6H,1-4H3	InChI=1S/C8H14O/c1-5-6-7(2,3)9-8(5,6)4/h5-6H,1-4H3/t5-,6+,8+/m0/s1
