19
gdb 107333	2.5251	1.62699	1.2125	1.5136	75.92	-0.2301	0.0032	0.2333	1076.403	0.158737	-423.001235	-422.99265	-422.991706	-423.034093	33.106	
C	-0.0113870391	 1.3141874577	 0.3084423922	-0.259481
O	-0.0514529635	-0.007605133	-0.211632019	-0.295776
C	-1.3131178942	-0.5830553564	-0.1582551764	 0.42932
C	-1.7913007731	-1.1619925546	 1.1560543953	-0.351469
C	-1.4434439226	-2.0727843925	-0.0196015686	-0.164883
C	-2.608710412	-2.4504978421	-0.8772979554	-0.075302
C	-3.1391529185	-1.384526175	-1.4805754452	-0.130946
C	-2.3731257669	-0.1114925795	-1.1655454066	 0.013329
O	-3.184888154	 0.9759339425	-0.7342776608	-0.433066
H	 1.0159389723	 1.6665639138	 0.1927676825	 0.122841
H	-0.6916161727	 1.9847133535	-0.2300451974	 0.131642
H	-0.2806607189	 1.3314044463	 1.3743672958	 0.10398
H	-1.070826898	-1.1197563431	 1.966156556	 0.120528
H	-2.8319536435	-1.0895588016	 1.4587819333	 0.100286
H	-0.5697691496	-2.7083633864	 0.0609518769	 0.103584
H	-2.9778087096	-3.4676833831	-0.9494362253	 0.10312
H	-4.0169397272	-1.3747427591	-2.1160310904	 0.102552
H	-1.8585046448	 0.2727481826	-2.0555780339	 0.103264
H	-3.634762364	 0.6958939499	 0.070951337	 0.276477
110.1285	132.2781	186.2025	223.3573	255.5013	323.1166	338.208	370.8536	453.5305	472.4125	575.5893	644.8872	707.4436	752.999	803.6036	855.7439	921.0229	951.5944	972.867	983.1511	1009.2164	1017.0835	1050.1894	1060.3254	1076.497	1097.1863	1147.1892	1186.0583	1209.3473	1232.4485	1256.377	1268.4855	1307.8462	1363.4474	1382.4971	1425.2546	1464.9965	1486.1591	1489.2811	1511.705	1666.919	2998.3987	3034.3356	3064.8111	3117.2271	3123.9482	3182.2689	3190.077	3212.3422	3213.5441	3797.5712
COC12CC1C=CC2O	CO[C@]12C[C@H]1C=C[C@H]2O	
InChI=1S/C7H10O2/c1-9-7-4-5(7)2-3-6(7)8/h2-3,5-6,8H,4H2,1H3	InChI=1S/C7H10O2/c1-9-7-4-5(7)2-3-6(7)8/h2-3,5-6,8H,4H2,1H3/t5-,6-,7-/m1/s1
