21
gdb 103472	2.41047	1.47336	1.13999	2.0926	78.88	-0.2268	0.063	0.2898	1180.2181	0.180099	-424.187836	-424.178157	-424.177213	-424.22182	36.698	
C	 0.1141114852	 1.4234799536	-0.3691033219	-0.391998
C	-0.0125110217	 0.0175477509	 0.2297162417	-0.244078
C	-1.4079639931	-0.5574359243	 0.1087733928	 0.33793
O	-2.3752352136	 0.0854717216	 0.9059797116	-0.476651
C	-2.0102495803	-1.1091117421	-1.1855890609	-0.263348
C	-0.9770326161	-1.9367275031	-1.9298701957	-0.111336
O	-0.655027054	-2.6885197609	-0.728156539	-0.320943
C	-1.7048485327	-2.0264388621	-0.0032516175	 0.411632
C	-2.5215648192	-2.8445029867	 0.9397596009	-0.49187
H	 1.1300486472	 1.8121842345	-0.2535598334	 0.117706
H	-0.1258564519	 1.423553436	-1.4380290964	 0.11598
H	-0.5609985837	 2.130552445	 0.12679167	 0.106242
H	 0.7000079356	-0.6649289663	-0.2411955955	 0.119444
H	 0.2403797832	 0.0459452878	 1.2964906068	 0.104719
H	-2.5982974559	 0.9235613862	 0.4867354407	 0.285553
H	-2.9597150142	-0.7564927922	-1.5681981866	 0.092796
H	-1.4080034453	-2.5985838578	-2.6903450384	 0.109925
H	-0.1029316029	-1.4228048662	-2.3475112299	 0.102199
H	-1.8753413657	-3.2869274327	 1.7066746238	 0.129907
H	-3.2601711619	-2.2114202417	 1.4347100687	 0.144789
H	-3.0325217191	-3.6590830596	 0.4172808683	 0.121401
77.3809	138.5552	189.3294	204.4689	229.503	260.9748	272.1002	291.1514	312.9724	384.3603	410.3906	511.1371	555.767	652.9918	710.6511	763.5802	799.4178	877.2501	918.4817	946.2779	969.8585	987.0958	990.6016	1032.7213	1062.8645	1086.883	1123.5102	1157.8014	1165.8236	1193.2178	1211.7503	1253.5898	1298.7629	1312.9245	1347.8485	1364.723	1401.4835	1407.567	1470.4471	1481.6548	1484.9091	1497.2008	1503.1649	1509.275	1523.2582	3019.1986	3027.6602	3035.9949	3040.5657	3063.1819	3081.8155	3096.0009	3106.0311	3106.5294	3142.1762	3191.1159	3798.4065
CCC1(O)C2COC12C	CC[C@@]1(O)[C@H]2CO[C@@]12C	
InChI=1S/C7H12O2/c1-3-7(8)5-4-9-6(5,7)2/h5,8H,3-4H2,1-2H3	InChI=1S/C7H12O2/c1-3-7(8)5-4-9-6(5,7)2/h5,8H,3-4H2,1-2H3/t5-,6+,7+/m0/s1
