15
gdb 16549	3.28574	2.87953	2.3304	1.9688	63.45	-0.2428	-0.0063	0.2365	664.5889	0.123014	-362.671676	-362.666257	-362.665313	-362.700813	22.594	
C	-0.0167373457	 1.5552124804	-0.0107876207	-0.247032
C	 1.4990017061	 1.7796991709	-0.0058636161	 0.075222
O	 2.0023581298	 1.4078086143	 1.3182208215	-0.245319
C	 1.4206775518	 0.3026161621	 1.847839981	 0.130285
N	 0.4963082739	-0.420136293	 1.3606511263	-0.269149
C	 0.010094207	 0.0139598966	 0.0308324706	-0.026867
C	 1.1196182788	-0.2873520523	-0.9748417404	-0.057954
C	 1.9780131262	 0.7361360653	-0.9989306549	-0.081411
H	-0.5229889114	 2.0026415572	 0.84780433	 0.112125
H	-0.4567132078	 1.930432422	-0.9376302639	 0.108725
H	 1.8436777483	 2.8015515435	-0.1602275412	 0.086323
H	 1.8637927159	 0.0711191369	 2.8149232723	 0.123743
H	-0.9441711199	-0.4728231911	-0.1733350853	 0.074804
H	 1.2277449262	-1.238311369	-1.4820081488	 0.110203
H	 2.9257825508	 0.7859442161	-1.5196489303	 0.106304
280.9207	325.8213	433.1873	450.7915	586.5645	597.9296	710.6147	762.1759	791.3855	839.4572	883.8546	904.7169	909.1422	943.4667	959.8997	966.012	1000.6481	1011.1755	1090.1814	1123.7971	1141.5573	1169.474	1237.925	1295.9971	1308.8269	1333.6547	1349.0678	1364.8263	1400.0242	1485.1101	1650.0536	1687.0274	3068.9751	3102.231	3123.8021	3125.0367	3155.4066	3200.6743	3225.6988
C1C2OC=NC1C=C2	C1[C@H]2O[CH][N][C@@H]1C=C2	
InChI=1S/C6H7NO/c1-2-6-3-5(1)7-4-8-6/h1-2,4-6H,3H2	InChI=1S/C6H7NO/c1-2-6-3-5(1)7-4-8-6/h1-2,4-6H,3H2/t5-,6+/m1/s1
