21
gdb 104148	2.88479	1.09987	0.96363	2.0447	81.69	-0.2295	0.0304	0.2599	1333.021	0.181396	-424.243204	-424.233448	-424.232504	-424.277628	36.761	
C	-0.043177631	 1.5469649414	 0.1083473479	-0.488994
C	 0.0434427371	 0.0560330343	 0.0167974636	 0.322029
C	 0.0175758482	-0.6904772387	-1.0882058116	-0.217594
C	 0.0508338489	-2.1770267016	-0.7953555764	 0.387195
O	-1.2374030548	-2.7738937161	-0.9856986793	-0.487311
C	 1.055254665	-2.9441391702	-1.6575574882	-0.13599
O	 0.56428824	-2.8989275647	-2.9964661631	-0.43771
C	 0.3991826946	-2.2255737922	 0.7104343071	-0.269469
C	 0.1369909511	-0.8040944126	 1.2597175167	-0.305256
H	 0.8371689413	 1.964971972	 0.6133393929	 0.121866
H	-0.1231436817	 2.0105884537	-0.8784748949	 0.122945
H	-0.914471344	 1.8543974917	 0.7011598225	 0.126098
H	-0.0751943164	-0.3124137095	-2.1005618536	 0.090027
H	-1.3237817782	-2.8978409211	-1.9397901581	 0.279182
H	 2.0509661131	-2.4831056073	-1.5834792247	 0.089594
H	 1.1187231445	-3.981388559	-1.297113516	 0.092971
H	 1.0405722565	-3.5453829261	-3.523988139	 0.293899
H	-0.1962356277	-2.9982561222	 1.2005281834	 0.1144
H	 1.4548449683	-2.4880365639	 0.8388442897	 0.094829
H	 0.9303725836	-0.4664616656	 1.9380125642	 0.096565
H	-0.7974247085	-0.7478071923	 1.8344183269	 0.110724
71.515	118.2007	141.2127	182.722	227.4389	234.5347	300.2023	347.3345	374.3536	400.8235	446.9991	475.5268	510.2822	585.6377	675.8948	785.6963	839.6241	875.8378	883.2749	938.1322	975.145	986.6362	1017.4148	1042.0497	1048.6708	1085.1781	1122.0345	1141.7978	1183.3424	1198.9332	1241.9042	1247.9108	1274.185	1306.3375	1325.7903	1353.7729	1404.6911	1413.361	1443.2252	1473.5148	1479.7848	1487.4625	1494.9451	1504.6051	1723.2416	2983.7706	3013.6624	3018.4824	3027.2267	3039.3568	3054.5969	3061.254	3111.2291	3115.5146	3192.5197	3770.4792	3844.5554
CC1=CC(O)(CO)CC1	CC1=C[C@@](O)(CO)CC1	
InChI=1S/C7H12O2/c1-6-2-3-7(9,4-6)5-8/h4,8-9H,2-3,5H2,1H3	InChI=1S/C7H12O2/c1-6-2-3-7(9,4-6)5-8/h4,8-9H,2-3,5H2,1H3/t7-/m1/s1
