19
gdb 77131	2.84742	1.11227	0.90304	3.5222	77.59	-0.2437	-0.0241	0.2196	1324.4835	0.155991	-423.064027	-423.054221	-423.053277	-423.099958	34.775	
C	-0.3534437078	 1.1713995605	-0.36258338	-0.414825
C	 0.2114345556	-0.1761824534	 0.0548775466	-0.091137
C	 1.2225502917	-0.9601256684	-0.8785197375	-0.120792
C	 2.1059241423	-1.2785602701	 0.3635482368	-0.356461
C	 1.319594554	-0.2090421386	 1.1218154249	 0.385663
O	 1.5376540571	 0.4678048326	 2.0843387529	-0.297703
C	 0.6155120912	-2.1529830022	-1.5938919262	 0.378465
C	 0.3034149329	-1.9811161839	-3.0666058183	-0.484178
O	 0.3687159219	-3.1776133287	-0.9970244181	-0.30777
H	 0.4418879525	 1.8496654887	-0.6877198774	 0.124319
H	-1.0738331825	 1.0706721491	-1.1805355059	 0.120532
H	-0.8650347017	 1.641709292	 0.4824270376	 0.143535
H	-0.5860384241	-0.8656113678	 0.36118405	 0.121083
H	 1.7058387812	-0.2725623983	-1.5771328866	 0.081952
H	 1.8763889233	-2.2839850792	 0.7332966581	 0.156828
H	 3.1871931283	-1.1485888265	 0.2888324017	 0.128593
H	-0.3020457847	-1.081780393	-3.2280777741	 0.141369
H	 1.2345484957	-1.8366950784	-3.6274558102	 0.145061
H	-0.2208177969	-2.8583490344	-3.4469503543	 0.145465
25.9022	70.7816	141.6027	153.4215	182.5822	216.3637	231.4563	315.1178	337.8697	452.9334	533.748	593.0307	612.708	655.1877	746.1323	756.8313	860.364	912.6718	941.5914	978.9039	1008.0165	1045.8144	1061.61	1100.0833	1133.012	1161.8177	1187.9426	1213.5337	1229.0446	1241.775	1329.2511	1361.0548	1384.6333	1407.3401	1435.4156	1461.5266	1474.7014	1492.5048	1492.9611	1802.8846	1891.1971	3032.7746	3034.4709	3036.9135	3057.6206	3080.9958	3091.9785	3105.8645	3113.4373	3128.7497	3154.1642
CC1C(CC1=O)C(C)=O	C[C@H]1[C@@H](CC1=O)C(=O)C	
InChI=1S/C7H10O2/c1-4-6(5(2)8)3-7(4)9/h4,6H,3H2,1-2H3	InChI=1S/C7H10O2/c1-4-6(5(2)8)3-7(4)9/h4,6H,3H2,1-2H3/t4-,6+/m0/s1
