20
gdb 111392	2.15442	1.54015	1.09667	3.2788	78.68	-0.239	-0.0312	0.2078	1181.5555	0.169974	-403.107092	-403.098113	-403.097169	-403.141186	33.174	
C	 0.1174131717	 1.5238195256	 0.0544795384	-0.388551
C	 0.0704087339	-0.0052432744	-0.0395540604	-0.203131
C	-1.338283585	-0.5860755572	 0.0657094666	-0.009933
C	-1.5260034395	-2.0970013495	-0.0695008838	-0.05121
C	-0.9843213104	-2.8397205165	 1.0830906077	-0.236749
N	-2.3149773575	-2.215105632	 1.2273851171	-0.132809
C	-2.0889867734	-0.7527296774	 1.4507132897	-0.083526
C	-1.4090069946	-0.3115394584	 2.7212091311	 0.155174
O	-0.8941293175	-1.032791867	 3.537669154	-0.246597
H	 1.1411097645	 1.8934391731	-0.0558678655	 0.12137
H	-0.4910497651	 1.9871752861	-0.730094385	 0.117999
H	-0.2589150574	 1.8830972908	 1.0182788917	 0.117836
H	 0.4890340853	-0.3214168477	-1.0042422673	 0.10485
H	 0.7180678565	-0.4446736215	 0.7278633824	 0.109252
H	-1.9974121614	-0.0559645186	-0.6280975586	 0.087062
H	-1.8610119452	-2.5928843071	-0.9750122337	 0.096713
H	-1.050562871	-3.9225013384	 1.0418615955	 0.12457
H	-0.151306671	-2.4623075191	 1.6632954474	 0.136359
H	-3.0552051269	-0.2356860169	 1.4207961294	 0.103877
H	-1.4233282759	 0.7950017959	 2.8648226833	 0.077443
65.6513	98.2794	140.0388	191.4803	215.7005	250.1808	274.4893	366.3838	462.3069	489.5202	680.3059	722.7309	738.6473	772.5276	802.2443	813.3087	904.4554	942.7178	985.2793	1004.713	1005.2161	1057.2577	1080.1847	1089.8257	1107.9048	1114.5477	1149.802	1160.1546	1211.9111	1227.8451	1272.9182	1294.6072	1336.4576	1351.9453	1370.2064	1399.5423	1413.7482	1425.2056	1482.3321	1499.7674	1504.0742	1507.7952	1823.3736	2848.9055	3021.9535	3033.268	3039.7162	3054.2145	3070.5803	3099.6632	3107.9001	3136.8885	3161.6681	3227.8153
CCC1C2CN2C1C=O	CC[C@H]1[C@H]2CN2[C@H]1C=O	
InChI=1S/C7H11NO/c1-2-5-6-3-8(6)7(5)4-9/h4-7H,2-3H2,1H3	InChI=1S/C7H11NO/c1-2-5-6-3-8(6)7(5)4-9/h4-7H,2-3H2,1H3/t5-,6+,7-,8?/m0/s1
