21
gdb 122582	3.30445	0.89346	0.85159	2.212	80.41	-0.2433	0.025	0.2683	1466.8699	0.182636	-424.224882	-424.215678	-424.214733	-424.260382	33.921	
O	-0.0780698554	 1.4339218904	-0.310540671	-0.423247
C	-0.0419259555	 0.0612941673	 0.0260393288	-0.057337
C	-1.4453146157	-0.5233161095	 0.084344526	-0.079449
O	-2.0056734492	-0.3416293405	-1.2038636764	-0.275322
C	-3.3980319058	-0.6242263331	-1.30217447	 0.133164
C	-4.2619801244	 0.5652128937	-0.7948809351	-0.274452
C	-4.6764099664	 1.2689834841	-2.0641053964	-0.056966
C	-4.3900238168	 0.5546615036	-3.1504118643	-0.056608
C	-3.7304356843	-0.7577169551	-2.8075153505	-0.273221
H	-0.6509973289	 1.4913069522	-1.0849089397	 0.288585
H	 0.5570126371	-0.5159300479	-0.6964631273	 0.091843
H	 0.438616989	-0.0230487742	 1.0063077643	 0.10581
H	-1.4196383778	-1.5928530269	 0.3510699916	 0.086436
H	-2.0309410883	 0.0072874561	 0.8496744059	 0.097234
H	-3.6102555193	-1.5497347848	-0.7506815346	 0.065046
H	-5.1365208391	 0.2169000851	-0.2285444318	 0.105141
H	-3.6878888578	 1.2070480299	-0.1170278985	 0.114653
H	-5.1659909586	 2.2364576445	-2.0596500692	 0.092604
H	-4.6127456733	 0.845990997	-4.1706849065	 0.092076
H	-2.8117437107	-0.9496101311	-3.3715495366	 0.11811
H	-4.4030925789	-1.6048540807	-2.9962257086	 0.105899
31.0993	61.4852	93.852	165.0348	217.7778	314.6512	367.5592	384.8715	437.4612	466.522	537.7481	694.4271	747.5231	790.0789	829.2263	880.9341	895.0809	915.0444	951.4529	971.6616	977.0552	982.1549	1053.5624	1070.806	1084.8359	1126.5439	1131.3524	1138.3609	1175.1193	1223.5113	1240.1306	1254.9002	1263.0647	1311.6135	1325.5146	1368.9574	1382.2798	1384.9178	1423.4428	1441.1768	1467.2378	1476.1851	1499.713	1507.9137	1689.1197	2968.3489	2979.4269	3004.0988	3016.5932	3020.3997	3029.1696	3061.8335	3074.4335	3078.5824	3184.0888	3209.478	3788.5612
OCCOC1CC=CC1	OCCO[C@H]1CC=CC1	
InChI=1S/C7H12O2/c8-5-6-9-7-3-1-2-4-7/h1-2,7-8H,3-6H2	InChI=1S/C7H12O2/c8-5-6-9-7-3-1-2-4-7/h1-2,7-8H,3-6H2
