14
gdb 44401	3.85828	1.53595	1.50851	2.5628	68.27	-0.26	-0.0446	0.2154	889.4694	0.1001	-436.521628	-436.515145	-436.5142	-436.552265	26.427	
N	-0.016114293	 1.2489203139	-0.2821095512	-0.543169
C	 0.0258912017	 0.0358367204	-0.0067219903	 0.351099
O	 1.144122874	-0.8340013702	 0.2212866309	-0.295259
C	 0.204516091	-1.7130867847	 0.9948391967	 0.093983
C	-0.7547971184	-2.9876170247	 0.8870667418	-0.077284
O	-1.8313592618	-1.9557241075	 1.0935158128	-0.3464
C	-0.9042289448	-1.1631545633	 0.1876827409	 0.245636
C	-0.9438588275	-2.0247256029	-1.085742613	-0.114472
C	-0.8444135509	-3.2615678896	-0.6017557941	-0.052052
H	 0.9163975795	 1.6591502942	-0.3502986323	 0.246511
H	 0.2545614705	-1.3837939906	 2.0322911144	 0.126772
H	-0.7796822232	-3.7806700948	 1.6324869499	 0.103454
H	-1.0320915904	-1.6451188151	-2.0919376851	 0.131682
H	-0.8302385166	-4.2248559652	-1.0882926815	 0.129499
137.223	243.4388	286.4425	416.9448	519.6933	546.0109	554.7186	638.0177	689.7198	691.5945	725.8544	781.4516	819.519	846.591	865.2825	871.7809	911.641	930.5506	949.3715	1003.102	1028.1888	1088.7896	1120.6533	1165.9573	1194.218	1245.3956	1260.2089	1309.0532	1379.7398	1621.9048	1827.7969	3117.6743	3148.4033	3243.6728	3271.0201	3487.3253
N=C1OC2C3OC12C=C3	[NH][C]1O[C@@H]2[C@H]3O[C@@]12C=C3	
InChI=1S/C6H5NO2/c7-5-6-2-1-3(9-6)4(6)8-5/h1-4,7H	InChI=1S/C6H5NO2/c7-5-6-2-1-3(9-6)4(6)8-5/h1-4,7H/t3-,4+,6+/m0/s1
