16
gdb 84143	2.59493	1.43598	1.06499	2.8133	70.53	-0.2434	0.0034	0.2468	1126.6962	0.125168	-434.104399	-434.095883	-434.094939	-434.137909	31.372	
C	 0.0002279967	 1.5547579377	-0.093617776	-0.396556
C	 0.0696083161	 0.0332522812	-0.026675295	 0.013145
N	 0.765733178	-0.5472601184	-1.1746658607	-0.339479
C	 1.5626534573	-1.4278816113	-0.7204610659	 0.478349
N	 2.3316808737	-2.3024925724	-1.4263741626	-0.579064
O	 1.6527429652	-1.606307129	 0.639619435	-0.246977
C	 0.850247647	-0.5604149269	 1.210078844	-0.06752
C	 1.7270379297	 0.3934502591	 1.904946568	 0.287285
N	 2.4021902643	 1.1480050914	 2.4613859334	-0.324378
H	 1.0009088028	 1.9925356484	-0.1337622688	 0.139708
H	-0.5402128098	 1.8478742976	-0.9967843396	 0.132899
H	-0.5250842206	 1.9668888046	 0.7736491832	 0.120855
H	-0.9549046378	-0.3618972473	 0.010180791	 0.095248
H	 2.4362701726	-2.0728621302	-2.4019656846	 0.275242
H	 3.167250085	-2.626593843	-0.9647556503	 0.270998
H	 0.1789305797	-1.0090326214	 1.9462606489	 0.140246
48.9518	145.5407	157.108	236.2799	266.2311	307.3479	379.0802	427.2771	459.7614	495.5743	532.9777	588.4736	686.7711	729.0468	746.5253	833.5104	911.2601	934.6442	963.0619	1047.5773	1065.093	1114.7193	1133.3524	1186.3963	1265.5961	1302.3999	1346.877	1376.8814	1412.6917	1415.7763	1484.3722	1497.148	1618.4135	1774.1003	2358.5379	3002.2722	3046.8566	3087.4807	3120.7741	3133.0767	3593.5943	3708.8618
CC1N=C(N)OC1C#N	C[C@H]1[N][C](N)O[C@H]1C#N	
InChI=1S/C5H7N3O/c1-3-4(2-6)9-5(7)8-3/h3-4H,1H3,(H2,7,8)	InChI=1S/C5H7N3O/c1-3-4(2-6)9-5(7)8-3/h3-4H,1H3,(H2,7,8)/t3-,4+/m1/s1
