15
gdb 124209	5.01532	0.98994	0.83103	4.9502	70.41	-0.2272	-0.0318	0.1954	1311.384	0.112639	-450.113494	-450.105232	-450.104288	-450.147175	29.607	
C	-0.0067629375	 1.5115140709	-0.1326580663	-0.49131
C	-0.010296915	 0.022963724	 0.1367220942	 0.363896
N	-0.0417618611	-0.5562814741	 1.276217327	-0.514693
N	 0.0254602336	-0.7399567145	-1.0120618549	-0.414085
C	 0.0305891871	-2.1202033562	-1.052624991	 0.349342
C	 0.0056031867	-3.0860880034	-0.0928525022	-0.026888
O	 0.0272888791	-4.2716107728	-0.7232787018	-0.159902
N	 0.0663409511	-4.0154232371	-2.0987439979	-0.003641
N	 0.067615462	-2.7604663696	-2.2679705661	-0.216149
H	 0.8934072237	 1.8071389412	-0.6827150412	 0.146682
H	-0.8740704469	 1.8018139271	-0.7357863546	 0.146624
H	-0.0365909753	 2.0680705353	 0.8047635265	 0.140651
H	-0.0655878012	 0.1319936982	 2.0243081965	 0.219365
H	 0.0499204408	-0.2848353575	-1.9095265478	 0.26674
H	-0.0254854571	-3.0617285914	 0.9788005197	 0.193368
73.413	80.9782	112.8063	170.2681	352.5342	352.7981	366.3821	412.6079	572.8626	576.4013	643.1954	719.6011	749.3728	793.7381	809.6131	837.7473	951.6947	989.8063	1022.5082	1062.7528	1065.3155	1112.919	1149.1242	1258.0102	1291.0649	1369.945	1407.4306	1426.8708	1478.4448	1482.8568	1572.877	1661.2572	1710.9608	3037.9955	3097.693	3144.7231	3347.4047	3518.7588	3657.9727
CC(=N)NC1=CON=N1	CC(=N)Nc1conn1	
InChI=1S/C4H6N4O/c1-3(5)6-4-2-9-8-7-4/h2H,1H3,(H2,5,6)	InChI=1S/C4H6N4O/c1-3(5)6-4-2-9-8-7-4/h2H,1H3,(H2,5,6)
