18
gdb 119033	2.10583	1.52254	1.05101	4.0777	71.65	-0.2696	0.0229	0.2925	1167.361	0.146052	-439.072916	-439.063428	-439.062484	-439.107684	34.007	
O	-2.0296280786	 0.5129219899	 1.2252548386	-0.429384
C	-2.8422990302	-0.1033147088	 0.2331055595	-0.090106
C	-2.9983663484	-1.5998108317	 0.5219769846	-0.258059
C	-1.7908825913	-2.4620002621	 0.1977089743	 0.403013
C	-0.4545926464	-2.1331515598	 0.874632351	-0.408908
C	 0.2263726089	-0.9894963807	 0.2671935762	 0.296598
N	 0.7587604542	-0.0822380818	-0.2123766299	-0.334817
C	-2.0035359686	-3.8512939576	-0.2386458098	-0.227611
O	-1.6510700248	-2.8323017459	-1.1772010248	-0.262493
H	-1.2615225445	 0.9008573162	 0.7955002599	 0.305319
H	-3.8367932172	 0.3617652907	 0.2537495864	 0.103082
H	-2.4323750057	 0.0439825405	-0.7731235577	 0.122788
H	-3.2522555523	-1.7160070578	 1.583194299	 0.114161
H	-3.8416441042	-1.9867139212	-0.0601595893	 0.107734
H	-0.6129294105	-1.9145117248	 1.9350540667	 0.166467
H	 0.2149630654	-2.9958526172	 0.8033075718	 0.152438
H	-1.2381255045	-4.6044624231	-0.0552989072	 0.118053
H	-3.018853011	-4.235568535	-0.3233312993	 0.121725
55.5702	86.261	140.6628	160.7142	185.5744	276.1844	315.7502	352.6966	373.6097	393.0868	428.8154	533.7589	553.0223	731.3363	844.2588	865.8307	888.9253	928.7994	960.9561	974.5113	1000.8348	1063.4562	1072.5249	1129.2212	1164.3716	1181.7711	1221.5731	1259.1882	1306.4957	1329.8846	1358.1218	1374.5013	1422.6828	1431.9906	1442.8078	1460.4107	1509.7087	1530.6407	2356.5321	3012.2578	3032.2802	3058.5103	3063.7848	3082.2246	3085.1135	3106.5275	3169.599	3832.0381
OCCC1(CC#N)CO1	OCC[C@@]1(CC#N)CO1	
InChI=1S/C6H9NO2/c7-3-1-6(2-4-8)5-9-6/h8H,1-2,4-5H2	InChI=1S/C6H9NO2/c7-3-1-6(2-4-8)5-9-6/h8H,1-2,4-5H2/t6-/m0/s1
