14
gdb 5299	5.06421	1.68832	1.27576	3.1167	65.31	-0.2205	-0.0104	0.21	892.5699	0.109605	-378.794537	-378.787736	-378.786792	-378.825627	25.952	
N	-0.0400257875	 1.3683100711	-0.0058243016	-0.561966
C	 0.0556552662	 0.0044259173	-0.1295581487	 0.476856
O	 1.0944259685	-0.5891297534	-0.3056969277	-0.36504
N	-1.1850804996	-0.6701590365	-0.0700315499	-0.079479
C	-2.4683692927	-0.1382011809	-0.1102079254	-0.090735
C	-3.3567785422	-1.1713970692	-0.0079349966	-0.169093
C	-2.6005660074	-2.3816399689	 0.1024212938	-0.187996
C	-1.2773981869	-2.0468391559	 0.055466346	-0.046932
H	 0.8518852078	 1.8282349119	 0.0878394745	 0.271642
H	-0.7965039177	 1.763056172	 0.5287274606	 0.264469
H	-2.6311733852	 0.913811138	-0.273063297	 0.126782
H	-4.4322206958	-1.0797494654	-0.0220069233	 0.104945
H	-2.9943354638	-3.3811850655	 0.2038331656	 0.105773
H	-0.3744625838	-2.6304155247	 0.1034286698	 0.150774
89.8017	153.8005	237.4203	423.9279	435.7695	523.9615	532.9137	616.4912	618.9831	682.6263	696.1113	767.2113	775.4687	840.3059	877.7514	880.0508	962.7645	1059.7839	1088.7787	1103.1083	1118.0851	1229.1037	1283.3801	1353.4044	1390.86	1442.3736	1508.7315	1585.3063	1620.813	1824.9265	3243.3678	3257.157	3278.9886	3298.4029	3595.1101	3713.8976
NC(=O)N1C=CC=C1	NC(=O)n1cccc1	
InChI=1S/C5H6N2O/c6-5(8)7-3-1-2-4-7/h1-4H,(H2,6,8)	InChI=1S/C5H6N2O/c6-5(8)7-3-1-2-4-7/h1-4H,(H2,6,8)
