18
gdb 41512	2.94644	2.03711	1.52808	2.1798	75.22	-0.2167	-0.0145	0.2022	895.0206	0.152021	-398.068276	-398.061919	-398.060975	-398.098623	26.974	
C	 0.0382739246	 1.6153907205	 0.093219983	-0.204483
N	 1.4609594193	 2.107575471	 0.0616803086	-0.322649
C	 2.0614631543	 0.9572134572	 0.6992402384	 0.178066
N	 2.41532872	 1.0267845227	 1.9143774692	-0.1649
C	 2.2292569519	-0.2403550237	 2.6202457963	-0.163775
C	 0.7372463309	-0.5978207126	 2.4018474998	-0.162971
N	 0.5183754851	-0.8870832163	 0.9750387192	-0.088728
C	 0.0802906526	 0.0726232733	-0.0728374099	-0.039366
C	 1.5076387864	-0.3148698755	 0.0678379225	-0.148973
H	-0.4091899137	 1.9247111095	 1.0425928287	 0.131598
H	-0.5333372966	 2.0700546146	-0.7196212772	 0.11583
H	 1.7321437718	 2.1201708958	-0.9213244969	 0.221498
H	 2.8504714188	-1.0615710663	 2.2365657931	 0.111167
H	 2.4595104797	-0.1062262977	 3.6798771378	 0.109697
H	 0.4644655946	-1.4921666035	 2.9718022854	 0.112474
H	 0.1169462541	 0.2332038574	 2.7603176949	 0.113096
H	-0.5956427113	-0.3767399122	-0.7947803151	 0.102267
H	 2.0839223074	-0.9694444344	-0.5795014175	 0.100152
197.9504	230.665	358.0325	447.2593	473.6843	518.8611	526.8995	613.7779	695.3561	731.5297	771.9757	822.6308	846.6362	887.8502	893.594	933.0953	940.088	955.1088	1002.2908	1020.4045	1076.9137	1090.3765	1095.7684	1114.7495	1136.9991	1209.336	1223.4615	1248.1214	1273.6152	1306.8549	1310.9228	1327.1494	1341.2268	1367.7709	1404.3298	1480.3285	1500.5823	1502.5568	1726.1697	3011.5526	3026.8911	3058.5016	3072.859	3096.938	3110.6317	3140.7284	3152.0078	3454.4982
C1NC2=NCCN3C1C23	C1N[C]2[N]CCN3[C@@H]1[C@@H]23	
InChI=1S/C6H9N3/c1-2-9-4-3-8-6(7-1)5(4)9/h4-5H,1-3H2,(H,7,8)	InChI=1S/C6H9N3/c1-2-9-4-3-8-6(7-1)5(4)9/h4-5H,1-3H2,(H,7,8)/t4-,5-,9?/m0/s1
