18
gdb 84173	3.63577	1.18289	0.98346	3.2939	80.67	-0.2337	-0.0635	0.1702	1211.8522	0.147681	-401.943155	-401.935038	-401.934094	-401.975879	30.773	
C	-0.2580500764	 1.5743980806	 0.0469515324	-0.395674
C	 0.0447099579	 0.074826665	-0.0184124321	 0.006301
C	 0.7467756377	-0.4031202038	-1.2706178948	-0.189884
C	 1.8136864431	-1.1567375244	-0.9633723163	 0.246126
C	 2.6817384497	-1.8421885825	-1.9232523037	 0.065765
O	 3.6229251487	-2.5376471899	-1.6113130996	-0.267056
C	 1.9909347384	-1.2006038849	 0.5190660617	-0.132655
C	 2.2583083882	 0.1225362773	 1.1478204585	-0.242335
N	 0.8875183642	-0.4046604154	 1.1097304627	-0.114644
H	 0.647971937	 2.1770108311	-0.0607012572	 0.122438
H	-0.9512100534	 1.8586039187	-0.7505031174	 0.121311
H	-0.7215530809	 1.8169567015	 1.0067467438	 0.137735
H	-0.9166665005	-0.4553266197	 0.0637134827	 0.105076
H	 0.4152601272	-0.1605350367	-2.2751721126	 0.116125
H	 2.4072040634	-1.6858907701	-2.9899960971	 0.071224
H	 2.2814955065	-2.1270000951	 1.0026101335	 0.113218
H	 2.6812363899	 0.1755277301	 2.1468446144	 0.123272
H	 2.5432493894	 0.9355689082	 0.4848169911	 0.113656
89.8247	156.8424	195.3914	225.4333	232.8704	283.9644	404.4109	457.1666	534.1947	585.5726	694.0548	710.799	749.7132	819.6366	855.5329	873.8094	892.5751	959.5718	1029.1209	1043.9486	1048.8843	1078.0218	1106.5705	1108.2116	1134.7828	1159.2709	1211.7438	1252.7677	1281.5728	1333.388	1341.2723	1388.1852	1405.2788	1422.0956	1488.9535	1498.53	1499.783	1668.0187	1784.7144	2885.4051	2980.1747	3045.3922	3106.4803	3116.3393	3126.0591	3171.9907	3190.1732	3195.9984
CC1C=C(C=O)C2CN12	C[C@H]1C=C(C=O)[C@H]2CN12	
InChI=1S/C7H9NO/c1-5-2-6(4-9)7-3-8(5)7/h2,4-5,7H,3H2,1H3	InChI=1S/C7H9NO/c1-5-2-6(4-9)7-3-8(5)7/h2,4-5,7H,3H2,1H3/t5-,7+,8?/m0/s1
