18
gdb 68539	2.63009	1.99614	1.69888	2.0893	74.78	-0.2279	0.	0.2278	881.8857	0.149786	-401.906495	-401.899818	-401.898874	-401.936867	29.004	
O	-0.1062370663	 1.3610870811	 0.0683485394	-0.508688
C	 0.0481410248	-0.0309078412	 0.0467772858	 0.377943
C	 0.6615394075	-0.7200416951	-1.2182893425	-0.257699
C	 0.4597605073	-2.1213907107	-0.6058812182	-0.039234
C	 1.1440752704	-1.9336505116	 0.7342073928	-0.092484
C	 0.8883427058	-0.6799260179	 1.1311617639	-0.169676
N	-1.0712786114	-2.1006727696	-0.4781582481	-0.115202
C	-1.6552231589	-1.8991577102	 0.8608857718	-0.254021
C	-1.3420463468	-0.7352599044	 0.0015874672	-0.030424
H	 0.769540697	 1.7592249706	 0.0325839117	 0.279311
H	 0.0686921067	-0.5573711862	-2.1220778107	 0.107761
H	 1.7097302634	-0.4598077546	-1.3872465927	 0.08953
H	 0.7529317125	-2.9886980103	-1.1942022672	 0.075891
H	 1.6246744974	-2.7193528453	 1.30382219	 0.102473
H	 1.1039039798	-0.2171729457	 2.0865972561	 0.104905
H	-2.6856227306	-2.2366490521	 0.9353114883	 0.113687
H	-1.049801475	-2.0762325704	 1.7430815218	 0.116318
H	-2.1231173735	-0.1613409863	-0.4906071593	 0.09961
258.4893	294.203	324.7527	354.3787	399.177	491.1616	521.7406	558.1299	615.7153	652.1373	714.8953	746.6068	778.7394	812.2449	843.0851	903.116	923.3909	940.4863	961.8593	986.3564	1024.4518	1049.3857	1071.3715	1086.1421	1096.4436	1113.7958	1144.664	1151.8455	1213.2242	1224.0554	1251.4221	1268.0312	1284.6721	1335.2231	1355.8911	1377.7957	1486.7372	1492.1323	1625.3882	3061.045	3117.7092	3123.9347	3133.2218	3141.1385	3195.0616	3206.3934	3220.1019	3816.6259
OC12CC(C=C1)N1CC21	O[C@@]12C[C@@H](C=C1)N1C[C@@H]21	
InChI=1S/C7H9NO/c9-7-2-1-5(3-7)8-4-6(7)8/h1-2,5-6,9H,3-4H2	InChI=1S/C7H9NO/c9-7-2-1-5(3-7)8-4-6(7)8/h1-2,5-6,9H,3-4H2/t5-,6+,7-,8?/m1/s1
