20
gdb 118449	1.95904	1.35534	1.08199	5.3812	72.04	-0.2351	0.0249	0.26	1243.496	0.170466	-477.443746	-477.433728	-477.432784	-477.479333	35.618	
C	-0.3243684411	 1.0738442996	 0.2470982494	-0.245518
O	 0.7759914055	 0.1977501575	 0.088999617	-0.245472
C	 0.9904264149	-0.2219137718	-1.2467219018	 0.011375
C	 2.3411399378	-0.970005823	-1.2841317262	-0.249008
C	 2.6513161252	-1.8129678868	-0.0414259675	-0.1486
N	 1.6970885499	-2.9243982148	 0.1339251601	-0.511968
H	 0.1527701588	-2.3642112386	-0.4483666246	 0.323981
H	 1.9080735275	-3.6828655756	-0.509207742	 0.247229
H	 1.7637698952	-3.3075000568	 1.0711359623	 0.248174
C	-0.2117276938	-1.0347008008	-1.7920423827	 0.356948
O	-0.8097726936	-0.6765976654	-2.7764108679	-0.337404
O	-0.5676079899	-2.1123152463	-1.094604261	-0.382715
H	-0.2126172655	 1.9732840466	-0.3755661219	 0.115029
H	-1.2760122041	 0.5894424321	-0.009395297	 0.13413
H	-0.3469185633	 1.3668309865	 1.2991889801	 0.125439
H	 1.047464264	 0.6491390227	-1.9140708846	 0.092166
H	 2.3874491988	-1.5827774838	-2.1927942841	 0.11489
H	 3.139226058	-0.2252556809	-1.3733420673	 0.116134
H	 3.6908580864	-2.1642477026	-0.1033222436	 0.094979
H	 2.569431079	-1.1726130077	 0.8385913833	 0.140207
48.6077	84.6694	99.2215	178.8543	215.17	222.0347	240.1355	303.1122	317.8422	340.9677	430.4531	454.8977	584.1093	684.1179	755.284	792.1873	881.2862	890.3016	936.6737	954.0012	1011.272	1039.0234	1055.6492	1094.7166	1145.6994	1164.1086	1184.1846	1224.43	1267.0132	1316.7377	1329.7064	1349.4447	1367.3808	1386.7944	1425.6243	1475.8641	1480.6273	1492.349	1495.2926	1501.6664	1508.5933	1651.6298	1842.9567	2993.6244	3002.5543	3011.5535	3039.7536	3051.5457	3077.8629	3112.7181	3119.8951	3120.8381	3494.589	3576.4345
COC(CC[NH3+])C([O-])=O	CO[C@@H](CCN)C(=O)O	
InChI=1S/C5H11NO3/c1-9-4(2-3-6)5(7)8/h4H,2-3,6H2,1H3,(H,7,8)	InChI=1S/C5H11NO3/c1-9-4(2-3-6)5(7)8/h4H,2-3,6H2,1H3,(H,7,8)/t4-/m0/s1
