17
gdb 28255	4.62473	1.19377	0.96692	0.9719	75.75	-0.1559	0.0689	0.2248	1177.6547	0.138889	-418.026153	-418.018249	-418.017305	-418.058318	30.388	
O	 0.0319793975	 1.3125319639	 0.2565584281	-0.439982
C	 0.0662118895	-0.0274622095	 0.0210204303	 0.391213
C	 0.0873237779	-0.7838562335	-1.1288431683	-0.499462
C	 0.0968731607	-2.1501614743	-0.6895030422	 0.299115
C	 0.0859902324	-2.1455519263	 0.6691340956	 0.314685
N	 0.0632553628	-3.3949444388	 1.329191841	-0.414365
C	-0.1632704574	-4.3295978349	 0.1768018084	-0.159183
C	 0.1732787429	-3.5775675582	-1.1602855584	-0.360183
N	 0.0669353416	-0.8501679762	 1.1290804643	-0.420873
H	 0.0588733702	 1.7643952462	-0.5918903787	 0.305204
H	 0.088582523	-0.3983457981	-2.1370837614	 0.084226
H	 0.9609414243	-3.5986046244	 1.7663462108	 0.221577
H	 0.4178925247	-5.244079051	 0.3182991781	 0.098943
H	-1.2238824883	-4.6010192898	 0.1769462146	 0.116534
H	-0.5518497092	-3.8445754668	-1.936057953	 0.103261
H	 1.1675038763	-3.8417905823	-1.5507925647	 0.094912
H	-0.0210754291	-0.529728346	 2.0774465153	 0.264379
125.0281	178.8105	189.6471	252.6615	267.8694	309.1353	388.2755	499.9613	535.2093	640.253	656.9252	683.9838	719.4361	726.01	802.6573	828.4633	913.2836	937.7883	980.8015	1017.6457	1063.8023	1115.3062	1155.7689	1174.7212	1190.1195	1244.9548	1265.5	1291.7133	1355.4986	1386.2323	1409.6708	1488.8793	1496.6185	1511.5454	1516.9713	1589.6135	1649.0785	2986.6225	3044.0096	3063.0432	3103.8352	3238.989	3432.7818	3685.0527	3850.9853
OC1=CC2=C(NCC2)N1	Oc1cc2c(NCC2)[nH]1	
InChI=1S/C6H8N2O/c9-5-3-4-1-2-7-6(4)8-5/h3,7-9H,1-2H2	InChI=1S/C6H8N2O/c9-5-3-4-1-2-7-6(4)8-5/h3,7-9H,1-2H2
