17
gdb 54967	2.93226	1.14945	0.98327	2.2526	72.1	-0.2552	-0.0531	0.2021	1232.0387	0.132247	-458.98575	-458.976485	-458.97554	-459.020051	33.594	
C	 0.0243436448	 1.4051161934	-0.2063191044	-0.483807
C	 0.0351547087	-0.0962881921	-0.0384272543	 0.409994
O	-0.0309441892	-0.6181803871	 1.066741934	-0.36175
C	 0.102938299	-0.9127015769	-1.2723675542	-0.202102
C	 0.8594187021	-2.2301574157	-1.2389874664	-0.333247
C	-0.6322406199	-2.2925383772	-1.2144676376	 0.317143
O	-1.3397009679	-2.6685752622	-0.0947352111	-0.471067
C	-1.3354202295	-2.6731622513	-2.4771790789	 0.121124
O	-0.8952266891	-2.4715057699	-3.5820135721	-0.266888
H	 0.9253923419	 1.7337127932	-0.7362701518	 0.149883
H	-0.8317728049	 1.7058640653	-0.8210969609	 0.15173
H	-0.0320629443	 1.8898818618	 0.7685646768	 0.148377
H	 0.0627677228	-0.39796113	-2.2252847372	 0.118868
H	 1.3568641407	-2.5169918004	-2.1582783345	 0.147182
H	 1.3640043455	-2.4706139838	-0.3093742543	 0.14181
H	-0.957600268	-2.1857475602	 0.661524535	 0.309082
H	-2.3144817428	-3.1646922769	-2.3012771181	 0.10367
80.8854	101.0757	128.5601	158.1723	198.2329	250.9928	311.2928	354.5334	418.5823	472.9395	563.6716	603.3898	609.2442	650.6905	696.2986	768.8711	816.8321	936.5092	960.6241	987.3342	1027.5795	1045.3889	1058.9043	1087.2355	1116.9693	1197.6661	1200.9959	1303.2898	1368.2699	1391.7513	1403.1643	1441.836	1461.1983	1466.0736	1474.0722	1743.2057	1819.7671	2930.763	3037.2925	3097.657	3136.1765	3157.1332	3184.6551	3239.9643	3590.1613
CC(=O)C1CC1(O)C=O	CC(=O)[C@H]1C[C@]1(O)C=O	
InChI=1S/C6H8O3/c1-4(8)5-2-6(5,9)3-7/h3,5,9H,2H2,1H3	InChI=1S/C6H8O3/c1-4(8)5-2-6(5,9)3-7/h3,5,9H,2H2,1H3/t5-,6+/m1/s1
