20
gdb 83616	2.36551	1.96586	1.25311	1.077	79.46	-0.2014	0.063	0.2644	1049.442	0.171262	-403.07741	-403.069482	-403.068538	-403.10962	31.228	
C	-0.2851539428	 1.4766743671	 0.0611562287	-0.333607
N	 0.0861476418	 0.0849130596	-0.0632361361	-0.073118
C	 0.68675415	-0.4264395065	-1.3204709609	-0.074932
C	 0.1845007214	-1.8433401524	-1.7489552381	-0.22509
C	 1.4688910137	-2.4980664344	-1.1246988754	-0.344198
C	 1.8045663937	-1.1474543715	-0.5107739213	 0.482955
O	 3.0912577179	-0.6088553283	-0.2752679197	-0.326687
C	 2.5665749409	 0.2241800246	 0.7962029897	-0.114098
C	 1.1796566476	-0.4845883364	 0.7417510717	-0.126011
H	 0.5283396983	 2.1917956075	-0.1608764345	 0.094229
H	-1.1145312179	 1.6959371688	-0.6196318685	 0.123488
H	-0.6326678036	 1.6723800878	 1.0817043318	 0.119969
H	 0.8804542083	 0.3052535469	-2.1091518747	 0.06907
H	-0.7479028557	-2.1170021601	-1.2529259675	 0.110567
H	 0.0808780738	-1.9931869996	-2.8256051051	 0.103458
H	 1.3410741287	-3.345070338	-0.4456044066	 0.102876
H	 2.1982589953	-2.7730180532	-1.8927475405	 0.116953
H	 3.1347387133	 0.0783006169	 1.7210002684	 0.108846
H	 2.5697377388	 1.2872673426	 0.5297715193	 0.105205
H	 0.8734465165	-0.9975941514	 1.6574091192	 0.080126
99.8731	192.2443	219.4755	221.9528	260.7393	343.3014	371.4921	494.8003	516.3214	612.6922	724.3123	728.9208	816.6549	834.7646	880.4948	897.0041	925.123	962.9954	986.5706	1004.3025	1029.3926	1082.2902	1093.2957	1099.7154	1146.6303	1150.341	1163.2904	1191.3881	1218.71	1234.7482	1236.7954	1253.1969	1266.2485	1300.7227	1321.5909	1339.8415	1352.7269	1450.4691	1465.5259	1485.351	1486.8687	1503.6151	1513.2657	2932.5104	3026.8552	3050.6447	3054.6765	3064.4666	3070.5522	3079.7793	3081.1281	3094.3036	3103.3704	3136.9413
CN1C2CCC22OCC12	CN1[C@@H]2CC[C@]32OC[C@@H]13	
InChI=1S/C7H11NO/c1-8-5-2-3-7(5)6(8)4-9-7/h5-6H,2-4H2,1H3	InChI=1S/C7H11NO/c1-8-5-2-3-7(5)6(8)4-9-7/h5-6H,2-4H2,1H3/t5-,6-,7-/m1/s1
