18
gdb 126629	3.36093	1.05466	0.86025	1.396	75.24	-0.2108	0.0045	0.2153	1362.545	0.148017	-435.280522	-435.271612	-435.270667	-435.315841	31.785	
C	-0.0067992394	 1.4956627914	 0.1037205933	-0.380351
C	 0.0103965198	-0.0336916199	 0.0536350911	-0.180149
C	 0.6695031667	-0.5572774411	-1.2274243688	-0.138655
N	 0.7091007939	-2.0030261266	-1.3003475249	-0.06196
N	 1.6694961516	-2.740856882	-0.6398821177	-0.222359
C	 1.3309426129	-3.9552160551	-0.8583239129	 0.077783
O	 0.2031122976	-4.1057652874	-1.6063850843	-0.205213
C	-0.2334419919	-2.8108482644	-1.8884204334	 0.462878
N	-1.2601258002	-2.4579859314	-2.5388045449	-0.612094
H	 1.0081368495	 1.9071692762	 0.0679874583	 0.117299
H	-0.5652384409	 1.9147846201	-0.7403942648	 0.122499
H	-0.4775317397	 1.853416954	 1.0238088426	 0.119272
H	 0.5519640684	-0.435526465	 0.9178021794	 0.112647
H	-1.0118006227	-0.4251871111	 0.1050418208	 0.119425
H	 0.1149718494	-0.2229930036	-2.1089564844	 0.148179
H	 1.6989138563	-0.1943811896	-1.309558802	 0.12373
H	 1.8408363436	-4.8417408573	-0.5201992763	 0.166312
H	-1.7788025849	-3.2607674771	-2.8814870411	 0.230758
26.5944	68.6092	87.6244	220.9995	232.2508	270.5336	295.2211	364.0135	502.7649	627.8287	693.865	707.8059	726.9904	750.2854	794.3112	810.0514	876.4569	898.4059	948.256	978.5245	1043.5031	1057.3916	1103.927	1124.0801	1203.3874	1239.1637	1295.8103	1310.3085	1333.048	1364.3698	1409.1173	1412.9946	1419.5608	1469.5245	1491.8851	1500.1083	1508.1137	1644.5611	1788.308	3031.6724	3037.1208	3056.847	3071.633	3098.1886	3109.588	3116.6408	3294.3028	3555.6192
CCCN1N=COC1=N	CCCN1N=CO[C@@H]1[NH]	
InChI=1S/C5H9N3O/c1-2-3-8-5(6)9-4-7-8/h4,6H,2-3H2,1H3	InChI=1S/C5H10N3O/c1-2-3-8-5(6)9-4-7-8/h4-6H,2-3H2,1H3/t5-/m1/s1
