22
gdb 62633	2.61793	1.86768	1.63374	1.4868	83.48	-0.2337	0.0862	0.3199	972.8685	0.196831	-367.219308	-367.211603	-367.210658	-367.250825	32.3	
C	-0.0697297257	 1.5350847336	 0.0384286632	-0.438693
C	-0.0089364878	 0.0045005403	-0.0202140133	 0.332547
C	-1.4435141069	-0.5335890144	-0.0677492763	-0.438701
C	 0.9430655105	-0.5714551649	-1.1159199137	-0.07596
C	 2.3210929725	-0.0880830875	-0.6082809906	-0.24984
C	 2.1352737848	-0.5668814337	 0.8298310134	-0.034666
C	 1.3108278093	-1.8084119945	 0.7661050139	-0.034668
C	 1.010543986	-2.0616352162	-0.7095796199	-0.249841
N	 0.6951645932	-0.5251364782	 1.1888562399	-0.133831
H	 0.9101590814	 1.993980805	 0.177206619	 0.116929
H	-0.5092234673	 1.9368152953	-0.880894504	 0.108673
H	-0.6971137154	 1.8480196883	 0.8781564036	 0.121884
H	-1.9407972621	-0.2183744048	-0.9913542931	 0.108673
H	-1.491059361	-1.6218379053	-0.0087569514	 0.116923
H	-2.015019961	-0.1369776187	 0.7765028776	 0.121892
H	 0.6944778398	-0.3531033742	-2.1538588819	 0.061719
H	 3.148502257	-0.6038836837	-1.1069135675	 0.096605
H	 2.4876820478	 0.9861820653	-0.7029377219	 0.100903
H	 2.8489892545	-0.3611309306	 1.6183529868	 0.085971
H	 1.3619878635	-2.6004027286	 1.5034131332	 0.085971
H	 0.0915136255	-2.6222176076	-0.8881502479	 0.100904
H	 1.8305487514	-2.5885864147	-1.2087847891	 0.096606
130.3642	200.3777	210.8605	298.0623	346.9691	403.5457	460.819	480.4596	542.5163	594.8469	708.3915	713.425	791.0454	840.6833	856.6705	885.5695	922.0437	924.0847	936.3853	937.3079	952.8603	967.1331	1002.3346	1018.5443	1023.3435	1067.8475	1067.9538	1137.1043	1141.8828	1172.5099	1179.436	1219.3661	1236.28	1259.7208	1269.6125	1275.3177	1308.6024	1318.6924	1374.9069	1401.3221	1420.7402	1475.0919	1481.173	1496.6876	1504.3712	1508.8868	1531.3315	3039.6018	3045.4473	3053.9042	3059.125	3103.3072	3108.6489	3109.0499	3111.7601	3126.4829	3135.6536	3136.8528	3180.4523	3190.8492
CC1(C)C2CC3C(C2)N13	CC1(C)[C@H]2C[C@@H]3[C@H](C2)N13	
InChI=1S/C8H13N/c1-8(2)5-3-6-7(4-5)9(6)8/h5-7H,3-4H2,1-2H3	InChI=1S/C8H13N/c1-8(2)5-3-6-7(4-5)9(6)8/h5-7H,3-4H2,1-2H3/t5-,6+,7-,9?
