20
gdb 60190	2.87175	0.9342	0.85407	3.2011	82.47	-0.2451	0.0258	0.2709	1452.3245	0.16924	-403.08993	-403.080212	-403.079268	-403.124862	36.523	
C	 0.1215463214	 1.5466626981	 0.1167861981	-0.382448
C	-0.1108096989	 0.0511899373	 0.3024945859	 0.163729
O	-0.2932707804	-0.1813435222	 1.6888565133	-0.449441
C	-1.3236940867	-0.4488222111	-0.5037399057	-0.241826
C	-1.4290476366	-1.9590788345	-0.5076562555	-0.015121
N	-1.5750880834	-2.6144293599	 0.8053653897	-0.332243
C	-2.6907513261	-2.6972260655	-0.1698474519	-0.254245
C	-3.9194927678	-2.0311335812	 0.1607144488	 0.378314
C	-4.9626468716	-1.4869942211	 0.4070727769	-0.434844
H	 0.9439196639	 1.8766843286	 0.7573862538	 0.12259
H	 0.3729335923	 1.7813229392	-0.9225217186	 0.102429
H	-0.77423182	 2.1094965717	 0.3987322157	 0.118433
H	 0.7877074474	-0.4862935862	-0.0564247892	 0.048133
H	-0.7530043611	-1.0294877234	 1.7808465533	 0.294055
H	-2.2288977057	-0.0105201665	-0.0701307859	 0.122446
H	-1.2539875833	-0.1017001742	-1.541311922	 0.098247
H	-0.7849733797	-2.4647579879	-1.2255311275	 0.096914
H	-1.0749484126	-3.4984597903	 0.8321502847	 0.244253
H	-2.8222150061	-3.6565135789	-0.6657789108	 0.116867
H	-5.8798450652	-1.0038037518	 0.6375620667	 0.203758
49.0444	81.4811	155.6629	186.0557	222.6557	234.1428	307.43	343.2063	403.2055	469.5341	500.1589	530.9299	588.9563	600.0563	625.1792	662.6675	804.335	818.4798	843.2762	907.1166	928.9284	950.5596	976.3318	1006.1158	1063.1822	1090.4431	1135.7259	1162.7089	1183.2592	1220.0082	1251.7943	1279.4694	1307.2183	1341.0991	1380.0796	1401.3998	1405.4275	1445.9808	1466.1796	1473.1651	1487.7198	1499.0305	2242.4527	2911.812	3034.9665	3039.9763	3085.7841	3109.4517	3118.022	3118.5749	3131.574	3503.7457	3513.2728	3688.6096
CC(O)CC1NC1C#C	C[C@@H](O)C[C@H]1N[C@H]1C#C	
InChI=1S/C7H11NO/c1-3-6-7(8-6)4-5(2)9/h1,5-9H,4H2,2H3	InChI=1S/C7H11NO/c1-3-6-7(8-6)4-5(2)9/h1,5-9H,4H2,2H3/t5-,6+,7-/m1/s1
