23
gdb 121396	4.08948	0.81766	0.71847	0.2443	83.08	-0.2322	0.0921	0.3243	1652.3501	0.206439	-425.433217	-425.423785	-425.422841	-425.467913	35.287	
C	 0.0205021074	 1.5559334445	-0.0128855721	-0.382268
C	 0.0052671573	 0.0257150175	 0.0029061167	-0.166443
C	-1.4128682812	-0.5558583333	 0.0222047881	-0.192089
C	-1.444763276	-2.0791018049	 0.0029497955	 0.113323
C	-2.8613085125	-2.6473772645	 0.1063603547	-0.093988
O	-2.8580903794	-4.0624182958	 0.0007868721	-0.252253
C	-2.2572826426	-4.4818701554	-1.2135687933	-0.077794
C	-0.840051065	-3.9310957387	-1.3230377271	-0.077059
O	-0.8477097742	-2.5170710492	-1.2178646453	-0.265762
H	 1.0438616297	 1.9437987691	-0.0262956881	 0.111538
H	-0.4947967466	 1.9479814123	-0.8969344098	 0.114246
H	-0.4801775799	 1.9697158381	 0.8700634143	 0.110547
H	 0.5319717211	-0.3647284359	-0.873794537	 0.117243
H	 0.5553931869	-0.3389609079	 0.8805872144	 0.090791
H	-1.9457664306	-0.2093890532	 0.9178775819	 0.092941
H	-1.9764593779	-0.1851958083	-0.8439081191	 0.101419
H	-0.8561596976	-2.4778224978	 0.8487474581	 0.066235
H	-3.3062820494	-2.4082074064	 1.0770491514	 0.106188
H	-3.4874868966	-2.2060810005	-0.6877122028	 0.087833
H	-2.2555235654	-5.5762572026	-1.2064777085	 0.106143
H	-2.8530324986	-4.1349767687	-2.0743347823	 0.091422
H	-0.2140045529	-4.3698479587	-0.5287317035	 0.092695
H	-0.396711566	-4.1757452997	-2.2935772284	 0.105092
71.4915	82.899	110.2372	191.0619	244.6268	261.3283	302.8484	339.5488	363.5884	459.6684	492.7295	517.3113	634.6349	742.0643	821.181	867.9068	889.7948	900.4005	926.7165	992.9858	1006.4887	1035.6221	1064.2132	1105.75	1129.0437	1133.4076	1145.3014	1155.8975	1176.5902	1248.174	1258.6531	1280.997	1302.1337	1323.063	1333.3875	1343.9716	1374.5225	1391.6263	1405.0787	1412.2014	1416.5331	1425.8788	1471.0855	1480.1446	1486.3515	1492.673	1493.8954	1499.3497	1510.5142	2943.6035	2965.5804	2970.2165	2979.5974	3014.5252	3022.1653	3027.5773	3053.1592	3074.6179	3080.9784	3083.5921	3085.5689	3098.39	3101.0954
CCCC1COCCO1	CCC[C@H]1COCCO1	
InChI=1S/C7H14O2/c1-2-3-7-6-8-4-5-9-7/h7H,2-6H2,1H3	InChI=1S/C7H14O2/c1-2-3-7-6-8-4-5-9-7/h7H,2-6H2,1H3/t7-/m0/s1
