21
gdb 120011	2.39449	1.14647	0.85441	2.8142	81.24	-0.2292	0.0263	0.2555	1426.1409	0.182036	-420.402256	-420.392411	-420.391467	-420.437512	35.738	
C	 0.0382748974	 1.5050212931	 0.1375901418	-0.391592
C	 0.232407938	-0.0073776582	 0.1346149931	-0.112963
N	 0.3416761154	-0.5099770175	-1.239557493	-0.299237
C	 0.5347141237	-1.9438490511	-1.3140841225	-0.136363
C	 0.8849828958	-2.5264066802	-2.7140837351	 0.116308
C	 1.0335105178	-1.5824763341	-3.8852770267	-0.408143
O	 2.1919709798	-2.9620744511	-2.1927941054	-0.265917
C	 1.9316514227	-2.4262230422	-0.954474964	 0.465059
N	 2.6381964397	-2.3803915242	 0.0815387192	-0.550872
H	 0.8695011686	 2.0015182021	-0.3709514164	 0.127976
H	-0.889153426	 1.7884894716	-0.3746755862	 0.106204
H	-0.0211919509	 1.8841761391	 1.1619464802	 0.118037
H	 1.1556842413	-0.2759608133	 0.6561338977	 0.149296
H	-0.5931078342	-0.493173793	 0.6877889935	 0.075439
H	-0.5046265127	-0.2667542298	-1.7482758102	 0.214124
H	-0.2420661179	-2.5296333695	-0.7926775385	 0.081537
H	 0.2985232636	-3.4112322867	-2.979704931	 0.090692
H	 1.5763943629	-0.6828556416	-3.590663378	 0.146962
H	 1.5685461784	-2.0800032792	-4.6994628711	 0.130673
H	 0.0475302243	-1.28752737	-4.2614299101	 0.11676
H	 3.5510412822	-2.8130781143	-0.0731687574	 0.226017
72.5718	90.0266	101.9954	126.0959	212.0316	233.6759	262.23	287.4215	367.0148	394.5815	457.5949	525.8078	676.8517	732.3915	782.0069	818.3555	859.6605	868.9601	886.7493	895.1732	950.6325	1026.722	1038.674	1069.663	1073.882	1132.9449	1156.329	1177.3521	1187.9928	1243.2877	1253.9672	1304.3363	1336.5025	1368.3834	1385.4786	1391.2787	1413.305	1416.0188	1479.3479	1485.2197	1491.3652	1498.4648	1500.7528	1526.1285	1820.2352	2926.8607	2945.6534	3030.6832	3041.472	3064.5687	3083.3504	3103.6831	3107.4407	3120.8231	3146.4239	3467.3669	3486.7625
CCNC1C(C)OC1=N	CCN[C@H]1[C@@H](C)O[C]1[NH]	
InChI=1S/C6H12N2O/c1-3-8-5-4(2)9-6(5)7/h4-5,7-8H,3H2,1-2H3	InChI=1S/C6H12N2O/c1-3-8-5-4(2)9-6(5)7/h4-5,7-8H,3H2,1-2H3/t4-,5+/m1/s1
