16
gdb 85509	2.16401	1.66745	1.11958	5.6026	65.23	-0.2661	-0.0514	0.2147	1086.7644	0.124137	-475.083252	-475.074971	-475.074027	-475.11675	29.976	
C	-0.2306529906	 1.5428866161	-0.1106709956	-0.419767
C	 0.0922259204	 0.0606585934	-0.043155764	 0.117416
O	 1.0338816206	-0.2726867687	-1.0710032227	-0.244432
C	 1.9315608432	-1.2014607395	-0.6172807364	 0.475765
O	 2.7907881339	-1.6801776751	-1.2964577116	-0.375658
N	 1.6429388672	-1.4745909206	 0.7137315713	-0.355271
C	 0.7668958933	-0.4685353203	 1.261245134	-0.119305
C	 1.5079421178	 0.5749797163	 2.0928078931	 0.152183
O	 2.690981902	 0.5321637907	 2.3049716645	-0.238261
H	 0.6683376108	 2.1517904075	 0.0207660858	 0.143653
H	-0.659451957	 1.7778357889	-1.0877110085	 0.148429
H	-0.9616683617	 1.8165436516	 0.6566283212	 0.127519
H	-0.8163984821	-0.5276267834	-0.220421676	 0.108794
H	 2.4344976095	-1.7734687518	 1.2657660664	 0.269811
H	-0.004861229	-0.8940928732	 1.9190288939	 0.115553
H	 0.8634885117	 1.3643921682	 2.5369553544	 0.093571
70.0304	96.1604	133.956	248.8476	275.1481	292.3855	337.9278	472.5184	525.9231	547.3982	659.9807	692.1476	728.027	771.7186	821.6697	905.1785	952.722	973.1489	1003.3469	1092.0149	1131.3984	1142.6805	1162.5261	1222.7399	1281.9481	1351.2772	1380.1771	1389.7843	1409.1927	1420.7015	1424.4477	1483.5949	1503.8766	1832.8475	1904.5503	2898.8614	3002.0778	3031.8131	3045.887	3119.9295	3130.7442	3618.4561
CC1OC(=O)NC1C=O	C[C@H]1OC(=O)N[C@H]1C=O	
InChI=1S/C5H7NO3/c1-3-4(2-7)6-5(8)9-3/h2-4H,1H3,(H,6,8)	InChI=1S/C5H7NO3/c1-3-4(2-7)6-5(8)9-3/h2-4H,1H3,(H,6,8)/t3-,4+/m1/s1
