16
gdb 9232	4.31854	1.14032	1.00964	1.9358	68.41	-0.2363	0.0213	0.2576	1158.3499	0.129157	-379.881855	-379.87292	-379.871976	-379.915534	32.448	
N	-0.2078119767	 0.6229698169	-0.9861147656	-0.536037
C	-0.2286966939	-0.3071134826	 0.0235568779	 0.314114
C	 1.1339723268	-0.9136573984	 0.3250792868	-0.132456
O	 1.9223258035	-1.1139102379	-0.8429437491	-0.41526
N	-1.2145363814	-0.656036445	 0.7618212281	-0.285762
C	-2.4957400138	 0.0230350368	 0.5626008577	-0.312352
C	-3.1088738246	-0.1764627814	-0.7564714936	 0.305218
C	-3.5809622652	-0.3362702	-1.8520786705	-0.473934
H	 0.6084157288	 0.5702948912	-1.5791267809	 0.257077
H	-1.0766666562	 0.8159078497	-1.4626501506	 0.261828
H	 1.704803412	-0.2155442031	 0.9475775695	 0.133753
H	 0.9787086259	-1.8322507162	 0.8990362244	 0.125951
H	 1.5383783569	-1.8496156587	-1.3316950301	 0.292056
H	-3.1903371826	-0.3445543292	 1.3259723239	 0.137665
H	-2.3926366852	 1.1072885654	 0.7346553902	 0.129146
H	-4.0219643642	-0.4934620075	-2.8053538481	 0.198993
71.3906	85.3908	120.5104	234.1871	248.7145	327.7296	340.8552	363.8944	413.708	486.6093	543.7345	615.9392	620.8196	645.1888	674.2292	694.699	861.3863	919.8408	977.6308	997.5109	1014.0134	1073.9486	1150.0576	1200.9151	1265.9445	1337.9899	1359.4095	1379.8932	1408.5359	1476.1511	1485.181	1640.115	1736.2662	2220.4448	2970.9617	3045.8213	3053.8577	3096.3562	3502.7005	3554.3296	3664.8143	3811.903
NC(CO)=NCC#C	NC(=NCC#C)CO	
InChI=1S/C5H8N2O/c1-2-3-7-5(6)4-8/h1,8H,3-4H2,(H2,6,7)	InChI=1S/C5H8N2O/c1-2-3-7-5(6)4-8/h1,8H,3-4H2,(H2,6,7)
