17
gdb 70965	4.15643	1.23411	1.1201	4.417	77.75	-0.2362	0.0057	0.2419	1107.5427	0.136763	-380.815403	-380.807759	-380.806815	-380.847252	29.987	
C	-0.0796265351	 1.4780462348	 0.0251050825	-0.506953
C	 0.0291262585	-0.0158172807	-0.0200238068	 0.320177
C	 0.9509441474	-0.8553270437	-0.9061515478	-0.283374
C	 0.094392342	-2.0657308997	-0.4415960058	 0.206812
N	 0.477231076	-2.1627450201	 1.0204959896	-0.353449
C	-0.3118243514	-0.9169843106	 1.1754877976	-0.062218
C	-1.0862849907	-1.0501192868	-0.1041866099	-0.195048
C	-0.0009472678	-3.2844379544	-1.1990373895	 0.151095
N	-0.1002851619	-4.2615368115	-1.8096942864	-0.337843
H	 0.837511846	 1.9279380307	 0.4214753617	 0.132016
H	-0.2538802901	 1.8936530724	-0.973242702	 0.127007
H	-0.9087221632	 1.7950984603	 0.6666325308	 0.124249
H	 0.7947016638	-0.6332648938	-1.9643141213	 0.117573
H	 2.0163734047	-0.918285327	-0.6693283958	 0.116628
H	-0.0794534366	-2.9191438509	 1.4210711679	 0.228244
H	-0.6035380823	-0.5221915453	 2.1396977871	 0.10565
H	-2.1298809891	-0.9961436337	-0.3841944319	 0.109434
136.5969	146.1586	210.1046	267.9041	293.6225	433.5325	479.7137	494.0041	548.2418	556.2635	627.1143	743.9872	753.1859	819.803	892.4227	897.8908	919.731	955.8319	974.1392	993.3029	1025.4984	1052.3057	1090.7344	1124.4023	1140.7351	1168.5902	1197.4864	1236.2253	1251.3987	1304.7517	1363.5673	1409.0845	1428.3957	1486.5175	1491.1873	1500.0942	2353.5522	3027.738	3060.8	3091.9361	3097.0056	3125.8562	3199.9162	3213.7181	3447.1531
CC12CC3(NC1C23)C#N	C[C@@]12C[C@]3(N[C@@H]1[C@@H]23)C#N	
InChI=1S/C7H8N2/c1-6-2-7(3-8)4(6)5(6)9-7/h4-5,9H,2H2,1H3	InChI=1S/C7H8N2/c1-6-2-7(3-8)4(6)5(6)9-7/h4-5,9H,2H2,1H3/t4-,5+,6-,7-/m0/s1
