21
gdb 73668	2.15182	1.9328	1.44921	1.4036	82.47	-0.2369	0.0233	0.2603	1026.9372	0.184457	-387.117128	-387.109137	-387.108193	-387.14956	31.881	
C	-0.1118540843	 1.5472169214	-0.0069772662	-0.459445
C	-0.0280249135	 0.0152069178	-0.0143128142	 0.252809
C	-1.414872417	-0.6605532627	 0.1138016381	-0.259371
C	-1.082037506	-1.9620915045	 0.8406553778	-0.085443
O	-0.0530736753	-1.6172364656	 1.7620652919	-0.269349
C	 0.7618186814	-0.5878442105	 1.2004360525	 0.081618
C	 2.0911073201	-1.1465243076	 0.6314947219	-0.279337
C	 1.8845886033	-1.1209232757	-0.8614923645	-0.079052
C	 0.7583366914	-0.498859083	-1.2035396666	-0.110613
H	 0.8852435581	 1.998808904	-0.0325552097	 0.117074
H	-0.6622280195	 1.9147697193	-0.8802201706	 0.113688
H	-0.6282691426	 1.9073055704	 0.8896528082	 0.115576
H	-2.078799857	-0.043817708	 0.7293615076	 0.099152
H	-1.8990124617	-0.820121531	-0.8540019719	 0.096716
H	-1.9179204013	-2.3756054837	 1.4122774496	 0.103253
H	-0.7346637596	-2.7306161413	 0.1330684374	 0.092209
H	 0.9383699284	 0.1436302566	 1.9956386273	 0.071113
H	 2.9525810312	-0.5321056711	 0.9260109803	 0.102836
H	 2.2721582397	-2.1506681766	 1.0306478092	 0.116188
H	 2.5975632255	-1.5476226576	-1.5594492838	 0.092392
H	 0.4111526788	-0.3432547505	-2.2206086541	 0.087984
63.456	187.0627	233.1774	244.2151	272.3756	358.8197	422.1658	450.2491	583.5682	597.7902	641.7878	750.3352	755.9177	828.7851	852.0867	890.9132	928.0222	940.0451	960.6101	977.6244	986.3419	1001.3897	1025.1767	1038.215	1085.8105	1113.4381	1159.085	1175.1123	1189.2487	1204.9354	1247.0913	1256.7393	1276.7249	1320.3415	1323.2217	1361.9987	1385.5769	1396.3002	1412.0741	1471.04	1483.5908	1491.2225	1500.3902	1518.7945	1686.331	2984.4631	3016.1398	3024.2675	3042.6584	3051.0126	3066.4849	3082.8515	3091.6572	3095.9374	3099.6754	3168.1135	3194.9094
CC12CCOC1CC=C2	C[C@]12CCO[C@H]1CC=C2	
InChI=1S/C8H12O/c1-8-4-2-3-7(8)9-6-5-8/h2,4,7H,3,5-6H2,1H3	InChI=1S/C8H12O/c1-8-4-2-3-7(8)9-6-5-8/h2,4,7H,3,5-6H2,1H3/t7-,8-/m0/s1
