21
gdb 53095	2.76766	0.94449	0.87547	1.5151	89.9	-0.2306	0.0453	0.2759	1489.5313	0.17881	-387.061977	-387.050898	-387.049954	-387.098572	39.472	
C	 0.0797811151	 1.4739978706	 0.1092502708	-0.501507
C	 0.0324852608	 0.0193717161	 0.0511706353	 0.120497
C	-0.0092749252	-1.1839619106	-0.0412794259	 0.029629
C	-0.0478361488	-2.6149522993	-0.0706340044	-0.325208
C	-0.4743214514	-3.3305099047	 1.211992438	 0.087851
O	-0.8285146626	-2.5694460098	 2.3210579556	-0.428944
C	-1.3758877996	-3.3953419406	 0.0061712339	 0.27053
C	-2.679007458	-2.6272533104	 0.0305517508	-0.442911
C	-1.4114019189	-4.6993371953	-0.7658961725	-0.450445
H	 0.9635629568	 1.8277858234	 0.6518253411	 0.148535
H	 0.1121602454	 1.9081893071	-0.8962537422	 0.15154
H	-0.803571321	 1.879836988	 0.614550357	 0.150338
H	 0.7431205611	-3.0874877184	-0.6468325457	 0.103916
H	 0.0801448685	-4.2293599942	 1.4769636879	 0.092579
H	-0.4725807726	-1.6796389173	 2.1934928901	 0.287278
H	-2.6155941463	-1.7495738507	 0.6743681405	 0.126632
H	-2.9586085393	-2.2980744561	-0.9761630683	 0.113266
H	-3.4840072216	-3.2651276935	 0.4124680714	 0.114729
H	-2.1765316091	-5.3699100957	-0.3579138145	 0.119446
H	-1.645767866	-4.5275038341	-1.8228319579	 0.11914
H	-0.4506805375	-5.2225113146	-0.718939371	 0.11311
39.5206	81.0181	90.0931	160.63	200.1763	209.8319	235.4092	260.2483	277.1187	302.1914	339.8848	384.2512	413.8842	505.74	522.1677	612.8442	699.0565	789.1673	819.3698	902.3532	967.3707	974.617	1017.8546	1034.708	1051.5082	1054.4164	1092.2938	1145.5111	1172.8041	1206.204	1241.9167	1325.608	1354.3064	1378.542	1407.3254	1414.3914	1419.3838	1437.2776	1477.0413	1479.5258	1480.0367	1489.32	1499.2658	1509.5675	2351.3985	3021.9271	3026.1047	3034.7694	3085.0516	3085.7085	3088.1214	3090.69	3095.0978	3113.9067	3139.1013	3144.5402	3736.3986
CC#CC1C(O)C1(C)C	CC#C[C@H]1[C@@H](O)C1(C)C	
InChI=1S/C8H12O/c1-4-5-6-7(9)8(6,2)3/h6-7,9H,1-3H3	InChI=1S/C8H12O/c1-4-5-6-7(9)8(6,2)3/h6-7,9H,1-3H3/t6-,7+/m0/s1
