16
gdb 51837	2.94406	1.16421	0.94408	3.2381	67.72	-0.2582	-0.0425	0.2157	1238.4541	0.123592	-475.036271	-475.027776	-475.026832	-475.070888	29.702	
N	-0.0043179946	 1.1073791041	 0.6197946357	-0.433379
C	-0.0180655206	-0.0454220128	 0.1151704072	 0.13596
O	-1.1246634322	-0.8205750585	 0.2401528687	-0.203033
C	-0.9981069886	-2.1724379352	-0.180443796	 0.080799
O	-0.3677979201	-2.9687013739	 0.7662388507	-0.243092
C	-1.3427425511	-3.3455293604	 1.7655219376	-0.097705
C	-2.6483718601	-3.5549647651	 0.9928261485	-0.348254
C	-2.4427078536	-2.7199509333	-0.2715394243	 0.388574
O	-3.2065720245	-2.5398673328	-1.1757351898	-0.283724
H	 0.8794224288	 1.5689887766	 0.4141107576	 0.234418
H	 0.7860462087	-0.5273954494	-0.4560809789	 0.096654
H	-0.445810773	-2.2369957698	-1.1232101442	 0.114101
H	-0.9634928009	-4.2447752286	 2.2518180158	 0.126186
H	-1.4350983313	-2.5477263904	 2.5106758335	 0.130984
H	-2.7897716899	-4.5999289451	 0.6982375709	 0.150001
H	-3.5471692769	-3.2318441355	 1.5223290269	 0.15151
47.296	75.7564	107.6307	148.528	185.7125	297.5707	429.948	479.7776	552.5849	606.5442	667.094	702.1653	823.9092	840.417	853.4336	926.4953	975.5843	998.0311	1042.4945	1058.3499	1079.3543	1116.1732	1167.3597	1202.8694	1242.0768	1264.8873	1278.1689	1317.668	1359.3138	1394.7132	1424.3896	1446.8493	1516.9701	1751.9385	1878.108	3035.248	3048.609	3065.0371	3072.7805	3119.0761	3131.7103	3518.1035
N=COC1OCCC1=O	[NH][CH]O[C@H]1OCCC1=O	
InChI=1S/C5H7NO3/c6-3-9-5-4(7)1-2-8-5/h3,5-6H,1-2H2	InChI=1S/C5H7NO3/c6-3-9-5-4(7)1-2-8-5/h3,5-6H,1-2H2/t5-/m1/s1
