17
gdb 94266	2.20028	1.45179	1.2873	1.7337	69.6	-0.2603	-0.0582	0.2022	1071.1403	0.133494	-458.964849	-458.955831	-458.954887	-458.999358	32.284	
O	 0.5510366283	 0.8855620495	-0.5428610604	-0.418689
C	 0.1269714711	-0.2100330112	 0.1884504167	 0.132059
C	-0.0811581467	-0.1051983757	 1.7166816968	-0.265119
C	-1.3339436022	-0.9994357325	 1.5808481788	-0.264027
C	-1.3977462678	-0.7044340868	 0.0360114091	 0.067543
C	-2.3366848491	 0.4218151495	-0.2868433358	 0.111245
O	-2.1178515126	 1.5877297471	-0.0403279949	-0.284782
C	-1.5945034457	-1.9044940525	-0.8535737893	 0.078547
O	-1.1467694083	-2.9965345507	-0.6043835757	-0.259939
H	-0.0494739917	 1.6150008866	-0.3328592055	 0.300827
H	 0.7741369809	-1.051542584	-0.0718429493	 0.120727
H	 0.7302859964	-0.45615704	 2.3571549031	 0.11205
H	-0.3451748009	 0.9173164466	 1.9973586281	 0.121286
H	-1.1217160079	-2.0614343911	 1.7164056906	 0.143974
H	-2.2174729647	-0.7230439699	 2.1583366206	 0.11929
H	-3.2953046937	 0.1291231915	-0.7712152776	 0.099428
H	-2.1577570454	-1.7269647364	-1.7981795752	 0.085581
41.5702	88.7361	138.6073	205.344	220.0129	244.4347	276.3136	390.8832	467.1225	478.5027	571.8313	592.5442	705.4854	735.2214	779.134	834.2397	912.1171	959.5404	967.7431	1006.5688	1075.8929	1106.3228	1158.6402	1176.1058	1181.7609	1225.8069	1254.898	1267.0442	1303.6544	1346.2017	1434.6058	1436.7328	1448.5629	1478.596	1492.586	1779.8252	1823.0851	2861.2882	2884.6175	3070.8426	3078.8326	3086.4128	3125.1285	3143.7379	3739.9877
OC1CCC1(C=O)C=O	O[C@H]1CCC1(C=O)C=O	
InChI=1S/C6H8O3/c7-3-6(4-8)2-1-5(6)9/h3-5,9H,1-2H2	InChI=1S/C6H8O3/c7-3-6(4-8)2-1-5(6)9/h3-5,9H,1-2H2/t5-/m0/s1
