20
gdb 99902	2.30602	1.3235	1.03766	4.7213	79.14	-0.2912	0.0205	0.3118	1250.5105	0.168819	-403.148334	-403.13829	-403.137345	-403.183111	36.907	
C	-0.1544548479	 1.5142131728	 0.0112951099	-0.398996
C	-0.0392152421	-0.0063169169	-0.1106337062	-0.222137
C	 0.7784841035	-0.4898406076	-1.3315022231	 0.16247
O	 0.2447426631	 0.0262685829	-2.5482265155	-0.447194
C	 2.1570655568	 0.0461044498	-1.241798711	 0.312006
N	 3.2379993597	 0.4357458981	-1.123953292	-0.345388
C	 0.8643623892	-2.0195071191	-1.3544773632	 0.013241
C	-0.1857794312	-2.8374562722	-2.0629450841	-0.2928
C	 1.2127612393	-2.7467573812	-2.621474679	-0.264607
H	 0.8271790977	 1.9715439871	 0.1650908081	 0.147848
H	-0.5874491825	 1.9534173126	-0.8915053969	 0.12386
H	-0.7898102778	 1.781482648	 0.8601337382	 0.119062
H	 0.4120243706	-0.4279418874	 0.7940308873	 0.120052
H	-1.0326517379	-0.4660739488	-0.2004225887	 0.103081
H	-0.7143158772	-0.0472145229	-2.4934027424	 0.292081
H	 1.2572104337	-2.4320116235	-0.4300081976	 0.100257
H	-0.5087675494	-3.7598290493	-1.593941118	 0.119489
H	-0.9667979105	-2.3198867087	-2.6090588397	 0.102345
H	 1.343379682	-2.1431196827	-3.5118937331	 0.136303
H	 1.8619694209	-3.6115712809	-2.5524970632	 0.119025
77.3475	110.0815	148.0012	157.9029	193.567	219.1785	236.7171	287.055	318.0267	387.172	431.5723	487.7621	572.0321	615.9581	691.9453	786.9553	795.931	830.5385	890.2903	914.9342	976.3355	988.1898	1022.7475	1063.3856	1075.7223	1090.3452	1095.2354	1136.4825	1138.2317	1197.5339	1199.3607	1233.3997	1278.9426	1360.9607	1371.2655	1399.0441	1416.6006	1461.454	1481.7797	1494.242	1503.5273	1508.3312	2361.0074	3023.2195	3048.297	3073.2242	3120.022	3123.3453	3136.5455	3146.5748	3155.4611	3217.4587	3238.7309	3812.8931
CCC(O)(C#N)C1CC1	CC[C@@](O)(C#N)C1CC1	
InChI=1S/C7H11NO/c1-2-7(9,5-8)6-3-4-6/h6,9H,2-4H2,1H3	InChI=1S/C7H11NO/c1-2-7(9,5-8)6-3-4-6/h6,9H,2-4H2,1H3/t7-/m1/s1
