19
gdb 85748	3.09209	1.29343	1.07981	1.6997	81.27	-0.2558	0.0382	0.294	1175.8426	0.158632	-385.850894	-385.842451	-385.841507	-385.883752	32.911	
C	 0.1635643732	 1.5662007027	-0.1346307895	-0.40195
C	 0.1158355505	 0.0532945443	 0.006115725	 0.131743
O	 0.8024377936	-0.5248146939	-1.1105970438	-0.279757
C	 1.2191702086	-1.8458742903	-0.7527838331	-0.073416
C	 2.3484694514	-2.2446928126	-1.5872159458	 0.32037
C	 3.2754677869	-2.6105587948	-2.2577475293	-0.438084
C	 1.5083987108	-1.7792883467	 0.7476189388	-0.056688
C	 2.3062177598	-0.586925486	 1.2002909432	-0.294131
C	 0.7985630103	-0.5417664919	 1.2306952397	-0.062926
H	 1.1949553941	 1.9263963908	-0.0911682414	 0.125067
H	-0.2717214322	 1.8736571584	-1.0894223021	 0.127319
H	-0.4059876311	 2.0388155776	 0.6716444407	 0.113821
H	-0.936761777	-0.279871676	 0.0027976978	 0.066887
H	 0.3916551937	-2.5575968951	-0.9165117604	 0.096318
H	 4.0960125179	-2.9249558768	-2.8540406312	 0.196369
H	 1.5267404598	-2.7060062833	 1.3074624015	 0.096562
H	 2.8205277791	-0.6675328521	 2.1509842301	 0.111887
H	 2.8306928017	-0.0090218627	 0.4464123258	 0.131535
H	 0.2744160489	-0.5181794417	 2.1790198939	 0.089074
92.28	132.3941	186.5485	214.0607	269.1342	323.3012	367.3431	480.6645	513.7739	550.2317	614.7049	628.7018	665.569	717.6486	777.2695	836.2173	842.9283	914.9868	930.7617	966.1138	1005.6888	1031.8143	1051.9258	1080.1284	1085.3166	1102.1354	1109.6314	1128.5107	1168.0444	1196.4172	1304.426	1325.3892	1341.1754	1356.4872	1381.42	1402.6317	1412.9171	1481.16	1486.0683	1495.8667	2243.2595	2946.3715	2950.9663	3044.0449	3116.5364	3124.4775	3136.1648	3177.799	3191.9079	3224.1996	3504.0476
CC1OC(C#C)C2CC12	C[C@H]1O[C@@H](C#C)[C@H]2C[C@@H]12	
InChI=1S/C8H10O/c1-3-8-7-4-6(7)5(2)9-8/h1,5-8H,4H2,2H3	InChI=1S/C8H10O/c1-3-8-7-4-6(7)5(2)9-8/h1,5-8H,4H2,2H3/t5-,6+,7+,8+/m1/s1
