15
gdb 132857	3.05179	1.41763	0.97381	3.3087	75.48	-0.2055	-0.0472	0.1583	1142.0044	0.113499	-458.13784	-458.130079	-458.129134	-458.170142	29.398	
C	 0.034354551	 1.5235605915	 0.198329986	-0.467256
C	-0.032300823	 0.0404840446	-0.0088022358	 0.275254
C	-1.1758849584	-0.6824292473	 0.0664473222	-0.059329
N	-1.1556472877	-2.0394280894	-0.1357166559	-0.332738
C	-0.006263377	-2.7612993106	-0.4238875901	 0.262203
N	-0.0525300441	-4.0279590653	-0.6028703175	-0.560841
C	 1.1552800322	-1.8621122304	-0.4766617969	 0.257651
F	 2.3004812036	-2.4812092084	-0.7488225262	-0.065446
N	 1.1657313836	-0.6045414951	-0.293547252	-0.338653
H	 0.7037021212	 1.7723336517	 1.0291781708	 0.138555
H	 0.4300243292	 2.0248944642	-0.6918099855	 0.138543
H	-0.9533624769	 1.9381672187	 0.4162845331	 0.119176
H	-2.1424098331	-0.2473886136	 0.2835616809	 0.133308
H	-2.0047331993	-2.5827444693	-0.0797777744	 0.270709
H	 0.8797913388	-4.3818760212	-0.8032314586	 0.228865
100.4252	156.1211	218.1129	290.8254	323.4934	324.4966	432.6649	481.9862	536.2985	576.9099	595.5189	657.525	692.8272	763.1709	812.9807	822.448	852.3297	977.0302	1018.144	1066.3288	1079.2824	1213.9926	1245.1255	1308.2331	1362.3792	1408.5453	1420.854	1471.4077	1473.0047	1496.4163	1633.0365	1685.9162	1712.7088	3032.4616	3086.7796	3118.8124	3221.9535	3528.9985	3620.6719
CC1=CNC(=N)C(F)=N1	CC1=CN[C@@H]([NH])C(=N1)F	
InChI=1S/C5H6FN3/c1-3-2-8-5(7)4(6)9-3/h2H,1H3,(H2,7,8)	InChI=1S/C5H7FN3/c1-3-2-8-5(7)4(6)9-3/h2,5,7-8H,1H3/t5-/m1/s1
