19
gdb 62270	3.18745	1.51794	1.30649	0.7291	84.47	-0.2456	0.0585	0.3041	1036.8775	0.158703	-348.669097	-348.661134	-348.66019	-348.701013	32.36	
C	-0.0166106647	 1.5513355093	 0.0324948253	-0.467511
C	 0.0581053853	 0.0202856521	 0.006908252	 0.125269
C	-1.2731197827	-0.5520500385	 0.1861306131	 0.295761
C	-2.37866628	-0.9989634243	 0.344277414	-0.463285
C	 0.8028580438	-0.6785556367	-1.1465776029	-0.08604
C	 2.2961860353	-0.7412561909	-0.7815258016	-0.090181
C	 2.4740179546	-0.1147219654	 0.5996726599	-0.257185
C	 1.0915486895	-0.732206479	 0.935312159	-0.085422
C	 1.3224713795	-1.7625615516	-0.2430046009	-0.063899
H	 0.9521522804	 2.0024929441	-0.1913069445	 0.119445
H	-0.7334049825	 1.9047680632	-0.7149756358	 0.125075
H	-0.3534641772	 1.9093566308	 1.0107872549	 0.122552
H	-3.3528987276	-1.3985559073	 0.4800990103	 0.187148
H	 0.4678299602	-0.7721432114	-2.1717708219	 0.088028
H	 3.0404351907	-0.8807960126	-1.5554991416	 0.086791
H	 3.2661348591	-0.6256282398	 1.1547403554	 0.100395
H	 2.6051433022	 0.9673750812	 0.7012413596	 0.09155
H	 0.8064693688	-0.9684243576	 1.957827963	 0.078221
H	 1.2800448555	-2.8391170956	-0.3073839274	 0.093287
139.7582	148.2495	188.0422	243.9019	305.561	445.7129	480.5115	493.2683	516.5463	609.1608	632.1117	635.067	746.4053	785.4513	791.7911	802.2424	845.3221	887.68	916.2821	944.2965	973.5114	1001.0123	1008.6687	1030.4153	1045.6695	1058.7333	1122.1202	1140.1986	1162.0239	1174.3072	1192.0769	1202.346	1228.8391	1272.814	1322.0255	1357.8979	1405.4768	1486.7487	1488.2671	1515.7584	2229.302	3040.2857	3045.0787	3093.2718	3107.215	3130.443	3145.2279	3190.5414	3198.6686	3234.096	3502.2981
CC1(C#C)C2C3CC1C23	C[C@@]1(C#C)[C@H]2[C@H]3C[C@@H]1[C@@H]23	
InChI=1S/C9H10/c1-3-9(2)6-4-5-7(6)8(5)9/h1,5-8H,4H2,2H3	InChI=1S/C9H10/c1-3-9(2)6-4-5-7(6)8(5)9/h1,5-8H,4H2,2H3/t5-,6+,7-,8-,9-/m0/s1
