20
gdb 50995	2.27548	1.33099	0.97052	3.2568	82.17	-0.2415	0.0191	0.2606	1282.9338	0.169901	-403.109362	-403.100248	-403.099304	-403.14377	34.139	
N	-0.251927651	 1.3255601566	 0.010608841	-0.443954
C	-0.0662079587	 0.0752250233	 0.0027673189	 0.107818
O	-1.12842462	-0.746495789	 0.0068108455	-0.237744
C	-0.9901153306	-2.1582681959	-0.0004958724	 0.439706
C	 0.1098038893	-2.8348630942	-0.77255626	-0.327512
C	 0.1214638164	-2.841640993	 0.748533049	-0.327532
C	-2.3567319471	-2.7744617857	 0.007206245	-0.040922
C	-3.4960638751	-2.1522766873	 0.7735254231	-0.273084
C	-3.5074562203	-2.1457656724	-0.7364454598	-0.273081
H	 0.6457528853	 1.8053754206	 0.0059707319	 0.227638
H	 0.9065624363	-0.4259217377	-0.0074109062	 0.093674
H	-0.134668158	-3.7518236965	-1.2979301673	 0.123984
H	 0.8447197517	-2.2206575893	-1.2813828998	 0.121287
H	 0.8641366023	-2.231947527	 1.2514882851	 0.121288
H	-0.1149816474	-3.7632649388	 1.2694031041	 0.123988
H	-2.3143862659	-3.8596555861	 0.0022193928	 0.081791
H	-4.1767856674	-2.8141735775	 1.2972151591	 0.107295
H	-3.3070635948	-1.2071011098	 1.267860021	 0.134041
H	-3.325852985	-1.1963419577	-1.2253869536	 0.134023
H	-4.1960581299	-2.8031318527	-1.2555185776	 0.107296
77.6991	86.5644	103.4873	143.1443	237.4537	255.9968	345.7554	384.3229	482.6325	523.0551	537.6536	726.5225	766.9355	796.8226	814.3942	821.7162	856.6736	883.9126	940.9792	954.3247	977.9114	982.318	1037.7766	1044.2509	1067.1173	1070.3913	1083.0788	1088.4625	1133.4422	1134.4427	1183.1934	1202.4658	1225.9257	1277.9122	1290.7819	1312.5794	1422.9412	1441.6277	1462.1625	1465.5996	1498.2985	1511.9339	1734.0289	3069.1409	3133.6812	3134.6669	3140.4191	3142.4523	3151.5669	3211.3991	3223.7791	3226.0276	3239.213	3516.9562
N=COC1(CC1)C1CC1	[NH][CH]OC1(CC1)C1CC1	
InChI=1S/C7H11NO/c8-5-9-7(3-4-7)6-1-2-6/h5-6,8H,1-4H2	InChI=1S/C7H11NO/c8-5-9-7(3-4-7)6-1-2-6/h5-6,8H,1-4H2
