18
gdb 125878	3.69602	1.08703	1.035	0.6868	77.81	-0.242	-0.0006	0.2414	1221.1385	0.150119	-398.126444	-398.118398	-398.117454	-398.159764	30.085	
C	 0.0312887268	 1.5348743505	-0.2700952067	-0.411257
C	 0.0068395432	 0.0458756694	-0.0147641682	 0.015534
C	 1.2456437059	-0.7947659808	-0.1507125092	-0.308501
C	 0.6434697126	-0.583298011	 1.2218301063	-0.123733
C	 1.3354798379	 0.206176347	 2.2581099372	 0.329982
N	 0.8968640052	 0.2075554961	 3.5239654539	-0.284842
N	 1.7551225762	 1.0037438989	 4.1489311626	-0.072217
N	 2.7245212534	 1.5279658016	 3.4160481369	-0.198525
C	 2.4795182528	 1.0312247864	 2.2031253388	-0.139223
H	 0.9664324448	 1.9909081066	 0.0664741027	 0.120794
H	-0.0749216252	 1.7456176151	-1.3398589803	 0.11827
H	-0.7873087197	 2.0398852016	 0.2539646948	 0.122884
H	-0.9188707498	-0.4373772487	-0.3165546482	 0.09047
H	 1.1752413125	-1.7830566603	-0.5913897946	 0.114855
H	 2.175783846	-0.2799743869	-0.3704847742	 0.114062
H	 0.0926269807	-1.4183829492	 1.6409872821	 0.100255
H	 1.6807836959	 1.1874101951	 5.1362140413	 0.291301
H	 3.122371721	 1.2730938386	 1.3724252646	 0.119892
45.547	121.4636	170.0497	210.2251	282.6188	351.2297	434.7274	493.3614	516.4315	641.6766	721.5067	751.0637	775.4203	853.1813	872.0767	889.6186	931.5904	991.0686	1009.8151	1036.3516	1074.6784	1077.7733	1110.3482	1148.2436	1171.7497	1196.9268	1200.6143	1231.7321	1253.7284	1314.8616	1388.6591	1396.2247	1422.9498	1427.6851	1488.4465	1490.685	1494.2102	1504.0794	1570.4635	3033.8995	3092.6479	3110.2805	3130.2561	3140.5237	3167.4492	3214.298	3271.5693	3670.799
CC1CC1C1=NNN=C1	C[C@H]1C[C@H]1c1n[nH]nc1	
InChI=1S/C6H9N3/c1-4-2-5(4)6-3-7-9-8-6/h3-5H,2H2,1H3,(H,7,8,9)	InChI=1S/C6H9N3/c1-4-2-5(4)6-3-7-9-8-6/h3-5H,2H2,1H3,(H,7,8,9)/t4-,5+/m0/s1
