19
gdb 118745	3.20087	0.9467	0.84966	3.6213	73.03	-0.2392	-0.0193	0.2199	1409.5788	0.155889	-460.158176	-460.148572	-460.147628	-460.193264	35.094	
C	-0.1430874751	 1.3387609059	-0.2024916959	-0.230153
O	-0.0981419143	-0.0691653799	-0.1266340221	-0.25438
C	 0.6772004637	-0.66755952	-1.1466059264	-0.117679
C	 0.7110048694	-2.1596151846	-0.847898774	 0.401042
O	 1.249331369	-2.3849954344	 0.4325326009	-0.485967
C	-0.6438150779	-2.888217655	-1.1644722902	-0.403642
C	 0.0362732855	-3.4827050706	-2.4045299783	 0.410751
O	-0.3608631184	-4.0382998181	-3.387183672	-0.292332
C	 1.4204744712	-2.999302291	-1.9445850498	-0.405501
H	 0.8613918428	 1.7813884384	-0.1235377924	 0.112569
H	-0.597330341	 1.677521512	-1.1455951698	 0.113505
H	-0.7542076871	 1.6910584561	 0.6315496872	 0.133672
H	 0.2418587856	-0.4694503296	-2.1397187095	 0.094595
H	 1.7037626449	-0.2664183504	-1.1370860771	 0.098545
H	 0.8331388677	-1.7354374914	 1.0140808134	 0.286924
H	-0.8568494876	-3.6583186668	-0.416342843	 0.137198
H	-1.5377639865	-2.2813347441	-1.3244883938	 0.129144
H	 2.0395060431	-2.4813842951	-2.6822925569	 0.124757
H	 2.0036069149	-3.8077772014	-1.4921859302	 0.146952
47.2732	84.4581	113.2129	164.9753	225.0666	305.6703	318.0757	374.5325	388.1781	403.6664	446.2121	480.4487	529.2391	666.6614	679.1129	752.2973	867.8278	913.1223	941.5306	988.3076	995.1651	1035.6127	1099.8233	1127.0319	1149.6422	1160.3532	1178.0658	1188.858	1223.3586	1231.1996	1272.1548	1305.2973	1375.3835	1415.6996	1428.5548	1441.4324	1478.9239	1485.5989	1499.0606	1519.8774	1895.0972	2962.8473	2982.997	3002.0865	3030.8822	3057.0218	3062.7351	3116.2767	3120.6306	3124.7121	3771.2754
COCC1(O)CC(=O)C1	COCC1(O)CC(=O)C1	
InChI=1S/C6H10O3/c1-9-4-6(8)2-5(7)3-6/h8H,2-4H2,1H3	InChI=1S/C6H10O3/c1-9-4-6(8)2-5(7)3-6/h8H,2-4H2,1H3
