18
gdb 54850	2.69896	1.57212	1.43568	3.6797	72.15	-0.2424	0.0141	0.2566	1000.1882	0.147948	-439.091754	-439.083595	-439.082651	-439.124739	30.297	
C	-0.2469503194	 1.3075752653	-0.2652804852	-0.484151
C	-0.1814587317	-0.1967481002	-0.093605543	 0.398346
O	 0.7773732545	-0.8647619634	-0.4089509739	-0.348096
N	-1.2849606229	-0.7656867643	 0.5492930571	-0.091558
C	-2.6901435419	-0.7136478478	 0.2026972374	-0.074421
C	-3.0410880888	-0.4245515573	-1.2468539328	-0.106972
O	-2.118218892	-1.1823537922	-2.0151797167	-0.251566
C	-1.8042480999	-2.3772327187	-1.2986358966	-0.106386
C	-1.9134195511	-2.0047671003	 0.1711077665	-0.052711
H	 0.7618562825	 1.7179686453	-0.2020296449	 0.149139
H	-0.6378277131	 1.5307676782	-1.2642416407	 0.154175
H	-0.8954530187	 1.7805149325	 0.4753881743	 0.129744
H	-3.3909140241	-0.4576654888	 0.9916963738	 0.106558
H	-4.0837790657	-0.7358661755	-1.4263121973	 0.103225
H	-2.9398610449	 0.6229225797	-1.5459873177	 0.119141
H	-2.5195391027	-3.1829319417	-1.52552411	 0.099308
H	-0.8000554857	-2.6809839091	-1.6002006782	 0.147792
H	-2.0090895144	-2.7793686718	 0.9252003977	 0.108434
94.6981	118.4187	127.3564	171.7276	273.0092	330.6085	417.5215	449.6677	567.281	618.7402	673.8639	756.9303	771.9919	863.5142	883.8813	932.189	956.6409	994.098	1014.0544	1027.2176	1049.9315	1057.6545	1111.8335	1119.0607	1132.6831	1186.3178	1221.0322	1257.7998	1307.7333	1328.5607	1346.5587	1379.3124	1393.4679	1435.7597	1471.5687	1481.1506	1497.4733	1516.7658	1791.75	2971.0879	2991.0598	3048.2432	3082.5126	3118.5872	3119.0092	3153.4168	3158.0563	3169.7484
CC(=O)N1C2COCC12	CC(=O)N1[C@H]2COC[C@@H]12	
InChI=1S/C6H9NO2/c1-4(8)7-5-2-9-3-6(5)7/h5-6H,2-3H2,1H3	InChI=1S/C6H9NO2/c1-4(8)7-5-2-9-3-6(5)7/h5-6H,2-3H2,1H3/t5-,6+,7?
