19
gdb 65487	2.93999	1.21522	1.01699	2.8966	80.5	-0.2643	0.0285	0.2928	1223.651	0.159506	-382.054287	-382.045455	-382.04451	-382.088071	33.785	
N	 0.3725028118	 1.5187528366	-0.5105353507	-0.54562
C	-0.0268715895	 0.2127500901	 0.0016077003	 0.145695
C	 0.1020950165	 0.0585472045	 1.5565666174	-0.33313
C	-1.349686584	-0.4306236035	 1.5943371527	 0.398269
C	-1.8192629235	-1.7260414614	 2.1897473884	-0.311474
C	-2.3123558214	-0.4055149901	 2.7395572639	-0.329659
C	-1.5759428748	 0.0188893646	 0.1468807875	-0.333129
C	 0.6055019915	-0.9031021163	-0.7197517235	 0.234946
N	 1.1252992428	-1.7486030608	-1.3147110713	-0.348543
H	 1.3833652734	 1.6189079836	-0.4519779871	 0.240888
H	 0.138118821	 1.589459738	-1.4981418822	 0.240888
H	 0.8745136101	-0.6247389081	 1.9153021759	 0.118636
H	 0.2402964894	 1.0455247273	 2.0063080462	 0.118063
H	-2.5114892026	-2.3315736554	 1.6134654923	 0.118231
H	-1.1158783277	-2.2985900798	 2.7858895463	 0.118231
H	-1.9442722402	-0.0850488826	 3.7091616039	 0.115504
H	-3.339346548	-0.118019586	 2.5371885188	 0.115504
H	-2.0699256196	 0.9909261415	 0.0655348211	 0.118063
H	-2.043214245	-0.6936944622	-0.5358218899	 0.118636
37.7968	158.2669	184.206	214.4959	279.7313	299.1414	312.3532	404.0697	417.3085	446.2372	592.0523	602.2269	680.8329	772.4192	801.8492	836.4585	879.3885	900.2895	906.54	916.8703	950.3928	982.6716	996.4973	1055.2871	1078.9418	1103.6757	1138.8219	1183.2785	1186.9237	1235.972	1249.5521	1259.5038	1285.9017	1306.4998	1389.561	1464.3687	1465.1968	1484.5993	1505.5006	1655.4604	2336.9794	3058.1172	3062.1349	3121.8789	3121.9436	3122.2819	3126.3441	3200.3378	3215.3705	3475.2366	3553.3591
NC1(CC2(CC2)C1)C#N	NC1(CC2(CC2)C1)C#N	
InChI=1S/C7H10N2/c8-5-7(9)3-6(4-7)1-2-6/h1-4,9H2	InChI=1S/C7H10N2/c8-5-7(9)3-6(4-7)1-2-6/h1-4,9H2
