16
gdb 80158	2.44978	1.60564	1.34645	5.98	69.96	-0.2359	-0.0644	0.1715	1006.455	0.12502	-437.9238	-437.915962	-437.915018	-437.95624	29.666	
C	-0.0724940262	 1.5646531805	-0.0478803812	-0.431572
C	 0.0505939938	 0.0597113095	 0.0208440889	-0.026959
C	 1.3290321769	-0.7034754669	-0.1932188878	-0.038205
N	 2.5686518995	 0.0179018809	-0.0880640055	-0.304192
C	 2.8324113278	 0.5373013177	 1.1564827095	 0.280951
O	 3.7416034613	 1.2642750744	 1.4726214023	-0.344224
C	 1.6824904488	 0.0186117602	 2.069838409	 0.329817
O	 1.6486285849	 0.1568530937	 3.2624133683	-0.294076
C	 0.7124525906	-0.6989962673	 1.1889413789	-0.196799
H	 0.8492845041	 2.0766692793	 0.2370370805	 0.144552
H	-0.3271634898	 1.8766820961	-1.0662472337	 0.127757
H	-0.8662005586	 1.9164011906	 0.6179983099	 0.140419
H	-0.8304375531	-0.470147383	-0.3343116257	 0.109293
H	 1.349568931	-1.6012587869	-0.8010088378	 0.1169
H	 3.0499580938	 0.3804819223	-0.8973287603	 0.261338
H	 0.1908257254	-1.5526083012	 1.6015147748	 0.125001
95.5846	125.2089	180.4495	259.8111	319.1887	348.1998	451.359	517.8226	553.9393	575.3391	637.4594	689.8768	720.9201	771.52	831.1912	850.029	913.1329	971.804	1005.9224	1056.5286	1073.8097	1123.3852	1130.1601	1149.3699	1216.6294	1276.8718	1311.0465	1367.7074	1395.0029	1425.7883	1432.9395	1492.2171	1503.2485	1841.6769	1853.1413	3043.1363	3104.6668	3123.7816	3142.0089	3170.6558	3203.7229	3620.9697
CC1C2NC(=O)C(=O)C12	C[C@H]1[C@H]2NC(=O)C(=O)[C@@H]12	
InChI=1S/C6H7NO2/c1-2-3-4(2)7-6(9)5(3)8/h2-4H,1H3,(H,7,9)	InChI=1S/C6H7NO2/c1-2-3-4(2)7-6(9)5(3)8/h2-4H,1H3,(H,7,9)/t2-,3+,4-/m1/s1
