18
gdb 90074	2.60298	1.80728	1.52596	2.0527	73.03	-0.2317	0.0715	0.3032	937.875	0.147928	-438.945021	-438.937589	-438.936645	-438.976235	30.903	
O	 0.3187431094	 1.3417975637	-0.3050448155	-0.421865
C	 0.0958649819	-0.0008953948	-0.0350553704	 0.072126
C	 0.1667781592	-0.4569830607	 1.5071424207	-0.363337
C	-1.3667937035	-0.4388962244	 1.4638058657	 0.243318
C	-2.8302680912	-0.9707966572	 1.5499643661	-0.332196
C	-2.7490750417	 0.0819612503	 0.3588943777	-0.113929
N	-1.9110853594	 0.9836984032	 1.2209823611	-0.373295
C	-1.3983526903	-0.5916333927	-0.0554620023	 0.343142
O	-1.4417613544	-1.9003558407	-0.5532447202	-0.461194
H	-0.3796360082	 1.7982012053	 0.1953920745	 0.286477
H	 0.749084679	-0.5874660102	-0.6865659559	 0.085162
H	 0.5799432248	-1.4638106441	 1.6000083846	 0.121217
H	 0.6659029117	 0.2250305984	 2.1991579797	 0.108673
H	-2.9904234185	-2.0178738404	 1.2909892345	 0.128222
H	-3.4382410436	-0.6575251103	 2.4054596219	 0.093077
H	-3.5811229037	 0.4683614822	-0.2386962692	 0.080128
H	-2.4420255711	 1.2708084319	 2.045840849	 0.214768
H	-1.3650351403	-1.8507416794	-1.5116032821	 0.289506
190.588	236.7882	252.5715	286.5335	344.4475	387.7478	450.3185	491.7149	574.0448	612.1012	629.8225	702.4297	748.8247	774.4557	782.2411	851.5773	889.1217	912.1632	947.7631	1016.9146	1024.2419	1050.2592	1075.3018	1106.8821	1119.475	1163.0692	1170.2291	1183.8334	1202.4415	1207.6352	1232.8836	1242.9095	1274.4853	1288.301	1322.8971	1374.3384	1453.9648	1470.7677	1494.1227	3043.9596	3060.1669	3067.1179	3076.7811	3135.055	3141.5294	3418.4968	3636.5342	3812.8828
OC1CC23CC(N2)C13O	O[C@H]1C[C@@]23C[C@@H](N2)[C@@]13O	
InChI=1S/C6H9NO2/c8-4-2-5-1-3(7-5)6(4,5)9/h3-4,7-9H,1-2H2	InChI=1S/C6H9NO2/c8-4-2-5-1-3(7-5)6(4,5)9/h3-4,7-9H,1-2H2/t3-,4+,5-,6-/m1/s1
