12
gdb 21516	3.71146	1.9348	1.27376	5.1793	63.36	-0.2311	-0.0011	0.23	861.0743	0.086911	-373.740541	-373.733682	-373.732737	-373.771558	25.157	
N	 0.0507927364	 1.3741359281	 0.1581100895	-0.60855
C	-0.0254911096	 0.0045547134	 0.0449723565	 0.331079
C	-1.1367722514	-0.8422363728	 0.0169767518	 0.057402
C	-0.5819199149	-2.1532466324	-0.023312362	-0.080546
N	 0.7342143132	-2.1355702983	-0.0266671244	-0.220365
N	 1.0528590144	-0.8063571018	 0.017977836	-0.25124
C	-2.4814827343	-0.4228047179	 0.0084985875	 0.175558
N	-3.5760419336	-0.0382071276	-0.001746272	-0.362442
H	 0.7921191028	 1.819206186	-0.364870366	 0.263235
H	-0.8367634842	 1.8366888881	 0.0151733486	 0.280904
H	-1.1179669675	-3.0896744104	-0.0563963825	 0.135796
H	 2.0214238186	-0.5397406143	 0.0716799469	 0.27917
131.7346	167.9526	247.4962	288.6579	370.3049	474.6913	536.4706	539.9816	611.254	620.4824	669.1952	733.0804	750.1247	896.9304	945.0536	1078.6834	1105.2499	1213.2883	1240.2253	1358.6359	1369.2235	1474.4589	1571.5645	1616.6441	1664.8284	2332.5751	3258.1598	3556.549	3652.5343	3673.4816
NC1=C(C=NN1)C#N	Nc1c(cn[nH]1)C#N	
InChI=1S/C4H4N4/c5-1-3-2-7-8-4(3)6/h2H,(H3,6,7,8)	InChI=1S/C4H4N4/c5-1-3-2-7-8-4(3)6/h2H,(H3,6,7,8)
