19
gdb 65001	1.89432	1.67139	1.04365	0.4598	86.3	-0.2617	0.0316	0.2933	1204.3553	0.155686	-348.670145	-348.66037	-348.659426	-348.704402	37.219	
C	-0.203792904	 1.4647075435	 0.4454223695	-0.463027
C	 0.0351926839	 0.0304450283	 0.0160573413	 0.355772
C	 1.4011491868	-0.3532886305	-0.4863652912	-0.289421
C	 0.9337652513	-0.8252399076	 0.872230389	-0.319643
C	-1.2094087231	-0.6172371343	-0.6394859486	-0.417533
C	-1.6010369261	 0.1009645314	-1.8613722599	 0.35447
C	-1.9159820608	 0.7005229734	-2.8533091912	-0.46162
C	-1.0564737725	-2.0485242822	-0.9222638428	 0.31731
C	-0.9386662367	-3.2223410763	-1.1489736552	-0.435967
H	 0.6997144141	 1.8862624318	 0.8950226329	 0.114228
H	-0.4845646259	 2.0925915706	-0.4058016438	 0.133222
H	-1.0066633175	 1.5275052911	 1.1902943449	 0.113006
H	 1.4642909534	-1.0959968437	-1.2737627591	 0.12584
H	 2.1568734872	 0.423101697	-0.5368162491	 0.108368
H	 1.36233437	-0.3651809473	 1.7563379228	 0.107236
H	 0.6982290299	-1.8775304026	 0.9789861393	 0.125223
H	-2.0342283281	-0.5143263359	 0.0832001281	 0.134424
H	-2.1974323739	 1.2224301365	-3.7342937441	 0.198617
H	-0.8404829878	-4.2594355531	-1.3558917227	 0.199495
58.7642	133.673	156.1805	158.4001	223.3126	322.6321	324.5781	343.0637	345.8884	381.4229	492.494	530.4118	567.9177	629.4707	632.0156	646.0985	648.4928	745.2142	789.6909	865.2346	885.0691	953.1849	956.1176	988.7323	1024.7109	1055.9469	1075.2105	1088.845	1125.9902	1190.3297	1246.7099	1292.4542	1308.1288	1356.8053	1417.8056	1464.163	1490.0024	1499.0624	1510.4851	2236.373	2242.0982	2980.6696	3025.8015	3090.7833	3112.2868	3135.0682	3137.9755	3216.9872	3229.4271	3502.0473	3503.9918
CC1(CC1)C(C#C)C#C	CC1(CC1)C(C#C)C#C	
InChI=1S/C9H10/c1-4-8(5-2)9(3)6-7-9/h1-2,8H,6-7H2,3H3	InChI=1S/C9H10/c1-4-8(5-2)9(3)6-7-9/h1-2,8H,6-7H2,3H3
