21
gdb 49306	2.94979	1.14587	0.8829	3.5097	87.57	-0.2465	-0.0495	0.197	1342.4645	0.184418	-387.12995	-387.121441	-387.120497	-387.163227	32.733	
O	-0.1877941016	 0.006270054	-0.1767920548	-0.279203
C	-0.0381185124	 1.2074893421	-0.1658494177	 0.094789
C	 1.2564744319	 1.9027021887	 0.0004678833	 0.227492
C	 1.2230566379	 3.2449720957	-0.0181527609	-0.125785
C	 2.3959684788	 4.1759553616	 0.12007686	-0.25754
C	 3.2651660706	 3.9545299759	 1.3753344231	-0.182075
C	 4.1153925915	 2.6770677494	 1.3651698913	-0.181155
C	 3.3379180018	 1.3542438786	 1.4101098327	-0.184687
C	 2.4906829874	 1.0498806151	 0.1625230318	-0.312876
H	-0.908165433	 1.8923496857	-0.2861390588	 0.066818
H	 0.2479787435	 3.7125561591	-0.1555470627	 0.095148
H	 3.0365039171	 4.0785909196	-0.7700003632	 0.118722
H	 2.0325494695	 5.2083067802	 0.1166800417	 0.105283
H	 3.9358067906	 4.8165791185	 1.4714818358	 0.097502
H	 2.620683266	 3.9631824671	 2.2635187248	 0.099962
H	 4.7582305191	 2.6835135717	 0.4729513935	 0.091292
H	 4.7947046063	 2.7108505281	 2.2255466	 0.095276
H	 4.0582923236	 0.5373550275	 1.5360357238	 0.097095
H	 2.692903275	 1.3347761889	 2.2979758695	 0.098025
H	 2.1608489049	 0.0074930746	 0.1863489507	 0.129983
H	 3.1230978814	 1.1539074078	-0.7312147138	 0.105936
73.5443	126.5486	189.1166	244.145	267.6203	327.5987	342.9856	378.4023	458.6731	524.4859	561.4999	671.4758	738.1806	804.7727	822.9574	876.6896	884.6708	904.8527	964.261	979.7389	1027.6162	1039.6435	1076.9834	1096.7199	1109.5686	1148.3459	1187.5605	1241.4973	1251.189	1290.9781	1304.4192	1349.3536	1361.8802	1375.1625	1393.8177	1398.4706	1407.5029	1437.0128	1476.8944	1481.684	1483.0057	1489.4856	1496.4261	1703.8646	1788.4376	2870.6374	2994.3236	3004.3249	3006.0813	3021.4056	3022.9098	3053.3037	3061.3715	3066.5481	3071.4965	3091.9234	3125.8793
O=CC1=CCCCCC1	O=CC1=CCCCCC1	
InChI=1S/C8H12O/c9-7-8-5-3-1-2-4-6-8/h5,7H,1-4,6H2	InChI=1S/C8H12O/c9-7-8-5-3-1-2-4-6-8/h5,7H,1-4,6H2
