18
gdb 97400	7.31364	0.62458	0.59779	2.8469	78.58	-0.2483	-0.0306	0.2177	1830.4334	0.144458	-439.084177	-439.074741	-439.073797	-439.120015	33.201	
C	-0.0425213085	 1.5120876096	 0.2248938262	-0.316015
N	 0.1962830307	 0.1107366255	-0.0494906334	-0.203057
C	 0.5923012389	-0.6070263719	 0.9015931998	 0.124947
O	 0.8724795794	-1.9158540302	 0.7056196503	-0.208821
C	 1.1420533975	-2.6893961822	 1.8593971562	 0.117184
C	-0.0796785871	-3.402019139	 2.5186462283	-0.369429
C	 0.7152559165	-4.7151293843	 2.4125250917	 0.397904
O	 0.5964080335	-5.7988017142	 2.9017777361	-0.280724
C	 1.7780969466	-4.0592274898	 1.5154053377	-0.370193
H	 0.5997586062	 2.1261078355	-0.4165156636	 0.131286
H	-1.0783028453	 1.7636884159	-0.0291119949	 0.130603
H	 0.1376395681	 1.8022456882	 1.2731328803	 0.096634
H	 0.7596987233	-0.2568536741	 1.9328040866	 0.074586
H	 1.732998465	-2.1118184059	 2.5783076348	 0.097679
H	-0.3937073951	-3.0917534089	 3.5177889815	 0.132455
H	-0.9467852223	-3.4018658439	 1.8495210202	 0.151667
H	 1.6218846853	-4.3073819576	 0.4602275463	 0.156457
H	 2.8254158773	-4.2287202827	 1.7728494061	 0.136837
31.2914	58.028	82.7824	162.3556	205.9926	289.2478	303.9819	358.5256	411.474	428.5791	493.6538	565.8048	657.2371	687.6967	790.8786	909.6555	941.6525	978.7061	997.2807	1040.0236	1055.7047	1101.1505	1118.361	1141.3885	1156.5825	1179.3819	1210.6044	1233.684	1249.2138	1270.7834	1373.2901	1416.444	1418.9269	1441.7503	1451.4309	1480.9634	1505.4605	1782.2143	1902.801	2967.8624	2987.7838	3049.678	3058.7131	3060.7493	3065.2182	3080.6104	3124.6894	3129.2982
CN=COC1CC(=O)C1	CN=COC1CC(=O)C1	
InChI=1S/C6H9NO2/c1-7-4-9-6-2-5(8)3-6/h4,6H,2-3H2,1H3	InChI=1S/C6H9NO2/c1-7-4-9-6-2-5(8)3-6/h4,6H,2-3H2,1H3
