19
gdb 119026	2.32492	1.11509	0.84688	4.4109	76.47	-0.2571	0.0328	0.2898	1394.2961	0.158471	-419.183819	-419.174093	-419.173149	-419.219252	34.286	
C	-0.2224466284	 1.4804956924	 1.0330911106	-0.231356
O	-0.1497752739	 0.0945903905	 1.2877398852	-0.242679
C	 0.6460430678	-0.6015194977	 0.3571878819	-0.145255
C	 0.5900689407	-2.0858321111	 0.6764713671	 0.295683
C	 1.3459058567	-2.9762950202	-0.3058917388	-0.400302
C	 0.8878617237	-2.823348188	-1.688435806	 0.273012
N	 0.5288098902	-2.6794306031	-2.7773463805	-0.316581
C	 0.4846960944	-2.5192959222	 2.0903399412	-0.280731
N	-0.6651213361	-2.6534275496	 1.1709605967	-0.339484
H	-0.6466516854	 1.6871096883	 0.0393690291	 0.11836
H	-0.8711485542	 1.9163626173	 1.7959123935	 0.134411
H	 0.7686903108	 1.9547216268	 1.0926376985	 0.112633
H	 0.2783454774	-0.4294402287	-0.6678933409	 0.120375
H	 1.6913030569	-0.2476883808	 0.3931878567	 0.096558
H	 2.4206996898	-2.759650789	-0.2712076745	 0.14891
H	 1.2108457376	-4.0197595124	-0.007466853	 0.164663
H	 0.9314053582	-3.458043239	 2.4075486696	 0.113877
H	 0.4467847718	-1.74192486	 2.8459941996	 0.132397
H	-1.312731188	-1.8886209034	 1.350570964	 0.245509
61.7289	79.6684	94.2648	139.6418	190.6839	232.3156	309.8286	341.2409	376.0179	388.4438	396.5216	450.4905	609.4587	752.2068	853.2812	894.7849	912.8827	964.2718	982.0948	997.7516	1010.3894	1051.901	1116.1404	1141.9055	1163.7657	1185.6273	1220.0697	1227.6992	1275.4885	1284.4016	1314.4256	1339.7097	1401.9088	1434.3786	1450.8827	1480.9731	1486.6596	1501.3872	1508.2311	1527.4169	2360.8844	2951.9353	2984.1912	2989.4096	3033.9313	3042.4096	3099.347	3114.4792	3123.4419	3210.3446	3499.5112
COCC1(CC#N)CN1	COC[C@@]1(CC#N)CN1	
InChI=1S/C6H10N2O/c1-9-5-6(2-3-7)4-8-6/h8H,2,4-5H2,1H3	InChI=1S/C6H10N2O/c1-9-5-6(2-3-7)4-8-6/h8H,2,4-5H2,1H3/t6-/m1/s1
