12
gdb 21590	3.53417	2.324	1.40204	4.3611	64.91	-0.2381	-0.0685	0.1696	795.3921	0.083642	-410.810034	-410.802969	-410.802025	-410.841209	26.011	
N	 0.0695018149	 1.3089243243	-0.1347967829	-0.556378
C	-0.0187239778	-0.019412472	-0.0179482451	 0.297124
C	-1.1715291919	-0.7398869161	 0.1202109911	-0.124045
N	-1.1175334873	-2.1045484589	 0.230457385	-0.025657
N	-0.1579544158	-2.8279218005	 0.2259035012	-0.023181
O	 1.2686767644	-2.0517875639	 0.0645981226	-0.321251
C	 1.2925593543	-0.7340787692	-0.0470368173	 0.402302
N	 2.3415693319	-0.01336474	-0.1782311004	-0.565471
H	 1.0032291563	 1.6857713054	-0.229454908	 0.292861
H	-0.738415731	 1.9059242549	-0.1299665755	 0.271705
H	-2.1606391347	-0.3054472443	 0.1508871668	 0.121741
H	 3.1819714868	-0.5900101197	-0.1869815975	 0.23025
107.4757	189.2566	207.1433	296.6152	356.4923	451.2512	512.4036	560.2525	573.2069	607.363	634.5364	789.8185	792.0873	815.5451	852.2157	856.6182	1051.4568	1123.8818	1173.5212	1312.9971	1372.501	1455.1037	1572.3205	1630.398	1684.0921	1729.4018	3226.6124	3503.4063	3554.9779	3721.4382
NC1=CN=NOC1=N	NC1=C(O[N]N=C1)[NH]	
InChI=1S/C3H4N4O/c4-2-1-6-7-8-3(2)5/h1,5H,4H2	InChI=1S/C3H4N4O/c4-2-1-6-7-8-3(2)5/h1,5H,4H2
