20
gdb 33120	2.99017	0.99321	0.79469	2.4887	82.23	-0.1978	0.0511	0.249	1451.5997	0.171073	-403.185853	-403.176122	-403.175178	-403.221102	35.354	
C	-0.0495980964	 1.5138532628	-0.0121826893	-0.510215
C	-0.021443742	 0.014468385	-0.0080545508	 0.194998
C	-0.0102181176	-0.8009267564	-1.1167156085	-0.166222
N	 0.0291870869	-2.1053008459	-0.6914398334	-0.243787
C	 0.0473853025	-2.1385929597	 0.67871621	-0.172392
C	 0.0160524868	-0.8418172123	 1.1431338008	 0.175772
C	 0.0005240302	-0.4153147338	 2.5822131639	-0.304195
C	-1.4091283395	-0.1329063524	 3.1062495922	-0.060922
O	-1.2969834503	 0.2818291305	 4.460264491	-0.420207
H	 0.7811559145	 1.9377435678	 0.5649104687	 0.124469
H	 0.0261987382	 1.904838641	-1.0312400657	 0.115905
H	-0.9730972878	 1.9145188179	 0.4236326453	 0.121566
H	-0.0197562367	-0.5562029162	-2.1673689159	 0.11139
H	 0.0605957807	-2.9098333743	-1.291355774	 0.258305
H	 0.0906999571	-3.0741542511	 1.2143330155	 0.113036
H	 0.4494164861	-1.1878718618	 3.216346534	 0.103206
H	 0.6004523953	 0.4914814349	 2.7246500843	 0.105185
H	-1.887597319	 0.6435364477	 2.4884564665	 0.08719
H	-2.0206766753	-1.0442300688	 3.0126838318	 0.083658
H	-2.1806063237	 0.4638439552	 4.7925177336	 0.28326
51.505	87.424	114.8583	130.3702	240.2103	250.4681	255.8009	339.5483	367.3694	407.379	447.7506	637.0177	640.0359	668.5634	711.538	755.8989	774.5784	799.894	907.8897	1002.317	1006.6376	1040.9621	1064.394	1073.0961	1091.0075	1121.9773	1198.5272	1218.552	1237.0202	1262.5074	1307.1693	1319.4125	1355.3297	1399.7826	1420.725	1450.5644	1472.9253	1482.3079	1488.0148	1499.4221	1524.401	1560.2959	1620.8111	2968.3508	2995.751	3018.723	3032.5764	3063.4103	3076.0601	3100.4007	3252.5644	3255.7085	3691.7804	3830.989
CC1=CNC=C1CCO	Cc1c[nH]cc1CCO	
InChI=1S/C7H11NO/c1-6-4-8-5-7(6)2-3-9/h4-5,8-9H,2-3H2,1H3	InChI=1S/C7H11NO/c1-6-4-8-5-7(6)2-3-9/h4-5,8-9H,2-3H2,1H3
