17
gdb 15373	3.14935	1.44155	1.11558	2.8745	65.42	-0.2475	0.0233	0.2707	1066.5139	0.141659	-400.9981	-400.989403	-400.988459	-401.032061	30.621	
O	 0.0288378116	 1.1441630733	-0.0256961129	-0.425507
C	-0.0790083966	-0.222355462	 0.3585457152	-0.103461
C	-1.4730587767	-0.6827591645	 0.0277535402	 0.037217
C	-1.8276926422	-1.110237377	-1.3742025538	-0.322199
C	-1.7850218628	-2.1299099628	-0.2658184884	 0.019412
N	-0.7431396445	-3.1176976785	-0.2887892315	-0.281576
C	-0.1274275637	-3.5805590466	 0.8356298634	 0.15128
O	-0.2779966346	-3.1328647012	 1.9512000243	-0.31846
H	 0.8617335668	 1.480523171	 0.3178042406	 0.284909
H	 0.6553490003	-0.8438949711	-0.1751771619	 0.078998
H	 0.0985610709	-0.3552840816	 1.4343316137	 0.113697
H	-2.2455902068	-0.1571059213	 0.5805540972	 0.099045
H	-2.7916589615	-0.8378688757	-1.7877206177	 0.120075
H	-1.0174965225	-1.1338620357	-2.0962713947	 0.117818
H	-2.7355395766	-2.4945922447	 0.1163811703	 0.106851
H	-0.604595994	-3.6381106596	-1.1417419181	 0.248577
H	 0.5578511429	-4.422504002	 0.606935184	 0.073325
52.4009	86.2663	140.2392	177.2736	251.066	257.6125	287.1369	385.8849	439.73	523.0839	588.6126	763.5186	817.34	859.9387	869.9569	921.6196	1029.5231	1037.2682	1039.4601	1069.3823	1072.2014	1132.5588	1139.4355	1175.753	1204.65	1248.9836	1271.2581	1286.9153	1377.2876	1412.3036	1432.1447	1470.1123	1489.1007	1506.2695	1524.3974	1809.8813	2924.6939	2988.9568	3030.8619	3125.4548	3134.8914	3160.8512	3222.8567	3613.044	3828.8925
OCC1CC1NC=O	OC[C@H]1C[C@H]1NC=O	
InChI=1S/C5H9NO2/c7-2-4-1-5(4)6-3-8/h3-5,7H,1-2H2,(H,6,8)	InChI=1S/C5H9NO2/c7-2-4-1-5(4)6-3-8/h3-5,7H,1-2H2,(H,6,8)/t4-,5-/m1/s1
