21
gdb 46353	3.28013	1.07079	0.84965	2.5646	83.6	-0.2338	-0.0165	0.2173	1390.1238	0.182497	-387.091021	-387.082212	-387.081268	-387.125596	32.886	
O	 0.2119482914	 0.0673245614	-0.2635952511	-0.298896
C	 0.0236647871	 1.2305703869	-0.0509966161	 0.38961
C	-1.2207079534	 2.0673802677	 0.2898254001	-0.33782
C	-0.2539047443	 3.191498877	 0.7715005801	-0.255749
C	 0.9648528058	 2.4376561372	 0.1407290059	-0.11553
C	 2.2312846509	 2.2205402755	 0.9445391574	 0.051954
C	 3.3961418165	 1.4081396632	 0.309332426	-0.220924
C	 4.3936102861	 2.3902386319	 0.980567779	-0.212171
C	 3.2264345587	 3.4016801757	 1.1442995575	-0.238134
H	-1.7868151723	 2.3324746998	-0.6093299562	 0.131041
H	-1.9109968108	 1.628713458	 1.0147075748	 0.128093
H	-0.4504090357	 4.1929295541	 0.3872651578	 0.107749
H	-0.1842300426	 3.2397211411	 1.861097716	 0.111735
H	 1.2144501168	 2.8579828262	-0.8435350914	 0.092043
H	 1.9721178959	 1.7886673162	 1.9190131133	 0.068217
H	 3.4639961131	 0.346611704	 0.5537579904	 0.108655
H	 3.400777573	 1.5115588406	-0.7805421908	 0.099428
H	 4.7428109514	 2.0162950017	 1.9473844759	 0.102821
H	 5.2623031531	 2.7091617955	 0.4000688917	 0.096615
H	 3.1811668368	 4.102320726	 0.3036907884	 0.096055
H	 3.1630705624	 3.9721865804	 2.0742669114	 0.095208
56.2721	69.5358	105.4675	135.2295	239.6508	317.0485	359.9553	444.7666	548.7624	606.8647	685.2531	721.3562	755.1212	787.4441	850.1942	898.6332	917.0728	933.3483	938.1565	949.9178	992.0154	996.2338	1015.521	1073.4254	1085.5073	1111.1202	1185.5813	1197.0237	1202.5058	1217.9624	1231.9089	1246.4675	1255.6093	1260.5978	1262.7774	1275.8973	1288.8768	1303.7706	1389.5451	1440.033	1478.7612	1486.4714	1492.7718	1509.827	1883.3033	3012.7096	3030.2638	3045.4847	3055.7438	3056.1916	3058.2616	3073.1619	3096.9867	3108.8697	3110.6043	3121.8888	3133.1758
O=C1CCC1C1CCC1	O=C1CC[C@H]1C1CCC1	
InChI=1S/C8H12O/c9-8-5-4-7(8)6-2-1-3-6/h6-7H,1-5H2	InChI=1S/C8H12O/c9-8-5-4-7(8)6-2-1-3-6/h6-7H,1-5H2/t7-/m0/s1
