18
gdb 46063	4.4066	0.93014	0.80369	2.7441	72.23	-0.2265	-0.0215	0.205	1380.3818	0.147849	-439.074211	-439.065926	-439.064982	-439.108059	30.608	
O	 0.0839152663	 0.0033764487	 0.1126072219	-0.300865
C	 0.0197164038	 1.2036702023	 0.1139956889	 0.381343
C	-1.2634678867	 2.0456792114	-0.0044226515	-0.2788
N	-0.8511581438	 3.4472379984	-0.1262484211	-0.316402
C	 0.4831651793	 3.5384330099	 0.5148638272	 0.019245
C	 1.1826793554	 2.1922142378	 0.2419054803	-0.344559
C	 1.2379870012	 4.7463341735	 0.0241642874	 0.067538
C	 1.1373859748	 6.049289635	 0.6891339404	-0.177178
O	 2.2909911544	 5.2204970549	 0.8599029474	-0.234711
H	-1.8836323353	 1.7154675726	-0.8412532375	 0.134207
H	-1.8517693693	 1.8954293445	 0.9122661058	 0.137401
H	-0.7523270974	 3.6759072538	-1.1118551163	 0.219282
H	 0.3317009337	 3.6543288581	 1.5958867908	 0.092435
H	 1.898775875	 1.8740527114	 1.0019045972	 0.142465
H	 1.7125016942	 2.2185701942	-0.7205039383	 0.12762
H	 1.4873142731	 4.7303303481	-1.0409680583	 0.088655
H	 1.2987296358	 6.9623264876	 0.118719311	 0.119461
H	 0.5007957253	 6.1511277879	 1.5663393847	 0.122864
60.4225	77.1092	131.5981	175.8121	306.1574	373.1577	415.733	464.7112	513.5081	584.3651	642.223	755.0602	797.1829	829.4149	869.1893	879.8726	927.4314	962.8576	990.6227	1066.835	1090.9806	1097.1623	1119.9776	1151.0567	1160.176	1173.0062	1195.715	1230.6444	1248.0287	1293.5685	1305.8468	1318.5872	1347.5595	1444.9452	1456.4801	1462.2324	1475.838	1530.4593	1853.7212	3012.4425	3020.1348	3030.7939	3067.6134	3089.8591	3104.9616	3119.7672	3178.6213	3494.69
O=C1CNC(C1)C1CO1	O=C1CN[C@@H](C1)[C@H]1CO1	
InChI=1S/C6H9NO2/c8-4-1-5(7-2-4)6-3-9-6/h5-7H,1-3H2	InChI=1S/C6H9NO2/c8-4-1-5(7-2-4)6-3-9-6/h5-7H,1-3H2/t5-,6+/m0/s1
