20
gdb 83832	2.05194	1.84079	1.27573	3.7201	78.87	-0.2336	0.0238	0.2575	1076.6511	0.173804	-403.186347	-403.178153	-403.177208	-403.219004	32.016	
C	-0.0601043407	 1.5952391771	 0.0170821131	-0.415712
C	 0.0246222101	 0.0862073268	-0.0373151209	-0.009957
C	 0.6554914494	-0.6747836466	-1.1796072171	-0.072575
C	 1.3582876628	 0.0501099884	-2.3256457665	-0.221675
C	 2.8712895813	 0.1147083384	-2.1004610691	-0.159272
N	 3.1656916486	 0.6193408912	-0.7606396179	-0.30918
C	 2.609405372	 0.0896499592	 0.3813949006	 0.378769
O	 3.1132865803	 0.2481331552	 1.4781280513	-0.378193
C	 1.3289876066	-0.6667377844	 0.1814848081	-0.151461
H	 0.8448324181	 2.0753878749	-0.3626239208	 0.130498
H	-0.9100990715	 1.960139153	-0.5707159153	 0.113839
H	-0.1985098638	 1.9309109731	 1.0496957779	 0.130223
H	-0.8347010836	-0.4092905646	 0.4071144981	 0.091004
H	 0.1647308887	-1.6028196687	-1.4551767675	 0.08821
H	 1.1618666528	-0.4706846925	-3.2676818178	 0.104787
H	 0.9685148439	 1.0665908136	-2.4425100677	 0.112763
H	 3.3128585733	-0.8824199412	-2.2514012641	 0.106863
H	 3.3389037715	 0.7870163838	-2.8263247869	 0.110065
H	 4.0756066079	 1.0292054985	-0.6010852558	 0.242606
H	 1.2765642721	-1.5510450754	 0.8060712583	 0.108397
86.2146	142.2944	192.7368	229.5457	282.3749	371.3254	418.9002	456.5632	494.8234	536.7206	610.3886	701.7392	724.7545	761.8143	786.8812	818.3869	922.1661	923.4074	942.0303	990.1726	1038.3963	1058.7497	1083.9308	1095.9376	1134.2885	1148.0466	1156.0888	1230.1141	1248.0676	1261.6097	1303.5154	1361.3795	1365.2277	1384.4446	1402.4659	1419.5111	1431.7731	1464.3252	1486.3333	1501.8706	1507.8359	1517.5283	1787.533	2982.9085	3034.8666	3046.4338	3074.966	3087.6523	3095.5221	3118.4294	3138.7695	3151.8432	3180.0505	3597.5181
CC1C2CCNC(=O)C12	C[C@H]1[C@H]2CCNC(=O)[C@@H]12	
InChI=1S/C7H11NO/c1-4-5-2-3-8-7(9)6(4)5/h4-6H,2-3H2,1H3,(H,8,9)	InChI=1S/C7H11NO/c1-4-5-2-3-8-7(9)6(4)5/h4-6H,2-3H2,1H3,(H,8,9)/t4-,5+,6-/m0/s1
