17
gdb 105355	2.1866	1.69609	1.19967	0.9945	68.43	-0.2499	-0.0427	0.2073	1065.4001	0.132892	-458.908896	-458.900235	-458.89929	-458.942439	31.474	
C	-0.1641153223	 1.2057832976	 0.4276491846	-0.258232
O	-0.2262023265	-0.1684898223	 0.0872968823	-0.287608
C	 0.5190499993	-0.5187753649	-1.0429120108	 0.303534
C	 2.0890859909	-0.3606316332	-1.0570261957	-0.339848
C	 2.1818362474	-1.8755907163	-1.2512315091	 0.054212
O	 1.5551302776	-2.4782969175	-0.112882941	-0.237792
C	 0.7234582822	-2.0494532628	-1.1826703923	-0.036095
C	-0.1439922503	 0.0143500614	-2.309959447	 0.092218
O	 0.4219266431	 0.2603607151	-3.3433006194	-0.240885
H	 0.8573254076	 1.51290288	 0.6892224021	 0.119863
H	-0.5232159941	 1.85423928	-0.3853506889	 0.113282
H	-0.809601596	 1.3441200365	 1.297173637	 0.139048
H	 2.4217982247	 0.2234449639	-1.9163421054	 0.137255
H	 2.5359190352	 0.0021425878	-0.1303219061	 0.118853
H	 2.9243649055	-2.4560011255	-1.7836744089	 0.11433
H	 0.0531256457	-2.7734931127	-1.6304390315	 0.113332
H	-1.2466681299	 0.124677063	-2.1988282498	 0.094534
86.4538	116.4151	150.1179	184.1556	210.4428	278.1089	306.761	395.9614	428.0819	525.7485	614.7431	668.6385	792.8439	836.9566	865.2376	883.9427	913.4619	971.8872	1001.7087	1035.3516	1072.5172	1095.1136	1142.724	1152.6803	1181.2811	1212.5662	1230.5348	1244.6558	1254.6701	1266.4172	1377.8687	1399.1162	1451.8888	1482.5151	1488.7107	1506.4558	1827.4771	2881.0193	2989.6263	3046.6591	3082.7592	3128.4218	3151.5925	3188.6216	3209.7283
COC1(CC2OC12)C=O	CO[C@]1(C[C@H]2O[C@@H]12)C=O	
InChI=1S/C6H8O3/c1-8-6(3-7)2-4-5(6)9-4/h3-5H,2H2,1H3	InChI=1S/C6H8O3/c1-8-6(3-7)2-4-5(6)9-4/h3-5H,2H2,1H3/t4-,5-,6-/m1/s1
