14
gdb 32371	4.90969	1.03074	0.85645	6.9991	67.77	-0.2529	-0.0747	0.1782	1248.7982	0.100774	-473.862339	-473.854334	-473.853389	-473.896011	28.323	
O	-0.0155495467	 1.4524571606	 0.0075736523	-0.416349
C	 0.0295050467	 0.0402377456	 0.0018584401	-0.169543
C	-1.3811749774	-0.482146493	 0.012247358	 0.123552
C	-2.4673252556	 0.3246183044	 0.023923302	 0.054742
O	-3.7091185899	-0.1531947012	 0.0329550558	-0.206222
C	-3.9638916337	-1.5605416679	 0.03060899	 0.445887
O	-5.1096035506	-1.8921455175	 0.0392961741	-0.325006
N	-2.8647827221	-2.3978067035	 0.0190003775	-0.322179
C	-1.6737154339	-1.8797892734	 0.0105347856	-0.003948
H	 0.8846369206	 1.7891144308	 0.0009539803	 0.300683
H	 0.5556701654	-0.3428506241	-0.8887499787	 0.112367
H	 0.571171052	-0.3495682699	 0.8801687271	 0.11235
H	-2.4232866351	 1.4068258762	 0.0269490248	 0.168458
H	-0.8442954495	-2.5910965569	 0.0015350911	 0.125209
48.2425	66.7728	192.337	213.1134	286.3906	378.9325	387.3277	498.8978	507.2001	558.9318	639.2364	727.707	778.7298	803.0712	935.5465	947.551	1014.6787	1045.7232	1062.0802	1097.5516	1209.9036	1247.6467	1248.9235	1270.7703	1382.2279	1433.79	1472.4612	1520.149	1567.9646	1708.2444	1878.8321	2955.756	2974.5666	3103.2151	3224.6236	3845.4652
OCC1=COC(=O)N=C1	OCc1coc(=O)nc1	
InChI=1S/C5H5NO3/c7-2-4-1-6-5(8)9-3-4/h1,3,7H,2H2	InChI=1S/C5H5NO3/c7-2-4-1-6-5(8)9-3-4/h1,3,7H,2H2
