12
gdb 19635	6.0673	1.79283	1.72119	4.9957	62.52	-0.2494	-0.0129	0.2365	738.2044	0.084505	-340.266386	-340.260745	-340.259801	-340.296077	21.866	
N	 0.0460807423	-1.0906013145	 0.0017733825	-0.345975
C	 0.0211897696	 0.0671726901	 0.0037740222	 0.149254
C	 0.0038237761	 1.4833016645	 0.0193046768	 0.326502
C	 0.0907031129	 2.4877469929	 1.1566283768	-0.158954
C	-0.8232170859	 3.4082857982	 0.3103268127	-0.04799
C	 0.1825108942	 3.4322279828	-0.7826666472	-0.048031
C	 1.1218783302	 2.5126817249	 0.0364018909	-0.158973
N	-0.912190031	 2.3953298108	-0.8032060949	-0.201743
H	 0.2205583502	 2.312677708	 2.2142882852	 0.126089
H	-1.6472291048	 4.0650105393	 0.5568653373	 0.116867
H	 0.3452137635	 4.1124010353	-1.608474731	 0.116863
H	 2.1902851427	 2.3603277577	 0.0744983887	 0.126091
162.5605	170.2266	504.8774	510.8864	521.4657	667.2294	766.5382	780.4878	793.1602	846.5074	856.1571	864.6856	913.3495	929.6229	966.6829	983.9865	1009.996	1034.4328	1073.5599	1161.9917	1169.3079	1213.7582	1268.7338	1318.4584	1390.1775	2340.5658	3194.9287	3208.31	3230.4653	3240.3668
N#CC12C3C4C(C13)N24	N#C[C@@]12[C@@H]3[C@H]4[C@@H]([C@H]13)N24	
InChI=1S/C6H4N2/c7-1-6-2-3(6)5-4(2)8(5)6/h2-5H	InChI=1S/C6H4N2/c7-1-6-2-3(6)5-4(2)8(5)6/h2-5H/t2-,3+,4-,5+,6+,8?
