22
gdb 60217	3.7466	0.9074	0.82065	1.6507	82.28	-0.2243	0.0758	0.3002	1480.9847	0.193835	-404.3019	-404.292503	-404.291559	-404.336544	35.793	
C	 0.0183907061	 1.5646766372	-0.0354174231	-0.400315
C	 0.0081586875	 0.0373332303	 0.0501807446	 0.135189
O	 0.6528433596	-0.4102579289	 1.24350751	-0.425214
C	-1.4051455302	-0.5422220176	-0.0927928154	-0.21307
C	-1.4623584834	-2.0656908414	-0.1256621369	 0.03315
C	-1.2251030469	-2.9017760942	 1.1918883559	-0.222246
C	-2.6060487559	-3.5310663409	 0.9954608087	-0.045534
N	-3.5718738846	-2.4028242513	 1.0286910723	-0.335302
C	-2.8483246282	-2.7229935944	-0.2291456215	-0.07914
H	 1.0349975849	 1.9446702425	 0.0977141813	 0.120735
H	-0.3606871841	 1.9124848486	-1.0019680468	 0.112725
H	-0.6158199347	 2.0010733398	 0.7465930063	 0.106655
H	 0.6370328986	-0.364988084	-0.7552167305	 0.082142
H	 0.1392668617	-0.0791808914	 1.9889571967	 0.276044
H	-2.0387223693	-0.1754785259	 0.7252894131	 0.104541
H	-1.8447300956	-0.1505165647	-1.0209351637	 0.08766
H	-0.809903284	-2.4476967759	-0.9184550893	 0.069626
H	-0.3956071988	-3.604055015	 1.094145672	 0.102347
H	-1.1071613353	-2.3312276759	 2.1142614992	 0.093598
H	-2.9271452299	-4.536401924	 1.239575263	 0.088874
H	-4.5044915802	-2.8058823416	 0.9389334726	 0.224417
H	-3.3996121672	-2.9630334913	-1.1312167484	 0.083119
45.6506	97.1907	125.9993	216.2796	237.1226	268.927	310.0035	322.6068	422.5461	460.1041	483.7826	559.3761	684.1045	795.9428	820.9157	835.3598	853.7688	862.0752	923.8188	942.3244	961.2513	982.6794	988.8051	1022.1591	1062.8726	1088.4079	1106.2325	1109.6767	1122.8703	1148.065	1166.0313	1196.0679	1227.9459	1249.2521	1297.5125	1300.7519	1327.5108	1337.3533	1364.8891	1387.5911	1394.8332	1402.0792	1422.22	1472.5308	1480.7307	1492.8001	1494.8033	3009.497	3019.4714	3025.7571	3041.2563	3060.2437	3080.2992	3092.7815	3116.5419	3135.4726	3172.3657	3189.8789	3467.9461	3796.201
CC(O)CC1CC2NC12	C[C@@H](O)C[C@H]1C[C@H]2N[C@@H]12	
InChI=1S/C7H13NO/c1-4(9)2-5-3-6-7(5)8-6/h4-9H,2-3H2,1H3	InChI=1S/C7H13NO/c1-4(9)2-5-3-6-7(5)8-6/h4-9H,2-3H2,1H3/t4-,5+,6-,7+/m1/s1
