21
gdb 119224	2.03668	1.09895	0.81536	2.2387	80.64	-0.2477	-0.0215	0.2263	1469.3685	0.179837	-424.224846	-424.214427	-424.213482	-424.260608	37.338	
C	 0.0213095716	 1.3884714575	-0.119687702	-0.418551
C	 0.1963565893	-0.1049476933	 0.0262865987	-0.025981
C	 1.5378614178	-0.7508650758	 0.045793123	-0.317659
C	 0.7113215561	-0.7527624786	 1.3298729286	 0.227277
C	 1.1287577846	 0.0748529486	 2.5300033638	-0.297138
C	 2.331503861	-0.5139722758	 3.264514376	-0.066965
O	 2.6135965549	 0.3297400029	 4.3686515707	-0.417872
C	 0.0326714356	-2.0404925841	 1.6434876846	 0.096859
O	-0.2355698577	-2.8983266858	 0.8342540541	-0.278136
H	 0.8680351002	 1.9480655984	 0.2866490653	 0.122695
H	-0.0610844752	 1.6492182327	-1.1805406221	 0.126913
H	-0.8879724765	 1.7396804586	 0.3795428947	 0.125053
H	-0.5828371426	-0.7004921749	-0.4414053217	 0.111975
H	 1.6565358354	-1.7101501543	-0.4455460177	 0.135914
H	 2.4113038352	-0.1060982019	 0.0382227137	 0.114079
H	 1.3782675615	 1.0979454724	 2.2375065473	 0.111933
H	 0.2953831518	 0.1526241683	 3.2400798357	 0.11102
H	 2.1054097418	-1.5417920841	 3.5936994633	 0.088194
H	 3.1884608513	-0.5781108224	 2.575433463	 0.091287
H	 3.3718969057	-0.0293833192	 4.8382500307	 0.287723
H	-0.2483943815	-2.1650069694	 2.7146670802	 0.071379
75.8182	89.7605	115.9764	127.6949	200.9466	213.5322	221.0977	265.1514	294.7478	347.5356	374.8516	420.5017	491.8639	659.1324	738.3456	759.3424	788.4567	886.0939	909.4281	959.8902	998.6982	1008.915	1041.6971	1061.9571	1078.7163	1089.4929	1135.1204	1135.8816	1199.6259	1215.7292	1244.4447	1279.4953	1294.9141	1324.9153	1354.8586	1399.7809	1425.5403	1433.8346	1460.4884	1469.6021	1489.9779	1495.2248	1502.6158	1525.278	1802.3791	2864.7562	2962.2582	2991.6288	3033.4331	3036.2245	3094.1732	3099.0351	3113.0406	3127.124	3153.6499	3222.7547	3832.0304
CC1CC1(CCO)C=O	C[C@H]1C[C@]1(CCO)C=O	
InChI=1S/C7H12O2/c1-6-4-7(6,5-9)2-3-8/h5-6,8H,2-4H2,1H3	InChI=1S/C7H12O2/c1-6-4-7(6,5-9)2-3-8/h5-6,8H,2-4H2,1H3/t6-,7+/m0/s1
