18
gdb 51224	4.25277	1.01715	0.9955	2.3886	75.94	-0.2316	-0.0265	0.2051	1230.6392	0.147469	-401.87478	-401.867	-401.866056	-401.908029	29.406	
O	-0.2968949796	 0.0751019561	 0.1025642582	-0.234616
C	-0.0001899474	 1.2406085431	 0.0808884582	 0.166691
C	 1.3662868236	 1.7792755789	-0.3039868007	-0.409537
C	 1.2779126172	 2.8415723658	-1.3658744703	 0.316062
C	 1.0196215951	 2.6939772016	-2.8588882678	-0.224227
N	 1.5572395613	 4.0963846266	-3.0658402171	-0.166444
C	 0.4920696657	 4.926958223	-2.3726038346	-0.176842
C	 0.9236586421	 4.3193921705	-1.049994669	-0.130882
C	 2.2345195192	 3.9555110914	-1.6833753127	-0.091316
H	-0.7403632909	 2.0297230539	 0.3491606398	 0.076918
H	 1.813177317	 2.2098906439	 0.6044060845	 0.123606
H	 1.9938543533	 0.9393131962	-0.6190158541	 0.126258
H	 1.6964864991	 1.9732337465	-3.3264698423	 0.112239
H	 0.0001875791	 2.5355487557	-3.2293739271	 0.102079
H	 0.7503281062	 5.9858978098	-2.4541588477	 0.113644
H	-0.5262412889	 4.765143694	-2.7439020583	 0.101409
H	 0.7372109329	 4.6473656033	-0.0342943959	 0.092096
H	 3.2740510651	 4.1486894098	-1.4590569633	 0.102863
53.8957	75.5155	150.7439	279.8367	326.4927	424.9219	473.1777	481.7709	642.617	713.1299	778.9208	803.9358	833.2823	845.7907	889.0306	908.5976	935.2442	964.4358	981.7138	1010.4301	1049.3831	1067.2141	1089.7094	1114.9901	1130.0522	1155.7971	1182.0288	1194.7519	1227.2106	1259.458	1280.6938	1306.0481	1324.6628	1410.3353	1423.8753	1451.6855	1502.4548	1521.0571	1837.1913	2867.1258	3008.7357	3030.1443	3040.6514	3084.065	3094.8368	3101.6112	3184.0698	3217.9765
O=CCC12CN3CC1C23	O=CC[C@@]12CN3C[C@@H]1[C@@H]23	
InChI=1S/C7H9NO/c9-2-1-7-4-8-3-5(7)6(7)8/h2,5-6H,1,3-4H2	InChI=1S/C7H9NO/c9-2-1-7-4-8-3-5(7)6(7)8/h2,5-6H,1,3-4H2/t5-,6+,7-/m1/s1
