22
gdb 60359	3.38554	0.68062	0.58886	5.2222	83.8	-0.2746	0.0423	0.3169	1892.8397	0.191976	-404.375425	-404.364379	-404.363435	-404.412351	39.386	
C	-0.0110599315	 1.5701304277	-0.1129726379	-0.403139
C	 0.0104018888	 0.0425418962	-0.0536337485	 0.126477
O	 0.7888453797	-0.5034683031	-1.1163678377	-0.431318
C	 0.6270008692	-0.4773426243	 1.2464571075	-0.18706
C	 0.5755645756	-2.0052635036	 1.3516978915	-0.183602
C	 1.3541175146	-2.5689786372	 2.5640419911	-0.146641
C	 0.7893646514	-2.1246554297	 3.9282160821	-0.390092
C	 1.3887782153	-4.0344867044	 2.4919398221	 0.265573
N	 1.401735913	-5.1890689657	 2.4364845054	-0.326474
H	 1.0053031502	 1.9693707877	-0.0363803394	 0.125656
H	-0.4421054787	 1.916693535	-1.0591258281	 0.106901
H	-0.614616436	 1.9893073892	 0.6988586923	 0.116018
H	-1.0262188772	-0.3306971027	-0.1202517407	 0.066758
H	 0.3950322868	-0.2286291371	-1.9499731591	 0.284232
H	 1.6702172871	-0.1360599943	 1.286205431	 0.104286
H	 0.1027447396	-0.0102091639	 2.0872298714	 0.099148
H	-0.46682131	-2.3422891511	 1.4143012097	 0.107342
H	 0.9902549613	-2.4314046576	 0.4346486934	 0.140739
H	 2.3951083804	-2.2264137786	 2.4905516354	 0.126135
H	 1.3507836195	-2.576850888	 4.7493512743	 0.137337
H	 0.8524056585	-1.0388124556	 4.0295600015	 0.127409
H	-0.2587388876	-2.422365389	 4.0274506526	 0.134314
40.8411	71.9482	100.0435	139.549	188.5801	212.7519	242.1542	253.9614	279.2852	287.7923	355.6891	405.0399	456.6098	481.2412	558.3929	586.3836	765.6609	820.3324	861.2587	918.9491	937.5218	949.2776	1025.888	1049.2474	1062.3891	1090.1202	1124.2801	1138.2685	1164.7029	1210.9179	1275.9718	1287.3258	1325.2075	1337.4777	1344.1029	1376.2029	1399.073	1407.396	1412.0755	1427.5004	1473.8991	1493.1163	1493.8769	1496.8538	1499.0792	1504.6072	2355.1879	2950.7166	3020.1693	3021.7893	3029.0009	3039.7979	3049.4706	3072.9462	3095.215	3107.8272	3112.4798	3123.9149	3131.1787	3825.1044
CC(O)CCC(C)C#N	C[C@@H](O)CC[C@@H](C)C#N	
InChI=1S/C7H13NO/c1-6(5-8)3-4-7(2)9/h6-7,9H,3-4H2,1-2H3	InChI=1S/C7H13NO/c1-6(5-8)3-4-7(2)9/h6-7,9H,3-4H2,1-2H3/t6-,7-/m1/s1
