22
gdb 109051	3.46962	1.1081	0.96085	1.2033	88.78	-0.2167	0.0204	0.2371	1327.236	0.19649	-367.212492	-367.203903	-367.202959	-367.245729	33.713	
C	-0.1791285709	 1.5295785464	 0.1019054005	-0.370332
C	 0.0587417557	 0.0100662417	 0.0367507481	-0.279029
C	 0.7579953423	-0.4355775629	-1.2234564842	 0.313087
C	 2.0276442302	-0.8570743349	-1.2258589663	-0.129333
C	 2.7116516239	-1.298698292	-2.4655462801	-0.070539
N	 2.0193594978	-2.3339066968	-3.2926652354	-0.340615
C	 2.099520974	-0.9489439701	-3.7765051683	-0.021075
C	 0.818196538	-0.1441310742	-3.7597650878	-0.217278
C	-0.0397777267	-0.4292877307	-2.5112161155	-0.303663
H	 0.7715276649	 2.0715612261	 0.0813398473	 0.118161
H	-0.781772339	 1.8825121146	-0.7412002057	 0.117338
H	-0.7069302537	 1.8017105804	 1.021464832	 0.111601
H	 0.6472588507	-0.2989174921	 0.9077814467	 0.098172
H	-0.9097853419	-0.5034945532	 0.1165375429	 0.099732
H	 2.5960952523	-0.8882603389	-0.2994475586	 0.073095
H	 3.7951325193	-1.3660213922	-2.4162221262	 0.076386
H	 2.71517197	-2.9045645653	-3.766968363	 0.226226
H	 2.7752136662	-0.7383869828	-4.6035935438	 0.077077
H	 1.0904852811	 0.919206112	-3.7830312921	 0.099233
H	 0.2304677972	-0.3407360961	-4.663942537	 0.098201
H	-0.5180973914	-1.4093772312	-2.6263358687	 0.131205
H	-0.8521556	 0.303583112	-2.4554765749	 0.092349
79.8551	104.729	192.2867	218.5726	257.0076	336.775	354.2627	447.5263	470.9096	518.7686	629.7832	672.0572	763.1111	766.6692	791.0932	834.738	856.3426	900.4832	920.7805	955.3448	970.7081	988.0205	1027.7273	1050.3762	1071.2901	1099.6266	1126.5061	1146.9605	1173.9261	1198.1658	1215.3544	1250.3654	1277.7918	1285.6942	1338.7457	1349.8211	1361.0364	1400.4757	1403.074	1409.3493	1453.7907	1474.1017	1481.5818	1488.1578	1499.6787	1506.9776	1721.4688	3008.0933	3021.4124	3033.0319	3035.2086	3059.8201	3060.2366	3071.4633	3103.5014	3108.6087	3118.4934	3138.0764	3156.0652	3493.2622
CCC1=CC2NC2CC1	CCC1=C[C@H]2N[C@H]2CC1	
InChI=1S/C8H13N/c1-2-6-3-4-7-8(5-6)9-7/h5,7-9H,2-4H2,1H3	InChI=1S/C8H13N/c1-2-6-3-4-7-8(5-6)9-7/h5,7-9H,2-4H2,1H3/t7-,8+/m0/s1
