18
gdb 89974	3.47408	1.17092	1.01692	4.156	74.28	-0.2476	0.023	0.2706	1209.8049	0.147464	-439.079786	-439.070943	-439.069999	-439.114056	30.979	
C	 0.0303763415	 1.4658985463	 0.0915982054	-0.34404
N	-0.0028369244	 0.0278812411	 0.0578346042	-0.087355
C	-1.1065934461	-0.9380862877	 0.0444455128	-0.25065
C	-0.0342474853	-2.0583642372	 0.00857407	 0.119619
C	 0.0295808515	-3.2213900665	 1.0156381092	-0.126306
O	 0.0299802239	-4.2001187151	-0.0416594917	-0.272226
C	 0.0113082045	-3.1733994991	-1.0522025268	-0.126385
C	 0.9969604012	-0.9119602918	 0.0265862812	 0.364021
O	 2.1982461064	-0.8269173173	 0.0179308034	-0.378781
H	 1.0791928284	 1.772237641	 0.0890122775	 0.164162
H	-0.4675279564	 1.9014580531	-0.7834524477	 0.130247
H	-0.4508314183	 1.8593845035	 0.9954509418	 0.130248
H	-1.73119702	-0.9168245748	 0.9457404798	 0.112462
H	-1.7465558306	-0.874292703	-0.8439890336	 0.112455
H	 0.9492627354	-3.2583646669	 1.6120557731	 0.122504
H	-0.8404190537	-3.3233230666	 1.6766683069	 0.103767
H	-0.8702624313	-3.2449058341	-1.7018102574	 0.103762
H	 0.9202796133	-3.182275005	-1.6658773381	 0.122496
77.4955	84.9233	121.4526	154.3402	205.2888	238.2494	252.2196	358.1115	449.0674	541.2958	724.2876	765.4813	797.0839	861.1475	908.2928	944.0608	979.888	987.5733	1041.0799	1045.692	1123.6284	1147.5481	1151.8725	1162.4121	1181.2599	1192.978	1211.1334	1270.3794	1309.219	1330.2736	1379.0307	1422.7651	1449.1788	1481.6092	1500.5107	1510.043	1527.0536	1531.1667	1876.0996	3006.5014	3013.3517	3016.6264	3020.0392	3058.4091	3060.4923	3063.0135	3066.0451	3129.57
CN1CC2(COC2)C1=O	CN1CC2(COC2)C1=O	
InChI=1S/C6H9NO2/c1-7-2-6(5(7)8)3-9-4-6/h2-4H2,1H3	InChI=1S/C6H9NO2/c1-7-2-6(5(7)8)3-9-4-6/h2-4H2,1H3
