20
gdb 110274	2.42412	1.34016	1.18357	3.7824	78.78	-0.2396	-0.0086	0.231	1183.7316	0.170182	-403.136951	-403.127831	-403.126887	-403.17088	33.953	
C	-0.0286211376	 1.6518018204	-0.0201453712	-0.383845
C	 0.1640934706	 0.1407124855	 0.1557374905	-0.216275
C	 0.6473377404	-0.5266678079	-1.1305136189	-0.102374
C	 0.8297788687	-2.0393531525	-1.2896610938	-0.09611
C	-0.4089091092	-2.8171344999	-1.491669149	 0.015095
C	-1.7764755377	-2.57904459	-0.893898914	-0.423785
N	 0.1120476836	-2.030311917	-2.65622659	-0.193527
C	-0.2309215557	-0.6412820392	-2.3899792814	 0.377455
O	-0.9150604762	 0.0988131581	-3.0282717998	-0.308248
H	 0.9153339386	 2.1412824779	-0.2841774004	 0.116255
H	-0.7451797199	 1.8624888673	-0.8190011139	 0.147585
H	-0.3959240863	 2.110103817	 0.9026601085	 0.113692
H	 0.8997906096	-0.0556035479	 0.945864536	 0.103476
H	-0.771543582	-0.3151051265	 0.4936128495	 0.105956
H	 1.5755884567	-0.0368401829	-1.4565557643	 0.117723
H	 1.7913094374	-2.5346427026	-1.2076482456	 0.106816
H	-0.2151343264	-3.8732028952	-1.6734548754	 0.111158
H	-2.0213751795	-1.5221054057	-0.7815501799	 0.141738
H	-2.540553262	-3.0267157727	-1.5373310782	 0.139315
H	-1.8425152032	-3.0559387263	 0.0895712012	 0.127901
74.2034	116.0613	143.939	175.2204	229.003	258.9598	305.6812	338.1402	383.8883	500.8066	573.0799	646.9696	685.535	740.0974	758.1916	815.1523	864.6377	898.1482	928.5765	992.1347	1006.3078	1045.8744	1064.1653	1076.4455	1105.9734	1114.852	1166.6958	1184.3806	1218.4732	1265.1782	1285.7327	1331.0767	1364.3696	1382.1504	1415.2964	1421.314	1439.463	1484.6311	1496.0845	1499.5745	1504.1155	1513.6795	1900.9208	3021.1546	3031.5376	3037.5146	3044.3961	3079.8575	3105.0648	3106.7117	3119.2562	3121.9546	3144.6329	3173.9737
CCC1C2C(C)N2C1=O	CC[C@H]1[C@H]2[C@@H](C)N2C1=O	
InChI=1S/C7H11NO/c1-3-5-6-4(2)8(6)7(5)9/h4-6H,3H2,1-2H3	InChI=1S/C7H11NO/c1-3-5-6-4(2)8(6)7(5)9/h4-6H,3H2,1-2H3/t4-,5+,6-,8?/m1/s1
