18
gdb 80003	2.82105	1.78581	1.58879	0.6265	75.91	-0.2159	-0.006	0.2099	923.6002	0.149128	-401.846127	-401.83937	-401.838426	-401.876661	29.126	
O	 0.1288789577	 1.471729436	-0.1429295886	-0.446403
C	-0.0099783188	 0.0951268039	-0.0217039336	 0.146814
C	 0.01436231	-0.6262783367	 1.3623998058	-0.124174
C	-1.1689757709	 0.1188117329	 2.0384138949	-0.078404
C	-2.1332412463	 0.1329503052	 1.1014353562	-0.198971
C	-1.4375090723	-0.6346624683	-0.0172707051	 0.25852
C	-1.7088719888	-1.5764868231	-1.1938425297	-0.343997
C	-0.5753910665	-2.4603765904	-0.5592245374	-0.189743
N	-0.8090475619	-1.7578924223	 0.7625947354	-0.122027
H	-0.4727785464	 1.8693796788	 0.5016011576	 0.270648
H	 0.6781071223	-0.3354589409	-0.7487441206	 0.087845
H	 0.9089408838	-0.8266493048	 1.953812425	 0.067196
H	-1.1741407632	 0.5234758243	 3.040294609	 0.110741
H	-3.1315975027	 0.5438659524	 1.1348485661	 0.114671
H	-2.685833846	-2.0633846853	-1.1507404491	 0.118568
H	-1.5369983121	-1.1802494343	-2.1963875891	 0.109614
H	-0.7796970126	-3.5295684158	-0.4722858409	 0.109672
H	 0.3999053448	-2.3298082017	-1.039021506	 0.10943
231.0877	262.7565	317.4643	335.7648	417.0418	496.6176	546.7682	583.2132	593.0489	667.7285	703.7848	762.2381	801.2493	826.2793	831.6198	864.2838	900.0426	904.2172	920.1504	939.4567	1002.7429	1032.452	1065.8842	1109.7392	1134.8961	1155.5606	1181.9252	1199.7952	1209.7479	1229.7907	1232.6498	1253.6553	1280.6136	1301.5664	1341.1906	1456.8092	1479.7656	1519.039	1573.5432	3043.8198	3070.6741	3098.4595	3106.9474	3125.3254	3131.2269	3225.9913	3251.2328	3739.8252
OC1C2C=CC11CCN21	O[C@H]1[C@H]2C=C[C@]31CCN23	
InChI=1S/C7H9NO/c9-6-5-1-2-7(6)3-4-8(5)7/h1-2,5-6,9H,3-4H2	InChI=1S/C7H9NO/c9-6-5-1-2-7(6)3-4-8(5)7/h1-2,5-6,9H,3-4H2/t5-,6+,7-/m1/s1
