19
gdb 76459	2.13527	1.30468	1.18949	3.4082	78.53	-0.2445	-0.0333	0.2112	1187.4567	0.15594	-423.044653	-423.034747	-423.033803	-423.079179	35.519	
C	-0.3928508802	 0.911958716	-1.7790405446	-0.426456
C	-0.0342864076	-0.2614799314	-0.8953933033	-0.057164
C	 1.3222216586	-0.5429227114	-0.3818166129	-0.057167
C	 2.5425524185	 0.3028900135	-0.6677434295	-0.42646
C	 0.2304058085	-0.0784864807	 0.6310724997	 0.087327
C	 0.275364969	 1.2721840558	 1.2519561799	 0.091545
O	 0.6840378662	 2.2856823136	 0.7273570714	-0.286426
C	-0.3200720063	-1.1565367985	 1.4943162182	 0.111436
O	-0.7185310421	-1.0145530337	 2.6242349738	-0.267585
H	 0.14562538	 1.8171626141	-1.5017242342	 0.164895
H	-0.1624311079	 0.6669274112	-2.8215834689	 0.124524
H	-1.4645419734	 1.1241208573	-1.7161881738	 0.127935
H	-0.6382338847	-1.1471164122	-1.0876453214	 0.102497
H	 1.5493259655	-1.6009997951	-0.2594777859	 0.1025
H	 2.3129163563	 1.3674646253	-0.681279565	 0.164876
H	 3.3115949448	 0.1331441561	 0.0920213564	 0.127941
H	 2.9642141711	 0.0181174129	-1.6378665443	 0.124537
H	-0.1145030236	 1.2819230631	 2.2873454324	 0.119415
H	-0.3412549427	-2.158214726	 1.0015085521	 0.071831
83.861	149.4481	156.4199	182.0154	193.102	207.676	234.4495	251.8047	280.0238	366.5334	416.1327	466.2378	533.646	676.2309	686.141	743.3178	808.493	960.8415	997.8758	1011.7254	1035.9792	1054.0789	1070.1344	1082.8767	1120.3155	1137.922	1196.3734	1257.133	1322.106	1379.5404	1413.6688	1417.664	1420.7663	1440.3903	1445.9666	1482.8357	1497.6865	1504.8746	1514.9919	1789.0744	1814.0533	2840.5453	2961.7156	3042.1454	3044.101	3100.104	3101.1787	3109.8356	3119.4575	3159.875	3166.4063
CC1C(C)C1(C=O)C=O	C[C@H]1[C@@H](C)C1(C=O)C=O	
InChI=1S/C7H10O2/c1-5-6(2)7(5,3-8)4-9/h3-6H,1-2H3	InChI=1S/C7H10O2/c1-5-6(2)7(5,3-8)4-9/h3-6H,1-2H3/t5-,6+
