23
gdb 101040	2.49361	1.03199	0.97752	1.5601	81.82	-0.2312	0.0829	0.3141	1396.7493	0.202822	-425.393997	-425.383103	-425.382159	-425.430013	39.793	
C	 0.2648803789	 1.3542867135	 0.2609956704	-0.251598
O	 0.1444032128	-0.0241136458	 0.0084382428	-0.298095
C	 0.6576207963	-0.5438629272	-1.1957407456	 0.451386
C	 0.2571705797	 0.0349674138	-2.5283714838	-0.335392
C	 1.6854950623	 0.1813104196	-2.0229968782	-0.345671
C	 0.771303332	-2.0549060661	-1.062274323	-0.00954
C	 1.7995687197	-2.462816249	 0.0006742477	-0.402344
C	-0.6010641786	-2.6763020792	-0.7850600438	-0.084987
O	-0.4679708021	-4.0898821395	-0.8856608254	-0.427027
H	 1.3120442031	 1.6676090427	 0.3733638114	 0.112708
H	-0.2053579734	 1.973731368	-0.5167897971	 0.107858
H	-0.2550474698	 1.5404605604	 1.2041007081	 0.128174
H	 0.0559278653	-0.6498381551	-3.3452430829	 0.115868
H	-0.3520807072	 0.9319543675	-2.542553196	 0.113527
H	 2.0015842588	 1.1750666161	-1.7294644822	 0.113776
H	 2.4687603467	-0.4088972667	-2.4867715927	 0.116101
H	 1.0985355911	-2.4419036292	-2.0356532316	 0.077565
H	 1.5415236871	-2.0224779012	 0.9682168369	 0.120618
H	 1.8198929687	-3.5495985699	 0.105637406	 0.127236
H	 2.8029788942	-2.1193901111	-0.2702932314	 0.103421
H	-0.9456294576	-2.3752940253	 0.2138686911	 0.099864
H	-1.3306914827	-2.2964054091	-1.5172544669	 0.081845
H	-1.2893408954	-4.4889526873	-0.586074754	 0.284705
59.2492	81.412	107.9583	169.501	199.6211	223.2746	237.4639	245.6377	286.9562	299.2971	353.8689	363.4222	469.8266	530.8599	550.2616	711.9672	767.4137	847.0078	889.2459	916.8886	931.5635	943.0978	967.2007	1023.9699	1050.3421	1070.6939	1073.9145	1115.763	1140.2599	1165.1603	1178.0293	1186.5748	1212.1159	1229.8748	1266.1238	1282.8164	1306.7049	1353.4327	1389.1074	1396.616	1452.7332	1457.5595	1484.1206	1493.4063	1495.9184	1501.7513	1506.8505	1511.588	1523.9963	2977.6674	2987.4701	3019.1483	3037.6552	3039.1082	3043.934	3110.5889	3110.9523	3132.189	3133.3087	3138.719	3211.9163	3226.5709	3836.7816
COC1(CC1)C(C)CO	COC1(CC1)[C@@H](C)CO	
InChI=1S/C7H14O2/c1-6(5-8)7(9-2)3-4-7/h6,8H,3-5H2,1-2H3	InChI=1S/C7H14O2/c1-6(5-8)7(9-2)3-4-7/h6,8H,3-5H2,1-2H3/t6-/m0/s1
