25
gdb 104611	2.68619	0.9343	0.87831	1.6772	88.88	-0.2581	0.0822	0.3402	1545.0065	0.226618	-389.487014	-389.476099	-389.475155	-389.523088	40.649	
C	 0.0041795601	 1.7266676096	 0.2067178524	-0.400707
C	 0.0134501161	 0.2008913555	 0.3284496579	-0.246467
C	-1.3303446149	-0.4853297078	 0.1194765753	 0.409404
C	-1.3468713865	-1.9971786498	 0.2998361545	-0.251226
C	-0.3862506079	-2.8061917242	-0.5953627093	 0.033414
C	-0.4438501275	-4.2920055166	-0.2139833995	-0.389591
C	-0.6824987097	-2.6156264906	-2.0896458711	-0.377993
C	-2.5958413028	 0.2414031966	 0.3175424497	-0.233541
O	-2.0980470657	-0.0036243939	-1.0006280679	-0.272246
H	 1.0265870198	 2.1149134779	 0.1978446641	 0.111765
H	-0.485867881	 2.032364483	-0.7217327124	 0.138452
H	-0.5182542972	 2.2008977622	 1.0431948586	 0.114863
H	 0.7158613572	-0.2082444941	-0.4077804295	 0.112651
H	 0.4006836098	-0.0994168715	 1.3109266681	 0.10012
H	-1.1180679818	-2.2144751246	 1.3525116444	 0.092484
H	-2.3711379248	-2.3484973391	 0.123292441	 0.095741
H	 0.6380572647	-2.4593811764	-0.4028089472	 0.073214
H	-1.4483942507	-4.6997618888	-0.3799839716	 0.11203
H	 0.2554224079	-4.8808110286	-0.8166346052	 0.109262
H	-0.1919778514	-4.4473226825	 0.8406887566	 0.106447
H	-0.6126056938	-1.5682853893	-2.3923787354	 0.131702
H	 0.0171679555	-3.1971481326	-2.6995507744	 0.102535
H	-1.6969821082	-2.9546482103	-2.3298103103	 0.112444
H	-3.4926759651	-0.3156055805	 0.5881955031	 0.105424
H	-2.5961120422	 1.2842744866	 0.6264274881	 0.10982
49.4915	81.6515	109.3623	156.154	219.8099	228.4371	251.2835	279.4455	311.3724	326.8209	366.0947	381.0133	421.2149	464.7322	558.1424	705.1288	774.6247	806.7662	833.5788	901.1154	909.9389	936.1725	942.9296	971.8958	978.017	1020.3021	1066.0478	1102.7475	1124.8731	1137.3895	1151.7016	1172.7096	1195.9793	1227.8191	1271.1029	1310.2381	1319.3089	1366.1807	1368.6846	1386.9408	1397.3652	1404.2354	1422.1178	1430.5079	1466.7564	1481.7586	1486.1753	1494.7412	1497.9336	1505.6178	1508.3133	1511.6137	1534.2301	3008.7871	3010.5453	3022.806	3024.6056	3032.4221	3042.7303	3056.2436	3057.201	3084.5057	3087.6003	3093.9707	3098.2514	3108.5007	3122.4114	3123.2125	3171.5824
CCC1(CC(C)C)CO1	CC[C@@]1(CC(C)C)CO1	
InChI=1S/C8H16O/c1-4-8(6-9-8)5-7(2)3/h7H,4-6H2,1-3H3	InChI=1S/C8H16O/c1-4-8(6-9-8)5-7(2)3/h7H,4-6H2,1-3H3/t8-/m1/s1
