19
gdb 28931	3.00273	1.35992	1.01833	3.7894	82.51	-0.2106	0.0314	0.2419	1197.1818	0.1608	-382.096804	-382.088484	-382.08754	-382.130506	31.421	
C	-0.2136726268	 1.4723242516	 0.0573625468	-0.50437
C	-0.0626312555	-0.0120080339	-0.0048428048	 0.341635
N	-0.1137696231	-0.7249336761	-1.11247339	-0.316525
C	 0.0698239842	-2.0290925624	-0.7237886821	-0.103103
C	 0.2339036174	-2.1084448765	 0.6312751284	-0.144387
N	 0.1483127119	-0.8083996456	 1.094665594	-0.034816
C	 0.2567086332	-0.3633013449	 2.4550756379	 0.064691
C	-0.2917461359	-1.1869290841	 3.5894082499	-0.284291
C	 1.2030358523	-1.0283407314	 3.4184075132	-0.284315
H	 0.6761043093	 1.9667211711	 0.4648151981	 0.130258
H	-0.3690678661	 1.8339262568	-0.9597540575	 0.154733
H	-1.0722504391	 1.780392826	 0.6657045342	 0.130257
H	 0.0737281072	-2.8368177617	-1.4399467338	 0.103513
H	 0.3987391377	-2.9421087923	 1.2928874876	 0.123449
H	 0.150838948	 0.7111739284	 2.5259056517	 0.113871
H	-0.7831774519	-0.6679902227	 4.4047408476	 0.124412
H	-0.7303683328	-2.1465191751	 3.3403172508	 0.130291
H	 1.7639856424	-1.8818870442	 3.0550365425	 0.130286
H	 1.7457090076	-0.399650903	 4.1154185155	 0.124412
33.0616	142.5742	166.707	188.222	253.8525	300.1759	424.8237	468.2706	598.3656	643.7962	686.8201	713.1336	726.3696	781.4569	811.0353	845.814	907.6939	933.4827	946.0855	997.4386	1060.4404	1063.5585	1075.2776	1082.301	1103.4731	1123.4853	1160.0627	1191.0494	1196.4535	1229.5944	1316.1507	1364.0416	1406.0489	1431.1181	1457.4554	1463.8606	1485.5076	1487.2725	1502.9977	1533.8518	1571.3388	3025.892	3073.9694	3138.9344	3141.6496	3146.8225	3201.0887	3220.3894	3235.0935	3245.1092	3279.5295
CC1=NC=CN1C1CC1	Cc1nccn1C1CC1	
InChI=1S/C7H10N2/c1-6-8-4-5-9(6)7-2-3-7/h4-5,7H,2-3H2,1H3	InChI=1S/C7H10N2/c1-6-8-4-5-9(6)7-2-3-7/h4-5,7H,2-3H2,1H3
