17
gdb 38809	3.13541	1.84556	1.51814	1.0684	69.82	-0.2376	0.0159	0.2535	891.5132	0.139983	-417.999398	-417.992977	-417.992033	-418.030319	25.867	
C	-0.0669179013	 1.4559500459	 0.2791990695	-0.247014
C	 1.2375729998	 0.7781897047	 0.0817845343	-0.016587
C	 1.9834454239	 0.3198794049	 1.3356580282	-0.037287
N	 2.2172192499	 1.3963416478	 2.316322198	-0.255935
C	 1.4243265929	 1.159649955	 3.2766490271	 0.106378
O	 0.6313735736	 0.0589586672	 3.2511268577	-0.230304
C	 0.9982935728	-0.6581511134	 2.0432786704	 0.058934
C	-0.1701836393	-0.8827043877	 1.0662086908	-0.192508
N	-0.0298544272	 0.0333658442	-0.0808162049	-0.100143
H	-0.353030825	 1.7337953832	 1.2902824383	 0.124314
H	-0.4586231375	 2.1102567992	-0.4942436426	 0.119378
H	 1.8154647213	 0.9558326277	-0.8196410341	 0.096853
H	 2.9349716999	-0.1428979095	 1.0642525724	 0.091068
H	 1.2983145417	 1.7799998448	 4.1574578934	 0.142277
H	 1.4483441248	-1.6001738211	 2.3653908016	 0.100783
H	-0.1291360949	-1.9061603731	 0.6794665841	 0.114677
H	-1.1370344054	-0.7507035698	 1.5605156057	 0.125116
90.9049	214.5873	351.9696	369.1119	433.2683	573.0269	608.539	682.9098	747.9607	780.2608	829.9327	871.9107	872.8965	910.66	952.376	971.9348	978.8964	1001.3811	1031.5876	1056.4911	1090.7401	1112.4554	1114.4005	1129.678	1166.2654	1239.3757	1246.0988	1280.7469	1285.7407	1317.4565	1338.4107	1342.3312	1373.8998	1391.8817	1485.8244	1519.0194	1693.123	3048.3098	3073.8522	3086.5583	3099.5723	3111.9919	3157.9111	3196.2005	3212.7999
C1C2C3N=COC3CN12	C1[C@H]2[C@H]3N=CO[C@H]3CN12	
InChI=1S/C6H8N2O/c1-4-6-5(2-8(1)4)9-3-7-6/h3-6H,1-2H2	InChI=1S/C6H8N2O/c1-4-6-5(2-8(1)4)9-3-7-6/h3-6H,1-2H2/t4-,5-,6+,8?/m0/s1
