20
gdb 95913	2.07903	1.5361	1.24476	4.6349	78.75	-0.271	0.0246	0.2956	1136.3987	0.170592	-403.177379	-403.168146	-403.167202	-403.211465	34.621	
C	-0.3993254437	 1.4404764107	-0.0300727178	-0.421771
C	 0.040155178	-0.0209175864	-0.0463690153	-0.025953
C	 1.0715212609	-0.398604815	-1.1213286365	-0.241606
C	 1.6068569552	-1.719108347	-0.5781369026	-0.085894
O	 1.681747298	-1.535209751	 0.8367317143	-0.28777
C	 0.7341684792	-0.5484242168	 1.2605405964	 0.235843
C	 1.4956999872	 0.5054781521	 2.0738273628	-0.421443
C	-0.2728671508	-1.1995297944	 2.1293516625	 0.263633
N	-1.0719661864	-1.6909197986	 2.8045049145	-0.346068
H	 0.4496482184	 2.1209366786	 0.0830866955	 0.122907
H	-0.9018053164	 1.6900767353	-0.9694606409	 0.124535
H	-1.1055696784	 1.6366990406	 0.7828592132	 0.133378
H	-0.8470093288	-0.6440206945	-0.2056111567	 0.104551
H	 0.625048556	-0.4903266208	-2.1145884401	 0.111086
H	 1.870551192	 0.3497677804	-1.1728412598	 0.10939
H	 0.9304498213	-2.5515520257	-0.8226735069	 0.105468
H	 2.6099754219	-1.9765914668	-0.928194754	 0.116597
H	 2.2071708853	 1.0268735912	 1.4286136204	 0.124288
H	 0.8174196631	 1.2336885667	 2.5250795392	 0.133227
H	 2.0538330881	 0.0071187113	 2.8694130517	 0.145602
41.1487	148.9651	182.804	215.155	251.617	258.0453	275.0284	329.8012	382.9535	466.4323	495.4451	559.5137	594.6618	631.243	698.7448	855.8733	880.9665	903.7363	928.8905	968.9879	988.5311	1024.0732	1078.62	1094.8578	1144.7623	1150.9309	1178.6098	1213.6348	1226.8949	1246.7036	1311.4669	1355.7932	1379.5374	1387.5243	1405.9629	1418.2221	1476.746	1485.5522	1488.8957	1502.9408	1505.1077	1524.4581	2351.1435	2996.8244	3037.8631	3040.2764	3049.1167	3052.5544	3092.8769	3107.035	3107.9444	3115.6658	3132.3857	3137.6061
CC1CCOC1(C)C#N	C[C@H]1CCO[C@]1(C)C#N	
InChI=1S/C7H11NO/c1-6-3-4-9-7(6,2)5-8/h6H,3-4H2,1-2H3	InChI=1S/C7H11NO/c1-6-3-4-9-7(6,2)5-8/h6H,3-4H2,1-2H3/t6-,7+/m0/s1
