14
gdb 25318	2.2379	1.59378	0.93085	5.1611	83.56	-0.2239	-0.0491	0.1748	1163.389	0.101189	-399.573159	-399.565294	-399.56435	-399.605679	29.325	
O	-0.0639819622	-0.0865744834	 0.0002568931	-0.286428
C	-0.0100632382	 1.1252866818	 0.010012667	 0.047296
C	 1.2287999031	 1.8935631886	 0.0021852911	 0.077954
C	 1.322434741	 3.289838816	 0.0130426994	 0.129724
N	 2.6587114707	 3.5989688686	 0.0001434943	-0.323453
C	 3.4119087444	 2.4502669122	-0.0184041769	-0.078908
C	 2.5558875215	 1.3793056503	-0.0176317379	-0.222495
C	 0.3253558787	 4.2829249708	 0.033124983	 0.281796
C	-0.5152741015	 5.1466156869	 0.0501674332	-0.443225
H	-0.9346030983	 1.7419019782	 0.0260003514	 0.072014
H	 3.0177517584	 4.5390644177	 0.0039980102	 0.274238
H	 4.4888585766	 2.4990532445	-0.0304879568	 0.136122
H	 2.8197375633	 0.3342522752	-0.0296338815	 0.133146
H	-1.2662480475	 5.8975204125	 0.0649790704	 0.202219
120.5875	140.8596	163.1464	215.275	277.5835	431.121	449.1591	539.0824	555.2786	569.8715	602.2068	639.7215	688.0361	702.6164	761.2869	793.9241	871.2177	919.2588	1040.7201	1065.1577	1094.7316	1169.2623	1263.5746	1323.5063	1402.3142	1454.433	1465.4151	1498.6682	1584.7952	1780.4008	2224.907	2897.9084	3262.3423	3281.0526	3498.9948	3668.3345
O=CC1=C(NC=C1)C#C	O=Cc1c([nH]cc1)C#C	
InChI=1S/C7H5NO/c1-2-7-6(5-9)3-4-8-7/h1,3-5,8H	InChI=1S/C7H5NO/c1-2-7-6(5-9)3-4-8-7/h1,3-5,8H
