21
gdb 32972	3.14259	1.04083	0.83784	3.6435	85.75	-0.2101	0.0351	0.2452	1442.3436	0.183483	-383.320336	-383.310743	-383.309798	-383.35565	34.463	
C	-0.05030325	 1.5666118118	-0.0066755646	-0.379754
C	-0.0906851186	 0.0379314421	-0.0647101532	-0.16289
C	 0.7649754992	-0.5340683725	-1.2124735071	-0.300917
C	 0.7926477919	-2.0287852223	-1.263419514	 0.328745
N	 1.7636762057	-2.7751534987	-0.773514088	-0.310926
C	 1.3840018574	-4.0767954813	-0.9931142964	-0.101374
C	 0.1720375965	-4.1206716242	-1.6241996372	-0.135005
N	-0.2060276447	-2.8044379853	-1.8000178036	-0.025429
C	-1.4530005197	-2.3669993937	-2.3949713383	-0.342868
H	 0.973218768	 1.9287120493	 0.1395111439	 0.120408
H	-0.4276137292	 2.0108829585	-0.9349409826	 0.110622
H	-0.6602389877	 1.9495104819	 0.817249894	 0.113805
H	 0.2698667429	-0.3845988677	 0.879947669	 0.116953
H	-1.1294736679	-0.2991183417	-0.1742149307	 0.09121
H	 0.4188910239	-0.1166511956	-2.1677078887	 0.097477
H	 1.8019763122	-0.2093900165	-1.0861512238	 0.130725
H	 2.0081801035	-4.9051845984	-0.6936774485	 0.102097
H	-0.4466302507	-4.9331562834	-1.9691306193	 0.117421
H	-2.2659396549	-2.3409191125	-1.6606761116	 0.141463
H	-1.3347514183	-1.3677276018	-2.8173387496	 0.145898
H	-1.7335672393	-3.0483966081	-3.2018175497	 0.142337
60.9686	80.7629	88.9991	116.1171	195.1956	248.2627	288.6068	315.2804	368.3973	423.02	636.6544	666.1512	708.6913	726.5045	742.5965	786.5749	846.5729	873.8478	900.5301	931.7092	1041.7495	1055.4833	1077.3882	1107.3198	1109.6168	1147.9954	1183.6377	1216.0295	1262.9402	1305.1716	1310.9741	1321.5815	1379.1732	1385.3359	1413.6134	1441.7223	1474.083	1479.201	1489.9873	1491.8537	1500.4762	1507.2892	1512.5289	1528.797	1566.5257	3016.0746	3025.3946	3029.8089	3036.2229	3062.9814	3090.5078	3100.34	3104.0982	3104.8725	3139.0481	3242.932	3271.3695
CCCC1=NC=CN1C	CCCc1nccn1C	
InChI=1S/C7H12N2/c1-3-4-7-8-5-6-9(7)2/h5-6H,3-4H2,1-2H3	InChI=1S/C7H12N2/c1-3-4-7-8-5-6-9(7)2/h5-6H,3-4H2,1-2H3
