18
gdb 56752	2.92862	1.29952	1.07452	1.4665	77.24	-0.2277	0.0224	0.2501	1152.0126	0.146821	-401.820785	-401.812245	-401.811301	-401.854315	32.483	
O	-0.0299780735	 1.4520330307	 0.0464397245	-0.410232
C	 0.0335061488	 0.0276989524	 0.0138204099	-0.207092
C	 0.652772849	-0.4725433272	-1.2166125469	 0.291035
C	 1.2152968699	-0.8661815888	-2.2038014078	-0.451885
C	 0.7484477101	-0.5142207072	 1.2450575606	 0.326982
C	 2.2144571942	-0.3024772739	 1.6940544584	-0.216081
N	 1.6482468591	-1.1709570141	 2.8329614035	-0.145418
C	 0.4123461277	-0.2565598401	 2.7309193767	-0.21571
C	 0.9776200374	-1.9722581685	 1.6995640748	-0.212746
H	 0.8526003763	 1.7843841578	-0.1525213571	 0.287971
H	-1.0132952135	-0.3003977507	 0.0502331514	 0.120413
H	 1.6890716737	-1.2159370666	-3.0879733551	 0.203525
H	 3.0048709635	-0.7939906169	 1.1213191475	 0.10782
H	 2.5158467742	 0.6963714991	 2.021866617	 0.100966
H	 0.5759155199	 0.7481692554	 3.1268391743	 0.108138
H	-0.4969607049	-0.7066042803	 3.1388873755	 0.101415
H	 0.110447586	-2.5505814123	 2.0303023932	 0.102131
H	 1.6751727622	-2.5864726486	 1.1250834195	 0.108768
54.0536	107.1951	170.196	201.6751	264.8747	313.0665	392.6956	451.7252	571.0554	582.9961	601.5219	633.3589	676.8614	711.5545	793.8777	800.6258	872.3686	929.3275	960.8817	977.0548	1002.2779	1005.1475	1022.2539	1063.1225	1136.4157	1157.9832	1165.6888	1170.5911	1195.7575	1198.7977	1261.7413	1263.942	1310.7346	1331.399	1411.2064	1510.4295	1511.3329	1563.9097	2229.6883	3031.9468	3048.9203	3051.2339	3060.6253	3117.722	3123.8322	3126.5301	3501.1129	3805.5115
OC(C#C)C12CN(C1)C2	O[C@@H](C#C)[C@@]12CN(C1)C2	
InChI=1S/C7H9NO/c1-2-6(9)7-3-8(4-7)5-7/h1,6,9H,3-5H2	InChI=1S/C7H9NO/c1-2-6(9)7-3-8(4-7)5-7/h1,6,9H,3-5H2/t6-/m0/s1
