18
gdb 107076	4.58314	0.92953	0.90902	5.4401	77.01	-0.2697	0.0244	0.2941	1340.0713	0.146794	-401.933059	-401.924319	-401.923374	-401.966889	32.103	
C	 0.1986420119	 1.5073892038	 0.1902898174	-0.381871
C	-0.1030380546	 0.0167054738	-0.0209270924	-0.303731
C	 0.4596592859	-0.5032264631	-1.3060162921	 0.437825
C	 0.0040952813	-0.2011525929	-2.7480101825	-0.310261
C	 0.5432021813	-1.6250695262	-3.1642230806	-0.176554
C	 1.5638997165	-1.6996036399	-4.1978334163	 0.284426
N	 2.3716375386	-1.7609748372	-5.0223778286	-0.324847
C	 1.0076278207	-1.8137032651	-1.701156735	-0.064223
O	 1.8782504014	-0.7321272297	-1.3882221935	-0.271486
H	 1.2777891209	 1.6843937802	 0.2046200113	 0.140805
H	-0.233142964	 2.1187378725	-0.6088753171	 0.122429
H	-0.2179605629	 1.8557020623	 1.1393158009	 0.120739
H	 0.3175274669	-0.571691171	 0.801723098	 0.118132
H	-1.1870543005	-0.151942982	-0.0159081288	 0.106976
H	-1.0780641024	-0.1267943164	-2.8717530494	 0.120124
H	 0.495554491	 0.6505183839	-3.2199473535	 0.135267
H	-0.2808560542	-2.2979854264	-3.4153032527	 0.129445
H	 1.1383824722	-2.7457342865	-1.163491065	 0.116807
74.5774	87.6307	131.4367	202.1845	215.6345	293.6676	343.1291	409.372	454.6038	526.8037	616.6587	669.969	726.2034	783.8325	802.0753	894.6264	917.3793	936.2925	961.6037	992.1288	1032.6539	1053.8963	1072.0973	1104.1862	1148.9551	1193.4145	1204.1755	1243.2523	1262.6331	1313.1129	1336.621	1353.1468	1410.6665	1455.0087	1473.933	1485.7655	1498.7539	1510.8275	2358.2334	3032.3802	3042.0945	3075.3139	3079.5659	3085.5198	3111.939	3122.4448	3145.4911	3189.2182
CCC12CC(C#N)C1O2	CC[C@]12C[C@@H](C#N)[C@H]1O2	
InChI=1S/C7H9NO/c1-2-7-3-5(4-8)6(7)9-7/h5-6H,2-3H2,1H3	InChI=1S/C7H9NO/c1-2-7-3-5(4-8)6(7)9-7/h5-6H,2-3H2,1H3/t5-,6+,7-/m0/s1
