21
gdb 103338	2.80899	1.38643	1.11757	2.9062	78.6	-0.2401	0.0608	0.3009	1169.5868	0.182489	-424.175157	-424.166529	-424.165585	-424.207959	34.853	
C	 0.8157186684	-0.473813238	 1.2803497619	-0.373926
C	 0.0494904878	-0.022629079	 0.0309151055	-0.272486
C	-1.3719301415	-0.585107238	-0.0364177197	 0.461561
O	-2.1056711474	-0.0369787848	 1.0707275663	-0.500204
C	-2.1243503399	-0.6906604523	-1.411592473	-0.192248
C	-1.2181254076	-1.9184318412	-1.7174180346	-0.244869
C	-1.6427147147	-2.109790478	-0.2329438574	-0.156292
C	-3.0882048109	-1.7415373339	-0.7424266022	 0.190331
O	-4.1282250845	-1.3904706846	 0.1035001266	-0.452756
H	 1.792280613	 0.0157216108	 1.3396639513	 0.111201
H	 0.2554731615	-0.2360910431	 2.1881964791	 0.127388
H	 0.9846315024	-1.555501082	 1.2663719873	 0.121301
H	-0.0292659542	 1.075199336	 0.0237884206	 0.083402
H	 0.6187765945	-0.2760737594	-0.8659292988	 0.107921
H	-2.0340992376	 0.9230141463	 1.0280032634	 0.283363
H	-2.3847866275	 0.124956348	-2.0895312249	 0.066026
H	-1.6311652943	-2.644718727	-2.4202596511	 0.101263
H	-0.1653998257	-1.7392128564	-1.9235138314	 0.100577
H	-1.3559663579	-2.918864491	 0.4404824078	 0.073982
H	-3.494115246	-2.468011998	-1.4515946356	 0.078199
H	-3.7523677977	-0.7812656044	 0.7554084889	 0.286266
91.9795	137.1515	214.9215	267.6943	309.5178	338.181	382.1823	403.5023	450.9517	468.7861	529.9576	643.9052	649.7837	667.7995	755.5273	786.5527	832.9298	853.5698	891.27	915.4692	971.9171	977.5373	1021.168	1043.7679	1073.0711	1083.701	1091.8589	1127.8645	1135.8565	1169.9416	1181.5382	1187.785	1229.446	1236.9928	1266.4651	1279.2969	1350.3576	1365.8978	1383.4713	1408.837	1482.2854	1497.36	1498.3097	1512.2896	1539.7987	2996.3802	3042.1332	3072.5759	3080.3399	3092.5795	3096.2091	3106.4522	3109.0456	3125.6457	3159.8927	3712.3324	3801.3915
CCC1(O)C2CC1C2O	CC[C@@]1(O)[C@H]2C[C@@H]1[C@H]2O	
InChI=1S/C7H12O2/c1-2-7(9)4-3-5(7)6(4)8/h4-6,8-9H,2-3H2,1H3	InChI=1S/C7H12O2/c1-2-7(9)4-3-5(7)6(4)8/h4-6,8-9H,2-3H2,1H3/t4-,5+,6-,7+
