14
gdb 14503	3.78978	2.06147	1.57497	2.7288	62.45	-0.2612	0.0062	0.2674	791.7041	0.107927	-378.652497	-378.645751	-378.644807	-378.683159	25.939	
O	 0.0068089781	 1.4238930171	-0.1108509872	-0.467582
C	 0.0155383824	 0.0271997056	-0.007381079	 0.325759
C	 0.9786036204	-0.5608781608	-0.9510901062	 0.199226
N	 1.7733132726	-0.9695894058	-1.6853116609	-0.336988
C	-0.0847147678	-0.6886167017	 1.3954830296	-0.089195
C	-1.5089904539	-0.0923833908	 1.5282899091	-0.224534
C	-1.3790988683	-0.6634552461	 0.0914123353	-0.060713
N	-0.7333740771	-1.8790802592	 0.7248126613	-0.32639
H	 0.9110960736	 1.7517808128	-0.0462043202	 0.299653
H	 0.69696591	-0.7965509136	 2.1478570753	 0.09915
H	-2.1740948165	-0.6590925107	 2.1780305257	 0.120182
H	-1.5958416461	 0.9861583697	 1.6323297631	 0.126379
H	-2.1296187617	-0.7402652786	-0.6947380383	 0.104815
H	-0.0827654258	-2.324571958	 0.0693041625	 0.230241
158.098	169.2611	281.5119	328.7953	342.4327	502.4338	515.1018	538.1038	633.6572	665.5585	793.9787	814.3444	885.267	917.9605	936.2431	1009.8128	1052.5986	1060.9427	1088.2848	1153.6764	1169.2114	1174.289	1186.5956	1212.4882	1250.3153	1299.9618	1303.3723	1352.6378	1487.4242	2343.481	3107.5474	3119.3768	3129.9149	3195.0063	3391.2626	3803.3723
OC1(C#N)C2CC1N2	O[C@@]1(C#N)[C@H]2C[C@@H]1N2	
InChI=1S/C5H6N2O/c6-2-5(8)3-1-4(5)7-3/h3-4,7-8H,1H2	InChI=1S/C5H6N2O/c6-2-5(8)3-1-4(5)7-3/h3-4,7-8H,1H2/t3-,4+,5+
