21
gdb 68300	3.08896	1.2586	1.12804	1.5989	83.25	-0.2608	0.0875	0.3483	1190.0733	0.182723	-387.018754	-387.010426	-387.009482	-387.051972	32.464	
C	 0.0426056384	 1.4735382432	 0.094905074	-0.51753
C	 0.0312637481	-0.0309621052	 0.029213836	 0.321832
C	 0.589688422	-0.9364205331	-1.1131479231	-0.259644
C	 0.0075717893	-1.919632671	-0.0576008965	-0.065766
C	 0.6967013601	-1.0370628115	 1.0240298979	-0.261864
C	-1.2279701647	-0.9728857327	 0.0135359639	-0.023328
C	-2.2218214462	-1.0088854789	 1.144987177	 0.030121
C	-2.9151289909	-2.245128191	 1.5380097068	-0.176842
O	-1.9048968289	-1.6765329586	 2.3711381859	-0.226055
H	 1.068148436	 1.8584908942	 0.0733782422	 0.120314
H	-0.4967723797	 1.9117587279	-0.7525527	 0.115272
H	-0.4275428961	 1.8346207276	 1.0164293025	 0.12085
H	 0.0804755402	-0.8836875432	-2.0806286824	 0.082284
H	 1.6768724011	-0.9448309181	-1.2313792845	 0.086567
H	-0.001890093	-3.0086379085	-0.1132674789	 0.068355
H	 1.7910984338	-1.0480797623	 1.0196125903	 0.080644
H	 0.2973150752	-1.0890408012	 2.0346686907	 0.124905
H	-1.7981466761	-0.904898906	-0.9237507699	 0.064356
H	-2.7689714928	-0.0744395852	 1.2935833733	 0.090094
H	-3.9290329663	-2.1994290633	 1.9332677063	 0.111809
H	-2.6452293794	-3.1838602929	 1.0561905686	 0.113626
51.5272	135.6372	194.397	221.0276	265.9555	295.8426	391.8734	441.0612	552.7732	617.1998	658.3068	765.4419	794.4184	805.2008	886.4943	900.2291	904.4672	906.4579	955.4528	990.7531	1013.7747	1023.1235	1038.4401	1052.5907	1099.8792	1108.2025	1134.7333	1150.5507	1168.9404	1171.8444	1182.9068	1203.7895	1225.0133	1229.9127	1249.9098	1294.9433	1320.6929	1401.2751	1409.0163	1428.3573	1489.5735	1491.0886	1500.3934	1525.7781	1544.7523	3005.6915	3023.473	3040.9214	3055.725	3075.09	3083.3611	3089.9581	3092.1016	3105.7176	3107.2051	3163.2489	3169.5873
CC12CC(C1)C2C1CO1	C[C@@]12C[C@@H](C1)[C@H]2[C@H]1CO1	
InChI=1S/C8H12O/c1-8-2-5(3-8)7(8)6-4-9-6/h5-7H,2-4H2,1H3	InChI=1S/C8H12O/c1-8-2-5(3-8)7(8)6-4-9-6/h5-7H,2-4H2,1H3/t5-,6-,7+,8+/m1/s1
