16
gdb 61724	5.09274	0.57468	0.53445	3.4727	85.56	-0.2702	-0.0511	0.219	1930.112	0.121577	-400.748922	-400.739066	-400.738122	-400.785182	33.359	
C	-0.0787244651	 1.6245925222	 0.1227131938	-0.389092
C	 0.042165795	 0.0880155294	 0.0324743909	-0.216217
C	 0.7672317084	-0.3585814319	-1.2643004908	-0.273191
C	-0.0486178328	-0.0398080341	-2.5013621399	 0.156025
O	 0.3741733068	 0.5208953988	-3.4764239857	-0.226181
C	 0.7145228483	-0.4545717761	 1.2051254716	 0.096045
C	 1.285899036	-0.8973199412	 2.1736870585	 0.066982
C	 1.9277130181	-1.3982367001	 3.2696471266	 0.2041
N	 2.4736137243	-1.8250987426	 4.2020797404	-0.333808
H	 0.9117349448	 2.0871719749	 0.1450729707	 0.144076
H	-0.6177122372	 2.0119007931	-0.7468184269	 0.138415
H	-0.6183504364	 1.9204954669	 1.0250243953	 0.141261
H	-0.9723792908	-0.3370295242	 0.0126764615	 0.129602
H	 1.7510152194	 0.1098141014	-1.3497583199	 0.140635
H	 0.9072291783	-1.4473473391	-1.238872704	 0.142108
H	-1.108381707	-0.3870264672	-2.4503819622	 0.079242
51.4221	57.2018	79.8835	122.3955	201.5393	224.9496	234.4695	299.8713	343.1205	434.7434	509.121	542.4005	581.7272	592.4222	707.345	774.0251	897.6135	949.2173	1001.3182	1061.359	1104.5074	1126.0052	1188.4604	1228.6004	1271.1884	1324.317	1358.8053	1414.0615	1428.2333	1458.169	1489.3329	1499.8853	1841.8701	2264.543	2400.3403	2848.6689	3000.3875	3033.3105	3048.5058	3113.1362	3123.2169	3134.5161
CC(CC=O)C#CC#N	C[C@@H](CC=O)C#CC#N	
InChI=1S/C7H7NO/c1-7(4-6-9)3-2-5-8/h6-7H,4H2,1H3	InChI=1S/C7H7NO/c1-7(4-6-9)3-2-5-8/h6-7H,4H2,1H3/t7-/m1/s1
