15
gdb 18860	4.47137	2.22691	1.86971	1.8	63.41	-0.2272	-0.0097	0.2175	724.4876	0.121893	-358.783904	-358.777983	-358.777039	-358.813554	24.076	
N	 0.0653331918	 1.3665745718	 0.1877972648	-0.5227
C	-0.0033378124	-0.0672604777	-0.0218054113	 0.027939
C	-1.4674640372	-0.5086979207	-0.146308906	-0.035009
C	-1.3574014276	-0.6225381383	-1.6260576776	-0.064024
C	 0.2004849894	-0.6080207231	-1.4995580129	-0.069631
N	 0.610063236	-2.0146633399	-1.3617627292	-0.183491
C	-0.4263618124	-2.5997896225	-0.9172310838	 0.035203
N	-1.6439776042	-1.8318349631	-0.8400712227	-0.15959
H	 1.0182736976	 1.6924390749	 0.0546517402	 0.233973
H	-0.5117837505	 1.8556080635	-0.4916522546	 0.227291
H	 0.6208957473	-0.5688127783	 0.7245509754	 0.090015
H	-2.2840094394	-0.1894135176	 0.4900705675	 0.111089
H	-2.0164356498	-0.3323759057	-2.4365838175	 0.102146
H	 0.8282145255	-0.0265510455	-2.1719123241	 0.075417
H	-0.4582850042	-3.6391580977	-0.6083915681	 0.131371
206.2086	280.3631	320.9899	399.829	438.3333	600.2673	710.3649	743.5392	811.3281	829.2685	847.6357	882.6048	893.9407	923.524	944.6438	965.1017	968.8415	995.9483	1040.1356	1074.3104	1118.4882	1143.8476	1204.1353	1211.3722	1226.6026	1266.4419	1275.6903	1294.8544	1336.1631	1415.1222	1653.3933	1666.8644	3061.2942	3137.9464	3173.1592	3193.1634	3203.7741	3481.1777	3564.0819
NC1C2C3C1N=CN23	N[C@H]1[C@H]2[C@H]3[C@@H]1[N][CH]N23	
InChI=1S/C5H7N3/c6-2-3-5-4(2)8(5)1-7-3/h1-5H,6H2	InChI=1S/C5H7N3/c6-2-3-5-4(2)8(5)1-7-3/h1-5H,6H2/t2-,3-,4+,5-,8?/m1/s1
