18
gdb 109484	2.08988	1.79833	1.05374	2.9441	75.45	-0.2404	0.0034	0.2438	1144.1762	0.149378	-435.333631	-435.324888	-435.323944	-435.367496	32.169	
C	-0.1275353354	 1.5579824459	-0.0159184866	-0.383843
C	 0.0681606675	 0.0414686883	-0.0098122598	-0.150641
N	 0.7224299038	-0.4458137457	-1.2177725728	-0.11569
C	 0.0492798144	-0.6599832131	-2.4265038119	 0.437116
N	-1.2106207771	-0.5207901731	-2.5347569966	-0.578554
N	 1.0187372555	-0.9954581872	-3.3660060349	-0.364412
C	 2.3017572981	-1.2388447278	-2.7270251182	-0.296319
C	 2.0625192117	-0.7528631861	-1.2955725442	 0.413541
O	 2.8759234783	-0.6630336367	-0.4068381397	-0.374711
H	 0.8338647663	 2.0750781528	-0.0856286261	 0.128122
H	-0.7557761889	 1.8588062902	-0.8577154492	 0.144103
H	-0.6183475111	 1.8727849378	 0.9100461393	 0.119347
H	 0.7044579816	-0.2667011308	 0.8231150214	 0.135339
H	-0.8954300193	-0.4678206018	 0.0658065439	 0.138415
H	-1.5237733068	-0.7083807496	-3.4849713488	 0.21221
H	 0.7289743958	-1.5662321177	-4.1434052536	 0.250522
H	 2.5878368578	-2.2983374014	-2.7050703897	 0.140303
H	 3.1204845777	-0.674578364	-3.1852879026	 0.145152
53.3065	113.8527	148.0173	203.3141	217.4948	308.5904	348.4969	417.667	432.8337	570.1613	597.6458	606.4761	704.4257	729.877	745.2338	783.4744	789.0469	954.8398	1005.9771	1013.3924	1059.9309	1100.7367	1118.8178	1138.2923	1196.136	1217.5188	1267.6277	1326.0392	1389.8579	1394.8072	1409.6194	1415.8066	1459.401	1483.7842	1492.8856	1504.3738	1506.0576	1750.5898	1842.4641	3027.0376	3045.5216	3073.7811	3074.0261	3114.1685	3122.0046	3140.4589	3510.2252	3643.2058
CCN1C(=N)NCC1=O	CCN1[C]([NH])NCC1=O	
InChI=1S/C5H9N3O/c1-2-8-4(9)3-7-5(8)6/h2-3H2,1H3,(H2,6,7)	InChI=1S/C5H9N3O/c1-2-8-4(9)3-7-5(8)6/h2-3H2,1H3,(H2,6,7)
