17
gdb 46114	3.46298	1.01103	0.81928	4.3231	74.56	-0.266	0.0123	0.2783	1361.5607	0.135319	-421.845049	-421.836537	-421.835593	-421.878894	31.411	
O	 0.0298905836	-0.0209712474	 0.1634269189	-0.329876
C	-0.0485123099	 1.171100337	 0.1331425749	 0.42919
C	-1.3001411687	 2.0426085488	 0.072867097	-0.362731
C	-0.7891953762	 3.4266747681	 0.4771596769	-0.25351
C	 0.6895449906	 3.3671968487	 0.0541996341	 0.135408
C	 1.6318038894	 4.1904570852	 0.9370017215	-0.37114
C	 3.0091624083	 4.2132014539	 0.462589839	 0.299183
C	 4.1387661063	 4.2373204389	 0.0552634144	-0.425032
O	 1.0520725593	 1.9762846514	 0.1425616638	-0.224867
H	-1.6733630817	 2.0248619608	-0.9576047146	 0.142474
H	-2.0808631278	 1.6296194826	 0.712324772	 0.143
H	-1.317802163	 4.2553640026	 0.002099906	 0.118888
H	-0.8585645945	 3.5590397061	 1.5625030689	 0.118111
H	 0.810128717	 3.6751749583	-0.9917924033	 0.102797
H	 1.2385394475	 5.214613538	 0.9846733103	 0.135495
H	 1.5871935279	 3.7875284771	 1.9564429476	 0.141798
H	 5.140414312	 4.2497205097	-0.2969525974	 0.200812
65.2337	96.7417	128.3629	164.6952	285.5331	343.8571	406.215	472.1233	519.4155	544.989	624.4679	641.7479	654.619	664.8344	807.5556	851.3886	915.0445	932.7236	959.1079	1005.3762	1072.748	1075.989	1090.8749	1151.3314	1187.4344	1228.296	1253.56	1291.5934	1306.6816	1343.9603	1382.0367	1399.0255	1455.9162	1465.8922	1497.6164	1888.5081	2245.8703	3020.9351	3030.7302	3050.9784	3056.6459	3063.1271	3114.841	3132.9146	3506.7349
O=C1CCC(CC#C)O1	O=C1CC[C@@H](CC#C)O1	
InChI=1S/C7H8O2/c1-2-3-6-4-5-7(8)9-6/h1,6H,3-5H2	InChI=1S/C7H8O2/c1-2-3-6-4-5-7(8)9-6/h1,6H,3-5H2/t6-/m1/s1
