17
gdb 18270	4.37193	1.68835	1.38636	2.5829	64.86	-0.241	0.0736	0.3145	920.5365	0.143036	-400.961652	-400.954233	-400.953289	-400.993649	27.251	
C	 0.0971131153	 1.3155983708	 0.1462667936	-0.23724
O	 0.0296455748	-0.093426925	 0.0198027778	-0.235631
C	 0.6065831011	-0.5791723269	-1.142129654	 0.268755
O	 2.0147180643	-0.3466088129	-1.1400668126	-0.28432
C	 2.712034769	-1.4496128018	-1.7086213689	-0.072414
C	 1.763262211	-2.628876314	-1.6271113257	-0.05535
N	 1.2380831426	-2.8137719366	-0.2621223586	-0.314327
C	 0.4400540613	-2.0793648935	-1.263453971	-0.110299
H	 1.1322618911	 1.6596062602	 0.2496496755	 0.131516
H	-0.3578925253	 1.8171641609	-0.7221478479	 0.100536
H	-0.4651995067	 1.5809722629	 1.04405077	 0.125542
H	 0.1601144306	-0.0723301831	-2.0206513111	 0.050337
H	 2.975145715	-1.2509488968	-2.7592468735	 0.091836
H	 3.6346472236	-1.596492136	-1.1370598344	 0.116394
H	 1.884726127	-3.4767195038	-2.2924347925	 0.094221
H	 0.8592958843	-3.7537851038	-0.1726007437	 0.233315
H	-0.496723409	-2.4850556005	-1.627371833	 0.09713
91.338	114.077	183.5486	206.7916	314.2141	385.0926	472.4526	544.6141	675.5499	775.9592	809.0662	874.1123	881.7101	919.2896	975.3816	1009.8815	1014.6688	1045.3496	1075.2097	1103.2587	1152.6096	1160.4117	1168.355	1180.3758	1231.0888	1234.4382	1256.2799	1329.894	1370.268	1391.3018	1418.0672	1438.4991	1481.2373	1485.2409	1511.2185	1511.4959	2903.6961	2985.0094	2986.5133	3067.8418	3068.5334	3125.2303	3171.2391	3185.5248	3499.4094
COC1OCC2NC12	CO[C@H]1OC[C@H]2N[C@@H]12	
InChI=1S/C5H9NO2/c1-7-5-4-3(6-4)2-8-5/h3-6H,2H2,1H3	InChI=1S/C5H9NO2/c1-7-5-4-3(6-4)2-8-5/h3-6H,2H2,1H3/t3-,4-,5+/m1/s1
