18
gdb 84747	2.11419	1.89048	1.20503	3.5165	73.63	-0.2278	-0.015	0.2128	1054.3826	0.148888	-439.138103	-439.129797	-439.128853	-439.170706	32.242	
C	-0.1299951128	 1.5865478353	 0.0121997344	-0.391166
C	-0.0127359871	 0.0511550191	-0.0013958254	-0.076062
C	 0.6917354426	-0.4507370222	-1.2416355562	-0.12626
C	 2.0099149984	-0.6560601297	-1.2436900483	 0.012393
N	 2.7944464162	-0.4581907343	-0.0936203804	-0.338264
C	 2.2477583005	-0.2327660336	 1.1379447517	 0.390726
O	 2.8933550005	 0.1069370414	 2.114149084	-0.389014
C	 0.741359473	-0.4960797647	 1.2271161917	 0.027762
O	 0.2509440756	 0.0194090454	 2.4330800604	-0.442474
H	 0.8564099827	 2.0590444692	-0.0472979793	 0.119274
H	-0.7180429352	 1.9346499899	-0.8419096122	 0.11164
H	-0.6134933589	 1.9170055982	 0.9339520066	 0.138869
H	-1.0255761692	-0.3655191205	 0.0362256559	 0.092529
H	 0.1299797654	-0.6066281043	-2.1547884432	 0.101187
H	 2.564048049	-0.9817619133	-2.1157104772	 0.11969
H	 3.79538675	-0.3563627367	-0.1713870845	 0.259637
H	 0.6398264822	-1.5976696189	 1.2031877788	 0.095486
H	 1.0404720975	 0.2306882796	 2.9578148431	 0.294048
99.677	137.2837	223.1925	247.2024	284.3613	319.4704	432.5858	475.5002	484.5916	507.5218	553.7562	575.2638	610.2784	687.3412	751.2775	814.0002	865.9405	879.7589	944.5249	953.8885	1056.9367	1069.3704	1095.8347	1133.8975	1160.2926	1191.5671	1270.9739	1296.3755	1310.9242	1353.3847	1371.3583	1396.2793	1427.5127	1453.3528	1464.8977	1492.1688	1500.9918	1716.5531	1788.6143	2925.8055	3038.1635	3042.5783	3106.8715	3133.5479	3193.921	3214.7334	3621.7528	3678.1436
CC1C=CNC(=O)C1O	C[C@H]1C=CNC(=O)[C@H]1O	
InChI=1S/C6H9NO2/c1-4-2-3-7-6(9)5(4)8/h2-5,8H,1H3,(H,7,9)	InChI=1S/C6H9NO2/c1-4-2-3-7-6(9)5(4)8/h2-5,8H,1H3,(H,7,9)/t4-,5-/m0/s1
