20
gdb 59404	2.85661	0.97575	0.94017	1.915	83.01	-0.2378	0.0366	0.2744	1384.8347	0.167477	-403.091919	-403.08137	-403.080426	-403.127521	38.696	
C	 0.1836782358	 1.4902533492	 0.1726435725	-0.409867
C	-0.1498669504	 0.0066413986	 0.0118855769	 0.136018
O	-1.5553278277	-0.2270694571	 0.0034086648	-0.429897
C	 0.5005887458	-0.5672634653	-1.2326353751	-0.072392
N	 1.8794505298	-1.0535321889	-1.116511908	-0.367565
C	 0.7935098508	-2.0266816598	-1.4193760922	 0.128877
C	 0.5027478957	-3.0628422731	-0.3491479951	-0.454427
C	 0.7144202342	-2.5177124439	-2.7744156073	 0.273116
C	 0.6653135691	-2.9433562278	-3.898889071	-0.450419
H	 1.2653384373	 1.6353941382	 0.252641022	 0.131841
H	-0.1716888147	 2.0651939998	-0.6921778799	 0.103322
H	-0.2946816615	 1.8914587104	 1.0699456352	 0.125039
H	 0.221657538	-0.5348365828	 0.8856986218	 0.097919
H	-1.933316583	 0.2668832046	-0.7327281668	 0.277414
H	 0.2388004002	-0.033094737	-2.147627163	 0.082202
H	 2.4044551946	-0.8476659669	-1.9626871561	 0.238534
H	 0.6914137973	-2.6555349201	 0.6448105578	 0.131177
H	-0.5391246997	-3.389697624	-0.4057822088	 0.136066
H	 1.1479207276	-3.9352482064	-0.4874244789	 0.126532
H	 0.6150151007	-3.3167265875	-4.8916549587	 0.19651
49.1317	97.1735	118.4791	150.6703	206.9031	241.067	260.1175	264.3955	333.5807	357.0837	393.2937	482.0757	502.9806	553.3987	573.7604	601.5719	653.0544	696.6019	803.4522	874.2474	915.377	946.2335	1001.5611	1043.3264	1058.2101	1084.474	1101.4054	1116.4346	1139.3601	1221.1542	1275.1699	1300.7023	1331.6242	1339.6649	1398.3175	1410.804	1416.2113	1455.326	1483.9238	1491.8749	1494.656	1498.5525	2230.2782	3024.0482	3051.3426	3079.155	3091.5481	3104.4197	3118.8554	3123.6969	3145.9927	3502.5752	3506.5199	3798.237
CC(O)C1NC1(C)C#C	C[C@@H](O)[C@H]1N[C@]1(C)C#C	
InChI=1S/C7H11NO/c1-4-7(3)6(8-7)5(2)9/h1,5-6,8-9H,2-3H3	InChI=1S/C7H11NO/c1-4-7(3)6(8-7)5(2)9/h1,5-6,8-9H,2-3H3/t5-,6-,7-/m1/s1
