17
gdb 112137	3.25259	1.20056	0.92842	1.8089	72.72	-0.2808	-0.0482	0.2326	1258.4509	0.136147	-455.175679	-455.167194	-455.16625	-455.209559	31.009	
C	 0.073384747	 1.4780675768	 0.0879650489	-0.392988
C	 0.1721680749	-0.0484991797	 0.0342124334	-0.201414
C	 0.616575471	-0.5526298868	-1.3256076539	 0.212271
O	 1.9327263346	-0.0992823987	-1.6390058918	-0.219154
C	 2.730197901	-1.1606225432	-1.9008914761	 0.316271
N	 3.9388204832	-1.0171685489	-2.226233024	-0.510882
C	 1.8891666892	-2.395341534	-1.7126551368	 0.313094
N	 2.1670546697	-3.6184878891	-1.8310842572	-0.510735
O	 0.6542686728	-1.9774313568	-1.3504629427	-0.218986
H	 1.0419950958	 1.9409143987	-0.1178413469	 0.145633
H	-0.6457560095	 1.8566154301	-0.646425977	 0.122986
H	-0.2580100837	 1.8049502682	 1.0767510598	 0.127404
H	 0.8820430663	-0.4231340034	 0.7801044694	 0.118815
H	-0.7978067755	-0.5103521553	 0.2485557496	 0.124329
H	-0.0561847474	-0.2137582679	-2.1244150595	 0.113728
H	 4.3783242994	-1.924184491	-2.3796267785	 0.229906
H	 3.1416787212	-3.739337679	-2.1047531267	 0.229722
57.9223	102.5205	109.1865	212.6051	242.7567	347.0173	384.3378	429.8863	460.9908	580.683	639.309	742.1791	753.9739	766.8504	829.9937	840.1108	854.4945	910.2711	979.0832	1007.4353	1038.1189	1066.8112	1111.0045	1158.7169	1170.1462	1251.5797	1284.0626	1333.702	1387.887	1395.8654	1412.6185	1422.9714	1477.1797	1499.7467	1509.5257	1761.8659	1782.7316	3027.7898	3043.3208	3047.512	3088.5687	3114.2598	3129.645	3493.5534	3500.9128
CCC1OC(=N)C(=N)O1	CC[C@H]1OC(=C([NH])O1)[NH]	
InChI=1S/C5H8N2O2/c1-2-3-8-4(6)5(7)9-3/h3,6-7H,2H2,1H3	InChI=1S/C5H8N2O2/c1-2-3-8-4(6)5(7)9-3/h3,6-7H,2H2,1H3
