21
gdb 103790	2.81911	0.86787	0.74441	1.9427	89.72	-0.2413	0.0313	0.2726	1645.979	0.178763	-387.061488	-387.050499	-387.049555	-387.098847	38.518	
C	-0.3209791666	 1.4593746627	 0.0393144161	-0.381528
C	 0.4903509371	 0.1741428126	-0.1701282158	-0.252806
C	 0.9224567984	-0.470901198	 1.1348286798	 0.414985
C	 1.9743086475	 0.2609579924	 1.9423843871	-0.462053
O	-0.1476784097	-1.0228121016	 1.9148697276	-0.285601
C	 0.7936709902	-1.9400168234	 1.3218660296	-0.247668
C	 0.3149495093	-2.8377964965	 0.3061298082	 0.068689
C	-0.0606065741	-3.6229715472	-0.5272875027	 0.139369
C	-0.5237751885	-4.5662671504	-1.5335940746	-0.502915
H	 0.2674830983	 2.2441283716	 0.5252872044	 0.11439
H	-0.6689483449	 1.8554219875	-0.919197612	 0.112668
H	-1.1970220511	 1.2580291497	 0.6628624231	 0.13493
H	-0.1066326036	-0.5480536074	-0.7335640432	 0.115641
H	 1.3845290684	 0.3850977146	-0.7704537885	 0.09557
H	 1.6255768018	 1.2612885992	 2.2174894822	 0.13004
H	 2.2006687665	-0.2806546575	 2.8640087542	 0.12664
H	 2.8980911832	 0.3734883004	 1.3650476288	 0.121671
H	 1.4636861449	-2.3997091559	 2.0499886212	 0.101368
H	-0.0189777193	-4.407241084	-2.4929235523	 0.15024
H	-0.3353591225	-5.6003612643	-1.2250441598	 0.151778
H	-1.6009261255	-4.4616108245	-1.7037542133	 0.154591
30.8336	64.4705	84.665	95.2506	186.2616	210.3037	223.7617	268.5022	282.9833	346.2549	372.9519	399.5647	443.2826	540.0416	584.2368	689.306	778.4373	793.7165	853.4992	897.2062	976.3904	1004.5001	1046.063	1051.6616	1054.2257	1065.8416	1109.732	1133.7485	1196.6649	1246.3025	1302.1354	1326.6016	1377.1457	1406.4945	1411.2854	1413.7612	1443.4789	1474.9178	1475.95	1477.4493	1489.1372	1497.8948	1504.9248	1510.4282	2366.8562	3027.9917	3031.0917	3039.125	3041.6931	3088.2878	3088.8871	3091.3325	3093.0121	3104.3409	3110.8397	3118.1349	3123.8468
CCC1(C)OC1C#CC	CC[C@@]1(C)O[C@H]1C#CC	
InChI=1S/C8H12O/c1-4-6-7-8(3,5-2)9-7/h7H,5H2,1-3H3	InChI=1S/C8H12O/c1-4-6-7-8(3,5-2)9-7/h7H,5H2,1-3H3/t7-,8+/m0/s1
