16
gdb 73734	2.03983	1.81846	0.97301	4.6332	82.2	-0.2391	-0.0408	0.1983	1164.966	0.123081	-400.778267	-400.769275	-400.76833	-400.812217	32.52	
C	-0.0052781839	 1.4815884019	 0.0938412554	-0.512609
C	 0.011700955	-0.0051760727	 0.0039483763	 0.175574
C	-0.0016503797	-0.7776798295	-1.1013918485	-0.021461
C	-0.0352076037	-0.3628543633	-2.450271361	 0.259921
C	-0.06380034	-0.0175745018	-3.6036181043	-0.424199
C	 0.0251494118	-2.2326853942	-0.7009385732	 0.342225
O	 0.0227208525	-3.2119941833	-1.4104100703	-0.368432
N	 0.0536177677	-2.2123100379	 0.6749278393	-0.347952
C	 0.0486062119	-0.8832018319	 1.2318673253	-0.234548
H	 0.8812851219	 1.8549581926	 0.6213947211	 0.137933
H	-0.0319472337	 1.9309017989	-0.9008272762	 0.150862
H	-0.8779996629	 1.8326386466	 0.6584921649	 0.137929
H	-0.088831932	 0.2725284437	-4.6247165214	 0.194254
H	 0.0758911551	-3.0607129966	 1.2136651128	 0.256716
H	 0.9433416015	-0.6770155128	 1.8388169911	 0.126895
H	-0.8247567015	-0.6992862997	 1.8759671387	 0.12689
68.8242	129.2523	133.2524	144.4621	205.6155	280.8789	404.2168	408.0969	408.8372	520.8079	559.1519	574.0027	600.6219	644.1674	661.33	759.2399	789.1822	916.6307	952.675	1046.9603	1076.7209	1077.1772	1156.1913	1191.1062	1194.6192	1327.7587	1346.7847	1413.4283	1427.363	1477.6395	1481.6108	1499.5316	1684.6589	1831.4264	2230.4957	2988.0274	3007.6983	3023.176	3070.1646	3132.2958	3502.8293	3677.3809
CC1=C(C#C)C(=O)NC1	CC1=C(C#C)C(=O)NC1	
InChI=1S/C7H7NO/c1-3-6-5(2)4-8-7(6)9/h1H,4H2,2H3,(H,8,9)	InChI=1S/C7H7NO/c1-3-6-5(2)4-8-7(6)9/h1H,4H2,2H3,(H,8,9)
