20
gdb 102420	2.45392	0.76806	0.60491	5.4881	94.67	-0.28	-0.0343	0.2457	1834.5966	0.169319	-366.016927	-366.006321	-366.005377	-366.053526	37.111	
C	 0.0966634058	 1.5310184205	 0.0964541237	-0.396391
C	 0.0109298315	 0.0081258936	-0.0356760876	-0.180076
C	-1.4418222985	-0.5410947121	-0.0454718476	-0.182674
C	-2.24175483	-0.128416361	-1.3067866911	-0.176131
C	-3.7094691182	-0.5593059385	-1.2769223866	-0.391099
C	-1.4214512521	-1.9910039965	 0.1054030779	 0.108834
C	-1.3794790028	-3.1944789916	 0.2190032521	 0.043589
C	-1.3349861331	-4.5523299037	 0.3503562238	 0.19931
N	-1.297174539	-5.7084233508	 0.4618962059	-0.340301
H	 1.1419115792	 1.8461335147	 0.1654389599	 0.123776
H	-0.344303092	 2.0487071572	-0.7599893019	 0.126414
H	-0.414931504	 1.8798297169	 1.0003220859	 0.120737
H	 0.5161941417	-0.3238770977	-0.9501917871	 0.114433
H	 0.546715951	-0.4573020748	 0.7980815483	 0.116652
H	-1.962021231	-0.130161565	 0.8333618055	 0.116547
H	-2.1826795372	 0.9604386838	-1.3999255388	 0.108963
H	-1.7424452987	-0.5487140888	-2.1877366589	 0.112277
H	-4.2333619106	-0.1225423291	-0.4195737011	 0.118447
H	-4.2265746734	-0.2329252017	-2.1838110237	 0.121339
H	-3.8052018486	-1.6469110754	-1.2086525786	 0.135354
59.772	67.8761	95.2482	114.7058	194.7029	207.3399	219.1577	247.5333	297.0616	320.7434	415.3288	482.9302	525.271	577.5555	592.1507	691.0867	766.1874	824.9129	861.3001	925.399	1019.1749	1028.9738	1050.2359	1090.1944	1114.8341	1154.9001	1193.0348	1264.5178	1281.5419	1325.9854	1339.5147	1362.4144	1381.9386	1414.3132	1417.5456	1483.9236	1489.3911	1498.2645	1500.0057	1505.097	1508.6203	2259.3474	2395.7513	2993.1866	3036.2235	3037.8033	3040.4731	3042.5261	3075.8582	3083.1842	3106.4783	3107.0065	3115.4956	3118.5041
CCC(CC)C#CC#N	CCC(CC)C#CC#N	
InChI=1S/C8H11N/c1-3-8(4-2)6-5-7-9/h8H,3-4H2,1-2H3	InChI=1S/C8H11N/c1-3-8(4-2)6-5-7-9/h8H,3-4H2,1-2H3
