22
gdb 120193	3.03662	1.01641	0.86118	2.0668	84.43	-0.1994	0.0723	0.2717	1448.316	0.193191	-404.263486	-404.254089	-404.253145	-404.298292	35.556	
C	 0.0319299573	 1.5912017501	-0.1865478302	-0.379339
C	 0.0817790521	 0.0667302816	-0.05710361	-0.15781
C	 0.6513471393	-0.3922890826	 1.2884980608	-0.135957
N	 0.7405638412	-1.8574375222	 1.3077423657	-0.114629
C	-0.3998932929	-2.7105335041	 1.8374464022	-0.08591
C	 0.6389925074	-3.8617604411	 1.8833046992	-0.216252
C	 1.3098687455	-2.6019717592	 2.49961722	-0.055358
C	 0.0108322683	-2.4219716552	 3.3279186692	 0.146732
O	-0.1967662432	-1.1781282624	 3.9403669829	-0.427554
H	 1.0333254435	 2.0288533938	-0.1036346649	 0.112218
H	-0.3843158512	 1.8965255234	-1.1515937874	 0.108756
H	-0.5869978133	 2.0387947545	 0.599273651	 0.110928
H	-0.9292696944	-0.345310142	-0.1777157045	 0.086472
H	 0.6855510772	-0.36732952	-0.861921823	 0.09879
H	 1.6781846918	-0.0154525038	 1.3913845252	 0.089423
H	 0.0710039872	 0.0401265606	 2.1097060701	 0.104537
H	-1.3905065838	-2.7140010686	 1.3785781569	 0.07674
H	 0.4377192286	-4.7061356149	 2.5447802905	 0.092022
H	 1.0337452163	-4.1507079894	 0.9118330317	 0.112334
H	 2.3441136322	-2.4724826569	 2.8236130665	 0.080534
H	-0.2125428115	-3.2390936379	 4.0304191478	 0.067123
H	-1.0738550175	-1.1815524536	 4.3361619502	 0.2862
43.9437	81.4081	129.0163	234.7344	245.1708	258.4896	292.5163	338.8378	362.1145	410.154	547.5628	680.5574	734.4763	750.3555	771.632	820.246	871.986	887.926	891.8374	911.0317	915.8595	1013.2837	1035.8241	1048.065	1089.9112	1098.6799	1124.6297	1135.4183	1159.2109	1184.796	1187.8739	1191.2462	1205.0708	1237.6752	1270.3859	1280.2928	1310.7259	1317.0206	1332.0051	1395.8065	1411.0856	1450.6333	1488.7427	1496.1716	1499.3435	1500.7404	1514.8567	2977.5551	3010.4291	3021.9186	3027.9318	3055.7982	3076.801	3081.529	3093.8076	3096.0874	3100.1721	3104.9689	3175.0133	3819.7289
CCCN1C2CC1C2O	CCCN1[C@H]2C[C@@H]1[C@H]2O	
InChI=1S/C7H13NO/c1-2-3-8-5-4-6(8)7(5)9/h5-7,9H,2-4H2,1H3	InChI=1S/C7H13NO/c1-2-3-8-5-4-6(8)7(5)9/h5-7,9H,2-4H2,1H3/t5-,6+,7-
