18
gdb 55092	3.15332	1.25926	1.06733	3.113	72.28	-0.2337	0.03	0.2637	1166.2921	0.146615	-439.08594	-439.077137	-439.076193	-439.119581	33.207	
C	 0.2783145872	 1.0683934942	-0.6838982038	-0.490381
C	 0.1436718058	-0.203203937	 0.0852640447	 0.462986
C	-0.9087854956	-0.5619173719	 1.0875567928	-0.342943
C	 0.5563992809	-0.6732629725	 1.4656047307	-0.162809
C	 1.1532267035	-1.8761430488	 0.7463664962	 0.01435
O	 0.638341023	-1.4126112794	-0.5355808955	-0.342125
C	 2.679270749	-1.9297196429	 0.8077182616	 0.364316
N	 3.2924123233	-1.6423527661	-0.3654393294	-0.517823
O	 3.244488315	-2.2074015936	 1.8480413508	-0.373578
H	 1.3188358454	 1.2449545554	-0.9742435675	 0.12641
H	-0.3320455281	 1.0344290405	-1.5935281802	 0.134444
H	-0.0623113415	 1.9150323443	-0.0813214226	 0.13048
H	-1.426924161	 0.277060921	 1.5421091719	 0.118272
H	-1.5120779491	-1.4545621468	 0.9447698316	 0.116499
H	 1.0135371875	-0.1561545588	 2.2973435727	 0.118144
H	 0.7597882635	-2.8630545392	 1.0161763248	 0.1104
H	 2.7303486221	-1.4456009703	-1.176894298	 0.271452
H	 4.295646829	-1.6872873582	-0.4237699607	 0.261908
60.4168	101.0792	182.5257	209.5519	287.9501	316.0272	322.8686	372.0723	454.5417	479.0171	537.8496	637.17	656.56	713.3671	811.7243	820.8662	887.0679	912.8563	940.1602	968.5757	984.665	1011.9507	1044.8805	1070.7135	1093.12	1098.8319	1125.4925	1196.0118	1245.0088	1272.222	1331.7363	1376.0427	1383.7457	1426.8764	1474.749	1487.2113	1501.203	1587.0703	1804.3753	3032.9554	3048.9639	3096.8804	3113.4241	3118.1617	3205.4753	3218.6656	3595.3586	3738.4125
CC12CC1C(O2)C(N)=O	C[C@]12C[C@H]1[C@@H](O2)C(=O)N	
InChI=1S/C6H9NO2/c1-6-2-3(6)4(9-6)5(7)8/h3-4H,2H2,1H3,(H2,7,8)	InChI=1S/C6H9NO2/c1-6-2-3(6)4(9-6)5(7)8/h3-4H,2H2,1H3,(H2,7,8)/t3-,4+,6-/m0/s1
