16
gdb 23401	3.00504	1.45917	1.41322	1.4346	72.57	-0.2398	-0.0065	0.2334	981.9542	0.125594	-437.82419	-437.817089	-437.816145	-437.855567	28.296	
O	-0.1368862634	 1.3235901037	-0.0150044396	-0.395479
N	-0.0028594703	-0.081052052	 0.027200365	-0.304747
C	-1.1272285776	-0.6526860594	 0.0106734375	 0.492448
C	-1.4259094701	-2.1438348063	 0.0073922822	-0.190537
C	-2.3414613431	-2.1628040372	 1.2731032227	-0.070032
O	-3.0493507159	-0.9131189252	 1.2139676119	-0.284299
C	-2.5826887403	-0.2255858806	 0.0131835066	-0.031274
C	-3.0663759686	-1.0222888567	-1.1864127637	-0.075013
C	-2.3722928567	-2.1704642948	-1.1857343223	-0.083584
H	 0.7812729509	 1.612461812	 0.0208660892	 0.307076
H	-0.588103749	-2.8363361534	 0.0168013239	 0.092284
H	-3.0519299621	-2.9966685069	 1.2653721385	 0.10338
H	-1.7441895424	-2.1993375978	 2.1917229013	 0.111931
H	-2.8294266709	 0.8278344318	 0.0920482354	 0.104483
H	-3.8774621238	-0.7346715419	-1.8418091659	 0.112555
H	-2.4968659267	-3.0197272153	-1.8452006028	 0.110808
121.1221	200.0663	272.8118	313.5601	376.0908	405.4409	465.7384	535.691	674.4862	699.2833	733.7753	752.0013	833.7395	860.2687	875.7342	909.3381	933.7135	941.4206	952.5637	974.547	1004.0487	1054.6613	1124.6966	1171.6531	1181.3649	1215.913	1233.2067	1268.9526	1283.1915	1338.553	1360.2042	1410.0814	1518.3642	1622.0343	1807.6556	3025.0352	3071.6548	3157.6648	3188.6847	3208.3848	3233.1598	3818.8297
ON=C1C2COC1C=C2	ON=C1[C@H]2CO[C@@H]1C=C2	
InChI=1S/C6H7NO2/c8-7-6-4-1-2-5(6)9-3-4/h1-2,4-5,8H,3H2	InChI=1S/C6H7NO2/c8-7-6-4-1-2-5(6)9-3-4/h1-2,4-5,8H,3H2/t4-,5-/m1/s1
