14
gdb 8989	6.05064	0.84937	0.76355	3.5531	66.84	-0.2571	-0.0688	0.1882	1376.7242	0.102946	-382.526813	-382.517962	-382.517017	-382.561906	29.527	
O	-0.1925044878	-0.0588022123	-0.2134099071	-0.23455
C	-0.0103590723	 1.1275357499	-0.1343136546	 0.155878
C	 1.3399911928	 1.8047123357	-0.1651265614	-0.277436
C	 1.4031795559	 2.8914684825	-1.2432095571	-0.322518
C	 2.5884063256	 3.8310719706	-1.0654362781	 0.23382
O	 3.3073044098	 3.8131128268	-0.0912690597	-0.282089
C	 2.7920556329	 4.7740780243	-2.1511691711	 0.248683
C	 2.9415390355	 5.5450703953	-3.0632865779	-0.381003
H	-0.8693934588	 1.8328152078	-0.024025141	 0.070483
H	 1.5084048946	 2.2775103816	 0.8114624421	 0.146111
H	 2.1176992442	 1.0506912579	-0.3059456447	 0.135057
H	 1.445290654	 2.4623345066	-2.2513017979	 0.146348
H	 0.496981527	 3.5156091748	-1.232303901	 0.141624
H	 3.0902514765	 6.2338609284	-3.8595906404	 0.219591
49.2315	51.3807	77.4452	132.1714	215.422	241.7131	314.6014	435.0688	529.2998	572.6538	606.1885	650.5024	710.6198	774.4396	827.1816	861.4643	1014.6846	1061.7848	1084.8706	1119.3262	1186.0442	1259.9621	1302.3828	1371.786	1430.0959	1446.4514	1464.7757	1772.9546	1840.1836	2212.8825	2841.6368	3013.5601	3038.3657	3066.1373	3118.11	3492.7546
O=CCCC(=O)C#C	O=CCCC(=O)C#C	
InChI=1S/C6H6O2/c1-2-6(8)4-3-5-7/h1,5H,3-4H2	InChI=1S/C6H6O2/c1-2-6(8)4-3-5-7/h1,5H,3-4H2
