21
gdb 63969	3.08063	1.38233	1.36729	0.8264	77.63	-0.2447	0.0768	0.3215	1087.853	0.18164	-424.233194	-424.224487	-424.223543	-424.266461	33.901	
C	-0.0545223379	 1.4891875842	-0.2794602706	-0.406439
C	-0.050073135	-0.0230995241	-0.0337570787	 0.428963
C	-1.4433840365	-0.5561126271	 0.281457504	-0.403142
O	 0.4489304639	-0.7142287542	-1.1810024861	-0.298249
C	 1.7660380892	-1.1579161781	-0.9424287036	 0.087104
C	 2.9217698199	-0.1742455888	-1.2967925703	-0.253429
C	 3.1705518771	 0.0740507185	 0.2226494092	-0.253517
C	 2.0137338432	-0.9113631678	 0.5686614206	 0.087182
O	 0.8153516252	-0.3500383299	 1.0557167879	-0.298207
H	 0.9509327637	 1.8516597238	-0.5029155161	 0.117986
H	-0.7049233019	 1.7301216159	-1.1249298777	 0.121328
H	-0.4217108012	 2.012621498	 0.6077179023	 0.121305
H	-2.1227849167	-0.3565533967	-0.5513787332	 0.121746
H	-1.3924925218	-1.6341228308	 0.4480132022	 0.121506
H	-1.8382928875	-0.0755541449	 1.1804224333	 0.121779
H	 1.8660831221	-2.1731463087	-1.3344653545	 0.080267
H	 3.7568508333	-0.6448247104	-1.8212976422	 0.10193
H	 2.5922012736	 0.6904684305	-1.8760399017	 0.109835
H	 4.1501913105	-0.2519551113	 0.5803230289	 0.101927
H	 2.9934918338	 1.0913026245	 0.5772242347	 0.109844
H	 2.2827176929	-1.7589065427	 1.2040395217	 0.08028
81.3779	82.4745	194.3082	233.1952	262.8856	334.453	373.2402	389.0448	408.0494	511.5106	633.9171	652.0255	732.0862	740.5978	790.4419	859.1978	870.7489	909.3894	911.7282	918.5187	954.6627	992.5585	998.974	1014.3971	1091.9125	1134.7519	1154.6023	1178.7729	1200.0412	1223.3274	1225.719	1254.4901	1261.1099	1277.6353	1292.4789	1360.3741	1365.0863	1399.1476	1412.5086	1463.2527	1475.0608	1475.0857	1483.8086	1495.3532	1498.4896	3047.6348	3053.3231	3063.7991	3068.7095	3069.8929	3082.6176	3115.6008	3121.5889	3130.3775	3130.8786	3135.2709	3138.1279
CC1(C)OC2CCC2O1	CC1(C)O[C@H]2CC[C@H]2O1	
InChI=1S/C7H12O2/c1-7(2)8-5-3-4-6(5)9-7/h5-6H,3-4H2,1-2H3	InChI=1S/C7H12O2/c1-7(2)8-5-3-4-6(5)9-7/h5-6H,3-4H2,1-2H3/t5-,6+
