17
gdb 11871	4.70383	1.55722	1.34929	3.1789	69.71	-0.2543	0.0316	0.2858	938.1699	0.143801	-363.871628	-363.864604	-363.86366	-363.902946	27.208	
N	-0.2386136004	 1.0520350822	 0.7837086221	-0.542156
C	-0.0928467141	-0.0571757944	 0.200558425	 0.419802
C	-1.1083378921	-0.7290500891	-0.7019104623	-0.388417
C	-0.6151610308	-2.1648609393	-0.7407365834	 0.340212
C	-1.3968209007	-3.2872980431	-0.108480701	-0.302217
C	-1.1954534179	-3.2408148456	-1.6070255585	-0.331709
C	 0.8799670295	-2.0279021179	-0.5066749805	-0.145846
O	 1.0268351551	-0.8410597827	 0.2909244433	-0.239076
H	 0.599466855	 1.2863284632	 1.3191223159	 0.220399
H	-2.120866382	-0.6026935269	-0.3168884225	 0.136931
H	-1.0672463529	-0.2606163668	-1.6937422052	 0.130047
H	-0.8535540074	-4.0385003141	 0.4557857784	 0.116993
H	-2.384036201	-3.0629549789	 0.2816936105	 0.120935
H	-2.0456690824	-2.9899524163	-2.2326325279	 0.120299
H	-0.5169403746	-3.96200605	-2.0523623207	 0.11639
H	 1.320358316	-2.8652012915	 0.0416430202	 0.117718
H	 1.4335417607	-1.8918479389	-1.4459157136	 0.109697
85.3489	156.4622	250.6726	327.6902	371.5551	456.9517	497.0335	536.3281	679.4672	779.3348	791.9756	845.8637	888.4982	894.2683	905.3867	954.8496	988.4365	997.2649	1013.9405	1060.163	1077.9776	1089.9747	1101.3099	1170.7841	1187.6823	1220.1693	1266.6582	1276.6964	1313.3868	1370.5899	1418.3513	1466.6838	1473.1603	1507.1461	1522.3878	1780.729	3010.091	3031.8724	3087.4218	3123.6163	3124.1252	3128.4695	3202.8246	3217.9284	3470.0092
N=C1CC2(CC2)CO1	[NH][C]1CC2(CC2)CO1	
InChI=1S/C6H9NO/c7-5-3-6(1-2-6)4-8-5/h7H,1-4H2	InChI=1S/C6H9NO/c7-5-3-6(1-2-6)4-8-5/h7H,1-4H2
