16
gdb 123760	4.86599	1.06637	0.95986	3.3722	70.23	-0.2476	-0.0012	0.2464	1204.1548	0.126689	-434.042193	-434.034756	-434.033811	-434.075494	26.907	
C	-0.253715526	 0.9612549953	 0.2464545264	-0.064014
C	 1.0224251794	 1.2078761836	-0.5792230174	-0.282034
C	 1.7333234368	 0.4336400737	 0.5646913902	 0.045971
O	 0.4619682793	 0.1238768966	 1.1835160567	-0.292538
C	 2.4989896949	-0.7981537933	 0.2325858642	 0.298201
C	 2.06309012	-2.102008106	 0.2160306515	-0.159138
N	 3.1607004679	-2.8005606386	-0.1575394808	-0.156106
N	 4.2177070982	-1.9936435325	-0.3635518564	-0.112905
N	 3.8170069556	-0.7785037163	-0.1231102768	-0.263991
H	-0.6680304167	 1.851504099	 0.7359262097	 0.105474
H	-1.0667591228	 0.4174126958	-0.2471561631	 0.10613
H	 1.0502931472	 0.691534231	-1.5393832505	 0.117538
H	 1.3277446282	 2.2457422712	-0.7134343172	 0.118231
H	 2.3442740648	 1.0853166393	 1.2028124255	 0.096861
H	 1.1156567764	-2.555855183	 0.4465012361	 0.159331
H	 3.2709000668	-3.7950271359	-0.2753361381	 0.282988
40.0673	88.3296	145.3746	204.5179	376.8006	428.8919	580.1535	655.9796	698.0185	740.2325	786.5068	813.0053	846.9053	930.9269	955.067	983.8793	1018.5843	1030.1557	1045.2816	1077.3967	1094.5965	1126.2913	1168.1384	1212.8102	1246.8728	1254.7188	1268.7801	1293.8216	1340.3035	1356.6499	1390.3154	1489.2884	1492.7296	1532.8587	1593.7009	3016.4686	3023.018	3063.4128	3089.5902	3147.9676	3302.3252	3659.2708
C1CC(O1)C1=CNN=N1	C1C[C@@H](O1)c1c[nH]nn1	
InChI=1S/C5H7N3O/c1-2-9-5(1)4-3-6-8-7-4/h3,5H,1-2H2,(H,6,7,8)	InChI=1S/C5H7N3O/c1-2-9-5(1)4-3-6-8-7-4/h3,5H,1-2H2,(H,6,7,8)/t5-/m1/s1
