22
gdb 36934	4.33777	0.91571	0.80168	1.4561	83.11	-0.227	0.0848	0.3119	1485.7762	0.195695	-404.321934	-404.313042	-404.312098	-404.356772	32.911	
C	-0.0930213168	 1.5187714517	 0.2025467738	-0.176461
C	 0.0141484286	 0.0269712859	-0.0709966528	 0.150964
C	-1.3037355553	-0.7569424997	 0.1062791024	-0.238754
C	-1.2292437565	-1.8571312502	-0.9840008158	-0.225961
C	 0.0894799482	-1.5360606401	-1.7242531855	-0.072423
O	 0.3783687464	-0.1790023886	-1.4336553643	-0.255718
N	 1.2148537962	 2.1585000251	 0.219076354	-0.066293
C	 1.7310440147	 2.608995541	-1.0695233322	-0.203461
C	 1.2369689723	 3.5902401248	-0.0655081323	-0.228551
H	-0.7746158444	 1.9584019183	-0.5491090432	 0.082697
H	-0.5513279861	 1.6625682957	 1.1888539743	 0.10114
H	 0.7953699195	-0.3959316245	 0.5819441606	 0.072045
H	-1.399141928	-1.1637466371	 1.115877259	 0.103483
H	-2.1597287255	-0.0967865734	-0.0660931466	 0.102403
H	-1.2176986726	-2.8651695765	-0.5621942577	 0.103057
H	-2.0846278377	-1.7951821501	-1.6609781265	 0.108159
H	 0.903076972	-2.1866762089	-1.3641748558	 0.088083
H	 0.0244438342	-1.6414228484	-2.8103239717	 0.104556
H	 2.796717548	 2.4663515634	-1.2233595019	 0.112623
H	 1.1167626831	 2.4315596121	-1.9484246926	 0.121034
H	 0.2890287958	 4.0837151016	-0.2763097412	 0.104655
H	 1.9322870839	 4.1786407378	 0.5266595859	 0.112721
42.6027	80.8515	95.6846	143.5554	213.2401	297.4754	348.4548	415.6529	492.64	649.77	665.7194	767.2193	808.3073	835.5888	857.2108	894.2863	907.5099	922.4165	961.9952	1001.414	1024.8307	1037.0897	1065.1924	1108.3682	1114.7767	1120.463	1126.4348	1135.5706	1172.7188	1185.2545	1216.0919	1242.7855	1261.452	1280.3092	1296.2506	1313.6516	1325.0062	1346.7542	1363.0473	1401.32	1420.5378	1477.12	1487.9441	1495.5743	1505.0446	1521.4956	1525.9884	2934.8623	2967.8152	2973.4855	3047.969	3051.5388	3067.7333	3087.5581	3092.2624	3098.1386	3113.0604	3116.9533	3176.9338	3199.3163
C(C1CCCO1)N1CC1	C([C@H]1CCCO1)N1CC1	
InChI=1S/C7H13NO/c1-2-7(9-5-1)6-8-3-4-8/h7H,1-6H2	InChI=1S/C7H13NO/c1-2-7(9-5-1)6-8-3-4-8/h7H,1-6H2/t7-/m1/s1
