17
gdb 49029	2.59906	1.38604	1.10219	2.7819	81.07	-0.2489	-0.0352	0.2137	1131.0964	0.134358	-384.640919	-384.632475	-384.63153	-384.673997	31.726	
O	-0.2655684153	 0.322884913	-0.7124170605	-0.271264
C	 0.0597389455	 1.0870849832	 0.1677553475	 0.053987
C	 1.2768223717	 1.9151488733	 0.146827746	 0.224694
C	 1.7001201551	 2.9826564986	 1.1617995975	-0.310819
C	 2.1497656807	 3.9119148249	-0.0135377179	-0.236611
C	 1.7283113622	 2.8360547053	-1.0189881842	-0.092096
C	 2.4342329173	 1.5357126776	-0.7799956331	-0.263232
C	 3.7823977696	 1.4437311121	-0.2975091755	 0.334243
C	 4.9115692801	 1.3685265512	 0.1104023978	-0.434054
H	-0.5798912972	 1.2310899329	 1.0681009861	 0.074041
H	 0.8492854004	 3.3902948548	 1.7131024125	 0.110949
H	 2.475438714	 2.6807856623	 1.870110259	 0.118784
H	 1.5443016293	 4.8165045532	-0.0871998459	 0.113007
H	 3.2076746438	 4.1844224041	-0.0393188853	 0.121613
H	 1.1869182654	 2.9957636809	-1.9437740232	 0.113924
H	 2.128091321	 0.7536059057	-1.4700717899	 0.143122
H	 5.9112066666	 1.2930185569	 0.460688729	 0.199715
97.7352	136.3751	144.5299	203.7564	213.5939	321.9002	351.9755	480.6848	531.8043	579.3149	603.0065	657.8495	705.9716	747.8867	784.6567	795.0742	872.5891	934.2887	954.2558	978.7382	1006.0219	1057.3504	1077.0242	1103.9596	1137.0356	1211.4869	1217.3017	1242.5779	1250.1861	1294.9695	1331.3766	1420.5794	1434.2383	1474.2828	1495.405	1792.9137	2234.8441	2873.326	3062.8847	3072.2944	3111.5073	3131.1584	3154.0989	3190.7143	3502.9039
O=CC12CCC1C2C#C	O=C[C@]12CC[C@H]1[C@H]2C#C	
InChI=1S/C8H8O/c1-2-6-7-3-4-8(6,7)5-9/h1,5-7H,3-4H2	InChI=1S/C8H8O/c1-2-6-7-3-4-8(6,7)5-9/h1,5-7H,3-4H2/t6-,7+,8+/m1/s1
