14
gdb 133704	2.73809	1.24379	1.17189	2.861	50.71	-0.259	0.0411	0.3001	1055.1089	0.095399	-605.303874	-605.295359	-605.294415	-605.3372	31.616	
O	-0.043711136	 1.3370300401	 0.2285972812	-0.426674
C	-0.0026014829	-0.064728843	 0.2313914967	 0.023155
C	-0.6721929155	-0.7467995696	 1.3899926968	-0.366947
C	-1.3419162793	-0.7402407528	 0.0311725424	 0.225486
O	-2.4448152094	 0.0740407042	-0.1797954511	-0.470779
C	-1.4205175566	-2.0080601282	-0.7753914637	 0.258992
F	-2.4923173814	-2.7410908018	-0.456827163	-0.065831
F	-1.4828289793	-1.7524581172	-2.0887846923	-0.072551
F	-0.3273954401	-2.7668381723	-0.5609505164	-0.088321
H	 0.2231275646	 1.6398469034	-0.6468239815	 0.301467
H	 0.8941114989	-0.5147057345	-0.1852061018	 0.116978
H	-0.2258925896	-1.6614888955	 1.7607386646	 0.138651
H	-1.1406568052	-0.1117135086	 2.1334380292	 0.137386
H	-2.1080740084	 0.9822504658	-0.1749926311	 0.288988
67.3364	142.5687	202.864	262.7108	273.8872	314.6045	333.6994	406.7743	450.4229	490.6268	505.9738	576.1996	581.5597	671.2762	756.2419	839.1545	897.866	921.2766	1016.7146	1046.1067	1094.8344	1144.727	1167.6272	1199.1155	1205.801	1278.2291	1291.2572	1317.3024	1412.3222	1446.0419	1493.8045	3146.2026	3150.8368	3243.7934	3723.5391	3801.9522
OC1CC1(O)C(F)(F)F	O[C@H]1C[C@]1(O)C(F)(F)F	
InChI=1S/C4H5F3O2/c5-4(6,7)3(9)1-2(3)8/h2,8-9H,1H2	InChI=1S/C4H5F3O2/c5-4(6,7)3(9)1-2(3)8/h2,8-9H,1H2/t2-,3+/m0/s1
