22
gdb 7198	3.19468	0.93283	0.76022	1.7429	75.96	-0.2567	0.0731	0.3298	1566.6505	0.19769	-387.33366	-387.323107	-387.322163	-387.369754	36.777	
C	 0.6399355232	 1.2732384945	 0.2058884909	-0.382101
C	 0.0458848254	-0.1120379711	-0.0605082362	-0.163284
C	 0.7364525223	-0.8484008545	-1.2127997811	-0.179462
C	 0.106934924	-2.2048908103	-1.534555859	 0.089934
O	-1.2562559882	-2.0928054508	-1.9351910467	-0.431833
C	 0.8870598328	-2.9781520148	-2.600888418	-0.075185
O	 2.1906898335	-3.2303468916	-2.128325663	-0.231045
C	 2.9814114629	-3.9469446897	-3.0456322791	-0.223431
H	 1.7050661989	 1.2078942407	 0.4550866749	 0.113265
H	 0.5482591305	 1.9205157437	-0.6739062985	 0.109575
H	 0.1333010383	 1.7717118032	 1.0382880974	 0.110969
H	 0.1186161028	-0.7239845243	 0.8481916765	 0.095697
H	-1.0236130982	-0.0263567864	-0.2827216117	 0.104078
H	 0.7080694798	-0.2263007097	-2.1224126121	 0.07335
H	 1.7966590133	-1.0078677634	-0.9867854359	 0.116271
H	 0.0845657895	-2.8171314241	-0.6248177751	 0.096421
H	-1.2916689175	-1.4793618595	-2.6779318841	 0.2773
H	 0.3563143206	-3.9178631396	-2.8219244611	 0.094578
H	 0.9200126104	-2.39105891	-3.538541948	 0.068879
H	 2.5452290545	-4.931103183	-3.2787997611	 0.105639
H	 3.1090419222	-3.3971296552	-3.991841926	 0.103309
H	 3.962700829	-4.094862664	-2.5881787431	 0.127076
70.8011	83.2749	85.1453	117.7384	167.8379	203.3632	238.2934	247.3087	303.1637	325.6075	344.6107	433.5809	486.4897	544.7026	749.4826	844.5698	878.166	926.9579	997.8379	1001.4735	1045.203	1071.7496	1095.0522	1130.9266	1155.0507	1171.7744	1185.6701	1225.5671	1242.3629	1244.1874	1297.255	1308.6974	1338.3881	1366.101	1397.7231	1408.9826	1414.23	1421.7104	1480.5773	1482.0131	1485.9703	1494.7123	1499.6576	1502.2972	1511.6798	1524.4883	2925.5239	2969.9557	2980.4403	2992.5664	3014.0566	3024.0002	3027.6247	3048.3138	3059.1696	3077.5562	3095.623	3100.5532	3113.5541	3794.5686
CCCC(O)COC	CCC[C@@H](O)COC	
InChI=1S/C6H14O2/c1-3-4-6(7)5-8-2/h6-7H,3-5H2,1-2H3	InChI=1S/C6H14O2/c1-3-4-6(7)5-8-2/h6-7H,3-5H2,1-2H3/t6-/m1/s1
