16
gdb 74311	2.67877	1.40413	1.06783	4.7326	73.47	-0.233	-0.0276	0.2054	1138.8855	0.123518	-434.103074	-434.094293	-434.093349	-434.137212	31.195	
C	-0.1232083608	 1.4892127406	-0.0477296582	-0.493021
C	-0.0597473914	-0.0017236789	-0.071568539	 0.373808
N	-0.255386437	-0.7287246583	-1.1104603986	-0.303501
C	-0.0564793133	-2.1229221602	-0.6744882384	-0.158267
C	 1.1287455175	-2.666579005	-1.4849714085	 0.165105
O	 2.175314615	-3.0277212552	-1.0249961776	-0.222825
C	 0.182395073	-2.0803122716	 0.829419324	 0.409089
N	 0.2970882133	-3.0808111524	 1.5968719267	-0.53952
N	 0.2199347769	-0.708780727	 1.0940350271	-0.378638
H	 0.8339085286	 1.9134516731	 0.2750664555	 0.145707
H	-0.3574431464	 1.8545591582	-1.0472507132	 0.164013
H	-0.8918805943	 1.8361877127	 0.6516199068	 0.14216
H	-0.9353301614	-2.7309479278	-0.9224531322	 0.130211
H	 0.9333501174	-2.6526723204	-2.5781439234	 0.098602
H	 0.461975861	-2.8081771602	 2.5671439711	 0.209854
H	 0.3707672219	-0.3020555676	 2.002078788	 0.257223
50.3298	114.3428	143.2828	163.8811	179.1729	294.0237	347.4598	378.9033	469.6509	513.9715	615.0478	641.6574	699.4852	747.878	820.4627	858.1938	965.3938	984.2375	997.9143	1036.8949	1061.694	1075.1097	1095.6828	1219.4676	1237.8387	1279.6292	1319.5232	1401.9673	1415.3629	1446.0013	1479.862	1483.2532	1695.891	1768.3138	1847.6325	2911.5872	3040.4368	3040.8229	3096.2446	3161.8504	3459.2186	3658.431
CC1=NC(C=O)C(=N)N1	CC1=N[C@@H](C=O)[C]([NH])N1	
InChI=1S/C5H7N3O/c1-3-7-4(2-9)5(6)8-3/h2,4H,1H3,(H2,6,7,8)	InChI=1S/C5H7N3O/c1-3-7-4(2-9)5(6)8-3/h2,4H,1H3,(H2,6,7,8)/t4-/m0/s1
