21
gdb 91801	2.26942	1.76845	1.27682	2.7597	77.29	-0.254	0.0778	0.3319	1081.9398	0.182382	-424.236969	-424.228165	-424.227221	-424.269735	34.764	
C	-0.0539633669	 1.545604252	 0.0029024511	-0.400003
C	 0.0473208817	 0.0203363797	-0.0219509826	-0.074436
C	 0.8773553053	-0.5482878381	-1.2150026058	 0.108316
O	 1.9889880579	 0.2649651624	-1.5444706564	-0.43694
C	 1.3229184083	-1.9554297511	-0.7392391558	-0.274289
C	 1.4698118681	-1.7871210577	 0.7574687855	-0.01477
O	 2.1565152735	-0.568279333	 1.1234166195	-0.319204
C	 0.7057933605	-0.6131667803	 1.2030005003	 0.414109
C	 0.1265283763	-0.4461556448	 2.5799099355	-0.49261
H	 0.934203649	 2.0025461542	 0.089944626	 0.127275
H	-0.5078341777	 1.9183700728	-0.9200848148	 0.119345
H	-0.6699924139	 1.8875596044	 0.84073811	 0.107787
H	-0.9660671498	-0.4032430936	-0.0860585046	 0.073126
H	 0.2716898117	-0.5984711777	-2.1236633092	 0.07903
H	 2.5355842579	 0.2854019514	-0.746642096	 0.286474
H	 0.5585778966	-2.7148184409	-0.9462374532	 0.102339
H	 2.2463385522	-2.2581270225	-1.2409737713	 0.116118
H	 1.6713012829	-2.6345986532	 1.4085616065	 0.09208
H	 0.1328616594	 0.6059956159	 2.8827085712	 0.133017
H	-0.9111938067	-0.7957371294	 2.6062437061	 0.123252
H	 0.7056021038	-1.0131715503	 3.3130122181	 0.129983
123.0926	179.976	192.6619	228.8952	242.6676	269.0982	308.2972	411.5014	429.5949	475.9773	542.7236	583.1349	635.6057	663.5787	763.3189	812.4424	836.558	876.7251	889.044	965.979	983.2542	1000.5804	1026.8668	1037.0017	1066.7223	1092.9905	1136.3004	1149.5349	1207.3987	1235.4856	1242.0125	1274.4717	1309.2007	1328.1807	1347.4988	1367.5747	1410.2391	1412.9506	1449.0011	1458.5015	1475.0247	1483.9931	1494.2238	1497.1275	1501.4938	2999.3702	3036.2258	3037.0998	3043.7474	3077.8978	3096.6774	3099.8877	3106.0645	3122.4459	3129.963	3143.3177	3745.1138
CC1C(O)CC2OC12C	C[C@H]1[C@@H](O)C[C@H]2O[C@@]12C	
InChI=1S/C7H12O2/c1-4-5(8)3-6-7(4,2)9-6/h4-6,8H,3H2,1-2H3	InChI=1S/C7H12O2/c1-4-5(8)3-6-7(4,2)9-6/h4-6,8H,3H2,1-2H3/t4-,5-,6+,7-/m0/s1
