16
gdb 28309	5.05039	1.24098	1.00243	1.6087	81.08	-0.174	-0.0108	0.1632	1123.573	0.126435	-400.787819	-400.780542	-400.779597	-400.819307	28.682	
O	 0.0737758655	 1.3542202913	-0.1260006428	-0.449014
C	 0.0648665045	-0.0092292039	-0.0347344851	 0.342807
C	 0.0263599209	-0.8435695689	-1.1390709286	-0.22003
N	 0.0293535255	-2.1279294517	-0.6524668159	-0.021126
C	 0.0023667328	-3.4783027781	-1.1855286415	-0.240431
C	 0.0316757312	-4.3076383658	 0.0844007107	-0.109508
C	 0.0697383129	-3.4999309993	 1.1601881422	-0.204613
C	 0.0688191125	-2.1193376527	 0.7196492718	 0.402089
C	 0.0921368163	-0.8021671775	 1.1470575711	-0.489389
H	 0.1010168729	 1.7158104031	 0.7639006204	 0.295234
H	-0.0017180437	-0.6107859952	-2.1898560204	 0.117797
H	-0.90191193	-3.6602138362	-1.7808071046	 0.133268
H	 0.8676804363	-3.6754915647	-1.8316793011	 0.133271
H	 0.0220544793	-5.387769943	 0.0744635094	 0.107612
H	 0.0968762553	-3.8099581923	 2.1956400073	 0.110425
H	 0.1243840078	-0.4488158251	 2.1668159172	 0.091609
121.3382	194.8134	232.2994	309.1437	318.4381	433.5385	507.1532	552.9458	626.4459	642.9147	675.8943	726.646	741.553	746.6427	792.5096	889.8241	934.9045	943.8707	987.473	1004.2857	1083.4643	1152.1829	1162.608	1172.341	1184.3409	1250.2421	1292.4608	1341.5645	1400.4364	1420.6322	1468.9088	1485.8029	1542.7678	1608.9307	1641.234	3018.2647	3045.7538	3227.1185	3239.2337	3250.6063	3277.0512	3850.0067
OC1=CN2CC=CC2=C1	Oc1cn2CC=Cc2c1	
InChI=1S/C7H7NO/c9-7-4-6-2-1-3-8(6)5-7/h1-2,4-5,9H,3H2	InChI=1S/C7H7NO/c9-7-4-6-2-1-3-8(6)5-7/h1-2,4-5,9H,3H2
