16
gdb 77846	2.1877	1.53993	1.44898	1.7131	75.6	-0.2417	-0.0323	0.2094	1020.4275	0.122044	-400.679438	-400.670988	-400.670044	-400.712429	31.599	
C	-0.5668740841	 1.4585536199	 0.102537757	-0.427818
C	-0.0118924102	 0.050440457	 0.0153832522	-0.050487
N	 0.5433623586	-0.4730552974	-1.2960586179	-0.157977
C	 1.8826193785	 0.103420499	-1.5379098809	-0.195341
C	 2.3532956248	 1.4117450039	-1.1663852503	 0.337885
C	 2.8282958678	 2.4903647895	-0.9261557173	-0.430892
C	 1.7516036692	-1.0302609258	-0.5644454763	-0.17625
C	 1.2395863456	-0.485803026	 0.7506258589	 0.38407
O	 1.565597652	-0.6036237544	 1.893468608	-0.299198
H	 0.1749259782	 2.2164316286	-0.1440640068	 0.147691
H	-1.4185611271	 1.5651597849	-0.5766592821	 0.132057
H	-0.9230531092	 1.6393254058	 1.1216164961	 0.136377
H	-0.8044068894	-0.6626680485	 0.2825530001	 0.12702
H	 2.2388850731	-0.2092183674	-2.5178165552	 0.136253
H	 3.2326405277	 3.4451181636	-0.6945529297	 0.209147
H	 2.1788882644	-2.0079980928	-0.7571291259	 0.127465
84.4715	154.898	160.5178	187.4497	244.1388	270.6446	405.1353	450.3152	508.8904	611.1388	619.1301	657.5946	673.1064	680.8165	731.586	787.5956	829.0553	901.7813	922.6084	1029.1781	1044.9757	1067.5771	1083.8939	1109.4214	1170.6951	1226.345	1240.305	1291.8174	1355.7816	1386.9631	1404.9174	1488.0057	1501.7199	1900.734	2230.9878	3020.1909	3049.4132	3110.3276	3127.672	3166.4079	3184.237	3498.4871
CC1N2C(C#C)C2C1=O	C[C@H]1N2[C@@H](C#C)[C@H]2C1=O	
InChI=1S/C7H7NO/c1-3-5-6-7(9)4(2)8(5)6/h1,4-6H,2H3	InChI=1S/C7H7NO/c1-3-5-6-7(9)4(2)8(5)6/h1,4-6H,2H3/t4-,5+,6+,8?/m1/s1
