17
gdb 28432	3.14152	1.37692	0.96393	1.5093	81.9	-0.1935	-0.0048	0.1887	1193.3642	0.137481	-418.089192	-418.080807	-418.079863	-418.121986	32.282	
C	-0.000566088	 1.4898716656	 0.0829556799	-0.46738
C	 0.0196595769	-0.0121853988	-0.0121847866	 0.300355
C	-0.1133775966	-0.6890082013	-1.2163573902	-0.169031
C	-0.0839962813	-2.0862105841	-1.2307849454	-0.150997
C	 0.080209333	-2.7905607883	-0.0460883651	 0.19468
N	 0.1837131013	-4.1786984216	 0.0356609494	-0.59698
C	 0.2004681567	-2.0018277189	 1.1182880925	 0.38213
O	 0.3478910597	-2.6672869529	 2.2958001029	-0.438043
N	 0.1728073963	-0.6885233194	 1.1447896843	-0.410661
H	 0.9372964105	 1.8658448411	 0.5063247825	 0.131783
H	-0.1436841137	 1.9495269707	-0.898161353	 0.115328
H	-0.8059898766	 1.8272858367	 0.7442592844	 0.130713
H	-0.2412473403	-0.1380491631	-2.1411554209	 0.087566
H	-0.1860639532	-2.6278546331	-2.1667619772	 0.090015
H	-0.3075413846	-4.6813334495	-0.6894419081	 0.245025
H	-0.020095816	-4.5434688569	 0.9551780955	 0.260315
H	 0.3993912959	-1.9841818063	 2.9779180251	 0.295185
80.1812	133.1882	234.4696	294.3145	303.8426	310.6918	357.6214	441.5452	477.1107	520.4065	529.0692	587.9764	628.134	645.9293	732.4966	782.7104	799.6939	841.7285	940.8717	963.5263	1023.8752	1058.4086	1091.226	1152.2728	1190.262	1271.9477	1302.1966	1338.8082	1389.893	1411.2755	1471.8877	1476.0153	1497.1335	1527.3738	1628.5686	1643.4014	1664.4108	3033.4925	3088.3648	3120.0128	3168.223	3195.1512	3559.8617	3662.9145	3774.6232
CC1=CC=C(N)C(O)=N1	Cc1ccc(N)c(O)n1	
InChI=1S/C6H8N2O/c1-4-2-3-5(7)6(9)8-4/h2-3H,7H2,1H3,(H,8,9)	InChI=1S/C6H8N2O/c1-4-2-3-5(7)6(9)8-4/h2-3H,7H2,1H3,(H,8,9)
