14
gdb 20437	4.97782	2.22981	1.58209	4.2351	62.15	-0.2176	0.0288	0.2464	757.7676	0.112632	-374.923087	-374.917282	-374.916338	-374.953025	22.017	
C	 0.039874541	 1.4394013921	 0.0709583677	-0.179499
C	 1.5291268024	 1.8627963874	-0.1202117522	-0.173531
N	 2.1632568664	 0.5747239688	 0.0560900003	 0.037053
N	 3.448282851	 0.1208618978	 0.0997215672	-0.280922
C	 3.246721467	-1.1876883444	 0.0439615922	 0.026682
N	 1.9416397398	-1.6095976217	-0.0734846643	-0.391148
C	 1.3116670184	-0.4541117415	-0.0814663313	 0.464381
N	 0.0203951216	-0.0001169785	-0.2896052092	-0.409634
H	-0.256584891	 1.5928496043	 1.1167341117	 0.122139
H	-0.6344189484	 2.0109148139	-0.5697087955	 0.130177
H	 1.7192555644	 2.2617441003	-1.1237635857	 0.134559
H	 1.8548968487	 2.5962689564	 0.6199155776	 0.139527
H	 4.0724502287	-1.8823613741	 0.0921414188	 0.121797
H	-0.7205657599	-0.5530790708	 0.1173400429	 0.258419
159.3654	183.2471	307.4086	456.7773	560.9762	656.8775	668.3189	745.177	764.0071	818.8046	889.4219	896.3266	946.0468	986.4127	1042.5398	1122.4728	1132.2581	1192.4065	1211.0061	1250.6512	1279.3003	1297.4603	1326.7955	1354.6422	1386.0733	1461.092	1505.701	1525.6915	1557.6843	1623.9541	3019.3109	3036.1928	3104.2981	3113.4247	3256.6649	3601.0756
C1CN2N=CN=C2N1	C1Cn2ncnc2N1	
InChI=1S/C4H6N4/c1-2-8-4(5-1)6-3-7-8/h3H,1-2H2,(H,5,6,7)	InChI=1S/C4H6N4/c1-2-8-4(5-1)6-3-7-8/h3H,1-2H2,(H,5,6,7)
