18
gdb 65944	2.21932	1.53267	1.35475	4.341	75.88	-0.2723	0.007	0.2793	1067.353	0.146268	-401.929393	-401.920621	-401.919677	-401.962795	32.773	
C	-0.2560423193	 1.5498236364	 0.1663366216	-0.435334
C	 0.0203308015	 0.0557755298	 0.0625545273	 0.202145
O	 1.1531672871	-0.2270607094	-0.7929325217	-0.313405
C	 1.8644700785	-0.9262067495	 0.260086342	-0.142349
C	 0.7366643626	-0.6376623705	 1.2410409162	 0.257666
C	 0.807214367	-0.1930359716	 2.6685767638	-0.325628
C	 0.1606975408	-1.5110010631	 2.306668022	-0.326815
C	-1.1807498846	-0.6672927023	-0.3978636415	 0.269138
N	-2.1321423205	-1.2351957151	-0.7269634887	-0.344098
H	 0.6376991939	 2.0588761986	 0.5338785416	 0.132504
H	-0.5150635976	 1.9500459546	-0.8174953183	 0.148005
H	-1.0887238289	 1.7456811258	 0.8486801068	 0.134809
H	 2.0188790008	-1.9828625844	 0.011062911	 0.118703
H	 2.8312460802	-0.4551573906	 0.4728859611	 0.112881
H	 1.7786209519	-0.2085919671	 3.1526944092	 0.123379
H	 0.1645556924	 0.6213452642	 2.9866059381	 0.125106
H	-0.9200705267	-1.5877512825	 2.3674510358	 0.138513
H	 0.688127231	-2.4288256734	 2.5454614738	 0.124781
68.8118	128.6844	191.1294	209.5336	230.7024	270.2958	315.9367	371.7189	449.3416	507.0665	547.638	621.8102	643.6599	772.9492	873.534	889.4419	894.6679	910.3747	946.3285	985.3387	1015.1748	1060.9179	1082.7828	1095.7454	1124.6685	1151.1149	1164.1654	1185.9846	1204.4981	1262.1358	1325.1981	1401.5953	1407.8194	1463.8255	1478.8685	1484.7083	1508.3894	1526.0434	2350.5209	3020.4699	3047.1598	3066.4765	3123.7109	3127.4095	3131.0106	3137.3469	3206.4748	3220.8664
CC1(OCC11CC1)C#N	C[C@]1(OCC21CC2)C#N	
InChI=1S/C7H9NO/c1-6(4-8)7(2-3-7)5-9-6/h2-3,5H2,1H3	InChI=1S/C7H9NO/c1-6(4-8)7(2-3-7)5-9-6/h2-3,5H2,1H3/t6-/m0/s1
