17
gdb 36745	6.66274	0.6225	0.58419	6.3108	77.57	-0.2664	0.0096	0.276	1820.8028	0.135895	-418.018295	-418.009322	-418.008378	-418.054005	30.946	
N	 0.1143941834	-1.2577433811	-0.3161614032	-0.307083
C	 0.0437860794	-0.105160635	-0.2710872074	 0.250877
C	-0.0238788769	 1.3520711498	-0.2057313539	-0.32416
C	 1.2767977963	 1.9783347117	 0.3336623413	-0.166456
N	 1.1381586361	 3.4271493247	 0.3009601373	-0.338064
C	 1.7018116473	 4.1070355023	 1.1877259309	 0.469783
C	 1.7984955785	 5.5814201361	 1.5140504171	-0.374523
C	 2.6513465098	 5.0880706061	 2.7013306811	-0.077133
O	 2.4830458126	 3.7055533044	 2.2553487644	-0.257533
H	-0.2301115608	 1.75178296	-1.2038383905	 0.160168
H	-0.8654995475	 1.6421448412	 0.43225238	 0.1531
H	 1.4918509735	 1.5895348233	 1.3364434427	 0.131649
H	 2.1090240183	 1.6784686759	-0.3147413768	 0.13185
H	 2.3217625799	 6.1803594454	 0.7670930807	 0.144797
H	 0.8505806	 6.0595909623	 1.7652178891	 0.143433
H	 3.7059673761	 5.3714727787	 2.6948065016	 0.129857
H	 2.2249615839	 5.2304557042	 3.6967489455	 0.129437
27.4059	61.6738	92.0727	151.7537	204.5454	228.1646	332.1753	402.243	464.8704	567.7454	579.2922	761.948	786.4803	790.9113	906.2244	952.0846	966.7524	999.7418	1035.1816	1057.0827	1070.4764	1074.7395	1147.0016	1158.8049	1199.5857	1214.0953	1243.3854	1292.9375	1313.4484	1352.4484	1392.8584	1466.8534	1467.552	1495.1095	1521.0032	1839.613	2363.1074	3022.1872	3054.8912	3060.9875	3069.8824	3090.5838	3098.9929	3124.7344	3147.2352
N#CCCN=C1CCO1	N#CCCN=C1CCO1	
InChI=1S/C6H8N2O/c7-3-1-4-8-6-2-5-9-6/h1-2,4-5H2	InChI=1S/C6H8N2O/c7-3-1-4-8-6-2-5-9-6/h1-2,4-5H2
