18
gdb 104488	2.05565	1.93287	1.21574	2.6191	72.32	-0.2492	-0.0374	0.2118	1045.8353	0.147564	-438.990141	-438.981987	-438.981042	-439.023094	30.949	
O	 0.2663129187	 1.1301648	 0.1308824852	-0.421379
C	 0.0939599942	-0.2195070419	-0.256899242	-0.157007
C	-1.3694300412	-0.6355708731	-0.0276610237	 0.253934
C	-2.1614611337	-0.0188538168	-1.1691511365	 0.088822
O	-2.8976622841	-0.6347769456	-1.8990688933	-0.256226
C	-1.8160505038	-2.0079213119	 0.5433958369	-0.121179
C	-1.1493254623	-1.5503255172	 1.8592932662	-0.183265
N	-1.8753487883	-0.2641984992	 1.4107533754	-0.204163
C	-3.0380032292	-1.2339741713	 1.0960140691	-0.176866
H	-0.2276299853	 1.2443640747	 0.9543326186	 0.299501
H	 0.3362532758	-0.2774084868	-1.3249936476	 0.121186
H	 0.7957030117	-0.8888250797	 0.257524227	 0.103936
H	-1.9534283136	 1.0607665606	-1.3254033439	 0.105723
H	-1.787657922	-2.9846505738	 0.0541025361	 0.084365
H	-1.5567209553	-1.9508704877	 2.7903407513	 0.111333
H	-0.0654941008	-1.4675208359	 1.9237848834	 0.111139
H	-3.7774333495	-0.847795148	 0.3976695606	 0.133477
H	-3.5102156712	-1.6214712964	 2.0012384772	 0.106671
92.4921	101.1385	155.853	204.1262	313.398	381.84	403.2827	464.9088	474.7373	609.7582	638.3015	713.1688	786.368	787.3449	854.5394	897.8885	919.2839	943.2558	1010.1897	1044.3016	1058.8574	1068.0236	1074.8003	1099.3228	1160.7787	1175.8949	1192.6279	1198.9781	1218.9765	1232.7203	1269.4206	1295.5683	1362.1034	1410.3954	1440.29	1510.2876	1536.9295	1566.8753	1817.0557	2915.9411	3011.8867	3051.3723	3073.1301	3077.4744	3089.0341	3149.9531	3167.8709	3750.4156
OCC1(C=O)C2CN1C2	OC[C@@]1(C=O)[C@H]2CN1C2	
InChI=1S/C6H9NO2/c8-3-6(4-9)5-1-7(6)2-5/h3,5,9H,1-2,4H2	InChI=1S/C6H9NO2/c8-3-6(4-9)5-1-7(6)2-5/h3,5,9H,1-2,4H2/t6-/m0/s1
