20
gdb 36512	3.8922	0.94368	0.80311	4.3522	85.41	-0.2513	0.0132	0.2645	1427.0165	0.173105	-366.053414	-366.044942	-366.043998	-366.086921	32.199	
N	-0.1131196219	-1.185617203	 0.0476154334	-0.31479
C	-0.0851285011	-0.0302707207	 0.027918126	 0.26423
C	-0.0228967714	 1.4295133125	 0.00090665	-0.354597
C	 1.4265862055	 1.979342352	 0.0284323626	-0.022492
C	 1.4131349125	 3.5050899776	-0.160540073	-0.212242
C	 2.7911316722	 4.109440739	 0.1315340264	-0.219659
C	 3.2123522743	 3.8376262447	 1.5831238879	-0.238874
C	 2.9170106439	 2.4198914746	 1.9968655203	-0.06578
C	 2.1408314134	 1.5894480618	 1.3015705591	-0.051604
H	-0.5347519006	 1.7792045152	-0.9031993939	 0.147932
H	-0.5846173452	 1.8185824682	 0.8582634177	 0.151474
H	 1.9520322711	 1.5229867422	-0.8235506108	 0.102722
H	 1.0883778486	 3.7527483053	-1.1776323621	 0.096371
H	 0.6734003419	 3.9442698654	 0.5233258724	 0.098739
H	 3.5288207476	 3.6652853037	-0.5487526201	 0.104706
H	 2.7857367198	 5.1857255234	-0.0692016077	 0.096895
H	 4.2817146932	 4.0452531343	 1.7135752135	 0.10724
H	 2.6970442896	 4.5310884275	 2.2647176814	 0.109876
H	 3.3803073928	 2.0695628378	 2.9164417966	 0.091454
H	 1.9943098238	 0.5682053884	 1.6455249702	 0.108398
69.1873	98.3457	141.9531	269.581	278.1178	319.4333	396.8331	405.4537	462.11	536.0811	567.1128	690.3771	740.5525	803.1358	857.7128	870.4577	910.1747	950.1332	971.2583	977.3686	1013.6452	1065.4092	1072.2982	1081.9222	1106.257	1159.0081	1210.4917	1218.0402	1255.6707	1274.6801	1301.5732	1345.25	1350.8192	1372.5351	1379.2813	1381.0461	1425.9911	1464.1217	1474.8068	1490.5887	1497.7335	1724.1168	2359.2871	2992.9197	2997.822	3012.6957	3026.305	3039.1644	3044.735	3063.1333	3076.5505	3080.2166	3144.1962	3166.6489
N#CCC1CCCC=C1	N#CC[C@H]1CCCC=C1	
InChI=1S/C8H11N/c9-7-6-8-4-2-1-3-5-8/h2,4,8H,1,3,5-6H2	InChI=1S/C8H11N/c9-7-6-8-4-2-1-3-5-8/h2,4,8H,1,3,5-6H2/t8-/m1/s1
