19
gdb 5844	3.1651	1.46539	1.29213	2.6648	68.82	-0.2321	0.0374	0.2695	1059.1315	0.162916	-402.242891	-402.232929	-402.231985	-402.27746	35.608	
C	 0.0293270438	 1.4528773957	 0.1323876476	-0.332188
N	-0.1000962737	 0.0144547234	 0.2271975761	-0.309063
C	-1.2323280696	-0.644903075	-0.1214846049	 0.36341
O	-2.2564724338	-0.1047947653	-0.5096935068	-0.402323
C	-1.1301203221	-2.1886265726	-0.0195230712	 0.25352
C	-2.3585945324	-2.7222743276	 0.7202144378	-0.427177
C	-1.0419508718	-2.7470168466	-1.4433629009	-0.388176
O	 0.0801398252	-2.587880645	 0.6433203858	-0.466681
H	 0.7925574795	 1.7402405792	-0.6000315855	 0.125288
H	-0.9363879066	 1.8464088585	-0.1886180654	 0.167562
H	 0.2933326283	 1.893982633	 1.1000343054	 0.122524
H	 0.6844326088	-0.5627984582	 0.4874815595	 0.252085
H	-3.2687126279	-2.3620047254	 0.2384410107	 0.153931
H	-2.3526734105	-3.8160127784	 0.7252608407	 0.117384
H	-2.3739203711	-2.3664218367	 1.7580242312	 0.108043
H	-0.1142057685	-2.4190766572	-1.9211085285	 0.121825
H	-1.0493735243	-3.8402241595	-1.4188951802	 0.117418
H	-1.8864093249	-2.3894292297	-2.0359379351	 0.141322
H	-0.0913377782	-2.5894952026	 1.5910939035	 0.281296
56.8088	91.7397	133.3098	211.1768	214.5304	250.0541	264.5931	302.997	318.374	352.294	366.6924	430.847	514.0347	591.8164	655.7153	770.7079	807.192	877.8539	942.2625	971.2017	1016.729	1069.2835	1116.3186	1154.7355	1174.8272	1197.5816	1228.2841	1277.3945	1354.9682	1391.3194	1406.5242	1438.7641	1477.5598	1483.3949	1493.2574	1495.8444	1499.9996	1507.2669	1564.0637	1769.9171	3025.3826	3028.4145	3047.0235	3076.2667	3099.3678	3118.359	3140.8474	3147.1098	3148.5584	3628.2847	3810.2246
CNC(=O)C(C)(C)O	CNC(=O)C(C)(C)O	
InChI=1S/C5H11NO2/c1-5(2,8)4(7)6-3/h8H,1-3H3,(H,6,7)	InChI=1S/C5H11NO2/c1-5(2,8)4(7)6-3/h8H,1-3H3,(H,6,7)
