12
gdb 130523	4.13932	1.70174	1.20596	1.9525	68.57	-0.2796	-0.0807	0.1988	905.8907	0.080548	-431.690173	-431.684379	-431.683435	-431.720273	22.672	
O	-0.0639906784	 1.3143423069	 0.0100356908	-0.264229
N	 1.3706943411	 1.7712936905	-0.0023806998	 0.003589
N	 2.1000271937	 0.7738061882	-0.0137773	-0.167787
C	 1.3526646118	-0.3954348327	-0.0129345717	 0.175089
C	 0.0094144113	-0.0073923068	 0.0022118737	 0.425715
C	-0.9910798613	-0.9761390214	 0.0068856023	-0.281592
C	-0.5345570294	-2.2882836475	-0.0044971118	 0.037051
N	 0.7585458758	-2.6774529107	-0.0191446495	-0.277625
C	 1.7016548378	-1.7441477501	-0.0234658467	-0.055347
H	-2.0451558107	-0.7326572845	 0.0185041677	 0.133128
H	-1.2585898084	-3.0985828733	-0.0016525974	 0.129337
H	 2.7393827365	-2.0644716888	-0.0351447476	 0.142673
224.6096	259.0231	364.256	421.1477	499.4999	557.9456	604.0897	640.2244	670.4159	812.0929	813.2282	853.3219	909.6289	963.9206	979.3655	998.7741	1047.7174	1210.8844	1221.7477	1302.0322	1336.0096	1348.1811	1453.5624	1489.972	1541.5237	1619.0573	1640.0304	3170.43	3179.1163	3224.8626
O1N=NC2=C1C=CN=C2	o1nnc2c1ccnc2	
InChI=1S/C5H3N3O/c1-2-6-3-4-5(1)9-8-7-4/h1-3H	InChI=1S/C5H3N3O/c1-2-6-3-4-5(1)9-8-7-4/h1-3H
