17
gdb 85513	3.07247	1.12996	0.94472	2.4843	69.46	-0.2446	-0.0276	0.2171	1224.3681	0.134222	-458.999105	-458.990349	-458.989405	-459.033455	31.807	
O	-0.2518503662	 1.5505513401	 0.5088700335	-0.438789
C	-0.0607840617	 0.1940749588	 0.1195910004	 0.085956
C	 0.7297307609	-0.5830272971	 1.1751959587	-0.348683
C	-0.3069684934	-0.9431138528	 2.2486079107	 0.414876
O	-0.0682231312	-1.3299904684	 3.3602149695	-0.303231
C	-1.704746128	-0.7354277629	 1.6486466614	-0.346373
C	-1.4638828811	-0.4747378063	 0.1505971351	-0.094507
C	-2.5309382457	 0.3813395663	-0.5019544657	 0.163403
O	-3.0615000053	 0.1145480081	-1.5492224359	-0.25787
H	 0.6090982359	 1.9771049133	 0.5605864887	 0.292611
H	 0.3821536953	 0.1334638724	-0.8819425606	 0.087306
H	 1.1235790319	-1.5190769468	 0.7578188431	 0.136252
H	 1.5737582645	-0.0325218106	 1.5993773327	 0.124403
H	-2.3532691239	-1.5875086421	 1.8623709274	 0.139928
H	-2.1464809141	 0.1431353777	 2.1353274826	 0.148425
H	-1.4089056292	-1.4135673657	-0.4082666615	 0.101725
H	-2.8003644987	 1.2943204762	 0.06977726	 0.094568
53.2472	69.4542	108.9919	245.1207	286.7077	291.6373	360.8468	413.3065	455.1842	474.2894	503.2395	627.1126	700.4631	791.202	820.8369	846.7285	936.438	952.1041	995.5191	1030.1415	1063.7743	1098.0225	1142.3488	1171.5974	1184.6235	1233.934	1251.6456	1267.2023	1301.8608	1331.2766	1359.9014	1407.442	1425.2109	1437.1251	1446.718	1829.6271	1856.1372	2913.1003	3026.1265	3040.4509	3045.1331	3076.5296	3102.2193	3117.034	3824.8615
OC1CC(=O)CC1C=O	O[C@H]1CC(=O)C[C@H]1C=O	
InChI=1S/C6H8O3/c7-3-4-1-5(8)2-6(4)9/h3-4,6,9H,1-2H2	InChI=1S/C6H8O3/c7-3-4-1-5(8)2-6(4)9/h3-4,6,9H,1-2H2/t4-,6-/m0/s1
