15
gdb 123601	4.19912	1.65059	1.4259	4.7192	70.2	-0.2543	-0.0021	0.2522	889.1308	0.116357	-416.723484	-416.717762	-416.716818	-416.753439	23.923	
C	-0.0297559731	 1.5099833979	-0.0653274498	-0.179026
C	 1.5312032794	 1.3694470336	 0.0188027363	-0.20848
C	 1.1503713042	 0.160516894	 0.9444813779	-0.179025
N	-0.0795315922	-0.0306119806	 0.0302277442	-0.218344
C	 0.6490543972	-0.3060868026	-1.1894369771	 0.444535
N	 0.5517351128	-1.1324910449	-2.1803301467	-0.284203
O	 1.6526277441	-0.7784249738	-2.9932937726	-0.187984
C	 2.342794898	 0.255087458	-2.4188616919	-0.156377
C	 1.7496253534	 0.6003884614	-1.2641888592	 0.227212
H	-0.4859169342	 1.9414484988	 0.8282611505	 0.122514
H	-0.4725080261	 1.9230563203	-0.9731716934	 0.128755
H	 2.1961689032	 2.1760667892	 0.3196122543	 0.088982
H	 1.8208128246	-0.6993381671	 0.9891672391	 0.128755
H	 0.8158819075	 0.4528595617	 1.9421782733	 0.122518
H	 3.2021287412	 0.5869774939	-2.9795552249	 0.150167
179.6674	303.4531	457.557	504.1454	566.7964	578.6599	676.2627	711.8411	767.7169	818.3071	827.2669	827.3973	844.6577	865.6309	907.9017	958.6282	996.3515	1025.8227	1033.5591	1065.5478	1092.759	1116.7366	1174.0282	1194.7249	1234.317	1238.0289	1267.7421	1292.2737	1374.9963	1492.7369	1525.7312	1606.9358	1700.5178	3069.0577	3075.705	3142.5029	3144.785	3146.9402	3267.135
C1C2CN1C1=NOC=C21	C1[C@H]2CN1c1nocc21	
InChI=1S/C6H6N2O/c1-4-2-8(1)6-5(4)3-9-7-6/h3-4H,1-2H2	InChI=1S/C6H6N2O/c1-4-2-8(1)6-5(4)3-9-7-6/h3-4H,1-2H2
