20
gdb 109110	2.78635	1.29486	0.96502	3.5353	82.51	-0.2031	0.0046	0.2078	1266.4854	0.170603	-403.207535	-403.198119	-403.197175	-403.241821	34.482	
C	 0.0441242304	 1.5659017174	 0.0682594996	-0.375135
C	-0.0005779922	 0.0292535872	-0.0290569751	-0.295037
C	-1.3887562632	-0.5321590243	-0.0467094022	 0.356226
C	-2.1049847064	-0.9569557935	-1.0971153027	-0.228436
C	-3.4658054969	-1.3885343382	-0.6302488289	-0.388665
C	-3.4066599766	-1.1623694582	 0.8840286982	 0.397876
O	-4.2587173825	-1.3892422881	 1.7157823017	-0.385769
N	-2.1481163926	-0.6383925359	 1.1452821759	-0.131556
C	-1.6963096699	-0.379471274	 2.4944008845	-0.36091
H	 1.0790665407	 1.9207009215	 0.0561332297	 0.119169
H	-0.4844675139	 2.0182130425	-0.775760954	 0.127766
H	-0.4235359879	 1.9303073585	 0.9875066604	 0.126179
H	 0.4970670382	-0.2875410185	-0.950895716	 0.117506
H	 0.5718487479	-0.4073486072	 0.7985025007	 0.110363
H	-1.7597170361	-0.9737439226	-2.1199739781	 0.098508
H	-4.2889559443	-0.8008634367	-1.0544235728	 0.141952
H	-3.6994893636	-2.440569183	-0.831584527	 0.14188
H	-2.5279098631	-0.6319469236	 3.1549620527	 0.169123
H	-0.8316398913	-0.998888101	 2.7583044138	 0.129042
H	-1.4312320065	 0.6725272378	 2.6428332697	 0.129917
82.1764	103.6275	143.3726	188.7867	191.6729	198.3917	292.5301	321.9197	346.7927	525.8001	541.3234	573.8409	665.9983	700.3016	711.9479	728.6896	800.0812	929.7935	950.9511	973.7206	986.6469	1071.875	1082.7876	1096.7194	1144.652	1154.0713	1169.8972	1246.6241	1268.3604	1286.6042	1330.521	1360.1477	1399.0954	1415.6615	1438.2912	1456.613	1482.145	1494.352	1499.8144	1508.9612	1511.8765	1700.4531	1814.2499	3026.3016	3035.8319	3040.3017	3042.5231	3070.4272	3079.5929	3082.0634	3114.4186	3119.8823	3140.5728	3242.1758
CCC1=CCC(=O)N1C	CCC1=CCC(=O)N1C	
InChI=1S/C7H11NO/c1-3-6-4-5-7(9)8(6)2/h4H,3,5H2,1-2H3	InChI=1S/C7H11NO/c1-3-6-4-5-7(9)8(6)2/h4H,3,5H2,1-2H3
