17
gdb 33010	5.26357	0.95675	0.81785	2.2053	78.29	-0.2534	-0.025	0.2284	1383.8242	0.137911	-418.072077	-418.064067	-418.063123	-418.105321	29.187	
C	 0.0205879794	 1.5131273162	 0.078740812	-0.391699
C	-0.0048256614	-0.0002574951	-0.0154537172	-0.040902
O	 0.6825058061	-0.5098927747	 1.1433558503	-0.27071
C	 0.7845020313	-1.8354858445	 1.2758093845	 0.467386
N	 0.2620137306	-2.6399826198	 0.3562354395	-0.345202
C	 0.4111169512	-3.9523762389	 0.5695783433	 0.070731
N	 1.0187132332	-4.5423507307	 1.5906477872	-0.267004
C	 1.5379346088	-3.7039597151	 2.5056981229	 0.028742
C	 1.4538912161	-2.3312190687	 2.4054427339	-0.232882
H	 1.0483744699	 1.8863790723	 0.092548173	 0.130588
H	-0.4923922078	 1.9452459354	-0.7854939002	 0.123745
H	-0.4830221509	 1.8565455579	 0.9866416555	 0.130577
H	-1.0261341227	-0.3936845301	-0.0286967548	 0.122987
H	 0.4959244024	-0.3637671688	-0.9183264013	 0.122939
H	-0.0187249766	-4.6062897626	-0.1862995501	 0.118478
H	 2.0410446058	-4.1657514553	 3.3519349412	 0.118068
H	 1.8731753746	-1.6605769276	 3.1441941904	 0.114158
59.6401	110.5001	162.1702	217.4825	264.328	341.3851	394.7985	445.5942	569.4171	636.6444	686.0459	804.2257	810.3596	849.2874	865.3798	949.4703	988.3819	1002.7251	1022.3666	1060.0846	1081.2805	1128.1952	1180.9674	1201.3617	1269.9412	1289.1626	1343.5962	1350.825	1390.0047	1415.2739	1433.1708	1485.7786	1495.6004	1504.8422	1525.6999	1599.9652	1626.9626	3047.2621	3050.1858	3088.8065	3122.3519	3127.4391	3157.364	3161.5514	3218.2229
CCOC1=NC=NC=C1	CCOc1ncncc1	
InChI=1S/C6H8N2O/c1-2-9-6-3-4-7-5-8-6/h3-5H,2H2,1H3	InChI=1S/C6H8N2O/c1-2-9-6-3-4-7-5-8-6/h3-5H,2H2,1H3
