14
gdb 24477	4.0243	1.66865	1.17955	3.1049	79.68	-0.212	-0.0557	0.1563	954.6738	0.105051	-399.600442	-399.594514	-399.59357	-399.630596	24.112	
O	-0.032432086	 1.3389912408	 0.0098816213	-0.172946
C	 1.1123786636	 2.0654696767	 0.002472689	 0.0514
C	 2.3465014172	 1.5052844756	-0.0128469782	-0.259326
C	 2.4405502636	 0.0925211624	-0.0214949357	 0.299095
N	 3.4985178668	-0.6942291257	-0.0362815262	-0.358837
C	 2.9774117997	-1.9815946115	-0.0381335832	-0.029655
C	 1.6028770434	-2.0426522673	-0.0248556206	-0.311219
C	 1.1859072554	-0.6766088765	-0.0132299243	 0.193482
C	 0.0091617383	-0.0037150146	 0.0021384902	-0.042641
H	 0.8990785721	 3.1247312866	 0.0103774551	 0.14595
H	 3.2270315641	 2.1358733054	-0.0181467841	 0.128629
H	 3.6592687856	-2.8233095684	-0.0494950169	 0.10502
H	 0.9778823722	-2.9220956481	-0.0234728484	 0.101311
H	-0.9861163659	-0.4306149454	 0.009684872	 0.149737
210.6583	246.8034	404.6351	413.1411	554.2706	565.0649	606.5666	614.6835	745.1406	775.3698	777.967	825.7412	873.6277	893.3878	901.8018	934.098	943.7449	994.4749	1078.0983	1135.2265	1153.2391	1207.1827	1254.2768	1344.8946	1370.1964	1391.3512	1439.3016	1477.0139	1558.1002	1615.92	1662.1464	3211.5009	3213.6159	3215.5492	3247.6669	3255.4845
O1C=CC2=NC=CC2=C1	o1ccc2nccc2c1	
InChI=1S/C7H5NO/c1-3-8-7-2-4-9-5-6(1)7/h1-5H	InChI=1S/C7H5NO/c1-3-8-7-2-4-9-5-6(1)7/h1-5H
