17
gdb 125061	3.00307	1.39876	1.03734	3.1576	76.38	-0.2336	0.0017	0.2353	1152.5588	0.137296	-414.161977	-414.153792	-414.152847	-414.195785	29.791	
C	-0.249650136	 1.5322656185	 0.0806111807	-0.51274
C	-0.0289551782	 0.0621489955	 0.0091523845	 0.249426
C	 0.2137820239	-0.776480928	-1.0587163516	 0.282643
N	 0.3467208394	-2.0552644893	-0.6010191914	-0.260493
N	 0.2008877873	-2.0659129615	 0.6919981624	-0.124421
N	-0.0259939293	-0.7903171182	 1.0659564627	-0.231114
N	 0.3099778557	-0.3814519054	-2.4054009058	-0.195644
C	 1.2638555394	-1.121320876	-3.2501138314	-0.220548
C	-0.1948809096	-1.3284174668	-3.4150713085	-0.220579
H	 0.5064779829	 2.0315231192	 0.6969441776	 0.136711
H	-0.1904647396	 1.9388568227	-0.9309349953	 0.164908
H	-1.2338341256	 1.7801557082	 0.4939116384	 0.136804
H	-0.1665815915	-0.5855602326	 2.0424492061	 0.277032
H	 1.8156390246	-0.5081081067	-3.9566116052	 0.116691
H	 1.8251616038	-1.9193365568	-2.7736623307	 0.142385
H	-0.6053368216	-2.2643963159	-3.0484683715	 0.142228
H	-0.7254200556	-0.868911297	-4.2439347508	 0.116712
31.7571	124.4075	170.005	187.4063	250.2181	271.9688	456.9035	496.7319	564.2861	593.733	705.2687	706.9402	769.1755	826.6509	850.8908	922.8623	986.5095	1026.4114	1045.6347	1069.074	1084.8875	1114.0238	1136.8303	1167.4516	1184.5442	1185.3955	1238.2918	1292.0605	1351.7238	1374.2867	1417.2277	1476.8825	1479.0549	1488.9672	1505.5376	1513.2573	1641.9038	3030.9782	3082.631	3114.1768	3117.0138	3135.9293	3203.6782	3217.9737	3654.2412
CC1=C(N=NN1)N1CC1	Cc1c(nn[nH]1)N1CC1	
InChI=1S/C5H8N4/c1-4-5(7-8-6-4)9-2-3-9/h2-3H2,1H3,(H,6,7,8)	InChI=1S/C5H8N4/c1-4-5(7-8-6-4)9-2-3-9/h2-3H2,1H3,(H,6,7,8)
