15
gdb 27676	2.83564	1.28621	0.88973	5.5668	78.19	-0.2081	-0.0084	0.1997	1225.9108	0.113108	-416.870126	-416.861485	-416.860541	-416.903446	31.466	
C	 0.000798894	 1.5264814262	 0.0447188902	-0.51609
C	 0.0335145996	 0.0308963765	 0.027947578	 0.224701
C	-0.0025380636	-0.7719146464	-1.1025606025	 0.123542
N	 0.0475918719	-2.1016347977	-0.6827023954	-0.373479
C	 0.1127900083	-2.129201692	 0.6693381756	 0.402184
O	 0.1686126174	-3.3346998679	 1.2710258171	-0.425441
C	 0.106715004	-0.8346065424	 1.1525030583	-0.379655
C	-0.0753412006	-0.424310957	-2.462623368	 0.195871
N	-0.135544606	-0.1394329116	-3.5869718507	-0.367641
H	 0.8968006218	 1.9384365305	 0.5222327344	 0.134496
H	-0.0560393221	 1.9292179126	-0.9694650558	 0.147238
H	-0.8638682456	 1.8989879477	 0.6052083319	 0.134513
H	 0.0362813606	-2.9116916836	-1.2787765096	 0.282466
H	 0.211254085	-3.2043029486	 2.2235550957	 0.315618
H	 0.1499172553	-0.5427848466	 2.1907008907	 0.101676
100.4459	135.9427	138.189	204.9752	273.2793	280.4855	320.7243	422.5469	456.7787	516.593	547.872	575.256	628.979	667.6301	687.0898	752.342	795.7373	1002.0821	1044.4704	1061.0708	1149.7815	1173.6491	1202.6562	1248.8666	1353.8428	1416.8615	1450.5116	1482.9538	1488.8258	1528.6974	1579.0158	1633.0071	2319.6261	3032.5131	3083.8004	3122.5253	3244.5728	3680.113	3844.4171
CC1=C(NC(O)=C1)C#N	Cc1c([nH]c(O)c1)C#N	
InChI=1S/C6H6N2O/c1-4-2-6(9)8-5(4)3-7/h2,8-9H,1H3	InChI=1S/C6H6N2O/c1-4-2-6(9)8-5(4)3-7/h2,8-9H,1H3
