18
gdb 92063	2.84633	1.62467	1.12951	2.6727	73.68	-0.2483	0.0209	0.2693	1081.8306	0.147899	-439.075093	-439.067124	-439.066179	-439.107653	30.852	
C	-0.1420529599	 1.527909594	-0.0594354601	-0.393626
C	 0.1407050748	 0.0379934308	 0.0127810192	 0.020755
O	 0.994055705	-0.3069764503	-1.0855806698	-0.257634
C	 1.1816423912	-1.6846616807	-1.1630236001	 0.070168
C	 2.5728225531	-2.2012974966	-0.8997349642	-0.329691
C	 1.4959110113	-2.3478984151	 0.1437259283	 0.065428
O	 1.5624364554	-1.5179567892	 1.2807110255	-0.249833
C	 0.8058866032	-0.3767022755	 1.3175891912	 0.405703
N	 0.6894654791	 0.3028506476	 2.375983649	-0.516893
H	 0.7921042102	 2.0914225795	-0.0020749643	 0.134069
H	-0.6400129752	 1.7596977394	-1.0042414668	 0.117594
H	-0.7756163574	 1.8297360837	 0.7748764066	 0.146768
H	-0.80326349	-0.5239315528	-0.0804727105	 0.094156
H	 0.5427995942	-2.1947356197	-1.8832076482	 0.0973
H	 2.905904973	-3.0910504316	-1.4217547952	 0.121888
H	 3.3319581433	-1.4512805855	-0.7108024024	 0.139688
H	 1.0998185155	-3.3304892824	 0.3786175381	 0.111872
H	 1.1915365032	-0.1482411356	 3.1438931238	 0.222287
74.962	138.7471	205.2781	280.808	309.5369	357.1264	428.7791	465.4455	483.7186	520.0725	659.811	733.7619	783.4871	811.7361	826.575	889.2381	912.3163	922.8301	1019.3784	1044.3301	1056.0101	1065.4886	1082.6535	1120.1792	1130.6031	1164.0378	1165.782	1188.7436	1252.4522	1285.3074	1340.2176	1361.9778	1395.0428	1403.6137	1407.8231	1467.8499	1480.3086	1492.5832	1758.3881	2967.8923	3060.5857	3106.5248	3134.5279	3143.6046	3158.7517	3159.7064	3240.4506	3461.2919
CC1OC2CC2OC1=N	C[C@H]1O[C@H]2C[C@H]2O[C]1[NH]	
InChI=1S/C6H9NO2/c1-3-6(7)9-5-2-4(5)8-3/h3-5,7H,2H2,1H3	InChI=1S/C6H9NO2/c1-3-6(7)9-5-2-4(5)8-3/h3-5,7H,2H2,1H3/t3-,4+,5-/m1/s1
