23
gdb 62923	2.54655	1.57864	1.46696	1.432	84.37	-0.2405	0.078	0.3185	1065.457	0.20736	-388.283384	-388.274845	-388.273901	-388.31602	34.401	
C	-0.0935620115	 1.487649947	 0.1171388225	-0.454891
C	-0.0267207052	-0.0399763232	-0.0029678055	 0.35487
C	-1.4346978338	-0.5701191114	-0.2798253559	-0.475437
C	 1.1542526186	-0.5177948035	-0.9184548715	-0.069233
C	 2.0940357184	-0.4128133799	 0.3135662982	-0.242617
C	 0.8147061248	-0.6951120343	 1.1476535606	-0.069235
C	 0.5994016582	-2.2063854524	 1.1620184395	-0.072875
O	 0.9065671884	-2.8219016774	-0.0883413768	-0.278523
C	 0.9959592253	-1.9992862664	-1.2510628933	-0.072879
H	 0.8786344828	 1.9449345355	 0.3162079269	 0.113275
H	-0.4831039109	 1.9288196551	-0.8077057963	 0.110899
H	-0.7687520545	 1.7797048993	 0.929870874	 0.110898
H	-1.8321442079	-0.1356072133	-1.2047457991	 0.110352
H	-1.478891694	-1.6563505403	-0.3804408333	 0.131632
H	-2.1170236256	-0.2846709867	 0.5296162917	 0.110355
H	 1.3766123318	 0.0598908043	-1.8211505598	 0.05756
H	 2.9012319505	-1.1465650784	 0.38324887	 0.100388
H	 2.5007146765	 0.5862520801	 0.466145212	 0.099573
H	 0.7228560477	-0.2815144512	 2.1568736305	 0.05756
H	 1.2627619728	-2.669600843	 1.9044776343	 0.098028
H	-0.4341454136	-2.4460140063	 1.4530041663	 0.091137
H	 0.1153823675	-2.1590352183	-1.890892657	 0.091137
H	 1.8732336938	-2.3507838556	-1.810259368	 0.098027
75.3421	193.7767	224.3596	239.2465	275.1382	340.5236	376.7992	402.058	416.4594	457.6415	563.9684	601.9036	691.4243	814.6688	817.5361	855.9346	873.0968	911.1002	956.0452	965.7267	967.8301	988.806	1010.0847	1024.8722	1067.4041	1077.1247	1092.1552	1158.3672	1181.8312	1191.4251	1216.1406	1230.6528	1247.1476	1256.2491	1280.0542	1309.0106	1314.1444	1345.0556	1383.9932	1402.6625	1418.8653	1428.5039	1485.2672	1488.5975	1498.4866	1507.6392	1510.4155	1528.209	1532.8036	2985.7304	2992.5542	3024.8183	3026.4223	3029.1	3030.5716	3057.7614	3058.4616	3073.4513	3079.735	3085.7962	3113.9799	3128.2249	3137.5628
CC1(C)C2CC1COC2	CC1(C)[C@H]2C[C@@H]1COC2	
InChI=1S/C8H14O/c1-8(2)6-3-7(8)5-9-4-6/h6-7H,3-5H2,1-2H3	InChI=1S/C8H14O/c1-8(2)6-3-7(8)5-9-4-6/h6-7H,3-5H2,1-2H3/t6-,7+
