12
gdb 12309	3.12302	2.37023	1.42102	4.4649	51.03	-0.266	-0.0916	0.1744	798.1861	0.083844	-455.642499	-455.635841	-455.634897	-455.674024	23.57	
O	-0.0458759775	 0.1415816821	 0.609116636	-0.247355
C	-0.0420370518	 1.2342937924	 0.1149452454	 0.233726
C	-1.3127649006	 1.9426022074	-0.3402961575	-0.190672
O	-1.0249773169	 3.1156868669	-1.0812934096	-0.212246
C	-0.1144312011	 3.9147126894	-0.4104563744	 0.005286
O	 1.1940220119	 3.3248700825	-0.3646952018	-0.21684
C	 1.2968402808	 2.0047435099	-0.0804890349	 0.343716
O	 2.3579656211	 1.4637305567	-0.0014173015	-0.284665
H	-1.8950772341	 1.2745647828	-0.9792677485	 0.164953
H	-1.915879166	 2.1722100483	 0.5536519366	 0.140852
H	 0.002470314	 4.8430954456	-0.9688564238	 0.150566
H	-0.4399876099	 4.123737996	 0.621042814	 0.112678
62.7584	124.2793	330.4653	345.7419	386.4567	459.4119	486.2034	558.6265	645.7506	689.2397	774.7935	993.8497	997.7529	1029.7119	1061.3742	1139.1244	1182.3715	1241.0126	1257.5734	1315.7644	1361.1028	1444.2286	1460.241	1522.6208	1845.3762	1864.0917	2981.4124	2985.4409	3113.0752	3143.2373
O=C1COCOC1=O	O=C1COCOC1=O	
InChI=1S/C4H4O4/c5-3-1-7-2-8-4(3)6/h1-2H2	InChI=1S/C4H4O4/c5-3-1-7-2-8-4(3)6/h1-2H2
