19
gdb 52952	3.17805	0.9741	0.8486	2.0395	88.05	-0.2256	0.0305	0.2561	1455.5311	0.156563	-385.843938	-385.834267	-385.833323	-385.879481	34.86	
C	 0.0066521285	 1.4817897451	-0.1163405172	-0.512414
C	-0.0275931142	 0.0304564238	-0.0292470443	 0.289398
C	-0.0590124251	-1.1732493304	 0.0302428926	-0.187533
C	-0.0643257128	-2.5899928502	 0.147554669	 0.219977
C	 0.796173503	-3.4809139361	 1.0642040089	-0.314392
C	-0.3675247218	-4.5291305952	 1.0692267893	-0.282422
C	-1.1684914866	-3.591715377	 0.1474898683	 0.316558
C	-2.648139079	-3.4449935199	 0.016201145	-0.495753
O	-0.3628600373	-3.3937956553	-1.0183642153	-0.322712
H	 0.9551233259	 1.8787333455	 0.2620187126	 0.15191
H	-0.1020427241	 1.8158741258	-1.1540698071	 0.155003
H	-0.8014052121	 1.9380003093	 0.4664764531	 0.149739
H	 1.745269588	-3.7953681397	 0.6250675513	 0.111274
H	 0.9722458025	-3.0373644438	 2.0461622484	 0.112934
H	-0.1493927523	-5.5109844956	 0.6425528251	 0.108842
H	-0.8172206894	-4.6514760124	 2.0576687383	 0.104491
H	-3.119991194	-3.3693902266	 1.0009820828	 0.123842
H	-2.8887647431	-2.5486254933	-0.5610678395	 0.140392
H	-3.078228836	-4.3118355041	-0.4986734114	 0.130866
30.8457	79.9994	100.5585	187.7437	209.9217	229.6675	308.7858	328.0282	386.6408	433.3433	506.8588	533.7996	561.244	666.3738	724.5664	775.5198	863.9933	907.6664	934.4527	973.6018	996.4241	1050.2642	1052.0337	1058.4205	1087.5279	1156.6351	1208.6846	1211.5705	1220.2074	1248.6319	1314.0547	1404.6856	1413.788	1455.1644	1464.9217	1475.2317	1477.1334	1480.3694	1487.7282	1504.6809	2364.6203	3026.6082	3033.6738	3063.2621	3073.8864	3086.7182	3090.3089	3096.5228	3115.8935	3124.5183	3135.5453
CC#CC12CCC1(C)O2	CC#C[C@@]12CC[C@]1(C)O2	
InChI=1S/C8H10O/c1-3-4-8-6-5-7(8,2)9-8/h5-6H2,1-2H3	InChI=1S/C8H10O/c1-3-4-8-6-5-7(8,2)9-8/h5-6H2,1-2H3/t7-,8+/m0/s1
