21
gdb 101604	2.82254	0.94012	0.82798	1.4568	76.48	-0.2516	0.0125	0.2641	1499.8787	0.179104	-461.390515	-461.379472	-461.378527	-461.427817	37.879	
C	 0.3035077143	 0.7300615813	-0.7109826011	-0.240836
O	-0.3319676838	 0.0766796503	 0.3650657818	-0.250035
C	 0.5334797951	-0.535974298	 1.3080794323	 0.136992
C	-0.3371100831	-0.8945101701	 2.5074245613	-0.399451
C	 1.2389968685	-1.7803419009	 0.7283642226	-0.322609
C	 2.4815124754	-1.4578472942	-0.0748146301	 0.427725
O	 3.2988288811	-0.6199746977	 0.2189276039	-0.363731
O	 2.5865269968	-2.2498099965	-1.1621345988	-0.22935
C	 3.7641836587	-2.0484554934	-1.954868267	-0.240851
H	 0.7444056864	 0.0234712646	-1.4302235507	 0.109469
H	-0.465178495	 1.3081176386	-1.2307931487	 0.122558
H	 1.0957227449	 1.4105923058	-0.3674000624	 0.118067
H	 1.3137266481	 0.1784982222	 1.6121475917	 0.092563
H	-1.0896829442	-1.6391404407	 2.2286164472	 0.122854
H	 0.2702323662	-1.3001622313	 3.3217206284	 0.113924
H	-0.8573891986	-0.0037824939	 2.8676535504	 0.125379
H	 1.5751600456	-2.4105429214	 1.5608752722	 0.134014
H	 0.5381630356	-2.3702935186	 0.1330199305	 0.12848
H	 3.801989775	-1.0248879829	-2.3360682737	 0.140308
H	 4.6640939958	-2.2344047281	-1.3632453325	 0.140949
H	 3.6932367374	-2.7603124153	-2.7772673374	 0.133579
35.5942	67.3711	104.4696	112.9284	139.615	193.8303	219.0666	231.3322	276.266	302.5276	323.5046	394.1118	471.9943	497.5968	607.9877	726.8818	840.296	892.6315	905.3506	930.3004	1027.5268	1073.0529	1111.5326	1135.8935	1155.6113	1178.7904	1179.9232	1187.4746	1210.4953	1244.396	1253.547	1320.2648	1381.7945	1389.6743	1410.5842	1450.9787	1472.3956	1478.6897	1481.2179	1483.144	1493.4429	1496.9543	1503.1171	1511.8221	1811.5533	2982.5937	2996.0499	3035.2032	3041.0062	3046.1175	3052.0002	3106.9869	3111.2629	3116.1352	3126.3804	3127.1625	3159.2917
COC(C)CC(=O)OC	CO[C@@H](C)CC(=O)OC	
InChI=1S/C6H12O3/c1-5(8-2)4-6(7)9-3/h5H,4H2,1-3H3	InChI=1S/C6H12O3/c1-5(8-2)4-6(7)9-3/h5H,4H2,1-3H3/t5-/m0/s1
