19
gdb 121097	4.68299	0.81957	0.75884	0.9683	74.07	-0.2225	0.0578	0.2803	1529.6979	0.159882	-456.356689	-456.347317	-456.346373	-456.391907	33.37	
C	-0.1024722898	 1.4229131312	-0.8411439484	-0.225165
O	-0.1954563816	 0.0192907558	-0.8696802389	-0.238034
C	 0.8579681293	-0.6195530153	-0.1790755859	-0.057413
C	 0.6499408622	-2.1275658289	-0.2947359799	-0.013524
C	 0.748337868	-2.6396135557	-1.7584768864	-0.115713
O	 1.935918372	-3.4646539469	-1.7611650066	-0.254466
C	 2.3453940879	-3.5080179589	-0.4657822145	 0.468134
N	 3.4775577186	-4.2504617027	-0.2722994377	-0.574668
N	 1.7045415492	-2.8511669685	 0.4215738181	-0.362451
H	-0.1395656626	 1.813731357	 0.1879758494	 0.10544
H	 0.8287496262	 1.7812071862	-1.3082536978	 0.103689
H	-0.9533172162	 1.8205646756	-1.4001698551	 0.125142
H	 1.8349392234	-0.3422548418	-0.6118147339	 0.085068
H	 0.8728298256	-0.3286204248	 0.8826823922	 0.09923
H	-0.3315582118	-2.3594759053	 0.1346665963	 0.085945
H	-0.1011678831	-3.2600306462	-2.0574024651	 0.114174
H	 0.8772004935	-1.8365077156	-2.4877676866	 0.124235
H	 3.6217174621	-4.9986193722	-0.9323366768	 0.262498
H	 3.650791887	-4.491229793	 0.6907934378	 0.267877
41.5252	88.0259	102.9102	139.9455	219.5647	242.5813	327.9655	347.5967	401.9963	462.0466	485.0349	544.8619	708.5526	740.1913	769.6002	859.0972	938.0976	944.2324	983.9567	1032.667	1038.0714	1092.8076	1143.1662	1166.6194	1179.6327	1186.9645	1217.6925	1227.5579	1255.2465	1282.5716	1331.9757	1375.5854	1412.6378	1436.5879	1480.4227	1484.2992	1503.5106	1522.5778	1529.1495	1617.9846	1750.7222	2954.6023	2971.87	3003.0653	3014.1004	3036.5311	3060.6302	3110.7971	3112.2797	3592.8594	3707.0186
COCC1COC(N)=N1	COC[C@H]1COC(=N1)N	
InChI=1S/C5H10N2O2/c1-8-2-4-3-9-5(6)7-4/h4H,2-3H2,1H3,(H2,6,7)	InChI=1S/C5H10N2O2/c1-8-2-4-3-9-5(6)7-4/h4H,2-3H2,1H3,(H2,6,7)/t4-/m0/s1
