26
gdb 10356	2.25334	1.4872	1.03113	0.0313	88.22	-0.2927	0.0768	0.3695	1305.7176	0.245257	-315.486843	-315.476007	-315.475062	-315.522367	40.147	
C	 0.2442811203	 1.5569146158	 0.341424666	-0.392799
C	-0.0079789619	 0.0675425314	 0.0772010817	-0.1802
C	 0.5895244131	-0.4750754272	-1.240960966	 0.054709
C	 2.1029427409	-0.1741276148	-1.3606239693	-0.201239
C	 2.9998437513	-0.8450860651	-0.3123603252	-0.37743
C	 0.24623801	-1.9771756989	-1.4513945072	 0.047338
C	-1.2712154521	-2.2305651039	-1.4787220446	-0.395929
C	 0.8709823693	-2.5489230624	-2.735249863	-0.400273
H	 1.3000700728	 1.7746650568	 0.5273154843	 0.118599
H	-0.0761030366	 2.1705233695	-0.5086008771	 0.11185
H	-0.3163231788	 1.8924780328	 1.2198429027	 0.108496
H	 0.3725758563	-0.5216598606	 0.9222446342	 0.092441
H	-1.0901732475	-0.0933442401	 0.0668277721	 0.096243
H	 0.1028372478	 0.0744331332	-2.0631042439	 0.059069
H	 2.4460438467	-0.4584760379	-2.3605132811	 0.093829
H	 2.246379018	 0.9106900435	-1.3072206931	 0.093012
H	 2.9337058803	-1.9368463684	-0.3556747422	 0.116525
H	 4.0482544907	-0.5741924705	-0.4727315922	 0.109872
H	 2.7362511543	-0.5407078302	 0.7056395733	 0.116188
H	 0.6576302408	-2.5403919287	-0.601343546	 0.069964
H	-1.7544816115	-1.6312968941	-2.2604465833	 0.108714
H	-1.4797729542	-3.2832749706	-1.6963400396	 0.106162
H	-1.7562125151	-1.9945380194	-0.5288041073	 0.11429
H	 0.5503569916	-3.5846348671	-2.8885724984	 0.106105
H	 0.5566990876	-1.9741627184	-3.6153242379	 0.109356
H	 1.9634980957	-2.5469407845	-2.708745457	 0.115109
61.0073	79.9615	110.0376	182.474	210.9762	223.6195	238.5117	249.2644	285.3786	342.6382	380.7947	389.5245	437.9867	460.0314	559.6129	736.3727	782.6477	822.6822	861.1269	911.4102	929.5781	943.7895	968.6868	1016.647	1025.8436	1036.4888	1054.1885	1097.6211	1154.7552	1179.591	1188.1866	1193.5439	1278.4286	1294.6951	1306.4928	1346.8309	1356.5552	1365.7355	1389.2118	1392.7381	1401.5726	1412.9776	1418.1928	1423.6724	1484.0175	1487.2301	1492.9158	1497.7741	1502.0951	1503.7338	1506.3298	1509.1625	1514.9692	1527.4413	2968.4465	3002.6944	3023.4284	3024.4034	3029.793	3031.2592	3038.8842	3046.8267	3069.9719	3071.8529	3085.499	3092.8556	3094.5807	3101.7992	3105.4953	3109.2099	3112.702	3117.9857
CCC(CC)C(C)C	CCC(CC)C(C)C	
InChI=1S/C8H18/c1-5-8(6-2)7(3)4/h7-8H,5-6H2,1-4H3	InChI=1S/C8H18/c1-5-8(6-2)7(3)4/h7-8H,5-6H2,1-4H3
