18
gdb 66576	3.30979	1.90071	1.57581	1.1957	82.05	-0.1987	-0.041	0.1577	900.3069	0.147752	-364.666867	-364.659935	-364.658991	-364.697555	29.001	
C	-0.1473568028	 1.4661017045	 0.0472635768	-0.513052
C	-0.1788916015	-0.0245550619	-0.047915797	 0.281446
C	 0.5150239392	-0.9643492226	-0.9899500647	-0.168841
C	 1.1489541806	-0.9292129896	 0.366946172	-0.056523
N	 0.7295366793	-2.30139716	 0.746680722	-0.117659
C	-0.16365331	-2.4868287928	 1.9562545251	-0.197343
C	-1.2658353973	-1.4370329014	 1.7490856162	-0.139848
C	-1.1483623303	-1.0648124993	 0.4589647667	-0.012138
C	-0.2919158298	-2.1082407689	-0.3262428858	-0.051489
H	 0.8420421066	 1.8518070435	-0.222694045	 0.122349
H	-0.8761515958	 1.9258237918	-0.6298778261	 0.128824
H	-0.3760702808	 1.8046418175	 1.0641004469	 0.125519
H	 0.9257102582	-0.852173667	-1.9842779232	 0.094654
H	 2.0474963967	-0.4439591372	 0.7286398282	 0.095627
H	-0.4588132791	-3.5431224053	 1.9554645274	 0.118361
H	 0.3571117367	-2.2906048487	 2.9002282644	 0.114898
H	-1.5427713227	-0.7591679127	 2.5511011884	 0.096113
H	-0.7289183472	-2.9799003198	-0.8123839422	 0.079103
196.0689	214.1788	255.8546	327.6246	385.4398	469.3425	529.082	585.8295	622.4794	717.0129	771.4656	781.3958	827.2616	856.6807	857.273	890.6148	896.6375	910.7259	918.06	982.2186	998.1299	1022.2682	1064.9353	1073.1788	1128.7522	1137.2377	1165.1646	1177.8219	1211.4301	1233.9687	1267.5467	1280.0302	1292.8437	1387.5822	1421.006	1465.4527	1478.668	1498.2273	1573.5605	3022.3827	3028.435	3076.9739	3082.8778	3092.3697	3121.8477	3164.4861	3188.2057	3205.014
CC12C3C1N1CC=C2C31	C[C@@]12[C@H]3[C@@H]1N1C[CH][C]2[C@@H]31	
InChI=1S/C8H9N/c1-8-4-2-3-9-6(4)5(8)7(8)9/h2,5-7H,3H2,1H3	InChI=1S/C8H9N/c1-8-4-2-3-9-6(4)5(8)7(8)9/h2,5-7H,3H2,1H3/t5-,6+,7+,8-/m1/s1
