20
gdb 111928	3.98399	1.19826	1.11427	1.0644	86.21	-0.2091	-0.0345	0.1745	1179.3405	0.171293	-365.891135	-365.883301	-365.882357	-365.923424	31.188	
C	-0.0072592372	 1.5678509571	 0.1036417838	-0.381674
C	 0.0774514703	 0.0408830182	 0.0380977354	-0.191285
C	 0.7063015726	-0.4772727882	-1.2634620513	-0.01622
C	 2.2214198006	-0.2816992661	-1.2727575117	-0.11883
C	 2.8207623308	-1.3951435376	-1.7494881984	 0.00316
C	 3.1498416051	-2.4457102629	-0.6886341988	-0.165447
N	 1.7625044049	-3.0278284944	-1.0094879611	-0.154841
C	 0.6752572999	-2.0099643343	-1.4726176416	-0.037342
C	 1.7965532336	-2.3703238423	-2.3422823325	-0.089246
H	 0.9834604974	 2.0284882079	 0.0304018251	 0.122429
H	-0.6147686916	 1.9630342702	-0.7179956024	 0.116636
H	-0.4594306076	 1.89907555	 1.0433301898	 0.114959
H	 0.6470402254	-0.3432844953	 0.893673518	 0.101829
H	-0.9294479885	-0.3864214183	 0.125598235	 0.100289
H	 0.153684943	-0.0350100589	-2.1078893707	 0.084872
H	 2.6764915568	 0.2883149261	-0.4653204195	 0.093394
H	 3.8652989826	-3.2317939756	-0.9493419324	 0.116226
H	 3.3117883635	-2.0989104526	 0.335799134	 0.10927
H	-0.2751303472	-2.5365670673	-1.5091069374	 0.097041
H	 1.8174513656	-2.9175864156	-3.2779702133	 0.094779
96.951	125.6419	191.1279	246.9799	348.727	375.7035	455.6835	507.4775	572.6008	670.9308	723.0593	740.8122	777.1719	809.7109	858.8794	881.8629	892.9205	918.2604	964.7067	989.3374	1012.4388	1020.8443	1045.0803	1063.7723	1070.2972	1115.2551	1120.9734	1134.2738	1185.6749	1237.2093	1242.0164	1262.836	1276.3786	1306.1056	1325.6547	1362.3899	1370.6805	1413.5996	1486.4985	1498.578	1505.2466	1506.8905	1573.268	2969.5545	3022.901	3033.3105	3041.8987	3055.5322	3100.3239	3106.0078	3106.354	3142.8921	3152.0475	3173.7512
CCC1C=C2CN3C1C23	CC[C@H]1[CH][C]2CN3[C@@H]1[C@@H]23	
InChI=1S/C8H11N/c1-2-5-3-6-4-9-7(5)8(6)9/h3,5,7-8H,2,4H2,1H3	InChI=1S/C8H11N/c1-2-5-3-6-4-9-7(5)8(6)9/h3,5,7-8H,2,4H2,1H3/t5-,7-,8+,9?/m0/s1
