17
gdb 72600	2.24143	1.6463	1.42612	2.4003	68.89	-0.2366	-0.025	0.2115	1000.4233	0.133843	-458.951968	-458.94331	-458.942366	-458.985195	32.734	
O	 0.0611924918	 1.413114183	 0.044897467	-0.473469
C	 0.0011723969	 0.0267167323	-0.0029681649	 0.341389
C	 0.6061625586	-0.8447754107	 1.1112784513	-0.287041
C	-0.5971387967	-1.8260486342	 0.9948251293	-0.284391
C	-1.3779668508	-0.85148356	 0.0652716679	 0.253557
O	-2.6189760571	-0.467767484	 0.5412219896	-0.476631
C	-1.2080766964	-1.0622818322	-1.4218152134	 0.322504
O	-2.0272700202	-1.2480443628	-2.2819435915	-0.324261
C	 0.2316721428	-0.5144780235	-1.4393734717	-0.382562
H	-0.3566635123	 1.7025160604	 0.8638078908	 0.287924
H	 1.6078141505	-1.2432202486	 0.9287332472	 0.106186
H	 0.6095306315	-0.325314511	 2.0745667628	 0.102702
H	-0.3752823651	-2.8048525651	 0.5638877348	 0.115369
H	-1.1470604209	-1.9720197176	 1.9257258617	 0.129803
H	-3.1727512128	-0.2628866272	-0.2233425897	 0.297573
H	 0.3618273698	 0.2794641448	-2.1780511557	 0.146874
H	 1.0268605205	-1.2550709134	-1.5540615257	 0.124474
74.3612	124.7293	149.15	228.6653	305.6601	330.188	358.137	385.3983	438.6066	484.7409	558.8668	618.4117	631.9514	701.0994	752.0143	836.331	853.1595	886.7978	947.848	994.9814	1021.7643	1050.9796	1086.2865	1109.079	1134.2161	1196.9161	1216.1228	1236.0191	1250.5571	1308.9284	1333.0268	1369.942	1388.8306	1434.6603	1470.3961	1491.8749	1855.452	3050.5345	3070.3122	3074.256	3100.8859	3132.4388	3135.0681	3769.3364	3801.3871
OC12CCC1(O)C(=O)C2	O[C@@]12CC[C@]1(O)C(=O)C2	
InChI=1S/C6H8O3/c7-4-3-5(8)1-2-6(4,5)9/h8-9H,1-3H2	InChI=1S/C6H8O3/c7-4-3-5(8)1-2-6(4,5)9/h8-9H,1-3H2/t5-,6+/m1/s1
