20
gdb 11833	3.31926	1.7433	1.38399	1.6365	75.04	-0.2214	0.0848	0.3061	988.6198	0.175625	-348.981089	-348.972564	-348.97162	-349.014265	32.314	
C	 0.2763540805	 1.5099587787	-0.2240313684	-0.401744
C	-0.0113273146	 0.0530427676	 0.0795754934	 0.1484
O	 0.6520712516	-0.8401481432	-0.8551361763	-0.32661
C	 1.272203747	-1.5544807345	 0.2122417005	 0.473778
C	 1.4270872693	-3.0384881429	 0.1738719509	-0.337612
C	 2.6450764054	-2.1260982787	 0.0750131001	-0.335762
C	 0.6751590883	-0.6497269699	 1.2909317713	-0.149409
C	 1.6431857729	 0.142286646	 2.1599840889	-0.406424
H	 1.3491211362	 1.7188691909	-0.2155105724	 0.122027
H	-0.1090314399	 1.7609819103	-1.2172951053	 0.126723
H	-0.2155352841	 2.1631883289	 0.5050560776	 0.113551
H	-1.0955267676	-0.1215538962	 0.0565155293	 0.074111
H	 1.2748263535	-3.6045088368	 1.0878417581	 0.109593
H	 1.1091377457	-3.5433192214	-0.7322025556	 0.121404
H	 3.1209076138	-2.033344627	-0.8955571657	 0.121949
H	 3.3236095842	-2.0707404636	 0.920428212	 0.111302
H	-0.049210017	-1.1696508943	 1.9249189862	 0.07787
H	 2.4114658195	 0.6419658801	 1.5636842243	 0.124477
H	 1.1177196348	 0.9028717885	 2.7470955052	 0.115959
H	 2.1541590505	-0.5213449926	 2.8660206859	 0.116417
33.7439	195.9663	207.6604	213.2882	235.0686	260.4216	352.2331	394.235	440.4885	523.7911	590.8216	753.9481	770.3669	778.4159	865.5156	876.1886	909.5148	939.1198	978.5983	1002.9086	1039.4096	1051.9615	1065.4684	1080.7544	1091.523	1157.5838	1165.8422	1186.8145	1228.4099	1256.9315	1322.1078	1344.2611	1380.6709	1399.9798	1410.8919	1418.6102	1447.4697	1478.0839	1488.1763	1498.6053	1499.9315	1507.3282	3004.2522	3033.285	3038.0024	3058.1114	3095.1883	3105.1172	3112.5273	3122.8015	3123.6802	3126.6865	3206.5305	3220.9983
CC1OC2(CC2)C1C	C[C@H]1OC2(CC2)[C@H]1C	
InChI=1S/C7H12O/c1-5-6(2)8-7(5)3-4-7/h5-6H,3-4H2,1-2H3	InChI=1S/C7H12O/c1-5-6(2)8-7(5)3-4-7/h5-6H,3-4H2,1-2H3/t5-,6+/m0/s1
