20
gdb 82247	2.38732	1.96862	1.41249	1.1103	76.58	-0.2213	0.0611	0.2824	983.9232	0.173477	-403.106337	-403.098843	-403.097898	-403.138026	30.598	
O	 0.3951032446	 1.1554618002	-0.5347748163	-0.426537
C	 0.0963319154	-0.1534925447	-0.0623840531	 0.08042
C	 0.6491501283	-0.4671866316	 1.332613495	-0.063321
C	 0.2164060757	 0.4260871095	 2.4339493464	-0.25172
N	-0.4255675662	-0.8833157679	 2.2562685584	-0.102547
C	-1.6962538663	-0.8977294848	 1.4980411698	 0.008722
C	-2.7182736267	 0.2404968857	 1.7676116339	-0.230445
C	-2.311806653	 0.9164706617	 0.4247245731	-0.23466
C	-1.4329918727	-0.3232452885	 0.0750465859	-0.022819
H	 1.3519901511	 1.2553881315	-0.5471427763	 0.284005
H	 0.4877707531	-0.897698719	-0.7716047755	 0.066298
H	 1.5850544811	-1.017371233	 1.4003075595	 0.082345
H	 0.815601343	 0.5092509558	 3.3367211845	 0.112418
H	-0.3129720531	 1.334455889	 2.1641391382	 0.125501
H	-2.0967467813	-1.912556553	 1.559418672	 0.074885
H	-3.7496263322	-0.1200412302	 1.7735416202	 0.100785
H	-2.5549387485	 0.8145312714	 2.6826122629	 0.105031
H	-3.133696641	 1.1013893026	-0.2700377078	 0.0973
H	-1.7398394695	 1.8402774144	 0.5224727084	 0.122263
H	-1.8390939418	-0.9151155291	-0.7467988291	 0.072077
101.2043	209.2108	248.0802	259.4883	300.4552	431.7899	479.7661	526.1329	631.5846	696.489	713.9459	731.4102	777.0241	823.3637	862.0378	882.0602	905.0836	957.2977	974.4805	995.4047	1026.8887	1048.937	1064.0187	1105.6685	1111.233	1122.2329	1140.8711	1164.9159	1201.7055	1220.6905	1240.2192	1255.4634	1268.6708	1280.1038	1284.2739	1320.689	1340.5043	1353.9295	1390.9972	1413.9403	1479.9495	1494.6905	1519.8316	2983.8739	3062.2468	3069.7251	3074.8413	3091.6917	3110.8433	3114.074	3128.7091	3132.6855	3199.5501	3822.5737
OC1C2CN2C2CCC12	O[C@H]1[C@H]2CN2[C@H]2CC[C@@H]12	
InChI=1S/C7H11NO/c9-7-4-1-2-5(4)8-3-6(7)8/h4-7,9H,1-3H2	InChI=1S/C7H11NO/c9-7-4-1-2-5(4)8-3-6(7)8/h4-7,9H,1-3H2/t4-,5+,6-,7-,8?/m1/s1
