15
gdb 50955	1.896	1.35668	0.86578	5.7573	73.12	-0.268	0.0022	0.2702	1286.9416	0.11067	-416.806202	-416.796708	-416.795764	-416.841666	32.807	
O	-0.0307150864	 0.1786311536	-0.8497432862	-0.307065
C	-0.0032746601	 1.2428610432	-0.276123663	 0.170966
N	 1.1244202702	 1.8246729136	 0.2358189689	-0.276055
C	 2.4153135737	 1.1568209999	 0.1909902424	-0.170266
C	 3.458555348	 1.966446572	-0.6325431213	-0.345539
C	 3.0091828143	 2.2504852917	-1.9922238517	 0.267471
N	 2.6556352176	 2.4847652278	-3.0665594659	-0.297052
C	 2.9447999449	 0.9039186806	 1.531144829	 0.300951
C	 3.399794129	 0.7352601539	 2.6300025271	-0.407321
H	-0.8981659477	 1.8709003471	-0.1092184647	 0.093116
H	 1.0330190592	 2.6651110648	 0.785441156	 0.257482
H	 2.2216673385	 0.2085092015	-0.3212826161	 0.172973
H	 3.6726680592	 2.9117161034	-0.1222535372	 0.157752
H	 4.3970074523	 1.4043944888	-0.6679856292	 0.171427
H	 3.790419567	 0.561013538	 3.602713492	 0.211158
43.6629	70.4608	111.3181	145.9253	190.9784	229.8671	287.8744	379.676	394.468	496.5649	513.1686	528.4551	567.2882	651.5847	675.0247	758.9732	866.9186	947.2222	1008.4669	1027.7152	1044.5767	1071.6742	1182.0429	1237.7611	1296.0512	1345.9374	1362.0629	1425.6474	1460.9986	1514.1292	1810.4082	2241.274	2368.2188	2963.5828	3054.4865	3073.7445	3100.8844	3499.7748	3629.8066
O=CNC(CC#N)C#C	O=CN[C@@H](CC#N)C#C	
InChI=1S/C6H6N2O/c1-2-6(3-4-7)8-5-9/h1,5-6H,3H2,(H,8,9)	InChI=1S/C6H6N2O/c1-2-6(3-4-7)8-5-9/h1,5-6H,3H2,(H,8,9)/t6-/m1/s1
