18
gdb 9008	6.23853	0.82148	0.75374	0.8882	83.44	-0.2454	0.0456	0.291	1510.3962	0.150376	-310.619753	-310.609724	-310.60878	-310.655643	34.743	
C	 0.0487973693	 1.4960949695	 0.0154757653	-0.498087
C	 0.0382151534	 0.0402507703	-0.0198224786	 0.091179
C	 0.0447930781	-1.1639117434	-0.0493719086	 0.040278
C	 0.0282544883	-2.6217438265	-0.0724296364	-0.351261
C	-1.4105766287	-3.2186304329	-0.0261280263	-0.151523
C	-2.2432689544	-2.8060897169	-1.2536538469	-0.3841
C	-1.3414683198	-4.6723317657	 0.1052606338	 0.322097
C	-1.2649645826	-5.8688578065	 0.1958448795	-0.465256
H	 0.873601886	 1.872848639	 0.630513725	 0.148345
H	 0.1641211887	 1.9199726362	-0.9882670307	 0.147195
H	-0.8826649866	 1.8910916337	 0.436027852	 0.147216
H	 0.5300008017	-2.9938331599	-0.9746930943	 0.132879
H	 0.5967080525	-3.0155893283	 0.7778589751	 0.135631
H	-1.8978437918	-2.8143519498	 0.8705964178	 0.114806
H	-1.79623237	-3.2005339935	-2.1715163296	 0.123146
H	-3.261748102	-3.1950935997	-1.1786480048	 0.124087
H	-2.2846494962	-1.7164110083	-1.3268313823	 0.129577
H	-1.2093508859	-6.9253854973	 0.2855660503	 0.193791
32.277	56.3829	83.7307	164.1975	210.7586	219.8604	251.1851	289.4158	351.3955	388.6035	471.8575	517.7066	534.8383	626.53	641.7277	774.2933	823.6997	890.2263	925.4762	1052.6151	1053.1623	1064.4166	1094.6307	1130.2146	1168.0177	1239.5102	1291.729	1334.6515	1361.8107	1405.876	1415.4454	1472.4392	1478.7389	1479.5539	1495.3711	1498.9038	2234.0473	2370.7712	3019.4891	3026.3864	3029.917	3044.7831	3064.2268	3086.6639	3086.9064	3118.2179	3129.7986	3505.1659
CC#CCC(C)C#C	CC#CC[C@@H](C)C#C	
InChI=1S/C8H10/c1-4-6-7-8(3)5-2/h2,8H,7H2,1,3H3	InChI=1S/C8H10/c1-4-6-7-8(3)5-2/h2,8H,7H2,1,3H3/t8-/m0/s1
