18
gdb 98558	3.77212	1.07767	0.92065	4.1585	73.75	-0.2592	-0.032	0.2271	1274.7511	0.147334	-439.058789	-439.050297	-439.049353	-439.092339	31.705	
O	-0.5478710676	 1.5265061391	 0.6771827782	-0.424349
C	-0.7756074973	 0.1681388105	 0.913871554	-0.13523
C	-0.9006194524	-0.5933537056	-0.3984094522	 0.258278
O	-0.7117886478	-0.009175997	-1.450186741	-0.345769
C	-1.2531744569	-2.0266388546	-0.3664955776	 0.254509
C	-1.3026894835	-2.968177444	-1.5782902722	-0.30329
C	-2.5726227607	-3.652226129	-0.9746758143	-0.239794
C	-2.4973960398	-2.6934916691	 0.221254033	-0.07326
N	-1.2251803747	-2.7535394305	 0.9025274621	-0.351581
H	-0.4519713718	 1.5999237295	-0.2863141666	 0.291046
H	 0.0411323906	-0.2947007194	 1.4910723445	 0.124397
H	-1.6863143277	 0.0146266755	 1.5119677339	 0.118632
H	-1.5120128592	-2.4304615779	-2.5032718071	 0.13906
H	-0.4141068287	-3.5904329465	-1.7213797469	 0.105279
H	-3.4602212575	-3.5001111978	-1.5915519402	 0.122514
H	-2.4999605882	-4.7143358517	-0.720176391	 0.10845
H	-3.3293015821	-2.2300796058	 0.7397200376	 0.11474
H	-0.7624063145	-3.6569548259	 0.8154505259	 0.23637
71.0701	99.3484	155.9264	177.5227	299.6558	322.5772	365.6143	435.6454	482.9196	499.933	574.084	750.9455	778.1285	787.3728	795.3374	880.4732	934.2832	948.9129	994.8064	1009.8709	1051.7989	1062.8951	1091.5112	1126.0239	1147.9787	1162.4399	1213.1229	1228.8078	1235.8431	1256.3843	1295.2091	1300.1623	1326.1422	1429.8217	1458.1317	1479.3951	1482.9464	1497.9972	1765.9514	2986.3436	3010.5045	3054.0126	3063.0921	3116.5791	3140.8978	3181.3169	3465.0181	3677.2702
OCC(=O)C12CCC1N2	OCC(=O)[C@]12CC[C@H]1N2	
InChI=1S/C6H9NO2/c8-3-5(9)6-2-1-4(6)7-6/h4,7-8H,1-3H2	InChI=1S/C6H9NO2/c8-3-5(9)6-2-1-4(6)7-6/h4,7-8H,1-3H2/t4-,6+/m1/s1
