23
gdb 121927	2.57827	0.91661	0.71498	2.3037	83.15	-0.2556	0.0809	0.3365	1639.8331	0.203919	-425.404046	-425.39351	-425.392566	-425.440848	38.216	
C	 0.1455741072	 1.3637923728	 0.2178011434	-0.403837
C	-0.0424761307	-0.1454257776	 0.041136679	 0.129186
O	-1.4233024992	-0.5044162855	 0.0320891333	-0.275285
C	-2.0870983212	-0.4566111228	 1.2825810353	-0.079424
C	-3.3775629714	-1.245826206	 1.1095661468	-0.054664
O	-3.1129179806	-2.5714269653	 0.6990676392	-0.423625
C	 0.5487174903	-0.6422491435	-1.2559999247	 0.027988
C	 2.002469595	-1.0354187039	-1.3182321347	-0.270345
C	 0.9286917185	-2.0912541731	-1.406395669	-0.276341
H	 1.2091095992	 1.6181906986	 0.1858257191	 0.121352
H	-0.3648149857	 1.90404711	-0.5859730572	 0.122612
H	-0.2553580496	 1.7124013275	 1.173843107	 0.115982
H	 0.4522519607	-0.6707424766	 0.8766442956	 0.061055
H	-1.4635882616	-0.9257800496	 2.0604570187	 0.091825
H	-2.3069973056	 0.576552366	 1.5925176022	 0.088927
H	-3.9132872949	-1.2957083776	 2.0634309153	 0.104618
H	-4.0231725401	-0.7211766409	 0.3866593027	 0.091061
H	-2.4806749053	-2.4871509223	-0.0255800178	 0.287643
H	 0.1388858807	-0.1543156788	-2.1364804095	 0.086898
H	 2.5633705052	-0.7888420507	-2.2126533012	 0.113594
H	 2.5846749735	-0.9815939433	-0.4036742162	 0.111491
H	 0.7873570664	-2.7417360118	-0.5492622252	 0.115308
H	 0.754452519	-2.5729588656	-2.3618800021	 0.113982
40.5871	50.4899	89.6816	145.6539	169.3705	217.3222	233.5198	284.7886	311.9918	413.6109	432.4363	471.6417	496.4849	562.5086	767.4301	824.7541	827.5	840.8804	909.8557	922.672	947.6154	965.4168	1000.2844	1056.1935	1077.5439	1081.1475	1086.1017	1111.0089	1133.5167	1139.9779	1151.5981	1196.817	1220.2653	1226.2935	1247.8845	1260.9866	1317.168	1356.9861	1385.9579	1400.2891	1408.1789	1434.5205	1443.5859	1471.1252	1489.4164	1494.4155	1501.056	1506.5017	1512.5521	2950.2535	2970.9661	2975.523	3013.9203	3039.8105	3076.0227	3112.9361	3115.4948	3129.4535	3133.9262	3143.5061	3207.6235	3222.6252	3780.6324
CC(OCCO)C1CC1	C[C@@H](OCCO)C1CC1	
InChI=1S/C7H14O2/c1-6(7-2-3-7)9-5-4-8/h6-8H,2-5H2,1H3	InChI=1S/C7H14O2/c1-6(7-2-3-7)9-5-4-8/h6-8H,2-5H2,1H3/t6-/m1/s1
