14
gdb 20598	3.38404	1.88804	1.26151	3.0132	60.04	-0.2608	-0.0371	0.2237	909.7723	0.106256	-415.837391	-415.829677	-415.828733	-415.869954	27.113	
C	 0.2845475346	 1.4647380967	 0.0047632024	-0.503881
C	 0.1091440544	-0.0144870404	-0.0718068785	 0.171749
C	-0.0116512924	-0.8619459481	-1.1352357578	 0.282841
C	 0.000829337	-0.6686574693	-2.62354918	-0.174769
O	 0.8212117803	 0.4094199108	-3.033042847	-0.39481
O	-0.1643049886	-2.1068350427	-0.6747501314	-0.215907
N	-0.1396935758	-2.0174160678	 0.7539031034	-0.016882
N	 0.0214550479	-0.809319882	 1.0548084857	-0.160534
H	 1.1451090385	 1.7226974922	 0.6297975061	 0.143366
H	 0.4366589885	 1.8759552258	-0.9938425339	 0.151348
H	-0.5948500766	 1.9415163776	 0.4503257082	 0.144892
H	 0.2865206174	-1.6174748547	-3.0984158272	 0.130482
H	-1.0078049048	-0.425188475	-2.975741129	 0.148069
H	 1.7309843296	 0.197334267	-2.7977312711	 0.294034
55.7512	138.9963	177.4486	230.5324	278.2921	352.6826	366.8482	432.5278	640.9496	662.2392	697.4667	704.6474	743.3097	974.4361	992.56	1024.0797	1074.2005	1083.0944	1195.0254	1201.9331	1239.9882	1345.6846	1402.0195	1416.6871	1426.9273	1465.6765	1491.2495	1492.1723	1494.344	1649.7997	3015.1281	3044.5093	3069.2781	3098.5986	3150.81	3811.0396
CC1=C(CO)ON=N1	Cc1c(CO)onn1	
InChI=1S/C4H6N2O2/c1-3-4(2-7)8-6-5-3/h7H,2H2,1H3	InChI=1S/C4H6N2O2/c1-3-4(2-7)8-6-5-3/h7H,2H2,1H3
