18
gdb 114299	2.16725	1.53036	1.15997	2.4508	77.64	-0.2369	0.0221	0.259	1120.7011	0.146801	-401.852893	-401.844195	-401.843251	-401.886347	32.998	
O	 0.7801497868	-1.3037179057	-0.888080351	-0.422807
C	 0.201225756	-0.3700642476	 0.0104464701	-0.093221
C	-1.3120098308	-0.3847841893	-0.1116673394	 0.068581
C	-2.2532817064	 0.5933215883	 0.6406005304	-0.316692
C	-2.8726115738	 0.8765862282	-0.7276921202	-0.022884
C	-1.8841917657	 1.4773587069	-1.6539362583	-0.192055
C	-0.8638174829	 2.4032703983	-1.2463721303	 0.33945
C	-0.0534709078	 3.2467311589	-0.9629046358	-0.446921
N	-1.891018445	-0.0102640594	-1.4669314073	-0.195899
H	 0.4297064232	-1.1029169288	-1.7634594743	 0.29348
H	 0.4816136288	-0.6939485665	 1.0199230277	 0.105761
H	 0.6045362214	 0.6375011025	-0.1399851225	 0.110542
H	-1.6430612601	-1.4155853821	 0.0469390004	 0.102109
H	-2.9200615296	 0.1006760393	 1.348758226	 0.114781
H	-1.7929840733	 1.4605666309	 1.1217294849	 0.121344
H	-3.9334112827	 0.8724973074	-0.9584417175	 0.104625
H	-2.2734344923	 1.6910648083	-2.6473449187	 0.125796
H	 0.6768489042	 3.9739310105	-0.7059314043	 0.20401
70.4017	118.9355	152.0898	212.9653	237.2596	343.8794	366.8097	416.9135	436.829	559.5351	610.732	612.5023	661.8924	701.2263	755.4515	761.7541	854.3274	903.2252	953.268	967.1346	1020.3124	1052.3038	1060.3617	1071.2123	1103.9846	1132.5341	1172.7769	1221.8269	1231.4577	1265.8984	1297.752	1341.2805	1343.1697	1395.3689	1405.0165	1432.8038	1490.5022	1508.5266	2227.3975	3036.1345	3057.1571	3068.2259	3081.8775	3130.238	3131.3168	3161.3066	3500.614	3799.576
OCC1CC2C(C#C)N12	OC[C@H]1C[C@H]2[C@@H](C#C)N12	
InChI=1S/C7H9NO/c1-2-6-7-3-5(4-9)8(6)7/h1,5-7,9H,3-4H2	InChI=1S/C7H9NO/c1-2-6-7-3-5(4-9)8(6)7/h1,5-7,9H,3-4H2/t5-,6-,7+,8?/m1/s1
