17
gdb 44084	3.78121	1.43108	1.18926	3.8025	72.19	-0.2311	-0.0368	0.1943	1033.3744	0.13586	-421.784724	-421.777485	-421.776541	-421.816486	28.442	
O	 0.0926377274	 0.0271534637	 0.136937172	-0.280288
C	 0.0135141035	 1.2155695389	 0.0600336263	 0.40057
C	-1.1674664892	 2.2201201664	 0.041668916	-0.476955
C	-0.1381939155	 3.3507672506	 0.172508849	 0.308848
C	-0.0774841065	 4.8164968276	-0.2661903654	-0.346337
C	 0.8881339936	 5.0992348212	 0.9351531505	-0.236866
C	 0.6083099604	 3.6735124253	 1.4934528646	 0.076496
O	 1.656291717	 2.7061983104	 1.2474590454	-0.300233
C	 1.060968167	 2.3704878702	-0.0230169254	-0.046659
H	-1.6642559742	 2.2023010823	-0.937093227	 0.13782
H	-1.9295335293	 2.1079881398	 0.8175957784	 0.132445
H	 0.297685081	 5.0181494967	-1.2730958436	 0.106885
H	-1.0382114644	 5.3263751012	-0.1495058928	 0.112867
H	 1.9363543808	 5.2278605276	 0.6584052768	 0.121436
H	 0.5886514629	 5.9211778123	 1.5884956893	 0.109787
H	 0.1868372354	 3.5878131824	 2.4980634967	 0.084535
H	 1.7696308601	 2.3619563032	-0.8572762509	 0.095649
86.4563	161.8992	242.5075	291.624	388.7589	444.1336	468.7927	544.6855	630.7242	695.9806	749.0538	792.2026	832.248	848.7202	901.0966	910.0361	932.2427	993.3715	1019.978	1046.4837	1070.1319	1102.6008	1119.0156	1156.5463	1171.5574	1185.7665	1206.8218	1230.3323	1256.7371	1267.1204	1297.6148	1319.157	1330.9932	1435.535	1467.4715	1492.3455	1898.4411	3034.7724	3054.0326	3065.4091	3072.714	3083.8766	3099.8278	3100.8441	3134.8056
O=C1CC23CCC2OC13	O=C1C[C@@]23CC[C@@H]2O[C@@H]13	
InChI=1S/C7H8O2/c8-4-3-7-2-1-5(7)9-6(4)7/h5-6H,1-3H2	InChI=1S/C7H8O2/c8-4-3-7-2-1-5(7)9-6(4)7/h5-6H,1-3H2/t5-,6-,7-/m0/s1
