17
gdb 114649	2.91992	1.36506	1.17286	3.5147	68.47	-0.2499	-0.0156	0.2343	1096.8419	0.13547	-458.933193	-458.925255	-458.924311	-458.966028	29.616	
C	 0.0920160414	 1.3007512073	 0.1040272937	-0.238174
O	-0.1723933442	-0.0621843194	-0.1503667324	-0.246772
C	 0.5679213422	-0.6006449364	-1.216341572	 0.129765
C	 2.0522563943	-0.9875727853	-0.8609503398	-0.262927
C	 1.9220726523	-2.5097909265	-1.0161781295	-0.046862
O	 1.1410471816	-2.6213205293	-2.2565063803	-0.295522
C	 0.0337592331	-2.014482723	-1.5202320858	-0.085496
C	 0.5746070987	-2.8315017525	-0.3214434024	 0.459036
O	 0.163696147	-3.5475789362	 0.5323652909	-0.305922
H	 1.1368386509	 1.4709784231	 0.4024371009	 0.110769
H	-0.1219017218	 1.9234387637	-0.7779293155	 0.110969
H	-0.5619313419	 1.6075354324	 0.9230695089	 0.136496
H	 0.5131098646	 0.0488642473	-2.1002881353	 0.081213
H	 2.7799002499	-0.5828656672	-1.5673745327	 0.117936
H	 2.3178280816	-0.676393616	 0.1529670325	 0.122028
H	 2.8003660145	-3.1502331276	-0.9734805014	 0.106122
H	-0.9472754743	-2.1367569646	-1.9720586496	 0.107341
87.2658	116.1319	169.5832	205.0101	273.2868	405.7897	423.8633	456.7366	493.5268	631.8099	692.8719	761.1445	844.4575	873.3499	877.2343	928.4811	949.7898	1005.5821	1017.0632	1045.0991	1057.6622	1117.0242	1152.6398	1184.7652	1187.077	1211.2991	1223.7997	1237.7695	1274.4333	1310.2009	1321.2068	1376.3443	1468.5447	1483.2833	1491.3192	1508.2032	1933.1558	2982.0541	3014.1343	3032.1584	3069.13	3123.6175	3123.846	3155.339	3167.4573
COC1CC2OC1C2=O	CO[C@H]1C[C@@H]2O[C@H]1C2=O	
InChI=1S/C6H8O3/c1-8-4-2-3-5(7)6(4)9-3/h3-4,6H,2H2,1H3	InChI=1S/C6H8O3/c1-8-4-2-3-5(7)6(4)9-3/h3-4,6H,2H2,1H3/t3-,4-,6+/m0/s1
