13
gdb 7044	7.44734	0.87925	0.79029	6.6883	68.27	-0.2566	-0.0558	0.2008	1367.9699	0.093184	-398.620724	-398.611823	-398.610879	-398.65693	28.543	
C	 0.088472163	 1.4774570196	 0.0262400595	-0.505802
C	 0.0271711496	 0.0284004837	-0.0543524781	 0.165311
C	-0.0364875202	-1.1737308617	-0.1246338111	-0.075484
C	-0.168173203	-2.6158250663	-0.2235198271	 0.291174
O	-1.1919408363	-3.1782370945	-0.5182705833	-0.29246
N	 1.0418558467	-3.2711597592	 0.0660947291	-0.343296
C	 1.2937925502	-4.6407770928	 0.0715075037	 0.164694
O	 0.5109435326	-5.5148917247	-0.1736403702	-0.251042
H	 0.8228809175	 1.8771047856	-0.6811769683	 0.163741
H	-0.883506305	 1.925077559	-0.204197659	 0.169017
H	 0.3819279003	 1.8006947955	 1.0306806595	 0.163665
H	 1.8210432441	-2.6717461057	 0.2980506657	 0.263529
H	 2.3535771306	-4.8258562584	 0.3424702495	 0.086951
11.7797	52.3874	82.9493	150.2693	208.501	227.4769	309.1532	383.6604	397.7081	577.1042	624.3467	639.4594	764.2575	937.4973	980.268	1027.8522	1047.7244	1051.3362	1151.1009	1213.2686	1410.3331	1445.6343	1469.4501	1472.7875	1496.8597	1790.0632	1861.4616	2350.0292	2922.3125	3034.2716	3098.225	3103.8533	3609.7138	11.752	52.3874	82.9495	150.2691	208.5009	227.4767	309.1527	383.6589	397.708	577.1043	624.3471	639.4593	764.2578	937.4972	980.2679	1027.8517	1047.7243	1051.3362	1151.1009	1213.2683	1410.3333	1445.6336	1469.4505	1472.7879	1496.8591	1790.0627	1861.461	2350.0292	2922.3124	3034.2717	3098.225	3103.8533	3609.7141
CC#CC(=O)NC=O	CC#CC(=O)NC=O	
InChI=1S/C5H5NO2/c1-2-3-5(8)6-4-7/h4H,1H3,(H,6,7,8)	InChI=1S/C5H5NO2/c1-2-3-5(8)6-4-7/h4H,1H3,(H,6,7,8)
