19
gdb 62146	6.28066	0.5561	0.53321	2.848	79.92	-0.2504	-0.0212	0.2292	1990.0692	0.154762	-422.999322	-422.988648	-422.987704	-423.036356	37.156	
O	-0.1643693977	 1.3446747725	-0.0555800213	-0.41675
C	-0.0418998456	-0.0662538748	 0.0194486818	 0.132268
C	 0.6341079614	-0.6421826925	-1.2347219964	-0.215314
C	-0.1130261902	-0.2650723885	-2.5235041235	-0.277178
C	 0.6835502229	-0.6010652124	-3.7605463075	 0.158643
O	 0.2988170255	-1.2871621466	-4.6716309881	-0.237585
C	 0.6957750468	-0.51323248	 1.3007402449	-0.398166
C	 0.0679098051	-0.0418546204	 2.5275955133	 0.309257
C	-0.4581881464	 0.3410660778	 3.5374647793	-0.429838
H	 0.7114962023	 1.7308041743	 0.0598068776	 0.281672
H	-1.0744051472	-0.4306241466	 0.0708521372	 0.107501
H	 1.6674821596	-0.2667283198	-1.2811156699	 0.092786
H	 0.7029123937	-1.73306012	-1.1458842349	 0.113365
H	-1.0866374792	-0.7597379685	-2.5852459529	 0.121919
H	-0.2794065669	 0.8206845385	-2.5096653598	 0.13676
H	 1.7059616013	-0.1510987005	-3.7774978944	 0.06538
H	 0.7559217828	-1.608947751	 1.3112545584	 0.136519
H	 1.735323472	-0.1557513192	 1.2522276951	 0.120871
H	-0.9232238001	 0.6822316378	 4.428906671	 0.197891
43.3887	61.2291	83.4405	96.2677	134.0925	195.5227	275.1381	284.3388	344.8946	345.1246	389.9164	458.8192	530.0653	587.373	623.6223	643.1614	766.4323	838.2556	864.2357	951.7051	961.142	1011.3328	1033.6321	1073.8496	1104.9496	1124.2617	1184.6684	1193.7562	1244.3107	1288.6299	1309.0256	1356.9648	1362.6463	1384.4919	1421.5495	1431.0998	1461.5032	1467.7523	1487.6182	1837.6793	2243.2217	2837.8362	2997.4397	3001.6057	3028.7391	3043.604	3051.6806	3066.5845	3103.0847	3506.9484	3793.9064
OC(CCC=O)CC#C	O[C@@H](CCC=O)CC#C	
InChI=1S/C7H10O2/c1-2-4-7(9)5-3-6-8/h1,6-7,9H,3-5H2	InChI=1S/C7H10O2/c1-2-4-7(9)5-3-6-8/h1,6-7,9H,3-5H2/t7-/m1/s1
