23
gdb 106300	3.58616	1.1506	1.08429	1.5167	85.78	-0.2328	0.0855	0.3183	1268.4298	0.205694	-388.289089	-388.280069	-388.279125	-388.322296	35.733	
C	-0.0194230984	 1.5497027857	-0.0735349813	-0.380461
C	-0.0198928217	 0.02848662	 0.1168040282	-0.28748
C	-1.3880465066	-0.5875581249	-0.0215853119	 0.462356
C	-2.2677797261	-0.5461152603	-1.3027697906	-0.306606
C	-3.0721654046	-1.6252770674	-0.5049243297	 0.281461
C	-4.0918681631	-2.5419806896	-1.1359250623	-0.501652
C	-1.6825424108	-2.1102693829	 0.0269188731	-0.315119
C	-3.5085443768	-0.7679186445	 0.6942218266	-0.103802
O	-2.2853758686	-0.0674088323	 0.9886864761	-0.31683
H	 0.9847140517	 1.9611193972	 0.0653556652	 0.107427
H	-0.3561670806	 1.8227368299	-1.079263425	 0.113154
H	-0.6905350818	 2.0258895884	 0.6454227999	 0.13709
H	 0.6478707869	-0.4461152234	-0.6119063098	 0.094152
H	 0.3688139795	-0.2227844636	 1.1115294914	 0.105123
H	-2.7648815842	 0.3975042083	-1.5436154985	 0.093903
H	-1.7697131625	-0.9605667096	-2.1823246324	 0.093497
H	-3.6622661212	-3.0947337173	-1.9775484158	 0.117282
H	-4.4671622245	-3.2749667495	-0.4122552129	 0.117744
H	-4.9527132036	-1.9772637448	-1.5125665394	 0.117582
H	-1.1258272053	-2.6835834238	-0.7177765714	 0.093024
H	-1.6402859011	-2.5955360778	 1.0062319522	 0.092635
H	-4.3070643372	-0.0562983447	 0.446809763	 0.092501
H	-3.8234510995	-1.3653240231	 1.5595825253	 0.093019
86.5078	153.1682	189.9878	210.9984	260.2	272.6688	320.549	370.3095	424.1018	494.7047	519.7413	588.8636	615.321	683.2136	774.3846	816.047	868.2286	898.2762	916.4213	940.3349	960.082	984.6408	1003.193	1023.0308	1045.3386	1054.7813	1060.6695	1120.8918	1139.7809	1166.7377	1179.0141	1197.2681	1231.3193	1258.6643	1277.3344	1304.0179	1320.4574	1372.2585	1401.7643	1407.5367	1415.9775	1471.2245	1474.2782	1492.3002	1493.9843	1496.9532	1507.5073	1510.7128	1533.3552	3006.9127	3023.8494	3028.4508	3040.1018	3045.1	3052.7605	3060.5312	3064.5837	3085.5408	3096.4461	3104.3253	3119.2059	3125.0548	3127.3093
CCC12CC(C)(C1)CO2	CC[C@@]12C[C@@](C)(C1)CO2	
InChI=1S/C8H14O/c1-3-8-4-7(2,5-8)6-9-8/h3-6H2,1-2H3	InChI=1S/C8H14O/c1-3-8-4-7(2,5-8)6-9-8/h3-6H2,1-2H3/t7-,8+
