21
gdb 92632	3.6911	1.12888	0.95869	2.0194	77.12	-0.2494	0.0651	0.3145	1253.4148	0.185568	-424.241635	-424.233604	-424.23266	-424.274574	31.55	
O	 0.0376839459	 1.423888214	-0.1560172102	-0.434659
C	 0.0359257856	 0.0150030087	-0.0097679293	 0.141614
C	 0.6100000686	-0.4990767257	 1.3254798005	-0.273828
C	 0.0150081768	-1.9107959322	 1.4775723401	-0.012909
C	-0.4804411202	-2.327511409	 2.8780766046	-0.100283
O	-1.6967568891	-3.0279913059	 2.66668329	-0.24037
C	-2.3816011889	-2.3223312524	 1.6424414233	-0.101941
C	-1.3021393094	-1.9119089889	 0.6199839155	-0.014929
C	-1.4064582901	-0.5055734845	 0.0030629831	-0.242099
H	 0.9513703939	 1.7185205223	-0.2192795154	 0.281536
H	 0.5827523563	-0.4565131416	-0.8438783904	 0.063202
H	 1.7043247195	-0.4835323455	 1.3536424007	 0.08886
H	 0.2500637653	 0.1654742002	 2.121152719	 0.103584
H	 0.7093432269	-2.6642132671	 1.0968918377	 0.076226
H	 0.1988697692	-2.995527313	 3.4137574879	 0.106261
H	-0.6529602009	-1.4348053237	 3.5037831272	 0.083537
H	-3.151579358	-2.9855856906	 1.2402957896	 0.106956
H	-2.8771355506	-1.4269421403	 2.0556923746	 0.084312
H	-1.2362011041	-2.6708846662	-0.1638284878	 0.076446
H	-1.9957518668	 0.1623805493	 0.6438797711	 0.106696
H	-1.8644594598	-0.493692128	-0.9890466019	 0.101786
59.2758	114.9239	253.0107	263.5421	296.3097	379.4295	412.1799	459.7983	483.3409	595.3546	614.1711	676.0294	793.7317	876.7725	881.0774	938.4614	958.6004	968.0599	1016.5081	1034.9519	1040.3331	1052.3826	1077.0289	1090.5393	1116.0344	1121.689	1180.9892	1202.6884	1237.3633	1254.0376	1264.4313	1284.3989	1302.6751	1312.0764	1312.8543	1337.2953	1348.4124	1368.8822	1380.989	1398.5477	1435.3628	1487.9022	1500.7379	1507.4217	1520.7448	2951.8487	2954.7859	2958.5751	3026.9522	3035.4249	3053.9662	3067.2456	3081.6473	3091.9664	3095.3438	3103.5889	3822.105
OC1CC2COCC2C1	O[C@H]1C[C@H]2COC[C@H]2C1	
InChI=1S/C7H12O2/c8-7-1-5-3-9-4-6(5)2-7/h5-8H,1-4H2	InChI=1S/C7H12O2/c8-7-1-5-3-9-4-6(5)2-7/h5-8H,1-4H2/t5-,6+,7-
