18
gdb 70654	2.43174	1.56413	1.16519	3.2565	75.26	-0.2735	0.0309	0.3044	1086.3504	0.148916	-401.965077	-401.957015	-401.956071	-401.997508	31.478	
O	 0.1508093829	 1.2326947212	-0.2958751263	-0.47274
C	-0.0679238969	-0.1196917423	-0.0677609781	 0.414682
C	-0.6771764944	-0.9879920177	-1.1365509819	-0.355183
C	-1.4624775316	-0.6474874024	 0.1199382086	-0.085121
C	-1.4554783155	-1.6575458716	 1.2568554228	-0.227749
C	 0.0290326774	-2.0605258335	 1.4225098765	-0.248524
C	 0.8260093899	-0.8038036266	 0.9778213283	-0.19246
C	 2.1714544364	-1.0961473018	 0.487357454	 0.251088
N	 3.2284711173	-1.3133646741	 0.0719085684	-0.328049
H	 0.8986238048	 1.3206813986	-0.8983380691	 0.294754
H	-0.9791953339	-0.4655415051	-2.0372072355	 0.123009
H	-0.3150483408	-1.9977598163	-1.3007590167	 0.121312
H	-2.3028297511	 0.028697073	 0.0145278779	 0.102494
H	-1.8261961363	-1.1772947307	 2.1697351323	 0.11096
H	-2.0902809933	-2.5291502679	 1.0685039411	 0.109787
H	 0.2799427559	-2.3590229303	 2.4421995993	 0.121132
H	 0.2788726373	-2.9025646534	 0.7722523363	 0.12916
H	 0.919479592	-0.1008853791	 1.8146266921	 0.131448
103.6734	128.2316	231.9985	262.7353	330.4084	346.7133	384.4224	441.9945	507.4354	541.2232	567.8281	626.6895	710.5065	814.332	842.4924	890.5888	938.3193	945.8244	962.8264	982.4237	1033.587	1046.9816	1072.3147	1080.3409	1099.3497	1175.0442	1213.5503	1239.79	1268.0362	1284.2206	1318.5978	1335.6647	1338.888	1363.8402	1411.0889	1485.8727	1494.0047	1512.6412	2352.5881	3038.9162	3040.7313	3071.4557	3082.796	3120.4812	3132.4713	3182.6101	3221.8789	3788.2988
OC12CC1CCC2C#N	O[C@]12C[C@H]1CC[C@H]2C#N	
InChI=1S/C7H9NO/c8-4-6-2-1-5-3-7(5,6)9/h5-6,9H,1-3H2	InChI=1S/C7H9NO/c8-4-6-2-1-5-3-7(5,6)9/h5-6,9H,1-3H2/t5-,6+,7-/m1/s1
