24
gdb 123185	11.93386	0.38488	0.37808	2.9065	92.94	-0.2445	0.0283	0.2728	2946.7938	0.214674	-405.554583	-405.542814	-405.54187	-405.593801	39.861	
C	 0.0295793634	 1.5377847996	 0.0687551447	-0.381071
C	-0.0089024642	 0.0117786092	-0.0457212598	-0.164834
C	-1.4263159469	-0.5628635393	 0.0549982467	-0.165457
C	-1.4646736539	-2.0900595481	-0.0595858574	-0.196276
C	-2.8760896925	-2.6463451041	 0.0419433487	-0.076998
O	-2.8017275053	-4.0694335186	-0.0760981486	-0.205974
C	-3.9737873045	-4.7287336647	-0.0071660546	 0.13428
N	-4.0155580481	-5.9824024778	-0.1001572891	-0.205869
C	-5.3160417929	-6.6115512538	-0.0157401218	-0.313869
H	 1.0529648209	 1.9179966759	-0.0066512096	 0.113904
H	-0.5601309947	 2.009648897	-0.7251310744	 0.114012
H	-0.38042969	 1.8736172704	 1.0278060141	 0.114012
H	 0.438248177	-0.2973314073	-0.9994752336	 0.098421
H	 0.6165403921	-0.4322892602	 0.7396221027	 0.098421
H	-1.8744917797	-0.2537327841	 1.0097400153	 0.094589
H	-2.0529630493	-0.118638238	-0.7310888805	 0.094589
H	-1.0309918583	-2.4092584751	-1.0147416434	 0.112659
H	-0.8522958956	-2.5445254565	 0.7282877784	 0.11266
H	-3.3311516559	-2.3748966791	 1.005249115	 0.104372
H	-3.5117947036	-2.2381736154	-0.7568050948	 0.104371
H	-4.8549768441	-4.0812629932	 0.1333476895	 0.068446
H	-5.3279986304	-7.3240033473	 0.8173107929	 0.12629
H	-6.1502809827	-5.9037773373	 0.1246690229	 0.093032
H	-5.5068199506	-7.1885368323	-0.9280951034	 0.12629
19.9985	52.3099	68.3674	101.451	108.9193	161.4768	179.3112	206.9123	242.9202	259.1399	309.4706	325.594	422.9773	502.7393	617.2508	738.4029	773.2897	861.6493	900.3117	983.2107	988.2636	1019.1	1022.9519	1066.5424	1069.1687	1080.8271	1141.0015	1145.1405	1156.7587	1192.8476	1240.2476	1253.0331	1275.5457	1302.3621	1322.5653	1337.5533	1354.1965	1395.5969	1403.4804	1413.6308	1436.5092	1451.1947	1480.2885	1486.5517	1490.4264	1499.3192	1500.994	1505.4091	1512.6178	1523.9558	1780.9345	2961.2648	2976.6113	2994.9443	3004.3963	3019.1774	3028.5986	3029.3963	3029.7371	3037.319	3053.9632	3054.7308	3074.0524	3082.9497	3096.1789	3102.9529
CCCCCOC=NC	CCCCCOC=NC	
InChI=1S/C7H15NO/c1-3-4-5-6-9-7-8-2/h7H,3-6H2,1-2H3	InChI=1S/C7H15NO/c1-3-4-5-6-9-7-8-2/h7H,3-6H2,1-2H3
