13
gdb 25091	3.67461	1.35702	0.99104	0.8107	72.22	-0.2833	-0.0935	0.1899	1084.9661	0.090614	-452.782012	-452.774735	-452.773791	-452.815765	26.131	
N	-0.0410446828	 1.0806643006	 0.9859529582	-0.465251
C	 0.0463315581	 0.1099414481	 0.1554599776	 0.329262
C	-1.2276543821	-0.4149045551	-0.3540925056	-0.048458
C	-1.4646739607	-1.4068128615	-1.2194359718	-0.228738
C	-0.5375424534	-2.2892155989	-1.9384920533	 0.42711
O	-0.9089073736	-3.1420329464	-2.6913102798	-0.287239
O	 0.8445182626	-2.1776109209	-1.7790143666	-0.222083
C	 1.5759408705	-1.3288983624	-1.0128379081	 0.147136
N	 1.3038096152	-0.3887475427	-0.2153117777	-0.332436
H	 0.9037974316	 1.3565841258	 1.2665919189	 0.235628
H	-2.0796085184	 0.1132032154	 0.0623887967	 0.146788
H	-2.4910952853	-1.647682733	-1.4733543356	 0.145839
H	 2.6223587082	-1.579263879	-1.179488293	 0.152442
13.8446	91.3539	274.8169	328.6168	395.6869	402.2768	414.7868	564.3665	614.923	696.0903	782.0803	793.6643	829.7016	850.8123	881.4658	961.5241	994.5812	1046.2873	1056.908	1130.3057	1186.7298	1267.1219	1375.9692	1421.6977	1458.527	1653.8753	1704.717	1739.1388	1837.4065	3159.5046	3187.4586	3205.2779	3453.6243
N=C1C=CC(=O)OC=N1	[NH]C1=C[CH]C(=O)OC=N1	
InChI=1S/C5H4N2O2/c6-4-1-2-5(8)9-3-7-4/h1-3,6H	InChI=1S/C5H4N2O2/c6-4-1-2-5(8)9-3-7-4/h1-3,6H
