16
gdb 99834	1.86331	1.57194	1.24481	3.6813	67.03	-0.2595	0.0022	0.2617	1091.116	0.121449	-475.012964	-475.003259	-475.002314	-475.047312	35.93	
N	 0.0516054143	 1.2556858408	 0.0694037922	-0.517621
C	 0.0426723327	-0.0889916993	 0.1813009606	 0.396921
O	 1.036541685	-0.7741327548	 0.3445654736	-0.380447
C	-1.3523723332	-0.7839847806	 0.1237838302	 0.02344
O	-1.1156601998	-2.1741395685	 0.1824515349	-0.461024
C	-2.1946013131	-0.4113703895	 1.3764049687	-0.063042
O	-1.5406024588	-0.8289564016	 2.5447520064	-0.41666
C	-2.0654395481	-0.3908259993	-1.0950002206	 0.311052
C	-2.6820883956	-0.0255369251	-2.0605318572	-0.45128
H	 0.9426730763	 1.7242754729	 0.0345966387	 0.273519
H	-0.7620885918	 1.7444503077	-0.2643723405	 0.27246
H	-0.141431251	-2.2464971533	 0.1866343312	 0.300508
H	-2.3338197021	 0.6713881277	 1.4401161703	 0.107554
H	-3.1819855353	-0.8807752901	 1.2546350768	 0.109685
H	-1.3074098595	-1.7544857674	 2.3908970302	 0.28951
H	-3.2190263899	 0.2738233604	-2.9271960457	 0.205425
75.7026	105.9164	135.2412	149.869	234.6304	287.2825	348.072	352.3589	421.6464	458.6781	478.0506	497.5682	539.5819	569.9325	595.9178	622.7451	632.9897	677.364	712.9411	771.6982	907.9593	1061.8272	1066.6287	1097.0404	1121.1559	1150.1991	1237.1957	1351.6048	1371.3603	1426.5161	1452.3048	1495.7225	1621.4622	1797.4434	2227.1785	2999.007	3094.4798	3497.2659	3579.7176	3597.0903	3726.0056	3762.7267
NC(=O)C(O)(CO)C#C	NC(=O)[C@@](O)(CO)C#C	
InChI=1S/C5H7NO3/c1-2-5(9,3-7)4(6)8/h1,7,9H,3H2,(H2,6,8)	InChI=1S/C5H7NO3/c1-2-5(9,3-7)4(6)8/h1,7,9H,3H2,(H2,6,8)/t5-/m0/s1
