20
gdb 70095	2.43697	1.86195	1.33468	1.7758	84.23	-0.221	0.0152	0.2362	1028.5761	0.172111	-365.985886	-365.978	-365.977056	-366.01767	32.249	
C	-0.0713097469	 1.4961218132	 0.017170881	-0.504976
C	 0.030143498	-0.0100167036	-0.0077413217	 0.262893
C	-0.5498545035	-0.8160626623	 1.1318385449	-0.321228
C	 0.9557633147	-0.7862054528	 0.9174347791	-0.131632
C	 1.5021555071	-1.9068967091	 0.0983888686	-0.099182
C	 1.0050436679	-1.8966714002	-1.1416723783	-0.131833
C	 0.0929311163	-0.7358492348	-1.3493376358	 0.268896
C	-1.061657069	-0.741856024	-2.2894474818	-0.28733
N	 0.1710026697	-0.0232233868	-2.6444300747	-0.372754
H	 0.765822822	 1.9692987103	-0.5086330993	 0.126055
H	-1.003927619	 1.8482180313	-0.4427101676	 0.117235
H	-0.0634740554	 1.8668457472	 1.0463372814	 0.119943
H	-0.9494177879	-0.2550497216	 1.9715976378	 0.10457
H	-1.0701454241	-1.7434837343	 0.915739955	 0.11264
H	 1.5781962784	-0.290180646	 1.6550133677	 0.085375
H	 2.1854434162	-2.6475731667	 0.4972229005	 0.097907
H	 1.2000028232	-2.6206490531	-1.9231963293	 0.100932
H	-1.2722449041	-1.6197761198	-2.8950327172	 0.114532
H	-1.9422886575	-0.1706957127	-2.0022108111	 0.108629
H	 0.0440325037	 0.9755842555	-2.4999789892	 0.229329
124.779	214.3584	241.9067	261.9048	283.7821	375.9495	392.4465	445.0754	536.9263	585.0758	626.9969	752.5528	769.9331	802.7881	842.1606	869.0202	895.3942	909.482	944.0221	952.1325	968.2899	985.6675	1017.745	1050.6346	1056.6452	1064.9393	1081.8597	1115.6527	1118.5636	1139.7983	1216.6359	1257.4264	1263.8009	1312.3021	1349.9388	1388.8623	1403.8429	1420.126	1479.9313	1491.5477	1500.3846	1510.9457	1659.3839	3015.1394	3073.5264	3093.998	3101.0343	3117.8186	3161.4418	3179.0039	3193.8782	3208.1251	3219.5284	3502.8369
CC12CC1C=CC21CN1	C[C@]12C[C@H]1C=C[C@]12CN1	
InChI=1S/C8H11N/c1-7-4-6(7)2-3-8(7)5-9-8/h2-3,6,9H,4-5H2,1H3	InChI=1S/C8H11N/c1-7-4-6(7)2-3-8(7)5-9-8/h2-3,6,9H,4-5H2,1H3/t6-,7+,8-/m1/s1
