23
gdb 112554	2.41314	1.12653	0.97986	1.9657	81.64	-0.2503	0.0724	0.3227	1345.9073	0.20329	-425.41523	-425.404677	-425.403732	-425.45012	39.924	
C	-0.7436633274	 1.2105943148	-0.0808103672	-0.425558
C	-0.0962072556	-0.1682024009	-0.0428442819	-0.013627
C	 1.0610984835	-0.5496054341	-1.0235310261	 0.003472
C	 1.8461320745	 0.5946975036	-1.6425170608	-0.094416
O	 2.9386142655	 0.02216455	-2.3502043013	-0.42169
C	 1.7797076207	-1.2697961005	 0.152336705	-0.286108
C	 0.7959299274	-0.5983174887	 1.1616379801	 0.401846
C	 1.4109407207	 0.5220352796	 1.9947341263	-0.456383
O	 0.0695065092	-1.4858421251	 2.0007507721	-0.479717
H	-0.0138962564	 2.0220920516	 0.0024375197	 0.110204
H	-1.2954662578	 1.3575141901	-1.0156760649	 0.114651
H	-1.458332391	 1.3226962279	 0.7415571341	 0.121446
H	-0.8784216886	-0.9290580731	-0.1226628002	 0.088004
H	 0.7562047171	-1.2114905764	-1.8386718232	 0.076226
H	 1.1948805902	 1.1725160027	-2.3180704383	 0.084876
H	 2.2068650251	 1.2904170766	-0.8679994893	 0.081084
H	 3.4535144636	 0.7364984121	-2.7365206684	 0.284472
H	 1.6389929441	-2.3525483518	 0.1353814591	 0.099669
H	 2.8441061447	-1.0483725414	 0.2694525352	 0.09616
H	 1.9459328551	 1.2511642039	 1.3799761054	 0.118663
H	 0.6396558278	 1.0483871599	 2.5652780664	 0.122284
H	 2.1375743216	 0.1052718439	 2.704336576	 0.104137
H	 0.6434219159	-1.7465791348	 2.7295822522	 0.270305
79.9751	113.9374	169.6784	215.259	223.8197	233.4459	261.623	272.9082	286.9609	330.9275	343.5637	400.252	421.8027	495.4199	528.264	662.9256	735.966	829.542	851.6459	891.7719	926.9898	940.4487	975.2335	988.763	1051.3422	1071.328	1086.2272	1096.3421	1161.4744	1172.2618	1186.5503	1195.9787	1228.7728	1253.718	1258.5127	1284.0054	1310.7481	1360.6014	1370.8448	1380.5664	1405.461	1411.1484	1458.752	1476.9699	1486.8272	1488.	1501.543	1504.6347	1520.6242	2962.7704	2988.0442	3020.6239	3030.9697	3055.5426	3058.3227	3070.4595	3087.6774	3093.282	3102.2056	3115.6854	3120.042	3796.0317	3828.0365
CC1C(CO)CC1(C)O	C[C@H]1[C@@H](CO)C[C@]1(C)O	
InChI=1S/C7H14O2/c1-5-6(4-8)3-7(5,2)9/h5-6,8-9H,3-4H2,1-2H3	InChI=1S/C7H14O2/c1-5-6(4-8)3-7(5,2)9/h5-6,8-9H,3-4H2,1-2H3/t5-,6+,7-/m0/s1
