20
gdb 78549	2.71023	1.47833	1.16744	2.0335	79.46	-0.2405	0.0727	0.3132	1127.6753	0.170658	-403.090563	-403.081879	-403.080934	-403.123383	34.032	
C	 0.0235789354	 1.5789839452	-0.019208807	-0.497774
C	-0.0257076148	 0.0802565379	 0.0446995305	 0.304283
C	-1.3249633551	-0.7472708369	 0.029151196	-0.372826
C	-0.675361151	-1.7186728794	 1.0300308663	 0.375765
C	-1.3132144864	-2.5015270864	 2.1016681658	-0.328529
N	-0.6643734739	-3.1887025521	 0.9585050208	-0.379476
C	 0.5951450398	-0.9025745223	 1.0792962169	-0.244534
C	 1.1310056296	-0.808469046	-0.3188118825	 0.073978
O	 1.0101099974	-1.8594370738	-1.2354814983	-0.439378
H	 1.0392806444	 1.9504987277	 0.1515344248	 0.119535
H	-0.2995170489	 1.9404000645	-1.0031074657	 0.124752
H	-0.6300817214	 2.0357173878	 0.7329184941	 0.11638
H	-2.1740620214	-0.2051114674	 0.4552735803	 0.102967
H	-1.6051242243	-1.1672485526	-0.9418420463	 0.107066
H	-0.8104254204	-2.6313459059	 3.0567725367	 0.119945
H	-2.3989893114	-2.5083033616	 2.1590780581	 0.113315
H	-1.381003033	-3.4986480442	 0.3053478007	 0.232359
H	 1.1971531748	-0.7146589843	 1.9613272408	 0.084452
H	 2.0792147698	-0.2764806805	-0.4015856867	 0.086379
H	 1.0013534509	-2.6799478897	-0.7286455253	 0.301341
95.73	190.2641	205.8544	209.1569	264.0687	300.2151	333.9608	372.1087	393.358	495.0327	516.272	627.807	669.0373	778.6175	821.4039	850.0296	886.8108	937.8114	942.5907	956.3749	966.4148	983.2719	990.6178	1047.9366	1070.9165	1103.0084	1131.0038	1150.3974	1176.8501	1213.2939	1233.9015	1268.0776	1274.4512	1307.4891	1323.5676	1371.6542	1415.8294	1425.9181	1450.1234	1479.644	1487.6625	1499.0892	1514.8511	3019.948	3045.2748	3078.2447	3094.5595	3099.1196	3101.3197	3103.8439	3173.2567	3185.2558	3487.0733	3790.0354
CC12CC3(CN3)C1C2O	C[C@]12C[C@]3(CN3)[C@H]1[C@H]2O	
InChI=1S/C7H11NO/c1-6-2-7(3-8-7)4(6)5(6)9/h4-5,8-9H,2-3H2,1H3	InChI=1S/C7H11NO/c1-6-2-7(3-8-7)4(6)5(6)9/h4-5,8-9H,2-3H2,1H3/t4-,5+,6-,7-/m0/s1
