18
gdb 79602	2.61767	1.59495	1.15295	2.6782	76.18	-0.2399	-0.0292	0.2107	1091.5488	0.148286	-401.925078	-401.917405	-401.916461	-401.957072	30.103	
C	 0.0942833399	 1.5883167043	 0.0185110745	-0.423134
C	 0.0500333446	 0.0751405514	 0.030729467	-0.032718
C	 0.5891862992	-0.6785270314	-1.1490978319	-0.022626
C	 1.3733155105	-0.6755038391	 0.1448729251	-0.169595
C	 1.370026036	-2.1061479143	 0.627955759	 0.398818
O	 1.9971144796	-2.5481904613	 1.5571348942	-0.32249
C	 0.5947762559	-2.9324585374	-0.3828421483	-0.137443
C	-0.8544685668	-2.6634630365	-0.6193388109	-0.25246
N	 0.1574393841	-2.0542249087	-1.4802584993	-0.106525
H	 0.9613379289	 1.9555202655	-0.5396027168	 0.123291
H	-0.8057783965	 1.998988644	-0.4512390105	 0.12762
H	 0.1578377821	 1.9883340661	 1.0356274441	 0.129987
H	-0.7988891423	-0.3304292284	 0.5694864871	 0.096558
H	 0.9130801141	-0.1174949679	-2.0186171199	 0.10567
H	 2.2792482544	-0.1053292205	 0.3149699023	 0.111106
H	 1.0181650515	-3.9017375858	-0.6306929615	 0.117145
H	-1.449633142	-3.4343215559	-1.1011856181	 0.129006
H	-1.4073397332	-2.0611740741	 0.0922344539	 0.12779
140.2284	171.6594	203.01	223.336	272.6562	385.7183	457.2458	477.4208	570.9138	647.7152	716.6182	755.9214	815.4798	830.5539	864.7504	876.259	934.1701	960.3024	1008.3544	1036.6737	1055.1362	1068.9309	1081.5234	1104.9642	1127.8268	1145.4355	1153.1286	1185.7719	1207.9217	1258.4208	1286.3114	1310.3322	1347.0927	1415.3264	1416.3947	1491.334	1497.7956	1512.5069	1832.7226	3032.558	3100.0098	3103.5492	3121.762	3153.5177	3167.1535	3170.1617	3184.1683	3209.3554
CC1C2C1C(=O)C1CN21	C[C@H]1[C@H]2[C@@H]1C(=O)[C@H]1CN21	
InChI=1S/C7H9NO/c1-3-5-6(3)8-2-4(8)7(5)9/h3-6H,2H2,1H3	InChI=1S/C7H9NO/c1-3-5-6(3)8-2-4(8)7(5)9/h3-6H,2H2,1H3/t3-,4-,5-,6+,8?/m1/s1
