21
gdb 52724	3.50331	0.57074	0.51171	2.9072	90.09	-0.2448	-0.0217	0.2231	2147.9918	0.178591	-387.08448	-387.073019	-387.072075	-387.124056	38.451	
C	-0.1290924706	 1.5062182898	-0.0970748315	-0.498174
C	-0.0568944347	 0.0522946901	-0.0537743445	 0.088767
C	 0.0064136449	-1.1497390403	-0.0084636017	 0.048721
C	 0.0697259538	-2.6115304186	 0.017820541	-0.161952
C	-1.3248017388	-3.2148225969	 0.2819935999	-0.383986
C	 0.7104568274	-3.138621629	-1.289893237	-0.184218
C	 0.9820413375	-4.6530981886	-1.2869416655	-0.285796
C	 1.8119015959	-5.0650283049	-2.4820215157	 0.158272
O	 1.4955378887	-5.8978421983	-3.2912292588	-0.236564
H	 0.4826437619	 1.9595122812	 0.6908638886	 0.147381
H	 0.228400158	 1.8945866729	-1.0572176037	 0.147561
H	-1.1575685037	 1.858560085	 0.0391290684	 0.147822
H	 0.7278799878	-2.9103495045	 0.8474287039	 0.099444
H	-1.7519907014	-2.8023206359	 1.1993711776	 0.12658
H	-2.0063636757	-2.9817429432	-0.5421276278	 0.125409
H	-1.2715781979	-4.3017550677	 0.3900242458	 0.117343
H	 0.0598438455	-2.8805474811	-2.133696669	 0.118988
H	 1.6531333327	-2.6023297589	-1.4498935641	 0.110788
H	 1.5569709559	-4.9125202111	-0.3848413724	 0.116529
H	 0.062944046	-5.2437611482	-1.2878255043	 0.126495
H	 2.7801857468	-4.517087492	-2.5738666693	 0.07059
16.2592	48.0964	63.585	75.9721	106.407	147.8368	208.3741	247.0906	280.236	311.3077	325.7324	378.5835	503.5174	515.0249	552.4381	734.2963	768.4303	851.9586	877.5786	977.4956	1000.6728	1025.4933	1052.852	1053.5064	1080.8403	1117.0705	1142.3977	1184.5027	1220.4595	1258.4069	1301.1362	1333.9722	1346.0666	1380.7727	1408.5227	1415.2092	1429.7506	1464.0841	1478.8485	1479.1254	1489.8754	1494.6201	1502.7983	1836.7224	2369.0196	2847.4323	2989.5672	3003.4954	3025.8175	3033.5011	3042.4765	3072.887	3086.0402	3086.3414	3108.9932	3116.2201	3122.7598
CC#CC(C)CCC=O	CC#C[C@@H](C)CCC=O	
InChI=1S/C8H12O/c1-3-5-8(2)6-4-7-9/h7-8H,4,6H2,1-2H3	InChI=1S/C8H12O/c1-3-5-8(2)6-4-7-9/h7-8H,4,6H2,1-2H3/t8-/m1/s1
