16
gdb 9817	3.24148	1.80189	1.28261	1.6925	66.59	-0.2481	-0.0918	0.1564	945.1734	0.128136	-383.749751	-383.741439	-383.740495	-383.783242	29.756	
C	-0.0729728521	 1.5165119702	-0.2713274692	-0.464101
C	-0.0099590591	 0.0077785939	-0.1190895664	 0.212111
C	 1.3701217968	-0.6378981752	 0.0538373863	-0.270162
C	 0.4609814039	-0.5575671165	 1.2262802948	-0.270163
C	-0.9843411295	-0.8784895215	-0.8138914972	 0.233553
O	-0.9690231356	-2.0919000663	-0.7189535787	-0.308918
C	-2.1003661567	-0.3218827053	-1.7173645747	 0.089079
O	-2.3163126398	 0.8339698717	-1.9647196661	-0.229562
H	 0.7282607419	 1.9719819738	 0.3191204283	 0.107388
H	 0.0533274545	 1.8290890767	-1.3105532693	 0.13307
H	-1.0243295283	 1.9242924469	 0.0783328108	 0.133065
H	 1.5056301422	-1.6079404946	-0.4095412422	 0.139308
H	 2.2180437982	 0.0354070438	-0.0032048803	 0.122578
H	 0.6634930909	 0.1727698489	 2.0016299444	 0.122576
H	-0.0166386675	-1.4734257846	 1.5536107471	 0.139304
H	-2.7063045499	-1.1571877619	-2.1294561476	 0.110875
33.2292	89.9143	216.5915	233.4691	281.6401	281.6543	347.9083	350.6097	498.6708	612.9761	621.9516	663.8093	798.2839	803.1411	845.1083	951.0022	962.3814	1036.7193	1061.0282	1078.5928	1090.2045	1120.0955	1149.9607	1206.8898	1304.9426	1340.4691	1377.4856	1429.1788	1453.3266	1482.6943	1491.3487	1492.8727	1753.3744	1828.4527	2918.7385	3044.5146	3112.1678	3124.8848	3140.2674	3141.71	3229.6671	3243.2968
CC1(CC1)C(=O)C=O	CC1(CC1)C(=O)C=O	
InChI=1S/C6H8O2/c1-6(2-3-6)5(8)4-7/h4H,2-3H2,1H3	InChI=1S/C6H8O2/c1-6(2-3-6)5(8)4-7/h4H,2-3H2,1H3
