19
gdb 92803	2.86062	1.71649	1.35674	1.5184	80.3	-0.2361	0.0048	0.2409	999.6767	0.159988	-385.832516	-385.825056	-385.824111	-385.864127	30.091	
C	 0.0072002086	 1.6061648104	-0.0075204141	-0.393247
C	 0.0050821254	 0.0745941864	-0.019774766	-0.030277
C	 0.9730363069	-0.5020667028	-1.125891706	-0.251403
C	 2.3047522309	-0.7104636988	-0.4037314812	-0.222177
C	 2.0722481016	-0.7403683357	 0.90212448	 0.299484
C	 2.5008802306	-0.327263796	 2.2914599667	-0.11162
O	 2.0828460268	 1.055078228	 2.3724874128	-0.227246
C	 1.0965663336	 0.0481568494	 2.6044861312	-0.009879
C	 0.6120274405	-0.5614603674	 1.2515632534	-0.071551
H	 1.0115734698	 1.9967516297	 0.1734267582	 0.140409
H	-0.3546931755	 2.000047159	-0.9632320458	 0.104341
H	-0.6450629816	 1.9919351456	 0.7828053078	 0.109528
H	-1.0165747822	-0.2784185651	-0.1951806991	 0.063696
H	 0.5830407826	-1.4411424812	-1.5434340409	 0.103134
H	 1.0770157924	 0.1898785839	-1.9704296784	 0.103666
H	 3.2586889011	-0.746616339	-0.9165943705	 0.099447
H	 3.3209399111	-0.6314639848	 2.929195056	 0.10984
H	 0.5827074533	 0.0755141567	 3.5587177501	 0.101628
H	 0.144855044	-1.5292439282	 1.4828236959	 0.082227
121.3373	176.5081	244.8545	275.7349	314.0574	362.743	455.2426	575.4663	677.8672	688.8474	731.9785	782.9395	815.4624	845.7004	851.478	864.7719	904.602	920.0126	947.8206	968.3467	996.5515	1039.3561	1060.6748	1083.7157	1088.1961	1123.0867	1163.1431	1210.3906	1221.3339	1237.1542	1251.1635	1279.553	1315.8753	1330.1944	1351.2835	1369.449	1412.0214	1478.6274	1495.7019	1501.2633	1735.6493	3004.1833	3006.5042	3034.4364	3049.1233	3052.7672	3096.566	3127.2005	3180.8966	3199.823	3205.0909
CC1CC=C2C3OC3C12	C[C@H]1C[CH][C]2[C@H]3O[C@H]3[C@@H]12	
InChI=1S/C8H10O/c1-4-2-3-5-6(4)8-7(5)9-8/h3-4,6-8H,2H2,1H3	InChI=1S/C8H10O/c1-4-2-3-5-6(4)8-7(5)9-8/h3-4,6-8H,2H2,1H3/t4-,6-,7+,8-/m0/s1
