19
gdb 85705	2.38399	1.37995	0.99944	0.9685	87.31	-0.2506	0.0379	0.2885	1235.0716	0.156661	-348.680274	-348.670769	-348.669824	-348.714353	36.053	
C	-0.0641445714	 1.5781230677	-0.123328472	-0.416118
C	 0.0820424452	 0.0730080128	 0.0069030207	 0.033433
C	 1.0863682961	-0.6750395983	-0.9052733905	-0.238987
C	 1.4073193132	-1.6352060396	 0.2784733111	-0.185557
C	 2.7568947022	-2.1185700703	 0.4603527534	 0.328135
C	 3.8826552209	-2.5164618451	 0.6024864501	-0.442154
C	 0.8129081643	-0.5423946537	 1.2615756955	-0.229451
C	 1.7976768121	 0.3192611966	 1.8816194254	 0.375629
C	 2.6093510375	 1.0415075935	 2.3974604241	-0.488721
H	 0.9005558245	 2.0798586789	-0.0058781414	 0.130803
H	-0.4690623284	 1.8393387217	-1.1072569191	 0.113787
H	-0.7442352794	 1.9800870892	 0.6353668924	 0.11788
H	-0.9010189489	-0.4054965264	-0.0644973901	 0.078898
H	 0.7127044609	-1.1277173951	-1.8259941691	 0.104171
H	 1.9531520474	-0.0506769645	-1.1371684627	 0.119741
H	 0.7101597364	-2.4797848334	 0.2647673197	 0.106791
H	 4.877028828	-2.8648290879	 0.7325119599	 0.192399
H	 0.1487708499	-0.9515607524	 2.0283829827	 0.102748
H	 3.3314478395	 1.6688172461	 2.8582692097	 0.196574
72.9693	105.2028	151.4626	179.4512	228.7379	251.1334	306.0331	390.7077	422.0835	472.6695	517.6008	605.9139	616.2308	625.1513	628.0779	632.3707	681.2368	748.4327	806.139	892.8253	937.682	944.2401	993.7215	1052.7915	1069.3975	1116.3975	1146.4774	1154.4409	1221.6234	1233.9282	1255.1125	1273.4531	1336.5421	1350.6049	1385.3291	1416.438	1489.8116	1492.9232	1498.4387	2231.4437	2236.1193	3032.0933	3040.7456	3045.8432	3064.1018	3066.7343	3095.6768	3114.7029	3125.0718	3504.1777	3505.6159
CC1CC(C#C)C1C#C	C[C@H]1C[C@@H](C#C)[C@H]1C#C	
InChI=1S/C9H10/c1-4-8-6-7(3)9(8)5-2/h1-2,7-9H,6H2,3H3	InChI=1S/C9H10/c1-4-8-6-7(3)9(8)5-2/h1-2,7-9H,6H2,3H3/t7-,8+,9-/m0/s1
