21
gdb 79447	3.15675	1.50716	1.27857	1.3105	81.72	-0.2541	0.0784	0.3325	1071.0207	0.184615	-387.056177	-387.048568	-387.047624	-387.087638	31.652	
C	-0.1297630895	 1.5221034137	 0.0627416227	-0.420428
C	-0.0120918019	 0.0018965273	 0.0401624738	 0.014207
C	 0.7800652579	-0.5592690507	-1.1573979313	-0.022954
C	 2.1251341491	-0.3483039623	-0.3867777926	-0.029689
C	 2.6469739954	-1.6836951562	-0.9354267431	-0.235111
C	 1.1504231228	-2.0843831037	-0.8857769418	-0.117547
C	 0.8930951714	-2.1145356985	 0.6437945854	 0.155802
O	 1.7815787385	-2.9156284875	 1.4026681977	-0.451515
C	 1.1647634756	-0.6154611152	 0.8554832668	-0.062163
H	 0.828240209	 2.0131419591	-0.1341931182	 0.116583
H	-0.8406641416	 1.868147082	-0.6959919039	 0.112023
H	-0.4887436265	 1.8714338502	 1.0369192447	 0.113464
H	-0.9963067073	-0.4408589545	 0.239036903	 0.056228
H	 0.6228850197	-0.2515789331	-2.1922213727	 0.060413
H	 2.7002432867	 0.5752334091	-0.4012539448	 0.065859
H	 3.0039901553	-1.5644338523	-1.9628003899	 0.088775
H	 3.3538222753	-2.2739556647	-0.3500825416	 0.102139
H	 0.7447911578	-2.8979243653	-1.4894662117	 0.052427
H	-0.1462369807	-2.374422884	 0.8876344528	 0.058727
H	 1.6624489242	-3.8320207528	 1.1318894547	 0.278281
H	 1.405855859	-0.2933473304	 1.8683112901	 0.064479
210.3103	220.7327	230.1609	250.7423	272.8237	347.1435	437.8356	472.5784	541.9431	671.1316	738.3627	794.4827	826.618	832.8539	837.757	887.5158	924.4503	941.0737	950.2606	988.5501	1005.6476	1022.2786	1037.9765	1066.8349	1072.6349	1096.1265	1109.5093	1137.9766	1158.0101	1185.0128	1197.6836	1206.6029	1235.6319	1248.3844	1259.9308	1278.5451	1289.3552	1305.4944	1350.5248	1387.6113	1412.201	1432.0196	1486.6851	1496.5366	1499.6311	2995.0231	3018.3576	3029.8254	3057.4965	3090.1576	3095.0886	3103.2416	3106.0151	3118.4425	3122.0644	3135.7248	3808.792
CC1C2C3CC2C(O)C13	C[C@H]1[C@H]2[C@@H]3C[C@H]2[C@@H](O)[C@H]13	
InChI=1S/C8H12O/c1-3-6-4-2-5(6)8(9)7(3)4/h3-9H,2H2,1H3	InChI=1S/C8H12O/c1-3-6-4-2-5(6)8(9)7(3)4/h3-9H,2H2,1H3/t3-,4-,5+,6-,7+,8+/m0/s1
