13
gdb 127817	2.57379	1.8848	1.09549	3.418	65.36	-0.2765	-0.0754	0.2012	1005.211	0.088325	-486.01849	-486.010637	-486.009693	-486.051257	27.931	
C	-0.3296517424	 1.3827771985	-0.0017878598	-0.320405
N	-0.0147258801	-0.0432156615	-0.0041148381	-0.042766
N	 0.0135400745	-0.6454545258	-1.1982978357	-0.013142
N	 0.2618600918	-1.8395619125	-1.3765184495	 0.011977
O	 0.5497800514	-2.6752598886	-0.1978686595	-0.267407
C	 0.5497341387	-2.171111333	 1.054030966	 0.434168
O	 0.7871180558	-2.8657389359	 2.0012560004	-0.308186
C	 0.2387871834	-0.7072979538	 1.1910642308	 0.24694
N	 0.1992395064	-0.0826334369	 2.2945868112	-0.495161
H	 0.4962477447	 1.94249843	 0.4428533497	 0.165122
H	-0.4874008	 1.6839183989	-1.0357300073	 0.16275
H	-1.2270867518	 1.5615420053	 0.5946865202	 0.165072
H	 0.4113710076	-0.7390494248	 3.0480052815	 0.261039
89.4778	132.8569	139.4185	205.1311	318.2583	344.5189	454.9488	477.4237	509.9868	547.7012	599.6526	671.8904	786.7443	817.0183	897.2596	921.6704	993.6386	1060.3489	1155.8103	1200.1827	1228.3968	1323.511	1428.5651	1461.1899	1471.6761	1508.1919	1598.2366	1714.089	1847.2372	3064.5476	3133.2538	3182.8211	3484.636
CN1N=NOC(=O)C1=N	CN1N=NOC(=O)[C]1[NH]	
InChI=1S/C3H4N4O2/c1-7-2(4)3(8)9-6-5-7/h4H,1H3	InChI=1S/C3H4N4O2/c1-7-2(4)3(8)9-6-5-7/h4H,1H3
