19
gdb 103100	2.19813	1.22719	1.17881	3.7153	77.03	-0.2535	0.026	0.2796	1204.1266	0.157946	-419.203509	-419.193489	-419.192545	-419.238181	36.754	
C	-0.3915545277	 1.4869656219	 0.1820599462	-0.392579
C	 0.244617364	 0.1128971711	-0.058039533	-0.240753
C	 0.8168213419	-0.4997658895	 1.2125111982	 0.233456
N	 1.9166598169	 0.1615332851	 1.8770493553	-0.557697
C	-0.0957849939	-1.2293181718	 2.1488389912	 0.088648
O	-1.4391354207	-1.281990238	 1.8096643475	-0.410391
C	 0.921796191	-2.0321862887	 1.324065628	-0.284015
C	 0.4385868465	-2.8926369729	 0.2884278957	 0.300843
N	 0.0354478331	-3.6045630543	-0.5309415041	-0.352685
H	 0.3275960168	 2.2029063715	 0.5949513997	 0.10266
H	-0.7660004234	 1.9064698682	-0.7559482373	 0.120516
H	-1.2329526285	 1.4068509721	 0.8765896336	 0.138415
H	-0.4999345362	-0.5607007326	-0.4879969076	 0.133934
H	 1.0563182962	 0.1950107695	-0.7928326622	 0.09605
H	 2.6815072739	 0.3121949198	 1.2242198375	 0.234304
H	 1.6260533704	 1.0773224867	 2.2078538695	 0.238251
H	 0.129993422	-1.157189074	 3.2115176025	 0.10908
H	-1.7675455209	-2.1759455311	 1.9576422705	 0.304189
H	 1.7901921285	-2.396137743	 1.8610702889	 0.137775
82.8759	106.1252	118.799	193.4191	218.0114	249.7588	260.5185	290.3805	330.703	387.7905	405.5987	425.0499	520.3456	613.5222	653.408	700.6762	783.6679	813.021	849.8059	881.9784	946.6961	1004.006	1046.9071	1065.8652	1091.9318	1109.2684	1165.3644	1234.3164	1250.2053	1267.1137	1310.5978	1318.08	1356.4709	1376.9652	1409.1859	1460.3873	1478.4389	1502.4163	1507.4995	1656.4419	2345.7093	3026.2737	3037.0822	3094.5173	3113.325	3119.7155	3121.1278	3182.6817	3483.2718	3561.8453	3801.0203
CCC1(N)C(O)C1C#N	CC[C@@]1(N)[C@@H](O)[C@H]1C#N	
InChI=1S/C6H10N2O/c1-2-6(8)4(3-7)5(6)9/h4-5,9H,2,8H2,1H3	InChI=1S/C6H10N2O/c1-2-6(8)4(3-7)5(6)9/h4-5,9H,2,8H2,1H3/t4-,5+,6+/m1/s1
