15
gdb 7416	3.34735	1.75377	1.23716	6.4022	59.17	-0.2435	0.0181	0.2617	949.266	0.118729	-433.180772	-433.172012	-433.171068	-433.214782	31.192	
C	-0.3241606903	 1.4417088135	-0.0199054997	-0.372731
N	-0.0498522904	 0.0061081912	 0.0087544459	-0.187832
C	-0.1626156293	-0.7132713268	 1.2344791635	 0.427066
N	 0.2605550977	 0.0264286698	 2.3292426697	-0.549557
O	-0.6297579163	-1.8175159926	 1.333184407	-0.323455
C	 0.2141296669	-0.7064571434	-1.1773120951	 0.467123
N	 0.0816695262	 0.0467115064	-2.3341768208	-0.572679
O	 0.5218258421	-1.8744612367	-1.206639198	-0.361409
H	 0.5646334285	 2.0340001704	-0.2778175158	 0.12287
H	-1.1185032481	 1.6651333899	-0.7395091203	 0.148814
H	-0.6687718435	 1.7561895848	 0.9636095285	 0.162678
H	 1.0430624425	 0.6516163143	 2.2086290073	 0.255701
H	 0.2839424037	-0.5212687068	 3.1764521235	 0.266863
H	 0.2167611402	 1.0434155801	-2.3236990934	 0.252152
H	 0.46683624	-0.4272133043	-3.1363833323	 0.264395
33.3946	76.971	157.831	215.793	236.2956	352.1694	406.6691	417.6894	460.523	471.6805	539.0413	563.8915	578.4796	620.1766	731.3254	769.8779	791.5194	985.359	1090.0736	1102.6562	1149.0189	1206.4101	1234.76	1336.4507	1370.5331	1472.2151	1506.834	1524.023	1618.3214	1625.6532	1791.0873	1867.9922	3004.0752	3074.2128	3159.7669	3572.1889	3597.2566	3689.977	3713.6603
CN(C(N)=O)C(N)=O	CN(C(=O)N)C(=O)N	
InChI=1S/C3H7N3O2/c1-6(2(4)7)3(5)8/h1H3,(H2,4,7)(H2,5,8)	InChI=1S/C3H7N3O2/c1-6(2(4)7)3(5)8/h1H3,(H2,4,7)(H2,5,8)
