20
gdb 76662	2.37764	1.22576	1.17744	6.4649	75.09	-0.2381	0.0345	0.2726	1190.3724	0.171718	-440.304862	-440.295622	-440.294678	-440.338962	34.565	
C	-0.4354675024	 0.9845424366	 1.0648110254	-0.438347
C	 0.0629301993	-0.1882136226	 0.2445002544	-0.018339
C	 1.4637006507	-0.2866813857	-0.3274892788	-0.048451
N	 2.4540733625	 0.7065126869	 0.0499462702	-0.523857
H	 2.4953439269	 0.7997372872	 1.7731213872	 0.321386
H	 3.3796739563	 0.408670404	-0.2440143227	 0.251898
H	 2.27194796	 1.598162315	-0.402416182	 0.252357
C	 1.0044057271	-1.2753996641	 0.725227827	-0.041673
C	 1.61330712	-1.4571217959	 2.1165268438	-0.358658
C	 1.7226010245	-0.3190984794	 3.1435537538	 0.382438
O	 1.3307245232	-0.4622237292	 4.2737188047	-0.328751
O	 2.3461063197	 0.8005995023	 2.7595077872	-0.383283
H	 0.3391068935	 1.4492107342	 1.6736045598	 0.150938
H	-0.8514963045	 1.753160929	 0.4036703611	 0.11136
H	-1.2369680348	 0.6652357313	 1.738888892	 0.134905
H	-0.6968470066	-0.5598473233	-0.4392220374	 0.092701
H	 1.545111919	-0.6619215243	-1.3470791008	 0.086594
H	 0.7739896606	-2.25267279	 0.3075275261	 0.097684
H	 1.04481522	-2.2338915601	 2.6322463638	 0.137424
H	 2.631851595	-1.8538129718	 1.9922259055	 0.121674
68.8084	109.3081	157.5363	187.1252	215.0841	267.3939	293.8936	367.2447	413.5428	455.8239	540.4431	565.4416	594.6689	744.1279	750.3306	772.3535	832.4932	893.8969	919.5754	957.9302	997.7973	1028.8715	1040.236	1083.557	1110.6599	1134.0952	1166.0092	1182.642	1223.1233	1259.0896	1279.5565	1315.7995	1341.331	1387.5392	1396.7842	1430.3015	1454.8184	1474.2033	1501.8673	1509.405	1509.9562	1651.3833	1847.0232	3008.2997	3038.5748	3091.8953	3092.6518	3103.7879	3120.6052	3135.0366	3137.6104	3162.3652	3489.4952	3561.9634
CC1C([NH3+])C1CC([O-])=O	C[C@H]1[C@@H](N)[C@H]1CC(=O)O	
InChI=1S/C6H11NO2/c1-3-4(6(3)7)2-5(8)9/h3-4,6H,2,7H2,1H3,(H,8,9)	InChI=1S/C6H11NO2/c1-3-4(6(3)7)2-5(8)9/h3-4,6H,2,7H2,1H3,(H,8,9)/t3-,4+,6-/m1/s1
