12
gdb 23750	3.407	2.36275	1.39587	2.8303	59.5	-0.2384	-0.0253	0.2131	789.895	0.085897	-418.863985	-418.857673	-418.856729	-418.894278	23.961	
N	-0.029050799	 1.3689461514	-0.1121264944	-0.569841
C	-0.008254961	 0.0094609881	-0.0460354728	 0.30622
N	-1.1638289721	-0.660482156	-0.0233749465	-0.320654
C	-1.0880819438	-1.9931097337	-0.0018733366	 0.068384
N	 0.0055718657	-2.7476946761	 0.0066954258	-0.267525
C	 1.168390258	-2.0721583072	-0.0073657632	-0.08658
C	 1.2047312126	-0.7014568444	-0.0346444588	 0.172801
F	 2.359426873	-0.0163171572	-0.0423486553	-0.085881
H	 0.8125535187	 1.8734215997	 0.108252889	 0.269445
H	-0.9099697333	 1.8150236013	 0.0854486452	 0.268612
H	-2.0394515758	-2.5191944983	 0.0134300549	 0.117987
H	 2.0932901069	-2.6430923477	 0.0044863426	 0.127033
171.5108	278.813	306.0817	354.6748	429.877	457.0151	511.743	549.4319	611.5843	614.9099	788.7799	799.6953	917.8808	950.7637	1000.9894	1036.4055	1165.2812	1244.2563	1301.9543	1328.7625	1359.4764	1450.7712	1519.1744	1611.3207	1614.2915	1657.744	3165.0465	3169.0271	3604.8593	3732.4811
NC1=NC=NC=C1F	Nc1ncncc1F	
InChI=1S/C4H4FN3/c5-3-1-7-2-8-4(3)6/h1-2H,(H2,6,7,8)	InChI=1S/C4H4FN3/c5-3-1-7-2-8-4(3)6/h1-2H,(H2,6,7,8)
