21
gdb 78807	2.30197	1.66625	1.41474	1.6911	81.43	-0.2399	0.0823	0.3222	1060.4479	0.181914	-387.045352	-387.036685	-387.035741	-387.077844	34.62	
C	-0.0067872869	 1.5790768581	 0.0600919549	-0.427373
C	 0.1073887858	 0.0584458697	 0.0369537633	-0.0139
C	 1.1678623905	-0.6480376636	-0.8112350745	-0.080562
C	 2.4473500015	-0.7584638063	 0.0222856369	-0.111756
C	 1.3190470799	-1.761941669	 0.1908583136	-0.17356
C	 0.7140122462	-0.7270124432	 1.2454077625	 0.27385
C	-0.0965687327	-1.0436110617	 2.4725824035	-0.510919
C	 2.164583847	-0.159758542	 1.3953190679	 0.112427
O	 2.9070744219	-0.7615043816	 2.4375422738	-0.447029
H	 0.9626647643	 2.0669957031	 0.193766274	 0.12127
H	-0.4302776396	 1.9462565883	-0.8813365797	 0.113599
H	-0.6676808845	 1.913590912	 0.8679919341	 0.115105
H	-0.8720431728	-0.3788879733	-0.1948293513	 0.067461
H	 1.2126764348	-0.7288838508	-1.8908614489	 0.083011
H	 3.4141642255	-0.9110156413	-0.4418274884	 0.086518
H	 1.2700804976	-2.8352001647	 0.0753927014	 0.088778
H	 0.5088375166	-1.5730656061	 3.2151081686	 0.120524
H	-0.4588711551	-0.1223469524	 2.9445469913	 0.119815
H	-0.9689334931	-1.6600710998	 2.2311001	 0.113381
H	 2.276648211	 0.9172737172	 1.5512940955	 0.072873
H	 2.9577162621	-1.7056841525	 2.2438321713	 0.276489
159.2623	190.8715	197.51	203.6638	240.1791	259.9637	349.5546	362.3286	421.4935	536.3367	561.8762	642.2947	674.3393	775.4843	795.0773	813.3015	841.2801	874.1458	901.6824	935.0788	952.3071	1000.9225	1026.0225	1028.7724	1033.7043	1095.151	1110.2682	1128.4436	1137.3694	1163.256	1184.5007	1219.5466	1236.7332	1279.912	1301.4767	1332.1235	1359.3297	1393.6848	1405.5552	1412.799	1438.3692	1486.4916	1491.4693	1493.308	1501.9818	3022.3753	3025.6434	3030.6997	3066.9187	3086.9188	3089.7458	3102.0734	3110.372	3180.2083	3190.8118	3218.4516	3777.4889
CC1C2C3C2C1(C)C3O	C[C@H]1[C@H]2[C@@H]3[C@H]2[C@@]1(C)[C@H]3O	
InChI=1S/C8H12O/c1-3-4-5-6(4)8(3,2)7(5)9/h3-7,9H,1-2H3	InChI=1S/C8H12O/c1-3-4-5-6(4)8(3,2)7(5)9/h3-7,9H,1-2H3/t3-,4-,5+,6-,7-,8-/m0/s1
