18
gdb 19645	4.81549	1.68896	1.60122	0.199	74.34	-0.2172	0.0851	0.3023	883.5114	0.153494	-310.560841	-310.553848	-310.552904	-310.591961	27.703	
C	 0.0615605131	 1.508023836	 0.2086519455	-0.371801
C	-0.0468560602	 0.0125638897	-0.1205925897	-0.327407
C	-1.449026999	-0.5044883063	-0.071251511	 0.393129
C	-2.7313418933	-0.1330731066	-0.892494585	-0.159367
C	-3.602585449	-0.4925092709	 0.3016184228	-0.082904
C	-3.2483087879	-1.5544754214	-0.7286875534	-0.084275
C	-1.9756178216	-1.9251667513	 0.0885505275	-0.168567
C	-2.3316450113	-0.8608669406	 1.1224706222	-0.147572
H	 1.099249879	 1.8509805732	 0.151304243	 0.10904
H	-0.5279908038	 2.1087462758	-0.4920072677	 0.117674
H	-0.3108411029	 1.714858537	 1.2169648869	 0.118032
H	 0.3790299409	-0.175724536	-1.1160233379	 0.099496
H	 0.5638957899	-0.5671234144	 0.5845200848	 0.098447
H	-2.9108007661	 0.5788277547	-1.6877798126	 0.080882
H	-4.5711711811	-0.1051000632	 0.5880397083	 0.082969
H	-3.8954839406	-2.130881758	-1.3761662484	 0.083074
H	-1.4259654112	-2.8492815276	 0.2134602793	 0.079769
H	-2.1057301049	-0.8269388401	 2.1805047754	 0.07938
95.2352	148.761	192.7642	304.1413	377.423	572.9906	663.459	748.3849	748.8174	762.4341	793.8688	802.0993	847.6961	848.931	884.3411	898.9747	940.384	955.2195	965.7441	990.0793	1007.2169	1012.7751	1018.3883	1080.8761	1102.1749	1156.9834	1172.6554	1195.5778	1251.5858	1260.2337	1311.9614	1322.4408	1352.6872	1407.3545	1433.823	1475.8432	1496.9746	1506.8017	3005.9039	3034.3561	3039.1142	3102.5281	3107.5554	3183.3819	3188.5031	3197.7351	3198.9049	3210.189
CCC12C3C4C3C1C24	CC[C@@]12[C@@H]3[C@H]4[C@@H]3[C@@H]1[C@@H]24	
InChI=1S/C8H10/c1-2-8-5-3-4(5)7(8)6(3)8/h3-7H,2H2,1H3	InChI=1S/C8H10/c1-2-8-5-3-4(5)7(8)6(3)8/h3-7H,2H2,1H3/t3-,4+,5-,6+,7-,8+
