23
gdb 59962	2.74251	0.98913	0.85303	3.6086	83.28	-0.2281	0.0627	0.2908	1486.3365	0.204586	-421.654422	-421.643241	-421.642297	-421.691047	40.364	
C	-0.2662174304	 1.4726544136	-0.2501360052	-0.373044
C	-0.0058388012	-0.0292433939	-0.0876031431	 0.031238
C	 0.8592017602	-0.5754964155	-1.2311668176	-0.385861
C	 0.6653747016	-0.3524794091	 1.2611191081	-0.166266
N	-0.1191001286	 0.0147373612	 2.4357777167	-0.091108
C	-1.2014347448	-0.861094155	 2.8422169603	-0.356502
C	 0.2855090485	 1.0952788814	 3.1869291704	 0.448477
N	-0.4208964465	 1.295781988	 4.372753694	-0.573243
O	 1.1629993602	 1.8665478381	 2.8318022327	-0.415041
H	 0.6711449557	 2.0374233594	-0.2174004467	 0.128863
H	-0.7583777902	 1.6794608176	-1.2063308041	 0.100489
H	-0.9053413529	 1.8552830036	 0.5498449359	 0.120696
H	-0.9742135175	-0.5504192262	-0.1222764312	 0.064154
H	 1.8421609926	-0.0899312915	-1.2425193842	 0.118811
H	 1.0219737354	-1.6548755779	-1.1360136725	 0.106019
H	 0.3885134454	-0.3922559649	-2.2020838305	 0.112273
H	 0.8828767883	-1.4285060655	 1.3107989352	 0.087272
H	 1.6125269793	 0.1862330393	 1.3336145168	 0.141282
H	-0.8881440744	-1.6172997965	 3.5799412248	 0.1147
H	-2.0302134742	-0.2841951433	 3.2609528142	 0.143603
H	-1.5818553533	-1.3940917965	 1.9678675055	 0.137363
H	-0.7245411928	 0.4859834386	 4.8915744724	 0.248003
H	 0.02952687	 1.995387835	 4.9436660081	 0.25782
53.6036	72.0677	88.6571	148.6422	157.3497	206.0752	233.9792	261.5014	291.7188	339.2242	388.6662	416.9875	429.2193	440.8437	574.	576.0793	601.9137	779.3118	795.3981	821.2621	899.6615	929.1359	950.5028	969.998	1046.3168	1104.9988	1122.8469	1141.2552	1150.8154	1195.6881	1235.6601	1276.0165	1328.3487	1337.6902	1372.7424	1400.4353	1403.4889	1424.4946	1430.9365	1466.8626	1483.9902	1488.0649	1492.3437	1502.1209	1503.8557	1509.8257	1525.362	1626.8713	1776.044	2974.7562	2992.0168	3006.4543	3025.1657	3036.8019	3081.3536	3089.3467	3099.4144	3104.3676	3115.6037	3118.0983	3123.8472	3576.102	3686.6629
CC(C)CN(C)C(N)=O	CC(C)CN(C)C(=O)N	
InChI=1S/C6H14N2O/c1-5(2)4-8(3)6(7)9/h5H,4H2,1-3H3,(H2,7,9)	InChI=1S/C6H14N2O/c1-5(2)4-8(3)6(7)9/h5H,4H2,1-3H3,(H2,7,9)
