15
gdb 109033	2.90629	1.36928	0.99781	2.6051	67.29	-0.2457	-0.0684	0.1773	1134.5901	0.111765	-457.751875	-457.743861	-457.742917	-457.784885	29.194	
O	 0.0066076271	 1.4290499857	-0.0242326598	-0.419853
C	-0.0071580118	 0.0148515815	-0.0584073148	-0.173278
C	-1.4167671793	-0.4611978355	 0.0357547584	 0.168694
C	-2.5430015097	 0.2648842612	 0.0908334123	-0.170035
C	-3.7514847092	-0.6269279923	 0.0791260333	-0.004697
O	-3.8516479192	-1.4097602234	-1.1297473631	-0.246346
C	-3.2728221306	-2.0098505331	 0.0430234094	-0.0867
C	-1.7478097876	-1.9208827116	 0.0487695061	 0.348276
O	-0.9650184063	-2.8396586984	 0.0879415298	-0.32027
H	 0.9194697092	 1.7221669732	-0.0932140971	 0.29522
H	 0.438770665	-0.3810208232	-0.9861830406	 0.119621
H	 0.572911127	-0.4246856637	 0.769363617	 0.117692
H	-2.5891208839	 1.3456833936	 0.087141194	 0.140141
H	-4.6938725726	-0.3307602009	 0.5273238154	 0.112862
H	-3.7840306484	-2.8720850634	 0.4583121197	 0.118673
75.4369	138.875	172.7822	206.8824	243.6948	326.5312	375.1079	464.6409	535.6438	614.0025	689.7201	789.1688	800.9475	821.4265	869.1983	895.1192	950.7763	984.4782	1040.7274	1058.4036	1090.2112	1121.4631	1200.8304	1232.1028	1237.1426	1242.9026	1298.9919	1328.901	1396.4	1466.8268	1499.8714	1686.294	1820.6339	2967.7022	2986.3157	3172.8678	3183.3106	3231.9714	3840.7501
OCC1=CC2OC2C1=O	OCC1=C[C@H]2O[C@H]2C1=O	
InChI=1S/C6H6O3/c7-2-3-1-4-6(9-4)5(3)8/h1,4,6-7H,2H2	InChI=1S/C6H6O3/c7-2-3-1-4-6(9-4)5(3)8/h1,4,6-7H,2H2/t4-,6-/m1/s1
