16
gdb 28117	5.05154	1.27759	1.03273	1.027	80.11	-0.199	-0.0197	0.1793	1127.714	0.125681	-400.792714	-400.785415	-400.784471	-400.824499	27.883	
C	 0.0563479959	 1.4396771239	 0.0035031246	-0.494105
C	-0.0594258002	-0.0400782958	-0.0135076012	 0.337426
N	-1.1296793778	-0.7684953575	-0.1672323583	-0.381202
C	-0.654853643	-2.0629959436	-0.0995073016	 0.231814
C	 0.6851632386	-2.0496227024	 0.0927063935	 0.304311
O	 1.1077706324	-0.7610623635	 0.1536976224	-0.229297
C	 1.2420532314	-3.3833700684	 0.172230821	-0.217005
C	 0.1985670598	-4.2331722918	 0.0223266113	-0.080422
C	-1.1196442922	-3.483796963	-0.1665535198	-0.415639
H	 0.7176655137	 1.7960708099	-0.793670877	 0.144054
H	-0.9351403021	 1.8703205003	-0.1384757264	 0.156713
H	 0.4671220493	 1.7956071234	 0.9545192547	 0.144053
H	 2.2794990815	-3.6471511774	 0.3209630336	 0.114166
H	 0.2583655283	-5.3130529317	 0.0306136553	 0.105959
H	-1.8415407844	-3.7446776154	 0.61783851	 0.139587
H	-1.5919401715	-3.744221377	-1.1223671819	 0.139586
103.7188	134.2742	272.6358	273.9702	278.4467	428.1998	491.638	560.5784	661.6637	679.3812	731.8612	732.2119	768.0848	881.8749	917.9926	925.0537	928.8374	931.3692	1025.545	1062.1934	1082.9228	1123.8322	1157.532	1213.4472	1238.6599	1313.8507	1378.9203	1407.8497	1429.7578	1463.4056	1473.6944	1483.9231	1540.8823	1594.4829	1625.242	3035.6832	3038.5643	3065.7868	3090.2904	3155.2675	3221.0253	3243.0575
CC1=NC2=C(O1)C=CC2	Cc1nc2c(o1)C=CC2	
InChI=1S/C7H7NO/c1-5-8-6-3-2-4-7(6)9-5/h2,4H,3H2,1H3	InChI=1S/C7H7NO/c1-5-8-6-3-2-4-7(6)9-5/h2,4H,3H2,1H3
