17
gdb 7651	5.02574	1.29494	1.13101	2.9761	64.61	-0.2332	0.0316	0.2648	1065.2574	0.141739	-401.025089	-401.016703	-401.015759	-401.058662	30.317	
C	-0.1712018201	 1.5215830689	 0.3318032539	-0.398569
C	 0.611471782	 0.2264673653	 0.3378983759	 0.165338
C	 0.3648977515	-0.7887343516	-0.8013987328	-0.3003
C	 1.8672496161	-0.6084415333	-1.104423803	 0.047646
O	 1.994129952	 0.4151231894	-0.0901573596	-0.319904
C	 2.7336782361	-1.8427380431	-0.8609969408	 0.354582
N	 3.545123048	-1.7370489626	 0.2201718521	-0.515411
O	 2.6611177315	-2.8117471696	-1.5926885624	-0.373131
H	-0.162247928	 1.9763245043	-0.6634979734	 0.123242
H	-1.2112098152	 1.3370165279	 0.6226817669	 0.120993
H	 0.2599785611	 2.2352180862	 1.0408685828	 0.128328
H	 0.5896143938	-0.228213667	 1.3372723647	 0.080712
H	 0.062240674	-1.794386873	-0.5098709157	 0.128308
H	-0.2980876286	-0.4236605689	-1.5875340362	 0.114828
H	 2.1074148508	-0.2248379037	-2.1020011092	 0.11085
H	 3.5609356681	-0.8732164241	 0.7371686068	 0.271425
H	 4.1894740568	-2.480377975	 0.4303193398	 0.261063
45.579	65.143	178.711	232.0521	264.9179	321.5605	344.946	424.2378	486.5844	538.97	642.3195	712.8966	759.127	795.8746	888.3584	893.5058	927.3904	1004.5523	1027.5979	1076.995	1086.1214	1096.8981	1135.7795	1198.5067	1248.4161	1255.8611	1319.2078	1329.7339	1372.3636	1389.118	1409.6399	1482.1051	1490.8864	1498.2728	1588.5575	1803.6887	3012.6469	3033.9928	3051.8022	3085.9267	3106.7091	3114.0825	3145.0662	3593.1545	3736.1665
CC1CC(O1)C(N)=O	C[C@H]1C[C@@H](O1)C(=O)N	
InChI=1S/C5H9NO2/c1-3-2-4(8-3)5(6)7/h3-4H,2H2,1H3,(H2,6,7)	InChI=1S/C5H9NO2/c1-3-2-4(8-3)5(6)7/h3-4H,2H2,1H3,(H2,6,7)/t3-,4+/m0/s1
