21
gdb 76323	2.10825	1.4666	1.25395	2.3571	78.39	-0.2433	-0.0239	0.2194	1159.1631	0.179535	-424.240331	-424.230014	-424.22907	-424.274874	38.19	
C	-0.2295709011	 1.4560376377	-0.1729923657	-0.402625
C	-0.0363017505	-0.0488450033	-0.0416583026	-0.095323
C	 1.1271120814	-0.6032196649	-0.962111754	 0.055396
O	 1.5875450034	 0.1340532353	-2.0545593743	-0.434926
C	 1.9780059743	-0.554324113	 0.3024884824	 0.312215
O	 3.1239941998	-0.2155293596	 0.4411212288	-0.328436
C	 0.7571103118	-0.5551895412	 1.2356320057	 0.191537
C	 0.8697865932	 0.3515366418	 2.4567010217	-0.445616
C	 0.3210884264	-1.9721384592	 1.6414573151	-0.442215
H	 0.7123553964	 2.001835446	-0.0563561011	 0.119408
H	-0.6186793728	 1.6982505596	-1.1655926137	 0.132035
H	-0.9327175776	 1.8342598652	 0.5749989589	 0.116834
H	-0.9842723293	-0.5730420457	-0.1875730822	 0.075271
H	 0.8967649029	-1.627032103	-1.2789329723	 0.105161
H	 2.4250878634	 0.5349229913	-1.7875220825	 0.296385
H	 1.1979097365	 1.3592802058	 2.192713554	 0.1256
H	-0.0923637525	 0.4268132594	 2.9747680538	 0.116587
H	 1.6001153276	-0.0571273269	 3.1620623638	 0.129242
H	 1.0168113024	-2.4003350018	 2.3701513376	 0.128067
H	-0.6721183779	-1.9369156292	 2.1023825077	 0.123651
H	 0.2670358024	-2.6533849844	 0.7872704989	 0.121753
79.3523	152.4864	176.8177	198.1585	221.4374	229.5191	234.8454	249.0942	281.7726	299.4471	339.1124	433.6881	498.1422	539.3725	591.5064	727.7434	753.3293	816.8105	834.9444	922.9386	961.5095	997.8649	1008.6066	1035.4377	1051.4361	1091.3385	1145.707	1169.4019	1192.6531	1215.1562	1254.6212	1294.2682	1329.7691	1357.6625	1401.4506	1412.8451	1416.8622	1425.1622	1480.0098	1483.5872	1493.6188	1497.1427	1505.4472	1508.0949	1852.0299	3030.8157	3037.6474	3038.4149	3041.5151	3069.9421	3099.0565	3103.6685	3107.0523	3110.3364	3117.5305	3125.4224	3762.9852
CC1C(O)C(=O)C1(C)C	C[C@H]1[C@@H](O)C(=O)C1(C)C	
InChI=1S/C7H12O2/c1-4-5(8)6(9)7(4,2)3/h4-5,8H,1-3H3	InChI=1S/C7H12O2/c1-4-5(8)6(9)7(4,2)3/h4-5,8H,1-3H3/t4-,5+/m0/s1
