17
gdb 55424	2.66414	1.48148	1.00035	2.3085	69.81	-0.247	0.0104	0.2574	1143.0354	0.138141	-455.208369	-455.200261	-455.199316	-455.241712	30.452	
N	-0.1251456648	 1.3731987231	-0.015112175	-0.521644
C	 0.0507096029	 0.0353686509	-0.1544691037	 0.38022
O	 1.092745283	-0.4959676115	-0.4880896916	-0.361203
C	-1.2262758878	-0.8010047502	 0.0625064999	-0.215894
C	-0.9502513762	-2.2990913691	 0.2411904648	-0.234363
C	-2.1135909903	-2.7470130664	 1.1299397335	-0.102729
O	-2.4918041334	-1.5806371873	 1.8935120249	-0.229784
C	-2.055920983	-0.4507180159	 1.2886325836	 0.438901
N	-2.3138933207	 0.7230382381	 1.6896511385	-0.56541
H	 0.7062629179	 1.9420456653	-0.0538226577	 0.254689
H	-0.9200309326	 1.691287178	 0.5328400212	 0.280853
H	-1.863881701	-0.6220954761	-0.8134326617	 0.13689
H	-0.9106417146	-2.844864855	-0.7019144369	 0.123601
H	 0.0121846448	-2.43208744	 0.7401513891	 0.140776
H	-2.9838305045	-3.0716735775	 0.5471647543	 0.117037
H	-1.8551600211	-3.534037254	 1.8410335037	 0.128685
H	-2.9009557288	 0.7133379775	 2.5232555331	 0.229375
59.1971	85.823	182.6881	235.493	281.5331	404.1753	426.7842	526.665	542.7892	600.8418	622.0528	665.9799	688.8929	725.7836	835.5638	869.8454	879.8169	956.1346	964.7325	1002.7749	1039.6642	1108.5185	1134.3897	1166.1394	1203.9148	1227.1628	1256.5847	1272.1884	1303.3136	1339.3566	1365.6174	1415.9565	1497.4331	1526.2772	1630.7432	1756.1199	1799.806	3030.1535	3037.3053	3088.1626	3112.6408	3139.5015	3466.6322	3493.5632	3668.0225
NC(=O)C1CCOC1=N	NC(=O)[C@H]1CCO[C]1[NH]	
InChI=1S/C5H8N2O2/c6-4(8)3-1-2-9-5(3)7/h3,7H,1-2H2,(H2,6,8)	InChI=1S/C5H8N2O2/c6-4(8)3-1-2-9-5(3)7/h3,7H,1-2H2,(H2,6,8)/t3-/m1/s1
