18
gdb 55940	4.15294	1.02275	0.91415	2.2758	72.21	-0.2605	0.0578	0.3183	1291.0146	0.148195	-439.101934	-439.09349	-439.092545	-439.13593	31.721	
N	-0.171627556	 1.2957282165	 0.0337927719	-0.564062
C	-0.0083020458	-0.0576795233	 0.1496430721	 0.491546
O	 0.974830841	-0.6056168943	 0.5923701168	-0.403161
O	-1.1276471747	-0.6950310529	-0.2739827855	-0.274789
C	-1.1018744213	-2.122651955	-0.1425198285	 0.156068
C	-1.4269683117	-2.7316877672	 1.2559220753	-0.25959
C	-2.6077474098	-3.4703990312	 0.6130808194	-0.045188
C	-3.5627648529	-2.4733229784	 0.0317062041	-0.271447
C	-2.3153454009	-2.8063941232	-0.7431122175	-0.088512
H	 0.6645793655	 1.8486100355	 0.1118294394	 0.266863
H	-0.9123205628	 1.642509762	-0.5519000649	 0.263103
H	-0.1521352253	-2.4930092249	-0.529383021	 0.105332
H	-0.623297402	-3.3745411083	 1.6174047508	 0.116114
H	-1.6874796663	-2.0121732624	 2.0377385414	 0.104178
H	-2.8860188725	-4.4989642729	 0.8027691316	 0.090305
H	-4.4754093945	-2.8830764781	-0.3886574561	 0.112212
H	-3.6797479696	-1.4936378306	 0.4873271132	 0.114454
H	-2.3583813403	-3.2277210813	-1.7398045024	 0.086576
41.7363	86.4581	119.5004	220.246	337.1843	359.237	377.0955	446.3196	507.0692	561.1728	631.0297	703.0086	783.2478	786.8135	808.1662	851.2764	919.2504	957.102	963.9827	986.9707	1025.3723	1036.4694	1063.502	1084.767	1087.8757	1107.665	1126.6435	1149.3523	1211.7998	1240.6886	1262.0458	1317.0384	1342.6845	1367.209	1409.4306	1478.1476	1497.0688	1610.9169	1827.9626	3061.0169	3106.5558	3117.1525	3128.9219	3184.8019	3195.3879	3208.9255	3612.2539	3741.7127
NC(=O)OC1CC2CC12	NC(=O)O[C@H]1C[C@H]2C[C@@H]12	
InChI=1S/C6H9NO2/c7-6(8)9-5-2-3-1-4(3)5/h3-5H,1-2H2,(H2,7,8)	InChI=1S/C6H9NO2/c7-6(8)9-5-2-3-1-4(3)5/h3-5H,1-2H2,(H2,7,8)/t3-,4-,5+/m1/s1
