18
gdb 107261	2.93041	1.42945	1.12273	1.1141	71.2	-0.2077	0.0585	0.2661	1098.9865	0.146729	-438.983013	-438.97461	-438.973666	-439.015684	32.935	
O	 0.5645060647	 0.4462272271	-0.9913622921	-0.411493
C	-0.0550760407	 0.283060433	 0.2784937102	-0.207026
C	-1.4638528333	-0.2179573322	 0.1503583919	 0.24864
N	-1.8335885136	-1.308736344	-0.7775692111	-0.381036
C	-2.482495081	 0.0309016205	-0.8896322605	-0.124263
C	-3.6007050676	 0.158118991	 0.1843874953	-0.121328
C	-3.6953846687	-1.0783541665	 1.0636407524	-0.356993
C	-2.5719417546	-0.1018995875	 1.260339206	 0.332587
O	-2.3584949928	 0.6279337611	 2.4170684951	-0.453995
H	 0.1401718847	 1.1947855681	-1.4238533816	 0.288044
H	 0.5642876202	-0.4454005246	 0.8162239644	 0.117144
H	-0.0468415271	 1.2128801513	 0.8642484917	 0.11257
H	-1.0920393195	-1.3229473503	-1.4811916395	 0.233573
H	-2.4248172046	 0.597528143	-1.810904928	 0.086716
H	-4.3803647133	 0.9072023196	 0.1551866351	 0.096993
H	-4.4680423694	-0.9955307904	 1.8226543676	 0.109294
H	-3.5294258192	-2.0681163054	 0.657764926	 0.14202
H	-2.116146754	 0.0143251562	 3.1200193571	 0.288552
97.8159	151.3671	181.5945	275.5821	301.3511	343.773	353.8587	420.2237	443.6788	490.901	539.0227	640.6406	671.003	787.88	823.3175	860.9203	877.5474	923.599	925.604	962.552	981.2383	1006.066	1010.0633	1049.3676	1069.9625	1093.4424	1150.8124	1182.8652	1210.4269	1231.399	1265.694	1289.4162	1331.6315	1380.5465	1387.3835	1413.9893	1434.6922	1476.9753	1505.7379	3008.2923	3053.3325	3133.7511	3184.3466	3208.1584	3232.6827	3446.9182	3783.3544	3811.8956
OCC12NC1C1CC21O	OC[C@]12N[C@H]1[C@H]1C[C@@]21O	
InChI=1S/C6H9NO2/c8-2-5-4(7-5)3-1-6(3,5)9/h3-4,7-9H,1-2H2	InChI=1S/C6H9NO2/c8-2-5-4(7-5)3-1-6(3,5)9/h3-4,7-9H,1-2H2/t3-,4+,5+,6+/m1/s1
