18
gdb 84244	2.51982	1.9787	1.36473	3.2926	77.58	-0.2227	-0.0478	0.1748	972.8602	0.147259	-397.984958	-397.977102	-397.976158	-398.01668	31.729	
C	-0.0971488757	 1.5349330849	-0.0665054336	-0.386585
C	 0.0223194245	 0.0154474368	-0.0412964038	-0.025133
N	 0.9680130151	-0.3960997276	-1.1157342174	-0.16203
C	 1.6354890864	-1.3540013411	-0.6105297796	 0.120466
N	 3.024461086	-1.0493304422	-0.2134897372	-0.352448
C	 2.2830907583	-1.0304454689	 1.1594231771	-0.039182
C	 1.1902500513	-1.9422337899	 0.7674676503	-0.204615
C	 0.7260248204	-0.5968165328	 1.2117397888	 0.293281
N	 0.2511979649	-0.4160662521	 2.5484393331	-0.596896
H	 0.8941083631	 1.9947597784	-0.0285913772	 0.133878
H	-0.5922600387	 1.8657865958	-0.9829032463	 0.128891
H	-0.687568504	 1.8852393086	 0.7880448414	 0.09892
H	-0.9828960776	-0.431464128	-0.1212621504	 0.072294
H	 3.568698804	-1.9169061971	-0.1403240325	 0.222831
H	 2.8728705836	-0.9882843905	 2.0685813553	 0.118071
H	 0.8985105185	-2.9406169144	 1.0671546228	 0.104645
H	 0.2350336263	 0.5673165545	 2.8000460884	 0.239224
H	-0.6952542865	-0.7719916045	 2.6491355209	 0.234388
135.2623	205.9719	226.4682	246.4673	324.0372	368.9151	422.6099	474.1154	543.633	571.455	601.259	647.934	733.8061	764.8808	797.5219	828.16	859.8504	865.0036	901.871	966.6135	1008.608	1036.8976	1058.927	1102.4375	1107.6673	1120.5729	1144.1929	1189.9535	1206.4977	1227.9711	1286.0211	1288.6816	1343.8568	1363.3295	1399.9022	1483.504	1495.1399	1617.9439	1653.2839	2957.9092	3034.5723	3107.1251	3127.7287	3177.6041	3193.6934	3361.9015	3489.6096	3567.9584
CC1N=C2NC3C2C13N	C[C@H]1[N][C]2N[C@@H]3[C@H]2[C@]13N	
InChI=1S/C6H9N3/c1-2-6(7)3-4(6)9-5(3)8-2/h2-4H,7H2,1H3,(H,8,9)	InChI=1S/C6H9N3/c1-2-6(7)3-4(6)9-5(3)8-2/h2-4H,7H2,1H3,(H,8,9)/t2-,3-,4-,6-/m1/s1
