19
gdb 17074	5.5344	1.19833	1.06878	1.851	72.22	-0.2301	0.0877	0.3179	1140.104	0.165853	-365.006047	-364.998095	-364.997151	-365.039237	28.895	
C	-0.0740665809	 1.5097793305	 0.2920188208	-0.16121
C	 0.0853754462	 0.0065962243	 0.1562177545	 0.166767
C	-1.2036362822	-0.8426958666	 0.1183163558	-0.300394
C	-0.6818716143	-1.3138844759	-1.2534843726	-0.057188
O	 0.4354223592	-0.4041792257	-1.1917948577	-0.29142
N	 1.2171252344	 2.1796898054	 0.2426814626	-0.069717
C	 1.729474117	 2.4830887687	-1.0921505042	-0.203922
C	 1.2111123923	 3.5664265836	-0.2138541554	-0.227257
H	-0.7692070021	 1.8639669767	-0.4919777458	 0.077776
H	-0.536385648	 1.7241587649	 1.2653057785	 0.10113
H	 0.840434432	-0.3437851056	 0.8717724335	 0.084769
H	-1.3016294101	-1.6065648315	 0.8905845263	 0.111431
H	-2.122940549	-0.2536652585	 0.0761222698	 0.108396
H	-0.3531612612	-2.3605544138	-1.2899785013	 0.101027
H	-1.3264501978	-1.1169662976	-2.1182010428	 0.102548
H	 2.7984494705	 2.3454988992	-1.2254150364	 0.115296
H	 1.122975511	 2.1855817181	-1.9434326806	 0.122008
H	 0.2535288012	 4.0110767356	-0.4816904263	 0.105449
H	 1.8924691219	 4.2355780084	 0.3039290913	 0.114511
73.6702	77.5249	104.7367	171.6952	311.3643	360.5064	398.0014	491.2985	742.0922	765.2591	815.6544	832.9725	879.4656	897.7659	905.5537	972.3547	1008.7295	1027.5911	1038.0968	1072.8714	1099.3498	1111.9867	1117.3155	1141.1873	1165.7096	1171.3731	1197.5455	1219.6698	1255.2308	1269.129	1299.6123	1322.0625	1337.0705	1372.5984	1412.4048	1475.5156	1489.4863	1495.0521	1523.1762	1532.5252	2929.2721	3011.7515	3022.9043	3036.4954	3053.2561	3073.1494	3093.9279	3114.1215	3131.4297	3178.6303	3200.7874
C(C1CCO1)N1CC1	C([C@H]1CCO1)N1CC1	
InChI=1S/C6H11NO/c1-4-8-6(1)5-7-2-3-7/h6H,1-5H2	InChI=1S/C6H11NO/c1-4-8-6(1)5-7-2-3-7/h6H,1-5H2/t6-/m1/s1
