19
gdb 70645	2.47472	1.57983	1.14886	1.9754	80.67	-0.2499	0.0527	0.3026	1117.5115	0.158366	-385.862785	-385.854183	-385.853239	-385.895666	33.41	
C	-0.560890787	 1.2088975217	 0.0071577168	-0.488909
C	 0.0833618397	-0.1454074392	 0.0917269466	 0.413485
O	-0.3883940039	-1.0226699266	 1.1247397785	-0.295484
C	 0.988165084	-0.6068809676	 1.1530224656	-0.015844
C	 1.9410208133	-1.6539256569	 0.613678791	-0.253999
C	 1.2558829443	-2.1330524705	-0.685443572	-0.230028
C	 0.449646184	-0.9033788271	-1.1964661266	-0.231896
C	-0.6897227602	-1.2428532392	-2.0371218638	 0.325143
C	-1.6363042607	-1.5196786148	-2.7247327593	-0.453816
H	 0.0674276205	 1.9052177653	-0.5587399048	 0.119758
H	-1.5269521833	 1.1377590143	-0.5028428659	 0.141644
H	-0.7263710845	 1.6170970307	 1.0069489953	 0.129546
H	 1.2657815137	 0.0239396442	 1.994602569	 0.090559
H	 2.9112648357	-1.1832660498	 0.4108889289	 0.103363
H	 2.1145574946	-2.4730845688	 1.3182321512	 0.112308
H	 1.9614027105	-2.4966031675	-1.4350170897	 0.105967
H	 0.5567177585	-2.9397663962	-0.4619578495	 0.132813
H	 1.1206251077	-0.2440144642	-1.7665204895	 0.101388
H	-2.4725354769	-1.7685135578	-3.3298306419	 0.194004
100.8993	129.5741	191.0233	234.3385	245.2715	303.8835	361.6923	433.6383	497.7565	527.2893	572.5088	621.0982	635.1318	663.8516	710.5879	825.8338	849.8233	878.9807	923.2558	959.1336	997.6007	1009.613	1032.9771	1050.9049	1104.1116	1117.2673	1169.4202	1226.385	1237.3385	1284.3634	1301.2545	1316.3664	1329.7764	1359.0532	1410.3495	1457.7862	1478.6986	1485.9685	1493.8997	1500.7503	2235.7941	2999.268	3033.898	3037.9839	3081.046	3087.8439	3102.5514	3126.3196	3135.5626	3140.2992	3504.5046
CC12OC1CCC2C#C	C[C@]12O[C@H]1CC[C@H]2C#C	
InChI=1S/C8H10O/c1-3-6-4-5-7-8(6,2)9-7/h1,6-7H,4-5H2,2H3	InChI=1S/C8H10O/c1-3-6-4-5-7-8(6,2)9-7/h1,6-7H,4-5H2,2H3/t6-,7+,8-/m1/s1
