19
gdb 87867	3.06556	1.38202	1.23245	2.5921	74.66	-0.2466	0.0808	0.3274	1078.1288	0.159716	-422.999982	-422.992131	-422.991187	-423.032181	31.297	
O	-0.6073818117	 1.3612498335	-0.4926851088	-0.416371
C	-0.3130879199	 0.0102692275	-0.2970992636	 0.078034
C	-0.1499293509	-0.518757558	 1.1073436442	-0.404911
C	-1.3886378264	-0.8501535216	 0.3041395086	 0.341366
C	-2.7522396534	-0.2336092597	 0.6323842	-0.325816
C	-3.7095501692	-1.0016694684	-0.2591038397	 0.052374
O	-3.2884281936	-1.0771118222	-1.6279164434	-0.254975
C	-3.0447706963	-2.2044849311	-0.7775563288	 0.051522
C	-1.6263852037	-2.2623198812	-0.2434463078	-0.32727
H	 0.1689938635	 1.8741631533	-0.2464729275	 0.288297
H	 0.2938985754	-0.4406282769	-1.0831091737	 0.084086
H	 0.5776520524	-1.3030532285	 1.292949826	 0.10704
H	-0.262272465	 0.1985479355	 1.9148004739	 0.109549
H	-3.0294631836	-0.3986481155	 1.6817872819	 0.096714
H	-2.762582567	 0.8422277446	 0.4425203753	 0.132975
H	-4.7840378727	-0.9403708601	-0.1045812062	 0.089593
H	-3.5796727055	-3.1141890095	-1.0394722965	 0.089454
H	-0.8963992261	-2.5442513597	-1.0099105236	 0.107325
H	-1.5731417161	-3.0150327921	 0.5546495897	 0.101015
84.4213	183.5568	239.4009	275.7566	326.8411	362.4434	387.6552	449.1743	502.3722	562.7982	680.6638	795.4263	810.8647	822.5274	860.9698	874.5347	904.5941	928.1136	951.4033	992.3429	1016.7515	1031.3016	1041.0832	1084.6056	1103.4407	1108.0938	1172.9866	1188.2494	1214.1077	1239.5794	1264.988	1281.2581	1300.7109	1304.9479	1340.8684	1359.027	1424.4056	1440.7731	1477.6316	1486.6943	1491.2099	3019.9478	3027.0389	3069.4265	3091.17	3106.7601	3118.4601	3137.703	3150.5018	3206.7936	3810.889
OC1CC11CC2OC2C1	O[C@H]1C[C@]21C[C@H]1O[C@H]1C2	
InChI=1S/C7H10O2/c8-6-3-7(6)1-4-5(2-7)9-4/h4-6,8H,1-3H2	InChI=1S/C7H10O2/c8-6-3-7(6)1-4-5(2-7)9-4/h4-6,8H,1-3H2/t4-,5+,6-,7+/m0/s1
