17
gdb 37322	2.40036	2.35365	1.52792	3.139	69.86	-0.2667	0.0617	0.3284	884.533	0.138265	-421.778975	-421.772578	-421.771634	-421.809484	26.723	
C	-0.0112788374	 1.5418272037	 0.0362440952	-0.307022
C	 1.2923350552	 0.7914034618	-0.0278914381	-0.057002
C	-0.0400451437	 0.0381730622	-0.0334266642	-0.057003
C	-0.4693864584	-0.6670767979	-1.2822150874	 0.024527
O	-0.8192813875	 0.1167514302	-2.4233428122	-0.23683
C	 0.3778827851	-0.6550551407	-2.4986826509	 0.018867
C	 1.6863520824	 0.0846396906	-2.4932380181	 0.01887
O	 1.6418758013	 1.5080758074	-2.4131187014	-0.236832
C	 2.1258419277	 0.8000535113	-1.2714241066	 0.024527
H	-0.2821967621	 2.0141676138	 0.9731742934	 0.113247
H	-0.305618091	 2.069072594	-0.8628075667	 0.156153
H	 1.8730005879	 0.7243368276	 0.8858564867	 0.086391
H	-0.2877323213	-0.4971875673	 0.8768728446	 0.08639
H	-1.115083132	-1.5305236245	-1.124710045	 0.092592
H	 0.3303510011	-1.5000047258	-3.1851066484	 0.090267
H	 2.4391436631	-0.3078871698	-3.1763229509	 0.090267
H	 3.1975787995	 0.9074874634	-1.10676954	 0.092592
182.7179	206.9248	320.4503	449.7122	469.8345	487.7058	598.8945	629.7906	729.6466	760.5562	769.0836	840.6862	842.8737	876.9935	886.7922	901.1934	934.7337	1011.0284	1044.6826	1056.8225	1075.3873	1086.8842	1094.2525	1123.0642	1123.3077	1133.5047	1150.3734	1218.1044	1272.7439	1299.0658	1358.2526	1396.9543	1400.2843	1401.3244	1432.9641	1469.1291	1486.1184	3100.5256	3108.2798	3112.6099	3124.12	3146.5489	3161.137	3170.1496	3245.2434
C1C2C1C1OC1C1OC21	C1[C@H]2[C@@H]1[C@H]1O[C@H]1[C@H]1O[C@@H]21	
InChI=1S/C7H8O2/c1-2-3(1)5-7(9-5)6-4(2)8-6/h2-7H,1H2	InChI=1S/C7H8O2/c1-2-3(1)5-7(9-5)6-4(2)8-6/h2-7H,1H2/t2-,3+,4-,5+,6-,7+
