19
gdb 75628	2.03073	1.82686	1.2298	3.0293	77.19	-0.2428	-0.0073	0.2355	1088.9452	0.156994	-423.026589	-423.017131	-423.016187	-423.060471	35.062	
C	-0.0361544984	 1.5370812584	 0.094993595	-0.488922
C	-0.024168974	 0.0428280616	 0.0027785599	 0.260794
C	 1.1250368252	-0.8146366817	-0.3730051293	-0.383781
C	 0.6101493901	-0.998441922	 1.0449137106	 0.175951
C	 1.4592110774	-0.8113550337	 2.2680214167	-0.496184
C	-0.7240768653	-1.6323394441	 1.0427895997	 0.305642
O	-1.3511082961	-2.1895049458	 1.9132123626	-0.349894
C	-1.2971097166	-0.8224722531	-0.1473968528	-0.000728
O	-2.5099605406	-0.2153556237	 0.2070863711	-0.446621
H	 0.8904480126	 1.9190355876	 0.534544988	 0.1211
H	-0.1430227643	 1.9843801136	-0.9002830539	 0.133435
H	-0.881173546	 1.8719588518	 0.7020653579	 0.143769
H	 1.0055527143	-1.6048539835	-1.1117855242	 0.118307
H	 2.0947338292	-0.3259701914	-0.4106534899	 0.125331
H	 2.0979544428	 0.0728657113	 2.1725546416	 0.122517
H	 0.8332241709	-0.6954511169	 3.1575011956	 0.140604
H	 2.1145096614	-1.674154695	 2.4301294826	 0.135769
H	-1.379736698	-1.3156323015	-1.125007119	 0.084673
H	-2.8491499346	-0.7089601618	 0.9670438678	 0.298239
81.8888	137.1072	170.472	188.826	206.7739	222.1137	259.5196	347.387	388.6334	428.0595	497.4544	524.5363	540.7339	620.0783	712.6422	735.6318	848.0077	899.2146	952.0071	979.0474	987.7565	1019.8896	1065.7979	1071.6805	1114.5838	1139.2433	1176.0064	1210.7154	1263.7295	1350.6934	1366.1191	1371.6572	1395.9852	1413.0561	1423.3657	1475.4641	1482.6123	1494.7786	1499.8559	1502.3968	1824.6822	3010.4882	3031.6114	3033.2885	3092.7108	3093.8699	3099.1135	3113.2995	3122.3331	3186.4177	3739.0054
CC12CC1(C)C(=O)C2O	C[C@@]12C[C@]1(C)C(=O)[C@H]2O	
InChI=1S/C7H10O2/c1-6-3-7(6,2)5(9)4(6)8/h4,8H,3H2,1-2H3	InChI=1S/C7H10O2/c1-6-3-7(6,2)5(9)4(6)8/h4,8H,3H2,1-2H3/t4-,6+,7-/m1/s1
