14
gdb 14605	15.33229	0.5588	0.54838	1.9185	71.	-0.2663	-0.0677	0.1986	1851.768	0.103531	-382.524927	-382.515777	-382.514833	-382.561633	28.893	
O	-0.1664213657	-0.074839158	-0.1069279762	-0.224413
C	-0.0205942729	 1.1181903754	-0.094072788	 0.156231
C	 1.3175896485	 1.8251485089	-0.1550380214	-0.26665
C	 1.3329079213	 2.9231402206	-1.2432325293	-0.372349
C	 2.5586744333	 3.7046911106	-1.2505852846	 0.07277
C	 3.5790034192	 4.3509092655	-1.2539901441	 0.067934
C	 4.8059883948	 5.1066041116	-1.2346646909	 0.019142
O	 5.0717595561	 5.9998522931	-2.0052578673	-0.224708
H	-0.8984825582	 1.804200445	-0.0265006263	 0.077195
H	 1.4895719391	 2.2956333214	 0.82231808	 0.139955
H	 2.1055142509	 1.0871050121	-0.3203892243	 0.141287
H	 1.1936567383	 2.4686856437	-2.2325288005	 0.160755
H	 0.4802074371	 3.6008884607	-1.1006428066	 0.151914
H	 5.5132957582	 4.8015153495	-0.4368211106	 0.100936
16.808	56.6276	58.3906	87.0041	178.5273	188.3049	280.6287	403.4106	438.9208	537.7561	596.3776	749.5594	823.2975	848.8621	991.4308	1021.7846	1073.9002	1087.4125	1160.4574	1197.1054	1264.1323	1302.536	1362.8716	1422.9102	1429.6917	1456.6132	1470.5637	1768.8829	1842.3925	2333.4537	2850.6604	2919.3109	3018.4621	3032.1177	3053.6898	3119.8966
O=CCCC#CC=O	O=CCCC#CC=O	
InChI=1S/C6H6O2/c7-5-3-1-2-4-6-8/h5-6H,1,3H2	InChI=1S/C6H6O2/c7-5-3-1-2-4-6-8/h5-6H,1,3H2
