23
gdb 70243	2.89111	1.27691	1.18925	1.7547	84.84	-0.2507	0.0846	0.3353	1210.2674	0.204836	-388.307595	-388.298335	-388.297391	-388.340607	36.953	
C	-0.0427727698	 1.5446936097	 0.0365054593	-0.483422
C	-0.0483081843	 0.0423941963	 0.1097440265	 0.419146
C	-1.2281716748	-0.7551272621	-0.422254553	-0.319001
C	-1.049214178	-2.216904871	 0.1004127136	 0.317023
C	-2.3977463811	-2.8371318828	 0.4916844268	-0.434442
C	-0.3781832492	-3.0940790384	-0.9718264784	-0.427157
C	-0.1153780211	-2.0660186979	 1.3456069658	-0.28346
C	 0.6122394649	-0.7543041304	 1.1536602685	-0.009568
O	 1.2164876422	-0.6046645936	-0.1420821548	-0.297993
H	 0.862094472	 1.9488954097	 0.4973175626	 0.128355
H	-0.0726225036	 1.882866538	-1.005322929	 0.125985
H	-0.9157851139	 1.9637895787	 0.548290124	 0.119207
H	-2.1526447246	-0.3113671823	-0.0312699309	 0.092015
H	-1.2915617792	-0.7164079336	-1.5154890314	 0.10102
H	-3.0624727308	-2.9160726969	-0.3760505794	 0.110722
H	-2.2637670019	-3.8465589228	 0.8968193519	 0.110854
H	-2.9092242675	-2.2365145652	 1.2520187372	 0.104862
H	 0.5854523011	-2.6763922882	-1.2685777022	 0.138865
H	-0.2141632681	-4.110026393	-0.5941109496	 0.102074
H	-1.0126878097	-3.1698476726	-1.862579244	 0.102018
H	-0.700850054	-2.0092017288	 2.2721633804	 0.093959
H	 0.5691984029	-2.9149105204	 1.4483514679	 0.104541
H	 1.1665962588	-0.3026271323	 1.9742748082	 0.084402
122.9435	173.4061	208.0589	238.3621	258.1098	290.7484	319.423	338.7078	389.6103	407.1215	418.0354	447.1468	557.9306	638.7618	709.2632	792.2532	844.5051	880.7359	891.6673	925.6676	933.3973	955.0047	976.5047	991.1252	1024.0568	1041.4553	1058.9869	1094.5229	1181.4532	1191.1175	1201.8348	1229.8522	1243.8666	1300.8179	1310.117	1322.7713	1344.4009	1397.152	1410.9841	1417.3691	1460.5076	1476.9252	1479.8997	1488.1543	1490.0104	1493.2991	1502.7989	1505.8901	1518.5221	3018.9603	3022.8596	3024.6898	3030.6801	3034.7025	3067.8136	3071.7047	3083.2106	3090.2417	3090.6802	3094.7053	3120.9822	3130.4741	3135.6089
CC12CC(C)(C)CC1O2	C[C@]12CC(C)(C)C[C@H]1O2	
InChI=1S/C8H14O/c1-7(2)4-6-8(3,5-7)9-6/h6H,4-5H2,1-3H3	InChI=1S/C8H14O/c1-7(2)4-6-8(3,5-7)9-6/h6H,4-5H2,1-3H3/t6-,8+/m1/s1
