17
gdb 126017	3.07976	1.73803	1.24294	4.1946	72.83	-0.2155	0.0312	0.2467	998.8234	0.140393	-414.216805	-414.20955	-414.208605	-414.248644	27.735	
C	 0.0924289449	 1.56737123	 0.0909228764	-0.396984
C	-0.0225898629	 0.0433861786	 0.0340973808	 0.013604
C	 0.7424916462	-0.6161531742	-1.1647632676	-0.191199
N	 2.0553122535	-1.0169565894	-0.6019878798	-0.412333
C	 1.8510018732	-1.1566821813	 0.7593710775	 0.459934
N	 2.5270752649	-1.5990142557	 1.7989716859	-0.394294
C	 1.6822853735	-1.2389357887	 2.8240345569	 0.02552
N	 0.5643092002	-0.6141019527	 2.4836936572	-0.285496
N	 0.6827793616	-0.607525343	 1.1250247719	 0.042721
H	 1.1397859637	 1.8794111	 0.0386123178	 0.138764
H	-0.4497507653	 2.0192332304	-0.7454802247	 0.121066
H	-0.3342756354	 1.942375815	 1.0245827651	 0.147444
H	-1.0754994188	-0.2522646683	 0.0266713667	 0.109572
H	 0.1833005679	-1.4861358364	-1.5317255248	 0.118305
H	 0.8735125405	 0.087208888	-1.9905790958	 0.125188
H	 2.5298106524	-1.7778382215	-1.0666291643	 0.257669
H	 1.9096856801	-1.4541269707	 3.8578847209	 0.120519
95.8927	134.3598	245.8763	298.2998	313.9512	415.5801	481.5375	559.5506	664.8132	679.6766	734.0856	754.7836	799.3669	886.796	895.4845	945.535	982.2084	998.4259	1062.6517	1100.7231	1137.5612	1147.0652	1200.4719	1241.4775	1274.8545	1285.389	1304.1982	1342.2711	1378.4356	1388.2547	1409.4006	1456.3037	1490.0057	1498.4341	1511.7201	1550.5046	1623.8261	3020.4927	3043.0072	3067.9147	3096.8178	3118.6951	3130.0709	3255.4815	3603.1683
CC1CNC2=NC=NN12	C[C@H]1CNc2ncnn12	
InChI=1S/C5H8N4/c1-4-2-6-5-7-3-8-9(4)5/h3-4H,2H2,1H3,(H,6,7,8)	InChI=1S/C5H8N4/c1-4-2-6-5-7-3-8-9(4)5/h3-4H,2H2,1H3,(H,6,7,8)/t4-/m0/s1
