21
gdb 58923	2.79793	1.54321	1.20093	1.3438	82.48	-0.2542	0.0729	0.327	1106.5908	0.18246	-387.015048	-387.006712	-387.005768	-387.047863	33.226	
C	 0.0108302176	 1.5401965229	-0.037887932	-0.407784
C	-0.0455277209	 0.0114603183	 0.011681238	-0.028054
O	 0.6957872256	-0.4958141552	 1.1218108749	-0.421861
C	-1.4664479052	-0.5091102523	-0.007547133	 0.383115
C	-2.5787273017	-0.1628103504	-1.0257080044	-0.319383
C	-3.2469717577	-1.1472836197	-0.0538851439	-0.042192
C	-1.9464444847	-2.0067853343	 0.1017687865	-0.079626
C	-2.0295845029	-1.970273803	 1.6402427739	-0.266281
C	-2.4954044069	-0.5668501395	 1.1936830163	-0.10252
H	 1.0504494457	 1.8775242213	-0.0118010165	 0.122932
H	-0.4597104726	 1.9272637753	-0.9467914237	 0.122617
H	-0.5152128328	 1.9753937388	 0.8209852556	 0.107554
H	 0.4768817131	-0.3890694941	-0.867374258	 0.089392
H	 0.3272197466	-0.0991703257	 1.9190863883	 0.280041
H	-2.9512139114	 0.8672709412	-1.0207691067	 0.088618
H	-2.4271547694	-0.510067059	-2.0538156852	 0.089059
H	-4.2675128791	-1.5329206003	-0.0520317803	 0.068553
H	-1.635722274	-2.8214694449	-0.554818406	 0.06737
H	-2.7988817786	-2.6046935195	 2.0936791449	 0.085436
H	-1.0885736768	-2.0458828224	 2.1872701837	 0.099425
H	-2.8309175937	 0.2792353825	 1.7978996174	 0.063588
57.8495	182.3295	190.4451	257.1818	306.4868	327.7911	384.191	404.9877	468.7494	495.8757	639.3079	729.8974	768.2783	863.5213	867.1243	877.9607	892.6094	913.4748	921.9512	991.3323	995.9048	1015.8405	1030.8126	1045.3921	1071.3587	1087.1402	1101.0415	1125.7161	1136.2061	1158.8516	1163.5158	1185.4069	1218.9157	1242.5366	1251.8506	1276.175	1300.7004	1328.8292	1362.7025	1399.5433	1415.9067	1491.8865	1494.7301	1505.2035	1510.288	3021.0888	3028.7748	3029.1998	3043.8077	3082.1467	3084.6532	3094.3982	3098.2073	3106.8033	3120.8006	3122.3821	3800.4328
CC(O)C12CC3C1CC23	C[C@@H](O)[C@@]12C[C@H]3[C@@H]1C[C@@H]23	
InChI=1S/C8H12O/c1-4(9)8-3-5-6(8)2-7(5)8/h4-7,9H,2-3H2,1H3	InChI=1S/C8H12O/c1-4(9)8-3-5-6(8)2-7(5)8/h4-7,9H,2-3H2,1H3/t4-,5-,6-,7+,8-/m1/s1
