23
gdb 115765	3.22452	0.83292	0.72889	2.8185	86.97	-0.2463	-0.0187	0.2276	1631.4328	0.204371	-388.296386	-388.286232	-388.285288	-388.33263	36.626	
C	 0.0552044532	 1.7300492958	 0.1472163593	-0.385319
C	 0.4497472113	 0.269312946	-0.0994882335	-0.197892
C	 0.6525567406	-0.5081068177	 1.1950740032	 0.050329
C	-0.569644801	-0.8161208407	 2.1068439962	-0.226858
C	 0.0465470989	-2.2073156549	 2.4123569083	-0.229878
C	 0.9767459304	-2.0415875898	 1.1732974858	-0.034694
C	 0.4869580626	-2.8072093578	-0.0680410725	-0.283621
C	 0.7649404169	-4.2835994829	 0.0877072922	 0.160244
O	-0.0758788879	-5.139111941	 0.19823249	-0.24217
H	 0.8297416064	 2.2588211443	 0.7137916201	 0.114323
H	-0.094399787	 2.2664502387	-0.7947255726	 0.11288
H	-0.8760983132	 1.7964093477	 0.7197670728	 0.120823
H	-0.3243337487	-0.2156238573	-0.7075418221	 0.095666
H	 1.3728116026	 0.2364137504	-0.6942855866	 0.092746
H	 1.4263109802	-0.0069529292	 1.7902019765	 0.070456
H	-0.7515531569	-0.1484279303	 2.9520317185	 0.097693
H	-1.4961731393	-0.8948138928	 1.5285557208	 0.10137
H	 0.6102021399	-2.212748056	 3.3489775557	 0.101827
H	-0.6261195701	-3.0685297136	 2.4081164361	 0.113941
H	 2.0319421042	-2.2835939884	 1.342251215	 0.067057
H	-0.5861074271	-2.6721863717	-0.2316852443	 0.118518
H	 1.0252341286	-2.4492501908	-0.9564469416	 0.112492
H	 1.8501172854	-4.543053308	 0.1222893527	 0.070066
46.9851	66.7904	109.1466	118.0736	132.6143	216.7205	249.9704	286.3478	361.7212	410.311	479.4368	521.06	676.8621	749.7354	782.1362	795.1874	886.5265	900.1939	920.2635	943.8827	945.3116	977.7215	999.3182	1039.0837	1051.7634	1098.1561	1136.3432	1143.0203	1181.1496	1212.4147	1219.1085	1248.5112	1261.8447	1272.5292	1289.6394	1297.4816	1300.1883	1344.5698	1377.6036	1392.7237	1411.2434	1429.3019	1466.1551	1483.5186	1487.8654	1499.5839	1503.1571	1507.2616	1831.007	2847.3574	3011.183	3017.2222	3020.1939	3031.7122	3037.24	3048.6609	3051.2022	3062.6955	3097.6305	3099.4794	3100.1021	3104.7058	3117.4952
CCC1CCC1CC=O	CC[C@H]1CC[C@H]1CC=O	
InChI=1S/C8H14O/c1-2-7-3-4-8(7)5-6-9/h6-8H,2-5H2,1H3	InChI=1S/C8H14O/c1-2-7-3-4-8(7)5-6-9/h6-8H,2-5H2,1H3/t7-,8-/m0/s1
