15
gdb 12902	3.50276	1.82292	1.55469	5.0357	66.05	-0.2556	0.0284	0.2841	858.2747	0.118526	-362.637994	-362.630666	-362.629721	-362.669464	27.126	
C	-0.0655433087	 1.508891189	 0.031991068	-0.489045
C	 0.0352096495	 0.0214254642	 0.0993061803	 0.45607
O	-1.1586929268	-0.7388419473	-0.0498744125	-0.305833
C	-0.6814991692	-1.7129502479	 0.9233808214	-0.104451
C	 0.6477715374	-0.9813799356	 1.046071768	-0.191326
C	 1.2395038962	-0.7933259854	-0.3534170436	-0.259956
C	 1.1558005378	-1.8076243573	-1.3672829263	 0.310627
N	 1.0850622814	-2.6298222283	-2.1779809679	-0.345943
H	 0.907207224	 1.9724023098	 0.216865799	 0.130832
H	-0.4100321538	 1.8187298998	-0.9602537892	 0.14924
H	-0.7797341491	 1.8789867939	 0.7732983739	 0.13936
H	-1.2858211261	-1.666935471	 1.8343938422	 0.122299
H	-0.6706997014	-2.7305037741	 0.5211618408	 0.136857
H	 1.2514711929	-0.8643194614	 1.9357699934	 0.116111
H	 2.1719075758	-0.2366511084	-0.3505432876	 0.135159
131.5545	142.4246	197.3636	241.2284	320.388	383.136	397.4691	573.6043	592.0101	680.2583	774.5504	791.8374	874.5857	926.073	959.5452	973.6394	988.7614	1010.6228	1083.3475	1101.6321	1115.027	1162.0632	1198.0796	1247.6523	1315.2258	1341.9859	1407.6385	1460.1206	1474.0282	1496.4656	1513.7688	2352.512	3041.305	3047.6459	3103.5819	3109.8474	3124.2881	3164.3979	3207.3717
CC12OCC1C2C#N	C[C@]12OC[C@H]1[C@H]2C#N	
InChI=1S/C6H7NO/c1-6-4(2-7)5(6)3-8-6/h4-5H,3H2,1H3	InChI=1S/C6H7NO/c1-6-4(2-7)5(6)3-8-6/h4-5H,3H2,1H3/t4-,5+,6-/m1/s1
