14
gdb 132292	1.96566	1.88509	0.96275	1.7778	71.03	-0.2002	-0.0135	0.1867	1114.5402	0.102789	-474.207133	-474.199646	-474.198702	-474.238964	29.21	
N	 0.0428706417	 1.3526285139	 0.148457991	-0.566278
C	-0.0329237532	-0.0123594394	 0.0576394006	 0.390607
C	-1.2076795748	-0.7115937521	 0.0350074252	-0.22526
C	-1.2190598867	-2.1481387504	-0.0009375053	 0.380234
N	-2.2767387474	-2.8711724674	-0.0198059635	-0.566184
N	 0.1046973867	-2.6857273586	-0.015867291	-0.433055
C	 1.1938215037	-1.8937790767	-0.0033281932	 0.410843
F	 2.3298098408	-2.5693023062	-0.0346991493	-0.058558
N	 1.2182271579	-0.6201175418	 0.0318106117	-0.41547
H	 0.927997382	 1.75443388	-0.1159800091	 0.263781
H	-0.7742746962	 1.8876869959	-0.0943393153	 0.260464
H	-2.167558558	-0.2137302071	 0.0516932265	 0.099943
H	-2.060447168	-3.8674900967	-0.0463787944	 0.19341
H	 0.2325942615	-3.6866637234	-0.0444131439	 0.265523
157.3994	182.065	218.0781	332.8594	352.2397	432.265	437.5989	513.7872	539.186	541.6013	593.4559	638.5113	674.8575	692.6014	748.8006	776.8909	832.9834	953.1052	985.7182	1057.1514	1130.2163	1141.4312	1268.1158	1289.9741	1325.208	1451.4189	1504.6961	1611.9019	1658.5622	1695.4142	1746.943	3224.0394	3473.2381	3598.2252	3620.5091	3718.0536
NC1=CC(=N)NC(F)=N1	N[C@@H]1C=C([NH])NC(=N1)F	
InChI=1S/C4H5FN4/c5-4-8-2(6)1-3(7)9-4/h1H,(H4,6,7,8,9)	InChI=1S/C4H6FN4/c5-4-8-2(6)1-3(7)9-4/h1-2,7H,6H2,(H,8,9)/t2-/m0/s1
