23
gdb 78025	2.32031	1.46828	1.2511	1.319	85.34	-0.2217	0.0795	0.3012	1182.5233	0.205333	-388.29139	-388.281753	-388.280809	-388.325221	36.75	
C	 0.3176104817	 2.055266531	 0.2093094121	-0.422357
C	 0.3011923974	 0.5418585608	 0.1678293387	-0.072211
C	 0.6107536927	-0.3566933635	-1.0336624352	-0.151463
C	 1.3954900018	 0.1397789911	-2.2408875405	 0.000824
C	 0.6624845558	 1.0884950319	-3.1939951262	-0.405955
C	 2.6673519083	 0.7560322021	-1.6053531461	-0.105261
O	 2.7454509576	 0.3189108115	-0.2489268571	-0.300455
C	 1.5447516084	-0.3182222128	 0.1437532636	 0.414367
C	 1.796367891	-1.4325270326	 1.1212681708	-0.461085
H	-0.5482009471	 2.4830551305	-0.30789303	 0.115137
H	 0.2804009904	 2.3986502713	 1.2491790305	 0.116823
H	 1.2212762651	 2.477506657	-0.231266636	 0.130099
H	-0.495531519	 0.1166325497	 0.7762753776	 0.079936
H	-0.0487599465	-1.2042189889	-1.1915985192	 0.080663
H	 1.6869456169	-0.7527621167	-2.8094036429	 0.07745
H	 0.3361525774	 1.9971122876	-2.6795892756	 0.121932
H	 1.3094120443	 1.3871276261	-4.0265731292	 0.112733
H	-0.2236882535	 0.6082091555	-3.6207837958	 0.115334
H	 3.585203772	 0.4461039306	-2.118756641	 0.101567
H	 2.6256994321	 1.8530368369	-1.6439459191	 0.09472
H	 2.2821201795	-1.0508443464	 2.0257610291	 0.12571
H	 0.8563361004	-1.9074173744	 1.4157734795	 0.113277
H	 2.4504468331	-2.1941799483	 0.6839086222	 0.118213
111.6887	140.9358	173.0867	194.3653	210.5418	216.1524	234.1296	277.9009	349.7107	383.9058	516.4667	551.7471	626.8419	658.8384	707.3284	772.2009	832.5614	901.8478	916.2652	944.4393	956.4723	988.7775	1014.4273	1057.2198	1062.5267	1095.6059	1121.8733	1134.0417	1140.8227	1169.1842	1186.6644	1233.1703	1237.6247	1268.2538	1330.9196	1348.2689	1358.1104	1401.0544	1411.7596	1414.557	1416.7594	1464.0841	1479.0608	1489.6127	1495.4782	1499.8813	1501.3359	1507.0315	1537.3162	3005.68	3012.6592	3032.8124	3033.338	3035.1881	3049.7507	3084.985	3096.0471	3096.2716	3110.854	3115.2222	3116.3411	3144.6608	3154.0185
CC1C2C(C)COC12C	C[C@H]1[C@H]2[C@@H](C)CO[C@@]12C	
InChI=1S/C8H14O/c1-5-4-9-8(3)6(2)7(5)8/h5-7H,4H2,1-3H3	InChI=1S/C8H14O/c1-5-4-9-8(3)6(2)7(5)8/h5-7H,4H2,1-3H3/t5-,6-,7+,8-/m0/s1
