19
gdb 61983	3.6117	0.70605	0.6071	7.0567	76.94	-0.258	0.0182	0.2762	1767.0669	0.157766	-419.266489	-419.255833	-419.254889	-419.303927	36.723	
C	 0.1364197447	 1.5671432396	 0.0618356188	-0.389691
C	-0.0183557565	 0.0400318084	-0.0865042725	-0.151731
C	-1.4834478965	-0.4478373562	-0.0215050941	-0.168631
C	-2.1540791269	-0.1793740557	 1.3280486393	-0.335676
C	-3.4659519695	-0.9587741779	 1.4650760686	 0.414833
N	-4.3781948175	-0.3970507704	 2.3093392518	-0.522762
O	-3.6737227528	-2.004282045	 0.8823153255	-0.351625
C	 0.5957723063	-0.4021164694	-1.3441471305	 0.268687
N	 1.0749579159	-0.7390111029	-2.3405140045	-0.32185
H	 1.1844709851	 1.8638775437	-0.0241441228	 0.139979
H	-0.4301554162	 2.0896538478	-0.7145882222	 0.137244
H	-0.2306599417	 1.8934123517	 1.0379981498	 0.123225
H	 0.5417288786	-0.4463453954	 0.7238783609	 0.125025
H	-2.0560199124	 0.0286894612	-0.8251282243	 0.120633
H	-1.5239951375	-1.5231525526	-0.2102675811	 0.151235
H	-1.4984125559	-0.5132167844	 2.14492568	 0.130319
H	-2.3325704582	 0.8890136576	 1.4893961075	 0.108015
H	-4.1913076637	 0.4442136397	 2.8252472312	 0.2586
H	-5.2276106252	-0.90367489	 2.4984388085	 0.264175
24.825	64.3627	90.1412	117.7461	147.2841	195.3871	217.8409	251.0841	294.8605	369.3417	436.6113	515.3934	553.0922	573.5634	616.2076	671.9374	781.3498	817.9508	870.4414	925.2918	956.8357	1056.8894	1068.455	1088.252	1116.2373	1139.0679	1215.7493	1254.5831	1307.3594	1315.7862	1341.2712	1372.4698	1409.34	1413.4262	1467.2356	1491.561	1495.9671	1503.7486	1618.4913	1801.3196	2357.2167	3016.0903	3019.3312	3048.9986	3054.8139	3071.582	3115.8767	3124.4591	3129.1827	3603.8348	3741.0898
CC(CCC(N)=O)C#N	C[C@@H](CCC(=O)N)C#N	
InChI=1S/C6H10N2O/c1-5(4-7)2-3-6(8)9/h5H,2-3H2,1H3,(H2,8,9)	InChI=1S/C6H10N2O/c1-5(4-7)2-3-6(8)9/h5H,2-3H2,1H3,(H2,8,9)/t5-/m0/s1
