14
gdb 5023	3.35155	2.33199	1.38681	2.8634	67.17	-0.2356	-0.0283	0.2072	841.3165	0.109115	-378.756978	-378.750217	-378.749273	-378.787916	25.241	
C	 0.0768659523	 1.5014144345	 0.0277976229	-0.473976
C	-0.0058720661	 0.0065323203	 0.0062845929	 0.202828
C	-0.1263878217	-0.6927802451	-1.128972069	-0.035166
O	-0.202821295	-2.0616362838	-1.1625373343	-0.185183
C	-0.1492286987	-2.6865926542	 0.036591465	 0.125518
N	-0.036978919	-2.1498131376	 1.1807654841	-0.310619
C	 0.0456982393	-0.7384469939	 1.2721850382	 0.276268
N	 0.1609609241	-0.1261915479	 2.3878619398	-0.518215
H	 1.0085409242	 1.8224182902	 0.5038692019	 0.150492
H	 0.0247614151	 1.9222016955	-0.9800879119	 0.112734
H	-0.7343115104	 1.9169000763	 0.63360626	 0.150547
H	-0.1761843643	-0.272339456	-2.1249564561	 0.138518
H	-0.216784306	-3.7630912718	-0.0920489385	 0.145696
H	 0.1789903962	-0.8148570764	 3.1430156751	 0.220559
109.076	184.1958	274.5479	288.7412	410.914	470.5516	496.1787	512.8887	601.6667	744.3328	780.7687	885.7043	886.2389	921.3184	971.4203	998.3769	1020.319	1068.8464	1082.1705	1186.749	1229.9071	1345.1225	1406.1028	1416.3391	1432.7601	1465.9233	1483.9621	1656.4055	1691.754	1730.0807	3041.753	3104.5784	3121.8128	3187.6212	3224.9323	3462.0865
CC1=COC=NC1=N	CC1=C(N=COC1)[NH]	
InChI=1S/C5H6N2O/c1-4-2-8-3-7-5(4)6/h2-3,6H,1H3	InChI=1S/C5H7N2O/c1-4-2-8-3-7-5(4)6/h3,6H,2H2,1H3
