19
gdb 26497	3.54344	1.14535	1.04744	0.7498	80.77	-0.2189	0.022	0.2409	1215.902	0.159813	-385.907631	-385.899393	-385.898449	-385.940945	31.785	
C	-0.1453022033	 1.4744361456	 0.2799749802	-0.457119
C	 0.0071872939	-0.0189545839	 0.0316124681	 0.243067
C	 1.3726967623	-0.5196583897	-0.3962570445	-0.289681
C	 0.8625729975	-0.809099724	 0.9945404574	-0.306924
C	-1.1930012901	-0.6757970932	-0.5557894077	 0.183328
C	-2.0016535448	-1.6092004052	 0.016821124	-0.104748
O	-3.0157161481	-1.9610123413	-0.8196298741	-0.145383
C	-2.8565707844	-1.2301009893	-1.9540586059	 0.007406
C	-1.7670826826	-0.4284764964	-1.8552176517	-0.295221
H	 0.7761227039	 1.8996589598	 0.690517071	 0.110316
H	-0.3762083287	 2.0091560614	-0.6479809727	 0.117252
H	-0.9569351399	 1.6731513928	 0.9881415452	 0.119957
H	 1.4138779752	-1.3433943394	-1.0999203075	 0.114985
H	 2.166586688	 0.2110647844	-0.5114671911	 0.107867
H	 1.30962183	-0.276038456	 1.8270062116	 0.108537
H	 0.578248154	-1.8299777591	 1.2222488533	 0.111582
H	-1.992405193	-2.10285755	 0.9743258591	 0.132878
H	-3.5896613534	-1.3990647146	-2.7256413723	 0.133699
H	-1.3993454665	 0.2521436682	-2.6075487723	 0.108201
40.733	139.2629	178.66	231.9291	296.334	324.2857	398.049	484.0019	522.4638	622.021	682.1846	736.1214	785.5422	793.1437	827.7909	833.7709	867.4335	892.459	940.1087	950.41	976.5759	1041.0785	1051.6372	1068.5864	1082.0135	1095.6126	1120.0018	1189.175	1191.116	1201.0743	1256.0903	1300.3632	1367.3047	1391.568	1414.6067	1464.1723	1488.7564	1496.397	1504.3811	1541.8703	1632.0902	3026.6898	3091.7816	3100.5482	3129.1908	3135.657	3210.9379	3224.8691	3250.3486	3275.658	3283.1149
CC1(CC1)C1=COC=C1	CC1(CC1)c1cocc1	
InChI=1S/C8H10O/c1-8(3-4-8)7-2-5-9-6-7/h2,5-6H,3-4H2,1H3	InChI=1S/C8H10O/c1-8(3-4-8)7-2-5-9-6-7/h2,5-6H,3-4H2,1H3
