15
gdb 125314	3.61613	1.15268	0.8788	3.754	73.94	-0.2428	-0.0379	0.2049	1247.1341	0.112746	-453.991956	-453.983723	-453.982779	-454.025052	29.803	
C	-0.0539748692	 1.5733280673	 0.0023829053	-0.50242
C	 0.0004428297	 0.0811159737	-0.0350541058	 0.080206
C	-0.07603418	-0.7741490382	-1.0954181975	-0.08071
N	 0.0244847013	-2.0614060253	-0.6115912914	-0.03002
C	-0.010029046	-3.2223223026	-1.3797473673	 0.188471
O	 0.0774308073	-4.3399541952	-0.9557269401	-0.273493
N	 0.166278731	-2.0786137154	 0.7506998768	-0.349437
C	 0.1507764857	-0.8076176517	 1.0802951049	 0.412049
O	 0.2662713661	-0.3914785056	 2.3503105736	-0.414931
H	 0.8600889334	 1.993410623	 0.4357296533	 0.143333
H	-0.1752443155	 1.9890509826	-1.000936835	 0.12806
H	-0.8883710511	 1.9249883648	 0.6187324778	 0.143335
H	-0.1928600785	-0.5860465741	-2.1517239445	 0.150875
H	-0.1307420797	-2.9644876746	-2.4490760549	 0.091674
H	 0.3536004855	-1.1768769986	 2.9071658848	 0.313008
98.2797	107.0599	192.0413	233.2783	236.0976	272.4751	380.626	449.8625	478.9823	535.6129	611.8451	638.7543	734.6702	752.8006	803.4617	853.317	985.0409	1014.825	1020.7857	1066.7731	1189.2865	1210.2674	1260.1595	1316.2985	1396.6378	1423.6455	1452.3212	1472.7809	1479.1649	1506.6372	1566.5635	1667.3343	1842.5713	2958.4137	3036.4926	3088.8715	3120.2874	3254.3962	3781.1317
CC1=CN(C=O)N=C1O	Cc1cn(C=O)nc1O	
InChI=1S/C5H6N2O2/c1-4-2-7(3-8)6-5(4)9/h2-3H,1H3,(H,6,9)	InChI=1S/C5H6N2O2/c1-4-2-7(3-8)6-5(4)9/h2-3H,1H3,(H,6,9)
