17
gdb 15584	2.78856	2.04194	1.41602	4.129	68.07	-0.2691	0.0265	0.2956	914.383	0.143277	-363.88931	-363.88144	-363.880496	-363.922518	28.34	
C	-0.1513519717	 1.5318240533	-0.0882224034	-0.420104
C	 0.0663189429	 0.0349126203	 0.0147051458	 0.131297
O	 0.8720672219	-0.4071531655	-1.060822057	-0.243045
C	 1.2496718166	-1.7436199091	-0.773585792	-0.071846
C	 1.428451476	-1.8305862965	 0.7655526815	-0.255716
C	 0.811197327	-0.4945303541	 1.2803754527	-0.168955
C	 1.8389070766	 0.4313749791	 1.7522515696	 0.283804
N	 2.6512707748	 1.1615871573	 2.1311600411	-0.335854
H	 0.8019364789	 2.0648023089	-0.0571858283	 0.153439
H	-0.6545144121	 1.7674130623	-1.029292063	 0.131718
H	-0.7771442742	 1.8862881802	 0.7361253659	 0.123015
H	-0.9075056448	-0.4861794746	-0.0102925275	 0.071941
H	 0.4683901905	-2.4426571183	-1.1087733259	 0.097078
H	 2.1653436674	-1.9594488455	-1.3283296532	 0.121409
H	 0.8984621131	-2.6880773735	 1.1847447274	 0.117907
H	 2.4771993546	-1.9139042512	 1.0523078325	 0.138712
H	 0.1085501625	-0.661978073	 2.1013919438	 0.125201
25.6618	155.6202	174.6452	223.4262	230.5824	317.4867	436.5641	487.568	589.8568	680.2182	709.2348	792.3868	848.4369	884.4576	910.5125	942.1221	1007.0047	1046.1181	1087.0223	1113.3679	1148.5141	1169.0014	1208.4272	1234.7433	1265.1866	1310.9236	1324.3624	1364.1258	1386.1234	1398.3985	1422.1414	1483.6698	1496.5765	1499.1566	1523.2925	2353.9097	2941.3807	2988.3294	3051.4176	3074.431	3086.1298	3101.4032	3124.6698	3136.0729	3136.6203
CC1OCCC1C#N	C[C@H]1OCC[C@H]1C#N	
InChI=1S/C6H9NO/c1-5-6(4-7)2-3-8-5/h5-6H,2-3H2,1H3	InChI=1S/C6H9NO/c1-5-6(4-7)2-3-8-5/h5-6H,2-3H2,1H3/t5-,6+/m1/s1
