19
gdb 34644	3.32587	1.17178	0.91243	0.933	92.1	-0.222	-0.0115	0.2106	1284.9007	0.15962	-348.7343	-348.725744	-348.7248	-348.767602	33.07	
C	 0.0635451036	-1.2580150472	-0.1649488703	-0.433761
C	-0.0245239082	-0.0599220032	-0.0626625554	 0.243781
C	-0.0617206502	 1.3617890707	 0.0602597391	 0.110227
C	-1.2582920921	 1.9774357469	 0.0632635464	-0.103249
C	-1.5958111846	 3.4413063624	 0.1236535152	-0.240883
C	-0.4492578949	 4.4242214218	-0.1645575047	-0.263374
C	 0.6589132528	 4.3378822941	 0.8528262781	-0.051214
C	 1.4267350816	 3.2613789741	 0.9995283189	-0.052417
C	 1.3195427999	 2.0139731537	 0.1536888704	-0.354719
H	 0.1202488764	-2.3140571531	-0.2568404442	 0.191584
H	-2.1275690735	 1.325778231	 0.0044296745	 0.091982
H	-2.411061437	 3.622207036	-0.5906033279	 0.105856
H	-2.0267642039	 3.6643512056	 1.111526859	 0.117102
H	-0.0547955213	 4.2163008193	-1.1687786744	 0.111955
H	-0.8558466115	 5.4396629929	-0.1970286329	 0.098131
H	 0.8131259659	 5.1942902138	 1.5043967984	 0.087502
H	 2.203825001	 3.2595119571	 1.7593842079	 0.090414
H	 2.0093007294	 1.2582076275	 0.5372351978	 0.120305
H	 1.6709978368	 2.2266621465	-0.8683279759	 0.130778
53.7577	147.8156	160.0029	230.2201	288.6165	337.4438	381.1115	461.2596	532.9259	543.7703	573.4833	590.9759	635.5152	661.9797	702.0717	813.9446	871.7807	875.1445	916.0297	941.2202	972.2492	992.0255	1026.9975	1065.9297	1096.5592	1132.2174	1195.4372	1225.3622	1246.5914	1277.887	1338.6621	1363.3277	1380.0025	1387.5142	1418.7759	1467.9953	1472.2872	1492.4633	1694.3961	1731.438	2213.0289	2986.5686	2994.2893	3010.9845	3027.6142	3075.8332	3088.3947	3147.3448	3147.9186	3171.4933	3504.2888
C#CC1=CCCC=CC1	C#CC1=CCCC=CC1	
InChI=1S/C9H10/c1-2-9-7-5-3-4-6-8-9/h1,3,5,8H,4,6-7H2	InChI=1S/C9H10/c1-2-9-7-5-3-4-6-8-9/h1,3,5,8H,4,6-7H2
