18
gdb 125961	2.98097	1.68297	1.13343	3.6351	76.82	-0.2474	0.019	0.2664	1068.2353	0.151955	-398.17406	-398.166682	-398.165737	-398.206041	28.083	
C	-0.0425917223	 1.5900669484	-0.0220152871	-0.396169
C	 0.0347516925	 0.0634718411	 0.0449714826	-0.131493
C	 0.7952999141	-0.5989111475	-1.1529342028	-0.229279
C	 1.5550659746	-1.8297472936	-0.5812250541	-0.184231
N	 1.6218731205	-1.4743654381	 0.8237011409	 0.060588
N	 2.2820675401	-1.9984614245	 1.8768914055	-0.27933
C	 1.8199114957	-1.2371176235	 2.8662554714	 0.015164
N	 0.9087226329	-0.2815904552	 2.511501955	-0.372856
C	 0.8128128248	-0.4751946448	 1.2077464637	 0.401941
H	 0.9585790834	 2.0293011704	-0.0767682009	 0.124133
H	-0.6077858345	 1.9121417386	-0.9021161395	 0.116396
H	-0.5358960376	 1.988477028	 0.8685026771	 0.142635
H	-0.9874058623	-0.3360599505	 0.0948753446	 0.104955
H	 0.1263641067	-0.8766168241	-1.969543507	 0.117024
H	 1.5205902467	 0.1185745982	-1.5490227235	 0.121958
H	 1.0029364623	-2.767287485	-0.7120836538	 0.129619
H	 2.5533158114	-1.9569445199	-1.0059804548	 0.137203
H	 2.1582645512	-1.3742051578	 3.8828641226	 0.121742
104.1728	164.9691	203.0999	222.8196	277.3641	431.4219	486.1917	572.5934	653.3669	680.7341	750.8018	762.9453	832.2978	900.5814	916.1843	957.0535	981.0196	998.2163	1048.0368	1108.1277	1138.7902	1144.372	1189.481	1212.3215	1233.072	1284.5843	1302.1036	1306.528	1318.5092	1358.5776	1362.9723	1411.9619	1431.1406	1486.0835	1494.0683	1498.9808	1504.2508	1534.0337	1569.1124	3010.9076	3039.2999	3043.6641	3061.5616	3103.459	3109.5563	3120.5144	3123.1486	3255.6796
CC1CCN2N=CN=C12	C[C@H]1CCn2ncnc12	
InChI=1S/C6H9N3/c1-5-2-3-9-6(5)7-4-8-9/h4-5H,2-3H2,1H3	InChI=1S/C6H9N3/c1-5-2-3-9-6(5)7-4-8-9/h4-5H,2-3H2,1H3/t5-/m0/s1
