19
gdb 23285	3.9867	1.09397	1.04744	0.992	79.64	-0.2271	0.0168	0.2439	1215.4546	0.160306	-419.129079	-419.121019	-419.120075	-419.161422	31.856	
C	-0.1679213944	 1.4801200112	 0.0637206282	-0.432309
C	 0.0215233231	-0.0229025237	-0.0360672397	 0.069997
C	 0.7536752089	-0.6210291798	-1.2897288505	-0.129831
C	 2.0374254516	-0.279437574	-0.4776253694	-0.199187
N	 1.2060728112	-0.5759307014	 0.7591322049	-0.13991
C	 0.979697333	-2.040667153	 0.5600400934	-0.263092
C	 0.6457349374	-2.0766996224	-0.9345555856	 0.453041
N	 0.3478222412	-3.0241255125	-1.7207912691	-0.290261
O	 0.3413182411	-4.2573521181	-1.0264114078	-0.39906
H	 0.7088800636	 2.0520683485	-0.2481033787	 0.122413
H	-1.0100534167	 1.7898786696	-0.5635420733	 0.122246
H	-0.3962532289	 1.7535946195	 1.0984297442	 0.133307
H	-0.9181930597	-0.5181925594	 0.2318543898	 0.081183
H	 0.5657093864	-0.3238689468	-2.3204323847	 0.080229
H	 2.9170737968	-0.9159773264	-0.6033761325	 0.111319
H	 2.3327614628	 0.7681879021	-0.5092803408	 0.115647
H	 1.87743357	-2.6137109667	 0.8069214446	 0.129432
H	 0.1588882989	-2.4009433352	 1.1857946001	 0.130036
H	 0.1083884438	-4.8791153014	-1.7237254931	 0.3048
102.5232	183.8907	195.1421	272.1143	303.8467	327.6828	402.5339	439.7519	485.9478	574.9784	585.4805	658.9367	783.5817	796.4442	825.1237	843.3269	863.1576	956.1386	968.3496	988.2013	1015.0449	1027.6496	1059.4913	1096.763	1102.3612	1166.5072	1190.5249	1198.543	1216.7779	1230.6596	1257.5626	1273.5687	1299.3192	1400.0094	1404.915	1417.3342	1478.622	1491.422	1495.7276	1528.3549	1787.5549	3041.1332	3044.8721	3065.6796	3074.2528	3108.7553	3111.8179	3121.8946	3131.5044	3148.1912	3822.046
CC1C2CN1CC2=NO	C[C@H]1[C@H]2CN1CC2=NO	
InChI=1S/C6H10N2O/c1-4-5-2-8(4)3-6(5)7-9/h4-5,9H,2-3H2,1H3	InChI=1S/C6H10N2O/c1-4-5-2-8(4)3-6(5)7-9/h4-5,9H,2-3H2,1H3/t4-,5+/m0/s1
