14
gdb 9863	5.82145	0.93409	0.85891	6.1679	77.76	-0.268	-0.0421	0.2258	1288.0466	0.106841	-341.546621	-341.538649	-341.537705	-341.579315	28.405	
C	-0.0507541655	 1.5048995495	 0.0152519773	-0.46395
C	 0.000622756	-0.0134646908	-0.0222543399	 0.046701
C	 0.7421470947	-0.6940159572	-1.1332743175	-0.254616
N	 1.2886045611	-0.7088344697	 0.2243692924	-0.316299
C	-1.1463193748	-0.6727766842	 0.545326355	 0.147273
C	-2.1341097178	-1.1924494199	 1.0096043375	 0.058712
C	-3.2449346171	-1.7871290021	 1.5333587333	 0.197837
N	-4.1932100039	-2.2906404782	 1.9778799258	-0.337391
H	 0.8328633376	 1.9241609919	-0.4756935026	 0.122942
H	-0.9395042521	 1.8791901558	-0.501044207	 0.145901
H	-0.0812976066	 1.8672546919	 1.0471957598	 0.144751
H	 0.3978848512	-1.6564642908	-1.4978591552	 0.140599
H	 1.1906874889	-0.0482259519	-1.8840021233	 0.126396
H	 2.0226029082	-0.0100260543	 0.3208195044	 0.241144
82.3972	100.3168	210.3563	228.896	262.1669	318.1648	352.9499	510.1742	533.0228	563.685	591.2655	603.3962	801.7943	826.9599	931.1667	973.3946	997.6211	1053.8528	1084.356	1129.4795	1155.5887	1256.8337	1313.9463	1375.3152	1413.5552	1479.919	1500.0391	1505.939	2264.2001	2396.4684	3038.8713	3111.7956	3114.6456	3116.0699	3207.1356	3491.9735
CC1(CN1)C#CC#N	C[C@]1(CN1)C#CC#N	
InChI=1S/C6H6N2/c1-6(5-8-6)3-2-4-7/h8H,5H2,1H3	InChI=1S/C6H6N2/c1-6(5-8-6)3-2-4-7/h8H,5H2,1H3/t6-/m1/s1
