18
gdb 100743	2.50805	1.18462	0.86411	4.1304	64.07	-0.2535	0.0087	0.2621	1298.0612	0.14745	-513.385462	-513.376063	-513.375118	-513.420012	34.683	
N	-0.3324704786	 0.7628965765	-0.0981827942	-0.557293
H	 0.7590625839	-0.1248052796	 1.0620152914	 0.310462
H	 0.1884658042	 1.4017372585	-0.6875387417	 0.250483
H	-1.1166080355	 0.4184175681	-0.6477274275	 0.259506
C	-0.8181441398	 1.4444817377	 1.1138980464	-0.16412
C	-2.3347590269	 1.2584789615	 1.3840635215	 0.118705
O	-2.7346399854	 2.0469974822	 2.4755893235	-0.44279
C	-3.2086864287	 1.6719201156	 0.1932195035	-0.105857
O	-3.1546248531	 0.7352948979	-0.881767532	-0.410401
C	-0.042388529	 0.9148429673	 2.337365867	 0.440738
O	 0.8626952454	-0.0064519786	 2.0426009866	-0.353163
O	-0.2687216111	 1.2939362644	 3.4667543634	-0.369075
H	-0.6459449026	 2.5268912068	 1.0729457448	 0.116841
H	-2.5208323679	 0.1828151829	 1.5731509147	 0.063972
H	-2.0456381325	 1.9514383406	 3.1570214016	 0.304395
H	-4.2331686733	 1.8100500491	 0.5595534661	 0.122515
H	-2.8696279545	 2.6296042154	-0.2140948793	 0.120811
H	-3.6609755947	-0.0419281362	-0.6236597859	 0.294271
56.5754	90.0017	161.1638	208.4265	251.6543	287.305	334.6927	364.61	377.6557	391.2559	423.6466	506.0987	570.0412	625.404	644.0154	741.0263	855.937	901.6268	950.5381	982.7335	1014.7612	1046.4578	1080.251	1115.7572	1125.2164	1168.9782	1237.5138	1257.2719	1297.3373	1311.1295	1359.1807	1368.4637	1387.6037	1402.8034	1457.8373	1484.6935	1501.5972	1674.0129	1824.4348	2906.2338	3034.4677	3040.9374	3093.0137	3304.6643	3484.9468	3581.3647	3620.384	3817.3975
[NH3+]C(C(O)CO)C([O-])=O	N[C@@H]([C@@H](O)CO)C(=O)O	
InChI=1S/C4H9NO4/c5-3(4(8)9)2(7)1-6/h2-3,6-7H,1,5H2,(H,8,9)	InChI=1S/C4H9NO4/c5-3(4(8)9)2(7)1-6/h2-3,6-7H,1,5H2,(H,8,9)/t2-,3-/m0/s1
