21
gdb 99881	1.79789	1.4296	1.35014	1.3301	83.51	-0.2539	0.0446	0.2985	1178.1759	0.179782	-387.039976	-387.029762	-387.028817	-387.074744	38.509	
C	 0.0362263266	 1.5773006936	 0.1422727107	-0.415085
C	-0.0113634134	 0.0412412373	-0.0223584678	 0.019717
C	 0.7308698349	-0.6097090096	 1.1820472571	-0.063921
O	 0.6726575231	-2.0170158807	 1.1958210138	-0.419499
C	-1.4032120853	-0.4178755318	 0.0173730074	 0.32201
C	-2.533078392	-0.8251932731	 0.1004437148	-0.504205
C	 0.6798755231	-0.3510749885	-1.3333133721	 0.040119
C	 0.3918254726	-1.6290284026	-2.0686968026	-0.267659
C	-0.0240596925	-0.3071779738	-2.6661306328	-0.294412
H	 1.0768993908	 1.9177166609	 0.1664258539	 0.115368
H	-0.4642043881	 2.0684433674	-0.695463675	 0.130913
H	-0.4517707842	 1.8915900097	 1.0691479861	 0.121967
H	 1.7919999841	-0.3453274517	 1.1192301448	 0.105952
H	 0.3312084962	-0.1785816115	 2.1133967352	 0.087595
H	-0.2608451936	-2.2606182695	 1.2077170089	 0.284027
H	-3.5396445223	-1.1603659669	 0.1565292281	 0.201595
H	 1.7182188719	-0.0275304955	-1.3402425919	 0.082281
H	 1.2278054818	-2.1629248078	-2.5061165259	 0.109497
H	-0.393627433	-2.2669540434	-1.6817786256	 0.117135
H	-1.0842236221	-0.0774214966	-2.6686371141	 0.118879
H	 0.5214659415	 0.0779843242	-3.5204870029	 0.107725
67.1959	108.2819	140.0829	164.5838	216.9462	231.2451	256.2685	293.8286	361.4656	396.0594	414.5831	462.3786	581.8478	612.7902	636.1988	644.8085	657.9217	779.0975	829.6511	839.0365	912.3349	933.9263	958.1861	1007.7064	1060.6449	1077.409	1081.4194	1087.0829	1120.741	1138.4091	1177.1789	1189.8117	1198.043	1238.9779	1304.0185	1375.2291	1391.9852	1406.6818	1431.06	1463.3595	1488.7967	1496.2816	1499.5429	1505.1185	2219.4262	2978.7302	3038.4539	3071.4911	3109.7963	3126.6039	3129.0846	3133.7851	3144.1734	3214.6416	3231.7258	3496.7381	3782.2763
CC(CO)(C#C)C1CC1	C[C@@](CO)(C#C)C1CC1	
InChI=1S/C8H12O/c1-3-8(2,6-9)7-4-5-7/h1,7,9H,4-6H2,2H3	InChI=1S/C8H12O/c1-3-8(2,6-9)7-4-5-7/h1,7,9H,4-6H2,2H3/t8-/m0/s1
