18
gdb 124641	4.28296	0.89809	0.8511	4.9008	74.85	-0.233	-0.0307	0.2023	1403.2674	0.147152	-435.229287	-435.220433	-435.219489	-435.263664	32.329	
C	 0.0294795829	 1.5380600221	-0.1461174985	-0.383753
C	-0.0373634221	 0.0118152624	 0.0134209923	 0.043136
C	-1.4787958555	-0.4990585758	 0.0231524946	-0.397093
N	 0.7032827682	-0.7057366701	-1.0303927049	-0.380951
C	 2.0713374149	-0.6421915295	-1.1028827263	 0.397918
N	 2.7347961115	-0.7760783137	-2.228934504	-0.201702
O	 4.0691516084	-0.7458828976	-1.874220561	-0.153098
N	 4.2233716057	-0.5730492006	-0.5378836334	-0.062768
C	 3.0216954224	-0.5071748724	-0.0397961558	-0.09214
H	 1.0651604605	 1.8902677227	-0.1594352911	 0.128388
H	-0.4448999818	 1.8485750842	-1.0838258997	 0.119919
H	-0.4892412087	 2.0386135568	 0.6777264264	 0.120974
H	 0.4260452482	-0.26244209	 0.9690812158	 0.096555
H	-1.9798124216	-0.2636161901	-0.9235694061	 0.11906
H	-1.5078250137	-1.5822575297	 0.1651484683	 0.131436
H	-2.0495900327	-0.0234120002	 0.8251985552	 0.12538
H	 0.2640614944	-0.6855395101	-1.9419772041	 0.247281
H	 2.8673956988	-0.3742423886	 1.0188568223	 0.141458
50.0583	69.116	136.9441	223.514	254.8636	303.0456	325.3886	379.9	444.8495	464.3784	597.0311	621.3481	728.8809	764.1143	850.813	863.1227	913.894	927.797	931.7637	951.0046	976.579	1036.315	1057.2967	1143.4427	1183.481	1197.4851	1237.2198	1337.6679	1355.9367	1399.8644	1418.9856	1425.279	1483.455	1485.2277	1489.3505	1502.3889	1507.3165	1513.5826	1642.2153	3030.3994	3031.1518	3038.2378	3100.3193	3108.1482	3111.8765	3128.8201	3274.1186	3574.2534
CC(C)NC1=NON=C1	CC(C)Nc1nonc1	
InChI=1S/C5H9N3O/c1-4(2)7-5-3-6-9-8-5/h3-4H,1-2H3,(H,7,8)	InChI=1S/C5H9N3O/c1-4(2)7-5-3-6-9-8-5/h3-4H,1-2H3,(H,7,8)
