19
gdb 45431	2.47496	1.6714	1.63899	3.3582	73.61	-0.2264	-0.0176	0.2088	959.5499	0.162178	-423.062947	-423.055639	-423.054694	-423.094815	29.058	
O	-0.0070280101	-0.0387330746	 0.2010777948	-0.325069
C	-0.0198927343	 1.1577650284	 0.0562549097	 0.424593
C	-1.285201954	 2.0120499487	-0.0459061611	-0.32646
C	-0.871421636	 3.4941832167	 0.0144502107	-0.045489
C	-0.0625424555	 3.7417674886	 1.3052659886	-0.218808
C	 1.270962904	 2.9433782875	 1.219226497	-0.236575
C	 1.2252908224	 2.0427699218	-0.0269063794	 0.002519
O	 1.1204383652	 2.8306771583	-1.2164391847	-0.280605
C	 0.0416122146	 3.7746611054	-1.1828753285	-0.060602
H	-1.7987190461	 1.7731930898	-0.9852730209	 0.130764
H	-1.9645995127	 1.7353533248	 0.7673855496	 0.12727
H	-1.7476392108	 4.1478750486	-0.0285043509	 0.074437
H	 0.1352234122	 4.8115209183	 1.4226541906	 0.104788
H	-0.6506112615	 3.4312971061	 2.1751820118	 0.10369
H	 2.1289534569	 3.6147654292	 1.1167004811	 0.115273
H	 1.43955174	 2.3359640334	 2.1136334082	 0.117541
H	 2.1222921842	 1.4318816947	-0.1365373236	 0.094346
H	-0.505634654	 3.6820729996	-2.1296412737	 0.10365
H	 0.4498764956	 4.7945451148	-1.1297494692	 0.094738
73.3273	154.6665	268.9902	332.4697	367.1262	438.5203	496.3235	502.0157	601.0401	623.6399	738.2669	812.077	818.0131	860.0169	874.8971	903.9781	958.5549	966.6366	1009.3819	1035.559	1071.2377	1085.3572	1097.9959	1116.4043	1178.8229	1214.0086	1234.2633	1253.8489	1263.2811	1301.4011	1323.288	1337.7082	1349.0886	1359.6848	1371.575	1404.8804	1444.0277	1477.8114	1500.3034	1525.076	1838.9698	2993.3443	3036.3515	3038.0411	3040.7009	3052.4488	3066.5504	3077.9724	3084.4209	3100.7917	3112.7807
O=C1CC2CCC1OC2	O=C1C[C@H]2CC[C@@H]1OC2	
InChI=1S/C7H10O2/c8-6-3-5-1-2-7(6)9-4-5/h5,7H,1-4H2	InChI=1S/C7H10O2/c8-6-3-5-1-2-7(6)9-4-5/h5,7H,1-4H2/t5-,7+/m1/s1
