20
gdb 96214	2.67789	1.35523	0.95407	5.7531	86.58	-0.2081	-0.0181	0.1901	1242.1432	0.172748	-403.190439	-403.181745	-403.180801	-403.223651	33.259	
C	-0.0059804485	 1.6200021407	-0.1257227787	-0.404021
C	 0.0341580919	 0.0853214162	-0.029697443	-0.092272
C	 0.5827974732	-0.5062589936	-1.3456881063	-0.197049
C	 0.924719525	-1.9929260104	-1.2360100433	-0.180982
N	 1.8626152883	-2.1872672134	-0.1368424104	-0.296666
C	 1.6995947633	-1.477371235	 1.0065670908	-0.029162
C	 0.8582906229	-0.4165331785	 1.1460642339	 0.14724
C	 0.7387660607	 0.1333357931	 2.4827428299	 0.087415
O	-0.0381765295	 0.9962633116	 2.8518116873	-0.32294
H	 1.0046786366	 2.0254922291	-0.2502657771	 0.105527
H	-0.60198592	 1.929397059	-0.9914903982	 0.098391
H	-0.4365248393	 2.0503937235	 0.7778157505	 0.15622
H	-1.0011992378	-0.2609078279	 0.1031225611	 0.086124
H	-0.1409223529	-0.3581702635	-2.1535064073	 0.103097
H	 1.4932956246	 0.0369685033	-1.6272142753	 0.108933
H	 0.0094883307	-2.5816894213	-1.0691392401	 0.1108
H	 1.387013202	-2.3557519819	-2.1589690035	 0.111905
H	 2.3702315804	-3.0544104711	-0.0915085494	 0.252136
H	 2.3019340391	-1.8078698575	 1.8493632926	 0.115393
H	 1.4414946593	-0.3333996825	 3.2160246262	 0.039912
69.925	160.8624	221.0926	245.1235	260.7816	305.8615	342.1365	356.9457	403.8172	450.0024	499.156	583.3233	627.219	734.0013	763.1492	871.2776	911.8495	930.5214	965.6777	988.7596	1026.024	1049.448	1079.6916	1117.6587	1162.1466	1210.8932	1224.9997	1269.0237	1290.8654	1320.0173	1338.3332	1372.5721	1376.491	1394.0313	1406.8248	1451.0586	1479.8762	1492.1932	1502.1898	1514.6916	1533.4552	1677.7515	1761.7203	2819.1826	2984.0158	2992.7356	3028.7919	3034.8781	3076.9644	3082.9918	3091.2117	3158.7405	3162.1824	3652.4506
CC1CCNC=C1C=O	C[C@H]1CCNC=C1C=O	
InChI=1S/C7H11NO/c1-6-2-3-8-4-7(6)5-9/h4-6,8H,2-3H2,1H3	InChI=1S/C7H11NO/c1-6-2-3-8-4-7(6)5-9/h4-6,8H,2-3H2,1H3/t6-/m0/s1
