22
gdb 118525	3.21963	0.74902	0.63817	4.4253	83.48	-0.2673	0.0226	0.2899	1781.0858	0.192742	-404.369454	-404.358597	-404.357653	-404.406199	38.487	
C	-0.0426172804	 1.6022641395	-0.0284675228	-0.380935
C	 0.014949344	 0.0723253017	-0.0590491621	-0.18134
C	-1.366795303	-0.5738427395	 0.1039983548	-0.182937
C	-1.3569635713	-2.1144012112	 0.0843985424	-0.002982
C	-0.8245883793	-2.704519857	 1.4080233006	-0.072357
O	-0.3255741458	-4.0201348792	 1.2931539932	-0.423048
C	-2.7871170976	-2.6173813235	-0.2412339127	-0.36186
C	-2.9384216479	-4.0707429754	-0.2001467548	 0.262561
N	-3.044841364	-5.2211542953	-0.1418574501	-0.319653
H	 0.9518401761	 2.0392435835	-0.1591447497	 0.117792
H	-0.6851408275	 1.9911210893	-0.8262746607	 0.115539
H	-0.4432284312	 1.9651136192	 0.9245411916	 0.116667
H	 0.4537613051	-0.2604892263	-1.0084214547	 0.103212
H	 0.6929728965	-0.2799316722	 0.7270759514	 0.108752
H	-1.8284409103	-0.2287090265	 1.0409371647	 0.098103
H	-2.0177837066	-0.2065889115	-0.7007438584	 0.094023
H	-0.6847473023	-2.4618411718	-0.7093207091	 0.101052
H	 0.0201602148	-2.1013696581	 1.7535782491	 0.113046
H	-1.6072298471	-2.6261682048	 2.1824837344	 0.087357
H	-1.0590041626	-4.6237539727	 1.1311311009	 0.29971
H	-3.499591843	-2.1863109455	 0.4738352103	 0.153252
H	-3.0906062068	-2.2701773026	-1.2350144483	 0.154044
56.7156	66.6101	95.6469	117.4613	149.463	203.6311	247.9728	262.0996	329.96	331.5015	391.9613	398.0376	416.019	503.4466	597.0808	738.3127	834.7917	865.7654	874.9168	906.4855	956.0362	1004.9511	1033.9886	1061.6992	1082.8829	1092.4475	1130.5082	1157.2535	1194.9232	1243.6923	1276.9855	1286.9677	1321.6648	1328.1956	1351.5312	1371.0344	1397.725	1406.3538	1415.9695	1434.8177	1461.7642	1484.5994	1493.3761	1500.9189	1501.8315	1510.6352	2349.3651	2957.3793	3001.1085	3025.8055	3029.1577	3031.3662	3034.5749	3046.7275	3063.5164	3079.3833	3085.4858	3098.7341	3106.4356	3804.068
CCCC(CO)CC#N	CCC[C@@H](CO)CC#N	
InChI=1S/C7H13NO/c1-2-3-7(6-9)4-5-8/h7,9H,2-4,6H2,1H3	InChI=1S/C7H13NO/c1-2-3-7(6-9)4-5-8/h7,9H,2-4,6H2,1H3/t7-/m1/s1
