20
gdb 56887	3.22982	0.90914	0.75691	3.316	79.74	-0.2676	0.0367	0.3043	1497.3346	0.170189	-403.156857	-403.147248	-403.146304	-403.191718	35.323	
C	 0.0026507052	 1.5131752648	-0.1145121928	-0.397338
C	 0.0107150484	-0.0164892027	 0.0695569712	-0.161253
C	 0.6922522782	-0.3847636933	 1.316604578	 0.274345
N	 1.2131714382	-0.6745934272	 2.3070955908	-0.329156
C	-1.4033299341	-0.6159217699	 0.0442051124	 0.047919
C	-2.191540219	-0.5598343411	-1.2951075043	-0.269479
C	-2.7272861915	-1.9724379679	-0.9871897576	 0.141812
O	-2.7922150683	-2.8094539566	-2.1157616119	-0.429548
C	-1.5647654593	-2.1605388886	 0.0284884519	-0.287988
H	 1.0184848179	 1.9155366875	-0.1186588401	 0.137039
H	-0.4748228612	 1.767033505	-1.0646888046	 0.131855
H	-0.5536298285	 1.9976068012	 0.6929848743	 0.136139
H	 0.5849198923	-0.4662106126	-0.7515670288	 0.122056
H	-1.9890981502	-0.1752183975	 0.8574110116	 0.087759
H	-2.9113330936	 0.2463448736	-1.4482477414	 0.105775
H	-1.5169626497	-0.6101241466	-2.1563339342	 0.114193
H	-3.6957084823	-1.9225973396	-0.4691994393	 0.071582
H	-3.1511568581	-3.6605285479	-1.8448116343	 0.284673
H	-0.7166732995	-2.6426288582	-0.4683641658	 0.110649
H	-1.7663927746	-2.6677063024	 0.9740456248	 0.108968
62.2178	82.0426	123.3906	206.0507	229.5471	249.0225	268.8311	340.8026	373.45	417.2246	452.7558	497.7227	576.516	638.8152	778.6209	810.9906	853.9811	927.4884	938.4359	984.4094	1015.7162	1028.4737	1050.1896	1090.5242	1118.9987	1123.5513	1182.0325	1207.7609	1223.8712	1254.3786	1268.6886	1277.7766	1300.3503	1326.4965	1335.6085	1379.5072	1411.2664	1433.7549	1469.6051	1494.5721	1498.7187	1498.9466	2354.0331	2996.6492	3022.3528	3048.0941	3053.0663	3054.9709	3061.515	3118.5215	3122.4401	3124.5157	3128.969	3816.2335
CC(C#N)C1CC(O)C1	C[C@@H](C#N)[C@H]1C[C@@H](O)C1	
InChI=1S/C7H11NO/c1-5(4-8)6-2-7(9)3-6/h5-7,9H,2-3H2,1H3	InChI=1S/C7H11NO/c1-5(4-8)6-2-7(9)3-6/h5-7,9H,2-3H2,1H3/t5-,6-,7+/m0/s1
