23
gdb 63230	2.39942	1.57525	1.31181	0.2685	90.51	-0.2353	0.0293	0.2646	1129.1985	0.206726	-351.167963	-351.159194	-351.15825	-351.200609	35.592	
C	 0.2178449083	 1.4970764748	-0.025562333	-0.407548
C	-0.0535238494	-0.0211137778	-0.0123848326	 0.223299
C	-1.5805336923	-0.2569156386	 0.0728706445	-0.408013
C	 0.4530620425	-0.6409035981	-1.2969996679	-0.068217
C	 1.0558954464	-1.8244577341	-1.3943099394	-0.081005
C	 1.3462966295	-2.7237267663	-0.2232433734	-0.282847
C	 1.2874306718	-2.0042248485	 1.1132108459	-0.036789
C	 2.1120647724	-0.7570041096	 1.3208646591	-0.312806
C	 0.6103499319	-0.6573156803	 1.2088778324	-0.0196
H	 1.2887706214	 1.7062448608	-0.1028414552	 0.115884
H	-0.285037644	 1.9776749262	-0.8725019973	 0.104911
H	-0.1519972678	 1.9659061911	 0.8929361834	 0.10672
H	-2.0911492199	 0.1536583939	-0.8046391131	 0.107396
H	-1.807548271	-1.3256810878	 0.1266182925	 0.115618
H	-1.9990780022	 0.2288553554	 0.962212675	 0.106006
H	 0.2642873561	-0.0637100918	-2.2008154381	 0.076801
H	 1.352573803	-2.1922277012	-2.3739585677	 0.082844
H	 0.6237824494	-3.5538305898	-0.2237753792	 0.109077
H	 2.3291680519	-3.1977863086	-0.3546256986	 0.102951
H	 1.1865323465	-2.6606043625	 1.9726956999	 0.077087
H	 2.5691768155	-0.591802585	 2.2903867934	 0.103573
H	 2.7042649638	-0.4079889434	 0.4808039074	 0.113156
H	 0.0841572262	-0.4508297089	 2.1380466819	 0.071507
92.4646	201.7388	229.3936	251.4271	263.9133	303.2744	340.5206	362.5008	399.3815	506.8606	523.6802	550.638	677.9802	738.144	758.296	822.3268	848.8682	871.1	912.0954	936.4379	942.5117	960.6004	1008.8535	1020.8427	1033.5969	1051.6223	1063.882	1074.7199	1120.7746	1137.4681	1174.0376	1194.1955	1212.6507	1224.1819	1240.9616	1306.2701	1358.715	1366.8613	1392.9642	1404.2456	1413.4881	1434.4348	1479.2895	1481.241	1485.2257	1490.4746	1500.7603	1505.9257	1723.9025	2992.6309	3016.3892	3021.1937	3027.1903	3087.122	3092.9796	3106.359	3108.0816	3123.7762	3127.7023	3129.6607	3143.5494	3157.3679	3212.3468
CC1(C)C=CCC2CC12	CC1(C)C=CC[C@H]2C[C@@H]12	
InChI=1S/C9H14/c1-9(2)5-3-4-7-6-8(7)9/h3,5,7-8H,4,6H2,1-2H3	InChI=1S/C9H14/c1-9(2)5-3-4-7-6-8(7)9/h3,5,7-8H,4,6H2,1-2H3/t7-,8+/m0/s1
