19
gdb 95184	2.41504	1.71992	1.21105	2.6675	75.82	-0.23	-0.0164	0.2136	1071.8406	0.160048	-423.043854	-423.035792	-423.034848	-423.076475	31.375	
C	 0.2323981684	 1.5428655373	-0.0529106021	-0.404124
C	 0.0821467429	 0.0276818381	-0.0371642638	 0.02784
O	 0.7072427606	-0.4928419598	-1.2035604207	-0.260138
C	 0.6793622022	-1.9072316937	-1.2771069499	-0.107396
C	 1.5106787619	-2.5244224992	-0.1697819622	-0.045557
C	 2.7255981146	-1.7832200859	 0.2745580058	-0.292232
C	 1.4787999156	-1.788537313	 1.1621191592	-0.127031
C	 0.6113261652	-0.5868277879	 1.2709775314	 0.371209
O	 0.2514417932	-0.1425382398	 2.3401979165	-0.336875
H	 1.290218223	 1.8202202898	-0.0828645129	 0.125324
H	-0.2607238192	 1.963003724	-0.9325492752	 0.123184
H	-0.2143957243	 1.958839896	 0.851640562	 0.145359
H	-0.992884944	-0.2315056066	-0.0554929737	 0.097732
H	-0.3587780218	-2.2773520953	-1.2305047963	 0.095149
H	 1.0851907159	-2.1664038339	-2.2604675681	 0.115669
H	 1.5166786726	-3.6095347378	-0.1323796036	 0.098353
H	 3.5705434777	-2.3436987655	 0.6568355151	 0.124668
H	 2.9749923723	-0.8662995816	-0.2446465471	 0.140859
H	 1.5467857631	-2.3533950552	 2.0849034855	 0.108006
63.7443	178.8439	213.8049	274.4817	296.5041	331.2997	400.8482	436.5344	479.0137	534.559	623.3654	699.5403	770.2019	779.4702	844.6908	881.6944	916.5704	943.6799	988.4764	1051.7143	1053.3585	1081.1759	1097.2794	1118.2425	1125.2545	1148.8825	1155.5932	1194.299	1252.4686	1288.2003	1335.2593	1342.7732	1364.3378	1385.2184	1397.2114	1412.1427	1483.0856	1488.3523	1496.0916	1500.4297	1791.9865	2934.6807	2966.0959	3052.7618	3071.7739	3124.9448	3149.7198	3150.3997	3158.2247	3180.6583	3242.906
CC1OCC2CC2C1=O	C[C@H]1OC[C@H]2C[C@H]2C1=O	
InChI=1S/C7H10O2/c1-4-7(8)6-2-5(6)3-9-4/h4-6H,2-3H2,1H3	InChI=1S/C7H10O2/c1-4-7(8)6-2-5(6)3-9-4/h4-6H,2-3H2,1H3/t4-,5-,6-/m1/s1
