19
gdb 61248	3.35855	0.83497	0.7959	1.2903	78.11	-0.2576	0.0461	0.3037	1513.8866	0.155308	-422.968171	-422.957862	-422.956918	-423.004106	36.94	
C	 0.3720262084	 1.5860773353	-0.4182654757	-0.421889
C	 0.156995121	 0.1414285297	-0.0510634914	 0.079673
O	 1.3201198126	-0.6863365444	 0.1140319646	-0.266566
C	 0.4813067405	-0.4626796616	 1.2502412918	 0.03209
C	 1.0898552943	 0.2762164291	 2.427807049	 0.094113
O	 0.0801260408	 0.6283768125	 3.3578901502	-0.42015
C	 2.2145159306	-0.5759975577	 3.0563099778	-0.390464
C	 2.8735438591	 0.0739460756	 4.1802311308	 0.306955
C	 3.4163837869	 0.6200017246	 5.1026353844	-0.436063
H	 1.1914654211	 2.0353139892	 0.1457516667	 0.133097
H	 0.6112660615	 1.6695869584	-1.4833877856	 0.130839
H	-0.5393541972	 2.1636855385	-0.2314652657	 0.131007
H	-0.6365330963	-0.3500003801	-0.6181844197	 0.091455
H	-0.1005908495	-1.3402083309	 1.5521314795	 0.078955
H	 1.5226947971	 1.2229354213	 2.0960259231	 0.105886
H	-0.2013234182	-0.1701053017	 3.8182433231	 0.282976
H	 1.7917840539	-1.5402093035	 3.376916139	 0.117243
H	 2.9405691878	-0.8098832506	 2.2686806758	 0.155649
H	 3.8963669256	 1.1001829762	 5.9188372524	 0.195194
47.847	68.8372	106.3524	157.8321	195.9776	208.9069	235.0338	335.4347	348.648	389.6332	407.8225	444.7397	526.8358	592.034	619.8053	640.4461	784.1476	849.7813	866.0696	959.2704	972.6806	992.606	1030.9826	1079.8614	1105.9767	1114.4648	1170.5007	1180.1259	1190.3604	1268.0158	1294.2957	1319.1488	1359.26	1399.8335	1414.3827	1423.38	1469.2914	1469.9053	1491.4234	1513.8241	2242.2183	2998.6503	3042.7786	3047.7364	3061.5894	3086.4288	3096.3141	3104.6667	3137.5995	3507.2924	3801.4806
CC1OC1C(O)CC#C	C[C@H]1O[C@H]1[C@@H](O)CC#C	
InChI=1S/C7H10O2/c1-3-4-6(8)7-5(2)9-7/h1,5-8H,4H2,2H3	InChI=1S/C7H10O2/c1-3-4-6(8)7-5(2)9-7/h1,5-8H,4H2,2H3/t5-,6+,7-/m1/s1
