17
gdb 74704	2.8188	1.70601	1.26721	3.2223	74.21	-0.231	-0.0563	0.1747	1011.0684	0.136728	-421.833227	-421.82569	-421.824746	-421.865149	29.169	
C	 0.0643421394	 1.4644934168	 0.0461240951	-0.483035
C	 0.0257463354	-0.0295697531	-0.04000065	 0.203835
C	-0.0666285596	-0.76401876	-1.1613940451	-0.153344
C	-0.0514233918	-2.2694277184	-1.0113822179	 0.040107
C	-1.1170251736	-2.7060749766	 0.0308180812	-0.257135
C	 0.0340689781	-2.3310199708	 0.9981273852	-0.023228
O	 0.9947921544	-2.6233406076	-0.0547502163	-0.289611
C	 0.0497637336	-0.8147836701	 1.2357919066	 0.354064
O	 0.0452365109	-0.3086940399	 2.3364472941	-0.326642
H	 1.002900424	 1.8011572906	 0.5001459847	 0.145509
H	-0.03056393	 1.92415379	-0.9407430372	 0.119337
H	-0.7374357129	 1.8360345562	 0.6926365432	 0.143897
H	-0.1547223696	-0.3149527683	-2.1465799811	 0.107031
H	 0.0431248907	-2.8098587778	-1.9548655578	 0.086474
H	-2.0554173905	-2.1517166326	 0.0768748398	 0.115271
H	-1.293862773	-3.7830689572	 0.0223638156	 0.120017
H	 0.2001435144	-2.8913555512	 1.9193887499	 0.097451
115.2792	144.4837	203.2857	272.5041	371.5599	390.0033	442.3115	455.4239	550.3756	639.2256	696.2749	780.9905	838.9708	858.1931	871.8992	899.017	936.1702	969.2941	987.4893	1046.3426	1066.4007	1068.1239	1079.5687	1153.5959	1192.1677	1232.728	1264.4039	1290.5174	1300.1277	1343.9994	1358.9311	1413.0807	1470.2854	1481.5897	1487.5934	1686.8177	1797.9882	3037.8145	3076.2727	3093.2208	3099.7814	3113.2353	3123.5655	3144.166	3171.7285
CC1=CC2CC(O2)C1=O	CC1=C[C@@H]2C[C@@H](O2)C1=O	
InChI=1S/C7H8O2/c1-4-2-5-3-6(9-5)7(4)8/h2,5-6H,3H2,1H3	InChI=1S/C7H8O2/c1-4-2-5-3-6(9-5)7(4)8/h2,5-6H,3H2,1H3/t5-,6-/m1/s1
