16
gdb 29890	3.28007	1.41929	0.99677	3.251	76.55	-0.2236	-0.0294	0.1942	1130.5254	0.126903	-434.138542	-434.130593	-434.129649	-434.171178	29.819	
C	-0.4613759645	 1.3865808655	 0.0277939128	-0.323928
N	 0.0004759545	 0.0029855258	 0.0071010245	-0.116469
C	 0.2825981604	-0.6423596495	-1.1654270481	 0.060847
C	 0.7123885165	-1.919195661	-1.2401188338	-0.306515
C	 0.8984756681	-2.6863448463	-0.0225017924	 0.433713
O	 1.2767350942	-3.8374100217	 0.0689604498	-0.381803
N	 0.587298277	-1.9516070438	 1.1373318556	-0.443031
C	 0.1447938974	-0.6406311841	 1.2399132862	 0.484721
N	-0.1306815084	 0.0040308092	 2.3086816183	-0.58171
H	 0.2309046941	 2.0097398033	 0.5985686675	 0.157672
H	-0.5247390411	 1.7465740935	-0.9998776552	 0.12701
H	-1.440988831	 1.4527608406	 0.5066044592	 0.157829
H	 0.1327496367	-0.040381272	-2.0543377315	 0.137194
H	 0.9241232172	-2.3923636566	-2.1870518926	 0.122733
H	 0.7089323784	-2.4641044809	 1.9992235072	 0.257202
H	 0.0123786904	-0.567158232	 3.1379557624	 0.214535
109.1685	113.1134	150.9217	232.9669	350.6938	382.2291	403.2589	469.5394	534.2866	608.962	617.7315	714.7119	741.8697	761.4137	774.5265	796.2418	812.09	967.3097	969.859	1048.546	1118.351	1158.674	1170.1991	1221.1883	1243.6847	1363.4749	1392.5989	1429.2597	1465.1803	1466.2393	1472.1652	1521.857	1675.2711	1723.2532	1798.263	3057.5554	3125.5322	3150.5951	3201.6554	3252.9078	3520.735	3615.9642
CN1C=CC(=O)NC1=N	CN1C=CC(=O)N[C]1[NH]	
InChI=1S/C5H7N3O/c1-8-3-2-4(9)7-5(8)6/h2-3H,1H3,(H2,6,7,9)	InChI=1S/C5H7N3O/c1-8-3-2-4(9)7-5(8)6/h2-3H,1H3,(H2,6,7,9)
