20
gdb 15576	2.39875	2.10559	1.45895	0.6564	79.37	-0.2561	0.0501	0.3062	968.7242	0.177434	-311.858601	-311.850125	-311.849181	-311.891534	32.12	
C	-0.3639138842	 1.5098632688	-0.0181447788	-0.416487
C	-0.0156067344	 0.0253744658	 0.0291884454	 0.047757
C	 0.8726943492	-0.4676923539	-1.1345252464	-0.205461
C	 1.5972097311	-1.7419436351	-0.6161924714	-0.202196
C	 1.193427098	-1.8809726417	 0.8721942532	-0.213173
C	 0.750381888	-0.4574684656	 1.2963998713	-0.179582
C	 1.8946762269	 0.3884878648	 1.625075254	 0.35922
C	 2.8480419367	 1.0736469134	 1.8883396643	-0.50448
H	 0.5404836686	 2.1234717766	 0.0368182251	 0.129185
H	-0.8861384413	 1.7559501231	-0.9487535851	 0.110011
H	-1.0156551179	 1.7966480782	 0.8142064441	 0.109638
H	-0.9490237997	-0.553690894	 0.0170490371	 0.070961
H	 0.2819231659	-0.6543284711	-2.0359056092	 0.093744
H	 1.6029822465	 0.3075412487	-1.3892463374	 0.105938
H	 1.3236851663	-2.6352172797	-1.1842218335	 0.096694
H	 2.680502894	-1.6287370055	-0.7091073091	 0.109158
H	 0.332904405	-2.5511573596	 0.9746355969	 0.096445
H	 1.9946565108	-2.2758771534	 1.5004006268	 0.105009
H	 0.081417072	-0.4920308886	 2.1642946867	 0.093824
H	 3.6850482782	 1.6798845287	 2.1317361461	 0.193794
66.5734	107.5065	151.1994	234.1352	242.0355	299.939	382.1598	456.2005	546.1846	612.883	622.0723	626.6216	673.2158	780.4526	819.2463	850.8059	892.6313	895.8365	949.3142	989.5903	1011.5301	1041.4509	1063.7777	1118.7593	1158.8909	1187.2661	1206.2814	1225.9475	1280.4421	1297.4735	1311.8611	1332.9831	1337.6959	1372.4936	1381.5863	1412.6758	1485.8893	1490.0841	1498.1183	1500.3321	1510.9651	2226.5563	3007.3704	3031.2979	3034.3903	3045.5089	3048.1728	3062.9553	3081.1551	3095.3531	3099.9793	3109.7631	3113.4864	3503.5884
CC1CCCC1C#C	C[C@H]1CCC[C@H]1C#C	
InChI=1S/C8H12/c1-3-8-6-4-5-7(8)2/h1,7-8H,4-6H2,2H3	InChI=1S/C8H12/c1-3-8-6-4-5-7(8)2/h1,7-8H,4-6H2,2H3/t7-,8+/m0/s1
