16
gdb 30189	3.95321	1.31892	1.09522	2.9236	70.33	-0.2265	0.0057	0.2322	1075.3366	0.126855	-437.913043	-437.905913	-437.904969	-437.945093	27.387	
O	 0.027491397	 1.3667786796	-0.1406280952	-0.426202
C	-0.0140016938	-0.0373794971	 0.0582682354	 0.122925
C	 0.5969823994	-0.4381358448	 1.4629760204	-0.383657
C	-0.6506329828	-0.7168849426	 2.2132491958	 0.31517
C	-1.7837948734	-0.7284051351	 1.4905137473	 0.245009
C	-1.5305854235	-0.4394280817	 0.0467337443	-0.348488
N	-2.8605231211	-1.0313468783	 2.3112686279	-0.341148
C	-2.3071959496	-1.178755908	 3.4746313311	 0.033289
O	-0.9496380528	-1.0065978972	 3.5091225609	-0.200035
H	 0.950262356	 1.6382852814	-0.179937818	 0.283328
H	 0.5304436933	-0.5509869139	-0.7449208825	 0.071967
H	 1.2573991991	-1.3111367465	 1.3867358935	 0.116576
H	 1.1904956978	 0.392759988	 1.8612832486	 0.114702
H	-2.1107758465	 0.3958805467	-0.355200637	 0.13619
H	-1.7109467948	-1.3084610395	-0.5959107592	 0.113898
H	-2.7790076344	-1.4156016311	 4.4152533365	 0.146476
53.2998	209.3011	233.5282	314.99	366.8576	407.0614	486.4025	623.209	645.2931	683.672	714.138	783.646	813.8801	840.4215	910.6707	949.2744	953.3996	999.8283	1077.3604	1078.1246	1098.1268	1165.2069	1207.8165	1228.423	1250.3279	1272.0042	1281.3791	1336.7196	1364.8972	1411.6967	1429.8302	1478.7296	1486.5692	1525.6791	1678.2373	3005.8564	3024.7826	3044.9624	3061.9799	3094.1191	3277.1056	3814.0902
OC1CC2=C(C1)N=CO2	O[C@H]1Cc2c(C1)nco2	
InChI=1S/C6H7NO2/c8-4-1-5-6(2-4)9-3-7-5/h3-4,8H,1-2H2	InChI=1S/C6H7NO2/c8-4-1-5-6(2-4)9-3-7-5/h3-4,8H,1-2H2/t4-/m1/s1
