18
gdb 94099	3.39866	1.03632	0.83251	2.7989	77.78	-0.2217	-0.0098	0.2118	1366.3941	0.147309	-439.1194	-439.110499	-439.109555	-439.153672	32.135	
C	 0.0632362477	 1.5756956144	-0.2156069294	-0.383487
C	-0.0704711927	 0.0700668423	 0.0065478141	 0.110818
O	 0.550541904	-0.6338152591	-1.0871596473	-0.275021
C	 1.4740906575	-1.5871203279	-0.6050762702	-0.166199
C	 1.4974787088	-1.3863038093	 0.8902959195	 0.362492
N	 2.3619508416	-2.1554714621	 1.6684050522	-0.388966
C	 2.4790456274	-2.1093192034	 3.0343513141	 0.150088
O	 1.8443639181	-1.3861878192	 3.7661198126	-0.296056
C	 0.6147844783	-0.4510223661	 1.2402240584	-0.236725
H	 1.1162402568	 1.8716662408	-0.2127625748	 0.117513
H	-0.3779447401	 1.8553167591	-1.1766624656	 0.123387
H	-0.4572395225	 2.1255999654	 0.5753810634	 0.11496
H	-1.1432686835	-0.1878486493	 0.0148066624	 0.08252
H	 1.1566491189	-2.6104597704	-0.8728652647	 0.101496
H	 2.4633417092	-1.424858412	-1.0646291734	 0.103511
H	 2.9594634906	-2.8102748998	 1.1870096934	 0.256534
H	 3.2398616224	-2.8278662693	 3.3958968601	 0.085289
H	 0.4051360874	-0.1111381242	 2.241291395	 0.137845
67.4218	81.7193	145.087	165.8942	229.7466	277.447	316.1485	376.3822	457.2107	498.2019	560.0481	580.2959	727.5741	832.2124	837.0778	854.3397	917.2285	965.2566	1013.6751	1019.0712	1052.4947	1079.1498	1102.6438	1130.3433	1150.4776	1197.9203	1250.034	1273.6488	1333.0516	1376.3486	1389.2098	1399.8824	1435.4935	1485.2605	1492.9804	1527.8754	1545.8575	1726.6529	1810.6213	2944.6824	2947.7473	2952.4864	2969.031	3037.8006	3112.1616	3120.63	3274.7298	3620.1073
CC1OCC(NC=O)=C1	C[C@H]1OCC(=C1)NC=O	
InChI=1S/C6H9NO2/c1-5-2-6(3-9-5)7-4-8/h2,4-5H,3H2,1H3,(H,7,8)	InChI=1S/C6H9NO2/c1-5-2-6(3-9-5)7-4-8/h2,4-5H,3H2,1H3,(H,7,8)/t5-/m1/s1
