23
gdb 63624	2.76401	1.11956	1.07109	1.237	86.48	-0.2356	0.076	0.3116	1309.6925	0.203632	-388.268788	-388.258828	-388.257884	-388.303103	38.948	
C	-0.2688399543	 1.5492582943	 0.0677930829	-0.465928
C	-0.0165244971	 0.0525109189	 0.0595635084	 0.352294
C	-1.1771644625	-0.7664953184	-0.4759763054	-0.448056
C	 1.3809601392	-0.4435652681	-0.2409997899	-0.358235
C	 0.817880694	-0.5794675239	 1.1583343431	-0.103071
C	 1.3990977519	 0.1782104433	 2.3250167345	 0.397462
O	 2.2413501655	 1.2618732682	 2.0110082571	-0.457164
C	 0.568722093	 0.4045822642	 3.5538489962	-0.289973
C	 1.7269101977	-0.5735386253	 3.5949552174	-0.329964
H	 0.5855996526	 2.1006501773	 0.4627788395	 0.141655
H	-0.4757319657	 1.908392073	-0.9476556576	 0.104109
H	-1.1418197962	 1.7937091236	 0.6849240478	 0.108538
H	-1.4122073897	-0.4845723879	-1.5095022688	 0.112365
H	-0.9531726843	-1.8381568137	-0.4667227824	 0.107243
H	-2.0824233766	-0.6084768461	 0.1225082181	 0.11182
H	 1.5059768552	-1.3408564126	-0.8387155462	 0.102949
H	 2.1452542437	 0.3098160449	-0.4017287353	 0.101331
H	 0.5070152333	-1.5842178691	 1.434360064	 0.075266
H	 3.0559713415	 0.8965298813	 1.6477142879	 0.281459
H	 0.6993262291	 1.3528430169	 4.0620361771	 0.121848
H	-0.4418731608	 0.0116117611	 3.5667782479	 0.112842
H	 1.5110160996	-1.6356101843	 3.6452215938	 0.10969
H	 2.616264681	-0.2610216478	 4.1309365199	 0.11152
54.3793	144.8366	162.1829	221.646	245.8751	295.2219	306.2632	319.0042	358.1076	361.6653	394.3711	423.9078	490.1807	544.7879	706.0715	725.6111	773.4605	845.6991	887.4081	908.4118	917.4669	929.8507	970.8124	974.9033	980.7005	993.3274	1048.6251	1057.0666	1067.815	1075.1569	1111.5164	1127.2732	1158.6566	1189.8402	1234.3402	1289.7849	1308.9961	1331.6098	1357.3821	1407.3806	1422.8139	1428.0334	1452.6799	1483.7056	1486.7418	1492.7662	1499.7642	1509.9149	1513.7282	3016.8351	3023.4131	3073.3177	3077.5706	3093.8709	3122.4193	3128.2069	3131.3959	3138.1985	3138.5157	3207.6718	3215.7103	3232.2439	3793.1961
CC1(C)CC1C1(O)CC1	CC1(C)C[C@H]1C1(O)CC1	
InChI=1S/C8H14O/c1-7(2)5-6(7)8(9)3-4-8/h6,9H,3-5H2,1-2H3	InChI=1S/C8H14O/c1-7(2)5-6(7)8(9)3-4-8/h6,9H,3-5H2,1-2H3/t6-/m1/s1
