16
gdb 31409	4.08774	1.13751	0.89636	3.4962	81.1	-0.1984	-0.0344	0.164	1254.2066	0.125646	-434.104631	-434.096242	-434.095298	-434.138364	30.306	
C	-0.0671134536	 1.4829654851	 0.0593765345	-0.323367
N	 0.1190225302	 0.0448197816	-0.0030976021	-0.361809
C	 0.6695841506	-0.7079201406	 0.9902512023	 0.42546
C	 0.6095330005	-2.0743043055	 1.0213782058	-0.279608
C	 1.2482556469	-2.8136387193	 2.0644239895	 0.388182
N	 1.2727092573	-4.0738355992	 2.2039101693	-0.557776
O	 1.9117416813	-1.995911885	 3.0308334315	-0.222395
C	 1.8928853671	-0.6703830614	 2.8983010738	 0.1428
N	 1.3378571449	 0.017035039	 1.9771783229	-0.341619
H	 0.7877787014	 1.9369711756	 0.5585910652	 0.166221
H	-0.1346460758	 1.8762007779	-0.958303864	 0.127079
H	-0.9763749231	 1.7708700575	 0.6056749771	 0.12351
H	-0.4532440501	-0.4582326293	-0.6616824283	 0.250772
H	 0.0878875111	-2.647059615	 0.2657615494	 0.101401
H	 1.7944096231	-4.3402465254	 3.0372191881	 0.217897
H	 2.4334212081	-0.1826171059	 3.705737785	 0.143252
63.658	81.4856	151.0368	167.0585	228.5369	390.467	428.2513	451.9124	487.9676	558.0026	640.9945	674.4495	741.8482	760.5663	801.1593	829.7855	852.4826	957.9307	975.6572	1050.7314	1095.2488	1148.4666	1160.0089	1181.0714	1277.1394	1304.5046	1391.8648	1431.326	1467.7375	1488.4621	1495.7578	1523.6253	1641.4445	1692.1345	1759.9937	3004.9272	3092.7086	3162.4984	3175.7365	3213.6883	3509.9271	3640.0463
CNC1=CC(=N)OC=N1	CN[C@H]1C=C([NH])OC=N1	
InChI=1S/C5H7N3O/c1-7-5-2-4(6)9-3-8-5/h2-3,6-7H,1H3	InChI=1S/C5H8N3O/c1-7-5-2-4(6)9-3-8-5/h2-3,5-7H,1H3/t5-/m1/s1
