16
gdb 47980	5.35087	0.72039	0.67868	3.8421	86.72	-0.2504	-0.0648	0.1856	1618.9931	0.123467	-400.677866	-400.669433	-400.668489	-400.712071	30.015	
O	-0.1795292364	 0.0654608117	-0.3217603069	-0.233689
C	-0.0106453665	 1.1841109198	 0.1099497046	 0.003726
C	 1.2385370238	 1.8927163904	 0.0749206764	 0.176029
C	 2.2714642008	 2.5246746244	 0.0646385217	-0.058511
C	 3.5090134201	 3.2140271137	 0.0312731303	 0.137245
C	 3.997326989	 4.0541294048	 1.1620691325	-0.258754
N	 3.6326413178	 4.7568362835	-0.0638142602	-0.149301
C	 4.7884165583	 4.5451676003	-1.0096401117	-0.152313
C	 4.6285886856	 3.0046550917	-0.9954634084	-0.31215
H	-0.8380831132	 1.7558947335	 0.577834774	 0.100478
H	 3.304087955	 4.227386475	 1.9784758598	 0.138424
H	 5.0451200889	 3.9821470524	 1.4516089492	 0.1205
H	 4.5634634997	 5.0022902604	-1.9737699117	 0.124952
H	 5.7305473871	 4.9518064251	-0.6289435215	 0.114112
H	 5.4735418721	 2.3975676309	-0.6606289026	 0.114999
H	 4.258526298	 2.6099812824	-1.9419572257	 0.134254
57.9043	77.1158	110.4315	197.0771	224.6355	304.2175	398.4658	472.2901	511.0501	553.1132	683.2906	732.2069	767.961	790.9614	844.7715	934.783	952.3618	986.8128	1018.4624	1049.174	1091.7877	1107.4118	1138.2286	1196.1521	1220.5591	1241.9772	1260.2782	1311.6868	1372.6482	1421.2706	1488.6106	1491.363	1515.6516	1760.3451	2304.733	2916.822	3056.1026	3070.5659	3095.3627	3121.5056	3140.9451	3204.6826
O=CC#CC12CN1CC2	O=CC#C[C@]12CN1CC2	
InChI=1S/C7H7NO/c9-5-1-2-7-3-4-8(7)6-7/h5H,3-4,6H2	InChI=1S/C7H7NO/c9-5-1-2-7-3-4-8(7)6-7/h5H,3-4,6H2/t7-,8?/m0/s1
