12
gdb 20503	9.58189	1.03884	0.94275	3.0119	69.84	-0.264	-0.0544	0.2096	1168.9816	0.083803	-377.499679	-377.492398	-377.491454	-377.534192	24.175	
C	-0.0647623695	 1.4435469295	 0.0151213809	-0.514129
C	 0.0029584278	-0.0060702407	 0.0036285226	 0.313135
C	 0.0639293598	-1.2095533139	-0.005238	-0.098154
C	 0.1240452497	-2.6157748645	-0.0168479333	 0.253365
N	 1.1723217015	-3.3908691897	 0.0821681051	-0.314423
C	 0.6068504446	-4.6343384692	 0.0075918982	 0.003692
N	-0.6922981546	-4.6541185147	-0.1275817614	-0.096056
O	-1.0306335334	-3.3029806724	-0.1455038578	-0.19557
H	 0.9259992149	 1.8823598826	-0.1406565674	 0.167618
H	-0.7285518212	 1.8098980519	-0.775027725	 0.166902
H	-0.4499366121	 1.8081376566	 0.9735587828	 0.16712
H	 1.1785742425	-5.5497812057	 0.0553180855	 0.1465
5.9387	96.5728	107.6348	296.0751	324.5988	464.1227	488.0275	533.6939	654.0939	770.8847	929.9968	930.4908	966.6342	983.367	1047.0833	1051.5333	1060.0215	1189.1021	1261.704	1307.8688	1409.9782	1469.4622	1469.6074	1503.4611	1596.9126	2370.2577	3033.8316	3098.0307	3103.9891	3260.4205
CC#CC1=NC=NO1	CC#Cc1ncno1	
InChI=1S/C5H4N2O/c1-2-3-5-6-4-7-8-5/h4H,1H3	InChI=1S/C5H4N2O/c1-2-3-5-6-4-7-8-5/h4H,1H3
