20
gdb 78326	2.92233	1.47187	1.24929	2.7411	79.45	-0.2177	0.0634	0.2811	1103.1489	0.170103	-403.065052	-403.056834	-403.05589	-403.09723	32.518	
C	-0.1509927659	 1.314187838	-0.0528199246	-0.320569
N	 0.0879558382	-0.1199610433	 0.0847342631	-0.089937
C	 1.488181669	-0.4964364237	-0.1682302645	-0.056156
C	 0.9353532333	-0.4676070263	 1.2283961965	-0.108742
C	 1.0165224329	-2.0166871738	 1.3335039331	 0.268367
C	 1.7407789525	-2.5771771712	 2.5343655576	-0.497749
C	-0.1611519329	-2.8042440073	 0.7003940701	-0.121952
O	 0.4717516557	-2.7919508264	-0.6061331698	-0.290523
C	 1.58844142	-2.0429721068	-0.1061741049	 0.054776
H	 0.6964311481	 1.9441133957	 0.2671756845	 0.097066
H	-0.3681733656	 1.5390153184	-1.1014255128	 0.129303
H	-1.0254682121	 1.5881696082	 0.5454608464	 0.124891
H	 2.1497583211	 0.1966710698	-0.6756017933	 0.087992
H	 1.1033059211	 0.245441116	 2.0283971558	 0.085682
H	 1.1307217872	-2.4868592463	 3.4413320217	 0.121033
H	 1.9785885591	-3.6366118576	 2.3941190871	 0.124193
H	 2.6800348823	-2.0420224546	 2.7143981394	 0.118657
H	-0.2655514477	-3.830023289	 1.0763240859	 0.089159
H	-1.1311368041	-2.30073012	 0.6880882875	 0.112125
H	 2.5620162978	-2.4684805699	-0.3678311888	 0.072385
177.3567	185.1029	212.4506	226.8859	251.5341	288.1388	332.4978	370.1749	472.1501	523.7183	664.1944	727.2725	805.0116	826.2708	848.2784	864.4044	894.6687	913.2352	949.8058	977.6629	994.472	999.9885	1032.1943	1117.4002	1123.1373	1133.5687	1155.1249	1167.685	1183.4668	1204.2458	1244.2916	1256.3067	1298.9965	1310.2102	1350.2938	1380.3884	1411.2925	1453.8696	1490.6784	1492.7721	1493.1378	1499.1314	1499.6039	2958.2653	3016.4267	3022.479	3064.9284	3069.4921	3083.3181	3095.8299	3098.7149	3107.4742	3166.1711	3180.289
CN1C2C1C1(C)COC21	CN1[C@H]2[C@@H]1[C@@]1(C)CO[C@@H]21	
InChI=1S/C7H11NO/c1-7-3-9-6(7)4-5(7)8(4)2/h4-6H,3H2,1-2H3	InChI=1S/C7H11NO/c1-7-3-9-6(7)4-5(7)8(4)2/h4-6H,3H2,1-2H3/t4-,5+,6-,7+,8?/m0/s1
