15
gdb 27658	3.25439	1.22564	0.89554	2.5268	80.01	-0.1821	0.0184	0.2006	1232.1975	0.112071	-416.804258	-416.795409	-416.794465	-416.837446	33.257	
N	 0.0108913921	 1.3903974572	 0.0286899117	-0.603391
C	-0.0978061203	 0.0048710447	-0.0077420536	 0.298338
C	-1.15661035	-0.8310236194	 0.0481029177	-0.327443
C	-0.6515875679	-2.1853748937	-0.0123114675	 0.099262
C	-1.3510566953	-3.4072701594	 0.0273553905	 0.17338
C	-1.928357378	-4.466295767	 0.068085497	-0.425897
C	 0.714863088	-2.0508348968	-0.1184545369	 0.283679
N	 1.7118446513	-2.9821556766	-0.2970374004	-0.605581
O	 1.0796814136	-0.7578973835	-0.1147744071	-0.200628
H	 0.4857408807	 1.7280486803	 0.860405723	 0.244205
H	 0.4923881826	 1.7656807268	-0.782448962	 0.245443
H	-2.1893692328	-0.5339777881	 0.1298996723	 0.116145
H	-2.447049072	-5.3917741606	 0.0924918941	 0.178282
H	 1.4101650538	-3.920811262	-0.0730919395	 0.266123
H	 2.5897749241	-2.742883582	 0.1438573105	 0.258083
114.0111	125.1758	155.8244	224.0935	263.0761	306.3009	331.9367	418.6394	446.2604	504.4435	518.4139	592.2646	612.1562	636.3282	664.3385	667.5882	733.4529	766.2443	817.4326	840.5928	939.6628	1076.2839	1163.1652	1175.2281	1212.3939	1226.5342	1334.4148	1465.9075	1598.537	1650.5017	1662.7753	1704.5466	2218.6768	3273.9979	3490.2045	3504.5303	3549.1208	3554.7906	3653.4751
NC1=CC(C#C)=C(N)O1	Nc1cc(C#C)c(N)o1	
InChI=1S/C6H6N2O/c1-2-4-3-5(7)9-6(4)8/h1,3H,7-8H2	InChI=1S/C6H6N2O/c1-2-4-3-5(7)9-6(4)8/h1,3H,7-8H2
