18
gdb 105907	2.43497	1.75939	1.24786	1.56	71.7	-0.2191	0.0561	0.2752	1032.9165	0.145665	-438.951009	-438.942657	-438.941713	-438.983837	31.673	
O	-0.0787192711	 1.4115361813	 0.2305361137	-0.419505
C	-0.063174127	 0.0214867064	-0.0691717971	-0.244507
C	-1.4681216219	-0.4847250558	-0.0167570822	 0.352061
N	-2.55119637	-0.1575155453	-0.9964120563	-0.157867
C	-3.0303984551	 1.2248712414	-0.9782402437	-0.321322
C	-3.2359763209	-1.0781014821	-0.0427986308	-0.072106
C	-1.964412479	-1.9571058511	 0.1038439484	 0.017499
O	-1.9726246828	-1.9691592288	 1.5578339462	-0.331358
C	-2.4286293412	-0.624382599	 1.2288005875	 0.030948
H	 0.8205830299	 1.7441925729	 0.1558412804	 0.292564
H	 0.3520860008	-0.172674641	-1.0699315388	 0.10206
H	 0.5295016117	-0.5473562452	 0.6644035034	 0.108505
H	-2.2991149081	 1.8660546791	-1.4755953234	 0.130185
H	-3.972543335	 1.2804891862	-1.5335361407	 0.113297
H	-3.1985848685	 1.6296675284	 0.0332044256	 0.101328
H	-4.2796468841	-1.3810660454	-0.1327687983	 0.090202
H	-1.6558323033	-2.8478688441	-0.4412834017	 0.102611
H	-2.6611719244	 0.051122732	 2.0505270079	 0.105404
93.7927	152.3072	194.4665	217.71	232.4586	270.304	312.9224	395.3054	547.5485	597.4259	669.851	737.3327	773.6532	789.0476	808.7957	860.5224	921.2985	932.5069	941.6367	1033.002	1071.8627	1073.7946	1107.4672	1128.728	1134.4965	1162.1332	1167.7369	1177.8466	1204.1915	1243.8049	1249.296	1277.7309	1309.2268	1366.8761	1451.9292	1473.1023	1488.8416	1494.0714	1503.746	2972.9361	2976.6398	3012.4869	3070.407	3114.2462	3120.8185	3132.0654	3140.7615	3830.2155
OCC12N(C)C3C1OC23	OC[C@@]12N(C)[C@H]3[C@@H]1O[C@@H]23	
InChI=1S/C6H9NO2/c1-7-3-4-6(7,2-8)5(3)9-4/h3-5,8H,2H2,1H3	InChI=1S/C6H9NO2/c1-7-3-4-6(7,2-8)5(3)9-4/h3-5,8H,2H2,1H3/t3-,4-,5+,6+
