16
gdb 28040	3.92926	0.95368	0.86898	2.2604	77.48	-0.1895	0.0123	0.2018	1327.8077	0.125697	-396.960719	-396.952182	-396.951238	-396.994777	31.297	
N	-0.0111884145	 1.418772941	 0.0876028619	-0.603261
C	 0.0014662001	 0.0154263828	 0.0242140817	 0.24631
C	-1.0855753884	-0.8304611279	 0.0280353127	-0.179494
N	-0.609824168	-2.1335626621	 0.0728819775	 0.028614
C	-1.4281366417	-3.313245824	-0.0394513071	-0.310482
C	-1.8260805227	-3.6304495357	-1.4241965718	 0.275211
N	-2.1419317542	-3.8816156112	-2.506363653	-0.297807
C	 0.7606809856	-2.1127852566	 0.0678764947	-0.076631
C	 1.1720033328	-0.8026917736	 0.0499642828	-0.233137
H	 0.7715170279	 1.8321462642	-0.4028002468	 0.243092
H	-0.8691436211	 1.8197390878	-0.2687844441	 0.240925
H	-2.1442500614	-0.627825868	 0.0113957648	 0.113098
H	-0.8823065279	-4.1681257347	 0.3712711566	 0.167749
H	-2.3357578533	-3.1930198332	 0.5624544357	 0.166958
H	 1.3258644407	-3.031369802	 0.0781664719	 0.123495
H	 2.1941969163	-0.4568922469	 0.0791254625	 0.095359
42.7918	67.1316	196.8683	222.9767	275.0982	314.684	370.5653	421.0424	479.5202	596.542	606.8946	650.5574	664.2356	724.9811	756.7106	775.7947	799.423	912.6957	967.2299	999.3463	1010.4845	1088.6005	1115.0037	1213.5581	1223.3392	1302.9776	1374.9004	1383.78	1440.6273	1448.8222	1457.5032	1541.3602	1629.8349	1661.3678	2362.4827	3049.4143	3095.9361	3242.6727	3260.2701	3265.4374	3536.5134	3624.6715
NC1=CN(CC#N)C=C1	Nc1cn(CC#N)cc1	
InChI=1S/C6H7N3/c7-2-4-9-3-1-6(8)5-9/h1,3,5H,4,8H2	InChI=1S/C6H7N3/c7-2-4-9-3-1-6(8)5-9/h1,3,5H,4,8H2
