23
gdb 95157	2.48801	1.37867	1.03959	1.4386	85.04	-0.2518	0.0741	0.3259	1247.7201	0.207201	-388.300008	-388.291123	-388.290178	-388.332941	35.768	
C	-0.0284990157	 1.5200062058	 0.0146535818	-0.47061
C	-0.0234067939	 0.0033064492	 0.0096730248	 0.351768
C	-0.8584280448	-0.7026631543	 1.0576927385	-0.327849
C	 0.6463494833	-0.7100822914	 1.1715235841	-0.040938
C	 1.4556141285	-1.9774403852	 0.9526124239	-0.232796
C	 1.1122876598	-2.6870844401	-0.364530379	-0.235938
C	 1.1455590177	-1.6959344311	-1.5296857604	 0.144498
O	 0.9263039287	-2.3260407059	-2.786563061	-0.441909
C	 0.0555268588	-0.6320681758	-1.3851919588	-0.281167
H	 0.888408437	 1.9220978811	-0.433076961	 0.112364
H	-0.8758220714	 1.9139328166	-0.5595972859	 0.115067
H	-0.1044889742	 1.9160541073	 1.0325785198	 0.108849
H	-1.4209973155	-0.0978672499	 1.7620026938	 0.101524
H	-1.359366341	-1.6223005225	 0.7700429095	 0.105077
H	 1.0532601868	-0.0602840113	 1.9427996133	 0.074749
H	 2.5211521087	-1.7108673762	 0.9367090786	 0.095597
H	 1.3241321633	-2.6628808919	 1.7990366342	 0.096503
H	 1.8313242536	-3.4970457824	-0.5428488526	 0.079811
H	 0.120282923	-3.1538085283	-0.3224855897	 0.103477
H	 2.1305907502	-1.1961943259	-1.5245994863	 0.05764
H	 1.6023254731	-3.0016522646	-2.9006973166	 0.27627
H	-0.8980670966	-1.1044309213	-1.6503128242	 0.107351
H	 0.2293729105	 0.145407018	-2.1358912871	 0.100664
96.7457	172.4368	234.0354	256.8762	286.133	297.0445	359.1493	361.1271	396.5889	425.1311	478.771	495.1063	596.9982	726.1504	765.4605	828.3377	878.3692	903.6204	924.5797	938.9571	956.0376	973.0787	1030.2289	1053.6824	1060.8432	1085.001	1094.3918	1120.583	1131.3784	1149.0302	1172.5705	1225.1419	1249.9353	1253.393	1303.8843	1319.8167	1335.318	1348.1215	1375.5291	1404.8608	1415.2444	1421.2243	1435.6055	1487.5995	1488.8766	1491.4634	1494.1528	1500.2276	1513.4744	2938.7439	3009.7067	3016.199	3020.3788	3033.8665	3043.8159	3063.3722	3075.2119	3077.2803	3094.1756	3119.8515	3128.4591	3202.2198	3814.9168
CC12CC1CCC(O)C2	C[C@]12C[C@H]1CC[C@@H](O)C2	
InChI=1S/C8H14O/c1-8-4-6(8)2-3-7(9)5-8/h6-7,9H,2-5H2,1H3	InChI=1S/C8H14O/c1-8-4-6(8)2-3-7(9)5-8/h6-7,9H,2-5H2,1H3/t6-,7-,8-/m1/s1
