19
gdb 58851	2.5715	1.45333	1.08491	2.6456	75.81	-0.2406	-0.0253	0.2153	1167.7185	0.156752	-423.013188	-423.004036	-423.003092	-423.047294	33.908	
C	-0.0849251694	 1.5710542787	 0.2611704967	-0.399387
C	 0.0415319046	 0.0553696847	 0.0213855867	-0.114322
C	 0.8433632332	-0.6374375466	 1.1304189186	-0.39806
C	-1.325303957	-0.5431903229	-0.1423830897	 0.31903
O	-2.1630436344	-0.7552697685	 1.0264031595	-0.282591
C	-1.9518431898	-1.8622368309	 0.1542316898	-0.063103
C	-3.009728185	-1.7341770852	-0.949631126	-0.372409
C	-2.3364845097	-0.3655833035	-1.2803506453	 0.384747
O	-2.4484095903	 0.420274833	-2.1737608317	-0.304817
H	 0.9051084077	 2.0334231024	 0.3171981868	 0.112996
H	-0.6436160101	 2.0491183414	-0.548068264	 0.141583
H	-0.6075842373	 1.7690611266	 1.2025986807	 0.129553
H	 0.5595753253	-0.093363153	-0.9360851128	 0.091971
H	 0.9911204732	-1.7006401996	 0.9156775967	 0.111355
H	 1.8299045738	-0.1754710632	 1.2302063393	 0.116643
H	 0.3256489269	-0.5526577027	 2.0899561997	 0.135861
H	-1.4876663391	-2.7520777023	 0.5606179402	 0.120822
H	-2.8997562313	-2.4279767187	-1.7888394143	 0.132418
H	-4.0460758614	-1.7183761597	-0.6072851909	 0.137709
51.3233	121.4487	169.914	181.1772	215.6725	258.7502	288.3664	363.9843	408.7048	472.3562	563.2762	570.3613	653.72	699.2826	798.6559	868.7671	879.9465	920.7125	935.595	960.7503	971.2706	987.7364	1036.4916	1106.3207	1121.6139	1138.5397	1169.5553	1190.5951	1219.468	1249.46	1335.1466	1354.3118	1396.7918	1413.23	1433.3607	1450.5612	1488.1419	1493.5386	1502.3825	1518.451	1891.3532	3014.9983	3038.0522	3040.9065	3066.5809	3106.5393	3110.2858	3121.0491	3121.5738	3130.6647	3204.3127
CC(C)C12OC1CC2=O	CC(C)[C@]12O[C@H]1CC2=O	
InChI=1S/C7H10O2/c1-4(2)7-5(8)3-6(7)9-7/h4,6H,3H2,1-2H3	InChI=1S/C7H10O2/c1-4(2)7-5(8)3-6(7)9-7/h4,6H,3H2,1-2H3/t6-,7+/m0/s1
