17
gdb 64917	2.25562	1.46789	1.04765	3.1306	75.58	-0.2722	-0.05	0.2223	1161.917	0.133095	-418.012021	-418.002349	-418.001404	-418.046549	34.354	
C	-0.033414036	 1.5703405171	-0.0658152096	-0.4605
C	-0.0068914273	 0.0621393538	 0.0095249874	 0.161861
N	 1.2947882915	-0.6139964021	-0.1731793165	-0.375419
C	 0.6734388498	-0.6768712052	 1.1532840923	 0.135904
C	 1.3709284456	 0.0633870809	 2.2820694	-0.452193
C	 0.1101030295	-1.9480530109	 1.5734326203	 0.243464
N	-0.2953337834	-2.9672890837	 1.9409253544	-0.335269
C	-1.1894783743	-0.6231957476	-0.6142574019	 0.109055
O	-2.1151470035	-0.0321714161	-1.1057819944	-0.245089
H	 0.922186953	 2.0009868035	 0.2312969147	 0.133743
H	-0.2478492553	 1.8760386463	-1.093034734	 0.149338
H	-0.8273409757	 1.9739354122	 0.5682826116	 0.141589
H	 1.1868916983	-1.4967202751	-0.6730495808	 0.251961
H	 1.873503874	 0.9519451031	 1.9016669836	 0.146075
H	 0.6535537825	 0.3550659376	 3.0539122841	 0.145579
H	 2.1223389876	-0.5865020696	 2.7391955638	 0.150179
H	-1.1356064462	-1.734146054	-0.6184094348	 0.09972
90.7487	107.9767	123.0232	159.1945	170.1797	244.2569	279.9285	296.7713	367.4183	394.4645	453.7258	510.9182	586.5585	614.9434	662.6829	754.9359	817.9213	906.0039	986.1461	1008.2647	1055.1937	1079.032	1107.9339	1121.0366	1143.7324	1244.9793	1330.4735	1368.0986	1408.2664	1418.7282	1439.1439	1474.072	1481.765	1489.6545	1500.8158	1823.5202	2345.861	2897.1078	3055.9504	3061.8414	3123.9796	3126.8562	3153.916	3165.9203	3468.0444
CC1(NC1(C)C#N)C=O	C[C@]1(N[C@]1(C)C#N)C=O	
InChI=1S/C6H8N2O/c1-5(3-7)6(2,4-9)8-5/h4,8H,1-2H3	InChI=1S/C6H8N2O/c1-5(3-7)6(2,4-9)8-5/h4,8H,1-2H3/t5-,6+/m1/s1
