13
gdb 31310	2.53846	1.50858	0.95194	4.8199	70.17	-0.2426	-0.0488	0.1937	1141.3136	0.090082	-452.777453	-452.769647	-452.768702	-452.810515	27.098	
C	 0.0130151597	 1.4676494142	-0.0412502362	-0.246223
O	 0.008045274	 0.0343757928	-0.0138066018	-0.254279
C	 0.5886012703	-0.5847922299	-1.0302922453	 0.296604
C	 0.6937496602	-1.9457540109	-1.1986937625	 0.124943
O	 1.3710850759	-2.1403349486	-2.3910808672	-0.164965
C	 1.6180276094	-0.9082321834	-2.8422483306	 0.088007
N	 1.1844266744	 0.0582792325	-2.0895012132	-0.340121
C	 0.2762829572	-3.0523652551	-0.4483571667	 0.23452
N	-0.0777873898	-3.9551933961	 0.1875777284	-0.350476
H	 1.0363176187	 1.8521318557	-0.0459258792	 0.146456
H	-0.5149339756	 1.8406575815	-0.9228250727	 0.146394
H	-0.5032040928	 1.7745330449	 0.8678545452	 0.147323
H	 2.1481738283	-0.8270968876	-3.7784987082	 0.171817
81.7955	127.6727	159.4521	167.8492	254.5303	323.7799	435.1702	522.1906	553.6871	630.9034	646.1971	740.4641	756.738	861.4804	957.5803	1019.2651	1134.7251	1177.4057	1194.3279	1202.5316	1236.2523	1326.2227	1411.7236	1478.7839	1485.2114	1496.5358	1545.5196	1661.8774	2335.84	3049.4351	3125.1098	3164.2624	3276.8133
COC1=C(OC=N1)C#N	COc1c(ocn1)C#N	
InChI=1S/C5H4N2O2/c1-8-5-4(2-6)9-3-7-5/h3H,1H3	InChI=1S/C5H4N2O2/c1-8-5-4(2-6)9-3-7-5/h3H,1H3
