15
gdb 50501	4.19156	1.09048	1.02138	3.2481	67.47	-0.2551	-0.0331	0.222	1160.1804	0.110281	-457.719178	-457.710762	-457.709817	-457.753432	29.763	
O	 0.0713937026	 0.0194018653	 0.6029681217	-0.22269
C	 0.0350204473	 1.1775344482	 0.2931504583	 0.148484
C	 1.2415955849	 1.9931917811	-0.1589149895	 0.012358
C	 1.7168290867	 2.9390884733	 0.9636319771	-0.138416
O	 2.6153252174	 2.1030786086	 1.674790623	-0.228767
C	 3.2742904086	 1.3272728935	 0.6945780977	-0.009098
O	 2.3686805036	 1.1768559731	-0.3982017262	-0.246612
C	 4.5192482405	 1.9582585833	 0.2317688428	 0.348249
C	 5.5460816691	 2.4655900316	-0.1294534982	-0.443504
H	-0.9101266255	 1.7704823405	 0.3319389079	 0.075218
H	 0.9776392109	 2.5403056529	-1.0728553182	 0.112248
H	 2.2252158669	 3.8172948368	 0.5443608633	 0.121879
H	 0.9316802386	 3.2627574049	 1.650108454	 0.130978
H	 3.4759122968	 0.346082326	 1.1368400177	 0.133343
H	 6.4565540617	 2.9101178109	-0.4494630015	 0.206328
34.1501	83.7225	143.0319	169.6177	256.1985	279.435	348.4273	509.6929	546.1694	660.3826	672.5287	678.4791	758.2345	779.7975	820.5051	909.2604	945.846	955.655	976.8798	1023.1335	1075.4724	1115.3401	1161.2296	1228.7505	1261.7771	1307.0379	1358.7325	1367.971	1380.8945	1415.1437	1507.1566	1851.0455	2239.5582	2849.3128	3019.0371	3040.8024	3063.44	3114.0661	3499.9073
O=CC1COC(O1)C#C	O=C[C@H]1CO[C@@H](O1)C#C	
InChI=1S/C6H6O3/c1-2-6-8-4-5(3-7)9-6/h1,3,5-6H,4H2	InChI=1S/C6H6O3/c1-2-6-8-4-5(3-7)9-6/h1,3,5-6H,4H2/t5-,6-/m0/s1
