18
gdb 91508	2.64083	1.43575	1.1069	1.2844	72.91	-0.2431	-0.0262	0.2168	1132.4422	0.146082	-439.056833	-439.047878	-439.046934	-439.090735	32.998	
C	 0.7485905144	 1.2082736099	 0.1991690587	-0.503614
C	-0.2535076768	 0.0998638082	-0.0482014114	 0.27146
O	-1.15272857	-0.1604690003	 0.726221421	-0.314852
C	-0.1216245343	-0.6953257477	-1.2965243731	 0.230771
C	 1.1643013992	-1.0561230206	-1.954639251	-0.279977
N	 0.3060458976	-0.1096075426	-2.6575271879	-0.166227
C	-0.7745530703	-0.9527289372	-3.2943583459	-0.178561
C	-1.2739251217	-1.4763603116	-1.9301911802	 0.030274
O	-1.277670881	-2.8786351694	-1.8171236645	-0.428645
H	 1.6997940806	 0.7805138962	 0.537451258	 0.144173
H	 0.9462047291	 1.7643142548	-0.7218223927	 0.158144
H	 0.3699732731	 1.8708863333	 0.9782976271	 0.144233
H	 2.0713288641	-0.6089405888	-1.5613251334	 0.126884
H	 1.2719255109	-2.0705807772	-2.3324144067	 0.136122
H	-1.4867069635	-0.3195576216	-3.8244565616	 0.120404
H	-0.3832341727	-1.7204271061	-3.9676215399	 0.120903
H	-2.2375883381	-1.0447794045	-1.6399884494	 0.09641
H	-1.5891523306	-3.1017683149	-0.932999197	 0.292097
67.8861	114.6856	130.8521	192.8871	196.5109	290.4926	328.6977	409.4261	449.863	476.2437	550.0742	594.7405	671.9989	729.3331	776.3325	834.255	881.1631	950.3293	966.3164	992.5364	1034.5575	1053.5139	1099.2205	1108.6732	1132.3401	1162.9446	1208.7905	1228.2592	1271.9317	1300.8561	1317.3309	1370.824	1394.2693	1437.9258	1466.8765	1474.0983	1485.9529	1506.7094	1778.6069	3039.5414	3053.611	3067.1619	3106.7072	3111.1083	3135.8132	3154.7964	3207.7669	3807.6129
CC(=O)C12CN1CC2O	CC(=O)[C@]12CN1C[C@H]2O	
InChI=1S/C6H9NO2/c1-4(8)6-3-7(6)2-5(6)9/h5,9H,2-3H2,1H3	InChI=1S/C6H9NO2/c1-4(8)6-3-7(6)2-5(6)9/h5,9H,2-3H2,1H3/t5-,6+,7?/m1/s1
