24
gdb 102667	1.80457	1.025	0.69688	2.8075	90.97	-0.2412	0.0334	0.2747	1735.2581	0.214079	-405.55989	-405.548207	-405.547262	-405.598721	40.662	
C	-0.0685503144	 1.563503525	-0.368114799	-0.399009
C	 0.0403370798	 0.049053865	-0.1771926036	-0.173452
C	 0.7701823683	-0.6656191625	-1.3168063427	 0.117899
C	 0.9186440963	-2.1695781173	-1.0754763277	-0.173435
C	 1.6972835647	-2.8968681562	-2.1739408216	-0.399028
O	 0.0226402785	-0.4698465876	-2.5310460006	-0.217592
C	 0.6088856566	 0.176243302	-3.5556885993	 0.136738
N	-0.0073481798	 0.369278776	-4.6354446544	-0.218065
C	 0.6991779948	 1.0728116159	-5.6845178318	-0.313956
H	 0.9215269361	 2.0286914478	-0.4386055432	 0.109324
H	-0.6210171479	 1.8050315088	-1.2801267625	 0.140714
H	-0.5917850425	 2.0261795044	 0.4737914822	 0.116331
H	 0.5712290864	-0.1742392901	 0.7562100659	 0.097453
H	-0.9604335236	-0.3892662265	-0.0825650683	 0.11138
H	 1.7683110486	-0.2185825609	-1.4449553133	 0.075316
H	 1.4161906766	-2.3087652121	-0.107991018	 0.097453
H	-0.0844223542	-2.6021093854	-0.9785568538	 0.111382
H	 1.1995283463	-2.7930885203	-3.1418234408	 0.140711
H	 2.714216684	-2.4994846008	-2.2716704577	 0.109328
H	 1.7798239558	-3.9648007104	-1.9517611282	 0.116339
H	 1.6421675987	 0.5038218504	-3.3555497153	 0.071779
H	 1.7266399182	 1.3699256446	-5.4144587584	 0.092441
H	 0.7504982064	 0.4449890024	-6.5817991068	 0.124975
H	 0.1447404663	 1.9768272578	-5.9624685809	 0.124976
12.8499	81.3205	83.5888	111.0435	148.9294	183.8905	198.6112	227.186	242.2698	275.8874	314.4538	356.1272	397.7713	481.1959	496.3296	581.6896	768.3402	798.4349	881.7607	938.4606	961.4056	984.677	1019.3129	1043.1461	1060.3514	1061.9197	1129.4687	1141.6284	1142.8206	1155.8834	1187.2685	1259.3837	1279.1478	1304.2251	1316.6503	1369.5562	1382.8553	1396.6391	1408.104	1411.6966	1430.1205	1451.0616	1469.9568	1480.5676	1481.6673	1498.2254	1498.4701	1505.2796	1508.8054	1509.7958	1772.0296	2960.2352	2977.9205	2990.3071	3026.6026	3034.1358	3034.1931	3035.8965	3053.1077	3064.0738	3072.3219	3073.9477	3101.1196	3102.0474	3120.4749	3121.3098
CCC(CC)OC=NC	CCC(CC)OC=NC	
InChI=1S/C7H15NO/c1-4-7(5-2)9-6-8-3/h6-7H,4-5H2,1-3H3	InChI=1S/C7H15NO/c1-4-7(5-2)9-6-8-3/h6-7H,4-5H2,1-3H3
