12
gdb 27518	2.09837	2.01977	1.02916	2.1594	60.42	-0.2661	-0.0303	0.2358	1034.1309	0.079609	-506.025518	-506.01848	-506.017536	-506.057412	26.149	
O	 0.0257963051	 1.2766531393	 0.0072903277	-0.371434
C	-0.068835085	-0.0438380967	 0.0009924031	 0.499466
N	-1.1988200753	-0.6237821708	 0.0038747219	-0.368994
C	-1.2097450103	-2.014558578	-0.0032315594	 0.428417
N	-2.2351375521	-2.7602324988	-0.0018136241	-0.54142
N	 0.0537520886	-2.6405567796	-0.0129340061	-0.39309
C	 1.2615270729	-2.0228214094	-0.0162981897	 0.499486
O	 2.3410788489	-2.5297702376	-0.0242675457	-0.34734
O	 1.1626533642	-0.6233526324	-0.0085073882	-0.262668
H	 0.9613311301	 1.5220724317	 0.0036388076	 0.32731
H	-3.0712055502	-2.1782861844	 0.0054592566	 0.238822
H	 0.0599241533	-3.6506394833	-0.0180711736	 0.291445
112.9663	138.2741	195.26	368.5826	387.1099	484.6616	507.8283	556.3821	621.5568	641.0931	673.7396	717.1756	750.5193	760.4217	877.5523	915.7678	969.6998	1025.5347	1134.7784	1249.3356	1272.1902	1392.1651	1404.8404	1421.0051	1751.2479	1767.6018	1916.0895	3517.3992	3627.0912	3786.5932
OC1=NC(=N)NC(=O)O1	O[C]1N=C([NH])NC(=O)O1	
InChI=1S/C3H3N3O3/c4-1-5-2(7)9-3(8)6-1/h(H3,4,5,6,7,8)	InChI=1S/C3H3N3O3/c4-1-5-2(7)9-3(8)6-1/h(H3,4,5,6,7,8)
