14
gdb 21958	7.52181	1.05272	0.93414	2.699	58.9	-0.2776	-0.0423	0.2353	1151.3169	0.106977	-415.812817	-415.805309	-415.804365	-415.845908	25.877	
O	-0.0698983153	 1.453669262	-0.0375519389	-0.421802
C	-0.004806508	 0.0577604004	-0.2785689571	-0.076739
C	-1.2496948477	-0.5480351097	 0.3623945729	-0.299641
C	-1.351006252	-2.0312621171	 0.2056612721	 0.325576
N	-0.4560046226	-2.7504005647	-0.4196548916	-0.143546
O	-0.8924880093	-4.0461534009	-0.3540640207	-0.154728
N	-2.0751373146	-4.1362594543	 0.3210531568	-0.059809
C	-2.3702029803	-2.9168830942	 0.6700526059	-0.103728
H	 0.7056642833	 1.8631036169	-0.4314789909	 0.291166
H	 0.0089018839	-0.1721558573	-1.3535791958	 0.109396
H	 0.8963629673	-0.3924120391	 0.1617725631	 0.109491
H	-1.2602275657	-0.2912592277	 1.428563607	 0.137821
H	-2.1383221157	-0.0729091158	-0.0704185938	 0.137742
H	-3.2698146331	-2.6995899585	 1.225109241	 0.148801
37.7022	95.9879	143.0278	254.7495	287.2058	356.3044	395.6654	647.6487	677.5263	757.0819	799.8134	895.824	896.4067	933.0584	1019.7017	1028.7052	1065.1281	1084.3537	1094.7663	1179.5833	1221.7074	1241.5936	1306.0906	1313.7224	1428.4641	1462.6924	1473.4655	1482.9381	1525.3621	1616.1333	2994.9073	3024.782	3038.354	3073.2702	3266.8378	3836.8148
OCCC1=NON=C1	OCCc1nonc1	
InChI=1S/C4H6N2O2/c7-2-1-4-3-5-8-6-4/h3,7H,1-2H2	InChI=1S/C4H6N2O2/c7-2-1-4-3-5-8-6-4/h3,7H,1-2H2
