13
gdb 132170	3.24591	1.42146	0.98897	5.5293	66.03	-0.2311	-0.0221	0.209	1075.5856	0.090148	-494.058836	-494.051405	-494.050461	-494.09077	28.196	
N	 0.0437064258	 1.325966547	 0.139097678	-0.562647
C	-0.0441495354	-0.0271052856	 0.0495104304	 0.489365
N	-1.1653772445	-0.6473532196	 0.0253997664	-0.397453
C	-1.1946594098	-2.0478178298	-0.0026588088	 0.250739
N	-2.256410142	-2.75494242	-0.0166643782	-0.531927
C	 0.1251042417	-2.6867251361	-0.0218759157	 0.187217
F	 0.1933652941	-4.0093211438	-0.056729358	-0.046
C	 1.2420243371	-1.9568907136	-0.0084650715	-0.093454
O	 1.1984617974	-0.583963708	 0.0299050736	-0.220026
H	 0.9115072695	 1.7605955855	-0.1261597686	 0.273046
H	-0.8064563464	 1.8326193132	-0.0417882459	 0.280406
H	-3.0643967557	-2.1286758246	 0.0000200575	 0.218406
H	 2.2491644181	-2.3460226045	-0.0232799792	 0.152327
97.4676	181.673	307.4261	341.0818	361.7491	378.6138	390.8754	462.2659	480.1613	541.3728	587.4786	731.2802	756.8708	772.7587	802.6155	856.4334	912.702	915.0061	1039.9465	1200.1661	1206.3446	1275.0762	1300.0358	1400.4324	1444.6021	1607.4192	1683.0114	1724.5347	1745.5637	3252.9525	3460.5371	3613.2914	3738.4692
NC1=NC(=N)C(F)=CO1	N[C@@H]1N=C([NH])C(=CO1)F	
InChI=1S/C4H4FN3O/c5-2-1-9-4(7)8-3(2)6/h1H,(H3,6,7,8)	InChI=1S/C4H5FN3O/c5-2-1-9-4(7)8-3(2)6/h1,4,6H,7H2/t4-/m1/s1
