17
gdb 31149	2.00352	1.77188	0.99337	1.3311	71.46	-0.1713	0.0674	0.2387	1164.029	0.135887	-455.155167	-455.145725	-455.144781	-455.189115	34.654	
C	 0.129815746	 1.3912738556	-0.5455063709	-0.321102
N	-0.1329325374	 0.2566767406	 0.350711736	-0.419011
C	-1.3733089399	-0.4017233488	 0.1373071045	 0.026822
C	-2.3616802382	-0.4282935883	 1.0963182758	 0.381538
O	-2.3529182376	 0.1059716041	 2.334563042	-0.43948
N	-3.4343865887	-1.1106290269	 0.6295366456	-0.319014
C	-3.1627825868	-1.5569872816	-0.6702704364	-0.242039
C	-1.8979766279	-1.1260780408	-0.9830703886	 0.242674
O	-1.1770295947	-1.3104484173	-2.1297908149	-0.454508
H	 1.102802453	 1.828022092	-0.2974181836	 0.107838
H	 0.1263089054	 1.1190358005	-1.6102474934	 0.122067
H	-0.6372123808	 2.1555430968	-0.3883732339	 0.121453
H	 0.6391925538	-0.3995134131	 0.289803714	 0.227991
H	-1.4735530168	 0.5069807646	 2.4159516391	 0.300988
H	-4.2788789479	-1.2753785551	 1.1461842593	 0.264912
H	-3.8875476908	-2.1245938461	-1.2284770938	 0.10541
H	-1.7102537107	-1.8112778762	-2.7545362107	 0.293461
84.2775	138.797	173.2583	192.808	216.669	252.3379	267.8976	291.2914	396.6413	432.4738	511.8952	543.3257	565.9587	575.9371	644.2298	706.2468	713.496	773.9806	830.7676	1035.8021	1055.1437	1085.856	1151.1846	1169.3386	1185.1183	1207.8657	1276.2527	1312.9418	1387.336	1451.941	1454.6478	1480.0103	1487.7489	1520.8815	1589.9809	1602.3655	1672.5111	3002.8487	3072.2792	3105.4951	3271.2111	3501.8568	3701.2098	3722.1772	3831.0762
CNC1=C(O)NC=C1O	CNc1c(O)[nH]cc1O	
InChI=1S/C5H8N2O2/c1-6-4-3(8)2-7-5(4)9/h2,6-9H,1H3	InChI=1S/C5H8N2O2/c1-6-4-3(8)2-7-5(4)9/h2,6-9H,1H3
