15
gdb 5219	6.90522	1.19118	1.05002	3.0891	65.51	-0.216	0.0158	0.2318	1108.7582	0.118466	-399.809959	-399.802381	-399.801437	-399.84371	26.867	
C	 0.1029855846	 1.6506733532	-0.0187459856	-0.361054
C	-0.1492291813	 0.1577707196	-0.2231279243	-0.1346
N	-1.5655865679	-0.0854767723	-0.4641515288	-0.365749
C	-1.9118893667	-1.0038334639	-1.2358418381	 0.53012
O	-1.1114289276	-1.885221602	-1.9376319558	-0.227297
C	-1.9602366767	-2.6994710122	-2.663875457	-0.056601
C	-3.2146173808	-2.3445720577	-2.4139088087	-0.045539
O	-3.2216052983	-1.2918989332	-1.5235664507	-0.219277
H	 1.1574344547	 1.8364554968	 0.2096578368	 0.104833
H	-0.1591198863	 2.2148601542	-0.9189838943	 0.11724
H	-0.5061847757	 2.032141915	 0.8055108247	 0.125215
H	 0.4809183613	-0.2224407844	-1.039236207	 0.102319
H	 0.1495540709	-0.3869110502	 0.6835540687	 0.106234
H	-1.5112434324	-3.45500476	-3.2833779636	 0.16105
H	-4.1683410479	-2.7046445329	-2.7555622662	 0.163108
11.916	140.0711	162.3472	216.8055	281.4342	382.8614	506.8483	565.6475	707.9051	726.6826	747.8745	795.7466	802.3576	851.7706	906.7519	949.6379	1042.4837	1089.4967	1101.2938	1124.8826	1133.0479	1162.9555	1205.0965	1306.1637	1364.4703	1389.3876	1410.2756	1487.5804	1490.0292	1508.8982	1682.0574	1837.7505	2995.6438	3027.3866	3038.6553	3109.5841	3118.5024	3296.1196	3322.3622
CCN=C1OC=CO1	CCN=c1occo1	
InChI=1S/C5H7NO2/c1-2-6-5-7-3-4-8-5/h3-4H,2H2,1H3	InChI=1S/C5H7NO2/c1-2-6-5-7-3-4-8-5/h3-4H,2H2,1H3
