12
gdb 23898	4.90238	0.96808	0.95356	1.953	47.82	-0.3356	0.0229	0.3585	1139.3886	0.079986	-509.053422	-509.045691	-509.044747	-509.086772	26.364	
F	 0.0156229177	 0.0596602633	-0.0309701731	-0.083452
C	-0.0261900703	 1.4012885883	 0.0216381355	 0.290053
F	 1.2418979272	 1.8411823637	-0.0322869426	-0.083429
F	-0.6546265685	 1.8330633763	-1.0771385567	-0.069608
C	-0.7278552767	 1.8852590546	 1.2754762074	-0.327834
C	-0.0088341905	 1.3904984572	 2.5439590341	-0.35069
C	-0.6722169075	 1.8490079771	 3.7607963906	 0.259088
N	-1.2085608521	 2.2196759735	 4.714281087	-0.292735
H	-0.7549189312	 2.9770954733	 1.245721299	 0.156486
H	-1.7577445836	 1.521665386	 1.2464087924	 0.156471
H	 0.0271715606	 0.2963726753	 2.5491778441	 0.172825
H	 1.0266093149	 1.7458241714	 2.5479588923	 0.172824
57.6106	87.9458	124.397	218.4485	352.8277	372.607	398.8608	497.8714	537.5795	570.8673	661.6827	775.7838	852.478	953.843	998.7713	1045.2778	1143.92	1191.12	1249.5366	1267.5858	1312.8101	1333.4737	1405.1406	1470.9267	1482.9362	2369.0996	3058.7146	3083.0727	3098.6516	3136.1046
FC(F)(F)CCC#N	FC(F)(F)CCC#N	
InChI=1S/C4H4F3N/c5-4(6,7)2-1-3-8/h1-2H2	InChI=1S/C4H4F3N/c5-4(6,7)2-1-3-8/h1-2H2
