17
gdb 125609	3.22345	1.23474	0.90274	2.701	80.16	-0.2506	-0.059	0.1916	1255.8894	0.135737	-418.060461	-418.051353	-418.050409	-418.09485	31.954	
C	 0.0301826135	 1.4882258223	-0.0435575216	-0.494753
C	 0.0163207242	-0.0048175593	 0.0329843827	 0.293249
N	-0.0161379905	-0.7474725463	-1.0814355609	-0.266233
N	-0.0199756629	-2.0107249588	-0.6606936989	-0.251664
C	 0.008975309	-2.1214961246	 0.6963840768	 0.22022
C	 0.0093021135	-3.4307867842	 1.3270983722	 0.083955
O	-0.0154393157	-4.4725236167	 0.7014471938	-0.300427
C	 0.033521396	-0.8192844274	 1.1912215484	 0.04671
C	 0.0698708409	-0.3622387396	 2.6156570215	-0.517036
H	 0.9268285356	 1.9065955224	 0.4279068337	 0.130461
H	 0.0102096141	 1.806962709	-1.0874507657	 0.14661
H	-0.8356188979	 1.9249736126	 0.4672481792	 0.130457
H	-0.0423929208	-2.7793445405	-1.3116663754	 0.287242
H	 0.0339666326	-3.4227923912	 2.4356902971	 0.081345
H	 0.9612771907	 0.2431938691	 2.8168541606	 0.138947
H	-0.7987843859	 0.2617850102	 2.8557949186	 0.138945
H	 0.0764886836	-1.201357627	 3.3152594481	 0.131971
64.7256	108.5345	111.4509	171.8229	203.9601	232.8967	306.6939	324.9142	365.4334	523.0413	573.9671	627.6385	689.6645	715.9412	747.8081	805.7424	964.631	1003.9017	1024.637	1047.4432	1077.0838	1125.1077	1191.9359	1235.9868	1308.3301	1391.2726	1410.146	1419.6078	1436.2555	1476.0547	1478.6387	1485.3019	1489.0769	1498.0387	1513.783	1606.7098	1767.4257	2923.3556	3029.082	3031.5136	3076.6917	3080.6846	3117.9546	3135.7137	3660.9803
CC1=NNC(C=O)=C1C	Cc1n[nH]c(C=O)c1C	
InChI=1S/C6H8N2O/c1-4-5(2)7-8-6(4)3-9/h3H,1-2H3,(H,7,8)	InChI=1S/C6H8N2O/c1-4-5(2)7-8-6(4)3-9/h3H,1-2H3,(H,7,8)
