21
gdb 96358	2.14119	1.70325	1.23164	1.2749	74.	-0.2477	0.067	0.3146	1106.5106	0.181846	-461.370819	-461.361589	-461.360645	-461.403922	35.826	
C	-0.0609227118	 1.5328959638	-0.0878137398	-0.424396
C	 0.056031211	 0.0221459955	 0.0165110428	 0.1237
O	 0.7056518611	-0.4548090874	-1.1628320563	-0.254893
C	 0.7683759568	-1.8537156236	-1.2026100768	 0.016218
O	 1.5040620557	-2.3915725756	-0.1344623402	-0.23492
C	 0.9099494393	-2.0338022078	 1.1043872889	-0.132402
C	 0.8147774815	-0.5004587503	 1.2616780412	 0.326267
C	 2.2026482849	 0.1198039981	 1.4189100801	-0.440734
O	-0.0253452719	-0.1994578875	 2.3747872448	-0.469888
H	 0.9162476144	 1.9913531518	-0.2603033586	 0.125439
H	-0.7104869615	 1.7991994249	-0.9257526079	 0.120748
H	-0.487840065	 1.9360564066	 0.833290223	 0.134046
H	-0.9567184818	-0.4127990013	 0.0715685241	 0.073237
H	-0.2555559245	-2.275237671	-1.1979105218	 0.07703
H	 1.2892514152	-2.1279797644	-2.1220117536	 0.116302
H	-0.1055141482	-2.4536007318	 1.1856447101	 0.095459
H	 1.5299329959	-2.4733396024	 1.89275141	 0.097276
H	 2.809769097	-0.0729240926	 0.5319156784	 0.145736
H	 2.136136193	 1.1986934346	 1.5780209387	 0.12329
H	 2.7189354591	-0.3215313865	 2.2804989418	 0.101805
H	 0.4869663898	-0.328235593	 3.179746421	 0.28068
130.8132	196.1308	202.8989	223.1285	240.3734	265.0703	288.1794	337.5882	379.3934	419.9362	448.51	450.3733	524.4199	557.7113	687.5264	748.4595	869.0587	904.126	960.2362	967.23	988.2406	1048.0188	1067.2475	1082.495	1096.6261	1149.3492	1151.8443	1192.4802	1214.4152	1223.6149	1263.8039	1321.542	1352.7321	1372.7877	1384.4879	1398.7143	1409.8575	1414.6162	1442.7869	1486.4417	1487.4396	1495.2947	1497.4972	1507.9536	1514.7674	2917.5318	2958.2685	2983.3879	3030.8271	3053.0062	3074.2868	3104.6817	3114.5908	3123.6408	3138.6229	3141.7006	3814.2869
CC1OCOCC1(C)O	C[C@H]1OCOC[C@]1(C)O	
InChI=1S/C6H12O3/c1-5-6(2,7)3-8-4-9-5/h5,7H,3-4H2,1-2H3	InChI=1S/C6H12O3/c1-5-6(2,7)3-8-4-9-5/h5,7H,3-4H2,1-2H3/t5-,6+/m1/s1
