17
gdb 96720	2.3606	1.37334	1.03665	3.3824	75.69	-0.2407	-0.036	0.2047	1194.2817	0.132735	-455.184725	-455.174441	-455.173497	-455.221236	34.561	
C	-0.4881596001	 1.8965914621	-0.9174788143	-0.33302
N	-0.0075704041	 0.5316198596	-0.8263704999	-0.285815
C	-0.6598222261	-0.3613417436	-0.2059881014	 0.334655
N	-0.1057642938	-1.6500465909	-0.1969332615	-0.332041
C	-0.6628486514	-2.7847621918	 0.3265442947	 0.15824
O	-1.7076577933	-2.831200662	 0.9368858796	-0.304493
C	-1.9994796376	-0.1477682534	 0.5182258474	 0.327073
C	-1.9372849943	 0.0224695388	 2.0179044203	-0.482577
O	-2.999629551	 0.0065861016	-0.1383108317	-0.29227
H	 0.2733048073	 2.568319803	-0.5050408918	 0.129716
H	-0.5963856586	 2.1566236699	-1.9763368244	 0.140651
H	-1.4461403784	 2.0944358258	-0.4226652548	 0.127234
H	 0.7638262421	-1.7219710289	-0.7101359764	 0.261676
H	-0.0338170331	-3.6729137732	 0.132914889	 0.103555
H	-1.4711636631	-0.8466353343	 2.4863676182	 0.160218
H	-1.3285384212	 0.9037814921	 2.2555424107	 0.138794
H	-2.9471262532	 0.1593905052	 2.4074404661	 0.148402
29.0901	75.9488	109.3152	122.9828	180.1253	192.0522	201.7078	252.1905	296.6676	339.4062	431.26	493.5895	608.4254	653.3904	674.5982	724.0648	832.8817	974.163	1019.6198	1028.2678	1066.6144	1091.8504	1131.3956	1169.6375	1181.0396	1312.0477	1379.4121	1433.3897	1447.1243	1454.3544	1473.9118	1481.9747	1490.0616	1512.8877	1734.4681	1802.4719	1809.318	2970.1116	3016.7297	3037.1924	3081.8621	3086.1643	3119.3451	3159.2282	3581.444
CN=C(NC=O)C(C)=O	CN=C(NC=O)C(=O)C	
InChI=1S/C5H8N2O2/c1-4(9)5(6-2)7-3-8/h3H,1-2H3,(H,6,7,8)	InChI=1S/C5H8N2O2/c1-4(9)5(6-2)7-3-8/h3H,1-2H3,(H,6,7,8)
