21
gdb 63201	2.65924	1.587	1.54358	1.6191	82.29	-0.2326	0.0067	0.2393	1021.5761	0.183277	-387.082205	-387.074128	-387.073184	-387.113991	33.158	
C	-0.007121114	 1.5302634891	 0.0369620043	-0.424522
C	-0.0233267812	-0.0110727582	 0.0096628959	 0.24651
C	-1.4770390664	-0.5161102389	-0.0024638194	-0.43088
C	 0.7323184354	-0.509252326	-1.2161934406	-0.084064
C	 1.8606446138	-1.201805145	-1.0635380582	-0.083047
C	 2.300704173	-1.4472462452	 0.3648652381	 0.040698
C	 1.1126393683	-2.0378195269	 1.1612073094	-0.258303
C	 0.7335681299	-0.5421893301	 1.2530309628	 0.063445
O	 2.1438028209	-0.2008938264	 1.1157529902	-0.297683
H	 1.0178940146	 1.8941854123	 0.135191452	 0.138367
H	-0.4369539435	 1.9440306213	-0.8815673613	 0.106817
H	-0.5953531098	 1.909570276	 0.8810572136	 0.105656
H	-2.012660697	-0.1277287971	-0.8753470731	 0.115292
H	-1.5317580178	-1.6079247671	-0.0377940926	 0.116478
H	-2.0128905738	-0.1761563446	 0.8913925694	 0.112668
H	 0.3266322013	-0.2639815722	-2.1950982328	 0.088387
H	 2.4387030904	-1.5882223374	-1.8963317106	 0.091341
H	 3.3005516166	-1.8721666819	 0.4700151002	 0.07504
H	 0.4480276004	-2.7376376331	 0.6534750543	 0.101823
H	 1.4188023558	-2.4250481812	 2.1346327365	 0.106499
H	 0.3045899133	-0.1611352874	 2.1854888118	 0.069479
160.0949	209.2834	225.0594	248.3995	323.1217	348.0634	381.8333	414.3404	463.1653	520.7635	589.4499	667.4721	729.9147	747.572	859.1984	872.2462	898.6514	930.728	936.902	947.2361	964.5596	972.3536	978.8864	1024.1845	1041.8841	1090.3268	1096.3252	1162.8493	1174.3102	1209.5101	1217.8028	1250.9391	1285.8242	1304.5946	1315.6326	1355.1226	1387.4608	1391.2619	1419.5342	1481.4064	1486.0484	1487.3694	1501.0338	1511.6621	1690.9938	3023.8807	3028.593	3055.2856	3076.3192	3087.0429	3092.8628	3097.615	3107.2471	3129.2034	3139.8382	3148.821	3187.1166
CC1(C)C=CC2CC1O2	CC1(C)C=C[C@@H]2C[C@H]1O2	
InChI=1S/C8H12O/c1-8(2)4-3-6-5-7(8)9-6/h3-4,6-7H,5H2,1-2H3	InChI=1S/C8H12O/c1-8(2)4-3-6-5-7(8)9-6/h3-4,6-7H,5H2,1-2H3/t6-,7-/m1/s1
