19
gdb 114849	3.22169	1.3172	1.26158	2.7063	69.72	-0.2531	0.0849	0.338	1073.7701	0.162105	-460.163387	-460.155979	-460.155035	-460.195403	29.501	
O	-0.0601822756	 1.4964341239	 0.12013911	-0.422572
C	 0.0804489293	 0.0884410305	 0.0946149693	-0.087424
C	-1.2888766894	-0.5770155379	 0.0586863389	 0.131224
O	-1.9851061773	-0.1083600329	-1.1326587046	-0.302335
C	-2.4304336081	-1.2841464585	-1.794859212	 0.215642
C	-2.8247112506	-2.2097211731	-0.642443808	-0.258386
C	-1.3899125834	-2.11357101	-0.0726830938	-0.118725
C	-0.6120886853	-2.5690055469	-1.319983897	-0.080715
O	-1.3353972707	-1.9457138285	-2.4052949649	-0.268926
H	-0.6109149505	 1.7188858277	-0.6402499796	 0.2936
H	 0.684358172	-0.2304363601	-0.7664082351	 0.096756
H	 0.6130238682	-0.1947666912	 1.0095695651	 0.10349
H	-1.8507353464	-0.2329264301	 0.9383326918	 0.084659
H	-3.1526215484	-1.0103116613	-2.5616310017	 0.094414
H	-3.5920269099	-1.7867339288	 0.0079602469	 0.112602
H	-3.1052361708	-3.2126249947	-0.9703385936	 0.11043
H	-1.1687304582	-2.6661147582	 0.8400635861	 0.082983
H	 0.4319394967	-2.2455168544	-1.3447324676	 0.111917
H	-0.6380430916	-3.6602592953	-1.4362826802	 0.101366
102.8362	128.9275	202.9342	337.5361	405.2514	452.3717	494.1824	499.1541	528.8161	589.0591	798.7634	823.3974	830.0098	873.6218	906.813	926.2081	952.6012	962.0774	977.6607	1000.7748	1046.8906	1072.0713	1082.3265	1105.6491	1115.6539	1145.7028	1185.5439	1218.0545	1230.6616	1271.383	1298.8777	1311.7726	1326.1137	1340.6256	1369.2239	1388.1642	1410.7917	1441.0663	1491.3666	1496.6176	1534.035	3000.5352	3012.3617	3020.3309	3070.9343	3078.366	3085.8478	3126.4731	3139.9059	3152.5468	3793.1036
OCC1OC2CC1CO2	OC[C@H]1O[C@@H]2C[C@H]1CO2	
InChI=1S/C6H10O3/c7-2-5-4-1-6(9-5)8-3-4/h4-7H,1-3H2	InChI=1S/C6H10O3/c7-2-5-4-1-6(9-5)8-3-4/h4-7H,1-3H2/t4-,5+,6+/m0/s1
