22
gdb 75470	2.66138	1.36725	0.95262	1.035	89.31	-0.2248	0.0316	0.2565	1285.7994	0.194781	-367.200149	-367.191238	-367.190294	-367.233863	34.122	
C	-0.5268494139	 1.5634649462	 0.6138198505	-0.499184
C	-0.2425339988	 0.1514424341	 0.2105464607	 0.347202
C	-0.336606621	-0.3754882507	-1.0113019926	-0.171294
C	-0.0068934453	-1.8467309997	-1.0468707417	-0.258705
C	 0.6378652165	-2.0824364965	 0.3399671046	-0.222585
C	 0.1571034205	-0.909481828	 1.2252916504	-0.039884
N	 1.21395595	-0.4571282454	 2.1339287986	-0.069831
C	 0.7868850801	 0.127230964	 3.4023782116	-0.224045
C	 1.3774990243	-1.2364732662	 3.3584835645	-0.219298
H	 0.3527488274	 2.0223372347	 1.0794068825	 0.138183
H	-0.817734657	 2.173151874	-0.2460881388	 0.118361
H	-1.3365786611	 1.6139241346	 1.353813811	 0.117
H	-0.6510645007	 0.1750067339	-1.8927163956	 0.08188
H	-0.9160548957	-2.4503283877	-1.1811778486	 0.101476
H	 0.6615759556	-2.1173306638	-1.8723792738	 0.101238
H	 0.4028382936	-3.0613265648	 0.7656666514	 0.090007
H	 1.7265257414	-2.0049333111	 0.2609981136	 0.115268
H	-0.739013665	-1.2058537371	 1.809797509	 0.049744
H	 1.3702183462	 0.9731484568	 3.7545640516	 0.114551
H	-0.2817932281	 0.197330215	 3.6009729564	 0.108172
H	 0.7007832929	-2.0736082702	 3.5248317206	 0.107505
H	 2.4011787278	-1.4090449123	 3.6777182941	 0.114241
78.6283	97.8278	166.1067	197.9226	246.2663	279.7254	288.4262	366.5415	451.7803	526.5866	585.5171	660.376	770.5791	815.9183	851.8941	877.7053	896.9502	899.1254	932.7619	958.452	1003.239	1032.8357	1037.7425	1052.9119	1070.6962	1085.8736	1110.4616	1118.8355	1159.1098	1174.0651	1187.3073	1206.4758	1245.7739	1281.5908	1305.1872	1317.1546	1329.8762	1346.3482	1375.0632	1410.5374	1477.9867	1483.6838	1490.6974	1491.8895	1500.8965	1518.5428	1725.1218	2868.9177	3003.3357	3017.6969	3046.4819	3059.9123	3070.7259	3091.3346	3095.9222	3104.8866	3109.8799	3174.5431	3177.2694	3188.9476
CC1=CCCC1N1CC1	CC1=CCC[C@H]1N1CC1	
InChI=1S/C8H13N/c1-7-3-2-4-8(7)9-5-6-9/h3,8H,2,4-6H2,1H3	InChI=1S/C8H13N/c1-7-3-2-4-8(7)9-5-6-9/h3,8H,2,4-6H2,1H3/t8-/m1/s1
