17
gdb 38689	2.78848	2.0766	1.80633	1.8331	69.55	-0.2379	-0.0022	0.2357	837.3075	0.138855	-421.79906	-421.792878	-421.791934	-421.829214	26.471	
C	 0.0011977738	 1.5464989033	-0.2010560829	-0.322842
C	 1.2798070231	 0.786332871	 0.0275800819	 0.128317
O	 2.0141986497	 0.8803098083	 1.2257876257	-0.280892
C	 1.5083415083	 0.106139784	 2.3238884381	 0.137004
O	 0.9100143677	-1.0765690807	 1.8731219408	-0.230556
C	-0.3566900331	-0.6018027412	 1.3633875243	 0.016875
C	-0.7615179588	 0.4233127216	 2.4132256873	-0.105866
C	 0.3521719193	 0.8484783655	 2.9976774832	-0.089411
C	-0.0380069221	 0.0408651723	 0.0073450859	-0.0824
H	-0.3572244039	 2.1886511128	 0.5934919141	 0.12154
H	-0.188301703	 1.9125938775	-1.2046768628	 0.11025
H	 1.9540727012	 0.6644684951	-0.8142480834	 0.099184
H	 2.3735740603	-0.1292192918	 2.9451662675	 0.092245
H	-1.0268261737	-1.4574550195	 1.2693527675	 0.084598
H	-1.7715931102	 0.7878219416	 2.5434503729	 0.11397
H	 0.4779318467	 1.6345004743	 3.7292668631	 0.114265
H	-0.2425830755	-0.5804337843	-0.8578947532	 0.093721
200.0699	257.8294	407.6182	443.9366	474.634	499.3098	609.9356	690.1484	740.2315	757.6898	798.9674	816.2469	835.2503	873.3984	915.1966	940.3957	947.9359	952.4284	973.1957	975.7756	1028.2526	1067.265	1071.8226	1113.1875	1125.447	1145.1391	1168.1653	1226.4812	1279.6631	1302.6226	1325.0043	1350.4208	1361.1857	1369.7163	1405.1709	1471.395	1668.1624	3101.813	3111.1711	3138.0517	3150.4325	3164.1089	3217.4569	3233.5056	3244.4891
C1C2OC3OC(C=C3)C12	C1[C@H]2O[C@@H]3O[C@@H](C=C3)[C@@H]12	
InChI=1S/C7H8O2/c1-2-7-8-5(1)4-3-6(4)9-7/h1-2,4-7H,3H2	InChI=1S/C7H8O2/c1-2-7-8-5(1)4-3-6(4)9-7/h1-2,4-7H,3H2/t4-,5+,6-,7+/m1/s1
