20
gdb 17079	5.67395	1.13544	1.01849	0.9809	75.79	-0.2367	0.0827	0.3194	1204.2886	0.177041	-348.969268	-348.961221	-348.960277	-349.002462	30.323	
C	 0.2679599104	 1.450461508	-0.1318196389	-0.292091
C	 1.1625586445	 0.2254551137	-0.1445400038	-0.285914
C	-0.3399120281	 0.087032821	-0.1360239033	 0.139967
O	-1.0005177054	-0.3045379786	 1.0276193361	-0.255627
C	-1.11987851	-1.6988976555	 1.1786346285	 0.178836
C	 0.0535764395	-2.5158678154	 1.7907245808	-0.240002
C	-1.0070114717	-3.3069122257	 2.6055820888	-0.21931
C	-2.0054371192	-2.1414453704	 2.3587413235	-0.250601
H	 0.2017282822	 2.0019447403	 0.799063308	 0.124577
H	 0.1904843087	 2.0567025088	-1.0271819333	 0.112613
H	 1.7030711568	-0.0205420167	-1.0522335468	 0.110096
H	 1.6849408543	-0.0102214088	 0.7750491193	 0.119186
H	-0.8183398753	-0.2597921725	-1.0534956031	 0.082099
H	-1.4563883762	-2.1533577449	 0.2342318742	 0.063334
H	 0.714171646	-3.0665471928	 1.117489312	 0.094034
H	 0.6540787002	-1.8734169548	 2.4410270597	 0.105156
H	-1.3147806356	-4.2238951533	 2.0955477076	 0.10323
H	-0.7662808247	-3.5519739154	 3.6415873077	 0.101166
H	-1.9531122578	-1.3940508895	 3.1555555193	 0.112566
H	-3.0527178886	-2.3765761075	 2.1572323036	 0.096686
54.6509	80.3795	128.3598	206.5963	317.9603	373.6739	439.5823	479.9767	636.9762	750.4414	768.0594	787.0906	816.4382	838.9275	904.1823	922.6595	942.5311	961.5212	974.6519	1003.7587	1050.1801	1062.6489	1071.0646	1115.9844	1132.4264	1170.1793	1187.3	1193.3981	1205.2289	1243.9649	1244.4118	1248.9421	1257.9552	1272.3454	1302.4176	1368.6185	1425.4912	1454.263	1472.9401	1487.7809	1498.4767	1511.7833	2983.9284	3058.8892	3062.4595	3066.7084	3085.4679	3108.0806	3116.9326	3128.1377	3136.5978	3142.012	3221.3318	3235.2197
C1CC1OC1CCC1	C1CC1OC1CCC1	
InChI=1S/C7H12O/c1-2-6(3-1)8-7-4-5-7/h6-7H,1-5H2	InChI=1S/C7H12O/c1-2-6(3-1)8-7-4-5-7/h6-7H,1-5H2
