18
gdb 120125	3.54875	0.95596	0.88822	1.8778	74.61	-0.2591	0.0161	0.2752	1369.7748	0.14675	-439.036412	-439.027757	-439.026813	-439.070661	31.431	
C	 0.1836592602	 1.3460020065	-0.0381080407	-0.226571
O	 0.2901897644	-0.0581225841	-0.020840792	-0.234786
C	 0.5295732274	-0.5705559286	 1.2727386158	-0.087089
C	 0.6058051118	-2.0714744983	 1.1626168012	-0.058051
C	 1.8485961908	-2.8295225273	 0.863255374	 0.083052
O	 3.0051157991	-2.1636205036	 1.4344346361	-0.271276
C	 2.4953326168	-2.3825852777	 2.717747449	 0.447742
N	 3.0148374857	-2.180440323	 3.83889925	-0.554403
C	 1.2171778906	-2.986042431	 2.232857224	-0.239133
H	 1.1082247181	 1.8303666943	 0.3132358326	 0.108594
H	-0.0016111671	 1.6464901843	-1.0720441402	 0.128421
H	-0.6487693155	 1.7008404061	 0.5904110737	 0.104486
H	 1.4634953997	-0.1645105719	 1.6875707415	 0.10988
H	-0.2866144852	-0.2878879678	 1.9588050199	 0.093202
H	-0.2793414846	-2.520526078	 0.716444258	 0.113481
H	 2.0300313344	-3.5311065498	 0.0611706674	 0.126123
H	 3.9497578626	-1.7795743731	 3.7466740724	 0.231831
H	 0.6781130705	-3.7994871571	 2.6951297473	 0.124496
63.2295	89.142	97.0317	200.4505	226.4017	268.0377	392.3471	395.9817	444.0592	606.7843	684.8688	739.0118	784.1961	832.3915	867.1692	905.5321	932.2837	957.8025	992.4919	1001.9094	1035.9219	1047.903	1065.4426	1096.4525	1156.3406	1175.9587	1193.5886	1199.5418	1231.2743	1272.544	1288.2378	1325.7803	1399.8492	1458.1487	1481.8686	1486.1656	1500.8624	1523.2478	1831.5561	2962.4619	2973.6171	3014.7005	3019.637	3116.3861	3143.1459	3219.9288	3234.8009	3479.3432
COCC1C2OC(=N)C12	COC[C@H]1[C@H]2O[C]([NH])[C@@H]12	
InChI=1S/C6H9NO2/c1-8-2-3-4-5(3)9-6(4)7/h3-5,7H,2H2,1H3	InChI=1S/C6H9NO2/c1-8-2-3-4-5(3)9-6(4)7/h3-5,7H,2H2,1H3/t3-,4+,5-/m1/s1
