16
gdb 51917	7.13117	0.49684	0.47846	4.8892	78.82	-0.2719	-0.0383	0.2336	2138.6892	0.123881	-434.111284	-434.101905	-434.100961	-434.147047	31.8	
O	-0.6732134015	 0.8020273173	-1.1990564882	-0.288622
C	-0.3390216865	 1.4835842299	-0.2611297515	 0.162435
N	 0.8705282288	 1.3769651096	 0.3932033032	-0.308053
C	 1.8576482275	 0.4688949275	 0.0448192411	 0.117143
N	 2.9457747793	 0.4190402407	 0.6917423135	-0.244224
C	 3.9328346753	-0.5508258257	 0.2637018244	-0.148151
C	 4.3005903766	-1.4585274965	 1.4572550023	-0.321535
C	 5.3611101233	-2.4052723869	 1.1249162809	 0.252932
N	 6.2008811792	-3.1467113304	 0.8416799843	-0.301819
H	-0.9717375902	 2.2754562855	 0.1799504916	 0.099162
H	 1.0720365066	 1.9884904113	 1.1720391875	 0.268803
H	 1.5845451386	-0.1519424403	-0.8127021053	 0.145701
H	 3.5963274818	-1.1700066172	-0.5819549806	 0.113635
H	 4.8354559398	-0.0178280084	-0.0568800224	 0.134416
H	 4.6194990621	-0.8349886895	 2.298689877	 0.163751
H	 3.4160493196	-2.0135913769	 1.7877667621	 0.154426
45.0613	65.644	95.621	161.8207	181.8662	192.5245	296.4512	376.3904	403.235	418.5348	483.4432	585.874	654.9177	785.0997	802.3846	952.1613	1005.8316	1031.1871	1040.6103	1061.1028	1071.5554	1111.0869	1216.8194	1253.4004	1295.3484	1309.0354	1355.9731	1393.842	1437.4682	1469.1204	1493.5261	1506.8471	1750.6903	1823.3562	2364.1215	2970.7897	2988.7599	3052.183	3060.0878	3098.8267	3104.3625	3610.3178
O=CNC=NCCC#N	O=CNC=NCCC#N	
InChI=1S/C5H7N3O/c6-2-1-3-7-4-8-5-9/h4-5H,1,3H2,(H,7,8,9)	InChI=1S/C5H7N3O/c6-2-1-3-7-4-8-5-9/h4-5H,1,3H2,(H,7,8,9)
