18
gdb 61426	2.45845	1.23964	1.03082	1.9542	69.09	-0.2419	-0.0119	0.23	1240.2255	0.144606	-476.292978	-476.282692	-476.281748	-476.328909	36.199	
C	 0.131234658	 1.9119350422	 0.1403626249	-0.416196
C	-0.1476034739	 0.4342576489	-0.1165722822	 0.052106
O	 0.2646076631	 0.1659257597	-1.4597569269	-0.257312
C	-0.0068097477	-1.0954614887	-1.8819088889	 0.511369
N	 0.4222445221	-1.2635679137	-3.1656029643	-0.566128
O	-0.5862079773	-1.9261117409	-1.2181261165	-0.406602
C	 0.6480615576	-0.4394268529	 0.8745109999	 0.407063
C	-0.1052799141	-0.8951171282	 2.1034688204	-0.492902
O	 1.8052209854	-0.7089028896	 0.6644026331	-0.318404
H	 1.2011685057	 2.1111780792	 0.0385136906	 0.145891
H	-0.4154334222	 2.5295912042	-0.5765417079	 0.132405
H	-0.1834827868	 2.1926449966	 1.1496700571	 0.125574
H	-1.2147891982	 0.2117910268	-0.0199224913	 0.101568
H	 1.1002210491	-0.6148261143	-3.5291545711	 0.268505
H	 0.4646347704	-2.2140318377	-3.4918732316	 0.271096
H	-0.6767420697	-0.0756028085	 2.5529005657	 0.129904
H	-0.8254445821	-1.6601370573	 1.7912263285	 0.170365
H	 0.5851891706	-1.3177169558	 2.8340184604	 0.141698
42.0416	84.7526	89.3288	166.9944	173.7392	227.7021	240.6612	289.016	335.0512	388.3343	401.7768	479.6885	518.7821	588.1687	617.8096	694.587	768.016	790.0489	880.5411	951.7846	987.9442	1014.3484	1082.85	1112.7311	1126.1385	1151.2687	1202.3054	1313.9794	1363.0057	1375.4213	1400.3277	1414.579	1464.8359	1474.5969	1484.2641	1500.2111	1614.3941	1822.3879	1828.2186	3037.1032	3048.5085	3064.8822	3101.2336	3123.8685	3133.384	3154.3268	3610.9938	3737.9522
CC(OC(N)=O)C(C)=O	C[C@@H](OC(=O)N)C(=O)C	
InChI=1S/C5H9NO3/c1-3(7)4(2)9-5(6)8/h4H,1-2H3,(H2,6,8)	InChI=1S/C5H9NO3/c1-3(7)4(2)9-5(6)8/h4H,1-2H3,(H2,6,8)/t4-/m1/s1
