18
gdb 54009	2.03703	1.56074	1.05586	1.081	76.65	-0.2598	-0.0243	0.2355	1183.7955	0.145577	-435.304317	-435.294284	-435.29334	-435.339711	35.111	
C	 0.0004103622	 0.7942754529	 2.2770201406	-0.43898
C	-0.1197864949	 0.3012437699	 0.86557951	 0.334314
N	 0.6746781004	 0.671778283	-0.0451178343	-0.435468
N	-1.2260531641	-0.6135301422	 0.6167482055	-0.149313
C	-1.15392563	-1.9145804511	 1.1225093448	 0.074268
N	-0.1251096621	-2.3169871707	 1.7492926372	-0.463959
C	-2.3852994544	-0.2233463887	-0.0804775247	 0.396922
C	-2.4465159533	 1.219852316	-0.5377710977	-0.501581
O	-3.2834127451	-1.0090159046	-0.291199159	-0.33665
H	 0.1806660508	-0.0543366486	 2.941869743	 0.172217
H	 0.8281204417	 1.4998710293	 2.3464167154	 0.149703
H	-0.9284821637	 1.2789181415	 2.5980289844	 0.127832
H	 0.4596865039	 0.2091077127	-0.9307073437	 0.226807
H	-2.0574391647	-2.4803341055	 0.8945535361	 0.150408
H	-0.2512757838	-3.2834441386	 2.0437140975	 0.235368
H	-1.7718851918	 1.3913172271	-1.3813876991	 0.156217
H	-3.4693118952	 1.4194072084	-0.8555728644	 0.153237
H	-2.1568364361	 1.9175410691	 0.2524104883	 0.148659
63.1891	83.1261	125.7212	142.7239	176.5231	204.0239	216.1897	235.5855	383.7426	415.6395	461.3685	531.4865	589.5637	598.6676	635.5669	717.783	837.2633	920.1883	971.3968	984.4573	1050.7382	1063.475	1075.9888	1088.829	1103.7639	1152.9547	1296.8745	1313.8196	1338.1631	1396.9524	1398.9083	1404.3775	1459.5883	1467.134	1479.8586	1485.4697	1711.6338	1748.7904	1792.919	3044.8677	3057.7965	3116.3895	3122.5378	3138.7408	3162.8858	3165.9307	3459.1043	3508.2233
CC(=N)N(C=N)C(C)=O	CC(=N)N(C=N)C(=O)C	
InChI=1S/C5H9N3O/c1-4(7)8(3-6)5(2)9/h3,6-7H,1-2H3	InChI=1S/C5H9N3O/c1-4(7)8(3-6)5(2)9/h3,6-7H,1-2H3
