17
gdb 73098	2.96933	1.48978	1.24017	3.824	67.61	-0.2619	0.0081	0.2699	1036.8086	0.135868	-458.998785	-458.991037	-458.990093	-459.031268	29.485	
C	-0.1192533415	 1.5152200297	 0.1058685659	-0.460474
C	 0.0096855456	 0.0090521493	 0.0166661534	 0.399704
C	-1.2767692196	-0.773694382	-0.2041379382	-0.420916
C	-1.1456464028	-2.0189163429	 0.6712281639	 0.425964
O	-1.8813259923	-2.9558278819	 0.7401897722	-0.322466
O	-0.0197182499	-1.9247552117	 1.4479800163	-0.226227
C	 0.7392660532	-0.7593382996	 1.153900298	 0.012382
C	 1.8484539356	-0.9867395702	 0.1197390249	-0.106729
O	 1.0474617449	-0.3900731055	-0.9250279592	-0.32377
H	 0.8452653561	 1.9741252907	 0.3416569502	 0.12682
H	-0.4616158445	 1.9211856439	-0.8511474017	 0.138701
H	-0.8401746864	 1.8007041516	 0.8788409103	 0.124165
H	-2.1747509646	-0.2278778753	 0.1015760424	 0.139134
H	-1.3982882833	-1.066711621	-1.2489452836	 0.15811
H	 0.9860349153	-0.2508873492	 2.0864622266	 0.102401
H	 2.7718558616	-0.4234456255	 0.3012994648	 0.109635
H	 2.0865371629	-2.0368283804	-0.077038586	 0.123565
75.3058	128.5913	220.3115	255.4957	328.8148	378.1505	397.3552	506.7442	553.0584	584.2985	667.8269	708.9571	814.9845	861.737	899.1932	908.1228	941.086	962.4877	1012.6957	1065.5154	1096.6238	1114.9442	1127.6394	1171.0988	1188.6538	1218.4948	1239.9448	1254.9356	1323.5773	1341.8286	1381.3406	1409.5326	1441.5211	1483.7333	1490.4979	1512.3585	1892.4381	3026.0328	3037.0942	3068.5008	3085.872	3109.7057	3111.4038	3114.9004	3125.8525
CC12CC(=O)OC1CO2	C[C@]12CC(=O)O[C@H]1CO2	
InChI=1S/C6H8O3/c1-6-2-5(7)9-4(6)3-8-6/h4H,2-3H2,1H3	InChI=1S/C6H8O3/c1-6-2-5(7)9-4(6)3-8-6/h4H,2-3H2,1H3/t4-,6-/m0/s1
