16
gdb 24201	4.15075	1.60218	1.3974	3.6167	74.22	-0.1954	0.021	0.2164	918.0739	0.129792	-396.892242	-396.886191	-396.885247	-396.922627	25.023	
C	-0.0193658873	 1.5482232354	-0.1292015702	-0.196825
C	 1.529282876	 1.3135730124	 0.04494122	-0.139953
N	 1.1183613051	 0.2377078409	 1.0162788937	-0.282938
C	 0.0042246595	-0.0194958117	 0.0246401826	-0.13253
C	 0.7794427693	-0.4019720696	-1.2380335027	 0.278401
C	 1.8236303326	 0.485670405	-1.2090988792	 0.264072
N	 2.3938909333	 0.4129749921	-2.4502662705	-0.379412
C	 1.6938164913	-0.5608324048	-3.1353290843	-0.025977
N	 0.6840022976	-1.0520255678	-2.4342542541	-0.352688
H	-0.4693080993	 2.0594724659	 0.725533034	 0.110672
H	-0.3660129628	 1.9579113973	-1.0787391309	 0.104606
H	 2.2162820268	 2.0840218484	 0.3925839211	 0.075195
H	 1.7904516495	-0.5315881963	 1.0323981055	 0.202291
H	-0.8564094473	-0.5951794403	 0.3594221857	 0.08153
H	 3.2201620206	 0.8813507564	-2.7835936526	 0.266184
H	 2.0019736551	-0.8929717933	-4.1157829082	 0.127373
112.4385	302.8956	403.4282	494.6618	516.8036	537.4821	656.7744	690.3624	700.4763	751.7754	772.1566	798.6449	830.7039	901.8785	909.8112	960.1704	1018.9708	1039.5203	1040.6432	1078.9526	1113.0322	1129.5055	1144.6857	1204.3277	1234.0815	1255.8955	1263.3562	1264.6146	1345.2926	1349.2319	1384.8602	1429.5398	1483.9908	1487.4173	1548.2588	3067.2207	3125.3931	3141.7926	3143.3489	3248.8445	3430.2893	3658.4332
C1C2NC1C1=C2NC=N1	C1[C@H]2N[C@@H]1c1c2[nH]cn1	
InChI=1S/C6H7N3/c1-3-5-6(4(1)9-3)8-2-7-5/h2-4,9H,1H2,(H,7,8)	InChI=1S/C6H7N3/c1-3-5-6(4(1)9-3)8-2-7-5/h2-4,9H,1H2,(H,7,8)/t3-,4+
