18
gdb 69747	3.07802	1.50281	1.28692	2.8832	76.56	-0.2514	0.0238	0.2752	1039.3764	0.148164	-401.909767	-401.902209	-401.901265	-401.941542	30.136	
C	-0.0057152125	 1.5592388841	 0.0670202272	-0.499065
C	 0.0233893755	 0.059777894	 0.0090134746	 0.351864
C	-0.8819014185	-0.8266482848	 0.8074908019	-0.349367
C	 0.6056941997	-0.9754789291	 0.9967171746	-0.11719
C	 1.2373249332	-1.7336151292	-0.1799047028	 0.104386
O	 0.4284609208	-2.8025130423	-0.7892557791	-0.278566
C	-0.0772923067	-1.9205550899	-1.7392678129	 0.420767
N	-0.8543549223	-2.1286490681	-2.7010485249	-0.554323
C	 0.667019677	-0.7226412858	-1.1821444982	-0.219961
H	 0.9686838129	 1.9915087031	-0.1873106202	 0.119447
H	-0.7437290066	 1.9649145645	-0.6350508527	 0.133582
H	-0.2758161568	 1.9061673749	 1.0695864179	 0.122145
H	-1.3835608447	-0.328543692	 1.6314885642	 0.114902
H	-1.4651344202	-1.6191388858	 0.3500889962	 0.136796
H	 1.0818215586	-0.8264162586	 1.9583575136	 0.090301
H	 2.2873337667	-2.0126455285	-0.1142194662	 0.097779
H	-1.1332098435	-3.1108094733	-2.7468008871	 0.226757
H	 1.2841630374	-0.1364368031	-1.8595594061	 0.099744
135.1647	155.7734	211.3697	261.9974	336.0568	390.5944	441.1123	525.2264	594.8849	649.4968	741.8368	768.2504	788.144	860.7092	872.661	893.4668	897.7715	943.2006	966.1523	983.3081	999.2353	1002.4931	1039.267	1072.2514	1102.6689	1110.0799	1180.5831	1190.7247	1198.7461	1234.8383	1284.8057	1291.3877	1322.5429	1394.3374	1422.7094	1484.1164	1496.8724	1501.8214	1816.1252	3023.0265	3083.2541	3099.1405	3128.3488	3132.7995	3145.6538	3183.3736	3210.0589	3468.0665
CC12CC1C1OC(=N)C21	C[C@]12C[C@H]1[C@H]1O[C]([NH])[C@@H]21	
InChI=1S/C7H9NO/c1-7-2-3(7)5-4(7)6(8)9-5/h3-5,8H,2H2,1H3	InChI=1S/C7H9NO/c1-7-2-3(7)5-4(7)6(8)9-5/h3-5,8H,2H2,1H3/t3-,4-,5+,7-/m0/s1
