19
gdb 38400	4.02727	1.28127	1.26415	2.2385	78.88	-0.2285	0.0771	0.3055	1066.2552	0.161154	-381.968959	-381.961809	-381.960865	-382.000437	29.202	
C	 0.110272511	 1.424799416	-0.0186501926	-0.241942
C	 1.343918179	 0.6157203908	 0.0191957414	-0.088121
N	-0.0353914353	-0.037063935	 0.0853451346	-0.131027
C	 0.2048794306	-0.5539534785	-1.3088467561	-0.2583
C	 1.6506233334	 0.0031795054	-1.335882925	 0.394228
C	 2.2432424965	 0.7749857521	-2.567362634	-0.316449
C	 3.3626801934	-0.2678610058	-2.6311416559	-0.036518
N	 4.0475197643	-0.2118605055	-1.3160714855	-0.338242
C	 2.7980262329	-1.0015679622	-1.4667696751	-0.143291
H	-0.1759601009	 1.9445158606	 0.8907639171	 0.120315
H	-0.1901970859	 1.9231327666	-0.9392554053	 0.107414
H	 2.0233088972	 0.6176210315	 0.8648612352	 0.100002
H	 0.1539259755	-1.6458501252	-1.3219965923	 0.11016
H	-0.4954486837	-0.1549133513	-2.0518623026	 0.098897
H	 1.5700044178	 0.736528955	-3.4278706543	 0.101839
H	 2.5650039876	 1.8050291416	-2.3927273868	 0.107143
H	 3.87707648	-0.6428735187	-3.5070022352	 0.093944
H	 4.8219496428	-0.8748839718	-1.352604761	 0.228172
H	 2.7756303139	-2.0605996255	-1.2360137468	 0.091776
127.1736	136.7325	221.7243	380.1044	411.0491	429.3697	508.1568	539.8255	737.9628	747.7202	783.9533	815.3467	836.8558	849.9943	880.9392	892.8643	933.9588	963.2133	972.8663	1009.4003	1013.6099	1052.7318	1078.4382	1097.5233	1105.8428	1113.7294	1139.3876	1153.7676	1178.6888	1202.6218	1212.9999	1230.1534	1249.2593	1286.0539	1292.8802	1325.7056	1374.0567	1386.9085	1469.0285	1490.4462	1508.0477	3031.9281	3056.7553	3095.1618	3095.9817	3114.6374	3171.4253	3175.6966	3192.7929	3195.0225	3467.7402
C1C2N1CC21CC2NC12	C1[C@H]2N1C[C@]12C[C@H]2N[C@@H]12	
InChI=1S/C7H10N2/c1-4-6(8-4)7(1)3-9-2-5(7)9/h4-6,8H,1-3H2	InChI=1S/C7H10N2/c1-4-6(8-4)7(1)3-9-2-5(7)9/h4-6,8H,1-3H2/t4-,5-,6-,7+,9?/m1/s1
