19
gdb 92055	2.60961	1.5592	1.13974	3.6141	74.6	-0.2428	-0.0149	0.2279	1108.2708	0.159662	-423.04688	-423.038651	-423.037707	-423.079873	31.411	
C	-0.0354588413	 1.5938682489	 0.0098342155	-0.399005
C	 0.150556726	 0.078969403	 0.0536182225	-0.084901
C	 0.6878036376	-0.4853031148	-1.2848827243	-0.233783
C	 1.2031326386	-1.9092447058	-1.2025728977	 0.027421
O	 2.523812751	-2.0633581662	-0.6641499186	-0.249298
C	 1.4272064649	-2.5844298897	 0.0885653212	 0.054584
C	 1.1514329253	-1.8759563551	 1.3952335905	-0.338491
C	 1.0278782307	-0.363352525	 1.2230531607	 0.385528
O	 1.5505499141	 0.4126303356	 1.9858814347	-0.306704
H	 0.9281069667	 2.0960026251	-0.1147015471	 0.133671
H	-0.6854600633	 1.8796342676	-0.8231234059	 0.107387
H	-0.4774096148	 1.9634836923	 0.9381322503	 0.127156
H	-0.8229216709	-0.4051880142	 0.2297909895	 0.091502
H	-0.1070867118	-0.4275995769	-2.0360352879	 0.108199
H	 1.507072133	 0.1478987591	-1.6462562192	 0.128637
H	 1.0185810713	-2.5332897666	-2.0772619947	 0.096635
H	 1.3840857199	-3.6738679716	 0.1231532277	 0.094369
H	 0.2050554492	-2.247747756	 1.8132500571	 0.122567
H	 1.9384708436	-2.0827345296	 2.1260708459	 0.134525
78.6736	95.8336	193.837	271.5285	304.0602	336.6169	356.9537	411.9708	520.7713	547.9533	593.2545	704.2751	778.4615	796.3407	815.6156	874.1131	910.4905	943.6222	1002.7696	1021.7887	1050.0884	1059.8485	1093.0555	1147.0905	1157.5579	1182.6703	1223.5432	1233.2769	1292.9597	1316.7901	1323.1726	1334.6468	1380.3643	1391.4711	1412.9287	1453.61	1472.1816	1481.2114	1491.0172	1494.4426	1822.525	2985.9317	3021.0982	3035.9826	3044.7591	3077.7196	3094.6148	3098.161	3111.1612	3114.6662	3126.0083
CC1CC2OC2CC1=O	C[C@H]1C[C@H]2O[C@H]2CC1=O	
InChI=1S/C7H10O2/c1-4-2-6-7(9-6)3-5(4)8/h4,6-7H,2-3H2,1H3	InChI=1S/C7H10O2/c1-4-2-6-7(9-6)3-5(4)8/h4,6-7H,2-3H2,1H3/t4-,6+,7-/m0/s1
