16
gdb 129624	3.00193	1.15866	0.88096	3.1549	73.06	-0.213	-0.0312	0.1818	1262.3342	0.125027	-434.08689	-434.077961	-434.077017	-434.122449	30.948	
N	 0.0605479702	 1.5293118838	 0.2907482318	-0.616429
C	 0.0357348798	 0.1289593291	 0.0964877858	 0.066442
C	-1.0999075647	-0.6443625248	-0.0867718096	 0.322013
C	-2.5487865716	-0.2739475599	-0.1340652597	-0.387686
C	-3.1471894663	-0.6924646319	-1.4699694187	 0.155206
O	-3.9695053102	-1.5618229345	-1.5999027668	-0.241083
N	-0.6484826916	-1.9182240055	-0.2782383386	-0.251058
N	 0.687842132	-2.0246799965	-0.2464646994	-0.223169
C	 1.1105140291	-0.7840317264	-0.0117530045	-0.060221
H	 1.0056068387	 1.8892378128	 0.2375492139	 0.243863
H	-0.3189910773	 1.799709919	 1.1917742281	 0.244894
H	-3.1350666309	-0.7355254725	 0.6680179137	 0.12983
H	-2.6175536227	 0.8161067609	-0.043379639	 0.13929
H	-2.7296601284	-0.149226802	-2.3460073268	 0.093399
H	-1.2042583486	-2.7440816236	-0.4296220641	 0.27969
H	 2.1692442823	-0.580433788	 0.066712684	 0.105019
31.4236	52.7096	79.8619	158.0632	214.8415	284.7563	347.0387	451.1889	476.9552	506.8953	644.793	685.3456	702.1887	737.6957	813.0038	857.8683	867.3882	949.0758	1009.992	1056.2061	1103.6178	1153.7919	1182.5115	1224.542	1265.7901	1292.2998	1326.3379	1398.3003	1419.4544	1445.725	1458.0172	1524.4364	1635.7008	1659.9592	1828.9426	2896.6541	3036.8216	3092.0887	3235.8624	3512.7225	3598.7165	3660.938
NC1=C(CC=O)NN=C1	Nc1c(CC=O)[nH]nc1	
InChI=1S/C5H7N3O/c6-4-3-7-8-5(4)1-2-9/h2-3H,1,6H2,(H,7,8)	InChI=1S/C5H7N3O/c6-4-3-7-8-5(4)1-2-9/h2-3H,1,6H2,(H,7,8)
