17
gdb 99248	5.13473	0.67451	0.60063	5.5015	66.92	-0.2526	0.0063	0.2589	1752.1088	0.134311	-492.345738	-492.335472	-492.334528	-492.383102	35.022	
N	-0.0845590202	 1.2706537602	-0.0199211606	-0.522894
C	 0.0076869129	-0.0822223929	-0.0210257846	 0.408009
O	 1.0672384388	-0.6806895135	-0.0678486403	-0.359974
C	-1.3327874015	-0.817785208	 0.0418256885	-0.24656
N	-1.0680415591	-2.2331981211	 0.0329080324	-0.325056
C	-2.0526854755	-3.1518618296	 0.0796840931	 0.395077
O	-3.2413719875	-2.8595455636	 0.1331294965	-0.400674
C	-1.6289954978	-4.6239273258	 0.0634908496	-0.145046
O	-2.7613702501	-5.4399909344	 0.117200092	-0.420271
H	 0.7632373297	 1.8118537166	-0.060406529	 0.272053
H	-0.9666510438	 1.7509671845	 0.0182785624	 0.270532
H	-1.8800949422	-0.5212168289	 0.9462074571	 0.145412
H	-1.9603182574	-0.5252220591	-0.8102373751	 0.145377
H	-0.0876155764	-2.4808464322	-0.0111547798	 0.268501
H	-1.0415039946	-4.8156506964	-0.8487521096	 0.111103
H	-0.9604705704	-4.8118631276	 0.9189564053	 0.111108
H	-3.5054651049	-4.8139540384	 0.1495894622	 0.293302
20.9919	60.6797	78.4399	106.6647	151.8883	187.215	260.2968	302.4922	370.7413	453.3327	492.911	515.8277	537.5981	616.0869	635.2275	643.5407	723.2299	837.2253	972.8153	1013.6205	1038.9997	1088.982	1121.3843	1160.9767	1237.8076	1239.7253	1244.6128	1300.9052	1323.5696	1412.8867	1462.6247	1501.7682	1508.6522	1547.8359	1623.8409	1758.3394	1799.3826	2974.91	2993.7083	3021.1257	3046.0631	3575.7601	3605.75	3645.8766	3739.4642
NC(=O)CNC(=O)CO	NC(=O)CNC(=O)CO	
InChI=1S/C4H8N2O3/c5-3(8)1-6-4(9)2-7/h7H,1-2H2,(H2,5,8)(H,6,9)	InChI=1S/C4H8N2O3/c5-3(8)1-6-4(9)2-7/h7H,1-2H2,(H2,5,8)(H,6,9)
