19
gdb 121490	6.41728	0.52597	0.50649	7.8035	80.26	-0.2304	0.0101	0.2404	2153.8174	0.158053	-456.38819	-456.377969	-456.377025	-456.425909	35.173	
C	 0.1582938608	 1.2173199173	-0.4232357812	-0.369018
C	-0.1207379891	 0.1297309161	 0.6177909882	-0.146265
N	-1.4517558189	-0.4394471671	 0.5140271837	-0.277158
C	-1.7302017938	-1.6738126768	 0.0315325805	 0.137784
N	-2.9185027603	-2.1116347773	-0.1357074738	-0.300472
H	-4.5126138136	-2.4636407868	 0.8241533548	 0.298851
C	-3.097921321	-3.4644153197	-0.6210551376	-0.290957
C	-4.2367617719	-4.1653678982	 0.1360769032	 0.413688
O	-4.9459483364	-3.3386408944	 0.9182270475	-0.361826
O	-4.4824429877	-5.3353065255	 0.021256606	-0.338545
H	 1.1643887848	 1.6265424382	-0.2882516352	 0.125788
H	 0.0788167674	 0.817258596	-1.4383249979	 0.129744
H	-0.5547736133	 2.0427950815	-0.328005105	 0.123792
H	 0.5958530399	-0.6908614266	 0.5092451382	 0.125139
H	 0.0211857108	 0.5342026875	 1.6277795878	 0.12017
H	-2.2460937095	 0.1593721535	 0.6871331062	 0.25046
H	-0.8352084174	-2.2680767997	-0.1961171188	 0.100464
H	-3.3959772708	-3.4583268695	-1.6790556155	 0.137839
H	-2.2024724699	-4.0976127684	-0.5463525111	 0.120523
21.724	40.5312	71.4434	91.508	177.0046	218.4993	266.6699	309.6442	351.6006	432.3223	461.3569	568.5015	570.3595	597.7554	672.9906	790.5266	792.4863	873.5203	915.9936	985.4422	1029.1195	1052.684	1076.1413	1114.8343	1189.8791	1220.7037	1233.6348	1289.8014	1321.3899	1351.1815	1385.8619	1406.3721	1413.8631	1427.6769	1464.0449	1485.9612	1489.312	1507.1674	1510.8565	1754.2258	1876.6925	2999.4553	3026.8003	3036.8904	3037.6662	3038.1393	3078.4912	3111.2355	3119.4615	3506.8953	3611.0804
CCNC=[NH+]CC([O-])=O	CCNC=NCC(=O)O	
InChI=1S/C5H10N2O2/c1-2-6-4-7-3-5(8)9/h4H,2-3H2,1H3,(H,6,7)(H,8,9)	InChI=1S/C5H10N2O2/c1-2-6-4-7-3-5(8)9/h4H,2-3H2,1H3,(H,6,7)(H,8,9)
