17
gdb 88267	3.18567	1.04879	0.92884	0.777	71.4	-0.2368	-0.0666	0.1702	1299.3448	0.135203	-455.168477	-455.159182	-455.158238	-455.203175	33.626	
C	-0.0381923809	 1.5569236484	-0.5197031912	-0.406243
C	-0.0661493113	 0.1173868394	-0.0730362244	 0.013886
N	 1.1997428173	-0.5947661374	-0.0208508684	-0.318469
C	 0.4864959314	-0.3593689009	 1.2534057942	-0.153192
C	 1.1151960328	 0.5776213486	 2.2176697411	 0.317855
O	 1.9026259629	 1.4561528461	 1.936490556	-0.323485
C	 0.6693087054	 0.385706336	 3.6897982647	 0.330915
N	 1.2473619261	 1.2860474022	 4.5118747543	-0.520796
O	-0.1121906365	-0.4876295501	 4.0207929234	-0.352813
H	 0.8508779761	 2.061620995	-0.1401953901	 0.160781
H	-0.0230725092	 1.6029112535	-1.6139075754	 0.123138
H	-0.9303016314	 2.0881061427	-0.1718915524	 0.117423
H	-0.9421691169	-0.4454394858	-0.395874347	 0.097502
H	 1.0826925019	-1.5699271311	-0.2846824205	 0.241227
H	-0.0396567289	-1.1805826226	 1.7259278733	 0.123197
H	 1.8892811059	 1.9555111077	 4.1185300003	 0.280347
H	 1.0552384653	 1.2649502484	 5.4985962322	 0.268726
52.712	65.2453	168.7123	179.3357	223.8153	280.6356	329.7874	364.9471	382.252	424.669	498.1758	528.3803	621.1187	669.936	737.6757	815.8359	826.4321	873.1895	943.629	994.0997	1020.914	1074.8238	1081.8971	1105.0774	1149.7661	1197.4146	1234.799	1257.5573	1358.4368	1399.3687	1432.2535	1462.2581	1494.4164	1500.3291	1585.5116	1784.711	1802.4568	3040.1997	3099.7798	3104.5464	3154.0981	3189.5345	3501.8942	3595.924	3738.7231
CC1NC1C(=O)C(N)=O	C[C@H]1N[C@H]1C(=O)C(=O)N	
InChI=1S/C5H8N2O2/c1-2-3(7-2)4(8)5(6)9/h2-3,7H,1H3,(H2,6,9)	InChI=1S/C5H8N2O2/c1-2-3(7-2)4(8)5(6)9/h2-3,7H,1H3,(H2,6,9)/t2-,3-/m1/s1
