20
gdb 9267	3.18983	1.1058	0.87197	1.2791	78.19	-0.2523	0.0351	0.2874	1359.161	0.173309	-348.96675	-348.956671	-348.955727	-349.002315	35.714	
C	-0.1398279361	 1.5586708454	-0.0101476989	-0.386668
C	-0.0053251014	 0.0346773286	-0.0329456813	-0.176779
C	 0.747918097	-0.4907962227	-1.256202968	 0.171016
C	 0.9510330526	-2.007220902	-1.2029806911	-0.406822
O	-0.0142949793	-0.1019460183	-2.3991480054	-0.25759
C	 0.7051151509	-0.1020275509	-3.6154017341	-0.21439
C	-0.1149182187	 0.478512273	-4.6720433492	 0.285328
C	-0.7694719499	 0.9502897144	-5.5613915668	-0.419318
H	 0.8430922173	 2.0422271627	 0.0298888577	 0.107092
H	-0.6516535704	 1.9109812652	-0.9087314464	 0.137424
H	-0.7086897856	 1.8904905541	 0.8635679423	 0.1091
H	 0.516343504	-0.3143042676	 0.8662327238	 0.092728
H	-0.9990522041	-0.4301348653	-0.0210569139	 0.105688
H	 1.7343763088	 0.0039056773	-1.3057290275	 0.061051
H	 1.4957700135	-2.3779796542	-2.0763126062	 0.115359
H	 1.5271946991	-2.28448128	-0.3144630676	 0.116057
H	-0.0166354952	-2.5171973525	-1.1620808454	 0.126216
H	 1.6373504561	 0.4796643425	-3.5110694249	 0.116065
H	 1.0022205268	-1.1214292415	-3.9096475587	 0.119322
H	-1.3530933254	 1.3697657117	-6.3430939982	 0.199122
37.2415	86.1055	118.4474	129.9003	212.9241	226.6929	250.3555	282.3209	330.4542	380.2905	452.7762	486.1899	544.4492	607.0462	673.1902	779.4602	834.4615	910.7008	967.8549	983.5343	999.3988	1031.1229	1035.505	1108.145	1129.3855	1161.6024	1198.6942	1251.9646	1299.9225	1330.4406	1365.2812	1394.8748	1405.5393	1408.1152	1427.5582	1474.8999	1491.1215	1495.0897	1497.3153	1506.9671	1511.5794	2247.3454	2943.185	2955.5789	2982.2729	3028.942	3035.5275	3038.6391	3066.902	3099.735	3107.1002	3113.736	3129.2268	3506.6924
CCC(C)OCC#C	CC[C@@H](C)OCC#C	
InChI=1S/C7H12O/c1-4-6-8-7(3)5-2/h1,7H,5-6H2,2-3H3	InChI=1S/C7H12O/c1-4-6-8-7(3)5-2/h1,7H,5-6H2,2-3H3/t7-/m1/s1
