19
gdb 41595	2.83501	1.76144	1.66834	2.62	73.05	-0.2403	0.0674	0.3077	917.1701	0.162461	-422.988522	-422.981769	-422.980825	-423.019593	27.45	
C	 0.4401643236	 1.6371555049	-0.1079130551	-0.087217
O	 1.6190057251	 1.3163006268	 0.6782899047	-0.286809
C	 1.2543199776	-0.0719224183	 0.7304648578	 0.115034
C	-0.0193733627	 0.1612763796	-0.1186704827	-0.100613
C	 0.5480064306	-0.7733359458	-1.2320235703	-0.037149
C	 1.0187667484	-0.1688661848	-2.5526207485	-0.113489
O	 2.2459941733	 0.4865339583	-2.2573358508	-0.249549
C	 2.9409919574	-0.2962922666	-1.2852569642	-0.090051
C	 1.8688867251	-0.9487994795	-0.4040329395	-0.075116
H	-0.2287151625	 2.3046789848	 0.4487731321	 0.099037
H	 0.7023019894	 2.0937080531	-1.0658507061	 0.123671
H	 1.2763768604	-0.4748987423	 1.7468735178	 0.07185
H	-1.0318685275	-0.0409892106	 0.2285151176	 0.075129
H	-0.0519741056	-1.6745619811	-1.3692904453	 0.074006
H	 1.1681802041	-0.9646257512	-3.3014780446	 0.089887
H	 0.3384211318	 0.5765288479	-2.9765321982	 0.107553
H	 3.5487000582	-1.0693222158	-1.7807133409	 0.085371
H	 3.5975446782	 0.381274123	-0.7354909987	 0.1255
H	 2.129799425	-1.9634052927	-0.0977387853	 0.072953
123.3546	202.4363	256.7791	278.9305	437.7049	493.5141	604.5814	708.1792	724.5382	764.9753	824.2204	836.7869	886.7146	920.3059	924.7091	939.2937	976.5514	995.8446	1008.9502	1029.3413	1069.2168	1081.7898	1113.5189	1115.2378	1149.0011	1169.4446	1190.776	1218.8124	1228.7013	1256.4701	1270.0105	1293.7142	1302.245	1321.5208	1332.6646	1354.1173	1370.6794	1401.8266	1491.9424	1510.634	1512.5962	2963.9552	2981.6027	3024.8615	3064.2488	3075.129	3088.6509	3094.851	3098.6787	3110.425	3117.2638
C1OC2C1C1COCC21	C1O[C@H]2[C@@H]1[C@H]1COC[C@@H]21	
InChI=1S/C7H10O2/c1-4-5(2-8-1)7-6(4)3-9-7/h4-7H,1-3H2	InChI=1S/C7H10O2/c1-4-5(2-8-1)7-6(4)3-9-7/h4-7H,1-3H2/t4-,5+,6-,7+/m0/s1
