18
gdb 115560	2.91098	1.08472	1.02796	3.7398	74.3	-0.2363	0.0188	0.2551	1240.3001	0.145802	-439.01055	-439.000912	-438.999968	-439.045278	35.366	
O	 0.0402616785	 1.3378322749	-0.5703995103	-0.426777
C	 0.1559505711	-0.0259589889	-0.2160621458	-0.048441
C	-1.2053902386	-0.5296664364	 0.2654725673	-0.055863
N	-2.2265014046	-0.3078792535	-0.8061754185	-0.335628
C	-2.3442838136	-1.7772231444	-1.0353884743	-0.22118
C	-1.4386456805	-2.0764659673	 0.2065312275	 0.217714
O	-0.2547073083	-2.81180327	-0.0361274461	-0.462985
C	-2.1727118354	-2.6087603101	 1.3465100084	 0.273117
C	-2.772653482	-3.0767603663	 2.2781230117	-0.477821
H	-0.7167804107	 1.3672206866	-1.1729965596	 0.282967
H	 0.5065372621	-0.637558203	-1.0589555698	 0.098121
H	 0.9004247554	-0.1004687606	 0.5816743225	 0.111132
H	-1.4555012754	-0.0631847446	 1.2219251261	 0.087518
H	-3.085767604	 0.0689594608	-0.4229089105	 0.229945
H	-3.3596509404	-2.1792463986	-1.0012544777	 0.112521
H	-1.8588502613	-2.0871447741	-1.9659991451	 0.119974
H	-0.3969266936	-3.7188989094	 0.25218184	 0.289568
H	-3.2997741289	-3.4812779951	 3.1071036542	 0.206119
59.9411	103.8166	139.5082	144.8037	192.5443	209.2345	302.4346	370.1088	410.6331	471.6689	521.0749	539.8056	599.2509	623.343	656.3375	671.8224	818.7213	845.6293	876.4113	927.6989	987.1348	1009.9177	1027.8883	1066.0489	1084.5719	1110.2286	1146.6205	1191.7877	1226.861	1266.5813	1294.1647	1341.4018	1374.7784	1379.6221	1400.4066	1440.5208	1496.7924	1509.2561	2228.4321	3010.8224	3048.614	3071.6673	3094.3689	3108.9912	3498.1785	3540.4212	3733.0388	3825.6338
OCC1NCC1(O)C#C	OC[C@H]1NC[C@]1(O)C#C	
InChI=1S/C6H9NO2/c1-2-6(9)4-7-5(6)3-8/h1,5,7-9H,3-4H2	InChI=1S/C6H9NO2/c1-2-6(9)4-7-5(6)3-8/h1,5,7-9H,3-4H2/t5-,6-/m1/s1
