17
gdb 75515	2.51936	1.65019	1.07726	1.9127	79.12	-0.2286	-0.0741	0.1545	1102.6306	0.138049	-418.041547	-418.033589	-418.032644	-418.074074	30.75	
N	-0.0315814542	 1.3125472671	-0.1376286606	-0.522404
C	-0.058990865	-0.0532069777	-0.0100149781	 0.244358
N	-1.1643365842	-0.6894349633	-0.0607689245	-0.293794
C	-1.2414009148	-2.1282954739	 0.0905347832	-0.163647
C	-0.7088904709	-2.6716529729	 1.4210957903	-0.262909
C	 0.7840003229	-2.6551989751	 1.5362289373	-0.046005
C	 1.6467357156	-1.8194422069	 0.9404777775	-0.134405
C	 1.3636054056	-0.6046460994	 0.1620859496	 0.320904
O	 2.2845428933	 0.0417976973	-0.3120823845	-0.342918
H	 0.8505406692	 1.6909668691	-0.4489134563	 0.267711
H	-0.8702837672	 1.7286099092	-0.5114417789	 0.253573
H	-2.2986610893	-2.4028513133	 0.0110241439	 0.107059
H	-0.7265515298	-2.6454592102	-0.7342233091	 0.103026
H	-1.1507484485	-2.09939334	 2.2509292424	 0.133933
H	-1.0562164568	-3.7035851893	 1.5548237505	 0.111879
H	 1.2143956296	-3.4336713326	 2.1642071515	 0.111888
H	 2.7142937146	-1.9670584381	 1.0780062158	 0.11175
68.2712	149.6506	254.7697	282.0041	333.8961	382.4116	412.98	441.0999	509.5586	554.1917	581.6933	603.9349	662.8098	726.8067	768.1788	840.1131	868.477	919.0514	988.8272	1021.8103	1045.656	1075.3502	1162.0444	1202.4289	1216.5444	1268.064	1305.9087	1360.7562	1376.5431	1399.3318	1427.5499	1453.3109	1505.0409	1593.8147	1690.6171	1724.6727	1733.8518	2983.648	3004.4913	3048.2938	3058.0054	3141.112	3177.3281	3573.6496	3698.0874
NC1=NCCC=CC1=O	NC1=NCCC=CC1=O	
InChI=1S/C6H8N2O/c7-6-5(9)3-1-2-4-8-6/h1,3H,2,4H2,(H2,7,8)	InChI=1S/C6H8N2O/c7-6-5(9)3-1-2-4-8-6/h1,3H,2,4H2,(H2,7,8)
