17
gdb 51368	4.37514	0.98131	0.90687	4.949	72.76	-0.2129	-0.0124	0.2005	1278.9711	0.134029	-417.889781	-417.881716	-417.880772	-417.924083	30.01	
O	-0.0645411637	-0.2606000685	 0.0372514217	-0.249468
C	 0.2330274938	 0.7744350511	-0.4997619051	 0.145296
C	 1.1901340179	 1.7969071823	 0.1050567342	-0.207282
N	 1.3367564133	 2.9315702206	-0.7947774798	-0.084426
C	 1.3407068233	 4.3392235678	-0.5347594484	-0.061015
C	 2.3092476427	 4.8048208621	 0.6155874986	-0.076337
N	 2.9195262792	 3.6049699326	 1.237047323	-0.33349
C	 3.4429119781	 4.1341631358	-0.0452667201	-0.076334
C	 2.5010295368	 3.6528080834	-1.2111661088	-0.061014
H	-0.1744648124	 1.0683365512	-1.4944753671	 0.077196
H	 0.8035135049	 2.0984847376	 1.0829297092	 0.145355
H	 2.1469896804	 1.3040130862	 0.3002619335	 0.145369
H	 0.5641892247	 4.9722621953	-0.9509557426	 0.100874
H	 2.2643919344	 5.7558749667	 1.1287998079	 0.099569
H	 3.5432233764	 3.9328867216	 1.9741845856	 0.23526
H	 4.4711564633	 4.4503876127	-0.1575951001	 0.099571
H	 2.7996778068	 3.6498322718	-2.2541128518	 0.100877
22.1538	73.9396	142.2809	229.7062	297.6019	404.5983	477.0132	484.616	685.4749	685.8864	727.57	744.7961	772.6649	814.0017	857.1538	882.0059	901.9975	926.8997	944.5658	1021.8857	1033.4536	1039.9546	1061.6711	1106.5394	1110.2011	1114.8002	1226.9457	1227.8364	1249.6889	1286.0778	1291.5197	1312.4773	1347.1486	1390.9644	1411.6232	1429.194	1836.8639	2873.7228	3059.9338	3104.1592	3160.291	3170.8178	3201.0006	3214.3229	3473.7971
O=CCN1C2C3NC3C12	O=CCN1[C@H]2[C@H]3N[C@H]3[C@@H]12	
InChI=1S/C6H8N2O/c9-2-1-8-5-3-4(7-3)6(5)8/h2-7H,1H2	InChI=1S/C6H8N2O/c9-2-1-8-5-3-4(7-3)6(5)8/h2-7H,1H2/t3-,4+,5-,6+,8?
