16
gdb 66415	2.25273	1.71796	1.37759	3.445	71.49	-0.2488	-0.0604	0.1884	1000.3608	0.121869	-437.863952	-437.85543	-437.854486	-437.897187	30.839	
C	-0.0967792287	 1.4955755509	-0.0444758633	-0.496349
C	-0.0446446333	-0.0010969932	 0.0238042314	 0.182164
C	 0.1583707869	-0.7561418782	 1.3030156211	-0.133758
C	-0.6949160428	-1.9033890897	 1.74181551	 0.141178
O	-1.3581612805	-2.5978113367	 1.0104090857	-0.250665
N	 1.2095622981	-0.836852696	 0.2500202427	-0.173503
C	 0.7603210427	-1.8330321338	-0.7918325833	-0.2853
C	-0.4640307994	-0.9498739186	-1.0873241012	 0.384161
O	-1.2394922589	-0.8474861461	-1.98920843	-0.299624
H	 0.5730013012	 1.9431579398	 0.694729813	 0.136904
H	 0.1953010401	 1.8468836683	-1.0384053566	 0.143788
H	-1.1146842146	 1.8472866223	 0.151259611	 0.146034
H	 0.5112819736	-0.1458824853	 2.1324077842	 0.113258
H	-0.6748006965	-2.0840811277	 2.8380199662	 0.098387
H	 1.4729012836	-1.8193348585	-1.621080449	 0.143769
H	 0.6042549584	-2.8541937375	-0.447607372	 0.149557
106.6258	113.1257	135.5316	200.3183	220.1389	262.8482	333.4996	407.9412	471.5715	554.8405	642.8522	660.6442	703.3963	795.1371	819.1443	872.8322	930.581	985.4152	1034.0523	1038.2864	1064.5563	1085.9475	1127.0849	1162.3248	1246.5394	1273.416	1300.895	1406.2184	1423.8954	1425.1848	1466.2558	1478.2971	1488.5847	1808.1708	1901.3982	2903.3589	3042.7443	3079.1503	3112.7593	3122.8118	3131.3341	3154.6618
CC12C(C=O)N1CC2=O	C[C@]12[C@@H](C=O)N1CC2=O	
InChI=1S/C6H7NO2/c1-6-4(3-8)7(6)2-5(6)9/h3-4H,2H2,1H3	InChI=1S/C6H7NO2/c1-6-4(3-8)7(6)2-5(6)9/h3-4H,2H2,1H3/t4-,6-,7?/m1/s1
