23
gdb 86466	1.60836	1.59152	0.85005	1.8879	81.92	-0.2526	0.0721	0.3247	1399.4495	0.206011	-425.450054	-425.440419	-425.439475	-425.483837	37.615	
C	-0.0081107919	 1.543843354	 0.0104080383	-0.400421
C	 0.0253656343	 0.0122354616	 0.0018690402	 0.008077
C	 0.6985975585	-0.5288924186	-1.2701297222	-0.174501
C	 0.7572151397	-2.0550152558	-1.2853882399	 0.108295
O	 1.4375407167	-2.4394424423	-2.4744600789	-0.438888
C	 1.4556973493	-2.5826003437	-0.0257510105	-0.250365
C	 0.7815166117	-2.0686344507	 1.2526179626	 0.108299
O	 1.4844418059	-2.4657312907	 2.4242530034	-0.43889
C	 0.7227766466	-0.5424416185	 1.2548623803	-0.174501
H	 1.0069332825	 1.9579482943	 0.0029106744	 0.114755
H	-0.5329324764	 1.9342738493	-0.8678150033	 0.11069
H	-0.5159795592	 1.9247736495	 0.9026585023	 0.11069
H	-1.0155149369	-0.3458430616	 0.0099149476	 0.06966
H	 0.1710019558	-0.1804747043	-2.1646364669	 0.097894
H	 1.7260332644	-0.1463530145	-1.3388113054	 0.09992
H	-0.2766441221	-2.4432643852	-1.3041151201	 0.059898
H	 1.4988653982	-3.4000218903	-2.4849561124	 0.277328
H	 1.4572836218	-3.6829868282	-0.0316715339	 0.066782
H	 2.5028242812	-2.2563795907	-0.0340275948	 0.11024
H	-0.2518356098	-2.457166263	 1.2869681557	 0.059897
H	 1.545907291	-3.4263585888	 2.4232341864	 0.277328
H	 1.751378917	-0.1605569259	 1.3079569885	 0.09992
H	 0.2124435517	-0.2036960362	 2.1629956189	 0.097894
141.3533	148.6875	164.7305	234.8378	256.0172	267.7763	267.9457	299.2501	397.4762	402.2301	437.1801	448.0572	480.5181	514.55	518.6815	862.4878	863.1531	869.7479	910.828	927.6922	972.5046	994.4728	1048.6166	1052.0156	1064.1531	1085.8392	1090.0217	1143.0981	1162.1931	1168.174	1231.3987	1257.309	1266.8541	1285.9296	1301.6701	1308.2015	1318.9924	1372.729	1383.8628	1388.9754	1396.7217	1412.3006	1437.1119	1441.0225	1482.6698	1483.969	1497.2224	1500.3955	1505.8107	2934.0828	2942.9883	2985.5389	2996.0858	3020.2662	3022.7727	3029.1082	3063.2987	3072.0929	3075.8064	3093.5083	3098.9341	3812.8572	3813.4867
CC1CC(O)CC(O)C1	C[C@H]1C[C@@H](O)C[C@@H](O)C1	
InChI=1S/C7H14O2/c1-5-2-6(8)4-7(9)3-5/h5-9H,2-4H2,1H3	InChI=1S/C7H14O2/c1-5-2-6(8)4-7(9)3-5/h5-9H,2-4H2,1H3/t5-,6+,7-
