19
gdb 92933	2.24078	1.54158	1.30848	1.4641	82.28	-0.246	0.0066	0.2526	1087.2239	0.157753	-385.864931	-385.855869	-385.854925	-385.898115	35.301	
C	-0.0738501882	 1.5967694748	 0.0516515911	-0.423609
C	 0.0351937651	 0.0613059228	 0.0232140624	 0.012714
C	 0.8812787421	-0.4730800918	-1.1327650569	-0.099516
C	 1.6565111633	-1.4886594877	-0.7563847137	-0.086632
C	 1.4688202627	-1.8203602092	 0.706797512	-0.288321
C	 0.8155491634	-0.5348038459	 1.2632699422	 0.102833
O	 1.7915346562	 0.3624976968	 1.7593506136	-0.430774
C	-1.305103489	-0.5293058733	-0.0418668964	 0.356501
C	-2.4043500901	-1.0164335614	-0.0835856535	-0.504861
H	 0.9162879929	 2.0540835785	 0.098372647	 0.112185
H	-0.5865640976	 1.9529275322	-0.8463667142	 0.119072
H	-0.6434077176	 1.927912199	 0.9238324921	 0.129287
H	 0.7924287024	-0.069917341	-2.1350244731	 0.100465
H	 2.313414137	-2.0494650103	-1.411965641	 0.09908
H	 0.8079985404	-2.6891256058	 0.8246729298	 0.123963
H	 2.3962640242	-2.0441523912	 1.2437375215	 0.108788
H	 0.1374906621	-0.7197071896	 2.0981224551	 0.094378
H	 2.4663759057	 0.4632766365	 1.0774584176	 0.280823
H	-3.3747488751	-1.4454149435	-0.1258668356	 0.193624
93.308	140.1004	168.3613	212.2321	267.7464	284.8936	377.6894	393.5854	431.627	467.6088	521.5717	538.2593	615.0269	618.9252	630.1867	736.5947	781.3055	818.5477	873.0929	908.1947	934.3799	957.4863	973.6504	1009.1851	1075.8248	1102.0155	1144.163	1170.1908	1180.9011	1192.2651	1260.384	1297.9883	1312.5175	1369.0439	1408.568	1431.4228	1473.7892	1482.7625	1493.0856	1674.1058	2223.7054	3026.5656	3049.2936	3076.8034	3105.0348	3121.3834	3134.6384	3185.7335	3211.0425	3501.8282	3787.1543
CC1(C=CCC1O)C#C	C[C@]1(C=CC[C@H]1O)C#C	
InChI=1S/C8H10O/c1-3-8(2)6-4-5-7(8)9/h1,4,6-7,9H,5H2,2H3	InChI=1S/C8H10O/c1-3-8(2)6-4-5-7(8)9/h1,4,6-7,9H,5H2,2H3/t7-,8-/m1/s1
