15
gdb 15020	2.48554	1.99077	1.15831	1.4074	73.17	-0.2468	0.0192	0.2659	1004.6289	0.115815	-325.407464	-325.39918	-325.398236	-325.440256	30.47	
C	-0.2075185434	-1.0852081642	 0.0625762878	-0.435001
C	-0.047744452	 0.1032490478	 0.0127908376	 0.363929
C	 0.118734956	 1.5611968103	-0.0245934745	-0.37271
C	 1.535921078	 1.9426174876	-0.0534175844	 0.363979
C	 2.6883127829	 2.277893257	-0.0581899917	-0.434997
N	-0.5776818238	 2.1185333794	-1.198977574	-0.052182
C	-2.0043324203	 2.3710485464	-1.0091272079	-0.216692
C	-1.0333737612	 3.4988216479	-1.0496929986	-0.216686
H	-0.3375724312	-2.1386359018	 0.0989522732	 0.201175
H	-0.313898616	 1.9673565807	 0.9114762243	 0.113339
H	 3.7110015246	 2.5641310477	-0.0693263064	 0.201173
H	-2.6336241415	 2.1467945729	-1.8646437274	 0.124439
H	-2.4435672458	 2.1245997735	-0.0440597007	 0.1179
H	-0.8210907357	 4.0091119356	-0.1118446231	 0.117898
H	-0.9360917505	 4.1184782692	-1.9355641341	 0.124438
76.2488	124.9068	151.9265	173.3042	334.7505	339.1931	346.0318	510.4597	523.857	558.919	634.5603	636.1988	662.415	663.3594	767.0503	868.9011	908.9898	916.5121	1009.2805	1023.2616	1079.0915	1112.4381	1119.3838	1174.561	1176.6424	1303.1852	1321.6916	1322.6914	1491.8304	1517.0298	2245.5792	2249.3156	2893.6176	3100.4576	3104.544	3186.7276	3200.2249	3503.4807	3504.2282
C#CC(C#C)N1CC1	C#CC(C#C)N1CC1	
InChI=1S/C7H7N/c1-3-7(4-2)8-5-6-8/h1-2,7H,5-6H2	InChI=1S/C7H7N/c1-3-7(4-2)8-5-6-8/h1-2,7H,5-6H2
