19
gdb 36081	3.66371	1.18859	1.1096	0.6268	84.96	-0.2256	0.0135	0.2391	1162.1494	0.159256	-348.6876	-348.679685	-348.67874	-348.720123	31.929	
C	-0.075541551	-1.2072646483	-0.1490010511	-0.455999
C	-0.0632619708	-0.0111101191	-0.0302750027	 0.308263
C	-0.0161888741	 1.441027514	 0.1095640286	-0.480288
C	 1.3981454486	 2.0023832269	 0.0343164219	 0.313648
C	 2.2793133961	 1.9443208591	-1.2647903451	-0.236241
C	 3.0797321173	 3.0455053667	-0.4871555556	-0.078156
C	 1.6818748912	 3.5472018803	 0.0106964132	-0.258806
C	 3.5347152947	 2.2387906211	 0.7388164844	-0.09246
C	 2.4391771967	 1.5571270552	 1.0790813909	-0.110247
H	-0.0968890991	-2.263494434	-0.2538865514	 0.194745
H	-0.6346292037	 1.9027752351	-0.6708834365	 0.12698
H	-0.4701405165	 1.7308268292	 1.0672129571	 0.130048
H	 2.7903079293	 1.0042412085	-1.4810300887	 0.100869
H	 1.7628616649	 2.3252050548	-2.1527806779	 0.089149
H	 3.7934083405	 3.7051472561	-0.9788180291	 0.061681
H	 1.1096415133	 4.0781555813	-0.7580916154	 0.089324
H	 1.6461066453	 4.0797584535	 0.9642431857	 0.09236
H	 4.5186740436	 2.2466831403	 1.1856735184	 0.099161
H	 2.2686698636	 0.8441022391	 1.8731396533	 0.10597
63.5729	106.2958	277.1319	284.0355	346.3129	426.9447	466.8473	529.4541	538.81	619.6355	631.3862	679.2285	699.1022	729.112	833.8502	836.6445	866.4926	906.2598	908.0068	925.7651	950.5193	970.9411	1016.1121	1027.5899	1060.1521	1075.8862	1099.2711	1149.5702	1159.6025	1215.2414	1227.7826	1254.4502	1266.6667	1276.7345	1337.1628	1345.5408	1467.605	1476.7264	1513.7365	1629.2431	2237.2773	3011.8874	3035.1857	3043.6902	3048.0252	3111.3367	3123.4674	3125.1267	3219.6447	3246.8758	3507.2852
C#CCC12CC(C1)C=C2	C#CC[C@@]12C[C@@H](C1)C=C2	
InChI=1S/C9H10/c1-2-4-9-5-3-8(6-9)7-9/h1,3,5,8H,4,6-7H2	InChI=1S/C9H10/c1-2-4-9-5-3-8(6-9)7-9/h1,3,5,8H,4,6-7H2/t8-,9+
