19
gdb 71614	2.94276	1.79128	1.63541	2.5016	73.59	-0.2409	0.0879	0.3288	923.1247	0.161596	-423.02266	-423.01581	-423.014866	-423.053451	28.678	
C	-0.1062103417	 1.5068411617	-0.0020127541	-0.499505
C	 0.0764357689	 0.0169058768	 0.0062739979	 0.422085
C	 1.0077753406	-0.7785885137	-0.9423928956	-0.277676
C	 0.7205111411	-1.9035239861	 0.0758499809	-0.10912
C	 0.6769960577	-0.8186404257	 1.1986266295	-0.103911
C	-0.3489784913	-1.3054971647	 2.2207773712	-0.112307
O	-1.1461531507	-2.2493665886	 1.4781700102	-0.255662
C	-0.8232188839	-2.0075585258	 0.1319884539	 0.214005
O	-1.1892886892	-0.6632256464	-0.2084089959	-0.316166
H	 0.8541519537	 2.0140292749	 0.1278242191	 0.11771
H	-0.5442925483	 1.8306964907	-0.9512764675	 0.132864
H	-0.77773202	 1.8190820332	 0.8039743229	 0.129509
H	 0.6680009809	-0.8995448585	-1.9737590118	 0.100514
H	 2.0483005741	-0.445423137	-0.9096973878	 0.099028
H	 1.2864729445	-2.8297487288	 0.1536771119	 0.077528
H	 1.6326451841	-0.4645951388	 1.5826725536	 0.079913
H	 0.1066083197	-1.8218062447	 3.0726125165	 0.105237
H	-0.9842862943	-0.4957617773	 2.6006802676	 0.107078
H	-1.3517327859	-2.727358391	-0.4915315824	 0.088877
205.9885	218.9546	243.1804	315.8187	422.3958	450.705	537.114	591.2189	643.3704	703.4189	769.0405	827.012	852.6217	886.2609	892.6182	908.4887	947.4199	961.5547	970.7682	987.2137	1011.749	1040.8941	1067.4466	1092.0426	1115.1489	1147.8563	1187.5483	1207.7249	1211.3564	1239.0017	1261.0083	1290.6744	1305.5413	1336.4103	1347.9099	1389.2215	1420.5441	1481.7721	1490.8933	1491.3016	1515.1333	3023.7975	3039.7738	3060.4212	3066.4752	3109.8427	3116.2619	3122.6307	3129.2589	3134.0424	3143.7674
CC12CC3C1COC3O2	C[C@@]12C[C@H]3[C@@H]1CO[C@H]3O2	
InChI=1S/C7H10O2/c1-7-2-4-5(7)3-8-6(4)9-7/h4-6H,2-3H2,1H3	InChI=1S/C7H10O2/c1-7-2-4-5(7)3-8-6(4)9-7/h4-6H,2-3H2,1H3/t4-,5-,6-,7+/m0/s1
