25
gdb 94457	2.55138	1.34868	1.18403	0.0688	91.3	-0.2737	0.074	0.3477	1230.393	0.231025	-352.369295	-352.360236	-352.359292	-352.403118	35.832	
C	-0.3516572464	 1.3902718133	 0.0987168301	-0.407768
C	-0.0147463243	-0.0972511927	 0.0889247358	-0.012265
C	 1.1087938083	-0.4797121085	-0.9195192267	-0.22407
C	 2.1076095378	-0.5937129989	 0.261679409	-0.296898
C	 0.9132273758	-0.6259608113	 1.2518962169	 0.383446
C	 1.005015949	 0.1543386743	 2.5725414032	-0.285737
C	-0.0723359741	-0.4531988605	 3.5142444822	-0.200092
C	-0.5696140711	-1.7409905176	 2.8023444983	-0.203962
C	 0.4932062484	-2.0270683738	 1.7288663469	-0.257757
H	 0.5477944747	 2.0109502492	 0.1811845313	 0.113571
H	-0.8579633602	 1.6720306679	-0.831417378	 0.110126
H	-1.0149549071	 1.6533138914	 0.9300064448	 0.1126
H	-0.941807975	-0.6706120709	-0.023467605	 0.058829
H	 0.9284603814	-1.4395146168	-1.4103980576	 0.097009
H	 1.3361473892	 0.2616094724	-1.6907008026	 0.089636
H	 2.7759037394	-1.460085358	 0.2744402081	 0.088965
H	 2.7174251335	 0.3075729738	 0.3785296695	 0.093837
H	 2.0056115906	 0.0014622518	 2.9954280838	 0.092528
H	 0.8895305184	 1.2328721855	 2.4367850814	 0.092058
H	 0.3540696265	-0.6812761934	 4.4956142913	 0.096385
H	-0.8970468382	 0.2435221609	 3.6901516644	 0.09538
H	-0.7147254961	-2.5785669522	 3.4902955988	 0.091006
H	-1.5370942149	-1.555419155	 2.3222531927	 0.097502
H	 0.129152844	-2.6684828869	 0.9195372625	 0.08834
H	 1.3596640407	-2.5312816442	 2.1782258188	 0.087331
62.4433	87.9838	156.3643	236.174	267.2353	276.7932	318.8983	398.1904	443.262	466.4337	604.9269	683.2512	729.7123	780.6447	788.6864	824.3334	883.2127	890.1725	898.5999	911.5216	948.3011	961.5555	987.8583	1002.4326	1024.2229	1044.6034	1064.3017	1084.1069	1126.7178	1180.4248	1191.3011	1209.5093	1216.8607	1231.7729	1244.1144	1266.8643	1271.876	1279.6756	1295.1765	1309.4284	1329.7161	1343.5403	1356.8116	1362.7362	1409.132	1477.2566	1483.5771	1490.3335	1493.9963	1495.6367	1497.9067	1502.3509	1519.3986	3014.347	3023.2078	3028.2591	3029.9649	3037.5603	3042.4677	3053.3048	3055.8151	3072.6366	3075.2262	3085.1058	3086.603	3090.2317	3091.9798	3100.7181	3108.2748
CC1CCC11CCCC1	C[C@H]1CCC21CCCC2	
InChI=1S/C9H16/c1-8-4-7-9(8)5-2-3-6-9/h8H,2-7H2,1H3	InChI=1S/C9H16/c1-8-4-7-9(8)5-2-3-6-9/h8H,2-7H2,1H3/t8-/m0/s1
