21
gdb 74994	3.47112	1.29163	1.04154	1.1354	85.8	-0.2298	0.0247	0.2545	1216.3483	0.183807	-387.093	-387.084777	-387.083833	-387.125626	32.294	
C	 0.066822276	 1.5542205431	 0.0724175365	-0.476588
C	-0.0368832709	 0.0586089018	-0.0142740631	 0.284133
C	-1.1887583264	-0.6048653707	-0.1314780894	-0.177011
C	-1.2331540827	-2.0970131218	-0.1375758653	-0.038825
C	-1.4281443193	-2.8972425351	-1.4710177157	-0.234616
C	-0.2848228824	-3.8466530353	-1.0131154507	-0.235948
C	 0.1448950848	-2.7915154294	 0.0281019728	 0.110862
O	 1.1889349704	-2.0063023018	-0.5170503926	-0.264065
C	 1.2674632936	-0.7082028775	 0.0390238385	-0.158883
H	 0.6524235198	 1.9636508961	-0.7611457704	 0.124303
H	-0.9200375312	 2.0246315102	 0.0609345242	 0.122849
H	 0.5777361334	 1.8660128085	 0.9931147197	 0.123678
H	-2.128680475	-0.0603653292	-0.2055179675	 0.077942
H	-1.9370163758	-2.4643893305	 0.6185206689	 0.07482
H	-2.4107252806	-3.3412671619	-1.6442270399	 0.094107
H	-1.1472114329	-2.3019084268	-2.3420752108	 0.109834
H	-0.6628615428	-4.7549672948	-0.536385164	 0.099019
H	 0.4799158505	-4.1145538155	-1.7443989672	 0.108885
H	 0.4141576473	-3.1365862089	 1.0374909392	 0.05364
H	 2.0336309099	-0.182171374	-0.5432396304	 0.109279
H	 1.6372630443	-0.7490903467	 1.0809644771	 0.092582
99.3048	141.8485	187.3949	214.9839	289.654	360.0988	387.8157	435.8404	470.3622	536.7988	673.0347	710.884	764.8286	834.2011	850.5378	881.6125	912.7783	944.52	959.7041	969.1035	1003.6537	1036.9743	1077.0334	1087.2327	1092.3924	1120.385	1159.876	1187.2901	1208.0062	1249.331	1255.8035	1269.7262	1283.5326	1292.0184	1343.2742	1345.4366	1378.7766	1406.1328	1412.2219	1469.847	1477.3456	1486.0855	1489.4977	1491.9978	1737.6252	2928.1108	2983.5621	3011.5775	3034.5489	3047.7374	3056.4764	3065.7044	3071.0822	3109.6521	3118.0433	3133.539	3135.2927
CC1=CC2CCC2OC1	CC1=C[C@H]2CC[C@H]2OC1	
InChI=1S/C8H12O/c1-6-4-7-2-3-8(7)9-5-6/h4,7-8H,2-3,5H2,1H3	InChI=1S/C8H12O/c1-6-4-7-2-3-8(7)9-5-6/h4,7-8H,2-3,5H2,1H3/t7-,8-/m1/s1
