19
gdb 122738	12.13748	0.39764	0.38876	4.2882	86.12	-0.2649	-0.0595	0.2053	2697.3134	0.155587	-423.000189	-422.989233	-422.988289	-423.038798	35.806	
C	 0.0338307702	 1.5429734078	-0.0854991491	-0.385396
C	 0.0176150492	 0.025936832	-0.0137734399	-0.033911
O	 0.6626382137	-0.4863483472	-1.1654872302	-0.239176
C	 0.7058629065	-1.890151544	-1.2044805973	-0.045845
C	 1.4277137096	-2.2852862072	-2.4987502101	-0.361079
C	 1.5438172167	-3.7233734912	-2.6685024555	 0.081629
C	 1.636679669	-4.9204844157	-2.8029795448	 0.030211
C	 1.7311751445	-6.3506636949	-2.9338953311	 0.019516
O	 2.2535602119	-6.9239700699	-3.8624919939	-0.22896
H	 1.0616613368	 1.9145887308	-0.1227603692	 0.128913
H	-0.489372182	 1.8906191332	-0.9806651802	 0.128911
H	-0.458678184	 1.9699900801	 0.7929952509	 0.11839
H	 0.5333574029	-0.3259950131	 0.8953234777	 0.090204
H	-1.0179443231	-0.3499935034	 0.0371759088	 0.090204
H	 1.244803476	-2.2972405895	-0.333556522	 0.100331
H	-0.30840416	-2.3212024905	-1.1925050193	 0.10033
H	 0.8902370355	-1.8531362914	-3.3516770104	 0.154507
H	 2.4253510596	-1.829409644	-2.5027375065	 0.154508
H	 1.274804587	-6.9123425618	-2.0929516279	 0.096715
26.897	47.2573	55.3677	92.8634	128.5653	148.4079	195.1697	195.9049	247.627	368.2338	407.9028	417.6036	528.549	609.2264	785.9342	822.8441	833.4822	903.8882	1022.2699	1044.3912	1050.7355	1080.2454	1148.5045	1158.8211	1169.1497	1185.5586	1229.6244	1295.3486	1300.1246	1303.8773	1388.6987	1407.7634	1423.6637	1449.2904	1461.0586	1483.7228	1499.5357	1516.674	1539.0704	1768.0395	2331.5826	2913.6598	2956.5272	2970.1078	2985.6752	2996.7791	3034.7844	3046.6159	3071.7753	3121.8124	3123.4309
CCOCCC#CC=O	CCOCCC#CC=O	
InChI=1S/C7H10O2/c1-2-9-7-5-3-4-6-8/h6H,2,5,7H2,1H3	InChI=1S/C7H10O2/c1-2-9-7-5-3-4-6-8/h6H,2,5,7H2,1H3
