20
gdb 15006	4.27825	1.35584	1.10617	1.649	71.66	-0.2481	0.0856	0.3338	1106.0687	0.178217	-386.140266	-386.132201	-386.131257	-386.172785	30.281	
C	-0.1533579873	 1.3691956511	 0.0190871849	-0.240845
O	 0.1457279426	-0.0045356751	-0.0644882647	-0.245978
C	 0.7362510821	-0.5564603609	 1.099525245	 0.1421
C	-0.2550950701	-0.7324764029	 2.2601494588	-0.227144
C	 0.4038202187	-1.5163859627	 3.4006735031	-0.077004
O	 0.8967284506	-2.7699380655	 2.9659554373	-0.239106
C	 1.8750066102	-2.6304755784	 1.9506221463	-0.085042
C	 1.3183471747	-1.9161620822	 0.7153857203	-0.21887
H	 0.7355397377	 1.9636051577	 0.2848670732	 0.101232
H	-0.5015459584	 1.6825586521	-0.9684072964	 0.126864
H	-0.9443577386	 1.5896280008	 0.7506861601	 0.106547
H	 1.5578346711	 0.1029069099	 1.4359587728	 0.056983
H	-0.6035071318	 0.2347947479	 2.6386867619	 0.092554
H	-1.1287092448	-1.2836137744	 1.8932474808	 0.111057
H	 1.2234110189	-0.919902443	 3.8401390692	 0.083194
H	-0.3157368307	-1.7277816344	 4.1967227346	 0.108697
H	 2.7482541103	-2.0793640893	 2.3428972846	 0.083336
H	 2.2060058296	-3.6423769551	 1.7008872524	 0.109117
H	 0.5223464977	-2.5228307384	 0.2690630454	 0.113004
H	 2.1022356775	-1.7903098671	-0.0388609998	 0.099303
81.9399	133.1119	202.0333	224.1693	262.6053	347.0185	379.0452	448.1775	482.1529	493.1705	600.0705	820.226	828.479	876.0371	919.116	966.2451	994.6997	1014.9852	1057.8347	1104.8587	1144.1802	1150.3048	1171.8848	1182.7407	1188.8122	1230.0862	1258.7186	1277.882	1309.9975	1329.1548	1350.1129	1372.4805	1395.14	1398.8052	1426.5482	1472.1262	1479.5852	1489.6892	1492.5045	1494.1327	1505.6879	1511.6426	2927.3321	2945.2151	2953.4051	2973.8243	3022.0756	3037.1109	3043.3605	3082.3733	3085.9257	3087.4779	3091.9872	3110.1425
COC1CCOCC1	COC1CCOCC1	
InChI=1S/C6H12O2/c1-7-6-2-4-8-5-3-6/h6H,2-5H2,1H3	InChI=1S/C6H12O2/c1-7-6-2-4-8-5-3-6/h6H,2-5H2,1H3
