18
gdb 122620	3.57909	0.87004	0.73455	3.2204	69.98	-0.2411	0.017	0.2581	1505.4081	0.146904	-476.220663	-476.211301	-476.210357	-476.256177	32.933	
O	-0.100554013	 1.3340481377	 0.347650716	-0.421831
C	 0.048199709	 0.0162022079	-0.143445783	-0.063751
C	-1.2881375358	-0.698895438	-0.2424519767	-0.08683
O	-2.0929927799	 0.0731567275	-1.1373088662	-0.27244
C	-3.4039304369	-0.3927338425	-1.2559889911	-0.009115
C	-4.2405132366	 0.3656519192	-2.3219626036	-0.191898
N	-4.4318309272	-0.9257609156	-2.9919102415	-0.327566
C	-3.6148208643	-1.651868203	-2.1615556652	 0.411267
O	-3.2205175126	-2.7873206633	-2.1730995959	-0.35928
H	-0.7908465951	 1.7383040673	-0.1905042531	 0.287637
H	 0.5352827953	 0.0057272081	-1.1314245319	 0.096528
H	 0.6975585559	-0.5198832447	 0.5561157884	 0.112504
H	-1.170634462	-1.7232739285	-0.6172707536	 0.12827
H	-1.7711616949	-0.7372401172	 0.7461924694	 0.09941
H	-3.8949355678	-0.4828380575	-0.2763007387	 0.096863
H	-5.1622716792	 0.8349976548	-1.9673024121	 0.118467
H	-3.6404778718	 1.0836984675	-2.8882634389	 0.126464
H	-4.8687339033	-1.1646040597	-3.8698911124	 0.2553
44.9592	69.3971	101.3097	137.119	191.7882	249.027	310.467	366.784	413.4782	467.2758	510.5437	536.6024	729.6506	760.9859	837.9651	900.0802	906.5019	934.0736	991.6362	1045.9904	1091.0216	1095.772	1136.5798	1155.5534	1177.9443	1189.7681	1220.2122	1237.0979	1267.0293	1298.5021	1351.598	1385.8518	1392.7518	1422.7161	1442.2267	1498.9712	1509.0582	1522.4156	1890.6387	2981.7967	2992.7045	3007.3005	3052.17	3060.2295	3082.8283	3105.7003	3610.4267	3798.9453
OCCOC1CNC1=O	OCCO[C@H]1CNC1=O	
InChI=1S/C5H9NO3/c7-1-2-9-4-3-6-5(4)8/h4,7H,1-3H2,(H,6,8)	InChI=1S/C5H9NO3/c7-1-2-9-4-3-6-5(4)8/h4,7H,1-3H2,(H,6,8)/t4-/m0/s1
