15
gdb 105130	2.52049	1.22861	0.95999	1.1441	71.63	-0.3263	-0.0411	0.2852	1217.0251	0.110694	-416.807061	-416.798021	-416.797077	-416.841301	31.642	
C	 0.2710490809	 1.454152538	 0.2748545173	-0.396586
C	-0.2943353078	 0.111210123	-0.2016961778	-0.273066
C	 0.5211740651	-0.4829847502	-1.3328563599	 0.236161
O	 1.7953121648	-1.0397251582	-0.9940225499	-0.240593
C	 0.7951173869	-1.9437160029	-1.4560804698	-0.154814
C	 0.2532753595	-2.8783625558	-0.4938296588	 0.319522
N	-0.1896524238	-3.6395857645	 0.2540619862	-0.31446
C	 0.5121886385	 0.2704193199	-2.5796451113	 0.277879
N	 0.47590145	 0.881288317	-3.5595539371	-0.318476
H	 1.2992259726	 1.3378840637	 0.6287309188	 0.142919
H	 0.2663506158	 2.196973811	-0.5284625918	 0.145394
H	-0.3315649213	 1.8440596327	 1.098729417	 0.133639
H	-0.3093882306	-0.6120637316	 0.6183062371	 0.144154
H	-1.3265342142	 0.22893846	-0.5504323232	 0.134112
H	 0.9687517335	-2.3612759222	-2.4456591069	 0.164216
75.8073	111.3161	123.568	155.6263	211.5545	253.6486	275.2683	362.1385	414.4739	489.2288	555.1392	601.3717	638.3334	673.693	783.4168	851.3565	942.2995	975.5238	988.2713	1050.9793	1095.1735	1117.7272	1222.4727	1289.8832	1319.4135	1369.243	1415.3503	1422.6057	1473.3118	1499.3572	1506.6632	2360.5853	2365.9491	3047.8495	3052.2137	3099.8673	3125.0674	3128.7165	3144.5357
CCC1(OC1C#N)C#N	CC[C@]1(O[C@H]1C#N)C#N	
InChI=1S/C6H6N2O/c1-2-6(4-8)5(3-7)9-6/h5H,2H2,1H3	InChI=1S/C6H6N2O/c1-2-6(4-8)5(3-7)9-6/h5H,2H2,1H3/t5-,6-/m0/s1
