18
gdb 6167	3.56561	1.55579	1.35704	3.1813	69.29	-0.2424	0.0445	0.2869	986.397	0.152708	-381.146501	-381.137664	-381.13672	-381.179479	32.883	
C	-0.2364784692	 1.5450213442	-0.2082355347	-0.443823
C	 0.1431563109	 0.08872654	-0.0299957672	 0.32489
C	-0.8132749707	-0.7251850242	 0.8199514934	-0.44254
C	 0.8970885081	-0.6143880676	-1.1263114176	-0.299233
N	 1.5744758442	-0.1567807871	 0.0801845882	-0.139627
C	 2.1504272405	-0.9960792105	 1.0407104363	 0.408288
N	 3.0700239552	-1.8806776372	 0.5115612825	-0.538196
O	 1.8932332268	-0.931323436	 2.2251094067	-0.381147
H	 0.5096331473	 2.0722784507	-0.8076891978	 0.122226
H	-1.2099007459	 1.6324821937	-0.7027157577	 0.116496
H	-0.305402218	 2.0433933724	 0.7643948195	 0.1313
H	-1.8271376358	-0.6483612827	 0.4132988739	 0.112371
H	-0.5327340981	-1.7805972927	 0.8493285376	 0.125432
H	-0.8204897262	-0.3575393187	 1.8492150661	 0.146773
H	 0.7391124046	-1.6846762334	-1.2408956506	 0.124922
H	 1.1535097031	-0.0874843956	-2.0428876643	 0.113617
H	 3.4775566026	-1.6608649318	-0.3835758286	 0.257046
H	 3.6977290205	-2.2802191333	 1.1917993543	 0.261208
77.6893	148.2354	164.42	196.4054	231.8205	322.1424	360.8256	391.3753	409.7755	452.821	496.601	539.8435	593.3345	714.5005	747.0781	790.5871	916.0298	940.5233	966.1125	997.0567	1027.555	1105.4206	1108.3576	1129.6315	1140.617	1182.1779	1289.6761	1341.3084	1411.0346	1413.2652	1427.2137	1475.6807	1483.7489	1494.9309	1503.2398	1515.1187	1616.0414	1798.9221	3035.148	3044.1517	3093.6409	3101.0321	3114.2442	3122.5395	3129.4742	3180.8374	3583.814	3705.2137
CC1(C)CN1C(N)=O	CC1(C)CN1C(=O)N	
InChI=1S/C5H10N2O/c1-5(2)3-7(5)4(6)8/h3H2,1-2H3,(H2,6,8)	InChI=1S/C5H10N2O/c1-5(2)3-7(5)4(6)8/h3H2,1-2H3,(H2,6,8)
