15
gdb 83934	2.5898	1.55552	1.2595	1.9233	62.68	-0.2492	-0.0336	0.2156	1003.1814	0.111242	-494.86591	-494.858034	-494.85709	-494.89853	28.884	
O	 0.0364455945	 1.3879410932	-0.0326064769	-0.415471
C	 0.0333249394	 0.0151560817	 0.04167081	 0.065807
C	-0.3972440128	-0.7388337357	 1.2688184779	-0.035285
O	-1.0792195822	-0.006974915	 2.2529309745	-0.245938
C	-2.4268254078	 0.0621096816	 1.8179529571	 0.000472
O	-2.3762389014	 0.122941229	 0.3987495949	-0.285129
C	-1.3168548697	-0.7282077337	 0.0362403641	 0.216179
C	-1.602295645	-1.9049584871	-0.8064146746	 0.085819
O	-2.69268348	-2.2285551972	-1.2020505733	-0.261125
H	-0.8673236335	 1.682820759	 0.1467987333	 0.301581
H	 0.8342436988	-0.4347996615	-0.5393585931	 0.125145
H	 0.1173040555	-1.6323643695	 1.6088034536	 0.121673
H	-2.9860406946	-0.8300989356	 2.1379458259	 0.118124
H	-2.8846082796	 0.976342395	 2.2010396177	 0.135165
H	-0.6839725016	-2.4844237842	-1.060262011	 0.072983
93.3955	162.7311	172.7653	223.1467	252.4419	330.5971	359.3956	418.3196	599.3766	683.1147	697.9717	722.6615	784.39	808.9735	867.4019	959.0911	1010.6752	1051.0605	1063.5095	1066.6005	1115.7978	1122.1229	1178.9264	1204.4441	1230.1019	1273.5468	1325.2591	1361.5082	1413.5191	1432.4618	1449.885	1535.9076	1819.1423	2859.6	2994.864	3121.2134	3150.9108	3161.0461	3751.8878
OC1C2OCOC12C=O	O[C@H]1[C@H]2OCO[C@@]12C=O	
InChI=1S/C5H6O4/c6-1-5-3(7)4(5)8-2-9-5/h1,3-4,7H,2H2	InChI=1S/C5H6O4/c6-1-5-3(7)4(5)8-2-9-5/h1,3-4,7H,2H2/t3-,4+,5-/m0/s1
