25
gdb 118224	3.77726	0.59672	0.59131	2.6835	86.48	-0.2567	0.0658	0.3226	2073.4187	0.225762	-426.636731	-426.624903	-426.623959	-426.674298	42.824	
C	 0.0416886435	 1.5907638927	 0.0375694948	-0.381969
C	 0.0265104229	 0.060300457	 0.0293261548	-0.161085
C	-1.3873788666	-0.5277090374	-0.0249819922	-0.190132
C	-1.4155650349	-2.0594174314	 0.0193557053	 0.12707
O	-0.7722056134	-2.5620558359	 1.1931556838	-0.431531
C	-2.8341682633	-2.6289248271	-0.1086676173	-0.219139
C	-2.8520394157	-4.1549169485	-0.2700988446	 0.142402
C	-4.2637651059	-4.7365305115	-0.2060646909	-0.406769
O	-2.1866661643	-4.5493104367	-1.4704808658	-0.43106
H	 1.0643927371	 1.979145105	 0.0727807735	 0.111869
H	-0.4383698786	 1.9995831934	-0.8589159784	 0.110487
H	-0.4943468391	 1.9888951938	 0.9068455341	 0.109771
H	 0.5990928766	-0.3094187761	-0.8314842915	 0.095273
H	 0.5355886682	-0.3275071191	 0.9180355689	 0.107398
H	-1.9840226103	-0.1364343105	 0.8145941146	 0.077449
H	-1.8960600632	-0.1892784713	-0.9378001523	 0.090228
H	-0.81546233	-2.4581341021	-0.8066625222	 0.100792
H	-1.2516244801	-2.2171015652	 1.9554966665	 0.27288
H	-3.4187766961	-2.3441355154	 0.7785240796	 0.08003
H	-3.341080723	-2.1711972718	-0.9708111149	 0.080246
H	-2.241053114	-4.5857688277	 0.5301492761	 0.103054
H	-4.902620765	-4.2995110628	-0.9847309114	 0.102536
H	-4.2344840808	-5.8190668854	-0.3571248459	 0.124141
H	-4.7355904332	-4.5330597585	 0.7608647214	 0.113299
H	-2.7236827508	-4.2474821473	-2.2120338161	 0.272762
55.4563	71.1895	81.966	113.2022	136.4536	206.8439	246.3406	248.4096	280.5342	307.4148	319.1092	343.3534	368.0797	451.0091	456.0263	496.3973	582.1826	747.8962	831.9679	849.1019	860.6804	905.3365	934.1638	957.1874	1020.9421	1038.8084	1062.9113	1078.4842	1087.7731	1110.6591	1137.6609	1171.8003	1180.8066	1243.4285	1264.9146	1299.792	1315.6834	1325.7264	1348.8024	1366.6592	1391.4688	1396.0386	1404.0274	1412.6843	1425.9996	1427.9481	1465.7009	1480.479	1492.6884	1494.1884	1496.6206	1499.7137	1511.7761	2982.9398	2995.9973	3020.6881	3023.5048	3026.7916	3029.4439	3034.3625	3061.3013	3064.5802	3070.9501	3092.909	3095.046	3100.2422	3116.8092	3786.4576	3791.6465
CCCC(O)CC(C)O	CCC[C@@H](O)C[C@@H](C)O	
InChI=1S/C7H16O2/c1-3-4-7(9)5-6(2)8/h6-9H,3-5H2,1-2H3	InChI=1S/C7H16O2/c1-3-4-7(9)5-6(2)8/h6-9H,3-5H2,1-2H3/t6-,7-/m1/s1
