21
gdb 52785	2.44615	1.02668	0.82501	1.6337	88.46	-0.2404	0.039	0.2794	1516.8056	0.179255	-387.063991	-387.053352	-387.052408	-387.102576	37.704	
C	-0.3273843691	 1.2957211831	 0.2216236383	-0.499519
C	-0.1348466175	-0.1426912966	 0.1088651747	 0.044611
C	 0.0172535481	-1.3338707411	 0.0122292895	 0.092352
C	 0.2174260181	-2.7748681444	-0.1027366675	 0.226146
C	 1.1562513289	-3.117727176	-1.2578237154	-0.431063
C	 0.5048177181	-3.5159165402	 1.2373183652	-0.345869
C	-0.827338901	-4.2472338422	 0.9757012898	 0.167163
C	-1.9473795761	-4.0590325423	 1.9804369772	-0.397742
O	-1.0488535765	-3.4914789019	-0.241158001	-0.326255
H	 0.624634801	 1.8308982391	 0.1333259225	 0.148689
H	-0.9899816911	 1.6685259904	-0.5672517972	 0.152009
H	-0.7726977398	 1.5666979366	 1.1852090834	 0.147907
H	 2.1313538495	-2.6414553002	-1.1155149362	 0.121282
H	 1.2942931211	-4.2010469146	-1.3207426811	 0.11456
H	 0.7320066855	-2.7642465683	-2.2014250271	 0.132504
H	 1.403897882	-4.1343183081	 1.2307238611	 0.106647
H	 0.5080438729	-2.8715905946	 2.117023059	 0.113564
H	-0.7061671996	-5.3141133511	 0.7428170055	 0.071381
H	-2.0677927883	-3.0002851822	 2.2291089489	 0.124664
H	-2.8936258628	-4.4245205337	 1.5691388791	 0.125471
H	-1.7360653735	-4.6157951116	 2.9004671313	 0.111501
5.5073	37.0913	109.9101	116.4143	221.2844	237.5033	262.7856	289.6058	316.8764	335.2099	392.5377	431.7432	503.707	542.7449	591.7304	764.3271	831.6828	884.6946	903.2598	916.7809	934.4148	988.1527	1051.0282	1053.953	1062.4948	1080.788	1110.8484	1129.0387	1193.6353	1201.0495	1254.7746	1295.873	1313.1216	1388.5933	1399.4207	1408.478	1414.228	1477.0235	1478.2303	1478.7572	1481.8145	1486.5696	1490.0539	1496.9351	2364.1797	3002.5696	3027.1437	3031.7484	3038.6169	3080.879	3087.8879	3088.76	3103.3211	3114.765	3115.1607	3123.0954	3141.1589
CC#CC1(C)CC(C)O1	CC#C[C@@]1(C)C[C@@H](C)O1	
InChI=1S/C8H12O/c1-4-5-8(3)6-7(2)9-8/h7H,6H2,1-3H3	InChI=1S/C8H12O/c1-4-5-8(3)6-7(2)9-8/h7H,6H2,1-3H3/t7-,8+/m1/s1
