18
gdb 15913	2.75005	1.83163	1.2434	4.4626	63.59	-0.2435	0.0572	0.3007	981.3363	0.153082	-422.050601	-422.041966	-422.041021	-422.083456	32.185	
O	 0.0716395646	 1.400159326	-0.093239989	-0.436926
C	 0.0521376756	 0.0006793297	 0.1225964725	-0.054499
C	-1.3790176423	-0.5469518903	 0.086270706	-0.082101
C	-1.9896522388	-0.5962001992	-1.3412085694	 0.123422
O	-1.3820257112	 0.3034485852	-2.2525601691	-0.432587
C	-1.6226692832	-2.1019089224	-1.4315971725	-0.310944
C	-1.4784884254	-2.0958562473	 0.1172422304	 0.122255
O	-0.3604191987	-2.726422994	 0.6989161271	-0.425561
H	-0.283300096	 1.5315718802	-0.9808214433	 0.289944
H	 0.6883096475	-0.5278563067	-0.6007368556	 0.091048
H	 0.480690011	-0.1769051268	 1.1127101507	 0.114955
H	-1.9720435142	-0.0107131536	 0.831208294	 0.077372
H	-3.0765066931	-0.4437140292	-1.3197603026	 0.072781
H	-1.7918626184	 0.2019486597	-3.1166839921	 0.289865
H	-2.3414171273	-2.7871201987	-1.888367141	 0.090592
H	-0.6424478769	-2.2248710597	-1.9002269111	 0.116439
H	-2.4087149603	-2.4222567347	 0.6029390825	 0.06899
H	-0.4843758529	-3.6789908481	 0.6422096326	 0.284956
92.9569	163.5818	175.973	204.6787	240.3714	247.7419	355.7001	381.6057	428.3955	490.4222	520.1617	592.5459	641.7668	787.6944	848.0047	895.3731	932.6131	988.01	1048.6631	1063.0373	1083.3173	1103.5602	1123.3406	1170.5982	1190.7693	1201.4841	1223.38	1253.9352	1285.5196	1301.7321	1338.5701	1348.6051	1394.9175	1413.0627	1434.463	1448.1348	1478.7297	1505.2986	2995.2795	3008.0761	3012.2574	3057.9092	3076.2503	3093.5465	3120.8713	3784.9463	3819.3074	3828.2435
OCC1C(O)CC1O	OC[C@H]1[C@@H](O)C[C@H]1O	
InChI=1S/C5H10O3/c6-2-3-4(7)1-5(3)8/h3-8H,1-2H2	InChI=1S/C5H10O3/c6-2-3-4(7)1-5(3)8/h3-8H,1-2H2/t3-,4-,5+
