19
gdb 121013	3.494	0.73047	0.62378	4.1711	84.98	-0.2123	-0.0622	0.1501	1808.2107	0.156791	-419.222005	-419.211007	-419.210063	-419.260304	37.125	
C	-1.1277098338	 2.1697232137	 0.8449394695	-0.302349
N	-0.2450563407	 1.0044926451	 0.7970437047	-0.50487
H	 0.5628384375	 1.1572872506	 1.3924341266	 0.217161
H	-0.7229808614	 0.1809470672	 1.1598800461	 0.267077
C	-0.2877106117	-1.5507736158	-1.4361014099	-0.420665
C	-0.906445674	-2.5935104879	-0.8804505488	 0.265671
N	-1.1459832489	-3.8461894758	-1.461270544	-0.355993
C	-1.7519857523	-4.668882511	-0.5462644614	-0.008886
C	-2.0036224953	-4.038260299	 0.6310933391	-0.26127
C	-1.4976047882	-2.6767827779	 0.5206745341	 0.33222
O	-1.5235578789	-1.7716001787	 1.3412086663	-0.35977
H	-0.6148177701	 3.042228577	 0.4250362049	 0.110555
H	-2.0084362363	 1.9797237041	 0.2228105221	 0.120159
H	-1.4868548425	 2.4458630015	 1.8499583232	 0.093734
H	-0.1608148223	-0.6269053346	-0.8758994631	 0.185024
H	 0.1021871924	-1.5960501284	-2.4485552033	 0.10639
H	-0.7418875506	-4.1570126299	-2.3264202289	 0.263692
H	-1.9789794398	-5.6898188907	-0.8238439928	 0.137932
H	-2.4963437734	-4.4537237996	 1.4947362259	 0.114187
29.4637	56.6714	69.1812	96.8196	124.1498	129.1177	162.7587	224.4418	315.5627	342.0843	424.8036	513.8042	553.5978	627.1374	741.2399	762.384	769.2153	824.9205	834.8754	913.9357	940.6176	956.4419	991.3085	1005.8258	1070.0954	1093.0064	1120.704	1145.7659	1187.7664	1293.5634	1342.4944	1365.5894	1438.6397	1459.968	1475.5631	1497.5708	1518.6861	1599.8798	1685.5449	1703.8016	1767.7784	2966.414	3054.3146	3094.1503	3113.7468	3216.2875	3226.9381	3273.6057	3462.7894	3553.1488	3685.0115
C[NH2+]C[C-]1NC=CC1=O	CN.C=C1NC=CC1=O	
InChI=1S/C6H9N2O/c1-7-4-5-6(9)2-3-8-5/h2-3,7-8H,4H2,1H3/q-1/p+1	InChI=1S/C5H5NO.CH5N/c1-4-5(7)2-3-6-4;1-2/h2-3,6H,1H2;2H2,1H3
