23
gdb 118423	1.99862	0.99781	0.78019	2.2116	83.54	-0.2426	-0.0135	0.2291	1609.6474	0.201888	-425.442986	-425.431345	-425.430401	-425.481342	39.922	
C	-1.5598621393	-0.0533682133	 0.2700743195	-0.39809
C	-0.0288592964	-0.0482594761	 0.2551675484	-0.168463
C	 0.5712944383	-0.6038266509	-1.0452587142	-0.093554
C	 2.0855585825	-0.3505509201	-1.1163046614	-0.066567
O	 2.3039878112	 1.0396377564	-1.2017164122	-0.233817
C	 3.6705517507	 1.3792203908	-1.2163160633	-0.231177
C	 0.3518078749	-2.1160361777	-1.1782100397	 0.38437
C	-0.0039730068	-2.637555131	-2.5571830188	-0.48287
O	 0.4794960432	-2.8535614244	-0.2270965824	-0.314176
H	-1.9691590763	 0.5406288497	-0.55518115	 0.110615
H	-1.9576659373	-1.0701970321	 0.1834244351	 0.121493
H	-1.9436135787	 0.3696260996	 1.2034028773	 0.115533
H	 0.3450526681	 0.9707105597	 0.3905001915	 0.11003
H	 0.3511370535	-0.6518256174	 1.0864667386	 0.11519
H	 0.1224060498	-0.0992828337	-1.9101891045	 0.079837
H	 2.5693465414	-0.7713819188	-0.2195002753	 0.104929
H	 2.5279798128	-0.8573165774	-1.9922553429	 0.082997
H	 4.1840015159	 1.0479673039	-0.3001466953	 0.108139
H	 4.1921105082	 0.9366636525	-2.0798971207	 0.104142
H	 3.7356676862	 2.467723359	-1.2847971254	 0.128908
H	-1.0018902667	-2.2766480234	-2.8345367305	 0.145137
H	 0.6889784496	-2.2498044708	-3.312103262	 0.137321
H	 0.0035020251	-3.7282216545	-2.5637123717	 0.14007
27.4373	79.1891	83.763	96.8806	128.766	154.0223	193.1241	222.9593	245.6631	275.7339	313.6084	346.8533	398.927	507.4163	597.5724	610.4292	743.3351	844.1617	876.8937	949.015	979.1484	983.073	1016.2751	1038.3973	1098.3981	1127.7992	1145.1619	1160.9614	1180.8852	1196.1762	1225.6923	1258.5271	1284.374	1319.9867	1361.4881	1377.0906	1388.5152	1411.6741	1415.2474	1460.9498	1473.7217	1480.7935	1485.596	1487.1486	1500.6875	1502.4778	1506.2884	1526.8243	1807.4429	2943.8871	2972.211	2986.9517	3016.5507	3028.8254	3030.803	3035.9546	3052.2093	3084.0507	3092.4177	3102.8538	3108.9623	3115.8508	3150.5515
CCC(COC)C(C)=O	CC[C@@H](COC)C(=O)C	
InChI=1S/C7H14O2/c1-4-7(5-9-3)6(2)8/h7H,4-5H2,1-3H3	InChI=1S/C7H14O2/c1-4-7(5-9-3)6(2)8/h7H,4-5H2,1-3H3/t7-/m0/s1
