16
gdb 24675	4.53169	1.14869	0.98849	3.032	72.5	-0.2083	0.0152	0.2235	1179.9971	0.124691	-437.871419	-437.863845	-437.862901	-437.904016	28.628	
C	 0.8960627395	 0.7113863042	 0.5474965546	-0.27389
C	 0.5989634222	 0.2080753373	-0.8434968284	-0.273888
C	-0.5293624325	 0.3833962372	 0.1523467872	 0.056925
N	-1.2955773211	-0.6835954696	 0.702084004	-0.372943
C	-0.8604268613	-1.8078249116	 1.0159743231	 0.526759
O	 0.4272803652	-2.3118935117	 0.9234384942	-0.231554
C	 0.3843946697	-3.6088542161	 1.4019704577	-0.060298
C	-0.8601291263	-3.8885904154	 1.7689912592	-0.042777
O	-1.6617854443	-2.7921252692	 1.5433692019	-0.215339
H	 1.4003036629	 0.0308463051	 1.2220913413	 0.122079
H	 1.1483657101	 1.7568843617	 0.6869832499	 0.110608
H	 0.6437117203	 0.9019444032	-1.6757965057	 0.110609
H	 0.9085744361	-0.8021809161	-1.0801265099	 0.122076
H	-1.1607124733	 1.2475571029	-0.0254905787	 0.096005
H	 1.3044192731	-4.1653450529	 1.4069010729	 0.161976
H	-1.3289253602	-4.7621543589	 2.1852696368	 0.163652
70.0523	134.558	147.0299	224.5165	331.6433	444.3659	546.4715	565.4062	691.6935	699.2683	742.2181	771.0517	796.8263	820.4538	822.6423	881.5691	910.9204	922.9883	1007.3497	1043.6434	1053.2635	1073.159	1097.7843	1124.3867	1145.3563	1182.8768	1200.8684	1211.0562	1275.5498	1360.1961	1409.3431	1463.6275	1495.9089	1682.581	1850.8043	3141.5661	3144.622	3157.308	3228.7378	3241.8092	3295.8041	3321.9262
C1CC1N=C1OC=CO1	C1CC1N=c1occo1	
InChI=1S/C6H7NO2/c1-2-5(1)7-6-8-3-4-9-6/h3-5H,1-2H2	InChI=1S/C6H7NO2/c1-2-5(1)7-6-8-3-4-9-6/h3-5H,1-2H2
