21
gdb 84888	2.20707	1.71022	1.22654	1.7809	83.45	-0.2455	0.0149	0.2604	1108.6616	0.183986	-387.092512	-387.084111	-387.083167	-387.125158	33.592	
O	 0.0689053822	 1.4143383337	-0.1255305654	-0.435224
C	-0.0135778185	-0.0140476429	-0.014583209	 0.003942
C	 0.7510565445	-0.4888632546	 1.1957222291	-0.089941
C	 0.1771798935	-1.0558973826	 2.2580456166	-0.053375
C	-1.303162673	-1.3096808932	 2.3709794612	-0.248469
C	-2.0982417796	-0.4653128607	 1.3644312348	-0.30385
C	-1.4505896628	-0.5225321446	-0.0066355961	 0.391566
C	-2.276349536	-0.2855709657	-1.2384176289	-0.326648
C	-1.7949020875	-1.6800667186	-0.9168736729	-0.312595
H	-0.1585164675	 1.7798161498	 0.7360860838	 0.275134
H	 0.4826966114	-0.3722317794	-0.925003551	 0.080562
H	 1.8231076747	-0.3094407011	 1.1789517467	 0.091153
H	 0.795791441	-1.3681474454	 3.096886986	 0.089109
H	-1.5006275456	-2.3786467296	 2.2027606369	 0.114203
H	-1.6392529208	-1.1051998667	 3.3948255319	 0.101066
H	-3.1385866233	-0.8033277503	 1.3128248468	 0.093074
H	-2.1267996406	 0.5774044537	 1.7113571911	 0.089295
H	-3.3320135251	-0.0672459048	-1.1118013525	 0.105427
H	-1.8100735237	 0.2450836956	-2.0614703381	 0.120016
H	-1.0088687015	-2.1073184031	-1.5311197072	 0.110078
H	-2.5224575218	-2.4050552396	-0.5657988936	 0.105478
84.7024	157.1331	231.6385	251.5461	294.5031	315.0957	350.791	410.4273	490.7889	513.0413	565.8713	687.1074	746.1193	767.7816	779.7022	876.7962	886.592	912.1609	938.1899	954.9541	994.9465	1007.3337	1012.4715	1039.4152	1057.7319	1060.2767	1071.2884	1081.5718	1164.7819	1184.0576	1199.5212	1245.3807	1247.2381	1294.9131	1321.4087	1354.6565	1365.4808	1406.2761	1412.3951	1429.3721	1469.5649	1470.0494	1491.4906	1507.3726	1714.9994	3001.3926	3008.2556	3030.6246	3047.3761	3067.2738	3122.6846	3129.2511	3141.6328	3167.7581	3200.3458	3215.9889	3808.9946
OC1C=CCCC11CC1	O[C@H]1C=CCCC21CC2	
InChI=1S/C8H12O/c9-7-3-1-2-4-8(7)5-6-8/h1,3,7,9H,2,4-6H2	InChI=1S/C8H12O/c9-7-3-1-2-4-8(7)5-6-8/h1,3,7,9H,2,4-6H2/t7-/m0/s1
