21
gdb 73404	2.60699	1.93256	1.49045	1.2968	80.87	-0.2477	0.0746	0.3223	974.6831	0.186097	-387.100264	-387.093014	-387.09207	-387.131296	30.677	
O	-0.0600550911	 1.4163556144	 0.0474101093	-0.500133
C	-0.0043947811	 0.0208011383	 0.0116732056	 0.452761
C	 0.8813020551	-0.6994304263	 1.0355258921	-0.296122
C	 0.5438913204	-2.1696958039	 0.6535475688	-0.234215
C	-0.4503679778	-1.9082368701	-0.4882773391	-0.01928
C	-1.3591347613	-0.7434672769	 0.021673268	-0.052919
C	-2.1013124084	-0.237634531	-1.2198244516	-0.232193
C	-0.9224780006	-0.2453577609	-2.2431715619	-0.227443
C	 0.1938693938	-0.7680670563	-1.3352380314	-0.086172
H	 0.8408102804	 1.7567803689	 0.0486285055	 0.27797
H	 1.9423701912	-0.4567858849	 0.9046493113	 0.084366
H	 0.6037836414	-0.4423908473	 2.0621717773	 0.100659
H	 1.4212269234	-2.7316744888	 0.3191063869	 0.094905
H	 0.0903413012	-2.7239231312	 1.4806694502	 0.096983
H	-0.8984058353	-2.7711271174	-0.9832790777	 0.057691
H	-1.9233788405	-0.8446656577	 0.9516282253	 0.052895
H	-2.9192099075	-0.9037409735	-1.5105074852	 0.089348
H	-2.5152515141	 0.7623881829	-1.0690294204	 0.108091
H	-1.106059517	-0.9001770151	-3.1001090642	 0.088919
H	-0.7007959609	 0.7559241187	-2.6226471435	 0.098311
H	 1.1912963389	-0.894758842	-1.764551665	 0.045579
229.0303	237.8141	247.8933	266.2588	311.5523	407.6501	419.8342	598.5986	642.886	675.2076	719.3928	762.4037	827.2461	831.9999	910.5367	919.5759	922.9797	945.0231	969.4891	988.0144	992.5163	997.3115	1024.0592	1067.5817	1080.0987	1111.0477	1126.3559	1163.6764	1197.7257	1211.8175	1226.9475	1251.2746	1257.1691	1261.6077	1272.9426	1278.9159	1302.8985	1316.6453	1328.9939	1343.5578	1405.0091	1484.8574	1492.1713	1508.0008	1514.7963	3032.4997	3049.1538	3050.1472	3057.7852	3075.8961	3078.0729	3087.9288	3089.3357	3095.6116	3103.4194	3108.0026	3807.9679
OC12CCC3C1CCC23	O[C@@]12CC[C@H]3[C@@H]1CC[C@@H]23	
InChI=1S/C8H12O/c9-8-4-3-5-6(8)1-2-7(5)8/h5-7,9H,1-4H2	InChI=1S/C8H12O/c9-8-4-3-5-6(8)1-2-7(5)8/h5-7,9H,1-4H2/t5-,6-,7+,8-
