23
gdb 68034	2.01902	1.65565	1.36074	1.2215	86.02	-0.2515	0.0782	0.3297	1132.9522	0.203606	-388.252157	-388.242077	-388.241133	-388.286387	38.938	
C	-0.1094501589	 1.5369233817	 0.1112509498	-0.475084
C	-0.0071767779	 0.0087716398	 0.024522546	 0.288156
C	-1.408966196	-0.5478776439	 0.3044474866	-0.475095
C	 0.8465906725	-0.6325179242	-1.1514401571	 0.305431
C	 0.5423727911	-0.5794477131	-2.6241670484	-0.51361
C	 2.1346355326	-0.1072637627	-0.4394832774	-0.348096
C	 1.221852609	-0.6963388057	 0.6814181955	 0.370441
O	 1.4298954608	-0.699024144	 2.0502339679	-0.478136
C	 1.0084969257	-1.9139079268	-0.2718951733	-0.347995
H	 0.8209174852	 2.0709787719	-0.0798623248	 0.113613
H	-0.8525237654	 1.9048026615	-0.6056007376	 0.110424
H	-0.4539044243	 1.8298411171	 1.1091146186	 0.123001
H	-2.1267060666	-0.1366329877	-0.4146469534	 0.110407
H	-1.4889953321	-1.6337099495	 0.2608560398	 0.113622
H	-1.7397162276	-0.2367933774	 1.3014536993	 0.12304
H	 0.5084326783	 0.4547032106	-2.9845508617	 0.119468
H	 1.3054230236	-1.1093762325	-3.2048320304	 0.118395
H	-0.4256140434	-1.0425800644	-2.8455428483	 0.119479
H	 3.0472281467	-0.6713762536	-0.6548544544	 0.078485
H	 2.3347214471	 0.962421565	-0.4443355879	 0.092353
H	 2.2415581739	-1.1831268886	 2.236259827	 0.28087
H	 0.1424209135	-2.5545870377	-0.1179150501	 0.09236
H	 1.8989851721	-2.513442876	-0.4840335859	 0.078469
68.7272	160.3352	162.7302	199.8979	213.5577	219.114	241.9499	261.4902	394.0318	425.2153	437.9454	504.7483	544.4029	586.1321	595.0571	671.9724	683.5988	731.8501	783.4776	941.4896	943.6784	958.2905	969.5519	997.891	1007.98	1048.9042	1060.9685	1090.2728	1121.5854	1125.6548	1147.0066	1167.2348	1183.9543	1230.2884	1256.818	1278.0978	1334.0852	1386.0654	1405.0338	1411.6142	1425.0062	1475.4049	1482.9774	1490.567	1491.6063	1509.3602	1513.5851	1519.0152	1562.7095	3024.7703	3032.4902	3039.0934	3054.2343	3063.6795	3084.237	3090.2047	3090.953	3091.7209	3128.9085	3132.7249	3153.788	3154.7251	3808.1327
CC1(C)C2(C)CC1(O)C2	CC1(C)[C@@]2(C)C[C@]1(O)C2	
InChI=1S/C8H14O/c1-6(2)7(3)4-8(6,9)5-7/h9H,4-5H2,1-3H3	InChI=1S/C8H14O/c1-6(2)7(3)4-8(6,9)5-7/h9H,4-5H2,1-3H3/t7-,8-
