17
gdb 69364	3.40125	1.19072	1.04924	2.5814	69.45	-0.2594	-0.037	0.2224	1148.9345	0.133569	-458.936153	-458.927586	-458.926641	-458.969242	32.763	
O	-0.2228372809	 1.4276113455	 0.0268202232	-0.463015
C	-0.0847811171	 0.0532271031	 0.0237252142	 0.408518
C	-0.3260611537	-0.7998175406	-1.1847067881	-0.349059
C	-1.2139327847	-0.9696378601	 0.0305733384	-0.16518
C	-0.4751778978	-1.8092382122	 1.0914550375	 0.34277
O	-0.1261373426	-3.1114228155	 0.7434593675	-0.484821
C	 0.6872558818	-0.7309005224	 1.0870294015	-0.377356
C	-1.2008648302	-1.799165158	 2.4149295793	 0.108744
O	-1.4144560699	-2.8138478463	 3.0344808589	-0.281283
H	 0.4744376428	 1.8053513031	-0.5202745672	 0.290126
H	-0.8153961852	-0.2825060541	-2.0037907198	 0.118131
H	 0.3608523508	-1.5882585803	-1.4781405103	 0.128768
H	-2.2862366587	-0.827460887	-0.0292748159	 0.098528
H	-0.4492872223	-3.6740592777	 1.4657120258	 0.291323
H	 1.6623097336	-1.1383178055	 0.8069723208	 0.113238
H	 0.7718591376	-0.1870354326	 2.0318395858	 0.113343
H	-1.5234505236	-0.8058088093	 2.7862522585	 0.107226
89.461	96.68	230.5774	255.2485	306.175	349.0559	382.691	396.0522	408.7131	417.831	491.1066	552.6006	665.5901	759.4947	833.24	844.7249	882.0183	927.0743	958.2358	961.6528	1010.9765	1020.8946	1069.8719	1086.4756	1096.4315	1115.3114	1209.6895	1231.1423	1270.2738	1285.6701	1314.078	1382.2344	1408.6559	1435.5385	1469.1916	1502.6322	1807.8098	2938.3869	3054.3364	3113.4443	3120.7574	3185.2953	3213.4167	3681.6554	3797.4373
OC12CC1C(O)(C2)C=O	O[C@]12C[C@H]1[C@@](O)(C2)C=O	
InChI=1S/C6H8O3/c7-3-6(9)2-5(8)1-4(5)6/h3-4,8-9H,1-2H2	InChI=1S/C6H8O3/c7-3-6(9)2-5(8)1-4(5)6/h3-4,8-9H,1-2H2/t4-,5+,6-/m1/s1
