22
gdb 104816	1.91357	1.40491	1.17867	2.3894	82.21	-0.2364	-0.0208	0.2156	1243.7102	0.192271	-404.352572	-404.342312	-404.341367	-404.387877	37.548	
C	 0.7965679965	-0.3484834404	 1.3306559966	-0.39702
C	 0.1222240479	-0.1789050434	-0.0339034782	-0.190253
C	-1.3510808891	-0.6223841304	-0.0622604807	 0.178767
C	-1.5163729423	-2.1349798171	 0.1634567773	-0.231712
C	-2.9416644343	-2.6780274811	 0.0050838521	-0.410193
N	-2.2198828475	 0.2689941698	 0.7839860017	-0.351723
C	-3.0501501505	 0.7059982024	-0.3715317422	-0.287083
C	-2.1096870184	-0.0808430165	-1.2945316021	 0.362811
O	-1.9960250748	-0.2181387419	-2.4764261459	-0.306139
H	 1.8003789641	 0.0866478183	 1.3193856012	 0.115195
H	 0.2160102142	 0.1618621221	 2.1053288424	 0.130227
H	 0.8994720599	-1.4002845883	 1.6146879147	 0.114272
H	 0.1616026785	 0.8789605047	-0.3176466494	 0.099295
H	 0.6656844606	-0.7318751871	-0.8094862366	 0.105345
H	-0.8530630735	-2.6502092464	-0.5411346238	 0.117092
H	-1.1452768591	-2.3758273427	 1.1671711643	 0.108215
H	-2.9664124616	-3.7513974158	 0.2137122771	 0.121898
H	-3.6431499828	-2.1988696909	 0.6970138241	 0.10912
H	-3.3176899621	-2.529894286	-1.0121457509	 0.137175
H	-2.7506388643	-0.2365056864	 1.4838826774	 0.218755
H	-4.0795457153	 0.324445395	-0.397554005	 0.124007
H	-3.0770016363	 1.790666002	-0.524623684	 0.131948
76.5464	89.1892	109.3802	140.1951	180.8663	211.2875	244.5709	291.668	308.3513	367.8364	435.4999	532.4806	563.9985	619.51	697.8557	746.8179	777.0865	807.679	882.4511	936.9903	955.5394	981.0388	1015.9266	1039.2231	1049.2877	1073.1398	1076.037	1130.429	1162.8908	1192.4085	1213.8586	1268.0697	1297.5067	1323.5215	1360.6439	1368.4639	1377.4864	1405.4232	1413.2886	1470.3812	1475.7094	1479.3795	1499.2302	1501.4865	1506.5269	1508.7148	1902.7401	3017.0456	3028.3641	3032.8972	3034.7299	3039.5078	3064.1488	3067.0769	3070.8734	3100.6673	3106.654	3112.0896	3114.5518	3539.8956
CCC1(CC)NCC1=O	CCC1(CC)NCC1=O	
InChI=1S/C7H13NO/c1-3-7(4-2)6(9)5-8-7/h8H,3-5H2,1-2H3	InChI=1S/C7H13NO/c1-3-7(4-2)6(9)5-8-7/h8H,3-5H2,1-2H3
