15
gdb 27900	2.01338	1.96943	1.00175	1.4324	71.07	-0.2482	-0.0163	0.2319	1122.1737	0.114261	-450.226784	-450.218327	-450.217383	-450.260706	30.22	
C	-0.0110241429	 1.4536040449	-0.0208497293	-0.458199
C	 0.0273056967	-0.0468024347	 0.0047872893	 0.345731
N	 0.117474105	-0.6722734257	-1.1774843771	-0.398074
C	 0.1461756224	-2.0054200469	-1.0885917714	 0.433983
O	 0.2332299469	-2.6845589554	-2.2360982581	-0.386885
N	 0.0968920052	-2.735854599	 0.0137352683	-0.348829
C	 0.0106741572	-1.9981000411	 1.1307573654	 0.446463
N	-0.0315096505	-2.6603719257	 2.3043641419	-0.554307
N	-0.0299671186	-0.6506064715	 1.1881420794	-0.348491
H	 0.8960762556	 1.8412071156	-0.4951913009	 0.14333
H	-0.8562042141	 1.7951835055	-0.6263795485	 0.142855
H	-0.0959909993	 1.8510667971	 0.9902789109	 0.136091
H	 0.2588268868	-2.0168175827	-2.9359156863	 0.304621
H	-0.0654276178	-3.6640172599	 2.3013854299	 0.271527
H	-0.1587296826	-2.1417162704	 3.1544449264	 0.270184
43.1434	96.8793	185.7833	196.0055	205.3557	302.0756	350.5678	544.6963	569.8518	581.081	588.6289	593.7735	637.9056	656.6262	771.2788	847.1285	971.8528	989.8067	1019.9372	1064.5516	1094.2562	1140.6503	1243.9082	1301.7431	1390.2789	1443.8931	1452.0666	1477.8259	1489.4456	1522.2217	1587.9244	1643.0323	1655.2459	3050.5102	3109.0371	3160.3519	3631.0744	3771.5757	3772.6986
CC1=NC(O)=NC(N)=N1	Cc1nc(O)nc(N)n1	
InChI=1S/C4H6N4O/c1-2-6-3(5)8-4(9)7-2/h1H3,(H3,5,6,7,8,9)	InChI=1S/C4H6N4O/c1-2-6-3(5)8-4(9)7-2/h1H3,(H3,5,6,7,8,9)
