15
gdb 94150	1.92866	1.74732	1.1955	3.1024	72.46	-0.2656	-0.0117	0.254	1063.7018	0.111072	-416.745438	-416.73657	-416.735625	-416.77911	32.42	
O	 0.179002543	 1.3569277383	-0.1827863726	-0.410904
C	 0.1010658538	-0.0132972809	 0.0163167762	 0.128935
C	 0.2000530546	-0.5222057606	 1.4767890053	-0.217344
N	-1.2763896551	-0.6247120242	 1.5241969135	-0.332031
C	-1.39079177	-0.6149393389	 0.0422867671	-0.095974
C	-2.4480771223	 0.2270153538	-0.4930480068	 0.285579
C	-3.290080039	 0.9667107973	-0.9246752534	-0.387095
C	-1.4222942911	-1.9583945973	-0.5557653688	 0.251839
N	-1.4091382756	-3.0346502586	-0.9787488744	-0.336314
H	-0.4634888027	 1.7926348905	 0.3907649068	 0.297839
H	 0.7589028323	-0.4833592953	-0.7134654966	 0.125291
H	 0.7358487101	-1.4769601697	 1.5488028603	 0.120334
H	 0.6212874932	 0.185681518	 2.196665601	 0.118555
H	-1.6754345253	-1.4346476625	 1.9862486627	 0.241191
H	-4.0453409459	 1.6062968203	-1.3115154303	 0.210097
75.0629	121.0529	130.4304	173.7557	229.9349	316.2672	368.3715	404.4692	482.2091	500.4941	558.6794	581.0304	601.3195	656.7042	668.1806	706.0567	850.1354	872.1701	999.6801	1016.2285	1035.4904	1069.198	1122.8735	1167.6271	1194.5351	1229.6079	1305.3359	1327.271	1377.107	1442.8725	1513.13	2241.7541	2343.4909	3024.0042	3087.1193	3133.1217	3498.3834	3540.6083	3789.2287
OC1CNC1(C#C)C#N	O[C@H]1CN[C@]1(C#C)C#N	
InChI=1S/C6H6N2O/c1-2-6(4-7)5(9)3-8-6/h1,5,8-9H,3H2	InChI=1S/C6H6N2O/c1-2-6(4-7)5(9)3-8-6/h1,5,8-9H,3H2/t5-,6+/m0/s1
