21
gdb 39311	2.54676	1.80447	1.34757	1.7499	80.23	-0.2404	0.071	0.3114	1025.95	0.186184	-387.072901	-387.065599	-387.064655	-387.104713	29.972	
C	 0.0507149509	 1.5198049694	-0.326185745	-0.307997
C	 1.3194750087	 0.7559761151	-0.0622166446	-0.009414
C	 2.0389122777	 0.88551906	 1.2734837152	-0.23421
C	 1.9840025188	-0.434889552	 2.0571197098	-0.212189
C	 0.5507817345	-0.837472607	 2.3597707868	 0.139675
O	-0.1091117647	 0.0945587278	 3.2532358481	-0.295868
C	-1.1988550421	 0.2851076568	 2.3308693964	-0.084733
C	-0.5179657091	-0.5833346459	 1.2480223409	-0.087894
C	-0.0186696716	 0.034502551	-0.0515362847	-0.032896
H	-0.2825023964	 2.2124643393	 0.4397623429	 0.113938
H	-0.1623952103	 1.8495657023	-1.3373138146	 0.108078
H	 1.9607413236	 0.5602188349	-0.9165140592	 0.079609
H	 3.077338221	 1.1903295574	 1.1134559383	 0.095574
H	 1.5754320556	 1.6650658768	 1.8877466065	 0.113157
H	 2.4622157807	-1.2392052959	 1.4824661841	 0.092298
H	 2.5279526384	-0.3480199633	 3.0049547471	 0.104354
H	 0.5154725044	-1.8538304743	 2.7746533275	 0.065315
H	-2.1397628729	-0.1277952582	 2.7180132978	 0.095078
H	-1.354689564	 1.3433698208	 2.0926940456	 0.10034
H	-1.0959847205	-1.4775320388	 1.0095514811	 0.076072
H	-0.2265984026	-0.5732638762	-0.9264414801	 0.081712
68.1961	191.676	262.7648	329.0592	376.9751	441.9728	476.64	530.7613	629.5517	714.6036	776.6059	788.8347	829.483	860.1016	903.9435	919.3023	932.5713	967.2755	974.064	989.192	1027.3341	1058.3423	1067.8279	1093.4898	1107.5284	1131.4491	1132.566	1145.9138	1166.3721	1199.1029	1224.9599	1250.3195	1252.3938	1294.3299	1338.7261	1349.0997	1362.1641	1377.1493	1387.4885	1394.2533	1414.5469	1465.696	1484.5116	1497.7114	1529.9924	3000.3715	3009.3788	3025.7892	3044.368	3053.7816	3069.389	3085.3425	3087.0938	3128.934	3140.8854	3151.4365	3211.6
C1C2CCC3OCC3C12	C1[C@H]2CC[C@H]3OC[C@H]3[C@@H]12	
InChI=1S/C8H12O/c1-2-8-7(4-9-8)6-3-5(1)6/h5-8H,1-4H2	InChI=1S/C8H12O/c1-2-8-7(4-9-8)6-3-5(1)6/h5-8H,1-4H2/t5-,6+,7+,8-/m1/s1
