23
gdb 117646	2.7929	0.97975	0.87663	1.6228	82.81	-0.2392	-0.01	0.2293	1473.5737	0.20124	-425.443496	-425.431915	-425.430971	-425.48043	41.018	
C	-0.0238177313	 1.3916901833	 0.0603596259	-0.226438
O	 0.011953244	-0.0140880563	 0.0239344706	-0.246693
C	-1.2771308806	-0.5950301581	 0.0152738173	-0.062511
C	-1.1292231354	-2.1248889602	-0.0418748812	 0.114769
C	-0.4015361991	-2.5209075217	-1.3481955034	-0.424185
C	-0.3292990464	-2.6223635536	 1.1792522016	-0.430281
C	-2.539960302	-2.7381513599	-0.0604081917	 0.37626
C	-2.6746861542	-4.2402447259	 0.1358743117	-0.483637
O	-3.5230262109	-2.0491533586	-0.2249456173	-0.313672
H	 1.0098141968	 1.7467671173	 0.0613598137	 0.124271
H	-0.5437020847	 1.8098799148	-0.8159807921	 0.105951
H	-0.5290651326	 1.7641207783	 0.9655752081	 0.105154
H	-1.8369825964	-0.3036611803	 0.9180801162	 0.090644
H	-1.8571465618	-0.2400455649	-0.8482893419	 0.101031
H	 0.5548326173	-1.9954064699	-1.3977622978	 0.142427
H	-0.2067432263	-3.5960017483	-1.3956130679	 0.11178
H	-0.9894098379	-2.2396741583	-2.2281739399	 0.121945
H	-0.8596489396	-2.4129534739	 2.1148732449	 0.114936
H	-0.1387622987	-3.697850702	 1.128521853	 0.111937
H	 0.6313711129	-2.1042694083	 1.2166638032	 0.141985
H	-2.5284149173	-4.4855249298	 1.1938987223	 0.147338
H	-3.6790642131	-4.5476397473	-0.1579773946	 0.141924
H	-1.9275597127	-4.8033157664	-0.4297529709	 0.135064
49.1275	84.9728	114.6486	124.9292	145.1196	194.9966	236.2174	249.6251	264.15	281.615	321.6397	348.7115	367.1738	374.9279	521.2505	570.8651	610.7654	720.3412	840.6238	936.7223	950.0781	965.4628	985.6917	992.0699	1026.0011	1067.2285	1135.8937	1159.0694	1173.8707	1201.0297	1225.3298	1256.1509	1281.184	1289.1841	1381.3186	1389.4795	1402.1862	1422.8754	1461.8406	1474.5414	1481.4028	1484.8482	1485.4299	1494.9236	1496.6104	1506.146	1515.9261	1522.2703	1793.5009	2967.8679	2981.6494	3014.3224	3022.9072	3036.4153	3039.9272	3044.9746	3104.1761	3107.1357	3110.8506	3111.2745	3128.3642	3131.5775	3152.5672
COCC(C)(C)C(C)=O	COCC(C)(C)C(=O)C	
InChI=1S/C7H14O2/c1-6(8)7(2,3)5-9-4/h5H2,1-4H3	InChI=1S/C7H14O2/c1-6(8)7(2,3)5-9-4/h5H2,1-4H3
