14
gdb 127750	2.54633	1.71477	1.03142	4.9539	68.67	-0.2501	-0.079	0.1711	1068.6761	0.101449	-470.018299	-470.010479	-470.009535	-470.050846	27.972	
C	-0.0581253228	 1.4566809022	-0.0316551035	-0.344617
N	-0.0156382903	 0.0096600067	 0.0402048392	-0.039628
N	-0.0450818074	-0.7149866959	-1.0752115927	-0.121471
N	 0.0042721044	-1.9946742614	-0.7648107482	-0.257405
C	 0.0663486351	-2.0887578783	 0.5776419577	 0.375533
O	 0.1269082281	-3.2424479799	 1.2244347206	-0.390632
C	 0.0557154518	-0.8083667154	 1.1384546317	 0.109429
C	 0.109613697	-0.5146519504	 2.5398353218	 0.080646
O	 0.1713245127	-1.4182129183	 3.3678266882	-0.323325
H	 0.8449311991	 1.8901942691	 0.4071252156	 0.155702
H	-0.1159341139	 1.7212312682	-1.0871171533	 0.180337
H	-0.9371262281	 1.8418772323	 0.4926491193	 0.155638
H	 0.1627032876	-3.014546166	 2.1753069146	 0.321601
H	 0.0942338667	 0.5451497272	 2.858031089	 0.098192
118.5294	164.406	180.8025	182.1338	271.8483	288.1891	372.3743	466.1837	546.4047	626.0104	662.0473	694.9854	767.9353	795.2463	848.7119	1020.1965	1048.4715	1127.3949	1151.0282	1206.949	1259.267	1310.4578	1379.7251	1409.5198	1448.2569	1473.4334	1482.6974	1504.8343	1563.2788	1590.9309	1724.1255	2947.0144	3050.1573	3116.6391	3168.3326	3562.6369
CN1N=NC(O)=C1C=O	Cn1nnc(O)c1C=O	
InChI=1S/C4H5N3O2/c1-7-3(2-8)4(9)5-6-7/h2,9H,1H3	InChI=1S/C4H5N3O2/c1-7-3(2-8)4(9)5-6-7/h2,9H,1H3
