21
gdb 107271	3.09937	1.39455	1.24786	1.3675	81.88	-0.2496	0.0756	0.3252	1098.4657	0.184867	-387.044594	-387.036887	-387.035943	-387.076679	31.605	
O	-0.0152478965	 1.334027207	 0.3795165129	-0.423762
C	-0.0534928953	-0.0092863537	-0.0965162388	-0.178357
C	-1.4700235996	-0.4950512708	-0.023856947	 0.40056
C	-2.0024878422	-1.0883552333	 1.2597579891	-0.361263
C	-1.8627446114	-1.9628462913	 0.0374529733	-0.09286
C	-2.9810558533	-1.9897764	-1.0263479824	-0.037994
C	-3.8052665903	-0.7021618217	-0.7518801579	-0.237986
C	-2.464558961	-0.0048159304	-1.1031180794	-0.083429
C	-2.3012707428	-1.1516786658	-2.1650507629	-0.215708
H	 0.8714183686	 1.6765755745	 0.2312940784	 0.283298
H	 0.3085315484	-0.0608802432	-1.1365522638	 0.080751
H	 0.5958951706	-0.662394844	 0.5090289131	 0.07826
H	-1.2553585007	-1.2467052681	 2.0322171271	 0.105991
H	-2.9715535722	-0.8173491669	 1.6595145372	 0.11217
H	-1.1234170252	-2.757042326	 0.0297226659	 0.081856
H	-3.4640668933	-2.9482311802	-1.2192011495	 0.05862
H	-4.5543193314	-0.5380741318	-1.5293812615	 0.094976
H	-4.2643572078	-0.5425647218	 0.2239308189	 0.093028
H	-2.4142567666	 1.0506249723	-1.3688741315	 0.068324
H	-1.2866291209	-1.4329872285	-2.4623318909	 0.08497
H	-2.9333615972	-1.0199712962	-3.0478720704	 0.088556
84.0931	153.0042	249.1289	283.9049	339.1376	397.7255	457.0472	531.7652	545.0985	647.2382	701.0218	786.4829	836.7224	838.8878	864.2446	889.5921	917.9663	931.1064	964.1419	979.9387	999.0292	1019.7712	1032.7275	1058.9778	1064.2598	1073.9062	1086.7442	1092.5869	1106.7607	1136.113	1207.6431	1221.4274	1228.3626	1244.4575	1250.2542	1264.9276	1286.0454	1294.6468	1331.3328	1385.8803	1464.9525	1480.1214	1502.6484	1513.4727	1538.8343	2956.3682	2984.9352	3047.0658	3076.8897	3105.5988	3109.3458	3122.4669	3125.7819	3135.8552	3162.5251	3214.5815	3821.8199
OCC12CC1C1CC2C1	OC[C@]12C[C@H]1[C@H]1C[C@@H]2C1	
InChI=1S/C8H12O/c9-4-8-3-7(8)5-1-6(8)2-5/h5-7,9H,1-4H2	InChI=1S/C8H12O/c9-4-8-3-7(8)5-1-6(8)2-5/h5-7,9H,1-4H2/t5-,6+,7-,8-/m0/s1
