13
gdb 129603	2.60102	1.65187	1.01064	6.1377	64.82	-0.2408	-0.0523	0.1885	1061.7381	0.08941	-489.901948	-489.894264	-489.89332	-489.933978	28.654	
N	 0.0618600567	 1.3587660961	 0.1642712553	-0.588036
C	-0.0281702566	 0.0163674352	 0.0507393163	 0.455032
C	-1.1038264217	-0.8555490065	-0.0048108739	-0.12335
C	-2.5204844437	-0.6865741427	-0.0045879122	 0.056343
O	-3.2967104347	-1.638297216	-0.060948017	-0.343492
C	-0.456597946	-2.1427277302	-0.0645192024	 0.448441
O	-1.1048869649	-3.2972311279	-0.1298930466	-0.402858
N	 0.8483310618	-2.0768038355	-0.0482385041	-0.247186
O	 1.1124646481	-0.6568213069	 0.0249941795	-0.221058
H	 0.9630216698	 1.7764977112	-0.0068417591	 0.285439
H	-0.7427150013	 1.9185577107	-0.0612722355	 0.282388
H	-2.9183689711	 0.3475012404	 0.0497211528	 0.076031
H	-2.0588093964	-3.064342238	-0.1245926132	 0.322306
144.778	200.9165	202.3939	282.8333	304.5081	347.4674	381.4141	409.0642	466.2001	564.9803	631.1116	674.5005	737.3164	771.7623	775.8107	804.9427	892.9068	1021.9797	1048.6969	1156.2071	1305.2775	1334.5503	1405.8261	1471.7743	1515.6431	1595.0753	1659.8384	1688.0242	1730.2105	2911.8702	3482.4472	3603.4252	3722.4879
NC1=C(C=O)C(O)=NO1	Nc1c(C=O)c(O)no1	
InChI=1S/C4H4N2O3/c5-3-2(1-7)4(8)6-9-3/h1H,5H2,(H,6,8)	InChI=1S/C4H4N2O3/c5-3-2(1-7)4(8)6-9-3/h1H,5H2,(H,6,8)
