16
gdb 20977	4.71698	1.62829	1.23681	1.4022	67.52	-0.1988	0.0079	0.2067	954.819	0.132413	-376.094967	-376.087127	-376.086182	-376.12738	27.846	
C	 0.1640812708	 1.395982	 0.0265073931	-0.33487
N	-0.2523453654	 0.007322612	-0.0160164424	-0.153158
C	-0.0251537856	-0.7688553595	 1.1918527888	-0.32917
C	-0.1045657414	-0.6515115495	-1.2198390582	 0.408335
N	-0.0884030394	-1.9869648935	-1.3099399965	-0.32705
N	 0.0064384625	-2.1973444245	-2.6272152297	-0.076674
N	 0.0716228652	-1.1288542158	-3.3961387921	-0.196276
C	 0.0065514356	-0.1185676661	-2.5288452663	-0.1473
H	 1.2564575608	 1.5271336981	-0.0512383518	 0.112149
H	-0.3070411016	 1.9583301561	-0.7844142755	 0.1333
H	-0.1669137987	 1.8374467252	 0.9701776987	 0.126569
H	-0.3972144722	-0.2042684216	 2.0512364622	 0.116467
H	-0.5675734995	-1.7129603487	 1.1259392635	 0.153709
H	 1.039540849	-1.0002043462	 1.358258049	 0.110274
H	 0.0453528513	-3.128315865	-3.0059014338	 0.288557
H	 0.0418492785	 0.9026695489	-2.8680837989	 0.115138
68.5853	151.6352	177.3085	186.6876	251.7068	369.6606	383.665	428.6881	503.1001	625.8134	701.4385	739.7371	828.5729	953.0506	991.0719	1029.1237	1083.9968	1129.4037	1169.6089	1176.4686	1187.822	1231.8175	1281.1626	1297.9283	1385.4833	1422.3579	1447.7635	1469.907	1483.3673	1492.6077	1498.5855	1508.8799	1527.1752	1612.1138	2965.3641	2976.9659	3076.2243	3083.1216	3117.5484	3141.2275	3281.8623	3683.7862
CN(C)C1=NNN=C1	CN(C)c1n[nH]nc1	
InChI=1S/C4H8N4/c1-8(2)4-3-5-7-6-4/h3H,1-2H3,(H,5,6,7)	InChI=1S/C4H8N4/c1-8(2)4-3-5-7-6-4/h3H,1-2H3,(H,5,6,7)
