19
gdb 88410	1.88509	1.33135	0.90541	3.2225	77.81	-0.2477	-0.0525	0.1952	1327.1182	0.155768	-423.026283	-423.016258	-423.015314	-423.062916	34.737	
C	 0.2231336114	 1.5552205862	-0.3647674917	-0.411281
C	 0.0459500539	 0.0880371698	-0.0371640418	-0.001387
C	 1.216301955	-0.8646416941	-0.051318304	-0.304211
C	 0.5320924637	-0.534714111	 1.255683384	-0.03131
C	 1.257551535	 0.2760200183	 2.332441303	-0.186306
C	 0.2179688309	 0.9162559283	 3.2415987938	 0.159842
O	 0.0577651093	 2.1014861999	 3.3624551673	-0.241049
C	 2.1590411244	-0.6711979778	 3.1131828871	 0.162578
O	 3.3585130553	-0.5991838954	 3.1346541729	-0.240071
H	 1.2095808919	 1.9255845982	-0.0727876772	 0.125086
H	 0.1221064505	 1.7165840357	-1.4431207055	 0.122417
H	-0.5259971154	 2.1735273741	 0.140206098	 0.134217
H	-0.8932028389	-0.3270846909	-0.3945087225	 0.093006
H	 1.0908019511	-1.859952423	-0.4628956462	 0.119165
H	 2.2014764232	-0.4380571314	-0.212801296	 0.127332
H	-0.1055943844	-1.3139840275	 1.6674869924	 0.093292
H	 1.879334997	 1.0625466532	 1.9027940657	 0.116646
H	-0.4257583111	 0.1885692829	 3.7885762139	 0.081086
H	 1.618944497	-1.4798826554	 3.6577288968	 0.080946
38.9557	45.1306	71.8721	147.8652	177.6977	203.988	274.8059	287.2281	338.056	417.1033	460.5267	517.6254	556.4464	771.0998	815.6777	856.6795	906.3096	913.602	953.0212	1014.3958	1027.7135	1073.8972	1085.732	1108.9826	1109.7613	1151.3626	1171.0107	1198.724	1240.6642	1243.0596	1255.5021	1385.8571	1412.8891	1420.6684	1428.7919	1437.1154	1490.9457	1493.4337	1503.7895	1816.2089	1848.9352	2850.5906	2870.4117	3038.2779	3100.0188	3107.9608	3118.3013	3126.6779	3130.9745	3141.6114	3216.3757
CC1CC1C(C=O)C=O	C[C@H]1C[C@H]1C(C=O)C=O	
InChI=1S/C7H10O2/c1-5-2-7(5)6(3-8)4-9/h3-7H,2H2,1H3	InChI=1S/C7H10O2/c1-5-2-7(5)6(3-8)4-9/h3-7H,2H2,1H3/t5-,7+/m0/s1
