23
gdb 113439	4.67473	0.80291	0.76031	1.0754	88.63	-0.2125	0.076	0.2885	1631.5678	0.205163	-384.422505	-384.412698	-384.411754	-384.457365	36.6	
C	-0.0413595331	 1.5289370833	-0.4704546264	-0.374841
C	-0.0183686764	 0.1814875155	 0.259443011	-0.179993
C	-1.3792630056	-0.4739804598	 0.2986735628	-0.077705
N	-1.8023250872	-1.1820468715	-0.9354756768	-0.387064
C	-1.5796563612	-1.9371239231	 0.2875192274	 0.331871
C	-0.5789335188	-3.0808567387	 0.4615860482	-0.233999
N	-1.4540628978	-3.6180750033	 1.5294056634	-0.070141
C	-1.6647971087	-5.0464987917	 1.5858573623	-0.316888
C	-2.5807942555	-2.7621247564	 1.099816614	-0.252097
H	 0.9545566553	 1.9810729646	-0.5023358423	 0.110504
H	-0.3901905754	 1.3993160615	-1.4995417443	 0.129663
H	-0.7131933135	 2.2384947589	 0.0258243722	 0.10897
H	 0.6833710267	-0.4960849051	-0.2392097485	 0.104176
H	 0.3436033139	 0.314830104	 1.2872721043	 0.096851
H	-2.1473971083	 0.1028282422	 0.8163316828	 0.078134
H	-2.7988543418	-1.0598443004	-1.1013423121	 0.22661
H	-0.5317053303	-3.7180266111	-0.4367606351	 0.089881
H	 0.4400844777	-2.8406494854	 0.784147701	 0.103821
H	-0.7254025226	-5.5500878848	 1.8377144602	 0.120853
H	-2.3919752214	-5.2847929661	 2.3696254861	 0.118921
H	-2.0359686577	-5.4728824742	 0.6334130663	 0.088614
H	-3.1245660483	-2.2692229131	 1.9146126427	 0.101888
H	-3.3065450001	-3.2855298153	 0.4518694508	 0.081971
61.1865	89.6321	128.5078	180.4427	227.8954	254.2013	260.4999	292.8474	351.6191	414.5291	454.9366	475.4023	555.9025	734.8576	770.2295	824.7616	867.2998	935.6569	936.1218	968.2051	975.2402	990.8671	1030.1208	1066.0452	1095.8603	1098.6914	1114.4736	1124.0675	1145.1139	1190.5697	1212.7615	1218.0738	1232.054	1269.1688	1297.2119	1309.4832	1324.5281	1343.1318	1385.7833	1407.7056	1451.4144	1476.5709	1485.034	1495.711	1497.6093	1498.0605	1503.432	1512.0316	1523.9768	2916.2996	2941.6589	2971.0424	3024.9576	3032.4301	3040.5482	3053.8513	3055.7531	3067.0835	3093.6034	3096.5642	3102.0147	3112.7923	3488.1331
CCC1NC11CN(C)C1	CC[C@H]1NC21CN(C)C2	
InChI=1S/C7H14N2/c1-3-6-7(8-6)4-9(2)5-7/h6,8H,3-5H2,1-2H3	InChI=1S/C7H14N2/c1-3-6-7(8-6)4-9(2)5-7/h6,8H,3-5H2,1-2H3/t6-/m1/s1
