16
gdb 51825	4.7049	0.89406	0.78713	2.4253	67.57	-0.2638	-0.0042	0.2596	1369.3728	0.124923	-475.050041	-475.041886	-475.040942	-475.084144	28.663	
O	 0.0299202675	-0.0265079458	-0.1794132025	-0.265496
C	 0.0263214806	 1.1643154054	-0.2323327608	 0.167107
O	 1.0180640329	 1.9188769539	 0.2895276335	-0.185236
C	 0.9334478039	 3.3426109927	 0.1703614977	 0.050182
C	 1.0499246016	 3.9359840138	 1.5719149507	-0.091213
O	 1.0986478038	 5.3645218064	 1.5114403636	-0.222098
C	 1.7940793429	 5.8869419083	 0.4687705506	 0.137965
N	 2.2825117985	 5.3081347964	-0.5421783713	-0.267161
C	 2.0771039315	 3.8716390843	-0.6941907002	-0.17202
H	-0.7707673396	 1.772115421	-0.7030483387	 0.085183
H	-0.0335487069	 3.6250370819	-0.265869035	 0.104975
H	 0.1901389954	 3.6782573138	 2.1937442298	 0.131048
H	 1.958825259	 3.5575081017	 2.0548998053	 0.134288
H	 1.8923732052	 6.9626339865	 0.5976300715	 0.134549
H	 2.9993217174	 3.3388771863	-0.4307764422	 0.136261
H	 1.8870196663	 3.6587528633	-1.751704912	 0.121668
36.0727	106.9606	140.043	162.8714	289.4885	347.3325	362.8769	483.1691	488.0311	525.517	694.8708	821.1114	903.066	936.3018	962.699	981.1507	995.6061	1041.3546	1080.5005	1132.3152	1138.5327	1172.4161	1185.2966	1222.5024	1290.1731	1334.6994	1350.0414	1368.3647	1400.7132	1414.3365	1441.4657	1487.4898	1512.0934	1740.8443	1871.6707	2950.0048	3023.963	3034.1127	3045.2017	3072.8791	3115.9135	3170.6796
O=COC1COC=NC1	O=CO[C@H]1COC=NC1	
InChI=1S/C5H7NO3/c7-4-9-5-1-6-3-8-2-5/h3-5H,1-2H2	InChI=1S/C5H7NO3/c7-4-9-5-1-6-3-8-2-5/h3-5H,1-2H2/t5-/m1/s1
