23
gdb 63750	3.50997	1.07296	0.97964	1.3226	85.82	-0.248	0.0746	0.3227	1324.6439	0.204735	-388.276404	-388.267109	-388.266165	-388.310054	36.811	
C	 0.6610729452	 1.3110095972	 0.2748197319	-0.450233
C	-0.1374369773	 0.0325494669	 0.0424370181	 0.429969
O	-1.5296117469	 0.2996969928	 0.0382291142	-0.478729
C	 0.4031167242	-0.8476851945	-1.1284965063	-0.372414
C	 1.0805351158	-1.7756070231	-0.0927868999	 0.398894
C	 1.1526025613	-3.3176469998	-0.2098481853	-0.285976
C	 2.5505415381	-3.2764083346	 0.4641052195	-0.211235
C	 2.6204468127	-1.7625361026	 0.1281214506	-0.27534
C	 0.2050458871	-1.1236110971	 1.0144968396	-0.3285
H	 1.7356140266	 1.1106970407	 0.3253675789	 0.122787
H	 0.4988063422	 2.0230243903	-0.5449744158	 0.102561
H	 0.3518689731	 1.787256326	 1.2106551984	 0.121793
H	-1.6935347152	 1.0219559662	-0.578215499	 0.270459
H	-0.426446588	-1.3461365371	-1.6389815046	 0.098846
H	 1.049728331	-0.3680731072	-1.8709531713	 0.08376
H	 0.3620727931	-3.8911928132	 0.2829079347	 0.093252
H	 1.2136498104	-3.6384591063	-1.2553089591	 0.096502
H	 2.4895621098	-3.4530331601	 1.5414925768	 0.102964
H	 3.3311288559	-3.9202921127	 0.0524928498	 0.094347
H	 3.1586069028	-1.5785443814	-0.8078042242	 0.095089
H	 3.0168225415	-1.0897507687	 0.8944802213	 0.092693
H	 0.6885565515	-0.8572652298	 1.9592483937	 0.091791
H	-0.6942085847	-1.709498002	 1.2236919281	 0.106721
75.4506	106.686	197.2328	260.7636	271.0161	298.3608	310.0543	349.6778	357.1655	436.497	461.7036	492.4813	661.3949	711.5365	775.4852	813.1718	864.9894	870.0975	897.2921	911.6143	919.9241	938.2221	948.3578	969.7066	975.7372	1037.2624	1084.8103	1107.2402	1138.4165	1183.4764	1186.7353	1222.2564	1223.4114	1230.7206	1251.5366	1255.7433	1274.8876	1288.9352	1297.4361	1311.2506	1376.5859	1406.4146	1460.3799	1472.6634	1479.1843	1485.3052	1491.3871	1496.7199	1505.3619	3017.8005	3035.5413	3036.8561	3041.5928	3048.2258	3059.0635	3084.8685	3086.5442	3089.8331	3096.3302	3106.0878	3112.2681	3114.3671	3796.3767
CC1(O)CC2(CCC2)C1	CC1(O)CC2(CCC2)C1	
InChI=1S/C8H14O/c1-7(9)5-8(6-7)3-2-4-8/h9H,2-6H2,1H3	InChI=1S/C8H14O/c1-7(9)5-8(6-7)3-2-4-8/h9H,2-6H2,1H3
