25
gdb 122529	4.62885	0.57476	0.54776	0.9199	91.79	-0.2463	0.0905	0.3368	2172.3832	0.227071	-389.477721	-389.466549	-389.465604	-389.515285	39.761	
C	-0.4092522891	 1.4723902888	 0.3969767779	-0.383681
C	 0.031844358	 0.0609068735	 0.0468363048	-0.023744
O	 0.6476154465	-0.5123005439	 1.1797892713	-0.242968
C	 1.1096256411	-1.8301823966	 0.9566416226	-0.07394
C	 1.8035380851	-2.3085891992	 2.2041848305	-0.031115
C	 1.0202041824	-2.9279776051	 3.3364945643	-0.284719
C	 1.9797894458	-3.7743274787	 2.5343983105	 0.008746
C	 1.4874297721	-4.9077347744	 1.6545375615	-0.196745
C	 1.3314739888	-6.219961745	 2.432558919	-0.372353
H	 0.4508819317	 2.0794423198	 0.6935040766	 0.125316
H	-0.8911651046	 1.9476445273	-0.4627590943	 0.111798
H	-1.1188621385	 1.456556106	 1.2290864105	 0.125853
H	-0.8343311796	-0.5474618077	-0.2674470948	 0.080779
H	 0.7349177034	 0.0754977995	-0.8043385181	 0.081497
H	 0.2653110557	-2.4883883467	 0.694284171	 0.079901
H	 1.8044054838	-1.8442117556	 0.0980748572	 0.081308
H	 2.6273497743	-1.6617255153	 2.4935876634	 0.087155
H	 1.2711792865	-2.6578466089	 4.3562147553	 0.108315
H	-0.0413869059	-3.087309973	 3.1693079319	 0.107873
H	 2.9191793234	-4.0053509507	 3.0333033853	 0.078996
H	 0.5259137306	-4.6428756959	 1.2005760178	 0.095679
H	 2.1872538606	-5.0599803189	 0.8219124844	 0.095299
H	 0.9842408538	-7.0290801249	 1.7823495703	 0.108777
H	 2.2846076201	-6.5323909541	 2.8735441427	 0.113136
H	 0.6107759039	-6.1085403406	 3.2493685786	 0.118836
41.2791	73.8844	80.1663	97.6682	131.8412	176.629	219.6838	247.5233	264.2962	292.2274	376.88	436.6523	455.3498	571.2411	755.1525	798.2339	821.9722	831.4591	870.2878	909.8983	912.0912	958.2295	992.8587	1031.1282	1048.5525	1061.4654	1076.0564	1116.1476	1138.6988	1147.0671	1160.4653	1182.736	1200.5987	1202.0416	1248.7055	1277.3188	1296.2353	1299.6129	1341.506	1368.6763	1397.4207	1406.852	1412.2169	1429.8154	1462.8775	1483.5457	1484.2552	1496.7152	1497.5317	1500.1278	1507.1874	1514.5474	1536.2844	2939.1909	2951.3628	2967.3218	2981.424	3017.3747	3031.1111	3044.3495	3057.9742	3098.743	3104.6698	3118.3847	3119.5382	3121.0308	3124.2032	3145.1119	3209.1281
CCOCC1CC1CC	CCOC[C@H]1C[C@H]1CC	
InChI=1S/C8H16O/c1-3-7-5-8(7)6-9-4-2/h7-8H,3-6H2,1-2H3	InChI=1S/C8H16O/c1-3-7-5-8(7)6-9-4-2/h7-8H,3-6H2,1-2H3/t7-,8-/m1/s1
