19
gdb 100574	3.45469	0.89678	0.75991	7.049	78.12	-0.2545	0.0117	0.2661	1507.6442	0.157594	-419.249632	-419.239167	-419.238223	-419.286327	35.838	
C	 0.002268653	 1.6428129378	 0.0711756967	-0.3796
C	 0.0105142864	 0.1125666496	 0.0704878963	-0.153422
N	 0.7224501968	-0.4575509716	 1.2199033442	-0.094887
C	-0.0698823773	-0.7028090808	 2.4113263033	-0.349982
C	 2.0640020092	-0.6707130729	 1.0866313216	 0.446591
O	 2.6751503446	-0.3980255194	 0.071325537	-0.361665
C	 2.7895507521	-1.2923004153	 2.300912465	-0.515199
C	 4.1982818424	-1.5446001114	 2.017362425	 0.307174
N	 5.3181531604	-1.76865278	 1.8508691949	-0.298179
H	 1.0236619342	 2.0238979305	-0.0032283727	 0.148706
H	-0.5673641773	 2.0172021971	-0.7849213185	 0.123369
H	-0.4561944095	 2.0453203991	 0.9804544219	 0.114066
H	-1.0116967518	-0.2808932764	 0.0915441529	 0.102766
H	 0.4997596494	-0.2554227499	-0.8325839076	 0.147073
H	 0.5512682293	-1.0005157123	 3.2540478929	 0.141991
H	-0.6103974132	 0.2046532315	 2.7054602077	 0.139168
H	-0.8101624496	-1.4942708554	 2.2362091567	 0.136692
H	 2.7228532772	-0.6236389365	 3.1669536837	 0.173596
H	 2.3161064338	-2.2354828736	 2.595411199	 0.17174
41.6612	66.4525	89.0057	117.2936	141.779	175.1627	235.3252	293.8179	364.7122	390.3392	402.6997	427.0098	502.7897	581.0134	621.7637	788.061	801.5444	891.9636	953.0086	978.4912	1021.1874	1093.0414	1105.0807	1152.9555	1155.1888	1228.5302	1258.2757	1300.7099	1343.0213	1393.8965	1411.7823	1438.0485	1454.4572	1473.5016	1486.3217	1489.2455	1497.671	1505.1397	1531.6422	1767.3202	2379.0668	3016.7529	3041.0745	3043.7215	3047.9638	3064.69	3083.998	3103.5716	3123.9868	3135.547	3164.6637
CCN(C)C(=O)CC#N	CCN(C)C(=O)CC#N	
InChI=1S/C6H10N2O/c1-3-8(2)6(9)4-5-7/h3-4H2,1-2H3	InChI=1S/C6H10N2O/c1-3-8(2)6(9)4-5-7/h3-4H2,1-2H3
