19
gdb 67595	2.74618	1.86757	1.78163	1.4381	76.45	-0.2152	0.0915	0.3067	905.4766	0.162046	-385.883786	-385.877072	-385.876128	-385.91443	28.352	
C	-0.0126893599	 1.5044674234	-0.0068569458	-0.511632
C	-0.008769096	-0.0010652697	-0.0017885151	 0.314974
C	 0.9867902417	-0.8791673337	-0.7678307669	-0.16357
C	 0.2613353146	-2.056962233	-1.4037661203	-0.232666
C	-1.0567727715	-2.1270290994	-0.6435840439	-0.117227
C	-0.9371330398	-2.0405770725	 0.8556697661	 0.090736
O	 0.3557091081	-1.9359866715	 1.3995063543	-0.252761
C	 0.9882397801	-0.8652687237	 0.7414631088	 0.043488
C	-1.2970533556	-0.7983759253	 0.0737321956	-0.178774
H	 1.0076988433	 1.9005590069	 0.0004225193	 0.117082
H	-0.5128837804	 1.9022267837	-0.8975027228	 0.119513
H	-0.5285334682	 1.9055286608	 0.8731397039	 0.121449
H	 1.8304008539	-0.4290938484	-1.281625559	 0.079579
H	 0.0866124367	-1.8769931521	-2.4708352	 0.099803
H	 0.8337052121	-2.9879891095	-1.3124091278	 0.108952
H	-1.8861526456	-2.6908986533	-1.0569386181	 0.082928
H	-1.62035335	-2.5720126473	 1.5073302073	 0.098019
H	 1.8299649071	-0.4733422704	 1.3010952201	 0.095437
H	-2.2575432606	-0.3037943651	 0.1346385443	 0.08467
194.8114	216.6	270.901	284.7829	502.7842	523.2487	556.335	658.5372	713.7215	739.174	745.8309	770.0403	804.9165	849.3055	868.6842	916.1872	942.5057	976.2142	990.5686	1009.6577	1032.0475	1057.0358	1069.5036	1081.1775	1092.7731	1113.1401	1126.4854	1162.015	1200.3802	1218.3994	1238.2982	1289.343	1293.6365	1329.4471	1358.8447	1404.6625	1419.1441	1444.0749	1489.7683	1493.1088	1501.9067	3023.1273	3027.8659	3063.3498	3081.7564	3096.6904	3158.2874	3165.1706	3177.588	3185.27	3200.9108
CC12C3CC4C(OC13)C24	C[C@@]12[C@@H]3C[C@H]4[C@@H](O[C@H]13)[C@@H]24	
InChI=1S/C8H10O/c1-8-4-2-3-5(8)6(3)9-7(4)8/h3-7H,2H2,1H3	InChI=1S/C8H10O/c1-8-4-2-3-5(8)6(3)9-7(4)8/h3-7H,2H2,1H3/t3-,4-,5+,6-,7+,8+/m1/s1
