19
gdb 121713	6.60922	0.55493	0.51684	5.8084	75.3	-0.2517	-0.0198	0.2319	2037.6494	0.158283	-456.371428	-456.361149	-456.360205	-456.4081	35.36	
O	-0.1798813447	 1.621212809	 0.0644255325	-0.418616
C	-0.1223597236	 0.2052499355	 0.0238642199	-0.076897
C	-1.5529897587	-0.3173303767	 0.0188923208	-0.153827
C	-1.6064212616	-1.8427124648	-0.0233912854	-0.302017
C	-3.0120542903	-2.4074610291	-0.029901802	 0.385583
N	-4.0394125775	-1.6685324888	-0.0024957919	-0.493357
N	-3.0145705097	-3.8269272115	-0.0694637925	-0.33908
C	-4.1096663903	-4.6530713966	-0.0852165869	 0.168677
O	-5.2670493444	-4.2990872474	-0.0679221134	-0.298817
H	 0.7196987423	 1.960578391	 0.0666041626	 0.285476
H	 0.4089228435	-0.1469544137	-0.8770250252	 0.079364
H	 0.4211950332	-0.19725899	 0.8959205983	 0.079347
H	-2.0756771891	 0.048452528	 0.9070291663	 0.128503
H	-2.0874886655	 0.0973231272	-0.8402667198	 0.128497
H	-1.079973273	-2.2186087578	-0.9137949997	 0.113967
H	-1.0684228288	-2.2675490915	 0.8376118471	 0.113977
H	-4.8924554149	-2.2279441599	-0.0124486785	 0.252715
H	-2.1147020764	-4.283851768	-0.0881212697	 0.254331
H	-3.8105740104	-5.7189009149	-0.1170516326	 0.092172
44.3499	61.5002	100.981	107.4979	137.8769	235.0162	253.358	265.7419	285.4711	333.8197	489.8229	534.7795	556.8029	600.9147	762.7658	809.9015	876.5453	929.6146	976.5783	1018.9524	1025.449	1031.7315	1072.7934	1092.5677	1127.1987	1189.2169	1211.4649	1228.4918	1286.9878	1300.9629	1314.0045	1338.3197	1413.4412	1440.7419	1466.2606	1471.7498	1493.2931	1507.4131	1528.0957	1741.7947	1815.1088	2944.7156	2946.5854	2969.5518	2994.8887	3021.1007	3072.2434	3115.5323	3491.5482	3610.7292	3831.8125
OCCCC(=N)NC=O	OCCCC(=N)NC=O	
InChI=1S/C5H10N2O2/c6-5(7-4-9)2-1-3-8/h4,8H,1-3H2,(H2,6,7,9)	InChI=1S/C5H10N2O2/c6-5(7-4-9)2-1-3-8/h4,8H,1-3H2,(H2,6,7,9)
