21
gdb 39654	3.91289	1.01204	0.96989	1.5525	82.55	-0.2309	0.0795	0.3104	1318.5811	0.183811	-387.028991	-387.020968	-387.020023	-387.062252	31.19	
C	-0.1861885274	 1.4547814052	-0.0468117141	-0.208095
C	 1.3424187853	 1.6107470355	-0.2672857171	-0.230605
C	 1.5515217195	 0.285382911	 0.523668063	 0.039344
C	 0.0514561549	-0.0472108387	 0.2645503596	-0.233277
C	 2.5956493712	-0.6927592178	 0.0624057672	-0.057154
C	 4.0890670646	-0.5895553237	 0.3501720329	-0.155939
C	 4.3189180428	-0.1633960439	 1.7958631881	-0.095354
O	 3.4185607671	-1.1935226034	 2.2872508907	-0.284099
C	 3.2573349729	-1.6991287934	 0.9567032597	 0.072956
H	-0.524159461	 2.0013549313	 0.8384341627	 0.101652
H	-0.8482180102	 1.7035717307	-0.8794945457	 0.093582
H	 1.6114023503	 1.4885083473	-1.3219546136	 0.094048
H	 1.828942042	 2.5138252345	 0.1104254835	 0.091891
H	 1.6952722895	 0.4980178294	 1.5863829526	 0.08664
H	-0.516315253	-0.5023306757	 1.0795090374	 0.09842
H	-0.0683101542	-0.667317026	-0.6306448064	 0.093122
H	 2.4263307937	-1.0894719226	-0.939013105	 0.082505
H	 4.8420475495	-0.6157924205	-0.4258950392	 0.095362
H	 5.3396842982	-0.3549365182	 2.1454711028	 0.109025
H	 4.0089114743	 0.84388962	 2.097632189	 0.105671
H	 3.2492033201	-2.7757209311	 0.8270909519	 0.100306
56.4701	112.6296	147.4658	192.861	309.0255	357.9473	469.3864	538.5013	665.3733	751.3101	774.6422	795.6011	805.5861	815.9119	899.1349	933.1036	944.8286	951.5702	962.6238	971.7952	993.9024	1009.1711	1044.8243	1051.8327	1065.6883	1086.7572	1105.2611	1130.4014	1164.8709	1201.4416	1212.3501	1246.7815	1254.5501	1259.321	1262.7797	1276.9368	1293.5935	1314.8495	1323.6537	1372.2881	1453.2516	1478.7549	1486.3474	1510.0071	1517.435	3025.1962	3042.4245	3046.0096	3057.0988	3069.9511	3072.9783	3095.3695	3100.3286	3109.8856	3117.3709	3172.1488	3202.0555
C1CC(C1)C1C2COC12	C1CC(C1)[C@H]1[C@H]2CO[C@@H]12	
InChI=1S/C8H12O/c1-2-5(3-1)7-6-4-9-8(6)7/h5-8H,1-4H2	InChI=1S/C8H12O/c1-2-5(3-1)7-6-4-9-8(6)7/h5-8H,1-4H2/t6-,7+,8-/m1/s1
