20
gdb 22311	3.23094	1.08539	0.86708	0.37	79.74	-0.2363	0.0099	0.2462	1350.4379	0.171073	-440.263135	-440.254265	-440.253321	-440.296547	34.077	
C	-0.0206651353	 1.5045266076	 0.0303027862	-0.402876
C	 0.0251821199	-0.0146475209	-0.0088929791	 0.134901
C	 0.7509839485	-0.5593705384	-1.2566224552	-0.275293
C	 0.9184763733	-2.051130948	-1.1516742152	 0.363136
C	 1.4611469879	-2.5443048659	 0.1631402443	-0.302586
C	 0.6979730538	-1.8570858389	 1.310542655	-0.081781
O	 0.6879011928	-0.449642676	 1.1733312741	-0.25641
N	 0.5526854105	-2.759274536	-2.149711999	-0.201907
O	 0.7486039773	-4.136127689	-1.9360639548	-0.398068
H	 0.9935160161	 1.9159514788	 0.0393402161	 0.123981
H	-0.5476901457	 1.8960090874	-0.8448342847	 0.116835
H	-0.5369276562	 1.8455940052	 0.9314148922	 0.124714
H	-1.0040654244	-0.415096312	-0.007108423	 0.070346
H	 0.2066124786	-0.3075214995	-2.1703424195	 0.113463
H	 1.740219871	-0.0828479342	-1.3029180987	 0.109409
H	 1.3830663392	-3.629369738	 0.2388981528	 0.132441
H	 2.5217374982	-2.2712861994	 0.2368315569	 0.119693
H	-0.3342368198	-2.2432722548	 1.3469863749	 0.095111
H	 1.1731785047	-2.0709187941	 2.2719160303	 0.109508
H	 0.4185036997	-4.5121011939	-2.7584350735	 0.305382
82.0626	126.605	214.551	229.3598	295.236	316.4486	321.411	358.1157	406.489	434.886	488.5844	518.0361	603.6553	692.949	791.0435	827.1536	861.3838	899.5444	940.2467	971.9643	985.8501	1049.6308	1082.0753	1113.8286	1136.9863	1156.0801	1207.552	1237.1499	1266.1272	1283.1413	1304.7773	1340.6018	1373.9585	1385.5974	1408.818	1408.9421	1417.534	1460.1936	1472.8375	1483.5836	1496.308	1503.3715	1738.8899	2947.2532	2970.301	3014.9493	3033.1082	3042.5652	3088.4181	3103.0343	3116.6614	3123.5225	3133.2524	3825.5233
CC1CC(CCO1)=NO	C[C@H]1CC(=NO)CCO1	
InChI=1S/C6H11NO2/c1-5-4-6(7-8)2-3-9-5/h5,8H,2-4H2,1H3	InChI=1S/C6H11NO2/c1-5-4-6(7-8)2-3-9-5/h5,8H,2-4H2,1H3/t5-/m0/s1
