20
gdb 69521	2.47194	1.62513	1.32163	1.2677	78.47	-0.2404	0.0742	0.3145	1080.9072	0.168745	-403.096495	-403.087296	-403.086351	-403.129658	35.125	
C	-0.0166453514	 1.5269083471	 0.0465918425	-0.489689
C	-0.0397383679	 0.02907043	 0.0644588033	 0.268467
N	 1.1592819491	-0.7359739145	-0.3167561182	-0.409131
C	 0.5901140692	-0.9569624075	 1.0217119365	 0.21473
C	 1.425182489	-0.7339391494	 2.2454759766	-0.498068
C	-0.6631560814	-1.8359172304	 0.920440309	 0.363137
C	-0.7724311274	-3.3230878041	 1.0315768033	-0.50854
O	-1.7889312369	-1.0344172734	 1.3320287543	-0.288943
C	-1.2734679017	-0.8634883703	-0.0035819743	-0.136641
H	 0.96102465	 1.9014986402	 0.3606392858	 0.131431
H	-0.2118530347	 1.912832796	-0.9606015214	 0.121582
H	-0.7811698552	 1.9288772898	 0.7188335865	 0.131073
H	 0.9463116073	-1.4953452791	-0.9616045644	 0.22188
H	 2.1005548056	 0.113539192	 2.1024432247	 0.132804
H	 0.7867789538	-0.5328243541	 3.1116042387	 0.130701
H	 2.0400479347	-1.6129125874	 2.4714979817	 0.121204
H	-0.6523198709	-3.6449392835	 2.0720137729	 0.134315
H	-1.750859576	-3.6636507686	 0.6834093593	 0.136599
H	 0.0046469977	-3.815919108	 0.4378024581	 0.124418
H	-1.9671754129	-1.0223403549	-0.8227778548	 0.09867
150.3038	177.7785	186.9693	193.2664	199.1865	213.4365	234.2038	312.097	436.9679	467.7487	523.5878	581.4101	613.5964	649.8265	719.6697	765.2669	815.6934	851.3519	894.6283	960.4464	990.9406	1018.0903	1055.2487	1083.7133	1097.0386	1105.9223	1143.1398	1167.689	1193.3138	1211.2075	1266.4614	1332.0325	1401.4564	1406.2229	1413.5638	1438.1973	1474.1071	1482.8332	1484.5092	1489.9145	1492.1473	1496.1413	1498.7717	3031.6927	3033.4149	3034.8461	3093.7897	3095.0671	3095.427	3119.963	3121.6368	3121.9158	3173.5996	3458.9159
CC12NC1(C)C1(C)OC21	C[C@@]12N[C@]1(C)[C@@]1(C)O[C@@H]21	
InChI=1S/C7H11NO/c1-5-4-6(2,9-4)7(5,3)8-5/h4,8H,1-3H3	InChI=1S/C7H11NO/c1-5-4-6(2,9-4)7(5,3)8-5/h4,8H,1-3H3/t4-,5-,6-,7-/m0/s1
