18
gdb 41248	2.9747	2.12692	1.71955	0.8186	74.03	-0.2218	0.0593	0.2811	846.9817	0.150765	-401.830065	-401.824085	-401.823141	-401.859974	26.197	
C	 0.0302384574	 1.4821992465	-0.2384266902	-0.155684
O	 1.4381636756	 1.578636569	 0.1727992986	-0.354525
C	 1.2941217871	 0.3429270416	 0.8721779252	 0.431047
C	 1.998015811	-1.0114176969	 1.0195014253	-0.327128
C	 0.7349825591	-1.2528471297	 1.9104051419	 0.001372
C	 0.7586775198	 0.2265874894	 2.3605661335	-0.110426
C	-0.7634051724	 0.2005404303	 2.3177548	-0.195289
N	-0.6544060083	-0.8232808004	 1.2106397444	-0.189912
C	 0.0272698675	-0.0303525398	 0.1462311444	-0.019989
H	-0.6001846981	 2.1582075716	 0.3458496312	 0.114677
H	-0.0854757395	 1.6947394189	-1.3043314313	 0.116123
H	 2.1786265812	-1.5995804865	 0.1170180953	 0.109733
H	 2.8726248093	-1.0305149678	 1.677516121	 0.111509
H	 0.6248694796	-2.1051343526	 2.575015782	 0.09452
H	 1.3850130642	 0.6062666305	 3.1678429638	 0.075485
H	-1.1931563207	-0.2710014762	 3.2063089261	 0.108343
H	-1.3455067511	 1.0916189634	 2.0702825896	 0.103109
H	 0.1698904882	-0.6533457711	-0.737966871	 0.087035
230.8605	326.9739	404.4735	439.1714	479.9612	555.6732	638.1887	689.7914	731.4135	763.1598	815.1682	849.2812	883.0242	899.3622	922.3433	935.3506	973.4181	992.5912	1013.5463	1023.1387	1040.0211	1054.0499	1109.7113	1119.5249	1145.564	1160.0408	1172.3613	1193.7913	1205.4133	1212.7366	1250.835	1265.23	1288.8726	1298.9286	1331.6051	1366.1476	1494.5532	1499.6978	1528.3472	3050.252	3054.1007	3058.3922	3090.6879	3104.4299	3114.4282	3116.7023	3120.0634	3165.0239
C1OC23CC4C2CN4C13	C1O[C@@]23C[C@H]4[C@@H]2CN4[C@@H]13	
InChI=1S/C7H9NO/c1-5-4-2-8(5)6-3-9-7(1,4)6/h4-6H,1-3H2	InChI=1S/C7H9NO/c1-5-4-2-8(5)6-3-9-7(1,4)6/h4-6H,1-3H2/t4-,5-,6-,7-/m0/s1
