20
gdb 102120	2.3894	1.23697	0.97818	4.9264	76.12	-0.2386	0.0175	0.2561	1288.9757	0.170692	-440.280711	-440.271301	-440.270356	-440.315759	33.514	
C	-0.1393071589	 1.5929812374	 0.2905540094	-0.372422
C	-0.0425245141	 0.1082628616	-0.0703116389	-0.179908
N	-1.3380570847	-0.5627743256	-0.1460058742	-0.042049
C	-1.872739844	-0.8894905692	-1.3579907353	 0.145143
O	-2.9532889782	-1.4138468827	-1.5359623269	-0.344765
C	-2.0534843	-0.8348522522	 1.0873356626	-0.002565
C	-3.5126735053	-0.3592387897	 1.2993572965	-0.090481
O	-3.8698470456	-1.6479716389	 1.8377411719	-0.271607
C	-2.635906992	-2.2406375357	 1.3833794562	-0.094861
H	 0.8600819058	 2.0360435989	 0.3435514484	 0.124507
H	-0.7198800574	 2.1377905331	-0.459882653	 0.130329
H	-0.6210689742	 1.7383694686	 1.2626013925	 0.127749
H	 0.4460426329	-0.0054129858	-1.0429090787	 0.121582
H	 0.5860556467	-0.4177211445	 0.6585975308	 0.11738
H	-1.1946104186	-0.6218623913	-2.1927034659	 0.079256
H	-1.4141371973	-0.5023944708	 1.9063554271	 0.097259
H	-3.666836331	 0.4488549302	 2.0239145633	 0.095682
H	-4.0450861916	-0.1400038262	 0.3693663749	 0.130404
H	-2.7792982273	-2.858394501	 0.4928897239	 0.132759
H	-2.141383905	-2.8194158965	 2.1718919852	 0.096607
63.4655	76.6065	96.7782	155.3588	219.0073	246.5661	261.452	335.4306	385.6705	428.7637	479.7352	613.2791	703.3513	794.9263	881.0151	893.3986	938.026	974.0033	1020.0001	1028.7067	1038.8046	1064.9375	1101.8189	1126.2707	1131.7881	1160.7708	1176.575	1228.2388	1261.6362	1289.1193	1311.4882	1359.0107	1391.0797	1402.1887	1411.4896	1437.2314	1466.9665	1490.9395	1494.0277	1499.9586	1508.2539	1527.2608	1786.0169	2929.746	3027.4894	3030.7104	3035.6483	3039.2315	3079.5549	3086.5042	3095.5992	3108.0561	3112.4943	3118.6346
CCN(C=O)C1COC1	CCN(C=O)C1COC1	
InChI=1S/C6H11NO2/c1-2-7(5-8)6-3-9-4-6/h5-6H,2-4H2,1H3	InChI=1S/C6H11NO2/c1-2-7(5-8)6-3-9-4-6/h5-6H,2-4H2,1H3
