20
gdb 119897	4.284	0.845	0.73043	2.0005	77.11	-0.2415	0.0318	0.2733	1555.9495	0.171715	-440.301808	-440.292578	-440.291633	-440.336732	33.353	
O	-0.2189725237	 1.4996424042	 0.0654218291	-0.425754
C	 0.0229952898	 0.097933528	 0.0520834899	-0.073929
C	-1.3347257522	-0.5816099823	-0.0472539209	-0.268036
C	-1.2609949442	-2.0834421667	-0.0693981263	 0.403489
N	-0.15686657	-2.7076976993	-0.0818377825	-0.320401
C	-0.1595751167	-4.1660282791	-0.0463922342	-0.151759
C	-1.4849845236	-4.7538013657	 0.4460798729	-0.231988
C	-2.6178481697	-4.0277620709	-0.2652203151	-0.069197
O	-2.5193500769	-2.6115040632	-0.0709790737	-0.26133
H	 0.6313439555	 1.9451427216	 0.1143506682	 0.284825
H	 0.6503614437	-0.199679766	-0.79884633	 0.100876
H	 0.5387533077	-0.2348591905	 0.9635600563	 0.097228
H	-1.9672433378	-0.2725045429	 0.7932895587	 0.128716
H	-1.8545605661	-0.2375925824	-0.9496148897	 0.127785
H	 0.0728620275	-4.5405880475	-1.0532112301	 0.108152
H	 0.6688202546	-4.4898407702	 0.5936166508	 0.108876
H	-1.5448621145	-5.8300020593	 0.2539492701	 0.102993
H	-1.5838456921	-4.603632238	 1.5271676442	 0.114217
H	-2.5929420098	-4.2351185774	-1.343817982	 0.109017
H	-3.6028021113	-4.3107990225	 0.1139966844	 0.116221
48.2659	82.5076	137.3294	140.7025	213.7062	260.7099	311.7292	335.5226	398.6834	507.3491	515.4918	613.082	714.0452	803.7373	833.8644	881.9619	893.5976	936.7941	966.3333	1032.801	1062.5671	1083.346	1089.4114	1127.66	1153.0734	1182.9042	1208.948	1230.4515	1249.1638	1259.1948	1297.3616	1303.4691	1345.722	1368.0946	1386.5147	1416.239	1460.2461	1473.4891	1479.9083	1490.8266	1512.2494	1521.6709	1748.5651	3001.975	3008.5085	3015.9259	3032.1153	3039.1153	3041.5127	3056.0756	3076.8709	3088.5528	3098.4847	3835.9584
OCCC1=NCCCO1	OCCC1=NCCCO1	
InChI=1S/C6H11NO2/c8-4-2-6-7-3-1-5-9-6/h8H,1-5H2	InChI=1S/C6H11NO2/c8-4-2-6-7-3-1-5-9-6/h8H,1-5H2
