19
gdb 76891	2.35078	1.83635	1.55056	2.028	68.73	-0.2434	0.0467	0.2901	951.7488	0.162244	-460.170121	-460.162596	-460.161652	-460.201923	30.466	
O	 0.0178808756	 1.4337228041	 0.2125225609	-0.441519
C	-0.0428422693	 0.0380320645	 0.057348968	 0.109171
C	-1.458019149	-0.5591920816	-0.1721221871	 0.045311
C	-2.2044050789	 0.2382879063	-1.2561369707	-0.229024
C	-1.4808711427	-0.2542167639	-2.5457101591	-0.227988
C	-0.4479007266	-1.2333550849	-1.9515660721	 0.062872
O	-1.1298320035	-1.7989931675	-0.8251950221	-0.267334
C	 0.6886370043	-0.457387948	-1.2516956932	 0.040487
O	 1.1553400043	 0.635121399	-2.0394531962	-0.424488
H	 0.3231236006	 1.7763360443	-0.6410416056	 0.282864
H	 0.4012657616	-0.4263629264	 0.9437643602	 0.079092
H	-2.0204047805	-0.764721021	 0.7382595866	 0.076193
H	-3.2651532899	-0.0200133782	-1.2648281451	 0.101502
H	-2.1128662807	 1.3130787028	-1.0909301072	 0.113253
H	-2.1625284126	-0.7894857424	-3.2099974144	 0.102742
H	-1.0086402611	 0.5487977719	-3.1129339709	 0.119786
H	-0.1140377345	-2.0285210164	-2.6178775091	 0.075892
H	 1.5155122365	-1.1323479988	-1.0142233812	 0.081768
H	 2.0758543465	 0.7999838665	-1.8153430615	 0.299419
91.2671	200.056	265.5149	272.2902	319.7698	433.2803	509.4219	521.932	544.807	571.9607	659.7229	742.598	804.1485	830.1191	837.9791	852.8223	899.1286	954.1358	993.0314	1004.6657	1044.0445	1045.1709	1062.4431	1111.7555	1124.3788	1146.6547	1201.1909	1216.7478	1238.1378	1261.5377	1278.446	1304.7844	1314.802	1320.8596	1344.6939	1351.9153	1371.6396	1423.0925	1436.8687	1486.4871	1507.5771	3044.5275	3065.9148	3074.0248	3082.6668	3119.101	3122.8059	3126.064	3138.5716	3703.9044	3837.5536
OC1C2CCC(O2)C1O	O[C@H]1[C@H]2CC[C@H](O2)[C@H]1O	
InChI=1S/C6H10O3/c7-5-3-1-2-4(9-3)6(5)8/h3-8H,1-2H2	InChI=1S/C6H10O3/c7-5-3-1-2-4(9-3)6(5)8/h3-8H,1-2H2/t3-,4+,5+,6-
