21
gdb 63470	2.71758	1.29383	1.04731	2.6623	78.76	-0.2474	0.0696	0.317	1226.6063	0.179375	-424.188849	-424.178877	-424.177933	-424.223452	37.508	
C	-0.0595383421	 1.3678746222	-0.3321189618	-0.44967
C	 0.1346750432	-0.0758306378	 0.0735496921	 0.367758
O	-0.8893542352	-0.9209658783	-0.3990623713	-0.46035
C	 1.5142881761	-0.6851619479	 0.1857484862	-0.403755
C	 0.6601967866	-0.4858632413	 1.4295977187	 0.246359
C	 1.0833596434	 0.5601933888	 2.4474076468	-0.46612
C	-0.0044585001	-1.6657762143	 2.0859499422	 0.049796
C	 0.3535090661	-3.0689940685	 1.8718384302	-0.168867
O	 0.7831155816	-2.3844632136	 3.0489271529	-0.250703
H	 0.7340983121	 2.0161701794	 0.045411234	 0.120516
H	-0.0585917305	 1.453726156	-1.4261056876	 0.108165
H	-1.0208719174	 1.7448933848	 0.031509666	 0.126998
H	-0.8141916744	-0.9662175639	-1.3587388828	 0.280336
H	 1.6403631219	-1.6888957594	-0.2032726669	 0.109619
H	 2.3802023182	-0.0413784858	 0.0662429909	 0.106769
H	 1.6235832241	 1.391256711	 1.9880293528	 0.111679
H	 0.2173198302	 0.9733164889	 2.9777017516	 0.11671
H	 1.7406776567	 0.098171628	 3.1899522427	 0.141148
H	-1.0201445051	-1.4647801695	 2.4317614771	 0.094881
H	-0.3998906087	-3.8414623348	 2.0240226325	 0.109437
H	 1.1449755233	-3.3308723041	 1.1730741037	 0.109294
49.2537	140.9939	170.3455	189.2237	202.8141	265.4653	284.1444	294.8841	316.9739	393.3659	402.7904	453.5562	502.1888	563.2723	671.8233	730.1107	848.6188	859.5322	901.4776	916.7474	948.8969	972.5869	1008.3919	1025.2564	1046.0361	1082.5467	1094.7924	1112.9323	1160.1424	1171.0822	1187.1639	1220.0601	1281.7982	1298.203	1317.3627	1400.4302	1410.9207	1421.437	1437.8122	1477.9941	1482.7242	1492.0051	1499.4399	1516.4664	1529.3616	3025.698	3033.5404	3084.5185	3087.7444	3092.1089	3098.7373	3118.4857	3126.5728	3130.9487	3173.0671	3219.0286	3792.4379
CC1(O)CC1(C)C1CO1	C[C@@]1(O)C[C@]1(C)[C@H]1CO1	
InChI=1S/C7H12O2/c1-6(5-3-9-5)4-7(6,2)8/h5,8H,3-4H2,1-2H3	InChI=1S/C7H12O2/c1-6(5-3-9-5)4-7(6,2)8/h5,8H,3-4H2,1-2H3/t5-,6-,7-/m1/s1
