20
gdb 31023	2.33317	1.31797	0.89685	1.4115	83.87	-0.2158	0.0168	0.2326	1365.1663	0.169823	-403.213944	-403.204099	-403.203155	-403.249157	34.978	
C	-0.0171167631	 1.6354469369	-0.3183386262	-0.366453
C	-0.0061039672	 0.1584042444	 0.1075532152	-0.296974
C	-1.3750731988	-0.4417047923	 0.1539649161	 0.175224
C	-2.0803098401	-0.9386024732	 1.2022823053	 0.2422
C	-1.8347442755	-1.1111858067	 2.6559679229	-0.49823
O	-3.2977663272	-1.3643126206	 0.7168856552	-0.21132
C	-3.2591221147	-1.0957390599	-0.6138393274	 0.368132
C	-4.4527925559	-1.4513875383	-1.4246876064	-0.489704
N	-2.1522110316	-0.5519813326	-1.0032617559	-0.346756
H	 1.0015595513	 2.0284077831	-0.3932166809	 0.107326
H	-0.5026574786	 1.7459636098	-1.2915626445	 0.138621
H	-0.5673879919	 2.2476978012	 0.4033417139	 0.112398
H	 0.6062918879	-0.4130613829	-0.6012678603	 0.114907
H	 0.4728275211	 0.0539570042	 1.0873420568	 0.096898
H	-2.5667625384	-0.5598608393	 3.2574734806	 0.138173
H	-1.8941066694	-2.1646604663	 2.9530500742	 0.138233
H	-0.8393075796	-0.7424636324	 2.912872078	 0.138312
H	-5.3442141676	-0.9239989773	-1.0688729094	 0.142307
H	-4.2685140658	-1.1776388904	-2.4637343902	 0.154335
H	-4.6629480246	-2.5247560174	-1.369620177	 0.142371
56.3725	102.4925	129.9043	140.5625	191.8961	203.6797	253.3805	273.9614	298.0522	405.8153	481.2504	604.7454	633.0559	672.6632	722.0302	778.9182	804.3438	943.6242	976.7399	1012.7376	1029.118	1062.0502	1068.6621	1073.6736	1086.7983	1154.751	1215.39	1294.4873	1304.2974	1350.1688	1375.2306	1405.499	1410.0341	1423.799	1472.2856	1476.152	1477.5195	1482.0857	1492.1742	1495.3628	1509.0913	1631.7422	1682.9165	3026.2814	3028.2775	3037.8325	3041.3265	3067.0637	3076.6475	3094.2239	3106.1473	3122.7232	3127.9754	3155.7662
CCC1=C(C)OC(C)=N1	CCc1c(C)oc(C)n1	
InChI=1S/C7H11NO/c1-4-7-5(2)9-6(3)8-7/h4H2,1-3H3	InChI=1S/C7H11NO/c1-4-7-5(2)9-6(3)8-7/h4H2,1-3H3
