25
gdb 117653	2.56475	0.89917	0.811	2.6149	84.89	-0.2588	0.0674	0.3262	1575.4246	0.225652	-426.624344	-426.612545	-426.611601	-426.660818	43.787	
C	 0.1965471208	 1.484128496	-0.0607353836	-0.434456
C	-0.0462330312	-0.0212827154	 0.0774783474	 0.135143
O	 0.6190454239	-0.5179740018	 1.2394784368	-0.438732
C	-1.5400331543	-0.4792639881	 0.0331261339	 0.24888
C	-2.2911694442	 0.0117929559	 1.2858273921	-0.440832
C	-2.2129690339	 0.0894293269	-1.2310406978	-0.426874
C	-1.5181541643	-2.0281097506	-0.0259000105	-0.181083
C	-2.8540579657	-2.746488797	 0.1380767928	-0.103601
O	-2.609521087	-4.1291359378	-0.0923182885	-0.419564
H	 1.2694703786	 1.6784803597	 0.0212593648	 0.12544
H	-0.1463171363	 1.8711009666	-1.0232777867	 0.122299
H	-0.3082446732	 2.0534524231	 0.7287423232	 0.109341
H	 0.4620119196	-0.5239769779	-0.7555292586	 0.084535
H	 0.3451821963	 0.0233631451	 1.9871466804	 0.277933
H	-2.2382841746	 1.1009018912	 1.3870458779	 0.108617
H	-3.352487677	-0.2488915785	 1.2368685076	 0.117815
H	-1.8867210338	-0.4382927651	 2.1986895281	 0.11169
H	-1.627662861	-0.1430066799	-2.1281580688	 0.11245
H	-3.2115525085	-0.3345325883	-1.3721603507	 0.113012
H	-2.3298940629	 1.1757523859	-1.1764704202	 0.111733
H	-1.0980694628	-2.3395071228	-0.9909174084	 0.096842
H	-0.8353813784	-2.3979850073	 0.7443358495	 0.121837
H	-3.2563155938	-2.5859666956	 1.1497885875	 0.084104
H	-3.6008879865	-2.3610282572	-0.5743221019	 0.080696
H	-3.43315253	-4.6050950472	 0.0477361634	 0.282773
72.2675	85.8967	107.1725	149.0974	219.8376	242.7836	255.4176	267.5562	290.7784	301.6461	308.753	328.9322	349.6253	362.6796	390.8281	478.352	500.112	592.531	731.3573	798.2572	841.8434	924.2144	942.8064	964.3186	996.7396	1017.8669	1021.4606	1064.7532	1071.8447	1085.2096	1117.3903	1193.5403	1207.6893	1240.2723	1262.9158	1271.0486	1302.4409	1327.263	1352.1599	1369.6553	1400.0242	1402.2966	1420.4238	1426.048	1460.7617	1486.422	1490.9489	1493.6102	1496.2771	1508.482	1514.6414	1515.5834	1530.8161	2967.9051	2996.3533	3024.0589	3029.2256	3030.404	3036.0968	3038.0122	3094.9123	3097.1574	3098.0418	3102.7362	3105.374	3106.5441	3126.4038	3811.7403	3828.9857
CC(O)C(C)(C)CCO	C[C@@H](O)C(C)(C)CCO	
InChI=1S/C7H16O2/c1-6(9)7(2,3)4-5-8/h6,8-9H,4-5H2,1-3H3	InChI=1S/C7H16O2/c1-6(9)7(2,3)4-5-8/h6,8-9H,4-5H2,1-3H3/t6-/m1/s1
