16
gdb 42194	3.21687	1.321	1.03384	2.8992	77.49	-0.2558	-0.0568	0.1989	1140.1091	0.123249	-400.683709	-400.675453	-400.674509	-400.717022	30.697	
O	 0.7409897372	 1.5065338044	 1.7220197832	-0.3032
C	 0.2579733185	 1.7632212115	 0.6360572382	 0.155028
C	 0.964545485	 1.4788275602	-0.6011643908	 0.285455
C	 1.5773674901	 1.2142184565	-1.6022388354	-0.437242
C	-1.0970739666	 2.349390255	 0.5141568076	 0.250613
C	-2.0270357258	 2.6604095307	 1.6935353247	-0.306644
C	-3.2416476263	 2.1681752034	 0.8392308066	-0.238187
C	-2.2833619084	 1.8733606785	-0.3237074099	-0.083625
N	-1.5102908189	 3.0284292705	-0.7123014194	-0.352221
H	 2.1200549353	 0.9866963066	-2.4872856457	 0.211702
H	-1.8275089309	 2.0215166123	 2.5540995598	 0.137282
H	-2.031187164	 3.7044406615	 2.0210057562	 0.105061
H	-3.7034070136	 1.269580882	 1.2529642082	 0.120122
H	-4.027981327	 2.8966074575	 0.6165194753	 0.106405
H	-2.3264791549	 1.038605565	-1.0139778746	 0.115014
H	-1.9757506797	 3.9129843844	-0.514218564	 0.234436
52.7152	123.9886	149.2796	234.3413	254.2009	325.4453	415.2956	474.4238	499.0788	644.0314	666.8191	703.5057	730.4995	759.4869	781.8798	830.8273	878.5231	936.1514	949.9688	1012.2327	1054.244	1060.8203	1081.8536	1136.8782	1160.9669	1211.3058	1226.6047	1256.2774	1296.477	1317.8032	1430.3732	1479.3665	1497.6481	1740.6667	2216.511	3051.6019	3062.5356	3114.3054	3139.6656	3185.3333	3460.4128	3495.576
O=C(C#C)C12CCC1N2	O=C(C#C)[C@]12CC[C@H]1N2	
InChI=1S/C7H7NO/c1-2-6(9)7-4-3-5(7)8-7/h1,5,8H,3-4H2	InChI=1S/C7H7NO/c1-2-6(9)7-4-3-5(7)8-7/h1,5,8H,3-4H2/t5-,7+/m1/s1
