20
gdb 106760	2.03555	1.54189	1.08856	2.2518	75.85	-0.224	0.0649	0.2889	1191.1621	0.16933	-440.235244	-440.225498	-440.224554	-440.270187	36.155	
C	-0.1303445585	 1.5129377254	 0.089308543	-0.508338
C	 0.1432702711	 0.0421990341	 0.0224873747	 0.279499
C	 0.6805661409	-0.7429380571	-1.1841191786	-0.30203
C	 1.3607374039	-1.7434603095	-0.1827979792	 0.080691
O	 2.7737112544	-1.7063217384	-0.1716080043	-0.444477
C	 0.8101477904	-0.8993490477	 0.9759563947	 0.265772
C	 1.4640140182	-0.6847234015	 2.3043102037	-0.206775
O	 1.266033116	-1.7630035577	 3.2130760178	-0.412427
N	-0.6623178634	-0.9446032827	 0.7877248393	-0.41083
H	 0.7074702512	 2.0891337256	-0.317419086	 0.126448
H	-1.025434802	 1.7708854209	-0.4894490233	 0.129604
H	-0.2967033531	 1.8412729467	 1.1210148704	 0.119439
H	-0.0715532322	-1.1443439663	-1.8683404669	 0.098701
H	 1.4473872534	-0.1923398236	-1.7357984058	 0.098516
H	 0.9801120831	-2.7726528603	-0.2186374246	 0.07147
H	 3.0927255579	-2.1212274273	-0.9792164451	 0.286678
H	 2.5335484557	-0.4878322689	 2.1471786297	 0.11267
H	 1.0318996609	 0.1965050773	 2.7922523476	 0.101165
H	 1.7115387285	-2.5332311046	 2.8455656574	 0.288965
H	-1.0747239965	-0.4569252543	 1.5842975055	 0.225261
33.6092	120.5696	145.1097	193.123	230.1529	254.9781	286.0357	311.1188	341.0296	431.4707	450.1129	493.0424	511.6817	606.3028	726.0398	762.4083	832.4419	879.666	935.8977	942.9118	979.0403	1017.3646	1051.9242	1068.3512	1077.185	1125.9484	1137.9785	1180.9317	1195.936	1217.7015	1230.7087	1279.705	1331.0935	1351.6683	1386.5055	1402.9485	1411.704	1422.9546	1447.654	1478.7979	1486.9067	1490.6506	1502.0955	3010.7377	3013.7975	3023.307	3054.9459	3065.071	3084.3703	3097.6958	3118.4537	3457.4867	3818.2139	3819.8245
CC12CC(O)C1(CO)N2	C[C@@]12C[C@@H](O)[C@]1(CO)N2	
InChI=1S/C6H11NO2/c1-5-2-4(9)6(5,3-8)7-5/h4,7-9H,2-3H2,1H3	InChI=1S/C6H11NO2/c1-5-2-4(9)6(5,3-8)7-5/h4,7-9H,2-3H2,1H3/t4-,5-,6+/m1/s1
