18
gdb 40424	3.49528	1.32781	1.17161	1.5109	76.82	-0.2249	0.0065	0.2314	1092.8501	0.148416	-401.89928	-401.891789	-401.890845	-401.931509	29.317	
C	 0.3206067541	 1.4688897536	 0.0298929884	-0.187379
O	 1.0067455819	 0.318493755	-0.4740838895	-0.239487
C	-0.3209246458	 0.1488850734	 0.0341771138	-0.016442
C	-0.4473366325	-0.6726024822	 1.2762345283	 0.331744
C	-1.1518884367	-1.9900626931	 1.2723322374	-0.282952
N	-1.7984297909	-0.8236634521	 1.8812210231	-0.148027
C	-1.6151374787	-0.7151780392	 3.3476928339	-0.214256
C	-0.1273964107	-0.5447510786	 3.5688065096	-0.094724
C	 0.516954207	-0.4966082213	 2.4035934222	-0.162058
H	 0.712818262	 1.8756272796	 0.9604550181	 0.116141
H	 0.031476352	 2.204988034	-0.7184870703	 0.117829
H	-1.0750542675	-0.0581286945	-0.7252303954	 0.09403
H	-1.6392879334	-2.3471035562	 0.367835535	 0.115152
H	-0.7498668076	-2.7675131102	 1.9185151048	 0.113682
H	-2.1862082759	 0.1461302934	 3.7192440368	 0.116527
H	-2.0236819655	-1.6036000605	 3.8461503664	 0.11659
H	 0.3255702545	-0.4951484683	 4.552209373	 0.103928
H	 1.5801708335	-0.3716796128	 2.2463771643	 0.119701
67.6679	164.7964	183.213	295.6995	369.608	379.6969	481.4563	528.0507	635.6225	739.2038	758.8342	777.4222	824.0001	854.4241	884.9546	924.2824	926.5027	961.8504	967.3293	1005.2618	1013.0292	1050.7103	1098.5087	1107.7309	1118.5852	1148.2229	1155.6518	1171.1977	1217.1761	1256.565	1291.3877	1306.5101	1340.3703	1378.2704	1448.3231	1484.5022	1498.7844	1526.9022	1669.4172	3013.0049	3045.1188	3087.4521	3091.822	3112.2808	3176.3623	3181.0469	3197.6521	3230.7914
C1OC1C12CN1CC=C2	C1O[C@H]1[C@]12CN1CC=C2	
InChI=1S/C7H9NO/c1-2-7(6-4-9-6)5-8(7)3-1/h1-2,6H,3-5H2	InChI=1S/C7H9NO/c1-2-7(6-4-9-6)5-8(7)3-1/h1-2,6H,3-5H2/t6-,7+,8?/m1/s1
