18
gdb 10413	2.60185	1.99709	1.43541	0.9857	73.68	-0.253	0.0357	0.2888	951.589	0.151791	-347.748112	-347.739544	-347.7386	-347.780892	31.848	
C	-0.0995176389	 1.5456987946	-0.0542478829	-0.255795
O	-0.2366934972	 0.1371589956	-0.066407061	-0.270517
C	 0.5904726061	-0.5305798266	-0.992951846	 0.248985
C	 2.1293540013	-0.5737099464	-0.6800443677	-0.27018
C	 2.1017744377	-2.1001796403	-0.9546832105	-0.214655
C	 0.5602398346	-2.0727124103	-0.7885747236	-0.268
C	 0.3107216575	-0.1349057698	-2.3749619633	 0.325642
C	 0.0849265073	 0.1877976949	-3.5114995146	-0.508982
H	 0.9270508289	 1.8523183706	 0.1945245071	 0.106571
H	-0.3728551264	 1.9898398158	-1.0201641692	 0.121184
H	-0.7757794445	 1.9191602177	 0.7177811193	 0.126867
H	 2.7887911847	 0.0494582721	-1.2857536744	 0.106077
H	 2.2820316926	-0.3533031083	 0.3799866829	 0.110378
H	 2.3981519568	-2.3342342086	-1.9796864582	 0.1147
H	 2.6652817391	-2.7389669185	-0.2727463667	 0.103266
H	 0.2509895874	-2.2783651371	 0.2388661305	 0.116131
H	-0.0511965284	-2.6533447473	-1.4801035069	 0.110434
H	-0.1193860685	 0.4695855418	-4.514992685	 0.197894
112.8582	114.7528	169.7066	184.7985	191.2912	268.0232	399.3109	420.5828	496.1893	558.8667	613.0565	644.9453	668.2446	690.618	797.6915	854.3663	905.4843	937.5411	960.3272	1043.6404	1044.1186	1068.7927	1163.4894	1184.4672	1187.9933	1203.4274	1228.8485	1248.4007	1277.575	1281.0418	1284.1669	1465.85	1475.4784	1482.5988	1486.2903	1502.4009	1510.9714	2224.0975	2993.325	3052.6746	3064.8654	3073.1873	3076.9778	3118.3928	3121.9603	3132.6319	3142.3186	3499.7731
COC1(CCC1)C#C	COC1(CCC1)C#C	
InChI=1S/C7H10O/c1-3-7(8-2)5-4-6-7/h1H,4-6H2,2H3	InChI=1S/C7H10O/c1-3-7(8-2)5-4-6-7/h1H,4-6H2,2H3
