21
gdb 110451	2.8007	1.33282	1.07592	1.7745	81.18	-0.2414	0.083	0.3245	1205.4849	0.183004	-387.036805	-387.028429	-387.027485	-387.069723	33.22	
C	-0.2013212372	 1.5056567826	-0.0160220377	-0.37772
C	 0.0348672285	-0.0070404772	 0.0539921237	-0.211621
C	 0.6598776887	-0.5683745776	-1.2210922701	 0.033179
C	 0.7865484391	-2.0784028827	-1.453622155	-0.096287
C	-0.5034409684	-2.5722049337	-2.1204777512	-0.109789
C	 0.5990988525	-1.9247342629	-2.940650086	-0.12085
C	-0.108803112	-0.5500012909	-2.579140719	-0.118617
C	-1.4129713056	-1.3635220636	-2.3337133773	 0.159396
O	-2.2478908651	-1.4721499591	-3.4678259036	-0.450254
H	 0.7347826188	 2.0445696006	-0.201168969	 0.112837
H	-0.8942601653	 1.7615745078	-0.8248207755	 0.120813
H	-0.6257993086	 1.8874460721	 0.9174630326	 0.112225
H	 0.7015966139	-0.2363858043	 0.8958800467	 0.091853
H	-0.9081477525	-0.5202862493	 0.2730255204	 0.101212
H	 1.6452661293	-0.1095232745	-1.3748068204	 0.068172
H	 1.438964791	-2.777921146	-0.9442437609	 0.084147
H	-0.7897960485	-3.6164826907	-2.0894815737	 0.086974
H	 1.1957776438	-2.27015008	-3.7720140518	 0.090896
H	-0.150661521	 0.3413892281	-3.2026318975	 0.070318
H	-2.0734848915	-1.0408342862	-1.523834791	 0.077187
H	-1.71376169	-1.8400316724	-4.1824538037	 0.275928
73.9126	158.0773	182.8483	230.7221	277.8962	313.2202	371.183	409.8989	534.7682	548.0936	685.5495	773.6896	794.7196	803.4859	815.8021	835.8491	886.8447	912.9954	933.0522	948.4731	1000.6402	1005.7428	1024.9204	1030.9567	1038.2426	1053.0175	1100.1053	1128.415	1146.228	1160.8439	1174.1124	1189.4988	1240.6141	1273.7761	1279.0534	1287.4066	1317.6244	1343.0908	1364.0112	1405.4345	1414.6491	1441.03	1493.7279	1499.5088	1510.3985	3017.8986	3022.9244	3030.7887	3059.2441	3075.0482	3097.517	3103.6927	3134.0197	3179.741	3191.8502	3223.7222	3779.0097
CCC1C2C3C2C1C3O	CC[C@H]1[C@H]2[C@@H]3[C@H]2[C@H]1[C@H]3O	
InChI=1S/C8H12O/c1-2-3-4-6-5(3)8(9)7(4)6/h3-9H,2H2,1H3	InChI=1S/C8H12O/c1-2-3-4-6-5(3)8(9)7(4)6/h3-9H,2H2,1H3/t3-,4+,5-,6+,7+,8+/m0/s1
