18
gdb 17382	3.97356	1.54365	1.29449	1.1004	67.27	-0.2364	0.0665	0.3029	984.4525	0.152748	-384.891641	-384.883677	-384.882732	-384.923887	30.265	
C	 0.1188972925	 1.3782797597	-0.2626285329	-0.410289
C	 0.0813948028	-0.1036883907	 0.0999408481	 0.107982
O	 0.5367529397	-0.3551200862	 1.4270847912	-0.430062
C	-1.3164666204	-0.6917299904	-0.0644549391	 0.130316
O	-1.8743385646	-0.5393736911	-1.4032239866	-0.309151
C	-2.2012310011	-1.9344306437	-1.433160689	 0.109821
C	-0.964772663	-2.7703389546	-1.3988653013	-0.297197
C	-1.5280572537	-2.2044403429	-0.1085289726	-0.142597
H	 1.1305294897	 1.7753293255	-0.1428438576	 0.121888
H	-0.2049561755	 1.5263519013	-1.2962667204	 0.142008
H	-0.5561885772	 1.9533020713	 0.3848344816	 0.103483
H	 0.7757408444	-0.6531406427	-0.5446060979	 0.09042
H	 0.0540483047	 0.2334943817	 2.0183008982	 0.278275
H	-1.9944493425	-0.217702872	 0.662430801	 0.066934
H	-3.1597477257	-2.220790995	-1.8492851556	 0.103433
H	-1.1190272745	-3.8389459952	-1.5132332467	 0.115784
H	-0.0456730815	-2.3909337424	-1.835513274	 0.117807
H	-1.8272674441	-2.8234830426	 0.7250089038	 0.101144
78.1031	161.322	182.7101	247.9145	290.0437	331.9735	413.8264	424.934	483.6998	534.4339	738.97	773.5136	809.7964	881.1245	935.3506	948.8802	966.6525	996.0425	1023.5379	1035.1763	1049.3132	1063.3682	1076.0761	1085.1834	1119.0439	1179.8988	1202.2095	1250.8813	1266.834	1293.8562	1329.5625	1359.9257	1399.2195	1412.3583	1414.9847	1476.1099	1492.315	1496.3206	2981.4735	3022.8317	3062.3711	3100.0678	3121.1988	3129.8691	3183.4665	3207.6697	3217.6264	3796.7062
CC(O)C1OC2CC12	C[C@@H](O)[C@H]1O[C@H]2C[C@@H]12	
InChI=1S/C6H10O2/c1-3(7)6-4-2-5(4)8-6/h3-7H,2H2,1H3	InChI=1S/C6H10O2/c1-3(7)6-4-2-5(4)8-6/h3-7H,2H2,1H3/t3-,4-,5+,6-/m1/s1
