16
gdb 110764	2.56149	1.29806	1.091	4.3284	65.13	-0.2395	-0.0053	0.2342	1139.0663	0.123331	-474.996684	-474.98797	-474.987026	-475.030375	32.008	
N	-0.0438727884	 1.486147142	 0.0613187315	-0.601726
C	-0.0142789477	 0.0827383017	-0.0516200915	 0.101252
C	 1.1926883433	-0.7149751929	-0.5582508141	-0.098807
C	 1.993302483	-1.7126744742	 0.2564906884	-0.10623
O	 2.7037604805	-2.6096790803	-0.5798905943	-0.410933
C	-0.1549283842	-0.9936952594	-1.1383265928	 0.010302
O	-0.900366425	-1.8521033252	-0.2383320635	-0.268506
C	-0.891819022	-0.8622785932	 0.7500283983	 0.425626
O	-1.4817830872	-0.8711050664	 1.7778133802	-0.312574
H	 0.7493205273	 1.9387994168	-0.3714816847	 0.244921
H	-0.9033556978	 1.9002607773	-0.2792238453	 0.248628
H	 1.809588821	-0.1030276485	-1.2174531131	 0.1064
H	 2.748956933	-1.1817361017	 0.8435723007	 0.121931
H	 1.3408164426	-2.2437480406	 0.9606519983	 0.12073
H	 2.0559739265	-3.1776623156	-1.0103165692	 0.29056
H	-0.475595265	-0.9533510999	-2.169553369	 0.128425
65.9537	111.5961	171.2121	209.2535	274.1563	275.8639	310.6482	338.2006	446.8525	531.4357	596.0983	664.0749	713.0837	750.7898	777.382	817.8486	883.3287	910.9224	937.2618	970.8079	1042.3678	1047.9837	1072.5968	1089.36	1176.9788	1217.8258	1261.7747	1300.9497	1345.8156	1400.9869	1415.8286	1474.9938	1496.8881	1655.0606	1945.1669	3029.8703	3086.4074	3117.0469	3225.9468	3532.4324	3629.7672	3813.1042
NC12C(CO)C1OC2=O	N[C@]12[C@@H](CO)[C@H]1OC2=O	
InChI=1S/C5H7NO3/c6-5-2(1-7)3(5)9-4(5)8/h2-3,7H,1,6H2	InChI=1S/C5H7NO3/c6-5-2(1-7)3(5)9-4(5)8/h2-3,7H,1,6H2/t2-,3+,5+/m0/s1
