16
gdb 54583	3.76609	1.40645	1.17252	4.689	68.61	-0.2563	0.0034	0.2596	1028.1368	0.126266	-437.854864	-437.847903	-437.846959	-437.886511	27.332	
O	-0.3662708145	-0.0408237128	-0.1469559119	-0.379342
C	-0.1805992768	 1.2956677019	-0.0887323477	 0.350068
O	 0.905068785	 1.8030377735	-0.1783843725	-0.344002
C	-1.4520848517	 2.0436436134	 0.0663644803	 0.194676
N	-2.7313505777	 1.3736187513	 0.3356988587	-0.382818
H	-1.326210145	-0.1985156499	-0.147805287	 0.306979
H	-2.9016646479	 1.2027595736	 1.3299251992	 0.218421
C	-3.3864222261	 2.6355964767	-0.1402040257	-0.034547
C	-2.9937670387	 3.7278152446	 0.9036178277	-0.249227
C	-1.5669871607	 3.5502237503	 0.385529962	-0.119634
C	-2.0710846109	 2.9990059901	-0.9249662193	-0.10885
H	-4.3959577173	 2.5474847484	-0.5353658274	 0.092112
H	-3.3933654524	 4.7066439847	 0.6279106952	 0.118169
H	-3.2159450524	 3.5169694554	 1.9565011535	 0.096244
H	-0.6810440335	 4.1429254172	 0.5647991767	 0.122349
H	-1.8266174094	 3.1856946316	-1.9594362918	 0.1194
94.2007	164.3182	177.4316	365.7012	463.1326	489.3722	516.007	692.1505	709.1509	725.3733	777.2554	783.1156	812.213	855.1229	885.1924	934.8325	941.0143	961.2692	991.5065	1025.7796	1053.0388	1092.6719	1115.1472	1145.242	1154.4785	1166.3595	1197.381	1256.9532	1261.5503	1306.4789	1344.1653	1357.927	1423.4467	1496.235	1864.6833	3033.1493	3109.8802	3143.739	3225.7751	3241.9927	3406.601	3663.2056
[O-]C(=O)C12[NH2+]C3CC1C23	OC(=O)[C@@]12N[C@H]3C[C@@H]1[C@@H]23	
InChI=1S/C6H7NO2/c8-5(9)6-2-1-3(7-6)4(2)6/h2-4,7H,1H2,(H,8,9)	InChI=1S/C6H7NO2/c8-5(9)6-2-1-3(7-6)4(2)6/h2-4,7H,1H2,(H,8,9)/t2-,3+,4-,6-/m1/s1
