17
gdb 47065	3.71242	1.34954	1.06718	2.2313	67.97	-0.2432	0.0552	0.2984	1086.1946	0.139755	-455.170034	-455.162673	-455.161729	-455.202225	28.255	
O	-0.0474748244	-0.0854029417	-0.1741758734	-0.404519
C	-0.0724836424	 1.125591085	-0.0654341827	 0.4188
N	-1.1950199493	 1.8905111592	-0.3235600188	-0.340374
C	-1.3263732859	 3.2144067115	 0.2654369611	-0.204422
C	-0.1155907086	 4.0384483475	-0.1774732468	 0.133367
O	 0.2793835503	 5.0360801767	 0.7826912667	-0.289931
C	 1.4492841241	 4.2724351035	 1.1613541802	-0.089053
C	 1.2040876508	 3.2630817859	 0.0132112955	-0.03318
N	 1.0312953878	 1.8640413233	 0.3404480188	-0.342153
H	-2.0253696812	 1.3277349652	-0.4266736794	 0.254031
H	-2.2604300046	 3.6679488197	-0.0750436539	 0.119809
H	-1.3456609389	 3.1876977464	 1.3646678766	 0.118955
H	-0.2725171353	 4.4679890979	-1.171723089	 0.092996
H	 2.3625357218	 4.8739828766	 1.1027018257	 0.109567
H	 1.3550822492	 3.8342767826	 2.1621121494	 0.109542
H	 1.903358991	 3.3965229506	-0.8190039149	 0.09673
H	 1.8607887256	 1.2900286703	 0.3809642047	 0.249835
84.9558	114.2313	211.2035	344.7303	387.1522	427.1404	448.0524	559.6828	563.4449	620.9284	722.6773	777.9218	805.3539	815.2516	905.3019	935.3002	988.9804	1021.1483	1051.798	1060.2363	1110.7231	1137.1169	1163.6847	1177.4299	1222.4378	1266.4448	1282.3381	1310.6765	1338.2179	1364.6187	1393.6402	1421.5868	1451.4454	1462.5048	1512.219	1520.1496	1815.3563	3001.1151	3025.3654	3037.8327	3060.3661	3081.8383	3097.1398	3613.6769	3631.8799
O=C1NCC2OCC2N1	O=C1NC[C@H]2OC[C@H]2N1	
InChI=1S/C5H8N2O2/c8-5-6-1-4-3(7-5)2-9-4/h3-4H,1-2H2,(H2,6,7,8)	InChI=1S/C5H8N2O2/c8-5-6-1-4-3(7-5)2-9-4/h3-4H,1-2H2,(H2,6,7,8)/t3-,4-/m1/s1
