19
gdb 91006	4.15848	1.34	1.17735	2.2165	74.58	-0.2339	0.0691	0.303	1081.2371	0.160475	-422.967199	-422.960011	-422.959067	-422.998573	29.347	
C	 0.0431375885	 1.5738368464	 0.0687483132	-0.403872
C	 0.0356640492	 0.0578645807	-0.0252029218	 0.154193
C	 0.7468681359	-0.4974002855	-1.2673413811	-0.272011
C	 1.0835301641	-1.9707488358	-1.050124041	-0.021567
C	 0.2976827425	-2.7482214245	 0.0506221878	-0.015129
O	 1.4482272489	-3.6496689636	 0.2214286699	-0.308933
C	 2.0445778341	-2.3044906453	 0.1192537602	 0.014563
C	 0.9543490948	-1.8039885098	 1.1111522954	 0.125624
O	 0.631049484	-0.4487239151	 1.1749845329	-0.283624
H	 1.070678724	 1.9488805685	 0.1028365299	 0.12383
H	-0.4597501114	 2.0134418701	-0.7980847052	 0.115793
H	-0.472904389	 1.9033556143	 0.9744413869	 0.127152
H	-1.0076600393	-0.2992240362	-0.0529990604	 0.073438
H	 0.0949689711	-0.369095381	-2.138490986	 0.106683
H	 1.6666836912	 0.0665407025	-1.4705749351	 0.104536
H	 1.272096017	-2.5469718544	-1.9582936532	 0.080978
H	-0.6925795112	-3.2041143607	 0.0196721169	 0.091922
H	 3.1309362313	-2.2220225105	 0.1684939501	 0.089883
H	 1.0280469141	-2.2110548302	 2.1203797806	 0.09654
117.5348	225.2608	262.9544	294.0136	398.0296	436.3217	443.0297	478.0838	612.4021	724.4121	758.9844	791.2518	835.7806	861.9351	887.0163	893.684	924.1187	937.7637	994.72	1014.5751	1054.215	1090.6336	1121.3576	1131.702	1148.6178	1157.8063	1172.5901	1189.7195	1208.3289	1249.4334	1265.8755	1275.6991	1312.5584	1334.3107	1384.0136	1396.0629	1401.8899	1415.1579	1481.6676	1486.8666	1499.7375	2956.2914	3023.3151	3042.0955	3069.9772	3095.4558	3109.4364	3111.7711	3115.3461	3122.0436	3124.7234
CC1CC2C3OC2C3O1	C[C@H]1C[C@@H]2[C@H]3O[C@@H]2[C@H]3O1	
InChI=1S/C7H10O2/c1-3-2-4-5-7(8-3)6(4)9-5/h3-7H,2H2,1H3	InChI=1S/C7H10O2/c1-3-2-4-5-7(8-3)6(4)9-5/h3-7H,2H2,1H3/t3-,4-,5-,6+,7+/m0/s1
