21
gdb 53226	4.56085	0.69315	0.67137	1.2614	89.6	-0.2353	0.0553	0.2906	1777.5433	0.179726	-387.064852	-387.054371	-387.053427	-387.101836	38.036	
C	 0.6748976055	 1.4883246982	-0.779155909	-0.498668
C	 0.3285709177	 0.1364153152	-0.3638985246	 0.103283
C	 0.04444489	-0.9837675004	-0.0222358778	 0.039815
C	-0.3119427569	-2.3202567283	 0.4072535295	-0.16361
C	-0.2380230296	-2.665054413	 1.9305321209	-0.261564
C	-1.5527231964	-3.468696135	 1.7899227779	 0.416723
C	-1.347147699	-4.9714511717	 1.6236425669	-0.451945
O	-2.4415839881	-3.1914648246	 2.8554750301	-0.477845
C	-1.8227231693	-2.7224345605	 0.4467120437	-0.284829
H	 1.4578974001	 1.4834595509	-1.5458508235	 0.144678
H	-0.1922009205	 2.0123758867	-1.1969394785	 0.14516
H	 1.0433506706	 2.0829254734	 0.0644660381	 0.145773
H	 0.254245193	-3.0591699927	-0.1702047099	 0.093989
H	 0.6489756777	-3.1930133142	 2.2882265572	 0.098763
H	-0.4086486543	-1.7768473548	 2.5414084632	 0.120775
H	-0.9855766874	-5.4106313062	 2.5586460901	 0.12463
H	-2.2894049114	-5.4642580122	 1.3513403948	 0.105578
H	-0.6226618533	-5.1943408849	 0.8337548906	 0.121261
H	-3.2253804333	-3.7409496883	 2.7456601677	 0.271739
H	-2.4542254268	-1.8494433867	 0.6225568788	 0.11344
H	-2.2110510284	-3.2975376208	-0.3980042864	 0.092855
16.4622	56.8938	90.6222	159.1978	262.4331	267.9948	280.6788	284.2005	304.6319	362.606	418.0988	428.5599	477.4716	534.6706	563.6331	699.9952	831.2676	837.7458	895.1883	912.3309	964.5157	982.8527	989.7134	1034.4442	1052.736	1053.9226	1122.9813	1132.7939	1174.8826	1205.3014	1219.2481	1248.4399	1263.7369	1288.9596	1360.1788	1381.9911	1406.0216	1415.2118	1465.1416	1479.0897	1479.3385	1486.0964	1491.5057	1500.187	2367.4714	3019.1249	3023.6454	3041.1221	3059.7942	3069.7467	3082.832	3083.1463	3086.2425	3109.7237	3128.7284	3135.5614	3799.5955
CC#CC1CC(C)(O)C1	CC#C[C@H]1C[C@@](C)(O)C1	
InChI=1S/C8H12O/c1-3-4-7-5-8(2,9)6-7/h7,9H,5-6H2,1-2H3	InChI=1S/C8H12O/c1-3-4-7-5-8(2,9)6-7/h7,9H,5-6H2,1-2H3/t7-,8+
