14
gdb 73881	2.21606	1.74059	0.98092	9.2898	69.27	-0.2439	-0.054	0.1898	1108.4087	0.100321	-473.886123	-473.8777	-473.876756	-473.919431	29.75	
N	 0.040662384	 1.299133662	 0.0071943356	-0.583022
C	-0.0412573591	-0.0403843473	 0.0002130423	 0.281772
C	-1.1251188403	-0.8720326469	 0.0013414617	-0.066555
C	-2.5231729654	-0.4682638099	 0.0108881729	 0.06417
O	-3.485347708	-1.1993549833	 0.0118068296	-0.254937
C	-0.6330073339	-2.2649153916	-0.008804182	 0.409762
O	-1.2120566204	-3.3067282369	-0.012028917	-0.320951
O	 0.7648176899	-2.2213862738	-0.0163429545	-0.241455
C	 1.2104910571	-0.8840824866	-0.0112601816	-0.157608
H	 0.93158688	 1.7644159106	 0.0050399372	 0.277775
H	-0.7820548125	 1.8770995456	 0.0148103068	 0.283653
H	-2.6677210723	 0.642530771	 0.0176749275	 0.029802
H	 1.8196739935	-0.6839387032	-0.903145454	 0.138807
H	 1.8292973375	-0.6939143696	 0.8761703354	 0.138788
99.031	143.1075	159.0243	176.18	210.9306	264.319	312.6201	449.9598	456.8288	558.1858	606.2964	606.9587	724.0347	743.1864	768.8305	948.6432	1020.4119	1024.3215	1027.0449	1108.1893	1176.8917	1209.35	1261.0119	1362.4788	1435.2085	1478.1641	1496.8321	1633.5102	1691.6941	1789.6995	1902.1662	2784.2883	3011.8176	3045.3915	3616.548	3732.7869
NC1=C(C=O)C(=O)OC1	NC1=C(C=O)C(=O)OC1	
InChI=1S/C5H5NO3/c6-4-2-9-5(8)3(4)1-7/h1H,2,6H2	InChI=1S/C5H5NO3/c6-4-2-9-5(8)3(4)1-7/h1H,2,6H2
