19
gdb 44952	2.47938	1.77042	1.53465	3.3384	73.72	-0.2271	-0.0277	0.1994	961.7768	0.16222	-423.059325	-423.052238	-423.051293	-423.090642	28.993	
O	-0.0082416466	 0.002240835	 0.00898304	-0.317621
C	-0.0368660519	 1.2032490488	-0.00157435	 0.397708
C	-1.2878235504	 2.094400101	-0.0657843001	-0.332036
C	-0.731052038	 3.5290776779	 0.0639614279	-0.022889
C	 0.6398004117	 3.4065672489	-0.646888677	-0.242839
C	 1.1908397434	 2.154621732	 0.0392689206	 0.030423
O	 1.5449055473	 2.453050132	 1.3904967365	-0.270276
C	 0.4438697081	 2.8516796418	 2.2055392187	-0.078782
C	-0.4547507121	 3.9032061982	 1.5347192913	-0.220382
H	-1.7707067958	 1.9399720749	-1.0382450726	 0.13095
H	-2.0115635856	 1.8048042776	 0.7020711772	 0.12664
H	-1.3857463681	 4.2712751146	-0.3985435536	 0.072081
H	 0.5182777861	 3.2394108481	-1.7236977195	 0.100205
H	 1.2876268628	 4.2739041296	-0.4975993199	 0.107933
H	 2.072098769	 1.7017096327	-0.4159668381	 0.094972
H	-0.1536568072	 1.9683618535	 2.4809283393	 0.104816
H	 0.8845500468	 3.2403656426	 3.1273405446	 0.114412
H	 0.0331369403	 4.8840464193	 1.5653953431	 0.104818
H	-1.3884282498	 3.9855957414	 2.1035736817	 0.099868
104.3479	235.8591	275.2508	347.8422	409.3819	418.5293	466.9538	531.2248	597.0903	642.1774	750.5533	791.6109	813.1931	849.9945	883.1044	894.2709	927.6677	956.6917	997.6106	1037.3782	1038.871	1083.0831	1101.8424	1137.3517	1148.5395	1186.1948	1207.1708	1246.5312	1264.8584	1281.9292	1318.6404	1329.3692	1346.8008	1360.036	1378.4681	1413.8998	1447.0432	1474.4084	1489.7763	1512.9421	1857.5131	2980.7635	3031.0615	3038.797	3042.7201	3073.356	3078.2159	3091.3339	3093.5241	3103.675	3116.8395
O=C1CC2CC1OCC2	O=C1C[C@@H]2C[C@H]1OCC2	
InChI=1S/C7H10O2/c8-6-3-5-1-2-9-7(6)4-5/h5,7H,1-4H2	InChI=1S/C7H10O2/c8-6-3-5-1-2-9-7(6)4-5/h5,7H,1-4H2/t5-,7-/m1/s1
