19
gdb 70821	2.35638	1.69308	1.46267	2.5013	75.67	-0.2238	0.0725	0.2962	1020.0808	0.15644	-422.949128	-422.940283	-422.939339	-422.98181	34.263	
C	 0.0057831288	 1.4668813982	-0.0378935433	-0.522412
C	 0.0581229937	-0.030986785	-0.0955226342	 0.268967
C	 0.6304210922	-0.9692192902	-1.1841064834	-0.396417
C	 0.0824332496	-1.9459096608	-0.1178161647	 0.326361
O	 0.0024707327	-3.3190362489	-0.1429864194	-0.465388
C	 0.4692226149	-0.9908194452	 1.0662930875	-0.040128
O	-0.8516406986	-1.0132009428	 1.6742645512	-0.360876
C	-1.1236638726	-1.0212881433	 0.2340886303	 0.378278
C	-2.5394032268	-1.0532345512	-0.2415692125	-0.532257
H	 1.0099366272	 1.9033001618	-0.0699423071	 0.120819
H	-0.5628472452	 1.8793744563	-0.8784467842	 0.120656
H	-0.4761933314	 1.7871159549	 0.8917896349	 0.135305
H	 0.121923347	-0.9659640326	-2.1529278888	 0.09933
H	 1.7165907347	-0.9471777964	-1.3214826984	 0.089537
H	 0.8913139582	-3.6823364381	-0.2207853215	 0.287276
H	 1.3473868093	-0.9701017247	 1.7123856157	 0.08565
H	-3.091963758	-0.1851288696	 0.1308758182	 0.132684
H	-2.5743994167	-1.0449607657	-1.3356035132	 0.128006
H	-3.0382366289	-1.9606571468	 0.1117376427	 0.144609
171.0985	181.5867	206.1613	210.5582	226.6189	236.7551	263.1147	324.686	443.6973	483.1253	554.4933	595.8065	654.2936	696.3589	744.5068	780.737	823.9045	861.3973	910.5761	955.5181	1009.129	1023.1218	1043.795	1089.1702	1097.6382	1127.2184	1138.8079	1159.2104	1194.2393	1258.1591	1273.9584	1320.5524	1347.6301	1401.8308	1407.0856	1436.676	1472.6276	1489.257	1492.1879	1495.3843	1521.3926	3027.9728	3038.2395	3040.8805	3091.6587	3097.469	3101.7094	3111.8057	3114.3436	3116.1264	3805.1308
CC12CC3(O)C1OC23C	C[C@@]12C[C@@]3(O)[C@@H]1O[C@@]23C	
InChI=1S/C7H10O2/c1-5-3-7(8)4(5)9-6(5,7)2/h4,8H,3H2,1-2H3	InChI=1S/C7H10O2/c1-5-3-7(8)4(5)9-6(5,7)2/h4,8H,3H2,1-2H3/t4-,5-,6+,7-/m1/s1
