18
gdb 27160	2.8703	1.40962	0.99867	1.3128	79.84	-0.1799	0.0415	0.2214	1172.8495	0.150443	-398.12729	-398.118903	-398.117959	-398.160351	32.12	
N	-0.0531364915	 1.3866086027	-0.1798998534	-0.609377
C	-0.0155455211	-0.0173298575	-0.0866778508	 0.178731
C	-1.0974579786	-0.8746446482	 0.0343787849	 0.223044
N	-0.5776078418	-2.1499261595	 0.2218378073	-0.298316
C	 0.7847576982	-2.1106158059	 0.1913823538	-0.084027
C	 1.1702550344	-0.8024921259	 0.0042182718	-0.205601
C	-2.5509243525	-0.6295806559	 0.0482951408	-0.149789
C	-3.1849783341	 0.2034584507	-1.0112469443	-0.234272
N	-3.4225801427	-1.2464603588	-0.9901192979	-0.318404
H	 0.621731485	 1.7499790301	-0.84138556	 0.2383
H	-0.9737008209	 1.7326187029	-0.4180371858	 0.236085
H	-1.1371000584	-2.9755391797	 0.3428575105	 0.261457
H	 1.3728768533	-3.0077663145	 0.3001066469	 0.115676
H	 2.1847596775	-0.4375901058	-0.0483836943	 0.086712
H	-3.0414425129	-0.6272706068	 1.0218617925	 0.100688
H	-4.0502079165	 0.8136320101	-0.7686990031	 0.119626
H	-2.5449385627	 0.6066999938	-1.7911855424	 0.111066
H	-2.8221967147	-1.6776712817	-1.6905431264	 0.2284
75.1918	132.1182	162.1859	231.9096	279.9434	327.7152	391.7342	407.4329	494.038	610.4659	642.8919	687.7244	707.427	723.8102	774.198	808.2013	832.274	872.8628	914.2839	961.8727	1004.6979	1047.7151	1089.5566	1107.9327	1139.3736	1142.8143	1177.6832	1229.8905	1244.9068	1279.495	1306.5074	1327.1719	1399.1233	1460.9177	1500.1179	1503.7683	1516.9838	1629.629	1656.3482	3093.1071	3111.5094	3197.2465	3243.1057	3267.5087	3485.0514	3528.6429	3621.5432	3686.0895
NC1=C(NC=C1)C1CN1	Nc1c([nH]cc1)[C@H]1CN1	
InChI=1S/C6H9N3/c7-4-1-2-8-6(4)5-3-9-5/h1-2,5,8-9H,3,7H2	InChI=1S/C6H9N3/c7-4-1-2-8-6(4)5-3-9-5/h1-2,5,8-9H,3,7H2/t5-/m1/s1
