16
gdb 42925	2.97868	1.41352	1.07078	3.2691	70.09	-0.2397	-0.0336	0.2062	1106.8121	0.122959	-437.808689	-437.800947	-437.800003	-437.84175	28.614	
O	 0.5516154639	 0.1252941416	-0.4170810039	-0.296606
C	 0.2028899986	 1.2371819343	-0.1622171724	 0.423068
C	-1.1285592924	 1.9792071596	-0.1158201679	-0.127472
O	-1.1312413214	 2.5935963624	 1.1915773492	-0.219747
C	-0.4037210626	 3.2473407581	 0.1653830054	 0.018649
C	 0.9795918608	 2.5803348392	 0.0926869045	-0.115033
N	 1.8330665791	 2.6729615052	 1.2466515987	-0.063226
C	 3.1608292915	 2.0768208195	 1.0995120733	-0.211768
C	 2.9973596032	 3.5542158281	 1.1386298106	-0.22997
H	-2.0839303716	 1.788187767	-0.5886623574	 0.129298
H	-0.6935819477	 4.254468987	-0.1085197858	 0.121587
H	 1.485723083	 2.8326687669	-0.8600400927	 0.085978
H	 3.5253912266	 1.536787551	 1.9677861644	 0.126609
H	 3.4126830591	 1.6237367699	 0.1430094946	 0.123697
H	 3.1401256188	 4.098973441	 0.2064158104	 0.110004
H	 3.2408035412	 4.1147099292	 2.035958109	 0.124929
57.0014	112.0035	158.3256	205.3855	306.9289	346.8738	514.3491	547.6911	624.7154	718.7369	794.0658	817.8323	850.0379	873.4403	894.468	908.9531	933.2915	969.4942	1024.1589	1045.3302	1060.8254	1084.5542	1113.932	1121.2897	1168.1348	1191.259	1199.8571	1212.967	1255.0119	1319.2396	1348.3412	1368.1819	1493.0013	1520.2655	1905.2329	2913.1599	3096.4768	3109.0078	3185.6185	3194.6137	3200.6924	3207.8297
O=C1C2OC2C1N1CC1	O=C1[C@H]2O[C@H]2[C@H]1N1CC1	
InChI=1S/C6H7NO2/c8-4-3(7-1-2-7)5-6(4)9-5/h3,5-6H,1-2H2	InChI=1S/C6H7NO2/c8-4-3(7-1-2-7)5-6(4)9-5/h3,5-6H,1-2H2/t3-,5-,6+/m0/s1
