19
gdb 6510	2.93719	1.80537	1.35489	1.1796	78.91	-0.2321	0.0387	0.2707	991.0022	0.162182	-327.88232	-327.872833	-327.871889	-327.915571	35.425	
C	-0.0486915005	 1.5315150573	-0.0475838142	-0.438797
C	-0.0374928581	 0.016171771	 0.0339340757	 0.29003
C	-1.2537080476	-0.6263796292	-0.6044187791	-0.46924
N	 1.27887955	-0.6108103746	-0.1706179307	-0.402878
C	 0.6559483574	-0.6847617582	 1.1814582571	 0.099019
C	 1.3871745359	 0.0643535879	 2.2851469089	-0.458834
C	 0.1389344932	-1.961290429	 1.6142005631	 0.296753
C	-0.251153668	-3.0254499355	 2.0199029254	-0.462473
H	 0.8916303979	 1.9679099632	 0.288840594	 0.129282
H	-0.203236965	 1.8429588664	-1.0868553335	 0.119682
H	-0.8662170763	 1.9486194931	 0.55037588	 0.117641
H	-1.2745455214	-0.4008417361	-1.6770206353	 0.118417
H	-1.256626577	-1.7104093142	-0.4748725993	 0.129644
H	-2.1780684444	-0.2332629104	-0.1672236714	 0.123249
H	 1.1718293021	-1.5076148542	-0.6406069444	 0.230484
H	 1.8514952773	 0.9735157571	 1.9030171991	 0.128781
H	 0.7012132253	 0.3266192998	 3.0966203023	 0.123788
H	 2.1764757225	-0.5686862317	 2.701291264	 0.130621
H	-0.6038301233	-3.9642369728	 2.3690022683	 0.194829
128.3355	145.4189	147.1495	159.3029	193.7216	258.3493	288.3454	365.886	386.9325	398.9399	470.4054	554.1111	574.8215	601.2281	647.313	649.8947	700.3239	830.2329	918.7936	959.4821	990.6101	1017.7016	1061.1879	1079.1745	1102.4263	1157.8581	1170.3171	1271.5822	1326.3473	1391.3625	1407.6871	1410.697	1423.0263	1474.6259	1481.9509	1485.1931	1492.6462	1505.065	1511.8116	2224.7052	3029.8846	3036.8528	3047.5284	3088.0733	3094.1165	3110.1958	3130.2127	3141.1825	3154.4939	3490.5846	3501.4265
CC1(C)NC1(C)C#C	CC1(C)N[C@]1(C)C#C	
InChI=1S/C7H11N/c1-5-7(4)6(2,3)8-7/h1,8H,2-4H3	InChI=1S/C7H11N/c1-5-7(4)6(2,3)8-7/h1,8H,2-4H3/t7-/m1/s1
