18
gdb 28459	3.02284	1.40578	0.97188	1.655	85.51	-0.2116	-0.0277	0.1839	1213.768	0.148432	-398.204147	-398.195369	-398.194425	-398.237414	33.054	
C	-0.0368995665	 1.499704429	 0.0292260884	-0.472255
C	 0.0119641024	-0.0031136404	-0.0114613842	 0.291329
C	 0.1507383683	-0.717858223	-1.1947894558	-0.074181
N	 0.2004128243	-2.0526016315	-1.2345449041	-0.315275
C	 0.0973822206	-2.6932321033	-0.0734108105	 0.310914
N	 0.0825878653	-4.0765238504	-0.1116930829	-0.566971
C	-0.0486878068	-1.9870562731	 1.149043005	 0.278745
C	-0.173208394	-2.7164993613	 2.4582732887	-0.501443
N	-0.0845727107	-0.6627601499	 1.1573427769	-0.348096
H	 0.0489905084	 1.9271536185	-0.9733431258	 0.11856
H	-0.9760254688	 1.8467797517	 0.4729327536	 0.134934
H	 0.7750854747	 1.8997679689	 0.6456450973	 0.134006
H	 0.2306537756	-0.2027706559	-2.1493022122	 0.101837
H	 0.4071314537	-4.4531312055	-0.9909653432	 0.254089
H	 0.4425496352	-4.5583263415	 0.6972031535	 0.251508
H	 0.733678363	-3.291674743	 2.6911694221	 0.121964
H	-0.3348421473	-1.9962378659	 3.261170473	 0.144503
H	-1.0084986574	-3.4269329434	 2.4396080502	 0.135831
83.303	120.9149	177.6402	209.9762	276.0256	310.727	364.9688	383.4362	467.0747	485.3771	503.5475	569.4572	582.1511	624.0241	712.5858	793.3854	809.3709	934.9311	980.1502	984.8011	1040.1564	1052.8332	1063.9167	1085.3471	1225.8954	1256.6811	1307.645	1350.9624	1401.0671	1412.2628	1430.1578	1470.8497	1476.1053	1483.6738	1493.259	1503.4449	1594.7042	1620.0908	1640.9238	3011.0958	3035.2734	3064.1601	3092.5625	3117.8788	3143.3245	3152.0686	3569.8664	3684.0123
CC1=CN=C(N)C(C)=N1	Cc1cnc(N)c(C)n1	
InChI=1S/C6H9N3/c1-4-3-8-6(7)5(2)9-4/h3H,1-2H3,(H2,7,8)	InChI=1S/C6H9N3/c1-4-3-8-6(7)5(2)9-4/h3H,1-2H3,(H2,7,8)
