21
gdb 92117	2.70505	1.56236	1.20685	1.636	82.18	-0.2213	0.0757	0.297	1113.9483	0.182261	-387.043627	-387.035317	-387.034373	-387.076537	32.975	
C	-0.6390291371	 1.3839348693	 0.0818675148	-0.411122
C	-0.0089998794	 0.0007383515	 0.0025016952	 0.032093
C	 1.3142220771	-0.1642040883	-0.8192796533	-0.259847
C	 1.9926880049	-0.7953375891	 0.4137247701	 0.119429
O	 2.695260162	 0.1805640559	 1.2196943246	-0.325231
C	 1.5706750692	 0.2962129845	 2.1016303897	 0.474103
C	 1.7705712834	 0.2760557858	 3.5845350525	-0.344652
C	 1.3047217598	 1.5425820359	 2.8787758031	-0.333834
C	 0.6962573383	-0.616450051	 1.2568726899	-0.20355
H	 0.0858847112	 2.1375728584	 0.4021333343	 0.130346
H	-1.0216539453	 1.6853668575	-0.8996878765	 0.113134
H	-1.4797421524	 1.4034754733	 0.7847269347	 0.109576
H	-0.7579964886	-0.7132193933	-0.3555840731	 0.07295
H	 1.2255249789	-0.827288837	-1.684061792	 0.097313
H	 1.7946454641	 0.7664402861	-1.1316224345	 0.10813
H	 2.5569449173	-1.7245704253	 0.3048703381	 0.07539
H	 1.0588311202	-0.2664495534	 4.1989188359	 0.111041
H	 2.7954850882	 0.2500619386	 3.9385957717	 0.122191
H	 2.0247536198	 2.347463745	 2.7738164194	 0.123471
H	 0.2795147316	 1.8678035667	 3.0178915998	 0.116316
H	 0.1763724969	-1.419911021	 1.7788547458	 0.072753
56.6729	142.6119	225.3584	251.5376	273.8313	317.8057	386.3724	423.8592	483.4052	600.5264	664.7285	754.097	783.402	822.4525	848.8495	862.2241	881.8004	924.9996	940.0522	941.056	956.1183	992.7734	1010.0767	1046.8454	1067.0136	1082.1396	1102.5324	1121.1243	1164.5855	1188.3227	1199.0402	1202.7761	1225.0466	1262.9752	1278.1624	1298.9557	1325.5857	1364.3652	1396.2847	1408.6843	1448.3979	1467.4618	1491.9585	1496.1812	1500.9767	3027.7788	3041.7239	3056.9845	3077.6968	3088.3086	3106.9696	3110.6952	3117.0149	3125.6413	3131.4105	3210.2928	3224.6989
CC1CC2OC3(CC3)C12	C[C@H]1C[C@H]2OC3(CC3)[C@@H]12	
InChI=1S/C8H12O/c1-5-4-6-7(5)8(9-6)2-3-8/h5-7H,2-4H2,1H3	InChI=1S/C8H12O/c1-5-4-6-7(5)8(9-6)2-3-8/h5-7H,2-4H2,1H3/t5-,6+,7-/m0/s1
