15
gdb 84335	3.10217	1.42108	0.99827	0.8105	70.58	-0.2702	-0.0609	0.2093	1106.1362	0.11425	-453.997278	-453.989713	-453.988769	-454.029496	29.094	
O	 0.558776058	 0.76900479	-0.7897071165	-0.434162
C	 0.0938286489	-0.22098736	 0.0864327946	 0.043482
C	 0.6217572731	-0.0025863296	 1.4765364943	-0.078858
C	-0.0739693113	-0.3418423522	 2.5618474345	-0.182668
C	-1.4484670329	-0.8735448847	 2.4697636816	 0.427874
O	-2.0943558214	-1.2713685692	 3.4146840974	-0.353593
N	-2.0102757407	-0.8616403783	 1.1839088613	-0.40942
C	-1.4274430201	-0.3192109144	 0.0515720657	 0.370168
N	-2.0108450434	 0.0565975871	-1.0140892225	-0.54425
H	-0.1604181239	 0.894661151	-1.4305197305	 0.300524
H	 0.4585724969	-1.2186380849	-0.2349450832	 0.117408
H	 1.6282630805	 0.3992208677	 1.5399905647	 0.13585
H	 0.3139069202	-0.2490818466	 3.5689089926	 0.130093
H	-2.9995612876	-1.0757317271	 1.1689879823	 0.255705
H	-3.0245722762	-0.0464194388	-0.9845891962	 0.221847
83.9126	133.4489	266.2056	320.9247	380.197	431.9692	444.8234	457.3198	508.4003	574.3331	637.8622	662.3552	701.0341	761.1572	827.5819	857.1467	906.2342	926.4974	1009.7701	1031.195	1116.5595	1136.7404	1171.5702	1259.0387	1283.8917	1320.5728	1391.4469	1399.96	1418.1354	1456.4912	1694.2389	1736.9808	1803.102	2887.8231	3186.5466	3217.7043	3487.5104	3582.6334	3676.5919
OC1C=CC(=O)NC1=N	O[C@H]1C=CC(=O)N[C]1[NH]	
InChI=1S/C5H6N2O2/c6-5-3(8)1-2-4(9)7-5/h1-3,8H,(H2,6,7,9)	InChI=1S/C5H6N2O2/c6-5-3(8)1-2-4(9)7-5/h1-3,8H,(H2,6,7,9)/t3-/m0/s1
