19
gdb 126607	5.19656	0.79106	0.72953	4.0654	79.82	-0.2061	0.0094	0.2155	1595.9461	0.16047	-415.393598	-415.38435	-415.383406	-415.428627	33.362	
C	-0.146793113	 1.5079379377	-0.0081424752	-0.381716
C	-0.2379807067	-0.0058561929	-0.213210555	-0.174984
C	 0.9028071393	-0.532603468	-1.0914415846	-0.143364
N	 0.8550966123	-1.9726560407	-1.2826672922	 0.087859
C	 0.0283375244	-2.7018210851	-2.0835219183	-0.188539
C	 0.3868536986	-4.0092132585	-1.8266924786	 0.320264
N	-0.1478509957	-5.2026223756	-2.3095021663	-0.592897
N	 1.3843139053	-4.0081916454	-0.902382764	-0.258167
N	 1.6579343881	-2.7701579246	-0.5713770609	-0.156096
H	 0.7939825363	 1.7869928749	 0.4785223216	 0.124266
H	-0.1995264839	 2.0450044162	-0.9617845196	 0.117496
H	-0.9658186016	 1.8673214686	 0.6209472687	 0.123525
H	-0.2008008723	-0.5247950118	 0.7508373011	 0.125829
H	-1.1985248713	-0.2661969955	-0.6732925746	 0.106478
H	 0.8863945198	-0.0517363784	-2.0759509719	 0.118475
H	 1.8713001008	-0.3245919461	-0.6303098621	 0.142653
H	-0.7023612212	-2.2505538295	-2.7320611594	 0.128927
H	-0.3422994642	-5.1900659968	-3.3016350563	 0.245711
H	 0.460112895	-5.9796054287	-2.0819301925	 0.254282
42.416	78.9007	86.8557	226.8269	235.5445	259.7567	289.3364	320.6161	406.2734	442.2767	654.3886	667.1164	704.1484	720.8012	751.8555	781.3059	809.7449	880.5936	904.9052	1041.188	1049.2019	1051.7784	1108.6994	1116.4995	1125.3958	1180.7466	1244.8196	1280.8588	1312.9233	1331.4838	1373.9475	1402.6425	1409.0611	1415.5971	1475.5677	1492.2246	1498.2469	1502.4667	1509.7638	1616.3742	1650.0653	3032.9154	3037.1502	3047.8603	3073.7932	3099.977	3112.5414	3119.1178	3284.2803	3541.7515	3635.4966
CCCN1C=C(N)N=N1	CCCn1cc(N)nn1	
InChI=1S/C5H10N4/c1-2-3-9-4-5(6)7-8-9/h4H,2-3,6H2,1H3	InChI=1S/C5H10N4/c1-2-3-9-4-5(6)7-8-9/h4H,2-3,6H2,1H3
