21
gdb 91946	2.25614	1.72051	1.31667	1.6735	81.14	-0.2535	0.074	0.3275	1078.3774	0.183444	-387.072714	-387.064531	-387.063587	-387.10513	32.745	
C	-0.4300771425	 1.4873509551	 0.045215305	-0.404697
C	 0.014927354	 0.018300939	-0.0000562152	-0.07363
C	 0.8312571636	-0.3506131615	-1.2778652075	-0.24482
C	 2.281055912	-0.5310717154	-0.8399230411	-0.032287
C	 2.9345079485	 0.5911592234	-0.0783693992	-0.30673
C	 2.3243639759	-0.5702294653	 0.6731455686	-0.102087
C	 0.9162120117	-0.4177470394	 1.1694885476	 0.437912
C	 0.5714381939	-0.2262199485	 2.5829403142	-0.252663
O	 0.438837449	-1.5129334726	 1.9719769162	-0.287363
H	 0.4138692183	 2.1826464017	 0.0076329115	 0.120943
H	-1.07758568	 1.7127022657	-0.8086462943	 0.116274
H	-0.996746964	 1.7038554866	 0.956042744	 0.115269
H	-0.8849293319	-0.6014958518	 0.0533167763	 0.094468
H	 0.4656937636	-1.2943396162	-1.6957151997	 0.106253
H	 0.7204813628	 0.4086686932	-2.0601309756	 0.096437
H	 2.9154105376	-1.1834161717	-1.4294702796	 0.084985
H	 4.0182228353	 0.6355574631	-0.0953480507	 0.112613
H	 2.4587966869	 1.5646791965	-0.0389578943	 0.113512
H	 2.9684513323	-1.2448759125	 1.2247735984	 0.090991
H	 1.3653213913	-0.1380600925	 3.3247458164	 0.107642
H	-0.3651925282	 0.2574667831	 2.859442589	 0.106978
90.7821	183.4293	200.122	250.6547	301.5666	331.4498	371.9902	408.6825	489.0046	558.9937	674.4323	717.4086	779.4486	821.7216	844.9632	871.6766	879.3679	899.0584	958.7695	987.7874	992.5995	1006.2542	1052.8879	1071.4224	1080.2246	1106.5462	1124.0745	1127.6244	1139.1612	1161.9919	1199.0006	1226.9969	1256.1192	1259.8001	1316.6542	1335.9764	1351.7561	1378.6176	1409.9739	1438.3461	1480.7522	1495.3096	1498.7218	1503.8397	1533.9404	3035.1955	3038.5575	3058.8462	3072.6298	3077.0326	3101.4267	3110.3667	3135.0722	3154.4819	3169.2055	3182.9042	3216.9045
CC1CC2CC2C11CO1	C[C@H]1C[C@H]2C[C@H]2[C@]21CO2	
InChI=1S/C8H12O/c1-5-2-6-3-7(6)8(5)4-9-8/h5-7H,2-4H2,1H3	InChI=1S/C8H12O/c1-5-2-6-3-7(6)8(5)4-9-8/h5-7H,2-4H2,1H3/t5-,6-,7+,8+/m0/s1
