21
gdb 72645	2.0061	1.88599	1.59488	1.2639	82.84	-0.2357	0.0257	0.2614	1017.7592	0.182318	-387.097924	-387.089258	-387.088314	-387.130613	34.544	
C	-0.372202234	 1.4884460837	 0.191989958	-0.462574
C	 0.0229473022	 0.0308719301	-0.0112303491	 0.278233
C	 1.2543661579	-0.2343242177	-0.9358198899	-0.265276
C	 1.8460725167	-1.1873659237	 0.1391290129	-0.275019
C	 0.758059939	-0.7258227877	 1.1580617055	 0.374611
O	 1.2342218325	 0.1577113419	 2.1518696466	-0.490105
C	-0.1974638039	-1.8204827824	 1.6786551206	-0.346524
C	-1.2615494749	-1.8706261781	 0.6072636171	-0.067818
C	-1.1417582428	-0.8867909988	-0.2851080184	-0.13016
H	 0.4865438588	 2.0767990069	 0.5261352592	 0.125331
H	-0.742123561	 1.9206240161	-0.7452748841	 0.105752
H	-1.161371593	 1.5870386315	 0.9439187964	 0.116959
H	 1.0378564773	-0.6778005878	-1.9109708222	 0.093188
H	 1.8588717017	 0.6641073311	-1.0879666461	 0.098487
H	 1.7767783061	-2.2466025837	-0.121226259	 0.097364
H	 2.8693714718	-0.9662152123	 0.4530163591	 0.09271
H	 1.8174212323	-0.3378749667	 2.7366116618	 0.275695
H	 0.308582316	-2.7851188587	 1.819285816	 0.094049
H	-0.6169643619	-1.5338705432	 2.6528115377	 0.106611
H	-2.0393564446	-2.6271297218	 0.5956268266	 0.090662
H	-1.8058633562	-0.7292639287	-1.1299616887	 0.087823
78.8968	206.4649	229.8473	237.5218	240.5246	278.8095	342.386	390.2002	463.9231	488.676	544.2657	649.299	661.6844	739.5862	759.4279	769.7288	876.6354	889.1627	927.2235	960.2016	961.6037	967.6631	981.0885	1006.8218	1035.6098	1097.701	1125.4277	1168.506	1179.8013	1202.1043	1210.8111	1239.101	1251.151	1262.4818	1279.8217	1300.9314	1357.6125	1388.2542	1405.8587	1462.8492	1479.3495	1486.5924	1488.7697	1496.3226	1678.5227	3006.3424	3029.0389	3037.7878	3052.3832	3059.4347	3095.1902	3099.5111	3115.9121	3119.5103	3166.394	3193.7284	3803.9509
CC12CCC1(O)CC=C2	C[C@@]12CC[C@]1(O)CC=C2	
InChI=1S/C8H12O/c1-7-3-2-4-8(7,9)6-5-7/h2-3,9H,4-6H2,1H3	InChI=1S/C8H12O/c1-7-3-2-4-8(7,9)6-5-7/h2-3,9H,4-6H2,1H3/t7-,8-/m1/s1
