21
gdb 114874	2.69572	1.35188	1.23016	2.7548	76.85	-0.2445	0.0698	0.3144	1132.2672	0.184532	-424.219797	-424.211568	-424.210623	-424.252986	32.098	
O	-0.0743526871	 1.1640141201	 0.6992010037	-0.427794
C	-0.0998590521	-0.2289027708	 0.4730422803	-0.06212
C	-1.398265547	-0.641842474	-0.2275208076	 0.086471
C	-1.6363100735	-2.1634533825	-0.3027204641	-0.270973
C	-2.6079681375	-2.4680566608	 0.8478803565	-0.022495
C	-2.0194448858	-2.6695860619	 2.2775553461	-0.236051
C	-2.5927508113	-1.2889876251	 2.7127879643	-0.243742
C	-3.1565114258	-1.0756620813	 1.2773291445	 0.117201
O	-2.5194064772	-0.0870809092	 0.4828077155	-0.287103
H	-0.9637501288	 1.3871415064	 1.0037040351	 0.287039
H	 0.7569518292	-0.4761611749	-0.1646660661	 0.10326
H	 0.0194210403	-0.7912309785	 1.4139587124	 0.082415
H	-1.4098318762	-0.1721284501	-1.2173816192	 0.088012
H	-2.0924080245	-2.4229260426	-1.2619317856	 0.109123
H	-0.7007515231	-2.7262700889	-0.2214949679	 0.107636
H	-3.3550056559	-3.2105818748	 0.5638363564	 0.073767
H	-2.4404332973	-3.5219657573	 2.8151458549	 0.103147
H	-0.9302392755	-2.7552504779	 2.3129489245	 0.10191
H	-3.3637427578	-1.3449501935	 3.4852758857	 0.10219
H	-1.8588114824	-0.537857983	 3.0123385568	 0.110113
H	-4.2335542006	-0.8983030194	 1.2173262036	 0.077995
65.5993	101.9822	156.0802	223.9722	345.4807	355.908	397.7384	476.4877	503.9744	624.8857	717.7626	734.3476	743.8643	792.056	853.4459	861.674	909.7981	925.4804	960.0726	986.6415	1017.1454	1046.4817	1056.0062	1085.4263	1094.7974	1131.8367	1147.9296	1199.4348	1214.9421	1219.7315	1238.613	1255.7624	1268.1538	1278.3709	1300.4561	1329.2351	1337.5666	1353.041	1372.2986	1402.6722	1443.7608	1468.3086	1486.9524	1493.9884	1507.9795	2970.7294	3042.0187	3051.5111	3060.455	3062.8227	3064.7173	3071.3194	3089.5344	3098.2703	3108.5534	3125.8509	3766.1279
OCC1CC2CCC2O1	OC[C@H]1C[C@H]2CC[C@H]2O1	
InChI=1S/C7H12O2/c8-4-6-3-5-1-2-7(5)9-6/h5-8H,1-4H2	InChI=1S/C7H12O2/c8-4-6-3-5-1-2-7(5)9-6/h5-8H,1-4H2/t5-,6-,7-/m1/s1
