17
gdb 49484	2.49018	1.6606	1.2391	5.1461	73.62	-0.234	-0.0363	0.1977	1027.362	0.134539	-421.807553	-421.799342	-421.798398	-421.840688	30.09	
O	-0.9664908433	 1.2705827752	 0.4513385285	-0.255297
C	-0.0346213865	 1.2652786102	-0.3202264307	 0.133267
C	 1.1845536455	 2.1000980236	-0.2123813881	-0.091766
C	 1.1484721723	 3.6287227957	-0.1713269373	-0.071225
C	-0.0242067481	 4.1637673314	 0.6609045589	-0.24856
C	 0.5687504032	 3.4187853309	 1.9025124392	-0.061263
C	-0.3334928779	 2.5425146181	 2.7456462156	 0.151462
O	-1.3882555789	 2.9278516063	 3.179124048	-0.261349
C	 1.6812917377	 2.8387930866	 1.0132734122	-0.125608
H	-0.0571105699	 0.6089992203	-1.2186852252	 0.086004
H	 1.9963232437	 1.742775594	-0.8415788276	 0.102223
H	 1.698531548	 4.1876527964	-0.9182213185	 0.104282
H	-0.0056210726	 5.2494146558	 0.7642682124	 0.115935
H	-1.0251332813	 3.8486499583	 0.3625731142	 0.135851
H	 1.0108397361	 4.1522388539	 2.5875402994	 0.113064
H	 0.0682142534	 1.5348972575	 2.9918846689	 0.072213
H	 2.7113766387	 2.6985646759	 1.3196991401	 0.100767
77.6725	118.4411	170.8643	187.953	215.6712	274.3728	386.0928	475.8806	518.5851	686.4037	723.3985	770.5674	807.4291	828.3581	905.6725	919.4054	957.3585	969.5534	999.8355	1028.6351	1059.9813	1079.0194	1102.844	1114.5984	1147.1384	1175.093	1209.5628	1253.4939	1296.5322	1317.4996	1341.4261	1413.5134	1427.8919	1436.9496	1486.2397	1802.9318	1824.9229	2881.9929	2882.9292	3040.6166	3086.2418	3139.8526	3143.9776	3176.1737	3192.4248
O=CC1C2CC(C=O)C12	O=C[C@H]1[C@H]2C[C@@H](C=O)[C@@H]12	
InChI=1S/C7H8O2/c8-2-4-1-5-6(3-9)7(4)5/h2-7H,1H2	InChI=1S/C7H8O2/c8-2-4-1-5-6(3-9)7(4)5/h2-7H,1H2/t4-,5+,6-,7+/m0/s1
