16
gdb 46146	4.57942	0.99681	0.84837	1.7271	69.71	-0.279	-0.0093	0.2697	1273.9211	0.125728	-437.942464	-437.934451	-437.933506	-437.975605	29.167	
O	 0.027343647	 0.0400209658	 0.5221543154	-0.308128
C	-0.0272476928	 1.1363239033	 0.0426245512	 0.412467
C	-1.3341521651	 1.9020922051	-0.1202965635	-0.353351
C	-1.3162305501	 3.0451152592	-1.1380530376	-0.223135
C	-0.0230581157	 3.8562400289	-0.9432934201	-0.176993
C	 1.1767296298	 2.9143342989	-1.1354512454	-0.066747
O	 1.1335152696	 1.773148303	-0.2773324114	-0.229873
C	 0.0748539312	 4.9802928183	-1.8721135336	 0.266638
N	 0.1569170712	 5.8583652302	-2.6186768848	-0.307512
H	-2.1108077807	 1.1681976492	-0.3438136326	 0.150163
H	-1.563634498	 2.2976043644	 0.8780962298	 0.149362
H	-1.3380900457	 2.6548802683	-2.161699925	 0.132336
H	-2.1972271824	 3.6808028028	-1.0189224042	 0.132606
H	 0.0037954884	 4.2570509431	 0.0782719652	 0.13903
H	 1.2140264671	 2.5778182072	-2.1788300962	 0.136005
H	 2.1164228661	 3.4209129622	-0.9072192772	 0.147132
67.3371	139.8961	152.0394	166.0242	313.8828	377.1503	426.7016	480.1367	522.1237	546.5955	589.1832	687.9929	760.9741	822.7628	917.2105	952.7468	998.7255	1022.4231	1094.1564	1104.9468	1109.9528	1184.476	1199.2664	1255.6039	1291.9772	1315.6837	1334.0697	1355.0791	1378.3428	1430.1377	1460.5116	1497.7867	1516.1575	1855.0681	2362.1258	3029.7784	3035.7495	3040.9725	3054.1271	3102.5184	3116.7233	3119.1071
O=C1CCC(CO1)C#N	O=C1CC[C@@H](CO1)C#N	
InChI=1S/C6H7NO2/c7-3-5-1-2-6(8)9-4-5/h5H,1-2,4H2	InChI=1S/C6H7NO2/c7-3-5-1-2-6(8)9-4-5/h5H,1-2,4H2/t5-/m1/s1
