21
gdb 112287	2.87493	1.1934	0.92849	3.2965	82.55	-0.2336	-0.0072	0.2265	1313.2255	0.183271	-387.121044	-387.112428	-387.111483	-387.154418	33.362	
C	-0.0589777987	 1.5398620842	 0.1285749018	-0.385132
C	 0.0119512797	 0.0116867695	 0.0462347865	-0.181111
C	 0.682057535	-0.506420014	-1.231850159	 0.021416
C	 2.1708227517	-0.1228864257	-1.400890258	-0.362289
C	 2.807980271	-1.2793103684	-2.1904684925	 0.417995
O	 3.7779014059	-1.1935007441	-2.9021891113	-0.33328
C	 1.9700452528	-2.4991031186	-1.9829041524	-0.152975
C	 1.6248931397	-2.8139405523	-0.5305580789	-0.290325
C	 0.6608761841	-2.0349218775	-1.363355035	-0.04989
H	 0.9393840325	 1.9896207616	 0.1288408911	 0.120629
H	-0.6085935526	 1.9563813692	-0.7231676881	 0.115454
H	-0.5674480122	 1.8629236735	 1.0419860328	 0.114375
H	 0.5504784938	-0.3820700217	 0.9181993263	 0.094851
H	-1.0029320517	-0.4027895217	 0.1040444304	 0.094521
H	 0.1320856985	-0.1021502267	-2.0927789843	 0.079696
H	 2.3339898628	 0.8186420155	-1.9273924748	 0.129241
H	 2.6789473199	-0.035626672	-0.4314043832	 0.123352
H	 2.0516357404	-3.310538944	-2.6946145912	 0.104763
H	 1.3891115848	-3.8516150022	-0.3234681749	 0.124697
H	 2.1843342125	-2.3230525276	 0.2588443919	 0.121097
H	-0.2725668998	-2.508255747	-1.6478645972	 0.092917
98.0319	102.7301	150.6949	199.2685	250.4878	321.9604	380.7341	442.0797	474.5387	532.5195	597.1984	658.5641	774.9596	779.9077	808.4554	837.9394	882.9197	908.5418	957.5331	960.8948	963.2832	1009.0675	1052.7984	1062.5376	1077.8673	1105.4531	1123.9108	1147.792	1190.2852	1196.5518	1210.9834	1256.4431	1292.9126	1305.0816	1332.7653	1345.7927	1385.8656	1386.3288	1412.961	1463.0496	1485.2841	1494.9551	1501.1976	1507.352	1833.3356	3006.4898	3016.2489	3032.0272	3033.3719	3049.5004	3098.3801	3105.4478	3120.7189	3133.7174	3167.1932	3200.5885	3219.1435
CCC1CC(=O)C2CC12	CC[C@H]1CC(=O)[C@H]2C[C@@H]12	
InChI=1S/C8H12O/c1-2-5-3-8(9)7-4-6(5)7/h5-7H,2-4H2,1H3	InChI=1S/C8H12O/c1-2-5-3-8(9)7-4-6(5)7/h5-7H,2-4H2,1H3/t5-,6-,7-/m0/s1
