19
gdb 30362	2.96503	1.60999	1.09631	4.2192	81.25	-0.2109	0.0383	0.2492	1107.7334	0.163379	-382.125345	-382.117825	-382.116881	-382.157325	29.274	
C	-0.1030347745	 1.5753145788	-0.0413055773	-0.396469
C	 0.0308540921	 0.0517436231	 0.0157273634	-0.128042
C	 0.8314734468	-0.5554020358	-1.1778489374	-0.218731
C	 1.5096003352	-1.8319165322	-0.6248917539	-0.193905
N	 1.620996467	-1.5116525121	 0.7915875077	-0.014304
C	 2.2710167803	-1.974418747	 1.8932948376	-0.022501
N	 1.9297408796	-1.2898526632	 2.9670643484	-0.274419
C	 1.0113543476	-0.3530834387	 2.5397771592	-0.236
C	 0.8063018083	-0.4772697377	 1.1892410456	 0.329569
H	 0.8820729681	 2.0526699716	-0.0408387883	 0.122981
H	-0.6373814165	 1.8876000464	-0.9445829629	 0.113967
H	-0.6591259709	 1.9522494495	 0.822388524	 0.125213
H	-0.9799145917	-0.3822317323	 0.0199053759	 0.091425
H	 0.2047192963	-0.7631273237	-2.0482507958	 0.109057
H	 1.6032909739	 0.1582809706	-1.4851998104	 0.116406
H	 0.8863628055	-2.7229254702	-0.7690801723	 0.122503
H	 2.4888138478	-2.0255527246	-1.0705415974	 0.126435
H	 2.9782878166	-2.7894319337	 1.8597457211	 0.123837
H	 0.5667804685	 0.3477454815	 3.2296949227	 0.102978
116.8481	158.5758	210.2883	228.3116	271.9206	431.7444	476.5649	562.1897	632.927	672.2313	706.8222	743.5229	793.3982	830.7837	837.4023	920.249	944.7591	964.4729	987.3343	1045.6559	1112.1035	1127.2955	1142.4011	1144.907	1207.2357	1230.9114	1245.8937	1284.6498	1312.0742	1320.3611	1336.9464	1364.2937	1401.4682	1410.6876	1415.4554	1487.9216	1492.4011	1499.1405	1503.3839	1528.8688	1589.5531	2988.6528	3030.0912	3034.6867	3052.3966	3091.5995	3104.5713	3108.4714	3112.7367	3246.9046	3250.8699
CC1CCN2C=NC=C12	C[C@H]1CCn2cncc12	
InChI=1S/C7H10N2/c1-6-2-3-9-5-8-4-7(6)9/h4-6H,2-3H2,1H3	InChI=1S/C7H10N2/c1-6-2-3-9-5-8-4-7(6)9/h4-6H,2-3H2,1H3/t6-/m0/s1
