20
gdb 22333	2.25106	1.31996	0.87983	0.8335	85.44	-0.2304	0.0131	0.2435	1350.2868	0.16944	-403.137301	-403.127813	-403.126869	-403.1715	35.566	
C	-0.1165263717	 1.5965184696	 0.0562777883	-0.383742
C	-0.0133371134	 0.0616043171	 0.0172708905	-0.117752
C	 0.7642643174	-0.4785061205	-1.1611691371	-0.167469
C	 1.8131085773	-1.2310855129	-0.8185540704	 0.306667
C	 2.7837971914	-1.9055525314	-1.734701477	-0.488833
C	 1.9342560413	-1.3539228381	 0.6851849243	-0.395398
C	 0.7728619923	-0.5230118126	 1.1860739748	 0.390278
N	 0.439398621	-0.2913400498	 2.3902629146	-0.226156
O	 1.3151821178	-0.9285700553	 3.2913478284	-0.394601
H	 0.8780941783	 2.0530979016	 0.0458346971	 0.114987
H	-0.6719293936	 1.9693718168	-0.8105893966	 0.108796
H	-0.6323538256	 1.9187380946	 0.9644500534	 0.132086
H	-1.0363184676	-0.3425076981	 0.0239613672	 0.097152
H	 0.4774478449	-0.2524279998	-2.1832985348	 0.086241
H	 2.5482962096	-1.7127147403	-2.7848135325	 0.123562
H	 3.8096706115	-1.5638215214	-1.5460411439	 0.126356
H	 2.7863636308	-2.9920867351	-1.5791142456	 0.126289
H	 1.8618316593	-2.3919305915	 1.0395024591	 0.12841
H	 2.8915955368	-0.9817924562	 1.0759121431	 0.128749
H	 0.9500329224	-0.6713641366	 4.1444496071	 0.304377
67.4896	137.9538	178.3199	194.0727	202.3432	229.9749	304.1764	352.5252	373.8893	419.6052	478.6825	506.0766	561.5994	590.0711	694.6372	804.44	843.7149	887.4416	921.7754	956.2685	974.7359	1008.4204	1022.7382	1054.168	1091.6009	1103.5586	1165.4286	1178.4436	1214.403	1282.6324	1295.4123	1327.7638	1343.6255	1394.6238	1408.4105	1415.7526	1458.8827	1479.1699	1489.1187	1493.5636	1497.7952	1718.3036	1761.3833	2993.8371	3010.9905	3017.3262	3030.1623	3035.8643	3061.9593	3105.4562	3111.0125	3122.3175	3181.6438	3820.1114
CC1C=C(C)CC1=NO	C[C@H]1C=C(C)CC1=NO	
InChI=1S/C7H11NO/c1-5-3-6(2)7(4-5)8-9/h3,6,9H,4H2,1-2H3	InChI=1S/C7H11NO/c1-5-3-6(2)7(4-5)8-9/h3,6,9H,4H2,1-2H3/t6-/m0/s1
