19
gdb 65131	3.40741	1.24038	1.15841	1.5553	74.59	-0.2324	0.0686	0.301	1126.532	0.158436	-422.925917	-422.917909	-422.916965	-422.958677	31.74	
O	 0.6045993033	 0.6229903883	-1.108214313	-0.46126
C	 0.1546365548	 0.1014852703	 0.1221710519	 0.376516
C	 1.2050607759	-0.4880419368	 1.0325543738	-0.329898
C	 0.6273264657	 0.8836925907	 1.3119105686	-0.297113
C	-1.2129037116	-0.540748276	 0.0431267374	-0.06233
C	-2.3675472734	-0.2782324527	 1.0560578418	 0.027822
C	-2.5581973996	 1.1533892381	 0.4950985439	-0.229792
C	-2.4015853423	 0.1589585698	-0.6759223546	 0.045156
O	-3.3173679177	-0.7700484878	 0.0327854935	-0.312213
H	 0.7560325269	-0.1191782534	-1.7046043605	 0.281569
H	 0.9236680866	-1.3087351453	 1.6846419554	 0.113927
H	 2.2172675891	-0.5329978056	 0.6465898905	 0.114938
H	 1.2547563154	 1.742515812	 1.1031319207	 0.126247
H	-0.0361265844	 0.9983143212	 2.1613676457	 0.117721
H	-1.1562264184	-1.5990676183	-0.2322968778	 0.08116
H	-2.4924409391	-0.6519661141	 2.073301958	 0.091768
H	-3.5640169557	 1.5563093297	 0.6179765783	 0.106805
H	-1.7743177022	 1.893377844	 0.6557842249	 0.114627
H	-2.5636302335	 0.3095643058	-1.7428870485	 0.094351
54.7541	152.4975	191.109	287.052	330.7086	340.0267	434.4087	469.4774	516.62	584.5331	727.5066	771.4931	807.4803	830.03	866.4485	882.1384	906.6609	924.5915	929.7688	953.7381	978.8432	1014.7652	1031.1269	1050.5343	1068.2392	1084.5101	1096.9579	1146.1686	1172.1012	1191.8764	1203.9184	1217.8286	1249.8624	1257.1765	1277.9121	1289.6528	1382.2176	1383.8877	1451.6107	1489.4321	1497.9336	3057.8813	3085.3893	3108.174	3125.2136	3128.7723	3140.3112	3163.4295	3216.2623	3233.2569	3789.157
OC1(CC1)C1C2CC1O2	OC1(CC1)[C@H]1[C@H]2C[C@@H]1O2	
InChI=1S/C7H10O2/c8-7(1-2-7)6-4-3-5(6)9-4/h4-6,8H,1-3H2	InChI=1S/C7H10O2/c8-7(1-2-7)6-4-3-5(6)9-4/h4-6,8H,1-3H2/t4-,5+,6+
