15
gdb 7618	3.55677	1.64061	1.35978	5.2138	57.93	-0.2527	0.0162	0.2689	913.4898	0.118918	-436.954216	-436.946514	-436.94557	-436.986138	29.166	
N	-0.1308549239	 1.0438325991	-0.0620024461	-0.524604
H	 1.1606286232	 0.2146824971	 1.3054697185	 0.290616
H	 0.2923954048	 1.8428968384	-0.5207274579	 0.249743
H	-0.7377871185	 0.5864508407	-0.7335018798	 0.25081
C	-0.8469943831	 1.4457224438	 1.1227783462	-0.075821
C	-1.488796557	 0.3764708966	 1.9584663035	-0.33051
C	-0.1772988244	 0.9727836341	 2.4145462445	 0.260268
O	 0.992954744	 0.2266659056	 2.2677525448	-0.487252
C	-0.1624044167	 1.91598975	 3.5767733197	 0.397836
O	 1.01277578	 1.9582165124	 4.2263591899	-0.379393
O	-1.1074244062	 2.5935928019	 3.8897285479	-0.356353
H	-1.3052975017	 2.4309701524	 1.1546716824	 0.1181
H	-2.3771378917	 0.649715028	 2.5147861639	 0.14992
H	-1.4329265074	-0.6476969103	 1.6055421465	 0.124354
H	 1.6022143187	 1.3295948502	 3.7738736861	 0.312286
90.4022	162.7639	210.6679	286.1593	297.8593	367.5586	417.5315	496.3407	521.7806	630.0036	640.9254	709.1758	726.794	755.4122	840.8254	852.9606	913.111	917.6536	999.0545	1060.2092	1107.1501	1151.0666	1177.5439	1238.3324	1265.5486	1307.9526	1383.0933	1390.3897	1431.9704	1467.4536	1654.7913	1857.8377	3140.1911	3141.0362	3243.0388	3513.4816	3573.4373	3592.1427	3665.33
[NH3+]C1CC1(O)C([O-])=O	N[C@H]1C[C@]1(O)C(=O)O	
InChI=1S/C4H7NO3/c5-2-1-4(2,8)3(6)7/h2,8H,1,5H2,(H,6,7)	InChI=1S/C4H7NO3/c5-2-1-4(2,8)3(6)7/h2,8H,1,5H2,(H,6,7)/t2-,4+/m0/s1
