20
gdb 33078	4.82701	0.75287	0.68344	1.4968	83.6	-0.1811	0.0434	0.2245	1690.5733	0.171068	-403.184874	-403.175338	-403.174394	-403.219821	35.094	
C	-0.0010142197	 1.5825887711	 0.0679255463	-0.378974
C	-0.0050047332	 0.0541096586	 0.1424212972	-0.150141
C	-1.3924323728	-0.5540978352	-0.1350216104	-0.312458
C	-1.4168735638	-2.0507301602	-0.0542354179	 0.29208
C	-1.6134691335	-2.9219821301	-1.073901171	-0.142496
O	-1.5504225615	-4.2218665012	-0.6183561137	-0.179196
C	-1.3133908185	-4.1561833752	 0.7112337668	 0.395826
N	-1.1434986427	-5.3811326027	 1.3434162113	-0.593347
C	-1.2208976693	-2.8612359081	 1.1251693736	-0.38375
H	 0.9954553286	 1.9893207864	 0.2667980049	 0.110701
H	-0.3112150404	 1.9321336958	-0.9233723201	 0.112621
H	-0.6905653775	 2.0177769021	 0.8002595926	 0.111847
H	 0.7120931846	-0.3586355487	-0.5773507127	 0.100805
H	 0.3393015994	-0.2701000143	 1.1320991091	 0.098642
H	-2.1119721506	-0.1326004263	 0.5807601039	 0.099873
H	-1.7312472524	-0.2386367921	-1.1295112065	 0.096384
H	-1.8097440274	-2.8087359099	-2.1263812912	 0.123585
H	-1.7066663485	-6.1121756737	 0.9270274157	 0.254012
H	-1.3066761001	-5.3300855499	 2.3393927731	 0.253992
H	-1.0421792209	-2.5184788265	 2.1322309388	 0.089993
59.5384	84.282	97.4952	178.4987	235.5091	247.0006	284.2099	314.9254	397.2553	432.1654	608.6965	644.7957	665.4183	677.9578	729.8749	745.216	763.0493	777.3692	875.0075	897.3987	965.6612	999.3712	1043.9647	1086.7324	1091.3366	1112.5513	1145.8078	1193.8285	1242.9407	1270.2642	1312.2835	1321.9235	1342.6012	1385.3965	1411.6541	1457.0641	1479.9065	1492.3929	1499.8969	1510.4266	1604.3831	1635.1185	1672.5415	3006.954	3027.2057	3030.2471	3044.7217	3066.6401	3095.6203	3100.8944	3251.1174	3283.5522	3543.9684	3645.3876
CCCC1=COC(N)=C1	CCCc1coc(N)c1	
InChI=1S/C7H11NO/c1-2-3-6-4-7(8)9-5-6/h4-5H,2-3,8H2,1H3	InChI=1S/C7H11NO/c1-2-3-6-4-7(8)9-5-6/h4-5H,2-3,8H2,1H3
