19
gdb 89768	2.26303	1.55459	1.06506	4.6361	80.35	-0.2287	0.0259	0.2546	1174.8376	0.159125	-382.051052	-382.042205	-382.041261	-382.084888	33.331	
C	-0.7193077779	 1.2623208339	-0.0297234368	-0.394512
C	 0.1382333562	 0.0126232694	 0.0042800125	 0.051114
N	 1.4453573479	 0.1295901319	-0.6983780767	-0.362662
C	 2.1484709141	-0.4948663197	 0.4232047267	 0.390318
C	 3.0762955945	-1.670841028	 0.3625075796	-0.341142
C	 3.5832633665	-0.2965015737	 0.7743854083	-0.313487
C	 0.9049106274	-0.3654920553	 1.3261012761	-0.294051
C	 0.9794732064	 0.6642707538	 2.3500152463	 0.304124
N	 1.0472669749	 1.4759258064	 3.1709149093	-0.343755
H	-0.1583134215	 2.129480652	 0.3270280653	 0.145518
H	-1.0438246012	 1.4627926437	-1.0559953446	 0.119115
H	-1.6125988155	 1.1412683439	 0.5921252751	 0.121493
H	-0.4474146447	-0.8571437477	-0.3216432122	 0.080512
H	 1.4997761664	-0.3824442101	-1.5731463855	 0.21925
H	 2.9963381178	-2.4430640895	 1.1215331364	 0.119406
H	 3.358654435	-2.0396795159	-0.6192953209	 0.116049
H	 4.1919283637	 0.2526950998	 0.0638717091	 0.125141
H	 3.8414444423	-0.1298782155	 1.8150249914	 0.132273
H	 0.571505798	-1.2987905793	 1.7848135605	 0.125294
48.3737	121.6493	153.5037	214.4265	240.4342	297.934	364.9277	376.1187	436.5714	488.2714	547.516	630.8994	725.3135	762.3105	787.7976	837.086	902.2547	922.4593	935.6008	971.6195	982.0542	1033.2566	1053.5649	1073.3812	1078.8399	1105.9651	1159.2565	1164.0772	1184.4503	1232.2047	1300.2909	1329.2639	1341.4088	1365.4796	1405.7613	1426.0813	1456.692	1483.9215	1492.2069	1502.1869	2353.3065	3007.5933	3038.8566	3089.1399	3105.8557	3118.269	3129.4737	3131.8543	3200.4531	3222.2724	3515.5004
CC1NC2(CC2)C1C#N	C[C@H]1NC2(CC2)[C@H]1C#N	
InChI=1S/C7H10N2/c1-5-6(4-8)7(9-5)2-3-7/h5-6,9H,2-3H2,1H3	InChI=1S/C7H10N2/c1-5-6(4-8)7(9-5)2-3-7/h5-6,9H,2-3H2,1H3/t5-,6+/m1/s1
