18
gdb 89839	3.2548	1.22271	0.98412	2.3274	71.98	-0.2512	-0.0325	0.2187	1193.5422	0.147827	-439.085556	-439.077416	-439.076472	-439.118444	31.51	
O	 0.5083176299	 0.815252347	 0.8306875496	-0.444765
C	-0.128196386	-0.1426444114	 0.0375521487	 0.067356
C	-1.5534605255	 0.2022729595	-0.4182738608	-0.338
C	-1.7603003352	-0.7314563977	-1.6128206673	 0.351769
C	-2.7351196048	-1.8504707276	-1.5462554387	-0.292451
N	-2.9739451175	-0.6899212756	-2.4270926796	-0.365852
C	-0.4125040444	-0.8574400019	-2.3259054862	-0.393968
C	 0.5942794785	-0.3667209469	-1.2935392147	 0.364606
O	 1.7560731289	-0.0865392616	-1.4579519987	-0.327872
H	 1.4063601632	 0.8928956795	 0.4734451335	 0.292602
H	-0.1571661611	-1.1257625491	 0.5463043358	 0.096197
H	-2.3052519794	 0.0718668402	 0.3638572295	 0.111551
H	-1.5714142614	 1.2517453903	-0.7403097144	 0.118815
H	-2.5311818297	-2.7817972707	-2.0685612925	 0.120558
H	-3.3354390982	-1.957269033	-0.6461018564	 0.115604
H	-3.6590616312	-0.0672221859	-2.004229739	 0.233616
H	-0.1795139102	-1.8728753434	-2.6601195803	 0.13934
H	-0.3607958161	-0.2114155715	-3.2094156785	 0.150894
70.1937	108.546	255.4071	291.3424	327.4123	367.5063	376.9795	411.357	473.1305	496.328	594.844	623.7841	744.5944	764.2727	842.7683	919.3997	937.7133	940.3734	958.8294	985.7598	1027.5189	1067.0838	1109.1181	1130.8865	1156.7702	1169.6658	1184.4118	1242.255	1262.2404	1272.5804	1279.3288	1316.0649	1375.8902	1404.8091	1419.094	1441.6034	1495.2829	1513.8636	1839.5063	2921.3374	3030.5353	3054.198	3095.618	3100.8006	3102.5758	3187.9248	3489.1117	3708.1442
OC1CC2(CN2)CC1=O	O[C@H]1C[C@]2(CN2)CC1=O	
InChI=1S/C6H9NO2/c8-4-1-6(3-7-6)2-5(4)9/h4,7-8H,1-3H2	InChI=1S/C6H9NO2/c8-4-1-6(3-7-6)2-5(4)9/h4,7-8H,1-3H2/t4-,6+/m0/s1
