18
gdb 40330	4.29331	1.33584	1.31782	1.1318	79.63	-0.2176	0.0828	0.3004	1028.1006	0.14757	-364.659679	-364.652664	-364.65172	-364.691203	28.581	
C	-0.0527589056	 1.4128652758	-0.1528455328	-0.237213
C	 1.2874487799	 0.7651997548	-0.071069152	-0.237207
N	 0.0675275848	-0.0216974385	 0.1020060544	-0.17939
C	-0.2360602362	-0.486659521	 1.3942105162	 0.414737
C	-0.0556048535	 0.0722867853	 2.8648212282	-0.180615
C	 0.0677859097	-1.3588480767	 3.3683488844	-0.081712
C	-1.2991001474	-0.6983251091	 3.2852971813	-0.081715
C	-1.4789688197	-1.2408825984	 1.8373836994	-0.158714
C	-0.1033733574	-1.9061025448	 1.9211499263	-0.158728
H	-0.3482230502	 2.0534542619	 0.6752448671	 0.118618
H	-0.4753360276	 1.6843172816	-1.1158557483	 0.117584
H	 1.8549950108	 0.5581770305	-0.9736662599	 0.117586
H	 1.8883428864	 0.9726314547	 0.8117036678	 0.118619
H	 0.3585337911	 0.9816666694	 3.2809851873	 0.082665
H	 0.6050582492	-1.7355890629	 4.2285749175	 0.084518
H	-2.0091447337	-0.472364863	 4.0697478503	 0.084517
H	-2.3455603817	-1.5256128379	 1.2569873122	 0.088222
H	 0.265072841	-2.7881226817	 1.4159762005	 0.088227
87.6947	164.3113	171.6976	384.0069	427.8739	530.3512	662.8012	732.5211	741.7653	781.7096	800.6447	803.7395	832.5154	847.6479	877.9006	885.0309	922.9133	929.4872	938.7892	953.4319	976.5792	1008.1234	1020.7414	1041.6816	1056.8123	1086.633	1111.5702	1117.7547	1161.4738	1167.2841	1175.6281	1195.7215	1245.3781	1258.4575	1287.9913	1330.2438	1452.7241	1490.4036	1515.1607	3102.1054	3105.8574	3183.7362	3186.7932	3188.9643	3198.5047	3205.5483	3208.6491	3218.2889
C1CN1C12C3C4C3C1C24	C1CN1[C@@]12[C@@H]3[C@H]4[C@@H]3[C@@H]1[C@@H]24	
InChI=1S/C8H9N/c1-2-9(1)8-5-3-4(5)7(8)6(3)8/h3-7H,1-2H2	InChI=1S/C8H9N/c1-2-9(1)8-5-3-4(5)7(8)6(3)8/h3-7H,1-2H2/t3-,4+,5-,6+,7-,8-
