19
gdb 38441	3.94844	1.31553	1.20593	1.6966	81.03	-0.2269	0.0125	0.2394	1090.2177	0.160398	-385.859818	-385.852442	-385.851498	-385.891771	29.705	
C	 0.1172932437	 1.5640874288	 0.1054308015	-0.309999
C	 1.3285871397	 0.703251761	-0.055630814	 0.100486
O	 1.6737000985	 0.0706043324	 1.177710265	-0.34059
C	 0.4126768116	-0.6881635399	 1.1669675278	 0.437576
C	 0.662985553	-2.2054220704	 1.0087398818	-0.290524
C	-0.3419133386	-2.9086508014	 1.9539206618	-0.267256
C	-0.817169203	-1.7865364571	 2.8437845315	-0.066788
C	-0.402659916	-0.5924555155	 2.423244656	-0.126368
C	-0.0354322944	 0.0680388513	-0.0956600796	-0.191079
H	-0.0872634449	 2.029055906	 1.0653498638	 0.114275
H	-0.1568800206	 2.1603330933	-0.7600803116	 0.111684
H	 2.1070548413	 0.8311803777	-0.7985958809	 0.099733
H	 0.5816615152	-2.535436789	-0.02988582	 0.099251
H	 1.6901720198	-2.3927772261	 1.3331041673	 0.123642
H	-1.183779425	-3.3470714005	 1.4015611018	 0.109857
H	 0.111333168	-3.7311382334	 2.5190826223	 0.1081
H	-1.4514829947	-1.958291335	 3.7071452075	 0.096957
H	-0.6360244978	 0.3600879288	 2.8832063572	 0.095408
H	-0.5988954058	-0.3662216207	-0.9111289592	 0.095636
69.7511	166.088	214.9761	292.1626	410.4737	461.8895	485.1113	515.0789	690.954	747.2803	773.5578	794.6109	808.6046	847.3111	879.8323	917.9865	930.2079	968.3954	975.023	981.235	993.9596	1022.4652	1039.0838	1051.5174	1078.1832	1084.7549	1098.5869	1142.284	1181.1988	1194.7326	1217.774	1252.096	1284.467	1293.8174	1324.222	1350.1158	1391.3445	1474.7066	1478.798	1496.6336	1681.3157	3019.4123	3052.5806	3066.5546	3111.2613	3116.6155	3178.4942	3182.8082	3195.0706	3206.9306	3214.1259
C1C2OC3(CCC=C3)C12	C1[C@H]2O[C@]3(CCC=C3)[C@@H]12	
InChI=1S/C8H10O/c1-2-4-8(3-1)6-5-7(6)9-8/h1,3,6-7H,2,4-5H2	InChI=1S/C8H10O/c1-2-4-8(3-1)6-5-7(6)9-8/h1,3,6-7H,2,4-5H2/t6-,7+,8+/m0/s1
