17
gdb 104485	2.68907	1.61032	1.18292	2.5806	69.11	-0.2311	-0.0347	0.1964	1048.5165	0.133421	-458.877947	-458.869533	-458.868589	-458.911174	30.973	
C	 0.7106668674	-0.4525444652	 1.3913040787	-0.264287
O	 0.1123935286	-0.1467475955	 0.1357606229	-0.296364
C	-1.1671627409	-0.6419671942	-0.0539649587	 0.337129
C	-2.2318539463	 0.0489399938	 0.7820397045	 0.094522
O	-1.9800572639	 0.9248173791	 1.5722831024	-0.264113
C	-1.5588574945	-0.9130870415	-1.5453951341	-0.004187
C	-0.5624107239	-2.0935119799	-1.5994566876	-0.233188
C	-1.3894987615	-2.1924521191	-0.2966971529	-0.023504
O	-2.6022903939	-1.8436742354	-1.064042897	-0.306671
H	 1.7210032614	-0.0402953841	 1.3574017509	 0.13368
H	 0.1607804218	 0.0020572688	 2.2190233959	 0.147494
H	 0.7784052539	-1.5392798943	 1.5445431321	 0.104526
H	-3.262256391	-0.3098669218	 0.6100534331	 0.11651
H	-1.8382957063	-0.1886439614	-2.309982539	 0.111082
H	-0.8028954523	-2.8534335599	-2.3432335986	 0.114744
H	 0.4992763143	-1.8661367908	-1.5229131454	 0.126812
H	-1.4722725231	-3.0031375385	 0.4272441326	 0.105815
86.8803	107.3922	158.6672	207.1151	248.7654	275.9949	346.8816	444.8916	460.3684	543.4	611.519	730.5152	788.3358	831.6109	880.4727	891.2558	919.7125	1000.4872	1025.0621	1037.8676	1078.0705	1096.9043	1138.5213	1168.8152	1173.0104	1177.1327	1207.8643	1212.6939	1247.6022	1277.539	1285.1137	1401.6056	1469.8223	1482.0706	1485.9424	1513.0438	1815.6026	2977.4547	3001.042	3093.8611	3097.439	3120.9636	3129.5395	3137.9614	3178.393
COC1(C=O)C2CC1O2	CO[C@@]1(C=O)[C@H]2C[C@@H]1O2	
InChI=1S/C6H8O3/c1-8-6(3-7)4-2-5(6)9-4/h3-5H,2H2,1H3	InChI=1S/C6H8O3/c1-8-6(3-7)4-2-5(6)9-4/h3-5H,2H2,1H3/t4-,5+,6+
