18
gdb 47110	2.70379	1.77819	1.21904	4.9982	70.85	-0.2518	0.0532	0.305	1022.3872	0.151779	-439.151003	-439.143775	-439.142831	-439.183096	27.619	
O	 0.1298832835	 0.2271419694	 0.5969654078	-0.390047
C	 0.0569335084	 1.3344084204	 0.1406926498	 0.463331
O	-1.1039298423	 2.0564780749	 0.1063899172	-0.242273
C	-0.8582403311	 3.3590362103	-0.4356027443	-0.114044
C	 0.6727375125	 3.4901214749	-0.4884370644	-0.002352
C	 1.4053973442	 4.1361805926	 0.7002161333	-0.230449
C	 2.7574688966	 3.3907787823	 0.7009213314	-0.21896
C	 2.4320964668	 1.9694171036	 0.1551672825	-0.177264
N	 1.0818881652	 2.0881736313	-0.4131893129	-0.131897
H	-1.3048046294	 3.4172945943	-1.433428408	 0.122577
H	-1.3335081711	 4.1021079976	 0.2104263978	 0.124947
H	 0.996497659	 3.9472709803	-1.4304397696	 0.090126
H	 1.5141802041	 5.2194422383	 0.6052382907	 0.106154
H	 0.8498648876	 3.9305304347	 1.6229528099	 0.11613
H	 3.4652796213	 3.8957548086	 0.0361220519	 0.110449
H	 3.2142325228	 3.3535525296	 1.6921374391	 0.116317
H	 3.1500989071	 1.6594505627	-0.6092616971	 0.115475
H	 2.4124659948	 1.1989504242	 0.9298030449	 0.141781
80.6492	156.878	177.7591	254.6476	321.165	494.1655	558.7773	633.0631	662.2818	744.1788	779.3283	787.5747	837.4786	872.0166	895.7745	938.0251	1004.3856	1012.7718	1036.1927	1064.4236	1099.7181	1141.0588	1174.2727	1193.6932	1221.2679	1229.119	1246.2706	1268.671	1311.4923	1331.2309	1354.4864	1361.6272	1390.8334	1418.1563	1489.411	1501.2301	1520.486	1527.7708	1872.3751	3029.4588	3042.2863	3050.3905	3052.8598	3062.4396	3097.9163	3099.097	3105.2492	3118.8382
O=C1OCC2CCCN12	O=C1OC[C@H]2CCCN12	
InChI=1S/C6H9NO2/c8-6-7-3-1-2-5(7)4-9-6/h5H,1-4H2	InChI=1S/C6H9NO2/c8-6-7-3-1-2-5(7)4-9-6/h5H,1-4H2/t5-/m1/s1
