19
gdb 71955	2.85495	1.95035	1.66783	1.6076	73.03	-0.2517	0.089	0.3407	902.8412	0.161797	-423.038207	-423.031484	-423.03054	-423.068829	28.482	
C	 0.0022079715	 1.5312473314	-0.0582854963	-0.482877
C	-0.0196351107	 0.0284568038	 0.0595704839	 0.405601
C	-1.3056253134	-0.7450470849	 0.4407683718	-0.275677
C	-0.3917390503	-1.848658889	 1.0313218538	-0.088133
C	 0.213875902	-2.7128570563	-0.1002836651	-0.235333
C	 1.2533955416	-1.7122255123	-0.6414319051	 0.167184
O	 1.9107459737	-1.2742010314	 0.5380592153	-0.242886
C	 0.7539442724	-0.7736067052	 1.1729815972	 0.030294
O	 0.5692470287	-0.5608370946	-1.1205727236	-0.309772
H	 1.029578786	 1.8899456172	-0.1696933549	 0.130953
H	-0.5682135185	 1.8563280779	-0.9346153601	 0.128276
H	-0.4399336226	 1.9952768132	 0.8286765666	 0.112212
H	-1.8739435406	-0.2203563598	 1.2154702979	 0.097179
H	-1.9726329211	-1.0190181426	-0.3805365288	 0.101138
H	-0.7274086699	-2.4079269677	 1.9036274925	 0.071205
H	 0.7168535678	-3.6031541021	 0.2867369248	 0.107212
H	-0.5175039381	-3.0106878876	-0.8549135109	 0.10646
H	 1.9689156371	-2.0555740532	-1.3872950653	 0.090511
H	 0.9767632344	-0.3115573167	 2.1312953463	 0.086454
203.8215	227.5392	269.2941	372.4045	400.146	478.0529	551.827	612.3616	648.784	723.0672	784.4099	832.1443	840.5159	858.1453	883.2131	893.0105	920.6732	948.2793	953.0372	999.1884	1023.0644	1041.1806	1065.9128	1116.7231	1117.4956	1159.2937	1176.6228	1206.4131	1218.0393	1241.1419	1252.9176	1274.9038	1323.2111	1332.5639	1346.897	1360.4286	1411.0696	1472.1118	1482.1178	1485.7433	1492.8547	3037.0356	3049.5851	3064.2576	3105.8035	3108.8968	3114.8525	3116.8494	3121.3064	3141.1314	3160.322
CC12CC3CC(OC13)O2	C[C@]12C[C@H]3C[C@H](O[C@@H]13)O2	
InChI=1S/C7H10O2/c1-7-3-4-2-5(9-7)8-6(4)7/h4-6H,2-3H2,1H3	InChI=1S/C7H10O2/c1-7-3-4-2-5(9-7)8-6(4)7/h4-6H,2-3H2,1H3/t4-,5-,6-,7+/m1/s1
