17
gdb 45142	3.04491	1.52355	1.19188	3.9672	73.94	-0.2491	0.0251	0.2742	1045.5534	0.137185	-417.956429	-417.949114	-417.948169	-417.98841	28.714	
N	 0.245314076	 1.1211368791	 0.3381844412	-0.543042
C	 0.0642015976	-0.0722905046	 0.008222209	 0.451495
O	 0.9262147847	-0.9762721431	-0.6046395665	-0.274769
C	-0.1186187623	-1.9915719378	-0.6789988679	 0.108832
C	-0.0657644645	-2.9579121261	 0.5237596013	-0.340324
C	-1.0258999952	-2.0083619593	 1.2705409982	 0.353583
C	-2.1279844943	-2.408237142	 2.1731128312	-0.311645
N	-0.9996603736	-1.5918616677	 2.6605674622	-0.341549
C	-1.0955844011	-1.0393909155	 0.0712747164	-0.246151
H	 1.1939159078	 1.4291298158	 0.1171034043	 0.228077
H	-0.2468342916	-2.3685205539	-1.692058471	 0.098596
H	-0.4874472744	-3.9466439031	 0.3228024564	 0.115286
H	 0.9367545588	-3.0693694779	 0.9451326322	 0.122004
H	-3.0818259791	-1.8882360526	 2.137582445	 0.125951
H	-2.1898850473	-3.4548563869	 2.4630913709	 0.114065
H	-0.3441503414	-2.1610717462	 3.1904771993	 0.235082
H	-2.06919646	-0.7032206182	-0.2784313923	 0.104507
85.3753	128.002	250.5132	331.0694	368.946	395.7628	453.838	544.4397	628.1696	752.1658	818.0398	829.9448	850.6589	868.0943	871.2311	909.3802	939.8192	968.0453	976.7985	995.6901	1009.2847	1015.3327	1067.6569	1119.957	1152.0361	1167.3107	1192.6933	1218.7269	1239.4654	1255.6418	1264.9124	1297.4723	1333.5288	1406.7496	1461.1059	1512.9841	1826.5221	3057.0072	3099.4165	3112.9988	3132.7181	3146.4903	3185.6108	3475.7925	3499.8542
N=C1OC2CC3(CN3)C12	[NH][C]1O[C@H]2C[C@]3(CN3)[C@@H]12	
InChI=1S/C6H8N2O/c7-5-4-3(9-5)1-6(4)2-8-6/h3-4,7-8H,1-2H2	InChI=1S/C6H8N2O/c7-5-4-3(9-5)1-6(4)2-8-6/h3-4,7-8H,1-2H2/t3-,4+,6-/m0/s1
