21
gdb 124576	3.97212	0.96067	0.87855	2.2129	85.05	-0.2374	0.0248	0.2621	1412.4181	0.18366	-383.302795	-383.293614	-383.29267	-383.33764	33.953	
C	 0.0275258526	 1.38818638	 0.4186135727	-0.379628
C	-0.0156363708	-0.0793882234	-0.0220992271	 0.028718
C	-1.4592034551	-0.5825244469	-0.1521274768	-0.388244
C	 0.7272400557	-0.3055151487	-1.3530908305	-0.150631
N	 2.1511368468	-0.0212130834	-1.2965333471	 0.059275
C	 3.1407411014	-0.8362607829	-0.8526236514	-0.035058
C	 4.3185364946	-0.1218959372	-0.9308472275	-0.231714
C	 3.9291914509	 1.1328753546	-1.4395609288	-0.007644
N	 2.6172852236	 1.1924087679	-1.6597590673	-0.261151
H	 1.0524931312	 1.7603008314	 0.4825693418	 0.139355
H	-0.5086712318	 2.0233764309	-0.2960575171	 0.115438
H	-0.4473546066	 1.510455011	 1.3974363543	 0.10781
H	 0.4930219716	-0.6862828178	 0.7397609813	 0.078254
H	-2.0024385065	-0.0194900162	-0.9203156155	 0.118021
H	-1.4970645848	-1.6427883687	-0.4249984145	 0.109967
H	-2.0003069192	-0.4594053232	 0.790872477	 0.117699
H	 0.6061372523	-1.3459893195	-1.673268658	 0.111682
H	 0.3125832134	 0.3377077902	-2.1341433209	 0.131124
H	 2.9333376426	-1.8444014339	-0.5290022286	 0.12512
H	 5.3075546326	-0.4624876391	-0.6709640547	 0.102054
H	 4.5466376953	 1.9904986249	-1.6636393315	 0.109553
37.8659	79.2437	101.9295	214.1697	239.5922	270.6245	317.9611	364.456	413.7572	425.9065	634.1098	676.3102	760.4118	765.1644	820.8656	829.3055	886.4605	899.7345	931.0934	934.3671	952.003	970.9266	990.6812	1065.8918	1109.1984	1125.7447	1147.6811	1195.9488	1225.0776	1255.2212	1322.0755	1328.2253	1363.4633	1390.0082	1392.3034	1403.3027	1426.208	1427.9964	1469.999	1482.3277	1487.3656	1492.9749	1505.3461	1508.405	1557.3704	3010.4175	3026.2933	3033.7202	3048.4885	3090.5444	3096.2256	3105.1176	3108.3443	3127.7832	3242.1555	3253.0779	3276.3491
CC(C)CN1C=CC=N1	CC(C)Cn1cccn1	
InChI=1S/C7H12N2/c1-7(2)6-9-5-3-4-8-9/h3-5,7H,6H2,1-2H3	InChI=1S/C7H12N2/c1-7(2)6-9-5-3-4-8-9/h3-5,7H,6H2,1-2H3
