17
gdb 16166	4.28491	1.66718	1.41542	0.7793	69.24	-0.2182	0.0155	0.2337	909.2426	0.142885	-363.832406	-363.825054	-363.82411	-363.864013	28.086	
O	 0.0449859857	 1.3454845257	 0.3104164463	-0.423469
C	-0.0000462559	-0.0196581738	-0.0880704613	-0.178856
C	-1.4350740254	-0.4692728709	 0.0041801613	 0.327074
C	-1.9903203445	-1.0861663229	 1.2429002829	-0.268243
N	-1.7139362149	-1.9247718368	 0.0686202081	-0.154229
C	-2.8904489849	-2.1686330424	-0.7991455133	-0.212592
C	-3.2945092319	-0.8130299613	-1.3388823883	-0.093401
C	-2.4618283423	 0.1300529158	-0.9003807864	-0.130918
H	 0.9345435575	 1.6734859594	 0.1504476685	 0.289567
H	 0.3573611263	-0.1443405435	-1.1223587073	 0.089734
H	 0.6201206105	-0.6573689216	 0.5584622232	 0.095918
H	-1.3414382922	-1.2820220661	 2.0931918337	 0.112228
H	-3.0248105213	-0.8599788096	 1.491605533	 0.110376
H	-2.6079913809	-2.8627111004	-1.6023128988	 0.112659
H	-3.6889069929	-2.6582760158	-0.2267574848	 0.11331
H	-4.1582445425	-0.6599208411	-1.9756515011	 0.099267
H	-2.4894809204	 1.1871765853	-1.1296328157	 0.111575
76.8282	171.1242	238.5055	278.978	299.088	385.4897	464.7662	498.915	659.0409	745.2211	759.8288	776.6274	839.1995	916.8791	922.962	957.3248	966.4387	982.3718	1019.8216	1065.3567	1073.0899	1107.0451	1118.1105	1157.5302	1210.3075	1217.3879	1238.9218	1281.75	1333.3019	1360.1528	1375.2433	1464.8333	1486.2173	1499.2556	1520.8073	1670.2028	2975.3296	3009.5925	3015.8131	3041.5413	3094.747	3184.005	3196.0175	3230.9736	3832.47
OCC12CN1CC=C2	OC[C@]12CN1CC=C2	
InChI=1S/C6H9NO/c8-5-6-2-1-3-7(6)4-6/h1-2,8H,3-5H2	InChI=1S/C6H9NO/c8-5-6-2-1-3-7(6)4-6/h1-2,8H,3-5H2/t6-,7?/m0/s1
