22
gdb 85896	2.63539	1.39178	1.23198	1.996	81.	-0.2287	0.0685	0.2972	1147.8196	0.194063	-404.335425	-404.326387	-404.325443	-404.368303	36.086	
C	 0.0086222953	 1.5555684765	-0.0424406294	-0.419902
C	 0.0036791933	 0.0265244309	-0.0379527514	 0.304069
C	-1.4363790154	-0.4963080897	 0.0753999528	-0.408402
C	 0.7180851594	-0.5920465489	-1.2687150586	-0.318195
C	 1.3349023449	-1.9105551202	-0.7465911532	 0.113409
O	 2.5782474405	-2.2532168471	-1.3435567983	-0.436015
C	 1.5264293159	-1.6501900001	 0.7377523651	-0.02264
C	 2.1892678327	-0.3747141737	 1.1043759939	-0.253475
N	 0.7262018386	-0.4891617719	 1.1638633834	-0.113743
H	 1.0278357739	 1.9514734408	-0.0876249176	 0.1113
H	-0.5403756485	 1.9406527064	-0.9077332313	 0.111699
H	-0.4662816169	 1.9428484309	 0.864237169	 0.122575
H	-2.0450014698	-0.1459169651	-0.7647721462	 0.105945
H	-1.4613942088	-1.5906225994	 0.080917709	 0.111574
H	-1.8913107632	-0.1487006951	 1.0068273221	 0.122944
H	 0.0331789113	-0.748835964	-2.1067593944	 0.093965
H	 1.5289793607	 0.0493892475	-1.6273009404	 0.10529
H	 0.6226726504	-2.7404023166	-0.8695718275	 0.068638
H	 2.4089130046	-2.5131372745	-2.2544678214	 0.28245
H	 1.5623192657	-2.5027709019	 1.4091304202	 0.086731
H	 2.6708526193	-0.2792765156	 2.0728703834	 0.114166
H	 2.6549992559	 0.2061349208	 0.3136220008	 0.117618
115.6118	185.4585	221.7648	235.4875	269.9377	273.2259	314.7372	340.2973	385.8888	436.6356	486.236	519.2404	602.9413	629.7163	721.009	814.3615	849.9726	878.1362	921.1172	937.6284	957.0398	990.329	993.5517	1029.1129	1038.2019	1084.5765	1099.4434	1110.7144	1149.6045	1160.4425	1205.7027	1227.3543	1237.5507	1267.1582	1281.5893	1305.1342	1357.296	1389.3704	1397.1649	1416.5796	1436.8483	1477.2206	1485.6834	1491.7176	1497.8266	1508.0597	1521.3753	2981.3496	3033.3345	3037.3641	3054.3086	3096.9633	3102.5562	3106.3992	3109.8915	3117.2382	3118.0779	3153.1209	3198.9343	3818.3883
CC1(C)CC(O)C2CN12	CC1(C)C[C@@H](O)[C@H]2CN12	
InChI=1S/C7H13NO/c1-7(2)3-6(9)5-4-8(5)7/h5-6,9H,3-4H2,1-2H3	InChI=1S/C7H13NO/c1-7(2)3-6(9)5-4-8(5)7/h5-6,9H,3-4H2,1-2H3/t5-,6-,8?/m1/s1
