17
gdb 67312	3.23843	1.45717	1.23258	5.265	77.53	-0.2486	0.0229	0.2715	1038.301	0.136253	-380.791334	-380.783743	-380.782799	-380.823284	29.346	
C	-0.0716791984	 1.4830274886	 0.0445275563	-0.522941
C	-0.0377767462	-0.010904567	-0.043497437	 0.359885
C	 0.8280450903	-0.9520037167	-0.9474414838	-0.114852
C	 1.945426819	-0.8905875356	 0.088217148	-0.199005
N	 0.7223084734	-0.8906280674	 1.0013917899	-0.1703
C	 0.023803392	-1.8621339535	 0.0211649414	-0.009986
C	-1.2392402704	-0.9892593399	-0.0462986153	-0.232815
C	-2.1425972969	-0.97231541	 1.0937310541	 0.278383
N	-2.8839286896	-0.947411758	 1.9804118665	-0.326844
H	 0.9398830347	 1.898156247	 0.0881006545	 0.134215
H	-0.5774013753	 1.9087723757	-0.8282521597	 0.131415
H	-0.6106078799	 1.7959582502	 0.9438248275	 0.155035
H	 0.8588495505	-0.9915986246	-2.0416050373	 0.07397
H	 2.5767216126	-1.7752919166	 0.2144242285	 0.110681
H	 2.5478276093	 0.0198422101	 0.1564737418	 0.109664
H	 0.0990347633	-2.9405754271	 0.1585496304	 0.103114
H	-1.7989041483	-1.0407703652	-0.9843679559	 0.120381
126.2734	134.1979	201.0646	276.1986	296.7478	385.6552	422.6491	519.7074	560.5934	642.0567	733.4095	769.921	846.4578	851.8618	881.6548	899.9555	933.3556	963.6195	1024.2619	1028.834	1065.7622	1085.8853	1103.7777	1142.1876	1151.8794	1167.3207	1187.3171	1238.6537	1262.1197	1279.6918	1312.4189	1376.6768	1415.907	1480.5381	1484.7851	1522.0629	2356.2386	3039.0497	3042.6603	3055.4237	3078.9542	3107.4992	3110.5624	3117.2329	3125.1886
CC12C3CN1C3C2C#N	C[C@@]12[C@H]3CN1[C@H]3[C@H]2C#N	
InChI=1S/C7H8N2/c1-7-4(2-8)6-5(7)3-9(6)7/h4-6H,3H2,1H3	InChI=1S/C7H8N2/c1-7-4(2-8)6-5(7)3-9(6)7/h4-6H,3H2,1H3/t4-,5+,6+,7-/m1/s1
