16
gdb 54433	2.71125	1.22273	0.92389	7.0621	69.46	-0.24	-0.0616	0.1784	1234.0907	0.122748	-475.059468	-475.050432	-475.049488	-475.09427	32.605	
N	-0.1016365651	 1.2558025786	-0.0096081664	-0.565699
H	-0.4745323605	 0.8422601172	-0.8568902412	 0.259338
H	 0.9527121509	 0.3569450789	 1.1491975882	 0.326837
H	 0.5495346393	 1.9959098331	-0.2580946212	 0.262961
C	-1.1200597432	 1.6963790421	 0.88239245	 0.316654
C	-0.5720010275	 2.2306483038	 2.1880690591	-0.380295
C	-0.2690399471	 1.0846222811	 3.1734730182	 0.274038
O	-1.0608523919	 0.7632898235	 4.0181856911	-0.259784
C	-2.4204291923	 1.5231155604	 0.6508302099	-0.389763
C	 1.1059056705	 0.3641006988	 3.0931131837	 0.318288
O	 1.7073785645	 0.0961011423	 4.0950019056	-0.296699
O	 1.5717973648	 0.0845070704	 1.8722236077	-0.380013
H	 0.3366578024	 2.8198467961	 2.0106851193	 0.121824
H	-1.314423464	 2.865352131	 2.6729368167	 0.150472
H	-3.1563082092	 1.7650541693	 1.4063671384	 0.133296
H	-2.7845479217	 1.1109117337	-0.2841756593	 0.108543
37.4193	82.5988	104.7956	213.774	234.3534	305.2873	366.1721	407.0848	423.4838	468.1306	525.7273	560.0872	690.5711	727.791	747.6855	811.581	870.1691	883.2058	911.7256	920.7219	962.1147	987.8634	1058.9724	1151.3415	1202.2293	1268.2863	1286.6551	1324.4935	1431.7311	1448.5272	1469.8638	1640.9587	1728.3924	1824.4779	1855.8662	3034.0804	3133.7436	3162.0595	3254.3441	3278.242	3492.5436	3591.0974
[NH3+]C12CC1(OC2)C([O-])=O	NC(=C)CC(=O)C(=O)O	
InChI=1S/C5H7NO3/c6-4-1-5(4,3(7)8)9-2-4/h1-2,6H2,(H,7,8)	InChI=1S/C5H7NO3/c1-3(6)2-4(7)5(8)9/h1-2,6H2,(H,8,9)
