16
gdb 94766	3.96884	1.15559	1.01169	3.221	69.2	-0.2753	-0.0019	0.2734	1148.9163	0.124819	-437.88746	-437.879591	-437.878646	-437.919916	29.856	
O	 0.0460007094	 1.4101495112	-0.0714567509	-0.43268
C	 0.0516041397	-0.0005767793	-0.0527218207	 0.135166
C	 0.7396720258	-0.6251405654	 1.1907718348	-0.268859
C	 0.0623388705	-1.9929776023	 1.4199300188	-0.299746
C	-1.3325945235	-1.7966817526	 0.8385410381	 0.290568
O	-1.9600550267	-0.5683939194	 1.2431632777	-0.28816
C	-1.3377659124	-0.6207692277	-0.0503151122	-0.05624
C	-2.2112030691	-2.9267577875	 0.6559825719	 0.224806
N	-2.8813754363	-3.8583600277	 0.5195001413	-0.327883
H	-0.4549011791	 1.7068647146	 0.6978087944	 0.290822
H	 0.5633078671	-0.3019975574	-0.9741789642	 0.105167
H	 1.8199667483	-0.7066157174	 1.0610636915	 0.119911
H	 0.5587387984	 0.0294704112	 2.047346579	 0.119352
H	 0.5617496484	-2.793787655	 0.8641625713	 0.130696
H	 0.0308695808	-2.2895105528	 2.4715906385	 0.132557
H	-2.0092593211	-0.5220333224	-0.8982807895	 0.124521
99.6623	144.4602	158.3042	264.0867	347.3211	383.7844	411.4018	453.5196	539.7031	561.644	598.2667	654.4581	696.0393	845.5687	852.2806	889.73	947.7052	973.9776	1013.3089	1051.1026	1091.6706	1109.3649	1159.4926	1200.7639	1218.7824	1271.7679	1285.2243	1320.2691	1328.0629	1346.0667	1425.4369	1433.286	1482.2367	1493.6006	2362.0297	3051.5968	3056.6536	3073.7696	3104.4471	3128.5962	3168.7278	3791.2421
OC1CCC2(OC12)C#N	O[C@H]1CC[C@]2(O[C@@H]12)C#N	
InChI=1S/C6H7NO2/c7-3-6-2-1-4(8)5(6)9-6/h4-5,8H,1-2H2	InChI=1S/C6H7NO2/c7-3-6-2-1-4(8)5(6)9-6/h4-5,8H,1-2H2/t4-,5-,6-/m0/s1
