16
gdb 16304	3.75279	1.65015	1.39812	1.9512	66.53	-0.2495	-0.0312	0.2183	916.4205	0.128866	-383.71227	-383.704682	-383.703738	-383.744059	28.087	
C	-0.0516136229	 1.5719959061	-0.2287105184	-0.408567
C	 0.0782758904	 0.0853355596	 0.0220247415	 0.085599
O	 1.1433705828	-0.5494408777	-0.7548353724	-0.292547
C	 1.6698523338	-1.1616110789	 0.4081691229	 0.086377
C	 2.1586623575	-0.1810381853	 1.3995603338	-0.352649
C	 0.6612013378	-0.4435605033	 1.3377744737	 0.148318
C	-0.0829608348	-1.0388287201	 2.4519934783	 0.059558
O	 0.4213679809	-1.5053294048	 3.4486986029	-0.277362
H	 0.8597726633	 2.1086504533	 0.0465811964	 0.126656
H	-0.2530823449	 1.7578060402	-1.2881409524	 0.135339
H	-0.8855882726	 1.9781999594	 0.3534307519	 0.125619
H	-0.8652742129	-0.4291466708	-0.205812484	 0.090942
H	 1.9337999923	-2.2122556556	 0.36710793	 0.126772
H	 2.6088094495	-0.5992025247	 2.2938949093	 0.151704
H	 2.5542278679	 0.7715069074	 1.062196941	 0.126271
H	-1.1877732882	-1.0559052447	 2.3067871055	 0.06797
112.4268	179.1644	197.3743	230.9707	236.5136	315.2443	439.1223	499.3208	561.7403	684.7172	739.7596	770.3612	863.8454	910.8464	918.4744	962.595	1031.9542	1047.4349	1057.5154	1087.75	1096.3313	1129.5616	1139.9333	1220.3477	1272.7735	1295.6454	1379.5432	1391.3164	1413.8823	1438.3716	1468.5229	1482.5508	1493.7912	1793.5847	2863.6194	3013.6336	3041.3611	3111.1746	3124.3181	3131.9035	3186.811	3229.4981
CC1OC2CC12C=O	C[C@H]1O[C@H]2C[C@@]12C=O	
InChI=1S/C6H8O2/c1-4-6(3-7)2-5(6)8-4/h3-5H,2H2,1H3	InChI=1S/C6H8O2/c1-4-6(3-7)2-5(6)8-4/h3-5H,2H2,1H3/t4-,5+,6-/m1/s1
