21
gdb 89745	2.4096	1.55192	1.13991	1.8025	82.86	-0.2534	0.0731	0.3265	1160.8748	0.181498	-387.048971	-387.0402	-387.039256	-387.082288	34.204	
C	-0.7031268558	 1.1998494597	-0.0183440374	-0.409586
C	 0.1310060867	-0.0711034876	-0.0764022371	-0.060052
C	 1.5287959758	 0.0095977633	-0.7784050526	-0.347997
C	 2.1279340494	-0.7379239786	 0.41657886	 0.405259
C	 3.0943534318	-1.8369342077	 0.4387378888	-0.271088
O	 3.4296462819	-0.5301902983	 0.9363120103	-0.2753
C	 0.850307879	-0.5510382625	 1.2050077794	 0.284335
C	 0.797771963	 0.0793211862	 2.5692570574	-0.312219
C	 0.337391765	-1.3438655391	 2.3684377097	-0.340156
H	-0.1259657213	 2.0314432377	 0.3995024776	 0.118862
H	-1.0385108376	 1.4921178206	-1.0193927641	 0.115786
H	-1.5969061087	 1.0663034741	 0.601818194	 0.113874
H	-0.4632244353	-0.8856555163	-0.5057452679	 0.073251
H	 1.6231243248	-0.4592479708	-1.7605751994	 0.103519
H	 1.9034388187	 1.0362312006	-0.8348329354	 0.114135
H	 3.0170064426	-2.6172831431	 1.1951002633	 0.1118
H	 3.6038475356	-2.1306296249	-0.4787933629	 0.112284
H	 1.7478941093	 0.2442715275	 3.0661740058	 0.127686
H	 0.0465160296	 0.8390615558	 2.7577292368	 0.112282
H	-0.7285543316	-1.5463755616	 2.4112455103	 0.111305
H	 0.9576165174	-2.145480905	 2.7578797635	 0.11202
57.6212	189.6095	198.3665	214.8178	228.1376	252.9719	342.0405	397.136	450.4424	520.1772	551.1927	595.947	744.4957	793.2206	832.8826	863.6091	886.2982	891.3603	919.4518	932.345	954.6365	989.8157	1049.5106	1070.4119	1077.7861	1097.5569	1123.6098	1129.0683	1139.6683	1165.3473	1183.0539	1194.1902	1221.8082	1258.3045	1270.2533	1362.7525	1369.1915	1408.415	1441.0896	1461.0035	1480.0374	1492.6324	1497.7809	1502.6131	1538.1965	3025.7467	3036.0882	3056.4085	3075.4643	3090.074	3099.931	3113.4579	3119.3599	3130.4098	3161.0833	3198.8317	3220.4914
CC1CC2(CO2)C11CC1	C[C@H]1C[C@]2(CO2)C21CC2	
InChI=1S/C8H12O/c1-6-4-8(5-9-8)7(6)2-3-7/h6H,2-5H2,1H3	InChI=1S/C8H12O/c1-6-4-8(5-9-8)7(6)2-3-7/h6H,2-5H2,1H3/t6-,8-/m0/s1
