17
gdb 56388	3.14456	0.73327	0.61641	2.9808	85.77	-0.2575	-0.0497	0.2077	1778.2534	0.131408	-384.64648	-384.635885	-384.634941	-384.684392	36.302	
C	-0.1434949674	 1.6324158136	 0.3964563004	-0.380033
C	-0.0533783354	 0.1180640344	 0.0725820216	-0.335687
C	 0.7838399384	-0.5891085008	 1.0476340487	 0.340529
C	 1.4841498799	-1.1424160148	 1.8508688456	-0.458003
C	-1.3888892964	-0.4765156997	-0.0298116259	 0.110487
C	-2.5010786896	-0.9326719161	-0.13317861	 0.019011
C	-3.8375584759	-1.4888560313	-0.2538228282	 0.249296
C	-4.1154728623	-2.7020735995	 0.6096790871	-0.476868
O	-4.6623050699	-1.0039019721	-0.998626846	-0.275413
H	 0.8602306796	 2.0626873933	 0.4214776913	 0.134112
H	-0.7365776415	 2.1415079397	-0.3665592912	 0.137624
H	-0.6147171526	 1.7841534507	 1.3696838263	 0.142619
H	 0.4208480723	 0.0195238909	-0.9151012659	 0.149404
H	 2.0998573653	-1.6412375159	 2.5580369165	 0.204254
H	-3.413199622	-3.5060242024	 0.3640753092	 0.14826
H	-3.9597583459	-2.4552984454	 1.6654164705	 0.147816
H	-5.1410255467	-3.0378694948	 0.4496280101	 0.142594
12.6421	59.7083	94.9481	125.3677	145.1984	201.1693	230.9104	242.5063	346.3497	370.3944	466.8151	537.798	558.6988	598.3433	611.6444	637.9519	652.8725	698.1225	827.1217	949.4233	986.1038	1040.5194	1042.912	1069.2239	1136.3761	1242.3511	1288.3555	1321.8744	1381.2448	1404.4382	1460.3043	1467.8548	1489.1528	1496.9216	1769.1717	2243.8056	2334.7266	3000.718	3039.6601	3055.7823	3103.9701	3139.2423	3142.7973	3152.2007	3503.6888
CC(C#C)C#CC(C)=O	C[C@@H](C#C)C#CC(=O)C	
InChI=1S/C8H8O/c1-4-7(2)5-6-8(3)9/h1,7H,2-3H3	InChI=1S/C8H8O/c1-4-7(2)5-6-8(3)9/h1,7H,2-3H3/t7-/m0/s1
