15
gdb 123908	2.80925	1.51581	1.01918	5.1781	74.32	-0.212	-0.0554	0.1566	1096.5969	0.114522	-450.124037	-450.1161	-450.115155	-450.156848	29.082	
C	 0.0524338212	 1.5545397911	-0.10531874	-0.152614
C	 1.5435472572	 1.8748081655	 0.0541666288	-0.17797
N	 2.0930127502	 1.3179065546	 1.2931538852	-0.368551
C	 1.7983814337	-0.0710036959	 1.3881228811	 0.11404
C	 0.6357139996	-0.7327124241	 0.7772935617	 0.383954
N	-0.1622641736	 0.1246266987	 0.05726847	-0.346049
O	 0.4066379925	-1.928505776	 0.8687559657	-0.40357
N	 3.4476884124	-1.525922707	 2.452154119	-0.224703
N	 2.6993019062	-0.8529320008	 1.9306372628	 0.221921
H	-0.526874067	 2.1322738529	 0.6324059152	 0.10417
H	-0.2954042838	 1.8594227199	-1.0992246607	 0.116609
H	 2.1042779321	 1.4532046158	-0.7869582279	 0.12981
H	 1.696596721	 2.9575062038	 0.0554908742	 0.11603
H	 1.7211894802	 1.824994774	 2.0927593163	 0.234699
H	-0.992994212	-0.3039875326	-0.3206737116	 0.252224
85.2438	127.6639	150.2216	223.6447	335.3068	378.1586	438.7211	489.2055	503.6702	524.9208	609.3408	654.2458	700.7253	733.8647	827.6524	891.4242	963.4318	1025.328	1093.0552	1137.2401	1213.0694	1255.074	1260.8778	1339.0894	1356.0988	1376.2772	1407.6309	1464.6424	1465.9447	1481.5265	1516.7823	1759.6117	2197.2182	2974.6231	3045.6503	3058.2238	3104.8057	3468.0881	3631.
C1CNC2=C(N1)ON=N2	C1CN[C](C(=O)N1)[N][N]	
InChI=1S/C4H6N4O/c1-2-6-4-3(5-1)7-8-9-4/h5-6H,1-2H2	InChI=1S/C4H6N4O/c5-8-3-4(9)7-2-1-6-3/h1-2H2,(H,6,8)(H,7,9)
