19
gdb 113558	2.42093	1.25691	1.23563	3.2193	72.6	-0.2167	0.0563	0.273	1161.6133	0.156622	-460.098556	-460.089084	-460.08814	-460.13326	34.137	
C	-0.0393192186	 0.9388316919	 0.5768680144	-0.232111
O	-0.249947486	-0.0023686492	-0.4621345951	-0.23726
C	-1.430824853	-0.7162355855	-0.3126072112	 0.045433
C	-1.4179178659	-2.1214515652	-0.8650405685	-0.411087
C	-1.452165429	-1.9007905872	 0.6146779171	 0.418992
O	-0.3525870632	-2.223602767	 1.4673059301	-0.30054
C	-1.2508182421	-2.4180567392	 2.5874596016	-0.103362
C	-2.4889741696	-2.2482955034	 1.6694250521	-0.032908
O	-3.3829959567	-1.1981521203	 1.9467962654	-0.424949
H	 0.8917716508	 1.4617001642	 0.3456013616	 0.123873
H	-0.8570437824	 1.673391408	 0.6268123365	 0.103899
H	 0.0551731699	 0.4438229059	 1.5505919672	 0.122605
H	-2.3482154313	-0.1297176498	-0.3884756928	 0.095678
H	-2.2995406524	-2.5050363851	-1.3686562698	 0.11508
H	-0.4659792657	-2.4497008378	-1.2694458215	 0.136519
H	-1.1022168703	-3.3947152825	 3.0595778815	 0.104417
H	-1.1627173872	-1.6178941657	 3.3319386055	 0.105147
H	-3.0192902294	-3.1891959014	 1.474895711	 0.080692
H	-4.0862889777	-1.5346433807	 2.5101546649	 0.289882
66.2958	104.6819	113.0996	142.3147	199.3331	236.8312	258.1446	324.6928	398.1578	456.4956	523.4382	541.9566	645.5929	773.5197	798.1446	861.7879	869.1233	965.3782	1001.144	1016.6727	1051.4016	1066.2369	1074.323	1115.368	1143.8071	1170.4319	1172.857	1183.965	1197.7998	1218.6946	1246.1229	1286.0518	1320.5109	1333.7281	1397.3998	1446.1499	1465.6466	1485.7789	1491.5844	1504.3423	1513.9448	2991.3214	3017.9256	3025.111	3062.7282	3084.0254	3087.8816	3119.9265	3126.8163	3221.8784	3828.4052
COC1CC11OCC1O	CO[C@H]1C[C@]21OC[C@H]2O	
InChI=1S/C6H10O3/c1-8-5-2-6(5)4(7)3-9-6/h4-5,7H,2-3H2,1H3	InChI=1S/C6H10O3/c1-8-5-2-6(5)4(7)3-9-6/h4-5,7H,2-3H2,1H3/t4-,5+,6+/m1/s1
