14
gdb 34354	3.0422	1.6197	1.3181	2.1733	65.34	-0.2726	-0.005	0.2676	939.1052	0.1011	-436.61493	-436.608133	-436.607188	-436.64619	26.174	
N	-0.0302095646	-1.1788991931	-0.0037771452	-0.33156
C	-0.014358548	-0.0220821923	 0.0013438776	 0.198334
C	-0.0045759942	 1.4143436775	 0.0267214447	 0.095955
C	-0.3708447614	 2.222068874	-1.2529112361	-0.114844
O	 0.8787347246	 2.9520463758	-1.2040185507	-0.269619
C	 1.3018257348	 2.2697605854	-0.025806775	 0.039631
C	 0.8961073347	 2.9238490708	 1.3280653612	 0.010239
O	-0.4007765081	 3.500877093	 1.1534682533	-0.21504
C	-0.331404919	 2.1070477627	 1.3920986434	-0.047553
H	-0.4358269926	 1.605792408	-2.1543279773	 0.129443
H	-1.239228146	 2.8777813054	-1.159988948	 0.134306
H	 2.3014415298	 1.8344390911	-0.0799925597	 0.112237
H	 1.5259030513	 3.3410521768	 2.1044420052	 0.126671
H	-0.8893036613	 1.6889496548	 2.2209973168	 0.1318
141.8958	157.9755	240.9342	302.289	427.5589	484.3724	527.75	551.1588	675.3911	717.9366	815.2894	846.1548	855.2442	891.6386	913.5045	992.2866	1006.3974	1017.9118	1030.498	1063.092	1119.2257	1157.1875	1171.2333	1203.664	1235.831	1281.4102	1292.1625	1355.5616	1373.9723	1499.4465	2350.2405	3054.5446	3104.5112	3121.693	3191.4704	3206.2962
N#CC12COC1C1OC21	N#C[C@]12CO[C@H]1[C@H]1O[C@@H]21	
InChI=1S/C6H5NO2/c7-1-6-2-8-4(6)3-5(6)9-3/h3-5H,2H2	InChI=1S/C6H5NO2/c7-1-6-2-8-4(6)3-5(6)9-3/h3-5H,2H2/t3-,4+,5-,6+/m1/s1
