20
gdb 79587	2.16463	1.66647	1.51194	1.66	78.34	-0.2233	0.0706	0.2939	1047.277	0.168547	-403.079647	-403.070583	-403.069639	-403.112653	34.687	
C	-0.1784469702	 1.48085565	-0.1140911154	-0.320854
N	 0.0807674321	 0.0555944388	 0.0441127385	-0.123302
C	 1.3968453121	-0.5281947624	-0.1538537554	-0.142621
C	 2.5193455586	 0.3201599602	 0.4233928625	-0.068916
O	 3.0870486728	-0.3925302982	 1.539670959	-0.291171
C	 1.8656719845	 0.346209878	 1.7466111756	 0.35296
C	 1.8470108623	 1.3620013948	 2.8438295558	-0.509038
C	 0.7211825585	-0.5305647612	 1.2099804959	 0.259929
C	 0.0609146753	-1.6475025934	 1.9629612332	-0.497725
H	 0.625119513	 2.1435099903	 0.2344536271	 0.108691
H	-0.3524659393	 1.6855900942	-1.1753821032	 0.124125
H	-1.0944481139	 1.7339031203	 0.4295796672	 0.122299
H	 1.5065141274	-1.3517518783	-0.8508001906	 0.101208
H	 3.1488457935	 1.0639151595	-0.0513193085	 0.104487
H	 2.7810423648	 1.9298281771	 2.853095311	 0.135747
H	 1.010321475	 2.057043098	 2.7240639803	 0.127245
H	 1.7388681143	 0.8737345228	 3.8188435228	 0.132875
H	-0.614698819	-1.2607047753	 2.7351422694	 0.118517
H	-0.528416829	-2.2682738301	 1.2837104406	 0.13245
H	 0.813759987	-2.272687935	 2.453168494	 0.133096
156.3278	181.7731	188.8155	196.6671	211.5586	223.1903	239.0561	323.2162	386.6184	483.3348	538.9346	622.4722	631.0666	669.0647	750.5077	770.8218	865.951	882.9407	941.9724	954.0896	987.8246	1005.5741	1039.9459	1092.2346	1111.9013	1126.7998	1153.5267	1174.3926	1182.6991	1228.6426	1265.526	1278.444	1390.8364	1400.922	1419.6164	1450.7581	1454.0875	1481.4281	1486.0213	1490.888	1493.7421	1494.6626	1506.219	3005.7815	3031.0422	3036.5714	3073.5087	3093.8683	3098.0303	3100.5432	3123.1299	3124.8225	3173.7413	3187.3946
CN1C2C3OC3(C)C12C	CN1[C@H]2[C@@H]3O[C@]3(C)[C@@]12C	
InChI=1S/C7H11NO/c1-6-4(8(6)3)5-7(6,2)9-5/h4-5H,1-3H3	InChI=1S/C7H11NO/c1-6-4(8(6)3)5-7(6,2)9-5/h4-5H,1-3H3/t4-,5-,6-,7-,8?/m0/s1
