14
gdb 132112	3.13396	1.4251	0.98079	3.3688	74.41	-0.1884	-0.0487	0.1397	1097.5673	0.102224	-474.180197	-474.172587	-474.171643	-474.212138	29.39	
N	 0.0728007409	 1.3903612126	 0.1561643429	-0.581892
C	 0.0068698412	 0.0166366126	 0.0488207477	 0.291527
C	-1.1594199121	-0.7018925407	 0.0148304149	 0.234912
F	-2.3268555412	-0.0298061213	 0.0185320152	-0.098093
N	-1.2001988983	-2.032678733	-0.0223750519	-0.258413
C	-0.087592819	-2.7108734664	-0.0377443114	-0.109389
C	 1.2362598862	-2.1007488927	-0.0109180525	 0.341197
N	 2.4013775062	-2.6419666032	-0.0158419341	-0.572889
N	 1.16749143	-0.6988571421	 0.0345713379	-0.381529
H	 0.8121635954	 1.8372564956	-0.3696885651	 0.261779
H	-0.8231617218	 1.8338552756	 0.010179537	 0.274869
H	-0.1453518515	-3.7953011268	-0.070897768	 0.118536
H	 2.315887448	-3.6558550229	-0.0469411326	 0.214654
H	 2.058057246	-0.2277171875	 0.1165883001	 0.264729
112.5784	194.8227	275.8241	291.5077	329.1945	355.4595	455.3523	491.8887	503.1045	580.8802	610.3371	630.3937	686.7242	733.1974	745.5918	772.1223	800.7036	877.9424	957.295	1087.9464	1135.9288	1244.4469	1298.4032	1341.3091	1350.2915	1430.2244	1506.0084	1575.2735	1639.459	1672.8114	1697.0076	3167.0312	3507.3493	3552.1428	3602.7516	3657.9264
NC1=C(F)N=CC(=N)N1	N[C@@H]1C(=NC=C([NH])N1)F	
InChI=1S/C4H5FN4/c5-3-4(7)9-2(6)1-8-3/h1H,(H4,6,7,9)	InChI=1S/C4H6FN4/c5-3-4(7)9-2(6)1-8-3/h1,4,6,9H,7H2/t4-/m0/s1
