17
gdb 83926	2.52536	1.53938	1.23104	2.8629	70.08	-0.2506	-0.0264	0.2242	1058.1722	0.134555	-458.94706	-458.93866	-458.937716	-458.980407	30.397	
C	-0.0527292236	 1.5950879103	-0.0323802125	-0.407964
C	 0.0346117762	 0.0895766432	 0.021616146	-0.114342
C	 1.308912491	-0.6670203602	-0.1987559742	 0.006147
O	 2.5116267537	 0.0508610455	-0.1086411487	-0.251145
C	 2.8237119927	 0.1051050077	 1.2773437634	 0.007502
O	 1.5874881458	 0.1526161259	 1.9654351293	-0.273256
C	 0.7078514519	-0.6272720088	 1.2049020356	 0.280753
C	 0.0900268276	-1.8089019586	 1.8422385792	 0.08993
O	 0.3008995585	-2.1835150369	 2.966892572	-0.262854
H	 0.8534385047	 2.0585863204	 0.3579014959	 0.142251
H	-0.1894385202	 1.9275430418	-1.0661380071	 0.127509
H	-0.9017849388	 1.9536514505	 0.5566045871	 0.129758
H	-0.8436072665	-0.4404171135	-0.3442410871	 0.101527
H	 1.3488828671	-1.5693454805	-0.8010736801	 0.116421
H	 3.3956427862	-0.7882175436	 1.5749032298	 0.109757
H	 3.3865830977	 1.0184786942	 1.4823961219	 0.129201
H	-0.6188264842	-2.3424157974	 1.1656713497	 0.068805
92.6027	102.5274	168.642	188.598	221.9695	249.4506	313.2099	413.072	525.3246	629.2336	695.5612	714.47	788.8531	797.4782	873.3544	944.9852	994.8933	1015.3936	1018.8337	1061.6533	1075.1723	1089.7816	1130.6687	1145.5157	1175.9892	1220.4753	1229.6842	1281.8812	1336.3587	1402.2949	1418.0098	1429.1755	1439.0629	1487.8875	1496.1596	1536.0681	1821.9518	2851.2963	2980.2485	3049.2541	3109.7694	3112.44	3122.877	3151.9095	3158.7068
CC1C2OCOC12C=O	C[C@H]1[C@H]2OCO[C@@]12C=O	
InChI=1S/C6H8O3/c1-4-5-6(4,2-7)9-3-8-5/h2,4-5H,3H2,1H3	InChI=1S/C6H8O3/c1-4-5-6(4,2-7)9-3-8-5/h2,4-5H,3H2,1H3/t4-,5+,6-/m0/s1
