21
gdb 86045	3.77193	0.89797	0.85466	4.3526	79.84	-0.2671	0.0093	0.2764	1441.8721	0.180109	-424.249527	-424.239752	-424.238808	-424.284286	36.087	
C	-0.5037109455	 1.2613047221	-0.3997147389	-0.402231
C	 0.1042348955	-0.1192030134	-0.176858882	 0.034981
C	 1.3602460945	-0.459622862	-1.0367833935	-0.287877
C	 2.2562699614	-0.3482327583	 0.2200891161	 0.414418
C	 3.1676003043	 0.8703037072	 0.2618727779	-0.443643
C	 0.9753821732	-0.2796863436	 1.1069995854	-0.296143
O	 3.0545189073	-1.5481955216	 0.3595676525	-0.232493
C	 3.5294330449	-1.8576516664	 1.5761770182	 0.154876
O	 4.2307906613	-2.8068906409	 1.7742870483	-0.28229
H	 0.2484815922	 2.055053747	-0.328330501	 0.116368
H	-0.9629320059	 1.3311366057	-1.3917536491	 0.120238
H	-1.2793383175	 1.4744222203	 0.3439608696	 0.11902
H	-0.6834851582	-0.8729248161	-0.2536774047	 0.081072
H	 1.3559125687	-1.4796986042	-1.4249534896	 0.121462
H	 1.5985073081	 0.2292598028	-1.8519718238	 0.101199
H	 2.5988484064	 1.7849939469	 0.0733285802	 0.127842
H	 3.6533486508	 0.9725011126	 1.2380650081	 0.121606
H	 3.9450463102	 0.7828693399	-0.5032843504	 0.136081
H	 0.9371207385	 0.5412988442	 1.8287405999	 0.102468
H	 0.7854369284	-1.2182463961	 1.6322867523	 0.113668
H	 3.2006637515	-1.1601156161	 2.3693225844	 0.079378
57.6897	104.7929	151.5238	168.722	233.8242	245.9349	280.0048	301.4335	350.0549	362.0847	439.0588	474.5292	518.4557	724.9355	795.8374	829.6895	838.6445	903.3092	918.8653	937.2202	960.2282	971.4597	1049.1403	1060.2583	1068.9896	1144.2125	1165.9387	1196.5827	1204.5206	1213.685	1242.8895	1281.0388	1284.7085	1308.6101	1370.5886	1408.1814	1413.9579	1434.0823	1464.4112	1483.0676	1487.2862	1489.6974	1497.2679	1499.6724	1855.2471	2958.8105	3025.8725	3037.3957	3055.8384	3060.5587	3065.4417	3094.4553	3096.3288	3108.4369	3115.4462	3120.7863	3126.8976
CC1CC(C)(C1)OC=O	C[C@H]1C[C@@](C)(C1)OC=O	
InChI=1S/C7H12O2/c1-6-3-7(2,4-6)9-5-8/h5-6H,3-4H2,1-2H3	InChI=1S/C7H12O2/c1-6-3-7(2,4-6)9-5-8/h5-6H,3-4H2,1-2H3/t6-,7-
