18
gdb 78365	2.66365	1.38727	1.10124	2.4233	72.64	-0.2358	0.0691	0.3049	1132.9519	0.146868	-439.005203	-438.996725	-438.99578	-439.038035	32.716	
O	-0.0293142941	 1.2552484536	-0.1445658407	-0.441117
C	-0.0522246481	-0.1384692203	-0.0247838864	 0.096333
C	-0.4937119351	-0.6923056449	 1.3061110679	-0.146093
C	-1.4382270952	-0.6994338665	 0.0838557543	-0.180848
C	-1.372103821	-2.206381856	 0.0541222832	 0.351702
C	-2.4543034461	-3.1449556802	-0.3005781705	-0.321318
N	-1.2200408278	-3.0711372644	-1.1086685634	-0.348959
C	-0.4455143309	-2.2281340308	 1.2924585479	 0.014754
O	 0.7920773277	-2.8613097976	 1.0689784103	-0.419503
H	 0.770908887	 1.5757877976	 0.2843580678	 0.287632
H	 0.704594289	-0.6696912606	-0.6019603785	 0.107328
H	-0.5514609465	-0.0565959999	 2.1813319628	 0.08593
H	-2.3055112203	-0.0776359748	-0.1009762366	 0.09929
H	-2.5783570173	-4.0708117598	 0.2560282828	 0.118664
H	-3.3763037539	-2.7315514026	-0.7035219477	 0.110296
H	-1.3835688233	-2.5376637529	-1.9599017921	 0.231098
H	-0.963395114	-2.6533628721	 2.1640645217	 0.073694
H	 1.31610933	-2.7833100475	 1.8727743374	 0.281117
100.363	166.6217	216.8839	228.4709	246.2171	297.1123	302.7588	395.4317	461.3127	479.8122	587.8069	635.1305	761.5406	828.1737	860.3175	875.6936	894.3406	945.875	961.8321	969.3773	984.4421	1019.4375	1064.4312	1101.6734	1116.3617	1128.6096	1134.152	1166.4647	1199.8893	1212.7135	1254.7445	1265.7461	1290.5524	1309.5668	1331.3539	1394.9843	1436.3892	1455.0272	1517.0421	2996.2285	3096.8874	3102.0511	3180.443	3185.2051	3196.2616	3489.9999	3807.4529	3814.3287
OC1C2C1C1(CN1)C2O	O[C@H]1[C@H]2[C@@H]1[C@]1(CN1)[C@H]2O	
InChI=1S/C6H9NO2/c8-4-2-3(4)6(1-7-6)5(2)9/h2-5,7-9H,1H2	InChI=1S/C6H9NO2/c8-4-2-3(4)6(1-7-6)5(2)9/h2-5,7-9H,1H2/t2-,3+,4+,5+,6-/m1/s1
