16
gdb 93480	3.08093	1.31324	0.97262	1.7928	66.08	-0.2589	-0.0416	0.2173	1147.2555	0.12507	-475.083307	-475.075219	-475.074275	-475.116417	30.222	
O	 0.0436603017	 1.39846012	 0.1283404099	-0.43206
C	 0.0211950628	 0.011253187	 0.0002069615	 0.045282
C	-1.4264440885	-0.5161748169	-0.0572366206	-0.195306
N	-1.441385513	-1.9517759753	-0.2897448958	-0.32061
C	-0.5738446934	-2.6633940333	-1.0714735678	 0.401375
O	-0.7520098149	-3.8294790137	-1.3537398542	-0.361135
C	 0.6866351883	-1.9213570692	-1.5445356199	-0.422693
C	 0.7081887396	-0.4371934143	-1.2808923554	 0.357552
O	 1.185538711	 0.3849960747	-2.0319105425	-0.32796
H	 0.5075538178	 1.7203011838	-0.6629419463	 0.296483
H	 0.526874103	-0.4740126641	 0.8512601967	 0.105044
H	-1.9197978159	-0.3035903534	 0.8944560753	 0.135674
H	-1.9630009727	 0.0387959004	-0.8394315406	 0.126927
H	-2.2614920769	-2.4742623413	-0.0165916068	 0.25702
H	 1.5266509537	-2.3815280623	-1.0074243863	 0.169707
H	 0.8455096873	-2.123414482	-2.6057092473	 0.164699
65.0134	97.6098	193.9804	290.9824	332.2477	392.449	417.4831	432.3568	467.9361	506.5767	604.8725	629.4279	655.3086	750.1036	765.2146	846.1396	917.9063	1016.2751	1054.1948	1107.7754	1133.3079	1160.0092	1213.2963	1223.4422	1272.3633	1282.1337	1314.6936	1367.7724	1381.8828	1425.7532	1446.3428	1474.1657	1525.6782	1795.0859	1814.4986	2976.4603	3012.1182	3042.8567	3095.6198	3123.5544	3608.8171	3665.584
OC1CNC(=O)CC1=O	O[C@H]1CNC(=O)CC1=O	
InChI=1S/C5H7NO3/c7-3-1-5(9)6-2-4(3)8/h4,8H,1-2H2,(H,6,9)	InChI=1S/C5H7NO3/c7-3-1-5(9)6-2-4(3)8/h4,8H,1-2H2,(H,6,9)/t4-/m0/s1
