15
gdb 55509	3.57925	0.98018	0.77594	3.7818	65.01	-0.2484	-0.0792	0.1693	1394.6852	0.110483	-491.167309	-491.157617	-491.156673	-491.203205	33.234	
C	 0.0502940393	 1.4498172273	 0.1157485646	-0.472384
C	 0.0535211491	-0.0457665512	-0.0200509671	 0.309673
O	 0.0652310214	-0.8229159087	 0.9088609719	-0.303875
C	 0.0399607097	-0.5822613908	-1.4783621256	 0.323965
O	 0.0116837376	 0.167058073	-2.4235985308	-0.307563
N	 0.0507919928	-1.9577053718	-1.483416562	-0.403309
C	 0.1235731387	-2.8052609635	-2.6085476149	 0.479186
N	 0.0059607881	-4.1343006016	-2.2524097904	-0.5665
O	 0.3152747272	-2.4219564975	-3.7339248451	-0.334079
H	 0.9229162659	 1.8677658214	-0.3964030316	 0.167313
H	-0.8236595599	 1.8658150367	-0.3951787921	 0.166352
H	 0.0519364526	 1.7288818275	 1.1691898762	 0.143413
H	 0.0770066966	-2.3540883215	-0.5511398833	 0.268182
H	-0.5202373143	-4.3876727942	-1.4309422608	 0.258431
H	-0.0951832048	-4.756281295	-3.0394331589	 0.271197
49.7889	61.484	87.3956	122.478	137.4226	266.938	317.8812	383.2673	401.1371	415.3891	519.1247	541.3176	555.3434	642.8964	696.3416	723.1289	779.9892	884.9017	928.8593	998.962	1032.922	1109.9463	1157.3368	1251.7221	1328.3724	1386.5739	1448.8267	1455.4395	1529.7129	1628.5258	1798.5071	1805.9538	1868.8496	3052.1994	3112.9768	3166.5433	3559.2338	3585.0658	3703.6153
CC(=O)C(=O)NC(N)=O	CC(=O)C(=O)NC(=O)N	
InChI=1S/C4H6N2O3/c1-2(7)3(8)6-4(5)9/h1H3,(H3,5,6,8,9)	InChI=1S/C4H6N2O3/c1-2(7)3(8)6-4(5)9/h1H3,(H3,5,6,8,9)
