21
gdb 95546	2.39972	1.63206	1.21443	1.5633	83.12	-0.2336	0.0035	0.2371	1119.119	0.184141	-387.081567	-387.073298	-387.072354	-387.114072	32.746	
C	-0.0858918421	 1.5408414121	-0.0062228965	-0.407819
C	 0.0237720199	 0.0090567347	 0.0086071473	-0.011102
C	 0.8799641149	-0.4711966887	-1.184503035	-0.180762
C	 1.2392535224	-1.9813707532	-1.2652108518	-0.266766
C	 0.2856673785	-2.933008307	-0.5787262832	-0.099768
C	-0.0016306405	-2.9208361779	 0.7256253305	-0.036058
C	 0.482695648	-1.9232311952	 1.7100905887	-0.000204
O	 1.7158537251	-1.2246299872	 1.4593698245	-0.252987
C	 0.4997872243	-0.4816888312	 1.3723341564	 0.048137
H	 0.8941703396	 2.0069043379	 0.1465223626	 0.121225
H	-0.4793574178	 1.8964962978	-0.9638533671	 0.112496
H	-0.7542754231	 1.900765574	 0.7831244263	 0.111239
H	-0.9866462176	-0.4014588205	-0.128734909	 0.086477
H	 0.3330375783	-0.1826727747	-2.090182992	 0.094672
H	 1.8144755385	 0.1013808025	-1.2005200137	 0.102087
H	 1.3253201287	-2.2589303809	-2.3203752106	 0.090464
H	 2.2284499254	-2.1224878255	-0.8236941766	 0.137694
H	-0.1668876391	-3.7094577922	-1.1904604308	 0.091104
H	-0.679729539	-3.6681200861	 1.1302207438	 0.085074
H	 0.3489872881	-2.1951156679	 2.7568430674	 0.090137
H	 0.3622661273	 0.2236812991	 2.1942832888	 0.08466
99.1458	155.3439	232.7051	260.2051	273.2528	309.153	353.1343	376.9568	511.8027	571.378	612.0621	706.5566	750.3573	781.5734	819.1154	844.0235	877.6018	918.9087	943.3213	979.9805	987.2445	998.9931	1055.0894	1072.4579	1088.7699	1114.3104	1140.172	1186.2067	1217.9009	1251.4388	1277.1839	1296.4964	1322.7918	1339.8167	1356.9384	1381.9312	1400.8137	1414.7291	1424.2801	1453.1058	1477.1928	1495.7653	1499.6196	1503.8799	1711.8199	3003.2906	3023.7599	3028.7839	3053.8575	3062.5059	3085.1459	3096.1176	3099.7264	3102.0654	3111.9293	3146.6656	3169.3502
CC1CCC=CC2OC12	C[C@H]1CCC=C[C@H]2O[C@@H]12	
InChI=1S/C8H12O/c1-6-4-2-3-5-7-8(6)9-7/h3,5-8H,2,4H2,1H3	InChI=1S/C8H12O/c1-6-4-2-3-5-7-8(6)9-7/h3,5-8H,2,4H2,1H3/t6-,7+,8-/m0/s1
