21
gdb 71804	3.26208	1.5663	1.45609	0.3533	84.81	-0.2373	0.0869	0.3242	1016.5704	0.185084	-349.913954	-349.906809	-349.905864	-349.944938	30.638	
C	-0.0968390747	 1.5478681309	-0.006972478	-0.497085
C	-0.0090239776	 0.0475277553	-0.0475742191	 0.332849
C	 0.6624866976	-0.7387286569	-1.1782344909	-0.292401
C	-0.1951381381	-1.9799219717	-0.7855631813	-0.06006
C	 0.4930791542	-2.8772080116	 0.2615495449	-0.035623
C	 1.802273174	-2.447294218	 0.8959845245	-0.306405
C	 0.4941617179	-2.082248607	 1.5473042662	-0.028562
C	-0.2364925937	-0.7951393764	 1.2191179608	-0.102937
C	-1.1198214738	-0.99316234	 0.0174934742	-0.122101
H	 0.8738021698	 1.9982935098	 0.2345440826	 0.11787
H	-0.4145971189	 1.9489886921	-0.9769569605	 0.113326
H	-0.8148529852	 1.8896252582	 0.7460152144	 0.114823
H	 0.3214569796	-0.335074171	-2.1378832204	 0.090626
H	 1.7513976826	-0.8357898003	-1.2194655557	 0.086853
H	-0.6280014743	-2.5386754048	-1.6144521804	 0.063057
H	 0.2567012761	-3.9359948091	 0.2559166718	 0.077409
H	 2.3839111204	-3.2296730073	 1.3749042504	 0.102299
H	 2.4089478763	-1.6732706007	 0.4445600078	 0.114753
H	 0.2425444193	-2.5446961922	 2.4968933974	 0.077049
H	-0.6217076849	-0.2117880467	 2.0491453326	 0.076455
H	-2.1962983768	-0.8807543327	-0.0338606313	 0.077804
165.7764	200.8304	292.8398	303.6439	367.3211	478.8842	529.6842	574.4115	657.5052	691.6167	731.2599	770.281	799.2841	832.0585	863.0092	887.3133	899.5237	931.3752	938.2654	953.2708	994.3781	1007.4195	1045.8929	1049.8161	1064.2073	1073.9326	1088.3696	1105.2785	1107.193	1159.8624	1189.3339	1193.9962	1208.6269	1233.3829	1275.8151	1283.0618	1314.6391	1341.5056	1380.6816	1411.4067	1425.8976	1484.3922	1487.3815	1497.4547	1526.5537	3016.7444	3038.4227	3074.1605	3079.2873	3090.9396	3115.6478	3131.1958	3145.5038	3160.5479	3166.3804	3181.7325	3223.4948
CC12CC3C4CC4C1C23	C[C@@]12C[C@H]3[C@H]4C[C@H]4[C@@H]1[C@@H]23	
InChI=1S/C9H12/c1-9-3-6-4-2-5(4)7(9)8(6)9/h4-8H,2-3H2,1H3	InChI=1S/C9H12/c1-9-3-6-4-2-5(4)7(9)8(6)9/h4-8H,2-3H2,1H3/t4-,5+,6-,7+,8-,9+/m0/s1
