17
gdb 44802	2.84381	1.51955	1.16562	2.8912	73.48	-0.2343	-0.0257	0.2086	1066.0746	0.136507	-417.944971	-417.937077	-417.936133	-417.978012	29.733	
O	 0.0210595689	 0.0335569244	 0.0626609779	-0.324229
C	 0.0146382613	 1.2286819318	 0.168976129	 0.39044
C	-1.1168440434	 2.2883101538	 0.2791090677	-0.336939
C	-0.0427884589	 3.3198830977	-0.0937653723	-0.123466
N	 0.9227202375	 3.2889354508	 1.0088152055	-0.367782
C	 1.0633437345	 2.284700936	-0.1069424153	 0.252237
C	 2.3103191844	 2.145154496	-0.892308089	-0.149267
C	 3.2221333754	 0.9958937516	-0.6397229472	-0.240033
N	 2.4467498319	 1.0675383621	-1.8874279556	-0.326311
H	-1.878567111	 2.113018652	-0.4852253068	 0.134689
H	-1.5814726568	 2.4250036296	 1.2573966652	 0.137582
H	-0.1489840182	 4.1736540342	-0.7501589749	 0.11872
H	 1.6391112974	 3.9942599656	 0.8250305027	 0.239486
H	 2.7466299281	 3.0918034115	-1.2111876171	 0.088294
H	 4.2945551984	 1.126753334	-0.752598504	 0.121026
H	 2.9185425428	 0.2727368582	 0.1114776779	 0.13552
H	 1.6529861876	 0.4344141906	-1.8139905037	 0.250033
52.7532	120.9469	166.7205	184.5496	359.3813	413.183	443.9162	480.1347	556.9089	662.2304	676.3654	802.275	834.1435	845.2047	869.6024	910.3738	937.854	968.7775	1002.2918	1010.7457	1016.599	1067.5451	1095.8201	1116.4982	1143.6593	1167.4054	1192.4705	1197.7474	1252.2819	1282.4603	1307.6182	1335.066	1381.3209	1439.7625	1464.157	1507.2667	1866.1755	3072.8897	3101.2986	3115.1018	3135.1074	3205.8168	3208.6497	3447.7964	3500.9895
O=C1CC2NC12C1CN1	O=C1C[C@H]2N[C@@]12[C@H]1CN1	
InChI=1S/C6H8N2O/c9-5-1-3-6(5,8-3)4-2-7-4/h3-4,7-8H,1-2H2	InChI=1S/C6H8N2O/c9-5-1-3-6(5,8-3)4-2-7-4/h3-4,7-8H,1-2H2/t3-,4-,6+/m1/s1
