16
gdb 14870	2.88234	1.77206	1.19938	3.6071	61.06	-0.2536	-0.0382	0.2154	976.398	0.129127	-420.852016	-420.843817	-420.842872	-420.885624	28.44	
O	 0.0053672082	 1.3138595245	-0.1068042096	-0.422133
C	 0.091855068	-0.093560181	 0.0195787519	-0.070953
C	-1.3038835815	-0.6499503301	 0.2612100556	 0.10778
O	-2.165585323	-0.2954298349	-0.8611977965	-0.29854
C	-2.3908882875	-1.6737913833	-1.2080337756	-0.087895
C	-1.6065642519	-2.1520500339	 0.0413516367	-0.166351
C	-0.5038098096	-3.1551706871	-0.1632051623	 0.139571
O	 0.6421200055	-3.0166287096	 0.1807911075	-0.235783
H	-0.6418515253	 1.4797658095	-0.8032317562	 0.29207
H	 0.536634054	-0.553905813	-0.8740394066	 0.090269
H	 0.7482383949	-0.3108480182	 0.865679494	 0.125031
H	-1.7049792892	-0.230664815	 1.1908206887	 0.093992
H	-3.4567904428	-1.922966497	-1.2363491665	 0.116502
H	-1.9363386684	-1.9400769929	-2.1716704471	 0.110874
H	-2.2773027612	-2.5673686636	 0.8023029914	 0.119
H	-0.8396395604	-4.0911322445	-0.6688126554	 0.086565
58.5467	84.9165	125.5226	156.8519	233.3387	322.5413	377.9385	460.051	484.5726	670.9644	714.7616	835.0629	894.1217	916.0969	944.0629	1009.4281	1035.7046	1060.2974	1078.3829	1123.4365	1147.3099	1163.0313	1209.2009	1227.9005	1278.0104	1328.2502	1339.9423	1365.7803	1398.8786	1424.8477	1432.6335	1488.5178	1528.0767	1826.7946	2857.2462	3005.4885	3012.2043	3041.9338	3052.2983	3071.2061	3108.487	3785.3839
OCC1OCC1C=O	OC[C@H]1OC[C@H]1C=O	
InChI=1S/C5H8O3/c6-1-4-3-8-5(4)2-7/h1,4-5,7H,2-3H2	InChI=1S/C5H8O3/c6-1-4-3-8-5(4)2-7/h1,4-5,7H,2-3H2/t4-,5-/m1/s1
