20
gdb 117298	3.31176	0.89071	0.75017	3.6985	79.87	-0.2373	0.0059	0.2432	1576.4386	0.170611	-436.533544	-436.523111	-436.522167	-436.570491	36.655	
C	 0.6713338344	 1.0285792829	 0.004395231	-0.368878
C	 0.1803971321	-0.3968683093	-0.2666320501	-0.138314
N	 0.7211017466	-1.3781004078	 0.6592439625	-0.336773
C	 0.1382302347	-1.5933897851	 1.8559712786	 0.481709
O	-0.871496836	-1.048789795	 2.2705926818	-0.424704
N	 0.776038325	-2.5547816307	 2.6828316905	-0.383546
C	 1.9158680612	-3.3061252328	 2.4911528418	 0.402335
C	 2.2300868476	-4.2153182811	 3.6601263417	-0.48264
N	 2.6059903368	-3.2087915024	 1.4156249683	-0.534895
H	 1.7623832022	 1.0899925608	-0.0612841814	 0.112477
H	 0.2445860739	 1.7258618408	-0.7241974287	 0.110616
H	 0.3654645454	 1.3461882246	 1.004647281	 0.139499
H	-0.9100211078	-0.4316124182	-0.1925338839	 0.132747
H	 0.4566230347	-0.7104860804	-1.2785461657	 0.101826
H	 1.5822522675	-1.8864486977	 0.4693656934	 0.277083
H	 0.2761396722	-2.6632729516	 3.5511465133	 0.256336
H	 1.4036608173	-4.9106664189	 3.8421665301	 0.149068
H	 3.1345985633	-4.7936134748	 3.4662166532	 0.136753
H	 2.3788769627	-3.6316248294	 4.5749465627	 0.148906
H	 3.4088524362	-3.8301278237	 1.4408965299	 0.220395
30.364	60.567	90.7039	118.2663	149.8029	172.6723	240.1626	311.5014	336.8356	425.4421	458.453	542.4996	582.5779	590.2772	673.4375	708.5405	770.3998	780.7915	823.184	887.1593	945.506	970.0134	1033.0391	1063.7528	1095.5419	1143.9031	1169.3519	1186.4876	1274.3777	1334.8718	1339.8699	1393.1055	1404.4382	1407.671	1475.0518	1477.5107	1477.975	1490.7449	1505.1197	1523.3419	1595.5396	1709.1557	1801.2796	3036.9254	3040.0367	3050.4186	3094.2946	3101.8614	3109.4665	3127.7371	3141.4466	3440.4275	3530.1501	3645.3426
CCNC(=O)NC(C)=N	CCNC(=O)NC(=N)C	
InChI=1S/C5H11N3O/c1-3-7-5(9)8-4(2)6/h3H2,1-2H3,(H3,6,7,8,9)	InChI=1S/C5H11N3O/c1-3-7-5(9)8-4(2)6/h3H2,1-2H3,(H3,6,7,8,9)
