18
gdb 17613	4.028	1.32273	1.13234	3.2581	69.49	-0.2624	-0.025	0.2374	1094.2323	0.152404	-384.952811	-384.944185	-384.943241	-384.98634	31.513	
C	 0.1385661584	 1.5517411712	 0.0839165962	-0.39781
C	-0.0442629093	 0.0253457261	 0.0367842781	 0.051391
O	-1.4063856613	-0.3044512826	 0.0098605238	-0.439932
C	 0.6569977931	-0.5822218878	-1.1804768337	 0.365138
O	-0.0171986299	-1.1320902397	-2.0345665728	-0.363454
C	 2.1323236903	-0.4859293629	-1.2738550892	-0.101479
C	 2.8623173865	-1.6215458364	-1.9817386301	-0.250387
C	 2.7378468025	-0.3054328157	-2.6625280259	-0.248426
H	 1.189237441	 1.8382768165	 0.1882943148	 0.113775
H	-0.2650872599	 2.0089765998	-0.8243423327	 0.128369
H	-0.4144696745	 1.9464243487	 0.9396761499	 0.135724
H	 0.4292074463	-0.4115485825	 0.9332166801	 0.088301
H	-1.5326299315	-0.7744778789	-0.8311433186	 0.29129
H	 2.6391189729	-0.0105441655	-0.4426329971	 0.095639
H	 3.8221511705	-1.9143038999	-1.5725640302	 0.123339
H	 2.2338294597	-2.4306063987	-2.335044924	 0.143179
H	 2.025650219	-0.2268724893	-3.475567484	 0.141773
H	 3.6086278962	 0.3353733677	-2.7369779347	 0.123568
60.3404	75.3768	185.8314	210.385	237.4297	286.8721	351.2042	379.7528	435.8758	479.949	645.2329	730.7132	779.1586	815.6029	830.3036	887.7135	895.5803	928.1395	1037.8407	1057.7849	1091.6503	1092.0749	1102.1817	1117.2244	1128.5396	1186.5343	1211.029	1223.0931	1276.8919	1352.5568	1397.7722	1406.0815	1441.3042	1455.8489	1486.6692	1489.2067	1499.0627	1764.7862	2956.6822	3043.6642	3119.4002	3127.3149	3144.0116	3145.643	3183.5085	3231.9252	3246.4064	3665.3303
CC(O)C(=O)C1CC1	C[C@@H](O)C(=O)C1CC1	
InChI=1S/C6H10O2/c1-4(7)6(8)5-2-3-5/h4-5,7H,2-3H2,1H3	InChI=1S/C6H10O2/c1-4(7)6(8)5-2-3-5/h4-5,7H,2-3H2,1H3/t4-/m1/s1
