18
gdb 12879	2.77771	2.20807	1.78247	2.2284	66.85	-0.2334	0.0768	0.3103	839.2166	0.154942	-384.929778	-384.922396	-384.921451	-384.960891	28.9	
C	-0.0492383962	 1.5067632212	 0.0020454064	-0.489619
C	 0.0171509331	-0.0001404751	 0.0157672594	 0.251942
C	-1.2457751165	-0.785643066	-0.3014164326	-0.150738
O	-1.0374659219	-2.1066134625	 0.2090142595	-0.275995
C	-0.2065934112	-2.0017568138	 1.373813849	-0.111619
C	 0.7024795435	-0.8181788828	 1.114171051	-0.165905
C	 1.2967513308	-0.7496096003	-0.2730259741	 0.099066
O	 1.382398231	-1.8494629616	-1.1272995038	-0.439466
H	 0.9085033355	 1.945477249	 0.2977320851	 0.121493
H	-0.289115152	 1.8869988118	-0.9978579554	 0.124283
H	-0.8138744379	 1.8810820613	 0.693600889	 0.116397
H	-2.1178165012	-0.3114564806	 0.1766237583	 0.098175
H	-1.4517424782	-0.8871172122	-1.3724506203	 0.116175
H	-0.8145454446	-1.8384646759	 2.2765062129	 0.102365
H	 0.315291351	-2.9589559505	 1.4758589104	 0.118437
H	 1.2011288819	-0.3488234006	 1.9555003251	 0.087377
H	 2.1867055701	-0.1366519638	-0.3801110794	 0.100719
H	 0.5796957329	-2.3746844178	-0.9993150506	 0.296913
192.667	195.9833	234.3727	252.8204	275.962	301.3028	498.9063	536.0213	565.5346	580.717	718.8602	739.667	850.1924	865.4618	920.1055	950.8051	972.6544	1009.1752	1024.6698	1070.7472	1086.8813	1101.127	1145.679	1165.4963	1211.9014	1232.7392	1255.1984	1294.979	1328.346	1341.9868	1363.4309	1419.3541	1434.2604	1480.2792	1491.0229	1500.4499	1510.5913	1523.8625	2977.9419	2992.4317	3020.9912	3067.2976	3072.171	3078.5313	3100.8267	3157.1208	3170.0663	3730.2456
CC12COCC1C2O	C[C@]12COC[C@H]1[C@H]2O	
InChI=1S/C6H10O2/c1-6-3-8-2-4(6)5(6)7/h4-5,7H,2-3H2,1H3	InChI=1S/C6H10O2/c1-6-3-8-2-4(6)5(6)7/h4-5,7H,2-3H2,1H3/t4-,5+,6-/m0/s1
