15
gdb 35012	2.90025	1.31993	1.0994	3.7497	78.32	-0.2415	-0.0029	0.2387	1105.2913	0.112423	-379.594851	-379.586835	-379.585891	-379.62745	30.225	
C	 0.0430873896	-1.211762777	-0.0172424744	-0.427943
C	 0.0572867774	-0.0105394572	 0.0166653656	 0.355746
C	 0.0440840188	 1.4217720962	 0.060014343	-0.278477
C	 0.4419772138	 2.2366758567	 1.2776876523	-0.152823
C	 1.6297242543	 1.5951811503	 2.0000822371	-0.18862
N	 2.4011626463	 1.5041371871	 0.7100864625	-0.360003
C	 1.3246317317	 2.2523500247	 0.0307445789	 0.242115
C	 1.5682154923	 3.2701801587	-0.9362311166	 0.19129
N	 1.7795699995	 4.1015991587	-1.7137612748	-0.342513
H	 0.0421277087	-2.2729791809	-0.0570516667	 0.203472
H	-0.7615495522	 1.8941563091	-0.4968179333	 0.140198
H	-0.2118529243	 3.0022450686	 1.673733792	 0.12464
H	 2.0854435787	 2.2804633279	 2.7193806765	 0.121674
H	 1.4543727479	 0.6237605473	 2.4701705613	 0.130746
H	 3.2501657275	 2.0580213599	 0.7544868565	 0.240498
102.0974	135.6323	161.6018	197.7842	322.1258	349.9373	470.0811	509.956	542.6993	569.2377	618.6914	663.5005	678.1469	752.233	785.3723	823.4574	885.929	953.0241	968.7815	1006.0455	1024.6478	1065.639	1123.3898	1147.9598	1205.5084	1222.4958	1291.7734	1319.6756	1356.3727	1447.6302	1502.5422	2242.5116	2342.984	3057.7192	3111.0618	3146.6535	3204.171	3503.2914	3535.7062
C#CC1C2CNC12C#N	C#C[C@H]1[C@H]2CN[C@@]12C#N	
InChI=1S/C7H6N2/c1-2-5-6-3-9-7(5,6)4-8/h1,5-6,9H,3H2	InChI=1S/C7H6N2/c1-2-5-6-3-9-7(5,6)4-8/h1,5-6,9H,3H2/t5-,6+,7-/m0/s1
