14
gdb 50123	6.14094	0.89789	0.84792	1.4522	69.05	-0.2641	-0.051	0.2131	1278.2927	0.099378	-436.657691	-436.64976	-436.648816	-436.69086	28.361	
O	-0.1047928718	-0.0348955768	-0.0580577274	-0.242383
C	-0.0199482538	 1.1457022418	 0.1621068547	 0.155568
C	 1.2637196631	 1.9334805003	 0.0440303545	-0.110236
C	 1.2593468115	 3.1756564253	-0.9308975926	-0.332548
C	 1.5703224843	 4.0729007902	 0.2782340985	 0.323431
O	 0.5159227415	 3.8828864579	 1.2310865032	-0.256502
C	 1.5608033946	 2.9143626662	 1.2007788119	-0.066112
C	 2.309264279	 5.2955005283	 0.3108903046	 0.205804
N	 2.9230143035	 6.275215122	 0.2932587662	-0.326721
H	-0.9013411457	 1.7480421201	 0.4684697925	 0.102734
H	 2.0929461021	 1.2549983043	-0.1612474523	 0.116973
H	 2.0706275295	 3.1215782279	-1.6572763756	 0.148251
H	 0.3205641322	 3.4129932833	-1.4351562096	 0.139223
H	 2.1128291599	 2.7414403191	 2.1167192115	 0.142518
67.1108	91.2537	154.1661	214.5517	290.2366	375.6956	412.5506	481.3964	548.1853	578.2904	626.6638	753.0917	831.3578	884.475	912.5981	932.0905	959.758	1026.6615	1072.2717	1097.8457	1157.2619	1169.906	1214.635	1247.6261	1261.1137	1294.9155	1404.9362	1431.1503	1471.4432	1828.1119	2360.5676	2915.0879	3085.3221	3113.9161	3152.0611	3203.5551
O=CC1CC2(OC12)C#N	O=C[C@H]1C[C@]2(O[C@@H]12)C#N	
InChI=1S/C6H5NO2/c7-3-6-1-4(2-8)5(6)9-6/h2,4-5H,1H2	InChI=1S/C6H5NO2/c7-3-6-1-4(2-8)5(6)9-6/h2,4-5H,1H2/t4-,5+,6+/m1/s1
