20
gdb 93402	2.74154	1.31239	0.92787	5.6808	85.63	-0.213	-0.0173	0.1958	1267.2041	0.172366	-403.204296	-403.195515	-403.194571	-403.237504	34.374	
C	-0.0057459533	 1.5863478231	-0.0227551796	-0.429812
C	 0.0308242658	 0.0495817409	 0.0205250629	-0.055805
C	 0.6698865068	-0.5162693383	-1.257342657	-0.214011
C	 0.7975971716	-2.0389003358	-1.2086706515	-0.327572
C	 1.5515789615	-2.5147416776	 0.0320830058	 0.385145
O	 2.187148725	-3.5570200074	 0.0242402662	-0.368554
C	 1.4374309694	-1.6717916146	 1.2109839352	-0.304036
C	 0.7291394617	-0.5121532317	 1.2509622327	 0.383851
N	 0.5318190512	 0.1683341764	 2.4252312973	-0.564042
H	 1.0021449843	 2.0124978519	 0.0298439009	 0.126381
H	-0.455785654	 1.9169162893	-0.9634115587	 0.127697
H	-0.6098302781	 2.0190772797	 0.7816305796	 0.115954
H	-1.0107262815	-0.3047924411	 0.066190491	 0.104084
H	 0.075147313	-0.2060002774	-2.1237517442	 0.096356
H	 1.6650507907	-0.0693969035	-1.3808458468	 0.104869
H	-0.2016840128	-2.4971838864	-1.1845967515	 0.114606
H	 1.3061141919	-2.4378280549	-2.0901391981	 0.116251
H	 1.9305032487	-2.0408115518	 2.1068245203	 0.073971
H	 1.0740192043	-0.1248731604	 3.2232579557	 0.258894
H	 0.3490250137	 1.1566418595	 2.38497108	 0.255772
66.349	161.5493	207.4022	236.2762	321.8726	344.2144	355.7425	387.5238	428.151	467.0154	509.6983	520.0434	585.8775	642.3132	684.207	736.525	814.4118	877.132	883.6543	944.6178	957.0616	1032.2188	1069.1041	1092.7733	1102.6913	1132.3426	1204.0618	1225.9522	1258.4318	1303.185	1318.4757	1334.1787	1356.4657	1379.9724	1401.8963	1419.5976	1464.34	1490.272	1499.953	1509.7085	1632.7304	1670.0113	1751.3434	2986.5012	3013.129	3024.2049	3031.0868	3067.1145	3095.9467	3098.455	3108.0185	3158.8388	3591.0243	3704.3363
CC1CCC(=O)C=C1N	C[C@H]1CCC(=O)C=C1N	
InChI=1S/C7H11NO/c1-5-2-3-6(9)4-7(5)8/h4-5H,2-3,8H2,1H3	InChI=1S/C7H11NO/c1-5-2-3-6(9)4-7(5)8/h4-5H,2-3,8H2,1H3/t5-/m0/s1
