25
gdb 95759	2.40135	1.28688	1.06781	1.2023	88.88	-0.2409	0.0796	0.3206	1311.642	0.228828	-389.520867	-389.511096	-389.510152	-389.554419	38.881	
C	 0.0217731501	 1.6001956801	-0.0135465817	-0.401764
C	 0.0240216027	 0.0697081801	-0.0514571206	 0.017322
C	 0.7905700404	-0.4802507844	-1.26364367	-0.192597
C	 0.8429280912	-2.0065032903	-1.2154399043	-0.086728
O	 1.4115423134	-2.4814807851	-0.007680587	-0.287106
C	 0.7526571147	-2.0663572247	 1.2000373481	 0.354457
C	-0.6161705154	-2.7571732554	 1.3374175098	-0.421545
C	 1.6820186951	-2.5445471073	 2.3174904407	-0.411702
C	 0.6308775816	-0.5262606387	 1.229915769	-0.202789
H	 1.043045258	 1.9918595889	 0.0621305941	 0.113006
H	-0.4285059336	 2.0187092202	-0.9201812896	 0.108766
H	-0.5427851159	 1.9763065915	 0.8466309415	 0.109031
H	-1.0199038406	-0.2656101708	-0.1341963193	 0.069662
H	 0.3239135913	-0.1542913653	-2.2013609882	 0.087534
H	 1.8158294905	-0.0865440158	-1.2554979362	 0.096401
H	-0.1676392343	-2.4196786871	-1.3669179563	 0.082774
H	 1.4773606495	-2.4044416331	-2.0138035697	 0.101638
H	-0.4957497514	-3.8391578344	 1.2307789954	 0.119442
H	-1.0470206655	-2.5535285076	 2.3227953733	 0.111846
H	-1.3378748356	-2.4212000621	 0.5888201108	 0.11379
H	 2.68025974	-2.1185086983	 2.184495709	 0.116876
H	 1.2996350593	-2.2433851672	 3.2976296441	 0.107374
H	 1.7711433354	-3.6346935412	 2.2988657019	 0.116307
H	 1.6379940502	-0.1088329288	 1.362405333	 0.090852
H	 0.0454590587	-0.2232015732	 2.1066574322	 0.087153
139.2386	144.0608	200.5409	233.4282	237.9603	271.5042	288.7236	323.4467	331.9472	399.6776	418.5844	445.4907	476.3221	492.378	598.135	751.2995	805.4361	855.1516	864.4086	906.3242	929.2561	940.4281	977.0553	994.6597	1001.8336	1013.9604	1076.316	1087.4421	1120.3288	1163.5556	1191.0258	1226.3126	1236.6547	1251.2312	1289.3047	1305.4339	1330.0202	1338.6077	1378.4402	1394.4182	1394.9908	1407.1522	1412.1131	1416.2143	1467.4108	1475.0418	1485.1619	1488.4261	1492.5887	1497.9149	1499.8172	1505.228	1517.1689	2972.8317	2998.7423	3012.9961	3017.6161	3024.7197	3038.6782	3044.5372	3057.3768	3063.2738	3072.9759	3091.1284	3094.5303	3109.3315	3115.9513	3118.6056	3120.8704
CC1CCOC(C)(C)C1	C[C@H]1CCOC(C)(C)C1	
InChI=1S/C8H16O/c1-7-4-5-9-8(2,3)6-7/h7H,4-6H2,1-3H3	InChI=1S/C8H16O/c1-7-4-5-9-8(2,3)6-7/h7H,4-6H2,1-3H3/t7-/m0/s1
