22
gdb 22066	3.83653	0.66024	0.64741	1.0888	83.97	-0.2439	0.0116	0.2555	1851.7741	0.189792	-441.447974	-441.436507	-441.435562	-441.486232	40.156	
C	-0.8770178891	 0.80775021	-0.2647574385	-0.393965
C	 0.4423186361	 0.2051119863	 0.2276016598	 0.167484
C	 0.2465981457	-0.6759205923	 1.4563459119	-0.387818
O	 1.0528781093	-0.6205193873	-0.7621246795	-0.262724
C	 1.6959512489	 0.0763947883	-1.8116541436	-0.151952
C	 2.3221324043	-0.9305681043	-2.7403827568	 0.367845
C	 1.4572725072	-2.0070554496	-3.3306385099	-0.48101
N	 3.5671419811	-0.7588103758	-2.9703447597	-0.171597
O	 4.0677602724	-1.6889368799	-3.8935065954	-0.396481
H	-0.7352405297	 1.4432276744	-1.1435710312	 0.117037
H	-1.582195574	 0.0118897718	-0.5258441537	 0.121251
H	-1.3283954422	 1.4253503873	 0.518312315	 0.115761
H	 1.1370462496	 1.0238645493	 0.4799007073	 0.066758
H	-0.4232045041	-1.5094861373	 1.2216040364	 0.122027
H	 1.2034469523	-1.088683642	 1.7857912057	 0.123272
H	-0.1909254756	-0.1020424851	 2.2785884317	 0.111975
H	 0.9722748817	 0.6859235105	-2.3797101908	 0.093074
H	 2.4758822558	 0.7493686675	-1.4292524534	 0.106959
H	 1.046798047	-1.6823204769	-4.2949648902	 0.135869
H	 2.0374721536	-2.9131204057	-3.5113314629	 0.149184
H	 0.6255155789	-2.2223098268	-2.6580192752	 0.141141
H	 5.003047741	-1.4615880825	-3.919468097	 0.30591
31.5858	50.4703	54.2182	111.0332	134.0115	212.7247	241.2353	268.577	301.9712	320.2769	354.5936	386.1613	425.1925	433.0424	496.5972	552.638	665.3482	819.6431	849.5496	925.8167	932.5497	946.4975	957.0889	985.3684	1051.1769	1084.2723	1115.3059	1149.336	1166.6825	1199.7441	1248.5832	1278.4479	1357.2072	1368.8378	1388.4489	1398.0928	1400.0742	1414.005	1433.4469	1480.0495	1480.9495	1484.8856	1487.9728	1495.4568	1504.5805	1514.1556	1739.2965	2954.2199	2963.3478	3026.3747	3036.8427	3037.5812	3042.8124	3107.2063	3111.7967	3112.8125	3116.0584	3124.6943	3156.1836	3821.7864
CC(C)OCC(C)=NO	CC(C)OCC(=NO)C	
InChI=1S/C6H13NO2/c1-5(2)9-4-6(3)7-8/h5,8H,4H2,1-3H3	InChI=1S/C6H13NO2/c1-5(2)9-4-6(3)7-8/h5,8H,4H2,1-3H3
