16
gdb 46607	3.20832	1.50909	1.04654	3.0836	74.06	-0.2423	-0.03	0.2123	1084.7068	0.126528	-437.900233	-437.892954	-437.89201	-437.932292	27.156	
N	-0.0524202263	 1.3066023531	 0.0249041329	-0.548784
C	-0.0631547146	 0.0418804285	 0.0091799262	 0.315542
O	 1.0647259102	-0.7632980762	 0.0254610086	-0.261789
C	 0.6937600481	-2.1536609661	-0.0002026988	-0.205917
C	-0.7986461769	-2.1183104901	-0.0343547405	 0.177441
C	-1.2128084784	-0.8549472293	-0.0284518221	 0.185434
C	-2.7027188105	-0.788212941	-0.0623171629	-0.189031
O	-3.1019560289	-2.1710986194	-0.0886790026	-0.278281
C	-1.9681273174	-3.0462293881	-0.0730088937	-0.17769
H	 0.9059095787	 1.6585932962	 0.0513992108	 0.225825
H	 1.1435608829	-2.6259242651	-0.8832285763	 0.134409
H	 1.1024698132	-2.6476906689	 0.8908518678	 0.134409
H	-3.1308818924	-0.29492139	 0.8207673369	 0.126565
H	-3.0895986398	-0.2730360647	-0.9519308316	 0.126572
H	-1.9781054335	-3.6879170434	-0.9675654469	 0.117649
H	-2.0194064045	-3.7096953657	 0.8040765823	 0.117648
110.736	144.3816	193.7428	235.0897	274.6923	451.5035	497.2256	580.8356	629.7267	718.9008	764.2265	849.5743	872.5636	901.7156	961.2486	966.9491	1021.3727	1031.9223	1034.7937	1077.3454	1079.9622	1159.4149	1196.3748	1206.208	1218.3611	1241.0665	1311.7295	1385.1086	1403.4536	1427.5819	1499.6044	1514.2053	1523.3124	1721.1937	1766.4922	2980.023	2998.1766	3008.6323	3017.9236	3033.99	3047.8857	3479.9617
N=C1OCC2=C1COC2	[NH]C1=C2[C](CO1)COC2	
InChI=1S/C6H7NO2/c7-6-5-3-8-1-4(5)2-9-6/h7H,1-3H2	InChI=1S/C6H7NO2/c7-6-5-3-8-1-4(5)2-9-6/h7H,1-3H2
