19
gdb 95967	2.56941	1.57476	1.18285	4.0471	70.83	-0.2392	0.0595	0.2988	1082.0824	0.159385	-460.137187	-460.128692	-460.127748	-460.170875	31.538	
O	 0.1055072933	 1.1575385658	-0.5462149874	-0.42773
C	 0.0739416153	-0.164587305	-0.0542445811	 0.041313
C	 0.484734626	-0.3470467191	 1.4138703087	-0.278643
C	-0.207611641	-1.6682464752	 1.7545641359	-0.079815
O	-1.3709604562	-1.736294725	 0.9180689891	-0.309038
C	-1.3626413677	-0.7022454913	-0.0471210262	 0.359199
C	-2.5240431891	 0.3211112539	 0.0557227017	-0.119223
O	-3.003698316	-0.0389915046	-1.2561507779	-0.272149
C	-2.0160707175	-1.0768239049	-1.3909237153	-0.125713
H	 1.0240335178	 1.4202137855	-0.6556482776	 0.29043
H	 0.6805960463	-0.8299677741	-0.6906156624	 0.07614
H	 1.5664869396	-0.3789377843	 1.5684347574	 0.099748
H	 0.0742624383	 0.4826635913	 1.999223039	 0.118364
H	 0.4407708931	-2.5289669595	 1.5391351801	 0.10097
H	-0.5192047735	-1.7358674941	 2.8018905764	 0.111505
H	-3.2393401377	 0.0635439894	 0.8465216515	 0.097196
H	-2.2453266132	 1.3769777004	 0.1165931927	 0.115385
H	-1.3924864061	-0.9399635063	-2.283669826	 0.097812
H	-2.4554139219	-2.0819495529	-1.3940291786	 0.104249
56.8262	88.4023	158.2547	225.7753	255.0492	279.0441	379.7073	409.5855	473.7125	547.3315	609.1977	713.0729	829.28	861.7675	879.8302	938.1478	947.3839	988.9751	996.4159	1035.8176	1045.8726	1067.5368	1126.1709	1143.8833	1154.5697	1163.3722	1193.9532	1206.3834	1225.0479	1241.2575	1271.9276	1301.9779	1304.7701	1361.7979	1385.2427	1396.5051	1437.8833	1492.9539	1493.9158	1520.5191	1532.3524	2964.3271	3006.04	3008.4383	3026.5559	3050.5152	3060.9149	3068.6842	3094.1722	3106.9698	3833.7331
OC1CCOC11COC1	O[C@H]1CCOC21COC2	
InChI=1S/C6H10O3/c7-5-1-2-9-6(5)3-8-4-6/h5,7H,1-4H2	InChI=1S/C6H10O3/c7-5-1-2-9-6(5)3-8-4-6/h5,7H,1-4H2/t5-/m0/s1
