18
gdb 53594	2.8935	0.8455	0.71244	3.6469	82.32	-0.2467	0.0032	0.2499	1609.6916	0.145366	-401.9184	-401.908405	-401.907461	-401.955675	33.923	
C	-0.1334573664	 1.2241826901	 0.4774252004	-0.497161
C	-0.0771797218	-0.2192001018	 0.2949024076	 0.076492
C	-0.0205358357	-1.4127105367	 0.1468718163	 0.057797
C	 0.016389295	-2.8608240555	-0.0380803698	-0.37941
C	-1.3513602076	-3.4546037385	-0.3474396798	 0.005233
C	-1.6675421248	-4.8687590843	 0.0543635513	-0.255174
N	-2.2863767502	-3.7476348314	 0.7214132623	-0.05439
C	-2.1409592539	-3.4498956328	 2.0651009884	 0.130532
O	-2.1319430389	-4.2677660408	 2.9532121311	-0.292161
H	 0.4510823792	 1.7453463855	-0.2885602146	 0.150156
H	-1.1635309922	 1.5919005303	 0.415838404	 0.151266
H	 0.2647077534	 1.5164531948	 1.4551754305	 0.152121
H	 0.6945684155	-3.1147096256	-0.8637542162	 0.138501
H	 0.4260405009	-3.3474141718	 0.8569485258	 0.14004
H	-1.8149817597	-3.0609722556	-1.2500218169	 0.112325
H	-2.3180300302	-5.4769722208	-0.5676737513	 0.129512
H	-0.9168384625	-5.4195048742	 0.6166148146	 0.136333
H	-2.1025076901	-2.3588383111	 2.2382456164	 0.097988
21.0416	44.2872	89.1768	104.4447	189.5577	231.1556	237.753	301.8805	372.2352	384.2239	423.8843	517.8596	622.8443	763.7944	798.0734	878.287	920.1093	985.6328	1039.6737	1052.1688	1053.548	1082.1039	1094.8897	1132.5238	1144.0008	1169.0214	1170.6376	1242.9636	1323.4873	1375.7836	1415.1313	1417.0031	1430.6272	1462.773	1477.875	1478.399	1512.552	1795.5163	2374.3989	2972.5392	3013.5118	3028.536	3046.9117	3089.9868	3090.54	3108.8412	3128.8075	3197.2315
CC#CCC1CN1C=O	CC#CC[C@H]1CN1C=O	
InChI=1S/C7H9NO/c1-2-3-4-7-5-8(7)6-9/h6-7H,4-5H2,1H3	InChI=1S/C7H9NO/c1-2-3-4-7-5-8(7)6-9/h6-7H,4-5H2,1H3/t7-,8?/m0/s1
