23
gdb 57407	2.80057	1.2115	1.20248	1.5365	84.92	-0.2303	0.0728	0.303	1218.3923	0.204558	-388.245197	-388.235801	-388.234857	-388.279226	36.879	
C	 0.0828670216	 1.5364014002	 0.469263846	-0.422644
C	 0.0366193855	 0.0340931841	 0.1353520117	 0.220275
C	 0.6337667919	-0.7558060358	 1.3183903263	-0.39553
C	-1.4345002778	-0.3824205617	-0.0659930008	-0.397946
C	 0.8162064663	-0.3785252201	-1.1214892554	 0.009789
C	 1.0270881906	 0.2989614907	-2.4673809797	-0.189529
C	 1.5346889181	 1.7340314246	-2.3422629768	-0.086244
O	 2.5411134411	 1.3470948057	-1.3714647161	-0.281824
C	 2.2028644826	-0.033594526	-1.5564659062	 0.050945
H	 1.1082223095	 1.9034339157	 0.5341262616	 0.13913
H	-0.4526778317	 2.1296397017	-0.2780168285	 0.106386
H	-0.412089395	 1.7101054225	 1.4312410467	 0.099949
H	 0.0624826604	-0.5732707191	 2.2350653223	 0.106376
H	 0.6198949992	-1.8344746094	 1.1256757094	 0.102824
H	 1.6718401733	-0.4606988891	 1.5021827812	 0.119184
H	-1.8726076221	 0.1295848315	-0.9294021828	 0.111143
H	-1.5263080316	-1.4615725099	-0.2333578342	 0.104137
H	-2.0342627584	-0.1293589406	 0.8151859211	 0.107147
H	 0.6580523564	-1.4423572323	-1.3161342645	 0.086209
H	 0.7170077028	-0.1577844364	-3.3982468188	 0.095982
H	 2.0186950421	 2.0792062174	-3.2636527633	 0.10655
H	 0.8636211736	 2.5119506033	-1.9691569103	 0.107347
H	 3.0280373017	-0.7319808968	-1.6506918989	 0.100343
35.1442	176.2484	216.8125	240.0869	265.8995	285.0689	289.6031	336.5583	359.8304	387.0707	398.1209	526.2084	599.4345	732.0335	784.3806	798.2967	811.4959	875.1923	932.9611	936.611	962.4805	963.4979	973.042	993.7557	1022.629	1046.4853	1056.0952	1061.3736	1088.648	1125.056	1162.134	1171.0249	1226.8397	1237.9136	1268.628	1297.3783	1328.5658	1364.1659	1398.213	1399.9921	1424.4566	1451.3273	1479.4229	1485.6514	1493.3726	1502.1818	1505.2327	1518.3541	1534.2919	3021.5435	3025.6392	3030.4315	3037.2937	3079.1806	3087.3698	3088.5035	3094.2158	3095.7375	3100.3957	3102.6862	3141.2899	3162.9385	3194.1399
CC(C)(C)C1C2COC12	CC(C)(C)[C@H]1[C@H]2CO[C@@H]12	
InChI=1S/C8H14O/c1-8(2,3)6-5-4-9-7(5)6/h5-7H,4H2,1-3H3	InChI=1S/C8H14O/c1-8(2,3)6-5-4-9-7(5)6/h5-7H,4H2,1-3H3/t5-,6+,7-/m1/s1
