15
gdb 128931	6.98416	0.75096	0.70894	1.9403	72.45	-0.2422	0.0019	0.244	1498.6719	0.115136	-413.002554	-412.994425	-412.993481	-413.037112	28.59	
N	 0.1566996083	-1.1992287378	 0.0422283721	-0.289201
C	 0.2249187073	-0.0667204469	-0.1728244551	 0.251647
C	 0.2882282091	 1.3747674948	-0.4285883566	-0.277918
N	 1.1628444097	 2.0393726294	 0.5495211856	-0.40741
C	 1.3731801688	 3.4111934102	 0.3109145715	 0.369141
C	 0.723445858	 4.5649254467	 0.7104011625	-0.288822
C	 1.4678425664	 5.6096686864	 0.1224667972	 0.003849
N	 2.4917235334	 5.1536884576	-0.594438385	-0.219985
N	 2.416549977	 3.8169289685	-0.4609194747	-0.211567
H	 0.7006546833	 1.5348910505	-1.4299404571	 0.167405
H	-0.7391039117	 1.7717626085	-0.441632971	 0.151517
H	 0.817946993	 1.8841228073	 1.489220265	 0.25307
H	-0.156825435	 4.634142074	 1.3289308397	 0.104559
H	 1.2954670654	 6.6740496449	 0.1881684173	 0.116153
H	 3.126676437	 3.2288779358	-0.8657467413	 0.277563
37.595	44.3262	102.4917	200.9528	356.0683	370.3997	397.0605	497.1396	544.5828	679.8237	698.4602	725.3123	777.6725	803.2825	894.4071	931.5567	957.1593	995.099	1046.6806	1060.6966	1087.5999	1136.0296	1232.7257	1258.9638	1306.3224	1348.1688	1373.4407	1419.9907	1471.9954	1487.108	1521.6838	1608.2389	2370.0303	2986.0639	3080.2948	3243.395	3267.2652	3555.9168	3663.023
N#CCNC1=CC=NN1	N#CCNc1ccn[nH]1	
InChI=1S/C5H6N4/c6-2-4-7-5-1-3-8-9-5/h1,3H,4H2,(H2,7,8,9)	InChI=1S/C5H6N4/c6-2-4-7-5-1-3-8-9-5/h1,3H,4H2,(H2,7,8,9)
