21
gdb 101956	1.98714	1.44058	0.94653	3.8005	79.08	-0.2453	0.0677	0.313	1291.9711	0.18288	-420.334489	-420.325259	-420.324315	-420.36884	34.491	
O	-0.0706921715	 1.3436671337	 0.1747665168	-0.422385
C	-0.1146822303	-0.0673478879	 0.2013420061	-0.05309
C	-1.5543608173	-0.5865704231	 0.0528263374	-0.043513
C	-2.4227267163	-0.1538354057	 1.2174534602	 0.057092
C	-3.563503869	-0.9850245687	 1.6718609101	-0.252507
N	-2.3451568112	-0.8785613435	 2.4957585754	-0.325057
N	-2.0760824436	-0.0189440844	-1.1950213331	-0.073241
C	-1.832635919	-0.7699776495	-2.4244792562	-0.224753
C	-3.1990011793	-0.6859114751	-1.8388480467	-0.220831
H	-0.6514325445	 1.6043627735	-0.5527680057	 0.287913
H	 0.50688763	-0.5055526169	-0.5976767686	 0.08158
H	 0.3024095681	-0.3879721876	 1.1616042158	 0.11057
H	-1.5328889833	-1.6938030955	 0.0201915689	 0.045476
H	-2.4825736627	 0.9239771119	 1.337017814	 0.107264
H	-4.4469821441	-0.5171705998	 2.0967389989	 0.121593
H	-3.7561668828	-1.9216531621	 1.153903911	 0.104222
H	-1.7850669175	-1.7217675078	 2.3828877758	 0.225422
H	-1.5667802849	-0.181260452	-3.297448059	 0.122186
H	-1.3142873676	-1.7239584468	-2.3431501541	 0.115393
H	-3.5930951928	-1.5849849478	-1.3702615291	 0.114005
H	-3.9505496607	-0.0353089852	-2.2764067778	 0.122662
84.6793	97.385	124.9273	158.0765	200.2125	254.3315	317.3368	357.0774	439.3871	452.0769	489.899	652.6866	774.7176	801.9234	841.5526	878.8188	906.6942	914.3235	959.1678	967.7781	984.0005	1028.8221	1040.1428	1083.5858	1112.5183	1116.404	1121.3509	1135.8963	1162.2303	1167.8437	1171.5353	1224.3333	1250.1931	1250.994	1288.2029	1306.5365	1316.3896	1339.3767	1378.7463	1438.7511	1443.1635	1491.9108	1504.9758	1511.3538	1521.397	2903.6544	2963.8935	3075.6083	3098.1177	3103.8536	3107.7114	3157.47	3182.024	3189.7811	3196.8333	3477.2856	3754.9831
OCC(C1CN1)N1CC1	OC[C@@H]([C@H]1CN1)N1CC1	
InChI=1S/C6H12N2O/c9-4-6(5-3-7-5)8-1-2-8/h5-7,9H,1-4H2	InChI=1S/C6H12N2O/c9-4-6(5-3-7-5)8-1-2-8/h5-7,9H,1-4H2/t5-,6+/m1/s1
