18
gdb 50329	3.09338	1.55176	1.52034	2.8572	74.01	-0.2252	-0.0237	0.2015	950.6413	0.149574	-401.911543	-401.904455	-401.903511	-401.94348	27.859	
O	-0.7142716867	 0.8375107094	-0.5081707451	-0.243985
C	 0.1837973661	 0.9523638211	 0.2877877687	 0.157454
C	 1.3380777505	 1.9294861385	 0.1868585852	-0.130335
C	 1.3762192394	 2.8047725852	-1.1019719817	-0.195166
N	 0.9979509505	 4.1739603375	-0.7017260453	-0.122305
C	-0.3978919423	 4.1579025728	-0.1188269676	-0.19423
C	 0.1919091901	 4.0516467621	 1.2818770442	-0.092019
C	 1.2995498483	 2.995433859	 1.2948544397	-0.068903
C	 1.5450631176	 4.3393078837	 0.6773101845	-0.03605
H	 0.2119656324	 0.313836644	 1.2012296293	 0.079146
H	 2.2535825764	 1.3337046259	 0.3083129551	 0.090596
H	 2.3918594585	 2.8270545311	-1.5089771096	 0.104263
H	 0.6980819697	 2.4318391735	-1.8721554706	 0.130726
H	-0.8840499318	 5.1216198768	-0.2951433989	 0.109801
H	-1.0400791549	 3.3518336775	-0.4834901798	 0.129485
H	-0.23691805	 4.4256818234	 2.2040829188	 0.091408
H	 1.7261668233	 2.7774133348	 2.2671768776	 0.094985
H	 2.3349086429	 5.0394032638	 0.9181737454	 0.095129
58.1453	152.5763	219.7497	305.0324	422.6626	452.185	601.2688	665.7743	723.7681	749.3416	767.3924	808.4967	835.41	871.2011	911.99	958.0739	979.2035	987.9834	1000.7241	1024.843	1041.1231	1070.8367	1076.1841	1095.5196	1113.5681	1131.2706	1202.8793	1230.7953	1232.867	1263.925	1293.3237	1315.3084	1339.0693	1345.9929	1382.6876	1427.7302	1486.8842	1518.0278	1822.2772	2862.4642	3010.4113	3052.6153	3057.2362	3108.077	3123.933	3176.6253	3180.9343	3197.0634
O=CC1CN2CC3C1C23	O=C[C@H]1CN2C[C@H]3[C@@H]1[C@@H]23	
InChI=1S/C7H9NO/c9-3-4-1-8-2-5-6(4)7(5)8/h3-7H,1-2H2	InChI=1S/C7H9NO/c9-3-4-1-8-2-5-6(4)7(5)8/h3-7H,1-2H2/t4-,5+,6-,7+/m1/s1
