17
gdb 105570	1.95718	1.6046	1.31146	1.8944	75.57	-0.2303	-0.0368	0.1935	1088.5028	0.13236	-421.781438	-421.772016	-421.771072	-421.815794	34.03	
C	 0.06994845	 1.5578108431	 0.0311501902	-0.264554
O	 0.0957753574	 0.1359218827	 0.12023931	-0.275013
C	 0.587814824	-0.5241712691	-1.0161267643	 0.159879
C	 0.3912501908	-2.0739323746	-0.9265905615	-0.289702
C	-0.2873627384	-2.1046710138	-2.3271302238	-0.333491
C	-0.3938609987	-0.5781704327	-2.2521730799	 0.34538
O	-1.0710880705	 0.2478201085	-2.7856487904	-0.289534
C	 1.9353272149	-0.1281610669	-1.4134922535	 0.290347
C	 3.0374878915	 0.1917201281	-1.7745171657	-0.479891
H	 1.0797415803	 1.966637832	-0.0973058309	 0.12277
H	-0.5635165773	 1.8932524592	-0.7967691229	 0.141797
H	-0.3453418991	 1.9115692436	 0.9768566962	 0.128943
H	 1.3037612672	-2.6555596708	-0.8077487782	 0.12334
H	-0.3052232598	-2.2967638974	-0.1168691187	 0.132696
H	 0.3887231283	-2.4159785621	-3.1294764209	 0.144753
H	-1.2303083718	-2.6446522668	-2.4338070601	 0.137157
H	 4.0114989611	 0.4774703468	-2.0881708457	 0.205121
72.6979	109.071	117.7202	170.3739	176.1991	241.3322	275.6549	367.3379	408.7967	491.2096	531.8418	572.4331	614.3914	664.444	680.5876	723.4945	763.6119	874.6479	929.6259	983.4952	1034.9547	1052.8002	1069.3184	1163.7346	1179.6412	1185.1152	1205.6318	1226.4021	1248.1686	1268.0231	1442.0791	1473.6049	1479.2024	1487.1144	1514.3003	1890.7002	2219.7503	3020.7591	3066.0079	3091.1309	3094.5728	3123.9879	3132.6117	3163.0775	3497.5047
COC1(CCC1=O)C#C	CO[C@]1(CCC1=O)C#C	
InChI=1S/C7H8O2/c1-3-7(9-2)5-4-6(7)8/h1H,4-5H2,2H3	InChI=1S/C7H8O2/c1-3-7(9-2)5-4-6(7)8/h1H,4-5H2,2H3/t7-/m0/s1
