16
gdb 27624	3.03087	1.22478	0.87706	2.04	82.67	-0.1818	0.0205	0.2024	1262.7769	0.123006	-400.762715	-400.753608	-400.752664	-400.796132	33.996	
C	-0.0470835073	 1.5007218729	 0.0800046024	-0.520361
C	 0.0111501559	 0.0161633429	-0.0174793631	 0.193602
C	 0.0191542672	-0.8165255268	-1.122899711	 0.122519
C	 0.0849980278	-2.1797406276	-0.6528263856	-0.448207
C	 0.1141192185	-2.1128106182	 0.7123193506	 0.401496
O	 0.1745808136	-3.0424256724	 1.6981692588	-0.438266
N	 0.0700189483	-0.7988091788	 1.0948977489	-0.343264
C	-0.0291013427	-0.3956309502	-2.4710876604	 0.236251
C	-0.0698379	-0.0462915074	-3.6247053287	-0.459194
H	 0.8312783705	 1.9184824079	 0.5886288883	 0.126086
H	-0.0840344034	 1.9231497888	-0.9262168379	 0.153575
H	-0.9356915032	 1.8470320568	 0.6233660571	 0.126219
H	 0.1066521937	-3.0674798204	-1.2638750501	 0.097449
H	 0.2013472746	-3.9135838459	 1.2911290877	 0.309344
H	 0.0798827792	-0.4923070379	 2.0526979365	 0.265689
H	-0.1055911828	 0.2619955063	-4.6394311735	 0.177062
127.4007	136.0331	140.1026	202.3533	230.2509	273.6544	313.9986	411.5179	432.3284	482.6124	511.2926	521.4667	571.8177	640.9434	650.1398	662.0179	679.2036	739.5206	784.6748	997.5628	1043.131	1061.9108	1133.8751	1164.0191	1182.9983	1266.1902	1326.7535	1416.0609	1455.0356	1482.3868	1493.1683	1518.9138	1581.9549	1646.4045	2222.6409	3012.6437	3055.2151	3130.4104	3260.1396	3506.1858	3676.6189	3847.9928
CC1=C(C=C(O)N1)C#C	Cc1c(cc(O)[nH]1)C#C	
InChI=1S/C7H7NO/c1-3-6-4-7(9)8-5(6)2/h1,4,8-9H,2H3	InChI=1S/C7H7NO/c1-3-6-4-7(9)8-5(6)2/h1,4,8-9H,2H3
