16
gdb 19755	3.85246	2.27957	2.20744	1.8098	61.4	-0.2388	0.0909	0.3297	713.7225	0.132725	-383.728302	-383.722415	-383.721471	-383.758013	24.126	
C	-0.0740181317	 1.5546937893	 0.0093605003	-0.41309
C	 0.0230559428	 0.0330930584	-0.0142138639	 0.008519
C	 0.9505719795	-0.5543018025	-1.0755468108	-0.177683
C	 2.3102655097	-0.6195561002	-0.3848093342	 0.0403
O	 2.1553126159	-0.1327609929	 0.9363520734	-0.247988
C	 0.8252483182	-0.5910159978	 1.1573580213	 0.136018
O	 0.8627877017	-1.9756785686	 0.8293885463	-0.247879
C	 1.4470467649	-1.8538637854	-0.4559298096	 0.030843
H	 0.9177408411	 2.004138875	 0.1028935554	 0.134122
H	-0.5368135309	 1.9315492814	-0.9080400704	 0.116055
H	-0.6851837416	 1.8963240878	 0.8519286132	 0.114128
H	-0.9677180929	-0.4297713093	-0.0543766024	 0.086055
H	 0.8270579408	-0.4055632266	-2.1389966915	 0.095622
H	 3.2828718156	-0.4654694134	-0.8270006824	 0.113327
H	 0.516922802	-0.4328680269	 2.1872861446	 0.097811
H	 1.6628961549	-2.7842878883	-0.9591404594	 0.11384
211.663	220.402	277.3186	518.3114	591.3821	604.2607	717.0841	735.1962	791.6508	797.752	802.9867	880.9614	897.3713	940.0714	983.3084	996.6229	1013.4806	1036.8747	1042.3712	1061.0678	1088.2254	1094.7195	1107.4331	1134.3196	1219.2765	1234.8544	1267.2359	1294.6957	1342.0745	1369.4602	1376.716	1410.7225	1498.4254	1502.6461	3037.237	3067.9865	3098.3425	3126.1105	3174.8898	3217.113	3233.4537	3243.3591
CC1C2C3OC1OC23	C[C@H]1[C@H]2[C@H]3O[C@@H]1O[C@@H]23	
InChI=1S/C6H8O2/c1-2-3-4-5(3)8-6(2)7-4/h2-6H,1H3	InChI=1S/C6H8O2/c1-2-3-4-5(3)8-6(2)7-4/h2-6H,1H3/t2-,3-,4+,5-,6+/m0/s1
