16
gdb 19382	3.1156	2.28607	1.59361	3.2303	70.06	-0.2375	-0.0082	0.2293	828.7825	0.130803	-346.580429	-346.573599	-346.572655	-346.611304	26.585	
O	 0.04324089	 0.0462326924	-0.1281096238	-0.333841
C	-0.0137896665	 1.23767858	 0.0051200747	 0.369704
C	-1.130744853	 2.2492071834	-0.0142920277	-0.175284
C	-0.9590946923	 3.2269520013	 1.1449345019	-0.285697
C	-0.060712816	 3.3746107012	-0.0325907977	-0.150797
C	 1.0429449238	 2.3293096725	 0.0498402991	 0.250554
C	 2.3573916788	 2.3351662114	 0.7827496943	-0.320494
C	 2.3339401854	 2.2505621385	-0.7194888263	-0.331523
H	-2.0686436219	 2.1687085328	-0.5483582319	 0.111648
H	-1.7711360443	 3.9419838024	 1.2341563422	 0.124586
H	-0.559767734	 2.8824642877	 2.0945245875	 0.125945
H	-0.0554984231	 4.2412121139	-0.6803433324	 0.107156
H	 2.6740027396	 3.2676097262	 1.238497717	 0.119783
H	 2.6173536176	 1.4415994622	 1.3406540141	 0.130515
H	 2.5644178807	 1.2983235912	-1.1856382621	 0.137017
H	 2.6346066353	 3.1245616229	-1.2876210688	 0.120727
131.581	187.981	210.4586	248.069	414.7875	491.4152	607.6432	646.6834	736.0628	768.8756	797.1598	824.1323	884.7765	899.1308	922.9759	947.6888	965.7541	1000.6701	1027.5523	1052.4631	1057.8441	1080.877	1090.9765	1108.8914	1177.8302	1194.2646	1239.4681	1259.7248	1299.7773	1393.5765	1456.344	1489.0369	1495.6497	1875.3097	3119.2763	3128.3135	3130.9627	3200.6031	3201.4987	3210.8745	3213.21	3225.5005
O=C1C2CC2C11CC1	O=C1[C@H]2C[C@H]2C21CC2	
InChI=1S/C7H8O/c8-6-4-3-5(4)7(6)1-2-7/h4-5H,1-3H2	InChI=1S/C7H8O/c8-6-4-3-5(4)7(6)1-2-7/h4-5H,1-3H2/t4-,5+/m0/s1
