16
gdb 133689	3.06253	0.89941	0.82007	1.3982	58.39	-0.2635	-0.0338	0.2297	1358.8102	0.118014	-569.414135	-569.404616	-569.403672	-569.449898	32.896	
C	-0.0340685806	 1.6331131506	 0.1279068365	-0.411439
C	 0.037630967	 0.106124134	 0.0007233434	-0.146389
C	 0.7641174012	-0.3447360069	-1.2817572315	-0.291863
C	-0.059540595	-0.0666338206	-2.5205363226	 0.157062
O	 0.3333648167	 0.5208456703	-3.4932601212	-0.232642
C	 0.7061359903	-0.5086963531	 1.2238534723	 0.295776
F	 0.0713422139	-0.1653229337	 2.3549163156	-0.080534
F	 0.7073099926	-1.851452929	 1.1605329339	-0.084147
F	 1.9840220571	-0.1138775075	 1.3439446422	-0.084617
H	 0.9703994778	 2.0624453419	 0.1832024382	 0.141709
H	-0.5367569605	 2.064010206	-0.7419701574	 0.135578
H	-0.5845898681	 1.9271241409	 1.0240108684	 0.138962
H	-0.9790030356	-0.3076111354	-0.0055576347	 0.110563
H	 1.7378490474	 0.1408700532	-1.382832535	 0.136457
H	 0.9224102204	-1.4304191584	-1.2380625678	 0.139327
H	-1.0997989347	-0.4692621922	-2.4741200703	 0.076199
54.4613	62.4874	73.913	171.2106	211.2429	239.5014	288.3895	312.6826	385.4157	438.1991	507.7895	565.1633	580.6449	662.4338	774.3756	823.3965	925.187	961.396	1011.5178	1058.4835	1114.8961	1148.1036	1168.9332	1207.4232	1232.2574	1280.8704	1292.4155	1354.479	1394.3287	1418.8036	1428.8164	1464.3701	1492.9518	1508.9305	1840.4728	2847.5786	3034.869	3037.2265	3052.9032	3113.638	3124.1006	3136.0825
CC(CC=O)C(F)(F)F	C[C@@H](CC=O)C(F)(F)F	
InChI=1S/C5H7F3O/c1-4(2-3-9)5(6,7)8/h3-4H,2H2,1H3	InChI=1S/C5H7F3O/c1-4(2-3-9)5(6,7)8/h3-4H,2H2,1H3/t4-/m0/s1
