18
gdb 77951	3.35206	1.35534	1.10768	3.7745	72.45	-0.2412	0.0612	0.3024	1101.0529	0.148414	-438.988803	-438.98115	-438.980206	-439.020426	31.26	
O	-0.0386232961	 1.4553876641	-0.1401965559	-0.45661
C	-0.007728942	 0.0411740277	-0.0304791514	 0.149278
C	-0.0215629773	-0.6332692989	 1.3847634255	-0.283434
C	-1.5209639413	-0.150666349	 1.5260952093	 0.192233
O	-1.8399469103	 1.16492331	 1.8325775367	-0.456311
C	-1.3939332728	-0.6548652395	 0.0368212819	-0.229607
C	-0.6176491256	-1.8349253968	 0.6416397393	 0.463484
C	-0.0506991673	-3.0811551468	 0.1122614684	-0.35754
N	-1.1500813102	-3.0891928706	 1.1250497472	-0.401559
H	 0.8503149562	 1.7893572921	 0.0189249706	 0.292253
H	 0.7046911047	-0.3827741611	-0.7482216839	 0.079382
H	 0.7704172788	-0.6344559446	 2.1361446785	 0.070355
H	-2.1398691441	-0.7897000409	 2.1592984415	 0.095443
H	-1.3272891781	 1.7236631786	 1.2312455485	 0.287139
H	-2.1587634761	-0.6835463199	-0.7382420938	 0.084934
H	-0.340567883	-3.4548929839	-0.8660476555	 0.124253
H	 0.9452974837	-3.3782292141	 0.4321086308	 0.113519
H	-0.7711366795	-3.3131744065	 2.0426942622	 0.232787
166.3205	226.9449	249.6103	283.8308	315.6254	345.5243	436.8749	469.4176	479.0897	572.3515	628.791	717.0045	724.5486	823.3192	852.5143	891.5215	913.7066	932.0307	940.7386	972.5363	1024.9218	1039.4195	1088.7524	1097.5837	1105.305	1120.8658	1142.4697	1177.0721	1191.2734	1206.5802	1244.0853	1258.5782	1265.6004	1310.0979	1343.8339	1428.5717	1457.0246	1492.4377	1532.9115	3032.3823	3093.889	3100.5004	3103.2553	3130.3266	3186.8761	3488.4447	3725.5039	3815.414
OC1C2C(O)C1C21CN1	O[C@H]1[C@H]2[C@@H](O)[C@@H]1[C@]12CN1	
InChI=1S/C6H9NO2/c8-4-2-5(9)3(4)6(2)1-7-6/h2-5,7-9H,1H2	InChI=1S/C6H9NO2/c8-4-2-5(9)3(4)6(2)1-7-6/h2-5,7-9H,1H2/t2-,3+,4-,5+,6-
