16
gdb 30436	3.65162	1.184	0.89914	2.8825	81.45	-0.1933	-0.0418	0.1515	1246.7175	0.125361	-434.094624	-434.086416	-434.085472	-434.127437	30.691	
C	 0.1195241079	 1.3798782735	 0.0071974217	-0.321282
N	 0.0254753536	-0.0681849388	 0.0041649512	-0.332141
C	-1.1362355146	-0.6030408126	 0.0112636701	 0.362365
N	-1.1987009565	-2.0077871808	 0.0085509013	-0.383116
C	-2.3554594181	-2.7053062654	 0.015093511	 0.460565
O	-2.1755919362	-4.040404725	 0.0105316077	-0.411242
C	-3.5509206464	-2.0399336169	 0.025240509	-0.207488
N	-3.5803291211	-0.6734498586	 0.02889899	-0.21293
C	-2.4700952496	-0.0005570317	 0.0225807593	-0.097824
H	 1.1750032413	 1.6650570989	-0.0005617079	 0.118385
H	-0.3506508727	 1.84229083	-0.8742286203	 0.110609
H	-0.3363146349	 1.8375602632	 0.8985696819	 0.110625
H	-0.314903667	-2.4996007325	 0.0009012076	 0.269312
H	-3.036911037	-4.4725574466	 0.0157689221	 0.318494
H	-4.4954836959	-2.570868836	 0.0306520259	 0.098768
H	-2.5364399628	 1.0824699596	 0.0259246494	 0.116902
104.4425	122.6646	202.3475	211.0256	262.5378	362.9401	376.877	448.2563	493.8498	552.5867	583.0158	635.6985	690.1562	719.1641	736.1404	772.4299	898.7621	950.5543	1008.3713	1091.9839	1112.174	1142.3928	1169.0082	1207.7778	1289.396	1308.213	1361.2071	1406.5931	1446.3243	1490.0429	1507.312	1534.2285	1592.3942	1644.4722	1714.572	2971.9112	3016.898	3092.0291	3179.6423	3190.6589	3600.5548	3825.3505
CN=C1NC(O)=CN=C1	C[N]c1[nH]c(O)cnc1	
InChI=1S/C5H7N3O/c1-6-4-2-7-3-5(9)8-4/h2-3H,1H3,(H2,6,8,9)	InChI=1S/C5H12N3O/c1-6-4-2-7-3-5(9)8-4/h4-5,7-9H,2-3H2,1H3
