22
gdb 100729	2.74958	1.00646	0.78568	3.5235	79.08	-0.2365	0.0351	0.2716	1498.5082	0.192613	-441.53	-441.519239	-441.518295	-441.566287	39.741	
C	-0.3945096835	 1.5061442777	 0.38196643	-0.382208
C	 0.1243403304	 0.1047365017	 0.0457510178	-0.196643
C	 0.5992630467	-0.6709981905	 1.2806934899	 0.106142
O	-0.4532523752	-0.7112372039	 2.2628310057	-0.426855
C	 1.1283848812	-2.0962663877	 0.970525981	-0.113858
C	 2.068349953	-2.1502665825	-0.2400762066	-0.397574
C	 1.8307923231	-2.7568367213	 2.1856515661	 0.387799
N	 1.1831288355	-2.6406393738	 3.3766110469	-0.524262
O	 2.8740474532	-3.3741188022	 2.0665619785	-0.368165
H	 0.3965441913	 2.1188833138	 0.8280021511	 0.118821
H	-0.7450599463	 2.0180011897	-0.5189652123	 0.113609
H	-1.2193324763	 1.4630606334	 1.097273698	 0.123837
H	-0.6612379432	-0.4789721439	-0.457910505	 0.087653
H	 0.9492517461	 0.1825093132	-0.6680519127	 0.115577
H	 1.3958108199	-0.0969088864	 1.7711215333	 0.100739
H	-1.2155092726	-1.1346342743	 1.8497988475	 0.282609
H	 0.2446890361	-2.71712388	 0.7527999222	 0.08503
H	 1.533943541	-1.9492332238	-1.1710856125	 0.106164
H	 2.8808254221	-1.4225352599	-0.1424146887	 0.120713
H	 2.5288574894	-3.1364841384	-0.2984238471	 0.144394
H	 0.4126575258	-1.9941098443	 3.4687208252	 0.265468
H	 1.6588372124	-2.9924292168	 4.1916329718	 0.251009
32.7378	74.4722	110.5862	180.7501	211.0792	231.017	289.9862	307.4968	326.7103	338.3563	385.9737	394.9098	468.4793	501.9922	524.6291	606.8189	657.3583	758.0504	787.6575	808.6349	861.1942	941.3216	976.6828	1028.403	1060.9744	1089.3178	1093.1056	1121.0666	1140.8845	1164.041	1231.6206	1263.9501	1297.5025	1331.144	1358.8657	1364.9861	1385.2181	1405.5742	1410.4719	1419.5442	1482.1638	1494.9913	1497.0244	1499.0209	1508.9727	1608.8874	1785.6482	2982.1755	2998.6802	3037.6759	3041.0808	3049.2418	3087.4219	3105.1435	3117.8286	3126.317	3152.6629	3542.9776	3698.6451	3787.0536
CCC(O)C(C)C(N)=O	CC[C@@H](O)[C@@H](C)C(=O)N	
InChI=1S/C6H13NO2/c1-3-5(8)4(2)6(7)9/h4-5,8H,3H2,1-2H3,(H2,7,9)	InChI=1S/C6H13NO2/c1-3-5(8)4(2)6(7)9/h4-5,8H,3H2,1-2H3,(H2,7,9)/t4-,5-/m1/s1
