16
gdb 50136	4.01392	1.02965	0.89285	4.3598	74.07	-0.2502	-0.0403	0.2098	1257.4112	0.123353	-437.878741	-437.870569	-437.869624	-437.912228	29.453	
O	-0.0716610044	 0.084243212	-0.3017184608	-0.315075
C	 0.0034135063	 1.2741961844	-0.0907044817	 0.13539
N	 1.1501369178	 1.922078984	 0.2519294358	-0.041711
C	 2.5437950166	 1.4536690392	 0.1292724383	-0.245112
C	 2.9876088873	 2.9189030374	 0.0105933389	 0.218187
C	 2.2337717254	 3.6304111247	-1.1006688499	-0.341162
C	 1.4933512083	 3.3273091019	 0.1542391488	-0.063679
C	 4.129689609	 3.5088891287	 0.7194790029	 0.065507
O	 4.9261892236	 2.8711380944	 1.3651505748	-0.258754
H	-0.8654373291	 1.9636330931	-0.1177723756	 0.075621
H	 2.9096527344	 0.9765392721	 1.040866984	 0.152373
H	 2.7251943205	 0.8051562819	-0.7320062844	 0.136743
H	 2.5107828769	 4.6718894281	-1.2379642233	 0.137629
H	 2.0099120094	 3.0886355742	-2.0149750624	 0.138132
H	 1.0556924806	 4.0713696239	 0.809170546	 0.132255
H	 4.2112999175	 4.61574846	 0.6230646887	 0.073656
56.6094	120.1388	135.9466	244.0805	249.6153	297.2075	373.153	456.4881	490.6061	560.2093	708.9729	762.2021	791.0895	880.1173	920.3658	962.4907	965.0905	1027.1855	1034.4204	1047.1569	1083.4307	1098.0436	1148.5027	1181.4924	1232.3833	1273.1191	1293.9185	1382.6797	1399.6634	1434.5346	1441.6738	1473.9212	1510.7849	1796.7721	1807.1679	2870.6597	2924.8184	3067.545	3118.2745	3125.3521	3187.7055	3210.1001
O=CN1CC2(CC12)C=O	O=CN1C[C@]2(C[C@@H]12)C=O	
InChI=1S/C6H7NO2/c8-3-6-1-5(6)7(2-6)4-9/h3-5H,1-2H2	InChI=1S/C6H7NO2/c8-3-6-1-5(6)7(2-6)4-9/h3-5H,1-2H2/t5-,6-/m1/s1
