16
gdb 92669	3.21113	1.2438	0.94107	6.2921	78.62	-0.262	-0.0785	0.1835	1211.0138	0.124422	-400.808119	-400.799761	-400.798817	-400.84165	30.326	
C	-0.1462905413	 1.5561141064	 0.022421745	-0.400601
C	 0.0674734743	 0.0407435616	-0.0182785843	-0.094647
C	 0.8505286339	-0.4976180597	-1.2350792487	-0.288369
C	 1.9248231706	-1.3699205196	-0.6502758153	-0.142298
C	 1.9388793834	-1.3573127484	 0.6942405168	 0.084732
C	 2.8399618586	-2.0541365094	 1.5432408335	 0.228566
N	 3.565161505	-2.6176801889	 2.2474140475	-0.327764
C	 0.8545149384	-0.4563518523	 1.2076098263	 0.318551
O	 0.6407698597	-0.1679479275	 2.3560341038	-0.307727
H	 0.8061893891	 2.0896987349	-0.0643064621	 0.125001
H	-0.795402255	 1.8838093279	-0.7945327944	 0.121484
H	-0.6061138274	 1.8406312023	 0.9719867712	 0.149212
H	-0.9101826941	-0.4544257505	 0.0359781725	 0.121059
H	 0.2255002175	-1.0617886799	-1.9369277549	 0.134652
H	 1.3046959879	 0.3119908784	-1.8220795258	 0.136946
H	 2.6168629594	-1.9337596951	-1.2657779512	 0.141203
47.1818	138.2484	162.2634	224.6784	238.5314	292.5002	379.6397	415.33	495.2837	544.3098	599.7894	661.5411	734.9125	786.2529	844.3327	890.3075	940.4616	961.6154	1008.1518	1054.8192	1107.1987	1127.3229	1188.9778	1222.2574	1273.6298	1304.3745	1316.047	1337.3078	1407.4589	1465.6336	1495.9456	1499.6623	1662.5281	1830.49	2349.9794	3025.3353	3033.0058	3040.724	3062.4301	3109.2548	3129.2271	3206.2132
CC1CC=C(C#N)C1=O	C[C@H]1CC=C(C#N)C1=O	
InChI=1S/C7H7NO/c1-5-2-3-6(4-8)7(5)9/h3,5H,2H2,1H3	InChI=1S/C7H7NO/c1-5-2-3-6(4-8)7(5)9/h3,5H,2H2,1H3/t5-/m0/s1
