18
gdb 64656	3.27105	1.24601	1.12266	4.4988	75.72	-0.2734	0.0398	0.3132	1129.0723	0.147768	-401.906377	-401.898116	-401.897172	-401.939676	31.523	
O	 0.2285358589	 1.4340647289	 0.0346359001	-0.494418
C	 0.0838895461	 0.0331797593	 0.0032591325	 0.490914
C	 1.1053997393	-0.411887863	-1.0569823199	-0.411912
C	 0.6539184569	-0.0959483684	-2.411181949	 0.275662
N	 0.2777679233	 0.1359812709	-3.4787932595	-0.317571
C	 0.001134904	-0.7671825204	 1.3547780995	-0.111122
C	-1.411992855	-0.1393532557	 1.5452245099	-0.256412
C	-1.355115216	-0.5731552542	 0.0417777938	-0.115671
C	-0.724806902	-1.8967762563	 0.563756105	-0.23453
H	-0.5900949741	 1.8399851668	 0.3312727083	 0.291287
H	 2.036667142	 0.1301199791	-0.8624335387	 0.162712
H	 1.3328220868	-1.4775543519	-1.0020513047	 0.149598
H	 0.7820805712	-0.8765485219	 2.1082914087	 0.080552
H	-2.1048449693	-0.705672197	 2.1706663787	 0.104894
H	-1.4684871344	 0.9231944327	 1.7904185537	 0.087349
H	-2.1320465275	-0.4605422371	-0.7154346624	 0.09401
H	-0.1509747356	-2.5056544761	-0.1346241836	 0.099864
H	-1.3917108546	-2.5235819157	 1.1583630576	 0.104794
52.3516	113.2562	137.3161	245.051	342.7533	390.8063	401.4055	430.1858	473.5106	560.3481	611.3269	710.0597	795.8066	801.9338	893.7038	896.512	910.606	926.3888	964.317	999.6359	1003.9393	1034.5308	1056.0559	1086.4524	1109.542	1120.7231	1152.1219	1179.9464	1190.5177	1230.9932	1240.9094	1245.7477	1288.0045	1328.0545	1372.0412	1456.116	1517.728	1553.801	2363.4524	3065.5149	3067.611	3080.3334	3108.2887	3114.2166	3120.6043	3125.1489	3143.6299	3849.5666
OC1(CC#N)C2CC1C2	O[C@@]1(CC#N)[C@H]2C[C@@H]1C2	
InChI=1S/C7H9NO/c8-2-1-7(9)5-3-6(7)4-5/h5-6,9H,1,3-4H2	InChI=1S/C7H9NO/c8-2-1-7(9)5-3-6(7)4-5/h5-6,9H,1,3-4H2/t5-,6+,7-
