19
gdb 18478	3.37007	1.6362	1.4304	2.2181	71.79	-0.2268	0.0675	0.2944	970.9552	0.165081	-365.009468	-365.001325	-365.000381	-365.042017	30.862	
C	-0.2200934403	 1.5119353695	 0.2421295783	-0.373447
C	 0.2205151109	 0.1154965139	-0.1891584487	-0.118327
N	 0.7726326626	-0.6040241132	 0.9593637835	-0.072354
C	-0.0247289907	-1.3159186979	 1.9247206544	-0.041852
C	-1.207871055	-2.0717139838	 1.2923676047	-0.306432
C	-0.1703594493	-2.8656821642	 0.4231228111	 0.110208
O	-0.248765288	-2.8348264271	-0.9855516547	-0.426386
C	 0.9674367549	-2.0312808537	 1.0239731612	-0.069919
H	 0.6095700956	 2.0543506295	 0.704679356	 0.122542
H	-0.5777056045	 2.0865508881	-0.6179070428	 0.109225
H	-1.0346337157	 1.4584970043	 0.9728155717	 0.113335
H	-0.6042945887	-0.4122186614	-0.6820171618	 0.103269
H	 1.0259400713	 0.1845832057	-0.9288100695	 0.104114
H	 0.0728525155	-1.0641350863	 2.9750703297	 0.092287
H	-1.7403161117	-2.7128282263	 1.9985611761	 0.101006
H	-1.9342574965	-1.4631020246	 0.7469904073	 0.10317
H	-0.0981152103	-3.8998961813	 0.7878481617	 0.076381
H	-0.9681394441	-3.4122221783	-1.2607470495	 0.284392
H	 1.9634852238	-2.4067413027	 1.2348716114	 0.088789
63.9952	142.9364	202.5705	237.3877	269.2279	284.7831	376.8409	439.4851	481.5854	622.8067	710.7006	743.5425	802.5037	832.7196	862.811	887.8829	936.9544	980.0925	1003.4171	1032.7129	1044.2883	1069.7121	1108.0167	1121.2234	1170.5109	1181.7327	1195.129	1228.8495	1255.929	1288.8261	1301.8415	1315.6845	1372.9791	1396.5227	1411.8107	1425.8113	1475.4977	1489.6334	1499.9532	1519.6045	3000.909	3031.4384	3035.4696	3060.3584	3065.1458	3103.4487	3113.8631	3116.8449	3160.2292	3173.2838	3812.7926
CCN1C2CC(O)C12	CCN1[C@H]2C[C@@H](O)[C@@H]12	
InChI=1S/C6H11NO/c1-2-7-4-3-5(8)6(4)7/h4-6,8H,2-3H2,1H3	InChI=1S/C6H11NO/c1-2-7-4-3-5(8)6(4)7/h4-6,8H,2-3H2,1H3/t4-,5+,6-,7?/m0/s1
