17
gdb 32335	4.57284	1.00779	0.87571	3.9792	80.65	-0.2237	-0.0583	0.1654	1320.8874	0.137695	-418.074363	-418.066273	-418.065328	-418.107456	30.275	
C	 0.0456863387	 1.5797938065	 0.1453366762	-0.369726
C	 0.0044536036	 0.0680995245	-0.1258760109	-0.270015
C	-1.3947744636	-0.4876643793	-0.1165184695	 0.297729
C	-1.9902200899	-1.0278821477	-1.214579132	-0.06795
N	-3.2674438342	-1.5060485742	-1.1351238077	-0.334035
C	-4.0377301576	-1.4815420753	 0.0304487679	 0.384976
O	-5.1747548549	-1.916872546	 0.0658374487	-0.387483
C	-3.2948024844	-0.8813693043	 1.1441318789	-0.108333
N	-2.0835627284	-0.4253603015	 1.0756249259	-0.263838
H	 1.077979742	 1.9389253709	 0.1943024662	 0.113329
H	-0.4720291645	 2.1356325367	-0.6432211374	 0.113261
H	-0.4438268714	 1.8068037876	 1.0961564237	 0.140508
H	 0.4778592674	-0.1558130138	-1.0884569207	 0.097254
H	 0.5910275219	-0.4493855309	 0.6430827356	 0.118291
H	-1.5022981526	-1.1076484517	-2.1785580412	 0.134739
H	-3.7186610707	-1.9106463163	-1.9444949484	 0.267661
H	-3.8243248615	-0.827739095	 2.0929312147	 0.133631
67.4477	96.7952	196.6086	220.7921	330.8809	382.9181	407.4491	440.5247	497.8517	555.8495	627.5152	726.7208	754.8409	782.1258	796.3634	833.7759	880.5372	949.131	979.7094	985.1957	1072.8236	1091.1252	1172.7301	1215.0388	1271.4067	1285.7486	1333.893	1369.4	1401.9058	1405.6786	1463.2902	1478.6123	1495.9575	1509.4296	1569.3116	1668.8162	1787.8626	3029.5536	3039.152	3068.9383	3108.6249	3124.1352	3159.5439	3204.5338	3600.7037
CCC1=CNC(=O)C=N1	CCc1c[nH]c(=O)cn1	
InChI=1S/C6H8N2O/c1-2-5-3-8-6(9)4-7-5/h3-4H,2H2,1H3,(H,8,9)	InChI=1S/C6H8N2O/c1-2-5-3-8-6(9)4-7-5/h3-4H,2H2,1H3,(H,8,9)
