25
gdb 123045	6.37709	0.52217	0.50387	0.9257	91.29	-0.2423	0.0886	0.3309	2310.6842	0.228123	-389.483235	-389.472638	-389.471694	-389.520198	38.201	
C	 0.2044042102	 1.4808590584	-0.082547899	-0.379047
C	 0.0267416427	-0.0095719862	 0.2194640719	-0.164761
C	-1.3515857002	-0.5401048514	-0.1871746045	-0.177998
C	-1.5293439668	-2.0215042567	 0.1153201027	-0.063989
O	-2.8238458844	-2.4176749525	-0.2955391951	-0.255559
C	-3.0923388523	-3.7763507107	-0.0871042107	 0.181654
C	-3.4149601124	-4.2811631422	 1.3509125797	-0.245069
C	-4.5492436156	-5.1407105196	 0.7268033285	-0.218081
C	-4.4969547954	-4.2289052343	-0.5303652206	-0.250307
H	 1.1958849965	 1.8339968561	 0.217587566	 0.110667
H	 0.0876693285	 1.6837749311	-1.1528382146	 0.115194
H	-0.5398167629	 2.0833583273	 0.4498397532	 0.115003
H	 0.8065257492	-0.5828413252	-0.2994161101	 0.095474
H	 0.184320173	-0.1863496103	 1.2917982073	 0.095432
H	-2.1384472548	 0.0195725741	 0.3336103076	 0.102177
H	-1.515531014	-0.3802435027	-1.2600902198	 0.102653
H	-0.7645928463	-2.6169663492	-0.4139596692	 0.081411
H	-1.391888297	-2.2099135587	 1.193336328	 0.086284
H	-2.3056775843	-4.3971039448	-0.5465556327	 0.058846
H	-2.6309553476	-4.7895623552	 1.9169191196	 0.092404
H	-3.8188774386	-3.4595714251	 1.9502582967	 0.105865
H	-4.2160692699	-6.1589142121	 0.5078092848	 0.102929
H	-5.4948186917	-5.1962761606	 1.2692175361	 0.100878
H	-5.1931836397	-3.3896832254	-0.4471100947	 0.112022
H	-4.6029477362	-4.6857818239	-1.516623661	 0.095918
44.4491	61.7759	87.3301	119.0529	137.3016	165.5288	239.9541	252.7638	296.1554	388.1235	467.8533	490.6414	641.5611	745.1973	766.3024	785.8881	815.9421	899.4687	909.8835	925.3496	944.9094	954.0294	976.4324	1019.4708	1057.8957	1061.1898	1076.1611	1134.3795	1154.0509	1185.9694	1191.8928	1197.068	1244.9489	1247.535	1253.0167	1259.3978	1272.3596	1293.7785	1306.2078	1312.4745	1324.5144	1376.0945	1393.0487	1414.3468	1445.4539	1471.3895	1486.7234	1488.1013	1496.2754	1500.6158	1508.8333	1511.0182	1528.4592	2946.4955	2966.1618	2976.8947	3013.1525	3028.1126	3032.1427	3038.7092	3055.2098	3061.9884	3066.1735	3072.6638	3098.1424	3102.2864	3105.9302	3114.8733	3127.0854
CCCCOC1CCC1	CCCCOC1CCC1	
InChI=1S/C8H16O/c1-2-3-7-9-8-5-4-6-8/h8H,2-7H2,1H3	InChI=1S/C8H16O/c1-2-3-7-9-8-5-4-6-8/h8H,2-7H2,1H3
