19
gdb 59002	3.73524	1.07652	0.91562	2.1347	76.57	-0.2437	-0.0043	0.2395	1291.4713	0.158709	-423.01359	-423.005072	-423.004128	-423.046925	32.766	
C	 0.4587077173	 0.8775672017	-0.7567106528	-0.409039
C	-0.0707686484	 0.0645517206	 0.4235305472	 0.031256
O	 0.0707988435	 0.7829522188	 1.6559795787	-0.425662
C	-1.4876396816	-0.4187470192	 0.2665446342	 0.295572
C	-2.3028396436	-0.283778935	-0.7883025844	-0.221626
C	-3.5923101241	-0.9962800254	-0.5516833624	 0.010491
O	-3.4260297114	-2.4201663854	-0.3491671613	-0.258999
C	-3.5111823423	-1.5764286823	 0.8006792084	 0.029738
C	-2.16470838	-1.1890842414	 1.3944155904	-0.320357
H	 1.4746430727	 1.2161052068	-0.5397175905	 0.125627
H	 0.4776191392	 0.2812108255	-1.6737273383	 0.125127
H	-0.1664850377	 1.7594812984	-0.9379351017	 0.110353
H	 0.5759775602	-0.8126755818	 0.5627243482	 0.099584
H	-0.4877661081	 1.5663573071	 1.5929174173	 0.277622
H	-2.0656401085	 0.2215901654	-1.7157570778	 0.09924
H	-4.5180583798	-0.7072459359	-1.039803778	 0.09507
H	-4.3779505586	-1.7381965735	 1.4358415867	 0.095194
H	-1.581636368	-2.0686073116	 1.6934102838	 0.124754
H	-2.2775866809	-0.5676885628	 2.2898418623	 0.116054
57.5914	125.5267	195.8547	254.4216	278.8401	340.3603	344.0916	384.6606	478.6076	497.2647	555.4285	652.4354	719.0255	820.2685	844.8476	852.6992	883.1807	900.0837	928.976	965.3608	1011.907	1021.7084	1027.7675	1061.6148	1102.0617	1117.3404	1166.4193	1192.4608	1248.7283	1276.681	1279.1438	1304.7586	1327.9185	1376.7826	1401.3086	1409.1016	1412.9589	1459.0186	1492.4005	1496.1576	1684.8373	3016.8053	3034.7085	3039.8269	3074.2797	3104.5155	3126.4175	3147.6501	3164.6329	3213.5124	3792.3378
CC(O)C1=CC2OC2C1	C[C@@H](O)C1=C[C@H]2O[C@H]2C1	
InChI=1S/C7H10O2/c1-4(8)5-2-6-7(3-5)9-6/h2,4,6-8H,3H2,1H3	InChI=1S/C7H10O2/c1-4(8)5-2-6-7(3-5)9-6/h2,4,6-8H,3H2,1H3/t4-,6-,7+/m1/s1
