17
gdb 79658	2.67308	1.54084	1.20877	4.9289	78.09	-0.2382	0.002	0.2402	1061.0014	0.135534	-380.782071	-380.77409	-380.773146	-380.814388	30.764	
C	-0.1166006576	 1.5149097223	 0.0071264891	-0.335915
N	 0.1916780173	 0.0866798071	 0.0455357751	-0.108898
C	 1.3210096724	-0.6635688487	-0.387596897	-0.112107
C	 2.7357913488	-0.1986923231	 0.0918845286	-0.068209
C	 2.7428096027	 1.0421036246	 0.9437698208	-0.314934
C	 2.2644026703	-0.2509822248	 1.5344491761	-0.10068
C	 0.834191384	-0.7051012101	 1.053425429	 0.151435
C	 0.1018460167	-1.718901258	 1.7492381938	 0.239916
N	-0.4616615591	-2.5386012283	 2.3410047961	-0.348224
H	 0.538049467	 2.0474076448	-0.6891348867	 0.13649
H	-1.1488695559	 1.6382328797	-0.3369943963	 0.132579
H	-0.0350290191	 1.9718144998	 0.9973602002	 0.139134
H	 1.1923651028	-1.4238157883	-1.1511644371	 0.123063
H	 3.6382744473	-0.6265472053	-0.3228344544	 0.104747
H	 3.7357368268	 1.3255758519	 1.2819669863	 0.126793
H	 2.096334464	 1.8872092159	 0.7654420894	 0.122008
H	 2.7431704316	-0.7348827096	 2.3746179571	 0.112803
132.3994	135.6461	168.2064	248.2963	258.1085	357.966	432.3689	474.7658	542.6081	592.5952	637.0201	705.8174	719.2346	766.8498	829.1248	902.8122	924.1471	957.1377	966.1032	1004.6082	1036.7673	1057.886	1065.9011	1089.5256	1139.6325	1164.26	1173.6503	1186.0722	1266.2333	1279.1431	1320.9459	1418.4386	1460.9627	1486.8734	1505.2502	1517.7062	2345.8764	3027.4477	3087.6027	3115.0605	3145.051	3168.1661	3205.1933	3215.2498	3257.9507
CN1C2C3CC3C12C#N	CN1[C@H]2[C@H]3C[C@H]3[C@@]12C#N	
InChI=1S/C7H8N2/c1-9-6-4-2-5(4)7(6,9)3-8/h4-6H,2H2,1H3	InChI=1S/C7H8N2/c1-9-6-4-2-5(4)7(6,9)3-8/h4-6H,2H2,1H3/t4-,5+,6-,7+,9?/m0/s1
