20
gdb 112054	2.67355	1.22682	0.88397	3.0818	84.04	-0.2251	-0.0044	0.2207	1358.8278	0.170892	-399.357716	-399.348027	-399.347083	-399.392737	34.555	
C	-0.0457961224	 1.5574679535	 0.0325835081	-0.387582
C	-0.0409928255	 0.029134542	-0.0175030837	-0.162172
C	 0.7231364864	-0.5260801807	-1.2277133704	-0.075243
N	 2.1674992289	-0.2209824134	-1.1660635987	-0.248254
C	 2.7702033162	-1.3408396401	-1.2475992525	 0.060006
N	 1.960999579	-2.4625728456	-1.3817091111	-0.361523
C	 0.6257806611	-2.047838538	-1.3468456157	 0.40954
N	-0.4361657479	-2.737068187	-1.3949393772	-0.320905
C	-0.3010691071	-4.1806789621	-1.5058880352	-0.340124
H	 0.9748234949	 1.9481219305	 0.0584281291	 0.13806
H	-0.5439295538	 1.9791248329	-0.8477074385	 0.111817
H	-0.5759714443	 1.9172453843	 0.9196589778	 0.108553
H	 0.4117763135	-0.3774096935	 0.8949420574	 0.095648
H	-1.0604605747	-0.3677114488	-0.0684889664	 0.121331
H	 0.3149263721	-0.0677639061	-2.1386007262	 0.113426
H	 3.8491076493	-1.461774175	-1.2254329706	 0.132381
H	 2.2778277432	-3.4163497298	-1.3848110099	 0.262932
H	 0.2484127736	-4.4811807915	-2.4120826392	 0.107343
H	 0.2213713804	-4.6194410525	-0.6406090344	 0.106044
H	-1.2919579431	-4.6383848891	-1.5553501929	 0.128722
79.1678	90.9545	106.7436	126.0049	201.9875	226.1246	257.8472	282.7002	330.5507	410.5124	525.5765	588.6209	660.6696	723.7794	771.9567	869.6912	877.2862	917.4615	944.0105	969.6803	1038.9102	1066.3283	1084.5236	1104.9792	1123.1308	1136.0793	1163.8748	1214.4415	1262.4663	1280.6091	1321.0364	1350.2017	1371.3813	1401.1001	1408.0922	1436.6199	1484.0381	1493.818	1495.5773	1507.529	1509.1044	1682.3332	1777.2364	2964.5221	3010.6123	3018.8287	3034.9884	3037.7062	3079.9898	3101.4072	3102.4976	3123.0307	3186.3516	3678.2442
CCC1N=CNC1=NC	CC[C@H]1N=CNC1=NC	
InChI=1S/C6H11N3/c1-3-5-6(7-2)9-4-8-5/h4-5H,3H2,1-2H3,(H,7,8,9)	InChI=1S/C6H11N3/c1-3-5-6(7-2)9-4-8-5/h4-5H,3H2,1-2H3,(H,7,8,9)/t5-/m1/s1
