22
gdb 120821	2.18721	0.92917	0.69909	2.3293	84.06	-0.2313	-0.0241	0.2072	1669.0007	0.191681	-404.328209	-404.317788	-404.316844	-404.365177	36.771	
C	 0.5442340891	 1.1633442562	 0.5699946014	-0.382533
C	 0.312366175	-0.3004171453	 0.1877968592	-0.163971
C	 1.1618668975	-0.7371682631	-1.006928505	-0.131337
N	 0.9284924205	-2.1491487739	-1.3028236216	-0.073985
C	-0.082455231	-2.4795925564	-2.3007077341	-0.26493
C	 1.3619734763	-2.7248437393	-2.5743193921	 0.001629
C	 2.1049111681	-1.9343264375	-3.6406078156	-0.311346
C	 3.5861762321	-1.8291960821	-3.3365744238	 0.170762
O	 4.2208441841	-0.8067880149	-3.3506385488	-0.239452
H	 1.5908792437	 1.3428652312	 0.8396374528	 0.118415
H	 0.2977379562	 1.8369993631	-0.2583594299	 0.114424
H	-0.0732701911	 1.4508397235	 1.4261166276	 0.114547
H	 0.539221076	-0.9576227752	 1.0345569042	 0.108341
H	-0.7465592304	-0.4607700828	-0.0516497507	 0.09703
H	 0.9460910539	-0.0765936995	-1.8641103551	 0.083793
H	 2.2257556394	-0.6118990299	-0.7707346687	 0.111961
H	-0.7537796826	-3.3003414223	-2.0610697375	 0.116994
H	-0.5486652703	-1.6552107765	-2.8412598603	 0.107491
H	 1.7310073629	-3.7453599437	-2.46655415	 0.094308
H	 2.0081818218	-2.4790929799	-4.5917499148	 0.127026
H	 1.7034265432	-0.930506816	-3.7906618639	 0.125488
H	 4.0720966157	-2.8027888357	-3.089906283	 0.075345
43.1296	65.0636	81.6819	100.7567	140.6975	192.9048	238.2748	308.7126	333.0892	383.4277	435.5292	485.3699	544.4944	734.1291	760.065	787.9603	860.5584	891.4725	905.1929	929.1776	1005.4346	1031.7197	1041.4054	1060.7405	1104.9517	1122.7568	1127.2707	1148.2985	1165.1295	1199.61	1216.2621	1275.9223	1281.3175	1325.9925	1332.3361	1338.8878	1405.8346	1414.8359	1421.0475	1428.8633	1457.7522	1485.6357	1495.2694	1500.415	1509.1114	1517.7118	1835.9987	2854.1978	2953.2769	3010.3748	3027.7703	3030.8837	3048.38	3070.2696	3080.836	3093.105	3098.61	3105.5721	3123.2655	3169.6623
CCCN1CC1CC=O	CCCN1C[C@H]1CC=O	
InChI=1S/C7H13NO/c1-2-4-8-6-7(8)3-5-9/h5,7H,2-4,6H2,1H3	InChI=1S/C7H13NO/c1-2-4-8-6-7(8)3-5-9/h5,7H,2-4,6H2,1H3/t7-,8?/m1/s1
