15
gdb 132535	3.16428	1.40762	0.98049	1.1716	72.58	-0.225	-0.0229	0.2021	1133.0648	0.113582	-458.175693	-458.167717	-458.166773	-458.208208	29.77	
C	-0.016267658	 1.5284546782	 0.0207632973	-0.502945
C	-0.0142943681	 0.0269189325	-0.0104470173	 0.082986
C	-0.053522325	-0.7358825013	-1.1734249593	-0.046058
N	-0.0512565082	-2.0688058889	-1.2053199442	-0.323307
C	-0.0115741598	-2.6758369202	-0.0117409302	 0.439836
N	-0.0569140357	-4.0376557569	 0.001342311	-0.555675
N	 0.0404735752	-2.0619295125	 1.1866790863	-0.367348
C	 0.0361882108	-0.7550357072	 1.1456757417	 0.286991
F	 0.0894195114	-0.1336853141	 2.3204905117	-0.06292
H	 0.8783962763	 1.9240708723	 0.513445467	 0.138843
H	-0.0489946692	 1.9326302124	-0.9946722352	 0.125876
H	-0.8803601202	 1.920416643	 0.5680260833	 0.139428
H	-0.0861610426	-0.2353799925	-2.1401109082	 0.112807
H	 0.1249900076	-4.506930951	-0.8693855529	 0.265319
H	 0.2004720054	-4.5002369839	 0.8563750988	 0.266167
104.2276	126.9466	233.3485	262.0544	315.9064	341.7797	363.1282	472.4928	490.0011	509.0846	559.9088	578.0454	737.3167	778.8586	790.8577	820.6985	979.8435	983.1509	1025.9583	1070.6118	1100.4892	1214.5438	1297.0762	1324.028	1374.0048	1419.215	1468.7559	1480.5024	1499.8564	1503.3451	1591.9539	1631.9439	1673.0504	3033.3232	3087.0925	3113.5911	3141.7182	3613.9017	3744.3028
CC1=CN=C(N)N=C1F	Cc1cnc(N)nc1F	
InChI=1S/C5H6FN3/c1-3-2-8-5(7)9-4(3)6/h2H,1H3,(H2,7,8,9)	InChI=1S/C5H6FN3/c1-3-2-8-5(7)9-4(3)6/h2H,1H3,(H2,7,8,9)
