19
gdb 115996	2.12811	1.57652	1.00001	2.8249	81.15	-0.2453	-0.0577	0.1876	1212.4298	0.158468	-423.043357	-423.034215	-423.033271	-423.077976	32.615	
C	 0.6026096727	 0.7050084339	-0.5558449899	-0.251225
O	 0.0112345151	-0.5671744973	-0.3602829432	-0.258846
C	-1.3929267125	-0.5463854735	-0.1385021518	 0.01309
C	-1.9994913149	-1.8770687008	-0.643631777	-0.239572
C	-2.1385411719	-2.7849874354	 0.6024608048	-0.260823
C	-2.0974116949	-1.8055923545	 1.7403530977	-0.139899
C	-1.7249110368	-0.5765958767	 1.3508664526	 0.245064
C	-1.6278653211	 0.5617891069	 2.2653636811	 0.068349
O	-1.2731450978	 1.6799050334	 1.9567619669	-0.275848
H	 1.6696625389	 0.5330443154	-0.7189607458	 0.118752
H	 0.1864517155	 1.2046365534	-1.4446702576	 0.100522
H	 0.4625482705	 1.3653000654	 0.3068329992	 0.142668
H	-1.8287200998	 0.3262458747	-0.6420073304	 0.078724
H	-2.9887962989	-1.687134774	-1.0699176237	 0.108855
H	-1.3697251412	-2.3029641695	-1.4262020068	 0.117908
H	-3.0600622329	-3.3777022906	 0.5984209436	 0.116085
H	-1.3136290564	-3.5046481685	 0.6936062082	 0.132024
H	-2.3280989515	-2.0792728396	 2.7660378664	 0.111319
H	-1.930676572	 0.3316846174	 3.3117414756	 0.072854
52.0288	100.7875	127.4396	167.7	176.8502	262.5995	293.8198	310.5587	393.5435	505.4329	576.3397	688.3604	728.2807	795.2819	849.7583	891.4972	934.6637	937.0751	978.5677	1037.75	1045.9012	1064.682	1131.0771	1169.9769	1177.5393	1187.6718	1222.2633	1251.322	1271.7444	1314.6161	1321.7013	1360.9125	1388.0413	1425.3556	1464.9186	1480.2567	1483.9385	1486.7434	1519.4038	1674.8752	1778.9469	2875.7631	2983.913	3020.7153	3023.1629	3058.0718	3070.1585	3072.2931	3118.9605	3127.6711	3178.4898
COC1CCC=C1C=O	CO[C@H]1CCC=C1C=O	
InChI=1S/C7H10O2/c1-9-7-4-2-3-6(7)5-8/h3,5,7H,2,4H2,1H3	InChI=1S/C7H10O2/c1-9-7-4-2-3-6(7)5-8/h3,5,7H,2,4H2,1H3/t7-/m0/s1
