16
gdb 22280	4.76801	0.86824	0.75418	3.1586	70.95	-0.2446	-0.0074	0.2372	1424.5793	0.123821	-471.176422	-471.167571	-471.166627	-471.210388	32.266	
N	-0.1122256811	 1.3207457435	 0.1844523511	-0.555953
C	-0.0248137905	-0.062364644	 0.1298152632	 0.41633
O	 1.0255482471	-0.6646546607	 0.0148065895	-0.385463
N	-1.244902263	-0.7047817522	 0.1949075282	-0.125068
C	-2.5344770945	-0.2340281068	-0.372034627	-0.279024
C	-2.7892668441	-1.6757380166	-0.7648012123	 0.40084
C	-1.4159853947	-2.0950550618	-0.2762481085	-0.258614
N	-3.805233877	-2.2245016349	-1.2740194035	-0.219175
O	-3.5957526394	-3.6000731601	-1.452106262	-0.387769
H	 0.7779886774	 1.7622806709	 0.3580524669	 0.263382
H	-0.8836740931	 1.7244089071	 0.6939041375	 0.255035
H	-3.2277974464	 0.1927287439	 0.3617535167	 0.130309
H	-2.4202531191	 0.4632523694	-1.2111703006	 0.141365
H	-0.7046061838	-2.3819377519	-1.0586998173	 0.151195
H	-1.3986794583	-2.8514332391	 0.5145383479	 0.140723
H	-4.4305014096	-3.8879864366	-1.8375090399	 0.311884
62.8582	105.537	146.2661	202.2973	241.1683	295.3114	373.0034	413.2865	430.0798	481.96	513.0811	552.2947	600.5522	677.7632	773.8989	779.2737	912.8139	943.3418	987.4201	1060.795	1077.7537	1102.1987	1131.1741	1150.411	1185.0321	1187.1772	1277.5993	1314.6039	1408.0954	1430.0545	1484.9815	1507.4073	1623.6685	1795.2875	1816.6568	3021.5504	3045.5623	3065.9632	3088.5679	3576.4592	3691.8299	3816.2837
NC(=O)N1CC(C1)=NO	NC(=O)N1CC(=NO)C1	
InChI=1S/C4H7N3O2/c5-4(8)7-1-3(2-7)6-9/h9H,1-2H2,(H2,5,8)	InChI=1S/C4H7N3O2/c5-4(8)7-1-3(2-7)6-9/h9H,1-2H2,(H2,5,8)
