18
gdb 33394	2.30618	1.36055	1.01213	0.9112	83.49	-0.2245	0.023	0.2476	1224.7725	0.145428	-364.703909	-364.694673	-364.693729	-364.738094	34.267	
C	-0.015565207	-1.2014003377	-0.1125736001	-0.427377
C	 0.0140997567	-0.0029975378	-0.0495799946	 0.349149
C	 0.0507038685	 1.4632426565	 0.0198743699	-0.348382
C	 1.4372849441	 1.9402815594	 0.222305479	 0.347799
C	 2.5490737527	 2.3791208998	 0.3517172274	-0.478809
N	-0.6181006286	 2.0389866136	-1.1457751597	-0.063358
C	-0.0057819434	 1.9208372541	-2.4887592192	-0.160655
C	-0.5501841718	 3.3347803409	-2.8095598476	-0.22805
C	-0.7070088934	 3.5100494376	-1.2796058052	-0.166915
H	-0.043206344	-2.2617154814	-0.1653891319	 0.199237
H	-0.5371155926	 1.7757234859	 0.8958963584	 0.139107
H	 3.5364240158	 2.7491995958	 0.4803826971	 0.201308
H	 1.0931719345	 1.8984171249	-2.462663998	 0.103005
H	-0.3702674764	 1.0746070387	-3.0775592286	 0.109063
H	 0.1266186653	 4.0215788646	-3.3178647992	 0.10684
H	-1.5079467404	 3.3101211637	-3.3317803434	 0.114143
H	-1.6368265704	 3.9431453877	-0.896474609	 0.102083
H	 0.1493925804	 4.0394359137	-0.8370241252	 0.101814
73.6758	107.3991	126.7874	146.096	192.1263	314.2801	331.4757	336.0856	472.236	542.7344	561.332	633.6865	638.5312	655.8522	661.4335	720.7314	787.4507	850.2802	890.8885	925.5649	940.1453	991.3135	1021.3537	1087.6937	1135.41	1154.0416	1187.5447	1215.7762	1220.4334	1266.3083	1283.8514	1301.8545	1336.4321	1353.739	1486.5873	1503.8723	1529.8629	2223.7357	2246.7034	2994.9707	2997.5683	3005.1391	3064.31	3080.2803	3089.1866	3143.6927	3500.757	3504.2819
C#CC(C#C)N1CCC1	C#CC(C#C)N1CCC1	
InChI=1S/C8H9N/c1-3-8(4-2)9-6-5-7-9/h1-2,8H,5-7H2	InChI=1S/C8H9N/c1-3-8(4-2)9-6-5-7-9/h1-2,8H,5-7H2
