17
gdb 11320	4.47644	1.45141	1.11897	3.5297	73.32	-0.2211	0.0023	0.2234	1066.2325	0.141937	-360.077	-360.068459	-360.067515	-360.110293	30.106	
C	-0.0165926054	 1.4182375452	 0.0095723413	-0.337797
N	-0.0110973022	-0.0357426565	 0.0192642689	-0.325131
C	 0.5465528207	-0.6254952403	-0.9534583655	 0.403891
C	 0.679000717	-2.129604427	-1.166379073	-0.263343
N	 1.3989206795	-2.309640104	-2.4330805	-0.290277
C	 1.6450009594	-1.1377564722	-2.8817782159	 0.377682
C	 2.364374789	-0.8347289346	-4.1545890776	-0.492105
N	 1.1818574385	-0.0927493062	-2.0775766539	-0.387148
H	 1.0007344515	 1.841774309	 0.0159755656	 0.10459
H	-0.5408184437	 1.8305893966	-0.8677341707	 0.104205
H	-0.5300286841	 1.7881910546	 0.9004393138	 0.127344
H	 1.2260262153	-2.5990708069	-0.3413194931	 0.14064
H	-0.3041921488	-2.6110793122	-1.2091125561	 0.140655
H	 2.6485882103	-1.7699317166	-4.6364922619	 0.16084
H	 1.7282428775	-0.2585194843	-4.8358608566	 0.138445
H	 3.2651049743	-0.2407492332	-3.9632415511	 0.13829
H	 1.2847645513	 0.8867703787	-2.2764775643	 0.259218
76.4956	95.3508	151.2123	185.7323	208.8968	259.9057	345.6712	349.2155	491.9543	568.9743	622.0126	654.6087	719.0178	890.1249	968.9623	977.8892	978.3202	1038.1258	1065.9072	1068.1105	1108.4332	1160.9001	1182.1513	1210.987	1265.8368	1304.9198	1399.1826	1434.0283	1437.5715	1457.5307	1480.9747	1481.1602	1495.1091	1507.2262	1714.8581	1780.9746	2961.163	3006.1005	3038.0129	3047.1774	3077.2722	3092.2967	3100.648	3160.0121	3682.224
CN=C1CN=C(C)N1	CN=C1CN=C(C)N1	
InChI=1S/C5H9N3/c1-4-7-3-5(6-2)8-4/h3H2,1-2H3,(H,6,7,8)	InChI=1S/C5H9N3/c1-4-7-3-5(6-2)8-4/h3H2,1-2H3,(H,6,7,8)
