21
gdb 26314	3.69802	1.01742	0.84954	3.195	86.42	-0.2071	0.0386	0.2457	1436.9607	0.182622	-383.333188	-383.323425	-383.322481	-383.368246	35.913	
C	 0.0073985924	 1.3763076289	-0.3294635787	-0.378621
C	 0.0144111809	-0.0987956797	 0.1118623832	-0.071817
C	 0.7387652667	-0.2783006406	 1.4510823561	-0.393082
C	-1.3832375931	-0.6521976043	 0.1405082797	 0.288377
C	-2.0991813985	-1.1649373143	 1.1907298426	-0.202769
N	-3.3268130993	-1.5191539542	 0.6646197809	-0.284142
C	-3.3095208929	-1.2131415235	-0.6664086314	 0.33733
C	-4.4659499027	-1.4568443978	-1.5780858501	-0.498373
N	-2.1527213791	-0.690178086	-1.0083830246	-0.346806
H	 1.0291668297	 1.7517794168	-0.451582102	 0.099787
H	-0.5222997347	 1.488124841	-1.2783708183	 0.133817
H	-0.4975725301	 2.0007879469	 0.4164554308	 0.105816
H	 0.5668880781	-0.662334809	-0.6532028057	 0.08554
H	 0.2335058034	 0.2781773491	 2.2492665308	 0.110535
H	 0.781348589	-1.3313144757	 1.7475877152	 0.110273
H	 1.765038326	 0.0961872348	 1.3877563452	 0.108489
H	-1.8658209979	-1.3134846537	 2.2313005965	 0.122494
H	-4.0909701381	-1.9315943466	 1.1724742793	 0.258114
H	-5.3592237243	-0.9044252798	-1.2637231024	 0.129153
H	-4.1928851144	-1.1264794211	-2.5809019854	 0.156817
H	-4.734190911	-2.5188076612	-1.6253514516	 0.129067
46.2995	72.3201	138.6655	174.3972	240.2063	252.3426	278.3138	305.1577	346.1991	434.0925	473.5737	506.2217	609.7176	670.1985	707.5589	724.6733	749.4032	885.3939	928.9467	965.9249	970.9854	992.8083	1043.1569	1061.7592	1102.03	1112.1583	1129.964	1180.5894	1249.3191	1254.7827	1338.4155	1352.3067	1378.515	1393.696	1411.6668	1414.3666	1443.1958	1483.5558	1488.3949	1492.4063	1499.7914	1502.0374	1513.3869	1573.9947	1605.3103	3002.4176	3025.5031	3027.8684	3029.8855	3076.1404	3089.8107	3095.2343	3103.6581	3124.4824	3148.1415	3276.805	3663.7583
CC(C)C1=CNC(C)=N1	CC(C)c1c[nH]c(C)n1	
InChI=1S/C7H12N2/c1-5(2)7-4-8-6(3)9-7/h4-5H,1-3H3,(H,8,9)	InChI=1S/C7H12N2/c1-5(2)7-4-8-6(3)9-7/h4-5H,1-3H3,(H,8,9)
