17
gdb 31175	2.30712	1.38259	0.91866	7.2553	78.87	-0.2362	-0.0324	0.2038	1257.6691	0.136775	-418.06562	-418.057026	-418.056082	-418.100022	30.789	
C	 0.0413212174	 1.5678567736	 0.3006687861	-0.37069
C	-0.0098200877	 0.0802428809	-0.096180166	-0.310717
C	-1.3962920288	-0.4805976355	-0.1294631617	 0.265158
C	-2.2528021234	-0.8464741054	-1.1585345175	 0.094965
C	-1.9614133607	-0.7872320569	-2.5895763273	 0.079017
O	-2.7176964794	-1.1012652808	-3.4790660092	-0.27151
N	-3.4623770055	-1.2933515041	-0.6509845189	-0.285879
C	-3.3476392257	-1.200947788	 0.6424743975	 0.013842
N	-2.1178879493	-0.7130910296	 1.0136113388	-0.299374
H	 1.0746788745	 1.92611099	 0.3121875819	 0.125649
H	-0.5270490174	 2.1780145007	-0.4067847491	 0.136898
H	-0.3817264433	 1.7327095747	 1.2969267838	 0.11391
H	 0.4445327199	-0.050087428	-1.0815704344	 0.133676
H	 0.603815045	-0.5055025075	 0.600951839	 0.115597
H	-0.9377947835	-0.4111178698	-2.8214614267	 0.051902
H	-4.0996307491	-1.4661839499	 1.3714269599	 0.138978
H	-1.7938602128	-0.5633899445	 1.9557619138	 0.268581
28.6362	133.8779	151.7003	183.7806	227.6718	265.9615	327.3118	393.7458	532.9248	561.8728	624.1185	685.2206	734.8469	784.1531	810.886	832.0125	953.5525	966.7699	1023.6544	1045.8103	1077.2588	1098.5521	1132.5172	1254.4149	1290.9994	1335.1943	1350.0899	1380.6209	1411.1489	1414.5011	1455.3434	1485.4776	1496.8758	1504.4927	1545.4705	1595.0422	1800.9344	2852.444	3023.8457	3040.2903	3092.1922	3113.9313	3122.7028	3247.2477	3647.1775
CCC1=C(C=O)N=CN1	CCc1c(C=O)nc[nH]1	
InChI=1S/C6H8N2O/c1-2-5-6(3-9)8-4-7-5/h3-4H,2H2,1H3,(H,7,8)	InChI=1S/C6H8N2O/c1-2-5-6(3-9)8-4-7-5/h3-4H,2H2,1H3,(H,7,8)
