15
gdb 9174	8.61853	0.82745	0.7621	1.538	63.75	-0.2635	-0.0182	0.2453	1440.2037	0.115558	-436.952615	-436.943383	-436.942439	-436.987401	30.469	
C	 0.1085634533	 1.3463466019	-0.066170044	-0.318837
N	 0.0231630816	-0.0944729123	-0.2076472547	-0.191736
C	-1.0893806424	-0.6257057007	 0.0160779806	 0.114659
O	-1.1990499144	-1.99104986	-0.1105288605	-0.227859
C	-2.4226701218	-2.5637705251	 0.136072885	 0.448976
O	-3.4080372104	-1.967110446	 0.4542268989	-0.31269
C	-2.2890467036	-4.0599469219	-0.0669353167	-0.192812
O	-3.5316404764	-4.6597437031	 0.1805431483	-0.393265
H	 0.872684184	 1.5896346428	 0.6799145353	 0.135947
H	 0.4397463656	 1.7817617171	-1.0151004582	 0.135949
H	-0.8368983302	 1.8260437073	 0.229634776	 0.107667
H	-2.0205618378	-0.1362485009	 0.3091328327	 0.135128
H	-1.9241914952	-4.2190961737	-1.0941734041	 0.130057
H	-1.4924130969	-4.4113820656	 0.6080283734	 0.130047
H	-3.4352137356	-5.6072905598	 0.0491008479	 0.298768
60.8056	79.7603	101.3377	127.0941	204.1485	215.1633	261.7369	327.5917	363.1514	384.2425	575.2485	579.1257	705.47	914.6644	990.8605	1034.7394	1063.4144	1094.6504	1141.3954	1146.3713	1177.083	1189.2723	1246.5241	1249.0087	1371.8481	1447.0848	1458.3827	1480.7042	1493.4153	1501.9625	1779.1776	1869.7601	2979.8418	2985.8067	3005.8788	3071.6586	3089.4273	3114.9598	3841.1324
CN=COC(=O)CO	CN=COC(=O)CO	
InChI=1S/C4H7NO3/c1-5-3-8-4(7)2-6/h3,6H,2H2,1H3	InChI=1S/C4H7NO3/c1-5-3-8-4(7)2-6/h3,6H,2H2,1H3
