18
gdb 69896	2.90536	1.51237	1.14932	3.9291	77.9	-0.2175	-0.022	0.1955	1080.3298	0.146412	-401.8813	-401.873131	-401.872187	-401.913722	31.711	
C	-0.0741031743	 1.5572913644	 0.1990588589	-0.515704
C	 0.0444688656	 0.0725137556	 0.0623416526	 0.260306
N	-0.7932793192	-0.8790529089	 0.8316784153	-0.376154
C	 0.6923580338	-0.9394184951	 0.9228139556	-0.116377
C	 1.2351598739	-1.7143469818	-0.3010900298	-0.07913
C	 0.1789501481	-2.1431826772	-1.2430417324	-0.330328
C	 0.5356275022	-0.6617897979	-1.2291497495	 0.192913
C	 1.1799289275	-0.0381752084	-2.3843363918	 0.0591
O	 1.725278891	-0.6448149614	-3.2829841666	-0.290568
H	 0.8281616594	 2.0641980099	-0.1599863995	 0.133738
H	-0.9241531021	 1.944639031	-0.3749278711	 0.135886
H	-0.218140768	 1.8366627416	 1.2482007804	 0.120676
H	-1.1192297963	-0.3864248843	 1.6630860744	 0.229059
H	 1.204304757	-0.8252957594	 1.8694059131	 0.100939
H	 2.2730755867	-2.0007705776	-0.4077372365	 0.118747
H	 0.5368250023	-2.6353755283	-2.1407618236	 0.143674
H	-0.7946065019	-2.4360107669	-0.8736007978	 0.152319
H	 1.1512133241	 1.0749591847	-2.3925042816	 0.060903
118.6954	158.8805	183.5367	229.8642	268.6459	307.9945	404.8202	440.7269	498.8071	555.3204	619.8461	713.8198	741.5073	794.9702	849.0032	866.3434	899.6637	925.0037	934.5338	982.6408	1014.0319	1021.2438	1048.409	1059.2214	1103.0662	1112.1354	1139.8905	1189.3152	1263.8733	1279.8876	1333.184	1343.6909	1408.7675	1437.3689	1443.0993	1455.1365	1481.2054	1499.1459	1776.9716	2868.6789	3023.9566	3086.8223	3097.4312	3152.0958	3197.6975	3210.4739	3252.933	3473.0493
CC12NC1C1CC21C=O	C[C@]12N[C@H]1[C@H]1C[C@@]21C=O	
InChI=1S/C7H9NO/c1-6-5(8-6)4-2-7(4,6)3-9/h3-5,8H,2H2,1H3	InChI=1S/C7H9NO/c1-6-5(8-6)4-2-7(4,6)3-9/h3-5,8H,2H2,1H3/t4-,5+,6+,7+/m1/s1
