17
gdb 43389	2.5419	1.85108	1.2053	5.5834	76.43	-0.2079	-0.0257	0.1822	1013.5508	0.139167	-418.010424	-418.002938	-418.001993	-418.042537	28.801	
O	 0.2125985727	-0.0730344629	-0.4997537841	-0.372018
C	 0.0160417831	 1.0978152496	-0.2133414463	 0.395457
C	-1.2703199533	 1.755494837	-0.2202657391	-0.253262
C	-1.3840500822	 3.0811664029	 0.0576322091	 0.052335
N	-0.3567814773	 3.921037947	 0.3342138798	-0.295298
C	 1.0336154266	 3.5164026314	 0.3003517444	-0.00386
C	 1.719983957	 3.4137086892	 1.6889391569	-0.180295
N	 1.4069725199	 1.9688828237	 1.7028908649	-0.304891
C	 1.1956981588	 1.9698743036	 0.2323226661	-0.103747
H	-2.1532051055	 1.1733505384	-0.4491501509	 0.096161
H	-2.3592628736	 3.5606432843	 0.0669731316	 0.121459
H	-0.5594187272	 4.895678536	 0.4755737585	 0.251347
H	 1.5751930577	 4.0933541683	-0.4549967379	 0.090638
H	 2.7905196162	 3.6584998227	 1.6264475023	 0.094337
H	 1.2686828898	 3.9871653024	 2.5063426252	 0.101463
H	 2.1360953866	 1.349916195	 2.0381494334	 0.227626
H	 2.0795133708	 1.6825678016	-0.351229114	 0.082546
95.1669	119.5312	219.6854	274.2662	364.2958	444.2116	480.2434	489.4482	514.5477	664.5967	705.3444	778.787	812.1658	830.0153	877.1999	948.1735	971.8651	993.5606	1002.3524	1023.7581	1048.6857	1096.7063	1129.3884	1165.3335	1205.3927	1255.9569	1258.8032	1287.5287	1320.1932	1343.4277	1370.9271	1379.9578	1432.9742	1508.1146	1547.9347	1661.161	1751.2104	2990.8185	3022.0448	3055.1396	3060.1894	3169.4272	3219.8423	3540.3986	3656.516
O=C1C=CNC2CNC12	O=C1C=CN[C@H]2CN[C@@H]12	
InChI=1S/C6H8N2O/c9-5-1-2-7-4-3-8-6(4)5/h1-2,4,6-8H,3H2	InChI=1S/C6H8N2O/c9-5-1-2-7-4-3-8-6(4)5/h1-2,4,6-8H,3H2/t4-,6+/m0/s1
