15
gdb 132516	3.11172	1.36608	0.95492	1.97	72.42	-0.2283	-0.0223	0.206	1153.8614	0.112639	-461.985775	-461.977988	-461.977044	-462.018303	29.312	
C	 0.0131375096	 1.4807552272	 0.0715295228	-0.46622
C	 0.0159232581	-0.0220825593	-0.0137327074	 0.317521
C	-0.1291022461	-0.6968478212	-1.2201252283	-0.177099
C	-0.1168967394	-2.0949140844	-1.2227035248	-0.1981
C	 0.0387491482	-2.7580014319	-0.0272311253	 0.174815
F	 0.0583249779	-4.0902019872	 0.0337642292	-0.063634
C	 0.1791966455	-2.0048450766	 1.148220053	 0.306808
O	 0.3316193791	-2.6538559451	 2.3189683841	-0.409522
N	 0.1673828054	-0.6851261615	 1.148313515	-0.404812
H	 0.951016499	 1.842707372	 0.5053449916	 0.138746
H	-0.1141994435	 1.9378936184	-0.9123698762	 0.120642
H	-0.7950138065	 1.8270633158	 0.7240506159	 0.138745
H	-0.2500079927	-0.1481428745	-2.1463588698	 0.100585
H	-0.2262772491	-2.6670103382	-2.1371058255	 0.121897
H	 0.4096939745	-1.9628960737	 2.9918842659	 0.299628
80.9846	134.9057	231.2745	288.495	304.2354	368.3594	453.2663	467.6248	530.7432	544.5389	591.5553	643.9272	731.9103	774.8633	789.3981	839.0374	955.6257	966.513	1029.4045	1060.1484	1121.6684	1184.4365	1258.1568	1283.5939	1339.1023	1359.1594	1410.9606	1462.7925	1476.2192	1494.3064	1536.0648	1641.7288	1656.5489	3039.9099	3097.7691	3127.2054	3193.8958	3208.188	3764.381
CC1=CC=C(F)C(O)=N1	Cc1ccc(F)c(O)n1	
InChI=1S/C6H6FNO/c1-4-2-3-5(7)6(9)8-4/h2-3H,1H3,(H,8,9)	InChI=1S/C6H6FNO/c1-4-2-3-5(7)6(9)8-4/h2-3H,1H3,(H,8,9)
