19
gdb 89232	2.96496	1.59554	1.25614	2.9532	74.5	-0.2294	0.0689	0.2984	1036.7598	0.159422	-422.969437	-422.961735	-422.960791	-423.001228	31.156	
C	 0.0034945318	 1.5204783248	-0.0022450416	-0.504182
C	 0.0511407031	 0.0133644512	-0.0439776199	 0.351132
C	 0.457713273	-0.7052220039	-1.3279921691	-0.333611
C	 0.3884502178	-2.1950875092	-0.8733142644	 0.091377
O	 1.6515671539	-2.8456607044	-0.8387150458	-0.440646
C	-0.0925881424	-2.0172800213	 0.5545358491	-0.035897
C	 0.6144737335	-0.7848488411	 1.181939179	 0.021986
O	-0.5834207949	-0.4675539145	 1.9785990191	-0.322674
C	-1.0824648023	-0.8244185621	 0.643962752	-0.001388
H	 0.9894376951	 1.9521602647	-0.2079369617	 0.115413
H	-0.6908770134	 1.9150301522	-0.7526681728	 0.113122
H	-0.3237592168	 1.856282286	 0.9851761135	 0.138394
H	-0.2232689278	-0.479384235	-2.1562567098	 0.096072
H	 1.473983898	-0.4479936574	-1.6452023267	 0.099507
H	-0.3250187533	-2.7744819093	-1.4769478997	 0.06608
H	 1.9587719152	-2.9508438844	-1.7446042077	 0.28329
H	-0.2660185019	-2.8920365577	 1.1781501714	 0.084572
H	 1.5856774736	-0.7175792723	 1.6722920458	 0.092689
H	-2.1616716023	-0.8007539063	 0.4810752892	 0.084764
111.6882	229.5783	250.9854	278.3872	299.5342	344.5434	394.9472	479.0546	526.2389	658.3723	685.5736	713.4657	762.5656	794.7182	871.8145	890.4059	899.6938	922.7373	938.3373	978.449	1020.8392	1036.1427	1071.3563	1084.8098	1136.8518	1150.6027	1168.4794	1188.2186	1217.86	1231.3003	1238.421	1247.4792	1272.4816	1316.4306	1351.6784	1363.9919	1405.9726	1430.7795	1484.3217	1493.4743	1500.7078	2991.6102	3029.4757	3037.9854	3082.373	3087.6801	3098.7691	3119.0809	3120.1619	3149.6808	3818.0844
CC12CC(O)C3C1OC23	C[C@@]12C[C@@H](O)[C@H]3[C@@H]1O[C@@H]23	
InChI=1S/C7H10O2/c1-7-2-3(8)4-5(7)9-6(4)7/h3-6,8H,2H2,1H3	InChI=1S/C7H10O2/c1-7-2-3(8)4-5(7)9-6(4)7/h3-6,8H,2H2,1H3/t3-,4-,5-,6+,7+/m1/s1
