12
gdb 7227	5.29519	1.19832	0.98295	4.5942	55.98	-0.2674	-0.0888	0.1785	1073.5475	0.08235	-414.718567	-414.710393	-414.709448	-414.752225	27.862	
N	 0.0102879149	 1.3172868587	 0.007595543	-0.521285
C	 0.0697226591	-0.0286802853	 0.0005065798	 0.347092
O	 1.0740365438	-0.7144331325	-0.0124411802	-0.346536
C	-1.3331162484	-0.6777451973	 0.0107940694	 0.298352
O	-2.3375382933	-0.0150031698	 0.0240286518	-0.273448
C	-1.2960734066	-2.2035412098	 0.002626089	-0.45448
C	-2.6177938036	-2.8133566627	 0.0118900652	 0.284597
N	-3.6591937691	-3.3112045106	 0.0190906933	-0.291853
H	 0.8583786481	 1.8586341902	 0.0024580898	 0.277788
H	-0.8899194231	 1.7695452485	 0.0187292236	 0.286771
H	-0.7216061695	-2.5299965035	-0.8720528203	 0.196496
H	-0.7054237022	-2.5388311159	 0.8630800355	 0.196505
39.7182	77.0011	126.8979	240.4749	328.7546	359.7315	371.1565	415.2542	433.8789	518.1939	622.9847	626.7375	723.6093	816.7177	943.9806	952.7168	1064.5847	1100.1197	1187.5037	1322.6488	1381.6818	1412.0494	1595.3463	1805.5583	1827.3629	2377.3707	3058.325	3086.8202	3595.6388	3734.5102
NC(=O)C(=O)CC#N	NC(=O)C(=O)CC#N	
InChI=1S/C4H4N2O2/c5-2-1-3(7)4(6)8/h1H2,(H2,6,8)	InChI=1S/C4H4N2O2/c5-2-1-3(7)4(6)8/h1H2,(H2,6,8)
