15
gdb 27441	2.46263	1.76985	1.12194	4.6322	80.1	-0.2345	-0.066	0.1686	1045.7867	0.115134	-413.011226	-413.003664	-413.00272	-413.043233	29.111	
N	-0.0112301157	 1.3569856118	 0.2674374517	-0.534806
C	-0.0682479826	 0.0012113979	 0.0537677036	 0.335293
N	-1.2224946697	-0.5760222305	 0.1847670969	-0.345038
C	-1.4408017367	-1.9169925808	-0.0844883343	 0.273586
N	-2.4527202009	-2.4005391747	-0.6923504525	-0.504823
C	-0.4937660704	-2.8927225559	 0.5395455376	 0.012971
N	 0.7785051227	-2.9010206763	 0.4204930609	-0.204008
C	 1.4824504641	-1.9247715383	-0.2539733267	 0.00755
C	 1.1784083282	-0.6151388685	-0.3859741229	-0.145696
H	 0.8675650038	 1.765117894	 0.5394430291	 0.260997
H	-0.8365045965	 1.7627225091	 0.6819691251	 0.263319
H	-3.030537862	-1.635788736	-1.0527349192	 0.216901
H	-0.9508967098	-3.6792321163	 1.1419387756	 0.138651
H	 2.4463655677	-2.2691548152	-0.6213234255	 0.122059
H	 1.9350344378	 0.0468621398	-0.7977011494	 0.103044
88.847	162.5766	258.0414	309.2388	390.4981	406.506	425.0704	461.3384	504.5883	552.9969	596.0258	675.3401	733.2694	805.8258	843.8382	871.4631	919.1508	936.5924	965.9694	999.4125	1035.8246	1077.1353	1207.7407	1264.6374	1345.4785	1368.3955	1384.5764	1472.3631	1588.1012	1627.5983	1678.312	1686.3528	1711.3676	3122.8066	3152.2338	3172.4137	3436.7019	3587.5458	3711.8238
NC1=NC(=N)C=NC=C1	NC1=N[C]([NH])C=NC=C1	
InChI=1S/C5H6N4/c6-4-1-2-8-3-5(7)9-4/h1-3H,(H3,6,7,9)	InChI=1S/C5H6N4/c6-4-1-2-8-3-5(7)9-4/h1-3H,(H3,6,7,9)
