18
gdb 103206	3.50316	1.37838	1.29376	3.7294	70.6	-0.2352	0.0548	0.29	1026.8051	0.148029	-439.005957	-438.998211	-438.997267	-439.037892	30.901	
O	-0.1825669168	 1.4647093379	-0.109480168	-0.436686
C	-0.0350859676	 0.0474558759	-0.0097833914	-0.158598
C	-1.4480166526	-0.5204037504	 0.0896790105	 0.476939
O	-2.2246130297	-0.0422230396	-0.9777902907	-0.49882
C	-1.457142203	-2.0250798027	 0.3080570952	-0.119342
C	-1.4496630436	-1.8565965916	 1.7857074406	-0.053272
C	-2.0349934675	-0.4175169944	 1.5423302081	-0.162935
C	-3.3842791727	-1.1273123381	 1.3838404897	-0.158733
N	-2.6546260463	-2.4199227039	 1.1249406618	-0.15728
H	 0.6378425942	 1.8380680788	-0.4427383764	 0.296635
H	 0.4563098808	-0.3551891186	-0.9071693303	 0.097509
H	 0.5605955915	-0.2311219252	 0.8695998113	 0.1015
H	-1.94917728	 0.875411131	-1.1106997216	 0.283956
H	-1.0168541693	-2.7990006189	-0.3078423506	 0.093531
H	-0.889946638	-2.3397792369	 2.5743947781	 0.097196
H	-1.8864430316	 0.4849946121	 2.1317126752	 0.07799
H	-3.9346545296	-1.2340059006	 2.3215452007	 0.102576
H	-4.0430578182	-0.7917937546	 0.578426908	 0.117834
109.9575	176.5922	235.0794	257.4232	311.9902	375.2396	431.6235	496.0508	504.3327	589.8606	684.0208	761.5348	780.2373	811.4212	837.3269	911.1475	923.0207	953.2639	958.5376	993.7265	1016.0476	1046.3478	1051.33	1096.1645	1111.6189	1145.4733	1160.1283	1187.6201	1195.2065	1219.9303	1242.486	1253.5341	1279.9802	1297.1512	1333.008	1420.5349	1449.5703	1499.6286	1507.9395	2994.5187	3040.2336	3060.7113	3122.1477	3139.0553	3195.5516	3215.4786	3750.5586	3842.7366
OCC1(O)C2C3C1CN23	OC[C@@]1(O)[C@H]2[C@H]3[C@@H]1CN23	
InChI=1S/C6H9NO2/c8-2-6(9)3-1-7-4(3)5(6)7/h3-5,8-9H,1-2H2	InChI=1S/C6H9NO2/c8-2-6(9)3-1-7-4(3)5(6)7/h3-5,8-9H,1-2H2/t3-,4+,5+,6-,7?/m0/s1
