20
gdb 104901	1.93991	1.64542	1.04339	2.6551	82.73	-0.2438	0.0245	0.2683	1209.0947	0.168243	-403.095486	-403.085447	-403.084503	-403.129637	38.09	
C	 0.2413457943	 1.4382444402	 0.112821525	-0.460216
C	 0.1131784703	-0.073066072	 0.1506133285	 0.305333
C	-1.0174309278	-0.6068211168	-0.7081109364	-0.471507
N	 1.3794050458	-0.8333508613	 0.15914274	-0.423399
C	 0.5263307037	-0.8483187715	 1.3791928329	 0.039783
C	 1.2112847776	-0.1889714722	 2.5962011678	-0.135057
O	 2.314610134	 0.6048617991	 2.2339416965	-0.415292
C	-0.190025425	-2.0490434223	 1.721385597	 0.262403
C	-0.7655734547	-3.0468137117	 2.0703210572	-0.414038
H	 1.0586102948	 1.7895831385	 0.7410359546	 0.155659
H	 0.4171682094	 1.7693610958	-0.9169497842	 0.116209
H	-0.6905622228	 1.9012856184	 0.4548717253	 0.117279
H	-0.8479810748	-0.335537091	-1.756382206	 0.121992
H	-1.1097613848	-1.6926899322	-0.6377268587	 0.127617
H	-1.9737968577	-0.1686987485	-0.4042410043	 0.128883
H	 1.286257931	-1.7089345309	-0.3496860481	 0.238039
H	 0.4915472625	 0.4416498948	 3.1311518024	 0.114452
H	 1.513332464	-0.9966727312	 3.2800870415	 0.101427
H	 2.6586824568	 0.2023095586	 1.4203905616	 0.293259
H	-1.2804160065	-3.9269720838	 2.3674286074	 0.197174
117.6632	134.8441	151.8719	178.4995	205.1187	216.2483	259.5104	319.3149	369.2261	397.8262	460.9531	505.9804	537.2824	558.8385	578.5751	611.8789	659.122	682.4842	703.2653	826.2792	964.9984	975.8525	988.8856	1035.4411	1050.7553	1087.6713	1099.9215	1147.258	1158.0141	1234.3858	1248.2271	1320.7038	1354.6746	1398.2442	1411.985	1424.2874	1458.5086	1483.2841	1486.1537	1506.7604	1513.6335	1520.7136	2227.5206	2986.969	3032.6312	3037.7566	3055.0623	3091.814	3097.7805	3127.0401	3162.2264	3500.5012	3505.3726	3680.4933
CC1(C)NC1(CO)C#C	CC1(C)N[C@]1(CO)C#C	
InChI=1S/C7H11NO/c1-4-7(5-9)6(2,3)8-7/h1,8-9H,5H2,2-3H3	InChI=1S/C7H11NO/c1-4-7(5-9)6(2,3)8-7/h1,8-9H,5H2,2-3H3/t7-/m0/s1
