19
gdb 85256	2.59007	1.52717	1.16848	4.3256	75.43	-0.2618	0.0159	0.2778	1114.8639	0.159959	-423.074175	-423.065892	-423.064948	-423.107285	31.69	
C	 0.612689179	 1.3722724944	 0.0554117355	-0.393626
C	-0.1152910849	 0.0386480508	-0.0518259129	 0.119401
C	 0.2844545675	-0.8062498627	-1.2864862422	-0.351046
C	 1.2840957199	-1.7843637475	-0.7035509827	 0.190186
C	 1.7299561836	-3.0708946277	-1.3514644985	-0.306679
C	 2.7166539811	-1.9581215796	-1.1805912424	-0.296243
C	 1.066328357	-1.7813107668	 0.7776632967	 0.411254
O	 1.5428460311	-2.5163285501	 1.5978785416	-0.365503
O	 0.2119499448	-0.7753062305	 1.1006505944	-0.238088
H	 1.6959762424	 1.2318033474	-0.0191864803	 0.127774
H	 0.2950569419	 2.0414634744	-0.7507076284	 0.120181
H	 0.3927560821	 1.8524142801	 1.0123965897	 0.136063
H	-1.1958978095	 0.1989928128	-0.0086970866	 0.096891
H	-0.5877123833	-1.3317762158	-1.6885667372	 0.116223
H	 0.6950558762	-0.1809571915	-2.0832874576	 0.112793
H	 1.8195255655	-3.929857756	-0.6957697382	 0.143186
H	 1.3508549942	-3.2778859853	-2.3464716973	 0.118362
H	 3.0146251328	-1.3890391829	-2.0547382762	 0.118502
H	 3.4762434586	-2.0667938335	-0.4147137974	 0.140369
59.6918	114.7041	238.0687	246.0574	259.5272	309.2236	357.8864	423.5372	484.4139	574.6418	693.6663	731.5164	750.8848	790.8202	836.395	854.3197	913.8027	944.8662	965.4893	983.5883	1005.5098	1059.6996	1066.5206	1091.268	1113.0882	1134.3842	1142.8229	1201.9233	1221.1667	1286.3931	1311.1368	1342.6756	1381.0037	1397.4381	1411.7189	1455.4626	1486.6122	1491.0108	1496.0554	1500.791	1864.7259	3038.868	3047.367	3071.0756	3098.5523	3112.6937	3125.0646	3133.8412	3135.8957	3220.9953	3234.9371
CC1CC2(CC2)C(=O)O1	C[C@H]1CC2(CC2)C(=O)O1	
InChI=1S/C7H10O2/c1-5-4-7(2-3-7)6(8)9-5/h5H,2-4H2,1H3	InChI=1S/C7H10O2/c1-5-4-7(2-3-7)6(8)9-5/h5H,2-4H2,1H3/t5-/m0/s1
