21
gdb 120229	3.65635	0.91515	0.88966	1.6571	77.53	-0.2426	0.0753	0.3179	1396.9842	0.183861	-424.198544	-424.190015	-424.189071	-424.232373	32.593	
O	 0.0568495425	 1.4810139314	-0.1098870874	-0.420094
C	 0.058288914	 0.073297677	 0.0684473558	-0.069092
C	-1.3626218269	-0.428507542	-0.1672304637	-0.230537
C	-1.4763171155	-1.9380789812	-0.0250355284	 0.028862
C	-1.4642400651	-2.6887091072	 1.3369157901	 0.060146
C	-2.5927890644	-2.034187561	 2.161161495	-0.219993
C	-3.6839830736	-2.0425751192	 1.0433093422	-0.218723
C	-2.8271270899	-2.6987836279	-0.0600269238	 0.04471
O	-2.1752586267	-3.7816598186	 0.6763953003	-0.300214
H	 0.9503323893	 1.8047507796	 0.0367310142	 0.285904
H	 0.7477820651	-0.4188110112	-0.6369634254	 0.086857
H	 0.3867824105	-0.1993020095	 1.0851277361	 0.086941
H	-2.0300886078	 0.0961489046	 0.5237389237	 0.109465
H	-1.6675820966	-0.131607728	-1.1785370243	 0.108601
H	-0.7833181317	-2.4500892469	-0.6992503454	 0.082675
H	-0.550272684	-2.997105904	 1.8453999093	 0.073639
H	-2.8613642543	-2.6564051702	 3.0169341974	 0.107577
H	-2.3416717878	-1.0342270761	 2.5249878518	 0.099945
H	-4.5411704442	-2.6695469255	 1.2959746164	 0.10724
H	-4.0481850686	-1.0475459088	 0.7744874545	 0.101088
H	-3.3084059541	-3.014421755	-0.9861747483	 0.075004
64.7396	87.2693	128.0896	255.9963	269.4376	298.5925	359.0742	383.6115	509.7351	615.9406	717.2372	761.7909	820.9262	841.4514	845.8335	862.2336	872.913	923.5366	958.1782	980.3602	1005.5566	1029.0207	1034.1462	1069.5682	1082.313	1132.8058	1155.4728	1166.7637	1199.4485	1213.2422	1241.066	1246.3445	1249.1213	1276.3772	1303.3915	1309.4992	1315.6295	1329.8905	1344.3665	1407.8481	1462.1336	1475.8748	1494.6486	1504.469	1527.157	2958.4946	2983.8155	3036.2762	3064.8867	3066.0448	3072.1835	3088.7994	3109.5663	3115.6819	3120.1557	3126.7222	3829.7339
OCCC1C2CCC1O2	OCC[C@H]1[C@H]2CC[C@@H]1O2	
InChI=1S/C7H12O2/c8-4-3-5-6-1-2-7(5)9-6/h5-8H,1-4H2	InChI=1S/C7H12O2/c8-4-3-5-6-1-2-7(5)9-6/h5-8H,1-4H2/t5-,6+,7-
