17
gdb 54955	3.0623	1.0742	0.97394	3.2938	74.9	-0.2664	-0.0058	0.2606	1247.2517	0.135204	-418.053568	-418.044118	-418.043174	-418.087886	34.255	
C	-0.3084419244	 1.5449545635	 0.1011153126	-0.474895
C	-0.0132985283	 0.0551366139	 0.0195461542	 0.151554
C	 1.3641137917	-0.4382632964	-0.3597086576	-0.30743
C	 0.8928106654	-0.6568918511	 1.0503878971	-0.161279
C	 1.5279890046	 0.1474452422	 2.1498247142	 0.421598
N	 1.361925938	-0.3742427672	 3.3971949523	-0.532429
O	 2.1525990042	 1.1742783491	 1.9464671881	-0.37056
C	-1.1260392612	-0.7500034404	-0.4277822032	 0.244739
N	-2.0248034544	-1.3881082895	-0.7798683657	-0.344404
H	 0.5581539752	 2.0767046553	 0.4936887327	 0.169952
H	-0.5478675705	 1.9311272253	-0.8938799675	 0.135499
H	-1.1650797339	 1.7363098738	 0.7539995403	 0.132951
H	 1.4478689279	-1.2989259763	-1.0115084411	 0.138535
H	 2.1179821159	 0.3315853779	-0.4808443197	 0.154924
H	 0.5751758104	-1.6596875263	 1.3145721067	 0.107579
H	 0.7783487361	-1.1723465273	 3.5755569441	 0.266162
H	 1.7280076634	 0.1430521936	 4.1797367324	 0.267504
70.0158	108.3406	152.5875	194.452	203.8223	230.2897	271.0492	340.0742	358.9359	423.8804	545.9523	579.425	589.6811	624.1106	657.2238	752.5966	820.6143	852.2357	934.1798	972.8262	986.4245	1078.3552	1082.1933	1094.9016	1116.0213	1134.177	1258.8828	1294.3027	1318.9194	1415.4422	1437.497	1470.3868	1497.2781	1502.874	1619.916	1781.2245	2348.3019	3049.245	3113.1027	3146.8365	3158.565	3169.4804	3245.9093	3604.6354	3740.582
CC1(CC1C(N)=O)C#N	C[C@]1(C[C@H]1C(=O)N)C#N	
InChI=1S/C6H8N2O/c1-6(3-7)2-4(6)5(8)9/h4H,2H2,1H3,(H2,8,9)	InChI=1S/C6H8N2O/c1-6(3-7)2-4(6)5(8)9/h4H,2H2,1H3,(H2,8,9)/t4-,6-/m0/s1
