18
gdb 106751	2.11323	1.62278	1.11092	5.1479	72.82	-0.2305	0.0087	0.2392	1152.3963	0.145596	-439.074473	-439.065182	-439.064238	-439.109325	33.737	
C	-0.4420908219	 1.3299512821	 0.1382282888	-0.326529
N	 0.3532903733	 0.1298311751	-0.0881159033	-0.379545
C	 0.9542227152	-0.4596634557	 1.0417350907	 0.072648
C	 0.2195331026	-0.8566796324	 2.3600023941	-0.366706
C	 0.9821985587	-1.8728041909	 1.594353017	 0.405742
C	 0.5472227511	-3.1870715496	 1.0425778552	-0.490725
O	 2.3888360216	-1.7302692087	 1.9628244152	-0.305787
C	 2.4341300415	-0.4682628708	 1.3694111024	 0.443677
O	 3.3902672606	 0.2148558213	 1.2075937912	-0.326519
H	 0.1953407641	 2.1142651508	 0.5569589233	 0.143763
H	-0.8264880745	 1.6887874956	-0.8202062873	 0.124202
H	-1.293854884	 1.1846245231	 0.8232652794	 0.099437
H	-0.1197990207	-0.5441915421	-0.6743777499	 0.230688
H	 0.5843326464	-0.521044858	 3.3252765024	 0.132818
H	-0.86130429	-0.8764390308	 2.2482871093	 0.124544
H	-0.4834768944	-3.1237010798	 0.6806533204	 0.128059
H	 1.1949189066	-3.4949154271	 0.2164899914	 0.143316
H	 0.5843038937	-3.9617059521	 1.8153495299	 0.146919
25.5907	139.7265	147.0502	182.5968	194.9958	248.3405	275.9362	365.1978	409.0742	484.012	536.0827	542.8333	640.6791	673.4169	744.5615	829.6838	847.4398	898.3771	949.1212	977.5185	1010.6782	1038.813	1062.4989	1092.2558	1133.3923	1150.9853	1190.2349	1224.1904	1363.6986	1405.6518	1426.9598	1464.2838	1465.0608	1476.0848	1489.2377	1494.5386	1510.5887	1522.1719	1946.4568	2966.817	3039.335	3075.8857	3107.4055	3117.6918	3119.3523	3119.9216	3213.8596	3569.173
CNC12CC1(C)OC2=O	CN[C@@]12C[C@]1(C)OC2=O	
InChI=1S/C6H9NO2/c1-5-3-6(5,7-2)4(8)9-5/h7H,3H2,1-2H3	InChI=1S/C6H9NO2/c1-5-3-6(5,7-2)4(8)9-5/h7H,3H2,1-2H3/t5-,6+/m0/s1
