18
gdb 59010	3.63317	1.08646	0.89757	2.3391	73.5	-0.2683	-0.0199	0.2484	1309.6768	0.146866	-439.15301	-439.144161	-439.143216	-439.187	32.28	
C	-0.0193647058	 1.599171316	 0.6613012761	-0.382859
C	-0.1398285088	 0.2325201595	-0.0186348816	-0.08547
C	 0.8544530525	-0.7960996059	 0.55864848	-0.395284
C	-1.5379608752	-0.2966430742	 0.064031008	 0.435695
N	-2.519421606	 0.1740178075	 0.7191341243	-0.301342
C	-3.6406539373	-0.7211054322	 0.4661424853	-0.317509
C	-3.096891824	-1.7957509714	-0.4677838607	 0.402287
O	-3.6020450972	-2.749528857	-0.9686613847	-0.310753
O	-1.7645745656	-1.4534132832	-0.6714136579	-0.238624
H	 0.9993588136	 1.9811874866	 0.5493745712	 0.113387
H	-0.7134756606	 2.322684142	 0.2275399498	 0.129294
H	-0.2456850098	 1.5233989321	 1.7282742055	 0.134061
H	 0.0807577506	 0.3387885949	-1.0898453514	 0.108839
H	 0.7555215594	-1.7658690554	 0.0655160043	 0.139294
H	 1.8792443748	-0.4407597313	 0.4196218859	 0.123646
H	 0.6861472923	-0.934812176	 1.6316375714	 0.126964
H	-4.0170041342	-1.1705365935	 1.3915849868	 0.159143
H	-4.4813192488	-0.1956031985	 0.0001831177	 0.159234
50.6793	119.6369	180.3709	206.1006	214.2386	254.7347	305.7382	366.8634	419.0969	528.7506	544.6094	623.7351	701.3344	738.4476	861.3676	870.8443	927.1002	935.9542	974.2536	989.9418	1035.758	1088.7147	1127.0016	1145.8397	1180.0296	1187.8689	1226.3212	1297.9009	1325.5067	1384.549	1401.6503	1422.3391	1444.9117	1486.5981	1487.8667	1499.8519	1512.928	1730.5161	1920.0516	3017.9575	3042.3885	3050.0092	3053.9451	3087.4642	3113.0824	3122.5457	3129.0684	3130.1242
CC(C)C1=NCC(=O)O1	CC(C)C1=NCC(=O)O1	
InChI=1S/C6H9NO2/c1-4(2)6-7-3-5(8)9-6/h4H,3H2,1-2H3	InChI=1S/C6H9NO2/c1-4(2)6-7-3-5(8)9-6/h4H,3H2,1-2H3
