18
gdb 80756	3.15836	1.22609	1.18365	3.67	72.43	-0.247	0.0134	0.2604	1111.5044	0.149045	-439.09708	-439.088962	-439.088018	-439.130006	30.57	
O	-0.4793754525	 1.6125195342	 0.3099488116	-0.427856
C	-0.1740486321	 0.2654120763	 0.1175438821	 0.132879
C	-0.3125270889	-0.790503054	 1.1859530186	-0.114796
C	-1.1988497353	-0.4567903693	 2.3713718626	-0.199027
N	-2.4581114402	-0.0133068278	 1.756595957	-0.084021
C	-2.6203104797	-0.5084420475	 0.3829001133	-0.187192
C	-1.203445148	-0.8214492838	-0.0592005839	-0.122171
C	-3.4996702382	 0.5241856757	 2.4503554635	 0.137321
O	-4.6024235223	 0.7283165156	 1.988252189	-0.327979
H	-1.3016105282	 1.6743199566	 0.8097445775	 0.296169
H	 0.7083350172	 0.1868330542	-0.5090522922	 0.112788
H	 0.4841173389	-1.5080975564	 1.3439030539	 0.096554
H	-1.3443024962	-1.3473316308	 2.9980307198	 0.119167
H	-0.7891193863	 0.33895482	 3.0038259744	 0.128617
H	-3.2498727964	-1.4072285047	 0.357410901	 0.124185
H	-3.1193425488	 0.2560906904	-0.2200783733	 0.141159
H	-1.0736296161	-1.5622699465	-0.8394255797	 0.097303
H	-3.2211751568	 0.7780869379	 3.4929047646	 0.0769
63.6323	174.2874	200.1599	216.1673	235.778	325.5976	347.4525	464.0603	494.8435	595.4074	712.5363	733.171	772.2288	795.2955	854.0997	910.8878	971.7591	1014.8751	1035.3733	1039.9958	1046.1038	1090.8187	1094.0376	1114.9057	1190.184	1195.9546	1220.8794	1233.2652	1306.3271	1324.9238	1339.1442	1353.4252	1390.2827	1397.5867	1442.105	1468.1368	1515.4469	1524.6889	1794.1686	2932.8244	3006.5176	3024.6952	3058.3096	3081.5872	3167.4335	3174.9009	3185.4926	3791.4323
OC1C2CN(CC12)C=O	O[C@H]1[C@H]2CN(C[C@@H]12)C=O	
InChI=1S/C6H9NO2/c8-3-7-1-4-5(2-7)6(4)9/h3-6,9H,1-2H2	InChI=1S/C6H9NO2/c8-3-7-1-4-5(2-7)6(4)9/h3-6,9H,1-2H2/t4-,5+,6-
