15
gdb 133230	3.17312	1.41145	0.98285	1.9568	73.84	-0.2083	-0.0617	0.1466	1113.4615	0.113124	-458.103867	-458.096191	-458.095247	-458.136159	28.932	
C	-0.0293544342	 1.4032215283	-0.0331666301	-0.305243
N	-0.0017323187	-0.0515651802	-0.0007791294	-0.042424
N	-0.0230848863	-0.6699502989	-1.1941591031	-0.260089
C	 0.000267417	-1.9538986889	-1.2028865662	 0.331524
F	-0.021334507	-2.5490601628	-2.3931606369	-0.069821
C	 0.0472889367	-2.7727799809	-0.0364694914	-0.237719
C	 0.0684015833	-2.142087989	 1.157358121	-0.138821
C	 0.0441945274	-0.6894467902	 1.246973325	 0.380787
N	 0.0594867537	 0.0483019837	 2.3028511931	-0.573479
H	 0.8586272807	 1.8041819867	 0.4634653064	 0.15112
H	-0.0635724988	 1.7073778219	-1.0775210928	 0.144355
H	-0.9029257686	 1.771813228	 0.5117531083	 0.151122
H	 0.0644056543	-3.8516086335	-0.1357515628	 0.133303
H	 0.1040857431	-2.6948559766	 2.0894603435	 0.125336
H	 0.0929751275	-0.5352344477	 3.1363056951	 0.210048
95.9534	156.6017	191.3552	325.051	326.0756	365.0438	398.0493	491.7765	533.7276	567.9202	589.0009	713.5324	732.0988	762.5711	818.7601	853.1786	961.9118	990.8918	1039.8439	1102.3605	1150.9434	1167.5838	1223.2933	1314.2706	1337.07	1396.7198	1438.2126	1466.2416	1472.4686	1504.3621	1585.2056	1633.5081	1700.6171	3052.3124	3110.8073	3178.4247	3193.1537	3212.2766	3502.5689
CN1N=C(F)C=CC1=N	CN1N=C(F)CC=C1[NH]	
InChI=1S/C5H6FN3/c1-9-5(7)3-2-4(6)8-9/h2-3,7H,1H3	InChI=1S/C5H7FN3/c1-9-5(7)3-2-4(6)8-9/h3,7H,2H2,1H3
