18
gdb 78834	2.52007	1.716	1.31787	1.6754	74.63	-0.2428	-0.0301	0.2128	1010.7846	0.147624	-401.894084	-401.886219	-401.885275	-401.926638	29.737	
C	-0.0351843524	 1.6474711317	-0.0708322967	-0.451831
C	 0.1323456718	 0.1347783554	-0.1333795018	 0.039044
C	 0.9032746764	-0.5673577094	-1.2402862187	-0.055459
C	 2.3298142325	-0.7595702199	-0.8324540659	-0.059901
C	 2.5389703459	-0.2024056959	 0.5580746487	-0.066808
C	 3.0271617786	 1.1979225069	 0.8108803486	 0.12679
O	 3.5007158195	 1.9181278412	-0.0325906169	-0.248796
C	 1.0743200219	-0.6673821283	 0.797593868	-0.077168
N	 1.2720468254	-1.718281996	-0.3455521028	-0.165051
H	 0.8990088036	 2.1817939372	-0.2519794641	 0.148106
H	-0.7532169601	 1.9776011432	-0.8291737723	 0.122432
H	-0.4271001784	 1.9571148824	 0.9045333387	 0.116848
H	-0.8495179579	-0.3486196914	-0.0674894577	 0.093652
H	 0.5879419227	-0.7395527175	-2.2636697309	 0.097512
H	 3.0883573903	-1.0754180585	-1.5381178683	 0.106027
H	 3.1854628265	-0.8801950392	 1.1343640234	 0.113278
H	 2.9518699223	 1.5310404047	 1.8731958565	 0.074887
H	 0.7522522113	-0.9982974667	 1.783012172	 0.086438
91.9444	135.2577	167.9954	215.0426	264.8829	284.0463	446.6794	578.3893	663.6108	679.4713	732.1635	770.3133	800.9452	822.4977	881.5745	911.547	923.9755	997.7532	1026.958	1036.1416	1054.1554	1083.1477	1089.156	1115.6635	1129.4086	1154.5484	1179.8803	1186.4178	1251.9258	1274.824	1338.9988	1370.6624	1383.3446	1398.8822	1417.3411	1424.2523	1495.6318	1509.9419	1820.1638	2851.9295	3013.4749	3036.2944	3042.8557	3094.0816	3137.9189	3141.2277	3175.4308	3196.5784
CC1C2C3C(C=O)C1N23	C[C@H]1[C@H]2[C@H]3[C@@H](C=O)[C@@H]1N23	
InChI=1S/C7H9NO/c1-3-5-4(2-9)7-6(3)8(5)7/h2-7H,1H3	InChI=1S/C7H9NO/c1-3-5-4(2-9)7-6(3)8(5)7/h2-7H,1H3/t3-,4+,5-,6+,7-,8?/m1/s1
