17
gdb 93383	3.20378	1.36062	1.06526	1.7157	67.97	-0.2509	-0.0377	0.2132	1102.0032	0.136311	-458.969809	-458.961926	-458.960982	-459.002479	30.179	
O	 0.0830701265	 1.3638204292	-0.2874280252	-0.435858
C	 0.0335167706	-0.0359960024	-0.0551437498	 0.115682
C	 0.8414255562	-0.4469963566	 1.1823275134	-0.256239
C	 0.7663236584	-1.9559759507	 1.4487751866	-0.329036
C	-0.6358500382	-2.5559278433	 1.441956776	 0.410599
O	-0.8667774496	-3.6674724161	 1.8569809495	-0.311617
C	-1.735466765	-1.7385741674	 0.81009708	-0.075567
O	-1.9604507288	-0.4336741702	 1.374285279	-0.247513
C	-1.4026956655	-0.5107601384	 0.0611908758	 0.01187
H	-0.3126227601	 1.798501722	 0.477158236	 0.287851
H	 0.4717920303	-0.4861609762	-0.9554042982	 0.098453
H	 1.8804017656	-0.1362303866	 1.0430596989	 0.114053
H	 0.4484446246	 0.1007496258	 2.0454084405	 0.116172
H	 1.3122358448	-2.5000061637	 0.6639145435	 0.13813
H	 1.2499267856	-2.2299973808	 2.3905882193	 0.137926
H	-2.6398470002	-2.2997305605	 0.5838118727	 0.114566
H	-2.0739094754	-0.1924293739	-0.7359416981	 0.110529
57.3453	170.1954	215.2541	278.2862	340.6084	369.5354	397.6804	422.5341	489.2657	591.7537	620.1575	649.1109	743.4211	814.5414	863.9744	895.3363	936.1168	971.1008	1030.2792	1044.0388	1086.4071	1112.64	1139.6213	1182.8102	1206.6936	1256.4768	1263.0116	1286.4196	1338.6011	1348.3955	1355.9652	1382.7193	1425.1916	1439.0285	1449.9712	1488.6079	1809.7287	3016.0725	3033.5471	3053.0258	3093.9878	3101.838	3123.0692	3144.867	3794.3183
OC1CCC(=O)C2OC12	O[C@H]1CCC(=O)[C@H]2O[C@@H]12	
InChI=1S/C6H8O3/c7-3-1-2-4(8)6-5(3)9-6/h3,5-7H,1-2H2	InChI=1S/C6H8O3/c7-3-1-2-4(8)6-5(3)9-6/h3,5-7H,1-2H2/t3-,5-,6+/m0/s1
