20
gdb 93919	3.46059	1.10189	1.04235	6.0269	74.53	-0.247	0.0301	0.2771	1233.2845	0.1733	-440.333911	-440.325458	-440.324514	-440.367348	32.206	
C	 0.3314133443	 1.4834745964	 0.2250714708	-0.4066
C	 0.0478180305	 0.0616190612	-0.2672251382	 0.062319
C	 1.0789022431	-0.4336001889	-1.3223437243	-0.241705
C	 1.6744407693	-1.7492965826	-0.7447249937	-0.119947
C	 1.4954901118	-1.5266227947	 0.7658082817	-0.207004
N	 0.1359258887	-0.9649650002	 0.8029721082	-0.335374
H	-0.1309902806	-0.6088886058	 1.7136662052	 0.228717
H	-0.4670597911	-2.4505700485	-0.053500531	 0.313733
C	 0.9122309894	-2.9801032715	-1.2539723105	 0.40476
O	 1.3604297058	-3.7231808816	-2.0872352553	-0.341775
O	-0.3107810692	-3.1611973126	-0.7259065975	-0.383378
H	 1.3310310467	 1.5597333842	 0.667390768	 0.120773
H	 0.2775351962	 2.1966253417	-0.6040405776	 0.128511
H	-0.4013900372	 1.7955295372	 0.977419944	 0.116582
H	-0.9666892933	 0.032905019	-0.6798183662	 0.090781
H	 0.6288349975	-0.5796690888	-2.3063601768	 0.129753
H	 1.8782468976	 0.3040542966	-1.4380316902	 0.110535
H	 2.7153947138	-1.8851469382	-1.0358610674	 0.103235
H	 1.5440394782	-2.4471787709	 1.3548417296	 0.125
H	 2.2686306885	-0.8384228317	 1.1403935411	 0.101083
62.7352	100.0105	192.5474	227.522	261.6419	320.0257	366.6017	410.0677	455.7741	587.0436	628.6744	720.0246	782.265	800.0573	828.9166	862.9998	904.0883	933.4853	952.5474	964.8191	982.9544	1020.2318	1068.3727	1091.0146	1101.247	1154.9833	1199.6088	1211.8411	1245.6706	1266.5262	1290.2943	1321.1843	1344.0443	1374.8514	1382.6699	1409.336	1429.9251	1484.4072	1492.896	1498.9117	1500.8484	1523.4364	1857.367	2984.8576	3027.1954	3035.6772	3062.1927	3083.8719	3096.7057	3103.0191	3114.0108	3126.5273	3277.6244	3543.9005
CC1CC(C[NH2+]1)C([O-])=O	C[C@H]1C[C@@H](CN1)C(=O)O	
InChI=1S/C6H11NO2/c1-4-2-5(3-7-4)6(8)9/h4-5,7H,2-3H2,1H3,(H,8,9)	InChI=1S/C6H11NO2/c1-4-2-5(3-7-4)6(8)9/h4-5,7H,2-3H2,1H3,(H,8,9)/t4-,5-/m0/s1
