19
gdb 114667	3.40726	1.17905	1.0651	2.2457	71.02	-0.252	0.0751	0.3271	1192.9986	0.159493	-460.120765	-460.112579	-460.111635	-460.153577	31.546	
C	 0.081872607	 1.3258145226	 0.0441096899	-0.23651
O	-0.1818703496	-0.0452236615	-0.1542496708	-0.250755
C	 0.5668326556	-0.6229314629	-1.1979290939	 0.138754
C	 2.0479239973	-0.9942734767	-0.8293075644	-0.263133
C	 1.9068325096	-2.5135939662	-0.9794698171	 0.020217
O	 1.1593427642	-2.6242063648	-2.2476581165	-0.332241
C	 0.0604445621	-2.0507513936	-1.4631065612	-0.019474
C	 0.5810562699	-2.8627091097	-0.2488282421	 0.19619
O	 0.2414051394	-4.2193695951	-0.2555576683	-0.455453
H	 1.1247400417	 1.5088730423	 0.3432644851	 0.108549
H	-0.1230441973	 1.911620731	-0.865264451	 0.108551
H	-0.5780518572	 1.6702795149	 0.8436892069	 0.130637
H	 0.5096805456	-0.0017356309	-2.1019668425	 0.075605
H	 2.7822027702	-0.5865991539	-1.5266811933	 0.111407
H	 2.301193493	-0.6809241581	 0.1873851515	 0.110409
H	 2.7893232985	-3.1514011169	-0.9263026844	 0.083795
H	-0.9295592983	-2.1896233089	-1.8961397453	 0.08555
H	 0.4074783951	-2.4730270332	 0.7547335764	 0.101197
H	 0.3922134733	-4.5300325184	-1.1581794691	 0.286705
100.6251	119.3581	181.1263	243.6923	287.6376	330.0421	388.6066	455.464	490.4013	509.1528	612.5281	693.9197	820.1735	848.2158	876.8352	910.7665	922.0052	950.2997	984.1331	1015.4837	1031.5335	1054.4052	1094.4694	1146.2174	1161.356	1184.0261	1191.4858	1203.1797	1219.3715	1235.1064	1250.6147	1293.3567	1302.0985	1314.4452	1337.6998	1381.332	1444.8058	1475.3859	1481.6552	1487.79	1509.0896	2977.6454	3012.1401	3025.9717	3067.048	3117.2208	3117.5448	3122.9462	3125.0666	3135.4063	3768.3088
COC1CC2OC1C2O	CO[C@H]1C[C@@H]2O[C@H]1[C@H]2O	
InChI=1S/C6H10O3/c1-8-4-2-3-5(7)6(4)9-3/h3-7H,2H2,1H3	InChI=1S/C6H10O3/c1-8-4-2-3-5(7)6(4)9-3/h3-7H,2H2,1H3/t3-,4-,5-,6+/m0/s1
