14
gdb 125552	5.48594	1.36747	1.10217	5.3017	69.46	-0.2448	-0.0028	0.242	1032.134	0.104588	-429.069327	-429.062505	-429.06156	-429.100596	25.573	
C	-0.0218537643	 1.429261452	-0.014748038	-0.503674
C	-0.0006362038	-0.057969134	-0.0183098275	 0.382799
N	-0.0550569119	-0.7979929238	-1.1010082599	-0.280119
N	-0.0077699299	-2.0676454475	-0.6043850156	 0.112417
N	-0.0217293854	-3.3097982417	-1.1369985777	-0.268741
C	 0.0552017453	-4.0427366631	-0.0235432513	 0.029349
N	 0.1171278334	-3.3741426514	 1.1749729654	-0.404305
C	 0.0733960495	-2.129568028	 0.7391792757	 0.499375
N	 0.0794137616	-0.8185956125	 1.1406488109	-0.454965
H	 0.8832896089	 1.8396747273	 0.4456219027	 0.148072
H	-0.0812402404	 1.7814417596	-1.0449520908	 0.174164
H	-0.8852216781	 1.8142534438	 0.5385485826	 0.148367
H	 0.0673542085	-5.1211081049	-0.0752943245	 0.128352
H	 0.1297073566	-0.4760468459	 2.083813648	 0.28891
123.9819	149.1205	287.2197	300.7451	354.1651	428.1503	534.2579	593.5943	662.2232	668.8431	759.4472	803.9461	849.4482	890.1543	975.7761	991.6901	1034.575	1066.1047	1181.8478	1197.9348	1238.8355	1264.7596	1342.1209	1406.4456	1434.3679	1441.3182	1466.1781	1478.3365	1494.9898	1598.1068	1642.1494	3040.5954	3095.2849	3156.6562	3263.3663	3692.0941
CC1=NN2N=CN=C2N1	Cc1nn2ncnc2[nH]1	
InChI=1S/C4H5N5/c1-3-7-4-5-2-6-9(4)8-3/h2H,1H3,(H,5,6,7,8)	InChI=1S/C4H5N5/c1-3-7-4-5-2-6-9(4)8-3/h2H,1H3,(H,5,6,7,8)
