18
gdb 55747	3.86358	1.10396	1.016	3.6642	72.7	-0.2395	0.0362	0.2757	1198.5804	0.147631	-439.057378	-439.049193	-439.048248	-439.090656	31.612	
N	 0.5375920582	 0.0130507763	-0.6685343889	-0.515464
C	-0.2509845711	 0.1685447953	 0.4281504247	 0.383415
O	-0.1425721056	 1.0931882479	 1.20966819	-0.366093
C	-1.349147672	-0.8947779609	 0.5950413198	-0.441832
C	-0.9916455985	-2.2881237007	 0.1662894072	 0.402935
C	 0.2234458957	-3.1805489702	 0.550205496	-0.249309
C	-0.5285097574	-3.8380988593	-0.6252532578	 0.051188
C	-1.874069687	-3.5632852057	 0.0825133077	-0.260977
O	-0.6386519906	-2.508983018	-1.2781894523	-0.34708
H	 1.257728925	 0.6974323123	-0.8309844387	 0.255592
H	 0.4462440479	-0.7922677131	-1.2724940286	 0.275011
H	-1.6311428075	-0.893831661	 1.650837813	 0.139502
H	-2.2264424424	-0.5644294019	 0.024871419	 0.139203
H	 1.2032451866	-2.7656856322	 0.3133718061	 0.112591
H	 0.1961713797	-3.6816964723	 1.520505842	 0.103591
H	-0.2356783327	-4.6759745016	-1.2563044778	 0.102803
H	-2.0855383855	-4.0980635218	 1.0112819272	 0.102907
H	-2.7397810528	-3.484893203	-0.5761236886	 0.112018
49.9113	101.635	167.013	295.3903	320.4284	383.115	385.9644	522.8257	527.6744	581.1211	605.6727	692.8963	703.774	749.7702	800.0043	856.9873	879.8217	902.5149	950.6484	968.4589	988.8757	997.5512	1082.9275	1092.7274	1107.7128	1146.8594	1159.8375	1214.3207	1216.7153	1236.4665	1253.6291	1295.1592	1358.3726	1366.2511	1447.4593	1471.4169	1515.7089	1627.5196	1801.923	3043.0227	3066.4599	3075.2535	3111.7223	3132.6843	3150.3128	3156.5136	3537.5257	3701.848
NC(=O)CC12CC(C1)O2	NC(=O)C[C@@]12C[C@@H](C1)O2	
InChI=1S/C6H9NO2/c7-5(8)3-6-1-4(2-6)9-6/h4H,1-3H2,(H2,7,8)	InChI=1S/C6H9NO2/c7-5(8)3-6-1-4(2-6)9-6/h4H,1-3H2,(H2,7,8)/t4-,6+
