21
gdb 69649	3.92835	1.16588	1.07437	1.7493	83.2	-0.2358	0.0807	0.3165	1221.4214	0.182329	-387.052668	-387.044155	-387.043211	-387.086001	33.026	
C	-0.0540762029	 1.5540180539	-0.0881831471	-0.496751
C	 0.0271785815	 0.0569270554	-0.0209927681	 0.367018
C	-0.8750107533	-0.792330163	 0.8252631179	-0.330444
C	 0.6120373607	-0.8508778101	 1.0754755907	-0.161177
C	 1.2783084682	-1.7202971158	 0.0217816593	 0.477626
C	 2.7982934379	-1.9833826485	 0.0676495729	-0.362168
C	 2.4009966875	-3.4712232468	 0.0722788301	-0.070847
O	 0.9999293887	-3.1391233524	 0.020153713	-0.319264
C	 0.6540251939	-0.8388790746	-1.1022907306	-0.373141
H	 0.9095997535	 1.9957940855	-0.3675582689	 0.114059
H	-0.7930109565	 1.8786386279	-0.8311191581	 0.120637
H	-0.3504036055	 1.9784730349	 0.8768336852	 0.117082
H	-1.4403659948	-0.2613132313	 1.585287289	 0.106206
H	-1.3877302112	-1.6553108615	 0.4078011888	 0.119284
H	 1.0414198247	-0.5906180272	 2.0373561774	 0.075834
H	 3.3536126297	-1.6455452512	-0.8095590529	 0.108003
H	 3.3003638318	-1.6271291784	 0.9695964456	 0.109247
H	 2.7176408742	-4.054946334	-0.8006922613	 0.099921
H	 2.6565131175	-4.0290632601	 0.9814164013	 0.100601
H	-0.0445641123	-1.3528209054	-1.7704358063	 0.101338
H	 1.4190241168	-0.3358813674	-1.7016355777	 0.096938
61.7221	89.3826	207.3858	217.6909	288.617	315.8884	398.954	401.5378	438.5709	518.1174	651.3887	776.8784	788.3926	805.9146	864.5001	870.0206	898.2714	947.4424	961.1039	972.5274	982.4699	1014.8698	1023.9341	1036.9123	1070.139	1086.8961	1127.0431	1139.6548	1159.8078	1185.6575	1192.6893	1222.0583	1237.4452	1257.4765	1285.1207	1323.4101	1352.6076	1394.7112	1425.6981	1473.2787	1485.9894	1487.044	1497.359	1505.7667	1532.4545	3015.2768	3018.273	3040.8066	3053.2749	3070.9776	3075.1724	3093.2115	3094.9653	3110.8515	3125.3375	3162.8536	3197.1802
CC12CC1C1(CCO1)C2	C[C@]12C[C@H]1[C@]1(CCO1)C2	
InChI=1S/C8H12O/c1-7-4-6(7)8(5-7)2-3-9-8/h6H,2-5H2,1H3	InChI=1S/C8H12O/c1-7-4-6(7)8(5-7)2-3-9-8/h6H,2-5H2,1H3/t6-,7-,8+/m1/s1
