16
gdb 33872	4.1947	1.29694	1.16018	4.6242	72.71	-0.2445	0.0053	0.2497	1044.5713	0.126674	-396.884968	-396.877947	-396.877003	-396.916335	27.705	
N	-0.018444743	-1.1278282951	 0.1393114048	-0.335777
C	 0.0031337464	 0.0265495543	 0.079762534	 0.258026
C	 0.0090142518	 1.4646623676	-0.0396233029	 0.149986
C	-0.9850767772	 2.1155932616	-1.0152370032	-0.253323
N	-0.3241999968	 3.2676945599	-1.663674473	-0.086759
C	-0.0253119354	 4.4286764969	-0.8211656838	-0.267334
C	 1.0255049334	 3.4079647916	-1.0742639879	-0.019987
C	 1.259814562	 2.3056105824	-0.0662271167	-0.086793
N	 0.4539973975	 2.2141813893	 1.1458827893	-0.344395
H	-1.2493011484	 1.3925534823	-1.7923746866	 0.142159
H	-1.913378391	 2.4204615598	-0.5191806264	 0.126876
H	 0.0053888578	 5.3747351537	-1.3552695421	 0.13243
H	-0.4720433295	 4.5062967488	 0.1678274623	 0.112559
H	 1.8431106074	 3.6166024321	-1.7580103312	 0.108035
H	 2.2515244515	 1.8722944941	 0.0041446502	 0.125234
H	-0.1228827866	 3.0353516506	 1.3018102532	 0.239063
129.4921	154.3568	270.7182	285.3508	430.7616	454.5026	540.1195	559.2948	595.693	678.0031	730.1245	758.1358	818.471	837.0748	895.7634	953.2166	980.8814	1015.45	1030.9001	1061.2546	1099.0211	1105.1831	1119.3494	1131.4281	1149.249	1221.0682	1251.5279	1276.7904	1309.8303	1333.1292	1371.2357	1417.5766	1494.2466	1516.7796	2357.4809	3046.5764	3091.585	3099.6699	3152.0129	3177.8269	3181.2105	3521.0029
N#CC12CN3CC3C1N2	N#C[C@]12CN3C[C@H]3[C@H]1N2	
InChI=1S/C6H7N3/c7-2-6-3-9-1-4(9)5(6)8-6/h4-5,8H,1,3H2	InChI=1S/C6H7N3/c7-2-6-3-9-1-4(9)5(6)8-6/h4-5,8H,1,3H2/t4-,5+,6-,9?/m0/s1
