21
gdb 92341	2.46842	1.71724	1.63657	0.955	76.69	-0.2403	0.0796	0.3199	984.3819	0.185608	-424.239301	-424.231767	-424.230823	-424.270858	30.981	
C	-0.0451594417	 1.5571326818	 0.0538873648	-0.400602
C	-0.0380026201	 0.0246713078	-0.0092225701	 0.144173
C	 0.5026163005	-0.5051060334	-1.3624253777	-0.247199
C	 1.9909308092	-0.8655100527	-1.275753518	 0.10649
C	 2.1782878302	-1.8843479092	-0.1487583588	-0.241079
C	 1.9866553755	-0.9117052018	 1.0224937303	 0.099596
C	 2.9008692495	 0.2319627033	 0.5688155073	-0.100403
O	 2.7688643204	 0.2737733896	-0.8589928928	-0.281944
O	 0.6209316629	-0.541277665	 1.1410110587	-0.295141
H	 0.9226003896	 1.9798663625	-0.2247725455	 0.137646
H	-0.7927478665	 1.9492600794	-0.6446179305	 0.107944
H	-0.3101817789	 1.8899388008	 1.0611421083	 0.116942
H	-1.074289912	-0.3122220737	 0.1048810723	 0.083393
H	-0.0470037599	-1.4021583682	-1.6703039289	 0.097313
H	 0.3423058429	 0.2534069538	-2.1348330311	 0.106051
H	 2.3768647321	-1.1860172778	-2.2468918715	 0.074916
H	 1.440305889	-2.688094034	-0.149970214	 0.105442
H	 3.1857337236	-2.3107645347	-0.1528636828	 0.101947
H	 2.2665960193	-1.3124702572	 1.9991879068	 0.079944
H	 2.611134441	 1.193711565	 1.0007850175	 0.108405
H	 3.9459141032	 0.0254181736	 0.8394084656	 0.096167
126.51	188.6437	274.1133	310.2094	365.7637	372.9294	413.8427	478.0121	482.3686	637.109	744.8015	764.8832	811.4005	845.2566	868.3743	899.8362	913.4192	930.7719	956.2269	976.6213	1003.558	1027.0143	1072.678	1090.9426	1096.8342	1130.192	1144.8684	1180.4472	1226.7994	1236.0213	1258.3563	1303.6753	1319.1329	1329.8499	1359.6274	1372.7256	1378.2176	1389.6623	1400.345	1406.6501	1477.546	1488.1074	1492.2123	1503.3367	1523.2254	3006.1871	3029.4517	3037.721	3045.647	3060.8571	3077.7933	3085.9185	3088.2798	3094.9654	3107.4867	3127.777	3137.4606
CC1CC2CC(CO2)O1	C[C@H]1C[C@@H]2C[C@@H](CO2)O1	
InChI=1S/C7H12O2/c1-5-2-6-3-7(9-5)4-8-6/h5-7H,2-4H2,1H3	InChI=1S/C7H12O2/c1-5-2-6-3-7(9-5)4-8-6/h5-7H,2-4H2,1H3/t5-,6+,7-/m0/s1
