19
gdb 118023	3.69399	0.81312	0.69509	1.7205	75.14	-0.2617	0.0288	0.2905	1609.5922	0.15511	-460.102358	-460.091524	-460.09058	-460.138686	38.223	
C	 0.1022731303	 1.3638427481	-0.0900209955	-0.230088
O	 0.1008309687	-0.0445697469	-0.0359630362	-0.253689
C	 0.5513823939	-0.5604503027	 1.2039303958	-0.086909
C	 0.6044685287	-2.0772997609	 1.0371256484	 0.099404
O	 1.3987948107	-2.4182343732	-0.079326351	-0.440793
C	 1.2293590219	-2.7539768733	 2.2735296121	-0.053272
O	 0.5714510809	-2.3373324339	 3.4689364117	-0.424436
C	 1.2370593986	-4.2104563751	 2.1425716749	 0.295734
C	 1.1810107141	-5.4089154534	 2.0732936628	-0.433451
H	 1.1116635855	 1.7750038221	 0.0643950921	 0.110699
H	-0.2521885753	 1.6535889881	-1.0820683417	 0.130126
H	-0.5663883131	 1.7977804172	 0.6685307105	 0.111215
H	 1.5581810858	-0.1738898012	 1.4355456504	 0.090925
H	-0.1225895602	-0.2780920229	 2.0231697497	 0.106228
H	-0.426345831	-2.4516127728	 0.9160041663	 0.070722
H	 1.1549443394	-1.7903942002	-0.7712133581	 0.293453
H	 2.2612916978	-2.3917411489	 2.3572229947	 0.12453
H	-0.2069217832	-2.8943323545	 3.5787234309	 0.28919
H	 1.1548795365	-6.4682802156	 2.001656052	 0.200412
54.8667	91.6972	98.04	119.0608	179.9082	224.2122	233.6741	250.3763	281.021	366.2368	383.0122	424.0634	465.2815	471.5188	592.7521	617.7113	635.2328	671.7931	892.0093	924.4989	994.4033	1059.1471	1075.6535	1100.6246	1137.2719	1165.4147	1184.5726	1219.593	1230.8077	1254.1173	1285.0572	1323.81	1356.1635	1400.2574	1406.8285	1452.0036	1479.8478	1486.1128	1500.6206	1521.7682	2236.6488	2958.4117	2970.339	2981.4194	3027.906	3041.6492	3046.7872	3116.9088	3503.9161	3778.4593	3811.9879
COCC(O)C(O)C#C	COC[C@@H](O)[C@@H](O)C#C	
InChI=1S/C6H10O3/c1-3-5(7)6(8)4-9-2/h1,5-8H,4H2,2H3	InChI=1S/C6H10O3/c1-3-5(7)6(8)4-9-2/h1,5-8H,4H2,2H3/t5-,6+/m0/s1
