17
gdb 91217	2.22261	1.61112	1.46034	0.5951	68.68	-0.2538	-0.0399	0.214	1007.2045	0.133593	-458.946724	-458.938164	-458.93722	-458.979889	32.012	
C	-0.556744072	 1.4466467285	 0.0215376057	-0.415653
C	 0.0240396174	 0.0504297629	-0.0510936443	 0.107117
O	 1.1761120778	-0.0687575072	-0.9256298901	-0.304413
C	 1.9729563398	-0.694880856	 0.0852201615	 0.031976
C	 2.820529214	 0.3392870488	 0.8679391285	-0.36095
C	 1.7169363153	 0.3555086543	 1.9423111998	 0.31292
O	 1.6894539316	 0.6616275405	 3.1028142963	-0.310388
C	 0.7871055698	-0.5618034886	 1.148564969	 0.233394
O	 0.0852281316	-1.5190033603	 1.8537218398	-0.465877
H	 0.1940251194	 2.1791811081	 0.3317138071	 0.124176
H	-0.9432434094	 1.746232758	-0.9574132551	 0.134289
H	-1.38537247	 1.4695077572	 0.7368481213	 0.133833
H	-0.7445113945	-0.6737862923	-0.3532517943	 0.10157
H	 2.4381707917	-1.6306672046	-0.2260167711	 0.099214
H	 3.7656918602	-0.0340943554	 1.274435474	 0.137676
H	 2.9979519231	 1.2732049872	 0.3307002811	 0.141878
H	 0.3743043443	-1.4787392313	 2.7746156809	 0.299237
80.4443	112.3486	205.3421	209.0296	232.1299	343.7066	368.4433	382.5607	431.5474	501.8518	535.5637	617.2726	684.1047	768.0932	837.2054	867.2325	902.509	929.797	1000.9408	1016.5178	1052.2451	1093.6516	1106.9317	1116.776	1157.9405	1163.5907	1215.4536	1242.1104	1301.4834	1351.9121	1380.782	1395.9798	1410.0971	1423.2988	1481.7313	1495.414	1863.1656	3018.1685	3039.0969	3063.3209	3113.2066	3113.3035	3117.0932	3128.1229	3769.0948
CC1OC2CC(=O)C12O	C[C@H]1O[C@H]2CC(=O)[C@@]12O	
InChI=1S/C6H8O3/c1-3-6(8)4(7)2-5(6)9-3/h3,5,8H,2H2,1H3	InChI=1S/C6H8O3/c1-3-6(8)4(7)2-5(6)9-3/h3,5,8H,2H2,1H3/t3-,5+,6+/m1/s1
