20
gdb 60433	2.49575	1.11594	0.9962	6.5976	72.05	-0.2395	0.0307	0.2702	1291.833	0.170015	-477.445016	-477.435259	-477.434315	-477.479993	35.715	
C	 0.4615014007	 1.6383332658	 0.5333108211	-0.39742
C	 0.361170922	 0.1685752455	 0.1144931025	 0.007648
N	 1.4070964944	-0.1248986533	-0.8804203294	-0.50057
H	 2.9360634483	 0.1096630942	 0.0812113989	 0.33627
H	 1.3334503874	-1.080800904	-1.2166019918	 0.245471
H	 1.317647337	 0.4886364486	-1.6844841309	 0.244458
C	 0.5047027132	-0.846126909	 1.2734080375	-0.083295
O	 1.8346703541	-1.1946342844	 1.5954681755	-0.239703
C	 2.5541157598	-0.3698178388	 2.4888275693	-0.214136
C	 3.712294361	 0.4148773223	 1.8511534505	 0.370087
O	 3.7287273025	 0.5176003285	 0.5253994153	-0.380731
O	 4.5524734967	 0.9168361078	 2.5537325313	-0.333531
H	 1.4596611824	 1.8908292013	 0.8980738428	 0.148019
H	 0.2499180895	 2.2936315835	-0.3187938065	 0.119349
H	-0.2704813413	 1.8665476941	 1.3133415456	 0.12235
H	-0.6516547652	 0.0091028883	-0.2917964901	 0.076633
H	-0.0383246419	-0.4772754207	 2.1557188834	 0.103259
H	 0.0338392149	-1.7888672408	 0.97005677	 0.109829
H	 1.8999808177	 0.3517897542	 2.9962374101	 0.123897
H	 3.0011093768	-1.002235613	 3.2627722751	 0.142117
62.0497	82.013	140.3824	152.4993	222.6773	246.3592	310.1882	324.6519	364.353	400.2332	440.9771	482.8814	568.9645	635.792	669.8894	781.5046	866.9511	886.4271	928.7962	944.131	961.5346	995.2119	1025.4468	1042.9074	1103.1219	1140.5084	1186.8847	1238.0441	1271.2119	1302.7492	1323.7814	1354.8682	1378.3356	1397.1234	1405.8111	1419.5699	1431.7529	1465.3026	1489.3547	1496.7927	1509.486	1647.2378	1847.2671	2955.3483	3002.8559	3021.6606	3042.6377	3057.8195	3082.4959	3104.8498	3138.452	3202.7751	3494.9272	3577.9786
CC([NH3+])COCC([O-])=O	C[C@@H](N)COCC(=O)O	
InChI=1S/C5H11NO3/c1-4(6)2-9-3-5(7)8/h4H,2-3,6H2,1H3,(H,7,8)	InChI=1S/C5H11NO3/c1-4(6)2-9-3-5(7)8/h4H,2-3,6H2,1H3,(H,7,8)/t4-/m1/s1
