18
gdb 121438	2.03469	1.09478	0.73603	3.5625	79.39	-0.246	-0.047	0.199	1505.6421	0.14634	-435.271526	-435.261055	-435.260111	-435.308095	35.791	
C	 0.1750676785	 1.4610377572	 0.0057132933	-0.320813
N	 0.0077116402	 0.025916216	 0.1241215901	-0.332086
C	 0.6801552174	-0.6814663135	 1.0815688698	 0.321871
N	 1.3847046587	-0.1179721622	 1.9830102079	-0.324081
C	 2.049643578	-0.8806976755	 3.0238360043	-0.182857
C	 3.4707717584	-0.331905048	 3.188614855	-0.040203
O	 3.4590240512	 1.052621416	 3.4632634352	-0.420461
C	 0.480713836	-2.1239865962	 0.9780851201	 0.231642
N	 0.3431141575	-3.2693146681	 0.9009898691	-0.330478
H	 1.2123291729	 1.7374608833	-0.2223290048	 0.136722
H	-0.4778400256	 1.8235495372	-0.7898727645	 0.132754
H	-0.1014639723	 1.9472076749	 0.9449387442	 0.154001
H	-0.3415437972	-0.4867975879	-0.6676137997	 0.266374
H	 1.5094014076	-0.7198073974	 3.9663054534	 0.119954
H	 2.0773302959	-1.9628341325	 2.8290439722	 0.111408
H	 3.964493516	-0.8279980154	 4.0308352475	 0.106434
H	 4.0509460342	-0.5590086195	 2.2785912939	 0.083118
H	 2.8360892426	 1.4321564014	 2.8303662929	 0.2867
40.9511	93.6475	111.0945	126.9396	141.1205	170.5557	200.6867	299.1597	330.9392	364.4602	379.5092	463.1892	526.7415	538.1177	628.0457	721.7771	758.8832	903.6144	926.8522	1055.9804	1087.8611	1091.9973	1118.4643	1153.9358	1205.0992	1225.6093	1264.87	1301.4029	1373.023	1387.2112	1439.7097	1455.0375	1472.8914	1479.4562	1507.2149	1509.0242	1541.8737	1715.5532	2346.3817	2965.6395	2995.5698	3024.2393	3045.943	3074.7959	3095.4344	3142.5507	3662.0157	3770.9086
CNC(=NCCO)C#N	CNC(=NCCO)C#N	
InChI=1S/C5H9N3O/c1-7-5(4-6)8-2-3-9/h9H,2-3H2,1H3,(H,7,8)	InChI=1S/C5H9N3O/c1-7-5(4-6)8-2-3-9/h9H,2-3H2,1H3,(H,7,8)
