22
gdb 70817	2.28808	1.67715	1.46534	1.8176	86.98	-0.2205	0.0849	0.3054	1080.5603	0.192418	-367.142731	-367.133535	-367.132591	-367.175643	36.086	
C	 0.0461615109	 1.4727351673	-0.0104827523	-0.521174
C	-0.0178461732	-0.0238945632	-0.0968520572	 0.33685
C	 0.5541281583	-0.9487302489	-1.1768324989	-0.357811
C	 0.0260954079	-1.8816817017	-0.081560178	 0.336825
C	 0.1607495576	-3.3719915161	 0.0293866985	-0.521173
N	 0.5622043815	-0.9303664911	 1.031774569	-0.217101
C	-0.8092187985	-0.9571533387	 1.6946311171	-0.248396
C	-1.2243813711	-0.9792380195	 0.2265538083	 0.244236
C	-2.5955763595	-1.0168400438	-0.3991509788	-0.528175
H	 1.0863636017	 1.8132737488	-0.038405033	 0.130643
H	-0.4844825587	 1.9301796181	-0.8527568649	 0.120368
H	-0.4065914606	 1.8434033582	 0.9150847827	 0.12224
H	 0.040763126	-0.9688150175	-2.1427382667	 0.089273
H	 1.6416522451	-0.9240237589	-1.301018489	 0.097557
H	 1.2159022586	-3.6633757761	 0.0067411936	 0.130642
H	-0.2744014951	-3.7483980822	 0.9610599355	 0.12224
H	-0.3472799347	-3.8677941265	-0.8050884354	 0.120367
H	-0.9876734508	-1.8525938883	 2.2999453566	 0.091902
H	-1.0299242775	-0.0611357001	 2.2849899743	 0.091923
H	-3.188500018	-0.1435583785	-0.104079979	 0.120416
H	-2.5355851394	-1.0249338939	-1.4934262861	 0.117929
H	-3.1470177004	-1.9117116675	-0.088726476	 0.12042
178.0442	184.4819	187.3606	199.5577	199.7137	233.193	264.6841	304.6182	434.0892	452.9301	490.0857	583.549	616.3133	664.8902	675.295	780.219	845.4438	856.7414	884.8667	912.9673	941.5828	1003.3408	1004.6714	1009.5919	1098.515	1107.5675	1133.6988	1153.4684	1160.616	1173.9744	1178.9221	1237.387	1253.6146	1279.047	1318.9667	1361.9042	1403.5995	1407.3034	1416.4851	1481.6233	1482.0558	1484.4671	1486.7385	1488.5467	1494.6415	1499.1941	1525.713	3021.2147	3028.6032	3030.1983	3034.794	3043.3081	3083.6776	3087.78	3089.114	3097.8777	3098.0338	3102.5722	3102.9689	3105.1095
CC12CC3(C)N1CC23C	C[C@@]12C[C@@]3(C)N1C[C@@]23C	
InChI=1S/C8H13N/c1-6-5-9-7(6,2)4-8(6,9)3/h4-5H2,1-3H3	InChI=1S/C8H13N/c1-6-5-9-7(6,2)4-8(6,9)3/h4-5H2,1-3H3/t6-,7-,8+
