19
gdb 26388	4.26833	0.9446	0.86622	1.728	78.86	-0.1977	0.0336	0.2313	1398.1778	0.159628	-419.247652	-419.238652	-419.237708	-419.281853	33.341	
C	-0.0513304273	 1.5499394648	 0.036044302	-0.399619
C	-0.0003931326	 0.0221321331	 0.0136066448	 0.067219
C	 0.6718610291	-0.5577171076	 1.2654165968	-0.388802
N	-1.3607346681	-0.4903888234	-0.1804152538	-0.401339
C	-1.5527576212	-1.7770799816	-0.58436527	 0.514001
N	-0.6888459305	-2.5967921517	-1.1098428012	-0.360249
C	-1.447363443	-3.7328134153	-1.3910770647	-0.108433
C	-2.7252887943	-3.5395400339	-1.0112428664	-0.058776
O	-2.8127986586	-2.2628287485	-0.4786777337	-0.205928
H	 0.9561142988	 1.964529034	 0.1299564511	 0.122909
H	-0.5063557568	 1.9406391928	-0.8779634397	 0.12666
H	-0.6366058476	 1.9106874725	 0.8912528651	 0.11032
H	 0.5637443379	-0.3070453138	-0.8643892068	 0.121865
H	 0.1332293358	-0.2599553621	 2.1728372953	 0.104318
H	 0.6949527477	-1.648837548	 1.2128951597	 0.141819
H	 1.7019279705	-0.1969861832	 1.3512199776	 0.115397
H	-2.064600208	-0.1435881263	 0.4556183205	 0.24436
H	-1.0044824931	-4.6056779102	-1.8444271998	 0.117321
H	-3.6342561387	-4.1134312119	-1.0228712669	 0.136955
57.9226	77.7868	139.6085	227.3563	257.1351	280.9045	316.9152	380.1429	428.6346	483.9652	500.6059	611.3058	685.9651	761.0999	789.7564	851.0066	859.7845	925.1367	931.8127	947.3838	960.264	1016.9279	1075.2919	1132.1463	1148.8104	1167.2634	1194.8766	1198.0101	1252.4332	1330.0106	1358.968	1397.0706	1399.9221	1418.8045	1485.2086	1487.4558	1495.82	1510.2259	1528.7599	1587.1496	1656.0622	3027.3686	3031.524	3068.6827	3095.1284	3105.8568	3124.0374	3127.0258	3260.213	3310.0944	3603.0473
CC(C)NC1=NC=CO1	CC(C)Nc1ncco1	
InChI=1S/C6H10N2O/c1-5(2)8-6-7-3-4-9-6/h3-5H,1-2H3,(H,7,8)	InChI=1S/C6H10N2O/c1-5(2)8-6-7-3-4-9-6/h3-5H,1-2H3,(H,7,8)
