23
gdb 114332	3.03832	1.01484	0.99204	1.1959	84.97	-0.2538	0.0753	0.3291	1353.9625	0.207015	-388.286504	-388.277282	-388.276338	-388.320668	35.569	
C	-0.0528308407	 1.599947475	 0.0447507932	-0.415885
C	 0.0636367692	 0.0920040246	 0.0526786896	 0.005936
C	 1.3129548345	-0.6698033075	-0.333799005	-0.059242
C	 2.6570392527	 0.0593789862	-0.3562731745	-0.271517
C	 3.131381333	 0.1063043465	 1.1207969096	 0.071173
C	 4.0099078674	 1.3042304639	 1.4427713869	-0.099371
O	 4.4309737849	 1.1941196031	 2.7958073446	-0.423568
C	 1.8430788328	 0.0075807246	 1.9817564227	-0.2404
C	 0.8140551165	-0.7010554905	 1.1013819296	-0.063947
H	 0.8578701417	 2.1008072086	 0.382015868	 0.117592
H	-0.2729695908	 1.9680929369	-0.9638125995	 0.113772
H	-0.8658975976	 1.9294180409	 0.7015897682	 0.115239
H	-0.8517966588	-0.3954895417	-0.2773739702	 0.076991
H	 1.195711839	-1.531515451	-0.9821285232	 0.075966
H	 3.3775943426	-0.4670866802	-0.988973272	 0.097502
H	 2.5656747772	 1.0714400975	-0.7719740743	 0.094038
H	 3.7269249847	-0.7948442844	 1.3122444142	 0.079567
H	 4.8743135997	 1.3310959692	 0.7588878704	 0.082392
H	 3.437634413	 2.2342191832	 1.2807631396	 0.08043
H	 4.9609733422	 1.9669910405	 3.0107584773	 0.285104
H	 2.026686765	-0.5492846701	 2.9031655011	 0.106707
H	 1.5064311168	 1.0047611173	 2.29105996	 0.095735
H	 0.3304770452	-1.5871692425	 1.4985376739	 0.075787
52.3086	112.8852	168.0277	195.4409	254.2251	264.957	283.8865	393.3003	412.5835	439.7807	536.2925	591.063	685.8023	755.5526	756.8343	829.6223	878.0497	892.702	926.4674	965.9806	981.8724	1022.5623	1027.4054	1057.9288	1076.0759	1086.5901	1100.7417	1115.8278	1139.9234	1149.7017	1193.5636	1213.9474	1233.8777	1251.5743	1279.5931	1293.3558	1307.738	1331.2268	1350.6359	1361.8851	1378.3668	1418.2534	1436.7655	1458.3355	1484.6591	1498.7605	1507.5491	1511.4782	1519.6043	2947.2875	2976.6602	3020.2308	3027.4721	3030.559	3038.0058	3077.9129	3084.133	3098.3979	3108.084	3124.4661	3154.0624	3165.6341	3830.5133
CC1C2CC(CO)CC12	C[C@H]1[C@H]2C[C@@H](CO)C[C@@H]12	
InChI=1S/C8H14O/c1-5-7-2-6(4-9)3-8(5)7/h5-9H,2-4H2,1H3	InChI=1S/C8H14O/c1-5-7-2-6(4-9)3-8(5)7/h5-9H,2-4H2,1H3/t5-,6+,7+,8-
