21
gdb 57958	3.62439	0.88061	0.80336	1.7623	80.16	-0.263	0.0166	0.2796	1538.3695	0.180038	-424.254142	-424.243878	-424.242934	-424.291094	36.559	
C	-0.009186895	 1.4702018586	 0.1482692749	-0.391134
C	 0.0195732912	-0.0702553745	 0.0823654544	-0.086462
C	 0.556718276	-0.5784290227	-1.2571296969	-0.38315
C	 0.854456164	-0.6056475985	 1.2354217449	 0.448829
O	 1.9701974034	-1.0515397214	 1.150982802	-0.359388
O	 0.1698544981	-0.5063231524	 2.4025526366	-0.255887
C	 0.8538000313	-0.9248625333	 3.5701857006	 0.15116
C	 1.3055454152	 0.1324550498	 4.5317161177	-0.280559
C	 0.1040425089	-0.7393899596	 4.8469839134	-0.298923
H	 0.9975988836	 1.8821919295	 0.0218219194	 0.127876
H	-0.6396447133	 1.8698350099	-0.651569292	 0.119557
H	-0.4063564975	 1.8173704654	 1.1053428393	 0.126848
H	-1.0037851859	-0.4311268951	 0.2372855117	 0.099428
H	 1.5911990137	-0.2571577957	-1.4042342051	 0.133764
H	 0.5418683324	-1.6706806226	-1.3039352949	 0.121909
H	-0.0501526765	-0.1900174662	-2.0805228702	 0.10829
H	 1.4715082017	-1.7993314238	 3.4108469521	 0.123204
H	 2.2325468943	-0.0273069589	 5.0705487224	 0.123176
H	 1.1081652034	 1.1625065356	 4.2576227942	 0.123487
H	-0.8737302582	-0.276553115	 4.7772902864	 0.126766
H	 0.1915993393	-1.504643529	 5.6097640792	 0.121208
25.8413	41.3682	81.2937	145.0047	199.2877	228.8473	266.2575	298.7631	309.0791	376.2768	423.7426	474.5124	642.0366	752.9796	756.2799	813.3848	831.9996	857.6713	911.9583	934.3674	972.6043	974.5942	998.9116	1055.3859	1074.9009	1115.1431	1117.4549	1130.1765	1172.0408	1187.0554	1192.4329	1211.7347	1241.4314	1328.5659	1366.848	1392.5405	1403.4444	1420.1024	1455.6708	1485.8823	1488.3071	1497.9322	1499.786	1512.65	1819.9446	3038.0847	3044.4221	3045.9342	3108.1855	3115.9175	3123.1513	3125.5811	3139.6228	3142.7465	3197.5683	3222.8077	3237.1244
CC(C)C(=O)OC1CC1	CC(C)C(=O)OC1CC1	
InChI=1S/C7H12O2/c1-5(2)7(8)9-6-3-4-6/h5-6H,3-4H2,1-2H3	InChI=1S/C7H12O2/c1-5(2)7(8)9-6-3-4-6/h5-6H,3-4H2,1-2H3
