19
gdb 88553	3.62141	1.09254	1.06791	2.0301	75.47	-0.2334	0.0698	0.3032	1212.075	0.158109	-422.95839	-422.94997	-422.949025	-422.991804	31.776	
C	 0.3460510273	 1.4518142316	-0.4671413388	-0.431833
C	 0.0150827164	 0.0535584816	-0.0150813089	 0.091371
O	 1.093666759	-0.8801980374	 0.1226021635	-0.258599
C	 0.3729891702	-0.511160934	 1.3030343058	-0.103585
C	 1.1222218593	 0.2126075683	 2.3614820051	 0.283819
C	 2.5172493017	 0.7854329024	 2.2096088252	-0.346551
C	 2.2561650744	-0.2420861484	 3.2633053866	 0.044436
O	 1.6763216786	 0.3495511885	 4.4283604253	-0.286304
C	 0.5097610365	 0.7424799257	 3.6594571753	-0.138305
H	 1.1838519415	 1.8698062989	 0.0920155076	 0.140641
H	 0.6033711117	 1.4543011314	-1.5315750978	 0.130015
H	-0.5241310266	 2.1039715665	-0.3341270701	 0.122011
H	-0.8626954128	-0.3821597451	-0.4979695213	 0.088875
H	-0.2760824701	-1.3037193769	 1.68498059	 0.088995
H	 3.0327641714	 0.4225423712	 1.3265432433	 0.136377
H	 2.7368689238	 1.8089650036	 2.5032101325	 0.111852
H	 2.773883019	-1.1880702342	 3.3720584656	 0.112908
H	 0.3052964393	 1.8179388968	 3.7239633469	 0.106087
H	-0.3724508805	 0.1785944995	 3.9864706545	 0.10779
57.476	133.6609	156.2155	198.6229	244.0549	343.3035	387.905	404.2916	470.1071	517.3266	709.0981	761.5866	786.3674	837.0681	864.4009	912.5133	935.0487	978.211	989.0558	995.8569	1012.0049	1043.1717	1061.9649	1087.5845	1097.8121	1118.6734	1158.2281	1163.2041	1174.1736	1214.8125	1271.9396	1289.2607	1321.7193	1386.1635	1405.6329	1424.472	1464.8291	1482.9128	1490.3606	1504.6462	1516.0895	3016.3929	3040.2718	3063.9664	3067.2164	3083.9185	3098.6356	3111.8576	3147.5995	3183.2838	3216.7909
CC1OC1C12CC1OC2	C[C@H]1O[C@H]1[C@]12C[C@H]1OC2	
InChI=1S/C7H10O2/c1-4-6(9-4)7-2-5(7)8-3-7/h4-6H,2-3H2,1H3	InChI=1S/C7H10O2/c1-4-6(9-4)7-2-5(7)8-3-7/h4-6H,2-3H2,1H3/t4-,5-,6-,7+/m1/s1
