19
gdb 47139	3.24541	1.28671	1.00548	2.9489	84.61	-0.2366	-0.0381	0.1985	1214.985	0.160332	-385.923597	-385.915415	-385.914471	-385.956828	31.124	
O	-0.0735783328	 0.0245225295	-0.3356305563	-0.34677
C	-0.0448085668	 1.2242440178	-0.161933187	 0.321122
C	-1.2736057841	 2.1260865709	 0.0048998362	-0.317268
C	-0.7132080669	 3.5465309178	 0.1952444455	-0.266419
C	 0.7792670824	 3.3568764653	 0.1243897756	-0.179345
C	 1.169140985	 2.0850314038	-0.0719244943	 0.258252
C	 2.5535623036	 1.5918062905	-0.1838075858	-0.114196
C	 2.9737610521	 0.2369833381	 0.3643933725	-0.2698
C	 2.9307767909	 0.4523979351	-1.117659893	-0.269803
H	-1.9129957275	 2.0291496712	-0.8775050693	 0.133738
H	-1.8626063648	 1.7767139916	 0.8580552296	 0.133739
H	-1.0606236536	 4.2428177546	-0.5782379831	 0.118637
H	-1.0104268691	 3.990985339	 1.1533193836	 0.118635
H	 1.4626925772	 4.194657885	 0.226437017	 0.103252
H	 3.2981186716	 2.3774209929	-0.0912163962	 0.079479
H	 3.9368084349	 0.1872964727	 0.8603580499	 0.108894
H	 2.2002192211	-0.3881179879	 0.7911399671	 0.139477
H	 2.1291403816	-0.0318596095	-1.6599711118	 0.139487
H	 3.8636884052	 0.553797612	-1.6610793501	 0.108891
73.5802	86.0243	175.1869	186.1649	279.3365	361.164	436.9878	457.2143	619.1173	639.7526	670.2972	767.7703	788.8724	806.4345	831.6903	864.5357	897.7371	934.4027	937.666	1001.4009	1023.31	1036.0336	1065.9366	1093.0589	1130.8687	1136.1171	1151.1388	1199.1735	1204.2937	1230.0677	1235.5476	1277.8516	1322.4747	1359.789	1400.039	1449.803	1458.2035	1486.1103	1492.8607	1680.2952	1792.7559	3025.4046	3047.842	3065.2074	3104.4546	3139.5411	3142.6613	3148.3961	3177.814	3236.7034	3248.6447
O=C1CCC=C1C1CC1	O=C1CCC=C1C1CC1	
InChI=1S/C8H10O/c9-8-3-1-2-7(8)6-4-5-6/h2,6H,1,3-5H2	InChI=1S/C8H10O/c9-8-3-1-2-7(8)6-4-5-6/h2,6H,1,3-5H2
