20
gdb 61795	2.03929	1.06967	0.8398	3.918	77.58	-0.2472	-0.0333	0.2139	1438.3934	0.167839	-440.318105	-440.307406	-440.306462	-440.355736	36.504	
C	-0.0740299124	 1.5440261389	-0.0055557465	-0.397037
C	-0.0524597181	 0.0088309202	-0.0117446517	-0.0039
C	 0.8685224113	-0.5308926499	 1.11052582	-0.282008
C	 1.0839488631	-2.0279804459	 1.0483231264	 0.149717
O	 2.166329062	-2.5509224212	 0.9721604641	-0.233868
N	-1.3966765701	-0.5656497762	 0.0371422338	-0.03629
C	-2.2883663473	-0.2679912767	 1.1484041205	-0.356169
C	-1.8707298793	-1.321497087	-1.0014770766	 0.152394
O	-2.9803014429	-1.8031428825	-1.0766043936	-0.33974
H	 0.9313497389	 1.9346188889	-0.186390662	 0.130079
H	-0.7372794369	 1.9211994965	-0.7891389665	 0.130395
H	-0.4150220555	 1.9401438748	 0.9558004213	 0.127164
H	 0.3703469439	-0.3152050724	-0.9700139002	 0.107635
H	 1.8461384146	-0.0449534045	 1.0529142184	 0.12792
H	 0.4316646901	-0.2860436918	 2.0883619417	 0.123664
H	 0.1552594033	-2.6395428816	 1.0765021343	 0.091216
H	-2.51610494	 0.8015972099	 1.2073603207	 0.130955
H	-3.2129493185	-0.8181076928	 0.9738994379	 0.175257
H	-1.8578729127	-0.5851722518	 2.1040288148	 0.123924
H	-1.1058728335	-1.4562414449	-1.7911403968	 0.078691
32.6622	43.7166	72.6094	95.6951	176.2618	213.2149	240.2157	271.7047	316.4403	339.7431	364.7981	431.271	485.4662	533.4021	642.0405	807.4548	845.6627	917.0073	954.167	993.069	1027.8258	1051.5955	1104.9865	1109.5879	1147.8603	1158.3565	1216.6027	1265.9702	1294.7887	1337.3464	1351.2232	1408.2549	1429.2902	1433.4544	1438.9297	1452.2782	1461.6699	1491.699	1497.6458	1506.8479	1517.6063	1796.1986	1831.2714	2892.6849	2938.6555	3024.7178	3034.443	3041.525	3045.1376	3087.1504	3105.3914	3116.519	3121.6671	3157.1161
CC(CC=O)N(C)C=O	C[C@@H](CC=O)N(C)C=O	
InChI=1S/C6H11NO2/c1-6(3-4-8)7(2)5-9/h4-6H,3H2,1-2H3	InChI=1S/C6H11NO2/c1-6(3-4-8)7(2)5-9/h4-6H,3H2,1-2H3/t6-/m0/s1
