21
gdb 119018	1.70926	1.36853	0.87216	4.6135	82.73	-0.2585	0.0334	0.2919	1409.1426	0.181919	-383.266909	-383.256846	-383.255902	-383.303037	36.201	
C	 1.6274955358	 1.7742228259	 1.0227480557	-0.383268
C	 0.8825114001	 0.4694359204	 0.7266555159	-0.176126
C	 1.4528806433	-0.7140441052	 1.525713304	-0.269608
C	 0.7181838925	-2.0392971852	 1.3728501564	 0.322206
C	 0.8813917656	-2.7928770327	 0.0498445163	-0.392007
C	 0.2558321508	-2.1516334514	-1.1081593203	 0.286665
N	-0.2333471579	-1.662653276	-2.0339591914	-0.320662
C	 0.5280384838	-2.8765228536	 2.5891857141	-0.288133
N	-0.6183020693	-2.1951391321	 1.9631842308	-0.33392
H	 2.6887639638	 1.6926129024	 0.762236195	 0.115455
H	 1.2083579985	 2.6061323162	 0.4493656833	 0.120396
H	 1.5683325199	 2.0371484377	 2.0851991209	 0.111003
H	-0.1817077141	 0.5897657942	 0.9654896475	 0.101934
H	 0.9261912582	 0.2591865577	-0.3456634175	 0.132907
H	 2.5084678976	-0.8591494949	 1.2569406406	 0.101334
H	 1.4497262351	-0.4506324267	 2.591787302	 0.094635
H	 1.9465336751	-2.9377433118	-0.1670648755	 0.147703
H	 0.4347761243	-3.7865180968	 0.1529125073	 0.158486
H	 0.5103452409	-3.9610251419	 2.516248042	 0.118409
H	 0.9179911095	-2.4960564978	 3.5294401911	 0.117204
H	-0.8686357733	-1.3638437985	 2.4929380718	 0.235386
32.4769	80.2777	93.7394	131.8624	184.4858	239.531	290.7975	343.9276	352.8545	387.7147	392.1942	480.1007	550.1443	739.8	762.9534	857.6741	872.8209	881.2118	902.5732	944.6539	960.4575	975.4292	995.1455	1042.1387	1066.7654	1114.0857	1121.4013	1144.0687	1218.3003	1253.6771	1256.4087	1311.4558	1317.3671	1334.9611	1360.1675	1389.1782	1410.6731	1416.4613	1449.7024	1477.7936	1491.3709	1499.4339	1510.3232	1516.0323	2360.1881	3006.3703	3028.1183	3032.2377	3042.401	3044.9802	3081.4286	3092.2271	3104.6067	3105.3542	3109.0231	3189.6134	3501.9685
CCCC1(CC#N)CN1	CCC[C@@]1(CC#N)CN1	
InChI=1S/C7H12N2/c1-2-3-7(4-5-8)6-9-7/h9H,2-4,6H2,1H3	InChI=1S/C7H12N2/c1-2-3-7(4-5-8)6-9-7/h9H,2-4,6H2,1H3/t7-/m1/s1
