17
gdb 46145	4.58871	0.99416	0.84701	3.9391	74.9	-0.2643	0.0061	0.2704	1303.3578	0.13607	-421.836918	-421.828562	-421.827618	-421.870228	31.18	
O	 0.0390307279	 0.0473644861	 0.5509014012	-0.319032
C	-0.0203200736	 1.1380286468	 0.054851392	 0.411378
C	-1.3315500015	 1.8959414127	-0.111116594	-0.352031
C	-1.3199168773	 3.0307696119	-1.1376890394	-0.218396
C	-0.0348181283	 3.8581130403	-0.9568457668	-0.200051
C	 1.1650628311	 2.9174459436	-1.1417172888	-0.066265
O	 1.1338877039	 1.7680431904	-0.28655341	-0.230573
C	 0.059645133	 4.9741654173	-1.8886552719	 0.292133
C	 0.1477131241	 5.8756960708	-2.6784194427	-0.421791
H	-2.1048909103	 1.1545861372	-0.322780743	 0.141184
H	-1.5586590267	 2.299266298	 0.884855772	 0.14327
H	-1.3409122555	 2.6316477768	-2.1583709695	 0.120524
H	-2.2058292302	 3.6611434226	-1.0241425392	 0.119921
H	-0.0099452229	 4.2467740312	 0.0709986132	 0.116644
H	 1.2057244693	 2.580189897	-2.1847514848	 0.125459
H	 2.1029649105	 3.4270634104	-0.9126568332	 0.135722
H	 0.2215991665	 6.6814052669	-3.3665941851	 0.201904
66.7451	135.0399	149.4517	162.0736	302.2397	377.7854	426.2969	463.5164	502.1714	534.5925	581.8407	643.5358	654.8892	689.9985	761.6139	821.2551	918.2151	953.8775	997.3088	1031.3724	1090.0718	1107.7061	1109.8275	1186.1148	1197.8732	1254.8389	1288.2033	1314.4742	1335.8358	1353.2965	1376.0535	1426.374	1460.2564	1496.9532	1515.0643	1847.3661	2239.9018	3009.4328	3032.7766	3036.8194	3047.7396	3096.4186	3113.6791	3114.223	3502.7545
O=C1CCC(CO1)C#C	O=C1CC[C@@H](CO1)C#C	
InChI=1S/C7H8O2/c1-2-6-3-4-7(8)9-5-6/h1,6H,3-5H2	InChI=1S/C7H8O2/c1-2-6-3-4-7(8)9-5-6/h1,6H,3-5H2/t6-/m0/s1
