17
gdb 16559	3.13979	2.67505	2.15068	2.1721	66.45	-0.2436	0.0259	0.2695	721.9737	0.146774	-363.892222	-363.886319	-363.885375	-363.922011	24.169	
C	-0.0344381391	 1.5437132978	-0.0146056373	-0.22088
C	 1.4611633144	 1.9990017754	-0.0213199185	-0.206878
C	 2.2503047594	 0.6787217968	 0.1137466367	 0.022594
C	 1.3639614555	-0.3176091006	-0.6531759252	-0.249501
C	 0.0293703362	 0.0056927417	 0.0221957903	 0.119248
O	 0.0831993631	-0.455612628	 1.3985842333	-0.242421
C	 1.2750254505	-0.2460744092	 2.0098031162	 0.118075
N	 2.3237369863	 0.2775198614	 1.5305170076	-0.267098
H	-0.596002645	 1.9221348683	 0.84248019	 0.116253
H	-0.5560754429	 1.8743105687	-0.9179312016	 0.104093
H	 1.7149442718	 2.4993145417	-0.9616399951	 0.097448
H	 1.6978073436	 2.6845576226	 0.7947711806	 0.114097
H	 3.2694529077	 0.7553746984	-0.2703589519	 0.072777
H	 1.3181388259	-0.0836412332	-1.7218631489	 0.101456
H	 1.6686259522	-1.3594404909	-0.5286830394	 0.112402
H	-0.8459047832	-0.4872213207	-0.4018835546	 0.084807
H	 1.2397359237	-0.6035696403	 3.0372701277	 0.123528
140.2253	320.5137	373.3382	422.6479	457.6739	597.1185	693.5274	753.7299	781.1406	819.0389	850.797	894.0824	908.671	930.6839	948.2617	962.6707	970.1279	1031.4003	1069.617	1083.3019	1142.8923	1168.9358	1207.5264	1232.9419	1248.9326	1263.5095	1305.5975	1338.9486	1344.8451	1354.1599	1374.1037	1403.5395	1476.433	1481.3477	1501.2651	1713.3987	3047.8489	3053.1683	3061.9865	3087.8284	3102.0904	3111.3648	3114.1305	3120.7156	3160.1163
C1CC2CC1OC=N2	C1C[C@@H]2C[C@H]1OC=N2	
InChI=1S/C6H9NO/c1-2-6-3-5(1)7-4-8-6/h4-6H,1-3H2	InChI=1S/C6H9NO/c1-2-6-3-5(1)7-4-8-6/h4-6H,1-3H2/t5-,6+/m1/s1
