18
gdb 66799	3.37308	1.9831	1.98021	1.6737	76.86	-0.2057	0.0543	0.26	823.283	0.149566	-364.688247	-364.68219	-364.681246	-364.718217	26.189	
C	-0.0105475634	 1.5299258739	 0.0238683538	-0.521999
C	-0.0265252375	 0.0349339615	-0.0456189976	 0.393741
C	 0.6344764309	-0.8653532609	-1.1421320514	-0.129602
C	-0.6121020923	-1.8243491016	-1.084974126	-0.060156
C	 0.0806784348	-2.656900148	 0.058143342	-0.067499
C	 1.2894013633	-1.6733039646	 0.0170162208	-0.009062
N	 0.6530884472	-0.7699556809	 1.0762128888	-0.218869
C	-0.5584359459	-1.7046316341	 1.1140248577	-0.009055
C	-1.2827199146	-0.897813071	-0.0039092793	-0.129611
H	 1.0190060042	 1.905016875	 0.0350713126	 0.123865
H	-0.5272749703	 1.9690990988	-0.8374123156	 0.114776
H	-0.5056828063	 1.8795364073	 0.9367850194	 0.123821
H	 1.1249338268	-0.5161601815	-2.0499623727	 0.062212
H	-1.1186155803	-2.2462221864	-1.9501597489	 0.064965
H	 0.1291166999	-3.7432106958	 0.1087126711	 0.06463
H	 2.3435523878	-1.9353457073	 0.1126277421	 0.067815
H	-0.9723449172	-1.9915645925	 2.0811805017	 0.067816
H	-2.3229703471	-0.5745201217	-0.0029749383	 0.062213
218.7032	245.4442	255.5909	546.3648	634.9043	643.0255	681.6915	733.299	808.6281	836.3484	844.1031	845.4005	853.8638	860.1029	883.1137	883.4154	890.3909	927.1497	964.8767	968.5228	1036.8386	1097.2548	1101.1705	1121.9921	1127.6371	1153.7691	1153.9876	1159.9077	1174.4861	1178.1799	1216.789	1224.0796	1251.4894	1264.2452	1275.9866	1339.5005	1408.5794	1478.4622	1483.6784	3021.138	3091.597	3093.1678	3093.731	3094.3376	3113.2158	3113.7909	3121.171	3136.6573
CC12C3C4C5C3N1C5C24	C[C@@]12[C@@H]3[C@H]4[C@H]5[C@@H]3N1[C@H]5[C@@H]24	
InChI=1S/C8H9N/c1-8-4-2-3-6(4)9(8)7(3)5(2)8/h2-7H,1H3	InChI=1S/C8H9N/c1-8-4-2-3-6(4)9(8)7(3)5(2)8/h2-7H,1H3/t2-,3+,4-,5+,6+,7-,8+
