16
gdb 16121	4.39761	1.63988	1.43109	5.3602	68.92	-0.2705	0.023	0.2934	891.1909	0.133405	-342.791761	-342.785006	-342.784061	-342.822566	26.131	
N	-0.0106967067	-1.1244892322	 0.3842590494	-0.341824
C	 0.0119813548	 0.0159199248	 0.1952988301	 0.245344
C	 0.0267170774	 1.4288289244	-0.0921033122	 0.181607
C	-0.8326372222	 1.9433334203	-1.2461699513	-0.278177
C	-0.2748868199	 3.354905616	-1.5446036348	-0.25036
C	 1.2122313672	 3.3074330813	-1.1192906933	-0.228881
C	 1.2658561934	 2.2730717434	-0.0081227443	-0.047144
N	 0.2643357218	 2.3234617794	 1.0568178195	-0.351135
H	-0.6992880296	 1.2760293017	-2.1044150699	 0.128493
H	-1.8994303724	 1.9485472077	-1.0026225449	 0.121809
H	-0.3976210166	 3.6292434704	-2.5943432428	 0.118322
H	-0.815670502	 4.1099574804	-0.9656217798	 0.113073
H	 1.8465402023	 2.9670572869	-1.9458145183	 0.119332
H	 1.5910710393	 4.2848654946	-0.8031496909	 0.11552
H	 2.2202238159	 1.8498577796	 0.2883743816	 0.116324
H	-0.3256439925	 3.1501574213	 0.9929065719	 0.237696
145.1953	164.8344	234.751	317.9837	404.4038	494.0594	552.3321	588.9887	647.7275	685.727	799.9847	861.5782	873.6655	900.1949	932.8979	969.1936	1022.0563	1048.0471	1051.1165	1117.8217	1145.2685	1180.1877	1212.3181	1250.1352	1272.9909	1307.5374	1320.454	1338.4028	1343.7919	1419.6562	1487.7214	1496.019	1512.4857	2358.4313	3042.6255	3050.642	3055.4629	3083.7608	3092.0216	3112.847	3169.5321	3493.2198
N#CC12CCCC1N2	N#C[C@]12CCC[C@H]1N2	
InChI=1S/C6H8N2/c7-4-6-3-1-2-5(6)8-6/h5,8H,1-3H2	InChI=1S/C6H8N2/c7-4-6-3-1-2-5(6)8-6/h5,8H,1-3H2/t5-,6-/m1/s1
