19
gdb 92244	2.6109	1.72523	1.32386	1.1527	74.42	-0.231	0.0555	0.2864	1026.7904	0.159406	-422.966816	-422.959143	-422.958199	-422.998818	30.282	
C	-0.2137039483	 1.5713577857	-0.0176822634	-0.418312
C	 0.0375057944	 0.0713088724	 0.0199948595	-0.07909
C	 1.1956383538	-0.5550916359	-0.845776897	-0.272734
C	 1.6237321824	-1.4509031817	 0.3574732827	 0.031542
O	 2.8229487658	-1.0283467349	 1.0543681738	-0.304951
C	 2.0502564809	-0.1207706799	 1.8622687572	-0.012663
C	 1.4200618524	-0.7112460285	 3.1470365094	-0.114779
O	 0.1442220782	-0.929523978	 2.4721969141	-0.336747
C	 0.7130363879	-0.552348824	 1.2317652359	 0.428345
H	 0.7092231861	 2.1299956927	 0.1735929464	 0.114119
H	-0.5954306307	 1.8839312079	-0.995164166	 0.119744
H	-0.9495212592	 1.8657393342	 0.7380546702	 0.126564
H	-0.8929570906	-0.4731719933	-0.1825136455	 0.089265
H	 0.8727659285	-1.0903364918	-1.7402315077	 0.109356
H	 1.9760367214	 0.1601252735	-1.1159244953	 0.114905
H	 1.5514612565	-2.5336961967	 0.244085586	 0.087364
H	 2.4705302349	 0.8857525644	 1.9101907604	 0.090288
H	 1.8815999442	-1.6455661871	 3.4822695999	 0.117151
H	 1.3031700313	-0.0198057789	 3.9883323394	 0.110633
117.991	152.0372	210.4957	238.4276	326.9368	393.014	435.9624	484.7863	530.2837	629.852	722.0632	811.7723	827.8672	848.8288	891.5737	913.4861	944.3061	970.7762	995.3576	1005.8639	1041.7379	1073.4146	1104.0334	1119.0878	1126.6995	1138.1685	1162.3957	1176.02	1208.3526	1244.4212	1276.8572	1293.0946	1304.115	1336.1248	1362.5771	1383.0193	1409.408	1473.7551	1495.8003	1497.2016	1500.7546	3029.6139	3034.2644	3034.6509	3071.9058	3087.6834	3097.3781	3098.9876	3101.3897	3102.9746	3133.5955
CC1CC2OC3COC123	C[C@H]1C[C@H]2O[C@@H]3CO[C@]123	
InChI=1S/C7H10O2/c1-4-2-5-7(4)6(9-5)3-8-7/h4-6H,2-3H2,1H3	InChI=1S/C7H10O2/c1-4-2-5-7(4)6(9-5)3-8-7/h4-6H,2-3H2,1H3/t4-,5+,6+,7+/m0/s1
