17
gdb 28446	3.0935	1.3878	0.96449	2.3133	80.89	-0.198	0.0001	0.1981	1183.202	0.137983	-418.096147	-418.088032	-418.087088	-418.128331	31.963	
C	-0.1040087614	 1.5290486618	 0.0116947646	-0.520074
C	-0.0264929849	 0.0262944567	-0.0249263501	 0.226709
C	-0.0223512238	-0.6972769376	-1.213197405	-0.133836
C	 0.0312733647	-2.0860126691	-1.2195955415	-0.242637
C	 0.0831673541	-2.7139778482	 0.0223533104	 0.428419
O	 0.1359912827	-4.0643022324	 0.0775032098	-0.423948
N	 0.0907247327	-2.0665623462	 1.1820157685	-0.434987
C	 0.0327830314	-0.7289971767	 1.1642551265	 0.300254
N	-0.0187976936	-0.1127071095	 2.4022858724	-0.565167
H	 0.7931597071	 1.9822626701	 0.4574422134	 0.118527
H	-0.2018361334	 1.9393263196	-0.99673159	 0.125643
H	-0.9626613527	 1.8774085014	 0.599237369	 0.133126
H	-0.0664771032	-0.1594075055	-2.1563350882	 0.095147
H	 0.0333573655	-2.6673805532	-2.1316344575	 0.099709
H	 0.1627538463	-4.2875749268	 1.0177480371	 0.291922
H	 0.2620839317	-0.7136020945	 3.1628782867	 0.250947
H	 0.3501242468	 0.8232611701	 2.4597331039	 0.250247
129.4743	171.3981	237.241	292.7959	318.8843	336.8613	405.3249	458.3923	483.1651	516.0963	520.4858	565.2996	599.9253	708.0972	754.2047	767.4793	792.2051	822.305	961.6956	980.8632	1010.3224	1065.6397	1096.225	1156.8736	1214.2894	1230.4326	1303.6041	1355.098	1385.5719	1415.2931	1473.5933	1483.3788	1510.697	1513.1786	1631.9503	1646.0066	1657.3503	3001.3231	3051.0403	3109.6583	3167.5507	3222.4675	3578.0731	3691.5339	3774.3788
CC1=CC=C(O)N=C1N	Cc1ccc(O)nc1N	
InChI=1S/C6H8N2O/c1-4-2-3-5(9)8-6(4)7/h2-3H,1H3,(H3,7,8,9)	InChI=1S/C6H8N2O/c1-4-2-3-5(9)8-6(4)7/h2-3H,1H3,(H3,7,8,9)
