20
gdb 65978	2.43319	1.38974	1.29201	3.3745	79.49	-0.2349	-0.0196	0.2153	1123.5055	0.169265	-403.12199	-403.112968	-403.112024	-403.155809	34.103	
C	-0.157447472	 1.4115370026	-0.022850498	-0.424801
C	 0.0361482306	-0.109406883	-0.0324686173	 0.207929
C	 1.1821421683	-0.5469447576	-1.0302832261	-0.295012
C	 2.1813408762	-0.6708080964	 0.1564951907	-0.346126
C	 0.9816926908	-0.5616582081	 1.1123369827	 0.384014
O	 0.8084491203	-0.8324638085	 2.2633498584	-0.298231
N	-1.2737498351	-0.7320917942	-0.0158500093	-0.09814
C	-1.9164535006	-1.0698343743	-1.2805020907	-0.228937
C	-1.434038583	-2.1364865389	-0.3575385938	-0.231355
H	 0.7983848396	 1.9411404854	 0.0364689373	 0.114703
H	-0.662196047	 1.7251523732	-0.9429353108	 0.121785
H	-0.7758276479	 1.7010364939	 0.8298997626	 0.142772
H	 0.9968264253	-1.5088336739	-1.512360312	 0.112523
H	 1.4316935656	 0.1864924302	-1.7983453473	 0.105565
H	 2.7589699163	-1.5944405184	 0.2403905947	 0.130277
H	 2.8685827603	 0.1752751023	 0.251643343	 0.133632
H	-2.974513763	-0.8338973645	-1.3533739549	 0.120893
H	-1.3524496919	-0.9238923315	-2.2003802908	 0.11305
H	-0.566506753	-2.7127331218	-0.672796012	 0.11098
H	-2.1327421897	-2.6850176665	 0.2673463237	 0.124478
71.3457	92.2561	149.0317	220.9922	236.2586	261.7855	320.9856	363.5694	446.3722	490.5508	561.616	596.4224	713.2653	758.5011	801.3982	847.3508	866.708	904.7881	914.7744	952.4637	999.5515	1017.0058	1043.5353	1067.3947	1112.5454	1120.242	1130.187	1162.1598	1173.4743	1186.2077	1202.2653	1220.014	1237.0302	1272.4171	1338.6214	1400.3372	1442.6406	1478.8432	1484.4899	1493.2594	1497.8275	1522.6291	1893.2365	3035.9791	3063.4236	3079.868	3095.9571	3103.6155	3104.7918	3114.389	3129.7147	3134.9423	3177.3262	3192.1959
CC1(CCC1=O)N1CC1	C[C@]1(CCC1=O)N1CC1	
InChI=1S/C7H11NO/c1-7(8-4-5-8)3-2-6(7)9/h2-5H2,1H3	InChI=1S/C7H11NO/c1-7(8-4-5-8)3-2-6(7)9/h2-5H2,1H3/t7-/m1/s1
