19
gdb 20134	5.52272	1.38172	1.23186	0.8051	76.21	-0.2299	0.0911	0.321	1027.481	0.166559	-327.85986	-327.852702	-327.851758	-327.891351	28.08	
C	 0.1371644679	 1.4972686189	 0.0809276528	-0.285517
C	 1.440300766	 0.7528719545	-0.0018379854	-0.029393
C	 1.7250463562	 0.0425735975	 1.3262814704	-0.256432
C	 0.3602480772	-0.7119375717	 1.1973528159	 0.067114
C	 0.1108201842	 0.0097563887	-0.1333954797	-0.052221
N	 0.5488695912	-2.1426029266	 1.0314545899	-0.066886
C	 0.4531660013	-2.9454937436	 2.2471227453	-0.225057
C	-0.6352434761	-2.9735221971	 1.2314796308	-0.226853
H	-0.1944771512	 1.9256675072	 1.0253044218	 0.100008
H	-0.1184455227	 2.0944265505	-0.7886901553	 0.109619
H	 2.1751350396	 0.9739899307	-0.7660901117	 0.082164
H	 2.5487496035	-0.6707001951	 1.2624494077	 0.114865
H	 1.8636829876	 0.6829946656	 2.2039502069	 0.087379
H	-0.3811313286	-0.4872738112	 1.9861050601	 0.044587
H	-0.3423492095	-0.4476920266	-1.0042091656	 0.086562
H	 1.1559946745	-3.7696430267	 2.3278012297	 0.115206
H	 0.244334138	-2.4303659727	 3.1836428645	 0.109311
H	-1.5694079995	-2.4780480345	 1.4919131692	 0.110216
H	-0.7406073796	-3.8181135978	 0.5566456327	 0.115326
90.139	136.9023	195.9995	314.4455	384.1812	417.3122	478.2249	709.7362	747.4854	786.5119	819.9805	843.4596	901.8098	905.1632	928.8249	956.5037	964.9651	997.2045	1031.7066	1052.9091	1062.7688	1081.0456	1086.9633	1096.636	1112.8486	1116.912	1158.9653	1174.6538	1197.9617	1219.0814	1245.9193	1256.3162	1302.8304	1322.3153	1345.1782	1385.464	1473.7127	1491.9068	1494.9722	1518.8018	2918.1647	3043.2743	3093.5123	3097.6971	3097.9767	3119.2994	3176.3923	3179.6905	3186.1936	3190.6317	3199.55
C1C2CC(C12)N1CC1	C1[C@H]2C[C@@H]([C@@H]12)N1CC1	
InChI=1S/C7H11N/c1-2-8(1)7-4-5-3-6(5)7/h5-7H,1-4H2	InChI=1S/C7H11N/c1-2-8(1)7-4-5-3-6(5)7/h5-7H,1-4H2/t5-,6-,7-/m0/s1
