17
gdb 111405	2.40001	1.60642	1.14146	4.1079	67.82	-0.2483	-0.0418	0.2066	1069.6589	0.1347	-458.920916	-458.912682	-458.911737	-458.954096	30.475	
O	 0.0613148928	 1.4684802781	-0.0196538247	-0.431401
C	 0.0240973057	 0.0803411983	-0.2693504756	-0.083414
C	-1.3603006028	-0.5169043148	-0.0285409495	-0.060972
C	-1.5008010054	-2.0454453101	-0.1084634975	 0.014411
O	-0.7471966496	-2.6144391751	 0.9726376255	-0.239861
C	-2.0694079439	-2.1394267674	 1.2434081346	-0.002256
C	-1.9562733455	-0.6160696303	 1.4396668577	-0.15088
C	-1.1775756444	-0.1811175683	 2.6523084703	 0.162875
O	-0.3607402677	 0.7087187436	 2.6899323731	-0.253341
H	 0.0080370962	 1.5602582744	 0.9429468929	 0.294492
H	 0.280969695	-0.0598659336	-1.3267258287	 0.103397
H	 0.769747164	-0.46699252	 0.3229456404	 0.104797
H	-2.0886333385	-0.0198588798	-0.6756186251	 0.093541
H	-1.6623159061	-2.6724425047	-0.9771376635	 0.116017
H	-2.7791298063	-2.8377031601	 1.6707780985	 0.114549
H	-2.943677674	-0.1402847194	 1.499122556	 0.119189
H	-1.4249869597	-0.7462865207	 3.5780822156	 0.098858
90.763	103.1313	176.8395	198.319	220.1485	268.5402	426.0078	456.7563	594.6352	602.0839	668.9338	708.7877	743.2196	834.0243	865.5381	919.719	936.4396	980.6948	1006.144	1016.8582	1047.2817	1090.3961	1102.7931	1137.1393	1151.2484	1216.6031	1228.9332	1246.7135	1262.733	1316.9596	1339.4852	1378.8839	1410.8106	1428.0505	1456.7056	1505.0101	1808.1632	2892.297	3011.4981	3038.3907	3053.9166	3079.4101	3185.7972	3200.6521	3718.8001
OCC1C2OC2C1C=O	OC[C@H]1[C@H]2O[C@H]2[C@H]1C=O	
InChI=1S/C6H8O3/c7-1-3-4(2-8)6-5(3)9-6/h1,3-6,8H,2H2	InChI=1S/C6H8O3/c7-1-3-4(2-8)6-5(3)9-6/h1,3-6,8H,2H2/t3-,4+,5-,6+/m0/s1
