21
gdb 65504	3.03044	1.36093	1.16499	1.4373	81.54	-0.2543	0.0885	0.3428	1144.1998	0.182125	-387.037746	-387.029266	-387.028321	-387.070538	33.406	
C	-0.0381515545	 1.6686295447	 0.2143055828	-0.453104
C	 0.0184330131	 0.1505572468	 0.0296050652	 0.286712
C	 1.0763086801	-0.4289169966	-0.977862021	-0.302811
C	 1.6887010805	-1.2597927691	 0.1554210521	-0.01984
C	 2.1624789924	-0.3677165253	 1.2649722088	-0.302806
C	 0.6931780499	-0.6714826526	 1.1521527347	-0.070815
C	-1.3899564196	-0.3533858884	-0.2295000624	 0.043372
C	-2.0025053734	-0.4172138209	-1.5606849622	-0.191333
O	-1.5725308043	-1.6059855947	-0.8891530576	-0.239113
H	 0.9400408514	 2.0774247182	 0.4804759967	 0.117846
H	-0.3693169053	 2.1636166871	-0.7054271031	 0.114431
H	-0.7392043948	 1.9428153976	 1.0116379488	 0.113383
H	 0.6114243184	-1.0481894323	-1.7458080004	 0.121307
H	 1.7402974164	 0.3032192922	-1.4495934072	 0.085743
H	 2.0205285899	-2.2859161762	 0.0605481616	 0.086544
H	 2.6666618515	-0.8693347076	 2.0852411043	 0.110516
H	 2.5549357977	 0.6236025406	 1.0507515617	 0.101987
H	 0.1531039241	-1.1700897741	 1.9495807307	 0.081127
H	-2.0651558824	-0.2089327138	 0.6183640094	 0.088722
H	-3.080063416	-0.3061631815	-1.6705140985	 0.115846
H	-1.4162997751	-0.1419346541	-2.4364457744	 0.112286
95.0645	151.8246	193.4094	208.7678	267.152	291.1458	356.954	416.8212	450.182	557.3671	602.4432	743.1474	789.8749	821.188	843.3144	870.6899	880.5306	937.7883	940.353	963.4963	990.6167	1006.1762	1019.6641	1053.4393	1068.9389	1086.4185	1096.5393	1144.2855	1157.0106	1162.6014	1175.4869	1176.6639	1232.0191	1252.3023	1263.9503	1301.0057	1311.8015	1367.7033	1406.0334	1430.6769	1469.1132	1485.7593	1492.3003	1500.2519	1527.7037	3025.9261	3044.7749	3070.7224	3085.5143	3087.5906	3106.5518	3112.5385	3127.1974	3166.3667	3170.3306	3187.0009	3199.0813
CC1(CC2CC12)C1CO1	C[C@]1(C[C@H]2C[C@@H]12)[C@H]1CO1	
InChI=1S/C8H12O/c1-8(7-4-9-7)3-5-2-6(5)8/h5-7H,2-4H2,1H3	InChI=1S/C8H12O/c1-8(7-4-9-7)3-5-2-6(5)8/h5-7H,2-4H2,1H3/t5-,6-,7-,8-/m1/s1
