20
gdb 7830	3.01202	1.63479	1.13555	2.8397	70.82	-0.2604	0.0732	0.3336	1062.6446	0.17836	-386.159742	-386.151625	-386.150681	-386.191715	31.886	
O	-0.1049555081	 1.4298279448	 0.0128426201	-0.439482
C	 0.0049707638	 0.0120235789	 0.0087703339	 0.125035
C	 0.7727171641	-0.512143796	 1.2295185152	-0.212278
C	 0.7721021348	-2.047058766	 1.27431427	-0.215969
C	-0.6604658855	-2.5983680098	 1.2321508291	-0.212278
C	-1.426610935	-2.0718715249	 0.0113992385	 0.125036
O	-2.7894643619	-2.4779023849	 0.0177707447	-0.439482
C	-1.4174301768	-0.5445415784	-0.0218002491	-0.179508
H	 0.7849434809	 1.7951435146	 0.0473397011	 0.277221
H	 0.5325111593	-0.3212343507	-0.9030508315	 0.059011
H	 1.8025501385	-0.1317881574	 1.2138644736	 0.079029
H	 0.2955022453	-0.1072738944	 2.1312295992	 0.103723
H	 1.3405127733	-2.4386212799	 0.4194798763	 0.096094
H	 1.2877096087	-2.4001334771	 2.1734241211	 0.098403
H	-0.6460601562	-3.6961266087	 1.2183637464	 0.079029
H	-1.2085263536	-2.2966228263	 2.1339911935	 0.103723
H	-0.9273520481	-2.4462983233	-0.9003695084	 0.059011
H	-2.8111607897	-3.4395606048	 0.0539438247	 0.277221
H	-1.9666811081	-0.1661220361	 0.84890447	 0.108708
H	-1.9399996059	-0.1866746195	-0.9137194684	 0.107754
150.842	159.2616	267.7558	283.8198	284.4769	300.1757	375.0069	419.1183	422.7915	468.1085	508.5554	553.1962	789.0788	854.3402	883.1342	903.728	937.9667	956.0629	1035.4325	1057.2224	1065.2882	1081.9333	1088.9371	1130.439	1168.6185	1192.2839	1231.3398	1265.8706	1279.6936	1295.0716	1316.9688	1337.5479	1345.6217	1370.7736	1391.4696	1396.704	1435.6935	1445.4153	1483.8334	1484.5804	1491.6549	1507.7019	2931.0596	2940.8703	3013.7086	3014.1673	3017.6798	3042.7479	3056.4507	3059.8515	3073.7483	3095.4838	3813.8706	3814.0127
OC1CCCC(O)C1	O[C@H]1CCC[C@@H](O)C1	
InChI=1S/C6H12O2/c7-5-2-1-3-6(8)4-5/h5-8H,1-4H2	InChI=1S/C6H12O2/c7-5-2-1-3-6(8)4-5/h5-8H,1-4H2/t5-,6+
