19
gdb 50507	4.3098	0.79838	0.71206	1.4593	78.12	-0.2539	-0.0346	0.2193	1533.7761	0.158602	-423.06107	-423.052092	-423.051148	-423.096508	31.967	
O	-0.2215627361	 0.0204266213	-0.1418950542	-0.245928
C	-0.0610087551	 1.2019511129	 0.0140760545	 0.151022
C	 1.2672294683	 1.9209370294	-0.0205524787	-0.047113
C	 1.3374009784	 2.954134725	-1.1687588521	-0.233689
C	 2.3786208562	 3.9697366856	-0.6790353582	-0.233689
C	 2.0323209022	 4.1551745671	 0.8164384087	-0.047111
C	 1.5120738206	 2.7578754542	 1.2717632485	-0.276062
C	 3.2280335271	 4.6042210888	 1.6233001781	 0.151027
O	 3.3192479102	 5.6444642645	 2.2196804313	-0.245925
H	-0.9287282045	 1.8823125992	 0.1988237082	 0.070187
H	 2.0486950803	 1.1670541652	-0.1469612346	 0.096366
H	 1.5919363522	 2.4950876657	-2.1272744061	 0.118165
H	 0.3647701733	 3.4496399562	-1.2883674065	 0.108515
H	 3.3862449561	 3.5454510295	-0.7816219102	 0.108514
H	 2.3620181361	 4.9130253539	-1.2305744194	 0.118161
H	 1.25309284	 4.9135401209	 0.9290949741	 0.096366
H	 0.5962164105	 2.872238303	 1.8603802815	 0.120503
H	 2.2332447125	 2.2474537694	 1.9180831782	 0.120505
H	 4.066904812	 3.865130208	 1.6215362769	 0.070185
31.7047	59.5152	89.0756	162.0622	268.6545	326.0247	354.9402	356.6454	378.8305	480.8478	595.9934	669.1002	803.9088	872.5159	886.6888	909.2063	938.489	984.3077	995.3467	1010.2612	1066.9702	1074.1505	1096.3534	1105.0684	1191.8818	1202.0258	1241.518	1288.9035	1296.6105	1297.7322	1324.8704	1332.5554	1351.122	1359.7383	1426.0557	1427.2259	1486.6335	1489.8011	1501.9855	1836.0397	1839.3559	2831.1028	2831.1177	3021.5302	3029.5404	3047.2175	3070.0533	3077.3413	3092.0447	3102.004	3105.5491
O=CC1CCC(C1)C=O	O=C[C@H]1CC[C@@H](C1)C=O	
InChI=1S/C7H10O2/c8-4-6-1-2-7(3-6)5-9/h4-7H,1-3H2	InChI=1S/C7H10O2/c8-4-6-1-2-7(3-6)5-9/h4-7H,1-3H2/t6-,7-/m0/s1
