21
gdb 7440	2.78979	1.48868	1.21705	3.259	74.84	-0.2402	0.0368	0.277	1112.4652	0.186609	-366.313498	-366.303106	-366.302161	-366.349016	37.09	
C	 0.0000845688	 1.5351627613	-0.073218438	-0.410722
C	 0.1113404018	 0.0056696697	-0.0255712832	 0.068747
C	 1.0090498697	-0.495557427	-1.1670406753	-0.405131
C	 0.6158670387	-0.5122261549	 1.343923245	-0.068015
C	-0.2246844518	-0.0219875876	 2.5368863425	-0.404305
C	 0.5749306466	-2.0445814679	 1.3535777333	 0.412035
N	 1.7442898004	-2.6660087486	 1.6858068594	-0.527
O	-0.4433784821	-2.6671469699	 1.1139882104	-0.381601
H	 0.9666958494	 2.010672026	 0.1358951397	 0.106519
H	-0.3159956206	 1.8617020196	-1.069376718	 0.112389
H	-0.7274211694	 1.9241772066	 0.6437699576	 0.116695
H	-0.887283952	-0.4255032833	-0.1666605177	 0.099604
H	 2.0308880389	-0.1090970498	-1.0630590773	 0.101879
H	 1.060393002	-1.5878099963	-1.1931429854	 0.127346
H	 0.6285268554	-0.159058149	-2.1366368456	 0.111913
H	 1.6526139741	-0.1722056934	 1.4807735428	 0.054723
H	 0.1415623791	-0.4540819079	 3.4738004268	 0.114381
H	-0.1854499229	 1.0652191966	 2.6351746063	 0.116165
H	-1.2669044875	-0.3291577754	 2.4125033765	 0.13966
H	 2.6025120731	-2.1620514219	 1.8190372191	 0.256857
H	 1.7639143883	-3.6730739973	 1.6957752013	 0.257864
40.1124	63.1074	144.8771	171.5073	214.1719	223.5691	229.8976	260.8811	302.1656	350.0572	390.6347	428.7332	482.5941	593.8667	624.3498	760.8046	790.6107	840.3253	926.7945	931.0367	967.4899	985.1232	1046.8227	1064.2091	1112.7617	1148.9246	1183.8149	1201.0941	1262.8492	1308.2768	1351.2347	1365.2715	1396.2081	1399.96	1408.2472	1422.3712	1486.044	1489.7687	1499.7018	1504.8299	1505.3652	1517.9583	1613.7508	1788.5369	2997.3141	3022.192	3025.6467	3041.5564	3042.6976	3086.4098	3094.2068	3106.3675	3110.5119	3113.6443	3129.3994	3600.0558	3741.2915
CC(C)C(C)C(N)=O	CC(C)[C@@H](C)C(=O)N	
InChI=1S/C6H13NO/c1-4(2)5(3)6(7)8/h4-5H,1-3H3,(H2,7,8)	InChI=1S/C6H13NO/c1-4(2)5(3)6(7)8/h4-5H,1-3H3,(H2,7,8)/t5-/m1/s1
