21
gdb 119941	2.17122	1.10748	0.89447	1.2808	85.96	-0.2391	0.0488	0.2879	1429.8928	0.179587	-387.033761	-387.023249	-387.022305	-387.069787	37.732	
C	 0.1086064558	 1.3660602043	 0.1534557179	-0.224404
O	 0.2130167941	-0.0346598335	 0.089582758	-0.232972
C	 0.4855515956	-0.5021743566	-1.2160090522	-0.075979
C	 0.5704756208	-2.0042137815	-1.1602166894	-0.04656
C	 1.178442631	-2.8304068714	-2.2603960538	-0.043557
C	 1.7599809612	-2.2352521962	-3.5240074842	-0.411458
C	 1.8994970867	-2.7192274186	-0.9155576045	-0.214364
C	 3.1214426584	-1.9802158221	-0.8006452449	 0.349466
C	 4.1565654496	-1.373389867	-0.7032609694	-0.481058
H	 1.0446799728	 1.861553872	-0.1498463916	 0.104782
H	-0.7023979627	 1.7473521017	-0.4886411626	 0.099211
H	-0.1098909856	 1.6314647958	 1.1907893435	 0.125606
H	-0.3210858476	-0.1938561423	-1.9049251351	 0.08303
H	 1.4224235881	-0.0642000333	-1.5909710361	 0.098429
H	-0.2775250073	-2.4451297582	-0.6439964609	 0.099192
H	 0.6983096908	-3.7932976804	-2.4146769778	 0.092383
H	 2.3485272262	-1.3381413916	-3.3213699634	 0.133672
H	 2.4231853613	-2.9554355806	-4.0142927368	 0.122561
H	 0.9678856894	-1.9740576051	-4.2340687571	 0.117108
H	 1.8484549713	-3.5951889243	-0.2755335307	 0.111387
H	 5.0686859201	-0.8391015811	-0.6060813986	 0.193527
49.8779	87.761	116.7866	142.9976	159.6823	182.898	233.3284	259.3155	324.1107	356.7653	436.3149	496.8208	571.8754	589.7423	611.9223	648.6794	746.3699	796.8628	884.065	936.8479	962.7185	998.5025	1022.5981	1061.0937	1104.9466	1132.5403	1148.6933	1162.0762	1175.7683	1191.8296	1229.6378	1251.3809	1279.5686	1354.7755	1368.5112	1415.909	1422.164	1453.0997	1480.7907	1485.5039	1493.413	1500.3515	1504.2819	1524.3751	2230.4683	2943.8974	2965.8326	3007.006	3010.3501	3037.9117	3095.058	3112.2954	3123.3489	3139.6459	3143.5364	3157.3229	3505.3072
COCC1C(C)C1C#C	COC[C@H]1[C@@H](C)[C@H]1C#C	
InChI=1S/C8H12O/c1-4-7-6(2)8(7)5-9-3/h1,6-8H,5H2,2-3H3	InChI=1S/C8H12O/c1-4-7-6(2)8(7)5-9-3/h1,6-8H,5H2,2-3H3/t6-,7+,8-/m0/s1
