16
gdb 50411	2.57294	1.6617	1.2213	2.7284	70.14	-0.2388	-0.0356	0.2032	1022.4382	0.123876	-437.88484	-437.87707	-437.876126	-437.917824	28.73	
O	-0.2016831126	 0.0893719513	-0.1050466302	-0.232325
C	 0.0203390616	 1.2294003889	 0.1952234656	 0.158504
C	 1.363282875	 1.925816004	 0.0177412889	-0.09446
O	 2.3802354135	 0.9596940808	-0.2819124792	-0.207514
C	 2.7419358112	 1.1996776765	-1.5697515609	 0.109352
N	 2.2544158983	 2.1994023099	-2.1764320047	-0.292261
C	 1.3919910395	 2.8586853353	-1.2195191122	 0.329758
C	 0.2263822694	 3.6689715935	-1.724924927	-0.319393
C	 1.4345739892	 4.3616971162	-1.1424217448	-0.3088
H	-0.7677007671	 1.8910624493	 0.6222760274	 0.080919
H	 1.6251097055	 2.4456187816	 0.9467709186	 0.116231
H	 3.4527549301	 0.491410876	-1.9768270194	 0.15068
H	 0.0938907545	 3.6904815387	-2.8000027927	 0.139056
H	-0.6957150589	 3.6783837288	-1.1548800271	 0.119521
H	 1.3392715432	 4.8209459104	-0.1634462187	 0.115857
H	 2.1149047877	 4.8623430987	-1.8211545538	 0.134873
58.3747	84.6752	239.5834	246.7653	281.1906	327.4562	412.4852	510.6387	600.9085	742.2585	760.2866	774.2238	834.9577	883.0278	908.5564	930.215	948.5365	966.1322	994.5465	1044.0438	1059.2572	1071.2932	1084.1038	1119.7151	1191.4038	1230.9525	1248.5348	1323.8316	1338.3097	1365.8672	1416.2675	1454.4812	1492.846	1698.9441	1848.1553	2869.2468	3044.2802	3131.442	3143.5872	3222.3238	3234.5912	3236.9654
O=CC1OC=NC11CC1	O=C[C@H]1OC=NC21CC2	
InChI=1S/C6H7NO2/c8-3-5-6(1-2-6)7-4-9-5/h3-5H,1-2H2	InChI=1S/C6H7NO2/c8-3-5-6(1-2-6)7-4-9-5/h3-5H,1-2H2/t5-/m1/s1
