22
gdb 110289	2.32086	1.26432	1.18008	2.6367	82.03	-0.2189	0.0678	0.2867	1219.3501	0.193395	-404.290323	-404.280449	-404.279505	-404.324971	36.721	
C	 0.2122688044	 1.865672562	-1.1600520927	-0.433953
C	 0.1286210471	 0.3572118601	-1.0577482986	 0.041929
C	 0.791395432	-0.6846788819	-1.8693163155	-0.110582
C	 2.2701314531	-0.460749016	-2.1896735344	 0.005682
C	 2.7171859589	 0.5715177981	-3.2108975187	-0.112053
O	 4.1287586875	 0.4363130845	-3.3350684603	-0.424406
C	 2.4887793279	-0.288949757	-0.6542442804	 0.063865
C	 3.1514513693	 0.9331906366	-0.0377286811	-0.416283
N	 1.0307873881	-0.5763673745	-0.3535797887	-0.17538
H	 0.0886053277	 2.3217382869	-0.1716388936	 0.126502
H	 1.1393374429	 2.2384694614	-1.58984903	 0.124553
H	-0.6091704117	 2.2220776561	-1.7917750492	 0.118665
H	-0.8879071767	 0.0566364951	-0.7988465612	 0.095926
H	 0.2232816367	-1.5139811062	-2.2830067405	 0.089356
H	 2.7209692662	-1.4055345305	-2.5072422056	 0.093256
H	 2.2081731589	 0.3732431566	-4.1689680683	 0.087787
H	 2.453195682	 1.5938914341	-2.9110980415	 0.086357
H	 4.4452276974	 1.1148588695	-3.9385015816	 0.286971
H	 3.0249551485	-1.1658766941	-0.2803027644	 0.089771
H	 2.7477660346	 1.8844897112	-0.3854256795	 0.110979
H	 3.0402788528	 0.9021011579	 1.0513778898	 0.122587
H	 4.2203121027	 0.9199422401	-0.2737561039	 0.128471
65.943	115.3521	137.1826	180.8096	214.1561	232.9265	268.1556	281.8777	305.383	362.9094	455.6975	532.4843	625.1048	672.4429	734.4204	757.7696	773.1885	876.1114	907.1747	964.6453	1017.9713	1024.3407	1041.2973	1068.7321	1081.1531	1098.5195	1123.0007	1139.4102	1162.2155	1186.3862	1231.8556	1256.2406	1276.4008	1284.0219	1305.7149	1369.5556	1377.8499	1397.6696	1403.4365	1412.0089	1453.0791	1458.0802	1482.092	1493.2901	1500.3092	1505.0746	1519.752	2965.2149	3027.1953	3037.7886	3043.0544	3050.5968	3070.4499	3088.8629	3091.9324	3105.7878	3138.2298	3141.3247	3166.7774	3829.9707
CC1C2C(CO)C(C)N12	C[C@H]1[C@H]2[C@@H](CO)[C@@H](C)N12	
InChI=1S/C7H13NO/c1-4-6(3-9)7-5(2)8(4)7/h4-7,9H,3H2,1-2H3	InChI=1S/C7H13NO/c1-4-6(3-9)7-5(2)8(4)7/h4-7,9H,3H2,1-2H3/t4-,5+,6+,7+,8?/m1/s1
