16
gdb 6744	5.75728	0.94595	0.84736	2.0293	66.19	-0.2393	0.0113	0.2506	1329.6145	0.12859	-417.079368	-417.06986	-417.068916	-417.115296	31.541	
C	 0.1429953163	 1.0409331376	-0.3588686335	-0.251669
O	 0.0450548213	-0.2814747714	 0.158245849	-0.190928
C	-1.1453428159	-0.8815409514	-0.0117886701	 0.156189
N	-1.3237285524	-2.059627144	 0.4035110003	-0.220422
C	-2.6124591763	-2.6500260401	 0.1212027135	-0.275969
C	-2.7204480483	-3.0858690909	-1.3534914588	 0.411225
N	-3.2891576332	-4.308514454	-1.5527716186	-0.514572
O	-2.3765876722	-2.3588223651	-2.2630482836	-0.353831
H	 1.1514708891	 1.3862502829	-0.1285126919	 0.144296
H	-0.0043394589	 1.0560457894	-1.4449871469	 0.137408
H	-0.5829179876	 1.7128011924	 0.1151749215	 0.124803
H	-1.9012791954	-0.2666949557	-0.5176030257	 0.089527
H	-2.7700784796	-3.5000820319	 0.7925912606	 0.100665
H	-3.4529455687	-1.9548129606	 0.2828507278	 0.119913
H	-3.405419095	-4.9639604089	-0.8000207128	 0.261477
H	-3.3437729833	-4.6538750383	-2.4977958509	 0.261889
38.1324	44.8401	72.7132	149.5147	166.2624	224.9624	273.9313	347.1068	376.087	451.4466	509.2236	565.2539	624.1227	732.6069	844.0611	981.7034	991.4808	1046.1706	1088.9423	1107.5227	1177.1567	1184.1759	1234.6335	1290.8834	1308.3304	1386.9404	1421.407	1485.4224	1487.4449	1494.1757	1501.4672	1619.7528	1761.9189	1805.8582	2971.4761	3014.8917	3039.2827	3065.4885	3082.1031	3145.179	3597.771	3732.747
COC=NCC(N)=O	COC=NCC(=O)N	
InChI=1S/C4H8N2O2/c1-8-3-6-2-4(5)7/h3H,2H2,1H3,(H2,5,7)	InChI=1S/C4H8N2O2/c1-8-3-6-2-4(5)7/h3H,2H2,1H3,(H2,5,7)
