14
gdb 23190	2.67294	1.36028	0.98249	1.875	74.09	-0.2499	-0.0137	0.2363	1152.4019	0.097967	-436.557557	-436.549403	-436.548459	-436.590314	30.714	
O	-0.1426503732	 1.3570891607	-0.1010120216	-0.382179
N	 0.0090490566	-0.0255166954	 0.0677111007	-0.249128
C	-1.102727901	-0.6208962288	-0.0087845794	 0.354903
C	-2.5814708931	-0.2354329691	-0.1016639013	-0.347813
C	-2.8815519856	-1.7356454462	 0.096666922	-0.06286
O	-2.2571840247	-2.4335288394	-0.9680474818	-0.277434
C	-1.427864828	-2.0796709497	 0.1756740099	 0.259086
C	-0.7138450513	-3.0960423674	 0.8623655106	 0.191009
C	-0.0892346066	-3.933612824	 1.4559863703	-0.403269
H	 0.7628367595	 1.6742955134	-0.0112969877	 0.312636
H	-2.8841486658	 0.4050613526	 0.7317081532	 0.137904
H	-2.9310016815	 0.1893111654	-1.0445840369	 0.14005
H	-3.7162992185	-2.2074738411	 0.6004068913	 0.12965
H	 0.4619530532	-4.6767276112	 1.9776642506	 0.197445
101.4884	138.4698	157.8292	224.8769	326.4309	393.5259	404.179	460.0211	508.888	541.2737	572.6811	617.8951	667.8269	676.5392	732.2598	804.6705	857.6934	925.5716	956.1466	1003.9833	1024.2613	1068.6049	1127.4381	1185.9739	1239.7236	1259.2619	1383.8866	1424.6008	1459.7242	1793.4673	2248.6145	3070.2084	3128.7761	3202.1872	3500.6844	3812.7498
ON=C1CC2OC12C#C	ON=C1C[C@H]2O[C@@]12C#C	
InChI=1S/C6H5NO2/c1-2-6-4(7-8)3-5(6)9-6/h1,5,8H,3H2	InChI=1S/C6H5NO2/c1-2-6-4(7-8)3-5(6)9-6/h1,5,8H,3H2/t5-,6+/m1/s1
