14
gdb 14415	3.48114	2.14363	1.77183	2.3496	61.36	-0.2373	0.0034	0.2407	760.6816	0.107247	-382.497588	-382.491194	-382.49025	-382.527926	25.184	
O	-0.0951040667	 1.4225110933	 0.0442409049	-0.44536
C	 0.0151931188	 0.0684256534	-0.0425048608	 0.384511
C	-1.014524548	-0.9956388296	-0.0795788687	-0.11044
C	-0.3731375187	-1.6822349107	-1.2890082162	-0.232383
C	 0.9287477153	-0.9219203552	-0.905000467	-0.257657
C	 1.3048809885	-1.52930102	 0.4674904753	 0.439518
O	 2.3131768015	-2.0026472273	 0.9121460309	-0.341211
C	 0.0354487533	-1.0181016862	 1.0690950688	-0.278031
H	 0.6757532668	 1.7744203537	 0.5051971057	 0.301644
H	-2.0617988613	-0.9205118544	 0.1847009596	 0.10716
H	-0.3177409168	-2.7764377081	-1.2931173766	 0.108251
H	-0.8019681955	-1.3234568901	-2.2278385861	 0.115588
H	 1.6928016176	-0.6598955658	-1.6314375675	 0.095442
H	-0.2614192248	-0.9202866829	 2.1042968378	 0.112968
124.9353	264.3433	324.2486	346.288	424.232	481.8121	579.7367	618.8287	697.5654	751.2892	757.8838	836.7318	878.8744	927.3546	955.4467	960.3494	983.7975	1056.5938	1071.1823	1108.9264	1132.3763	1139.9032	1192.5683	1198.8451	1265.769	1285.0903	1313.2489	1483.4063	1509.1653	1878.9361	3043.0366	3109.3839	3167.3561	3199.8746	3221.7449	3784.7391
OC12C3CC1C(=O)C23	O[C@@]12[C@H]3C[C@@H]1C(=O)[C@@H]23	
InChI=1S/C6H6O2/c7-5-3-1-2-4(5)6(2,3)8/h2-4,8H,1H2	InChI=1S/C6H6O2/c7-5-3-1-2-4(5)6(2,3)8/h2-4,8H,1H2/t2-,3+,4-,6-/m0/s1
