16
gdb 47342	3.46392	1.17922	0.91329	1.8622	72.99	-0.268	0.0012	0.2692	1219.1539	0.124351	-437.855871	-437.847794	-437.84685	-437.888791	30.289	
N	-0.0535946803	 1.3204157136	 0.153739709	-0.497603
C	-0.0083070153	 0.0725483049	-0.0384747274	 0.363238
C	-1.2627111567	-0.7707534631	-0.0707375215	-0.265969
C	-1.1136633974	-1.9684986097	-1.0261715288	-0.099206
O	 0.1162067833	-2.6350557912	-0.7166649237	-0.232178
C	 1.1922215703	-1.7868229968	-0.9387974497	 0.018121
O	 1.1753606711	-0.6132995361	-0.1217811101	-0.250228
C	-2.2153775039	-2.9129875309	-0.9135116701	 0.293195
C	-3.1526060414	-3.6566152071	-0.8144991053	-0.393215
H	 0.8939469032	 1.7037079411	 0.1874920414	 0.223067
H	-1.4339638336	-1.1668580304	 0.9360967312	 0.147278
H	-2.1112411253	-0.1409969793	-0.3390661154	 0.14454
H	-1.0603316344	-1.601444524	-2.065535512	 0.109493
H	 2.1011114483	-2.3270922383	-0.6725823198	 0.135746
H	 1.2274901464	-1.4679706443	-1.9942845956	 0.098824
H	-3.9753244743	-4.323660718	-0.7310424023	 0.204898
98.4548	111.9523	138.5332	225.946	348.4037	400.2892	425.6474	444.7954	527.2772	538.0748	606.6143	635.6164	687.2325	725.1357	825.1721	869.8341	926.6992	992.8789	1007.4329	1037.6297	1061.4959	1081.5463	1144.901	1192.5329	1218.7951	1282.1698	1294.4605	1326.4253	1355.3375	1395.8567	1455.8034	1460.0125	1515.3823	1759.0584	2249.9498	2957.9473	2963.2786	3060.5218	3131.9714	3141.1469	3460.3207	3501.3764
N=C1CC(OCO1)C#C	[NH][C]1C[C@@H](OCO1)C#C	
InChI=1S/C6H7NO2/c1-2-5-3-6(7)9-4-8-5/h1,5,7H,3-4H2	InChI=1S/C6H7NO2/c1-2-5-3-6(7)9-4-8-5/h1,5,7H,3-4H2/t5-/m0/s1
