17
gdb 44808	2.78357	1.50252	1.19018	1.9245	72.69	-0.2391	-0.0284	0.2107	1060.5593	0.136631	-417.946141	-417.938366	-417.937422	-417.97899	29.338	
O	-0.1739759856	 0.3490400844	-0.8134150364	-0.298926
C	-0.0155622991	 1.3840580419	-0.2367221375	 0.366773
C	-0.8156282764	 2.698581023	-0.1232963278	-0.292258
N	 0.4106769897	 3.3841775338	 0.4272642767	-0.157779
C	 0.6912438698	 2.6947918181	 1.683665597	-0.272757
C	 1.1674079946	 2.050229101	 0.4195637119	 0.173265
C	 2.6042101156	 1.930800562	 0.0476875044	-0.11613
C	 3.0685286995	 2.4427545765	-1.2651019085	-0.231209
N	 3.4200001977	 3.1541335325	-0.0229830412	-0.323304
H	-1.0786955885	 3.0926216939	-1.1084733393	 0.146583
H	-1.6875434442	 2.7371259762	 0.5353504389	 0.134043
H	 1.4586060236	 3.1708685533	 2.2870268493	 0.145408
H	-0.1335877259	 2.2622103277	 2.2458518432	 0.127726
H	 3.1164780057	 1.0786659402	 0.4887911925	 0.108456
H	 3.8981396008	 1.9580671208	-1.7705602268	 0.125894
H	 2.328428429	 2.8916865415	-1.9220605619	 0.117397
H	 2.7987408937	 3.9573118632	 0.0725247156	 0.246819
59.5132	132.8923	153.6211	200.1941	341.9686	430.7253	475.353	541.1375	561.6496	631.6402	688.9009	781.2671	822.9817	859.1424	872.7962	902.7532	967.0935	984.7549	1001.4475	1037.7988	1040.1794	1096.2241	1110.1089	1129.3884	1144.7886	1193.5688	1194.9446	1235.4631	1258.5385	1275.892	1307.5329	1330.0176	1430.1006	1461.6263	1504.2192	1507.859	1895.1945	3062.0394	3104.9565	3114.1475	3123.0501	3132.0036	3200.4494	3202.7126	3471.228
O=C1CN2CC12C1CN1	O=C1CN2C[C@@]12[C@H]1CN1	
InChI=1S/C6H8N2O/c9-5-2-8-3-6(5,8)4-1-7-4/h4,7H,1-3H2	InChI=1S/C6H8N2O/c9-5-2-8-3-6(5,8)4-1-7-4/h4,7H,1-3H2/t4-,6-,8?/m1/s1
