23
gdb 64260	2.52792	1.53998	1.48825	1.3993	84.08	-0.2332	0.0788	0.3121	1070.7881	0.207415	-388.282869	-388.274593	-388.273649	-388.314821	34.424	
C	-0.2003562801	 1.5926891584	 0.0775327419	-0.43169
C	 0.0062550441	 0.0686582555	 0.0151723424	 0.281004
C	-1.3692186619	-0.6145228128	-0.0662955555	-0.433444
C	 0.8409690008	-0.332422115	-1.2360933041	-0.101254
O	 2.246719215	-0.3918628615	-1.006113799	-0.282968
C	 2.596122026	-0.8659504811	 0.2894283786	 0.140237
C	 1.5012050017	-1.7829391104	 0.8997895934	-0.271144
C	 0.77402028	-0.4489655636	 1.2598538745	-0.030231
C	 2.1936337726	 0.1869831426	 1.3489938111	-0.250138
H	 0.7376121217	 2.1406177729	-0.0429621835	 0.123087
H	-0.8767063577	 1.9199749034	-0.7198424789	 0.108825
H	-0.645430446	 1.8925077415	 1.0331937622	 0.10881
H	-1.8768762846	-0.3675010844	-1.0056844584	 0.111899
H	-1.2834452973	-1.7047535081	-0.0105462316	 0.113523
H	-2.015937775	-0.2856309802	 0.7544524453	 0.111619
H	 0.4929030692	-1.3087872082	-1.6032938065	 0.085984
H	 0.6956349608	 0.3861447139	-2.0490863393	 0.101791
H	 3.6293665328	-1.2133090147	 0.2264182752	 0.070171
H	 1.0057247601	-2.5136924508	 0.2567576914	 0.098444
H	 1.8786007659	-2.2902097547	 1.7908301718	 0.100169
H	 0.1380012542	-0.4215210175	 2.1494866868	 0.054985
H	 2.6576405256	-0.0107504862	 2.3194886497	 0.093043
H	 2.3338591422	 1.2351244811	 1.0811606124	 0.097278
140.1616	223.7235	247.6133	265.4354	316.7058	342.3459	378.7292	419.1242	454.801	468.8037	479.9597	569.2404	714.4865	808.9138	837.787	880.1828	894.9147	897.419	916.9715	948.6039	953.6597	975.1385	990.2181	1029.1016	1039.8728	1070.0789	1087.9031	1109.6833	1140.583	1182.6515	1214.4255	1220.2669	1242.4561	1260.9761	1276.9185	1279.754	1295.7777	1344.424	1368.9016	1398.3308	1406.8676	1428.9667	1473.2696	1486.3562	1488.8776	1498.926	1504.9838	1514.4705	1525.0059	2989.827	3022.8287	3029.4906	3055.0009	3062.2289	3069.0974	3071.5019	3087.2999	3091.8609	3092.6669	3096.826	3110.8214	3120.7952	3129.5465
CC1(C)COC2CC1C2	CC1(C)CO[C@@H]2C[C@H]1C2	
InChI=1S/C8H14O/c1-8(2)5-9-7-3-6(8)4-7/h6-7H,3-5H2,1-2H3	InChI=1S/C8H14O/c1-8(2)5-9-7-3-6(8)4-7/h6-7H,3-5H2,1-2H3/t6-,7+
