20
gdb 7538	4.5567	1.00584	0.9463	1.8882	71.52	-0.2518	0.0782	0.33	1276.4668	0.174888	-386.117645	-386.108026	-386.107082	-386.151796	35.115	
C	-0.0408086981	 1.6839869213	 0.2260392856	-0.459343
C	-0.0699814541	 0.1742358245	 0.0708501209	 0.327026
C	-1.3752126969	-0.4179414233	-0.4363399597	-0.248652
C	-1.7248046699	-0.0122329486	-1.8654093263	-0.072087
O	-2.904975524	-0.7136635176	-2.2321075525	-0.420565
C	 1.2212415342	-0.5186692673	-0.3466508549	-0.367085
C	 0.704482279	-0.6499132801	 1.0660457845	 0.061192
O	 1.3525030572	 0.0238865927	 2.1071584804	-0.42378
H	 0.8636718565	 2.0021745974	 0.7471002563	 0.130054
H	-0.0753822078	 2.1883884285	-0.7454345232	 0.110438
H	-0.900212961	 2.0291621855	 0.8125328447	 0.11495
H	-1.3274374978	-1.5129596631	-0.407108385	 0.10037
H	-2.2013672259	-0.1232269031	 0.2233346057	 0.104657
H	-1.8781329617	 1.0760184869	-1.9264078226	 0.087525
H	-0.8861657635	-0.2620051106	-2.5354643818	 0.085383
H	-3.1532335021	-0.4394560662	-3.1195400384	 0.284243
H	 1.1703719181	-1.3804968519	-1.0047570441	 0.107475
H	 2.0954130739	 0.1092249817	-0.4872941618	 0.107829
H	 0.2695803816	-1.6075061285	 1.3548864076	 0.083018
H	 2.2085386225	-0.3951438983	 2.2420061345	 0.287349
85.2472	95.7396	135.464	187.656	255.926	263.5118	272.3176	284.7936	331.198	357.6412	415.9566	471.4346	581.5166	718.904	799.9199	829.7703	892.2204	935.4139	980.0804	1002.3196	1013.9856	1037.1091	1070.1889	1083.7869	1117.6793	1124.7847	1183.8367	1220.4081	1246.2085	1274.7662	1294.9249	1310.3135	1349.8759	1361.1549	1414.2573	1425.1973	1460.2338	1481.4191	1489.6397	1500.0927	1506.7336	1529.6072	2968.1498	2997.1653	3024.6079	3031.5648	3068.7268	3087.0589	3089.8726	3122.3307	3134.0077	3210.4703	3809.072	3830.4987
CC1(CCO)CC1O	C[C@@]1(CCO)C[C@H]1O	
InChI=1S/C6H12O2/c1-6(2-3-7)4-5(6)8/h5,7-8H,2-4H2,1H3	InChI=1S/C6H12O2/c1-6(2-3-7)4-5(6)8/h5,7-8H,2-4H2,1H3/t5-,6-/m1/s1
