16
gdb 71738	2.75436	2.04036	1.54516	2.5261	66.16	-0.214	0.0488	0.2628	870.1111	0.124502	-437.8051	-437.798062	-437.797118	-437.835939	28.979	
O	-0.2474871408	 1.2741342877	 0.2082671315	-0.485459
C	-3.323*^-7	-0.0880793437	 0.0946078837	 0.269832
C	 1.0937257138	-0.8270993738	 0.8491262874	-0.221714
N	 0.7857703149	-2.2189641433	 0.5081461829	-0.127397
C	 0.2122185731	-2.2693494685	-0.8607502555	-0.052156
C	-0.6790560936	-2.3707051652	 0.3254420381	-0.126026
C	-1.2284011219	-0.9514482881	 0.0344115947	 0.391143
O	-2.4997671381	-0.5110145983	 0.2916348685	-0.475097
C	-0.3210938831	-0.8534053673	-1.1942093373	-0.27343
H	 0.3230913692	 1.7538917521	-0.4016153808	 0.294885
H	 2.1052143024	-0.5769193113	 0.5115677769	 0.100381
H	 1.0282954851	-0.67765295	 1.9314102782	 0.114096
H	 0.5608362144	-3.0210107006	-1.5573191375	 0.098229
H	-1.2027197624	-3.2047116952	 0.7747649265	 0.10229
H	-2.4362066982	 0.4366386963	 0.4733155108	 0.296592
H	-0.4598387724	-0.3959270409	-2.163851458	 0.093833
204.4009	244.4243	279.0109	315.2997	362.0957	390.1817	452.5566	554.3095	620.8791	650.2237	734.8042	752.1656	771.1295	792.3779	821.6183	876.1259	898.4363	936.4385	976.552	1005.1469	1046.631	1050.9646	1072.7735	1146.2419	1168.1539	1193.9083	1199.539	1239.6091	1258.6836	1289.5693	1308.3394	1351.2026	1405.2405	1475.6618	1498.6024	3045.3136	3095.2872	3189.2931	3202.5804	3216.2592	3756.0465	3801.9429
OC12CN3C4C3C1(O)C24	O[C@@]12CN3[C@H]4[C@@H]3[C@]1(O)[C@@H]24	
InChI=1S/C6H7NO2/c8-5-1-7-2-3(5)6(5,9)4(2)7/h2-4,8-9H,1H2	InChI=1S/C6H7NO2/c8-5-1-7-2-3(5)6(5,9)4(2)7/h2-4,8-9H,1H2/t2-,3-,4-,5-,6-,7?/m1/s1
