21
gdb 121318	3.22125	1.01901	0.82001	2.3224	79.85	-0.2211	-0.0209	0.2002	1460.8288	0.181637	-424.256547	-424.24705	-424.246106	-424.291811	34.577	
C	-0.1516408639	 1.4902432696	 0.0254494692	-0.385148
C	 0.1121132267	-0.0045132883	 0.0687823268	-0.050202
O	 0.5902748521	-0.4025525485	-1.2136662987	-0.25737
C	 0.8314780817	-1.7751623731	-1.3559396807	 0.049313
C	 0.9297238297	-2.1860639746	-2.8278419073	-0.249701
C	 1.7255423026	-3.5071694691	-2.7931681477	-0.223933
C	 2.7948070479	-3.2755199113	-1.7092721083	-0.312276
C	 2.1747963578	-2.2539140965	-0.7533104354	 0.3828
O	 2.6582262476	-1.8577555747	 0.2765806592	-0.314049
H	 0.7711470722	 2.0356060376	-0.1917143352	 0.128495
H	-0.8841000476	 1.7323442746	-0.7501729103	 0.121353
H	-0.5379040896	 1.8344247647	 0.9895657092	 0.114606
H	 0.849259412	-0.2524938261	 0.8400956332	 0.125546
H	-0.8156154345	-0.5558628619	 0.2992795168	 0.079866
H	 0.0367515153	-2.3668009661	-0.8610766937	 0.082084
H	-0.04678115	-2.2797239209	-3.3072461963	 0.107268
H	 1.4914506067	-1.4101069183	-3.3611964645	 0.117688
H	 1.065814945	-4.3325886048	-2.5018313235	 0.107904
H	 2.1517271172	-3.7647753295	-3.7652154784	 0.10858
H	 3.1191539993	-4.1722484575	-1.1752035315	 0.129089
H	 3.6976310117	-2.8148885652	-2.130401883	 0.138085
50.475	64.2557	110.6016	151.5319	221.6178	248.7469	272.1559	357.6414	391.4229	478.6935	551.3944	587.3042	630.0512	710.671	822.3488	827.1378	891.8577	910.1473	920.7197	952.5189	1013.2996	1033.428	1073.3425	1115.9471	1144.9225	1174.066	1183.0489	1187.3682	1200.2481	1227.9086	1294.3356	1296.3131	1307.3859	1311.7564	1338.6812	1363.274	1401.9029	1436.4727	1444.6872	1483.3111	1492.9671	1501.8058	1505.216	1530.0126	1841.8463	2916.2388	2960.3883	3038.3377	3042.6826	3043.9228	3049.3192	3066.621	3099.1132	3105.6753	3112.4033	3118.4804	3121.4306
CCOC1CCCC1=O	CCO[C@H]1CCCC1=O	
InChI=1S/C7H12O2/c1-2-9-7-5-3-4-6(7)8/h7H,2-5H2,1H3	InChI=1S/C7H12O2/c1-2-9-7-5-3-4-6(7)8/h7H,2-5H2,1H3/t7-/m0/s1
