19
gdb 57268	2.11494	1.6286	1.23398	2.6214	75.04	-0.2596	0.01	0.2696	1099.2211	0.157155	-419.194565	-419.184762	-419.183818	-419.228639	36.727	
C	-0.2072605136	 1.5406984941	-0.0917747965	-0.408026
C	 0.0034923973	 0.0211923016	-0.0309689536	 0.141816
O	 0.7552191804	-0.2250372056	 1.150296284	-0.432264
C	-1.3297200317	-0.6287370588	 0.0910604393	 0.248664
N	-2.3599376445	-1.1434784094	 0.1937184521	-0.348751
C	 0.7451899195	-0.5268618178	-1.2685229536	 0.301065
C	 2.0774842553	 0.1412059683	-1.5466711288	-0.4581
C	 0.5639041632	-1.9649998953	-1.6171708463	-0.299528
N	-0.0122076508	-0.9057025488	-2.4670388005	-0.355552
H	 0.7630323679	 2.0391225601	-0.083149196	 0.142837
H	-0.7492453265	 1.8186529379	-0.9986705223	 0.139793
H	-0.7754853087	 1.8706257716	 0.7799632157	 0.1469
H	 0.9543857296	-1.168474544	 1.1843183516	 0.292006
H	 2.700438456	 0.1568795463	-0.6480559686	 0.128793
H	 2.6041172477	-0.4035222565	-2.3329357915	 0.130622
H	 1.9419523215	 1.1696187744	-1.8938161431	 0.12954
H	 1.3928308244	-2.5096987048	-2.060226631	 0.122347
H	-0.1180130704	-2.5722214649	-1.027845349	 0.132787
H	-1.0156903767	-0.8513926485	-2.300405932	 0.245053
66.0641	154.0974	189.2411	190.4914	212.2306	257.8929	298.4952	326.0038	368.8732	372.2625	400.8425	429.7429	495.4107	556.3738	603.4451	648.4094	806.2582	849.4679	913.4797	928.3374	949.4996	985.8645	1029.0441	1057.1982	1078.0269	1112.9061	1131.2229	1175.9615	1191.9445	1264.4882	1321.0184	1362.1712	1367.7111	1407.8692	1418.433	1477.3312	1486.0877	1492.0282	1506.4509	1510.5827	2344.6413	3049.2227	3062.8681	3110.4009	3117.421	3133.8824	3143.7961	3152.4998	3196.9953	3485.0769	3793.0349
CC(O)(C#N)C1(C)CN1	C[C@@](O)(C#N)[C@@]1(C)CN1	
InChI=1S/C6H10N2O/c1-5(4-8-5)6(2,9)3-7/h8-9H,4H2,1-2H3	InChI=1S/C6H10N2O/c1-5(4-8-5)6(2,9)3-7/h8-9H,4H2,1-2H3/t5-,6-/m1/s1
