20
gdb 102315	2.46127	0.92981	0.78547	3.0935	76.91	-0.2794	0.0197	0.2991	1535.0955	0.167992	-440.288852	-440.278093	-440.277149	-440.325261	37.764	
C	 0.0016082557	 1.4294529779	 0.2275950759	-0.24965
O	 0.0171275503	 0.0599461762	-0.1382088077	-0.234234
C	-1.2380705279	-0.5752033035	-0.0475389719	-0.023678
C	-1.1292904873	-1.9364288857	-0.7438422037	-0.223002
C	-0.9391278207	-1.7773629664	-2.2596955733	 0.129603
C	-0.7548485573	-3.1230473796	-2.9568869368	-0.414024
O	-2.0143770666	-1.0326890415	-2.8306936088	-0.431572
C	-1.6585487722	-0.7286309493	 1.3644629078	 0.270244
N	-1.9831303371	-0.8409613881	 2.4680013706	-0.327757
H	 1.015618081	 1.8052145915	 0.0790287049	 0.137296
H	-0.6925642047	 2.0032318846	-0.4030495666	 0.118459
H	-0.2808230584	 1.5633190567	 1.2804822776	 0.13322
H	-2.0082727735	 0.0175893223	-0.5645712385	 0.125294
H	-0.2884404915	-2.4855173909	-0.3076433062	 0.126092
H	-2.0394640596	-2.5146350881	-0.5421787152	 0.107784
H	-0.0561403049	-1.1530465477	-2.4281231516	 0.112553
H	-1.6240290091	-3.7721977828	-2.7896041124	 0.10935
H	-0.6384603637	-2.9769906707	-4.0339602556	 0.129841
H	 0.1283106976	-3.6477481104	-2.579441816	 0.125066
H	-2.7941870302	-1.5996985044	-2.8391774825	 0.279115
52.9745	88.0494	97.6268	125.9016	169.0043	222.9414	240.4869	285.0134	298.0178	314.6949	328.1878	423.8629	458.8147	506.4529	577.8479	603.0384	818.0785	855.6089	929.9157	942.9803	977.6231	1054.6875	1077.7736	1106.2674	1147.5522	1159.6804	1184.5526	1192.6809	1249.6758	1273.1314	1322.2159	1349.5901	1376.4659	1391.0924	1407.0813	1427.6668	1464.3415	1481.4016	1488.6197	1491.9584	1496.7358	1508.0553	2351.1332	2994.7017	2999.322	3024.3765	3038.0181	3054.4533	3070.9612	3090.4809	3102.4094	3122.2963	3131.7286	3791.5581
COC(CC(C)O)C#N	CO[C@@H](C[C@@H](C)O)C#N	
InChI=1S/C6H11NO2/c1-5(8)3-6(4-7)9-2/h5-6,8H,3H2,1-2H3	InChI=1S/C6H11NO2/c1-5(8)3-6(4-7)9-2/h5-6,8H,3H2,1-2H3/t5-,6+/m1/s1
