18
gdb 36785	5.7019	0.6269	0.59346	3.7915	73.66	-0.2553	0.0046	0.2599	1802.889	0.146635	-439.052938	-439.043596	-439.042652	-439.089147	31.57	
N	-0.0364471502	-1.0598300255	-0.3944877144	-0.289427
C	-0.001545382	 0.0838212858	-0.2419145941	 0.265685
C	 0.0024814411	 1.5366815663	-0.0464122965	-0.184348
O	 1.3293007101	 1.998104729	-0.0311938095	-0.241613
C	 1.4175620635	 3.4020747896	 0.1575218222	-0.070237
C	 2.881732266	 3.7865795102	 0.1249015777	-0.049815
C	 3.5445045016	 3.7453438616	-1.2686428127	-0.071726
O	 3.6123978176	 5.187149519	-1.3250274599	-0.269485
C	 3.1490765497	 5.3053285663	 0.033706985	-0.091445
H	-0.5810231185	 2.0019603528	-0.8579529697	 0.142325
H	-0.5182235316	 1.7648498233	 0.8982893787	 0.141124
H	 0.8666219077	 3.9293272008	-0.6396957409	 0.10298
H	 0.9612376665	 3.6877016457	 1.1202429557	 0.098138
H	 3.4204898594	 3.257219582	 0.9129109981	 0.094918
H	 4.5406780032	 3.2871491999	-1.2941296009	 0.106761
H	 2.937396183	 3.3245003296	-2.0784940786	 0.109949
H	 2.2718255199	 5.9604563258	 0.1169784897	 0.10119
H	 3.9319653632	 5.6767518679	 0.7070322901	 0.105028
39.2056	60.106	86.466	104.8269	141.2894	215.697	309.2453	381.6039	386.2657	441.2624	580.6879	802.0049	869.523	884.2385	922.8456	957.9624	973.9729	1013.0525	1035.5807	1038.9976	1078.685	1117.8942	1151.602	1154.0703	1160.7167	1201.1508	1241.9784	1256.5098	1280.7672	1309.569	1347.1704	1383.7033	1396.3996	1448.4898	1493.5726	1511.4831	1521.1612	1538.922	2374.9511	2955.4983	2971.6171	2988.4245	2996.438	3005.2265	3022.801	3046.6953	3065.6	3099.2276
N#CCOCC1COC1	N#CCOCC1COC1	
InChI=1S/C6H9NO2/c7-1-2-8-3-6-4-9-5-6/h6H,2-5H2	InChI=1S/C6H9NO2/c7-1-2-8-3-6-4-9-5-6/h6H,2-5H2
