20
gdb 107349	3.25841	1.16133	0.9732	1.801	78.83	-0.2473	-0.0247	0.2226	1266.5974	0.171011	-403.166742	-403.158092	-403.157148	-403.200321	33.059	
C	 0.2165069142	 1.4493515975	 0.3018719035	-0.383019
C	-0.2495344778	 0.0739836577	-0.1909491567	-0.254043
C	 0.5714434112	-0.4505950539	-1.3471467961	 0.339919
C	 0.5170535512	 0.2536870531	-2.6931113336	-0.399883
C	 0.937901628	-0.7989892328	-3.7313730715	 0.372944
O	 1.225490999	-0.5740967971	-4.8767374464	-0.297851
C	 0.9213271514	-2.1869040586	-3.0693188126	-0.347921
C	 0.8277180485	-1.9079525743	-1.5862548742	-0.077749
N	 1.8681178369	-1.0546475475	-0.989587269	-0.369382
H	 1.2682503235	 1.4110699423	 0.6016233113	 0.131412
H	 0.1138709386	 2.2135575173	-0.4759595684	 0.114888
H	-0.3711017343	 1.7757907127	 1.1649208353	 0.114358
H	-0.1845290636	-0.6483402715	 0.6297543294	 0.107373
H	-1.304165684	 0.1208868343	-0.4930917999	 0.093007
H	-0.5028288078	 0.5851845345	-2.9315309104	 0.131685
H	 1.1599883842	 1.1366487377	-2.7684027718	 0.134162
H	 0.0428888827	-2.735872713	-3.4338430448	 0.134885
H	 1.8023668722	-2.7642273061	-3.3686939178	 0.135161
H	 0.4300471825	-2.6725634672	-0.9253416222	 0.094347
H	 2.5945425235	-0.8294985552	-1.667769144	 0.225708
77.5698	82.3976	152.6194	216.2514	276.7124	334.5942	389.9458	419.3515	475.6826	482.8737	592.7327	648.0026	712.9515	781.4068	788.9874	815.7554	862.31	890.1051	948.2378	979.8372	1002.5081	1052.2342	1079.252	1085.9225	1107.4301	1140.4395	1145.2287	1190.0692	1214.0847	1256.1345	1268.1281	1291.6565	1310.8721	1359.1328	1368.2524	1407.125	1427.1795	1448.4544	1460.1247	1476.2294	1499.7935	1508.5247	1849.3736	3021.3223	3027.4246	3032.8862	3036.8691	3070.3495	3080.0934	3080.739	3105.4059	3114.0883	3151.6156	3467.807
CCC12CC(=O)CC1N2	CC[C@]12CC(=O)C[C@H]1N2	
InChI=1S/C7H11NO/c1-2-7-4-5(9)3-6(7)8-7/h6,8H,2-4H2,1H3	InChI=1S/C7H11NO/c1-2-7-4-5(9)3-6(7)8-7/h6,8H,2-4H2,1H3/t6-,7+/m1/s1
