24
gdb 7822	2.91816	1.58752	1.11245	0.1281	85.3	-0.2864	0.0851	0.3715	1173.3268	0.225305	-314.310943	-314.302314	-314.30137	-314.343317	34.296	
C	-0.0318641995	 1.5677518269	 0.0053530499	-0.402894
C	 0.0177941376	 0.0370415217	-0.0075050251	 0.038723
C	 0.6904545746	-0.5006228205	-1.2820886659	-0.174423
C	 0.7639077184	-2.0330369061	-1.2900934632	-0.215551
C	 1.4623987666	-2.5672107438	-0.0329062568	-0.174424
C	 0.7989104537	-2.0541130398	 1.2565239001	 0.038724
C	 1.5144724523	-2.5720141966	 2.5077028762	-0.402894
C	 0.7241107058	-0.5178657011	 1.2411259776	-0.170487
H	 0.9789198296	 1.9930371669	-0.0039824849	 0.110009
H	-0.5630100747	 1.9568286694	-0.8701174617	 0.107035
H	-0.5404969998	 1.9429485203	 0.9000629004	 0.107038
H	-1.01782942	-0.3366969067	 0.003223803	 0.064779
H	 0.1539630465	-0.1405699332	-2.168427772	 0.084508
H	 1.7079500376	-0.0873337878	-1.3469256015	 0.086616
H	-0.2540529422	-2.4441940129	-1.3412316162	 0.089896
H	 1.2832822144	-2.382832485	-2.1897293674	 0.087114
H	 1.4700861023	-3.6640085485	-0.0386245613	 0.084508
H	 2.5158426746	-2.250159642	-0.0395718445	 0.086616
H	-0.2334301093	-2.4366414323	 1.2725646193	 0.064779
H	 2.551724506	-2.2175859316	 2.5412846366	 0.110009
H	 1.0178828021	-2.2292643841	 3.4219813723	 0.107038
H	 1.5377377031	-3.6669762391	 2.5292482818	 0.107035
H	 1.7460028779	-0.1100305587	 1.2843437813	 0.083746
H	 0.2143942125	-0.1615082854	 2.145648762	 0.082499
147.1635	152.6734	235.8727	238.5566	244.2987	285.2159	346.3932	406.0595	417.0812	438.4957	451.5474	538.7272	773.9139	827.5443	855.6855	859.4494	881.7359	945.0996	961.1041	962.9586	992.6862	1010.3252	1046.5926	1070.9661	1092.1351	1125.8783	1127.3393	1194.0814	1197.8166	1243.7198	1291.1738	1292.0212	1301.8516	1335.1276	1339.9767	1373.1804	1373.4895	1381.3968	1387.7044	1396.8334	1411.4524	1413.8014	1477.344	1480.5808	1488.3275	1496.7456	1497.5665	1500.4545	1500.6062	1502.31	2979.939	2981.6608	2993.5444	3001.1161	3003.9051	3011.0887	3022.2577	3023.4696	3040.5295	3048.901	3053.1987	3060.1463	3088.2832	3089.1174	3093.2963	3093.7699
CC1CCCC(C)C1	C[C@H]1CCC[C@@H](C)C1	
InChI=1S/C8H16/c1-7-4-3-5-8(2)6-7/h7-8H,3-6H2,1-2H3	InChI=1S/C8H16/c1-7-4-3-5-8(2)6-7/h7-8H,3-6H2,1-2H3/t7-,8+
