18
gdb 40846	5.34021	0.84498	0.78543	1.248	78.1	-0.2344	0.0215	0.2559	1471.2403	0.148293	-439.075774	-439.067535	-439.066591	-439.109593	30.043	
C	-0.1419693458	 1.3477583678	-0.1026699368	-0.268963
C	 1.2953659911	 0.9979455982	 0.1654053902	-0.268344
C	 0.2654406623	-0.1023404564	 0.0385048886	 0.048427
N	-0.1194967137	-0.7589012112	 1.2431908201	-0.321566
C	-0.4121645035	-1.9803286137	 1.2378847766	 0.399062
C	-0.861858016	-2.8041475494	 2.4261236836	-0.191974
O	-0.7388609331	-4.1447252443	 1.9702034688	-0.237113
C	-0.8930999448	-4.0863260513	 0.578433103	 0.022666
O	-0.3837401111	-2.8250399392	 0.1538536089	-0.246113
H	-0.7172929839	 1.7671740638	 0.7140280402	 0.120301
H	-0.4207801111	 1.6997300156	-1.0895560967	 0.111383
H	 2.0190846693	 1.105595265	-0.63471134	 0.111774
H	 1.6803880889	 1.1842477457	 1.1608382653	 0.120839
H	 0.2899273312	-0.6980558746	-0.8702924595	 0.096245
H	-0.2244119686	-2.6593822002	 3.2996044174	 0.147202
H	-1.9008710349	-2.5611932793	 2.6974433506	 0.122936
H	-0.3102427726	-4.8864903908	 0.1150169427	 0.131052
H	-1.9525125238	-4.1576572558	 0.2806041171	 0.102187
52.2633	107.1454	140.1549	163.5734	217.2356	327.3669	419.7683	447.7633	602.5154	715.8602	749.9522	773.8705	823.0043	844.0265	878.9517	934.0481	980.9981	991.7915	1010.0143	1052.9699	1056.4371	1070.2074	1108.6152	1129.5354	1146.588	1189.6718	1199.266	1201.3035	1216.6888	1238.7962	1245.2333	1346.3166	1401.9441	1437.0834	1457.5154	1493.8753	1501.4484	1544.0672	1819.6087	2966.8515	2992.2218	3097.229	3120.2084	3134.1198	3138.399	3144.0894	3224.0194	3238.3957
C1CC1N=C1COCO1	C1CC1N=C1COCO1	
InChI=1S/C6H9NO2/c1-2-5(1)7-6-3-8-4-9-6/h5H,1-4H2	InChI=1S/C6H9NO2/c1-2-5(1)7-6-3-8-4-9-6/h5H,1-4H2
