22
gdb 60001	3.84939	0.81389	0.73849	3.1383	79.01	-0.2326	0.056	0.2886	1604.3903	0.193651	-441.459626	-441.449657	-441.448713	-441.494718	37.438	
C	-0.0732006898	 1.555960182	 0.1509157576	-0.407063
C	-0.0298000564	 0.0327520767	 0.0781267079	 0.116938
O	 0.7274357162	-0.5044833208	 1.1824872426	-0.432205
C	-1.4233920211	-0.6027218864	-0.0050948818	-0.217376
C	-1.4010071727	-2.1300442136	-0.1959420315	 0.094839
O	-0.795135567	-2.7897242212	 0.9031941653	-0.45471
C	-2.807048529	-2.6829697094	-0.3555372242	 0.014876
C	-3.1083860394	-4.0918321327	-0.0180833484	-0.248413
N	-3.6018748237	-2.9948658809	 0.8420364513	-0.327856
H	 0.9377915977	 1.9629621726	 0.2389236476	 0.129203
H	-0.5419194749	 1.9779025966	-0.7432246071	 0.126089
H	-0.6568789527	 1.8880021857	 1.0186683044	 0.114042
H	 0.5499750549	-0.269747676	-0.802718516	 0.098812
H	 0.3478747963	-0.1482069532	 1.9948279891	 0.286226
H	-1.9933172619	-0.3616100329	 0.9030491613	 0.099327
H	-1.9626669052	-0.150068017	-0.8463280947	 0.102299
H	-0.841673813	-2.3470414807	-1.1249982663	 0.065564
H	-0.0295904681	-2.2526834794	 1.1590047489	 0.290826
H	-3.3747324923	-2.2070666288	-1.1535544576	 0.080211
H	-3.8787112764	-4.6265212314	-0.5667133458	 0.108217
H	-2.2920664089	-4.7004590896	 0.3566115145	 0.12685
H	-2.9697694626	-2.9344999098	 1.639419663	 0.233306
67.8545	73.5663	142.226	156.1313	244.1064	266.8592	289.554	319.7509	328.8224	358.6611	451.1994	475.8889	541.3656	633.1219	672.9749	786.2064	839.7182	860.483	877.5792	928.7013	943.4397	981.9484	997.9107	1021.6561	1066.9461	1076.2549	1104.1093	1131.516	1153.7422	1163.7323	1189.5348	1218.0852	1276.8725	1283.556	1310.3615	1319.0191	1333.6962	1367.049	1386.6153	1405.2928	1408.3617	1418.8778	1462.1743	1480.8805	1492.2611	1496.178	1503.4015	2925.5705	3014.817	3026.9148	3039.2993	3066.0366	3099.626	3115.0482	3121.0903	3121.7453	3210.3416	3480.2957	3684.1812	3789.6228
CC(O)CC(O)C1CN1	C[C@@H](O)C[C@@H](O)[C@H]1CN1	
InChI=1S/C6H13NO2/c1-4(8)2-6(9)5-3-7-5/h4-9H,2-3H2,1H3	InChI=1S/C6H13NO2/c1-4(8)2-6(9)5-3-7-5/h4-9H,2-3H2,1H3/t4-,5-,6-/m1/s1
