16
gdb 69011	2.80197	1.34329	1.13631	2.6182	75.93	-0.2632	-0.0386	0.2247	1098.7185	0.123347	-400.763844	-400.755434	-400.754489	-400.796977	31.004	
C	-0.0231118866	 1.5642979538	 0.0486620412	-0.493152
C	 0.051035948	 0.0670983142	-0.0011437875	 0.15556
C	-0.8357092218	-0.842465115	 0.826869685	-0.35693
C	 0.6460814488	-0.9831303725	 1.0132646277	 0.158314
C	 1.2167462108	-1.8366875703	-0.1355045913	-0.417424
C	 0.671886529	-0.7540728392	-1.1034648054	 0.386785
O	 0.8462246166	-0.5406815463	-2.26742759	-0.301244
C	 1.3129255028	-0.69634178	 2.2378385255	 0.199213
N	 1.860702443	-0.4571121808	 3.229342077	-0.341257
H	 0.9086329634	 2.0154072714	-0.3036167806	 0.145213
H	-0.8348329758	 1.9264674073	-0.5904946091	 0.147205
H	-0.2128258813	 1.9139369337	 1.0676621355	 0.140451
H	-1.3707998713	-0.3292569496	 1.6191191168	 0.150052
H	-1.3847054557	-1.6616653077	 0.370907818	 0.135846
H	 2.3086800179	-1.8615052567	-0.1722786098	 0.15584
H	 0.8247438423	-2.8534060524	-0.221613553	 0.135526
90.1816	118.3802	150.5757	195.8944	249.3571	314.819	389.5653	459.3553	513.3747	564.076	574.951	608.3703	664.6245	689.9037	768.5964	859.1079	959.3662	973.9631	986.5332	1031.2509	1079.1991	1097.8396	1112.538	1155.8256	1210.5965	1226.3556	1338.196	1373.9382	1419.6179	1456.58	1481.3452	1494.4269	1497.8484	1889.1941	2347.355	3041.9307	3067.021	3109.4814	3119.9697	3121.1477	3126.9733	3213.5809
CC12CC1(CC2=O)C#N	C[C@]12C[C@]1(CC2=O)C#N	
InChI=1S/C7H7NO/c1-6-3-7(6,4-8)2-5(6)9/h2-3H2,1H3	InChI=1S/C7H7NO/c1-6-3-7(6,4-8)2-5(6)9/h2-3H2,1H3/t6-,7-/m1/s1
