21
gdb 120762	3.24889	0.82342	0.72098	2.3854	80.85	-0.2502	0.0844	0.3347	1639.8601	0.180519	-424.178335	-424.168599	-424.167655	-424.214162	35.021	
C	-0.0633190148	 1.4555943341	-0.1914308694	-0.386166
C	-0.1448287654	-0.0165641014	 0.171864847	-0.032406
O	-1.2385356244	-0.5910842576	-0.5299880088	-0.24971
C	-1.4035832251	-1.9495644736	-0.2776976601	 0.119159
C	-2.1597796467	-2.3854841439	 0.9508860412	-0.334108
C	-2.7909836523	-2.5045101044	-0.4280513022	-0.078767
C	-3.9186792899	-1.6031914359	-0.8014238892	 0.104971
C	-4.7483444326	-1.8470037288	-1.9873606372	-0.187189
O	-5.2384447753	-2.1505132658	-0.6800101041	-0.24492
H	 0.7730350671	 1.9299688326	 0.3304439895	 0.116722
H	 0.0836573068	 1.5789065495	-1.2681290324	 0.128074
H	-0.9854503421	 1.9723862713	 0.0895971061	 0.126391
H	 0.7877225723	-0.5367764021	-0.1010469212	 0.088714
H	-0.2834997206	-0.1475661646	 1.2560529835	 0.093444
H	-0.569659202	-2.5704219652	-0.6100931573	 0.086026
H	-1.8613057658	-3.2899199617	 1.4689648429	 0.115087
H	-2.5425809678	-1.5970367798	 1.5906615024	 0.122788
H	-2.8686724258	-3.5045200648	-0.8442152121	 0.092056
H	-3.8249262735	-0.5771487877	-0.450510825	 0.098746
H	-5.2349441733	-1.0129038695	-2.4916742564	 0.112782
H	-4.5399420386	-2.7095744906	-2.6200304773	 0.108306
54.5401	71.8022	81.1955	121.9696	191.5859	246.6458	259.4859	324.8726	360.6384	433.166	505.7799	595.6254	774.654	815.9864	822.1335	842.9831	855.7561	904.7683	945.3165	961.4578	1014.1238	1030.8952	1054.7044	1084.1257	1100.6793	1131.9928	1149.1178	1152.4048	1171.8581	1184.3053	1188.6403	1207.6722	1248.1003	1289.9553	1294.6944	1324.5328	1375.549	1404.9942	1438.0483	1461.4134	1483.8623	1489.9499	1499.6733	1528.0809	1533.0164	2971.3123	3003.5325	3045.1571	3077.0236	3082.4241	3119.9081	3121.6217	3130.2164	3133.3579	3154.9792	3163.4844	3222.7835
CCOC1CC1C1CO1	CCO[C@H]1C[C@H]1[C@H]1CO1	
InChI=1S/C7H12O2/c1-2-8-6-3-5(6)7-4-9-7/h5-7H,2-4H2,1H3	InChI=1S/C7H12O2/c1-2-8-6-3-5(6)7-4-9-7/h5-7H,2-4H2,1H3/t5-,6+,7-/m1/s1
