19
gdb 112191	2.56551	1.27781	0.9401	3.6461	78.77	-0.2396	0.0135	0.2531	1285.7406	0.158554	-419.177582	-419.168567	-419.167623	-419.211415	33.598	
C	 0.0246627584	 1.6344993545	-0.0628930143	-0.386879
C	-0.3036082931	 0.152737634	-0.2698584181	-0.188406
C	 0.7057371966	-0.5599900851	-1.1570768897	-0.025125
N	 2.0603653284	-0.7381464772	-0.5690416169	-0.372397
C	 2.125755914	-2.11106045	-0.8452222516	 0.319707
N	 2.9964778241	-3.0242392224	-0.8013660625	-0.546244
C	 0.6692582003	-2.1008769785	-1.2582459708	 0.349932
C	-0.395170679	-3.0722379518	-1.0089910901	-0.257327
O	 0.1218351736	-2.8326461263	-2.326216154	-0.261467
H	 0.9993934698	 1.7548535036	 0.4216951828	 0.119432
H	 0.0533470968	 2.1728466391	-1.0168555233	 0.116852
H	-0.7223760734	 2.1200651841	 0.571552281	 0.12039
H	-0.3447150704	-0.3605700071	 0.6977742422	 0.103219
H	-1.2950215293	 0.052669003	-0.7302753773	 0.104855
H	 0.7339144944	-0.1093852675	-2.158472447	 0.092187
H	 2.829987648	-0.0941358113	-0.6830965687	 0.241221
H	 3.9088477837	-2.6690765188	-0.5098409517	 0.211976
H	-0.137368888	-4.0373031028	-0.5777073016	 0.13816
H	-1.4126639048	-2.7249156596	-0.8372220083	 0.119917
88.8042	110.3904	140.7606	221.9669	234.4463	239.6506	306.6898	332.7158	415.8444	478.5768	575.4625	622.8105	698.3677	736.1407	803.4526	836.6434	863.4509	912.7605	925.5041	964.9595	991.5801	1055.3393	1070.4179	1098.762	1123.31	1136.1016	1163.9323	1172.332	1203.8237	1293.1012	1301.5125	1338.4423	1359.3572	1405.149	1411.9231	1448.303	1477.4771	1500.304	1507.3165	1534.5098	1802.2828	3016.7435	3026.0242	3032.703	3067.9425	3090.5316	3101.5495	3109.1296	3185.1596	3461.079	3601.751
CCC1NC(=N)C11CO1	CC[C@H]1N[C]([NH])[C@]21CO2	
InChI=1S/C6H10N2O/c1-2-4-6(3-9-6)5(7)8-4/h4H,2-3H2,1H3,(H2,7,8)	InChI=1S/C6H10N2O/c1-2-4-6(3-9-6)5(7)8-4/h4H,2-3H2,1H3,(H2,7,8)/t4-,6-/m1/s1
