23
gdb 119635	4.23972	0.94757	0.90915	0.2551	89.18	-0.2414	0.0832	0.3246	1422.1789	0.206422	-351.114459	-351.105789	-351.104845	-351.148074	34.145	
C	 0.0090233983	 1.5841741055	 0.0037914878	-0.379243
C	-0.0192838922	 0.0535748719	-0.0121758208	-0.163863
C	-1.4431212913	-0.5200693979	 0.0306626138	-0.321032
C	-1.4803954111	-2.0282887698	 0.0152432337	 0.358862
C	-1.014511454	-2.843568674	-1.2320723288	-0.267236
C	-1.9758720259	-3.9278362564	-0.7577304291	-0.062212
C	-1.9223545708	-3.9448582189	 0.7785796906	-0.062216
C	-0.9294665029	-2.8706257127	 1.2087520581	-0.267237
C	-2.7835569497	-2.9425130255	 0.0505040385	-0.148086
H	 1.0343702203	 1.9659173832	-0.0274673006	 0.10978
H	-0.5273995465	 1.9988661937	-0.8570999689	 0.112937
H	-0.4662916904	 1.9793166898	 0.9086622479	 0.112937
H	 0.4917445981	-0.3133183911	-0.9114342595	 0.100639
H	 0.5522904715	-0.33272758	 0.8413423835	 0.100643
H	-1.9551822563	-0.1526849658	 0.931277476	 0.090792
H	-2.0158188364	-0.1332445579	-0.8241273475	 0.09079
H	-1.3634905565	-2.3823022618	-2.1615586233	 0.091588
H	 0.0538742996	-3.0773402318	-1.3164668934	 0.083513
H	-2.3417512842	-4.7856397282	-1.3076902765	 0.080353
H	-2.2497465134	-4.8148991261	 1.3335514912	 0.080353
H	 0.1420212013	-3.105387667	 1.2133863909	 0.083516
H	-1.2125490692	-2.4303313069	 2.1702633	 0.091588
H	-3.8416733286	-2.7269691524	 0.0897581764	 0.082837
73.253	83.7234	126.0594	248.4312	305.8829	311.6732	325.2834	436.4104	447.0802	671.6701	717.8295	745.482	752.3791	782.7502	802.5414	865.4455	876.6297	915.6977	917.1782	935.4027	959.1419	988.7071	1007.2482	1019.2788	1032.5001	1042.9257	1048.4052	1081.9558	1123.649	1128.8466	1146.5791	1170.6482	1200.8656	1238.2642	1245.9914	1268.8389	1293.308	1304.5172	1333.0857	1341.3316	1367.3771	1392.9555	1411.9809	1480.8451	1489.819	1492.5266	1500.0854	1507.4105	1510.414	2998.8207	3017.4921	3021.4711	3026.6361	3027.1432	3028.4822	3056.9977	3079.808	3082.8117	3095.3951	3100.6826	3188.3026	3194.8876	3219.7289
CCCC12CC3C(C1)C23	CCC[C@@]12C[C@H]3[C@@H](C1)[C@@H]23	
InChI=1S/C9H14/c1-2-3-9-4-6-7(5-9)8(6)9/h6-8H,2-5H2,1H3	InChI=1S/C9H14/c1-2-3-9-4-6-7(5-9)8(6)9/h6-8H,2-5H2,1H3/t6-,7+,8-,9+
