20
gdb 114016	3.14338	0.75589	0.65838	3.2266	77.58	-0.2235	-0.0239	0.1996	1706.6441	0.168288	-440.2447	-440.234563	-440.233618	-440.281239	35.372	
C	-0.0117479371	 0.9465872001	-0.3106081884	-0.245003
O	-0.4261868106	-0.2442688682	 0.3428588086	-0.243874
C	 0.4722232657	-0.6499064814	 1.3307623505	 0.1027
C	 0.3637109302	-2.0747852448	 1.7851598623	-0.348704
C	 1.5596754994	-1.6205762161	 0.9483504153	 0.005068
N	 1.6826647338	-1.9789851412	-0.4374210071	-0.31983
C	 2.0635365426	-3.3625172788	-0.6785808302	-0.213901
C	 2.4488213277	-3.5679696833	-2.1333258523	 0.148221
O	 2.3104514497	-4.5999658392	-2.7359002067	-0.237501
H	 0.9572318497	 0.8169496607	-0.8101720496	 0.125562
H	-0.7759770817	 1.1846715928	-1.0537605461	 0.130486
H	 0.0668872342	 1.7822611886	 0.399991376	 0.112882
H	 0.7004791059	 0.1199334863	 2.0686945676	 0.088789
H	 0.4932340534	-2.2951345485	 2.8391636748	 0.11557
H	-0.3825542529	-2.6780927573	 1.2785911916	 0.12453
H	 2.516139751	-1.5290925398	 1.4578118259	 0.095663
H	 0.806904203	-1.7631942951	-0.9040327028	 0.231603
H	 2.9682314629	-3.5761791392	-0.0889234073	 0.131005
H	 1.3157743021	-4.1192817204	-0.3934904487	 0.113391
H	 2.8945246411	-2.6625320553	-2.6045312736	 0.083342
55.3995	65.5825	75.3052	125.9353	141.5288	199.5573	235.7835	290.0669	319.9114	421.63	481.6191	520.2855	645.9527	741.0757	754.8445	804.1818	840.8413	890.6037	974.099	1030.4105	1043.3148	1059.0662	1078.6778	1087.2937	1128.7306	1145.2703	1157.0497	1185.2915	1191.2979	1230.4748	1254.4865	1274.8948	1320.5684	1363.6397	1396.1522	1407.2222	1462.657	1471.9203	1487.4632	1488.9906	1510.2686	1516.5995	1839.7622	2881.5264	2981.2363	2993.3034	3022.5561	3053.3908	3093.2926	3124.0159	3130.6566	3133.1898	3222.6356	3518.2911
COC1CC1NCC=O	CO[C@H]1C[C@H]1NCC=O	
InChI=1S/C6H11NO2/c1-9-6-4-5(6)7-2-3-8/h3,5-7H,2,4H2,1H3	InChI=1S/C6H11NO2/c1-9-6-4-5(6)7-2-3-8/h3,5-7H,2,4H2,1H3/t5-,6+/m1/s1
