15
gdb 66047	2.39208	1.37099	1.11655	5.1034	70.6	-0.3124	-0.0158	0.2966	1110.3168	0.111963	-416.815481	-416.806875	-416.805931	-416.848911	31.17	
O	-0.1207745346	 1.4252106029	-0.0458508338	-0.443848
C	 0.0174249998	 0.0273761515	-0.0235354032	 0.261536
C	 0.2053968046	-0.5577490936	 1.4130791061	-0.274743
C	-1.3336799494	-0.7051412342	 1.5249829985	-0.242644
C	-1.4178491935	-0.6109916864	-0.0310223941	-0.186486
C	-2.4950601048	 0.1487346867	-0.6382165774	 0.304441
N	-3.3738380766	 0.7378510112	-1.1025585607	-0.318661
C	 0.9521305637	-0.4421369774	-1.0538049051	 0.232487
N	 1.7116595045	-0.8159846809	-1.8407135797	-0.322021
H	 0.7459458438	 1.8265900948	 0.0875516117	 0.301749
H	 0.7231338497	-1.5190532074	 1.397387198	 0.135248
H	 0.7035951247	 0.1143905884	 2.1132718553	 0.126133
H	-1.7221873849	-1.6211408472	 1.9687142662	 0.130172
H	-1.7996253957	 0.1583735399	 1.9993290247	 0.147451
H	-1.3732030513	-1.6051345282	-0.4823843264	 0.149185
79.6134	133.2334	145.3228	197.4851	233.2134	295.5346	361.7045	379.679	471.875	507.3348	557.5254	597.7831	624.737	739.2598	783.077	920.9048	945.7033	967.4578	975.8968	1066.7878	1094.8205	1130.3348	1156.9238	1217.086	1254.4838	1271.0374	1285.4451	1332.1293	1369.5048	1468.558	1491.59	2351.935	2364.0521	3079.1527	3090.5123	3100.308	3138.4034	3163.1423	3802.5484
OC1(CCC1C#N)C#N	O[C@]1(CC[C@H]1C#N)C#N	
InChI=1S/C6H6N2O/c7-3-5-1-2-6(5,9)4-8/h5,9H,1-2H2	InChI=1S/C6H6N2O/c7-3-5-1-2-6(5,9)4-8/h5,9H,1-2H2/t5-,6+/m0/s1
