17
gdb 113631	3.2544	0.97132	0.93367	2.9739	78.37	-0.2573	-0.0542	0.2031	1339.0707	0.132515	-421.773911	-421.764358	-421.763414	-421.809162	33.79	
C	-0.0662728393	 1.305146905	-0.0553905868	-0.231892
O	-0.3038310754	 0.1568704532	 0.7376344102	-0.225739
C	-1.3876305489	-0.5879089731	 0.3101695637	 0.141117
C	-1.2670937049	-1.512885881	-0.8583697393	-0.333219
C	-1.3365454259	-2.0901379959	 0.5457622512	-0.187523
C	-0.0847405287	-2.676204929	 1.115972573	 0.273777
O	 1.0066077936	-2.5711109997	 0.597324973	-0.305627
C	-0.262509377	-3.3936743249	 2.3686016644	 0.243491
C	-0.4217533694	-3.9943902797	 3.3995675734	-0.414968
H	 0.8034091221	 1.8091345074	 0.3706746172	 0.135327
H	 0.1453410074	 1.0382813732	-1.0997088084	 0.116039
H	-0.9245411359	 1.993594781	-0.0366371111	 0.106126
H	-2.3568402921	-0.1163054989	 0.4854128661	 0.094117
H	-2.1164495483	-1.6580215117	-1.5158044979	 0.117949
H	-0.2852095631	-1.5899944758	-1.3128934689	 0.150658
H	-2.2576450387	-2.5453822478	 0.8910027984	 0.107984
H	-0.5415519055	-4.5254173223	 4.3124761516	 0.212383
42.8556	78.334	135.783	141.6825	193.7932	227.936	266.6178	292.579	440.5169	453.0932	524.5133	598.5161	641.2252	697.8545	740.1352	795.1022	809.1553	845.7012	958.1552	979.6424	1059.2471	1078.9943	1095.0008	1123.4284	1133.3689	1169.9948	1182.4623	1211.7316	1263.8523	1385.9784	1396.2571	1459.3788	1486.5974	1488.4709	1506.679	1758.5566	2211.839	2987.7315	3044.8066	3080.3344	3128.6962	3138.4444	3179.8214	3236.7211	3495.9657
COC1CC1C(=O)C#C	CO[C@H]1C[C@H]1C(=O)C#C	
InChI=1S/C7H8O2/c1-3-6(8)5-4-7(5)9-2/h1,5,7H,4H2,2H3	InChI=1S/C7H8O2/c1-3-6(8)5-4-7(5)9-2/h1,5,7H,4H2,2H3/t5-,7-/m0/s1
