13
gdb 133317	2.38074	1.87956	1.05111	4.1485	64.97	-0.2313	-0.0295	0.2018	1021.0967	0.089644	-494.048721	-494.04129	-494.040346	-494.080373	28.558	
N	-0.0355120283	 1.3607648404	-0.1421227675	-0.565536
C	-0.0089127676	-0.0103119676	-0.0578774743	 0.307949
C	-1.1888274002	-0.7602073313	-0.0837024441	 0.086869
F	-2.3924295323	-0.1526939233	-0.126392638	-0.092392
C	-1.1156056487	-2.1328783386	-0.0567131258	 0.273629
O	-2.2001298105	-2.9336549864	-0.076307741	-0.425924
C	 0.1784576249	-2.6791134045	-0.005504219	-0.062645
N	 1.2707778818	-1.9323355259	 0.0260326247	-0.203283
N	 1.1895078418	-0.6058493681	 0.0063780015	-0.288749
H	 0.8339147509	 1.80029329	 0.1224643332	 0.266801
H	-0.8697836239	 1.8230680021	 0.1821911473	 0.261394
H	-2.9918942319	-2.3823866846	-0.1168009514	 0.311389
H	 0.311682834	-3.7553545122	 0.0156714344	 0.130497
144.9225	241.7335	261.5396	290.0352	305.9505	393.9057	450.082	491.9252	516.8756	546.9006	580.3143	590.0442	652.4047	707.9615	780.5332	869.5405	898.3008	1036.4957	1111.0229	1169.6455	1211.924	1272.9104	1303.6128	1383.8788	1445.2709	1537.3706	1603.9258	1623.9584	1666.9552	3192.6588	3579.345	3698.1972	3789.0968
NC1=C(F)C(O)=CN=N1	Nc1c(F)c(O)cnn1	
InChI=1S/C4H4FN3O/c5-3-2(9)1-7-8-4(3)6/h1H,(H3,6,8,9)	InChI=1S/C4H4FN3O/c5-3-2(9)1-7-8-4(3)6/h1H,(H3,6,8,9)
