16
gdb 42920	2.94418	1.32144	1.01372	2.7476	69.59	-0.2442	-0.027	0.2171	1146.2553	0.123789	-437.820385	-437.812649	-437.811705	-437.85342	28.687	
O	-0.2364037873	-0.0068928905	-0.0640661557	-0.302093
C	-0.1806846427	 1.1814205288	 0.034979281	 0.434354
C	-1.1770433975	 2.3112418328	-0.0973450548	-0.193063
N	-0.9296858071	 3.1712275563	 1.1147453277	-0.3285
C	-0.0461382634	 3.301488452	-0.0465493286	-0.067817
C	 1.016794857	 2.1982310239	 0.1153836843	-0.146894
C	 1.9071492224	 2.2187351676	 1.3230864591	 0.074919
C	 3.1233191574	 1.4000685781	 1.3887374714	-0.175684
O	 3.2047018711	 2.8053976623	 1.1482251552	-0.2417
H	-2.1304532031	 2.3391589315	-0.6084452769	 0.120758
H	-1.6255358184	 3.9158735436	 1.073828117	 0.244646
H	 0.04920241	 4.2252359058	-0.6011815881	 0.117492
H	 1.6182371921	 2.0718813761	-0.7917337199	 0.111676
H	 1.4116495104	 2.4899168509	 2.2531807035	 0.114977
H	 3.4940657077	 1.0653477184	 2.3561700368	 0.118854
H	 3.3882315714	 0.7633403424	 0.5456045383	 0.118075
62.3807	114.9924	155.704	205.3705	310.9418	359.2735	518.7557	537.2006	601.7211	704.0144	790.0608	828.1755	842.6391	859.2946	881.6075	908.1924	939.4886	983.0144	1012.6766	1044.1662	1096.6558	1099.7885	1102.3482	1149.4159	1160.1722	1166.1322	1185.3188	1234.725	1287.1574	1296.4966	1317.9927	1350.6379	1444.6238	1529.2202	1899.9421	3063.8469	3085.1503	3139.1692	3172.5234	3205.0395	3216.7519	3474.3954
O=C1C2NC2C1C1CO1	O=C1[C@H]2N[C@H]2[C@H]1[C@H]1CO1	
InChI=1S/C6H7NO2/c8-6-3(2-1-9-2)4-5(6)7-4/h2-5,7H,1H2	InChI=1S/C6H7NO2/c8-6-3(2-1-9-2)4-5(6)7-4/h2-5,7H,1H2/t2-,3-,4+,5+/m1/s1
