16
gdb 51022	2.19053	1.4144	1.01077	3.246	72.06	-0.253	-0.005	0.2479	1184.9202	0.123824	-434.035662	-434.026869	-434.025925	-434.069993	30.959	
N	-0.1296592981	 1.3129303449	 0.1111361454	-0.427813
C	-0.0359178575	 0.0601761363	 0.0448163286	 0.116011
O	-1.1680427493	-0.678610784	-0.1087602683	-0.229859
C	-1.0385020735	-2.0881150107	-0.0315616309	 0.259936
C	-0.8389184524	-2.6485676771	 1.4135854174	-0.21424
N	-2.2942024306	-2.8850929827	 1.500516217	-0.308413
C	-2.452923041	-2.726125254	 0.038727447	-0.20618
C	-0.1327315563	-2.6075968721	-1.0591003589	 0.240025
N	 0.5877636258	-3.0315493074	-1.857405161	-0.331043
H	 0.7945448105	 1.7300300034	 0.2020667047	 0.238961
H	 0.882902905	-0.5373098215	 0.0798989283	 0.11215
H	-0.2101009642	-3.5474315488	 1.4214731184	 0.120979
H	-0.4492152999	-1.9249776008	 2.1369049767	 0.13102
H	-2.5601885386	-3.790917211	 1.8663973784	 0.233202
H	-3.2536763214	-2.0465986731	-0.2647892858	 0.143715
H	-2.5156720186	-3.6572035313	-0.5364442171	 0.121547
70.4131	93.9286	112.2945	155.0098	183.879	236.0328	369.5584	415.5781	495.0992	541.5627	563.5928	663.3741	723.2321	823.254	913.4289	914.8527	920.2803	1003.8027	1038.2348	1041.6578	1065.3844	1083.0597	1132.4602	1150.2944	1200.685	1245.2052	1273.6807	1279.3216	1361.1349	1382.6386	1426.6876	1490.9298	1514.1079	1751.0504	2352.5273	3021.5312	3035.0015	3051.1089	3079.511	3100.8857	3520.3692	3555.6787
N=COC1(CNC1)C#N	[NH][CH]OC1(CNC1)C#N	
InChI=1S/C5H7N3O/c6-1-5(9-4-7)2-8-3-5/h4,7-8H,2-3H2	InChI=1S/C5H7N3O/c6-1-5(9-4-7)2-8-3-5/h4,7-8H,2-3H2
