22
gdb 83642	2.31185	1.64776	1.27849	2.0253	82.39	-0.2053	0.0779	0.2833	1117.8057	0.192661	-404.303581	-404.294296	-404.293351	-404.336836	35.846	
C	-0.063723105	 1.5818679985	-0.0320949531	-0.336629
N	-0.0817127374	 0.1470949091	 0.1291133021	-0.105448
C	-1.3347417536	-0.5385894331	 0.478675927	-0.046963
C	-1.5642516432	-1.7985852619	-0.3736009963	-0.080612
O	-0.6625624901	-2.5635155382	 0.4711091978	-0.299297
C	-0.5421673222	-1.4802443166	 1.4109564946	 0.07259
C	 0.6885778081	-0.5449972988	 1.2168018685	 0.286395
C	 1.9750921195	-1.1876513781	 0.7186352258	-0.426758
C	 0.9094519883	 0.2999833617	 2.4750946321	-0.44013
H	 0.9574213915	 1.9199836689	-0.2384107631	 0.121796
H	-0.6776071463	 1.8572068555	-0.8971050356	 0.119566
H	-0.4388989668	 2.1506761332	 0.8382440794	 0.09147
H	-2.1838789109	 0.0859151423	 0.7691735998	 0.07098
H	-2.5813643032	-2.2105359285	-0.330501367	 0.094148
H	-1.2193057288	-1.7403857167	-1.4106583211	 0.106192
H	-0.8039826713	-1.7732934598	 2.4309669687	 0.07149
H	 1.755536124	-1.8772836972	-0.09839098	 0.133271
H	 2.6706424805	-0.4231625492	 0.3544987494	 0.108207
H	 2.4756848076	-1.7418530924	 1.520327576	 0.108092
H	 1.3435089609	-0.3163230818	 3.2692972222	 0.118531
H	 1.5967849236	 1.1300519525	 2.2827784492	 0.118573
H	-0.0295363753	 0.7202879305	 2.8515449237	 0.114537
108.0782	194.4548	204.5136	214.8996	223.9996	248.2286	278.0257	302.4256	330.0999	394.8168	434.3355	543.5728	606.3104	706.4683	801.0851	826.5255	880.9689	906.7095	939.349	960.0373	975.0337	998.7283	1004.6352	1036.1113	1071.8084	1146.8802	1156.8261	1178.1968	1185.0179	1195.7229	1203.3455	1229.2611	1262.2404	1276.7989	1311.6846	1345.7406	1354.8936	1396.1407	1412.3051	1454.4499	1478.5139	1479.5766	1492.3625	1496.0599	1500.4421	1504.3661	1512.2306	2938.3578	3009.0036	3027.8939	3033.3153	3049.0642	3064.5219	3078.5285	3083.2172	3090.6139	3092.1187	3098.3038	3103.9942	3135.3408
CN1C2COC2C1(C)C	CN1[C@H]2CO[C@H]2C1(C)C	
InChI=1S/C7H13NO/c1-7(2)6-5(4-9-6)8(7)3/h5-6H,4H2,1-3H3	InChI=1S/C7H13NO/c1-7(2)6-5(4-9-6)8(7)3/h5-6H,4H2,1-3H3/t5-,6+/m0/s1
