18
gdb 84704	3.12415	1.60902	1.14191	2.6524	79.09	-0.214	-0.0031	0.211	1075.0522	0.150613	-398.158816	-398.151041	-398.150096	-398.191411	28.956	
C	-0.0489095256	 1.5544882087	 0.0343542545	-0.376739
C	 0.0545057032	 0.0295144753	 0.019896511	-0.082576
N	 0.8604352333	-0.4665028584	-1.1278898136	-0.272671
C	 1.7695427998	-1.2275765119	-0.6414145674	 0.041341
N	 1.7220176206	-1.4137795653	 0.7294720604	-0.080568
C	 2.6170899641	-1.7895596196	 1.8161609193	-0.211338
C	 1.7739694461	-1.2702215113	 3.0390141398	-0.171103
N	 0.7124976584	-0.3906716783	 2.4960862852	-0.356446
C	 0.7501578626	-0.5504854202	 1.234747742	 0.388236
H	 0.9451802563	 2.0061935244	 0.093082863	 0.122185
H	-0.5333427111	 1.9045976771	-0.880105643	 0.129329
H	-0.6289999422	 1.8832124085	 0.9007502573	 0.13524
H	-0.9534567077	-0.3978247178	-0.0677335911	 0.119791
H	 2.5188337723	-1.7358961343	-1.2394291464	 0.134977
H	 2.7957857653	-2.8672193996	 1.8501544943	 0.123421
H	 3.5844482433	-1.2784217881	 1.7331706044	 0.119092
H	 1.3120622057	-2.1046710333	 3.5800705415	 0.118694
H	 2.3904585755	-0.721311516	 3.7561421986	 0.119135
95.9903	114.7995	152.7773	214.8565	267.9042	343.652	464.4174	569.655	621.4374	640.8104	746.3853	777.8104	833.1547	853.9753	897.9839	916.4821	942.7627	989.4021	1027.6214	1089.6244	1100.0141	1108.7936	1138.3087	1203.4171	1228.6375	1247.3717	1274.1678	1282.865	1317.564	1340.0392	1361.7815	1393.8135	1406.5742	1486.2225	1494.9334	1496.9865	1522.8905	1646.694	1742.6794	3020.9048	3021.4367	3035.234	3049.167	3080.6769	3094.6081	3125.0589	3134.3545	3194.5913
CC1N=CN2CCN=C12	C[C@H]1N=CN2CC[N][C]12	
InChI=1S/C6H9N3/c1-5-6-7-2-3-9(6)4-8-5/h4-5H,2-3H2,1H3	InChI=1S/C6H9N3/c1-5-6-7-2-3-9(6)4-8-5/h4-5H,2-3H2,1H3/t5-/m1/s1
