17
gdb 26277	3.58175	1.21962	0.99083	1.5224	77.38	-0.2567	-0.0575	0.1992	1188.9747	0.137389	-418.057376	-418.049354	-418.048409	-418.090653	29.994	
C	 0.1462089299	 1.3801685091	-0.4256170401	-0.390857
C	 0.0251112766	 0.000442574	 0.2435158347	 0.060434
O	 0.4302472615	 0.0686775909	 1.5893147646	-0.440842
C	-1.3933833749	-0.5382098492	 0.1321229651	 0.297315
C	-1.959319357	-0.9601350558	-1.076832889	-0.04659
N	-3.2074224948	-1.4118759472	-1.1625599682	-0.235049
C	-3.9068803778	-1.4430678677	-0.0233443561	-0.016929
C	-3.3555829287	-1.0328378076	 1.184200875	-0.018874
N	-2.1006889733	-0.5831914852	 1.2612709457	-0.32117
H	 1.1686482711	 1.7472987895	-0.3059091259	 0.13156
H	-0.0857567594	 1.3332458174	-1.494673964	 0.111578
H	-0.5352722307	 2.091779411	 0.0505110471	 0.123001
H	 0.6933683811	-0.6982574483	-0.2832341325	 0.090311
H	-0.3787231524	-0.0385579127	 2.1139998037	 0.289584
H	-1.3801489959	-0.936967331	-1.997112379	 0.119177
H	-4.927963381	-1.8096537966	-0.0774572448	 0.122791
H	-3.9274462243	-1.0689307203	 2.1073696636	 0.12456
36.0392	132.711	218.2613	256.8873	294.3175	380.682	398.1236	438.6235	475.2045	556.5862	626.7265	668.7981	793.3356	807.907	870.8815	918.2106	970.9334	991.609	1033.5609	1037.5582	1083.9022	1095.9128	1139.1411	1199.1303	1224.0869	1260.35	1293.4925	1329.873	1360.4127	1398.0531	1426.0636	1451.624	1490.3938	1495.7556	1507.1032	1583.2279	1619.5717	2984.4035	3037.743	3112.672	3126.1948	3155.401	3162.635	3181.6238	3681.2597
CC(O)C1=CN=CC=N1	C[C@@H](O)c1cnccn1	
InChI=1S/C6H8N2O/c1-5(9)6-4-7-2-3-8-6/h2-5,9H,1H3	InChI=1S/C6H8N2O/c1-5(9)6-4-7-2-3-8-6/h2-5,9H,1H3/t5-/m1/s1
