18
gdb 98357	3.75429	0.81171	0.7094	3.0225	71.11	-0.2553	-0.041	0.2143	1548.9813	0.144422	-476.248213	-476.237865	-476.236921	-476.285221	34.932	
C	-0.1149114661	 1.2984300581	 0.1449837615	-0.352292
N	-0.1102175558	-0.1314768952	-0.1269425235	-0.104268
C	-0.0519681585	-1.0134421597	 1.0270819099	-0.261556
C	-1.3897537015	-1.1063817028	 1.748520604	 0.15353
O	-1.5063415538	-1.229436569	 2.9378804952	-0.227169
C	-0.005856995	-0.6702896224	-1.3757287882	 0.394939
O	 0.0657845486	-1.8774991497	-1.5696529354	-0.396719
C	 0.0218095252	 0.2662021148	-2.5915414825	-0.153961
O	 0.1427481784	-0.4876233327	-3.7585032464	-0.42109
H	 0.8698917003	 1.6473439413	 0.4823861914	 0.140666
H	-0.4018286531	 1.8643736982	-0.7399330117	 0.155956
H	-0.8408715056	 1.5236666038	 0.9328705003	 0.146674
H	 0.1992545881	-2.0140602923	 0.6584205327	 0.178278
H	 0.7188204551	-0.6927153904	 1.7364133251	 0.132066
H	-2.2709610777	-1.0657574548	 1.06745674	 0.089721
H	-0.900544373	 0.8691712005	-2.6082662793	 0.114703
H	 0.8619085974	 0.9711613851	-2.4881355495	 0.113985
H	 0.1684010069	-1.4103736127	-3.4517925735	 0.296537
40.3174	62.9271	75.4607	97.9794	140.9209	175.1516	241.1216	339.1064	347.7635	372.9733	429.3846	452.7796	561.8484	584.6532	644.7093	750.2998	816.5232	996.727	1032.15	1047.5327	1067.2313	1120.202	1151.3576	1166.2277	1216.6465	1266.818	1300.7429	1307.4862	1340.6146	1411.4079	1422.6195	1443.7869	1475.1881	1481.0988	1489.9193	1509.034	1532.2727	1742.0799	1842.037	2875.076	2973.0365	2993.2322	3019.6566	3042.9302	3081.6778	3100.5306	3160.1933	3650.3701
CN(CC=O)C(=O)CO	CN(CC=O)C(=O)CO	
InChI=1S/C5H9NO3/c1-6(2-3-7)5(9)4-8/h3,8H,2,4H2,1H3	InChI=1S/C5H9NO3/c1-6(2-3-7)5(9)4-8/h3,8H,2,4H2,1H3
