15
gdb 31413	4.09587	1.13465	0.89353	5.2886	75.07	-0.2212	-0.04	0.1812	1234.7705	0.113553	-454.012507	-454.004241	-454.003297	-454.046852	29.283	
C	 0.0475605413	 1.505946907	 0.0389744708	-0.334461
N	 0.1700637233	 0.0612413512	 0.0040981203	-0.359873
C	 0.6299501956	-0.6776403307	-1.0328520604	 0.463722
C	 0.7130446736	-2.0544677696	-0.9785415392	-0.391806
C	 1.1979975875	-2.8092281548	-2.0769469196	 0.429596
O	 1.3449119521	-3.988665019	-2.2248574419	-0.347694
O	 1.5776355128	-1.975565061	-3.2137249989	-0.211352
C	 1.4503335277	-0.6642143145	-3.1418117584	 0.154756
N	 1.0138345894	 0.0334271125	-2.156701711	-0.348723
H	 0.6605935416	 1.9322393835	 0.8413995539	 0.131102
H	 0.3874998618	 1.9045281512	-0.9150145961	 0.178336
H	-0.9939678326	 1.8072428652	 0.1996622431	 0.131109
H	-0.1105901905	-0.4504635698	 0.8246974954	 0.255824
H	 0.4127962647	-2.6106798509	-0.0995165911	 0.102825
H	 1.7692963918	-0.1694891003	-4.0569384969	 0.146638
22.9339	99.7718	163.2503	168.6154	233.997	413.0498	432.8509	460.0848	507.5322	565.1778	620.541	698.5192	719.1227	758.9548	814.833	849.2668	960.54	990.3592	1057.2519	1137.9378	1154.2187	1154.9699	1269.3329	1292.3224	1395.5475	1434.6169	1474.2141	1497.5313	1498.3808	1519.5063	1626.6296	1685.3613	1877.1245	3025.2383	3073.724	3166.2309	3174.4256	3206.1956	3643.6587
CNC1=CC(=O)OC=N1	CNc1cc(=O)ocn1	
InChI=1S/C5H6N2O2/c1-6-4-2-5(8)9-3-7-4/h2-3,6H,1H3	InChI=1S/C5H6N2O2/c1-6-4-2-5(8)9-3-7-4/h2-3,6H,1H3
