15
gdb 44336	3.20448	1.94494	1.56913	4.0194	68.17	-0.2418	-0.0139	0.2279	845.8347	0.11546	-420.65487	-420.648915	-420.647971	-420.685068	24.713	
O	 0.0033897184	 0.0645117894	 0.2994973362	-0.329794
C	 0.0402454812	 1.222994409	 0.0217037175	 0.438235
O	-1.0979853644	 1.9898012924	-0.1223074447	-0.215762
C	-0.7723780189	 3.2457155938	-0.6632291302	 0.085991
C	 0.0717909026	 4.2603838689	 0.1318445605	-0.133243
C	 0.6453694442	 3.8402292216	 1.4357845477	-0.057024
C	 1.3566536439	 2.7153076952	 1.3152932502	-0.097902
C	 1.2524548195	 2.1701755164	-0.1081676896	-0.236607
C	 0.6897442765	 3.345479283	-0.9214249158	-0.118204
H	-1.5298228701	 3.6047977136	-1.348592348	 0.120185
H	-0.1301467638	 5.3048315018	-0.0779341461	 0.097845
H	 0.465606361	 4.3779920637	 2.3582320615	 0.112934
H	 1.8078941518	 2.1459054331	 2.117753261	 0.12234
H	 2.1334784137	 1.6619762755	-0.4960855098	 0.105191
H	 1.1273867043	 3.6788715226	-1.8531043402	 0.105816
148.1528	284.6421	361.9514	461.5731	584.5356	621.755	713.5032	737.1933	747.1126	750.332	802.8346	807.6787	813.5748	865.4969	928.5388	939.1665	967.3702	994.245	1007.7389	1045.6644	1067.4624	1089.4289	1105.2256	1128.3498	1166.0993	1214.4482	1263.1345	1281.8929	1336.1497	1369.2917	1395.4603	1650.1118	1890.2381	3132.5813	3176.4541	3191.3808	3201.4248	3207.4227	3231.4389
O=C1OC2C3C=CC1C23	O=C1O[C@H]2[C@H]3C=C[C@@H]1[C@@H]23	
InChI=1S/C7H6O2/c8-7-4-2-1-3-5(4)6(3)9-7/h1-6H	InChI=1S/C7H6O2/c8-7-4-2-1-3-5(4)6(3)9-7/h1-6H/t3-,4+,5-,6-/m0/s1
