14
gdb 28135	5.39345	1.32937	1.06875	1.6822	71.17	-0.1777	0.0261	0.2037	1038.914	0.105692	-429.09517	-429.088196	-429.087252	-429.126202	27.225	
N	 0.0428854226	 1.3479786252	 0.1406894455	-0.596511
C	-0.0209355811	-0.0367169342	 0.0326971114	 0.372913
N	-1.1411259792	-0.742442397	 0.0404571954	-0.417705
C	-0.6691483303	-2.0299049655	 0.0246680598	 0.339204
C	 0.6980539481	-2.1164622683	-0.0099399809	 0.327429
N	 1.1331938864	-0.7951290621	-0.01685083	-0.431554
N	 1.1648541887	-3.3918479715	-0.0680189392	-0.358722
C	 0.0472628127	-4.1054718547	-0.0582795428	-0.019921
N	-1.100756329	-3.3353063163	-0.0070533535	-0.390352
H	 0.62382832	 1.7865937187	-0.5643898342	 0.250293
H	-0.8918000835	 1.7354467482	 0.110474109	 0.262699
H	 2.0660850524	-0.4481662497	 0.1233581207	 0.26795
H	 0.0006013845	-5.1829692536	-0.0815367822	 0.125782
H	-2.0459589923	-3.6773367192	 0.0022909611	 0.268496
152.1435	244.8242	273.2166	319.275	355.1814	402.533	463.5968	544.7283	591.8727	649.998	680.143	729.4275	771.7214	781.6496	787.2533	856.9307	965.1651	1007.055	1076.4223	1125.8576	1184.0799	1242.7875	1274.6512	1366.7001	1456.3987	1474.8313	1481.6968	1528.678	1567.4931	1611.3585	1650.7757	3263.1758	3526.0197	3626.7821	3679.3609	3679.5166
NC1=NC2=C(N1)N=CN2	Nc1nc2c([nH]1)nc[nH]2	
InChI=1S/C4H5N5/c5-4-8-2-3(9-4)7-1-6-2/h1H,(H,6,7)(H3,5,8,9)	InChI=1S/C4H5N5/c5-4-8-2-3(9-4)7-1-6-2/h1H,(H,6,7)(H3,5,8,9)
