18
gdb 79547	3.99652	1.12588	0.99829	1.244	84.54	-0.2159	0.0287	0.2446	1231.0653	0.14599	-364.695082	-364.686777	-364.685833	-364.727491	32.839	
C	-0.0373980039	 1.4792088134	 0.0021454827	-0.418197
C	-0.0310817066	-0.0295668908	-0.0623671714	 0.010234
C	 0.7188932531	-0.6984661528	-1.1458996013	-0.101367
N	 1.2905835775	-0.6276991095	 0.2446072136	-0.155078
C	 1.2109434896	-2.1345741158	 0.3011977074	-0.050585
C	-0.1018336346	-2.7966176186	 0.0287504363	-0.355052
C	 0.6970917078	-2.2478947407	-1.1388746516	 0.154097
C	 1.1557428565	-3.0378510954	-2.2247254492	 0.190573
C	 1.5431127837	-3.6849536328	-3.1635796706	-0.409197
H	 0.8918146091	 1.8884031185	-0.4031500385	 0.131705
H	-0.8774975424	 1.8854425747	-0.5705907563	 0.120266
H	-0.1313110366	 1.8178565612	 1.0386521282	 0.127717
H	-0.9222089423	-0.4948967601	 0.3447154012	 0.088994
H	 1.1891229529	-0.1568176926	-1.9605920523	 0.101301
H	 2.0408148598	-2.6483845942	 0.7688525912	 0.119552
H	-0.0476893854	-3.8785418057	 0.095772953	 0.134271
H	-1.066926489	-2.3944676803	 0.3134231166	 0.124091
H	 1.8870604011	-4.2609894686	-3.9861916388	 0.186672
126.9102	135.1767	207.6562	254.6945	268.0807	325.6271	436.4216	459.6638	500.9279	533.2728	553.3088	614.4761	656.2198	732.2127	741.2689	794.4426	828.3771	893.6463	961.8977	978.7706	992.9027	1006.534	1031.3751	1051.6614	1073.4546	1088.0691	1142.2874	1157.2606	1190.8043	1214.2702	1261.284	1296.6327	1360.9621	1413.6382	1436.4806	1488.2038	1492.4584	1500.5898	2230.0132	3039.2333	3106.6338	3119.8212	3133.5932	3161.1984	3170.6194	3198.8219	3216.5029	3503.8714
CC1C2N1C1CC21C#C	C[C@H]1[C@H]2N1[C@H]1C[C@@]21C#C	
InChI=1S/C8H9N/c1-3-8-4-6(8)9-5(2)7(8)9/h1,5-7H,4H2,2H3	InChI=1S/C8H9N/c1-3-8-4-6(8)9-5(2)7(8)9/h1,5-7H,4H2,2H3/t5-,6-,7+,8+,9?/m0/s1
