19
gdb 52104	4.07109	0.91382	0.88612	3.6317	78.06	-0.2508	0.029	0.2798	1379.8318	0.159887	-419.159414	-419.150725	-419.149781	-419.193972	31.726	
N	-0.3981182111	 1.0298746076	-0.467320345	-0.443233
C	-0.4839581669	-0.2290727075	-0.5104336995	 0.12474
O	-0.507038766	-0.9378723045	 0.6385513879	-0.183675
C	-0.7611307844	-2.3414968483	 0.5146930162	-0.204708
C	-2.2249309039	-2.6302193465	 0.401897767	 0.352207
C	-3.2782765443	-2.5070221333	 1.516891367	-0.292195
C	-4.0354047044	-3.7276947815	 0.8932325854	-0.237642
C	-2.9609496354	-3.7970326426	-0.202291072	-0.091899
N	-2.8481165376	-2.5296006377	-0.9170372902	-0.356193
H	-0.3620515775	 1.4027825342	-1.4139569289	 0.22628
H	-0.5369685288	-0.8533132832	-1.4110762859	 0.103273
H	-0.2342280989	-2.7534530416	-0.3549079809	 0.115606
H	-0.3428537933	-2.788060961	 1.4209373839	 0.118494
H	-2.8815916084	-2.7297936071	 2.510243647	 0.113698
H	-3.8066730905	-1.5500927891	 1.5603321551	 0.110665
H	-4.0350646568	-4.5970083536	 1.5545935483	 0.112961
H	-5.0574510349	-3.5595500694	 0.5384335928	 0.103588
H	-2.5837620628	-4.6889444142	-0.690526508	 0.098571
H	-3.713314094	-1.9917137408	-0.9059343802	 0.229462
48.8227	64.1604	110.4405	172.8443	240.6256	309.2167	373.7317	396.8736	474.6063	637.4628	712.6756	754.388	780.65	822.961	848.6981	919.7801	933.2862	951.3671	958.1722	981.8764	1040.2559	1042.5145	1063.7014	1106.3999	1122.4075	1139.1833	1185.9606	1205.5177	1226.7247	1240.4316	1259.5071	1285.4391	1306.0114	1342.5374	1389.4358	1421.397	1448.6621	1479.0248	1486.7568	1500.0152	1742.0316	3030.1857	3048.1718	3049.3296	3059.4802	3098.7266	3102.0401	3118.8728	3174.5773	3460.3443	3513.9947
N=COCC12CCC1N2	[NH][CH]OC[C@]12CC[C@H]1N2	
InChI=1S/C6H10N2O/c7-4-9-3-6-2-1-5(6)8-6/h4-5,7-8H,1-3H2	InChI=1S/C6H10N2O/c7-4-9-3-6-2-1-5(6)8-6/h4-5,7-8H,1-3H2/t5-,6-/m1/s1
