16
gdb 103727	2.4291	1.28956	1.1809	4.1782	66.44	-0.2634	0.0103	0.2738	1113.2216	0.12181	-475.004665	-474.995322	-474.994378	-475.038739	34.478	
O	 0.14035567	 0.7318323326	 0.8690238324	-0.427658
C	-0.1500976155	 0.1951667726	-0.4167699541	-0.136539
C	-1.5151811284	-0.4566486034	-0.3908359279	 0.365857
O	-2.529036762	 0.3911909838	 0.0281556755	-0.447348
C	-1.9159775933	-1.5017396932	-1.3765408973	-0.395889
C	-1.5907031056	-1.9215435253	 0.0583131942	 0.1457
O	-0.3665157028	-2.5459648095	 0.3203516034	-0.453445
C	-2.6732339115	-2.3216546912	 0.9258957086	 0.266174
N	-3.5104426943	-2.6815456932	 1.638247314	-0.345184
H	 0.3722090968	-0.0082622873	 1.4418807941	 0.300685
H	-0.1781546654	 1.0463160354	-1.1043673117	 0.127844
H	 0.6177511845	-0.5079161586	-0.7533000607	 0.115597
H	-2.1789278058	 0.8633785836	 0.797052837	 0.29703
H	-2.9561303322	-1.5208326373	-1.6804676335	 0.153302
H	-1.1948406194	-1.8059341474	-2.1275698021	 0.132905
H	-0.4290804653	-3.4726474317	 0.0597974582	 0.30097
71.2459	96.173	143.7566	220.2542	263.1162	296.7967	326.0323	385.5905	387.4406	419.3013	437.9649	507.4682	547.0283	591.4125	616.0585	676.1622	807.3546	888.923	903.7879	933.4078	990.9969	1050.0699	1070.8992	1094.6255	1195.8049	1219.3992	1262.2793	1325.5718	1339.2813	1376.164	1406.8734	1427.113	1486.2009	1487.2245	2348.538	3050.7186	3102.7731	3138.6786	3238.3903	3750.0045	3785.3247	3802.0935
OCC1(O)CC1(O)C#N	OC[C@@]1(O)C[C@]1(O)C#N	
InChI=1S/C5H7NO3/c6-2-4(8)1-5(4,9)3-7/h7-9H,1,3H2	InChI=1S/C5H7NO3/c6-2-4(8)1-5(4,9)3-7/h7-9H,1,3H2/t4-,5-/m0/s1
