19
gdb 120414	3.17796	0.9313	0.79824	2.0891	74.35	-0.2504	0.0187	0.2691	1474.7031	0.158588	-456.319099	-456.309302	-456.308358	-456.354684	34.373	
C	-0.2772093205	 1.2755007598	-0.0723121638	-0.227743
O	 0.0359649385	-0.0947831272	 0.0117304207	-0.232997
C	 0.5819867186	-0.605393536	-1.1806123703	-0.059364
C	 0.864154778	-2.0755911797	-0.9861354097	 0.098728
O	-0.3456069849	-2.9074442355	-1.0476462723	-0.262234
C	 0.0847623199	-3.5439668252	-2.1908456187	 0.403097
N	-0.494759969	-4.355440989	-2.9518397153	-0.548395
C	 1.4464994088	-2.8546162039	-2.2016725194	-0.127996
N	 1.8984255104	-2.1097222234	-3.3570276109	-0.516744
H	 0.613547171	 1.8854154498	-0.2918167613	 0.105107
H	-1.0299734185	 1.4753607338	-0.8510453617	 0.106985
H	-0.6828785144	 1.5767383646	 0.8962078981	 0.130954
H	-0.111694874	-0.4600352497	-2.0259158206	 0.086247
H	 1.5264494252	-0.099264727	-1.4414697446	 0.108524
H	 1.37024791	-2.2331300324	-0.0302162941	 0.101832
H	-1.442917244	-4.5590434074	-2.6301340328	 0.228819
H	 2.2415444841	-3.5349540484	-1.8866550736	 0.117044
H	 2.4405120178	-2.7114580736	-3.966864124	 0.246642
H	 1.107600593	-1.7892751095	-3.9074294958	 0.241493
56.5103	95.2583	97.9057	130.586	166.2958	232.654	239.4769	277.3662	347.2091	409.3107	494.7403	551.2809	664.7354	765.7866	824.5023	864.2858	869.1243	872.9463	963.9549	996.075	1018.1016	1052.9348	1106.4706	1162.7171	1177.7966	1188.4242	1208.3722	1212.7093	1233.6978	1243.0409	1268.4352	1311.055	1367.78	1431.5506	1436.4508	1479.2258	1486.2048	1496.1926	1518.0306	1673.5454	1817.9298	2958.0257	2973.3816	2993.7346	3016.2035	3080.8836	3092.9059	3118.407	3471.736	3509.2895	3586.6587
COCC1OC(=N)C1N	COC[C@H]1O[C]([NH])[C@H]1N	
InChI=1S/C5H10N2O2/c1-8-2-3-4(6)5(7)9-3/h3-4,7H,2,6H2,1H3	InChI=1S/C5H10N2O2/c1-8-2-3-4(6)5(7)9-3/h3-4,7H,2,6H2,1H3/t3-,4+/m1/s1
