14
gdb 8644	2.56996	1.77669	1.41086	3.689	63.63	-0.2653	-0.0026	0.2627	922.6263	0.105222	-378.6755	-378.666734	-378.66579	-378.708416	31.591	
N	-0.0523942316	 1.5143033864	 0.0359696607	-0.519782
C	 0.0162291523	 0.0470485484	 0.0049244619	-0.125852
C	 0.7567191984	-0.4932626011	-1.2693755599	-0.088238
O	 0.1872810614	 0.0394428035	-2.4410171311	-0.414677
C	 0.6814208685	-0.4672330868	 1.2021215911	 0.347469
C	 1.2871709378	-0.8960242962	 2.1453409019	-0.426675
C	-1.3723575826	-0.4755291999	-0.0716530829	 0.305079
N	-2.4336971218	-0.9037447842	-0.2295590241	-0.339617
H	 0.8512476981	 1.8735076189	 0.3292963802	 0.242757
H	-0.2146236927	 1.8301795523	-0.9185563496	 0.250191
H	 1.7894513023	-0.1371411851	-1.221992514	 0.126724
H	 0.7602002088	-1.5906153244	-1.2605544118	 0.122701
H	-0.6615009175	-0.3946019359	-2.5901242487	 0.305186
H	 1.8031662987	-1.2732804059	 2.9943607664	 0.214733
114.4462	128.7577	146.6382	191.0098	247.1411	267.0472	317.6376	413.8538	448.5024	490.1955	505.1551	565.3972	610.6007	660.0785	682.7696	725.0098	863.9417	936.3652	999.5172	1056.3883	1091.6015	1140.5699	1252.3977	1334.7459	1380.2453	1410.1477	1488.2188	1645.1472	2248.0509	2356.852	3026.2913	3104.6228	3475.8956	3497.8939	3571.7819	3792.0959
NC(CO)(C#C)C#N	N[C@@](CO)(C#C)C#N	
InChI=1S/C5H6N2O/c1-2-5(7,3-6)4-8/h1,8H,4,7H2	InChI=1S/C5H6N2O/c1-2-5(7,3-6)4-8/h1,8H,4,7H2/t5-/m0/s1
