17
gdb 93319	2.07711	1.70157	1.11519	5.4725	73.21	-0.2525	-0.046	0.2065	1109.8278	0.136189	-418.039543	-418.030998	-418.030054	-418.073019	31.421	
C	-0.2253797678	 1.5212264794	-0.06448348	-0.4157
C	 0.0486870366	 0.0281762892	 0.0344863511	 0.035559
N	 0.9155211633	-0.4447510186	-1.0514209622	-0.304451
C	 1.3234866329	-1.80653045	-0.736876356	-0.273793
C	 1.4330109365	-1.805941574	 0.786673129	 0.408675
O	 1.8489637931	-2.6829481585	 1.4842417087	-0.281241
C	 0.8333809496	-0.449883215	 1.2832314861	-0.262745
C	 1.9104572256	 0.4518782874	 1.6758990303	 0.302322
N	 2.7630651649	 1.1659169434	 1.9915499786	-0.328942
H	 0.7089056445	 2.087364007	-0.052940273	 0.157142
H	-0.7548866306	 1.7454039722	-0.9963614054	 0.118054
H	-0.8541073276	 1.8581602511	 0.7650069498	 0.126515
H	-0.9161980079	-0.5132694197	 0.0634100685	 0.072659
H	 0.4745761284	-0.3578009002	-1.9588575451	 0.231802
H	 0.5921174392	-2.5903294931	-1.0068342081	 0.120975
H	 2.281049455	-2.0763569242	-1.1928427234	 0.148446
H	 0.1921573844	-0.6368480963	 2.1483096311	 0.144723
61.7248	133.8594	172.1426	186.4776	232.0421	286.2317	414.1999	431.3982	456.8937	518.6321	555.8782	615.7083	653.5605	764.9296	809.5198	864.5079	924.1819	962.2714	998.8953	1062.0572	1095.5231	1096.7273	1153.9074	1171.5979	1194.4932	1207.7933	1260.1431	1313.9906	1373.8388	1381.558	1418.0822	1435.5359	1481.7968	1492.315	1498.1311	1878.8651	2354.3209	2911.5696	2942.8784	3042.4093	3078.1811	3091.2467	3108.5211	3134.8722	3556.667
CC1NCC(=O)C1C#N	C[C@H]1NCC(=O)[C@H]1C#N	
InChI=1S/C6H8N2O/c1-4-5(2-7)6(9)3-8-4/h4-5,8H,3H2,1H3	InChI=1S/C6H8N2O/c1-4-5(2-7)6(9)3-8-4/h4-5,8H,3H2,1H3/t4-,5+/m1/s1
