21
gdb 114819	2.25043	1.54973	1.38864	1.5844	78.48	-0.2263	0.0645	0.2908	1097.5831	0.181271	-424.186249	-424.177142	-424.176198	-424.220076	34.173	
C	 0.0198235351	 0.5521445294	-0.5348397896	-0.239899
O	-0.4279676251	-0.0803416371	 0.6471732942	-0.229389
C	 0.6096890371	-0.5237792824	 1.4726336511	 0.063737
C	 0.0716225633	-1.3845288235	 2.6455812279	-0.268039
C	 0.7921252458	-2.629769269	 2.0793161318	-0.136765
C	 0.0673058767	-3.3140126219	 0.9022896133	-0.083419
O	 0.7500872313	-2.4909729714	-0.0747816077	-0.318845
C	 1.4453334349	-1.7661725827	 0.9570013751	 0.441426
C	 2.9169504675	-1.6030358042	 0.6863160058	-0.490884
H	 0.5441585812	-0.1510371038	-1.1934681691	 0.127636
H	-0.8658265392	 0.9292468741	-1.0522025608	 0.124117
H	 0.6854252259	 1.4006630985	-0.3092695096	 0.096694
H	 1.2525647712	 0.3184919861	 1.7784313196	 0.054052
H	 0.4527968924	-1.0675827235	 3.6191415834	 0.102922
H	-1.0189062295	-1.4354758526	 2.6908657987	 0.108989
H	 1.3543706754	-3.2679417745	 2.7604526667	 0.073095
H	 0.3035939897	-4.3747728588	 0.7561139988	 0.100501
H	-1.0203469646	-3.1773032202	 0.8692596812	 0.105889
H	 3.0753220177	-1.0100104883	-0.2218659989	 0.127773
H	 3.410278083	-1.0865858719	 1.5165004907	 0.117123
H	 3.39854021	-2.5753943823	 0.5452101774	 0.123285
60.1013	127.2927	186.0347	201.3848	203.7161	262.62	292.042	340.1739	373.5811	432.1413	557.4683	644.2311	680.4017	779.4861	836.1478	867.2926	894.9158	915.6069	959.8661	1004.7432	1017.4771	1039.44	1098.1277	1115.4557	1143.9727	1152.1128	1166.2452	1174.4004	1182.8194	1193.243	1225.8906	1251.7454	1274.0503	1300.4079	1334.2368	1354.1293	1373.6375	1406.3105	1471.233	1477.4196	1479.2363	1486.3258	1489.3375	1510.3211	1518.3249	2956.3	2978.8534	3015.9852	3028.9926	3055.7961	3061.2329	3064.5289	3096.6207	3108.5433	3109.9925	3115.393	3121.328
COC1CC2COC12C	CO[C@H]1C[C@H]2CO[C@@]12C	
InChI=1S/C7H12O2/c1-7-5(4-9-7)3-6(7)8-2/h5-6H,3-4H2,1-2H3	InChI=1S/C7H12O2/c1-7-5(4-9-7)3-6(7)8-2/h5-6H,3-4H2,1-2H3/t5-,6-,7+/m0/s1
