17
gdb 60686	1.84804	1.64177	1.2274	1.411	69.06	-0.2557	-0.0648	0.1909	1099.4424	0.132152	-458.956131	-458.94674	-458.945796	-458.990946	33.54	
O	-0.1359730782	 1.5376469644	 0.1062902887	-0.46477
C	 0.0446866244	 0.1499203422	 0.0022669692	 0.160275
C	-1.3402171604	-0.5291335398	-0.0189679401	 0.116471
O	-1.5045983557	-1.7086211802	-0.1811560223	-0.247021
C	 0.7217739647	-0.1806633129	-1.3267887053	 0.114986
O	 1.1078056253	 0.6963270018	-2.0590949973	-0.26736
C	 0.8368426322	-0.3738796718	 1.2037892578	-0.000784
C	 1.4806034482	-1.7327372299	 1.2515774074	-0.266265
C	 2.3405939612	-0.4939601312	 1.1889341183	-0.293931
H	 0.319877657	 1.924398175	-0.6586716115	 0.297482
H	-2.1729343485	 0.1922496116	 0.12394083	 0.109245
H	 0.812492946	-1.2504782821	-1.5835197089	 0.131648
H	 0.3972320908	-0.0144278613	 2.1294836615	 0.108195
H	 1.4239749399	-2.2778306805	 2.1868102844	 0.123573
H	 1.4258813265	-2.3695508994	 0.3768919451	 0.127482
H	 2.8680733264	-0.2817542929	 0.264581385	 0.12649
H	 2.8789594302	-0.1878396431	 2.0784911281	 0.124284
54.1281	86.5298	97.8015	184.7421	215.8985	245.1727	299.3814	343.5455	399.4198	433.509	491.9831	530.4629	652.995	768.0763	807.6473	831.6217	861.4036	941.6301	954.1329	959.8295	1046.9201	1061.1214	1080.0341	1107.8526	1136.2983	1155.987	1190.5933	1201.0173	1242.444	1359.3051	1368.3266	1394.6316	1413.2249	1478.4368	1511.042	1797.4593	1832.8814	2914.2463	2988.1814	3135.8462	3147.178	3152.5233	3215.4116	3232.0262	3685.1902
OC(C=O)(C=O)C1CC1	OC(C=O)(C=O)C1CC1	
InChI=1S/C6H8O3/c7-3-6(9,4-8)5-1-2-5/h3-5,9H,1-2H2	InChI=1S/C6H8O3/c7-3-6(9,4-8)5-1-2-5/h3-5,9H,1-2H2
