21
gdb 115581	3.19955	0.98073	0.91057	2.8062	74.35	-0.246	0.0643	0.3103	1366.051	0.18086	-461.336646	-461.326579	-461.325635	-461.371796	36.859	
C	-0.425982914	 1.6586168658	 0.1442127123	-0.446452
C	-0.1381813477	 0.1660064002	 0.1409580983	 0.368417
C	-1.3368946369	-0.6394361008	-0.3771433472	-0.086276
O	-1.5598782253	-0.3649448169	-1.7445473214	-0.423853
O	 1.0003556301	-0.1514300954	-0.7230670276	-0.337144
C	 1.6344783445	-0.9210250763	 0.326471813	-0.079288
C	 0.5722684679	-0.4923649342	 1.3569755922	-0.08207
C	 1.0785522546	 0.40179949	 2.4729790743	-0.111133
O	 1.8541575229	-0.4227265799	 3.3327299542	-0.422212
H	 0.4784569159	 2.240355597	 0.3345720083	 0.117812
H	-0.8272534101	 1.9471401494	-0.8309445339	 0.139394
H	-1.1737392204	 1.9068917977	 0.9051099202	 0.115608
H	-1.1520207527	-1.7129244514	-0.2100556159	 0.080792
H	-2.2503341577	-0.3692714862	 0.1648355028	 0.104349
H	-0.6964550105	-0.4755064624	-2.1655662836	 0.290505
H	 1.6620467321	-1.9914700348	 0.0924756624	 0.10405
H	 2.6545218125	-0.5744243052	 0.5254521845	 0.110295
H	 0.0118682898	-1.319288687	 1.8021583409	 0.083869
H	 1.6853949946	 1.2215712942	 2.0594539431	 0.093233
H	 0.2310453007	 0.85562197	 3.0107319788	 0.090739
H	 2.2351755198	 0.1312764764	 4.0202321944	 0.289365
60.01	99.3037	120.5055	162.7352	230.8914	239.0814	266.918	297.2003	335.7367	350.6372	379.247	471.1508	518.6619	582.8297	695.8542	842.721	869.4722	896.6435	921.1882	944.8823	970.534	1007.8402	1054.4064	1075.4564	1093.85	1121.1497	1145.2131	1167.0412	1176.6135	1205.8933	1243.4399	1265.3503	1285.5388	1291.0905	1336.9985	1376.6693	1383.9311	1408.9249	1433.2137	1462.4494	1481.4984	1500.1723	1503.8993	1518.8601	1531.4331	2971.1596	2972.7273	3003.6286	3026.3768	3042.831	3065.2107	3066.1724	3078.5303	3114.8616	3132.3554	3757.7374	3829.7985
CC1(CO)OCC1CO	C[C@@]1(CO)OC[C@H]1CO	
InChI=1S/C6H12O3/c1-6(4-8)5(2-7)3-9-6/h5,7-8H,2-4H2,1H3	InChI=1S/C6H12O3/c1-6(4-8)5(2-7)3-9-6/h5,7-8H,2-4H2,1H3/t5-,6+/m1/s1
