16
gdb 42430	5.13999	0.71464	0.65847	3.0558	72.19	-0.2526	0.0025	0.2551	1618.9209	0.123887	-434.051931	-434.042778	-434.041834	-434.087601	31.666	
N	-0.1077090848	 1.4061476775	 0.3238988015	-0.538194
C	-0.0092633988	 0.1349392142	 0.3111137611	 0.367201
N	-1.1235812166	-0.6640876778	 0.1906620627	-0.339535
C	-2.4384330415	-0.0528954976	 0.2569444041	-0.255874
C	-3.4633842093	-0.9751970663	-0.2338334041	 0.249123
N	-4.2716976561	-1.7133000766	-0.6021455034	-0.2957
C	 1.2843044002	-0.633305172	 0.3571428303	-0.018646
C	 2.2922844064	-0.4512764483	-0.7024546069	-0.165289
O	 2.4479180552	 0.1464292959	 0.5847275677	-0.216645
H	 0.8245204905	 1.8148325388	 0.3892504673	 0.234193
H	-1.0538426734	-1.6271932647	 0.477311241	 0.256999
H	-2.705135389	 0.2722139092	 1.2734360154	 0.158518
H	-2.4218572976	 0.8524968678	-0.3571338465	 0.192593
H	 1.2623002355	-1.58747087	 0.8866281899	 0.104941
H	 2.9850210266	-1.2587597922	-0.9316402853	 0.131385
H	 2.0780135828	 0.2420316821	-1.5130067547	 0.134929
22.8668	78.994	106.9397	144.2464	234.4167	281.5745	297.2713	379.9798	386.3041	394.9993	565.6684	665.1835	707.8245	828.7656	882.8579	896.4719	931.2205	971.7477	996.6606	1046.2832	1081.2593	1096.1644	1161.6497	1165.9265	1172.3035	1232.1346	1280.6364	1312.1436	1373.1405	1436.081	1487.354	1518.8901	1546.1222	1716.3366	2369.9442	3005.5846	3091.9797	3092.4103	3097.9353	3190.9919	3490.5702	3640.3835
N=C(NCC#N)C1CO1	N=C(NCC#N)[C@H]1CO1	
InChI=1S/C5H7N3O/c6-1-2-8-5(7)4-3-9-4/h4H,2-3H2,(H2,7,8)	InChI=1S/C5H7N3O/c6-1-2-8-5(7)4-3-9-4/h4H,2-3H2,(H2,7,8)/t4-/m1/s1
