23
gdb 57381	2.70663	1.29587	1.28094	1.3073	85.25	-0.2546	0.0681	0.3227	1168.4093	0.204622	-388.250249	-388.240869	-388.239925	-388.283935	37.175	
C	-0.0860283621	 1.5155946862	-0.0058506421	-0.403922
C	 0.0374149476	-0.0092184778	-0.013829657	 0.187121
C	 0.755881841	-0.507595263	 1.2485156884	-0.425844
O	-1.3124122904	-0.4949472969	-0.0302513359	-0.458494
C	 0.749797295	-0.4909509043	-1.2687831814	 0.392407
C	 2.2291820665	-0.2482170335	-1.7104659549	-0.270053
C	 1.5945609247	-1.1175249657	-2.8313887794	-0.052425
C	 0.9541278886	-1.9810485975	-1.7100972444	-0.284899
C	 0.344805247	-0.1986327328	-2.7484410892	-0.260275
H	 0.9002446908	 1.9879522962	-0.0114264819	 0.112753
H	-0.6435032304	 1.8563679579	-0.882016146	 0.124519
H	-0.6241065535	 1.8415256382	 0.8886960721	 0.118248
H	 0.1958324043	-0.2045352186	 2.1376579983	 0.11973
H	 0.8329956148	-1.6007753034	 1.2495324605	 0.104985
H	 1.7699138677	-0.1019441498	 1.3200658463	 0.11666
H	-1.2735776123	-1.4574911102	-0.0400215125	 0.275304
H	 2.4975186625	 0.7776023198	-1.9787769555	 0.089722
H	 3.008845563	-0.7196943296	-1.1049824642	 0.088042
H	 2.0844568041	-1.4815869726	-3.7348076364	 0.071125
H	 1.6372715924	-2.5870195915	-1.1076625412	 0.088401
H	 0.0540606701	-2.5414192501	-1.9824617494	 0.085614
H	-0.6051519568	-0.6220098011	-3.0837736314	 0.09328
H	 0.4708040253	 0.8301341099	-3.0971350331	 0.088001
54.0095	171.6459	187.9231	209.4962	257.6761	293.6169	322.5384	345.5919	348.8002	448.3513	472.8444	552.721	558.0618	597.9386	798.9745	804.7033	840.6979	883.2942	931.3524	947.4257	948.9244	954.1467	958.2352	976.4422	996.8533	1011.7942	1090.1216	1098.0246	1114.6896	1139.091	1143.4701	1152.3809	1161.9366	1177.5392	1209.0727	1237.1711	1241.6166	1245.7094	1327.0799	1371.4998	1398.3081	1414.6563	1477.1578	1485.6673	1493.9762	1497.286	1497.5567	1508.5222	1552.9421	3030.3564	3036.6874	3042.8527	3046.5535	3053.5557	3097.638	3101.8694	3107.1288	3107.8203	3114.6246	3118.1014	3121.9165	3125.837	3804.2013
CC(C)(O)C12CC(C1)C2	CC(C)(O)[C@@]12C[C@@H](C1)C2	
InChI=1S/C8H14O/c1-7(2,9)8-3-6(4-8)5-8/h6,9H,3-5H2,1-2H3	InChI=1S/C8H14O/c1-7(2,9)8-3-6(4-8)5-8/h6,9H,3-5H2,1-2H3/t6-,8-
