20
gdb 123131	3.06015	0.81062	0.66972	6.5867	73.04	-0.2456	0.0306	0.2762	1650.7643	0.170472	-477.446312	-477.436321	-477.435377	-477.482723	35.27	
O	-0.8540757096	 1.6832598167	 0.2076983872	-0.398492
C	-0.2895332782	 0.3896861373	 0.1472869847	-0.076028
C	-1.3153870327	-0.7192640637	-0.0900770961	-0.161398
N	-2.1074539012	-0.4605693633	-1.2884178799	-0.289431
H	-3.2560282214	 0.8982476654	-1.3273001315	 0.306921
H	-1.4955787512	-0.368233208	-2.0949886504	 0.230608
C	-3.167774371	-1.4338545077	-1.5730186475	-0.158372
C	-4.1311086598	-0.8753902708	-2.6287667634	-0.345891
C	-4.8750458875	 0.4006225544	-2.2093626267	 0.403565
O	-4.159764352	 1.2776026384	-1.4918481159	-0.377561
O	-6.0183684681	 0.6105432804	-2.5199689582	-0.332253
H	-1.4681725415	 1.7160422071	 0.9487545601	 0.29009
H	 0.4236839491	 0.4197070404	-0.6856971687	 0.113324
H	 0.2870819813	 0.1449620515	 1.0528722281	 0.098721
H	-0.7884182944	-1.6892039842	-0.1229669194	 0.095486
H	-2.0070244508	-0.7680864688	 0.7619233495	 0.11129
H	-2.7726018887	-2.4088063973	-1.8984318778	 0.102678
H	-3.7099752568	-1.6104095784	-0.6365837881	 0.125562
H	-3.5741274738	-0.6501359209	-3.5488691937	 0.125033
H	-4.8865173216	-1.6178249785	-2.8923905124	 0.136149
43.5509	54.4853	81.9711	161.6263	177.8806	223.5953	276.5708	314.701	319.7207	362.7507	500.1461	542.2944	577.4628	706.1801	765.055	820.3832	880.5625	886.6975	921.6709	976.9059	1007.5205	1034.4022	1065.9019	1094.5533	1113.9056	1146.0073	1172.1709	1230.2149	1277.5462	1282.2276	1301.8097	1350.4623	1362.9179	1391.0186	1414.5042	1422.9055	1459.2204	1475.9825	1490.4783	1499.2357	1509.1009	1517.0203	1856.3351	2952.4052	2980.7432	2990.2138	3025.1575	3030.5028	3060.5072	3061.6023	3121.4692	3221.6771	3501.3398	3813.4636
OCC[NH2+]CCC([O-])=O	OCCNCCC(=O)O	
InChI=1S/C5H11NO3/c7-4-3-6-2-1-5(8)9/h6-7H,1-4H2,(H,8,9)	InChI=1S/C5H11NO3/c7-4-3-6-2-1-5(8)9/h6-7H,1-4H2,(H,8,9)
