21
gdb 80791	1.88176	1.64858	1.19856	0.6583	90.77	-0.2521	0.0461	0.2982	1183.9101	0.181458	-349.87885	-349.869676	-349.868732	-349.912239	35.821	
C	-0.1150843008	 1.643576692	 0.1734241559	-0.44579
C	 0.0127002042	 0.1291419963	 0.1115008042	 0.017398
C	 1.1426826339	-0.5857067439	-0.6984780486	-0.109035
C	 2.1429162469	-0.1651540493	 0.4159860754	-0.274238
C	 0.867282992	-0.6674814943	 1.171070216	 0.250955
C	 0.6512272835	-0.731587737	 2.5873575573	 0.058137
C	 0.4546209333	-0.7875018422	 3.7737681066	-0.374465
C	 0.8784406414	-1.8721488185	 0.152343855	 0.021902
C	-0.3277217257	-2.775761603	-0.0469041588	-0.450563
H	 0.8369390663	 2.1658562856	 0.2907664872	 0.119237
H	-0.5860871566	 2.0179156778	-0.7423827625	 0.116814
H	-0.7570168826	 1.9325569753	 1.0127600226	 0.126248
H	-0.9810131597	-0.2970202847	-0.0409975372	 0.068395
H	 1.3076731619	-0.5382773793	-1.7756487168	 0.069553
H	 3.0349240561	-0.7862301531	 0.5304802729	 0.095394
H	 2.3891371726	 0.8915606234	 0.5101717403	 0.098858
H	 0.2849785363	-0.8364323951	 4.8206607212	 0.175199
H	 1.7758178142	-2.4901474583	 0.268903764	 0.068433
H	-1.2678428209	-2.2403158033	-0.1965479848	 0.122107
H	-0.1723982102	-3.4202308026	-0.9191986164	 0.118089
H	-0.454423116	-3.4277317856	 0.8241197867	 0.127374
110.0113	131.6141	160.0032	176.4936	252.7068	258.7222	309.0465	395.779	494.9845	496.0053	557.3199	563.0625	616.3626	628.0854	629.7521	755.3906	769.8922	809.4242	845.6375	916.3885	946.7543	1011.0586	1021.2925	1042.4684	1061.0874	1097.6635	1111.0816	1142.2019	1156.9004	1165.7921	1181.6609	1218.5072	1233.9871	1241.0489	1278.6976	1398.9607	1411.6196	1424.8417	1430.0021	1494.4902	1495.477	1496.9371	1502.5215	1532.9977	2226.8064	3034.7534	3035.7567	3041.4708	3069.7938	3080.7241	3091.996	3093.5813	3107.0565	3119.3042	3125.1866	3147.408	3502.2773
CC1C2CC1(C#C)C2C	C[C@H]1[C@H]2C[C@]1(C#C)[C@H]2C	
InChI=1S/C9H12/c1-4-9-5-8(6(9)2)7(9)3/h1,6-8H,5H2,2-3H3	InChI=1S/C9H12/c1-4-9-5-8(6(9)2)7(9)3/h1,6-8H,5H2,2-3H3/t6-,7-,8-,9+/m0/s1
