17
gdb 13708	5.97439	0.89537	0.8264	4.5117	72.38	-0.2278	0.0078	0.2356	1389.1868	0.140055	-400.968211	-400.959329	-400.958384	-401.002779	31.024	
C	 0.0884671664	 1.3036300897	 0.1310508832	-0.249828
O	-0.2431980074	-0.0503142983	-0.1565360031	-0.194853
C	 0.5505615871	-0.6666776265	-1.0506285515	 0.126478
N	 0.3268634679	-1.8601756177	-1.3873587584	-0.236229
C	 1.1659316476	-2.4804881078	-2.3508593632	-0.000833
C	 1.54462339	-3.9364204982	-2.0915473018	-0.340502
C	 0.4916922223	-3.6031050974	-3.1133528894	 0.135307
O	-0.8493783964	-3.8639422333	-2.858940974	-0.434284
H	 1.104911583	 1.390729933	 0.5334486072	 0.129808
H	-0.0049655791	 1.9367455604	-0.7594709891	 0.130477
H	-0.6240334814	 1.6398979492	 0.8847604663	 0.150067
H	 1.3778032343	-0.0536615673	-1.4368669068	 0.082758
H	 1.891608986	-1.8518000776	-2.8691778299	 0.0765
H	 2.5219310246	-4.2691559128	-2.4247665216	 0.110442
H	 1.2015137506	-4.3610285995	-1.1549550454	 0.125001
H	 0.737490995	-3.7246911324	-4.1641925293	 0.098017
H	-1.0987282007	-3.2760400637	-2.1302529332	 0.291674
35.7555	85.2143	126.9554	156.65	207.4595	255.1029	352.5474	416.2887	437.9348	452.207	543.1451	672.2864	776.7311	801.9136	897.0611	975.0173	1006.3962	1018.653	1045.517	1059.3815	1110.9473	1130.8723	1160.5058	1177.4158	1194.9693	1227.3588	1274.3445	1352.8178	1361.259	1426.0288	1434.9817	1477.3216	1489.5605	1495.1229	1500.4355	1772.1689	3007.722	3021.2873	3080.1164	3081.113	3133.158	3148.4343	3152.6906	3230.0895	3714.1659
COC=NC1CC1O	COC=N[C@H]1C[C@H]1O	
InChI=1S/C5H9NO2/c1-8-3-6-4-2-5(4)7/h3-5,7H,2H2,1H3	InChI=1S/C5H9NO2/c1-8-3-6-4-2-5(4)7/h3-5,7H,2H2,1H3/t4-,5+/m0/s1
