15
gdb 12431	3.7747	2.04827	1.40553	3.2326	73.71	-0.2324	-0.0597	0.1727	854.9517	0.121262	-362.676969	-362.67038	-362.669435	-362.707738	25.389	
N	-0.0529623752	 1.2044778285	 0.6249206695	-0.507454
C	 0.0402030222	 0.1093761492	-0.0215495026	 0.351873
O	 1.2566939482	-0.4625653433	-0.2527194361	-0.248429
C	 1.4066983208	-1.2923292364	-1.4186173212	-0.160981
C	 0.8844725848	-2.6831859936	-1.2224103673	-0.081067
C	-0.4036766214	-2.9052728246	-0.9275506858	-0.059742
C	-1.3963741389	-1.8575819821	-0.7646253045	-0.094847
C	-1.1976417552	-0.5634881319	-0.4413244899	-0.110511
H	 0.8825352489	 1.5470117511	 0.8526646842	 0.220648
H	 0.8958453983	-0.8099256205	-2.2644439889	 0.124741
H	 2.4789029671	-1.2932829154	-1.6227669363	 0.124303
H	 1.5728796212	-3.5137392289	-1.3414652478	 0.106764
H	-0.761615006	-3.9272782506	-0.8334767129	 0.102449
H	-2.4297405793	-2.1679966677	-0.903083819	 0.10741
H	-2.0593321856	 0.0869749162	-0.3404721515	 0.124842
94.5747	231.9119	287.0347	350.0416	394.4441	477.9061	501.5425	642.9581	714.233	741.4262	783.9682	854.0886	882.9869	905.4584	942.6989	950.3319	999.0218	1026.8947	1041.7102	1072.5435	1141.8024	1230.7486	1243.3826	1295.0597	1337.0829	1408.4444	1417.237	1456.0703	1485.0064	1643.7919	1679.9779	1707.4718	3004.8263	3112.7267	3147.8834	3162.8221	3187.4737	3200.8516	3469.495
N=C1OCC=CC=C1	[NH][C]1OCC=CC=C1	
InChI=1S/C6H7NO/c7-6-4-2-1-3-5-8-6/h1-4,7H,5H2	InChI=1S/C6H7NO/c7-6-4-2-1-3-5-8-6/h1-4,7H,5H2
