19
gdb 92618	3.93256	1.14924	0.96859	0.3169	77.44	-0.2447	0.0038	0.2486	1216.4939	0.161274	-423.03113	-423.02336	-423.022416	-423.063524	30.384	
O	 0.1426628213	 1.4207317326	 0.1389659795	-0.431369
C	 0.0769787936	 0.0088797782	 0.0231220766	 0.131044
C	-1.3746113581	-0.5637759957	 0.0052165243	-0.285971
C	-1.2799654897	-1.8221340598	-0.8743497438	-0.071893
C	-2.3023792725	-2.1606790783	-1.9650104652	-0.094892
O	-1.5450681828	-2.8529035532	-2.9643074834	-0.268115
C	-0.2011506598	-2.3495938139	-2.9893374928	-0.175047
C	-0.0724956672	-1.5356394711	-1.7387084598	 0.333409
C	 0.6700051141	-0.5397014242	-1.2667005633	-0.320016
H	-0.2786382289	 1.7932096742	-0.6441719142	 0.272911
H	 0.6277360677	-0.3529712385	 0.9014742386	 0.096262
H	-1.7708548027	-0.7453311741	 1.0068582854	 0.104783
H	-2.0208896818	 0.1811874166	-0.4770610258	 0.093741
H	-1.1079382253	-2.7183937705	-0.2621122928	 0.08996
H	-3.1093769557	-2.8287617283	-1.6533072942	 0.109432
H	-2.7471778562	-1.23882681	-2.3755615941	 0.085695
H	 0.4805203888	-3.2088852391	-3.0279306604	 0.11881
H	-0.0289724995	-1.7447095723	-3.8913948027	 0.11132
H	 1.5726880447	-0.1246241925	-1.700987522	 0.099933
85.4021	157.8366	183.4182	295.7064	329.7865	354.881	434.9564	465.9532	554.0558	619.9797	644.7337	723.336	829.7363	845.0223	870.3492	920.4525	935.8917	993.3025	1014.5649	1030.704	1050.0941	1069.5892	1084.1383	1112.2299	1155.3023	1188.9113	1204.1228	1220.2419	1245.6528	1258.0718	1285.5332	1310.9271	1318.7695	1329.6505	1357.7504	1393.2899	1430.087	1483.6854	1502.7401	1517.7622	1740.7297	2964.9918	2998.5524	3007.5396	3019.8191	3030.9666	3033.863	3092.132	3106.4489	3196.3979	3790.8624
OC1CC2COCC2=C1	O[C@H]1C[C@H]2COCC2=C1	
InChI=1S/C7H10O2/c8-7-1-5-3-9-4-6(5)2-7/h1,6-8H,2-4H2	InChI=1S/C7H10O2/c8-7-1-5-3-9-4-6(5)2-7/h1,6-8H,2-4H2/t6-,7+/m0/s1
