18
gdb 125403	2.8828	1.31752	0.97941	3.0353	78.83	-0.248	-0.0038	0.2443	1223.7954	0.148089	-401.939917	-401.931571	-401.930627	-401.974108	30.747	
C	-0.2379471822	 1.5172201889	 0.0249592627	-0.513507
C	-0.0024111501	 0.0402128439	 0.0043841149	 0.059571
C	 0.0496052114	-0.8017707718	-1.0590440424	 0.003188
O	 0.2825154906	-2.0628629432	-0.6679226857	-0.171106
N	 0.3936150093	-2.082819443	 0.7181566274	-0.230251
C	 0.2254832887	-0.8407279646	 1.1141483976	 0.334708
C	 0.2781480724	-0.4748582248	 2.5441234098	-0.111235
C	-0.2464629718	-1.4338851051	 3.5975700001	-0.254802
C	 1.2279367599	-1.1968835192	 3.4827064315	-0.254774
H	 0.6059776385	 2.0555446903	 0.4707774097	 0.13591
H	-0.378611572	 1.9045119985	-0.9875413787	 0.129535
H	-1.1304596394	 1.7767416448	 0.605340515	 0.135917
H	-0.0574908608	-0.6505778743	-2.1226746356	 0.145678
H	 0.1231169418	 0.5815002971	 2.7327258091	 0.084953
H	-0.7784970546	-1.0094463978	 4.4417283415	 0.11335
H	-0.6352567401	-2.3775498769	 3.2333464356	 0.139782
H	 1.8318593089	-1.9808977782	 3.0412060788	 0.139745
H	 1.7222145697	-0.6073185049	 4.2468423486	 0.11334
24.6186	127.4692	159.4566	175.1203	262.7078	264.1576	422.4778	460.9207	599.4098	606.9794	702.9845	736.994	800.1891	825.7548	834.2547	911.3919	917.6777	932.4441	951.4882	1016.9817	1066.3527	1070.03	1090.4855	1098.2409	1130.7936	1153.4325	1182.5253	1207.3086	1230.1015	1290.8288	1354.6038	1422.9083	1457.2659	1461.356	1483.862	1496.0478	1500.6053	1519.1682	1655.5445	3031.0694	3081.9013	3114.0904	3138.0127	3140.8159	3170.0804	3225.1478	3239.8499	3257.6113
CC1=CON=C1C1CC1	Cc1conc1C1CC1	
InChI=1S/C7H9NO/c1-5-4-9-8-7(5)6-2-3-6/h4,6H,2-3H2,1H3	InChI=1S/C7H9NO/c1-5-4-9-8-7(5)6-2-3-6/h4,6H,2-3H2,1H3
