16
gdb 6345	5.48931	1.06388	0.90973	5.9312	63.48	-0.246	-0.0026	0.2434	1247.9497	0.129476	-417.131539	-417.122428	-417.121483	-417.166331	31.609	
C	 0.1893200368	 1.4896212955	-0.0719575441	-0.370901
C	-0.065103311	-0.0052229509	 0.1021505062	-0.315852
C	-1.5511741374	-0.3560089342	 0.0162938101	 0.436885
O	-2.4240946849	 0.4664761156	-0.0880829173	-0.305166
N	-1.7788073892	-1.7361709996	 0.0612461439	-0.40569
C	-3.0244959941	-2.3851729801	 0.1772041393	 0.462913
N	-2.8950566686	-3.7588740749	 0.0108763798	-0.566371
O	-4.0635872771	-1.8408374837	 0.4466097251	-0.330159
H	 1.2563172287	 1.7103450815	 0.0195842223	 0.109488
H	-0.1541696677	 1.8321522963	-1.0511149278	 0.134307
H	-0.353782352	 2.0636556938	 0.6818757146	 0.14153
H	 0.4795784508	-0.5863709817	-0.6541287476	 0.115089
H	 0.3089054028	-0.3539033754	 1.0744291931	 0.127244
H	-0.9605304686	-2.3227663139	 0.1216249746	 0.248804
H	-2.2140161908	-4.0971904344	-0.6525883803	 0.25074
H	-3.7886711877	-4.2250744139	-0.0423617919	 0.26714
49.0089	55.6824	100.5718	149.422	204.7473	281.1314	348.0666	402.852	420.164	526.2038	560.6383	579.7568	596.9672	697.7685	771.223	817.5101	925.0636	936.3577	1018.0001	1096.5254	1098.5809	1110.707	1171.9425	1285.4986	1308.4006	1370.2952	1416.4736	1463.5131	1492.2869	1499.0971	1507.7778	1626.3957	1812.4058	1874.3573	3016.8141	3048.3802	3055.1334	3126.1293	3136.2147	3570.3007	3619.7384	3685.1238
CCC(=O)NC(N)=O	CCC(=O)NC(=O)N	
InChI=1S/C4H8N2O2/c1-2-3(7)6-4(5)8/h2H2,1H3,(H3,5,6,7,8)	InChI=1S/C4H8N2O2/c1-2-3(7)6-4(5)8/h2H2,1H3,(H3,5,6,7,8)
