16
gdb 30445	3.68397	1.22952	0.92738	5.0684	82.29	-0.2009	-0.0358	0.1651	1227.0561	0.124572	-434.101889	-434.093281	-434.092337	-434.135478	31.39	
C	-0.055524317	 1.3545199513	 0.1516300706	-0.323024
N	 0.0855652736	-0.0823462616	 0.0232496745	-0.314789
C	 0.6159365947	-0.5489748515	-1.020718646	 0.437609
O	 0.6807680948	-1.983584538	-1.0029105022	-0.245375
C	 1.2228212417	-2.6514980262	-2.0151203412	 0.486458
N	 1.2373563713	-3.9876324117	-1.7941471347	-0.564977
C	 1.7223770078	-2.0046560277	-3.1169868904	-0.295458
C	 1.6245253665	-0.5947578497	-3.0899647553	 0.033781
N	 1.110282802	 0.1080279869	-2.1193909452	-0.337164
H	 0.472490049	 1.6875170732	 1.0535661267	 0.117045
H	 0.3213493745	 1.9172306091	-0.7092659188	 0.128509
H	-1.1142732278	 1.5987352675	 0.301679386	 0.116394
H	 0.6703693371	-4.3379686428	-1.0390519453	 0.278159
H	 1.422899933	-4.6059083581	-2.5646733091	 0.274247
H	 2.1636759206	-2.5436047071	-3.9422963135	 0.095184
H	 2.0035195082	-0.0298844537	-3.942323736	 0.113403
66.2029	93.1264	165.0852	224.981	246.9945	318.269	346.8526	428.6037	443.9632	501.0963	537.6912	618.3615	708.9108	741.2144	766.1332	780.0868	887.8989	980.3238	1000.0381	1006.851	1071.9622	1110.9079	1136.0432	1157.492	1165.7348	1361.2956	1417.1501	1433.4207	1450.6652	1492.5656	1497.5929	1571.8862	1638.4632	1681.8929	1766.385	3010.94	3062.5508	3088.5358	3123.3472	3234.8881	3608.7767	3735.7499
CN=C1OC(N)=CC=N1	C[N]C1=NC=C[C@H](O1)N	
InChI=1S/C5H7N3O/c1-7-5-8-3-2-4(6)9-5/h2-3H,6H2,1H3	InChI=1S/C5H8N3O/c1-7-5-8-3-2-4(6)9-5/h2-4H,6H2,1H3/t4-/m0/s1
