23
gdb 99266	4.4418	0.59517	0.56382	1.216	83.39	-0.2405	-0.0046	0.2359	2068.0871	0.202014	-425.459532	-425.448057	-425.447113	-425.497688	40.416	
C	-0.2040590711	 1.509080445	-0.0933152569	-0.375171
C	 0.163713911	 0.0288596731	-0.0315988818	-0.275936
C	 0.7487006071	-0.402835792	 1.3078308446	 0.373625
O	 1.0279347575	 0.3994599735	 2.1712442686	-0.305425
C	 0.945397336	-1.9003167096	 1.4990457232	-0.301876
C	 1.8260021908	-2.267534076	 2.6924705811	-0.191161
C	 1.7489134981	-3.7569406498	 3.0501107943	 0.13232
C	 2.675290617	-4.1222768674	 4.2094734968	-0.40329
O	 0.4034029141	-4.1554050847	 3.3190181666	-0.429242
H	 0.6653552879	 2.1336131323	 0.1251331504	 0.133574
H	-0.5843948579	 1.773584416	-1.083944682	 0.108443
H	-0.9713658945	 1.7527526043	 0.6465656874	 0.126893
H	-0.7002133372	-0.612120945	-0.2531518943	 0.117838
H	 0.9059509938	-0.2233188822	-0.8029342491	 0.122138
H	-0.0494983977	-2.3466266317	 1.6370008592	 0.139694
H	 1.3281398422	-2.3355916379	 0.566533446	 0.107488
H	 2.8683541281	-1.9933774327	 2.490903775	 0.099952
H	 1.5199756371	-1.6669716168	 3.5580543799	 0.108928
H	 2.0296000444	-4.3515460867	 2.1707823055	 0.084829
H	 2.4246996858	-3.5386060364	 5.1043794296	 0.108986
H	 2.5790921279	-5.1835142625	 4.4540954638	 0.123158
H	 3.7211352918	-3.9143076234	 3.9617245899	 0.117218
H	 0.1290461079	-3.7127716596	 4.1305139925	 0.277014
34.2512	46.8619	75.7816	103.7795	139.3826	192.7617	231.5516	245.7033	260.0762	319.2421	324.1626	424.4039	462.5456	481.3522	502.1618	649.4737	712.7056	794.0885	813.7761	871.5267	934.8071	940.971	988.2175	1020.2323	1029.9313	1063.7624	1091.7349	1119.443	1127.8748	1161.9388	1180.2303	1262.8314	1283.6824	1302.478	1342.1519	1354.9325	1376.8786	1394.7868	1406.5663	1413.4091	1421.9899	1449.5142	1459.4806	1481.7561	1492.4504	1493.8787	1496.8047	1498.6038	1802.9816	3012.0839	3021.0292	3023.236	3025.7075	3036.6941	3042.2357	3050.5342	3051.5008	3075.8618	3095.5774	3119.0722	3119.6638	3129.2996	3791.5138
CCC(=O)CCC(C)O	CCC(=O)CC[C@@H](C)O	
InChI=1S/C7H14O2/c1-3-7(9)5-4-6(2)8/h6,8H,3-5H2,1-2H3	InChI=1S/C7H14O2/c1-3-7(9)5-4-6(2)8/h6,8H,3-5H2,1-2H3/t6-/m1/s1
