15
gdb 54620	3.25202	1.05384	0.80449	7.1553	81.98	-0.1787	-0.0297	0.149	1327.1025	0.110992	-453.976034	-453.966763	-453.965819	-454.009939	34.132	
N	 0.0882873748	 1.217646222	 0.502519036	-0.558054
C	-0.0982559889	-0.0585959334	 0.0037039152	 0.277481
N	 1.0731635243	-0.6293852248	-0.431563763	-0.550987
H	 1.7373444576	-0.0244251503	-0.8906162852	 0.260512
H	 1.0142112795	-1.5625913765	-0.8032208402	 0.266636
C	-1.3194609737	-0.6933899825	-0.0779742983	 0.188988
C	-1.5559580852	-1.8655169637	-0.921489276	-0.553026
C	-2.6763151696	-2.5764939944	-0.9217163461	 0.486554
O	-3.5564587668	-3.3259606689	-1.0599320669	-0.237491
O	-3.5076754391	-0.8973253979	 0.7032214147	-0.319824
C	-2.4372149878	-0.3011304662	 0.7333800665	 0.0485
H	-2.2963548998	 0.5419148334	 1.4399016735	 0.05325
H	 0.880966834	 1.3242495906	 1.1221604802	 0.256441
H	-0.7404701634	 1.6903479987	 0.8264891359	 0.261929
H	-0.8646118962	-2.1460568263	-1.7085811962	 0.119089
84.6429	114.9968	144.0218	207.2289	246.1667	310.4491	378.511	407.4525	416.835	434.0905	469.086	516.3653	531.8026	557.1573	589.6828	608.4804	629.9875	681.4055	909.7578	983.9883	1025.9046	1116.5674	1133.2524	1194.0031	1295.8	1400.4767	1428.7292	1460.0718	1610.7741	1630.4432	1680.1441	1719.1136	2201.514	2904.1299	3181.7643	3548.1014	3583.5547	3677.4968	3705.9713
NC(=[NH2+])C1=CC(=O)O[CH-]1	NC(=[NH2])[C]([CH][C][O])C=O	
InChI=1S/C5H5N2O2/c6-5(7)3-1-4(8)9-2-3/h1-2H,(H3,6,7)/q-1/p+1	InChI=1S/C5H6N2O2/c6-5(7)4(3-9)1-2-8/h1,3H,6-7H2
