16
gdb 12432	3.4905	1.95946	1.31782	3.4766	75.69	-0.2397	-0.0704	0.1693	904.6163	0.132469	-346.639983	-346.633069	-346.632124	-346.671318	26.328	
O	 0.0358290719	-0.02145697	 0.6957327855	-0.325066
C	 0.0028605674	 1.1453215836	 0.3475025475	 0.358236
C	-1.3335620386	 1.8431018293	 0.1280169411	-0.30326
C	-1.4612249596	 3.2244557046	 0.790982349	-0.270693
C	-0.7304553776	 4.3225011575	 0.0719902645	-0.067187
C	 0.5270326184	 4.2545714353	-0.3925558348	-0.068497
C	 1.4657886147	 3.1514241473	-0.2551420525	-0.060459
C	 1.2683797528	 1.8618445518	 0.0898720653	-0.162743
H	-1.4881827244	 1.9470492848	-0.9547779445	 0.122563
H	-2.1005307811	 1.161745496	 0.5041352067	 0.122783
H	-2.5219319891	 3.4848134403	 0.8575237603	 0.115009
H	-1.1022742826	 3.1658919658	 1.8305476773	 0.128038
H	-1.2681489301	 5.2578614023	-0.0619464111	 0.102451
H	 0.9347996626	 5.1392201924	-0.8749451743	 0.095323
H	 2.4991822517	 3.4317791323	-0.4533244456	 0.106376
H	 2.1329017039	 1.2093556767	 0.1738876258	 0.107126
69.9487	183.8703	260.9755	340.5793	366.2207	466.1708	490.8571	563.0249	689.0434	710.5354	734.4399	848.5526	862.2708	884.2946	919.2011	958.0978	1004.4831	1035.8512	1041.718	1076.0504	1162.3793	1212.872	1248.7834	1267.2285	1292.0146	1343.4716	1379.2331	1420.6253	1453.0921	1465.0457	1471.3809	1643.7085	1697.6465	1751.8766	2992.699	3024.5914	3074.2779	3105.1223	3134.8254	3150.7086	3171.0224	3178.2918
O=C1CCC=CC=C1	O=C1CCC=CC=C1	
InChI=1S/C7H8O/c8-7-5-3-1-2-4-6-7/h1-3,5H,4,6H2	InChI=1S/C7H8O/c8-7-5-3-1-2-4-6-7/h1-3,5H,4,6H2
