19
gdb 117039	4.56938	0.72952	0.63899	1.0128	74.27	-0.2402	-0.0828	0.1574	1769.9542	0.15439	-460.179744	-460.16883	-460.167886	-460.217482	36.369	
C	-0.0325297046	 1.5426483356	 0.0445574397	-0.38505
C	 0.0276715007	 0.0203776596	-0.0402926637	-0.27619
C	 0.7336684253	-0.4818973249	-1.2779520449	 0.282486
O	 1.2113147098	 0.2332939342	-2.1301926617	-0.287649
C	 0.8344741881	-2.0182674825	-1.434002257	 0.258574
O	 0.3685913407	-2.7551021687	-0.6020507491	-0.261956
C	 1.5497505938	-2.4859090221	-2.6886836027	-0.150874
O	 1.5795950272	-3.8790305965	-2.7217114984	-0.21777
C	 2.2323070573	-4.3830851726	-3.865411796	-0.226098
H	 0.9713687396	 1.9754339144	 0.0534433241	 0.131422
H	-0.5595796997	 1.9633247105	-0.8159297664	 0.131436
H	-0.5515427728	 1.8556028989	 0.9542129792	 0.116893
H	 0.5323472853	-0.4218279919	 0.8286863047	 0.142113
H	-0.9717754572	-0.433745059	-0.0244850923	 0.142111
H	 1.0326526179	-2.0515566685	-3.5627795322	 0.124371
H	 2.5600168419	-2.0393701458	-2.696582558	 0.124373
H	 2.2028542279	-5.4726981354	-3.7982749204	 0.135103
H	 1.7309406368	-4.0680442487	-4.7938427442	 0.108352
H	 3.2826043319	-4.0557547565	-3.9137189006	 0.108353
38.6186	54.5582	82.9065	92.3799	111.643	181.6835	220.9665	232.4181	294.9252	310.8377	359.9772	379.481	521.336	587.1195	696.2743	783.2291	809.3697	895.2111	968.6832	998.8677	1033.576	1088.1997	1099.4286	1173.4997	1182.9481	1203.6665	1235.8536	1242.6506	1261.7078	1374.7801	1407.783	1415.8549	1435.5444	1457.3634	1486.2679	1487.7228	1493.4629	1497.694	1511.9275	1797.2711	1821.6902	2954.4077	2972.5058	2975.4109	3020.5218	3036.0841	3051.5323	3057.9742	3122.7613	3123.7757	3124.8567
CCC(=O)C(=O)COC	CCC(=O)C(=O)COC	
InChI=1S/C6H10O3/c1-3-5(7)6(8)4-9-2/h3-4H2,1-2H3	InChI=1S/C6H10O3/c1-3-5(7)6(8)4-9-2/h3-4H2,1-2H3
