23
gdb 108948	3.40401	1.01509	0.99494	0.2437	92.	-0.2142	0.027	0.2412	1376.3295	0.206301	-351.166752	-351.157488	-351.156544	-351.200844	35.64	
C	 0.0749592308	 1.5217304649	 0.2752717775	-0.372857
C	-0.0473352766	 0.055360518	-0.1755342394	-0.288264
C	-1.4538703578	-0.4678456836	-0.1469238072	 0.334455
C	-2.1583284295	-0.9405442122	-1.1830466178	-0.19395
C	-3.5003869301	-1.448556507	-0.7868255951	-0.094077
C	-3.5517850909	-2.6344257963	 0.171546317	 0.003813
C	-2.4188096528	-3.6120502871	 0.3825555374	-0.413566
C	-3.5740361155	-1.2272858075	 0.7207517945	-0.069948
C	-2.264160815	-0.5576634857	 1.1393311196	-0.324399
H	 1.1152771965	 1.8579544652	 0.2265810981	 0.111491
H	-0.5244866912	 2.1780173901	-0.3636889551	 0.11955
H	-0.2686772399	 1.6547200828	 1.3059335942	 0.118774
H	 0.3558305744	-0.0501350473	-1.1891857559	 0.100006
H	 0.5883933951	-0.5632632708	 0.474412631	 0.100617
H	-1.7914395574	-0.9863632231	-2.203512457	 0.081622
H	-4.3503297962	-1.2830537804	-1.441177295	 0.077787
H	-4.5319463138	-3.1069429035	 0.1982011295	 0.079262
H	-1.4415776499	-3.1421623036	 0.2499963887	 0.121038
H	-2.4542143594	-4.0377168854	 1.3921443551	 0.111328
H	-2.4847987407	-4.4428537541	-0.3288101919	 0.11222
H	-4.4913277086	-0.8855878616	 1.1866930451	 0.077723
H	-1.7258345927	-1.1250921293	 1.9120790404	 0.102943
H	-2.4499435989	 0.4352689875	 1.5692352264	 0.104433
58.7223	110.5819	168.2711	202.2714	209.9062	214.8675	322.1759	350.3607	450.0109	498.4378	560.5607	609.3292	713.2634	738.7338	776.659	795.4058	851.9341	876.7099	906.3618	948.2169	961.6305	963.5166	994.6423	1027.1432	1048.8854	1073.4427	1084.0627	1101.9301	1114.0356	1134.7429	1187.7351	1205.3557	1226.1314	1266.4938	1299.7515	1322.4977	1352.9429	1359.1323	1366.867	1406.8359	1409.8098	1428.7696	1475.8177	1479.2406	1496.0354	1498.1253	1500.3691	1507.1229	1699.5627	3001.0172	3006.7952	3028.8958	3031.4383	3036.8799	3056.9896	3083.0113	3106.4696	3108.0375	3111.0592	3126.4733	3152.6754	3169.413	3181.2429
CCC1=CC2C(C)C2C1	CCC1=C[C@H]2[C@@H](C)[C@H]2C1	
InChI=1S/C9H14/c1-3-7-4-8-6(2)9(8)5-7/h4,6,8-9H,3,5H2,1-2H3	InChI=1S/C9H14/c1-3-7-4-8-6(2)9(8)5-7/h4,6,8-9H,3,5H2,1-2H3/t6-,8+,9-/m1/s1
