16
gdb 87359	2.15409	1.33001	0.94756	2.5709	69.12	-0.2579	-0.0453	0.2126	1229.683	0.120755	-475.000513	-474.991196	-474.990252	-475.035242	32.871	
O	-0.0827043291	 1.2206047879	-0.0275568573	-0.420375
C	-0.1009364315	-0.1480112017	 0.1512166224	 0.128474
C	-0.7599637286	-0.7776473022	 1.3339096442	-0.369182
C	-1.4388806086	-0.8811545677	-0.0289024472	 0.214093
O	-2.4885056489	 0.0024743687	-0.3306092208	-0.253686
C	-3.6734605086	-0.1942346954	 0.3150519517	 0.110626
N	-4.6224282677	 0.6031793644	 0.105819329	-0.427181
C	-1.4383221097	-2.1693475264	-0.7626431374	 0.102741
O	-0.6427971919	-3.0533579293	-0.5528035367	-0.265679
H	-0.9915430836	 1.5142167254	-0.1801091435	 0.307914
H	 0.7678184893	-0.6436574572	-0.2700282174	 0.135501
H	-0.3523379811	-1.7068423659	 1.7170015963	 0.15228
H	-1.2286974452	-0.11515218	 2.0532291109	 0.136108
H	-3.662716842	-1.0697974116	 0.9743790542	 0.110602
H	-5.4412746666	 0.3286751856	 0.6444730522	 0.241285
H	-2.2230575161	-2.2461726747	-1.5464235906	 0.096478
63.5525	102.4428	124.7962	155.001	206.8994	220.1052	295.9766	309.7998	410.0357	452.041	472.6933	591.0072	679.016	754.9696	793.5262	829.5418	876.6216	960.3669	999.0844	1045.6782	1050.2579	1062.4539	1086.646	1115.1406	1167.0104	1251.4217	1269.5236	1275.8156	1354.5873	1408.2322	1411.4384	1414.6302	1450.7939	1750.1415	1806.88	2902.3497	3058.4075	3136.1344	3173.2192	3238.8338	3524.1352	3754.2778
OC1CC1(OC=N)C=O	O[C@H]1C[C@]1(O[CH][NH])C=O	
InChI=1S/C5H7NO3/c6-3-9-5(2-7)1-4(5)8/h2-4,6,8H,1H2	InChI=1S/C5H7NO3/c6-3-9-5(2-7)1-4(5)8/h2-4,6,8H,1H2/t4-,5-/m0/s1
