20
gdb 119597	3.51113	1.11724	1.04219	2.4042	79.95	-0.2264	0.0164	0.2428	1244.8985	0.171593	-403.114821	-403.106176	-403.105232	-403.148564	32.517	
C	 0.2329882473	 0.9622027307	 1.4633939901	-0.237188
O	-0.3948825999	 0.0356741533	 0.6013431575	-0.233941
C	 0.4970395223	-0.6903998119	-0.2284278382	-0.202726
C	 0.7295273815	-2.096889572	 0.2775930193	 0.306185
N	-0.4254494969	-2.8662135227	 0.8186613519	-0.374171
C	 0.7123740502	-2.5237285339	 1.7047052366	-0.087888
C	 1.7243436042	-3.6521825612	 1.8791619627	-0.265004
C	 2.2564006345	-3.851536019	 0.4730658279	-0.074147
C	 1.7276071566	-2.9874282373	-0.3953276037	-0.124045
H	 0.7379088384	 1.7595074942	 0.8978648727	 0.111564
H	-0.5512750144	 1.4108072336	 2.0783033326	 0.130053
H	 0.9712316345	 0.4853137055	 2.1234412074	 0.109431
H	 0.0386125958	-0.738237608	-1.2260324042	 0.111811
H	 1.4553483988	-0.1620742823	-0.3358270699	 0.099213
H	-1.1591550367	-2.1833808166	 1.014763338	 0.232542
H	 0.5316939175	-1.8254888692	 2.5139424193	 0.087647
H	 2.5223429559	-3.376923079	 2.5816199994	 0.102061
H	 1.2528460061	-4.5617240248	 2.2707818571	 0.120761
H	 2.9592975723	-4.6387152423	 0.2236242596	 0.095644
H	 1.944150792	-2.9408770371	-1.4566113462	 0.092197
56.4789	99.9893	156.922	198.8551	233.9919	294.1842	374.5897	442.9263	458.1119	513.3201	651.1317	716.8148	744.6295	787.3379	842.8334	902.5874	920.4725	943.1936	953.3817	966.2165	1011.4706	1042.5721	1061.356	1081.525	1125.1474	1149.1263	1172.9498	1184.0723	1200.2689	1219.6681	1267.7855	1295.5968	1325.2394	1337.5943	1361.8455	1417.5669	1432.2733	1463.7383	1477.4503	1487.6486	1502.228	1510.7668	1669.1803	2982.6388	2996.126	3019.503	3033.3865	3037.4273	3057.3531	3114.741	3176.7634	3183.6237	3208.3951	3455.7113
COCC12NC1CC=C2	COC[C@]12N[C@H]1CC=C2	
InChI=1S/C7H11NO/c1-9-5-7-4-2-3-6(7)8-7/h2,4,6,8H,3,5H2,1H3	InChI=1S/C7H11NO/c1-9-5-7-4-2-3-6(7)8-7/h2,4,6,8H,3,5H2,1H3/t6-,7-/m0/s1
