15
gdb 55658	2.72111	1.07145	0.84709	4.2193	68.35	-0.2931	-0.0657	0.2275	1334.0349	0.108856	-453.955885	-453.9462	-453.945256	-453.991794	32.483	
C	-0.0651838407	 1.4462959072	-0.0653847874	-0.446742
C	 0.1208216137	-0.0410487739	-0.057296613	 0.421983
N	 1.2496309194	-0.5952521616	-0.1492968102	-0.496349
O	-1.119483438	-0.6489254108	 0.0615787632	-0.248306
C	-1.177460117	-2.0513148673	 0.2094765566	-0.152723
C	-2.5492393317	-2.3602741636	 0.8483734463	 0.156621
O	-3.1338826035	-3.3922147313	 0.7073742033	-0.20481
C	-0.9776531532	-2.7752872531	-1.0524748319	 0.299916
N	-0.8115838172	-3.3359305378	-2.0479183936	-0.29938
H	 0.9055545254	 1.931420202	-0.1508062333	 0.159473
H	-0.6998373349	 1.7384505805	-0.907631938	 0.153269
H	-0.5672655823	 1.7731893282	 0.8501372308	 0.14398
H	 1.2300782052	-1.6130668613	-0.176228033	 0.234631
H	-0.4176032538	-2.3942831985	 0.9317911676	 0.157182
H	-2.9117415712	-1.5199634087	 1.4743441926	 0.121256
58.2665	67.908	77.6991	141.9723	149.4739	177.8429	258.72	331.0868	359.3954	445.9561	540.166	570.3309	606.1227	704.3191	783.8792	866.3317	868.557	994.1693	1023.0604	1058.4397	1076.3487	1103.2627	1116.6014	1271.2904	1284.507	1333.5621	1393.4037	1409.5098	1472.6807	1476.5321	1758.5627	1861.1658	2367.7255	2941.2518	2978.4731	3054.3923	3113.7936	3175.8617	3509.6269
CC(=N)OC(C=O)C#N	CC(=N)O[C@@H](C=O)C#N	
InChI=1S/C5H6N2O2/c1-4(7)9-5(2-6)3-8/h3,5,7H,1H3	InChI=1S/C5H6N2O2/c1-4(7)9-5(2-6)3-8/h3,5,7H,1H3/t5-/m1/s1
