18
gdb 14721	11.14085	0.5441	0.52547	4.1844	81.07	-0.2621	-0.0566	0.2054	2051.1039	0.151061	-347.794036	-347.784139	-347.783194	-347.831054	32.645	
C	 0.0503266571	 1.5720959259	 0.0100571646	-0.387193
C	 0.0047820618	 0.0420982386	 0.0023051187	-0.163604
C	-1.4230454898	-0.511704927	 0.0128756444	-0.156816
C	-1.4563750564	-2.0533149321	 0.0048912014	-0.365964
C	-2.7997334974	-2.6110804539	 0.0146395447	 0.067583
C	-3.9188211335	-3.0673527607	 0.022966478	 0.064177
C	-5.2640939166	-3.5769057174	 0.0330171786	 0.016231
O	-5.5569498446	-4.7512388815	 0.0295026668	-0.230965
H	 1.0812268455	 1.9385958925	 0.0022482104	 0.117042
H	-0.4579194864	 1.9881724963	-0.8667068814	 0.118197
H	-0.4411712415	 1.9787208221	 0.9006945505	 0.118197
H	 0.5340140706	-0.3370910574	-0.8820157204	 0.099587
H	 0.5506444067	-0.3464770811	 0.8723265059	 0.099588
H	-1.9590054324	-0.1483774227	 0.8977290916	 0.111054
H	-1.9756650971	-0.138954189	-0.8576995704	 0.111053
H	-0.923354316	-2.4329933257	-0.8775277287	 0.143292
H	-0.9066839647	-2.4424675532	 0.8728499995	 0.143296
H	-6.0457695054	-2.7894858636	 0.0447096157	 0.095245
18.7408	62.129	68.0269	103.3401	162.1643	187.2261	249.1105	250.4942	366.3962	410.1109	502.3879	600.3905	730.335	784.4591	830.4581	907.8551	927.5145	1004.3125	1022.5171	1061.808	1120.7238	1124.6734	1159.9564	1238.0374	1274.5065	1308.6814	1328.6903	1355.8691	1394.4594	1413.4902	1423.4886	1457.3897	1484.4378	1496.082	1500.1967	1510.666	1766.4851	2329.0189	2911.9855	3012.3608	3013.75	3031.0256	3036.5071	3038.0554	3043.2106	3079.4142	3099.257	3106.0365
CCCCC#CC=O	CCCCC#CC=O	
InChI=1S/C7H10O/c1-2-3-4-5-6-7-8/h7H,2-4H2,1H3	InChI=1S/C7H10O/c1-2-3-4-5-6-7-8/h7H,2-4H2,1H3
