18
gdb 37014	3.62468	1.09523	1.06625	1.4172	72.2	-0.2485	0.0435	0.292	1188.9416	0.147409	-438.999657	-438.991615	-438.990671	-439.032853	29.745	
C	 0.0103119137	 1.5007813094	 0.1008315721	-0.134052
O	 1.3175512438	 1.5044624067	-0.5206636342	-0.272414
C	 1.3896588919	 0.0642505418	-0.5313118812	-0.148245
C	-0.0235510539	-0.0221954573	 0.0408538993	 0.208762
N	-0.5520142918	-0.9019197559	 1.0779313649	-0.41694
C	-1.0987018288	-0.9738161548	-0.2728770645	 0.208763
C	-2.5626361736	-0.7765502856	-0.6499507195	-0.134052
O	-2.4639776656	-1.842599036	-1.6240917681	-0.272414
C	-1.10130756	-2.140518884	-1.2581723102	-0.148245
H	 0.0284473569	 1.916130421	 1.1159129177	 0.114633
H	-0.732924045	 2.0360816342	-0.5027977762	 0.109057
H	 1.537828801	-0.3377400262	-1.5423009731	 0.10932
H	 2.1832896064	-0.3165966354	 0.1271477574	 0.104743
H	 0.0800017446	-1.6784436298	 1.2674016624	 0.233333
H	-3.2744332077	-1.0072562618	 0.152142366	 0.114633
H	-2.8289498817	 0.1808692521	-1.1144285511	 0.109056
H	-0.4151511548	-2.0663188321	-2.1121827163	 0.10932
H	-1.0019698055	-3.1359011561	-0.8023113554	 0.104743
75.6421	117.0101	142.1639	175.9338	252.9553	413.2452	426.2221	437.973	495.9806	608.584	801.5658	860.6774	884.6654	934.2154	934.3918	961.1798	987.9061	1005.9842	1022.1896	1029.9703	1034.7815	1108.5547	1124.201	1143.3992	1147.3447	1148.9709	1151.5184	1156.8088	1241.787	1264.8376	1302.1385	1303.5092	1351.5966	1364.7229	1498.8887	1504.0285	1524.1231	1527.4827	1536.7254	2992.5577	2994.9487	3016.0574	3018.8377	3037.2172	3039.867	3062.2171	3064.0117	3475.4637
C1OCC11NC11COC1	C1OCC21NC12COC1	
InChI=1S/C6H9NO2/c1-5(2-8-1)6(7-5)3-9-4-6/h7H,1-4H2	InChI=1S/C6H9NO2/c1-5(2-8-1)6(7-5)3-9-4-6/h7H,1-4H2
