23
gdb 119400	3.84235	0.96288	0.9187	1.451	85.42	-0.2395	0.0856	0.3251	1424.3977	0.206761	-388.2862	-388.277351	-388.276407	-388.320023	34.477	
C	-0.041916062	 1.5697817543	 0.2070502663	-0.38177
C	-0.008922671	 0.0412144841	 0.131849885	-0.167792
C	-1.3850277199	-0.5635769399	-0.1825895969	-0.304748
C	-1.4163174273	-2.07044285	-0.1426242869	 0.446929
C	-2.7288267136	-2.8955978173	-0.0907764987	-0.282265
C	-1.7551929378	-3.836252335	 0.6450657878	 0.081803
C	-0.7937932865	-4.3106363087	-0.4637421472	-0.216243
C	-0.52370761	-2.9091633506	-1.0960744458	-0.257689
O	-1.0664834753	-2.657916873	 1.1640741726	-0.336189
H	 0.9473463238	 1.9784371628	 0.4354226118	 0.111137
H	-0.3723224898	 2.0083586516	-0.7415355903	 0.110871
H	-0.7317533093	 1.9124282565	 0.9863201721	 0.115104
H	 0.7155208073	-0.2701890933	-0.6301551043	 0.096514
H	 0.3460252058	-0.3727016282	 1.0823004587	 0.120185
H	-2.1188673685	-0.1840405175	 0.5393129631	 0.099905
H	-1.7235072191	-0.2346819157	-1.1748628997	 0.095341
H	-3.4585531388	-2.4475897343	 0.5852348103	 0.104251
H	-3.1935737465	-3.2255412494	-1.0243075166	 0.087803
H	-2.067859282	-4.542849478	 1.4137987252	 0.074399
H	 0.1062835255	-4.7641656506	-0.0435847513	 0.105344
H	-1.2549465437	-5.0227770817	-1.1537389055	 0.095514
H	-0.8383814979	-2.8323077232	-2.1407642676	 0.094894
H	 0.5248291166	-2.6147657328	-1.0267690724	 0.106701
73.5573	83.6301	131.9279	243.242	267.1784	302.3798	318.0893	392.0569	444.3828	560.1165	648.5662	729.3378	742.9481	810.7465	823.7785	837.4247	868.0181	884.4276	902.7657	928.2344	950.2697	959.2573	1002.8511	1023.5765	1047.2921	1068.4013	1093.3077	1124.0626	1161.7061	1163.6998	1207.9407	1227.3774	1237.8413	1264.7215	1279.0483	1290.0928	1309.8008	1319.9611	1339.7767	1353.7852	1405.5677	1414.1899	1472.1829	1479.3096	1481.8939	1494.2439	1499.8383	1505.7973	1510.3777	3013.4556	3027.9737	3034.8247	3050.1085	3057.4633	3059.512	3069.3161	3072.7172	3098.0734	3101.7858	3107.959	3122.1619	3125.251	3136.0081
CCCC12CC(CC1)O2	CCC[C@@]12C[C@@H](CC1)O2	
InChI=1S/C8H14O/c1-2-4-8-5-3-7(6-8)9-8/h7H,2-6H2,1H3	InChI=1S/C8H14O/c1-2-4-8-5-3-7(6-8)9-8/h7H,2-6H2,1H3/t7-,8+/m1/s1
