22
gdb 56258	5.15373	0.59104	0.57669	3.3673	84.65	-0.239	0.0385	0.2776	2006.6886	0.193132	-404.37611	-404.365481	-404.364537	-404.41509	37.212	
C	-0.1515710695	 1.4254355867	-0.1410417043	-0.481509
C	-0.1265334971	-0.095016726	-0.2047361704	 0.40549
O	 0.5960036775	-0.6971137138	-0.9791123383	-0.375662
N	-0.9683867955	-0.7276416936	 0.6665003076	-0.310993
C	-1.1230105134	-2.172652356	 0.6893758804	-0.158814
C	-2.3464479971	-2.667151798	-0.0975901551	-0.210375
C	-2.4811652218	-4.1739014682	-0.064198347	 0.041876
C	-3.1705838999	-4.8565807443	 1.0931688401	-0.256832
C	-3.8214551617	-4.8310931647	-0.2682340992	-0.276672
H	 0.8763679256	 1.7888402917	-0.0746938385	 0.152386
H	-0.574681704	 1.8112856714	-1.0732624139	 0.150267
H	-0.7282346307	 1.8232753813	 0.6983685365	 0.108217
H	-1.5821392689	-0.1701372899	 1.236796482	 0.239978
H	-0.2094934109	-2.5854546613	 0.2545760845	 0.14474
H	-1.1848396773	-2.5098430791	 1.7304467236	 0.103891
H	-3.256753065	-2.2097283893	 0.3139095916	 0.08129
H	-2.2585703868	-2.3163330323	-1.1330551234	 0.11546
H	-1.628728892	-4.7047071704	-0.4816913187	 0.088397
H	-2.7705734615	-5.7963835831	 1.4572562901	 0.112036
H	-3.6000591321	-4.2295636258	 1.8685575624	 0.105197
H	-4.6844538632	-4.1873453	-0.4048407186	 0.109167
H	-3.8633649145	-5.7533773153	-0.8368715013	 0.112466
9.7104	51.4258	58.8274	79.0325	96.6452	189.6807	278.5338	309.1723	387.2203	409.1063	430.1685	486.0339	618.3344	645.5974	756.4706	776.6018	821.5355	840.5434	884.4931	926.6355	970.8186	990.4016	1035.5998	1048.4446	1058.4773	1069.4484	1079.831	1107.7699	1140.1912	1186.4772	1198.7101	1228.598	1249.7936	1274.9464	1306.8365	1340.2062	1393.7928	1403.2851	1419.4938	1468.6202	1470.2097	1473.8583	1486.8914	1489.8958	1508.1962	1540.7341	1779.3239	3011.8643	3039.4849	3048.0254	3060.1906	3116.0014	3120.6883	3126.5046	3131.6994	3135.0946	3135.5508	3204.9234	3220.4946	3647.8421
CC(=O)NCCC1CC1	CC(=O)NCCC1CC1	
InChI=1S/C7H13NO/c1-6(9)8-5-4-7-2-3-7/h7H,2-5H2,1H3,(H,8,9)	InChI=1S/C7H13NO/c1-6(9)8-5-4-7-2-3-7/h7H,2-5H2,1H3,(H,8,9)
