22
gdb 36886	3.77775	0.98032	0.93888	1.0022	86.13	-0.2276	0.0817	0.3093	1366.9299	0.19554	-367.14344	-367.135051	-367.134107	-367.177065	32.67	
C	 0.4432463503	 1.4931254151	 0.9303740698	-0.183921
C	 0.2669330108	 0.0190461044	 0.6354915074	 0.014146
C	-0.7303884303	-0.8925606975	 1.29458096	-0.085054
C	-2.0862473822	-0.2066365792	 1.5192086715	-0.227401
C	-2.1757057125	 0.0856885904	-0.0132269361	-0.230241
C	-0.8161853408	-0.5975082855	-0.2124880661	-0.06047
N	 1.3197869611	 2.1105317109	-0.0648169528	-0.060987
C	 0.6728193745	 2.6615066418	-1.2501606928	-0.217122
C	 1.2255890949	 3.5590264945	-0.1982528391	-0.22148
H	-0.529583422	 2.0097250936	 0.9922347201	 0.079588
H	 0.9266584108	 1.6124981214	 1.9085425132	 0.101934
H	 1.2258124356	-0.4711859312	 0.4790437197	 0.093333
H	-0.4125080893	-1.8020015397	 1.7915850983	 0.080569
H	-2.8589643897	-0.9061915137	 1.845333971	 0.101638
H	-2.096242103	 0.6526175267	 2.1974273677	 0.094971
H	-2.9906129544	-0.4682283658	-0.4844335731	 0.102954
H	-2.2553653853	 1.1334341818	-0.3223297084	 0.09246
H	-0.5707224644	-1.2463313954	-1.0452262277	 0.080655
H	 1.1998224073	 2.5179825323	-2.1892360856	 0.113664
H	-0.4112966752	 2.5910190683	-1.3220707726	 0.111652
H	 0.5086087221	 4.0849523258	 0.4312321756	 0.105149
H	 2.1640753719	 4.0841080811	-0.3529320201	 0.113963
60.5417	80.3624	144.0533	244.0487	257.3127	360.4529	370.9907	453.6615	547.3766	709.4463	754.7698	779.8112	792.5161	796.8338	841.6274	891.6834	920.3062	934.8965	959.7432	986.6944	1009.1392	1018.6769	1030.7172	1038.4464	1060.54	1084.7358	1112.5284	1115.3969	1125.1209	1141.3571	1172.1965	1172.6191	1218.9017	1224.4141	1246.5199	1265.1385	1287.8522	1306.2251	1318.2474	1337.307	1381.7513	1457.4701	1481.3597	1489.1017	1496.1245	1508.6561	1524.3885	2952.381	3035.8115	3043.8358	3052.1238	3090.6631	3093.0728	3097.7684	3111.5963	3133.0206	3167.7251	3173.2943	3180.2843	3188.309
C(C1C2CCC12)N1CC1	C([C@H]1[C@H]2CC[C@@H]12)N1CC1	
InChI=1S/C8H13N/c1-2-7-6(1)8(7)5-9-3-4-9/h6-8H,1-5H2	InChI=1S/C8H13N/c1-2-7-6(1)8(7)5-9-3-4-9/h6-8H,1-5H2/t6-,7+,8-
