16
gdb 84905	2.90906	1.43206	1.0834	5.5627	70.73	-0.2679	-0.0131	0.2548	1089.8676	0.124824	-437.888778	-437.880726	-437.879781	-437.921435	30.119	
O	 0.1230451623	 1.4207420391	-0.0774460386	-0.419985
C	 0.0557698356	 0.0072024044	-0.0236173294	 0.095579
C	 0.7833875941	-0.5474817303	 1.1789269754	-0.108079
C	 0.1275479008	-1.0141495355	 2.2394743577	-0.062897
C	-1.3729299855	-1.012095567	 2.3089567143	-0.131812
O	-1.9662330506	-0.2145296911	 1.2934331787	-0.261494
C	-1.4041525108	-0.4976051937	 0.0193123808	-0.087625
C	-2.2422619218	 0.1454486487	-0.9992772759	 0.301191
N	-2.8932483404	 0.617081776	-1.8274805818	-0.313816
H	-0.2911614151	 1.7519529722	 0.729033872	 0.288078
H	 0.5226467359	-0.3421292936	-0.950829786	 0.111151
H	 1.8680051407	-0.5161664621	 1.1529161415	 0.110808
H	 0.654857028	-1.4173057894	 3.0999613591	 0.109545
H	-1.7615295376	-2.0452332385	 2.2565065388	 0.115376
H	-1.7184292072	-0.5890966259	 3.2581210677	 0.135292
H	-1.4142702883	-1.5837568732	-0.1714269744	 0.118689
93.403	142.5534	173.6981	247.1598	279.3619	363.2454	396.6266	440.5002	488.2515	516.0134	566.9936	688.1334	747.475	826.4663	858.4431	921.0311	955.2059	994.743	1019.4888	1055.1711	1068.5185	1098.2139	1113.4514	1205.7391	1249.3209	1263.0751	1313.4775	1337.2755	1369.3792	1394.4702	1405.963	1426.4101	1483.4584	1717.7282	2374.2971	2949.2717	2973.216	3062.4026	3072.19	3163.3916	3188.1038	3788.2945
OC1C=CCOC1C#N	O[C@H]1C=CCO[C@H]1C#N	
InChI=1S/C6H7NO2/c7-4-6-5(8)2-1-3-9-6/h1-2,5-6,8H,3H2	InChI=1S/C6H7NO2/c7-4-6-5(8)2-1-3-9-6/h1-2,5-6,8H,3H2/t5-,6-/m0/s1
