19
gdb 60862	2.93176	1.11372	1.07636	1.4532	71.41	-0.2533	-0.0451	0.2082	1208.4279	0.156775	-460.145845	-460.136452	-460.135508	-460.180293	34.087	
C	-0.0524808414	 1.6486085116	 0.0680538445	-0.482452
C	 0.0431754912	 0.1288517719	 0.0303087672	 0.260965
C	 1.1378697261	-0.5140048993	-0.8602417328	-0.125576
O	 1.6378304769	-1.2933082523	 0.2402259246	-0.274732
C	 0.8248830793	-0.5567525898	 1.1795022319	-0.112351
C	-1.3385233284	-0.5367811574	-0.1561094074	 0.006955
O	-2.174276437	-0.2607719284	 0.9348851057	-0.44233
C	-2.0070708558	-0.1069051944	-1.4461725402	 0.129063
O	-3.1148408315	 0.3748943767	-1.4561163868	-0.264356
H	 0.9197359146	 2.0954667043	 0.2953071205	 0.12118
H	-0.3907247548	 2.0585987743	-0.8907578057	 0.120568
H	-0.7649246629	 1.9619173528	 0.8361441616	 0.142182
H	 0.8097752916	-1.1474126613	-1.6945136245	 0.097913
H	 1.881202157	 0.2038903045	-1.2337040351	 0.099533
H	 1.4249888063	 0.1378395032	 1.7826213771	 0.09713
H	 0.25452306	-1.2130875722	 1.8440135269	 0.123158
H	-1.167238815	-1.6262721989	-0.244663512	 0.103625
H	-2.9897966173	 0.1045874746	 0.5558488833	 0.296519
H	-1.4350920488	-0.26420928	-2.3825187989	 0.103005
81.2899	84.1669	119.3869	199.2443	211.467	267.2448	297.9287	314.5751	348.9283	438.0227	453.7804	501.4628	692.9169	741.7839	823.197	869.6126	896.3081	940.8109	976.5717	983.9898	1011.0674	1028.1621	1036.5207	1151.2549	1156.96	1167.7896	1189.381	1198.7875	1266.7292	1300.1401	1308.3381	1346.2267	1382.1826	1396.8873	1411.8495	1436.3844	1489.9817	1500.5735	1510.8415	1536.5676	1808.612	2927.3814	2941.8611	2997.0425	3012.1975	3033.391	3041.1185	3079.6892	3098.1156	3120.8839	3686.4953
CC1(COC1)C(O)C=O	CC1(COC1)[C@@H](O)C=O	
InChI=1S/C6H10O3/c1-6(3-9-4-6)5(8)2-7/h2,5,8H,3-4H2,1H3	InChI=1S/C6H10O3/c1-6(3-9-4-6)5(8)2-7/h2,5,8H,3-4H2,1H3/t5-/m0/s1
