18
gdb 106397	3.45768	1.44976	1.27872	3.2108	70.51	-0.2341	0.0671	0.3011	1018.6711	0.148997	-439.008694	-439.001435	-439.000491	-439.040242	29.553	
O	 0.0723428167	 1.379293657	-0.1396032053	-0.418385
C	 0.0284645858	-0.0234172624	 0.0349003196	-0.17855
C	-1.3857021099	-0.5298166563	 0.116926041	 0.393102
C	-2.5021580111	 0.0819153364	 1.0198408776	-0.263291
C	-3.3202033652	-0.4611039785	-0.1825000452	 0.048828
O	-2.1929942425	-0.1342358492	-1.0387894893	-0.308368
C	-3.1634083931	-1.9942313744	 0.0060010271	-0.054925
N	-2.2777820075	-2.6108104516	-1.0067752512	-0.316943
C	-1.7023336741	-2.0463431037	 0.2349394296	-0.130843
H	-0.5386607367	 1.5746242939	-0.8605000779	 0.292976
H	 0.5422649909	-0.5523087266	-0.7841312295	 0.107045
H	 0.5615559319	-0.2512203174	 0.9647786174	 0.109844
H	-2.6698307719	-0.3494337352	 2.0109363451	 0.092099
H	-2.4552554585	 1.1705659768	 1.0492417391	 0.117389
H	-4.2714163248	-0.0476406074	-0.5147835373	 0.086941
H	-3.8932122485	-2.5806372926	 0.5508250198	 0.097144
H	-2.3331648009	-3.6219496248	-0.8881083946	 0.230655
H	-1.2143530706	-2.6745251541	 0.9703740139	 0.095281
110.0872	167.1724	260.6084	354.7946	396.2714	409.454	461.7192	518.8945	655.889	687.3604	723.2011	799.7157	803.4905	827.3617	861.4923	879.1248	907.0959	928.6868	952.8697	988.7043	1045.4276	1055.2917	1065.3424	1093.2855	1121.9164	1128.7614	1144.2392	1198.5466	1219.0689	1231.6864	1252.5923	1281.6962	1310.538	1331.3321	1376.5118	1394.4139	1442.8238	1487.2807	1491.0808	2980.1423	3062.2263	3068.7464	3132.0386	3150.8058	3182.8187	3193.419	3476.2576	3789.9165
OCC12CC(O1)C1NC21	OC[C@@]12C[C@@H](O1)[C@H]1N[C@@H]21	
InChI=1S/C6H9NO2/c8-2-6-1-3(9-6)4-5(6)7-4/h3-5,7-8H,1-2H2	InChI=1S/C6H9NO2/c8-2-6-1-3(9-6)4-5(6)7-4/h3-5,7-8H,1-2H2/t3-,4-,5-,6-/m1/s1
