16
gdb 28127	5.00661	1.25494	1.01096	1.7541	82.16	-0.1641	-0.0002	0.1638	1129.2452	0.126272	-400.77917	-400.771822	-400.770877	-400.810703	28.956	
N	 0.1392580405	 1.3456168951	 0.1598991182	-0.593128
C	-0.0544085808	-0.024965269	 0.048256995	 0.37245
C	-1.1755859746	-0.8164611862	 0.0163059915	-0.476419
C	-0.6767527398	-2.1578616627	 0.0102020284	 0.28066
C	 0.6795971169	-2.0656211955	 0.0298557321	 0.302082
O	 1.0951593122	-0.7651489872	 0.0576698014	-0.230434
C	 1.3311352131	-3.3540061631	-0.0015491371	-0.212244
C	 0.3468656639	-4.2821954745	-0.0362249258	-0.091303
C	-1.0277742651	-3.6176285468	-0.032030109	-0.416122
H	 0.9587545558	 1.664769139	-0.3427772964	 0.255376
H	-0.6756487281	 1.8733245618	-0.1214491037	 0.254931
H	-2.1945257135	-0.463079188	-0.0020185589	 0.098207
H	 2.3970740733	-3.5354008537	 0.0063885473	 0.104116
H	 0.4811671354	-5.3547812206	-0.0571904519	 0.095599
H	-1.6218021665	-3.9425224913	 0.8323969475	 0.128745
H	-1.6059633827	-3.8959480574	-0.9229792688	 0.127485
135.0663	160.8448	258.9406	288.347	301.6976	420.509	501.7978	554.2609	645.5114	655.6095	705.4581	718.402	723.3205	744.6379	796.0127	882.9979	909.0374	923.3666	929.3722	974.9324	1064.4199	1093.3914	1127.6689	1141.0168	1174.3587	1239.6351	1287.2579	1358.3069	1416.3578	1434.8363	1479.203	1531.7821	1597.7031	1622.4352	1653.4863	3028.4238	3056.0456	3219.7414	3241.3319	3251.9057	3536.6325	3640.8266
NC1=CC2=C(O1)C=CC2	Nc1cc2c(o1)C=CC2	
InChI=1S/C7H7NO/c8-7-4-5-2-1-3-6(5)9-7/h1,3-4H,2,8H2	InChI=1S/C7H7NO/c8-7-4-5-2-1-3-6(5)9-7/h1,3-4H,2,8H2
