19
gdb 91467	2.57236	1.67956	1.23951	1.7403	81.3	-0.2477	0.0211	0.2688	1061.1875	0.158997	-385.841781	-385.833655	-385.832711	-385.873993	32.533	
C	-0.0831749629	 1.5014938356	 0.0215552706	-0.414597
C	 0.027674772	-0.0189137498	-0.0006863452	-0.023545
C	 1.0265375971	-0.5826285113	-1.0658799263	-0.237933
C	 1.9859343607	-1.2983236797	-0.0975550116	 0.061301
C	 1.0464170417	-2.0737808231	 0.8455279205	-0.279175
C	 0.7494066432	-0.6063181162	 1.2553394908	 0.325154
O	 2.1592246917	-0.2973654086	 0.9575035642	-0.327617
C	 0.2807333528	-0.2330403619	 2.5635942074	 0.098629
C	-0.1415735293	 0.0663690927	 3.6485696949	-0.340178
H	 0.9023538363	 1.9488552505	 0.1811582637	 0.131746
H	-0.4800166788	 1.8763061988	-0.9274015466	 0.110649
H	-0.7468626246	 1.838516063	 0.8238219227	 0.122485
H	-0.9656122837	-0.4680691423	-0.1002463682	 0.076841
H	 0.5610452584	-1.2609202339	-1.7861270186	 0.098733
H	 1.5344649318	 0.2151172644	-1.6131308807	 0.108547
H	 2.9228749316	-1.7052435334	-0.4753290685	 0.083365
H	 0.2353045824	-2.6745855241	 0.4267698767	 0.097658
H	 1.5862308886	-2.6052908944	 1.6285849261	 0.120338
H	-0.506258539	 0.3320200935	 4.6100773082	 0.187597
129.2873	140.5544	195.4838	240.299	297.754	416.6855	434.9591	483.3608	513.4885	539.3451	603.8693	623.86	679.9958	697.848	803.1949	838.9015	849.9178	883.2988	928.1146	938.6368	967.7101	1000.2071	1024.2755	1055.8011	1108.636	1115.3634	1134.2164	1190.8143	1206.7198	1238.9973	1272.5094	1286.801	1298.8023	1323.2451	1363.9926	1405.1202	1479.7605	1492.1836	1496.638	1504.8652	2239.6313	3036.4323	3052.7869	3063.1493	3071.7294	3104.1806	3111.9759	3117.9893	3133.3124	3153.8722	3501.2609
CC1CC2CC1(O2)C#C	C[C@H]1C[C@@H]2C[C@]1(O2)C#C	
InChI=1S/C8H10O/c1-3-8-5-7(9-8)4-6(8)2/h1,6-7H,4-5H2,2H3	InChI=1S/C8H10O/c1-3-8-5-7(9-8)4-6(8)2/h1,6-7H,4-5H2,2H3/t6-,7+,8+/m0/s1
