21
gdb 118277	4.30291	0.62032	0.56324	0.5595	83.23	-0.253	0.0337	0.2867	1974.7441	0.177823	-424.167002	-424.155695	-424.154751	-424.204932	38.858	
C	-0.2163908427	 1.5792366719	 0.8115748416	-0.224852
O	-0.1896498679	 0.1930572597	 1.0535471332	-0.235648
C	 0.6150024581	-0.5092462798	 0.1338418338	-0.072114
C	 0.5556783386	-1.9961992327	 0.4794375156	 0.133068
C	-0.8600334104	-2.5591375283	 0.359748239	-0.405692
O	 1.4746163886	-2.6137431029	-0.4152353918	-0.264206
C	 1.8692530923	-3.9178311095	-0.0365068906	-0.215587
C	 2.9232684995	-4.3904191957	-0.9256831055	 0.285475
C	 3.7903727019	-4.8067986732	-1.6444236771	-0.417622
H	-0.6235473224	 1.8119105402	-0.1850798884	 0.105893
H	-0.8587879114	 2.0320808197	 1.570692875	 0.12682
H	 0.7880843808	 2.0253081605	 0.8829515647	 0.106123
H	 0.2615389433	-0.3566173891	-0.8998701751	 0.093853
H	 1.6613489275	-0.1696171623	 0.1797494507	 0.095963
H	 0.9119486474	-2.1168872223	 1.5159515768	 0.07531
H	-1.1935647491	-2.5148557886	-0.6822634964	 0.121536
H	-0.9187672455	-3.5975444986	 0.6981764762	 0.113352
H	-1.5403140003	-1.9620611651	 0.9717279219	 0.138819
H	 2.2354590022	-3.9204548993	 1.0046276055	 0.117385
H	 1.0223609133	-4.620926435	-0.0748472947	 0.122518
H	 4.5578170263	-5.1689216197	-2.2827771443	 0.199604
36.5604	61.7251	78.3806	97.0548	122.1451	187.402	219.5673	236.7832	292.4051	328.9873	335.4839	365.7335	438.759	520.2527	582.7843	606.974	674.6152	858.6143	932.4052	949.045	973.0198	995.4655	1033.5678	1087.505	1132.1134	1149.7456	1163.8303	1176.8467	1197.6388	1232.806	1255.5124	1256.9812	1333.1353	1375.7248	1400.8096	1412.493	1432.6459	1480.3208	1484.3881	1492.4947	1495.3705	1503.3002	1507.0621	1528.0296	2247.8652	2957.2872	2960.3943	2968.8956	2975.5663	2989.0774	3007.3599	3016.0958	3042.5318	3111.4771	3114.245	3132.0046	3506.1269
COCC(C)OCC#C	COC[C@@H](C)OCC#C	
InChI=1S/C7H12O2/c1-4-5-9-7(2)6-8-3/h1,7H,5-6H2,2-3H3	InChI=1S/C7H12O2/c1-4-5-9-7(2)6-8-3/h1,7H,5-6H2,2-3H3/t7-/m1/s1
