20
gdb 111584	3.25168	1.45796	1.34214	2.1495	77.75	-0.2032	0.0768	0.28	1046.8929	0.172625	-403.071778	-403.064154	-403.06321	-403.103993	29.888	
C	 0.0394072631	 1.2637523168	-0.2424926506	-0.241266
O	-0.0287139353	-0.0320285398	 0.3128062306	-0.241711
C	-1.2808318774	-0.6406332225	 0.1585203019	 0.156239
C	-1.7151201838	-1.1792784002	-1.2403869822	-0.107197
C	-0.607494558	-2.0161274677	-1.9049895595	-0.173653
N	-0.8835197557	-3.2003030444	-1.0201162639	-0.149074
C	-0.2630200933	-2.9825906077	 0.3333869211	-0.171243
C	-1.4023532831	-2.0484606024	 0.7788663495	-0.110539
C	-2.1441270938	-2.4986002198	-0.522216535	 0.002364
H	 1.043396259	 1.6487071638	-0.0494449746	 0.129038
H	-0.1344235919	 1.2568449078	-1.3286456454	 0.11086
H	-0.696464168	 1.9401268759	 0.2197361224	 0.10612
H	-2.0780298033	 0.0103410316	 0.5532493085	 0.064875
H	-2.3591496292	-0.5514275261	-1.8572444496	 0.063578
H	-0.8359930825	-2.2719541907	-2.9446485966	 0.10187
H	 0.4161952827	-1.6316076532	-1.8497016366	 0.107059
H	-0.2578327608	-3.9266566889	 0.8874696337	 0.102197
H	 0.7502486542	-2.5709291029	 0.3188550048	 0.11386
H	-1.7834574659	-2.1195694522	 1.7979154053	 0.067397
H	-3.1077568271	-3.0010257675	-0.5897560839	 0.069227
86.2576	149.1048	178.9281	231.8155	313.2343	414.1252	473.9953	559.6684	598.885	692.6715	775.9654	804.6573	838.0738	872.4685	902.0957	941.3261	974.5527	980.4873	995.4865	1005.2188	1043.1982	1060.3287	1112.4371	1146.1393	1153.2776	1181.7244	1182.6469	1190.2791	1197.0621	1203.4227	1228.7846	1235.7774	1248.9795	1298.2485	1313.1407	1333.9401	1339.7232	1382.4263	1481.1978	1486.8438	1488.1458	1503.9549	1508.907	2964.2652	2978.594	3026.4586	3034.8599	3042.2376	3084.2845	3094.3407	3095.9053	3100.7593	3117.084	3125.0467
COC1C2CN3CC1C23	CO[C@H]1[C@H]2CN3C[C@@H]1[C@@H]23	
InChI=1S/C7H11NO/c1-9-7-4-2-8-3-5(7)6(4)8/h4-7H,2-3H2,1H3	InChI=1S/C7H11NO/c1-9-7-4-2-8-3-5(7)6(4)8/h4-7H,2-3H2,1H3/t4-,5+,6+,7-
