18
gdb 38215	3.3029	1.85312	1.50982	1.8053	74.16	-0.2483	0.013	0.2613	901.2109	0.151911	-401.935388	-401.929272	-401.928328	-401.965524	26.305	
C	 0.0351207425	 1.6762684816	 0.0246819869	-0.282877
C	 1.5449044255	 1.3214671247	 0.0315976447	-0.03311
C	 1.135864216	 0.0674428465	 0.9123622822	-0.311382
C	-0.0720862968	 0.133840325	-0.0366541151	 0.429304
O	-1.3574831582	-0.4825336251	-0.0797734344	-0.292036
C	-1.5904318766	-0.5202079732	-1.4396662752	 0.074648
N	-0.6342305334	-0.3255959565	-2.257790256	-0.296673
C	 0.5486512785	-0.2490096659	-1.3762182175	 0.033879
C	 1.7043103434	 0.7831287887	-1.4232987836	-0.260697
H	-0.3219156737	 2.0705401446	 0.9780999886	 0.102931
H	-0.3551921823	 2.2601970602	-0.8115602234	 0.106607
H	 2.2885432499	 2.0256873725	 0.4002725022	 0.076175
H	 1.7606113618	-0.8285897544	 0.8804744344	 0.101424
H	 0.9282465859	 0.3624519011	 1.9424455951	 0.110412
H	-2.6221299213	-0.7213986345	-1.7059372107	 0.135077
H	 0.9702442193	-1.2631978282	-1.3421398042	 0.087914
H	 1.5523632358	 1.5783338213	-2.1576657825	 0.117701
H	 2.6707470438	 0.3134382817	-1.6203571116	 0.100704
200.4369	306.8511	395.809	411.7062	498.854	524.3149	575.6912	628.4788	711.7821	803.3415	818.9549	850.7261	871.0164	899.7345	933.0297	953.7032	958.3366	1000.4091	1014.7566	1033.7916	1062.8961	1082.6082	1091.5719	1119.2473	1131.7532	1181.0689	1188.9695	1216.3477	1238.1668	1262.7857	1276.037	1315.4214	1327.3641	1331.4493	1375.0688	1486.6049	1496.0415	1526.4902	1647.1358	3000.6202	3064.3862	3065.9939	3072.133	3113.7964	3130.8832	3132.7157	3136.6021	3215.2484
C1C2CC11OC=NC1C2	C1[C@H]2C[C@]31O[CH][N][C@H]3C2	
InChI=1S/C7H9NO/c1-5-2-7(3-5)6(1)8-4-9-7/h4-6H,1-3H2	InChI=1S/C7H9NO/c1-5-2-7(3-5)6(1)8-4-9-7/h4-6H,1-3H2/t5-,6-,7-/m0/s1
