21
gdb 101661	4.4262	0.7083	0.64461	2.7042	77.39	-0.2564	-0.0468	0.2095	1751.1652	0.179693	-461.378047	-461.367653	-461.366709	-461.413901	37.719	
C	-0.018175311	 1.5662924626	 0.1231379134	-0.384606
C	-0.110218851	 0.0475552378	-0.0442050346	-0.16951
C	 0.7482191539	-0.4746487418	-1.1977036433	 0.153433
O	 2.0868460221	-0.0940407933	-0.9395495961	-0.446182
C	 0.6263752704	-2.0017924143	-1.3539616366	-0.246371
C	 1.2762752233	-2.5182416769	-2.6534317844	 0.032599
O	 2.6240050633	-2.1188940746	-2.7778748971	-0.43383
C	 1.1899607813	-4.0282460428	-2.717941256	 0.13976
O	 2.1806637076	-4.7151891145	-2.7897743571	-0.259082
H	 1.0176520529	 1.8696184337	 0.289942817	 0.141472
H	-0.3800789136	 2.0844670979	-0.7721850532	 0.108406
H	-0.6206621889	 1.9051597611	 0.971377626	 0.106128
H	 0.2166115775	-0.4490647435	 0.8781992241	 0.099917
H	-1.1516378958	-0.2507728477	-0.2179549699	 0.085147
H	 0.3896862046	-0.0074923905	-2.135432193	 0.055292
H	 2.6430969935	-0.5759144468	-1.5669244539	 0.293882
H	 1.1031188238	-2.4789891295	-0.4890445964	 0.115206
H	-0.4322291391	-2.2908847285	-1.3586969877	 0.099141
H	 0.7019565743	-2.1189018219	-3.5073865155	 0.103674
H	 3.1443857613	-2.939601659	-2.7768176252	 0.299996
H	 0.1736266697	-4.4682654974	-2.6771542406	 0.105528
64.402	71.0435	109.0837	141.749	180.4631	236.4937	273.6848	297.6294	331.6193	342.5416	445.9119	478.6402	510.8344	516.3788	539.7222	754.7384	781.9579	840.2251	865.8855	896.582	972.8547	986.8385	1017.1141	1039.2783	1080.5006	1123.3838	1140.5679	1174.9414	1233.285	1250.7883	1285.16	1304.6111	1341.8674	1345.9105	1369.9351	1388.893	1399.9951	1406.5029	1432.2733	1459.0739	1471.0924	1477.1844	1496.1527	1510.2462	1811.3227	2911.4123	2939.0515	2966.9878	3019.9	3027.1173	3036.3293	3060.389	3077.2639	3099.7361	3132.3563	3668.0953	3737.9621
CCC(O)CC(O)C=O	CC[C@@H](O)C[C@@H](O)C=O	
InChI=1S/C6H12O3/c1-2-5(8)3-6(9)4-7/h4-6,8-9H,2-3H2,1H3	InChI=1S/C6H12O3/c1-2-5(8)3-6(9)4-7/h4-6,8-9H,2-3H2,1H3/t5-,6-/m1/s1
