16
gdb 66063	2.41959	1.29173	1.22855	2.5108	69.6	-0.2653	-0.0511	0.2143	1101.4205	0.121897	-437.888819	-437.879804	-437.87886	-437.923152	31.636	
C	-0.0710551536	 1.7344673063	-0.066276661	-0.456468
C	 0.0350726681	 0.2253148889	 0.0055904776	 0.30708
O	 1.1775669211	-0.2931620604	-0.7301356014	-0.315023
C	 1.670896612	-0.9991899241	 0.4287021146	-0.082873
C	 0.5210622987	-0.4565231544	 1.3197152782	-0.271882
C	 0.9089828865	 0.4115288274	 2.4144072697	 0.28924
N	 1.2293869202	 1.110434936	 3.2778003733	-0.329884
C	-1.1994304357	-0.4586100826	-0.5778832302	 0.139084
O	-1.9282412114	-1.1965535556	 0.0303988902	-0.242931
H	 0.8507025331	 2.1990792366	 0.2912535737	 0.154133
H	-0.2386431701	 2.0454122485	-1.1022863505	 0.136993
H	-0.9042260855	 2.0933513365	 0.546583522	 0.14707
H	 1.6618304974	-2.0844980124	 0.2881348698	 0.129335
H	 2.6742305562	-0.6668024051	 0.7079085368	 0.135571
H	-0.1867478641	-1.2113051001	 1.6679786925	 0.15652
H	-1.345792033	-0.2400630356	-1.6580191753	 0.104033
57.6772	93.0757	140.2113	176.901	200.9382	265.0874	302.5229	331.1124	374.7078	522.5429	542.8084	583.9956	690.1156	789.7072	875.19	905.7666	924.6571	991.5399	1009.3065	1059.3291	1084.3259	1132.5997	1159.4802	1171.4199	1223.0659	1256.1689	1337.9738	1367.3098	1401.4933	1408.0167	1476.7903	1485.6265	1521.9867	1833.3783	2358.3538	2905.8891	3041.697	3048.2479	3098.8886	3109.4948	3115.2692	3132.1274
CC1(OCC1C#N)C=O	C[C@]1(OC[C@H]1C#N)C=O	
InChI=1S/C6H7NO2/c1-6(4-8)5(2-7)3-9-6/h4-5H,3H2,1H3	InChI=1S/C6H7NO2/c1-6(4-8)5(2-7)3-9-6/h4-5H,3H2,1H3/t5-,6+/m1/s1
