19
gdb 51534	4.33562	0.72217	0.66855	3.6533	77.89	-0.2517	-0.0332	0.2185	1642.5162	0.156931	-423.032522	-423.023074	-423.02213	-423.068874	32.88	
O	-0.6239960582	 1.6509301143	 1.1556789352	-0.235699
C	 0.1424456139	 1.2483442875	 0.3185146178	 0.158132
C	 1.412479452	 1.9552001616	-0.0974146124	-0.282475
C	 1.2602176289	 2.5499495453	-1.5065966148	 0.003942
C	 0.3508233926	 3.8118777505	-1.5683351608	-0.259798
C	 1.6238304759	 4.7165655989	-1.614696627	-0.050188
C	 2.4574358362	 3.4382146735	-1.9494246124	-0.265196
C	 1.6327936006	 5.8018980743	-2.6536253168	 0.158337
O	 1.8891072456	 6.9608076302	-2.4538598045	-0.248731
H	-0.0685164846	 0.308507212	-0.2444137307	 0.075534
H	 1.6352856209	 2.7354704823	 0.6371245838	 0.123448
H	 2.2360823756	 1.228531671	-0.1024063244	 0.114866
H	 0.9947049268	 1.7536679122	-2.2091487353	 0.079029
H	-0.2211862904	 3.8644631637	-2.4998683792	 0.109372
H	-0.3302907732	 3.977257674	-0.7311659178	 0.13301
H	 1.8768541479	 5.1499918709	-0.6457005525	 0.097672
H	 3.3989033906	 3.319261614	-1.4082070659	 0.114789
H	 2.6593188842	 3.3514002314	-3.0217792406	 0.109858
H	 1.3731332848	 5.4397493923	-3.6793158917	 0.064096
36.3097	51.8293	69.0426	100.5554	198.7472	274.3406	297.7647	355.8375	393.0969	483.2869	513.9804	719.6972	775.6114	804.2191	886.8035	896.2837	910.9675	930.1597	960.0378	1015.5145	1037.1397	1075.6203	1084.9564	1116.4805	1166.0243	1197.7766	1227.0361	1248.6152	1264.5297	1271.6588	1274.9534	1303.1242	1321.4267	1376.3361	1427.5046	1432.6662	1467.0865	1473.9009	1489.8743	1830.807	1833.2484	2827.8871	2855.5557	3022.0805	3044.4148	3052.0904	3061.6816	3094.2835	3097.3451	3112.8792	3121.7272
O=CCC1CC(C1)C=O	O=CC[C@H]1C[C@@H](C1)C=O	
InChI=1S/C7H10O2/c8-2-1-6-3-7(4-6)5-9/h2,5-7H,1,3-4H2	InChI=1S/C7H10O2/c8-2-1-6-3-7(4-6)5-9/h2,5-7H,1,3-4H2/t6-,7-
