19
gdb 56919	3.02268	1.0015	0.88553	1.5334	78.4	-0.2513	0.0321	0.2835	1364.4996	0.155062	-422.967714	-422.957394	-422.95645	-423.00293	38.243	
C	-0.0098840875	 1.5790096382	-0.1811854631	-0.442977
C	 0.0053329128	 0.0762444714	-0.0171019888	 0.387569
O	-1.1643085639	-0.5557920968	-0.4780144719	-0.468643
C	 1.292465549	-0.7103018043	-0.1300630877	-0.352716
C	 0.5687399555	-0.5949200316	 1.2002456732	-0.047836
C	 1.1591826926	 0.1945678063	 2.3557677904	-0.091015
O	 0.1609286707	 0.8944254675	 3.0968625345	-0.415148
C	 1.964207961	-0.6745583988	 3.2238895112	 0.311765
C	 2.5840703793	-1.4081857749	 3.9469541512	-0.44201
H	 0.913863093	 2.0405884548	 0.1762120419	 0.117984
H	-0.1171288012	 1.8423122821	-1.2407651297	 0.10171
H	-0.8475515589	 2.014832773	 0.3698753588	 0.13896
H	-1.2072375859	-0.431988249	-1.4330673585	 0.279361
H	 1.2574868189	-1.6685529346	-0.6353783833	 0.114729
H	 2.2232556262	-0.1636902128	-0.2495748129	 0.110775
H	 0.0217071254	-1.4822683241	 1.5066783784	 0.100609
H	 1.8066173945	 0.9855504486	 1.9607880297	 0.113833
H	-0.3948384843	 0.2352915582	 3.5279322204	 0.284837
H	 3.145800203	-2.0442978133	 4.5855842263	 0.198214
48.6984	101.1154	151.0167	168.0457	202.6949	240.8837	291.5994	309.1708	346.9378	372.7437	397.095	432.2678	506.7121	543.7646	586.1928	632.1037	666.7001	724.0589	846.7329	879.1373	922.3873	939.8876	969.758	1038.5755	1044.785	1063.9752	1082.706	1111.3743	1149.5815	1225.4936	1268.2766	1283.3249	1304.4118	1362.6039	1412.8032	1415.7518	1423.574	1477.0525	1486.7972	1506.6899	2232.0171	3028.3984	3047.7197	3097.4076	3125.4896	3128.1832	3151.6561	3220.0913	3502.6231	3789.2142	3803.9349
CC1(O)CC1C(O)C#C	C[C@@]1(O)C[C@H]1[C@@H](O)C#C	
InChI=1S/C7H10O2/c1-3-6(8)5-4-7(5,2)9/h1,5-6,8-9H,4H2,2H3	InChI=1S/C7H10O2/c1-3-6(8)5-4-7(5,2)9/h1,5-6,8-9H,4H2,2H3/t5-,6-,7+/m0/s1
