18
gdb 38851	2.94627	1.90005	1.58279	2.4456	69.75	-0.2452	0.0697	0.3149	894.9307	0.151711	-439.06933	-439.062849	-439.061904	-439.099983	26.809	
C	-0.025421934	 1.5546059301	 0.0518450241	-0.083223
O	 1.3496055662	 1.9242322287	-0.0539444063	-0.280488
C	 2.1259499111	 0.7294994452	 0.0683365416	 0.19413
C	 2.6291407923	 0.2791393501	-1.3091150762	-0.230008
C	 1.4702273713	-0.2420580898	-2.1507283464	-0.030022
N	 0.9499278099	-1.5793562621	-1.7951152813	-0.329199
C	 0.1332759059	-0.3950512883	-1.5113800368	-0.045089
C	 0.0302877154	 0.0228388216	-0.0517385476	 0.037997
O	 1.2615181389	-0.2396609243	 0.619220402	-0.241007
H	-0.4361331779	 1.879224645	 1.0163439197	 0.101943
H	-0.5921486713	 2.0261896148	-0.7581162671	 0.102914
H	 2.9432467777	 0.9038424431	 0.7748928849	 0.086807
H	 3.1015331151	 1.1348855955	-1.8012758743	 0.107639
H	 3.38653356	-0.5020979152	-1.1839963132	 0.113695
H	 1.4942562569	 0.0134966107	-3.2067441372	 0.086546
H	 0.5992330968	-2.0455055672	-2.6279243483	 0.230555
H	-0.7573857606	-0.2125572306	-2.1095788343	 0.0852
H	-0.7660814936	-0.4981128972	 0.4840594665	 0.091609
155.5879	228.4973	305.7876	385.5147	418.1322	476.5137	581.9256	674.558	773.3338	797.9771	799.8457	847.5686	868.3917	896.3069	912.4254	924.2408	975.8528	999.8734	1018.5583	1031.8945	1045.4441	1067.0729	1131.7889	1146.4245	1170.4041	1197.0654	1205.743	1226.5252	1254.6569	1278.0887	1327.7559	1333.7934	1351.4021	1382.5371	1386.4557	1413.1841	1457.2733	1463.9683	1518.4096	3018.8007	3045.6993	3069.0177	3071.3645	3095.3836	3095.7461	3124.4155	3139.7915	3502.3223
C1OC2CC3NC3C1O2	C1O[C@@H]2C[C@H]3N[C@H]3[C@H]1O2	
InChI=1S/C6H9NO2/c1-3-6(7-3)4-2-8-5(1)9-4/h3-7H,1-2H2	InChI=1S/C6H9NO2/c1-3-6(7-3)4-2-8-5(1)9-4/h3-7H,1-2H2/t3-,4+,5+,6-/m1/s1
