18
gdb 114174	4.23346	0.96257	0.85473	2.2087	76.31	-0.2494	-0.0311	0.2183	1353.9991	0.146072	-439.035314	-439.026515	-439.025571	-439.069259	31.906	
C	-0.0098945011	 1.3224585051	-0.1227923847	-0.238933
O	-0.051695627	 0.0062276918	 0.3864125469	-0.23945
C	-1.2575768694	-0.6429518349	 0.1286404791	 0.178711
C	-1.5663846035	-1.1888494019	-1.3203308216	-0.334567
C	-1.742995976	-2.5705647751	-0.6993077151	 0.249513
N	-0.4410373631	-2.9197025982	-0.0785887115	-0.340208
C	-1.3407749574	-2.0648022415	 0.6810411756	-0.151058
C	-2.7843941456	-3.5699328652	-0.9400022036	 0.055402
O	-3.6380898708	-3.4872503988	-1.7908657435	-0.265926
H	 0.9591759126	 1.743936947	 0.152496393	 0.132896
H	-0.1070931354	 1.3419395579	-1.2181517089	 0.11411
H	-0.8074000252	 1.9490578725	 0.3067394833	 0.105881
H	-2.1115671156	-0.0499703514	 0.4909310456	 0.077007
H	-2.4791251319	-0.7860227802	-1.7592791835	 0.127589
H	-0.7363162075	-1.1254838084	-2.0256638565	 0.120797
H	-0.5058480153	-3.8632474982	 0.3070622232	 0.238829
H	-1.7196310071	-2.3676587655	 1.6502368619	 0.110149
H	-2.7395810507	-4.4381595249	-0.2381546794	 0.059259
79.5595	98.9198	138.098	169.8378	206.6319	285.4873	306.6424	402.5444	449.5361	482.3756	587.3332	680.6497	751.4213	800.7618	838.0704	929.9258	948.0908	981.5454	1015.6139	1029.7697	1057.3906	1089.3959	1119.5616	1151.6831	1170.1807	1182.9529	1208.2812	1231.9288	1246.6225	1303.9887	1354.5111	1395.2801	1404.7228	1436.9943	1469.0464	1484.171	1487.4141	1507.4797	1801.431	2834.0138	2975.5295	2986.4938	3028.052	3086.5202	3122.6668	3153.5663	3186.7739	3458.6465
COC1CC2(NC12)C=O	CO[C@H]1C[C@]2(N[C@@H]12)C=O	
InChI=1S/C6H9NO2/c1-9-4-2-6(3-8)5(4)7-6/h3-5,7H,2H2,1H3	InChI=1S/C6H9NO2/c1-9-4-2-6(3-8)5(4)7-6/h3-5,7H,2H2,1H3/t4-,5-,6-/m0/s1
