20
gdb 69822	3.11292	1.56102	1.27043	1.693	77.97	-0.2186	0.0643	0.2829	1052.7976	0.172781	-403.110304	-403.102641	-403.101696	-403.141869	31.558	
C	 0.0361947163	 1.4807323695	-0.0523026374	-0.448505
C	-0.0250009198	-0.0213765616	 0.0478061295	 0.440089
C	-0.8896889428	-0.6784316555	 1.0893291233	-0.373545
C	 0.6269418592	-0.740171779	 1.2135969454	-0.093081
C	 1.3584547794	-2.0118475855	 0.8926561618	-0.030991
N	 0.6040845851	-3.272493144	 0.7896024944	-0.336679
C	 1.1365985999	-2.6443447017	-0.4372049046	-0.058049
C	 0.1166837279	-1.9851304241	-1.3491538473	-0.09852
O	 0.111615269	-0.565450729	-1.2402812185	-0.298764
H	 0.9748755669	 1.7943117948	-0.5202046448	 0.121804
H	-0.7902376201	 1.8605260897	-0.661874812	 0.123325
H	-0.0279106296	 1.9367449772	 0.9394045471	 0.112403
H	-1.4273183564	-0.0355303439	 1.7775367162	 0.107259
H	-1.3889808753	-1.6134362546	 0.8679008861	 0.137033
H	 1.0902655695	-0.1270078211	 1.9797577266	 0.079613
H	 2.3663166762	-2.0659286721	 1.2961845543	 0.082977
H	 1.1924904596	-4.0534457177	 1.0668793566	 0.230256
H	 1.9870622174	-3.1147994441	-0.9224165509	 0.087431
H	 0.3533735092	-2.1803936049	-2.3983232784	 0.107889
H	-0.8822320015	-2.3952365125	-1.1463156874	 0.108055
159.6806	207.2973	219.3896	276.2846	347.011	396.4387	410.3119	479.6962	519.8137	562.5359	677.447	736.4167	761.6258	810.8107	841.8121	886.6966	905.4196	910.2251	935.6259	965.3989	1006.0969	1027.5208	1043.286	1082.0278	1092.4695	1097.5539	1122.7652	1135.6253	1179.8251	1215.5471	1252.7775	1275.2828	1280.7906	1300.9705	1387.419	1399.8356	1412.8764	1431.1885	1449.6351	1478.0001	1480.6968	1502.4365	1506.8337	3010.3342	3036.3468	3089.8141	3102.2464	3117.7101	3130.9896	3141.383	3145.6033	3157.5236	3232.278	3506.6113
CC12CC1C1NC1CO2	C[C@]12C[C@H]1[C@H]1N[C@H]1CO2	
InChI=1S/C7H11NO/c1-7-2-4(7)6-5(8-6)3-9-7/h4-6,8H,2-3H2,1H3	InChI=1S/C7H11NO/c1-7-2-4(7)6-5(8-6)3-9-7/h4-6,8H,2-3H2,1H3/t4-,5-,6+,7-/m0/s1
