17
gdb 88310	4.25574	0.87608	0.80328	3.149	76.65	-0.2464	-0.0276	0.2189	1423.8294	0.132912	-421.793103	-421.783945	-421.783	-421.827749	33.842	
O	 0.1199281059	 1.3235996292	-0.1263296248	-0.415573
C	 0.0108320855	-0.0440832181	-0.019096392	 0.158526
C	-0.3733944776	-0.7251867824	 1.238934816	-0.325195
C	-1.3819381231	-0.7287504196	 0.0796482511	-0.199245
C	-2.5403784054	 0.1785806898	 0.1738001535	 0.420085
O	-2.4728627995	 1.2647771742	 0.7233086443	-0.352524
C	-3.8279806286	-0.3162596433	-0.4987378155	-0.494323
C	-4.9502487102	 0.6017038	-0.4234075166	 0.32483
C	-5.8846324369	 1.3529925776	-0.3655859484	-0.421538
H	-0.6443517714	 1.7101523214	 0.3355848816	 0.307367
H	 0.7154814596	-0.5416121169	-0.6776894041	 0.119075
H	 0.0768757711	-1.6786652549	 1.4915373341	 0.125027
H	-0.6406919595	-0.0946785976	 2.0807872541	 0.140816
H	-1.5274286148	-1.6582195356	-0.459326535	 0.095681
H	-3.5822573092	-0.5465853662	-1.5452708648	 0.159438
H	-4.0847196441	-1.2847361379	-0.0465647079	 0.157136
H	-6.7056871519	 2.0240888003	-0.3113170654	 0.200416
40.2493	84.6586	115.2446	213.2791	245.7478	310.632	321.8252	402.5906	447.9442	468.4828	562.145	604.9408	630.1738	650.005	714.8574	725.8098	802.9637	846.8684	906.4909	946.5518	965.7385	1024.1255	1053.472	1075.9837	1106.3465	1123.1922	1140.9457	1215.58	1236.3309	1318.2034	1359.9016	1402.9551	1437.5276	1451.0697	1485.7822	1755.976	2251.3798	3011.4646	3038.2232	3132.5847	3166.5569	3174.235	3228.6952	3507.0459	3636.9093
OC1CC1C(=O)CC#C	O[C@H]1C[C@H]1C(=O)CC#C	
InChI=1S/C7H8O2/c1-2-3-6(8)5-4-7(5)9/h1,5,7,9H,3-4H2	InChI=1S/C7H8O2/c1-2-3-6(8)5-4-7(5)9/h1,5,7,9H,3-4H2/t5-,7-/m0/s1
