25
gdb 113782	2.78597	0.98012	0.92983	0.0051	93.	-0.2416	0.085	0.3266	1477.279	0.228142	-352.335202	-352.324998	-352.324053	-352.370582	39.14	
C	-0.2191654107	 1.6385419242	-0.6505103878	-0.371614
C	-0.0301377453	 0.2191269417	-0.1016967448	-0.197818
C	-1.3466354884	-0.4963421741	 0.1227731146	 0.025343
C	-2.040626696	-1.2245784744	-1.0019142968	-0.312592
C	-1.4726060521	-2.0083256104	 0.1603890668	-0.113311
C	-0.3014487149	-2.9643269502	 0.0303867399	 0.384693
C	 0.2495379477	-3.2292849102	-1.359971654	-0.473611
C	 0.6772465678	-3.0162918771	 1.1871898695	-0.287282
C	-0.3005153	-4.1445116105	 0.9797791195	-0.31695
H	 0.7424876299	 2.1402092278	-0.7986897335	 0.10727
H	-0.7437606873	 1.6216897972	-1.6116378907	 0.116287
H	-0.8119877626	 2.2519298241	 0.0372534251	 0.111574
H	 0.5973834	-0.3571575786	-0.7899496996	 0.098968
H	 0.5267571625	 0.2653732642	 0.843214907	 0.095467
H	-2.0054882272	 0.0282547707	 0.812737805	 0.073147
H	-3.1183393095	-1.1508475227	-1.1020193746	 0.104578
H	-1.5163673409	-1.2797154267	-1.9504906021	 0.108295
H	-2.2214142008	-2.3598969817	 0.8658670722	 0.079005
H	 0.6541367006	-2.3262396155	-1.8299433607	 0.116578
H	 1.0616510545	-3.9620101441	-1.3169754225	 0.108309
H	-0.5262541658	-3.6282635238	-2.0227891363	 0.118496
H	 1.7249072126	-3.1968493076	 0.9687692556	 0.1042
H	 0.5064127298	-2.3442647686	 2.0212763593	 0.108808
H	-1.1258372347	-4.2383055754	 1.6782370807	 0.106992
H	 0.0792132507	-5.0933823282	 0.6150336681	 0.105168
48.6225	68.5372	120.2108	198.8177	237.8469	249.7893	271.8154	312.7463	343.094	370.2668	397.0666	453.1106	587.5951	677.2409	758.271	786.7419	795.5506	838.2824	857.4415	868.6269	933.1496	949.6143	958.0535	972.0817	979.5017	1040.7668	1051.1151	1070.2738	1075.7619	1079.586	1104.3971	1115.8042	1135.7812	1143.564	1191.741	1201.115	1235.3987	1289.8702	1302.7769	1332.0263	1343.8031	1403.5017	1408.9446	1420.3176	1430.7124	1467.5611	1480.7392	1488.8963	1497.7274	1499.1019	1503.2546	1506.9855	1507.6842	3023.4645	3026.5346	3029.5782	3065.7688	3087.9144	3097.5468	3098.1892	3102.1084	3113.6391	3122.2806	3126.056	3128.1164	3131.0453	3200.7693	3209.7148	3216.778
CCC1CC1C1(C)CC1	CC[C@H]1C[C@H]1C1(C)CC1	
InChI=1S/C9H16/c1-3-7-6-8(7)9(2)4-5-9/h7-8H,3-6H2,1-2H3	InChI=1S/C9H16/c1-3-7-6-8(7)9(2)4-5-9/h7-8H,3-6H2,1-2H3/t7-,8+/m0/s1
