20
gdb 98196	2.8417	1.02078	0.96384	2.9529	72.71	-0.2377	0.036	0.2738	1348.7894	0.168321	-477.45538	-477.444441	-477.443496	-477.491597	38.952	
C	-0.2590346791	 1.4362483716	-0.1430472005	-0.333982
N	-0.1856900708	-0.0025503567	-0.2792295359	-0.307912
C	 0.8577491313	-0.6299695372	-0.8690052666	 0.364797
O	 1.827855757	-0.0675244062	-1.3552915692	-0.409734
C	 0.7432671922	-2.1645640326	-0.9158539136	 0.275174
C	 1.9655859608	-2.7924448067	-0.2327030181	-0.418633
O	-0.459981446	-2.5708704253	-0.265732403	-0.493572
C	 0.6574182011	-2.5707850918	-2.3969168624	-0.109864
O	 0.3488670341	-3.963653768	-2.4094958372	-0.438602
H	 0.649181769	 1.8542156121	-0.5797677642	 0.166786
H	-1.1292375496	 1.8439478555	-0.670160045	 0.123375
H	-0.3203337573	 1.7335591755	 0.9098548174	 0.125809
H	-0.9237257277	-0.596188833	 0.0663152534	 0.264617
H	 1.9212207331	-2.6061594779	 0.843540468	 0.120635
H	 1.9754923785	-3.8721036553	-0.4023821647	 0.123439
H	 2.8829621517	-2.3532782461	-0.6305023713	 0.139054
H	-0.6921662551	-3.4220987086	-0.6599178575	 0.290301
H	-0.1393638375	-1.992250101	-2.8851634624	 0.097902
H	 1.6072917492	-2.3530491611	-2.8977278401	 0.12262
H	 0.0993524751	-4.2160666473	-3.3024165371	 0.297789
47.1881	89.0589	117.5649	129.3301	197.6381	231.506	239.9414	250.4802	289.9243	342.7159	353.9945	370.9351	435.5128	464.6637	521.3154	608.9178	696.4414	760.6664	805.6216	890.5398	943.3432	976.6034	1057.6311	1071.1076	1136.4882	1150.4542	1157.6279	1182.6701	1193.5757	1239.0027	1252.8976	1285.5515	1385.8505	1407.0477	1436.9808	1439.3424	1491.3051	1494.9504	1498.6041	1499.8895	1512.6633	1573.4006	1768.4378	3003.8747	3025.8113	3051.3182	3069.8079	3076.4785	3127.8695	3141.0652	3148.1591	3631.8073	3762.0205	3846.8704
CNC(=O)C(C)(O)CO	CNC(=O)[C@@](C)(O)CO	
InChI=1S/C5H11NO3/c1-5(9,3-7)4(8)6-2/h7,9H,3H2,1-2H3,(H,6,8)	InChI=1S/C5H11NO3/c1-5(9,3-7)4(8)6-2/h7,9H,3H2,1-2H3,(H,6,8)/t5-/m0/s1
