21
gdb 100953	2.08507	1.11055	0.77041	3.0913	70.93	-0.2438	0.0548	0.2987	1468.0657	0.1803	-498.473138	-498.462158	-498.461214	-498.509415	39.583	
O	 0.4808973943	 0.4416801906	 0.8795387532	-0.406115
C	-0.0895181615	 0.1631857559	-0.3906555709	-0.11064
C	-1.4649491309	-0.5276660357	-0.3265776895	 0.088384
O	-2.1125292604	-0.3748739793	-1.5874130224	-0.424882
C	-1.4396148646	-2.0094659189	 0.1027840239	-0.032497
C	-0.6981187666	-2.2360276929	 1.4246667455	-0.109012
O	-0.7390890045	-3.6379888088	 1.717976961	-0.426265
C	-2.8754638991	-2.5769232149	 0.1667587547	-0.062708
O	-2.9267751397	-3.9853195956	 0.0935753784	-0.433896
H	-0.0454372011	 1.1326708926	 1.2940860814	 0.287912
H	-0.2110258888	 1.0761240742	-0.989291809	 0.107251
H	 0.6311796923	-0.4800005074	-0.9107884459	 0.106796
H	-2.0912983394	 0.0412932838	 0.3766848512	 0.079562
H	-1.694531868	-0.9802334428	-2.2103665573	 0.284352
H	-0.9054818241	-2.572627076	-0.6788388026	 0.077352
H	 0.3374943195	-1.8880772862	 1.3680135277	 0.120385
H	-1.1938562207	-1.6629571964	 2.2239730643	 0.086927
H	-0.3507610802	-3.7792182812	 2.5857253046	 0.293397
H	-3.3613766283	-2.1972758533	 1.0845292722	 0.071052
H	-3.4486211133	-2.1951113321	-0.6816271495	 0.114504
H	-2.3164331249	-4.3062845456	 0.7703158589	 0.288142
47.5711	103.1263	124.578	145.7073	183.3266	247.9601	254.6032	266.096	293.0575	300.1267	351.4723	370.97	416.8739	462.2748	500.0879	565.2209	574.734	861.285	901.5783	929.7526	992.5694	1029.8926	1063.621	1074.2036	1090.5381	1107.4341	1115.8238	1122.8565	1188.7506	1196.714	1227.4271	1269.6626	1288.2424	1311.0055	1348.9431	1374.745	1387.183	1389.5097	1410.2521	1415.5173	1460.5465	1467.6763	1502.5884	1510.3613	1521.4588	2933.3839	2979.9527	2989.5303	3006.3561	3011.0008	3064.537	3078.9741	3097.1068	3757.4911	3798.2421	3818.3067	3839.9123
OCC(O)C(CO)CO	OC[C@@H](O)C(CO)CO	
InChI=1S/C5H12O4/c6-1-4(2-7)5(9)3-8/h4-9H,1-3H2	InChI=1S/C5H12O4/c6-1-4(2-7)5(9)3-8/h4-9H,1-3H2/t5-/m1/s1
