21
gdb 74450	2.70605	1.38252	1.16564	1.913	84.64	-0.2348	0.0179	0.2528	1171.4997	0.182836	-387.104661	-387.096089	-387.095144	-387.137373	34.107	
C	-0.1468120672	 1.5221816689	 0.0221378309	-0.487636
C	-0.0214795529	 0.0315821762	-0.023178281	 0.334712
C	-0.0446922789	-0.7467530769	-1.1112097019	-0.287776
C	 0.0680709975	-2.2158494089	-0.8000694877	 0.417799
O	-1.0252334282	-2.9745901361	-1.2776912796	-0.481006
C	 1.4223786941	-2.8918398138	-1.1092914129	-0.266919
C	 1.8968661083	-2.5385799741	 0.3274034531	-0.228639
C	 0.4300278685	-2.1992194395	 0.7309085955	-0.068878
C	 0.1554371192	-0.7817687542	 1.2495772254	-0.330615
H	 0.7507807437	 1.9802637318	 0.456645135	 0.127907
H	-0.2994940752	 1.9491316909	-0.9725892392	 0.124319
H	-0.9870973163	 1.8265772022	 0.6594567703	 0.125455
H	-0.1640797248	-0.3888044478	-2.12986916	 0.085479
H	-1.8270849533	-2.4650634244	-1.1162444411	 0.268797
H	 1.2761359855	-3.9666862431	-1.2454705454	 0.10919
H	 1.9999865713	-2.5011238136	-1.9507770449	 0.09326
H	 2.3807493445	-3.3408638208	 0.8879917598	 0.098279
H	 2.5449236757	-1.6581140029	 0.3555685209	 0.097329
H	-0.0481192106	-2.994309865	 1.3053290112	 0.067299
H	 0.9841050486	-0.3993163171	 1.8606696207	 0.102809
H	-0.7412554293	-0.7144302619	 1.8822649207	 0.098834
121.5899	131.2532	182.8712	269.2571	276.095	330.3177	358.8882	395.6162	440.1416	473.8383	565.5266	621.3688	656.8616	766.431	814.4339	855.0522	860.6657	878.705	914.1975	947.605	986.1062	1004.1318	1026.5523	1042.6787	1052.9202	1112.5014	1117.5905	1141.29	1185.1487	1204.5779	1232.0323	1239.9006	1261.5038	1268.8348	1308.8175	1312.6208	1350.9011	1374.2457	1411.5225	1473.9557	1478.8183	1481.4355	1486.0589	1492.8266	1705.5194	3002.9696	3017.77	3033.3086	3056.7766	3061.8695	3063.5868	3093.9753	3107.4297	3112.0733	3122.4029	3172.8768	3797.337
CC1=CC2(O)CCC2C1	CC1=C[C@@]2(O)CC[C@H]2C1	
InChI=1S/C8H12O/c1-6-4-7-2-3-8(7,9)5-6/h5,7,9H,2-4H2,1H3	InChI=1S/C8H12O/c1-6-4-7-2-3-8(7,9)5-6/h5,7,9H,2-4H2,1H3/t7-,8-/m0/s1
