16
gdb 70271	3.04305	1.34702	1.15489	5.2077	68.49	-0.2635	0.015	0.2785	1072.2595	0.124148	-437.871872	-437.863939	-437.862994	-437.904593	30.161	
O	-0.0087657854	 1.412052855	-0.1980707761	-0.460533
C	 0.022079245	 0.0299813601	-0.0538407662	 0.372093
C	-0.3068002332	-0.8649114845	-1.2323594135	-0.360956
C	-1.2548276811	-0.744683563	-0.0591795793	 0.047193
O	-1.1816406495	-1.7844854846	 0.890049605	-0.251813
C	-0.1486389323	-1.4717190772	 1.825220014	-0.029936
C	 0.8720352767	-0.5754293977	 1.0714169179	-0.332248
C	-0.7103203511	-0.7892525093	 3.0097464662	 0.278671
N	-1.1464114548	-0.2617465255	 3.9407160405	-0.317038
H	 0.7305259803	 1.6754125462	-0.7569792965	 0.28928
H	-0.6048829359	-0.3641140719	-2.1476470914	 0.123617
H	 0.2299163769	-1.7997641363	-1.3557133536	 0.121161
H	-2.2275668565	-0.2782617305	-0.1635291475	 0.125197
H	 0.285773597	-2.4183489399	 2.158647788	 0.134897
H	 1.7042633353	-1.1798572484	 0.7003963867	 0.116916
H	 1.2687513286	 0.2178747473	 1.7063806359	 0.1435
58.8786	142.8884	236.9612	261.7597	309.122	371.908	401.7271	419.3048	498.9859	563.4135	627.2168	727.4301	771.7413	814.4042	853.3947	917.5551	925.2391	990.8579	1002.8202	1013.0215	1021.4639	1038.4036	1075.6224	1128.2238	1172.8284	1252.5667	1261.8493	1275.103	1314.9145	1328.877	1369.2531	1410.4176	1472.7955	1491.4349	2354.9531	3063.611	3080.6878	3128.6733	3133.5191	3185.8697	3226.4066	3798.7802
OC12CC1OC(C2)C#N	O[C@]12C[C@H]1O[C@@H](C2)C#N	
InChI=1S/C6H7NO2/c7-3-4-1-6(8)2-5(6)9-4/h4-5,8H,1-2H2	InChI=1S/C6H7NO2/c7-3-4-1-6(8)2-5(6)9-4/h4-5,8H,1-2H2/t4-,5+,6+/m0/s1
