12
gdb 21569	4.21253	1.91994	1.31938	3.3958	61.36	-0.2381	-0.0643	0.1738	837.1311	0.085871	-410.855464	-410.848931	-410.847987	-410.886002	24.728	
N	 0.0404147816	 1.3436376128	 0.1180549233	-0.552726
C	-0.0548614051	-0.0111589602	 0.0439553863	 0.480621
C	-1.2345053095	-0.7113957943	 0.0252729467	-0.379256
C	-1.1944357123	-2.1395063431	-0.0086664604	 0.484273
O	-2.1045913993	-2.9453379531	-0.0280836867	-0.395728
N	 0.151535457	-2.604951861	-0.0218246254	-0.268183
N	 1.2708667492	-1.8931109687	-0.0141176693	-0.033466
N	 1.1977765418	-0.6231090595	 0.0189379398	-0.272956
H	 0.9472585644	 1.7407336909	-0.0665605133	 0.273102
H	-0.7649299226	 1.9111338461	-0.0814308277	 0.268516
H	-2.2007028688	-0.2225342767	 0.0398923408	 0.114066
H	 0.2919538835	-3.6070877831	-0.0498599342	 0.281739
170.8124	182.2686	324.3053	349.3383	439.4462	470.0546	485.986	551.3737	557.2947	695.9667	742.5974	779.7773	781.9878	853.6748	942.3972	1020.6868	1076.135	1153.6947	1231.3369	1297.8307	1395.6799	1419.5609	1539.2785	1613.806	1666.1328	1809.6578	3208.079	3593.5721	3607.3694	3732.9066
NC1=CC(=O)NN=N1	NC1=N[N]NC(=O)[CH]1	
InChI=1S/C3H4N4O/c4-2-1-3(8)6-7-5-2/h1H,(H3,4,5,6,8)	InChI=1S/C3H4N4O/c4-2-1-3(8)6-7-5-2/h1H,(H3,4,5,6,8)
