19
gdb 71857	2.89529	1.58073	1.26211	3.4605	79.64	-0.228	-0.0064	0.2216	1050.7326	0.160437	-385.902756	-385.895254	-385.89431	-385.934436	30.306	
C	-0.0421372687	 1.5145519471	 0.0234688765	-0.500996
C	 0.0127829498	 0.0153177934	-0.0393307999	 0.346258
C	 0.8202822923	-0.7981066819	-1.0522550394	-0.291824
C	-0.1536064812	-1.9969630897	-0.8093385185	-0.055601
C	 0.4219978212	-2.9441787024	 0.244030902	-0.325732
C	 0.5215907558	-2.0601544611	 1.4992674895	 0.405668
O	 1.0918791958	-2.3366816623	 2.5257631466	-0.335335
C	-0.2804609727	-0.8261277563	 1.2254064106	-0.195989
C	-1.0912444193	-1.0094712069	-0.0400609774	-0.136854
H	 0.9064818086	 1.9312100396	 0.3809485913	 0.12949
H	-0.2381936156	 1.936121724	-0.969197038	 0.121033
H	-0.8328580327	 1.8597776874	 0.697031496	 0.122806
H	 0.7032575091	-0.3800788154	-2.0564356249	 0.102538
H	 1.8859924791	-0.9678038652	-0.8585878512	 0.097052
H	-0.5509546425	-2.4818014064	-1.6993645127	 0.077446
H	-0.2675481909	-3.7684924162	 0.4671255894	 0.124734
H	 1.3909494781	-3.3796504989	-0.014811145	 0.122561
H	-0.6716657667	-0.2661243523	 2.0660092925	 0.099934
H	-2.1667255996	-0.9040214563	-0.1035150774	 0.092809
121.5741	186.8395	208.4345	280.9899	376.9565	394.2453	459.0912	525.0481	596.4608	602.8759	697.5392	731.4734	819.6583	837.9701	859.5168	882.0012	909.8706	943.1212	955.4311	999.1557	1014.3061	1023.6557	1040.0185	1086.67	1132.5421	1162.1016	1166.6843	1201.6296	1218.7966	1228.2051	1258.6161	1285.3331	1310.0718	1323.76	1406.3318	1425.9805	1452.6555	1485.7341	1494.9478	1501.3833	1831.3671	3024.2342	3031.3757	3035.8185	3085.248	3088.9715	3100.6537	3101.0471	3124.995	3191.6828	3200.4424
CC12CC3CC(=O)C1C23	C[C@@]12C[C@H]3CC(=O)[C@@H]1[C@@H]23	
InChI=1S/C8H10O/c1-8-3-4-2-5(9)7(8)6(4)8/h4,6-7H,2-3H2,1H3	InChI=1S/C8H10O/c1-8-3-4-2-5(9)7(8)6(4)8/h4,6-7H,2-3H2,1H3/t4-,6+,7-,8+/m1/s1
