21
gdb 6393	4.44271	0.95026	0.91198	3.3467	75.39	-0.2434	0.0348	0.2782	1370.9314	0.186768	-366.313687	-366.303301	-366.302357	-366.349869	36.548	
C	-0.094552901	 1.5811746089	-0.0338210359	-0.390635
C	 0.080713987	 0.0604706973	 0.0295875214	-0.177804
C	 0.6387058742	-0.4657576284	 1.3642409137	 0.069622
C	-0.292922547	-0.1796516354	 2.5504505158	-0.399055
C	 0.9407081057	-1.9686073381	 1.2585262243	-0.321243
C	 1.7916988503	-2.4934864575	 2.41500195	 0.406787
N	 1.6301904968	-3.8222680059	 2.6898199061	-0.521725
O	 2.5687229798	-1.7956295617	 3.0387248949	-0.362089
H	 0.8470842605	 2.0955127537	 0.1887405325	 0.116521
H	-0.4167827474	 1.8950517793	-1.0317211858	 0.10994
H	-0.8440655705	 1.9379960117	 0.6788416195	 0.118695
H	-0.8822460878	-0.4275790415	-0.1788195433	 0.087079
H	 0.757030744	-0.2502915241	-0.7776455353	 0.088347
H	 1.5966405724	 0.0305841746	 1.5618738119	 0.098439
H	 0.1388663168	-0.5583651653	 3.4805580512	 0.132114
H	-0.4605352896	 0.8928649283	 2.6804557003	 0.114943
H	-1.2717097079	-0.654772292	 2.4057914278	 0.100928
H	 0.0101310816	-2.5461695559	 1.179856721	 0.09454
H	 1.5054858305	-2.1691394805	 0.3374729307	 0.120284
H	 1.0427917929	-4.4174890509	 2.1332862835	 0.25595
H	 2.2370383487	-4.2433270766	 3.3742105457	 0.258361
30.8189	70.0051	98.587	145.2255	151.1806	215.2847	255.6904	271.5376	332.7205	353.131	418.1534	493.2338	522.4955	614.0717	665.2893	775.2361	833.1156	854.4463	899.4773	939.3989	976.382	1019.1081	1050.648	1075.9702	1126.7471	1158.9128	1181.2113	1238.0737	1266.2552	1303.2802	1324.3526	1376.8122	1379.8129	1403.6756	1409.3914	1411.2135	1458.6139	1485.512	1496.612	1496.8029	1507.9869	1515.6467	1616.0321	1793.1751	3002.7264	3011.6377	3024.364	3032.6219	3034.2291	3041.5883	3056.5152	3098.3489	3099.1807	3107.898	3120.5174	3601.4588	3739.3512
CCC(C)CC(N)=O	CC[C@@H](C)CC(=O)N	
InChI=1S/C6H13NO/c1-3-5(2)4-6(7)8/h5H,3-4H2,1-2H3,(H2,7,8)	InChI=1S/C6H13NO/c1-3-5(2)4-6(7)8/h5H,3-4H2,1-2H3,(H2,7,8)/t5-/m1/s1
