21
gdb 113099	5.65277	0.63813	0.61929	4.2189	81.54	-0.2751	0.0112	0.2863	1837.687	0.181011	-424.246282	-424.236515	-424.235571	-424.282248	34.895	
C	 0.4110853618	 1.151959892	-0.6510846875	-0.382013
C	-0.0097460434	-0.2275956938	-0.1360964462	-0.178543
C	-1.4241017954	-0.248411023	 0.4458461911	 0.02386
C	-2.5762451082	-0.2010021503	-0.6080811779	-0.266739
C	-2.7362392675	-1.7272200593	-0.4463269932	 0.15503
C	-1.9303113066	-1.6621075799	 0.86843881	-0.278184
O	-4.0780008453	-2.1940124306	-0.3271065101	-0.186912
C	-4.4804222078	-3.2185910396	-1.1003629401	 0.161351
O	-5.5845242693	-3.6713128296	-1.0554580616	-0.276923
H	 1.4250495162	 1.1307834177	-1.0618203074	 0.115772
H	-0.2592779397	 1.5071579063	-1.4411465322	 0.118455
H	 0.3925123688	 1.8939161526	 0.1548001305	 0.117759
H	 0.0686366866	-0.9636020047	-0.9482694333	 0.091873
H	 0.6934674572	-0.558695768	 0.6391516465	 0.099399
H	-1.50160127	 0.5106073772	 1.2295032187	 0.074994
H	-3.4624368078	 0.3144300069	-0.2304397535	 0.121984
H	-2.3438008737	 0.1765909858	-1.6071531575	 0.103444
H	-2.2229312743	-2.2938339311	-1.2311642003	 0.087488
H	-1.1811639983	-2.4400002057	 1.0385507291	 0.101885
H	-2.6067739225	-1.6219358058	 1.7254652342	 0.120813
H	-3.6807238207	-3.5868717373	-1.7736149594	 0.075208
38.4572	55.9343	112.6975	144.5042	200.4874	225.4265	258.7138	312.5015	359.9104	429.6809	458.2502	562.2808	746.4563	786.8139	811.4875	820.0609	916.7483	934.6869	964.472	979.4829	994.1842	1044.8663	1053.3869	1072.5377	1106.1571	1132.853	1162.3587	1204.5781	1211.6323	1246.5167	1261.2811	1277.5305	1281.5756	1302.2743	1343.5228	1384.0305	1395.1493	1410.2975	1442.1774	1466.238	1485.1854	1492.8763	1499.3725	1506.4687	1865.4098	2937.1393	3009.3175	3031.8648	3037.3527	3042.3804	3059.3645	3060.7763	3068.5798	3098.4767	3104.9958	3120.1149	3122.9092
CCC1CC(C1)OC=O	CC[C@H]1C[C@@H](C1)OC=O	
InChI=1S/C7H12O2/c1-2-6-3-7(4-6)9-5-8/h5-7H,2-4H2,1H3	InChI=1S/C7H12O2/c1-2-6-3-7(4-6)9-5-8/h5-7H,2-4H2,1H3/t6-,7-
