20
gdb 110521	2.93659	1.27921	1.12416	2.3726	78.82	-0.2309	0.0729	0.3038	1174.4193	0.17097	-403.078949	-403.070416	-403.069471	-403.111999	32.738	
C	-0.3309566828	 1.5683031223	-0.0710298125	-0.533447
C	 0.0087226432	 0.1206702057	 0.0262222545	 0.355321
C	 0.6884078548	-0.853482895	-0.8642268326	-0.105311
C	 1.4967905943	-1.4560318639	 0.2839362305	 0.01026
C	 2.8572416322	-0.8079828164	 0.45890878	-0.106221
O	 3.3817140207	-1.2335134383	 1.7099890776	-0.423287
C	 0.3928072364	-0.8697349783	 1.2088683458	-0.118426
C	-0.8456532395	-1.6602296128	 0.7686988548	-0.166842
N	-0.7893687143	-0.9892389434	-0.5722709542	-0.196903
H	 0.5251810671	 2.1984948454	 0.1941658357	 0.121903
H	-0.6331065686	 1.8114240135	-1.0945571788	 0.135219
H	-1.1600805949	 1.8303074577	 0.5960696288	 0.125665
H	 0.9535132982	-0.7627756278	-1.9107237508	 0.091033
H	 1.6086647972	-2.5467268636	 0.3127512254	 0.072074
H	 3.5197145267	-1.1049890404	-0.3703170282	 0.085633
H	 2.7553546032	 0.288927155	 0.4194720821	 0.085287
H	 4.2599005875	-0.8555198419	 1.812640279	 0.286771
H	 0.6204205999	-0.6296548025	 2.2452141934	 0.082218
H	-0.7824522988	-2.7549753639	 0.7519546139	 0.094719
H	-1.7690396925	-1.3522485613	 1.2663251556	 0.104333
91.637	141.1139	187.225	209.3468	250.9309	273.6052	314.4394	404.794	468.0859	529.1711	612.4439	746.3365	763.3131	788.4356	825.9551	891.5866	934.5308	957.7468	976.2496	1016.6476	1031.8517	1039.2765	1071.6086	1082.5012	1100.1671	1115.3504	1144.3786	1177.7572	1182.018	1208.5204	1228.7035	1251.5443	1263.5987	1285.086	1305.9259	1376.9453	1399.8819	1446.2384	1460.8633	1479.8261	1491.3675	1509.2753	1518.6222	2961.2065	2987.9833	3025.774	3028.4796	3039.0781	3086.7542	3096.7351	3105.9427	3142.141	3188.1541	3830.1897
CC12C3C(CO)C1CN23	C[C@@]12[C@H]3[C@@H](CO)[C@@H]1CN23	
InChI=1S/C7H11NO/c1-7-5-2-8(7)6(7)4(5)3-9/h4-6,9H,2-3H2,1H3	InChI=1S/C7H11NO/c1-7-5-2-8(7)6(7)4(5)3-9/h4-6,9H,2-3H2,1H3/t4-,5-,6+,7-,8?/m0/s1
