18
gdb 37168	3.41531	1.78977	1.61188	0.7835	73.86	-0.2192	0.0542	0.2735	888.0806	0.150346	-401.804023	-401.797929	-401.796985	-401.83398	26.989	
C	-0.0032153778	 1.5633605764	-0.0365462634	-0.317124
C	 1.3050083606	 0.8147421578	-0.0625444088	 0.01372
C	-0.0433253141	 0.0527933368	-0.06438498	-0.159055
C	 0.2421997059	-0.5954740832	-1.4092109325	 0.442082
C	 1.7385148447	-1.0848463128	-1.1843901514	-0.220997
N	 2.0653633904	 0.3951683516	-1.3225800317	-0.176466
C	 0.8879041067	 0.4452698513	-2.2860804676	-0.041427
C	 0.440268634	-0.5584054321	-3.4047464096	-0.166219
O	-0.4795988803	-1.2290308352	-2.4671627843	-0.361847
H	-0.2278798649	 2.0140081044	 0.926196674	 0.119137
H	-0.3683339046	 2.1522119485	-0.8684506819	 0.123415
H	 1.9464937688	 0.835809393	 0.8094925384	 0.104025
H	-0.3729016523	-0.5240636564	 0.790702118	 0.099798
H	 2.0010042737	-1.5163916854	-0.2170833046	 0.099977
H	 2.1727831	-1.6705223507	-1.9949573085	 0.108155
H	 0.489498531	 1.4409747466	-2.4579359433	 0.089627
H	-0.120488441	-0.0753722746	-4.2082545959	 0.120928
H	 1.1729155694	-1.250968736	-3.8255814169	 0.12227
277.6477	312.8596	377.1821	436.7791	479.2394	551.1995	572.1332	670.0799	714.6638	761.9745	778.3276	793.821	830.2527	883.9208	904.4032	914.8723	945.1398	974.3419	989.2878	1008.6934	1033.9519	1063.5714	1090.6417	1094.3649	1108.0943	1132.5928	1144.1017	1151.904	1161.4432	1183.0919	1237.1809	1284.1905	1312.126	1318.8791	1349.2643	1354.9483	1488.0366	1497.1302	1530.6212	3059.7596	3081.1115	3115.9453	3132.175	3146.9647	3147.6715	3186.9679	3194.9758	3215.6207
C1C2C1C13CN2C1CO3	C1[C@H]2[C@@H]1[C@]13CN2[C@H]1CO3	
InChI=1S/C7H9NO/c1-4-5(1)8-3-7(4)6(8)2-9-7/h4-6H,1-3H2	InChI=1S/C7H9NO/c1-4-5(1)8-3-7(4)6(8)2-9-7/h4-6H,1-3H2/t4-,5+,6+,7-/m1/s1
