17
gdb 110924	2.38658	1.40403	1.0825	3.8341	68.64	-0.2525	-0.0352	0.2174	1137.5171	0.134163	-458.905894	-458.897307	-458.896363	-458.939648	31.162	
O	-0.1148407505	 1.523742658	-0.2539016172	-0.418251
C	 0.0306728813	 0.1619185899	 0.1304107702	-0.125444
C	-1.3115115496	-0.5413241734	 0.1230356232	-0.042373
C	-1.880057323	-1.2458424831	-1.0655386191	 0.07237
O	-0.8584779238	-1.9212404146	-1.8166565837	-0.282427
C	-0.6415894388	-2.8314585214	-0.7240317542	 0.041396
C	 0.7848407685	-3.0748264699	-0.2964572029	 0.148198
O	 1.764450338	-2.5700346596	-0.7770521345	-0.237189
C	-1.5844947222	-2.0380746155	 0.1953505024	-0.210805
H	-0.2971951955	 1.5366040739	-1.1989376034	 0.286391
H	 0.7451364081	-0.3622272146	-0.5115821312	 0.136406
H	 0.4381013146	 0.1799006171	 1.1467303829	 0.110515
H	-2.075843335	 0.0060531802	 0.6732225684	 0.105966
H	-2.806373997	-1.0177171149	-1.5793960214	 0.11315
H	-1.0817961643	-3.8148702143	-0.9570563857	 0.109551
H	 0.8533316984	-3.8103074642	 0.5405702001	 0.081491
H	-2.2551433593	-2.4793304738	 0.9194208963	 0.111056
83.3572	99.9357	129.658	188.9869	233.5403	265.2905	309.4669	385.2218	492.1203	598.2317	697.8163	713.2341	754.0569	820.1381	873.657	892.952	973.781	990.7365	1018.5329	1030.1014	1050.3269	1060.3554	1069.7349	1087.6717	1132.6818	1178.5457	1221.9206	1250.3539	1265.646	1316.0222	1361.5868	1393.8497	1413.6258	1419.1728	1450.6186	1506.6793	1838.5411	2851.2587	2979.1118	3049.1755	3097.4636	3131.224	3185.1804	3210.8042	3818.4837
OCC1C2OC(C=O)C12	OC[C@H]1[C@H]2O[C@@H](C=O)[C@@H]12	
InChI=1S/C6H8O3/c7-1-3-5-4(2-8)9-6(3)5/h2-7H,1H2	InChI=1S/C6H8O3/c7-1-3-5-4(2-8)9-6(3)5/h2-7H,1H2/t3-,4+,5-,6-/m1/s1
