13
gdb 27705	2.88366	1.35587	0.92756	5.4381	70.81	-0.2404	-0.043	0.1974	1170.437	0.089441	-452.803084	-452.795072	-452.794128	-452.836129	28.417	
C	-0.0171154041	 1.4035668857	 0.0900248865	-0.494195
C	 0.0174527779	-0.0738271847	-0.0449141866	 0.397826
N	-0.0018841741	-0.7791464656	-1.1431078474	-0.374742
C	 0.0474710758	-2.0822821884	-0.7196349719	 0.262814
O	 0.0454450364	-3.10929549	-1.5673787172	-0.402083
C	 0.0959755781	-2.1280705653	 0.6482597549	 0.124979
O	 0.0758506077	-0.8074213984	 1.0777201124	-0.197537
C	 0.1560507444	-3.1640182294	 1.5886325153	 0.226129
N	 0.2056922936	-4.0319417314	 2.3564487599	-0.349426
H	 0.8753828503	 1.7653499421	 0.6100689615	 0.161917
H	-0.0640035057	 1.8531058429	-0.901508387	 0.164264
H	-0.8887976752	 1.7184056786	 0.6721978154	 0.161913
H	 0.0048543249	-2.7462273861	-2.4617011558	 0.318141
81.6806	133.6355	138.5648	222.685	284.7248	349.2688	413.869	418.049	532.2147	549.0465	601.6156	657.8655	680.8793	750.0645	818.2388	998.1082	1040.0597	1065.1606	1123.5704	1192.826	1321.0473	1328.7856	1410.6518	1443.8011	1473.3497	1475.5467	1600.5919	1699.6433	2334.5044	3050.973	3108.6933	3165.1018	3795.1336
CC1=NC(O)=C(O1)C#N	Cc1nc(O)c(o1)C#N	
InChI=1S/C5H4N2O2/c1-3-7-5(8)4(2-6)9-3/h8H,1H3	InChI=1S/C5H4N2O2/c1-3-7-5(8)4(2-6)9-3/h8H,1H3
