18
gdb 17676	4.24589	1.36881	1.32837	1.2603	68.71	-0.2428	0.0811	0.3239	1013.9272	0.152358	-384.904062	-384.895821	-384.894877	-384.936453	31.111	
C	-0.0501234578	 1.5141932507	 0.0539454314	-0.412554
C	 0.0187644512	 0.0046761681	 0.0402131589	-0.060988
C	 1.3300676018	-0.7045361658	-0.2427917047	-0.341362
C	 0.7524092214	-0.7440447313	 1.1400599765	 0.398464
O	 1.4442771797	-0.0090872535	 2.1085156932	-0.469469
C	 0.1630264771	-2.0113338445	 1.6762946421	 0.018362
C	 0.7833642965	-2.7399971068	 2.7878238308	-0.189138
O	-0.3622992286	-1.8999639691	 3.0084792023	-0.255849
H	 0.8269659055	 1.9347505187	 0.5517859871	 0.132674
H	-0.0958371415	 1.9170703008	-0.9635212696	 0.115608
H	-0.9387413719	 1.8636829752	 0.5912095796	 0.115715
H	-0.870293853	-0.4917854858	-0.3428824265	 0.082628
H	 1.3283079003	-1.6100777517	-0.8406109756	 0.110603
H	 2.2128372835	-0.0850317121	-0.3620787818	 0.125446
H	 0.8511413567	 0.0397672295	 2.8709411386	 0.290954
H	-0.474990587	-2.5615270304	 0.9842189445	 0.094163
H	 0.6003337728	-3.8067901242	 2.9027225933	 0.117278
H	 1.7139527333	-2.3669933479	 3.2079383199	 0.127465
93.7794	161.9847	183.4062	196.0002	276.6968	307.8317	355.1828	435.4112	471.055	527.5491	579.7267	727.6391	796.1212	839.6383	870.677	889.9086	934.6357	949.1085	1016.121	1022.1851	1057.6918	1096.4483	1103.4215	1133.3129	1156.7048	1170.6962	1188.0303	1222.9032	1272.7528	1320.3473	1365.4141	1393.3188	1415.6366	1454.1457	1490.7421	1498.2749	1506.0976	1522.5301	3032.9241	3089.8334	3096.9886	3110.7621	3116.7934	3128.9221	3133.2948	3193.1933	3217.5715	3753.9107
CC1CC1(O)C1CO1	C[C@H]1C[C@]1(O)[C@H]1CO1	
InChI=1S/C6H10O2/c1-4-2-6(4,7)5-3-8-5/h4-5,7H,2-3H2,1H3	InChI=1S/C6H10O2/c1-4-2-6(4,7)5-3-8-5/h4-5,7H,2-3H2,1H3/t4-,5+,6+/m0/s1
