14
gdb 133159	2.34692	1.87788	1.04987	1.9431	69.9	-0.2375	-0.0747	0.1627	1040.608	0.100939	-474.139031	-474.131347	-474.130403	-474.171375	28.442	
C	-0.0191719043	 1.5420050734	 0.0229014546	-0.490398
C	-0.0118957642	 0.0482095069	 0.0127654579	 0.062659
C	-0.0753056183	-0.7154289156	-1.1016825129	 0.319903
F	-0.1510292259	-0.1641245757	-2.3033894532	-0.053527
N	-0.0718958316	-2.0877149456	-1.1632844561	-0.26238
N	-0.0026925574	-2.7430873167	-0.0770645806	-0.03127
N	 0.0636359536	-2.0651086404	 1.0768733394	-0.30558
C	 0.068194372	-0.670400489	 1.2742657563	 0.368603
N	 0.1336742386	-0.0818825622	 2.4079927594	-0.541671
H	 0.8853116149	 1.9178050623	 0.5122752088	 0.156506
H	-0.0831051596	 1.9448236386	-0.9878095723	 0.137742
H	-0.8611252978	 1.9084893305	 0.6192000044	 0.15653
H	 0.1155239243	-2.6753364147	 1.8811312413	 0.275474
H	 0.1842200857	-0.738804992	 3.186846143	 0.207409
119.7769	132.4632	175.9551	274.2472	276.943	355.9601	503.9239	510.1105	536.4546	559.9023	651.3273	684.3153	692.4633	768.0662	797.4659	906.8881	941.2399	1056.9713	1072.7503	1118.3583	1174.6536	1205.49	1304.5523	1359.2243	1410.3925	1443.5549	1472.5133	1474.8386	1551.8342	1673.2256	1719.9027	3046.9612	3098.1752	3156.6083	3475.542	3603.9546
CC1=C(F)N=NNC1=N	Cc1c(F)nn[nH]c1[NH]	
InChI=1S/C4H5FN4/c1-2-3(5)7-9-8-4(2)6/h1H3,(H2,6,7,8)	InChI=1S/C4H10FN4/c1-2-3(5)7-9-8-4(2)6/h2-4,6-9H,1H3
