16
gdb 71508	3.09652	1.55646	1.39984	2.7095	68.41	-0.2356	0.0034	0.2389	959.1817	0.12442	-437.856612	-437.849406	-437.848461	-437.887994	28.651	
C	 0.0453947861	 1.4796052316	-0.1023168939	-0.526148
C	 0.0063974367	-0.0086057848	 0.0165525324	 0.428882
O	 0.5902847846	-0.8276914485	-1.0544648364	-0.345172
C	 0.0637675728	-1.8066122127	-0.100894354	 0.067465
C	 0.6046938159	-0.9879878987	 1.0971487139	-0.086167
N	-0.3254453352	-1.1636244445	 2.1957089256	-0.339905
C	-1.5877469559	-1.0507990631	 1.6135565691	 0.412786
O	-2.6543565198	-0.9809914649	 2.170908753	-0.365151
C	-1.2386546705	-0.9816207838	 0.1305605326	-0.232876
H	 1.0792154341	 1.8246272148	-0.2005188185	 0.139834
H	-0.5169268962	 1.8119673673	-0.9797899956	 0.144498
H	-0.3956202524	 1.9409191886	 0.786918814	 0.137282
H	 0.1696957716	-2.8662655608	-0.3311261725	 0.106375
H	 1.6653428246	-0.983406612	 1.3365977957	 0.103498
H	-0.1602516408	-0.8130864137	 3.126999426	 0.254241
H	-2.0343386556	-0.9592804747	-0.6084935814	 0.100556
136.6518	192.5508	230.7184	305.1929	391.5236	420.4253	460.3211	544.4206	612.0607	627.0592	723.9272	730.2572	741.7921	849.0749	872.7367	901.9866	921.0617	948.4221	1009.0507	1019.4081	1038.6369	1100.4299	1142.8615	1165.0514	1165.4977	1199.8993	1239.0728	1266.5059	1312.7273	1337.8771	1396.3114	1421.0731	1473.6502	1487.6452	1858.9678	3040.6055	3116.3905	3117.4928	3128.7651	3161.4251	3176.1998	3628.1278
CC12OC3C1NC(=O)C23	C[C@@]12O[C@H]3[C@@H]1NC(=O)[C@@H]23	
InChI=1S/C6H7NO2/c1-6-2-3(9-6)4(6)7-5(2)8/h2-4H,1H3,(H,7,8)	InChI=1S/C6H7NO2/c1-6-2-3(9-6)4(6)7-5(2)8/h2-4H,1H3,(H,7,8)/t2-,3+,4-,6-/m0/s1
