20
gdb 97011	3.15324	1.24801	0.91447	1.4772	85.55	-0.2074	0.0081	0.2155	1309.4733	0.170068	-399.365211	-399.355115	-399.35417	-399.40121	35.07	
C	 0.0586742307	 1.3785725928	 0.0740770416	-0.328272
N	-0.0014216364	-0.0686499471	 0.0612170544	-0.334181
C	-1.1335734379	-0.6371098291	 0.0163902891	 0.379356
C	-2.5757712523	-0.1280092189	-0.0361869209	-0.282886
N	-3.4291850505	-1.3179114758	-0.0840801125	-0.305025
C	-2.6391696608	-2.3281891168	-0.0567982343	 0.367068
C	-3.0951768802	-3.7499906674	-0.0875324268	-0.491963
N	-1.2801748484	-2.0262705716	 0.0062116036	-0.135631
C	-0.1690181719	-2.951985426	 0.0412846717	-0.352281
H	 0.7826706928	 1.7203433976	-0.6747458309	 0.123529
H	-0.8972789181	 1.8843666523	-0.1254242111	 0.105602
H	 0.4260280779	 1.7286782293	 1.0476580577	 0.122855
H	-2.8169548103	 0.4826971024	 0.8422914358	 0.134466
H	-2.7478203973	 0.5053123715	-0.9149381453	 0.134685
H	-4.1836319152	-3.7690492281	-0.1373745171	 0.156381
H	-2.6860137448	-4.2786272245	-0.9553754307	 0.138801
H	-2.7667466581	-4.2903470445	 0.8070251844	 0.138883
H	-0.2160828495	-3.6047292871	 0.9198604427	 0.128356
H	-0.135097431	-3.5764009062	-0.8584208211	 0.128348
H	 0.7411653813	-2.3521775628	 0.0918325799	 0.171908
36.4986	71.8934	102.8862	147.6318	166.113	206.2151	256.2599	280.2524	280.7632	359.6509	516.9857	555.3081	582.6211	631.2074	690.8086	733.4655	916.063	975.7473	980.9636	1063.8993	1072.0285	1080.8406	1110.4729	1129.4508	1154.0249	1175.3008	1190.5717	1193.2056	1292.4962	1353.5104	1387.8012	1421.2004	1446.8188	1456.126	1461.3173	1478.0234	1480.3501	1487.3524	1502.5806	1503.6128	1509.6298	1699.1629	1770.436	2988.9471	3025.3252	3031.9666	3040.7424	3049.4524	3058.9813	3066.6483	3079.6239	3094.7266	3143.5668	3159.5575
CN=C1CN=C(C)N1C	CN=C1CN=C(C)N1C	
InChI=1S/C6H11N3/c1-5-8-4-6(7-2)9(5)3/h4H2,1-3H3	InChI=1S/C6H11N3/c1-5-8-4-6(7-2)9(5)3/h4H2,1-3H3
