21
gdb 91536	2.92099	1.3048	1.07748	1.8098	82.71	-0.2261	0.0671	0.2931	1206.1713	0.183806	-383.198738	-383.190125	-383.189181	-383.23229	33.29	
C	-0.3862958182	 1.2778993307	-0.6601635162	-0.413903
C	 0.0670580237	-0.1517110241	-0.4039725271	-0.018518
C	 1.5330571554	-0.5694034725	-0.7977414125	-0.239497
C	 1.7642756396	-0.9720289023	 0.658352246	-0.110267
N	 1.5446260043	 0.258420959	 1.4657496943	-0.38094
C	 0.3826066014	-0.5689690594	 1.0537904991	 0.346089
C	-0.6016249181	-1.1424582732	 2.0029995348	-0.120453
C	-0.372943278	-1.2243789269	 3.4674348611	-0.259957
N	-1.3583139699	-0.2705327685	 2.9329298854	-0.319893
H	 0.3027973736	 1.9853370947	-0.1912477811	 0.134496
H	-0.4205913712	 1.492013378	-1.7339467908	 0.110925
H	-1.389322738	 1.4525859886	-0.2550448853	 0.115684
H	-0.6446573654	-0.8634873221	-0.835404292	 0.073615
H	 1.5623361355	-1.4068383244	-1.4981125719	 0.100276
H	 2.1815174688	 0.2333849495	-1.1584132616	 0.1062
H	 2.3877657796	-1.7688360022	 1.0466994886	 0.093314
H	 1.7719564885	 0.0135626478	 2.4291081955	 0.223778
H	-1.2320016881	-1.9104677991	 1.5575315919	 0.092221
H	-0.7939763873	-2.0554686568	 4.0263618436	 0.122465
H	 0.554998969	-0.839935729	 3.8830466417	 0.106032
H	-0.9433125751	 0.659306462	 2.9163651863	 0.238333
50.1594	117.7386	199.7609	207.2495	243.6513	290.1754	349.1106	435.5344	474.2147	552.4909	661.9313	671.5017	799.0137	830.4282	848.6726	861.8607	897.3268	919.198	930.845	958.0695	984.1427	1007.1304	1025.4886	1078.5615	1097.9434	1111.3481	1116.1061	1143.1829	1156.2772	1181.0773	1197.0398	1226.7532	1235.4893	1263.3422	1290.7322	1300.6759	1310.9756	1365.2343	1393.7397	1407.0388	1460.6346	1484.2397	1492.7016	1505.3428	1515.6471	3030.7549	3049.0273	3062.8854	3091.756	3108.1219	3116.5519	3117.9292	3121.8091	3183.1562	3188.1077	3474.0336	3487.4545
CC1CC2NC12C1CN1	C[C@H]1C[C@H]2N[C@@]12[C@H]1CN1	
InChI=1S/C7H12N2/c1-4-2-5-7(4,9-5)6-3-8-6/h4-6,8-9H,2-3H2,1H3	InChI=1S/C7H12N2/c1-4-2-5-7(4,9-5)6-3-8-6/h4-6,8-9H,2-3H2,1H3/t4-,5+,6+,7-/m0/s1
