21
gdb 121518	5.33197	0.46326	0.4319	3.5854	92.07	-0.2512	-0.0428	0.2084	2551.1183	0.179061	-387.095795	-387.084465	-387.083521	-387.135218	38.295	
C	-0.0832626596	 1.5546954033	-0.0524354561	-0.386723
C	 0.0629225011	 0.0309103175	-0.0364727572	-0.163473
C	 0.7339468215	-0.48867946	 1.2382932897	-0.153097
C	 0.8770945092	-2.0241579883	 1.2458873271	-0.368075
C	 1.512626807	-2.5434205862	 2.4481723071	 0.010108
C	 2.0432780681	-2.9370106335	 3.4594683004	 0.093172
C	 2.6796199566	-3.4175625106	 4.6704342098	 0.246521
C	 2.859199776	-4.9206244853	 4.7587476166	-0.476294
O	 3.0403287941	-2.6608727755	 5.5475569154	-0.278575
H	 0.8931313613	 2.0464105725	 0.0171640444	 0.118613
H	-0.5649050753	 1.8985002889	-0.972832203	 0.114908
H	-0.6889099937	 1.9027468224	 0.7913801081	 0.118612
H	-0.9262432764	-0.4345634493	-0.1417311354	 0.097254
H	 0.6444797308	-0.2919281476	-0.9104066807	 0.097254
H	 1.7273502793	-0.0386161841	 1.3496376104	 0.113526
H	 0.1568543569	-0.1812272746	 2.1182038449	 0.113524
H	-0.1121702847	-2.4892517872	 1.1360897738	 0.136914
H	 1.4550921623	-2.3469307872	 0.3691034352	 0.136915
H	 1.8869241426	-5.4201776126	 4.6882697987	 0.144065
H	 3.4625321092	-5.2772559731	 3.9169395532	 0.144064
H	 3.3441364539	-5.1766893694	 5.7019228875	 0.140787
12.3034	52.7557	64.954	115.4215	121.1869	139.076	160.4496	240.6575	246.4965	341.3313	388.323	439.6958	475.714	603.0757	610.3153	684.6157	732.3933	787.8984	906.5739	929.1706	957.7011	997.6195	1042.4854	1055.7041	1062.4075	1122.2852	1126.7251	1239.7443	1247.2435	1277.3201	1311.1573	1329.3568	1357.858	1380.7456	1395.6534	1415.0157	1460.8016	1461.0083	1469.1943	1485.7717	1496.9758	1499.9602	1511.681	1766.0571	2329.2582	3010.1845	3012.3204	3031.3293	3036.7506	3038.3274	3038.4011	3040.5938	3080.9524	3099.9026	3102.5804	3104.8938	3150.1325
CCCCC#CC(C)=O	CCCCC#CC(=O)C	
InChI=1S/C8H12O/c1-3-4-5-6-7-8(2)9/h3-5H2,1-2H3	InChI=1S/C8H12O/c1-3-4-5-6-7-8(2)9/h3-5H2,1-2H3
