19
gdb 126222	2.91	1.23075	0.93665	2.746	79.53	-0.1843	0.0396	0.2239	1284.3006	0.160812	-415.409419	-415.399555	-415.398611	-415.44453	35.824	
C	 0.0272447771	 1.5598456501	 0.0347395948	-0.363071
C	-0.0360006722	 0.021695887	 0.0681801085	-0.311255
C	-1.4274337689	-0.5170652677	-0.0451143906	 0.334938
C	-2.2486539014	-0.7128867086	-1.1432143877	 0.009168
N	-1.9984317885	-0.5449169319	-2.5304922649	-0.62721
C	-3.4637391977	-1.2119672768	-0.6061233065	 0.355495
N	-4.6101308482	-1.4985690528	-1.3457456109	-0.595365
N	-3.4160994016	-1.3207612263	 0.716176684	-0.321803
N	-2.1674370443	-0.8869586004	 1.0335366705	-0.28272
H	 1.0605632839	 1.9117366372	 0.1162257178	 0.113231
H	-0.392005272	 1.944498379	-0.8997274986	 0.120107
H	-0.5484802509	 1.9919163604	 0.858581006	 0.124636
H	 0.5772024328	-0.3838708073	-0.7459422392	 0.109256
H	 0.4231563911	-0.3457333707	 0.9942829992	 0.104568
H	-1.0072564166	-0.4715196863	-2.7284079262	 0.233214
H	-2.4461681895	 0.289552105	-2.8989587937	 0.241758
H	-4.3761626543	-1.8752345873	-2.2566800569	 0.247566
H	-5.2379563085	-2.1164756863	-0.8476811038	 0.245978
H	-1.8659433402	-0.941718636	 1.9901044784	 0.261509
38.1507	110.4333	114.7106	195.4142	233.5252	242.3461	281.6637	287.0539	337.1023	367.9304	445.7867	515.3758	585.9194	675.4273	699.9457	724.8896	765.6229	787.9403	816.1532	833.8367	959.4534	1036.0987	1056.0317	1083.8619	1099.3233	1204.2872	1227.5725	1257.7124	1282.7178	1335.5289	1361.0694	1407.8546	1459.858	1482.4702	1495.7838	1505.0334	1533.7331	1556.9468	1627.1393	1639.803	1663.2718	3023.6661	3038.2496	3055.678	3110.0326	3115.9627	3486.3184	3527.5912	3580.3034	3629.5866	3686.2942
CCC1=C(N)C(N)=NN1	CCc1c(N)c(N)n[nH]1	
InChI=1S/C5H10N4/c1-2-3-4(6)5(7)9-8-3/h2,6H2,1H3,(H3,7,8,9)	InChI=1S/C5H10N4/c1-2-3-4(6)5(7)9-8-3/h2,6H2,1H3,(H3,7,8,9)
