23
gdb 88452	2.49112	1.19919	1.13974	0.5092	86.85	-0.2174	0.0869	0.3043	1269.6144	0.204151	-384.401311	-384.391341	-384.390397	-384.436011	37.881	
C	-1.817141849	 0.1283314925	 1.8223748304	-0.312486
N	-0.8842402006	-0.6998950258	 1.0715557874	-0.086917
C	-0.2134580253	-0.0642304885	-0.0557035537	-0.261437
C	 0.5604279891	-0.4186178694	 1.1695748518	-0.070172
C	 1.176952552	 0.6210639976	 2.0857375777	 0.309838
C	 1.3863304967	 2.0159623986	 1.5224231471	-0.450848
C	 0.9663807311	 0.4814695553	 3.5655012121	-0.277436
N	 2.2735042643	 0.2146030969	 2.9898267644	-0.120673
C	 2.7492126259	-1.1591849125	 3.0280368843	-0.318825
H	-1.5178673625	 1.1831268868	 1.9232006495	 0.104134
H	-2.788386755	 0.0974813785	 1.3181996007	 0.122009
H	-1.9472396858	-0.2841884822	 2.8276671901	 0.120262
H	-0.1179744187	-0.6624066882	-0.9589199263	 0.110866
H	-0.417219656	 0.9894204375	-0.2367582799	 0.107163
H	 1.1396641522	-1.3362742583	 1.1083245573	 0.094357
H	 0.4360432084	 2.5213655815	 1.3206164039	 0.114497
H	 1.9520663774	 2.6181423258	 2.2373126146	 0.124493
H	 1.9508889831	 1.9791121771	 0.5847100017	 0.119237
H	 0.8829056577	 1.3662840422	 4.193421927	 0.108226
H	 0.381690144	-0.3722780838	 3.9067738967	 0.108781
H	 1.957003003	-1.9240578816	 3.0040998174	 0.108917
H	 3.4294846568	-1.3392247782	 2.1888821378	 0.122767
H	 3.3156091709	-1.2968215316	 3.9548017979	 0.123248
38.0204	160.8039	190.5711	199.8131	216.1899	241.8141	249.8984	296.5838	355.1575	367.556	434.7724	453.0952	475.26	549.8502	685.5858	745.7951	776.9903	856.7618	906.121	927.1368	974.7366	1018.4868	1035.6744	1064.3192	1097.4872	1102.891	1127.2763	1131.4223	1142.814	1154.0399	1169.816	1171.3508	1206.9619	1209.8659	1286.062	1342.5383	1345.2849	1401.7211	1420.7222	1448.9577	1451.6078	1484.3929	1490.228	1491.6559	1493.4121	1496.7376	1503.7658	1513.866	1516.7609	2974.8703	2983.2191	3033.1776	3064.0133	3068.798	3081.6752	3092.7901	3096.7053	3097.5162	3101.4275	3122.7575	3134.202	3164.0815	3174.0061
CN1CC1C1(C)CN1C	CN1C[C@H]1[C@@]1(C)CN1C	
InChI=1S/C7H14N2/c1-7(5-9(7)3)6-4-8(6)2/h6H,4-5H2,1-3H3	InChI=1S/C7H14N2/c1-7(5-9(7)3)6-4-8(6)2/h6H,4-5H2,1-3H3/t6-,7+,8?,9?/m0/s1
