13
gdb 130054	2.68839	1.48487	0.95722	4.471	65.01	-0.2277	-0.0361	0.1916	1119.2157	0.09071	-486.1111	-486.103391	-486.102447	-486.143353	28.475	
N	 0.0217230222	 1.3144600551	-0.1105068535	-0.576357
C	 0.0034444531	-0.0510320091	-0.0544140429	 0.440417
N	-1.1040655212	-0.758547355	 0.0088334577	-0.316195
N	-0.6116461677	-2.0584262662	-0.0302313897	-0.094975
C	-1.4111306581	-3.2028017956	 0.0094268739	 0.174834
O	-2.6075826978	-3.1937893643	 0.0777465767	-0.267611
C	 0.7538361997	-1.9964767019	-0.101344225	 0.493646
O	 1.4837022926	-3.1084559048	-0.1435230707	-0.413034
N	 1.1873432844	-0.7700136851	-0.1187131275	-0.422092
H	 0.8744019019	 1.7417665563	 0.2146890878	 0.266351
H	-0.8251869713	 1.7661291444	 0.1989572403	 0.26991
H	-0.7860674531	-4.1105907785	-0.0302298936	 0.117729
H	 2.4102691652	-2.8390041154	-0.2012098534	 0.327375
114.1546	188.5377	226.3941	235.1867	310.9501	368.5866	410.5513	448.2882	458.2375	539.5475	601.4768	663.0674	714.7497	731.7811	776.6906	904.3076	1019.4797	1030.49	1119.3975	1155.9826	1214.3087	1347.5147	1415.5277	1453.5783	1519.4612	1600.6871	1646.6741	1672.6835	1837.8545	3005.5948	3590.2324	3703.6167	3791.486
NC1=NN(C=O)C(O)=N1	Nc1nn(C=O)c(O)n1	
InChI=1S/C3H4N4O2/c4-2-5-3(9)7(1-8)6-2/h1H,(H3,4,5,6,9)	InChI=1S/C3H4N4O2/c4-2-5-3(9)7(1-8)6-2/h1H,(H3,4,5,6,9)
