17
gdb 22944	2.28209	1.21304	0.83191	4.4635	76.76	-0.2551	-0.0082	0.247	1338.7344	0.135055	-417.969669	-417.960655	-417.959711	-418.004383	32.36	
O	-0.0662026768	 1.2958457557	 0.0030449069	-0.388845
N	 0.0129684876	-0.0995558136	 0.1223148332	-0.218624
C	-1.1314886193	-0.6339616137	 0.0531355497	 0.405051
C	-2.5482963094	-0.1775498648	-0.2277192387	-0.31763
C	-2.8885455189	-1.667835941	-0.5486976628	-0.256672
C	-1.5031516399	-2.1058165186	 0.035839169	-0.0627
C	-0.6518632479	-3.0683294996	-0.8045324573	-0.354472
C	 0.6113058173	-3.4341839848	-0.1659977226	 0.274374
N	 1.5986030988	-3.7446155093	 0.3474435779	-0.308679
H	 0.8591788041	 1.5577023701	 0.0635619187	 0.311906
H	-3.0574383146	 0.2087891697	 0.6607344745	 0.132194
H	-2.6623864609	 0.5519073371	-1.0326458666	 0.134076
H	-3.7680825635	-2.0885090865	-0.0596229349	 0.114872
H	-2.9583798754	-1.8538546677	-1.6235595678	 0.114795
H	-1.6101339935	-2.5034283632	 1.0509819595	 0.115324
H	-1.2187012573	-3.9885821516	-0.9904346363	 0.152678
H	-0.4361405604	-2.6192693782	-1.7803234423	 0.152353
50.4535	74.8513	143.3834	156.0108	213.249	293.2854	368.1901	389.7431	420.9733	478.5444	516.2813	576.2612	689.9416	763.3434	811.9415	883.7067	928.4518	944.9108	960.5322	999.3552	1042.8982	1080.6695	1111.1535	1167.214	1203.4867	1209.9052	1237.6514	1264.7439	1275.3331	1324.5851	1365.2658	1411.3383	1459.5744	1462.7779	1490.6552	1785.6301	2364.743	3038.6822	3049.5316	3060.9954	3070.9046	3083.4028	3111.228	3132.7402	3813.897
ON=C1CCC1CC#N	ON=C1CC[C@H]1CC#N	
InChI=1S/C6H8N2O/c7-4-3-5-1-2-6(5)8-9/h5,9H,1-3H2	InChI=1S/C6H8N2O/c7-4-3-5-1-2-6(5)8-9/h5,9H,1-3H2/t5-/m0/s1
