18
gdb 41184	3.06444	1.79857	1.5975	1.365	77.17	-0.2139	0.0091	0.223	905.7069	0.149083	-401.800257	-401.793613	-401.792669	-401.830718	28.401	
C	-0.0518536734	 1.5780435381	-0.0841136628	-0.168921
O	 1.4286843635	 1.5405867059	 0.0815273133	-0.361446
C	 1.2112937603	 0.261139187	 0.8097908709	 0.349228
C	 1.3976019582	-1.3024329344	 0.7753443137	-0.268618
N	-0.160090957	-1.3434737031	 0.7940265891	-0.173833
C	-0.6624947003	-1.1989704645	 2.1705479072	-0.210681
C	 0.0317111573	-0.0918221522	 2.9298116398	-0.07082
C	 0.9450989249	 0.6059399592	 2.2608021219	-0.120688
C	-0.007910666	 0.0165404237	 0.0353159319	 0.006472
H	-0.5208781867	 2.1265016665	 0.7361967149	 0.12151
H	-0.3319027815	 1.9877730691	-1.0568636665	 0.11945
H	 1.7491490974	-1.7190582944	-0.1691920688	 0.124594
H	 1.8715868897	-1.7847555753	 1.6338090372	 0.114861
H	-1.7459259072	-1.0321083007	 2.1161580427	 0.119779
H	-0.5307471244	-2.1621731824	 2.6825758684	 0.116757
H	-0.2066184251	 0.0835529295	 3.9750944741	 0.094609
H	 1.5191934553	 1.4255763541	 2.680559665	 0.103567
H	 0.2347328751	-0.3168484763	-0.976329502	 0.10418
205.7488	259.8151	342.6845	405.9635	417.5754	467.7922	525.8524	552.9989	614.7376	696.4661	702.2957	751.6538	814.61	834.3801	885.3982	912.1455	923.3302	972.4798	979.9141	996.3246	1017.501	1032.8421	1085.5615	1101.524	1133.5645	1147.6042	1176.4463	1215.2384	1231.7359	1256.3918	1264.9499	1305.6828	1347.1321	1373.2795	1448.2169	1471.0613	1491.8077	1499.9844	1698.9357	3011.3265	3042.6874	3062.1776	3063.3924	3066.7882	3134.5312	3143.0467	3162.2636	3192.2242
C1OC23CN(CC=C2)C13	C1O[C@@]23CN(CC=C2)[C@@H]13	
InChI=1S/C7H9NO/c1-2-7-5-8(3-1)6(7)4-9-7/h1-2,6H,3-5H2	InChI=1S/C7H9NO/c1-2-7-5-8(3-1)6(7)4-9-7/h1-2,6H,3-5H2/t6-,7+/m0/s1
