17
gdb 29653	2.39308	1.62386	0.98214	3.5827	72.01	-0.181	0.0457	0.2267	1161.8257	0.135024	-455.204917	-455.195365	-455.194421	-455.238977	34.11	
C	-0.0048352745	 1.4295794901	 0.028517179	-0.348215
N	 0.0056009286	-0.0147161657	 0.0398027437	-0.157366
C	 0.0067611221	-0.7594600244	-1.1327276572	 0.447873
O	-0.0016998806	-0.3503184196	-2.2802365367	-0.445731
N	 0.0196485435	-2.0772714068	-0.6891858464	-0.420391
C	 0.0830479871	-2.1184732987	 0.706881836	 0.247774
O	 0.2007128892	-3.292048626	 1.3815765092	-0.42738
C	 0.0592680977	-0.8533122703	 1.1716300965	 0.204018
C	 0.0718263381	-0.3519530858	 2.5712509108	-0.506183
H	 0.897323013	 1.8433405214	 0.4928428266	 0.128719
H	-0.0386319238	 1.7358766577	-1.0183779745	 0.171822
H	-0.8821932041	 1.8302876287	 0.5481336488	 0.127192
H	 0.198510719	-2.8485822913	-1.3083217302	 0.265993
H	-0.6433830025	-3.7604689464	 1.3683464387	 0.304753
H	 0.1157104179	-1.2027341686	 3.2547345898	 0.143915
H	 0.940094877	 0.2868165517	 2.7743473639	 0.13356
H	-0.8248107676	 0.2328365941	 2.811610692	 0.129646
101.4329	143.7185	162.5224	172.2602	211.449	244.9673	250.4703	288.1055	296.3926	349.9135	434.8201	555.5268	627.635	635.5401	646.8126	744.1552	751.0898	888.6067	995.5958	1066.8871	1098.3895	1157.1842	1162.9404	1208.9789	1259.1669	1268.1769	1352.4259	1408.8463	1412.0654	1443.9111	1460.7522	1478.3384	1497.8707	1498.0794	1515.5761	1756.5161	1823.1242	3017.8584	3026.8088	3061.9648	3079.1366	3128.1625	3145.1593	3687.5313	3751.6422
CN1C(=O)NC(O)=C1C	Cn1c(=O)[nH]c(O)c1C	
InChI=1S/C5H8N2O2/c1-3-4(8)6-5(9)7(3)2/h8H,1-2H3,(H,6,9)	InChI=1S/C5H8N2O2/c1-3-4(8)6-5(9)7(3)2/h8H,1-2H3,(H,6,9)
