15
gdb 123671	4.31694	1.55492	1.36564	2.5037	70.06	-0.2207	0.0155	0.2363	916.6598	0.117104	-416.755073	-416.74913	-416.748186	-416.785383	24.3	
C	-0.0522556006	 1.5960818803	-0.0466265274	-0.212961
C	 1.4847972626	 1.3172716473	 0.0050729203	-0.078764
O	 1.1759278442	 0.1911939918	 0.8978024212	-0.281609
C	-0.0217603498	 0.0351953589	 0.0341985975	-0.099224
C	 0.6270844717	-0.3328927288	-1.2961459121	 0.282779
C	 1.6748946887	 0.563891386	-1.3073675322	 0.415677
N	 2.3678263587	 0.3628644484	-2.4373970314	-0.378072
N	 1.8253352885	-0.636527663	-3.1858824242	-0.228136
C	 0.7610210202	-1.0593830449	-2.4866936639	-0.214158
H	-0.4118732986	 2.0569586787	 0.8762668851	 0.113545
H	-0.4749056765	 2.067485721	-0.936281513	 0.107468
H	 2.2256994867	 2.0165058686	 0.3864472818	 0.094185
H	-0.8153658777	-0.5630467995	 0.4750510204	 0.09267
H	 3.1995038525	 0.8164295372	-2.7757226212	 0.27363
H	 0.1598816894	-1.8616985221	-2.8878774409	 0.112969
123.4449	305.1232	405.5323	478.3242	526.0685	553.1079	669.5086	689.5775	692.8972	749.1895	824.5299	839.914	883.9977	886.2223	922.9339	977.9941	1012.48	1037.1457	1068.204	1082.4647	1122.1142	1158.4385	1217.3847	1229.6172	1252.562	1255.8085	1281.9081	1322.6198	1357.4455	1469.0776	1482.5513	1540.2094	1551.2772	3064.8431	3137.657	3151.3531	3158.9101	3248.1943	3671.9593
C1C2OC1C1=C2NN=C1	C1[C@H]2O[C@@H]1c1c2[nH]nc1	
InChI=1S/C6H6N2O/c1-4-3-2-7-8-6(3)5(1)9-4/h2,4-5H,1H2,(H,7,8)	InChI=1S/C6H6N2O/c1-4-3-2-7-8-6(3)5(1)9-4/h2,4-5H,1H2,(H,7,8)/t4-,5+/m0/s1
