15
gdb 32176	3.6807	1.15773	0.88557	3.2141	71.56	-0.2396	-0.042	0.1976	1227.6417	0.113824	-453.995316	-453.987395	-453.98645	-454.028358	29.083	
O	 0.0283474067	 1.3790756556	 0.0344395654	-0.413826
C	-0.0185316732	-0.0317973039	-0.0306146742	-0.150636
C	-1.4543265606	-0.4904459483	-0.0071589772	 0.279977
C	-2.5299661364	 0.387501628	 0.0600581658	-0.067549
N	-3.7959383378	-0.056587242	 0.0785863711	-0.23075
C	-3.985334826	-1.3653607602	 0.0302884867	-0.076286
C	-2.892910825	-2.245863577	-0.037581856	 0.393449
O	-3.120429138	-3.5722910924	-0.0853018112	-0.41425
N	-1.6423122183	-1.8182197906	-0.0561571026	-0.398869
H	 0.9491810766	 1.6520522285	 0.0111402926	 0.296252
H	 0.4523199751	-0.4179467808	-0.9488035774	 0.11306
H	 0.5078651999	-0.5014449675	 0.8156267806	 0.113069
H	-2.3705224365	 1.4570891656	 0.0995206242	 0.133518
H	-5.0015911681	-1.7472908221	 0.0441567331	 0.123317
H	-2.2524227284	-3.9976060328	-0.1277912409	 0.299524
51.1885	178.9444	204.5896	205.9713	243.5219	360.5328	463.9037	477.0287	521.8621	577.6593	612.7577	621.3416	737.5629	781.7036	895.9937	948.9655	987.9556	1026.7281	1039.6721	1109.8907	1173.6832	1189.1986	1219.2964	1243.0879	1263.875	1317.1246	1360.8304	1446.8844	1475.3959	1499.646	1512.7491	1599.2031	1634.969	2971.9124	2995.9065	3177.2803	3221.7951	3763.8943	3848.6493
OCC1=CN=CC(O)=N1	OCc1cncc(O)n1	
InChI=1S/C5H6N2O2/c8-3-4-1-6-2-5(9)7-4/h1-2,8H,3H2,(H,7,9)	InChI=1S/C5H6N2O2/c8-3-4-1-6-2-5(9)7-4/h1-2,8H,3H2,(H,7,9)
