13
gdb 5646	5.42	2.20936	1.56956	3.5581	66.03	-0.182	0.0161	0.1981	739.6805	0.100057	-357.683451	-357.677689	-357.676745	-357.712892	23.123	
N	 0.0028358821	 1.3452253145	 0.009580455	-0.231422
C	 1.2786519674	 1.8862144745	 0.0002154806	-0.232716
C	 2.1191058904	 0.7974376691	-0.0136651354	 0.306373
N	 3.4309099288	 0.3601964837	-0.0286039358	-0.428884
C	 3.3695946902	-1.0240192882	-0.0354177003	 0.000289
N	 2.1631406075	-1.5199270062	-0.0264304125	-0.353878
C	 1.3422096377	-0.3990752781	-0.0125622867	 0.265489
C	 0.0098682657	-0.0296457413	 0.002230659	-0.209102
H	-0.8346548476	 1.9003462578	 0.020600528	 0.2616
H	 1.4349118349	 2.9509472082	 0.0043821944	 0.115928
H	 4.2696744937	 0.9125424754	-0.0337581226	 0.260162
H	 4.2790081756	-1.6098372897	-0.0472903107	 0.123464
H	-0.9061911864	-0.5953144398	 0.0080365271	 0.122697
249.0567	293.9525	364.9866	459.8032	490.5724	588.6381	611.1185	642.7399	701.2406	714.2637	737.3235	770.31	851.0695	931.6666	952.8221	1056.9485	1080.4429	1123.7781	1177.5329	1249.1723	1315.8414	1328.7393	1372.7197	1446.5369	1475.0197	1533.6285	1560.2476	1679.5295	3232.3623	3275.9605	3279.1302	3686.0859	3686.6611
N1C=C2NC=NC2=C1	[nH]1cc2[nH]cnc2c1	
InChI=1S/C5H5N3/c1-4-5(2-6-1)8-3-7-4/h1-3,6H,(H,7,8)	InChI=1S/C5H5N3/c1-4-5(2-6-1)8-3-7-4/h1-3,6H,(H,7,8)
