20
gdb 61281	4.30305	0.69866	0.66419	5.6088	80.19	-0.2579	-0.0236	0.2343	1711.7797	0.167803	-403.196935	-403.186291	-403.185347	-403.233811	37.05	
C	-0.1289678173	 1.6386571491	-0.0172855458	-0.409355
C	 0.0005170372	 0.1110365797	 0.0050471084	 0.038638
C	-1.3853014796	-0.5763370247	 0.0634061839	-0.356029
C	-2.1558710179	-0.2145489715	 1.2516813082	 0.265893
N	-2.7542852636	 0.0767788854	 2.1964781597	-0.311179
C	 0.7778684612	-0.4140630839	-1.2087616613	-0.321051
C	 2.2724385713	-0.0971566673	-1.1773258736	 0.381907
C	 3.0362421852	-0.3627773311	-2.4612829564	-0.473592
O	 2.8160714667	 0.3276587444	-0.1841240664	-0.289385
H	 0.8584717349	 2.1044068097	-0.0057553952	 0.142321
H	-0.6610602337	 1.974850671	-0.9159450726	 0.108205
H	-0.6828837574	 1.9981849007	 0.8542798292	 0.14406
H	 0.5594855057	-0.1732226633	 0.9024456502	 0.118069
H	-1.976407827	-0.3124842298	-0.8228305735	 0.146714
H	-1.2700657798	-1.6664679608	 0.0517532437	 0.146448
H	 0.6990203402	-1.5095901799	-1.2783995614	 0.122364
H	 0.351241391	-0.03500713	-2.1478000774	 0.116487
H	 2.7303131243	 0.360963791	-3.2262099873	 0.145415
H	 4.1076721541	-0.2651341567	-2.283455615	 0.147753
H	 2.8088697545	-1.358071692	-2.8576727273	 0.136316
42.5948	57.6269	101.9929	112.8933	123.5491	200.5066	250.2498	278.2448	332.5386	386.8171	400.1022	426.5905	479.153	544.9826	619.4795	808.6019	818.1233	849.5583	895.5269	941.4869	958.1502	977.8128	1000.2922	1109.0881	1125.9377	1144.1077	1174.5393	1226.9717	1267.5323	1287.7578	1349.0543	1368.8315	1381.6533	1390.0131	1414.6945	1446.5621	1463.1784	1468.0377	1476.7865	1497.5093	1510.5355	1812.3007	2360.9601	3003.4278	3030.4082	3031.5837	3035.9734	3038.668	3062.883	3077.8294	3097.2017	3106.4951	3135.6999	3153.9607
CC(CC#N)CC(C)=O	C[C@@H](CC#N)CC(=O)C	
InChI=1S/C7H11NO/c1-6(3-4-8)5-7(2)9/h6H,3,5H2,1-2H3	InChI=1S/C7H11NO/c1-6(3-4-8)5-7(2)9/h6H,3,5H2,1-2H3/t6-/m0/s1
