17
gdb 85584	2.82247	1.42527	1.11939	3.7091	70.51	-0.241	0.0029	0.2439	1098.7192	0.13687	-455.189765	-455.181304	-455.180359	-455.223094	31.365	
C	 0.0192271113	 1.591468769	 0.1901430077	-0.405875
C	 0.0913511507	 0.0743384365	 0.013366653	 0.071005
O	 0.7632072712	-0.2597429138	-1.2239351465	-0.230884
C	 2.1071997683	-0.3118215324	-1.2814721774	 0.431785
O	 2.6782203882	-0.3796454862	-2.3337493064	-0.32283
C	 2.8428137085	-0.2877474061	 0.0535179692	-0.321405
N	 2.0416608822	-0.8508965922	 1.1217615275	-0.339626
C	 0.6957868102	-0.6161886734	 1.2251550641	 0.362326
N	-0.0857032196	-0.9012556377	 2.1940636152	-0.53519
H	 1.0097017397	 2.0312951469	 0.3454762215	 0.120886
H	-0.4257125931	 2.0476905828	-0.697648581	 0.139314
H	-0.5986946557	 1.8205401643	 1.0614186691	 0.152437
H	-0.914757693	-0.3253865963	-0.1105974182	 0.137146
H	 3.7537566302	-0.8736565871	-0.0787938501	 0.1549
H	 3.1516838627	 0.7523948762	 0.2483538115	 0.138524
H	 2.5212559317	-1.2031148385	 1.9357109949	 0.246569
H	 0.4204177966	-1.311440672	 2.9817063559	 0.200918
69.359	112.2278	157.677	228.4854	248.9178	372.9501	400.2827	425.7176	447.4673	469.7845	572.3691	622.4525	687.2158	745.5703	787.706	844.764	856.5327	953.3042	1015.1904	1049.9671	1072.3703	1111.6978	1141.6269	1173.0589	1227.4564	1258.1966	1333.2259	1339.8227	1390.8038	1400.0284	1433.9937	1465.2853	1488.4673	1492.0323	1507.048	1733.5285	1856.6795	2973.1031	3045.5441	3111.8034	3117.0041	3132.4857	3140.1279	3446.1803	3619.5594
CC1OC(=O)CNC1=N	C[C@H]1OC(=O)CN[C]1[NH]	
InChI=1S/C5H8N2O2/c1-3-5(6)7-2-4(8)9-3/h3H,2H2,1H3,(H2,6,7)	InChI=1S/C5H8N2O2/c1-3-5(6)7-2-4(8)9-3/h3H,2H2,1H3,(H2,6,7)/t3-/m1/s1
