17
gdb 50701	2.97488	1.40828	1.09343	3.1507	67.9	-0.2507	-0.0303	0.2203	1092.8781	0.135983	-458.948677	-458.94088	-458.939935	-458.981508	28.959	
O	-0.5816600502	 0.7859648355	-0.6467416325	-0.238961
C	 0.1545106351	 1.0422214473	 0.2703366258	 0.157936
C	 1.3554099012	 1.9636774202	 0.1690081657	-0.138151
C	 1.4302152835	 2.6880323142	-1.182826727	-0.100815
O	 2.5176665653	 3.5958799603	-1.1950125842	-0.251721
C	 2.3220850475	 4.7052786482	-0.3383089832	-0.10406
C	 1.8549285244	 4.3253686894	 1.0571505405	 0.020698
O	 0.4542611029	 4.044684412	 1.2084442549	-0.250591
C	 1.3771086332	 2.9597421606	 1.3158166063	 0.034545
H	-0.0044319141	 0.593905306	 1.2785851904	 0.082481
H	 2.2465268417	 1.3268146693	 0.2901995369	 0.112964
H	 1.6050980282	 1.9740910435	-1.9891905756	 0.12536
H	 0.4793513502	 3.2007962151	-1.3799284872	 0.120937
H	 3.2895747178	 5.2127605138	-0.276642242	 0.115708
H	 1.5927407073	 5.4093824054	-0.77126312	 0.110383
H	 2.2775054889	 4.9022352815	 1.8792323961	 0.104345
H	 1.4724048772	 2.5414175778	 2.3186756952	 0.098941
71.4616	112.9156	197.5434	226.2436	296.5293	372.2054	401.9117	468.949	582.2841	625.1957	718.5126	787.5454	812.9576	869.9011	920.3661	935.3628	974.1839	1017.0133	1052.2812	1076.0812	1089.8749	1135.1031	1161.687	1169.7912	1256.0983	1276.9691	1282.9216	1311.2438	1335.8716	1355.4678	1391.3267	1419.1481	1427.0038	1467.5083	1483.3405	1493.6883	1829.6027	2862.4511	2976.9263	2992.9082	3027.5198	3082.3999	3100.3497	3119.499	3121.5534
O=CC1COCC2OC12	O=C[C@H]1COC[C@H]2O[C@@H]12	
InChI=1S/C6H8O3/c7-1-4-2-8-3-5-6(4)9-5/h1,4-6H,2-3H2	InChI=1S/C6H8O3/c7-1-4-2-8-3-5-6(4)9-5/h1,4-6H,2-3H2/t4-,5+,6-/m0/s1
