21
gdb 60152	4.31539	0.75075	0.73417	3.1672	80.57	-0.2402	-0.0193	0.2209	1631.2134	0.178985	-424.235826	-424.225821	-424.224877	-424.271771	36.549	
C	 0.2612920156	 1.3102108821	 0.5772419115	-0.391059
C	-0.0381965088	-0.0652527102	-0.0244047418	 0.146721
C	-1.5349630758	-0.3131677902	-0.1737592654	-0.388655
O	 0.5231075416	-0.1975908307	-1.3336057309	-0.269001
C	 1.8978524732	-0.4564989057	-1.3794615691	 0.131789
C	 2.3691689954	-1.9092357183	-1.0228991111	-0.371308
C	 3.1085748852	-1.9232857027	-2.3707367999	 0.395884
O	 3.9616222749	-2.618613597	-2.8397949195	-0.288589
C	 2.4100616282	-0.6363131408	-2.8318485448	-0.368442
H	 1.3357414159	 1.4855190922	 0.6831670164	 0.117105
H	-0.1537082287	 2.0982007867	-0.059043247	 0.124824
H	-0.1862972218	 1.3961782729	 1.5723910461	 0.116651
H	 0.3907207084	-0.8446299823	 0.6258583515	 0.071653
H	-1.9761631905	 0.4319565403	-0.843394766	 0.125341
H	-1.7192953906	-1.3039848631	-0.5970932484	 0.11968
H	-2.0368362568	-0.2470914685	 0.795955632	 0.114332
H	 2.475850333	 0.2977282665	-0.8305536997	 0.078981
H	 2.9764082532	-2.0729177712	-0.1297490049	 0.125228
H	 1.5280945347	-2.6114847064	-1.0247450508	 0.135936
H	 1.575291368	-0.8541361817	-3.5069321181	 0.143736
H	 3.0356930359	 0.1427515283	-3.2720774202	 0.129193
41.9536	53.3149	93.6188	169.4076	200.9589	236.1813	289.3842	366.4018	390.6989	415.8992	440.5625	497.6329	500.4497	655.3997	673.8835	760.0448	836.3828	903.2695	923.0884	926.3604	942.6472	962.6729	999.6023	1060.3629	1109.2325	1136.3411	1146.9507	1160.0327	1175.4527	1196.3344	1218.3526	1238.4553	1279.0308	1355.9725	1367.3433	1395.4107	1408.83	1414.4611	1416.679	1442.398	1480.229	1484.3409	1494.4584	1509.3316	1895.728	2973.8333	3021.3647	3038.3478	3043.5229	3053.0035	3061.0814	3108.6928	3112.3295	3118.2541	3120.5433	3122.8747	3125.9324
CC(C)OC1CC(=O)C1	CC(C)OC1CC(=O)C1	
InChI=1S/C7H12O2/c1-5(2)9-7-3-6(8)4-7/h5,7H,3-4H2,1-2H3	InChI=1S/C7H12O2/c1-5(2)9-7-3-6(8)4-7/h5,7H,3-4H2,1-2H3
