18
gdb 43762	3.52938	1.21057	1.11023	3.3676	77.94	-0.2305	-0.005	0.2256	1139.2595	0.147304	-401.903146	-401.895285	-401.894341	-401.935745	30.561	
O	-0.0295924977	 0.0036407465	-0.0545909179	-0.326827
C	 0.014642118	 1.1961906571	 0.0753279492	 0.435913
C	-1.1020134645	 2.2737020145	 0.1467489715	-0.412482
C	-0.0069550262	 3.3310488538	-0.0402476474	 0.379645
C	 0.9533094937	 3.2544611167	 1.0755050202	-0.315579
C	 1.1145895702	 2.1946326636	-0.0240665208	-0.253768
N	-0.1967880445	 4.470346005	-0.8541059932	-0.149043
C	 0.9367462969	 5.0081402391	-1.5956333009	-0.231983
C	-0.1667680693	 4.3007458614	-2.3057841379	-0.231095
H	-1.764711906	 2.1786823091	-0.7183833197	 0.132081
H	-1.703250205	 2.3411971473	 1.0580822857	 0.119603
H	 1.7475258309	 3.9955026832	 1.0610214279	 0.126514
H	 0.6375615732	 2.9663481866	 2.0755576619	 0.121918
H	 2.0597552897	 2.070070068	-0.5388940553	 0.106705
H	 1.0078211172	 6.0911297979	-1.6227584388	 0.126659
H	 1.88893936	 4.486090901	-1.5256564992	 0.120267
H	 0.0549459366	 3.309739759	-2.6958829872	 0.125023
H	-0.9143802533	 4.8615304501	-2.8578312382	 0.126448
80.9038	109.7113	198.9151	228.2396	341.7568	429.9168	478.2417	502.3041	552.1548	565.7495	628.8466	727.1226	805.0409	820.641	885.2305	910.8035	920.9599	949.9615	970.1803	1008.5301	1035.6695	1054.8095	1089.87	1099.7344	1119.1769	1128.6328	1131.366	1172.6761	1179.0455	1203.7197	1228.3845	1268.4478	1303.3012	1419.6697	1460.6532	1486.5573	1507.2945	1515.1921	1872.9398	3056.5873	3104.3044	3105.578	3108.8515	3112.3504	3188.2392	3190.0709	3195.4647	3205.0931
O=C1CC2(CC12)N1CC1	O=C1C[C@]2(C[C@@H]12)N1CC1	
InChI=1S/C7H9NO/c9-6-4-7(3-5(6)7)8-1-2-8/h5H,1-4H2	InChI=1S/C7H9NO/c9-6-4-7(3-5(6)7)8-1-2-8/h5H,1-4H2/t5-,7-/m0/s1
