19
gdb 41257	3.36076	1.85399	1.4724	1.9	78.05	-0.2367	0.073	0.3096	923.7625	0.162003	-385.816842	-385.810466	-385.809522	-385.847169	27.264	
C	-0.0394211181	 1.4725288347	-0.0843008475	-0.234262
C	 1.5093794225	 1.5784229791	 0.0519415595	-0.037182
C	 2.0700014946	 1.447258423	 1.5024879013	-0.348841
C	 1.6864489792	-0.0316929468	 1.451972756	 0.306213
C	 1.9526214959	-1.356236712	 2.1433447563	-0.1983
O	 0.6183348298	-1.806793243	 1.7724942071	-0.310001
C	 0.1934978233	-0.4507110415	 1.4802372768	 0.114087
C	 0.0183395415	-0.0833263097	 0.0075652258	-0.089349
C	 1.5825761293	 0.019429447	-0.112486046	-0.0673
H	-0.6571326088	 1.9982645892	 0.6527072018	 0.092366
H	-0.3524247699	 1.7881352884	-1.0830196777	 0.106965
H	 2.0079342968	 2.2861762865	-0.6099308585	 0.068697
H	 3.1558458028	 1.5951305849	 1.4972152768	 0.103012
H	 1.6336433421	 2.0634272401	 2.2955526345	 0.096047
H	 2.7380257035	-2.0017212132	 1.733843955	 0.103554
H	 2.0619865802	-1.2982743029	 3.2368218431	 0.096086
H	-0.5391256573	-0.0917044649	 2.2139288128	 0.064082
H	-0.6435647246	-0.6720041936	-0.628636232	 0.070269
H	 2.2371778271	-0.5202767052	-0.7929947851	 0.063859
218.2788	254.6827	332.0224	347.0573	398.3346	513.3961	612.5231	697.093	765.1954	808.3148	834.4815	867.1796	875.5774	886.463	917.8226	942.5457	960.5305	968.0705	995.4081	1013.4811	1023.2782	1081.4145	1103.7853	1119.5167	1129.243	1146.9382	1165.6064	1186.361	1206.8758	1220.2851	1240.2293	1250.4998	1269.3817	1284.2243	1296.5555	1317.9062	1335.8547	1374.4895	1477.5792	1487.5796	1517.1922	2987.2691	3025.3469	3033.0879	3037.6838	3058.0043	3083.358	3092.909	3101.8558	3108.1055	3140.2939
C1C2CC34COC3C1C24	C1[C@H]2C[C@@]34CO[C@@H]3[C@@H]1[C@@H]24	
InChI=1S/C8H10O/c1-4-2-8-3-9-7(8)5(1)6(4)8/h4-7H,1-3H2	InChI=1S/C8H10O/c1-4-2-8-3-9-7(8)5(1)6(4)8/h4-7H,1-3H2/t4-,5-,6+,7+,8-/m0/s1
