18
gdb 95051	2.30846	1.94615	1.26007	2.696	72.56	-0.2619	0.0216	0.2835	1019.1975	0.14897	-439.096249	-439.088586	-439.087642	-439.128378	29.681	
C	-0.3487497953	 1.5321798107	-0.028060537	-0.407221
C	 0.0290924392	 0.063545864	 0.0115635782	 0.12769
O	 0.9337552174	-0.2231325558	-1.0581503438	-0.258878
C	 1.5368324329	-1.4745701833	-0.7736877426	-0.111282
C	 1.7627025738	-1.4841770658	 0.7318638301	 0.098327
O	 2.8833096626	-0.6304292724	 1.1332849846	-0.268086
C	 2.0271748614	 0.3246339634	 1.6433311291	 0.452678
N	 2.2692852212	 1.4147404716	 2.2127921118	-0.547663
C	 0.7642703965	-0.4303994687	 1.2743214377	-0.211107
H	 0.5268177181	 2.1610560948	 0.1451892102	 0.150944
H	-0.7804635407	 1.7777677971	-1.0018773164	 0.126094
H	-1.0899900345	 1.7536018175	 0.7454132874	 0.121072
H	-0.8754146863	-0.559334139	-0.1057667268	 0.069747
H	 0.8704607334	-2.3112038321	-1.0452413833	 0.094179
H	 2.462379139	-1.5547255287	-1.3487213328	 0.127866
H	 1.8367527494	-2.4685579695	 1.1946426336	 0.097951
H	 3.2746554113	 1.5845887671	 2.2789022882	 0.229307
H	 0.1067124104	-0.6895473409	 2.1028771619	 0.108381
105.1008	163.7867	202.143	230.7422	317.1255	351.1134	444.449	497.5075	551.7928	668.469	721.4056	803.3945	849.2792	858.4779	870.2566	881.5252	913.4624	978.3567	992.3168	1022.4375	1047.9024	1061.4832	1091.7975	1128.3206	1161.8592	1201.7711	1213.9158	1247.5789	1272.9166	1292.8445	1343.5815	1359.0042	1385.1449	1393.3278	1418.7516	1484.9749	1489.3392	1497.1628	1821.4975	2942.7292	2965.5866	3051.9184	3106.362	3115.805	3122.2799	3133.4991	3142.8871	3472.8748
CC1OCC2OC(=N)C12	C[C@H]1OC[C@H]2O[C]([NH])[C@@H]12	
InChI=1S/C6H9NO2/c1-3-5-4(2-8-3)9-6(5)7/h3-5,7H,2H2,1H3	InChI=1S/C6H9NO2/c1-3-5-4(2-8-3)9-6(5)7/h3-5,7H,2H2,1H3/t3-,4-,5+/m1/s1
