16
gdb 20849	3.1907	1.86569	1.28449	0.5121	66.71	-0.2082	0.0274	0.2357	949.0077	0.131322	-379.942111	-379.934024	-379.93308	-379.975026	29.273	
C	-0.135726362	 1.5504341958	 0.0708983766	-0.373543
C	 0.0932283001	 0.0289355788	 0.0213369217	-0.310004
C	 0.7396040227	-0.514049009	 1.2595059524	 0.241124
N	 2.0298853876	-0.856540163	 1.2859507063	-0.28421
N	 2.2557085002	-1.2623537386	 2.5440158157	-0.187798
C	 1.1527997818	-1.2028223622	 3.3397908443	-0.110677
C	 0.1480823347	-0.7166605907	 2.5320388085	 0.191149
O	-1.1381252883	-0.4866463597	 2.9248584672	-0.447529
H	 0.8162329319	 2.0777283559	 0.1801660252	 0.132214
H	-0.6225929576	 1.9046946676	-0.8431586465	 0.113042
H	-0.7667892847	 1.8332026682	 0.9205843966	 0.112572
H	-0.8667670879	-0.4788930719	-0.1518414355	 0.091885
H	 0.7298745339	-0.2234619037	-0.8316127851	 0.126299
H	 3.1753104635	-1.5785339066	 2.7967080828	 0.273402
H	 1.1606244423	-1.4983317498	 4.3754992488	 0.132416
H	-1.6592214382	-0.2636418411	 2.147816511	 0.299658
42.9476	146.155	191.7994	199.9166	278.1616	304.5836	407.114	453.4685	461.6026	632.7074	660.7026	718.8833	732.1478	766.3253	788.9514	943.0985	970.5369	1054.3528	1069.4668	1084.3335	1158.6273	1217.2803	1251.8122	1283.3113	1345.2943	1357.3838	1406.8658	1435.6817	1476.9242	1481.9832	1495.4781	1506.2865	1536.0014	1647.0487	3001.6627	3033.4491	3081.8164	3103.5322	3116.464	3275.7402	3686.3646	3837.3638
CCC1=NNC=C1O	CCc1n[nH]cc1O	
InChI=1S/C5H8N2O/c1-2-4-5(8)3-6-7-4/h3,8H,2H2,1H3,(H,6,7)	InChI=1S/C5H8N2O/c1-2-4-5(8)3-6-7-4/h3,8H,2H2,1H3,(H,6,7)
