18
gdb 63110	2.2419	1.66258	1.18165	3.1347	77.59	-0.2593	0.0093	0.2686	1090.4351	0.146549	-401.926508	-401.917758	-401.916814	-401.959476	32.954	
C	 0.0012665736	 1.5431905248	 0.0407212822	-0.468703
C	 0.0353955493	 0.028795207	 0.0306441631	 0.222011
C	-1.1965010099	-0.6388418708	-0.5553294041	-0.464373
C	 1.3119540007	-0.7182287947	-0.1913741925	 0.02756
O	 2.4538615736	-0.0211251681	 0.2858899023	-0.276141
C	 1.968204677	-0.0902376044	 1.6509881728	-0.145731
C	 0.6636409178	-0.7565094655	 1.2021261511	 0.082815
C	-0.0024656459	-1.7932002624	 1.910049429	 0.201353
N	-0.5483198653	-2.626880499	 2.5008767522	-0.360833
H	 0.9726546257	 1.9698158562	 0.2959097006	 0.141515
H	-0.2684334487	 1.9120886001	-0.9546096365	 0.126785
H	-0.7469686433	 1.9147855162	 0.7483130539	 0.127125
H	-1.364249851	-0.2823268039	-1.5766021999	 0.126823
H	-1.1010329775	-1.7279991216	-0.5853839168	 0.137515
H	-2.0863820124	-0.4038208265	 0.0373262171	 0.139035
H	 1.4626162493	-1.5034351096	-0.9247269571	 0.125889
H	 2.5974461263	-0.757142536	 2.2474522845	 0.135252
H	 1.8978217404	 0.8928950182	 2.1268613979	 0.122102
125.7519	144.0095	178.2986	219.8542	244.1581	274.7249	311.556	355.7092	406.7153	489.2728	543.8284	580.9865	599.4692	682.0327	751.856	906.3544	950.6835	972.8302	977.4008	991.2251	1017.3038	1053.1461	1067.3584	1108.8756	1146.885	1164.9167	1213.2427	1243.4139	1316.1084	1328.1978	1408.1499	1418.9737	1431.7022	1481.3185	1487.4406	1500.2099	1511.6728	1522.8528	2339.4577	3037.1425	3040.9144	3046.3573	3098.9148	3102.0292	3105.8901	3114.5504	3137.4992	3176.4643
CC1(C)C2OCC12C#N	CC1(C)[C@H]2OC[C@@]12C#N	
InChI=1S/C7H9NO/c1-6(2)5-7(6,3-8)4-9-5/h5H,4H2,1-2H3	InChI=1S/C7H9NO/c1-6(2)5-7(6,3-8)4-9-5/h5H,4H2,1-2H3/t5-,7-/m1/s1
