18
gdb 26307	3.56926	1.07312	0.99036	3.1637	77.33	-0.1886	0.0326	0.2212	1269.179	0.147048	-435.275941	-435.266563	-435.265619	-435.310678	33.743	
C	 0.1758301413	 1.0519908021	 0.8810587536	-0.332228
N	 0.1659687279	-0.2276313322	 0.1688227535	-0.183165
C	 0.7644471033	-0.1452323416	-1.1652886132	-0.332222
C	-1.0273937521	-0.9192462996	 0.2302088469	 0.360245
C	-1.3719279306	-2.0756602985	 0.80778131	-0.15634
N	-2.7212462977	-2.2904295792	 0.5455301987	-0.331343
C	-3.2271142311	-1.2508138267	-0.2087619885	 0.466101
N	-4.4220047433	-1.1370687874	-0.6195042539	-0.61068
O	-2.174748394	-0.387216805	-0.4110640196	-0.256588
H	 1.2088451588	 1.4032730115	 0.9706702816	 0.120006
H	-0.4114802346	 1.8324553716	 0.3723153735	 0.117735
H	-0.2306797498	 0.9093452888	 1.8848738151	 0.129025
H	 0.7763095589	-1.1395466016	-1.617423691	 0.129024
H	 0.2245024134	 0.5396199059	-1.8378290561	 0.117731
H	 1.7967767166	 0.2073274166	-1.0728184562	 0.120011
H	-0.7707900815	-2.759496069	 1.3810147994	 0.148225
H	-3.2855228669	-3.0672815105	 0.836219565	 0.27371
H	-4.5358709886	-0.2802291453	-1.1538459589	 0.220751
44.9129	109.4967	134.9229	136.5764	209.2389	229.2791	321.0463	349.1288	393.2771	459.0687	523.4769	596.9619	668.9668	713.2472	747.3288	751.5965	789.5983	901.0708	935.4289	957.1417	1051.4845	1058.7071	1087.1764	1116.7808	1147.6592	1181.0869	1224.0592	1227.3577	1351.1927	1374.9818	1410.6429	1437.7391	1466.8999	1479.3255	1494.4432	1500.1122	1518.496	1747.396	1792.4467	2982.2254	2986.9253	3071.0693	3071.4206	3122.1371	3124.5338	3292.9766	3543.1808	3712.4436
CN(C)C1=CNC(=N)O1	CN(C)C1=CN[C@@H]([NH])O1	
InChI=1S/C5H9N3O/c1-8(2)4-3-7-5(6)9-4/h3H,1-2H3,(H2,6,7)	InChI=1S/C5H10N3O/c1-8(2)4-3-7-5(6)9-4/h3,5-7H,1-2H3/t5-/m1/s1
