16
gdb 22760	2.77416	1.07721	0.91733	3.2402	70.01	-0.249	-0.03	0.2189	1267.9029	0.121313	-474.964781	-474.955535	-474.954591	-474.999543	32.797	
O	-0.5624977636	 1.2164363761	-0.7278555432	-0.383237
N	-0.3161992684	-0.157742998	-0.6198695084	-0.231002
C	-1.1225567663	-0.7155330739	 0.1815848585	 0.343562
C	-2.3963951107	-0.3401667144	 0.904725934	-0.342288
C	-2.8188885967	-1.8508433375	 0.8145345043	-0.162935
C	-3.7772974967	-2.1121553557	-0.3140779911	 0.186772
O	-4.7601467424	-2.8012697509	-0.2333933827	-0.25083
C	-1.3113871826	-2.1946659827	 0.4263244165	 0.073884
O	-1.023015506	-3.1086266469	-0.5883678605	-0.417163
H	 0.1023599052	 1.4973311688	-1.3665130024	 0.313171
H	-2.2413314494	-0.0069271013	 1.9339234164	 0.140398
H	-3.0293481168	 0.3892783231	 0.3932305454	 0.142484
H	-3.1887565078	-2.3211815935	 1.7252172485	 0.100455
H	-3.5151985712	-1.5991990422	-1.2699285186	 0.070053
H	-0.7949365134	-2.5274834692	 1.3349021266	 0.119909
H	-0.9365056133	-2.6183020718	-1.4136110335	 0.296764
52.2143	83.048	132.0485	191.9637	217.2934	254.5555	307.3193	329.9774	402.27	440.1695	497.246	534.6949	633.3916	721.9804	804.5852	839.4358	870.6587	967.3371	996.8398	1038.1924	1055.7684	1096.9651	1143.7008	1175.2133	1192.1279	1235.3935	1265.1325	1281.8128	1331.2179	1404.2568	1425.3309	1437.7508	1461.8485	1779.5599	1835.3352	2848.0173	3036.7284	3068.6941	3116.0468	3125.0901	3806.6109	3812.4062
ON=C1CC(C=O)C1O	ON=C1C[C@@H](C=O)[C@H]1O	
InChI=1S/C5H7NO3/c7-2-3-1-4(6-9)5(3)8/h2-3,5,8-9H,1H2	InChI=1S/C5H7NO3/c7-2-3-1-4(6-9)5(3)8/h2-3,5,8-9H,1H2/t3-,5+/m0/s1
