20
gdb 82893	2.48343	1.95202	1.45978	2.1643	77.79	-0.2189	0.07	0.2888	977.988	0.172489	-403.089326	-403.081643	-403.080698	-403.120895	31.491	
C	-0.2271373815	 1.6014176065	-0.0832333301	-0.451017
C	 0.0453107378	 0.1099083901	 0.0149785039	 0.016752
N	 1.0887360419	-0.54582123	-0.8911458554	-0.173494
C	 2.327409889	 0.1941993651	-0.4830885361	-0.160984
C	 2.3762348189	-0.2652935865	 0.9800521194	-0.131921
C	 2.5656959112	-1.7905183037	 0.7606465645	-0.250248
C	 1.1604530901	-1.6944253311	 0.1670678436	-0.01571
C	 0.802303657	-0.5638284728	 1.1592675995	 0.372088
O	 0.302621129	-0.826374795	 2.4296235637	-0.48671
H	 0.5941252136	 2.2188306574	 0.2905739249	 0.115141
H	-0.4246387306	 1.8876323889	-1.1219830416	 0.132625
H	-1.1172479604	 1.849363763	 0.504366818	 0.121093
H	-0.8888823132	-0.4382682996	-0.1532508412	 0.082327
H	 3.1863671165	-0.1490317286	-1.0671006723	 0.099191
H	 2.2128677551	 1.2653136312	-0.6486797843	 0.098641
H	 2.9508466783	 0.292505558	 1.7201131243	 0.059893
H	 3.4063676693	-2.1249479123	 0.1463252461	 0.095001
H	 2.5257749408	-2.3563352489	 1.6943604009	 0.113738
H	 0.5154613413	-2.5355194025	-0.0791254744	 0.080713
H	 0.4619422959	-0.0581653893	 2.9882140465	 0.282878
165.8195	188.9101	229.9899	243.0873	311.3284	357.9784	490.2397	502.3923	537.2852	609.0133	664.4398	699.0633	744.3119	816.7107	841.4564	895.7431	934.4414	938.9064	951.8329	961.9372	992.2472	1031.3801	1055.1973	1090.8418	1112.3834	1123.9596	1159.4557	1164.2749	1189.2745	1195.4773	1223.5411	1228.6673	1250.7875	1287.6023	1293.7224	1322.7148	1369.294	1398.88	1421.9916	1484.0227	1493.0514	1499.0485	1533.8988	3036.048	3041.6768	3054.8503	3061.778	3100.9081	3107.9573	3110.7433	3120.0261	3129.3976	3139.5249	3804.4561
CC1N2CC3CC2C13O	C[C@H]1N2C[C@@H]3C[C@H]2[C@]13O	
InChI=1S/C7H11NO/c1-4-7(9)5-2-6(7)8(4)3-5/h4-6,9H,2-3H2,1H3	InChI=1S/C7H11NO/c1-4-7(9)5-2-6(7)8(4)3-5/h4-6,9H,2-3H2,1H3/t4-,5+,6+,7+/m1/s1
