17
gdb 125298	3.15903	1.58776	1.07064	2.3699	80.9	-0.2011	0.0046	0.2057	1091.4827	0.139063	-380.903726	-380.896388	-380.895444	-380.93529	28.741	
C	-0.0211726359	 1.5337101351	 0.0011097183	-0.503446
C	-0.0074388227	 0.0382384344	 0.0065616722	 0.205384
C	-0.0268195605	-0.7854762407	-1.0637213069	-0.187984
C	-0.0032207762	-2.2572827033	-0.6618340712	-0.423658
C	 0.033216695	-2.1197929577	 0.8292642444	 0.347226
C	 0.0307477659	-0.7942135157	 1.2169082518	 0.178352
C	 0.0664016998	-0.8312778559	 2.6264898197	-0.176922
N	 0.0893135739	-2.0905713683	 3.0722733743	-0.22568
N	 0.0684255316	-2.8615084205	 1.9523753561	-0.328475
H	 0.8687608986	 1.938137403	 0.4984400575	 0.130831
H	-0.0527148303	 1.9295858818	-1.0172224983	 0.123982
H	-0.8895772618	 1.9222129927	 0.5468003228	 0.130783
H	-0.0558801198	-0.4710001883	-2.0994764272	 0.09051
H	-0.8881033344	-2.796685983	-1.0243333636	 0.131761
H	 0.8720035515	-2.7804939228	-1.0687796745	 0.131747
H	 0.0768837135	-0.023334535	 3.3432516979	 0.105939
H	 0.0805331918	-3.8612826158	 2.0599914368	 0.26965
165.7025	183.5352	216.3215	237.6225	285.6165	484.2663	488.2532	539.4233	584.0962	644.5162	677.3423	720.4315	752.6178	768.392	878.604	936.7949	943.53	975.1309	1016.6261	1065.9947	1079.2898	1098.9522	1135.1665	1171.9117	1225.3871	1251.4516	1300.4627	1329.1762	1405.1959	1415.7332	1439.8938	1465.8925	1478.485	1491.8419	1550.4097	1563.2982	1656.1211	3023.8877	3025.1464	3052.7541	3072.302	3115.056	3210.6959	3243.681	3674.5589
CC1=CCC2=C1C=NN2	CC1=CCc2c1cn[nH]2	
InChI=1S/C7H8N2/c1-5-2-3-7-6(5)4-8-9-7/h2,4H,3H2,1H3,(H,8,9)	InChI=1S/C7H8N2/c1-5-2-3-7-6(5)4-8-9-7/h2,4H,3H2,1H3,(H,8,9)
