14
gdb 30523	2.73385	1.60866	1.01942	4.569	69.13	-0.2419	-0.0577	0.1841	1095.2718	0.099831	-473.845814	-473.837622	-473.836677	-473.880519	28.507	
C	 0.1537152189	 1.438641715	 0.1140033692	-0.334492
N	 0.2513553028	-0.0081635077	 0.0734250243	-0.244256
C	 0.4968396622	-0.596432217	-1.0101571986	 0.252074
O	 0.6941835124	 0.0839694847	-2.1931222168	-0.22907
C	 0.8899609439	-0.632317981	-3.3417005569	-0.031034
C	 0.9388988985	-1.9562611089	-3.358577382	-0.02488
O	 0.8007659331	-2.7186893651	-2.2237017304	-0.204025
C	 0.586900824	-2.1123157869	-1.0144957749	 0.379304
O	 0.4785141866	-2.7804527805	-0.0344337487	-0.277388
H	 1.1284456161	 1.8548033288	 0.3982880097	 0.14381
H	-0.145416108	 1.8929655054	-0.8368971476	 0.128368
H	-0.5575284605	 1.7181245284	 0.8953005818	 0.139127
H	 1.0010091662	-0.0089361816	-4.216173295	 0.149526
H	 1.0921129838	-2.5483124336	-4.247855884	 0.152935
19.97	63.253	152.5647	206.5706	220.0003	369.2169	491.9851	509.4727	528.5926	544.2007	607.6818	738.0584	770.0186	783.7568	859.6979	921.8063	992.2983	1061.0866	1068.6115	1118.7395	1145.2981	1176.0707	1229.3516	1331.9502	1396.6156	1433.1166	1479.8721	1500.1472	1740.5151	1758.2742	1876.0651	3020.0274	3080.041	3111.8248	3246.575	3267.3413
CN=C1OC=COC1=O	CN=c1occoc1=O	
InChI=1S/C5H5NO3/c1-6-4-5(7)9-3-2-8-4/h2-3H,1H3	InChI=1S/C5H5NO3/c1-6-4-5(7)9-3-2-8-4/h2-3H,1H3
