15
gdb 10138	2.81786	1.33641	0.95574	4.1855	66.86	-0.2763	-0.0203	0.256	1183.2381	0.118268	-358.847995	-358.8392	-358.838256	-358.882015	29.954	
C	-0.172065346	 1.5674781201	 0.2342989966	-0.396002
C	-0.3390131339	 0.0842389878	 0.5439810955	-0.126805
N	-0.9558708536	-0.6035937979	-0.596946272	-0.274458
C	-1.1622949407	-2.0281509141	-0.395292382	-0.244918
C	-2.0930982907	-2.3651797128	 0.7169335499	 0.289687
N	-2.8026357477	-2.5470482444	 1.6102575835	-0.309329
C	-1.6288286402	-2.6572612561	-1.6436705994	 0.306107
N	-1.9900808428	-3.1415384536	-2.6266759516	-0.295458
H	 0.322804943	 2.0749365773	 1.0666555454	 0.130801
H	 0.4253293043	 1.7110465476	-0.669919883	 0.13777
H	-1.1439129769	 2.0502103287	 0.0830063281	 0.125071
H	 0.6426692794	-0.3767839875	 0.7114273531	 0.116167
H	-0.9171856307	-0.0456505921	 1.4730556613	 0.117516
H	-1.8364482142	-0.1622153622	-0.8454090599	 0.243193
H	-0.1906853893	-2.4759069407	-0.1447785955	 0.180658
79.415	91.202	128.3246	133.8896	224.5783	255.3339	292.2364	377.4003	393.7283	510.4857	579.2644	625.4373	746.4382	820.1889	883.1127	930.1185	1004.2675	1051.2184	1122.1474	1151.4216	1187.6232	1285.0132	1307.4432	1325.6844	1398.1686	1419.4266	1483.4231	1497.4831	1505.7203	1522.8287	2352.903	2377.8602	2977.7864	3029.2457	3039.2601	3044.8757	3109.8661	3128.9959	3519.7142
CCNC(C#N)C#N	CCNC(C#N)C#N	
InChI=1S/C5H7N3/c1-2-8-5(3-6)4-7/h5,8H,2H2,1H3	InChI=1S/C5H7N3/c1-2-8-5(3-6)4-7/h5,8H,2H2,1H3
