21
gdb 92147	2.77151	1.46769	1.40949	1.1703	80.92	-0.2328	0.0782	0.311	1063.1341	0.184154	-387.070905	-387.062932	-387.061988	-387.102776	32.685	
C	-0.2385655927	 1.5496564943	 0.0712369511	-0.397968
C	 0.0302075225	 0.0428246058	-0.0208992802	 0.013325
C	 0.7346757506	-0.4271035551	-1.3368243459	-0.232231
C	 2.1333905616	-0.8864720802	-0.895761637	-0.109298
C	 2.9428167107	 0.2898395283	-0.2583331195	-0.230872
C	 2.4437977703	-0.1476445749	 1.118310172	-0.157557
C	 0.9441612098	-0.5101158314	 1.0757194342	-0.080661
C	 1.9445969652	-1.4682981735	 0.544681387	 0.370863
O	 2.0431832597	-2.7799243348	 0.9595329556	-0.463984
H	 0.6855250484	 2.1321661971	 0.0117802231	 0.119132
H	-0.8982041293	 1.8818550375	-0.7377615418	 0.108611
H	-0.7249001364	 1.8012351456	 1.0201682847	 0.109659
H	-0.9373525819	-0.467114084	 0.0620212904	 0.071654
H	 0.1870944942	-1.2643991639	-1.7829333116	 0.097008
H	 0.7820665565	 0.3679679395	-2.0892310073	 0.091676
H	 2.6686779417	-1.4940012709	-1.6271687578	 0.060153
H	 4.0226804475	 0.1407993163	-0.3535885143	 0.092906
H	 2.69828532	 1.2979029437	-0.6091457267	 0.09007
H	 2.9173418583	 0.0593206395	 2.0714358094	 0.080656
H	 0.5286408432	-0.7223225906	 2.0557354551	 0.083066
H	 2.9577369801	-3.0643333283	 0.8536948095	 0.283793
141.7476	192.1476	223.3978	264.2747	320.9248	355.9619	388.8552	405.4958	511.6675	594.6593	629.7259	675.0229	761.2196	802.416	827.5278	881.6301	890.4185	911.5334	950.1816	961.5408	1002.8942	1009.7259	1035.916	1043.9475	1063.7211	1117.4965	1119.414	1136.6719	1151.0017	1179.0712	1217.9754	1243.2864	1277.8446	1278.8935	1292.5262	1316.6369	1330.7127	1344.9509	1372.4821	1410.528	1481.8744	1488.353	1495.9796	1499.4271	1512.7487	3018.4123	3029.5552	3036.452	3040.2652	3076.2054	3083.2666	3092.8641	3100.2122	3109.3052	3164.8867	3176.2334	3791.9932
CC1CC2CC3C1C23O	C[C@H]1C[C@H]2C[C@H]3[C@@H]1[C@@]23O	
InChI=1S/C8H12O/c1-4-2-5-3-6-7(4)8(5,6)9/h4-7,9H,2-3H2,1H3	InChI=1S/C8H12O/c1-4-2-5-3-6-7(4)8(5,6)9/h4-7,9H,2-3H2,1H3/t4-,5-,6-,7+,8+/m0/s1
