21
gdb 107939	3.44989	1.27164	1.12661	1.4058	82.48	-0.2221	0.0813	0.3034	1196.7664	0.181284	-387.043369	-387.034631	-387.033687	-387.076476	34.142	
C	-0.100512157	 1.4959054384	 0.1087369057	-0.382092
C	-0.0290631848	-0.0351143978	 0.0443193241	-0.309703
C	 0.789365674	-0.6150720667	 1.1599310098	 0.450631
C	 2.3164325522	-0.372810803	 1.3550522498	-0.270814
C	 2.2667484681	-1.6096480892	 2.2474663392	-0.163563
C	 1.0095873328	-2.1296900332	 1.5479228294	-0.27887
C	 0.8785996244	-1.557511116	 2.9178129137	 0.490739
C	 0.5175337146	-2.1378402785	 4.2419905054	-0.505753
O	 0.2556682263	-0.3396429468	 2.4979160414	-0.365892
H	 0.8921702999	 1.9446949536	 0.0000599118	 0.118744
H	-0.7360494832	 1.8902664287	-0.6892672992	 0.111159
H	-0.5126276037	 1.8195465262	 1.068251795	 0.140697
H	-1.0386299067	-0.4597026758	 0.0960238996	 0.1079
H	 0.4045310105	-0.3589433238	-0.9099345634	 0.099887
H	 2.8757985046	-0.5630075869	 0.4344965778	 0.097851
H	 2.6062212053	 0.5882858247	 1.7915818338	 0.096274
H	 3.087077692	-2.1871349014	 2.6554733824	 0.085599
H	 0.7493155021	-3.076431053	 1.0939715305	 0.092158
H	 1.0406081137	-3.086594967	 4.3950140681	 0.124324
H	 0.800188171	-1.4583255274	 5.053262858	 0.131564
H	-0.5593947963	-2.3220559053	 4.308757187	 0.12916
78.2031	151.5704	185.8285	205.8794	240.4017	279.1017	352.4544	362.3739	474.1619	548.2251	610.5145	644.8658	754.5996	773.5667	790.4863	827.4358	863.7884	883.7745	922.6482	931.5272	956.9823	966.2731	990.6343	1028.903	1061.7265	1089.8538	1102.7069	1114.0261	1139.7554	1156.6127	1227.2407	1230.9684	1237.0431	1307.8062	1322.6591	1383.5425	1403.7639	1406.3071	1461.3851	1474.4269	1476.1027	1487.7993	1497.1893	1502.8108	1509.0266	3029.1747	3034.4471	3040.9912	3043.9672	3065.3655	3099.5352	3103.8939	3109.0074	3113.2942	3123.4011	3190.4384	3203.8693
CCC12CC3C1C3(C)O2	CC[C@]12C[C@@H]3[C@H]1[C@]3(C)O2	
InChI=1S/C8H12O/c1-3-8-4-5-6(8)7(5,2)9-8/h5-6H,3-4H2,1-2H3	InChI=1S/C8H12O/c1-3-8-4-5-6(8)7(5,2)9-8/h5-6H,3-4H2,1-2H3/t5-,6+,7-,8+/m1/s1
