15
gdb 19656	4.71272	2.09849	1.95824	2.9921	64.08	-0.2392	-0.02	0.2192	717.8747	0.12166	-362.610289	-362.604758	-362.603814	-362.63975	22.71	
O	-0.0551067039	-0.0035478626	-0.1050878325	-0.322932
C	-0.04101648	 1.181758313	 0.0482481105	 0.447618
C	-1.0655057	 2.3245238173	 0.0061245085	-0.188241
C	-0.7131633029	 2.9643018567	 1.3713926136	-0.171803
N	 0.714942322	 3.3390067167	 1.0895462227	-0.145116
C	 0.491506673	 4.2994755716	-0.0628350016	-0.185651
C	 0.0263961589	 3.0916083586	-0.8693762361	-0.049455
C	 1.03289462	 2.2611882663	 0.023056911	-0.129396
H	-2.0997377684	 2.1866350721	-0.2975843903	 0.092414
H	-1.2939595841	 3.8547320999	 1.6209521228	 0.112705
H	-0.7724044807	 2.2584557773	 2.2046716965	 0.121101
H	-0.1924052846	 5.1274458331	 0.1480662321	 0.106219
H	 1.4509802706	 4.6920053853	-0.4082199932	 0.118285
H	-0.0413266064	 3.0134010835	-1.9530609857	 0.092928
H	 2.0913683565	 2.1119611012	-0.1713050782	 0.101327
155.9217	329.195	460.0782	518.9322	553.3448	668.7456	725.6338	777.7384	780.5719	818.2375	851.415	908.9535	911.88	949.0938	983.0357	988.4831	1038.3275	1041.2433	1080.3903	1100.7345	1136.6865	1169.5872	1197.0584	1200.281	1222.7526	1236.8381	1266.1042	1277.8813	1324.6093	1506.6327	1529.7971	1893.6679	3049.8681	3062.7049	3109.5509	3115.43	3133.1512	3161.9862	3165.8526
O=C1C2CN3CC2C13	O=C1[C@H]2CN3C[C@H]2[C@H]13	
InChI=1S/C6H7NO/c8-6-4-2-7-1-3(4)5(6)7/h3-5H,1-2H2	InChI=1S/C6H7NO/c8-6-4-2-7-1-3(4)5(6)7/h3-5H,1-2H2/t3-,4+,5-/m1/s1
