21
gdb 58688	3.10308	0.97557	0.86258	2.7954	78.84	-0.247	-0.0245	0.2225	1420.5903	0.179078	-424.219215	-424.209	-424.208056	-424.255025	36.956	
C	-0.0053692153	 1.4954845161	 0.6286193432	-0.392537
C	-0.0511603975	 0.1049477126	-0.0310828189	-0.02821
C	 1.0314266461	-0.7989916875	 0.5725836762	-0.412908
C	-1.4639024654	-0.4811936143	 0.0714017781	 0.387164
C	-2.5025371151	 0.1877505864	-0.826994945	-0.359476
C	-3.9281031322	-0.2779768578	-0.6074346919	 0.144601
O	-4.6924195933	-0.5509078367	-1.4982260812	-0.247635
C	-1.7158494473	-1.861254217	 0.5194948151	-0.236149
O	-1.9129389934	-0.7554417171	 1.4090912097	-0.271316
H	 0.9975870123	 1.9239714015	 0.5446853514	 0.115676
H	-0.7016016878	 2.2023357255	 0.1681016532	 0.1143
H	-0.2561239503	 1.4176553689	 1.6911091987	 0.136021
H	 0.1606932947	 0.2242887037	-1.1024648927	 0.078798
H	 0.8100145761	-1.0206137042	 1.6216617474	 0.134562
H	 1.1268123416	-1.7439318827	 0.0301589066	 0.114912
H	 2.0029449332	-0.2975847983	 0.5356822403	 0.11484
H	-2.4985144012	 1.2693865399	-0.6308587229	 0.131864
H	-2.247086275	 0.0469219476	-1.8817929862	 0.12915
H	-4.2358944664	-0.3287415018	 0.4578995614	 0.103569
H	-2.626075073	-2.3694749698	 0.1998649662	 0.121364
H	-0.8946377506	-2.522776905	 0.7790817212	 0.121409
58.6072	65.4907	72.7895	185.3962	203.6666	249.7076	273.5608	293.4942	335.0421	366.0561	421.263	462.2906	482.2374	590.1414	677.5041	793.896	830.4135	884.3928	919.462	930.0941	947.1377	972.0769	1048.7127	1072.3991	1110.0329	1124.3807	1133.1257	1161.3484	1177.4108	1207.026	1232.8866	1316.4337	1336.8293	1373.0123	1386.2334	1400.2978	1416.7215	1423.8693	1451.7528	1490.7147	1493.8934	1506.3138	1515.3237	1538.4211	1828.1972	2919.7119	3013.9554	3020.9574	3037.5161	3042.4303	3087.6115	3092.2639	3107.2963	3110.8603	3111.326	3116.9556	3185.1433
CC(C)C1(CC=O)CO1	CC(C)[C@@]1(CC=O)CO1	
InChI=1S/C7H12O2/c1-6(2)7(3-4-8)5-9-7/h4,6H,3,5H2,1-2H3	InChI=1S/C7H12O2/c1-6(2)7(3-4-8)5-9-7/h4,6H,3,5H2,1-2H3/t7-/m1/s1
