19
gdb 42095	3.81152	1.26055	1.22663	0.5447	77.39	-0.244	0.0185	0.2625	1106.1392	0.160653	-423.042555	-423.034755	-423.033811	-423.075878	29.766	
C	 0.1027769954	 1.5360462922	 0.3887613105	-0.103494
C	 1.5898326859	 1.8497456726	 0.2613886726	-0.097572
O	 2.1728605124	 0.5560607116	 0.2534049799	-0.301829
C	 1.214746657	-0.3690655647	-0.2750718168	 0.466732
C	 1.6098071037	-0.9435049589	-1.6568194563	-0.280617
C	 2.08083919	-2.3940731604	-1.4003305889	-0.263397
C	 1.6208160899	-2.6687782581	 0.0114751759	-0.06603
C	 1.14966349	-1.5836934182	 0.6185928444	-0.111654
O	-0.0160842882	 0.3444561201	-0.3713060735	-0.298027
H	-0.1814202828	 1.3727582348	 1.439187258	 0.097409
H	-0.555043934	 2.2931887631	-0.0456267633	 0.111585
H	 1.8021188323	 2.3893480371	-0.6737726639	 0.096964
H	 2.0013670422	 2.4153748695	 1.1016944542	 0.110379
H	 0.7203962847	-0.9312667783	-2.2908796799	 0.119544
H	 2.3714288669	-0.3163161108	-2.1241784442	 0.107945
H	 1.6572766073	-3.1051692603	-2.1188056959	 0.107012
H	 3.1710245043	-2.4937616791	-1.4778189384	 0.114735
H	 1.6974852227	-3.6526135693	 0.4624692461	 0.097338
H	 0.7856206004	-1.514985743	 1.6365445397	 0.092975
39.6894	69.6133	198.5094	263.4662	332.3649	433.3273	453.4332	495.9903	650.3079	708.8359	751.953	765.6617	800.0315	838.7447	906.8852	923.064	934.6595	952.7977	977.9451	992.2079	1055.4489	1065.7354	1078.4568	1106.0945	1149.7183	1168.2759	1180.5465	1206.1106	1228.9164	1246.0941	1253.8898	1287.5919	1325.1727	1370.6392	1383.4343	1388.063	1468.5428	1492.8883	1512.6601	1519.4901	1689.6196	2986.6721	2996.5247	3026.5536	3055.4224	3075.7091	3090.4348	3097.6931	3126.4364	3182.1891	3214.1967
C1COC2(CCC=C2)O1	C1COC2(CCC=C2)O1	
InChI=1S/C7H10O2/c1-2-4-7(3-1)8-5-6-9-7/h1,3H,2,4-6H2	InChI=1S/C7H10O2/c1-2-4-7(3-1)8-5-6-9-7/h1,3H,2,4-6H2
