23
gdb 69513	2.25044	1.62695	1.29783	0.4131	89.8	-0.1955	0.0882	0.2836	1147.6056	0.204075	-351.102804	-351.093331	-351.092387	-351.136034	37.528	
C	-0.0169151301	 1.5323855845	 0.0842807292	-0.492766
C	 0.010541129	 0.0312165943	 0.012668569	 0.3122
C	-0.9165254014	-0.837252364	 0.8228761425	-0.361074
C	 0.5742169034	-0.9673308056	 1.0112751973	-0.158576
C	 1.3149048885	-1.7169492694	-0.1342233218	 0.317357
C	 2.7185553448	-2.2190479515	 0.044092685	-0.493705
C	 0.3769283398	-2.2061516467	-1.2082368778	-0.412779
C	 0.7354465065	-0.7382753994	-1.1497330944	 0.248305
C	 1.3998304399	-0.0249816633	-2.2946455073	-0.494939
H	 0.9707179638	 1.9703321139	-0.0988077369	 0.115614
H	-0.709088211	 1.9610249007	-0.6514582321	 0.116623
H	-0.3444314322	 1.8636218051	 1.0751036245	 0.114827
H	-1.4145099491	-0.3066218771	 1.6305427918	 0.103893
H	-1.5283932958	-1.6253106032	 0.3984526036	 0.107031
H	 1.0508945374	-0.7624509094	 1.9632208705	 0.079214
H	 2.7450379057	-3.1017059237	 0.69594813	 0.118077
H	 3.1654261154	-2.5045977659	-0.9136683972	 0.114132
H	 3.3621887404	-1.4563605448	 0.4992739942	 0.113494
H	 0.8769505464	-2.7372225599	-2.0149920355	 0.101015
H	-0.6157104139	-2.5932899252	-1.0062908319	 0.104477
H	 0.6631294373	 0.3665105353	-3.0075815803	 0.117695
H	 2.0091501662	 0.8199134459	-1.9550871339	 0.115174
H	 2.0576289689	-0.7041005707	-2.8466722784	 0.114713
126.9474	166.0913	186.6336	199.7019	205.0367	270.2188	296.4988	328.5829	380.5909	457.6843	474.2525	491.1722	550.4318	609.0134	680.1793	776.9405	802.	849.4459	873.2331	927.6271	951.4523	960.7495	977.3488	981.1323	1014.7013	1046.1616	1058.7565	1086.0975	1089.652	1106.0844	1115.5313	1160.9178	1201.7038	1223.7921	1296.2013	1313.233	1362.9823	1397.8718	1410.6346	1420.6944	1426.5558	1479.251	1484.7673	1486.0179	1494.5824	1495.8931	1504.1691	1509.434	1523.323	3013.0101	3015.5675	3020.6795	3066.6115	3070.811	3077.8671	3091.9831	3093.8519	3097.0987	3113.1028	3125.542	3171.2351	3189.2792	3199.7889
CC12CC1C1(C)CC21C	C[C@]12C[C@H]1[C@@]1(C)C[C@@]21C	
InChI=1S/C9H14/c1-7-4-6(7)8(2)5-9(7,8)3/h6H,4-5H2,1-3H3	InChI=1S/C9H14/c1-7-4-6(7)8(2)5-9(7,8)3/h6H,4-5H2,1-3H3/t6-,7+,8-,9+/m1/s1
