19
gdb 72391	2.61021	1.94225	1.38195	1.2624	78.96	-0.2334	0.0221	0.2554	971.977	0.161155	-385.865615	-385.858386	-385.857442	-385.896725	30.285	
O	-0.0810220101	 1.3351633988	-0.0851640422	-0.477682
C	-0.0437747386	-0.072028398	-0.012991415	 0.41805
C	 1.0291969817	-0.6991702165	-0.9006417325	-0.360074
C	 0.6383231845	-2.0307408066	-1.4915207668	-0.0511
C	-0.4295763858	-2.7109169653	-1.0786152326	-0.066612
C	-1.2734812229	-2.1934636317	 0.0533374583	-0.088693
C	-0.52080733	-2.1124897119	 1.4405398675	-0.2514
C	-0.5256584247	-0.5904851756	 1.3323786322	-0.122954
C	-1.4141493901	-0.6539245636	 0.0836656391	-0.111426
H	 0.6801717959	 1.6734121137	 0.3991533282	 0.280012
H	 1.2233385757	 0.012558094	-1.7132831352	 0.117695
H	 1.9815263821	-0.7929776817	-0.3558898418	 0.102898
H	 1.2717821594	-2.4166153062	-2.2859701628	 0.086755
H	-0.6794377618	-3.6709622113	-1.521376743	 0.083869
H	-2.2258437665	-2.7189267418	 0.1275043989	 0.074266
H	-1.1550479464	-2.4597382413	 2.2605778984	 0.103093
H	 0.4464753534	-2.6211536288	 1.4989814529	 0.093466
H	-0.5886907311	 0.1060491701	 2.1607840704	 0.078783
H	-2.2960926748	-0.0828178963	-0.1772592241	 0.091053
140.4438	261.1374	281.4848	309.562	391.7201	426.6804	467.7187	509.6955	525.7069	635.821	708.9727	715.7595	823.0986	839.6024	866.0024	873.9183	932.6535	950.317	973.8829	990.1834	1006.4707	1015.3863	1032.3474	1044.9628	1072.8811	1109.3447	1157.3624	1177.4441	1214.6776	1228.6174	1238.8169	1249.1643	1270.4047	1316.2479	1330.9538	1366.4672	1405.1319	1441.0828	1473.5383	1493.5512	1716.5804	2986.2365	3037.5395	3045.0307	3092.688	3105.6983	3150.3358	3171.4397	3174.6875	3195.3043	3794.2585
OC12CC=CC3CC1C23	O[C@@]12CC=C[C@H]3C[C@@H]1[C@@H]23	
InChI=1S/C8H10O/c9-8-3-1-2-5-4-6(8)7(5)8/h1-2,5-7,9H,3-4H2	InChI=1S/C8H10O/c9-8-3-1-2-5-4-6(8)7(5)8/h1-2,5-7,9H,3-4H2/t5-,6+,7-,8-/m0/s1
