17
gdb 30209	4.58506	1.23934	1.01334	2.1742	74.63	-0.2045	0.0221	0.2266	1150.8974	0.137797	-421.850727	-421.843414	-421.84247	-421.882638	28.658	
C	 0.1416793079	 1.5447547641	 0.0820085203	-0.401506
C	 0.0725215458	 0.0339523022	-0.0214814305	 0.12639
C	 0.7911992185	-0.5844393111	-1.2683057821	-0.404595
C	 1.4396664879	-1.7881020527	-0.6559450615	 0.165894
C	 2.1261048668	-2.9342744051	-0.8794528982	-0.142028
O	 2.4491867368	-3.5177652956	 0.3097769913	-0.161456
C	 1.9622632286	-2.7227941937	 1.3268812312	-0.166153
C	 1.3441197446	-1.6599527708	 0.7577218846	 0.291117
O	 0.6955693255	-0.5437339381	 1.1683013051	-0.294077
H	 1.1827252261	 1.8818666095	 0.0868921905	 0.128096
H	-0.3699020455	 2.0052833701	-0.7691881419	 0.120753
H	-0.3391580178	 1.8917721103	 1.0005247922	 0.132239
H	-0.9740685187	-0.2984846887	-0.0135505901	 0.091405
H	 0.0731495098	-0.8037068724	-2.0631498544	 0.122249
H	 1.5300945472	 0.1168598545	-1.6758429534	 0.119731
H	 2.4529094183	-3.4642372058	-1.758603818	 0.136177
H	 2.144630068	-3.0656471567	 2.3288517448	 0.135764
67.8116	225.5308	240.4464	289.7418	323.3822	440.5261	486.9605	584.4536	589.9228	662.1117	701.3633	721.6353	754.7992	779.3607	824.2688	900.6875	925.4539	939.2759	1035.8684	1058.9978	1101.84	1127.5592	1148.6874	1173.3567	1209.7609	1244.5393	1277.639	1311.1043	1359.8895	1380.4219	1408.9675	1427.1728	1483.8437	1490.3445	1498.3591	1614.1176	1692.4515	3012.6928	3028.0602	3041.6774	3087.7792	3114.8538	3122.7087	3274.1281	3301.3109
CC1CC2=COC=C2O1	C[C@H]1Cc2cocc2O1	
InChI=1S/C7H8O2/c1-5-2-6-3-8-4-7(6)9-5/h3-5H,2H2,1H3	InChI=1S/C7H8O2/c1-5-2-6-3-8-4-7(6)9-5/h3-5H,2H2,1H3/t5-/m0/s1
