16
gdb 10153	2.87559	1.30355	0.95007	2.8451	68.54	-0.2555	-0.0381	0.2174	1210.924	0.125992	-383.698481	-383.689038	-383.688094	-383.733614	31.98	
C	-0.2522543762	 1.6743780812	-0.2710573438	-0.38638
C	-0.3688925726	 0.1828494598	-0.527935982	-0.039849
O	-1.0613243652	-0.4012281819	 0.5703821409	-0.247475
C	-1.2218561837	-1.8001933483	 0.4822454176	-0.119894
C	-1.8196615982	-2.2284514877	 1.8349188368	 0.15744
O	-1.5472118694	-3.2524547162	 2.3941054757	-0.233368
C	-2.1335423769	-2.2171663354	-0.5887482721	 0.327028
C	-2.9140942378	-2.5574468914	-1.4374901361	-0.470879
H	 0.279066656	 2.1579472032	-1.096036647	 0.120388
H	-1.2436602679	 2.1274093569	-0.1837504473	 0.131483
H	 0.2964551263	 1.8655288609	 0.6553561695	 0.129741
H	-0.915234954	-0.0144059905	-1.4610213884	 0.107898
H	 0.6273060835	-0.2779768151	-0.6237010835	 0.093911
H	-0.2542192272	-2.3124919939	 0.3659442574	 0.11582
H	-2.5340865725	-1.4815607843	 2.2397486741	 0.104043
H	-3.5932980641	-2.8639227771	-2.194909702	 0.210094
59.692	72.7807	90.5547	137.2393	171.9004	223.4422	251.3955	349.4159	377.8971	465.4645	500.3646	638.12	640.8004	684.4805	822.8307	878.9266	906.6882	1018.4979	1056.3265	1063.8157	1130.5245	1154.1899	1187.7781	1263.675	1298.2357	1329.0442	1392.8368	1402.5985	1433.8575	1483.4374	1500.4046	1527.5734	1851.0359	2225.9518	2923.3215	2978.2957	2991.9709	3025.3801	3046.8932	3121.9232	3124.688	3499.7443
CCOC(C=O)C#C	CCO[C@@H](C=O)C#C	
InChI=1S/C6H8O2/c1-3-6(5-7)8-4-2/h1,5-6H,4H2,2H3	InChI=1S/C6H8O2/c1-3-6(5-7)8-4-2/h1,5-6H,4H2,2H3/t6-/m1/s1
