23
gdb 117084	2.7827	0.97906	0.87199	1.8864	82.88	-0.2596	0.0203	0.2799	1503.5934	0.202055	-425.481987	-425.470567	-425.469623	-425.52001	40.657	
C	-0.1929661282	 1.5049270501	 0.013661577	-0.392344
C	-0.0424565184	-0.0040471965	 0.0018617555	-0.04083
O	-1.364474834	-0.5761671495	 0.0121728227	-0.254102
C	-1.4242904201	-1.9255125598	 0.0050210636	 0.454487
O	-0.4419427497	-2.6254338286	-0.0091492098	-0.371374
C	-2.8734016444	-2.4225298004	 0.0167144599	 0.128181
C	-2.8688313279	-3.9577377922	 0.0096232993	-0.398283
C	-3.5727350335	-1.8959449625	 1.2882623378	-0.408757
C	-3.5964783704	-1.8843935342	-1.2366350837	-0.408751
H	 0.7943791192	 1.9763516299	 0.0061577502	 0.123106
H	-0.745756821	 1.8500448939	-0.8647206125	 0.128762
H	-0.7265645545	 1.8380671034	 0.90838358	 0.128767
H	 0.4894511799	-0.3565945559	-0.8876361436	 0.121043
H	 0.5083769546	-0.3685322955	 0.874859597	 0.121102
H	-2.34818888	-4.3556235701	 0.8843031751	 0.122748
H	-3.8974555361	-4.3324357712	 0.0173057001	 0.103869
H	-2.3642254294	-4.3475031696	-0.8779961475	 0.122832
H	-3.5777641132	-0.8040180466	 1.3138408309	 0.127389
H	-4.6092565864	-2.2478721801	 1.3138187509	 0.113886
H	-3.0737511594	-2.258290111	 2.1931249204	 0.118471
H	-3.1148411844	-2.238698468	-2.15399048	 0.11852
H	-4.6334407891	-2.2358260189	-1.2457220691	 0.113911
H	-3.6015587038	-0.7922679166	-1.2522527242	 0.127368
12.2544	57.3098	112.4827	136.5035	193.4876	228.3318	257.1949	258.3116	282.2646	293.121	319.0042	352.7205	377.7709	385.6842	502.9571	588.2754	775.2588	805.6901	806.8077	878.8598	917.3766	941.4957	948.1524	968.1683	1040.6107	1050.237	1063.3194	1134.5297	1182.8551	1187.7458	1229.3082	1249.7837	1289.5193	1304.0754	1392.5276	1394.8023	1403.3135	1419.0083	1434.4764	1474.9183	1482.7668	1485.9859	1489.8185	1495.6256	1498.0148	1502.4657	1519.1605	1522.7743	1808.402	3034.325	3036.2112	3044.4437	3045.2425	3049.6908	3086.6658	3099.4256	3101.306	3114.7529	3119.3691	3124.2752	3124.6615	3126.3049	3129.6536
CCOC(=O)C(C)(C)C	CCOC(=O)C(C)(C)C	
InChI=1S/C7H14O2/c1-5-9-6(8)7(2,3)4/h5H2,1-4H3	InChI=1S/C7H14O2/c1-5-9-6(8)7(2,3)4/h5H2,1-4H3
