18
gdb 30646	3.96556	0.98991	0.85854	2.0174	73.52	-0.2398	0.0047	0.2445	1342.5154	0.147726	-439.116309	-439.107338	-439.106394	-439.151363	32.173	
C	-0.3455790536	 1.3425233342	 0.0664669176	-0.411617
C	 0.0746901157	-0.1355695237	-0.0457535025	-0.113583
C	 0.8848719952	-0.4129737384	-1.3256235343	-0.074327
O	 0.1400126396	-0.1260241626	-2.4986021304	-0.421981
C	 0.849655434	-0.5697183024	 1.1558956468	 0.411315
N	 2.109354338	-0.8631488201	 1.2490276764	-0.315152
C	 2.300906605	-1.1831739492	 2.5886557469	-0.116595
C	 1.1250701408	-1.061107894	 3.2429928906	-0.045515
O	 0.1795156045	-0.6675736264	 2.3366897729	-0.183972
H	 0.5326236799	 1.9973748009	 0.090757726	 0.123512
H	-0.9697984131	 1.6213510218	-0.7873698723	 0.117374
H	-0.9246774869	 1.5183196367	 0.9763877443	 0.133552
H	-0.8387602308	-0.7421504589	-0.0939601867	 0.107569
H	 1.8301906594	 0.1446695289	-1.293948657	 0.110532
H	 1.1407295004	-1.4747309773	-1.372227236	 0.123315
H	 0.161091732	 0.8239249964	-2.6434819918	 0.286421
H	 3.2654088814	-1.4754274892	 2.9719770722	 0.124189
H	 0.7931150585	-1.2016719468	 4.2569107773	 0.144964
21.8924	95.6521	141.6671	179.7123	223.8017	286.8497	298.6227	365.2108	404.5606	467.947	631.158	718.413	753.9794	773.6314	863.1786	871.3121	914.0244	934.227	951.1149	1054.1494	1066.3287	1091.8353	1105.273	1123.012	1142.6006	1167.518	1191.6632	1248.0519	1314.3202	1346.9232	1377.8142	1396.7161	1405.6386	1420.9869	1493.2266	1499.9282	1507.4526	1557.1491	1611.931	3020.4941	3032.5633	3037.9745	3099.5635	3109.0969	3122.193	3264.3141	3301.2568	3837.4086
CC(CO)C1=NC=CO1	C[C@@H](CO)c1ncco1	
InChI=1S/C6H9NO2/c1-5(4-8)6-7-2-3-9-6/h2-3,5,8H,4H2,1H3	InChI=1S/C6H9NO2/c1-5(4-8)6-7-2-3-9-6/h2-3,5,8H,4H2,1H3/t5-/m0/s1
