17
gdb 55306	2.50454	1.50337	1.0753	2.6369	68.8	-0.2336	0.0275	0.2611	1114.2554	0.135444	-455.120807	-455.111991	-455.111046	-455.155015	32.126	
N	-0.4105115929	 1.4010595303	-0.1359191389	-0.523874
C	 0.0440106823	 0.1102352541	-0.0679100566	 0.370791
O	 1.2089508622	-0.1945522839	-0.1929959334	-0.344086
C	-1.0819285471	-0.8897064449	 0.1782532426	-0.154565
N	-0.6960622192	-2.2678772698	 0.5267764393	-0.30652
C	-1.7986902784	-2.3786001052	 1.5178115336	-0.251747
C	-1.8697660609	-0.8508517688	 1.498266927	 0.412512
C	-1.837908274	 0.1099392245	 2.5955642825	-0.251065
O	-2.9936593727	-0.0422977239	 1.738787739	-0.27293
H	 0.2452064122	 2.1330161509	-0.35458348	 0.262631
H	-1.3916112138	 1.6212266613	-0.0915508306	 0.265943
H	-1.7977094243	-0.8155674126	-0.658802264	 0.09075
H	-0.7182703655	-2.9317647325	-0.2374384517	 0.228901
H	-2.7277933807	-2.8265912242	 1.1370230831	 0.105602
H	-1.5185137441	-2.867486067	 2.4561800611	 0.116042
H	-1.9737613876	-0.2413501113	 3.6167903816	 0.124722
H	-1.2988609855	 1.0475365131	 2.4837850453	 0.126893
43.6979	95.1036	144.8132	187.6874	229.3307	310.6541	347.9929	383.1009	452.2551	530.2689	575.7052	613.3783	675.796	741.2533	855.2355	874.9693	905.7472	912.0383	983.6042	1016.1402	1076.6632	1083.1477	1103.7814	1121.1533	1136.3363	1164.519	1181.1757	1219.188	1280.2348	1312.3774	1371.2499	1402.0983	1448.9111	1512.4272	1539.7369	1616.2442	1819.8322	2951.7351	3001.5942	3071.751	3096.0944	3189.5794	3554.695	3591.3096	3728.3709
NC(=O)C1NCC11CO1	NC(=O)[C@H]1NC[C@]21CO2	
InChI=1S/C5H8N2O2/c6-4(8)3-5(1-7-3)2-9-5/h3,7H,1-2H2,(H2,6,8)	InChI=1S/C5H8N2O2/c6-4(8)3-5(1-7-3)2-9-5/h3,7H,1-2H2,(H2,6,8)/t3-,5-/m1/s1
