16
gdb 133652	2.54766	1.33781	1.05528	2.0714	60.76	-0.2311	0.0037	0.2347	1137.8637	0.120012	-565.569258	-565.5598	-565.558856	-565.604017	33.132	
C	 0.1027159376	 1.4462558451	 0.008327602	-0.32623
N	 0.1194705782	-0.0101758418	 0.0052586202	-0.09234
C	-0.2321377016	-0.6492546471	 1.2658455285	-0.345838
C	 0.0150678546	-0.6211014237	-1.2160915455	 0.23004
N	-0.0266051281	 0.0437336799	-2.3074128897	-0.537883
C	-0.0175795313	-2.1591819085	-1.2112901627	 0.230263
F	 0.012822928	-2.6377932521	-2.4572876056	-0.061787
F	 1.0274684372	-2.6871051122	-0.5538945336	-0.072102
F	-1.1366672795	-2.6260069053	-0.63183683	-0.076296
H	 0.6799083689	 1.8160431962	-0.8385341296	 0.164194
H	-0.9171553107	 1.8463849449	-0.0792792384	 0.125732
H	 0.5420316572	 1.8009173806	 0.9441531044	 0.119103
H	-1.3087846956	-0.5880797974	 1.479804651	 0.12654
H	 0.0668691534	-1.6945114192	 1.2796072264	 0.155688
H	 0.3032353018	-0.1392980229	 2.0714284479	 0.129512
H	-0.0216627601	-0.5837748064	-3.1067024251	 0.231404
73.0916	94.2888	122.3175	154.7707	199.7795	225.2345	288.1808	348.5061	373.9382	423.5563	467.768	523.2045	585.0532	670.2265	739.8115	761.2706	838.7298	917.034	1086.7624	1096.4569	1126.7744	1172.0789	1175.5577	1204.4006	1232.5985	1274.4906	1319.7145	1442.1805	1460.664	1474.0215	1490.2237	1499.1782	1508.9402	1534.3533	1700.1493	3003.5584	3012.2964	3089.3887	3093.3035	3157.6956	3178.0693	3539.5762
CN(C)C(=N)C(F)(F)F	CN(C)C(=N)C(F)(F)F	
InChI=1S/C4H7F3N2/c1-9(2)3(8)4(5,6)7/h8H,1-2H3	InChI=1S/C4H7F3N2/c1-9(2)3(8)4(5,6)7/h8H,1-2H3
