18
gdb 86892	3.21126	1.08654	0.92004	2.9508	72.18	-0.2747	0.0322	0.3069	1259.537	0.147923	-439.103182	-439.094177	-439.093233	-439.137373	33.236	
O	 0.0617175441	 1.4308326396	-0.4196011948	-0.431443
C	-0.1229818318	 0.054594726	-0.1876724962	 0.146657
C	 0.6389476394	-0.5095567092	 1.034225332	-0.269784
C	-0.253173972	-1.6827172169	 1.5644554451	-0.122662
C	-1.501438288	-1.7062662301	 0.6258937231	-0.257716
C	-1.5912259773	-0.2602414484	 0.1223934489	 0.084052
O	-2.0081407312	 0.6208157616	 1.1543530818	-0.426314
C	 0.4363620363	-2.9671326331	 1.6135558042	 0.258391
N	 0.9843336167	-3.9851361566	 1.6390306608	-0.330048
H	 0.9805284724	 1.5731230436	-0.666716523	 0.287618
H	 0.1428344527	-0.5310183737	-1.0823594907	 0.074515
H	 1.6477447404	-0.8418456271	 0.7811068078	 0.117089
H	 0.712920136	 0.2744977835	 1.7900210856	 0.134081
H	-0.580332745	-1.4455942855	 2.5797792419	 0.135522
H	-1.3397709727	-2.3924935123	-0.2112792222	 0.125566
H	-2.4047332952	-2.0299540141	 1.1491646843	 0.109406
H	-2.2257053332	-0.1584317183	-0.7676031097	 0.077214
H	-2.9361431314	 0.4464024211	 1.3383727211	 0.287855
38.8095	143.5856	167.6549	238.4823	243.4864	255.7622	266.3029	360.6973	395.0749	471.9034	558.2677	574.7295	628.5008	684.0222	815.5213	860.9047	891.04	936.166	961.5657	1034.1205	1050.0512	1053.6991	1087.3524	1132.5538	1174.4859	1182.0163	1236.3921	1254.8973	1283.7461	1289.7179	1302.2238	1330.8135	1348.3448	1369.8069	1416.3383	1459.2958	1484.554	1495.1637	2353.9433	2970.6431	3022.5128	3060.4345	3074.7331	3079.0556	3109.0864	3130.9002	3825.524	3825.743
OC1CC(CC1O)C#N	O[C@H]1C[C@@H](C[C@H]1O)C#N	
InChI=1S/C6H9NO2/c7-3-4-1-5(8)6(9)2-4/h4-6,8-9H,1-2H2	InChI=1S/C6H9NO2/c7-3-4-1-5(8)6(9)2-4/h4-6,8-9H,1-2H2/t4-,5-,6+
