19
gdb 81712	2.70424	1.59316	1.333	0.7999	70.28	-0.2412	0.0735	0.3147	1016.6704	0.161359	-460.137216	-460.129722	-460.128778	-460.168705	30.353	
O	 0.0408990915	 1.3401891747	 0.0432885437	-0.445821
C	 0.03015931	-0.0730069041	-0.0043009858	 0.118358
C	-1.4419710381	-0.5672688552	-0.0050210437	-0.04038
C	-1.3931312493	-0.5376075267	-1.5610107695	-0.277966
C	 0.1520248121	-0.6357508929	-1.4625962535	 0.085651
O	 0.7013473254	-1.941574834	-1.5179205872	-0.259547
C	-0.0668207121	-2.9852142106	-0.9695038291	 0.014391
O	-0.424624572	-2.7964571024	 0.3725441086	-0.23812
C	-1.5686025515	-1.9719124467	 0.5900959509	-0.110954
H	 0.9458325785	 1.6339363786	-0.1052328292	 0.284525
H	 0.7079069188	-0.5241739852	 0.7295018427	 0.079729
H	-2.1593708781	 0.1047811073	 0.4725016818	 0.081935
H	-1.934441922	-1.3003848771	-2.1253706812	 0.09982
H	-1.6751500834	 0.4469179971	-1.9373650493	 0.119324
H	 0.7432692768	-0.0336349454	-2.1576028689	 0.076402
H	-0.9688760614	-3.1703982853	-1.5758451238	 0.082719
H	 0.5837639251	-3.8619777435	-1.0028622793	 0.117691
H	-1.6658436601	-1.9128575231	 1.6780802693	 0.11655
H	-2.4697871702	-2.4678686054	 0.1950654337	 0.095693
171.3865	242.8339	257.8441	305.8309	323.5457	361.4547	400.0128	420.1001	449.1315	574.3515	648.7978	788.7082	821.1276	860.0648	897.0801	934.3963	951.8308	971.922	1016.5245	1021.8519	1080.5551	1094.0032	1110.4693	1123.028	1151.1328	1188.7035	1198.622	1217.2129	1252.291	1263.2668	1295.1474	1303.2986	1330.7516	1335.4523	1363.8872	1392.7554	1424.1049	1444.7701	1478.3683	1493.5883	1515.1021	2966.2325	2980.2772	3042.1028	3070.2552	3076.3346	3081.1027	3089.6339	3105.586	3130.8403	3810.5691
OC1C2CC1OCOC2	O[C@H]1[C@H]2C[C@@H]1OCOC2	
InChI=1S/C6H10O3/c7-6-4-1-5(6)9-3-8-2-4/h4-7H,1-3H2	InChI=1S/C6H10O3/c7-6-4-1-5(6)9-3-8-2-4/h4-7H,1-3H2/t4-,5-,6-/m0/s1
