19
gdb 73532	2.45517	2.10034	1.34686	1.5723	81.18	-0.2233	-0.0043	0.219	973.9563	0.160491	-385.822621	-385.815393	-385.814449	-385.853579	30.611	
O	 0.0565459946	 1.3049733408	 0.0427168617	-0.475402
C	 0.0065183589	-0.101244247	-0.0275281403	 0.426125
C	 1.0487186322	-0.7122146175	-0.9866092187	-0.291408
C	 0.3450136078	-1.7028457875	-1.975038328	-0.244125
C	-0.3402845643	-2.674535459	-1.0469146513	-0.130208
C	-1.1508136609	-2.1315298034	-0.1355817643	 0.148943
C	-0.9508077931	-2.2030650066	 1.3713660109	-0.292563
C	-0.6900531683	-0.671610048	 1.2530461772	-0.117017
C	-1.3844424481	-0.6248012888	-0.1006095006	-0.194723
H	 0.8483448716	 1.5471401241	 0.5349842046	 0.282246
H	 1.5057143064	 0.1207925167	-1.5329498091	 0.100546
H	 1.850805562	-1.2388366424	-0.4580773088	 0.099319
H	-0.3560142206	-1.1406227984	-2.6001035256	 0.117266
H	 1.0682520244	-2.1851868615	-2.6373921226	 0.096599
H	 0.1214766484	-3.6435479559	-0.8699130795	 0.088423
H	-1.8631512387	-2.3469429068	 1.9624322059	 0.107687
H	-0.163179194	-2.8668012334	 1.743080659	 0.094321
H	-0.8355354378	 0.0303728734	 2.0686009862	 0.086865
H	-2.2491964004	-0.0590680988	-0.4229463665	 0.097106
189.9531	269.7092	283.1162	318.3821	380.6372	417.0349	459.7602	468.5277	506.4532	612.0633	698.7208	729.4023	817.9384	841.9034	866.5618	881.7179	898.2621	906.2567	938.0246	973.7073	997.318	1008.5018	1049.8919	1067.1895	1074.5949	1098.1968	1136.7514	1185.384	1189.0432	1213.8386	1236.7737	1242.1801	1282.7743	1304.5717	1328.5504	1347.8008	1403.847	1481.6591	1487.0606	1494.5748	1691.3778	3024.0416	3033.0196	3051.8128	3077.1548	3078.4224	3102.7576	3149.6374	3156.483	3194.804	3799.3898
OC12CCC=C3CC1C23	O[C@@]12CC[CH][C]3C[C@@H]1[C@@H]23	
InChI=1S/C8H10O/c9-8-3-1-2-5-4-6(8)7(5)8/h2,6-7,9H,1,3-4H2	InChI=1S/C8H10O/c9-8-3-1-2-5-4-6(8)7(5)8/h2,6-7,9H,1,3-4H2/t6-,7+,8+/m1/s1
