18
gdb 16532	2.81101	2.30698	1.75196	2.4567	66.33	-0.2452	0.0562	0.3015	828.9734	0.154665	-384.90333	-384.895972	-384.895028	-384.934976	28.349	
C	-0.5494316698	 1.4236497304	-0.141271894	-0.404498
C	-0.065135665	-0.0104812509	 0.0071544848	-0.030261
C	 1.1531175106	-0.4737383301	-0.8868966334	 0.118648
O	 1.8351476566	 0.4964608929	-1.6296646817	-0.430585
C	 1.8963436593	-0.9259667785	 0.4000432071	 0.069522
O	 2.7426135728	 0.1487692531	 0.8781375661	-0.306451
C	 1.7300078955	 0.5690303828	 1.8358449941	-0.088328
C	 0.7137413474	-0.4443739261	 1.2877259963	-0.096142
H	 0.2776796698	 2.1385462618	-0.1206293995	 0.118365
H	-1.0580858125	 1.5571260224	-1.1009869954	 0.125176
H	-1.2539513355	 1.6895771424	 0.6544464563	 0.109762
H	-0.9059557576	-0.6951403091	-0.1452741546	 0.073331
H	 0.8904070543	-1.2935805972	-1.5624119048	 0.080334
H	 2.4506561971	 0.9085910293	-1.0039927539	 0.28943
H	 2.3946519685	-1.8973549008	 0.4394088237	 0.075822
H	 2.0630113646	 0.361446691	 2.8597631499	 0.108903
H	 1.4921328827	 1.6342840246	 1.7468092702	 0.109874
H	 0.1920203612	-1.068600028	 2.0115332188	 0.077098
71.7534	171.5123	226.6457	266.4243	287.6811	445.2142	538.7744	540.564	574.1501	679.6977	747.6843	796.9836	842.0573	888.754	918.1538	953.9879	1000.135	1001.775	1028.9699	1041.2525	1113.2826	1140.4484	1153.573	1159.5532	1188.7828	1211.6598	1247.7786	1259.4257	1290.9469	1320.3259	1330.4313	1345.9694	1373.5998	1411.5835	1448.2719	1489.0756	1493.3982	1526.1029	3024.9416	3035.9688	3042.6965	3061.8243	3074.2726	3083.479	3101.7456	3112.8076	3122.0041	3704.1601
CC1C(O)C2OCC12	C[C@H]1[C@@H](O)[C@H]2OC[C@@H]12	
InChI=1S/C6H10O2/c1-3-4-2-8-6(4)5(3)7/h3-7H,2H2,1H3	InChI=1S/C6H10O2/c1-3-4-2-8-6(4)5(3)7/h3-7H,2H2,1H3/t3-,4+,5-,6+/m1/s1
