16
gdb 36178	3.40162	1.41944	1.14839	2.4533	71.74	-0.2485	0.0232	0.2717	1042.2468	0.124215	-400.668745	-400.661434	-400.660489	-400.701102	28.014	
N	-0.7150875708	-0.0866446415	 1.3182248678	-0.311917
C	-0.1700534916	 0.3823347169	 0.4140331431	 0.276979
C	 0.5264408868	 0.9804987674	-0.7217836723	-0.493431
C	 1.6375282831	 1.914912129	-0.3052176733	 0.477257
O	 2.3776528641	 2.552889545	-1.3846742925	-0.359836
C	 2.991161625	 3.0573491722	-0.1570339675	 0.079897
C	 1.648009766	 3.1729812697	 0.6277319117	-0.123326
C	 2.2095805586	 2.3739450199	 1.8249116669	-0.288421
C	 2.8902661311	 1.7033136081	 0.6108254286	-0.123285
H	 0.9443161019	 0.1851980673	-1.3497635563	 0.170387
H	-0.1929501497	 1.5325254124	-1.337602851	 0.170412
H	 3.8198002844	 3.7586602245	-0.235082005	 0.105424
H	 0.9472843178	 4.0069858506	 0.5985732392	 0.090939
H	 2.8703900988	 2.9247580175	 2.4991293926	 0.104048
H	 1.5001141785	 1.7678011428	 2.3901529297	 0.133963
H	 3.595464656	 0.873977158	 0.5625134082	 0.09091
55.223	111.3835	269.5849	277.5968	388.9063	441.0855	469.1751	538.4293	672.5007	721.5133	776.693	824.9302	835.4347	874.5212	886.2632	924.823	955.7186	955.9944	1010.9431	1048.9311	1064.5768	1081.3675	1100.8866	1149.541	1161.5852	1184.7895	1216.549	1242.0272	1245.8256	1264.6535	1336.2011	1370.7026	1460.2576	1515.4373	2366.8616	3043.5013	3067.3425	3083.4145	3124.6856	3125.3915	3133.5947	3145.3289
N#CCC12OC3C1CC23	N#CC[C@@]12O[C@H]3[C@@H]1C[C@@H]23	
InChI=1S/C7H7NO/c8-2-1-7-4-3-5(7)6(4)9-7/h4-6H,1,3H2	InChI=1S/C7H7NO/c8-2-1-7-4-3-5(7)6(4)9-7/h4-6H,1,3H2/t4-,5+,6-,7+
