21
gdb 92536	3.00967	1.43147	1.18709	2.8018	77.3	-0.237	0.0576	0.2946	1119.5586	0.18367	-424.214192	-424.205739	-424.204795	-424.247041	32.99	
C	-0.6396701584	 1.391440953	 0.0294759604	-0.433105
C	 0.0151128387	 0.0120078855	 0.0105045705	 0.032341
C	 0.8636641725	-0.2928843656	-1.2486746221	-0.242487
C	 1.7047646201	-1.5134774331	-0.8375002195	-0.067392
C	 3.2351912033	-1.3869890207	-0.645983243	-0.082422
O	 3.1236886319	-1.5895432522	 0.7805175692	-0.278638
C	 1.6914110384	-1.5736302041	 0.7105055463	 0.130757
C	 0.9997415388	-0.2637506442	 1.1730537133	 0.052768
O	 1.9934220694	 0.7435443396	 1.2777823508	-0.420602
H	 0.1118237803	 2.1856072245	-0.0449704324	 0.115359
H	-1.3227107245	 1.51444069	-0.8170291412	 0.120686
H	-1.2198230263	 1.5518329821	 0.9455575449	 0.111781
H	-0.7743284549	-0.7511921844	 0.0813690244	 0.072365
H	 0.2414425499	-0.4753899403	-2.1291245074	 0.093328
H	 1.5055870583	 0.5659095043	-1.4727113366	 0.105581
H	 1.4031186353	-2.4316477587	-1.3434018248	 0.074406
H	 3.8493906564	-2.165022129	-1.1136888547	 0.097067
H	 3.6493865095	-0.3997009481	-0.8852324506	 0.104314
H	 1.2484105599	-2.4476475972	 1.2010166679	 0.073286
H	 0.4760922224	-0.3912900119	 2.1316583138	 0.055231
H	 1.5610526091	 1.5496809104	 1.5750771209	 0.285375
95.6587	117.3844	225.6347	239.78	275.1166	308.1744	313.2317	382.9071	459.7625	543.9109	599.4576	692.3965	786.5905	816.6403	832.1682	897.5144	906.8347	917.9676	956.3563	994.6085	1009.1255	1032.7198	1052.7075	1079.5212	1106.3393	1145.4815	1156.3408	1162.3386	1185.4014	1217.8119	1243.0763	1267.2982	1290.0097	1311.3163	1323.2725	1342.0363	1350.7033	1372.6823	1380.8277	1403.4102	1425.4602	1491.4205	1498.1483	1507.305	1517.615	2987.153	2999.6814	3017.0499	3024.6202	3041.4917	3047.3601	3063.2081	3085.5508	3089.7633	3097.23	3104.7539	3829.3702
CC1CC2COC2C1O	C[C@H]1C[C@H]2CO[C@H]2[C@H]1O	
InChI=1S/C7H12O2/c1-4-2-5-3-9-7(5)6(4)8/h4-8H,2-3H2,1H3	InChI=1S/C7H12O2/c1-4-2-5-3-9-7(5)6(4)8/h4-8H,2-3H2,1H3/t4-,5-,6-,7+/m0/s1
