25
gdb 112912	1.99707	1.35213	0.95006	1.0299	89.31	-0.2447	0.0773	0.3219	1398.4217	0.228663	-389.507907	-389.497594	-389.49665	-389.543477	38.645	
C	 0.4279630402	 1.0597677823	 0.5134620423	-0.233468
O	 0.275306231	-0.2933410085	 0.164813744	-0.246304
C	 0.5422864367	-0.5776837937	-1.2046567797	 0.122872
C	 2.064471798	-0.689954043	-1.4814794265	-0.244845
C	 2.4060063821	-2.21188974	-1.4875126211	 0.053509
C	 3.6624838559	-2.5705922591	-0.6940896263	-0.408224
C	 1.1181759223	-2.89445533	-0.984975615	-0.209789
C	-0.0069016366	-1.9864126036	-1.5056336861	 0.01258
C	-1.4027646456	-2.2713545007	-0.9574212539	-0.409521
H	 1.4608791321	 1.4176793939	 0.3832162495	 0.102445
H	-0.2336721809	 1.709283882	-0.0821233122	 0.101457
H	 0.1596081386	 1.1564156672	 1.5688218221	 0.12373
H	 0.060819786	 0.1926271784	-1.8265707743	 0.049431
H	 2.3341482502	-0.2173201514	-2.4310009806	 0.092913
H	 2.6201226496	-0.1645557694	-0.6982751553	 0.100867
H	 2.5617891708	-2.521265594	-2.529269105	 0.065968
H	 3.5570399699	-2.2752337442	 0.3563702856	 0.115323
H	 3.8566874353	-3.6485943753	-0.7195035095	 0.109276
H	 4.5478420065	-2.0649264608	-1.0951784439	 0.10836
H	 1.0277257129	-3.9305807029	-1.3262306206	 0.084449
H	 1.097676233	-2.9030485839	 0.1121152579	 0.102941
H	-0.0304036161	-2.0779085738	-2.6014975346	 0.066115
H	-1.4234502217	-2.1599066013	 0.1289337425	 0.130644
H	-2.1438592624	-1.582597961	-1.3779904931	 0.10482
H	-1.7167715478	-3.2901373172	-1.2076596563	 0.104452
33.7376	114.9787	134.4074	190.996	211.0659	227.1583	238.051	273.5376	333.3272	357.2361	416.9589	437.9077	505.4936	556.4584	666.7396	796.4333	844.7714	865.8568	898.2687	933.6553	949.1824	968.778	999.6069	1011.5406	1068.4101	1083.3192	1115.8788	1136.0587	1162.6508	1182.9564	1187.2619	1192.9047	1235.1326	1253.0637	1273.6606	1286.7076	1320.4211	1347.3779	1352.2093	1377.6239	1381.8329	1395.0788	1408.88	1409.9826	1477.5554	1480.5002	1488.2117	1490.7641	1494.9717	1498.3708	1499.8107	1502.7933	1511.7496	2967.9082	2978.0842	2999.6917	3008.2041	3014.536	3021.8345	3031.9448	3035.3098	3050.3531	3081.3077	3087.5976	3090.4467	3092.907	3094.4738	3107.0596	3127.4253
COC1CC(C)CC1C	CO[C@H]1C[C@@H](C)C[C@H]1C	
InChI=1S/C8H16O/c1-6-4-7(2)8(5-6)9-3/h6-8H,4-5H2,1-3H3	InChI=1S/C8H16O/c1-6-4-7(2)8(5-6)9-3/h6-8H,4-5H2,1-3H3/t6-,7+,8-/m0/s1
