17
gdb 35842	3.35354	1.2411	0.94117	3.8949	82.18	-0.2306	-0.0413	0.1894	1203.0897	0.138043	-380.873521	-380.865623	-380.864679	-380.906297	30.044	
N	-0.1631466718	-1.1258976835	-0.1874064221	-0.317038
C	-0.0543766146	 0.0142241765	-0.03719587	 0.259059
C	 0.0645480715	 1.4653467877	 0.1553562386	-0.16102
N	-0.7009147672	 1.8649224199	 1.3528542507	-0.31176
C	-1.2694807738	 3.2031538879	 1.274542313	-0.2241
C	-0.2775905675	 4.3153975808	 1.1032429735	-0.047275
C	 1.0387331564	 4.2693697628	 0.8475539648	-0.074939
C	 1.8973021471	 3.1201473141	 0.5777531778	-0.082736
C	 1.5213727624	 1.8786889536	 0.2550141356	-0.044047
H	-0.3598816552	 1.931241382	-0.7546036298	 0.126976
H	-1.4443960618	 1.1969262933	 1.5193807613	 0.240463
H	-2.0338481178	 3.3118558217	 0.4774084866	 0.100135
H	-1.8080872591	 3.3699182426	 2.2175004201	 0.125333
H	-0.7260609073	 5.3005140244	 1.216552744	 0.099976
H	 1.5543506754	 5.2265692904	 0.8113713228	 0.093184
H	 2.9645699791	 3.3254389328	 0.6066013855	 0.10035
H	 2.2659344943	 1.116700683	 0.0541546277	 0.11744
56.2772	147.8387	211.339	255.8276	321.5736	374.8949	388.9768	493.7557	556.0338	579.4803	605.1838	677.9735	762.4362	801.7905	842.595	892.1081	948.8174	963.1817	990.4926	1005.3755	1015.4972	1038.5629	1104.1147	1157.7936	1241.8445	1247.8097	1265.5995	1289.7409	1336.6631	1391.5833	1407.5325	1455.1988	1477.5051	1500.6174	1685.0162	1716.2591	2365.1015	2884.964	2916.4767	3025.7895	3136.144	3152.9017	3164.0938	3196.7845	3544.3899
N#CC1NCC=CC=C1	N#C[C@H]1NCC=CC=C1	
InChI=1S/C7H8N2/c8-6-7-4-2-1-3-5-9-7/h1-4,7,9H,5H2	InChI=1S/C7H8N2/c8-6-7-4-2-1-3-5-9-7/h1-4,7,9H,5H2/t7-/m0/s1
