19
gdb 58522	2.73095	1.32158	1.26421	1.5514	70.45	-0.2437	0.0603	0.304	1103.8774	0.15706	-460.11928	-460.110312	-460.109367	-460.152461	34.672	
C	-0.2936048004	 1.4831311924	 0.012016301	-0.420102
C	 0.0464257923	-0.0041045651	-0.0457815709	 0.070343
O	 1.0064752784	-0.277797934	-1.0782226652	-0.464959
C	 0.7259642015	-0.5150825289	 1.2234672938	 0.433945
O	 1.9905361565	 0.0858677345	 1.3905351972	-0.496858
C	-0.0613283295	-0.4700966118	 2.5763924779	-0.322485
C	 0.0487492863	-1.9981282122	 2.6426107859	 0.034799
O	-0.5753709692	-2.5173715108	 1.4573100755	-0.251232
C	 0.7790330051	-2.0617349467	 1.3708444827	-0.047898
H	 0.5972540031	 2.0688810045	 0.2533206933	 0.131802
H	-0.6909294506	 1.8251399899	-0.9507706353	 0.10379
H	-1.0574963177	 1.6833810648	 0.7692234793	 0.126112
H	-0.862533084	-0.5978968767	-0.2079397458	 0.091729
H	 0.7174761176	 0.1557075799	-1.8865122754	 0.288133
H	 2.3922773464	 0.0769161967	 0.5104199278	 0.286167
H	 0.5381737898	 0.0458662189	 3.3288353179	 0.125417
H	-1.0793128478	-0.0735072821	 2.5635804145	 0.104119
H	 0.0764606873	-2.6472788758	 3.5094416072	 0.104944
H	 1.531371655	-2.7502905776	 1.0040973885	 0.102233
96.9132	142.899	191.629	229.8077	257.2993	292.1671	320.2203	346.9872	430.9235	457.3927	496.9612	519.436	564.3623	717.7022	785.4652	844.6499	864.1136	881.2807	909.7409	958.9189	978.5857	1007.0964	1029.3007	1048.0623	1076.3851	1119.6814	1125.9873	1138.4234	1193.5799	1227.2746	1236.9289	1263.528	1297.1702	1363.3123	1376.1707	1403.5376	1405.9079	1428.4562	1462.8422	1489.8155	1502.5762	3026.9809	3033.0807	3069.2912	3099.0123	3126.6012	3135.8611	3184.0723	3199.9185	3750.0584	3832.896
CC(O)C1(O)CC2OC12	C[C@@H](O)[C@@]1(O)C[C@H]2O[C@@H]12	
InChI=1S/C6H10O3/c1-3(7)6(8)2-4-5(6)9-4/h3-5,7-8H,2H2,1H3	InChI=1S/C6H10O3/c1-3(7)6(8)2-4-5(6)9-4/h3-5,7-8H,2H2,1H3/t3-,4-,5-,6+/m1/s1
