19
gdb 79048	3.68576	1.68164	1.42313	1.3658	78.81	-0.2093	0.0648	0.2741	962.0541	0.160906	-381.929482	-381.922639	-381.921695	-381.960248	28.628	
C	 0.0536865311	 1.520664734	-0.1406555809	-0.332346
N	-0.0077233367	 0.0621475444	-0.0852798893	-0.209184
C	-1.1689677426	-0.5149085761	 0.7275005113	-0.070324
C	-0.3467452619	-1.7685107539	 1.0710304731	-0.029463
N	-0.4296807767	-1.6929267313	 2.5744500874	-0.174307
C	 1.0260097973	-1.8061792211	 2.9699905868	-0.152864
C	 1.8633179639	-0.9861440794	 1.8843252797	-0.383144
C	 0.6336553605	-0.5765150778	 1.1123005875	 0.366306
C	-0.5169486064	-0.256586342	 2.1157232607	-0.052578
H	 1.0427094508	 1.8253267842	-0.4978236751	 0.122956
H	-0.6861979746	 1.8822764133	-0.8619421719	 0.121465
H	-0.1329154011	 2.0221473477	 0.8241341552	 0.09618
H	-2.201722837	-0.4149428617	 0.3938210654	 0.087257
H	-0.2375520685	-2.6954175581	 0.5086166007	 0.085241
H	 1.156246811	-1.3995105909	 3.9761781668	 0.110143
H	 1.3101885011	-2.8613812446	 2.98677677	 0.111753
H	 2.4195325981	-0.1557590599	 2.32609525	 0.108099
H	 2.5543354548	-1.6208071139	 1.3241610197	 0.112822
H	-0.6254931333	 0.5714964973	 2.8161444531	 0.081987
207.2493	214.1869	235.3857	293.4511	388.7091	490.1038	542.0531	663.7676	724.3298	763.244	790.252	790.9943	838.0998	844.7047	861.6797	877.8771	913.8882	934.6312	966.1733	989.4568	1027.2793	1083.9404	1106.6441	1124.5881	1135.0675	1145.2301	1163.2498	1175.1699	1180.4895	1211.4218	1219.5463	1242.2296	1255.0048	1277.5653	1326.5201	1348.7746	1445.3233	1490.2031	1491.012	1496.494	1511.3828	2962.1379	3060.9547	3064.9023	3069.0674	3101.5274	3105.3445	3108.8607	3116.5983	3123.2732	3129.3394
CN1C2C3N4CCC13C24	CN1[C@H]2[C@@H]3N4CC[C@@]13[C@@H]24	
InChI=1S/C7H10N2/c1-8-4-5-7(8)2-3-9(5)6(4)7/h4-6H,2-3H2,1H3	InChI=1S/C7H10N2/c1-8-4-5-7(8)2-3-9(5)6(4)7/h4-6H,2-3H2,1H3/t4-,5-,6+,7+
