19
gdb 101499	3.28642	0.73341	0.69589	2.6203	79.71	-0.2553	-0.0262	0.229	1672.3939	0.157974	-456.36987	-456.359778	-456.358834	-456.405989	35.628	
C	-0.1434287208	 1.3930621875	-0.2039281584	-0.4081
C	 0.3200649921	-0.0640767993	-0.1092900641	 0.04891
C	 1.2002068726	-0.2973393043	 1.1336357493	-0.049978
O	 0.492007973	-0.0880275957	 2.3415390993	-0.421992
N	-0.7177893926	-1.0939783909	-0.0832110799	-0.27676
C	-1.9425125834	-0.7797342022	-0.1431339006	 0.10964
N	-2.9148335003	-1.7745767905	-0.1085267831	-0.308936
C	-4.267434736	-1.5319713256	-0.1777031796	 0.159589
O	-4.768255645	-0.4361769716	-0.2628021304	-0.294458
H	 0.7282418476	 2.0487564217	-0.2875024546	 0.116231
H	-0.7725713851	 1.5680756477	-1.0819524511	 0.118756
H	-0.6953238691	 1.6873081314	 0.6932708277	 0.136367
H	 0.9511765252	-0.2941706023	-0.9803256878	 0.087564
H	 1.6172808114	-1.3134553977	 1.0848490935	 0.092969
H	 2.0314163385	 0.4148827045	 1.1359239207	 0.105438
H	-0.2216826366	-0.7355255772	 2.3560714353	 0.28391
H	-2.3701734612	 0.2188604222	-0.2313028812	 0.145148
H	-2.581073962	-2.7264983398	-0.0475786946	 0.262815
H	-4.8512639284	-2.471006868	-0.1451656005	 0.092887
32.3095	92.7936	116.2664	156.4486	163.8162	253.6018	278.0185	281.8639	340.5196	371.3244	391.0132	448.3244	529.2018	658.6982	674.5789	768.3327	834.0695	922.4834	951.2305	1000.4177	1015.2619	1031.716	1081.9516	1087.3665	1134.2448	1148.7894	1230.9303	1248.854	1310.9619	1344.7899	1363.334	1386.8783	1409.3368	1420.7239	1437.8621	1489.9091	1494.4626	1500.9948	1507.9024	1743.6704	1819.3612	2960.5292	2994.4355	3007.8086	3041.1741	3082.9754	3109.0516	3120.8266	3141.9025	3607.8153	3801.5405
CC(CO)N=CNC=O	C[C@@H](CO)N=CNC=O	
InChI=1S/C5H10N2O2/c1-5(2-8)7-3-6-4-9/h3-5,8H,2H2,1H3,(H,6,7,9)	InChI=1S/C5H10N2O2/c1-5(2-8)7-3-6-4-9/h3-5,8H,2H2,1H3,(H,6,7,9)/t5-/m0/s1
