20
gdb 126605	5.09962	0.78547	0.72749	4.3507	82.99	-0.2411	0.008	0.2491	1638.7972	0.170975	-399.346816	-399.337159	-399.336215	-399.383204	33.674	
C	-0.1611359094	 1.4975140829	 0.0390358216	-0.381741
C	-0.2116079567	-0.0168054022	-0.1756635337	-0.174533
C	 0.882605035	-0.4945218721	-1.1371135984	-0.145863
N	 0.872230258	-1.9346702878	-1.3376919576	 0.080291
C	 0.0840597852	-2.6869153042	-2.145087951	-0.193083
C	 0.4565116923	-3.9871260426	-1.8890328834	 0.303578
C	-0.0452367813	-5.2645919056	-2.478507936	-0.482514
N	 1.4415777273	-3.9584798976	-0.9443596943	-0.251912
N	 1.6881325863	-2.7225644232	-0.6126501024	-0.154255
H	 0.8009990898	 1.8069000784	 0.4612584035	 0.124844
H	-0.3006856213	 2.0402094927	-0.9025641412	 0.117812
H	-0.9460367291	 1.8210286959	 0.7281673201	 0.123979
H	-0.0875189558	-0.5421986961	 0.7774597662	 0.127115
H	-1.1916166449	-0.3091453873	-0.5712186563	 0.105546
H	 0.7789858643	-0.0104818118	-2.1141241199	 0.120125
H	 1.8723870817	-0.2502699305	-0.7435806672	 0.143085
H	-0.6416489029	-2.252763229	-2.8125872935	 0.135817
H	 0.7605788791	-5.8097231171	-2.9803702189	 0.141055
H	-0.4475816877	-5.9235920746	-1.7025318499	 0.140906
H	-0.83579157	-5.0760390482	-3.2093372678	 0.119748
36.4847	45.4953	82.2228	85.9013	235.5097	245.2782	269.2683	305.0108	389.7052	406.9227	638.9606	675.1683	716.4109	751.4503	781.379	788.4014	879.5497	903.6493	996.7987	1039.7228	1045.5811	1061.5131	1065.5073	1102.8367	1124.8293	1163.0342	1238.1274	1284.4948	1308.3554	1330.7601	1345.3574	1374.761	1402.2971	1416.1347	1420.715	1466.8991	1478.6097	1481.4698	1492.7825	1500.4274	1506.5424	1510.2512	1595.3863	3032.8911	3036.3706	3040.7557	3052.1865	3073.6624	3097.9519	3099.7906	3112.5059	3118.138	3120.388	3274.6534
CCCN1C=C(C)N=N1	CCCn1cc(C)nn1	
InChI=1S/C6H11N3/c1-3-4-9-5-6(2)7-8-9/h5H,3-4H2,1-2H3	InChI=1S/C6H11N3/c1-3-4-9-5-6(2)7-8-9/h5H,3-4H2,1-2H3
