14
gdb 21603	3.45568	1.89474	1.29808	2.854	59.7	-0.2143	-0.0066	0.2077	889.4128	0.108458	-415.839394	-415.83211	-415.831166	-415.87091	27.139	
N	 0.196613109	 1.3801992473	-0.0866442093	-0.614804
C	 0.0691671399	-0.0086175467	-0.0658161388	 0.0722
C	-1.019026817	-0.8254360028	-0.0376940986	-0.003764
O	-0.6273161773	-2.1209137441	 0.0496982797	-0.171312
N	 0.7498320592	-2.1740600852	 0.0698679798	-0.205416
C	 1.1623272438	-0.9297672647	 0.0151842586	 0.325498
C	 2.6164953935	-0.5737742188	 0.0173151155	-0.19012
O	 2.9349721615	 0.3260699802	-1.0468436508	-0.413709
H	 1.0378447772	 1.6637200516	-0.5753616318	 0.260729
H	-0.612691807	 1.8630347975	-0.4515793184	 0.24623
H	-2.083046015	-0.6554076627	-0.0674288091	 0.138
H	 2.8726673451	-0.0321588646	 0.9338631788	 0.135735
H	 3.2218752555	-1.4875347474	-0.0171302988	 0.128238
H	 2.7781779216	-0.1404694595	-1.8751420867	 0.292494
100.8156	170.0351	233.5152	297.8106	343.0428	397.4324	418.1398	459.1168	602.0831	652.1789	718.634	748.3523	760.2222	792.843	920.6451	963.7674	978.5881	1048.4603	1123.0817	1134.3099	1196.0709	1261.244	1314.8073	1362.5374	1414.5481	1471.9506	1492.158	1530.3798	1648.4663	1686.2865	3035.122	3084.7893	3272.7005	3532.0069	3633.3811	3808.1129
NC1=CON=C1CO	Nc1conc1CO	
InChI=1S/C4H6N2O2/c5-3-2-8-6-4(3)1-7/h2,7H,1,5H2	InChI=1S/C4H6N2O2/c5-3-2-8-6-4(3)1-7/h2,7H,1,5H2
