20
gdb 108828	3.03292	1.18935	0.94723	2.2147	81.3	-0.2133	0.0208	0.2341	1285.8958	0.170828	-403.123081	-403.114204	-403.11326	-403.156636	33.627	
C	-0.2407508013	 1.5924529758	 0.0756997198	-0.390337
C	 0.0206519482	 0.0869821514	-0.0095086971	 0.004365
C	 0.6733763581	-0.3971192685	-1.2890933795	-0.197945
C	 1.7333345341	-1.1626305701	-1.0261863529	 0.318562
C	 2.6289172945	-1.8651505442	-1.9916689895	-0.18788
O	 2.1582659442	-1.6655324312	-3.3114210813	-0.412808
C	 1.9552484452	-1.2209311995	 0.4519956114	-0.136292
C	 2.275152276	 0.0902441665	 1.0871311037	-0.243206
N	 0.8952520647	-0.4124806993	 1.0891196561	-0.10765
H	 0.6748060401	 2.1730279875	-0.0697784575	 0.114901
H	-0.9559598071	 1.895743325	-0.6951734798	 0.116618
H	-0.6616127359	 1.8488373226	 1.0522010093	 0.125958
H	-0.9486865834	-0.4176972294	 0.1205610299	 0.088754
H	 0.3168236638	-0.1447831201	-2.2794814366	 0.10992
H	 3.6607731775	-1.4896490599	-1.8699806102	 0.099498
H	 2.6635411665	-2.9389322513	-1.7331557362	 0.096916
H	 2.7567497968	-2.1161300594	-3.9137285735	 0.290312
H	 2.2356823428	-2.1577108427	 0.9292047025	 0.08698
H	 2.7302060977	 0.1298455276	 2.0735690082	 0.111751
H	 2.5518474875	 0.9011025189	 0.4180850931	 0.111582
78.8299	138.3354	170.6154	206.7843	236.2832	245.7382	288.5719	398.1781	409.1116	505.48	572.826	652.6489	717.0108	733.9269	822.5211	848.8052	874.7728	908.5422	954.0188	1019.8835	1039.4337	1052.3491	1080.0039	1084.4627	1105.2614	1110.468	1132.4907	1157.2633	1189.3451	1213.5531	1248.2659	1258.8552	1287.3679	1327.479	1355.1691	1373.1125	1404.0436	1468.2183	1488.3008	1496.3831	1498.3121	1507.9778	1715.5659	2938.1803	2950.1103	2979.7064	3040.4781	3099.5058	3110.8615	3117.8227	3125.6181	3188.1207	3220.1595	3837.7479
CC1C=C(CO)C2CN12	C[C@H]1C=C(CO)[C@H]2CN12	
InChI=1S/C7H11NO/c1-5-2-6(4-9)7-3-8(5)7/h2,5,7,9H,3-4H2,1H3	InChI=1S/C7H11NO/c1-5-2-6(4-9)7-3-8(5)7/h2,5,7,9H,3-4H2,1H3/t5-,7+,8?/m0/s1
