20
gdb 95620	2.102	1.77487	1.152	4.8286	75.32	-0.2333	0.0312	0.2645	1118.2799	0.172495	-440.336391	-440.327469	-440.326525	-440.36982	34.021	
C	-0.0922604503	 1.5530953347	-0.0045894681	-0.39754
C	 0.1062888097	 0.0354181208	-0.003899985	-0.098433
C	 0.7804667001	-0.4879731212	-1.2786094809	 0.094411
O	 2.0094896469	 0.2189009021	-1.4310319791	-0.426154
C	 1.0223601926	-1.9967107925	-1.1626376544	-0.24085
C	 1.9590054381	-2.2856838045	 0.0081876224	-0.138403
N	 1.4914322884	-1.6180622251	 1.2150594727	-0.320544
C	 0.8149314508	-0.4277805132	 1.2792443788	 0.419014
O	 0.7108728279	 0.1817631386	 2.3280933947	-0.38172
H	 0.864607374	 2.0658851488	-0.1200836334	 0.137788
H	-0.743900876	 1.8517495079	-0.8320693417	 0.097424
H	-0.5420288338	 1.8686722328	 0.9372933294	 0.138507
H	-0.8827144702	-0.4435709114	 0.0374618117	 0.102098
H	 0.1188893133	-0.2804569602	-2.1338347045	 0.066922
H	 2.4019077535	-0.0347687348	-2.2722315837	 0.285012
H	 0.062641562	-2.5070462887	-1.0205678427	 0.109546
H	 1.4640038853	-2.3898920736	-2.0858897729	 0.092287
H	 2.0094191979	-3.3632058391	 0.1977720259	 0.107147
H	 2.9717765334	-1.9476991922	-0.2505087328	 0.111652
H	 1.9585730462	-1.8446568493	 2.0822267836	 0.241835
70.1327	139.4513	195.1994	229.8246	257.5617	282.5135	292.3349	374.9795	411.4448	486.6348	522.7552	586.5634	607.2095	689.0184	729.2098	781.9036	858.22	895.0214	943.7554	980.2274	1013.9325	1051.6597	1085.1911	1109.4991	1137.1109	1153.2759	1207.9582	1221.2862	1256.5412	1302.2832	1320.2167	1350.4673	1362.7261	1393.8823	1398.0771	1399.8977	1439.7657	1475.6214	1488.237	1489.5841	1504.8468	1523.7126	1782.6039	2977.2359	3008.7135	3009.5889	3034.7835	3050.3939	3060.6227	3077.349	3125.066	3153.4663	3595.3326	3821.4531
CC1C(O)CCNC1=O	C[C@H]1[C@@H](O)CCNC1=O	
InChI=1S/C6H11NO2/c1-4-5(8)2-3-7-6(4)9/h4-5,8H,2-3H2,1H3,(H,7,9)	InChI=1S/C6H11NO2/c1-4-5(8)2-3-7-6(4)9/h4-5,8H,2-3H2,1H3,(H,7,9)/t4-,5-/m0/s1
