15
gdb 108746	2.77547	1.35095	0.91389	5.1449	74.94	-0.2369	-0.0613	0.1756	1208.4738	0.113378	-454.014292	-454.005964	-454.00502	-454.047793	29.92	
C	-0.0857008314	 1.4032576295	 0.1356895109	-0.331421
N	 0.0307678902	-0.025701886	-0.0511979583	-0.377377
C	 0.6326104945	-0.5890919993	-1.1028232152	 0.368591
C	 1.2530873526	-0.0863796178	-2.2034655103	-0.436849
C	 1.7187197498	-1.2003146729	-3.0078814587	 0.441015
O	 2.3069303668	-1.2663112971	-4.0435789383	-0.327042
O	 1.3429750973	-2.4130283042	-2.3279388608	-0.242124
C	 0.6940051207	-2.0736943724	-1.1890060858	 0.384043
N	 0.2048187942	-2.8441084041	-0.3151130838	-0.554668
H	 0.9017705322	 1.8775152386	 0.1946103074	 0.14383
H	-0.6404680061	 1.8666973736	-0.6894330809	 0.143973
H	-0.6202865728	 1.6007186796	 1.065662035	 0.144458
H	-0.3480838663	-0.6682957734	 0.6285981272	 0.275143
H	 1.4097209564	 0.9392824076	-2.4941194269	 0.12565
H	 0.3485740419	-3.8256589717	-0.5538470916	 0.242778
79.2331	108.8105	164.5535	174.2547	190.2424	327.6082	434.6279	461.0453	515.4796	586.7256	609.2867	672.0105	732.2347	776.0496	801.7873	819.9149	867.5065	900.5659	1018.3832	1094.5634	1136.7778	1157.2149	1179.8306	1279.6546	1298.092	1384.2383	1461.2665	1481.1591	1513.3289	1554.6722	1707.0217	1767.262	1902.1627	3017.5388	3066.9989	3142.0599	3270.2726	3495.039	3617.715
CNC1=CC(=O)OC1=N	CNC1=C(OC(=O)[CH]1)[NH]	
InChI=1S/C5H6N2O2/c1-7-3-2-4(8)9-5(3)6/h2,6-7H,1H3	InChI=1S/C5H6N2O2/c1-7-3-2-4(8)9-5(3)6/h2,6-7H,1H3
