15
gdb 124713	4.85558	1.04082	0.86161	6.8891	78.15	-0.2186	-0.0365	0.1821	1262.4782	0.111622	-450.123714	-450.114926	-450.113982	-450.158587	30.828	
C	-0.4542296374	 1.4935143533	 0.2386308773	-0.469273
C	-0.0100032763	 0.0674274271	 0.0121429197	 0.397769
N	 0.1379695628	-0.6789779719	 1.1312257478	-0.517868
N	 0.2435110906	-0.5190590216	-1.1171615461	-0.403159
C	 0.1455877778	 0.0816873088	-2.3282361366	 0.46934
C	 0.3938185575	-0.4616358695	-3.5679400403	-0.206021
N	 0.1653792701	 0.5078846372	-4.4970537417	-0.111589
N	-0.1952776466	 1.5865194696	-3.9602827149	-0.039667
O	-0.2258180551	 1.3596736106	-2.5216080284	-0.246138
H	 0.2814228521	 2.1869546453	-0.1743862152	 0.172209
H	-1.391599098	 1.6838895141	-0.2883672063	 0.172209
H	-0.5910309542	 1.7077317808	 1.3011259186	 0.113867
H	-0.0365455883	-0.3060708593	 2.045533272	 0.269189
H	 0.4325338462	-1.63694669	 1.0356636397	 0.270848
H	 0.7107322087	-1.4565403145	-3.8253496654	 0.128285
25.3507	84.6053	136.8492	163.0852	169.6018	349.1533	359.1886	410.4432	508.4792	526.7977	606.1204	650.0242	686.2246	747.9969	772.6946	804.9117	872.8872	976.2816	1017.2562	1030.7266	1053.7929	1119.7955	1142.0666	1303.9014	1341.7156	1397.7632	1411.4631	1438.8536	1471.3371	1489.7993	1590.2398	1643.1996	1681.7922	3059.3294	3138.8674	3138.9921	3298.4922	3616.1403	3760.0689
CC(N)=NC1=CN=NO1	CC(=Nc1cnno1)N	
InChI=1S/C4H6N4O/c1-3(5)7-4-2-6-8-9-4/h2H,1H3,(H2,5,7)	InChI=1S/C4H6N4O/c1-3(5)7-4-2-6-8-9-4/h2H,1H3,(H2,5,7)
