18
gdb 51569	4.51503	0.71762	0.65862	1.9093	74.14	-0.2459	-0.0261	0.2197	1648.6647	0.145861	-439.035431	-439.026298	-439.025354	-439.071193	31.981	
O	-0.3316256784	 0.0231183304	-0.2563961453	-0.237586
C	 0.0224213479	 1.158630475	-0.0702803284	 0.158336
C	 1.4326469726	 1.6708809647	-0.2898036485	-0.28393
C	 1.4345138835	 2.8805228952	-1.2072138846	-0.036661
N	 1.0408097276	 4.1669047712	-0.612699444	-0.339828
C	 2.4137637269	 4.0018033495	-1.1139280518	-0.051661
C	 3.5172006199	 4.0679104795	-0.1098360006	 0.088702
C	 4.92225947	 3.9251153061	-0.5136289364	-0.180899
O	 4.3768047451	 5.2082237521	-0.208132327	-0.234615
H	-0.6901632581	 1.9369950644	 0.2833284346	 0.090092
H	 1.8330975492	 1.9562679788	 0.690048671	 0.126231
H	 2.0441979313	 0.8597696994	-0.6957472109	 0.123096
H	 1.0732102375	 2.6678316821	-2.2128284852	 0.100143
H	 0.4809186966	 4.7179962177	-1.2564726578	 0.240945
H	 2.6737207366	 4.4875558753	-2.0532244846	 0.098151
H	 3.2379035544	 3.8097713092	 0.9104158036	 0.105791
H	 5.6524310622	 3.5406938242	 0.1969455524	 0.119774
H	 5.1650783051	 3.7582554051	-1.5626802764	 0.113919
45.651	57.13	67.8108	133.3019	190.7674	275.2028	319.1176	388.0216	474.7722	493.4842	569.6865	779.4624	817.327	836.6225	862.2412	884.1463	917.5997	976.7941	994.9771	1011.2553	1060.7818	1087.3962	1098.917	1144.712	1156.6232	1170.7526	1189.2102	1237.0979	1257.8677	1267.1698	1289.8534	1295.9035	1347.5524	1420.1319	1430.2865	1449.2779	1491.1825	1532.4678	1834.1552	2888.539	3044.2044	3081.8371	3100.8365	3114.2504	3122.1749	3130.6226	3168.6886	3517.8191
O=CCC1NC1C1CO1	O=CC[C@H]1N[C@H]1[C@H]1CO1	
InChI=1S/C6H9NO2/c8-2-1-4-6(7-4)5-3-9-5/h2,4-7H,1,3H2	InChI=1S/C6H9NO2/c8-2-1-4-6(7-4)5-3-9-5/h2,4-7H,1,3H2/t4-,5-,6-/m1/s1
