15
gdb 61151	2.75368	1.04047	0.79106	3.149	75.55	-0.2606	-0.0805	0.1801	1370.746	0.107973	-420.563804	-420.554122	-420.553177	-420.599004	34.512	
O	 0.118451704	 1.5241554213	-0.083241718	-0.425272
C	 0.0335697766	 0.1344036539	-0.008389429	 0.028895
C	 0.6572299664	-0.5366818579	-1.2623644667	-0.376211
C	-0.0596768106	-0.1951495816	-2.4816203038	 0.311675
C	-0.6660018828	 0.0766645036	-3.4822918552	-0.43331
C	 0.7273130188	-0.3541543326	 1.2661568044	 0.204395
O	 1.2907307773	 0.4402649628	 1.9931876088	-0.309107
C	 0.6664532651	-1.7664618877	 1.559540257	 0.284693
C	 0.5943723035	-2.9460385733	 1.7885524979	-0.401019
H	 0.6463245206	 1.7982851412	 0.6843358438	 0.297469
H	-1.0194475346	-0.1850033369	 0.0536321506	 0.112308
H	 1.7025890794	-0.2127770468	-1.3352187073	 0.141522
H	 0.6607831332	-1.6244507103	-1.1243453769	 0.139483
H	-1.1945761661	 0.3239691267	-4.3692339616	 0.198394
H	 0.5388986093	-3.9860861024	 2.004109786	 0.226085
56.0889	67.4702	118.5444	146.2385	210.0842	284.8118	339.154	340.6696	373.0804	431.8937	471.8997	527.9134	619.3625	620.0359	643.7655	657.8375	692.9149	719.9299	862.0035	890.5572	981.8122	1031.227	1100.2312	1164.4426	1239.4529	1252.2298	1323.9346	1360.7012	1435.0505	1459.5702	1751.2709	2214.5088	2244.2975	2980.3053	3030.4079	3072.4909	3490.5805	3507.6682	3680.4334
OC(CC#C)C(=O)C#C	O[C@@H](CC#C)C(=O)C#C	
InChI=1S/C7H6O2/c1-3-5-7(9)6(8)4-2/h1-2,7,9H,5H2	InChI=1S/C7H6O2/c1-3-5-7(9)6(8)4-2/h1-2,7,9H,5H2/t7-/m0/s1
