16
gdb 16846	3.85368	1.97018	1.50526	3.7523	71.37	-0.2343	-0.0486	0.1857	843.0461	0.132559	-346.630088	-346.623576	-346.622632	-346.660756	25.709	
O	 0.0123004068	 0.0506176599	-0.6545926263	-0.338684
C	 0.0023279174	 1.1502657986	-0.1357819775	 0.360985
C	-1.3204137569	 1.8337383653	 0.2241334164	-0.334059
C	-1.2442655131	 2.900559408	 1.2981377713	-0.03647
C	-0.5652174615	 2.6523785598	 2.6097837673	-0.282341
C	 0.0979530326	 3.5564546557	 1.5698249217	-0.077799
C	 1.2686481348	 3.0315274794	 0.8457768463	-0.035283
C	 1.2403408329	 1.9137734465	 0.1018536653	-0.173186
H	-1.6798101489	 2.2862097321	-0.710597205	 0.131511
H	-2.042217012	 1.0517455782	 0.4797332791	 0.130991
H	-2.1037633009	 3.5630739205	 1.3346995611	 0.095795
H	-0.9724906024	 3.1247392738	 3.4968146314	 0.120035
H	-0.0949638939	 1.6895163745	 2.7797730988	 0.129166
H	 0.1157217296	 4.6166319715	 1.7978411503	 0.094545
H	 2.2046410513	 3.5734004684	 0.9641490215	 0.108064
H	 2.1357981943	 1.5131986879	-0.3617736118	 0.106731
88.4002	231.9489	326.5441	366.4467	447.1762	492.4426	548.8251	614.1486	714.5803	760.0144	795.2583	809.6177	857.1006	881.04	940.3922	996.1831	1004.1273	1028.6333	1059.0745	1078.6623	1116.8432	1128.9951	1170.908	1209.7399	1230.6579	1251.8725	1327.2425	1375.632	1406.6487	1427.0015	1455.9603	1487.1657	1669.9875	1768.4662	3022.0114	3082.5767	3132.3017	3146.9457	3149.3168	3168.8042	3192.8489	3224.0535
O=C1CC2CC2C=C1	O=C1C[C@H]2C[C@H]2C=C1	
InChI=1S/C7H8O/c8-7-2-1-5-3-6(5)4-7/h1-2,5-6H,3-4H2	InChI=1S/C7H8O/c8-7-2-1-5-3-6(5)4-7/h1-2,5-6H,3-4H2/t5-,6-/m1/s1
