17
gdb 52900	1.86907	1.28458	0.85205	2.7526	80.04	-0.2499	-0.0366	0.2133	1395.5342	0.131369	-421.794811	-421.784613	-421.783668	-421.831413	34.751	
C	 0.0514502202	 1.5551552204	 0.0777385798	-0.50769
C	 0.0149388603	 0.1019160223	 0.0448427693	 0.187985
C	-0.0090002118	-1.101503367	 0.0208360954	-0.012204
C	 0.0091793051	-2.5346230131	-0.0319758916	 0.054898
O	-0.4697153433	-3.2689885927	 1.1233248186	-0.276691
C	-1.2517887624	-3.3412231725	-0.054433816	 0.043312
C	-2.6118219784	-2.6973311605	-0.0451791616	-0.428474
C	 1.2075901537	-3.2022627664	-0.6586170411	 0.106675
O	 2.0475614293	-2.6455280382	-1.3102900144	-0.237361
H	 1.0200641572	 1.9289965105	-0.2704579307	 0.161491
H	-0.7253599814	 1.9884019894	-0.5614907812	 0.153167
H	-0.1052590398	 1.9288307254	 1.0954028375	 0.156721
H	-1.1953151514	-4.3093486308	-0.5587067116	 0.097207
H	-2.5702163978	-1.7075971508	 0.4121091228	 0.144935
H	-2.9894320839	-2.6009280074	-1.0681307699	 0.131665
H	-3.3139693928	-3.3203874334	 0.5181096053	 0.135528
H	 1.230969977	-4.2949914651	-0.4499244305	 0.088837
29.2836	76.9968	92.983	116.3281	180.4172	204.4138	252.1691	270.1618	334.5404	386.4543	435.964	483.1074	538.9247	577.3418	683.2276	769.6565	869.8387	967.4344	987.5753	1040.901	1050.49	1053.326	1058.2598	1133.5685	1166.1558	1258.6707	1343.7936	1401.1465	1412.5433	1415.5547	1440.5409	1473.9104	1475.9363	1484.1392	1492.5338	1838.977	2373.1326	2893.8198	3031.3348	3043.9932	3077.8065	3093.5798	3097.4711	3108.7707	3147.0679
CC#CC1(OC1C)C=O	CC#C[C@]1(O[C@H]1C)C=O	
InChI=1S/C7H8O2/c1-3-4-7(5-8)6(2)9-7/h5-6H,1-2H3	InChI=1S/C7H8O2/c1-3-4-7(5-8)6(2)9-7/h5-6H,1-2H3/t6-,7-/m0/s1
