20
gdb 61878	2.98297	0.95747	0.77808	4.6112	76.94	-0.2433	0.0348	0.2781	1476.7508	0.169938	-440.293771	-440.284102	-440.283158	-440.32899	34.835	
C	-0.0659121063	 1.535126968	-0.0125597718	-0.397329
C	 0.088834245	 0.0100738454	-0.0191387262	 0.065648
C	 0.969051822	-0.4728707947	 1.1434032948	-0.255483
C	 1.1764321183	-1.9681905076	 1.1730141691	 0.08543
C	 1.2694256123	-2.7153029182	 2.4330680798	-0.181099
O	 0.0711037035	-2.7539942902	 1.6530389468	-0.239756
N	-1.2117180671	-0.6609014926	 0.0543014931	-0.280491
C	-2.0777404419	-0.6746009969	-0.9891675666	 0.150684
O	-1.9300779181	-0.0613698145	-2.0282549543	-0.333238
H	 0.9115041134	 2.0187831528	-0.1119843417	 0.108801
H	-0.6950775743	 1.8450235606	-0.8481182462	 0.156259
H	-0.5269139394	 1.8734653635	 0.9215107489	 0.110911
H	 0.5584451069	-0.2795477089	-0.9694171002	 0.100392
H	 1.9444451814	 0.0215344653	 1.0663234468	 0.115768
H	 0.5234158897	-0.1556759494	 2.0947656322	 0.107388
H	 1.6584719132	-2.3964090237	 0.2929070345	 0.104092
H	 1.8248510551	-3.6505766838	 2.471111019	 0.123399
H	 1.1948701445	-2.1806355674	 3.379023953	 0.119452
H	-1.355583757	-1.3214018322	 0.8044719574	 0.264105
H	-2.9608627512	-1.3133888755	-0.7864193584	 0.075066
57.2675	80.2105	113.7905	175.8752	202.3894	249.2213	270.1126	307.3925	339.6667	427.6584	477.974	505.2236	584.6432	772.6773	789.8873	854.7773	869.478	920.7078	939.542	973.8186	1033.5757	1039.4144	1077.2779	1116.9663	1147.2906	1158.626	1168.023	1175.5194	1227.0362	1270.6818	1292.3121	1311.59	1365.5891	1386.2547	1402.7392	1428.871	1446.6087	1467.9653	1481.9529	1510.4287	1527.6359	1535.9162	1796.0069	2931.0318	3011.3336	3029.1468	3038.5124	3073.9634	3088.3279	3104.1348	3107.4216	3147.1534	3176.7996	3605.7963
CC(CC1CO1)NC=O	C[C@@H](C[C@H]1CO1)NC=O	
InChI=1S/C6H11NO2/c1-5(7-4-8)2-6-3-9-6/h4-6H,2-3H2,1H3,(H,7,8)	InChI=1S/C6H11NO2/c1-5(7-4-8)2-6-3-9-6/h4-6H,2-3H2,1H3,(H,7,8)/t5-,6-/m0/s1
