18
gdb 93451	2.91152	1.38976	0.97381	1.8449	75.86	-0.2411	-0.0128	0.2283	1185.5596	0.149872	-435.314645	-435.306355	-435.305411	-435.347643	31.628	
C	 0.0427881445	 1.5774730985	-0.0528899192	-0.40372
C	 0.055884893	 0.0549115888	 0.0115357092	-0.02062
N	 0.7436062608	-0.5074240688	-1.1511832007	-0.316385
C	 0.6400068506	-1.9566809574	-1.2041223551	-0.2877
C	 1.2326590036	-2.5861646001	 0.045042173	 0.427209
O	 1.6523786213	-3.7200870999	 0.0945654782	-0.350016
N	 1.2369669401	-1.7652544466	 1.1615544906	-0.381848
C	 0.7427599299	-0.4623923115	 1.2691528923	 0.435687
N	 0.8004427979	 0.2484446302	 2.321431341	-0.518685
H	 1.0624660369	 1.9611315057	-0.1381957625	 0.134579
H	-0.5328230951	 1.9110036548	-0.9228857738	 0.104137
H	-0.4074428069	 1.9910244042	 0.8493722821	 0.150953
H	-0.9921027374	-0.306573961	 0.0733710304	 0.081828
H	 0.3680853265	-0.0977952686	-1.9989916633	 0.229799
H	-0.3998540945	-2.3316437548	-1.2830115237	 0.11317
H	 1.1943337671	-2.3515485069	-2.0581939212	 0.141456
H	 1.6563432791	-2.1839322152	 1.9829277749	 0.250561
H	 1.2545803426	-0.2448145415	 3.093012588	 0.209597
72.9679	125.2597	209.0721	228.6297	302.2125	364.5791	383.787	420.8627	486.2008	539.1573	578.2962	648.4157	682.0851	707.1195	739.9634	823.9765	887.6572	901.321	961.8959	1017.2472	1049.8495	1097.6527	1129.6889	1144.5341	1181.6164	1248.3851	1297.117	1305.7773	1344.8915	1373.2115	1409.451	1415.4972	1423.2308	1473.0796	1479.2951	1492.5863	1504.1022	1736.8835	1817.9949	2878.1288	2911.8895	3046.7517	3108.4752	3119.1068	3158.7505	3446.9967	3536.8329	3573.8403
CC1NCC(=O)NC1=N	C[C@H]1NCC(=O)N[C]1[NH]	
InChI=1S/C5H9N3O/c1-3-5(6)8-4(9)2-7-3/h3,7H,2H2,1H3,(H2,6,8,9)	InChI=1S/C5H9N3O/c1-3-5(6)8-4(9)2-7-3/h3,7H,2H2,1H3,(H2,6,8,9)/t3-/m1/s1
