21
gdb 40681	3.65174	0.97313	0.89502	1.7149	84.08	-0.2519	0.0808	0.3328	1390.8699	0.182332	-387.040457	-387.031742	-387.030798	-387.074712	32.923	
C	-0.1899338461	 1.5392636632	-0.0375507029	-0.188086
O	 1.0587679939	 0.8450169391	-0.0277652538	-0.243748
C	-0.1491936375	 0.0718685622	-0.003512729	 0.0963
C	-0.4239880963	-0.7106467628	 1.2334339756	-0.105067
C	-1.5419405576	-1.7366537495	 1.2376668808	-0.366569
C	-0.1097957227	-2.1804438993	 1.2801837067	 0.373327
C	 0.5947332862	-3.0452931489	 0.2216800744	-0.294854
C	 0.9932645527	-4.0302486705	 1.3610669473	-0.205691
C	 0.5547490661	-2.971107394	 2.4161170744	-0.296069
H	-0.4270983599	 2.0877809653	 0.8737789951	 0.110187
H	-0.4329355095	 2.0579861316	-0.9644490325	 0.110561
H	-0.3488237875	-0.4576145816	-0.9372897384	 0.08785
H	-0.2653660052	-0.1542080775	 2.1541632993	 0.08425
H	-2.144383435	-1.8263873253	 2.1361655336	 0.111627
H	-2.0951254992	-1.8849729714	 0.3139463069	 0.109295
H	-0.0280954357	-3.450423021	-0.5807054937	 0.096252
H	 1.4584224669	-2.545213376	-0.2275859723	 0.11347
H	 0.3621825252	-4.9219972905	 1.3795705546	 0.104037
H	 2.0383775744	-4.3447375086	 1.3902966434	 0.100431
H	 1.402319934	-2.440307807	 2.8610377794	 0.105345
H	-0.0984799473	-3.3192926473	 3.2212211409	 0.09715
49.7777	87.8133	122.7629	143.4422	311.0572	326.9329	346.3516	394.0605	466.2589	615.8345	713.4437	777.0314	797.7445	842.9131	861.5936	876.5323	896.3324	911.8296	939.8753	949.2061	980.9785	1012.2182	1048.586	1068.5202	1089.4153	1099.5664	1140.2533	1154.6309	1166.4537	1191.9562	1202.5987	1222.3955	1229.9215	1255.5764	1268.8586	1279.8393	1294.8106	1312.8376	1380.262	1462.2398	1477.1051	1480.6662	1496.1214	1507.6498	1532.4982	3044.5072	3048.2042	3067.6316	3075.9539	3089.8365	3090.4308	3095.1626	3114.3102	3123.4503	3137.261	3161.5342	3199.6377
C1OC1C1CC11CCC1	C1O[C@H]1[C@H]1CC21CCC2	
InChI=1S/C8H12O/c1-2-8(3-1)4-6(8)7-5-9-7/h6-7H,1-5H2	InChI=1S/C8H12O/c1-2-8(3-1)4-6(8)7-5-9-7/h6-7H,1-5H2/t6-,7-/m1/s1
