15
gdb 112503	2.28229	1.27207	1.00126	1.3349	68.72	-0.2561	-0.0478	0.2083	1199.0504	0.109524	-457.70851	-457.699583	-457.698639	-457.743091	31.784	
O	 0.0738021881	 1.0916137035	-0.6832133913	-0.412737
C	 0.0596090541	-0.2272191271	-0.1836797637	-0.067812
C	-1.3517698662	-0.6009027522	 0.2660016661	-0.017401
O	-2.2868470646	-0.5006679655	-0.843215429	-0.306645
C	-2.6268939814	-1.9149631675	-0.8358862911	-0.176286
C	-2.2759031243	-2.6278045557	-2.0446707868	 0.336177
C	-1.9610103966	-3.2333835043	-3.0339497449	-0.432731
C	-1.6746805729	-2.0905184046	 0.3885089542	 0.333628
O	-1.3530895218	-2.9917852381	 1.0922653899	-0.261261
H	-0.5772368344	 1.1203350602	-1.3950588201	 0.297848
H	 0.4096805499	-0.9522480815	-0.9340337768	 0.104104
H	 0.741899762	-0.2642754951	 0.6711781582	 0.128383
H	-1.6668137571	 0.0197833673	 1.1135507806	 0.12132
H	-3.6834654212	-2.0645362675	-0.576806828	 0.139993
H	-1.6916173136	-3.7678468018	-3.9118199971	 0.21342
44.6143	98.7714	124.7244	144.6983	221.0759	300.206	353.7467	438.2737	450.214	503.8415	551.7331	623.3328	631.3586	689.6844	712.0953	856.0707	904.4271	927.0123	1010.2626	1048.1504	1061.2305	1088.5325	1091.0666	1190.5663	1208.7546	1247.0425	1297.678	1336.4112	1394.8431	1420.9719	1495.0786	1932.5506	2234.5706	2992.392	3024.1104	3045.9238	3090.4101	3499.5157	3789.7492
OCC1OC(C#C)C1=O	OC[C@H]1O[C@@H](C#C)C1=O	
InChI=1S/C6H6O3/c1-2-4-6(8)5(3-7)9-4/h1,4-5,7H,3H2	InChI=1S/C6H6O3/c1-2-4-6(8)5(3-7)9-4/h1,4-5,7H,3H2/t4-,5+/m0/s1
