21
gdb 96571	2.15051	1.60897	1.23013	2.1504	79.7	-0.2467	0.0044	0.2511	1128.0215	0.183904	-424.205985	-424.197262	-424.196317	-424.239393	33.438	
C	-0.1924654098	 1.5638868403	 0.0353940992	-0.403361
C	-0.0546660128	 0.0268446394	 0.0127360585	-0.057055
C	 0.343629233	-0.5180481448	-1.404052601	-0.086547
O	 1.6690099242	-0.9737065921	-1.5809886848	-0.224908
C	 2.7060899447	-0.0317876786	-1.6885821969	 0.019779
O	 3.5688591908	-0.0168483411	-0.5915278144	-0.220393
C	 3.0404889966	 0.5705077392	 0.596859642	-0.140816
C	 2.0948561978	-0.3253997513	 1.3685538329	-0.054611
C	 0.80190682	-0.543279501	 1.1249961905	-0.043425
H	 0.7279681033	 2.082445967	-0.2412071722	 0.123257
H	-0.9666996357	 1.878360597	-0.6730368969	 0.113255
H	-0.4850071263	 1.9126163535	 1.0300582561	 0.120482
H	-1.0689807929	-0.3542916293	 0.1799904516	 0.081884
H	-0.2686369976	-1.3963054814	-1.62815425	 0.112043
H	 0.0994805768	 0.2496428435	-2.1544791328	 0.091801
H	 3.3358992053	-0.3353592044	-2.5312377801	 0.109291
H	 2.2889590976	 0.9733380502	-1.8782850969	 0.071647
H	 3.9155585149	 0.7911510722	 1.2141638528	 0.109804
H	 2.5695558885	 1.5304042574	 0.348355138	 0.097651
H	 2.5480103176	-0.8647226734	 2.1972157651	 0.09081
H	 0.2929533341	-1.2502137722	 1.7770722892	 0.089413
54.7271	161.8896	184.7283	234.8421	276.6014	298.7593	328.2047	350.0916	404.5113	503.6668	539.9946	604.1596	709.4279	761.0345	768.5401	881.491	922.2958	934.9067	965.5798	980.8419	1002.5941	1042.0684	1065.4078	1082.7201	1108.2516	1134.4823	1182.3202	1203.054	1277.6418	1292.081	1309.119	1340.5452	1351.2891	1376.2155	1390.9781	1402.6778	1414.6913	1437.4353	1450.7691	1488.2318	1488.9177	1496.3758	1505.4819	1511.9667	1722.6885	2941.7575	2985.1478	3022.2515	3023.5158	3040.8971	3071.0801	3081.1446	3087.0848	3103.3208	3130.2278	3133.8238	3159.9003
CC1COCOCC=C1	C[C@H]1COCOCC=C1	
InChI=1S/C7H12O2/c1-7-3-2-4-8-6-9-5-7/h2-3,7H,4-6H2,1H3/b3-2-	InChI=1S/C7H12O2/c1-7-3-2-4-8-6-9-5-7/h2-3,7H,4-6H2,1H3/b3-2-/t7-/m1/s1
