15
gdb 42754	2.87986	1.35593	1.13018	2.8799	71.36	-0.2554	-0.012	0.2433	1091.3383	0.109758	-420.53097	-420.522781	-420.521837	-420.564275	30.345	
O	-0.0471955034	-0.0873697379	 0.0613947731	-0.304638
C	-0.0302718641	 1.0955522526	 0.1189544947	 0.448119
C	-0.937424185	 2.3550350967	 0.0971702082	-0.073846
C	 0.001075284	 2.9901441949	 1.1495535537	-0.278093
C	 0.9260662689	 2.3301265848	 0.0921055006	 0.284757
C	 2.4090554814	 2.4817465324	-0.1161371388	-0.491666
C	 2.9044515378	 1.7627052813	-1.2839292883	 0.306782
C	 3.3116553427	 1.1726158192	-2.2466776325	-0.433979
O	-0.0080714598	 2.8338569428	-0.958574451	-0.322627
H	-2.0026943649	 2.4943937461	-0.0670930982	 0.12011
H	 0.0117963872	 4.0804633503	 1.1009538656	 0.123718
H	-0.0006369555	 2.598257146	 2.1700630346	 0.116577
H	 2.6451630118	 3.550212129	-0.2004054879	 0.150472
H	 2.9112092086	 2.122119011	 0.7915381998	 0.150472
H	 3.6659112302	 0.6457502808	-3.0978705838	 0.203841
54.1799	98.6897	183.7983	207.9834	300.3243	329.1954	432.9662	479.1764	522.706	628.7047	649.1927	655.3091	696.003	785.8519	813.2835	837.7873	886.2254	945.3054	960.8308	964.3522	1006.6093	1037.5949	1108.0741	1169.4912	1200.6015	1209.0198	1252.543	1308.2056	1374.9321	1449.95	1475.771	1939.1149	2249.5381	3022.5651	3056.672	3063.8757	3148.0352	3166.8534	3506.7616
O=C1C2CC1(CC#C)O2	O=C1[C@H]2C[C@]1(CC#C)O2	
InChI=1S/C7H6O2/c1-2-3-7-4-5(9-7)6(7)8/h1,5H,3-4H2	InChI=1S/C7H6O2/c1-2-3-7-4-5(9-7)6(7)8/h1,5H,3-4H2/t5-,7+/m1/s1
