16
gdb 14496	3.68151	2.03131	1.55838	2.9641	69.39	-0.2667	0.0267	0.2934	829.4869	0.132394	-342.739328	-342.732384	-342.73144	-342.770115	27.262	
N	-0.0055183674	 1.470408312	-0.0397031937	-0.566709
C	-0.0059530676	 0.0164223056	-0.00956229	 0.212727
C	 0.955820584	-0.5406207411	-0.9754318717	 0.207386
N	 1.731530482	-0.8984786823	-1.7563249554	-0.350822
C	-0.0593752525	-0.6739461596	 1.4001250664	-0.065524
C	-1.5168787316	-0.1403953679	 1.528853971	-0.237214
C	-1.400227157	-0.7009306739	 0.0804943566	-0.065517
C	-0.6598106974	-1.9237702919	 0.6944747008	-0.245407
H	 0.9255387175	 1.8218820812	 0.1666032138	 0.242998
H	-0.2332907306	 1.7985881941	-0.9742509822	 0.242999
H	 0.7366213941	-0.6463904368	 2.1450413827	 0.085601
H	-2.1647552269	-0.7086370571	 2.1987701047	 0.097616
H	-1.6416500772	 0.9342911065	 1.6336519441	 0.125391
H	-2.1579840432	-0.7046474941	-0.7037628284	 0.085603
H	-0.0031517614	-2.4984169158	 0.0390084329	 0.127673
H	-1.2675183648	-2.574164029	 1.3252548285	 0.103198
152.2136	177.5225	223.8447	335.3627	347.4147	501.343	518.5014	549.6715	594.8016	675.1824	779.8162	813.2848	871.6614	890.3059	904.0772	908.6759	986.7769	1023.8491	1051.7683	1057.0109	1093.7255	1105.8651	1144.3179	1190.6829	1201.526	1208.5351	1227.8726	1253.8937	1269.0663	1290.723	1489.4001	1530.0592	1658.877	2332.9085	3074.7695	3084.2016	3109.0395	3114.3642	3141.9995	3176.2461	3489.6545	3563.5784
NC1(C#N)C2CC1C2	N[C@@]1(C#N)[C@H]2C[C@@H]1C2	
InChI=1S/C6H8N2/c7-3-6(8)4-1-5(6)2-4/h4-5H,1-2,8H2	InChI=1S/C6H8N2/c7-3-6(8)4-1-5(6)2-4/h4-5H,1-2,8H2/t4-,5+,6-
