14
gdb 124359	5.2352	0.99607	0.84125	6.6641	68.72	-0.2481	-0.0404	0.2077	1286.0502	0.099398	-470.010477	-470.002029	-470.001085	-470.045045	29.221	
C	-0.1048372995	 1.5244173638	 0.0112653443	-0.508022
C	 0.1773550634	 0.0325584052	 0.0010358155	 0.402537
O	 1.2784888031	-0.4525831187	-0.0103783031	-0.298411
N	-0.9953228825	-0.7374023922	 0.0063310347	-0.44112
C	-1.1044750174	-2.1069259748	-0.0001348511	 0.528938
C	-2.2407430849	-2.8812000493	 0.0044204713	-0.236902
N	-1.8159358947	-4.1776086138	-0.0049648311	-0.087777
N	-0.5712088737	-4.2686233128	-0.0163069816	-0.021559
O	-0.0399966785	-2.8800313319	-0.0124273776	-0.200069
H	 0.8460166637	 2.0549150587	 0.0062455912	 0.166472
H	-0.687943106	 1.8190210434	-0.8677424237	 0.147953
H	-0.6733251161	 1.8096000561	 0.9028663504	 0.147977
H	-1.8737736327	-0.2424348851	 0.0158414303	 0.268859
H	-3.2810125141	-2.6062802487	 0.0138988905	 0.131125
42.192	65.1414	95.1093	144.2603	315.6452	328.1658	350.6875	512.4972	528.0674	590.2176	596.2124	676.385	734.2609	752.4305	792.4667	943.4868	971.5143	987.6348	1051.0681	1065.3562	1139.1407	1213.1163	1312.0187	1380.2084	1395.3304	1469.2394	1482.8527	1482.9772	1520.3858	1615.9489	1838.3474	3043.3097	3105.9134	3171.6043	3288.0596	3629.5764
CC(=O)NC1=CN=NO1	CC(=O)Nc1cnno1	
InChI=1S/C4H5N3O2/c1-3(8)6-4-2-5-7-9-4/h2H,1H3,(H,6,8)	InChI=1S/C4H5N3O2/c1-3(8)6-4-2-5-7-9-4/h2H,1H3,(H,6,8)
