13
gdb 5044	3.82649	2.17767	1.47541	1.1613	72.18	-0.2471	-0.0838	0.1632	799.7733	0.097886	-357.645307	-357.639034	-357.63809	-357.675802	23.489	
N	 0.0415935459	 1.2270643204	 0.6196199809	-0.489643
C	 0.0107750862	 0.0376280269	 0.1446829277	 0.229933
C	-1.2516787403	-0.6549820131	-0.0963868629	-0.101205
C	-1.4347575403	-1.9976332666	-0.1333885822	 0.00684
N	-0.5647321531	-3.0029692752	 0.2146168499	-0.232746
C	 0.7188268686	-2.8826665548	 0.2252585819	 0.085405
N	 1.5226251571	-1.9000769405	-0.3092232569	-0.198717
C	 1.2091500373	-0.6637197268	-0.3998414114	-0.034991
H	 0.9987876472	 1.5911944082	 0.6229345421	 0.219739
H	-2.1095548765	-0.0097463492	-0.2628908334	 0.125717
H	-2.4343352059	-2.3625911174	-0.3592667799	 0.121558
H	 1.284851726	-3.7306893016	 0.608714828	 0.131964
H	 1.9117544179	-0.0171524404	-0.9359690937	 0.136147
97.1688	255.1698	318.2615	346.8075	418.7245	456.3634	589.4644	634.4878	723.6131	824.6215	845.9602	877.0529	912.3974	970.2679	988.8389	1010.619	1016.7709	1081.749	1149.984	1263.1058	1365.3791	1397.4812	1435.8566	1456.5745	1561.2698	1621.7626	1673.2706	1696.1832	3077.3258	3142.3146	3152.1061	3181.0039	3424.9027
N=C1C=CN=CN=C1	[NH][C]1C=CN=CN=C1	
InChI=1S/C5H5N3/c6-5-1-2-7-4-8-3-5/h1-4,6H	InChI=1S/C5H5N3/c6-5-1-2-7-4-8-3-5/h1-4,6H
