12
gdb 133549	2.06041	1.81224	1.25931	3.1494	48.52	-0.2801	-0.058	0.2221	954.6783	0.071462	-604.106352	-604.098248	-604.097304	-604.139768	28.318	
F	-0.3984326819	 0.1246661103	-0.2546910502	-0.074712
C	-0.0561606624	 1.3973898357	-0.0210932657	 0.267141
F	 1.2683348979	 1.44669295	 0.1285927657	-0.065124
F	-0.3875033579	 2.1204624875	-1.0935157019	-0.062972
C	-0.7643638549	 1.9307799351	 1.2149505876	 0.11287
C	-2.0704387612	 1.3574785843	 1.6000552077	-0.210546
O	-0.8840737812	 1.0111124041	 2.2975508782	-0.246783
C	-0.4535521745	 3.33932238	 1.6447910427	 0.113741
O	 0.1337149898	 4.1453568604	 0.9777772691	-0.230095
H	-2.7786387624	 1.9757858741	 2.1488492244	 0.137918
H	-2.4924969813	 0.5790244458	 0.9701971186	 0.155154
H	-0.8281802699	 3.5537309828	 2.6694706638	 0.10341
59.9928	120.3961	162.7468	205.3869	270.5741	337.4625	361.2503	450.025	489.5961	519.6773	595.3634	632.8048	774.0918	894.085	905.2436	944.4189	1046.118	1130.908	1145.7274	1185.914	1211.6545	1222.6633	1327.9974	1366.1494	1441.4226	1514.8503	1842.8437	2904.8118	3101.3455	3202.5317
FC(F)(F)C1(CO1)C=O	FC(F)(F)[C@]1(CO1)C=O	
InChI=1S/C4H3F3O2/c5-4(6,7)3(1-8)2-9-3/h1H,2H2	InChI=1S/C4H3F3O2/c5-4(6,7)3(1-8)2-9-3/h1H,2H2/t3-/m1/s1
