21
gdb 39595	3.24494	1.42069	1.05046	1.2507	83.28	-0.2353	0.0208	0.2561	1158.2451	0.186359	-387.105359	-387.098093	-387.097148	-387.136733	30.19	
C	-0.0306872466	 1.5728241533	-0.0022985782	-0.320695
C	 1.4558230649	 1.8945249844	-0.0556065578	-0.063185
C	 2.1983247905	 0.8841132344	 0.4036637023	-0.125974
C	 1.306262039	-0.2364048104	 0.8938368439	 0.025279
C	 1.6545457654	-1.7189298	 0.7847960892	-0.253514
C	 0.4268718739	-2.5039253796	 1.2880327228	-0.059997
O	-0.7782478905	-2.1673787974	 0.6154308402	-0.251229
C	-1.1261707956	-0.7864810026	 0.6886767758	-0.128195
C	 0.0108920439	 0.0374712694	 0.1039768968	 0.064628
H	-0.4936174561	 2.0357240175	 0.8835731795	 0.103277
H	-0.5874436543	 1.9317859209	-0.8741662386	 0.102238
H	 1.8356517615	 2.8534930785	-0.3899751447	 0.092366
H	 3.2779659857	 0.8867787156	 0.5064445189	 0.089977
H	 1.1029557992	-0.0426916048	 1.9640398109	 0.074564
H	 1.8721385038	-1.9913553218	-0.2548391562	 0.103592
H	 2.5281032853	-1.989592844	 1.3902994378	 0.090199
H	 0.5563553683	-3.5794422022	 1.1366772033	 0.105346
H	 0.312924021	-2.3285203516	 2.3724680683	 0.082608
H	-2.0568493085	-0.6852518436	 0.121717103	 0.103323
H	-1.3286938003	-0.4923129163	 1.7333035251	 0.081574
H	 0.1800414395	-0.3453050296	-0.9121048325	 0.083816
168.4206	182.2553	304.6083	331.6534	334.2775	423.3967	442.6028	497.8409	530.2097	638.2786	726.8196	767.7698	809.2859	859.4571	898.9794	932.4752	944.2119	962.035	966.7822	997.3373	1057.0124	1072.1378	1105.5482	1113.2006	1127.5283	1135.264	1163.2852	1179.4902	1202.8878	1264.5406	1276.5331	1287.037	1314.2281	1336.1138	1341.6897	1348.9698	1377.1214	1384.9007	1401.7022	1420.6691	1483.7048	1487.5	1493.9069	1504.1851	1660.2611	2919.5531	2949.497	2958.3759	2988.737	3014.1129	3027.2331	3066.0267	3071.7339	3076.1654	3085.4713	3180.9	3206.2194
C1C=CC2CCOCC12	C1C=C[C@@H]2CCOC[C@@H]12	
InChI=1S/C8H12O/c1-2-7-4-5-9-6-8(7)3-1/h1-2,7-8H,3-6H2	InChI=1S/C8H12O/c1-2-7-4-5-9-6-8(7)3-1/h1-2,7-8H,3-6H2/t7-,8-/m1/s1
