20
gdb 82361	2.58389	1.49348	1.07864	4.1927	79.82	-0.2358	0.0288	0.2646	1155.205	0.172537	-403.177377	-403.169027	-403.168083	-403.210551	31.977	
C	 0.1457078775	 1.6264509595	-0.0471251366	-0.402813
C	 0.0962129913	 0.0993971262	 0.0252368273	 0.026631
C	 0.7080244577	-0.5995601007	-1.1830368809	-0.035472
C	 2.2107300857	-0.5604308629	-1.3194315519	-0.292223
C	 1.543050239	-1.7573382325	-0.6935613192	-0.058128
C	 1.4648791973	-1.7698762888	 0.820407914	-0.172174
N	 0.8599015034	-0.4750614979	 1.148732205	-0.065443
C	 0.8878385851	-0.0061584948	 2.4216519954	 0.140146
O	 1.4392057234	-0.5669653197	 3.3495063514	-0.3468
H	 1.1786732356	 1.9832621689	-0.0829798089	 0.128764
H	-0.3654468611	 1.9593757091	-0.9557595369	 0.122872
H	-0.355754768	 2.0988678128	 0.8016135435	 0.126568
H	-0.9584185486	-0.2115430954	 0.0952726539	 0.085527
H	 0.0975593148	-0.6724703771	-2.075377305	 0.090533
H	 2.618990797	-0.6794642798	-2.3165914074	 0.116309
H	 2.7795592878	 0.1051366296	-0.6774224786	 0.121946
H	 1.5543581473	-2.7078135313	-1.212593423	 0.093741
H	 0.8368177556	-2.5990436109	 1.1743545658	 0.113072
H	 2.4307567124	-1.8538832184	 1.3259159138	 0.135369
H	 0.3594094268	 0.9579670439	 2.5379817283	 0.071574
53.7634	151.9894	211.2235	240.3856	255.2521	318.6261	356.9019	360.3705	502.1002	537.4528	631.8311	711.6666	787.8003	825.7479	834.6479	887.5416	915.0502	984.5447	991.9008	1026.2662	1032.5431	1073.7309	1079.1507	1098.6782	1104.1864	1120.6325	1141.367	1193.6286	1199.3362	1238.9241	1331.0507	1337.964	1352.8981	1364.0242	1393.181	1410.782	1417.0587	1449.2465	1483.347	1493.6289	1503.5571	1519.2298	1781.4058	2960.4786	2968.3747	3012.8499	3045.2453	3088.9443	3113.4381	3124.751	3130.7012	3177.98	3188.9077	3218.826
CC1C2CC2CN1C=O	C[C@H]1[C@H]2C[C@H]2CN1C=O	
InChI=1S/C7H11NO/c1-5-7-2-6(7)3-8(5)4-9/h4-7H,2-3H2,1H3	InChI=1S/C7H11NO/c1-5-7-2-6(7)3-8(5)4-9/h4-7H,2-3H2,1H3/t5-,6-,7+/m0/s1
