17
gdb 73507	2.95117	1.81609	1.43827	2.8111	65.83	-0.2539	0.0628	0.3166	918.0212	0.137771	-458.950793	-458.943784	-458.94284	-458.982098	27.982	
O	-0.0240780264	 1.345778754	 0.0262806767	-0.470642
C	 0.0614154871	-0.0427893815	-0.0294406163	 0.363985
C	 1.0343127471	-0.6643841436	-1.0296950153	-0.158139
O	 0.3854419112	-1.8184735583	-1.5599715632	-0.257177
C	-0.7219278649	-2.1593697971	-0.7416077992	 0.179272
O	-0.3458331954	-3.0357211531	 0.3000031497	-0.250011
C	 0.1747635034	-2.2635015269	 1.3850756452	-0.106579
C	-0.3580438369	-0.8487533349	 1.190004298	-0.159904
C	-1.1876773078	-0.8624753878	-0.0717570802	-0.156997
H	 0.6744347851	 1.6697398778	 0.6049263027	 0.2878
H	 1.2209535031	 0.0491641303	-1.8396783796	 0.11544
H	 1.9979688184	-0.9451873336	-0.5815847625	 0.096587
H	-1.4441023327	-2.6849835431	-1.3660886102	 0.09958
H	-0.1865430589	-2.7009223265	 2.321766706	 0.110964
H	 1.2729456836	-2.3087056833	 1.3900358031	 0.101394
H	-0.689413021	-0.2796618238	 2.051037554	 0.097936
H	-2.1882155149	-0.4649373287	-0.169739039	 0.106489
114.0409	212.2572	246.3176	309.2609	362.9635	452.7881	510.7688	561.3305	643.2639	716.0381	752.334	806.3524	874.7071	895.6252	940.6798	947.289	951.966	983.5958	994.2319	1034.236	1048.1035	1053.5077	1072.7814	1130.5106	1186.1835	1216.2808	1227.4894	1262.4728	1279.5666	1306.2426	1319.2102	1351.3887	1363.9448	1388.6218	1450.0111	1514.9663	1529.7812	2998.6603	3006.2229	3064.2673	3065.8235	3128.1941	3181.16	3215.7574	3803.4205
OC12COC3OCC1C23	O[C@@]12CO[C@H]3OC[C@@H]1[C@@H]23	
InChI=1S/C6H8O3/c7-6-2-9-5-4(6)3(6)1-8-5/h3-5,7H,1-2H2	InChI=1S/C6H8O3/c7-6-2-9-5-4(6)3(6)1-8-5/h3-5,7H,1-2H2/t3-,4-,5-,6+/m1/s1
