18
gdb 100360	1.96791	1.25709	1.12299	3.1604	75.11	-0.2541	0.006	0.2602	1233.74	0.145671	-435.265051	-435.254798	-435.253854	-435.300356	36.178	
C	 0.0120991701	 1.6057239394	 0.0136043885	-0.418081
C	 0.0356552176	 0.0721842902	-0.0460950515	 0.199183
C	 0.7762908926	-0.5298720476	 1.1621080785	-0.174959
N	 0.7812233132	-1.9797824734	 1.0766747275	-0.505619
O	-1.299252744	-0.451417521	 0.0593149279	-0.228213
C	-2.1381626003	-0.3503954825	-1.0026928489	 0.118618
N	-3.3601673359	-0.6086260691	-0.8391574217	-0.437873
C	 0.6833110216	-0.3701454328	-1.3021859221	 0.285086
N	 1.1944329633	-0.6458114691	-2.3009690475	-0.337019
H	 1.0292380474	 2.005676961	-0.001030657	 0.142782
H	-0.5310652219	 2.0210241914	-0.8384050212	 0.140058
H	-0.4868639458	 1.9193066053	 0.9336525888	 0.144002
H	 1.8085459393	-0.1664172503	 1.143466076	 0.123365
H	 0.290412092	-0.1130543089	 2.0596509883	 0.104682
H	 1.3737778474	-2.3773403661	 1.7961551998	 0.238264
H	-0.1578445237	-2.3360269284	 1.2190034112	 0.248582
H	-1.6419556918	-0.0700184923	-1.9381837024	 0.12057
H	-3.8543497911	-0.527362306	-1.7256288741	 0.236571
70.784	115.4664	127.4511	138.6924	188.4247	210.5627	226.8432	254.1834	280.3265	372.3002	414.7192	448.4253	508.6403	616.4475	636.3056	733.8811	825.3591	843.4594	900.2582	920.648	997.9249	1046.785	1057.1228	1098.599	1114.3118	1160.9489	1216.7529	1231.394	1289.5988	1342.2131	1404.5303	1424.3762	1426.5722	1482.0319	1489.1638	1494.3806	1651.0494	1744.2796	2355.6293	2967.8368	3053.7948	3067.6065	3082.1792	3134.4038	3138.4637	3517.2852	3518.3466	3601.4268
CC(CN)(OC=N)C#N	C[C@@](CN)(O[CH][NH])C#N	
InChI=1S/C5H9N3O/c1-5(2-6,3-7)9-4-8/h4,8H,2,6H2,1H3	InChI=1S/C5H9N3O/c1-5(2-6,3-7)9-4-8/h4,8H,2,6H2,1H3/t5-/m0/s1
