16
gdb 76999	2.8598	1.42769	1.05871	3.6883	77.4	-0.2442	-0.0341	0.21	1116.7967	0.123626	-400.7554	-400.746836	-400.745891	-400.788781	31.32	
C	-0.0266411757	 1.4003045099	 0.073697046	-0.349162
N	 0.0020992661	-0.0417557558	 0.041226004	-0.068371
C	-1.1842217724	-0.8777929534	 0.0802109809	-0.223817
C	-0.596111068	-2.2782451253	 0.0194341896	-0.075473
C	 0.7301308252	-2.2116045988	-0.0552281598	-0.190837
C	 1.1656887359	-0.782403629	-0.0473343083	 0.399725
O	 2.2916068012	-0.333579659	-0.1096119237	-0.39394
C	-2.0157416078	-0.6604084711	 1.2676282548	 0.344876
C	-2.70648494	-0.4741261307	 2.2325855382	-0.465567
H	 1.0105308287	 1.7404783109	 0.0733532713	 0.166758
H	-0.5386956296	 1.8142206027	-0.8043113419	 0.12138
H	-0.5306981636	 1.7647694458	 0.9755862181	 0.134751
H	-1.8066197563	-0.7014735104	-0.813716804	 0.125422
H	-1.2288887389	-3.1544309308	 0.0454289605	 0.133794
H	 1.4402281191	-3.0235736299	-0.1171389253	 0.132453
H	-3.3126696242	-0.3131619849	 3.0900790196	 0.208007
85.3884	105.8594	155.5257	172.8409	242.5828	298.4115	351.7905	440.8996	499.0708	549.6444	634.3975	661.2448	672.4635	702.6692	723.1986	816.3148	855.6299	929.0676	968.7261	1019.2364	1034.6755	1109.5504	1145.0745	1160.1104	1226.3172	1288.4292	1321.0935	1346.2371	1405.0111	1446.804	1492.6575	1519.6628	1661.4915	1807.7823	2238.4329	2959.2826	3017.0363	3073.1234	3142.2028	3229.8985	3255.4363	3500.2488
CN1C(C=CC1=O)C#C	CN1[C@@H](C=CC1=O)C#C	
InChI=1S/C7H7NO/c1-3-6-4-5-7(9)8(6)2/h1,4-6H,2H3	InChI=1S/C7H7NO/c1-3-6-4-5-7(9)8(6)2/h1,4-6H,2H3/t6-/m1/s1
