12
gdb 132674	3.12174	1.38283	0.95832	1.7878	60.58	-0.2355	-0.0335	0.2021	1072.7202	0.077398	-521.939938	-521.933149	-521.932205	-521.971273	26.037	
O	 0.0870024603	 1.3296909101	-0.0564314974	-0.416573
C	 0.0642538413	-0.0180387573	-0.0515655809	 0.447111
C	 0.0146245218	-0.7027896633	-1.2672615432	-0.21296
C	-0.0075523503	-2.0903225558	-1.2224062495	-0.18632
C	 0.0200525542	-2.7296982027	 0.0076305668	 0.106451
F	 0.0004365709	-4.0597666077	 0.1040989333	-0.060681
C	 0.0692857598	-1.9421384191	 1.1528997275	 0.218867
F	 0.0962955178	-2.5310666647	 2.3393402511	-0.050055
N	 0.0908926603	-0.6286959973	 1.1315071746	-0.408676
H	 0.1206826983	 1.6093852585	 0.8680239565	 0.305353
H	-0.0052608575	-0.1559181431	-2.2003634686	 0.123321
H	-0.045968827	-2.6867490676	-2.1266743902	 0.134161
140.8667	247.277	287.216	350.4369	377.0538	471.0116	480.8744	509.0714	544.9376	598.7656	686.5414	752.2882	759.2607	805.3922	847.1851	964.4933	1005.6444	1115.5145	1203.0073	1228.7776	1297.5236	1346.9467	1402.2986	1492.2611	1526.816	1643.0224	1672.3938	3205.1362	3227.1725	3784.4709
OC1=CC=C(F)C(F)=N1	Oc1ccc(F)c(F)n1	
InChI=1S/C5H3F2NO/c6-3-1-2-4(9)8-5(3)7/h1-2H,(H,8,9)	InChI=1S/C5H3F2NO/c6-3-1-2-4(9)8-5(3)7/h1-2H,(H,8,9)
