18
gdb 11546	6.36471	1.02916	0.94117	3.4563	70.02	-0.238	0.0624	0.3004	1265.5088	0.153704	-381.142043	-381.132936	-381.131991	-381.176746	31.86	
C	 0.1106806368	 1.335977893	 0.1573936092	-0.32173
N	-0.2516735333	 0.0305705743	-0.3632063821	-0.361327
C	 0.6755131804	-0.7046372145	-1.0780960832	 0.484888
O	 1.7444375611	-0.2592406116	-1.4514903122	-0.397092
N	 0.2637418562	-2.007372407	-1.3378469857	-0.37713
C	 1.0228643197	-2.804744985	-2.2572869893	 0.070935
C	 2.2081093377	-3.5663212777	-1.734919631	-0.232967
C	 0.9414267034	-4.2999149849	-2.1006876291	-0.297934
H	 0.848483683	 1.7692720556	-0.5181518694	 0.166624
H	-0.770720713	 1.9829262466	 0.1946696861	 0.117791
H	 0.5546587963	 1.2869624632	 1.1609828214	 0.117952
H	-0.9393281278	-0.4892458629	 0.1591415726	 0.23369
H	-0.7346260406	-2.1596957132	-1.3568366729	 0.232968
H	 1.1067477856	-2.4099405742	-3.2676205978	 0.097858
H	 3.071861349	-3.659223986	-2.3825048912	 0.118205
H	 2.4372547772	-3.4527723055	-0.6824736421	 0.120858
H	 0.3328501553	-4.6827223514	-1.2886368755	 0.111109
H	 0.9258251126	-4.9048889189	-3.0000255878	 0.115301
47.3045	74.0816	92.0868	142.5197	158.0597	288.187	347.0344	384.9124	425.1694	492.6007	534.5684	741.2302	764.5634	770.3693	833.3281	853.5001	922.5871	1001.8937	1019.7565	1060.1966	1075.3984	1120.3863	1133.6927	1150.9636	1170.4489	1193.1081	1206.052	1237.4839	1268.2838	1403.3914	1440.5793	1460.0356	1474.4581	1492.0452	1500.0976	1510.2727	1555.4573	1795.0554	3011.4595	3082.8214	3121.1989	3136.7522	3150.2871	3156.2157	3220.0719	3240.9092	3586.1604	3621.2852
CNC(=O)NC1CC1	CNC(=O)NC1CC1	
InChI=1S/C5H10N2O/c1-6-5(8)7-4-2-3-4/h4H,2-3H2,1H3,(H2,6,7,8)	InChI=1S/C5H10N2O/c1-6-5(8)7-4-2-3-4/h4H,2-3H2,1H3,(H2,6,7,8)
