16
gdb 52212	3.65512	0.81586	0.77696	4.5367	72.95	-0.2652	0.0076	0.2728	1463.1021	0.122363	-437.837511	-437.828436	-437.827492	-437.87262	32.01	
O	 0.330438367	 0.3799392892	-0.9118521784	-0.276072
C	 0.366126961	 1.5265283418	-0.5814041908	 0.174335
O	 0.8547707287	 1.916334115	 0.6170679599	-0.183724
C	 0.9363128702	 3.3258749278	 0.8612325539	-0.113067
C	 2.2860414755	 3.8488509203	 0.4438011227	-0.011951
N	 2.4363685554	 4.1160364583	-0.9876520751	-0.321073
C	 2.4683094725	 5.2550482932	-0.0394148963	-0.245998
C	 1.3913734562	 6.2065433552	-0.0970724175	 0.370426
C	 0.5084323582	 7.021948575	-0.1196349838	-0.435917
H	 0.0055097654	 2.3727187233	-1.1938291339	 0.095717
H	 0.1459564363	 3.8596361161	 0.3237785866	 0.132165
H	 0.7790305976	 3.4559716769	 1.9348673675	 0.129601
H	 3.1286586004	 3.4108033618	 0.9749067061	 0.109349
H	 3.3791485013	 3.9021357446	-1.3019076449	 0.247437
H	 3.441043747	 5.6948270253	 0.1705712767	 0.122125
H	-0.2735753528	 7.7401408262	-0.1505224625	 0.206647
43.148	69.5456	114.063	156.7774	206.542	267.5063	338.2878	360.2926	451.8173	552.4775	576.7038	625.8975	667.7579	687.181	807.7401	842.5923	893.7906	952.8898	1008.4248	1020.1526	1037.0765	1054.5208	1116.1177	1148.864	1199.7252	1241.4492	1249.6896	1313.3685	1371.4347	1410.5116	1429.2926	1464.2757	1492.6652	1865.6402	2241.8458	2980.8598	3057.629	3112.1895	3127.0834	3139.0715	3502.1154	3512.0458
O=COCC1NC1C#C	O=COC[C@H]1N[C@H]1C#C	
InChI=1S/C6H7NO2/c1-2-5-6(7-5)3-9-4-8/h1,4-7H,3H2	InChI=1S/C6H7NO2/c1-2-5-6(7-5)3-9-4-8/h1,4-7H,3H2/t5-,6+/m0/s1
