15
gdb 48650	2.08107	1.78171	1.17381	5.6187	72.83	-0.2604	-0.0604	0.2	1044.0294	0.112581	-416.785105	-416.777154	-416.776209	-416.817858	29.21	
O	-0.854055904	 1.2687419746	 0.0206589137	-0.255856
C	 0.2726466801	 0.8656040184	-0.1319647155	 0.106519
C	 1.4730947864	 1.7331022959	-0.0547977793	 0.188496
C	 1.4278772763	 3.1387016302	 0.4725368642	-0.359895
C	 1.7971249212	 2.9613224219	-0.9749396663	 0.116416
C	 3.21023185	 2.3688159144	-1.0986489862	-0.22198
N	 2.8177308755	 1.2032992907	-0.2556294392	-0.359511
C	 1.0329688003	 3.4926953949	-2.0517473603	 0.233173
N	 0.4438619594	 3.9361924354	-2.9439253709	-0.337585
H	 0.5055219693	-0.1941909931	-0.3664776889	 0.097119
H	 0.4251219318	 3.5151867801	 0.6428046935	 0.170173
H	 2.1889664795	 3.4699448588	 1.1745860626	 0.126062
H	 3.4620323286	 2.0599746162	-2.1157710719	 0.143827
H	 4.0096524195	 3.0028988307	-0.7003663755	 0.121736
H	 3.3518642461	 1.1098462809	 0.6043833599	 0.231305
82.4243	136.2205	179.4475	222.1274	250.3093	364.2115	405.746	474.2287	547.9009	574.8891	617.0017	706.7812	751.6094	809.4915	878.015	941.0327	968.1763	983.4416	1044.6867	1059.3614	1082.8124	1126.5976	1173.1969	1235.0617	1262.0737	1329.133	1358.1809	1394.6857	1410.2362	1470.506	1510.6784	1807.5331	2348.2734	2921.0086	3044.4481	3107.1001	3116.9623	3226.298	3495.5248
O=CC12CC1(CN2)C#N	O=C[C@]12C[C@]1(CN2)C#N	
InChI=1S/C6H6N2O/c7-2-5-1-6(5,4-9)8-3-5/h4,8H,1,3H2	InChI=1S/C6H6N2O/c7-2-5-1-6(5,4-9)8-3-5/h4,8H,1,3H2/t5-,6-/m1/s1
