19
gdb 111886	2.5793	1.45081	1.31781	3.0969	70.31	-0.2524	0.0752	0.3277	1061.6461	0.16143	-460.134356	-460.126403	-460.125459	-460.167058	30.677	
O	 0.0688917239	 1.2533227697	 0.5014441537	-0.427447
C	-0.032152348	 0.1169631439	-0.3431912769	-0.094392
C	-1.3865225386	-0.5576071861	-0.2076076988	-0.074017
C	-1.5655465259	-2.0641804682	-0.1238183724	-0.113874
C	-0.4167091586	-3.0578255796	-0.1099334673	-0.113637
O	 0.5432166249	-2.7823625979	 0.9101136715	-0.225694
C	-0.0728965323	-2.4845701854	 2.1290889232	 0.009939
O	-0.7468836465	-1.2454048825	 2.0925208346	-0.251689
C	-1.7518437902	-1.2052365534	 1.1047732435	 0.064514
H	 0.0206118907	 0.9108027558	 1.4018854921	 0.28999
H	 0.0954168889	 0.4838834881	-1.3667633754	 0.10458
H	 0.7749092966	-0.5969342296	-0.1442871499	 0.111331
H	-2.2014987849	-0.024362902	-0.6894252397	 0.093326
H	-2.469510427	-2.4623915098	-0.5750800224	 0.097265
H	-0.8293894054	-4.0672573169	 0.0474541174	 0.102135
H	 0.1385782035	-3.064049558	-1.0522440486	 0.121326
H	-0.7790160386	-3.2868261369	 2.4072047626	 0.084551
H	 0.7146461367	-2.3895339956	 2.8783741274	 0.122554
H	-2.7428061793	-1.0552073256	 1.5247821954	 0.099237
75.9892	137.6269	169.3855	255.8565	305.0392	387.5519	445.6909	483.2445	496.2792	575.5292	615.2449	756.8736	783.9691	796.3122	865.3455	934.0375	950.3475	975.5731	1017.9072	1029.23	1065.6077	1077.9193	1115.9667	1122.7846	1129.3822	1167.6004	1204.0628	1230.0188	1250.7682	1276.4322	1327.6719	1350.8367	1359.5636	1383.1742	1419.078	1430.9087	1441.9907	1444.965	1497.761	1508.1586	1514.962	2948.4533	2978.5906	3041.1302	3081.8121	3082.3973	3122.0245	3135.1139	3142.818	3156.6597	3793.8355
OCC1C2COCOC12	OC[C@H]1[C@H]2COCO[C@@H]12	
InChI=1S/C6H10O3/c7-1-4-5-2-8-3-9-6(4)5/h4-7H,1-3H2	InChI=1S/C6H10O3/c7-1-4-5-2-8-3-9-6(4)5/h4-7H,1-3H2/t4-,5+,6-/m0/s1
