17
gdb 31404	2.86233	1.33578	0.92099	5.504	78.46	-0.234	-0.0473	0.1866	1240.4302	0.137517	-418.086333	-418.078155	-418.077211	-418.119709	30.325	
C	 0.0864983096	 1.5510975568	 0.0079470403	-0.372391
C	-0.0313115748	 0.0294434643	 0.0031162861	-0.273929
C	-1.4461074738	-0.5080999744	 0.0131021925	 0.329249
N	-2.4349238056	 0.3468418206	 0.0234101761	-0.374846
C	-3.7487397884	-0.0922330485	 0.0327558228	 0.435204
O	-4.7240743306	 0.6257560386	 0.0425846735	-0.384269
N	-3.9268468105	-1.4999873415	 0.0303228013	-0.337746
C	-2.9058156052	-2.3864453779	 0.0197042436	 0.048618
C	-1.6276414728	-1.9298444365	 0.0106999944	-0.203592
H	 1.1394598867	 1.8476623072	 0.0000391855	 0.104094
H	-0.4061717762	 1.985994276	-0.8646487404	 0.135803
H	-0.3910311502	 1.979261518	 0.892227384	 0.13572
H	 0.4773991629	-0.3950570558	-0.8740360953	 0.120616
H	 0.4924253347	-0.4018484313	 0.8680059771	 0.120552
H	-4.8890382885	-1.8062332295	 0.0372331789	 0.269496
H	-3.1725994642	-3.437527748	 0.0189879085	 0.141371
H	-0.7867379531	-2.6091807281	 0.0021183911	 0.106051
55.165	127.5807	170.0416	186.0138	241.516	396.816	411.7882	504.9051	564.5613	580.5389	596.411	698.9604	734.5754	776.2488	805.4395	819.8429	906.6388	966.5261	987.5967	1014.2986	1084.7491	1097.8475	1126.1866	1141.4158	1213.2784	1246.0644	1284.7085	1368.1928	1416.0944	1428.739	1458.4584	1489.6497	1495.3117	1503.0021	1568.6943	1682.6453	1812.7388	3011.4011	3035.0526	3052.2881	3123.4657	3133.7717	3195.5382	3230.668	3617.5804
CCC1=NC(=O)NC=C1	CCc1nc(=O)[nH]cc1	
InChI=1S/C6H8N2O/c1-2-5-3-4-7-6(9)8-5/h3-4H,2H2,1H3,(H,7,8,9)	InChI=1S/C6H8N2O/c1-2-5-3-4-7-6(9)8-5/h3-4H,2H2,1H3,(H,7,8,9)
