21
gdb 17272	4.85289	1.07692	0.99864	1.0513	79.39	-0.2201	0.0896	0.3097	1263.489	0.18832	-329.08199	-329.073281	-329.072336	-329.115688	32.478	
C	 0.0490925743	 1.5284908621	-0.31832546	-0.411183
C	 0.1618512871	 0.0418876753	-0.0551360969	 0.030906
C	 1.4886458916	-0.6240897943	 0.0919981437	-0.249026
N	 0.5814524892	-0.5214610992	 1.2292247813	-0.078669
C	 0.9534814449	 0.3554205671	 2.3345527093	-0.161766
C	 1.6706255039	-0.4278894612	 3.4107694197	 0.041472
C	 3.1704650102	-0.5814694573	 3.3778425201	-0.25141
C	 2.5220505083	 0.2907930638	 4.4249591934	-0.277592
H	 0.900856877	 2.0905107829	 0.072166606	 0.119742
H	 0.0000734945	 1.711226956	-1.3971478415	 0.121147
H	-0.8632522339	 1.9419709777	 0.1262875502	 0.121731
H	-0.6383192041	-0.5383381371	-0.5147195627	 0.086475
H	 1.6676536193	-1.6238373358	-0.2959256887	 0.109634
H	 2.3639265775	 0.0261362879	 0.0811871709	 0.099786
H	 1.5908145681	 1.2029358185	 2.0271142321	 0.073739
H	 0.0288738872	 0.7833655003	 2.7433647054	 0.100605
H	 1.1100826733	-1.2866699456	 3.7678314692	 0.090137
H	 3.599921829	-1.5280773476	 3.6863139499	 0.110589
H	 3.7148355439	-0.0882969558	 2.5789325136	 0.106142
H	 2.6322693717	 1.3661448658	 4.3256632225	 0.10699
H	 2.5047297972	-0.0576100735	 5.4516150825	 0.110553
56.9498	87.2579	128.8874	192.6318	249.8319	296.1739	358.1648	393.7441	439.4336	509.9335	748.5897	774.8903	802.3891	812.5076	851.1124	897.7279	917.8585	946.5909	964.0491	1016.647	1044.0012	1055.2132	1069.3685	1080.5249	1114.1064	1138.3449	1147.1642	1149.6426	1186.987	1197.3259	1202.2951	1226.8205	1290.9589	1337.996	1357.0968	1400.8658	1417.0249	1424.7585	1468.5195	1484.5884	1493.8243	1498.9294	1506.1097	1515.1899	2943.5018	3033.5963	3035.1831	3080.1562	3090.9664	3095.0474	3122.947	3127.8108	3132.7251	3154.8703	3166.8588	3205.472	3220.7797
CC1CN1CC1CC1	C[C@H]1CN1CC1CC1	
InChI=1S/C7H13N/c1-6-4-8(6)5-7-2-3-7/h6-7H,2-5H2,1H3	InChI=1S/C7H13N/c1-6-4-8(6)5-7-2-3-7/h6-7H,2-5H2,1H3/t6-,8?/m0/s1
