16
gdb 34351	2.95961	1.60623	1.29736	3.2781	72.23	-0.2709	0.0063	0.2772	981.2858	0.125523	-400.696618	-400.689609	-400.688665	-400.72797	27.691	
N	-0.0071153228	-1.1529135623	 0.032213003	-0.338166
C	-0.0131107655	 0.003854622	 0.0245988459	 0.206097
C	-0.0276242344	 1.4438228423	 0.0151311318	 0.132555
C	-0.3673310163	 2.1771758499	-1.3094924899	-0.142445
O	 0.8164333966	 3.0030234353	-1.1980177974	-0.287307
C	 1.2677356112	 2.3023680325	-0.0189481575	 0.066591
C	 0.9165623852	 2.9314405938	 1.3439500887	-0.05463
C	-0.4105775672	 3.6251280665	 1.2700901154	-0.306843
C	-0.3938972871	 2.1273676709	 1.3648106532	-0.111675
H	-0.3211378715	 1.5283604926	-2.1903296756	 0.128833
H	-1.293013622	 2.7613318348	-1.323245461	 0.119347
H	 2.2632709524	 1.8690256519	-0.1259052381	 0.106325
H	 1.6285024742	 3.1070330694	 2.1400518193	 0.101927
H	-0.7166764113	 4.1202090795	 2.1855987911	 0.126561
H	-0.7007831183	 4.1435018824	 0.3636016139	 0.138895
H	-0.8559237031	 1.5910383086	 2.1830809672	 0.113936
142.8612	154.821	229.3334	313.8967	405.6058	464.7633	533.2373	550.4567	608.6313	681.4102	765.3244	817.7809	848.6566	908.344	927.408	948.6741	977.9491	990.1836	1006.4796	1036.8599	1058.7847	1064.786	1085.8995	1141.1361	1169.6377	1187.202	1190.0124	1230.8998	1286.9656	1300.7217	1343.5356	1366.4103	1487.023	1520.697	2350.73	3037.2489	3091.768	3106.6133	3141.2294	3194.6521	3204.6181	3225.1423
N#CC12COC1C1CC21	N#C[C@]12CO[C@H]1[C@H]1C[C@@H]21	
InChI=1S/C7H7NO/c8-2-7-3-9-6(7)4-1-5(4)7/h4-6H,1,3H2	InChI=1S/C7H7NO/c8-2-7-3-9-6(7)4-1-5(4)7/h4-6H,1,3H2/t4-,5+,6-,7+/m0/s1
