17
gdb 42724	3.02216	1.8398	1.59863	3.0996	76.03	-0.2213	-0.0168	0.2045	888.6257	0.138613	-384.67636	-384.670056	-384.669112	-384.706745	26.676	
O	-0.0256753847	 0.0192511422	-0.0501099567	-0.325962
C	-0.0171926645	 1.2121498953	 0.0435450853	 0.44864
C	-1.1189844252	 2.304293788	-0.0095106499	-0.204616
C	-1.278978899	 2.7084788744	 1.4398007508	-0.076193
C	-0.1744132403	 3.1813019502	 2.0197140464	-0.077012
C	 0.9989568735	 3.3986825963	 1.0926170784	-0.080525
C	 0.507292493	 4.4106548884	 0.0026234342	-0.233706
C	-0.0293980765	 3.1931568807	-0.7568234102	-0.03212
C	 1.0528826408	 2.2801386701	-0.0401129599	-0.167426
H	-2.0479674486	 2.0780751979	-0.5308402653	 0.086004
H	-2.2164752301	 2.5362242849	 1.9552096276	 0.106185
H	-0.1204866122	 3.486931554	 3.0585111847	 0.100103
H	 1.9393024322	 3.6039441525	 1.6027667179	 0.077132
H	-0.177167915	 5.200300179	 0.3217534451	 0.101102
H	 1.3479527864	 4.8437215755	-0.5472664076	 0.105916
H	-0.1540739751	 3.2108229704	-1.839076115	 0.084382
H	 2.0408573352	 2.0519084903	-0.4376382558	 0.088096
141.4575	297.0798	367.2652	414.3817	482.3234	539.8	587.6168	650.1008	715.7458	755.4645	761.6568	806.7848	836.2674	861.1593	899.4323	953.3397	955.8096	962.1417	999.2114	1035.9826	1044.5118	1061.6856	1083.5797	1090.7706	1127.6648	1163.0929	1190.7763	1206.8351	1229.3281	1262.4227	1274.4306	1297.0067	1328.344	1373.8093	1486.7051	1675.3515	1879.4171	3053.1261	3109.6899	3114.2078	3115.6591	3128.1481	3131.404	3184.7407	3208.3906
O=C1C2C=CC3CC2C13	O=C1[C@H]2C=C[C@@H]3C[C@H]2[C@H]13	
InChI=1S/C8H8O/c9-8-5-2-1-4-3-6(5)7(4)8/h1-2,4-7H,3H2	InChI=1S/C8H8O/c9-8-5-2-1-4-3-6(5)7(4)8/h1-2,4-7H,3H2/t4-,5+,6-,7-/m1/s1
