17
gdb 82865	2.59108	2.13014	1.81845	1.7193	64.92	-0.2519	0.0785	0.3304	832.7518	0.139386	-458.954782	-458.948642	-458.947698	-458.984991	26.238	
O	 0.1200937357	 1.3889277429	 0.1338635302	-0.445469
C	-0.0061877362	-0.0078373158	 0.0310298012	 0.14662
C	-1.458533657	-0.5631490248	-0.1530307161	-0.12848
C	-2.2152279243	 0.2756347316	-1.2108391598	-0.260713
C	-1.3802117537	-0.4607698787	-2.2785199342	 0.069649
O	-0.0365224602	 0.0594009188	-2.3482948678	-0.296963
C	 0.6355158231	-0.5790099358	-1.2535443798	 0.113782
O	 0.2092058281	-1.9178421263	-1.2802818922	-0.233322
C	-1.1790088231	-1.6399638888	-1.2616798503	 0.077216
H	 0.0356650232	 1.7371611554	-0.7631396458	 0.288863
H	 0.46275561	-0.4409912018	 0.9181619764	 0.096789
H	-1.9534836492	-0.8369353593	 0.7772618014	 0.075633
H	-3.2716283711	-0.0017881322	-1.2740603799	 0.106914
H	-2.1311036351	 1.3628007038	-1.156632744	 0.107794
H	-1.7541383411	-0.6054167542	-3.2920578041	 0.086417
H	 1.7135116668	-0.488843486	-1.3769165946	 0.099001
H	-1.778371586	-2.5430433189	-1.3348476904	 0.096268
182.424	284.7772	414.4798	450.4894	480.4476	542.0076	577.3941	655.6652	670.956	764.3167	803.0353	817.9495	856.3672	881.3802	907.8428	958.3994	972.6523	974.3051	1020.927	1033.5995	1078.5993	1113.5644	1120.7961	1127.5595	1134.5371	1203.3823	1224.0208	1241.3906	1265.445	1277.0065	1285.672	1308.9925	1333.6397	1348.4589	1362.3279	1435.4135	1488.2167	3061.0445	3083.0758	3114.0572	3118.3746	3122.7094	3148.1196	3167.4952	3770.1435
OC1C2CC3OC1OC23	O[C@H]1[C@H]2C[C@H]3O[C@@H]1O[C@@H]23	
InChI=1S/C6H8O3/c7-4-2-1-3-5(2)9-6(4)8-3/h2-7H,1H2	InChI=1S/C6H8O3/c7-4-2-1-3-5(2)9-6(4)8-3/h2-7H,1H2/t2-,3-,4+,5+,6-/m1/s1
