22
gdb 22162	5.2329	0.48266	0.46788	1.5984	83.37	-0.2392	0.0165	0.2558	2326.4877	0.190842	-441.448186	-441.436629	-441.435685	-441.486797	39.81	
C	-0.0966609081	 1.5220268091	-0.0379498748	-0.468827
C	-0.0217971836	 0.0176776035	-0.0375310769	 0.358773
C	 0.0483891974	-0.7336378194	 1.2659563106	-0.276139
C	 1.3604445851	-0.4911313365	 2.0352157103	-0.188444
C	 1.4007414633	-1.2326924497	 3.3740956131	-0.160633
C	 2.7002601412	-1.0111519697	 4.1367268106	-0.07602
O	 2.6198603707	-1.7318306138	 5.3573217803	-0.421093
N	-0.0066196344	-0.6924776936	-1.1010224648	-0.166729
O	-0.0529100778	 0.1065430414	-2.2588699624	-0.402509
H	 0.8329907697	 1.9571298098	-0.4213610059	 0.144707
H	-0.8944715967	 1.8596616414	-0.7054920612	 0.148379
H	-0.2745638537	 1.9129997609	 0.9660105166	 0.116722
H	-0.7972681338	-0.4307053714	 1.8994524528	 0.10282
H	-0.0655608571	-1.8012425198	 1.0565255985	 0.116242
H	 2.2011975825	-0.8094381294	 1.4055122854	 0.106394
H	 1.4954903205	 0.5847556954	 2.2081705949	 0.097383
H	 0.5667732208	-0.910717503	 4.0102197639	 0.104497
H	 1.2712244434	-2.3098978792	 3.2133654317	 0.108095
H	 3.5522652041	-1.3535466846	 3.5264524083	 0.084724
H	 2.8452583152	 0.0668099384	 4.3191207037	 0.08222
H	 3.4428095706	-1.6031743031	 5.8375690566	 0.285124
H	-0.0662991291	-0.5556909765	-2.9574834813	 0.304313
43.7837	48.3267	61.1756	90.0259	120.432	140.2001	199.799	261.8585	276.9341	324.2524	356.8428	381.8363	410.8732	482.6522	557.4145	654.3138	744.8437	799.3352	821.0808	923.0838	968.6348	1004.5846	1016.6729	1022.0682	1054.7649	1057.8776	1089.5808	1128.0494	1202.9278	1224.1631	1261.1609	1284.3369	1290.7693	1315.8775	1326.8929	1346.4203	1388.5501	1399.5762	1400.7243	1462.9272	1473.0806	1476.003	1483.914	1490.3288	1505.0455	1528.9578	1728.0535	2955.993	2981.1663	3009.2567	3016.891	3030.5303	3041.7947	3046.5889	3074.6661	3094.1385	3100.9836	3132.5637	3823.4401	3831.0808
CC(CCCCO)=NO	CC(=NO)CCCCO	
InChI=1S/C6H13NO2/c1-6(7-9)4-2-3-5-8/h8-9H,2-5H2,1H3	InChI=1S/C6H13NO2/c1-6(7-9)4-2-3-5-8/h8-9H,2-5H2,1H3
