18
gdb 15441	5.48196	0.87237	0.82104	2.3134	65.68	-0.2598	0.0747	0.3345	1410.5901	0.151479	-422.030429	-422.02116	-422.020215	-422.065552	31.722	
C	 0.1058355604	 1.2896168937	 0.382467657	-0.226569
O	-0.0254994686	-0.1079598206	 0.2749446543	-0.233158
C	-1.2895073107	-0.5035387455	-0.2083016909	-0.085547
C	-1.2978603154	-2.0085026362	-0.2880553339	 0.050801
O	-1.7771510835	-2.7417334511	 0.8430357085	-0.263731
C	-2.511193517	-2.8330706383	-0.3894886826	 0.026544
C	-3.9265162526	-2.3097709717	-0.3420116569	-0.085332
O	-4.7631921236	-3.1942967517	 0.383358844	-0.417357
H	 1.1122038243	 1.4945911585	 0.7545955707	 0.131783
H	-0.0226819756	 1.788099972	-0.5917906668	 0.103899
H	-0.6271588521	 1.7167287192	 1.0848779128	 0.107285
H	-2.0913034359	-0.1496574473	 0.4563009347	 0.098145
H	-1.4700283976	-0.0764717567	-1.2113918121	 0.090518
H	-0.3806694724	-2.4120120146	-0.7196568961	 0.102854
H	-2.419470168	-3.8041389441	-0.8795656985	 0.099563
H	-3.9497356341	-1.2966349173	 0.0825369443	 0.091958
H	-4.3390360484	-2.2591653186	-1.3557801678	 0.114124
H	-4.370026589	-3.2921294397	 1.2581998893	 0.294219
51.6451	76.6334	87.1345	117.947	209.8965	232.2256	290.8981	340.6974	408.9429	465.1371	490.8506	576.589	788.6589	854.6954	910.5592	981.8099	998.7069	1069.72	1070.5259	1087.432	1146.6312	1161.0544	1171.601	1187.0317	1228.1445	1232.0684	1266.879	1301.2779	1348.0496	1373.8143	1413.395	1434.2909	1475.4376	1485.3744	1491.4197	1495.6061	1501.3556	1521.0772	2944.6478	2969.8655	3002.1294	3013.6865	3017.7344	3071.5066	3096.8735	3110.7109	3118.6241	3800.7989
COCC1OC1CO	COC[C@H]1O[C@H]1CO	
InChI=1S/C5H10O3/c1-7-3-5-4(2-6)8-5/h4-6H,2-3H2,1H3	InChI=1S/C5H10O3/c1-7-3-5-4(2-6)8-5/h4-6H,2-3H2,1H3/t4-,5+/m0/s1
