21
gdb 39972	3.44315	1.52778	1.37607	0.256	84.92	-0.2465	0.0903	0.3367	1027.9638	0.185449	-349.923018	-349.915979	-349.915035	-349.954138	30.057	
C	-0.0133468299	 1.5177601285	 0.000263078	-0.329052
C	 1.2987440824	 0.7618984013	-0.0062574348	-0.330366
C	-0.0103288227	 0.0154113218	 0.0075438461	 0.430092
C	-0.4429831844	-0.8113737778	 1.2300565565	-0.330137
C	-0.6696534012	-2.2072599573	 0.6472777278	-0.031755
C	-1.6964127639	-2.3946620141	-0.4616745902	-0.059881
C	-1.9841635069	-1.0700323935	-1.1690626329	-0.242611
C	-0.44057921	-0.7998610735	-1.2002850881	-0.120955
C	-0.2148939139	-2.284111859	-0.7839232578	-0.084305
H	-0.2970529885	 2.0364988286	 0.9106026301	 0.107392
H	-0.3108768732	 2.0297252417	-0.9096822047	 0.106439
H	 1.8837740233	 0.7636000315	-0.9206836585	 0.106497
H	 1.8942493075	 0.768931545	 0.9012972518	 0.106371
H	 0.3327002132	-0.8290623698	 2.0031043658	 0.096375
H	-1.3511298266	-0.4090963349	 1.6949709233	 0.098498
H	-0.5212258309	-3.0741850317	 1.2818017953	 0.078523
H	-2.3288612076	-3.274921052	-0.4820371229	 0.076162
H	-2.3805436331	-1.2368962978	-2.1742379448	 0.096351
H	-2.6100336108	-0.32858529	-0.6588905544	 0.088389
H	-0.033390054	-0.4522922791	-2.1501617865	 0.058954
H	 0.479950061	-3.0021927779	-1.1980523789	 0.079018
105.9965	240.4739	283.3448	332.4454	387.6147	455.0424	526.77	692.7678	708.0502	748.9698	777.9397	783.3291	801.1007	874.7733	880.4308	893.2606	933.0816	956.1082	966.3341	973.7742	984.3361	996.4794	1018.5755	1041.277	1051.6173	1070.2443	1074.6572	1080.4129	1104.6491	1143.4413	1185.5321	1191.4569	1212.5708	1230.1266	1246.235	1267.9077	1288.048	1302.7627	1328.2329	1378.1294	1408.0503	1465.9461	1489.2376	1503.5948	1503.9851	3026.0645	3033.1923	3065.0952	3090.1069	3106.8379	3118.5839	3123.112	3166.6054	3175.2499	3195.5417	3202.4279	3210.6857
C1CC11CC2C3CC1C23	C1CC21C[C@H]1[C@H]3C[C@@H]2[C@@H]13	
InChI=1S/C9H12/c1-2-9(1)4-6-5-3-7(9)8(5)6/h5-8H,1-4H2	InChI=1S/C9H12/c1-2-9(1)4-6-5-3-7(9)8(5)6/h5-8H,1-4H2/t5-,6+,7-,8-/m1/s1
