15
gdb 126487	2.09667	1.54295	0.94874	4.4292	68.8	-0.2808	-0.0929	0.1879	1195.3082	0.111232	-453.914936	-453.906539	-453.905595	-453.949002	29.121	
C	-0.2683422689	 1.5047091337	 0.1511622281	-0.383413
C	 0.0822999558	 0.0117558353	 0.0218722099	-0.304304
C	 0.7665801698	-0.530294916	 1.2390653656	 0.27506
N	 2.0537950028	-0.7497213087	 1.2687414261	-0.136764
O	 2.3259802958	-1.2134070312	 2.5359628993	-0.13618
N	 1.213887522	-1.2840725546	 3.2925885384	-0.106272
C	 0.2315813706	-0.8693116633	 2.5262261896	 0.167813
C	-1.1744591306	-0.8093045398	 2.9909453406	 0.093618
O	-1.5411296733	-1.0863265655	 4.1031310197	-0.231276
H	 0.6336440656	 2.1021562068	 0.3090531493	 0.142776
H	-0.758647135	 1.8570491559	-0.7602117977	 0.132703
H	-0.9457841122	 1.6895453574	 0.990673963	 0.126813
H	-0.8264444841	-0.569518699	-0.1698479781	 0.125571
H	 0.7464745354	-0.1424400601	-0.8326187217	 0.144003
H	-1.8893696738	-0.4799729209	 2.2071976479	 0.089854
51.5234	104.7494	146.4649	174.7555	224.5158	255.2554	326.3031	415.336	512.169	627.2486	658.332	758.2395	792.6875	808.2118	901.1455	956.6224	977.8756	1029.493	1072.0953	1078.9421	1105.1189	1218.5677	1279.2968	1351.4109	1401.1689	1411.6346	1462.0953	1477.9594	1486.0783	1496.6146	1507.898	1592.9835	1819.5571	2904.2375	3044.3323	3049.7366	3097.2972	3119.7525	3127.406
CCC1=NON=C1C=O	CCc1nonc1C=O	
InChI=1S/C5H6N2O2/c1-2-4-5(3-8)7-9-6-4/h3H,2H2,1H3	InChI=1S/C5H6N2O2/c1-2-4-5(3-8)7-9-6-4/h3H,2H2,1H3
