21
gdb 76897	2.22087	1.79699	1.38299	1.3171	76.59	-0.248	0.0638	0.3118	1048.815	0.183489	-424.219719	-424.211154	-424.210209	-424.252728	32.735	
C	-0.6946458515	 1.3468256539	 0.199140532	-0.403511
C	-0.0992910822	-0.0463077725	 0.0391233259	-0.034159
C	 0.702636852	-0.4154340949	-1.2670915452	-0.034158
C	 0.8820557255	 0.6210700528	-2.3690628643	-0.403511
C	 1.9513474812	-0.7541610897	-0.3891207674	 0.072565
O	 3.0395882014	 0.1537346844	-0.4205291041	-0.251739
C	 2.7641830946	 1.1904727583	 0.4961751847	 0.013375
O	 1.8774810263	 0.6886454956	 1.47236581	-0.251739
C	 1.1625890517	-0.391098533	 0.895642344	 0.072566
H	 0.0431869784	 2.1378495486	 0.0446376542	 0.119314
H	-1.5107142525	 1.5054783845	-0.5133475932	 0.113592
H	-1.100271563	 1.476097017	 1.2075713524	 0.121709
H	-0.8854929982	-0.7856347634	 0.2244684671	 0.071162
H	 0.303389336	-1.3328768889	-1.7120306974	 0.071162
H	 1.2962975031	 1.5610448307	-1.9964526379	 0.119314
H	 1.56707112	 0.2483015312	-3.1371603108	 0.121709
H	-0.0744750327	 0.8443931092	-2.8527501321	 0.113593
H	 2.3563296288	-1.7621247218	-0.4996317785	 0.082584
H	 3.6973384093	 1.4931834906	 0.9835258678	 0.117303
H	 2.3195370973	 2.0575129911	-0.0218232424	 0.086286
H	 1.0247750646	-1.1492182234	 1.6692544652	 0.082584
86.7733	180.4172	190.5061	215.9659	216.793	239.5929	248.7457	449.2337	502.0757	535.8055	631.3065	737.906	749.6624	798.127	840.8304	870.6718	896.7827	971.2423	973.5163	1007.7089	1008.4073	1033.0439	1073.995	1137.133	1143.3212	1166.5459	1175.8884	1187.0009	1195.0495	1216.4214	1252.318	1291.3066	1294.0469	1338.8762	1345.7508	1364.8074	1366.0703	1411.694	1418.9282	1438.291	1486.709	1489.2468	1500.4991	1503.6805	1556.3919	2947.287	3034.7451	3039.5987	3042.0561	3052.3958	3063.7112	3082.178	3094.8565	3100.8698	3103.8035	3117.1927	3124.678
CC1C(C)C2OCOC12	C[C@H]1[C@@H](C)[C@H]2OCO[C@@H]12	
InChI=1S/C7H12O2/c1-4-5(2)7-6(4)8-3-9-7/h4-7H,3H2,1-2H3	InChI=1S/C7H12O2/c1-4-5(2)7-6(4)8-3-9-7/h4-7H,3H2,1-2H3/t4-,5+,6-,7+
