20
gdb 6834	3.24151	1.41113	1.27435	2.3791	70.78	-0.2389	0.069	0.3079	1066.5314	0.174877	-386.124473	-386.115098	-386.114154	-386.158921	33.914	
C	-0.2197711205	 1.5705588756	-0.0175667261	-0.429062
C	-0.0069227282	 0.0607998979	 0.0389043807	 0.405255
C	-1.2485467562	-0.6940433357	-0.4209032185	-0.423741
O	 1.1476717378	-0.3165953622	-0.7686212534	-0.326697
C	 1.8546812236	-0.833504907	 0.3764218615	-0.07645
C	 0.6734403569	-0.5289630933	 1.3147201138	-0.063656
C	 0.9524098434	 0.3586899362	 2.5114025678	-0.10965
O	 1.692632667	-0.426004294	 3.4380261207	-0.423022
H	 0.6883512786	 2.1140979136	 0.2538301341	 0.117816
H	-0.4891839862	 1.8622577448	-1.0377693548	 0.123099
H	-1.0301435807	 1.8844410253	 0.6493217713	 0.112131
H	-1.5199551904	-0.3961009984	-1.4388989107	 0.120893
H	-1.0679262017	-1.7725115878	-0.4176030069	 0.118156
H	-2.0990794104	-0.4823293346	 0.2368327652	 0.111459
H	 2.1215029518	-1.8894424044	 0.2546676863	 0.101351
H	 2.7683398215	-0.2626983507	 0.5897494055	 0.096609
H	 0.1676000856	-1.4298397422	 1.6720063228	 0.082763
H	 1.523964271	 1.2484695972	 2.206799616	 0.088136
H	 0.005199567	 0.7098990735	 2.952534425	 0.086878
H	 1.9340849503	 0.1334982164	 4.1819524095	 0.287731
35.5306	89.0331	164.9549	202.5227	237.8841	259.0382	286.6638	319.7729	346.1185	387.3096	474.0655	498.8931	643.2626	817.5881	864.4778	915.3317	922.4621	934.4871	983.1325	999.2808	1023.5799	1063.1781	1107.3593	1135.275	1164.294	1175.4861	1182.4251	1249.3761	1263.506	1278.8273	1298.2358	1341.2223	1383.1469	1397.8062	1410.7739	1461.0006	1471.6683	1483.9625	1491.897	1506.3789	1518.1557	1531.0485	2964.5996	2999.7446	3009.9955	3030.1442	3037.2882	3052.9869	3077.6608	3099.126	3106.1064	3114.0468	3120.693	3829.4678
CC1(C)OCC1CO	CC1(C)OC[C@H]1CO	
InChI=1S/C6H12O2/c1-6(2)5(3-7)4-8-6/h5,7H,3-4H2,1-2H3	InChI=1S/C6H12O2/c1-6(2)5(3-7)4-8-6/h5,7H,3-4H2,1-2H3/t5-/m1/s1
