18
gdb 22485	3.80747	0.70536	0.63022	1.3489	78.06	-0.2578	-0.0098	0.248	1725.2274	0.14463	-439.002682	-438.992517	-438.991573	-439.038525	36.56	
O	 0.3459315903	 1.0306754803	 0.7979225248	-0.417534
C	 0.0242322515	 0.1356142619	-0.2484381784	-0.137079
C	-1.3885588426	-0.416580961	-0.13192389	 0.33224
C	-1.6168894761	-1.9001866035	-0.0280698037	-0.276787
C	-1.2676090485	-2.6431924184	-1.3435519999	-0.357379
C	-1.435215953	-4.0856325175	-1.226919019	 0.295293
C	-1.5816412707	-5.2720109434	-1.1032884472	-0.432886
N	-2.4335623536	 0.3190963748	-0.103953072	-0.167295
O	-2.1064832974	 1.6906020963	-0.2294032482	-0.412601
H	-0.3100535066	 1.7370489208	 0.7488586997	 0.297542
H	 0.1374460565	 0.6067346468	-1.2382339769	 0.111868
H	 0.7475940206	-0.6825950967	-0.1896951866	 0.111886
H	-0.9982691748	-2.305685374	 0.781169425	 0.128874
H	-2.6629791697	-2.0856499102	 0.2249864277	 0.133457
H	-1.9053079277	-2.2587812329	-2.148925529	 0.143209
H	-0.2338489609	-2.420825135	-1.6377692551	 0.136479
H	-1.7073628317	-6.3219181994	-1.0072369014	 0.197673
H	-2.9669827758	 2.1149030311	-0.1508123296	 0.31304
54.3155	78.9682	91.4553	133.985	190.7682	259.3549	315.1304	335.8745	353.8974	379.2321	436.0245	470.2426	508.4398	586.7675	623.0417	645.2801	714.0168	778.9415	835.7967	945.2749	951.3806	970.7217	1016.0069	1052.7405	1082.0921	1175.7345	1215.6302	1271.6955	1281.9153	1306.9818	1362.3058	1373.062	1395.7025	1458.9366	1471.275	1484.0621	1492.4255	1724.8887	2240.9649	2975.2654	3023.2278	3043.6221	3057.9852	3085.2031	3116.4501	3506.7919	3782.6219	3828.7909
OCC(CCC#C)=NO	OCC(=NO)CCC#C	
InChI=1S/C6H9NO2/c1-2-3-4-6(5-8)7-9/h1,8-9H,3-5H2	InChI=1S/C6H9NO2/c1-2-3-4-6(5-8)7-9/h1,8-9H,3-5H2
