18
gdb 39854	3.11958	1.86385	1.51385	1.6144	74.5	-0.2298	0.0672	0.297	911.2678	0.150351	-401.868903	-401.862496	-401.861552	-401.899418	27.212	
C	-0.0313291866	 1.4538335749	-0.0158518017	-0.337336
C	 1.2829906391	 0.6966099979	-0.0114852954	-0.357662
C	-0.0252817904	-0.0386962067	-0.0033441918	 0.46619
C	-0.5073925442	-0.957571963	 1.1188693586	-0.178471
N	 0.2435685867	-2.2279075687	 0.8896909378	-0.308854
C	-0.5288863738	-2.3287102651	-0.3520974334	-0.057756
C	-1.7238726142	-1.6258907764	 0.3030154352	 0.116362
O	-2.0202957384	-0.8300056115	-0.8418590533	-0.289413
C	-0.5872634706	-0.9097307754	-1.1152934187	-0.057896
H	-0.3187011751	 1.9706079215	 0.8941731027	 0.115719
H	-0.3324513775	 1.9604305244	-0.9268244109	 0.119077
H	 1.8711351322	 0.6946878406	-0.9239590432	 0.114242
H	 1.8774149048	 0.7077611687	 0.8971451975	 0.113493
H	-0.5774333476	-0.5799843757	 2.1382805501	 0.072201
H	 1.2453436986	-2.0823479592	 0.7634983049	 0.212577
H	-0.5484089047	-3.2557279996	-0.9229567787	 0.085009
H	-2.5701329543	-2.0742228978	 0.8177858373	 0.094916
H	-0.3200370839	-0.7373603589	-2.1567479471	 0.077603
159.2467	242.4283	273.0959	443.166	481.9886	571.0371	596.2278	725.9776	755.4071	771.0261	786.0122	842.6877	859.5513	867.3236	925.2479	939.5359	959.7376	974.908	982.7916	1001.4139	1023.1777	1046.4762	1056.6548	1070.0836	1081.5023	1100.2641	1146.5293	1177.2508	1182.3083	1195.5547	1220.8213	1242.9745	1261.5675	1311.2155	1319.2621	1343.3371	1410.3133	1470.111	1512.0742	3120.7643	3126.5514	3129.0658	3129.6673	3138.6954	3157.4113	3198.5534	3214.772	3450.4913
C1CC11C2NC3C2OC13	C1CC21[C@@H]1N[C@H]3[C@@H]1O[C@@H]23	
InChI=1S/C7H9NO/c1-2-7(1)5-4-3(8-5)6(7)9-4/h3-6,8H,1-2H2	InChI=1S/C7H9NO/c1-2-7(1)5-4-3(8-5)6(7)9-4/h3-6,8H,1-2H2/t3-,4-,5+,6+/m0/s1
