18
gdb 37702	2.74586	2.26572	2.0793	1.4467	72.37	-0.2196	0.0858	0.3054	797.2762	0.152623	-401.921282	-401.915692	-401.914748	-401.950811	24.978	
C	-0.0382978925	 1.5555348036	 0.0085336245	-0.233068
C	 1.4678541611	 1.8188121192	 0.0404608272	-0.080868
C	 2.1743047511	 1.3697722649	 1.3384378072	-0.068182
C	 2.7884564682	 0.1788013001	 0.6467516967	-0.06688
C	 2.0740969448	 0.5544725016	-0.669197599	 0.07864
O	 0.9887656278	-0.2936681835	-1.0102808394	-0.267725
C	-0.0124517641	 0.0136300943	-0.0242488529	 0.063625
C	 0.4744162903	-0.5146892001	 1.3310594212	-0.154135
N	 1.7995263646	 0.0093421283	 1.7006194989	-0.103499
H	-0.5740811304	 1.9510716098	 0.8766156487	 0.100927
H	-0.4949163036	 1.9536974848	-0.9018958876	 0.104039
H	 1.7981493306	 2.7818880627	-0.3475027757	 0.07504
H	 2.585069493	 2.0140462138	 2.1078697392	 0.09221
H	 3.7616772878	-0.2866554638	 0.7605591809	 0.088812
H	 2.7095870844	 0.7049369618	-1.5421526845	 0.081133
H	-0.9468395693	-0.4590066909	-0.3357032256	 0.077146
H	-0.232427004	-0.2504538751	 2.1263717049	 0.101631
H	 0.5537506301	-1.6063056117	 1.2971210953	 0.111152
307.8947	370.455	410.6081	523.4458	536.8686	632.9845	654.0285	726.387	785.5941	826.0274	834.6454	855.4688	892.4145	898.1358	911.5108	929.331	977.6866	991.6397	1025.9225	1032.1932	1040.101	1072.337	1082.2542	1088.7697	1151.9031	1184.9587	1212.3994	1248.0722	1255.2044	1262.0626	1275.3232	1303.9242	1334.2075	1340.6473	1360.6752	1371.2144	1388.8259	1476.9707	1488.3602	3033.9992	3053.6511	3081.7819	3089.1685	3103.4431	3109.833	3120.2506	3163.1618	3176.8229
C1C2C3C4C2OC1CN34	C1[C@H]2[C@@H]3[C@@H]4[C@H]2O[C@H]1CN34	
InChI=1S/C7H9NO/c1-3-2-8-5-4(1)7(9-3)6(5)8/h3-7H,1-2H2	InChI=1S/C7H9NO/c1-3-2-8-5-4(1)7(9-3)6(5)8/h3-7H,1-2H2/t3-,4+,5-,6-,7+,8?/m1/s1
