17
gdb 22824	2.4626	1.50674	0.96589	2.4993	77.54	-0.1976	-0.0179	0.1798	1167.5532	0.137318	-455.117437	-455.109112	-455.108168	-455.150034	32.168	
O	-0.0010535561	 1.3367446638	 0.0194559224	-0.4017
N	 0.0601169315	-0.0648898168	 0.0112350234	-0.264602
C	-1.1024067722	-0.610818635	-0.0131117339	 0.330214
C	-2.3984825772	 0.022957697	-0.0004281269	-0.20789
C	-3.5109904629	-0.7285535932	-0.1886363323	 0.009816
N	-3.4852581463	-2.0721320824	-0.4476077443	-0.305156
C	-2.2236512828	-2.6591433854	-0.8819284129	-0.190133
C	-1.0876321622	-2.1333640344	 0.00293875	 0.073117
O	 0.1294112399	-2.6784272245	-0.439445433	-0.440931
H	 0.9283213136	 1.5825142029	 0.0687546375	 0.304177
H	-2.4763896532	 1.0817012673	 0.1966581846	 0.111187
H	-4.502039238	-0.2902343406	-0.124947779	 0.117319
H	-4.3254100003	-2.4759297116	-0.8278876639	 0.249804
H	-2.2783687634	-3.7476480035	-0.8030729998	 0.119964
H	-1.9937070257	-2.3981676146	-1.9267891234	 0.112969
H	-1.2963557863	-2.4498558088	 1.0404641828	 0.091573
H	 0.7661127115	-1.9489559603	-0.4060767914	 0.290274
105.5966	201.9306	215.9815	232.7357	318.0169	333.1885	378.802	407.8731	444.8109	479.1013	494.9014	527.9882	616.4908	706.1341	783.3956	810.1013	847.5294	956.4897	970.6474	1004.0326	1053.7577	1079.1507	1121.7128	1147.4777	1217.1276	1258.4439	1269.4051	1303.7833	1315.4755	1371.5506	1402.8432	1427.8288	1451.8106	1493.3494	1522.5221	1665.578	1704.4487	2942.8365	2990.0651	3098.9393	3183.8427	3245.1732	3638.2033	3709.264	3825.3883
ON=C1C=CNCC1O	ON=C1C=CNC[C@H]1O	
InChI=1S/C5H8N2O2/c8-5-3-6-2-1-4(5)7-9/h1-2,5-6,8-9H,3H2	InChI=1S/C5H8N2O2/c8-5-3-6-2-1-4(5)7-9/h1-2,5-6,8-9H,3H2/t5-/m1/s1
