20
gdb 115209	4.006	0.98875	0.83117	3.7696	76.28	-0.2348	0.0295	0.2643	1398.3418	0.171945	-440.329094	-440.32008	-440.319136	-440.363115	33.437	
C	 0.006031003	 1.5661843101	-0.0024397353	-0.388709
C	-0.0023187864	 0.0357696	 0.0139835038	-0.19101
C	-1.4100841108	-0.5503968395	 0.0194305315	 0.131577
C	-1.4135633322	-2.0767905177	-0.0607172984	-0.163106
N	-2.7619814903	-2.5780121207	 0.1615171389	-0.324708
C	-3.7538945515	-1.9158927307	 0.821283303	 0.377842
O	-4.8500225089	-2.3982493803	 1.0351497435	-0.373929
C	-3.4226372117	-0.4837328749	 1.2394593738	-0.192649
O	-2.047584598	-0.1559275147	 1.2269996303	-0.257813
H	 1.0288159052	 1.9524317251	 0.0283214631	 0.114393
H	-0.4709253915	 1.9549082108	-0.9089761027	 0.113291
H	-0.5368463302	 1.9607980709	 0.8597301827	 0.13852
H	 0.5330146618	-0.3563625199	-0.8594915122	 0.098441
H	 0.5247213396	-0.3324954657	 0.9023745254	 0.11035
H	-1.9802448701	-0.1519938508	-0.8390709666	 0.071618
H	-1.0674545952	-2.3979197056	-1.0499690034	 0.112303
H	-0.7144445809	-2.4794587846	 0.6863528652	 0.112602
H	-2.9775360662	-3.5369098702	-0.0708921234	 0.248592
H	-3.9984304263	 0.1886945805	 0.5818513376	 0.119743
H	-3.7857893194	-0.340721442	 2.2593584031	 0.142652
73.0721	99.8243	161.0931	172.9422	208.9824	268.2546	352.3829	414.8642	438.1878	493.966	507.6422	543.2124	642.8152	717.6551	766.4624	810.6307	897.5039	943.6863	982.5058	1019.8454	1026.2234	1096.649	1100.6906	1132.3943	1157.2455	1168.4875	1258.4429	1263.3106	1289.8334	1312.6008	1344.7272	1367.1386	1389.7233	1403.2499	1409.4293	1415.4791	1470.1158	1474.9856	1481.7483	1497.9955	1510.079	1519.2058	1798.0768	2944.3582	2976.9095	3000.0036	3029.9777	3039.8492	3055.7013	3069.719	3106.116	3114.4576	3129.231	3605.4998
CCC1CNC(=O)CO1	CC[C@H]1CNC(=O)CO1	
InChI=1S/C6H11NO2/c1-2-5-3-7-6(8)4-9-5/h5H,2-4H2,1H3,(H,7,8)	InChI=1S/C6H11NO2/c1-2-5-3-7-6(8)4-9-5/h5H,2-4H2,1H3,(H,7,8)/t5-/m0/s1
