19
gdb 124500	2.54574	1.24807	1.02385	2.7645	77.41	-0.211	0.0402	0.2512	1246.6225	0.159473	-419.233642	-419.224276	-419.223332	-419.268319	34.504	
C	 0.0545360798	 1.5324270642	-0.0284405494	-0.371987
C	 0.0121246884	-0.0045957997	 0.0578160419	-0.115699
C	 0.7949060064	-0.5081253186	 1.2847893729	-0.37191
C	-1.3989150171	-0.5290716457	 0.0383367839	 0.098015
C	-1.9823547842	-1.3526859379	-0.907574801	 0.334975
O	-1.5304848817	-1.9251351276	-2.0462805194	-0.429257
N	-3.2609347354	-1.573728953	-0.5316838977	-0.24957
N	-3.5776944843	-0.9394385922	 0.6270233035	-0.241102
C	-2.4565538997	-0.315502785	 0.9619156433	-0.075937
H	 1.087357914	 1.8960176704	-0.055956694	 0.10816
H	-0.4632506128	 1.8932853076	-0.9217440015	 0.115955
H	-0.4351522418	 1.9810329592	 0.8425234365	 0.12064
H	 0.5285453116	-0.3922591218	-0.8358066244	 0.042593
H	 1.8308332529	-0.1530806923	 1.2627460093	 0.10815
H	 0.3360277586	-0.1445962062	 2.2104797076	 0.120645
H	 0.8045450767	-1.6010294161	 1.3270846907	 0.115908
H	-0.6099690624	-1.6706686229	-2.1706795598	 0.309996
H	-3.9468161537	-2.1320460072	-1.009949353	 0.275256
H	-2.4335936654	 0.2774554347	 1.8656586306	 0.105169
28.8732	134.3183	167.0908	231.911	239.5347	256.0585	282.0727	286.1091	398.9974	434.1134	466.2728	527.8161	608.3124	681.4464	723.6925	737.2482	886.9	888.0753	925.2266	948.9185	959.4276	1070.0044	1115.3892	1126.2601	1134.7792	1174.5793	1216.3183	1249.2548	1325.4802	1355.1965	1373.1702	1389.9999	1397.76	1420.2131	1458.2292	1484.6383	1490.2653	1501.36	1508.2778	1581.7694	1639.9262	2955.0497	3029.2321	3033.5651	3096.2877	3102.1598	3109.6205	3111.728	3232.1369	3681.6907	3823.7177
CC(C)C1=C(O)NN=C1	CC(C)c1c(O)[nH]nc1	
InChI=1S/C6H10N2O/c1-4(2)5-3-7-8-6(5)9/h3-4H,1-2H3,(H2,7,8,9)	InChI=1S/C6H10N2O/c1-4(2)5-3-7-8-6(5)9/h3-4H,1-2H3,(H2,7,8,9)
