21
gdb 115076	3.02647	1.16812	0.90435	0.7952	88.06	-0.2135	-0.0204	0.1931	1332.7138	0.183472	-387.093914	-387.085004	-387.08406	-387.127833	33.606	
C	 0.1236710347	 1.3822364089	-0.1346436595	-0.239611
O	 0.0171516408	-0.0080529735	 0.0568278313	-0.241205
C	-1.3175499518	-0.5057571149	 0.0679390438	 0.112643
C	-1.8353501325	-0.7439563966	-1.3674807681	-0.277588
C	-3.3326633006	-0.849099462	-1.4505418782	-0.085437
C	-4.0968716264	-1.6330614341	-0.6781282203	-0.063747
C	-3.6570767133	-2.5661869079	 0.3559777087	-0.078777
C	-2.4791752029	-2.6486920381	 0.9936111838	-0.070804
C	-1.2583551438	-1.7796175263	 0.909184644	-0.262196
H	 1.1868603112	 1.6327629829	-0.093703419	 0.126486
H	-0.2711841057	 1.7106185461	-1.1080798438	 0.103381
H	-0.4031150093	 1.9428806962	 0.6535348084	 0.104665
H	-1.9754654999	 0.2284733446	 0.5573114467	 0.072507
H	-1.4919302345	 0.0760181933	-2.0050706285	 0.101554
H	-1.36239091	-1.6557740874	-1.7577517066	 0.117959
H	-3.8261502225	-0.2245129814	-2.1905647997	 0.087871
H	-5.1701197798	-1.6219739343	-0.8555320267	 0.083537
H	-4.405693367	-3.3051788759	 0.6356283348	 0.082739
H	-2.3716902108	-3.4628835454	 1.7084647862	 0.09015
H	-0.4159279493	-2.3814108476	 0.5372442682	 0.122558
H	-0.9633284568	-1.4921762566	 1.9273719746	 0.113317
69.1443	110.0026	116.6895	182.9862	279.8375	321.5397	350.9284	368.6334	428.8112	479.9374	530.2233	612.2439	698.9956	784.7737	843.7469	859.3721	898.7251	904.9359	953.0141	996.8057	1005.696	1016.7842	1054.5135	1058.2928	1125.8876	1143.1587	1168.9931	1184.2354	1219.0488	1257.6194	1268.2487	1282.1205	1321.4955	1344.6143	1377.2543	1410.8437	1419.2842	1459.1952	1463.3539	1476.2902	1480.5508	1490.6753	1510.407	1683.0332	1713.7048	2971.6473	2985.5077	3005.7846	3017.2669	3019.0108	3036.5778	3078.1167	3109.594	3125.6385	3139.7553	3151.952	3167.2865
COC1CC=CC=CC1	CO[C@H]1CC=CC=CC1	
InChI=1S/C8H12O/c1-9-8-6-4-2-3-5-7-8/h2-5,8H,6-7H2,1H3	InChI=1S/C8H12O/c1-9-8-6-4-2-3-5-7-8/h2-5,8H,6-7H2,1H3
