18
gdb 44085	3.81892	1.4079	1.1891	3.2836	75.82	-0.2221	-0.0249	0.1973	1049.5491	0.148174	-401.902973	-401.895649	-401.894705	-401.934886	29.038	
O	 0.198377742	 0.1508405991	-0.6642181592	-0.294433
C	 0.0872293221	 1.2366586475	-0.1752003791	 0.411887
C	-1.112551097	 2.0602150979	 0.3469669497	-0.432747
C	-0.1028809589	 3.1112328588	 0.8354195178	 0.3849
C	-0.2369263482	 4.6144265011	 1.0691184182	-0.357001
C	 0.6496242987	 4.3923729261	 2.3268649644	-0.169344
N	 0.5185221723	 2.9009810649	 2.2007284068	-0.14564
C	 1.7109616484	 2.2402344083	 1.5828190379	-0.195347
C	 1.0938849777	 2.3557360198	 0.1570059931	-0.238899
H	-1.7244970751	 2.4125607981	-0.4931527801	 0.133016
H	-1.7604574484	 1.5947189895	 1.0936758083	 0.136925
H	 0.1467657721	 5.277174093	 0.2904443624	 0.11057
H	-1.2601568567	 4.9134897928	 1.310874602	 0.117631
H	 1.6808849163	 4.747365841	 2.211531638	 0.100246
H	 0.2541177126	 4.7742193054	 3.2716556683	 0.111538
H	 2.635452189	 2.815095286	 1.7048962845	 0.109381
H	 1.8839365411	 1.2235959462	 1.9478493952	 0.12101
H	 1.714097422	 2.7192821446	-0.6638269782	 0.096305
74.2809	145.4877	247.0647	312.2653	405.7329	449.8049	461.6817	524.5231	632.8613	708.8622	714.0177	764.73	808.1041	863.0469	881.644	920.2914	933.994	955.8254	981.6233	1037.5855	1046.4601	1091.9269	1099.3777	1130.6574	1157.8803	1179.3649	1186.8236	1203.1651	1220.2741	1238.2597	1259.9466	1289.379	1305.8068	1332.858	1420.2654	1481.0648	1495.0028	1517.6073	1890.573	3025.3907	3035.8515	3039.272	3064.236	3084.9311	3087.3818	3103.4074	3113.141	3117.27
O=C1CC23CCN2CC13	O=C1C[C@@]23CCN2C[C@@H]13	
InChI=1S/C7H9NO/c9-6-3-7-1-2-8(7)4-5(6)7/h5H,1-4H2	InChI=1S/C7H9NO/c9-6-3-7-1-2-8(7)4-5(6)7/h5H,1-4H2/t5-,7+/m0/s1
