19
gdb 107251	2.47504	1.65215	1.2031	1.1077	74.5	-0.2274	0.06	0.2874	1087.0628	0.157166	-422.947905	-422.939283	-422.938339	-422.980789	33.729	
C	 0.1629088322	 1.5520752868	 0.0328790224	-0.386419
C	-0.0517697021	 0.0326457433	-0.0247436014	-0.308025
C	-1.4946806272	-0.365603797	 0.0177896478	 0.3491
O	-1.9105170467	-1.59257426	-0.6082053865	-0.292103
C	-2.5732710834	-0.3647891141	-0.9688248873	-0.059311
C	-3.6391991208	-0.0105686748	 0.1130610562	-0.153602
C	-3.652128287	-1.0441676959	 1.2247920739	-0.347958
C	-2.5451230486	-0.0287054826	 1.1561494771	 0.315928
O	-2.3080537206	 0.9221780064	 2.1334937524	-0.447466
H	 1.2306840084	 1.7898856794	 0.0224727766	 0.111738
H	-0.3003925582	 2.0437352736	-0.8285320681	 0.117016
H	-0.2789785338	 1.9755187003	 0.9376906061	 0.140968
H	 0.3761649631	-0.3822413216	-0.9439167217	 0.116442
H	 0.4763015795	-0.4496924533	 0.8090838359	 0.101301
H	-2.5934169403	-0.101404495	-2.0198525824	 0.104592
H	-4.4314184771	 0.711723814	-0.0280316525	 0.10116
H	-4.3803891637	-0.8287335769	 2.0009967123	 0.112249
H	-3.4805942583	-2.0914791603	 1.0110487623	 0.134496
H	-1.9807405953	 0.4707882879	 2.9197432068	 0.289894
88.8162	143.1687	188.6621	245.9195	269.4445	306.0094	370.3478	418.1561	446.9212	501.2235	540.6888	592.708	651.314	765.8633	795.885	808.2322	865.4249	906.8088	914.1596	937.0372	970.505	992.599	1002.8315	1027.2761	1077.3077	1090.0761	1104.3604	1157.6936	1212.0363	1232.8533	1256.8283	1296.6369	1299.1052	1352.2272	1387.1885	1410.4495	1458.687	1481.1542	1486.1559	1498.8543	1517.181	3016.8901	3042.4736	3068.9804	3107.8448	3132.2814	3135.465	3183.4368	3212.8744	3232.6455	3786.1141
CCC12OC1C1CC21O	CC[C@]12O[C@H]1[C@H]1C[C@@]21O	
InChI=1S/C7H10O2/c1-2-7-5(9-7)4-3-6(4,7)8/h4-5,8H,2-3H2,1H3	InChI=1S/C7H10O2/c1-2-7-5(9-7)4-3-6(4,7)8/h4-5,8H,2-3H2,1H3/t4-,5+,6+,7+/m1/s1
