20
gdb 71960	2.89822	1.88133	1.6524	1.5124	76.43	-0.2073	0.0851	0.2924	921.6465	0.17436	-403.138979	-403.132191	-403.131247	-403.169623	29.006	
C	 0.0133632124	 1.5544557996	 0.0984363364	-0.488996
C	-0.0507878001	 0.0534068401	-0.0192421434	 0.430653
C	 0.7062762905	-0.6065503117	-1.2038450607	-0.219451
N	 0.0135776662	-1.9083249402	-1.425467911	-0.112057
C	 0.0802574945	-2.6475267398	-0.1312606651	-0.188079
C	-0.5730972893	-1.687556625	 0.8885568245	 0.095728
O	 0.3657817006	-0.6303283269	 1.2005172355	-0.335951
C	-1.3904425684	-0.7528408731	-0.0474335586	-0.129356
C	-1.4039844562	-1.4610017825	-1.4040155421	-0.198516
H	 1.0519458891	 1.8872129105	 0.2047562725	 0.12798
H	-0.4055388561	 2.031612253	-0.7936722424	 0.117137
H	-0.5435426913	 1.8976139745	 0.9746316899	 0.125763
H	 0.6278230993	-0.0110301177	-2.1201155675	 0.097401
H	 1.7617451917	-0.7557395248	-0.9652566264	 0.111118
H	-0.4819958513	-3.5820506498	-0.234004896	 0.099541
H	 1.1126878819	-2.8797773263	 0.1388045443	 0.112693
H	-1.0063627985	-2.1433929558	 1.7815478178	 0.073324
H	-2.2852792904	-0.2742773357	 0.3444275948	 0.072867
H	-1.6131647453	-0.7976632558	-2.2485271732	 0.103834
H	-2.0817138693	-2.3184946227	-1.4513543493	 0.104368
194.5856	238.8394	266.0136	393.4648	419.0365	481.4412	500.6551	561.8656	640.7485	702.2408	789.7958	829.5751	850.6764	860.9512	875.659	905.637	929.6103	944.706	958.4222	976.3502	988.038	1009.3637	1034.491	1066.9779	1124.1047	1166.7967	1183.4532	1201.1196	1213.1578	1256.2455	1269.6207	1277.203	1290.0028	1302.2786	1324.9622	1329.2966	1375.2736	1410.267	1473.2218	1478.6644	1480.5313	1495.4695	1509.3514	3032.6666	3042.124	3044.1685	3055.5035	3086.8018	3100.1374	3103.1003	3112.5252	3116.0939	3117.6705	3144.4035
CC12CN3CC(O1)C2C3	C[C@@]12CN3C[C@@H](O1)[C@@H]2C3	
InChI=1S/C7H11NO/c1-7-4-8-2-5(7)6(3-8)9-7/h5-6H,2-4H2,1H3	InChI=1S/C7H11NO/c1-7-4-8-2-5(7)6(3-8)9-7/h5-6H,2-4H2,1H3/t5-,6+,7-/m0/s1
