16
gdb 130435	2.54703	1.57335	0.98459	4.2004	77.11	-0.21	-0.0488	0.1612	1144.0107	0.127642	-434.084643	-434.076843	-434.075899	-434.117302	29.048	
N	 0.0514334489	 0.9273905618	 0.0580412594	-0.534044
H	-0.3512767577	 0.0734617538	-0.3067651935	 0.250423
H	 1.0100744254	 0.7160228512	 0.3120043101	 0.248736
H	 0.0184492286	 2.9766849599	-0.5670797826	 0.28202
C	-0.7032629286	 1.4062568705	 1.2229627553	-0.261939
C	-0.7661991193	 2.9078542704	 1.2489565073	 0.251015
N	-0.3337105814	 3.5655682323	 0.1914993116	-0.175478
N	-0.2961454048	 4.8787723823	-0.0172972304	-0.271581
C	-0.7762296521	 5.5770106593	 1.0260931636	 0.029303
C	-1.2633844908	 5.0441588258	 2.200991505	-0.228183
C	-1.3036198038	 3.6205587903	 2.4051343153	 0.300606
O	-1.7195776739	 3.0027666951	 3.390594736	-0.424697
H	-1.7313044258	 1.0261221475	 1.1849085664	 0.15116
H	-0.3127308932	 1.0727870793	 2.1931136859	 0.14853
H	-0.752515336	 6.6514746881	 0.8735781702	 0.122601
H	-1.6294035054	 5.6925723125	 2.9889323603	 0.111528
79.1802	146.5292	203.2522	236.5137	256.6385	343.8318	440.1316	528.0438	563.4343	589.5053	616.482	747.1468	768.1486	864.7817	878.9604	916.2446	933.7718	986.9619	1002.9958	1056.6481	1063.2664	1154.0931	1168.3474	1182.781	1252.5258	1321.1778	1351.6948	1384.5918	1456.0215	1468.5046	1489.2305	1539.6467	1618.434	1662.1607	1712.2123	3028.4025	3060.2248	3181.783	3203.5537	3434.0489	3527.95	3608.4439
[NH3+]CC1=N[N-]C=CC1=O	NC[C]1NN=C[CH]C1=O	
InChI=1S/C5H7N3O/c6-3-4-5(9)1-2-7-8-4/h1-2H,3,6H2,(H,7,9)	InChI=1S/C5H7N3O/c6-3-4-5(9)1-2-7-8-4/h1-2,8H,3,6H2
