18
gdb 65337	3.60627	1.05311	0.98643	2.2249	79.91	-0.2346	0.0302	0.2649	1251.5674	0.14583	-401.868371	-401.859278	-401.858334	-401.902185	34.413	
O	-0.0846334201	 1.3138209881	 0.3377808576	-0.473582
C	 0.0334575437	-0.0593845037	 0.1139704803	 0.386611
C	 1.038719154	-0.5068415628	-0.9066351554	-0.333317
C	 1.3206772715	-0.7491856213	 0.57720914	-0.270408
C	 2.2747666201	 0.0523842137	 1.2780644726	 0.274763
C	 3.00853241	 0.7890636377	 1.8871729629	-0.421043
C	-1.2658799645	-0.7927947094	 0.2656951366	-0.02907
C	-2.2435362011	-0.3736575728	 1.298706548	-0.243543
N	-2.5177039133	-0.1350814276	-0.1307534556	-0.330086
H	 0.5365054049	 1.564311976	 1.0352287597	 0.292959
H	 0.8220799905	-1.3800494209	-1.5122650072	 0.125569
H	 1.6142294881	 0.2711435185	-1.3933167228	 0.134017
H	 1.2154389155	-1.770875969	 0.9297381754	 0.122007
H	 3.6968213603	 1.4057702406	 2.4105128873	 0.203598
H	-1.211054358	-1.844292013	-0.0105061842	 0.086851
H	-2.8818009375	-1.1128291581	 1.7741304896	 0.115032
H	-1.9794753261	 0.4796203542	 1.9158710309	 0.114407
H	-2.3133315079	 0.8413357099	-0.3362109358	 0.245234
70.2382	112.4777	130.5307	222.4815	246.2605	273.081	346.4729	363.2626	424.5588	503.4191	538.9782	594.2349	641.7653	664.5811	724.5306	801.5729	836.5519	859.0178	890.3136	927.6719	970.1569	988.7372	1023.9318	1043.899	1070.0698	1105.1452	1122.0607	1144.6995	1181.6817	1228.024	1271.7831	1295.3318	1306.3267	1355.4625	1380.1419	1442.4036	1475.1289	1502.293	2223.9212	3115.2299	3121.7605	3140.2649	3152.7498	3205.3893	3239.5617	3493.269	3501.4512	3739.027
OC1(CC1C#C)C1CN1	O[C@]1(C[C@H]1C#C)[C@H]1CN1	
InChI=1S/C7H9NO/c1-2-5-3-7(5,9)6-4-8-6/h1,5-6,8-9H,3-4H2	InChI=1S/C7H9NO/c1-2-5-3-7(5,9)6-4-8-6/h1,5-6,8-9H,3-4H2/t5-,6-,7+/m1/s1
