20
gdb 40017	3.23112	1.43508	1.22651	1.3772	85.22	-0.2145	0.0145	0.229	1083.5045	0.173996	-365.990158	-365.982759	-365.981815	-366.021761	30.663	
C	 0.3579764415	 1.5715500266	-0.0693110834	-0.277287
N	 1.4104148953	 0.5548529855	 0.0414236306	-0.366658
C	-0.0010387237	 0.1193562904	-0.0130572252	 0.306756
C	-0.4994691578	-0.5058312935	 1.2868236359	-0.280291
C	-1.9464301448	-0.9597182397	 1.2367467654	-0.03407
C	-3.0329566145	-0.1439204995	 0.5987828568	-0.288894
C	-2.5093187053	-1.3961687364	-0.1013055268	-0.077723
C	-1.6378515562	-1.2304490555	-1.2871008705	-0.066826
C	-0.5061862344	-0.5202600221	-1.2535545907	-0.146076
H	 0.2210818334	 2.1889880851	 0.8157355989	 0.115901
H	 0.2293291059	 2.0965798369	-1.0128405904	 0.108404
H	 1.8529723127	 0.4113779259	-0.8639083172	 0.227017
H	 0.1296859096	-1.3809200154	 1.4926110118	 0.111005
H	-0.3370334305	 0.1928876717	 2.1147203362	 0.103355
H	-2.2479467974	-1.5577532115	 2.0918849076	 0.085626
H	-4.0258955638	-0.1841658296	 1.033802535	 0.108514
H	-2.775651919	 0.8082722986	 0.1477222875	 0.121037
H	-3.1752552643	-2.252598894	-0.1160090133	 0.082978
H	-1.9646759384	-1.683782586	-2.2188004712	 0.088398
H	 0.0822128716	-0.3761911174	-2.157633917	 0.078834
90.9919	211.0755	319.1851	330.7441	345.7691	358.9991	446.2934	547.3286	598.7471	664.0808	740.6199	774.8983	778.0762	815.3816	860.8812	877.3637	924.3964	933.9983	953.2154	978.7494	984.6439	1015.5014	1040.253	1056.0927	1067.9137	1094.4738	1122.7642	1130.8654	1143.1572	1192.2813	1219.2797	1226.2126	1269.4992	1323.4349	1331.6543	1365.2453	1382.5806	1419.4398	1435.8855	1483.7904	1489.7504	1509.317	1700.7572	3027.3142	3066.2439	3095.577	3130.1858	3137.7522	3144.0174	3157.734	3172.925	3181.7934	3219.483	3486.6549
C1NC11CC2CC2C=C1	C1N[C@]21C[C@H]1C[C@H]1C=C2	
InChI=1S/C8H11N/c1-2-8(5-9-8)4-7-3-6(1)7/h1-2,6-7,9H,3-5H2	InChI=1S/C8H11N/c1-2-8(5-9-8)4-7-3-6(1)7/h1-2,6-7,9H,3-5H2/t6-,7-,8+/m1/s1
