13
gdb 133505	4.16533	0.66957	0.66643	2.129	61.43	-0.2623	-0.0066	0.2556	1622.8578	0.085375	-547.046507	-547.038069	-547.037125	-547.082306	29.018	
F	-0.041539373	 0.0718262542	-0.0593277888	-0.069135
C	-0.0260686848	 1.409077785	 0.0212404309	 0.261897
F	 1.2556853622	 1.8024446408	-0.0072956304	-0.071358
F	-0.6157043395	 1.8860424052	-1.0843000829	-0.070017
C	-0.6963057141	 1.8741407469	 1.2308258919	-0.176275
C	-1.2409906363	 2.2564533771	 2.2329350531	 0.168697
C	-1.9101818642	 2.7214068249	 3.4122855032	-0.175658
C	-1.134825922	 3.4703092265	 4.4501688816	-0.223535
N	-2.1134020114	 4.1747058193	 3.622884216	-0.298259
H	-2.7525816534	 2.1142752281	 3.7320998671	 0.133286
H	-1.4138882308	 3.3503582062	 5.4926977179	 0.136742
H	-0.0756858181	 3.6243699921	 4.2674424038	 0.134795
H	-1.6403137946	 4.6904242138	 2.8843198765	 0.248821
14.7521	81.8146	86.1309	194.232	210.942	381.3643	433.7705	453.8263	530.2691	568.6735	611.4581	621.8832	743.8895	815.259	853.273	949.5289	974.1792	1034.4955	1114.8435	1141.2224	1178.7529	1181.5206	1187.9635	1251.371	1287.438	1308.2565	1394.906	1506.3172	2376.1889	3119.6015	3148.7995	3211.765	3506.4807
FC(F)(F)C#CC1CN1	FC(F)(F)C#C[C@H]1CN1	
InChI=1S/C5H4F3N/c6-5(7,8)2-1-4-3-9-4/h4,9H,3H2	InChI=1S/C5H4F3N/c6-5(7,8)2-1-4-3-9-4/h4,9H,3H2/t4-/m0/s1
