20
gdb 41428	3.63142	1.84844	1.47718	1.5128	81.71	-0.2206	0.0995	0.3202	935.8016	0.175324	-365.974426	-365.968109	-365.967164	-366.004661	27.447	
C	-0.0265131005	 1.5606025497	-0.0467290578	-0.232028
C	 1.5049228765	 1.8639756695	-0.0111146881	-0.332873
C	 2.0075155648	 0.4400145053	 0.1114508863	 0.395562
C	 3.4101365896	-0.1307183796	 0.064479395	-0.332874
C	 3.0373199396	-1.6471288968	 0.0747775075	-0.232027
C	 1.5112600328	-1.5324187339	 0.1186778138	 0.015416
C	 1.094347187	-0.3959937734	 1.0668339692	-0.107245
C	 0.0152465191	 0.033857297	 0.0593381962	 0.015417
N	 1.1502358532	-0.4160937395	-0.8727203254	-0.19668
H	-0.5736670105	 2.0180918523	 0.7831198847	 0.098578
H	-0.4943097592	 1.8858839677	-0.9802051949	 0.108898
H	 1.8601103844	 2.3450968684	-0.9268085168	 0.108716
H	 1.8015118449	 2.4868696803	 0.8379632408	 0.099537
H	 3.9416186866	 0.1659115146	-0.8441823111	 0.108715
H	 4.0135658719	 0.1708472486	 0.9257747357	 0.099537
H	 3.3754937052	-2.1656627355	-0.826767189	 0.108899
H	 3.4371447789	-2.1811062891	 0.9421463306	 0.098578
H	 0.9208403165	-2.4473103606	 0.0351389696	 0.063315
H	 1.070052288	-0.3776140485	 2.1644265372	 0.049245
H	-0.9223395888	-0.5175626164	-0.0379714337	 0.063315
220.5033	223.3341	362.8015	397.2616	398.9353	628.8251	699.7163	707.7419	731.5405	760.1965	784.1257	815.2085	828.2228	888.8409	896.3348	931.0966	940.0655	966.6983	989.4295	995.9269	1010.7487	1052.4494	1067.4166	1104.4518	1135.01	1154.1152	1167.3843	1184.9097	1207.6061	1233.0716	1246.1737	1255.1801	1267.5177	1276.7227	1285.1059	1315.8298	1320.9627	1358.2936	1372.6488	1476.7069	1478.2618	1499.9468	1500.0664	3010.2816	3050.3233	3051.2327	3058.5282	3060.807	3089.3718	3090.2458	3094.1474	3099.4297	3107.8028	3108.5963
C1CC23CCC4C2C1N34	C1C[C@@]23CC[C@H]4[C@@H]2[C@@H]1N34	
InChI=1S/C8H11N/c1-3-8-4-2-6-7(8)5(1)9(6)8/h5-7H,1-4H2	InChI=1S/C8H11N/c1-3-8-4-2-6-7(8)5(1)9(6)8/h5-7H,1-4H2/t5-,6+,7+,8-
