13
gdb 128438	4.78713	1.15512	0.93608	3.8768	62.33	-0.3056	-0.0824	0.2232	1160.3369	0.089089	-482.183541	-482.17579	-482.174845	-482.216863	26.452	
C	 0.0664039022	 1.3427373393	 0.0110242631	-0.235314
O	-0.0641391157	-0.0888860792	 0.0053899183	-0.217882
C	-1.3049543044	-0.5444524385	 0.0107797331	 0.57516
N	-2.3575364786	 0.1415859271	 0.0203475814	-0.550362
N	-1.2724248527	-1.9879729925	 0.0039531431	 0.032059
N	-0.1828298385	-2.7540953253	-0.006807869	-0.087351
N	-0.6260348009	-3.966096305	-0.0096613116	-0.071255
N	-1.9845263896	-3.9450750626	-0.0004630244	-0.068774
N	-2.3839991875	-2.7203203061	 0.0081103492	-0.108105
H	 1.1388893661	 1.5307362426	 0.0051078034	 0.152156
H	-0.4113674132	 1.768312923	-0.8741764793	 0.155774
H	-0.4001208982	 1.7602718073	 0.906001924	 0.155766
H	-3.1942637889	-0.43659977	 0.0227382586	 0.268127
53.912	109.8927	168.7291	178.3117	220.8108	324.6711	411.9361	490.3088	687.477	737.9413	757.7495	800.4157	855.6629	931.597	973.707	1089.97	1101.581	1124.7054	1160.9249	1181.3416	1217.4217	1263.1512	1305.0597	1384.9361	1417.8575	1476.7764	1479.7781	1495.2868	1781.0948	3060.1681	3140.363	3176.676	3545.1776
COC(=N)N1N=NN=N1	CO[C]([NH])n1nnnn1	
InChI=1S/C2H4N6O/c1-9-2(3)8-6-4-5-7-8/h3H,1H3	InChI=1S/C2H4N6O/c1-9-2(3)8-6-4-5-7-8/h3H,1H3
