20
gdb 81383	2.55692	1.58074	1.28049	0.9588	73.72	-0.2374	0.0787	0.3161	1063.571	0.172942	-440.256013	-440.247954	-440.24701	-440.288362	31.954	
C	-0.3091786134	 1.5366953322	 0.0303658991	-0.405422
C	 0.0718140525	 0.0565828808	 0.0120838371	 0.120732
O	 0.7869129763	-0.2928396499	-1.1798304668	-0.278818
C	 2.2042472619	-0.3639644797	-1.0754068	-0.094231
C	 2.6366494041	-0.8236973978	 0.3244779844	-0.056064
N	 1.5859435273	-1.6858296046	 0.952045563	-0.347062
C	 0.849994972	-0.4152566519	 1.2519222555	-0.066465
C	 2.2477169079	 0.2516295617	 1.3666127494	 0.193783
O	 2.8531154595	 0.104923943	 2.6253318509	-0.462428
H	 0.5713015532	 2.1850327472	 0.0378507815	 0.123102
H	-0.900610809	 1.7793209308	-0.8563234943	 0.127162
H	-0.908476555	 1.7680789949	 0.9177863041	 0.118329
H	-0.8535758888	-0.5342210051	-0.0443342514	 0.083218
H	 2.5227249569	-1.080685856	-1.8410344102	 0.108706
H	 2.6744540856	 0.6045849953	-1.3121718359	 0.094665
H	 3.6583664251	-1.215505416	 0.3419485428	 0.074656
H	 1.1024446007	-2.2925476571	 0.2912643901	 0.220173
H	 0.221743007	-0.4268189672	 2.1482558027	 0.073878
H	 2.3578468172	 1.2984901891	 1.0802776274	 0.082699
H	 2.7541260588	-0.8254993498	 2.8647663306	 0.289386
93.4838	178.0765	226.1299	251.5316	307.1185	347.8435	398.0833	452.8531	478.352	486.4221	581.3014	694.8994	789.595	838.7345	880.5096	898.9088	922.4513	941.2219	964.5914	1011.8888	1017.5934	1038.6931	1078.8555	1108.6124	1113.6415	1144.9111	1153.1879	1181.4947	1226.2432	1242.3477	1262.2802	1279.0829	1313.6239	1350.4743	1356.4119	1379.2255	1379.9167	1404.2481	1408.8278	1449.0389	1486.0804	1499.7126	1513.8671	2970.4023	3000.9997	3040.0476	3051.535	3061.8894	3067.4583	3104.7744	3112.2797	3124.1351	3469.805	3776.8735
CC1OCC2NC1C2O	C[C@H]1OC[C@@H]2N[C@H]1[C@H]2O	
InChI=1S/C6H11NO2/c1-3-5-6(8)4(7-5)2-9-3/h3-8H,2H2,1H3	InChI=1S/C6H11NO2/c1-3-5-6(8)4(7-5)2-9-3/h3-8H,2H2,1H3/t3-,4+,5-,6+/m1/s1
