15
gdb 66083	2.24065	1.38975	1.11497	4.2876	66.76	-0.2526	-0.0483	0.2043	1115.1229	0.110707	-453.92331	-453.91439	-453.913445	-453.957612	31.442	
O	-0.0642267936	 1.4238482954	-0.154229767	-0.450363
C	 0.0025612259	 0.0265070217	-0.0092779347	 0.257457
C	 0.3471937667	-0.4824954269	 1.427046614	-0.211772
N	-1.0959822786	-0.6513325267	 1.691158961	-0.323557
C	-1.433055986	-0.549966322	 0.2589756223	-0.114214
C	-2.5839602445	 0.3996893676	-0.0535426346	 0.176903
O	-3.2608716116	 0.3118472155	-1.0422483367	-0.237803
C	 0.7617389746	-0.5896614114	-1.0999176142	 0.235226
N	 1.3955120595	-1.0599125735	-1.9445576549	-0.326869
H	 0.8275126995	 1.7737751063	-0.2629493276	 0.301553
H	 0.9358545638	-1.4073339798	 1.4146990428	 0.122411
H	 0.8417026845	 0.2605359189	 2.0612814808	 0.122612
H	-1.361111658	-1.5192992633	 2.140025677	 0.236932
H	-1.5943056051	-1.4938888255	-0.2738578984	 0.111946
H	-2.7456420069	 1.1723815338	 0.7255970802	 0.099539
63.4107	73.51	146.3638	188.7429	230.7036	255.2961	311.2639	379.7207	453.782	465.7694	546.713	576.1749	629.7716	685.4204	905.1245	932.0691	968.6865	986.1981	1017.8843	1041.6654	1085.3373	1138.4538	1155.7238	1185.7411	1260.3549	1291.7759	1334.5337	1360.1785	1383.4062	1400.2234	1501.0436	1835.5414	2351.9415	2931.0347	3026.2068	3050.3605	3081.5428	3557.4328	3805.5525
OC1(CNC1C=O)C#N	O[C@]1(CN[C@H]1C=O)C#N	
InChI=1S/C5H6N2O2/c6-2-5(9)3-7-4(5)1-8/h1,4,7,9H,3H2	InChI=1S/C5H6N2O2/c6-2-5(9)3-7-4(5)1-8/h1,4,7,9H,3H2/t4-,5-/m0/s1
