18
gdb 67671	2.58824	1.8616	1.36006	2.7661	75.63	-0.2376	-0.0126	0.2251	990.5071	0.148835	-401.950599	-401.942906	-401.941962	-401.982717	29.618	
C	 0.0231249641	 1.5394086636	 0.0215838098	-0.503421
C	-0.0902663822	 0.0456993351	 0.0015966407	 0.178858
C	 0.0549203669	-0.8333477975	 1.2140139249	-0.047744
C	-0.7613514882	-2.1124774644	 1.3721146705	-0.261673
C	-0.303127287	-2.9658999707	 0.1626843539	-0.219336
C	 0.3707131655	-1.9328070767	-0.7383534202	-0.125513
N	 1.0907651403	-0.9447213631	 0.1834555138	-0.172847
C	-0.5607074989	-0.7822580091	-1.14858573	 0.391047
O	-1.1966375915	-0.5285518612	-2.1350880511	-0.331693
H	 0.7132266846	 1.8668534395	 0.8039387766	 0.132968
H	 0.3827647144	 1.9146196217	-0.9409156464	 0.141458
H	-0.9547439001	 1.9926837646	 0.2156753182	 0.137177
H	 0.3722126138	-0.3020487266	 2.1078553807	 0.100889
H	-0.5314376222	-2.5984194494	 2.3239030125	 0.114403
H	-1.8363499594	-1.9118663491	 1.3581889072	 0.120674
H	 0.4233764127	-3.7242299352	 0.4704139214	 0.117052
H	-1.127147783	-3.4743278949	-0.3440320067	 0.123655
H	 1.0051848901	-2.3245381368	-1.5332885658	 0.104046
114.5393	135.4727	205.3432	231.6947	240.3453	388.0992	453.6551	556.8255	633.9467	664.3933	705.2598	764.6478	806.0844	841.2565	849.4273	873.9058	923.1554	942.9416	1012.8033	1032.4704	1058.0658	1072.5345	1090.7696	1107.8347	1149.0612	1210.3033	1242.7984	1259.9353	1269.578	1302.9047	1323.3957	1338.7331	1405.1863	1425.4658	1478.6478	1483.367	1489.4492	1504.3669	1872.3153	3040.0084	3055.2875	3062.6477	3096.4874	3107.1529	3113.7706	3121.1104	3127.1293	3146.5918
CC12C3CCC(N13)C2=O	C[C@]12[C@H]3CC[C@H](N13)C2=O	
InChI=1S/C7H9NO/c1-7-5-3-2-4(6(7)9)8(5)7/h4-5H,2-3H2,1H3	InChI=1S/C7H9NO/c1-7-5-3-2-4(6(7)9)8(5)7/h4-5H,2-3H2,1H3/t4-,5+,7+,8?/m0/s1
