15
gdb 93620	2.7206	1.3642	1.06421	4.9723	65.36	-0.2615	-0.061	0.2004	1105.4684	0.112848	-453.956744	-453.948474	-453.947529	-453.990211	30.114	
O	 0.3327922278	 1.2051007505	 0.6361754935	-0.429979
C	 0.0709122826	-0.0720003698	 0.1399078582	 0.058187
C	-1.4115197876	-0.468995871	 0.046581979	-0.217616
N	-1.4524954748	-1.5683107051	-0.9383961831	-0.287699
C	-0.4298429214	-1.2955591006	-1.9550988638	-0.274968
C	-1.0064511473	-0.781919467	-3.2059316927	 0.333131
N	-1.4568055026	-0.3676854775	-4.1854716561	-0.31226
C	 0.5133002998	-0.2346808795	-1.3113562055	 0.363486
O	 1.3770570343	 0.4022654756	-1.8449013478	-0.299104
H	 1.0329689357	 1.583786559	 0.0847290888	 0.299635
H	 0.5996623037	-0.8514386203	 0.7225887147	 0.09724
H	-1.8391050215	-0.7969596481	 0.9944080937	 0.130325
H	-1.9953593218	 0.3851541283	-0.3152731077	 0.142441
H	-1.2665571208	-2.4571656241	-0.4919422322	 0.240635
H	 0.153328504	-2.1911289605	-2.197654739	 0.156546
46.8879	132.2337	154.9958	254.2531	268.7137	348.9064	366.2285	426.0521	474.5518	555.0655	605.5796	620.326	663.4337	735.3183	852.6717	895.4339	975.1478	994.3301	1044.5186	1080.8052	1109.7321	1176.9639	1187.1055	1227.0022	1269.4397	1301.5791	1335.416	1378.5371	1402.1972	1463.9958	1504.4796	1864.0985	2362.8059	2918.5621	3052.1281	3055.6758	3133.502	3564.7159	3731.3676
OC1CNC(C#N)C1=O	O[C@H]1CN[C@@H](C#N)C1=O	
InChI=1S/C5H6N2O2/c6-1-3-5(9)4(8)2-7-3/h3-4,7-8H,2H2	InChI=1S/C5H6N2O2/c6-1-3-5(9)4(8)2-7-3/h3-4,7-8H,2H2/t3-,4-/m0/s1
