20
gdb 92667	2.55934	1.73874	1.41144	1.9834	73.48	-0.2099	0.0709	0.2808	999.0181	0.173911	-440.252711	-440.245085	-440.244141	-440.284682	30.512	
O	 0.2814859977	 1.0103288841	-0.9333734906	-0.437138
C	 0.125596031	-0.1093494926	-0.1039001978	 0.136438
C	 0.0950424446	 0.1269034465	 1.429451915	-0.214687
N	-1.1823617271	-0.622838263	 1.5254709383	-0.079844
C	-2.3097616005	 0.0101311092	 2.1879926686	-0.206057
C	-2.7330564886	 1.3598057633	 1.5438943016	-0.081057
O	-2.3662932945	 1.4439291011	 0.1648626005	-0.266191
C	-2.4162601527	 0.1841894969	-0.501392422	-0.130336
C	-1.3114075941	-0.7130904649	 0.0422843501	-0.025026
H	-0.378545906	 1.6585535795	-0.6507201729	 0.291434
H	 0.8720671315	-0.8385293141	-0.4254294694	 0.092797
H	 0.9047816463	-0.3150827163	 2.0208050629	 0.100405
H	 0.026808808	 1.1950627766	 1.6746147851	 0.092992
H	-3.1501949488	-0.6933699418	 2.1587159401	 0.110948
H	-2.073455431	 0.1664796674	 3.2460878901	 0.111797
H	-3.8197731085	 1.5026064487	 1.6507471082	 0.095091
H	-2.2402517501	 2.2078920727	 2.0285731124	 0.113687
H	-3.4070859819	-0.280005599	-0.3846340896	 0.100254
H	-2.2598922083	 0.387872703	-1.5643682711	 0.126454
H	-1.4371754469	-1.7408547871	-0.3231933396	 0.06804
98.7387	162.4684	209.5638	301.9291	345.5847	413.9619	447.6847	482.4809	550.0099	605.5533	681.4266	747.564	791.2969	817.0568	828.9198	881.2216	937.9005	970.9919	992.0904	1029.288	1046.8124	1064.681	1107.8733	1121.1679	1156.4983	1170.2383	1224.6414	1230.3647	1250.3834	1269.1238	1286.4198	1306.6862	1322.882	1334.468	1359.5757	1367.2891	1381.7302	1412.9038	1459.8518	1484.3935	1494.9563	1506.4624	1514.9225	2981.5636	2991.1031	3008.7889	3014.114	3032.8077	3056.4238	3064.7714	3084.9505	3094.4609	3094.8591	3744.2889
OC1CN2CCOCC12	O[C@H]1CN2CCOC[C@@H]12	
InChI=1S/C6H11NO2/c8-6-3-7-1-2-9-4-5(6)7/h5-6,8H,1-4H2	InChI=1S/C6H11NO2/c8-6-3-7-1-2-9-4-5(6)7/h5-6,8H,1-4H2/t5-,6-/m0/s1
