13
gdb 24545	3.98747	1.74679	1.21468	3.7987	76.63	-0.2193	-0.1038	0.1155	919.9205	0.092467	-415.621795	-415.615911	-415.614967	-415.651946	23.548	
O	-0.0380595508	 1.3609444391	 0.010305746	-0.194853
C	 1.1450664454	 1.9956827545	 0.0017793758	 0.036689
C	 2.3399710455	 1.3464421138	-0.0139025462	-0.098054
N	 2.4566539316	-0.0262574407	-0.0225918664	-0.322307
C	 1.3264566631	-0.6643585664	-0.014619365	 0.273747
C	 0.9863463509	-2.0674491766	-0.0185422299	-0.111392
N	-0.3137502331	-2.2211044256	-0.0065852029	-0.215362
C	-0.937681673	-0.9544069708	 0.0066323827	-0.18993
C	 0.0120883521	 0.0047499293	 0.0023759325	 0.291784
H	 1.0307175018	 3.0714593472	 0.0088136271	 0.154684
H	 3.2580959183	 1.9204242328	-0.0200725004	 0.130658
H	 1.6755243811	-2.9009367542	-0.0299011884	 0.124524
H	-2.013066033	-0.8747771024	 0.0178568148	 0.119811
191.8626	259.2231	386.2618	448.6339	528.7062	555.9577	610.2706	640.6221	729.6248	758.1163	817.9027	825.568	846.3954	858.7438	924.1194	926.6838	1033.6393	1054.2453	1120.5272	1220.6213	1261.5461	1271.264	1299.6847	1334.435	1426.3645	1469.8326	1547.904	1638.275	1669.3124	3209.7446	3226.8757	3237.8881	3257.2737
O1C=CN=C2C=NC=C12	o1ccnc2cncc12	
InChI=1S/C6H4N2O/c1-2-9-6-4-7-3-5(6)8-1/h1-4H	InChI=1S/C6H4N2O/c1-2-9-6-4-7-3-5(6)8-1/h1-4H
