20
gdb 13283	6.66481	0.85025	0.7994	1.3983	72.37	-0.2445	0.0775	0.322	1476.0829	0.175936	-386.113203	-386.10406	-386.103116	-386.148356	31.514	
C	 0.0948258605	 1.0707764851	-0.8243580616	-0.385031
C	-0.0856531129	-0.0368585312	 0.1995390385	-0.023387
O	-1.3824896472	-0.5800778385	 0.0533629671	-0.248901
C	-1.6600375033	-1.6223975359	 0.9591627099	-0.070939
C	-3.0743903462	-2.104230902	 0.6927586477	 0.13569
C	-3.3078397116	-2.9812335091	-0.5553948798	-0.279299
C	-3.7373411431	-4.0579326924	 0.4615640199	-0.061066
O	-3.4304402872	-3.1911298796	 1.5766840001	-0.296015
H	 1.0919040224	 1.5125389337	-0.7366514272	 0.114984
H	-0.0236585121	 0.6787668965	-1.8385530424	 0.125711
H	-0.6489339143	 1.8581866235	-0.6728255143	 0.127051
H	 0.6737084193	-0.8244647921	 0.0566437863	 0.08553
H	 0.0476038224	 0.3544297666	 1.222348851	 0.087279
H	-0.9518788908	-2.4594696926	 0.8347743606	 0.08357
H	-1.5807922076	-1.2787571971	 2.0045433256	 0.093629
H	-3.7693369942	-1.2598732874	 0.7903229287	 0.081799
H	-4.0814207531	-2.6362901069	-1.2419446757	 0.112381
H	-2.4012010213	-3.2064308575	-1.1198670641	 0.112222
H	-4.8004128311	-4.3283533485	 0.4389368135	 0.101771
H	-3.1403292786	-4.9773510646	 0.4830892862	 0.103022
51.9944	68.6801	83.9758	117.3042	157.1722	248.6366	292.9191	331.5885	439.1034	501.7158	766.2564	803.034	822.5604	882.9007	899.1606	941.0846	952.3095	1018.9079	1039.4773	1048.1746	1120.4771	1144.2371	1156.6706	1166.1565	1176.0527	1195.6794	1213.1571	1252.8333	1255.1571	1276.5768	1297.863	1345.0965	1375.1071	1395.8672	1408.5795	1450.9073	1483.7169	1490.8129	1499.6303	1513.281	1530.469	1535.9514	2948.4724	2960.8108	2979.4088	2984.2911	3014.7955	3024.2316	3044.8667	3055.5106	3083.4789	3119.46	3121.4182	3139.2097
CCOCC1CCO1	CCOC[C@H]1CCO1	
InChI=1S/C6H12O2/c1-2-7-5-6-3-4-8-6/h6H,2-5H2,1H3	InChI=1S/C6H12O2/c1-2-7-5-6-3-4-8-6/h6H,2-5H2,1H3/t6-/m1/s1
