18
gdb 15602	3.02174	1.81004	1.26739	2.3749	68.34	-0.246	-0.0231	0.2229	975.3223	0.153497	-384.958762	-384.950589	-384.949645	-384.992448	29.295	
C	-0.0963392192	 1.5359662787	-0.0753671975	-0.419189
C	 0.0632899388	 0.0266731667	 0.0040198479	 0.120924
O	 0.8633494937	-0.4260339518	-1.0764228382	-0.245623
C	 1.1887359147	-1.7737822636	-0.7868893337	-0.076622
C	 1.4838706316	-1.8118091629	 0.7299613032	-0.262199
C	 0.7534360429	-0.5559686709	 1.2836081445	-0.093131
C	 1.7414372533	 0.4140573656	 1.8906947237	 0.15995
O	 1.6257529951	 0.9279390787	 2.9735759186	-0.259421
H	 0.8740406155	 2.039823296	-0.0691300002	 0.130692
H	-0.6137933624	 1.8084827086	-0.9987599094	 0.129225
H	-0.6823228702	 1.902434311	 0.7723343094	 0.131768
H	-0.9330039169	-0.4445789577	-0.0594066163	 0.073309
H	 0.3423301692	-2.4355827667	-1.0310059814	 0.093666
H	 2.0397532533	-2.0590004477	-1.4096259719	 0.112955
H	 1.1316949801	-2.7313012653	 1.2015338469	 0.116255
H	 2.5615108593	-1.743942517	 0.9124259562	 0.114013
H	 0.0109886539	-0.7920597093	 2.0486615117	 0.092885
H	 2.6263497374	 0.6268964976	 1.2458234265	 0.080544
31.6726	74.4093	202.3248	224.8217	241.5618	325.4744	348.5	431.2801	504.9881	652.6792	675.9823	818.3972	864.6291	889.7726	918.6894	945.2728	1006.8366	1030.789	1053.7396	1096.2651	1128.7792	1156.1452	1167.1121	1219.5853	1245.0556	1275.153	1287.9036	1325.5768	1353.3132	1383.7619	1398.2015	1415.3143	1427.7718	1480.8867	1490.4063	1502.2014	1519.3486	1829.8299	2857.1164	2944.3471	2977.0297	3048.4631	3049.4517	3092.184	3100.6484	3114.9839	3123.5945	3125.1535
CC1OCCC1C=O	C[C@H]1OCC[C@H]1C=O	
InChI=1S/C6H10O2/c1-5-6(4-7)2-3-8-5/h4-6H,2-3H2,1H3	InChI=1S/C6H10O2/c1-5-6(4-7)2-3-8-5/h4-6H,2-3H2,1H3/t5-,6+/m1/s1
