22
gdb 36876	4.4163	0.93239	0.90764	1.0006	87.2	-0.2299	0.0898	0.3197	1395.5439	0.195926	-367.121673	-367.113618	-367.112674	-367.155098	31.731	
C	 0.6099219128	 1.5614140433	 0.846262352	-0.215754
C	 0.4091203407	 0.0662995606	 0.6504922982	 0.080047
C	-0.5309010473	-0.766305265	 1.5810588528	-0.063524
C	-1.7537857044	-0.1692558576	 0.8227199093	-0.223879
C	-0.7085039436	-0.5241539432	-0.2756602315	-0.043912
C	-0.4976388773	-1.8677352017	 0.4810095097	-0.21683
N	 1.364912696	 2.1196333146	-0.2754262153	-0.059448
C	 0.5773738992	 2.6492483955	-1.3841941964	-0.21518
C	 1.2881654094	 3.5646648176	-0.4493453196	-0.221519
H	-0.3437152682	 2.0939983488	 0.9980619995	 0.078878
H	 1.2076412334	 1.720057977	 1.7535409083	 0.101189
H	 1.3901284621	-0.3936938842	 0.4886389341	 0.071294
H	-0.4286779078	-0.9105561759	 2.6584678342	 0.065345
H	-2.6652842547	-0.7737839588	 0.8307088072	 0.087754
H	-1.9910924659	 0.883206505	 0.9847422331	 0.088808
H	-0.8111664432	-0.3901328959	-1.3535678999	 0.068112
H	 0.4569717602	-2.3773293013	 0.3232460944	 0.088944
H	-1.3362578847	-2.5692042692	 0.4706718055	 0.086147
H	 0.9687667858	 2.4599815207	-2.3797701786	 0.114509
H	-0.5080579674	 2.6067779031	-1.3054112342	 0.108319
H	 0.6754325513	 4.1320941819	 0.2500728462	 0.105955
H	 2.2098909635	 4.0561293847	-0.7480375192	 0.114744
56.1932	74.042	142.132	286.812	339.8933	345.3774	417.3521	565.3161	597.1472	758.9987	767.8047	791.6848	833.9673	836.8896	882.7738	900.4149	903.6031	926.827	992.398	1007.4589	1017.7575	1030.0644	1034.5328	1044.132	1095.7158	1104.2289	1112.6395	1116.2076	1119.3893	1145.698	1161.3741	1171.6194	1187.0672	1190.2384	1215.0856	1244.8047	1247.6224	1267.6529	1286.4515	1319.2023	1364.5584	1432.2178	1484.8473	1492.7627	1504.6335	1521.6622	1541.5358	2958.6665	3031.2386	3046.5581	3050.9789	3058.1389	3090.063	3091.2092	3095.4858	3100.9282	3113.7189	3122.326	3173.4946	3187.9628
C(C1C2CC1C2)N1CC1	C([C@H]1[C@H]2C[C@@H]1C2)N1CC1	
InChI=1S/C8H13N/c1-2-9(1)5-8-6-3-7(8)4-6/h6-8H,1-5H2	InChI=1S/C8H13N/c1-2-9(1)5-8-6-3-7(8)4-6/h6-8H,1-5H2/t6-,7+,8-
