17
gdb 80125	2.63093	1.48229	1.23839	3.1673	74.71	-0.2405	-0.0222	0.2183	1048.7117	0.135804	-421.831023	-421.823166	-421.822222	-421.863259	30.398	
O	-0.0000248573	 1.3579074668	-0.1251707461	-0.416423
C	-0.0487820896	-0.0201009922	-0.007792341	 0.082926
C	-0.4007521513	-0.7354790903	 1.2610558539	-0.186022
C	-1.11432209	 0.0704301156	 2.2918004667	-0.094625
C	-2.2887624406	 0.5356788291	 1.8508865448	-0.09585
C	-2.6066215174	 0.0657713156	 0.450039538	-0.345671
C	-1.3879171674	-0.7604218702	 0.0493982585	 0.18773
C	-1.5558463809	-1.9783768402	-0.7586501448	 0.078781
O	-2.612670318	-2.3848097431	-1.1821562044	-0.273582
H	-0.4229104437	 1.735702943	 0.6580884519	 0.289173
H	 0.7143149809	-0.4829318448	-0.6269216455	 0.117381
H	 0.1708018243	-1.6125893444	 1.5465946669	 0.102526
H	-0.6886850728	 0.2578291189	 3.2708336842	 0.110935
H	-2.9539819745	 1.1816287327	 2.4129462991	 0.108788
H	-3.5135623468	-0.5472752173	 0.4052105911	 0.142117
H	-2.7616924668	 0.9078650665	-0.2368598547	 0.128171
H	-0.6060548678	-2.5240920058	-0.9695378688	 0.063642
99.9429	200.3474	206.9226	226.3255	279.8207	361.698	403.6495	437.9664	555.9251	603.0955	670.6906	710.6626	761.9782	775.4842	845.8146	870.2979	944.694	960.8923	982.4848	1011.6924	1030.4163	1052.6973	1082.6615	1108.8963	1142.1836	1177.8703	1217.5728	1268.2369	1308.9112	1328.7122	1360.996	1378.6875	1435.7653	1448.8561	1476.668	1659.918	1800.9052	2851.6053	3031.6891	3071.6822	3154.9959	3165.3229	3189.9983	3213.4937	3742.1431
OC1C2C=CCC12C=O	O[C@H]1[C@H]2C=CC[C@@]12C=O	
InChI=1S/C7H8O2/c8-4-7-3-1-2-5(7)6(7)9/h1-2,4-6,9H,3H2	InChI=1S/C7H8O2/c8-4-7-3-1-2-5(7)6(7)9/h1-2,4-6,9H,3H2/t5-,6+,7+/m1/s1
