17
gdb 67203	2.85633	1.51718	1.21638	1.7291	77.46	-0.2299	0.0486	0.2785	1054.4949	0.13456	-384.587762	-384.579856	-384.578912	-384.620024	30.862	
C	-0.000968545	 1.6047602984	-0.2140941926	-0.534781
C	 0.0265972454	 0.1210948591	-0.058415605	 0.297216
C	 0.0814464892	-1.0483774863	-0.9812633725	 0.004917
O	 1.1921544308	-1.6860785139	-0.3487851997	-0.28645
C	 0.8768770217	-0.8872640239	 0.8164413834	 0.018536
C	-0.4555797947	-1.5265145681	 1.3411442472	-0.201385
C	-0.9597428197	-0.9113715615	 2.5532739378	 0.321101
C	-1.3583167174	-0.3963610493	 3.5645480255	-0.464435
C	-1.059383305	-0.949027234	 0.051281256	-0.151209
H	 0.9782421369	 1.9949894933	-0.5127389491	 0.128953
H	-0.7255081264	 1.8953433883	-0.9823725794	 0.126618
H	-0.2934949165	 2.0948118647	 0.7206294378	 0.135275
H	-0.0561873502	-1.1586181203	-2.0491449041	 0.11176
H	 1.7222782939	-0.6921844237	 1.4724569002	 0.097582
H	-0.4176955731	-2.6178795196	 1.4328868701	 0.102917
H	-1.7166400339	 0.0485668608	 4.459487405	 0.194483
H	-2.1050706661	-0.8778139241	-0.2195909207	 0.098902
98.6511	149.7286	204.6917	234.0639	272.4232	389.7803	483.7725	499.982	561.8168	608.2931	614.4562	647.9562	773.2212	791.865	846.4549	854.3968	888.1826	917.9378	969.3335	973.2141	1007.1828	1020.9318	1035.8638	1091.0796	1116.9737	1146.7333	1169.6377	1202.2301	1215.625	1241.3156	1285.1535	1336.0089	1410.466	1465.9781	1483.7351	1497.0827	2233.5372	3027.2566	3044.9423	3092.5657	3097.3549	3151.1154	3198.7776	3208.8148	3504.4181
CC12C3OC1C(C#C)C23	C[C@@]12[C@H]3O[C@@H]1[C@@H](C#C)[C@@H]23	
InChI=1S/C8H8O/c1-3-4-5-7-8(5,2)6(4)9-7/h1,4-7H,2H3	InChI=1S/C8H8O/c1-3-4-5-7-8(5,2)6(4)9-7/h1,4-7H,2H3/t4-,5+,6+,7-,8-/m0/s1
