15
gdb 85356	2.89674	1.42844	1.10786	1.284	69.82	-0.2544	-0.0994	0.155	1062.5103	0.112587	-457.805641	-457.797717	-457.796773	-457.838558	29.334	
O	 0.0861590893	 1.3955484152	 0.0864061029	-0.428007
C	 0.007820228	-0.0274451014	 0.0241848194	 0.003657
C	-1.4720015513	-0.390659844	-0.0068808078	-0.343288
C	-2.1477142743	-0.038485607	-1.3245361939	 0.393506
O	-3.3083484563	 0.3014606801	-1.3935561754	-0.313939
C	-1.3253874763	-0.2024056058	-2.5533745922	-0.13561
C	-0.0026806802	-0.4212439727	-2.5154727016	-0.140837
C	 0.7550609879	-0.4677141387	-1.2431548724	 0.35509
O	 1.9361709182	-0.7473643516	-1.2108021055	-0.326812
H	 1.017542695	 1.6367388947	 0.1492052714	 0.298659
H	 0.5065186775	-0.4891097346	 0.8859581864	 0.094845
H	-1.5772762971	-1.4750817344	 0.1301292838	 0.137238
H	-2.0061144544	 0.100771486	 0.8092817349	 0.143913
H	-1.8703686769	-0.1283467162	-3.4899556354	 0.131356
H	 0.5856166209	-0.5628352296	-3.4176632146	 0.130229
65.2649	96.4014	213.3235	279.592	336.2267	381.2269	414.228	441.1865	469.1188	548.1538	603.348	700.4669	736.0159	742.4659	881.2991	905.4866	943.5172	998.7722	1041.89	1062.1962	1102.9311	1198.7233	1212.5117	1226.5865	1300.9943	1335.5678	1355.1706	1384.7704	1415.0749	1445.7119	1663.6366	1779.4347	1790.2029	3023.8497	3039.7934	3116.0959	3172.8118	3192.4754	3803.5563
OC1CC(=O)C=CC1=O	O[C@H]1CC(=O)C=CC1=O	
InChI=1S/C6H6O3/c7-4-1-2-5(8)6(9)3-4/h1-2,6,9H,3H2	InChI=1S/C6H6O3/c7-4-1-2-5(8)6(9)3-4/h1-2,6,9H,3H2/t6-/m0/s1
