21
gdb 88550	2.98831	1.30292	1.15509	2.2396	82.74	-0.2286	0.0718	0.3004	1176.1609	0.183618	-383.199093	-383.190531	-383.189587	-383.232661	33.064	
C	-0.8774868984	 1.2462875916	 0.177826837	-0.402797
C	-0.066887526	-0.0168074042	 0.0174038702	 0.016809
N	 1.3514542986	 0.1222510292	-0.3546740636	-0.342231
C	 1.0070956425	-0.4862521842	 0.9439917296	-0.182582
C	 1.4942796605	 0.1995549622	 2.1722589964	 0.393076
C	 0.724280935	 0.2839875072	 3.4311685973	-0.283786
N	 1.0098989546	 1.5410222367	 2.7120383107	-0.160294
C	 2.440263044	 1.8713202088	 3.0458989275	-0.149998
C	 2.9634318086	 0.5546429894	 2.419127394	-0.308571
H	-0.3145154984	 2.008105748	 0.7158289595	 0.160346
H	-1.1619787353	 1.6321952231	-0.8074890928	 0.108743
H	-1.798328987	 1.042683582	 0.7358316321	 0.106964
H	-0.6082336091	-0.8275066853	-0.4724283511	 0.077341
H	 1.6220637204	-0.5943668041	-1.0224203447	 0.227268
H	 1.1105170461	-1.5710930209	 1.014655525	 0.080577
H	-0.3256004267	 0.0086064479	 3.3953312962	 0.118162
H	 1.2105825346	 0.1022036357	 4.3886618928	 0.104267
H	 2.7505016442	 2.769778096	 2.5099004786	 0.115332
H	 2.6088958831	 2.0180684306	 4.1181370256	 0.100643
H	 3.5387585954	-0.1303034807	 3.0494515331	 0.094778
H	 3.5013375332	 0.7247326911	 1.4853586665	 0.125952
41.9552	150.7664	158.4113	208.4596	240.4458	305.8336	382.6984	448.2477	504.9738	528.7829	629.8011	743.9576	781.4418	784.5953	821.5948	843.4687	886.292	931.4193	942.9061	976.237	996.6273	1017.4383	1021.4723	1073.7596	1096.8607	1104.2643	1122.7126	1154.1001	1189.4425	1205.0658	1216.1524	1227.6708	1261.2383	1268.2454	1277.3542	1312.6403	1359.8646	1406.4772	1438.3185	1472.6734	1483.4487	1490.2539	1492.4514	1502.6408	1518.0161	3033.1826	3044.5667	3055.1108	3075.4737	3088.8937	3092.1506	3092.8493	3110.0695	3129.598	3162.8104	3190.0851	3502.8515
CC1NC1C12CN1CC2	C[C@H]1N[C@H]1[C@]12CN1CC2	
InChI=1S/C7H12N2/c1-5-6(8-5)7-2-3-9(7)4-7/h5-6,8H,2-4H2,1H3	InChI=1S/C7H12N2/c1-5-6(8-5)7-2-3-9(7)4-7/h5-6,8H,2-4H2,1H3/t5-,6-,7+,9?/m1/s1
