18
gdb 9705	3.5502	1.58178	1.52593	0.7957	79.03	-0.2434	0.0177	0.2611	943.1804	0.153202	-310.650655	-310.6426	-310.641656	-310.682704	31.078	
C	 0.1615586487	 1.3863494529	 0.0122248685	-0.420854
C	-0.1174037379	-0.1378557489	-0.0005130629	 0.090912
C	 0.5885355213	-0.8462095519	-1.2087771759	-0.249289
C	 1.9100091585	-1.4270171014	-0.648120294	-0.262446
C	 1.6570280668	-1.4785315438	 0.8388181644	-0.073585
C	 0.5649332171	-0.8064710431	 1.1896820277	-0.084277
C	-1.563505021	-0.3643738294	-0.0038158447	 0.306643
C	-2.7535041413	-0.5390889985	-0.0050914665	-0.486254
H	 1.2391548591	 1.5713519734	-0.0339855721	 0.115604
H	-0.3174740967	 1.8720923456	-0.8430663892	 0.122872
H	-0.2269243403	 1.8460003568	 0.9255045529	 0.122218
H	-0.0495286222	-1.6593038238	-1.5621297434	 0.116867
H	 0.738823016	-0.1586860481	-2.0448496566	 0.10147
H	 2.1402080622	-2.4100418415	-1.0740305865	 0.106745
H	 2.7752219309	-0.7883355765	-0.8738873184	 0.107772
H	 2.3237587655	-1.9839453471	 1.5291495171	 0.095362
H	 0.1879288304	-0.6746524605	 2.1973155552	 0.099521
H	-3.8028103772	-0.7011661242	-0.0060291358	 0.190721
86.7105	156.6204	179.7875	260.7196	267.0823	339.1863	456.1508	507.4242	529.0771	571.6875	618.1811	625.7031	710.7133	759.2237	785.8504	849.734	922.7228	938.6286	956.1123	972.4513	991.6547	1009.0386	1092.6913	1119.0987	1175.2613	1182.9387	1226.0752	1249.7146	1315.1293	1318.9154	1371.0736	1406.1748	1481.3249	1487.2469	1496.7748	1499.9542	1688.9455	2229.699	3011.7682	3036.0753	3053.8308	3069.7078	3112.9519	3113.6233	3116.8604	3183.8017	3211.2629	3502.7094
CC1(CCC=C1)C#C	C[C@]1(CCC=C1)C#C	
InChI=1S/C8H10/c1-3-8(2)6-4-5-7-8/h1,4,6H,5,7H2,2H3	InChI=1S/C8H10/c1-3-8(2)6-4-5-7-8/h1,4,6H,5,7H2,2H3/t8-/m0/s1
