23
gdb 111756	2.53316	1.16502	0.97055	1.4261	86.11	-0.2271	0.0755	0.3027	1377.0322	0.204749	-388.260668	-388.25084	-388.249896	-388.29565	36.634	
C	 0.1048363783	 1.4013158672	-0.440762331	-0.371026
C	-0.0164798633	 0.0508138468	 0.2744684126	-0.214064
C	-1.4043347233	-0.549100087	 0.1790705938	-0.059429
C	-1.9924060238	-1.1838382809	-1.0777136946	-0.224337
C	-0.9460155593	-2.0583395749	-1.7536483158	-0.096943
O	-0.6428706798	-2.7370232069	-0.5067922457	-0.32412
C	-1.7035082355	-2.0205432735	 0.1573878838	 0.453464
C	-2.5397551496	-2.7983043386	 1.1256329205	-0.285797
C	-1.7289203814	-3.2718980968	 2.3405451043	-0.375799
H	 1.1174879367	 1.8075517839	-0.3529073357	 0.110288
H	-0.1282869311	 1.3050269943	-1.5065006827	 0.116076
H	-0.5871573484	 2.1388086174	-0.0188402673	 0.110596
H	 0.7111308482	-0.6600519016	-0.1289616024	 0.115537
H	 0.2408669099	 0.1726862023	 1.3345450453	 0.094472
H	-2.1712690113	 0.0089024306	 0.716327917	 0.08193
H	-2.9343509683	-0.8757364244	-1.5126893649	 0.092277
H	-1.3706907126	-2.762027414	-2.4788641684	 0.106865
H	-0.0641036441	-1.5736495006	-2.1897115343	 0.101898
H	-3.3764984243	-2.1681079624	 1.449252766	 0.09967
H	-2.9714964855	-3.6647064282	 0.6094948592	 0.104112
H	-0.8812374016	-3.8840726001	 2.0197423397	 0.137638
H	-1.3347678937	-2.4220153672	 2.9069749657	 0.116956
H	-2.3474937763	-3.8719867153	 3.014385615	 0.109734
63.3054	86.184	117.4879	186.1029	202.9592	218.6784	274.3577	301.1709	319.8448	390.2602	526.7801	536.7402	702.6586	729.1236	777.2914	810.3087	821.9121	886.4676	931.4878	961.0977	971.263	978.9986	997.0472	1005.1251	1023.26	1073.8397	1106.673	1110.7897	1117.1912	1156.3129	1180.3488	1196.1491	1248.3262	1288.6683	1292.6257	1328.0645	1338.9603	1358.1537	1374.5534	1406.8563	1409.3113	1472.9549	1480.9402	1490.6996	1497.3922	1498.2497	1508.0861	1511.8645	1522.6582	3019.7976	3026.309	3026.9958	3029.5956	3039.6924	3064.1818	3065.6679	3075.0161	3099.021	3102.2333	3108.8537	3115.4263	3119.1656	3192.852
CCC1C2COC12CC	CC[C@H]1[C@H]2CO[C@@]12CC	
InChI=1S/C8H14O/c1-3-6-7-5-9-8(6,7)4-2/h6-7H,3-5H2,1-2H3	InChI=1S/C8H14O/c1-3-6-7-5-9-8(6,7)4-2/h6-7H,3-5H2,1-2H3/t6-,7+,8-/m0/s1
