21
gdb 121047	4.18742	0.7963	0.69878	2.5009	80.09	-0.2366	-0.0163	0.2203	1639.8301	0.181391	-424.259921	-424.250432	-424.249487	-424.295149	34.644	
C	-0.0372934868	 1.4903582896	 0.0851463973	-0.384495
C	-0.0387691204	-0.0096666474	-0.1557865825	-0.041981
O	-1.3335204802	-0.5066604397	 0.133163713	-0.253876
C	-1.4639440547	-1.9041200284	 0.0205859468	 0.136263
C	-2.8228174985	-2.331921017	 0.6038714857	-0.247457
C	-3.0839639324	-3.718311358	 0.0014522097	-0.322607
C	-2.3639003253	-3.7048294843	-1.353477253	 0.398915
O	-2.4632429973	-4.5424040041	-2.2112005056	-0.310412
C	-1.4903902244	-2.4476979135	-1.4215125391	-0.344512
H	 0.950758472	 1.9095064081	-0.1269901134	 0.115913
H	-0.7692658562	 1.9829443006	-0.5611684083	 0.127386
H	-0.2946524726	 1.7123622541	 1.12461795	 0.126976
H	 0.2372027249	-0.2300172917	-1.1991633947	 0.09093
H	 0.7068614866	-0.5067870027	 0.4874253327	 0.086939
H	-0.6500867454	-2.3984097618	 0.5791596518	 0.068061
H	-2.8258885821	-2.3146961587	 1.6956269462	 0.108575
H	-3.5735557187	-1.6120212066	 0.2593558251	 0.117751
H	-2.6263229404	-4.5146415388	 0.6033323017	 0.132482
H	-4.137798628	-3.9803208407	-0.1180882286	 0.13197
H	-2.0009434923	-1.717855476	-2.0649722509	 0.137596
H	-0.5201323179	-2.666556623	-1.871735784	 0.125585
58.367	85.4883	90.3567	123.5041	203.0576	249.3451	318.5791	373.3414	448.4651	481.9612	504.3304	563.5095	601.1092	735.3957	808.2248	821.7474	868.1627	903.5497	923.5209	949.8272	991.9113	1048.4913	1086.5245	1127.1642	1144.7815	1161.2346	1163.2782	1186.9978	1211.9234	1235.2723	1253.1801	1297.2931	1299.8375	1314.9464	1350.9315	1379.1841	1405.1129	1438.0117	1449.3561	1453.6604	1483.3488	1500.1996	1501.2291	1529.9842	1848.7805	2948.7464	2962.6804	2992.9426	3031.4188	3034.7954	3045.5189	3054.0179	3105.8247	3113.5654	3115.1441	3120.1657	3122.3534
CCOC1CCC(=O)C1	CCO[C@H]1CCC(=O)C1	
InChI=1S/C7H12O2/c1-2-9-7-4-3-6(8)5-7/h7H,2-5H2,1H3	InChI=1S/C7H12O2/c1-2-9-7-4-3-6(8)5-7/h7H,2-5H2,1H3/t7-/m0/s1
