18
gdb 63795	3.21961	1.29263	1.26107	3.6031	71.9	-0.2391	-0.0014	0.2377	1069.0475	0.146613	-439.074971	-439.066634	-439.06569	-439.107682	32.259	
C	 0.0373807712	 1.5482348477	-0.0941882143	-0.463537
C	 0.005596746	 0.0278255135	-0.016562096	 0.376341
O	-1.3126641313	-0.4675648963	-0.1118325614	-0.472366
C	 1.0630556499	-0.7037050452	-0.9256687687	-0.242936
N	 1.7840190566	-1.1711197354	 0.2976939842	-0.131102
C	 0.7087473391	-0.6474842221	 1.2078087663	-0.010877
C	 1.7743109682	 0.0991683117	 2.0396643265	-0.39807
C	 2.72971483	-0.2856838634	 0.8819436829	 0.381265
O	 3.8049945773	 0.071914561	 0.4983915582	-0.320068
H	 1.0532645286	 1.9447059787	-0.012172289	 0.137617
H	-0.3598075723	 1.882123397	-1.060996308	 0.115396
H	-0.5767830726	 1.9848531577	 0.6992975432	 0.132047
H	-1.747310344	-0.0409552969	-0.8583418891	 0.280811
H	 0.6305418331	-1.5393548032	-1.4808662657	 0.119669
H	 1.6799834921	-0.0888446493	-1.5868973846	 0.122992
H	 0.0806356918	-1.3856891088	 1.7076160436	 0.097422
H	 1.6579987617	 1.173712633	 2.189945922	 0.13626
H	 2.0025023448	-0.3709691097	 2.9995083099	 0.139138
72.6991	165.6716	225.4186	267.3722	283.8047	324.0887	367.218	398.999	458.0525	487.5264	534.5173	616.9746	699.898	777.2108	819.7028	865.6284	915.2882	957.6114	966.856	985.7037	998.4002	1039.6992	1083.6251	1112.7769	1128.0452	1175.5555	1185.5858	1211.3657	1228.1818	1251.6028	1285.118	1328.9944	1376.997	1410.138	1441.855	1488.7203	1491.7189	1497.0311	1885.8937	3025.8076	3057.2744	3077.0057	3093.0667	3110.547	3117.9524	3121.5802	3136.1694	3804.6177
CC1(O)CN2C1CC2=O	C[C@@]1(O)CN2[C@H]1CC2=O	
InChI=1S/C6H9NO2/c1-6(9)3-7-4(6)2-5(7)8/h4,9H,2-3H2,1H3	InChI=1S/C6H9NO2/c1-6(9)3-7-4(6)2-5(7)8/h4,9H,2-3H2,1H3/t4-,6+/m0/s1
