17
gdb 51539	6.39197	0.69379	0.67213	3.2245	73.95	-0.2503	0.0126	0.2629	1612.668	0.135912	-455.173882	-455.164742	-455.163798	-455.21053	30.944	
O	 0.1824059302	-0.399675675	 0.4386513371	-0.312071
C	-0.0478278712	 0.773825603	 0.2505558086	 0.156063
N	 0.8874264297	 1.7155446972	-0.0735169591	-0.284727
C	 2.2839941205	 1.4129024678	-0.2183224591	 0.026208
C	 2.9636930462	 1.7401918238	-1.5894376573	-0.204121
N	 3.9453603971	 2.5345494483	-0.8492068333	-0.040139
C	 3.3007270309	 2.3874584525	 0.4532873388	-0.197073
C	 5.0270683373	 3.2619278453	-1.2038374231	 0.131573
O	 5.6907359814	 3.9216216214	-0.4306053991	-0.326937
H	-1.0610010995	 1.2141419693	 0.3247018277	 0.084136
H	 0.5767177802	 2.665840987	-0.2069838071	 0.251198
H	 2.4093467086	 0.3737864278	 0.0806163286	 0.14175
H	 3.3748102676	 0.8833938071	-2.1325616488	 0.131833
H	 2.3311135758	 2.3262311471	-2.2680507114	 0.11333
H	 2.8589222775	 3.3178128096	 0.8312951466	 0.11782
H	 3.9411483767	 1.9617707191	 1.2308065138	 0.13941
H	 5.244501891	 3.1814273289	-2.2889412629	 0.071745
17.6306	34.3034	85.6325	159.7504	206.6765	228.9852	312.5165	375.0686	426.4778	530.9295	543.0571	706.9374	804.1351	854.6152	880.2018	956.5063	997.6649	1033.5446	1036.6465	1054.4371	1127.8641	1133.9805	1170.1016	1190.7295	1239.4869	1272.6568	1282.0004	1315.6335	1368.911	1401.5587	1431.7859	1452.4606	1504.9367	1524.0291	1536.454	1791.8056	1811.3228	2922.6988	2949.0765	3019.2945	3030.976	3077.119	3090.4394	3146.1759	3621.0969
O=CNC1CN(C1)C=O	O=CNC1CN(C1)C=O	
InChI=1S/C5H8N2O2/c8-3-6-5-1-7(2-5)4-9/h3-5H,1-2H2,(H,6,8)	InChI=1S/C5H8N2O2/c8-3-6-5-1-7(2-5)4-9/h3-5H,1-2H2,(H,6,8)
