21
gdb 59308	2.61728	1.23531	0.92898	1.5024	80.59	-0.2473	0.0211	0.2685	1320.0148	0.182201	-420.410293	-420.400347	-420.399403	-420.445091	36.76	
C	-0.2178605575	 1.479059744	-0.1822498237	-0.393869
C	-0.0537373325	-0.0355733447	 0.0033511595	 0.020537
C	 0.92638953	-0.3688675794	 1.138083148	-0.402169
C	-1.4018956356	-0.6868143475	 0.2752187894	 0.129452
O	-2.3898583643	-0.4057032805	-0.7840660704	-0.269244
C	-2.50017296	-1.7369637022	-1.1141599484	 0.404014
N	-3.1107465937	-2.3060047709	-2.0511091674	-0.550195
C	-1.5878448116	-2.2141699163	 0.0105913915	-0.132362
N	-0.4290355325	-3.0335471891	-0.2731650264	-0.511599
H	 0.7430214882	 1.9436200113	-0.4245612279	 0.112284
H	-0.923488293	 1.7037007598	-0.9858851951	 0.132066
H	-0.5916809853	 1.9464478066	 0.7365755515	 0.112367
H	 0.3415262488	-0.453667851	-0.9325219867	 0.068725
H	 0.5639409227	 0.0279316451	 2.0940986664	 0.109889
H	 1.0576325135	-1.4488225323	 1.2376736579	 0.143861
H	 1.9036516993	 0.0840785426	 0.9439319054	 0.11303
H	-1.8046425167	-0.3442919095	 1.2351333302	 0.086378
H	-3.6018367042	-1.6323581661	-2.6419542226	 0.226397
H	-2.1599278095	-2.6874658731	 0.8128769501	 0.113313
H	-0.6981182576	-4.0114227889	-0.2879423189	 0.246255
H	-0.0641174585	-2.8281478078	-1.1980073425	 0.240871
68.1561	91.7949	162.0613	184.6575	227.0805	241.4632	248.5118	263.7699	318.4973	388.3163	405.6495	461.454	577.785	661.7434	764.2865	796.5865	850.9529	869.3125	882.9545	916.162	935.1903	957.9548	979.7127	1016.0385	1031.6184	1112.4045	1137.0919	1185.0568	1208.6226	1214.761	1227.077	1251.3964	1311.5604	1322.5607	1346.3956	1396.4251	1406.1185	1421.4728	1430.2209	1488.9037	1495.5178	1503.3129	1519.771	1669.801	1816.2622	3011.2404	3028.8305	3032.3488	3048.5284	3083.1825	3093.429	3099.1965	3123.0284	3128.0699	3469.6669	3509.1793	3583.6533
CC(C)C1OC(=N)C1N	CC(C)[C@H]1O[C]([NH])[C@H]1N	
InChI=1S/C6H12N2O/c1-3(2)5-4(7)6(8)9-5/h3-5,8H,7H2,1-2H3	InChI=1S/C6H12N2O/c1-3(2)5-4(7)6(8)9-5/h3-5,8H,7H2,1-2H3/t4-,5+/m0/s1
