17
gdb 96785	3.61593	1.12206	0.86553	1.201	84.11	-0.2525	-0.0674	0.1851	1320.5912	0.135418	-418.0745	-418.065316	-418.064372	-418.109324	32.408	
C	 0.0103859817	 1.4377056158	-0.0740140381	-0.338971
N	 0.1925403704	 0.0000946118	-0.1146930058	-0.30375
C	 0.6448441156	-0.6070432527	 0.9061190111	 0.426516
N	 1.0282595679	-0.1094548074	 2.1579038495	-0.424209
C	 1.4851745792	-1.1298115563	 2.9889385155	 0.371515
O	 1.9048014196	-0.9976295673	 4.1154369465	-0.35467
C	 1.3479226399	-2.3946306552	 2.1889110629	 0.196929
C	 1.724198379	-3.7137221439	 2.7677601457	-0.489647
C	 0.8641945704	-2.0648180765	 0.9824782338	-0.282936
H	 0.8993671621	 1.9405077053	-0.4779800647	 0.136327
H	-0.8298029858	 1.7084126137	-0.7199048198	 0.13749
H	-0.1883566469	 1.8503004633	 0.9265740835	 0.101448
H	 1.0655530874	 0.8585777013	 2.426200969	 0.26546
H	 2.7704253705	-3.7071225365	 3.0923662457	 0.150081
H	 1.127363494	-3.9271401132	 3.6614530367	 0.14954
H	 1.5820879766	-4.5231191361	 2.0484259287	 0.129555
H	 0.6364166484	-2.7109404859	 0.1464532996	 0.129322
41.605	98.5287	110.5261	150.1807	208.9315	254.1653	294.9398	408.354	421.4203	453.2002	558.1098	606.3336	665.2872	705.9123	779.7889	785.7471	892.4001	931.8485	1005.6214	1030.2622	1063.709	1109.7029	1123.986	1159.2397	1198.6014	1317.0839	1345.917	1348.8814	1414.4265	1434.7089	1471.171	1478.3774	1480.5199	1511.8143	1691.5043	1757.5658	1828.5641	2983.1255	3037.6639	3047.2573	3090.1979	3093.4336	3129.0691	3240.0565	3682.1002
CN=C1NC(=O)C(C)=C1	C[N]C1=C[C](C(=O)N1)C	
InChI=1S/C6H8N2O/c1-4-3-5(7-2)8-6(4)9/h3H,1-2H3,(H,7,8,9)	InChI=1S/C6H8N2O/c1-4-3-5(7-2)8-6(4)9/h3H,1-2H3,(H,7,8,9)
