22
gdb 40827	3.65725	1.0667	0.88472	1.3183	82.88	-0.2358	0.0859	0.3217	1359.0676	0.196341	-404.325279	-404.316962	-404.316018	-404.358241	32.644	
C	-0.1694088709	 1.3180163156	-0.2241491427	-0.222765
C	 1.2535495529	 0.9747536439	 0.0438888869	-0.227101
N	 0.2196309884	-0.0569562947	 0.0733821405	-0.067023
C	-0.152716363	-0.5663080484	 1.3894471155	 0.042742
C	-1.5921561113	-1.0940416742	 1.3736415803	-0.210978
C	-1.9152191014	-1.8066158285	 2.6945234646	-0.21156
C	-0.8415255392	-2.8513051728	 3.0064007416	-0.062857
O	 0.4557587931	-2.2779651166	 3.0229200316	-0.245841
C	 0.8019004967	-1.7048872622	 1.7759693397	-0.083699
H	-0.6967834073	 1.8773687736	 0.5473567909	 0.109808
H	-0.5128238709	 1.5056966598	-1.2373603651	 0.116111
H	 1.9695743669	 0.9059100474	-0.7698472076	 0.11676
H	 1.671597303	 1.305315207	 0.9937984399	 0.111811
H	-0.0699643799	 0.2196980946	 2.1644521263	 0.056336
H	-2.2953153177	-0.2749223887	 1.1864966736	 0.092899
H	-1.6889440067	-1.7947473181	 0.5342646002	 0.105592
H	-1.9490055186	-1.0796398552	 3.5153038488	 0.102591
H	-2.8989049537	-2.2874134935	 2.64584022	 0.09477
H	-0.9908355808	-3.2943300413	 3.9954414981	 0.103311
H	-0.8834873315	-3.6648097843	 2.2606909238	 0.083964
H	 0.789464423	-2.464310578	 0.9761116832	 0.092837
H	 1.8270370091	-1.3361816653	 1.8767100701	 0.102292
96.9535	118.4908	179.1411	239.2855	271.4486	362.25	404.7918	443.4449	460.1629	483.8554	561.9709	780.2532	825.7384	864.4138	870.1424	890.4803	895.0546	933.6937	984.5674	995.718	1025.1212	1043.3752	1059.8179	1112.9505	1118.6785	1119.7926	1139.7161	1169.2409	1179.7583	1190.7865	1205.2922	1242.0905	1290.9446	1316.2096	1318.8425	1334.4691	1343.3872	1373.3525	1381.0433	1404.1169	1419.9977	1478.3742	1488.703	1490.1727	1492.9235	1506.4737	1516.8885	2915.2491	2953.1469	2971.966	3026.1171	3028.9221	3066.9264	3076.5025	3081.1378	3084.389	3092.0276	3096.4265	3176.0416	3190.3259
C1CN1C1CCCOC1	C1CN1[C@H]1CCCOC1	
InChI=1S/C7H13NO/c1-2-7(6-9-5-1)8-3-4-8/h7H,1-6H2	InChI=1S/C7H13NO/c1-2-7(6-9-5-1)8-3-4-8/h7H,1-6H2/t7-/m0/s1
