15
gdb 30578	6.99859	0.63592	0.60668	3.9188	84.5	-0.2157	-0.0151	0.2006	1765.1104	0.113768	-416.809503	-416.800968	-416.800024	-416.844286	29.842	
O	 0.3038181247	 0.7237659504	 1.0303782873	-0.408401
C	-0.064293847	 0.1650934934	-0.2259058528	-0.232116
C	-1.4174697145	-0.3639974579	-0.158199256	 0.234358
C	-2.5410552519	-0.8058203603	-0.1299243106	-0.076383
C	-3.8479604596	-1.3196777345	-0.0917812354	 0.167546
C	-5.0644586727	-0.8266338334	-0.526793818	-0.193251
N	-6.0752533948	-1.7093212659	-0.2661285012	-0.24047
C	-5.4983830153	-2.7359436996	 0.3238207963	 0.007572
N	-4.1591970934	-2.5579252116	 0.4534871501	-0.314765
H	 1.1952331942	 1.0758642528	 0.9370305707	 0.289942
H	-0.0219051341	 0.9201799031	-1.0278325568	 0.122878
H	 0.6240456139	-0.6454421105	-0.5175799528	 0.117694
H	-5.2440684419	 0.120012405	-1.0124216992	 0.117843
H	-5.9985413726	-3.6262743452	 0.6747416992	 0.13453
H	-3.496541905	-3.1879119357	 0.8744637192	 0.273026
32.6724	78.7643	96.7038	196.0249	228.5244	307.8932	393.0875	471.0864	519.7549	545.2439	603.4166	676.679	686.3299	820.0433	865.7111	913.7704	950.054	1021.2615	1033.4949	1063.8289	1123.1777	1161.2111	1244.9933	1248.1004	1258.6735	1307.5034	1360.3939	1421.4538	1453.3311	1486.3708	1497.0233	1595.7578	2345.5776	2961.2664	2981.2794	3252.0234	3258.2476	3664.2071	3813.2594
OCC#CC1=CN=CN1	OCC#Cc1cnc[nH]1	
InChI=1S/C6H6N2O/c9-3-1-2-6-4-7-5-8-6/h4-5,9H,3H2,(H,7,8)	InChI=1S/C6H6N2O/c9-3-1-2-6-4-7-5-8-6/h4-5,9H,3H2,(H,7,8)
