18
gdb 130205	3.18921	1.21015	0.91012	2.1798	74.73	-0.1844	0.0411	0.2256	1248.1493	0.149646	-435.281658	-435.272731	-435.271787	-435.315739	33.42	
N	 0.411509168	 1.3175894659	 0.4909093799	-0.600148
C	 0.245442661	-0.0197768589	 0.1589791659	 0.288063
N	-0.9691613002	-0.5082680544	-0.0844767196	-0.312173
N	-0.7600033524	-1.8330802161	-0.2956971925	-0.197137
C	 0.5381113797	-2.181347143	-0.1847724967	-0.115994
C	 1.2517569745	-1.0337730462	 0.1034963588	 0.160484
C	 2.7464399008	-0.9405294849	 0.2435715026	-0.325854
C	 3.2723577889	-0.1118978074	 1.4185015073	-0.076777
O	 3.2765514702	 1.2664412669	 1.0354225571	-0.409475
H	 1.3562029119	 1.656419956	 0.3631104588	 0.251618
H	-0.3001742753	 1.9161806203	 0.0976444941	 0.242085
H	-1.5483205548	-2.4245267348	-0.4862659361	 0.267521
H	 0.8707972216	-3.1988734101	-0.3257524554	 0.120478
H	 3.1459593591	-1.9564792012	 0.3396047549	 0.100468
H	 3.2072625617	-0.519775117	-0.6617516507	 0.1179
H	 2.6478507775	-0.2722175852	 2.3072182924	 0.10606
H	 4.2981679521	-0.4280224841	 1.6587333726	 0.090967
H	 3.3820943556	 1.7989174741	 1.8295549265	 0.291913
32.9168	147.6343	176.8104	232.6616	272.0662	288.5355	333.1905	379.4281	409.1734	439.344	496.9458	623.2275	653.2122	659.3219	734.4476	760.7128	787.8442	880.1747	938.3863	966.6397	1049.8474	1066.2725	1077.9454	1113.1034	1186.492	1224.0853	1253.1661	1280.1621	1292.0559	1325.9863	1381.8944	1428.0844	1446.0179	1467.6337	1495.7446	1514.6803	1540.7096	1625.7093	1646.6264	2987.5489	3004.6143	3039.9305	3062.5968	3245.5179	3534.78	3653.8306	3697.8887	3831.5996
NC1=NNC=C1CCO	Nc1n[nH]cc1CCO	
InChI=1S/C5H9N3O/c6-5-4(1-2-9)3-7-8-5/h3,9H,1-2H2,(H3,6,7,8)	InChI=1S/C5H9N3O/c6-5-4(1-2-9)3-7-8-5/h3,9H,1-2H2,(H3,6,7,8)
