16
gdb 127301	4.0683	1.11602	0.88067	4.8323	74.03	-0.2408	-0.0124	0.2284	1265.322	0.125425	-434.129941	-434.121014	-434.12007	-434.165195	31.092	
C	-0.0509200803	 1.4159316219	 0.0871572882	-0.320376
N	 0.0450400265	-0.0259076188	-0.0096253889	 0.063551
C	 0.181293988	-0.7800848531	-1.1341319491	-0.021503
C	 0.1911071865	-2.0977291646	-0.7365275263	-0.303743
C	 0.0518494179	-2.0396062609	 0.6647610863	 0.273285
N	-0.0377996575	-0.7774591668	 1.0970132692	-0.358249
C	 0.0079833121	-3.1987865006	 1.5954420529	 0.335841
N	-0.1288355609	-2.8619500507	 2.9067405375	-0.542523
O	 0.0895277579	-4.3469986073	 1.1939234226	-0.373518
H	 0.187101779	 1.8518568676	-0.8841846824	 0.143524
H	-1.0610568377	 1.716963826	 0.3798733731	 0.151263
H	 0.6581302779	 1.7831346206	 0.8322639863	 0.155383
H	 0.2601401992	-0.3206818503	-2.1067926388	 0.136884
H	 0.2878008221	-2.9825205271	-1.3417388145	 0.132726
H	-0.1939130393	-1.8970133361	 3.1826914381	 0.269669
H	-0.1685488514	-3.5955017496	 3.5928175158	 0.257787
25.257	61.2549	151.9945	153.7168	167.9653	258.8498	356.0285	394.209	517.4949	573.8321	626.9474	656.5242	679.9145	719.4921	776.4112	812.7908	869.7149	1003.0925	1016.5007	1063.887	1086.4328	1092.6889	1150.6116	1198.9866	1305.7314	1351.657	1396.4646	1447.2073	1462.2276	1476.2831	1506.0832	1525.2552	1549.0563	1605.0975	1785.3052	3051.0457	3120.8696	3150.8308	3259.8208	3293.7697	3605.5587	3748.4938
CN1C=CC(=N1)C(N)=O	Cn1ccc(n1)C(=O)N	
InChI=1S/C5H7N3O/c1-8-3-2-4(7-8)5(6)9/h2-3H,1H3,(H2,6,9)	InChI=1S/C5H7N3O/c1-8-3-2-4(7-8)5(6)9/h2-3H,1H3,(H2,6,9)
