14
gdb 23928	8.98088	0.68283	0.63458	2.0033	105.57	-0.2014	-0.0325	0.1688	1654.5021	0.101636	-362.403449	-362.395506	-362.394562	-362.436253	29.868	
C	 0.1387579226	-3.7506018266	-0.0194961852	-0.610691
C	 0.0739564993	-2.5429620669	-0.0120591159	 0.265116
C	 0.0064558669	-1.1886802023	-0.0037931513	-0.108531
C	-0.0654523917	 0.0251762288	 0.0037801352	 0.400037
C	-0.1203552601	 1.4235336889	 0.0121345344	 0.043852
C	-1.2023018127	 2.2978554167	 0.0313392206	-0.252723
C	-0.6920668614	 3.6143695527	 0.0316892542	-0.129779
C	 0.6863204628	 3.5244047852	 0.0128585063	-0.095459
N	 1.023174837	 2.2042726908	 0.00119311	-0.308503
H	 0.1908763964	-4.8107415688	-0.0259506785	 0.188361
H	-2.2374953877	 1.9959161032	 0.0434869477	 0.10781
H	-1.2639562717	 4.5289573838	 0.0442730152	 0.104207
H	 1.4443180645	 4.2911857979	 0.006943833	 0.125561
H	 1.9572579458	 1.8323957067	-0.0132178856	 0.270741
76.0433	84.716	216.9946	232.918	434.269	436.928	470.1227	488.1727	506.4855	557.0839	576.7081	614.1428	624.3016	683.492	736.907	811.0379	870.4718	888.9091	916.6056	1028.5923	1066.2112	1130.9918	1146.065	1271.4191	1320.884	1424.5518	1452.5768	1480.0925	1592.7267	2173.8839	2324.2222	3250.2159	3264.381	3275.1186	3505.495	3679.4945
C#CC#CC1=CC=CN1	C#CC#Cc1ccc[nH]1	
InChI=1S/C8H5N/c1-2-3-5-8-6-4-7-9-8/h1,4,6-7,9H	InChI=1S/C8H5N/c1-2-3-5-8-6-4-7-9-8/h1,4,6-7,9H
