16
gdb 90144	3.48838	1.56351	1.42175	1.5874	67.19	-0.2289	0.0038	0.2327	931.2269	0.125136	-437.833975	-437.826932	-437.825987	-437.865169	28.186	
O	 0.1321998546	 1.4337755567	 0.0440397887	-0.421753
C	 0.0433621714	 0.0324647518	 0.0794698266	 0.071201
C	 0.2690920617	-0.571221074	 1.5085500689	-0.298022
C	-1.0766435336	-1.2996773401	 1.3662092866	 0.236979
C	-2.2391078079	-0.3675458244	 1.1953860318	-0.370188
C	-1.3490249157	-0.621759463	 0.0160251302	 0.220698
O	-1.6908446716	-1.6779134561	-0.8670819771	-0.247783
C	-1.626982139	-2.8079347602	-0.0812421337	 0.080396
N	-1.2731848203	-2.7135688602	 1.1405304262	-0.302252
H	-0.1554000015	 1.7338370521	-0.8252256254	 0.285531
H	 0.6992514409	-0.446482491	-0.6597694886	 0.088635
H	 1.1273026555	-1.2414900012	 1.5606269763	 0.122698
H	 0.3278129617	 0.1664930407	 2.3128025592	 0.116576
H	-3.2197038408	-0.8261263107	 1.1536929296	 0.135283
H	-2.2012548476	 0.6132378141	 1.6582698439	 0.135158
H	-1.9061621276	-3.7216028643	-0.5932302631	 0.146844
115.299	254.3177	266.4839	324.2842	352.5944	440.148	457.5957	543.0601	593.416	666.9062	718.5572	781.9406	826.1611	846.4561	902.7373	929.3991	934.4299	951.5191	965.3594	1035.8015	1071.291	1083.1679	1122.9522	1171.9939	1211.7375	1232.9764	1239.5115	1291.9729	1311.1397	1332.7428	1354.9929	1407.3962	1459.4838	1477.2773	1628.0614	3014.1919	3070.7993	3135.2959	3141.0994	3224.6279	3234.4805	3804.8931
OC1CC23CC12OC=N3	O[C@H]1C[C@@]23C[C@@]12OC=N3	
InChI=1S/C6H7NO2/c8-4-1-5-2-6(4,5)9-3-7-5/h3-4,8H,1-2H2	InChI=1S/C6H7NO2/c8-4-1-5-2-6(4,5)9-3-7-5/h3-4,8H,1-2H2/t4-,5+,6+/m0/s1
