20
gdb 70425	2.88186	1.42219	1.24132	0.9462	77.92	-0.234	0.0646	0.2985	1094.6242	0.170857	-403.080679	-403.072313	-403.071369	-403.113778	31.94	
C	 0.0449995927	 1.5496430562	 0.218765433	-0.498509
C	-0.0156475367	 0.0639063971	 0.0216268253	 0.277033
C	-0.9088803582	-0.8284353084	 0.7942962774	-0.285827
N	 0.5448463479	-0.9312376634	 1.0310920905	-0.164949
C	 1.0608914462	-1.7403104667	-0.1271148982	-0.24111
C	 0.5610276972	-0.7116285656	-1.1662627616	 0.234095
C	-0.2566299543	-1.0504578088	-2.4277980884	-0.138644
O	 0.7134912038	-0.4204589781	-3.2877737652	-0.27405
C	 1.54447127	-0.0678276487	-2.1645346371	-0.139636
H	 1.0526182665	 1.9399646234	 0.0419194177	 0.12578
H	-0.6408570579	 2.0643755121	-0.4645088169	 0.126207
H	-0.2390737846	 1.8090012418	 1.242480383	 0.131882
H	-1.4471645014	-0.3931322665	 1.6309092813	 0.120002
H	-1.4237012766	-1.6569928069	 0.3100146963	 0.107623
H	 2.1507776964	-1.8100922988	-0.0806980383	 0.113053
H	 0.639175608	-2.7507866414	-0.1832078889	 0.10368
H	-0.3662824559	-2.1211238625	-2.6465060413	 0.099589
H	-1.2425153555	-0.5706517573	-2.4913082128	 0.099833
H	 1.6780319736	 1.0181429971	-2.0793247915	 0.103296
H	 2.5331645589	-0.5434699947	-2.2157860741	 0.100651
69.0836	128.4395	171.9383	197.7408	263.0968	323.8441	399.5345	441.6227	469.8062	523.4389	637.3227	744.5178	827.1469	853.7125	864.2685	896.1268	914.7576	963.2342	982.3945	993.828	1030.369	1042.1385	1088.9278	1106.2987	1125.1638	1143.8157	1160.9604	1162.37	1177.6278	1208.4368	1233.8947	1279.7761	1308.8196	1343.639	1363.2607	1385.2311	1418.5154	1480.5781	1490.7158	1491.2989	1507.3876	1511.7735	1531.7919	2994.8725	3007.5408	3029.2392	3032.1927	3042.0447	3046.1365	3091.515	3093.8151	3097.8037	3113.6081	3190.336
CC12CN1CC21COC1	C[C@]12CN1CC12COC1	
InChI=1S/C7H11NO/c1-6-2-8(6)3-7(6)4-9-5-7/h2-5H2,1H3	InChI=1S/C7H11NO/c1-6-2-8(6)3-7(6)4-9-5-7/h2-5H2,1H3/t6-,8?/m1/s1
