19
gdb 105760	2.35404	1.49234	1.18952	0.7516	77.23	-0.2593	0.0415	0.3008	1136.7068	0.157704	-422.992007	-422.982747	-422.981803	-423.026377	34.17	
C	-0.1421405686	 1.3189928716	-0.2419807901	-0.25533
O	-0.0563668104	-0.0974881971	-0.328032368	-0.270754
C	 0.8832505462	-0.587669447	-1.2624351773	 0.30002
C	 0.7280653261	-2.1371540433	-1.2537995946	-0.303449
C	 0.1988264445	-2.4686180188	-2.6628430302	-0.208495
C	-0.3362026419	-1.1154877179	-3.1382752742	-0.09192
O	 0.5696098401	-0.1632067134	-2.5792477909	-0.27046
C	 2.2449850421	-0.1210816462	-0.9553222786	 0.297763
C	 3.3573673389	 0.2324902437	-0.6716600389	-0.447316
H	 0.7936828785	 1.7531417024	 0.1311228667	 0.120992
H	-0.3783738826	 1.7625908566	-1.2150662228	 0.125855
H	-0.9470504976	 1.5336979654	 0.4638174449	 0.123253
H	 1.6751364472	-2.6288964291	-1.0320151273	 0.122834
H	 0.0126970275	-2.3923466698	-0.4702871631	 0.128581
H	 1.0137932554	-2.7960525358	-3.3145799183	 0.113672
H	-0.5659186226	-3.2489224336	-2.656440779	 0.10656
H	-0.3241999053	-0.9813677247	-4.2221273402	 0.109374
H	-1.3563901461	-0.9380546179	-2.7702050152	 0.10288
H	 4.3423673586	 0.548129515	-0.4296807231	 0.195941
49.0108	110.0911	158.2231	162.1502	183.2842	241.2376	286.3239	419.8813	477.1352	503.8288	550.3146	611.5508	644.8492	656.0805	658.4098	770.4618	833.2291	884.4742	933.6411	957.4688	1011.4745	1017.8969	1062.2475	1093.1972	1143.5994	1159.78	1182.1765	1211.2295	1221.584	1258.8747	1271.1957	1316.4643	1339.3953	1386.5458	1467.2121	1482.0366	1483.9425	1496.3041	1513.8383	1516.8582	2238.6858	3008.7328	3020.3023	3061.7991	3086.7715	3089.3657	3104.2014	3113.0979	3129.2495	3144.7464	3499.5369
COC1(CCCO1)C#C	CO[C@]1(CCCO1)C#C	
InChI=1S/C7H10O2/c1-3-7(8-2)5-4-6-9-7/h1H,4-6H2,2H3	InChI=1S/C7H10O2/c1-3-7(8-2)5-4-6-9-7/h1H,4-6H2,2H3/t7-/m1/s1
