18
gdb 45217	2.96243	1.82537	1.4189	2.4647	74.22	-0.2118	-0.0206	0.1913	938.7315	0.150289	-401.933593	-401.926905	-401.925961	-401.964787	27.274	
O	 0.0678245906	 0.0707323979	-0.6781711548	-0.31156
C	 0.0289673715	 1.1801100113	-0.2135572463	 0.379779
C	-1.236884375	 1.9300164517	 0.2584758116	-0.295345
N	-0.7872535962	 3.1073219834	 0.9897009659	-0.097537
C	-0.292052253	 2.8561844898	 2.3823489552	-0.184937
C	 1.160122127	 3.1708904927	 1.9662533933	-0.03223
C	 1.9208949112	 1.9392182419	 1.4168916858	-0.246136
C	 1.2171858327	 2.111322255	 0.02115001	-0.138455
C	 0.6024904203	 3.4390805934	 0.5356062336	-0.016936
H	-1.8143754812	 2.2194748786	-0.6309417589	 0.129178
H	-1.8799172934	 1.2863437309	 0.8649114864	 0.133489
H	-0.7342887843	 3.5616845897	 3.0931769653	 0.110114
H	-0.4627307501	 1.8378784763	 2.7573015912	 0.098073
H	 1.7194126947	 3.893296278	 2.5587929021	 0.075909
H	 2.9937251844	 2.1225630837	 1.3286991775	 0.116274
H	 1.7730711875	 0.9859688533	 1.9335419307	 0.109378
H	 1.8895757845	 2.1090137246	-0.8369563298	 0.098281
H	 0.711772229	 4.3599207778	-0.0397802588	 0.072662
79.6277	203.057	333.5598	382.7363	429.9736	526.9414	575.0079	629.1005	659.5159	739.2572	793.0374	820.2101	876.4156	887.346	909.0742	923.4502	944.8689	981.8293	1009.016	1034.2155	1061.7475	1095.2645	1127.6985	1160.2724	1164.6917	1215.3652	1219.2425	1231.6482	1232.8475	1256.0218	1270.5525	1284.1525	1303.2614	1314.6334	1329.3085	1458.0517	1483.087	1512.2615	1841.3901	3006.651	3013.3596	3053.3917	3063.6786	3088.2221	3098.3477	3106.8209	3114.436	3124.5288
O=C1CN2CC3CC1C23	O=C1CN2C[C@H]3C[C@@H]1[C@@H]23	
InChI=1S/C7H9NO/c9-6-3-8-2-4-1-5(6)7(4)8/h4-5,7H,1-3H2	InChI=1S/C7H9NO/c9-6-3-8-2-4-1-5(6)7(4)8/h4-5,7H,1-3H2/t4-,5+,7+/m1/s1
