20
gdb 113487	4.10435	0.96981	0.89832	1.92	79.88	-0.2327	0.0254	0.258	1371.5208	0.171219	-403.1534	-403.144665	-403.143721	-403.187386	32.555	
C	-0.0293877613	 1.5629943759	-0.430641514	-0.372322
C	 0.0126903793	 0.1595530684	 0.1850240699	-0.203735
C	-1.3548047994	-0.4885966111	 0.2495846291	-0.065038
C	-1.9340607409	-1.2313162549	-0.9486555263	-0.357076
C	-1.5269328821	-1.9749913437	 0.2835046186	 0.395312
C	-0.4199212617	-3.0322394958	 0.3838150664	-0.258778
N	-0.9770110218	-4.0665347278	 1.2750313339	-0.266202
C	-2.1324031579	-3.6556371352	 1.5932592254	 0.109022
O	-2.5921588765	-2.4771872654	 1.1109597112	-0.248577
H	 0.9698831148	 2.0067779377	-0.473415119	 0.113237
H	-0.4307798451	 1.5329476148	-1.4488654162	 0.120203
H	-0.6676176911	 2.2316377843	 0.1570001996	 0.11741
H	 0.692360225	-0.4739201194	-0.3989855252	 0.0982
H	 0.4396503432	 0.2135562262	 1.1949372102	 0.103881
H	-2.0898413273	 0.0553531446	 0.8387670225	 0.097578
H	-2.9950176818	-1.131598774	-1.1488052383	 0.124679
H	-1.3103304929	-1.3480458983	-1.8310148824	 0.114442
H	-0.1691105174	-3.4736195474	-0.5873557688	 0.118842
H	 0.5080416412	-2.6364162343	 0.8120904743	 0.120267
H	-2.8276562362	-4.1732136246	 2.2448116191	 0.138656
60.3006	92.1175	133.587	176.1985	252.6256	296.5279	345.232	415.7932	460.5321	531.2163	589.5373	767.055	796.6477	816.0915	859.2949	909.5531	924.6931	937.3875	962.024	967.9077	981.0992	1037.4822	1047.9898	1074.4312	1099.5505	1126.0391	1148.4295	1182.6033	1208.785	1217.2197	1289.7918	1300.0113	1333.6996	1340.2593	1361.4127	1410.718	1423.7599	1482.543	1491.3897	1497.8612	1500.997	1506.8315	1707.0646	3017.1038	3032.0253	3033.8432	3049.2459	3061.6631	3102.2157	3107.6181	3120.1642	3136.6171	3215.2231	3216.6499
CCC1CC11CN=CO1	CC[C@H]1C[C@]21CN=CO2	
InChI=1S/C7H11NO/c1-2-6-3-7(6)4-8-5-9-7/h5-6H,2-4H2,1H3	InChI=1S/C7H11NO/c1-2-6-3-7(6)4-8-5-9-7/h5-6H,2-4H2,1H3/t6-,7+/m0/s1
