21
gdb 70593	2.06215	1.82551	1.43677	2.2674	76.84	-0.2254	0.0616	0.287	1045.599	0.181345	-424.21396	-424.204954	-424.20401	-424.246641	35.897	
C	 0.0259869675	 1.5163589953	 0.0657583331	-0.444534
C	 0.0167637775	-0.0156168864	 0.0498770648	 0.200862
C	-1.4245478385	-0.5538437987	 0.0418365528	-0.419602
C	 0.8099792204	-0.591655114	-1.1520725031	-0.128153
O	 1.3537261891	-1.8493622592	-0.7415267768	-0.26005
C	 1.5497187208	-1.7830169441	 0.6446914829	 0.06757
C	 2.292626091	-0.5875327337	 1.2161364369	-0.410506
C	 0.7741896271	-0.6508443318	 1.2300862808	 0.350468
O	 0.1131621247	-0.8010029068	 2.4498658661	-0.471469
H	 1.0457972655	 1.9114774956	 0.1155237314	 0.113084
H	-0.4511807642	 1.9257608379	-0.8315289356	 0.116937
H	-0.5279008413	 1.9001667632	 0.9300717326	 0.109608
H	-1.9879566423	-0.1248178808	-0.7935309065	 0.103776
H	-1.4309401028	-1.642879223	-0.0639241009	 0.127635
H	-1.9408327483	-0.3063651562	 0.9722788776	 0.118913
H	 0.1801378303	-0.7715042144	-2.0276280761	 0.109878
H	 1.618651739	 0.0907420123	-1.4513924357	 0.089982
H	 1.6353783332	-2.7569332649	 1.1103342111	 0.111401
H	 2.7716559541	-0.754337172	 2.1752415294	 0.115705
H	 2.8169059109	 0.0958360124	 0.5568759117	 0.114894
H	 0.2048607463	 0.0232243293	 2.9406038736	 0.283603
125.54	216.015	220.1853	244.8658	264.926	290.1858	311.5302	344.3618	367.3398	422.6452	465.7269	483.6708	590.2864	625.3247	698.7606	812.2512	862.4943	888.1143	931.8016	948.9312	960.5473	978.4343	996.3251	1006.7038	1019.174	1044.4068	1074.4569	1149.7384	1179.3932	1203.0568	1234.5717	1241.4068	1271.3117	1297.726	1327.3655	1383.1727	1396.8178	1406.2807	1424.9879	1477.9451	1484.3073	1488.2562	1505.1767	1509.7535	1522.1086	2993.3948	3025.3941	3038.3248	3085.9808	3088.9837	3098.872	3106.5988	3125.1461	3131.1768	3195.6799	3221.4235	3792.0838
CC1(C)COC2CC12O	CC1(C)CO[C@H]2C[C@@]12O	
InChI=1S/C7H12O2/c1-6(2)4-9-5-3-7(5,6)8/h5,8H,3-4H2,1-2H3	InChI=1S/C7H12O2/c1-6(2)4-9-5-3-7(5,6)8/h5,8H,3-4H2,1-2H3/t5-,7-/m0/s1
