18
gdb 113341	2.21906	1.26926	1.07456	2.798	74.51	-0.2567	0.0125	0.2692	1228.9438	0.144627	-439.052886	-439.042979	-439.042035	-439.087968	34.661	
C	 0.3514980422	 0.9306340764	-0.2910702851	-0.243401
O	-0.3374969129	-0.0993915388	 0.4072502664	-0.226569
C	 0.4236736873	-0.6945579258	 1.3857660811	 0.068123
C	 0.0903701509	-2.1076858553	 1.7288806708	-0.381032
C	 1.3903868709	-1.8141552367	 0.9778762047	 0.239056
O	 1.4544769417	-2.0904394059	-0.3776583858	-0.267649
C	 1.6595703715	-3.4648364239	-0.6854202205	-0.258089
C	 2.6393021451	-1.9307667781	 1.6984177687	 0.244079
N	 3.6417209043	-2.0215524061	 2.2697435647	-0.350838
H	 1.2148471685	 0.5292406959	-0.8335931205	 0.136403
H	-0.3601630966	 1.3572783615	-1.0003257315	 0.134194
H	 0.6899121482	 1.7191494445	 0.3960979718	 0.113237
H	 0.7756178984	-0.033964731	 2.1796562691	 0.111916
H	 0.1397286168	-2.4329683122	 2.7609582557	 0.141031
H	-0.681480851	-2.5646077267	 1.1196809423	 0.147231
H	 0.8500236812	-4.0876911281	-0.2829629696	 0.117428
H	 1.6678216993	-3.5392345106	-1.7740664314	 0.138994
H	 2.6179171544	-3.8239282091	-0.2892971809	 0.135886
94.4178	96.6857	111.7081	150.1408	164.539	197.2724	221.7083	262.6839	352.7913	377.9897	481.8013	502.2743	582.3798	642.3988	691.6772	809.6167	889.3148	917.8757	1011.5581	1031.6262	1068.3839	1106.8261	1129.1879	1173.871	1181.39	1182.11	1213.248	1233.6032	1257.6843	1292.062	1397.6773	1452.6455	1477.981	1486.7002	1487.6163	1491.3238	1505.197	1506.4205	2339.5383	3001.911	3007.0156	3068.7984	3075.1109	3095.4067	3134.1971	3137.3567	3145.753	3244.3937
COC1CC1(OC)C#N	CO[C@H]1C[C@]1(OC)C#N	
InChI=1S/C6H9NO2/c1-8-5-3-6(5,4-7)9-2/h5H,3H2,1-2H3	InChI=1S/C6H9NO2/c1-8-5-3-6(5,4-7)9-2/h5H,3H2,1-2H3/t5-,6-/m0/s1
