19
gdb 121579	4.99952	0.54394	0.49663	2.5153	84.63	-0.2533	-0.0469	0.2064	2212.0486	0.154926	-423.009038	-422.997753	-422.996809	-423.048673	36.682	
C	-0.0748791774	 1.3044101621	 0.1221009093	-0.229727
O	-0.0002648567	-0.0969837585	 0.0181629295	-0.238267
C	 0.6625264438	-0.5205645515	-1.1537159156	-0.06142
C	 0.6786697956	-2.041992223	-1.1511065562	-0.312289
C	 1.3689368274	-2.6280286261	-2.3687555586	 0.202997
O	 1.8519903113	-1.937687992	-3.2440267033	-0.300383
C	 1.4151020705	-4.0756125174	-2.4206611684	-0.037183
C	 1.4472464834	-5.2817664811	-2.4526911849	 0.181412
C	 1.4937451274	-6.7326297796	-2.5056511085	-0.505171
H	 0.9248676728	 1.7662609803	 0.1524743992	 0.104754
H	-0.6293976228	 1.7482210706	-0.7200775388	 0.104754
H	-0.5996464313	 1.5368245028	 1.0520557608	 0.125195
H	 0.1503957329	-0.1456871603	-2.0536258117	 0.101715
H	 1.6907279055	-0.1278579	-1.1888931355	 0.101705
H	 1.1773648462	-2.4174405703	-0.2485443321	 0.137842
H	-0.3448018321	-2.4350359459	-1.1030577411	 0.137854
H	 2.0212398888	-7.0828447112	-3.3987010838	 0.162614
H	 2.0065308952	-7.1381296286	-1.6266828542	 0.1617
H	 0.4825158197	-7.1535902903	-2.521344046	 0.161898
17.2604	39.9537	62.4789	72.1776	114.4318	152.8616	154.2896	229.2326	286.846	310.2611	381.0524	381.5296	477.2778	573.5464	591.5794	782.522	807.4104	978.135	994.0196	1045.7548	1053.0713	1071.5087	1079.6279	1163.1738	1179.9118	1181.6539	1218.3543	1235.6935	1294.2114	1338.3169	1409.9785	1422.3759	1454.4733	1469.7819	1473.7825	1482.3449	1484.5619	1504.9386	1525.4024	1754.5075	2340.0794	2966.2747	2981.7006	3006.0402	3013.1121	3032.5036	3035.8206	3069.9465	3095.296	3101.0183	3112.5439
COCCC(=O)C#CC	COCCC(=O)C#CC	
InChI=1S/C7H10O2/c1-3-4-7(8)5-6-9-2/h5-6H2,1-2H3	InChI=1S/C7H10O2/c1-3-4-7(8)5-6-9-2/h5-6H2,1-2H3
