17
gdb 9234	3.98624	1.01036	0.82998	3.015	68.46	-0.243	-0.02	0.2229	1336.8461	0.138228	-401.011238	-401.0015	-401.000556	-401.048226	32.068	
C	 0.0498956647	 1.3461295985	 0.2004206619	-0.227592
O	-0.0133428605	-0.0385160911	-0.1417294031	-0.237386
C	-1.1838410621	-0.6646551819	 0.0962931141	 0.419816
C	-1.1086210814	-2.116075589	-0.3081598889	-0.49069
N	-2.1627395455	-0.0357643878	 0.6015620343	-0.32028
C	-3.4116225864	-0.715430995	 0.850692948	-0.240661
C	-4.5600743214	 0.2852086331	 0.8643452751	 0.160912
O	-5.7178454228	-0.0180430737	 0.7468102601	-0.243778
H	 1.0575330877	 1.6686463453	-0.0647883786	 0.127202
H	-0.6968582062	 1.9188726074	-0.3564865045	 0.13425
H	-0.1322496137	 1.4915264264	 1.2688262994	 0.133949
H	-0.1315015237	-2.3402162619	-0.7352662604	 0.14653
H	-1.2775390514	-2.7638712892	 0.5576458385	 0.146872
H	-1.8818200347	-2.3508585052	-1.04632652	 0.14993
H	-3.6658830895	-1.514969097	 0.1403172109	 0.120494
H	-3.4056791406	-1.1830306398	 1.8502362647	 0.133924
H	-4.2298056825	 1.3379047609	 1.0083371885	 0.086508
13.2827	61.0449	86.2616	121.3061	172.4972	179.2622	266.1576	276.737	344.4245	469.7859	508.2093	585.0595	649.0847	702.6021	843.6488	979.8686	1048.6197	1054.0067	1074.4084	1094.3115	1116.3871	1180.1023	1220.4585	1238.6612	1296.5331	1341.8742	1396.9686	1403.3464	1440.9715	1467.705	1475.9663	1486.4732	1488.4689	1499.0282	1745.9276	1841.1027	2894.6073	2966.5615	3020.742	3044.5045	3048.9468	3107.3434	3115.752	3149.4203	3156.441
COC(C)=NCC=O	COC(=NCC=O)C	
InChI=1S/C5H9NO2/c1-5(8-2)6-3-4-7/h4H,3H2,1-2H3	InChI=1S/C5H9NO2/c1-5(8-2)6-3-4-7/h4H,3H2,1-2H3
