19
gdb 82742	2.25454	2.1862	1.55857	2.1392	73.49	-0.2388	0.0704	0.3091	932.4415	0.160735	-422.988477	-422.981259	-422.980314	-423.019588	30.085	
C	-0.0462423131	 1.5096024148	 0.0879584181	-0.506776
C	 0.0277512286	 0.0057174328	 0.0270246192	 0.237197
C	 0.9024264436	-0.7746933003	-0.9942634438	-0.298918
C	 0.8136851177	-1.9243036143	 0.0241106583	-0.075909
C	-0.6830740115	-2.1017041045	 0.4667483857	 0.01397
O	-0.3614517026	-1.6669225011	 1.8309749589	-0.316797
C	 0.6784174858	-0.9079508239	 1.1753811718	 0.064561
C	-1.3053801271	-0.7953202437	-0.0781154397	 0.15614
O	-2.3641952911	-0.3266510339	 0.712855802	-0.45453
H	 0.9312976165	 1.9538413357	 0.3037622652	 0.109975
H	-0.3974421667	 1.9243000407	-0.8639947684	 0.120016
H	-0.7512181117	 1.8275478582	 0.8621262451	 0.129067
H	 0.5016711328	-0.9126149471	-2.0031631795	 0.098307
H	 1.9248404288	-0.3908418426	-1.0585860209	 0.103001
H	 1.469039309	-2.7926735772	 0.0502596152	 0.081455
H	-1.2411676194	-3.0359387166	 0.4278368445	 0.085278
H	 1.4624156569	-0.5239761307	 1.8266291966	 0.087565
H	-1.6661896008	-0.8635217933	-1.1079855814	 0.081404
H	-2.1006591256	-0.5251560631	 1.6236959231	 0.284993
184.9621	209.6504	237.4871	293.7113	382.335	415.1099	514.3794	548.0996	566.6144	676.4303	702.3884	746.8312	825.3388	842.2418	853.755	869.4091	878.0035	932.8198	949.887	970.1707	1009.4492	1021.3139	1044.9629	1098.8244	1128.1506	1144.9262	1175.4086	1198.4139	1210.6479	1218.8286	1242.4364	1268.8693	1283.164	1307.587	1317.7847	1355.0167	1412.8674	1448.8457	1488.2241	1493.2001	1504.2699	3028.396	3047.1174	3079.8587	3089.1505	3100.2503	3107.3653	3128.541	3133.4277	3143.6555	3724.0428
CC12CC3C(OC13)C2O	C[C@@]12C[C@@H]3[C@@H](O[C@H]13)[C@H]2O	
InChI=1S/C7H10O2/c1-7-2-3-4(5(7)8)9-6(3)7/h3-6,8H,2H2,1H3	InChI=1S/C7H10O2/c1-7-2-3-4(5(7)8)9-6(3)7/h3-6,8H,2H2,1H3/t3-,4-,5-,6+,7+/m1/s1
