17
gdb 17755	2.8924	2.73454	1.85256	1.9741	71.3	-0.2055	0.0741	0.2796	789.1869	0.141114	-326.615041	-326.607862	-326.606918	-326.645903	27.973	
C	-0.0148100486	 1.5150993076	 0.0791751886	-0.529665
C	 0.0049952361	 0.0255877631	-0.0043747603	 0.289629
C	 0.8421064412	-0.9791962764	-0.8435286214	-0.117325
C	 0.7689864018	-1.9900557031	 0.2416829511	-0.04814
C	-0.0655982452	-1.0301990129	 1.1194140491	-0.225741
C	-1.0973063055	-1.010516331	 0.0115596351	 0.334903
C	-2.5835175746	-0.9392359908	-0.0049240026	-0.52066
N	-0.2762595501	-1.9889306277	-0.8419005494	-0.210462
H	 0.9531073308	 1.913438514	 0.4057119023	 0.124598
H	-0.2538654543	 1.9702819733	-0.8894403898	 0.124699
H	-0.7688821153	 1.8531113374	 0.7985520287	 0.123221
H	 1.5155125421	-0.867363121	-1.6861449393	 0.09088
H	 1.3755990693	-2.861916602	 0.4572330856	 0.093099
H	-0.1635677532	-0.8804277949	 2.1860403762	 0.088694
H	-2.9388389413	-0.1596319169	 0.6773184053	 0.121975
H	-2.954317736	-0.7085437186	-1.0099966658	 0.129244
H	-3.0253411573	-1.8916330101	 0.3086425465	 0.131052
170.4713	192.5436	205.8527	254.7396	283.4285	333.6945	577.3028	638.9577	675.8744	750.1574	763.7272	789.1483	844.7909	863.6301	871.1206	893.5668	934.8001	948.4041	994.7956	1012.3341	1098.0726	1106.6899	1111.6342	1154.3966	1166.7546	1208.6513	1244.6069	1306.9368	1342.8683	1405.9419	1413.4506	1471.253	1474.8169	1483.0551	1493.3418	1509.656	3017.5991	3025.1302	3075.4309	3089.1076	3089.2712	3100.3052	3165.153	3180.2435	3208.1477
CC12C3C4C1C2(C)N34	C[C@@]12[C@H]3[C@H]4[C@@H]1[C@]2(C)N34	
InChI=1S/C7H9N/c1-6-4-3-5(6)8(3)7(4,6)2/h3-5H,1-2H3	InChI=1S/C7H9N/c1-6-4-3-5(6)8(3)7(4,6)2/h3-5H,1-2H3/t3-,4+,5-,6+,7+,8?/m1/s1
