20
gdb 84431	2.3696	1.68106	1.25489	1.8702	79.66	-0.2263	-0.0057	0.2206	1082.9758	0.170464	-403.139883	-403.130897	-403.129953	-403.172854	35.013	
C	-0.0134866549	 1.5516508773	-0.0605536718	-0.478274
C	-0.0579244913	 0.0539397327	 0.1032301563	 0.262909
N	 1.2080691959	-0.6890442703	-0.1518238554	-0.40675
C	 0.6023450369	-0.754859004	 1.1861601617	 0.218554
C	 1.4219096431	-0.2024447956	 2.325559141	-0.454822
C	-0.3044170872	-1.9749084862	 1.4613954673	 0.032518
O	-0.8044315289	-2.0226647957	 2.793514361	-0.421364
C	-1.4072556414	-1.8429214531	 0.4319136518	-0.15648
C	-1.2955913008	-0.7071234962	-0.2626370589	-0.130441
H	 0.9480760263	 1.9497112971	 0.2695624919	 0.133457
H	-0.1426838789	 1.829333382	-1.1129779839	 0.120891
H	-0.8093453207	 2.0373623733	 0.514591911	 0.115073
H	 1.0073736248	-1.5334317804	-0.6856538255	 0.219859
H	 1.9620238552	 0.6931999524	 2.0117364132	 0.123157
H	 0.7929096924	 0.0400803242	 3.1856549591	 0.114664
H	 2.1613149419	-0.9401001572	 2.656272537	 0.123558
H	 0.2624678909	-2.9081066982	 1.3470185028	 0.09636
H	-1.4621835381	-1.322571874	 2.874468943	 0.27885
H	-2.1735843269	-2.5996858064	 0.3107250817	 0.104811
H	-1.9747430682	-0.3692607018	-1.0386171234	 0.10347
118.1691	156.8112	170.	228.6333	250.6964	282.4214	331.9784	353.9326	436.9195	453.2298	468.177	558.2925	625.1267	666.7296	730.3152	770.2046	798.7674	862.4748	901.4809	959.454	965.0218	1001.1034	1062.5589	1069.7438	1082.3852	1094.917	1107.9432	1154.0464	1175.2179	1244.6557	1256.0971	1284.4609	1317.1206	1370.9279	1407.8168	1411.9961	1419.8956	1433.3525	1477.6483	1490.1337	1491.1369	1501.9118	1657.8999	3030.7635	3032.1319	3043.8011	3089.5925	3106.9845	3129.1738	3135.8983	3181.29	3209.8613	3466.2128	3797.5324
CC12NC1(C)C(O)C=C2	C[C@@]12N[C@]1(C)[C@@H](O)C=C2	
InChI=1S/C7H11NO/c1-6-4-3-5(9)7(6,2)8-6/h3-5,8-9H,1-2H3	InChI=1S/C7H11NO/c1-6-4-3-5(9)7(6,2)8-6/h3-5,8-9H,1-2H3/t5-,6-,7+/m0/s1
