15
gdb 48382	2.67252	1.24116	1.05707	2.8949	75.02	-0.2541	-0.0473	0.2069	1153.026	0.108788	-420.596689	-420.587688	-420.586744	-420.630656	32.137	
O	-0.3153734779	 0.3587266123	-0.7000172609	-0.260928
C	 0.0396075076	 1.1164540189	 0.1691284865	 0.088619
C	 1.2857231457	 1.9412322948	 0.0895739628	 0.113016
C	 2.3170831975	 1.5650491947	-0.9625482056	-0.317258
C	 1.5277558825	 2.8020915821	-1.204399969	-0.246699
C	 0.5205467863	 2.8920492722	-2.2156238	 0.346634
C	-0.3113119391	 3.0095462009	-3.0746338359	-0.420134
C	 1.757233872	 2.5842029036	 1.3437073444	 0.108727
O	 1.2032437894	 2.4942665328	 2.4105118622	-0.256688
H	-0.5371298094	 1.2576754162	 1.101599674	 0.11893
H	 3.3635576618	 1.6685903453	-0.6973122218	 0.136577
H	 2.0483658314	 0.686857475	-1.5380565417	 0.167979
H	 2.0357856873	 3.7392609005	-0.987101497	 0.134177
H	-1.04996918	 3.0939907596	-3.8331169698	 0.209073
H	 2.6933727349	 3.1796472011	 1.2265217618	 0.077974
76.2383	108.125	143.1032	172.9594	216.9672	262.9429	294.6907	338.9908	449.6856	520.7268	528.9922	626.2143	665.616	676.0091	723.0549	762.4093	857.4334	933.1808	984.1326	1040.7128	1055.1607	1076.5477	1105.6308	1145.8132	1248.9898	1310.8272	1386.4762	1423.1171	1439.7211	1465.1879	1808.3191	1818.2761	2244.7518	2851.3397	2972.6043	3132.4762	3140.307	3241.879	3502.9789
O=CC1(CC1C#C)C=O	O=CC1(C[C@H]1C#C)C=O	
InChI=1S/C7H6O2/c1-2-6-3-7(6,4-8)5-9/h1,4-6H,3H2	InChI=1S/C7H6O2/c1-2-6-3-7(6,4-8)5-9/h1,4-6H,3H2/t6-/m1/s1
