12
gdb 24753	3.75242	1.24027	0.93217	8.161	69.28	-0.267	-0.0866	0.1804	1129.7592	0.079523	-431.726111	-431.718849	-431.717904	-431.758554	25.765	
O	 0.0418976004	-0.0417025724	 0.0040866921	-0.300028
C	-0.0529478455	 1.1674060901	 0.0071128083	 0.197132
C	 1.1687556244	 2.0026043728	 0.0011639361	 0.257718
N	 2.1635750199	 2.5908430502	-0.0040397726	-0.322634
C	-1.3156071028	 1.8954666228	 0.0186782811	 0.208919
C	-2.5774570935	 1.3346891179	 0.0267348134	-0.140173
N	-3.4320735488	 2.3947500561	 0.0360642777	-0.235723
C	-2.6746091752	 3.5418251455	 0.0333963464	 0.014922
N	-1.3976137146	 3.2727157071	 0.023027923	-0.29309
H	-2.9071367912	 0.3098616204	 0.0264555906	 0.174897
H	-4.4383470749	 2.3432777391	 0.0435499018	 0.284291
H	-3.1210392183	 4.5247253504	 0.0394135424	 0.153768
74.3495	122.2844	186.3011	241.1302	317.4473	458.6891	486.061	587.0569	655.9601	675.937	682.2971	780.9948	820.1385	859.2396	927.445	949.0001	1046.4899	1114.6249	1119.3182	1249.9639	1333.6985	1379.5254	1427.1036	1541.5115	1566.4459	1753.202	2345.7279	3259.4094	3292.1049	3652.9553
O=C(C#N)C1=CNC=N1	O=C(C#N)c1c[nH]cn1	
InChI=1S/C5H3N3O/c6-1-5(9)4-2-7-3-8-4/h2-3H,(H,7,8)	InChI=1S/C5H3N3O/c6-1-5(9)4-2-7-3-8-4/h2-3H,(H,7,8)
