18
gdb 41216	2.31722	1.92318	1.1323	3.9075	79.07	-0.2351	-0.0074	0.2277	1069.4335	0.149024	-401.925032	-401.917348	-401.916404	-401.957984	29.456	
C	 0.0063284311	 1.3857790879	-0.3224596752	-0.270499
C	 1.4153804128	 0.7773619601	-0.0770734207	-0.294053
C	 1.5847755013	-0.0640997068	 1.1967526033	 0.277339
N	 2.6323455496	-0.6933526453	 1.5348314969	-0.455291
C	-0.89875406	-0.2275053337	 1.2089239388	 0.277634
C	-1.2999702809	-1.4122064929	 2.0489213291	-0.173886
O	-0.0028018749	-1.3758965898	 2.7088068558	-0.289588
C	 0.3369783946	-0.1295696938	 2.0537150741	 0.033616
C	-1.088494883	 0.4092844595	 0.0658984139	-0.240496
H	-0.0990762181	 2.3169584565	 0.2500827485	 0.12007
H	-0.0788743479	 1.6702318608	-1.3750980701	 0.110219
H	 1.6619641336	 0.1198128742	-0.9191404885	 0.132062
H	 2.1705678972	 1.5716969783	-0.0756605035	 0.121613
H	 3.3738208954	-0.5668927025	 0.8385302986	 0.212451
H	-2.1181807946	-1.2422085824	 2.7621663595	 0.113811
H	-1.4753173464	-2.3569802211	 1.5204628136	 0.124226
H	 0.350243667	 0.701741906	 2.7785875204	 0.10143
H	-1.9344584968	 0.2372768749	-0.5916570346	 0.099343
34.1339	140.1493	222.9766	269.139	324.7907	421.7558	456.0253	489.8249	562.3453	629.8575	719.0716	741.2784	830.9473	884.4117	904.9346	924.4616	940.0094	983.9643	1010.5524	1029.2065	1035.965	1061.6908	1095.4096	1123.1012	1136.2585	1196.6602	1207.5722	1252.0494	1287.0874	1308.9001	1326.6039	1344.7318	1355.4755	1370.4738	1459.3555	1489.3793	1506.1611	1735.5273	1790.5628	2958.9682	3005.6363	3017.1143	3033.2169	3053.6486	3071.482	3084.9493	3180.9438	3405.3168
C1CC23NC4(COC24)C13	C1C[C]([NH])[C@H]2[C](CO2)[CH]1	
InChI=1S/C7H9NO/c1-2-6-4(1)7(8-6)3-9-5(6)7/h4-5,8H,1-3H2	InChI=1S/C7H9NO/c8-6-3-1-2-5-4-9-7(5)6/h2,7-8H,1,3-4H2/t7-/m1/s1
