21
gdb 73478	2.44523	2.1248	1.5299	1.7354	80.05	-0.2369	0.0848	0.3216	959.8124	0.185755	-387.088921	-387.081867	-387.080922	-387.119758	30.173	
C	 0.0329106632	 1.5033417228	 0.0199981271	-0.495785
C	 0.0370854314	-0.0101044366	-0.0674061708	 0.365615
C	 0.7206571549	-0.6355856949	-1.2930275544	-0.302706
C	-0.0585688437	-1.9671978651	-1.5109390903	-0.220244
C	-0.7633760018	-2.1733613017	-0.1623067218	-0.045538
C	 0.3181380055	-2.2253607573	 0.9614134753	-0.229531
C	 0.2638956119	-0.729073758	 1.3139346	 0.032924
O	-1.1598610807	-0.5728129289	 1.6056057291	-0.307319
C	-1.3106194871	-0.7476668634	 0.176975858	 0.050697
H	 1.0538176466	 1.8958424157	 0.0950307103	 0.11185
H	-0.4253686036	 1.9497448173	-0.8697550524	 0.110134
H	-0.5259751264	 1.8353153002	 0.8992232174	 0.13308
H	 0.648144897	 0.0253044901	-2.1622206599	 0.097517
H	 1.7887886553	-0.8048529809	-1.117532659	 0.099654
H	-0.7920244358	-1.8533536463	-2.3179221681	 0.095824
H	 0.5893080188	-2.8067978373	-1.7791911148	 0.098111
H	-1.4923369409	-2.9835195199	-0.1399285747	 0.064681
H	 0.0186338991	-2.8239765262	 1.8239638162	 0.106368
H	 1.2911489085	-2.575612416	 0.6049707205	 0.092688
H	 0.92173745	-0.3306468438	 2.0883656708	 0.069939
H	-2.2762194623	-0.4330463399	-0.2213451387	 0.07204
210.795	242.2124	262.1449	312.5092	373.761	402.3407	504.7826	578.338	613.6288	685.3022	731.4763	810.942	842.5128	846.528	873.8348	894.7865	917.0313	942.9735	955.0103	958.5913	975.1842	1028.5156	1035.059	1045.2187	1085.4669	1123.9151	1151.5306	1190.0407	1207.7202	1209.3297	1234.0028	1248.2141	1264.2988	1279.3652	1304.9487	1308.8584	1316.1376	1351.2091	1365.3095	1407.1482	1485.0877	1487.3548	1494.751	1500.6773	1509.309	3025.3118	3033.2869	3042.0427	3060.9507	3074.3145	3082.9048	3090.3407	3104.6954	3105.8093	3114.4586	3114.6267	3120.07
CC12CCC3CC1OC23	C[C@@]12CC[C@H]3C[C@@H]1O[C@@H]23	
InChI=1S/C8H12O/c1-8-3-2-5-4-6(8)9-7(5)8/h5-7H,2-4H2,1H3	InChI=1S/C8H12O/c1-8-3-2-5-4-6(8)9-7(5)8/h5-7H,2-4H2,1H3/t5-,6-,7+,8+/m0/s1
