21
gdb 74690	2.96005	1.45875	1.16368	1.7246	83.88	-0.226	0.0145	0.2405	1148.1581	0.182611	-387.096131	-387.087773	-387.086829	-387.128387	33.635	
C	-0.0607299276	 1.4819037174	 0.0532257279	-0.478511
C	 0.0096357752	-0.0130540133	-0.0347461817	 0.315651
C	-0.0260198833	-0.7130496468	-1.1717746483	-0.161007
C	 0.0280947253	-2.2185115273	-1.0398224555	 0.046951
C	 1.2153765045	-2.6177087168	-0.1345095197	-0.278936
C	 0.1781777507	-2.3146311023	 0.9771776734	 0.397398
C	 0.1233868967	-3.1789537624	 2.2140156946	-0.47091
C	 0.1113077106	-0.7998617581	 1.2625899177	-0.328105
O	-0.8885198771	-2.6261411192	 0.0244327416	-0.325036
H	 0.823551415	 1.8932223955	 0.5575070712	 0.120939
H	-0.1330368195	 1.9405057374	-0.9367397944	 0.121554
H	-0.929820907	 1.803023388	 0.6423212786	 0.125242
H	-0.0912662354	-0.2430168557	-2.1480676009	 0.080996
H	-0.1532477765	-2.7613692758	-1.9693449866	 0.069923
H	 1.4368717337	-3.6862403688	-0.1829806322	 0.099658
H	 2.1304647844	-2.0248787888	-0.1888343843	 0.09487
H	 0.9811115647	-2.9757621824	 2.8644892299	 0.115925
H	-0.7902722906	-2.9771085347	 2.7838118696	 0.124051
H	 0.1322582439	-4.2377387186	 1.9417758136	 0.121529
H	 0.9946528426	-0.481274297	 1.8345288559	 0.100421
H	-0.7590259207	-0.5867897701	 1.8994883196	 0.107396
145.5603	181.4448	197.1251	249.4602	270.9482	348.3239	379.9554	418.599	437.4809	496.6698	514.2228	629.4668	688.3229	810.0292	827.4183	841.4531	878.5185	890.8687	921.9568	940.9316	960.8627	996.0297	1019.2611	1046.5298	1053.9641	1088.4302	1121.6831	1162.5299	1223.2765	1229.0747	1241.2665	1250.2233	1295.4598	1322.5227	1349.1757	1374.1099	1408.1903	1413.5192	1459.9085	1477.4399	1479.0384	1484.5467	1490.0406	1494.3604	1720.1376	3001.0347	3013.3709	3031.6882	3032.5857	3058.0252	3064.7015	3094.0756	3100.1115	3109.0853	3117.1406	3129.8571	3175.1667
CC1=CC2CC(C)(C1)O2	CC1=C[C@H]2C[C@@](C)(C1)O2	
InChI=1S/C8H12O/c1-6-3-7-5-8(2,4-6)9-7/h3,7H,4-5H2,1-2H3	InChI=1S/C8H12O/c1-6-3-7-5-8(2,4-6)9-7/h3,7H,4-5H2,1-2H3/t7-,8+/m0/s1
