21
gdb 84385	2.17758	1.59913	1.14049	0.5417	89.15	-0.2425	0.0215	0.2641	1167.3392	0.181582	-349.939514	-349.930106	-349.929162	-349.973215	36.214	
C	 0.7885244139	 1.5087782711	-0.377810542	-0.395537
C	 0.123123321	 0.176359331	 0.0012681533	-0.037175
C	 0.2936673987	-0.8782221543	-1.0678256523	-0.073622
C	 1.1107923436	-1.8626411166	-0.7016896128	-0.07361
C	 1.6656742984	-1.682038306	 0.6924697825	-0.037186
C	 3.1678772147	-1.3577364164	 0.6883768083	-0.395537
C	 0.7227151786	-0.5565516909	 1.2577909984	-0.210087
C	 1.3122308973	 0.3081311282	 2.2669208019	 0.337536
C	 1.7910347454	 1.0193913201	 3.111001194	-0.474754
H	 1.8571558077	 1.3810603083	-0.5741188077	 0.1227
H	 0.3290415588	 1.9172192591	-1.2841766798	 0.108239
H	 0.6769722541	 2.2437869345	 0.4238835164	 0.126335
H	-0.9387324563	 0.3808556947	 0.1874401041	 0.080686
H	-0.178258202	-0.7856282845	-2.0406415434	 0.091402
H	 1.4075784789	-2.6961416285	-1.3300631103	 0.091403
H	 1.5274341079	-2.5902687589	 1.2924912004	 0.080685
H	 3.380952549	-0.4547138145	 0.108746466	 0.122699
H	 3.5372878351	-1.2022120891	 1.7056014725	 0.126339
H	 3.7322300452	-2.1827089476	 0.2407480059	 0.108236
H	-0.1190380951	-1.0811370663	 1.7259252178	 0.109889
H	 2.2133364153	 1.6472443766	 3.8557424367	 0.191357
77.1053	146.2064	173.0816	197.4418	221.6136	224.477	331.9761	332.112	362.0183	500.9588	528.202	565.9879	617.8538	631.8622	696.9366	739.4416	759.8103	779.9263	839.1843	902.1403	940.9577	977.9349	1013.6804	1054.9207	1069.1363	1076.4818	1103.939	1111.0486	1135.608	1143.3152	1262.8968	1300.4733	1307.8806	1333.4295	1350.645	1356.3768	1368.4816	1406.3379	1408.7351	1489.2114	1491.4233	1495.4761	1498.3953	1689.0057	2228.9404	3010.8096	3018.8119	3034.9713	3036.0427	3037.8348	3103.0413	3105.9318	3118.3895	3121.043	3172.8455	3198.3588	3504.1508
CC1C=CC(C)C1C#C	C[C@H]1C=C[C@@H](C)[C@H]1C#C	
InChI=1S/C9H12/c1-4-9-7(2)5-6-8(9)3/h1,5-9H,2-3H3	InChI=1S/C9H12/c1-4-9-7(2)5-6-8(9)3/h1,5-9H,2-3H3/t7-,8+,9-
