20
gdb 100502	3.50724	0.81214	0.70729	3.7181	88.82	-0.2346	-0.0128	0.2218	1676.6296	0.168085	-403.157713	-403.146441	-403.145496	-403.196084	37.819	
C	 0.0282202142	 1.5458870184	 0.0276901813	-0.377702
C	-0.0343418809	 0.0157706347	-0.0075420314	-0.151222
N	-1.3999809219	-0.5035301201	-0.0402345279	-0.086975
C	-2.0202894438	-0.6890267396	-1.3366823601	-0.342912
C	-2.0270040838	-0.7205052202	 1.1578782586	 0.285428
O	-1.4870310679	-0.4973710872	 2.2326397234	-0.388811
C	-3.3835904287	-1.2448433234	 1.1021527428	-0.096703
C	-4.5064714713	-1.6759401659	 1.190389036	 0.177997
C	-5.8590547764	-2.197112463	 1.3014451344	-0.507366
H	 1.0701287589	 1.881512589	 0.0279662541	 0.11678
H	-0.4682518329	 1.9922577611	-0.8401325093	 0.113385
H	-0.4532931422	 1.9185100838	 0.9350730584	 0.145185
H	 0.487329707	-0.3714454035	-0.8898407832	 0.096155
H	 0.4487555751	-0.391156581	 0.8828379198	 0.141168
H	-1.4598046115	-1.4186279652	-1.9350475843	 0.125083
H	-3.0393291397	-1.0524682192	-1.20813955	 0.15117
H	-2.0559422874	 0.2538637926	-1.8969506193	 0.125816
H	-6.1983318824	-2.1960544112	 2.3426106679	 0.161182
H	-6.563383592	-1.5955889259	 0.7165920619	 0.155416
H	-5.9143829424	-3.2266238341	 0.9310625967	 0.156927
27.5301	54.4268	58.742	95.5445	130.3284	174.9158	181.6408	225.7832	292.9149	347.831	384.29	396.4694	416.2979	489.7906	586.0668	702.6134	754.3276	784.094	865.906	989.898	1049.604	1052.7367	1062.9105	1097.6948	1108.579	1156.7427	1207.799	1263.5628	1337.5635	1391.2914	1406.1525	1411.5351	1433.8397	1463.2055	1472.3997	1475.8566	1478.0374	1485.8633	1492.9816	1504.3976	1528.0429	1718.4271	2348.6619	3010.7486	3030.7506	3038.7307	3043.9864	3056.2599	3093.063	3096.8133	3099.7886	3118.1286	3132.0648	3153.2611
CCN(C)C(=O)C#CC	CCN(C)C(=O)C#CC	
InChI=1S/C7H11NO/c1-4-6-7(9)8(3)5-2/h5H2,1-3H3	InChI=1S/C7H11NO/c1-4-6-7(9)8(3)5-2/h5H2,1-3H3
