17
gdb 41597	2.96222	1.81962	1.70949	2.0881	65.8	-0.2394	0.0549	0.2943	868.5627	0.138378	-458.9131	-458.906503	-458.905559	-458.944183	25.997	
C	 0.227605896	 1.5750229942	-0.1360484524	-0.092673
O	 1.5577224358	 1.4104437037	 0.4283221626	-0.290564
C	 1.3197422407	 0.017361798	 0.7106014586	 0.064624
C	-0.0343635654	 0.069070043	-0.0606597447	-0.113813
C	 0.6244050703	-0.7598327985	-1.2170342081	 0.050023
O	 1.0659052418	-0.0585811107	-2.3620798282	-0.267306
C	 2.4387247889	 0.2859722164	-2.1900459188	 0.024824
O	 2.9746228634	-0.5322892645	-1.1685139979	-0.252334
C	 1.904729296	-0.9525199347	-0.3653317254	 0.090338
H	-0.4065708065	 2.1761907167	 0.5263575646	 0.105474
H	 0.2494556258	 2.0197520609	-1.135272097	 0.120828
H	 1.4536985824	-0.2286926115	 1.7675571786	 0.076762
H	-0.9872926172	-0.2921543236	 0.3213212791	 0.078482
H	 0.0642195531	-1.6422817257	-1.5344754524	 0.09019
H	 2.973070531	 0.0766921677	-3.1236319293	 0.112075
H	 2.5304503137	 1.3439626336	-1.9178730701	 0.113832
H	 2.11045699	-1.9553147151	 0.0179673208	 0.089238
114.4398	205.5801	230.2975	260.9069	492.0205	556.4291	626.8888	721.8013	735.0943	784.1536	830.8146	873.3467	900.2167	937.2613	951.3015	984.8517	997.0705	1019.8153	1046.7252	1075.1708	1115.1171	1139.347	1146.5266	1179.2445	1180.5948	1199.6989	1214.6634	1242.7134	1254.5737	1289.8671	1315.5872	1333.3787	1344.2202	1369.1666	1439.138	1517.7727	1543.5623	3022.279	3026.9909	3066.6083	3071.0708	3076.4661	3087.115	3089.4607	3131.6568
C1OC2C1C1OCOC21	C1O[C@H]2[C@@H]1[C@H]1OCO[C@@H]21	
InChI=1S/C6H8O3/c1-3-4(7-1)6-5(3)8-2-9-6/h3-6H,1-2H2	InChI=1S/C6H8O3/c1-3-4(7-1)6-5(3)8-2-9-6/h3-6H,1-2H2/t3-,4+,5-,6+/m1/s1
