19
gdb 103260	2.74193	1.29699	1.10126	4.3523	75.62	-0.2724	0.0008	0.2731	1182.2874	0.157645	-423.031782	-423.022835	-423.02189	-423.065688	33.441	
C	 0.2197642817	 1.3218350373	 0.3428873463	-0.384874
C	-0.1921358438	-0.0640512267	-0.1703803916	-0.255931
C	 0.6533823051	-0.5546342301	-1.3376880137	 0.290511
C	 0.4861998806	 0.2141647893	-2.6395499623	-0.465265
C	 2.0091100879	-1.1402437357	-1.1431987498	 0.048689
O	 2.1097409825	-1.8148194519	 0.139409951	-0.264582
C	 1.1597238461	-2.7499184672	-0.2729703788	 0.46313
O	 0.8118398841	-3.722566097	 0.3120054962	-0.328619
C	 0.9010434848	-2.0684334744	-1.5876851465	-0.339018
H	 1.2617257688	 1.3177865489	 0.6785599717	 0.1288
H	 0.1140476814	 2.0958103606	-0.4235158128	 0.116608
H	-0.4039830168	 1.6145161414	 1.1924142129	 0.121297
H	-0.1324972209	-0.7768802961	 0.6554953492	 0.130408
H	-1.2412532133	-0.0483421124	-0.4906974542	 0.102456
H	 0.7331708572	 1.2710026517	-2.5034851993	 0.133985
H	 1.1351970163	-0.1806140841	-3.4275021285	 0.121986
H	-0.5478601165	 0.152137688	-2.9942188081	 0.132328
H	 2.9378664991	-0.8616989722	-1.6226174658	 0.125114
H	 0.6898092155	-2.5480453793	-2.5325133761	 0.122976
51.4635	118.3254	182.5994	205.0859	222.2698	275.8754	309.1327	350.1275	428.3581	502.8651	531.012	678.9431	709.6325	780.7753	787.7123	832.1961	848.8736	906.0406	945.7659	964.8503	1008.0502	1020.7162	1041.2241	1060.5909	1073.3753	1095.3255	1132.1717	1182.4973	1249.3743	1278.3929	1317.51	1367.1394	1405.7601	1408.8253	1418.1751	1477.8264	1491.7661	1500.9462	1504.8015	1507.5151	1940.1798	3034.6105	3037.7875	3040.4607	3091.5179	3103.8213	3109.9825	3112.1602	3116.2464	3210.7851	3226.6724
CCC1(C)C2OC(=O)C12	CC[C@@]1(C)[C@H]2OC(=O)[C@@H]12	
InChI=1S/C7H10O2/c1-3-7(2)4-5(7)9-6(4)8/h4-5H,3H2,1-2H3	InChI=1S/C7H10O2/c1-3-7(2)4-5(7)9-6(4)8/h4-5H,3H2,1-2H3/t4-,5-,7+/m0/s1
