19
gdb 71437	3.90138	1.34302	1.20016	3.2252	78.84	-0.2312	-0.0074	0.2238	1079.5668	0.16033	-385.89896	-385.891403	-385.890459	-385.930692	30.409	
C	-0.0213595558	 1.5097167414	 0.0125207645	-0.50413
C	-0.0254894372	 0.0083379017	-0.0008562431	 0.351094
C	-1.2856774504	-0.8588522741	-0.0829998247	-0.298769
C	-0.5075593311	-2.0143686981	 0.6521236023	-0.149763
C	 0.6100728411	-0.9858834577	 0.962147922	-0.134717
C	 1.192668897	-0.8033265386	-0.4236902079	-0.093293
C	 1.0441252194	-2.0699626205	-1.2473856672	-0.358382
C	 0.0572002717	-2.9271711779	-0.4276464375	 0.421533
O	-0.2147997331	-4.082437656	-0.6232444007	-0.326431
H	 0.9663655369	 1.9021777813	 0.2764870963	 0.119831
H	-0.2860798202	 1.9168695862	-0.9708743662	 0.122295
H	-0.742016446	 1.9022093271	 0.7392267762	 0.118352
H	-2.0745091856	-0.4680624236	 0.5649287271	 0.11169
H	-1.7142717861	-1.0765948685	-1.0684909393	 0.100102
H	-1.0300018727	-2.5334905685	 1.451699822	 0.086701
H	 1.1383248046	-0.8409805731	 1.8953629716	 0.089761
H	 2.1081536424	-0.2284293454	-0.5083189045	 0.087596
H	 0.6572634502	-1.9210688696	-2.2616719867	 0.127047
H	 1.9931307048	-2.6079776362	-1.3431475042	 0.129483
106.4953	200.3556	218.4575	271.1325	324.3329	416.3162	441.8178	502.5245	615.2572	659.9623	685.1501	727.1416	763.8178	820.3679	860.3738	907.5152	927.514	933.3689	959.2809	983.4171	1009.5874	1023.4429	1048.6804	1084.8648	1140.7503	1164.3657	1177.9089	1200.7812	1210.3019	1226.9388	1252.6136	1276.2387	1296.8403	1315.1364	1414.471	1441.4899	1456.9085	1485.5648	1495.4386	1502.9828	1848.3325	3020.0678	3031.0721	3046.7506	3079.3504	3085.3267	3094.2825	3096.9572	3150.7436	3174.9804	3199.181
CC12CC3C1C2CC3=O	C[C@]12C[C@@H]3[C@H]1[C@H]2CC3=O	
InChI=1S/C8H10O/c1-8-3-4-6(9)2-5(8)7(4)8/h4-5,7H,2-3H2,1H3	InChI=1S/C8H10O/c1-8-3-4-6(9)2-5(8)7(4)8/h4-5,7H,2-3H2,1H3/t4-,5+,7-,8+/m0/s1
