20
gdb 92184	2.64354	1.86964	1.67738	2.091	76.84	-0.2094	0.0716	0.281	921.7723	0.174504	-403.10441	-403.097533	-403.096589	-403.135123	29.382	
O	 0.016496358	 1.3818309411	-0.2128662607	-0.433789
C	 0.009326308	-0.025386296	 0.00875247	 0.118365
C	 0.6467995275	-0.4407514746	 1.3633339692	-0.259442
C	-0.4513624175	-0.5590538656	 2.4249833093	 0.008342
C	-1.3606062194	 0.6956963948	 2.3816354934	-0.238635
C	-2.1642801501	-0.1107324817	 1.3583312131	 0.023596
C	-1.4461889283	-0.4917683314	 0.0159322334	-0.048455
C	-1.4660491355	-1.938140598	 0.5686845316	-0.187738
N	-1.6409955958	-1.4085828685	 1.9586671531	-0.141383
H	 0.9329289622	 1.6757531162	-0.2285807915	 0.280349
H	 0.537414849	-0.5310047827	-0.8154171538	 0.064497
H	 1.1818633415	-1.3905948384	 1.2570015748	 0.103676
H	 1.3891322306	 0.3049772234	 1.6724159701	 0.089862
H	-0.0578839491	-0.8815333189	 3.3919554164	 0.068398
H	-1.932999821	 0.8192010899	 3.3039650976	 0.103635
H	-0.9154670587	 1.6408092104	 2.0742910686	 0.111793
H	-3.2487200108	 0.0092408647	 1.2840609169	 0.066879
H	-1.9479926789	-0.2599122316	-0.9261669293	 0.067469
H	-2.3692331967	-2.4933136148	 0.2980492054	 0.106733
H	-0.597164585	-2.5801101384	 0.3875489623	 0.095848
186.9486	272.7006	286.5832	380.1825	385.8155	420.3826	440.5284	562.7224	663.7699	727.2174	739.9385	793.9772	825.6167	843.877	870.161	913.9758	943.8982	973.6263	985.5541	986.8051	1019.4928	1052.5174	1081.9778	1090.8757	1107.8038	1120.8197	1174.025	1186.4032	1200.5511	1215.5139	1252.657	1260.7395	1273.8034	1295.6232	1300.723	1329.6673	1332.1456	1368.7323	1385.3372	1427.7052	1470.5345	1481.384	1509.7578	2963.3063	3031.0135	3039.383	3061.2199	3068.8797	3072.419	3079.03	3084.8005	3090.3306	3150.2594	3814.5911
OC1CC2CC3C1CN23	O[C@H]1C[C@H]2C[C@H]3[C@@H]1CN23	
InChI=1S/C7H11NO/c9-7-2-4-1-6-5(7)3-8(4)6/h4-7,9H,1-3H2	InChI=1S/C7H11NO/c9-7-2-4-1-6-5(7)3-8(4)6/h4-7,9H,1-3H2/t4-,5+,6+,7+/m1/s1
