17
gdb 42684	3.07329	1.7304	1.72865	2.8719	70.51	-0.2263	-0.0245	0.2018	875.4156	0.139164	-421.833529	-421.827336	-421.826391	-421.863891	26.013	
O	 0.0623765836	 0.0113081226	 0.0225753586	-0.326213
C	-0.0057643144	 1.2074732601	 0.0085623841	 0.45711
C	-1.1767274507	 2.167231137	 0.0375912234	-0.194701
C	-0.7821325347	 3.2483861965	 1.1330890438	-0.044975
C	-1.0393829894	 4.3543588275	 0.0790892091	-0.238084
C	-0.7482141568	 3.2738384456	-0.9807488695	 0.119795
O	 0.677717787	 3.0834142086	-1.1306134819	-0.291015
C	 1.0943665977	 2.2892122647	-0.0107028819	-0.027515
C	 0.7541070721	 3.0309497702	 1.2940470487	-0.247185
H	-2.1906127751	 1.7816503965	 0.0087096519	 0.092739
H	-1.3305767129	 3.2718085358	 2.0744501744	 0.080094
H	-2.0889816324	 4.6620363314	 0.0549476973	 0.103839
H	-0.3917789526	 5.2355069406	 0.0833817782	 0.103143
H	-1.1917064221	 3.331497852	-1.9752494364	 0.088687
H	 2.1191859769	 1.9566452102	-0.158715688	 0.097525
H	 1.295879539	 3.9746319523	 1.4009599896	 0.112147
H	 0.9854260449	 2.3963746384	 2.1573088088	 0.11461
147.003	296.446	351.3853	445.9712	463.1329	548.2453	576.657	673.1424	762.4206	810.852	828.9628	834.8812	853.3741	885.7544	902.7941	939.1621	946.5072	970.591	1001.7191	1037.3592	1074.6397	1097.6278	1126.0951	1154.017	1162.6215	1204.5675	1216.7385	1237.7906	1261.6129	1282.0901	1289.468	1314.0006	1332.5897	1356.4365	1473.9534	1486.6919	1886.3219	3042.2184	3050.9653	3097.9289	3106.4621	3108.4508	3112.7549	3155.1788	3178.4526
O=C1C2C3CC2OC1C3	O=C1[C@H]2[C@@H]3C[C@H]2O[C@H]1C3	
InChI=1S/C7H8O2/c8-7-5-2-3-1-4(9-5)6(3)7/h3-6H,1-2H2	InChI=1S/C7H8O2/c8-7-5-2-3-1-4(9-5)6(3)7/h3-6H,1-2H2/t3-,4-,5+,6+/m1/s1
