21
gdb 38928	2.68751	1.95887	1.42138	1.285	80.71	-0.2322	0.0754	0.3077	981.9529	0.18628	-387.069044	-387.062076	-387.061132	-387.100223	29.283	
C	 0.0960955814	 1.504295573	-0.4280849071	-0.24953
C	 1.6152841013	 1.482067937	-0.0746379581	-0.017143
C	 1.9693179378	 2.0837374069	 1.3045215908	-0.246334
C	 1.4654700672	 0.7861628238	 1.984860615	 0.112148
O	 0.2035773218	 0.9915149159	 2.5986511277	-0.262942
C	-0.6289224954	-0.1548156645	 2.5007403871	-0.069059
C	-1.1516427884	-0.3300609755	 1.0672053526	-0.238884
C	-0.054418031	 0.0198928978	 0.0462135464	 0.026487
C	 1.3947525792	 0.0800553978	 0.5884895715	-0.07797
H	-0.479872084	 2.2200961477	 0.1642594501	 0.103589
H	-0.1313753084	 1.667123034	-1.4845462876	 0.093592
H	 2.3050482387	 1.6488879081	-0.9025135978	 0.060106
H	 3.0474529498	 2.2167518538	 1.4343012943	 0.096031
H	 1.4558262502	 2.9999082096	 1.6085947216	 0.102344
H	 2.1533487797	 0.3192122418	 2.7043712359	 0.062259
H	-0.0722495546	-1.05166415	 2.8184748645	 0.085163
H	-1.4472525008	-0.0082632365	 3.2115766372	 0.103904
H	-1.5003980032	-1.3611725416	 0.9367588176	 0.09189
H	-2.0198358928	 0.3192826684	 0.9050327244	 0.101828
H	-0.1162229258	-0.6419122219	-0.8214549006	 0.06878
H	 2.0565399374	-0.7760481859	 0.4509868744	 0.053742
94.7636	252.0459	317.622	323.1674	393.2669	459.075	484.1679	607.6958	683.4459	736.839	768.3409	790.3022	839.8099	864.7752	893.489	911.6312	940.7099	953.0578	988.068	1004.7615	1034.8874	1057.7031	1086.7818	1101.2857	1126.5354	1136.7769	1149.9178	1176.2513	1221.4159	1231.4393	1250.1327	1267.7286	1273.5705	1289.9662	1295.8067	1310.7488	1313.9993	1340.9149	1361.1189	1374.3104	1410.8289	1465.3149	1478.8253	1485.1875	1504.5488	2968.8684	2987.8724	3027.6163	3051.4401	3053.8799	3059.0336	3069.3516	3084.5838	3090.3431	3099.8639	3107.0306	3114.3669
C1C2CC3OCCC1C23	C1[C@H]2C[C@H]3OCC[C@@H]1[C@@H]23	
InChI=1S/C8H12O/c1-2-9-7-4-6-3-5(1)8(6)7/h5-8H,1-4H2	InChI=1S/C8H12O/c1-2-9-7-4-6-3-5(1)8(6)7/h5-8H,1-4H2/t5-,6-,7+,8-/m0/s1
