19
gdb 80354	3.26426	1.27603	1.11742	1.8437	81.28	-0.2453	0.0559	0.3011	1142.556	0.157387	-385.820627	-385.811663	-385.810719	-385.853561	35.114	
C	-0.1991243381	 1.6123910623	 0.0271709064	-0.461917
C	-0.0054318664	 0.0893417111	 0.0249544254	 0.121977
C	 1.1254713519	-0.5188784672	-0.8975597267	-0.286042
C	 1.7331508907	-1.23550848	 0.3136576079	-0.099032
C	 2.1522595004	-0.2427338026	 1.3511585486	 0.074632
O	 2.6531050938	 1.0304727696	 1.0464217344	-0.414498
C	 0.6972602687	-0.5607991374	 1.2465390184	-0.112933
C	-1.2783147536	-0.5791768823	-0.224669478	 0.307858
C	-2.3354070187	-1.1174829045	-0.4241294672	-0.471727
H	 0.7523475477	 2.1155312936	 0.1977425847	 0.144047
H	-0.6191158172	 1.9414159558	-0.9287287285	 0.115958
H	-0.8990543403	 1.9048223109	 0.816199839	 0.119201
H	 0.7245972962	-1.1926983715	-1.6539235995	 0.117767
H	 1.7721069179	 0.2228489674	-1.3748419663	 0.096293
H	 2.0905233243	-2.2584074877	 0.3141186996	 0.084869
H	 2.6112449145	-0.6945368681	 2.2322719067	 0.091539
H	 3.5359173173	 0.91900329	 0.677349287	 0.287525
H	 0.1505891681	-0.9779231463	 2.0840864612	 0.095237
H	-3.268171697	-1.5913369031	-0.6045241733	 0.189246
125.8329	130.8246	211.8042	227.9556	238.5679	283.5957	295.9521	356.4572	467.194	518.4099	547.0071	592.7748	613.2062	624.9394	649.1624	736.4179	782.5837	850.4545	866.7179	912.2775	958.6479	991.0062	1004.5327	1022.276	1040.3479	1083.7916	1134.3279	1158.8429	1173.3152	1220.2016	1235.525	1261.4182	1293.3216	1303.7685	1348.4263	1403.8884	1450.4	1480.3867	1493.5538	1503.1896	2229.2062	3042.7027	3061.0905	3089.8151	3104.8393	3137.9783	3158.7441	3175.3149	3185.6009	3503.4756	3802.8509
CC1(CC2C(O)C12)C#C	C[C@]1(C[C@H]2[C@@H](O)[C@@H]12)C#C	
InChI=1S/C8H10O/c1-3-8(2)4-5-6(8)7(5)9/h1,5-7,9H,4H2,2H3	InChI=1S/C8H10O/c1-3-8(2)4-5-6(8)7(5)9/h1,5-7,9H,4H2,2H3/t5-,6+,7-,8-/m1/s1
