15
gdb 16148	4.13824	1.74458	1.46509	2.3737	61.75	-0.2523	-0.0336	0.2188	851.9275	0.11998	-399.784951	-399.778179	-399.777235	-399.816016	25.219	
O	-0.4787649176	 0.6929172993	 0.7319759909	-0.264627
C	 0.2150695406	 0.9816974691	-0.2125792513	 0.101521
C	 1.3757412557	 1.900196915	-0.1320448886	 0.204207
C	 1.8846705736	 2.407376904	 1.2072332094	-0.160754
O	 2.7238293924	 3.516566255	 0.8871306415	-0.258546
C	 2.173766956	 4.1594754461	-0.256152713	-0.105787
C	 1.5779089746	 3.0392807338	-1.0943547143	-0.08131
N	 2.3568179784	 1.8216289066	-1.2331500943	-0.364463
H	 0.0343222474	 0.5759027483	-1.2310353526	 0.090222
H	 1.0316012543	 2.6985503404	 1.8358138943	 0.123078
H	 2.4922032973	 1.6827851576	 1.7570359803	 0.124552
H	 1.3842002539	 4.878226359	 0.015751916	 0.108091
H	 2.9840653481	 4.7034226209	-0.7524474747	 0.122687
H	 0.8832079499	 3.2699521341	-1.895784798	 0.112197
H	 3.2938243556	 1.9551438109	-0.8534701455	 0.248934
108.5302	194.1562	231.6027	267.3703	371.9344	426.0877	489.58	650.9766	714.2427	772.0622	832.7758	890.4405	941.4973	978.8407	1006.162	1043.1693	1048.8228	1076.3851	1111.5295	1137.1174	1172.4131	1213.5019	1248.3345	1301.1623	1313.9175	1342.247	1377.0888	1406.5007	1443.6069	1505.6901	1518.0085	1812.3049	2909.9396	2982.8487	3016.8381	3075.9113	3090.1707	3168.92	3472.392
O=CC12COCC1N2	O=C[C@]12COC[C@H]1N2	
InChI=1S/C5H7NO2/c7-2-5-3-8-1-4(5)6-5/h2,4,6H,1,3H2	InChI=1S/C5H7NO2/c7-2-5-3-8-1-4(5)6-5/h2,4,6H,1,3H2/t4-,5+/m1/s1
