16
gdb 8734	3.7275	1.28292	1.17467	2.3613	70.83	-0.2678	0.0211	0.2889	1056.3897	0.129093	-342.757018	-342.747916	-342.746972	-342.790535	32.677	
C	-0.0627267695	 1.5882392395	-0.0698488372	-0.41392
C	 0.0483220367	 0.0526946722	-0.0180063422	-0.154524
C	 0.6818307574	-0.4855454441	-1.2184590928	 0.334131
C	 1.1870790206	-0.9296760876	-2.2138075378	-0.451569
C	 0.8002617499	-0.4475303951	 1.2557157649	-0.137827
N	 2.1446403251	 0.1144297019	 1.3448750771	-0.486976
C	-0.0228345682	-0.1832680272	 2.4582179375	 0.261517
N	-0.6339517212	 0.051139345	 3.411755221	-0.326135
H	 0.9240525809	 2.0460551908	-0.1760437223	 0.137479
H	-0.6628064812	 1.8901887306	-0.930898669	 0.138217
H	-0.5433054184	 1.969382565	 0.8363441652	 0.138118
H	-0.9670119605	-0.3594596455	 0.0474858063	 0.126482
H	 1.6366028286	-1.3205835769	-3.0929754861	 0.199136
H	 0.9018149471	-1.5335780855	 1.1641104738	 0.142328
H	 2.1039092055	 1.0902119361	 1.621617036	 0.245531
H	 2.6780985673	-0.3682402692	 2.0605144358	 0.248012
67.0026	125.1474	166.1532	214.8323	225.9362	240.2183	282.3701	318.3967	376.0353	493.5019	533.128	575.1406	625.8824	651.6693	662.7379	806.0396	841.1269	898.622	963.9075	1025.296	1056.8604	1106.7102	1158.421	1212.6116	1288.0392	1335.3705	1353.3818	1399.018	1408.4051	1494.0805	1508.4161	1666.7739	2241.0328	2341.9577	3025.9948	3048.276	3067.7322	3125.2483	3132.777	3503.8241	3509.5537	3587.5468
CC(C#C)C(N)C#N	C[C@@H](C#C)[C@@H](N)C#N	
InChI=1S/C6H8N2/c1-3-5(2)6(8)4-7/h1,5-6H,8H2,2H3	InChI=1S/C6H8N2/c1-3-5(2)6(8)4-7/h1,5-6H,8H2,2H3/t5-,6-/m0/s1
