15
gdb 44974	3.86085	1.2154	1.05249	2.8874	71.66	-0.273	0.002	0.275	1106.7605	0.113807	-416.825622	-416.818211	-416.817267	-416.857794	28.185	
N	 0.0600827696	 1.0178570513	-0.7807084412	-0.518967
C	 0.0245997728	-0.0149823364	-0.0652702653	 0.401895
C	-1.2394068304	-0.7559773311	 0.347416419	-0.382875
C	-0.7279860637	-2.0154998383	 1.0325094219	 0.141922
C	 0.1976571691	-2.9131324078	 0.2064212271	-0.344447
C	 0.7852206601	-1.8525173845	 1.0767184793	 0.066689
O	 1.1348300347	-0.638467775	 0.4654204731	-0.230991
C	-1.4598988897	-2.5789154561	 2.1270259465	 0.211437
N	-2.0519325461	-3.0367122258	 3.0093085227	-0.337549
H	 1.0196697677	 1.334722371	-0.9251010698	 0.233989
H	-1.8159684867	-0.1395615274	 1.0425131216	 0.162083
H	-1.8694141816	-0.951189819	-0.5226906539	 0.156691
H	 0.2930308605	-3.9415397822	 0.5341354894	 0.15257
H	 0.2088755232	-2.7610982167	-0.8678888827	 0.144769
H	 1.3829749705	-2.080576642	 1.9493358623	 0.142782
80.307	151.0933	172.2827	298.9178	421.1755	437.3364	480.5694	527.6239	560.2582	581.1626	673.8572	741.817	824.0419	868.5039	891.9552	902.6865	937.6967	989.789	1030.4217	1040.5365	1056.1822	1088.4293	1160.2846	1179.6678	1242.1281	1248.199	1280.1287	1329.1544	1400.6262	1464.0006	1477.529	1790.6262	2354.6109	3076.2954	3121.6591	3138.8957	3210.7606	3238.203	3486.1278
N=C1CC2(CC2O1)C#N	[NH][C]1C[C@]2(C[C@H]2O1)C#N	
InChI=1S/C6H6N2O/c7-3-6-1-4(6)9-5(8)2-6/h4,8H,1-2H2	InChI=1S/C6H6N2O/c7-3-6-1-4(6)9-5(8)2-6/h4,8H,1-2H2/t4-,6-/m1/s1
