17
gdb 99225	4.79499	0.70896	0.6226	16.7378	72.04	-0.1667	-0.0277	0.1391	1721.2892	0.13283	-492.271777	-492.261109	-492.260165	-492.309476	35.943	
C	 0.1430837171	 1.3567658811	 0.0052156806	-0.354437
N	-0.0751274141	-0.0784171446	 0.0018227307	-0.33442
C	-1.2657903045	-0.6846603493	 0.0109032759	 0.611876
N	-2.3976857582	 0.025896669	 0.0259511078	-0.549352
H	-3.2761363252	-0.4683278107	 0.0333992256	 0.302331
H	-2.3982786775	 1.0305065237	 0.032016263	 0.290938
O	-1.247369384	-1.9630414299	 0.0040983252	-0.176877
C	-2.5123157741	-2.7792067565	 0.0129226024	-0.280175
C	-2.1713147177	-4.3321357116	 0.0002860817	 0.364496
O	-0.9761850731	-4.6223048513	-0.0142501642	-0.455264
O	-3.2419582134	-4.9527000546	 0.0084377085	-0.464959
H	 1.2172005417	 1.5405269658	-0.003847551	 0.174951
H	-0.287670163	 1.8318939003	-0.8837515944	 0.156108
H	-0.2711196424	 1.8248990322	 0.905680094	 0.156045
H	 0.7098102305	-0.7124846277	-0.0105119234	 0.301882
H	-3.0526090302	-2.5129717321	 0.925230705	 0.128435
H	-3.0719847218	-2.5026307438	-0.8845063776	 0.12842
23.6753	53.0675	95.0818	112.9445	124.2219	163.4775	226.645	277.9952	283.1531	357.9314	458.3218	525.0678	564.6969	578.5247	597.0496	674.7323	752.3615	797.9149	845.232	941.3836	965.595	1075.2851	1157.3203	1158.4944	1201.1161	1202.4048	1268.5308	1323.1795	1413.4668	1443.6915	1456.2564	1491.5517	1516.3326	1565.9131	1666.294	1684.0356	1848.2192	3026.1022	3049.3329	3083.8083	3134.1688	3155.9956	3598.2315	3634.4296	3732.4363
CNC(=[NH2+])OCC([O-])=O	CNC(=[NH2])OCC(=O)[O]	
InChI=1S/C4H8N2O3/c1-6-4(5)9-2-3(7)8/h2H2,1H3,(H2,5,6)(H,7,8)	InChI=1S/C4H8N2O3/c1-6-4(5)9-2-3(7)8/h6H,2,5H2,1H3
