20
gdb 114184	3.04109	1.10325	0.90993	2.443	81.95	-0.2312	-0.0215	0.2097	1357.6112	0.16989	-403.135601	-403.126363	-403.125418	-403.170056	34.272	
C	-0.022233378	 1.7234607053	-0.2572216568	-0.386467
C	-0.3218484563	 0.2230746377	-0.2937098601	-0.164315
C	 0.7001886581	-0.5583687471	-1.1120704695	-0.08958
N	 2.0743475985	-0.6404522852	-0.5010828816	-0.393424
C	 2.0400819277	-2.1148901242	-0.533421367	 0.24129
C	 3.1441305629	-3.0679224345	-0.9173221848	-0.327077
C	 2.62541607	-3.0487451732	 0.494315062	-0.295367
C	 0.6303109712	-2.0987511483	-1.0451887034	 0.321978
O	-0.2040416448	-2.9266670976	-1.275504602	-0.318186
H	 0.9709902924	 1.9048313428	 0.1648471311	 0.130136
H	-0.0486005986	 2.1592882568	-1.2625659456	 0.109892
H	-0.7536200392	 2.2570791272	 0.3571232349	 0.115595
H	-0.3330208289	-0.1783946444	 0.7261457099	 0.104897
H	-1.314235679	 0.0364299759	-0.7217419129	 0.110554
H	 0.7090615084	-0.2036478867	-2.1525587636	 0.094764
H	 2.7859338471	-0.2603200424	-1.1172599255	 0.221586
H	 2.8827001796	-3.9000146065	-1.5627135429	 0.136276
H	 4.1209375212	-2.6327433277	-1.1044485919	 0.123145
H	 3.2441132388	-2.5907132899	 1.2581527222	 0.129553
H	 1.998646009	-3.868787518	 0.8285394275	 0.13475
58.3253	92.9332	141.9022	178.6688	213.984	232.778	300.7368	342.7815	401.2331	503.762	589.226	688.8563	739.8415	760.7487	774.4173	805.7979	836.1484	895.7537	922.1351	943.2799	989.3096	1000.6468	1038.0454	1056.9492	1070.0228	1079.3367	1101.8225	1151.6021	1195.054	1201.7647	1258.9887	1284.5863	1320.3783	1338.3163	1366.8648	1396.8079	1407.4902	1450.7927	1476.9085	1484.3123	1497.2166	1509.1806	1894.8807	3008.1832	3031.5662	3034.1556	3071.7471	3101.1664	3112.5797	3126.3054	3133.8517	3212.3416	3230.9602	3515.5461
CCC1NC2(CC2)C1=O	CC[C@H]1NC2(CC2)C1=O	
InChI=1S/C7H11NO/c1-2-5-6(9)7(8-5)3-4-7/h5,8H,2-4H2,1H3	InChI=1S/C7H11NO/c1-2-5-6(9)7(8-5)3-4-7/h5,8H,2-4H2,1H3/t5-/m1/s1
