19
gdb 107883	2.48641	1.62348	1.17982	2.2869	74.93	-0.2269	0.0711	0.298	1096.3097	0.15783	-422.935828	-422.927471	-422.926527	-422.968726	32.35	
C	-0.0553608307	 1.5863301916	-0.1219230191	-0.381535
C	-0.0605556357	 0.0546156298	-0.0559938467	-0.331735
C	-1.4427710022	-0.5115478991	 0.0404518587	 0.507119
O	-2.4047344235	-0.2223075607	-1.0324764256	-0.365042
C	-3.1407501973	-1.0554959249	-0.0947718495	 0.068948
C	-1.9387690143	-1.9895911288	 0.2336330475	-0.172336
C	-2.132610438	-1.795834625	 1.7406789734	 0.093592
O	-0.937137658	-1.9033953584	 2.4837544729	-0.43552
C	-2.524816338	-0.4113542691	 1.1808700565	-0.193762
H	 0.963091518	 1.9668580568	-0.2413988532	 0.11157
H	-0.6556998137	 1.9386939751	-0.9650395768	 0.138368
H	-0.4725053453	 2.022450249	 0.7917119821	 0.11398
H	 0.4178941732	-0.3614885895	-0.9513432352	 0.10992
H	 0.5034876415	-0.3062867586	 0.8100904372	 0.126061
H	-4.1761273899	-1.3076960481	-0.3177273493	 0.093886
H	-1.6140397565	-2.8688533954	-0.3217069104	 0.083517
H	-2.9452880429	-2.3758077319	 2.1987125759	 0.068849
H	-1.118120315	-1.6312205398	 3.3888403336	 0.285226
H	-2.8665385119	 0.4904753871	 1.6894609581	 0.078895
78.5622	154.1895	179.4679	216.7493	273.9933	299.1023	348.8941	421.3782	544.4741	559.0162	644.3831	739.5111	772.5218	779.3095	833.8019	869.0355	875.8357	912.7175	923.5264	975.866	986.5303	1034.199	1077.0539	1096.4886	1101.0532	1111.5705	1132.5132	1165.6543	1173.459	1204.6713	1247.4848	1270.6495	1301.6486	1305.2867	1342.1645	1402.7799	1411.3086	1434.2513	1472.2782	1496.9946	1507.402	3009.5403	3034.1067	3041.0635	3085.9702	3108.4473	3115.5167	3123.3147	3125.2417	3138.4303	3820.1556
CCC12OC3C1C(O)C23	CC[C@@]12O[C@H]3[C@@H]1[C@@H](O)[C@@H]23	
InChI=1S/C7H10O2/c1-2-7-3-5(8)4(7)6(3)9-7/h3-6,8H,2H2,1H3	InChI=1S/C7H10O2/c1-2-7-3-5(8)4(7)6(3)9-7/h3-6,8H,2H2,1H3/t3-,4+,5+,6-,7+
