21
gdb 74944	3.32099	1.30207	1.11916	0.264	89.42	-0.2258	0.0309	0.2567	1184.7816	0.184807	-349.992593	-349.984658	-349.983713	-350.025044	31.578	
C	 0.1118151047	 1.5052046655	 0.1905492663	-0.489662
C	-0.0136437353	 0.0171976417	 0.0919134934	 0.337554
C	 0.2419364502	-0.7463253012	-0.9718954624	-0.171235
C	 0.009725845	-2.2178056294	-0.7404325964	-0.055593
C	 1.2673079713	-3.1081188564	-0.9736613354	-0.269057
C	 1.77677713	-3.3700364274	 0.4212648044	-0.05832
C	 0.9373773411	-2.9412185197	 1.3609780591	-0.06632
C	-0.2982852173	-2.2810338193	 0.7982991347	-0.05806
C	-0.5033521829	-0.8107143331	 1.2602551274	-0.31778
H	 0.8130680679	 1.791055139	 0.9851905665	 0.123424
H	 0.4619927147	 1.9458613704	-0.7469644311	 0.120628
H	-0.8498785944	 1.9691149954	 0.4460991466	 0.121798
H	 0.5865872936	-0.3661769453	-1.9295485796	 0.078401
H	-0.8273153283	-2.5789543382	-1.3497240791	 0.069874
H	 1.0135203301	-4.0477727701	-1.4830612221	 0.099139
H	 2.0124564327	-2.6096564949	-1.6062517199	 0.099237
H	 2.718561667	-3.8746349538	 0.6106430134	 0.086963
H	 1.0937749718	-3.0417285474	 2.4305914043	 0.085719
H	-1.1886603139	-2.8793379683	 1.0249845167	 0.07055
H	 0.0449620293	-0.5863705755	 2.1848857226	 0.095828
H	-1.5590976472	-0.592049862	 1.4742382904	 0.096911
80.1294	137.2772	196.5794	269.8515	289.6638	383.5998	443.8471	458.8652	582.2864	614.2632	730.9401	766.89	800.1688	815.239	861.9482	886.0839	890.9406	936.0203	957.2981	978.1548	1004.056	1011.5676	1037.474	1052.25	1066.9066	1085.2585	1131.1913	1161.2295	1179.5677	1195.997	1236.4056	1266.7409	1286.5838	1305.4443	1323.794	1328.7155	1355.1301	1380.4458	1413.7272	1480.1742	1484.8335	1485.685	1490.7294	1690.0789	1725.6931	3001.4187	3007.9136	3014.5704	3021.5701	3031.1128	3037.7416	3044.412	3058.8537	3107.9387	3168.5863	3170.1446	3196.9884
CC1=CC2CC=CC2C1	CC1=C[C@H]2CC=C[C@H]2C1	
InChI=1S/C9H12/c1-7-5-8-3-2-4-9(8)6-7/h2-3,6,8-9H,4-5H2,1H3	InChI=1S/C9H12/c1-7-5-8-3-2-4-9(8)6-7/h2-3,6,8-9H,4-5H2,1H3/t8-,9+/m0/s1
