20
gdb 88848	3.74917	1.04639	0.90008	1.487	82.	-0.2298	0.0181	0.2478	1343.6866	0.171331	-403.123795	-403.115048	-403.114104	-403.158123	32.457	
C	 0.1881334034	 1.5091160426	-0.477747583	-0.39432
C	-0.01419401	 0.0863172137	-0.015470986	 0.006285
N	 1.1631619345	-0.8003442609	 0.0055935547	-0.349898
C	 0.4869353421	-0.4670708324	 1.2717131116	-0.032346
C	 1.3001006802	 0.3230332389	 2.2780909493	 0.093684
O	 0.4177739418	 0.9855383486	 3.1929373741	-0.280064
C	 0.7357302201	 0.6341341303	 4.5369753167	-0.114676
C	 1.8471966907	-0.3721661528	 4.4271922879	-0.100855
C	 2.1733013217	-0.5399971933	 3.1516000729	-0.09401
H	 1.1629722699	 1.8941060553	-0.1718606514	 0.128214
H	 0.137871997	 1.5658510123	-1.5704534301	 0.115502
H	-0.587851506	 2.1629864291	-0.0663775842	 0.124351
H	-0.9471818944	-0.3595811439	-0.3599834497	 0.080595
H	 0.9177746001	-1.7395752629	-0.2934679208	 0.230305
H	-0.1279826161	-1.2361826924	 1.7379940586	 0.077502
H	 1.9020822132	 1.0691717041	 1.7386470914	 0.08444
H	 1.0409111401	 1.5309116578	 5.100832917	 0.103174
H	-0.1577942825	 0.2295207215	 5.0374158254	 0.104057
H	 2.2962768531	-0.8553226711	 5.2858168544	 0.104994
H	 2.9399532411	-1.1862913744	 2.7450175213	 0.113067
44.3767	82.9583	130.9295	190.085	217.4265	284.6805	383.9455	406.7199	472.9879	537.0637	712.3027	767.4619	787.2909	817.3826	855.8812	906.1843	927.8556	941.2053	963.0781	980.1594	1005.8713	1015.9794	1047.4631	1062.9044	1097.6265	1108.7812	1124.3198	1156.609	1191.9962	1211.1317	1256.1919	1269.8166	1292.8703	1320.6976	1351.8635	1381.7392	1403.5216	1427.6374	1468.547	1491.9408	1503.4128	1521.8109	1690.5604	2968.0957	2989.3404	2992.6787	3039.0163	3098.1646	3100.5932	3114.5541	3135.1975	3208.7673	3235.5237	3510.5558
CC1NC1C1OCC=C1	C[C@H]1N[C@H]1[C@H]1OCC=C1	
InChI=1S/C7H11NO/c1-5-7(8-5)6-3-2-4-9-6/h2-3,5-8H,4H2,1H3	InChI=1S/C7H11NO/c1-5-7(8-5)6-3-2-4-9-6/h2-3,5-8H,4H2,1H3/t5-,6+,7-/m1/s1
