18
gdb 15866	2.51669	2.04563	1.2579	4.2706	73.13	-0.2368	0.0153	0.2521	996.7713	0.153448	-343.977958	-343.969496	-343.968552	-344.010756	30.68	
C	-0.1578564082	 1.5440597713	-0.0114415718	-0.399654
C	-0.0756083391	 0.0247303304	-0.0351371286	-0.020403
C	 1.1001965289	-0.5591117113	-0.8639231679	-0.17737
N	 1.8778853997	-0.703707808	 0.3808979938	-0.05733
C	 2.7587555302	-1.8380920615	 0.549998097	-0.332198
C	 0.6494201918	-0.6359501772	 1.187322844	-0.124173
C	 0.7536693444	 0.1042078766	 2.4451490973	 0.299261
N	 0.8196234447	 0.6912223113	 3.43874495	-0.333107
H	 0.8210552807	 1.9866698038	 0.1945960856	 0.141751
H	-0.5061122326	 1.9187482231	-0.9794196538	 0.118443
H	-0.8545797172	 1.8925889312	 0.7568985239	 0.134109
H	-1.051194423	-0.4164999703	-0.244869407	 0.088632
H	 0.8449875615	-1.5232609465	-1.3331212733	 0.089063
H	 1.5603316739	 0.0923228828	-1.6144155781	 0.110035
H	 3.584512867	-1.7684887735	-0.1649265476	 0.130175
H	 3.185033643	-1.8276049655	 1.5580866855	 0.137639
H	 2.2501465078	-2.8084456034	 0.3967025621	 0.095037
H	 0.2183581164	-1.6274010234	 1.4081124188	 0.10009
94.2993	128.43	169.7499	227.197	233.3956	277.2207	316.9978	364.6583	385.4647	537.2777	555.5442	701.5274	813.5188	842.6434	905.117	926.1325	998.0607	1030.592	1071.2696	1095.1488	1118.3445	1167.7168	1175.9282	1213.305	1233.1465	1262.3746	1275.2761	1326.7203	1362.0753	1372.5089	1415.7933	1452.1486	1488.1445	1492.9688	1497.3034	1498.09	1519.1337	2354.0832	2932.6404	2952.9474	2970.9075	3038.9272	3062.7184	3066.5969	3093.1853	3108.0002	3109.2651	3121.3669
CC1CN(C)C1C#N	C[C@H]1CN(C)[C@H]1C#N	
InChI=1S/C6H10N2/c1-5-4-8(2)6(5)3-7/h5-6H,4H2,1-2H3	InChI=1S/C6H10N2/c1-5-4-8(2)6(5)3-7/h5-6H,4H2,1-2H3/t5-,6-/m0/s1
