14
gdb 66407	2.46583	1.4649	1.26504	4.5536	67.42	-0.2685	-0.0366	0.232	1020.2594	0.099787	-436.68064	-436.672661	-436.671717	-436.713365	29.419	
O	 0.2367939974	 1.390002354	 0.3089841641	-0.44146
C	 0.0979963388	 0.054207641	 0.0858641652	 0.304699
C	-1.144634633	-0.9172613061	-0.0188776323	-0.14722
C	-0.4313927038	-1.7769486952	-1.0687126374	-0.367671
C	 0.681688841	-0.6968963373	-1.0732065325	 0.336689
O	 1.4821546593	-0.3413694561	-1.8922741868	-0.31589
C	-0.3091767958	-0.8405208541	 1.2350506823	-0.235398
C	 0.485945554	-1.9467336307	 1.7135605912	 0.301876
N	 1.1138730431	-2.8457716206	 2.0802373667	-0.3347
H	 0.5068747992	 1.7973643777	-0.5249736299	 0.311762
H	-2.1936350978	-0.6550498587	-0.0128709887	 0.131798
H	-0.1457786744	-2.78459873	-0.7584299849	 0.154377
H	-0.9322487831	-1.815481304	-2.0386521779	 0.142742
H	-0.7594920047	-0.25036324	 2.029540291	 0.158396
80.552	139.6746	169.714	218.2002	338.7459	352.1147	387.6066	473.3878	475.6524	578.8545	640.3896	687.7088	701.8915	776.6118	852.9695	886.0708	951.9155	970.3065	1010.1886	1031.6643	1074.393	1138.0862	1175.654	1218.3447	1263.6512	1333.1581	1372.1165	1451.1719	1475.3045	1867.3276	2356.1154	3074.4362	3132.1682	3153.8114	3220.4922	3771.0841
OC12C(CC1=O)C2C#N	O[C@@]12[C@@H](CC1=O)[C@H]2C#N	
InChI=1S/C6H5NO2/c7-2-4-3-1-5(8)6(3,4)9/h3-4,9H,1H2	InChI=1S/C6H5NO2/c7-2-4-3-1-5(8)6(3,4)9/h3-4,9H,1H2/t3-,4+,6+/m0/s1
