17
gdb 55589	2.51042	1.0886	0.82204	3.5766	73.72	-0.2514	-0.034	0.2174	1383.8324	0.133746	-455.196533	-455.186561	-455.185617	-455.233501	33.696	
C	 0.1696374297	 1.0168581582	-0.6237825792	-0.492206
C	-0.6585530352	-0.2493802732	-0.4928552321	 0.411788
O	-1.4487182312	-0.6122677242	-1.3416406586	-0.354493
N	-0.4179891501	-0.9400708324	 0.6799841687	-0.329686
C	-1.0264688468	-2.0900514627	 1.2045052592	 0.340469
N	-0.615709608	-2.4459357985	 2.3565590338	-0.497275
C	-2.0792400269	-2.8047148576	 0.3806570443	-0.352823
C	-1.4737791114	-3.6513236033	-0.7371870173	 0.160572
O	-1.6365611842	-4.839894237	-0.8218082184	-0.232137
H	 1.2389614235	 0.7975316245	-0.5392406121	 0.147578
H	-0.0332419117	 1.4671122017	-1.59438584	 0.159483
H	-0.0878371108	 1.7291220428	 0.1671574313	 0.150703
H	 0.2643376323	-0.5567087085	 1.3204687285	 0.261496
H	-1.0938898872	-3.2890925208	 2.6678620698	 0.232495
H	-2.647097545	-3.4685722777	 1.0350411419	 0.122999
H	-2.7427528409	-2.0754810575	-0.0919934388	 0.164853
H	-0.8808281961	-3.0848741537	-1.4809446711	 0.106185
44.0767	51.9624	59.6012	100.0335	122.1007	200.1764	229.9952	351.0694	412.5271	466.0313	533.9551	582.8548	645.8687	653.7255	707.4123	775.283	858.5504	881.2484	982.3986	1007.4721	1047.7494	1052.7006	1054.6058	1133.8788	1202.638	1248.9239	1284.056	1387.2821	1391.8698	1418.1461	1445.1317	1465.1815	1482.1275	1507.1028	1711.2465	1792.8913	1830.0451	2952.8526	3045.2955	3069.6224	3108.4533	3136.6166	3168.7429	3509.5033	3594.5252
CC(=O)NC(=N)CC=O	CC(=O)NC(=N)CC=O	
InChI=1S/C5H8N2O2/c1-4(9)7-5(6)2-3-8/h3H,2H2,1H3,(H2,6,7,9)	InChI=1S/C5H8N2O2/c1-4(9)7-5(6)2-3-8/h3H,2H2,1H3,(H2,6,7,9)
