21
gdb 94974	2.6782	1.73808	1.32935	1.622	82.17	-0.2463	0.0817	0.328	1043.101	0.184566	-387.024922	-387.017371	-387.016426	-387.05669	30.892	
C	-0.1190547756	 1.5481817694	 0.0612398475	-0.413889
C	 0.0313362951	 0.0290930142	 0.0206536694	-0.156635
C	 0.984281412	-0.4682074266	-1.138356872	-0.080714
O	 1.7850033625	-1.5847352752	-0.6757902591	-0.295217
C	 1.2983926071	-1.9334194716	 0.6019154062	 0.138207
C	 2.0423790809	-1.7546980689	 1.9680462019	-0.106594
C	 2.2107233374	-0.2626970271	 1.606660799	-0.257027
C	 0.7467674968	-0.6362472703	 1.1736002422	 0.332611
C	 0.6185116973	-1.3814348812	 2.5375422648	-0.324936
H	 0.8474696216	 2.0304872453	 0.2428483808	 0.121847
H	-0.5147039425	 1.9360316095	-0.8836792324	 0.116024
H	-0.8040871897	 1.8549833761	 0.8577684579	 0.119295
H	-0.9542951598	-0.4345235687	-0.1109676702	 0.079501
H	 0.4100877714	-0.7788654067	-2.0192249182	 0.103222
H	 1.6690235713	 0.3326141264	-1.4429697475	 0.103298
H	 0.6275155604	-2.8011225357	 0.546878317	 0.058989
H	 2.7720472965	-2.414588807	 2.4392295566	 0.073528
H	 2.3007908393	 0.4357154302	 2.4426401989	 0.084288
H	 2.9182832307	-0.0354215812	 0.8093725881	 0.109589
H	-0.1207997338	-2.1856676121	 2.5937346536	 0.095872
H	 0.6183613211	-0.7712280688	 3.4431864956	 0.098742
103.7446	187.1492	226.967	265.4362	340.1352	415.9416	482.9844	519.3212	577.3105	636.8779	701.8549	779.6735	838.0527	866.673	894.6612	914.9669	933.7667	946.1753	965.8256	982.4832	1005.5296	1031.8566	1072.3018	1083.9645	1091.5461	1097.8824	1133.7845	1142.5421	1171.3532	1178.0149	1203.8441	1226.8429	1227.8257	1243.4433	1289.3326	1316.5825	1349.2132	1384.5199	1398.8687	1412.3713	1491.3645	1496.9253	1500.0293	1516.2621	1530.2714	3011.145	3020.756	3025.8264	3031.1563	3054.1038	3062.8415	3063.4569	3097.0574	3103.7815	3104.8628	3123.2269	3140.3093
CC1COC2C3CC12C3	C[C@H]1CO[C@H]2[C@H]3C[C@@]12C3	
InChI=1S/C8H12O/c1-5-4-9-7-6-2-8(5,7)3-6/h5-7H,2-4H2,1H3	InChI=1S/C8H12O/c1-5-4-9-7-6-2-8(5,7)3-6/h5-7H,2-4H2,1H3/t5-,6-,7-,8+/m0/s1
