19
gdb 58834	3.09264	1.24811	1.21965	3.0333	74.12	-0.2326	0.0496	0.2822	1132.0688	0.157286	-422.944552	-422.935945	-422.935	-422.977762	33.368	
C	 0.1495222139	 1.5663268603	 0.0834094717	-0.407197
C	-0.033500599	 0.0514186105	-0.0400047607	-0.001993
O	 0.732414037	-0.6489452716	 0.9366482715	-0.425472
C	-1.4764876074	-0.3590417158	 0.016820475	 0.434947
O	-1.8605607795	-1.6137587045	-0.5642636029	-0.287159
C	-2.5522081115	-0.4227592259	-0.9701381053	-0.079137
C	-3.6199039848	-0.0539125294	 0.1063156103	-0.085727
C	-3.6027511569	-1.0274370377	 1.2539447613	-0.286707
C	-2.5100086038	 0.0029442616	 1.1481464062	-0.153505
H	 1.2132247392	 1.811929396	 0.0334558617	 0.129679
H	-0.3733561861	 2.0959990607	-0.7189923805	 0.120196
H	-0.2383284143	 1.934791675	 1.0401402155	 0.112184
H	 0.3615911439	-0.2904903949	-1.0025781096	 0.10258
H	 0.3833623304	-0.4204221317	 1.8055923409	 0.281748
H	-2.5792405955	-0.1958071507	-2.029599261	 0.106301
H	-4.415603536	 0.6593582885	-0.0606064995	 0.094845
H	-4.338192866	-0.8278088596	 2.0267643289	 0.111871
H	-3.3838355987	-2.0727210022	 1.0785038837	 0.14096
H	-2.3447188449	 0.7694270014	 1.8938980728	 0.091585
65.5418	131.1362	177.7651	238.6698	251.6209	329.3174	344.1065	415.6441	486.0869	515.561	586.5406	640.0294	732.758	763.6149	809.4335	842.2461	887.9069	912.571	924.0502	957.9621	980.968	1003.0671	1019.3097	1049.5976	1053.5842	1078.9178	1099.3385	1107.4383	1170.9094	1180.7773	1259.2246	1267.3852	1294.6024	1305.1151	1332.653	1401.3288	1413.3972	1455.3601	1475.357	1492.5116	1500.5106	3033.429	3061.4293	3103.1956	3124.923	3142.2495	3183.6863	3194.401	3208.783	3236.3566	3798.2112
CC(O)C12OC1C1CC21	C[C@@H](O)[C@]12O[C@H]1[C@H]1C[C@@H]21	
InChI=1S/C7H10O2/c1-3(8)7-5-2-4(5)6(7)9-7/h3-6,8H,2H2,1H3	InChI=1S/C7H10O2/c1-3(8)7-5-2-4(5)6(7)9-7/h3-6,8H,2H2,1H3/t3-,4+,5-,6+,7-/m1/s1
