16
gdb 17039	3.73499	1.734	1.40572	3.5883	65.37	-0.2509	-0.0306	0.2203	891.6109	0.130148	-383.685564	-383.678381	-383.677437	-383.717098	27.177	
O	 0.0219669841	 1.364615459	-0.3751372168	-0.447113
C	-0.0125624622	-0.0048291574	-0.1067277985	 0.192138
C	 0.0841862286	-0.546191847	 1.3578829773	-0.113348
C	-1.3938501887	-0.093737008	 1.5565231603	-0.260694
C	-1.3642026446	-0.7597241536	 0.1441566785	-0.098879
C	-0.5248903445	-1.8898167406	 0.8028238128	-0.060669
C	 0.3167110959	-2.8353752534	-0.0079721936	 0.118397
O	 0.3962533122	-2.8566027851	-1.2115495971	-0.243674
H	-0.5745605354	 1.830827892	 0.2186498099	 0.282984
H	 0.6513146105	-0.4646580135	-0.8357212998	 0.111356
H	 0.9106814594	-0.4515057432	 2.0633682489	 0.08303
H	-1.9634608117	-0.6129105728	 2.331371234	 0.101598
H	-1.5922961242	 0.9802001758	 1.6121438464	 0.083994
H	-2.1942047417	-0.8913389697	-0.5493962379	 0.086919
H	-1.0406566544	-2.460523057	 1.5843200387	 0.087937
H	 0.8817868966	-3.5723286554	 0.6102904569	 0.076024
85.0368	176.0782	228.8447	253.9015	341.9657	381.7504	453.6632	587.8599	701.0015	761.3465	796.6242	831.9956	865.6798	889.6295	914.212	1004.8714	1017.0472	1017.385	1068.9357	1077.1815	1085.7697	1120.2929	1163.7522	1181.7211	1197.1767	1222.8917	1236.753	1267.7748	1288.6918	1385.5729	1426.984	1474.7632	1538.8155	1819.2435	2853.6412	3041.8677	3055.2083	3107.857	3109.6195	3123.0631	3151.0871	3820.7874
OC1C2CC1C2C=O	O[C@H]1[C@H]2C[C@@H]1[C@H]2C=O	
InChI=1S/C6H8O2/c7-2-5-3-1-4(5)6(3)8/h2-6,8H,1H2	InChI=1S/C6H8O2/c7-2-5-3-1-4(5)6(3)8/h2-6,8H,1H2/t3-,4+,5-,6-
