20
gdb 6579	3.6153	1.66965	1.44648	1.4305	75.21	-0.2438	0.0759	0.3197	968.1182	0.175565	-348.98706	-348.978607	-348.977663	-349.019042	33.304	
C	-0.0216085147	 1.5431795661	 0.0572542207	-0.496998
C	 0.0416747338	 0.0442813679	-0.0021845526	 0.375048
C	-0.8606092117	-0.8588567841	 0.7903484168	-0.33464
C	 0.6264089889	-0.9576535708	 1.0039089835	-0.11202
C	 1.2753631448	-1.7532447741	-0.126983292	 0.418477
C	 2.7993320011	-1.7116588554	-0.1012466746	-0.451404
O	 0.8071678113	-3.0932470809	-0.1671458856	-0.476317
C	 0.6382613607	-0.7585413963	-1.1681758823	-0.359862
H	 0.9427841997	 1.996961609	-0.2003503348	 0.112197
H	-0.7682269239	 1.9375341369	-0.6431894405	 0.118725
H	-0.2969179162	 1.8888107081	 1.0593268525	 0.116249
H	-1.4039223113	-0.3777485451	 1.5982188363	 0.103233
H	-1.3922096991	-1.6784759747	 0.3154323755	 0.116847
H	 1.0836117979	-0.778609381	 1.9711819324	 0.074043
H	 3.1780278378	-2.2950403707	 0.7441593194	 0.122448
H	 3.2160620677	-2.1335082611	-1.0246488684	 0.102407
H	 3.1674582467	-0.6854866603	-0.0085071404	 0.118282
H	 1.2207375467	-3.5298207485	-0.9198037108	 0.272519
H	-0.0835220603	-1.2040857365	-1.8605502221	 0.088584
H	 1.39204094	-0.2087772985	-1.7395961428	 0.092184
118.1234	210.3514	223.72	255.8934	281.229	310.1832	330.7192	361.2221	421.0602	444.3385	523.531	575.0184	680.8332	796.1434	816.6494	882.8828	908.1241	946.1642	951.8744	976.7678	980.4152	1018.7808	1047.1225	1071.5677	1092.0349	1110.5071	1161.6213	1168.662	1229.4025	1244.7933	1255.4828	1295.1865	1373.4873	1400.4366	1402.6451	1425.3026	1476.932	1485.583	1487.5829	1494.8845	1498.3469	1507.1404	3016.6405	3020.263	3038.9923	3073.0877	3088.5415	3091.56	3093.8407	3111.8824	3117.0866	3166.0536	3202.245	3801.0263
CC12CC1C(C)(O)C2	C[C@]12C[C@H]1[C@@](C)(O)C2	
InChI=1S/C7H12O/c1-6-3-5(6)7(2,8)4-6/h5,8H,3-4H2,1-2H3	InChI=1S/C7H12O/c1-6-3-5(6)7(2,8)4-6/h5,8H,3-4H2,1-2H3/t5-,6-,7+/m1/s1
