18
gdb 7255	4.42166	1.04409	0.99148	1.6471	73.22	-0.255	-0.017	0.2379	1254.3477	0.153165	-381.171065	-381.1618	-381.160856	-381.205838	32.536	
C	-0.029237226	 1.3617190764	-0.3343878655	-0.381903
C	 0.0334743016	-0.0975066079	 0.1560874603	-0.09421
C	 0.9961216279	-0.2515964335	 1.3404739324	-0.381267
C	-1.3720109	-0.5310899446	 0.5697089158	 0.436175
O	-1.8943331357	-0.1730000703	 1.6057832489	-0.36566
N	-2.0284263725	-1.3402442867	-0.3428495898	-0.314258
C	-3.3254788591	-1.7996423483	-0.1752605915	 0.098608
N	-3.8594997279	-2.5380241534	-1.060317355	-0.463467
H	 0.9669308295	 1.7072250844	-0.6259941434	 0.119695
H	-0.6929211939	 1.4694100086	-1.1980856077	 0.119163
H	-0.4013941199	 2.0100808504	 0.4640453388	 0.141976
H	 0.3756113069	-0.7310080796	-0.6721538256	 0.073988
H	 0.6252739473	 0.3145301223	 2.1984094259	 0.144961
H	 1.0932834331	-1.2983796331	 1.6440952116	 0.11905
H	 1.990017337	 0.1204107633	 1.0749083802	 0.112668
H	-1.5632603287	-1.6281917439	-1.191827671	 0.260918
H	-3.7658894695	-1.4500665907	 0.7602805813	 0.1406
H	-4.8081883597	-2.7866894633	-0.7860682755	 0.232964
25.435	116.5908	162.4932	173.8222	215.3176	248.3916	266.8842	298.9008	321.5266	443.6521	511.6018	641.1123	675.4426	767.0243	834.0512	869.6992	933.8956	958.911	974.1584	1069.2352	1090.7674	1112.494	1120.9825	1169.3849	1202.3001	1298.5917	1329.9633	1376.3141	1391.6646	1394.2031	1413.7091	1485.0209	1487.7975	1491.5678	1499.7143	1515.0023	1726.8546	1794.4095	3022.1241	3038.1945	3043.5587	3108.349	3111.1723	3120.8255	3126.5512	3131.2589	3505.9226	3614.6814
CC(C)C(=O)NC=N	CC(C)C(=O)NC=N	
InChI=1S/C5H10N2O/c1-4(2)5(8)7-3-6/h3-4H,1-2H3,(H2,6,7,8)	InChI=1S/C5H10N2O/c1-4(2)5(8)7-3-6/h3-4H,1-2H3,(H2,6,7,8)
