17
gdb 72525	2.28215	1.84004	1.66859	1.7625	66.71	-0.2401	-0.0341	0.206	918.5558	0.136995	-458.975854	-458.968304	-458.96736	-459.007611	29.517	
O	 0.0077088714	 1.3816927369	-0.0527516362	-0.498374
C	-0.0117629198	-0.0079423306	-0.0594270095	 0.280345
C	-1.3970030667	-0.6955948128	 0.0684031173	-0.268234
C	-1.0365462175	-2.1593148127	 0.5174280513	-0.237579
C	 0.5017185223	-2.1209007257	 0.6148970009	-0.008641
O	 1.0435589321	-2.0234048678	-0.7116089454	-0.287822
C	 0.7537712291	-0.6885012213	-1.2102051167	-0.108688
C	 0.7092330028	-0.6899391567	 1.1064010719	 0.372703
O	 1.227564058	-0.1691302995	 2.0544754193	-0.337342
H	 0.46274242	 1.6467335472	 0.7605825086	 0.2913
H	-1.9925758288	-0.1740742339	 0.8219564735	 0.117003
H	-1.9459439256	-0.664439917	-0.8758698625	 0.11623
H	-1.4911066467	-2.4089625831	 1.4808001574	 0.116615
H	-1.3404109345	-2.9138237764	-0.2109633953	 0.123248
H	 0.9916445526	-2.9330709767	 1.1471198043	 0.103114
H	 0.1691501038	-0.764900812	-2.133831478	 0.109612
H	 1.6900276474	-0.1587450478	-1.4203101608	 0.116511
138.6107	142.9267	239.0832	299.3019	317.4872	383.7682	388.4553	500.681	542.3839	610.1501	677.9768	762.3159	776.3297	834.4678	864.5524	903.8209	928.5662	968.851	994.8197	1020.246	1076.7545	1116.7896	1144.4072	1168.2869	1193.4789	1202.9125	1235.466	1260.9174	1282.6556	1319.2198	1327.4889	1389.8008	1405.8024	1474.871	1498.4741	1529.8489	1888.6067	3025.5797	3058.0993	3067.4284	3072.3943	3104.9389	3123.3893	3153.3641	3718.2196
OC12CCC(OC1)C2=O	O[C@@]12CC[C@@H](OC1)C2=O	
InChI=1S/C6H8O3/c7-5-4-1-2-6(5,8)3-9-4/h4,8H,1-3H2	InChI=1S/C6H8O3/c7-5-4-1-2-6(5,8)3-9-4/h4,8H,1-3H2/t4-,6+/m1/s1
