15
gdb 56079	6.91728	0.54254	0.50623	1.4548	85.65	-0.2532	-0.031	0.2222	2049.0107	0.108715	-420.605177	-420.595232	-420.594288	-420.64214	33.614	
C	-0.008522525	 1.458405731	-0.1025245332	-0.477268
C	-0.0686775764	-0.0401568902	 0.0551195587	 0.44239
O	-0.1485048211	-0.6428501626	 1.0947415505	-0.341348
O	-0.0202868234	-0.6486039654	-1.1538638884	-0.236246
C	-0.0720418383	-2.088915835	-1.100171006	-0.267356
C	-0.0115541978	-2.6102938922	-2.4517173736	 0.342138
C	 0.0365696174	-3.0858602983	-3.5622953567	-0.180636
C	 0.0911328315	-3.6144010109	-4.8145758369	 0.29574
C	 0.1395006946	-4.0851311519	-5.925213878	-0.552944
H	 0.914032403	 1.743844393	-0.6156473525	 0.155404
H	-0.8431944699	 1.8038317771	-0.7188106907	 0.15537
H	-0.0500067099	 1.9268026581	 0.8798346538	 0.151596
H	 0.7624117216	-2.4597884151	-0.4941312883	 0.158374
H	-0.9937540786	-2.4004472654	-0.5956491261	 0.15835
H	 0.1821503425	-4.4973573822	-6.9028933626	 0.196436
24.8234	55.388	63.6486	138.4838	177.8174	191.192	259.8498	347.2863	364.1053	487.0372	545.2844	562.1598	595.6222	607.5045	615.1869	626.6714	754.98	937.8366	980.5731	1006.5135	1048.6668	1066.0753	1190.0561	1244.3379	1257.4038	1385.0803	1406.4335	1468.965	1475.0361	1481.9171	1825.8672	2186.5945	2370.9939	3039.3087	3059.2213	3072.6916	3124.6552	3171.5285	3503.5965
CC(=O)OCC#CC#C	CC(=O)OCC#CC#C	
InChI=1S/C7H6O2/c1-3-4-5-6-9-7(2)8/h1H,6H2,2H3	InChI=1S/C7H6O2/c1-3-4-5-6-9-7(2)8/h1H,6H2,2H3
