18
gdb 65616	3.23941	1.32347	1.19258	3.5223	76.63	-0.2365	0.0222	0.2587	1090.9738	0.148693	-398.089813	-398.081595	-398.080651	-398.122359	31.68	
C	 0.0897618923	 1.4767002748	-0.0422170537	-0.434898
C	 0.0372075737	-0.044469235	-0.0007459805	 0.171858
N	 1.0271325924	-0.7286297246	-0.8955363135	-0.35448
C	 1.473408507	-1.643291755	 0.1847630384	-0.004623
C	 2.7705307512	-1.1625017368	 0.8743415209	-0.159377
N	 1.9681705147	-0.1682618914	 1.6464129962	-0.315003
C	 0.702495216	-0.7874583617	 1.2221269243	-0.057888
C	-1.3272068938	-0.5458990436	-0.2058302666	 0.242518
N	-2.3900873153	-0.9702452314	-0.3768917257	-0.343341
H	 1.0967141727	 1.7904293217	 0.2371818054	 0.148688
H	-0.1391034631	 1.8385450124	-1.0484600205	 0.129604
H	-0.6330215997	 1.9121062922	 0.6546791182	 0.124951
H	 0.6151163691	-1.1838672554	-1.7017606203	 0.233958
H	 1.3263331676	-2.7103533307	 0.0173376949	 0.088809
H	 3.2301262729	-1.9419002063	 1.4953972843	 0.097603
H	 3.5270059004	-0.7173828721	 0.2213312187	 0.114068
H	 2.1257410251	-0.163459917	 2.6456743321	 0.227219
H	 0.0346416369	-1.1633417699	 1.9974330174	 0.090335
109.1395	145.7501	188.7861	212.1904	258.7289	340.1919	400.3684	448.567	492.8224	568.8324	615.6941	659.9268	687.6865	791.6161	814.8176	854.3359	914.7017	940.3742	978.285	997.5382	1013.5068	1046.967	1080.2641	1133.1001	1146.8299	1161.2775	1184.6584	1195.7725	1212.3109	1272.7296	1317.3768	1348.8729	1381.8198	1391.2081	1404.9282	1480.9888	1488.2921	1500.7	2337.1943	3018.5643	3046.6642	3086.5597	3102.3348	3112.9722	3118.2647	3148.7224	3549.8266	3565.5556
CC1(NC2CNC12)C#N	C[C@]1(N[C@H]2CN[C@@H]12)C#N	
InChI=1S/C6H9N3/c1-6(3-7)5-4(9-6)2-8-5/h4-5,8-9H,2H2,1H3	InChI=1S/C6H9N3/c1-6(3-7)5-4(9-6)2-8-5/h4-5,8-9H,2H2,1H3/t4-,5+,6-/m0/s1
