18
gdb 8478	2.91658	1.96375	1.52964	1.7033	68.35	-0.2403	0.0709	0.3112	911.4571	0.151112	-384.914809	-384.906221	-384.905277	-384.947235	32.169	
C	-0.133402435	 1.5344076223	 0.0690153197	-0.501996
C	 0.1754207822	 0.0750315084	-0.0022915424	 0.347925
C	 0.6914883676	-0.7411362137	-1.1987237964	-0.32349
C	 1.304778092	-1.7622229633	-0.1726763341	 0.062945
O	 2.7156304589	-1.7842084601	-0.1348306751	-0.438158
C	 0.7601222159	-0.8784892369	 0.9654825385	 0.355934
C	 1.3038768913	-0.7525331634	 2.3487626674	-0.513024
O	-0.659134463	-0.8327019421	 0.7493687955	-0.332715
H	 0.7019912533	 2.1269800696	-0.3177908005	 0.124583
H	-1.0209389789	 1.7732688768	-0.5282977944	 0.129842
H	-0.3307177342	 1.8363127005	 1.1011710002	 0.131865
H	-0.076632567	-1.1073685139	-1.885102648	 0.098834
H	 1.4899363817	-0.2382025311	-1.7511969537	 0.101111
H	 0.8779420655	-2.7737792084	-0.1982570895	 0.071088
H	 3.0319035205	-2.2475508666	-0.9165363503	 0.287563
H	 2.3914629753	-0.64571008	 2.3121529626	 0.142293
H	 0.8745282935	 0.1135644116	 2.8598217377	 0.126435
H	 1.0703131402	-1.6456966998	 2.9394358629	 0.128963
124.5592	181.9501	186.6237	191.4877	221.157	254.5434	321.5861	410.6002	438.0804	475.854	507.4799	606.4152	690.6522	738.2045	823.0584	865.1081	904.1114	954.6087	986.5793	1044.2911	1078.1252	1121.7735	1141.7812	1174.6277	1202.4664	1210.6637	1243.1221	1257.1071	1319.3365	1399.8126	1408.1127	1414.6043	1450.7946	1475.5176	1477.2931	1487.8059	1492.7748	1529.2166	3012.6386	3032.2617	3036.8875	3056.0356	3094.2062	3101.5935	3118.0455	3119.1694	3126.1919	3821.5483
CC12CC(O)C1(C)O2	C[C@@]12C[C@@H](O)[C@]1(C)O2	
InChI=1S/C6H10O2/c1-5-3-4(7)6(5,2)8-5/h4,7H,3H2,1-2H3	InChI=1S/C6H10O2/c1-5-3-4(7)6(5,2)8-5/h4,7H,3H2,1-2H3/t4-,5-,6+/m1/s1
