18
gdb 128792	3.46254	1.08253	0.86026	2.2306	75.93	-0.1964	0.034	0.2304	1336.2615	0.149141	-435.273937	-435.264919	-435.263975	-435.307957	32.941	
C	 0.0361256015	 1.4137263009	-0.8874789693	-0.222536
O	-0.0602386581	 0.0163861786	-1.0388301552	-0.23906
C	 0.9169180525	-0.6846310741	-0.2729325252	-0.216124
C	 0.8024311786	-2.1410650868	-0.5555089829	 0.17732
C	 0.6945135801	-3.2008281036	 0.3200928425	-0.13266
N	 0.664297607	-4.3248937888	-0.427176721	-0.197212
N	 0.7236738825	-4.0772608192	-1.7637360122	-0.312242
C	 0.8159123082	-2.7544855881	-1.8399658389	 0.312572
N	 0.9529911592	-2.0849769592	-3.0515065573	-0.598089
H	-0.1317091102	 1.7215050719	 0.1566268522	 0.105391
H	 1.0213836348	 1.7933082882	-1.2015431882	 0.106387
H	-0.7351360799	 1.8657288639	-1.5158206145	 0.126895
H	 1.9176870987	-0.3050657215	-0.5442217455	 0.099048
H	 0.7759262732	-0.4824914074	 0.8011149721	 0.091926
H	 0.6464194617	-3.2295040654	 1.3979749987	 0.128788
H	 0.5937234526	-5.2760196996	-0.1135744242	 0.270746
H	 0.6837443864	-2.6596366482	-3.8391945999	 0.245689
H	 0.4567887513	-1.2027538417	-3.0431680313	 0.253162
72.4743	101.4822	126.0085	225.9837	249.3038	295.4221	331.2327	355.4801	377.3324	428.368	455.9903	643.7999	677.6749	732.4627	772.1422	789.7355	812.5707	941.4458	970.0751	1014.236	1066.0853	1109.705	1134.7863	1182.7262	1210.8518	1225.0294	1241.1605	1273.2258	1327.9274	1410.8746	1449.8561	1478.2684	1484.9429	1490.0047	1501.5181	1519.452	1545.4873	1630.2026	1650.901	2944.5861	2971.3234	2985.7697	3015.6093	3114.4699	3251.9474	3538.1457	3639.8339	3697.255
COCC1=CNN=C1N	COCc1c[nH]nc1N	
InChI=1S/C5H9N3O/c1-9-3-4-2-7-8-5(4)6/h2H,3H2,1H3,(H3,6,7,8)	InChI=1S/C5H9N3O/c1-9-3-4-2-7-8-5(4)6/h2H,3H2,1H3,(H3,6,7,8)
