22
gdb 10767	3.36094	1.41388	1.3165	1.0249	78.18	-0.2447	0.0819	0.3266	1088.9773	0.197657	-350.184708	-350.174949	-350.174005	-350.219088	36.273	
C	 0.0737725339	 1.4484917694	 0.2108491128	-0.241206
O	-0.0025147224	 0.0494828112	 0.0685398752	-0.277553
C	-1.3022878542	-0.5454836911	-0.0988170401	 0.347651
C	-2.1958819953	-0.2708295801	 1.1237447677	-0.416618
C	-1.9712674512	-0.029452914	-1.3809016418	-0.441285
C	-0.9791521248	-2.0368995495	-0.1397179937	 0.035091
C	-1.9381078968	-3.0850630211	-0.6407885816	-0.281964
C	-0.6626977409	-2.7998391505	-1.3973815101	-0.281017
H	 1.1347960224	 1.6877403736	 0.324336043	 0.124423
H	-0.3053450564	 1.9902302036	-0.6675297376	 0.101473
H	-0.4564811802	 1.819253718	 1.0996268637	 0.102563
H	-2.4597080736	 0.7872167616	 1.211063722	 0.108673
H	-3.1267312576	-0.8392637348	 1.0419623727	 0.118311
H	-1.686485912	-0.5772707216	 2.0423293493	 0.117235
H	-1.2837176882	-0.0939439614	-2.2280409331	 0.1257
H	-2.8720021915	-0.603439056	-1.615617945	 0.118242
H	-2.2786941111	 1.014144538	-1.2710762219	 0.114674
H	-0.3925256408	-2.3217166112	 0.7292982601	 0.087009
H	-2.0187973702	-4.0110868884	-0.0819643784	 0.108709
H	-2.8709970543	-2.7654242739	-1.0930865672	 0.109124
H	-0.7498684727	-2.2915973837	-2.3506292423	 0.110968
H	 0.1381647577	-3.5299453483	-1.3603398239	 0.109798
57.9863	64.4466	175.1479	198.5033	233.6028	253.6958	281.2828	315.7065	354.415	370.3346	428.157	476.7933	524.1852	690.7387	782.8113	817.5218	831.2131	911.3777	918.1522	944.4303	964.7098	1008.6167	1059.1587	1078.7927	1085.0867	1111.6722	1145.8967	1178.0841	1183.8605	1192.8104	1199.0688	1218.4999	1231.754	1299.4629	1388.2451	1394.3534	1415.3727	1466.2674	1474.0112	1478.448	1484.8106	1499.8925	1502.5372	1507.5447	1512.8638	1517.3092	2988.6724	3033.5448	3042.0302	3049.0159	3101.5347	3108.9898	3114.687	3116.8624	3124.2572	3132.349	3140.0819	3145.5104	3208.2582	3226.0091
COC(C)(C)C1CC1	COC(C)(C)C1CC1	
InChI=1S/C7H14O/c1-7(2,8-3)6-4-5-6/h6H,4-5H2,1-3H3	InChI=1S/C7H14O/c1-7(2,8-3)6-4-5-6/h6H,4-5H2,1-3H3
