19
gdb 84792	2.68677	1.39348	1.12703	2.2044	76.35	-0.2435	-0.011	0.2326	1143.4491	0.158262	-423.057994	-423.048792	-423.047848	-423.093057	33.596	
C	-0.7254593652	 1.0700833845	 0.230091363	-0.481317
C	 0.3540703689	 0.0347417054	-0.0034200409	 0.398898
O	 1.1752725309	-0.2393599777	 0.8433071077	-0.31346
C	 0.3232564594	-0.687910661	-1.3505867712	-0.15234
C	 1.6558792935	-1.375826067	-1.7289849343	-0.283614
C	 1.2439028096	-2.7618122215	-2.1514372569	-0.059145
C	-0.0518967119	-2.9992994568	-1.9594509483	-0.101985
C	-0.7639440512	-1.8346940349	-1.3189373135	 0.080411
O	-1.2489195879	-2.1472039425	-0.0139038746	-0.427806
H	-0.7032967757	 1.837368083	-0.5515316284	 0.130858
H	-1.7039910996	 0.5799925885	 0.1841384175	 0.158813
H	-0.5948039779	 1.5320498528	 1.209397569	 0.138616
H	 0.029683576	 0.0259451395	-2.1260473972	 0.083954
H	 2.1752706004	-0.8379476406	-2.5301804733	 0.108225
H	 2.3371518258	-1.4018221557	-0.8707402643	 0.137562
H	 1.9546246869	-3.4757105275	-2.5547139495	 0.101367
H	-0.5690860001	-3.9309014009	-2.1593273537	 0.100975
H	-1.6625009636	-1.5306505727	-1.8646925456	 0.094004
H	-0.5110438485	-2.5118722549	 0.4898524546	 0.285985
33.0292	64.7767	108.7048	164.4026	232.8904	292.7598	349.2814	395.6881	407.42	497.5317	568.6688	595.2745	720.8294	747.9087	765.4104	802.3956	889.9943	933.4005	958.7711	978.4189	995.3532	1006.8119	1015.7947	1066.1555	1098.9647	1132.2811	1175.0608	1186.3046	1226.9284	1270.8342	1308.6415	1322.9527	1346.2318	1370.0229	1381.9401	1435.6101	1462.6412	1478.5814	1482.8221	1688.9692	1804.2311	3036.9012	3038.4698	3051.6006	3065.3301	3076.4104	3104.903	3151.6485	3181.9433	3208.8096	3788.1957
CC(=O)C1CC=CC1O	CC(=O)[C@H]1CC=C[C@H]1O	
InChI=1S/C7H10O2/c1-5(8)6-3-2-4-7(6)9/h2,4,6-7,9H,3H2,1H3	InChI=1S/C7H10O2/c1-5(8)6-3-2-4-7(6)9/h2,4,6-7,9H,3H2,1H3/t6-,7-/m1/s1
