20
gdb 112089	2.88416	1.44119	1.17919	1.3795	79.51	-0.2262	0.0177	0.2439	1111.008	0.172478	-403.122402	-403.114151	-403.113206	-403.155258	32.215	
O	-0.0354295578	 1.5575803042	 0.0874448696	-0.419098
C	 0.0289618877	 0.1458101148	-0.0330324352	-0.079111
C	-1.3398823627	-0.5447155451	 0.0292943936	-0.020072
C	-2.0755933565	-0.2664066923	 1.3185250927	-0.030705
C	-3.4042696244	-0.287754208	 1.3949712775	-0.102251
C	-4.2643918439	-0.5764040111	 0.194951638	-0.275374
C	-3.5631263579	-0.2528927442	-1.1173165453	-0.012498
C	-2.8324348511	 1.0336223068	-1.2640881631	-0.272685
N	-2.1012429398	-0.2422360883	-1.1982552838	-0.115766
H	-0.4159000486	 1.8983196025	-0.7272387893	 0.293644
H	 0.5321568438	-0.1552997542	-0.9623394459	 0.097643
H	 0.6394856319	-0.2015195819	 0.8079053488	 0.105334
H	-1.1283900705	-1.6252028408	-0.0237493787	 0.091638
H	-1.4742729722	-0.0529619561	 2.1982936282	 0.093332
H	-3.9049215498	-0.099088513	 2.3406482671	 0.091122
H	-4.5519048928	-1.6382789371	 0.1921325519	 0.116987
H	-5.2077859477	-0.0182338932	 0.253291576	 0.111535
H	-4.0424876259	-0.6732598289	-1.9997530742	 0.087695
H	-2.793076747	 1.5371497609	-2.2269615531	 0.109085
H	-2.8111645846	 1.6860314451	-0.3955441847	 0.129544
79.7885	102.0628	205.3541	275.9626	300.0876	345.0374	374.4415	401.2289	517.7124	552.227	645.6516	684.9958	748.4218	798.6325	836.791	884.8568	916.5239	924.7523	963.7205	983.6522	992.8344	1042.591	1066.9692	1091.4474	1110.8145	1113.2784	1121.0531	1168.8543	1201.8265	1230.0185	1239.7207	1298.0388	1318.3951	1337.914	1351.5015	1383.6768	1406.0229	1416.4226	1428.5251	1477.5837	1492.3701	1500.907	1720.0633	2968.6727	2998.5511	3010.6313	3035.2766	3072.6859	3102.2185	3114.3634	3151.1964	3174.0223	3191.9289	3836.9221
OCC1C=CCC2CN12	OC[C@H]1C=CC[C@H]2CN12	
InChI=1S/C7H11NO/c9-5-7-3-1-2-6-4-8(6)7/h1,3,6-7,9H,2,4-5H2	InChI=1S/C7H11NO/c9-5-7-3-1-2-6-4-8(6)7/h1,3,6-7,9H,2,4-5H2/t6-,7+,8?/m0/s1
