18
gdb 127087	2.64762	1.3304	1.07575	2.2672	74.46	-0.2114	0.0394	0.2508	1178.3033	0.148526	-435.265299	-435.256378	-435.255434	-435.299113	32.931	
C	 0.0789067395	 1.4202803542	-0.088965933	-0.324959
N	-0.0197975649	-0.0308645844	 0.063532739	-0.19257
C	 0.834453125	-0.5276793337	 1.1416391937	-0.324973
C	-1.352967041	-0.5199818643	 0.1078780532	 0.065387
C	-1.8599816845	-1.3426884577	-0.8806188731	 0.405041
O	-1.2682015406	-1.8151461358	-1.9892674944	-0.430151
N	-3.1334371282	-1.6307656073	-0.555316094	-0.265666
N	-3.515149391	-1.0379113145	 0.6142539649	-0.243514
C	-2.439163454	-0.3697657543	 1.0104879868	-0.064377
H	 1.118312805	 1.6968005283	-0.2973741926	 0.115034
H	-0.5422210917	 1.7436158462	-0.9274898648	 0.125804
H	-0.2439543688	 1.9716226607	 0.8110835872	 0.103547
H	 0.5655300015	-0.1158163433	 2.1297461059	 0.103554
H	 0.7610920331	-1.6163639281	 1.1950519405	 0.125793
H	 1.8763637424	-0.2575511819	 0.937389891	 0.115027
H	-0.369698649	-1.4488155492	-1.9623327864	 0.301815
H	-3.78438256	-2.204618678	-1.0625861725	 0.277198
H	-2.4790367928	 0.1970512431	 1.9298717686	 0.108011
53.2964	146.6477	149.714	231.9302	236.7135	286.786	295.7642	373.8116	454.3655	482.4572	518.3056	536.2091	611.2274	684.7482	740.5672	745.8583	888.5279	925.2051	972.6418	1055.2102	1085.6985	1119.3681	1164.5994	1186.2369	1207.4596	1227.367	1229.8772	1296.3635	1362.4154	1413.1106	1440.4686	1456.4569	1470.428	1479.6984	1496.666	1499.2359	1517.4053	1598.7017	1651.9763	2956.4838	2961.4319	3058.9181	3061.2944	3116.9934	3119.612	3235.9578	3683.3734	3707.7429
CN(C)C1=C(O)NN=C1	CN(C)c1c(O)[nH]nc1	
InChI=1S/C5H9N3O/c1-8(2)4-3-6-7-5(4)9/h3H,1-2H3,(H2,6,7,9)	InChI=1S/C5H9N3O/c1-8(2)4-3-6-7-5(4)9/h3H,1-2H3,(H2,6,7,9)
