19
gdb 57778	3.52735	0.70786	0.65266	2.6495	82.5	-0.2534	0.0162	0.2697	1775.0186	0.1556	-422.975884	-422.965434	-422.96449	-423.013091	37.016	
C	-0.0157715282	 1.5858394481	 0.1517577947	-0.383961
C	-0.0243437684	 0.0625655308	-0.0432167754	-0.020155
O	 0.7770487931	-0.5967907618	 0.9336534044	-0.411591
C	-1.3929088202	-0.4667991909	-0.0677698984	 0.142492
C	-2.5166722393	-0.9026186673	-0.0454302369	-0.019997
C	-3.8766211203	-1.3910667015	-0.0101162079	 0.218149
C	-4.8871108837	-0.4947489403	 0.6752020215	-0.465846
C	-4.3152564372	-2.3530083876	-1.0444059133	-0.208272
O	-4.0188795802	-2.7981426694	 0.2738222942	-0.255478
H	 1.017480484	 1.9417923618	 0.1710378446	 0.12722
H	-0.5525765677	 2.0869760564	-0.6591311334	 0.124223
H	-0.4985444332	 1.853578532	 1.0971368523	 0.117201
H	 0.4632070715	-0.1714630529	-0.9975576858	 0.11919
H	 0.2930372708	-0.5757277401	 1.7667745542	 0.284315
H	-4.9352555438	 0.4795533256	 0.1796180208	 0.131002
H	-5.876838256	-0.9571394773	 0.651398546	 0.129186
H	-4.603370652	-0.3313334681	 1.7189837092	 0.135029
H	-5.3678215238	-2.3766838441	-1.3262248355	 0.115028
H	-3.6135216854	-2.6647729133	-1.8155989354	 0.122263
13.6529	76.3062	91.6745	183.3183	193.7008	224.204	250.4926	284.904	307.4076	364.0603	399.7599	491.5315	516.5575	542.0577	591.3209	646.3716	783.2082	837.9496	895.1023	924.9686	982.7138	1030.1666	1046.658	1090.442	1098.1271	1133.5928	1138.7656	1168.0308	1278.6352	1285.4383	1338.8095	1367.2712	1398.754	1410.7506	1417.019	1479.154	1487.8524	1491.3538	1493.889	1521.3643	2355.1263	3036.3571	3040.3115	3044.4171	3080.9852	3114.4554	3115.3548	3127.7196	3129.7768	3174.4487	3804.3026
CC(O)C#CC1(C)CO1	C[C@@H](O)C#C[C@@]1(C)CO1	
InChI=1S/C7H10O2/c1-6(8)3-4-7(2)5-9-7/h6,8H,5H2,1-2H3	InChI=1S/C7H10O2/c1-6(8)3-4-7(2)5-9-7/h6,8H,5H2,1-2H3/t6-,7+/m1/s1
