19
gdb 11983	2.60828	2.19603	1.81871	1.818	70.85	-0.2319	0.0657	0.2975	860.0229	0.164085	-365.019369	-365.010976	-365.010031	-365.051401	32.251	
C	-0.1438442145	 1.5952108025	 0.0074435783	-0.433853
C	 0.0171085067	 0.0819744211	-0.0156699098	 0.313037
C	-1.3307978683	-0.6117956614	-0.1807589165	-0.426542
C	 1.1056529916	-0.5231403051	-0.9574269361	 0.05433
O	 1.8310579611	 0.4371008484	-1.696745803	-0.430163
C	 1.7557506279	-1.1086854603	 0.2947853186	-0.068315
C	 2.0757584874	-0.0403124438	 1.2595520261	-0.248805
N	 0.6880914641	-0.5278151545	 1.2104377875	-0.153483
H	 0.8103763345	 2.123072028	 0.0111051996	 0.128008
H	-0.6947564609	 1.9295500799	-0.8771173983	 0.120524
H	-0.7126577638	 1.8895758068	 0.8960575198	 0.118684
H	-1.7868539582	-0.3458394616	-1.1403100423	 0.111633
H	-1.2170237139	-1.6991888397	-0.1376946126	 0.116145
H	-2.0121102246	-0.3160669988	 0.6229708285	 0.121318
H	 0.6898211528	-1.2954886444	-1.6176397221	 0.065781
H	 2.5588976631	-0.0086404863	-2.1425960732	 0.282843
H	 2.1026036949	-2.1311964469	 0.4089395223	 0.08696
H	 2.5842910511	-0.333043555	 2.1731471164	 0.118037
H	 2.3266421089	 0.9513632009	 0.8973747568	 0.123861
136.8735	163.4398	218.7611	223.5516	243.1223	299.9904	313.6899	363.1907	439.2164	517.2021	573.3211	638.8922	755.668	775.9228	808.7788	886.6056	948.6608	962.1466	975.9881	1006.6287	1016.3765	1058.7873	1100.9003	1105.6018	1142.3064	1162.7767	1188.2712	1223.3993	1259.1129	1290.55	1320.2289	1365.8382	1399.1653	1409.0053	1424.3616	1474.4657	1477.9675	1493.2259	1501.1208	1510.2216	3012.5508	3032.7007	3042.5698	3103.1747	3108.8785	3110.7293	3124.0856	3139.0246	3154.9686	3210.6836	3810.313
CC1(C)C(O)C2CN12	CC1(C)[C@@H](O)[C@H]2CN12	
InChI=1S/C6H11NO/c1-6(2)5(8)4-3-7(4)6/h4-5,8H,3H2,1-2H3	InChI=1S/C6H11NO/c1-6(2)5(8)4-3-7(4)6/h4-5,8H,3H2,1-2H3/t4-,5+,7?/m1/s1
