16
gdb 22988	2.50623	1.25362	0.94651	3.3876	69.89	-0.2409	-0.0296	0.2113	1232.7511	0.120807	-474.966215	-474.956935	-474.955991	-475.001146	32.419	
C	-0.1072140415	 1.4575220554	 0.0977807916	-0.495147
C	-0.0678268162	-0.0555899425	 0.0463804022	 0.354039
O	-0.0944956558	-0.7672533462	 1.0164390571	-0.27383
C	-0.0188510643	-0.6409814399	-1.3745606235	-0.050707
O	 0.0813186654	-2.073268522	-1.4182005147	-0.272127
C	-1.2257023538	-2.224941428	-2.0259957293	-0.159046
C	-1.3698226908	-0.7244551124	-2.0541142691	 0.337818
N	-2.1881828271	 0.1614871399	-2.4249172221	-0.218201
O	-3.3318741064	-0.4116811267	-2.9972104157	-0.383553
H	 0.8448700411	 1.867231375	-0.2596715976	 0.143764
H	-0.8916868361	 1.8382924749	-0.5654640782	 0.162993
H	-0.2822413544	 1.788450343	 1.1219650765	 0.147395
H	 0.7711204062	-0.146375432	-1.9574499058	 0.115436
H	-1.1831596383	-2.7174352923	-3.0046275263	 0.134439
H	-1.9328910002	-2.7559019319	-1.3774508525	 0.142597
H	-3.8558453179	 0.3612801656	-3.2352666126	 0.314132
56.7857	91.5693	112.0086	130.2466	202.3026	240.4181	312.6082	365.3738	380.2276	481.04	481.7181	597.7971	631.544	743.8879	806.5576	906.7783	946.2859	986.9499	990.2115	1019.6407	1054.6462	1066.6496	1130.7199	1166.1959	1184.7223	1221.9298	1301.4112	1331.2469	1381.5742	1413.2719	1464.4473	1474.6727	1495.2268	1807.628	1837.236	3008.9738	3027.4157	3036.019	3071.8807	3099.0523	3154.6856	3814.4113
CC(=O)C1OCC1=NO	CC(=O)[C@H]1OCC1=NO	
InChI=1S/C5H7NO3/c1-3(7)5-4(6-8)2-9-5/h5,8H,2H2,1H3	InChI=1S/C5H7NO3/c1-3(7)5-4(6-8)2-9-5/h5,8H,2H2,1H3/t5-/m1/s1
