14
gdb 47217	2.19653	1.71923	1.26846	2.0242	68.47	-0.2447	-0.0461	0.1986	1004.5881	0.100047	-436.661106	-436.652991	-436.652046	-436.695048	28.88	
O	-0.2505539972	 0.6151393742	-1.3087493509	-0.292649
C	-0.0172038876	 1.3227936121	-0.3641982739	 0.347338
C	-1.0382653591	 1.5466307398	 0.7410774908	-0.166333
O	-0.9718847358	 2.837133873	 1.3642563646	-0.223322
C	 0.0710686345	 3.6384267137	 1.0632473902	 0.149046
N	 1.1170308347	 3.4108938562	 0.3897026339	-0.256874
C	 1.3129685192	 2.0567134166	-0.1528117934	-0.246239
C	 2.1503261827	 1.2525207982	 0.7366578664	 0.342071
C	 2.7970803883	 0.5690872652	 1.4840793511	-0.462317
H	-2.0435810219	 1.4230442743	 0.3331230027	 0.154708
H	-0.877789312	 0.785008417	 1.5150308929	 0.159648
H	-0.086529853	 4.6185708036	 1.5089802025	 0.14189
H	 1.7968016233	 2.1413559034	-1.1315906287	 0.143249
H	 3.3892348138	-0.0256415874	 2.1353804118	 0.209787
35.6067	75.1567	128.2316	195.1501	349.2212	419.9607	438.1604	470.719	538.8492	609.7138	618.9467	644.0322	658.5422	742.3136	899.3894	943.8875	958.7045	983.9065	1017.8197	1034.3788	1171.6396	1214.1852	1252.6972	1281.7897	1301.412	1366.6773	1405.002	1472.3815	1733.7599	1839.0273	2233.3387	3036.2222	3057.4816	3117.21	3168.3465	3501.6342
O=C1COC=NC1C#C	O=C1COC=N[C@H]1C#C	
InChI=1S/C6H5NO2/c1-2-5-6(8)3-9-4-7-5/h1,4-5H,3H2	InChI=1S/C6H5NO2/c1-2-5-6(8)3-9-4-7-5/h1,4-5H,3H2/t5-/m0/s1
