19
gdb 52399	6.30416	0.57219	0.54901	2.0572	73.2	-0.2517	-0.0319	0.2197	1945.9817	0.156571	-460.12823	-460.118418	-460.117473	-460.165469	32.626	
O	-0.2712073546	 0.4033884298	 0.711449047	-0.235349
C	 0.0186220164	 1.2584132084	-0.0814979333	 0.139845
C	 1.3826934822	 1.9248365358	-0.139468391	-0.143902
O	 1.3719431169	 2.8569338617	-1.1891316727	-0.2524
C	 2.5947818083	 3.5493823045	-1.3493978916	-0.068551
C	 2.436603829	 4.5365189992	-2.4876469541	-0.04891
C	 1.5681587874	 5.7742025	-2.176016349	-0.07082
O	 2.7217648595	 6.6427745914	-2.1970560952	-0.270157
C	 3.5794720659	 5.5663880043	-2.623393532	-0.090547
H	-0.6940899906	 1.6377363095	-0.8465968265	 0.097261
H	 1.5865088327	 2.400027861	 0.8353171281	 0.124446
H	 2.1514050349	 1.1464948648	-0.283124948	 0.123368
H	 2.8579722915	 4.0817445204	-0.4192244498	 0.098728
H	 3.4126725165	 2.8401735003	-1.5627301097	 0.094066
H	 2.1718861921	 4.0048722939	-3.4037456027	 0.089685
H	 0.8403727064	 6.0417987673	-2.9519655848	 0.102809
H	 1.0661630462	 5.7723896624	-1.2012263257	 0.106671
H	 4.4367785892	 5.429453674	-1.9509410483	 0.100837
H	 3.9527307004	 5.7152305012	-3.6445466608	 0.102919
39.3274	54.3519	64.7838	96.8485	109.8494	143.6004	248.0638	301.4241	416.8955	447.3277	569.5615	742.1683	803.1554	873.5644	887.3029	925.1936	972.8411	1009.3712	1038.2529	1048.6528	1092.5963	1110.7393	1124.1297	1153.1788	1161.4683	1170.7068	1201.545	1237.8739	1245.754	1283.2465	1310.1625	1337.9398	1356.229	1390.2961	1402.5584	1437.1903	1481.398	1513.2251	1521.7497	1540.4107	1846.1435	2899.8065	2950.7724	2963.3618	2982.621	2990.9922	3004.9577	3019.9942	3046.2636	3061.249	3095.7575
O=CCOCC1COC1	O=CCOCC1COC1	
InChI=1S/C6H10O3/c7-1-2-8-3-6-4-9-5-6/h1,6H,2-5H2	InChI=1S/C6H10O3/c7-1-2-8-3-6-4-9-5-6/h1,6H,2-5H2
