12
gdb 132238	2.04157	1.94609	0.99634	2.3148	60.19	-0.2597	-0.0344	0.2253	1046.4537	0.079777	-510.174011	-510.167035	-510.166091	-510.205885	25.939	
F	 0.0420671382	 0.081484782	 0.0032519432	-0.045849
C	-0.0748167615	 1.3929722384	 0.0118024087	 0.412757
N	-1.2204130761	 1.933671493	 0.0304085551	-0.381938
C	-1.2695154181	 3.3328719837	 0.0384424008	 0.428768
N	-2.3260547717	 4.0351612377	 0.0569240503	-0.539426
N	-0.0302812071	 4.0035426522	 0.024823865	-0.383078
C	 1.2110934048	 3.4284162759	 0.0048895475	 0.498785
O	 2.2650812137	 4.0134897263	-0.0066439394	-0.373935
N	 1.1310195763	 2.0233023832	-0.0014314572	-0.431234
H	-3.1376176553	 3.4199409139	 0.0649907753	 0.236782
H	-0.0637188762	 5.0128757049	 0.0306049266	 0.286485
H	 1.997534543	 1.5070593887	-0.0160855959	 0.291885
111.758	141.6388	219.647	365.5273	382.3567	512.3228	519.105	531.2152	621.6617	640.7269	661.8226	714.6714	748.1414	765.5008	872.4456	957.1265	998.8024	1067.0351	1166.7151	1257.3153	1293.1513	1395.2435	1417.6335	1507.6226	1745.432	1750.1784	1861.5818	3519.2222	3629.748	3642.5317
FC1=NC(=N)NC(=O)N1	FC1=N[C]([NH])NC(=O)N1	
InChI=1S/C3H3FN4O/c4-1-6-2(5)8-3(9)7-1/h(H3,5,6,7,8,9)	InChI=1S/C3H3FN4O/c4-1-6-2(5)8-3(9)7-1/h(H3,5,6,7,8,9)
