18
gdb 95116	2.43855	1.58841	1.18929	2.4597	78.41	-0.2346	0.0371	0.2717	1084.8323	0.147289	-401.889423	-401.880975	-401.880031	-401.922172	32.84	
O	-0.1090382587	 1.4815369165	 0.1251810695	-0.434752
C	-0.0384295638	 0.071463215	 0.0054699184	 0.061321
C	 0.6808089645	-0.6304228007	 1.1803995804	-0.29028
C	-0.0930671027	-1.9504985584	 1.3619590072	-0.158014
N	-1.4711972447	-1.7510534224	 0.8629041029	-0.137847
C	-2.1138776237	-0.5403934863	 1.3712768994	-0.276332
C	-1.4511542499	-0.5176730205	 0.0304635777	 0.16523
C	-2.2141345949	-0.4872786719	-1.1848192346	 0.180374
C	-2.8323343664	-0.4341474032	-2.2145227743	-0.359871
H	 0.7532609504	 1.8454631536	-0.0970422774	 0.286513
H	 0.4243949321	-0.208156098	-0.9514676715	 0.080449
H	 1.7430045722	-0.7953533365	 0.9819268633	 0.102428
H	 0.6094982786	 0.0137484893	 2.0613830918	 0.117674
H	 0.3504822906	-2.7514981385	 0.7614285819	 0.114765
H	-0.1222794517	-2.2944023225	 2.4006379616	 0.113177
H	-3.1969164954	-0.5896732154	 1.4129495056	 0.128364
H	-1.6476637381	 0.0218304173	 2.1758430101	 0.121067
H	-3.3880686785	-0.3957982674	-3.1183154419	 0.185734
100.6329	143.3317	171.6031	232.7907	257.642	336.7484	400.5348	473.9172	510.4231	533.2734	592.4325	607.1947	647.4449	652.336	681.9739	812.2236	839.1997	894.5852	922.0101	960.332	983.1838	1027.8455	1077.9016	1105.2724	1113.9684	1159.4213	1197.8004	1226.1983	1235.1363	1251.382	1301.2193	1329.7506	1348.4445	1376.3453	1438.1246	1488.6951	1499.0973	1520.2557	2241.4904	3001.7935	3045.7362	3061.088	3085.8931	3108.4938	3119.0144	3208.4419	3503.9595	3825.7824
OC1CCN2CC12C#C	O[C@H]1CCN2C[C@@]12C#C	
InChI=1S/C7H9NO/c1-2-7-5-8(7)4-3-6(7)9/h1,6,9H,3-5H2	InChI=1S/C7H9NO/c1-2-7-5-8(7)4-3-6(7)9/h1,6,9H,3-5H2/t6-,7-,8?/m0/s1
