18
gdb 20268	4.32314	2.55966	2.31787	0.0542	73.83	-0.2582	0.0978	0.3561	690.7471	0.158111	-310.622578	-310.617472	-310.616528	-310.65131	23.046	
C	-0.0345767688	 1.5935093695	 0.0467706755	-0.244838
C	 1.5042907943	 1.4065880347	 0.0261585888	-0.029489
C	 1.8575684039	 0.7117529227	 1.3529381134	-0.029488
C	 3.0101253021	-0.2698671482	 1.0190037667	-0.244838
C	 1.93756983	-0.9970843303	 0.1899292533	-0.045686
C	 1.3078317958	 0.0524803064	-0.7756807312	-0.035781
C	-0.0625825802	 0.0567068533	-0.0167794815	-0.045686
C	 0.8205482772	-0.4715905416	 1.1543479177	-0.035781
H	-0.4811420657	 2.1007377182	 0.9093349499	 0.085451
H	-0.4083788586	 2.0438022667	-0.8780670527	 0.093561
H	 2.1733699871	 2.1955542268	-0.3193273234	 0.058133
H	 1.8716797834	 1.3282118271	 2.2525349469	 0.058133
H	 3.8969427872	 0.1285685918	 0.5135117344	 0.085451
H	 3.3168328162	-0.8581840153	 1.8894233924	 0.093561
H	 2.0264560147	-2.0308980133	-0.1431038612	 0.05845
H	 1.4161913104	 0.0459073833	-1.8587511394	 0.060198
H	-0.9351890635	-0.5217093061	-0.3193935173	 0.05845
H	 0.4460966943	-1.0124089958	 2.0216010378	 0.060198
356.9829	418.7663	436.7605	667.2689	685.7934	781.5303	793.823	815.351	825.9886	849.7544	863.0983	880.7416	914.9289	923.0698	953.6478	965.6212	989.5368	1000.8864	1011.9966	1046.0688	1064.1521	1091.6207	1102.739	1126.5064	1152.9648	1164.7786	1192.3447	1221.4992	1230.1381	1237.0675	1238.2053	1249.4261	1285.3286	1300.1502	1300.6378	1320.8575	1494.3602	1496.1403	3034.692	3035.1262	3090.8549	3091.8451	3100.8376	3107.926	3112.0229	3113.9279	3128.9135	3136.1819
C1C2C3CC4C2C1C34	C1[C@H]2[C@@H]3C[C@@H]4[C@H]2[C@H]1[C@H]34	
InChI=1S/C8H10/c1-3-4-2-6-7(3)5(1)8(4)6/h3-8H,1-2H2	InChI=1S/C8H10/c1-3-4-2-6-7(3)5(1)8(4)6/h3-8H,1-2H2/t3-,4-,5-,6+,7+,8-/m0/s1
