19
gdb 99717	2.70543	0.64873	0.56273	0.3966	76.89	-0.1859	0.0452	0.2311	1964.282	0.156035	-456.409015	-456.397254	-456.39631	-456.449564	39.069	
C	 0.3472105125	 1.4968229073	-1.5417587512	-0.361687
C	-0.0600533903	 0.7077884719	-0.2865719453	-0.238733
C	-1.3452247008	-0.0497168448	-0.4724510912	-0.122676
C	-1.5813721522	-1.3317890241	-0.1483753918	 0.305392
N	-2.7311795689	-2.0438515695	-0.52848571	-0.561201
N	-0.7245149398	-2.1542812347	 0.6098308868	-0.558966
H	-0.5814344684	-3.0563310798	 0.1688262573	 0.244408
H	 0.1613389483	-1.7199672329	 0.827683907	 0.246709
C	-2.0323265024	-2.879553801	 3.1787210669	 0.592305
O	-3.0582785348	-3.005120731	 2.6413711534	-0.306531
O	-1.0321433462	-2.771093473	 3.7591504668	-0.295738
H	 1.2692789623	 2.0635980743	-1.3754809392	 0.10483
H	 0.5046804974	 0.8259422911	-2.3922203946	 0.115573
H	-0.4354970091	 2.2095527053	-1.8241350619	 0.112894
H	 0.7579526049	 0.0232850329	-0.0236951656	 0.077142
H	-0.136097177	 1.4115905641	 0.5563955472	 0.098906
H	-2.1625653802	 0.5019265908	-0.9316941452	 0.053521
H	-3.4068655285	-1.4614029808	-1.0042548007	 0.240398
H	-3.1622786968	-2.5193735661	 0.2572938012	 0.253454
21.9536	28.5073	48.7635	68.7527	93.1807	114.1425	164.9602	209.6749	283.8011	369.753	382.3251	396.9808	474.3339	547.8867	583.8853	659.2456	689.1663	734.9939	783.3232	795.7226	828.0945	879.4358	952.1806	1040.2393	1089.258	1121.7072	1149.2593	1200.2008	1285.2102	1312.8482	1358.3601	1376.1087	1405.5868	1428.9716	1478.8842	1496.6432	1505.5971	1627.9286	1638.5549	1755.4656	2431.1436	2982.3728	3019.8488	3029.2229	3096.0219	3104.4105	3142.4245	3518.782	3520.8245	3628.956	3635.4326
CCC(C(N)=[NH2+])C([O-])=O	CC[CH]C(=[NH2])N.C(=O)=O	
InChI=1S/C5H10N2O2/c1-2-3(4(6)7)5(8)9/h3H,2H2,1H3,(H3,6,7)(H,8,9)	InChI=1S/C4H10N2.CO2/c1-2-3-4(5)6;2-1-3/h3H,2,5-6H2,1H3;
