17
gdb 33377	5.94649	0.62216	0.57914	5.6079	87.91	-0.2387	-0.0427	0.196	1838.8976	0.136121	-380.827502	-380.818695	-380.817751	-380.862386	31.1	
N	 0.0863905309	-3.7662394582	-0.1636870437	-0.336799
C	 0.0628200671	-2.6053773607	-0.1252690204	 0.206579
C	 0.0340399656	-1.2412346707	-0.0784509185	 0.092929
C	 0.009103866	-0.0342966698	-0.0408588302	 0.070044
C	-0.021344492	 1.4224174173	 0.0277113031	-0.334813
N	 1.3099510245	 1.9889828901	 0.119314634	-0.063228
C	 2.0720826091	 1.8292192809	 1.3780871437	-0.160045
C	 2.607561226	 3.2686633391	 1.1866678016	-0.225786
C	 1.4237029859	 3.4609479324	 0.2085729573	-0.161168
H	-0.5026824264	 1.8089344711	-0.8806867674	 0.150904
H	-0.6722029014	 1.7173964561	 0.8771083652	 0.119231
H	 1.4224743427	 1.7452001585	 2.2648762741	 0.090905
H	 2.7846814899	 0.9999469053	 1.3809762244	 0.117628
H	 2.6353296473	 3.9109024797	 2.0664710483	 0.111685
H	 3.5750721935	 3.2933204928	 0.6833159837	 0.122218
H	 1.6061847432	 3.9649605295	-0.7456221873	 0.11112
H	 0.5562964083	 3.9316352565	 0.700878102	 0.088598
40.1189	64.5065	145.0753	165.4193	208.2573	312.9642	337.2107	364.9104	439.1457	576.3517	579.7993	683.1984	740.2134	772.6775	848.8882	926.2284	938.1588	968.821	999.7154	1092.9435	1130.71	1142.3862	1163.6993	1206.55	1215.4241	1219.6793	1260.9412	1271.3608	1297.3854	1341.2201	1386.9887	1464.7126	1487.762	1503.473	1531.8127	2267.2198	2404.1844	2887.9703	2962.2643	2972.9368	3033.789	3068.7779	3081.2559	3093.6406	3149.5418
N#CC#CCN1CCC1	N#CC#CCN1CCC1	
InChI=1S/C7H8N2/c8-4-1-2-5-9-6-3-7-9/h3,5-7H2	InChI=1S/C7H8N2/c8-4-1-2-5-9-6-3-7-9/h3,5-7H2
