13
gdb 61697	2.20433	1.26563	1.03885	3.7333	65.05	-0.3144	-0.0535	0.2608	1162.0984	0.085795	-452.765122	-452.755892	-452.754948	-452.799596	31.284	
C	-0.095929512	 1.6192299434	-0.0317107954	-0.403738
C	 0.029679425	 0.0837958411	 0.0161535013	 0.063422
O	 0.6827130755	-0.3329734893	 1.2251797006	-0.218534
C	 2.0461874321	-0.2468095756	 1.3132795094	 0.175606
O	 2.6054580456	-0.4645595804	 2.3382247675	-0.238898
C	-1.3118548407	-0.5312460454	 0.0643016116	 0.322521
N	-2.3788491313	-0.9690555469	 0.0900125167	-0.30055
C	 0.7273128563	-0.4141526898	-1.1932867923	 0.279277
N	 1.2791732212	-0.7670117867	-2.144103138	-0.30145
H	 0.899120087	 2.0662239938	-0.0868023386	 0.154757
H	-0.6740004809	 1.9262243771	-0.9056014504	 0.170432
H	-0.5985929939	 1.9554155997	 0.8768240736	 0.172316
H	 2.5348161063	 0.017360029	 0.3612814641	 0.12484
76.8778	122.1197	130.2492	145.8659	193.8645	224.2468	246.494	326.2194	388.9018	482.3718	494.7857	531.2617	581.3405	634.2248	772.5216	937.9846	953.4005	1034.0072	1077.6326	1107.7833	1160.2212	1226.8038	1409.2174	1430.3962	1480.4003	1482.7089	1882.9174	2362.8853	2378.5657	3014.8859	3061.617	3149.0204	3158.0015
CC(OC=O)(C#N)C#N	CC(OC=O)(C#N)C#N	
InChI=1S/C5H4N2O2/c1-5(2-6,3-7)9-4-8/h4H,1H3	InChI=1S/C5H4N2O2/c1-5(2-6,3-7)9-4-8/h4H,1H3
