15
gdb 125113	2.35348	1.86135	1.04616	4.1237	70.92	-0.2339	-0.0345	0.1994	1065.4659	0.112966	-453.983283	-453.975222	-453.974278	-454.016496	29.933	
C	 0.0563383086	 1.557636077	-0.0639890476	-0.548004
C	 0.0565109819	 0.0527141746	-0.0397303955	 0.056697
C	 0.0588279111	-0.7190222747	-1.1912301124	 0.318601
O	 0.0611340983	-0.1998789632	-2.4389245745	-0.423686
C	 0.0587886686	-2.1195719363	-1.0686041859	-0.044928
N	 0.0566563996	-2.7386357113	 0.0985973231	-0.209145
N	 0.0544156494	-2.0213375108	 1.2209214031	-0.318024
C	 0.0543521359	-0.6953965746	 1.1480162583	 0.401371
O	 0.0520709777	-0.0380753572	 2.3264835805	-0.414498
H	 0.9437373842	 1.9534477333	-0.5746128725	 0.138124
H	-0.8287720862	 1.9531668316	-0.578787926	 0.138095
H	 0.0538851672	 1.9565020676	 0.9500839345	 0.1698
H	 0.060934843	 0.7628567512	-2.3917980674	 0.306607
H	 0.0605658969	-2.7421417369	-1.9570088456	 0.125866
H	 0.0508639938	-0.7287310903	 3.006068398	 0.303125
37.1009	137.0103	238.9619	280.2704	284.436	339.0504	399.5466	494.2817	525.532	546.0628	555.1088	586.92	675.7375	694.2369	793.3441	861.0521	917.4166	951.3327	1055.1609	1111.6283	1125.7979	1206.0484	1227.8677	1272.6258	1310.2446	1373.3508	1411.0403	1431.5112	1490.9956	1496.0812	1521.5198	1616.075	1641.8285	3015.4141	3062.2065	3153.8762	3191.858	3744.595	3809.0352
CC1=C(O)C=NN=C1O	Cc1c(O)cnnc1O	
InChI=1S/C5H6N2O2/c1-3-4(8)2-6-7-5(3)9/h2H,1H3,(H2,7,8,9)	InChI=1S/C5H6N2O2/c1-3-4(8)2-6-7-5(3)9/h2H,1H3,(H2,7,8,9)
