19
gdb 73435	2.89477	1.92349	1.41398	1.3875	77.06	-0.2026	0.0735	0.2761	948.6166	0.16122	-385.833255	-385.826149	-385.825205	-385.864503	29.769	
O	-0.1322479485	 1.3223509528	-0.1075195712	-0.481962
C	 0.0100801188	-0.0748462498	-0.0376086434	 0.411882
C	 1.2182017432	-0.5998017734	-0.7779426941	-0.290499
C	 1.3305836475	-2.1426748528	-0.7343446409	-0.240602
C	 0.1817292103	-2.7875325482	 0.0118668773	-0.041656
C	-0.4347992944	-2.2257190679	 1.268512514	-0.095972
C	-1.2419446059	-2.2883221748	-0.0226976031	-0.096905
C	-1.334369862	-0.7411132811	-0.041861994	-0.110022
C	-0.519807542	-0.6766986672	 1.2473760546	-0.153998
H	 0.6003807615	 1.7137546147	 0.3819363166	 0.278092
H	 1.1606774844	-0.2389908005	-1.8104799105	 0.108626
H	 2.1158978426	-0.1402425431	-0.3432231589	 0.085241
H	 1.3637126259	-2.5456246496	-1.7528458312	 0.102092
H	 2.2720976711	-2.4410270981	-0.2592392355	 0.099692
H	 0.2312292858	-3.874546174	 0.0329772154	 0.082155
H	-0.5558292042	-2.8130314499	 2.170211633	 0.083493
H	-2.0775108485	-2.9317161002	-0.2676016775	 0.084462
H	-2.2246494784	-0.1834118073	-0.3001508576	 0.092823
H	-0.7011553274	-0.0611473496	 2.119144587	 0.08306
84.5568	259.7116	299.04	365.8502	400.0664	478.5005	481.0883	491.8773	642.2549	699.895	717.4498	771.0058	790.3664	835.9513	839.355	893.6116	903.5704	930.4449	977.6752	992.8579	1000.7676	1010.0005	1054.9784	1058.6778	1071.5864	1097.2339	1143.7566	1153.7489	1220.1599	1230.3223	1242.3215	1263.601	1287.0286	1304.8194	1328.5739	1333.6304	1383.0983	1432.3258	1454.3734	1490.5501	1509.0532	3009.8511	3030.9859	3049.7999	3072.5008	3127.5013	3177.7808	3188.8254	3192.4222	3205.5278	3786.4873
OC12CCC3C4C3C1C24	O[C@]12CC[C@H]3[C@@H]4[C@H]3[C@H]1[C@H]24	
InChI=1S/C8H10O/c9-8-2-1-3-4-5(3)7(8)6(4)8/h3-7,9H,1-2H2	InChI=1S/C8H10O/c9-8-2-1-3-4-5(3)7(8)6(4)8/h3-7,9H,1-2H2/t3-,4+,5-,6+,7-,8-
