22
gdb 115868	2.39916	1.38685	1.03487	1.7618	81.71	-0.2283	0.0757	0.304	1238.7071	0.195177	-404.340375	-404.331215	-404.33027	-404.373987	35.35	
C	-0.0259843866	 1.49206744	 0.0605690352	-0.497549
C	 0.0791819921	-0.0106998566	 0.0091473133	 0.323414
N	-0.7925033873	-0.8414227848	 0.8805957479	-0.378912
C	 0.6759769722	-0.8254166047	 1.0965249752	-0.079601
C	 1.3803121983	-2.0307061851	 0.5057033321	-0.222193
C	 0.7794728226	-2.1513802807	-0.9138117588	-0.218112
C	 0.3696695697	-0.7120807464	-1.3190216977	-0.002515
C	-0.7894821262	-0.6701156366	-2.3049104881	-0.099154
O	-0.3822246304	-1.3445385065	-3.4896886821	-0.425392
H	 0.8495446124	 1.9638945161	-0.3996886923	 0.123408
H	-0.9126126739	 1.8538907819	-0.4731363742	 0.123263
H	-0.0928574006	 1.8477388105	 1.0944982363	 0.11132
H	-1.2309782249	-0.237984295	 1.5731812517	 0.221158
H	 1.0574869326	-0.3573778458	 1.9997166442	 0.076519
H	 2.4575722611	-1.8268735683	 0.4652346985	 0.094465
H	 1.2400759836	-2.9417364935	 1.0964489975	 0.099483
H	 1.4687783789	-2.599771286	-1.6311883999	 0.102611
H	-0.1137086982	-2.7803509719	-0.8827169542	 0.114794
H	 1.2259655375	-0.2024307735	-1.7828314441	 0.07149
H	-1.6645734323	-1.1537106145	-1.8453566207	 0.10081
H	-1.0630304968	 0.3747744552	-2.526563737	 0.076148
H	-1.1381976938	-1.3928485837	-4.0816705329	 0.284544
90.9066	127.1464	180.0787	209.2368	246.3198	262.1362	291.3821	312.1189	432.3969	450.5184	510.346	552.6263	643.1079	714.8933	824.5145	842.0961	846.9739	910.9974	946.949	955.0648	992.6092	1003.5953	1040.6255	1055.3738	1071.1339	1084.0604	1119.3373	1131.3289	1139.4089	1195.4798	1238.7666	1242.398	1262.3096	1287.4007	1301.807	1330.2714	1343.1122	1359.048	1375.7967	1416.4092	1441.9138	1456.9034	1478.5784	1486.8195	1492.8972	1503.073	1524.9149	2960.5425	2999.6076	3018.1168	3023.6923	3031.2383	3068.9232	3080.5581	3083.5396	3093.2129	3121.6619	3148.3764	3487.1373	3831.204
CC12NC1CCC2CO	C[C@]12N[C@H]1CC[C@H]2CO	
InChI=1S/C7H13NO/c1-7-5(4-9)2-3-6(7)8-7/h5-6,8-9H,2-4H2,1H3	InChI=1S/C7H13NO/c1-7-5(4-9)2-3-6(7)8-7/h5-6,8-9H,2-4H2,1H3/t5-,6-,7+/m0/s1
