21
gdb 98968	4.97775	0.70989	0.63092	4.7918	82.24	-0.2427	-0.0081	0.2346	1827.1681	0.181137	-420.464264	-420.453478	-420.452534	-420.501809	37.582	
C	 0.1479330056	 1.6390409747	 0.0722145403	-0.366339
C	-0.0926085066	 0.1321676522	 0.047530376	-0.272508
C	-1.5584018898	-0.2511185618	-0.0123126695	 0.388365
N	-2.4786955488	 0.6190203399	-0.0382781765	-0.50133
N	-1.7383356474	-1.6565421363	-0.0338110178	-0.385707
C	-2.9326326158	-2.3480876509	-0.0863903601	 0.437417
O	-4.0186015999	-1.8024451191	-0.1220900645	-0.349924
C	-2.7670124603	-3.8663459837	-0.0957728084	-0.311676
C	-4.1036327896	-4.6014692767	-0.1539671278	-0.371224
H	 1.2201260997	 1.8518463451	 0.1153485682	 0.103278
H	-0.2696208514	 2.1132667309	-0.8185061955	 0.136811
H	-0.3367044959	 2.0951933166	 0.9380510663	 0.136823
H	 0.4181890163	-0.3221223653	-0.8139270544	 0.112141
H	 0.3514595032	-0.340123832	 0.9358707512	 0.11215
H	-3.3946531619	 0.1709645872	-0.0778043654	 0.249587
H	-0.8974078978	-2.2132763159	-0.0075136978	 0.247688
H	-2.134433648	-4.1384434676	-0.9512760177	 0.124304
H	-2.2007025519	-4.1565064133	 0.799312864	 0.124287
H	-3.9444056818	-5.6831761241	-0.1594120084	 0.111243
H	-4.7265914715	-4.3451644014	 0.7060281954	 0.137295
H	-4.6602392764	-4.3265142186	-1.0528234377	 0.137318
24.883	55.7391	89.8194	105.3866	130.811	204.0455	223.2529	251.129	322.2652	336.0434	407.3797	531.8289	536.4297	604.6498	611.6382	683.9624	810.6429	816.2819	844.7045	943.8499	976.2669	995.6231	1021.8629	1064.3873	1097.5232	1101.9269	1112.8149	1117.8255	1205.6269	1285.0518	1291.6096	1306.4482	1367.27	1405.2918	1415.4251	1415.918	1463.0083	1471.0543	1489.172	1491.9291	1498.6586	1499.6593	1507.3523	1739.5086	1795.5927	3002.8369	3019.5507	3029.0397	3050.8848	3053.6073	3055.4645	3125.7678	3127.42	3134.954	3138.4173	3485.9584	3614.4983
CCC(=N)NC(=O)CC	CCC(=N)NC(=O)CC	
InChI=1S/C6H12N2O/c1-3-5(7)8-6(9)4-2/h3-4H2,1-2H3,(H2,7,8,9)	InChI=1S/C6H12N2O/c1-3-5(7)8-6(9)4-2/h3-4H2,1-2H3,(H2,7,8,9)
