21
gdb 69820	3.08365	1.52617	1.2586	1.0379	81.23	-0.2176	0.0739	0.2915	1081.7387	0.18424	-387.066839	-387.059056	-387.058112	-387.098437	32.391	
C	 0.0964440132	 1.4919695116	-0.0609361953	-0.449852
C	-0.0225102522	-0.0055625986	 0.0455830854	 0.453449
C	-0.9404272796	-0.6326204439	 1.0648165816	-0.380504
C	 0.5714104967	-0.7567520126	 1.2190174824	-0.110433
C	 1.3263365301	-2.0224149061	 0.9200253593	-0.006503
C	 0.6996981068	-3.3874226259	 0.8191200512	-0.307662
C	 1.1146774215	-2.6589555999	-0.4391986467	-0.04518
C	 0.0747559812	-1.9882601086	-1.3191178305	-0.116714
O	 0.105576888	-0.5657867275	-1.2364157304	-0.295314
H	 1.0570924217	 1.7672274703	-0.5080488163	 0.122776
H	-0.7002350118	 1.8991495969	-0.6923005955	 0.122353
H	 0.0267313348	 1.9565774289	 0.926469157	 0.111438
H	-1.4599859328	 0.0267158216	 1.7516760219	 0.109045
H	-1.5122483359	-1.5134750757	 0.7985224939	 0.112244
H	 1.0108553395	-0.1532311761	 2.007032505	 0.083301
H	 2.3525926822	-2.0006006809	 1.2725913354	 0.085486
H	 1.2908241717	-4.2400868131	 1.13448063	 0.109579
H	-0.3625022028	-3.4869785813	 1.0194427357	 0.111023
H	 1.9981942089	-3.0197583761	-0.9542832819	 0.086693
H	 0.2652023583	-2.2076699168	-2.3725076123	 0.111245
H	-0.9369745995	-2.3558854563	-1.0928708497	 0.093528
163.9792	212.244	230.2495	264.3246	334.6589	394.5571	413.4044	449.5237	515.7158	537.4796	675.2768	697.3102	757.8856	814.6007	830.9874	844.5787	908.1875	919.1439	931.6393	954.88	966.9457	1018.4987	1044.4237	1059.3041	1072.7848	1090.9934	1103.8495	1124.7297	1126.1137	1150.1856	1178.78	1239.3737	1266.1752	1283.5975	1305.8472	1370.3616	1398.4782	1410.7579	1410.9799	1428.3338	1477.7366	1481.4127	1490.2824	1506.1086	1513.5294	2993.6814	3035.3399	3091.254	3101.0243	3116.6184	3129.006	3138.1258	3142.8463	3156.0793	3163.7809	3213.5552	3220.5701
CC12CC1C1CC1CO2	C[C@]12C[C@H]1[C@H]1C[C@H]1CO2	
InChI=1S/C8H12O/c1-8-3-7(8)6-2-5(6)4-9-8/h5-7H,2-4H2,1H3	InChI=1S/C8H12O/c1-8-3-7(8)6-2-5(6)4-9-8/h5-7H,2-4H2,1H3/t5-,6-,7-,8-/m0/s1
