17
gdb 16521	3.65273	2.41316	1.85623	0.6312	66.65	-0.2307	0.0814	0.312	764.6077	0.143791	-363.817253	-363.810805	-363.80986	-363.847382	25.985	
C	-0.0339217505	 1.4656979395	 0.0245002102	-0.482945
C	-0.0233856085	-0.0362579362	-0.0694184903	 0.3121
C	 0.9383659781	-0.7203438545	-1.0395302097	-0.147679
O	 0.3427965902	-1.9805777717	-1.3637094364	-0.260255
C	-0.6097308223	-2.2303018302	-0.3430106152	 0.066702
C	 0.0457699522	-2.183124723	 1.0567901422	-0.18134
N	-0.3247418721	-0.7342690914	 1.224735934	-0.191838
C	-1.2375623232	-0.8662347458	 0.0244362276	-0.106606
H	 0.9449820264	 1.8425025287	 0.3408935063	 0.125581
H	-0.275501812	 1.9184715538	-0.9430483597	 0.120127
H	-0.7701983787	 1.7941524516	 0.7614823502	 0.136392
H	 1.0534709768	-0.1373408944	-1.9603339142	 0.10939
H	 1.9364931218	-0.861379262	-0.6005322515	 0.102619
H	-1.2223943289	-3.0838570415	-0.6293304588	 0.088359
H	-0.4962292949	-2.7620654132	 1.808746553	 0.112167
H	 1.1143179349	-2.415835079	 1.1144158606	 0.104795
H	-2.2687952893	-0.5343605407	 0.0106455519	 0.092433
199.1439	232.7954	277.119	319.3571	415.7816	449.2322	581.4755	657.6867	691.4151	789.3537	852.2063	863.4298	891.5068	902.996	972.6846	980.5584	993.4442	1017.5735	1025.4384	1067.6582	1109.7926	1127.9597	1163.3525	1202.5927	1217.7017	1230.2259	1276.2628	1299.8568	1331.0838	1354.031	1412.2071	1426.8679	1487.9794	1493.2705	1495.7352	1523.3374	2999.7188	3034.4531	3046.667	3056.5262	3095.3268	3106.3934	3127.2157	3131.5015	3186.1346
CC12COC3CN1C23	C[C@@]12CO[C@H]3CN1[C@@H]23	
InChI=1S/C6H9NO/c1-6-3-8-4-2-7(6)5(4)6/h4-5H,2-3H2,1H3	InChI=1S/C6H9NO/c1-6-3-8-4-2-7(6)5(4)6/h4-5H,2-3H2,1H3/t4-,5+,6-,7?/m0/s1
