18
gdb 36460	2.73221	1.09069	0.84047	3.808	82.33	-0.2716	0.0223	0.294	1347.8684	0.147006	-364.786866	-364.777872	-364.776928	-364.821132	33.132	
C	-0.3884043135	-1.1378174689	-0.5641293498	-0.450431
C	-0.2396897182	 0.0115414123	-0.2402860615	 0.309567
C	-0.0283684889	 1.3860639973	 0.1617706032	-0.181056
C	 0.1770878971	 1.7150460395	 1.6766160936	-0.22807
C	 1.2777779237	 2.7319382895	 1.2757015677	-0.232655
C	 1.3574461548	 2.0739171127	-0.1306177868	-0.006589
C	 2.5148376862	 1.0781341452	-0.2995116108	-0.35958
C	 3.807271106	 1.7560378249	-0.3760286922	 0.262811
N	 4.8200624466	 2.3100148796	-0.4316878597	-0.30693
H	-0.5350875446	-2.1499835175	-0.8505187447	 0.201033
H	-0.8244516103	 2.0160900758	-0.2481959839	 0.112846
H	-0.6953669466	 2.0931773128	 2.2119668841	 0.113456
H	 0.5746819899	 0.8560878878	 2.221291824	 0.118171
H	 0.9005213485	 3.7558788931	 1.2238364236	 0.114396
H	 2.1976325528	 2.7344893102	 1.8643998248	 0.120324
H	 1.3525843525	 2.7608402339	-0.9796212028	 0.09663
H	 2.5413244699	 0.3684703212	 0.5352258772	 0.154779
H	 2.369643934	 0.4804855005	-1.2058329858	 0.161299
70.5645	95.1164	111.4011	157.3137	216.9386	315.8478	343.3766	399.2191	502.9639	516.517	561.1471	625.3264	643.7656	666.713	753.9061	832.9955	878.5437	906.6719	950.5772	953.4648	960.6019	1038.0345	1082.8836	1092.0842	1118.8107	1201.7134	1219.7122	1237.2383	1261.732	1272.451	1285.7267	1322.6636	1344.1372	1381.0078	1460.3771	1483.5584	1500.397	2229.3815	2360.711	3048.2293	3051.272	3068.79	3076.3429	3080.7722	3093.4782	3116.6974	3135.5015	3501.5816
C#CC1CCC1CC#N	C#C[C@H]1CC[C@H]1CC#N	
InChI=1S/C8H9N/c1-2-7-3-4-8(7)5-6-9/h1,7-8H,3-5H2	InChI=1S/C8H9N/c1-2-7-3-4-8(7)5-6-9/h1,7-8H,3-5H2/t7-,8-/m0/s1
