18
gdb 92916	2.60208	1.37904	1.09483	2.3967	78.29	-0.2492	0.0183	0.2675	1159.3208	0.147683	-401.932603	-401.924082	-401.923138	-401.965752	32.34	
C	 0.0575232968	 1.5647992859	 0.0874664252	-0.406121
C	 0.0107393592	 0.0524022972	-0.0371026302	 0.144283
C	 0.7377657991	-0.5028775306	-1.2559982329	-0.242796
C	 0.7194475017	-2.0453045513	-1.194173252	-0.170442
N	 1.1496351741	-2.5465812817	 0.1220103341	-0.260643
C	 1.0684434653	-1.7520017101	 1.1050909574	 0.134616
O	 0.6054487972	-0.4861001957	 1.1675389638	-0.238124
C	-0.5987462466	-2.5833549594	-1.5404464471	 0.371624
C	-1.6893251993	-2.9967282394	-1.8309647363	-0.487715
H	 1.0922894989	 1.9203145664	 0.1053826929	 0.126552
H	-0.4557654964	 2.0276478885	-0.7605857426	 0.12281
H	-0.433876667	 1.8878182909	 1.009040229	 0.131189
H	-1.0315151271	-0.2916638927	-0.0588543504	 0.10504
H	 0.2671415936	-0.1422326786	-2.1745787539	 0.116953
H	 1.7787008717	-0.1599716652	-1.2475972179	 0.110488
H	 1.4404004057	-2.4353375992	-1.9233910677	 0.115757
H	 1.4169290524	-2.0652482283	 2.0881682423	 0.127027
H	-2.6462771094	-3.3807878068	-2.0850588134	 0.199503
86.9366	104.6063	188.6793	227.949	267.6485	305.9799	391.7756	436.8354	463.6954	507.2519	600.4241	629.8255	648.1698	661.9242	787.2541	813.9419	884.3486	908.7322	938.4984	980.5398	984.5913	1042.3244	1112.6035	1127.7096	1161.9583	1191.3088	1240.5477	1279.8314	1333.9179	1343.8976	1382.8077	1402.6942	1407.9019	1417.3335	1474.7997	1485.8462	1499.3483	1719.8633	2234.766	3022.6495	3026.7678	3043.0527	3048.8306	3102.9818	3119.4156	3124.2637	3154.461	3503.7113
CC1CC(N=CO1)C#C	C[C@H]1C[C@@H](N=CO1)C#C	
InChI=1S/C7H9NO/c1-3-7-4-6(2)9-5-8-7/h1,5-7H,4H2,2H3	InChI=1S/C7H9NO/c1-3-7-4-6(2)9-5-8-7/h1,5-7H,4H2,2H3/t6-,7-/m0/s1
