16
gdb 50273	2.86596	1.31032	1.09064	1.7455	77.09	-0.2399	-0.0349	0.2049	1121.8768	0.122427	-400.672144	-400.663801	-400.662857	-400.705502	30.885	
O	-0.8382406269	 1.0490627865	-0.5378523986	-0.246751
C	 0.1164936549	 0.9197856075	 0.1875738792	 0.13693
C	 1.3429939839	 1.7919619696	 0.1436164653	-0.157318
C	 1.390109413	 3.0012734582	-0.8123345578	-0.18459
N	 1.5817720558	 3.9818161008	 0.3185029146	-0.154249
C	 0.3900539011	 3.8515203681	 1.1615424335	-0.269828
C	 1.444225379	 2.8120610701	 1.3076504238	 0.134219
C	 2.2453101995	 2.6375264264	 2.4704538543	 0.192605
C	 2.9145965562	 2.4444927412	 3.4516401961	-0.380348
H	 0.1315543906	 0.1437866753	 0.9860721092	 0.089195
H	 2.2393629595	 1.1674987215	 0.1009260474	 0.112886
H	 2.2620311738	 3.0124070544	-1.4664120038	 0.122407
H	 0.4831465081	 3.1745817511	-1.396729627	 0.133873
H	 0.3406852044	 4.597906999	 1.9472844703	 0.138201
H	-0.5628643765	 3.5910646969	 0.7049336703	 0.136152
H	 3.5079579035	 2.2892641634	 4.3187174232	 0.196614
66.2557	104.155	156.2779	199.3413	237.8332	344.4887	439.9847	502.356	518.949	587.5533	606.0536	667.1167	670.0225	716.1398	765.9065	849.0222	871.0251	942.7661	993.1876	1005.4897	1079.0078	1090.42	1127.6402	1142.8809	1181.8881	1200.2278	1213.8305	1301.2074	1332.4183	1363.5597	1419.6191	1488.9209	1507.7512	1818.8427	2232.7362	2879.1662	3075.5841	3082.1917	3107.2624	3138.7109	3210.6502	3500.5993
O=CC1CN2CC12C#C	O=C[C@H]1CN2C[C@@]12C#C	
InChI=1S/C7H7NO/c1-2-7-5-8(7)3-6(7)4-9/h1,4,6H,3,5H2	InChI=1S/C7H7NO/c1-2-7-5-8(7)3-6(7)4-9/h1,4,6H,3,5H2/t6-,7+,8?/m1/s1
