18
gdb 11746	5.14304	1.28854	1.22095	1.8475	67.89	-0.2556	0.0716	0.3272	1049.3327	0.152766	-384.902177	-384.894005	-384.893061	-384.93482	30.446	
C	 0.055912573	 1.590945397	 0.0720352326	-0.403378
C	 0.040601508	 0.0699086658	 0.0447438206	 0.010185
C	 0.9260180994	-0.6747863739	-1.0260995021	-0.313039
C	 1.6511202692	-1.381327668	 0.1292342178	 0.402504
C	 2.3547723711	-2.6997680123	 0.160480171	-0.179016
O	 3.5822292037	-2.6592281941	-0.5514309738	-0.41385
O	 2.2279289411	-0.3332446693	 0.940408533	-0.297306
C	 0.8465756739	-0.6646098423	 1.1341783457	-0.060577
H	 1.0823336485	 1.957411928	 0.1617889535	 0.132809
H	-0.3768808425	 2.0049412555	-0.8447230622	 0.11519
H	-0.5215499864	 1.9790368944	 0.918434119	 0.113062
H	-0.985092253	-0.3117411159	 0.0121551696	 0.077167
H	 0.3478133406	-1.3515644084	-1.6596107303	 0.10628
H	 1.5653967106	-0.0466599574	-1.6505628173	 0.110345
H	 2.5014532741	-3.001361779	 1.2087392536	 0.096652
H	 1.7445347769	-3.4655051883	-0.3299200326	 0.112612
H	 4.1145912141	-1.9649345065	-0.1469955306	 0.293308
H	 0.5468014378	-0.9459187753	 2.1386202425	 0.09705
72.4435	109.9118	193.3591	233.2116	261.3937	343.4272	373.7967	411.1405	446.822	597.9357	688.3388	711.8125	801.0641	859.8043	890.0808	924.195	935.3965	964.1072	1009.6343	1043.5555	1073.4878	1108.4258	1113.1806	1170.0708	1192.1965	1217.2572	1241.8832	1257.533	1296.698	1359.7182	1370.3802	1403.1782	1419.2319	1457.9331	1482.9553	1488.362	1492.809	1503.6962	2992.4527	3032.393	3054.4792	3068.1633	3076.9657	3095.1323	3117.1784	3125.3028	3170.3668	3803.7233
CC1CC2(CO)OC12	C[C@H]1C[C@@]2(CO)O[C@@H]12	
InChI=1S/C6H10O2/c1-4-2-6(3-7)5(4)8-6/h4-5,7H,2-3H2,1H3	InChI=1S/C6H10O2/c1-4-2-6(3-7)5(4)8-6/h4-5,7H,2-3H2,1H3/t4-,5-,6-/m0/s1
