19
gdb 55524	4.37843	0.85154	0.7585	5.0742	80.32	-0.2431	-0.0119	0.2312	1534.5302	0.159323	-419.244557	-419.235162	-419.234217	-419.279489	34.089	
C	-0.2098246572	 1.551763755	 0.0242107702	-0.467556
C	-0.0127417708	 0.0658759421	 0.1941616534	 0.377566
N	 0.0759779405	-0.4601189731	 1.3438733882	-0.488856
N	 0.0552524516	-0.615485636	-1.0465908839	-0.400813
C	 0.2293805225	-1.9706337682	-1.2454020545	 0.462407
O	 0.3496718162	-2.7704837129	-0.332322631	-0.377703
C	 0.2597132431	-2.3874931954	-2.6791638674	-0.139573
C	 1.1602504715	-3.5583909077	-3.0343552467	-0.247069
C	-0.3184186216	-3.7532709408	-3.0088805195	-0.24709
H	 0.6143107198	 1.9974616878	-0.5454510701	 0.130245
H	-1.1397768714	 1.7682140669	-0.5149459729	 0.130251
H	-0.2531771002	 2.014407929	 1.0090737583	 0.15868
H	 0.2069427185	-1.4694708627	 1.2638533194	 0.250027
H	-0.0331262576	-0.0462727569	-1.8737452796	 0.249862
H	 0.1440194719	-1.6063775718	-3.4234465735	 0.081331
H	 1.6696856793	-3.5168348024	-3.9899974619	 0.119296
H	 1.7318506076	-3.9752323239	-2.2136679387	 0.144831
H	-0.7342075848	-4.3000857794	-2.1709368731	 0.144865
H	-0.853555159	-3.8496462596	-3.9463352465	 0.1193
55.2703	81.4221	123.411	154.8138	167.6823	280.535	294.7342	328.67	395.6679	536.8726	539.1511	573.8564	693.3452	752.5306	795.7652	830.97	853.595	916.6813	923.4731	957.133	973.1187	1031.4846	1070.7979	1082.3989	1099.72	1117.6384	1118.8063	1125.4787	1200.8321	1210.0667	1232.0705	1349.2863	1402.6939	1421.7476	1453.2431	1471.8595	1484.9606	1486.7047	1512.4772	1734.991	1781.4962	3030.2348	3084.1415	3144.6027	3145.8003	3159.5867	3166.5779	3232.8972	3246.7173	3479.4133	3627.3989
CC(=N)NC(=O)C1CC1	CC(=N)NC(=O)C1CC1	
InChI=1S/C6H10N2O/c1-4(7)8-6(9)5-2-3-5/h5H,2-3H2,1H3,(H2,7,8,9)	InChI=1S/C6H10N2O/c1-4(7)8-6(9)5-2-3-5/h5H,2-3H2,1H3,(H2,7,8,9)
