18
gdb 81856	2.97354	1.43883	1.11615	2.5755	71.6	-0.258	-0.0394	0.2185	1105.6596	0.147273	-439.092318	-439.083965	-439.083021	-439.125089	32.146	
C	-0.0448921267	 1.4769836863	-0.0250644517	-0.466126
C	-0.0100402767	-0.0268372863	 0.0640460978	 0.319646
C	-1.1960213154	-0.8237103184	-0.470951465	-0.389946
C	-1.0336316637	-2.1883665569	 0.1828440666	 0.33339
O	-1.4109577497	-3.2574707199	-0.2267236842	-0.315743
C	-0.1759455087	-2.0476383097	 1.4532835635	 0.033956
O	 0.6118192974	-3.1944820953	 1.6546113284	-0.436155
C	 0.6089549968	-0.779271358	 1.206736105	-0.079523
N	 1.3111728866	-0.6574076053	-0.0772451983	-0.364803
H	 0.8595165947	 1.9046509088	 0.4137858021	 0.13592
H	-0.0981947633	 1.803708903	-1.0697133103	 0.124751
H	-0.9171293306	 1.8825815094	 0.4993495916	 0.116179
H	-2.1488118215	-0.3766502063	-0.1550719552	 0.134723
H	-1.2264557822	-0.9115946285	-1.5616972901	 0.136511
H	-0.8627712879	-1.8841286367	 2.3060307388	 0.090503
H	 0.1220166514	-3.9234989373	 1.2459822021	 0.29299
H	 1.0765993221	-0.2750395927	 2.0466483158	 0.098579
H	 1.2879064574	-1.5341085165	-0.5957452269	 0.235148
85.1869	144.43	204.7854	241.3788	278.7031	343.1273	373.459	417.4451	475.5917	524.6325	543.599	604.6188	677.8969	728.1405	787.139	833.3311	899.717	953.3836	972.8299	1027.0715	1045.4671	1073.0405	1102.5129	1104.8566	1156.5142	1176.7938	1199.0365	1242.6629	1255.6698	1308.1625	1318.8517	1355.2548	1405.4006	1425.0596	1435.2525	1457.6739	1486.1848	1495.2075	1843.1871	2921.8212	3024.1784	3032.5358	3083.877	3092.7627	3125.4147	3160.6978	3475.2914	3725.5268
CC12CC(=O)C(O)C1N2	C[C@]12CC(=O)[C@@H](O)[C@H]1N2	
InChI=1S/C6H9NO2/c1-6-2-3(8)4(9)5(6)7-6/h4-5,7,9H,2H2,1H3	InChI=1S/C6H9NO2/c1-6-2-3(8)4(9)5(6)7-6/h4-5,7,9H,2H2,1H3/t4-,5-,6+/m1/s1
