16
gdb 36537	3.76415	1.13854	0.9533	1.398	75.5	-0.2523	-0.0081	0.2443	1203.771	0.124448	-396.889764	-396.881686	-396.880741	-396.923481	29.451	
N	-0.8570629143	 0.345816674	-1.4403501763	-0.322021
C	-0.2884092508	 0.7713285817	-0.5284784429	 0.245095
C	 0.4223343816	 1.3316940835	 0.6358265395	-0.26322
N	 1.3854928147	 2.3906781541	 0.412231721	-0.303398
C	 1.8476664191	 2.6633727041	-0.7236685133	 0.40247
C	 1.8029626883	 2.1743957181	-2.1801742322	-0.351446
C	 2.8075472092	 3.2945765483	-2.4398866576	-0.034079
C	 2.2929089632	 4.589791599	-1.9777767726	-0.237608
N	 2.8663563159	 3.6647793079	-0.9528666574	-0.157153
H	-0.3371878106	 1.7061797744	 1.3324238858	 0.167834
H	 0.9227502577	 0.5069671445	 1.1599138629	 0.166928
H	 2.2222838645	 1.170684669	-2.2823701914	 0.145617
H	 0.8511223829	 2.2104138513	-2.7123716334	 0.153152
H	 3.7243507455	 3.1927878879	-3.007543897	 0.116288
H	 2.9115067557	 5.4696834378	-2.1182633357	 0.139707
H	 1.2225372973	 4.7802518944	-1.9634441994	 0.131834
31.1899	125.4056	134.9077	242.6169	273.4999	371.4201	393.6839	439.0605	562.7552	618.2031	677.3206	746.7002	794.1446	826.6346	911.7273	928.3818	977.3456	985.9668	1033.8122	1053.6419	1059.5016	1085.876	1113.2283	1149.2385	1179.3409	1234.3955	1263.844	1272.3329	1355.6562	1360.4111	1457.2237	1460.4021	1504.366	1818.1531	2351.156	3031.4523	3060.2711	3082.0769	3117.3074	3133.4592	3193.557	3214.6521
N#CCN=C1CC2CN12	N#CCN=C1C[C@H]2CN12	
InChI=1S/C6H7N3/c7-1-2-8-6-3-5-4-9(5)6/h5H,2-4H2	InChI=1S/C6H7N3/c7-1-2-8-6-3-5-4-9(5)6/h5H,2-4H2/t5-,9?/m0/s1
