18
gdb 72295	2.73279	2.36817	1.60132	2.1089	80.08	-0.2066	-0.0461	0.1605	869.3515	0.148112	-364.680069	-364.673339	-364.672394	-364.710511	28.519	
C	 0.0733517367	 1.4645850578	-0.0034895967	-0.486823
C	-0.0675621644	-0.0452323267	-0.0672575926	 0.324947
C	-0.0219400506	-0.6902024641	-1.5063237422	-0.308188
C	-0.3328514063	-2.1424143532	-1.1502597558	-0.111661
C	-0.8787068441	-2.1347415563	 0.0819532381	 0.041728
C	-0.0564880827	-2.1409555729	 1.3543316785	-0.096134
C	 0.6195379418	-0.7787716003	 1.1487052728	-0.094913
N	-0.668541605	-0.9176315404	 1.923528111	-0.167727
C	-1.3060665283	-0.7283583442	 0.5387037719	-0.067358
H	 1.0857571553	 1.7788536217	-0.2838634508	 0.116974
H	-0.6260349069	 1.9497764886	-0.6938343393	 0.115252
H	-0.1263135562	 1.8390423196	 1.0048523522	 0.135742
H	-0.7328560457	-0.1551389119	-2.1531258202	 0.11185
H	 0.9523165525	-0.6411892565	-2.0078075073	 0.110832
H	 0.2836937537	-2.9519433266	-1.5283106394	 0.101714
H	 0.3765942536	-2.9226030851	 1.9693411237	 0.10097
H	 1.5414623938	-0.49454838	 1.6476281861	 0.092042
H	-2.3269791471	-0.3565821896	 0.46110427	 0.080752
235.6457	245.7338	272.125	337.1823	348.0791	507.1282	552.5628	615.6401	665.2292	748.0373	767.0832	798.8484	814.0089	822.0003	868.8305	882.1401	918.1602	926.1873	965.7869	991.9346	1012.5805	1029.7877	1046.5945	1099.9148	1116.2179	1138.9003	1161.2758	1195.1839	1208.025	1225.5158	1241.2242	1279.3157	1292.4567	1338.4242	1411.3624	1462.9822	1491.6964	1496.3771	1589.3943	2997.0566	3024.9048	3055.6244	3084.3907	3107.6842	3123.524	3155.8716	3171.8132	3173.1445
CC12CC=C3C4C1N4C23	C[C@@]12C[CH][C]3[C@H]4[C@@H]1N4[C@@H]23	
InChI=1S/C8H9N/c1-8-3-2-4-5-7(8)9(5)6(4)8/h2,5-7H,3H2,1H3	InChI=1S/C8H9N/c1-8-3-2-4-5-7(8)9(5)6(4)8/h2,5-7H,3H2,1H3/t5-,6+,7-,8-,9?/m0/s1
