19
gdb 105353	2.2071	1.65107	1.19075	1.5708	75.91	-0.2429	-0.031	0.2119	1106.1607	0.157303	-422.991601	-422.982739	-422.981795	-423.025217	32.909	
C	 0.3884078487	 1.2339728484	-0.025674477	-0.259292
O	 0.2023944756	-0.1578158054	 0.1612446606	-0.291372
C	-1.1402541015	-0.5802818095	 0.0777786228	 0.322884
C	-1.9175481959	-0.4569738343	-1.2788918027	-0.318123
C	-2.0659226819	-1.9801852762	-1.2990675831	-0.02443
C	-0.71131721	-2.6232435915	-1.282181412	-0.290668
C	-1.2828326397	-2.1060493874	 0.0097634916	-0.102719
C	-1.9194548381	-0.051721194	 1.2778832126	 0.098862
O	-3.077747123	 0.273771511	 1.2794174042	-0.245819
H	 1.4581031186	 1.4272677961	 0.0795481513	 0.133914
H	 0.0641058621	 1.558602648	-1.023869004	 0.116678
H	-0.151682495	 1.8330493345	 0.7223938122	 0.115143
H	-2.8566197929	 0.0793890769	-1.1350117988	 0.133507
H	-1.3576602087	-0.0223501906	-2.1117607887	 0.09994
H	-2.9607550865	-2.5146280642	-1.5898941769	 0.09329
H	-0.6998108671	-3.7053407122	-1.3642043122	 0.116011
H	 0.1424313081	-2.1261240761	-1.733165598	 0.120329
H	-1.4571659487	-2.7471251484	 0.8653376022	 0.092681
H	-1.2970607043	-0.0183705153	 2.201942736	 0.089186
88.3121	117.1072	144.0557	186.741	204.3029	274.148	310.6111	386.4029	421.8501	490.6343	585.7421	647.9645	764.9963	794.5072	830.353	892.0017	929.0642	958.5532	980.9988	997.9694	1031.1146	1062.3693	1075.3547	1085.8642	1115.531	1152.7858	1159.6141	1182.4369	1203.5213	1222.4076	1243.3991	1251.2841	1298.7246	1358.2985	1399.0372	1465.4195	1480.5953	1489.4925	1491.9572	1508.0659	1831.2724	2871.617	2989.3846	3041.8761	3059.0076	3122.5613	3122.7168	3131.7843	3182.8328	3198.9883	3212.4632
COC1(CC2CC12)C=O	CO[C@]1(C[C@H]2C[C@@H]12)C=O	
InChI=1S/C7H10O2/c1-9-7(4-8)3-5-2-6(5)7/h4-6H,2-3H2,1H3	InChI=1S/C7H10O2/c1-9-7(4-8)3-5-2-6(5)7/h4-6H,2-3H2,1H3/t5-,6-,7-/m1/s1
