21
gdb 115836	4.20755	0.96402	0.90637	1.6664	78.83	-0.2306	0.0764	0.307	1359.9539	0.182893	-424.211441	-424.20255	-424.201605	-424.245547	33.943	
O	-0.0625828752	 1.3545749877	-0.2815748524	-0.424416
C	-0.0240361708	-0.0618785404	-0.1853039608	-0.086446
C	-1.4264888693	-0.5495401536	 0.1657435541	 0.024499
C	-2.4146893736	-0.2863534514	-0.988190559	-0.107919
O	-2.3407562413	-1.4498227863	-1.8061972225	-0.284879
C	-2.2897919724	-2.5363420012	-0.9125986851	 0.475915
C	-3.5143812877	-3.409596929	-0.796116372	-0.328151
C	-2.2656499788	-3.8964480445	-1.5181727051	-0.344143
C	-1.4738966078	-2.0951097376	 0.3040852164	-0.348723
H	 0.7850727668	 1.6585430962	-0.6180169462	 0.287702
H	 0.2863795163	-0.5216753602	-1.1370814924	 0.098005
H	 0.6864599006	-0.3883922438	 0.5908776214	 0.084274
H	-1.745041691	-0.0422811817	 1.0806850465	 0.0811
H	-3.4374653386	-0.1474804129	-0.6057092986	 0.085331
H	-2.1404151615	 0.5796354716	-1.5930593822	 0.118317
H	-3.7579172913	-3.8471188214	 0.1669404263	 0.106368
H	-4.367558648	-3.1471161034	-1.4116604439	 0.118966
H	-2.3073083897	-3.9526366479	-2.6002832796	 0.123637
H	-1.6565437958	-4.6605658103	-1.0463372328	 0.111045
H	-0.4646245967	-2.5218752294	 0.2814779711	 0.103074
H	-1.9401348044	-2.4113690405	 1.2401405769	 0.106445
37.1797	119.0741	164.0138	240.4547	255.1624	284.7777	297.7649	374.0835	427.3971	489.3265	569.8996	715.5366	768.2045	782.4949	827.9852	859.1218	891.2052	923.8071	936.401	964.952	980.7711	1024.5339	1044.2404	1059.5071	1075.0249	1080.806	1092.9599	1148.2204	1185.9031	1189.6404	1228.5929	1241.382	1252.4389	1272.5269	1294.9327	1307.7844	1366.2784	1371.0693	1383.9021	1448.8847	1452.847	1495.4979	1499.7642	1520.4396	1521.6443	2966.4234	2986.2191	3000.1433	3040.4867	3072.2451	3096.8089	3119.9294	3125.7226	3131.1321	3212.0837	3226.3228	3834.7536
OCC1COC2(CC2)C1	OC[C@H]1COC2(CC2)C1	
InChI=1S/C7H12O2/c8-4-6-3-7(1-2-7)9-5-6/h6,8H,1-5H2	InChI=1S/C7H12O2/c8-4-6-3-7(1-2-7)9-5-6/h6,8H,1-5H2/t6-/m0/s1
