17
gdb 29299	3.96113	1.07982	0.90928	2.8393	76.91	-0.1877	0.0346	0.2223	1271.6648	0.13786	-418.039377	-418.031379	-418.030435	-418.072427	30.659	
O	 0.8946156478	 1.045440137	-0.1869622242	-0.439743
C	 0.3042315939	-0.1702706981	-0.1619294328	 0.343688
C	-0.8143863011	-0.559695112	-0.8486831569	-0.219819
N	-0.9902191293	-1.8872936525	-0.4704241775	-0.30221
C	 0.0006057444	-2.2169137955	 0.3959703914	 0.391393
N	 0.8055585322	-1.18501258	 0.6016516836	-0.405898
C	 0.1306148734	-3.5502756263	 1.0041743246	-0.114552
C	 1.513093705	-4.1131706391	 1.274217348	-0.25539
C	 0.6550291373	-3.672994903	 2.4222814481	-0.25538
H	 1.6544136202	 0.983972013	 0.4041719832	 0.298023
H	-1.471137663	-0.0530360869	-1.5320432301	 0.126174
H	-1.7248792048	-2.4966818099	-0.7872195833	 0.2608
H	-0.6354814373	-4.2580724559	 0.7030294795	 0.076255
H	 1.6660265187	-5.1744976893	 1.1129805613	 0.111746
H	 2.3459548005	-3.4771261611	 0.9985919667	 0.136582
H	 0.9144183597	-2.7427680412	 2.9137779739	 0.136582
H	 0.2098438425	-4.4274265693	 3.0613748647	 0.111749
48.7605	145.3117	153.8199	307.1702	368.3637	372.7835	399.1141	456.7605	504.8447	620.4622	630.4233	699.5198	733.5413	748.8423	796.7251	819.4712	910.1764	916.0631	1006.8313	1026.8212	1067.2628	1088.4924	1094.6256	1118.0552	1120.2479	1176.899	1206.5485	1220.6036	1257.1044	1309.0559	1396.0584	1430.4708	1458.6537	1476.6255	1510.8109	1577.5655	1664.8233	3138.0242	3140.4478	3154.6439	3225.8757	3240.2859	3297.7932	3669.263	3807.307
OC1=CNC(=N1)C1CC1	Oc1c[nH]c(n1)C1CC1	
InChI=1S/C6H8N2O/c9-5-3-7-6(8-5)4-1-2-4/h3-4,9H,1-2H2,(H,7,8)	InChI=1S/C6H8N2O/c9-5-3-7-6(8-5)4-1-2-4/h3-4,9H,1-2H2,(H,7,8)
