21
gdb 76806	2.67117	1.65449	1.35498	1.677	83.79	-0.2255	0.0717	0.2972	1058.5184	0.181587	-386.969255	-386.961001	-386.960057	-387.001383	33.341	
C	-0.4852868236	 1.5161717841	-0.031776727	-0.40319
C	-0.0734187459	 0.052359961	 0.054735171	-0.024106
C	 1.0707926614	-0.4934674691	-0.9412262012	-0.109399
C	 1.5165029483	 0.320819677	-2.1435880804	-0.40903
C	 1.9681718921	-0.5285316773	 0.304319852	 0.380166
C	 2.9262308156	-1.016996336	 1.4219246313	-0.315538
C	 2.024304557	 0.1815653476	 1.9371653618	 0.023611
O	 2.3217764343	 0.8841028104	 0.6915353459	-0.335946
C	 0.7843499558	-0.4793117215	 1.2725157901	-0.060125
H	 0.3715065428	 2.1812207822	 0.0699891722	 0.142798
H	-0.9830028187	 1.7247401209	-0.9860467323	 0.105715
H	-1.1983834266	 1.7509858428	 0.7664932395	 0.109409
H	-0.9705013057	-0.5683528227	-0.0319214803	 0.072946
H	 0.805111621	-1.5136914732	-1.2384688542	 0.080979
H	 1.8561423506	 1.3134582263	-1.8389447616	 0.140952
H	 2.3423868393	-0.1747085963	-2.6651729344	 0.115709
H	 0.6959419528	 0.4414351292	-2.8590492257	 0.113688
H	 2.7475740033	-2.0161845592	 1.8278202691	 0.100141
H	 3.9858380163	-0.7745408718	 1.3229607861	 0.109807
H	 2.1377467688	 0.7407533847	 2.8706259124	 0.08956
H	 0.4250647112	-1.4122751293	 1.7109222661	 0.071852
155.7614	203.4954	207.295	226.4231	237.3767	253.8817	402.9098	492.0979	506.5361	542.5927	629.7526	681.9554	718.7569	724.3889	790.4772	831.545	875.9146	914.6239	945.3654	994.8268	1008.0755	1023.4341	1026.7887	1043.0038	1063.4428	1098.4701	1113.8729	1155.471	1160.3738	1172.9139	1191.8303	1216.5565	1236.1698	1246.3354	1284.1556	1324.7837	1361.4756	1368.0487	1402.6993	1409.3545	1481.7821	1482.8816	1494.2089	1499.3236	1518.1239	3029.9338	3035.1277	3043.7753	3055.7846	3058.4462	3067.4706	3084.9075	3092.4629	3095.5754	3126.1657	3142.6834	3155.785
CC1C(C)C23CC(O2)C13	C[C@H]1[C@@H](C)[C@@]23C[C@@H](O2)[C@@H]13	
InChI=1S/C8H12O/c1-4-5(2)8-3-6(9-8)7(4)8/h4-7H,3H2,1-2H3	InChI=1S/C8H12O/c1-4-5(2)8-3-6(9-8)7(4)8/h4-7H,3H2,1-2H3/t4-,5+,6+,7+,8+/m0/s1
