17
gdb 5573	3.17462	1.76453	1.22735	0.7938	70.84	-0.1773	0.056	0.2333	997.7957	0.142367	-363.901127	-363.892747	-363.891803	-363.934349	30.749	
C	 0.0692124196	 1.5553543295	 0.13617217	-0.355744
C	-0.0115756608	 0.0388194724	-0.1121939637	-0.316659
C	-1.4051045228	-0.5159582862	-0.0469225777	 0.153112
C	-2.1925567242	-0.9000208266	-1.1096883528	 0.28715
O	-1.9857684566	-0.9320900578	-2.4538616014	-0.437915
N	-3.4034221398	-1.327878998	-0.6490920212	-0.28928
C	-3.4233026247	-1.2288283638	 0.7305314666	-0.095434
C	-2.2093194629	-0.731966728	 1.1226125266	-0.230144
H	 1.1044584874	 1.9109817884	 0.0952792259	 0.104224
H	-0.5131184834	 2.1061653672	-0.6094444505	 0.11293
H	-0.3373784533	 1.8078105501	 1.1203854922	 0.121394
H	 0.4369747085	-0.1861919512	-1.091473851	 0.07046
H	 0.626787701	-0.4766204975	 0.6169292466	 0.107818
H	-1.092116308	-0.6195257872	-2.6257173936	 0.304109
H	-4.1412786274	-1.6711519715	-1.2381573232	 0.263402
H	-4.2939257927	-1.5220374888	 1.2927194652	 0.113703
H	-1.9061854299	-0.539667461	 2.141288342	 0.086873
38.4575	137.9177	191.9529	199.7544	268.839	286.7868	380.4595	422.1855	467.311	613.927	630.8016	643.7009	708.5669	732.2573	780.7556	812.3909	908.8845	968.0419	1029.3321	1076.2543	1090.0134	1098.1358	1165.4008	1209.6469	1268.6726	1300.8057	1347.2688	1369.4621	1407.1645	1416.5787	1482.9461	1494.2067	1505.6881	1529.4132	1555.6793	1646.8329	2990.2462	3031.1385	3033.1636	3100.9103	3108.1644	3237.4927	3277.3765	3688.8795	3837.9096
CCC1=C(O)NC=C1	CCc1c(O)[nH]cc1	
InChI=1S/C6H9NO/c1-2-5-3-4-7-6(5)8/h3-4,7-8H,2H2,1H3	InChI=1S/C6H9NO/c1-2-5-3-4-7-6(5)8/h3-4,7-8H,2H2,1H3
