14
gdb 133024	3.85424	1.19274	0.91605	4.5782	70.53	-0.2359	-0.0622	0.1737	1182.6063	0.09985	-477.997011	-477.989112	-477.988168	-478.030384	28.189	
C	-0.0007152295	 1.4353648412	-0.0146661227	-0.316868
N	-0.0083476164	-0.015184715	 0.0173525119	-0.297784
C	 0.527567233	-0.6607918625	-0.9182007631	 0.455539
O	 1.1367097019	 0.0641963135	-2.001402804	-0.233607
C	 1.7122911267	-0.5958636712	-3.006712792	 0.116349
C	 1.7579868897	-1.9391698556	-3.0696782492	-0.32883
C	 1.133310181	-2.6031256633	-1.9613772461	 0.343464
F	 1.1568083022	-3.9262705677	-1.9851518701	-0.055497
N	 0.5667856237	-2.0365908576	-0.970407898	-0.342421
H	 1.0192109267	 1.8423505558	-0.0309219743	 0.120663
H	-0.5191821901	 1.830909119	-0.8983593685	 0.120738
H	-0.5066752968	 1.8106375142	 0.8774068806	 0.126027
H	 2.1306632367	 0.0718021183	-3.752312049	 0.154334
H	 2.2236366512	-2.4743037691	-3.8827669656	 0.137892
51.8206	96.4896	164.2933	210.5077	315.9457	387.526	395.1967	506.7958	523.2293	625.3186	698.7672	704.7157	754.7299	782.2188	837.1853	971.2996	974.8269	1014.4558	1093.6282	1111.0541	1140.7771	1232.982	1281.5944	1318.2152	1438.8341	1464.4571	1484.3329	1500.5646	1612.492	1725.3972	1783.6536	3001.7932	3051.8691	3111.809	3201.8891	3258.4042
CN=C1OC=CC(F)=N1	C[N]C1=NC(=CCO1)F	
InChI=1S/C5H5FN2O/c1-7-5-8-4(6)2-3-9-5/h2-3H,1H3	InChI=1S/C5H6FN2O/c1-7-5-8-4(6)2-3-9-5/h2H,3H2,1H3
