18
gdb 23076	2.95975	1.25512	1.19446	1.5242	74.13	-0.2392	-0.0019	0.2373	1111.9062	0.147595	-439.037039	-439.028617	-439.027673	-439.070081	32.274	
O	-0.0831432351	 1.3556072032	 0.2020453393	-0.390206
N	 0.063843786	-0.0373778552	 0.0966242949	-0.212407
C	-1.0624387793	-0.6169106147	-0.0410597102	 0.333058
C	-2.4316539462	 0.0161185283	-0.1856371431	-0.309257
C	-3.2673970766	-1.0482457559	-0.8815263053	-0.112127
C	-2.7202690628	-1.6108382208	-2.1705494544	 0.132839
O	-1.7246024457	-0.9965322738	-2.9366381507	-0.431901
C	-2.4732824221	-2.3645076095	-0.8905751726	-0.107317
C	-1.1525865364	-2.126404209	-0.1723342931	-0.307495
H	 0.8312950683	 1.6531401398	 0.2573927538	 0.307917
H	-2.8436168585	 0.2544533585	 0.8030372312	 0.127252
H	-2.3624792039	 0.9593014415	-0.7355052498	 0.138984
H	-4.3412882026	-1.0357023723	-0.7320162284	 0.085964
H	-3.4535000724	-2.048508465	-2.840477397	 0.105812
H	-0.9824431239	-0.7485699173	-2.375255174	 0.297894
H	-2.9608341875	-3.3223173221	-0.7467984568	 0.087136
H	-0.2784124801	-2.5418090971	-0.6832195026	 0.127454
H	-1.1874895612	-2.5840493286	 0.8246180187	 0.126401
71.554	147.1743	193.8961	225.8127	243.0441	301.7591	388.8541	454.1604	481.0401	530.3232	578.74	682.2803	706.4268	769.2456	779.2294	820.2329	890.7437	900.8009	978.2205	1002.0173	1034.2098	1039.3481	1050.1437	1080.4194	1108.6007	1173.5092	1199.079	1205.2079	1218.5859	1283.3652	1292.6524	1328.663	1333.6127	1377.3996	1405.1657	1457.6815	1468.195	1482.7764	1744.2914	3027.6841	3035.5265	3080.3995	3087.6287	3160.2864	3163.9485	3176.5831	3807.9597	3818.1589
ON=C1CC2C(O)C2C1	ON=C1C[C@H]2[C@@H](O)[C@H]2C1	
InChI=1S/C6H9NO2/c8-6-4-1-3(7-9)2-5(4)6/h4-6,8-9H,1-2H2	InChI=1S/C6H9NO2/c8-6-4-1-3(7-9)2-5(4)6/h4-6,8-9H,1-2H2/t4-,5+,6-
