23
gdb 58948	2.51101	1.35156	1.11377	1.4378	85.59	-0.2282	0.073	0.3012	1247.5311	0.204226	-388.26236	-388.252486	-388.251542	-388.296778	37.348	
C	 0.1385905692	 1.4540775355	 0.0712275011	-0.388478
C	-0.0854221157	-0.0643644707	-0.0365990369	-0.076938
C	-1.5799478875	-0.4067898623	-0.1276061327	-0.390806
C	 0.6764618463	-0.6158602612	-1.2096731044	 0.486513
O	 0.2548037062	-0.190123706	-2.5225231728	-0.33044
C	 0.4424509758	-1.5355745246	-3.0356387164	-0.096403
C	 1.0145298291	-2.0110507052	-1.7086371203	-0.229449
C	 2.1114789441	-1.0578132702	-1.2484959819	-0.077062
C	 3.164625764	-0.4547654017	-2.1514076081	-0.421678
H	 1.1998342825	 1.6908670194	 0.1949847393	 0.113307
H	-0.2158120819	 1.9578747464	-0.8335664974	 0.134169
H	-0.4057152728	 1.8680018326	 0.925861116	 0.10723
H	 0.3314655083	-0.5413595456	 0.8606911123	 0.074536
H	-2.0115614524	 0.0141387308	-1.0404091664	 0.131082
H	-1.736810922	-1.4900376406	-0.1476401702	 0.108333
H	-2.1262636111	-0.000466366	 0.7293890621	 0.106399
H	-0.5244740546	-1.9892339646	-3.2812839769	 0.107649
H	 1.0920630301	-1.5569455778	-3.9189607789	 0.101455
H	 0.8475105964	-2.9812995358	-1.2588446993	 0.092478
H	 2.4707727165	-1.3419338796	-0.2602537128	 0.084031
H	 2.7089620036	-0.0121897759	-3.0402801556	 0.13536
H	 3.7083782492	 0.3409933681	-1.6312025511	 0.115698
H	 3.8963407469	-1.204513685	-2.4713386987	 0.113013
62.9803	127.0923	174.3198	188.5214	216.9386	249.0196	260.2334	272.9453	311.75	338.5552	455.5138	503.2403	582.953	670.2576	748.641	810.7332	859.3381	912.1141	925.7501	938.8605	963.6745	970.086	976.1362	987.4529	1020.4588	1061.7899	1098.1584	1117.3881	1136.0094	1147.2377	1169.3001	1190.7454	1201.339	1258.2496	1306.6474	1331.1937	1341.5805	1366.9786	1393.6204	1410.6958	1416.0056	1471.5492	1486.1098	1493.0442	1494.1832	1501.3345	1505.8037	1518.9637	1522.7838	3017.5752	3021.7014	3033.8999	3034.5374	3037.7929	3067.1817	3091.1974	3102.4196	3106.2688	3110.0438	3115.1629	3116.9452	3130.0959	3191.6923
CC(C)C12OCC1C2C	CC(C)[C@]12OC[C@H]1[C@H]2C	
InChI=1S/C8H14O/c1-5(2)8-6(3)7(8)4-9-8/h5-7H,4H2,1-3H3	InChI=1S/C8H14O/c1-5(2)8-6(3)7(8)4-9-8/h5-7H,4H2,1-3H3/t6-,7+,8-/m1/s1
