20
gdb 81445	2.59449	1.68446	1.36339	1.8403	77.82	-0.2364	0.0752	0.3116	1030.6111	0.172491	-403.098324	-403.090593	-403.089649	-403.130205	31.2	
C	-0.1973936835	 1.628681421	-0.0245083929	-0.429641
C	 0.0250769801	 0.1265090651	 0.0199872272	 0.031507
C	 1.1805749547	-0.5975115746	-0.7245604117	 0.056442
C	 2.4735651085	 0.0973538082	-0.2408908729	-0.330502
C	 2.1162090265	 0.0885024232	 1.2600798402	 0.391632
C	 3.0734753271	-0.0683418553	 2.37071174	-0.315063
N	 2.3239218806	 1.1979746864	 2.1928693454	-0.378145
C	 0.7538905576	-0.5987876095	 1.1820600784	-0.003549
O	 1.0548032488	-1.6857200414	 0.2460825647	-0.300397
H	 0.7036204137	 2.1971026091	 0.2151472855	 0.122504
H	-0.5417040738	 1.9368691936	-1.0179911119	 0.115266
H	-0.9672601241	 1.9226174881	 0.6962654805	 0.126113
H	-0.899862547	-0.4168819329	-0.1903821294	 0.086281
H	 1.1154211847	-0.9146491987	-1.7656654593	 0.0775
H	 3.3557303163	-0.502470274	-0.4761145608	 0.113994
H	 2.6079332265	 1.1035299002	-0.6512641999	 0.099593
H	 2.8029243579	-0.638515427	 3.2558424275	 0.119116
H	 4.1342311689	-0.0807558104	 2.1325437996	 0.110944
H	 2.9317556774	 1.8988528875	 1.7750338071	 0.228293
H	 0.2706887391	-0.9075670087	 2.1086054326	 0.078111
123.4103	175.2122	217.1785	267.0122	315.5029	337.7662	437.4208	488.1848	576.7617	600.0261	727.5748	789.9415	815.5331	863.2256	870.8505	885.8129	908.0578	938.0118	944.1465	971.6081	983.2057	1013.4927	1057.1105	1065.7475	1081.4165	1124.3995	1149.6165	1158.817	1189.3785	1202.8025	1243.5801	1259.3709	1264.1761	1292.047	1301.3753	1331.6606	1388.3743	1415.4139	1427.0082	1477.1212	1493.7773	1499.5259	1517.7383	3038.3604	3050.4955	3077.7317	3097.4901	3101.8039	3106.0675	3118.8714	3127.9453	3130.6756	3185.9097	3489.018
CC1C2CC3(CN3)C1O2	C[C@H]1[C@H]2C[C@]3(CN3)[C@@H]1O2	
InChI=1S/C7H11NO/c1-4-5-2-7(3-8-7)6(4)9-5/h4-6,8H,2-3H2,1H3	InChI=1S/C7H11NO/c1-4-5-2-7(3-8-7)6(4)9-5/h4-6,8H,2-3H2,1H3/t4-,5+,6+,7-/m0/s1
