15
gdb 132016	2.30792	1.86807	1.03511	6.0081	75.76	-0.1885	-0.0041	0.1844	1069.1876	0.114451	-458.119086	-458.111271	-458.110327	-458.151097	30.31	
N	 0.0684998239	 1.4089411533	 0.1418485052	-0.589464
C	 0.0048088261	 0.0157100119	 0.0393605793	 0.263859
C	-1.1460893005	-0.7011771217	 0.0365633939	 0.163935
F	-2.3007755371	-0.0157624372	 0.0470237579	-0.083828
C	-1.2005709958	-2.1532329065	 0.0149462627	 0.203909
N	-2.3375419815	-2.7643173155	 0.01888312	-0.567349
C	 0.1339910956	-2.7548924902	-0.0319313095	-0.211035
C	 1.2611519077	-2.0148699937	-0.0309219098	 0.006353
N	 1.2191446522	-0.6403675138	-0.0197739656	-0.393147
H	 0.5846753702	 1.8371088044	-0.6198464255	 0.252057
H	-0.8639013583	 1.8017460411	 0.1793363124	 0.266273
H	-2.1837110556	-3.7738843295	-0.0162305305	 0.197257
H	 0.2083716096	-3.8356994229	-0.0692175394	 0.100458
H	 2.2538406283	-2.4472046712	-0.052768482	 0.128397
H	 2.0410186551	-0.1142331884	 0.2292237906	 0.262327
123.6932	191.6461	271.9139	298.3025	302.0548	320.7427	404.1448	495.178	510.6778	521.5657	557.4393	587.0249	691.3921	715.3275	785.2344	814.7381	855.4623	860.3353	932.852	1017.2477	1063.0105	1154.0587	1213.2752	1235.6776	1272.0788	1342.1772	1412.0449	1434.417	1545.0672	1624.645	1641.0659	1681.7124	1733.2023	3192.6968	3215.2354	3444.9793	3513.2565	3617.0898	3645.3827
NC1=C(F)C(=N)C=CN1	N[C@@H]1C(=C([NH])C=CN1)F	
InChI=1S/C5H6FN3/c6-4-3(7)1-2-9-5(4)8/h1-2H,(H4,7,8,9)	InChI=1S/C5H7FN3/c6-4-3(7)1-2-9-5(4)8/h1-2,5,7,9H,8H2/t5-/m0/s1
