16
gdb 20858	5.41776	1.27467	1.10187	3.5547	68.28	-0.2136	0.0191	0.2327	1084.6327	0.131009	-379.92956	-379.921638	-379.920694	-379.962108	29.135	
C	 0.0344867486	 1.4257158434	-0.458495016	-0.37418
C	-0.0816673467	 0.1006650372	 0.3115656438	-0.291313
C	-1.4314368609	-0.5379513309	 0.175110415	 0.416909
N	-2.1991346397	-0.6566228173	 1.2331287994	-0.227652
O	-3.3827689002	-1.2762604481	 0.7622272503	-0.21709
C	-3.2608461643	-1.4947332387	-0.551872884	 0.489256
N	-4.3578282276	-2.0402356819	-1.175328733	-0.593397
C	-2.0470486766	-1.0544722339	-1.0000054661	-0.43645
H	 1.0324662924	 1.8566345725	-0.3345091906	 0.1159
H	-0.1395602154	 1.2822054511	-1.5294885561	 0.118122
H	-0.6987671697	 2.1516096706	-0.0950695505	 0.131158
H	 0.6827869278	-0.5994561257	-0.0472608494	 0.110394
H	 0.1080902249	 0.2652641146	 1.3761688807	 0.126024
H	-4.9682319104	-2.5549905461	-0.556280205	 0.266442
H	-4.1542896949	-2.5408308415	-2.0270101073	 0.264225
H	-1.6572004171	-1.0890539555	-2.0031409511	 0.101653
56.7407	130.1139	202.2968	259.8949	269.2288	319.8401	417.0029	447.0341	573.5068	601.4946	685.7609	724.017	755.2682	758.3951	796.0279	902.1441	967.496	1013.9589	1035.749	1074.1804	1087.6624	1097.8227	1191.2999	1279.9338	1348.6663	1375.5164	1409.4384	1479.3375	1481.2999	1497.6105	1509.5798	1545.9547	1625.5908	1672.0746	3034.2611	3039.797	3087.9684	3111.9063	3117.8921	3273.9289	3571.6403	3676.7909
CCC1=NOC(N)=C1	CCc1noc(N)c1	
InChI=1S/C5H8N2O/c1-2-4-3-5(6)8-7-4/h3H,2,6H2,1H3	InChI=1S/C5H8N2O/c1-2-4-3-5(6)8-7-4/h3H,2,6H2,1H3
