20
gdb 83313	2.64787	1.31088	1.12193	2.9197	79.65	-0.2286	-0.023	0.2057	1167.9355	0.171204	-403.134393	-403.12572	-403.124776	-403.168112	32.334	
C	 0.2530577021	 1.6425525201	-0.1095888562	-0.323654
N	 0.1303960656	 0.2035989512	 0.0361322149	-0.076066
C	 1.1226805854	-0.7605252487	-0.3932378654	-0.031647
C	 2.5800977253	-0.3455100375	-0.5506293352	-0.235263
C	 3.0079025412	 0.277557927	 0.8033928325	-0.26834
C	 1.9803555976	-0.2158888971	 1.8564966392	-0.065522
C	 1.6863940706	 0.807596701	 2.9318646145	 0.151953
O	 1.7335049024	 0.59261736	 4.1157689066	-0.251153
C	 0.7372459484	-0.6327387596	 1.0543130058	-0.070213
H	 1.2690334232	 2.0538252697	-0.0375005319	 0.103615
H	-0.1475720532	 1.9222024571	-1.0898745671	 0.127266
H	-0.3661786992	 2.1286616053	 0.6507261537	 0.130921
H	 0.7525448135	-1.5638976637	-1.0270757854	 0.090513
H	 3.1718566945	-1.2407243334	-0.7702309703	 0.110759
H	 2.7346443967	 0.3459216642	-1.386377258	 0.108067
H	 4.0239915302	-0.0098642588	 1.0846821359	 0.116432
H	 3.0035457984	 1.3709998859	 0.7508217998	 0.112992
H	 2.3444405919	-1.1122919237	 2.3706071559	 0.0969
H	 1.4079552917	 1.8159227354	 2.5462077221	 0.071389
H	 0.0543327437	-1.3182617145	 1.5510299386	 0.101051
60.4445	114.1534	152.8845	192.4719	236.5654	281.3908	331.3792	418.7753	447.1723	507.525	690.7412	709.9665	727.2646	808.1478	817.8786	895.3249	912.0627	961.2978	998.0065	1011.9365	1039.5073	1076.1994	1102.2183	1120.1809	1135.8917	1155.606	1175.5359	1197.3452	1235.4459	1276.8412	1295.7251	1313.5832	1323.277	1338.4157	1356.9972	1409.5196	1434.5678	1461.7347	1483.8101	1486.921	1501.1852	1516.2835	1828.8894	2861.8293	3004.514	3040.5459	3049.0933	3053.0522	3068.2831	3074.5806	3099.5421	3101.1909	3121.7806	3134.3963
CN1C2CCC(C=O)C12	CN1[C@H]2CC[C@@H](C=O)[C@@H]12	
InChI=1S/C7H11NO/c1-8-6-3-2-5(4-9)7(6)8/h4-7H,2-3H2,1H3	InChI=1S/C7H11NO/c1-8-6-3-2-5(4-9)7(6)8/h4-7H,2-3H2,1H3/t5-,6-,7+,8?/m0/s1
