15
gdb 49692	2.40363	1.35777	1.00662	4.6148	72.76	-0.2439	-0.0442	0.1997	1153.7942	0.112725	-416.774093	-416.766091	-416.765146	-416.807164	29.117	
O	-0.0099345149	 0.054887843	-0.4008215195	-0.254337
C	-0.0096303732	 1.2041710769	-0.0342834068	 0.153502
C	 1.2352787129	 2.0250430058	 0.0250276125	-0.159471
C	 1.2586103175	 3.5155589208	-0.1514834895	-0.068728
N	 0.006727563	 4.1005878555	 0.3460933015	-0.325594
C	 0.3680759077	 3.6994739116	 1.744258938	-0.235861
C	 1.59600935	 2.9311192916	 1.2227375792	 0.141279
C	 2.8324597673	 2.7862648324	 1.9094479104	 0.200889
N	 3.8375028569	 2.6858312159	 2.4759772667	-0.341615
H	-0.9419507878	 1.7221093406	 0.2601551623	 0.106905
H	 2.107455227	 1.5111009396	-0.3664222469	 0.137226
H	 1.897341409	 4.0061382647	-0.8759029226	 0.132637
H	-0.0050114584	 5.1083347613	 0.2422320164	 0.243082
H	 0.6802092929	 4.5450324438	 2.3619571099	 0.138637
H	-0.4024134599	 3.1285486065	 2.2693374785	 0.131448
77.5664	130.0098	166.2965	207.1208	227.3092	360.8007	431.1208	500.0638	528.503	559.1737	605.233	734.4416	776.5652	853.9813	912.3178	963.8708	995.0122	1010.4934	1047.9173	1053.2932	1068.5065	1118.2934	1148.1406	1206.6584	1240.9404	1264.6376	1334.9412	1359.3093	1414.3595	1457.2141	1511.541	1813.5657	2342.803	2955.3225	3059.7225	3113.8573	3179.4842	3197.632	3552.3498
O=CC1C2NCC12C#N	O=C[C@H]1[C@H]2NC[C@@]12C#N	
InChI=1S/C6H6N2O/c7-2-6-3-8-5(6)4(6)1-9/h1,4-5,8H,3H2	InChI=1S/C6H6N2O/c7-2-6-3-8-5(6)4(6)1-9/h1,4-5,8H,3H2/t4-,5+,6-/m0/s1
