19
gdb 111371	2.02447	1.77736	1.14525	1.109	81.44	-0.2383	0.0446	0.2829	1128.8899	0.157852	-385.813484	-385.80461	-385.803666	-385.846976	33.546	
C	-0.152427305	 1.318567555	-0.0175984162	-0.245919
O	 0.3235360307	-0.0035077726	 0.1439823763	-0.236868
C	 0.740225425	-0.6000464563	-1.0457015829	 0.136858
C	 1.3794636478	-1.9660559689	-0.8732257945	-0.088831
C	 0.3715516616	-2.9635774874	-0.3708790653	-0.282784
C	 0.3590103736	-2.5980382799	-1.8235118914	-0.044899
C	-0.3517095273	-1.2456479257	-2.0252783438	-0.27502
C	-1.7531267354	-1.1584417705	-1.6652843871	 0.358539
C	-2.9147520623	-1.0906092046	-1.3584879009	-0.461635
H	 0.6248884457	 1.9739956013	-0.4410502029	 0.100963
H	-1.0385981495	 1.3570204528	-0.663692578	 0.122234
H	-0.4217651565	 1.6859629878	 0.9752521165	 0.127099
H	 1.3753146316	 0.0884997525	-1.6218209373	 0.068799
H	 2.4458611843	-2.1394135213	-0.802838316	 0.088798
H	 0.777969994	-3.9436868009	-0.1443934535	 0.112292
H	-0.4351561207	-2.645359787	 0.2813459308	 0.134593
H	 0.5253334714	-3.3193599014	-2.6131009745	 0.093283
H	-0.2021576061	-0.861277596	-3.0385881089	 0.099129
H	-3.940243243	-1.0342558469	-1.0891484903	 0.193369
98.3004	117.0506	145.0835	177.7081	192.5803	287.4339	364.3137	374.2677	491.8117	574.183	590.4043	620.4305	626.1495	735.7691	774.2917	799.6511	824.3535	925.0357	979.8668	993.6197	1022.3964	1044.7521	1059.1171	1064.9956	1074.3609	1087.0029	1139.7124	1167.8534	1182.4312	1204.6195	1242.6165	1267.2447	1304.0584	1336.31	1367.7098	1392.3275	1479.8088	1489.0866	1492.8513	1508.9795	2227.0563	2979.6237	2993.55	3052.2329	3060.5697	3120.3295	3131.0777	3186.8047	3196.8589	3218.0962	3502.4699
COC1C2CC2C1C#C	CO[C@H]1[C@H]2C[C@H]2[C@H]1C#C	
InChI=1S/C8H10O/c1-3-5-6-4-7(6)8(5)9-2/h1,5-8H,4H2,2H3	InChI=1S/C8H10O/c1-3-5-6-4-7(6)8(5)9-2/h1,5-8H,4H2,2H3/t5-,6+,7+,8-/m1/s1
