12
gdb 21510	5.3196	1.68629	1.28941	5.528	55.97	-0.2679	-0.0383	0.2296	852.0498	0.085969	-410.884933	-410.878307	-410.877363	-410.916156	23.905	
N	-0.0166448034	 1.3730037072	-0.0111336987	-0.558934
C	 0.0806043035	 0.0165102418	-0.1141527704	 0.492629
O	 1.1034764559	-0.5980629732	-0.2848439185	-0.348497
N	-1.1742132723	-0.6575421136	-0.0386013085	-0.119217
C	-2.4721506449	-0.193818059	-0.0953584133	 0.029367
N	-3.3192999655	-1.1754553001	 0.0033086922	-0.215207
N	-2.5811990479	-2.3478373901	 0.132987131	-0.227738
C	-1.3228177554	-2.0201526202	 0.0973933926	 0.063486
H	 0.8649654693	 1.8585646612	 0.041367571	 0.283073
H	-0.7977825127	 1.8012236693	 0.4570314772	 0.274282
H	-2.7309185957	 0.8427952606	-0.2421824479	 0.149163
H	-0.4751290809	-2.681495954	 0.1654486333	 0.177592
74.7006	158.2818	216.7077	379.161	419.6637	517.5683	528.6571	634.4553	680.6238	687.1504	772.9284	821.0522	881.5293	951.0468	995.3703	1060.89	1103.9926	1160.2654	1234.6329	1305.2949	1329.1774	1412.845	1519.8444	1539.1391	1625.0144	1843.9143	3268.1309	3293.8589	3599.3319	3720.9946
NC(=O)N1C=NN=C1	NC(=O)n1cnnc1	
InChI=1S/C3H4N4O/c4-3(8)7-1-5-6-2-7/h1-2H,(H2,4,8)	InChI=1S/C3H4N4O/c4-3(8)7-1-5-6-2-7/h1-2H,(H2,4,8)
