18
gdb 69069	2.58727	1.64358	1.21503	1.2616	84.2	-0.2251	0.0098	0.2348	1065.6903	0.146909	-364.769084	-364.760743	-364.759798	-364.801416	32.991	
C	-0.0454175162	 1.5622890032	-0.0079742138	-0.494947
C	 0.0922219673	 0.0636262306	-0.0185042559	 0.239042
N	-0.7243197917	-0.7713029301	 0.8996245368	-0.403105
C	 0.7600425641	-0.7466313073	 1.0681699293	 0.129873
C	 1.4529045923	-1.943573763	 0.4086181836	-0.329785
C	 1.1103605371	-1.7745360534	-1.0553038846	-0.082977
C	 0.3949001582	-0.6742425861	-1.2873255288	-0.09554
C	 1.3135596443	-0.1530797228	 2.245034652	 0.193121
C	 1.7826954635	 0.330514889	 3.2428956491	-0.402903
H	 0.7834874502	 2.0337057552	-0.5458577677	 0.130209
H	-0.9783586453	 1.8702913382	-0.4936764263	 0.126284
H	-0.0458184008	 1.9484615398	 1.015354102	 0.129382
H	-1.118232154	-0.1676491177	 1.6221468159	 0.227554
H	 2.5351335963	-1.9171093702	 0.5840029907	 0.118165
H	 1.0803844609	-2.8903372189	 0.8160885547	 0.126735
H	 1.4083250817	-2.4994663915	-1.8041262524	 0.100098
H	 0.0345471038	-0.3396110834	-2.2531627074	 0.099257
H	 2.1960720283	 0.7572896584	 4.1228991628	 0.189536
132.9944	142.9045	191.651	237.6191	282.2056	342.2445	420.9567	477.5304	508.5801	539.6981	576.9081	587.3381	655.1889	661.0758	719.6145	745.4087	778.0701	881.3111	930.2377	953.4117	954.0236	992.2335	1042.4626	1051.8261	1089.0284	1112.4946	1148.9639	1186.8767	1257.5611	1302.1986	1330.9487	1377.2634	1394.4653	1419.083	1462.9378	1485.8054	1497.9183	1674.4805	2229.6973	3031.2569	3034.3107	3071.5435	3094.4718	3113.9271	3188.78	3213.224	3461.2239	3501.8366
CC12NC1(CC=C2)C#C	C[C@]12N[C@]1(CC=C2)C#C	
InChI=1S/C8H9N/c1-3-8-6-4-5-7(8,2)9-8/h1,4-5,9H,6H2,2H3	InChI=1S/C8H9N/c1-3-8-6-4-5-7(8,2)9-8/h1,4-5,9H,6H2,2H3/t7-,8+/m1/s1
