17
gdb 8291	6.03787	0.96784	0.91694	1.7703	65.96	-0.2373	-0.0293	0.208	1239.3114	0.140393	-400.968705	-400.960356	-400.959412	-401.002505	29.557	
O	 0.092268797	 1.53628581	 0.0784743913	-0.43391
C	 0.1310097778	 0.1334576492	-0.0018934685	 0.148953
C	 0.2251273785	-0.6069969882	 1.3597079974	-0.203835
N	-1.2436986208	-0.7782860897	 1.3177035113	-0.099482
C	-1.8361743278	-1.9768882077	 1.8602768466	-0.238452
C	-3.3517224642	-1.865194361	 1.9248252394	 0.158506
O	-4.110060749	-2.787772851	 1.7848628128	-0.233329
C	-1.2480018626	-0.5627189934	-0.1482268291	-0.209242
H	-0.5741130228	 1.7721385326	 0.7342559682	 0.288464
H	 0.887051178	-0.1118109846	-0.7477747382	 0.097934
H	 0.780968524	-1.5550704089	 1.2814714386	 0.092537
H	 0.6049109406	-0.0335061935	 2.2123100082	 0.106749
H	-1.5684685798	-2.9029068069	 1.3206053197	 0.106058
H	-1.4918921698	-2.0932727251	 2.899147713	 0.131864
H	-3.7088949465	-0.8311431314	 2.1339235901	 0.082302
H	-2.0727932562	 0.0460273377	-0.5336356901	 0.109429
H	-1.1874758863	-1.4997169582	-0.7252156406	 0.095454
59.113	69.3597	103.622	188.1316	307.4443	348.8617	385.8299	421.6218	443.2881	477.4549	704.8897	793.5824	844.0315	858.0304	935.1253	1002.2938	1007.8931	1019.4584	1063.4775	1124.6439	1130.458	1141.5022	1178.8267	1226.9589	1239.1802	1262.8193	1284.232	1318.491	1327.2294	1350.9004	1405.2861	1441.6813	1455.25	1490.5989	1518.7013	1840.7053	2880.6063	2950.3942	2971.1008	2980.4592	3022.0597	3064.9431	3067.5807	3119.3688	3797.8719
OC1CN(CC=O)C1	OC1CN(CC=O)C1	
InChI=1S/C5H9NO2/c7-2-1-6-3-5(8)4-6/h2,5,8H,1,3-4H2	InChI=1S/C5H9NO2/c7-2-1-6-3-5(8)4-6/h2,5,8H,1,3-4H2
