16
gdb 8634	2.47803	1.74752	1.38735	4.4596	70.66	-0.2681	0.0021	0.2702	977.3661	0.128189	-342.75035	-342.741127	-342.740183	-342.783715	33.328	
C	-0.0876804654	 1.5456760723	 0.0926352716	-0.415843
C	-0.0047913262	 0.0232771489	-0.0182849802	-0.186989
C	 0.7635270052	-0.4907294505	-1.2820864553	-0.1351
N	 2.1616374452	-0.0393678521	-1.3943715296	-0.5177
C	 0.7479571668	-1.9603118448	-1.2720358896	 0.381542
C	 0.7343843812	-3.1583769216	-1.2046797329	-0.437312
C	 0.0484044851	-0.0121210787	-2.4915492179	 0.326823
N	-0.5317783797	 0.3991791731	-3.401447492	-0.343492
H	 0.9029825509	 2.0040545012	 0.177945817	 0.113535
H	-0.5939820369	 1.9820709976	-0.7735409162	 0.15007
H	-0.6513426225	 1.8248771209	 0.9869572842	 0.128231
H	 0.5115343259	-0.4016040568	 0.8495878772	 0.111119
H	-1.0099298465	-0.4104237216	-0.0336026071	 0.128787
H	 2.2001823848	 0.9747001469	-1.3507725423	 0.244352
H	 2.6861553627	-0.4047926186	-0.6047602612	 0.241613
H	 0.7236548093	-4.2202048061	-1.1689013055	 0.210363
103.2529	128.7875	147.3867	181.995	205.884	239.8891	289.853	319.8505	405.4942	484.7737	515.3589	569.7751	593.862	650.8224	676.16	682.9631	788.7889	840.8023	949.715	973.095	1030.3279	1065.6467	1112.2446	1190.6685	1288.9859	1330.0267	1368.1935	1414.8653	1477.9808	1500.8305	1506.4421	1642.9484	2247.7293	2362.7802	3041.4706	3045.0055	3085.9246	3111.0266	3121.0909	3491.8767	3500.0749	3584.0259
CCC(N)(C#C)C#N	CC[C@@](N)(C#C)C#N	
InChI=1S/C6H8N2/c1-3-6(8,4-2)5-7/h1H,4,8H2,2H3	InChI=1S/C6H8N2/c1-3-6(8,4-2)5-7/h1H,4,8H2,2H3/t6-/m0/s1
