18
gdb 91204	2.07277	1.63935	1.59426	1.8626	71.73	-0.2302	-0.0288	0.2014	1004.28	0.145808	-439.055393	-439.046653	-439.045708	-439.088825	32.699	
C	-0.1117530872	 1.5496233413	 0.1215470121	-0.478021
C	-0.0086634844	 0.0480398702	-0.0034493497	 0.159374
C	-1.2778752137	-0.8249738849	 0.2781344302	 0.059301
O	-1.7180923248	-1.6777946126	-0.752223884	-0.420048
C	-0.4283216172	-1.5804863229	 1.3199581446	-0.185883
N	 0.7893506711	-0.7533300899	 1.0320043797	-0.165058
C	 1.6426230859	-1.3531771083	-0.045052872	-0.309482
C	 0.8918182782	-0.531833163	-1.1048789805	 0.384696
O	 0.9946671537	-0.3464726251	-2.2809139426	-0.30238
H	 0.878762049	 2.0130700366	 0.1489582819	 0.132325
H	-0.6552734109	 1.9599888093	-0.7369473869	 0.130566
H	-0.6443776859	 1.8306990084	 1.0357380496	 0.126148
H	-2.1051426207	-0.2357450813	 0.6979850475	 0.073575
H	-2.083834521	-1.1415865182	-1.4645591176	 0.292079
H	-0.7584385672	-1.463456576	 2.3551720997	 0.112743
H	-0.3203131575	-2.6461462902	 1.0969306871	 0.117889
H	 2.6997642143	-1.0836582097	 0.056927063	 0.137073
H	 1.5679895582	-2.4405146636	-0.1572819422	 0.135102
69.1196	103.9252	178.3067	215.5602	240.4058	301.6539	367.368	392.3195	422.2356	484.4376	540.4559	623.9357	668.3036	742.9708	802.2112	854.4772	905.5977	927.9254	941.4555	1016.9468	1038.9401	1048.1242	1122.3923	1126.5231	1158.1941	1190.8061	1195.951	1222.6179	1246.2729	1255.7814	1304.3019	1335.2592	1401.671	1421.4339	1448.2911	1477.6825	1489.9391	1492.59	1896.8798	2997.8656	3032.1004	3035.6603	3052.5098	3085.5564	3102.7742	3106.981	3111.346	3804.1431
CC12C(O)CN1CC2=O	C[C@]12[C@@H](O)CN1CC2=O	
InChI=1S/C6H9NO2/c1-6-4(8)2-7(6)3-5(6)9/h4,8H,2-3H2,1H3	InChI=1S/C6H9NO2/c1-6-4(8)2-7(6)3-5(6)9/h4,8H,2-3H2,1H3/t4-,6+/m0/s1
