23
gdb 86544	3.49753	1.00757	0.89975	1.6318	85.52	-0.2594	0.086	0.3454	1414.9771	0.204652	-388.271028	-388.261447	-388.260503	-388.305385	36.574	
C	-0.2322601477	 1.4734516035	-0.0922206831	-0.390741
C	 0.0016042374	 0.0101725508	 0.2712576783	 0.022554
C	 0.9079451456	-0.7626249161	-0.7317862016	-0.245386
C	 2.1049293699	-0.5883313601	 0.2527796905	-0.02284
C	 1.0874078911	-0.2154439795	 1.3651053022	-0.259166
C	 3.0200803113	-1.7755736905	 0.4526575671	 0.393051
C	 3.852496598	-2.1656963372	-0.7498955471	-0.461779
C	 3.478559563	-2.1415811573	 1.8008241146	-0.231427
O	 2.4360053299	-2.8841548871	 1.1593827361	-0.272419
H	 0.7106446885	 1.9897240261	-0.3083119281	 0.11061
H	-0.8688937567	 1.5631609875	-0.9794467466	 0.112074
H	-0.7220373223	 2.010396227	 0.7276983707	 0.112273
H	-0.9585823695	-0.4708051991	 0.4793296451	 0.067725
H	 0.6192689444	-1.8136900264	-0.8209137656	 0.109495
H	 1.0122956001	-0.3379385793	-1.7342850539	 0.090679
H	 2.7175150037	 0.2746183073	-0.0311360488	 0.070045
H	 1.3319707874	 0.6382038658	 2.003702808	 0.087376
H	 0.8605508899	-1.0822306341	 1.9904371377	 0.11634
H	 4.5336474193	-1.35466154	-1.0299655112	 0.118453
H	 4.4426062019	-3.0607434234	-0.5383822617	 0.12494
H	 3.2103182772	-2.3757117914	-1.6117204211	 0.129178
H	 4.4210376337	-2.674070676	 1.9252874248	 0.108085
H	 3.1659146738	-1.5512063702	 2.6609985337	 0.110882
78.9872	81.3155	156.4479	196.4272	220.0126	244.7209	318.8179	336.9699	374.6212	393.7522	460.6176	532.6692	600.5945	759.2244	803.5253	817.8529	863.5079	886.0529	903.7824	921.9934	941.2215	966.4747	1004.3394	1011.5644	1053.6765	1074.4531	1105.3243	1136.9953	1144.6258	1152.5861	1174.3918	1229.0805	1237.5393	1253.0181	1267.3341	1284.1215	1286.0368	1362.1661	1383.866	1393.5622	1409.9096	1414.3915	1468.7662	1483.3342	1490.9758	1496.3329	1496.7859	1499.0463	1533.6617	3021.5772	3034.8086	3041.6914	3047.4685	3050.4577	3058.7214	3080.4898	3089.1842	3091.4718	3098.9375	3105.9475	3116.2377	3122.4361	3164.7306
CC1CC(C1)C1(C)CO1	C[C@H]1C[C@@H](C1)[C@@]1(C)CO1	
InChI=1S/C8H14O/c1-6-3-7(4-6)8(2)5-9-8/h6-7H,3-5H2,1-2H3	InChI=1S/C8H14O/c1-6-3-7(4-6)8(2)5-9-8/h6-7H,3-5H2,1-2H3/t6-,7-,8-/m1/s1
