17
gdb 11534	4.65134	1.09082	0.98533	2.7979	65.84	-0.245	-0.0333	0.2117	1187.7141	0.140621	-400.968288	-400.959955	-400.959011	-401.00176	29.813	
O	 1.4494400178	 1.5444399587	 0.5741159247	-0.437142
C	 0.5715292754	 0.7186935175	-0.1378122821	 0.050694
C	 1.2760683831	 0.1226421614	-1.3722209856	-0.179769
N	 0.31565863	-0.5722612521	-2.2171180477	-0.075779
C	-0.2965455279	 0.2156117749	-3.286173154	-0.221883
C	 0.7268931278	-0.8197136701	-3.5942625986	-0.216671
C	 0.0324979218	-0.3788264338	 0.7591453665	 0.141202
O	 0.3352723482	-0.4347669675	 1.9284420652	-0.268222
H	 1.4419039044	 1.2032991384	 1.4832666938	 0.294489
H	-0.3040414794	 1.2904810157	-0.4971777312	 0.095561
H	 1.7957959574	 0.9467821628	-1.8894203411	 0.103779
H	 2.0419831514	-0.5899208208	-1.0444961309	 0.115513
H	-1.3489975093	 0.0241199595	-3.4727650109	 0.121799
H	 0.0045332652	 1.2573506194	-3.3859924195	 0.11777
H	 1.7111387722	-0.4693631433	-3.9006825973	 0.116162
H	 0.4348939464	-1.7800838232	-4.0087228491	 0.122574
H	-0.6370789846	-1.1180895078	 0.2838816879	 0.119921
72.1027	82.7061	139.9226	157.9716	293.5925	336.585	364.1334	427.6363	456.1534	494.9452	734.3857	775.3802	836.8436	840.2896	898.6919	916.3716	1020.8465	1037.6184	1053.2826	1114.1822	1116.0498	1123.9877	1153.8764	1173.3789	1189.157	1245.0058	1294.2466	1319.7897	1324.8822	1375.5586	1389.7851	1446.4658	1488.9668	1499.3515	1522.7209	1805.6891	2940.6955	2963.5504	2984.5295	3059.9155	3096.4467	3101.092	3181.6436	3195.7016	3679.2833
OC(CN1CC1)C=O	O[C@@H](CN1CC1)C=O	
InChI=1S/C5H9NO2/c7-4-5(8)3-6-1-2-6/h4-5,8H,1-3H2	InChI=1S/C5H9NO2/c7-4-5(8)3-6-1-2-6/h4-5,8H,1-3H2/t5-/m0/s1
