21
gdb 108479	2.24395	1.57096	1.25909	1.3631	77.93	-0.2412	0.0582	0.2994	1132.83	0.181219	-424.19773	-424.188583	-424.187639	-424.231568	34.33	
C	-0.1699371709	 1.3929191213	-0.3534475262	-0.384971
C	-0.0758451116	-0.1326711469	-0.2157227432	-0.280344
C	 0.7701472867	-0.7530605769	-1.2983074301	 0.393072
O	 0.21599696	-0.5709495903	-2.6270936316	-0.332879
C	 0.3347309631	-1.9867985121	-2.9275597868	-0.102889
C	 1.0363854426	-2.2466208983	-1.5901526686	 0.001889
O	 2.4540015219	-2.0302113863	-1.6509609329	-0.320581
C	 2.3180828988	-0.6225699131	-1.2845887392	 0.108922
C	 3.0010822084	 0.3122225396	-2.2571433771	-0.409401
H	 0.8107406776	 1.8665712525	-0.2385524654	 0.118661
H	-0.5620981984	 1.6631298708	-1.3376386492	 0.141438
H	-0.8334070368	 1.8130816818	 0.4076687711	 0.114697
H	 0.3450371045	-0.4033982976	 0.7605096503	 0.101823
H	-1.0802255827	-0.5696970032	-0.2630521832	 0.104183
H	-0.6542633867	-2.4508582252	-3.0344729521	 0.102056
H	 0.9420850726	-2.1830307428	-3.81703717	 0.111962
H	 0.7520695134	-3.1039886507	-0.9768036115	 0.084375
H	 2.7013236141	-0.4767115844	-0.263843759	 0.070346
H	 2.5187873054	 0.2652130636	-3.2358290318	 0.13508
H	 2.9559583135	 1.3443691285	-1.8937598463	 0.11742
H	 4.0541447947	 0.0337579497	-2.3622184773	 0.125142
78.3469	111.4521	158.9742	199.9716	205.6863	254.1221	294.1008	340.1283	411.3426	427.5426	544.4388	647.7173	677.3639	775.8345	839.4831	859.4818	897.7724	933.6482	945.2511	983.6295	1001.4073	1033.4685	1042.7278	1071.7952	1097.6211	1126.7291	1150.1456	1159.6047	1175.8254	1193.8484	1245.1412	1293.4074	1313.07	1338.3888	1345.7083	1374.9275	1392.9396	1402.7387	1409.262	1477.3849	1480.877	1492.7048	1498.0865	1502.8354	1508.282	2991.5927	3015.2345	3028.7813	3040.0399	3042.0834	3065.358	3081.2285	3091.7692	3106.6002	3109.2158	3123.0288	3135.741
CCC12OCC1OC2C	CC[C@]12OC[C@H]1O[C@H]2C	
InChI=1S/C7H12O2/c1-3-7-5(2)9-6(7)4-8-7/h5-6H,3-4H2,1-2H3	InChI=1S/C7H12O2/c1-3-7-5(2)9-6(7)4-8-7/h5-6H,3-4H2,1-2H3/t5-,6+,7+/m0/s1
