25
gdb 123058	6.18805	0.48143	0.4636	1.3732	90.45	-0.2613	0.0812	0.3425	2404.3797	0.228686	-389.481653	-389.470998	-389.470054	-389.518609	38.478	
O	-0.0214321233	 1.4634456059	-0.0381171709	-0.421863
C	 0.0478664401	 0.0479803396	 0.0589413862	-0.07436
C	-1.3649054957	-0.5044997534	-0.0726613309	-0.163522
C	-1.4235501127	-2.0321367325	 0.0166388783	-0.183133
C	-2.8455167905	-2.5907263842	-0.1185913739	-0.210675
C	-2.9152763294	-4.1083448601	-0.0186838213	 0.063671
C	-2.6337606625	-4.7990630363	 1.3493438529	-0.215407
C	-3.7764168187	-5.8019708088	 1.0359775355	-0.210436
C	-4.3068352584	-4.8032632288	-0.0276005395	-0.23624
H	 0.8702749665	 1.8139883162	 0.0418363455	 0.283928
H	 0.6875647716	-0.3742725778	-0.7338751811	 0.081526
H	 0.4807197447	-0.2639349744	 1.0240407962	 0.081739
H	-1.986585233	-0.0560732874	 0.7122568956	 0.103083
H	-1.7815928601	-0.1658950579	-1.0294487843	 0.102975
H	-0.7882979516	-2.4707268364	-0.7658270905	 0.091
H	-0.9951763926	-2.3607305556	 0.9735700918	 0.096835
H	-3.4848885332	-2.1501201071	 0.6596689972	 0.088019
H	-3.2716462242	-2.26955134	-1.0795780068	 0.091708
H	-2.2774116879	-4.5571363113	-0.7909306014	 0.064292
H	-1.6334310795	-5.2014635087	 1.5281189591	 0.091475
H	-2.8956140614	-4.1395329232	 2.1843131054	 0.094735
H	-3.395413917	-6.7186110704	 0.5762278465	 0.099503
H	-4.4472403432	-6.0795657807	 1.8524812567	 0.093706
H	-5.0779865379	-4.145327579	 0.3874938911	 0.095723
H	-4.6713131202	-5.2064411777	-0.9760347573	 0.091717
51.3101	65.0782	84.032	119.9656	148.3521	161.7592	221.2422	265.2489	280.5481	373.1796	439.6989	489.4199	638.9611	743.1165	764.8134	786.4823	799.3592	891.7969	909.4577	933.9713	954.4952	973.2124	1002.3129	1009.1156	1026.6194	1060.6939	1072.5074	1104.2941	1121.8074	1184.2429	1199.0861	1209.9792	1227.3529	1248.9153	1255.8748	1262.1011	1273.432	1280.9791	1295.0477	1303.5154	1317.881	1333.7138	1348.1809	1387.265	1402.9398	1463.1138	1477.6501	1481.9243	1486.8836	1491.0877	1505.8283	1511.8655	1529.3529	2955.7291	2980.149	2998.7162	3006.2697	3017.0058	3026.7122	3029.4858	3040.0816	3044.646	3048.469	3056.0749	3074.4389	3092.3607	3096.5339	3113.9703	3829.7081
OCCCCC1CCC1	OCCCCC1CCC1	
InChI=1S/C8H16O/c9-7-2-1-4-8-5-3-6-8/h8-9H,1-7H2	InChI=1S/C8H16O/c9-7-2-1-4-8-5-3-6-8/h8-9H,1-7H2
