18
gdb 32214	2.7356	1.45617	1.0254	3.8179	81.42	-0.2306	-0.0149	0.2157	1172.2996	0.150348	-398.202635	-398.194292	-398.193348	-398.235482	31.682	
C	-0.1117508362	 1.5542160464	-0.0456544527	-0.374894
C	 0.0612651789	 0.0231568166	-0.0369627406	-0.322271
C	 0.7433183236	-0.5035100963	 1.2007475795	 0.210533
C	 2.083554215	-0.8508815278	 1.2144887607	-0.049948
N	 2.7399562432	-1.3152494566	 2.2878407146	-0.278585
C	 1.995553992	-1.43287559	 3.3836121633	 0.068525
N	 0.7033567371	-1.1446327852	 3.5201067252	-0.322164
C	 0.0717041471	-0.6818694704	 2.4330415242	 0.321847
N	-1.2702329615	-0.442798773	 2.574159222	-0.569079
H	 0.8615234362	 2.0522655427	-0.007930544	 0.130558
H	-0.6298060776	 1.8837160038	-0.9514769014	 0.120155
H	-0.6875099083	 1.9072335332	 0.816960818	 0.112255
H	-0.9177126573	-0.459927847	-0.1539060453	 0.108114
H	 0.6483467103	-0.2714096132	-0.9137854251	 0.113123
H	 2.6679884377	-0.7535122459	 0.2998017163	 0.101731
H	 2.4959899244	-1.8063639776	 4.2747535306	 0.11034
H	-1.604030122	-0.4368876455	 3.5253175108	 0.260903
H	-1.7294413126	 0.1833299459	 1.9362732738	 0.258857
95.2048	123.6671	200.5358	215.2267	311.0021	341.8283	363.7585	434.4943	449.9059	525.7652	564.4034	603.2639	630.8802	752.9931	794.013	828.1883	910.9405	962.5185	970.6174	1013.9801	1043.7089	1069.5019	1083.6018	1171.6569	1228.2987	1273.6407	1294.9406	1345.1767	1361.4534	1368.9614	1413.7382	1441.0159	1478.906	1493.1768	1504.4124	1508.9739	1601.9445	1620.7347	1646.4666	3021.0766	3035.1871	3063.444	3101.6224	3114.9151	3131.4936	3155.6982	3600.8248	3727.383
CCC1=CN=CN=C1N	CCc1cncnc1N	
InChI=1S/C6H9N3/c1-2-5-3-8-4-9-6(5)7/h3-4H,2H2,1H3,(H2,7,8,9)	InChI=1S/C6H9N3/c1-2-5-3-8-4-9-6(5)7/h3-4H,2H2,1H3,(H2,7,8,9)
