20
gdb 78811	1.87005	1.77427	1.72815	2.367	77.82	-0.232	0.0623	0.2943	1016.194	0.169871	-403.081357	-403.072509	-403.071565	-403.114781	33.983	
C	-0.2898625055	 1.6203445326	 0.2425735077	-0.437387
C	-0.0491465462	 0.1140761777	 0.2982890325	-0.037227
C	 0.768920411	-0.6741057696	-0.7293180556	-0.066501
C	 1.1153313426	-1.7259590891	 0.2465163881	-0.135918
N	 2.2039247496	-0.8617872005	-0.2709060943	-0.164393
C	 2.3054493262	-0.1921993441	 1.0728181667	 0.074613
C	 2.8640416046	 1.2201445848	 1.1449802498	-0.435841
C	 0.8489609758	-0.5963871518	 1.3561314345	 0.306975
O	 0.4651400728	-0.7105221264	 2.6782997064	-0.476994
H	 0.5825262585	 2.1856374173	-0.0844924275	 0.127905
H	-1.104663898	 1.8447278655	-0.4541023015	 0.115682
H	-0.5874643882	 1.9997857091	 1.2266761958	 0.119611
H	-1.027190507	-0.3867413655	 0.3546170614	 0.070723
H	 0.601527065	-0.7623038224	-1.7948967541	 0.095252
H	 1.1172131964	-2.8080101905	 0.2227275886	 0.096213
H	 2.9405735726	-0.8505955928	 1.6771951486	 0.089753
H	 2.4621141582	 1.8759981222	 0.372544838	 0.124633
H	 2.6531067814	 1.6646018596	 2.1232969164	 0.12513
H	 3.9506381267	 1.1916657025	 1.0169585193	 0.123198
H	-0.4823012267	-0.8793006986	 2.7168673991	 0.284574
56.415	134.7801	170.7848	212.5336	262.8443	300.56	314.2502	383.5773	396.1002	552.3652	618.0829	647.2324	684.6222	706.4665	772.8629	824.2483	860.223	899.4858	908.2866	929.9703	959.3801	1014.2293	1076.0416	1088.1841	1096.3774	1109.3792	1136.7679	1142.7636	1162.2073	1196.8889	1225.6751	1245.2597	1300.0768	1342.7028	1380.1247	1392.259	1406.3353	1412.9547	1440.773	1480.2592	1489.3089	1498.1108	1519.0469	2991.3208	3036.867	3038.4295	3047.3546	3092.2596	3105.653	3138.0553	3157.0755	3192.8955	3207.3928	3806.7147
CC1C2C3N2C(C)C13O	C[C@H]1[C@@H]2[C@H]3N2[C@@H](C)[C@@]13O	
InChI=1S/C7H11NO/c1-3-5-6-7(3,9)4(2)8(5)6/h3-6,9H,1-2H3	InChI=1S/C7H11NO/c1-3-5-6-7(3,9)4(2)8(5)6/h3-6,9H,1-2H3/t3-,4-,5+,6+,7-,8?/m0/s1
