20
gdb 72766	2.67199	1.74459	1.46984	1.1058	84.7	-0.2227	0.0135	0.2362	997.6057	0.172823	-365.968186	-365.960659	-365.959714	-365.999563	31.182	
C	-0.1908840035	 1.5981918986	-0.1616288186	-0.461885
C	 0.0066865199	 0.0854242682	-0.0644696375	 0.318725
C	-1.1806725079	-0.6436528566	 0.6752370358	-0.275301
C	-0.3479875171	-0.6076723568	 2.0123823068	-0.31478
C	 0.8410230461	-0.4198951776	 1.0986042777	 0.222955
C	 1.9543158834	-1.0599187746	 0.732285514	-0.205429
C	 2.0285528461	-1.0668798787	-0.763668913	-0.066505
N	 0.9349717026	-1.9275230886	-1.3166420011	-0.344418
C	 0.7477028787	-0.4669860589	-1.2731524655	-0.143083
H	 0.7430241506	 2.0979329848	-0.4401325172	 0.118439
H	-0.9454577913	 1.8414355998	-0.9193095186	 0.112262
H	-0.5252498092	 2.0232768651	 0.7897415046	 0.115125
H	-2.140279419	-0.1199641083	 0.6828301815	 0.093784
H	-1.3011897769	-1.6644105486	 0.310879359	 0.130328
H	-0.5976874685	 0.2697914769	 2.6167399343	 0.108814
H	-0.3591540869	-1.4947559938	 2.6485660663	 0.110833
H	 2.5797326437	-1.6873609177	 1.3567164806	 0.093732
H	 2.9617248021	-1.0119776554	-1.3151325794	 0.085474
H	 1.175515974	-2.1827488711	-2.2732627499	 0.225572
H	 0.7255534931	 0.0792463432	-2.2115844899	 0.075358
167.5636	213.5842	229.1361	250.2669	318.2934	415.1046	436.5981	523.0078	589.1325	670.9569	698.7636	766.0972	794.495	825.826	844.4999	849.4666	876.9008	892.9484	913.9548	946.0462	960.8571	990.5068	1051.6464	1078.1182	1092.8057	1119.4987	1130.1385	1155.7355	1176.0785	1219.1632	1227.4237	1233.5088	1247.6099	1261.4126	1316.1258	1359.5327	1396.5835	1409.3695	1469.3694	1484.3991	1492.1924	1497.5009	1695.2299	3024.1848	3053.6333	3063.3802	3088.9871	3103.5765	3112.971	3143.9698	3148.1687	3161.4792	3196.7128	3476.0589
CC12CCC1=CC1NC21	C[C@]12CC[C]1[CH][C@H]1N[C@@H]21	
InChI=1S/C8H11N/c1-8-3-2-5(8)4-6-7(8)9-6/h4,6-7,9H,2-3H2,1H3	InChI=1S/C8H11N/c1-8-3-2-5(8)4-6-7(8)9-6/h4,6-7,9H,2-3H2,1H3/t6-,7-,8+/m1/s1
