16
gdb 30556	7.04574	0.75331	0.68342	1.1147	80.75	-0.2104	0.0001	0.2104	1600.6215	0.125117	-434.100874	-434.092478	-434.091534	-434.134642	29.948	
C	-0.9725986782	 1.8098961366	 0.0040423242	-0.310907
N	-1.1671527342	 0.4265332525	-0.3771757203	-0.241434
C	-0.267212527	-0.400088311	-0.0495930614	 0.114617
N	-0.3858389512	-1.7388398971	-0.3808313741	-0.424166
C	 0.5394931728	-2.692740973	-0.0644896598	 0.536151
N	 1.658884844	-2.5532500634	 0.5761685974	-0.350245
C	 2.1774644204	-3.847743274	 0.6018906094	-0.10291
C	 1.335759606	-4.6918568291	-0.0273803597	-0.054904
O	 0.2547533688	-3.9481667265	-0.4710478542	-0.202108
H	-0.0356166432	 1.993496765	 0.5532801933	 0.102692
H	-0.9773568628	 2.4430244672	-0.8909892235	 0.127342
H	-1.8096831792	 2.1409426722	 0.6298460984	 0.127341
H	 0.6530191706	-0.173620586	 0.4984755199	 0.134592
H	-1.2111426377	-2.0206623006	-0.8881516064	 0.271365
H	 3.121607306	-4.0644807252	 1.0756333157	 0.126371
H	 1.3126961448	-5.7432678575	-0.249675139	 0.146203
63.8973	102.5623	115.4307	198.8543	267.5094	317.7908	331.457	393.0208	548.4059	561.9866	613.8885	697.8473	756.0928	819.4525	863.4777	929.8536	986.1773	1001.1875	1048.6076	1082.4174	1138.2804	1142.7209	1148.2681	1187.8102	1232.0473	1268.7166	1334.109	1384.2567	1448.3886	1479.7352	1499.924	1536.8674	1584.632	1662.1425	1766.3134	2976.8607	3058.3338	3073.2249	3084.4563	3265.1621	3313.8426	3633.9848
CN=CNC1=NC=CO1	CN=CNc1ncco1	
InChI=1S/C5H7N3O/c1-6-4-8-5-7-2-3-9-5/h2-4H,1H3,(H,6,7,8)	InChI=1S/C5H7N3O/c1-6-4-8-5-7-2-3-9-5/h2-4H,1H3,(H,6,7,8)
