17
gdb 106888	2.96588	1.26663	1.04779	2.1184	68.92	-0.244	-0.0316	0.2123	1156.3791	0.133633	-458.933666	-458.924745	-458.923801	-458.967592	32.466	
C	-0.1843656525	 1.5493913255	 0.0030295252	-0.417488
C	 0.0125468101	 0.0414084315	-0.0699177572	-0.180573
C	 1.2345758948	-0.5479059149	-0.8463615221	 0.427086
O	 1.554447265	-0.5652403272	-1.9964814576	-0.299466
C	 1.7508081338	-1.2307749277	 0.4206916869	-0.203143
O	 1.8851987098	-0.153542963	 1.3767456938	-0.284736
C	 0.5765370775	-0.6985347229	 1.1627652722	 0.398078
C	-0.1539970704	-1.2464616584	 2.3474810907	-0.189425
O	-0.7288616313	-0.2105321901	 3.1280442317	-0.407798
H	 0.7047422918	 2.0304975528	 0.4181662679	 0.134059
H	-0.360756591	 1.9583162032	-0.9960160278	 0.133535
H	-1.0422825706	 1.7973460818	 0.6345868368	 0.132934
H	-0.8865029614	-0.4585358004	-0.4537489721	 0.106933
H	 2.3623174915	-2.1134326558	 0.5694311007	 0.124322
H	-0.9878079395	-1.8720800942	 2.0130580639	 0.122798
H	 0.5302885973	-1.8745896993	 2.9359782772	 0.106961
H	-0.0060466748	 0.328474039	 3.4681071697	 0.295922
69.5352	97.5357	156.6086	210.487	219.8854	241.7539	313.71	399.075	402.3558	494.1322	545.7633	626.7618	710.0911	715.249	775.9107	838.6869	901.257	957.0805	997.4507	1024.808	1051.37	1074.1664	1087.3538	1122.5082	1173.2432	1202.6083	1212.77	1268.093	1330.4893	1375.0219	1402.3275	1412.9072	1448.933	1486.0651	1492.2986	1506.1762	1901.3541	3004.6252	3035.9534	3045.8289	3083.6552	3116.7919	3127.4595	3190.6512	3807.4827
CC1C(=O)C2OC12CO	C[C@H]1C(=O)[C@H]2O[C@@]12CO	
InChI=1S/C6H8O3/c1-3-4(8)5-6(3,2-7)9-5/h3,5,7H,2H2,1H3	InChI=1S/C6H8O3/c1-3-4(8)5-6(3,2-7)9-5/h3,5,7H,2H2,1H3/t3-,5+,6-/m0/s1
