21
gdb 39293	2.52132	2.00632	1.75459	1.5686	79.72	-0.2376	0.0804	0.318	917.7806	0.187798	-387.098146	-387.091638	-387.090693	-387.128628	28.235	
C	-0.0289313137	 1.4649491955	 0.1856245613	-0.242194
C	 1.51918063	 1.4143526616	 0.0256082254	-0.029888
C	 2.1659907384	 1.1236329326	 1.3879270695	-0.212934
C	 1.3011329765	 0.1076243836	 2.1730812789	-0.21785
C	 0.5907771588	-0.8493285219	 1.203805323	 0.107969
O	 1.5320647686	-1.7642693878	 0.6247825246	-0.27651
C	 2.1366484112	-1.151939479	-0.5179276682	-0.10416
C	 1.3080355221	 0.0944992191	-0.8049548138	-0.019038
C	-0.0059570388	-0.0724271306	 0.0016026485	-0.041549
H	-0.4436331123	 1.8868441038	 1.1056604193	 0.091481
H	-0.5085602431	 1.9485957542	-0.669488127	 0.096785
H	 2.0076391351	 2.2466445714	-0.4867932845	 0.058731
H	 3.1816368867	 0.7373347736	 1.2461470032	 0.104218
H	 2.2675491607	 2.05379457	 1.9582418576	 0.092597
H	 1.9045888506	-0.4715911859	 2.877511275	 0.101623
H	 0.5443332192	 0.6358251142	 2.764287284	 0.096153
H	-0.1464760423	-1.4614941168	 1.7310314487	 0.07262
H	 3.1945746241	-0.9287971331	-0.3185932049	 0.092747
H	 2.0979201328	-1.863799327	-1.352133122	 0.096244
H	 1.1756472105	 0.3016322304	-1.8683643771	 0.069905
H	-0.863639305	-0.5789763382	-0.445035801	 0.06305
158.9392	285.8701	355.4724	388.839	403.0894	494.7645	584.7043	656.9435	730.8908	763.6981	780.2027	829.4696	846.2739	877.8617	901.9367	928.3857	945.2052	965.9554	997.9372	1019.5899	1037.2528	1042.8509	1083.2909	1085.0397	1105.5956	1117.971	1127.619	1183.7968	1211.2985	1226.3501	1243.3892	1257.5135	1280.163	1295.51	1311.8643	1328.1783	1338.0129	1346.3255	1369.0555	1384.4453	1388.0331	1478.1242	1495.2848	1509.8481	1528.7305	2997.8655	3032.49	3035.2448	3037.9993	3051.48	3065.5392	3068.3065	3073.9619	3086.3293	3091.8622	3097.753	3103.3671
C1C2CCC3OCC2C13	C1[C@H]2CC[C@@H]3OC[C@H]2[C@H]13	
InChI=1S/C8H12O/c1-2-8-6-3-5(1)7(6)4-9-8/h5-8H,1-4H2	InChI=1S/C8H12O/c1-2-8-6-3-5(1)7(6)4-9-8/h5-8H,1-4H2/t5-,6+,7-,8+/m1/s1
