17
gdb 81675	3.87491	1.29439	1.20112	3.6738	67.64	-0.2333	0.045	0.2783	1043.3463	0.13847	-455.16591	-455.158359	-455.157415	-455.197485	30.277	
O	-0.1145914752	 1.4354718726	-0.010601077	-0.438255
C	 0.0257860958	 0.0346230635	-0.0298589218	 0.148486
C	 0.1886779268	-0.620339278	 1.3821216339	-0.055814
C	-1.3538592582	-0.4539583317	 1.5397214494	-0.245161
C	-1.3784544761	-0.6299224865	-0.010724145	-0.018752
N	-1.1950993865	-2.0354092906	-0.3608064467	-0.333894
C	-0.3171278928	-2.8067905673	 0.3861376218	 0.418437
O	-0.2715494833	-4.0202107084	 0.3457682007	-0.408494
N	 0.5301847002	-2.0237139576	 1.1613055513	-0.332621
H	 0.7469756135	 1.8214928917	 0.1778642657	 0.288939
H	 0.7179123853	-0.3159465375	-0.8047425826	 0.082215
H	 0.8735273623	-0.172517956	 2.104140594	 0.073896
H	-1.8879360712	-1.1873816757	 2.1466572745	 0.103059
H	-1.6156431206	 0.5645823853	 1.8231110184	 0.124788
H	-2.1716035243	-0.1830283734	-0.6094309217	 0.088577
H	-1.9606275861	-2.5520719349	-0.7618349691	 0.253003
H	 1.0063298403	-2.5368156755	 1.8856730841	 0.251591
124.0866	264.2453	278.9009	305.7002	328.4823	370.998	413.7814	458.6294	470.156	525.2372	565.5581	685.4491	770.4505	852.626	858.6264	874.5519	926.4594	944.4951	977.9187	1022.7996	1090.1301	1093.4466	1131.5255	1134.238	1142.2545	1186.9971	1237.0726	1255.9032	1257.2867	1301.6975	1345.3863	1386.6325	1412.6363	1435.0719	1437.9646	1476.101	1822.1655	3038.3374	3082.4262	3100.1294	3122.215	3159.995	3645.7883	3653.0053	3813.9327
OC1C2CC1NC(=O)N2	O[C@H]1[C@H]2C[C@@H]1NC(=O)N2	
InChI=1S/C5H8N2O2/c8-4-2-1-3(4)7-5(9)6-2/h2-4,8H,1H2,(H2,6,7,9)	InChI=1S/C5H8N2O2/c8-4-2-1-3(4)7-5(9)6-2/h2-4,8H,1H2,(H2,6,7,9)/t2-,3+,4+
