23
gdb 89587	3.82425	0.98466	0.94701	1.5854	84.64	-0.2536	0.0729	0.3266	1359.3518	0.207243	-388.297156	-388.288233	-388.287289	-388.331875	34.718	
O	 1.0231176413	 0.3507631409	-0.6801080706	-0.435517
C	 0.1208000038	-0.3680016958	 0.1228188862	 0.177775
C	 0.0097060071	-0.0565326776	 1.6381109901	-0.317181
C	-1.530546242	-0.3076286664	 1.530515426	 0.377619
C	-1.4048489386	-0.1208820639	-0.006684745	-0.345291
C	-1.9478545489	-1.7088309712	 2.0078355395	-0.259585
C	-2.1418364805	-1.533175657	 3.5243003224	-0.202633
C	-2.7010091767	-0.0924189691	 3.6932453914	-0.200246
C	-2.4721376548	 0.608825859	 2.3256619761	-0.27851
H	 0.8403211216	 1.2890509413	-0.562648043	 0.273776
H	 0.3626556859	-1.4211959744	-0.0454222126	 0.092115
H	 0.5916658438	-0.6681685667	 2.33334615	 0.097132
H	 0.2301333858	 0.9998627653	 1.8331037909	 0.083337
H	-1.6037038825	 0.9177720481	-0.2986267509	 0.084569
H	-1.9847556143	-0.782895605	-0.65621487	 0.095539
H	-2.8986811829	-1.9831111899	 1.5316611007	 0.091979
H	-1.2230368515	-2.4896982869	 1.7561852716	 0.092859
H	-2.7958063913	-2.2954432282	 3.9565056578	 0.093465
H	-1.1752243322	-1.6225675864	 4.0319502967	 0.099482
H	-3.7637997832	-0.1040351502	 3.9512895766	 0.098481
H	-2.1907397465	 0.4325218827	 4.5056136044	 0.098305
H	-2.0733787799	 1.6230206064	 2.4277710863	 0.086648
H	-3.4218050833	 0.6974229249	 1.7837203453	 0.095884
20.3385	90.721	142.6934	248.3744	285.6316	336.4328	344.0495	395.3058	455.4301	475.3667	601.4948	666.4702	730.9365	787.6013	818.7239	832.3827	888.5627	891.7772	915.9474	939.5579	973.6603	982.2317	1012.5406	1029.8994	1051.9096	1079.0993	1086.2097	1099.3203	1156.3905	1201.442	1212.0338	1219.4511	1239.4846	1258.1545	1275.1274	1279.9597	1293.3937	1310.6155	1327.2778	1336.2338	1342.6639	1361.6067	1437.9439	1466.203	1483.2883	1489.2636	1493.6587	1496.6636	1516.8127	3017.1586	3024.8594	3026.6538	3034.1985	3040.4762	3055.9221	3067.1424	3067.9502	3076.7145	3084.0495	3090.1057	3097.5521	3101.9924	3804.2396
OC1CC2(C1)CCCC2	OC1CC2(C1)CCCC2	
InChI=1S/C8H14O/c9-7-5-8(6-7)3-1-2-4-8/h7,9H,1-6H2	InChI=1S/C8H14O/c9-7-5-8(6-7)3-1-2-4-8/h7,9H,1-6H2
