27
gdb 122963	3.04517	0.59347	0.52088	0.9283	94.45	-0.2457	0.0878	0.3334	2282.1214	0.249156	-390.705133	-390.692879	-390.691934	-390.744166	43.194	
C	-0.0422690894	 1.5608651744	-0.0830880257	-0.378764
C	-0.0255358568	 0.0433360302	 0.1196727383	-0.165087
C	-1.4050600782	-0.5978466026	-0.0602016808	-0.176031
C	-1.387325313	-2.1077982506	 0.1411754823	-0.058772
O	-2.699036923	-2.5999009735	-0.0367361759	-0.260693
C	-2.8330873814	-4.0168400688	-0.0112957184	 0.160279
C	-2.7800584781	-4.5640741181	 1.4183124127	-0.403205
C	-4.1578027559	-4.3482901427	-0.7024328192	-0.171747
C	-4.2057066937	-3.9098969196	-2.1674813267	-0.38477
H	 0.9539457316	 1.9931832262	 0.0530019115	 0.110511
H	-0.3840843097	 1.8212737324	-1.0908944145	 0.114954
H	-0.7173774186	 2.0473749191	 0.6295208507	 0.114976
H	 0.6835570863	-0.4112670144	-0.5849588635	 0.095167
H	 0.3559110401	-0.1867464727	 1.1234360573	 0.09535
H	-2.1183789362	-0.1597153482	 0.648878626	 0.102448
H	-1.793041281	-0.3827099244	-1.0635814595	 0.101078
H	-0.7015917364	-2.5823337735	-0.5823402472	 0.080541
H	-1.0044961548	-2.3449666559	 1.1473835337	 0.083673
H	-2.0078006126	-4.4616055048	-0.5958010882	 0.057245
H	-2.884821662	-5.6538422348	 1.4167780943	 0.111951
H	-1.8327062752	-4.3236021017	 1.909182803	 0.114399
H	-3.5924072103	-4.1388437907	 2.0166603257	 0.120555
H	-4.3268360173	-5.4290329976	-0.6246272692	 0.090218
H	-4.9645072593	-3.8620599395	-0.1394823064	 0.101494
H	-5.1786335675	-4.1334998322	-2.6156514847	 0.107015
H	-4.0274255825	-2.8350967656	-2.2502305579	 0.130775
H	-3.440555405	-4.4248449804	-2.7599293778	 0.106439
33.7085	49.7783	92.7993	113.4264	121.6498	134.9209	200.9066	220.8272	239.1986	243.2387	266.1027	334.6037	377.7603	453.9208	496.7592	513.9648	743.6429	774.1337	814.2825	833.691	893.7631	924.025	952.7567	977.6525	997.8005	1026.0839	1036.1643	1071.0135	1116.1041	1124.6895	1142.6767	1169.3005	1191.7079	1202.8945	1250.5209	1290.1055	1303.7827	1311.0002	1323.2681	1330.7772	1369.6641	1389.8459	1395.7241	1403.4668	1407.0122	1412.5049	1439.3761	1474.7741	1487.0416	1491.2263	1494.9425	1496.9015	1498.8446	1499.2216	1510.0444	1511.4855	1528.7643	2940.552	2951.0557	2979.1549	3012.3432	3026.7884	3027.49	3031.7662	3034.7997	3037.6839	3038.1489	3064.5513	3072.1138	3097.5806	3098.2632	3102.0441	3107.7945	3111.967	3126.3489
CCCCOC(C)CC	CCCCO[C@@H](C)CC	
InChI=1S/C8H18O/c1-4-6-7-9-8(3)5-2/h8H,4-7H2,1-3H3	InChI=1S/C8H18O/c1-4-6-7-9-8(3)5-2/h8H,4-7H2,1-3H3/t8-/m0/s1
