21
gdb 67220	2.63289	1.67701	1.29329	1.8599	81.78	-0.2237	0.0836	0.3073	1079.9921	0.180923	-387.035766	-387.026996	-387.026052	-387.068333	34.693	
C	-0.0169993912	 1.5990664033	-0.1529531478	-0.534749
C	 0.011207363	 0.1126985176	-0.0118017762	 0.299646
C	 0.0787707994	-1.0259966777	-0.9688454886	 0.010682
O	 1.2037136598	-1.6650274944	-0.3615979022	-0.291918
C	 0.8649267764	-0.9159873224	 0.8377500633	-0.02789
C	-0.4624143414	-1.5717397186	 1.34758302	 0.331595
C	-0.4622846861	-3.0904242374	 1.4938980235	-0.459074
C	-0.9761584193	-0.8813188842	 2.6118657774	-0.448203
C	-1.063825877	-0.9708483791	 0.0664625611	-0.20127
H	 0.9638910729	 1.9926521152	-0.4426435454	 0.128428
H	-0.7359758323	 1.8960193727	-0.9243813527	 0.125454
H	-0.3146193134	 2.0919942034	 0.7796058592	 0.124218
H	-0.0506279169	-1.0925121824	-2.0416231302	 0.104141
H	 1.7169157892	-0.7273650259	 1.4908626205	 0.07472
H	 0.0991174791	-3.3997968711	 2.3836212616	 0.105802
H	-1.4855559626	-3.4678572765	 1.6039151496	 0.106327
H	-0.0088654283	-3.5627023818	 0.6207447634	 0.132464
H	-0.9481723836	 0.2092931497	 2.5231569247	 0.114003
H	-2.0114414184	-1.1705651937	 2.8232920465	 0.115051
H	-0.3718952376	-1.1670105013	 3.4808700515	 0.111716
H	-2.1074008618	-0.9004752854	-0.2198009792	 0.078858
158.3922	184.8169	197.129	204.1386	241.1346	285.3562	306.4225	348.2862	359.7271	517.2778	583.8008	601.4767	653.6083	768.1312	794.5086	852.4318	879.0819	899.0045	914.58	950.6842	952.5991	964.4251	999.7865	1019.8948	1026.0843	1075.1684	1114.328	1143.4997	1157.2939	1178.024	1203.471	1227.9254	1243.8492	1270.9964	1334.6868	1394.4051	1410.4798	1416.9323	1464.4889	1482.6922	1484.5867	1485.3506	1497.1752	1504.15	1509.3973	3021.6909	3022.9099	3028.0736	3081.5776	3082.4082	3087.9214	3091.9298	3100.6271	3122.9547	3134.4544	3177.0253	3202.6888
CC12C3OC1C(C)(C)C23	C[C@@]12[C@H]3O[C@@H]1C(C)(C)[C@@H]23	
InChI=1S/C8H12O/c1-7(2)4-5-8(4,3)6(7)9-5/h4-6H,1-3H3	InChI=1S/C8H12O/c1-7(2)4-5-8(4,3)6(7)9-5/h4-6H,1-3H3/t4-,5-,6+,8+/m0/s1
