20
gdb 119179	3.11035	0.94696	0.79942	2.8312	74.98	-0.245	0.0672	0.3122	1452.7214	0.170097	-440.219694	-440.210217	-440.209273	-440.254725	34.565	
O	 0.3582403571	 1.5065268057	-0.2592991028	-0.413227
C	 0.2369649747	 0.0942568955	-0.2642458764	-0.080909
C	-1.2263454292	-0.3574560183	-0.2421565125	-0.289606
C	-1.4976441124	-1.8387027954	-0.0040403848	 0.280392
C	-0.4466324678	-2.8764278613	-0.2000840243	-0.27891
N	-0.909327417	-2.5257351077	 1.1549355927	-0.340858
C	-2.9259683094	-2.214097469	-0.2896760775	 0.02519
C	-3.6880472849	-3.1346805874	 0.5585213633	-0.169714
O	-3.9070427883	-1.7214599159	 0.6276532343	-0.24526
H	-0.0766952264	 1.8426132468	-1.0496385256	 0.283536
H	 0.760758325	-0.3456018648	-1.1267066401	 0.093616
H	 0.7646051195	-0.2403185405	 0.636573701	 0.107288
H	-1.7532396121	 0.2141824866	 0.5313213626	 0.135175
H	-1.6903030164	-0.0744661325	-1.198046054	 0.093775
H	-0.7285378746	-3.8727116396	-0.5308080577	 0.116887
H	 0.5463483245	-2.566298549	-0.5108966853	 0.117077
H	-0.2313339071	-1.9258608695	 1.6176197216	 0.233589
H	-3.2153620184	-2.1141623878	-1.3384397894	 0.087709
H	-4.5042594899	-3.7103114295	 0.1233590356	 0.106722
H	-3.1956839071	-3.5677875564	 1.4245125994	 0.137526
61.7014	81.2677	101.8854	156.2617	232.8872	263.3943	299.9241	340.0596	360.7669	386.8876	487.057	603.0132	719.2552	776.4375	836.8951	868.6955	874.7812	937.4638	961.8674	979.3336	1006.0936	1020.3304	1063.6396	1083.6943	1111.0929	1115.8034	1139.0898	1160.477	1173.0233	1185.2926	1252.8407	1272.5839	1293.1705	1307.834	1344.4727	1373.8611	1404.896	1428.0375	1449.2322	1487.8019	1509.0411	1517.3567	1522.7231	2983.9227	3007.5289	3052.3331	3069.2107	3080.9858	3092.9891	3111.886	3196.0575	3197.3748	3504.9794	3814.5256
OCCC1(CN1)C1CO1	OCC[C@]1(CN1)[C@H]1CO1	
InChI=1S/C6H11NO2/c8-2-1-6(4-7-6)5-3-9-5/h5,7-8H,1-4H2	InChI=1S/C6H11NO2/c8-2-1-6(4-7-6)5-3-9-5/h5,7-8H,1-4H2/t5-,6+/m1/s1
