16
gdb 66694	3.13874	1.73298	1.46404	3.0853	71.6	-0.2336	-0.0251	0.2085	923.2141	0.124957	-400.709592	-400.702759	-400.701815	-400.740628	27.418	
C	 0.0726763822	 1.5151764814	-0.0119655862	-0.504072
C	-0.0076569734	 0.0267214936	-0.0273398163	 0.364458
C	 0.391756744	-1.0367203376	-0.9968604894	-0.166715
C	 0.9454335227	-1.8377502446	 0.2016568036	-0.042185
C	-0.1985884872	-2.0542415706	 1.1306069555	-0.194928
N	 0.5677144642	-0.7695407121	 1.1623726258	-0.187452
C	-1.4832120875	-1.8664975419	 0.3686594551	 0.476729
O	-2.5461572204	-2.3996916169	 0.546848104	-0.334074
C	-1.0867836372	-0.8367464129	-0.644248711	-0.26446
H	 1.0969353453	 1.8420374755	 0.194011222	 0.137104
H	-0.2353472658	 1.9291992997	-0.9767871737	 0.127133
H	-0.5783055647	 1.9314515399	 0.764393853	 0.137096
H	 0.7788997717	-0.9793718749	-2.0040257457	 0.107902
H	 1.8950547704	-2.3561152783	 0.2603414156	 0.109964
H	-0.1408295936	-2.6788060577	 2.0119348802	 0.118359
H	-1.7821171307	-0.4374214326	-1.3683377524	 0.11514
137.0801	189.2414	259.3556	281.2201	440.5208	526.081	565.0124	603.8643	703.0595	744.5992	754.2581	796.2108	818.6439	855.4867	870.7875	894.0729	918.0845	960.4941	977.746	1000.691	1039.7479	1051.7526	1113.8286	1141.0472	1153.1676	1182.6546	1197.1912	1266.5943	1292.3603	1323.8273	1405.0667	1456.6275	1474.4353	1496.3287	1859.3002	3034.0507	3100.5344	3113.1398	3182.8726	3215.9906	3219.5731	3233.0308
CC12C3C4C(N14)C(=O)C23	C[C@@]12[C@H]3[C@@H]4[C@@H](N14)C(=O)[C@@H]23	
InChI=1S/C7H7NO/c1-7-2-3(7)6(9)5-4(2)8(5)7/h2-5H,1H3	InChI=1S/C7H7NO/c1-7-2-3(7)6(9)5-4(2)8(5)7/h2-5H,1H3/t2-,3+,4-,5-,7+,8?/m1/s1
