17
gdb 90941	3.06747	1.46645	1.42197	2.1318	66.29	-0.234	0.0564	0.2904	975.9594	0.136775	-458.915279	-458.907987	-458.907042	-458.946749	29.61	
O	 0.0338888404	 1.4433773434	-0.0173435747	-0.443589
C	 0.0625629515	 0.0331975002	-0.0169289522	 0.15944
C	 0.7213339446	-0.6035227356	 1.2531162343	-0.271848
C	-0.2180897924	-1.7351326744	 1.6441768572	-0.124465
C	-1.6955838776	-1.3728456187	 1.8401192965	-0.002544
O	-1.9776477121	-0.1071236351	 1.2305417532	-0.319933
C	-1.3428500997	-0.5735274344	-0.011617267	-0.03081
C	-1.2296710225	-2.0076310834	 0.5627049397	 0.306382
O	-1.4049106205	-3.218775702	-0.0604759725	-0.452752
H	-0.5669950334	 1.6905337802	 0.6982118108	 0.285904
H	 0.5996666933	-0.2626920892	-0.9247426002	 0.092397
H	 1.7258818549	-0.9782176138	 1.0394932582	 0.109003
H	 0.8158996097	 0.1563159454	 2.03495301	 0.10762
H	 0.1269201622	-2.5827389894	 2.2266881035	 0.097532
H	-2.3110522146	-1.6910372502	 2.6728535134	 0.111801
H	-1.9664006502	-0.3691592547	-0.8838326673	 0.083704
H	-2.3313720135	-3.3034194983	-0.3139280228	 0.292158
109.4877	225.6494	272.3805	337.7704	365.3139	418.8302	473.02	496.8744	537.3141	624.1439	655.6709	715.8704	780.57	845.4577	853.8478	894.2657	924.1287	970.2753	986.0291	1009.4272	1032.6692	1062.1502	1077.6788	1098.9701	1152.4366	1175.7679	1205.6103	1231.5665	1264.6629	1281.3119	1309.7135	1316.2745	1324.5266	1346.1783	1436.5512	1488.0999	1497.0704	3053.7897	3057.5565	3099.9118	3105.98	3178.4585	3192.5604	3764.2819	3787.1443
OC1CC2C3OC1C23O	O[C@H]1C[C@H]2[C@H]3O[C@@H]1[C@@]23O	
InChI=1S/C6H8O3/c7-3-1-2-4-6(2,8)5(3)9-4/h2-5,7-8H,1H2	InChI=1S/C6H8O3/c7-3-1-2-4-6(2,8)5(3)9-4/h2-5,7-8H,1H2/t2-,3-,4+,5-,6+/m0/s1
