17
gdb 35532	4.62774	1.09215	0.98257	2.9665	80.67	-0.2328	0.0154	0.2481	1202.8657	0.137303	-380.811116	-380.803489	-380.802545	-380.843202	30.003	
C	-0.0450011975	-1.200209142	-0.2203771199	-0.449362
C	 0.0423200321	-0.0077416941	-0.0995044697	 0.345097
C	 0.0998944929	 1.4369872103	 0.0738670181	-0.156746
C	-0.6682302185	 1.925164214	 1.3737923324	-0.260059
C	 0.0618047878	 3.245977765	 1.6443542051	-0.103293
C	 0.9586400349	 3.6521535368	 2.8676369654	-0.205419
N	 2.140046021	 3.6479865258	 1.9309996447	-0.368338
C	 1.3860990072	 2.9067123691	 1.0279669408	 0.387673
N	 1.5149844759	 1.9224584542	 0.2379227269	-0.313423
H	-0.1067677537	-2.2534784775	-0.3392862663	 0.193721
H	-0.3472078112	 1.9096959352	-0.8131458643	 0.108049
H	-1.744614902	 2.0179753381	 1.2140946984	 0.111747
H	-0.4959288965	 1.1942906275	 2.1691936922	 0.119883
H	-0.4400805021	 4.1142040156	 1.2111909027	 0.104972
H	 0.7661462376	 4.6251680233	 3.3237635169	 0.120482
H	 1.0201857567	 2.8736025642	 3.6352631682	 0.119888
H	 3.0527829356	 3.3186509345	 2.2240673382	 0.245127
87.165	153.154	214.0765	299.677	335.0036	421.3999	487.4119	528.3272	584.4093	616.7541	641.4752	654.3973	721.7812	784.3754	828.1585	853.4686	912.9044	942.1479	948.0053	958.1241	1049.3045	1059.7236	1093.8591	1137.9128	1159.5985	1207.0826	1217.4152	1254.8713	1271.3089	1321.0617	1334.7477	1343.3324	1366.2044	1483.0961	1505.8432	1764.4004	2239.9923	2992.2452	3046.3963	3064.8821	3083.7994	3117.0886	3124.2366	3505.4137	3553.1716
C#CC1CC2CNC2=N1	C#C[C@H]1C[C@H]2CN[C]2[N]1	
InChI=1S/C7H8N2/c1-2-6-3-5-4-8-7(5)9-6/h1,5-6H,3-4H2,(H,8,9)	InChI=1S/C7H8N2/c1-2-6-3-5-4-8-7(5)9-6/h1,5-6H,3-4H2,(H,8,9)/t5-,6-/m0/s1
