19
gdb 114171	4.17131	0.92967	0.82836	2.8042	78.34	-0.2583	-0.0379	0.2204	1416.6956	0.157245	-423.004383	-422.995421	-422.994477	-423.038384	32.927	
C	 0.1134258251	 1.5039579944	-0.0316287218	-0.382474
C	 0.0218179508	-0.0145751013	 0.1462316082	-0.19183
C	-1.4021706156	-0.5446866274	 0.0164641625	 0.007061
C	-2.1011241291	-0.5134741764	-1.3959396282	-0.329012
C	-2.2624112729	-2.0303396669	-1.3083737195	 0.321548
O	-0.9584043533	-2.61114908	-1.1322414044	-0.268434
C	-1.5807287998	-2.0751554646	 0.02142562	-0.058497
C	-3.344390864	-2.9070396735	-1.7860274843	 0.061801
O	-4.3484313639	-2.5036343769	-2.3213837805	-0.260511
H	 1.1478217916	 1.8490871076	 0.0571881988	 0.117784
H	-0.25625291	 1.8130035736	-1.0151936066	 0.121693
H	-0.4797060201	 2.0300832763	 0.7246651977	 0.114918
H	 0.6499572341	-0.5196788737	-0.5959631099	 0.115204
H	 0.4175770398	-0.2941265951	 1.1314803859	 0.097442
H	-2.0562764694	-0.0886915699	 0.7671169741	 0.084709
H	-3.0574247452	 0.0106716661	-1.3968149273	 0.13253
H	-1.4914068479	-0.1726437785	-2.2356473283	 0.116497
H	-1.7359077124	-2.7485902765	 0.8583504735	 0.112945
H	-3.1596735677	-3.9859439673	-1.59122431	 0.086626
86.2205	105.6833	124.6315	170.6244	229.6881	256.1847	287.6002	386.0235	423.0976	489.1175	584.8109	693.3793	749.4964	781.8633	808.6354	852.864	908.3725	934.7275	960.1296	975.7893	1005.4767	1040.2567	1061.1997	1101.3209	1128.4177	1181.6973	1214.1599	1224.6687	1257.7316	1284.3793	1298.688	1345.7198	1364.2331	1391.4856	1414.3011	1437.7442	1474.1685	1490.6294	1500.5827	1506.9125	1807.2691	2900.8524	3023.0842	3032.2281	3052.2437	3071.4585	3078.5588	3100.6085	3106.7824	3143.0848	3173.4741
CCC1CC2(OC12)C=O	CC[C@H]1C[C@]2(O[C@@H]12)C=O	
InChI=1S/C7H10O2/c1-2-5-3-7(4-8)6(5)9-7/h4-6H,2-3H2,1H3	InChI=1S/C7H10O2/c1-2-5-3-7(4-8)6(5)9-7/h4-6H,2-3H2,1H3/t5-,6-,7-/m0/s1
