17
gdb 98345	3.65335	0.82499	0.70239	1.322	71.98	-0.2661	-0.049	0.2171	1541.96	0.131654	-458.934547	-458.924358	-458.923414	-458.971079	35.831	
O	 0.0464049017	 1.399078096	 0.1249953861	-0.418261
C	-0.0105041796	 0.0117014231	-0.0164204944	-0.130383
C	-1.4373411191	-0.5008444054	 0.0555968597	 0.32324
O	-2.3519354297	 0.2918040978	 0.1740440797	-0.33827
C	-1.7386806155	-1.9975611291	 0.0093601767	 0.045501
O	-3.1037075403	-2.2185124392	 0.2094698801	-0.424612
C	-1.2724825406	-2.6203993035	-1.3366397636	-0.385738
C	-1.4947853138	-4.0578486757	-1.3802682206	 0.313462
C	-1.6619307199	-5.2469163824	-1.4041588037	-0.425227
H	-0.8737722246	 1.6942279449	 0.2008924095	 0.298544
H	 0.4286913734	-0.3058440322	-0.976742539	 0.127303
H	 0.5754465591	-0.4936128965	 0.7686741384	 0.128466
H	-1.1590013267	-2.4755752986	 0.8156000946	 0.109571
H	-3.5127624081	-1.3405164581	 0.2573022366	 0.298005
H	-1.8216022753	-2.1286806004	-2.1491514943	 0.144081
H	-0.2068598052	-2.411285374	-1.49160413	 0.133586
H	-1.8188699958	-6.2967217566	-1.4310358158	 0.200731
27.032	65.4247	89.4723	124.3063	192.0567	260.3916	335.7619	350.8168	363.3917	384.5475	398.2565	426.2068	505.1708	574.6831	624.9766	649.0479	731.3254	843.1288	901.5431	935.8233	1008.6189	1051.018	1056.7371	1141.2827	1167.5312	1235.2791	1253.2568	1271.5342	1313.971	1325.0146	1364.3436	1439.2317	1449.2331	1458.6291	1486.9615	1777.1237	2245.373	2973.6201	2979.9007	2994.5712	3026.259	3067.0644	3506.6916	3700.4733	3712.3267
OCC(=O)C(O)CC#C	OCC(=O)[C@@H](O)CC#C	
InChI=1S/C6H8O3/c1-2-3-5(8)6(9)4-7/h1,5,7-8H,3-4H2	InChI=1S/C6H8O3/c1-2-3-5(8)6(9)4-7/h1,5,7-8H,3-4H2/t5-/m0/s1
