25
gdb 118476	2.06788	0.96974	0.70325	1.1826	85.73	-0.2435	0.0778	0.3214	1690.7924	0.225626	-426.616982	-426.604949	-426.604005	-426.654979	42.538	
C	 0.3631904445	 1.3527968846	 0.3476366983	-0.240874
O	-0.2377918079	 0.1371066792	-0.0380880741	-0.25488
C	 0.4182353664	-0.5615510781	-1.1033573416	 0.110164
C	 0.8822462289	-1.921507828	-0.5673843567	-0.208965
C	 1.8465371302	-1.8193715937	 0.6162232888	-0.069289
O	 2.3102404676	-3.0903658772	 1.0501308217	-0.420582
C	-0.5522548693	-0.6724243806	-2.2994016174	 0.041152
C	-1.0651816058	 0.7102698892	-2.724487481	-0.399842
C	 0.0755253184	-1.4002920871	-3.4973569923	-0.399085
H	 1.3912062416	 1.2108422501	 0.7136656036	 0.105956
H	 0.3873589664	 2.0839057033	-0.4735965636	 0.106502
H	-0.2399551662	 1.7646468178	 1.1618017668	 0.124017
H	 1.3002904033	 0.016105968	-1.4257087256	 0.06403
H	-0.0058605511	-2.4920886443	-0.2605538725	 0.090048
H	 1.3761086157	-2.4929148792	-1.358978344	 0.107609
H	 2.7461920952	-1.2665813549	 0.3209907455	 0.103483
H	 1.3729300381	-1.2645007714	 1.4375764299	 0.10038
H	 1.5522363206	-3.5751602392	 1.391784857	 0.279624
H	-1.4140417288	-1.2573817991	-1.9486657526	 0.077475
H	-1.8027772135	 0.6171862355	-3.5280974833	 0.108196
H	-1.5381502099	 1.2292441046	-1.888244222	 0.127082
H	-0.2468923078	 1.3363531812	-3.1017633419	 0.104889
H	 0.3196497684	-2.4424087162	-3.276392978	 0.118333
H	-0.615012836	-1.3986770769	-4.346731893	 0.112885
H	 0.9962632711	-0.9008660275	-3.8233672822	 0.111692
42.8051	75.4251	97.2094	104.1637	134.4834	169.0934	204.1706	244.7548	269.0608	290.9061	301.725	322.2298	367.5006	395.1511	445.4145	473.4777	572.8563	775.7828	848.84	885.9357	927.7566	951.7397	965.3035	1008.7332	1038.515	1077.3133	1108.8604	1123.9298	1139.5933	1150.4504	1183.3774	1191.434	1193.6091	1237.8551	1280.6041	1311.3766	1332.776	1348.3009	1373.05	1390.4197	1395.4911	1402.8592	1417.9597	1419.4535	1474.564	1482.2	1486.9625	1491.3403	1495.374	1504.3778	1507.9503	1518.2262	1520.5781	2964.657	2982.7133	3008.3984	3009.5316	3016.7059	3024.8466	3029.4551	3031.3535	3060.4072	3087.9365	3092.7902	3094.5845	3103.6047	3115.6726	3126.6761	3815.6286
COC(CCO)C(C)C	CO[C@@H](CCO)C(C)C	
InChI=1S/C7H16O2/c1-6(2)7(9-3)4-5-8/h6-8H,4-5H2,1-3H3	InChI=1S/C7H16O2/c1-6(2)7(9-3)4-5-8/h6-8H,4-5H2,1-3H3/t7-/m0/s1
