12
gdb 131119	3.34194	1.2298	1.0169	3.6443	59.02	-0.3199	-0.0548	0.2651	1097.9626	0.077887	-468.796947	-468.789323	-468.788379	-468.830171	26.38	
O	 0.1306766091	 1.4865719108	-0.1148045878	-0.386981
C	 0.0428173927	 0.0941120668	 0.0146080638	-0.107556
C	 0.5877597301	-0.6116371755	-1.171983008	 0.269639
N	 1.0229202283	-1.1373527554	-2.1035343684	-0.3085
C	 0.7232084308	-0.4257313975	 1.2596710997	 0.363441
N	 1.5748884356	 0.3088776809	 1.9194050546	-0.174251
O	 1.9778882681	-0.5262904109	 2.9617014226	-0.144654
C	 1.309600283	-1.6698900901	 2.7986131573	 0.113938
N	 0.5182207093	-1.6840532828	 1.773415569	-0.294174
H	 1.0421580814	 1.7530928475	 0.0612838227	 0.313612
H	-1.0224463656	-0.1540890023	 0.0823172905	 0.171967
H	 1.4862706871	-2.4517413616	 3.522453294	 0.183518
46.5816	107.1229	186.5773	218.0991	291.0372	353.5965	429.1412	476.93	606.2474	632.9131	707.5751	829.0722	910.5675	925.865	947.1405	987.4336	1030.5129	1100.162	1142.0468	1240.7746	1302.6537	1315.6616	1376.7045	1426.2962	1513.9309	1597.6834	2361.5897	3064.5666	3272.9735	3787.0446
OC(C#N)C1=NOC=N1	O[C@@H](C#N)c1nocn1	
InChI=1S/C4H3N3O2/c5-1-3(8)4-6-2-9-7-4/h2-3,8H	InChI=1S/C4H3N3O2/c5-1-3(8)4-6-2-9-7-4/h2-3,8H/t3-/m0/s1
