19
gdb 71661	2.99275	1.85556	1.84093	1.2747	76.11	-0.2483	0.0762	0.3245	867.9404	0.162393	-385.869468	-385.863157	-385.862213	-385.899533	28.177	
O	-0.1001596818	 1.3684389329	 0.0253493691	-0.513183
C	 0.0545583379	-0.0260498876	 0.0075251735	 0.397598
C	 0.7839042013	-0.6840883893	-1.1958839249	-0.27417
C	 0.373964783	-2.1142705655	-0.8231128352	-0.058194
C	-1.1672461366	-2.057779676	-0.7710162812	-0.080173
C	-1.1665422113	-2.076967198	 0.7352536395	-0.080165
C	-1.3214447957	-0.7588939264	-0.0011337317	-0.067339
C	 0.3747172633	-2.1347199061	 0.7844763413	-0.058195
C	 0.7850311781	-0.7144843557	 1.1931292156	-0.274109
H	 0.7768295235	 1.7651474437	 0.0286414283	 0.275506
H	 0.3686758049	-0.3683698457	-2.1577563127	 0.097318
H	 1.8650675412	-0.501930451	-1.1869375909	 0.078992
H	 0.8521319212	-2.9474330225	-1.3341481817	 0.065084
H	-1.8842258602	-2.4475846523	-1.4829156713	 0.08022
H	-1.8828622746	-2.4847941925	 1.4376569585	 0.080221
H	-2.2455147924	-0.197558777	 0.0064499065	 0.089201
H	 0.8533369609	-2.9806238056	 1.2736897197	 0.065081
H	 1.8661833328	-0.5321414292	 1.1878049921	 0.078985
H	 0.3707130444	-0.4233143062	 2.1631008356	 0.097321
244.3982	322.0637	322.8197	428.1043	486.9519	546.0832	605.9126	644.8424	652.4798	758.832	778.6436	809.1147	813.8691	837.4973	896.2902	916.1196	918.8329	928.7878	965.1015	980.6481	1023.5275	1028.6189	1048.5008	1052.1047	1064.7268	1076.4692	1101.6809	1149.8851	1178.9588	1191.783	1220.8	1231.6129	1237.5796	1269.8314	1275.8311	1292.3655	1316.5356	1372.7475	1386.8453	1478.2944	1502.3665	3029.2347	3038.2111	3091.888	3096.6356	3128.8994	3137.7474	3179.0143	3189.6925	3216.4362	3815.9056
OC12CC3C4C(C14)C3C2	O[C@]12C[C@@H]3[C@H]4[C@H]([C@@H]14)[C@@H]3C2	
InChI=1S/C8H10O/c9-8-1-3-4(2-8)6-5(3)7(6)8/h3-7,9H,1-2H2	InChI=1S/C8H10O/c9-8-1-3-4(2-8)6-5(3)7(6)8/h3-7,9H,1-2H2/t3-,4+,5-,6+,7-,8-
