17
gdb 85028	2.34898	1.73639	1.06882	2.2652	71.06	-0.2618	-0.0032	0.2587	1112.3069	0.136452	-455.219639	-455.21093	-455.209985	-455.253187	31.411	
C	-0.0319887382	 1.5397088359	-0.0201728585	-0.394746
C	 0.0476549225	 0.0224354814	 0.024913448	 0.043316
O	 0.8291709992	-0.4819502794	-1.0802571581	-0.25171
C	 1.864456369	-1.2277597982	-0.6297297249	 0.492303
O	 2.6738549607	-1.7676049423	-1.3281893541	-0.386571
N	 1.8181827975	-1.2515615646	 0.765049092	-0.177252
C	 2.7953811746	-1.9569043972	 1.5649788963	-0.364188
C	 0.7540312109	-0.517521156	 1.2571204053	 0.354088
N	 0.3816364851	-0.2878266464	 2.4472666199	-0.5498
H	 0.9690576054	 1.9784489502	 0.0159668018	 0.130494
H	-0.5280715101	 1.8683750097	-0.9364848865	 0.135477
H	-0.5991650126	 1.8909399886	 0.8450528231	 0.153382
H	-0.9517651346	-0.4186227444	-0.0515482945	 0.130224
H	 3.500566233	-2.4270583058	 0.8791169357	 0.17814
H	 3.3325099065	-1.2647789379	 2.2222030863	 0.142724
H	 2.3136900888	-2.7266967977	 2.177023594	 0.143345
H	 0.9872041923	-0.7355985759	 3.1355449044	 0.220773
82.4224	144.1111	146.3408	175.1454	225.2543	260.5923	283.4152	377.7444	411.059	582.5572	616.0573	658.1686	704.4116	745.0366	769.885	857.4391	907.894	938.999	1042.5866	1085.0369	1107.701	1129.2924	1153.0566	1160.0692	1241.926	1295.9362	1347.0671	1359.7869	1404.2135	1426.4053	1469.5258	1485.6265	1492.6552	1493.5501	1515.9933	1758.8787	1890.546	3034.5505	3052.1428	3059.9023	3093.3549	3131.0194	3141.5045	3158.1414	3478.6373
CC1OC(=O)N(C)C1=N	C[C@H]1OC(=O)N(C)[C]1[NH]	
InChI=1S/C5H8N2O2/c1-3-4(6)7(2)5(8)9-3/h3,6H,1-2H3	InChI=1S/C5H8N2O2/c1-3-4(6)7(2)5(8)9-3/h3,6H,1-2H3/t3-/m1/s1
