14
gdb 14544	4.86433	1.61247	1.47397	5.7074	62.26	-0.2501	0.0121	0.2621	848.5603	0.107944	-378.672442	-378.665615	-378.66467	-378.703256	26.176	
O	 0.0013295343	 1.3500905823	-0.0449619614	-0.471302
C	-0.032971449	-0.0363357032	-0.0062052093	 0.315475
C	 1.0610122554	-0.6235250003	 0.7308752591	 0.249458
N	 1.9228299788	-1.1187667111	 1.3215432917	-0.336784
C	-1.3450554433	-0.824874697	 0.0669526179	-0.147345
C	-2.4055586031	-0.0560002348	-0.7240620212	-0.197474
N	-1.4589841062	 0.075068576	-1.8906707023	-0.366995
C	-0.5128158952	-0.8241952804	-1.2066128207	-0.087462
H	-0.3194901792	 1.5806939539	-0.9339020309	 0.302173
H	-1.517692551	-1.5864419846	 0.8153201073	 0.123358
H	-3.269069855	-0.683804985	-0.9577172382	 0.123695
H	-2.740414505	 0.9017448894	-0.3162488872	 0.129012
H	-1.834884856	-0.3271677236	-2.7408140661	 0.241036
H	 0.0718888846	-1.5793951017	-1.7171293387	 0.123156
149.0466	159.4688	248.0772	293.1476	442.9695	488.5949	504.9465	559.6585	583.8687	687.9487	763.3048	798.8736	835.2256	903.5394	959.0777	987.3249	995.5339	1018.3348	1051.2935	1091.8321	1118.1293	1164.1452	1244.8639	1249.8536	1274.5941	1342.4447	1402.1384	1424.9601	1499.4471	2357.3534	3057.7536	3112.2122	3192.3515	3209.5595	3556.8947	3653.3663
OC1(C#N)C2CNC12	O[C@@]1(C#N)[C@H]2CN[C@@H]12	
InChI=1S/C5H6N2O/c6-2-5(8)3-1-7-4(3)5/h3-4,7-8H,1H2	InChI=1S/C5H6N2O/c6-2-5(8)3-1-7-4(3)5/h3-4,7-8H,1H2/t3-,4+,5-/m0/s1
