20
gdb 86449	1.94292	1.64929	0.94546	5.2686	76.62	-0.2479	0.0554	0.3033	1268.3601	0.171594	-440.353798	-440.34474	-440.343796	-440.387703	34.048	
C	-0.0239040832	 1.5736321219	 0.0521853837	-0.407152
C	 0.0078224892	 0.0475072927	-0.0291912908	 0.053764
C	 0.724401194	-0.4691828021	-1.2750808883	-0.213798
C	 0.9746256203	-1.9652371548	-1.1341944446	 0.132987
C	 1.7039305417	-2.5851822609	-2.3149881263	-0.402567
O	 1.790993759	-2.2214341675	 0.0253332595	-0.256912
C	 1.5570565863	-1.5624690608	 1.1911744191	 0.460118
O	 2.120262202	-1.902622678	 2.202316413	-0.397075
N	 0.6824016083	-0.5088867562	 1.1374581129	-0.370838
H	 0.9912869612	 1.9824167145	 0.0628072066	 0.13023
H	-0.5611251068	 1.9911415594	-0.8048709852	 0.123513
H	-0.5370814766	 1.907592796	 0.9605419671	 0.119765
H	-1.0322712983	-0.315923594	-0.0588560886	 0.083679
H	 0.1180744458	-0.2688498123	-2.1636681397	 0.108851
H	 1.6856555956	 0.0447522114	-1.3987453454	 0.112906
H	 0.0128118254	-2.4793380575	-0.9873911888	 0.087267
H	 2.6593262045	-2.079502182	-2.484062133	 0.129271
H	 1.9046876468	-3.642054588	-2.123064947	 0.136789
H	 1.0980511681	-2.5038645531	-3.2224503693	 0.116838
H	 0.5357544869	-0.0753350086	 2.0352314153	 0.252363
71.3108	114.2532	146.3458	232.6197	248.5179	262.9988	310.5603	422.3231	458.0327	459.6591	486.3249	517.4307	565.0404	650.1521	761.4236	843.1457	886.8494	893.2122	941.1035	987.115	1014.2398	1036.5547	1063.3314	1121.859	1160.5732	1175.0008	1213.7952	1234.8961	1296.0317	1318.8529	1374.648	1380.6361	1400.0633	1410.5257	1414.8862	1415.6294	1460.9668	1477.6122	1486.0086	1496.3015	1499.2171	1500.4702	1840.6711	2960.6668	2992.5268	3033.0901	3037.6173	3045.731	3093.2417	3102.7839	3116.5094	3119.6357	3128.362	3639.9084
CC1CC(C)OC(=O)N1	C[C@H]1C[C@@H](C)OC(=O)N1	
InChI=1S/C6H11NO2/c1-4-3-5(2)9-6(8)7-4/h4-5H,3H2,1-2H3,(H,7,8)	InChI=1S/C6H11NO2/c1-4-3-5(2)9-6(8)7-4/h4-5H,3H2,1-2H3,(H,7,8)/t4-,5+/m0/s1
