18
gdb 117855	4.23015	0.77476	0.71823	3.1413	75.76	-0.2504	0.0257	0.2762	1600.748	0.146606	-435.292894	-435.282832	-435.281888	-435.328787	35.226	
C	-0.4674096643	 1.6059818828	 0.2767740932	-0.392969
C	-0.1056858211	 0.1329288855	 0.285407413	-0.029826
O	-1.2355996661	-0.5874712677	-0.2368971692	-0.260704
C	-1.1396611735	-1.9265997916	-0.2813331426	 0.487156
N	-2.3339953787	-2.4783895802	-0.6869961706	-0.569698
N	-0.0639931385	-2.5242454106	 0.070211886	-0.346263
C	-0.0597572672	-3.9736191801	 0.0969100948	-0.286451
C	-0.281477349	-4.6079730767	-1.2178131178	 0.249159
N	-0.5082393194	-5.0588032123	-2.2587962943	-0.323423
H	 0.3695076627	 2.1932005769	 0.6658576952	 0.12393
H	-0.6863906184	 1.9496134704	-0.7381959844	 0.129108
H	-1.3436958704	 1.7981152199	 0.9024218332	 0.128322
H	 0.7692553438	-0.0798110573	-0.3362050526	 0.124229
H	 0.114080771	-0.2319744072	 1.2934441249	 0.119892
H	-2.9837936744	-1.8124539651	-1.0779563138	 0.263277
H	-2.2746023138	-3.3418726195	-1.2075986409	 0.278893
H	 0.9116702263	-4.3135663488	 0.4698528877	 0.156605
H	-0.821523489	-4.3814240481	 0.7806266081	 0.148762
45.7162	70.6939	107.8735	144.7961	164.6752	241.9214	264.2126	294.8018	353.8834	374.5912	433.1808	500.988	557.6151	595.7361	719.202	746.3266	810.0238	841.0457	898.6497	946.3743	1008.1018	1040.5097	1125.0466	1136.0525	1184.9983	1187.4464	1275.2872	1287.5042	1350.5481	1364.4125	1410.854	1441.0175	1469.0194	1485.7549	1497.4965	1522.8234	1647.0109	1727.0391	2341.5899	2984.871	3046.3212	3054.4394	3071.4922	3091.8908	3121.9074	3125.896	3567.112	3673.7992
CCOC(N)=NCC#N	CCOC(=NCC#N)N	
InChI=1S/C5H9N3O/c1-2-9-5(7)8-4-3-6/h2,4H2,1H3,(H2,7,8)	InChI=1S/C5H9N3O/c1-2-9-5(7)8-4-3-6/h2,4H2,1H3,(H2,7,8)
