18
gdb 66598	3.04356	1.98403	1.89228	0.8691	80.25	-0.1931	-0.0867	0.1064	848.6169	0.147999	-364.642535	-364.635645	-364.634701	-364.673175	28.812	
C	 0.1873403882	 1.5763913309	 0.1528184647	-0.515361
C	 0.0265154684	 0.0868446126	 0.053947649	 0.334107
C	 0.0367661089	-0.8623991191	 1.2376708654	-0.142797
C	 1.1367159321	-0.9295649298	 0.2210961109	-0.075371
N	 0.6036683558	-2.1278703878	-0.4935289199	-0.176609
C	 0.0247669846	-1.518131394	-1.7766482518	-0.190496
C	-0.9039435126	-0.5933970991	-0.9698908144	-0.03737
C	-1.7392738882	-1.4943957666	-0.3406534212	-0.148265
C	-0.6778532197	-2.0314213738	 0.5788189226	-0.020754
H	 0.9298907813	 1.8370084393	 0.9147394642	 0.119105
H	 0.5221814513	 2.0062925435	-0.7980035478	 0.120934
H	-0.7550666799	 2.0636342221	 0.4260438621	 0.125803
H	 0.0551326701	-0.5933715493	 2.2851341853	 0.092202
H	 2.1968829636	-0.7126489344	 0.2861988835	 0.087984
H	 0.8397756755	-1.0400657627	-2.3267591556	 0.113315
H	-0.4793912374	-2.2626053117	-2.3913544658	 0.116972
H	-2.3310769816	-2.194280473	-0.9275965789	 0.104567
H	-0.8239257005	-2.9762303472	 1.0975675977	 0.092035
189.0588	208.0944	232.38	323.9453	444.5316	537.5485	544.1689	574.0861	638.9691	700.7154	708.4489	769.2058	802.4438	841.6922	882.3143	906.1823	913.8548	945.8859	966.8794	992.5675	1000.4877	1038.2118	1043.6076	1083.5849	1117.4371	1139.9562	1154.3539	1183.899	1210.3258	1217.7583	1253.9726	1269.5419	1313.5772	1385.8589	1417.9781	1454.0002	1485.1974	1491.3893	1501.0596	3024.4153	3070.1917	3086.2585	3094.6492	3129.919	3143.3394	3152.2298	3172.8401	3204.8455
CC12C3C1N1CC2=CC31	C[C@]12[C@@H]3[C@H]1N1C[C]2[CH][C@H]31	
InChI=1S/C8H9N/c1-8-4-2-5-6(8)7(8)9(5)3-4/h2,5-7H,3H2,1H3	InChI=1S/C8H9N/c1-8-4-2-5-6(8)7(8)9(5)3-4/h2,5-7H,3H2,1H3/t5-,6+,7-,8+/m1/s1
