15
gdb 9080	4.94527	0.91517	0.7989	3.3139	63.21	-0.2713	-0.0426	0.2288	1340.7912	0.115189	-399.802312	-399.793181	-399.792237	-399.837652	30.078	
C	-0.1524347827	 1.5073951326	-0.0456766405	-0.402998
C	 0.0405572778	-0.0141699309	 0.0121510382	-0.002887
O	 0.6855478703	-0.5361411694	-1.1367681209	-0.252844
C	-0.1418237593	-0.6762435277	-2.2699625997	-0.155991
C	 0.6224168015	-1.4904416129	-3.3043199479	 0.141381
O	 0.2267894084	-1.6646030571	-4.4245475363	-0.230364
C	 0.8665750931	-0.3896705992	 1.1727941426	 0.283263
N	 1.4924820086	-0.6618237872	 2.1039352161	-0.307652
H	 0.8119582314	 2.0020377087	-0.1811789487	 0.152562
H	-0.8103752718	 1.7728228236	-0.8768473954	 0.133213
H	-0.6081873576	 1.8668545912	 0.8805491989	 0.146942
H	-0.9395575979	-0.5020940605	 0.1402605021	 0.121864
H	-1.0738823984	-1.2138719683	-2.026285958	 0.130105
H	-0.4241072006	 0.2877651973	-2.7169760213	 0.134487
H	 1.5751778372	-1.9166786201	-2.9233403992	 0.108921
51.1498	54.7667	82.2836	130.0234	197.928	222.7711	284.1748	344.7787	416.1313	490.3809	566.6284	619.2666	745.8067	827.7623	917.2684	1023.0041	1079.7649	1096.7221	1111.3892	1121.6558	1168.3518	1240.8049	1332.9656	1343.4231	1379.94	1403.0377	1412.1768	1479.445	1487.5107	1495.3785	1847.0086	2370.1649	2914.3264	2971.2649	2978.1907	3025.5933	3054.8829	3131.6236	3142.5514
CC(OCC=O)C#N	C[C@@H](OCC=O)C#N	
InChI=1S/C5H7NO2/c1-5(4-6)8-3-2-7/h2,5H,3H2,1H3	InChI=1S/C5H7NO2/c1-5(4-6)8-3-2-7/h2,5H,3H2,1H3/t5-/m1/s1
