12
gdb 20780	3.3353	2.426	1.41666	1.8287	61.9	-0.2699	-0.0939	0.176	801.7265	0.082233	-410.75073	-410.743802	-410.742858	-410.782242	25.054	
C	 0.0603227171	 1.4852939969	-0.0124617021	-0.459501
C	-0.0130394376	-0.0061400964	 0.0221142363	 0.358307
N	-0.1424425394	-0.6316524297	-1.0979871106	-0.117469
O	-0.20985027	-2.0075477172	-1.0662610212	-0.236067
N	-0.1410157988	-2.7444547941	 0.1566889536	 0.076026
N	-0.0176655588	-2.1434001551	 1.221621034	-0.169399
C	 0.06075176	-0.7191771722	 1.2913367855	 0.309688
N	 0.1891243296	-0.122013986	 2.4068741697	-0.473521
H	 0.9983868698	 1.824275882	 0.4378860613	 0.15957
H	-0.010730077	 1.8393178467	-1.0417730564	 0.149362
H	-0.7473857896	 1.9136097367	 0.5890740276	 0.15954
H	 0.2200688947	-0.8110290017	 3.1636721523	 0.243465
55.6259	178.4353	281.5556	288.1804	400.2881	468.332	497.9345	510.6155	568.7851	604.0692	735.0656	785.8192	901.694	929.4325	941.4261	1059.1155	1059.2926	1078.5319	1246.4537	1397.2504	1427.4995	1462.3421	1465.2434	1608.9356	1661.0356	1720.9908	3050.354	3110.8606	3154.4485	3446.6181
CC1=NON=NC1=N	CC1=NO[N]N=C1[NH]	
InChI=1S/C3H4N4O/c1-2-3(4)5-7-8-6-2/h4H,1H3	InChI=1S/C3H4N4O/c1-2-3(4)5-7-8-6-2/h4H,1H3
