13
gdb 14808	2.59494	2.19732	1.33078	4.0229	63.32	-0.2824	-0.0073	0.2751	882.8165	0.094491	-361.409113	-361.401576	-361.400632	-361.441523	26.588	
C	-0.2315705945	-1.2370203548	-0.2511664566	-0.432841
C	-0.1598268607	-0.0466705536	-0.105582219	 0.337825
C	-0.0651028411	 1.3810064824	 0.0823493892	-0.253537
C	 0.0897935005	 1.9446370969	 1.5216656291	-0.078989
O	 1.2290494131	 2.7427918561	 1.1275556733	-0.264613
C	 1.3039007944	 2.1130397797	-0.1595481749	-0.025619
C	 2.4836890907	 1.2550084993	-0.3060001159	 0.298109
N	 3.4195216475	 0.5891996615	-0.4303421073	-0.315346
H	-0.2853326924	-2.2898530486	-0.3824794938	 0.212031
H	-0.8552950373	 1.8984457358	-0.467292226	 0.130416
H	-0.7327070265	 2.5627325195	 1.8914604763	 0.125635
H	 0.3585067357	 1.1882219949	 2.2660154944	 0.131198
H	 1.2966828606	 2.8458695008	-0.9733902288	 0.135732
65.9375	102.3922	189.6872	212.5639	268.1226	430.7847	494.7584	540.0845	608.4034	642.8358	665.7581	728.317	820.6756	905.9802	977.2324	1016.6475	1038.1413	1063.5956	1113.7491	1162.462	1207.9111	1252.7854	1335.1692	1346.1693	1370.4955	1522.0384	2244.5998	2359.3319	3046.1696	3055.8082	3079.0409	3107.6553	3501.4752
C#CC1COC1C#N	C#C[C@H]1CO[C@H]1C#N	
InChI=1S/C6H5NO/c1-2-5-4-8-6(5)3-7/h1,5-6H,4H2	InChI=1S/C6H5NO/c1-2-5-4-8-6(5)3-7/h1,5-6H,4H2/t5-,6-/m0/s1
