19
gdb 53982	2.74365	1.12217	0.96433	1.7474	74.25	-0.2511	0.014	0.2651	1284.1922	0.156589	-456.384806	-456.374372	-456.373427	-456.420518	37.585	
C	 0.5698857276	 1.5909900346	 0.657468569	-0.417673
C	 0.3256509812	 0.1283604673	 0.2686013019	 0.253166
C	 0.6498515643	-0.8437707937	 1.4087569071	-0.417759
O	-1.0266519998	-0.0650601485	-0.2147619481	-0.247304
C	-2.0750372394	 0.1515088408	 0.6013982327	 0.120268
N	-3.2457027433	-0.0226485907	 0.1606945682	-0.446587
C	 1.2580266926	-0.2083555146	-0.9222336627	 0.384486
N	 0.6438174756	-0.5813946082	-2.0668228572	-0.524599
O	 2.4650395722	-0.1263728075	-0.78460291	-0.388259
H	 1.6399009718	 1.736769681	 0.8162051072	 0.156898
H	 0.240353474	 2.25824443	-0.1438571958	 0.134224
H	 0.0394228336	 1.8566917945	 1.5762479499	 0.113063
H	 0.1196473598	-0.5772653682	 2.327446998	 0.113079
H	 0.3755747507	-1.8646229192	 1.128438206	 0.13424
H	 1.7236112604	-0.8106040895	 1.601944815	 0.156916
H	-1.8043030715	 0.4715365244	 1.6126492874	 0.09699
H	-3.9250610203	 0.179693385	 0.891194849	 0.230531
H	-0.3592549482	-0.6293674921	-2.1181105678	 0.284667
H	 1.2141298888	-0.8077836454	-2.8642388398	 0.263654
47.4735	74.8556	117.8137	154.2964	215.3982	261.4641	272.718	306.2629	326.3743	332.1799	393.4582	422.5398	428.2033	542.0788	636.0104	637.0043	750.143	779.3325	820.6342	862.8114	936.5904	976.314	1022.4339	1043.5113	1101.0646	1108.1266	1193.1918	1198.1427	1226.9037	1291.615	1380.61	1389.8431	1405.8233	1424.5111	1478.6863	1487.0753	1498.1445	1509.5852	1594.4164	1737.7397	1793.8595	3045.9371	3047.6345	3068.5389	3117.8116	3120.7119	3142.8421	3146.8471	3518.6322	3603.1936	3743.3638
CC(C)(OC=N)C(N)=O	CC(C)(O[CH][NH])C(=O)N	
InChI=1S/C5H10N2O2/c1-5(2,4(7)8)9-3-6/h3,6H,1-2H3,(H2,7,8)	InChI=1S/C5H10N2O2/c1-5(2,4(7)8)9-3-6/h3,6H,1-2H3,(H2,7,8)
