19
gdb 78463	3.46557	1.45205	1.4171	1.7079	77.54	-0.2329	0.0092	0.2421	1013.4282	0.161343	-385.85972	-385.852769	-385.851825	-385.890631	29.229	
C	 0.0304777352	 1.587416006	 0.0415792454	-0.426495
C	-0.0049085174	 0.0732517795	 0.0095600636	-0.018645
C	 1.2716689195	-0.6828541934	-0.2700480873	-0.057594
C	 0.6703398549	-0.6981371275	 1.1179461621	-0.057589
C	 0.4210390616	-2.2303129884	 1.3276870569	-0.001485
O	 1.5736274622	-2.7832325561	 0.6619914956	-0.246069
C	 1.2664749539	-2.2088319209	-0.6237172579	-0.001492
C	-0.1713920248	-2.6843414604	-0.8196025454	-0.082689
C	-0.7014887615	-2.6977688422	 0.4039122262	-0.082708
H	 0.9742394506	 1.9588280486	 0.4543855048	 0.115178
H	-0.0789322472	 2.003976391	-0.9656498111	 0.118376
H	-0.7822697237	 1.9860686495	 0.6584444313	 0.118377
H	-0.92206455	-0.3444143644	-0.3923852534	 0.085133
H	 2.1807733602	-0.1326539717	-0.483660323	 0.088251
H	 1.1318977635	-0.1593135483	 1.9373697428	 0.088249
H	 0.3876204551	-2.5497765926	 2.3679902869	 0.074428
H	 2.0050665911	-2.5086751813	-1.3653239961	 0.074427
H	-0.6539159034	-2.8599748777	-1.7712378861	 0.106174
H	-1.72431029	-2.8870946597	 0.6993414846	 0.106175
195.9322	214.6906	247.6319	305.0489	365.9383	496.0724	514.3461	612.5796	715.4498	736.2395	767.9394	773.9662	843.3853	847.7355	876.9805	895.0082	912.9644	937.9291	951.7921	971.601	973.852	1003.9511	1015.2554	1073.5524	1094.4736	1096.7638	1140.0236	1146.2419	1194.6886	1236.826	1241.8554	1250.1723	1269.7173	1306.2298	1327.6344	1337.6273	1415.4615	1425.3547	1495.5798	1499.756	1637.0457	3028.5758	3092.601	3096.8628	3132.5725	3135.6426	3160.3009	3170.4657	3180.2151	3216.5982	3242.3333
CC1C2C1C1OC2C=C1	C[C@H]1[C@H]2[C@@H]1[C@@H]1O[C@H]2C=C1	
InChI=1S/C8H10O/c1-4-7-5-2-3-6(9-5)8(4)7/h2-8H,1H3	InChI=1S/C8H10O/c1-4-7-5-2-3-6(9-5)8(4)7/h2-8H,1H3/t4-,5-,6+,7+,8-
