22
gdb 101098	3.31548	1.03632	0.92397	1.8935	81.91	-0.2251	0.0716	0.2967	1347.0031	0.19428	-404.264348	-404.255083	-404.254139	-404.298717	35.041	
C	-0.0222679159	 1.5642903899	-0.0080470134	-0.401886
C	 0.0474127585	 0.0310078555	-0.0077085838	-0.127689
C	 0.7072169493	-0.4984822328	-1.2828582449	-0.078448
O	-0.083873763	-0.0982336674	-2.392146916	-0.421893
C	 0.7560054997	-0.5000084226	 1.2232725211	 0.338005
C	 2.2212389308	-0.2977941251	 1.700927454	-0.207506
N	 1.648152438	-1.1815299101	 2.8203489385	-0.146565
C	 0.4138487832	-0.2686141485	 2.716278077	-0.219493
C	 0.9883028554	-1.9660548484	 1.6750465575	-0.220431
H	 0.9831372652	 2.0012874938	 0.0156457299	 0.109722
H	-0.523641177	 1.9205807936	-0.9100645664	 0.135897
H	-0.5693786908	 1.9364608729	 0.8634709569	 0.112153
H	-0.9787249035	-0.3635340892	 0.0031696928	 0.082907
H	 1.7316747653	-0.097544564	-1.3600398854	 0.085365
H	 0.7863156438	-1.5958839071	-1.2319189071	 0.086458
H	 0.357627045	-0.3835886899	-3.1970255174	 0.286871
H	 3.0235889412	-0.7815407965	 1.1357700056	 0.096157
H	 2.5234508756	 0.6955425661	 2.0448313788	 0.099542
H	 0.5744431258	 0.7277612511	 3.1378149724	 0.0993
H	-0.4993362108	-0.7239438038	 3.1113181788	 0.097422
H	 0.1192392922	-2.551133915	 1.990888039	 0.097959
H	 1.694367152	-2.5806295526	 1.1087226721	 0.096154
55.1807	98.5072	144.4181	195.2919	235.017	247.9728	289.9082	353.618	396.7628	459.6776	589.3738	595.327	685.4135	795.9114	798.8005	855.8591	907.4879	928.0796	937.0109	959.5727	974.3556	987.9283	1027.2567	1040.9611	1074.2492	1096.1994	1146.2262	1163.4728	1167.2048	1170.8717	1182.2456	1200.6092	1203.3206	1253.8644	1261.0965	1272.9041	1314.3469	1351.8427	1372.9976	1402.8008	1457.985	1494.5833	1505.2265	1511.2325	1513.2039	1520.9928	1566.3464	2959.3626	2988.615	3013.2296	3033.2199	3039.9869	3040.718	3051.2824	3097.5358	3104.0945	3109.9408	3111.3142	3132.5708	3833.7826
CC(CO)C12CN(C1)C2	C[C@@H](CO)[C@@]12CN(C1)C2	
InChI=1S/C7H13NO/c1-6(2-9)7-3-8(4-7)5-7/h6,9H,2-5H2,1H3	InChI=1S/C7H13NO/c1-6(2-9)7-3-8(4-7)5-7/h6,9H,2-5H2,1H3/t6-/m0/s1
