21
gdb 122942	6.11223	0.49934	0.47954	2.7001	78.1	-0.2547	-0.0387	0.216	2257.9415	0.179091	-461.359926	-461.349057	-461.348113	-461.397315	37.25	
C	-0.0342286036	 1.416097631	 0.0123437784	-0.227342
O	-0.0165782984	 0.0099827234	-0.0022538646	-0.229278
C	 0.6425987044	-0.5200685964	-1.1301920669	-0.052842
C	 0.5925904084	-2.0397564153	-1.0503411577	-0.196276
C	 1.3073673381	-2.7110483126	-2.2259007888	-0.212297
C	 1.1833448153	-4.2451539775	-2.1753734938	 0.047649
O	-0.1549780417	-4.6567457453	-2.2322722274	-0.431646
C	 1.9757083539	-4.8761819558	-3.3010941887	 0.136806
O	 1.4624002874	-5.6122718186	-4.1089285186	-0.260167
H	 0.983398736	 1.8390028115	 0.0298693149	 0.101054
H	-0.5591554032	 1.8287659109	-0.8643129492	 0.102746
H	-0.5609525014	 1.7285666748	 0.9173620468	 0.127152
H	 0.1594433074	-0.1684730421	-2.059315362	 0.084549
H	 1.6896137105	-0.1674452845	-1.1634492446	 0.07871
H	 1.0475687718	-2.3572265729	-0.1040865063	 0.105023
H	-0.4517922222	-2.3643273047	-1.02720497	 0.135047
H	 0.8799118487	-2.3642481675	-3.1754600445	 0.110424
H	 2.3715112133	-2.4379887656	-2.2298872203	 0.095808
H	 1.6507843479	-4.5932805195	-1.2342349806	 0.093204
H	-0.213602227	-5.2506767002	-2.997360372	 0.294623
H	 3.0547789542	-4.6216577433	-3.3463314441	 0.09705
49.3963	66.6064	75.2188	113.6453	137.3817	153.5525	236.8988	243.9026	275.0274	328.9421	384.5637	428.6041	489.9518	508.2245	746.9596	765.9327	841.444	861.8928	960.8073	989.984	997.9113	1064.027	1076.5228	1134.5084	1164.7786	1173.7167	1186.4006	1219.4638	1229.8855	1253.8209	1291.4422	1300.5116	1317.351	1351.931	1378.7994	1404.7603	1428.8166	1440.4341	1475.1582	1482.2141	1485.9078	1499.0578	1507.2862	1533.3797	1813.8313	2919.039	2934.271	2935.8943	2959.5483	2967.0687	3007.9234	3013.1628	3039.0573	3057.9041	3102.2279	3113.1031	3691.7461
COCCCC(O)C=O	COCCC[C@@H](O)C=O	
InChI=1S/C6H12O3/c1-9-4-2-3-6(8)5-7/h5-6,8H,2-4H2,1H3	InChI=1S/C6H12O3/c1-9-4-2-3-6(8)5-7/h5-6,8H,2-4H2,1H3/t6-/m1/s1
