17
gdb 51037	2.45703	1.27129	0.98728	4.1598	75.46	-0.2681	0.0034	0.2715	1224.8092	0.133361	-421.799825	-421.79079	-421.789845	-421.834101	32.757	
O	-0.2774437571	-0.0310096854	-0.2713075588	-0.273542
C	-0.1653410905	 1.1494052776	-0.1274943063	 0.15957
O	 1.0330570974	 1.768605101	-0.1936369556	-0.228834
C	 1.0738465845	 3.1862231689	 0.0554704767	 0.223946
C	 0.9409710626	 3.6324991804	 1.5483402041	-0.26796
C	 2.1866371921	 4.5352997719	 1.3480777986	-0.214671
C	 2.5361879135	 3.7123713719	 0.0794526319	-0.264578
C	 0.2055246558	 3.9204532283	-0.855148057	 0.314993
C	-0.5048153505	 4.5425005419	-1.5992354294	-0.477305
H	-1.0056167342	 1.8392901175	 0.0656112639	 0.092986
H	 0.0001320068	 4.0974651649	 1.845540502	 0.116264
H	 1.1540118061	 2.7806514265	 2.1989730844	 0.1245
H	 1.9115843589	 5.5641979111	 1.1070303082	 0.121214
H	 2.9246172603	 4.5460414375	 2.1508020341	 0.113439
H	 3.2062781882	 2.8787188434	 0.3002201449	 0.129578
H	 2.8834916702	 4.2387545735	-0.8097379228	 0.120243
H	-1.1328674643	 5.085253499	-2.2625289089	 0.210157
69.7905	112.4516	115.8382	158.4124	181.2043	236.0224	383.7627	390.9663	475.1389	520.6154	552.9996	627.6053	681.6469	693.9981	772.3965	796.8629	874.1982	928.8197	936.3752	970.718	1042.6386	1051.8424	1060.976	1112.3259	1156.6885	1196.2307	1212.9852	1253.3097	1277.5979	1284.5403	1293.4635	1432.3561	1468.0176	1484.0429	1502.5409	1862.4645	2231.7178	2986.7691	3071.7826	3080.0599	3082.6697	3127.1674	3139.579	3149.2173	3497.8444
O=COC1(CCC1)C#C	O=COC1(CCC1)C#C	
InChI=1S/C7H8O2/c1-2-7(9-6-8)4-3-5-7/h1,6H,3-5H2	InChI=1S/C7H8O2/c1-2-7(9-6-8)4-3-5-7/h1,6H,3-5H2
