21
gdb 91597	2.07953	1.97667	1.40683	2.971	80.83	-0.2297	-0.0085	0.2212	1032.1652	0.185083	-387.140366	-387.132613	-387.131669	-387.172374	31.525	
C	-0.2306000866	 1.5509997704	 0.0041098926	-0.415094
C	 0.0277345259	 0.0447613558	 0.0009628537	 0.037974
C	 0.8798810196	-0.4815851028	-1.2035453206	-0.229838
C	 1.9935477231	-1.316553336	-0.5281259491	-0.014417
C	 1.2582448933	-1.8879445982	 0.7092986319	-0.242137
C	 0.8065224235	-0.509039792	 1.2393130264	-0.122071
C	 2.13960336	 0.2360526506	 1.2927743903	 0.434868
O	 2.468024709	 1.1031886891	 2.0607554616	-0.341541
C	 2.9843895572	-0.343155234	 0.1415433392	-0.326763
H	 0.7022304308	 2.1239757817	 0.0089867647	 0.128322
H	-0.8002573558	 1.8465742556	-0.8831337523	 0.112965
H	-0.8044108568	 1.8522307312	 0.8866748817	 0.120232
H	-0.9409394253	-0.468040834	-0.0031229424	 0.078446
H	 0.2748217716	-1.0963859916	-1.8759772431	 0.097829
H	 1.2937566215	 0.3385076389	-1.7995566721	 0.09781
H	 2.4651743413	-2.0500637594	-1.1838235295	 0.065263
H	 0.4161555575	-2.5372675469	 0.4518556228	 0.099294
H	 1.9205158585	-2.4253081134	 1.3954053927	 0.099965
H	 0.249342663	-0.4639823132	 2.1747585043	 0.074548
H	 3.8494538881	-0.8672040124	 0.5654534414	 0.123779
H	 3.3655827607	 0.4499021206	-0.5082271343	 0.120566
102.7414	136.6218	232.796	303.879	378.3596	409.5969	426.0705	480.3957	507.4714	597.6462	651.1265	764.2066	791.2159	803.6664	855.1153	894.0726	916.8046	923.9918	953.4302	962.5591	986.858	1012.0041	1043.9268	1085.053	1099.2866	1124.757	1141.6276	1157.1472	1187.074	1221.6652	1232.5331	1264.234	1280.5967	1302.0231	1326.2716	1338.6575	1346.7868	1367.6237	1420.6433	1448.1519	1492.8994	1497.6549	1500.3267	1512.2139	1848.6561	3026.9261	3033.1976	3041.9734	3046.0078	3050.486	3087.1297	3096.1138	3098.9199	3100.3881	3100.5603	3106.3998	3123.5652
CC1CC2CC1C(=O)C2	C[C@H]1C[C@@H]2C[C@H]1C(=O)C2	
InChI=1S/C8H12O/c1-5-2-6-3-7(5)8(9)4-6/h5-7H,2-4H2,1H3	InChI=1S/C8H12O/c1-5-2-6-3-7(5)8(9)4-6/h5-7H,2-4H2,1H3/t5-,6+,7+/m0/s1
