23
gdb 81005	2.42644	1.46772	1.21515	1.2686	85.07	-0.2492	0.0769	0.3262	1173.3042	0.206227	-388.290359	-388.281303	-388.280359	-388.323217	36.317	
C	-0.1107171303	 1.5726244414	 0.0898686273	-0.434368
C	 0.0180737542	 0.0545086758	 0.0484869211	 0.013359
C	 0.7304497896	-0.5910307375	-1.186390886	-0.035667
C	 2.081493883	-0.2760983319	-0.483221934	-0.315985
C	 1.2279261677	-0.5806533538	 0.7909107087	 0.429095
O	 1.5390250939	-0.0969805853	 2.0612849788	-0.493624
C	 0.9390476392	-2.0876598134	 0.625314736	-0.302955
C	 0.5937902913	-2.1098792283	-0.904406027	 0.050093
C	-0.7526920119	-2.7357262449	-1.2616016933	-0.418481
H	 0.8028545343	 2.0928092683	-0.2082320497	 0.116706
H	-0.9133704487	 1.9049706929	-0.5774272067	 0.109298
H	-0.3595873374	 1.9026372	 1.1034154787	 0.127107
H	-0.9497950998	-0.3859756678	 0.3131068758	 0.058292
H	 0.5222816942	-0.2517568289	-2.2017831592	 0.055297
H	 2.9309528532	-0.9309758585	-0.7034510023	 0.078326
H	 2.3878750921	 0.767103059	-0.5503285324	 0.101562
H	 2.2475410241	-0.6357177575	 2.4291987681	 0.276586
H	 1.8060804468	-2.7096470949	 0.8755611227	 0.081144
H	 0.1005669414	-2.4062123904	 1.253176079	 0.097547
H	 1.375889308	-2.6459219869	-1.4547786626	 0.065955
H	-1.5857057747	-2.2338442751	-0.7586296494	 0.117512
H	-0.9351949348	-2.6836536631	-2.3409176428	 0.110556
H	-0.7821925953	-3.7914125689	-0.9705064308	 0.112642
168.8954	178.031	198.4188	208.5863	221.9668	242.7155	310.7836	393.2728	413.1864	443.7658	474.7441	549.1255	596.4978	661.88	784.1109	811.8848	828.3829	867.0045	911.1401	931.9842	949.6417	977.8956	1022.1723	1028.6607	1047.1693	1086.1622	1093.8084	1120.6535	1136.6818	1150.269	1177.9591	1198.3579	1220.5961	1237.7875	1250.0264	1269.5129	1306.8071	1322.4888	1362.5671	1379.5487	1408.7771	1413.1809	1416.	1487.3902	1496.134	1497.6268	1499.0349	1504.2124	1515.3723	3023.8354	3026.3801	3032.0882	3035.8972	3038.6499	3051.3242	3080.2954	3091.5479	3098.2609	3099.8182	3106.873	3115.4057	3144.2517	3805.8165
CC1C2CC1(O)CC2C	C[C@H]1[C@H]2C[C@]1(O)C[C@H]2C	
InChI=1S/C8H14O/c1-5-3-8(9)4-7(5)6(8)2/h5-7,9H,3-4H2,1-2H3	InChI=1S/C8H14O/c1-5-3-8(9)4-7(5)6(8)2/h5-7,9H,3-4H2,1-2H3/t5-,6+,7+,8-/m1/s1
