19
gdb 118376	1.6842	1.25454	0.7541	1.1471	84.4	-0.2596	0.0294	0.2891	1516.3921	0.154584	-385.813458	-385.802788	-385.801843	-385.849912	37.92	
C	 0.0217097145	 1.5150895461	 0.0421156807	-0.385005
C	 0.1937420167	 0.0077902013	 0.1078981299	-0.040563
O	 0.5339711139	-0.4538555259	-1.1913065239	-0.235108
C	 0.6952950541	-1.8528552458	-1.2904946858	-0.067355
C	 0.7487972393	-2.1949059473	-2.7968415858	-0.367894
C	-0.5073043147	-1.9191519658	-3.4802842044	 0.313481
C	-1.551146213	-1.711842255	-4.0377880923	-0.448974
C	 1.9082936546	-2.3255842514	-0.6069228597	 0.338896
C	 2.9078482223	-2.7098021591	-0.0608227992	-0.46219
H	 0.9518449104	 1.9936964499	-0.2767705686	 0.128843
H	-0.7634827441	 1.7812981758	-0.6708729795	 0.130103
H	-0.2517787941	 1.9081959482	 1.0258609089	 0.11529
H	 0.9819564835	-0.2651245859	 0.8249616963	 0.101239
H	-0.7383388861	-0.4769919285	 0.4420685727	 0.089227
H	-0.1773694587	-2.3622627999	-0.8495051956	 0.103344
H	 1.5638290641	-1.6127219541	-3.240814311	 0.149376
H	 1.0142033183	-3.2523396306	-2.9032736888	 0.141068
H	-2.4684135574	-1.5202939866	-4.5368467035	 0.195299
H	 3.7870596463	-3.0501386553	 0.4286520097	 0.200923
55.3502	78.1403	81.9556	121.174	168.7724	200.83	245.1807	258.205	343.704	368.3504	397.109	487.9807	552.6664	601.1457	615.3533	638.9488	650.1855	677.033	821.5696	829.1172	936.5176	948.2819	981.9071	1052.8469	1062.2679	1124.8056	1154.7865	1188.8017	1242.3423	1293.2415	1298.1406	1349.198	1366.5967	1401.0463	1434.8026	1458.554	1483.2781	1500.4567	1527.7404	2230.2497	2243.4067	2967.1859	2971.7668	3013.5394	3045.1707	3045.7706	3085.3265	3119.9225	3124.1277	3502.0779	3507.7018
CCOC(CC#C)C#C	CCO[C@@H](CC#C)C#C	
InChI=1S/C8H10O/c1-4-7-8(5-2)9-6-3/h1-2,8H,6-7H2,3H3	InChI=1S/C8H10O/c1-4-7-8(5-2)9-6-3/h1-2,8H,6-7H2,3H3/t8-/m1/s1
