19
gdb 76878	2.40654	1.90201	1.60009	1.6609	73.69	-0.2446	0.0039	0.2485	932.32	0.162188	-423.029045	-423.021793	-423.020849	-423.060291	30.289	
O	 0.1527384456	 1.412828714	 0.0707146338	-0.445009
C	 0.0423539314	 0.000177663	 0.0011926968	 0.096035
C	-1.4183323823	-0.5473529837	-0.1148665688	-0.083045
C	-1.1396886253	-1.925627594	-0.7596159433	-0.22642
C	-0.4366283163	-1.3226570373	-2.000665994	-0.090793
C	-1.4483187593	-0.2623539078	-2.4066730479	-0.048932
C	-2.0470114169	 0.1833195821	-1.2955470905	-0.131087
C	 0.7399481435	-0.5830698261	-1.2908331106	 0.125099
O	 1.3222243261	 0.4187562746	-2.087313814	-0.451067
H	-0.456949018	 1.7691127591	-0.5891418772	 0.282334
H	 0.5246768623	-0.3723613897	 0.9078464564	 0.088961
H	-1.976339126	-0.5267819581	 0.8213085022	 0.064786
H	-0.4873888936	-2.5685603519	-0.157839884	 0.095109
H	-2.0554693158	-2.4663530934	-1.0082170745	 0.103539
H	-0.1194430206	-2.0088620728	-2.7857690575	 0.06703
H	-1.5828824539	 0.1006634822	-3.4171593448	 0.105679
H	-2.7788942306	 0.9778809508	-1.2146170166	 0.099932
H	 1.5013319689	-1.3219601553	-1.001601788	 0.065873
H	 1.4246023809	 1.1856607544	-1.5053900075	 0.281977
123.7775	240.8444	257.1302	320.7938	391.2505	451.4839	472.909	532.8341	596.5025	638.7893	715.4313	746.8546	764.5349	786.0685	843.3718	885.7997	918.9532	925.5011	943.1144	960.0209	965.4274	991.3819	1054.6679	1101.3233	1115.9862	1138.1326	1152.2443	1175.6733	1189.8194	1240.4783	1274.6032	1282.54	1296.4798	1306.3567	1318.1899	1355.407	1386.717	1408.2326	1436.2727	1495.6048	1637.1056	2986.0463	3046.1616	3082.8288	3112.0901	3113.5607	3117.8014	3195.9629	3225.9756	3718.6066	3754.6563
OC1C2CC(C=C2)C1O	O[C@H]1[C@@H]2C[C@@H](C=C2)[C@H]1O	
InChI=1S/C7H10O2/c8-6-4-1-2-5(3-4)7(6)9/h1-2,4-9H,3H2	InChI=1S/C7H10O2/c8-6-4-1-2-5(3-4)7(6)9/h1-2,4-9H,3H2/t4-,5+,6-,7+
