20
gdb 92909	2.59378	1.51294	1.14468	1.4629	75.77	-0.2481	0.0155	0.2636	1138.4919	0.17077	-440.306528	-440.297335	-440.296391	-440.340239	34.57	
C	-0.0678119548	 1.5563360638	-0.0478503838	-0.406934
C	-0.0186973265	 0.0435193011	 0.0592356702	 0.128209
O	 0.5637208261	-0.4487731102	-1.1740797571	-0.244956
C	 1.1204597646	-1.6810971612	-1.1347091293	 0.104565
N	 1.284680382	-2.4618708699	-0.1524654311	-0.281477
C	 0.8352779869	-2.0155478412	 1.1758216699	 0.018317
C	 1.7207614637	-2.6453075526	 2.2503779339	-0.386104
C	 0.7927132557	-0.478917974	 1.2537198962	 0.084514
O	 2.0898372285	 0.0988499895	 1.2927290545	-0.437811
H	 0.9442836917	 1.9656199365	-0.0429774663	 0.13981
H	-0.5747597034	 1.8564646937	-0.9683878573	 0.125411
H	-0.6152608127	 1.9728084297	 0.8032111863	 0.119086
H	-1.0362891569	-0.3653725289	 0.1224599572	 0.086816
H	 1.4617886628	-1.9616296975	-2.1304447942	 0.126141
H	-0.1897132267	-2.3858074239	 1.3195433815	 0.087266
H	 2.7450398458	-2.2721990492	 2.1763211386	 0.121409
H	 1.3446596243	-2.4083399801	 3.2508723263	 0.107968
H	 1.7374598129	-3.7305775977	 2.1258562368	 0.123946
H	 0.3005459086	-0.158795252	 2.1786872526	 0.090743
H	 2.6102491172	-0.2916684759	 0.5810009552	 0.293078
66.2131	130.8444	216.4312	220.8595	233.2533	270.9432	286.4923	303.8857	376.8802	431.0057	453.4198	515.5885	658.6995	713.7135	768.7909	816.1394	874.2522	913.4638	955.7346	971.8503	1000.0426	1008.1575	1062.7415	1086.356	1148.107	1155.5054	1172.1463	1192.8256	1258.738	1287.9425	1331.7058	1354.4435	1375.6411	1382.2526	1401.752	1410.2293	1412.0976	1425.1615	1485.0141	1487.2408	1494.273	1496.7786	1717.9877	2998.3374	3018.2511	3045.3419	3050.0064	3058.3998	3117.9227	3122.0714	3133.4557	3143.068	3149.7278	3797.2833
CC1OC=NC(C)C1O	C[C@H]1OC=N[C@@H](C)[C@H]1O	
InChI=1S/C6H11NO2/c1-4-6(8)5(2)9-3-7-4/h3-6,8H,1-2H3	InChI=1S/C6H11NO2/c1-4-6(8)5(2)9-3-7-4/h3-6,8H,1-2H3/t4-,5+,6+/m0/s1
