19
gdb 119258	3.15618	0.81818	0.71181	2.1956	72.4	-0.2502	-0.0274	0.2227	1575.1748	0.155755	-460.140029	-460.129893	-460.128949	-460.176536	35.185	
O	-0.6176879231	 1.5193853446	-0.6818270104	-0.418922
C	-0.5139222445	 0.1184237888	-0.878788247	-0.07404
C	-1.5325441296	-0.539405225	 0.0500667029	-0.250784
C	-1.5903238684	-2.0493981635	-0.0826966423	 0.377206
C	-0.3713282593	-2.817834649	 0.4167259498	-0.358359
C	-0.4332452024	-4.3167211481	 0.1963620461	 0.144886
O	-0.1269857978	-5.1325197371	 1.0281871667	-0.244898
C	-2.9010479072	-2.7154210555	-0.1346245861	-0.231403
O	-2.1349424535	-2.5182984854	-1.3284901023	-0.270712
H	-0.0123148565	 1.9548173898	-1.2888843657	 0.288507
H	-0.7399793149	-0.1641087829	-1.9177470438	 0.107381
H	 0.5042531224	-0.235937942	-0.6519534634	 0.085463
H	-1.3011695224	-0.2668014724	 1.08664068	 0.113247
H	-2.5161783795	-0.1198429636	-0.1821303026	 0.116868
H	 0.5168022894	-2.4615302876	-0.1257908473	 0.132796
H	-0.2009367212	-2.6252008313	 1.480334757	 0.13241
H	-0.7653848209	-4.6188209474	-0.819075674	 0.10394
H	-3.0011232499	-3.7511145889	 0.1900033437	 0.124763
H	-3.8106076807	-2.1217927034	-0.0611812512	 0.121651
56.61	62.0542	76.7059	94.1045	167.3709	222.7995	261.8753	319.926	349.7461	357.4147	452.4263	466.7682	568.3253	720.8429	780.3471	807.8193	889.2773	907.0781	945.3543	1023.5043	1033.408	1066.8196	1082.3015	1103.7643	1133.2566	1170.5446	1195.6726	1230.9505	1242.3538	1245.6319	1310.5907	1329.5306	1345.6999	1410.9904	1424.8887	1452.8111	1462.3032	1480.1453	1530.008	1533.3295	1829.963	2918.1732	2970.006	3008.522	3014.3741	3043.1427	3081.2432	3091.8971	3094.9297	3168.798	3832.2158
OCCC1(CC=O)CO1	OCC[C@@]1(CC=O)CO1	
InChI=1S/C6H10O3/c7-3-1-6(2-4-8)5-9-6/h3,8H,1-2,4-5H2	InChI=1S/C6H10O3/c7-3-1-6(2-4-8)5-9-6/h3,8H,1-2,4-5H2/t6-/m0/s1
