18
gdb 22676	3.6053	0.9385	0.88981	1.9374	71.05	-0.254	-0.005	0.249	1340.5255	0.147066	-476.17901	-476.170134	-476.16919	-476.213111	32.82	
O	 0.0445964584	 1.0667694835	 0.7121839642	-0.423224
C	-0.0806238193	-0.3056606805	 0.4139296817	-0.057216
C	-1.3882967552	-0.5828469451	-0.3300752666	 0.080788
C	-1.7096871747	-2.0777708317	-0.4830294946	-0.335967
C	-2.5327092458	-2.3443822617	 0.7521751525	 0.367472
C	-3.009247462	-1.0209214088	 1.3013103049	-0.160766
O	-2.4850248995	-0.0285528884	 0.4225541268	-0.286415
N	-2.7323918809	-3.5047036894	 1.2278812052	-0.210421
O	-3.5352494669	-3.4321004165	 2.3818355652	-0.396254
H	-0.8254528431	 1.341954224	 1.0292474474	 0.28863
H	 0.7725178221	-0.5873188941	-0.2135292515	 0.108627
H	-0.0371065735	-0.9270815604	 1.3260815004	 0.085257
H	-1.3772469027	-0.0473483551	-1.2835502448	 0.094788
H	-2.3086035965	-2.2517320844	-1.3836915402	 0.13271
H	-0.8231040657	-2.7135196846	-0.5400565899	 0.133263
H	-4.1021204536	-0.9451962537	 1.3133820266	 0.138922
H	-2.6585179529	-0.8864155763	 2.3344848843	 0.129326
H	-3.5955907381	-4.3551965568	 2.6497714985	 0.31048
52.3616	107.7312	153.6384	220.8946	233.4001	286.1104	355.1542	376.1179	469.1413	476.5912	501.4583	556.0296	668.7744	741.1872	809.5317	842.9042	881.9354	970.6992	986.5174	1010.3093	1025.2562	1079.0148	1095.4329	1103.9725	1189.8675	1206.5003	1225.5806	1235.994	1278.7519	1315.4013	1334.9961	1363.0478	1394.3132	1408.7446	1442.6293	1471.5417	1494.8806	1508.1977	1768.6101	2950.3095	3007.2663	3047.6927	3061.8744	3063.9208	3080.8587	3109.6692	3768.9982	3820.579
OCC1CC(CO1)=NO	OC[C@H]1CC(=NO)CO1	
InChI=1S/C5H9NO3/c7-2-5-1-4(6-8)3-9-5/h5,7-8H,1-3H2	InChI=1S/C5H9NO3/c7-2-5-1-4(6-8)3-9-5/h5,7-8H,1-3H2/t5-/m1/s1
