16
gdb 126236	1.99868	1.65551	0.96269	4.9844	80.09	-0.2346	-0.0093	0.2253	1202.4784	0.124348	-396.9076	-396.899016	-396.898072	-396.941731	31.183	
C	-0.3734928254	 1.5733666323	-0.0909070119	-0.373449
C	 0.0599519871	 0.1026264206	 0.0492233638	-0.324075
C	 0.7814986381	-0.420119776	-1.1484874283	 0.230998
C	 2.1178756154	-0.7114418948	-1.3750436851	 0.128011
N	 2.2608414305	-1.1488265096	-2.6724225853	-0.268005
N	 1.1032207495	-1.1431820323	-3.2504300486	-0.121135
N	 0.204863824	-0.7033915141	-2.3392376921	-0.227331
C	 3.1935637704	-0.5998609173	-0.4656036444	 0.277753
C	 4.0958813176	-0.498726942	 0.324656008	-0.44259
H	 0.4930996659	 2.2198584691	-0.253877072	 0.140107
H	-1.0577289136	 1.7115810852	-0.9341892301	 0.116623
H	-0.8860561935	 1.9071010809	 0.8156839411	 0.126198
H	 0.7292369666	-0.0047456794	 0.9077165004	 0.140443
H	-0.8172265553	-0.5233952514	 0.2551486844	 0.119202
H	-0.7659242066	-0.6355785682	-2.6020654268	 0.281598
H	 4.9005646694	-0.4136694131	 1.0121646968	 0.195652
33.5321	130.7473	152.3953	178.1037	214.5252	321.236	372.224	498.9621	542.2388	572.3942	586.1088	601.7156	678.7502	681.3666	721.2719	772.893	791.8054	970.2829	1018.1715	1045.3543	1079.2798	1082.973	1173.1759	1238.4052	1295.3269	1306.6209	1357.843	1385.8857	1415.0213	1477.6972	1490.1807	1497.5406	1504.5006	1599.0432	2239.4079	3032.3451	3041.911	3088.325	3114.2795	3124.3849	3503.2919	3650.8976
CCC1=C(N=NN1)C#C	CCc1c(nn[nH]1)C#C	
InChI=1S/C6H7N3/c1-3-5-6(4-2)8-9-7-5/h1H,4H2,2H3,(H,7,8,9)	InChI=1S/C6H7N3/c1-3-5-6(4-2)8-9-7-5/h1H,4H2,2H3,(H,7,8,9)
