15
gdb 127163	4.29421	1.10173	0.88169	2.3474	72.66	-0.2251	-0.0456	0.1795	1231.6518	0.112862	-450.096739	-450.088581	-450.087637	-450.130233	28.98	
C	 0.063666512	 1.4760676213	-0.0082852487	-0.359681
N	 0.0073496914	 0.0220101495	 0.0083708307	-0.170314
C	-0.0510969359	-0.6727172425	 1.2059436682	 0.08272
N	-0.0576862344	-0.0704045262	 2.3271603434	-0.48765
C	 0.0144764774	-0.6348303007	-1.2045420212	 0.389292
C	 0.0675671724	-0.1430341827	-2.4759834082	-0.082721
O	 0.0495547156	-1.1885303801	-3.3194655586	-0.156194
N	-0.0160726148	-2.3456987637	-2.5387252442	 0.005899
N	-0.0355720253	-2.0068254093	-1.3199990906	-0.214118
H	 0.9827576976	 1.819865363	-0.4971772328	 0.132018
H	-0.7988660994	 1.8882650505	-0.5450256859	 0.132019
H	 0.0490898091	 1.818654784	 1.0246506114	 0.186161
H	-0.0886315085	-1.7520477661	 1.0517765508	 0.142646
H	-0.1039078243	-0.7451814866	 3.0863506634	 0.232002
H	 0.1171170871	 0.8405125396	-2.9064716777	 0.167922
56.344	115.0138	151.0459	184.5934	260.1619	324.3071	366.915	462.0758	485.9439	637.3763	715.3188	752.4812	763.3477	766.2545	802.4367	954.1434	1001.1251	1053.6135	1060.7459	1124.0408	1133.5906	1160.7506	1223.0036	1304.75	1340.2296	1389.6977	1418.9575	1438.7103	1469.2726	1499.2966	1510.7142	1665.5203	1716.482	3021.7258	3075.7857	3125.7117	3173.778	3309.5921	3525.8582
CN(C=N)C1=CON=N1	CN(C=N)c1conn1	
InChI=1S/C4H6N4O/c1-8(3-5)4-2-9-7-6-4/h2-3,5H,1H3	InChI=1S/C4H6N4O/c1-8(3-5)4-2-9-7-6-4/h2-3,5H,1H3
