20
gdb 97328	4.2963	0.74185	0.64055	3.1297	85.64	-0.2338	0.0121	0.2458	1777.496	0.169208	-436.506055	-436.495038	-436.494094	-436.543222	37.225	
C	 0.490579426	 1.7267781063	-0.6064531378	-0.309682
N	 0.7624573047	 0.3295547645	-0.8747992643	-0.251335
C	 0.1116596944	-0.5264315808	-0.2057846396	 0.124183
N	 0.3191696586	-1.8807796149	-0.4058287891	-0.4063
C	-0.4014106843	-2.8555118575	 0.2809629416	 0.540074
O	-1.2670795476	-2.5571674498	 1.0874730405	-0.418925
N	-0.052460145	-4.1517259342	-0.0179799533	-0.142548
C	-0.8470460669	-5.2270852152	 0.5532109425	-0.345461
C	 0.96201464	-4.5055183445	-0.9945920283	-0.357566
H	 1.4132977167	 2.2298055194	-0.2932797409	 0.123368
H	 0.1582841306	 2.2222096414	-1.5265725171	 0.123483
H	-0.2734505179	 1.8907580712	 0.169962451	 0.101392
H	-0.6414897594	-0.3185667069	 0.5589110919	 0.132343
H	 0.9926719327	-2.1136272634	-1.1172514085	 0.254593
H	-1.4125851181	-5.7604445238	-0.2221703746	 0.12064
H	-0.2031444542	-5.9484265258	 1.0696567388	 0.121765
H	-1.5441093131	-4.7898970993	 1.2657548869	 0.175128
H	 1.9020229556	-3.9727288729	-0.8126500474	 0.140249
H	 1.1778278211	-5.5716276632	-0.9016033305	 0.141961
H	 0.6440367263	-4.3196687206	-2.0307032617	 0.132636
51.871	69.2359	90.8438	118.9039	142.7219	156.8717	196.2726	210.3971	279.4294	327.039	361.9571	397.9677	446.533	567.8783	600.2661	642.4885	758.1963	875.7893	1013.806	1021.9621	1065.8309	1088.721	1132.3529	1143.4765	1143.9875	1166.6861	1179.9561	1266.8394	1301.0877	1340.9339	1392.9354	1434.2438	1446.9683	1472.322	1480.8675	1493.0541	1497.0121	1503.4236	1508.3205	1520.8887	1540.6297	1753.4732	1779.9402	2975.6269	2997.4043	3013.1796	3055.5226	3063.0369	3064.6771	3069.4675	3103.6245	3123.8061	3172.2571	3650.6075
CN=CNC(=O)N(C)C	CN=CNC(=O)N(C)C	
InChI=1S/C5H11N3O/c1-6-4-7-5(9)8(2)3/h4H,1-3H3,(H,6,7,9)	InChI=1S/C5H11N3O/c1-6-4-7-5(9)8(2)3/h4H,1-3H3,(H,6,7,9)
