25
gdb 100009	2.41604	1.18699	1.09988	1.3714	87.91	-0.2624	0.0737	0.3361	1305.0129	0.226453	-389.477193	-389.466163	-389.465219	-389.513263	42.169	
C	 0.0842540008	 1.5219024919	 0.2304473986	-0.433368
C	 0.0158871592	-0.0067763029	 0.0379714707	 0.190343
C	 0.6587297052	-0.6769790186	 1.2711525368	-0.411367
C	-1.4723688791	-0.4058660085	-0.0435535124	-0.096117
O	-2.1533891589	 0.0974238653	 1.1000980992	-0.42819
C	 0.7293301398	-0.4886768002	-1.2518192881	 0.366625
C	 0.5382458099	-1.9574049012	-1.619142978	-0.472152
C	 0.8909069519	 0.4314862416	-2.443695705	-0.315483
C	 2.0900626746	 0.0724097587	-1.5992905074	-0.312329
H	 1.1155514504	 1.8822414625	 0.2790420714	 0.107267
H	-0.4312553623	 2.0582617219	-0.5716411832	 0.109045
H	-0.4087312826	 1.7904263828	 1.1662062022	 0.134965
H	 0.1214608425	-0.3896685215	 2.1781519815	 0.126641
H	 0.6332871046	-1.7687391425	 1.2040680693	 0.104461
H	 1.7047686225	-0.3723964072	 1.3753186123	 0.107485
H	-1.9042870291	 0.0045170704	-0.9709632578	 0.083558
H	-1.5655463594	-1.4996468626	-0.0869034854	 0.084294
H	-3.0614031651	-0.2154566666	 1.0679415402	 0.286225
H	-0.4952063019	-2.1834421615	-1.9018951569	 0.114951
H	 1.1672216829	-2.2130822055	-2.4772629081	 0.109871
H	 0.8172356987	-2.630546215	-0.8021872261	 0.117264
H	 0.8063408904	-0.0090221391	-3.4319234528	 0.102097
H	 0.5253857566	 1.4488984592	-2.3864250819	 0.109853
H	 2.5169805072	 0.8505012568	-0.9775671976	 0.110044
H	 2.8267550913	-0.610980958	-2.0090336714	 0.104015
19.5368	115.4328	189.5037	208.9686	225.3805	237.2885	251.3815	276.131	313.275	337.9866	357.9019	376.0517	387.5509	433.1053	485.526	495.5768	673.108	783.1276	799.058	873.8582	903.4251	916.808	933.332	950.5692	959.6407	979.2862	1029.686	1043.0664	1069.0812	1078.7394	1081.0528	1124.8324	1174.8435	1187.1828	1196.0987	1226.5664	1255.1315	1296.8938	1317.0786	1333.8193	1393.4976	1408.3379	1420.2989	1455.851	1467.2723	1480.9263	1494.8344	1498.0611	1501.5055	1504.1314	1511.7331	1520.451	1525.9459	2967.3057	3018.7579	3032.5635	3040.837	3047.1223	3094.1443	3098.4483	3107.5957	3110.22	3122.4119	3133.1685	3135.0374	3137.2798	3211.7479	3226.2931	3838.7603
CC(C)(CO)C1(C)CC1	CC(C)(CO)C1(C)CC1	
InChI=1S/C8H16O/c1-7(2,6-9)8(3)4-5-8/h9H,4-6H2,1-3H3	InChI=1S/C8H16O/c1-7(2,6-9)8(3)4-5-8/h9H,4-6H2,1-3H3
