17
gdb 56056	3.79628	0.75497	0.63465	2.2065	80.97	-0.2483	-0.0137	0.2346	1708.7943	0.133115	-418.011484	-418.001354	-418.00041	-418.047955	34.976	
C	-0.2664320798	 1.5612517977	 0.3116288263	-0.500469
C	 0.0884632234	 0.243059066	-0.3513750861	 0.411944
O	 0.7496683755	 0.1532276422	-1.3627772912	-0.337062
N	-0.4143588091	-0.8698031183	 0.3059310632	-0.346493
C	-0.2138709401	-2.1722565463	-0.1214520471	 0.13859
N	-0.7088510326	-3.1346644122	 0.5381598357	-0.282044
C	-0.4913798129	-4.5031381935	 0.0786876918	-0.258013
C	 0.2992714792	-4.6957031773	-1.1387208128	 0.282928
C	 0.951606392	-4.8240134341	-2.1405841636	-0.456051
H	 0.1675404507	 2.3736770284	-0.2695761269	 0.156931
H	-1.3527020128	 1.6904992524	 0.3629260086	 0.144605
H	 0.1215287534	 1.5984653899	 1.335063693	 0.1446
H	-0.9618392537	-0.7570078997	 1.1469883832	 0.257848
H	 0.3819885366	-2.2438521765	-1.0320236011	 0.152863
H	-0.0239087943	-5.0573798271	 0.903783999	 0.142936
H	-1.478218644	-4.9665594391	-0.0550638009	 0.142948
H	 1.5256159286	-4.9514336024	-3.0251623611	 0.203939
45.0411	65.9025	84.6158	95.9071	171.2759	204.1437	307.2955	311.6039	333.2293	373.3286	475.3561	584.7389	622.2743	627.1501	656.4001	663.0225	675.2099	913.9514	957.5105	960.2892	980.7951	1047.6823	1053.821	1054.5192	1219.048	1258.6482	1262.9917	1335.8446	1367.4142	1388.9248	1463.7495	1468.5152	1481.9883	1508.3445	1751.0678	1809.6145	2229.9136	3015.1995	3033.182	3043.4932	3105.8168	3136.8733	3167.8309	3502.6941	3614.4786
CC(=O)NC=NCC#C	CC(=O)NC=NCC#C	
InChI=1S/C6H8N2O/c1-3-4-7-5-8-6(2)9/h1,5H,4H2,2H3,(H,7,8,9)	InChI=1S/C6H8N2O/c1-3-4-7-5-8-6(2)9/h1,5H,4H2,2H3,(H,7,8,9)
