16
gdb 36063	2.17927	1.44317	1.05087	5.6087	72.96	-0.2624	0.0029	0.2653	1149.9762	0.125247	-396.927642	-396.919138	-396.918194	-396.961265	30.583	
N	-0.2402060424	-1.0263796131	-0.5014213551	-0.296305
C	-0.1143460201	 0.0894757209	-0.2306167539	 0.275727
C	 0.0588745838	 1.505017181	 0.0885560562	-0.397247
C	 1.5435502642	 1.9279711999	 0.173674163	 0.13226
C	 2.2576117167	 1.9080715029	-1.2161687756	-0.199298
N	 1.8796244448	 3.3287190398	-1.3813950918	-0.311777
C	 1.7015659774	 3.480507746	 0.0769475893	-0.209167
C	 2.2312553646	 1.2787696694	 1.2786996932	 0.246183
N	 2.7855228439	 0.7848806844	 2.1645584276	-0.328278
H	-0.4164758404	 2.1037315844	-0.6949819714	 0.178895
H	-0.4491214325	 1.7256424948	 1.0330259076	 0.167763
H	 3.3332212999	 1.7218645491	-1.1080369252	 0.12423
H	 1.8449903549	 1.2244221211	-1.963963029	 0.137516
H	 2.5830565166	 3.9245448849	-1.802048089	 0.235384
H	 0.8365302873	 4.0794458289	 0.3805647886	 0.120706
H	 2.5890461113	 3.8226918954	 0.6236464857	 0.123408
69.1601	117.4849	148.3373	184.1731	212.859	325.4986	356.6207	395.8207	482.1132	542.1721	556.1749	648.7062	708.5654	871.9042	899.148	946.0455	954.6475	972.8892	1020.5313	1022.9031	1068.8325	1125.5957	1137.296	1183.3564	1239.6223	1267.6687	1301.7414	1335.5304	1361.9368	1376.05	1463.4703	1508.0159	1531.9201	2358.479	2366.7951	3019.7386	3027.5988	3055.5814	3075.3513	3088.6704	3102.6598	3545.6094
N#CCC1(CNC1)C#N	N#CCC1(CNC1)C#N	
InChI=1S/C6H7N3/c7-2-1-6(3-8)4-9-5-6/h9H,1,4-5H2	InChI=1S/C6H7N3/c7-2-1-6(3-8)4-9-5-6/h9H,1,4-5H2
