19
gdb 102331	1.79261	1.40763	1.17286	1.8847	83.1	-0.2579	0.0345	0.2925	1222.6023	0.154347	-385.810854	-385.799915	-385.798971	-385.846344	39.554	
C	-0.0654039321	 1.5425743795	 0.0931855549	-0.39621
C	 0.0194826505	 0.0220393399	-0.0287733483	-0.201489
C	 0.7506953631	-0.4860538065	-1.3140428947	-0.170406
C	 0.7479010854	-2.0369111975	-1.2811258378	-0.087688
O	 1.4026294542	-2.5199294799	-2.432365903	-0.409798
C	 0.0370606557	-0.0210949902	-2.5124533899	 0.39147
C	-0.5880095736	 0.3586328817	-3.465245626	-0.490065
C	 2.1381263768	 0.0003138383	-1.3256365112	 0.391467
C	 3.2708015519	 0.3980024319	-1.285513867	-0.490067
H	 0.9319868598	 1.9898370888	 0.1196351236	 0.132437
H	-0.6096977267	 1.9736323194	-0.7514903332	 0.132452
H	-0.5882832828	 1.819430398	 1.0133820398	 0.111493
H	 0.5504613708	-0.3937777041	 0.8348703352	 0.105713
H	-0.987536159	-0.4099379301	-0.0337584068	 0.105712
H	 1.255632253	-2.3555099131	-0.3584353374	 0.095157
H	-0.2993843822	-2.371332049	-1.2361956197	 0.095145
H	 1.3962967407	-3.4808456813	-2.4025157033	 0.291592
H	-1.1191472061	 0.6911563401	-4.3225512962	 0.196543
H	 4.2739445605	 0.7462360439	-1.2760353991	 0.196542
104.754	112.9139	118.337	147.9386	156.5348	180.8274	201.4159	229.9523	266.2465	363.1754	395.1261	466.	479.2443	561.6115	629.6313	629.9942	633.2781	643.788	645.8454	679.1322	791.1171	924.2727	958.2037	1008.4821	1072.4333	1077.1219	1112.749	1142.4273	1207.1835	1260.1048	1273.5602	1340.8504	1362.0585	1411.6419	1452.6134	1478.2059	1495.722	1509.5388	1512.1632	2234.9388	2240.8199	2978.0311	3019.1018	3034.9183	3046.4655	3078.3129	3115.643	3126.2453	3501.466	3502.2076	3836.0014
CCC(CO)(C#C)C#C	CCC(CO)(C#C)C#C	
InChI=1S/C8H10O/c1-4-8(5-2,6-3)7-9/h1-2,9H,6-7H2,3H3	InChI=1S/C8H10O/c1-4-8(5-2,6-3)7-9/h1-2,9H,6-7H2,3H3
