21
gdb 41871	3.15934	1.46411	1.05721	1.4548	83.14	-0.2401	0.0258	0.2659	1156.251	0.186096	-387.115567	-387.10794	-387.106996	-387.147852	30.39	
C	-0.0441052421	 1.4240839433	 0.0278512939	-0.074969
C	 1.4187964965	 1.9410661472	-0.0180365031	-0.291507
C	 2.207491824	 0.7115386727	 0.4453271417	 0.041907
C	 3.6660004558	 0.5206999675	 0.0390487613	-0.295144
C	 4.067357827	-0.9225271853	 0.2613645509	-0.050294
C	 3.2033663038	-1.9167151929	 0.4816544236	-0.051413
C	 1.6983154115	-1.7517555108	 0.5007836429	-0.295595
C	 1.3440236541	-0.4130960523	-0.1235821725	 0.161719
O	 0.0088727667	-0.0060979288	 0.1261368426	-0.284861
H	-0.5891467072	 1.7994287013	 0.9014784901	 0.102775
H	-0.6047003453	 1.7179120515	-0.8692605017	 0.095866
H	 1.7020441309	 2.2112704038	-1.0415879879	 0.101633
H	 1.5675492761	 2.8226845753	 0.6103912564	 0.102614
H	 2.1410836961	 0.6399952183	 1.5399265395	 0.078055
H	 3.8132789474	 0.7924440256	-1.0173285898	 0.105707
H	 4.3274678979	 1.1844678329	 0.6097477357	 0.103731
H	 5.1327940549	-1.1400299753	 0.2443545827	 0.084142
H	 3.5835689409	-2.9216862892	 0.6480334612	 0.085892
H	 1.2188826474	-2.5792665411	-0.0352281505	 0.107131
H	 1.3140043235	-1.7894350475	 1.5296707515	 0.114464
H	 1.5214559602	-0.4772970861	-1.2137350186	 0.058147
75.6101	159.2117	172.534	329.5407	346.3875	402.8274	458.4144	520.0826	547.3226	680.3508	687.0386	785.3548	807.2159	848.3756	904.3759	939.2448	943.51	962.0048	985.5988	1003.2972	1010.6573	1076.1853	1098.3431	1109.6404	1121.5456	1139.0032	1167.7413	1201.4061	1213.5227	1232.8308	1253.2088	1287.7646	1319.9802	1327.8021	1333.1964	1370.8942	1380.5345	1400.563	1405.8666	1415.982	1479.4392	1484.0714	1497.8616	1528.9936	1709.7657	2920.4352	2994.0826	3009.9856	3012.3589	3017.0767	3041.871	3043.9806	3054.0834	3056.4314	3101.6639	3143.0068	3166.6025
C1CC2CC=CCC2O1	C1C[C@@H]2CC=CC[C@H]2O1	
InChI=1S/C8H12O/c1-2-4-8-7(3-1)5-6-9-8/h1-2,7-8H,3-6H2	InChI=1S/C8H12O/c1-2-4-8-7(3-1)5-6-9-8/h1-2,7-8H,3-6H2/t7-,8+/m0/s1
