17
gdb 28889	2.31132	1.80517	1.02003	2.6431	79.14	-0.2036	0.0107	0.2143	1126.0329	0.136186	-421.904552	-421.896037	-421.895093	-421.937283	32.561	
C	 0.0389211675	 1.5029612664	-0.0470808642	-0.537543
C	 0.0311035063	-0.0056240503	-0.0036033046	 0.22323
C	 0.110945185	-0.7391645064	-1.1871753694	 0.154186
O	 0.1995063215	-0.1689621851	-2.4369504443	-0.469834
C	 0.1059175705	-2.1403966932	-1.17909212	 0.336598
O	 0.1848875813	-2.8328769356	-2.3475796721	-0.446973
C	 0.0197704567	-2.8194082409	 0.0298966129	-0.222381
C	-0.060532214	-2.0993718529	 1.2196745031	-0.102874
C	-0.0548919277	-0.7089461065	 1.2027276838	-0.219008
H	 0.9588420652	 1.8996006541	-0.4980433931	 0.129195
H	-0.8076426726	 1.9052257366	-0.6201897782	 0.129215
H	-0.0293807057	 1.9198338181	 0.9600958934	 0.137988
H	 0.1972909705	 0.788991622	-2.3594708254	 0.30171
H	 0.236207361	-2.1867440614	-3.0631835978	 0.306703
H	 0.0171327509	-3.903237419	 0.0176199474	 0.102954
H	-0.12775991	-2.6294783195	 2.1632846992	 0.091709
H	-0.1176170564	-0.1521006966	 2.1320046194	 0.085124
126.2094	148.1791	166.6095	246.1016	287.564	304.5858	321.292	443.462	492.8736	504.748	534.1778	571.1605	572.9023	695.3744	731.0377	781.891	833.9193	880.6132	931.5194	949.2219	1031.6518	1055.1875	1096.4157	1178.0173	1207.6607	1217.8167	1271.7593	1310.3324	1359.616	1403.2405	1412.1406	1485.4845	1488.4267	1523.596	1532.5834	1644.2319	1663.258	3004.219	3048.2069	3118.8547	3172.5806	3189.3267	3204.526	3786.7172	3849.2568
CC1=C(O)C(O)=CC=C1	Cc1c(O)c(O)ccc1	
InChI=1S/C7H8O2/c1-5-3-2-4-6(8)7(5)9/h2-4,8-9H,1H3	InChI=1S/C7H8O2/c1-5-3-2-4-6(8)7(5)9/h2-4,8-9H,1H3
