15
gdb 50012	2.9266	1.24495	1.0315	4.9051	69.41	-0.2516	-0.0413	0.2103	1148.1199	0.111172	-453.911935	-453.903687	-453.902743	-453.945179	29.921	
N	 0.049095058	 1.1668860971	-0.4658967833	-0.551264
C	 0.0643500455	-0.0395114001	-0.0942456637	 0.338009
N	 0.9981585477	-0.962524235	 0.3810570038	-0.354831
C	 0.0710229751	-2.1109996143	 0.3893966331	-0.245467
C	-1.0196182495	-1.1007839423	-0.023013045	 0.361099
O	-2.2782437599	-0.9625080126	 0.5659375219	-0.259427
C	-2.2357452577	-1.2827404871	-0.8393074596	-0.170804
C	-2.6844822757	-0.1906231121	-1.7626474065	 0.155857
O	-3.1352120234	-0.4171295887	-2.8568861748	-0.252493
H	 0.9708476197	 1.6031557765	-0.4224628378	 0.220082
H	 1.9808957497	-0.9906457261	 0.154285924	 0.250682
H	 0.2839153352	-2.8841256712	-0.356170144	 0.125593
H	-0.0671581604	-2.5638408456	 1.3750185421	 0.134378
H	-2.547558717	-2.2914961856	-1.1060724896	 0.121337
H	-2.5586890975	 0.8293081872	-1.3517125207	 0.127249
79.516	108.1836	167.254	222.9079	265.9533	313.7453	371.3776	409.2094	461.4738	522.0202	635.047	699.5178	773.9475	832.0244	878.1813	933.72	962.0529	1001.5058	1043.2087	1070.2875	1080.4304	1110.2939	1144.1541	1150.8994	1229.1568	1272.5256	1327.8338	1357.2722	1402.4136	1495.1947	1513.1755	1800.3929	1821.9898	2967.0853	3044.3072	3100.0426	3136.4371	3474.6213	3619.4881
N=C1NCC11OC1C=O	[NH][C]1NC[C@]21O[C@H]2C=O	
InChI=1S/C5H6N2O2/c6-4-5(2-7-4)3(1-8)9-5/h1,3H,2H2,(H2,6,7)	InChI=1S/C5H6N2O2/c6-4-5(2-7-4)3(1-8)9-5/h1,3H,2H2,(H2,6,7)/t3-,5-/m0/s1
