16
gdb 46068	3.09723	1.3411	1.12326	2.1049	64.5	-0.2613	-0.0076	0.2537	1089.3323	0.12502	-475.025139	-475.017253	-475.016308	-475.059504	28.141	
O	 0.2737981501	 0.1391325159	 0.4193978859	-0.31286
C	 0.1209591084	 1.2841207724	 0.1263636439	 0.394419
C	-1.1206346806	 1.999398287	-0.3812517944	-0.223581
O	-0.7698975732	 3.364760746	-0.4243917832	-0.258953
C	 0.638912188	 3.479530693	-0.2710562833	 0.186703
O	 1.1160587031	 2.2182619851	 0.190564478	-0.229586
C	 1.3151832295	 3.8811427346	-1.5643809587	-0.025538
C	 2.7583271103	 3.618678411	-1.7705180269	-0.238886
N	 1.7445240631	 2.888063879	-2.5541586218	-0.319395
H	-1.3948279896	 1.6057510949	-1.3697130709	 0.14742
H	-1.9612664441	 1.8405668617	 0.3013950077	 0.151735
H	 0.8317125014	 4.2241967391	 0.5106908902	 0.115036
H	 0.8687747774	 4.7765572208	-1.9909286161	 0.113166
H	 3.3586234633	 4.3245771118	-2.3362742498	 0.126541
H	 3.2881291626	 3.0790117195	-0.9909646182	 0.131889
H	 1.6527062501	 1.949657528	-2.1708607623	 0.241891
21.7201	81.1674	109.6852	222.7496	271.2938	416.6595	494.2962	555.6253	588.7964	680.7097	782.7183	791.5727	851.6611	887.0081	916.8343	970.8388	993.3709	1026.4536	1034.1961	1068.6628	1098.7298	1141.6013	1148.3688	1185.5063	1206.1268	1224.8982	1267.3699	1298.718	1337.5783	1367.6645	1391.3134	1419.3015	1499.3142	1508.0429	1907.9649	3018.9473	3040.4346	3082.6651	3118.9001	3141.674	3208.3319	3498.0751
O=C1COC(O1)C1CN1	O=C1CO[C@@H](O1)[C@H]1CN1	
InChI=1S/C5H7NO3/c7-4-2-8-5(9-4)3-1-6-3/h3,5-6H,1-2H2	InChI=1S/C5H7NO3/c7-4-2-8-5(9-4)3-1-6-3/h3,5-6H,1-2H2/t3-,5+/m1/s1
