21
gdb 60590	3.43764	1.02316	0.86997	2.4912	78.59	-0.2445	0.0769	0.3214	1384.2992	0.181726	-424.184089	-424.17476	-424.173816	-424.21914	33.806	
C	 0.139023873	 1.6028727162	-0.1055166178	-0.422833
C	 0.0185672215	 0.0746409627	-0.1071467726	-0.044713
C	 0.8335053718	-0.6063856432	 0.9805373809	 0.092301
C	 2.0627694273	-0.0599950017	 1.5667659046	-0.191665
O	 0.8262619664	-0.0036286432	 2.2820193412	-0.239818
C	-1.4431238331	-0.3509296573	 0.0397892335	 0.171116
C	-2.3972486368	-0.1275543891	-1.1550855953	-0.299944
C	-2.604656562	-1.6531905544	-1.089708544	-0.064929
O	-1.6099309901	-1.7891405961	-0.0541407846	-0.299969
H	 1.1404424029	 1.9259346196	-0.4025179356	 0.117436
H	-0.5694355203	 2.0496100274	-0.8097419042	 0.115845
H	-0.066971421	 2.0021614153	 0.8914604428	 0.140932
H	 0.3723682125	-0.3237733183	-1.0689951575	 0.075519
H	 0.70505161	-1.688308542	 1.002608699	 0.11292
H	 2.8083782381	-0.7406445926	 1.9761887399	 0.113581
H	 2.4511724526	 0.9005273892	 1.2344561098	 0.111087
H	-1.8362708295	 0.0192099722	 0.997294258	 0.086771
H	-3.2761088273	 0.4898903061	-0.9658662622	 0.11154
H	-1.8990029863	 0.2243811073	-2.061527402	 0.108464
H	-3.5967185133	-1.971070931	-0.7443990474	 0.102519
H	-2.3437510465	-2.2251978469	-1.9877015067	 0.103839
57.0741	81.5037	87.9098	152.8102	202.7144	251.8458	275.2396	331.5915	395.2942	481.3534	598.9206	738.8237	775.002	820.167	850.864	873.9188	936.0119	951.8049	961.219	987.5713	1012.8299	1030.1082	1065.9985	1085.3359	1115.8993	1142.674	1161.6163	1166.5181	1182.9891	1188.9696	1218.0737	1256.4666	1288.8395	1293.7496	1294.2932	1350.8271	1365.2035	1391.4944	1404.2497	1434.7737	1489.9729	1493.6803	1510.6781	1531.5967	1532.3013	2998.2135	3013.072	3017.1859	3044.4964	3055.8282	3074.232	3086.9744	3108.794	3120.8645	3123.342	3131.8223	3172.9379
CC(C1CO1)C1CCO1	C[C@@H]([C@H]1CO1)[C@H]1CCO1	
InChI=1S/C7H12O2/c1-5(7-4-9-7)6-2-3-8-6/h5-7H,2-4H2,1H3	InChI=1S/C7H12O2/c1-5(7-4-9-7)6-2-3-8-6/h5-7H,2-4H2,1H3/t5-,6-,7-/m1/s1
