17
gdb 33739	3.26951	1.5445	1.30876	4.2515	76.44	-0.2535	0.0098	0.2633	987.2121	0.13908	-380.82727	-380.820573	-380.819629	-380.858185	27.724	
N	 0.059761341	-1.1354372243	-0.0202564541	-0.338365
C	 0.0411229356	 0.0204231915	-0.0205824784	 0.158646
C	 0.008269516	 1.4672627239	 0.0096319424	 0.225607
C	-0.330300907	 2.274047053	 1.3111571001	-0.251716
C	 0.4785399308	 3.3355588608	 0.5044595612	-0.042532
N	 1.3219742366	 2.2186924417	-0.0714298584	-0.348731
C	-0.4811070358	 3.6354728067	-0.6638875647	-0.031733
C	-0.1215581479	 3.0972692828	-2.0261057883	-0.295874
C	-0.8460564313	 2.2129941843	-1.0457785343	-0.073905
H	-1.3834973288	 2.4630101609	 1.539908754	 0.107728
H	 0.201812841	 1.8956286659	 2.1883900161	 0.110698
H	 1.0040743311	 4.1639166083	 0.9768516813	 0.085637
H	 1.911087411	 1.8637651962	 0.6820826715	 0.229462
H	-1.2228578328	 4.4150930245	-0.5441632569	 0.097968
H	-0.7237729021	 3.4635545818	-2.8510652033	 0.113466
H	 0.9147383497	 2.8934129228	-2.2596620631	 0.147075
H	-1.8594808968	 1.8743030595	-1.216513165	 0.106568
144.5043	167.41	364.6317	383.6909	504.2004	515.8256	527.2048	553.7469	619.7706	673.3103	788.7923	801.9782	817.1768	853.9431	913.6326	930.7085	949.3016	954.7165	992.914	1015.6795	1054.3239	1075.7487	1085.5655	1101.6587	1106.3048	1155.6342	1183.789	1206.0971	1212.4251	1236.5553	1270.4958	1305.3367	1354.7672	1367.5604	1461.6429	1497.9146	2356.2947	3048.1185	3116.7955	3134.6163	3145.4503	3190.2181	3202.479	3243.1925	3462.9659
N#CC12CC(N1)C1CC21	N#C[C@@]12C[C@@H](N1)[C@H]1C[C@@H]21	
InChI=1S/C7H8N2/c8-3-7-2-6(9-7)4-1-5(4)7/h4-6,9H,1-2H2	InChI=1S/C7H8N2/c8-3-7-2-6(9-7)4-1-5(4)7/h4-6,9H,1-2H2/t4-,5+,6+,7+/m0/s1
