17
gdb 46948	2.87808	1.85257	1.40939	3.7889	71.39	-0.2416	0.0178	0.2594	930.9238	0.139814	-418.006355	-417.999598	-417.998654	-418.037427	27.209	
O	 0.0070012926	-0.0499698376	-0.0532309222	-0.381467
C	-0.0346028893	 1.164999702	 0.0091625243	 0.403127
N	-1.2052630768	 1.8684297615	 0.0047116995	-0.329844
C	-1.2877299617	 3.3181114893	-0.0822890921	-0.167421
C	-0.0477005101	 3.9447430022	 0.5256270981	 0.026625
C	 0.3840454829	 3.4602463276	 1.9380956663	-0.277773
C	 1.5937343488	 2.8495399863	 1.245042368	-0.025297
C	 1.2220558576	 1.9882744876	 0.0915467922	-0.12621
N	 1.2487687117	 3.4583695659	-0.096934981	-0.166974
H	-2.0346985161	 1.3109611263	-0.1366141242	 0.249694
H	-1.3963855991	 3.6537918013	-1.1244804238	 0.12064
H	-2.1728423956	 3.660314006	 0.4670031314	 0.118165
H	-0.0991457019	 5.0306330252	 0.4316376857	 0.093594
H	 0.6514722787	 4.2907422502	 2.5933624348	 0.117941
H	-0.282532897	 2.7796309108	 2.4740376159	 0.118768
H	 2.6106448684	 2.8540855965	 1.6237866801	 0.104491
H	 2.0520523368	 1.4923635292	-0.4005702331	 0.121942
111.795	203.7949	318.0935	336.7572	424.7715	494.8789	532.0518	562.7988	694.5372	717.9314	764.0622	797.7626	806.1332	841.4407	862.3442	922.6748	999.4129	1015.2096	1027.4897	1067.3665	1080.079	1105.6192	1141.506	1149.6407	1202.7091	1235.8657	1269.4949	1294.9566	1314.8496	1332.4997	1365.6987	1391.5245	1415.602	1476.8722	1490.4619	1516.4501	1791.7017	2994.4162	3052.1999	3065.9832	3095.1998	3125.1082	3164.8562	3180.2649	3616.5262
O=C1NCC2CC3C1N23	O=C1NC[C@H]2C[C@H]3[C@@H]1N23	
InChI=1S/C6H8N2O/c9-6-5-4-1-3(2-7-6)8(4)5/h3-5H,1-2H2,(H,7,9)	InChI=1S/C6H8N2O/c9-6-5-4-1-3(2-7-6)8(4)5/h3-5H,1-2H2,(H,7,9)/t3-,4+,5+,8?/m1/s1
