17
gdb 11530	5.63084	1.05629	0.95607	4.086	67.06	-0.2442	0.0278	0.272	1195.4287	0.141155	-400.995259	-400.986672	-400.985727	-401.029259	29.657	
C	-0.2425424285	 1.33973658	 0.2012543315	-0.345414
N	-0.0335476567	-0.0803563145	-0.0434050956	-0.03749
C	-0.0512835983	-0.9902484964	 1.0847953614	-0.206694
C	-1.4170180638	-1.1233107155	 1.724525136	 0.091041
C	-1.5656752158	-1.4267368974	 3.152618695	-0.178081
O	-1.7883886527	-0.1058243064	 2.6581956446	-0.227483
C	 0.2260076963	-0.5240946252	-1.3081861414	 0.15406
O	 0.2754362582	 0.1646749652	-2.3044341986	-0.339551
H	 0.5179169545	 1.7250602625	 0.8910794469	 0.124928
H	-0.161984821	 1.8528891207	-0.7567186465	 0.165919
H	-1.2265292024	 1.5236505093	 0.6414380578	 0.148285
H	 0.2760016491	-1.9752483296	 0.7321418825	 0.122241
H	 0.6620450756	-0.6550279958	 1.850423424	 0.113518
H	-2.2179303971	-1.4178527392	 1.044580801	 0.104825
H	-2.4515837392	-1.9539577723	 3.5018045317	 0.123236
H	-0.6777092234	-1.5494218703	 3.7717635253	 0.118306
H	 0.3918781252	-1.6201225352	-1.3283763155	 0.068355
51.6859	85.9979	112.518	157.9971	280.8669	295.971	340.3484	343.2752	396.6456	472.5797	708.6106	798.2988	859.2908	876.6222	953.7437	969.7165	1027.0726	1092.9098	1096.5665	1123.4177	1158.1152	1162.7594	1169.0661	1252.2969	1277.6783	1293.6209	1356.8104	1431.8277	1439.8656	1441.1619	1451.1347	1469.7631	1498.0504	1520.7721	1529.6061	1799.4511	2926.1325	3011.2336	3031.597	3069.0339	3086.1322	3096.3691	3106.411	3162.5627	3174.0932
CN(CC1CO1)C=O	CN(C[C@H]1CO1)C=O	
InChI=1S/C5H9NO2/c1-6(4-7)2-5-3-8-5/h4-5H,2-3H2,1H3	InChI=1S/C5H9NO2/c1-6(4-7)2-5-3-8-5/h4-5H,2-3H2,1H3/t5-/m0/s1
