21
gdb 78492	2.44622	1.53673	1.26528	1.9473	82.5	-0.2365	0.0784	0.3149	1118.2784	0.181908	-387.054123	-387.045206	-387.044262	-387.087019	34.843	
C	-0.0605295431	 1.4145764889	-0.0004651022	-0.504847
C	 0.0400979403	-0.0821528313	-0.0171070405	 0.288193
C	 0.9607851582	-0.9397520838	-0.8891265447	-0.299809
C	 0.0805742173	-2.1429515453	-0.4716467194	-0.162026
C	 0.3322412266	-2.2993210104	 1.0579873547	 0.178031
O	 1.6237068553	-2.5579499519	 1.5533108125	-0.450495
C	-0.3245162504	-0.9363791738	 1.2170005523	-0.234522
C	-1.066278164	-1.1126983234	-0.0994038198	 0.315136
C	-2.5188507145	-1.0407881968	-0.4394546149	-0.530632
H	 0.8393549996	 1.8707691949	 0.4295107242	 0.118689
H	-0.1847205503	 1.8174652163	-1.0123234533	 0.117224
H	-0.9143032204	 1.7509673919	 0.5975854598	 0.118102
H	 0.8347385098	-0.6955606479	-1.9483543515	 0.096883
H	 2.0357257271	-0.9875080461	-0.6643001553	 0.070829
H	-0.0165271735	-3.0183670518	-1.1109789493	 0.067318
H	-0.3064079504	-3.0879248331	 1.4667410322	 0.085753
H	 2.1807762532	-1.8024574414	 1.341577283	 0.280516
H	-0.6954867405	-0.4701812373	 2.1225392512	 0.078384
H	-2.9810589505	-0.1559935209	 0.0117749737	 0.122538
H	-2.678818402	-0.9814631056	-1.5224804445	 0.120906
H	-3.0639281379	-1.9185280914	-0.0730806781	 0.12383
146.9014	168.2413	187.3351	194.3015	224.6285	265.7636	297.1654	330.4211	400.5968	506.2421	568.1581	602.5413	673.2422	702.0411	733.7388	814.8219	863.8921	922.7221	944.2141	954.4694	976.3622	998.1828	1011.7431	1070.6312	1079.09	1102.6752	1122.824	1148.6071	1152.1603	1183.0875	1211.2451	1235.7157	1260.3914	1269.0106	1304.3935	1352.7346	1412.509	1415.1262	1435.0755	1461.9171	1482.2351	1487.3793	1495.252	1501.6071	1514.2827	2998.9304	3018.2038	3020.6334	3072.6342	3076.3998	3077.1285	3079.8435	3088.0677	3091.1256	3134.1084	3181.7665	3823.8104
CC12CC3C(O)C1C23C	C[C@@]12C[C@H]3[C@@H](O)[C@@H]1[C@@]23C	
InChI=1S/C8H12O/c1-7-3-4-5(9)6(7)8(4,7)2/h4-6,9H,3H2,1-2H3	InChI=1S/C8H12O/c1-7-3-4-5(9)6(7)8(4,7)2/h4-6,9H,3H2,1-2H3/t4-,5+,6-,7+,8-/m0/s1
