17
gdb 74751	3.49509	1.57386	1.42764	3.3061	70.79	-0.235	0.0016	0.2366	956.5861	0.136952	-421.791411	-421.78457	-421.783626	-421.822424	27.801	
C	-0.015324667	 1.4843489536	 0.0495649309	-0.509728
C	-0.0341940323	-0.003964885	-0.0254070928	 0.355623
C	-0.0535208653	-0.830198823	-1.0769790164	-0.208498
C	 0.0064400028	-2.2486390809	-0.4909189075	-0.037401
O	-0.7027882039	-2.0783061033	 0.7393210129	-0.221077
C	 0.0327421947	-0.9463623722	 1.198466804	-0.096579
C	 1.4863374487	-1.5053740616	 1.1793825447	 0.033354
O	 1.5694109716	-2.9234402693	 1.3554424245	-0.24031
C	 1.4673581538	-2.3972320067	 0.0281707237	 0.036845
H	 0.8879847907	 1.8485862855	 0.555660723	 0.131163
H	-0.0485081373	 1.9371479122	-0.9449017697	 0.131503
H	-0.8682445413	 1.8631381695	 0.6266405578	 0.135512
H	-0.0486181037	-0.5781564644	-2.1286201009	 0.105267
H	-0.4111206498	-3.0687543779	-1.0723943465	 0.089445
H	-0.3582206259	-0.5813356993	 2.1476566146	 0.086646
H	 2.3400206832	-0.9117978415	 1.4902517628	 0.10445
H	 2.304712941	-2.5598936058	-0.6426347452	 0.103785
157.0162	170.2174	260.6614	366.8437	386.4899	494.4847	523.5864	588.2509	687.6874	763.2827	790.5996	815.0733	833.5489	872.2368	889.5216	908.6152	910.7062	950.7594	969.6587	1006.276	1021.4948	1062.5843	1069.4469	1082.1027	1179.2214	1207.2028	1220.6118	1249.9411	1267.9359	1278.1956	1298.8613	1326.8364	1411.083	1414.8671	1478.1671	1485.661	1686.2254	3017.698	3063.4336	3112.0941	3129.5172	3138.8886	3163.3536	3176.9733	3227.1472
CC1=CC2OC1C1OC21	CC1=C[C@@H]2O[C@H]1[C@H]1O[C@@H]21	
InChI=1S/C7H8O2/c1-3-2-4-6-7(9-6)5(3)8-4/h2,4-7H,1H3	InChI=1S/C7H8O2/c1-3-2-4-6-7(9-6)5(3)8-4/h2,4-7H,1H3/t4-,5+,6-,7+/m0/s1
