18
gdb 81015	2.36314	1.85909	1.67513	1.7804	70.68	-0.2418	0.0078	0.2495	929.0122	0.148713	-439.086138	-439.078476	-439.077532	-439.117632	30.748	
C	 0.0579078403	 1.531762663	 0.1040897037	-0.484365
C	-0.0301210465	 0.0376900544	-0.0434678995	 0.374983
C	 0.2244537094	-0.705967666	-1.379779706	-0.284037
C	-0.6487256526	-1.8495857106	-0.7877063266	-0.058499
N	 0.1500608621	-2.6309053245	 0.1682101432	-0.270428
C	 0.8300783355	-1.899417738	 0.9553234375	 0.078539
O	 0.8435822581	-0.550678562	 0.964984102	-0.258002
C	-1.3935654537	-0.7298058495	 0.0015685919	 0.121756
O	-2.0121969556	-1.003561466	 1.2182128867	-0.441211
H	 1.0881169412	 1.8781128888	-0.024015218	 0.129429
H	-0.5701153072	 2.0194658233	-0.6467237579	 0.120921
H	-0.2869212393	 1.8345929159	 1.0973829408	 0.139976
H	-0.260773164	-0.1997111286	-2.2167192342	 0.111623
H	 1.2586112834	-0.9497080953	-1.6275244239	 0.116332
H	-1.2053459254	-2.5125473769	-1.4486692391	 0.079973
H	 1.4826976594	-2.3156540772	 1.7192827055	 0.133338
H	-2.1165628156	-0.2143869207	-0.6365233035	 0.095075
H	-1.5423316793	-1.7404361402	 1.6279537075	 0.294597
196.9493	209.1207	230.4938	244.3524	309.3614	364.1437	411.7299	439.8495	512.8954	550.9727	671.5522	695.9772	745.5476	807.0493	843.3508	864.3293	885.6702	946.9572	965.0121	988.874	997.0083	1109.0711	1120.0687	1153.5769	1157.0875	1181.8588	1211.0103	1243.0825	1246.6302	1290.9375	1332.5306	1348.7394	1378.2463	1415.8784	1430.1637	1477.8667	1481.2154	1492.7475	1684.2428	3041.3764	3072.8592	3082.0214	3113.9666	3118.4905	3121.4195	3140.1389	3172.4002	3778.6604
CC12CC(N=CO1)C2O	C[C@@]12C[C@@H]([N][CH]O1)[C@H]2O	
InChI=1S/C6H9NO2/c1-6-2-4(5(6)8)7-3-9-6/h3-5,8H,2H2,1H3	InChI=1S/C6H9NO2/c1-6-2-4(5(6)8)7-3-9-6/h3-5,8H,2H2,1H3/t4-,5-,6+/m1/s1
