16
gdb 57164	3.21124	1.17747	0.8825	5.8609	75.02	-0.2454	-0.0537	0.1917	1269.2762	0.120396	-437.891117	-437.881137	-437.880193	-437.92738	34.464	
C	-0.0436482131	 1.4384106364	 0.0488343697	-0.355804
N	-0.0321352512	-0.0261930221	 0.0206623827	-0.187822
C	 0.1853721406	-0.7461810942	 1.2294837399	 0.408259
C	 0.1326963532	 0.0856238166	 2.501655907	-0.503536
O	 0.4067269912	-1.9283360057	 1.2552453749	-0.286777
C	-0.2219484882	-0.7141992381	-1.1952550847	 0.327458
O	-0.4243930147	-1.8988441883	-1.2906296232	-0.294497
C	-0.1644746605	 0.1078266275	-2.4016054411	 0.162617
C	-0.1298658959	 0.6571953449	-3.4717144451	-0.37357
H	 0.9008296094	 1.8370457086	 0.4296661176	 0.140792
H	-0.1846765923	 1.8110107973	-0.96327601	 0.16551
H	-0.8620719865	 1.8155907047	 0.6681084783	 0.139513
H	-0.8254952901	 0.6033540193	 2.608668741	 0.144119
H	 0.2704737789	-0.5992520321	 3.3372027684	 0.155782
H	 0.9211556304	 0.843766017	 2.5269809713	 0.143664
H	-0.0975834513	 1.1407028083	-4.4179273667	 0.214291
32.9682	41.7739	95.949	163.8327	197.012	242.2009	266.4571	276.0027	385.8521	412.1008	447.3748	579.4514	593.8182	599.3108	650.9265	693.7852	713.8723	760.7392	854.8234	997.7836	1050.5065	1104.7635	1149.9967	1190.0614	1238.2248	1321.3192	1391.0018	1462.2812	1474.4115	1478.618	1503.7908	1514.7348	1759.1183	1839.9224	2213.2648	3045.5742	3051.7952	3106.3992	3114.6376	3166.8239	3170.6134	3493.6861
CN(C(C)=O)C(=O)C#C	CN(C(=O)C)C(=O)C#C	
InChI=1S/C6H7NO2/c1-4-6(9)7(3)5(2)8/h1H,2-3H3	InChI=1S/C6H7NO2/c1-4-6(9)7(3)5(2)8/h1H,2-3H3
