19
gdb 64388	2.29238	1.60643	1.25917	1.0539	76.41	-0.2499	0.03	0.2798	1087.9523	0.156724	-422.99618	-422.986779	-422.985835	-423.030368	35.014	
C	-0.4078336559	 1.6409122503	 0.0478708084	-0.42699
C	-0.0339922662	 0.1643916203	 0.0258959454	 0.369684
C	-1.2378799641	-0.7225767316	-0.3148602261	-0.42298
O	 0.9906863249	-0.0298879167	-0.9660783367	-0.301724
C	 1.9733301218	-0.9045014541	-0.4501182379	 0.015751
O	 1.497197522	-1.4038285209	 0.7805855948	-0.240854
C	 0.6681054267	-0.3713307286	 1.3127317734	-0.16983
C	 1.4454586959	 0.6213577234	 2.0581139728	 0.361668
C	 2.0965658733	 1.4154932922	 2.682768333	-0.457901
H	 0.47079359	 2.2596622838	 0.2360617032	 0.134892
H	-0.8376320019	 1.9255921966	-0.9165843443	 0.123492
H	-1.1506402776	 1.8420707519	 0.8260435316	 0.116628
H	-1.575988659	-0.5065375966	-1.3317588631	 0.124642
H	-0.9630478816	-1.7793360097	-0.2590153918	 0.129387
H	-2.0704285718	-0.539843136	 0.3726389843	 0.112475
H	 2.1311580461	-1.7586332856	-1.1190060583	 0.112789
H	 2.9161864566	-0.3507935529	-0.3147034811	 0.100169
H	-0.0490470758	-0.8545378611	 1.9823763438	 0.116309
H	 2.6692145865	 2.1164666551	 3.2388485684	 0.202394
49.6056	113.2082	150.7063	209.7832	251.6588	264.2195	295.4976	340.9426	375.3131	402.7036	507.3557	552.7712	633.2227	636.5257	671.7702	740.4937	842.1756	875.8048	930.6315	950.424	961.9311	996.0347	1033.4772	1043.3089	1119.1284	1155.0268	1178.8496	1206.5022	1216.2554	1266.6943	1295.7272	1353.1609	1398.3775	1416.5855	1428.6942	1476.3248	1483.911	1495.9481	1507.3445	1547.1652	2231.778	2974.4471	3039.0386	3048.5063	3052.9462	3073.7152	3111.2756	3117.3703	3126.3772	3143.0938	3500.1322
CC1(C)OCOC1C#C	CC1(C)OCO[C@H]1C#C	
InChI=1S/C7H10O2/c1-4-6-7(2,3)9-5-8-6/h1,6H,5H2,2-3H3	InChI=1S/C7H10O2/c1-4-6-7(2,3)9-5-8-6/h1,6H,5H2,2-3H3/t6-/m0/s1
