22
gdb 120819	4.27362	0.59814	0.56399	3.2642	85.05	-0.2391	-0.0186	0.2206	2014.6148	0.192344	-404.338704	-404.328193	-404.327249	-404.376125	36.807	
C	-0.4028457409	 1.4846842314	-0.0361208466	-0.383357
C	-0.2017543894	-0.0273161327	-0.1612140954	-0.159062
C	 1.0196975204	-0.4032204563	-1.0112140855	-0.17924
C	 1.1928604377	-1.9004843198	-1.1265228956	-0.017466
N	 0.3553683258	-2.6035621759	-2.1138457194	-0.337432
C	 1.8214905391	-2.6103777689	-2.2762863948	-0.042909
C	 2.3764361075	-1.9289418069	-3.5133734772	-0.283773
C	 2.1541965483	-2.7816678484	-4.7460388082	 0.158856
O	 3.0172850174	-3.1182375706	-5.5157612517	-0.241381
H	 0.4648914454	 1.9640378122	 0.4309802695	 0.113352
H	-0.5456111189	 1.9473725749	-1.0189736607	 0.116332
H	-1.2808690093	 1.7209470445	 0.5728909159	 0.113212
H	-0.0967545833	-0.4678428116	 0.839403702	 0.091133
H	-1.0912098067	-0.4872103563	-0.6082735798	 0.110985
H	 0.9098363232	 0.0360779055	-2.00843743	 0.101014
H	 1.9275085583	 0.0307466425	-0.5701805259	 0.095981
H	 1.324522548	-2.3978055849	-0.1645912886	 0.083826
H	 0.0279169768	-3.4938083841	-1.7505870195	 0.233655
H	 2.3379938081	-3.536223832	-2.0246533398	 0.093725
H	 1.8509237226	-0.9805792317	-3.6748736101	 0.125415
H	 3.4464216507	-1.7243617012	-3.4121734734	 0.11926
H	 1.0952926793	-3.0916177595	-4.8919750753	 0.087876
37.1011	58.2101	76.2138	92.2405	121.7839	194.6896	248.1483	253.9438	321.4412	416.3756	475.0474	494.2467	540.413	742.2006	794.3123	796.1696	864.337	868.3812	900.735	921.8145	984.5626	1001.8265	1032.6377	1055.8622	1077.6521	1091.3175	1126.0503	1157.8115	1190.0342	1236.6913	1263.0041	1265.2398	1282.8371	1291.2608	1305.2379	1329.7669	1385.2029	1413.2404	1416.728	1420.645	1448.8069	1471.8118	1479.1604	1492.4344	1501.1503	1509.1122	1832.3695	2888.3883	3015.3104	3019.5713	3029.5837	3043.1335	3054.1241	3073.9156	3094.1862	3098.1615	3101.2555	3102.8675	3115.7806	3512.5328
CCCC1NC1CC=O	CCC[C@H]1N[C@H]1CC=O	
InChI=1S/C7H13NO/c1-2-3-6-7(8-6)4-5-9/h5-8H,2-4H2,1H3	InChI=1S/C7H13NO/c1-2-3-6-7(8-6)4-5-9/h5-8H,2-4H2,1H3/t6-,7+/m1/s1
