18
gdb 87934	3.50199	1.13648	1.06413	4.6618	72.8	-0.2431	0.0132	0.2563	1188.6199	0.147618	-439.097706	-439.089504	-439.08856	-439.130739	30.962	
C	-0.3010211772	 1.4038216758	 0.0691752972	-0.323592
N	 0.0035084988	-0.0181424689	 0.1123182335	-0.104001
C	 1.3588127337	-0.4235744999	-0.252288837	-0.312967
C	 0.8873025426	-0.551640203	 1.1495732601	 0.299289
C	 1.4526234433	 0.2862828622	 2.2930249597	-0.14762
O	 0.8280785919	-0.2153098601	 3.484402034	-0.220976
C	 0.2712267198	-1.4454067304	 3.2780358928	 0.433005
O	-0.264559069	-2.0540740123	 4.1555938546	-0.331026
C	 0.4671691844	-1.8444054577	 1.8203126498	-0.438103
H	 0.5603762273	 2.0602846552	 0.2729441004	 0.102363
H	-0.6744458831	 1.6470768328	-0.9299874015	 0.133417
H	-1.0900481912	 1.632129712	 0.7925503805	 0.134442
H	 1.4474341381	-1.3020811898	-0.8870183571	 0.122088
H	 2.0838731486	 0.3634413907	-0.465673086	 0.109692
H	 2.5382400161	 0.163918459	 2.3881058761	 0.121152
H	 1.2285887945	 1.3521086543	 2.2188318352	 0.127416
H	-0.4480202099	-2.265643269	 1.4036562021	 0.154814
H	 1.2498743013	-2.6109910911	 1.7769662156	 0.140606
63.6212	148.9015	192.921	210.7161	272.015	333.1643	427.0202	440.2855	489.2585	532.6116	561.8209	694.437	743.2804	808.6034	848.4499	903.545	908.9731	963.3108	1053.1588	1061.8065	1069.4477	1120.2404	1140.2791	1154.9117	1166.3608	1180.4107	1205.3404	1239.5461	1260.2881	1277.1604	1364.0699	1428.2659	1447.7636	1451.7791	1488.9978	1498.6986	1512.7584	1517.5354	1889.9255	2969.732	3034.4917	3051.1753	3071.8399	3075.3328	3109.4466	3110.3605	3136.9724	3165.8486
CN1CC11COC(=O)C1	CN1C[C@]21COC(=O)C2	
InChI=1S/C6H9NO2/c1-7-3-6(7)2-5(8)9-4-6/h2-4H2,1H3	InChI=1S/C6H9NO2/c1-7-3-6(7)2-5(8)9-4-6/h2-4H2,1H3/t6-,7?/m0/s1
