14
gdb 5702	4.84133	2.11852	1.50265	2.0086	62.67	-0.1871	0.0343	0.2214	790.3707	0.109773	-382.553606	-382.547465	-382.546521	-382.584274	23.129	
C	 0.0375239163	 1.3398791273	-0.1535636287	-0.089123
C	 1.4894906136	 1.8791360843	 0.1309228786	-0.376888
C	 2.1499963328	 0.6158810414	 0.6076911165	 0.142437
C	 1.1920254243	-0.327154383	 0.6998422763	 0.439685
O	-0.0715813633	-0.0310907412	 0.3646166948	-0.280979
O	 1.6124360801	-1.5038007731	 1.159513934	-0.201705
C	 2.9727913636	-1.3067774527	 1.3921384934	-0.02589
C	 3.3414768422	-0.0336419352	 1.0744623407	-0.344129
H	-0.7426920429	 1.9264964694	 0.3340721789	 0.127988
H	-0.1694076657	 1.2907219526	-1.2260215048	 0.126702
H	 1.9233356555	 2.3065632926	-0.7792298188	 0.117415
H	 1.4788141202	 2.6744423128	 0.8863270735	 0.117203
H	 3.496748212	-2.1689696934	 1.7649119097	 0.134736
H	 4.3394611313	 0.3672582882	 1.1638716459	 0.112547
67.2285	194.6851	287.6807	443.9481	598.3357	622.7196	630.6553	707.0017	716.7607	772.0178	819.4074	836.812	919.0709	926.1138	972.4494	1021.9585	1074.5625	1108.3411	1160.9949	1204.5603	1241.9612	1251.4001	1289.5382	1361.0491	1397.8084	1491.0426	1503.1252	1517.1557	1542.7587	1683.5858	3021.6112	3053.7792	3068.0788	3124.6351	3250.5642	3301.4864
C1CC2=C(O1)OC=C2	C1Cc2c(O1)occ2	
InChI=1S/C6H6O2/c1-3-7-6-5(1)2-4-8-6/h1,3H,2,4H2	InChI=1S/C6H6O2/c1-3-7-6-5(1)2-4-8-6/h1,3H,2,4H2
