21
gdb 121105	3.66646	0.80913	0.70412	1.5813	75.71	-0.2535	0.0776	0.3312	1627.7525	0.18144	-461.366171	-461.356215	-461.35527	-461.402227	35.242	
C	 0.1787431201	 1.5578935594	 0.156309017	-0.403974
C	 0.1758022156	 0.0509078199	 0.0383569538	 0.235475
O	 0.9382663309	-0.3623724277	-1.086316503	-0.269361
C	 1.578217993	-1.5871307194	-0.7487699067	-0.108105
C	 1.1993962847	-1.8325624996	 0.7298965809	 0.097909
C	 2.3248145151	-2.3433875169	 1.6118040942	-0.205388
C	 1.9049513123	-2.5312392887	 3.064647875	-0.075826
O	 3.0169217435	-3.0689971655	 3.7649044954	-0.421774
O	 0.7853746902	-0.5387965383	 1.1620030791	-0.266462
H	 1.2046857479	 1.9147206728	 0.2737505771	 0.130282
H	-0.2540500333	 2.0003216292	-0.7442573476	 0.129412
H	-0.4136654765	 1.8682377415	 1.0209341643	 0.124962
H	-0.8562400363	-0.337384499	-0.0657893695	 0.056421
H	 1.2328906357	-2.3987372385	-1.4008869175	 0.101333
H	 2.6615342861	-1.4711832953	-0.8768597307	 0.104663
H	 0.3390076714	-2.5215918045	 0.779392147	 0.068952
H	 2.6784760502	-3.3048378287	 1.2203270423	 0.110076
H	 3.1658652416	-1.6427890495	 1.5664860334	 0.115606
H	 1.5915697003	-1.564111833	 3.4820461314	 0.107961
H	 1.0362150532	-3.2091209722	 3.1146645047	 0.081552
H	 2.7896005543	-3.1155599561	 4.6978672491	 0.286286
45.451	79.5989	92.6296	130.6086	164.7311	213.2244	258.8046	304.6178	332.1712	391.7298	485.1398	515.8872	685.6198	712.7069	794.5568	852.2583	884.8203	926.1827	984.0625	998.3504	1054.218	1061.1313	1093.2634	1111.6979	1126.1186	1142.0009	1164.3665	1177.0984	1215.6996	1236.6702	1253.51	1311.8822	1318.6353	1338.6056	1371.1202	1387.8721	1394.7782	1411.9611	1447.4513	1462.3689	1479.3044	1484.87	1487.349	1528.9687	1529.4215	2909.021	2952.345	2962.3961	3015.8729	3019.0472	3039.0493	3053.7545	3055.4324	3087.5465	3133.1614	3139.2849	3832.6695
CC1OCC(CCO)O1	C[C@H]1OC[C@@H](CCO)O1	
InChI=1S/C6H12O3/c1-5-8-4-6(9-5)2-3-7/h5-7H,2-4H2,1H3	InChI=1S/C6H12O3/c1-5-8-4-6(9-5)2-3-7/h5-7H,2-4H2,1H3/t5-,6+/m0/s1
