15
gdb 86526	3.50525	1.01271	0.82049	6.1432	69.49	-0.269	-0.0488	0.2202	1317.4085	0.111791	-453.953349	-453.944426	-453.943481	-453.98843	30.604	
O	 0.3744120757	 1.2459431867	-0.4413359457	-0.419329
C	 0.0050474363	-0.0263544457	 0.0131168692	 0.100911
C	 0.1042212853	-0.2882116784	 1.5536058636	-0.204017
N	-1.344710619	-0.485676232	 1.5568864149	-0.09851
C	-1.53684869	-0.1547405599	 0.1388650243	-0.189925
C	-2.1505619756	-0.8625309046	 2.5656406687	 0.317216
O	-1.7917331378	-1.102764273	 3.7009260977	-0.349215
C	-3.5684893055	-0.973142712	 2.1545572943	 0.223196
N	-4.6813322886	-1.0688633704	 1.8583426156	-0.327409
H	 1.3307624661	 1.273922511	-0.5468073073	 0.295517
H	 0.4577556634	-0.8253083027	-0.5844710434	 0.094175
H	 0.6695448621	-1.1669342026	 1.8771328503	 0.133246
H	 0.4229446397	 0.5899278519	 2.1244846148	 0.135648
H	-2.0478458178	 0.7985961797	-0.0261112977	 0.148044
H	-2.0151003744	-0.9412181578	-0.4503671294	 0.140454
33.2413	98.2969	112.2763	117.8219	226.2629	284.0873	329.5479	383.8433	413.9618	499.6168	523.7826	662.2561	751.5813	785.8447	863.3484	906.9489	974.552	1012.0208	1062.5211	1135.2996	1157.2921	1189.5101	1195.5198	1245.6683	1289.0776	1310.3541	1315.462	1427.0788	1460.0433	1489.8909	1509.8663	1771.4177	2347.9715	3042.2049	3046.6931	3056.334	3103.8072	3112.9132	3822.1982
OC1CN(C1)C(=O)C#N	OC1CN(C1)C(=O)C#N	
InChI=1S/C5H6N2O2/c6-1-5(9)7-2-4(8)3-7/h4,8H,2-3H2	InChI=1S/C5H6N2O2/c6-1-5(9)7-2-4(8)3-7/h4,8H,2-3H2
