17
gdb 98806	2.83832	1.24992	0.92269	1.2667	71.03	-0.2528	0.0077	0.2606	1248.0762	0.136298	-455.176264	-455.167276	-455.166331	-455.210969	31.554	
C	 0.1008828186	 1.3671350559	-0.2247532819	-0.333874
N	-0.1364199493	-0.061455233	-0.2975647289	-0.309527
C	-1.2408701424	-0.6424108078	 0.2295436956	 0.386653
O	-2.1335202267	-0.058777195	 0.818960249	-0.382082
C	-1.2724146529	-2.1627569484	 0.0629154774	-0.256771
C	-2.622612676	-2.8012914737	-0.3073600458	-0.090909
O	-2.026344047	-3.3254315334	-1.547830262	-0.253629
C	-0.8214559689	-2.7402586705	-1.2611809062	 0.44948
N	 0.2514431444	-2.6714856624	-1.9116880326	-0.563098
H	 1.0854083876	 1.5776341104	 0.2055997011	 0.128927
H	 0.046056628	 1.8331430242	-1.2152020537	 0.130113
H	-0.6710636863	 1.7999716177	 0.4124405119	 0.167975
H	 0.4762641042	-0.6426554826	-0.8565646957	 0.273704
H	-0.7789056228	-2.6192348503	 0.9248469114	 0.141051
H	-2.974141711	-3.616690137	 0.3260807117	 0.128831
H	-3.4253332094	-2.0949620849	-0.5214565069	 0.1477
H	 0.1922578598	-3.1501203492	-2.8109655142	 0.235457
62.2821	86.2467	108.9063	136.7322	169.1268	270.2766	303.3709	390.2112	456.6629	551.6329	605.4185	664.3245	752.5972	777.0806	846.2132	858.6367	936.2444	964.1425	1012.8478	1028.7976	1073.4037	1119.9486	1144.4134	1153.4166	1180.0364	1201.2825	1242.4685	1267.6013	1306.2547	1366.3889	1442.1663	1497.9754	1501.2037	1518.4509	1593.1938	1782.9627	1811.9767	3030.656	3084.5768	3085.0964	3089.6535	3154.0524	3154.273	3488.9355	3555.6291
CNC(=O)C1COC1=N	CNC(=O)[C@H]1CO[C]1[NH]	
InChI=1S/C5H8N2O2/c1-7-5(8)3-2-9-4(3)6/h3,6H,2H2,1H3,(H,7,8)	InChI=1S/C5H8N2O2/c1-7-5(8)3-2-9-4(3)6/h3,6H,2H2,1H3,(H,7,8)/t3-/m0/s1
