17
gdb 73490	2.52897	2.24019	1.58281	0.9089	65.69	-0.2392	0.0722	0.3113	865.2298	0.138172	-458.931867	-458.92542	-458.924476	-458.962255	27.329	
O	 0.1719217839	 1.3485105877	-0.0804964513	-0.499083
C	 0.0997065591	-0.037211009	-0.0918379475	 0.432744
C	 0.6969223457	-0.6709313096	-1.337423589	-0.147602
O	-0.0175768033	-1.9111230942	-1.4716906921	-0.27362
C	-0.6899489625	-2.1348953005	-0.2309890283	 0.072451
C	 0.3492762226	-2.2540588067	 0.9190852839	-0.237955
C	 0.3362062815	-0.7631877787	 1.286809846	-0.021844
O	-1.0877694335	-0.5653080724	 1.5820925124	-0.320688
C	-1.2658447103	-0.7390905248	 0.1516635172	-0.00903
H	-0.2998880497	 1.6469485131	 0.7081494881	 0.289541
H	 0.5124715809	-0.0460773715	-2.2172323095	 0.121286
H	 1.7772423912	-0.8504273539	-1.2568944434	 0.103716
H	-1.3797085894	-2.9658460605	-0.3634871927	 0.087929
H	 0.0020124235	-2.8519371345	 1.7644161946	 0.114734
H	 1.3020889778	-2.6450908527	 0.5554164709	 0.113289
H	 1.0091845635	-0.3735726674	 2.051009082	 0.083723
H	-2.2235863709	-0.4067333543	-0.2447879314	 0.09041
230.9101	270.7242	326.5184	402.2932	441.2587	469.5428	505.4096	594.6857	628.0402	695.6733	746.4354	841.886	854.4219	893.5439	911.801	933.2058	960.9232	974.3595	1008.6995	1018.9705	1054.9217	1101.2125	1109.5668	1119.3664	1150.9485	1195.2477	1212.9498	1230.2805	1251.5397	1283.2063	1298.6883	1314.7176	1340.4744	1388.0873	1424.6558	1471.8639	1522.3227	3015.1299	3072.9477	3074.9581	3122.5066	3129.1823	3139.0312	3148.6088	3768.9928
OC12COC3CC1OC23	O[C@@]12CO[C@H]3C[C@@H]1O[C@@H]23	
InChI=1S/C6H8O3/c7-6-2-8-3-1-4(6)9-5(3)6/h3-5,7H,1-2H2	InChI=1S/C6H8O3/c7-6-2-8-3-1-4(6)9-5(3)6/h3-5,7H,1-2H2/t3-,4-,5+,6-/m0/s1
