16
gdb 82685	2.87279	1.58517	1.23747	3.9278	74.29	-0.2322	0.0138	0.246	1005.8064	0.126842	-396.86567	-396.858412	-396.857468	-396.897232	28.802	
N	 0.2076921418	 1.4550693883	 0.1284523182	-0.522624
C	 0.0098217063	 0.0409601032	 0.0554066366	 0.004635
C	 0.1739091042	-0.7423237528	 1.3777787016	-0.069854
N	-0.8528555705	-0.0676506405	 2.2566434002	-0.331895
C	-1.8539971854	-0.7965406065	 1.4495236183	-0.078619
C	-0.8982065047	-1.7925332133	 0.8801062879	-0.146927
C	-1.3909018456	-0.6465914113	-0.0141036772	 0.200452
C	-2.2866317416	-0.7058219362	-1.1151983933	 0.150041
N	-2.9969094434	-0.7309208195	-2.0301244844	-0.352301
H	-0.0260403221	 1.9179451787	-0.742566014	 0.236985
H	-0.3619257	 1.8415987805	 0.8740947505	 0.245892
H	 0.64067088	-0.3946455709	-0.7242839465	 0.099447
H	 1.1532042608	-0.9321908544	 1.8084802952	 0.093854
H	-0.8195367891	-0.5168350269	 3.1707963969	 0.22843
H	-2.9022279376	-0.8719805331	 1.7071215453	 0.122518
H	-0.9184768031	-2.8589455052	 0.7043044848	 0.119966
128.8066	155.8089	237.2382	310.6913	345.6485	472.4605	504.4558	547.1899	604.1041	625.0413	714.0038	753.0285	790.1901	846.2277	855.0902	889.7732	925.2985	933.8826	968.1381	986.9578	1019.5538	1063.6047	1121.6159	1134.0996	1154.3963	1178.1925	1217.726	1241.4202	1260.6515	1285.6135	1344.6399	1395.0182	1432.6259	1637.8974	2338.2287	3082.0768	3162.4583	3208.4827	3222.1889	3471.4595	3511.3559	3599.749
NC1C2NC3C2C13C#N	N[C@H]1[C@H]2N[C@@H]3[C@H]2[C@]13C#N	
InChI=1S/C6H7N3/c7-1-6-2-3(4(6)8)9-5(2)6/h2-5,9H,8H2	InChI=1S/C6H7N3/c7-1-6-2-3(4(6)8)9-5(2)6/h2-5,9H,8H2/t2-,3-,4-,5+,6+/m0/s1
