17
gdb 97544	2.76835	0.76431	0.71905	1.7982	75.28	-0.2526	-0.0396	0.2129	1634.047	0.130793	-458.927278	-458.916305	-458.915361	-458.964999	37.138	
C	 0.0731972311	 1.5584588347	 0.1723951529	-0.409787
C	 0.0635200162	 0.0290409311	 0.0772974209	 0.102092
O	 0.6619452898	-0.5850706627	 1.2184485882	-0.449441
C	-1.3835097826	-0.517945373	 0.0764368482	 0.158985
O	-2.3499633392	 0.117785209	-0.2381826456	-0.238591
C	 0.6871993232	-0.4444478041	-1.1628799172	 0.080632
C	 1.2154808935	-0.8457043077	-2.1703192959	-0.003573
C	 1.8207483206	-1.368067105	-3.3965681854	-0.198288
O	 2.0129930505	-2.7731426123	-3.3796466035	-0.396645
H	 1.0964193858	 1.9357103274	 0.1009558217	 0.117245
H	-0.5261583582	 1.9916256989	-0.6307659069	 0.145494
H	-0.3536988055	 1.8588658172	 1.1322663755	 0.133716
H	 1.6151095725	-0.5992660571	 1.0819217189	 0.292018
H	-1.4309970116	-1.5793673796	 0.3984437497	 0.100656
H	 1.2119353115	-1.0501880355	-4.2579227584	 0.128144
H	 2.8160024082	-0.9321395191	-3.5372363316	 0.146231
H	 1.1606058443	-3.1824861221	-3.1969245716	 0.29111
23.8487	63.9266	82.1181	116.5522	185.6018	207.1364	216.5931	253.7322	269.7662	321.8966	352.7269	383.3659	484.3701	499.94	551.8189	630.4083	706.0373	854.3114	934.4693	980.1766	1001.5474	1028.5756	1073.5277	1107.8811	1155.2017	1215.5377	1219.0029	1344.829	1362.5606	1384.1613	1403.4315	1417.1217	1481.607	1484.415	1486.9454	1846.1731	2343.1966	2922.1103	2981.5558	3053.816	3065.5314	3133.4716	3145.5697	3815.8412	3819.0044
CC(O)(C=O)C#CCO	C[C@@](O)(C=O)C#CCO	
InChI=1S/C6H8O3/c1-6(9,5-8)3-2-4-7/h5,7,9H,4H2,1H3	InChI=1S/C6H8O3/c1-6(9,5-8)3-2-4-7/h5,7,9H,4H2,1H3/t6-/m0/s1
