19
gdb 63433	4.06735	0.83471	0.80895	3.8821	77.08	-0.2401	0.0217	0.2618	1459.5814	0.157756	-419.193093	-419.183689	-419.182745	-419.227539	34.698	
C	-0.1474240602	 1.5499905058	-0.0889159608	-0.45347
C	-0.0710219433	 0.0308003324	-0.064182719	 0.39819
O	-1.2949083986	-0.5715977789	-0.4172250363	-0.469186
C	 1.1070244232	-0.5650870329	-0.8723306229	-0.213336
N	 1.8882081308	-0.6334853114	 0.3809451155	-0.081456
C	 2.7634593464	-1.7716591889	 0.5599617486	-0.287409
C	 3.4617455086	-1.7120540883	 1.8500223673	 0.278176
N	 3.9980254676	-1.6766930909	 2.8722928695	-0.304861
C	 0.6535359464	-0.5487687337	 1.1911722265	-0.230308
H	 0.8264543502	 1.9893720793	 0.1436923782	 0.140931
H	-0.466974735	 1.9005238517	-1.0753007962	 0.126576
H	-0.8653318461	 1.9138539781	 0.6569715478	 0.111711
H	-2.0067237328	-0.094515073	 0.0224688132	 0.280181
H	 0.8254680373	-1.5510216247	-1.2724922165	 0.102596
H	 1.5572787636	 0.0409031689	-1.6652039522	 0.107874
H	 2.2336411346	-2.7428675063	 0.5049381128	 0.12776
H	 3.5150622332	-1.7731994405	-0.2387219557	 0.155426
H	 0.7375148822	 0.0694903724	 2.0902486191	 0.112639
H	 0.231736462	-1.5315481791	 1.4509978813	 0.097965
60.6594	81.7446	145.9812	262.3327	265.7017	292.7163	297.2211	315.3622	380.1163	392.3209	440.4716	460.7642	502.5409	655.5032	768.4464	884.6846	903.0119	930.876	964.7064	971.2334	993.0186	995.0001	1101.4372	1123.6442	1130.2844	1160.7946	1170.4232	1234.4932	1256.1935	1282.7579	1293.0708	1328.7618	1381.1503	1404.8103	1409.9182	1472.2952	1491.0968	1493.8893	1501.3325	1525.2783	2367.1414	2917.1078	2987.0568	2996.2649	3024.675	3055.3714	3071.1804	3077.6801	3093.8299	3121.8763	3808.8179
CC1(O)CN(CC#N)C1	CC1(O)CN(CC#N)C1	
InChI=1S/C6H10N2O/c1-6(9)4-8(5-6)3-2-7/h9H,3-5H2,1H3	InChI=1S/C6H10N2O/c1-6(9)4-8(5-6)3-2-7/h9H,3-5H2,1H3
