15
gdb 21285	6.99861	1.33355	1.13603	3.1055	63.8	-0.227	0.0206	0.2477	1032.6683	0.119843	-396.010361	-396.002437	-396.001493	-396.043517	27.362	
C	-0.0772661024	 1.3807211364	 0.0603151685	-0.232315
O	-0.0667691399	-0.0272937437	 0.2799638924	-0.246828
C	-1.2365085073	-0.6438504492	 0.1081816351	 0.436143
N	-2.3564057816	-0.0275978789	-0.2424395984	-0.324398
N	-3.2263838947	-1.0807843646	-0.2784737088	-0.254292
C	-2.6022879903	-2.2314335546	 0.041459503	 0.37635
C	-3.2771268673	-3.5593876554	 0.0925342499	-0.492247
N	-1.3265249338	-1.9869519131	 0.2948367196	-0.374352
H	 0.9435923151	 1.718940484	 0.2410716814	 0.130877
H	-0.3774302372	 1.6146668238	-0.966361482	 0.13335
H	-0.7685623483	 1.8791508184	 0.7477538317	 0.13335
H	-4.1895975143	-0.9231622546	-0.522577647	 0.273568
H	-4.337026917	-3.4775475889	-0.1624449378	 0.123706
H	-2.8043190803	-4.2549121365	-0.6067342055	 0.158549
H	-3.1930909607	-3.9920018432	 1.0935808079	 0.158538
36.0636	98.2487	175.5846	218.1339	233.3145	334.6572	383.0865	479.6969	516.8654	671.2638	689.2031	761.3095	773.9029	994.5059	1012.1875	1058.6163	1064.3209	1116.3663	1169.281	1183.4184	1226.6023	1281.2304	1397.5957	1422.8317	1446.0922	1469.1829	1470.3457	1480.7354	1501.4379	1520.0742	1588.8093	1594.505	3032.5308	3048.071	3098.6353	3114.1231	3125.4533	3147.0712	3669.7938
COC1=NNC(C)=N1	COc1n[nH]c(C)n1	
InChI=1S/C4H7N3O/c1-3-5-4(8-2)7-6-3/h1-2H3,(H,5,6,7)	InChI=1S/C4H7N3O/c1-3-5-4(8-2)7-6-3/h1-2H3,(H,5,6,7)
