17
gdb 87420	3.74358	1.33776	1.30279	1.1804	71.27	-0.2298	0.0711	0.3009	1035.194	0.134958	-421.727952	-421.720642	-421.719698	-421.759635	28.905	
C	-0.0702161356	 1.5249547867	-0.0777132663	-0.416992
C	-0.0750495636	 0.0321338336	 0.1185802867	-0.041103
O	 1.2066178068	-0.64272632	-0.0123812396	-0.313389
C	 0.569384053	-0.6217422791	 1.2506651122	 0.527217
C	 1.2869543083	-0.1575490416	 2.4972574036	-0.254462
C	 0.4895837613	-0.8254279492	 3.6318586528	 0.094877
O	-0.64067217	-1.4913683313	 3.0591906343	-0.292227
C	 0.2664440664	-1.9263990668	 2.0042028058	-0.068175
C	 1.5178426693	-1.620360794	 2.9170750111	-0.135573
H	 0.7546186839	 1.9884997283	 0.4693997614	 0.123746
H	 0.0369638611	 1.7754750847	-1.1381419298	 0.130082
H	-1.0119628469	 1.9566573492	 0.2777705555	 0.127383
H	-0.8906944775	-0.5016562075	-0.372600605	 0.09163
H	 1.9360171172	 0.6952276424	 2.6418510639	 0.102746
H	 0.4231798192	-0.4455927713	 4.6428391566	 0.116025
H	-0.0194528241	-2.8512167463	 1.5086841351	 0.097112
H	 2.4035938713	-2.1662584079	 3.2070276116	 0.111101
123.3356	165.9443	190.8085	242.3793	384.9165	434.9903	512.5997	573.5038	630.2015	766.7955	770.1661	788.028	803.1214	821.4298	874.2069	929.0118	953.4317	971.7322	986.673	1003.7115	1025.571	1036.9134	1061.8311	1088.3625	1123.5926	1138.5495	1159.5242	1169.0748	1196.4831	1231.1519	1269.0981	1360.674	1365.3516	1409.3343	1477.2395	1491.6226	1546.3906	3037.7955	3091.6224	3102.5434	3125.9296	3156.8012	3206.0289	3212.9209	3228.2143
CC1OC11C2C3OC1C23	C[C@H]1O[C@]21[C@H]1[C@H]3O[C@@H]2[C@@H]13	
InChI=1S/C7H8O2/c1-2-7(9-2)4-3-5(4)8-6(3)7/h2-6H,1H3	InChI=1S/C7H8O2/c1-2-7(9-2)4-3-5(4)8-6(3)7/h2-6H,1H3/t2-,3+,4-,5+,6-,7-/m1/s1
