21
gdb 47798	2.17089	1.82471	1.21135	2.8292	81.93	-0.237	-0.0115	0.2255	1098.4764	0.185024	-387.115714	-387.107724	-387.10678	-387.148033	31.982	
O	-0.0061361534	-0.0631434823	 0.2380101712	-0.319535
C	-0.000120545	 1.131955355	 0.0423699333	 0.352848
C	-1.287607337	 1.9402357525	-0.0317848583	-0.278232
C	-1.7445821582	 2.3073907483	 1.4034934988	-0.189358
C	-0.7814008398	 3.1805632581	 2.2278465138	-0.184042
C	 0.6054119028	 2.5530909808	 2.4927865206	-0.228123
C	 1.5572675669	 2.6935443268	 1.3167326652	 0.009134
C	 2.4361476544	 1.5589519764	 0.8445263475	-0.31999
C	 1.2526368227	 1.9624900696	 0.0185256818	-0.103754
H	-1.1379631277	 2.853027978	-0.6194956761	 0.0965
H	-2.0621180505	 1.3334324353	-0.5094060063	 0.115852
H	-2.7089011073	 2.8223115391	 1.3284966906	 0.10018
H	-1.9307104166	 1.3714680793	 1.944617639	 0.116875
H	-0.6504849562	 4.1550564291	 1.7376923406	 0.092432
H	-1.2669096029	 3.3876760189	 3.188797972	 0.097014
H	 1.0593257183	 3.0252523086	 3.3717194353	 0.096645
H	 0.4792332548	 1.49393514	 2.7482907679	 0.11392
H	 1.9605582478	 3.6956907623	 1.19315115	 0.087095
H	 3.428673088	 1.7922179478	 0.4754534077	 0.112136
H	 2.3560265243	 0.6077764601	 1.3603915051	 0.13298
H	 1.4045753445	 2.5251385064	-0.8985711296	 0.099423
92.3574	166.3764	203.2384	291.824	300.8769	353.9606	387.4546	456.6817	504.9585	581.7052	673.2261	735.9115	790.6172	821.059	840.7282	881.7634	893.1058	908.2907	938.8658	966.9556	1028.4623	1050.5383	1061.0108	1074.4131	1084.7521	1099.6307	1134.3116	1161.0828	1205.9631	1214.3569	1221.8275	1275.2196	1276.6124	1343.2352	1353.5618	1373.6807	1380.4033	1390.4059	1417.9115	1476.6466	1483.5987	1484.88	1492.0936	1493.4822	1798.9327	3014.5627	3027.2725	3029.6369	3039.0034	3059.8235	3065.69	3074.4009	3101.089	3132.9986	3134.9703	3147.5387	3222.2594
O=C1CCCCC2CC12	O=C1CCCC[C@H]2C[C@@H]12	
InChI=1S/C8H12O/c9-8-4-2-1-3-6-5-7(6)8/h6-7H,1-5H2	InChI=1S/C8H12O/c9-8-4-2-1-3-6-5-7(6)8/h6-7H,1-5H2/t6-,7+/m0/s1
