16
gdb 92741	3.09168	1.37604	0.98352	4.0383	67.73	-0.2404	-0.0144	0.2261	1138.6139	0.126143	-471.258236	-471.25003	-471.249086	-471.29083	31.361	
N	 0.1068079756	 1.1985616326	 0.8954820922	-0.566099
C	-0.0635128981	 0.0245568461	 0.1788667019	 0.442203
N	-1.2025726297	-0.5291734222	 0.064026101	-0.310986
C	-1.266129359	-1.774984252	-0.6889272346	-0.18583
C	-0.0053802445	-2.6317166989	-0.5301553491	 0.018444
O	-0.0260427496	-3.7541628748	-1.3678775034	-0.435153
C	 1.2273190584	-1.7848869292	-0.81596702	 0.393483
O	 2.2101139039	-2.2247046823	-1.3777320064	-0.377532
N	 1.135400179	-0.4960911322	-0.3486844803	-0.38519
H	 0.8106128069	 1.8369356288	 0.5526547968	 0.250322
H	-0.7779036417	 1.6535517748	 1.0736725142	 0.266936
H	-2.1371205621	-2.348770515	-0.361266503	 0.121402
H	-1.4140862955	-1.5628926892	-1.7586803175	 0.114097
H	 0.0749284751	-2.928398714	 0.5326904668	 0.10214
H	 0.8786613174	-3.8457741247	-1.7038772071	 0.29503
H	 1.977777094	 0.0608218122	-0.3849222114	 0.256733
102.7775	129.3972	250.7571	290.5592	308.1432	342.2495	379.4563	423.8468	446.486	506.0979	527.6046	593.0318	622.3832	695.4467	742.5865	758.8483	786.7547	961.9573	1030.7576	1037.0351	1074.7159	1153.0349	1187.3452	1226.9139	1274.9887	1292.7729	1317.384	1320.3794	1397.0648	1450.2898	1483.5323	1501.0815	1634.0542	1758.6968	1807.5784	2929.7228	3001.1962	3084.9925	3560.1593	3600.2348	3665.8332	3712.3208
NC1=NCC(O)C(=O)N1	NC1=NC[C@@H](O)C(=O)N1	
InChI=1S/C4H7N3O2/c5-4-6-1-2(8)3(9)7-4/h2,8H,1H2,(H3,5,6,7,9)	InChI=1S/C4H7N3O2/c5-4-6-1-2(8)3(9)7-4/h2,8H,1H2,(H3,5,6,7,9)/t2-/m1/s1
