19
gdb 95521	2.54524	1.61289	1.2747	2.6653	77.37	-0.2413	0.0028	0.2441	1060.1302	0.159262	-423.009684	-423.001553	-423.000609	-423.042048	31.785	
C	-0.1100647014	 1.5869992584	 0.0284268508	-0.412674
C	 0.0400608778	 0.0606715844	 0.0337704859	 0.024239
O	 0.688066209	-0.4210833306	-1.1429562499	-0.266964
C	 2.0456044858	-0.0455804591	-1.2697164648	-0.133459
C	 2.8326814837	-0.2117725738	-0.0018089547	-0.082586
C	 2.2385801969	-0.4250477454	 1.1711191118	-0.124052
C	 0.7614089099	-0.4542766641	 1.2726224872	 0.411209
C	 0.0915954869	-0.4089042482	 2.5821738677	-0.241708
O	 0.2097717777	-1.6438705246	 1.8856237999	-0.28406
H	 0.8520414413	 2.0911611226	 0.1601392048	 0.123704
H	-0.5470055652	 1.9112373968	-0.9200877744	 0.126537
H	-0.7686253288	 1.910425536	 0.8396025192	 0.118249
H	-0.9497657463	-0.4048189607	 0.0082949892	 0.099129
H	 2.4583679864	-0.6916365664	-2.0536460686	 0.124038
H	 2.1439244592	 0.9912868581	-1.6395167654	 0.101315
H	 3.9148074622	-0.1560036869	-0.0847165979	 0.099839
H	 2.8096502128	-0.5906572572	 2.0798322593	 0.095511
H	 0.6882149766	-0.3158565122	 3.4899763753	 0.110905
H	-0.9185531246	-0.0047412269	 2.6557232545	 0.110828
98.1014	189.8749	226.2832	234.5119	280.0202	316.5855	380.805	446.7396	457.2252	549.6561	562.6414	682.3362	734.4286	834.5044	837.76	861.3091	916.4525	936.0002	986.3094	988.8196	1021.8533	1045.0492	1062.5029	1112.6893	1133.2484	1149.014	1166.2518	1195.186	1267.0583	1307.4559	1312.499	1363.0299	1369.6329	1399.3265	1409.7779	1444.4743	1484.3993	1490.5098	1505.2372	1527.4636	1716.7598	2940.4362	3044.0861	3050.7703	3068.2394	3070.331	3116.8392	3121.86	3151.2723	3159.2753	3181.187
CC1OCC=CC11CO1	C[C@H]1OCC=C[C@]21CO2	
InChI=1S/C7H10O2/c1-6-7(5-9-7)3-2-4-8-6/h2-3,6H,4-5H2,1H3	InChI=1S/C7H10O2/c1-6-7(5-9-7)3-2-4-8-6/h2-3,6H,4-5H2,1H3/t6-,7-/m1/s1
