22
gdb 5983	3.89894	0.98321	0.96226	0.0065	74.37	-0.2604	0.0689	0.3294	1317.9866	0.197173	-387.334938	-387.324212	-387.323268	-387.370367	38.446	
C	-0.0616317443	 1.5831594895	 0.1042350875	-0.410897
C	 0.0303680119	 0.0455021207	 0.0655685601	 0.246383
C	 0.7082747393	-0.4754349959	 1.3475276217	-0.410893
C	-1.3944586245	-0.5346899432	-0.012752368	-0.082733
O	-2.1364663376	-0.1238563248	 1.1274303033	-0.42786
C	 0.7696399961	-0.4430465358	-1.2011453246	-0.185807
C	 2.2190948541	 0.0050756775	-1.3572612048	-0.09649
O	 2.6954874572	-0.553292973	-2.5762658004	-0.42054
H	 0.9197119828	 2.0440918363	 0.2512361838	 0.106056
H	-0.4799929658	 1.9752371173	-0.8301119715	 0.103682
H	-0.7107340178	 1.9023818409	 0.9229117741	 0.131855
H	 0.0928579251	-0.2458285954	 2.2204607952	 0.131869
H	 0.8429507213	-1.5626076393	 1.3066418465	 0.103694
H	 1.6922553054	-0.0214769032	 1.4985390616	 0.106056
H	-1.87655376	-0.1845496178	-0.9397275251	 0.081443
H	-1.334518974	-1.6337850864	-0.0647653066	 0.081443
H	-3.0206288637	-0.494108061	 1.0603568412	 0.287576
H	 0.7610200088	-1.5403189582	-1.2277306002	 0.09833
H	 0.2249147087	-0.1077489412	-2.0931306319	 0.098312
H	 2.2822382582	 1.1033606954	-1.3792910086	 0.087313
H	 2.8232595849	-0.3421988025	-0.505734608	 0.087315
H	 3.610040124	-0.2800264098	-2.6920005052	 0.283894
63.0992	93.2656	126.2087	151.1648	216.0658	232.2343	243.2503	268.6638	281.9568	324.2571	328.0958	365.5707	409.1929	418.1541	595.742	755.8489	795.7442	894.0847	929.9413	957.5402	991.012	996.0485	1019.3204	1068.5648	1087.0235	1092.5216	1195.9388	1206.2539	1206.5435	1243.0941	1259.5238	1298.5897	1301.0933	1344.5571	1355.4249	1393.9874	1408.3937	1452.2254	1460.5981	1482.1977	1485.2738	1495.823	1499.2341	1513.299	1519.7906	1530.4232	2959.1234	2979.6582	2992.0429	3005.867	3018.2799	3029.5757	3035.1511	3061.4597	3094.0063	3097.8135	3122.5795	3126.2521	3829.0736	3841.0783
CC(C)(CO)CCO	CC(C)(CO)CCO	
InChI=1S/C6H14O2/c1-6(2,5-8)3-4-7/h7-8H,3-5H2,1-2H3	InChI=1S/C6H14O2/c1-6(2,5-8)3-4-7/h7-8H,3-5H2,1-2H3
