14
gdb 28919	2.48793	1.8798	1.07196	1.4736	68.56	-0.2059	-0.0011	0.2048	1023.706	0.103738	-470.083019	-470.075574	-470.07463	-470.114587	29.081	
N	-0.018596449	 1.4733532488	-0.1549715899	-0.606045
C	 0.0005814218	 0.083141808	-0.0843587709	 0.111514
C	-1.1572372539	-0.6981714454	-0.0660813218	 0.388548
O	-2.3460629796	-0.0555294518	-0.0456130618	-0.427685
N	-1.1568409714	-2.0272056875	-0.0605039464	-0.356325
C	 0.0370960216	-2.6154121977	-0.0688423822	 0.042785
N	 1.2147384562	-1.995194007	-0.0741884103	-0.356325
C	 1.1791985894	-0.6666343767	-0.0795574956	 0.388545
O	 2.3504042274	 0.0078644888	-0.0727184213	-0.427688
H	 0.8182216306	 1.9077840764	 0.2074031562	 0.26034
H	-0.8625377223	 1.8851048801	 0.2172301757	 0.26034
H	-3.023895358	-0.7449348356	-0.0219836119	 0.302497
H	 0.0517585922	-3.7010834118	-0.0673997982	 0.117
H	 3.0468259651	-0.6629897286	-0.0570424716	 0.302497
138.7104	257.7828	272.2625	309.8351	319.096	339.0133	513.4644	520.2363	527.4199	553.5085	566.2664	573.7713	655.1992	680.9186	738.5015	806.3846	898.3915	953.1017	1002.0342	1139.9062	1154.6215	1300.0151	1328.3577	1345.9662	1356.1378	1373.0459	1493.8438	1513.815	1632.3723	1652.3458	1667.5726	3180.0844	3559.0328	3664.8591	3773.241	3774.3933
NC1=C(O)N=CN=C1O	Nc1c(O)ncnc1O	
InChI=1S/C4H5N3O2/c5-2-3(8)6-1-7-4(2)9/h1H,5H2,(H2,6,7,8,9)	InChI=1S/C4H5N3O2/c5-2-3(8)6-1-7-4(2)9/h1H,5H2,(H2,6,7,8,9)
