25
gdb 99023	3.22877	0.82356	0.77888	2.3473	89.53	-0.2396	-0.0095	0.2301	1670.3968	0.224628	-389.532253	-389.520511	-389.519566	-389.570897	42.728	
C	 0.2941533386	 1.5161072627	 0.0067845495	-0.376644
C	 0.0195380603	 0.014418575	 0.0015838742	-0.267284
C	-1.4674718686	-0.3350595547	 0.0145993457	 0.367569
O	-2.3129878504	 0.5324873655	 0.0280677301	-0.298792
C	-1.7832532669	-1.8284263534	 0.0090220099	-0.309079
C	-3.2630943505	-2.2758484976	 0.0207718658	 0.263137
C	-3.9977194141	-1.762490893	-1.2323230374	-0.409656
C	-3.2799601391	-3.8169747791	 0.0128174315	-0.399588
C	-3.9736131771	-1.7757867359	 1.2929941529	-0.409659
H	 1.3699759176	 1.7123496784	-0.0025666605	 0.108373
H	-0.153882949	 1.9977015242	-0.8659990414	 0.130579
H	-0.1369564788	 1.9884772136	 0.8930212482	 0.130613
H	 0.4712208888	-0.4679565856	-0.8761964116	 0.119346
H	 0.488411081	-0.4770633582	 0.8652025825	 0.119365
H	-1.2755274673	-2.2561405987	-0.8681622984	 0.113188
H	-1.2587385387	-2.2660503755	 0.8713234375	 0.113199
H	-3.5086128607	-2.1167900777	-2.1476283719	 0.097466
H	-5.0288287895	-2.1321973887	-1.2469017754	 0.104686
H	-4.0227384779	-0.6719597775	-1.2557486792	 0.141082
H	-2.7697829719	-4.2282201328	 0.8914976182	 0.104339
H	-4.3094680819	-4.1908644323	 0.0207462742	 0.110176
H	-2.7868097068	-4.2188972366	-0.8797861563	 0.104333
H	-3.9979747813	-0.6855615102	 1.3284183495	 0.141154
H	-5.004327078	-2.1456403743	 1.3233054332	 0.104649
H	-3.4672212176	-2.1397368577	 2.195016059	 0.097447
7.4218	54.9244	117.879	143.1839	182.6438	226.6386	259.586	267.2418	274.0287	299.4873	321.7306	328.3474	394.7825	395.418	471.0596	474.1371	658.7483	734.6104	752.1811	837.6248	880.2548	912.3474	933.962	939.5969	959.4319	1005.8489	1023.0786	1025.4864	1064.8579	1090.4937	1124.9383	1188.7624	1234.5913	1275.4636	1278.0801	1319.3902	1355.5935	1377.6535	1391.8293	1394.7952	1413.4375	1422.4606	1439.1169	1456.4258	1477.6911	1488.1019	1491.2803	1495.355	1497.366	1503.633	1510.1883	1526.4879	1799.9057	3000.0094	3018.4138	3020.6288	3024.7749	3028.3881	3031.6329	3047.8698	3051.154	3082.759	3085.7472	3087.0653	3094.7244	3121.8794	3127.519	3137.5808	3140.394
CCC(=O)CC(C)(C)C	CCC(=O)CC(C)(C)C	
InChI=1S/C8H16O/c1-5-7(9)6-8(2,3)4/h5-6H2,1-4H3	InChI=1S/C8H16O/c1-5-7(9)6-8(2,3)4/h5-6H2,1-4H3
