20
gdb 7344	4.23199	0.99484	0.84895	2.9139	72.07	-0.26	-0.0233	0.2367	1396.8221	0.174189	-386.171549	-386.161665	-386.160721	-386.206972	34.947	
C	-0.0734915134	 1.5241721271	 0.0524041038	-0.387452
C	 0.1103492878	 0.0106420208	-0.0784726986	-0.162936
C	 0.514358887	-0.6479607889	 1.2427954893	-0.287499
C	 0.6495470171	-2.1550871287	 1.162465696	 0.353306
O	 0.2234448761	-2.8000287963	 0.2256516581	-0.328643
C	 1.3620243664	-2.8952245236	 2.3011870355	 0.065301
C	 0.7235494155	-2.6221398419	 3.6701206075	-0.402494
O	 1.3727421046	-4.2718041172	 2.0368012825	-0.438892
H	 0.8496928923	 2.0130938544	 0.3834716182	 0.114396
H	-0.3597982206	 1.9698636924	-0.9048382702	 0.118855
H	-0.855381155	 1.7691678195	 0.7801124205	 0.114938
H	-0.8122189847	-0.45570944	-0.4375702193	 0.120555
H	 0.8705287133	-0.2116148596	-0.8359172184	 0.10978
H	 1.453609846	-0.2287317044	 1.6280575527	 0.119394
H	-0.2332015163	-0.4309715146	 2.020222629	 0.134147
H	 2.3966176309	-2.5054747331	 2.3188418338	 0.086795
H	-0.3324186197	-2.9092325073	 3.6650432813	 0.126834
H	 1.2352357389	-3.2245774028	 4.4245241161	 0.137556
H	 0.8069948733	-1.5692554763	 3.9546823242	 0.114602
H	 0.9440489604	-4.3652969294	 1.170050708	 0.291459
51.8905	62.6227	96.1196	136.1521	225.0233	246.6483	265.2898	320.8851	333.9448	398.7259	441.1729	474.4162	574.3993	689.1125	749.5873	804.9992	871.2137	903.336	932.0728	1013.2489	1051.0805	1052.5013	1080.9372	1132.6409	1144.2466	1194.5289	1246.3201	1277.8038	1317.4404	1331.1223	1357.563	1394.5031	1401.0733	1414.8373	1435.4096	1450.3208	1488.5088	1490.3615	1500.0523	1500.6348	1508.3584	1786.562	2935.2865	3010.2724	3029.3055	3042.0197	3043.3067	3048.6569	3078.8344	3102.6745	3106.3226	3118.944	3127.5636	3669.2287
CCCC(=O)C(C)O	CCCC(=O)[C@@H](C)O	
InChI=1S/C6H12O2/c1-3-4-6(8)5(2)7/h5,7H,3-4H2,1-2H3	InChI=1S/C6H12O2/c1-3-4-6(8)5(2)7/h5,7H,3-4H2,1-2H3/t5-/m1/s1
