23
gdb 103862	2.89336	0.98547	0.9123	1.0896	87.61	-0.2403	0.0871	0.3274	1454.753	0.203668	-388.255547	-388.245385	-388.244441	-388.290845	37.888	
C	-0.3539728094	 1.2572193388	 0.1028027945	-0.244301
O	 0.310541993	 0.022923936	-0.0769797722	-0.277986
C	 0.8240259798	-0.5471298714	 1.0983034744	 0.426756
C	 2.0445507926	 0.1493320519	 1.6608585394	-0.454338
C	-0.1728012224	-1.2050575061	 2.0276034395	-0.367269
C	 0.7339341279	-2.0499732936	 1.1455304639	-0.077134
C	 0.1729499073	-2.8338265819	 0.0027155743	 0.033909
C	 1.0560256797	-3.7770806194	-0.7761815312	-0.269945
C	-0.0216098594	-4.3254986188	 0.1274150831	-0.275499
H	 0.3296340194	 2.0576148572	 0.4186273678	 0.107852
H	-0.7821768915	 1.5293763639	-0.8651024473	 0.124324
H	-1.1628536034	 1.1799856025	 0.8433534151	 0.106123
H	 1.813656905	 1.1639992657	 2.0035149031	 0.11577
H	 2.4416020764	-0.4027972158	 2.5173490284	 0.116336
H	 2.8294285299	 0.216196719	 0.9001823058	 0.124602
H	 0.0038503941	-1.1791054051	 3.0979211106	 0.104838
H	-1.2183452494	-1.1558675399	 1.7409411497	 0.112759
H	 1.5593093362	-2.5421480577	 1.6562719066	 0.075387
H	-0.5695434919	-2.2950671361	-0.5751395309	 0.089378
H	 0.9174368073	-3.8449712034	-1.8495437677	 0.109559
H	 2.0874976745	-3.8863527345	-0.4564361066	 0.106033
H	 0.2875115749	-4.8012051292	 1.0526946597	 0.106071
H	-0.9002213608	-4.7713365321	-0.3261646199	 0.106775
58.2734	97.1837	128.4941	137.1117	187.3037	218.923	274.0721	316.9378	334.6104	363.7389	404.6057	479.7814	606.4506	690.6587	746.8292	801.2272	827.6816	864.3333	907.691	914.6732	932.5719	960.1525	997.658	1045.5894	1055.3035	1061.3243	1075.9434	1100.604	1110.7087	1128.7483	1138.6274	1180.8468	1197.868	1209.5049	1220.9786	1234.2554	1262.6546	1299.3756	1343.1629	1410.6851	1447.1287	1469.745	1473.2294	1479.0467	1483.679	1494.0864	1505.3039	1509.0577	1512.4112	2990.8611	3031.3568	3042.6537	3094.4929	3111.2142	3113.1182	3121.5456	3125.8863	3126.1755	3131.3115	3174.0632	3203.4253	3213.3619	3219.6805
COC1(C)CC1C1CC1	CO[C@@]1(C)C[C@H]1C1CC1	
InChI=1S/C8H14O/c1-8(9-2)5-7(8)6-3-4-6/h6-7H,3-5H2,1-2H3	InChI=1S/C8H14O/c1-8(9-2)5-7(8)6-3-4-6/h6-7H,3-5H2,1-2H3/t7-,8-/m0/s1
