23
gdb 105066	2.49143	1.13476	1.06515	1.4225	85.5	-0.24	0.0737	0.3137	1310.1354	0.204716	-388.255641	-388.245625	-388.24468	-388.290723	37.961	
C	-1.8078767161	 0.2983145636	 1.7678179693	-0.407557
C	-0.8698726114	-0.6382715783	 1.0394388593	 0.021184
C	 0.0043255225	-0.1341328023	-0.079277222	-0.314596
C	 0.6367982084	-0.584343288	 1.2230001435	-0.109286
C	 1.3453834798	 0.3526636664	 2.1806886329	 0.360799
C	 1.6341327638	 1.7487122259	 1.652191105	-0.163999
O	 2.3555198112	 2.4861942136	 2.6285114896	-0.421565
C	 1.0775080195	 0.1985881165	 3.6629630279	-0.289109
C	 2.3907745315	-0.2626466635	 3.0839732536	-0.313157
H	-1.3648113685	 1.2880851836	 1.9102314631	 0.120184
H	-2.7400405442	 0.4296727757	 1.206741348	 0.11263
H	-2.0685814959	-0.0868847892	 2.7593552204	 0.117077
H	-1.2720827221	-1.6393676159	 0.902932042	 0.077766
H	 0.1504873693	-0.7493227236	-0.9607147172	 0.106081
H	-0.034354948	 0.9287916957	-0.293192646	 0.107308
H	 1.1162017313	-1.5575505296	 1.1592507591	 0.082634
H	 2.2093296404	 1.6644903287	 0.7160431709	 0.091392
H	 0.69092966	 2.2639617804	 1.4080936636	 0.083982
H	 2.5151998608	 3.3666495964	 2.2787968838	 0.289238
H	 1.0920282304	 1.0938280813	 4.2730118118	 0.121152
H	 0.356371568	-0.5536546232	 3.9631220462	 0.102987
H	 2.5668571946	-1.3296707122	 2.9916923517	 0.100193
H	 3.2688097947	 0.329131688	 3.3111156136	 0.12466
36.833	115.8651	166.9081	175.1727	214.1457	225.9128	274.9684	306.9977	339.6143	366.8084	408.0888	482.2287	584.3749	677.9677	775.1524	790.5475	836.2811	852.0244	861.5954	915.5465	938.177	963.5652	987.6468	1039.929	1058.4807	1073.2164	1076.0372	1080.9317	1096.8586	1109.105	1132.3304	1148.1682	1198.5645	1199.673	1206.347	1234.3493	1273.1072	1316.5108	1324.9272	1393.247	1416.8404	1423.6171	1455.104	1456.3662	1486.8842	1492.5573	1499.2526	1503.2196	1522.3281	2959.5381	2986.7398	3030.9281	3088.0243	3104.6551	3126.2629	3130.2229	3131.6911	3137.2854	3138.5496	3211.6231	3220.9562	3234.3439	3844.7596
CC1CC1C1(CO)CC1	C[C@H]1C[C@H]1C1(CO)CC1	
InChI=1S/C8H14O/c1-6-4-7(6)8(5-9)2-3-8/h6-7,9H,2-5H2,1H3	InChI=1S/C8H14O/c1-6-4-7(6)8(5-9)2-3-8/h6-7,9H,2-5H2,1H3/t6-,7+/m0/s1
