14
gdb 20453	6.35495	1.45774	1.29177	1.9053	63.26	-0.2434	0.0065	0.2499	916.9796	0.11088	-374.894878	-374.88842	-374.887476	-374.926288	23.579	
C	 0.3623195118	 1.5486176512	 0.1789830181	-0.23295
N	 1.182999529	 0.414565884	-0.2605921412	-0.306191
C	-0.2315484156	 0.1877345197	 0.124059317	-0.121369
C	-0.4865642161	-0.6147923749	 1.3371100211	 0.394456
N	 0.0568861489	-0.3540951924	 2.5181844965	-0.272409
N	-0.4528214442	-1.3411798992	 3.2904250573	-0.174256
C	-1.2691490765	-2.1308491621	 2.5662310937	 0.014245
N	-1.31842293	-1.7019377558	 1.3211821134	-0.31327
H	 0.6385516707	 1.9545815534	 1.1470839437	 0.138093
H	 0.0256541602	 2.2790840183	-0.5522849097	 0.110676
H	 1.2542209691	 0.4096419433	-1.2753543988	 0.233635
H	-0.9398345268	-0.0250170292	-0.6707736112	 0.100757
H	-0.2024408878	-1.3956744828	 4.2639992589	 0.282574
H	-1.7911597627	-2.9814906835	 2.9779707711	 0.14601
47.5102	178.3388	190.8866	418.7237	439.6692	546.3042	671.061	681.2831	778.7831	849.9733	858.1342	898.4047	915.7237	973.0387	996.8776	1009.7568	1102.1195	1117.7103	1125.4448	1165.0973	1201.9622	1245.915	1271.2202	1291.008	1322.685	1416.5354	1470.9894	1498.1298	1530.961	1558.0243	3111.0958	3161.8004	3204.9849	3259.279	3496.3081	3664.7821
C1NC1C1=NNC=N1	C1N[C@H]1c1n[nH]cn1	
InChI=1S/C4H6N4/c1-3(5-1)4-6-2-7-8-4/h2-3,5H,1H2,(H,6,7,8)	InChI=1S/C4H6N4/c1-3(5-1)4-6-2-7-8-4/h2-3,5H,1H2,(H,6,7,8)/t3-/m1/s1
