17
gdb 32747	3.30018	1.03891	0.82525	1.0333	72.93	-0.1919	0.0114	0.2033	1384.1091	0.136182	-455.166874	-455.157921	-455.156976	-455.201676	32.049	
C	 0.1711827481	 1.455919607	-0.001057567	-0.393966
C	-0.1979335676	 0.0360584195	 0.4113491002	-0.124356
N	-1.2234059625	-0.5126015003	-0.4927720046	-0.413212
C	-1.6019581268	-1.8291911235	-0.2987907295	 0.282785
C	-2.7194795449	-2.4678275773	 0.1424424168	 0.237962
O	-3.849697025	-1.8986648667	 0.6231357425	-0.442544
N	-2.5744461972	-3.8324369731	 0.0163506756	-0.334078
C	-1.3812387526	-3.9754151829	-0.4717770847	 0.069932
O	-0.7283266915	-2.8223760014	-0.705509752	-0.164164
H	 0.950894245	 1.8557413037	 0.6535245443	 0.120709
H	 0.5337073946	 1.4772642738	-1.0325742593	 0.131265
H	-0.6943040815	 2.1252449257	 0.068105208	 0.115508
H	 0.6783220327	-0.6159851818	 0.3400289426	 0.122986
H	-0.5288858886	 0.0163469927	 1.462194882	 0.096248
H	-2.0414943717	 0.0834415448	-0.5317038098	 0.241608
H	-4.4625149482	-2.6186853852	 0.8119814282	 0.304809
H	-0.8558758223	-4.8914755049	-0.6887148133	 0.148508
47.8857	57.3657	115.9848	247.5616	267.9539	269.1327	308.6963	333.9108	407.0422	508.7634	631.0301	657.1993	682.2377	722.1727	791.3759	798.9574	825.4551	920.3209	955.9708	1061.3634	1067.2766	1134.7917	1149.6097	1167.5314	1221.1781	1294.0228	1314.6955	1344.5445	1379.0443	1411.9166	1436.6075	1476.0074	1496.1458	1498.6549	1519.4443	1553.0315	1738.8717	2973.6586	3034.8303	3072.7287	3104.346	3123.0773	3278.9099	3559.2472	3816.3732
CCNC1=C(O)N=CO1	CCNc1c(O)nco1	
InChI=1S/C5H8N2O2/c1-2-6-5-4(8)7-3-9-5/h3,6,8H,2H2,1H3	InChI=1S/C5H8N2O2/c1-2-6-5-4(8)7-3-9-5/h3,6,8H,2H2,1H3
