21
gdb 63722	2.96997	1.21239	1.04198	3.2109	85.04	-0.2426	-0.0162	0.2265	1240.5532	0.180816	-387.088129	-387.07897	-387.078026	-387.121566	35.378	
C	-0.1106229175	 1.5718052397	 0.0813059229	-0.443477
C	 0.0404919043	 0.0524411188	 0.0227402636	 0.332333
C	-1.3120218093	-0.6207566563	-0.2160909286	-0.440665
C	 1.1425801727	-0.5083498583	-0.94965228	-0.360415
C	 1.8097907209	-1.2311899706	 0.2197655234	 0.29275
C	 2.213442763	-0.2488864924	 1.2988622864	-0.357049
C	 0.7756802761	-0.6093705721	 1.2115991368	-0.116869
C	 2.2595304386	-2.6236713673	 0.2230005259	 0.050376
O	 2.2808631633	-3.3442800677	-0.7484584366	-0.2744
H	 0.8439641887	 2.0727104171	 0.2676327123	 0.111697
H	-0.5060591471	 1.9557173497	-0.8659198799	 0.117839
H	-0.8044797116	 1.8675373108	 0.8762922569	 0.114949
H	-1.7496665142	-0.2886372635	-1.1636302021	 0.116863
H	-1.2118446595	-1.7103701604	-0.2543861088	 0.12227
H	-2.0190495843	-0.3752643118	 0.5850232449	 0.111696
H	 0.7472285234	-1.198469694	-1.6966426238	 0.125954
H	 1.7666193197	 0.2381569231	-1.4505413008	 0.096664
H	 2.7498501109	-0.6789749002	 2.1399827862	 0.12432
H	 2.577373452	 0.728775502	 0.994670087	 0.120745
H	 0.27653614	-1.1267743437	 2.0241775845	 0.096123
H	 2.57578879	-2.9971304028	 1.2261778296	 0.058296
81.8912	159.3038	175.3967	220.7587	260.128	288.7368	302.6913	348.4153	380.1619	411.6178	475.0892	507.6749	608.3542	735.2123	763.9082	828.164	847.35	907.9985	949.7708	955.6082	960.1603	986.1493	1010.4245	1029.111	1039.904	1050.2047	1087.6046	1130.5894	1202.5856	1211.4211	1235.4295	1255.9384	1283.5832	1339.3276	1378.3955	1403.1885	1422.1321	1437.5436	1477.6203	1483.0737	1488.1051	1495.4735	1504.1709	1508.061	1797.6402	2845.159	3023.1008	3028.4235	3054.5715	3088.6767	3093.5698	3100.5518	3102.8621	3113.7525	3125.699	3168.4888	3197.9912
CC1(C)CC2(CC12)C=O	CC1(C)C[C@]2(C[C@@H]12)C=O	
InChI=1S/C8H12O/c1-7(2)4-8(5-9)3-6(7)8/h5-6H,3-4H2,1-2H3	InChI=1S/C8H12O/c1-7(2)4-8(5-9)3-6(7)8/h5-6H,3-4H2,1-2H3/t6-,8+/m0/s1
