18
gdb 103039	2.4256	1.64449	1.15971	3.4103	76.4	-0.279	0.0207	0.2996	1079.6455	0.14869	-401.901193	-401.893131	-401.892187	-401.933886	31.065	
O	 0.0451645261	 1.4530660816	-0.0436389295	-0.415504
C	 0.0461551079	 0.0528429211	 0.1491060449	-0.158008
C	-1.3685006302	-0.5430098156	 0.0288711476	 0.196807
C	-2.1769560779	 0.0826300061	 1.0790631068	 0.214124
N	-2.7377663767	 0.633202045	 1.9286518879	-0.357173
C	-2.0632441357	-0.6851018065	-1.3783364831	-0.059622
C	-1.109070588	-1.8800736509	-1.6699986978	-0.249687
C	-1.5955350529	-2.0845914434	-0.2045369628	-0.085359
C	-3.0199074798	-1.7287712377	-0.7275152033	-0.245102
H	-0.4441335208	 1.8553802943	 0.6837018128	 0.299205
H	 0.7066732421	-0.3534092536	-0.6174836475	 0.12124
H	 0.4654531158	-0.2246158784	 1.1280731431	 0.106736
H	-2.3235693561	 0.1412345117	-2.03817372	 0.098313
H	-1.4845268716	-2.6099099011	-2.3899336694	 0.105621
H	-0.0547172241	-1.6744978169	-1.8474213345	 0.106122
H	-1.3204808842	-2.8793095095	 0.489121951	 0.090565
H	-3.7436510792	-1.360349677	 0.000982525	 0.129571
H	-3.4683541348	-2.4536792592	-1.4092671312	 0.10215
83.3397	144.3579	160.6704	210.6182	321.3091	395.1432	409.4238	488.6222	524.2882	549.4767	608.3896	686.1546	800.8269	806.4951	877.2685	900.0597	904.9568	954.2869	1001.7248	1013.8339	1042.856	1069.917	1085.3544	1100.1396	1110.1496	1140.7101	1176.5318	1184.4238	1198.1661	1233.4722	1242.4951	1250.6501	1280.0906	1385.1302	1422.1885	1495.3028	1514.1067	1550.3586	2336.1377	2993.6447	3074.3452	3082.7759	3115.8217	3122.2341	3130.643	3142.6216	3153.6857	3792.225
OCC1(C#N)C2CC1C2	OC[C@@]1(C#N)[C@H]2C[C@@H]1C2	
InChI=1S/C7H9NO/c8-3-7(4-9)5-1-6(7)2-5/h5-6,9H,1-2,4H2	InChI=1S/C7H9NO/c8-3-7(4-9)5-1-6(7)2-5/h5-6,9H,1-2,4H2/t5-,6+,7-
