22
gdb 115155	3.07247	1.10674	0.90521	3.207	83.19	-0.2526	0.0314	0.2841	1367.5779	0.195029	-404.38249	-404.37302	-404.372075	-404.416826	35.463	
C	-0.1468492891	 1.6634723026	 0.0997421718	-0.390079
C	-0.0164951239	 0.1363185616	 0.1494440945	-0.206694
C	-1.3486649359	-0.590390685	-0.046230827	 0.009692
C	-1.9958579974	-0.394185384	-1.4265450337	-0.095973
O	-2.9004155976	-1.4973625506	-1.5876609851	-0.241189
C	-2.5540948244	-2.5223539342	-0.7511391327	 0.408
N	-3.1536737939	-3.6321047599	-0.693680886	-0.546117
C	-1.3374658014	-2.1346731699	 0.0708751673	-0.108498
C	-0.084806471	-2.8375830528	-0.4803824177	-0.401307
H	 0.8179289413	 2.1457898112	 0.2824907207	 0.118357
H	-0.5060324361	 2.0074108192	-0.8760618786	 0.120229
H	-0.8497121185	 2.0260845939	 0.8579829571	 0.118901
H	 0.7004358798	-0.192823772	-0.6120966654	 0.103203
H	 0.4083213885	-0.1583016493	 1.1170140608	 0.103527
H	-2.0587856464	-0.2130749158	 0.7018297104	 0.08444
H	-2.5754811625	 0.5268948217	-1.5191114123	 0.118705
H	-1.2502265235	-0.4181563585	-2.2335814478	 0.106149
H	-3.9215281337	-3.6604972961	-1.3670812248	 0.218381
H	-1.4898773331	-2.4581194732	 1.1031294678	 0.102075
H	 0.1196212912	-2.5565290186	-1.5191202041	 0.117813
H	 0.7993689745	-2.5957336992	 0.1160693086	 0.117129
H	-0.2367167469	-3.9192180911	-0.4522999236	 0.143256
73.3727	98.4467	169.9307	174.1311	232.8832	240.9079	272.8921	296.3049	346.3507	445.0347	488.6268	637.9776	677.9823	683.1513	779.0841	795.9786	836.5105	893.1209	941.0948	964.3581	975.2166	1013.0995	1035.5257	1049.2616	1083.3983	1101.5036	1130.5915	1160.7218	1181.2293	1229.4693	1270.6309	1288.6491	1301.2777	1317.5761	1350.4025	1371.1276	1387.9552	1405.1217	1414.1703	1417.4227	1486.5597	1497.5575	1501.3356	1502.2394	1507.2065	1526.9121	1774.501	3006.5663	3017.4125	3027.2095	3032.6331	3039.5982	3062.5033	3081.5295	3098.7191	3101.7964	3107.1369	3109.5562	3126.6458	3467.8501
CCC1COC(=N)C1C	CC[C@H]1CO[C]([NH])[C@H]1C	
InChI=1S/C7H13NO/c1-3-6-4-9-7(8)5(6)2/h5-6,8H,3-4H2,1-2H3	InChI=1S/C7H13NO/c1-3-6-4-9-7(8)5(6)2/h5-6,8H,3-4H2,1-2H3/t5-,6-/m0/s1
