14
gdb 127186	4.37886	1.13036	0.90353	2.4915	66.12	-0.2594	-0.0354	0.224	1186.1217	0.101758	-470.02734	-470.019525	-470.018581	-470.060335	27.325	
C	-0.0084424632	 1.4587094299	-0.0258391858	-0.352384
N	-0.0054117887	-0.003070864	-0.0104474052	-0.203282
C	-0.0145512918	-0.6886792815	 1.1992489942	 0.152575
O	-0.0251911374	-0.1397659231	 2.2740896355	-0.316768
C	 0.0066235488	-0.674267458	-1.2109963108	 0.521947
N	 0.0154154118	-0.0378543303	-2.3613561849	-0.223547
O	 0.0259055025	-1.0917582417	-3.2953474272	-0.156324
C	 0.022079327	-2.2159451078	-2.589116499	 0.123151
N	 0.0104125818	-2.0516788364	-1.3058777566	-0.334972
H	 0.8826260322	 1.8328985658	-0.5363289502	 0.151833
H	-0.8918240934	 1.8290343401	-0.5522530045	 0.151839
H	-0.018458066	 1.7877717025	 1.0116867109	 0.171904
H	-0.0109265457	-1.7778760448	 1.056982664	 0.13696
H	 0.0289049421	-3.1470256205	-3.1370951204	 0.177069
76.5216	135.2432	141.7677	196.833	295.2685	319.9315	376.1444	467.7245	493.9552	614.1568	775.6243	810.5545	911.2942	923.6817	952.0249	981.716	1044.0793	1045.4648	1161.6891	1165.9937	1179.8636	1315.8096	1320.1651	1407.2263	1432.754	1443.426	1492.9016	1506.7216	1566.13	1624.7928	1807.5238	3055.454	3058.5939	3121.0071	3179.1347	3265.547
CN(C=O)C1=NOC=N1	CN(C=O)c1nocn1	
InChI=1S/C4H5N3O2/c1-7(3-8)4-5-2-9-6-4/h2-3H,1H3	InChI=1S/C4H5N3O2/c1-7(3-8)4-5-2-9-6-4/h2-3H,1H3
