17
gdb 15235	3.04589	1.52087	1.33466	1.1715	71.26	-0.2268	0.0291	0.2559	992.8271	0.139876	-363.783676	-363.774731	-363.773787	-363.81707	32.367	
C	-1.7866817185	 0.7227537361	-0.9840115003	-0.317313
N	-0.8014045388	-0.2988726678	-0.6395918584	-0.097892
C	 0.4567866826	-0.3654908192	-1.3638646274	-0.036103
C	 0.8140058063	 0.5805887103	-2.4894360007	-0.093136
O	 0.0601481991	 0.3203139944	-3.6674097196	-0.414761
C	 0.4303259984	 0.0826499543	 0.0764026213	-0.21613
C	 0.7163111038	 1.4477670969	 0.4255754428	 0.351312
C	 0.9487295022	 2.5799960786	 0.7609913187	-0.467409
H	-1.3869005448	 1.7420033919	-1.0538996575	 0.119656
H	-2.2315865802	 0.4575618912	-1.9458442891	 0.138283
H	-2.5673715331	 0.7186219073	-0.2177087463	 0.122818
H	 0.7907867752	-1.3910039234	-1.5383520414	 0.087736
H	 0.6014178847	 1.6157509594	-2.2177815579	 0.125638
H	 1.896212165	 0.5119138139	-2.681308448	 0.096067
H	 0.2433927963	-0.5837921979	-3.9435977842	 0.283706
H	 0.7298542736	-0.6374266833	 0.8355338464	 0.115738
H	 1.1605075784	 3.5788901274	 1.0529965916	 0.201788
87.8996	110.986	139.53	165.992	236.7713	277.5029	327.517	351.0718	372.8979	546.0395	588.9568	598.7121	613.787	660.9523	738.8371	814.5761	849.7773	1000.8886	1023.9235	1056.4179	1078.4691	1118.0567	1142.7589	1164.9154	1174.0838	1228.6469	1333.274	1353.4965	1373.1461	1399.5923	1434.6858	1453.5922	1483.48	1496.7624	1521.4532	2228.2035	2986.0517	3021.6012	3071.8213	3087.8689	3119.6856	3123.4676	3127.5431	3502.0999	3810.5889
CN1C(CO)C1C#C	CN1[C@@H](CO)[C@H]1C#C	
InChI=1S/C6H9NO/c1-3-5-6(4-8)7(5)2/h1,5-6,8H,4H2,2H3	InChI=1S/C6H9NO/c1-3-5-6(4-8)7(5)2/h1,5-6,8H,4H2,2H3/t5-,6+,7?/m1/s1
