18
gdb 62475	2.36254	1.56086	1.28865	3.0105	72.17	-0.243	0.0081	0.2511	1066.2152	0.146465	-439.092687	-439.083789	-439.082845	-439.125857	33.671	
C	-0.1604870639	 1.4910572928	 0.0113949758	-0.433473
C	-0.072037979	-0.0306130011	 0.0082644568	-0.030747
N	-1.3708297508	-0.6130734475	-0.2662306545	-0.549005
C	 1.1599161542	-0.5611306566	-0.7754976175	 0.429723
O	 1.5377550453	-0.6233759259	-1.9014871929	-0.337201
O	 1.7895128968	-1.041466639	 0.3518882628	-0.284962
C	 0.66986301	-0.6629441324	 1.1919719958	 0.473582
C	 0.8560889036	-0.2396124031	 2.6013722198	-0.341341
C	 0.1671058076	-1.5599572929	 2.2641210493	-0.337332
H	 0.7936719932	 1.9423581604	 0.2940997425	 0.135151
H	-0.425391891	 1.8565339433	-0.9861186374	 0.132468
H	-0.9315349522	 1.8167098496	 0.7156387632	 0.132331
H	-1.7452031617	-0.2395833061	-1.1336671514	 0.240927
H	-1.2990504728	-1.6194975961	-0.3832852063	 0.240063
H	 1.859977078	-0.292622755	 3.008056453	 0.134861
H	 0.2534826265	 0.5802797146	 2.9781871028	 0.126875
H	-0.9078174637	-1.6297430556	 2.3941463642	 0.135213
H	 0.7200464398	-2.4728733893	 2.4559031242	 0.132866
95.5174	177.9651	188.9591	203.6867	229.21	256.8288	289.6361	327.0795	398.069	520.0312	525.9173	605.1423	697.2824	742.2364	767.0822	794.706	852.7431	889.9842	906.3461	964.7602	990.0587	1022.5936	1049.365	1054.4579	1072.1502	1080.128	1157.1938	1186.9889	1237.2358	1267.3862	1334.7498	1405.6678	1409.2861	1448.1135	1485.3739	1495.3428	1504.8764	1657.6335	1932.5621	3041.3618	3112.1323	3128.3133	3132.9459	3134.4963	3217.3811	3230.7067	3494.0652	3574.9602
CC1(N)C(=O)OC11CC1	C[C@@]1(N)C(=O)OC21CC2	
InChI=1S/C6H9NO2/c1-5(7)4(8)9-6(5)2-3-6/h2-3,7H2,1H3	InChI=1S/C6H9NO2/c1-5(7)4(8)9-6(5)2-3-6/h2-3,7H2,1H3/t5-/m1/s1
