17
gdb 24427	3.4332	1.598	1.13569	2.6063	73.93	-0.1976	0.0183	0.2159	1038.888	0.140443	-418.049173	-418.042351	-418.041406	-418.080346	27.248	
C	 0.0071433561	 1.5292032946	-0.0007912867	-0.210905
C	 1.4583561842	 2.0541139415	 0.0417400421	-0.166053
N	 2.2181589356	 1.6244053916	 1.2321794922	-0.398249
C	 1.8809318157	 0.3298451281	 1.5824983105	 0.330331
C	 0.9376101368	-0.4853610082	 1.0496670423	 0.2011
C	-0.045667767	-0.015675537	 0.0278443024	-0.326669
N	 1.0552744744	-1.7429086614	 1.6392237456	-0.321825
C	 2.0259434425	-1.610669251	 2.4793534349	 0.035827
O	 2.6007703833	-0.3698109045	 2.5051826583	-0.191396
H	-0.5394894824	 1.9276397014	 0.862663595	 0.103336
H	-0.4868139108	 1.9133107343	-0.8989721008	 0.10219
H	 1.9984305923	 1.6949395479	-0.8432789491	 0.120669
H	 1.4762440651	 3.1463678191	 0.0097327115	 0.10906
H	 2.1628281583	 2.2825851846	 2.0015530343	 0.23995
H	-1.0577384998	-0.3574905161	 0.2703218703	 0.117478
H	 0.187705245	-0.4255915533	-0.9641527979	 0.112407
H	 2.429075541	-2.3363125115	 3.167142335	 0.14275
116.8495	221.647	307.1937	313.5808	399.2566	454.2157	517.4198	603.35	661.3713	690.0749	713.793	766.672	790.268	860.6125	878.052	927.9973	948.7028	989.7796	1059.7561	1097.5328	1101.107	1154.5477	1187.0016	1214.9442	1262.4442	1288.9318	1297.6527	1345.0639	1364.3563	1390.0806	1413.3214	1461.8809	1479.8734	1492.5774	1498.0525	1551.8649	1691.5905	3013.7933	3027.7366	3035.8181	3066.8496	3085.4882	3099.4207	3280.8063	3524.1393
C1CNC2=C(C1)N=CO2	C1CNc2c(C1)nco2	
InChI=1S/C6H8N2O/c1-2-5-6(7-3-1)9-4-8-5/h4,7H,1-3H2	InChI=1S/C6H8N2O/c1-2-5-6(7-3-1)9-4-8-5/h4,7H,1-3H2
