16
gdb 43774	4.97157	1.04433	0.97763	3.6169	70.06	-0.2499	0.0035	0.2534	1188.0803	0.124361	-437.85045	-437.842876	-437.841932	-437.882908	28.791	
O	 0.4058163594	 0.0541754554	-0.0647575587	-0.337073
C	 0.1881843179	 1.2303370162	-0.0630760152	 0.435184
N	-1.02564816	 1.9569644053	-0.1273668921	-0.411954
C	-0.3297160427	 3.2444422176	 0.0086451629	 0.384222
C	 0.5167508791	 3.2947575425	 1.237689348	-0.330805
C	 1.0058173543	 2.5089384564	 0.0132336968	-0.287368
C	-0.749413313	 4.4100598569	-0.809502263	-0.037926
C	-1.3601695697	 5.606181369	-0.2071882082	-0.175413
O	 0.0082137628	 5.603805991	-0.6197135565	-0.22699
H	-1.8401141255	 1.7048401219	 0.4234849106	 0.240725
H	 1.0499316084	 4.2259248164	 1.4030832251	 0.145426
H	 0.2129758698	 2.7647248752	 2.1357746588	 0.122046
H	 1.9279389623	 2.7471076405	-0.4969678569	 0.129549
H	-0.9871505068	 4.1738297785	-1.8469904639	 0.107441
H	-2.025648366	 6.2277776922	-0.8034680763	 0.12478
H	-1.5200600702	 5.6379027449	 0.8691983288	 0.118156
73.0515	125.4248	188.1967	259.4217	373.949	390.4163	461.8137	512.0508	588.9665	679.8655	710.8809	764.8521	860.8243	872.4688	879.1087	916.6422	946.5788	964.7371	998.2721	1032.615	1073.4585	1093.3302	1104.6726	1117.5119	1154.6888	1172.7965	1211.266	1239.5341	1277.45	1324.448	1369.4043	1450.5831	1490.3139	1523.3269	1905.4852	3089.648	3111.97	3119.6459	3181.6725	3214.6275	3230.7654	3531.2775
O=C1NC2(CC12)C1CO1	O=C1N[C@]2(C[C@@H]12)[C@H]1CO1	
InChI=1S/C6H7NO2/c8-5-3-1-6(3,7-5)4-2-9-4/h3-4H,1-2H2,(H,7,8)	InChI=1S/C6H7NO2/c8-5-3-1-6(3,7-5)4-2-9-4/h3-4H,1-2H2,(H,7,8)/t3-,4+,6-/m0/s1
