16
gdb 76358	2.01549	1.43612	1.19265	3.5271	77.16	-0.256	0.0083	0.2644	1129.5155	0.121295	-400.710767	-400.701177	-400.700233	-400.744873	34.766	
C	-0.1493505318	 1.5540981429	-0.0351540699	-0.415942
C	 0.0150981485	 0.053970332	-0.0135632236	-0.075618
C	 1.3336235488	-0.5916755391	-0.2405113716	 0.069286
O	 2.4120554406	 0.2407541752	-0.4542826963	-0.397787
C	 0.7105807458	-0.6390060151	 1.1925039676	-0.079472
C	 1.3288821615	 0.1491334963	 2.2187071517	 0.266038
C	 1.8687270189	 0.7932533761	 3.0780834742	-0.430252
C	 0.1656223328	-1.90631266	 1.6074109584	 0.234516
N	-0.2747032914	-2.9345655344	 1.9035048326	-0.343173
H	 0.7459925916	 2.0576450704	 0.3293945069	 0.151565
H	-0.3360857898	 1.8891160779	-1.0602801964	 0.132275
H	-0.9990553707	 1.8568317592	 0.5831830506	 0.132756
H	-0.837683786	-0.5121147167	-0.3755566009	 0.124377
H	 1.3586257014	-1.5531279538	-0.7517247226	 0.122425
H	 3.1855206451	-0.1250481044	-0.0101049295	 0.303793
H	 2.3299742446	 1.3643169235	 3.8456958189	 0.205214
106.416	127.9519	148.2325	162.0481	169.5552	229.3424	274.2745	322.5292	369.2136	470.3568	489.2239	580.2984	588.3537	597.2714	626.7915	649.3816	673.7519	770.4689	862.2917	977.3738	1015.8348	1053.2749	1093.0796	1131.9646	1192.4253	1235.5068	1277.2137	1308.0831	1376.8326	1421.7562	1458.7974	1491.1704	1500.3456	2240.1021	2348.5568	3050.6894	3112.5323	3116.2549	3151.6036	3168.5375	3501.3182	3801.2804
CC1C(O)C1(C#C)C#N	C[C@H]1[C@@H](O)[C@]1(C#C)C#N	
InChI=1S/C7H7NO/c1-3-7(4-8)5(2)6(7)9/h1,5-6,9H,2H3	InChI=1S/C7H7NO/c1-3-7(4-8)5(2)6(7)9/h1,5-6,9H,2H3/t5-,6+,7+/m0/s1
