23
gdb 40739	3.73991	1.05015	0.94133	0.0837	89.55	-0.2576	0.0799	0.3375	1356.1457	0.207497	-351.114647	-351.106274	-351.105329	-351.148263	33.143	
C	-0.2470763109	 1.3483522419	-0.2751566312	-0.271864
C	 1.2084036565	 1.1489601636	 0.0668502544	-0.270635
C	 0.2748853493	-0.0368271007	 0.0258793323	 0.017559
C	-0.1232661446	-0.7359007838	 1.2966294349	 0.034011
C	-1.3724773013	-1.6746379875	 1.301498096	-0.26889
C	-0.5775627394	-2.7360407801	 2.1181147858	-0.004027
C	-0.0070395709	-3.9012191866	 1.2788279932	-0.218443
C	 1.1957229385	-3.0007499948	 0.8621407557	-0.231916
C	 0.7316312383	-1.9022330142	 1.8676370692	-0.037858
H	-0.8819571284	 1.821322444	 0.4673495347	 0.108184
H	-0.5073171266	 1.5927081195	-1.2992085298	 0.107867
H	 1.9433901822	 1.2576028694	-0.7231446968	 0.108201
H	 1.5512745018	 1.4881862445	 1.0391695873	 0.10807
H	 0.3820806322	-0.6873435658	-0.8385446312	 0.076647
H	-0.2396784175	 0.0179272014	 2.0851862278	 0.060543
H	-2.2626391815	-1.2650276068	 1.7847616109	 0.096076
H	-1.6627115181	-2.0269080899	 0.3057723226	 0.091585
H	-0.963231172	-2.9589354741	 3.1140802096	 0.057276
H	 0.3061411337	-4.749550437	 1.8940930436	 0.095809
H	-0.6478796472	-4.2807844447	 0.4764253182	 0.09038
H	 2.177574607	-3.4255905398	 1.0828093204	 0.099077
H	 1.1995335324	-2.6899745575	-0.185832335	 0.097507
H	 1.4482376264	-1.6544083711	 2.6527905275	 0.05484
56.6785	73.4321	158.0853	216.4343	295.135	349.5047	402.5844	478.218	622.1899	725.3779	740.5609	754.4628	793.7361	824.0873	841.7772	885.8884	892.3522	898.4789	920.1228	950.0354	959.4318	1008.4549	1017.4557	1051.5552	1055.0699	1066.9077	1078.3608	1087.3275	1134.3824	1141.4196	1158.0524	1197.6186	1206.0252	1220.8162	1226.9861	1237.6319	1252.9662	1259.4925	1274.8498	1291.7168	1301.1297	1319.521	1326.558	1432.0067	1470.468	1477.4804	1483.3463	1497.5911	1505.9454	3019.6769	3041.8632	3043.7035	3062.3221	3078.3472	3088.4974	3090.4711	3103.8244	3113.9175	3126.9739	3131.021	3136.3049	3204.2549	3219.7068
C1CC1C1CC2CCC12	C1CC1[C@H]1C[C@H]2CC[C@@H]12	
InChI=1S/C9H14/c1-2-6(1)9-5-7-3-4-8(7)9/h6-9H,1-5H2	InChI=1S/C9H14/c1-2-6(1)9-5-7-3-4-8(7)9/h6-9H,1-5H2/t7-,8-,9-/m1/s1
