23
gdb 111796	2.84872	1.3329	1.28075	0.2295	88.64	-0.2312	0.0261	0.2573	1161.0259	0.208848	-351.171826	-351.163755	-351.162811	-351.204259	33.061	
C	-0.0118417786	 1.5829144401	 0.020097089	-0.382695
C	-0.0973158606	 0.0530807106	-0.0458888955	-0.214762
C	 0.7141927464	-0.5408727984	-1.199072589	 0.061467
C	 2.2689656293	-0.491523422	-1.113104879	-0.066698
C	 2.5440666361	-1.4444275858	 0.1002853346	-0.204446
C	 1.4599482765	-2.549913021	-0.0753013939	-0.203445
C	 0.6998701616	-2.0869631999	-1.3660423777	-0.079407
C	 1.6925846502	-2.2389609771	-2.5060531571	-0.082466
C	 2.6239725082	-1.2909303157	-2.3561013197	-0.081271
H	 1.0145892657	 1.9200695465	 0.1991527031	 0.117047
H	-0.3491473465	 2.0386670934	-0.9174667048	 0.114143
H	-0.635549344	 1.9802111978	 0.8269627064	 0.109894
H	 0.2133580231	-0.3669236172	 0.9167482252	 0.096884
H	-1.1468034749	-0.2428767802	-0.1774398728	 0.092321
H	 0.3861299695	-0.0698259137	-2.1329635402	 0.063728
H	 2.7345505785	 0.4911124357	-1.0264989017	 0.054299
H	 3.5618161929	-1.8403085346	 0.0738951203	 0.094603
H	 2.4260378081	-0.9134590066	 1.0497525268	 0.094029
H	 1.887999123	-3.5470616672	-0.200573988	 0.094449
H	 0.7840001178	-2.5902214097	 0.7838267723	 0.094277
H	-0.274716507	-2.5579225726	-1.5063085384	 0.051669
H	 1.6818612648	-3.0450856577	-3.229611394	 0.088513
H	 3.5319696099	-1.1613983348	-2.9325701261	 0.087867
73.7803	175.3971	205.9373	278.5552	282.2814	351.537	404.3167	502.5056	525.2208	684.2786	702.1034	746.7916	786.0559	806.4853	839.365	845.6888	875.3571	888.6179	927.1861	953.6174	955.1447	971.6606	979.6093	1002.8455	1055.1338	1064.5895	1104.9523	1107.7208	1136.5819	1152.8141	1173.5605	1193.1374	1231.8448	1264.0395	1282.0288	1288.8369	1297.6506	1307.8765	1332.0046	1340.0347	1363.0982	1399.1889	1411.7295	1479.0001	1495.5154	1500.3602	1505.1488	1510.2593	1642.0435	3018.8322	3030.8552	3036.2976	3049.6474	3058.1986	3066.9748	3091.7545	3096.1125	3099.2085	3101.4528	3105.6591	3109.3007	3189.9917	3215.9967
CCC1C2CCC1C=C2	CC[C@H]1[C@H]2CC[C@@H]1C=C2	
InChI=1S/C9H14/c1-2-9-7-3-4-8(9)6-5-7/h3-4,7-9H,2,5-6H2,1H3	InChI=1S/C9H14/c1-2-9-7-3-4-8(9)6-5-7/h3-4,7-9H,2,5-6H2,1H3/t7-,8+,9+
