17
gdb 90053	4.09744	1.30338	1.20845	2.9932	74.56	-0.2557	-0.0097	0.2459	1056.2926	0.134512	-421.717434	-421.709748	-421.708804	-421.749486	29.887	
C	-0.4717526742	 1.5140848372	-0.0322480543	-0.403634
C	-0.0013932262	 0.0672982169	 0.0046420185	 0.005658
C	 1.180726479	-0.357211883	-0.961512531	-0.350726
C	 2.0399939365	-0.4720253734	 0.2980693295	 0.210231
O	 2.3395884537	 0.909143072	 0.7964183956	-0.314072
C	 1.9383715764	 0.2249186788	 2.0150870218	-0.087163
C	 0.8121503966	-0.4869001952	 1.25993023	-0.071254
C	 2.9138886099	-0.9658099778	 1.503589549	 0.380481
O	 3.7405454888	-1.7340065801	 1.8433766606	-0.284816
H	 0.3664650512	 2.2057675119	 0.0563915797	 0.143881
H	-0.9995488316	 1.7207248472	-0.9702196153	 0.113533
H	-1.1685816212	 1.7106931063	 0.7897429755	 0.116927
H	-0.8591086741	-0.596284859	-0.1321703352	 0.088729
H	 0.9988065739	-1.3164232642	-1.4503984346	 0.121524
H	 1.5295416012	 0.375025995	-1.6922480495	 0.127312
H	 1.9733497555	 0.7771823809	 2.9545563969	 0.108308
H	 0.4366337146	-1.4269586335	 1.6688137929	 0.09508
94.763	172.8386	202.0742	239.817	326.31	371.5579	419.5077	505.0234	584.0106	676.2614	694.9595	783.6489	788.1386	823.3498	829.4286	859.7584	872.971	915.6313	950.6539	1021.3678	1057.8119	1089.4738	1098.0289	1111.8867	1133.3047	1193.1502	1217.4354	1228.8968	1242.5384	1269.3128	1329.2339	1363.0542	1407.5062	1466.3088	1489.4377	1510.2719	1933.6776	3033.9443	3065.604	3075.9247	3092.2023	3096.9106	3120.4534	3137.3598	3148.0911
CC1CC23OC(C12)C3=O	C[C@H]1C[C@@]23O[C@@H]([C@@H]12)C3=O	
InChI=1S/C7H8O2/c1-3-2-7-4(3)5(9-7)6(7)8/h3-5H,2H2,1H3	InChI=1S/C7H8O2/c1-3-2-7-4(3)5(9-7)6(7)8/h3-5H,2H2,1H3/t3-,4+,5-,7+/m0/s1
