21
gdb 114221	3.20743	1.15393	0.95619	1.2404	86.79	-0.2091	0.0169	0.2261	1321.2849	0.181697	-387.08756	-387.078667	-387.077722	-387.121473	34.23	
C	 0.1896186103	 1.5165518735	 0.1183404839	-0.38059
C	 0.1756197736	-0.0127840131	 0.0640430629	-0.173569
C	 0.5624224163	-0.5619569023	-1.3147163686	 0.069475
O	 1.8884612555	-0.1336083172	-1.6680468549	-0.318402
C	 2.6956662227	-1.2571697382	-1.956232699	 0.43581
C	 3.7175265212	-1.1258705471	-3.0578246624	-0.327233
C	 4.1590306955	-1.1797781373	-1.6078066799	-0.325176
C	 1.847238276	-2.4494812393	-1.7488970385	-0.166676
C	 0.6250168618	-2.0660746918	-1.3934788094	-0.118015
H	 1.1813934043	 1.8984151723	-0.1375774745	 0.133797
H	-0.5278154607	 1.9437804303	-0.5915100426	 0.110476
H	-0.0718634925	 1.8790588702	 1.117001793	 0.108115
H	 0.8678891091	-0.4274990219	 0.8061888617	 0.099875
H	-0.82450719	-0.3911083277	 0.3137396584	 0.089428
H	-0.1414001881	-0.1533246787	-2.0610972034	 0.077552
H	 3.9094562149	-1.9812510477	-3.6970947361	 0.111531
H	 3.7601258344	-0.1635122244	-3.5554066217	 0.124906
H	 4.4923272766	-0.2527791953	-1.1545812284	 0.124199
H	 4.6571322272	-2.0719998484	-1.2428393934	 0.111834
H	 2.2077016128	-3.4610118996	-1.8844472843	 0.108651
H	-0.2232274609	-2.7025869262	-1.1771853328	 0.104012
54.1838	100.1338	148.3681	210.7944	258.6096	300.2447	319.3374	416.3659	452.1996	530.9595	572.2118	727.4575	756.0911	763.0295	804.4761	852.3598	871.4212	888.8838	901.998	919.7111	944.0949	965.5183	989.8307	1021.2047	1051.5903	1062.3803	1066.9066	1095.8709	1136.7736	1140.6485	1191.8561	1244.3973	1286.4675	1294.5928	1319.9338	1365.7146	1389.9647	1401.8989	1405.6764	1449.3378	1475.9297	1489.9501	1496.0586	1508.1659	1680.424	2942.389	3022.0492	3035.0861	3064.6873	3100.7697	3122.2221	3129.0627	3131.7058	3207.5969	3214.7048	3229.4574	3231.9533
CCC1OC2(CC2)C=C1	CC[C@H]1OC2(CC2)C=C1	
InChI=1S/C8H12O/c1-2-7-3-4-8(9-7)5-6-8/h3-4,7H,2,5-6H2,1H3	InChI=1S/C8H12O/c1-2-7-3-4-8(9-7)5-6-8/h3-4,7H,2,5-6H2,1H3/t7-/m1/s1
