16
gdb 20879	6.87313	1.07083	0.98466	1.2221	65.99	-0.2886	-0.0221	0.2665	1186.2669	0.1313	-379.934436	-379.926824	-379.92588	-379.967301	26.793	
C	 0.0279044235	 1.5386268411	-0.0514875493	-0.382706
C	 0.0536521009	 0.00928975	-0.0197283422	-0.167433
C	 0.649199192	-0.5382175691	 1.290365154	-0.293918
C	 0.7310922158	-2.0281338328	 1.3033344195	 0.371297
N	 0.0593940788	-2.7670132759	 2.1475700163	-0.177297
O	 0.4206939315	-4.0791076543	 1.8005302604	-0.152952
C	 1.27117913	-3.9658633791	 0.7818764835	 0.106991
N	 1.5138740311	-2.7494605717	 0.4166106562	-0.305335
H	 1.0376913673	 1.953865114	 0.0392785214	 0.117877
H	-0.3999071711	 1.9052534589	-0.989298975	 0.117342
H	-0.5725945999	 1.9443683878	 0.7701377216	 0.11801
H	-0.9624962007	-0.3845082392	-0.1409236828	 0.108093
H	 0.6396283415	-0.3759405164	-0.8612216606	 0.122831
H	 1.6613462561	-0.136714129	 1.4230323516	 0.124859
H	 0.052498796	-0.2158211878	 2.1487995481	 0.12765
H	 1.6693462672	-4.8815524064	 0.3691991475	 0.164692
60.1093	89.8306	123.9783	244.9196	310.4826	335.9882	386.3275	632.3759	699.153	748.9995	794.2276	876.1214	897.8173	906.5189	911.7246	983.1609	999.6976	1046.6855	1109.9402	1115.7061	1151.3055	1252.7125	1293.7034	1312.4372	1323.9006	1368.3143	1388.1167	1414.1488	1473.7667	1494.1227	1499.193	1509.5119	1525.0433	1605.1196	3031.1642	3032.3269	3043.7203	3069.6515	3094.0333	3106.4015	3107.5631	3264.0736
CCCC1=NOC=N1	CCCc1nocn1	
InChI=1S/C5H8N2O/c1-2-3-5-6-4-8-7-5/h4H,2-3H2,1H3	InChI=1S/C5H8N2O/c1-2-3-5-6-4-8-7-5/h4H,2-3H2,1H3
