19
gdb 52627	2.78017	0.83392	0.7502	4.5877	82.6	-0.2618	0.01	0.2718	1606.214	0.154346	-423.028378	-423.017326	-423.016382	-423.066044	37.916	
C	 0.0133924409	 1.4177195631	 0.097319938	-0.50094
C	 0.0134066609	-0.0364587653	 0.0403706904	 0.066845
C	 0.0213911595	-1.2390535249	 0.0094867809	 0.102493
C	 0.0089228745	-2.7001619697	-0.0731995297	 0.137593
C	-1.4423091945	-3.2058378139	-0.1493483627	-0.40864
C	 0.8513356289	-3.1616937121	-1.2752435642	-0.408638
O	 0.6332004156	-3.1429813737	 1.1811971843	-0.22367
C	 0.7812766731	-4.4535443092	 1.4314715608	 0.175781
O	 1.2840569036	-4.8565714779	 2.4399221851	-0.281988
H	 0.580445498	 1.8488858108	-0.7346414701	 0.152077
H	-1.0051026995	 1.8180382298	 0.0523179823	 0.15209
H	 0.4689180717	 1.7701055456	 1.0289233325	 0.159764
H	-1.9377370404	-2.7635626098	-1.0171915362	 0.135825
H	-1.482953414	-4.2937964396	-0.2513344805	 0.120007
H	-1.9877528309	-2.9111944302	 0.7497416327	 0.144392
H	 1.8866412487	-2.8366328908	-1.1521015631	 0.144393
H	 0.8292483789	-4.2492947369	-1.3863437148	 0.120007
H	 0.4540525477	-2.7175252779	-2.1912610669	 0.135823
H	 0.4025727073	-5.1163136374	 0.6339993412	 0.076787
19.6486	78.887	86.1173	124.8465	138.3552	224.6505	245.9652	260.1616	297.6672	312.9549	341.162	391.7971	404.1826	475.8491	558.7366	609.0438	712.7095	864.4062	927.4297	958.9939	1022.7689	1047.0752	1050.8955	1054.9608	1076.5417	1156.8677	1189.0519	1189.2553	1302.2091	1395.7449	1411.0334	1413.4804	1436.7836	1475.8198	1477.2637	1478.3566	1482.3284	1496.3463	1502.9615	1851.8107	2378.0095	2979.7364	3030.8257	3048.218	3052.6338	3093.1167	3095.2184	3121.9127	3127.3361	3138.1667	3139.7766
CC#CC(C)(C)OC=O	CC#CC(C)(C)OC=O	
InChI=1S/C7H10O2/c1-4-5-7(2,3)9-6-8/h6H,1-3H3	InChI=1S/C7H10O2/c1-4-5-7(2,3)9-6-8/h6H,1-3H3
