20
gdb 71221	2.83907	1.83751	1.65712	1.4282	82.6	-0.2119	0.0098	0.2217	937.9794	0.17325	-365.967378	-365.960377	-365.959433	-365.998069	30.024	
C	-0.06254621	 1.5607233701	 0.0123845704	-0.503277
C	 0.0061863006	 0.0462614422	 0.0000352761	 0.26315
C	 1.0614387307	-0.6942095793	-0.8934531943	-0.183818
N	 1.2560404562	-1.7203932078	 0.163570124	-0.146368
C	-0.0306257519	-2.5057516546	 0.5200456863	-0.055611
C	 0.0183221967	-1.8213551035	 1.9222273957	-0.232266
C	 0.752014139	-0.7067468649	 1.1851520196	-0.020638
C	-1.2692529622	-1.9833819293	-0.1562140682	-0.086243
C	-1.2887574971	-0.6596845633	-0.3264405087	-0.111129
H	 0.9244286144	 2.0004883467	 0.190333676	 0.113618
H	-0.4319618092	 1.945323519	-0.9453763808	 0.116894
H	-0.7377415277	 1.922738169	 0.7963053199	 0.11933
H	 0.7395863555	-1.0451509608	-1.877769545	 0.098215
H	 2.0000582358	-0.1343715212	-0.9820689216	 0.10027
H	 0.1010366599	-3.5861367501	 0.4548962267	 0.072296
H	-0.9320578543	-1.6236128185	 2.419583514	 0.098787
H	 0.7120879996	-2.3307671429	 2.5956755804	 0.110794
H	 1.4967930815	-0.0946328565	 1.7038073734	 0.065789
H	-2.0885541543	-2.6473119563	-0.409632892	 0.091395
H	-2.1175116933	-0.1095623478	-0.7614285622	 0.088812
207.5843	237.6994	286.6913	357.4645	385.7788	422.9282	484.9829	556.5148	642.9207	681.8223	705.9177	744.3824	750.9406	829.2466	853.9957	893.8284	926.4713	939.0753	952.261	977.1435	995.3109	1021.3167	1027.7726	1061.6331	1089.6036	1139.6884	1150.2636	1164.8632	1199.6277	1225.0773	1229.3566	1249.7662	1261.3648	1279.9325	1303.8302	1338.6812	1394.0043	1410.5586	1470.7411	1485.7231	1493.1553	1497.0526	1672.3449	3022.077	3029.3641	3051.8326	3070.3039	3086.7297	3094.3064	3097.965	3103.729	3132.898	3166.0928	3193.4115
CC12CN3C(CC13)C=C2	C[C@@]12CN3[C@@H](C[C@H]13)C=C2	
InChI=1S/C8H11N/c1-8-3-2-6-4-7(8)9(6)5-8/h2-3,6-7H,4-5H2,1H3	InChI=1S/C8H11N/c1-8-3-2-6-4-7(8)9(6)5-8/h2-3,6-7H,4-5H2,1H3/t6-,7-,8-/m1/s1
