16
gdb 87274	2.14805	1.57418	1.04264	2.6672	67.53	-0.2563	-0.058	0.1983	1146.9143	0.121694	-475.047183	-475.038012	-475.037068	-475.081335	33.128	
C	-0.2026382496	 1.6184230454	 0.2574450866	-0.436908
C	-0.1675223742	 0.1117032048	 0.2717932176	 0.069169
O	 0.883373198	-0.5562828208	-0.3868319452	-0.257323
C	 0.80732211	-0.7393911081	 1.036295185	 0.123699
C	 1.930618106	-0.0617385713	 1.7518385712	 0.127247
O	 2.3146384038	-0.3186979958	 2.8707033574	-0.283899
C	 0.2618821904	-2.1079235008	 1.4620631787	 0.358726
N	 0.6991131741	-2.553631081	 2.6609429508	-0.554601
O	-0.5266400265	-2.6960365338	 0.7496551641	-0.361817
H	 0.7881335118	 2.0659736037	 0.3495062523	 0.132083
H	-0.640651463	 1.9573108483	-0.6869923657	 0.145544
H	-0.8358563979	 1.9893957079	 1.0694612644	 0.139399
H	-1.1289032153	-0.3876707419	 0.1447381291	 0.13537
H	 2.4249291186	 0.7185898434	 1.1415333702	 0.116641
H	 1.3477700587	-2.0058040615	 3.2087665637	 0.283617
H	 0.3431351452	-3.4344852684	 2.9941284097	 0.263052
59.1639	108.5515	169.3661	179.5389	238.5568	268.2016	336.0872	370.0469	396.7987	407.0319	481.6633	510.9793	617.1476	663.7506	709.7145	752.6004	830.0179	864.3207	997.5185	1017.3244	1046.737	1122.0455	1131.9285	1155.8934	1243.3196	1317.7587	1358.6871	1404.1596	1409.3828	1443.1298	1482.8921	1502.2402	1608.1616	1791.778	1809.2229	2951.3703	3047.2271	3109.2345	3115.2192	3144.1235	3540.6216	3703.9359
CC1OC1(C=O)C(N)=O	C[C@H]1O[C@]1(C=O)C(=O)N	
InChI=1S/C5H7NO3/c1-3-5(2-7,9-3)4(6)8/h2-3H,1H3,(H2,6,8)	InChI=1S/C5H7NO3/c1-3-5(2-7,9-3)4(6)8/h2-3H,1H3,(H2,6,8)/t3-,5+/m1/s1
