18
gdb 52583	2.08992	1.07027	0.7348	5.128	81.22	-0.2675	0.0227	0.2902	1538.0394	0.144007	-401.936754	-401.925743	-401.924799	-401.974853	37.265	
C	-0.0515674809	 1.4930370156	 0.0816160658	-0.501357
C	 0.0058970213	 0.0394718826	 0.0382785112	 0.111894
C	 0.0455243858	-1.1623961374	 0.0091825843	 0.052056
C	 0.0859779771	-2.6240611765	-0.0283402511	-0.318057
C	-1.2754011844	-3.1782229622	 0.0806913862	 0.302055
N	-2.3502670444	-3.5909687534	 0.1680622833	-0.329304
C	 0.7910009988	-3.1831864993	-1.2971275183	 0.126781
C	 2.2107853117	-2.6445291455	-1.4481482245	-0.410648
O	 0.7781238355	-4.5897616029	-1.118850461	-0.423128
H	 0.7190587869	 1.9011187068	 0.7441933464	 0.154119
H	 0.0982344851	 1.9259550691	-0.913135325	 0.153666
H	-1.0246507441	 1.8342135797	 0.4504437686	 0.160808
H	 0.6575823459	-3.0035319666	 0.830545172	 0.155856
H	 0.1859894925	-2.891772644	-2.1679467601	 0.095295
H	 2.6791410507	-3.0764699304	-2.3387560892	 0.112858
H	 2.2136736092	-1.5572245764	-1.554617535	 0.136629
H	 2.8163777999	-2.9190150927	-0.5785699863	 0.128273
H	 1.0703102033	-5.0040528363	-1.9362413973	 0.292205
15.5099	62.0113	81.6903	119.9582	146.3344	197.1365	230.0814	268.1322	282.3269	352.5686	361.8857	395.5299	459.9064	477.9586	543.3805	560.6034	816.158	873.4988	915.4321	991.8095	1052.3339	1053.5873	1067.9008	1107.3055	1133.1725	1178.1717	1217.9695	1298.5778	1312.7819	1373.7667	1405.5996	1408.8068	1414.4773	1476.3461	1476.4571	1490.2101	1495.411	2366.5405	2380.2236	2997.7253	3019.0791	3032.0379	3038.5017	3095.0574	3096.6443	3106.7773	3131.5442	3832.9736
CC#CC(C#N)C(C)O	CC#C[C@@H](C#N)[C@@H](C)O	
InChI=1S/C7H9NO/c1-3-4-7(5-8)6(2)9/h6-7,9H,1-2H3	InChI=1S/C7H9NO/c1-3-4-7(5-8)6(2)9/h6-7,9H,1-2H3/t6-,7+/m1/s1
