17
gdb 88907	6.53561	0.54311	0.52457	4.5537	81.59	-0.265	-0.0601	0.2049	2040.4622	0.13255	-421.784256	-421.774314	-421.773369	-421.821657	33.371	
C	 0.2365450302	 1.4687560087	-0.2903931679	-0.420879
C	-0.0076244657	 0.0333498693	 0.0991532663	 0.075093
O	 1.1345907453	-0.8226672115	 0.24230256	-0.250146
C	 0.3376426213	-0.5706395653	 1.3966309388	 0.069899
C	 0.9908443178	 0.1896441473	 2.5408065367	-0.396147
C	 1.8085670016	-0.665689983	 3.3900950919	 0.100233
C	 2.4807563574	-1.3762598722	 4.0983770701	 0.037927
C	 3.2809369474	-2.251671684	 4.9149398505	 0.021083
O	 3.857824528	-1.913371798	 5.923123357	-0.229226
H	 1.0647318899	 1.9141213641	 0.2643027048	 0.12857
H	 0.478530542	 1.5288406302	-1.356374677	 0.137455
H	-0.6639263929	 2.0682840489	-0.1187098147	 0.127568
H	-0.8327050735	-0.4385836016	-0.438832298	 0.095142
H	-0.2512222418	-1.4281691622	 1.7270219729	 0.102009
H	 1.6126183952	 1.0011568649	 2.1494553347	 0.152372
H	 0.2096038266	 0.6591952096	 3.1544909347	 0.148632
H	 3.3333716912	-3.2947747149	 4.5417760593	 0.100416
22.614	38.3083	66.5546	155.8943	171.005	184.6528	215.9799	322.9144	396.1008	418.4723	481.9091	503.5889	613.2248	767.6164	826.8406	834.0789	894.7885	966.5395	1001.6781	1022.2441	1086.3845	1096.0116	1155.2939	1174.2534	1179.8365	1233.014	1299.0422	1320.9198	1397.7742	1417.207	1422.9647	1438.4652	1468.3435	1490.7287	1512.0388	1767.5431	2333.402	2919.0293	3022.8513	3041.9638	3076.9729	3084.084	3100.2583	3103.4005	3135.8353
CC1OC1CC#CC=O	C[C@H]1O[C@H]1CC#CC=O	
InChI=1S/C7H8O2/c1-6-7(9-6)4-2-3-5-8/h5-7H,4H2,1H3	InChI=1S/C7H8O2/c1-6-7(9-6)4-2-3-5-8/h5-7H,4H2,1H3/t6-,7+/m1/s1
