15
gdb 15540	3.3121	2.01334	1.40637	1.3694	66.87	-0.2543	0.0135	0.2678	872.563	0.118412	-362.640482	-362.632871	-362.631927	-362.673167	27.789	
C	 0.0688328757	 1.532734783	-0.1816935521	-0.387818
C	 0.0145056204	 0.0245049999	 0.0421841829	 0.010395
N	 0.4992689072	-0.7043762829	-1.1443193235	-0.264092
C	 1.4324112391	-1.4607829252	-0.7508576063	 0.120743
O	 1.7851177687	-1.4917580056	 0.5570061955	-0.222531
C	 0.9071404895	-0.5340721549	 1.2209133012	-0.094208
C	 1.7039759792	 0.4379200718	 1.9523695167	 0.35324
C	 2.3425592932	 1.2416767679	 2.5765757592	-0.468299
H	 1.0943406433	 1.8643105288	-0.3634259936	 0.130508
H	-0.5379519384	 1.7888751012	-1.053721394	 0.129262
H	-0.317554074	 2.0725612275	 0.687201218	 0.120332
H	-1.0258290281	-0.2690449083	 0.2206719466	 0.096538
H	 2.0140387651	-2.1261803884	-1.3796031112	 0.144888
H	 0.2983089508	-1.1071863468	 1.9273097172	 0.123473
H	 2.9115761283	 1.951462362	 3.1251409635	 0.207568
28.4439	154.0594	207.9524	235.133	324.1293	355.541	494.4714	518.3851	588.4531	626.8047	676.1905	729.4639	802.9168	848.2869	896.6578	946.3106	963.3324	1023.1658	1079.0424	1107.8099	1127.2798	1144.782	1279.6732	1303.8122	1332.169	1352.7348	1375.4374	1409.0969	1484.9662	1491.2012	1714.0267	2239.2121	3035.8858	3049.25	3058.2713	3125.7113	3130.9183	3214.5159	3501.2565
CC1N=COC1C#C	C[C@H]1N=CO[C@H]1C#C	
InChI=1S/C6H7NO/c1-3-6-5(2)7-4-8-6/h1,4-6H,2H3	InChI=1S/C6H7NO/c1-3-6-5(2)7-4-8-6/h1,4-6H,2H3/t5-,6+/m1/s1
