16
gdb 28813	3.25102	1.38194	1.03535	1.1048	87.51	-0.235	-0.0714	0.1636	1139.736	0.125078	-396.936059	-396.928158	-396.927214	-396.968692	29.534	
C	 0.0584840976	 1.4648213665	-0.160068982	-0.449475
C	-0.0506217243	-0.0189519639	 0.0727002736	 0.296658
C	-1.2547977688	-0.6491385836	-0.0697007067	-0.048528
N	-1.5924886505	-1.9555707092	 0.171504373	-0.212276
C	-0.7766343805	-2.9462018568	 0.1808495033	-0.058632
C	 0.6758720045	-2.9524348588	-0.1009690234	 0.212279
N	 1.3215977254	-3.9132614857	-0.646847489	-0.47875
C	 1.4352936559	-1.8229741895	 0.4837782204	-0.000547
N	 1.1191421815	-0.5830276004	 0.5395535985	-0.266471
H	 0.8633512442	 1.6734165388	-0.8733317037	 0.140193
H	-0.8717164094	 1.8846221196	-0.5482731505	 0.125625
H	 0.3206298693	 1.9799150519	 0.7702102526	 0.144404
H	-2.1115496523	-0.0269038569	-0.3161052516	 0.110223
H	-1.1959384933	-3.9265081453	 0.4265107138	 0.12363
H	 0.6799207418	-4.6554054406	-0.9430889582	 0.224077
H	 2.3896297989	-2.1147845962	 0.92707449	 0.137589
68.7016	145.8813	183.7242	301.4657	310.993	339.899	404.8869	429.9748	476.9509	589.8488	665.2883	676.998	720.9323	868.3756	879.0777	888.969	931.8018	966.2368	975.0984	1011.6964	1062.6029	1103.5765	1148.6567	1234.0697	1364.7789	1375.131	1403.8402	1412.3712	1422.3506	1471.3365	1485.2039	1558.9358	1642.1406	1662.8656	1685.2256	3037.7602	3083.0764	3093.705	3113.309	3132.2647	3156.8685	3416.0987
CC1=CN=CC(=N)C=N1	CC1=CN=C[C]([NH])C=N1	
InChI=1S/C6H7N3/c1-5-2-8-3-6(7)4-9-5/h2-4,7H,1H3	InChI=1S/C6H7N3/c1-5-2-8-3-6(7)4-9-5/h2-4,7H,1H3
