18
gdb 14867	2.72276	1.73979	1.16928	1.5423	68.43	-0.2458	-0.0214	0.2244	1028.2152	0.152562	-384.929581	-384.920974	-384.920029	-384.96329	30.543	
O	-0.0018365585	 1.2802841247	-0.2333520973	-0.424959
C	 0.0601129865	-0.1392046195	-0.1392590567	-0.096696
C	-1.3548605905	-0.6100273439	 0.1690314317	 0.000766
C	-2.3532396617	-0.3562859861	-0.9991479814	-0.209628
C	-2.2772889386	-1.8571453236	-1.3915735041	-0.244972
C	-1.6338728285	-2.1350624707	 0.0080578922	-0.088322
C	-0.5551125726	-3.1760302704	 0.0676349738	 0.139738
O	 0.5779501396	-3.0130260652	 0.4488310619	-0.250663
H	 0.890800315	 1.6070777613	-0.3767980449	 0.286446
H	 0.4159019856	-0.5812755111	-1.0839896254	 0.080394
H	 0.7484934715	-0.4655934156	 0.6487523429	 0.112241
H	-1.6525453309	-0.188921091	 1.132595148	 0.080549
H	-3.3472002883	-0.0760338827	-0.6419711265	 0.10275
H	-2.0319802614	 0.3715687547	-1.7456279381	 0.117035
H	-3.2126012819	-2.3723482261	-1.6185495221	 0.105524
H	-1.5739594044	-2.0405252049	-2.2088760473	 0.112151
H	-2.4199075606	-2.4591123858	 0.7031741103	 0.102476
H	-0.8904725902	-4.1770323543	-0.2973688671	 0.075173
62.2156	101.2389	130.9329	162.6131	235.7726	253.0846	317.7103	357.5775	449.6463	621.7966	699.2731	771.6842	832.2964	887.5574	902.4065	944.0663	949.6303	987.8343	1026.7228	1064.7779	1085.1686	1130.9134	1163.3822	1201.187	1224.7426	1235.4155	1256.1188	1262.8149	1279.8398	1288.5515	1340.9855	1361.6484	1425.365	1456.8032	1484.956	1497.3339	1518.0152	1819.5735	2840.7098	2972.1831	3023.9127	3051.3473	3060.338	3068.4011	3079.9403	3112.569	3131.9153	3834.1931
OCC1CCC1C=O	OC[C@H]1CC[C@H]1C=O	
InChI=1S/C6H10O2/c7-3-5-1-2-6(5)4-8/h3,5-6,8H,1-2,4H2	InChI=1S/C6H10O2/c7-3-5-1-2-6(5)4-8/h3,5-6,8H,1-2,4H2/t5-,6+/m0/s1
