17
gdb 108459	2.26731	1.68567	1.27431	2.7622	68.12	-0.238	-0.0406	0.1974	1036.6454	0.134834	-458.934783	-458.926413	-458.925469	-458.968223	30.867	
O	 0.5601773801	 0.5145201114	-0.6022279099	-0.419763
C	-0.2976564905	 0.3310420291	 0.5107057353	-0.180098
C	-1.5084887556	-0.4921319882	 0.1409772787	 0.31744
O	-2.4957117295	-0.5803757887	 1.19602689	-0.324112
C	-2.5359737713	-2.0292418552	 1.1120866583	-0.084134
C	-1.6428969916	-2.0351981718	-0.1334838112	-0.147267
C	-2.4103363461	-1.752816714	-1.4558097977	-0.363
C	-2.188625673	-0.2432124644	-1.2283344594	 0.374234
O	-2.3436232991	 0.7363640824	-1.8999226611	-0.307016
H	 0.0996698996	 1.0876270159	-1.2260323778	 0.300482
H	 0.2862623157	-0.1755679406	 1.2859646858	 0.120384
H	-0.6487561751	 1.2840809012	 0.9353139655	 0.115153
H	-2.0889269	-2.4819734766	 2.0051033725	 0.111717
H	-3.5568064786	-2.4084178423	 0.9873805752	 0.109919
H	-0.7943968373	-2.7131511456	-0.1816097275	 0.099814
H	-1.9029435649	-2.0983765169	-2.3615627682	 0.142302
H	-3.4524470826	-2.0832983057	-1.4943535186	 0.133944
70.1704	92.7113	138.4882	222.8234	247.0445	351.543	421.8542	432.0081	458.2826	521.4535	614.3704	679.2839	793.873	820.3604	833.6852	915.1939	995.4117	1000.9135	1017.1182	1047.7624	1054.865	1090.8159	1095.5296	1113.7125	1151.2486	1179.7425	1211.1124	1249.4753	1298.2401	1315.7516	1347.4615	1378.5003	1416.4261	1433.2179	1489.9894	1522.4138	1876.8024	2995.5721	3022.4081	3058.144	3069.6991	3078.9059	3110.8332	3148.5828	3801.6794
OCC12OCC1CC2=O	OC[C@]12OC[C@H]1CC2=O	
InChI=1S/C6H8O3/c7-3-6-4(2-9-6)1-5(6)8/h4,7H,1-3H2	InChI=1S/C6H8O3/c7-3-6-4(2-9-6)1-5(6)8/h4,7H,1-3H2/t4-,6+/m1/s1
