22
gdb 89063	4.87979	0.6466	0.62088	1.9264	84.35	-0.233	0.0924	0.3254	1872.1117	0.192892	-404.297892	-404.288104	-404.28716	-404.333759	35.539	
C	 0.1790447396	 1.6010280601	-0.2180012423	-0.418698
C	 0.1576488409	 0.1110821078	 0.0088060437	 0.077417
O	 1.4176370784	-0.5613928674	 0.1161536068	-0.265754
C	 0.5490708028	-0.5633783486	 1.2591117091	 0.063679
C	 1.0440228721	 0.1274642704	 2.5059163864	-0.231526
C	 2.1774095026	-0.6576506762	 3.1738108954	-0.130873
N	 2.64428361	 0.0295898503	 4.3720671768	-0.060249
C	 1.9749630661	-0.3219086166	 5.6208311529	-0.22106
C	 3.3630155708	-0.7845496652	 5.3438901178	-0.220656
H	 0.9082285544	 2.1010365058	 0.4217642827	 0.131664
H	 0.4397126031	 1.8175983157	-1.2593511536	 0.12939
H	-0.8103811458	 2.0301204289	-0.0253164703	 0.120865
H	-0.561257111	-0.4220619006	-0.6183834374	 0.084136
H	 0.0921911543	-1.5396123985	 1.4449870164	 0.082523
H	 1.4026535833	 1.1349041444	 2.2819860372	 0.115376
H	 0.2067977924	 0.2298276315	 3.2091166538	 0.099782
H	 1.8403594417	-1.6886288619	 3.3942579254	 0.074106
H	 3.0180806594	-0.7369806165	 2.4757642852	 0.12233
H	 1.79052793	 0.4970454258	 6.3101473559	 0.115991
H	 1.1869019256	-1.0734694917	 5.5837637681	 0.105786
H	 3.4974982836	-1.8426691479	 5.1235018665	 0.109044
H	 4.2123739158	-0.3086744697	 5.8257047435	 0.116726
47.4476	65.0624	102.5932	125.1117	170.541	237.9784	259.07	363.7902	399.9304	428.5779	485.8301	541.0181	754.5588	765.4591	799.3866	835.5547	852.5595	903.8251	929.9659	987.9484	1017.1209	1024.1305	1048.8395	1063.0972	1107.2406	1111.8206	1116.8194	1129.1288	1166.8053	1172.7807	1179.2753	1196.5676	1251.4421	1293.3551	1312.6836	1318.1402	1327.0675	1392.9044	1408.5555	1419.4538	1469.7137	1476.6658	1489.5091	1491.8	1502.531	1512.9714	1523.9933	2921.0874	3028.489	3039.4034	3060.8629	3066.3512	3078.1019	3089.5206	3095.4192	3098.9434	3108.2946	3139.2767	3174.5785	3188.8589
CC1OC1CCN1CC1	C[C@H]1O[C@H]1CCN1CC1	
InChI=1S/C7H13NO/c1-6-7(9-6)2-3-8-4-5-8/h6-7H,2-5H2,1H3	InChI=1S/C7H13NO/c1-6-7(9-6)2-3-8-4-5-8/h6-7H,2-5H2,1H3/t6-,7+/m1/s1
