16
gdb 129464	4.55179	0.91376	0.88361	3.7982	70.77	-0.2308	0.0084	0.2392	1304.4375	0.126268	-434.122312	-434.113792	-434.112848	-434.157643	30.452	
N	 0.7433588697	-0.0565126904	 0.5167147217	-0.521325
C	-0.2538048021	 0.2848796356	-0.3422518063	 0.407696
O	-0.3793127207	 1.4004958283	-0.8068269379	-0.365057
C	-1.2499700377	-0.834969264	-0.7025095973	-0.444625
C	-0.978840992	-2.211083375	-0.1762385268	 0.181059
C	-0.3604504076	-3.264616525	-0.8264416337	-0.124756
N	-0.3354914503	-4.3002603837	 0.0459753214	-0.171937
N	-0.8952225028	-4.007798224	 1.2335254069	-0.218553
C	-1.2861401226	-2.7434453662	 1.1021278657	-0.083519
H	 1.3992799645	 0.6549081262	 0.7926312338	 0.258992
H	 0.8227979788	-0.9840561301	 0.8949322043	 0.265416
H	-2.2272394117	-0.4777569672	-0.3596320525	 0.142906
H	-1.3045917606	-0.8390557383	-1.7950883906	 0.137685
H	 0.0448632806	-3.3482386799	-1.8229112219	 0.140488
H	 0.03330753	-5.2241426131	-0.1040992764	 0.278578
H	-1.7849978156	-2.2495626831	 1.9242534096	 0.116951
19.4296	41.7634	113.0283	222.3222	294.457	325.1375	384.7195	509.4975	532.2183	545.6936	657.8323	677.0635	699.5287	766.9071	805.5448	850.8318	894.6521	930.9766	953.9741	1015.4411	1070.4661	1091.6151	1164.7217	1191.7563	1248.1716	1295.1233	1335.5474	1351.8789	1388.9158	1413.2989	1458.9623	1495.5275	1601.5314	1610.1455	1800.3528	3054.6293	3096.4282	3238.3761	3258.8535	3603.8199	3673.1115	3740.7923
NC(=O)CC1=CNN=C1	NC(=O)Cc1c[nH]nc1	
InChI=1S/C5H7N3O/c6-5(9)1-4-2-7-8-3-4/h2-3H,1H2,(H2,6,9)(H,7,8)	InChI=1S/C5H7N3O/c6-5(9)1-4-2-7-8-3-4/h2-3H,1H2,(H2,6,9)(H,7,8)
