19
gdb 10961	5.38294	1.29004	1.17481	2.2809	72.85	-0.222	0.078	0.2999	1087.9732	0.164672	-365.00844	-365.000129	-364.999185	-365.041011	30.972	
C	 0.0006594288	 1.3162715099	-0.1592927289	-0.234146
O	-0.0371566746	 0.015392958	 0.3792467304	-0.237593
C	-1.2599656507	-0.6295630987	 0.1770388179	 0.186968
C	-1.6311401471	-1.1897661525	-1.2523015691	-0.317039
C	-1.7931670723	-2.5731820898	-0.6000094644	 0.344881
C	-2.7949415114	-3.6265565912	-0.9555195073	-0.504332
N	-0.4413864115	-2.8981991334	-0.0903037171	-0.355381
C	-1.3472631655	-2.0451392255	 0.7259891088	-0.160249
H	 0.9810285696	 1.7375750208	 0.0756265561	 0.12693
H	-0.1298853903	 1.3149340915	-1.2521168757	 0.107283
H	-0.7777994797	 1.9626420097	 0.2781648636	 0.098701
H	-2.0894255847	-0.0145401423	 0.5617081602	 0.062293
H	-2.5550853158	-0.7657363333	-1.6521209722	 0.09584
H	-0.834092682	-1.1369321572	-1.9972236014	 0.108791
H	-2.5464647143	-4.1022681816	-1.9117943952	 0.129164
H	-2.8303940859	-4.4109102517	-0.1911582878	 0.116625
H	-3.800259161	-3.2014426625	-1.0481732058	 0.123363
H	-0.492124885	-3.8321579281	 0.3188523845	 0.221252
H	-1.6227445267	-2.3415307222	 1.7314173332	 0.086651
92.7254	126.6481	176.9423	220.0077	228.6967	321.7436	330.6228	420.5698	455.5709	534.2991	657.899	686.0944	815.7043	852.8097	918.7916	948.2923	964.0773	988.569	1017.8884	1042.898	1076.7962	1096.322	1143.462	1164.4057	1170.9021	1184.9149	1211.0284	1241.2441	1253.5037	1320.8136	1338.411	1398.3585	1407.0431	1441.4372	1472.9865	1482.1572	1484.8252	1489.5476	1499.7647	1508.883	2964.896	2973.6558	3016.2781	3021.5689	3064.9669	3083.0838	3093.748	3114.1869	3126.6759	3180.9681	3454.9685
COC1CC2(C)NC12	CO[C@H]1C[C@@]2(C)N[C@@H]12	
InChI=1S/C6H11NO/c1-6-3-4(8-2)5(6)7-6/h4-5,7H,3H2,1-2H3	InChI=1S/C6H11NO/c1-6-3-4(8-2)5(6)7-6/h4-5,7H,3H2,1-2H3/t4-,5-,6+/m0/s1
