21
gdb 40236	2.66462	1.6127	1.21173	1.2304	82.	-0.2433	0.0763	0.3196	1096.6141	0.184919	-387.065117	-387.057414	-387.05647	-387.097087	31.485	
C	-0.00014869	 1.5151951208	 0.0247961685	-0.314185
C	 1.3011446606	 0.7491120179	-0.025421322	-0.310954
C	-0.013395423	 0.0079543873	-0.0070957058	 0.378196
C	-0.3886013316	-0.7316025915	 1.2654799882	-0.175773
O	-0.0051676753	-2.0914020773	 1.1962976645	-0.237216
C	-0.7825298646	-2.8079488184	 0.249770623	-0.096496
C	-0.8082749729	-2.173665567	-1.1416117932	-0.05828
C	-1.8627499164	-1.1443563388	-1.4789271088	-0.307887
C	-0.4354015105	-0.7100813765	-1.2581395749	-0.084775
H	-0.2662955681	 2.0121793224	 0.9530539951	 0.107141
H	-0.3193594927	 2.0449571164	-0.8667167891	 0.110218
H	 1.8656322343	 0.7644156053	-0.9522368789	 0.109599
H	 1.91816786	 0.7222223209	 0.8668444559	 0.112389
H	 0.131148333	-0.2991401022	 2.1259114518	 0.102259
H	-1.47364371	-0.6528264126	 1.4590268462	 0.082519
H	-0.3355874327	-3.8044092526	 0.1986778661	 0.108933
H	-1.8102034283	-2.9237757844	 0.6345440122	 0.087334
H	-0.487919672	-2.8261545569	-1.9471134807	 0.087924
H	-2.254165029	-1.1156814372	-2.4900321198	 0.108448
H	-2.5976532075	-0.9121431366	-0.7135710648	 0.110584
H	 0.1159342966	-0.4213168192	-2.1486381735	 0.080022
92.8086	185.5672	251.1988	276.454	337.9127	396.5492	419.2063	477.1427	508.9468	650.5645	724.4733	780.7333	810.0499	831.716	866.2644	922.5983	925.172	938.886	950.8719	981.3454	1003.4364	1028.8022	1040.8424	1056.772	1063.1099	1079.8244	1108.5505	1121.3567	1127.5567	1172.9633	1187.1515	1221.1031	1252.092	1291.1873	1331.7276	1337.8535	1371.2105	1381.5649	1414.6938	1437.7816	1470.9257	1489.0735	1492.4617	1501.4226	1512.3445	2940.4894	2955.5103	3075.1331	3085.1065	3121.4487	3122.4447	3127.4734	3138.1681	3157.8077	3199.7111	3207.85	3214.823
C1CC11COCC2CC12	C1CC21COC[C@H]1C[C@@H]21	
InChI=1S/C8H12O/c1-2-8(1)5-9-4-6-3-7(6)8/h6-7H,1-5H2	InChI=1S/C8H12O/c1-2-8(1)5-9-4-6-3-7(6)8/h6-7H,1-5H2/t6-,7-/m1/s1
