18
gdb 93986	2.74773	1.27755	0.96978	10.3956	79.19	-0.1998	-0.0072	0.1926	1228.3538	0.148251	-439.076838	-439.068007	-439.067062	-439.110765	31.955	
C	 0.3431264909	 1.5545519341	-0.1183589902	-0.399949
C	-0.0766748756	 0.084702431	-0.0000267538	-0.083752
C	 0.426431652	-0.814436606	-1.124735049	-0.225958
N	 1.7486022803	-1.3535839276	-0.5984855873	-0.293121
H	 1.9630156165	-2.26621912	-1.0042997154	 0.298836
H	 2.5069790113	-0.7280468273	-0.8910560909	 0.296917
C	 1.5979316581	-1.4272384759	 0.8812368451	-0.060268
C	 2.4901191767	-2.2944646103	 1.5667908509	 0.059384
O	 2.5704923264	-2.4982913545	 2.7640638047	-0.306046
C	 0.5426847443	-0.5578603067	 1.2852761882	 0.327113
O	 0.1393573774	-0.2774633936	 2.3993865328	-0.371782
H	 1.4304410521	 1.6604911213	-0.222361141	 0.103788
H	-0.1295150456	 2.0469292498	-0.9746429479	 0.11428
H	 0.052466391	 2.0818444131	 0.7934152298	 0.160588
H	-1.1646635521	 0.0213938642	 0.0759959098	 0.109795
H	-0.2173299597	-1.6836131814	-1.2676425942	 0.15452
H	 0.6045544163	-0.3253937943	-2.0860163201	 0.130321
H	 3.1760001298	-2.8482939259	 0.8566962584	-0.014666
65.2478	105.9207	173.0623	212.4856	228.1653	251.305	259.2082	349.2931	448.4806	471.6399	631.3582	674.9781	690.46	752.9383	821.9623	909.1978	935.0308	973.9611	980.1787	1005.3621	1044.3465	1097.5132	1110.8197	1156.256	1192.4888	1219.4005	1268.5193	1339.3714	1358.2365	1378.7684	1405.0066	1431.7836	1474.0829	1485.8648	1494.275	1502.5048	1659.4379	1735.7323	1797.4143	2661.5092	3022.7156	3070.5492	3078.3074	3094.7007	3127.4776	3137.0511	3346.802	3443.3164
CC1C[NH2+][C-](C=O)C1=O	C[C@H]1C[NH2][C](C=O)C1=O	
InChI=1S/C6H9NO2/c1-4-2-7-5(3-8)6(4)9/h3-4H,2,7H2,1H3	InChI=1S/C6H9NO2/c1-4-2-7-5(3-8)6(4)9/h3-4H,2,7H2,1H3/t4-/m0/s1
