16
gdb 80104	2.77822	1.5339	1.27236	1.2824	76.16	-0.2428	0.0021	0.245	1029.5223	0.12353	-400.709915	-400.701858	-400.700914	-400.742386	30.56	
C	-0.0769214433	 1.5448800741	 0.0473022293	-0.416669
C	 0.0895068794	 0.0442269936	 0.020327773	-0.088284
C	 1.3984556945	-0.6723932376	-0.2477897156	-0.090444
N	 2.621297756	 0.0584696289	-0.0530054584	-0.246584
C	 2.6363660842	 0.4007176008	 1.1716295609	 0.081119
O	 1.6227519421	 0.002965251	 1.9824903989	-0.237122
C	 0.72950077	-0.741109021	 1.1467879464	 0.189555
C	 0.122223334	-1.8671060051	 1.7722937311	 0.227629
C	-0.4086807427	-2.8228925608	 2.2732329742	-0.384066
H	 0.8248205151	 2.0561488606	 0.3888886678	 0.136556
H	-0.3058941081	 1.9143844743	-0.9571284073	 0.128468
H	-0.8992604106	 1.8297484679	 0.710772399	 0.129694
H	-0.7567426768	-0.4956493369	-0.3957583553	 0.109246
H	 1.4296717119	-1.5049465983	-0.9398115044	 0.116395
H	 3.3997984519	 0.9928458786	 1.6614059389	 0.148185
H	-0.8709379576	-3.66799857	 2.7203718715	 0.196323
123.505	130.1997	157.3739	221.6702	236.64	410.1993	465.7005	481.363	535.5305	568.3508	592.871	692.2233	695.2878	705.3145	774.7662	885.3326	919.3026	944.2504	958.8342	983.5157	1037.2368	1104.4168	1111.2922	1134.8356	1139.3313	1207.3223	1250.1478	1318.2257	1340.1844	1415.9909	1428.8051	1489.6317	1499.0889	1666.06	2238.3519	3045.821	3106.3648	3131.5553	3154.2575	3190.0272	3230.4892	3501.5157
CC1C2N=COC12C#C	C[C@H]1[C@H]2N=CO[C@@]12C#C	
InChI=1S/C7H7NO/c1-3-7-5(2)6(7)8-4-9-7/h1,4-6H,2H3	InChI=1S/C7H7NO/c1-3-7-5(2)6(7)8-4-9-7/h1,4-6H,2H3/t5-,6+,7-/m0/s1
