16
gdb 16996	3.78851	2.32558	2.11475	1.9525	67.98	-0.222	0.0065	0.2285	721.6672	0.13222	-346.549168	-346.543192	-346.542248	-346.578797	24.691	
C	 0.0225476428	 1.4642769896	 0.0448395291	-0.36027
C	 1.3608492172	 0.7601275275	-0.0629617079	 0.142727
C	 1.6660953012	 0.038717816	 1.2559172225	-0.133857
O	 0.3560921034	-0.6007962018	 1.291213593	-0.322285
C	 0.0680554128	-0.0318321182	 0.0013661333	 0.365057
C	-0.0380016856	-0.7853737859	-1.2704265021	-0.171095
C	 0.9941027847	-0.4734840647	-2.0683932802	-0.056533
C	 1.9950938316	 0.4843403449	-1.4202686929	-0.349303
H	-0.2439482642	 1.9483523793	 0.9798795627	 0.120053
H	-0.32641326	 1.9626471554	-0.8527203708	 0.122673
H	 2.4616667553	-0.7099601556	 1.1588429007	 0.10762
H	 1.8436500929	 0.6524890511	 2.1472993911	 0.105058
H	-0.8534681979	-1.4512563107	-1.5271873742	 0.104462
H	 1.1051050447	-0.8164489536	-3.0934133552	 0.097946
H	 2.1380708824	 1.3900481671	-2.0230145736	 0.115095
H	 2.9868697987	 0.0227670196	-1.3251029854	 0.112653
205.9893	276.6706	340.7182	423.6445	472.4554	561.6535	645.2199	695.0881	762.3474	795.988	844.1468	869.6624	908.7936	925.3909	931.8519	952.1053	968.5964	982.0282	1009.9009	1064.7392	1107.0902	1126.2586	1152.483	1182.4485	1223.5806	1264.4511	1310.0207	1326.9576	1370.1427	1378.061	1464.3663	1477.8055	1513.3643	1636.156	3014.1702	3019.1294	3047.6991	3065.2643	3122.8503	3170.4283	3206.9625	3221.1756
C1C23COC12C=CC3	C1[C@@]23CO[C@@]12C=CC3	
InChI=1S/C7H8O/c1-2-6-4-7(6,3-1)8-5-6/h1,3H,2,4-5H2	InChI=1S/C7H8O/c1-2-6-4-7(6,3-1)8-5-6/h1,3H,2,4-5H2/t6-,7-/m0/s1
