18
gdb 79191	2.90713	1.71112	1.37021	2.4088	69.18	-0.2374	0.043	0.2805	961.2236	0.149874	-439.034907	-439.027722	-439.026778	-439.066237	29.426	
O	 0.0921693053	 1.4154870587	 0.1653313143	-0.441879
C	 0.052200276	 0.0113801808	 0.0731115316	 0.091538
C	-1.3777924872	-0.5146607214	-0.0735943662	-0.054618
C	-1.5790272704	-1.2060036656	-1.3663526119	-0.088765
C	-0.1273127352	-1.6842122213	-1.658386708	-0.107023
C	-0.3417661565	-2.660022304	-0.4782649847	-0.167133
N	-1.6254727562	-1.9837592958	-0.0757361539	-0.150213
C	 0.7571909328	-0.5178571447	-1.2253991172	 0.091863
O	 0.8130859603	 0.5144651466	-2.2089635122	-0.445054
H	 0.3869401213	 1.7211695422	-0.7057345077	 0.284356
H	 0.5291208291	-0.3997901646	 0.9712465518	 0.087397
H	-2.1763051389	 0.0459122032	 0.398660676	 0.107233
H	-2.4288334221	-1.1342936807	-2.0350181353	 0.097826
H	 0.1264339428	-2.1029306904	-2.6318271442	 0.082454
H	-0.5823315559	-3.673704487	-0.8046798496	 0.117673
H	 0.4292779637	-2.7104723193	 0.2987747684	 0.106512
H	 1.7953076591	-0.8100888106	-1.0435596777	 0.094737
H	-0.0571788179	 0.5769864239	-2.6214808136	 0.293095
115.1772	243.1579	274.8341	324.4669	350.9336	415.7584	438.3793	554.739	586.5476	699.7902	770.4365	773.7274	802.0889	817.2568	845.9974	873.2975	915.1458	946.9674	1005.2981	1023.2171	1043.8407	1060.1275	1069.6489	1108.0214	1132.4828	1168.8931	1193.6289	1201.5421	1236.6183	1259.4825	1275.0669	1284.2358	1301.5173	1327.4643	1365.0962	1375.7142	1418.9314	1443.8742	1509.2098	3026.0944	3043.2217	3079.3243	3107.453	3120.3695	3176.6455	3189.8367	3705.7266	3785.7156
OC1C2C3C(CN23)C1O	O[C@H]1[C@H]2[C@H]3[C@H](CN23)[C@H]1O	
InChI=1S/C6H9NO2/c8-5-2-1-7-3(2)4(7)6(5)9/h2-6,8-9H,1H2	InChI=1S/C6H9NO2/c8-5-2-1-7-3(2)4(7)6(5)9/h2-6,8-9H,1H2/t2-,3+,4+,5+,6-,7?/m0/s1
