20
gdb 117963	3.46811	0.83197	0.72296	3.5034	72.7	-0.2223	0.0158	0.238	1589.1191	0.16945	-477.440533	-477.429767	-477.428823	-477.477276	37.387	
C	-0.0208703302	 1.2796275967	 0.2721526641	-0.241628
O	-0.1104996578	-0.1502049362	 0.223528565	-0.232607
C	-1.3359980398	-0.6423764762	-0.041279353	 0.455886
O	-2.3098695432	 0.0467460463	-0.2170925967	-0.367109
C	-1.3143010593	-2.1616809348	-0.1359406296	-0.068825
N	-2.6525375647	-2.6617427668	 0.1529049505	-0.538039
C	-0.722440436	-2.5479853188	-1.5192865397	-0.196273
C	-0.4311200173	-4.0366079953	-1.6747679016	-0.092155
O	-1.6614724941	-4.7562217229	-1.7047061511	-0.407494
H	 1.0225474102	 1.5045524967	 0.4932121043	 0.132502
H	-0.3131290444	 1.7182324254	-0.6854177586	 0.139604
H	-0.6724153856	 1.6786519601	 1.0534211482	 0.144206
H	-0.6122637716	-2.5216565673	 0.6289369937	 0.093893
H	-3.3265577106	-2.0183205685	-0.2525311937	 0.234895
H	-2.7701969534	-3.5646573879	-0.2942590442	 0.240932
H	-1.4138676159	-2.2322949771	-2.3098695684	 0.114483
H	 0.2205122935	-2.0087724084	-1.6676398217	 0.108514
H	 0.1319412207	-4.2006404304	-2.6062573217	 0.093618
H	 0.2031907045	-4.3770348477	-0.8409501472	 0.093651
H	-1.4644619151	-5.6972823871	-1.6899271687	 0.291948
48.7239	58.4696	109.0514	122.9015	168.7992	217.2987	235.7503	258.3293	291.9886	320.3356	349.0196	372.1618	458.865	507.2154	686.4193	755.8761	847.2878	881.2218	910.6058	946.4755	978.323	1027.6069	1082.1729	1095.5009	1148.6553	1179.5198	1193.5824	1207.1956	1219.5812	1254.1835	1270.4198	1312.226	1338.8289	1375.826	1424.7765	1457.1976	1467.4742	1475.0563	1481.5543	1498.1534	1519.3726	1649.0993	1820.3304	2971.954	3001.8185	3009.1939	3036.0238	3052.164	3082.8656	3127.0475	3158.7253	3499.05	3584.853	3832.9853
COC(=O)C(N)CCO	COC(=O)[C@@H](N)CCO	
InChI=1S/C5H11NO3/c1-9-5(8)4(6)2-3-7/h4,7H,2-3,6H2,1H3	InChI=1S/C5H11NO3/c1-9-5(8)4(6)2-3-7/h4,7H,2-3,6H2,1H3/t4-/m0/s1
