18
gdb 56053	5.2188	0.67482	0.62293	2.8081	80.43	-0.2307	0.0047	0.2354	1772.1667	0.147735	-435.295244	-435.28589	-435.284945	-435.330346	34.113	
N	-0.4648270408	 1.4658785765	-0.2938901547	-0.569004
C	 0.1477192419	 0.3264806162	 0.1893564636	 0.476001
O	 1.22980413	 0.3306166152	 0.7389170889	-0.375533
N	-0.5747095688	-0.8363827625	-0.0546350026	-0.364253
C	-0.1306967071	-2.0885164119	 0.3329164533	 0.125416
N	-0.7985403854	-3.1237328942	 0.0356119092	-0.279178
C	-0.316551589	-4.4062501962	 0.458310574	 0.055803
C	 0.4236261705	-5.2888596161	-0.5094044674	-0.248569
C	 1.1347931899	-4.7446763728	 0.7129623869	-0.287159
H	-0.0427186963	 2.3184387648	 0.0394709996	 0.268321
H	-1.4692294587	 1.4902125025	-0.3762607723	 0.254016
H	-1.419844644	-0.8195717237	-0.6062955921	 0.254291
H	 0.8050981069	-2.0512623738	 0.8929628728	 0.140543
H	-1.043391817	-4.9187569809	 1.0840607265	 0.093858
H	 0.1737166174	-6.3433556784	-0.5497350614	 0.109945
H	 0.6863500262	-4.8497164679	-1.4658928601	 0.11566
H	 1.8883989001	-3.9835064021	 0.5466488038	 0.118322
H	 1.3674410542	-5.4231851248	 1.5264965319	 0.11152
52.3337	71.3449	105.9875	143.2745	238.6426	273.0592	358.019	383.4786	448.6413	462.9289	510.742	574.914	601.5789	662.7683	768.0317	771.7749	813.2872	830.5742	940.9884	972.7926	1026.1945	1035.6686	1052.3473	1073.1499	1098.661	1132.0299	1164.161	1194.8292	1223.4889	1268.9008	1293.9924	1366.4583	1383.8508	1462.3228	1497.7036	1520.6706	1626.5874	1749.7891	1818.2022	3125.0483	3130.1606	3132.6456	3140.2225	3213.3554	3227.8075	3584.1833	3617.6496	3702.8546
NC(=O)NC=NC1CC1	NC(=O)NC=NC1CC1	
InChI=1S/C5H9N3O/c6-5(9)8-3-7-4-1-2-4/h3-4H,1-2H2,(H3,6,7,8,9)	InChI=1S/C5H9N3O/c6-5(9)8-3-7-4-1-2-4/h3-4H,1-2H2,(H3,6,7,8,9)
