16
gdb 50633	3.02831	1.2356	0.92446	2.3245	67.73	-0.2673	-0.0482	0.2192	1210.2702	0.12387	-475.033993	-475.025768	-475.024823	-475.067906	29.481	
N	-0.254628784	 1.3331494773	 0.1878066068	-0.491151
C	-0.1337861004	 0.0932407165	-0.0109853836	 0.379768
C	-1.3256246422	-0.8217481239	-0.1605701751	-0.267935
C	-1.0205789635	-1.9857695517	-1.1024568881	-0.105416
O	 0.2067883876	-2.593690462	-0.6997911153	-0.242782
C	 1.2617349081	-1.7017751472	-0.8121916426	 0.112058
O	 1.0964728198	-0.5272172397	-0.0073873475	-0.273985
C	 2.5062843998	-2.4003793378	-0.2604774662	 0.162401
O	 3.5162659873	-2.5465064604	-0.8890452684	-0.2267
H	 0.6642173386	 1.7674175452	 0.298709315	 0.22737
H	-1.5580712488	-1.228714966	 0.8307703052	 0.142044
H	-2.1826207782	-0.2340500289	-0.4935168692	 0.140536
H	-1.7861420035	-2.7618604479	-1.0506207557	 0.128911
H	-0.9402247539	-1.6441154464	-2.1454012791	 0.113671
H	 1.4265880913	-1.393136288	-1.8561560408	 0.097169
H	 2.378148152	-2.7570246391	 0.7827193946	 0.104042
54.2048	84.3607	107.3196	242.2753	263.3366	387.3664	426.9623	440.8416	475.3914	510.9401	608.9149	737.4934	801.3273	892.5706	911.8658	930.409	987.8828	1011.3474	1059.0117	1070.7373	1082.2961	1122.7707	1166.2881	1231.8981	1271.6257	1313.0899	1338.3812	1352.1885	1388.2171	1405.2437	1417.8428	1459.8784	1508.199	1764.9245	1859.7153	2927.3188	2996.6347	3001.3805	3048.0078	3116.7044	3129.5539	3465.9101
N=C1CCOC(O1)C=O	[NH][C]1CCO[C@@H](O1)C=O	
InChI=1S/C5H7NO3/c6-4-1-2-8-5(3-7)9-4/h3,5-6H,1-2H2	InChI=1S/C5H7NO3/c6-4-1-2-8-5(3-7)9-4/h3,5-6H,1-2H2/t5-/m0/s1
