17
gdb 91780	2.63966	1.61883	1.16266	3.1486	68.34	-0.2461	-0.0364	0.2097	1062.7054	0.134538	-458.971649	-458.963174	-458.96223	-459.004817	31.653	
C	-0.2738195002	 1.4959879097	 0.0713853446	-0.499086
C	 0.1515088781	 0.0625992467	-0.0072565473	 0.276757
O	-0.6393706515	-0.9212182417	 0.7018556206	-0.272644
C	 0.7404189494	-0.7830708062	 1.0540667042	-0.02881
C	 1.5840147415	-1.9159026918	 0.4846527031	-0.274602
C	 1.6137091587	-1.645385358	-1.0352375434	 0.067708
O	 1.490104028	-2.7886383581	-1.8347174709	-0.433335
C	 0.5310687673	-0.5990672371	-1.3147547723	 0.330065
O	 0.0629791334	-0.3901986725	-2.4067827635	-0.337058
H	 0.552676194	 2.1616201191	-0.1973491657	 0.131537
H	-1.0947058595	 1.6792021274	-0.6283273607	 0.152808
H	-0.60999889	 1.7392376616	 1.0820605683	 0.136026
H	 0.9259308691	-0.3880559898	 2.0496029427	 0.106008
H	 2.5875506496	-1.9333061796	 0.9163284091	 0.111855
H	 1.1043886999	-2.8779353513	 0.6841600146	 0.140779
H	 2.5576440218	-1.1093399918	-1.2598461132	 0.096823
H	 1.0446755504	-2.5019750567	-2.64471622	 0.295169
61.0987	155.8843	186.7754	228.8655	254.6229	292.0315	369.5927	425.992	428.7806	507.4507	539.3628	636.3841	663.6057	773.3906	802.0677	869.0245	925.4607	961.0373	999.6647	1033.9339	1059.4176	1079.4665	1114.5492	1160.8628	1199.4101	1250.806	1283.9196	1291.4344	1309.9198	1362.2687	1403.6267	1413.7522	1449.1594	1478.295	1481.7913	1491.9742	1837.5013	2903.3745	3044.1083	3068.6732	3112.2011	3118.1358	3131.2244	3152.0411	3742.3057
CC12OC1CC(O)C2=O	C[C@]12O[C@H]1C[C@@H](O)C2=O	
InChI=1S/C6H8O3/c1-6-4(9-6)2-3(7)5(6)8/h3-4,7H,2H2,1H3	InChI=1S/C6H8O3/c1-6-4(9-6)2-3(7)5(6)8/h3-4,7H,2H2,1H3/t3-,4+,6+/m1/s1
