20
gdb 118903	2.8658	1.15415	1.04497	2.4354	75.59	-0.2536	0.0254	0.2789	1269.0917	0.169884	-440.308418	-440.299105	-440.298161	-440.342963	34.162	
C	-0.0562353533	 1.5233639956	 0.1289084663	-0.383011
C	 0.1624438932	 0.0363008626	-0.0922958163	-0.061495
O	 0.7200228304	-0.4999929211	 1.1079730897	-0.274175
C	 0.7555678123	-1.8894744069	 1.2370155975	 0.451654
C	 1.5063677384	-2.601271922	 0.1199338891	-0.456164
C	 1.2386040231	-2.1945476931	 2.6782953152	-0.222959
N	 0.0517050053	-2.6579186775	 3.4096659842	-0.263083
C	-0.8697827585	-2.7283417112	 2.5444794648	 0.10709
O	-0.6133975663	-2.4068918921	 1.2518139737	-0.253028
H	 0.8877015423	 2.0191400839	 0.3728879055	 0.127226
H	-0.4664381877	 1.9842588173	-0.7746615627	 0.115936
H	-0.7538891219	 1.690416278	 0.9540663554	 0.129827
H	-0.7847633482	-0.4675572087	-0.31902789	 0.11304
H	 0.8461876926	-0.1272886079	-0.9371218907	 0.094926
H	 2.525422763	-2.2096067353	 0.051792382	 0.131096
H	 1.5537545731	-3.672728366	 0.3275589437	 0.130925
H	 1.0112695764	-2.4655428536	-0.844213099	 0.132312
H	 2.0145805083	-2.9668461366	 2.7023806062	 0.113179
H	 1.6431356685	-1.2858027525	 3.1307146237	 0.130788
H	-1.8891905409	-3.046222073	 2.7354076619	 0.135914
58.4872	84.5086	129.1833	186.2624	232.4853	250.3988	319.9261	338.2773	386.2533	447.5219	467.8014	577.7933	681.1192	764.2159	825.1365	849.9463	872.7582	938.1429	944.0702	971.7489	988.3044	993.2727	1076.6139	1093.4355	1132.8975	1165.9014	1169.6107	1188.1401	1244.5884	1270.0875	1301.9318	1332.9615	1339.4533	1400.3398	1408.9295	1425.5819	1481.6007	1483.3235	1485.2818	1495.7943	1502.3407	1526.1693	1709.7841	3002.3396	3045.3038	3049.4422	3053.4883	3056.1221	3104.2363	3119.4912	3124.5111	3128.7467	3134.3099	3210.21
CCOC1(C)CN=CO1	CCO[C@@]1(C)CN=CO1	
InChI=1S/C6H11NO2/c1-3-8-6(2)4-7-5-9-6/h5H,3-4H2,1-2H3	InChI=1S/C6H11NO2/c1-3-8-6(2)4-7-5-9-6/h5H,3-4H2,1-2H3/t6-/m1/s1
