18
gdb 51537	5.92301	0.65043	0.62294	1.6271	75.22	-0.2434	-0.0381	0.2054	1719.6933	0.145009	-439.067319	-439.05804	-439.057095	-439.1031	32.002	
O	-0.3534761277	 0.0658802855	 0.3665517493	-0.231592
C	-0.1069654091	 1.1948018592	 0.034534326	 0.157519
C	 1.2979400347	 1.7617439012	-0.1093031598	-0.240034
N	 1.3655597135	 2.7257914195	-1.1816168531	-0.082493
C	 1.4823499705	 2.2474316909	-2.5737305094	-0.197655
C	 2.4244540238	 3.4464100764	-2.883906486	-0.079253
C	 2.5782716863	 3.5492087672	-1.3374809344	-0.192167
C	 3.6690766424	 3.1478350003	-3.6713106588	 0.15472
O	 4.0387224349	 3.76355478	-4.636827272	-0.242198
H	-0.9066673713	 1.9370744553	-0.1863002672	 0.087719
H	 1.5180183652	 2.2831569603	 0.834486377	 0.13422
H	 2.0140588901	 0.9254140875	-0.1986041007	 0.10627
H	 2.0059303827	 1.2797146029	-2.6560877686	 0.10023
H	 0.5440002702	 2.1915025016	-3.1327590202	 0.124495
H	 1.9052257472	 4.2994015601	-3.320478893	 0.108548
H	 2.5239621641	 4.5479450876	-0.8942269896	 0.122021
H	 3.495879041	 3.0495493499	-0.9847391398	 0.097232
H	 4.2536090916	 2.2793130146	-3.2830486898	 0.072418
44.9178	64.5837	78.0231	102.8926	192.1883	300.179	328.6088	359.7905	374.0867	443.5873	506.3314	694.1183	765.9446	838.7802	895.2489	899.918	960.0405	1020.2516	1045.6948	1068.1751	1077.8688	1136.5371	1148.5494	1156.4321	1196.8307	1225.8036	1254.6383	1258.9545	1294.6959	1311.9902	1336.6235	1360.0856	1405.3651	1430.2924	1456.2803	1500.9756	1525.401	1833.2055	1841.0013	2845.0702	2887.5772	2951.505	2959.5941	2970.8059	3024.8134	3074.5436	3078.3256	3124.2556
O=CCN1CC(C1)C=O	O=CCN1CC(C1)C=O	
InChI=1S/C6H9NO2/c8-2-1-7-3-6(4-7)5-9/h2,5-6H,1,3-4H2	InChI=1S/C6H9NO2/c8-2-1-7-3-6(4-7)5-9/h2,5-6H,1,3-4H2
