20
gdb 99882	1.93876	1.42524	1.1479	2.0412	80.31	-0.2505	0.0468	0.2974	1201.0497	0.168901	-403.074217	-403.06418	-403.063236	-403.108935	37.53	
C	-0.2971935411	 1.5570176125	-0.0225267782	-0.440545
C	-0.1885890706	 0.0178680315	-0.0332813312	-0.001803
C	 0.7289727461	-0.4109256937	 1.1546531811	-0.066729
O	 1.0265821435	-1.7881742819	 1.1817790866	-0.419349
C	-1.5232446759	-0.5619572209	 0.1392160441	 0.363322
C	-2.6226328564	-1.0278992957	 0.2765465443	-0.49483
C	 0.4101467065	-0.5554347985	-1.3288494944	-0.005582
C	 0.4936419627	 0.1799463528	-2.6092562049	-0.245324
N	 1.721530772	-0.112676373	-1.8385598426	-0.344028
H	 0.6635919192	 2.0291935133	-0.2561461181	 0.108947
H	-1.0426376357	 1.9050431702	-0.7399598794	 0.137004
H	-0.6019648664	 1.9021656063	 0.9693521201	 0.132966
H	 1.6454291125	 0.1983117413	 1.1149012496	 0.084423
H	 0.2178498695	-0.1842326849	 2.0947968468	 0.119307
H	 1.6546865711	-1.9685900204	 0.4747695049	 0.297745
H	-3.5897626229	-1.4479587417	 0.402975406	 0.196627
H	 0.2829259721	-1.6329198259	-1.3882227303	 0.110166
H	 0.4022769799	-0.3601210151	-3.5470719288	 0.122854
H	 0.1433875851	 1.2065494474	-2.644589138	 0.116043
H	 2.0174150688	 0.7332232564	-1.3555982176	 0.228788
65.0265	102.6718	143.5981	176.0248	222.3533	236.9924	282.3565	291.3981	384.2596	394.2393	438.6508	458.7524	526.3128	621.9165	632.1107	641.0225	687.6711	826.8156	855.4078	901.0741	911.2607	963.7936	969.5113	1017.0121	1079.5856	1099.9982	1134.2162	1148.5932	1174.3513	1186.6823	1234.9273	1264.7592	1272.0939	1306.4505	1393.2665	1401.5474	1411.8181	1424.5357	1488.0818	1494.0536	1499.1228	1515.763	2233.9975	2982.9014	3037.1238	3087.9731	3106.1681	3120.7513	3131.9812	3143.2286	3206.325	3489.3138	3501.3232	3817.7572
CC(CO)(C#C)C1CN1	C[C@@](CO)(C#C)[C@H]1CN1	
InChI=1S/C7H11NO/c1-3-7(2,5-9)6-4-8-6/h1,6,8-9H,4-5H2,2H3	InChI=1S/C7H11NO/c1-3-7(2,5-9)6-4-8-6/h1,6,8-9H,4-5H2,2H3/t6-,7+/m1/s1
