20
gdb 17281	4.57166	1.17175	1.07644	1.8946	76.77	-0.2197	0.0878	0.3075	1177.2517	0.176762	-345.112629	-345.104152	-345.103208	-345.146066	31.249	
C	-0.4663123413	 1.2066290643	 0.0107712683	-0.309088
N	 0.0707812281	-0.1373637985	 0.1685712577	-0.071377
C	 1.4626957967	-0.3669546962	-0.1936282204	-0.262453
C	 1.0305057292	-0.4168616496	 1.2336193227	 0.032179
C	 1.5050493651	 0.6242160648	 2.2231374267	-0.180653
N	 0.4980397398	 0.8578534673	 3.2570524855	-0.057358
C	 0.5264739845	-0.050186573	 4.3997887004	-0.21706
C	 0.9908295463	 1.3578668578	 4.5349144912	-0.219928
H	 0.2833342874	 2.0111581448	 0.075394211	 0.095201
H	-0.9430216069	 1.2768309626	-0.972344982	 0.117706
H	-1.2217171669	 1.3838078233	 0.7809448993	 0.137156
H	 1.6772255403	-1.2782476978	-0.7464140188	 0.111689
H	 2.0581143269	 0.4953998579	-0.4964212569	 0.100551
H	 0.879043323	-1.3972915039	 1.6855994676	 0.086404
H	 2.4657648773	 0.2828412813	 2.6540021421	 0.082059
H	 1.7036184614	 1.578529621	 1.7254082368	 0.102689
H	-0.4407500763	-0.3555847268	 4.7878363751	 0.119293
H	 1.2904822534	-0.8265119625	 4.4176492684	 0.108247
H	 2.0633087604	 1.5174504314	 4.6404729492	 0.107426
H	 0.3694210716	 2.102289432	 5.0242291461	 0.117317
63.4231	83.6537	140.0442	195.7923	254.7463	321.0959	368.8625	408.1692	440.1923	543.7181	752.3665	766.766	801.9526	834.7449	902.5531	918.2793	998.9885	1025.314	1028.3998	1042.0395	1092.0157	1110.2627	1117.5008	1121.0176	1130.1177	1150.8527	1167.9025	1179.4492	1198.2333	1206.3436	1278.0858	1318.6108	1340.5755	1354.5532	1431.8088	1446.4985	1479.6615	1486.3959	1491.8302	1505.9696	1517.0834	1523.2938	2920.2842	2972.0871	3066.0687	3072.9208	3079.8238	3091.0863	3095.8561	3102.3327	3115.9987	3166.7306	3176.5915	3190.7041
CN1CC1CN1CC1	CN1C[C@H]1CN1CC1	
InChI=1S/C6H12N2/c1-7-4-6(7)5-8-2-3-8/h6H,2-5H2,1H3	InChI=1S/C6H12N2/c1-7-4-6(7)5-8-2-3-8/h6H,2-5H2,1H3/t6-,7?/m0/s1
