23
gdb 58584	2.41687	1.42268	1.23489	0.9129	80.94	-0.246	0.0801	0.3261	1183.3155	0.204333	-425.444416	-425.434468	-425.433524	-425.478905	37.575	
C	 0.1979753456	 1.4882770812	 0.1520561366	-0.405806
C	 0.0026797163	-0.0249778814	-0.007601915	 0.009341
C	-1.4869861454	-0.3930084951	 0.0677807784	-0.400389
C	 0.6645950252	-0.5428896258	-1.3032832813	 0.469556
C	 0.6412749844	-2.0678825422	-1.4366940856	-0.424627
O	 0.0273437051	 0.0700573945	-2.4196493214	-0.289643
C	 1.0337603189	 0.363566214	-3.3739777902	-0.109579
C	 2.241462527	 0.6867102184	-2.4933133369	-0.096089
O	 2.0386834779	-0.1269572869	-1.3470218749	-0.308616
H	 1.258475334	 1.7503009425	 0.1485054035	 0.123157
H	-0.297216591	 2.0294130906	-0.659822939	 0.118917
H	-0.2335021382	 1.8296330864	 1.0980949563	 0.104196
H	 0.5303154723	-0.5271174024	 0.813691519	 0.077332
H	-2.02873783	 0.0198766075	-0.7886212973	 0.1314
H	-1.6496297263	-1.4740997018	 0.0842567987	 0.111483
H	-1.9310024045	 0.0189053019	 0.9794156701	 0.108896
H	-0.3823433594	-2.4453748752	-1.4775347138	 0.124508
H	 1.1586588461	-2.3667859438	-2.3518795273	 0.113688
H	 1.1578082259	-2.5292981338	-0.5904081622	 0.122453
H	 1.2305684579	-0.4994926587	-4.0269632604	 0.098608
H	 0.6958329329	 1.2012614786	-3.9888371172	 0.113852
H	 3.1992188218	 0.4264223935	-2.9546752757	 0.107794
H	 2.2581102734	 1.7498050179	-2.2153026144	 0.099567
65.8475	97.3135	187.4793	208.6886	216.2305	238.9608	266.1387	273.1791	348.4753	370.0439	393.5436	465.3465	565.362	620.0492	660.854	777.66	866.0558	879.4423	906.0836	930.1017	939.307	953.9013	966.8531	1038.3364	1073.0856	1080.5757	1113.2771	1147.481	1159.9099	1173.2221	1205.0725	1228.5507	1245.3445	1270.6391	1340.6887	1359.1548	1383.1226	1386.1788	1391.7784	1402.3734	1414.5281	1482.8906	1485.4005	1491.8736	1497.6942	1505.9689	1515.6474	1519.2189	1527.9279	2993.154	3005.7901	3024.9014	3038.9481	3043.907	3052.3579	3076.8561	3100.5378	3104.1478	3109.0879	3117.1492	3123.4509	3126.5357	3138.106
CC(C)C1(C)OCCO1	CC(C)C1(C)OCCO1	
InChI=1S/C7H14O2/c1-6(2)7(3)8-4-5-9-7/h6H,4-5H2,1-3H3	InChI=1S/C7H14O2/c1-6(2)7(3)8-4-5-9-7/h6H,4-5H2,1-3H3
