15
gdb 123591	4.26737	1.64908	1.4328	5.9374	70.41	-0.2284	-0.0017	0.2268	885.6048	0.117087	-412.894297	-412.888445	-412.887501	-412.924532	23.977	
C	-0.0271353008	 1.5101262793	-0.0682208769	-0.168566
C	 1.5366808023	 1.3591774512	 0.0276807062	-0.189124
C	 1.133863027	 0.1552686428	 0.9581756183	-0.168559
N	-0.0795504234	-0.0270478991	 0.0260201379	-0.217684
C	 0.6708698573	-0.3112511667	-1.1980565732	 0.360969
C	 1.7304425616	 0.5572305425	-1.2499857389	 0.366068
N	 2.3537314545	 0.2304775926	-2.3866222873	-0.372334
N	 1.6932716024	-0.8065134422	-3.0086382224	-0.143582
N	 0.6578262213	-1.1274417571	-2.2613154057	-0.320483
H	-0.48233424	 1.9586949139	 0.8190416553	 0.117972
H	-0.4557164836	 1.9218302808	-0.9832261655	 0.125015
H	 2.2163597242	 2.159361578	 0.3151423234	 0.08784
H	 1.7983364865	-0.7085928788	 1.009503828	 0.12501
H	 0.8022770537	 0.4596051396	 1.9547112008	 0.117976
H	 3.1786162771	 0.6017729833	-2.8293977902	 0.279483
117.1388	314.434	432.3239	506.5973	554.7999	569.9062	671.6205	699.7811	722.1369	767.0196	809.4067	820.7348	844.3165	911.1918	944.9088	984.3837	1025.2384	1033.664	1061.4169	1093.6149	1123.1954	1168.4277	1192.0564	1199.5265	1237.7967	1238.9437	1296.1821	1350.8275	1418.7588	1489.0033	1498.3221	1526.6252	1571.2828	3057.4878	3067.1105	3135.4618	3137.1331	3141.2092	3661.0702
C1C2CN1C1=C2NN=N1	C1[C@H]2CN1c1c2[nH]nn1	
InChI=1S/C5H6N4/c1-3-2-9(1)5-4(3)6-8-7-5/h3H,1-2H2,(H,6,7,8)	InChI=1S/C5H6N4/c1-3-2-9(1)5-4(3)6-8-7-5/h3H,1-2H2,(H,6,7,8)
