19
gdb 64324	2.68111	1.39465	1.1656	3.8459	71.28	-0.2639	0.0092	0.2732	1125.0505	0.158427	-460.210454	-460.201651	-460.200707	-460.243807	33.333	
C	 0.0378984484	 1.519208492	 0.0419263852	-0.424343
C	-0.0625570882	-0.0024303542	-0.0066842807	 0.334496
C	-1.5263776242	-0.4534399075	 0.1058593116	-0.437387
C	 0.6097308521	-0.5694528611	-1.2670473728	-0.35375
C	 0.9752641733	-2.0430262261	-1.1707842316	 0.400895
O	 1.1400268294	-2.743825907	-2.1305681705	-0.322175
O	 1.2028941295	-2.5417620508	 0.0697102334	-0.231073
C	 0.7642381986	-1.8386093609	 1.2443931609	 0.015435
O	 0.7264396976	-0.4638727992	 1.111029332	-0.263208
H	 1.0866364907	 1.826121316	 0.0726070526	 0.129075
H	-0.4317380754	 1.9630260947	-0.8407082956	 0.121566
H	-0.4607558515	 1.9082025345	 0.9341676488	 0.125865
H	-2.1242496809	 0.0450547006	-0.6623433752	 0.128886
H	-1.6492264131	-1.5310328716	-0.0385691662	 0.131033
H	-1.9323677635	-0.1841826546	 1.0851581276	 0.130075
H	-0.0042095843	-0.4384789715	-2.1608847564	 0.133825
H	 1.552188121	-0.0362234909	-1.4397980711	 0.140445
H	-0.2138846008	-2.258152418	 1.5180693969	 0.107424
H	 1.4948707312	-2.0692237545	 2.0224303509	 0.132917
82.9795	103.1821	211.0405	233.9382	276.6746	307.5654	324.6968	377.792	419.0461	482.4474	489.7541	529.4667	588.6457	725.5373	794.017	814.706	882.7167	923.4219	941.2647	975.2016	1024.0279	1042.7759	1103.619	1146.2032	1156.8745	1206.6258	1236.0461	1274.4121	1289.3507	1299.5216	1346.5672	1400.8305	1416.4149	1453.4066	1462.9968	1479.2894	1485.4726	1495.8896	1506.5567	1534.5357	1849.0414	3008.5509	3041.3217	3044.3903	3049.0956	3108.9553	3111.8628	3114.6094	3118.3177	3123.8548	3125.9752
CC1(C)CC(=O)OCO1	CC1(C)CC(=O)OCO1	
InChI=1S/C6H10O3/c1-6(2)3-5(7)8-4-9-6/h3-4H2,1-2H3	InChI=1S/C6H10O3/c1-6(2)3-5(7)8-4-9-6/h3-4H2,1-2H3
