19
gdb 112172	2.557	1.18616	0.99188	1.8475	73.92	-0.236	0.0319	0.2679	1258.0753	0.157459	-456.329722	-456.319734	-456.31879	-456.36439	36.695	
C	-0.2452020271	 1.6020337647	 0.1353486567	-0.440425
C	-0.0506462749	 0.0981991409	 0.005111086	 0.278668
O	-1.259937493	-0.5985883766	 0.2309792252	-0.479982
C	 0.7061430255	-0.4424174658	-1.2645826205	 0.005969
C	 1.067354272	 0.4654191571	-2.4269024523	-0.086126
O	 1.9274872145	-0.1931883297	-3.3488421941	-0.42002
N	 1.8266951383	-0.7672571178	-0.3607528391	-0.345327
C	 1.1213484513	-0.5008052132	 0.7953782215	 0.350533
N	 1.2288788377	-0.6891462487	 2.0426297539	-0.571758
H	 0.6772454453	 2.153089315	-0.0688797858	 0.12281
H	-1.0266353325	 1.9456075271	-0.5488602161	 0.123949
H	-0.5565584793	 1.835143984	 1.1579011597	 0.132545
H	-1.2804245713	-0.8057379973	 1.1739460697	 0.29429
H	 0.1832478256	-1.3350870716	-1.6331778993	 0.083008
H	 0.149830464	 0.8292360814	-2.9144517251	 0.097958
H	 1.6276038653	 1.3335758539	-2.0694611369	 0.11548
H	 1.4174295011	-0.8825421633	-3.7866711375	 0.283879
H	 2.5602803146	-1.4449961052	-0.5082275321	 0.243769
H	 2.0752754829	-1.2027474549	 2.2922747558	 0.210779
81.0273	102.2303	158.0361	162.9649	224.9203	256.8451	273.0477	305.9455	314.4409	352.6975	400.7703	442.2299	498.7355	605.8763	683.8952	717.2452	768.9743	833.4587	867.4105	920.5823	976.6689	1020.4091	1049.6682	1073.3496	1095.1881	1125.2022	1145.2589	1207.9742	1241.7152	1242.2381	1317.6846	1342.401	1371.5892	1387.7325	1401.4786	1407.7909	1424.7661	1484.6957	1491.8704	1494.7149	1800.1099	2991.2763	3018.417	3041.2829	3096.6005	3116.391	3120.4182	3463.9358	3603.7441	3778.4874	3812.2981
CC1(O)C(CO)NC1=N	C[C@@]1(O)[C@@H](CO)N[C]1[NH]	
InChI=1S/C5H10N2O2/c1-5(9)3(2-8)7-4(5)6/h3,8-9H,2H2,1H3,(H2,6,7)	InChI=1S/C5H10N2O2/c1-5(9)3(2-8)7-4(5)6/h3,8-9H,2H2,1H3,(H2,6,7)/t3-,5-/m1/s1
