17
gdb 97519	4.78386	0.62666	0.55848	5.5529	83.72	-0.2566	-0.0408	0.2158	1937.5435	0.134894	-418.01599	-418.006023	-418.005079	-418.054198	33.872	
C	 0.1387964408	 1.2923203214	 0.1632848842	-0.371296
C	 0.056207752	-0.232552563	-0.0308143055	-0.322318
C	-1.3060446267	-0.7479408104	 0.0180074066	 0.201033
C	-2.4292683842	-1.1843492814	 0.0623597768	-0.012903
C	-3.7809464361	-1.66954294	 0.1127149043	 0.1866
N	-4.0484688382	-2.9106580576	 0.1743537844	-0.494681
N	-4.7236277314	-0.6052342197	 0.0846116818	-0.340314
C	-6.0894191181	-0.7187063103	 0.1192980846	 0.166809
O	-6.7139733893	-1.7542032552	 0.1798771008	-0.299606
H	 1.1802064303	 1.6226439383	 0.1185830853	 0.124346
H	-0.4211189645	 1.8158111361	-0.6164545454	 0.128275
H	-0.2732578898	 1.5846931225	 1.1328256949	 0.131355
H	 0.506040275	-0.5096318931	-0.9927754647	 0.143172
H	 0.654148408	-0.7385234488	 0.7376282696	 0.144676
H	-5.0595562563	-3.0512897758	 0.2017076527	 0.257216
H	-4.3397039201	 0.3265320656	 0.033730737	 0.262819
H	-6.5763807414	 0.2747494314	 0.0846418123	 0.094818
5.5947	62.3296	66.0216	154.4158	185.1448	240.6489	258.5065	261.3299	356.7514	389.5666	514.6994	576.2489	593.967	653.7121	710.6262	782.1287	883.2928	935.2696	955.787	993.4448	1025.0287	1080.5325	1101.3212	1156.4083	1183.0866	1282.9668	1341.9787	1356.9424	1410.1347	1438.6983	1468.8633	1495.4768	1496.0972	1505.257	1703.0028	1805.0357	2355.966	2950.5681	3025.1754	3046.8275	3054.1057	3122.2182	3124.2067	3481.5221	3620.7852
CCC#CC(=N)NC=O	CCC#CC(=N)NC=O	
InChI=1S/C6H8N2O/c1-2-3-4-6(7)8-5-9/h5H,2H2,1H3,(H2,7,8,9)	InChI=1S/C6H8N2O/c1-2-3-4-6(7)8-5-9/h5H,2H2,1H3,(H2,7,8,9)
