22
gdb 115746	3.40169	0.85416	0.73271	4.2808	86.76	-0.3001	0.0379	0.338	1589.9089	0.194315	-367.227658	-367.217906	-367.216962	-367.262841	35.738	
C	-0.1585322772	 1.7206508418	-0.0390140416	-0.388478
C	-0.1216224628	 0.2630812909	 0.434663192	-0.199741
C	-1.3404635234	-0.5306776917	-0.021944021	 0.042846
C	-1.5284237345	-0.85740355	-1.5313183057	-0.229926
C	-2.0960903324	-2.2442926087	-1.1257984663	-0.227227
C	-1.4778667613	-2.0594970173	 0.2899759651	-0.021652
C	-0.142023785	-2.8004826765	 0.4813760316	-0.361741
C	-0.3319122185	-4.2465778843	 0.5854822059	 0.26499
N	-0.5015078805	-5.3870416312	 0.6655295645	-0.308147
H	 0.7289764788	 2.2682792289	 0.2918137082	 0.115476
H	-0.1989137738	 1.7809333856	-1.1318010174	 0.121899
H	-1.0386955727	 2.2412655536	 0.3539254914	 0.117156
H	 0.7962010128	-0.2105601345	 0.062759902	 0.092422
H	-0.0585159785	 0.2377879351	 1.5310210094	 0.097123
H	-2.243804622	-0.032521346	 0.3507397247	 0.076661
H	-2.1754485554	-0.1988981965	-2.1146794076	 0.102321
H	-0.5685095625	-0.9394831819	-2.0522076902	 0.099337
H	-3.1881082647	-2.2496271677	-1.0914051375	 0.109968
H	-1.7674817932	-3.1157652386	-1.6976686291	 0.112096
H	-2.1319384871	-2.3065606093	 1.1302156501	 0.085576
H	 0.5377428211	-2.6057908943	-0.3561933858	 0.148524
H	 0.3673753428	-2.4526972576	 1.387234417	 0.150515
63.6304	96.8203	117.8657	125.1501	176.1094	224.4336	271.4095	346.8883	395.2801	402.8295	470.438	544.9442	671.5109	748.7741	796.8545	829.9694	880.0274	902.4815	940.6538	947.4992	957.8612	977.2792	997.2042	1037.9189	1082.5767	1129.242	1142.6861	1171.5625	1212.7521	1225.5583	1251.5508	1264.3936	1275.6013	1293.0063	1304.1834	1320.4951	1344.9369	1380.8884	1396.1892	1412.6908	1465.779	1485.0989	1488.6441	1499.5388	1504.0273	1508.4338	2359.8856	3011.2376	3023.9755	3032.9906	3040.4327	3046.7843	3051.3685	3061.6547	3069.4995	3083.8706	3100.1511	3102.4761	3106.5604	3119.9258
CCC1CCC1CC#N	CC[C@H]1CC[C@H]1CC#N	
InChI=1S/C8H13N/c1-2-7-3-4-8(7)5-6-9/h7-8H,2-5H2,1H3	InChI=1S/C8H13N/c1-2-7-3-4-8(7)5-6-9/h7-8H,2-5H2,1H3/t7-,8-/m0/s1
