20
gdb 124456	3.12677	1.28805	1.14446	4.5277	80.24	-0.253	0.0076	0.2606	1164.2577	0.170588	-399.341412	-399.332341	-399.331397	-399.376106	34.172	
C	 0.0600226228	 1.5393897733	 0.0547268424	-0.395091
C	 0.004499746	 0.0019751501	 0.0246126981	 0.239669
C	 0.6862048682	-0.5915423443	 1.2698686904	-0.395062
C	-1.4522241627	-0.4706837449	-0.0536165865	-0.393071
N	 0.7332777667	-0.4700103172	-1.1786283129	 0.062971
C	 2.0359008006	-0.2701217237	-1.5005653907	-0.099555
C	 2.1954287716	-0.9109922876	-2.7043716082	-0.076286
N	 1.0060180977	-1.4640406847	-3.0615759552	-0.199154
N	 0.1243557701	-1.1970020052	-2.1387717916	-0.148299
H	 1.0889050268	 1.9052554667	 0.1196126753	 0.116599
H	-0.3983867967	 1.9598033242	-0.8444950551	 0.134869
H	-0.484060814	 1.9130780709	 0.9269706018	 0.124038
H	 0.1572716302	-0.2690386167	 2.171368613	 0.124032
H	 0.6723164611	-1.6842326392	 1.2335102165	 0.13487
H	 1.7261717247	-0.2633601152	 1.3560802248	 0.116599
H	-1.9522370863	-0.075484046	-0.9394740908	 0.13965
H	-1.5162224845	-1.5593827683	-0.0931949576	 0.139666
H	-1.9793465544	-0.1174427419	 0.8373359376	 0.109487
H	 2.7144545335	 0.2855844343	-0.8769984842	 0.141444
H	 3.0753932386	-1.0038643147	-3.3201283471	 0.122624
14.8289	140.6182	209.273	230.297	260.664	281.6669	327.9836	340.8496	356.8434	450.0247	477.7942	591.7541	674.0239	719.7908	786.0724	824.1255	860.7573	926.8174	934.386	964.7789	968.3314	1029.4733	1042.2352	1054.8541	1080.7083	1139.6819	1189.6215	1225.5561	1251.0849	1264.2425	1306.2663	1324.8059	1401.7911	1404.3254	1434.426	1461.7945	1472.2377	1480.7401	1482.0003	1497.1465	1501.6904	1515.2842	1522.2937	3040.5346	3044.3476	3056.6096	3111.3091	3117.2223	3121.9296	3122.9214	3132.523	3146.6398	3267.5999	3294.0466
CC(C)(C)N1C=CN=N1	CC(C)(C)n1ccnn1	
InChI=1S/C6H11N3/c1-6(2,3)9-5-4-7-8-9/h4-5H,1-3H3	InChI=1S/C6H11N3/c1-6(2,3)9-5-4-7-8-9/h4-5H,1-3H3
