17
gdb 42466	4.38608	0.72587	0.64284	3.0163	77.48	-0.2559	-0.0435	0.2124	1670.5173	0.136628	-414.168345	-414.15902	-414.158075	-414.20398	32.616	
N	 0.0255499251	 1.3383307429	 0.3801519768	-0.526017
C	-0.0506230565	 0.1019358811	 0.05250919	 0.30589
N	-1.2386642369	-0.5557801778	-0.0545611646	-0.325313
C	-2.506957013	 0.1379329831	 0.1188278828	-0.159023
C	-3.6334777318	-0.858026745	 0.206645553	-0.003096
C	-4.9791037901	-0.5130761491	-0.3053342995	-0.241854
N	-4.1509108471	-1.5021774164	-1.0181228979	-0.318298
C	 1.1134256012	-0.7303858853	-0.2186954852	 0.226734
N	 2.0618976199	-1.3553253737	-0.4350971599	-0.319054
H	 0.9934589307	 1.6403659365	 0.4519268348	 0.241049
H	-1.2476108866	-1.4695712577	-0.4772282744	 0.270701
H	-2.4402878878	 0.7410279189	 1.0304370911	 0.14738
H	-2.6821433412	 0.8429468654	-0.7080784325	 0.111644
H	-3.5648260513	-1.5429029304	 1.0495967493	 0.107936
H	-5.8613932904	-0.9179617816	 0.1807850553	 0.129561
H	-5.1185392748	 0.4678343839	-0.7524752647	 0.120118
H	-3.7389626593	-1.0619922449	-1.8391114745	 0.231643
40.7194	59.6822	91.3146	154.0919	207.2181	259.8205	314.5859	374.5473	376.5152	441.249	529.6386	615.1155	725.2139	787.9836	821.835	830.6423	911.7358	936.1067	945.4057	1006.0167	1052.9124	1099.7403	1131.7862	1161.8183	1172.6168	1208.2871	1258.7178	1268.7557	1300.4447	1311.3996	1366.3164	1440.6243	1503.0904	1512.8408	1543.4207	1682.7829	2348.5489	2993.3877	3073.2722	3113.448	3131.5198	3200.1399	3479.6996	3536.0714	3651.856
N=C(NCC1CN1)C#N	N=C(NC[C@H]1CN1)C#N	
InChI=1S/C5H8N4/c6-1-5(7)9-3-4-2-8-4/h4,8H,2-3H2,(H2,7,9)	InChI=1S/C5H8N4/c6-1-5(7)9-3-4-2-8-4/h4,8H,2-3H2,(H2,7,9)/t4-/m1/s1
