15
gdb 51938	3.37799	0.60612	0.55008	3.9505	76.47	-0.271	-0.0021	0.2689	1930.2545	0.108883	-420.573223	-420.563304	-420.562359	-420.611277	33.046	
O	 0.3279488326	 1.0284755933	-1.7190132721	-0.266728
C	 0.4410350359	 1.9604341873	-0.9832915609	 0.182281
O	 0.8306993247	 1.8248499043	 0.3021474224	-0.167379
C	 0.9680201739	 3.0408085751	 1.0620119144	-0.249585
C	 2.2447511292	 3.7030275372	 0.8355736794	 0.109118
C	 3.2968559965	 4.2487880087	 0.6322709644	 0.071798
C	 4.581683697	 4.9068011139	 0.3903043734	-0.490625
C	 4.4857099618	 6.0794303306	-0.4805096694	 0.312685
C	 4.417903807	 7.0426035402	-1.1933193702	-0.436944
H	 0.2329415875	 3.0111373096	-1.2636881136	 0.085495
H	 0.1365254022	 3.7200051217	 0.8322663881	 0.144632
H	 0.8632971408	 2.7340275526	 2.1058439812	 0.159029
H	 5.0266875943	 5.1987948412	 1.3513735664	 0.168061
H	 5.2790265293	 4.1800965254	-0.0487007619	 0.172428
H	 4.3562979572	 7.8935117388	-1.8257653217	 0.205734
11.5922	38.1713	87.4371	109.7752	170.1924	229.2731	304.528	322.7191	354.0792	367.7429	471.866	561.8804	629.4455	657.0973	682.6306	793.2205	930.7766	948.3478	986.9089	1028.6062	1044.6673	1145.2433	1164.3481	1231.1979	1296.7539	1335.5481	1390.165	1433.534	1447.7731	1484.2517	1872.7053	2249.6721	2377.5684	2953.9575	3012.9607	3026.0626	3038.6123	3097.1328	3505.7665
O=COCC#CCC#C	O=COCC#CCC#C	
InChI=1S/C7H6O2/c1-2-3-4-5-6-9-7-8/h1,7H,3,6H2	InChI=1S/C7H6O2/c1-2-3-4-5-6-9-7-8/h1,7H,3,6H2
