20
gdb 87797	3.43434	1.0807	0.99634	2.6809	80.66	-0.2205	0.0748	0.2953	1287.3573	0.169986	-403.081087	-403.072334	-403.07139	-403.114201	33.904	
C	-0.095738167	 1.4421944351	 0.0114441618	-0.416918
C	 0.0114112143	-0.0595128831	-0.083032065	 0.020205
C	 0.7840923485	-0.6789720534	-1.1815716189	-0.119564
N	 1.3467791483	-0.6020291822	 0.2387288107	-0.145384
C	 1.1812344023	-2.098148303	 0.3368865394	-0.258569
C	 0.7076751677	-2.1814325705	-1.1171900996	 0.353252
C	-0.2691190715	-3.1049655817	-1.805124257	-0.401663
C	 1.1982787286	-3.1071482615	-2.175810579	 0.025005
O	 1.6068917342	-2.5098559138	-3.3718869259	-0.419989
H	 0.8096032836	 1.9166716324	-0.3771158001	 0.128752
H	-0.9536235738	 1.8082915907	-0.5625510935	 0.114807
H	-0.2199848441	 1.7577178347	 1.0524207049	 0.122379
H	-0.8502810003	-0.6103288316	 0.2971924469	 0.078931
H	 1.214163417	-0.1129112297	-2.0010124728	 0.104163
H	 2.1482158351	-2.5749203197	 0.5183536619	 0.112663
H	 0.4717674195	-2.4090428718	 1.1128126244	 0.100291
H	-0.6645141109	-3.9516278744	-1.2523642907	 0.111493
H	-0.957043651	-2.6570079409	-2.515797131	 0.115034
H	 1.7983362784	-3.9624621293	-1.8593717101	 0.085699
H	 1.3273606412	-3.0753585762	-4.0992912966	 0.289412
108.15	136.4859	180.6767	210.3458	264.7872	296.7457	303.8028	406.5163	434.224	444.6703	554.8987	580.129	727.2891	792.0946	815.1428	859.9974	877.8563	919.2689	956.0718	987.3733	1009.4137	1026.9467	1033.6074	1047.4916	1096.0776	1103.2306	1133.4567	1149.9756	1169.7097	1185.5274	1213.6339	1236.7808	1282.0953	1290.0161	1302.7784	1363.7211	1408.6787	1423.4039	1440.8868	1488.4053	1494.5353	1497.4711	1500.7182	3031.1727	3035.6329	3080.474	3088.9769	3094.0467	3100.7752	3119.5289	3120.0357	3172.5572	3210.1087	3806.862
CC1C2N1CC21CC1O	C[C@H]1[C@H]2N1C[C@]12C[C@H]1O	
InChI=1S/C7H11NO/c1-4-6-7(2-5(7)9)3-8(4)6/h4-6,9H,2-3H2,1H3	InChI=1S/C7H11NO/c1-4-6-7(2-5(7)9)3-8(4)6/h4-6,9H,2-3H2,1H3/t4-,5+,6+,7+,8?/m0/s1
