20
gdb 99540	2.2045	1.21268	0.83363	4.0787	85.25	-0.2723	0.0301	0.3024	1413.0469	0.168234	-366.002827	-365.992234	-365.99129	-366.038666	38.058	
C	-0.120746826	 1.6048821336	 0.025954259	-0.402925
C	 0.0338592197	 0.0826459217	-0.0259406252	-0.192813
C	 0.7427425107	-0.5085672049	 1.2152841007	-0.132989
C	 0.0183978873	-0.1247092319	 2.4331016151	 0.292742
N	-0.5838588138	 0.1908231282	 3.3677450374	-0.334764
C	 0.9053920637	-2.06384497	 1.1626269133	-0.166182
C	 1.6735569793	-2.5338418178	-0.0894908615	-0.407411
C	 1.5716726976	-2.546023233	 2.3710489251	 0.320508
C	 2.151584729	-2.9339368861	 3.3492390683	-0.445427
H	 0.8540056379	 2.0989684992	 0.101920926	 0.120214
H	-0.6094670207	 1.9700849781	-0.881733834	 0.121007
H	-0.7227854647	 1.9162629232	 0.8839787576	 0.149913
H	-0.9493819447	-0.3918092096	-0.1291529023	 0.115582
H	 0.6145640072	-0.1921254411	-0.9107483592	 0.112893
H	 1.7483988429	-0.0739320509	 1.2873148875	 0.130756
H	-0.1049564932	-2.4929650393	 1.1307925245	 0.123733
H	 1.1201765774	-2.3177272073	-1.0060358676	 0.125603
H	 2.6537852076	-2.0503858436	-0.1477422539	 0.129547
H	 1.8348035061	-3.6128860326	-0.0372555322	 0.137442
H	 2.6419734368	-3.2768845159	 4.2266610214	 0.202571
50.3613	89.9684	117.583	160.0227	190.1236	198.7933	246.9407	259.4813	299.5135	334.4016	390.2433	483.4055	516.3873	562.6941	603.4729	641.5726	654.6665	768.2642	842.1809	861.8797	945.1895	954.0751	1025.1215	1056.8266	1088.5143	1122.814	1135.5485	1141.5235	1253.8904	1285.1293	1323.3232	1341.3898	1360.0482	1362.855	1409.5701	1419.0841	1486.1	1493.6841	1500.1478	1502.452	1508.1946	2239.3668	2356.0626	3017.1929	3032.0593	3039.2769	3044.2829	3048.1788	3089.689	3108.8944	3122.4336	3124.4365	3132.918	3504.0209
CCC(C#N)C(C)C#C	CC[C@@H](C#N)[C@@H](C)C#C	
InChI=1S/C8H11N/c1-4-7(3)8(5-2)6-9/h1,7-8H,5H2,2-3H3	InChI=1S/C8H11N/c1-4-7(3)8(5-2)6-9/h1,7-8H,5H2,2-3H3/t7-,8-/m0/s1
