19
gdb 108266	2.36226	1.7265	1.39963	3.079	75.2	-0.2207	0.0078	0.2285	1023.6104	0.160871	-419.163969	-419.15586	-419.154916	-419.19647	31.298	
C	 0.0463880148	 1.3398399195	 0.2718322532	-0.332663
N	-0.2124147077	-0.0383731703	-0.1455518743	-0.330785
C	 0.5691757768	-0.5438460817	-1.2613213876	 0.201866
C	 0.3706361233	 0.2739664407	-2.5806591055	-0.153881
O	 1.7421348344	 0.8406483291	-2.4439766446	-0.276857
C	 1.9922535961	-0.1053635686	-1.4876020528	 0.396048
N	 2.9820035307	-0.816230929	-1.1618902205	-0.322126
C	 2.3189516311	-2.0048713508	-0.5303338691	-0.160921
C	 0.8578874383	-2.0492341075	-1.1233422897	-0.321642
H	 1.0970251269	 1.5411838081	 0.5352974189	 0.117696
H	-0.2356907057	 2.0383973873	-0.5209826447	 0.132026
H	-0.5780964999	 1.5640225853	 1.1406742391	 0.123184
H	-0.0857171707	-0.6540966168	 0.6488261628	 0.224741
H	 0.3078284431	-0.3103334791	-3.5015893342	 0.128385
H	-0.3840009476	 1.0604393359	-2.5535705412	 0.127921
H	 2.890903018	-2.8977414682	-0.7938590875	 0.119638
H	 2.3206293999	-1.9298375731	 0.5650598093	 0.105452
H	 0.1343413236	-2.5805009964	-0.4979066254	 0.104475
H	 0.8870752948	-2.5386718944	-2.1011879362	 0.117441
94.2077	163.9241	175.2969	246.2803	272.9493	336.6934	349.5435	426.4933	535.1015	643.2515	675.201	697.4344	735.9259	779.1023	842.7417	883.292	893.7794	925.0478	970.7759	984.1176	1012.9621	1088.0685	1109.1652	1137.2654	1144.7836	1154.3981	1195.2046	1212.5756	1236.9873	1274.116	1302.514	1318.5117	1358.046	1463.4904	1478.72	1486.9091	1495.7131	1499.0975	1505.7312	1522.341	1764.9766	2978.0086	3022.616	3055.9786	3071.4216	3079.5093	3095.7359	3109.0042	3116.2796	3149.3059	3543.5197
CNC12COC1=NCC2	CN[C@@]12CO[C]1[N]CC2	
InChI=1S/C6H10N2O/c1-7-6-2-3-8-5(6)9-4-6/h7H,2-4H2,1H3	InChI=1S/C6H10N2O/c1-7-6-2-3-8-5(6)9-4-6/h7H,2-4H2,1H3/t6-/m0/s1
