21
gdb 39474	2.28037	2.02982	1.4695	1.3944	81.83	-0.232	0.0165	0.2485	993.8246	0.18643	-387.111341	-387.104128	-387.103184	-387.142511	30.227	
C	-0.0132407561	 1.4939805772	 0.1497770024	-0.197642
C	 1.3651395357	 2.1675077349	-0.0156242988	-0.172583
C	 1.8782404992	 2.364644548	-1.4563475659	-0.222366
C	 1.8379837596	 1.0749617906	-2.3235368462	 0.059312
O	 1.8878897311	-0.0998490306	-1.5101087385	-0.265874
C	 0.5459508014	-0.5647024036	-1.3175955844	 0.054024
C	-0.0086296308	-0.0403671234	 0.0203853901	-0.199197
C	-0.1958797042	-0.0233784313	-2.5170090191	-0.087124
C	 0.5392529096	 0.9239716558	-3.0855212066	-0.089991
H	-0.3952153392	 1.7365749194	 1.1485499675	 0.092171
H	-0.7264260065	 1.9295304685	-0.5603390488	 0.096108
H	 1.3301528885	 3.1576951565	 0.4545046271	 0.086551
H	 2.1069179366	 1.5876474908	 0.5445880803	 0.106033
H	 1.2948845549	 3.1462501605	-1.9593986063	 0.092919
H	 2.9076092645	 2.7373979692	-1.4028442074	 0.095527
H	 2.7110116071	 1.0499213373	-2.9874219937	 0.08076
H	 0.5774314495	-1.6615500659	-1.2943638988	 0.078409
H	 0.6061316267	-0.469069387	 0.8213522622	 0.102243
H	-1.0263390711	-0.4276989386	 0.1639557004	 0.087528
H	-1.1954597864	-0.3362051245	-2.7910469993	 0.101387
H	 0.2726749299	 1.5501720462	-3.9278164462	 0.101804
158.6297	205.6465	301.7502	312.6926	351.0964	360.2525	474.269	584.951	608.1355	716.3078	760.1524	775.7095	820.7825	836.4412	843.6911	887.9521	896.7918	926.7718	959.7215	967.1896	988.5336	1025.3005	1029.6633	1092.1148	1103.1586	1114.6769	1135.029	1162.424	1207.5788	1253.8033	1284.4878	1303.3076	1326.5398	1331.8976	1351.3427	1366.3931	1373.2857	1389.1903	1393.5781	1397.9017	1470.2334	1482.5238	1487.4265	1494.9851	1684.3676	3012.2647	3017.0304	3022.96	3028.6045	3028.9126	3034.5468	3054.8868	3059.3473	3067.0594	3078.9523	3202.2067	3227.9822
C1CCC2OC(C1)C=C2	C1CC[C@H]2O[C@@H](C1)C=C2	
InChI=1S/C8H12O/c1-2-4-8-6-5-7(3-1)9-8/h5-8H,1-4H2	InChI=1S/C8H12O/c1-2-4-8-6-5-7(3-1)9-8/h5-8H,1-4H2/t7-,8+
