17
gdb 64070	2.55498	1.54529	1.21433	4.3503	71.18	-0.2451	-0.0642	0.1809	1060.0954	0.135556	-455.171406	-455.162633	-455.161689	-455.204599	33.069	
C	 0.2035477421	 1.5216102811	 0.0258113341	-0.42757
C	-0.0907381983	 0.0131303142	-0.0377401086	 0.306782
O	-1.4766270629	-0.2349542974	-0.0460358615	-0.477974
C	 0.6143366698	-0.6606522164	-1.2335332891	-0.222842
N	 1.9109160243	-1.0461711025	-0.671349738	-0.345329
C	 1.912398863	-1.2313336895	 0.694743241	 0.289509
N	 2.7760835917	-1.7237790331	 1.4907442577	-0.521142
C	 0.5751215006	-0.6846000038	 1.1560228562	 0.320169
O	 0.0532546746	-0.8134361853	 2.2314347397	-0.313115
H	 1.2762039707	 1.7272912577	-0.0440497256	 0.129184
H	-0.3085280089	 2.017588789	-0.8034433437	 0.132877
H	-0.1704666616	 1.9362642682	 0.9662145931	 0.133823
H	-1.7348625324	-0.3418868832	 0.8811570329	 0.292689
H	 0.0196320569	-1.522949337	-1.5596224464	 0.126776
H	 0.7478263635	 0.0161597284	-2.0822220713	 0.11745
H	 2.6114863683	-1.482940654	-1.2490056472	 0.249485
H	 3.6031539188	-2.0605621264	 0.9918459367	 0.209228
70.5709	143.4576	200.9995	245.39	293.7369	325.3369	326.0799	363.1279	389.4859	449.1732	483.9273	563.9985	594.8442	668.8232	723.6578	803.4297	863.6148	900.6611	955.1546	993.9259	1010.6297	1043.6653	1123.9698	1133.453	1159.0756	1211.8828	1234.8217	1322.8397	1369.1089	1391.1129	1399.1939	1437.106	1488.1307	1492.0553	1527.9048	1739.1331	1858.7244	3026.341	3039.2898	3084.396	3118.754	3122.8353	3441.4438	3633.8603	3733.1646
CC1(O)CNC(=N)C1=O	C[C@@]1(O)CN[C]([NH])C1=O	
InChI=1S/C5H8N2O2/c1-5(9)2-7-4(6)3(5)8/h9H,2H2,1H3,(H2,6,7)	InChI=1S/C5H8N2O2/c1-5(9)2-7-4(6)3(5)8/h9H,2H2,1H3,(H2,6,7)/t5-/m1/s1
