18
gdb 13763	3.10458	1.46879	1.18121	4.6169	72.72	-0.2751	0.0158	0.2909	1071.2352	0.153285	-343.980048	-343.971324	-343.97038	-344.013451	31.634	
C	-0.0127079378	 1.4196308059	-0.2579930357	-0.395392
C	 0.0592593425	-0.0436215703	 0.1997132843	 0.025464
C	 0.7212171435	-0.1836987094	 1.5770649777	-0.396906
C	-1.3290512843	-0.6501304613	 0.2127771939	 0.005407
N	-1.8971327044	-1.0585371802	-1.0706813344	-0.319385
C	-1.5907668816	-2.099915848	-0.0663571796	-0.20437
C	-0.5232990524	-3.0172471415	-0.3866522829	 0.334519
N	 0.3320736219	-3.7632783674	-0.6076455056	-0.340064
H	 0.9885164313	 1.8570507931	-0.3175954503	 0.118334
H	-0.4781372942	 1.4967275739	-1.2448902779	 0.129146
H	-0.5978180542	 2.0257199568	 0.4444896118	 0.108704
H	 0.6508053935	-0.6040612222	-0.5336136602	 0.104583
H	 0.8042713989	-1.2331385969	 1.8758042841	 0.128471
H	 1.7286146331	 0.2429354837	 1.566070249	 0.121417
H	 0.1467501792	 0.3445117022	 2.347623593	 0.110418
H	-2.0099992669	-0.2089001147	 0.9424429895	 0.093956
H	-2.9019728396	-0.9081920185	-1.1030127691	 0.244957
H	-2.4169550883	-2.567297295	 0.4627468924	 0.130741
62.0966	104.8335	184.4603	222.5029	242.347	252.6155	308.6914	337.0322	427.4885	476.9774	581.4109	631.5514	769.7655	829.5456	876.464	918.0062	934.4997	958.4352	971.0874	980.6598	1055.4417	1131.3477	1149.4819	1192.5593	1204.9495	1231.8979	1259.7995	1328.2714	1344.4955	1398.7014	1402.8407	1419.487	1461.4936	1488.4383	1492.1795	1504.5602	1513.3811	2358.1736	3026.9574	3029.5053	3045.0621	3093.6323	3094.9862	3101.9109	3111.7023	3114.255	3147.7741	3510.5272
CC(C)C1NC1C#N	CC(C)[C@H]1N[C@H]1C#N	
InChI=1S/C6H10N2/c1-4(2)6-5(3-7)8-6/h4-6,8H,1-2H3	InChI=1S/C6H10N2/c1-4(2)6-5(3-7)8-6/h4-6,8H,1-2H3/t5-,6+/m0/s1
