18
gdb 99091	4.26673	0.75775	0.71993	3.6586	71.41	-0.2574	-0.0297	0.2278	1607.065	0.144174	-476.276827	-476.266144	-476.265199	-476.314673	35.454	
C	-0.1279451335	 1.3942292299	 0.1814129363	-0.331161
N	 0.0406398374	-0.0274637483	-0.0341574935	-0.359063
C	 0.6232266345	-0.5313093199	-1.1487630911	 0.530946
O	 1.0629564684	 0.1082343976	-2.0786835145	-0.408477
O	 0.6399480592	-1.8972624459	-1.0730368829	-0.296002
C	 1.2708010395	-2.5812913593	-2.1654891052	 0.03008
C	 2.696163681	-2.9890712118	-1.8236997602	-0.403151
C	 0.36757213	-3.7559316205	-2.5067333794	 0.151844
O	 0.7537272567	-4.7867842171	-2.9904420868	-0.243592
H	 0.2659314931	 1.9092109362	-0.6952425024	 0.172611
H	-1.1848725858	 1.6562415579	 0.3018892955	 0.129755
H	 0.4203476706	 1.7328722038	 1.0676560087	 0.129731
H	-0.26914491	-0.6862721	 0.6603686813	 0.255974
H	 1.2682966246	-1.903605152	-3.0301731919	 0.145637
H	 3.09071663	-3.6229812954	-2.6210232091	 0.145176
H	 3.3284416422	-2.1044545774	-1.7206894143	 0.133838
H	 2.7193878019	-3.5572355331	-0.8896749404	 0.128501
H	-0.7067182199	-3.5695681546	-2.2845203101	 0.087353
27.9475	56.5524	75.4508	81.8715	130.4235	171.7748	216.9513	240.8707	312.6175	365.4529	400.5135	480.7108	483.169	644.867	713.8589	774.2813	839.1992	910.1367	926.1408	983.4711	1099.7703	1124.683	1157.9416	1161.448	1165.8719	1178.7465	1248.8873	1321.7003	1353.5296	1393.0269	1413.3387	1447.6018	1485.5196	1494.6687	1497.5189	1500.38	1568.66	1819.6546	1839.9625	2893.2336	3028.8147	3031.2202	3054.4877	3080.4055	3131.6687	3142.3015	3155.7906	3657.9493
CNC(=O)OC(C)C=O	CNC(=O)O[C@@H](C)C=O	
InChI=1S/C5H9NO3/c1-4(3-7)9-5(8)6-2/h3-4H,1-2H3,(H,6,8)	InChI=1S/C5H9NO3/c1-4(3-7)9-5(8)6-2/h3-4H,1-2H3,(H,6,8)/t4-/m0/s1
