16
gdb 26631	3.38581	1.2617	0.92568	1.4924	82.46	-0.1942	-0.0027	0.1915	1218.4296	0.123123	-400.750533	-400.74142	-400.740476	-400.784314	33.425	
C	 0.0970765991	 1.5031511619	 0.014173584	-0.502081
C	-0.0398422217	 0.0254611361	-0.0259841644	 0.335403
C	-1.1063353492	-0.8187565582	 0.0664597075	-0.009381
N	-2.4537278419	-0.5106938161	 0.2845219248	-0.626907
C	-0.5744171845	-2.1634790418	-0.0334068003	 0.129453
C	 0.7770411578	-2.013959306	-0.1799390571	-0.149128
O	 1.1145775339	-0.712557372	-0.1845124436	-0.180603
C	-1.3327065035	-3.3527635966	 0.0072192153	 0.207584
C	-2.0323961098	-4.3339682655	 0.0391251653	-0.43505
H	 0.8764516189	 1.8102346394	 0.7204774878	 0.140703
H	 0.3530208753	 1.9321796461	-0.9630907608	 0.132524
H	-0.8443712899	 1.9513156083	 0.3438861151	 0.132221
H	-2.7768851588	 0.2917137332	-0.23923037	 0.244561
H	-3.0528512783	-1.3048882829	 0.0964012711	 0.249746
H	 1.5782508521	-2.7251582041	-0.2915635423	 0.142591
H	-2.6280189994	-5.2120467618	 0.0742634475	 0.188365
87.6012	109.7194	127.7381	182.1826	248.428	252.4948	310.9116	387.518	486.6444	514.1048	541.5186	561.7267	606.5136	666.5656	680.8702	709.4635	741.1615	754.3573	774.8648	934.2698	996.8783	1061.8138	1186.5817	1204.4739	1211.7386	1266.397	1309.7198	1409.7137	1449.5058	1473.7796	1492.0515	1579.7962	1651.2132	1694.4635	2227.0293	3018.215	3071.1853	3113.9766	3280.7233	3502.7229	3536.8372	3627.1968
CC1=C(N)C(=CO1)C#C	Cc1c(N)c(co1)C#C	
InChI=1S/C7H7NO/c1-3-6-4-9-5(2)7(6)8/h1,4H,8H2,2H3	InChI=1S/C7H7NO/c1-3-6-4-9-5(2)7(6)8/h1,4H,8H2,2H3
