19
gdb 54095	2.85612	1.50902	1.23169	2.9925	75.64	-0.2396	-0.0166	0.223	1075.9983	0.157421	-422.986737	-422.977908	-422.976964	-423.020494	33.388	
C	-1.2437869924	 0.8257504175	 0.3798437611	-0.473362
C	 0.0289132719	 0.0614009247	 0.0759299713	 0.333173
O	 0.9773805051	 0.0634010285	 0.8266393817	-0.305004
C	 0.0525001705	-0.7049827984	-1.2530787256	 0.380056
O	-0.4252776433	 0.2245902179	-2.1980928864	-0.501609
C	 1.2858383252	-1.6089740846	-1.580246196	-0.091272
C	 0.7709758526	-2.5979366206	-0.4903985768	-0.2263
C	-0.4994904484	-2.182172646	-1.2861128699	-0.121506
C	 0.3632353865	-2.3876021797	-2.5704162116	-0.266998
H	-1.342063346	 1.6607535657	-0.3196825652	 0.161383
H	-2.1245753523	 0.1914757571	 0.2347032044	 0.131516
H	-1.2075405246	 1.1980396264	 1.404284928	 0.133377
H	-0.5575486096	-0.2150596492	-3.0429597717	 0.285354
H	 2.3111431043	-1.2796599131	-1.7443833225	 0.084844
H	 1.0759685502	-3.6370350848	-0.6295183368	 0.093879
H	 0.8554643276	-2.2888484924	 0.5481811121	 0.126011
H	-1.5293151156	-2.5034773863	-1.1200068388	 0.076192
H	 0.0585367648	-1.9004185293	-3.5017233467	 0.076643
H	 0.6542833535	-3.4195188734	-2.7799814604	 0.103623
52.4102	117.9293	137.7509	181.1243	230.1222	326.4993	370.5931	400.5924	467.6173	552.4541	586.4617	614.9254	660.6659	783.1397	798.3751	888.2351	893.8741	907.6842	922.3897	988.8518	1000.5854	1027.7739	1029.8307	1069.5427	1083.221	1088.054	1111.1869	1174.9673	1176.9682	1187.8091	1193.9202	1234.102	1241.5523	1261.908	1368.7307	1383.0193	1460.604	1468.289	1516.1928	1551.7017	1809.3321	3043.2592	3047.2379	3081.5874	3098.8769	3106.3594	3114.039	3126.8045	3155.4247	3175.648	3829.6442
CC(=O)C1(O)C2CC1C2	CC(=O)[C@@]1(O)[C@H]2C[C@@H]1C2	
InChI=1S/C7H10O2/c1-4(8)7(9)5-2-6(7)3-5/h5-6,9H,2-3H2,1H3	InChI=1S/C7H10O2/c1-4(8)7(9)5-2-6(7)3-5/h5-6,9H,2-3H2,1H3/t5-,6+,7-
