16
gdb 75068	1.96862	1.82357	1.03374	5.2308	75.63	-0.2651	-0.0431	0.2221	1134.2794	0.123434	-400.798723	-400.790233	-400.789289	-400.832538	30.789	
C	 0.0043768092	 1.4952903099	 0.0413349216	-0.495759
C	 0.0058117893	 0.0026028325	-0.015240801	 0.324485
C	-0.0613391598	-0.7766532661	-1.0978497764	-0.174412
C	-0.0335044106	-2.2479909915	-0.8022730831	-0.374945
C	 0.0835863067	-2.3063669528	 0.7225916303	 0.400555
O	 0.154610503	-3.2832789778	 1.4084357086	-0.277083
C	 0.0746154619	-0.8328359745	 1.2557778229	-0.35658
C	 1.2319710334	-0.5409561931	 2.0966097903	 0.290742
N	 2.1582485551	-0.2885327628	 2.7402329581	-0.324846
H	 0.9035248035	 1.8693267377	 0.5446748162	 0.156303
H	-0.0369574149	 1.9283006746	-0.9611507121	 0.132897
H	-0.8544858048	 1.8694212981	 0.6127739092	 0.134399
H	-0.1345291681	-0.391380032	-2.1088559689	 0.109584
H	-0.9370332575	-2.7836085035	-1.1218970583	 0.147509
H	 0.811538085	-2.7793215906	-1.2588685521	 0.153052
H	-0.8263592512	-0.7081841282	 1.8743861846	 0.154099
38.8729	127.6657	169.0298	193.9217	244.476	288.0956	422.7803	423.8471	480.8331	505.2802	589.4054	608.2344	684.7318	776.8833	817.8734	892.7216	962.3209	970.7791	1009.9285	1039.7446	1070.2008	1113.924	1141.9053	1181.7296	1227.6619	1277.9373	1298.748	1331.202	1419.4628	1445.5386	1477.519	1488.3204	1721.8016	1872.4205	2356.2091	3009.0738	3024.9097	3027.8225	3055.0245	3077.1297	3120.5806	3194.8567
CC1=CCC(=O)C1C#N	CC1=CCC(=O)[C@H]1C#N	
InChI=1S/C7H7NO/c1-5-2-3-7(9)6(5)4-8/h2,6H,3H2,1H3	InChI=1S/C7H7NO/c1-5-2-3-7(9)6(5)4-8/h2,6H,3H2,1H3/t6-/m0/s1
