18
gdb 10075	3.48399	1.16619	0.93256	1.9897	69.66	-0.2536	0.0461	0.2997	1221.7938	0.151951	-384.897962	-384.888693	-384.887749	-384.931963	33.733	
O	 0.1073064077	 1.4547546221	-0.194975389	-0.420965
C	 0.0261639568	 0.0340070771	-0.0372215301	-0.076428
C	-1.4143522822	-0.4958859266	-0.0364806177	-0.040997
C	-2.1537961389	-0.1310230241	-1.3355277873	-0.053868
O	-2.3599288914	 1.2559694369	-1.4896481683	-0.436774
C	-1.4260403517	-2.0295654449	 0.1703558909	-0.372516
C	-0.8642180249	-2.4583214088	 1.445895573	 0.295796
C	-0.404928571	-2.7929515103	 2.5054265537	-0.437572
H	-0.2325544175	 1.8594685717	 0.6105535081	 0.29212
H	 0.5712812521	-0.3812965438	-0.8933136929	 0.115404
H	 0.5490310433	-0.2835572791	 0.8732997202	 0.116993
H	-1.9568276429	-0.0323528737	 0.798819898	 0.086362
H	-1.5987307232	-0.558068914	-2.1913988308	 0.079019
H	-3.1466864136	-0.5965081106	-1.33713208	 0.100867
H	-1.4994664764	 1.6729306293	-1.3407888704	 0.284911
H	-2.4599968594	-2.3884090012	 0.0937954965	 0.137052
H	-0.8780300505	-2.5120403932	-0.6509167474	 0.13312
H	-0.0008962263	-3.1022027669	 3.4374372133	 0.197478
67.9245	108.5795	131.1885	181.1582	248.4781	284.6279	321.7821	344.0807	383.9467	421.3939	429.0135	595.6531	620.2018	630.9173	642.4466	832.972	897.4478	910.0484	959.0626	1040.1735	1056.0304	1087.8935	1101.1214	1114.4879	1176.954	1216.417	1271.5248	1291.4501	1342.1144	1365.9758	1392.7107	1401.9298	1423.9097	1471.2723	1474.5357	1500.8057	1513.848	2236.5524	2933.0123	3011.5224	3021.1048	3026.4321	3045.4756	3053.7484	3074.4927	3505.3396	3725.9099	3810.9727
OCC(CO)CC#C	OCC(CO)CC#C	
InChI=1S/C6H10O2/c1-2-3-6(4-7)5-8/h1,6-8H,3-5H2	InChI=1S/C6H10O2/c1-2-3-6(4-7)5-8/h1,6-8H,3-5H2
