23
gdb 100154	2.53624	0.86069	0.76305	3.0777	83.	-0.2536	-0.0243	0.2293	1618.3044	0.200602	-425.43635	-425.424818	-425.423873	-425.474241	40.716	
C	 0.153668491	 1.5895541506	 0.0424836785	-0.394943
C	 0.0378593812	 0.0663453766	-0.0617807895	-0.179954
C	 0.6503672927	-0.5570309994	-1.3321844554	 0.374092
C	 0.4934586126	-2.0842832616	-1.2735259529	-0.422611
C	 0.001429783	 0.0023741827	-2.6079146018	-0.42786
O	 2.0433600717	-0.1950154854	-1.2558581232	-0.292493
C	 2.894460874	-0.5611955532	-2.3090571761	-0.160109
C	 4.2962920864	-0.0987710101	-1.9440046208	 0.144355
O	 5.2557848678	-0.2543049673	-2.6511966974	-0.24123
H	 1.195120648	 1.9044380014	-0.0573235929	 0.129848
H	-0.4316191036	 2.0999123324	-0.7286472706	 0.113205
H	-0.2154729174	 1.9338138121	 1.0132969966	 0.111331
H	 0.5395455892	-0.3926301767	 0.7980946887	 0.10094
H	-1.014969761	-0.2350100732	-0.0084474545	 0.092454
H	-0.5653138337	-2.3545497903	-1.2166321895	 0.118452
H	 0.905891816	-2.5735871888	-2.1610877767	 0.114296
H	 0.9990685955	-2.4860442615	-0.3905381669	 0.121533
H	 0.2207012929	 1.0662757126	-2.7281203208	 0.126569
H	 0.3481292109	-0.5222420925	-3.5031833025	 0.116245
H	-1.084951065	-0.1199628901	-2.5600643867	 0.119238
H	 2.9309413216	-1.6485487182	-2.4794076303	 0.121012
H	 2.6210929386	-0.0940821181	-3.2677299244	 0.122342
H	 4.354342998	 0.401435018	-0.952032101	 0.093287
35.1296	51.0392	97.6282	99.8948	132.6956	213.1515	240.1826	243.1194	273.8185	308.9725	328.2191	365.7585	422.4657	475.6547	502.9526	570.8498	739.3367	743.1182	784.4045	872.7207	919.374	937.4489	996.6783	1011.617	1052.4545	1069.8882	1079.1014	1115.3502	1141.245	1207.0813	1216.134	1242.5279	1262.6989	1326.1575	1353.5074	1376.4206	1396.3944	1402.3706	1407.97	1418.0032	1472.5351	1480.5156	1483.0107	1493.5076	1498.5551	1503.9941	1509.4493	1517.1754	1843.8701	2897.2967	2982.5304	3013.3201	3031.0244	3039.707	3043.9723	3047.0249	3068.6044	3105.1113	3106.3239	3111.7137	3116.9505	3125.55	3128.7134
CCC(C)(C)OCC=O	CCC(C)(C)OCC=O	
InChI=1S/C7H14O2/c1-4-7(2,3)9-6-5-8/h5H,4,6H2,1-3H3	InChI=1S/C7H14O2/c1-4-7(2,3)9-6-5-8/h5H,4,6H2,1-3H3
