15
gdb 21097	3.55799	2.02489	1.31175	4.331	64.28	-0.2222	0.0179	0.2402	906.1152	0.11829	-395.984337	-395.975915	-395.974971	-396.018124	28.67	
C	-0.0038980521	 1.4348666246	-0.0355330465	-0.330209
N	-0.0247906824	-0.0087568801	 0.0447135569	 0.014759
N	-0.2118140661	-0.7774760031	-1.0629080173	-0.170781
N	-0.1816464644	-2.0192364445	-0.6790409394	-0.242746
C	 0.0226544883	-2.0934343986	 0.6682190157	 0.194652
C	 0.1066012456	-3.3862854148	 1.4114088413	-0.52212
C	 0.1228945301	-0.7970288056	 1.1290031083	 0.299715
O	 0.3210840515	-0.2325431528	 2.3403821211	-0.428343
H	 0.9577531151	 1.8279600972	 0.3058708655	 0.148245
H	-0.1578919002	 1.6968751273	-1.0820976134	 0.167527
H	-0.8010510925	 1.8683617655	 0.5747794889	 0.148245
H	 1.0754646662	-3.5223581391	 1.9077905982	 0.123402
H	-0.6744800306	-3.4818741842	 2.1758573484	 0.123384
H	-0.0209163022	-4.2076587679	 0.7030080541	 0.158412
H	 0.4054334538	-0.9315249038	 2.9970378882	 0.315859
35.0645	82.1173	143.4776	240.1546	242.6162	262.2398	293.7901	333.9449	511.8142	590.9582	686.3496	720.8842	743.2881	798.8088	990.3985	1023.8953	1061.2217	1066.925	1154.4448	1232.3958	1270.1026	1292.8611	1336.1505	1376.8979	1420.9346	1443.7656	1481.6273	1487.4078	1493.9625	1506.6931	1589.2504	1637.7989	3017.7436	3049.8591	3063.0276	3113.8084	3128.9169	3164.5474	3833.2636
CN1N=NC(C)=C1O	Cn1nnc(C)c1O	
InChI=1S/C4H7N3O/c1-3-4(8)7(2)6-5-3/h8H,1-2H3	InChI=1S/C4H7N3O/c1-3-4(8)7(2)6-5-3/h8H,1-2H3
