17
gdb 15799	5.51881	1.02369	0.98088	1.3764	65.26	-0.2475	-0.0293	0.2182	1189.7193	0.14073	-400.972253	-400.963599	-400.962655	-401.006357	30.404	
O	-0.927894815	 0.760074503	 0.1669155244	-0.428011
C	-0.201847048	-0.4433313633	-0.0588882027	 0.076032
C	 0.8299465408	-0.2710606634	-1.1840619409	-0.309188
C	 0.1774881833	 0.2311237974	-2.454571606	 0.165251
O	 0.4955489893	 1.2371355313	-3.0326618852	-0.237376
C	 0.435309597	-0.9785919659	 1.2161636882	 0.019917
C	 0.984626342	-0.0600152346	 2.2418490283	-0.244357
N	-0.2595317987	-0.8114190937	 2.4943266153	-0.324847
H	-0.3123643988	 1.5010529258	 0.138727313	 0.295004
H	-0.9634659256	-1.1651122234	-0.384636482	 0.104047
H	 1.6200194661	 0.4279901606	-0.88826418	 0.120693
H	 1.2966913373	-1.2436612033	-1.3915351033	 0.12869
H	-0.6514652143	-0.4122257994	-2.8299043535	 0.07945
H	 0.9035404464	-1.9537521303	 1.0894541594	 0.092752
H	 1.8390670572	-0.3604831976	 2.8409369357	 0.122409
H	 0.9078737475	 1.0109922493	 2.072148183	 0.098558
H	-1.0446385163	-0.1798981126	 2.3387274964	 0.240974
50.5369	81.2268	101.5331	170.4207	269.5028	286.278	322.0585	364.314	453.0943	555.3638	617.4967	778.7568	808.7212	866.789	914.4039	966.7477	972.2598	992.7398	1039.5914	1074.9494	1093.8639	1126.2303	1157.9458	1183.4142	1201.7968	1266.7951	1287.7903	1305.8915	1324.6887	1362.4307	1406.4373	1424.7653	1429.4346	1461.7228	1509.1757	1837.7351	2869.4273	3019.118	3025.6222	3087.1019	3109.0124	3118.3105	3193.079	3478.9763	3805.5796
OC(CC=O)C1CN1	O[C@@H](CC=O)[C@H]1CN1	
InChI=1S/C5H9NO2/c7-2-1-5(8)4-3-6-4/h2,4-6,8H,1,3H2	InChI=1S/C5H9NO2/c7-2-1-5(8)4-3-6-4/h2,4-6,8H,1,3H2/t4-,5+/m1/s1
