16
gdb 54366	3.89872	1.43151	1.2298	2.7394	72.58	-0.227	-0.0248	0.2022	1015.7654	0.122697	-400.642927	-400.635296	-400.634352	-400.675596	28.608	
C	-0.1069066403	 1.4544749422	-0.224627309	-0.50423
C	 0.0253964888	-0.0206614133	 0.0955421251	 0.222945
O	 1.0772267065	-0.5491635234	 0.391121999	-0.30925
C	-1.2118540704	-0.8222683056	 0.0248609883	 0.321295
C	-1.550814078	-2.2680444922	 0.4396541985	-0.180327
C	-2.7428597615	-2.2533079291	-0.5279882778	-0.111693
C	-2.8962181261	-1.7630764903	 0.8886144237	-0.002228
N	-2.5771925606	-0.3180272493	 0.4889924732	-0.216838
C	-2.3933247044	-0.7954237809	-0.9083131514	-0.106441
H	 0.8158933846	 1.9679178415	 0.0474585159	 0.143186
H	-0.2854133726	 1.5887626507	-1.2981684492	 0.139961
H	-0.9619106197	 1.8859163746	 0.3041887735	 0.159897
H	-0.9448389204	-3.0932954354	 0.7802728442	 0.11788
H	-3.2105617515	-3.0694997757	-1.0579144476	 0.10758
H	-3.5543047021	-2.0418998393	 1.7006654617	 0.111611
H	-2.5891532023	-0.1694987945	-1.7712413381	 0.106652
69.2404	107.944	154.5333	166.2009	342.4749	467.4791	557.4609	604.7766	670.8986	751.8811	758.3708	780.4271	816.4825	847.2536	863.1073	898.3541	925.3072	957.1658	988.631	1000.9152	1007.8948	1033.5518	1044.5079	1048.7517	1112.473	1159.013	1199.7356	1243.1166	1278.4433	1340.1999	1369.9128	1409.2871	1468.365	1471.5332	1781.7511	3038.7738	3105.7319	3155.95	3180.0829	3203.6286	3230.2491	3245.861
CC(=O)C12C3C4C3N1C24	CC(=O)[C@@]12[C@@H]3[C@H]4[C@@H]3N1[C@@H]24	
InChI=1S/C7H7NO/c1-2(9)7-4-3-5(4)8(7)6(3)7/h3-6H,1H3	InChI=1S/C7H7NO/c1-2(9)7-4-3-5(4)8(7)6(3)7/h3-6H,1H3/t3-,4+,5-,6+,7-,8?/m0/s1
