18
gdb 12147	5.70819	1.2927	1.27794	1.7668	72.55	-0.2579	0.0708	0.3287	1016.4587	0.153314	-347.755556	-347.748241	-347.747297	-347.787275	28.657	
C	 0.3951069654	 1.5124699113	 0.0064356141	-0.326931
C	 1.3235408673	 0.3166196924	-0.0090502959	-0.314853
C	-0.1641809498	 0.1241239622	 0.0043358527	 0.377861
C	-0.9703843226	-0.5784758134	 1.113522169	-0.389594
C	-1.5838478948	-1.4501995943	 0.00959628	 0.465596
C	-1.8326295212	-2.8914865715	 0.0042044362	-0.262497
O	-2.9095624195	-1.9411547088	 0.0198069815	-0.27092
C	-0.9918434766	-0.5665080929	-1.0965281722	-0.389596
H	 0.3236851068	 2.0919514137	 0.9216194131	 0.112695
H	 0.306015855	 2.1018164277	-0.9008656328	 0.112695
H	 1.8608073033	 0.0995101262	-0.9271039572	 0.111548
H	 1.8784810196	 0.0896201786	 0.8960061443	 0.111548
H	-0.4031542153	-1.0945007553	 1.8933554852	 0.104054
H	-1.7185920312	 0.0680824415	 1.5839511788	 0.113764
H	-1.7246683616	-3.4581503745	-0.9202651421	 0.113406
H	-1.7068018105	-3.4681198352	 0.9202115133	 0.113406
H	-1.7489771178	 0.0850292068	-1.545308611	 0.113764
H	-0.4399195266	-1.0739967445	-1.892773797	 0.104054
50.1752	236.2767	256.8476	312.2142	331.9646	399.7377	409.9959	448.3314	658.8107	774.8695	816.2307	827.5724	859.8314	878.3014	883.0205	902.5333	949.449	963.0972	1000.4433	1052.1798	1076.712	1078.2358	1121.9739	1126.1537	1157.1249	1166.1949	1186.5184	1192.0578	1219.5666	1244.7961	1262.5281	1379.6622	1434.19	1464.1834	1465.97	1488.7731	1505.355	1539.1251	3042.4479	3047.3771	3075.9908	3097.1703	3097.3637	3119.6668	3123.8858	3162.2142	3197.4198	3212.4252
C1CC11CC2(CO2)C1	C1CC21CC1(CO1)C2	
InChI=1S/C7H10O/c1-2-6(1)3-7(4-6)5-8-7/h1-5H2	InChI=1S/C7H10O/c1-2-6(1)3-7(4-6)5-8-7/h1-5H2
