14
gdb 46025	3.23626	1.31243	0.97544	6.6205	69.66	-0.2621	-0.078	0.1841	1128.1429	0.102155	-432.899215	-432.891311	-432.890367	-432.932187	28.657	
N	-0.049022273	 1.3435901492	-0.0785403757	-0.506033
C	 0.0366459029	 0.0757631111	-0.0399023751	 0.284741
N	 1.0938105946	-0.7866679244	-0.2426966084	-0.346118
C	 0.8446878205	-2.1640272921	 0.1690455805	-0.191518
C	-0.6947970823	-2.271179355	 0.0679399282	-0.269798
C	-1.2998737793	-3.214805277	 0.9910692552	 0.295545
N	-1.7614565161	-3.9710981016	 1.7320521927	-0.30824
C	-1.1741744845	-0.8017841512	 0.2441615532	 0.373541
O	-2.2737575478	-0.4445779946	 0.5369334618	-0.256587
H	 0.8545025337	 1.7842743319	-0.2651378226	 0.216071
H	 2.03813441	-0.4345783869	-0.2619753662	 0.255844
H	 1.3497470945	-2.8706369584	-0.4938329159	 0.139832
H	 1.1716558595	-2.3623092895	 1.1978547066	 0.141928
H	-0.9720185526	-2.5483574915	-0.9576527042	 0.170792
61.5234	137.2048	153.3631	228.6236	330.4944	383.5308	435.2693	457.3069	496.2862	560.7572	607.3441	674.9125	712.9658	818.9758	867.5477	932.0958	1006.0273	1044.0101	1068.6231	1078.5999	1142.957	1190.0826	1249.2181	1274.4859	1341.6057	1379.8315	1440.0729	1533.7185	1743.2639	1883.6325	2369.0319	3022.6311	3038.3231	3094.6999	3450.9512	3630.8657
N=C1NCC(C#N)C1=O	[NH][C]1NC[C@@H](C#N)C1=O	
InChI=1S/C5H5N3O/c6-1-3-2-8-5(7)4(3)9/h3H,2H2,(H2,7,8)	InChI=1S/C5H5N3O/c6-1-3-2-8-5(7)4(3)9/h3H,2H2,(H2,7,8)/t3-/m1/s1
