17
gdb 68711	2.43568	1.63813	1.34482	2.0739	79.3	-0.239	0.0333	0.2723	1023.5034	0.133901	-384.602978	-384.594775	-384.59383	-384.635387	31.969	
C	-0.0252026965	 1.5209396449	 0.098185929	-0.490131
C	-0.0246691718	 0.0237732347	 0.0081901252	 0.250211
C	 1.1659489265	-0.8114264201	-0.3674878883	-0.375636
C	 0.5926387558	-0.9905444989	 1.0320823319	 0.139479
C	 1.3244470989	-0.7055139242	 2.2176374801	 0.216519
C	 1.9397944647	-0.468582728	 3.2247661018	-0.435419
C	-0.6855684193	-1.8058780739	 0.9310158333	-0.069873
O	-1.805764915	-0.9834820074	 1.2785133193	-0.23848
C	-1.2586201245	-0.8603999752	-0.0406296912	-0.042467
H	 0.9388420313	 1.8905953203	 0.4603332684	 0.130891
H	-0.214276621	 1.9776941297	-0.8801188964	 0.123115
H	-0.8001605406	 1.8611892428	 0.7915770156	 0.140114
H	 1.0737459516	-1.6230788575	-1.0844392936	 0.114196
H	 2.1166047607	-0.2884313526	-0.4065931814	 0.13115
H	 2.476746811	-0.2620372566	 4.116941388	 0.188157
H	-0.8079660481	-2.8784424208	 1.0223333815	 0.109924
H	-1.9252305338	-1.0461007672	-0.8747386731	 0.108252
115.9206	133.1177	195.2928	212.2805	288.5371	359.0694	419.3195	506.0056	550.048	559.5801	574.6775	637.9488	650.5367	691.4788	794.9531	796.8607	862.2594	870.9334	927.5559	963.0459	974.9249	994.7653	1055.7706	1086.1745	1106.5499	1116.894	1203.7694	1225.9549	1270.2195	1329.7438	1358.8131	1372.3763	1418.5213	1484.7737	1492.4645	1496.5931	2232.3912	3031.1742	3095.6485	3113.0505	3115.2642	3183.6239	3198.6486	3204.8374	3503.5279
CC12CC1(C#C)C1OC21	C[C@@]12C[C@]1(C#C)[C@H]1O[C@@H]21	
InChI=1S/C8H8O/c1-3-8-4-7(8,2)5-6(8)9-5/h1,5-6H,4H2,2H3	InChI=1S/C8H8O/c1-3-8-4-7(8,2)5-6(8)9-5/h1,5-6H,4H2,2H3/t5-,6+,7+,8-/m1/s1
