16
gdb 43111	2.64165	2.12768	1.63853	3.496	67.41	-0.2437	-0.0133	0.2303	852.5238	0.126832	-437.870718	-437.864276	-437.863332	-437.901607	25.506	
O	 0.0059028121	-0.0157345311	 0.2514441683	-0.314464
C	-0.0355043332	 1.1624306457	 0.0650526076	 0.402038
C	-1.1580671437	 2.2332939836	 0.0111705505	-0.218135
C	-1.7506745915	 2.4592717957	 1.4042166336	-0.084573
O	-0.6739737336	 2.9305543728	 2.2209477266	-0.273046
C	 0.3416149066	 3.5375364435	 1.4317693223	 0.087911
C	 1.5724657628	 2.6005543267	 1.2594658353	-0.203174
N	 1.0205711794	 2.1241029395	-0.0633884383	-0.165894
C	 0.0041126261	 3.24157368	-0.0518963919	-0.019546
H	-1.8938847669	 2.1829107279	-0.7918126706	 0.107811
H	-2.5616022037	 3.20146257	 1.36312287	 0.104169
H	-2.1368420199	 1.5404590918	 1.8543441977	 0.13667
H	 0.5173980819	 4.5653461187	 1.7612283001	 0.088511
H	 2.5139292796	 3.1316716804	 1.1008605882	 0.121661
H	 1.6955359289	 1.8183844464	 2.0109408259	 0.139878
H	 0.0716192151	 4.0096492284	-0.8190045652	 0.090182
119.1153	190.8821	241.9123	380.9374	478.0939	584.6806	618.7083	700.6736	724.5455	815.8621	830.5945	858.547	905.2106	918.9852	920.9403	958.769	990.8652	1016.7403	1027.2509	1050.5101	1091.1906	1114.0642	1186.8911	1192.8306	1217.4039	1223.8531	1248.4584	1260.1376	1262.3564	1299.3571	1330.3135	1388.7674	1483.2265	1516.7744	1897.2897	2995.8805	3064.5481	3073.8788	3092.8323	3117.7049	3137.3712	3143.7158
O=C1C2COC3CN1C23	O=C1[C@H]2CO[C@H]3CN1[C@@H]23	
InChI=1S/C6H7NO2/c8-6-3-2-9-4-1-7(6)5(3)4/h3-5H,1-2H2	InChI=1S/C6H7NO2/c8-6-3-2-9-4-1-7(6)5(3)4/h3-5H,1-2H2/t3-,4-,5-/m0/s1
