19
gdb 72742	2.51542	1.80117	1.54698	0.8706	74.55	-0.2279	0.056	0.2839	969.2074	0.158954	-422.973952	-422.966172	-422.965228	-423.005858	30.821	
C	-0.0248189863	 1.5709189186	 0.0009581541	-0.476658
C	 0.0295300716	 0.0728654914	 0.0988146481	 0.378499
C	 0.9048624652	-0.7328159019	-0.922924412	-0.285886
C	 1.8069058774	-1.2568017241	 0.2522584789	-0.340841
C	 0.7277924771	-0.7718823514	 1.2012451388	 0.390549
O	 0.8260500344	-0.3818266991	 2.5604248658	-0.338517
C	-0.5482590969	-0.8134022165	 2.8030298596	-0.117382
C	-0.6651606265	-1.3926400515	 1.3726371359	-0.005602
O	-1.2650502867	-0.5380753311	 0.3820007696	-0.347851
H	 0.9738106194	 1.9861341308	-0.1674834312	 0.121543
H	-0.6653549862	 1.8748964535	-0.8347084391	 0.129743
H	-0.430681886	 2.0036795359	 0.9196604835	 0.129302
H	 0.3311194461	-1.5141280548	-1.4236612282	 0.11749
H	 1.4214936879	-0.1295157142	-1.6715108539	 0.10824
H	 2.0676234018	-2.3177954043	 0.2727025362	 0.105541
H	 2.7230726049	-0.6660293574	 0.3477002755	 0.11859
H	-0.5887379522	-1.5437640578	 3.6184765748	 0.109954
H	-1.2210207168	 0.024939537	 3.0095074712	 0.115441
H	-0.9372884982	-2.4444615128	 1.2633708224	 0.087845
132.3682	175.1113	188.6456	230.5836	330.5032	352.0787	414.8275	480.6347	552.0042	614.5962	683.4174	759.567	818.9199	836.3073	862.2362	870.767	901.8267	929.7466	971.1872	974.2438	1014.6711	1066.6419	1103.4265	1121.5872	1155.1598	1160.7678	1179.3578	1192.8648	1198.4123	1232.077	1261.3215	1297.5362	1329.2011	1332.7956	1361.4831	1410.3414	1469.4008	1478.587	1486.7283	1490.8781	1502.7563	3032.9187	3033.6477	3056.3642	3077.491	3086.6626	3096.8085	3101.1217	3106.3281	3116.2193	3139.6829
CC12CCC11OCC1O2	C[C@@]12CC[C@]31OC[C@H]3O2	
InChI=1S/C7H10O2/c1-6-2-3-7(6)5(9-6)4-8-7/h5H,2-4H2,1H3	InChI=1S/C7H10O2/c1-6-2-3-7(6)5(9-6)4-8-7/h5H,2-4H2,1H3/t5-,6-,7+/m1/s1
