18
gdb 124800	2.54326	1.36935	1.01439	1.5217	73.38	-0.2534	-0.0054	0.248	1201.1082	0.147868	-435.281076	-435.271759	-435.270815	-435.315835	33.331	
C	 0.0291865799	 1.4843834982	-0.1618281363	-0.389958
C	 0.0315545301	-0.009963706	 0.1982615861	 0.026318
O	 0.5793927292	-0.2171338581	 1.4886256993	-0.433409
C	-1.346808515	-0.605951194	 0.0881307742	 0.249886
N	-2.1046882564	-0.7517523874	 1.1748765352	-0.300831
N	-3.2305604377	-1.2673100863	 0.7009842303	-0.081918
N	-3.2739856631	-1.4773091157	-0.6070155866	-0.257891
C	-2.0788849812	-1.0587648113	-1.033417833	 0.237695
C	-1.6890376582	-1.114219503	-2.4742187723	-0.508324
H	 1.0410565276	 1.8857729434	-0.0615838718	 0.12587
H	-0.3128984707	 1.6474624278	-1.1894991274	 0.111892
H	-0.6343331566	 2.033962311	 0.5132200882	 0.120602
H	 0.6927280636	-0.5340116752	-0.5051479627	 0.089742
H	-0.1572300205	-0.2190697554	 2.1116714118	 0.295018
H	-3.9987690274	-1.5123362073	 1.3037147996	 0.292395
H	-1.5858108437	-0.1117025286	-2.9040780336	 0.137971
H	-0.7290673813	-1.6244894278	-2.6066517892	 0.137161
H	-2.4483169786	-1.6521429544	-3.0450865718	 0.147783
38.2458	93.6991	152.6707	175.1706	250.81	261.1547	281.5689	311.2581	372.1894	459.5549	486.9367	521.5662	642.9052	716.2937	745.6886	764.6431	910.8064	988.3487	1026.4387	1034.8287	1067.962	1097.2051	1111.2689	1170.0706	1197.7744	1253.6787	1294.0709	1356.8046	1375.6823	1398.4403	1414.5476	1429.8366	1458.7129	1482.7911	1485.0105	1488.9151	1491.3855	1529.7855	1564.0652	3015.1795	3035.1183	3037.3132	3088.8373	3108.3663	3123.5214	3136.0237	3673.1757	3786.2671
CC(O)C1=NNN=C1C	C[C@@H](O)c1n[nH]nc1C	
InChI=1S/C5H9N3O/c1-3-5(4(2)9)7-8-6-3/h4,9H,1-2H3,(H,6,7,8)	InChI=1S/C5H9N3O/c1-3-5(4(2)9)7-8-6-3/h4,9H,1-2H3,(H,6,7,8)/t4-/m1/s1
