20
gdb 64130	2.8277	1.2802	1.13083	4.1274	78.41	-0.2726	0.023	0.2956	1175.549	0.17036	-403.182937	-403.173764	-403.17282	-403.217003	34.597	
C	-0.0213313269	 1.5046222839	 0.1090393422	-0.411706
C	-0.0199182367	-0.0179684496	-0.0456076511	 0.389993
C	-1.4372501056	-0.5865689323	 0.0188389125	-0.425124
C	 0.7554710741	-0.4841819526	-1.3026757173	-0.274065
C	 2.1580770175	-0.8044164938	-0.7707220474	-0.24043
C	 1.8294242223	-1.3243553615	 0.6405599842	-0.031699
O	 0.7353896006	-0.5508743003	 1.0851261964	-0.290093
C	 1.4924855807	-2.7688416184	 0.6236520477	 0.273897
N	 1.2269356366	-3.8935746054	 0.6027815074	-0.331052
H	 0.990746021	 1.9103303398	 0.0163490765	 0.112358
H	-0.6522386926	 1.9714580033	-0.6540114318	 0.116169
H	-0.4084509525	 1.7812453329	 1.0935804821	 0.128958
H	-2.0328838336	-0.2317183196	-0.8288755977	 0.115004
H	-1.4147599138	-1.67942318	-0.0076745607	 0.134977
H	-1.9348617862	-0.2753575745	 0.9417936455	 0.124889
H	 0.2970200274	-1.386761838	-1.718025278	 0.12206
H	 0.7632570799	 0.2777014599	-2.0850134242	 0.112056
H	 2.7070860021	-1.5261691642	-1.3777809273	 0.127971
H	 2.7645448135	 0.1005654749	-0.6737787865	 0.117983
H	 2.6556349121	-1.1860396847	 1.3457592576	 0.127854
42.9737	112.4729	189.622	224.4433	255.2943	267.7745	331.199	342.7451	388.8368	442.9674	480.5391	554.3316	615.1874	705.3662	760.8969	827.4668	850.568	905.8335	931.9338	955.6603	963.2149	995.3231	1018.9748	1049.8416	1085.4897	1138.6245	1160.0268	1221.2594	1247.9864	1275.0288	1299.4948	1333.1794	1349.1316	1368.3329	1401.7606	1418.4626	1474.9627	1481.8509	1488.0355	1496.1567	1498.8294	1506.6002	2350.0089	3036.0335	3040.8057	3057.3668	3062.1439	3069.8241	3108.0705	3111.5823	3112.3054	3120.398	3122.7234	3129.4347
CC1(C)CCC(O1)C#N	CC1(C)CC[C@@H](O1)C#N	
InChI=1S/C7H11NO/c1-7(2)4-3-6(5-8)9-7/h6H,3-4H2,1-2H3	InChI=1S/C7H11NO/c1-7(2)4-3-6(5-8)9-7/h6H,3-4H2,1-2H3/t6-/m1/s1
