14
gdb 133049	5.19331	1.03681	0.86899	2.5038	68.4	-0.24	-0.0543	0.1857	1226.0724	0.101282	-478.017874	-478.010433	-478.009488	-478.050188	27.158	
C	 0.0063035059	 1.4010693211	 0.008282127	-0.235375
O	-0.0241944235	-0.0265879319	 0.004600442	-0.262937
C	-1.2333410806	-0.6111384154	 0.0124855943	 0.427049
C	-1.2754997391	-2.0172413118	 0.0086924447	-0.092566
N	-2.4316589721	-2.6658056968	 0.0159699081	-0.275021
C	-3.5239757956	-1.9262505016	 0.0267994257	 0.303705
F	-4.6886104674	-2.5679452803	 0.0341135393	-0.069578
C	-3.5021865535	-0.5403317821	 0.0306566782	-0.151132
N	-2.3394536044	 0.1189523	 0.0233787405	-0.322434
H	 1.063112686	 1.66932686	 0.0003834367	 0.134905
H	-0.4958341034	 1.8071922436	-0.8745922464	 0.137994
H	-0.4812936447	 1.8023001405	 0.9014887357	 0.137985
H	-0.3576537088	-2.5966200137	-0.0002870609	 0.134263
H	-4.4207805791	 0.0376899985	 0.039609855	 0.133144
92.3877	147.1637	190.0747	221.0156	404.6574	407.8364	436.9956	452.2124	572.8134	596.0903	651.3752	774.0754	796.092	898.078	921.1967	946.3359	1027.5042	1060.7255	1177.7507	1199.4279	1255.2516	1293.5042	1305.2984	1359.6878	1396.789	1468.9092	1480.2927	1497.9735	1526.0012	1594.375	1633.0623	3042.1161	3112.6467	3152.8355	3180.6588	3184.3177
COC1=CN=C(F)C=N1	COc1cnc(F)cn1	
InChI=1S/C5H5FN2O/c1-9-5-3-7-4(6)2-8-5/h2-3H,1H3	InChI=1S/C5H5FN2O/c1-9-5-3-7-4(6)2-8-5/h2-3H,1H3
