21
gdb 38061	3.32155	1.41137	1.2439	0.19	87.75	-0.2226	0.0193	0.2419	1099.9607	0.184761	-349.94187	-349.934351	-349.933407	-349.973636	31.123	
C	-0.1179224762	 1.4149456745	 0.0611958069	-0.291428
C	 1.212008261	 0.7193922201	-0.1740605303	-0.088169
C	 2.0751218911	 0.5995454062	 1.0360951619	-0.086451
C	 1.4927147697	-0.147235581	 1.9785131097	-0.178578
C	 0.1717805466	-0.7214508495	 1.5356489594	 0.351089
C	-0.0047686686	-2.27857801	 1.5485994255	-0.2725
C	-1.4455476591	-2.0925808454	 2.0889966782	-0.211341
C	-1.0641490035	-0.6447258535	 2.4940430265	-0.260837
C	-0.0323266837	-0.0866577695	 0.1563298198	-0.101532
H	-0.226265928	 1.9963348024	 0.9714275716	 0.111043
H	-0.631697453	 1.8234029499	-0.8033861667	 0.105972
H	 1.6503050063	 0.7430795242	-1.1657190443	 0.083861
H	 3.0314733347	 1.1019910456	 1.1305724389	 0.093265
H	 1.8884367195	-0.3305564453	 2.9723594562	 0.086175
H	 0.1284546151	-2.7930706638	 0.5927409928	 0.095583
H	 0.6533573228	-2.7461288642	 2.2871427243	 0.095843
H	-2.1911672171	-2.1102615217	 1.2891991568	 0.10175
H	-1.7765703161	-2.7675507452	 2.8815394526	 0.094042
H	-0.7546529823	-0.5836552732	 3.5419782282	 0.0949
H	-1.7849465351	 0.152806158	 2.2958998051	 0.096657
H	-0.5343415939	-0.6681530985	-0.6092987128	 0.080655
116.0743	135.733	210.2955	332.1658	369.8329	411.7155	464.166	574.0548	667.7268	721.1275	758.1777	779.421	801.6344	803.8218	845.3132	876.6685	898.6679	940.3286	941.5612	961.5948	978.1989	987.8925	1012.1736	1042.7479	1060.5105	1073.9983	1090.567	1098.5715	1110.1722	1159.226	1198.8286	1204.385	1212.1599	1253.9758	1268.1853	1273.8912	1288.618	1322.0002	1361.3605	1389.9142	1472.6852	1476.886	1484.1597	1505.0488	1659.6518	3046.4497	3050.2697	3060.1084	3093.1456	3101.3661	3117.004	3120.529	3160.084	3168.6181	3175.2752	3201.9933	3210.0778
C1C2C=CC3(CCC3)C12	C1[C@H]2C=CC3(CCC3)[C@@H]12	
InChI=1S/C9H12/c1-3-9(4-1)5-2-7-6-8(7)9/h2,5,7-8H,1,3-4,6H2	InChI=1S/C9H12/c1-3-9(4-1)5-2-7-6-8(7)9/h2,5,7-8H,1,3-4,6H2/t7-,8+/m1/s1
