17
gdb 27620	3.01429	1.21914	0.87554	2.6927	87.44	-0.1822	0.0225	0.2047	1291.0088	0.135583	-380.884348	-380.874992	-380.874047	-380.918193	34.735	
C	-0.0008310822	 1.4929279512	 0.0824414244	-0.52058
C	-0.0110824725	 0.0065375678	-0.0175770039	 0.196391
C	-0.026624788	-0.8197172314	-1.131885807	 0.113774
C	-0.0159698828	-2.1796066043	-0.6637721828	-0.352896
C	-0.0043822859	-2.1391303559	 0.7062493903	 0.298583
N	-0.0547567758	-3.1337656135	 1.7038371622	-0.614781
N	-0.0024226464	-0.813287401	 1.083992952	-0.315633
C	-0.0345163373	-0.3873697098	-2.4775568865	 0.229452
C	-0.0409782662	-0.0261402803	-3.6282931914	-0.457336
H	 0.8982540738	 1.8674086137	 0.5882032133	 0.126173
H	-0.0230192559	 1.9201112539	-0.9222405712	 0.15304
H	-0.8695753132	 1.8782818659	 0.6313234624	 0.125566
H	-0.0018613782	-3.0640430644	-1.2808222247	 0.091969
H	-0.3742146658	-4.011514915	 1.3126712389	 0.248934
H	 0.8534083749	-3.3009720931	 2.1289151466	 0.244182
H	-0.0792362287	-0.5088980168	 2.0398318762	 0.257752
H	-0.0470888998	 0.2905759929	-4.6410186086	 0.17541
114.8334	130.2335	136.1171	141.751	201.6519	266.1252	305.3064	399.0479	458.0514	495.3354	514.2225	525.1898	570.5597	639.5378	648.1668	648.5095	687.9135	773.4745	785.6886	830.9653	998.7326	1037.3221	1060.2842	1137.8423	1152.2256	1186.3371	1252.9009	1329.4756	1411.1662	1449.2825	1460.8757	1482.637	1495.8076	1561.8728	1630.4085	1658.9786	2221.995	3013.4963	3056.878	3129.4893	3256.8328	3486.4009	3506.329	3594.9643	3668.9521
CC1=C(C=C(N)N1)C#C	Cc1c(cc(N)[nH]1)C#C	
InChI=1S/C7H8N2/c1-3-6-4-7(8)9-5(6)2/h1,4,9H,8H2,2H3	InChI=1S/C7H8N2/c1-3-6-4-7(8)9-5(6)2/h1,4,9H,8H2,2H3
