14
gdb 46011	4.93758	1.00977	0.85329	1.9418	71.23	-0.2816	-0.0629	0.2187	1242.9053	0.101482	-436.740528	-436.732625	-436.73168	-436.774432	27.825	
O	 0.0118484517	 0.0411280308	 0.5484544195	-0.311127
C	-0.0105472644	 1.1334292285	 0.0575758331	 0.41787
C	-1.2714739741	 1.9863105363	 0.0302160697	-0.408096
C	-1.2315351033	 3.1607194574	-0.8909384053	-0.134082
C	-0.0727297707	 3.6153889437	-1.3744202537	 0.123499
C	 1.2367501117	 2.952358667	-1.0242168454	-0.149048
O	 1.1143467355	 1.6256313576	-0.5139097418	-0.223064
C	 0.0055923806	 4.7595990647	-2.2220460902	 0.225248
N	 0.1117623998	 5.68739225	-2.9069389598	-0.318427
H	-2.1017132259	 1.3144776809	-0.2091437462	 0.166678
H	-1.4617310748	 2.318723178	 1.0610884476	 0.169016
H	-2.1660307167	 3.6482767526	-1.1481290463	 0.135576
H	 1.8708245073	 2.8734437799	-1.9122804034	 0.157011
H	 1.7828909334	 3.5593847826	-0.2894894377	 0.148946
26.5883	106.7359	152.1504	166.9008	364.2495	391.9213	447.8716	508.3995	559.9209	566.8362	610.2322	702.754	764.7778	860.5609	920.8744	985.7719	1023.0393	1030.5707	1099.8749	1179.5559	1190.3069	1218.5017	1266.0494	1343.2241	1363.2373	1427.2346	1442.7278	1503.4873	1721.9172	1856.6093	2341.2801	3019.3856	3021.288	3083.8973	3085.3194	3191.3343
O=C1CC=C(CO1)C#N	O=C1CC=C(CO1)C#N	
InChI=1S/C6H5NO2/c7-3-5-1-2-6(8)9-4-5/h1H,2,4H2	InChI=1S/C6H5NO2/c7-3-5-1-2-6(8)9-4-5/h1H,2,4H2
