18
gdb 14242	2.84021	2.14829	2.03413	2.5037	66.61	-0.2427	0.0568	0.2995	797.4709	0.155151	-384.90525	-384.898223	-384.897279	-384.935984	28.623	
O	-0.3122651868	 1.2777208618	 1.0057168984	-0.437001
C	-0.0741495363	 0.1023654758	 0.2716302235	 0.123132
C	 0.4498991283	-1.1179803736	 1.0918667097	-0.26123
C	-0.9096327934	-1.819518058	 0.9042371171	-0.031724
C	-2.0633515967	-1.3028525406	 1.8224483804	 0.081921
O	-1.5609074981	-0.5626345974	 2.933908869	-0.424992
C	-2.6139074269	-0.4321403595	 0.651571867	-0.263326
C	-1.3393949433	-0.743693349	-0.1536760946	-0.045605
H	-0.6674392632	 0.9998256974	 1.8627466859	 0.2823
H	 0.5564234281	 0.3929685559	-0.5723807164	 0.081303
H	 1.2509635239	-1.6512147891	 0.5718058436	 0.097231
H	 0.7738342527	-0.9045285115	 2.1128708784	 0.110975
H	-0.9214973976	-2.8935910534	 0.7167035859	 0.061815
H	-2.7433061745	-2.0868798633	 2.1756775651	 0.073996
H	-2.3156285005	-0.2215314953	 3.4253681331	 0.290642
H	-3.5127515321	-0.8651068806	 0.203717175	 0.098184
H	-2.7995537583	 0.6206804237	 0.8825936447	 0.102924
H	-1.4320660453	-0.9509614432	-1.2203230157	 0.059455
143.311	219.8648	247.4586	347.8901	415.0654	423.8982	480.0985	531.7781	592.5759	644.1055	741.7599	752.4716	818.4582	856.6671	900.1286	914.1295	973.968	999.282	1008.1252	1055.7221	1065.007	1074.4179	1129.805	1138.7207	1181.2181	1194.4707	1221.4949	1234.9483	1270.7543	1272.5744	1290.3122	1313.8509	1321.0341	1345.024	1403.1997	1466.7831	1474.6189	1476.0595	3025.3249	3053.0059	3056.1781	3073.6203	3095.3031	3104.3846	3109.9473	3117.5059	3714.1195	3813.0681
OC1CC2C(O)CC12	O[C@H]1C[C@H]2[C@@H](O)C[C@@H]12	
InChI=1S/C6H10O2/c7-5-1-3-4(5)2-6(3)8/h3-8H,1-2H2	InChI=1S/C6H10O2/c7-5-1-3-4(5)2-6(3)8/h3-8H,1-2H2/t3-,4-,5+,6+/m1/s1
