23
gdb 91127	2.73676	1.50592	1.33012	0.131	88.13	-0.2429	0.0756	0.3185	1108.6835	0.207846	-351.105552	-351.09756	-351.096616	-351.137688	32.879	
C	-0.1326208952	 1.6041407895	-0.093700315	-0.426216
C	 0.0260606621	 0.0917893993	 0.0032111619	 0.057513
C	 0.8604345014	-0.7205892284	-1.0396078147	-0.278838
C	 1.3636821292	-1.6531150548	 0.1098130072	-0.022387
C	 2.8074192058	-1.4771796548	 0.6756082931	-0.008622
C	 3.803562421	-0.5529644369	-0.0628616425	-0.236156
C	 3.187245792	 0.6777966837	 0.6721585308	-0.245259
C	 2.2873082707	-0.2717893924	 1.5312630775	-0.027278
C	 0.8080844045	-0.6165370827	 1.1427271079	-0.046354
H	 0.8222402933	 2.132305874	-0.1412417541	 0.12054
H	-0.7037149625	 1.8752816064	-0.9894106809	 0.111968
H	-0.67952138	 1.9923471548	 0.7733531946	 0.112784
H	-0.9813018317	-0.3438246778	 0.02209626	 0.072031
H	 0.2819827159	-1.2107194771	-1.8269238387	 0.093056
H	 1.6498409767	-0.1404324946	-1.524101462	 0.099269
H	 0.985579513	-2.6756118015	 0.0602576629	 0.059242
H	 3.2099290466	-2.3820237969	 1.1360656255	 0.056836
H	 4.8398134526	-0.7409779912	 0.231011795	 0.095753
H	 3.7622966805	-0.5511829647	-1.1558553834	 0.096686
H	 3.9056116275	 1.2440590275	 1.2702464281	 0.098054
H	 2.6678201917	 1.3868192853	 0.0280910526	 0.102841
H	 2.4681195921	-0.2070638799	 2.6057610432	 0.059878
H	 0.2210805628	-0.9265998068	 2.011247671	 0.054661
108.5684	180.4331	187.3297	260.7207	268.4741	336.9878	436.6083	535.645	578.9931	667.0288	704.0951	721.0345	798.7888	814.59	827.0119	852.1131	891.4952	902.9052	923.0708	955.4803	961.5214	973.9779	1024.4534	1056.0715	1082.4247	1108.2649	1123.1268	1125.0518	1142.4644	1155.0301	1203.2768	1206.6782	1219.2278	1234.6349	1247.6322	1259.7817	1266.3834	1274.0619	1306.3469	1322.7382	1325.5558	1340.1578	1384.3419	1410.4876	1475.8759	1481.8088	1493.7013	1497.6928	1504.0505	3011.0526	3029.8609	3051.1084	3058.6162	3060.3819	3068.8132	3072.2656	3083.5353	3084.6738	3091.9806	3097.4731	3107.9612	3117.7311	3140.0749
CC1CC2C3CCC3C12	C[C@H]1C[C@H]2[C@H]3CC[C@H]3[C@@H]12	
InChI=1S/C9H14/c1-5-4-8-6-2-3-7(6)9(5)8/h5-9H,2-4H2,1H3	InChI=1S/C9H14/c1-5-4-8-6-2-3-7(6)9(5)8/h5-9H,2-4H2,1H3/t5-,6-,7+,8-,9+/m0/s1
