16
gdb 125256	3.83209	1.06387	0.83704	3.2423	75.3	-0.2191	0.0067	0.2258	1320.0699	0.125872	-434.125107	-434.116587	-434.115643	-434.159166	30.4	
C	-0.027614579	 1.5530422201	 0.2263461669	-0.504652
C	 0.0027339473	 0.0781864166	-0.007447246	 0.401046
C	-0.0119426455	-0.6593903882	-1.1761284282	-0.394372
C	 0.0390005422	-2.0030144497	-0.7408349441	 0.451293
N	 0.049142616	-3.1770937517	-1.4955040031	-0.386831
C	 0.0117539919	-3.2682244581	-2.8567463877	 0.145886
O	-0.0375970072	-2.3363498211	-3.6295285271	-0.311405
N	 0.081176883	-2.110823771	 0.5830291532	-0.325673
N	 0.0576194844	-0.8244997652	 1.0041361433	-0.252912
H	 0.8825750771	 1.9046555752	 0.7256421579	 0.138263
H	-0.1095127725	 2.0785436457	-0.7267915715	 0.150038
H	-0.8811719127	 1.848694954	 0.8468848912	 0.136838
H	-0.0524424846	-0.3046837914	-2.1895645737	 0.139812
H	 0.0886891313	-4.0314084992	-0.9592833895	 0.261264
H	 0.030680702	-4.3257596186	-3.184122803	 0.08079
H	 0.0814599565	-0.6409086374	 1.9923143613	 0.270613
54.0676	78.5952	154.2334	166.0986	271.8501	290.8864	403.1919	411.1202	469.9164	565.1174	594.8261	664.964	725.0565	726.9168	825.5644	867.3299	991.4761	1007.6346	1018.5762	1041.2874	1063.67	1141.712	1184.4283	1195.3416	1313.0438	1407.5934	1425.0479	1433.0829	1452.3189	1483.823	1497.1108	1522.7113	1565.7848	1626.1885	1804.6229	2946.1831	3031.789	3082.2695	3134.7875	3311.5982	3620.1238	3679.2726
CC1=CC(NC=O)=NN1	Cc1cc(NC=O)n[nH]1	
InChI=1S/C5H7N3O/c1-4-2-5(6-3-9)8-7-4/h2-3H,1H3,(H2,6,7,8,9)	InChI=1S/C5H7N3O/c1-4-2-5(6-3-9)8-7-4/h2-3H,1H3,(H2,6,7,8,9)
