18
gdb 63717	3.48018	1.1573	1.03251	5.1853	78.01	-0.2645	0.0201	0.2846	1192.2652	0.146636	-401.93993	-401.931285	-401.930341	-401.972786	33.445	
C	-0.124511482	 1.5721272961	 0.0463614755	-0.453877
C	 0.0540298542	 0.0607884211	 0.0145027966	 0.410064
O	-1.1905963943	-0.5951995475	-0.1570637436	-0.474472
C	 1.1576214928	-0.5359645	-0.938154996	-0.351818
C	 1.7811452806	-1.2603284684	 0.2683424883	 0.23081
C	 2.1813493571	-0.2505262532	 1.3201854381	-0.334076
C	 0.7379256955	-0.6204470958	 1.2088736643	-0.111775
C	 2.2858942349	-2.5931842836	 0.2588272885	 0.176508
N	 2.6954528642	-3.6759858268	 0.2362400511	-0.352968
H	 0.8165397291	 2.0919339231	 0.2453498185	 0.120649
H	-0.4989883778	 1.9324900338	-0.9198740323	 0.113934
H	-0.8481785784	 1.8497627087	 0.8183445702	 0.132846
H	-1.6054401593	-0.2468595262	-0.9540239891	 0.279506
H	 0.7052837683	-1.2209246424	-1.6558279698	 0.12834
H	 1.8213543601	 0.1638455042	-1.4550177421	 0.101964
H	 2.6977891286	-0.6608812868	 2.1808481796	 0.14305
H	 2.544429945	 0.7230498964	 1.0021330969	 0.121079
H	 0.1916781013	-1.0980409926	 2.0122295753	 0.120235
96.3633	145.9979	228.722	241.0983	264.4317	292.9769	364.1587	401.2998	424.1994	486.2659	520.9581	561.6142	583.1645	669.2919	792.8543	838.1743	857.7967	899.9268	956.8331	973.4232	991.8669	1009.0542	1038.6572	1092.9582	1110.1445	1121.127	1166.2278	1215.6347	1230.5148	1257.1275	1279.8881	1371.6518	1390.6415	1413.1302	1468.9824	1487.7995	1493.1011	1498.6073	2345.2453	3028.048	3056.2589	3095.2957	3118.8546	3122.7826	3137.4122	3204.2573	3218.0823	3802.6944
CC1(O)CC2(CC12)C#N	C[C@@]1(O)C[C@]2(C[C@@H]12)C#N	
InChI=1S/C7H9NO/c1-6(9)3-7(4-8)2-5(6)7/h5,9H,2-3H2,1H3	InChI=1S/C7H9NO/c1-6(9)3-7(4-8)2-5(6)7/h5,9H,2-3H2,1H3/t5-,6+,7+/m0/s1
