17
gdb 66267	2.03105	1.63821	1.43604	1.8165	74.13	-0.2431	-0.0325	0.2105	1038.5287	0.133499	-421.815285	-421.806386	-421.805441	-421.848807	33.118	
C	-0.0494870917	 1.6075178411	-0.0120011746	-0.432993
C	 0.0317858696	 0.0840638222	-0.018093506	 0.059724
O	 0.8377966761	-0.3530560782	-1.1099359557	-0.2669
C	 1.3899001469	-1.6295232159	-0.769215384	-0.098451
C	 1.764683685	-1.5214056802	 0.7116441052	-0.340965
C	 0.7916661166	-0.4638014354	 1.2311175396	 0.377385
O	 0.6452518234	-0.0842863724	 2.3582772769	-0.302822
C	-1.2950687778	-0.5461708181	-0.0507619091	 0.360203
C	-2.3664468676	-1.0917707826	-0.0677908945	-0.492595
H	 0.9589286299	 2.0266622561	-0.0553412963	 0.126162
H	-0.6208586123	 1.961779359	-0.8722824811	 0.135918
H	-0.5361133651	 1.9380424873	 0.90816207	 0.148654
H	 0.647093791	-2.4222163284	-0.933509474	 0.112937
H	 2.2391505489	-1.7995205799	-1.432874752	 0.120585
H	 1.6733150025	-2.4476759188	 1.2830184215	 0.141753
H	 2.7830419134	-1.1415785053	 0.8476787917	 0.145916
H	-3.3196943587	-1.5603781205	-0.0869201977	 0.205491
73.8085	126.9765	150.5691	207.7899	219.6166	249.6909	351.9449	405.7681	491.0293	532.604	569.8165	624.8808	632.7718	653.2594	669.2098	690.3187	832.6097	865.7938	907.5952	972.5102	1008.8267	1043.1283	1098.8925	1146.6019	1171.0613	1198.6396	1220.5007	1254.1562	1281.7224	1384.2614	1398.9424	1445.7812	1478.8138	1490.182	1512.7832	1864.6361	2223.9392	3014.3833	3055.5257	3059.9017	3113.8433	3122.3921	3136.9621	3146.2555	3498.7949
CC1(OCCC1=O)C#C	C[C@]1(OCCC1=O)C#C	
InChI=1S/C7H8O2/c1-3-7(2)6(8)4-5-9-7/h1H,4-5H2,2H3	InChI=1S/C7H8O2/c1-3-7(2)6(8)4-5-9-7/h1H,4-5H2,2H3/t7-/m0/s1
