21
gdb 37240	3.35338	1.46873	1.323	0.2642	85.32	-0.2309	0.0824	0.3134	1058.415	0.184055	-349.884679	-349.877328	-349.876384	-349.916098	31.044	
C	 0.0095727948	 1.4668239648	-0.064759466	-0.290796
C	 1.3292543752	 0.7547644694	 0.0348811779	-0.057924
C	 0.0083140749	-0.0300895718	 0.0595628269	-0.054607
C	 0.3928423692	-0.7305303104	-1.2677488858	-0.112305
C	 1.7352225543	 0.0592510471	-1.2855739592	-0.009123
C	 1.3487725018	 0.7116894581	-2.649900434	-0.340231
C	 0.0185493201	-0.0752085493	-2.6102415722	 0.386746
C	-0.631286759	-0.7671134395	-3.7743821617	-0.349442
C	-1.3374591815	 0.3705321338	-3.0759909603	-0.313361
H	-0.2830809967	 1.9956597666	 0.8372840712	 0.105929
H	-0.3102121806	 1.9563993111	-0.9786127092	 0.117474
H	 2.0143491038	 0.9614951057	 0.8488765082	 0.079896
H	-0.4753634425	-0.5253218193	 0.8935568315	 0.079547
H	 0.3832509277	-1.8208923945	-1.2262317093	 0.061115
H	 2.6876631761	-0.4681879884	-1.2412088383	 0.066193
H	 1.2657564807	 1.8029289592	-2.6493183878	 0.097519
H	 2.007135163	 0.416163723	-3.472437228	 0.096864
H	-0.2265182166	-0.58614277	-4.765623936	 0.108035
H	-1.0081049883	-1.7744790725	-3.6244940796	 0.108544
H	-2.1929072557	 0.138562703	-2.4492343481	 0.112366
H	-1.4125211406	 1.3205048239	-3.5967977101	 0.107561
110.5714	204.1663	253.4028	312.6064	328.9786	451.0651	492.114	578.2565	704.4475	735.2344	744.6276	777.4309	821.7795	858.6108	866.357	891.7794	902.3448	923.4137	929.0872	964.7142	991.7329	995.4416	1011.1966	1047.3557	1049.1685	1061.1185	1071.6951	1084.9465	1097.8937	1127.922	1149.0496	1184.9776	1187.9824	1205.1858	1242.7303	1245.8859	1273.0829	1293.4604	1301.5572	1352.361	1376.6823	1464.4389	1477.4312	1499.0091	1500.3879	3041.363	3087.9844	3091.8905	3112.2987	3115.7102	3120.4184	3126.8526	3166.645	3176.4833	3193.0598	3205.6647	3208.5396
C1C2C1C1C2CC11CC1	C1[C@H]2[C@@H]1[C@@H]1[C@H]2CC21CC2	
InChI=1S/C9H12/c1-2-9(1)4-7-5-3-6(5)8(7)9/h5-8H,1-4H2	InChI=1S/C9H12/c1-2-9(1)4-7-5-3-6(5)8(7)9/h5-8H,1-4H2/t5-,6+,7-,8+/m0/s1
