20
gdb 93921	3.80102	0.94684	0.88216	3.2747	75.88	-0.245	0.0271	0.2721	1386.6108	0.171355	-440.333874	-440.324277	-440.323333	-440.370021	34.581	
C	 0.2189846833	 1.626498473	 0.0338448873	-0.411203
C	 0.0629054384	 0.117649007	-0.0197454443	 0.162507
C	 0.7959112971	-0.5872530651	-1.18957954	-0.264271
C	 1.4073896441	-1.8607413925	-0.5510090137	-0.089183
C	 0.820162179	-1.8190065931	 0.8867627173	-0.10081
O	 0.6187456646	-0.4507004236	 1.1656260227	-0.255868
C	 1.005420689	-3.1407514141	-1.2747319002	 0.39151
N	 1.9977366419	-4.0654860036	-1.4222169244	-0.528339
O	-0.1331489707	-3.3410406229	-1.6554859696	-0.368585
H	 1.2779334093	 1.8991235381	 0.0862021403	 0.118289
H	-0.2157179771	 2.0867522432	-0.8587855793	 0.117579
H	-0.2863862105	 2.0361661811	 0.9128314999	 0.125684
H	-1.0071104389	-0.1429017451	-0.0669799344	 0.074768
H	 0.1034720148	-0.8495758842	-1.9909592284	 0.129313
H	 1.5801129639	 0.0545103213	-1.6007009785	 0.097775
H	 2.4963618856	-1.7729766999	-0.4947444616	 0.065776
H	-0.1310647853	-2.3733353786	 0.9066869312	 0.10991
H	 1.4899354321	-2.2300654455	 1.6460918976	 0.105209
H	 2.9517657545	-3.875908249	-1.1724456949	 0.258908
H	 1.7823600849	-4.9243649163	-1.9019295469	 0.26103
21.6322	38.9065	154.9479	178.7604	200.5679	233.8671	286.2801	325.3306	371.4919	470.2194	577.8358	593.0572	621.9058	659.2986	760.5805	829.8665	837.6471	895.6174	915.018	973.892	1028.1986	1041.3833	1072.1934	1088.8041	1117.7795	1143.1082	1153.1535	1231.774	1251.0783	1272.6867	1303.1546	1307.2644	1356.401	1381.2845	1395.6776	1411.6878	1414.1743	1484.2181	1485.8065	1498.4611	1512.0983	1615.7761	1791.2079	2965.4624	2989.5792	3039.1243	3050.7927	3065.4524	3098.9575	3112.387	3118.2242	3128.0139	3602.7586	3741.515
CC1CC(CO1)C(N)=O	C[C@H]1C[C@@H](CO1)C(=O)N	
InChI=1S/C6H11NO2/c1-4-2-5(3-9-4)6(7)8/h4-5H,2-3H2,1H3,(H2,7,8)	InChI=1S/C6H11NO2/c1-4-2-5(3-9-4)6(7)8/h4-5H,2-3H2,1H3,(H2,7,8)/t4-,5-/m0/s1
