19
gdb 82476	2.66033	1.70578	1.53385	2.4229	74.27	-0.2401	0.0758	0.3159	957.6443	0.160797	-422.98697	-422.979639	-422.978695	-423.018076	30.835	
O	-0.1103406093	 1.3946503239	 0.0395859349	-0.447513
C	-0.04815284	-0.0191727132	 0.0590700454	 0.165831
C	 0.3734428238	-0.6589393188	 1.4073180377	-0.113939
C	-0.6335664452	 0.0004787807	 2.3925849721	-0.303298
C	-1.6444240218	-0.8519831744	 1.6169616347	 0.439193
O	-2.9590338996	-1.0851257085	 1.9935568131	-0.490001
C	-0.5483410103	-1.9529823411	 1.3630315718	-0.102088
C	-1.10492652	-2.1519350179	-0.0564642785	-0.256811
C	-1.4531846652	-0.6434267078	 0.0551962919	-0.091917
H	 0.779706496	 1.7353439935	 0.1771507452	 0.279295
H	 0.5568419948	-0.3833663708	-0.7829942211	 0.061367
H	 1.4355425103	-0.7250050945	 1.6415853142	 0.058959
H	-0.5060487758	-0.3794070795	 3.4124944387	 0.079811
H	-0.7207606012	 1.0881897758	 2.3913195504	 0.10743
H	-2.9646612588	-1.3670160073	 2.914499628	 0.279222
H	-0.3229741357	-2.7592258016	 2.0615765774	 0.062157
H	-0.4467438818	-2.4698748134	-0.8708675764	 0.086307
H	-1.9968968313	-2.7818381234	-0.030846834	 0.109741
H	-2.2181057489	-0.1642174317	-0.5531769853	 0.076255
183.6734	259.5098	286.5891	316.631	345.0562	375.8171	447.9889	461.5656	521.9367	621.089	686.9984	714.0352	790.5228	839.634	877.6455	901.2651	920.5943	934.885	961.6789	988.3812	1015.4787	1032.6895	1041.4885	1089.3172	1102.4591	1125.9756	1140.5433	1146.8331	1173.4682	1223.1762	1227.3039	1235.4617	1256.7839	1266.3979	1298.0063	1321.2239	1349.7176	1377.3035	1429.7836	1485.5372	1498.2697	2996.4283	3044.741	3050.7436	3107.7113	3114.8237	3119.0858	3123.0485	3138.3376	3804.3116	3809.6338
OC1C2CC3(O)C2CC13	O[C@H]1[C@H]2C[C@]3(O)[C@H]2C[C@H]13	
InChI=1S/C7H10O2/c8-6-3-2-7(9)4(3)1-5(6)7/h3-6,8-9H,1-2H2	InChI=1S/C7H10O2/c8-6-3-2-7(9)4(3)1-5(6)7/h3-6,8-9H,1-2H2/t3-,4-,5+,6-,7-/m0/s1
