18
gdb 37600	2.88781	2.35307	2.04649	1.3517	71.59	-0.2098	0.0891	0.2989	782.7035	0.153356	-401.919169	-401.913862	-401.912918	-401.948464	24.311	
C	-0.0150441587	 1.4951631991	 0.0783574101	-0.174985
C	 1.4853935117	 1.846134285	-0.0664790364	 0.057909
O	 1.7175620113	 1.9880588749	-1.4704990637	-0.252452
C	 1.6588616957	 0.672006238	-1.9431752445	 0.080541
C	 2.2438883616	-0.2700968789	-0.9482248228	-0.105108
C	 0.7437263947	-0.3463770172	-1.2490676779	-0.087656
N	-0.0057650906	 0.0156959715	-0.0109084999	-0.114885
C	 1.0021449843	-0.2682223915	 1.047460123	-0.170328
C	 2.1803023113	 0.4905165647	 0.3852690202	-0.089121
H	-0.4450416736	 1.7905629388	 1.0395082987	 0.099888
H	-0.5931057199	 1.9489978053	-0.7282203479	 0.114985
H	 1.8282166723	 2.7538513011	 0.4305917701	 0.080875
H	 1.8158026137	 0.6015381676	-3.013014754	 0.104544
H	 2.9735207864	-1.0435325849	-1.1493208022	 0.088614
H	 0.3158018483	-1.1444000188	-1.8450810531	 0.090829
H	 0.6670821297	 0.1230021436	 2.0129010006	 0.099433
H	 1.1918107654	-1.3398694535	 1.1406894211	 0.106604
H	 3.1214113965	 0.5937766653	 0.9238307186	 0.070312
332.763	451.7795	514.1766	581.4456	606.395	652.026	733.775	738.1388	782.3767	789.2804	832.0961	864.0519	873.1027	893.4844	925.317	937.9617	968.3425	985.8863	999.7678	1025.444	1032.5329	1080.0556	1081.4035	1098.0282	1122.313	1148.441	1182.6274	1202.1197	1228.3763	1260.042	1266.777	1278.3607	1293.4459	1300.4532	1337.8269	1346.1679	1402.3135	1491.7067	1519.6506	3054.5391	3064.2996	3112.598	3113.7532	3127.9473	3128.3701	3169.0099	3186.5871	3198.3002
C1C2OC3C4C3N1CC24	C1[C@@H]2O[C@H]3[C@@H]4[C@H]3N1C[C@H]24	
InChI=1S/C7H9NO/c1-3-4-2-8(1)6-5(3)7(6)9-4/h3-7H,1-2H2	InChI=1S/C7H9NO/c1-3-4-2-8(1)6-5(3)7(6)9-4/h3-7H,1-2H2/t3-,4+,5+,6-,7+/m1/s1
