17
gdb 89342	1.95681	1.73925	1.12008	0.8757	77.26	-0.2173	0.0397	0.257	1112.3606	0.133083	-421.756308	-421.747203	-421.746259	-421.789729	34.655	
O	-0.1328351778	 1.451516313	-0.0656180768	-0.432555
C	-0.002839097	 0.0497245329	 0.0169891791	 0.042422
C	 0.2996646755	-0.5748949927	 1.4260891175	-0.311609
C	-1.0527166362	-1.2641085161	 1.3918401632	 0.36291
O	-1.1733288512	-2.5393190891	 1.8890013452	-0.447786
C	-2.1571942625	-0.2875460674	 1.2115653009	-0.401053
C	-1.349044458	-0.6735836764	-0.0328931383	 0.151512
C	-1.941051883	-1.2594633118	-1.1804567554	 0.137944
C	-2.425608406	-1.7861962691	-2.1498186903	-0.409158
H	 0.7456393185	 1.8402904563	-0.0041499668	 0.286028
H	 0.6809438141	-0.334774307	-0.7487897016	 0.083608
H	 1.1245958525	-1.2896514748	 1.3917846113	 0.114864
H	 0.458361574	 0.1348272916	 2.2442927037	 0.099766
H	-2.1015426453	-2.7951524894	 1.8854440162	 0.293034
H	-3.1571229252	-0.7130563136	 1.2127243148	 0.118232
H	-2.0992710385	 0.7288265974	 1.5927149051	 0.129955
H	-2.855447574	-2.2373970036	-3.0089806777	 0.181885
100.4953	123.4293	162.7354	206.5822	248.2342	276.7604	366.082	391.2766	409.6228	479.6479	524.0734	537.9566	560.8321	639.7486	650.0072	699.2191	744.9427	802.7034	861.3082	948.1501	968.7704	999.5278	1071.8679	1099.2884	1108.8646	1148.4524	1157.1598	1212.0226	1238.001	1279.1203	1321.0538	1384.2436	1417.2176	1427.6656	1471.2957	1507.1894	2224.4909	3032.6693	3050.3023	3108.8027	3118.0235	3196.4685	3503.888	3815.7696	3820.8916
OC1CC2(O)CC12C#C	O[C@H]1C[C@@]2(O)C[C@@]12C#C	
InChI=1S/C7H8O2/c1-2-6-4-7(6,9)3-5(6)8/h1,5,8-9H,3-4H2	InChI=1S/C7H8O2/c1-2-6-4-7(6,9)3-5(6)8/h1,5,8-9H,3-4H2/t5-,6-,7+/m0/s1
