15
gdb 125054	2.33325	1.86701	1.04531	3.4312	77.14	-0.2098	-0.0731	0.1367	1073.6294	0.110432	-450.093591	-450.084543	-450.083599	-450.127843	32.453	
C	-0.0189631874	 1.53269223	 0.0547796404	-0.523656
C	 0.0042361409	 0.0275614879	 0.0212927134	 0.093311
C	-1.1502435957	-0.7130802348	 0.0611307696	 0.400192
N	-2.3997805866	-0.1582701427	 0.1589907739	-0.557059
O	-1.1951278316	-2.0406804423	 0.0482851771	-0.316476
N	 0.197911827	-2.7919661415	 0.067792652	 0.027516
N	 1.1721725309	-2.106380002	 0.0199614017	-0.094148
C	 1.2574455233	-0.6526739653	-0.0537613882	 0.31681
N	 2.4134105408	-0.1160910049	-0.1622683855	-0.529235
H	 0.9875535758	 1.9017779994	 0.2570643165	 0.168257
H	-0.3367344175	 1.9681944151	-0.9026488968	 0.123925
H	-0.6903123109	 1.9112392814	 0.8343487429	 0.123957
H	-2.5086939349	 0.7860779239	-0.1737707758	 0.270423
H	-3.1652064626	-0.7804110798	-0.0502248482	 0.26898
H	 3.1379115683	-0.8325757144	-0.1691201532	 0.227202
51.3666	79.0723	151.2292	168.4455	243.784	299.2978	390.5433	397.0815	446.7389	470.267	503.8038	522.1907	549.7104	685.7912	718.164	753.5841	831.8055	840.1813	906.8908	1015.5386	1058.9847	1063.8485	1207.7146	1232.1578	1307.9047	1400.0531	1442.5609	1493.7337	1498.8584	1612.1971	1645.9634	1696.5086	1778.3596	3008.2243	3061.4401	3139.3701	3501.6901	3591.5932	3707.4199
CC1=C(N)ON=NC1=N	CC1=C(N)O[N]N=C1[NH]	
InChI=1S/C4H6N4O/c1-2-3(5)7-8-9-4(2)6/h5H,6H2,1H3	InChI=1S/C4H6N4O/c1-2-3(5)7-8-9-4(2)6/h5H,6H2,1H3
