19
gdb 91267	3.13882	1.35195	1.12518	3.9822	75.21	-0.2362	0.0633	0.2995	1127.7969	0.161758	-419.254991	-419.246945	-419.246001	-419.287552	31.474	
C	-0.9715839726	 1.1928171067	-0.2080839966	-0.413163
C	-0.0758471793	-0.0288220637	-0.0922325023	 0.036896
C	 1.2855276027	-0.0395832473	-0.8544401116	-0.266203
C	 1.966945425	-0.6519944017	 0.4104175663	 0.014708
N	 3.0357477287	 0.0602495671	 1.0669179684	-0.344383
C	 2.543511136	 1.0679890459	 1.8910485095	 0.428002
O	 3.1882576929	 1.9162821729	 2.464209842	-0.407399
N	 1.1631385224	 0.9080797197	 1.9319466904	-0.336095
C	 0.6991889044	-0.2775710969	 1.2411585522	-0.020601
H	-0.4340507169	 2.0953451881	 0.0980651425	 0.128123
H	-1.3111259481	 1.3315259074	-1.2399675074	 0.1177
H	-1.861813948	 1.0984349925	 0.4242634244	 0.111524
H	-0.6412616417	-0.936145087	-0.3331050909	 0.073879
H	 1.3315059687	-0.6279807182	-1.7736830001	 0.100289
H	 1.6572723991	 0.9679335001	-1.0614481297	 0.109154
H	 2.1732752349	-1.7209027911	 0.3250465925	 0.088441
H	 3.9301377815	 0.2157232537	 0.6304532833	 0.250684
H	 0.667573842	 1.3167548805	 2.7062903042	 0.25242
H	 0.2781933084	-1.0228744187	 1.9246147627	 0.076024
89.2805	125.3984	209.0482	234.336	343.9805	392.8499	433.2214	464.0956	469.1739	559.9972	593.5944	701.9159	738.1823	765.5255	802.8503	873.5026	897.5953	933.5431	938.1527	965.2895	1023.4762	1061.1273	1107.6681	1129.0377	1157.28	1166.7638	1217.9002	1236.4872	1254.9946	1279.7215	1294.7246	1351.2708	1363.4933	1381.5036	1401.9925	1415.8956	1422.9914	1482.1987	1491.1054	1502.8283	1848.8828	3029.2349	3032.6799	3046.4092	3059.8194	3080.5423	3092.7861	3110.0391	3118.4133	3648.3251	3662.5532
CC1CC2NC(=O)NC12	C[C@H]1C[C@H]2NC(=O)N[C@@H]12	
InChI=1S/C6H10N2O/c1-3-2-4-5(3)8-6(9)7-4/h3-5H,2H2,1H3,(H2,7,8,9)	InChI=1S/C6H10N2O/c1-3-2-4-5(3)8-6(9)7-4/h3-5H,2H2,1H3,(H2,7,8,9)/t3-,4+,5-/m0/s1
