18
gdb 96964	2.79859	1.55409	1.19038	1.7214	75.07	-0.2513	0.0278	0.2791	1079.8535	0.148124	-439.076101	-439.068047	-439.067102	-439.108822	31.043	
C	 0.0065606373	 1.3488840318	-0.0009236351	-0.338993
N	 0.126404282	-0.1012602325	 0.0068159098	-0.402788
C	 0.6375678057	-0.6907023562	 0.9901880235	 0.438197
O	 1.1501827433	-0.1937453313	 2.1603129592	-0.269159
C	 1.5620770064	-1.4412591311	 2.8227139541	 0.080322
C	 0.3388995604	-2.3584092571	 2.6036774949	-0.28988
C	 0.8149854918	-2.1840615403	 1.1126029842	 0.30616
O	 0.3753620145	-2.9336497433	 0.0524718866	-0.477271
C	 2.2806396994	-2.2035665291	 1.6878401931	-0.289698
H	 0.5402514981	 1.7497595795	-0.8695788873	 0.128737
H	-1.0475814338	 1.6225205101	-0.1195566749	 0.128721
H	 0.3955569304	 1.8289750555	 0.9041681593	 0.128404
H	 1.9987937741	-1.2066286425	 3.7881287245	 0.100801
H	 0.4910393727	-3.3741447641	 2.9715977581	 0.117146
H	-0.6417638774	-1.9706462016	 2.8867613735	 0.114431
H	 0.0192182724	-2.2967290092	-0.5886843442	 0.293261
H	 3.0631262227	-1.6752461024	 1.139383752	 0.114446
H	 2.5994832299	-3.2059455163	 1.9773269687	 0.117164
75.4888	124.9893	178.0624	261.5553	312.0879	366.4824	452.3657	464.989	489.0501	573.4686	598.5506	711.1507	729.1563	803.2361	854.0031	888.3411	926.3428	927.1823	976.4492	983.7059	1033.2803	1059.9138	1103.6335	1117.1292	1135.3891	1154.0618	1162.9526	1200.3639	1228.9307	1229.5795	1318.4104	1383.0489	1423.7033	1445.9627	1472.8349	1493.2442	1497.8312	1514.4645	1840.4425	3019.5495	3074.4921	3080.0253	3083.8924	3091.2517	3145.28	3151.0829	3180.3223	3681.2541
CN=C1OC2CC1(O)C2	CN=C1O[C@H]2C[C@]1(O)C2	
InChI=1S/C6H9NO2/c1-7-5-6(8)2-4(3-6)9-5/h4,8H,2-3H2,1H3	InChI=1S/C6H9NO2/c1-7-5-6(8)2-4(3-6)9-5/h4,8H,2-3H2,1H3/t4-,6-
