22
gdb 117637	2.63512	0.94179	0.86464	5.0742	78.06	-0.245	0.0253	0.2703	1484.5601	0.192825	-441.5323	-441.521646	-441.520701	-441.568248	39.032	
C	-0.0165848935	 1.6739669805	-0.023451074	-0.378734
C	 0.0590299691	 0.1475850343	 0.0851289048	-0.190203
C	 0.669936771	-0.4917262151	-1.1667901988	-0.190866
C	 0.668485751	-2.0353315455	-1.2029020749	 0.08695
C	 1.4335198128	-2.6570288876	-0.0213745131	-0.422116
N	-0.6918855763	-2.6200190563	-1.2489599633	-0.560483
H	-1.3563687136	-1.962924847	-1.6465833018	 0.24282
H	-0.0118245543	-3.6454543954	-2.6335159964	 0.304592
H	-1.024109723	-2.8596459962	-0.321726742	 0.243411
C	 1.4199278325	-2.4906166078	-2.4870741585	 0.440077
O	 2.465187779	-2.0088521218	-2.8382834975	-0.357881
O	 0.8192460777	-3.4909525833	-3.1398893186	-0.377249
H	 0.9784744962	 2.1079783044	-0.1680969033	 0.122887
H	-0.6358844996	 1.9809807772	-0.8734761797	 0.115597
H	-0.4464834248	 2.1164244414	 0.880298702	 0.113539
H	 0.6492019796	-0.1198363256	 0.9692813727	 0.104497
H	-0.9485948861	-0.2546856225	 0.2560587456	 0.079834
H	 0.1250249439	-0.1339712822	-2.0529008684	 0.093329
H	 1.7024070654	-0.1560124441	-1.3012416333	 0.132013
H	 0.979410799	-2.377661965	 0.9340889117	 0.11748
H	 1.4297293831	-3.7491043327	-0.0953462774	 0.129553
H	 2.4710921711	-2.3174508895	-0.0287894659	 0.150955
54.6432	80.3807	106.3676	140.3524	241.8435	250.4689	260.253	291.735	302.6813	318.2176	355.3416	389.9058	431.1413	550.387	656.6026	747.9925	760.7017	768.3556	829.1608	870.371	893.4595	915.1806	953.5938	981.9876	1013.3172	1049.263	1083.5472	1109.7118	1162.1445	1215.0209	1229.5218	1281.5218	1311.7617	1324.1093	1343.7223	1395.2535	1403.499	1415.2346	1433.6003	1482.4494	1493.8496	1494.7491	1499.7628	1502.918	1512.2745	1652.6005	1858.6826	3003.8253	3016.4674	3032.5163	3041.698	3056.2785	3092.9071	3102.0014	3105.9523	3108.6334	3138.4798	3428.1053	3505.1819	3588.82
CCCC(C)([NH3+])C([O-])=O	CCC[C@@](C)(N)C(=O)O	
InChI=1S/C6H13NO2/c1-3-4-6(2,7)5(8)9/h3-4,7H2,1-2H3,(H,8,9)	InChI=1S/C6H13NO2/c1-3-4-6(2,7)5(8)9/h3-4,7H2,1-2H3,(H,8,9)/t6-/m1/s1
