17
gdb 47807	2.33815	1.79236	1.22502	1.9827	68.84	-0.2498	-0.0332	0.2166	1022.3241	0.136807	-458.956787	-458.949242	-458.948298	-458.988993	28.8	
O	 0.0007019636	 0.0688576935	 0.6133513648	-0.308028
C	-0.0453019667	 1.2155459886	 0.224897021	 0.352762
C	-1.3483765612	 1.9612604206	 0.0273455333	-0.30045
C	-1.6642245613	 2.2201120423	-1.4575289904	-0.093711
O	-0.8896521729	 3.2548088755	-2.0272900347	-0.222874
C	 0.4023454842	 2.9124418614	-2.4556820238	-0.133403
C	 1.4363336494	 2.682184776	-1.3627010105	 0.049172
O	 1.2763006186	 3.3520248632	-0.1271493489	-0.230614
C	 1.2411278587	 1.917610585	-0.1082232727	-0.051796
H	-2.1406961069	 1.3493531347	 0.4668122774	 0.121988
H	-1.3078753748	 2.9297833186	 0.5354030813	 0.140087
H	-1.5624905046	 1.2903044352	-2.0396835539	 0.10316
H	-2.7031551558	 2.5523321269	-1.539339216	 0.122693
H	 0.3907205334	 2.0255685465	-3.1129080825	 0.103681
H	 0.7426868924	 3.7606345431	-3.0600480416	 0.127332
H	 2.4573547285	 2.6798469952	-1.7540140516	 0.106659
H	 2.1114591754	 1.4334689637	 0.3326830188	 0.113342
85.1487	160.5248	212.1839	273.05	338.9299	384.1027	443.197	471.3746	517.1706	663.9698	690.266	750.4505	805.4055	867.5865	906.2794	936.255	957.5364	1002.5816	1035.9579	1067.8605	1113.8041	1129.306	1163.9689	1203.242	1249.4259	1283.2538	1299.6006	1324.382	1357.1212	1368.4423	1399.5865	1412.4245	1452.5782	1463.7781	1479.7696	1499.205	1796.5001	2963.4461	2983.46	3057.7631	3064.2788	3078.9143	3086.2423	3119.8268	3131.045
O=C1CCOCC2OC12	O=C1CCOC[C@H]2O[C@@H]12	
InChI=1S/C6H8O3/c7-4-1-2-8-3-5-6(4)9-5/h5-6H,1-3H2	InChI=1S/C6H8O3/c7-4-1-2-8-3-5-6(4)9-5/h5-6H,1-3H2/t5-,6+/m1/s1
