17
gdb 78621	2.57758	1.67603	1.31496	2.6757	71.96	-0.2367	0.0059	0.2426	1000.9167	0.134784	-421.79491	-421.786975	-421.786031	-421.826991	31.068	
C	 0.0846824319	 1.6203454532	-0.0848694599	-0.433637
C	 0.0811397132	 0.1004958567	-0.0090315875	-0.049051
C	 1.0960331511	-0.7327980888	-0.8677795317	-0.211179
C	 1.2307674133	-1.7348575794	 0.3461722331	-0.133667
C	 2.2396237996	-0.7175705487	 0.9498724411	-0.284647
C	 2.4786587402	-0.1992525243	-0.4300280983	 0.448695
O	 3.4193155971	 0.2615359106	-1.0139963083	-0.347562
C	 0.7019740006	-0.6367135245	 1.1849988086	 0.388377
O	 0.1839382849	-0.762212568	 2.4521914629	-0.460143
H	 1.0865121019	 2.0327596162	 0.073130853	 0.131656
H	-0.2652573035	 1.9646524136	-1.06341177	 0.127817
H	-0.582701982	 2.047468719	 0.6717468912	 0.116936
H	-0.9279292075	-0.2972000725	-0.1675442639	 0.087377
H	 0.8848307681	-0.9891287253	-1.9022087723	 0.092988
H	 1.2490455743	-2.8105880355	 0.4184823373	 0.122207
H	 2.9166616794	-0.872985629	 1.7788456418	 0.110498
H	 0.3788745175	 0.0419346169	 2.946828833	 0.293335
127.0403	187.6503	201.4577	219.5758	291.5574	334.8904	404.9081	477.8582	540.6291	582.2524	632.3618	692.133	773.9466	806.0639	827.6197	847.0212	854.3452	889.8046	937.5027	966.9976	1049.6502	1061.7799	1080.3905	1111.6426	1125.7563	1131.5606	1153.6485	1211.8889	1240.2963	1266.9584	1303.7676	1378.4842	1413.1589	1459.0471	1494.3229	1498.5763	1876.3448	3031.6724	3046.2191	3097.9943	3105.6999	3164.0997	3217.4789	3252.7438	3794.5768
CC1C2C3C(C2=O)C13O	C[C@H]1[C@@H]2[C@H]3[C@@H](C2=O)[C@@]13O	
InChI=1S/C7H8O2/c1-2-3-4-5(6(3)8)7(2,4)9/h2-5,9H,1H3	InChI=1S/C7H8O2/c1-2-3-4-5(6(3)8)7(2,4)9/h2-5,9H,1H3/t2-,3+,4-,5-,7+/m0/s1
