17
gdb 39910	4.1795	1.5045	1.37105	3.4148	80.37	-0.2126	-0.0544	0.1582	964.7327	0.136066	-380.71192	-380.70521	-380.704266	-380.742657	28.192	
C	-0.0694223076	 1.4784055065	 0.1038354587	-0.301538
C	 1.2880382877	 0.8233025628	 0.0131424441	-0.324177
C	 0.0330690515	-0.0181884376	-0.01536882	 0.368849
N	-0.4608412865	-0.8070454838	 1.1090429772	-0.197934
C	-0.6804116282	-1.9616003616	 0.6049119442	 0.10063
N	-2.0960838158	-2.2904274215	 0.3340642205	-0.342563
C	-1.5828466405	-1.9164618059	-1.0947680849	-0.031406
C	-0.1676040474	-2.2502298252	-0.8530011623	-0.168302
C	-0.4105444599	-0.8325791733	-1.2276750358	-0.127132
H	-0.389180489	 1.8697136872	 1.062026488	 0.133352
H	-0.4381657931	 2.0200900496	-0.7613060968	 0.115456
H	 1.8573206307	 0.9276232369	-0.9047437491	 0.114381
H	 1.8877478293	 0.7698663442	 0.9143193434	 0.128393
H	-2.2113190037	-3.3069837885	 0.249503177	 0.223723
H	-2.2311437941	-2.137191241	-1.9373280718	 0.112441
H	 0.5046572502	-3.0100522035	-1.229081477	 0.103931
H	-0.2479176035	-0.4708052653	-2.2403646355	 0.091896
131.7374	235.5572	285.897	394.0211	463.5296	508.8028	576.98	631.2764	679.6037	750.3299	762.5171	772.525	792.6594	824.0481	862.9884	895.911	915.6447	933.7663	948.8417	975.2933	1016.3219	1037.2784	1049.3304	1058.7643	1072.172	1123.8628	1140.5983	1186.5264	1190.0651	1212.4617	1231.8557	1265.8816	1316.7541	1376.746	1454.8635	1486.4286	1575.1714	3132.473	3135.6842	3145.3616	3161.9733	3195.5518	3219.1084	3234.3676	3364.3367
C1CC11N=C2NC3C2C13	C1CC21[N][C]1N[C@@H]3[C@H]1[C@H]23	
InChI=1S/C7H8N2/c1-2-7(1)4-3-5(4)8-6(3)9-7/h3-5H,1-2H2,(H,8,9)	InChI=1S/C7H8N2/c1-2-7(1)4-3-5(4)8-6(3)9-7/h3-5H,1-2H2,(H,8,9)/t3-,4+,5-/m1/s1
