14
gdb 48519	2.82257	1.70231	1.20998	3.1408	67.17	-0.2576	-0.0578	0.1998	977.2527	0.100469	-436.644989	-436.637786	-436.636842	-436.677018	26.52	
O	 0.1045135356	-0.0558076472	 0.0677290809	-0.249297
C	 0.0464152364	 1.1490523056	 0.0842921403	 0.059309
C	 1.2345038428	 2.0225940566	-0.0679232302	 0.062081
C	 2.5295112223	 1.52351301	-0.6804092692	-0.040939
C	 3.4158733975	 2.7091765784	-1.0322194188	-0.258348
C	 2.9044271109	 3.2717096567	 0.314693265	-0.143194
N	 2.5363302992	 1.8057052638	 0.7592327748	-0.15354
C	 1.4069132673	 3.497587544	 0.1025049271	 0.419816
O	 0.6586972371	 4.4225234577	 0.2323936883	-0.325912
H	-0.9112548249	 1.6927263082	 0.2130418055	 0.109636
H	 2.5450091629	 0.5036881523	-1.0498387909	 0.137559
H	 4.4693709877	 2.4257663279	-0.9762714136	 0.135557
H	 3.2280797512	 3.286507725	-1.9411556614	 0.126966
H	 3.4963028838	 3.907925711	 0.9668608122	 0.120306
96.1489	146.9465	178.1402	225.6109	346.5174	403.3219	587.9203	595.0431	669.1756	689.7112	761.8137	810.9153	842.8341	906.2678	935.1838	988.7598	997.8677	1014.7766	1040.593	1081.211	1138.3401	1162.2719	1219.556	1241.1581	1265.4786	1280.6742	1372.4401	1428.0907	1495.8115	1805.9916	1893.2579	2932.8742	3064.6703	3123.2142	3171.5478	3186.6578
O=CC12C3CC(N13)C2=O	O=C[C@]12[C@H]3C[C@H](N13)C2=O	
InChI=1S/C6H5NO2/c8-2-6-4-1-3(5(6)9)7(4)6/h2-4H,1H2	InChI=1S/C6H5NO2/c8-2-6-4-1-3(5(6)9)7(4)6/h2-4H,1H2/t3-,4+,6+,7?/m0/s1
