18
gdb 40504	4.43389	1.22343	1.16233	2.9408	75.34	-0.2433	0.0746	0.3179	1098.1436	0.148878	-401.863695	-401.856504	-401.85556	-401.895694	28.187	
C	-0.3794917056	 1.2607556782	-0.304267291	-0.184572
O	 0.7141821252	 1.4363305702	 0.5961375019	-0.231521
C	 0.2991298796	 0.1005892068	 0.2913203511	-0.046304
C	-0.3085523325	-0.6742043307	 1.3962556163	 0.354363
C	-1.0552808972	-0.1287319025	 2.6022718822	-0.301689
C	-0.6881660453	-1.4804771552	 3.2404315437	-0.009232
C	-1.469517752	-2.5544619875	 2.457443219	-0.240392
C	-0.5576127983	-2.1508339039	 1.3133673704	-0.088165
N	 0.5069301383	-1.6288745642	 2.2387102344	-0.198187
H	-1.3521531684	 1.5682800677	 0.0773168212	 0.113882
H	-0.183511378	 1.524668739	-1.3425464806	 0.117409
H	 1.0050497103	-0.4573352653	-0.325216945	 0.098057
H	-0.495005279	 0.6980161998	 3.0434458334	 0.129562
H	-2.1146046159	 0.1357011011	 2.514456186	 0.092982
H	-0.5013163877	-1.573677074	 4.3079880597	 0.087228
H	-1.2275016163	-3.5612513361	 2.8069391399	 0.115428
H	-2.5543001267	-2.444026316	 2.3554392978	 0.097509
H	-0.2972401803	-2.7257038176	 0.4309486796	 0.093642
68.7975	162.6014	170.9108	361.7999	369.777	408.5605	534.3127	628.5655	746.4883	761.642	798.7807	841.0444	845.881	882.4115	908.5561	939.1617	950.9335	990.6444	1001.5491	1013.2278	1032.5871	1072.3889	1096.3946	1126.1715	1148.1522	1155.3861	1165.448	1193.837	1207.5445	1236.3987	1268.1804	1276.3357	1292.8939	1339.2188	1380.0846	1461.038	1490.0981	1507.2762	1529.1086	3039.6442	3044.8128	3083.0503	3105.3146	3107.0474	3120.1687	3143.3167	3169.7949	3172.5353
C1OC1C12CC3CC1N23	C1O[C@H]1[C@@]12C[C@H]3C[C@@H]1N23	
InChI=1S/C7H9NO/c1-4-2-7(6-3-9-6)5(1)8(4)7/h4-6H,1-3H2	InChI=1S/C7H9NO/c1-4-2-7(6-3-9-6)5(1)8(4)7/h4-6H,1-3H2/t4-,5+,6-,7-,8?/m1/s1
