16
gdb 45666	3.4114	1.7183	1.33162	2.4792	76.09	-0.2158	-0.0242	0.1916	936.3322	0.126962	-400.708209	-400.701723	-400.700779	-400.738884	26.742	
O	-0.083146035	-0.0682066121	-0.170324305	-0.352064
C	-0.0709371742	 1.1305469626	-0.018474052	 0.393112
N	-1.2430007155	 1.901003255	-0.1570876578	-0.322926
C	-1.22685195	 3.1228575393	 0.5153040302	-0.048498
C	-0.1131240671	 3.8698913616	 0.4335007345	 0.053594
C	 0.7315420794	 4.1183118186	 1.6875957442	-0.279582
C	 1.7241247695	 3.1407841657	 1.0089143971	-0.061499
C	 1.1052945052	 3.3529786489	-0.3466737855	-0.141737
C	 1.1997220012	 1.9434460023	 0.1305952494	-0.136505
H	-2.0900782848	 1.3559336442	-0.2295325775	 0.252576
H	-1.9825032395	 3.2840784089	 1.2817648729	 0.111696
H	 1.2073710758	 5.1041662254	 1.7408232606	 0.111752
H	 0.2952077269	 3.860830121	 2.656419012	 0.103405
H	 2.7853443638	 3.1028024636	 1.2362684939	 0.101247
H	 1.5220488008	 3.7640662036	-1.2573206263	 0.100461
H	 2.0462554034	 1.3456797514	-0.1966270206	 0.114969
123.6123	267.4801	347.5223	419.272	452.0023	505.0972	529.6241	614.3408	663.0404	736.2953	763.3928	799.3838	816.5754	849.9281	886.4904	901.183	950.9097	975.5738	994.8853	1048.1845	1056.4241	1069.8842	1104.819	1132.1157	1165.7983	1226.7498	1236.6168	1264.4759	1316.9234	1355.7268	1374.9755	1422.7437	1496.6253	1670.45	1811.3278	3033.7999	3095.9465	3138.2124	3149.8948	3159.3617	3191.8508	3610.1608
O=C1NC=C2CC3C2C13	O=C1N[CH][C]2C[C@@H]3[C@H]2[C@H]13	
InChI=1S/C7H7NO/c9-7-6-4-1-3(2-8-7)5(4)6/h2,4-6H,1H2,(H,8,9)	InChI=1S/C7H7NO/c9-7-6-4-1-3(2-8-7)5(4)6/h2,4-6H,1H2,(H,8,9)/t4-,5+,6-/m1/s1
