20
gdb 98665	2.80855	1.09604	0.92202	2.9864	76.49	-0.2336	0.0332	0.2667	1356.7578	0.170199	-440.309957	-440.30014	-440.299196	-440.345833	34.773	
C	 0.5779801249	 1.3205279682	-1.0655111948	-0.332242
N	 0.6076388732	-0.1260728244	-1.0358774802	-0.303552
C	-0.3229389206	-0.8673821367	-0.3869612561	 0.360109
O	-1.2947655843	-0.4259980743	 0.2036206762	-0.391769
C	-0.0752005158	-2.3702440158	-0.4556013116	 0.049254
C	-1.015259465	-3.1721429839	-1.3817630612	-0.306245
C	 0.2815393114	-3.5913979693	-2.1109315229	 0.166549
C	 0.440011213	-3.2171411709	-3.5697432191	-0.400691
O	 1.0859299037	-2.7528046617	-1.2300077848	-0.32227
H	 1.4604579273	 1.7489964859	-0.5769352421	 0.126594
H	 0.53203854	 1.6978758937	-2.0932060838	 0.123868
H	-0.3162604689	 1.6403444479	-0.5281172051	 0.167627
H	 1.3611714247	-0.6407301356	-1.4667926297	 0.258611
H	-0.0195593729	-2.74785101	 0.5717541567	 0.107709
H	-1.5771754147	-3.9737264259	-0.9029281892	 0.118416
H	-1.6962401086	-2.5566690264	-1.9722953885	 0.123612
H	 0.5467262397	-4.6448560571	-1.9555312594	 0.083292
H	 0.1633023953	-2.1709067406	-3.7338932842	 0.120707
H	 1.4766234043	-3.3574425681	-3.8923940743	 0.127644
H	-0.2004850969	-3.848198075	-4.1954729559	 0.122776
44.263	60.1818	94.0127	131.2245	194.5149	234.8746	275.7769	324.9805	333.052	420.3633	474.5198	579.6736	641.327	739.0454	750.7754	837.3046	889.7272	898.3784	921.9456	975.5985	1027.3632	1080.1196	1097.5143	1114.5033	1131.0184	1155.0015	1179.959	1197.8575	1248.5447	1253.534	1267.3428	1319.7807	1339.1678	1388.5909	1408.8953	1439.6008	1482.8364	1491.9523	1496.3567	1498.7348	1499.5461	1571.7241	1781.8271	3021.5009	3026.3219	3032.8713	3045.1699	3077.6308	3086.3754	3106.4289	3111.936	3144.5825	3146.1927	3616.3444
CNC(=O)C1CC(C)O1	CNC(=O)[C@H]1C[C@@H](C)O1	
InChI=1S/C6H11NO2/c1-4-3-5(9-4)6(8)7-2/h4-5H,3H2,1-2H3,(H,7,8)	InChI=1S/C6H11NO2/c1-4-3-5(9-4)6(8)7-2/h4-5H,3H2,1-2H3,(H,7,8)/t4-,5-/m1/s1
