19
gdb 36357	3.86992	0.89235	0.8186	2.2782	81.7	-0.2534	0.0604	0.3138	1436.4088	0.157618	-385.816711	-385.80761	-385.806665	-385.851189	33.8	
C	-0.0761867185	-0.9268670748	-0.7545038476	-0.448023
C	-0.0462484553	 0.1736323639	-0.271924743	 0.305562
C	 0.0151066067	 1.5076902137	 0.3188796456	-0.391962
C	 1.4318004278	 2.0710808638	 0.3268887614	-0.001401
C	 1.963122122	 2.821183682	-0.8676317231	-0.294362
C	 1.6983697815	 3.5583545725	 0.4216995298	-0.064034
C	 0.5960136488	 4.5675603181	 0.5178425625	 0.060907
C	 0.4665735116	 5.6761700031	-0.4396178243	-0.17847
O	-0.4152125458	 4.5517282255	-0.4937962309	-0.227956
H	-0.1138449363	-1.8962685703	-1.1854232157	 0.191359
H	-0.6485766962	 2.1844059577	-0.2290504514	 0.161841
H	-0.3713434934	 1.4628688042	 1.346175517	 0.125533
H	 2.1445881184	 1.4371427588	 0.8465554653	 0.094826
H	 2.9893570803	 2.6609146298	-1.177600374	 0.111125
H	 1.263221075	 3.0012414226	-1.6767990054	 0.132888
H	 2.5659238365	 3.8368936871	 1.0157480065	 0.091187
H	 0.2004359236	 4.7308067823	 1.5223193145	 0.09495
H	 0.0048343402	 6.6125055324	-0.130777761	 0.11712
H	 1.175539143	 5.7482941177	-1.2624962161	 0.118908
56.6083	93.9155	103.0106	176.5348	213.5469	306.6929	336.9488	356.3995	478.3219	534.8922	602.8758	610.4173	633.7116	733.0627	811.4191	850.0024	864.6919	886.6543	924.2708	943.5342	993.7036	1008.7536	1065.818	1076.9831	1099.2941	1115.1173	1137.3306	1155.7085	1166.5276	1174.1379	1229.9377	1258.306	1291.9128	1324.6707	1385.2829	1417.9198	1435.0273	1473.6388	1492.2921	1524.4405	2238.1308	3017.638	3080.1146	3086.0185	3090.8399	3131.2203	3136.1803	3149.7556	3179.3415	3224.7551	3508.1139
C#CCC1CC1C1CO1	C#CC[C@H]1C[C@H]1[C@H]1CO1	
InChI=1S/C8H10O/c1-2-3-6-4-7(6)8-5-9-8/h1,6-8H,3-5H2	InChI=1S/C8H10O/c1-2-3-6-4-7(6)8-5-9-8/h1,6-8H,3-5H2/t6-,7+,8+/m0/s1
