22
gdb 36856	3.59959	1.09729	1.02911	1.1914	85.91	-0.2185	0.0819	0.3004	1272.4601	0.195207	-367.14479	-367.136272	-367.135328	-367.178319	33.214	
C	-0.2192025483	 1.5435344859	-0.744840322	-0.253258
N	-0.8400449474	 0.2836438746	-0.3219932241	-0.072555
C	-0.010863314	-0.8817513683	-0.0466233283	-0.224556
C	-0.7173278882	-0.1686579375	 1.0566542535	-0.220719
C	 1.103647761	 1.9723283724	-0.153888046	 0.344567
C	 1.2258547774	 2.7059873103	 1.1591367351	-0.310396
C	 1.6642309572	 3.4043181333	-0.0947015073	-0.108484
C	 3.0503286042	 2.9120978676	-0.5231454878	-0.232289
C	 2.4943590212	 1.4533331443	-0.5729946253	-0.276949
H	-0.1147086984	 1.4796658056	-1.8361401711	 0.101623
H	-0.9552891137	 2.3341798469	-0.5485548132	 0.101235
H	-0.3898510413	-1.8266273697	-0.42799689	 0.110614
H	 1.0709612595	-0.7817169402	-0.080709635	 0.115887
H	-0.0992987679	 0.4015317598	 1.745033788	 0.118593
H	-1.6217263904	-0.5854628594	 1.4926210411	 0.109974
H	 0.2891835898	 3.0562562591	 1.5821743347	 0.111951
H	 1.9596837747	 2.3964666756	 1.901523528	 0.101911
H	 1.1906380114	 4.3223252398	-0.4239694982	 0.085042
H	 3.3506353063	 3.2731524244	-1.5091781524	 0.104059
H	 3.8656622573	 3.1087307154	 0.1812239519	 0.095485
H	 2.9614269306	 0.7258302562	 0.0998882866	 0.093958
H	 2.5016649289	 1.0407656938	-1.5852552782	 0.104304
52.8731	113.4448	143.4593	218.5725	288.8269	333.9332	375.5692	402.0905	451.9486	688.5019	726.4881	749.4311	786.1787	825.0219	848.1958	874.5407	897.3145	932.5639	941.9059	958.951	970.5456	1012.7382	1025.7664	1043.4214	1050.414	1087.7529	1112.6078	1116.534	1120.8989	1151.317	1170.6537	1182.2073	1219.6632	1226.7715	1246.4376	1270.6928	1288.7404	1324.4545	1341.6191	1376.2182	1392.9272	1470.459	1481.7032	1485.4804	1491.8671	1509.4096	1519.6688	3009.8913	3035.755	3046.0439	3047.311	3089.031	3095.584	3103.7638	3107.6523	3109.8865	3171.6718	3181.4103	3191.259	3195.7179
C(N1CC1)C12CC1CC2	C(N1CC1)[C@]12C[C@H]1CC2	
InChI=1S/C8H13N/c1-2-8(5-7(1)8)6-9-3-4-9/h7H,1-6H2	InChI=1S/C8H13N/c1-2-8(5-7(1)8)6-9-3-4-9/h7H,1-6H2/t7-,8+/m1/s1
