21
gdb 117788	2.47041	1.13295	0.96965	3.3963	79.39	-0.2404	0.0282	0.2686	1348.6024	0.179909	-420.393791	-420.382632	-420.381687	-420.430351	38.951	
C	-0.0010791358	 1.4392102504	 0.2558725244	-0.33681
N	-0.0779448938	 0.0070782004	-0.0254111898	-0.307972
C	-1.4211348196	-0.5708176676	-0.159128825	 0.066062
C	-2.2806601334	 0.0054798621	-1.3063287389	-0.412731
C	-1.2068123747	-2.0975190499	-0.3750200333	-0.091324
O	-2.4077515825	-2.8018408422	-0.5632662599	-0.239893
C	-2.8324509695	-3.5771436942	 0.547060998	-0.253918
C	-2.1355689077	-0.3679354296	 1.1186883222	 0.328885
N	-2.7087540884	-0.2042990858	 2.1089035253	-0.361299
H	 1.0523651711	 1.7164737711	 0.349980342	 0.127251
H	-0.4580461524	 2.0886354037	-0.5072534983	 0.105249
H	-0.4868779135	 1.6481030741	 1.2133569105	 0.152305
H	 0.4352207308	-0.2029335157	-0.875813821	 0.222579
H	-1.7317859763	-0.0957532637	-2.2488728868	 0.113103
H	-3.2159069328	-0.5511121667	-1.390662781	 0.151823
H	-2.5100851521	 1.0609138068	-1.1459455615	 0.132211
H	-0.6090559444	-2.2060638789	-1.2912219628	 0.100512
H	-0.6182455354	-2.4916156831	 0.461485704	 0.118997
H	-3.7577379001	-4.0732118107	 0.2454148342	 0.131303
H	-2.087419066	-4.3437255607	 0.8043436725	 0.110799
H	-3.0299318034	-2.9604739499	 1.4314417353	 0.142868
53.3937	90.5167	102.76	136.3866	165.3698	175.3345	211.4483	236.3824	245.915	294.3229	366.7277	380.9556	435.5936	462.4683	579.7567	630.0902	692.6063	749.9166	889.1528	926.8525	964.571	978.9031	1080.2057	1114.788	1132.8681	1155.3972	1177.7814	1188.4277	1197.1551	1227.1123	1266.4107	1321.6814	1385.9737	1404.2266	1460.2498	1473.3668	1476.8359	1484.8875	1489.2366	1496.8618	1499.3796	1508.8126	1511.6198	1524.7757	2353.4763	2980.8743	2995.6669	3003.9899	3043.2337	3066.7077	3071.3885	3079.0707	3119.1496	3121.0961	3124.6134	3145.5249	3518.5657
CNC(C)(COC)C#N	CN[C@@](C)(COC)C#N	
InChI=1S/C6H12N2O/c1-6(4-7,8-2)5-9-3/h8H,5H2,1-3H3	InChI=1S/C6H12N2O/c1-6(4-7,8-2)5-9-3/h8H,5H2,1-3H3/t6-/m1/s1
