17
gdb 19016	4.82627	1.91025	1.68482	1.9947	67.47	-0.2098	0.0731	0.283	808.6043	0.143469	-363.781466	-363.775119	-363.774175	-363.811713	25.498	
C	 0.0252325156	 1.4897396236	-0.1156158694	-0.326842
N	-0.0329520114	 0.0475021008	 0.0494638613	-0.075478
C	-1.4003930914	-0.5050776939	 0.2494688485	-0.201261
C	-1.1741485842	-1.3868976638	 1.470513806	-0.057095
C	-0.2478059509	-0.6242238664	 2.466343055	 0.039178
O	 0.4410925856	-1.8625928456	 2.8434424022	-0.316235
C	 0.275263405	-1.9616265517	 1.3914634357	 0.043029
C	 0.6724880217	-0.4774514311	 1.1948559829	 0.001123
H	 1.0679667165	 1.806270135	-0.218522895	 0.122208
H	-0.5014187533	 1.7769451278	-1.0311414699	 0.12251
H	-0.4225590933	 2.054030147	 0.7238705022	 0.093022
H	-2.1329827409	 0.2893607133	 0.4498273817	 0.097355
H	-1.7409438466	-1.0625557794	-0.6308802438	 0.109393
H	-1.9765173234	-2.0121144721	 1.8585953013	 0.081819
H	-0.506307499	 0.0756286899	 3.2611951999	 0.088532
H	 0.643727635	-2.853835833	 0.8854960174	 0.091998
H	 1.7115418449	-0.1703567305	 1.304366054	 0.086744
135.6629	224.2278	294.2497	367.2307	461.1797	505.6762	620.2193	688.362	767.964	774.6475	843.7442	884.7631	899.7279	925.977	962.3911	974.4459	998.5923	1039.859	1049.119	1127.9846	1128.5888	1149.9701	1159.7509	1167.3612	1186.923	1221.9301	1235.2922	1243.9737	1269.276	1301.1193	1335.0709	1386.5194	1460.9873	1489.0903	1504.7605	1517.2026	2930.5497	3006.0045	3049.872	3061.7458	3103.7521	3113.2174	3119.7617	3140.3051	3146.6299
CN1CC2C3OC2C13	CN1C[C@@H]2[C@H]3O[C@@H]2[C@@H]13	
InChI=1S/C6H9NO/c1-7-2-3-5-4(7)6(3)8-5/h3-6H,2H2,1H3	InChI=1S/C6H9NO/c1-7-2-3-5-4(7)6(3)8-5/h3-6H,2H2,1H3/t3-,4+,5-,6+
