17
gdb 38549	3.12394	2.30028	1.92668	0.9361	75.83	-0.206	-0.0047	0.2013	784.4277	0.139325	-384.637571	-384.631996	-384.631052	-384.667023	24.951	
C	-0.1502452532	 1.3883085132	 0.0844736908	-0.293482
C	 1.4183057005	 1.2908666499	 0.0420116916	 0.115973
O	 1.9549771479	 0.5482882729	 1.1462266587	-0.272857
C	 2.3687772838	-0.7435585771	 0.7442483424	 0.097651
C	 1.3166238994	-1.7695488286	 0.2530347963	-0.141691
C	-0.0374547958	-1.1619501923	 0.2704372281	-0.116166
C	-0.0407389233	-0.0322535423	-0.4537212317	 0.085396
C	 1.3225458668	 0.2228813389	-1.1008647981	-0.095014
C	 2.1906429733	-0.9493116241	-0.7178219858	-0.126602
H	-0.6185142097	 1.5357929997	 1.0580630331	 0.113974
H	-0.4999575702	 2.139198067	-0.6321610198	 0.102588
H	 1.9810154269	 2.2223584704	-0.0957755222	 0.076586
H	 3.2324655785	-1.0957814722	 1.2959861182	 0.103375
H	 1.5161965235	-2.8188174198	 0.4447283908	 0.085098
H	-0.7482282304	-1.3838628586	 1.0594793167	 0.097863
H	 1.347583069	 0.5986280561	-2.1230728357	 0.074862
H	 2.9332972129	-1.3880454231	-1.3696300534	 0.092446
302.4391	373.052	397.2967	543.4797	592.8717	668.6698	711.9552	737.2673	755.3052	799.2762	811.893	824.7539	859.7405	890.2783	898.748	930.0065	945.5839	972.5205	997.1095	1002.4731	1032.5489	1052.658	1075.824	1085.0995	1106.8724	1130.2896	1138.3939	1206.8861	1235.7291	1261.4559	1278.3242	1298.0338	1327.2874	1340.3503	1379.0855	1478.652	1648.1076	3024.7859	3049.778	3118.3622	3133.6719	3161.6963	3182.2858	3185.789	3209.768
C1C2OC3C4C=C1C2C34	C1[C@H]2O[C@H]3[C@H]4[CH][C]1[C@@H]2[C@@H]34	
InChI=1S/C8H8O/c1-3-2-5-6(3)7-4(1)8(7)9-5/h1,4-8H,2H2	InChI=1S/C8H8O/c1-3-2-5-6(3)7-4(1)8(7)9-5/h1,4-8H,2H2/t4-,5+,6-,7-,8-/m0/s1
