20
gdb 55102	4.30175	0.93663	0.83378	3.9556	82.29	-0.2323	0.0344	0.2667	1424.5517	0.169844	-403.152974	-403.143557	-403.142612	-403.188409	33.845	
C	-0.0666335717	 1.4755902371	 0.3247006014	-0.488818
C	 0.0193330236	-0.038243765	 0.2046100461	 0.370486
O	 1.0536402506	-0.6680728982	 0.3480737024	-0.370632
N	-1.1566871011	-0.6605140393	-0.0730650713	-0.071444
C	-2.4897023367	-0.2072299266	-0.4854282596	-0.252916
C	-2.811400749	-1.677439931	-0.8059126	 0.336825
C	-4.0828260135	-2.4129480043	-0.5228483961	-0.318429
C	-3.6173066695	-2.2070297397	-1.9490120547	-0.317684
C	-1.3820109383	-2.0714172767	-0.3932093692	-0.237678
H	 0.9001268775	 1.8521947667	 0.6574076104	 0.146681
H	-0.312613843	 1.9283459182	-0.6423562368	 0.134971
H	-0.842585385	 1.7777309687	 1.0353813173	 0.132498
H	-3.0820273352	 0.2455069937	 0.3200886719	 0.111699
H	-2.4880371654	 0.4711868855	-1.3487310312	 0.110764
H	-4.0115105753	-3.4098031793	-0.0995137042	 0.120629
H	-4.9385952543	-1.8417917548	-0.1768628236	 0.117062
H	-4.1588669707	-1.4969147196	-2.5660858163	 0.116815
H	-3.2309085405	-3.0643554618	-2.4909511596	 0.120708
H	-0.7353270037	-2.4442351864	-1.1959501245	 0.120051
H	-1.2958623385	-2.7405378772	 0.4704056974	 0.118412
32.188	87.3833	103.9606	141.5134	146.5569	287.0056	306.6306	351.4993	387.8087	512.0362	591.7327	595.9334	683.7951	771.9716	863.2036	876.3683	899.3902	910.3369	961.5808	994.3252	1022.518	1049.593	1056.4684	1080.6166	1103.3909	1122.3521	1132.9683	1174.2984	1187.5781	1190.5497	1248.4091	1295.5893	1304.8457	1379.4457	1400.1089	1452.9607	1464.4512	1473.3919	1483.7394	1506.5824	1513.1209	1526.7482	1766.5821	3002.1533	3027.5981	3040.2627	3042.1212	3068.8595	3101.0764	3123.4583	3127.0531	3160.7915	3201.7503	3216.4039
CC(=O)N1CC2(CC2)C1	CC(=O)N1CC2(CC2)C1	
InChI=1S/C7H11NO/c1-6(9)8-4-7(5-8)2-3-7/h2-5H2,1H3	InChI=1S/C7H11NO/c1-6(9)8-4-7(5-8)2-3-7/h2-5H2,1H3
