16
gdb 47193	2.24315	1.70967	1.00824	4.0081	73.66	-0.2567	-0.0614	0.1952	1120.6018	0.126625	-437.963122	-437.955449	-437.954505	-437.995853	28.714	
O	 0.018479142	-0.0629425852	 0.3945168831	-0.334592
C	-0.0262185918	 1.1274980663	 0.1718887585	 0.393174
C	-1.3316504248	 1.8525270348	-0.0803577408	-0.30915
C	-1.5532836247	 3.1287348463	 0.7431238577	-0.277754
C	-0.7174936749	 4.2953346131	 0.3035799974	-0.070861
C	 0.54472849	 4.277146405	-0.1330990831	-0.114677
C	 1.5233600014	 3.1685373233	-0.1767738274	 0.38825
O	 2.6961664098	 3.4055367052	-0.3969865213	-0.343803
N	 1.1644142498	 1.8449929623	 0.1039583374	-0.374421
H	-1.3858710621	 2.100483532	-1.1478278951	 0.134916
H	-2.1132964896	 1.1206397527	 0.1296126939	 0.139377
H	-2.6089791641	 3.4075532183	 0.6669167061	 0.125104
H	-1.3799808518	 2.9252853568	 1.8094895454	 0.140297
H	-1.2075966101	 5.2658448345	 0.3414957527	 0.116306
H	 1.0193613514	 5.2061992478	-0.4306973938	 0.124036
H	 1.9794500995	 1.2444764068	 0.1644956692	 0.263798
65.4486	124.3672	182.7425	304.4161	346.3262	350.8438	428.7344	542.2554	556.023	645.011	659.4692	707.8148	778.8037	823.8654	846.7069	870.7106	907.7469	979.4304	1020.1457	1044.7459	1074.351	1181.3941	1227.5048	1251.7209	1317.45	1342.1599	1373.4377	1391.377	1421.3472	1433.4012	1470.4943	1475.6208	1706.8765	1763.9899	1795.812	3015.8201	3042.0546	3073.6394	3123.9936	3151.4838	3195.6912	3566.8188
O=C1CCC=CC(=O)N1	O=C1CCC=CC(=O)N1	
InChI=1S/C6H7NO2/c8-5-3-1-2-4-6(9)7-5/h1,3H,2,4H2,(H,7,8,9)	InChI=1S/C6H7NO2/c8-5-3-1-2-4-6(9)7-5/h1,3H,2,4H2,(H,7,8,9)
