16
gdb 8639	2.44928	1.79972	1.40973	4.3215	70.89	-0.2463	0.0043	0.2506	968.2157	0.12779	-342.74176	-342.732545	-342.7316	-342.775134	33.168	
C	-0.0483823128	 1.4763288167	 0.1225073456	-0.338051
N	-0.0369088715	 0.0269370938	-0.051345271	-0.297891
C	 0.706083144	-0.4899565736	-1.2115581441	-0.094133
C	 2.1878765401	-0.0267852571	-1.3160225527	-0.409699
C	 0.6677189908	-1.9588755359	-1.154216428	 0.335165
C	 0.6829225562	-3.156075422	-1.0735703688	-0.423945
C	-0.0027551564	-0.0428066142	-2.4395061619	 0.325051
N	-0.5222509779	 0.336436927	-3.3986331165	-0.344731
H	 0.9362586538	 1.9357065996	 0.3006079907	 0.106298
H	-0.4879523828	 1.9435758105	-0.7640482987	 0.152227
H	-0.6918963526	 1.7123864693	 0.9740225332	 0.132311
H	 0.3079059967	-0.4427973996	 0.7780562922	 0.232138
H	 2.7229885136	-0.3453599838	-0.4176120842	 0.128916
H	 2.6673497384	-0.4750518651	-2.1888883422	 0.147624
H	 2.2454718678	 1.0597264138	-1.4061625953	 0.139275
H	 0.6775462624	-4.2169111196	-1.0145939184	 0.209445
94.6568	128.6139	154.9105	181.2169	221.1924	231.0719	286.1061	319.8608	410.5098	481.0341	513.0406	567.1623	587.4555	648.6213	665.2818	678.3104	715.5121	921.5074	931.8149	1036.9194	1095.9591	1125.3614	1156.0071	1200.5874	1254.8377	1398.7018	1454.4382	1467.8774	1480.421	1492.5584	1504.4235	1521.3154	2247.9155	2362.5139	2982.5332	3053.3682	3078.3353	3118.9187	3136.0026	3143.3921	3499.8484	3543.3957
CNC(C)(C#C)C#N	CN[C@@](C)(C#C)C#N	
InChI=1S/C6H8N2/c1-4-6(2,5-7)8-3/h1,8H,2-3H3	InChI=1S/C6H8N2/c1-4-6(2,5-7)8-3/h1,8H,2-3H3/t6-/m0/s1
