21
gdb 104916	1.99552	1.54866	1.0372	4.8771	84.27	-0.2318	0.0323	0.2641	1249.2935	0.180433	-383.266871	-383.256433	-383.255489	-383.301809	38.473	
C	 0.3338471103	 1.3417225372	 0.3300086483	-0.33022
N	-0.2311018912	 0.1413793564	-0.274577114	-0.346517
C	 0.5667437471	-0.4633072178	-1.3036314112	 0.142379
C	 1.9543620228	-1.0720896996	-1.031253534	-0.358134
C	 0.795667175	-1.9783185109	-1.3504419608	 0.264617
C	 0.2117568467	-2.8260896277	-0.2330454859	-0.463987
C	 0.7701062005	-2.6706788116	-2.7015457016	-0.457634
C	 0.4253350719	 0.2279666599	-2.5714949615	 0.297505
N	 0.326324979	 0.7968592207	-3.5741904027	-0.366328
H	 1.325413591	 1.1918916262	 0.7888299051	 0.10027
H	 0.4328092889	 2.1207373137	-0.4326976469	 0.145758
H	-0.3524009448	 1.7112051397	 1.096510967	 0.123998
H	-0.5123546961	-0.534001918	 0.4207509233	 0.228856
H	 2.7296257372	-0.9313119819	-1.776386959	 0.130609
H	 2.2952256726	-1.0175007224	-0.0024131997	 0.119273
H	 0.3433582195	-2.3777233034	 0.7555124816	 0.115402
H	-0.8562015768	-3.0143476126	-0.3899957952	 0.132341
H	 0.7180227723	-3.7971161641	-0.2106012352	 0.13005
H	 1.3702344321	-3.5864144377	-2.6620877032	 0.119038
H	-0.2520871673	-2.9500690304	-2.9789731503	 0.128204
H	 1.1691654791	-2.0366787857	-3.4958551542	 0.144519
75.4664	118.1343	151.3708	166.7234	186.2781	205.2508	239.5321	290.3632	331.5317	367.632	379.4067	414.003	479.288	575.5879	588.8135	606.9399	681.9085	762.2757	889.3669	906.9271	932.5578	969.7961	980.6829	1031.4499	1054.4783	1070.5159	1122.7449	1151.1459	1156.6369	1189.0439	1249.9475	1323.2678	1358.796	1408.8109	1426.0901	1460.4442	1469.193	1478.6837	1486.5131	1489.0342	1492.3217	1506.1435	1510.	1521.0275	2345.3639	2967.2593	3030.4483	3035.7889	3072.0926	3093.1957	3096.7189	3106.7044	3116.8343	3129.3182	3131.4857	3221.566	3598.1083
CNC1(CC1(C)C)C#N	CN[C@]1(CC1(C)C)C#N	
InChI=1S/C7H12N2/c1-6(2)4-7(6,5-8)9-3/h9H,4H2,1-3H3	InChI=1S/C7H12N2/c1-6(2)4-7(6,5-8)9-3/h9H,4H2,1-3H3/t7-/m1/s1
