18
gdb 86583	2.87074	1.20832	0.91508	6.3935	68.49	-0.252	0.0144	0.2664	1263.2572	0.146862	-476.229913	-476.220673	-476.219729	-476.264474	33.638	
C	-0.2365194743	 1.5080981857	-0.1812073953	-0.408759
C	 0.0134544927	 0.0171211442	-0.0539994579	 0.125207
O	 1.1637540703	-0.4221208866	-0.8312552627	-0.291795
C	 1.9484203578	-0.6080002107	 0.346084859	 0.005627
C	 0.7069117474	-0.4926080654	 1.253650308	-0.070002
N	 0.8974372849	 0.2581379031	 2.4714439581	-0.527391
H	 1.0983018816	 1.2356529588	 2.2848115019	 0.239315
H	 0.0824243399	 0.2199886747	 3.0738503546	 0.244001
H	 2.879521719	-1.389062497	 2.3045995801	 0.311439
C	 2.7367190284	-1.8977083546	 0.4555842013	 0.38765
O	 2.9439378105	-2.683513137	-0.4199720931	-0.309214
O	 3.2104457349	-2.0872455473	 1.7170989493	-0.378402
H	 0.6418819167	 2.0956008849	 0.1070019787	 0.114788
H	-0.4751591002	 1.7570497821	-1.2189802512	 0.14177
H	-1.0808479431	 1.8141727402	 0.4462688394	 0.116985
H	-0.8783675866	-0.5481826045	-0.3475883099	 0.087756
H	 2.6478993191	 0.230205525	 0.5071402053	 0.096855
H	 0.3238551008	-1.4810680756	 1.5208201242	 0.114171
58.7059	83.0705	130.2713	197.7131	223.2735	252.0042	299.3459	376.1785	381.5674	467.0867	548.9436	585.8632	638.55	724.7142	729.3163	783.0987	866.4876	890.7416	926.8548	1011.814	1034.6602	1066.5782	1086.9575	1128.2971	1172.5483	1179.343	1184.1922	1255.6691	1281.2279	1310.1288	1326.4759	1372.4468	1392.6444	1405.326	1439.1968	1482.6103	1493.7922	1659.6101	1896.8129	2958.6213	3032.3343	3038.9823	3079.5047	3101.0574	3116.4054	3502.8629	3587.8766	3703.1185
CC1OC(C1[NH3+])C([O-])=O	C[C@H]1O[C@@H]([C@H]1N)C(=O)O	
InChI=1S/C5H9NO3/c1-2-3(6)4(9-2)5(7)8/h2-4H,6H2,1H3,(H,7,8)	InChI=1S/C5H9NO3/c1-2-3(6)4(9-2)5(7)8/h2-4H,6H2,1H3,(H,7,8)/t2-,3+,4+/m1/s1
