18
gdb 92845	2.95315	1.54745	1.29053	2.3604	72.16	-0.2488	0.0111	0.2599	1030.2187	0.14873	-439.06817	-439.060399	-439.059455	-439.10071	29.756	
C	 0.7772012065	 1.2610533777	 0.1320112204	-0.385596
C	-0.1515629964	 0.0558181517	 0.0025497633	 0.119984
C	 0.1234626504	-0.7782336038	-1.2742924535	-0.198385
N	 1.422695	-1.4836453142	-1.2024115688	-0.309423
C	 1.468354827	-2.0542110804	-0.0851500143	 0.427174
O	 2.5006745962	-2.6462729362	 0.5894077925	-0.272721
C	 1.8036142442	-2.3888874261	 1.8659420213	-0.126553
C	 0.5263140985	-1.9902389977	 1.0755452672	-0.01824
O	-0.0677768996	-0.7292098527	 1.2239545425	-0.294798
H	 1.8262043171	 0.9545596576	 0.0975535355	 0.134189
H	 0.5998827818	 1.9703285187	-0.6831684389	 0.11528
H	 0.5935075787	 1.7721476292	 1.0806224478	 0.123303
H	-1.1914043493	 0.4023174591	-0.0418959944	 0.087551
H	-0.698370604	-1.4893507113	-1.4339761676	 0.110426
H	 0.1352663389	-0.1045954818	-2.1350243389	 0.117258
H	 1.7583562975	-3.2899278055	 2.479338657	 0.12714
H	 2.2747047284	-1.5594855137	 2.3973731321	 0.136631
H	-0.227214936	-2.7883387406	 1.1006351068	 0.106778
57.1845	147.7016	233.8681	278.3495	346.6217	355.175	389.1565	427.7327	520.8702	623.154	723.3609	755.8353	776.7837	845.6544	899.1188	924.3747	942.3308	968.6	993.6418	1061.6307	1093.737	1110.2619	1135.4206	1146.696	1172.2207	1201.3649	1238.3466	1260.7808	1320.289	1343.9883	1360.5277	1376.7133	1390.9252	1409.3528	1486.3089	1495.9472	1497.4209	1502.7323	1812.5409	3011.6446	3016.2166	3031.8277	3042.1127	3075.1901	3092.0987	3114.1308	3127.0153	3148.1305
CC1CN=C2OCC2O1	C[C@H]1C[N][C]2OC[C@H]2O1	
InChI=1S/C6H9NO2/c1-4-2-7-6-5(9-4)3-8-6/h4-5H,2-3H2,1H3	InChI=1S/C6H9NO2/c1-4-2-7-6-5(9-4)3-8-6/h4-5H,2-3H2,1H3/t4-,5+/m0/s1
