17
gdb 105931	3.29993	1.61535	1.38309	2.6246	69.95	-0.2447	0.0739	0.3186	953.6024	0.136627	-421.731414	-421.724385	-421.723441	-421.763122	27.912	
O	 0.0222693237	 1.348666788	 0.1628779862	-0.41542
C	-0.0437164848	-0.0484940854	-0.0841234678	-0.19088
C	-1.4538850919	-0.5452539975	-0.0746507788	 0.32501
C	-2.2186246014	-0.936361404	 1.2017851811	-0.152869
C	-2.0507460907	-1.9272444088	 0.072457121	-0.196455
C	-3.3697048087	-1.3532632818	-0.5342818229	-0.09882
C	-3.6380474053	-0.5014492445	 0.750262358	 0.075949
O	-3.5053989127	 0.7459561773	 0.0323100104	-0.295346
C	-2.6684476502	-0.0012787451	-0.8813951531	 0.016422
H	-0.5986764023	 1.5446354557	 0.8730449636	 0.287572
H	 0.4166601371	-0.1962168425	-1.0681301741	 0.110198
H	 0.5574560399	-0.6229391993	 0.6408229217	 0.08719
H	-1.7627525532	-0.9267816497	 2.183260148	 0.093361
H	-1.593606317	-2.9056669874	 0.0501979882	 0.098836
H	-4.1237243399	-1.8542473075	-1.1353020575	 0.083652
H	-4.4945587879	-0.5495677769	 1.42045056	 0.084665
H	-2.5377024248	 0.4609459694	-1.8581944239	 0.086934
84.744	118.9995	260.0207	317.7779	392.7216	526.5463	564.0392	674.4001	751.8385	779.9599	812.8301	818.5579	837.3197	856.5854	877.3869	900.7922	925.1188	936.4754	970.4309	996.4376	1013.5023	1051.7862	1072.3417	1092.2592	1134.8844	1152.2921	1175.2877	1183.7286	1214.9952	1231.5752	1261.7875	1284.9119	1309.3039	1351.9552	1407.2154	1442.3723	1510.6887	2961.5429	3051.1596	3136.5842	3140.3594	3158.236	3200.0638	3224.2342	3806.4555
OCC12C3C1C1C3OC21	OC[C@]12[C@@H]3[C@H]1[C@H]1[C@@H]3O[C@@H]21	
InChI=1S/C7H8O2/c8-1-7-3-2-5(4(3)7)9-6(2)7/h2-6,8H,1H2	InChI=1S/C7H8O2/c8-1-7-3-2-5(4(3)7)9-6(2)7/h2-6,8H,1H2/t2-,3+,4+,5-,6+,7+/m0/s1
