19
gdb 38755	2.41365	2.29698	1.83513	1.7055	72.42	-0.245	0.0757	0.3207	859.6894	0.163846	-423.033846	-423.027634	-423.02669	-423.064079	26.713	
C	-0.0453103396	 1.563848452	-0.0840652402	-0.243905
C	 1.5054456882	 1.5914407521	 0.0122761234	-0.056786
C	 2.0650977938	 1.7197321957	 1.4392570491	-0.240555
C	 1.904471394	 0.2902287526	 1.987544985	 0.188712
O	 2.2338857965	-0.5409197604	 0.8957216371	-0.249532
C	 1.5257413297	 0.0403959219	-0.1948520326	 0.102597
C	-0.0193833039	 0.0135932315	 0.0368195843	-0.06756
C	-0.2767719327	-0.5315068886	 1.4412109881	-0.076545
O	 0.5643752133	 0.0747078558	 2.4217967296	-0.285499
H	-0.5901183671	 2.104888335	 0.6947037606	 0.103365
H	-0.4077488482	 1.8961965774	-1.0598998443	 0.100043
H	 2.0299297655	 2.2185875676	-0.7089818308	 0.070946
H	 3.1281438836	 1.978009531	 1.4139026903	 0.103462
H	 1.5383545157	 2.4498265291	 2.0573377721	 0.10966
H	 2.5628011084	 0.0417110447	 2.823619153	 0.086835
H	 1.9085530826	-0.3762874932	-1.125847735	 0.077481
H	-0.6206522352	-0.5379159036	-0.691069969	 0.070423
H	-1.3035284969	-0.3321768806	 1.7642326165	 0.105307
H	-0.1249869279	-1.6199607301	 1.4370873929	 0.101552
178.354	313.3084	340.1176	414.7091	480.3623	517.3102	603.9003	658.1151	766.0485	795.5957	811.4487	850.5768	859.0755	895.5908	901.7484	942.4693	960.3446	973.2155	991.7141	1038.9446	1047.9766	1076.5173	1095.0073	1143.6968	1154.1714	1160.9241	1199.8556	1238.5631	1247.7809	1263.5824	1285.8463	1304.8551	1308.8553	1330.5939	1339.7402	1364.1673	1384.2211	1413.3595	1471.715	1487.2846	1504.4926	3005.3593	3055.611	3057.8221	3070.1596	3075.6	3087.7515	3099.549	3110.0324	3119.2704	3122.9597
C1C2CC3OC2C1CO3	C1[C@H]2C[C@@H]3O[C@H]2[C@H]1CO3	
InChI=1S/C7H10O2/c1-4-2-6-8-3-5(1)7(4)9-6/h4-7H,1-3H2	InChI=1S/C7H10O2/c1-4-2-6-8-3-5(1)7(4)9-6/h4-7H,1-3H2/t4-,5+,6-,7+/m0/s1
