19
gdb 109036	2.75779	1.3167	0.99842	1.0914	76.13	-0.2386	0.0013	0.2399	1208.3329	0.158909	-423.009777	-423.001169	-423.000225	-423.043035	32.718	
C	-0.0842293079	 1.551663906	 0.0152953471	-0.399063
C	 0.0151797766	 0.0182224474	 0.0031286316	-0.119704
C	 0.8385755553	-0.50918852	-1.1737533813	 0.033603
O	 2.1966023525	-0.0633113486	-1.1843185913	-0.263289
C	 1.8992275833	-1.3785117367	-0.6457277439	 4.*^-6
C	 1.7460333289	-1.3874233668	 0.8367451026	-0.203981
C	 0.7356622287	-0.5917535434	 1.2085061362	 0.262988
C	 0.3294024611	-0.2850927376	 2.6197605757	-0.162855
O	 1.1848112957	-0.8416005918	 3.6003212134	-0.406977
H	 0.9169015544	 1.9904643852	 0.0317196224	 0.137812
H	-0.5988759809	 1.9100577737	-0.8818514319	 0.118134
H	-0.6417049923	 1.9157426304	 0.8831776743	 0.115814
H	-1.0006697325	-0.3993514077	-0.0606499166	 0.084278
H	 0.3810724616	-0.6368296276	-2.1518471349	 0.093081
H	 2.3383055311	-2.2058319924	-1.1943799208	 0.0962
H	 2.3801107283	-1.9506488664	 1.5089897621	 0.102243
H	 0.2273623665	 0.8054864151	 2.7492808119	 0.102201
H	-0.6663223508	-0.7047213939	 2.818934481	 0.124522
H	 2.0611006902	-0.466568965	 3.4613021523	 0.284989
89.5877	121.4575	188.7082	220.9096	232.4457	276.473	341.7296	393.9811	482.4049	515.8513	554.6415	696.62	717.9616	809.9126	813.1325	853.0773	868.5184	899.5796	983.5904	986.0416	1003.7195	1034.5605	1068.2826	1097.6866	1115.4936	1119.5017	1169.8996	1214.319	1245.9879	1273.1035	1304.7631	1321.655	1331.7433	1391.5535	1399.2894	1417.5498	1420.9254	1486.4433	1496.7525	1503.8069	1689.1354	2965.1906	2998.1339	3029.3889	3040.8367	3105.7797	3124.89	3140.1646	3167.5001	3219.3361	3809.183
CC1C2OC2C=C1CO	C[C@H]1[C@H]2O[C@H]2C=C1CO	
InChI=1S/C7H10O2/c1-4-5(3-8)2-6-7(4)9-6/h2,4,6-8H,3H2,1H3	InChI=1S/C7H10O2/c1-4-5(3-8)2-6-7(4)9-6/h2,4,6-8H,3H2,1H3/t4-,6+,7-/m1/s1
