22
gdb 123238	6.02696	0.41467	0.40742	3.4904	81.5	-0.2496	0.0338	0.2834	2618.5072	0.192887	-441.510039	-441.498824	-441.49788	-441.548913	38.08	
O	-0.1499557234	 1.4451677489	-0.3351310996	-0.421216
C	-0.0122130885	 0.0546319479	-0.0848225841	-0.073855
C	-1.4029396085	-0.5657789534	-0.1041517899	-0.16703
C	-1.3900371323	-2.0724618092	 0.1686395144	-0.182195
C	-2.788506159	-2.6977352675	 0.1389280826	-0.184674
C	-2.7640164202	-4.2033857674	 0.424902165	-0.164234
N	-4.0866665073	-4.808855148	 0.4061861468	-0.274249
C	-4.4997664907	-5.6691534021	-0.5627140042	 0.15359
O	-3.8235586578	-6.0627845155	-1.4895319609	-0.322641
H	 0.7272403799	 1.8387696454	-0.3393877083	 0.285447
H	 0.6203002489	-0.4277966831	-0.8482365996	 0.085269
H	 0.4636282296	-0.1292246225	 0.8930157064	 0.082188
H	-2.021527177	-0.0518045999	 0.6420225907	 0.10382
H	-1.8598475806	-0.3627402718	-1.0803516968	 0.10815
H	-0.7548429738	-2.5760766268	-0.5728586417	 0.103358
H	-0.9260070152	-2.2646954082	 1.146321162	 0.094179
H	-3.4301957811	-2.1952939251	 0.8761995076	 0.088886
H	-3.2526759908	-2.531852676	-0.840721205	 0.113968
H	-2.18178585	-4.7288664719	-0.3358805232	 0.149968
H	-2.2908211067	-4.3938719816	 1.3970188434	 0.105325
H	-4.7562316565	-4.5332484849	 1.1071852938	 0.244616
H	-5.550209769	-5.9866085974	-0.4049542394	 0.071328
22.4688	52.7584	72.2295	89.9656	131.3336	145.8169	194.5352	249.2942	265.3513	300.719	331.5382	459.1519	504.547	537.3282	731.2828	747.1725	788.7928	861.6342	962.0633	992.5913	997.2003	1031.0866	1038.6526	1062.1506	1069.4976	1096.823	1175.4774	1202.4465	1216.7256	1229.8092	1275.1481	1284.8791	1314.4611	1328.9907	1334.0031	1341.5958	1395.7658	1407.2444	1432.0616	1464.2468	1482.024	1486.3834	1494.9739	1509.1578	1529.2566	1536.2536	1807.0036	2930.079	2955.4758	2980.7329	3003.954	3011.4538	3020.7052	3029.441	3034.8147	3062.2325	3077.3593	3115.5147	3631.1119	3831.0061
OCCCCCNC=O	OCCCCCNC=O	
InChI=1S/C6H13NO2/c8-5-3-1-2-4-7-6-9/h6,8H,1-5H2,(H,7,9)	InChI=1S/C6H13NO2/c8-5-3-1-2-4-7-6-9/h6,8H,1-5H2,(H,7,9)
