14
gdb 27836	2.0541	1.80568	0.96131	4.7599	70.67	-0.2085	-0.0192	0.1892	1125.5812	0.101354	-473.901203	-473.89341	-473.892466	-473.933232	30.256	
N	 0.0093104304	 1.3828084203	 0.1252727709	-0.580331
C	 0.0060293751	 0.0175673126	 0.0447058843	 0.427781
C	-1.1749084108	-0.6987760179	 0.0252844587	-0.394962
C	-1.2086489059	-2.1148228697	-0.0093788385	 0.423618
O	-2.1248003264	-2.8875662999	-0.0288509438	-0.350812
O	 0.1222696612	-2.7354668357	-0.0306227301	-0.281581
C	 1.2324515173	-2.0171797893	-0.0143938178	 0.510405
O	 2.3455061665	-2.758234063	-0.0380054973	-0.399075
C	 1.2615180672	-0.6620040649	 0.0217270304	-0.401915
H	 0.8506312406	 1.8749021855	-0.1245122052	 0.262051
H	-0.8494631824	 1.8721973378	-0.0654108695	 0.26383
H	-2.1362879658	-0.2016400109	 0.0408792437	 0.099407
H	 2.0754508357	-3.6864000987	-0.0593366284	 0.314296
H	 2.2073146774	-0.1403836862	 0.0436225226	 0.107288
155.0322	186.5657	201.4238	322.6351	352.1723	362.8366	433.827	452.3976	463.8237	523.2474	580.3348	620.7308	659.0608	696.0994	728.415	770.0997	795.5177	802.7289	988.5396	1041.3996	1079.7018	1153.0719	1209.567	1266.0324	1320.3631	1430.2727	1520.6976	1579.1137	1658.7502	1716.722	1870.3227	3209.6788	3233.0895	3603.3689	3717.0237	3784.5191
NC1=CC(=O)OC(O)=C1	Nc1cc(=O)oc(O)c1	
InChI=1S/C5H5NO3/c6-3-1-4(7)9-5(8)2-3/h1-2,7H,6H2	InChI=1S/C5H5NO3/c6-3-1-4(7)9-5(8)2-3/h1-2,7H,6H2
