14
gdb 20463	4.90069	2.00668	1.4681	2.8012	62.13	-0.2436	-0.0132	0.2304	799.282	0.110982	-378.699594	-378.693711	-378.692767	-378.729615	22.688	
C	 0.0115355287	 1.5428638671	 0.2220023492	-0.31132
N	 1.2784380373	 1.9707552606	-0.4422039859	-0.302851
C	 2.1998885513	 0.803954706	-0.5059051386	-0.292483
C	 1.2822401604	-0.3822209674	-0.3689364729	 0.36049
N	 1.375585855	-1.6718559786	-0.5304701831	-0.245025
O	 0.0962454102	-2.1473874582	-0.1969817973	-0.174378
C	-0.6957946541	-1.1068674413	 0.152572652	-0.090801
C	 0.0007894841	 0.0482010803	 0.0592337127	 0.156761
H	 0.0357746557	 1.8264450714	 1.2823326813	 0.128696
H	-0.8403426313	 2.0582641584	-0.2297327079	 0.122525
H	 1.0505319337	 2.2337141742	-1.3942933569	 0.227911
H	 2.7807609074	 0.8172779806	-1.4310625168	 0.133382
H	 2.9112451682	 0.8363102784	 0.3292679682	 0.135559
H	-1.7059591266	-1.3718957315	 0.423120936	 0.151534
144.1302	245.9071	273.97	439.5285	592.5211	602.9455	662.1743	718.9087	770.5004	812.6587	829.621	880.5256	899.9873	963.8822	991.1497	1053.7734	1059.0715	1109.2913	1146.2429	1180.3424	1263.8022	1279.157	1308.4338	1341.6223	1421.5232	1471.807	1492.4523	1503.8669	1550.8028	1669.8909	3019.2738	3027.1487	3086.549	3102.1415	3265.0725	3534.7515
C1NCC2=NOC=C12	C1NCc2nocc12	
InChI=1S/C5H6N2O/c1-4-3-8-7-5(4)2-6-1/h3,6H,1-2H2	InChI=1S/C5H6N2O/c1-4-3-8-7-5(4)2-6-1/h3,6H,1-2H2
