19
gdb 62795	2.2602	1.7898	1.55317	2.7411	74.37	-0.2282	-0.0185	0.2097	985.9269	0.158719	-423.023875	-423.015588	-423.014644	-423.05623	32.268	
C	 0.0043633809	 1.5076707755	-0.0134540332	-0.443159
C	-0.0105174392	-0.0270730319	-0.0461807991	 0.181144
C	-1.4491601251	-0.5524103474	-0.0933477396	-0.453266
C	 0.9603486173	-0.5999761686	-1.11380864	 0.041067
C	 1.2481578151	-2.0582222565	-0.6831737801	-0.257301
C	 1.9675832219	-1.2701406257	 0.4370135395	-0.044817
O	 2.2673925381	-0.2284924186	-0.5496958675	-0.296524
C	 0.7824251793	-0.608699751	 1.159498039	 0.433647
O	 0.5253705563	-0.5472577023	 2.329734903	-0.342412
H	 1.0262588688	 1.8896372799	-0.0561578838	 0.138766
H	-0.5598446872	 1.9159670882	-0.859409461	 0.110924
H	-0.4605854004	 1.867347504	 0.909533014	 0.132397
H	-1.9845103711	-0.1329671229	-0.9520554195	 0.117638
H	-1.5010997647	-1.6424257399	-0.1630484938	 0.116565
H	-1.980706047	-0.2537475104	 0.8152277165	 0.140736
H	 0.8262006731	-0.2999254471	-2.1533540842	 0.086777
H	 0.4238836326	-2.7277742274	-0.4290558197	 0.112828
H	 1.9665397954	-2.54363531	-1.3445891159	 0.124549
H	 2.8152926658	-1.6310075681	 1.0156624554	 0.100442
128.0169	176.3237	199.3929	213.8103	268.6643	274.9017	343.1015	458.9097	474.6833	530.6953	600.8139	676.5929	757.6645	783.7669	855.3368	869.536	876.2638	916.6926	958.0853	963.4079	1001.4911	1018.1526	1033.3924	1060.5812	1134.9857	1159.0745	1206.2046	1212.3314	1226.0559	1235.0194	1268.3992	1286.5383	1326.8211	1390.4493	1414.8738	1477.4235	1487.3882	1489.7882	1503.6392	1513.266	1875.6803	3032.9503	3037.1132	3077.8575	3100.6117	3104.4794	3115.2169	3118.7251	3133.4972	3147.2582	3153.8284
CC1(C)C2CC(O2)C1=O	CC1(C)[C@@H]2C[C@@H](O2)C1=O	
InChI=1S/C7H10O2/c1-7(2)5-3-4(9-5)6(7)8/h4-5H,3H2,1-2H3	InChI=1S/C7H10O2/c1-7(2)5-3-4(9-5)6(7)8/h4-5H,3H2,1-2H3/t4-,5+/m1/s1
