12
gdb 23870	2.96046	1.7524	1.39845	3.495	47.56	-0.3407	0.0145	0.3552	860.2876	0.079501	-509.049881	-509.04207	-509.041126	-509.082585	27.092	
C	 0.0120217969	 1.5645123991	 0.0175383963	-0.406877
C	 0.0035708674	 0.02459311	 0.0362016088	-0.277053
C	 0.7275885391	-0.5062604898	 1.1937814137	 0.280064
N	 1.3188156399	-0.8977865908	 2.1047780391	-0.304266
C	-1.4285224789	-0.528787451	 0.0156480303	 0.300113
F	-2.0600128572	-0.1117668391	-1.0897580171	-0.074628
F	-1.4310727581	-1.8636274509	 0.0127792422	-0.064793
F	-2.1302375558	-0.1126333592	 1.0736636148	-0.068313
H	 1.0391369459	 1.9317682535	-0.0108090987	 0.149744
H	-0.5181277549	 1.9226456329	-0.8668489582	 0.148261
H	-0.4772357424	 1.9597895448	 0.9097156067	 0.158459
H	 0.484497918	-0.3622848492	-0.8692887279	 0.159289
60.5151	141.849	205.0787	217.0202	240.1418	347.9515	390.3545	450.616	530.5857	550.2402	593.7797	686.4655	799.0131	890.679	1015.4664	1090.2033	1111.5299	1178.3519	1227.4952	1275.2978	1319.6087	1362.211	1413.1523	1493.0582	1501.348	2371.6822	3062.8812	3067.3978	3151.0698	3151.8664
CC(C#N)C(F)(F)F	C[C@@H](C#N)C(F)(F)F	
InChI=1S/C4H4F3N/c1-3(2-8)4(5,6)7/h3H,1H3	InChI=1S/C4H4F3N/c1-3(2-8)4(5,6)7/h3H,1H3/t3-/m0/s1
