22
gdb 58638	2.54623	1.3297	1.04157	2.548	81.53	-0.2339	0.068	0.3019	1242.6249	0.193278	-404.300235	-404.29051	-404.289565	-404.334974	37.064	
C	-0.4228629386	 1.5989148792	 0.1039070744	-0.422204
C	-0.0829064878	 0.1135048674	-0.0324333147	 0.057633
O	 0.6444924837	-0.1266129942	-1.241117527	-0.433992
C	 0.7601369608	-0.4957774273	 1.086827594	 0.373093
C	 2.0831587307	 0.1511451652	 1.4059879792	-0.313169
C	 0.9526690996	 0.2343937355	 2.3984130888	-0.322585
C	 0.6139047594	-1.9968941967	 1.137482031	-0.07541
C	 1.3913085586	-2.8805773833	 0.2355967116	-0.226643
N	 1.6319932852	-2.8997198043	 1.6911001721	-0.338718
H	 0.4771368134	 2.2156003792	 0.1850486756	 0.126363
H	-0.970830996	 1.9306402649	-0.7851167295	 0.104997
H	-1.0627074961	 1.7878408621	 0.9705808621	 0.121647
H	-1.0333163689	-0.4454974136	-0.0615887447	 0.064647
H	 0.0760543065	 0.1121154268	-1.9803248474	 0.279555
H	 2.9390975374	-0.4720486413	 1.6442037724	 0.106069
H	 2.3475226701	 1.0413290029	 0.8470463239	 0.120942
H	 0.4741852336	 1.1940135174	 2.5529081335	 0.111787
H	 1.0194644119	-0.3784846538	 3.2911036452	 0.118948
H	-0.3974003727	-2.3106070397	 1.3979907909	 0.087129
H	 0.9462353632	-3.7859276616	-0.1677068978	 0.110923
H	 2.1221469702	-2.4012965201	-0.4079787482	 0.123307
H	 2.4872962958	-2.3911093547	 1.8998840146	 0.22568
48.608	69.3148	179.9022	222.8402	249.729	271.6352	280.6795	299.0279	339.019	387.5544	477.5638	529.885	546.4815	679.7262	766.6674	806.5909	843.9233	902.8504	916.4595	931.941	939.364	956.466	967.7815	1027.273	1046.1185	1057.3772	1082.0784	1098.3678	1104.3205	1125.3711	1159.0268	1179.4128	1189.1448	1241.7153	1247.4659	1257.4124	1299.9466	1354.3416	1376.8525	1406.3692	1413.8647	1428.3712	1466.9337	1490.8005	1501.3797	1509.2523	1516.166	2954.0473	3034.6294	3095.4486	3097.7607	3115.5469	3119.6056	3131.7503	3138.6127	3205.3767	3208.3812	3225.8645	3503.8242	3815.053
CC(O)C1(CC1)C1CN1	C[C@@H](O)C1(CC1)[C@H]1CN1	
InChI=1S/C7H13NO/c1-5(9)7(2-3-7)6-4-8-6/h5-6,8-9H,2-4H2,1H3	InChI=1S/C7H13NO/c1-5(9)7(2-3-7)6-4-8-6/h5-6,8-9H,2-4H2,1H3/t5-,6-/m1/s1
