17
gdb 7431	3.33604	1.67881	1.16379	0.9904	69.08	-0.2373	-0.0194	0.2179	1026.4237	0.141879	-397.213709	-397.204487	-397.203543	-397.248208	32.324	
C	 0.1801661084	 1.2612146552	 0.1080383565	-0.342184
N	 0.0306558596	-0.178556026	-0.0598736188	-0.104121
C	 0.2761684947	-0.9522380072	 1.1497689059	-0.338135
C	-0.2224266472	-0.6485886813	-1.3079170158	 0.426456
O	-0.2850022991	 0.0902997467	-2.2892186545	-0.410098
C	-0.4734679986	-2.1439284765	-1.561078634	 0.252412
N	-0.2259782598	-2.4325587669	-2.8766882816	-0.516505
N	-0.8822820703	-2.9402614367	-0.6454056525	-0.531745
H	 1.2136659337	 1.5109415423	 0.3797570659	 0.124361
H	-0.077775112	 1.7583785002	-0.8239950206	 0.168478
H	-0.4774394097	 1.6088619529	 0.9131061957	 0.125091
H	-0.4681584026	-0.695990838	 1.913956464	 0.12321
H	 0.20671577	-2.0147626497	 0.9441370536	 0.184933
H	 1.2679851749	-0.698823172	 1.5461788953	 0.113482
H	-0.2121256124	-1.6203950478	-3.4792949773	 0.273411
H	-0.6148728569	-3.2812956373	-3.2545654885	 0.247063
H	-1.0499910427	-3.876262338	-1.0214737133	 0.203892
53.2294	74.1011	95.6032	131.4386	249.2623	282.7924	351.524	387.7636	423.6953	445.5935	490.5885	573.4868	597.9602	626.4031	720.1603	811.362	869.3367	963.3068	1079.953	1104.6923	1131.4919	1138.4633	1181.4651	1185.7273	1271.5896	1396.6784	1430.4374	1448.1008	1469.2387	1488.8699	1494.3024	1507.6266	1547.3315	1591.4906	1706.4512	1728.9386	3010.8548	3021.4552	3059.0881	3070.1543	3181.8493	3204.7092	3435.4136	3554.5277	3689.0515
CN(C)C(=O)C(N)=N	CN(C)C(=O)C(=N)N	
InChI=1S/C4H9N3O/c1-7(2)4(8)3(5)6/h1-2H3,(H3,5,6)	InChI=1S/C4H9N3O/c1-7(2)4(8)3(5)6/h1-2H3,(H3,5,6)
