20
gdb 110624	2.5068	1.34938	1.06549	1.6317	79.4	-0.2163	0.0688	0.2851	1203.9429	0.17002	-403.045356	-403.036539	-403.035595	-403.078689	33.979	
C	-0.4503264547	 1.6684057538	 0.3379036312	-0.469883
C	-0.300275366	 0.2164087049	 0.0017621792	 0.31391
C	-0.934016216	-0.9046597001	 0.7934520624	-0.032476
C	-1.9680801909	-1.9798045726	 0.4727854994	-0.139366
O	-2.6809235431	-2.2108342332	 1.6835936977	-0.436395
C	 0.5601011235	-0.8921183852	 0.5981821857	-0.162092
C	 1.0103829817	-1.1939655516	-0.8387675354	-0.031172
C	-0.0574528984	-1.4395338401	-1.8318362043	-0.257677
N	 0.2126582237	-0.052225771	-1.4095736173	-0.17892
H	 0.4370197433	 2.2297142621	 0.0290164067	 0.127668
H	-1.3133054194	 2.0987297576	-0.1846209517	 0.12398
H	-0.5992589489	 1.8097729305	 1.4124168848	 0.117315
H	-1.1685903087	-0.5124837534	 1.7827028399	 0.112008
H	-2.6543144403	-1.6421293256	-0.3203332502	 0.098647
H	-1.481457511	-2.9036962959	 0.1291082258	 0.100271
H	-3.3347129182	-2.8968674473	 1.518439155	 0.284444
H	 1.2605648636	-0.8504661007	 1.4232200267	 0.090464
H	 2.0603372799	-1.3019862628	-1.0925469401	 0.098979
H	 0.2702665534	-1.6121302544	-2.8545382921	 0.119939
H	-0.9912315036	-1.924964715	-1.5892018436	 0.120356
72.4892	187.3126	190.0219	211.8246	225.8441	264.2586	299.585	377.9364	412.4902	500.3854	568.9399	657.7833	688.4076	751.9788	779.7213	848.3477	901.0238	919.7996	941.3893	959.4959	995.6769	1040.0885	1054.7855	1063.4179	1088.3346	1103.8903	1111.5983	1120.5527	1158.2963	1203.1335	1235.5174	1248.7714	1272.9366	1279.6638	1340.4075	1352.6822	1410.5342	1430.7001	1474.5838	1480.7913	1498.5369	1506.1418	1529.9403	2964.6197	3006.9839	3027.3116	3089.5443	3112.7139	3122.0547	3127.0388	3155.8853	3185.7106	3251.5909	3826.7413
CC12C(CO)C1C1CN21	C[C@]12[C@@H](CO)[C@H]1[C@H]1CN21	
InChI=1S/C7H11NO/c1-7-4(3-9)6(7)5-2-8(5)7/h4-6,9H,2-3H2,1H3	InChI=1S/C7H11NO/c1-7-4(3-9)6(7)5-2-8(5)7/h4-6,9H,2-3H2,1H3/t4-,5+,6-,7-,8?/m0/s1
