18
gdb 10485	2.71158	1.72273	1.27065	4.6978	71.52	-0.2591	0.033	0.2921	1010.2451	0.153641	-343.978285	-343.96962	-343.968675	-344.012116	31.267	
C	-0.6941056803	 0.610876992	-0.5654299105	-0.389036
C	-0.3585635431	-0.695113954	 0.1697612596	-0.268503
C	 0.821226226	-0.6241864555	 1.1311657184	 0.331454
C	 0.6172718806	 0.1262637703	 2.4499595379	-0.390523
C	 0.4363005395	 1.5730314772	 2.3168543581	 0.284533
N	 0.2933281297	 2.7166644075	 2.2326287175	-0.319759
C	 1.7646353961	-1.7748933554	 1.165377742	-0.287445
N	 2.1801475234	-0.4830283129	 0.5909974989	-0.332663
H	 0.1744321358	 0.99402658	-1.1111230657	 0.122021
H	-1.4936485296	 0.436119152	-1.291595849	 0.115416
H	-1.0244476908	 1.3969023415	 0.1161554713	 0.152428
H	-1.2420702771	-1.0461597884	 0.7189773667	 0.104951
H	-0.1367725917	-1.4734648836	-0.5707259375	 0.098867
H	-0.2497139752	-0.284133425	 2.9814499215	 0.148015
H	 1.4926395998	-0.0359037713	 3.0862029242	 0.158658
H	 2.2700338979	-2.0481655732	 2.0882180528	 0.118865
H	 1.5676112136	-2.6093604918	 0.49768843	 0.117355
H	 2.1605393156	-0.5252452194	-0.4250344362	 0.235366
36.4645	95.6604	143.7119	213.9106	250.8046	336.7961	359.0016	371.5366	388.6083	484.9238	535.9411	731.4015	786.7599	846.4983	879.3462	922.246	947.049	966.8146	993.3135	1006.3159	1048.2814	1102.6326	1111.6337	1146.5996	1219.9613	1256.9624	1274.7088	1327.8594	1339.0772	1373.0068	1411.6935	1421.0465	1450.0817	1480.8357	1500.1749	1507.9341	1516.5187	2360.4105	3018.4913	3043.3279	3043.9899	3054.4018	3092.4569	3105.4473	3106.6836	3138.647	3189.5037	3501.1125
CCC1(CC#N)CN1	CC[C@@]1(CC#N)CN1	
InChI=1S/C6H10N2/c1-2-6(3-4-7)5-8-6/h8H,2-3,5H2,1H3	InChI=1S/C6H10N2/c1-2-6(3-4-7)5-8-6/h8H,2-3,5H2,1H3/t6-/m1/s1
