17
gdb 124795	4.03224	1.05661	0.8769	5.2841	70.85	-0.2316	0.023	0.2545	1299.5261	0.136975	-451.356599	-451.347457	-451.346513	-451.390658	33.345	
C	-0.0168992448	 1.4925465689	-0.3171007055	-0.383767
C	-0.0417683613	 0.0598346056	 0.2195558048	 0.058933
O	 0.437129933	 0.0527155678	 1.5514072301	-0.443964
C	-1.416660873	-0.5440044593	 0.1362462462	 0.328922
N	-2.0162008352	-1.0203466412	 1.2087226893	-0.305653
N	-3.1956999174	-1.493037161	 0.6938154053	-0.255767
C	-3.2324147954	-1.2672144933	-0.6385285123	 0.418591
N	-4.3172157866	-1.5574007385	-1.4379927893	-0.600001
N	-2.1186251692	-0.6758716538	-1.0304441199	-0.367784
H	 1.0000515767	 1.8885280001	-0.2522719503	 0.119966
H	-0.3452750745	 1.5162013785	-1.3592772893	 0.127865
H	-0.6763875025	 2.1290604134	 0.2798478056	 0.118829
H	 0.6196031287	-0.5538958124	-0.4158863582	 0.083863
H	-0.1432795251	-0.5251469058	 2.0619110376	 0.293869
H	-3.9060734329	-1.8539396627	 1.3072344507	 0.275731
H	-4.7918550331	-2.4248706741	-1.230586163	 0.257688
H	-4.0843168775	-1.4803894924	-2.4183921918	 0.272678
49.3648	131.9774	175.9491	211.5295	247.3474	272.9684	296.3801	345.1448	368.2959	433.366	481.2098	508.7411	637.181	673.5675	739.3284	773.4816	781.8868	919.7412	1009.7371	1050.2338	1060.5181	1101.4616	1113.4293	1142.3802	1169.3503	1285.085	1324.4969	1352.8984	1384.4287	1405.9068	1435.0868	1478.1856	1491.8422	1509.8843	1568.5475	1604.1485	1661.7832	2952.3003	3045.9815	3123.3186	3132.1844	3562.2989	3661.8437	3675.2845	3774.9351
CC(O)C1=NNC(N)=N1	C[C@@H](O)c1n[nH]c(N)n1	
InChI=1S/C4H8N4O/c1-2(9)3-6-4(5)8-7-3/h2,9H,1H3,(H3,5,6,7,8)	InChI=1S/C4H8N4O/c1-2(9)3-6-4(5)8-7-3/h2,9H,1H3,(H3,5,6,7,8)/t2-/m1/s1
