18
gdb 64911	2.21087	1.44998	1.0505	4.6954	78.18	-0.2626	-0.0349	0.2277	1181.4471	0.144887	-401.970557	-401.960805	-401.959861	-402.005042	35.049	
C	-0.0995258468	 1.546169893	 0.0270710195	-0.468071
C	-0.0428784478	 0.0334285341	 0.0496638817	 0.175411
C	 1.2522864088	-0.7057315783	-0.233957061	-0.353351
C	 0.7196850352	-0.7095306629	 1.1771841918	 0.123271
C	 1.4237010199	 0.0786022193	 2.2747103793	-0.457871
C	 0.1586272229	-1.953579209	 1.6577983307	 0.246946
N	-0.2647059064	-2.9458790001	 2.0757920505	-0.344781
C	-1.2769917445	-0.6346810179	-0.4724405084	 0.117421
O	-2.2301568907	-0.029648376	-0.893277664	-0.258649
H	 0.8660567852	 2.000500353	 0.2539098311	 0.117725
H	-0.4102227179	 1.8782834547	-0.9667815811	 0.148843
H	-0.839473246	 1.9222447344	 0.7391175892	 0.141833
H	 1.203276768	-1.6294685781	-0.8003797259	 0.145033
H	 2.1314588802	-0.1003442964	-0.4255733491	 0.137597
H	 1.9255737478	 0.9585263783	 1.8704279281	 0.131517
H	 0.7145100295	 0.4039629632	 3.0407658082	 0.147245
H	 2.1780147764	-0.5503525909	 2.7560321741	 0.14804
H	-1.2533420338	-1.7450636404	-0.4645633847	 0.101842
92.8984	114.4666	125.282	161.3123	175.5386	248.6108	269.6844	301.3948	356.1078	390.8519	424.2657	498.7624	576.0357	620.8258	656.4608	761.5234	837.1254	901.8011	941.8013	950.3185	1013.9723	1031.1782	1082.6016	1092.6217	1112.3523	1159.2368	1236.9828	1319.0667	1347.2842	1410.7271	1422.79	1442.7427	1477.1441	1481.9181	1487.5563	1493.7623	1505.2121	1818.8314	2347.4167	2913.4327	3051.3413	3057.0743	3118.9944	3122.3601	3135.0135	3136.1086	3148.4456	3227.0246
CC1(CC1(C)C#N)C=O	C[C@]1(C[C@]1(C)C#N)C=O	
InChI=1S/C7H9NO/c1-6(4-8)3-7(6,2)5-9/h5H,3H2,1-2H3	InChI=1S/C7H9NO/c1-6(4-8)3-7(6,2)5-9/h5H,3H2,1-2H3/t6-,7+/m1/s1
