21
gdb 61215	3.28679	0.95559	0.83677	1.4061	84.63	-0.2488	0.058	0.3069	1433.9302	0.179314	-387.043836	-387.033671	-387.032727	-387.078818	38.69	
C	-0.485457908	 1.4541324878	 0.1324522313	-0.420504
C	 0.0050715363	 0.0045235613	 0.0810322816	-0.042202
C	 0.8622849068	-0.261774215	-1.1862377695	-0.35715
C	 0.1199759832	-0.1233836877	-2.4320027418	 0.302426
C	-0.515651796	-0.0098119904	-3.4467406315	-0.451024
C	 0.7844869513	-0.4622340472	 1.3082201111	 0.425066
O	 1.0729828225	-1.8429549877	 1.2761285434	-0.466184
C	 1.8961789129	 0.3410738666	 1.9131223017	-0.295085
C	 0.603052926	 0.1363348188	 2.6809504349	-0.347675
H	 0.3449515671	 2.1592971455	 0.2492938981	 0.11753
H	-0.9980931408	 1.7024470483	-0.8005867179	 0.135864
H	-1.1885849166	 1.6152133667	 0.9537822936	 0.117327
H	-0.8813875884	-0.6432026974	 0.0089907001	 0.073401
H	 1.7179241506	 0.4264373724	-1.1877074918	 0.125285
H	 1.278274634	-1.2720125513	-1.1118695747	 0.143882
H	-1.0626306418	 0.0857558808	-4.3515523199	 0.190808
H	 0.2412297981	-2.3178074445	 1.3871836885	 0.280157
H	 2.7666551007	-0.215926048	 2.2388753392	 0.125153
H	 2.1070494042	 1.3293246993	 1.5202772894	 0.115065
H	-0.0535775609	 0.9875455765	 2.8159680386	 0.114247
H	 0.6279810388	-0.5587253048	 3.5126700957	 0.113613
56.9733	76.8017	136.8515	220.0146	234.5812	265.4243	312.4355	342.2693	352.745	360.8643	403.3922	466.6956	500.8333	532.8533	610.2372	635.0707	719.0544	776.8065	854.8587	878.3251	906.0164	926.2387	930.7422	976.2923	991.6984	1048.9349	1069.3494	1079.551	1101.8151	1122.9259	1189.4754	1233.6185	1250.598	1262.7829	1302.4693	1353.539	1366.1526	1390.6357	1415.0762	1448.151	1474.3633	1497.1731	1502.2672	1507.3167	2234.0946	2991.7283	3025.1725	3038.2839	3075.5326	3106.1735	3120.55	3139.275	3141.6217	3222.6632	3235.9112	3507.1625	3787.4455
CC(CC#C)C1(O)CC1	C[C@@H](CC#C)C1(O)CC1	
InChI=1S/C8H12O/c1-3-4-7(2)8(9)5-6-8/h1,7,9H,4-6H2,2H3	InChI=1S/C8H12O/c1-3-4-7(2)8(9)5-6-8/h1,7,9H,4-6H2,2H3/t7-/m0/s1
