16
gdb 7297	3.7103	1.32951	1.10891	4.5312	66.88	-0.2629	0.0077	0.2707	1077.5373	0.129051	-379.962828	-379.953728	-379.952784	-379.997461	30.85	
C	-0.3249526049	 1.3702447158	 0.1365096724	-0.350319
N	-0.0842545702	-0.0527500298	-0.0294271293	-0.089165
C	-0.0159532044	-0.8438789814	 1.1871591716	-0.298823
C	-1.2914236514	-0.8580168957	 1.9186422703	 0.266731
N	-2.2923872095	-0.8428674336	 2.4954136964	-0.308627
C	 0.1038678708	-0.7132646192	-1.2287669728	 0.417918
C	 0.0360148245	 0.1157759615	-2.500380822	-0.50417
O	 0.318842967	-1.9117349797	-1.2650151312	-0.364392
H	-0.3920955757	 1.8642251421	-0.8297049227	 0.147529
H	-1.2635762353	 1.5419001835	 0.6762901636	 0.155496
H	 0.4878196144	 1.8387370398	 0.70728151	 0.131796
H	 0.2519218408	-1.8616711727	 0.8925215476	 0.198544
H	 0.7617833683	-0.4571635923	 1.8591003285	 0.149946
H	 0.794332796	 0.9045048179	-2.5146543305	 0.143111
H	 0.2121752972	-0.5618238197	-3.3346267223	 0.156618
H	-0.9435898075	 0.5873339735	-2.6244194496	 0.147807
44.9067	81.6463	103.7459	135.9509	206.8482	275.3079	308.7896	375.7507	382.9304	425.1615	576.9331	590.6901	606.1655	763.5127	912.945	958.9662	1000.0337	1039.814	1052.1159	1158.1271	1165.9475	1238.0517	1292.7259	1366.046	1387.6029	1425.4725	1460.4353	1463.3485	1478.3749	1489.8774	1499.5086	1528.8982	1763.7723	2360.5157	3016.2633	3023.3654	3048.6876	3068.9603	3110.9428	3113.2756	3165.5177	3178.912
CN(CC#N)C(C)=O	CN(CC#N)C(=O)C	
InChI=1S/C5H8N2O/c1-5(8)7(2)4-3-6/h4H2,1-2H3	InChI=1S/C5H8N2O/c1-5(8)7(2)4-3-6/h4H2,1-2H3
