15
gdb 130943	6.9918	0.69722	0.65259	1.4794	67.81	-0.2639	-0.0379	0.2259	1598.2083	0.111995	-453.956318	-453.948044	-453.9471	-453.991536	27.899	
O	-0.4354709517	 0.4361655959	 0.6189251697	-0.229377
C	 0.0812812554	 0.9834024496	-0.3183756477	 0.159556
C	 1.3813470519	 1.7555509208	-0.2612537747	-0.271055
C	 1.2522572632	 3.1390994371	-0.9183340619	-0.355679
C	 2.5756793804	 3.797726037	-1.1192544416	 0.459195
N	 3.7420844265	 3.2446222729	-1.2789933907	-0.315289
C	 4.5522741347	 4.3408937605	-1.4459003975	 0.040437
N	 3.9485545511	 5.4949189401	-1.3932869512	-0.111099
O	 2.6116719111	 5.1351204976	-1.1703736669	-0.199582
H	-0.3810470735	 0.9428430317	-1.3339249299	 0.074823
H	 1.7088215559	 1.8295864738	 0.7783109532	 0.138342
H	 2.1374922444	 1.1792816273	-0.8105742543	 0.156937
H	 0.7655717138	 3.0435260681	-1.8991827251	 0.147826
H	 0.6165537181	 3.8033900909	-0.3249920093	 0.153093
H	 5.6182627787	 4.2737016468	-1.6076720519	 0.151872
31.2526	59.5044	72.0269	141.2163	265.3954	298.7942	370.9954	524.6466	653.5409	688.6617	744.3731	779.813	856.6701	911.9036	933.0707	978.7357	1011.1647	1038.1577	1078.4347	1096.4143	1186.3351	1198.963	1225.5364	1268.7263	1291.828	1328.0865	1396.811	1430.2652	1460.8359	1478.8196	1517.9611	1620.3694	1843.4666	2846.3938	3021.4689	3039.7323	3087.6962	3119.1522	3262.9416
O=CCCC1=NC=NO1	O=CCCc1ncno1	
InChI=1S/C5H6N2O2/c8-3-1-2-5-6-4-7-9-5/h3-4H,1-2H2	InChI=1S/C5H6N2O2/c8-3-1-2-5-6-4-7-9-5/h3-4H,1-2H2
