16
gdb 31464	4.36263	0.96417	0.79364	2.4576	82.56	-0.1878	0.019	0.2067	1384.7411	0.123743	-400.744889	-400.736165	-400.735221	-400.778297	32.476	
C	 0.2828613064	 0.5896364013	 0.7031985017	-0.248801
O	 0.2694839034	 0.8875272002	-0.6841394944	-0.264068
C	 0.6955063391	-0.1117595823	-1.4827830166	 0.448964
C	 1.152029988	-1.3854598976	-1.2569827879	-0.443056
C	 1.450116706	-1.9465404159	-2.5516125114	 0.164947
C	 1.1588513583	-0.9839074663	-3.4959868155	-0.198522
N	 0.6999711029	 0.1290179225	-2.8313527342	-0.328229
C	 1.9490376658	-3.2443716846	-2.8066688557	 0.243562
C	 2.3745267001	-4.3543508037	-3.0056694535	-0.45537
H	-0.371401391	-0.2616673322	 0.9283681875	 0.130982
H	 1.2993755368	 0.3596372347	 1.0456978886	 0.13096
H	-0.0842003378	 1.4803447526	 1.2143489888	 0.137198
H	 1.2701355328	-1.8812226864	-0.3089485365	 0.105882
H	 1.2418674618	-1.0069643022	-4.5690365774	 0.128903
H	 0.4073206975	 0.9961840375	-3.2468385893	 0.267958
H	 2.7492509999	-5.3304470176	-3.186903144	 0.17869
88.0706	127.878	134.9523	199.9729	241.2473	307.7126	424.8763	467.9571	489.8355	513.469	523.3978	565.243	641.2253	644.2307	675.6427	697.7845	713.9589	770.6055	981.166	997.5737	1082.8742	1125.2867	1175.4187	1182.9131	1229.9827	1250.4976	1320.8266	1403.8888	1464.2007	1477.1528	1482.5213	1508.6494	1560.2949	1634.9918	2228.4063	3012.1195	3073.1256	3143.6658	3278.1247	3282.1157	3507.339	3685.6217
COC1=CC(=CN1)C#C	COc1cc(c[nH]1)C#C	
InChI=1S/C7H7NO/c1-3-6-4-7(9-2)8-5-6/h1,4-5,8H,2H3	InChI=1S/C7H7NO/c1-3-6-4-7(9-2)8-5-6/h1,4-5,8H,2H3
