22
gdb 77416	1.79518	1.67532	1.57761	1.5476	86.67	-0.2101	0.0745	0.2845	1112.2255	0.192625	-367.131243	-367.121806	-367.120862	-367.164632	36.468	
C	-0.0238177746	 1.62266403	 0.0051359239	-0.447139
C	 0.125397927	 0.1027799844	-0.0743461652	-0.108197
C	 0.4848883615	-0.7831611611	-1.2427283112	 0.259578
C	-0.4485994689	-1.7655757839	-1.8914781517	-0.497124
C	 1.7999310796	-0.3669776744	-1.9352946974	-0.089972
C	 2.5652152498	 0.7570983883	-1.3489597688	-0.260558
N	 2.6070056574	-0.5542298118	-0.6789342071	-0.173333
C	 1.3015641013	-0.857133021	 0.0430578294	 0.278976
C	 1.4184231598	-1.8969821739	 1.1167108131	-0.471556
H	 0.1291493419	 2.1107568032	-0.9601784	 0.129978
H	-1.0394908072	 1.870138303	 0.3297916608	 0.111833
H	 0.6619015187	 2.0742684768	 0.7299962006	 0.127451
H	-0.6906931444	-0.3822455121	 0.4630724404	 0.087278
H	-1.0362241722	-1.2922594974	-2.6884481707	 0.119648
H	 0.0985212606	-2.6030911223	-2.3404884593	 0.119977
H	-1.1541714314	-2.1788363863	-1.1638856311	 0.11773
H	 2.1167903916	-0.8484541247	-2.8566035789	 0.093486
H	 3.5133521466	 0.983754013	-1.8321079543	 0.117018
H	 2.1007061366	 1.6067242932	-0.874863077	 0.123207
H	 1.947306953	-1.4930955007	 1.9888114068	 0.123255
H	 0.4338109709	-2.2394091461	 1.4492237739	 0.111926
H	 1.9867693924	-2.7614126563	 0.7589581938	 0.126536
131.4398	157.7483	172.6224	189.4912	210.9595	233.0564	290.1205	307.862	329.9861	413.8313	545.3252	571.2862	597.8671	682.5181	691.7554	726.399	799.5416	825.554	906.6441	941.5299	977.636	1008.1244	1051.9488	1070.2536	1072.0852	1085.4937	1109.0277	1112.4886	1120.6298	1136.2294	1186.091	1219.8795	1239.6279	1251.3071	1349.445	1364.3945	1407.5668	1411.4735	1416.4666	1473.4522	1482.1817	1489.1286	1494.5154	1495.8007	1503.3138	1511.4872	1518.079	3014.9373	3024.5574	3033.7016	3070.092	3083.3282	3086.0375	3095.3813	3098.8347	3109.3125	3116.0084	3123.9234	3143.339	3269.6747
CC1C2(C)C3CN3C12C	C[C@H]1[C@@]2(C)[C@H]3CN3[C@@]12C	
InChI=1S/C8H13N/c1-5-7(2)6-4-9(6)8(5,7)3/h5-6H,4H2,1-3H3	InChI=1S/C8H13N/c1-5-7(2)6-4-9(6)8(5,7)3/h5-6H,4H2,1-3H3/t5-,6+,7-,8-,9?/m0/s1
