23
gdb 88390	2.05382	1.36864	1.14481	2.5299	85.73	-0.2469	-0.0213	0.2256	1252.4153	0.202913	-388.293068	-388.282526	-388.281582	-388.328389	39.279	
C	-1.6218600885	-0.9901772294	 2.3225752806	-0.42456
C	-0.796684847	-0.8574173565	 1.0598391143	-0.00459
C	-0.6876347108	 0.4658319365	 0.3385666831	-0.324968
C	 0.5403595798	-0.1512161845	 0.976290512	-0.005346
C	 1.3449160662	 0.4443649534	 2.1409954244	 0.139281
C	 1.8852599457	-0.6691094037	 3.0484781288	-0.405426
C	 2.5163266708	 1.2607645255	 1.5349174572	-0.422028
C	 0.5519276273	 1.4588188573	 2.9552338868	 0.138239
O	 0.3688169124	 1.4096860977	 4.1451455337	-0.261388
H	-1.5512264869	-0.11002129	 2.9657859395	 0.137112
H	-2.6793505956	-1.1281538673	 2.0708173178	 0.116538
H	-1.308618348	-1.8562250051	 2.9155005969	 0.121091
H	-0.8678042287	-1.7286343797	 0.4125597317	 0.084166
H	-0.7490222416	 0.4916912582	-0.7441370089	 0.110006
H	-1.1513732061	 1.3208575367	 0.8186648447	 0.112826
H	 1.2183999387	-0.6093973913	 0.2583064832	 0.082939
H	 2.4669841815	-1.3864403649	 2.4608928121	 0.105384
H	 2.5301668091	-0.2584557062	 3.8301746749	 0.121042
H	 1.0714605763	-1.2062544584	 3.539806608	 0.130556
H	 2.1501659539	 2.0633684728	 0.8866631015	 0.123432
H	 3.1372928174	 1.7055222865	 2.3191920452	 0.124287
H	 3.1517832373	 0.6050459661	 0.9315623828	 0.12306
H	 0.1785063069	 2.3245013765	 2.3615675399	 0.078347
48.5555	90.0171	164.9449	198.8392	219.1141	239.2993	256.1244	261.3957	302.7089	330.77	355.9242	376.7469	466.3825	542.0969	583.0738	737.0873	779.4812	834.2844	862.0458	901.0397	921.0031	950.0267	950.9536	1018.8306	1032.5234	1048.4102	1075.5188	1094.2507	1126.1451	1155.7802	1180.6108	1203.8187	1217.4487	1248.0497	1290.6299	1384.8264	1395.0733	1410.1107	1412.7688	1427.9692	1437.158	1480.5264	1485.0633	1493.9678	1499.0654	1500.9164	1505.1122	1510.8223	1822.2593	2868.1284	3030.95	3034.6521	3045.7703	3088.78	3104.4184	3106.68	3108.9833	3114.4304	3119.1547	3132.8973	3134.2785	3136.7098	3213.2104
CC1CC1C(C)(C)C=O	C[C@H]1C[C@H]1C(C)(C)C=O	
InChI=1S/C8H14O/c1-6-4-7(6)8(2,3)5-9/h5-7H,4H2,1-3H3	InChI=1S/C8H14O/c1-6-4-7(6)8(2,3)5-9/h5-7H,4H2,1-3H3/t6-,7+/m0/s1
