12
gdb 23936	9.51153	0.67653	0.6316	4.611	90.34	-0.2447	-0.0677	0.177	1599.8519	0.080266	-394.559721	-394.552418	-394.551474	-394.592282	26.029	
N	 0.127942724	-3.7159951952	-0.0195815444	-0.334616
C	 0.0766269657	-2.5539158263	-0.0123991111	 0.156006
C	 0.0220686853	-1.1939940312	-0.0040655609	 0.240237
C	-0.027811444	 0.0184634879	 0.0033803683	-0.038242
C	-0.0844516492	 1.4135736585	 0.0119240598	 0.11638
C	-1.1496869175	 2.3017349691	 0.0308315541	-0.180269
N	-0.7073230554	 3.5894023012	 0.0322459952	-0.229806
C	 0.6095779043	 3.5104548777	 0.014571478	 0.017136
N	 1.041375269	 2.2264056605	 0.0017415377	-0.317623
H	-2.1998354333	 2.0542527901	 0.0431883834	 0.136893
H	 1.2914865295	 4.3476257732	 0.0103311949	 0.149936
H	 1.9954031117	 1.9037642845	-0.0125347277	 0.283968
76.641	84.7278	215.8963	232.0676	433.8865	458.0817	501.2719	548.8633	571.8121	590.6977	670.6292	678.6598	839.6661	878.1415	912.9803	955.1197	1050.0338	1129.2698	1169.8859	1259.229	1322.1275	1362.0399	1427.909	1475.6901	1585.8287	2253.6224	2368.9555	3257.6742	3262.5636	3658.7564
N#CC#CC1=CN=CN1	N#CC#Cc1cnc[nH]1	
InChI=1S/C6H3N3/c7-3-1-2-6-4-8-5-9-6/h4-5H,(H,8,9)	InChI=1S/C6H3N3/c7-3-1-2-6-4-8-5-9-6/h4-5H,(H,8,9)
