17
gdb 67012	2.23206	1.76573	1.63102	2.0341	74.03	-0.2539	0.0183	0.2721	958.6751	0.135637	-417.95418	-417.946133	-417.945189	-417.986386	31.136	
C	-0.1727606388	 1.5005373172	-0.0206106135	-0.526609
C	 0.0981564605	 0.0388095448	 0.0143142496	 0.256729
C	 0.646899989	-0.9877798834	-0.8774450643	-0.085461
C	 1.4062461977	-1.7114601129	 0.235868883	-0.289828
C	 0.4034063809	-1.0373109622	 1.2002391933	 0.291126
O	 0.7108684423	-0.8519279068	 2.5195840929	-0.467496
C	-0.9218685784	-1.5786588385	 0.7589320418	 0.33813
N	-1.8670123876	-2.068811241	 1.42832042	-0.57701
N	-0.8443485299	-1.0170486634	-0.5740511025	-0.236794
H	 0.7174213308	 2.0654036468	 0.2744283656	 0.137485
H	-0.4653309458	 1.8121387037	-1.0275576904	 0.142201
H	-0.9830160832	 1.7630538432	 0.6677238078	 0.138018
H	 0.8913072408	-0.9229057813	-1.9295984121	 0.111674
H	 1.4386106328	-2.8055021775	 0.2370365377	 0.112754
H	 2.4116189198	-1.299038295	 0.3512505466	 0.121329
H	-0.1060688203	-0.9705775169	 3.0229815883	 0.303635
H	-2.7011279808	-2.1972452671	 0.8513349762	 0.230118
122.4779	174.0289	179.9638	208.3758	273.4583	377.6586	418.8647	434.9589	501.1639	622.948	632.176	652.7697	698.837	755.5658	810.3	845.7005	896.9275	939.2521	958.043	977.8429	1010.8168	1056.1624	1089.4845	1093.7723	1130.0745	1154.9332	1228.6296	1243.9377	1279.3518	1376.0104	1403.68	1408.6109	1456.687	1480.6781	1487.8451	1497.4738	1811.2719	3035.4988	3053.1248	3101.2607	3114.4962	3118.0111	3205.0585	3459.0282	3760.5511
CC12C3CC1(O)C(=N)N23	C[C@@]12[C@H]3C[C@]1(O)[C]([NH])N23	
InChI=1S/C6H8N2O/c1-5-3-2-6(5,9)4(7)8(3)5/h3,7,9H,2H2,1H3	InChI=1S/C6H8N2O/c1-5-3-2-6(5,9)4(7)8(3)5/h3,7,9H,2H2,1H3/t3-,5-,6+,8?/m1/s1
