15
gdb 26533	2.43783	1.85784	1.0627	4.9839	72.19	-0.2189	-0.039	0.1799	1061.0402	0.113432	-454.00201	-453.993938	-453.992994	-454.03467	29.937	
C	 0.1238255754	 1.5222080019	 0.0200699994	-0.501086
C	-0.0242104039	 0.0390420248	-0.006270758	 0.301869
C	-1.174507447	-0.6705102924	 0.0653046883	 0.072239
N	-2.4403686631	-0.126294998	 0.2087439212	-0.590419
C	-1.1190796481	-2.1472653771	 0.0492965216	 0.378198
O	-2.1378174843	-2.8112740245	 0.1131501281	-0.366426
N	 0.1516126859	-2.7308393513	-0.050299829	-0.316728
C	 1.1672588199	-1.9618547393	-0.1267029148	 0.114742
O	 1.1787561905	-0.6223761151	-0.1165904882	-0.200682
H	 1.0376040942	 1.8013597499	 0.5521911465	 0.150097
H	 0.1850219737	 1.9510410107	-0.9882584471	 0.144873
H	-0.7290404153	 1.9740021729	 0.5333051527	 0.147271
H	-2.6383671296	 0.7098465041	-0.3192678405	 0.249819
H	-3.1431478285	-0.8487752855	 0.0965325576	 0.268438
H	 2.1771424203	-2.3527381009	-0.2142272078	 0.147792
102.969	114.2394	179.9325	271.4221	309.0353	345.1839	359.1764	510.3772	523.5477	533.4447	536.3203	566.2529	681.6791	714.7468	817.6726	881.0542	920.6992	959.5178	1014.1396	1055.9304	1113.4217	1207.9548	1240.6489	1265.2568	1394.8862	1418.58	1438.1493	1479.882	1486.0519	1616.7783	1641.9396	1709.8061	1764.67	3026.5497	3091.3739	3128.0196	3185.6016	3530.209	3653.6756
CC1=C(N)C(=O)N=CO1	Cc1c(N)c(=O)nco1	
InChI=1S/C5H6N2O2/c1-3-4(6)5(8)7-2-9-3/h2H,6H2,1H3	InChI=1S/C5H6N2O2/c1-3-4(6)5(8)7-2-9-3/h2H,6H2,1H3
