21
gdb 79076	2.65751	1.67781	1.42337	0.5392	86.61	-0.2152	0.0198	0.2349	1045.1552	0.183442	-349.937868	-349.929832	-349.928888	-349.969754	32.722	
C	-0.036172085	 1.6104573995	-0.0518223519	-0.416036
C	 0.0948677554	 0.0937559048	-0.0168922579	 0.042889
C	 0.7191750639	-0.6724721205	-1.1756629718	-0.142364
C	 2.2710454057	-0.7745622719	-1.0668558863	-0.127752
C	 3.0029982384	 0.1505927512	-0.1590800751	-0.080187
C	 2.3920071856	 0.1785226002	 1.0318222813	-0.094476
C	 1.1300984257	-0.6420850477	 0.9517662145	-0.177338
C	 1.3749257089	-1.6515303381	-0.2303153773	 0.353615
C	 1.3667227437	-3.1481680187	-0.1698195906	-0.51953
H	 0.9243127629	 2.0956400942	-0.2409570109	 0.119448
H	-0.7267589436	 1.9109181754	-0.8482373416	 0.108098
H	-0.4340512367	 1.9973105682	 0.8936443327	 0.105981
H	-0.8842422013	-0.3553582472	 0.1829986736	 0.074219
H	 0.2496248184	-0.8649804183	-2.1348649692	 0.077229
H	 2.7504301333	-1.1980764135	-1.9431636901	 0.076046
H	 3.8742694119	 0.7226790724	-0.4544337815	 0.091553
H	 2.6517244424	 0.8091576766	 1.873379826	 0.090807
H	 0.7179704359	-1.0100587518	 1.8915501194	 0.059418
H	 0.4244001564	-3.5290079211	 0.2417896769	 0.11692
H	 1.4883751689	-3.578223953	-1.1699011045	 0.118422
H	 2.1812846191	-3.5277091608	 0.4583927644	 0.123038
154.6914	203.4941	210.4468	218.1235	256.658	292.5534	446.8539	482.3483	548.2438	599.9305	681.2949	693.7232	765.3828	799.8219	807.9537	832.0499	873.1855	921.0609	922.8314	944.2578	956.1755	984.6136	1028.8907	1042.4217	1058.873	1087.3013	1110.0703	1117.1464	1130.715	1158.3378	1189.6437	1212.211	1256.2329	1283.6065	1321.2009	1359.2993	1382.1757	1402.8642	1409.3347	1455.1258	1483.275	1490.6409	1497.739	1500.6123	1640.5739	3018.2122	3026.5583	3041.5178	3076.881	3085.0048	3091.2414	3106.8774	3120.5993	3159.4106	3171.1737	3192.6112	3217.5608
CC1C2C3C=CC1C23C	C[C@H]1[C@H]2[C@H]3C=C[C@@H]1[C@@]23C	
InChI=1S/C9H12/c1-5-6-3-4-7-8(5)9(6,7)2/h3-8H,1-2H3	InChI=1S/C9H12/c1-5-6-3-4-7-8(5)9(6,7)2/h3-8H,1-2H3/t5-,6+,7-,8+,9-/m1/s1
