18
gdb 96886	2.59278	1.21483	0.99672	3.0382	76.04	-0.2528	-0.0406	0.2122	1259.3166	0.144988	-439.086724	-439.077032	-439.076088	-439.122197	33.32	
C	-0.2387034831	 1.4123890443	-0.163606498	-0.341298
N	-0.2070226181	-0.0314154451	-0.3547519094	-0.327472
C	-1.1638335727	-0.7275288926	 0.0379094362	 0.483174
O	-2.3484542548	-0.3719076284	 0.6761487459	-0.259349
C	-2.8167138503	-1.7384016687	 0.6711060868	 0.021579
C	-4.0798738269	-1.9409730928	-0.131475516	 0.14506
O	-4.5806890424	-1.1153382348	-0.8459210075	-0.228865
C	-1.4821740245	-2.2101858293	-0.0061826675	-0.186218
C	-1.5045847024	-2.8692676798	-1.380562512	-0.417428
H	 0.6085636749	 1.7082307213	 0.4646522626	 0.12897
H	-0.1035193792	 1.9015365756	-1.1339527196	 0.131576
H	-1.1634585349	 1.7827701307	 0.2928556144	 0.131888
H	-2.9662502057	-2.1149988658	 1.6901720571	 0.107371
H	-4.5140855935	-2.9613121323	-0.0139971854	 0.080497
H	-0.8603201703	-2.7828864597	 0.6870341078	 0.115092
H	-2.151891043	-2.3263352176	-2.0748154341	 0.145189
H	-0.4932916041	-2.8684060219	-1.7955307954	 0.148241
H	-1.8481691589	-3.9065532031	-1.3209072059	 0.121993
61.0279	81.5216	87.2734	144.6615	184.5741	210.7092	240.2389	269.3717	301.058	425.1526	541.8891	648.9993	667.2195	762.0131	808.7331	832.7894	919.1578	972.0822	1029.5189	1045.7976	1083.9551	1093.7599	1124.094	1134.1415	1147.3856	1187.0776	1215.6142	1277.6048	1340.6186	1371.1146	1411.4164	1418.909	1440.8308	1493.5594	1495.3403	1498.0561	1500.0273	1840.9784	1859.9206	2861.7128	3021.3376	3042.462	3044.731	3078.4294	3087.2958	3093.7927	3117.3786	3127.1477
CN=C1OC(C=O)C1C	CN=C1O[C@@H](C=O)[C@H]1C	
InChI=1S/C6H9NO2/c1-4-5(3-8)9-6(4)7-2/h3-5H,1-2H3	InChI=1S/C6H9NO2/c1-4-5(3-8)9-6(4)7-2/h3-5H,1-2H3/t4-,5+/m1/s1
