23
gdb 92608	3.70358	1.14177	0.95358	0.3539	92.39	-0.2225	0.0264	0.2488	1330.6923	0.208461	-351.190849	-351.18251	-351.181566	-351.223661	33.389	
C	-0.1126056674	 1.580052928	 0.0323120365	-0.394615
C	 0.0237129538	 0.0542650954	 0.0273345399	 0.00455
C	 0.774831307	-0.5075582484	-1.218669685	-0.258023
C	 1.4742090245	-1.7807218928	-0.7084291611	-0.036843
C	 2.9092251427	-2.1528387543	-1.1188493113	-0.232393
C	 3.4093466205	-2.9796851763	 0.0928691895	-0.201178
C	 2.7481958129	-2.3314132332	 1.3504098013	-0.336828
C	 1.6255056771	-1.5075839948	 0.7740613913	 0.382058
C	 0.8489382086	-0.5056008799	 1.177796683	-0.261406
H	 0.8723438877	 2.0602887675	 0.0170154118	 0.111424
H	-0.670751911	 1.9281439762	-0.8437327277	 0.10991
H	-0.6428942555	 1.9307389584	 0.9244326751	 0.109083
H	-0.9924095921	-0.3713477091	 0.0612675689	 0.071909
H	 0.1116131127	-0.6762301032	-2.0723257555	 0.087924
H	 1.5326062856	 0.223660451	-1.5291919109	 0.092601
H	 0.8283656383	-2.6606389259	-0.8628084498	 0.069237
H	 2.9798344766	-2.7052741906	-2.0604667073	 0.090498
H	 3.5067973775	-1.2383642539	-1.2244952445	 0.094594
H	 3.0670251343	-4.0156333631	-0.0086460627	 0.100189
H	 4.500055105	-3.0121089209	 0.1612879128	 0.095672
H	 2.4009882467	-3.0931511343	 2.0575595961	 0.109082
H	 3.4549439235	-1.6995221164	 1.8996211903	 0.112754
H	 0.790235611	-0.1014984395	 2.1837412892	 0.079802
79.3446	148.6248	184.8645	232.2994	282.2127	327.1751	402.1741	441.5897	534.6915	592.6667	607.6595	656.4959	781.643	827.3677	841.7713	857.0857	878.6032	906.8346	926.112	932.8409	978.0082	996.4128	1015.3655	1052.9514	1078.1734	1098.2228	1122.4805	1167.0925	1176.2872	1191.0114	1212.4425	1229.7863	1260.1877	1285.1349	1293.5341	1310.6267	1312.3828	1336.5968	1342.3073	1363.4388	1369.2562	1406.6791	1476.256	1485.927	1491.948	1497.0033	1498.7314	1505.4745	1730.7367	2963.7388	2964.9373	3021.9323	3025.0644	3029.3974	3033.9985	3043.4892	3064.5889	3082.8215	3086.4671	3093.4527	3094.2288	3097.3349	3176.0455
CC1CC2CCCC2=C1	C[C@H]1C[C@H]2CCCC2=C1	
InChI=1S/C9H14/c1-7-5-8-3-2-4-9(8)6-7/h5,7,9H,2-4,6H2,1H3	InChI=1S/C9H14/c1-7-5-8-3-2-4-9(8)6-7/h5,7,9H,2-4,6H2,1H3/t7-,9-/m1/s1
