17
gdb 11361	4.99342	1.24363	1.0638	3.4375	71.8	-0.2076	0.002	0.2096	1114.7817	0.142464	-363.91901	-363.911013	-363.910069	-363.951644	29.474	
C	 0.038317851	 1.5380759784	 0.2124769683	-0.371807
C	-0.036915423	 0.0353177114	-0.1121715238	-0.287653
C	-1.4248287181	-0.5224939928	-0.0754186198	 0.273411
C	-2.1174629981	-1.0522513273	-1.0915459807	-0.12096
N	-3.3943704799	-1.4785759889	-0.6874763148	-0.320172
C	-3.604564956	-1.2474430861	 0.6594274094	 0.420731
O	-4.6052730851	-1.5143974717	 1.2831492259	-0.370132
C	-2.3037463506	-0.5896730599	 1.1551671873	-0.449962
H	 1.0726491314	 1.8932802904	 0.1724036652	 0.11454
H	-0.5515141333	 2.1216315678	-0.5012751482	 0.119752
H	-0.3462383301	 1.7494388228	 1.2153870491	 0.119923
H	 0.3925041235	-0.1445827746	-1.1049806011	 0.100892
H	 0.6005222568	-0.5088644828	 0.5996502405	 0.103271
H	-1.8151795247	-1.1817892712	-2.1216896225	 0.122396
H	-4.0839488722	-1.9139468482	-1.2765506827	 0.259217
H	-1.8746109214	-1.1934348488	 1.9640342585	 0.141958
H	-2.5369330802	 0.3896072213	 1.5885774494	 0.144595
77.2295	101.8259	173.1871	211.4927	307.1905	358.1357	442.2698	485.0508	495.4863	567.9154	591.7539	737.2694	785.2125	842.9344	859.1333	904.2788	948.5935	968.8547	1050.0887	1081.9417	1100.3307	1150.1922	1184.7098	1209.6757	1279.0488	1299.7014	1352.3703	1373.5499	1400.1598	1408.1787	1434.0068	1477.5581	1498.5285	1507.2067	1708.4782	1837.6584	3000.8714	3036.1954	3042.1826	3052.0368	3075.3727	3107.1097	3110.2634	3230.5495	3668.4725
CCC1=CNC(=O)C1	CCC1=CNC(=O)C1	
InChI=1S/C6H9NO/c1-2-5-3-6(8)7-4-5/h4H,2-3H2,1H3,(H,7,8)	InChI=1S/C6H9NO/c1-2-5-3-6(8)7-4-5/h4H,2-3H2,1H3,(H,7,8)
