18
gdb 55488	4.73635	0.65033	0.59985	3.5346	83.52	-0.2304	-0.0181	0.2123	1863.1288	0.145103	-401.911494	-401.901349	-401.900405	-401.949875	34.368	
C	-0.3030754486	 1.4212404837	 0.3630559896	-0.477879
C	-0.4314515735	-0.0790351687	 0.5573554496	 0.392005
O	-0.2447078334	-0.6153868811	 1.6192775021	-0.26996
C	-0.8194415818	-0.8644750976	-0.711685993	-0.488955
C	-1.0150455399	-2.2862827492	-0.4948998797	 0.052718
C	-1.1701688271	-3.4625677371	-0.2875864362	 0.147017
C	-1.3724866037	-4.852514941	 0.0077251965	-0.16109
C	-0.2930722474	-5.6292335282	 0.6899178877	-0.225683
N	-1.5160520919	-5.2862158761	 1.4205917779	-0.308059
H	 0.0485626069	 1.8825833065	 1.2861367125	 0.147468
H	 0.3885119475	 1.6509549664	-0.4548484037	 0.138876
H	-1.2742246994	 1.8493223523	 0.0889406784	 0.144128
H	-1.7229116143	-0.3997335555	-1.1313245348	 0.148214
H	-0.0336748775	-0.6812835285	-1.4594663447	 0.149762
H	-2.0330570466	-5.3863255637	-0.6708151131	 0.114075
H	-0.1762855981	-6.684471263	 0.4592931099	 0.122673
H	 0.6265142156	-5.1013944979	 0.9236704059	 0.126605
H	-1.3386198268	-4.4839307109	 2.0212465451	 0.248087
19.9225	24.9608	51.0587	100.4475	144.1409	178.9234	296.2424	328.0889	363.1556	464.9238	509.6877	526.9695	606.3167	739.7947	796.3784	815.3794	828.845	882.9884	960.5134	967.0398	1000.0434	1052.1437	1092.2681	1122.5054	1159.4736	1168.6681	1220.5733	1223.2997	1259.1183	1302.298	1330.279	1383.0443	1399.4652	1440.0977	1465.0758	1476.947	1504.1663	1830.0809	2370.8266	3004.6348	3030.9068	3038.2842	3098.4825	3114.0071	3137.4493	3156.0865	3205.6439	3501.1926
CC(=O)CC#CC1CN1	CC(=O)CC#C[C@H]1CN1	
InChI=1S/C7H9NO/c1-6(9)3-2-4-7-5-8-7/h7-8H,3,5H2,1H3	InChI=1S/C7H9NO/c1-6(9)3-2-4-7-5-8-7/h7-8H,3,5H2,1H3/t7-/m0/s1
