17
gdb 131815	5.65337	0.64966	0.62111	4.5185	70.43	-0.2773	-0.0415	0.2358	1736.603	0.135496	-455.100944	-455.092095	-455.091151	-455.136283	30.684	
O	 0.0037946627	 1.3613180596	-0.4298393614	-0.419398
C	 0.0166436333	 0.0394865034	 0.0805089762	-0.071901
C	-1.3707840418	-0.5515291462	-0.1370414398	-0.171528
C	-1.4679782786	-2.0058416597	 0.3546388779	-0.32665
C	-2.8259525589	-2.5974946612	 0.147031606	 0.340286
N	-3.6116223543	-2.9218363276	 1.1406668273	-0.146511
O	-4.7567915482	-3.4137549546	 0.5775734422	-0.148389
N	-4.6863100123	-3.397364974	-0.7855479455	-0.058856
C	-3.5146469391	-2.9011566269	-1.0657671735	-0.105831
H	 0.8659695998	 1.7563115387	-0.2710525375	 0.289051
H	 0.7698810765	-0.5819992474	-0.4323846351	 0.085999
H	 0.2611158117	 0.0246731531	 1.1552779663	 0.091584
H	-2.1071153811	 0.0684299305	 0.3852623121	 0.126356
H	-1.6094430316	-0.4926777659	-1.2053604666	 0.112802
H	-0.7262303548	-2.6214757951	-0.1698926873	 0.12126
H	-1.2331404296	-2.0624828708	 1.4218542632	 0.134852
H	-3.1961043638	-2.7773838557	-2.0893499748	 0.146874
37.1007	78.3406	91.9978	121.2472	251.4573	258.7406	320.4176	334.598	472.1282	650.5266	691.5619	748.4401	765.9033	868.7537	896.0863	898.1103	934.0531	1020.5265	1023.2601	1038.6638	1047.2493	1087.4172	1114.456	1200.3541	1215.2353	1234.0459	1297.128	1307.1226	1317.2054	1377.0598	1427.3881	1464.4862	1467.5257	1481.6707	1499.2789	1528.3486	1614.8084	2956.919	2984.4396	3029.5254	3043.5439	3080.3478	3100.2017	3266.2917	3832.1038
OCCCC1=NON=C1	OCCCc1nonc1	
InChI=1S/C5H8N2O2/c8-3-1-2-5-4-6-9-7-5/h4,8H,1-3H2	InChI=1S/C5H8N2O2/c8-3-1-2-5-4-6-9-7-5/h4,8H,1-3H2
