17
gdb 61479	2.69549	0.88937	0.82449	4.6908	73.38	-0.3151	-0.0023	0.3128	1445.6793	0.13437	-418.033592	-418.023664	-418.02272	-418.069129	34.673	
C	-1.5555288276	-0.3166144887	 0.1558650636	-0.405327
C	-0.0769052064	 0.1057139316	 0.0718616495	-0.132753
C	 0.7391435383	-0.4135569804	 1.2754971366	-0.210214
C	 2.1725532455	 0.1498678825	 1.2978037132	-0.03443
O	 2.2016101961	 1.5660471215	 1.3258194718	-0.406824
C	 2.9282985169	-0.4227204635	 2.4283125087	 0.25829
N	 3.4912978188	-0.8491457099	 3.3427507123	-0.30786
C	 0.5240701575	-0.3554291874	-1.1851339139	 0.274672
N	 1.0092580365	-0.7333077053	-2.1639585176	-0.324625
H	-2.0030301934	 0.0815455762	 1.0707637471	 0.129349
H	-2.1184220787	 0.0650611798	-0.6989251329	 0.145287
H	-1.6510755359	-1.4058801077	 0.1695016254	 0.142534
H	-0.012105512	 1.1997527478	 0.073007388	 0.145665
H	 0.2257248467	-0.1197036151	 2.19826815	 0.117878
H	 0.7791419472	-1.5076865666	 1.26166542	 0.141474
H	 2.6827906936	-0.1324189766	 0.3698538565	 0.168226
H	 1.9193481367	 1.8616860718	 2.1994476218	 0.298659
52.0455	80.2287	115.0519	166.5411	214.3061	224.6583	265.4364	284.7692	328.2316	342.7328	433.8085	534.168	577.7402	587.1115	602.8531	785.1296	856.0597	918.522	951.8731	998.3607	1065.5652	1095.8704	1114.4499	1150.9718	1196.2618	1280.7393	1295.1264	1332.1002	1368.0459	1377.8319	1415.3681	1423.5024	1475.7095	1492.764	1500.427	2355.2066	2357.7357	3042.2306	3048.8127	3055.9391	3064.8235	3096.7644	3124.3507	3132.4756	3798.8905
CC(CC(O)C#N)C#N	C[C@@H](C[C@@H](O)C#N)C#N	
InChI=1S/C6H8N2O/c1-5(3-7)2-6(9)4-8/h5-6,9H,2H2,1H3	InChI=1S/C6H8N2O/c1-5(3-7)2-6(9)4-8/h5-6,9H,2H2,1H3/t5-,6+/m0/s1
