20
gdb 50693	2.85228	1.38151	1.0536	2.557	78.41	-0.2335	-0.023	0.2105	1167.1954	0.172206	-403.1398	-403.131645	-403.130701	-403.172843	31.355	
O	-0.521640123	 0.6221701025	-0.6890818507	-0.248201
C	 0.0879046908	 1.0733522585	 0.246045234	 0.151759
C	 1.318006175	 1.9598994685	 0.1239658599	-0.051792
C	 1.4957850253	 2.5674228676	-1.2736685842	-0.211306
C	 2.6883475925	 3.5266622175	-1.2583127675	-0.208477
C	 2.4393533615	 4.6907189732	-0.2852489987	-0.22933
C	 1.8788068628	 4.2368323688	 1.0655753764	 0.001187
C	 0.4100927815	 4.0343580215	 1.2316769842	-0.254255
N	 1.3204757933	 2.8892324547	 1.258542391	-0.104934
H	-0.2060896926	 0.8603885041	 1.2975493887	 0.090947
H	 2.1740143788	 1.2849713784	 0.301442926	 0.106284
H	 1.6406191378	 1.7550854085	-1.9909958933	 0.115704
H	 0.5823477345	 3.0885132278	-1.5854863611	 0.10621
H	 3.5874656566	 2.9743564206	-0.9540400306	 0.099555
H	 2.8853215523	 3.9197115003	-2.2606407196	 0.09838
H	 3.3702409823	 5.2406360265	-0.1172543772	 0.104469
H	 1.7435403544	 5.4008729457	-0.747866025	 0.1081
H	 2.4366665035	 4.5801674334	 1.9341473223	 0.094374
H	-0.083977794	 4.2535110221	 2.1745907297	 0.115917
H	-0.2080042335	 4.1979548197	 0.3503948359	 0.115409
66.4794	113.2575	197.9315	224.6524	272.6055	378.2003	399.8236	442.046	524.2962	591.4621	647.7874	733.9012	768.4059	834.5997	845.9839	898.7498	926.1413	949.9104	961.8916	1002.2931	1068.8142	1074.8022	1112.1158	1118.6784	1127.8515	1146.2102	1168.3807	1194.4137	1219.915	1280.1658	1302.3928	1326.5468	1339.4307	1362.3517	1369.0357	1377.7101	1399.195	1408.2478	1484.8066	1489.3627	1499.6999	1517.8906	1832.2938	2894.6354	2953.5905	3019.0078	3031.9148	3041.3388	3074.1334	3080.8362	3094.7926	3096.147	3122.7264	3179.641
O=CC1CCCC2CN12	O=C[C@H]1CCC[C@H]2CN12	
InChI=1S/C7H11NO/c9-5-7-3-1-2-6-4-8(6)7/h5-7H,1-4H2	InChI=1S/C7H11NO/c9-5-7-3-1-2-6-4-8(6)7/h5-7H,1-4H2/t6-,7+,8?/m0/s1
