21
gdb 58782	2.50775	1.25054	1.19525	1.6842	79.29	-0.2397	0.0757	0.3154	1198.8985	0.180678	-424.1951	-424.185438	-424.184494	-424.229229	36.881	
C	 0.1787181941	 1.3862005362	 0.2886418725	-0.409652
C	-0.095825036	-0.0907170094	-0.0133967084	 0.007948
O	-1.4939100644	-0.3285818807	-0.1806978724	-0.440829
C	 0.5731108457	-0.5514345653	-1.2756376672	 0.359533
C	 2.0299705106	-0.9614474135	-1.3266576769	-0.415813
C	 0.9682496006	-1.9504169075	-1.7301525134	 0.346055
O	 0.7763475323	-3.1373889018	-1.0440871752	-0.464803
C	 0.4650195006	-1.6753912374	-3.1488728187	-0.286216
C	 0.1005202903	-0.2188621197	-2.7002599819	-0.286874
H	 1.2500523145	 1.5651943122	 0.4214396943	 0.11959
H	-0.1822494063	 2.017601038	-0.5291597784	 0.125687
H	-0.3292556071	 1.6963129067	 1.2097486917	 0.100905
H	 0.2912370605	-0.7033910984	 0.8176815187	 0.067832
H	-1.9492895117	 0.0404985997	 0.5824012332	 0.279463
H	 2.7090115717	-0.5156970208	-2.0516986872	 0.097789
H	 2.4744489003	-1.1710645703	-0.3576012824	 0.107846
H	 1.5522789947	-3.6932864967	-1.1753627817	 0.283499
H	 1.1904310346	-1.7862590527	-3.9624766438	 0.085203
H	-0.4259227247	-2.2630790366	-3.3801221631	 0.112987
H	-0.971063341	-0.0227258164	-2.7453479238	 0.122184
H	 0.6402227706	 0.5891963043	-3.2048266759	 0.087665
68.2376	115.9009	172.5033	230.4372	254.1147	259.4202	263.5433	286.7908	365.7028	409.036	439.9467	507.0518	569.2504	597.3826	715.8406	738.8416	797.3112	867.6427	892.4127	926.8167	934.0296	981.1725	1014.5354	1027.9817	1067.8333	1087.6042	1115.2916	1121.594	1158.8238	1201.6376	1219.8846	1230.1942	1238.7691	1281.0584	1310.4136	1344.8056	1358.8785	1390.315	1401.2459	1444.8247	1478.9936	1481.4126	1492.5749	1502.0662	1525.1374	2963.3694	3026.1324	3037.7223	3050.2177	3092.0285	3093.6083	3108.141	3115.691	3132.4755	3188.0465	3791.2877	3820.4554
CC(O)C12CC1(O)CC2	C[C@@H](O)[C@@]12C[C@]1(O)CC2	
InChI=1S/C7H12O2/c1-5(8)6-2-3-7(6,9)4-6/h5,8-9H,2-4H2,1H3	InChI=1S/C7H12O2/c1-5(8)6-2-3-7(6,9)4-6/h5,8-9H,2-4H2,1H3/t5-,6-,7-/m1/s1
