16
gdb 79555	4.02706	1.14854	1.0095	1.503	76.35	-0.2232	0.0124	0.2356	1165.0582	0.12233	-400.608185	-400.600212	-400.599268	-400.640281	31.533	
O	-0.0415070408	 1.3265464783	-0.030758048	-0.427977
C	 0.0468981188	-0.0702130331	-0.0112279858	 0.055594
C	-0.5336666969	-0.7001317543	 1.2396279037	-0.057549
C	-1.3087534024	-0.7054630503	-0.0549706347	-0.128508
C	-1.2602318425	-2.2499733688	 0.0092155266	 0.085122
C	 0.104554942	-2.8187335806	 0.1949605594	-0.275757
N	-0.5431214716	-2.207760482	 1.3648371586	-0.175789
C	-2.4131677812	-3.0511190209	-0.2299069984	 0.249841
C	-3.3988728347	-3.6987027318	-0.468643245	-0.390267
H	 0.6577758238	 1.6762269733	 0.5321644455	 0.292703
H	 0.9017567952	-0.4693200143	-0.5522285586	 0.092686
H	-0.6856508131	-0.1234690451	 2.1428934312	 0.110259
H	-2.1950508897	-0.1539363489	-0.3341257478	 0.113055
H	 0.1478538011	-3.9004018096	 0.2818891005	 0.136728
H	 0.9808666697	-2.3779427973	-0.2644591433	 0.125765
H	-4.2664778376	-4.2780610645	-0.6666531938	 0.194094
130.3416	137.254	272.0686	283.3486	292.1364	346.4926	434.6353	458.7297	519.6976	540.2622	588.5538	613.175	660.7443	707.29	815.7912	832.9328	866.7759	898.7757	928.2754	970.9042	993.7862	1055.397	1076.8576	1106.3739	1113.7747	1136.2288	1182.7265	1197.428	1252.1779	1280.7154	1299.0493	1341.4601	1435.6082	1504.9268	2232.077	3107.9864	3137.1932	3195.8075	3220.6491	3224.1551	3502.0312	3802.0051
OC1C2C1C1(CN21)C#C	O[C@H]1[C@H]2[C@@H]1[C@]1(CN21)C#C	
InChI=1S/C7H7NO/c1-2-7-3-8(7)5-4(7)6(5)9/h1,4-6,9H,3H2	InChI=1S/C7H7NO/c1-2-7-3-8(7)5-4(7)6(5)9/h1,4-6,9H,3H2/t4-,5+,6+,7+,8?/m0/s1
