22
gdb 109778	2.6342	1.07234	0.89722	2.3718	83.59	-0.2333	0.0712	0.3045	1395.926	0.193241	-404.293287	-404.28334	-404.282396	-404.328541	36.581	
C	-0.034741477	 0.9275025553	-2.2578489576	-0.41431
C	 0.0033759594	-0.2022332994	-1.2492637409	-0.055583
C	 1.1922037458	-0.4587083417	-0.3332789266	-0.08814
C	 2.4420150107	 0.3917174093	-0.3722437653	-0.080426
O	 3.3537087482	-0.0396656737	-1.3773978655	-0.423954
C	-0.1100554015	 0.0605007551	 0.234999376	 0.016825
N	-0.1615216109	 1.4260932241	 0.6831333058	-0.060609
C	-1.4308751571	 1.8783464683	 1.244511163	-0.222632
C	-0.2546828402	 1.6348637219	 2.1249206803	-0.221988
H	 0.3953326833	 1.8460923628	-1.8561052285	 0.14027
H	 0.5033450976	 0.660688283	-3.1753277418	 0.105319
H	-1.0683078937	 1.1510123497	-2.5444062375	 0.117516
H	-0.5042383493	-1.1026783278	-1.5863510266	 0.083687
H	 1.4035617814	-1.5059858854	-0.132601505	 0.087385
H	 2.1871281176	 1.4523019949	-0.4834097718	 0.104264
H	 2.9873056368	 0.2913903125	 0.5727444032	 0.106053
H	 2.8956105619	 0.0212390678	-2.2216555777	 0.280338
H	-0.7058692861	-0.6479481127	 0.8193161932	 0.068028
H	-1.7294851104	 2.8904067996	 0.98667852	 0.117326
H	-2.2476177593	 1.1600747641	 1.2954520826	 0.110834
H	-0.2857982099	 0.7540541338	 2.7640490398	 0.111811
H	 0.3214555429	 2.4658276286	 2.5217699508	 0.117988
65.1026	86.8292	116.7829	150.7607	170.3321	238.7051	272.6194	303.222	327.3582	351.7942	487.7691	563.8238	611.5275	747.0714	773.7343	807.0957	836.9478	895.7546	935.4678	952.2185	993.06	1012.4347	1038.8693	1059.5767	1080.9203	1108.933	1116.6305	1118.4029	1121.599	1153.6227	1159.8496	1175.6323	1208.6981	1231.2846	1250.2633	1326.7091	1340.8576	1379.1944	1390.5117	1417.0438	1427.7365	1452.0479	1491.5011	1493.4184	1503.4292	1518.5232	1519.7512	3027.8607	3032.6401	3035.4807	3070.3276	3079.8853	3094.7957	3099.0881	3125.3743	3138.3527	3146.4338	3177.4551	3191.9506	3817.865
CC1C(CO)C1N1CC1	C[C@H]1[C@@H](CO)[C@H]1N1CC1	
InChI=1S/C7H13NO/c1-5-6(4-9)7(5)8-2-3-8/h5-7,9H,2-4H2,1H3	InChI=1S/C7H13NO/c1-5-6(4-9)7(5)8-2-3-8/h5-7,9H,2-4H2,1H3/t5-,6+,7-/m0/s1
