19
gdb 37423	2.86255	2.12222	1.73093	1.8852	76.34	-0.2066	0.0667	0.2733	864.6761	0.164018	-382.008896	-382.002803	-382.001859	-382.038949	26.674	
C	-0.0532730805	 1.5649604699	-0.0013913313	-0.259981
C	 1.4926184015	 1.5385839884	 0.0121475114	 0.030911
C	 2.2057036492	 1.4478566546	 1.3810656143	-0.259981
C	 2.0420468289	-0.0992874585	 1.2826916271	 0.002551
C	 0.9563723983	-0.7559273261	 2.1220842263	-0.044937
N	-0.1276847913	 0.154915179	 2.5425631713	-0.33007
C	-0.3127825421	-0.6901346372	 1.3453809776	-0.044936
C	-0.0083096744	 0.0070020972	 0.0279059537	 0.002551
N	 1.4987273597	 0.0275797777	-0.1258274638	-0.141592
H	-0.5378859816	 2.0357225525	 0.8551436872	 0.119213
H	-0.4695404863	 1.9680954684	-0.9271817045	 0.097538
H	 1.9981990485	 2.1179395521	-0.7649111861	 0.066112
H	 3.2470694294	 1.7754281189	 1.3473231299	 0.097538
H	 1.69906314	 1.9197612325	 2.224119696	 0.119213
H	 2.9706964324	-0.6746483243	 1.325925205	 0.069964
H	 1.200298663	-1.6042509749	 2.7531699067	 0.08725
H	-0.6293019771	-0.2542721147	 3.3275564092	 0.231441
H	-1.0478162788	-1.4877092158	 1.3773584503	 0.08725
H	-0.5099911289	-0.4942122997	-0.8041993503	 0.069964
216.0712	248.6132	369.9812	461.3527	518.674	646.1497	665.1855	686.631	710.0817	790.1522	812.9305	833.5108	858.0029	873.9514	898.0356	946.0372	954.3729	976.0057	986.5074	1020.5483	1024.3586	1064.8514	1066.5274	1083.0663	1108.8084	1162.028	1167.2431	1178.075	1220.5204	1230.7471	1239.5215	1257.6766	1266.1288	1277.7527	1318.5918	1355.6026	1365.5905	1368.7303	1415.3318	1458.6207	1474.9074	3059.6171	3060.8648	3063.1989	3072.2595	3078.5844	3131.4487	3133.9101	3157.5704	3167.5922	3492.8582
C1C2CC3C4NC4C1N23	C1[C@H]2C[C@H]3[C@H]4N[C@H]4[C@@H]1N23	
InChI=1S/C7H10N2/c1-3-2-5-7-6(8-7)4(1)9(3)5/h3-8H,1-2H2	InChI=1S/C7H10N2/c1-3-2-5-7-6(8-7)4(1)9(3)5/h3-8H,1-2H2/t3-,4+,5-,6-,7+
