20
gdb 107492	2.01644	1.84263	1.24871	2.1665	79.1	-0.2285	0.0685	0.297	1085.8996	0.171698	-403.084911	-403.076535	-403.07559	-403.117576	33.03	
O	 0.2355060296	 1.3014959129	 0.3858443282	-0.408407
C	 0.0362410332	-0.0428607448	-0.0435438551	-0.193483
C	-1.3999132631	-0.4746160039	-0.007848312	 0.257054
C	-1.911679547	-1.6285673803	-0.8349420139	-0.332892
C	-2.5450708956	-0.2803313274	-1.0222540725	-0.112914
C	-3.5422071139	-0.0116903058	 0.1171169209	-0.304765
C	-2.3855962034	-0.1999477868	 1.1208399256	 0.305345
C	-2.3413341652	-0.6878940213	 2.5166591141	-0.315942
N	-2.168741914	 0.7478744119	 2.2058185353	-0.375999
H	-0.3581748068	 1.859585256	-0.1284281922	 0.286049
H	 0.4435261496	-0.2047122173	-1.0544404171	 0.094886
H	 0.6387219112	-0.6517993575	 0.6418211531	 0.115194
H	-1.2496767312	-1.952299555	-1.6332758306	 0.11054
H	-2.465960515	-2.4358001843	-0.3618275959	 0.111326
H	-2.5263534772	 0.2307253747	-1.9777723574	 0.087509
H	-3.9132340647	 1.0152847551	 0.1457888354	 0.114921
H	-4.3874631851	-0.7044870987	 0.18295616	 0.09864
H	-3.2596657814	-0.9309748016	 3.0452875316	 0.114359
H	-1.474962769	-1.2673315901	 2.8292178884	 0.10643
H	-1.1866481308	 1.0128410242	 2.2341388741	 0.242151
103.9227	153.4258	177.8202	212.269	302.5761	369.37	382.7867	412.4599	420.817	523.3664	576.1324	647.6871	773.3383	831.0592	850.3917	873.7438	900.2176	940.2907	963.2259	974.9288	988.9302	1020.2252	1029.0596	1053.8569	1062.6467	1087.0469	1095.2351	1131.6779	1155.3289	1197.7239	1225.1271	1244.4369	1269.6765	1278.7134	1303.7084	1359.845	1390.8963	1419.9917	1427.24	1479.5135	1497.6257	1502.6885	1515.3712	2976.6998	3047.4951	3048.2641	3096.0094	3105.1718	3111.6232	3176.7975	3179.0394	3192.232	3501.7554	3805.2081
OCC12CC1CC21CN1	OC[C@]12C[C@H]1C[C@]12CN1	
InChI=1S/C7H11NO/c9-4-6-1-5(6)2-7(6)3-8-7/h5,8-9H,1-4H2	InChI=1S/C7H11NO/c9-4-6-1-5(6)2-7(6)3-8-7/h5,8-9H,1-4H2/t5-,6+,7+/m0/s1
