16
gdb 51162	4.50182	1.03122	0.93716	2.7809	68.72	-0.2446	-0.022	0.2226	1215.6975	0.123797	-437.886127	-437.878284	-437.87734	-437.919611	28.682	
O	 0.2022886687	-0.163345493	-0.0560398658	-0.241573
C	 0.0749367438	 1.026415897	-0.1899210695	 0.163878
C	 1.1911301525	 2.0331330941	 0.0334948093	-0.375073
C	 1.2828112517	 3.0262358963	-1.1020733447	 0.313677
C	 1.9588927917	 2.6872030824	-2.419375089	-0.349705
C	 2.5180475694	 3.7872331936	-1.564656698	 0.011084
O	 2.0617327317	 5.1018496705	-1.8539924297	-0.210032
C	 0.72203765	 5.0633220897	-1.6379467945	 0.097148
N	 0.1983663236	 3.9866056558	-1.2087954295	-0.302638
H	-0.8942028055	 1.4777373136	-0.4922516273	 0.10263
H	 0.9725256386	 2.5755583591	 0.9636835265	 0.132065
H	 2.1287353435	 1.4869507741	 0.166679416	 0.121408
H	 2.5409119783	 1.7719798583	-2.4439666188	 0.133159
H	 1.4529457126	 2.9414231708	-3.34472413	 0.130966
H	 3.5117131641	 3.7675714726	-1.136659032	 0.122168
H	 0.1993638052	 5.9874288753	-1.8513209129	 0.150837
49.9467	68.4963	155.2195	262.4202	333.8487	358.3331	436.4834	471.3663	611.0787	684.5329	751.0072	803.602	814.0873	867.9873	907.1296	937.5795	962.9765	984.7342	998.1991	1045.0528	1074.074	1083.0133	1107.9056	1141.8973	1184.7583	1263.1444	1272.4412	1308.4957	1341.1191	1389.6323	1422.4819	1450.9206	1467.2876	1665.6669	1832.6778	2912.0819	3023.2108	3105.4136	3131.0816	3201.2478	3225.0323	3233.0646
O=CCC12CC1OC=N2	O=CC[C@]12C[C@H]1OC=N2	
InChI=1S/C6H7NO2/c8-2-1-6-3-5(6)9-4-7-6/h2,4-5H,1,3H2	InChI=1S/C6H7NO2/c8-2-1-6-3-5(6)9-4-7-6/h2,4-5H,1,3H2/t5-,6+/m1/s1
