14
gdb 131428	5.8377	0.95691	0.82214	4.3519	70.52	-0.22	-0.0102	0.2098	1299.2607	0.101742	-469.994737	-469.986774	-469.98583	-470.028218	29.035	
O	 0.0708122798	 1.4148562142	 0.2104979237	-0.422848
C	 0.0668332344	 0.077506344	 0.100650822	 0.487975
N	 0.0990533718	-0.5142363728	-1.0698423702	-0.261802
O	 0.0820574532	-1.8956583039	-0.7694440529	-0.193352
C	 0.0417376121	-2.0395918631	 0.5557878252	 0.603009
N	 0.0176439792	-3.3024585799	 1.1026061269	-0.403025
C	 0.0346234642	-4.5431703088	 0.482451749	 0.076559
N	 0.076652098	-4.7102621595	-0.7729325141	-0.415219
C	 0.0293426382	-0.8266157811	 1.1897339659	-0.496768
H	 0.099923288	 1.7781751553	-0.6850202713	 0.311286
H	-0.015014923	-3.3141525985	 2.1084269995	 0.267144
H	 0.0054356686	-5.3374457144	 1.2382681521	 0.097377
H	 0.0800348075	-5.7038766848	-0.9928200896	 0.231828
H	-0.000780082	-0.6084132966	 2.2427696338	 0.117836
30.1636	146.6572	158.1822	254.4181	302.1406	403.7485	453.5244	459.604	471.3189	559.1986	669.0246	709.7509	735.5288	754.2651	805.4369	821.229	943.7129	990.919	1048.3086	1048.3248	1086.273	1189.9298	1220.6662	1253.1223	1385.1298	1422.6171	1495.85	1560.7123	1583.4418	1674.7979	1740.52	3043.4528	3285.3656	3515.3999	3658.5545	3778.1598
OC1=NOC(NC=N)=C1	Oc1noc(NC=N)c1	
InChI=1S/C4H5N3O2/c5-2-6-4-1-3(8)7-9-4/h1-2H,(H2,5,6)(H,7,8)	InChI=1S/C4H5N3O2/c5-2-6-4-1-3(8)7-9-4/h1-2H,(H2,5,6)(H,7,8)
