19
gdb 72756	3.07512	1.39441	1.15833	4.149	83.5	-0.2316	-0.0383	0.1932	1111.0358	0.159807	-385.907361	-385.899469	-385.898524	-385.939505	31.462	
C	-0.1235777118	 1.5689554277	-0.1550956206	-0.451004
C	-0.0738147865	 0.0425332284	-0.0247276879	 0.286657
C	 0.8233823995	-0.6087613729	-1.1471156245	-0.282229
C	 2.0373375669	-0.5968674512	-0.1362735909	-0.326204
C	 0.9723229097	-0.4967641227	 0.9218467273	 0.304737
C	 0.4876128527	-1.1056477637	 2.008028694	-0.359933
C	-1.002300862	-1.0484289274	 1.9475535464	 0.387569
O	-1.7865770121	-1.4096197666	 2.7918757288	-0.330067
C	-1.3809588778	-0.5523770189	 0.5202985862	-0.425989
H	 0.8612752907	 1.9939190571	-0.3735004257	 0.115087
H	-0.7987485075	 1.8570095368	-0.9681753656	 0.123008
H	-0.4908965566	 2.0269109068	 0.7688459755	 0.127116
H	 0.5165161365	-1.6300773708	-1.382238683	 0.115556
H	 0.9475804325	-0.037428753	-2.0704354994	 0.106811
H	 2.7007561358	-1.4628905583	-0.10160047	 0.122509
H	 2.6394313627	 0.3093055413	-0.2485208109	 0.126757
H	 1.015751254	-1.6720809647	 2.7641814856	 0.111332
H	-2.228966814	 0.1360505659	 0.5551703148	 0.119182
H	-1.6970597726	-1.4331975838	-0.0506658202	 0.129105
89.8275	190.9093	248.5565	260.4944	310.6072	357.6877	376.1774	502.6048	536.221	583.9179	600.067	703.6819	763.6125	795.159	805.7323	861.0995	866.6972	901.5655	939.8227	957.5988	976.0964	1039.3222	1080.7548	1090.7298	1138.9275	1160.2687	1194.2834	1207.4334	1223.4249	1237.5223	1254.794	1274.6336	1315.2883	1409.3749	1455.0615	1469.6071	1483.0656	1496.1822	1497.905	1690.2772	1814.4521	3030.4757	3048.4977	3061.5816	3064.8119	3099.1689	3103.591	3108.4004	3117.5697	3131.8522	3219.7619
CC12CCC1=CC(=O)C2	C[C@@]12CC[C]1[CH]C(=O)C2	
InChI=1S/C8H10O/c1-8-3-2-6(8)4-7(9)5-8/h4H,2-3,5H2,1H3	InChI=1S/C8H10O/c1-8-3-2-6(8)4-7(9)5-8/h4H,2-3,5H2,1H3/t8-/m0/s1
