21
gdb 88967	3.65626	0.88896	0.83848	2.3219	79.36	-0.2606	0.0868	0.3474	1476.3913	0.179751	-424.194348	-424.184485	-424.183541	-424.229733	36.049	
C	 0.3320939823	 1.3738854956	-0.4248876968	-0.419214
C	-0.1583262929	 0.1163303045	 0.2463284297	 0.074763
O	 0.7490692734	-0.989627633	 0.3305269297	-0.263996
C	 0.3016717051	-0.3829106294	 1.5528782516	 0.065948
C	 1.3385201096	 0.292785571	 2.4228554186	-0.304393
C	 2.0766777396	-0.70756894	 3.301057409	 0.421924
C	 2.9496175401	-1.7202092203	 2.5918726528	-0.456884
C	 2.3517589687	-0.3611450898	 4.7030491212	-0.233444
O	 1.2726308203	-1.2386637285	 4.3701279158	-0.277328
H	 1.3369159624	 1.6485806434	-0.0986568516	 0.126283
H	 0.356403615	 1.2350449986	-1.5107847575	 0.130591
H	-0.3456933148	 2.2075132964	-0.2105767461	 0.122981
H	-1.1671582786	-0.1794650358	-0.0509903127	 0.087501
H	-0.3949120989	-1.0051874221	 2.1178573324	 0.104237
H	 2.0583664911	 0.8367688534	 1.8038557686	 0.105504
H	 0.8318495561	 1.0206110393	 3.0673049646	 0.106037
H	 3.7627459836	-1.2182485824	 2.0563585098	 0.118977
H	 3.3830404559	-2.4178969994	 3.3124752723	 0.121168
H	 2.3722578428	-2.2866727463	 1.8565760707	 0.152401
H	 3.1902917459	-0.8283529521	 5.218471061	 0.110003
H	 2.0598436134	 0.6145898371	 5.0909863671	 0.106939
46.4072	74.4963	126.8318	160.5886	201.9853	207.3365	303.8753	355.4269	363.7801	394.791	442.6744	501.0631	527.6556	733.074	762.1393	824.5873	844.164	905.0219	909.845	933.8187	959.6481	997.7189	1038.7748	1084.706	1092.416	1123.4981	1135.3297	1162.7239	1179.5518	1183.3045	1221.2186	1288.2167	1306.4794	1319.3158	1398.0498	1406.0267	1416.8131	1425.5072	1454.2285	1468.554	1485.7705	1489.0113	1497.2306	1511.0314	1532.2698	3037.6949	3040.556	3043.5061	3075.1768	3076.5897	3089.6981	3099.3261	3103.4001	3111.5996	3131.7073	3135.6961	3159.6611
CC1OC1CC1(C)CO1	C[C@H]1O[C@H]1C[C@@]1(C)CO1	
InChI=1S/C7H12O2/c1-5-6(9-5)3-7(2)4-8-7/h5-6H,3-4H2,1-2H3	InChI=1S/C7H12O2/c1-5-6(9-5)3-7(2)4-8-7/h5-6H,3-4H2,1-2H3/t5-,6+,7+/m1/s1
