23
gdb 60423	4.16338	0.56904	0.56306	3.4908	84.27	-0.241	0.061	0.3019	2089.1133	0.20488	-421.660765	-421.649503	-421.648559	-421.698797	40.435	
C	 0.1506394667	 1.5852369292	-0.2749318311	-0.38405
C	-0.0045928446	 0.0875972564	 0.0291084143	 0.046453
C	 0.5070591796	-0.7545935598	-1.1475086915	-0.388946
C	 0.7025502393	-0.329033464	 1.3319139608	-0.170073
C	 0.10984621	 0.2910776205	 2.602140369	-0.169365
N	 0.7747907547	-0.1842367716	 3.805702849	-0.338404
C	 0.0614311761	-0.6714863028	 4.876110251	 0.446497
N	 0.8450066065	-0.9253057939	 6.0016154609	-0.565226
O	-1.1429214561	-0.8486727662	 4.8673151076	-0.389737
H	 1.2092682182	 1.8545359676	-0.3764539305	 0.108512
H	-0.3468875497	 1.8442308116	-1.2153318765	 0.111991
H	-0.2809859369	 2.2156033808	 0.5078227744	 0.116659
H	-1.0768620804	-0.1231877423	 0.1522404273	 0.078198
H	 1.579729019	-0.5912279419	-1.3083649367	 0.10954
H	 0.3569882824	-1.8243221238	-0.9686256669	 0.111444
H	-0.0099533609	-0.4928146257	-2.0766408125	 0.109765
H	 0.657109113	-1.4197276247	 1.4371099604	 0.09975
H	 1.7699625544	-0.0713744034	 1.2587327336	 0.079261
H	 0.1563861581	 1.3868988007	 2.5570000941	 0.101205
H	-0.9417594412	 0.0151861881	 2.7118605529	 0.149335
H	 1.7097576518	 0.1482327395	 3.9797725051	 0.235496
H	 1.7938843384	-1.2319151296	 5.8432087006	 0.243134
H	 0.3518904616	-1.4860519447	 6.6804486248	 0.258561
23.5263	48.9247	75.9886	104.286	193.4516	227.3718	244.2931	275.0843	289.3988	359.2357	386.6699	408.6604	442.9261	450.8661	539.551	573.9382	662.2792	772.1887	778.0323	833.0044	921.9308	928.6229	963.6811	969.6622	1000.1012	1043.9939	1093.3362	1139.8381	1156.5125	1186.0823	1195.2594	1248.8366	1295.0995	1321.5521	1335.0242	1364.8135	1375.3808	1401.285	1410.7517	1423.1504	1480.1533	1490.2976	1495.6561	1503.6079	1505.6514	1512.781	1547.9534	1628.6156	1802.6288	2992.5614	3004.3213	3019.3964	3022.5279	3028.4714	3055.3839	3086.5689	3093.2521	3099.7552	3106.6624	3114.8128	3567.6276	3628.4129	3680.2478
CC(C)CCNC(N)=O	CC(C)CCNC(=O)N	
InChI=1S/C6H14N2O/c1-5(2)3-4-8-6(7)9/h5H,3-4H2,1-2H3,(H3,7,8,9)	InChI=1S/C6H14N2O/c1-5(2)3-4-8-6(7)9/h5H,3-4H2,1-2H3,(H3,7,8,9)
