21
gdb 36793	7.62534	0.5013	0.49096	1.3019	86.68	-0.2541	0.0347	0.2888	2234.9934	0.179912	-387.027311	-387.01703	-387.016086	-387.063989	36.56	
C	-0.0157029006	-1.1570574974	-0.0517435054	-0.415234
C	 0.0392409717	 0.0377362063	 0.0542909608	 0.279969
C	 0.0711610586	 1.4882708958	 0.1919554299	-0.205488
O	 1.3679046962	 1.9743281698	-0.0848774548	-0.245566
C	 1.4565898583	 3.3805127761	 0.0427229641	-0.031944
C	 2.8864625426	 3.8043425074	-0.2708795807	-0.227445
C	 3.0805249023	 5.3016751301	-0.1697631229	 0.031706
C	 3.3726155075	 5.9477376371	 1.1636489322	-0.255585
C	 4.4451331683	 5.8785722626	 0.1044164864	-0.276687
H	-0.0569404146	-2.2138334266	-0.1474295884	 0.199334
H	-0.6671234303	 1.9408734586	-0.4931028353	 0.116304
H	-0.238258907	 1.769496058	 1.2138308582	 0.116356
H	 0.7492550663	 3.8722801783	-0.6481973182	 0.083835
H	 1.1782969115	 3.6931795731	 1.0634913401	 0.089904
H	 3.5630876429	 3.2912468854	 0.4228842413	 0.104516
H	 3.142431167	 3.4510129641	-1.2771355076	 0.109417
H	 2.4543718725	 5.8814674701	-0.8443548953	 0.081099
H	 2.9264337474	 6.9109836878	 1.3849319666	 0.110363
H	 3.4749111154	 5.298258201	 2.0273153089	 0.111148
H	 5.2651048663	 5.1847196164	 0.2587229042	 0.112683
H	 4.7294372277	 6.794306136	-0.4019482742	 0.111318
37.1957	69.2731	82.5855	124.2242	132.7387	171.2401	297.2537	300.1211	335.0334	399.9899	458.3421	562.454	606.6595	674.3894	776.5658	787.6352	828.7121	842.7525	917.9852	957.7537	977.0574	1019.0256	1032.1208	1044.2879	1065.5884	1078.506	1103.6122	1142.1137	1145.448	1194.3646	1199.5106	1228.3928	1247.6991	1257.9072	1302.223	1313.1327	1384.8072	1417.5138	1448.0607	1469.435	1489.7447	1498.8323	1508.7277	1528.2852	2248.1377	2942.3942	2952.5989	2963.9295	2977.0526	3031.0874	3071.5853	3128.2413	3128.9599	3134.4817	3206.3411	3221.5781	3506.5517
C#CCOCCC1CC1	C#CCOCCC1CC1	
InChI=1S/C8H12O/c1-2-6-9-7-5-8-3-4-8/h1,8H,3-7H2	InChI=1S/C8H12O/c1-2-6-9-7-5-8-3-4-8/h1,8H,3-7H2
