21
gdb 104047	3.39134	1.16412	1.07684	2.8855	77.85	-0.2377	0.0692	0.3069	1203.9363	0.181851	-424.184943	-424.175917	-424.174973	-424.218711	34.371	
C	-0.4270817791	 1.6779422689	 0.0689395397	-0.466088
C	-0.0884771304	 0.190601658	 0.0481260239	 0.33928
C	-1.3316335275	-0.6413313981	-0.2583143836	-0.125514
O	-1.7855565261	-0.3107503026	-1.562114765	-0.424572
C	 1.1213867278	-0.2380713848	-0.8574820336	-0.283737
C	 1.8236496015	-0.8430656171	 0.3739389931	 0.125744
O	 2.7135888579	 0.0912775512	 1.0252465052	-0.294046
C	 1.6972350708	 0.4583615444	 1.9870857818	-0.096106
C	 0.6439831625	-0.4175751179	 1.293123563	-0.138882
H	 0.4673842853	 2.2948117837	 0.1916149817	 0.11928
H	-0.9058919629	 1.9617068367	-0.8721611754	 0.137529
H	-1.1198298296	 1.9166998162	 0.8852249022	 0.105028
H	-1.0844123746	-1.7134041937	-0.1881395403	 0.08111
H	-2.1049788574	-0.4323904834	 0.500185741	 0.083626
H	-2.5559419905	-0.8500605019	-1.7614615055	 0.288973
H	 0.8464896432	-0.9516308941	-1.6381692034	 0.104953
H	 1.6866802805	 0.5803768222	-1.308576093	 0.106965
H	 2.2526445224	-1.8466980212	 0.3083633955	 0.071278
H	 1.9629720902	 0.1131058583	 2.9950400952	 0.097097
H	 1.521059365	 1.5395446584	 2.0202070777	 0.101549
H	 0.0652524909	-1.0959720031	 1.9219836398	 0.066532
57.0787	121.7848	185.1899	217.9307	242.8919	293.7915	309.6369	353.4509	368.6961	422.2483	506.915	644.9921	734.2478	797.6859	829.1266	857.4611	924.5298	941.7065	962.0198	978.8658	983.5454	1018.2728	1032.057	1045.8712	1087.7084	1106.7292	1140.2245	1162.0035	1190.4205	1201.1267	1219.0031	1236.7123	1260.2007	1268.1084	1305.77	1319.6248	1335.8755	1363.3982	1404.4923	1453.7853	1468.3951	1489.3414	1500.0796	1518.5632	1528.4619	2952.2895	2982.8864	3008.503	3028.0792	3059.3134	3061.5307	3070.6635	3094.8657	3097.516	3119.5398	3123.0831	3835.1143
CC1(CO)CC2OCC12	C[C@@]1(CO)C[C@H]2OC[C@@H]12	
InChI=1S/C7H12O2/c1-7(4-8)2-6-5(7)3-9-6/h5-6,8H,2-4H2,1H3	InChI=1S/C7H12O2/c1-7(4-8)2-6-5(7)3-9-6/h5-6,8H,2-4H2,1H3/t5-,6-,7+/m1/s1
