20
gdb 20081	3.16634	1.44028	1.19407	1.9166	75.69	-0.2525	0.0807	0.3332	1098.5752	0.175872	-348.970284	-348.96139	-348.960446	-349.004059	32.44	
C	-0.1740371763	 0.9847212349	-1.9087433518	-0.406221
C	-0.0108428984	-0.1712753315	-0.9424003727	-0.033975
C	 1.3232486567	-0.5896684082	-0.3641487154	-0.029511
C	 2.6268866611	 0.110115777	-0.6875804249	-0.40781
C	 0.264167673	 0.0173607015	 0.5410272857	-0.05428
C	 0.4203764353	 1.3642837583	 1.1598465598	 0.091279
C	-0.4859655928	 1.8342052593	 2.2169508398	-0.187797
O	 0.8304341048	 1.3837783456	 2.5362044951	-0.241949
H	 0.5188006088	 1.8064946099	-1.7138665664	 0.116582
H	-0.0018885419	 0.6523059645	-2.9384310127	 0.118228
H	-1.1888828538	 1.3946437359	-1.8598833598	 0.119019
H	-0.6870068032	-0.9943153271	-1.1617136991	 0.084232
H	 1.4448596174	-1.6629774516	-0.239186824	 0.084699
H	 2.511814163	 1.1880979464	-0.8223951106	 0.114998
H	 3.3558004053	-0.0402837157	 0.1158204449	 0.127213
H	 3.0613374966	-0.2885474508	-1.6110074105	 0.115911
H	-0.2372847397	-0.6779954207	 1.2092498362	 0.083447
H	 0.9082782139	 2.1288462762	 0.5575934552	 0.086665
H	-0.6644761224	 2.9009594771	 2.3497845955	 0.109889
H	-1.2960500675	 1.1865237089	 2.5516940656	 0.109382
50.8383	127.1503	154.8329	177.5252	196.0271	247.611	303.7028	341.5486	469.4557	489.1941	579.9488	751.4746	775.9605	811.5479	844.8889	916.7343	943.3524	957.3109	994.6975	1036.9503	1046.7072	1093.6702	1103.4463	1137.1125	1153.7042	1155.7138	1167.7296	1185.9734	1203.1624	1271.6312	1295.6127	1322.6464	1378.0605	1417.8358	1424.6429	1430.5278	1475.6232	1488.5307	1493.6303	1501.4172	1515.7139	1532.5437	3032.409	3036.3667	3075.2179	3087.954	3092.0761	3106.1403	3110.7287	3125.1105	3127.1384	3131.5613	3146.5641	3161.0573
CC1C(C)C1C1CO1	C[C@H]1[C@@H](C)[C@H]1[C@H]1CO1	
InChI=1S/C7H12O/c1-4-5(2)7(4)6-3-8-6/h4-7H,3H2,1-2H3	InChI=1S/C7H12O/c1-4-5(2)7(4)6-3-8-6/h4-7H,3H2,1-2H3/t4-,5+,6-,7-/m1/s1
