18
gdb 86918	3.71943	0.94477	0.8241	3.8732	75.9	-0.2415	-0.0388	0.2027	1417.6509	0.145492	-439.087728	-439.078247	-439.077303	-439.123143	33.147	
C	-1.0691622507	 1.0835982531	 0.1857000516	-0.404901
C	-0.0069541547	 0.0062865702	 0.0170981081	-0.098164
C	 0.8534938517	-0.0623275845	-1.2887246137	-0.286853
C	 2.1289362687	-0.3192386722	-0.4480682773	 0.023199
O	 3.266469769	 0.4115557537	-0.8437619405	-0.193445
C	 4.3415054392	 0.3436648906	-0.0206435576	 0.130304
N	 5.3912548461	 0.9719871796	-0.3237082195	-0.438726
C	 1.3203168683	 0.1835200349	 0.7735297743	 0.365244
O	 1.6366095801	 0.6986312118	 1.8059039335	-0.295766
H	-0.6616262123	 2.0734949057	-0.0414622631	 0.130408
H	-1.9201145097	 0.9039303223	-0.4782920817	 0.125005
H	-1.4367860426	 1.1017939386	 1.2156893277	 0.138475
H	-0.4218351051	-0.9828399685	 0.249507036	 0.108733
H	 0.59103172	-0.8240660195	-2.0223429246	 0.118163
H	 0.9200464408	 0.9129672602	-1.7765943262	 0.136666
H	 2.3525237713	-1.391828656	-0.3593339358	 0.107484
H	 4.1773813272	-0.2782156228	 0.8668922918	 0.102161
H	 6.1023985928	 0.8218174327	 0.388880757	 0.232013
50.4033	75.2226	90.3045	170.6478	179.6482	198.0815	251.8195	332.2831	388.3158	467.8987	557.7227	658.9783	686.5462	779.3997	821.7188	844.4284	918.9875	938.0185	966.8348	1036.0775	1036.5586	1058.2711	1101.6138	1129.9857	1144.4046	1185.756	1227.4021	1255.2015	1259.6555	1286.0396	1334.2868	1370.4106	1408.1009	1426.598	1484.5921	1493.8179	1494.3949	1746.4477	1888.9936	3006.1618	3033.3001	3040.5349	3057.9727	3083.0098	3111.6978	3116.9171	3148.0183	3519.9549
CC1CC(OC=N)C1=O	C[C@H]1C[C@@H](O[CH][NH])C1=O	
InChI=1S/C6H9NO2/c1-4-2-5(6(4)8)9-3-7/h3-5,7H,2H2,1H3	InChI=1S/C6H9NO2/c1-4-2-5(6(4)8)9-3-7/h3-5,7H,2H2,1H3/t4-,5+/m0/s1
