17
gdb 37133	3.29126	1.68215	1.67289	2.7319	69.77	-0.2488	0.0644	0.3132	887.6905	0.137638	-421.752243	-421.745709	-421.744764	-421.782866	26.882	
C	 0.0400509427	 1.4293490087	 0.1361535075	-0.2889
C	 1.3644462641	 0.7134667722	 0.0897875283	-0.131198
C	 0.035837818	-0.0763629729	 0.0978464986	-0.1312
C	 0.3486832576	-0.5522466771	-1.3092313748	 0.256671
C	-0.2781846807	-0.3745841258	-2.6664681061	-0.150757
O	 0.7657168441	 0.1716766832	-3.4858686848	-0.263833
C	 1.7516322141	 0.8321155937	-2.6787999662	-0.150756
C	 1.6204237049	 0.203816664	-1.3169476345	 0.256665
O	 1.6091229199	-1.2250528216	-1.336736633	-0.285704
H	-0.2158560213	 1.8696514391	 1.0955369533	 0.122874
H	-0.3089577454	 2.0077588113	-0.7151445226	 0.118386
H	 2.0967220174	 0.7883682731	 0.8835892726	 0.102226
H	-0.3726513561	-0.6796443251	 0.8985625991	 0.102225
H	-0.6079933344	-1.3005249812	-3.1468164586	 0.121988
H	-1.1380960131	 0.3087875414	-2.5909768376	 0.09966
H	 2.7182870981	 0.6768587663	-3.167007805	 0.12199
H	 1.5627963599	 1.9144221609	-2.6074236564	 0.099662
169.8503	228.3719	251.6112	389.6856	441.5828	522.0761	561.4365	643.8317	680.238	742.1137	783.1041	863.0501	865.4628	895.1457	907.6347	930.2658	963.6396	987.2166	1041.921	1051.4378	1061.6474	1064.6047	1089.794	1105.2403	1167.8552	1194.724	1209.9936	1215.4442	1270.8167	1293.3805	1322.7213	1357.5942	1391.5867	1396.9342	1492.6878	1504.144	1514.4725	2986.6235	2992.8137	3079.2286	3081.9266	3114.9831	3190.1943	3192.2477	3204.7248
C1C2C1C13COCC21O3	C1[C@H]2[C@@H]1[C@@]13COC[C@@]21O3	
InChI=1S/C7H8O2/c1-4-5(1)7-3-8-2-6(4,7)9-7/h4-5H,1-3H2	InChI=1S/C7H8O2/c1-4-5(1)7-3-8-2-6(4,7)9-7/h4-5H,1-3H2/t4-,5+,6+,7-
