17
gdb 30397	3.8038	1.18443	0.91341	6.3896	83.81	-0.2142	-0.0265	0.1877	1271.9845	0.136413	-414.227753	-414.218876	-414.217932	-414.262158	31.584	
C	 0.0179999255	 1.4306261093	 0.1698150496	-0.323963
N	-0.0200664067	-0.0156577328	 0.1678664685	-0.289579
C	-1.1180829226	-0.6237901033	-0.039760241	 0.367174
N	-2.3528085265	 0.0433370295	-0.2784080096	-0.287542
C	-3.388296865	-0.6732806863	-0.4731406157	 0.084292
N	-3.3805592346	-2.0481556903	-0.4658955725	-0.339793
C	-2.1678382359	-2.6891492499	-0.2320277951	 0.379906
C	-2.2017082381	-4.188694018	-0.2325685479	-0.48966
N	-1.0866212557	-2.0396473627	-0.0283410964	-0.298894
H	 0.7421524429	 1.7667848504	-0.5832985683	 0.116117
H	-0.9449812677	 1.9166501998	-0.0211304769	 0.120543
H	 0.4036308137	 1.7735712862	 1.1385221455	 0.116156
H	-4.3578026752	-0.2117719352	-0.6602315992	 0.130595
H	-4.2254175713	-2.5718839993	-0.6249966556	 0.265916
H	-2.5522046221	-4.571681788	-1.1981269585	 0.139313
H	-1.1977340326	-4.5638727498	-0.0401565755	 0.170061
H	-2.8826590179	-4.5647807995	 0.5398970585	 0.139358
42.7208	91.6778	127.6804	155.7153	236.3056	298.479	344.5243	380.3313	492.197	500.324	536.0682	610.0632	631.8375	760.0596	800.8956	865.3086	962.2601	965.0462	1015.4375	1059.9408	1072.8155	1121.3313	1130.2652	1156.7891	1223.72	1279.4064	1405.3234	1416.7135	1428.8056	1455.3966	1481.7724	1484.5742	1488.164	1496.166	1666.6618	1720.2534	1754.3889	3007.1711	3033.4248	3055.2742	3084.7161	3088.1461	3132.4595	3169.8323	3648.0568
CN=C1N=CNC(C)=N1	C[N]C1=N[C@@H](NC=N1)C	
InChI=1S/C5H8N4/c1-4-7-3-8-5(6-2)9-4/h3H,1-2H3,(H,6,7,8,9)	InChI=1S/C5H9N4/c1-4-7-3-8-5(6-2)9-4/h3-4H,1-2H3,(H,7,8,9)/t4-/m1/s1
