18
gdb 73035	3.18744	1.3124	1.13169	2.3101	71.21	-0.2295	0.0622	0.2917	1112.6649	0.147841	-438.994374	-438.986277	-438.985333	-439.027017	31.118	
O	-0.1753409662	 1.3961167315	-0.0865526046	-0.451548
C	-0.0036442877	 0.0320333545	 0.0148406975	 0.285244
C	-0.8888447112	-0.9960170958	-0.6940340945	-0.153617
O	-0.8932539848	-1.8452616114	 0.4935116953	-0.284722
C	-0.1348281532	-0.868245584	 1.2195788948	 0.002686
C	 1.2277542197	-0.6324392816	 0.6041251112	-0.124769
C	 2.1067819252	-1.6527947658	-0.0572989003	-0.033941
C	 2.6205680879	-2.8158790651	 0.7153311079	-0.232279
N	 1.6474691586	-3.0173603442	-0.3656927378	-0.326695
H	 0.5114007855	 1.7507400261	-0.6617093036	 0.292379
H	-1.8958129275	-0.613667291	-0.8885093168	 0.123162
H	-0.4914117765	-1.5123915558	-1.573275737	 0.125286
H	-0.3940009852	-0.6990720392	 2.2580002958	 0.117764
H	 1.7765573602	 0.1008831414	 1.1973433589	 0.102386
H	 2.756964372	-1.2386739216	-0.8281576506	 0.084969
H	 3.6182108167	-3.2006943948	 0.5213523195	 0.112362
H	 2.2841087522	-2.9220272746	 1.7440329851	 0.109791
H	 0.7187058344	-3.1451774185	 0.0286939792	 0.251542
90.8852	149.9055	183.7014	247.5115	308.14	318.9531	346.0234	387.352	502.0462	642.6528	675.8621	761.2487	799.6485	845.8972	869.2082	919.9613	925.3715	963.8282	983.3716	1005.1903	1012.5595	1052.4565	1069.7023	1094.7755	1125.5915	1147.0725	1151.2388	1199.5015	1216.3197	1264.5995	1282.6798	1286.0975	1328.3162	1331.4483	1357.2844	1410.5009	1484.2981	1507.7437	1512.7388	3044.2871	3095.1491	3102.3123	3104.5869	3106.755	3186.9698	3188.1825	3507.4305	3797.2218
OC12COC1C2C1CN1	O[C@]12CO[C@H]1[C@H]2[C@H]1CN1	
InChI=1S/C6H9NO2/c8-6-2-9-5(6)4(6)3-1-7-3/h3-5,7-8H,1-2H2	InChI=1S/C6H9NO2/c8-6-2-9-5(6)4(6)3-1-7-3/h3-5,7-8H,1-2H2/t3-,4-,5+,6+/m1/s1
