23
gdb 97914	5.27371	0.5031	0.48093	1.2494	92.44	-0.2396	0.0565	0.2961	2355.3054	0.20295	-388.271567	-388.259841	-388.258897	-388.310212	40.788	
C	-0.2277612482	 1.5804368044	 0.0904656691	-0.362469
C	 0.163306186	 0.1003873867	-0.0748414422	-0.314233
C	 0.852056401	-0.4432166623	 1.092078787	 0.129942
C	 1.4213921928	-0.8617544375	 2.0682163541	 0.005673
C	 2.099291632	-1.3965943103	 3.2444193912	-0.365517
C	 2.0713441529	-2.9413434616	 3.3296415504	 0.045243
C	 2.7964601396	-3.5966538896	 2.1506206345	-0.386423
C	 2.6604230563	-3.3892467939	 4.667436366	-0.079324
O	 2.5074861552	-4.7964154737	 4.7756103397	-0.424427
H	 0.6580198164	 2.1996925285	 0.256373826	 0.126371
H	-0.7398011502	 1.9434788838	-0.805859728	 0.111962
H	-0.8953245717	 1.7123917128	 0.9463663464	 0.12631
H	-0.7372231435	-0.493826315	-0.2774927143	 0.126
H	 0.8009535779	-0.0111264262	-0.961482817	 0.125468
H	 3.1450831917	-1.0567242796	 3.2518822108	 0.119806
H	 1.638683191	-0.9763567367	 4.1489964041	 0.119175
H	 1.021539386	-3.2600696801	 3.3166470409	 0.091826
H	 3.8485996417	-3.2860681971	 2.1211768757	 0.10239
H	 2.7683626157	-4.6841708953	 2.2437356561	 0.131076
H	 2.335598531	-3.308973712	 1.2021278561	 0.122744
H	 3.7242874785	-3.0995246261	 4.7152976848	 0.081142
H	 2.1424196407	-2.87255638	 5.4921230601	 0.080946
H	 2.9333906873	-5.0847122689	 5.5877137086	 0.28632
23.2389	53.8906	66.7689	115.1638	149.9213	183.4022	236.6033	239.6315	245.9474	270.8934	316.1659	382.999	406.4402	414.6896	506.338	551.9846	747.3216	787.0698	836.759	890.4801	930.3472	943.3513	969.1016	1072.544	1080.7341	1092.6993	1105.0894	1125.0525	1167.1883	1169.1211	1223.145	1255.1705	1278.2663	1286.6346	1309.326	1351.495	1362.7393	1381.3997	1405.4276	1408.4592	1460.9711	1472.2274	1477.7231	1494.6623	1495.7287	1504.3903	1506.0283	1520.3574	2365.4268	2950.483	2979.656	2999.4026	3017.2065	3024.3514	3029.5459	3043.0553	3043.309	3044.6895	3103.9476	3115.7971	3122.5109	3135.7471	3834.6313
CCC#CCC(C)CO	CCC#CC[C@@H](C)CO	
InChI=1S/C8H14O/c1-3-4-5-6-8(2)7-9/h8-9H,3,6-7H2,1-2H3	InChI=1S/C8H14O/c1-3-4-5-6-8(2)7-9/h8-9H,3,6-7H2,1-2H3/t8-/m1/s1
