15
gdb 34352	2.98304	1.65087	1.3292	3.6907	68.98	-0.2601	-0.0072	0.253	950.9256	0.113507	-416.728522	-416.721635	-416.720691	-416.75976	26.957	
N	 0.0036312059	-1.1447629192	 0.0782678019	-0.332818
C	-0.0082491569	 0.0107366042	 0.0542757873	 0.25273
C	-0.0040030256	 1.4528283818	-0.0144632199	 0.13902
C	-0.3411066455	 2.1271964143	-1.3634048959	-0.136457
O	 0.8182538631	 2.9905850008	-1.2567753857	-0.286297
C	 1.2619429995	 2.333456881	-0.0533413804	 0.06093
C	 0.7985637521	 2.9640340213	 1.2677658279	-0.040248
C	-0.5419870757	 3.5522099206	 1.1351831263	-0.25255
N	-0.4575430398	 2.0856930945	 1.2994745224	-0.179938
H	-0.2566933599	 1.4446222774	-2.2156736079	 0.134853
H	-1.2856149964	 2.677466519	-1.4216703423	 0.127987
H	 2.2816878781	 1.9518932342	-0.1092374543	 0.113472
H	 1.4234443818	 3.0786592168	 2.146759655	 0.113937
H	-0.966978618	 4.019181848	 2.0176945127	 0.14064
H	-0.8445797628	 3.9982097452	 0.1948916828	 0.144739
148.5024	156.0105	240.3902	337.729	405.8325	480.7742	529.2469	542.7251	611.1445	687.5564	744.2916	785.0923	868.2313	898.6074	928.3297	962.3098	992.0768	1040.5284	1054.3018	1061.2664	1096.9089	1110.0509	1128.3905	1159.6494	1187.3022	1224.2789	1263.4789	1308.0617	1349.581	1359.1762	1494.1133	1518.5716	2359.6774	3038.1345	3091.4156	3117.1599	3139.5357	3176.112	3227.1148
N#CC12COC1C1CN21	N#C[C@]12CO[C@H]1[C@H]1CN21	
InChI=1S/C6H6N2O/c7-2-6-3-9-5(6)4-1-8(4)6/h4-5H,1,3H2	InChI=1S/C6H6N2O/c7-2-6-3-9-5(6)4-1-8(4)6/h4-5H,1,3H2/t4-,5+,6+,8?/m1/s1
