19
gdb 89262	2.4715	1.89115	1.36924	2.7096	74.47	-0.2425	0.0609	0.3034	1007.6453	0.157645	-422.963391	-422.955268	-422.954324	-422.995469	32.038	
C	-0.1389785856	 1.5521851117	-0.0960294063	-0.423265
C	 0.0955256218	 0.0634056395	 0.0571014084	 0.153199
O	 1.1526703763	-0.4687677137	-0.7996905713	-0.34468
C	 1.7594738261	-1.1780424821	 0.2970303209	 0.445751
C	 1.959306982	-2.650147217	 0.0563000534	-0.486382
C	 2.9242756862	-0.4129696464	 1.0117220016	-0.051102
O	 2.627734145	 0.9788026941	 0.9892897174	-0.221173
C	 1.9640703814	 0.1788538411	 1.9692421372	 0.017199
C	 0.7667622463	-0.5518100628	 1.3118451495	-0.217116
H	 0.7670997052	 2.1200647353	 0.109961122	 0.151619
H	-0.4678956727	 1.771001066	-1.1173278672	 0.123014
H	-0.9339640287	 1.8739651514	 0.5863969682	 0.108855
H	-0.8365011091	-0.4773522513	-0.162718397	 0.073758
H	 2.657452575	-2.8025245739	-0.7746807885	 0.13326
H	 2.3758570723	-3.1387908672	 0.9438006971	 0.119476
H	 1.0139907684	-3.1366887757	-0.1997763707	 0.127467
H	 3.967294295	-0.6956170523	 1.1149020385	 0.100901
H	 2.0862714063	 0.4692813685	 3.0065530939	 0.107687
H	 0.1648502487	-1.1622726152	 1.9841314127	 0.081534
164.6586	200.4577	209.1608	221.0693	237.7811	278.2674	345.2346	431.353	518.4458	563.9323	665.0273	715.3129	782.2598	813.7057	845.094	862.2059	875.8261	896.2136	934.0754	968.7269	996.9976	1036.0713	1051.6414	1079.3433	1102.6023	1145.4875	1162.0725	1179.2149	1214.3576	1245.0465	1279.0211	1311.0314	1326.7021	1367.5364	1397.4056	1406.06	1409.8027	1479.1651	1480.887	1488.1743	1507.9745	2988.7492	3030.5574	3039.6297	3097.7891	3098.2839	3113.232	3120.7252	3162.9675	3165.7894	3184.8542
CC1OC2(C)C3OC3C12	C[C@H]1O[C@@]2(C)[C@H]3O[C@H]3[C@@H]12	
InChI=1S/C7H10O2/c1-3-4-5-6(8-5)7(4,2)9-3/h3-6H,1-2H3	InChI=1S/C7H10O2/c1-3-4-5-6(8-5)7(4,2)9-3/h3-6H,1-2H3/t3-,4-,5+,6+,7-/m1/s1
