18
gdb 74813	3.65643	1.29467	1.10583	1.3858	73.62	-0.2238	0.019	0.2428	1126.8888	0.147412	-439.087261	-439.078898	-439.077954	-439.119837	32.183	
C	 0.0082837572	 1.4734036215	-0.065579743	-0.458062
C	-0.0567378965	-0.0180256565	 0.0566060704	 0.389153
N	-1.1354596451	-0.6697731667	-0.0948054265	-0.292471
C	-1.0790232816	-2.0979759886	-0.0595729895	-0.072107
C	-0.1597269712	-2.8379891678	-1.0324849877	-0.322079
C	 0.1750984088	-2.7818873591	 0.4205060904	 0.347375
O	 0.1164948834	-3.9923008092	 1.116036952	-0.459172
C	 1.2453927401	-1.8321758259	 0.9202521747	-0.148038
O	 1.1845152728	-0.5422769524	 0.3056155769	-0.263057
H	 0.7366010902	 1.7566110176	-0.8328070691	 0.139649
H	-0.9735607855	 1.8630005744	-0.3313669684	 0.145187
H	 0.3435671213	 1.9217050886	 0.8755388719	 0.135017
H	-2.0312044009	-2.574243832	 0.1506982772	 0.096035
H	-0.5087924933	-3.7931146159	-1.4069374199	 0.127379
H	 0.4164861235	-2.2402374218	-1.7303936425	 0.127567
H	-0.2640930183	-3.8221417793	 1.9857763483	 0.284968
H	 1.1287354321	-1.7142820682	 2.0085998351	 0.097084
H	 2.251723843	-2.2147626288	 0.7267943397	 0.125573
124.1071	144.402	166.3179	258.5793	310.9234	321.3597	366.9189	398.209	406.9288	503.0885	545.6551	633.9464	680.4646	749.5537	814.2663	877.9246	912.1682	935.5781	980.9488	1001.6981	1051.4347	1065.6837	1077.7015	1092.3134	1107.7277	1180.9745	1240.6314	1249.0767	1253.334	1306.0267	1340.9266	1391.4882	1408.6414	1423.7652	1474.8556	1476.3074	1481.402	1514.4219	1738.9476	2986.8788	3044.6665	3082.2809	3099.7262	3138.4256	3160.9814	3165.3938	3234.8323	3784.4143
CC1=NC2CC2(O)CO1	CC1=N[C@H]2C[C@@]2(O)CO1	
InChI=1S/C6H9NO2/c1-4-7-5-2-6(5,8)3-9-4/h5,8H,2-3H2,1H3	InChI=1S/C6H9NO2/c1-4-7-5-2-6(5,8)3-9-4/h5,8H,2-3H2,1H3/t5-,6+/m0/s1
