21
gdb 62035	4.01773	0.65909	0.61334	1.9606	85.63	-0.2589	0.0555	0.3144	1843.8787	0.179707	-387.037958	-387.027642	-387.026698	-387.07437	37.171	
C	-0.1606680188	 1.5572463523	 0.0781701521	-0.386236
C	 0.031407665	 0.0272279172	 0.0256637803	-0.163522
C	 0.652719029	-0.4585297039	-1.306330571	-0.169991
C	-0.237626793	-0.2303821392	-2.5353917787	-0.235116
C	 0.3803692313	-0.8009222305	-3.7889832128	 0.097313
C	 0.2236137483	-0.1709729012	-5.1050727307	-0.182381
O	 1.4456990626	-0.0460913872	-4.3757028248	-0.235539
C	 0.8448895623	-0.4234309422	 1.154718908	 0.316303
C	 1.5316128832	-0.7838569116	 2.0735381864	-0.459879
H	 0.7976924915	 2.0688073944	-0.0538377708	 0.12886
H	-0.8436978635	 1.895348597	-0.7058571829	 0.116522
H	-0.5751927875	 1.8597948222	 1.0430859704	 0.126795
H	-0.9596449687	-0.4408009303	 0.1206737865	 0.101654
H	 1.6163653091	 0.0413303489	-1.4566404724	 0.123677
H	 0.8695220055	-1.5290897331	-1.2137801745	 0.106314
H	-1.2176469135	-0.7025002152	-2.3782110625	 0.099218
H	-0.4158801455	 0.8385060772	-2.6929657698	 0.107647
H	 0.5710019247	-1.8763849156	-3.7657363145	 0.090555
H	 0.2764183564	-0.7767693305	-6.0088131828	 0.113987
H	-0.3622871335	 0.7433066698	-5.1948137941	 0.111313
H	 2.1297450151	-1.1073937184	 2.8889295184	 0.192508
42.467	62.8299	96.205	125.2371	185.3859	207.4768	250.2411	286.3941	352.573	407.8768	457.0698	533.6318	558.37	625.9803	633.6389	762.0115	788.4435	834.5617	872.144	922.7543	951.5802	957.7597	1043.5406	1046.0748	1067.318	1107.0115	1124.0466	1158.6768	1163.8428	1181.3462	1227.9183	1267.6287	1296.815	1314.5262	1339.5625	1343.7283	1385.4747	1407.8258	1447.2911	1470.9457	1491.9241	1494.8891	1502.4512	1530.4162	2234.0514	2994.808	3014.4739	3036.5286	3044.4487	3064.9853	3078.8011	3081.9524	3093.2727	3118.2185	3122.6541	3165.2897	3505.0174
CC(CCC1CO1)C#C	C[C@@H](CC[C@H]1CO1)C#C	
InChI=1S/C8H12O/c1-3-7(2)4-5-8-6-9-8/h1,7-8H,4-6H2,2H3	InChI=1S/C8H12O/c1-3-7(2)4-5-8-6-9-8/h1,7-8H,4-6H2,2H3/t7-,8+/m1/s1
