16
gdb 117002	5.14124	0.57415	0.5517	2.3917	81.4	-0.2355	-0.0856	0.1499	1959.2218	0.121029	-437.856222	-437.845981	-437.845037	-437.893395	33.585	
C	 0.5613168595	 1.0289076439	 0.1293816245	-0.323903
N	-0.4818448096	 0.2620825503	-0.5516230482	-0.262928
C	 0.0158985058	-0.6345877942	-1.5653674226	-0.272279
C	 0.6786598751	-1.9103919537	-1.0235514023	 0.20945
O	 0.6085883248	-2.2371097362	 0.1409409607	-0.282945
C	 1.3627768446	-2.7297590279	-2.0079279385	 0.029834
C	 1.9193714475	-3.3828369692	-2.8622922816	 0.105849
C	 2.6166523144	-4.1617921082	-3.8586079874	 0.021727
O	 2.0722576493	-4.9262593293	-4.618552174	-0.213803
H	 1.338536232	 0.4147936371	 0.6090932069	 0.115403
H	 1.0464934031	 1.696433329	-0.5916029285	 0.122273
H	 0.098067642	 1.6536793072	 0.8977053413	 0.126967
H	-0.9997100081	-0.2780760685	 0.1344519868	 0.232482
H	-0.8024042032	-0.9705127807	-2.2206092175	 0.143105
H	 0.7247269782	-0.1126335337	-2.2198676279	 0.133085
H	 3.7126160546	-3.9985544359	-3.8700648818	 0.115683
43.0951	48.7162	89.2432	110.8729	114.2592	186.4076	249.97	266.6575	290.5275	357.3899	435.1887	558.5364	567.2802	678.8737	743.4747	817.1823	943.1428	953.9222	1006.3756	1015.9204	1135.0555	1138.5775	1164.0965	1207.125	1304.6802	1350.4996	1416.8556	1437.0918	1462.2999	1489.0137	1503.6215	1527.1438	1764.9734	1772.3764	2286.6692	2933.0485	2987.988	3002.3878	3062.076	3065.5016	3110.9247	3526.3417
CNCC(=O)C#CC=O	CNCC(=O)C#CC=O	
InChI=1S/C6H7NO2/c1-7-5-6(9)3-2-4-8/h4,7H,5H2,1H3	InChI=1S/C6H7NO2/c1-7-5-6(9)3-2-4-8/h4,7H,5H2,1H3
