18
gdb 17007	3.87052	2.16323	1.83915	2.012	70.58	-0.2398	0.0888	0.3286	797.3973	0.155814	-347.776335	-347.769861	-347.768916	-347.806479	26.576	
C	-0.0456713858	 1.5476937012	-0.3492091757	-0.29806
C	 1.5300700081	 1.5738826498	-0.3640718103	-0.298058
C	 1.5045640673	 0.1684710969	 0.2693823509	 0.330076
C	 2.0506968882	-0.5181994897	 1.4938048321	-0.312
C	 0.8125169191	-1.3305169257	 1.997248477	-0.203879
C	-0.4612466375	-0.5598615323	 1.5176291333	-0.312006
C	 0.0384844109	 0.1441389557	 0.2832739995	 0.330086
O	 0.7771055207	-0.6913285788	-0.6188169689	-0.308815
H	-0.4676254125	 2.2976253462	 0.3241356117	 0.105964
H	-0.5556935616	 1.5998721928	-1.3136621512	 0.109495
H	 2.0197833974	 1.6426902955	-1.3379578047	 0.109491
H	 1.9395043515	 2.3376252545	 0.3014360939	 0.105968
H	 2.9170219802	-1.1623735574	 1.3136026578	 0.107964
H	 2.3519373733	 0.2405276892	 2.2263959508	 0.102372
H	 0.824633686	-2.3219442683	 1.5404092886	 0.123056
H	 0.8250809608	-1.4678283543	 3.0815721565	 0.098009
H	-1.3089889894	-1.232472867	 1.3536893235	 0.107963
H	-0.7735434568	 0.1886973618	 2.2560293754	 0.102373
202.5565	209.0293	283.9055	320.6918	472.2499	490.344	604.4514	661.61	721.5529	742.8239	763.9713	837.281	867.7652	876.2959	916.5736	929.6615	953.1072	981.1726	1013.8546	1028.1582	1135.9049	1165.3908	1170.3854	1200.0995	1221.7018	1225.2647	1225.9414	1245.7716	1269.6839	1325.2254	1342.5046	1347.6308	1424.076	1463.7655	1478.7354	1484.1518	1490.2278	1499.4558	3035.3401	3036.8798	3063.0828	3069.6386	3070.8742	3079.7969	3080.3565	3113.3789	3121.9707	3130.1519
C1CC23CCCC12O3	C1C[C@@]23CCC[C@@]12O3	
InChI=1S/C7H10O/c1-2-6-4-5-7(6,3-1)8-6/h1-5H2	InChI=1S/C7H10O/c1-2-6-4-5-7(6,3-1)8-6/h1-5H2/t6-,7+
