17
gdb 15823	5.18888	1.03176	0.89582	1.7821	66.23	-0.2478	0.0059	0.2537	1264.0569	0.140775	-400.989929	-400.981066	-400.980121	-401.024567	30.46	
O	-0.1925738953	 1.3874031641	-0.0609451622	-0.426021
C	-0.0615172907	-0.026719087	-0.0957766584	-0.071001
C	-1.4308670834	-0.6088136089	 0.2230151744	-0.290524
C	-1.4395409197	-2.1257946415	 0.1878400094	 0.36703
O	-0.473724201	-2.7952324943	-0.1099284206	-0.337498
N	-2.638233463	-2.7014501665	 0.6144850881	-0.076238
C	-3.9072451378	-2.6039853349	-0.0857658177	-0.233714
C	-3.1711587265	-3.9068192619	 0.027838542	-0.216429
H	 0.6676444389	 1.7698629857	-0.2559572635	 0.287186
H	 0.2701509844	-0.3819552221	-1.0813467181	 0.102059
H	 0.6723812509	-0.3868767888	 0.6389887574	 0.103399
H	-1.7686215036	-0.269886709	 1.2086318938	 0.13892
H	-2.1682896748	-0.2229993188	-0.4923010727	 0.12748
H	-4.7806449307	-2.4096095225	 0.530635386	 0.129371
H	-3.9152765906	-2.1176646345	-1.0586940409	 0.1297
H	-2.6666854353	-4.2876671708	-0.8560116479	 0.138042
H	-3.5179774518	-4.6625778684	 0.726426161	 0.128239
42.7163	76.0668	110.2793	143.011	217.5859	260.918	267.5169	364.5162	438.7672	588.1023	612.5107	793.3207	809.8987	822.2197	930.4905	976.4776	1030.3534	1050.0633	1070.3445	1083.6777	1123.9753	1132.4746	1141.451	1171.6554	1177.7435	1208.9229	1253.7482	1302.3233	1331.8848	1403.3139	1455.4711	1471.0033	1497.4652	1523.5295	1524.6959	1782.9569	2999.0514	3027.6546	3040.8985	3081.9538	3104.5454	3117.0413	3189.2839	3207.7718	3833.534
OCCC(=O)N1CC1	OCCC(=O)N1CC1	
InChI=1S/C5H9NO2/c7-4-1-5(8)6-2-3-6/h7H,1-4H2	InChI=1S/C5H9NO2/c7-4-1-5(8)6-2-3-6/h7H,1-4H2
