18
gdb 128632	2.46001	1.46196	0.93309	2.2299	75.86	-0.224	0.0346	0.2586	1262.2017	0.147564	-435.301516	-435.291886	-435.290941	-435.336735	32.854	
C	 0.0044936815	 1.3749650627	-0.0465495077	-0.238596
O	 0.043616925	-0.0553443999	 0.0051960685	-0.274967
C	 0.6565095135	-0.5635632552	 1.0745158849	 0.494077
N	 1.2197101193	 0.0834520657	 2.0721712879	-0.425577
C	 1.6771371947	-0.9425005365	 2.8615360585	 0.346007
C	 2.4047336276	-0.7108169532	 4.1420545572	-0.47936
N	 1.4234579602	-2.1533833867	 2.3998982268	-0.314635
N	 0.75504563	-1.8988810684	 1.2297912588	-0.055027
C	 0.279669994	-2.9639972381	 0.3790116546	-0.333482
H	 1.0169878367	 1.7871883323	-0.0589374176	 0.145083
H	-0.52076517	 1.6220050395	-0.9693704608	 0.133804
H	-0.5298840057	 1.7766051084	 0.8185517416	 0.144997
H	 1.7856522493	-0.1419740593	 4.8433272301	 0.134862
H	 2.6719303234	-1.6656364946	 4.5979783326	 0.137591
H	 3.3168703356	-0.1299438244	 3.9711061937	 0.134857
H	-0.4306260458	-3.5948144393	 0.9207286461	 0.147436
H	-0.2148868435	-2.5186006131	-0.4847565568	 0.155475
H	 1.1158976542	-3.5826655498	 0.0415600416	 0.147453
63.6903	92.2467	120.3045	138.6776	163.9887	191.1315	231.4942	261.7142	370.4754	378.1068	559.2915	636.5494	654.2627	691.9414	743.2212	860.5584	1003.7901	1038.8011	1054.2825	1068.6059	1071.7631	1155.6543	1182.66	1214.9051	1247.7919	1299.4688	1378.0941	1420.1566	1448.6216	1457.9747	1477.3205	1478.3747	1479.7767	1480.6831	1493.0623	1504.5962	1531.3179	1585.5492	1612.3291	3043.4634	3047.515	3049.1764	3097.9323	3111.7134	3122.5345	3143.3198	3156.646	3157.417
COC1=NC(C)=NN1C	COc1nc(C)nn1C	
InChI=1S/C5H9N3O/c1-4-6-5(9-3)8(2)7-4/h1-3H3	InChI=1S/C5H9N3O/c1-4-6-5(9-3)8(2)7-4/h1-3H3
