15
gdb 8134	4.36075	1.71894	1.44555	3.4726	61.08	-0.2413	0.0244	0.2657	853.7791	0.119644	-399.823936	-399.817022	-399.816078	-399.854775	27.178	
O	-0.0540779311	 1.3893230982	-0.0037216005	-0.464911
C	 0.0056164937	-0.0029302569	 0.0262985064	 0.392706
C	-0.4176366868	-0.7821747887	-1.2026502638	-0.356692
C	-1.2883296518	-0.7640969397	 0.0452329179	-0.051467
N	-1.1152611462	-1.833704147	 0.9821779406	-0.30218
C	 0.157485015	-1.9235577173	 1.5038868642	 0.397762
O	 0.5783905983	-2.8251075461	 2.1901793123	-0.365984
C	 0.9259297039	-0.6737976837	 1.0334859291	-0.41695
H	 0.6981964047	 1.7091746909	-0.5139435985	 0.286107
H	-0.7596029148	-0.1819636808	-2.0388850608	 0.121426
H	 0.0925156826	-1.7048785708	-1.4613742725	 0.118919
H	-2.2411812182	-0.2488109305	 0.0423548534	 0.118171
H	-1.7127653487	-2.6461060879	 1.004290916	 0.252298
H	 1.9021841204	-0.972651702	 0.6424251399	 0.129416
H	 1.0932300389	-0.0085251376	 1.8868420264	 0.14138
110.8954	243.2571	295.5864	344.4342	398.1985	453.2811	475.1901	491.0727	573.3887	607.0051	692.6103	738.7085	850.8253	876.6846	911.7704	935.5854	997.3359	1000.0356	1040.4282	1069.663	1122.5227	1156.1537	1230.4153	1233.178	1279.0163	1310.7678	1359.8348	1395.3736	1416.5285	1457.1932	1485.8877	1836.0474	3060.1493	3106.6434	3126.2208	3187.8161	3224.262	3626.8708	3796.5926
OC12CC1NC(=O)C2	O[C@]12C[C@H]1NC(=O)C2	
InChI=1S/C5H7NO2/c7-4-2-5(8)1-3(5)6-4/h3,8H,1-2H2,(H,6,7)	InChI=1S/C5H7NO2/c7-4-2-5(8)1-3(5)6-4/h3,8H,1-2H2,(H,6,7)/t3-,5+/m1/s1
