19
gdb 22423	2.8066	1.23535	0.99853	2.3818	81.54	-0.2212	0.0147	0.2359	1245.7719	0.157204	-419.131123	-419.12175	-419.120806	-419.164828	35.335	
C	-0.0186502969	 1.5184424507	 0.0487038906	-0.505362
C	 0.1230019396	 0.0299444115	 0.0002424508	 0.27993
C	 0.6195238956	-0.809858214	-1.1995531121	-0.368963
C	 1.2520656018	-1.7405682546	-0.1660849543	 0.443157
N	 2.08937467	-2.6894587511	-0.1747927171	-0.271906
O	 2.4108628957	-3.0671242162	-1.4944461862	-0.392389
C	 0.7280769013	-0.9446827278	 0.984396385	 0.177636
C	 1.3282864475	-0.7947702867	 2.345953696	-0.512519
N	-0.761610241	-0.8813203517	 0.7560143745	-0.399633
H	 0.8642348064	 2.0127986126	-0.3698128929	 0.129117
H	-0.8907429235	 1.8483073841	-0.528349995	 0.133987
H	-0.1484046651	 1.871521087	 1.0776561743	 0.119249
H	-0.1580610659	-1.2325781549	-1.8397715918	 0.125425
H	 1.3793458113	-0.3152174657	-1.8119118524	 0.123306
H	 3.0455297121	-3.7771383496	-1.351122532	 0.305352
H	 2.412174104	-0.6613813711	 2.2779568633	 0.136184
H	 0.906002599	 0.0697890936	 2.8694500317	 0.115169
H	 1.1398367292	-1.6838876942	 2.9572519863	 0.141319
H	-1.131273071	-0.346372552	 1.5450185814	 0.220941
93.4852	162.7516	177.2671	182.0231	209.3988	241.9074	316.5885	339.7179	368.1879	450.4684	471.0026	511.5548	582.2741	582.8134	685.5825	734.5229	801.6353	830.8683	944.3706	955.3789	975.5647	1037.2352	1061.7978	1087.4586	1103.783	1118.2753	1140.5989	1165.5167	1212.8726	1316.8712	1359.5352	1398.1891	1411.9124	1422.5698	1442.6722	1471.2665	1477.7325	1490.206	1495.644	1501.9829	1792.6025	3023.7847	3031.0677	3062.0309	3085.3017	3094.8919	3098.5257	3107.0756	3119.1158	3437.0974	3819.4295
CC12CC(=NO)C1(C)N2	C[C@@]12CC(=NO)[C@]1(C)N2	
InChI=1S/C6H10N2O/c1-5-3-4(7-9)6(5,2)8-5/h8-9H,3H2,1-2H3	InChI=1S/C6H10N2O/c1-5-3-4(7-9)6(5,2)8-5/h8-9H,3H2,1-2H3/t5-,6+/m1/s1
