25
gdb 61403	2.26621	1.02561	0.86657	2.6184	89.31	-0.2457	-0.0183	0.2274	1513.0739	0.224838	-389.517042	-389.505479	-389.504535	-389.55407	42.476	
C	-2.4190359557	-0.5545484704	 0.3816456477	-0.408749
C	-0.9384735871	-0.2815215676	 0.0365487361	-0.071357
C	-0.0213032045	-0.7561084023	 1.1831796033	-0.206795
C	 1.4280476544	-0.2059964144	 1.2384050781	 0.260419
C	 1.4215883601	 1.3225286231	 1.4288901852	-0.403931
C	 2.1188810996	-0.8526829401	 2.4547913233	-0.403504
C	 2.2223772825	-0.56267361	-0.0316072776	-0.415286
C	-0.654065946	-1.0072060891	-1.2645740363	 0.170908
O	-0.5088119542	-0.4866792309	-2.3403672274	-0.258791
H	-2.693602439	-0.0343828687	 1.3040905922	 0.125702
H	-3.0826959767	-0.2110133658	-0.4172088133	 0.13091
H	-2.5986216704	-1.6248073005	 0.5360399407	 0.122047
H	-0.8129926053	 0.7880211118	-0.1555038274	 0.095195
H	-0.5123190977	-0.4997244121	 2.1307357946	 0.093162
H	 0.0191277231	-1.8551497139	 1.160425988	 0.090248
H	 0.8552615117	 1.6085135402	 2.3225096869	 0.106286
H	 2.4433225657	 1.6985205464	 1.5492199991	 0.111706
H	 0.9840722648	 1.8425435645	 0.5712374175	 0.118789
H	 2.1576308039	-1.9432507489	 2.3558235643	 0.108303
H	 3.1473511896	-0.4904415353	 2.5576854719	 0.109799
H	 1.5885435173	-0.6195775181	 3.3848773559	 0.107602
H	 1.8160500859	-0.0767223574	-0.9227741754	 0.135891
H	 3.2654572602	-0.2434119405	 0.068546321	 0.108489
H	 2.2264028771	-1.6445350649	-0.2084658657	 0.105865
H	-0.6304410091	-2.120179425	-1.1587430625	 0.067093
29.4761	73.7795	103.005	177.5456	217.9856	223.9556	255.6379	273.5658	283.271	297.8655	325.8516	360.381	369.2233	401.1263	410.5235	498.1084	565.4699	746.0576	838.7157	886.1774	910.9755	932.9973	937.5814	942.4124	958.4228	987.9606	1029.966	1038.4643	1094.3292	1113.7321	1148.8956	1201.4475	1229.8911	1271.2839	1286.7449	1314.7946	1353.4716	1375.5105	1401.1628	1401.9906	1404.1024	1422.6883	1436.5174	1476.613	1481.5248	1486.2287	1489.1551	1495.5454	1500.8467	1509.8132	1511.2327	1519.8887	1831.1152	2827.78	3000.0074	3021.8287	3025.3174	3031.5669	3032.5187	3040.3989	3074.8934	3087.2834	3090.1644	3092.4924	3097.71	3100.8512	3104.1831	3114.3077	3116.0336
CC(CC(C)(C)C)C=O	C[C@@H](CC(C)(C)C)C=O	
InChI=1S/C8H16O/c1-7(6-9)5-8(2,3)4/h6-7H,5H2,1-4H3	InChI=1S/C8H16O/c1-7(6-9)5-8(2,3)4/h6-7H,5H2,1-4H3/t7-/m0/s1
