17
gdb 9498	2.86866	1.7121	1.53331	5.9388	68.6	-0.2425	0.0306	0.2731	921.8371	0.143181	-360.031826	-360.023356	-360.022412	-360.064452	31.406	
N	 0.18171918	 1.1069962279	-0.6883715985	-0.518409
C	 0.0149088386	-0.0993997452	 0.0862758821	 0.018606
C	-0.013120843	-0.0935774757	 1.6429260665	-0.265416
C	-1.205054192	-1.0867246306	 1.6005452864	-0.251027
C	-1.4528045091	-0.7042589512	 0.1093305367	 0.135365
N	-2.5344119705	 0.2615536799	-0.0410579537	-0.547278
C	-1.659968894	-1.8159087177	-0.821044834	 0.275617
N	-1.7626492835	-2.7029948034	-1.5555082304	-0.348212
H	-0.0590442323	 1.9325185515	-0.1519045749	 0.226982
H	 1.135251473	 1.2205214583	-1.0093794507	 0.241333
H	 0.7094609275	-0.8579929806	-0.2833053026	 0.100791
H	 0.8928021686	-0.4124318604	 2.1622248763	 0.110544
H	-0.3046317908	 0.88612426	 2.0362895164	 0.097278
H	-0.8910143929	-2.126129789	 1.7061598373	 0.13046
H	-2.052853584	-0.9051853498	 2.2642938553	 0.119286
H	-2.5299302349	 0.9101227706	 0.7402968297	 0.227868
H	-2.3696209507	 0.8095020154	-0.8829144619	 0.246213
111.7037	127.9758	151.5406	200.4454	236.9647	305.9344	360.8705	382.3205	502.805	539.6797	584.1726	619.4607	710.5296	778.1334	799.1852	853.9951	918.7477	935.3199	964.789	1001.9702	1045.2118	1067.7143	1141.1835	1173.524	1218.0289	1241.9252	1257.7579	1275.3865	1288.847	1351.2394	1418.2313	1481.0157	1496.7101	1654.7458	1662.5293	2350.9715	3049.7687	3078.4096	3081.304	3112.1085	3138.901	3480.0972	3523.5622	3567.3939	3606.2456
NC1CCC1(N)C#N	N[C@H]1CC[C@]1(N)C#N	
InChI=1S/C5H9N3/c6-3-5(8)2-1-4(5)7/h4H,1-2,7-8H2	InChI=1S/C5H9N3/c6-3-5(8)2-1-4(5)7/h4H,1-2,7-8H2/t4-,5-/m0/s1
