20
gdb 81662	3.45976	1.2609	1.18408	3.9176	78.77	-0.2353	0.0315	0.2669	1132.1267	0.173201	-403.185967	-403.177997	-403.177053	-403.218286	31.822	
C	-0.1077337055	 1.5212566812	 0.0344746626	-0.427368
C	 0.0229526965	 0.0034980975	-0.001409252	 0.040443
C	 0.840090218	-0.5828152515	-1.2002233847	-0.036948
C	 2.1164611259	-0.430629962	-0.3204730711	-0.236096
C	 1.15238289	-0.6142358639	 0.8833130477	-0.003573
N	 0.8827320819	-2.0378835804	 1.0555055395	-0.2912
C	 0.5613188719	-2.8337369799	-0.010280967	 0.392657
O	 0.3391672829	-4.0247131167	 0.0860811199	-0.383127
C	 0.5082148965	-2.0747014338	-1.3485927675	-0.332648
H	 0.8491740554	 2.0299534767	-0.1184917507	 0.118264
H	-0.7909454539	 1.8657232993	-0.7493356944	 0.121239
H	-0.5113489313	 1.8566996024	 0.9960567177	 0.118059
H	-0.9579782619	-0.4564343066	 0.1598772534	 0.072408
H	 0.7997089281	-0.056045173	-2.1572925626	 0.065564
H	 2.9113881367	-1.1722997552	-0.4306894794	 0.101738
H	 2.5417808627	 0.5728859209	-0.3681164357	 0.10638
H	 1.3893885203	-0.1653339355	 1.8493706686	 0.072249
H	 0.942379207	-2.4797899719	 1.9593682517	 0.24657
H	-0.4952061433	-2.2217716412	-1.7635582947	 0.127784
H	 1.2035231525	-2.5760365566	-2.0309142614	 0.127604
72.3345	206.7111	237.6208	253.6053	326.0444	383.5483	411.1172	443.7434	474.4612	533.905	610.4638	648.6058	777.7167	801.5875	853.5591	861.9773	868.1037	917.3657	959.8018	1008.978	1050.3356	1073.1085	1083.9036	1097.3115	1102.198	1133.3525	1139.6664	1206.3095	1234.1131	1259.3619	1279.6549	1289.0646	1304.9785	1336.0256	1372.3769	1387.4613	1414.6097	1445.5124	1464.9696	1490.8994	1498.4569	1504.281	1800.9477	3031.7612	3044.0063	3045.5056	3065.7638	3074.1174	3084.1488	3094.1061	3096.8006	3104.6741	3130.8747	3634.5638
CC1C2CC1NC(=O)C2	C[C@H]1[C@H]2C[C@@H]1NC(=O)C2	
InChI=1S/C7H11NO/c1-4-5-2-6(4)8-7(9)3-5/h4-6H,2-3H2,1H3,(H,8,9)	InChI=1S/C7H11NO/c1-4-5-2-6(4)8-7(9)3-5/h4-6H,2-3H2,1H3,(H,8,9)/t4-,5-,6-/m0/s1
