18
gdb 76510	3.14146	1.31541	1.19123	1.0847	71.91	-0.2259	0.0443	0.2702	1091.8981	0.146958	-439.000779	-438.992505	-438.991561	-439.03341	32.095	
O	 0.1071517433	 1.3616400252	-0.042781754	-0.433901
C	 0.0321585364	-0.0325559194	-0.0506483747	 0.023559
C	-0.4877277075	-0.7190459698	 1.2016192101	-0.079251
O	-0.9188806836	 0.1289793981	 2.2377866324	-0.429238
C	-1.3227423265	-0.6906287142	-0.0361601646	 0.313293
C	-2.6988388212	-0.0458928603	-0.1950940414	-0.331983
C	-3.0395826344	-1.2828598425	-1.0301392944	-0.024116
C	-2.063454559	-1.4901104519	-2.1162085907	-0.235064
N	-1.6904649502	-1.9397032937	-0.7553755572	-0.180084
H	-0.2864041026	 1.6424598275	 0.7953877476	 0.285491
H	 0.8400585976	-0.4937673379	-0.6117701837	 0.106783
H	-0.0686532035	-1.6762276992	 1.5058843031	 0.105393
H	-0.1817085169	 0.2482447391	 2.8470280254	 0.29857
H	-3.2462982088	 0.0095944499	 0.7476607228	 0.1263
H	-2.747016625	 0.9219310227	-0.7019757417	 0.113803
H	-3.9614223913	-1.8503883824	-0.9599923892	 0.097806
H	-2.2353296667	-2.3180667082	-2.7969827439	 0.11939
H	-1.53925159	-0.6398171632	-2.5470512659	 0.123251
120.0621	134.3749	167.9643	240.2152	268.5939	311.5466	388.1214	467.0327	480.0372	540.2022	617.0406	654.4119	759.4597	778.7538	807.5864	862.6326	897.9824	935.5365	957.0342	1001.8283	1052.7539	1064.1019	1079.773	1103.7969	1112.9257	1128.4776	1151.2348	1171.2325	1177.4001	1218.1089	1246.5185	1261.9773	1302.1579	1331.4868	1361.4805	1405.7482	1483.0312	1486.8402	1504.2124	3060.6882	3106.6796	3119.2117	3124.5155	3151.8722	3168.104	3201.6758	3738.8057	3801.7113
OC1C(O)C11CC2CN12	O[C@H]1[C@@H](O)[C@]21C[C@H]1CN21	
InChI=1S/C6H9NO2/c8-4-5(9)6(4)1-3-2-7(3)6/h3-5,8-9H,1-2H2	InChI=1S/C6H9NO2/c8-4-5(9)6(4)1-3-2-7(3)6/h3-5,8-9H,1-2H2/t3-,4-,5+,6+,7?/m0/s1
