20
gdb 12686	2.66502	1.94321	1.27571	1.7936	78.12	-0.2291	0.0257	0.2548	1023.532	0.176427	-349.033021	-349.024042	-349.023097	-349.066359	33.177	
C	 0.0580290198	 1.4921757682	-0.058857106	-0.494095
C	-0.0398447157	-0.0019539058	-0.0782657261	 0.222731
C	-1.1235744534	-0.7657997969	 0.1242489351	 0.189344
C	-2.5336690672	-0.3511597063	 0.4116762078	-0.501649
C	-0.8100132324	-2.2374131327	-0.0649365274	 0.057125
O	-1.4562697762	-2.7642886584	-1.2306897778	-0.434249
C	 0.7358858516	-2.2871362577	-0.1193234212	-0.245666
C	 1.1938424327	-0.8324487208	-0.3708598444	-0.299457
H	 0.7612580143	 1.8282360869	 0.714134331	 0.126032
H	 0.4466398938	 1.8708122777	-1.0132542943	 0.123777
H	-0.9030056468	 1.9761825512	 0.1296552097	 0.123566
H	-2.6768506469	 0.7312882893	 0.3705728783	 0.117134
H	-3.2167348722	-0.8177861509	-0.3071567389	 0.135336
H	-2.8480897845	-0.6930233502	 1.4066599938	 0.124252
H	-1.2063633262	-2.8580051301	 0.7468054877	 0.078097
H	-1.2357522764	-2.1783634752	-1.9638392079	 0.271064
H	 1.1265988681	-2.6421775427	 0.8390585256	 0.10341
H	 1.0683720277	-2.9923477361	-0.8852025303	 0.102977
H	 1.5399184587	-0.6654134787	-1.4012327962	 0.098997
H	 2.0363845713	-0.5472059908	 0.2715057314	 0.101274
75.0275	142.5235	144.5077	166.5247	226.5905	287.2331	321.0707	341.9207	400.8408	437.8	563.7912	613.2472	639.7065	775.577	791.6169	885.9982	910.9768	973.8783	993.6522	1016.5364	1037.3798	1062.8634	1083.0597	1106.7298	1166.7875	1188.3473	1224.9712	1247.9236	1273.3794	1306.6463	1330.7266	1350.9712	1406.5876	1416.4758	1430.8289	1476.4882	1478.5899	1481.4865	1486.9119	1494.9394	1500.1443	1738.7004	3002.3587	3016.6881	3020.4599	3036.0025	3041.6925	3059.2636	3062.6111	3071.7965	3105.7165	3113.7948	3119.7811	3792.4166
CC1=C(C)C(O)CC1	CC1=C(C)[C@@H](O)CC1	
InChI=1S/C7H12O/c1-5-3-4-7(8)6(5)2/h7-8H,3-4H2,1-2H3	InChI=1S/C7H12O/c1-5-3-4-7(8)6(5)2/h7-8H,3-4H2,1-2H3/t7-/m0/s1
