18
gdb 76253	2.34816	1.45483	0.99825	3.4086	75.23	-0.2492	-0.0303	0.2188	1198.266	0.145365	-439.119725	-439.110009	-439.109065	-439.155196	33.487	
C	-0.1694548131	 1.5654798377	-0.0464504569	-0.389519
C	 0.0244141423	 0.0562777504	-0.0655277718	 0.026905
C	 0.7820451181	-0.6383969178	-1.2427508223	-0.276952
C	 1.3607359624	 0.1186323834	-2.4065271675	 0.146408
O	 1.1331576023	 1.265966612	-2.6956897675	-0.246158
C	 1.8116830642	-1.0901696437	-0.153654553	 0.402435
O	 2.8181693023	-1.7478821702	-0.1365006749	-0.371011
N	 1.0963707842	-0.4483265076	 0.8150411455	-0.074636
C	 1.2587612202	-0.4290584206	 2.246738769	-0.351259
H	 0.767858551	 2.0931811311	-0.2287568588	 0.137001
H	-0.8814972179	 1.8703506301	-0.8165364688	 0.138105
H	-0.5665378395	 1.8746148484	 0.9269245431	 0.111176
H	-0.931541075	-0.4435849581	 0.1418565055	 0.0858
H	 0.2639701932	-1.5189061065	-1.6413244035	 0.126373
H	 2.0575300631	-0.5007042196	-3.0137859569	 0.102601
H	 2.183604963	-0.9602018446	 2.4830709772	 0.165387
H	 1.3323811546	 0.5952741025	 2.6281839092	 0.13708
H	 0.4238408645	-0.9307771066	 2.7520038625	 0.130265
39.4884	102.7664	114.2432	145.2422	180.5045	218.1551	241.4207	247.3919	323.215	415.8365	484.3136	616.3513	692.4293	731.4912	750.3325	812.9044	892.7186	990.6924	1034.8453	1051.0004	1061.3635	1081.8475	1138.2705	1155.6177	1160.4961	1253.8465	1275.5207	1332.6763	1385.8539	1416.4508	1419.4656	1428.0662	1449.8632	1480.4805	1482.4476	1491.6949	1518.4782	1821.4972	1880.9787	2891.3696	3008.3394	3018.2629	3043.0102	3054.4158	3074.9008	3117.0578	3133.1831	3147.1166
CC1C(C=O)C(=O)N1C	C[C@H]1[C@@H](C=O)C(=O)N1C	
InChI=1S/C6H9NO2/c1-4-5(3-8)6(9)7(4)2/h3-5H,1-2H3	InChI=1S/C6H9NO2/c1-4-5(3-8)6(9)7(4)2/h3-5H,1-2H3/t4-,5+/m0/s1
