21
gdb 36625	5.44823	0.68524	0.64359	0.784	92.34	-0.23	0.0256	0.2556	1767.0521	0.182343	-349.943164	-349.933737	-349.932793	-349.978284	34.91	
C	-0.0996875061	-1.1980528839	-0.0871262188	-0.443386
C	-0.0742562361	 0.0023985222	-0.1467471108	 0.299799
C	-0.0069446581	 1.4567970355	-0.2047784929	-0.348236
C	 1.3887843031	 2.008363354	 0.1902634056	-0.310666
C	 1.464287184	 3.5048731031	 0.1242544314	 0.353287
C	 1.61799274	 4.3407796651	 1.1540273609	-0.177483
C	 1.7107332607	 5.7856560435	 0.7298608708	-0.242751
C	 1.2550205622	 5.7410652158	-0.7518241992	-0.202538
C	 1.4335180215	 4.2666408865	-1.1898334594	-0.302415
H	-0.1363277463	-2.2579316366	-0.0394315647	 0.192798
H	-0.2640783987	 1.79336335	-1.2165018526	 0.131949
H	-0.7624330223	 1.8897643468	 0.4623363985	 0.133417
H	 1.6268134492	 1.6633540514	 1.2011913311	 0.113322
H	 2.1333955603	 1.5612864789	-0.4809922988	 0.11264
H	 1.7175103444	 4.0274078868	 2.1886498285	 0.083071
H	 1.0901594414	 6.4533910088	 1.3384435996	 0.100532
H	 2.742272008	 6.153700356	 0.8304368484	 0.1037
H	 0.1958211404	 6.0105858903	-0.8123664713	 0.103933
H	 1.8021001216	 6.4419974695	-1.3872645823	 0.096115
H	 2.3768860678	 4.1099262045	-1.7338091476	 0.103553
H	 0.6378198631	 3.9348668218	-1.8669609261	 0.099359
57.3685	68.1051	91.9559	145.252	191.6228	285.2062	325.5115	363.4614	452.2373	510.719	614.2958	616.0011	637.605	698.1824	766.5977	812.8183	844.261	882.6713	903.188	918.2604	947.8482	972.6522	1011.9149	1030.327	1041.3931	1070.3321	1150.9237	1162.8737	1185.36	1231.2891	1245.7692	1279.1088	1287.7365	1313.2894	1322.1989	1329.6816	1365.523	1369.8853	1473.6197	1483.7828	1488.327	1489.9729	1506.9307	1716.8683	2237.7661	2998.8234	3001.2858	3022.303	3031.501	3041.3784	3048.9303	3057.3806	3061.6627	3086.775	3100.8808	3179.6871	3507.9639
C#CCCC1=CCCC1	C#CCCC1=CCCC1	
InChI=1S/C9H12/c1-2-3-6-9-7-4-5-8-9/h1,7H,3-6,8H2	InChI=1S/C9H12/c1-2-3-6-9-7-4-5-8-9/h1,7H,3-6,8H2
