14
gdb 80214	2.32037	1.58068	1.2285	3.4676	70.62	-0.2475	-0.0038	0.2437	1029.7433	0.099441	-436.634711	-436.626614	-436.62567	-436.667236	30.565	
O	-0.0574379078	 1.3801088513	 0.283081528	-0.404012
C	-0.0627137021	 0.0046614512	 0.1252051782	 0.054789
C	-0.4871932662	-0.845859167	 1.2641480842	-0.090387
N	-1.5764269956	-0.2373180485	 2.0240309092	-0.334484
C	-2.4004797338	-0.1110641762	 0.8909407192	 0.370657
O	-3.4759884179	 0.3811734858	 0.7319206917	-0.323664
C	-1.3737762239	-0.8188143398	-0.0072301603	-0.063781
C	-1.5978550914	-1.7771702749	-1.0255202894	 0.186131
C	-1.7961920055	-2.5778205777	-1.9017009057	-0.395695
H	-0.2864229069	 1.7902744884	-0.5583428676	 0.304271
H	 0.7347131554	-0.4066418544	-0.4955531063	 0.114979
H	 0.0692279695	-1.6829800099	 1.6644666414	 0.132542
H	-1.4207861843	 0.5504249979	 2.6435422744	 0.255068
H	-1.9829356994	-3.2903176064	-2.666590407	 0.193586
124.9798	131.6786	151.4433	252.1124	304.3275	379.7492	387.8167	470.3458	513.3708	583.6172	590.4438	655.4756	657.2446	661.161	754.8176	780.1919	824.1156	913.0293	933.5956	1015.5433	1066.5904	1093.6412	1161.3191	1208.0409	1259.7886	1317.0486	1330.9982	1338.6381	1465.3966	1912.1208	2235.9992	3104.5448	3211.0149	3501.4046	3550.706	3807.3705
OC1C2NC(=O)C12C#C	O[C@H]1[C@H]2NC(=O)[C@@]12C#C	
InChI=1S/C6H5NO2/c1-2-6-3(4(6)8)7-5(6)9/h1,3-4,8H,(H,7,9)	InChI=1S/C6H5NO2/c1-2-6-3(4(6)8)7-5(6)9/h1,3-4,8H,(H,7,9)/t3-,4+,6-/m1/s1
