15
gdb 49987	3.96567	0.92204	0.84809	1.0663	67.91	-0.2609	-0.0564	0.2045	1318.2748	0.108802	-457.75107	-457.742793	-457.741848	-457.784921	30.034	
O	-0.1254901804	 0.2758719735	 0.7787079965	-0.241779
C	 0.3272019553	 0.7637899119	-0.2241534915	 0.152548
C	 1.4571467387	 1.7405222237	-0.2314476918	-0.152112
O	 2.1885306775	 1.8150613054	-1.4711892678	-0.26695
C	 1.3968598223	 2.9202356914	-1.1171383634	 0.419142
C	 0.2460535542	 3.4577649359	-1.989562639	-0.439759
C	 0.7784814387	 4.8744834645	-1.6796290202	 0.410245
O	 0.3983560098	 5.9740920508	-1.9448418287	-0.275773
C	 1.9715633907	 4.3249540835	-0.8669991676	-0.433062
H	-0.0646870943	 0.5278883347	-1.2381823722	 0.093107
H	 2.0519553634	 1.7888329963	 0.6791076993	 0.123466
H	 0.3312228129	 3.1817130638	-3.045593949	 0.155776
H	-0.776846498	 3.2668574231	-1.6543081892	 0.149619
H	 2.020988745	 4.6668620719	 0.1703340093	 0.149079
H	 2.9428917843	 4.4925792197	-1.3436607947	 0.156453
42.2363	98.3538	148.5143	218.4541	332.782	378.2625	400.8951	418.084	466.1569	523.7907	547.7575	641.191	717.53	830.9116	890.3557	936.3566	972.845	992.2664	1026.4944	1074.5165	1088.9583	1115.7109	1176.5288	1190.4687	1198.4433	1206.074	1286.8445	1390.2067	1412.6548	1425.6184	1480.0509	1828.4271	1909.9445	2896.3552	3058.2677	3062.6449	3116.1546	3117.8354	3139.6468
O=CC1OC11CC(=O)C1	O=C[C@H]1OC21CC(=O)C2	
InChI=1S/C6H6O3/c7-3-5-6(9-5)1-4(8)2-6/h3,5H,1-2H2	InChI=1S/C6H6O3/c7-3-5-6(9-5)1-4(8)2-6/h3,5H,1-2H2/t5-/m1/s1
