18
gdb 82969	3.09079	1.78354	1.49824	1.8496	76.38	-0.2054	-0.0095	0.1958	922.2005	0.149565	-401.866564	-401.859539	-401.858595	-401.897701	28.574	
O	 0.1264223627	 1.4088506589	-0.3790239821	-0.420553
C	 0.0781453966	 0.0453044222	-0.0674858895	 0.068161
C	-1.3407402755	-0.6304307695	-0.0874433766	-0.073567
C	-2.1613900107	-0.5357777166	-1.4127596614	-0.187566
N	-1.6215780007	-1.8623932924	-1.9310447287	-0.1182
C	-0.6786018689	-1.7034806378	-3.0695651362	-0.204595
C	 0.4578366068	-0.842370678	-2.4863927051	-0.159511
C	 0.4218074258	-0.9699860531	-1.1587972634	 0.067824
C	-0.7249451941	-1.8896126699	-0.746227443	-0.030818
H	 1.0010286127	 1.7471316533	-0.1648366857	 0.290588
H	 0.5397266354	-0.1651816926	 0.9087489114	 0.077863
H	-1.9010534282	-0.6294907582	 0.8480905087	 0.075051
H	-3.2402722862	-0.5971658473	-1.2534967246	 0.109871
H	-1.9407334586	 0.3320680414	-2.0405814172	 0.116379
H	-0.3672668738	-2.6959337634	-3.4208327082	 0.110043
H	-1.1673811154	-1.19981306	-3.910624295	 0.111054
H	 0.9487591015	-0.0528355202	-3.0431402994	 0.098224
H	-0.5342006693	-2.8433120769	-0.2513336739	 0.069753
155.9038	171.2308	226.4148	307.0149	376.1973	476.8918	557.3356	608.9592	669.0014	716.151	773.3603	795.0972	810.4985	866.5671	889.177	910.0717	925.1466	954.0489	977.5331	995.5443	1023.0651	1049.59	1083.8545	1143.8582	1150.2494	1167.942	1190.8099	1214.9213	1230.0206	1244.0998	1267.2304	1275.3693	1290.8578	1309.3937	1317.6034	1426.0258	1481.0954	1491.3088	1662.7543	2987.2214	3020.9622	3055.4938	3073.2744	3091.2827	3102.174	3112.4575	3198.5985	3827.9848
OC1C2CN3CC=C1C23	O[C@H]1[C@H]2CN3C[CH][C]1[C@@H]23	
InChI=1S/C7H9NO/c9-7-4-1-2-8-3-5(7)6(4)8/h1,5-7,9H,2-3H2	InChI=1S/C7H9NO/c9-7-4-1-2-8-3-5(7)6(4)8/h1,5-7,9H,2-3H2/t5-,6-,7+/m0/s1
