16
gdb 133784	4.38421	0.54547	0.53555	3.4458	67.25	-0.2876	0.0147	0.3023	2040.4332	0.118828	-532.232534	-532.222773	-532.221829	-532.269551	33.291	
C	-0.0040038692	 1.5737337613	 0.0103123498	-0.383732
C	 0.0100940907	 0.0443169446	 0.0019386741	-0.160601
C	-1.4146608396	-0.5494245141	 0.0129735965	-0.352245
C	-1.4261548032	-2.0052286002	 0.0053788078	 0.09064
C	-1.4088363445	-3.2069202271	-0.0014182778	-0.112395
C	-1.3934880767	-4.6635821473	-0.0096938918	 0.25903
F	-2.6360074092	-5.1695318882	-0.0012103899	-0.072808
F	-0.7736011735	-5.1433077573	-1.0986759598	-0.073577
F	-0.7541123464	-5.1552979354	 1.0625606073	-0.073603
H	 1.0138969903	 1.9737770818	 0.0022810543	 0.121621
H	-0.5256747127	 1.9721682231	-0.8667732745	 0.120023
H	-0.5079770694	 1.9626479552	 0.9018992777	 0.120025
H	 0.5399495816	-0.3248692382	-0.8827699256	 0.117755
H	 0.5574807509	-0.3343073839	 0.8718578723	 0.117754
H	-1.9572484645	-0.191956336	 0.8978952757	 0.141051
H	-1.9747141346	-0.1825767682	-0.857104636	 0.141061
24.7519	66.3129	66.4733	127.5342	168.1421	234.937	291.8034	334.1535	404.4154	459.4342	465.765	563.968	612.4994	618.1775	743.6578	769.3644	872.6695	888.1588	1024.0735	1052.9205	1108.1333	1124.0776	1176.1876	1176.617	1259.3493	1295.8333	1310.6537	1325.2897	1383.733	1413.8603	1468.0889	1491.5092	1498.021	1508.0356	2384.6739	3020.7177	3032.6516	3046.9654	3050.5692	3079.5705	3104.8462	3110.6906
CCCC#CC(F)(F)F	CCCC#CC(F)(F)F	
InChI=1S/C6H7F3/c1-2-3-4-5-6(7,8)9/h2-3H2,1H3	InChI=1S/C6H7F3/c1-2-3-4-5-6(7,8)9/h2-3H2,1H3
