18
gdb 76965	2.12828	1.60274	1.2963	3.3503	74.25	-0.236	-0.0545	0.1815	1078.3078	0.143899	-439.072877	-439.063143	-439.062199	-439.10755	34.367	
C	-0.4137502261	 1.3901631626	-0.1953877622	-0.32417
N	-0.0269522824	-0.0067582789	 0.0227702526	-0.10118
C	 1.3221014619	-0.4861063692	-0.3716319481	-0.104007
C	 2.3621661245	 0.4401022727	-0.8897978514	 0.13292
O	 2.6311057999	 1.5215463104	-0.414911666	-0.263453
C	 0.8733682393	-0.3788935295	 1.0706933778	-0.118793
C	 1.4703641642	 0.5907314169	 2.0823285584	 0.390752
C	 2.8417824289	 0.2303719026	 2.6122952915	-0.485908
O	 0.8361100706	 1.5347843458	 2.487863005	-0.301272
H	 0.397839509	 2.1144610293	-0.0885324375	 0.155873
H	-0.8344548322	 1.4607403368	-1.2028449423	 0.117203
H	-1.1912891983	 1.6331632882	 0.5310656188	 0.14448
H	 1.3141526275	-1.4620793763	-0.8528496747	 0.101111
H	 2.8960156317	 0.0677084201	-1.7909299528	 0.094163
H	 0.6420914725	-1.3385336905	 1.5413608175	 0.122911
H	 2.9382203263	-0.847633653	 2.7783877849	 0.128834
H	 3.5894452359	 0.5195905668	 1.8660973162	 0.164642
H	 3.0344195669	 0.7744709951	 3.5380693823	 0.145894
74.0792	118.9018	127.5274	142.8488	188.516	215.0109	234.6132	272.4829	345.6094	422.1228	427.0069	527.322	635.955	681.1442	783.2665	793.6443	835.2584	940.3985	974.6157	1000.3365	1034.4729	1068.6735	1077.8143	1137.0344	1165.9876	1173.8484	1190.189	1326.2857	1363.8483	1378.2025	1404.6124	1425.3598	1453.3882	1463.849	1475.4141	1480.651	1509.248	1788.9869	1812.5111	2897.7308	3041.7236	3043.8004	3067.3414	3109.8501	3116.0419	3129.0969	3137.8475	3150.0976
CN1C(C=O)C1C(C)=O	CN1[C@@H](C=O)[C@H]1C(=O)C	
InChI=1S/C6H9NO2/c1-4(9)6-5(3-8)7(6)2/h3,5-6H,1-2H3	InChI=1S/C6H9NO2/c1-4(9)6-5(3-8)7(6)2/h3,5-6H,1-2H3/t5-,6+,7?/m0/s1
