18
gdb 121716	6.8083	0.55267	0.51606	6.8118	71.8	-0.2507	-0.0289	0.2219	2029.027	0.145172	-476.265183	-476.25476	-476.253816	-476.302679	34.841	
O	 0.1361203726	 1.4050044949	 0.0080326802	-0.417384
C	 0.1025281007	-0.0115350803	 0.0011279669	-0.078298
C	-1.3592988772	-0.4389689076	 0.012252288	-0.158089
C	-1.5180650211	-1.957537204	 0.0058864809	-0.349342
C	-2.98150443	-2.3938091375	 0.0175785405	 0.436894
O	-3.9123561398	-1.6332295745	 0.031859502	-0.292875
N	-3.1261096848	-3.7944856559	 0.0109057675	-0.352943
C	-4.3037154796	-4.5379186314	 0.018775672	 0.167247
O	-5.4231158976	-4.1096210548	 0.0327111146	-0.250439
H	 1.0553220379	 1.6869277867	 0.0007998754	 0.287263
H	 0.6051113887	-0.4197312722	-0.892357699	 0.081913
H	 0.6212252101	-0.4287584577	 0.8811355919	 0.081925
H	-1.8511635205	-0.0176093179	 0.8938650141	 0.129407
H	-1.8670756138	-0.0085721046	-0.8558815083	 0.129329
H	-1.0341696229	-2.3981594275	-0.877494346	 0.124005
H	-1.0176446276	-2.4071853621	 0.8754218517	 0.124107
H	-2.273939275	-4.3363010527	-0.0009864368	 0.254065
H	-4.06489517	-5.6219995809	 0.0098486444	 0.083217
33.4131	47.3459	90.3414	93.5475	130.3661	205.2886	218.2745	265.3563	282.0838	319.4218	486.2159	554.5908	568.8946	633.1753	764.0463	800.5868	880.9625	929.5268	1026.3604	1027.9069	1050.6881	1084.316	1106.4965	1110.0397	1159.2673	1208.0563	1241.0563	1299.1112	1309.4498	1313.3221	1390.1747	1446.7765	1463.0418	1467.3637	1494.0348	1502.3294	1527.6697	1815.6589	1876.6867	2914.7024	2948.8716	2972.1775	3007.7509	3038.7984	3067.3327	3111.0653	3606.4694	3832.6393
OCCCC(=O)NC=O	OCCCC(=O)NC=O	
InChI=1S/C5H9NO3/c7-3-1-2-5(9)6-4-8/h4,7H,1-3H2,(H,6,8,9)	InChI=1S/C5H9NO3/c7-3-1-2-5(9)6-4-8/h4,7H,1-3H2,(H,6,8,9)
