14
gdb 28279	5.37893	1.32203	1.06219	1.7378	71.4	-0.1866	0.0285	0.2151	1046.1565	0.104675	-432.908173	-432.901326	-432.900381	-432.939025	27.37	
N	 0.0705435142	 1.3258611082	 0.1422142062	-0.590321
C	-0.0578571903	-0.0327765783	 0.0475451633	 0.412882
N	-1.1511565061	-0.7243541933	 0.023557549	-0.428435
C	-0.6837914123	-2.0448937598	 0.0063436419	 0.237577
C	-1.0810432605	-3.3620324557	-0.0237878464	-0.222173
N	 0.0873775205	-4.1045330669	-0.0383677634	-0.24505
C	 1.2208076798	-3.3051752282	-0.0174106037	-0.235765
C	 0.72587192	-2.0314424009	 0.0107748335	 0.277182
O	 1.1417419249	-0.7201677382	 0.0386456407	-0.255548
H	 0.9137869033	 1.7039132043	-0.2630770597	 0.265345
H	-0.7697668229	 1.8241177379	-0.1093114596	 0.271979
H	-2.0455388918	-3.8398203115	-0.035877375	 0.123473
H	 0.1150152777	-5.1079940338	-0.0522354076	 0.262047
H	 2.2113210934	-3.7243228838	-0.0225513692	 0.126807
153.6781	286.8059	311.1977	336.2193	359.6303	426.5221	555.6051	572.3422	599.708	609.03	630.3227	710.3201	735.0592	753.5697	757.8046	844.0705	930.4219	950.6233	1046.3037	1106.8581	1140.1421	1176.0774	1251.2408	1325.8909	1383.8763	1453.9405	1462.2371	1568.8054	1603.5028	1668.8082	1700.5799	3278.9733	3285.8454	3580.8153	3692.3519	3697.7597
NC1=NC2=CNC=C2O1	Nc1nc2c[nH]cc2o1	
InChI=1S/C5H5N3O/c6-5-8-3-1-7-2-4(3)9-5/h1-2,7H,(H2,6,8)	InChI=1S/C5H5N3O/c6-5-8-3-1-7-2-4(3)9-5/h1-2,7H,(H2,6,8)
