18
gdb 61716	5.51562	0.76408	0.70665	0.6588	80.87	-0.216	-0.0114	0.2046	1582.8446	0.148119	-435.291432	-435.282339	-435.281395	-435.326584	33.365	
N	 0.1152248694	 0.4088669778	 0.8296842859	-0.570125
C	-0.4049925981	-0.5394480258	-0.0055233215	 0.469532
N	 0.5344209817	-1.4239288702	-0.5815710556	-0.345907
C	 1.8592670417	-1.571505101	-0.3017590639	 0.173875
O	 2.503438166	-0.923820083	 0.5024869834	-0.330249
N	-1.6185540132	-0.7090712794	-0.3716702786	-0.339982
C	-2.5903116729	 0.208203673	 0.1331039626	 0.053688
C	-4.0377393435	-0.0806517051	-0.1422995199	-0.27951
C	-3.509940182	-0.2255734213	 1.2644787161	-0.279315
H	 1.0765557375	 0.2752890282	 1.1201808589	 0.282826
H	-0.5270358855	 0.8147108639	 1.4896197678	 0.262942
H	 0.1097790602	-2.0420191585	-1.2579194645	 0.267862
H	 2.3118862041	-2.3754954492	-0.9096556839	 0.100711
H	-2.3023158134	 1.2611823277	 0.1294325125	 0.083869
H	-4.698594419	 0.7495822179	-0.3650625926	 0.108094
H	-4.2446652879	-0.9916576348	-0.6921388976	 0.118651
H	-3.3698551244	-1.2308932956	 1.64468711	 0.116173
H	-3.8011686505	 0.5071999153	 2.0097072009	 0.106865
23.7179	76.1427	149.3896	152.9069	283.1966	286.6574	328.7915	415.548	453.0383	468.4502	551.4693	619.2339	676.9037	726.2312	770.578	808.2834	825.7235	860.6763	923.4248	947.1688	993.4758	1027.5092	1051.1859	1072.737	1132.8836	1138.7997	1183.2462	1193.9351	1200.2211	1233.0011	1389.6129	1399.7336	1446.0924	1457.2904	1491.73	1504.8811	1626.921	1739.4523	1788.2279	2974.7616	3074.3757	3131.5933	3138.5094	3217.3746	3232.687	3517.8193	3621.4483	3689.7044
NC(NC=O)=NC1CC1	NC(=NC1CC1)NC=O	
InChI=1S/C5H9N3O/c6-5(7-3-9)8-4-1-2-4/h3-4H,1-2H2,(H3,6,7,8,9)	InChI=1S/C5H9N3O/c6-5(7-3-9)8-4-1-2-4/h3-4H,1-2H2,(H3,6,7,8,9)
