16
gdb 130292	3.29457	1.53292	1.06574	4.1929	72.08	-0.1973	0.0303	0.2276	1076.2422	0.127898	-434.053836	-434.046503	-434.045559	-434.085463	28.599	
N	-0.0400284812	 1.4084760879	 0.043608759	-0.592074
C	 0.0464358822	 0.0263571599	-0.0024155513	 0.247969
N	-1.0640005395	-0.7011256227	-0.0121144271	-0.255928
O	-0.6210215098	-2.0739814802	 0.0477222255	-0.251027
C	 0.6982175979	-2.0334235656	 0.0515646964	 0.482773
C	 1.2130209898	-0.780717143	 0.0059316517	 0.085042
C	 2.7093466007	-0.871513221	 0.127101309	-0.367426
C	 2.921901122	-2.4127141163	-0.1014791754	-0.162903
N	 1.6088618847	-3.0577263744	 0.2024914109	-0.408155
H	 0.6662351756	 1.8824376324	-0.5011696734	 0.251131
H	-0.9683516181	 1.7456766026	-0.1768021022	 0.257861
H	 3.2792894321	-0.2918151295	-0.6057686414	 0.109634
H	 3.0657150093	-0.5735492275	 1.1214440991	 0.121276
H	 3.2013293333	-2.5964580142	-1.1467469267	 0.112287
H	 3.7023405089	-2.827345252	 0.5402767185	 0.12029
H	 1.4192194921	-3.9207030964	-0.2901091225	 0.249251
139.2217	201.4437	217.019	256.518	328.4214	393.8142	524.1886	547.4308	607.9515	629.4897	677.8577	699.2119	745.3642	771.5082	817.2246	862.9812	888.8084	929.2898	1019.0699	1076.1225	1108.8783	1134.8263	1195.1537	1240.8839	1243.6814	1301.5699	1329.5623	1363.5731	1449.924	1498.9935	1516.9959	1544.9415	1568.3596	1645.4726	1683.1327	3018.8127	3020.2018	3065.4513	3101.0448	3550.1363	3575.4134	3650.9977
NC1=NOC2=C1CCN2	Nc1noc2c1CCN2	
InChI=1S/C5H7N3O/c6-4-3-1-2-7-5(3)9-8-4/h7H,1-2H2,(H2,6,8)	InChI=1S/C5H7N3O/c6-4-3-1-2-7-5(3)9-8-4/h7H,1-2H2,(H2,6,8)
