22
gdb 118346	2.38378	0.94367	0.80436	0.83	79.7	-0.2044	-0.0254	0.179	1522.1461	0.190778	-441.466683	-441.455453	-441.454509	-441.503582	39.248	
C	 0.6665547905	-0.345539511	 1.2583423135	-0.327524
N	 0.1073322212	-0.1378339571	-0.0708532531	-0.04577
C	 1.0729355568	-0.4239437161	-1.1273110783	-0.332123
C	-1.2244778394	-0.6961465294	-0.2401404695	-0.076585
C	-1.9842805433	-0.1220243856	-1.4559695839	-0.242368
C	-2.1405592319	 1.3997587986	-1.3909004557	-0.060625
O	-2.9257713333	 1.9067474169	-2.4585732574	-0.416711
C	-1.3254463343	-2.2216777846	-0.2597577191	 0.163654
O	-0.3967337686	-2.9855656942	-0.19521059	-0.250263
H	 1.56418229	 0.2722229332	 1.3697770147	 0.116391
H	-0.0555371606	-0.0218395973	 2.0159378324	 0.111354
H	 0.9430501051	-1.3907907914	 1.466650444	 0.121221
H	 1.39435497	-1.4743978884	-1.1614997	 0.128661
H	 0.6598604483	-0.1582837127	-2.104464531	 0.108271
H	 1.9569482897	 0.2029690894	-0.9686085562	 0.116483
H	-1.8080187851	-0.3990774823	 0.6485006281	 0.097757
H	-1.4793547556	-0.4032744563	-2.388852172	 0.100349
H	-2.9821738107	-0.5730876293	-1.5000856502	 0.113166
H	-2.6733717615	 1.6737638885	-0.4730194849	 0.109357
H	-1.1535375946	 1.8769876319	-1.3434343319	 0.109509
H	-2.4141763162	 1.8216567981	-3.2690731035	 0.281863
H	-2.3748298267	-2.6007428609	-0.3341537561	 0.073932
59.4483	84.2538	98.2558	100.9431	179.4031	202.5205	209.5196	237.6113	279.7649	304.143	341.5843	350.7209	363.7997	427.9204	553.6674	728.1562	763.188	787.9759	898.4411	945.7707	984.0718	1055.9563	1071.8737	1073.0854	1091.706	1117.4212	1130.915	1149.3332	1187.2929	1248.2804	1264.8092	1305.5067	1329.7482	1329.9098	1379.7867	1393.6467	1412.9827	1422.1582	1440.1495	1469.7366	1476.3601	1491.5835	1493.6065	1513.2199	1514.3025	1529.2556	1829.8153	2825.4975	2963.4152	2986.0463	3005.5519	3022.2694	3031.258	3056.8293	3060.1385	3069.9359	3083.4473	3091.4613	3102.8036	3819.7709
CN(C)C(CCO)C=O	CN(C)[C@@H](CCO)C=O	
InChI=1S/C6H13NO2/c1-7(2)6(5-9)3-4-8/h5-6,8H,3-4H2,1-2H3	InChI=1S/C6H13NO2/c1-7(2)6(5-9)3-4-8/h5-6,8H,3-4H2,1-2H3/t6-/m0/s1
