18
gdb 13304	5.4547	1.19142	1.02619	0.8005	79.23	-0.2379	0.0252	0.2631	1145.0066	0.153908	-310.650382	-310.642456	-310.641512	-310.682983	29.864	
C	-0.0654602623	-1.2481689193	-0.0386112161	-0.445678
C	-0.0576046471	-0.0457917968	-0.0364387715	 0.299181
C	-0.011833795	 1.4113984458	-0.0353032795	-0.365568
C	 1.4263311678	 1.9786846669	 0.0215011178	-0.010442
C	 1.4656833488	 3.5299875941	-0.0289302389	-0.231733
C	 2.6151659788	 3.9547301148	 0.9202691973	-0.255722
C	 2.8049979757	 2.732261304	 1.787612075	-0.068884
C	 2.1699743166	 1.6678381084	 1.3017256893	-0.059636
H	-0.086543714	-2.3096041053	-0.0411696729	 0.193153
H	-0.5119918663	 1.7916248594	-0.9356052324	 0.127483
H	-0.5812535319	 1.797435499	 0.8204338748	 0.127761
H	 1.9737891279	 1.5506088386	-0.8306445991	 0.088155
H	 1.5858068959	 3.9143296219	-1.0451365206	 0.098344
H	 0.5163874248	 3.9225417995	 0.3538485093	 0.101138
H	 3.5374268869	 4.1830766162	 0.3673903231	 0.106336
H	 2.3740234499	 4.8563931753	 1.4946257628	 0.102519
H	 3.4266864275	 2.737793449	 2.6765007626	 0.090898
H	 2.1865022962	 0.6699767784	 1.7251658293	 0.102694
71.5516	95.1899	142.4463	275.8798	316.1663	352.269	435.428	515.5089	616.6017	629.3654	642.2053	749.9663	765.2495	845.789	846.8647	920.6764	927.9328	946.4201	981.0887	994.5266	1052.199	1069.9875	1088.5162	1136.222	1174.0859	1211.0999	1229.7232	1277.9873	1311.5715	1320.1773	1338.9325	1354.7877	1388.1843	1470.6061	1483.1509	1499.9008	1686.6848	2235.856	2995.2154	3007.8459	3015.1876	3036.3057	3050.3529	3056.3249	3096.1363	3183.0296	3209.8979	3506.8259
C#CCC1CCC=C1	C#CC[C@H]1CCC=C1	
InChI=1S/C8H10/c1-2-5-8-6-3-4-7-8/h1,3,6,8H,4-5,7H2	InChI=1S/C8H10/c1-2-5-8-6-3-4-7-8/h1,3,6,8H,4-5,7H2/t8-/m1/s1
