21
gdb 115656	2.72249	1.20167	0.98858	2.1536	78.36	-0.2368	0.0668	0.3036	1275.8301	0.182292	-424.192057	-424.182988	-424.182044	-424.226463	33.89	
O	-0.0903495934	 1.4565948534	-0.1723282126	-0.42284
C	-0.0462521031	 0.0959284141	 0.233985802	-0.100223
C	-1.4239519514	-0.4866932232	-0.0106979906	-0.10226
C	-1.7934164902	-0.7143912666	-1.4884314055	-0.08675
O	-1.8474661598	-2.1446637293	-1.2954005191	-0.319217
C	-1.5932545247	-2.0243220187	 0.1127309556	 0.446217
C	-0.5187670898	-2.9349742328	 0.7549752439	-0.291243
C	-1.4504387366	-3.0974922318	 1.9868473634	-0.213766
C	-2.6299138566	-2.6050171821	 1.1047326613	-0.287151
H	 0.7917924245	 1.8283017006	-0.0807998364	 0.288143
H	 0.7041398092	-0.4677961479	-0.3429134653	 0.092202
H	 0.2204708405	 0.0046997227	 1.299626706	 0.087459
H	-2.1618937029	 0.0881013301	 0.5547913662	 0.083253
H	-2.7597508308	-0.3069288588	-1.8073202186	 0.101092
H	-1.0261143474	-0.4233153644	-2.2153357961	 0.103454
H	-0.4455756975	-3.8611897966	 0.1773598233	 0.114401
H	 0.4875072863	-2.5370581209	 0.9066127925	 0.094366
H	-1.5332709602	-4.0939440993	 2.4243650389	 0.101949
H	-1.2069768588	-2.3884668294	 2.7827991554	 0.102488
H	-3.3594108512	-1.9171399345	 1.5409409985	 0.095205
H	-3.1613536461	-3.4379472449	 0.6353236873	 0.113223
51.7217	95.114	127.6683	174.7368	251.8044	275.2001	308.7305	354.6836	459.8258	483.8449	507.236	690.9271	780.5002	830.9642	850.6709	898.7202	912.5615	925.6372	933.4607	969.9742	1012.4406	1023.2203	1035.2128	1089.0985	1094.6352	1149.7426	1154.9924	1169.9876	1185.692	1195.7515	1229.6324	1244.1228	1257.4342	1264.9567	1276.71	1281.3034	1308.6879	1341.9477	1380.8997	1460.7539	1467.8495	1484.3987	1505.1545	1519.3545	1531.5385	2962.1307	2992.5625	3021.5445	3052.7762	3059.9252	3061.999	3065.8142	3080.706	3103.6518	3110.8439	3125.1098	3830.1879
OCC1COC11CCC1	OC[C@H]1COC21CCC2	
InChI=1S/C7H12O2/c8-4-6-5-9-7(6)2-1-3-7/h6,8H,1-5H2	InChI=1S/C7H12O2/c8-4-6-5-9-7(6)2-1-3-7/h6,8H,1-5H2/t6-/m0/s1
