20
gdb 52998	3.15152	0.94672	0.83622	1.822	91.66	-0.2117	0.0392	0.2508	1490.4427	0.169961	-365.954118	-365.944495	-365.943551	-365.990051	35.02	
C	 0.0184984562	 1.4764929584	-0.0683963813	-0.510376
C	-0.0194516516	 0.0234922374	-0.0055274251	 0.254402
C	-0.0558073038	-1.1815367323	 0.0447044248	-0.218226
C	-0.0629708989	-2.5997595982	 0.1300105902	 0.239527
N	-0.3835705918	-3.4581688387	-1.0542068275	-0.377705
C	-1.2008151369	-3.5794561777	 0.1677920572	-0.123794
C	-0.4319673162	-4.5101450549	 1.1063085504	-0.238213
C	 0.7679286359	-3.4910635685	 1.0851727111	-0.040348
C	 2.1295907749	-3.9649633127	 0.6027687581	-0.412058
H	 0.6853327718	 1.8855073381	 0.6988515425	 0.15115
H	 0.3808899364	 1.8270704886	-1.0414337821	 0.149386
H	-0.9746951394	 1.9108486115	 0.0928166005	 0.148312
H	-0.8942532706	-2.8626939393	-1.706088932	 0.231737
H	-2.2656950646	-3.3812019703	 0.1467655513	 0.099313
H	-0.8841506317	-4.606812101	 2.0953569224	 0.101342
H	-0.2279200401	-5.5026373522	 0.6960320374	 0.106883
H	 0.8494463345	-2.9969675546	 2.057393546	 0.077676
H	 2.0462686041	-4.4139900917	-0.3902345037	 0.136615
H	 2.8376530081	-3.1309577435	 0.5455427471	 0.115252
H	 2.5475919038	-4.7118597083	 1.2865229025	 0.109127
17.9061	81.8794	100.4818	183.8125	229.4049	243.0715	296.066	334.016	404.6065	451.9674	489.3031	541.111	599.1001	667.7127	802.0485	852.6033	860.2623	875.064	937.3009	963.2973	996.1676	1051.8001	1052.7637	1062.7974	1089.8118	1102.0595	1114.6811	1155.8547	1204.6274	1223.1604	1244.7226	1288.9681	1327.3226	1368.0933	1402.5786	1410.6433	1429.6869	1475.6086	1478.512	1480.5737	1490.748	1505.7469	2357.5361	3024.0071	3032.4113	3062.419	3068.1412	3082.8128	3086.4193	3093.5219	3120.7409	3125.237	3188.3244	3474.7247
CC#CC12NC1CC2C	CC#C[C@]12N[C@H]1C[C@H]2C	
InChI=1S/C8H11N/c1-3-4-8-6(2)5-7(8)9-8/h6-7,9H,5H2,1-2H3	InChI=1S/C8H11N/c1-3-4-8-6(2)5-7(8)9-8/h6-7,9H,5H2,1-2H3/t6-,7+,8-/m1/s1
