17
gdb 62000	3.9634	0.80475	0.79089	1.4577	69.61	-0.2521	0.0045	0.2566	1455.3736	0.133915	-455.177949	-455.167967	-455.167023	-455.214211	34.911	
C	-0.1568087508	 0.8084009112	 1.4687198565	-0.403818
C	 0.0346717229	-0.068635769	 0.2238585179	-0.016245
O	 1.0336886412	-1.0696630081	 0.368362317	-0.258148
C	 2.3711438707	-0.5871950875	 0.3846623074	-0.181915
C	 3.016977402	-0.5658907177	 1.7764480386	 0.364686
N	 2.3437396476	-1.2770696975	 2.7161609473	-0.50548
O	 4.0598066031	 0.0264301511	 1.9665617796	-0.357134
C	-1.2139788416	-0.773240973	-0.112442024	 0.27805
N	-2.2119235155	-1.296269497	-0.3644511074	-0.307702
H	 0.7635234329	 1.3540406269	 1.6904328419	 0.145711
H	-0.9546678336	 1.5347679425	 1.2920948252	 0.145481
H	-0.4222451496	 0.1962888141	 2.333156352	 0.143004
H	 0.2868026888	 0.574235051	-0.633866689	 0.130198
H	 2.967789163	-1.2610253121	-0.2407997395	 0.150119
H	 2.4553195425	 0.4181211232	-0.042465345	 0.13425
H	 1.5263647818	-1.8036882589	 2.4587188327	 0.271856
H	 2.7543001846	-1.3904522793	 3.6280082791	 0.267088
33.3926	47.4394	92.1719	162.3081	222.5962	253.0078	266.6624	324.3667	354.9796	389.0198	484.4206	499.37	548.5343	566.4571	616.6249	677.0447	814.4693	863.9008	904.8997	1006.6512	1057.3202	1089.014	1100.4752	1107.78	1150.8732	1278.508	1342.836	1351.9656	1365.1664	1386.3994	1408.8642	1469.4972	1486.7426	1490.5488	1595.9879	1811.7504	2369.9151	2991.0345	3039.6225	3054.7491	3088.3612	3131.8611	3143.6865	3600.746	3739.6862
CC(OCC(N)=O)C#N	C[C@@H](OCC(=O)N)C#N	
InChI=1S/C5H8N2O2/c1-4(2-6)9-3-5(7)8/h4H,3H2,1H3,(H2,7,8)	InChI=1S/C5H8N2O2/c1-4(2-6)9-3-5(7)8/h4H,3H2,1H3,(H2,7,8)/t4-/m1/s1
