16
gdb 67286	3.1543	1.94444	1.75284	1.3347	66.16	-0.2221	0.039	0.2611	822.6301	0.126562	-437.788291	-437.782249	-437.781305	-437.818295	25.906	
O	-0.09565609	 1.4439219967	 0.0032581659	-0.479746
C	-0.0088437654	 0.0714543814	 0.0009980653	 0.394705
C	 0.7715844059	-0.8677087293	-0.9819567575	-0.028678
O	 1.6377773481	-1.3412999865	 0.0727287372	-0.289352
C	 0.6751857383	-0.8771614753	 1.044818961	-0.028669
C	-0.6169427063	-1.8128570672	 0.9939392707	-0.033664
N	-0.4668582828	-2.8611071592	-0.0344594522	-0.288022
C	-0.5191295747	-1.8032674053	-1.0626575578	-0.033663
C	-1.2535809754	-0.8550508068	-0.062520695	-0.110838
H	 0.7954945298	 1.8108037546	 0.0468986732	 0.289439
H	 1.3028224877	-0.5951059973	-1.8952826666	 0.079579
H	 1.1172332921	-0.6133116665	 2.0069330605	 0.079583
H	-1.0664729052	-2.1037275509	 1.9443863146	 0.072964
H	 0.4386087102	-3.3319390132	 0.0064090422	 0.219307
H	-0.8762914434	-2.0850798295	-2.0541464259	 0.072963
H	-2.2957921389	-0.5553644957	-0.1106926054	 0.084093
251.8623	284.0164	356.3418	411.7402	512.2913	545.0195	630.4383	661.1897	726.0978	784.8288	792.9963	833.407	837.2657	861.1152	923.2516	961.1618	982.3365	994.0819	1007.3182	1049.1459	1056.7511	1074.9686	1092.0264	1134.7921	1155.4402	1180.1903	1194.067	1237.6421	1238.5935	1244.2514	1287.376	1318.5098	1341.3827	1384.5851	1413.7532	3092.9862	3094.6572	3103.3529	3107.6483	3167.3113	3440.4543	3787.8519
OC12C3OC1C1NC3C21	O[C@@]12[C@H]3O[C@@H]1[C@@H]1N[C@H]3[C@H]21	
InChI=1S/C6H7NO2/c8-6-1-2-4(6)9-5(6)3(1)7-2/h1-5,7-8H	InChI=1S/C6H7NO2/c8-6-1-2-4(6)9-5(6)3(1)7-2/h1-5,7-8H/t1-,2-,3+,4-,5+,6-
