23
gdb 101447	2.21318	1.33711	1.07309	2.34	81.72	-0.2419	0.0704	0.3123	1275.291	0.204762	-425.408899	-425.398824	-425.39788	-425.443861	37.612	
C	 0.1744239713	 1.3132838158	-0.0088832649	-0.241956
O	 0.0042402793	-0.037506498	 0.369758506	-0.2665
C	-1.2951821509	-0.5884283356	 0.1041598656	 0.119536
C	-1.6035914262	-0.6551920209	-1.3937383259	-0.409923
C	-1.3556948741	-1.9643374428	 0.7645577845	-0.058953
C	-0.2044275117	-2.959001482	 0.421813902	-0.230594
C	 0.4138235184	-2.7244372582	 1.8274047181	-0.243408
C	-0.8931930389	-2.0071400419	 2.2644243547	 0.146095
O	-0.804516487	-0.803954879	 2.9809426579	-0.43965
H	 1.1305639507	 1.6433244356	 0.4050626462	 0.129865
H	 0.2055011089	 1.4411215196	-1.0986220696	 0.117276
H	-0.6269646734	 1.9509202869	 0.3943121885	 0.111154
H	-2.0416303462	 0.057315968	 0.5963651381	 0.077554
H	-2.5854615036	-1.1120519494	-1.5498930275	 0.121203
H	-1.6281624755	 0.3370181128	-1.852367074	 0.115878
H	-0.856426944	-1.2585351826	-1.9180869906	 0.127401
H	-2.3645268049	-2.3543633888	 0.5964386208	 0.066781
H	-0.5650536602	-3.9791027298	 0.2701717076	 0.096829
H	 0.4292900767	-2.6879301648	-0.4249890367	 0.102431
H	 0.7156585053	-3.6032335668	 2.4027930564	 0.090785
H	 1.2492451426	-2.0210050101	 1.7908264129	 0.104621
H	-1.5398793865	-2.6634242601	 2.8547685616	 0.080878
H	-0.2582685701	-0.2217091176	 2.4361977584	 0.2827
80.9504	97.3413	110.0016	172.2899	194.3274	204.4765	257.4675	302.7674	330.8128	419.5543	434.113	532.072	580.1186	589.1605	698.6439	751.84	771.3615	860.1473	897.9053	936.7424	962.0568	981.3783	1018.3806	1066.9024	1076.3848	1103.5261	1129.9575	1145.6021	1162.8939	1181.598	1201.9695	1223.6421	1233.2823	1261.9658	1269.5919	1284.6992	1328.6001	1346.3813	1372.8918	1387.7808	1404.1557	1456.7506	1469.9044	1477.2026	1484.0884	1491.1827	1493.0643	1507.9854	1513.1073	2965.5005	2987.1655	3041.9032	3047.8398	3050.5515	3060.2566	3062.5871	3071.7934	3108.4539	3111.2509	3114.7648	3119.9824	3126.0989	3752.8548
COC(C)C1CCC1O	CO[C@@H](C)[C@H]1CC[C@H]1O	
InChI=1S/C7H14O2/c1-5(9-2)6-3-4-7(6)8/h5-8H,3-4H2,1-2H3	InChI=1S/C7H14O2/c1-5(9-2)6-3-4-7(6)8/h5-8H,3-4H2,1-2H3/t5-,6+,7+/m0/s1
