15
gdb 17777	5.66487	1.27016	1.16869	4.3247	63.58	-0.2519	0.0195	0.2714	1005.4186	0.119012	-399.74401	-399.737006	-399.736062	-399.77656	25.737	
O	-0.1320153796	-0.0889816648	 0.327771483	-0.310975
C	-0.0936909715	 1.0974289865	 0.0925260671	 0.154777
N	 1.0390475109	 1.8208404824	-0.1576095945	-0.314843
C	 2.3487966172	 1.2366286725	-0.1694591195	 0.084022
C	 3.4059027519	 1.5808357515	-1.2634240931	 0.02276
C	 3.6162134755	 2.9838933954	-0.6401443906	-0.24233
C	 3.5771539498	 1.9303196978	 0.4955721094	 0.022481
O	 4.4320018614	 1.058438351	-0.3369661429	-0.29412
H	-0.9979617472	 1.7369198101	 0.0546419225	 0.077364
H	 0.9286053322	 2.8055209762	-0.3394796322	 0.250531
H	 2.2636025345	 0.1748816579	 0.0495643727	 0.13854
H	 3.4572151538	 1.2658440727	-2.3056582192	 0.102996
H	 4.5982630457	 3.4210414984	-0.8225698513	 0.119765
H	 2.81751686	 3.7287788303	-0.7104911372	 0.086067
H	 3.8326695955	 2.032015472	 1.5503202158	 0.102965
23.3648	168.8639	188.1711	285.4155	398.4635	519.3701	542.8471	576.8896	738.0701	750.4853	818.3821	876.4014	894.3982	915.5149	960.7316	1005.9744	1030.4794	1058.7454	1092.5819	1096.835	1152.4238	1165.0693	1197.9164	1208.0256	1223.821	1260.6994	1279.0065	1348.3533	1435.423	1497.2735	1533.4329	1814.1975	2936.3689	3054.4763	3120.798	3125.063	3144.2966	3167.7429	3633.7698
O=CNC1C2CC1O2	O=CN[C@H]1[C@H]2C[C@@H]1O2	
InChI=1S/C5H7NO2/c7-2-6-5-3-1-4(5)8-3/h2-5H,1H2,(H,6,7)	InChI=1S/C5H7NO2/c7-2-6-5-3-1-4(5)8-3/h2-5H,1H2,(H,6,7)/t3-,4+,5+
