19
gdb 104771	2.64445	1.18257	0.94045	2.6257	73.42	-0.2634	-0.0476	0.2158	1279.9297	0.156109	-460.14545	-460.135442	-460.134498	-460.181193	35.375	
C	 0.9083325775	 0.3485593905	-0.6930855661	-0.388225
C	 0.1672663859	-0.5922361767	 0.2697755666	-0.268227
C	-1.3275504409	-0.6601626466	 0.0180959194	 0.344429
C	-2.165655959	 0.5806519136	 0.3117075455	-0.118714
O	-1.9568998204	 1.5975844787	-0.650747041	-0.405603
O	-1.7264967829	-1.299930761	-1.2008652905	-0.271643
C	-2.0648927342	-1.9644059499	 0.0111120041	-0.096441
C	-1.4024917012	-3.2712854763	 0.314563596	 0.1371
O	-0.4203102001	-3.7003019119	-0.2343915974	-0.243963
H	 1.9795640459	 0.3402793618	-0.4719837483	 0.112654
H	 0.7764176481	 0.0114420905	-1.7257055043	 0.129029
H	 0.5418958956	 1.3739593501	-0.6224521521	 0.139516
H	 0.5858530896	-1.5962835448	 0.1766730953	 0.138553
H	 0.3215152644	-0.2670033384	 1.3065346145	 0.099206
H	-3.2281291667	 0.3002653619	 0.3625927488	 0.093027
H	-1.8833991042	 1.0063022943	 1.279810822	 0.117187
H	-2.1465034232	 1.2061938916	-1.511698474	 0.29655
H	-3.1243622118	-1.941231127	 0.2742013043	 0.101657
H	-1.9076539824	-3.8359244003	 1.1308387971	 0.083907
36.8312	85.1448	119.8765	147.5693	195.5764	224.7738	259.3685	298.3539	313.2064	360.5944	442.3308	471.3843	567.0436	719.9771	771.1991	793.095	843.2391	919.7862	926.223	974.2565	985.6135	1006.4063	1072.8429	1093.0816	1104.0066	1128.0289	1197.9243	1250.418	1308.0655	1325.7657	1371.2545	1396.9052	1410.7044	1421.9242	1428.4119	1447.5796	1478.7365	1496.5673	1497.7591	1514.9141	1825.7761	2876.2418	2992.5224	3032.8457	3048.0476	3083.2905	3093.8876	3109.9368	3114.0062	3144.7185	3796.1216
CCC1(CO)OC1C=O	CC[C@@]1(CO)O[C@H]1C=O	
InChI=1S/C6H10O3/c1-2-6(4-8)5(3-7)9-6/h3,5,8H,2,4H2,1H3	InChI=1S/C6H10O3/c1-2-6(4-8)5(3-7)9-6/h3,5,8H,2,4H2,1H3/t5-,6-/m0/s1
