15
gdb 48116	3.14385	1.27121	1.12476	2.0864	65.92	-0.2483	-0.1008	0.1475	1091.6474	0.110288	-457.722096	-457.714057	-457.713113	-457.755766	28.765	
O	-1.0980585333	 1.8928555277	 0.6074488537	-0.2204
C	-0.0679187896	 1.285914571	 0.4696177474	 0.085595
C	 1.2641931104	 1.9557504491	 0.1065693704	 0.278825
O	 2.2469426344	 1.2662955362	-0.025254797	-0.278157
C	 1.208696932	 3.4489441342	-0.1167454207	 0.025359
O	 2.4917956029	 4.0880095147	-0.247579923	-0.284812
C	 2.1198615591	 4.6068868522	-1.5309909455	 0.114046
C	 1.8895128715	 3.5031192278	-2.5076510725	-0.299886
C	 0.7905762364	 3.8859649603	-1.5327710462	-0.154795
H	 0.019307296	 0.1850781193	 0.5871435871	 0.114105
H	 0.6036690767	 3.9294020634	 0.6594090896	 0.119502
H	 2.4004246961	 5.6271320698	-1.7613284985	 0.114427
H	 1.6951452622	 3.8146815446	-3.5291540461	 0.123655
H	 2.43759244	 2.5721761273	-2.3978771515	 0.142801
H	-0.2005654249	 4.2030232424	-1.8223195973	 0.119735
42.1471	125.3329	136.7846	151.5727	254.2557	357.1943	457.8159	511.1207	565.4681	627.5674	741.2266	770.3688	800.188	873.2976	940.7321	965.0186	991.264	1010.2828	1035.75	1047.9356	1056.6187	1072.996	1093.7563	1179.2356	1193.0839	1229.6723	1261.0959	1348.4002	1361.3895	1370.7743	1469.402	1806.9514	1818.2462	2924.9878	3059.6911	3124.3911	3193.6113	3215.775	3225.3947
O=CC(=O)C1OC2CC12	O=CC(=O)[C@H]1O[C@H]2C[C@@H]12	
InChI=1S/C6H6O3/c7-2-4(8)6-3-1-5(3)9-6/h2-3,5-6H,1H2	InChI=1S/C6H6O3/c7-2-4(8)6-3-1-5(3)9-6/h2-3,5-6H,1H2/t3-,5+,6+/m1/s1
