19
gdb 84725	2.54847	1.69328	1.19906	1.6909	83.16	-0.2185	-0.0312	0.1873	1082.2661	0.160347	-385.881434	-385.873579	-385.872635	-385.913675	31.084	
C	-0.6536268656	 1.2582700473	 0.1066580904	-0.411749
C	 0.123389803	-0.0616681891	-0.0249568992	-0.084734
C	 1.0534767722	-0.0284791626	-1.2159370854	-0.049563
C	 1.8449445495	-1.0265092533	-1.6257481036	-0.078396
C	 2.0060685676	-2.3208549232	-0.9730604635	-0.112936
C	 1.8915393314	-2.5878721887	 0.338218844	-0.068956
C	 1.6531570612	-1.6223852335	 1.4360847519	 0.003722
O	 2.2503365794	-0.3104475512	 1.3643842451	-0.2445
C	 0.8362136391	-0.399019659	 1.2911322689	 0.050702
H	 0.0289510185	 2.097278691	 0.2807030778	 0.128019
H	-1.2218945327	 1.4685846571	-0.8043296944	 0.118004
H	-1.3604964849	 1.2206593205	 0.9412382602	 0.113451
H	-0.6050593228	-0.8732579237	-0.1820294836	 0.097164
H	 1.0452836005	 0.8922814377	-1.794488766	 0.089568
H	 2.4059617092	-0.8899276641	-2.5478891108	 0.089569
H	 2.2745536895	-3.1480702058	-1.6273950283	 0.095435
H	 2.0267141133	-3.6152172943	 0.6658475566	 0.091262
H	 1.7133688976	-2.0570997754	 2.4337531713	 0.089992
H	 0.325947674	-0.0265232998	 2.1840320085	 0.083946
72.2077	220.7917	231.759	260.0244	309.2269	347.9781	392.0686	448.0021	523.0654	627.3372	667.6391	720.4077	777.7124	807.5766	813.6726	860.9645	919.1839	927.8562	957.5587	992.0164	994.736	1016.8599	1040.8442	1079.8989	1112.0422	1140.3329	1172.2476	1243.3955	1263.0474	1288.9472	1320.3896	1327.9313	1373.2244	1408.0509	1427.271	1446.0716	1469.0349	1499.6762	1502.0094	1673.8232	1708.1684	2973.2757	3033.5539	3063.312	3103.8072	3107.7079	3109.4799	3133.4763	3143.1719	3161.5523	3169.6839
CC1C=CC=CC2OC12	C[C@H]1C=CC=C[C@H]2O[C@@H]12	
InChI=1S/C8H10O/c1-6-4-2-3-5-7-8(6)9-7/h2-8H,1H3	InChI=1S/C8H10O/c1-6-4-2-3-5-7-8(6)9-7/h2-8H,1H3/t6-,7+,8-/m0/s1
