18
gdb 93115	2.0872	1.73507	1.25986	2.1275	77.13	-0.2478	0.0185	0.2663	1071.5951	0.147634	-401.927997	-401.919458	-401.918514	-401.960998	32.336	
C	-0.0408336914	 1.5443980832	-0.0246844953	-0.415275
C	 0.0473590884	 0.0191299819	-0.003695827	-0.027023
C	 0.6914497743	-0.5665355003	-1.2652152971	-0.160837
N	 0.9306852676	-2.004086558	-1.1822484734	-0.267127
C	 0.9668111759	-2.5347994006	-0.0381577575	 0.128541
O	 0.843682771	-1.9618341725	 1.1912765203	-0.230605
C	 0.820531	-0.518588616	 1.2172867152	-0.064128
C	 2.1864743418	-0.0018948419	 1.3147949627	 0.364514
C	 3.3057693316	 0.428230505	 1.3925851567	-0.482301
H	 0.9542575881	 1.9950458357	-0.0845786723	 0.134481
H	-0.6196533493	 1.8803232449	-0.890705656	 0.122167
H	-0.5325516659	 1.9302310837	 0.874748547	 0.11651
H	-0.9639110362	-0.3979625402	 0.0854978001	 0.093379
H	 0.0513443027	-0.3791231075	-2.134600547	 0.110692
H	 1.6460346197	-0.0631523632	-1.4701617675	 0.12173
H	 1.1038831842	-3.6081369222	 0.0793211556	 0.126044
H	 0.2803836743	-0.2703991575	 2.1371006892	 0.121427
H	 4.2974493632	 0.8016771154	 1.4687229262	 0.207811
88.8545	146.3341	162.6789	223.9303	245.6753	287.7117	373.9718	443.7548	471.5041	505.5795	599.2088	618.0744	637.78	676.681	765.6871	887.972	903.3264	932.1098	962.3377	964.4392	992.7198	1009.8506	1092.8802	1137.0823	1139.9689	1187.0588	1234.3142	1312.0549	1327.8156	1346.1819	1382.4354	1391.5739	1408.1679	1413.255	1482.5738	1496.5107	1502.4869	1739.0013	2235.5697	3017.8097	3028.8019	3035.613	3053.4865	3060.9317	3101.3824	3115.394	3160.7156	3500.5019
CC1CN=COC1C#C	C[C@H]1CN=CO[C@H]1C#C	
InChI=1S/C7H9NO/c1-3-7-6(2)4-8-5-9-7/h1,5-7H,4H2,2H3	InChI=1S/C7H9NO/c1-3-7-6(2)4-8-5-9-7/h1,5-7H,4H2,2H3/t6-,7-/m0/s1
