19
gdb 109990	2.41891	1.26695	0.93977	2.37	76.84	-0.2534	0.0424	0.2958	1259.625	0.158205	-422.97229	-422.963034	-422.96209	-423.00622	35.255	
O	 0.221615603	 1.2414370772	-0.4695745781	-0.429813
C	 0.1633353137	-0.1672469539	-0.3487612635	-0.0783
C	-1.2360464368	-0.6222886814	 0.057207318	-0.074753
C	-2.287187697	-0.4718818887	-1.0880493949	 0.134406
O	-2.0306068633	 0.4585972594	-2.1278247678	-0.435052
C	-2.1686035864	-1.9820818224	-1.3917942905	-0.282538
C	-1.4984424629	-2.1723679227	 0.0089899114	-0.193261
C	-0.3777519267	-3.0835027039	 0.1171514883	 0.323066
C	 0.5594496457	-3.8337959376	 0.193761335	-0.452029
H	-0.4794490258	 1.4842521572	-1.0886626364	 0.287121
H	 0.4793734961	-0.6695121607	-1.2795429761	 0.072778
H	 0.8901588468	-0.4564919001	 0.4160073201	 0.120241
H	-1.5005172735	-0.1369291559	 0.9997493489	 0.084973
H	-3.2720676797	-0.2094718073	-0.6922380399	 0.098787
H	-1.4059390101	 0.0585307643	-2.7416688899	 0.29043
H	-3.0825806342	-2.5420953904	-1.5966735048	 0.116784
H	-1.4488935809	-2.1764169357	-2.1935039954	 0.109441
H	-2.2569709575	-2.4367257825	 0.7524002051	 0.110448
H	 1.3840943295	-4.4987075749	 0.2671377504	 0.19727
75.3229	114.7244	157.814	193.9987	247.8478	297.8821	315.7542	374.5727	398.0643	479.4734	522.6214	591.2139	611.6862	622.5141	630.9933	662.5772	770.883	843.3639	890.7208	937.6685	984.0711	1045.3486	1055.9144	1069.1822	1086.3449	1122.4522	1143.1416	1185.6479	1205.775	1245.3007	1266.7755	1284.218	1317.9534	1331.266	1354.7688	1397.8827	1429.427	1449.3242	1480.9718	1512.7154	2232.0702	2952.3307	3051.7394	3058.3256	3070.3469	3079.3502	3088.8772	3123.9671	3503.6992	3757.521	3817.4056
OCC1C(O)CC1C#C	OC[C@H]1[C@@H](O)C[C@H]1C#C	
InChI=1S/C7H10O2/c1-2-5-3-7(9)6(5)4-8/h1,5-9H,3-4H2	InChI=1S/C7H10O2/c1-2-5-3-7(9)6(5)4-8/h1,5-9H,3-4H2/t5-,6-,7+/m1/s1
