22
gdb 113150	3.17767	0.77495	0.70555	0.9327	94.61	-0.2213	0.0531	0.2744	1754.8724	0.190796	-367.166064	-367.154899	-367.153955	-367.203808	39.308	
C	 0.2305113455	 1.5709931322	 0.0344893173	-0.37351
C	-0.2047456501	 0.1136894006	-0.1082372048	-0.113533
N	 0.5484404736	-0.5219134558	-1.1850106491	-0.09646
C	 1.7644147214	-1.2404745758	-0.8475911465	-0.280406
C	 0.5537885459	-1.9924716392	-1.328699682	 0.095592
C	-0.1966303426	-2.891730405	-0.3547419883	-0.460838
C	 0.5116009101	-2.4570685629	-2.6980567558	 0.013455
C	 0.4643923172	-2.8816087326	-3.8243487083	 0.140812
C	 0.4133154874	-3.373922137	-5.1934101186	-0.502746
H	 1.289084207	 1.6362804226	 0.3068966679	 0.117757
H	 0.0917509437	 2.1065180928	-0.9084766566	 0.128588
H	-0.3512241388	 2.0731679034	 0.8138299791	 0.109223
H	-0.0876822525	-0.3970241658	 0.861560852	 0.081292
H	-1.268170763	 0.0658833012	-0.3705889806	 0.105586
H	 2.6141660641	-1.0906140715	-1.5078267691	 0.115796
H	 2.0165024139	-1.3579559166	 0.2072840527	 0.101865
H	-0.079763479	-2.567297977	 0.6809877977	 0.1174
H	-1.2644818594	-2.9153621372	-0.5948230108	 0.128253
H	 0.1833273136	-3.9143212162	-0.4336141657	 0.13093
H	-0.5650211533	-3.8095584099	-5.4253747788	 0.145905
H	 0.5933824761	-2.5655791071	-5.9108381017	 0.149641
H	 1.1697253292	-4.1470383332	-5.3698104603	 0.1454
21.7859	63.4488	91.3552	100.5959	169.5965	205.2057	220.6027	263.9015	298.7747	316.0151	347.1855	398.5456	438.7048	533.4824	572.511	639.8167	754.4288	809.2206	831.1534	914.2136	937.969	999.8789	1052.6505	1053.711	1060.837	1070.5107	1092.0779	1103.0014	1120.0925	1177.9243	1201.1548	1283.7586	1309.4451	1363.8266	1385.0102	1406.5573	1413.6702	1416.1112	1478.2735	1479.1052	1482.9496	1487.8522	1489.6973	1498.1887	1501.6122	1514.2353	2369.4977	2963.942	3024.9545	3038.5118	3044.1866	3051.4441	3074.664	3083.7726	3086.5451	3106.783	3108.3378	3121.6598	3130.5015	3174.4434
CCN1CC1(C)C#CC	CCN1C[C@]1(C)C#CC	
InChI=1S/C8H13N/c1-4-6-8(3)7-9(8)5-2/h5,7H2,1-3H3	InChI=1S/C8H13N/c1-4-6-8(3)7-9(8)5-2/h5,7H2,1-3H3/t8-,9?/m0/s1
