17
gdb 28585	5.27985	0.92979	0.83603	2.754	78.74	-0.1818	0.0373	0.2191	1357.2664	0.137161	-418.011492	-418.003034	-418.00209	-418.045302	31.262	
N	 0.1276814728	 1.4186815037	-0.1248667377	-0.612507
C	-0.025131725	 0.0200474984	-0.0313468684	 0.275814
C	-1.1219555716	-0.8026390935	 0.1093053208	-0.208806
C	-0.6411977079	-2.1381761305	 0.2254896073	-0.222003
C	 0.7320545007	-2.0985597746	 0.1442277747	 0.308387
N	 1.094413737	-0.7751283798	-0.0137964934	-0.340979
C	 1.7374627917	-3.1735500902	 0.1975270156	-0.046307
C	 1.7648814748	-4.1955876814	 1.2638206515	-0.172455
O	 1.2674170272	-4.5037134418	-0.0374955132	-0.226586
H	 0.3123266627	 1.7250312771	-1.0764116123	 0.243553
H	-0.7128797557	 1.8884801885	 0.1882616656	 0.247315
H	-2.1528221177	-0.4820255056	 0.1003579924	 0.082937
H	-1.2293929922	-3.0381052568	 0.3143901782	 0.103761
H	 2.0324491368	-0.4122165425	 0.0080484346	 0.255312
H	 2.6884436515	-2.943511097	-0.2893636252	 0.083859
H	 2.7036714936	-4.6799316707	 1.533436276	 0.110843
H	 1.0140627912	-4.1450766831	 2.0504991336	 0.117863
41.7718	124.8433	146.0829	160.0829	263.413	335.3027	412.9825	453.0896	478.1961	642.1301	653.5186	675.7776	700.0099	771.5716	824.9503	833.8138	850.304	887.9145	980.654	1010.4496	1029.1382	1060.7684	1094.3652	1146.0229	1158.6084	1167.8324	1202.4541	1259.8804	1280.4176	1302.9405	1395.4077	1464.7328	1471.8306	1519.1914	1547.975	1630.0327	1658.14	3071.9077	3077.3441	3170.7328	3240.6046	3260.4257	3485.4676	3595.1895	3668.436
NC1=CC=C(N1)C1CO1	Nc1ccc([nH]1)[C@H]1CO1	
InChI=1S/C6H8N2O/c7-6-2-1-4(8-6)5-3-9-5/h1-2,5,8H,3,7H2	InChI=1S/C6H8N2O/c7-6-2-1-4(8-6)5-3-9-5/h1-2,5,8H,3,7H2/t5-/m1/s1
