15
gdb 42497	6.40061	0.63353	0.58065	3.8778	76.56	-0.2663	-0.0614	0.205	1790.0705	0.107244	-420.542019	-420.532096	-420.531151	-420.578199	33.874	
O	-0.1040238117	-0.1170823108	 0.0005143954	-0.25086
C	-0.0396384523	 1.0870082812	 0.0050963543	 0.229245
C	 1.2670488085	 1.8705851689	-0.0028232083	-0.155421
O	 2.3504069665	 0.9931116858	-0.0160913186	-0.225759
C	 3.5942142281	 1.6737327808	-0.0238742749	-0.206274
C	 4.6858020382	 0.7109937609	-0.0376128159	 0.28249
C	 5.6080837758	-0.0571447963	-0.0490178476	-0.405353
C	-1.2221671986	 1.9360800883	 0.018903658	 0.247319
C	-2.1924112233	 2.6481484588	 0.0304594497	-0.426094
H	 1.2564057562	 2.5395281713	-0.8832163895	 0.120779
H	 1.2717242728	 2.5317207543	 0.8835108837	 0.12078
H	 3.666116976	 2.3316367037	-0.9067534498	 0.122719
H	 3.6814810864	 2.3237986982	 0.8634147642	 0.12272
H	 6.4167078928	-0.7456476108	-0.0590831769	 0.20455
H	-3.0602348354	 3.2624030057	 0.0407240262	 0.219159
36.8655	79.5381	83.5423	121.4733	144.8236	239.4201	249.9357	332.8609	333.342	427.6263	580.3354	582.2474	606.8982	614.0002	663.3053	682.5107	709.0794	846.7059	988.3028	1004.9206	1031.6306	1040.4353	1104.7337	1185.4216	1243.1078	1260.1801	1375.4688	1429.7995	1478.8782	1506.4133	1796.178	2212.9732	2251.2466	2938.0289	2956.8149	2959.8922	2976.2118	3493.6115	3506.0878
O=C(COCC#C)C#C	O=C(COCC#C)C#C	
InChI=1S/C7H6O2/c1-3-5-9-6-7(8)4-2/h1-2H,5-6H2	InChI=1S/C7H6O2/c1-3-5-9-6-7(8)4-2/h1-2H,5-6H2
