19
gdb 104695	2.6884	1.34032	1.10441	2.4047	70.85	-0.2441	0.0574	0.3015	1147.7983	0.159267	-460.100076	-460.091432	-460.090488	-460.133375	32.921	
O	 0.1748069131	 1.2968040086	 0.1905929759	-0.419684
C	 0.0404028683	-0.0539474978	-0.2750216314	-0.159289
C	-1.3789120113	-0.5607348051	-0.1240343806	 0.230439
C	-2.42022262	 0.237933895	-0.8988860153	-0.117691
O	-2.5716320991	 1.5596905091	-0.4198829542	-0.433225
C	-1.716118384	-2.0412024112	 0.011603642	-0.198339
C	-0.7049995139	-2.7560216334	 0.9029346329	-0.114086
O	-0.830218672	-1.7373168457	 1.9334400782	-0.294593
C	-1.8747631029	-1.1015975289	 1.1871735318	 0.060711
H	 0.0603012867	 1.2767684906	 1.1476596343	 0.297452
H	 0.3185450624	-0.0227812856	-1.3338038489	 0.115779
H	 0.7540813871	-0.7010975059	 0.2439924781	 0.113873
H	-2.150371326	 0.225144608	-1.9691044468	 0.086607
H	-3.4022917198	-0.2422817879	-0.8124133759	 0.097635
H	-1.6754982535	 1.9094055002	-0.3119070826	 0.285782
H	-2.459207188	-2.5247430324	-0.6089503956	 0.103511
H	-1.0767876912	-3.7168937958	 1.2752576856	 0.117023
H	 0.325223493	-2.874278722	 0.5486673413	 0.109775
H	-2.7364682388	-0.7280225099	 1.7282789013	 0.118321
89.9275	107.4403	185.9695	233.2345	249.0377	316.5099	337.9808	375.7559	411.2052	509.1827	554.9946	624.132	746.6843	809.5404	830.6384	913.1377	928.5236	953.7354	956.3461	996.8061	1021.353	1030.415	1035.8617	1066.6994	1074.0679	1102.2765	1156.1699	1164.1158	1217.5268	1243.2435	1251.0947	1314.398	1335.2498	1373.5479	1393.5799	1415.1529	1431.6494	1474.352	1489.9304	1510.5429	1522.6736	2952.9491	3029.8966	3047.6791	3048.9964	3076.9764	3092.7499	3181.355	3198.7064	3722.4711	3803.7091
OCC1(CO)C2COC12	OCC1(CO)[C@H]2CO[C@@H]12	
InChI=1S/C6H10O3/c7-2-6(3-8)4-1-9-5(4)6/h4-5,7-8H,1-3H2	InChI=1S/C6H10O3/c7-2-6(3-8)4-1-9-5(4)6/h4-5,7-8H,1-3H2/t4-,5+/m0/s1
