15
gdb 57237	2.89624	0.80209	0.73414	3.0199	79.71	-0.2726	-0.0697	0.2029	1554.6707	0.107411	-420.556731	-420.546486	-420.545542	-420.593076	35.369	
C	 0.0756486238	 1.5206061874	 0.086927572	-0.389912
C	-0.0110514334	-0.0151454563	 0.0077626595	-0.042261
O	 0.6831843798	-0.4976262448	 1.1552875924	-0.411813
C	-1.4162770525	-0.4613110312	 0.0127994027	 0.34416
C	-2.5565987306	-0.8378518804	 0.0412577242	-0.476232
C	 0.6256993615	-0.5030508833	-1.2313023247	 0.196941
C	 1.1717078648	-0.9282019927	-2.221163969	-0.054239
C	 1.797985951	-1.408836978	-3.4275569914	 0.024657
O	 2.5788336016	-2.3308702758	-3.4704915589	-0.22512
H	 1.1261608518	 1.8186196625	 0.0865487619	 0.141883
H	-0.4358796112	 1.9770903054	-0.7617673909	 0.138238
H	-0.3934056805	 1.8489960792	 1.016432001	 0.143819
H	 0.6403124844	-1.4611110827	 1.1456753918	 0.294446
H	-3.5656481169	-1.1699902353	 0.0654031426	 0.21088
H	 1.5019351666	-0.8550275638	-4.3412844831	 0.104554
31.4461	81.5523	90.0312	171.8959	184.7611	217.3419	243.1754	295.7971	328.0195	371.5938	435.3394	479.5771	552.1925	590.1473	628.6339	651.9145	675.8418	722.5093	886.9481	944.6312	1020.5494	1025.1912	1076.4579	1163.0499	1216.0261	1360.5799	1399.2057	1420.9773	1478.9726	1486.2409	1769.2249	2235.6141	2323.6261	2924.083	3061.4859	3148.3323	3154.583	3498.4175	3802.0727
CC(O)(C#C)C#CC=O	C[C@@](O)(C#C)C#CC=O	
InChI=1S/C7H6O2/c1-3-7(2,9)5-4-6-8/h1,6,9H,2H3	InChI=1S/C7H6O2/c1-3-7(2,9)5-4-6-8/h1,6,9H,2H3/t7-/m1/s1
