14
gdb 50957	3.04077	0.90696	0.73759	4.0251	69.62	-0.2919	-0.0258	0.2661	1446.04	0.097521	-436.672919	-436.66348	-436.662536	-436.708811	31.796	
O	-0.0523636335	-0.0386081011	-1.3721129937	-0.247071
C	-0.0199032791	 0.9472537824	-0.7087835977	 0.177221
O	 1.1361008612	 1.6308141308	-0.4904023223	-0.179501
C	 1.0674682708	 2.8093244721	 0.3150198248	-0.040638
C	 2.3804302222	 2.8855728963	 1.1222279154	-0.358737
C	 2.3887186076	 4.0035056038	 2.0527687373	 0.279648
C	 2.365142344	 4.9296169286	 2.8165081012	-0.416079
C	 0.8707970082	 3.9898961101	-0.542546032	 0.295408
N	 0.7073171726	 4.9070991891	-1.2245465575	-0.299252
H	-0.8906607278	 1.4023553055	-0.2003478407	 0.098909
H	 0.221046563	 2.7470173902	 1.0103094434	 0.148711
H	 2.4829322562	 1.9329948576	 1.6533554449	 0.157874
H	 3.217241354	 2.9524646994	 0.4190313445	 0.169614
H	 2.3587853207	 5.7521436054	 3.4889586024	 0.213893
33.1706	67.2758	105.3438	131.6761	187.4777	234.4636	286.0552	345.6903	380.0106	447.3724	525.4018	585.6278	647.1395	680.4783	725.0221	825.1092	973.1852	1017.4743	1036.2642	1049.9854	1079.783	1150.4135	1209.9699	1308.5895	1347.6758	1368.9807	1434.3919	1471.94	1884.6287	2249.3148	2367.0407	2966.2468	3039.5137	3049.5198	3092.0666	3502.5158
O=COC(CC#C)C#N	O=CO[C@@H](CC#C)C#N	
InChI=1S/C6H5NO2/c1-2-3-6(4-7)9-5-8/h1,5-6H,3H2	InChI=1S/C6H5NO2/c1-2-3-6(4-7)9-5-8/h1,5-6H,3H2/t6-/m0/s1
