17
gdb 80920	2.90184	1.45044	1.26911	2.0283	68.81	-0.2533	0.062	0.3153	1040.6573	0.133696	-458.864166	-458.856055	-458.85511	-458.896485	31.396	
C	 0.0682540589	 1.4261636686	-0.0404068482	-0.52429
C	-0.0207711985	-0.0552173591	 0.1082731246	 0.213834
O	 0.6052101032	-0.9230498408	-0.9565968943	-0.376658
C	 0.0288488507	-1.8968870584	 0.0149884302	-0.141679
C	 0.6457304466	-1.0226107981	 1.1489877515	 0.17256
O	 2.0278718279	-0.9829994348	 1.2524088923	-0.456359
C	-1.2150718487	-1.0158836448	 0.0816904806	 0.538796
C	-2.5557084203	-1.0750374175	 0.6456900383	-0.307881
O	-2.3090215392	-0.9956767806	-0.7811015742	-0.27937
H	 1.113200388	 1.7494588968	-0.0142401803	 0.140026
H	-0.3794441038	 1.7454438127	-0.9856990962	 0.148817
H	-0.4623579628	 1.9180092179	 0.7810821424	 0.132083
H	 0.1440678423	-2.9565494281	-0.2064312779	 0.106513
H	 0.2126995422	-1.0844148514	 2.1498237904	 0.093891
H	 2.3435233492	-0.9463123259	 0.3365425944	 0.288242
H	-2.9635502374	-2.0237885789	 0.9898055929	 0.126813
H	-3.0052640584	-0.1860356677	 1.0847725335	 0.124662
148.3603	162.8299	179.3551	222.4878	262.3564	329.9453	350.878	482.9195	520.8246	593.2126	617.9076	642.0305	732.226	757.7244	771.446	847.8217	888.6769	912.4268	937.683	1022.8755	1073.567	1096.3488	1109.7497	1114.8352	1140.8566	1166.0517	1176.2458	1198.2132	1219.3115	1308.5812	1333.4593	1410.8107	1442.061	1473.5964	1479.2499	1485.8157	1563.8914	3041.6295	3089.5521	3097.7239	3113.6727	3121.9098	3143.0941	3177.6966	3723.8646
CC12OC(C1O)C21CO1	C[C@@]12O[C@@H]([C@H]1O)[C@]12CO1	
InChI=1S/C6H8O3/c1-5-3(7)4(9-5)6(5)2-8-6/h3-4,7H,2H2,1H3	InChI=1S/C6H8O3/c1-5-3(7)4(9-5)6(5)2-8-6/h3-4,7H,2H2,1H3/t3-,4+,5-,6+/m1/s1
