14
gdb 35661	4.17131	0.958	0.82886	4.1685	75.31	-0.2627	-0.0683	0.1945	1300.3342	0.102364	-395.749741	-395.741707	-395.740762	-395.783236	28.474	
N	-0.0182401299	-1.1702702295	-0.0718386922	-0.312567
C	-0.0190165764	-0.0153404416	-0.0610205738	 0.29536
C	-0.0250063955	 1.4641459068	-0.0814519448	-0.162121
N	-0.6279510757	 2.0284504122	 1.129983216	-0.310076
C	 0.2094551949	 3.1122306411	 1.658859713	-0.256514
C	 1.4959713013	 2.9579990314	 0.8774583655	 0.206058
C	 1.3726297275	 2.0412641684	-0.0845704351	-0.164877
C	 2.6551226995	 3.7289809438	 1.1590846485	 0.217703
N	 3.5803557075	 4.3779502464	 1.4103978812	-0.317383
H	-0.5483671491	 1.7569148954	-1.0082795026	 0.134986
H	-1.5916928292	 2.2961301193	 0.9949104417	 0.243509
H	-0.2199689898	 4.1131297726	 1.5005151766	 0.127587
H	 0.3792001976	 3.0012134137	 2.7375811704	 0.143586
H	 2.1337049573	 1.7334969099	-0.7877413344	 0.154751
52.905	107.3933	148.5094	198.0289	246.2235	379.4765	469.9731	517.3943	540.4833	560.4843	566.9866	615.5093	815.4258	869.6595	914.5627	916.8682	988.5095	1020.6795	1046.26	1117.8518	1185.6809	1204.7004	1256.8096	1287.6526	1339.3001	1376.1633	1448.0711	1520.7213	1692.5984	2347.3817	2360.9779	2948.6586	2990.6024	3032.6844	3244.2218	3603.0576
N#CC1NCC(=C1)C#N	N#C[C@H]1NCC(=C1)C#N	
InChI=1S/C6H5N3/c7-2-5-1-6(3-8)9-4-5/h1,6,9H,4H2	InChI=1S/C6H5N3/c7-2-5-1-6(3-8)9-4-5/h1,6,9H,4H2/t6-/m0/s1
