19
gdb 70430	2.81435	1.52896	1.30388	0.7447	74.83	-0.2348	0.0755	0.3102	1052.9487	0.158008	-422.976361	-422.967995	-422.967051	-423.009426	31.743	
C	 0.0058800811	 1.5201715806	-0.1196236503	-0.518513
C	 0.1646280971	 0.0406131593	-0.0239424742	 0.355109
O	-0.8099865358	-0.7455590755	 0.6826690926	-0.294732
C	 0.5740902028	-0.876416103	 1.0546014249	-0.046072
C	 1.2010277809	-1.8663364372	 0.0683645187	-0.32916
C	 0.7375286979	-0.9230133779	-1.0884555983	 0.411662
C	-0.066658542	-1.3523960188	-2.3263607767	-0.352408
C	 1.0808862055	-0.7002138885	-3.121226834	-0.077963
O	 1.7960053456	-0.3839609911	-1.9033564082	-0.322743
H	 0.9246670544	 1.9670876515	-0.5099723328	 0.141887
H	-0.8139523023	 1.7825033605	-0.7984208016	 0.126935
H	-0.2148001523	 1.9504037874	 0.8607772212	 0.132731
H	 0.8266218101	-0.6774738255	 2.0900084713	 0.102928
H	 2.2932397267	-1.8884466507	 0.1077944656	 0.1202
H	 0.798813779	-2.8825253151	 0.0872490666	 0.105647
H	-0.1632420999	-2.4316975112	-2.4539294626	 0.115623
H	-1.0506508752	-0.8913375841	-2.4260528719	 0.118075
H	 1.6618115368	-1.3659791048	-3.7692237019	 0.106408
H	 0.8183364095	 0.2039981341	-3.6830435586	 0.104385
77.0459	117.4027	183.7195	194.4946	222.5171	322.978	420.7787	446.4354	470.5791	553.9294	653.7542	761.6858	779.3857	853.8496	864.1403	871.4406	911.4725	929.1143	969.0265	975.9698	1017.7035	1041.8419	1087.193	1105.9103	1127.1887	1157.9427	1165.9486	1205.4651	1207.0998	1216.1743	1258.3421	1266.1986	1313.3525	1353.2183	1398.1146	1451.0302	1472.919	1483.4213	1487.6538	1496.0752	1530.4665	3023.3466	3034.9226	3060.16	3065.6005	3081.8232	3100.2084	3123.0515	3126.7353	3135.415	3183.2579
CC12OC1CC21CCO1	C[C@]12O[C@H]1C[C@]12CCO1	
InChI=1S/C7H10O2/c1-6-5(9-6)4-7(6)2-3-8-7/h5H,2-4H2,1H3	InChI=1S/C7H10O2/c1-6-5(9-6)4-7(6)2-3-8-7/h5H,2-4H2,1H3/t5-,6-,7-/m0/s1
