21
gdb 31606	2.7562	1.21641	0.9128	3.3517	87.23	-0.2027	0.0376	0.2403	1365.6715	0.182478	-383.328156	-383.31811	-383.317166	-383.363695	35.729	
C	 0.1163403034	 1.5584193835	 0.1138056539	-0.375004
C	-0.0433264356	 0.0393111535	-0.077712065	-0.295171
C	 0.670485381	-0.4932730845	-1.2806835943	 0.322944
N	 0.0932088986	-0.7505679453	-2.4375961636	-0.357847
C	 1.0924738798	-1.1831836192	-3.2821629903	 0.271638
C	 0.8097593761	-1.5795682294	-4.6949228966	-0.488081
C	 2.288377758	-1.185078971	-2.6153496874	-0.21743
N	 2.0173050666	-0.7467778644	-1.3321412411	-0.023786
C	 3.0042424493	-0.5539095008	-0.289705063	-0.342186
H	 1.1623528287	 1.8385255322	 0.2764807412	 0.111552
H	-0.2391685632	 2.0934351339	-0.7712768429	 0.135336
H	-0.45991955	 1.9028451051	 0.9782065525	 0.114261
H	 0.283628618	-0.4835455101	 0.8300096773	 0.100803
H	-1.1002276237	-0.2023768567	-0.2162315761	 0.133062
H	 0.3739445272	-0.7474121544	-5.2588097051	 0.128905
H	 1.7231425742	-1.896272961	-5.2063065371	 0.111893
H	 0.0908873509	-2.4052545335	-4.7373215776	 0.129285
H	 3.2872742263	-1.4589399136	-2.9150308935	 0.114562
H	 3.5013541144	 0.4193117914	-0.3745878114	 0.139428
H	 2.5288833325	-0.6158684405	 0.6906769759	 0.144545
H	 3.7630317674	-1.3381862452	-0.3514427558	 0.141292
60.1366	75.7416	111.2275	135.3865	166.6202	207.7078	261.9618	274.1242	311.3973	397.9875	470.6791	595.7489	635.5127	661.4484	716.0387	742.1716	761.9312	810.5895	972.7717	997.2457	1026.048	1063.9006	1068.8146	1074.0748	1088.3089	1147.9358	1191.5451	1217.6787	1287.114	1327.885	1348.8098	1379.4518	1406.2116	1416.2683	1442.0707	1472.6478	1476.1597	1484.891	1490.1905	1497.4558	1499.0554	1504.5441	1516.5118	1549.3176	1611.6113	3027.8177	3031.1121	3032.713	3037.1021	3084.2604	3092.1993	3099.9593	3109.5006	3111.8914	3119.9275	3137.8479	3259.4497
CCC1=NC(C)=CN1C	CCc1nc(C)cn1C	
InChI=1S/C7H12N2/c1-4-7-8-6(2)5-9(7)3/h5H,4H2,1-3H3	InChI=1S/C7H12N2/c1-4-7-8-6(2)5-9(7)3/h5H,4H2,1-3H3
