13
gdb 127212	3.49347	1.37812	0.99449	5.6129	68.52	-0.254	-0.0565	0.1975	1090.3293	0.088139	-452.730988	-452.722843	-452.721899	-452.764156	28.749	
C	-0.0255534899	 1.4294844938	 0.0639730703	-0.35221
N	-0.0027029726	-0.0198076084	 0.0444764808	-0.202217
C	-0.0144842251	-0.7777174908	-1.1169582725	 0.485786
O	-0.0441065729	-0.4157038886	-2.2585024794	-0.39721
O	 0.0155554676	-2.0818055821	-0.6881229398	-0.22357
N	 0.0457025121	-2.1399441912	 0.716333665	-0.181144
C	 0.0335140708	-0.8970402367	 1.102844716	 0.275943
C	 0.0550154484	-0.4892168962	 2.4556009104	 0.270159
C	 0.0724186606	-0.1048006174	 3.5941972526	-0.38546
H	 0.870795459	 1.8262129275	 0.5476450041	 0.153891
H	-0.0546430795	 1.7561149503	-0.9765641873	 0.181216
H	-0.9111069089	 1.7973958153	 0.5885345279	 0.153905
H	 0.0881900504	 0.2192978843	 4.606558222	 0.220913
83.4846	116.0151	134.7234	183.705	270.65	284.626	432.3675	459.3738	550.7231	625.9707	644.9059	702.6714	704.9794	712.8681	767.6877	791.9716	924.7989	1003.938	1120.2028	1161.3561	1206.2506	1337.0968	1425.1916	1488.3971	1491.5994	1509.303	1588.0088	1891.1764	2250.2633	3052.1672	3121.067	3156.4674	3494.7183
CN1C(=O)ON=C1C#C	Cn1c(=O)onc1C#C	
InChI=1S/C5H4N2O2/c1-3-4-6-9-5(8)7(4)2/h1H,2H3	InChI=1S/C5H4N2O2/c1-3-4-6-9-5(8)7(4)2/h1H,2H3
