14
gdb 21596	3.52518	2.26699	1.38114	3.4055	72.12	-0.1826	-0.0196	0.163	832.214	0.110792	-374.91132	-374.904632	-374.903687	-374.941774	26.418	
N	 0.0521440044	 1.3798812659	 0.0153902294	-0.588551
C	-0.0083868226	 0.0082122503	 0.0231142793	 0.2867
C	-1.1487049378	-0.7364108288	 0.0609259104	-0.091981
N	-1.0830448399	-2.1085396818	 0.120595556	-0.216987
N	 0.0424464747	-2.8137293427	 0.1451763756	-0.193148
C	 1.1569811844	-2.1332151626	 0.1029927694	-0.070344
C	 1.2777782143	-0.6903641735	 0.0307242213	 0.239594
N	 2.3611754516	 0.016513441	-0.0367624355	-0.587398
H	 0.9778387848	 1.7113113602	-0.2307210146	 0.271435
H	-0.720304448	 1.8901119672	-0.3809788069	 0.244622
H	-2.1461051172	-0.3146490344	 0.053804073	 0.115728
H	-1.923506924	-2.6602766246	 0.1505992528	 0.275411
H	 2.0625925937	-2.7335522273	 0.1168126088	 0.111003
H	 3.1884529716	-0.580796429	-0.0342378389	 0.203916
143.628	290.6891	323.3962	390.763	401.762	444.0561	458.711	538.106	590.4432	611.7157	621.6081	772.1696	774.9448	810.8048	827.8489	912.0423	929.68	1019.8518	1112.3029	1133.8641	1251.2985	1313.6188	1358.299	1394.6807	1454.3502	1522.9214	1581.9015	1604.0951	1649.7191	1686.1026	3168.5487	3206.0936	3464.7714	3529.7069	3661.4506	3676.0665
NC1=CNN=CC1=N	Nc1c[nH]ncc1[NH]	
InChI=1S/C4H6N4/c5-3-1-7-8-2-4(3)6/h1-2H,(H2,6,7)(H2,5,8)	InChI=1S/C4H11N4/c5-3-1-7-8-2-4(3)6/h3-5,7-8H,1-2,6H2
