17
gdb 28122	4.95714	1.21774	0.98759	1.4045	85.32	-0.1642	0.0083	0.1725	1165.4324	0.138845	-380.908807	-380.901146	-380.900202	-380.940766	30.114	
N	 0.1596229067	 1.3974835794	-0.0810573343	-0.610599
C	-0.013025543	-0.0038072602	-0.0414458528	 0.285645
C	-1.1317956861	-0.8195489831	-0.1256227275	-0.412792
C	-0.6596618322	-2.1558563501	-0.0859809873	 0.306631
C	 0.7157800223	-2.1141821189	 0.0279891873	 0.297409
N	 1.1120509895	-0.80364885	 0.0534657294	-0.40613
C	 1.2770324005	-3.4487644103	 0.097916479	-0.200803
C	 0.2524952188	-4.3269044714	 0.0205248232	-0.089596
C	-1.0803547671	-3.5993018225	-0.1043779558	-0.416143
H	-0.5944759838	 1.8360210943	-0.5958497341	 0.245057
H	 0.1733665591	 1.8122224869	 0.8472710098	 0.241535
H	-2.1503124823	-0.4657589505	-0.1900737534	 0.081133
H	 2.0486330935	-0.4383484438	 0.0399426227	 0.25545
H	 2.3268041955	-3.6965209524	 0.1911286923	 0.089838
H	 0.336516074	-5.4051606262	 0.0392733439	 0.090453
H	-1.7560291673	-3.8677912546	 0.7191544666	 0.120935
H	-1.6007166981	-3.8849951467	-1.028794289	 0.121978
98.3269	140.7472	265.8264	270.1623	304.4942	422.7463	468.1549	500.6619	553.5258	633.5844	666.8361	720.5123	721.6766	773.7332	782.1772	823.5037	879.6121	916.1463	928.5468	933.448	1012.3396	1079.1686	1129.1904	1146.0786	1156.933	1179.1562	1224.1075	1258.6219	1335.7476	1396.2165	1431.5703	1460.7119	1482.3851	1531.6299	1580.2823	1609.9696	1653.7737	3019.6603	3044.3425	3204.6973	3230.5669	3234.4417	3478.6629	3585.2307	3676.148
NC1=CC2=C(N1)C=CC2	Nc1cc2c([nH]1)C=CC2	
InChI=1S/C7H8N2/c8-7-4-5-2-1-3-6(5)9-7/h1,3-4,9H,2,8H2	InChI=1S/C7H8N2/c8-7-4-5-2-1-3-6(5)9-7/h1,3-4,9H,2,8H2
