21
gdb 72407	3.09313	1.49001	1.36843	2.3022	77.42	-0.242	0.0778	0.3198	1061.3628	0.183022	-424.252618	-424.244364	-424.24342	-424.284664	33.263	
C	-0.0628685328	 1.4805401678	-0.0478632566	-0.491776
C	 0.0134527809	-0.0323919708	 0.0170431227	 0.222328
C	 0.7809825052	-0.7145404958	-1.1370063948	-0.096031
O	 1.0143935927	-2.0502567447	-0.6606065695	-0.29696
C	 0.4323073843	-2.1053250319	 0.6421691957	 0.489311
C	 0.8786407409	-3.35731959	 1.3494809173	-0.467317
C	 0.7282678609	-0.7094549034	 1.2071369433	-0.306333
O	-0.9899209303	-2.1008970998	 0.5144934454	-0.296954
C	-1.3417950442	-0.7681982467	 0.1074654591	-0.096031
H	 0.9370828013	 1.9259272883	-0.0740183958	 0.121202
H	-0.5975379528	 1.8137587986	-0.9449242605	 0.120223
H	-0.5896508024	 1.8873200006	 0.8216113453	 0.121205
H	 0.2018473006	-0.7450399833	-2.0684128818	 0.099714
H	 1.7415258331	-0.2205961939	-1.3391426942	 0.092293
H	 1.9667767601	-3.3693431302	 1.4424499623	 0.125304
H	 0.4289035931	-3.4085646057	 2.3434306979	 0.125313
H	 0.5652653634	-4.2333770606	 0.7764393979	 0.138689
H	 1.7966427034	-0.4875355466	 1.2644581376	 0.101905
H	 0.2488576973	-0.5266406352	 2.1718664548	 0.101906
H	-2.0051972587	-0.3152726584	 0.8572881502	 0.092297
H	-1.870487666	-0.7974578383	-0.8535114863	 0.099714
184.1181	191.6241	208.3414	225.9273	260.6448	318.2108	364.3885	419.2108	489.5623	520.4044	582.1563	593.5392	651.1714	799.2072	838.8454	840.469	901.5596	915.9846	927.6558	961.6593	977.3626	1025.7912	1030.1655	1058.5104	1065.6616	1140.9923	1178.9105	1186.0267	1190.8511	1195.8985	1256.9771	1273.6637	1281.3961	1343.5194	1356.9424	1400.1142	1416.5592	1423.7082	1479.5796	1485.9623	1488.6235	1493.9902	1496.8877	1519.1851	1537.9776	2999.4127	3003.1493	3027.9537	3042.6617	3049.3765	3058.2227	3065.4062	3090.5605	3100.617	3123.2767	3135.932	3140.7522
CC12COC(C)(C1)OC2	C[C@@]12CO[C@@](C)(C1)OC2	
InChI=1S/C7H12O2/c1-6-3-7(2,8-4-6)9-5-6/h3-5H2,1-2H3	InChI=1S/C7H12O2/c1-6-3-7(2,8-4-6)9-5-6/h3-5H2,1-2H3/t6-,7+
