20
gdb 108111	3.40506	1.37966	1.34674	2.2293	76.9	-0.2407	0.0843	0.325	1047.4977	0.174522	-403.14633	-403.139027	-403.138083	-403.178128	29.836	
O	-0.0096460921	 1.3058941534	 0.4313764845	-0.420903
C	-0.0154397547	 0.0150178657	-0.1591798048	-0.171489
C	-1.4068676094	-0.5499230982	-0.2236834106	 0.329138
C	-2.5013610303	 0.0191482997	-1.1240161278	-0.279387
C	-3.6603844192	-0.8213112172	-0.5468066093	-0.061108
C	-3.0902045411	-2.2547002218	-0.6436909342	-0.237596
C	-1.7807357229	-1.9608184614	 0.0805333941	-0.088372
N	-2.0190181206	-0.8967436905	 1.0952586553	-0.1744
C	-3.4579401012	-0.5558111622	 0.9564764223	-0.155093
H	-0.4206905501	 1.1965710361	 1.2972592671	 0.289462
H	 0.3992371787	 0.1357757013	-1.1659918788	 0.105876
H	 0.6380099245	-0.6785812856	 0.3909527202	 0.089883
H	-2.633254403	 1.0965149822	-0.9890849264	 0.110406
H	-2.3112996956	-0.1818522366	-2.1834901868	 0.097649
H	-4.6541048897	-0.6537054174	-0.9588114598	 0.069494
H	-3.7066204667	-2.998391151	-0.1287209665	 0.102126
H	-2.9306676145	-2.585753772	-1.6746888372	 0.101956
H	-1.0602681843	-2.7292795638	 0.3348473033	 0.088396
H	-3.6243583875	 0.4867454045	 1.2439320965	 0.101743
H	-4.0598826303	-1.2015204952	 1.6033199391	 0.10222
77.1306	149.821	295.977	339.3366	425.7997	431.1242	454.9153	509.1568	632.1217	675.2577	722.1411	817.3021	840.5011	886.2697	911.771	923.1719	925.119	939.9558	954.2456	974.3098	986.5765	1039.3694	1062.0733	1076.6472	1085.3407	1141.9339	1154.1025	1171.818	1198.2812	1218.2308	1248.5539	1268.1715	1278.7728	1300.8624	1306.4986	1339.2356	1380.6546	1413.5877	1438.0711	1486.7653	1493.1557	1498.186	1519.2718	2991.1679	3048.3473	3049.3151	3054.3285	3069.9724	3093.9558	3098.5728	3101.7367	3134.3305	3182.9589	3789.9945
OCC12CC3CC1N2C3	OC[C@@]12C[C@H]3C[C@@H]1N2C3	
InChI=1S/C7H11NO/c9-4-7-2-5-1-6(7)8(7)3-5/h5-6,9H,1-4H2	InChI=1S/C7H11NO/c9-4-7-2-5-1-6(7)8(7)3-5/h5-6,9H,1-4H2/t5-,6+,7+,8?/m1/s1
