20
gdb 71401	3.60058	1.37662	1.31839	1.523	83.55	-0.2326	0.0925	0.3252	1076.7545	0.171095	-365.936329	-365.928594	-365.927649	-365.968009	31.609	
C	 0.0384858583	 1.4662435881	 0.0489648094	-0.499628
C	-0.0348350972	-0.0271525209	 0.0332771224	 0.34507
C	-1.2629421849	-0.9133805547	-0.2052715103	-0.285478
C	-0.357174793	-2.0998325725	 0.2266871467	-0.186214
C	 0.5843299259	-1.0404671439	 0.9221400829	-0.099175
N	 1.2029154537	-0.7819110897	-0.4168773823	-0.22762
C	 0.6915227068	-2.0961361462	-0.8740931876	 0.45692
C	 1.6375143074	-3.1697639192	-1.2833212902	-0.35637
C	 0.6684654241	-2.5601703011	-2.2911417537	-0.343213
H	 1.0345935875	 1.7985483935	 0.3533704403	 0.132796
H	-0.1633209078	 1.8772978643	-0.9466451012	 0.12378
H	-0.6966601518	 1.8872763916	 0.7434926109	 0.116478
H	-2.0389552389	-0.6952168663	 0.5340555265	 0.098848
H	-1.7012819042	-0.9554423889	-1.2085057931	 0.094529
H	-0.771471022	-3.0129079166	 0.6504809266	 0.072683
H	 1.125116319	-0.9946919734	 1.8587642633	 0.094407
H	 2.685729301	-2.9047890673	-1.3707853328	 0.122517
H	 1.4510923361	-4.1839617203	-0.9448112226	 0.110419
H	-0.1682790111	-3.1635003673	-2.6296919945	 0.109736
H	 1.0814800513	-1.896415249	-3.0432855905	 0.119515
144.6575	193.8038	216.5256	234.0562	315.3291	346.439	450.9968	487.5909	600.0116	632.322	712.2866	763.2445	786.5659	814.6484	873.2737	891.2208	908.8186	932.0546	938.917	971.1277	985.1123	999.2198	1015.2985	1027.8834	1045.0999	1073.6688	1094.6264	1137.62	1152.5446	1160.7295	1184.9261	1210.2897	1221.6064	1262.3604	1279.2344	1393.5203	1394.2077	1432.9133	1453.2719	1484.7879	1490.5615	1495.3192	1510.3943	3030.439	3038.4458	3090.7296	3097.9347	3116.8663	3125.0552	3128.3683	3130.893	3196.1984	3206.9515	3220.9031
CC12CC3C1N2C31CC1	C[C@]12C[C@@H]3[C@H]1N2C13CC1	
InChI=1S/C8H11N/c1-7-4-5-6(7)9(7)8(5)2-3-8/h5-6H,2-4H2,1H3	InChI=1S/C8H11N/c1-7-4-5-6(7)9(7)8(5)2-3-8/h5-6H,2-4H2,1H3/t5-,6-,7+,9?/m1/s1
