20
gdb 12238	3.11618	1.46042	1.15137	2.8173	75.35	-0.2355	-0.0145	0.221	1115.6576	0.175386	-349.024735	-349.015733	-349.014788	-349.058474	32.913	
C	 0.0398492074	 1.6844180359	-0.0293320521	-0.384639
C	-0.1391883524	 0.1640860555	-0.0874882078	-0.177383
C	 0.6965487301	-0.4929486127	-1.1861551297	-0.008791
C	 2.2239516492	-0.5831445161	-0.85641388	-0.353541
C	 2.0126066684	-2.0799231179	-0.5817124255	 0.391156
O	 2.626498914	-2.9108977409	 0.0240423752	-0.300396
C	 0.6281048311	-2.0659175653	-1.2471588694	-0.102321
C	-0.5001490606	-2.8685265199	-0.613535623	-0.413778
H	 1.0828824676	 1.9595188751	 0.1602965466	 0.119152
H	-0.2573710949	 2.1523845003	-0.9744324066	 0.115819
H	-0.5686986916	 2.124278263	 0.7666081024	 0.115548
H	 0.1225472217	-0.2722248518	 0.8861846683	 0.100186
H	-1.1984224653	-0.0705468966	-0.2498994313	 0.100374
H	 0.4780531835	-0.0143752023	-2.1449170692	 0.069393
H	 2.8757297596	-0.4156651168	-1.7197827671	 0.126418
H	 2.6009379789	 0.0081397544	-0.0172945785	 0.124778
H	 0.7657591933	-2.3820128657	-2.290379557	 0.10144
H	-0.6719382371	-2.5747974844	 0.425663306	 0.124542
H	-1.4390155648	-2.7434879949	-1.1622534664	 0.117866
H	-0.245407108	-3.9325187192	-0.6168958748	 0.134175
59.1907	120.7931	164.9925	181.4271	196.609	227.6473	290.6468	389.1397	412.8038	488.2261	541.2709	691.5968	733.0253	772.2497	794.4231	875.1008	894.354	946.1429	994.7948	1018.7666	1040.7947	1061.2225	1114.1005	1117.4274	1159.625	1168.5118	1215.3155	1238.7707	1263.5906	1299.7135	1335.8354	1344.2982	1393.79	1404.8977	1413.9914	1440.861	1484.6981	1493.7661	1497.831	1499.3985	1506.9176	1885.7066	3013.542	3017.6927	3032.0821	3040.1712	3046.8194	3055.2795	3068.3351	3098.6739	3105.2376	3108.0734	3110.5072	3115.0842
CCC1CC(=O)C1C	CC[C@H]1CC(=O)[C@H]1C	
InChI=1S/C7H12O/c1-3-6-4-7(8)5(6)2/h5-6H,3-4H2,1-2H3	InChI=1S/C7H12O/c1-3-6-4-7(8)5(6)2/h5-6H,3-4H2,1-2H3/t5-,6-/m0/s1
