17
gdb 39756	3.33972	1.64472	1.46979	0.8975	70.68	-0.2371	0.086	0.3231	926.795	0.137164	-421.763839	-421.757246	-421.756302	-421.794683	27.026	
C	 0.0175286482	 1.5160569717	 0.0203766415	-0.277261
O	 1.1652404416	 0.6408942289	-0.0079995798	-0.295335
C	-0.1257342566	 0.0622007849	 0.0253396033	 0.511489
C	-0.5070308894	-0.9179191335	 1.1042147548	-0.21907
C	-1.8441121931	-1.5464307519	 0.7252777431	 0.11113
O	-2.7232446886	-0.8468286618	-0.1272246096	-0.27102
C	-2.056914908	-0.7110586259	-1.3911357992	-0.081784
C	-0.5786149305	-0.9283715567	-1.0676932763	-0.19202
C	-0.6239637499	-2.0303503875	 0.0386658357	-0.124609
H	-0.1141889737	 2.0780941519	 0.9437831421	 0.116768
H	-0.1527206566	 2.0826013488	-0.8946079248	 0.112389
H	-0.0991708043	-0.9605533681	 2.1073494824	 0.096359
H	-2.3541209334	-2.1374823788	 1.4763788143	 0.11074
H	-2.431057332	-1.4624316579	-2.1021728027	 0.097711
H	-2.271872962	 0.2874899542	-1.784721838	 0.111356
H	 0.0922188819	-1.0448133158	-1.9172484954	 0.0939
H	-0.2264962937	-3.0349235427	 0.0038866485	 0.099255
127.5484	232.0867	288.3341	338.4076	412.6413	542.9082	584.6095	681.8738	742.2039	762.1069	793.9961	851.8681	871.4501	878.2158	909.7281	930.3727	965.7667	976.2984	993.513	1034.3554	1051.6956	1062.4647	1093.4324	1116.4798	1119.8986	1154.16	1172.9491	1186.1008	1232.6335	1251.7756	1256.9119	1284.554	1350.7546	1405.831	1450.9209	1511.4723	1539.5393	2995.539	3077.3567	3080.6131	3139.0329	3166.5724	3182.9754	3193.2593	3213.0426
C1OC11C2C3OCC1C23	C1O[C@]21[C@H]1[C@H]3OC[C@@H]2[C@@H]13	
InChI=1S/C7H8O2/c1-3-4-5(6(4)8-1)7(3)2-9-7/h3-6H,1-2H2	InChI=1S/C7H8O2/c1-3-4-5(6(4)8-1)7(3)2-9-7/h3-6H,1-2H2/t3-,4+,5-,6+,7+/m1/s1
