20
gdb 80292	2.4145	1.48827	1.22525	3.6903	79.06	-0.2335	0.0309	0.2644	1123.4952	0.171321	-403.192359	-403.183545	-403.1826	-403.225492	33.931	
C	-0.0737422278	 1.5615327878	-0.002890833	-0.434137
C	 0.038929449	 0.0553102737	 0.0648535977	-0.063851
C	 1.326650812	-0.7037879854	-0.2093828308	-0.068267
N	 2.5662252876	 0.0078345187	-0.1180861483	-0.297013
C	 2.8265802573	 0.5458057395	 1.1213411162	 0.395228
O	 3.7442713944	 1.2859990826	 1.3944585036	-0.376148
C	 1.7174333283	 0.0482797022	 2.0642276781	-0.415629
C	 0.730326268	-0.7115344764	 1.1850471822	 0.309039
C	 0.0662760648	-1.9399456981	 1.7624892142	-0.480333
H	 0.8557814813	 2.0659776766	 0.2718164711	 0.138158
H	-0.3332804291	 1.8834922329	-1.0172347288	 0.120341
H	-0.8579085811	 1.9251298225	 0.670050828	 0.122804
H	-0.8433204462	-0.463125914	-0.305891751	 0.084527
H	 1.326307851	-1.5874919801	-0.8392986205	 0.097038
H	 3.0647736074	 0.3564901214	-0.9222404638	 0.250072
H	 2.1601006033	-0.6054479909	 2.8236680556	 0.128096
H	 1.2900433328	 0.9056858346	 2.5926010862	 0.132183
H	-0.6176969207	-1.6741768124	 2.5770012174	 0.122467
H	-0.5163066962	-2.4719522831	 1.0035781744	 0.115738
H	 0.807496164	-2.639256592	 2.1666054816	 0.119687
92.2668	150.8937	197.9436	202.4116	224.6801	272.1829	312.046	442.3884	480.4926	483.4365	563.3673	569.3602	602.6607	692.2489	742.6297	797.4321	860.1689	875.8095	954.1645	965.9374	973.6429	1033.1619	1063.6371	1107.3366	1115.5637	1126.2189	1150.1881	1186.7604	1226.6944	1249.3912	1311.7807	1316.7165	1368.34	1404.2071	1419.222	1423.4441	1449.1022	1470.2472	1490.2219	1495.6465	1499.4621	1504.705	1828.5866	3021.9389	3035.0596	3052.4504	3082.5829	3090.8833	3092.5673	3097.2329	3113.776	3130.0046	3157.4164	3630.7224
CC1C2NC(=O)CC12C	C[C@H]1[C@H]2NC(=O)C[C@@]12C	
InChI=1S/C7H11NO/c1-4-6-7(4,2)3-5(9)8-6/h4,6H,3H2,1-2H3,(H,8,9)	InChI=1S/C7H11NO/c1-4-6-7(4,2)3-5(9)8-6/h4,6H,3H2,1-2H3,(H,8,9)/t4-,6+,7-/m0/s1
