19
gdb 115575	1.94451	1.57089	1.14115	1.6968	72.3	-0.2466	-0.0345	0.2121	1159.91	0.155548	-460.141827	-460.13181	-460.130866	-460.178313	34.739	
C	-0.6766198176	 1.2285734311	 0.5158837885	-0.255361
O	-0.2767022456	 0.1519938254	-0.3182932726	-0.229691
C	-1.2561343164	-0.8217389361	-0.4721289663	 0.043636
C	-0.9227458629	-1.9089009481	-1.5004887434	-0.115125
O	-1.1814458723	-2.9601744788	-0.5457802579	-0.324721
C	-1.2888866636	-2.0234439332	 0.553377072	 0.292785
C	-0.1147759087	-2.1041164099	 1.5170840969	-0.443903
C	-2.6191470019	-2.1754732872	 1.2630864498	 0.096267
O	-2.9531783988	-1.4958721287	 2.2011538146	-0.258582
H	 0.1791268889	 1.9007835753	 0.6019925172	 0.133756
H	-1.5228262238	 1.7755523466	 0.0751867009	 0.116278
H	-0.970221875	 0.8817097536	 1.514935534	 0.133423
H	-2.2458555115	-0.3659979158	-0.6123302512	 0.084727
H	-1.5718824452	-1.9790022842	-2.3791410059	 0.111853
H	 0.1269245774	-1.8813786201	-1.8163708491	 0.116547
H	 0.8042851539	-1.7686212681	 1.0329771531	 0.133394
H	-0.3058779732	-1.4799163458	 2.3939619004	 0.140106
H	 0.0135873946	-3.1391532749	 1.8474696324	 0.130803
H	-3.2824219782	-2.9513865712	 0.8198127567	 0.093805
18.4376	65.6142	113.5436	163.2048	190.465	224.8621	257.4853	267.3477	303.1454	374.7223	441.0904	514.5938	534.4013	718.0911	767.0867	883.1809	917.52	960.4778	978.7831	1017.5083	1045.222	1089.4629	1136.9364	1159.5563	1169.9974	1184.6476	1199.5491	1218.1426	1249.9103	1278.8206	1336.8024	1380.6306	1394.0781	1412.916	1479.4877	1485.4381	1491.2671	1491.366	1510.1428	1519.919	1818.1188	2891.7336	2994.7536	3007.0587	3030.2437	3050.1058	3056.8692	3084.772	3125.2424	3131.5966	3141.4117
COC1COC1(C)C=O	CO[C@H]1CO[C@]1(C)C=O	
InChI=1S/C6H10O3/c1-6(4-7)5(8-2)3-9-6/h4-5H,3H2,1-2H3	InChI=1S/C6H10O3/c1-6(4-7)5(8-2)3-9-6/h4-5H,3H2,1-2H3/t5-,6+/m0/s1
