18
gdb 92760	3.35709	1.09547	0.92679	15.1641	75.68	-0.1686	-0.0123	0.1563	1274.7604	0.149001	-439.056455	-439.047874	-439.046929	-439.09057	31.323	
C	 0.6052578935	 1.3674241533	-0.13821969	-0.357807
N	-0.0632219317	 0.0429882328	 0.0197731899	-0.082681
H	-1.070045452	 0.1932782187	 0.0633296151	 0.287415
C	 0.4079058865	-0.6869800514	 1.2813012605	-0.24409
C	 1.4533777896	-1.6186001243	 0.7428043255	-0.198213
C	 1.3888381817	-1.744307519	-0.5822464817	 0.250865
C	 0.2894664623	-0.9022940774	-1.1505456592	-0.294281
C	 2.2274574079	-2.5854898631	-1.5750571649	 0.28642
O	 3.1293596268	-3.261233564	-1.0717703523	-0.461859
O	 1.8196034206	-2.416358191	-2.7468564228	-0.48973
H	 1.6798148136	 1.188828983	-0.1897668385	 0.205423
H	 0.2589923447	 1.8316551856	-1.0620522198	 0.175978
H	 0.3646741256	 2.0009616067	 0.7167849396	 0.16327
H	 0.7546979006	 0.0594822432	 2.0031905599	 0.143597
H	-0.4665144263	-1.1915943981	 1.7133692368	 0.146314
H	 2.1615003302	-2.137295156	 1.374585379	 0.138943
H	-0.6078006238	-1.4736222913	-1.4063221601	 0.156072
H	 0.5919399403	-0.3195203477	-2.0197603371	 0.174365
49.5984	76.3322	162.0153	181.9031	258.4694	332.6907	372.8159	402.5874	430.7704	501.9068	717.1891	734.4246	752.5279	771.9775	833.4324	860.7462	904.2292	943.4712	987.7659	1017.2741	1038.7189	1075.9271	1106.791	1135.7245	1211.5563	1235.1088	1248.2683	1269.7705	1302.0472	1345.6359	1372.9142	1416.3635	1450.6244	1474.8697	1492.3553	1500.6752	1511.7443	1691.7339	1777.3057	3019.0064	3071.1026	3073.7541	3076.4902	3154.4761	3165.9565	3175.2998	3236.6478	3480.9237
C[NH+]1CC=C(C1)C([O-])=O	C[NH]1CC=C(C1)C(=O)[O]	
InChI=1S/C6H9NO2/c1-7-3-2-5(4-7)6(8)9/h2H,3-4H2,1H3,(H,8,9)	InChI=1S/C6H9NO2/c1-7-3-2-5(4-7)6(8)9/h2,7H,3-4H2,1H3
