13
gdb 8753	4.38355	1.44207	1.09249	3.1076	64.72	-0.2817	-0.0798	0.2019	997.5008	0.095271	-394.813266	-394.805128	-394.804184	-394.846225	27.604	
C	-0.045030912	 1.4906233449	 0.0246888864	-0.3478
N	-0.0046538104	 0.0282804028	 0.0035975078	-0.124325
C	-0.0949649386	-0.647860371	 1.2261771211	 0.093152
N	-0.20767633	 0.0104965152	 2.3045315668	-0.458925
C	 0.1165991396	-0.7254105099	-1.1429577801	 0.376971
O	 0.1521316726	-1.9354969134	-1.1847389668	-0.332663
C	 0.2071886516	 0.0462274059	-2.3963207774	 0.21851
N	 0.2842879263	 0.5701362007	-3.4235180229	-0.319272
H	 0.0345160182	 1.8730649423	-0.9914525747	 0.170129
H	-0.981364857	 1.8249702096	 0.4760493029	 0.162652
H	 0.7791477585	 1.8713537443	 0.6313338994	 0.162637
H	-0.0557290863	-1.7297080035	 1.1048345284	 0.156032
H	-0.2613267424	-0.623365988	 3.1000243192	 0.242901
74.6366	114.8241	163.2769	169.2743	283.4218	284.4473	340.8778	359.5425	494.149	521.9157	665.2139	758.363	777.7298	844.99	979.7066	1088.1445	1119.5365	1158.4058	1167.6024	1340.9903	1368.0206	1419.7479	1468.6861	1472.3555	1517.4239	1714.7036	1768.1845	2348.4862	3067.7438	3135.0822	3147.1593	3175.1533	3509.4321
CN(C=N)C(=O)C#N	CN(C=N)C(=O)C#N	
InChI=1S/C4H5N3O/c1-7(3-6)4(8)2-5/h3,6H,1H3	InChI=1S/C4H5N3O/c1-7(3-6)4(8)2-5/h3,6H,1H3
