17
gdb 53473	2.57803	0.96971	0.80405	1.7736	78.09	-0.2381	-0.0318	0.2063	1474.4766	0.132536	-421.789839	-421.779832	-421.778888	-421.827782	33.546	
C	 0.8755597382	 0.6446352441	 0.6653900379	-0.4967
C	 0.2504703373	-0.5278435026	 0.0714603062	 0.059974
C	-0.253045745	-1.5012034819	-0.426264726	 0.078352
C	-0.9100269791	-2.6689914865	-1.0020153184	-0.431387
C	-2.201165113	-2.9703183125	-0.2246424325	 0.357614
O	-3.2904303595	-2.6325621651	-0.6177332198	-0.298005
C	-2.0668831341	-3.7046011703	 1.0820575361	-0.008442
C	-1.460648557	-5.0525440813	 1.1176177881	-0.172124
O	-0.7622033996	-3.9206852035	 1.6126692681	-0.207594
H	 1.3557720596	 0.3982735081	 1.618642389	 0.151306
H	 1.6436166227	 1.061740212	 0.0047221936	 0.149319
H	 0.1399342788	 1.4334888248	 0.8569293163	 0.150223
H	-1.1954797244	-2.488823272	-2.0430439042	 0.146136
H	-0.2347987133	-3.5318452491	-0.9677484072	 0.139528
H	-2.8470192941	-3.4720829748	 1.8048525376	 0.122387
H	-1.8126810194	-5.7615183	 1.864745673	 0.133556
H	-1.0622828583	-5.4928901696	 0.2046189221	 0.125858
13.9667	36.7303	73.7692	96.5413	181.0736	221.9919	249.7346	285.6823	372.8507	432.2987	465.3812	500.2299	653.3107	759.03	811.049	883.1365	902.9427	915.1465	994.8933	1052.5592	1053.1978	1083.0704	1147.5266	1161.1899	1167.5041	1174.44	1256.2719	1271.6539	1303.0798	1389.898	1414.5548	1449.0144	1477.3555	1478.5756	1524.3852	1815.7857	2373.7084	3027.6126	3036.5025	3087.4575	3088.382	3089.0443	3090.025	3135.9926	3178.078	13.9411	36.7307	73.768	96.542	181.0734	221.9919	249.7348	285.6822	372.8525	432.2994	465.3816	500.23	653.3109	759.03	811.0489	883.1358	902.9424	915.1461	994.893	1052.56	1053.1986	1083.0701	1147.5261	1161.1896	1167.504	1174.4397	1256.2718	1271.6539	1303.0798	1389.8977	1414.5556	1449.0137	1477.3568	1478.577	1524.3845	1815.7875	2373.7086	3027.6126	3036.5026	3087.4573	3088.382	3089.0443	3090.0249	3135.9925	3178.0779
CC#CCC(=O)C1CO1	CC#CCC(=O)[C@H]1CO1	
InChI=1S/C7H8O2/c1-2-3-4-6(8)7-5-9-7/h7H,4-5H2,1H3	InChI=1S/C7H8O2/c1-2-3-4-6(8)7-5-9-7/h7H,4-5H2,1H3/t7-/m1/s1
