20
gdb 87592	3.29993	1.29257	1.18911	1.6147	85.38	-0.2204	0.0148	0.2352	1143.6221	0.172247	-365.987064	-365.979129	-365.978185	-366.019212	31.967	
C	-0.0760430904	 1.5264253113	-0.1420134779	-0.397108
C	 0.0011747106	 0.028281676	 0.032120406	-0.048152
N	 1.3273652927	-0.592381579	-0.1117008242	-0.394205
C	 0.6389844474	-0.6462991788	 1.2019162818	 0.329787
C	 1.2759252683	 0.0375201716	 2.3660940771	-0.145497
C	 1.2333294554	-0.7286443416	 3.4612979622	-0.091305
C	 0.5156582876	-2.0137032851	 3.2127934682	-0.090204
C	-0.9490716075	-1.8761869174	 2.8381463969	-0.284608
C	 0.098124944	-1.9493976823	 1.7539849189	-0.131842
H	 0.8170908434	 2.0133851203	 0.2562924016	 0.126457
H	-0.1502552894	 1.7859560684	-1.2038330938	 0.118488
H	-0.9546406883	 1.9364600099	 0.3677016147	 0.115366
H	-0.8440825878	-0.5146047173	-0.3918350473	 0.078432
H	 1.253929488	-1.4972877613	-0.57229705	 0.224429
H	 1.6988759012	 1.0314372561	 2.3005761673	 0.099688
H	 1.6311982393	-0.4577340288	 4.4324124464	 0.097144
H	 0.8521795166	-2.9299568546	 3.6850861874	 0.088408
H	-1.5832344351	-2.7479241455	 2.9653040835	 0.108109
H	-1.4350218285	-0.9260614919	 3.0344432946	 0.114546
H	 0.1211821823	-2.8290535798	 1.1190108068	 0.082068
118.8905	152.2198	194.7782	228.5535	344.1304	391.9062	399.2823	477.6628	531.1972	610.4639	722.0532	761.2911	780.1966	803.4852	823.5504	847.7799	890.0667	918.7623	944.9926	967.6962	993.6723	1025.5268	1040.184	1050.2471	1068.8992	1076.5717	1078.7102	1093.3526	1120.6397	1139.2685	1195.093	1233.0331	1275.3864	1298.872	1335.292	1360.6475	1398.1849	1409.8375	1460.7663	1478.4589	1488.7851	1500.7935	1653.9659	3034.2333	3093.9969	3096.5702	3123.1016	3127.5802	3157.3328	3170.4234	3195.6487	3213.4765	3225.9521	3484.0132
CC1NC11C=CC2CC12	C[C@H]1N[C@]21C=C[C@H]1C[C@@H]21	
InChI=1S/C8H11N/c1-5-8(9-5)3-2-6-4-7(6)8/h2-3,5-7,9H,4H2,1H3	InChI=1S/C8H11N/c1-5-8(9-5)3-2-6-4-7(6)8/h2-3,5-7,9H,4H2,1H3/t5-,6+,7-,8+/m1/s1
