19
gdb 36853	4.19227	0.97606	0.88679	3.0936	75.46	-0.2299	0.0765	0.3064	1331.373	0.158618	-422.952238	-422.943967	-422.943023	-422.986132	30.968	
C	-0.1264215532	 1.5990947048	 0.1353092677	-0.366474
C	-0.2001582315	 0.1074449128	 0.3802940567	 0.110203
C	-1.2478813087	-0.7348712302	-0.2066665626	-0.182788
O	 0.073138597	-0.7243462333	-0.7530194992	-0.235356
C	 1.2937347486	 2.065151589	-0.0271798267	 0.305488
C	 2.2074463752	 2.47711055	 1.1164605485	-0.3449
C	 1.9496853614	 3.4266438149	-0.0139301852	 0.037723
O	 2.7918648945	 3.1276581038	-1.1274695177	-0.288713
C	 2.1617716097	 1.8219187024	-1.2619796768	-0.120965
H	-0.7070691377	 1.8362473015	-0.7648868972	 0.106263
H	-0.5999957692	 2.124501976	 0.9744324415	 0.104198
H	 0.2758859717	-0.2375391734	 1.2998179242	 0.09626
H	-1.5427017437	-1.6602466121	 0.2860463171	 0.11587
H	-2.0151195421	-0.2780934709	-0.8309729791	 0.113809
H	 1.691259614	 2.7047313107	 2.045123151	 0.10947
H	 3.1971039046	 2.0426730189	 1.2317201468	 0.1158
H	 1.5630739761	 4.4356777054	 0.0790515113	 0.10297
H	 2.884688889	 0.9994274231	-1.2278563865	 0.11026
H	 1.5846361943	 1.7683055167	-2.1917599637	 0.110882
55.3624	62.792	127.6893	266.7693	288.853	351.0085	377.2393	450.0431	458.2979	699.9701	759.7555	784.9166	846.6915	869.9497	904.9812	916.5367	935.1186	964.1816	984.696	1002.3701	1018.7191	1056.3169	1066.6363	1080.9009	1097.0669	1133.3653	1154.424	1158.0687	1167.5486	1205.2858	1266.8982	1286.4762	1293.8817	1320.0278	1337.1874	1411.2217	1445.1216	1463.8082	1483.1542	1516.1712	1530.2863	3020.3293	3030.5904	3061.6856	3081.3456	3081.9441	3099.6507	3108.9151	3168.2688	3172.3994	3200.5249
C(C1CO1)C12CC1OC2	C([C@H]1CO1)[C@]12C[C@H]1OC2	
InChI=1S/C7H10O2/c1(5-3-8-5)7-2-6(7)9-4-7/h5-6H,1-4H2	InChI=1S/C7H10O2/c1(5-3-8-5)7-2-6(7)9-4-7/h5-6H,1-4H2/t5-,6+,7+/m0/s1
