17
gdb 69276	2.70566	1.56588	1.16646	2.9517	68.91	-0.2428	-0.0369	0.2059	1065.7591	0.135294	-458.961453	-458.953405	-458.952461	-458.994014	30.405	
C	 0.0656806798	 1.4989890866	-0.0861166892	-0.473958
C	-0.060810714	 0.0027503727	 0.0706817047	 0.367847
C	-1.2907712184	-0.6528155621	-0.5565964277	-0.136752
O	-1.8412821991	-1.7130778382	 0.2005094953	-0.249898
C	-0.8887376096	-2.6683661238	 0.6432655248	-0.198654
C	 0.0390085255	-2.0123618431	 1.6633030474	 0.412364
O	 0.2920344257	-2.4816074249	 2.7466324723	-0.308117
C	 0.5923661048	-0.6933195187	 1.2063129122	-0.136237
O	 1.1477232672	-0.7360927727	-0.1236008884	-0.280779
H	 1.0216482328	 1.8439855158	 0.314371782	 0.138899
H	 0.0183014554	 1.7780345752	-1.1446148434	 0.135264
H	-0.7463064463	 2.0144234676	 0.4362492754	 0.134808
H	-2.0941424892	 0.0821660668	-0.6588816418	 0.118733
H	-1.008270496	-0.9969979162	-1.5652644034	 0.109891
H	-1.4385530545	-3.476217882	 1.1285544615	 0.136769
H	-0.3017204417	-3.0756537822	-0.1947110191	 0.121717
H	 1.1689179576	-0.1375106807	 1.9434503576	 0.108101
91.4074	152.0745	209.5147	227.1541	305.3864	357.7627	385.1881	425.0741	469.2171	514.7522	561.4168	665.5755	753.4148	841.6492	851.9957	909.7912	951.175	979.2199	1020.2527	1039.0141	1097.0803	1119.0928	1138.1221	1227.6367	1238.9078	1273.543	1297.8514	1315.9252	1356.5815	1400.1552	1412.6513	1439.0127	1471.0051	1483.6821	1487.5252	1495.4482	1826.1112	2974.901	2991.1413	3037.8188	3090.1163	3103.5439	3128.2019	3130.8079	3139.4166
CC12COCC(=O)C1O2	C[C@]12COCC(=O)[C@H]1O2	
InChI=1S/C6H8O3/c1-6-3-8-2-4(7)5(6)9-6/h5H,2-3H2,1H3	InChI=1S/C6H8O3/c1-6-3-8-2-4(7)5(6)9-6/h5H,2-3H2,1H3/t5-,6+/m1/s1
