18
gdb 64809	2.85816	1.31752	1.0972	2.1608	73.07	-0.2619	0.0236	0.2854	1148.1509	0.146269	-439.066422	-439.057862	-439.056917	-439.099937	32.094	
C	-0.1186806995	 1.8590136877	-0.7381568208	-0.442784
C	-0.0445853575	 0.4123773601	-0.28569601	 0.360651
C	 1.0007963343	-0.4960184149	-0.9835840103	-0.416916
C	 1.6751537069	-0.4976738206	 0.369602744	 0.435455
N	 2.7155870072	-1.0168508762	 0.8370317327	-0.540551
O	 0.7264360142	 0.3057393388	 0.9698302966	-0.280118
C	-1.4177432541	-0.2053641995	-0.1474002566	 0.040935
C	-1.8186495574	-1.0206681398	 1.0036639039	-0.178461
O	-2.2608692508	 0.3353427637	 0.8633741251	-0.238518
H	 0.8824555696	 2.2904823763	-0.8190843139	 0.128149
H	-0.608488923	 1.9280805556	-1.7151384026	 0.124293
H	-0.7003501052	 2.4410142798	-0.0187126604	 0.152847
H	 0.639367705	-1.4727171769	-1.3117078353	 0.136351
H	 1.5754192004	-0.0292572996	-1.7852007202	 0.137582
H	 2.836816937	-0.7793075494	 1.8232874977	 0.228653
H	-1.9123261306	-0.376066101	-1.1068803363	 0.09948
H	-2.5915518441	-1.7775049076	 0.8797142605	 0.117233
H	-1.1064516024	-1.1897232565	 1.806205166	 0.135719
68.5095	88.3994	191.3698	234.5639	239.6354	301.4186	355.7238	423.2124	477.8003	503.1327	547.8255	644.0122	784.7149	840.4274	871.3098	880.7479	894.0474	922.6027	958.881	984.6633	1001.8474	1022.2636	1085.0712	1098.3886	1139.8125	1164.5726	1168.9629	1201.524	1252.7332	1267.7751	1280.9315	1310.9208	1408.6206	1435.7483	1463.1578	1483.6241	1494.1992	1520.7374	1826.882	3042.4431	3080.4113	3083.716	3099.1478	3115.4629	3131.5402	3138.7117	3198.2912	3474.1988
CC1(CC(=N)O1)C1CO1	C[C@]1(C[C]([NH])O1)[C@H]1CO1	
InChI=1S/C6H9NO2/c1-6(4-3-8-4)2-5(7)9-6/h4,7H,2-3H2,1H3	InChI=1S/C6H9NO2/c1-6(4-3-8-4)2-5(7)9-6/h4,7H,2-3H2,1H3/t4-,6+/m1/s1
