16
gdb 13313	5.76328	1.20017	1.05989	1.3286	66.12	-0.2538	0.0502	0.304	1084.5598	0.129966	-383.700328	-383.692463	-383.691519	-383.733518	28.071	
C	-0.0896179193	-1.2039755399	 0.0237644822	-0.432536
C	-0.0246870603	-0.0058730377	 0.0835308582	 0.303047
C	 0.0648810837	 1.4468901428	 0.1364232843	-0.373651
C	 1.4901913922	 1.980779393	-0.0847434243	 0.114607
C	 1.5606045494	 3.5267261078	-0.101742006	-0.133127
O	 2.7217597784	 3.8236039189	 0.6543172767	-0.230439
C	 2.7766560669	 2.8060075377	 1.6203897226	 0.023811
O	 2.3601233832	 1.6150151109	 0.9860272737	-0.256927
H	-0.1477465205	-2.2631839755	-0.0193944805	 0.196762
H	-0.5908512579	 1.884307728	-0.6294079644	 0.131012
H	-0.2987177672	 1.8124984167	 1.1050930903	 0.133248
H	 1.8968142697	 1.551579099	-1.0072740985	 0.09919
H	 1.6791544526	 3.9478998173	-1.1019047081	 0.123731
H	 0.6630470855	 3.9634623735	 0.3659196749	 0.095634
H	 3.8080987246	 2.6947677331	 1.9665046367	 0.123026
H	 2.1129698591	 3.0407733543	 2.4734427522	 0.082611
46.3397	77.2589	135.0863	260.7534	316.3939	346.9277	391.2983	498.8422	620.6071	640.3538	693.1145	741.8267	838.0588	907.6985	959.2454	972.1519	1014.9349	1054.2284	1087.2408	1106.1021	1118.6072	1180.9655	1212.2424	1242.6854	1269.8018	1292.1008	1350.2111	1368.9943	1392.5658	1434.8948	1456.2222	1512.1471	1545.4612	2243.5232	2927.8238	2973.5039	3013.0845	3038.997	3058.5095	3088.9718	3110.9585	3507.6584
C#CCC1COCO1	C#CC[C@H]1COCO1	
InChI=1S/C6H8O2/c1-2-3-6-4-7-5-8-6/h1,6H,3-5H2	InChI=1S/C6H8O2/c1-2-3-6-4-7-5-8-6/h1,6H,3-5H2/t6-/m0/s1
