17
gdb 102231	2.27927	1.19755	0.9014	4.2065	70.65	-0.2864	0.0022	0.2886	1314.4214	0.133646	-455.152494	-455.142549	-455.141605	-455.188209	34.475	
C	-0.0607823758	 1.3848259824	-0.1695711129	-0.445202
C	 0.0213016092	-0.1002798933	 0.0253084413	 0.418756
N	 0.1716807881	-0.6335181328	 1.1590270204	-0.500044
O	-0.0959495395	-0.7248332845	-1.2018084629	-0.261155
C	-0.1430568083	-2.1454965364	-1.2600864284	-0.082846
C	-0.633195334	-2.4839005094	-2.6776245395	-0.073087
O	 0.2312747924	-1.9923574828	-3.6665129216	-0.402221
C	 1.1762369012	-2.7435621949	-0.9845843483	 0.291569
N	 2.1950389627	-3.2378443544	-0.7573757502	-0.307064
H	 0.7490136729	 1.7232430205	-0.8234954179	 0.147
H	-1.0052247208	 1.6554746183	-0.65143247	 0.141225
H	 0.0178107981	 1.8806622574	 0.7963995767	 0.158252
H	 0.2487700038	-1.6486237351	 1.1461439785	 0.23384
H	-0.8614250949	-2.5332229955	-0.5247583024	 0.13278
H	-0.6774313945	-3.5703687175	-2.7934020712	 0.137784
H	-1.6529908436	-2.0813177218	-2.7697500391	 0.111467
H	 0.3074449531	-1.04048514	-3.5336037023	 0.298949
62.5389	80.7332	96.9252	134.757	142.4559	208.5206	250.965	313.6712	382.1844	411.2764	426.0475	540.2933	565.9891	653.2928	678.1922	835.0241	860.5738	893.5423	940.7778	996.7049	1048.3572	1075.4795	1082.4485	1102.2841	1125.0852	1238.4188	1281.7722	1304.4337	1355.2412	1399.8177	1408.8062	1425.8436	1473.2019	1477.5203	1491.2719	1755.717	2361.8598	2999.1454	3024.5921	3052.416	3101.3097	3111.2467	3174.214	3512.9351	3805.999
CC(=N)OC(CO)C#N	C[C]([NH])O[C@@H](CO)C#N	
InChI=1S/C5H8N2O2/c1-4(7)9-5(2-6)3-8/h5,7-8H,3H2,1H3	InChI=1S/C5H8N2O2/c1-4(7)9-5(2-6)3-8/h5,7-8H,3H2,1H3/t5-/m1/s1
