18
gdb 45423	2.57368	1.73197	1.70229	2.6176	71.48	-0.2577	0.0292	0.287	924.0721	0.151784	-439.118055	-439.111143	-439.110198	-439.149394	27.719	
N	-0.0497676971	 1.2870996812	-0.0116610342	-0.546916
C	-0.0263105461	 0.0241117652	 0.0049334073	 0.43067
O	 1.1270452794	-0.7169152007	 0.0224438248	-0.259077
C	 0.8665071186	-2.1344617367	 0.003790612	 0.195061
C	 0.1152226469	-2.5151530874	 1.2819545685	-0.238823
C	-1.2129175658	-1.7108253227	 1.2966065019	-0.228142
C	-1.2506413175	-0.8557939259	 0.0094659312	-0.128917
C	-1.1306033096	-1.8078520592	-1.1924938064	-0.076826
O	 0.1408930101	-2.4758211722	-1.144529211	-0.261184
H	 0.9031235381	 1.6581809602	-0.0084319662	 0.219699
H	 1.8423797381	-2.6118339222	-0.0856063161	 0.099664
H	-0.0592109305	-3.5942793569	 1.27554719	 0.11679
H	 0.7414926486	-2.2841938147	 2.1476417394	 0.118483
H	-2.0800061256	-2.3777032072	 1.3141381806	 0.108559
H	-1.2788329184	-1.0661590889	 2.1762821761	 0.121424
H	-2.1470022529	-0.2402318714	-0.059251643	 0.102988
H	-1.9327799086	-2.5574087288	-1.170082953	 0.103737
H	-1.1899279478	-1.2640192116	-2.1413806518	 0.12281
96.9921	177.9854	292.5986	369.5822	395.1245	429.8684	521.3559	589.8783	653.6831	737.2621	800.282	834.7213	853.6134	876.0161	891.355	908.4789	939.6017	975.4896	1008.2913	1031.2102	1063.3004	1078.6742	1103.3161	1151.0622	1190.0181	1217.7094	1254.9208	1262.0303	1297.6511	1328.5898	1344.3039	1347.437	1375.6637	1409.2131	1413.5223	1478.8332	1502.2423	1527.5922	1773.8203	3013.7574	3054.2502	3065.8503	3066.9433	3095.9365	3116.4792	3122.8902	3126.7506	3459.2424
N=C1OC2CCC1CO2	[NH][C]1O[C@H]2CC[C@@H]1CO2	
InChI=1S/C6H9NO2/c7-6-4-1-2-5(9-6)8-3-4/h4-5,7H,1-3H2	InChI=1S/C6H9NO2/c7-6-4-1-2-5(9-6)8-3-4/h4-5,7H,1-3H2/t4-,5+/m1/s1
