17
gdb 127311	4.86291	0.85282	0.78504	4.3667	77.53	-0.2357	-0.0196	0.2161	1448.2905	0.135713	-418.041173	-418.032215	-418.031271	-418.077212	30.731	
C	-0.2472481115	 1.4342749378	-0.173544255	-0.318453
N	-0.0069270732	 0.0107942569	-0.0737390561	 0.061597
C	 0.4939699305	-0.8193716685	-1.020819499	-0.014223
C	 0.4855950539	-2.0897379681	-0.4856794093	-0.307696
C	-0.055425996	-1.9255560483	 0.8097330116	 0.321747
C	-0.258308003	-2.9665630148	 1.8701087618	-0.370865
C	 1.0538516163	-3.317447609	 2.5562338062	 0.160022
O	 1.4808796723	-4.4339430276	 2.690422802	-0.239248
N	-0.3496919008	-0.6463021709	 1.0510112835	-0.329245
H	 0.2442820134	 1.8147629981	-1.070461137	 0.139825
H	-1.3194331025	 1.6445346459	-0.2333302155	 0.148707
H	 0.1618559054	 1.9377039651	 0.7050084978	 0.154607
H	 0.8098456593	-0.4473337415	-1.9829284422	 0.13245
H	 0.8206763203	-3.0001637076	-0.9557405057	 0.113699
H	-0.9310041503	-2.5560678473	 2.6332262757	 0.138692
H	-0.6953307492	-3.885309191	 1.4702844964	 0.125165
H	 1.6119465953	-2.431164699	 2.934581755	 0.083219
28.2025	45.2984	59.4971	143.8536	210.0984	258.9848	371.0662	419.4767	454.8847	631.5905	650.1289	714.852	731.3236	773.7981	834.3361	836.9193	999.8033	1017.933	1028.9072	1055.4922	1071.509	1094.9784	1151.8511	1187.2798	1241.2079	1285.3296	1330.082	1400.9838	1418.7919	1436.1416	1452.4295	1458.9435	1476.4173	1500.3216	1529.0932	1560.5465	1834.1869	2879.394	3041.4768	3049.0312	3109.611	3118.7489	3148.6432	3253.7208	3273.7793
CN1C=CC(CC=O)=N1	Cn1ccc(CC=O)n1	
InChI=1S/C6H8N2O/c1-8-4-2-6(7-8)3-5-9/h2,4-5H,3H2,1H3	InChI=1S/C6H8N2O/c1-8-4-2-6(7-8)3-5-9/h2,4-5H,3H2,1H3
