17
gdb 65545	2.9422	1.5531	1.33587	5.288	71.59	-0.26	0.0229	0.2829	987.1075	0.138365	-417.988373	-417.981133	-417.980189	-418.019843	29.226	
O	 0.0378909039	 1.3583359257	-0.0016630731	-0.486996
C	 0.0374455191	-0.0483062693	-0.0108522865	 0.313047
C	 0.5198800292	-0.6839173617	 1.3525145982	-0.265164
C	-0.8235542623	-1.2890247525	 1.7853027068	-0.00895
C	-1.2713820678	-2.0611138353	 0.5154047648	-0.242204
C	-1.4156439444	-0.6109193549	 0.0070568287	-0.058545
N	-1.7667877376	-0.1572907471	 1.4063164911	-0.359146
C	 0.8082152941	-0.5017428343	-1.1716080531	 0.267351
N	 1.402090125	-0.9095565495	-2.074539311	-0.341753
H	-0.6171609358	 1.5862811764	 0.677066427	 0.291887
H	 1.302408117	-1.4344181508	 1.2294968246	 0.127393
H	 0.8761691488	 0.1077545107	 2.0131498285	 0.125261
H	-0.9007739984	-1.6966775903	 2.7924887052	 0.084826
H	-0.5676952736	-2.736834934	 0.0202394981	 0.12097
H	-2.2434495655	-2.5445380651	 0.6385919501	 0.108729
H	-2.0553599346	-0.3030780214	-0.8188217635	 0.096464
H	-2.721702017	-0.4568752567	 1.6012313042	 0.226829
129.6206	159.9988	239.6223	351.1685	439.536	449.0065	506.7175	529.3668	548.6094	581.3014	631.5103	742.3548	828.3331	842.2607	882.1875	894.4862	924.7135	951.7742	988.4024	1002.7758	1030.9833	1053.5007	1067.1076	1123.7583	1143.8514	1172.299	1199.0926	1210.5812	1238.9261	1268.2702	1300.6943	1333.6899	1350.1831	1424.708	1481.5067	1504.3859	2365.4921	3055.6457	3085.0577	3119.123	3129.5259	3137.594	3143.1501	3469.4954	3702.6628
OC1(CC2CC1N2)C#N	O[C@]1(C[C@@H]2C[C@H]1N2)C#N	
InChI=1S/C6H8N2O/c7-3-6(9)2-4-1-5(6)8-4/h4-5,8-9H,1-2H2	InChI=1S/C6H8N2O/c7-3-6(9)2-4-1-5(6)8-4/h4-5,8-9H,1-2H2/t4-,5+,6+/m0/s1
