21
gdb 117196	3.23504	0.95579	0.84461	3.6786	81.24	-0.2445	0.0227	0.2672	1470.481	0.182161	-420.426649	-420.41649	-420.415546	-420.462921	36.814	
C	-0.9174665689	 0.6716762897	 0.0565900646	-0.371941
C	 0.6009236859	 0.515926601	 0.1684015594	-0.148095
N	 1.0086339408	-0.2618167047	 1.3292406411	-0.334266
C	 1.4307724367	-1.5513809359	 1.2393431424	 0.386821
O	 1.5512864194	-2.1391510316	 0.1716758126	-0.407237
C	 1.7653637479	-2.2426584377	 2.5459106897	 0.218501
C	 1.9432126705	-1.4260782917	 3.8079776813	-0.495814
C	 1.260391391	-3.6489975326	 2.6243314682	-0.251232
N	 2.6798321739	-3.3876993523	 2.3924907301	-0.339702
H	-1.3336977809	 1.1731632284	 0.9371748884	 0.111023
H	-1.1749909788	 1.2705357782	-0.8227002093	 0.12154
H	-1.398887015	-0.3056159314	-0.0394335282	 0.134954
H	 0.9970239934	-0.0087755718	-0.7029849917	 0.152078
H	 1.081577411	 1.5001845297	 0.2167998011	 0.106609
H	 0.8906269882	 0.1455055167	 2.2416277223	 0.246214
H	 1.0048667383	-0.9587169682	 4.131051106	 0.113478
H	 2.2829559264	-2.0771393516	 4.6163205218	 0.140829
H	 2.6965162617	-0.6416327091	 3.676078576	 0.127112
H	 1.0144667609	-4.0615115832	 3.5995921903	 0.113184
H	 0.6611430295	-4.0087257582	 1.7934933676	 0.129322
H	 2.854385698	-3.4875579936	 1.3916038464	 0.246624
24.8479	63.7626	91.7984	181.3528	221.7394	253.327	296.6125	320.0567	350.8752	363.5373	397.7666	475.0829	487.3227	572.2998	752.9635	772.458	814.8111	841.4935	899.813	914.0803	949.9217	1003.8215	1039.5952	1063.8889	1105.6696	1113.6805	1115.9588	1148.0928	1172.4732	1239.4059	1300.0082	1321.1279	1348.8733	1370.3823	1394.7707	1410.725	1417.5615	1481.4953	1489.5746	1493.0598	1496.2577	1500.3968	1501.9044	1554.0601	1746.8335	3023.7819	3035.4375	3037.1206	3085.3047	3098.9892	3107.8964	3118.3305	3125.4248	3131.3907	3203.3697	3462.4703	3654.4168
CCNC(=O)C1(C)CN1	CCNC(=O)[C@@]1(C)CN1	
InChI=1S/C6H12N2O/c1-3-7-5(9)6(2)4-8-6/h8H,3-4H2,1-2H3,(H,7,9)	InChI=1S/C6H12N2O/c1-3-7-5(9)6(2)4-8-6/h8H,3-4H2,1-2H3,(H,7,9)/t6-/m1/s1
