17
gdb 92947	2.35821	1.52888	1.24364	1.3629	76.21	-0.2514	-0.006	0.2453	1069.8363	0.134089	-421.793455	-421.784546	-421.783602	-421.827043	33.878	
O	 0.274802878	 0.9132486385	-0.6384865281	-0.436426
C	 0.1013434646	-0.2126542232	 0.1765390451	 0.097317
C	 0.4375271802	-0.0061144043	 1.6774622763	-0.300246
C	-0.6007674332	-0.8325065384	 2.3862986635	-0.076873
C	-1.5840452512	-1.229585062	 1.5815325271	-0.08593
C	-1.3967050112	-0.7227905078	 0.1692195548	 0.164049
O	-2.2671003603	 0.4141621629	-0.0351691927	-0.472203
C	-1.646697131	-1.7289451074	-0.8573721028	 0.262067
C	-1.8630335812	-2.5385023345	-1.7200809273	-0.47458
H	-0.5305579989	 1.4375114696	-0.5176337549	 0.280024
H	 0.7355823793	-1.00488254	-0.2300885712	 0.104985
H	 1.4634775788	-0.3094755456	 1.9119092913	 0.110687
H	 0.3565601712	 1.0556680956	 1.9431434236	 0.118147
H	-0.5481178399	-1.0554428047	 3.4467065274	 0.104079
H	-2.4574278567	-1.8054043367	 1.8606666078	 0.1073
H	-2.6258195624	 0.3473092586	-0.9268984996	 0.29357
H	-2.045951726	-3.2610213605	-2.4770678402	 0.204034
56.2651	137.2417	164.3277	171.3239	266.7541	309.965	372.5401	466.1262	486.6727	524.3452	531.252	583.0623	597.3927	624.5072	669.2481	722.6774	756.2036	779.4418	921.9862	964.0934	979.0452	1005.6078	1051.4691	1073.8332	1095.2637	1129.4629	1157.4737	1164.6507	1256.244	1307.6513	1333.6635	1343.6315	1394.5908	1444.9379	1481.1021	1683.9822	2230.1105	3030.166	3064.0111	3083.2749	3186.2981	3220.3605	3498.9843	3724.4399	3812.6139
OC1CC=CC1(O)C#C	O[C@H]1CC=C[C@]1(O)C#C	
InChI=1S/C7H8O2/c1-2-7(9)5-3-4-6(7)8/h1,3,5-6,8-9H,4H2	InChI=1S/C7H8O2/c1-2-7(9)5-3-4-6(7)8/h1,3,5-6,8-9H,4H2/t6-,7+/m0/s1
