18
gdb 30823	2.48494	1.27436	0.89212	1.6498	76.	-0.1695	0.0541	0.2236	1305.9804	0.148408	-435.315698	-435.30618	-435.305236	-435.350284	34.758	
C	 0.0538823657	 1.5911506521	 0.3313997142	-0.362562
C	 0.0001216529	 0.0994833356	-0.0521004638	-0.313852
C	-1.370294522	-0.4847118654	-0.0999084506	 0.253311
C	-2.1805364672	-0.878003794	-1.132570697	 0.186688
N	-1.908190333	-0.8733649698	-2.5100747942	-0.601651
N	-3.3822319546	-1.3910371655	-0.6698953476	-0.412906
C	-3.2948702778	-1.3022025233	 0.6319352574	 0.434715
O	-4.225804683	-1.683875171	 1.5251787166	-0.42867
N	-2.1335203738	-0.7618883849	 1.0526489361	-0.367036
H	 1.0854552674	 1.9584261218	 0.3426454395	 0.110743
H	-0.5194942857	 2.1977050257	-0.3764591189	 0.116593
H	-0.3709991716	 1.7611448644	 1.3265932977	 0.108281
H	 0.4524218979	-0.040933534	-1.040241604	 0.116348
H	 0.632586411	-0.4701741494	 0.6445073546	 0.100245
H	-1.5506182247	 0.0137898586	-2.8405543935	 0.239218
H	-2.7493817619	-1.1039497904	-3.0239712371	 0.244317
H	-4.9616247821	-2.0365993204	 1.0097528206	 0.311615
H	-1.8635925073	-0.6160669103	 2.0098457598	 0.264603
53.4483	106.8415	140.9013	190.4676	238.5545	276.4213	283.6156	321.2332	383.4965	402.236	453.7381	532.8713	613.1944	644.8938	690.9505	724.0297	776.3951	799.0252	821.0684	962.5507	1044.7242	1055.973	1079.4312	1105.6737	1186.7828	1219.6094	1237.7292	1309.5777	1343.3088	1359.3736	1405.889	1445.4065	1476.7439	1495.6165	1504.1031	1571.9518	1620.6941	1645.1583	1675.9296	2996.841	3030.3209	3062.6877	3099.1586	3107.4066	3534.7237	3625.0623	3678.3408	3809.2296
CCC1=C(N)N=C(O)N1	CCc1c(N)nc(O)[nH]1	
InChI=1S/C5H9N3O/c1-2-3-4(6)8-5(9)7-3/h2,6H2,1H3,(H2,7,8,9)	InChI=1S/C5H9N3O/c1-2-3-4(6)8-5(9)7-3/h2,6H2,1H3,(H2,7,8,9)
