16
gdb 57003	3.98092	1.12399	1.03626	5.072	68.48	-0.2659	0.0143	0.2803	1152.2343	0.124105	-437.839225	-437.831279	-437.830335	-437.872136	29.845	
O	 0.0611582326	 1.4997983062	-0.2295715716	-0.400329
C	 0.0561655849	 0.1010995698	-0.0714312579	-0.042333
C	 0.6820169755	-0.5683184124	-1.2370010971	 0.257444
N	 1.1795536125	-1.0955568176	-2.1366309553	-0.312969
C	 0.7612277548	-0.3338910983	 1.2321785153	 0.104509
O	 1.9081723494	 0.5161537767	 1.5079147207	-0.312292
C	 1.4372482894	 0.7164580975	 2.8557659509	 0.109882
C	 0.1416373559	 1.4544905779	 2.8844220215	-0.306401
C	 0.1514191089	-0.0369246746	 2.6008369161	-0.158862
H	 0.9537452912	 1.7832007828	 0.0190297266	 0.301805
H	-0.9912539207	-0.2189970894	-0.0271435754	 0.146307
H	 1.0802277643	-1.3790368282	 1.1533500123	 0.116178
H	 2.1732848143	 0.6661368705	 3.6480276116	 0.120248
H	-0.212197259	 1.6969327617	 3.8820453157	 0.124924
H	-0.1132666982	 2.1717800712	 2.1142847585	 0.140432
H	-0.3669312458	-0.7626118037	 3.211557698	 0.111455
59.0697	134.0078	186.3126	230.1666	284.1828	350.6396	457.7468	490.7364	511.3562	585.6783	706.8551	733.4825	778.1409	819.9414	888.6251	940.9888	942.087	973.5284	1001.4455	1035.026	1046.1567	1054.6783	1088.9025	1096.7341	1118.5416	1201.2834	1232.6859	1268.4558	1297.6259	1314.626	1361.2996	1385.4432	1440.3547	1478.0868	2355.2803	3051.2576	3058.0491	3138.8673	3197.5216	3213.803	3234.0993	3731.816
OC(C#N)C1OC2CC12	O[C@@H](C#N)[C@H]1O[C@H]2C[C@@H]12	
InChI=1S/C6H7NO2/c7-2-4(8)6-3-1-5(3)9-6/h3-6,8H,1H2	InChI=1S/C6H7NO2/c7-2-4(8)6-3-1-5(3)9-6/h3-6,8H,1H2/t3-,4+,5+,6+/m1/s1
