19
gdb 26120	2.57286	1.26792	1.04215	2.6373	78.43	-0.1911	0.0337	0.2248	1234.0959	0.159805	-419.258117	-419.248885	-419.247941	-419.29241	34.375	
C	 0.0145807951	 1.5760906612	 0.0025720756	-0.380124
C	 0.0215294311	 0.0365083909	 0.0787931899	-0.096713
C	 0.792028223	-0.4496954913	 1.3222188812	-0.380125
C	-1.3572693897	-0.5425482017	 0.0021788698	 0.226694
C	-1.9610586443	-1.3702212995	-0.9127438839	 0.255238
O	-1.3878480765	-1.8785983065	-2.0309496793	-0.4433
N	-3.2555126116	-1.6524804607	-0.5833773229	-0.340668
C	-3.4682070632	-1.0004455036	 0.5429189721	 0.0012
N	-2.3645679826	-0.319203126	 0.9385493072	-0.309706
H	 1.0363107855	 1.9698754657	-0.0040408927	 0.113108
H	-0.4952045183	 1.9233566172	-0.9002251342	 0.124538
H	-0.499278944	 2.0150816016	 0.8665157155	 0.098551
H	 0.5437224784	-0.3406884426	-0.8078813799	 0.10532
H	 0.8346073402	-1.5417093059	 1.3570040787	 0.124538
H	 1.8166759929	-0.0635134645	 1.320560453	 0.113109
H	 0.3140183745	-0.1041145696	 2.2470127833	 0.09855
H	-2.065620396	-2.4163729063	-2.4571609847	 0.298367
H	-4.3912029506	-0.9904286823	 1.1021042061	 0.128668
H	-2.283724724	 0.2495428438	 1.7640693154	 0.262755
38.8093	127.2736	163.5533	226.0644	250.0615	285.998	292.0698	342.1972	398.7775	433.6663	491.5696	532.8381	613.5425	680.6918	741.0812	742.1895	778.5585	884.6218	927.6628	956.6705	957.7546	1064.8634	1078.7861	1120.6852	1140.4512	1180.9814	1236.2073	1270.686	1332.8509	1338.2923	1377.4104	1396.7106	1398.5595	1421.1228	1484.2399	1490.8945	1491.239	1501.7567	1510.0711	1519.9639	1683.4077	3023.2605	3026.7331	3047.328	3085.2707	3094.3307	3113.4835	3115.6277	3255.7356	3670.7799	3808.915
CC(C)C1=C(O)N=CN1	CC(C)c1c(O)nc[nH]1	
InChI=1S/C6H10N2O/c1-4(2)5-6(9)8-3-7-5/h3-4,9H,1-2H3,(H,7,8)	InChI=1S/C6H10N2O/c1-4(2)5-6(9)8-3-7-5/h3-4,9H,1-2H3,(H,7,8)
