15
gdb 61754	2.18298	1.33478	0.90676	3.2734	64.56	-0.267	-0.1138	0.1532	1237.3024	0.107976	-494.933146	-494.923482	-494.922538	-494.96888	32.243	
C	-1.1547273143	 1.5819725218	-1.1241751596	-0.397413
C	-0.3223335528	 0.4829859992	-0.4900459965	 0.009809
O	-1.1762054068	-0.497290019	 0.1238719191	-0.206053
C	-1.084506015	-0.6795393892	 1.4649146408	 0.185443
O	-1.7595483122	-1.4710763383	 2.0435858124	-0.262265
C	 0.5154813288	-0.2962717915	-1.5069195237	 0.300406
O	 0.5306000602	-0.0735174405	-2.6911941459	-0.266663
C	 1.4228053409	-1.4015592788	-0.9480298889	 0.098649
O	 1.6785288138	-1.5084341394	 0.222313348	-0.218195
H	-0.5059185202	 2.3067093294	-1.6222320089	 0.139408
H	-1.8346170096	 1.1636912186	-1.8693953646	 0.151432
H	-1.7395441526	 2.0972436909	-0.3585049756	 0.131203
H	 0.3631657348	 0.8873043927	 0.2681357212	 0.118471
H	-0.3364451121	-0.0157499104	 1.9359107798	 0.093257
H	 1.8658928372	-2.0433017355	-1.7366242476	 0.122511
47.7145	63.6053	129.9636	157.9386	182.4128	198.5144	218.4293	269.8436	332.7695	414.1995	504.0823	533.3397	647.5051	672.6683	770.4098	922.423	989.0277	1034.8503	1062.5623	1102.6246	1113.4854	1170.6765	1196.4272	1344.0753	1352.0249	1367.4604	1413.2336	1431.0267	1481.7452	1488.1025	1819.4959	1820.9181	1876.4378	2941.3037	2972.4005	3015.4111	3058.1755	3135.6427	3143.0085
CC(OC=O)C(=O)C=O	C[C@@H](OC=O)C(=O)C=O	
InChI=1S/C5H6O4/c1-4(9-3-7)5(8)2-6/h2-4H,1H3	InChI=1S/C5H6O4/c1-4(9-3-7)5(8)2-6/h2-4H,1H3/t4-/m1/s1
