16
gdb 45298	4.50818	1.30091	1.05079	4.7773	80.	-0.2364	-0.0494	0.1871	1086.9421	0.127703	-400.806132	-400.79943	-400.798486	-400.837151	26.977	
O	 0.0491822974	-0.0583863261	-0.1246126357	-0.377709
C	 0.0343604143	 1.1467815656	-0.0128954898	 0.419447
N	-1.1239266404	 1.931858814	 0.1230569968	-0.365383
C	-0.8108202536	 3.3305968298	-0.0389687015	-0.025371
C	-1.2465904199	 4.4301699378	 0.9665165454	-0.305092
C	-0.0075577927	 5.3104949606	 0.9963145982	-0.06149
C	 1.0803342152	 4.6846092164	 0.5093262819	-0.179529
C	 0.6969160543	 3.3441882846	 0.0998363943	 0.364096
C	 1.1843804668	 2.0969815644	 0.059574942	-0.411627
H	-1.9865980645	 1.5380489345	-0.220614781	 0.244194
H	-1.0818222809	 3.6816699595	-1.0471791445	 0.10576
H	-2.1535938884	 4.9672898816	 0.6730273591	 0.110889
H	-1.4269532975	 3.9920779605	 1.9560739315	 0.135374
H	-0.0137190527	 6.3104096646	 1.4152441606	 0.112232
H	 2.0889748508	 5.0765509595	 0.4982139881	 0.115786
H	 2.2048919516	 1.7568956027	 0.1583109844	 0.118424
134.3709	189.8548	311.7928	346.6895	455.8762	507.3854	543.1596	572.9569	683.7733	719.1382	735.119	773.3312	792.0415	841.829	874.0416	911.6164	938.9148	971.8936	992.1818	1030.5978	1119.3295	1126.7791	1150.9667	1163.3875	1188.0876	1246.8141	1283.808	1314.2311	1354.552	1373.4757	1405.8369	1480.7084	1613.3191	1690.6084	1820.2797	2977.7288	3036.002	3084.8306	3198.1432	3227.0665	3244.8928	3627.8906
O=C1NC2CC=CC2=C1	O=C1N[C@H]2CC=C[C]2[CH]1	
InChI=1S/C7H7NO/c9-7-4-5-2-1-3-6(5)8-7/h1-2,4,6H,3H2,(H,8,9)	InChI=1S/C7H7NO/c9-7-4-5-2-1-3-6(5)8-7/h1-2,4,6H,3H2,(H,8,9)/t6-/m0/s1
