22
gdb 8417	3.2915	1.75264	1.47994	0.1781	81.86	-0.2464	0.0839	0.3303	988.4199	0.199723	-313.048861	-313.040261	-313.039317	-313.080969	34.02	
C	 0.1425140694	 1.636013353	-0.4084653102	-0.421793
C	 0.2503508064	 0.1419410223	-0.1735375364	-0.003817
C	 1.4843710778	-0.6958204407	-0.3605148305	-0.067313
C	 2.7368130397	 0.002986944	 0.1896751813	-0.293451
C	 2.1067754783	-0.0153808118	 1.6300681748	 0.339891
C	 2.7854181021	-1.0868310421	 2.4916437859	-0.42638
C	 2.0283946381	 1.2965837824	 2.4127630706	-0.451956
C	 0.8117953393	-0.5942963499	 1.0186998636	-0.097258
H	 1.0836566536	 2.1638757638	-0.2428139393	 0.122017
H	-0.1560375711	 1.8290101306	-1.4451795838	 0.11115
H	-0.613424706	 2.0897539099	 0.2421621764	 0.115419
H	-0.6314286955	-0.3853447058	-0.5381131055	 0.082165
H	 1.5045703656	-1.5383181294	-1.042094182	 0.07776
H	 3.6420458262	-0.6051341922	 0.1230503098	 0.096215
H	 2.9579178953	 0.9883206325	-0.2336645348	 0.090413
H	 3.8026752611	-0.7828869558	 2.7637835811	 0.107134
H	 2.2269022074	-1.255777833	 3.4201000004	 0.107201
H	 2.8465827789	-2.0425688236	 1.9609000152	 0.111023
H	 1.5634615062	 2.1019404965	 1.8417867089	 0.113675
H	 1.4443112109	 1.1627159264	 3.3309654927	 0.109424
H	 3.0301199931	 1.6313839057	 2.7082750985	 0.107592
H	 0.2104855531	-1.3429567828	 1.5262767734	 0.070889
146.9927	175.5457	192.4359	222.2131	271.1828	282.5683	351.0516	361.7551	380.5193	471.4741	580.2463	617.6294	711.1206	777.0062	825.0143	849.6385	893.257	935.9656	956.0105	972.6373	984.7729	1006.0038	1012.1963	1028.637	1065.4945	1083.5409	1118.5044	1155.0177	1207.3541	1216.3511	1237.594	1247.408	1273.0848	1307.0026	1356.09	1399.3596	1409.808	1420.2475	1445.3482	1481.6003	1484.4496	1492.5149	1497.833	1502.772	1504.7516	1513.27	3018.6177	3026.3298	3030.1815	3047.838	3078.8845	3084.4659	3085.8544	3095.1034	3100.4182	3102.2062	3120.3092	3132.7072	3146.5161	3173.5804
CC1C2CC(C)(C)C12	C[C@H]1[C@H]2CC(C)(C)[C@@H]12	
InChI=1S/C8H14/c1-5-6-4-8(2,3)7(5)6/h5-7H,4H2,1-3H3	InChI=1S/C8H14/c1-5-6-4-8(2,3)7(5)6/h5-7H,4H2,1-3H3/t5-,6+,7-/m0/s1
