21
gdb 89704	3.14247	1.2406	1.0769	2.8384	82.93	-0.2453	-0.0239	0.2214	1201.9829	0.18345	-387.098286	-387.089984	-387.08904	-387.131143	32.582	
C	-0.1536676192	 1.5280578505	 0.0324719626	-0.417553
C	 0.0536645868	 0.0147781238	 0.0475706092	 0.044495
C	 0.9736017856	-0.5421291915	-1.0950305614	-0.277082
C	 2.0115989025	-1.2952286106	-0.244214119	 0.261198
C	 1.1125590285	-2.0012875568	 0.8290480479	-0.274358
C	 0.8348504233	-0.5360127737	 1.266028869	-0.022927
C	 2.3191377202	-0.2606551075	 0.8911944404	-0.270931
C	 3.1152705687	-2.0332244411	-0.9231295889	 0.048064
O	 3.2767838054	-2.0898363467	-2.1179133706	-0.250705
H	 0.7959830765	 2.0712984174	 0.0832305327	 0.115382
H	-0.6614925446	 1.8428759895	-0.8853061112	 0.11824
H	-0.7683228999	 1.8510768092	 0.8799857657	 0.112131
H	-0.9300328827	-0.4672276109	 0.0060570191	 0.06981
H	 0.4497920866	-1.2058126407	-1.7869452791	 0.10758
H	 1.4358048983	 0.2533247569	-1.686344728	 0.106683
H	 0.2762113157	-2.6031566519	 0.4615446363	 0.099378
H	 1.695478773	-2.5652004872	 1.5613222718	 0.100877
H	 0.4411657705	-0.2986818473	 2.255474011	 0.061501
H	 3.0194055971	-0.6488800741	 1.6347116487	 0.102095
H	 2.6164607822	 0.745042646	 0.5841191921	 0.102549
H	 3.8160051054	-2.5540890832	-0.2278440084	 0.063571
75.3884	160.9568	175.8862	222.4111	286.4704	328.5437	418.6958	435.9147	486.1241	503.2218	616.8308	754.1298	792.5893	817.0427	831.1285	866.3472	904.3678	923.8631	960.0908	981.6499	1014.7962	1018.7168	1045.1517	1054.6628	1087.8423	1126.3892	1138.0081	1156.9366	1182.6426	1221.4608	1237.4875	1240.8095	1248.3839	1285.4405	1321.7919	1343.146	1378.7173	1413.1991	1427.1347	1483.186	1493.6534	1499.433	1500.3766	1523.4178	1815.07	2848.3539	3028.9921	3029.796	3051.2401	3060.1565	3064.5643	3094.5742	3099.2207	3103.3412	3108.8197	3115.4291	3121.151
CC1CC2(CC1C2)C=O	C[C@H]1C[C@@]2(C[C@H]1C2)C=O	
InChI=1S/C8H12O/c1-6-2-8(5-9)3-7(6)4-8/h5-7H,2-4H2,1H3	InChI=1S/C8H12O/c1-6-2-8(5-9)3-7(6)4-8/h5-7H,2-4H2,1H3/t6-,7-,8-/m0/s1
