17
gdb 35068	3.79773	1.34177	1.28511	1.0263	85.17	-0.2155	-0.0392	0.1763	1031.493	0.135702	-347.412093	-347.404932	-347.403988	-347.443523	29.318	
C	-0.0757235005	-1.2244594194	 0.1268811176	-0.46126
C	-0.0589333451	-0.0241578085	 0.0565991657	 0.319689
C	-0.0248288572	 1.4310807438	-0.0188739382	-0.207651
C	-0.5649265749	 2.0616653873	 1.2810206765	-0.110553
C	 0.2292806828	 3.0858709169	 1.6440423799	 0.046785
C	 1.3525860612	 2.7596780779	 2.6371222282	-0.258392
C	 2.1545884394	 2.5354872253	 1.2992489119	-0.058428
C	 1.3900576423	 2.0711605574	-0.0045854257	-0.044811
C	 1.2345992317	 3.4442236741	 0.533469052	-0.132869
H	-0.0906930106	-2.2848473658	 0.1787334962	 0.195693
H	-0.5317092991	 1.7453100433	-0.9439155382	 0.110878
H	-1.0671613661	 1.4216392717	 1.9995126769	 0.109979
H	 1.8010067684	 3.603156362	 3.1744382793	 0.106902
H	 1.1823037859	 1.9211551318	 3.3176655745	 0.107827
H	 3.2412831229	 2.5377516689	 1.254566548	 0.094037
H	 2.0629065236	 1.8702825767	-0.8360739842	 0.089227
H	 1.4115677553	 4.4034814367	 0.0657051794	 0.092948
92.7437	154.4622	293.9956	395.1987	397.4333	499.4313	523.396	606.563	618.6949	636.7147	680.6374	723.4842	767.897	792.5877	817.0057	876.1439	907.3872	932.0052	970.0674	981.976	1008.4089	1026.7261	1048.08	1058.3538	1070.8105	1087.7878	1127.1187	1208.3137	1213.7697	1229.0933	1265.6633	1278.1881	1319.2914	1364.9368	1500.6842	1592.1751	2232.1391	2980.9122	3030.7684	3099.0753	3132.3509	3140.8192	3178.4089	3200.1292	3504.6224
C#CC1C=C2CC3C1C23	C#C[C@H]1[CH][C]2C[C@H]3[C@@H]1[C@@H]23	
InChI=1S/C9H8/c1-2-5-3-6-4-7-8(5)9(6)7/h1,3,5,7-9H,4H2	InChI=1S/C9H8/c1-2-5-3-6-4-7-8(5)9(6)7/h1,3,5,7-9H,4H2/t5-,7-,8+,9-/m0/s1
