18
gdb 53750	4.62074	0.59821	0.56073	3.059	84.	-0.2551	-0.0479	0.2071	1964.2743	0.145555	-401.909481	-401.899539	-401.898595	-401.946886	34.044	
C	 0.3682388354	 0.3558004466	-1.1530415588	-0.477177
C	-0.3457860164	 0.3550354403	 0.183400628	 0.247033
O	-0.2039862258	 1.2327003211	 1.0081711693	-0.276374
C	-1.2233102723	-0.7772609408	 0.4193725381	 0.062444
C	-1.9571629055	-1.7153062213	 0.6168158489	 0.051333
C	-2.8436450872	-2.8498396486	 0.8490876467	-0.398469
C	-3.2458434995	-3.5754754313	-0.4263637155	 0.045919
C	-4.5693276058	-4.2379861965	-0.508779704	-0.247684
N	-4.28767563	-3.025950299	-1.3002165704	-0.304755
H	 0.9932522617	 1.2463211347	-1.2335892815	 0.142279
H	 0.9836919292	-0.5451842528	-1.2499430021	 0.145586
H	-0.3614965447	 0.3321021808	-1.9695291919	 0.148762
H	-2.3442984062	-3.5542128318	 1.5287768466	 0.149259
H	-3.743709797	-2.5077330812	 1.3783546829	 0.134737
H	-2.40973678	-4.0082828874	-0.9710511265	 0.105597
H	-4.6918594055	-5.1476140084	-1.0892596979	 0.125368
H	-5.2300673042	-4.1595854693	 0.3515241885	 0.113287
H	-4.7198172563	-2.2149010752	-0.8629477502	 0.232857
19.9925	49.8989	72.7643	119.6109	153.9537	164.4081	320.1839	340.9812	377.3523	407.6785	526.5484	589.9502	603.6015	693.9877	786.0013	826.8632	919.9584	926.2597	962.5155	974.3376	1042.9825	1050.2835	1050.8094	1126.7378	1147.8295	1175.7967	1244.1986	1246.928	1265.0808	1310.8048	1318.1673	1381.5421	1421.8644	1450.3987	1460.597	1468.4314	1514.025	1768.8918	2332.6144	3009.8222	3039.4411	3042.4796	3103.6872	3107.62	3135.663	3151.8291	3193.3533	3492.3586
CC(=O)C#CCC1CN1	CC(=O)C#CC[C@H]1CN1	
InChI=1S/C7H9NO/c1-6(9)3-2-4-7-5-8-7/h7-8H,4-5H2,1H3	InChI=1S/C7H9NO/c1-6(9)3-2-4-7-5-8-7/h7-8H,4-5H2,1H3/t7-/m0/s1
