20
gdb 112428	2.0351	1.44083	0.93634	3.1084	75.67	-0.2382	0.034	0.2722	1283.8519	0.171298	-440.336078	-440.326761	-440.325817	-440.370326	34.833	
C	 0.1883827747	 1.4190529485	 0.2959206183	-0.399877
C	 0.2321850696	-0.1008926913	 0.1168452293	-0.155169
C	 0.583230148	-0.5205022292	-1.3185975337	-0.004258
N	 1.9219987061	-0.1200358048	-1.7350789681	-0.303005
C	 2.8784759242	-1.1002782359	-1.6842327327	 0.407248
O	 4.0590937052	-0.9563624099	-1.9089975017	-0.378534
C	 2.1485018246	-2.3887133162	-1.2901841028	-0.376568
C	 0.6665474027	-2.0587773628	-1.5284123514	 0.104463
O	-0.2520608272	-2.7101465104	-0.6744960917	-0.428351
H	 1.1632525573	 1.8780477186	 0.0982172257	 0.113034
H	-0.5420957366	 1.8789897778	-0.3798776374	 0.114485
H	-0.0940567236	 1.6851997867	 1.3185680947	 0.121043
H	 0.9595022491	-0.5378878386	 0.8110533253	 0.099959
H	-0.738540541	-0.538463886	 0.3671943558	 0.120826
H	-0.1613230574	-0.0889454583	-1.9991031077	 0.084382
H	 2.1908530105	 0.8382458897	-1.892956321	 0.251126
H	 2.5241942401	-3.2380140376	-1.8641105764	 0.122363
H	 2.3297692913	-2.587554005	-0.2277896745	 0.13443
H	 0.4236415226	-2.2641362835	-2.5815242359	 0.082255
H	-0.2019798101	-3.6553301319	-0.8457792941	 0.290149
82.3629	104.8008	117.1004	195.4862	240.75	257.6611	295.4184	362.9686	441.8251	484.4485	506.985	516.4553	587.3681	645.0188	690.3055	779.6267	832.8238	863.4477	925.5891	992.3039	1010.5598	1048.9968	1085.3843	1102.1954	1124.8374	1130.1984	1178.511	1242.2901	1253.6976	1255.814	1294.9346	1305.5306	1350.6426	1382.7083	1404.1845	1411.8673	1424.8944	1441.3773	1471.5591	1479.9121	1500.6112	1508.6535	1834.3548	2985.6765	3023.7716	3029.1457	3043.8678	3056.6011	3082.508	3103.8967	3107.9357	3118.9193	3642.403	3829.7534
CCC1NC(=O)CC1O	CC[C@H]1NC(=O)C[C@H]1O	
InChI=1S/C6H11NO2/c1-2-4-5(8)3-6(9)7-4/h4-5,8H,2-3H2,1H3,(H,7,9)	InChI=1S/C6H11NO2/c1-2-4-5(8)3-6(9)7-4/h4-5,8H,2-3H2,1H3,(H,7,9)/t4-,5-/m1/s1
