15
gdb 31186	1.94702	1.7251	0.93863	3.5457	70.71	-0.242	-0.0471	0.1949	1171.0867	0.112513	-457.796143	-457.787964	-457.78702	-457.829548	29.337	
O	 0.3217865526	 1.0560643937	-0.643108625	-0.395799
C	-0.0295418548	 0.0384341229	 0.2762128929	-0.171473
C	-1.4066466444	-0.5087279545	 0.0507077549	 0.2536
C	-2.1816617965	-0.7218933646	-1.06542931	 0.059919
C	-1.8414280873	-0.4556795202	-2.465301092	 0.049851
O	-2.5865832859	-0.7050092401	-3.3893101879	-0.279718
C	-3.4159737865	-1.2920227158	-0.590130397	-0.261663
C	-3.2975130376	-1.3807368998	 0.7524026015	-0.016258
O	-2.0790975087	-0.9009705441	 1.1576163294	-0.177952
H	-0.31753212	 1.7713236282	-0.5530848926	 0.290194
H	 0.7222447103	-0.7481170796	 0.1405631078	 0.143143
H	 0.0402215001	 0.3706269554	 1.3223377448	 0.122575
H	-0.8449808137	-0.0022500506	-2.6288895078	 0.093557
H	-4.2544606013	-1.5822551816	-1.2017748902	 0.142783
H	-3.9394270364	-1.7326573093	 1.5425102511	 0.147241
65.2478	135.4335	157.6993	195.9332	259.5613	300.0319	359.8682	409.2248	529.6268	623.0741	647.6305	705.6091	766.6314	802.5098	866.0881	912.5912	970.3951	1050.6177	1053.4724	1080.6426	1105.0333	1154.8185	1193.7689	1251.1165	1296.5302	1379.1269	1415.8759	1420.4208	1448.398	1495.57	1549.464	1619.1225	1778.9685	2953.5389	3004.2707	3057.4629	3271.3391	3293.8597	3806.9479
OCC1=C(C=O)C=CO1	OCc1c(C=O)cco1	
InChI=1S/C6H6O3/c7-3-5-1-2-9-6(5)4-8/h1-3,8H,4H2	InChI=1S/C6H6O3/c7-3-5-1-2-9-6(5)4-8/h1-3,8H,4H2
