20
gdb 8433	2.69539	2.05653	1.76562	1.1319	74.35	-0.2442	0.0744	0.3186	891.569	0.175582	-348.980505	-348.972046	-348.971101	-349.012374	33.352	
C	-0.1031039742	 1.5756486779	 0.0272655455	-0.453998
C	 0.0052009843	 0.0513036003	 0.0074444764	 0.258904
C	-1.3552043297	-0.5885606915	-0.2757205185	-0.426422
C	 1.1312829385	-0.5792179119	-0.8975992912	-0.277556
C	 1.7068127527	-1.3020875648	 0.3257155223	-0.097468
C	 2.1385648815	-0.2766703661	 1.3515203762	-0.356915
C	 0.6831759395	-0.6285739361	 1.2221705875	 0.377776
O	-0.0242191965	-1.2044777553	 2.2674152436	-0.462799
H	 0.8597021695	 2.052895176	 0.2337745992	 0.109355
H	-0.4600583453	 1.9551035999	-0.9371112011	 0.11304
H	-0.8138651387	 1.9086349332	 0.7931298346	 0.107045
H	-1.7384556638	-0.2621527859	-1.2489023481	 0.104322
H	-1.2862510196	-1.6806281193	-0.281643411	 0.118109
H	-2.0870257467	-0.311573835	 0.4899914878	 0.110616
H	 0.7263740517	-1.2463995201	-1.6621738269	 0.099767
H	 1.8101764439	 0.1342086512	-1.3772787726	 0.089638
H	 2.0783523787	-2.3188081194	 0.3501351547	 0.09016
H	 2.6078974272	-0.6954745029	 2.2365448849	 0.11001
H	 2.5393803471	 0.6858775823	 1.0405997008	 0.101542
H	-0.0750680302	-0.5661879926	 2.9869964858	 0.284874
149.4034	201.2742	221.361	231.8521	271.3252	281.2138	348.2015	379.8886	424.5272	454.2976	498.3008	618.3392	648.7626	794.0245	833.5577	868.3556	900.4378	929.7638	953.6798	976.4477	990.761	1013.6618	1026.1992	1041.8197	1082.6285	1143.3487	1173.573	1220.2242	1226.0687	1240.1702	1272.4692	1302.564	1323.8834	1387.3502	1403.6018	1419.9525	1476.9632	1481.6489	1485.0209	1500.5939	1505.3567	1505.8372	3021.8136	3029.6801	3040.5717	3082.8645	3097.0134	3097.3087	3099.9142	3103.1335	3106.7958	3188.2824	3198.0741	3797.3817
CC1(C)CC2CC12O	CC1(C)C[C@H]2C[C@@]12O	
InChI=1S/C7H12O/c1-6(2)3-5-4-7(5,6)8/h5,8H,3-4H2,1-2H3	InChI=1S/C7H12O/c1-6(2)3-5-4-7(5,6)8/h5,8H,3-4H2,1-2H3/t5-,7-/m0/s1
