17
gdb 126270	2.49687	1.32858	0.92325	3.8105	73.24	-0.2319	-0.0209	0.211	1276.5733	0.133895	-455.123599	-455.11428	-455.113335	-455.158777	32.278	
C	 0.1351762649	 1.6077867616	-0.2022519149	-0.369416
C	-0.0247064729	 0.1140846901	 0.1249363481	-0.298051
C	-1.4478863611	-0.3385430589	 0.1591073898	 0.114537
C	-2.2292821154	-0.7592055941	 1.2115954891	 0.447573
O	-1.8853325819	-0.8774236698	 2.4857976781	-0.257848
C	-2.8923243072	-1.3519982931	 3.391430179	-0.254478
O	-3.4454247489	-1.0601080828	 0.8085768607	-0.25146
N	-3.4219996162	-0.7943549206	-0.6758487135	-0.048053
N	-2.26830538	-0.3973627465	-0.9333435607	-0.13892
H	 1.1928789589	 1.8856642199	-0.2394658837	 0.113816
H	-0.3136726919	 1.839985525	-1.172281314	 0.136163
H	-0.3556816911	 2.2299909022	 0.5525268666	 0.118541
H	 0.5267811544	-0.4807342543	-0.6128904557	 0.122045
H	 0.4230643411	-0.1063671073	 1.099647377	 0.116701
H	-3.227021455	-2.3531561353	 3.106621191	 0.15067
H	-2.4143555172	-1.3777173943	 4.3701541378	 0.1476
H	-3.7493610207	-0.6732284219	 3.4058231954	 0.15058
38.1807	84.1489	149.3162	160.5896	167.5194	230.2886	288.1908	308.5992	399.3823	415.6567	576.4126	619.26	673.7952	747.7032	761.3389	788.9179	964.9778	980.8227	1034.9234	1069.6947	1088.1393	1176.8684	1205.9086	1230.756	1269.4379	1329.4205	1364.987	1406.9822	1430.4134	1468.5983	1479.5766	1486.6917	1495.8984	1497.7497	1502.7091	1510.4384	1648.8105	3035.1993	3039.6958	3047.9683	3077.9691	3111.3719	3119.6674	3123.9519	3164.305
CCC1=C(OC)ON=N1	CCc1c(OC)onn1	
InChI=1S/C5H8N2O2/c1-3-4-5(8-2)9-7-6-4/h3H2,1-2H3	InChI=1S/C5H8N2O2/c1-3-4-5(8-2)9-7-6-4/h3H2,1-2H3
