19
gdb 100591	4.12391	0.8291	0.70908	3.6814	74.9	-0.2495	-0.0239	0.2257	1576.7758	0.158415	-456.380835	-456.370878	-456.369934	-456.416448	35.529	
C	 0.1294233473	 1.4733277028	 0.4089543614	-0.388051
C	 0.225432351	-0.0516706045	 0.331003267	-0.189334
C	 0.4309226233	-0.5619653424	-1.0933775411	 0.058326
O	 1.6539665131	-0.0927649662	-1.6753789984	-0.440316
C	 0.3233392549	-2.0904005623	-1.1943280996	 0.32622
N	-0.4282942463	-2.7469304483	-0.412881553	-0.507397
N	 1.0969284561	-2.5998539569	-2.2538457988	-0.334477
C	 1.1714510336	-3.9040662544	-2.6651279965	 0.163483
O	 0.5711502762	-4.8362043089	-2.1768935	-0.301455
H	 1.0161873385	 1.9512993864	-0.0177496717	 0.119166
H	-0.7417214761	 1.8410240591	-0.1442576033	 0.119898
H	 0.0294605339	 1.8048540287	 1.4463341089	 0.117582
H	 1.055308594	-0.4182042129	 0.9526551103	 0.091617
H	-0.673057202	-0.5289175904	 0.7289541514	 0.145352
H	-0.350956868	-0.1458309996	-1.7430907598	 0.119924
H	 2.3496740783	-0.202860373	-1.016265265	 0.287706
H	-0.4192541757	-3.7390476106	-0.6529588284	 0.253022
H	 1.6707250742	-1.9087020673	-2.7200341971	 0.264842
H	 1.8623548636	-4.0203072094	-3.5223125763	 0.093893
44.4102	78.9506	111.8715	157.451	219.0298	248.5863	261.4785	293.0689	338.1829	382.6631	425.8424	488.498	532.3046	654.2582	738.8471	773.7411	834.9295	894.2639	930.7867	971.2013	986.0886	1028.155	1055.7734	1065.7022	1113.3665	1137.8236	1192.5023	1242.4173	1287.0828	1326.1215	1340.7215	1382.0826	1406.2702	1415.0167	1437.5712	1482.7091	1497.4733	1507.7909	1509.8152	1728.9907	1808.5554	2948.8578	3008.4754	3029.6159	3038.5774	3098.4186	3110.2198	3121.5631	3481.8034	3576.4042	3789.8045
CCC(O)C(=N)NC=O	CC[C@@H](O)C(=N)NC=O	
InChI=1S/C5H10N2O2/c1-2-4(9)5(6)7-3-8/h3-4,9H,2H2,1H3,(H2,6,7,8)	InChI=1S/C5H10N2O2/c1-2-4(9)5(6)7-3-8/h3-4,9H,2H2,1H3,(H2,6,7,8)/t4-/m1/s1
