21
gdb 70618	2.33667	1.84524	1.29265	2.3438	81.91	-0.2318	0.0647	0.2964	1061.1098	0.184695	-383.237876	-383.229721	-383.228777	-383.270124	32.932	
C	-0.4781639436	 1.3437928578	 0.1392080671	-0.519682
C	-0.0172941308	-0.0857552578	 0.0203887009	 0.249947
N	-0.3304767709	-1.0517148082	 1.1090536758	-0.376313
C	 1.0760081024	-0.6684368903	 0.843620749	-0.076913
C	 1.8285483185	-1.7091257445	 0.0345681914	-0.218665
C	 0.8567560632	-2.0560738288	-1.1208012111	-0.289558
C	 0.0094623098	-0.7976967082	-1.3170928473	 0.343506
C	-1.0827082774	-0.7045104802	-2.3094164212	-0.297363
N	 0.214645006	-0.0433689972	-2.5686592894	-0.366241
H	 0.1076178822	 2.0194098314	-0.4938336074	 0.127189
H	-1.5338175051	 1.4530126465	-0.1362773721	 0.12794
H	-0.3688803489	 1.6961907575	 1.1697655848	 0.119542
H	-0.6674454777	-0.5304288232	 1.9159570958	 0.222843
H	 1.5998027397	-0.0692971556	 1.5829330752	 0.079522
H	 2.7523681678	-1.2618004365	-0.350349001	 0.102435
H	 2.1041902655	-2.5873832897	 0.6262442421	 0.101547
H	 1.3705962333	-2.3261710084	-2.0452138353	 0.107749
H	 0.2115254192	-2.8870822394	-0.8261994466	 0.118692
H	-1.3010134471	-1.5517294639	-2.9544666947	 0.115501
H	-1.9457729128	-0.0852377557	-2.0770832931	 0.105415
H	 0.1222966167	 0.9565098847	-2.4070061328	 0.222907
95.9173	189.2123	226.6102	249.8904	289.4846	358.6522	386.1986	439.8701	457.2256	559.9645	611.973	661.8503	775.6452	822.1655	828.9341	872.7308	893.9002	915.5442	931.8891	961.6285	973.3209	982.9516	1038.0855	1056.7657	1072.4787	1096.0203	1108.0159	1123.2524	1145.0108	1196.7498	1228.8714	1249.8837	1263.2175	1298.1726	1318.3935	1336.5638	1364.5484	1411.3318	1416.0173	1440.3292	1474.0321	1487.7121	1491.9409	1501.838	1516.1886	3024.6443	3040.1902	3071.5135	3084.3341	3086.2864	3097.3837	3101.7175	3125.0653	3151.2982	3183.2985	3486.5881	3498.4714
CC12NC1CCC21CN1	C[C@]12N[C@H]1CC[C@]12CN1	
InChI=1S/C7H12N2/c1-6-5(9-6)2-3-7(6)4-8-7/h5,8-9H,2-4H2,1H3	InChI=1S/C7H12N2/c1-6-5(9-6)2-3-7(6)4-8-7/h5,8-9H,2-4H2,1H3/t5-,6-,7+/m0/s1
