16
gdb 66523	5.061	1.34672	1.31443	3.5897	72.09	-0.2316	-0.021	0.2105	983.115	0.124604	-400.67647	-400.669603	-400.668659	-400.707562	27.308	
C	-0.0972271103	 1.4955982643	-0.0907585079	-0.528007
C	 0.0940898283	 0.0257277148	 0.0394457825	 0.362103
C	 0.6560718711	-1.0171290346	-0.8506023441	-0.10224
C	 1.237120163	-1.8787708164	 0.2780851394	-0.212576
C	 0.3819622088	-0.9353990627	 1.2366916753	-0.131766
C	-0.8261076714	-1.812792483	 0.7527919039	-0.141947
N	-0.8412728489	-0.9969940629	-0.521208839	-0.188769
C	 0.1698360331	-2.9621974612	 0.5214216293	 0.464458
O	 0.1685423456	-4.14480324	 0.685123682	-0.316024
H	 0.8268296441	 2.0373716418	 0.1387412588	 0.127502
H	-0.3957272801	 1.7418906403	-1.1146745199	 0.140691
H	-0.8809689612	 1.8539009938	 0.5859004429	 0.130749
H	 0.925877522	-0.9909874968	-1.8985368152	 0.110309
H	 2.3073779707	-2.0474530497	 0.3527748634	 0.096711
H	 0.6525065016	-0.726492402	 2.2673641443	 0.092539
H	-1.7948249164	-1.9267736258	 1.2316446544	 0.096267
125.3969	202.4229	208.9418	294.064	417.5577	520.3341	580.5226	652.6779	694.6008	719.0738	772.6364	799.3677	808.7009	852.5116	899.1704	927.7535	949.253	978.7179	1000.1189	1016.4814	1054.1368	1087.4904	1104.217	1136.7665	1162.7025	1174.0208	1203.7534	1212.9127	1238.8869	1256.4537	1400.5659	1453.8835	1478.5129	1490.3103	1896.2104	3028.926	3093.6242	3108.3218	3157.8954	3164.6289	3171.6083	3198.9049
CC12C3C4C1C(N23)C4=O	C[C@@]12[C@H]3[C@H]4[C@@H]1[C@@H](N23)C4=O	
InChI=1S/C7H7NO/c1-7-3-2-5(9)4(3)8(7)6(2)7/h2-4,6H,1H3	InChI=1S/C7H7NO/c1-7-3-2-5(9)4(3)8(7)6(2)7/h2-4,6H,1H3/t2-,3+,4+,6+,7-,8?/m0/s1
