20
gdb 51887	3.60909	0.91777	0.84126	2.7674	76.94	-0.2502	0.0307	0.2808	1408.0931	0.173023	-440.322523	-440.313894	-440.31295	-440.357034	32.171	
O	-0.1484021461	 0.1443046826	 0.7080425978	-0.324355
C	-0.0590902468	 1.2388568674	 0.192704423	 0.149976
N	 1.0867140483	 1.795983209	-0.2835967414	-0.289485
C	 2.3849353362	 1.137445187	-0.2370839408	 0.035461
C	 2.9560510033	 0.8998545962	-1.6439907426	-0.212317
C	 4.3616694811	 0.2969545763	-1.5505911631	-0.079779
O	 5.2311770008	 1.1078795519	-0.7810432863	-0.240811
C	 4.7732135946	 1.2571759252	 0.5508012741	-0.079762
C	 3.3969147321	 1.9284070508	 0.6068521631	-0.212371
H	-0.9282563252	 1.9129819611	 0.0551999756	 0.072972
H	 1.0309628247	 2.7165622552	-0.6920964345	 0.243229
H	 2.1947136084	 0.1715713271	 0.2414867213	 0.124919
H	 2.2964263016	 0.2376724671	-2.2149307139	 0.108672
H	 3.0152217699	 1.8550106702	-2.1824965952	 0.095188
H	 4.304083507	-0.7157483164	-1.1148097062	 0.092145
H	 4.8170697358	 0.209192916	-2.5409322796	 0.110185
H	 4.7275826097	 0.2724987332	 1.0479078577	 0.092134
H	 5.5242412871	 1.8591227998	 1.0699205717	 0.110179
H	 3.4845608656	 2.9498244552	 0.2133417055	 0.095196
H	 3.0522600721	 2.001090505	 1.6439119638	 0.108625
23.9793	106.1397	179.0351	218.1996	233.0015	363.1864	396.3112	401.0385	455.2602	486.2865	535.6369	592.275	755.1125	822.1602	852.0077	896.9279	916.4936	990.8527	998.5079	1015.4673	1031.317	1078.9138	1105.8288	1156.0787	1170.4872	1193.8536	1210.0179	1261.8788	1281.6965	1308.2983	1331.7357	1348.503	1377.2716	1389.7921	1391.3135	1424.711	1432.0761	1469.3944	1484.2477	1493.7922	1506.4482	1531.2791	1803.5071	2931.3855	2955.7829	2961.8272	3020.4491	3023.7829	3069.3661	3079.6029	3086.7174	3088.1522	3090.6738	3620.3481
O=CNC1CCOCC1	O=CNC1CCOCC1	
InChI=1S/C6H11NO2/c8-5-7-6-1-3-9-4-2-6/h5-6H,1-4H2,(H,7,8)	InChI=1S/C6H11NO2/c8-5-7-6-1-3-9-4-2-6/h5-6H,1-4H2,(H,7,8)
