17
gdb 39038	3.20789	1.70425	1.27138	1.747	73.41	-0.2443	-0.0024	0.2419	982.7667	0.137522	-421.806521	-421.799635	-421.79869	-421.837716	27.462	
C	-0.0238052135	 1.493284867	-0.0594625508	-0.204149
O	 1.1612857636	 1.8740260587	 0.6642194104	-0.272869
C	 2.2048161216	 0.9131145994	 0.4609662124	-0.190268
C	 1.4900440069	-0.3525370191	 0.0384104769	 0.357425
O	 1.9911268962	-1.2132420988	-0.9965948447	-0.299607
C	 1.5621642198	-1.804310493	 0.2435756988	-0.07936
C	 0.1264004895	-2.3361246526	 0.2002784962	-0.282972
C	-0.7201845114	-1.0852349981	-0.0189007619	-0.26423
C	 0.0456597849	 0.0023121084	-0.0812627316	 0.317266
H	-0.8823116325	 1.9090326279	 0.4746819365	 0.124675
H	-0.0084701892	 1.9191701056	-1.0762635455	 0.109609
H	 2.8917288686	 1.2316462368	-0.3367033166	 0.113667
H	 2.7665527692	 0.831284101	 1.3958556092	 0.120607
H	 2.3368800098	-2.3122971058	 0.8107903215	 0.102385
H	 0.0055565985	-3.0787783344	-0.5977702619	 0.129288
H	-0.1415034802	-2.8333971447	 1.1413393493	 0.115724
H	-1.8008008217	-1.1256488084	-0.0958712282	 0.102808
129.3882	193.8715	263.3639	291.5854	404.1839	446.4832	560.1024	603.2329	635.0887	766.189	768.3913	804.3024	839.3826	871.5356	906.9647	922.8167	961.1699	987.511	1027.2681	1050.9147	1057.0224	1085.7958	1107.9678	1178.5706	1201.5038	1209.9421	1225.2951	1282.7652	1300.004	1315.9586	1334.6527	1383.2625	1453.5982	1462.9823	1501.4173	1511.8078	1734.352	2966.9001	3001.3663	3028.5632	3064.0826	3081.6086	3088.8561	3156.9778	3196.0603
C1OCC23OC2CC=C13	C1OC[C@@]23O[C@@H]2CC=C13	
InChI=1S/C7H8O2/c1-2-6-7(9-6)4-8-3-5(1)7/h1,6H,2-4H2	InChI=1S/C7H8O2/c1-2-6-7(9-6)4-8-3-5(1)7/h1,6H,2-4H2/t6-,7+/m1/s1
