21
gdb 115962	3.05218	1.25078	1.02261	0.5577	77.54	-0.2438	0.0803	0.3241	1219.351	0.184259	-424.218532	-424.210078	-424.209134	-424.25181	32.319	
O	-0.0648767014	 1.413367505	-0.1210395793	-0.426396
C	-0.0038987373	 0.0088017783	 0.0994915873	-0.100463
C	-1.4048607176	-0.5545840637	-0.0818826355	 0.025026
C	-2.0153180283	-0.3456397714	-1.4833597126	-0.215018
C	-3.1657021912	-1.3713451664	-1.5437859504	-0.23548
C	-2.6434610674	-2.5935443922	-0.77168345	-0.06729
C	-1.5297420663	-3.4075059109	-1.462074885	-0.076624
O	-0.5057411208	-2.8045262681	-0.6430067562	-0.29976
C	-1.4899947779	-2.0692072513	 0.1289697092	 0.104859
H	 0.8315302247	 1.7592400319	-0.0862559247	 0.285615
H	 0.6744069858	-0.4832419296	-0.6114952607	 0.103961
H	 0.3605261815	-0.2163954217	 1.1153056165	 0.080612
H	-2.0628201407	-0.0845412613	 0.6633135522	 0.076308
H	-2.3436808807	 0.6817632772	-1.649024398	 0.109386
H	-1.2601972958	-0.5710486125	-2.2458509619	 0.105274
H	-4.0512540812	-0.9710008912	-1.0361569451	 0.099294
H	-3.4674902507	-1.6183385209	-2.5669677283	 0.095987
H	-3.4294122717	-3.1860205035	-0.3021893958	 0.073061
H	-1.5812733457	-4.4931364129	-1.3091253147	 0.097287
H	-1.3762054771	-3.2065594668	-2.5304405988	 0.097878
H	-1.4656331903	-2.3717743679	 1.1821416719	 0.066483
85.1307	117.425	161.1734	197.5207	261.9557	291.8996	351.7387	398.5723	493.6188	584.6655	657.5351	786.1876	827.4468	851.7988	883.0165	893.6404	933.3849	948.5825	962.7492	995.4326	1026.9379	1051.8996	1074.4451	1084.0589	1095.6551	1144.1749	1162.0507	1181.4598	1194.2091	1226.439	1242.8113	1267.0092	1272.1343	1306.8639	1311.3187	1324.549	1338.7258	1352.0103	1369.763	1388.1694	1456.4164	1485.3102	1495.8641	1524.3481	1525.7754	2965.6197	3004.1495	3004.8434	3025.697	3033.8048	3039.9799	3043.499	3046.0469	3079.0474	3102.9195	3117.5448	3831.2745
OCC1CCC2COC12	OC[C@H]1CC[C@H]2CO[C@@H]12	
InChI=1S/C7H12O2/c8-3-5-1-2-6-4-9-7(5)6/h5-8H,1-4H2	InChI=1S/C7H12O2/c8-3-5-1-2-6-4-9-7(5)6/h5-8H,1-4H2/t5-,6+,7+/m1/s1
