23
gdb 113163	2.90915	0.97006	0.85086	2.702	87.76	-0.2378	-0.0065	0.2313	1503.886	0.202888	-388.314866	-388.304095	-388.30315	-388.351141	39.349	
C	-0.1001224955	 1.4988642016	 0.0512832282	-0.371393
C	 0.2373208512	 0.0100331274	-0.1034453271	-0.214457
C	 0.8153411554	-0.5699068352	 1.1706810849	 0.014059
C	-0.0408256682	-1.1285342965	 2.2567541892	-0.309734
C	 0.8556112532	-2.0788287838	 1.4627623716	 0.186837
C	 0.2092354716	-3.0662279131	 0.5085544287	-0.48813
C	 2.0992164785	-2.502238567	 2.1985359902	 0.331948
C	 2.6987891959	-3.8603404061	 1.877588434	-0.490708
O	 2.6190851987	-1.776728447	 3.0233990878	-0.323228
H	 0.7905530221	 2.080383166	 0.312090191	 0.119514
H	-0.5080072124	 1.9096084368	-0.8774626047	 0.110751
H	-0.8392677456	 1.6532800081	 0.8440724475	 0.120486
H	-0.666775544	-0.5341724515	-0.3972575039	 0.0953
H	 0.9543907993	-0.1179153867	-0.9247225088	 0.099291
H	 1.7079224458	-0.0627998414	 1.5285443062	 0.105992
H	 0.247807905	-0.9415903647	 3.2845051299	 0.131959
H	-1.1079791274	-1.2167525557	 2.0754883407	 0.106446
H	-0.7066551422	-2.656474104	 0.0778441847	 0.120835
H	 0.8697011727	-3.3320133531	-0.324190407	 0.119237
H	-0.0673581602	-3.9936089573	 1.021592353	 0.119711
H	 2.9350640011	-3.9422734703	 0.8110816444	 0.136928
H	 3.6059190694	-3.9966027156	 2.4668123582	 0.13966
H	 1.9898486455	-4.6637065709	 2.1059799215	 0.138695
40.3077	68.671	134.2064	150.324	161.7469	218.3866	246.8398	280.5779	287.445	345.5225	382.806	429.3377	469.7975	564.6546	614.146	669.7558	769.2848	800.459	836.7261	892.9949	941.8664	951.6554	970.1718	1004.3273	1037.5979	1064.6289	1074.9408	1103.9079	1116.2077	1137.123	1174.9716	1204.0372	1282.1183	1297.9996	1318.4103	1346.9833	1380.7329	1405.8367	1417.9701	1424.3784	1460.1856	1471.8658	1474.9745	1485.3035	1497.598	1501.4141	1502.1966	1509.0536	1776.0547	3021.7401	3032.7252	3033.8192	3039.9392	3060.6638	3087.6058	3099.7908	3103.3515	3106.8291	3121.6289	3127.1592	3145.0508	3154.2432	3224.4527
CCC1CC1(C)C(C)=O	CC[C@H]1C[C@]1(C)C(=O)C	
InChI=1S/C8H14O/c1-4-7-5-8(7,3)6(2)9/h7H,4-5H2,1-3H3	InChI=1S/C8H14O/c1-4-7-5-8(7,3)6(2)9/h7H,4-5H2,1-3H3/t7-,8+/m0/s1
