22
gdb 22115	2.50982	0.87001	0.77621	1.4629	81.86	-0.2406	0.0094	0.2499	1594.6475	0.191053	-441.450399	-441.439234	-441.438289	-441.487323	40.266	
C	-1.7465172351	 0.0053982935	-1.0766515817	-0.380079
C	-0.5146220603	-0.4058575787	-0.2475734518	-0.261342
C	 0.7074816089	-0.5907759357	-1.1166930075	 0.334163
C	 1.1041536196	-1.9695332694	-1.5911747252	-0.264684
C	 2.1551921281	-2.6577125393	-0.7025703485	 0.141595
C	 1.6971331005	-2.9123844236	 0.7330858138	-0.404724
O	 2.4580126405	-3.8816436682	-1.3668836279	-0.436857
N	 1.4515584827	 0.3665710014	-1.5252829497	-0.172878
O	 1.0233018041	 1.6170700201	-1.0404322326	-0.401143
H	-1.5622424983	 0.9558442425	-1.5823317555	 0.140131
H	-1.98500066	-0.7465846543	-1.8357064371	 0.118502
H	-2.6221348421	 0.12067434	-0.4306934823	 0.114015
H	-0.3104017754	 0.3677132421	 0.4980244897	 0.125739
H	-0.7251529818	-1.3383694164	 0.2842206221	 0.099609
H	 0.2196218048	-2.6146976074	-1.6481797924	 0.105189
H	 1.5307889741	-1.901632593	-2.5946996739	 0.127572
H	 3.0424605773	-2.0051778865	-0.6828512109	 0.079489
H	 2.4800216518	-3.4343127824	 1.2960685421	 0.104023
H	 1.4868116522	-1.9767679442	 1.259924855	 0.125782
H	 0.7977653748	-3.536924643	 0.7468173291	 0.121386
H	 3.1106407894	-4.3521483703	-0.8387521603	 0.279609
H	 1.6737912142	 2.2126445628	-1.4262154744	 0.304902
43.9215	67.8183	80.8631	127.7015	226.3889	238.8197	260.7911	270.2458	294.8039	316.5684	345.079	382.8672	411.0823	441.7323	460.723	610.6784	716.7535	787.9257	806.1302	839.7718	894.3841	951.8325	976.9521	994.1854	1048.7409	1077.9208	1086.5553	1119.3647	1126.075	1211.0251	1250.986	1276.4131	1293.6861	1328.5921	1351.1686	1384.4509	1402.7057	1406.2304	1408.7501	1416.114	1477.9141	1484.1952	1496.1874	1497.6252	1498.9308	1509.9391	1720.9804	2976.9919	3026.9035	3041.3481	3044.5292	3054.3025	3091.0619	3096.2491	3108.1588	3110.0057	3113.9997	3133.9707	3817.7791	3824.7888
CCC(CC(C)O)=NO	CCC(=NO)C[C@@H](C)O	
InChI=1S/C6H13NO2/c1-3-6(7-9)4-5(2)8/h5,8-9H,3-4H2,1-2H3	InChI=1S/C6H13NO2/c1-3-6(7-9)4-5(2)8/h5,8-9H,3-4H2,1-2H3/t5-/m1/s1
