17
gdb 71757	3.59177	1.83215	1.57937	1.5943	69.19	-0.2256	0.0645	0.2901	873.506	0.137382	-421.758724	-421.752455	-421.75151	-421.789018	26.47	
C	 0.0130890612	 1.5260606885	-0.1388190843	-0.516035
C	-0.045319316	 0.0343697957	-0.0237025248	 0.455958
O	 0.5194655571	-0.7073233878	-1.13307219	-0.332786
C	-0.2362045241	-1.8283148719	-0.6153881357	 0.066186
C	 0.4432385747	-2.1960310727	 0.730680451	 0.070917
O	-0.6340865484	-2.6234655427	 1.6026168068	-0.302301
C	-1.0498648635	-1.2431233186	 1.5525031038	 0.083308
C	 0.3901393791	-0.7288637383	 1.2776056744	-0.163925
C	-1.2999670198	-0.8916758116	 0.049979595	-0.175888
H	 1.0539891441	 1.8666961336	-0.159126502	 0.133609
H	-0.4774050636	 1.8642731539	-1.0560365741	 0.132302
H	-0.4822373909	 1.9972108551	 0.7161617768	 0.124956
H	-0.453364275	-2.6055446974	-1.3451056209	 0.087523
H	 1.3184333988	-2.8425604581	 0.740116487	 0.088535
H	-1.7348152419	-0.9348400053	 2.3396194924	 0.087138
H	 1.0986942642	-0.372415344	 2.0208735972	 0.080317
H	-2.262216006	-0.7019718183	-0.4182108628	 0.080186
206.1544	242.6966	259.456	456.4725	500.3679	558.3943	582.84	717.3322	768.2509	816.8928	830.513	846.773	860.4667	874.4277	889.9203	898.9047	935.9254	947.5956	954.5258	985.285	1034.9945	1079.7573	1121.0086	1128.2794	1143.1436	1157.1183	1179.1974	1211.1522	1216.6361	1257.1301	1279.3406	1285.8701	1328.597	1363.6557	1417.4161	1476.4857	1492.941	3035.7352	3104.5546	3115.3595	3139.3576	3139.7605	3147.5357	3154.8078	3160.7241
CC12OC3C4OC(C14)C23	C[C@@]12O[C@H]3[C@@H]4O[C@@H]([C@H]14)[C@@H]23	
InChI=1S/C7H8O2/c1-7-2-4-3(7)6(9-7)5(2)8-4/h2-6H,1H3	InChI=1S/C7H8O2/c1-7-2-4-3(7)6(9-7)5(2)8-4/h2-6H,1H3/t2-,3+,4-,5+,6+,7+/m0/s1
