19
gdb 50753	3.30972	1.08057	0.86235	2.2174	79.28	-0.2464	-0.0255	0.2209	1321.1535	0.159417	-423.029283	-423.020661	-423.019716	-423.0639	31.545	
O	-0.9026077552	 0.5364856107	-0.1591655559	-0.245839
C	-0.3345376176	 1.5750318558	 0.0535272954	 0.144882
C	 1.1732367015	 1.7806826323	-0.0311541551	-0.112696
C	 1.4561874166	 2.5746365531	-1.3217096615	-0.215467
C	 2.9066337186	 3.0216309677	-1.5071959666	-0.09522
O	 3.2113421361	 4.1611773499	-0.7285547515	-0.232357
C	 3.6292142775	 3.9077647679	 0.5906968016	-0.131621
C	 2.6610318778	 3.222048288	 1.5189647759	-0.07915
C	 1.6641388667	 2.3717354119	 1.270817091	-0.067683
H	-0.8992547003	 2.4996608327	 0.3198988146	 0.080322
H	 1.6064147438	 0.7755934966	-0.1356660975	 0.106592
H	 1.1597356015	 1.9522312303	-2.174601118	 0.111529
H	 0.8353235382	 3.4786093344	-1.3495333169	 0.114823
H	 3.607897557	 2.1987036484	-1.2937315707	 0.091723
H	 3.0569446299	 3.3224133535	-2.5496641672	 0.11108
H	 4.5721202981	 3.3269776879	 0.5888880791	 0.103139
H	 3.876889511	 4.8908676265	 1.0066903426	 0.120479
H	 2.872793401	 3.4330647256	 2.5670660263	 0.097233
H	 1.1470719478	 1.9753917766	 2.1446196745	 0.098231
32.352	59.1263	155.2294	234.2953	280.6778	309.9325	362.8607	405.5191	456.7079	502.0022	561.3799	696.2011	757.9472	824.8263	873.5369	901.8587	963.2469	986.6847	1003.4515	1031.3819	1043.4401	1052.5607	1098.7167	1156.0366	1177.3751	1221.0899	1248.2051	1272.863	1309.064	1330.6405	1344.2698	1382.1645	1397.2894	1420.1149	1424.4926	1436.2112	1472.1289	1476.5842	1499.104	1733.5323	1835.7816	2855.9277	2920.0173	2978.8811	3009.149	3027.0337	3059.3305	3068.2111	3074.0253	3113.7431	3138.7443
O=CC1CCOCC=C1	O=C[C@H]1CCOCC=C1	
InChI=1S/C7H10O2/c8-6-7-2-1-4-9-5-3-7/h1-2,6-7H,3-5H2	InChI=1S/C7H10O2/c8-6-7-2-1-4-9-5-3-7/h1-2,6-7H,3-5H2/t7-/m1/s1
