19
gdb 41295	3.59316	1.69711	1.59696	1.6895	78.01	-0.2341	0.0823	0.3164	912.7719	0.162283	-385.80997	-385.803825	-385.802881	-385.840024	27.102	
C	-0.0268502914	 1.4747749214	 0.2496484963	-0.259055
C	 1.4797437995	 1.6119534919	-0.1794881909	-0.342741
C	 1.3305506963	 0.2288141531	-0.8198476822	 0.312054
C	 2.0241735434	-1.1149588466	-0.9940421541	-0.321681
C	 0.7852665322	-1.6961973611	-1.7494689208	 0.056637
O	 0.8303889167	-0.9030626574	-2.9702357489	-0.28828
C	 0.3623459544	 0.1471600322	-2.1281731026	 0.065918
C	-0.4389738328	-0.788297895	-1.2115332956	-0.096974
C	 0.0717202284	-0.0790513969	 0.0332441424	-0.045496
H	-0.2675873385	 1.7862168057	 1.2674571713	 0.103119
H	-0.7159898473	 1.9770066996	-0.4337323265	 0.109101
H	 1.7560528688	 2.4469967128	-0.8299782459	 0.098484
H	 2.144216997	 1.6099452159	 0.6904184865	 0.106013
H	 2.8920192736	-1.1530568211	-1.6563643669	 0.108291
H	 2.2557402159	-1.5964318967	-0.0401800693	 0.095463
H	 0.7057058742	-2.7691651113	-1.9197129111	 0.083121
H	 0.035233244	 1.0513220078	-2.6388540036	 0.082654
H	-1.4460828926	-1.1514990282	-1.4236422664	 0.068852
H	 0.1788369283	-0.6430565762	 0.9633970581	 0.064521
243.4717	263.9909	362.3242	436.1505	510.5033	567.1388	661.0534	680.3675	725.0253	763.2783	802.3007	839.0881	843.1492	871.6173	886.1843	917.8429	919.1519	955.3423	984.2054	1024.2227	1027.3376	1043.1179	1081.3716	1103.7595	1114.3658	1161.2733	1171.5699	1190.224	1202.8128	1217.0195	1220.8321	1239.4754	1262.0787	1267.0152	1275.4221	1309.7886	1336.3537	1352.3057	1479.5661	1484.4286	1494.0897	3044.5611	3061.0941	3068.6317	3069.9578	3093.6049	3097.2156	3118.4137	3124.7799	3130.4192	3134.8084
C1CC23CC4OC2C4C13	C1C[C@]23C[C@@H]4O[C@H]2[C@@H]4[C@H]13	
InChI=1S/C8H10O/c1-2-8-3-5-6(4(1)8)7(8)9-5/h4-7H,1-3H2	InChI=1S/C8H10O/c1-2-8-3-5-6(4(1)8)7(8)9-5/h4-7H,1-3H2/t4-,5-,6+,7-,8+/m0/s1
