13
gdb 21108	3.60661	1.9274	1.26622	3.8215	63.26	-0.2746	-0.0776	0.1971	883.7615	0.096193	-394.787424	-394.780349	-394.779405	-394.819086	24.457	
C	-0.0262171634	 1.4467583758	 0.0171903712	-0.341356
N	-0.0103089564	-0.0050039807	 0.0702696397	-0.016272
N	-0.0364891914	-0.703632452	-1.0707814584	-0.125486
N	-0.0146214153	-1.9807581661	-0.7687760948	-0.185314
C	 0.0256753043	-2.1061508186	 0.5743275934	-0.110655
C	 0.029652648	-0.8442117773	 1.1466315855	 0.223842
C	 0.0661902169	-0.4215886131	 2.5444307257	 0.078152
O	 0.1008495458	-1.1945564425	 3.4738633154	-0.25269
H	 0.8768753508	 1.8598243831	 0.4736018959	 0.158145
H	-0.0623400166	 1.7224305815	-1.0362084143	 0.179823
H	-0.9064989319	 1.8422439637	 0.530178889	 0.158117
H	 0.0497095468	-3.0639819733	 1.0677299314	 0.156785
H	 0.0594128824	 0.6776799096	 2.7099168802	 0.076909
125.7231	137.7972	181.9531	210.8783	269.3379	338.989	532.5534	662.9679	663.3138	710.0094	821.9998	893.4707	982.7409	1026.3092	1039.8524	1148.2436	1151.7389	1191.4841	1252.4205	1308.2327	1346.9045	1414.2609	1452.6412	1486.3396	1490.4068	1502.5899	1563.071	1791.3941	2892.2449	3056.5793	3125.8471	3170.3366	3281.2085
CN1N=NC=C1C=O	Cn1nncc1C=O	
InChI=1S/C4H5N3O/c1-7-4(3-8)2-5-6-7/h2-3H,1H3	InChI=1S/C4H5N3O/c1-7-4(3-8)2-5-6-7/h2-3H,1H3
