24
gdb 88422	3.05588	1.07187	0.97972	1.3773	89.85	-0.2165	0.0856	0.3021	1372.6769	0.215763	-368.370976	-368.360665	-368.35972	-368.405737	39.019	
C	 0.9995069136	-2.8814970125	-2.9745500154	-0.414209
C	 0.7384073577	-3.3856018428	-1.5717133684	-0.028751
C	 1.8610600099	-3.7454243349	-0.6312595956	-0.337075
C	 0.9699729998	-2.5616445252	-0.3131508699	 0.319664
C	 1.5594313455	-1.1638320861	-0.4304854113	-0.461634
C	-0.1161762196	-2.6430158414	 0.7301917981	-0.049584
C	-0.4202442394	-3.8550306555	 1.541836066	-0.266802
N	 0.1039834522	-2.6546132631	 2.1848295079	-0.093179
C	 1.4603439332	-2.7269560223	 2.7122061724	-0.316162
H	 1.9123832966	-2.2832987452	-3.0362420354	 0.115903
H	 1.1164734376	-3.7227425677	-3.6669204261	 0.118043
H	 0.1711711477	-2.2648290547	-3.3414731531	 0.117094
H	-0.1288647473	-4.038553443	-1.5034210259	 0.08453
H	 1.7851772907	-4.6584977892	-0.0525701033	 0.108253
H	 2.8742252102	-3.5157817552	-0.9492145836	 0.104846
H	 2.3046323237	-1.095079422	-1.226481971	 0.11277
H	 0.777382615	-0.4242795603	-0.6396633417	 0.116504
H	 2.0482135482	-0.8671535247	 0.5030864872	 0.121956
H	-0.9671552977	-2.011293879	 0.4684693128	 0.085862
H	-1.4484677361	-4.117566673	 1.7804816239	 0.109228
H	 0.2475234261	-4.7096828266	 1.4469816143	 0.103701
H	 2.1618508375	-3.3135272772	 2.1021469058	 0.110694
H	 1.8617887172	-1.7137839868	 2.8185133422	 0.120372
H	 1.4197161578	-3.1745187115	 3.7108770802	 0.117976
73.9278	127.3764	157.1398	175.4244	191.2533	221.8627	228.1852	283.3655	343.5941	355.1573	391.3417	437.8279	486.961	561.299	674.6982	759.8719	792.9624	841.4197	892.1693	898.9109	936.8882	971.4119	1002.773	1022.6545	1037.8615	1065.6397	1098.9366	1104.7675	1127.0212	1134.0386	1140.206	1153.9912	1175.4139	1192.9096	1206.3429	1267.0028	1305.38	1345.5242	1402.7012	1409.4113	1419.3015	1425.78	1447.5965	1483.8492	1490.4472	1491.1478	1493.597	1499.491	1500.4853	1512.1574	1516.4863	2999.386	3028.2715	3032.8855	3068.8318	3079.4505	3085.271	3090.1239	3090.4507	3094.6335	3104.763	3118.5254	3126.5342	3133.533	3169.08	3211.1578
CC1CC1(C)C1CN1C	C[C@H]1C[C@]1(C)[C@H]1CN1C	
InChI=1S/C8H15N/c1-6-4-8(6,2)7-5-9(7)3/h6-7H,4-5H2,1-3H3	InChI=1S/C8H15N/c1-6-4-8(6,2)7-5-9(7)3/h6-7H,4-5H2,1-3H3/t6-,7+,8-,9?/m0/s1
