17
gdb 111732	2.93325	1.17078	0.97149	4.3737	74.06	-0.2639	-0.0084	0.2555	1219.1462	0.136314	-417.961342	-417.952843	-417.951898	-417.994875	31.339	
O	 0.0972305361	 1.3463041254	-0.2153029149	-0.410743
C	 0.1347298906	-0.006263427	 0.2051277439	-0.095541
C	-1.2457811766	-0.6232348035	 0.1871819692	-0.062813
N	-1.9464323589	-1.0960751462	-1.0257363253	-0.176534
C	-0.9379431684	-1.7898634773	-1.9127060119	-0.161185
C	-0.5817547968	-2.8337417479	-0.8294802113	-0.313256
C	-1.5467026897	-2.0756631064	 0.092300423	 0.176128
C	-2.4991192111	-2.7175595777	 0.9491957374	 0.216031
N	-3.2384099059	-3.2606197902	 1.6543905447	-0.334677
H	-0.3036185162	 1.3764510797	-1.0906342204	 0.293582
H	 0.8559767247	-0.5923924418	-0.3791107439	 0.097652
H	 0.4969372209	 0.0087283442	 1.2382403749	 0.131028
H	-1.9482316869	-0.0738165294	 0.8106783935	 0.130274
H	-1.4593437015	-2.2129652917	-2.7716240718	 0.132319
H	-0.1354699344	-1.1407487028	-2.2737325382	 0.113707
H	-0.946995765	-3.8316554328	-1.0721787655	 0.140535
H	 0.453566739	-2.9084784844	-0.4897199834	 0.123493
63.7447	133.4327	143.2449	202.7957	264.3514	318.2954	328.9725	411.7408	497.3057	535.7626	584.3489	627.554	718.0336	791.669	811.1143	867.8564	923.5848	974.2611	995.5969	1064.2293	1070.1214	1107.3791	1120.3593	1170.0904	1211.3924	1217.4257	1236.9399	1266.5464	1309.4692	1312.2713	1363.2216	1409.636	1458.1473	1486.9039	1499.8143	1521.7566	2347.8134	3021.2681	3067.0749	3077.5553	3080.2866	3124.1955	3142.4237	3144.2483	3810.6305
OCC1N2CCC12C#N	OC[C@H]1N2CC[C@@]12C#N	
InChI=1S/C6H8N2O/c7-4-6-1-2-8(6)5(6)3-9/h5,9H,1-3H2	InChI=1S/C6H8N2O/c7-4-6-1-2-8(6)5(6)3-9/h5,9H,1-3H2/t5-,6-,8?/m1/s1
