18
gdb 91399	3.21572	1.41011	1.33961	1.0873	71.15	-0.2477	-0.0203	0.2274	1008.881	0.150403	-439.08211	-439.074842	-439.073898	-439.113681	29.358	
O	 0.1606043646	 1.3391883732	-0.2007109388	-0.438423
C	 0.0223192816	-0.057178116	 0.0074234095	 0.133127
C	 0.7457500553	-0.4833241495	 1.3122561644	-0.233974
C	-0.2011310691	-0.3086240816	 2.5163010706	-0.13391
N	-1.2050763991	 0.7784868964	 2.1642499568	-0.343458
C	-2.0368379277	-0.2839648087	 1.4620923247	-0.13391
C	-1.4775870607	-0.4534573461	 0.0354391112	-0.233974
C	-1.3652594323	-1.3035704921	 2.3944768507	 0.436353
O	-1.6887178803	-2.3198079852	 2.9339481832	-0.31501
H	-0.2738695366	 1.7448898881	 0.5653353991	 0.282865
H	 0.508462764	-0.5307233787	-0.85018074	 0.082983
H	 1.0794866973	-1.5264688339	 1.265420526	 0.113544
H	 1.6341371827	 0.144955548	 1.4193075123	 0.12038
H	 0.3110772047	-0.2037853363	 3.4746792518	 0.09656
H	-1.6893925665	 1.0590596915	 3.0141585896	 0.236361
H	-3.1204115122	-0.1576895307	 1.5040458841	 0.09656
H	-2.0049001375	 0.1938398893	-0.670517139	 0.12038
H	-1.6263440582	-1.4901205378	-0.2884825162	 0.113544
112.3801	200.0343	201.3612	368.8095	413.6899	439.9007	447.7548	518.6895	582.1978	616.774	726.4649	774.5222	823.9536	824.6322	858.3504	896.7049	898.744	921.1865	976.1848	1033.1467	1045.5299	1078.8911	1079.0526	1102.9566	1123.2531	1143.8339	1197.7954	1258.1332	1264.5916	1309.6101	1311.6729	1336.248	1343.0527	1363.7891	1366.0213	1464.0708	1476.2192	1487.0916	1896.6002	3041.4179	3041.5781	3071.0141	3094.1471	3094.7245	3102.0289	3103.837	3492.075	3694.367
OC1CC2NC(C1)C2=O	O[C@H]1C[C@H]2N[C@@H](C1)C2=O	
InChI=1S/C6H9NO2/c8-3-1-4-6(9)5(2-3)7-4/h3-5,7-8H,1-2H2	InChI=1S/C6H9NO2/c8-3-1-4-6(9)5(2-3)7-4/h3-5,7-8H,1-2H2/t3-,4+,5-
