18
gdb 37816	3.09921	1.94808	1.74662	2.2264	80.71	-0.2175	-0.0016	0.2159	866.0089	0.149866	-364.695217	-364.688936	-364.687992	-364.725328	27.12	
C	-0.108541647	 1.5897710188	 0.1494641193	-0.298044
C	 1.3790608068	 1.2709250843	 0.0048967544	-0.073787
N	 1.2494040485	 0.010298574	 0.915419682	-0.207803
C	 1.9611967195	-0.8166644464	-0.1495816	-0.218503
C	 1.1473477976	 0.1132350489	-1.0428719777	 0.251827
C	 0.5440964641	-0.2117294577	-2.406835255	-0.414327
C	-0.6823995192	-1.0215222926	-1.9435335666	-0.036646
C	-0.9716238037	-0.9068769162	-0.6336163239	-0.249771
C	-0.0146230326	 0.0660534252	-0.0404112429	 0.332315
H	-0.4290888724	 1.939350761	 1.1341115212	 0.107164
H	-0.5795528077	 2.1562463812	-0.6578862506	 0.099436
H	 2.2516815382	 1.9176371403	 0.115933671	 0.080493
H	 3.0495938738	-0.6954356376	-0.1321186031	 0.092737
H	 1.6915805381	-1.8775687377	-0.1283137761	 0.101047
H	 0.2275647848	 0.6701218475	-2.979235466	 0.117256
H	 1.2081651718	-0.7909891779	-3.0578741152	 0.111915
H	-1.2722240974	-1.6032054084	-2.6462395508	 0.101041
H	-1.8200295633	-1.3684137766	-0.1421610499	 0.103653
225.8322	247.3475	386.5442	411.8433	463.2624	500.9232	551.019	710.1375	739.5621	755.6899	774.3857	825.5248	870.9905	886.3142	901.1441	917.8285	922.8152	938.5167	968.0919	1018.7935	1023.5469	1062.1757	1086.6805	1105.7695	1123.3039	1145.4665	1158.0543	1179.34	1213.9727	1228.2986	1259.739	1272.2031	1282.4032	1308.6142	1362.2651	1469.746	1489.6865	1512.6832	1608.9026	3023.1628	3035.4419	3057.1296	3065.6382	3093.5663	3097.679	3123.4974	3173.4627	3204.6143
C1C2N3CC22CC=CC132	C1[C@H]2N3C[C@@]42CC=C[C@@]134	
InChI=1S/C8H9N/c1-2-7-5-9-6(7)4-8(7,9)3-1/h1,3,6H,2,4-5H2	InChI=1S/C8H9N/c1-2-7-5-9-6(7)4-8(7,9)3-1/h1,3,6H,2,4-5H2/t6-,7-,8+/m1/s1
