19
gdb 38508	3.59531	1.42442	1.12157	1.8553	80.37	-0.2223	0.0139	0.2362	1105.3399	0.161967	-385.895098	-385.887947	-385.887003	-385.926646	28.695	
C	 0.0504747968	 1.4818015849	-0.0922289212	-0.197016
C	 1.561534262	 1.8581918798	 0.0069575658	-0.337236
C	 2.1364426288	 0.6599164232	 0.7070173317	 0.259789
C	 1.2868181086	-0.3732388209	 0.737528155	 0.296676
C	-0.0345079812	-0.0656189425	 0.0920187318	-0.352359
C	 1.9538619389	-1.5844343324	 1.2868945532	-0.130255
O	 3.0894010124	-2.0097731869	 0.4897054616	-0.257801
C	 3.3339663079	-1.1663598402	 1.6152452625	 0.057865
C	 3.4922673018	 0.3218542084	 1.2801474234	-0.385217
H	-0.4935739278	 1.9701341412	 0.7220283561	 0.106714
H	-0.4038616021	 1.8174100665	-1.0276623297	 0.099436
H	 2.0162384028	 1.9891126592	-0.9856062158	 0.108854
H	 1.7202067433	 2.8016339192	 0.5425857279	 0.101378
H	-0.902787995	-0.3618510437	 0.6918274509	 0.101887
H	-0.1328935235	-0.5875583967	-0.8701552651	 0.111739
H	 1.4273977545	-2.3865984123	 1.7954667054	 0.090871
H	 3.9188827735	-1.6167119402	 2.4133328104	 0.092884
H	 4.3084840822	 0.4845294827	 0.5653162085	 0.12354
H	 3.7327393061	 0.9078562308	 2.1770205476	 0.10825
122.2971	170.9348	192.2921	339.2947	381.4171	417.6344	525.5107	602.4264	674.0109	689.8539	767.515	825.4288	852.6146	863.0427	893.7538	900.3138	903.5413	964.7174	986.1784	1000.8079	1051.9295	1061.1239	1101.5654	1148.9417	1171.7381	1192.556	1197.0389	1229.6226	1244.6568	1255.3811	1295.1126	1308.3594	1328.3265	1337.3725	1385.7378	1410.4144	1461.7818	1483.1646	1489.8108	1506.6011	1703.6601	3003.9566	3009.6159	3022.249	3042.4914	3048.6395	3057.8527	3063.2256	3104.8066	3142.4158	3161.7239
C1CC2=C(C1)C1OC1C2	C1CC2=C(C1)[C@H]1O[C@H]1C2	
InChI=1S/C8H10O/c1-2-5-4-7-8(9-7)6(5)3-1/h7-8H,1-4H2	InChI=1S/C8H10O/c1-2-5-4-7-8(9-7)6(5)3-1/h7-8H,1-4H2/t7-,8+/m0/s1
