16
gdb 99459	2.42064	1.20674	0.87394	2.6159	76.4	-0.2859	-0.0804	0.2055	1313.9482	0.121007	-400.741963	-400.732096	-400.731152	-400.777783	34.129	
C	 0.0899799792	 1.5656286323	-0.2001942458	-0.410258
C	 0.081135881	 0.0363301194	-0.1951595312	-0.176723
C	-1.3167594586	-0.558674839	 0.0666009211	-0.248089
C	-2.2797205499	-0.1938112212	-0.9745245615	 0.282232
N	-3.018595729	 0.1014260294	-1.8127689639	-0.323005
C	-1.2709068412	-2.0977799042	 0.245461432	 0.230619
O	-0.2253796512	-2.700560211	 0.2697740287	-0.275011
C	-2.5516090732	-2.744461259	 0.4262303016	 0.268148
C	-3.6259015438	-3.262330708	 0.5862682347	-0.37751
H	 1.1023416207	 1.938371228	-0.378349661	 0.127406
H	-0.5592510816	 1.9686472959	-0.9833383228	 0.144384
H	-0.2498755094	 1.9702755865	 0.7595612783	 0.11913
H	 0.4534664512	-0.3547535039	-1.1468305809	 0.130387
H	 0.7473090362	-0.3540997201	 0.5786174507	 0.128248
H	-1.7111535295	-0.163969677	 1.0155717172	 0.153489
H	-4.5721399409	-3.728979038	 0.7206849327	 0.22655
31.2715	88.4606	110.6883	145.9101	187.7835	225.5629	245.4154	277.9083	346.8763	444.2186	471.0143	551.4314	604.1717	658.4816	689.444	721.5082	770.2123	854.0984	895.2298	963.8478	1054.1258	1076.2898	1126.3966	1158.4706	1256.3914	1265.0984	1331.8988	1364.4237	1419.7719	1484.194	1499.9419	1507.2442	1782.8689	2216.282	2356.2746	3005.4946	3037.8831	3065.3195	3096.0919	3114.3017	3121.8576	3491.5832
CCC(C#N)C(=O)C#C	CC[C@@H](C#N)C(=O)C#C	
InChI=1S/C7H7NO/c1-3-6(5-8)7(9)4-2/h2,6H,3H2,1H3	InChI=1S/C7H7NO/c1-3-6(5-8)7(9)4-2/h2,6H,3H2,1H3/t6-/m0/s1
