17
gdb 17195	3.42347	2.20085	1.61483	1.4352	69.06	-0.225	0.0802	0.3052	828.8245	0.141738	-363.751379	-363.744396	-363.743451	-363.782183	27.454	
C	 0.0511078184	 1.468104841	-0.3209832687	-0.332432
N	 0.0340248631	 0.033836485	-0.0325242663	-0.097021
C	-1.0453985081	-0.5052224038	 0.8923890552	-0.128943
C	-0.1110875959	-1.7329830648	 1.0894640488	-0.216473
C	 0.7874820507	-0.4673517552	 1.1890802613	-0.128935
C	-0.3118483023	 0.1308535068	 2.0918405889	 0.527451
C	-0.4795810657	 1.2676567531	 2.9832126382	-0.313322
O	-0.5291750543	-0.0953123403	 3.4634503991	-0.296935
H	 1.0149078933	 1.7147645434	-0.7783857635	 0.122539
H	-0.7278259056	 1.6786430103	-1.0611889366	 0.122541
H	-0.1019752205	 2.1370932841	 0.5369098246	 0.104892
H	-2.1027336794	-0.4851205746	 0.6264096046	 0.085937
H	-0.2464810905	-2.315783793	 2.0002769648	 0.116737
H	 0.0463514231	-2.3331972574	 0.1934459139	 0.1058
H	 1.8730329187	-0.4029677625	 1.2699623429	 0.085934
H	 0.3869208354	 1.8412667397	 3.3098559321	 0.121115
H	-1.4272004905	 1.803823888	 3.0162554107	 0.121115
161.8512	181.4993	242.3929	321.232	344.9683	353.5118	497.9103	577.5523	676.3096	746.6679	758.9014	810.4085	875.8551	889.9476	904.8009	985.5238	1021.8186	1043.9685	1074.1894	1112.1968	1113.9108	1123.5465	1144.0436	1159.8529	1167.7795	1189.3294	1191.5834	1218.3826	1238.3037	1256.0577	1439.3836	1453.1616	1482.4524	1488.7079	1500.7639	1552.6874	3004.0362	3071.7382	3081.828	3087.4639	3098.6863	3113.3513	3119.4142	3166.1172	3171.4933
CN1C2CC1C21CO1	CN1[C@H]2C[C@@H]1[C@]12CO1	
InChI=1S/C6H9NO/c1-7-4-2-5(7)6(4)3-8-6/h4-5H,2-3H2,1H3	InChI=1S/C6H9NO/c1-7-4-2-5(7)6(4)3-8-6/h4-5H,2-3H2,1H3/t4-,5+,6+
