21
gdb 111647	2.67188	1.20002	1.09898	3.2211	82.46	-0.2325	-0.0093	0.2232	1243.031	0.183408	-387.118247	-387.109511	-387.108567	-387.152089	33.3	
C	-1.0608420615	 1.0150771339	 0.4972588392	-0.376024
C	 0.2282512751	 0.3292182826	 0.0260717616	-0.214645
C	 0.8942594838	-0.4475685832	 1.1459944611	 0.009128
C	 0.6404155246	-1.8822427882	 1.4910984732	-0.06705
C	-0.0253941899	-2.7892530051	 0.4477727519	-0.237013
C	 0.8996474528	-2.7991306905	-0.7893956556	-0.333349
C	 2.2065881463	-2.1067328241	-0.3659032663	 0.414823
O	 3.2378622222	-2.1350364079	-0.9920673759	-0.332363
C	 2.0157559318	-1.4744555513	 0.975754892	-0.19654
H	-0.861193078	 1.7044433607	 1.3250470213	 0.116757
H	-1.5196719294	 1.5910698281	-0.3120042322	 0.115313
H	-1.7949877814	 0.2823295786	 0.8485332654	 0.119762
H	 0.0010234235	-0.3170113182	-0.8263410524	 0.102237
H	 0.9298622489	 1.0856932732	-0.3467930198	 0.109927
H	 1.0746923787	 0.1769310542	 2.019787507	 0.093499
H	 0.5064530942	-2.1418919747	 2.535523936	 0.090253
H	-0.1114256639	-3.7979886541	 0.8617495958	 0.111363
H	-1.0418972829	-2.4602622595	 0.2086807008	 0.107602
H	 1.1402635459	-3.8090663645	-1.1322823145	 0.130813
H	 0.4810377128	-2.2758017853	-1.6553312194	 0.132926
H	 2.8952757667	-1.3745363247	 1.6000707907	 0.102579
66.3139	81.4239	157.4352	196.208	248.9334	257.8912	400.1132	452.7069	477.9469	585.5519	613.7733	675.4722	728.586	760.3219	803.8769	826.3597	841.487	915.3127	952.3378	975.7347	984.9771	1017.2416	1032.8947	1058.4683	1093.3684	1121.7096	1138.3398	1166.768	1197.0888	1230.3778	1245.4725	1268.7651	1293.0009	1325.7053	1332.3595	1338.7996	1378.1927	1409.4513	1444.4888	1459.7011	1485.7326	1497.6153	1505.6466	1508.6986	1825.6468	3032.0076	3035.2067	3048.0331	3060.4227	3081.036	3082.2282	3102.0278	3105.3203	3107.0028	3118.7449	3165.8775	3190.5077
CCC1C2CCC(=O)C12	CC[C@H]1[C@H]2CCC(=O)[C@@H]12	
InChI=1S/C8H12O/c1-2-5-6-3-4-7(9)8(5)6/h5-6,8H,2-4H2,1H3	InChI=1S/C8H12O/c1-2-5-6-3-4-7(9)8(5)6/h5-6,8H,2-4H2,1H3/t5-,6+,8-/m0/s1
