16
gdb 106906	2.94695	1.25199	1.06265	4.1525	65.71	-0.235	-0.0338	0.2012	1133.5183	0.122919	-474.972126	-474.963419	-474.962475	-475.00596	31.781	
O	 0.1030427164	 1.3864940909	 0.1365937025	-0.399879
C	 0.0338394182	-0.0205734522	-0.0045185484	-0.185042
C	-1.3718617453	-0.5220284785	-0.1298925403	 0.273593
N	-2.2312864049	-0.8276844905	 1.0279849702	-0.392552
C	-1.9089308995	-1.9192992094	 0.0369101042	-0.25982
C	-2.8897224372	-1.6886457142	-1.0935219534	 0.419362
O	-3.6251943466	-2.38986335	-1.720237156	-0.300536
C	-2.3978566799	-0.1954217705	-1.2421984248	-0.016813
O	-3.2851130704	 0.8567451255	-1.0288559989	-0.425019
H	-0.4874600974	 1.6494619146	 0.8502732017	 0.290992
H	 0.5934353915	-0.2528739303	-0.9169742277	 0.127193
H	 0.5360491975	-0.5441775246	 0.8278917961	 0.087519
H	-1.6357500528	-1.0009587034	 1.8391257358	 0.240576
H	-1.4126689509	-2.8248391884	 0.362494358	 0.124182
H	-1.9319986616	-0.0530083416	-2.2226330165	 0.120937
H	-3.6506153771	 0.7251088927	-0.1440046024	 0.295307
65.0628	86.2715	162.2502	208.5981	256.2609	273.2124	358.5025	390.2201	471.5497	499.3078	545.2237	603.5549	718.8674	723.0682	826.1932	872.6891	906.7183	961.1718	995.2623	1035.802	1040.5225	1072.956	1117.3664	1143.4809	1164.496	1192.0125	1262.0171	1281.9802	1330.6588	1371.2845	1395.1654	1435.0279	1444.3454	1497.9977	1902.7232	2952.0889	3069.7932	3077.7247	3203.7221	3455.531	3768.8638	3815.6309
OCC12NC1C(=O)C2O	OC[C@]12N[C@H]1C(=O)[C@H]2O	
InChI=1S/C5H7NO3/c7-1-5-3(6-5)2(8)4(5)9/h3-4,6-7,9H,1H2	InChI=1S/C5H7NO3/c7-1-5-3(6-5)2(8)4(5)9/h3-4,6-7,9H,1H2/t3-,4+,5-/m0/s1
