15
gdb 66447	2.59929	1.72055	1.3645	1.458	64.59	-0.2117	0.045	0.2567	950.7073	0.109761	-457.62635	-457.618474	-457.61753	-457.658104	31.235	
O	 0.121945708	 1.3747757074	 0.1671506821	-0.454874
C	 0.0391622199	 0.0120726908	 0.0483292087	 0.303729
C	 0.8640488257	-0.9968230148	-0.7457002282	-0.171094
C	 0.8900251568	-0.994869031	 0.7903441785	-0.239007
C	-0.2987418463	-2.0188834393	 0.804999344	 0.299439
O	-0.5863498658	-3.0852685632	 1.6146351497	-0.450674
C	-0.3226571702	-1.9977980565	-0.7182267906	-0.191353
C	-1.1824409437	-1.0049247754	 0.0612177936	 0.201969
O	-2.5379434323	-0.855441503	-0.0612858407	-0.452519
H	-0.1345042186	 1.7683798392	-0.6751147932	 0.29229
H	 1.6843837456	-0.8590212918	-1.4394050968	 0.089742
H	 1.7184654285	-0.8055561219	 1.4605765392	 0.09586
H	-0.9302263519	-2.7546505844	 2.452824003	 0.287292
H	-0.6601180088	-2.7579056123	-1.4098278569	 0.098415
H	-2.893581437	-0.5519373338	 0.7820563077	 0.290786
173.6821	197.2545	212.5485	271.4809	342.318	355.0246	369.2478	404.6607	480.8377	547.9803	627.7975	659.6607	722.9382	759.8065	819.4739	845.4216	863.0676	882.5357	893.3661	926.0393	935.5477	991.5343	1072.603	1101.9634	1174.6279	1189.0937	1212.2961	1262.2246	1299.3098	1318.5246	1400.7687	1451.5048	1480.9037	3182.9144	3202.5981	3212.0508	3776.1788	3777.9144	3781.9137
OC12C3C1C1(O)C3C21O	O[C@@]12[C@H]3[C@@H]1[C@]1(O)[C@H]3[C@]21O	
InChI=1S/C6H6O3/c7-4-1-2(4)5(8)3(1)6(4,5)9/h1-3,7-9H	InChI=1S/C6H6O3/c7-4-1-2(4)5(8)3(1)6(4,5)9/h1-3,7-9H/t1-,2-,3-,4-,5-,6-/m0/s1
