20
gdb 37803	2.46073	2.06811	1.62581	0.6567	76.73	-0.2222	0.0767	0.2989	923.7226	0.175584	-403.133369	-403.126672	-403.125728	-403.164073	28.352	
C	 0.0388888386	 1.4964791239	 0.098940816	-0.243456
C	 1.4849990524	 1.9034995094	-0.1374559282	-0.042376
C	 2.5339390157	 1.2081783632	 0.6544733382	-0.013967
C	 2.2456722941	 0.4558931139	 1.9517814233	-0.25042
C	 1.411489505	-0.8238100134	 1.8606356378	-0.07753
O	 0.1229365537	-0.6622452997	 1.3053932198	-0.264491
C	 0.0522167081	-0.0505341728	 0.0210615546	 0.091021
C	 1.2610017003	-0.3206817006	-0.8984958677	-0.196478
N	 2.2357895164	 0.7712615546	-0.7307929108	-0.121844
H	-0.3683459936	 1.8309172358	 1.0572385294	 0.111937
H	-0.595106014	 1.9080335442	-0.6942044415	 0.10368
H	 1.680894688	 2.8886786653	-0.5528494129	 0.083669
H	 3.5004760301	 1.7078240356	 0.6824286042	 0.091392
H	 3.2039608926	 0.1726168028	 2.4038367554	 0.105684
H	 1.7673038927	 1.1497732508	 2.6551703269	 0.112992
H	 1.9815843896	-1.5916273494	 1.317426537	 0.094721
H	 1.2415527779	-1.2125404214	 2.8696214882	 0.106285
H	-0.8763837417	-0.4317640572	-0.41230527	 0.086501
H	 1.7192531035	-1.2996974793	-0.7412480217	 0.115286
H	 0.9275511805	-0.2850796755	-1.941964898	 0.107394
154.2488	243.3093	347.0617	377.7792	421.7039	451.3999	481.1095	624.2945	705.1206	722.4808	735.9382	789.3475	829.7221	857.8035	888.5472	889.6293	951.886	983.4725	990.214	1048.9841	1055.3626	1064.4977	1103.7207	1125.5563	1132.4603	1161.6196	1194.3718	1239.3394	1241.6455	1266.5282	1299.2489	1303.9894	1325.5544	1335.7579	1367.4939	1375.4999	1394.8769	1420.4787	1431.2958	1472.416	1482.6224	1492.0554	1522.4254	2992.8956	3020.1997	3042.3439	3045.3253	3059.8348	3074.4894	3076.8987	3098.0831	3106.1864	3115.8874	3137.3648
C1C2C3CCOC1CN23	C1[C@H]2[C@H]3CCO[C@@H]1CN23	
InChI=1S/C7H11NO/c1-2-9-5-3-7-6(1)8(7)4-5/h5-7H,1-4H2	InChI=1S/C7H11NO/c1-2-9-5-3-7-6(1)8(7)4-5/h5-7H,1-4H2/t5-,6+,7-,8?/m0/s1
