19
gdb 68673	2.32467	1.80427	1.41447	1.9923	75.12	-0.2356	-0.0132	0.2224	1004.7315	0.160096	-423.036205	-423.02818	-423.027236	-423.068441	31.106	
C	-0.0055555342	 1.5757204579	 0.0489039893	-0.484839
C	 0.0218098976	 0.0646352221	-0.0561596933	 0.154621
C	 0.7100751142	-0.6899106479	-1.2454915421	-0.276658
C	-0.3617205448	-1.8084951879	-1.0497010046	-0.17068
C	 0.0810986077	-2.6962248451	 0.14263419	-0.088741
O	 0.9115944615	-1.9652804228	 1.0284963037	-0.246636
C	 0.5055335636	-0.627330955	 1.2545772612	-0.112987
C	-1.2415139215	-0.6980733603	-0.4731682449	 0.408789
O	-2.4158101307	-0.45936966	-0.4488536208	-0.332332
H	 0.9979619191	 1.9817219688	 0.215521434	 0.1204
H	-0.409718996	 2.0234094247	-0.8636477219	 0.128154
H	-0.6423319593	 1.894934492	 0.8809519697	 0.133497
H	 0.5865005174	-0.1592566749	-2.1916582112	 0.109871
H	 1.7510875432	-0.9814145909	-1.0996287527	 0.117839
H	-0.7254462099	-2.4014768084	-1.8900786514	 0.091053
H	-0.8041573406	-3.0989575513	 0.6593899766	 0.109275
H	 0.6846355277	-3.5394737178	-0.2076257025	 0.118358
H	 1.3873496289	-0.1080235811	 1.6458054578	 0.114025
H	-0.289594054	-0.5701877621	 2.015249723	 0.106992
126.863	165.7899	203.9722	233.6019	256.2633	297.4923	408.1858	438.5761	503.3158	553.8334	677.5862	740.4939	782.0277	819.0164	862.484	891.5862	902.8374	942.7952	982.0595	1006.9301	1042.0297	1056.7409	1099.1287	1135.4349	1143.0725	1201.753	1212.2686	1225.6713	1261.4467	1266.0323	1290.7435	1302.3179	1380.7567	1407.2335	1412.4104	1484.1654	1489.6016	1491.8012	1507.2176	1517.9467	1882.0723	2977.0408	2985.0481	3032.7922	3063.6896	3074.3936	3076.0536	3099.394	3109.4921	3110.1835	3140.5819
CC12CC(COC1)C2=O	C[C@@]12C[C@@H](COC1)C2=O	
InChI=1S/C7H10O2/c1-7-2-5(6(7)8)3-9-4-7/h5H,2-4H2,1H3	InChI=1S/C7H10O2/c1-7-2-5(6(7)8)3-9-4-7/h5H,2-4H2,1H3/t5-,7+/m0/s1
