23
gdb 118068	3.66607	0.68931	0.6065	2.2083	78.94	-0.2605	0.0604	0.3209	1884.7271	0.203146	-462.559786	-462.548449	-462.547505	-462.596727	40.929	
C	-0.0039759619	 1.5999378446	 0.0516973595	-0.381874
C	 0.0113637393	 0.0698014363	 0.0128259929	-0.166908
C	-1.393455168	-0.5418778372	-0.0013103137	-0.193803
C	-1.391338209	-2.0708787729	 0.0260384535	 0.107355
O	-0.7641406508	-2.5905725387	 1.1997872263	-0.435842
C	-2.7998929076	-2.6623731269	-0.1176799267	 0.093746
O	-3.3769984701	-2.1767862304	-1.3145685459	-0.442973
C	-2.7880370829	-4.1934346054	-0.1435914331	-0.097145
O	-4.0811910621	-4.6898973627	-0.4946278624	-0.425208
H	 1.0112206695	 2.0090484651	 0.0527059571	 0.111099
H	-0.5296797615	 2.0141857605	-0.8158974186	 0.11499
H	-0.5117031082	 1.9695708628	 0.9499871581	 0.109573
H	 0.5567911271	-0.2692276004	-0.8776959961	 0.096508
H	 0.5653283881	-0.3220701847	 0.8733071288	 0.102052
H	-1.9671334699	-0.1777919187	 0.8666934085	 0.07413
H	-1.9454123685	-0.2147324289	-0.8886585336	 0.126438
H	-0.7844203889	-2.445308923	-0.8083208673	 0.092232
H	-1.1691899197	-2.1578216958	 1.9601116161	 0.277838
H	-3.3995729633	-2.3344485387	 0.7573256598	 0.035617
H	-4.0608397977	-2.8200072999	-1.5473789465	 0.288039
H	-2.1164405607	-4.5391103647	-0.9364370352	 0.11801
H	-2.4338887012	-4.5994445875	 0.8096402952	 0.108461
H	-4.658738212	-4.5779759229	 0.2680600135	 0.287664
57.6164	83.7266	90.6024	117.8904	138.5389	223.1091	251.4302	272.1883	299.2133	316.4269	340.2366	351.5224	412.4494	459.7391	543.0022	558.3614	603.5491	748.5735	853.6114	886.9185	904.5895	949.8013	1005.0388	1042.0397	1063.009	1073.7204	1091.3329	1109.3734	1126.414	1150.577	1183.8372	1236.5497	1260.3284	1291.6599	1311.9959	1342.1008	1347.166	1357.2816	1374.2948	1396.022	1407.8346	1409.6159	1414.2185	1451.5164	1481.1628	1494.4194	1495.1642	1500.3246	1511.7737	2880.3383	2981.472	3023.3986	3027.8348	3038.0382	3044.8097	3058.9618	3082.9181	3096.108	3097.6046	3101.2087	3743.4612	3793.1621	3809.6713
CCCC(O)C(O)CO	CCC[C@@H](O)[C@@H](O)CO	
InChI=1S/C6H14O3/c1-2-3-5(8)6(9)4-7/h5-9H,2-4H2,1H3	InChI=1S/C6H14O3/c1-2-3-5(8)6(9)4-7/h5-9H,2-4H2,1H3/t5-,6+/m1/s1
