17
gdb 38619	2.77378	2.24829	1.66351	1.9691	69.92	-0.2162	0.0798	0.2959	842.4451	0.138536	-421.764016	-421.757886	-421.756942	-421.794159	26.084	
C	-0.0244984079	 1.453436845	-0.138322619	-0.415433
C	 1.3137084362	 0.7651786204	 0.0294625394	 0.101995
O	 2.1568505213	 0.3754518533	-1.0283705437	-0.256192
C	 1.5847663648	-0.8030200166	-1.5451033891	 0.069667
C	 1.0247066849	-1.9667254207	-0.6835781922	 0.066129
O	 0.9878258607	-1.9958860949	 0.7309247065	-0.26924
C	-0.0246387137	-1.0566383357	 1.1603945782	-0.161355
C	 0.050782821	-0.04459046	 0.0402515256	 0.22436
C	 0.1233865867	-0.8987322803	-1.2286351715	-0.221783
H	-0.3449535263	 2.0795118609	 0.6887356891	 0.122257
H	-0.3376132946	 1.8028561124	-1.1166441999	 0.126396
H	 1.8513979855	 0.932480374	 0.9567402816	 0.10563
H	 2.00562352	-1.0691436398	-2.508852924	 0.105702
H	 1.0966361153	-2.9569488365	-1.1229811124	 0.102453
H	-0.9949139398	-1.5652551933	 1.2437926214	 0.097797
H	 0.2649270092	-0.6665257741	 2.139525931	 0.112722
H	-0.7131181131	-1.0063341239	-1.910890711	 0.088894
230.4949	233.3293	353.2426	395.3184	522.7352	579.2829	622.5512	724.2842	725.4333	763.798	790.2753	821.5879	840.1049	882.4572	925.5372	938.1252	998.028	1021.5085	1044.9895	1057.6157	1061.1649	1064.0988	1078.9806	1094.824	1119.8168	1141.4396	1168.6078	1197.5395	1242.1992	1271.8396	1300.7672	1342.2082	1351.1993	1391.6385	1411.0594	1473.4113	1517.6591	3009.3577	3099.0702	3126.2492	3153.0982	3159.6166	3166.0436	3181.3746	3216.1538
C1C2OC3C4OCC12C34	C1[C@@H]2O[C@H]3[C@H]4OC[C@@]12[C@@H]34	
InChI=1S/C7H8O2/c1-3-7(1)2-8-5-4(7)6(5)9-3/h3-6H,1-2H2	InChI=1S/C7H8O2/c1-3-7(1)2-8-5-4(7)6(5)9-3/h3-6H,1-2H2/t3-,4+,5-,6+,7-/m0/s1
