13
gdb 132555	3.20304	1.37571	0.96813	3.5414	62.62	-0.2755	-0.0483	0.2272	1092.53	0.088866	-502.069663	-502.062371	-502.061427	-502.101878	26.462	
C	-0.0295730381	 1.5276906331	 0.0178058492	-0.503169
C	-0.0069213674	 0.0268933376	-0.0135023742	 0.08817
C	-0.0400505206	-0.7341672218	-1.1755958701	-0.038821
N	-0.0195755186	-2.0738503196	-1.1946414842	-0.314783
C	 0.03547818	-2.6405408465	-0.0089251489	 0.35709
F	 0.0569413474	-3.956918684	 0.0077667826	-0.048693
N	 0.0726491403	-2.0601151176	 1.1823536316	-0.362667
C	 0.0506412157	-0.7483219996	 1.1482204494	 0.30804
F	 0.0861066251	-0.130799494	 2.3186906027	-0.048931
H	 0.863648864	 1.929291635	 0.5071144048	 0.149208
H	-0.075209701	 1.9340508061	-0.9954950203	 0.134592
H	-0.8946612622	 1.9013484899	 0.5750849168	 0.14921
H	-0.0855470948	-0.2430557685	-2.1449707494	 0.130754
101.3602	129.2496	238.3914	262.2273	335.1334	375.1141	479.6681	499.1574	569.4219	591.0538	738.8971	775.7905	790.6908	815.2422	977.155	1005.9056	1038.3179	1071.7952	1210.6342	1293.2755	1320.5796	1355.8648	1417.9514	1466.2548	1479.3371	1481.5052	1499.9218	1610.4051	1652.7462	3041.1913	3098.5201	3123.8725	3161.1102
CC1=CN=C(F)N=C1F	Cc1cnc(F)nc1F	
InChI=1S/C5H4F2N2/c1-3-2-8-5(7)9-4(3)6/h2H,1H3	InChI=1S/C5H4F2N2/c1-3-2-8-5(7)9-4(3)6/h2H,1H3
