18
gdb 53602	5.0661	0.74736	0.68128	1.9254	81.05	-0.2426	0.0236	0.2662	1654.5783	0.1473	-401.941894	-401.932516	-401.931572	-401.979301	32.018	
C	 0.0488984361	 1.4981765983	-0.0207814762	-0.497532
C	 0.0167489307	 0.0430783202	 0.0111811987	 0.107891
C	-0.0068958653	-1.159811826	 0.0451623334	 0.036321
C	-0.0550108692	-2.61612889	 0.072496259	-0.371754
C	-1.4662648123	-3.194922615	-0.0958523528	 0.099927
C	-1.5207733436	-4.7462527269	-0.0381063272	-0.202585
N	-2.2983460041	-5.0620976684	 1.1727046016	-0.261961
C	-2.6549002708	-3.9429814038	 1.6466461209	 0.121811
O	-2.2952798525	-2.793674865	 1.0287678795	-0.221649
H	 1.0041539683	 1.8826002959	 0.3536184401	 0.148133
H	-0.0839936818	 1.8788913017	-1.0394993916	 0.146609
H	-0.7460801917	 1.9266105837	 0.5994652359	 0.150127
H	 0.5689484377	-3.0292633328	-0.7320220064	 0.130762
H	 0.362883149	-2.9984796806	 1.0131918049	 0.135467
H	-1.9305608954	-2.7836604041	-0.9957598579	 0.103248
H	-2.0091285491	-5.1817603935	-0.9157613777	 0.118517
H	-0.521171229	-5.1907637221	 0.0324273243	 0.115461
H	-3.251191117	-3.8005386313	 2.5412307918	 0.141206
9.5472	48.8182	69.3047	97.6024	214.8297	252.4726	321.0038	385.3229	387.7302	473.4151	542.9503	733.981	776.7107	820.9927	878.2853	909.8724	964.2098	978.5436	1019.4655	1040.5035	1052.9715	1054.1646	1099.2324	1131.0392	1171.6454	1200.5014	1251.7391	1297.2931	1318.0061	1323.0053	1363.3215	1390.5214	1415.142	1459.9354	1478.2325	1479.2372	1500.5047	1709.5639	2377.3096	3010.7406	3026.5735	3035.8173	3043.9589	3066.7615	3084.5995	3086.779	3087.8739	3215.1905
CC#CCC1CN=CO1	CC#CC[C@H]1CN=CO1	
InChI=1S/C7H9NO/c1-2-3-4-7-5-8-6-9-7/h6-7H,4-5H2,1H3	InChI=1S/C7H9NO/c1-2-3-4-7-5-8-6-9-7/h6-7H,4-5H2,1H3/t7-/m0/s1
