16
gdb 127775	3.24014	1.63821	1.11087	4.0639	71.68	-0.2133	0.0136	0.2269	1052.3245	0.126366	-434.050198	-434.042353	-434.041409	-434.084325	27.663	
C	-0.0131418527	 1.4389843442	-0.0061349984	-0.342012
N	-0.00847534	-0.0040204944	 0.0685215568	-0.106583
N	 0.0633769608	-0.7717677558	-1.0899316588	-0.179271
N	 0.0516433215	-2.0310898718	-0.7451137228	-0.281018
C	-0.0256825014	-2.105565045	 0.6032958007	 0.204647
C	-0.0632759701	-0.8426993084	 1.1079413487	 0.464556
O	-0.1409262361	-0.687963136	 2.4370127412	-0.291388
C	-0.1640217273	-2.075604059	 2.9511000978	-0.096932
C	-0.0839580133	-3.0813969833	 1.740738932	-0.366128
H	 0.8457253219	 1.8592126107	 0.524915362	 0.148134
H	 0.0468212133	 1.7027694136	-1.0622237266	 0.170213
H	-0.9331035689	 1.8480995627	 0.4211351248	 0.148122
H	 0.68571226	-2.1698359512	 3.6300827739	 0.133384
H	-1.089403197	-2.1807176919	 3.5208998095	 0.133366
H	-0.9606703645	-3.7364813507	 1.7158406969	 0.130475
H	 0.8012012538	-3.7208166035	 1.8188988121	 0.130435
20.7387	79.7907	144.1457	245.156	257.4046	311.0424	505.4976	599.0004	651.5288	663.7424	721.1195	781.9173	821.4629	830.0426	930.0809	943.733	951.473	1071.8868	1132.1833	1154.0704	1199.0033	1203.2441	1239.9489	1261.3693	1283.8377	1296.6001	1391.6464	1426.8533	1448.2406	1484.263	1496.7698	1505.5789	1516.8302	1604.0514	1650.6644	3043.3519	3047.7954	3074.4202	3076.4756	3111.8364	3129.3773	3160.161
CN1N=NC2=C1OCC2	Cn1nnc2c1OCC2	
InChI=1S/C5H7N3O/c1-8-5-4(6-7-8)2-3-9-5/h2-3H2,1H3	InChI=1S/C5H7N3O/c1-8-5-4(6-7-8)2-3-9-5/h2-3H2,1H3
