16
gdb 54561	3.1089	1.63811	1.21999	2.1909	68.62	-0.2364	0.0151	0.2515	990.4044	0.124413	-437.823212	-437.815694	-437.81475	-437.855778	28.988	
N	 0.4320178906	 0.3665335076	 0.965224704	-0.545136
C	-0.112650147	 0.1403533349	-0.2632091426	 0.254138
O	 0.3251306957	 0.5947653961	-1.302488603	-0.359734
C	-1.3305039599	-0.7406322717	-0.2109399501	 0.271093
C	-2.2458156247	-1.2403974342	-1.3402439803	-0.329449
C	-2.8795462051	-1.8723450854	-0.0754522519	-0.108747
C	-1.4919879732	-2.0726362324	 0.6016020072	 0.041582
O	-1.853092972	-1.4049920373	 1.8548170087	-0.333028
C	-2.5232393114	-0.6368161479	 0.8023083037	 0.041285
H	 1.2549609993	 0.9416297296	 1.0361633291	 0.259074
H	 0.0204747428	-0.0464402419	 1.7889127753	 0.268181
H	-2.836015995	-0.4802729959	-1.8563101807	 0.115292
H	-1.7955826697	-1.9285916786	-2.0586532931	 0.115364
H	-3.7529369341	-2.5143223819	 0.0294443745	 0.093533
H	-0.8377566559	-2.9428791949	 0.6401035359	 0.108281
H	-3.1178059803	 0.2314801538	 1.0840220833	 0.108273
39.4809	168.1544	204.1185	312.7575	366.017	399.357	412.0171	600.6727	631.6515	660.7276	704.0667	775.6649	782.6497	824.9342	854.5259	891.574	901.7989	922.0038	1010.1162	1035.8807	1060.0489	1089.8266	1113.5445	1125.7619	1143.0262	1167.426	1170.795	1195.2645	1246.6659	1266.6984	1324.3609	1402.7478	1517.6038	1615.6374	1797.3508	3070.9097	3125.5897	3128.6359	3129.8144	3141.5616	3563.5256	3716.0165
NC(=O)C12CC3C1OC23	NC(=O)[C@@]12C[C@H]3[C@@H]1O[C@@H]23	
InChI=1S/C6H7NO2/c7-5(8)6-1-2-3(6)9-4(2)6/h2-4H,1H2,(H2,7,8)	InChI=1S/C6H7NO2/c7-5(8)6-1-2-3(6)9-4(2)6/h2-4H,1H2,(H2,7,8)/t2-,3-,4+,6-
