21
gdb 117543	2.4285	0.97591	0.82096	2.2107	80.04	-0.2434	0.0272	0.2706	1522.5655	0.180801	-420.417549	-420.40669	-420.405746	-420.453866	38.597	
C	-0.1014105638	 1.552541791	 0.0640927972	-0.389027
C	-0.0257489301	 0.0370752545	 0.2208222806	-0.121168
N	-1.2782679272	-0.5831720219	-0.2089354396	-0.280755
C	-1.3372668998	-2.0293646025	-0.113051169	-0.109373
C	-1.071344323	-2.5416998956	 1.2577834579	 0.256331
N	-0.9127591733	-2.9010908656	 2.3461066669	-0.34202
C	-2.7424055183	-2.5098824211	-0.5623880194	 0.117506
C	-2.860007294	-4.0268073946	-0.6682063525	-0.426487
O	-3.7347183797	-1.9479914702	 0.2851323799	-0.435383
H	 0.8458211923	 2.0169455211	 0.3524349829	 0.120704
H	-0.3253383505	 1.8250342975	-0.971087354	 0.128025
H	-0.8857807564	 1.9743400896	 0.7027512343	 0.118992
H	 0.7780978874	-0.3622949465	-0.4114747751	 0.103384
H	 0.2378898821	-0.2179979159	 1.2614588559	 0.105074
H	-2.0685740108	-0.1997235228	 0.3022907063	 0.231799
H	-0.581000899	-2.4606046629	-0.7810822955	 0.121967
H	-2.9100230541	-2.0465743825	-1.5394230292	 0.110223
H	-2.6610020374	-4.5083434744	 0.2957670168	 0.137175
H	-3.8707404822	-4.2950057726	-0.9854374803	 0.134741
H	-2.1499709379	-4.427639523	-1.3987107651	 0.123828
H	-3.6940312843	-2.4065498214	 1.1338754709	 0.294463
64.78	80.8579	110.2688	121.5644	143.9714	227.7993	237.7263	263.99	297.6341	317.1767	380.1477	407.1792	422.0201	489.3683	632.8618	665.9281	782.0476	814.6051	837.3355	892.7261	935.2156	944.6954	1041.0805	1052.4239	1086.4653	1127.2722	1144.6066	1172.1626	1205.2786	1259.667	1291.4398	1323.79	1326.4764	1351.5543	1398.3784	1407.9713	1416.7319	1430.2276	1481.6168	1491.3401	1497.0387	1497.8301	1502.9361	1525.0058	2333.2462	2960.5939	3031.8143	3034.8	3038.0847	3038.8054	3073.4014	3104.2695	3107.5216	3122.3529	3125.8168	3512.6793	3777.896
CCNC(C#N)C(C)O	CCN[C@@H](C#N)[C@@H](C)O	
InChI=1S/C6H12N2O/c1-3-8-6(4-7)5(2)9/h5-6,8-9H,3H2,1-2H3	InChI=1S/C6H12N2O/c1-3-8-6(4-7)5(2)9/h5-6,8-9H,3H2,1-2H3/t5-,6+/m1/s1
