23
gdb 60561	2.36505	1.165	0.88563	1.7834	85.57	-0.2543	0.0829	0.3372	1411.2109	0.204057	-388.265214	-388.255137	-388.254193	-388.300614	37.454	
C	-1.7479418274	 0.3239233142	 2.0603676303	-0.394799
C	-1.1002796896	-0.5586397141	 0.980865022	-0.041842
C	-1.1751459036	 0.0907311693	-0.3909007732	 0.043814
C	-1.1780208774	-0.7394213016	-1.6495354701	-0.277337
C	-2.429447043	-0.0124706855	-1.2198616647	-0.276362
C	 0.3446548238	-0.8414796472	 1.3474500086	 0.080958
O	 0.5907310289	-1.6340277631	 2.5156767531	-0.274838
C	 1.0271241236	-2.1427384506	 1.2480038233	 0.074531
C	 0.4018418915	-3.425849426	 0.7643455979	-0.421233
H	-1.2437056577	 1.2952091711	 2.1261194478	 0.110289
H	-2.8011841283	 0.509515312	 1.8299634611	 0.113196
H	-1.6817626699	-0.1569167498	 3.0400914911	 0.130618
H	-1.6475589473	-1.5077815877	 0.944623846	 0.068895
H	-0.6483509452	 1.0410731033	-0.4546382202	 0.079327
H	-0.6387219694	-0.3715125454	-2.5154499281	 0.110271
H	-1.162376069	-1.8192885646	-1.5448742105	 0.111511
H	-3.2482162093	-0.6062132828	-0.8257247508	 0.111035
H	-2.746800163	 0.8527440408	-1.7912983392	 0.110967
H	 0.9836062387	 0.0454532302	 1.2888021411	 0.079235
H	 2.1122588	-2.1071445148	 1.1223246583	 0.083632
H	-0.6798831297	-3.4336973581	 0.910269804	 0.127852
H	 0.615753801	-3.5778468624	-0.2993278992	 0.122406
H	 0.8203159523	-4.2761949871	 1.3132758413	 0.127875
52.6114	75.9634	137.0449	176.291	191.0259	229.294	235.292	276.309	376.0349	393.0862	439.5257	471.4052	560.5357	764.0648	781.3236	818.2997	829.3992	834.234	918.9194	934.3414	964.5839	981.6817	995.4689	1013.9358	1057.7639	1070.3608	1079.9424	1120.3335	1140.8512	1145.8927	1178.0485	1193.6454	1199.9172	1209.2625	1227.4545	1276.8311	1305.8073	1328.574	1396.6611	1402.1554	1419.2367	1420.2584	1468.3984	1471.855	1489.339	1495.9322	1499.0493	1508.597	1513.045	3031.2239	3035.5196	3039.8625	3055.2796	3075.8343	3097.2791	3099.3753	3119.921	3122.7923	3128.3044	3133.7104	3134.3377	3205.9821	3221.2565
CC(C1CC1)C1OC1C	C[C@@H](C1CC1)[C@H]1O[C@H]1C	
InChI=1S/C8H14O/c1-5(7-3-4-7)8-6(2)9-8/h5-8H,3-4H2,1-2H3	InChI=1S/C8H14O/c1-5(7-3-4-7)8-6(2)9-8/h5-8H,3-4H2,1-2H3/t5-,6-,8+/m0/s1
