23
gdb 52408	7.79486	0.43654	0.4302	2.8249	88.37	-0.2472	-0.0186	0.2286	2514.8926	0.203915	-388.293578	-388.283038	-388.282094	-388.331134	37.049	
O	-0.5744621761	 0.7753601012	 0.8326876619	-0.237805
C	 0.0414711181	 1.0227635411	-0.1717618822	 0.159881
C	 1.3521840989	 1.7715026473	-0.2293925258	-0.273098
C	 1.2669645129	 3.0078476984	-1.1420617762	-0.193722
C	 2.6102777699	 3.7276630095	-1.2997228178	-0.166863
C	 2.5288498316	 4.970041792	-2.1964206651	-0.210303
C	 3.8571141439	 5.6805468023	-2.3493281406	 0.036061
C	 4.849595035	 5.2306501436	-3.3934673208	-0.254862
C	 4.1325540102	 6.5503523639	-3.5481784909	-0.27705
H	-0.3444739545	 0.7047765104	-1.1702792294	 0.067218
H	 1.6464734228	 2.0413045823	 0.7892400372	 0.120629
H	 2.109459242	 1.0821688051	-0.6315918665	 0.116399
H	 0.8961695644	 2.7049986449	-2.1309289597	 0.100471
H	 0.5216643794	 3.7041838785	-0.7363978174	 0.110687
H	 2.9840334813	 4.0192616594	-0.3088947229	 0.098098
H	 3.3531289528	 3.0315473288	-1.7111928214	 0.09925
H	 2.159072138	 4.6798045973	-3.1895674027	 0.090196
H	 1.783503976	 5.6654899963	-1.7860449866	 0.096943
H	 4.2875179351	 6.0235927496	-1.4109595551	 0.080256
H	 5.9060237811	 5.2425838301	-3.1490891489	 0.110378
H	 4.5577101122	 4.4182402653	-4.0518562333	 0.107211
H	 3.3623282853	 6.62129136	-4.3095416199	 0.109244
H	 4.6985729796	 7.4644086526	-3.4063194258	 0.110782
42.2229	48.03	74.4287	96.3599	128.4909	144.891	219.1773	270.9471	349.7901	397.4635	465.0387	523.9121	735.8114	768.296	778.3314	804.9021	831.2952	856.4346	906.9888	942.2845	982.5039	991.4929	1030.5002	1051.7023	1059.2058	1074.3757	1078.7416	1111.7335	1141.0698	1168.0348	1198.7231	1215.9394	1229.8523	1245.0139	1275.373	1303.05	1326.878	1331.8965	1365.9312	1396.1854	1420.451	1431.604	1463.9791	1469.251	1481.8215	1489.7906	1507.1104	1509.8755	1836.7951	2843.0158	3003.8155	3007.6745	3010.5343	3020.7301	3030.3217	3043.4619	3065.5631	3097.0088	3126.5167	3128.3538	3133.1504	3204.4627	3219.841
O=CCCCCC1CC1	O=CCCCCC1CC1	
InChI=1S/C8H14O/c9-7-3-1-2-4-8-5-6-8/h7-8H,1-6H2	InChI=1S/C8H14O/c9-7-3-1-2-4-8-5-6-8/h7-8H,1-6H2
