16
gdb 47108	2.64907	1.86929	1.30387	3.7064	63.88	-0.2412	0.0131	0.2544	951.4857	0.127262	-475.058977	-475.051789	-475.050845	-475.091348	26.802	
O	 0.0744748825	-0.0361027589	 0.0813507185	-0.371108
C	 0.0453583233	 1.1725222778	 0.1016421414	 0.379718
N	-1.0587725572	 1.9601929548	 0.2689516919	-0.309079
C	-0.843047373	 3.393431866	 0.1792167619	-0.194687
C	 0.6934316195	 3.5359091514	 0.2491168218	 0.083959
O	 1.1623986421	 3.8249064888	 1.561514665	-0.265181
C	 1.7877024583	 2.65696974	 2.068259085	 0.012225
O	 2.239187037	 1.9220422501	 0.9582607669	-0.231833
C	 1.2577752388	 2.126086532	-0.0401029761	-0.046715
H	-1.9745921718	 1.5415129417	 0.3216875881	 0.256431
H	-1.2309858146	 3.805349935	-0.7621401664	 0.111898
H	-1.3090113621	 3.9330700282	 1.0089685027	 0.131339
H	 1.054382512	 4.3181014004	-0.4227455621	 0.098194
H	 2.6487305557	 2.9413148848	 2.6792356676	 0.125598
H	 1.0708039222	 2.0695092351	 2.6663425464	 0.100863
H	 1.7288656572	 1.9959952427	-1.0159199026	 0.118378
55.7891	132.5238	175.4765	302.1096	372.8524	461.3491	547.6006	563.2432	679.6177	732.5304	752.4014	786.0557	853.4315	900.9004	947.0216	981.2394	1006.3126	1039.5826	1081.7344	1105.7504	1124.7631	1183.1353	1222.5449	1227.0464	1244.5627	1267.8322	1288.8047	1334.4921	1353.1383	1380.0779	1429.085	1448.1162	1523.6202	1548.766	1839.8716	2962.2262	3011.9083	3078.7134	3082.9741	3092.6303	3107.8787	3631.9364
O=C1NCC2OCOC12	O=C1NC[C@H]2OCO[C@@H]12	
InChI=1S/C5H7NO3/c7-5-4-3(1-6-5)8-2-9-4/h3-4H,1-2H2,(H,6,7)	InChI=1S/C5H7NO3/c7-5-4-3(1-6-5)8-2-9-4/h3-4H,1-2H2,(H,6,7)/t3-,4-/m1/s1
