18
gdb 99714	1.95778	1.43603	0.96405	4.2017	68.84	-0.2554	-0.0276	0.2278	1245.0807	0.145102	-476.273326	-476.263028	-476.262084	-476.309502	36.283	
C	 0.604232566	 1.1104721606	 0.6141544523	-0.485436
C	 0.2323766099	-0.15439159	-0.1220164337	 0.417681
O	 1.0248202558	-0.7302696721	-0.8383087553	-0.319933
C	-1.2058494228	-0.6766553715	 0.029310847	-0.245962
C	-1.3429975655	-2.1073907134	-0.5519336575	-0.06197
O	-1.095300411	-2.1476972828	-1.9349401161	-0.426007
C	-1.6579105847	-0.6746100388	 1.4896270307	 0.398503
N	-2.9793205599	-0.4014192909	 1.6877598799	-0.521223
O	-0.8982569033	-0.9352343435	 2.4045594163	-0.365633
H	 1.5554263059	 1.4894716228	 0.2393487976	 0.141827
H	-0.1768565267	 1.8710979405	 0.5079370872	 0.131573
H	 0.687338435	 0.8786571346	 1.6802150893	 0.182861
H	-1.8436339805	-0.0086800708	-0.5668434409	 0.104651
H	-0.6739076154	-2.7727926829	 0.012080353	 0.11677
H	-2.3682598858	-2.4611129611	-0.3998275649	 0.102495
H	-0.1651480707	-1.9001674395	-2.0295083924	 0.297249
H	-3.6229911599	-0.2815519977	 0.925397849	 0.26615
H	-3.3504877964	-0.5141815435	 2.6177068486	 0.266401
35.2283	61.707	138.0879	149.6766	192.1512	203.342	245.1086	256.4919	340.2284	394.2804	413.9615	497.9001	571.3724	589.5677	610.2495	650.7822	746.9732	760.3874	905.9338	957.385	984.6911	1035.147	1074.241	1091.3575	1104.2093	1188.3628	1210.816	1230.9632	1318.9276	1377.7718	1380.766	1389.8603	1449.0693	1467.4813	1473.5887	1504.0618	1618.5524	1784.7166	1790.9908	3005.4502	3019.3132	3044.9968	3072.8466	3114.9107	3157.5601	3597.299	3733.872	3749.7415
CC(=O)C(CO)C(N)=O	CC(=O)[C@@H](CO)C(=O)N	
InChI=1S/C5H9NO3/c1-3(8)4(2-7)5(6)9/h4,7H,2H2,1H3,(H2,6,9)	InChI=1S/C5H9NO3/c1-3(8)4(2-7)5(6)9/h4,7H,2H2,1H3,(H2,6,9)/t4-/m1/s1
