18
gdb 16773	4.12086	1.55868	1.40168	2.6487	66.65	-0.2374	0.0821	0.3195	939.6587	0.155144	-384.922971	-384.915631	-384.914687	-384.954911	28.243	
O	 0.1226614762	 1.1608524511	 0.4707841191	-0.423497
C	-0.0155108723	-0.2228741285	 0.2364811371	-0.060394
C	-1.435000413	-0.570862187	-0.2091526333	 0.100762
C	-1.7172448199	-2.0914734945	-0.3157373152	-0.279441
C	-2.7602469949	-2.3708402979	 0.7578250435	-0.059012
C	-2.3864494667	-2.0652521408	 2.1983964611	-0.322212
C	-3.1074848527	-1.0437244691	 1.3579835482	 0.114379
O	-2.3550261458	-0.0223893787	 0.7594094654	-0.286886
H	-0.6327662327	 1.4040546854	 1.0207773383	 0.289774
H	 0.6954789867	-0.493547607	-0.5527606888	 0.105071
H	 0.2444517428	-0.8137561355	 1.1315132122	 0.081588
H	-1.6324893929	-0.0525008704	-1.155332425	 0.08972
H	-2.11571152	-2.3443936372	-1.3018995103	 0.112179
H	-0.8002017682	-2.6750732934	-0.175154779	 0.109308
H	-3.514129847	-3.1238526099	 0.5618843635	 0.093607
H	-2.9544476521	-2.5681921965	 2.9743007913	 0.114665
H	-1.3450650566	-1.887505828	 2.4450969258	 0.119222
H	-4.1167583508	-0.7295481621	 1.5993416159	 0.101167
59.3721	140.6809	209.7123	297.7741	389.375	422.9841	478.1412	493.692	685.6687	716.4878	756.9086	809.4375	812.7104	893.3776	925.9048	972.646	1000.4681	1030.6192	1032.6572	1053.9641	1077.9987	1096.1502	1110.8865	1131.0298	1157.6266	1202.7725	1214.0504	1241.8279	1302.2527	1308.16	1332.9666	1365.8952	1388.0423	1400.3346	1440.515	1481.1617	1496.6392	1504.4009	2959.1459	3029.8367	3041.0007	3064.4726	3090.4094	3129.8195	3171.4366	3181.5724	3219.0544	3778.4984
OCC1CC2CC2O1	OC[C@H]1C[C@H]2C[C@H]2O1	
InChI=1S/C6H10O2/c7-3-5-1-4-2-6(4)8-5/h4-7H,1-3H2	InChI=1S/C6H10O2/c7-3-5-1-4-2-6(4)8-5/h4-7H,1-3H2/t4-,5+,6+/m0/s1
