19
gdb 105619	1.9796	1.42416	1.2152	2.8117	77.5	-0.2523	0.0181	0.2704	1171.7283	0.156841	-422.966597	-422.956947	-422.956003	-423.000972	35.708	
C	-0.5106340352	 1.3309156163	-0.0767363309	-0.424665
C	 0.1245452847	-0.0506572659	-0.0809621539	-0.074845
C	 1.5616884364	-0.2356952726	-0.6068140963	-0.089155
O	 1.9342654166	-1.0240645245	 0.5475123751	-0.324743
C	 0.6861414277	-0.6850242924	 1.2371169944	 0.145552
C	 1.0455862324	 0.2707730376	 2.3855024333	-0.087106
O	 1.9939216872	-0.3306489447	 3.2356907243	-0.418581
C	-0.0138360361	-1.8662630377	 1.7185637716	 0.32986
C	-0.6361459004	-2.823078868	 2.0954055512	-0.441681
H	 0.1502258682	 2.0933610725	 0.3451168296	 0.125012
H	-0.7526752478	 1.6356463224	-1.1004706885	 0.124603
H	-1.4442998679	 1.3350150984	 0.4949888042	 0.130523
H	-0.5517751817	-0.7662803731	-0.5532394904	 0.100439
H	 1.6844781513	-0.7988532097	-1.5372942916	 0.113597
H	 2.1440857717	 0.693431262	-0.6703409552	 0.10073
H	 1.4297309474	 1.209797844	 1.9587327015	 0.082202
H	 0.1620347188	 0.5037344404	 2.9873572009	 0.11572
H	 2.6878411969	-0.6687006241	 2.6544112311	 0.293207
H	-1.1701213102	-3.674087201	 2.4400658094	 0.199331
78.9988	109.295	147.0242	175.3579	185.4908	218.0906	280.276	342.5162	417.7098	455.3349	487.917	534.3001	553.6239	622.0198	660.1571	669.4937	748.4697	889.6834	911.3194	932.389	980.7103	1002.115	1026.9979	1086.3741	1122.4132	1145.1096	1162.598	1174.1507	1203.5814	1244.5391	1299.2915	1333.12	1381.9252	1393.7232	1416.2478	1433.8609	1493.5345	1498.8082	1502.6796	1527.3259	2233.633	2986.1453	3010.9282	3037.0518	3069.902	3086.6996	3086.9298	3100.4273	3115.1854	3500.6641	3768.9032
CC1COC1(CO)C#C	C[C@H]1CO[C@]1(CO)C#C	
InChI=1S/C7H10O2/c1-3-7(5-8)6(2)4-9-7/h1,6,8H,4-5H2,2H3	InChI=1S/C7H10O2/c1-3-7(5-8)6(2)4-9-7/h1,6,8H,4-5H2,2H3/t6-,7-/m0/s1
