18
gdb 116853	6.80581	0.50478	0.47414	4.8461	83.38	-0.2535	-0.0165	0.237	2301.3148	0.144683	-439.066905	-439.055872	-439.054927	-439.10572	35.881	
C	-0.0388441744	 1.4229608804	-0.0867139295	-0.339257
N	 0.1016766237	-0.0137067215	 0.0379131292	-0.311573
C	 0.5566881746	-0.609586854	 1.1799121639	 0.255565
O	 0.8821563653	-0.0033100516	 2.1849668484	-0.35548
C	 0.6190978812	-2.0616458892	 1.0868735202	 0.045753
C	 0.6894570692	-3.2642437346	 1.0610802143	 0.080219
C	 0.7636448815	-4.7173914726	 1.0001024588	-0.208374
O	 1.2419312538	-5.2345436021	 2.2219334199	-0.222869
C	 1.3286406247	-6.6417202029	 2.2038112591	-0.220733
H	 0.5918510176	 1.8164655872	-0.8917197576	 0.128207
H	-1.0787352264	 1.7056342453	-0.2851331535	 0.128201
H	 0.2755647438	 1.8638817201	 0.8596917891	 0.175067
H	-0.1413406181	-0.6069145979	-0.738209913	 0.25247
H	-0.2364999128	-5.1251614214	 0.7676337716	 0.120676
H	 1.4225464426	-5.0151532917	 0.1647612136	 0.12068
H	 0.3462621636	-7.1099828375	 2.0329308752	 0.107071
H	 2.020465287	-6.9989841638	 1.4245306104	 0.107072
H	 1.7042487433	-6.9520549221	 3.1807943297	 0.137305
20.4694	60.2317	66.376	73.2093	105.3191	157.859	193.965	230.6017	304.6552	326.5152	373.5559	423.7852	476.7257	556.5103	621.836	759.8276	836.0733	977.2325	1004.5688	1020.7448	1129.9372	1151.815	1159.0092	1172.1292	1182.2978	1220.4074	1253.8665	1257.5177	1407.9599	1439.1634	1476.3388	1485.1132	1489.9983	1491.1793	1498.8528	1514.2925	1556.6946	1759.4142	2352.4831	2940.6197	2957.2143	2970.5314	3014.8796	3027.2653	3079.1407	3126.3778	3155.698	3648.3765
CNC(=O)C#CCOC	CNC(=O)C#CCOC	
InChI=1S/C6H9NO2/c1-7-6(8)4-3-5-9-2/h5H2,1-2H3,(H,7,8)	InChI=1S/C6H9NO2/c1-7-6(8)4-3-5-9-2/h5H2,1-2H3,(H,7,8)
