18
gdb 46674	2.8914	1.7578	1.34061	3.7351	76.34	-0.231	0.0255	0.2565	975.4133	0.151234	-401.913987	-401.907255	-401.906311	-401.944899	27.887	
O	-0.0012543443	-0.0088928933	 0.2001174345	-0.377474
C	 0.0188660188	 1.1869694116	 0.0186025396	 0.302052
N	-1.0948054146	 2.0125687521	-0.0641525445	-0.319767
C	-0.856411657	 3.4541683832	-0.2648785258	-0.237442
C	 0.577874494	 3.412968418	-0.8176882332	 0.015952
C	 1.9520208751	 3.8687025601	-0.2195732906	-0.093044
C	 1.5993257858	 3.0960344648	 1.0736086099	-0.248749
C	 1.1596249308	 2.1715635332	-0.1174472019	 0.217374
C	 2.5253872788	 2.5054964545	-0.7763540597	-0.304685
H	-2.0038641192	 1.6350139346	 0.1538508625	 0.248778
H	-1.569779234	 3.86278679	-0.9869596301	 0.112724
H	-0.9676991652	 4.0187410966	 0.6686564268	 0.113737
H	 0.5644677634	 3.3461992962	-1.9099199256	 0.079536
H	 2.4276866731	 4.8479564147	-0.2990400548	 0.077585
H	 2.4356078683	 2.7270133925	 1.6709974531	 0.102615
H	 0.8167214561	 3.5078154481	 1.7120527266	 0.101887
H	 2.5790762677	 2.401745462	-1.862696016	 0.103886
H	 3.4242278324	 2.125373931	-0.2862791207	 0.105038
141.7919	212.8907	308.049	340.0457	496.6589	497.8778	526.3839	612.3312	615.7507	686.6312	719.0525	783.7388	825.0075	881.4287	889.983	943.0848	977.8457	989.5957	1016.0673	1029.1417	1065.7918	1090.9689	1104.8667	1139.1414	1149.9125	1161.7853	1163.8026	1201.2957	1211.5804	1224.0851	1238.746	1300.3468	1325.0305	1397.1807	1431.2169	1497.819	1521.8004	1547.9654	1828.0883	3024.7004	3053.2436	3061.7192	3073.208	3076.6261	3094.9198	3132.0132	3137.536	3635.2288
O=C1NCC2C3CC12C3	O=C1NC[C@H]2[C@H]3C[C@@]12C3	
InChI=1S/C7H9NO/c9-6-7-1-4(2-7)5(7)3-8-6/h4-5H,1-3H2,(H,8,9)	InChI=1S/C7H9NO/c9-6-7-1-4(2-7)5(7)3-8-6/h4-5H,1-3H2,(H,8,9)/t4-,5-,7-/m0/s1
