15
gdb 27940	2.56731	1.31436	0.87197	4.4516	74.	-0.1929	-0.0174	0.1754	1240.1244	0.112984	-453.989843	-453.981285	-453.980341	-454.022897	31.628	
N	 0.1468222268	 1.4216948972	-0.0968572243	-0.608163
C	-0.0220832796	 0.0271790858	-0.0374036982	 0.30873
C	-1.1016355796	-0.7993636791	-0.1024443658	-0.330414
C	-0.6191138369	-2.1618958435	-0.0834648902	 0.074969
C	-1.3868808769	-3.3773388338	-0.1218867043	 0.062707
O	-2.5969553512	-3.4619137915	-0.2001056515	-0.307586
C	 0.7666014093	-2.0786768722	 0.0043489223	 0.337161
O	 1.745026202	-3.0019946199	 0.0614397765	-0.419794
N	 1.1245056126	-0.7720753248	 0.0305317562	-0.330042
H	-0.6929964757	 1.8664117344	-0.446238051	 0.253857
H	 0.360549218	 1.8291497166	 0.8096820972	 0.246967
H	-2.1396886978	-0.5115068391	-0.1446675029	 0.115953
H	-0.7689524847	-4.3136543278	-0.0714054234	 0.007417
H	 1.3466132272	-3.8790815415	 0.0359963799	 0.316564
H	 2.0703105165	-0.4300476608	-0.0121281905	 0.271674
134.4416	156.8062	165.0046	214.4534	232.6526	299.0918	329.2452	389.8619	418.5356	485.8552	570.0969	637.6603	645.5903	670.816	685.9389	795.6747	827.1064	862.1188	1010.9162	1015.2372	1136.7305	1150.2138	1190.4157	1205.4746	1284.148	1383.4357	1416.4554	1452.4116	1567.6512	1595.2906	1634.0075	1666.9729	1774.7069	2752.3105	3266.5572	3486.4496	3599.6327	3666.6956	3817.5123
NC1=CC(C=O)=C(O)N1	Nc1cc(C=O)c(O)[nH]1	
InChI=1S/C5H6N2O2/c6-4-1-3(2-8)5(9)7-4/h1-2,7,9H,6H2	InChI=1S/C5H6N2O2/c6-4-1-3(2-8)5(9)7-4/h1-2,7,9H,6H2
