12
gdb 133255	3.26568	1.49951	1.03715	6.3751	60.93	-0.2631	-0.0887	0.1744	1030.9164	0.076177	-510.079836	-510.072179	-510.071235	-510.113381	26.523	
C	-0.0646985351	 1.4818146598	 0.0141306537	-0.340218
N	-0.0199058226	 0.0256916258	 0.0557610589	-0.102288
N	 0.0334593377	-0.6233130738	-1.1737234693	-0.030006
N	 0.0720958817	-1.8672366522	-1.2048469212	-0.192877
C	 0.0161589929	-2.6648435629	 0.0212560029	 0.4336
O	-0.1059882577	-3.8520440351	-0.0745389708	-0.303367
N	 0.1230720964	-1.9834663142	 1.2373228862	-0.382353
C	 0.0831688249	-0.7153618616	 1.1793615565	 0.456797
F	 0.1589086304	 0.0067770846	 2.2820884905	-0.045177
H	 0.8276827929	 1.9101797175	 0.4762395641	 0.164534
H	-0.1058039123	 1.759250131	-1.0389140296	 0.176651
H	-0.9530187893	 1.8516892911	 0.530817048	 0.164702
27.9936	117.9921	190.9437	202.5086	300.0662	393.0169	467.5582	516.0856	563.0979	581.1253	701.9633	732.3653	803.0981	820.9747	886.5656	961.6428	1153.0614	1155.382	1221.8336	1271.7918	1409.158	1467.0152	1484.2602	1503.6373	1578.645	1711.3136	1852.2436	3060.0813	3133.5409	3168.7759
CN1N=NC(=O)N=C1F	Cn1nnc(=O)nc1F	
InChI=1S/C3H3FN4O/c1-8-2(4)5-3(9)6-7-8/h1H3	InChI=1S/C3H3FN4O/c1-8-2(4)5-3(9)6-7-8/h1H3
