19
gdb 17798	5.57569	1.26712	1.10334	2.5256	72.11	-0.2199	0.0719	0.2919	1094.0108	0.166435	-365.006664	-364.998928	-364.997984	-365.039851	27.907	
C	-0.0561046552	 1.5831955886	 0.0384088464	-0.225628
C	 1.4880474174	 1.4887765042	 0.0147058168	-0.160512
N	 1.3753443298	 0.0762178957	 0.443197676	-0.068511
C	-0.0353730931	 0.0366965232	-0.0039547368	-0.160511
C	 2.2966495666	-0.8833409506	-0.1026620865	-0.004777
C	 3.7116516616	-0.8745045975	 0.5168932198	-0.079596
O	 3.5696046329	-2.2328130181	 0.9790857334	-0.272798
C	 2.2121138925	-2.3037771122	 0.4984792228	-0.079596
H	-0.4386878376	 1.9724312914	 0.9833606224	 0.115951
H	-0.5382917259	 2.0997368789	-0.7914618358	 0.105975
H	 1.8898026601	 1.5967146432	-1.0069983769	 0.084072
H	 2.062485197	 2.1322222525	 0.6886330342	 0.103833
H	-0.7141604189	-0.5143956684	 0.6546225342	 0.103833
H	-0.1492867317	-0.3468842333	-1.0319753701	 0.084072
H	 2.3041532951	-0.8769713287	-1.2080090895	 0.053796
H	 4.5495405674	-0.7649062617	-0.181819564	 0.097469
H	 3.828289862	-0.1649444655	 1.3454557418	 0.102729
H	 1.4871809267	-2.396354697	 1.3167077095	 0.102729
H	 2.0715285732	-3.1268026949	-0.2122484977	 0.097469
51.0581	71.2618	146.7067	172.867	297.9515	360.9344	449.7552	623.7929	733.482	831.3176	846.6349	883.2977	913.2045	936.6793	938.5015	987.7155	1011.0212	1044.187	1045.0688	1109.7548	1114.3962	1135.4779	1147.5288	1166.271	1170.5022	1213.9524	1219.93	1268.1556	1268.3895	1272.0922	1295.0659	1310.5272	1339.3705	1360.6628	1407.4873	1487.4716	1499.6026	1504.6581	1525.7327	1532.8678	2922.6941	2957.3739	2966.4733	3009.271	3020.3477	3060.4692	3062.6686	3064.4485	3064.4907	3088.6407	3144.2543
C1CN(C1)C1COC1	C1CN(C1)C1COC1	
InChI=1S/C6H11NO/c1-2-7(3-1)6-4-8-5-6/h6H,1-5H2	InChI=1S/C6H11NO/c1-2-7(3-1)6-4-8-5-6/h6H,1-5H2
