17
gdb 108175	2.66013	1.44403	1.25128	2.6498	68.1	-0.2207	0.0167	0.2374	1049.7849	0.136723	-455.119896	-455.111655	-455.110711	-455.152718	31.445	
O	-0.0255895384	 1.4244530922	-0.0800372725	-0.412668
C	-0.0012835178	 0.0129106682	 0.1027389065	-0.180684
C	-1.3735778262	-0.5945363639	 0.027918644	 0.228405
N	-2.3827413099	-0.0551854946	 0.9178546945	-0.358377
C	-3.1032282629	-1.1298921305	 1.4280179789	 0.028394
N	-2.8194082123	-2.2844498611	 0.9517295984	-0.21847
C	-1.7619610797	-2.1006970191	-0.0018919317	-0.116736
C	-2.0034130644	-1.188892916	-1.2039826216	 0.070068
O	-3.2692303382	-0.8021304572	-1.6130541282	-0.428434
H	-0.3739564104	 1.5983291106	-0.9616119552	 0.289293
H	 0.6563596255	-0.4865575947	-0.6240793591	 0.100507
H	 0.4307930544	-0.1404882645	 1.0983805047	 0.118518
H	-2.150429691	 0.7494833706	 1.482146794	 0.257375
H	-3.8877826622	-0.9507094445	 2.1557372469	 0.131748
H	-1.0473649384	-2.9108621154	-0.102726495	 0.096006
H	-1.3349884091	-1.3706290736	-2.042316098	 0.103261
H	-3.5833385591	-0.1472342964	-0.9746419366	 0.291796
73.8412	144.6789	207.6776	239.0718	297.9456	344.1386	354.5201	414.9427	495.784	515.5376	593.7691	647.1952	742.8995	759.7829	801.1499	904.4654	912.2526	920.36	980.9721	1022.2984	1033.7992	1050.9952	1092.9391	1100.5568	1134.1333	1197.7061	1228.4861	1275.5487	1323.7209	1329.8704	1344.9682	1375.8525	1405.7833	1421.5664	1466.82	1497.9874	1651.3143	2997.2063	3063.9324	3136.9411	3164.0492	3200.1715	3605.6307	3738.5802	3802.5024
OCC12NC=NC1C2O	OC[C@]12NC=N[C@H]1[C@H]2O	
InChI=1S/C5H8N2O2/c8-1-5-3(4(5)9)6-2-7-5/h2-4,8-9H,1H2,(H,6,7)	InChI=1S/C5H8N2O2/c8-1-5-3(4(5)9)6-2-7-5/h2-4,8-9H,1H2,(H,6,7)/t3-,4+,5-/m0/s1
