13
gdb 25521	5.51306	1.01086	0.8596	3.2807	69.53	-0.2676	-0.0683	0.1993	1230.0528	0.090493	-452.811916	-452.804775	-452.803831	-452.844391	25.324	
O	 0.0330349609	-0.0460299156	 0.1351940446	-0.248157
C	-0.0059149373	 1.1275160229	-0.0527971797	 0.167853
O	 1.0728781722	 1.9228598443	 0.2573048213	-0.231679
C	 0.9694870464	 3.2824661485	 0.1422424118	 0.428131
N	-0.2105915997	 3.866928678	 0.2294535474	-0.316152
C	-0.2123396678	 5.2022910087	 0.132160874	-0.018147
C	 0.9608962418	 5.9259747221	-0.0297881612	-0.013685
N	 2.1538949197	 5.3220349345	-0.108463855	-0.222302
C	 2.1614407989	 3.9987668193	-0.0284626339	-0.076213
H	-0.8411986234	 1.6959859364	-0.4808740944	 0.131601
H	-1.1774409873	 5.6963283574	 0.1975856695	 0.130985
H	 0.9477893182	 7.0093968624	-0.0953059247	 0.127128
H	 3.1114663573	 3.4774194711	-0.0939655297	 0.140636
71.5478	106.444	173.8399	251.6352	403.0222	436.6888	505.3704	552.9403	623.3397	731.0711	783.3904	877.0246	915.7491	961.3836	988.6428	1024.6294	1039.3995	1077.6946	1091.0538	1200.6861	1243.7722	1302.0389	1325.2852	1403.1516	1438.8116	1501.3204	1585.6682	1618.5988	1875.3488	3072.6409	3169.0122	3181.1891	3189.417
O=COC1=NC=CN=C1	O=COc1nccnc1	
InChI=1S/C5H4N2O2/c8-4-9-5-3-6-1-2-7-5/h1-4H	InChI=1S/C5H4N2O2/c8-4-9-5-3-6-1-2-7-5/h1-4H
