23
gdb 107723	3.64219	1.13158	1.06124	0.2788	89.98	-0.2363	0.0939	0.3303	1290.0041	0.205583	-351.121771	-351.112846	-351.111902	-351.15497	35.413	
C	 0.1766346021	 1.4493163407	 0.2673607859	-0.372547
C	-0.104572565	-0.0049681804	-0.1358002392	-0.30448
C	 0.6494071148	-0.4325820395	-1.3630588508	 0.385723
C	 0.4359915659	 0.043503511	-2.8017603378	-0.326192
C	 1.3138372918	-1.166615163	-3.2367422555	 0.32761
C	 1.1554128113	-1.8014540135	-4.5924964247	-0.504782
C	 2.7197220509	-0.7964246903	-2.6756940923	-0.27258
C	 2.0979030202	-0.9537072727	-1.2920440279	-0.105179
C	 0.9873229547	-1.8298274688	-1.8270159247	-0.201722
H	 1.2398578009	 1.5978296233	 0.4820826306	 0.116924
H	-0.098333095	 2.1409899066	-0.5359588626	 0.11766
H	-0.3924894842	 1.7307097044	 1.1588413252	 0.107867
H	 0.1534050747	-0.6736882704	 0.6959503827	 0.094074
H	-1.1820763158	-0.134426422	-0.3057479209	 0.093878
H	-0.6082558411	-0.0884961376	-3.1059701077	 0.087174
H	 0.7784129629	 1.0443835552	-3.0947158478	 0.080538
H	 1.4536531586	-1.1041526867	-5.3851511775	 0.11646
H	 1.7768281354	-2.6987550959	-4.6891055469	 0.114335
H	 0.1156622738	-2.0916183591	-4.7805252031	 0.114085
H	 3.4507213432	-1.5862914478	-2.8768198121	 0.091323
H	 3.139528043	 0.1745241128	-2.9678194247	 0.081703
H	 2.6023108334	-1.0438036803	-0.3375475821	 0.077419
H	 0.6231421535	-2.802330416	-1.525448836	 0.08071
82.912	133.3351	192.6811	216.1391	256.1107	272.3967	343.5659	379.4118	443.2762	454.3791	585.7099	623.2211	737.9436	747.3431	788.1677	816.606	830.872	888.4691	906.7713	949.9739	960.3579	983.7402	990.8024	994.8666	1035.8087	1063.8389	1070.4723	1093.5035	1129.2721	1147.7708	1154.2366	1197.4216	1202.2448	1237.5997	1248.9347	1276.3813	1328.3964	1339.6611	1360.7485	1406.6921	1411.6762	1423.3861	1481.7878	1487.9541	1492.771	1494.0786	1497.7789	1508.2192	1510.6461	3009.517	3011.7284	3017.271	3022.4818	3033.8695	3041.5608	3071.6278	3079.2237	3082.3847	3089.8416	3102.3257	3105.9134	3183.4586	3209.0485
CCC12CC3(C)CC1C23	CC[C@@]12C[C@@]3(C)C[C@@H]1[C@@H]23	
InChI=1S/C9H14/c1-3-9-5-8(2)4-6(9)7(8)9/h6-7H,3-5H2,1-2H3	InChI=1S/C9H14/c1-3-9-5-8(2)4-6(9)7(8)9/h6-7H,3-5H2,1-2H3/t6-,7-,8-,9-/m1/s1
