16
gdb 34696	4.21488	1.46759	1.40253	1.3903	75.8	-0.2341	0.0404	0.2745	939.8207	0.125447	-363.487634	-363.481128	-363.480184	-363.518469	26.742	
C	-0.0146312822	-1.2867993008	-0.0496043888	-0.44109
C	-0.0176219101	-0.0841290349	-0.0265761469	 0.303824
C	-0.0029991357	 1.3631158865	 0.0224882955	-0.190053
C	-0.228052005	 2.1054476788	 1.3783855384	-0.087474
C	 0.9627621911	 1.747962099	 2.2864304205	-0.033997
C	 2.0884291702	 1.7695432792	 1.3135977892	-0.033997
C	 1.3545688948	 2.1357983151	 0.0106450959	-0.08747
C	 0.7256105337	 3.2491699761	 0.9074168513	 0.000764
N	 1.7203536744	 3.0270803651	 2.0535060477	-0.183018
H	-0.0157269458	-2.3483470821	-0.0745903877	 0.195127
H	-0.6685398656	 1.7887054478	-0.7381647849	 0.104507
H	-1.2167089906	 2.2440876167	 1.8088842205	 0.083397
H	 0.9756209167	 1.2372901142	 3.2405905347	 0.100459
H	 3.0416679124	 1.2768985863	 1.4550538361	 0.100459
H	 1.9204028676	 2.3042435301	-0.9022900335	 0.083397
H	 0.441132864	 4.2526304129	 0.600513382	 0.085166
115.4252	149.0156	346.5398	435.3269	520.6005	623.859	632.0775	637.7539	752.0296	774.1427	790.8851	795.9766	809.7947	850.9898	851.2177	893.6709	918.8939	956.2088	968.6804	1000.6639	1037.5642	1039.0128	1067.3438	1088.37	1136.035	1139.0686	1172.3004	1208.1053	1224.0345	1233.3358	1262.9987	1313.9809	1336.5163	1362.2997	2232.0649	3041.0249	3141.1321	3148.6689	3155.067	3193.6343	3204.9965	3503.5771
C#CC1C2C3C4C1C2N34	C#C[C@H]1[C@H]2[C@H]3[C@H]4[C@@H]1[C@@H]2N34	
InChI=1S/C8H7N/c1-2-3-4-6-5(3)8-7(4)9(6)8/h1,3-8H	InChI=1S/C8H7N/c1-2-3-4-6-5(3)8-7(4)9(6)8/h1,3-8H/t3-,4+,5-,6+,7-,8+,9?
