18
gdb 80081	2.24061	1.99372	1.36266	3.464	77.56	-0.2354	-0.002	0.2334	994.0374	0.148754	-401.968003	-401.960197	-401.959253	-402.000132	30.306	
C	-0.3733233179	 1.3575987327	 0.2641295282	-0.410635
C	-0.0434013091	-0.0859228601	-0.0195562311	-0.001186
C	 0.7153929878	-0.5339271233	-1.2542851705	-0.096725
C	 1.3173825033	 0.3985572472	-2.2371083376	-0.067067
C	 2.5530799756	 0.8644451869	-2.043924388	-0.078656
C	 3.3538115301	 0.491698642	-0.8121003447	-0.351516
C	 2.398695461	 0.2860382822	 0.3614290319	 0.369947
O	 2.533991725	 0.8100199635	 1.4425717988	-0.34404
N	 1.3331217918	-0.5683894948	 0.0634710177	-0.105191
H	 0.2646545788	 2.036363259	-0.3071836903	 0.12958
H	-1.4165891423	 1.5588595706	 0.0020838267	 0.118783
H	-0.2323677782	 1.5775227459	 1.3262748789	 0.152116
H	-0.764990226	-0.8013031413	 0.3726184452	 0.101034
H	 0.4428049048	-1.5138660801	-1.6499229171	 0.104522
H	 0.7495525037	 0.6471726468	-3.1287608735	 0.10149
H	 3.014225677	 1.5344984283	-2.7639587371	 0.105451
H	 3.9314485112	-0.4250384358	-0.9931561873	 0.138115
H	 4.0639389633	 1.2728952402	-0.5338753801	 0.133978
111.1607	151.2986	192.7576	213.2129	345.3118	402.3433	419.9307	504.3915	536.3908	576.0678	661.2336	686.6758	734.8286	814.2272	849.2398	905.9269	946.6386	953.7132	993.847	999.3682	1033.8981	1079.389	1098.7608	1141.1994	1156.2123	1178.7331	1192.5458	1216.6881	1308.1503	1355.0447	1367.6173	1402.8072	1419.5762	1431.7741	1461.1212	1490.2189	1491.4581	1698.2276	1803.4334	3021.2547	3045.3448	3086.0438	3111.3931	3113.1339	3116.5863	3131.1429	3161.5984	3183.4353
CC1C2C=CCC(=O)N12	C[C@H]1[C@H]2C=CCC(=O)N12	
InChI=1S/C7H9NO/c1-5-6-3-2-4-7(9)8(5)6/h2-3,5-6H,4H2,1H3	InChI=1S/C7H9NO/c1-5-6-3-2-4-7(9)8(5)6/h2-3,5-6H,4H2,1H3/t5-,6+,8?/m0/s1
