19
gdb 122619	3.58793	0.85279	0.72059	2.5606	73.4	-0.2347	-0.0316	0.2031	1554.2389	0.157306	-460.151752	-460.142258	-460.141314	-460.187429	33.822	
O	-0.1697800278	 1.3500358064	 0.4027240603	-0.421867
C	 0.0555457584	 0.0621746099	-0.1356538744	-0.062895
C	-1.2410904999	-0.7158920768	-0.2827613561	-0.089033
O	-2.0725333373	 0.0484968313	-1.1575894657	-0.271214
C	-3.3687249147	-0.4479545113	-1.2956929424	 0.057459
C	-4.3112005922	 0.3554551559	-2.2329697349	-0.273948
C	-4.8209602716	-0.9716742944	-2.8734226075	-0.341271
C	-3.6077502461	-1.6653066408	-2.2275524611	 0.368985
O	-2.9859952467	-2.6606281248	-2.4607377235	-0.292414
H	-0.8743431386	 1.7364022978	-0.1303145373	 0.28813
H	 0.5549678217	 0.1154472572	-1.1160325566	 0.096971
H	 0.7231766813	-0.4661026725	 0.5526631011	 0.111258
H	-1.0636221047	-1.7167098729	-0.6958533488	 0.123273
H	-1.7329315967	-0.8182785011	 0.6973278153	 0.097005
H	-3.8386516923	-0.6317835856	-0.3136146129	 0.09035
H	-5.05105671	 0.990421624	-1.7462644222	 0.115641
H	-3.723773249	 0.948471387	-2.9368034751	 0.130098
H	-5.765673851	-1.3256659025	-2.4488726027	 0.136014
H	-4.8824101128	-1.0301465168	-3.9617644853	 0.137459
44.4369	68.331	89.956	139.0838	182.7681	240.9726	312.0014	382.241	417.2805	441.6509	522.0012	576.4269	686.2815	734.7364	767.072	877.7123	903.2439	921.6697	942.5072	1011.6199	1046.1699	1074.5462	1090.4836	1102.5156	1136.9375	1180.8582	1194.0167	1226.8254	1238.5352	1251.1237	1260.9068	1267.8589	1355.0027	1386.5938	1417.7783	1440.3474	1445.0305	1486.9161	1498.6584	1508.8761	1888.4718	2954.0003	2980.6821	2990.4711	3057.9098	3064.426	3081.7721	3086.7634	3124.5718	3149.7065	3798.7835
OCCOC1CCC1=O	OCCO[C@H]1CCC1=O	
InChI=1S/C6H10O3/c7-3-4-9-6-2-1-5(6)8/h6-7H,1-4H2	InChI=1S/C6H10O3/c7-3-4-9-6-2-1-5(6)8/h6-7H,1-4H2/t6-/m0/s1
