17
gdb 71473	4.20042	1.21106	1.09906	1.3186	80.39	-0.2317	0.0423	0.2739	1114.1894	0.134542	-384.605809	-384.597823	-384.596879	-384.637889	31.846	
O	-0.1474671609	 1.4184290447	 0.0286344432	-0.476614
C	-0.053489904	 0.0383396699	 0.0087123774	 0.366342
C	 0.4410733782	-0.7450303875	-1.2459020764	-0.302399
C	-0.5069829469	-1.8457299968	-0.7782026666	-0.106777
C	-1.3333622498	-0.8875218608	 0.0307221548	-0.171609
C	-0.4439187554	-1.8788624731	 0.7741753044	 0.239645
C	 0.5212859301	-0.7673000019	 1.2071469295	-0.361679
C	-0.8335374173	-3.0253279771	 1.5165479032	 0.118687
C	-1.1489764063	-3.9941376648	 2.1581292241	-0.379213
H	 0.743128574	 1.787204046	 0.0443120825	 0.28367
H	 0.0715021003	-0.2748749275	-2.1612533436	 0.109425
H	 1.5124991747	-0.9598100074	-1.331392902	 0.089323
H	-0.8458964808	-2.7205782198	-1.3159237423	 0.100857
H	-2.3938142194	-0.6990697364	 0.1020165831	 0.107841
H	 1.596298684	-0.9810815446	 1.2193878213	 0.090405
H	 0.2061049606	-0.3328079917	 2.1588116136	 0.113453
H	-1.430783721	-4.8473618313	 2.7229823637	 0.178643
130.5362	140.0269	165.5186	312.9106	341.4396	414.3391	448.2778	498.3872	510.0083	544.5859	568.5246	629.9514	648.8664	737.2045	741.8791	841.5868	870.7152	906.0327	909.0313	959.0543	978.7968	1006.098	1057.3117	1081.2712	1114.9971	1122.9195	1150.4761	1189.6862	1208.37	1235.6119	1255.8945	1307.9432	1371.3862	1391.4634	1487.8731	1508.9841	2232.9539	3030.2433	3037.2112	3104.1515	3112.1675	3212.2252	3239.1709	3505.4987	3795.7419
OC12CC3C1C3(C2)C#C	O[C@]12C[C@@H]3[C@H]1[C@@]3(C2)C#C	
InChI=1S/C8H8O/c1-2-7-4-8(9)3-5(7)6(7)8/h1,5-6,9H,3-4H2	InChI=1S/C8H8O/c1-2-7-4-8(9)3-5(7)6(7)8/h1,5-6,9H,3-4H2/t5-,6+,7-,8+/m1/s1
