14
gdb 10902	3.33475	2.02085	1.44563	2.5216	58.27	-0.2381	-0.0346	0.2035	852.0818	0.104301	-419.643987	-419.636053	-419.635109	-419.676334	28.06	
C	-0.0511189689	 1.5625864602	 0.0966014537	-0.515055
C	 0.1581608914	 0.0912893077	-0.0197825064	 0.281165
O	-0.7765502768	-0.816991495	 0.6201253009	-0.265686
C	 0.6039170685	-0.9611873518	 0.9384313586	-0.06211
C	 1.227697398	-1.8298076368	-0.1534297007	 0.003129
O	 0.804836215	-3.1606130729	-0.20316068	-0.423952
C	 0.6771970776	-0.7691437041	-1.1717111964	 0.343108
O	 0.7314479159	-0.6639134026	-2.3608794386	-0.304535
H	 0.856382546	 2.1039008377	-0.1873429801	 0.138129
H	-0.8584093853	 1.8860236981	-0.5679158122	 0.150889
H	-0.3193476834	 1.8306680048	 1.1216814516	 0.142424
H	 0.9047903743	-0.8419778551	 1.9721418233	 0.120193
H	 2.3288615018	-1.7351681414	-0.1454777599	 0.092049
H	 0.9144769958	-3.4720232589	-1.1084986739	 0.300251
97.3254	139.3386	171.0049	202.3022	241.1298	262.8772	333.4581	507.1302	558.398	627.6441	690.7331	768.9787	812.047	851.6535	934.7956	963.6099	992.5289	1040.8794	1092.1164	1155.4085	1170.692	1227.8123	1269.7196	1307.5566	1392.1382	1409.9575	1453.7888	1479.6663	1488.9177	1898.7398	2948.1514	3044.0512	3111.5138	3126.984	3201.5014	3808.1088
CC12OC1C(O)C2=O	C[C@]12O[C@H]1[C@@H](O)C2=O	
InChI=1S/C5H6O3/c1-5-3(7)2(6)4(5)8-5/h2,4,6H,1H3	InChI=1S/C5H6O3/c1-5-3(7)2(6)4(5)8-5/h2,4,6H,1H3/t2-,4-,5+/m0/s1
