19
gdb 83468	2.98312	1.05652	0.95534	3.8697	76.52	-0.2383	-0.0202	0.2181	1291.7134	0.157733	-423.000464	-422.991444	-422.9905	-423.035054	33.165	
O	-0.3596501113	 1.5224483972	 0.0925607272	-0.421739
C	-0.1847070021	 0.1344644873	 0.076239149	 0.061488
C	-0.457132339	-0.7451185053	 1.2641146863	-0.185276
C	-1.5967723013	-0.1616341257	 2.1067576198	-0.218227
C	-2.5214580598	-0.1652747871	 0.8512639188	-0.275417
C	-1.3781858053	-0.7634612151	 0.0127530572	 0.305854
C	-1.5697584243	-1.8082883061	-1.0585301124	-0.391887
C	-2.2022393654	-1.2165969339	-2.3060721917	 0.164966
O	-3.1877136585	-1.6473409219	-2.8462758462	-0.238975
H	 0.3292655181	 1.9050164552	 0.6464137759	 0.288618
H	 0.6527036336	-0.2030401806	-0.5375280783	 0.082504
H	 0.2624388386	-1.485641656	 1.5969254409	 0.084918
H	-1.9426671007	-0.8473163733	 2.8822518509	 0.10532
H	-1.3982036313	 0.8135103198	 2.5599778469	 0.096508
H	-3.3598682171	-0.8576501879	 0.955382053	 0.107211
H	-2.8964746614	 0.8039638046	 0.5155482375	 0.115182
H	-0.5917058404	-2.2169926896	-1.3505944572	 0.117218
H	-2.1942815394	-2.6392350812	-0.7150138805	 0.118612
H	-1.6750299531	-0.3171695606	-2.699618497	 0.083123
50.0592	63.4341	143.722	213.4128	243.7052	284.4584	307.0376	324.7693	435.3585	501.3901	576.6451	664.2332	761.1207	789.6515	803.2215	814.8244	904.858	954.5067	960.4467	981.2969	1010.1591	1022.5227	1074.6161	1084.3974	1139.5021	1145.4333	1189.5169	1220.5779	1247.5766	1247.8897	1263.2342	1291.1647	1305.3908	1322.1513	1345.906	1424.9358	1456.0434	1464.3724	1474.2509	1505.7785	1833.4201	2870.6439	3012.194	3059.7666	3069.1274	3083.8672	3086.5893	3108.9081	3126.8466	3167.068	3804.6596
OC1C2CCC12CC=O	O[C@H]1[C@H]2CC[C@@]12CC=O	
InChI=1S/C7H10O2/c8-4-3-7-2-1-5(7)6(7)9/h4-6,9H,1-3H2	InChI=1S/C7H10O2/c8-4-3-7-2-1-5(7)6(7)9/h4-6,9H,1-3H2/t5-,6+,7+/m1/s1
