17
gdb 87506	3.04291	1.37995	1.12769	1.5851	69.11	-0.2397	0.0575	0.2973	1087.0465	0.134017	-458.848519	-458.840328	-458.839384	-458.881093	31.643	
O	 0.0128421619	 1.4094780471	 0.1792694351	-0.4239
C	 0.0242572655	 0.0131735907	 0.0822228934	-0.023674
C	-0.3549196473	-0.7509406714	 1.3333913564	-0.382627
C	-1.262591823	-0.7298878469	 0.1486896754	 0.449353
C	-2.6960468486	-0.2533085323	-0.0923312147	-0.110834
O	-2.5329767283	-0.6034563396	-1.5257516393	-0.315504
C	-1.9352972106	-1.7455787661	-0.7855408286	-0.094949
C	-3.196541655	-1.7264343114	 0.1103462729	 0.13118
O	-3.1079962375	-2.3684692671	 1.3456593151	-0.423547
H	-0.3143324386	 1.7521822172	-0.6597985986	 0.292109
H	 0.8260066904	-0.4025907551	-0.5296799156	 0.0864
H	 0.189334377	-1.6583447861	 1.5716423781	 0.119331
H	-0.6471243259	-0.1551841771	 2.1917829464	 0.125689
H	-3.1684622081	 0.6994312715	 0.1472975112	 0.095728
H	-1.5053136029	-2.5600234	-1.3684139073	 0.096811
H	-4.120266095	-1.9399400778	-0.4386364812	 0.086053
H	-3.940694424	-2.2476368855	 1.8119494515	 0.29238
118.8658	131.8667	194.4746	234.0431	280.9055	347.3956	367.2557	431.9666	468.4631	529.3886	624.2279	698.9541	751.5479	820.6693	841.3004	866.1402	889.9216	895.8859	981.912	1003.5145	1045.4123	1073.8642	1097.4263	1123.4979	1132.3786	1148.1019	1155.8157	1182.6629	1198.9206	1232.9587	1247.5162	1284.6993	1305.9655	1378.3097	1420.5095	1434.3841	1511.6526	3055.6739	3089.2268	3120.5279	3126.5033	3133.309	3221.4747	3799.6371	3827.5877
OC1CC11C2OC1C2O	O[C@H]1C[C@]21[C@H]1O[C@@H]2[C@H]1O	
InChI=1S/C6H8O3/c7-2-1-6(2)4-3(8)5(6)9-4/h2-5,7-8H,1H2	InChI=1S/C6H8O3/c7-2-1-6(2)4-3(8)5(6)9-4/h2-5,7-8H,1H2/t2-,3-,4-,5+,6-/m0/s1
