21
gdb 41593	2.99704	1.56334	1.40685	1.6728	80.45	-0.2408	0.0692	0.31	1026.9028	0.186261	-387.066866	-387.059773	-387.058829	-387.098598	29.176	
C	 0.2691593518	 1.6260621857	 0.0480088031	-0.086494
O	 1.5428635861	 1.3473296926	 0.6797223124	-0.288144
C	 1.2562097597	-0.0671069228	 0.729218204	 0.101709
C	-0.0512560361	 0.1310521981	-0.0872430052	-0.106168
C	 0.5941734562	-0.6548763246	-1.2812416717	-0.006151
C	 1.0517360649	 0.0368310209	-2.5815331536	-0.240637
C	 2.5483170745	-0.33178762	-2.6907937428	-0.188308
C	 3.0596191868	-0.3088255189	-1.2340664957	-0.235536
C	 1.8883364942	-0.8932834723	-0.4274926637	-0.01836
H	-0.4019008244	 2.1575094731	 0.7357936636	 0.099563
H	 0.3777705521	 2.2228257268	-0.8647898251	 0.103829
H	 1.315728785	-0.4633159493	 1.7470188399	 0.069513
H	-1.0353964895	-0.2003466272	 0.2415825451	 0.072665
H	 0.0338188712	-1.5678531077	-1.4956442831	 0.069264
H	 0.4749415227	-0.279414502	-3.4553598646	 0.092682
H	 0.9483517002	 1.12466375	-2.5125380036	 0.101306
H	 2.6483394046	-1.3437781426	-3.1028483401	 0.094257
H	 3.1047816896	 0.3411577793	-3.3506242337	 0.092982
H	 3.9924066248	-0.8644196716	-1.1055312595	 0.090284
H	 3.2372628145	 0.7230012526	-0.9151218808	 0.119528
H	 2.050106391	-1.9366966502	-0.1433002351	 0.062217
66.3813	169.3115	272.6214	304.3511	450.1771	500.2842	551.8521	605.1618	655.4604	755.9133	812.5048	841.9537	846.779	865.3825	900.5462	918.0653	932.7201	951.4099	996.5176	1004.6633	1010.5066	1022.5111	1058.5759	1092.2436	1114.1006	1141.5695	1159.9538	1173.8173	1186.97	1198.7535	1226.8228	1257.6281	1273.2734	1293.5351	1303.0817	1315.476	1323.9544	1337.6437	1343.2145	1348.0664	1372.003	1487.4993	1492.6981	1506.7189	1527.7726	3009.535	3027.9792	3050.0752	3053.3149	3054.6668	3058.0919	3064.5977	3072.0446	3082.8224	3094.2877	3104.5391	3116.5399
C1OC2C1C1CCCC21	C1O[C@H]2[C@@H]1[C@H]1CCC[C@@H]21	
InChI=1S/C8H12O/c1-2-5-6(3-1)8-7(5)4-9-8/h5-8H,1-4H2	InChI=1S/C8H12O/c1-2-5-6(3-1)8-7(5)4-9-8/h5-8H,1-4H2/t5-,6+,7-,8+/m0/s1
