17
gdb 90989	2.79323	1.8779	1.37238	0.4003	66.76	-0.2438	0.0569	0.3007	943.874	0.135372	-458.894284	-458.886938	-458.885994	-458.9257	29.576	
C	-0.0847561031	 1.5616039357	-0.0771112737	-0.403635
C	 0.0101658524	 0.0471391286	-0.0176032834	 0.084734
O	 0.8921842945	-0.4644530927	-1.0509915306	-0.289835
C	 1.8591995764	-1.1873771304	-0.3308839531	 0.095779
C	 1.2214163971	-1.9500941067	 0.8607276475	-0.062663
O	 2.4200103089	-1.7351091533	 1.6857612198	-0.338345
C	 2.2470941575	-0.4551300095	 0.980767064	-0.061397
C	 0.6932787463	-0.5161004759	 1.220462098	 0.396912
O	 0.1207442376	-0.2217225567	 2.434690802	-0.488971
H	 0.8992491655	 2.0208119307	 0.0584242259	 0.119097
H	-0.4822336874	 1.879861893	-1.0445446798	 0.127845
H	-0.7497516679	 1.9249509724	 0.7120493304	 0.13416
H	-0.9828749175	-0.4007392478	-0.1537456996	 0.091399
H	 2.6078389178	-1.649633331	-0.9685791911	 0.107783
H	 0.7257629902	-2.9191255538	 0.9120222962	 0.096106
H	 2.9669302843	 0.3393272553	 1.1742754793	 0.097107
H	 0.6723381174	-0.646723818	 3.1064298681	 0.293924
140.958	212.1067	226.3793	282.8972	362.111	436.3001	472.9789	505.1598	513.4303	675.4676	694.8063	700.8632	805.029	837.938	852.9237	885.3403	891.811	930.0218	979.7251	1040.4671	1075.3658	1082.6513	1106.8594	1127.2163	1144.3758	1150.8913	1170.074	1202.4164	1248.7713	1290.2152	1311.704	1370.3425	1379.5121	1407.6623	1438.1399	1489.2116	1493.5568	3022.8646	3043.0464	3117.9469	3123.6868	3125.0425	3129.7957	3172.3212	3751.1168
CC1OC2C3OC2C13O	C[C@H]1O[C@@H]2[C@H]3O[C@@H]2[C@@]13O	
InChI=1S/C6H8O3/c1-2-6(7)4-3(8-2)5(6)9-4/h2-5,7H,1H3	InChI=1S/C6H8O3/c1-2-6(7)4-3(8-2)5(6)9-4/h2-5,7H,1H3/t2-,3-,4-,5+,6-/m1/s1
