25
gdb 114119	3.75826	0.86048	0.78914	0.2713	93.51	-0.2403	0.0871	0.3274	1617.4612	0.22861	-352.342268	-352.332243	-352.331299	-352.377194	38.242	
C	 0.0571008055	 1.5547822763	 0.058512396	-0.377154
C	 0.0546365213	 0.0284176611	 0.1923098342	-0.191701
C	-1.3360339952	-0.5803144707	 0.0294893031	 0.051484
C	-2.0324323005	-0.5566055009	-1.3779089617	-0.317268
C	-2.2332965602	-2.0809484969	-1.2910049273	 0.402866
C	-3.4732650807	-2.8065470749	-1.7374706847	-0.297066
C	-3.6108029598	-2.8728310202	-3.2650902111	-0.37128
C	-0.8871647655	-2.7415673959	-1.1744346898	-0.327929
C	-1.4949333315	-2.1078204648	 0.0516696975	-0.151481
H	 1.0645598091	 1.9656523575	 0.1773464184	 0.109489
H	-0.3156838433	 1.867751334	-0.9229989009	 0.116858
H	-0.5835740236	 2.0192682353	 0.8167543996	 0.111104
H	 0.7382839968	-0.4052043251	-0.5480455026	 0.092343
H	 0.4527070763	-0.2554977272	 1.1757221841	 0.092255
H	-2.0078939497	-0.1286843211	 0.7684488915	 0.066482
H	-2.9700746541	 0.0056744935	-1.376344134	 0.096152
H	-1.4208147084	-0.2053195259	-2.216893448	 0.088506
H	-3.4642184572	-3.8238787153	-1.3255486711	 0.092997
H	-4.3588514563	-2.3126342067	-1.3142241465	 0.091698
H	-3.643418895	-1.8690286288	-3.7022344022	 0.117093
H	-2.7622219526	-3.4009487546	-3.7122089751	 0.117106
H	-4.5274788183	-3.3937902343	-3.5589159386	 0.108229
H	-0.9039104185	-3.8277455985	-1.1776615194	 0.104007
H	-0.0077264152	-2.3164278528	-1.6529638254	 0.099844
H	-1.7151757838	-2.6984095031	 0.934751024	 0.075365
77.5405	93.337	122.0019	143.2556	216.5733	230.1154	264.6054	322.4425	345.9776	402.8106	420.9635	517.3853	629.8798	695.3767	775.2148	788.9917	818.8236	855.0352	880.618	928.9991	944.8672	971.9644	978.8581	989.7639	1011.5801	1030.6273	1051.8792	1075.4769	1087.5264	1103.5104	1118.2917	1143.5923	1191.5549	1231.0731	1240.046	1263.1492	1283.9207	1292.4187	1322.5184	1342.8458	1358.0297	1390.257	1406.1502	1410.3868	1415.728	1480.0145	1482.3022	1484.9313	1498.9491	1499.7083	1506.3736	1508.4286	1509.3107	3008.4219	3016.3564	3028.0941	3030.1095	3031.8792	3034.0735	3044.0964	3052.7936	3092.0118	3095.6129	3100.6922	3100.8811	3103.7888	3104.7589	3160.3293	3188.5003
CCC1CC2(CC)CC12	CC[C@H]1C[C@@]2(CC)C[C@@H]12	
InChI=1S/C9H16/c1-3-7-5-9(4-2)6-8(7)9/h7-8H,3-6H2,1-2H3	InChI=1S/C9H16/c1-3-7-5-9(4-2)6-8(7)9/h7-8H,3-6H2,1-2H3/t7-,8-,9-/m0/s1
