14
gdb 11103	6.06651	1.18212	1.12303	4.1304	59.57	-0.2517	-0.0461	0.2056	1028.0738	0.104503	-419.660228	-419.652416	-419.651472	-419.693806	26.177	
O	-0.4467382453	 0.227167161	-0.0877513857	-0.225173
C	 0.0238910802	 1.3062708331	-0.3228071565	 0.141158
C	 1.3789134744	 1.7842784612	 0.1537971133	 0.058979
C	 1.3190756536	 2.6896283308	 1.4186543581	-0.339331
C	 2.1545617651	 1.5383485386	 2.0508194007	 0.058978
O	 2.1464757026	 0.7889995391	 0.8339525172	-0.255601
C	 3.5331486221	 1.962276625	 2.510727585	 0.141156
O	 4.5474302401	 1.7926009149	 1.8913296748	-0.225174
H	-0.5288180292	 2.0793207722	-0.9088571402	 0.075647
H	 1.9232342043	 2.2240883138	-0.6939853998	 0.111747
H	 1.8287666688	 3.6493502762	 1.3288205457	 0.135111
H	 0.327868235	 2.8360107186	 1.8487721128	 0.13511
H	 1.6495485286	 1.008275511	 2.8708383179	 0.111743
H	 3.5208897696	 2.4870312046	 3.4961336768	 0.07565
40.1419	81.2914	128.0911	158.1136	263.2369	299.6713	378.4086	674.5423	709.3332	729.9067	811.0817	876.8786	895.1497	948.1056	966.3834	984.0723	1094.451	1116.0634	1116.8277	1156.179	1237.9167	1245.9583	1278.173	1331.785	1375.4605	1412.2537	1418.995	1491.1477	1844.662	1847.8903	2848.0486	2849.4443	3010.8007	3015.1717	3087.9206	3147.9121
O=CC1CC(O1)C=O	O=C[C@H]1C[C@@H](O1)C=O	
InChI=1S/C5H6O3/c6-2-4-1-5(3-7)8-4/h2-5H,1H2	InChI=1S/C5H6O3/c6-2-4-1-5(3-7)8-4/h2-5H,1H2/t4-,5-/m1/s1
