17
gdb 61068	2.98727	1.19063	1.12397	2.2559	69.74	-0.2413	-0.0367	0.2046	1146.3605	0.13467	-458.966591	-458.958109	-458.957165	-459.000448	30.756	
O	-1.1898705543	 0.3593875243	-0.2170434782	-0.439055
C	 0.0520775089	-0.2714118431	-0.0713915364	 0.024795
C	 1.1363130172	 0.5178189203	-0.774826957	 0.143741
O	 0.875923524	 1.5119994409	-1.4113990861	-0.271284
C	 0.3680310377	-0.4648564731	 1.4316586626	 0.050858
O	 1.547896954	-1.2565500131	 1.5663812582	-0.282382
C	 2.4716704085	-0.6190558203	 2.4522911041	-0.119267
C	 1.8549942686	 0.7167789352	 2.7600831447	-0.098223
C	 0.6617055865	 0.8047532298	 2.1837217627	-0.087039
H	-1.0249471562	 1.1184675191	-0.7999061483	 0.296371
H	 0.0479595528	-1.2781354667	-0.5267608997	 0.105134
H	 2.1672301957	 0.1292209017	-0.6843679329	 0.112073
H	-0.4973833515	-0.9945167068	 1.8605121347	 0.102589
H	 2.6123839423	-1.2326709741	 3.3562471966	 0.113201
H	 3.4522700627	-0.5374975321	 1.9603143077	 0.111172
H	 2.3396625502	 1.4643848267	 3.3749088356	 0.113857
H	-0.0358937971	 1.6297153315	 2.2253541115	 0.12346
67.654	83.1981	126.4932	196.0578	226.1642	315.6307	374.706	402.8854	487.9278	600.9683	714.9267	739.2211	771.0292	811.8746	831.6908	899.9778	941.5077	963.0254	966.8808	1035.667	1048.3216	1090.2857	1112.2211	1129.8594	1155.3556	1199.7097	1238.3871	1294.2376	1316.8106	1342.7048	1373.8284	1380.5836	1386.3903	1450.8723	1520.0231	1686.8156	1806.05	2949.981	2974.2751	2976.5062	2980.244	3004.1821	3215.2597	3244.5621	3678.133
OC(C=O)C1OCC=C1	O[C@@H](C=O)[C@H]1OCC=C1	
InChI=1S/C6H8O3/c7-4-5(8)6-2-1-3-9-6/h1-2,4-6,8H,3H2	InChI=1S/C6H8O3/c7-4-5(8)6-2-1-3-9-6/h1-2,4-6,8H,3H2/t5-,6-/m0/s1
