20
gdb 75885	2.33282	1.57567	1.20812	2.1038	74.51	-0.231	-0.0308	0.2002	1106.7689	0.169711	-440.308264	-440.298982	-440.298038	-440.341659	35.72	
C	 0.2634350158	 1.4631563214	 0.0362478079	-0.399839
C	-0.0394187899	-0.040855537	 0.0114591236	 0.224732
C	-1.5436757036	-0.2863916989	-0.03887916	-0.452128
N	 0.6151372182	-0.6670874909	-1.1739750533	-0.317978
C	 2.0183304786	-0.9399527705	-0.8279031972	-0.287746
C	 2.0826478325	-0.8857961374	 0.6964368974	 0.35319
O	 3.0516698224	-0.8390715404	 1.4129212244	-0.329945
C	 0.6505670249	-0.760048351	 1.201504765	 0.042267
O	 0.583002496	-0.1410419947	 2.45262845	-0.441345
H	 1.3402959665	 1.6612955287	 0.0165896911	 0.114514
H	-0.1818475988	 1.9469883574	-0.8367655356	 0.11973
H	-0.1360790514	 1.9148733782	 0.9469504329	 0.133834
H	-1.9745139624	 0.1514744507	-0.9446407931	 0.125195
H	-1.7688621018	-1.3595078865	-0.0343878439	 0.106668
H	-2.0338139365	 0.1616065437	 0.8297652161	 0.137191
H	 0.1420027705	-1.5395149124	-1.3832579618	 0.21964
H	 2.3600924448	-1.9081811804	-1.2069996792	 0.135426
H	 2.6986708198	-0.1821581044	-1.2369773466	 0.142679
H	 0.2351842711	-1.7862026936	 1.2448302651	 0.081872
H	 1.4853981535	-0.1623761021	 2.8078825871	 0.292042
90.8195	155.8301	202.8941	217.1245	245.6152	263.0479	302.8731	348.9121	397.7851	415.4815	455.5967	522.9626	559.5004	616.0204	656.8236	734.9297	780.2787	803.6325	895.482	952.5071	974.9409	999.3393	1039.9768	1066.1865	1107.1355	1118.8893	1160.4683	1212.6468	1235.1609	1263.5669	1281.1445	1316.9528	1353.4685	1397.1522	1405.9894	1415.7013	1457.6253	1465.2703	1481.813	1488.1886	1501.277	1506.4078	1842.6475	2913.2938	3028.5556	3029.3219	3044.1444	3082.9213	3096.556	3109.5794	3120.0117	3136.8081	3525.5365	3697.6348
CC1(C)NCC(=O)C1O	CC1(C)NCC(=O)[C@H]1O	
InChI=1S/C6H11NO2/c1-6(2)5(9)4(8)3-7-6/h5,7,9H,3H2,1-2H3	InChI=1S/C6H11NO2/c1-6(2)5(9)4(8)3-7-6/h5,7,9H,3H2,1-2H3/t5-/m1/s1
