17
gdb 84072	2.35917	1.64529	1.084	1.5514	71.53	-0.2465	-0.0645	0.1821	1106.5399	0.13585	-455.181147	-455.172243	-455.171299	-455.21451	33.367	
C	 0.1234480078	 1.5484156908	-0.0405425656	-0.365966
C	-0.0279715691	 0.0282356956	 0.0351747708	-0.016524
N	 0.5765652275	-0.6131664132	-1.1547079049	-0.280966
C	 1.6620190645	-1.2157065525	-0.8234952988	 0.295775
N	 2.5057232758	-1.8945214893	-1.645420817	-0.574963
C	 1.9664080168	-1.1219477361	 0.6403779599	 0.292196
O	 3.0118330131	-1.3512746475	 1.2020479909	-0.339574
C	 0.688136073	-0.5927073099	 1.263946365	 0.031332
O	 0.9194916626	 0.2697206366	 2.3463033218	-0.431356
H	 1.1793147931	 1.8356326305	-0.021883341	 0.113346
H	-0.3177798935	 1.9162731143	-0.9703464899	 0.12269
H	-0.3718451133	 2.0260057714	 0.8079950123	 0.130584
H	-1.0951144988	-0.2179031437	 0.0370718653	 0.086684
H	 2.4337451551	-1.7263451105	-2.6363165538	 0.26578
H	 3.4276388295	-2.0754232209	-1.2795632151	 0.270793
H	 0.1127824865	-1.4816400189	 1.5827181766	 0.106052
H	 1.7691953295	 0.0099023035	 2.7285738035	 0.294117
69.9525	150.221	220.6995	229.6781	246.1517	266.4624	346.0989	361.4676	431.5215	448.4009	502.1595	516.9365	590.6836	625.7721	685.1577	718.7193	837.3235	884.766	925.189	1030.912	1055.6559	1089.3813	1117.3147	1163.2567	1194.8958	1223.0027	1310.1321	1358.3186	1362.6111	1388.6596	1406.4609	1431.2044	1485.5546	1490.9386	1613.1421	1708.6429	1828.2038	2934.0976	3044.0574	3047.6446	3119.5769	3134.3627	3585.1269	3704.4038	3746.3848
CC1N=C(N)C(=O)C1O	C[C@H]1[N][C](N)C(=O)[C@H]1O	
InChI=1S/C5H8N2O2/c1-2-3(8)4(9)5(6)7-2/h2-3,8H,1H3,(H2,6,7)	InChI=1S/C5H8N2O2/c1-2-3(8)4(9)5(6)7-2/h2-3,8H,1H3,(H2,6,7)/t2-,3+/m1/s1
