14
gdb 27663	3.25468	1.21955	0.89026	5.2471	72.79	-0.1987	0.0111	0.2098	1207.8219	0.102518	-432.917914	-432.909533	-432.908589	-432.95087	30.879	
N	 0.1413895108	 1.4095006625	 0.1549750133	-0.610368
C	-0.0238635283	 0.0170586903	 0.0433402788	 0.301965
C	-1.1095894465	-0.8104199664	 0.0478024223	-0.335332
C	-0.6206744668	-2.1682252383	-0.0153432965	 0.05691
C	-1.3289406478	-3.3851159042	-0.0421544781	 0.163829
N	-1.8629928305	-4.4160597953	-0.0689634552	-0.377841
C	 0.7616006553	-2.0874720413	-0.0672006268	 0.334299
O	 1.7176183935	-3.0279395977	-0.1423161244	-0.421653
N	 1.1181879846	-0.7803812531	-0.028567277	-0.327578
H	 0.2712672729	 1.8623461972	-0.7456393078	 0.24933
H	-0.6616117626	 1.8334983107	 0.6026125189	 0.2537
H	-2.1453251755	-0.5132232156	 0.0776168687	 0.111489
H	 1.2917251429	-3.894159718	-0.1697548186	 0.324977
H	 2.062370208	-0.4383371008	 0.0378685725	 0.276273
122.0713	127.288	138.6584	226.1488	297.7835	334.3121	359.1336	439.9408	491.6278	515.5066	531.4003	604.8041	643.809	670.1756	700.257	777.0611	802.4254	817.6653	1018.0362	1149.8415	1158.7244	1190.8994	1213.179	1277.9828	1371.0246	1414.5252	1565.1522	1600.9521	1635.6876	1662.0446	2321.606	3265.7403	3489.7268	3598.4652	3672.4363	3794.2789
NC1=CC(C#N)=C(O)N1	Nc1cc(C#N)c(O)[nH]1	
InChI=1S/C5H5N3O/c6-2-3-1-4(7)8-5(3)9/h1,8-9H,7H2	InChI=1S/C5H5N3O/c6-2-3-1-4(7)8-5(3)9/h1,8-9H,7H2
