15
gdb 94525	3.18722	1.21314	1.0061	2.3583	69.38	-0.2548	-0.0835	0.1713	1160.6908	0.110493	-457.705479	-457.696884	-457.69594	-457.73994	30.841	
O	 0.539704355	 1.4466294338	 0.5231657844	-0.426246
C	 0.2732605355	 0.0938480797	 0.3707818879	 0.094543
C	-0.459119474	-0.7104219705	 1.4741352832	-0.122252
O	-1.3007164554	-1.3481059932	 0.4754262679	-0.286736
C	-0.8908886553	-0.4015703992	-0.5411660826	-0.040841
C	-2.0457750335	 0.5837760736	-0.7297875642	 0.255206
O	-2.1503418568	 1.6043965871	-0.071762224	-0.32422
C	-3.0558792729	 0.1809041491	-1.6806994025	 0.261844
C	-3.8627807201	-0.1858429295	-2.4954756939	-0.372676
H	-0.3171929873	 1.8928385241	 0.5991880801	 0.301734
H	 1.2096791775	-0.3906286452	 0.083116262	 0.108139
H	 0.1146004893	-1.4466900284	 2.0449152633	 0.115671
H	-1.0413415916	-0.0789714712	 2.1565400091	 0.114929
H	-0.6400908061	-0.8978874321	-1.48431343	 0.097056
H	-4.5887689042	-0.4958999881	-3.2080450008	 0.223849
24.2633	116.4229	132.6388	214.7765	240.6724	281.2756	342.9713	430.5852	519.0237	598.9743	624.8344	649.2413	699.2323	716.8336	757.4052	837.5826	873.5224	978.3126	997.3414	1003.2713	1055.8695	1117.1762	1153.1607	1183.0312	1246.3144	1262.6498	1317.6463	1357.3431	1369.2035	1474.3807	1512.2212	1738.874	2211.7472	3027.1675	3056.4206	3079.8376	3097.3148	3492.1937	3708.9531
OC1COC1C(=O)C#C	O[C@H]1CO[C@H]1C(=O)C#C	
InChI=1S/C6H6O3/c1-2-4(7)6-5(8)3-9-6/h1,5-6,8H,3H2	InChI=1S/C6H6O3/c1-2-4(7)6-5(8)3-9-6/h1,5-6,8H,3H2/t5-,6-/m0/s1
