18
gdb 123911	3.49683	1.60677	1.14834	3.8066	78.39	-0.191	0.0428	0.2338	1046.4945	0.152753	-398.159021	-398.151856	-398.150912	-398.190642	28.315	
C	-0.0265663195	 1.489067341	 0.0120926206	-0.225687
C	 1.3929447823	 2.0736235165	-0.0025095207	-0.163272
N	 2.214208577	 1.5898190053	 1.1090040029	-0.406833
C	 1.9554326503	 0.3079694195	 1.5832764632	 0.454479
C	 2.5583654796	-0.4554732701	 2.5708603704	-0.36438
C	 1.8534028258	-1.6760774104	 2.536390185	 0.013717
N	 0.8992289862	-1.6933562102	 1.6122111875	-0.295498
N	 0.9712513248	-0.4590989615	 1.0435028365	-0.013771
C	 0.0481411742	-0.0405405693	 0.0086242897	-0.139219
H	-0.5597644132	 1.8312998726	 0.9063114177	 0.113575
H	-0.5847842142	 1.8332001968	-0.8635744128	 0.109422
H	 1.8788034259	 1.8039996196	-0.9511105804	 0.115859
H	 1.3670913051	 3.1651616092	 0.0411407672	 0.11092
H	 2.3692016415	 2.2637742743	 1.8430271171	 0.244817
H	 3.3839122766	-0.169732502	 3.2015466346	 0.091123
H	 2.012517952	-2.5509876956	 3.1506986654	 0.103627
H	-0.9208342291	-0.499179752	 0.2174596751	 0.132812
H	 0.3851351046	-0.4059337138	-0.9708049289	 0.118308
90.114	167.5444	267.9015	307.0305	402.8037	443.4942	496.2475	528.5416	649.2579	688.6126	704.7662	731.4692	755.4644	880.0558	884.1771	889.6816	938.1795	959.8078	997.2182	1061.492	1083.5216	1134.7926	1169.8032	1211.6883	1225.0704	1254.6158	1290.1115	1303.2011	1362.272	1365.6842	1379.7267	1402.0006	1426.0205	1468.6443	1486.1427	1492.7128	1513.5295	1557.6902	1605.0283	3003.3126	3015.3701	3044.7641	3095.4969	3097.7357	3106.7728	3235.8789	3268.5781	3606.7645
C1CNC2=CC=NN2C1	C1CNc2ccnn2C1	
InChI=1S/C6H9N3/c1-3-7-6-2-4-8-9(6)5-1/h2,4,7H,1,3,5H2	InChI=1S/C6H9N3/c1-3-7-6-2-4-8-9(6)5-1/h2,4,7H,1,3,5H2
