17
gdb 24400	3.58396	1.56997	1.12008	0.4273	81.14	-0.1935	-0.0071	0.1864	1051.5261	0.139288	-384.739715	-384.73293	-384.731985	-384.770767	27.422	
C	-0.001661237	 1.4972983329	 0.0938799258	-0.265313
C	 1.3980935272	 2.1398631945	-0.074483788	-0.336819
C	 2.156102993	 1.3564842077	-1.0878540416	 0.290236
C	 1.9678748754	 0.0322944557	-1.35998563	 0.221003
C	 2.9870895331	-0.3205118382	-2.3092025531	-0.327246
C	 3.7018884387	 0.8137053874	-2.5285354013	-0.019272
O	 3.2093989778	 1.8496322394	-1.7819040785	-0.193423
C	 0.9092331682	-0.6984776362	-0.6751710201	-0.164439
C	 0.0033977919	-0.0188085805	 0.0417201362	-0.086434
H	-0.4521351698	 1.8463844124	 1.0281085911	 0.106413
H	-0.6581391221	 1.8620322546	-0.7119347079	 0.117457
H	 1.3029030806	 3.1916068827	-0.3611934401	 0.118809
H	 1.9393369642	 2.1246321883	 0.884455284	 0.117139
H	 3.1564690116	-1.2818961143	-2.7694157088	 0.110534
H	 4.5412633698	 1.0549964832	-3.158846536	 0.132747
H	 0.8721332556	-1.7807495426	-0.7494800441	 0.088187
H	-0.8008648082	-0.540476867	 0.5509419524	 0.090422
133.1663	206.6566	247.4733	376.2851	422.4313	496.406	575.6556	614.9477	657.1891	696.7541	724.8178	743.4869	792.3893	825.1405	867.3886	897.0706	922.4215	977.4365	1016.7741	1036.9892	1062.4714	1129.3374	1155.2485	1170.7158	1201.6223	1239.8458	1262.1555	1291.3674	1346.4575	1355.7115	1413.5874	1467.8078	1470.807	1487.5402	1532.5649	1627.1492	1684.532	2978.1454	2988.9658	3073.2906	3076.8459	3167.1568	3188.7023	3250.0149	3287.2932
C1CC2=C(C=CO2)C=C1	C1Cc2c(cco2)C=C1	
InChI=1S/C8H8O/c1-2-4-8-7(3-1)5-6-9-8/h1,3,5-6H,2,4H2	InChI=1S/C8H8O/c1-2-4-8-7(3-1)5-6-9-8/h1,3,5-6H,2,4H2
