21
gdb 69517	2.2931	1.64992	1.30583	0.8738	82.58	-0.2007	0.0803	0.281	1098.6887	0.180446	-387.024751	-387.015565	-387.014621	-387.057734	36.355	
C	-0.0280199366	 1.5315855633	 0.0837287739	-0.492594
C	 0.0086060676	 0.0301812626	 0.0211043423	 0.311839
C	-0.9182824338	-0.8398390965	 0.8331468664	-0.360465
C	 0.5715179909	-0.9554616791	 1.0341495722	-0.175107
C	 1.3059515983	-1.7040414757	-0.1161750967	 0.355784
O	 2.6231546226	-2.1100474014	 0.0137513036	-0.460574
C	 0.3929447449	-2.2156907241	-1.1985903367	-0.430986
C	 0.7543699871	-0.7378343488	-1.1338893157	 0.234569
C	 1.436349466	-0.0332154445	-2.272123966	-0.495119
H	 0.9601852165	 1.9725550851	-0.0869478332	 0.120065
H	-0.7114609407	 1.95139197	-0.6649376515	 0.117291
H	-0.3718906209	 1.8663794359	 1.0677625059	 0.115541
H	-1.4325789682	-0.3064856137	 1.6289543072	 0.106075
H	-1.5149761569	-1.6405081979	 0.4105540291	 0.10785
H	 1.0616111654	-0.7360591768	 1.9751205998	 0.08744
H	 2.6286814097	-3.0060441117	 0.3701659164	 0.283147
H	 0.9335149281	-2.7349521265	-1.9858067321	 0.109254
H	-0.6035453853	-2.6080770839	-1.0262839027	 0.104861
H	 0.715014212	 0.3250981163	-3.0166334076	 0.116269
H	 2.0145006933	 0.8303568712	-1.9270164643	 0.119978
H	 2.1303274299	-0.7102451538	-2.7790931402	 0.124881
126.2529	168.873	181.2431	200.4015	270.1056	276.6573	320.5418	358.9902	386.2364	469.4835	471.8802	510.5012	558.5698	626.2016	702.6155	805.9127	812.6718	844.6482	874.3265	911.98	956.5756	968.3795	977.6663	1001.4891	1045.5455	1053.7414	1089.4323	1096.5625	1116.0047	1156.7339	1163.8546	1212.3524	1275.5684	1289.5598	1313.2543	1369.3761	1408.5519	1420.4276	1422.6578	1479.1777	1486.9234	1494.3003	1502.1505	1506.3842	1523.293	3018.3859	3024.8981	3076.2517	3084.1402	3095.4874	3105.0588	3113.225	3126.2246	3183.5198	3192.9586	3202.3638	3776.1887
CC12CC1C1(O)CC21C	C[C@]12C[C@H]1[C@@]1(O)C[C@@]21C	
InChI=1S/C8H12O/c1-6-3-5(6)8(9)4-7(6,8)2/h5,9H,3-4H2,1-2H3	InChI=1S/C8H12O/c1-6-3-5(6)8(9)4-7(6,8)2/h5,9H,3-4H2,1-2H3/t5-,6+,7+,8+/m1/s1
