23
gdb 52836	2.14932	1.08743	0.98531	0.2071	95.	-0.2362	0.062	0.2982	1438.1235	0.2034	-351.135831	-351.124956	-351.124012	-351.173004	39.286	
C	 0.0720046348	 1.4968001906	 0.0435933732	-0.498992
C	 0.0544708952	 0.0401893868	 0.0286117282	 0.007508
C	 0.0439507372	-1.1654047389	 0.0163118829	 0.102734
C	 0.0509055969	-2.6236322805	-0.0034016306	 0.111297
C	 0.9990259707	-3.1474420395	-1.0869588196	-0.453029
C	 0.2298899228	-3.2177611643	 1.4401129168	-0.24369
C	-1.3082774629	-3.3456244882	 1.5565871972	-0.229922
C	-1.4055609732	-3.2437944478	 0.0125382644	 0.033471
C	-2.5674340339	-2.4992976861	-0.621153402	-0.418615
H	 1.076905135	 1.8852780082	-0.1568613986	 0.14573
H	-0.599454254	 1.9132772474	-0.7157324711	 0.145429
H	-0.2451070267	 1.8906527582	 1.015813811	 0.145011
H	 2.0205936275	-2.7920272222	-0.9183223689	 0.120849
H	 1.0117114149	-4.2424774354	-1.0875120975	 0.106417
H	 0.6866631497	-2.8060777699	-2.0792422152	 0.120527
H	 0.7217729843	-4.1940761977	 1.394133316	 0.0951
H	 0.7492126718	-2.5906599892	 2.1665909444	 0.101422
H	-1.710890054	-4.2439992674	 2.0304891409	 0.091256
H	-1.7479382737	-2.4676103611	 2.0392132417	 0.105686
H	-1.3284928716	-4.2483560063	-0.4205682331	 0.067579
H	-2.6405466927	-1.480581501	-0.2293257374	 0.12369
H	-2.4554212788	-2.4315600324	-1.7091457223	 0.111867
H	-3.5130695294	-3.0139193333	-0.4161842103	 0.108675
16.3402	81.3147	91.0682	138.9266	196.5278	225.5723	244.142	262.2463	294.4614	315.3835	367.7291	431.5242	495.4352	565.3083	596.6718	637.3452	764.0413	815.4232	885.1175	899.4657	929.383	958.4495	1015.8094	1050.1521	1052.9083	1054.7661	1075.6928	1114.7049	1134.2616	1164.093	1191.1892	1213.2245	1255.5014	1266.7603	1274.864	1326.8957	1374.2362	1404.0092	1409.4396	1414.9661	1478.6131	1479.3037	1479.7492	1488.2712	1491.1258	1492.8706	1497.1264	1499.1242	2358.303	3023.4302	3025.1603	3027.2214	3031.643	3054.1178	3056.5452	3082.7653	3083.0148	3088.2696	3100.2801	3103.1325	3103.8705	3110.142	3123.0077
CC#CC1(C)CCC1C	CC#C[C@@]1(C)CC[C@H]1C	
InChI=1S/C9H14/c1-4-6-9(3)7-5-8(9)2/h8H,5,7H2,1-3H3	InChI=1S/C9H14/c1-4-6-9(3)7-5-8(9)2/h8H,5,7H2,1-3H3/t8-,9+/m1/s1
