16
gdb 49295	3.4258	1.27618	0.96498	0.3042	74.91	-0.2464	-0.0765	0.1699	1165.2501	0.126537	-434.093541	-434.085831	-434.084886	-434.126054	28.568	
O	-0.8724303305	 1.1754765362	-0.0161083693	-0.27652
C	 0.2721968555	 0.8689338559	-0.2510559118	 0.145533
C	 1.4377727248	 1.7604677637	 0.0589472524	 0.271247
N	 2.5830192876	 1.3386119453	-0.3119896237	-0.27067
C	 3.7666357398	 2.1551186206	-0.148587297	-0.183801
C	 3.9217486286	 2.8660797353	 1.2174105954	-0.175779
N	 3.0628471712	 4.0094078924	 1.4533626544	-0.228657
C	 1.8191894993	 3.9567616393	 1.2208460278	 0.086483
N	 1.0503683299	 2.9343233353	 0.6756454816	-0.355284
H	 0.5683937132	-0.0824796346	-0.7279257698	 0.1198
H	 4.638763345	 1.5130601618	-0.3124110545	 0.113714
H	 3.7862200597	 2.9196711666	-0.9372546269	 0.130532
H	 3.7698752445	 2.1219958408	 2.0110791722	 0.122651
H	 4.9593676213	 3.2062524013	 1.3039992932	 0.112871
H	 1.2041691696	 4.8213770422	 1.4751308779	 0.121191
H	 0.0418859006	 3.0274515179	 0.7338132179	 0.26669
107.1432	116.3033	197.9019	218.4486	304.0721	379.8809	396.5534	508.711	563.7836	630.5792	676.58	705.4368	787.0657	830.2836	910.4618	947.906	954.3139	1028.7844	1030.2089	1068.4042	1086.7606	1177.6599	1225.8058	1259.2055	1300.9711	1331.3487	1369.4144	1378.7132	1438.8551	1485.5994	1492.4041	1539.4835	1718.9363	1754.474	1804.1163	2989.7462	3014.8471	3020.2482	3062.4441	3067.1	3120.7337	3541.6785
O=CC1=NCCN=CN1	O=CC1=NCCN=CN1	
InChI=1S/C5H7N3O/c9-3-5-7-2-1-6-4-8-5/h3-4H,1-2H2,(H,6,7,8)	InChI=1S/C5H7N3O/c9-3-5-7-2-1-6-4-8-5/h3-4H,1-2H2,(H,6,7,8)
