19
gdb 50668	2.42429	1.58191	1.2303	3.2145	75.4	-0.236	-0.0233	0.2126	1080.8649	0.158971	-423.020511	-423.012036	-423.011092	-423.054231	31.389	
O	 0.4891687914	-0.2403262792	-0.4563102509	-0.246243
C	 0.1400220559	 0.878822816	-0.1903385801	 0.159488
C	 1.0970617596	 2.0460005345	 0.0505194552	-0.054579
O	 2.3975801659	 1.5967418748	 0.3557741389	-0.253247
C	 3.2332516891	 1.6573876358	-0.8092531591	-0.060086
C	 2.3427823341	 2.1290046924	-1.9713735776	-0.323112
C	 1.2357466736	 2.8660187829	-1.2327276149	 0.354963
C	 0.0955754048	 3.5756497511	-1.9072970423	-0.337938
C	 1.1704209086	 4.370871029	-1.2027261025	-0.32184
H	-0.9393626507	 1.1556044252	-0.1340904173	 0.069011
H	 0.7107205484	 2.6439046701	 0.8874805469	 0.092551
H	 4.0480812632	 2.3662297567	-0.6135311561	 0.099676
H	 3.6672375734	 0.6685973075	-0.9861337162	 0.115056
H	 2.8766129096	 2.7640517004	-2.682181191	 0.105694
H	 1.9367981494	 1.2698532645	-2.5150657668	 0.125148
H	 0.0748058997	 3.5835207895	-2.9918881115	 0.121514
H	-0.8874530205	 3.5366345288	-1.4499709151	 0.118423
H	 0.914535229	 4.8579221892	-0.2674705909	 0.118029
H	 1.8819713854	 4.9189447609	-1.8118238584	 0.117492
62.2631	84.9231	126.5645	222.9913	259.9051	297.7544	315.8106	419.7468	518.8395	655.3071	732.5803	778.3508	799.2524	827.2336	883.3285	901.751	916.5094	943.5985	978.1785	989.6058	1002.3128	1032.6953	1061.8511	1085.6582	1122.5431	1136.9898	1188.0495	1200.733	1221.2415	1242.9479	1282.5837	1320.4219	1339.2426	1372.2694	1399.1467	1416.5654	1467.6021	1490.9797	1504.7343	1526.1466	1839.5725	2850.2278	3014.9588	3020.6314	3052.9671	3077.0927	3109.7754	3126.7614	3132.8955	3205.8974	3220.0105
O=CC1OCCC11CC1	O=C[C@H]1OCCC21CC2	
InChI=1S/C7H10O2/c8-5-6-7(1-2-7)3-4-9-6/h5-6H,1-4H2	InChI=1S/C7H10O2/c8-5-6-7(1-2-7)3-4-9-6/h5-6H,1-4H2/t6-/m1/s1
