17
gdb 99840	2.10019	1.36919	1.20489	5.4239	70.22	-0.2443	-0.0065	0.2377	1140.1765	0.134959	-451.32345	-451.313378	-451.312434	-451.35829	36.799	
N	 0.0668909664	 1.5029621824	 0.0244547829	-0.502322
C	 0.1221835596	 0.0550893262	-0.0830717914	-0.188345
C	 0.802005914	-0.5262710768	 1.1675702821	 0.1608
O	 2.138009257	-0.0263529021	 1.2956740202	-0.459538
C	 0.1042106688	-0.09067825	 2.3951578418	 0.340729
N	-0.4454072115	 0.1819068296	 3.3731788176	-0.336164
C	 0.7910593116	-2.0742390396	 1.1569211942	 0.285377
N	 1.855035216	-2.6214325037	 1.831627168	-0.536943
N	-0.1420145509	-2.6699056723	 0.527244508	-0.505012
H	 1.0027585869	 1.8934808445	 0.037077996	 0.232814
H	-0.4256725194	 1.9009156462	-0.7662858595	 0.236394
H	-0.8862299935	-0.3556935016	-0.1506286102	 0.156183
H	 0.6811136727	-0.3387774306	-0.951471491	 0.083676
H	 2.6351494012	-0.3622643336	 0.5393531509	 0.293496
H	 2.3832771031	-2.0137391994	 2.4385901609	 0.271873
H	 1.7909908998	-3.5874129756	 2.1106908672	 0.257416
H	-0.0674810518	-3.6856071739	 0.6067819123	 0.209565
50.8132	122.9598	146.9014	164.2651	207.0778	262.3906	291.7712	319.1417	365.9828	385.1219	433.5258	444.6391	478.7008	523.306	599.2831	621.5964	673.6089	726.305	830.1827	865.9146	919.3718	1013.0592	1059.346	1080.4529	1103.9685	1129.5016	1149.583	1203.887	1294.8889	1375.9794	1408.2288	1410.698	1495.674	1621.2468	1649.6896	1734.7163	2367.205	2936.0889	3126.5951	3456.2081	3517.7428	3580.9481	3602.7974	3701.3804	3787.396
NCC(O)(C#N)C(N)=N	NC[C@@](O)(C#N)C(=N)N	
InChI=1S/C4H8N4O/c5-1-4(9,2-6)3(7)8/h9H,1,5H2,(H3,7,8)	InChI=1S/C4H8N4O/c5-1-4(9,2-6)3(7)8/h9H,1,5H2,(H3,7,8)/t4-/m1/s1
