21
gdb 82988	3.55848	1.54459	1.43308	1.49	80.89	-0.2313	0.0874	0.3187	1013.4075	0.185847	-387.089858	-387.082723	-387.081779	-387.120974	29.873	
C	-0.1372003481	 1.5969426443	-0.026765609	-0.431587
C	 0.0275363899	 0.087553306	 0.0190874713	 0.026882
C	 1.1918423006	-0.5949807599	-0.7492034098	 0.075077
O	 2.3513805695	 0.1020735409	-0.2612630805	-0.292862
C	 2.1931621908	-0.1004910286	 1.17142058	 0.098332
C	 3.0599455922	-1.3095692665	 1.5269156584	-0.21016
C	 2.4029825793	-2.4335173712	 0.6704754889	-0.24049
C	 1.0738083742	-1.8005307276	 0.2375914991	-0.024789
C	 0.732893119	-0.6193951651	 1.209343633	-0.091744
H	 0.8297791385	 2.0991135779	 0.0556882038	 0.132283
H	-0.5984010514	 1.9121547052	-0.9693175978	 0.111769
H	-0.7804849711	 1.9482166665	 0.7876081686	 0.110563
H	-0.9178910465	-0.4214556754	-0.1951226402	 0.069443
H	 1.2446032362	-0.6878593057	-1.834314189	 0.069499
H	 2.4163624984	 0.8256441345	 1.7047775496	 0.068402
H	 4.1090662602	-1.1340443348	 1.2770339269	 0.104555
H	 2.9984678483	-1.5300917312	 2.5992555012	 0.090621
H	 3.0209894769	-2.6998204282	-0.1919500699	 0.10675
H	 2.2401338253	-3.3476722086	 1.2484347036	 0.096023
H	 0.2534992936	-2.4811713703	 0.0106636443	 0.068168
H	 0.2723576242	-0.7576221022	 2.1878857278	 0.063265
181.0042	209.1561	218.9862	240.1497	391.4093	442.7417	539.9655	625.2645	703.651	726.7598	764.536	801.1261	817.2593	855.047	882.8625	906.3109	920.3169	938.7405	966.4238	974.8739	1024.3972	1030.0708	1035.0619	1068.846	1095.0021	1111.1102	1125.4497	1140.7644	1197.92	1202.5222	1228.0736	1235.4076	1262.5946	1277.285	1289.7304	1298.406	1328.323	1349.9743	1357.5701	1394.2617	1411.2731	1476.1922	1491.4169	1497.8918	1504.517	3032.6638	3037.1243	3055.3418	3056.4488	3088.5043	3089.9025	3093.8888	3107.7647	3111.8295	3114.5623	3123.0082	3125.718
CC1C2OC3CCC2C13	C[C@H]1[C@H]2O[C@@H]3CC[C@H]2[C@H]13	
InChI=1S/C8H12O/c1-4-7-5-2-3-6(7)9-8(4)5/h4-8H,2-3H2,1H3	InChI=1S/C8H12O/c1-4-7-5-2-3-6(7)9-8(4)5/h4-8H,2-3H2,1H3/t4-,5+,6-,7+,8-/m1/s1
