19
gdb 87605	2.61642	1.48573	1.12021	2.61	83.14	-0.2337	-0.013	0.2207	1145.6228	0.159028	-385.920058	-385.911667	-385.910723	-385.952974	32.31	
C	-0.0940033145	 1.5185674514	-0.075979916	-0.411946
C	 0.0291619179	 0.0153026458	 0.0103740449	-0.026604
C	 1.3249896991	-0.6794511662	-0.2287722212	-0.329382
C	 0.7517810808	-0.6501501021	 1.1859445616	 0.203675
C	 1.3590714547	 0.0466266479	 2.3443023128	-0.154707
C	 1.1862877244	-0.6395095834	 3.4787510844	-0.103166
C	 0.4280028986	-1.9226903058	 3.2570809251	-0.383191
C	 0.1623704933	-1.9171656308	 1.7424266049	 0.336386
O	-0.4153607042	-2.7686859095	 1.1106809161	-0.334998
H	 0.8336842149	 2.0186858783	 0.2185416292	 0.11628
H	-0.3201387077	 1.8246649029	-1.1031918123	 0.12547
H	-0.8961724015	 1.8927797443	 0.5686037888	 0.125206
H	-0.8516726677	-0.5434923194	-0.2969186144	 0.110065
H	 1.3124149812	-1.6462243984	-0.7210637214	 0.134287
H	 2.2094333994	-0.075043544	-0.4052705688	 0.115328
H	 1.8796324574	 0.9931643724	 2.2612060761	 0.10194
H	 1.5444903752	-0.3301891262	 4.4531035091	 0.100751
H	 0.9901971851	-2.8227564337	 3.5366958707	 0.137364
H	-0.5221917265	-1.9754474536	 3.8040206306	 0.137244
86.6573	145.2249	174.4325	199.5095	249.0531	317.4388	391.555	463.238	503.3786	557.2785	615.3507	663.8735	721.0525	776.1384	793.0802	870.863	908.4002	920.3846	964.0356	966.3499	976.2613	1013.3807	1029.818	1072.039	1125.8625	1133.8138	1140.5359	1150.9672	1195.204	1261.8643	1271.661	1302.4891	1389.8937	1410.1049	1427.2505	1439.0762	1475.2693	1491.6053	1503.1435	1662.7287	1829.8231	3029.4526	3032.8602	3057.6998	3095.3688	3103.1236	3124.804	3144.0293	3192.972	3215.7478	3218.9205
CC1CC11C=CCC1=O	C[C@H]1C[C@]21C=CCC2=O	
InChI=1S/C8H10O/c1-6-5-8(6)4-2-3-7(8)9/h2,4,6H,3,5H2,1H3	InChI=1S/C8H10O/c1-6-5-8(6)4-2-3-7(8)9/h2,4,6H,3,5H2,1H3/t6-,8-/m0/s1
