19
gdb 91742	3.11547	1.40606	1.33933	1.4207	69.63	-0.2439	0.074	0.3179	1044.3266	0.160658	-460.170559	-460.162782	-460.161838	-460.202585	30.898	
C	-0.2656649416	 1.5531937825	-0.0345487325	-0.415234
C	 0.0313991776	 0.0650565194	 0.0194128353	 0.149262
O	 0.7711495197	-0.3539744115	-1.1516152316	-0.299972
C	 1.8274019283	-1.1686466254	-0.638389982	 0.132496
O	 1.3212981498	-1.7316760535	 0.5500442494	-0.241852
C	 0.9472471373	-0.4711838855	 1.1410563386	 0.018272
C	 2.2967628129	 0.2758768487	 1.1706350738	-0.250723
C	 2.9454102019	-0.216206106	-0.1497139178	 0.119295
O	 4.1603532426	-0.8739731735	 0.1595685719	-0.432783
H	 0.6477732499	 2.1476881605	-0.1133885215	 0.123254
H	-0.8865364957	 1.7764008074	-0.9066255552	 0.132275
H	-0.8145911389	 1.868063471	 0.8595691034	 0.117103
H	-0.9128049952	-0.4958282107	 0.0493745206	 0.083452
H	 2.1025298314	-1.9399549189	-1.3592966442	 0.084161
H	 0.4620921136	-0.6342771352	 2.1021802442	 0.088622
H	 2.2079215748	 1.3606295438	 1.2386253827	 0.107441
H	 2.9033686688	-0.0801939751	 2.0052595302	 0.128019
H	 3.0953580682	 0.5914742635	-0.8765648763	 0.07398
H	 4.5818877347	-1.1328523116	-0.666338789	 0.282931
104.4986	188.9332	247.4252	273.7726	288.9814	345.9072	403.3731	482.65	504.601	554.227	690.6532	765.5822	808.7673	837.3594	869.5673	879.4683	935.4511	943.1766	971.4745	980.4421	1028.753	1061.4836	1089.9845	1110.043	1121.8947	1151.1512	1175.0406	1233.8057	1250.4343	1269.8252	1284.852	1316.8446	1324.9796	1351.2965	1360.6576	1388.826	1412.5237	1423.2923	1476.9145	1485.7272	1507.1594	3008.0026	3029.7259	3043.3939	3087.3455	3111.1904	3117.5178	3128.0044	3137.4238	3141.7913	3814.5891
CC1OC2OC1CC2O	C[C@H]1O[C@@H]2O[C@H]1C[C@H]2O	
InChI=1S/C6H10O3/c1-3-5-2-4(7)6(8-3)9-5/h3-7H,2H2,1H3	InChI=1S/C6H10O3/c1-3-5-2-4(7)6(8-3)9-5/h3-7H,2H2,1H3/t3-,4-,5+,6-/m1/s1
