17
gdb 45477	2.92835	1.85235	1.65849	4.3509	71.68	-0.2506	0.0261	0.2767	883.6311	0.139791	-418.012304	-418.005915	-418.004971	-418.043053	26.208	
N	-0.0686128195	 1.2952659893	-0.329883788	-0.54233
C	-0.0097094024	 0.0675199494	-0.0517815342	 0.432146
O	 1.1418767982	-0.6546188018	 0.1377435419	-0.253506
C	 0.8021858754	-1.9173788193	 0.7514279029	 0.05377
C	 0.811054423	-1.7447248699	 2.2752179449	-0.209616
C	-0.5033343447	-0.9735890638	 2.5732115385	-0.250431
C	-1.4283588643	-1.335531155	 1.413173625	-0.030514
C	-0.6778277481	-2.1094759121	 0.3888379283	-0.069267
N	-1.1556742612	-0.7675225576	 0.0581591033	-0.141664
H	 0.8719736875	 1.6887342556	-0.3605333174	 0.226514
H	 1.4883634071	-2.671419876	 0.3662955528	 0.096214
H	 0.7782934787	-2.7342618131	 2.7449673857	 0.108722
H	 1.7124704074	-1.2328103347	 2.6212062362	 0.116957
H	-0.9485762722	-1.2764635634	 3.5240578686	 0.110253
H	-0.3408633169	 0.1079514186	 2.6252577173	 0.135867
H	-2.4864609006	-1.4854602051	 1.5977288974	 0.11057
H	-1.0456347174	-2.9520457212	-0.1854020231	 0.106316
116.2847	188.3277	379.16	382.5676	470.776	600.5518	672.4982	684.4882	718.774	773.8324	808.7412	848.5774	857.15	873.8871	886.2115	921.6032	934.5186	950.3883	1011.0877	1024.4966	1039.4663	1053.0958	1090.7559	1104.3027	1188.2311	1215.1576	1222.487	1287.4215	1296.7078	1301.7642	1310.7791	1349.0605	1373.4077	1387.5046	1477.2853	1500.7276	1775.574	3047.2831	3057.1981	3098.42	3111.4988	3121.6832	3169.9465	3180.2551	3497.1047
N=C1OC2CCC3C2N13	[NH][C]1O[C@H]2CC[C@@H]3[C@H]2N13	
InChI=1S/C6H8N2O/c7-6-8-3-1-2-4(9-6)5(3)8/h3-5,7H,1-2H2	InChI=1S/C6H8N2O/c7-6-8-3-1-2-4(9-6)5(3)8/h3-5,7H,1-2H2/t3-,4+,5-,8?/m1/s1
