20
gdb 95435	2.52163	1.35643	0.96783	3.3805	82.47	-0.2438	-0.0234	0.2204	1257.1473	0.171774	-403.20844	-403.199289	-403.198344	-403.242426	34.559	
C	 0.1589089524	 1.6792475623	-0.058295812	-0.409623
C	 0.1106844085	 0.1490252944	 0.0047227749	-0.055511
C	 0.6901762746	-0.5449897763	-1.257217973	-0.22494
C	 1.3737785832	-1.8404940351	-0.757650465	-0.258007
C	 1.604206924	-1.5549942945	 0.7037867532	-0.18966
C	 0.9292274951	-0.4783697994	 1.1241730301	 0.243368
C	 0.8084926652	-0.0043485246	 2.529543697	 0.308089
N	 1.8485131348	-0.331656645	 3.3665059605	-0.530896
O	-0.1730365718	 0.6032792678	 2.9244068141	-0.361388
H	 1.1897792677	 2.0328474127	-0.1782907047	 0.102218
H	-0.4206662742	 2.046892929	-0.9116968933	 0.107985
H	-0.2532352929	 2.1151608476	 0.8539026726	 0.146075
H	-0.937695357	-0.1463655022	 0.152517078	 0.093725
H	-0.0692794002	-0.730978072	-2.0207885183	 0.099584
H	 1.444138406	 0.1119876397	-1.705916631	 0.100954
H	 0.7230444022	-2.7199581703	-0.8679967569	 0.114663
H	 2.2966536903	-2.0766508636	-1.2996356026	 0.106005
H	 2.1867220931	-2.2120562582	 1.3416350519	 0.095511
H	 2.7531313814	-0.5431158535	 2.9810947543	 0.254343
H	 1.8242019778	 0.085352161	 4.28408508	 0.257504
70.1785	93.0427	169.8372	182.4088	245.8803	292.3263	339.3512	374.3551	397.4826	479.3784	511.3884	575.5907	620.372	659.5963	773.4349	781.7847	826.7532	882.6272	908.763	937.1343	973.6173	1013.3148	1033.5346	1081.7502	1102.3855	1117.325	1140.9102	1199.858	1227.7658	1271.1455	1313.4268	1324.5068	1329.1228	1362.0684	1386.4765	1403.4171	1478.4331	1492.8964	1497.2241	1510.9035	1612.5748	1680.9325	1767.2481	3003.9007	3007.1511	3029.1592	3039.415	3057.1671	3091.3584	3099.3253	3133.9871	3183.5496	3590.721	3721.9737
CC1CCC=C1C(N)=O	C[C@H]1CCC=C1C(=O)N	
InChI=1S/C7H11NO/c1-5-3-2-4-6(5)7(8)9/h4-5H,2-3H2,1H3,(H2,8,9)	InChI=1S/C7H11NO/c1-5-3-2-4-6(5)7(8)9/h4-5H,2-3H2,1H3,(H2,8,9)/t5-/m0/s1
