17
gdb 10076	3.48552	1.17831	0.93735	6.3492	64.97	-0.2619	0.0277	0.2896	1192.1718	0.141286	-401.004155	-400.995089	-400.994145	-401.038257	31.92	
O	 0.1915205373	 1.4229223499	 0.1777802656	-0.425392
C	 0.0919202473	 0.0284788704	 0.0141336632	-0.054537
C	-1.3613257938	-0.4836293901	 0.0202571193	-0.0176
C	-2.1150102383	-0.0917840563	-1.2537970811	-0.095217
O	-2.1025412038	 1.328185412	-1.3741360129	-0.422144
C	-1.4138668133	-2.0221132103	 0.16361091	-0.360184
C	-0.9132942083	-2.4966850297	 1.4515179557	 0.26899
N	-0.5199789528	-2.8674970968	 2.4727526985	-0.305544
H	-0.4239934692	 1.8180140209	-0.4533875253	 0.290689
H	 0.5809268992	-0.3143310299	-0.917572614	 0.074931
H	 0.6405507574	-0.4233580661	 0.8475156404	 0.128348
H	-1.8712034375	-0.028732542	 0.8771941059	 0.116642
H	-1.6279983131	-0.5606800099	-2.1241849524	 0.097237
H	-3.1499447895	-0.4642632549	-1.2101964542	 0.100019
H	-2.4554858151	 1.5712041203	-2.2349754692	 0.298975
H	-2.4431746931	-2.3806596521	 0.0461980216	 0.152013
H	-0.8245660535	-2.4965181054	-0.6315189611	 0.152776
65.7267	105.6831	110.1562	190.2113	245.4597	269.0581	291.7445	372.0121	393.9687	421.1261	441.949	541.8383	611.4862	823.2678	898.761	924.4361	946.6392	1046.675	1072.9092	1089.6276	1104.9815	1135.2014	1212.3919	1224.5314	1251.2585	1289.1621	1307.2303	1346.2226	1373.8268	1395.1761	1462.658	1466.5684	1468.9886	1508.2526	1521.4715	2363.963	2924.1006	2968.6595	3002.857	3031.6266	3056.1101	3069.633	3074.601	3759.8254	3835.5151
OCC(CO)CC#N	OCC(CO)CC#N	
InChI=1S/C5H9NO2/c6-2-1-5(3-7)4-8/h5,7-8H,1,3-4H2	InChI=1S/C5H9NO2/c6-2-1-5(3-7)4-8/h5,7-8H,1,3-4H2
