15
gdb 127981	4.75526	1.08578	0.88881	2.1157	75.97	-0.2255	-0.0684	0.1572	1245.2595	0.111979	-453.9292	-453.92109	-453.920146	-453.962225	29.817	
C	-0.0375979195	 1.4257812185	-0.2560703788	-0.321123
N	-0.0150681776	-0.0273696859	-0.2697244402	-0.315722
C	-1.0319293862	-0.6523706198	 0.1634160874	 0.435081
O	-2.1362150701	 0.036519065	 0.63841766	-0.301483
N	-3.2843984186	-0.6080470999	 1.1262957603	-0.199786
C	-3.2730709289	-1.8946348021	 1.1170730625	 0.437569
O	-4.3615912393	-2.5398154438	 1.5796536854	-0.406201
C	-2.1859388541	-2.7249080977	 0.6501243516	-0.159464
C	-1.0946335692	-2.1011764603	 0.1858327288	-0.134373
H	 0.9043303279	 1.800168352	-0.6627189412	 0.118535
H	-0.8645739479	 1.8279589385	-0.8567436994	 0.127346
H	-0.1639989184	 1.8229686656	 0.760185821	 0.127361
H	-5.0005906332	-1.8660025797	 1.8548470787	 0.31154
H	-2.2931214833	-3.8013671458	 0.6925285191	 0.136496
H	-0.2224757517	-2.6218680447	-0.1884830353	 0.144224
65.788	122.397	195.0609	195.7471	327.9033	360.0419	379.0373	441.8891	519.2596	560.1261	602.6363	612.6841	739.2952	778.6923	798.5517	848.8602	934.6231	1015.3064	1023.808	1049.1032	1103.0282	1124.2431	1173.1876	1237.5464	1263.7145	1365.5502	1434.5304	1475.8134	1486.8803	1494.6631	1637.7234	1690.6674	1729.0976	3001.8222	3050.9367	3111.4157	3213.8163	3231.8908	3755.9739
CN=C1ON=C(O)C=C1	C[N]C1=C[CH]C(=NO1)O	
InChI=1S/C5H6N2O2/c1-6-5-3-2-4(8)7-9-5/h2-3H,1H3,(H,7,8)	InChI=1S/C5H6N2O2/c1-6-5-3-2-4(8)7-9-5/h2-3H,1H3,(H,7,8)
