15
gdb 10441	2.86148	1.70744	1.26554	4.1087	70.79	-0.2746	0.0259	0.3005	974.744	0.117536	-325.494011	-325.485925	-325.484981	-325.526723	29.554	
C	-0.1651252331	-1.1264067884	-0.4647881172	-0.436567
C	-0.0697499811	 0.0156838845	-0.1056672181	 0.319458
C	 0.0630435304	 1.4034418072	 0.322442579	-0.439338
C	 1.4662310831	 1.9774754936	 0.0981723349	 0.181857
C	 1.8422075916	 2.4650917564	-1.2901674877	-0.276728
C	 1.6031264327	 3.4639545978	-0.1972428619	-0.304523
C	 2.5080698414	 1.3708286343	 0.8889371761	 0.251062
N	 3.3418070519	 0.8930471504	 1.5329284766	-0.34194
H	-0.2493769775	-2.1389904852	-0.7736705153	 0.205037
H	-0.6509955742	 2.0294161172	-0.2262979589	 0.135259
H	-0.1991752524	 1.493449427	 1.3835495344	 0.150849
H	 2.8596026193	 2.2986757388	-1.6218985015	 0.14483
H	 1.0882177716	 2.3425098218	-2.059614862	 0.135578
H	 0.6844815374	 4.0400354096	-0.2091702291	 0.129979
H	 2.456811409	 3.980481985	 0.2242065408	 0.145189
60.0799	116.6257	186.7465	227.2759	308.3456	322.9498	348.0237	467.8703	570.0659	586.7892	631.5727	656.3108	707.2216	784.3751	873.8544	916.2368	933.6658	954.9355	992.9139	1017.1142	1071.9136	1094.8757	1192.2318	1207.0078	1280.4666	1331.646	1356.7284	1462.2705	1472.1582	1498.1642	2244.8514	2352.7855	3028.8933	3064.6207	3144.0102	3147.7332	3230.1797	3243.539	3505.4708
C#CCC1(CC1)C#N	C#CCC1(CC1)C#N	
InChI=1S/C7H7N/c1-2-3-7(6-8)4-5-7/h1H,3-5H2	InChI=1S/C7H7N/c1-2-3-7(6-8)4-5-7/h1H,3-5H2
