17
gdb 47024	3.75732	1.34914	1.03326	5.5342	77.48	-0.2179	-0.0068	0.2111	1111.1424	0.139739	-418.0321	-418.024898	-418.023954	-418.06361	28.596	
O	 0.0055104304	-0.0543243134	 0.0602284255	-0.394486
C	-0.008200303	 1.1625898583	-0.0216749857	 0.427395
N	-1.2216189457	 1.8542358941	-0.0818532644	-0.347892
C	-1.359230166	 3.2743013409	 0.2410742175	-0.200917
C	-0.2764705115	 3.9857317403	-0.5545673058	-0.074165
C	 0.4820133616	 5.272286952	-0.0961045637	-0.203884
N	 1.7399993153	 4.4960239534	-0.2739416274	-0.376979
C	 1.0427891372	 3.2984759102	-0.3110721181	 0.442018
C	 1.2092310807	 1.9974293308	-0.0452293335	-0.416786
H	-2.0078189659	 1.2518139316	 0.112827385	 0.240708
H	-2.3657549452	 3.6030619691	-0.034663538	 0.11238
H	-1.2256513468	 3.4688099017	 1.318484798	 0.099981
H	-0.5348111171	 4.0220331507	-1.6166106967	 0.112787
H	 0.4052693869	 6.1597844997	-0.728574402	 0.118642
H	 0.2784542366	 5.5379822825	 0.9481721458	 0.114745
H	 2.5693225325	 4.6360674736	 0.2881379075	 0.246046
H	 2.14784518	 1.5220124346	 0.2068689359	 0.100408
125.1904	210.5347	221.303	329.5349	367.6986	437.4012	464.8118	539.7536	558.8783	635.7294	685.2026	739.2029	788.798	834.2816	838.2786	893.8588	922.4973	983.7435	1018.9498	1065.0017	1097.624	1141.2216	1155.4599	1191.4144	1212.9607	1243.4613	1257.4898	1266.9698	1344.0143	1361.1531	1373.7599	1389.9335	1456.3547	1509.9279	1514.0481	1741.377	1769.9819	2960.8125	3031.6804	3067.2055	3079.4253	3103.3424	3219.221	3574.6091	3614.2655
O=C1NCC2CNC2=C1	O=C1NC[C@H]2CNC2=C1	
InChI=1S/C6H8N2O/c9-6-1-5-4(2-7-5)3-8-6/h1,4,7H,2-3H2,(H,8,9)	InChI=1S/C6H8N2O/c9-6-1-5-4(2-7-5)3-8-6/h1,4,7H,2-3H2,(H,8,9)/t4-/m1/s1
