18
gdb 109284	2.73684	1.30243	0.94954	1.996	74.47	-0.2688	-0.0206	0.2482	1253.5606	0.147892	-439.148477	-439.139861	-439.138917	-439.182401	31.422	
C	 0.4104224615	 0.8049517477	-0.7192446908	-0.383604
C	-0.3553387037	 0.313901938	 0.5206703808	-0.253197
C	 0.5547353955	-0.1485117165	 1.6196903724	 0.401497
N	 0.6501521371	 0.423600599	 2.7403466826	-0.281569
C	 1.5948141818	-0.1257937134	 3.7022169359	-0.175521
C	 1.760610581	-1.6422548637	 3.5476297766	-0.352674
C	 2.0234679063	-1.9988999292	 2.1057842827	 0.417472
O	 2.7489993714	-2.8560039617	 1.6991287985	-0.301584
O	 1.3007160861	-1.2509032979	 1.1994851875	-0.249437
H	 1.0470902984	 0.0148533523	-1.1243375738	 0.142487
H	-0.2915922085	 1.1142514103	-1.4982403083	 0.121962
H	 1.0428843361	 1.6630392781	-0.4723029042	 0.127655
H	-0.9811866023	 1.1075182331	 0.9330912147	 0.129903
H	-1.0060002852	-0.5226282196	 0.2383684431	 0.122055
H	 2.5613703535	 0.3817200496	 3.5742662105	 0.127004
H	 1.2494398738	 0.1160335504	 4.711218441	 0.123607
H	 2.5661241089	-2.0511954226	 4.1595211468	 0.139896
H	 0.8276196785	-2.140183134	 3.8425651137	 0.144049
60.0309	105.899	129.2569	199.9769	211.6714	299.5931	353.6502	467.4479	488.2798	525.5053	587.7183	673.6936	701.9433	786.174	801.952	888.2537	922.3298	973.475	982.9021	1045.3235	1067.0766	1087.123	1126.8009	1137.6594	1205.4671	1240.2438	1262.9483	1297.0862	1333.5693	1355.7565	1383.421	1408.6808	1461.4405	1472.8561	1495.1973	1497.8246	1509.4735	1768.3651	1881.3503	3014.9498	3037.7494	3041.8581	3047.8177	3081.9144	3112.3298	3119.7145	3126.9448	3136.2424
CCC1=NCCC(=O)O1	CCC1=NCCC(=O)O1	
InChI=1S/C6H9NO2/c1-2-5-7-4-3-6(8)9-5/h2-4H2,1H3	InChI=1S/C6H9NO2/c1-2-5-7-4-3-6(8)9-5/h2-4H2,1H3
