17
gdb 103226	3.97605	1.24881	1.12543	3.5623	67.34	-0.2278	0.0537	0.2814	1083.266	0.13465	-458.852045	-458.844304	-458.84336	-458.884125	30.551	
O	-0.1039266973	 1.5024374965	-0.0768814552	-0.434313
C	 0.0361690305	 0.0929179465	 0.102006849	-0.161549
C	-1.3681591827	-0.4826881499	 0.0395122715	 0.438813
O	-2.1910289564	 0.150111511	 0.9919039477	-0.497309
C	-2.0030929585	-0.7238103984	-1.3544859799	-0.163602
C	-1.26568794	-2.0889852701	-1.5218491094	 0.075857
O	-2.4743105468	-2.8472706334	-1.8209554732	-0.332856
C	-2.8739959105	-1.8933434238	-0.7928294468	 0.087741
C	-1.539330074	-2.0085252791	 0.0141793655	-0.165523
H	 0.7139378671	 1.9313575242	 0.1891217421	 0.296424
H	 0.6767300435	-0.3450697105	-0.676912692	 0.09494
H	 0.4770602311	-0.1357271625	 1.0832221988	 0.099605
H	-1.9628856325	 1.0880453339	 0.9518352799	 0.286661
H	-2.2745142244	-0.0202785516	-2.1403304997	 0.08677
H	-0.350614638	-2.3352321696	-2.0582832221	 0.09592
H	-3.9024775694	-1.894309954	-0.4405800053	 0.108876
H	-1.2913361916	-2.7512666894	 0.7720876092	 0.083545
103.1963	170.5752	217.3817	263.6381	318.7731	375.8522	417.9023	472.2394	565.4672	583.1208	691.9855	769.595	801.0409	808.019	836.5772	880.527	913.6618	926.9099	968.3935	1013.8725	1031.1611	1060.1526	1091.1424	1110.9623	1142.6186	1149.0404	1164.3678	1177.1015	1185.7789	1194.471	1246.3001	1265.9385	1305.3802	1330.8008	1417.2794	1457.2064	1506.5177	2988.0294	3027.9086	3120.234	3127.9839	3136.1415	3157.699	3769.3101	3842.1534
OCC1(O)C2C3OC2C13	OC[C@@]1(O)[C@H]2[C@@H]3O[C@H]2[C@H]13	
InChI=1S/C6H8O3/c7-1-6(8)2-4-3(6)5(2)9-4/h2-5,7-8H,1H2	InChI=1S/C6H8O3/c7-1-6(8)2-4-3(6)5(2)9-4/h2-5,7-8H,1H2/t2-,3+,4-,5+,6-
