21
gdb 107338	3.20554	1.33065	1.10091	0.8896	83.86	-0.217	0.0165	0.2335	1187.0434	0.182944	-387.08493	-387.076375	-387.075431	-387.117859	33.579	
C	-0.3192773928	 1.4736926951	-0.1071828427	-0.377371
C	 0.2365876379	 0.0517086839	 0.0296928846	-0.237691
C	 0.7657895689	-0.5064009688	-1.2729296444	 0.451902
C	-0.1842978568	-1.1283846445	-2.2561172634	-0.358491
C	 0.8249250068	-2.0023812686	-1.491855821	-0.157275
C	 2.0153954815	-2.4938502145	-2.2207103746	-0.039828
C	 2.8281851154	-1.6518817187	-2.8598757825	-0.107832
C	 2.5804827285	-0.1681518987	-2.8377173102	-0.134263
O	 1.8620190668	 0.2641029657	-1.6887260459	-0.30639
H	 0.4525045408	 2.153375271	-0.4767136092	 0.133561
H	-1.1580818709	 1.5027901963	-0.810822139	 0.111955
H	-0.6750348804	 1.8490388402	 0.8571270998	 0.106664
H	 1.0516312102	 0.0394609536	 0.7632764826	 0.105518
H	-0.5407351528	-0.6228591587	 0.4061369552	 0.093231
H	-1.2302273863	-1.1953989629	-1.9751370707	 0.112334
H	-0.0133277959	-1.0129011798	-3.3203786368	 0.119556
H	 0.4259104753	-2.647451552	-0.7157020687	 0.084755
H	 2.2125862268	-3.562015053	-2.2166221515	 0.091106
H	 3.6939469902	-2.0056418324	-3.4107974702	 0.092544
H	 3.5284786176	 0.3799484983	-2.8049171433	 0.115572
H	 2.0630937789	 0.1594007186	-3.7564884081	 0.100444
90.7491	136.2777	182.0907	205.4112	252.5056	352.547	369.1702	408.8581	451.2297	567.7597	579.3119	659.3473	727.5073	777.6906	818.924	836.0063	873.1014	894.4346	927.5129	970.6505	982.4351	986.3908	1031.668	1037.6157	1049.825	1091.4464	1098.9602	1112.6144	1135.1831	1201.4452	1245.4376	1249.8308	1272.5839	1321.9015	1369.0921	1395.4265	1402.3013	1408.6746	1431.1645	1474.3494	1480.3635	1494.8389	1504.3977	1509.8948	1710.2789	2944.7833	3031.9541	3038.7975	3059.2087	3070.2241	3104.0702	3125.2569	3130.0589	3151.2258	3163.3416	3185.3179	3219.4858
CCC12CC1C=CCO2	CC[C@]12C[C@H]1C=CCO2	
InChI=1S/C8H12O/c1-2-8-6-7(8)4-3-5-9-8/h3-4,7H,2,5-6H2,1H3	InChI=1S/C8H12O/c1-2-8-6-7(8)4-3-5-9-8/h3-4,7H,2,5-6H2,1H3/t7-,8+/m1/s1
