23
gdb 111881	2.44887	1.25127	1.14723	1.3006	84.95	-0.2536	0.0727	0.3264	1235.8973	0.208634	-388.286498	-388.277712	-388.276768	-388.31998	34.435	
O	-0.2253606222	 1.509587329	-0.3704024345	-0.419254
C	-0.0660327833	 0.2335521063	 0.246505472	-0.11537
C	-1.3688875683	-0.5065804505	 0.1135246731	-0.005275
C	-1.8169897197	-1.1641692405	-1.1771770897	-0.038584
C	-0.9080102695	-1.2386830928	-2.4038279332	-0.222817
C	-0.1681296822	-2.5819988242	-2.5064197959	-0.181129
C	 0.6068552256	-2.8850389916	-1.2200086991	-0.198711
C	-0.3305806395	-3.0021137666	 0.0005769678	-0.216261
C	-1.4917146034	-2.0125721069	 0.0383603111	-0.057001
H	 0.577077479	 2.0168071317	-0.2138560202	 0.283107
H	 0.7606068939	-0.3202759409	-0.2163232132	 0.085773
H	 0.1811787217	 0.3443356116	 1.3145964158	 0.086013
H	-2.1657282782	-0.0156052762	 0.666950994	 0.083074
H	-2.8715520294	-1.0452135737	-1.4056281789	 0.078593
H	-1.5137953938	-1.0825499165	-3.3020770684	 0.092743
H	-0.1804119293	-0.4185941691	-2.3900542252	 0.110866
H	-0.8941859618	-3.3857519456	-2.6904553754	 0.090439
H	 0.5129603055	-2.5703070731	-3.3649577967	 0.086805
H	 1.1691518623	-3.8199867364	-1.322706999	 0.089384
H	 1.3570838182	-2.1004961215	-1.06145202	 0.098125
H	-0.7762132169	-4.004898239	-0.0215458398	 0.098583
H	 0.2516799053	-2.9563726075	 0.9295967215	 0.092341
H	-2.3490615839	-2.4041083957	 0.5794907836	 0.078556
72.3622	125.6423	144.8282	232.0899	280.5662	289.7369	339.3521	432.2661	443.1015	508.3426	540.8546	657.7764	729.9159	782.3312	796.7296	820.8686	872.2643	919.1528	941.297	952.531	989.3765	1028.167	1041.3162	1060.6623	1071.3115	1107.7739	1129.1921	1132.6959	1154.8187	1187.5257	1202.297	1243.4926	1255.805	1280.0767	1289.1954	1302.3443	1346.69	1364.599	1367.2823	1378.4073	1385.9465	1389.9736	1440.8794	1472.9793	1489.4314	1490.6505	1497.8644	1504.5156	1526.0412	2972.6403	3012.674	3014.3573	3021.0447	3033.3836	3036.867	3044.0463	3061.9668	3066.1506	3075.0036	3125.2366	3132.22	3150.2924	3820.5695
OCC1C2CCCCC12	OC[C@H]1[C@H]2CCCC[C@@H]12	
InChI=1S/C8H14O/c9-5-8-6-3-1-2-4-7(6)8/h6-9H,1-5H2	InChI=1S/C8H14O/c9-5-8-6-3-1-2-4-7(6)8/h6-9H,1-5H2/t6-,7+,8-
