14
gdb 5775	6.32267	1.40868	1.24316	4.4703	64.33	-0.2204	0.0187	0.2391	934.8601	0.109371	-378.729081	-378.722486	-378.721542	-378.760537	24.099	
C	 0.1347691332	 1.5622487658	 0.0390779675	-0.167756
O	 1.1679045981	 0.5978291665	-0.1549857842	-0.216997
C	-0.1573158159	 0.1136268475	 0.0512439657	-0.058333
C	-0.3816375049	-0.6353640602	 1.3003250072	 0.30908
C	 0.3873440316	-0.8067743081	 2.4248846565	-0.160433
N	-0.2594264616	-1.6001358049	 3.3438385943	-0.250373
C	-1.4067415502	-1.9107543496	 2.7887600002	 0.011526
N	-1.5332989736	-1.3565838341	 1.5474398812	-0.322256
H	 0.1665601875	 2.095624145	 0.9870897346	 0.124887
H	-0.1185924774	 2.1589206268	-0.8367124035	 0.117903
H	-0.6260676205	-0.3067372884	-0.8416576835	 0.094289
H	 1.3752503333	-0.4136056687	 2.6055841172	 0.122115
H	-2.179623936	-2.5264025636	 3.2241310708	 0.131171
H	-2.3225637335	-1.4473001239	 0.929420166	 0.265177
56.8055	159.5403	178.1231	396.6227	443.8286	516.8688	656.7322	681.1537	689.9585	805.5965	862.1448	866.5614	889.1967	935.5187	988.7019	1041.6677	1093.8645	1112.8194	1141.1557	1153.509	1167.3669	1229.0255	1266.9783	1287.4843	1353.8681	1428.2039	1456.1664	1499.4716	1519.4954	1614.7847	3076.5561	3083.8878	3179.345	3252.0914	3263.7037	3659.6298
C1OC1C1=CN=CN1	C1O[C@H]1c1cnc[nH]1	
InChI=1S/C5H6N2O/c1-4(5-2-8-5)7-3-6-1/h1,3,5H,2H2,(H,6,7)	InChI=1S/C5H6N2O/c1-4(5-2-8-5)7-3-6-1/h1,3,5H,2H2,(H,6,7)/t5-/m1/s1
