20
gdb 65068	2.03984	1.65462	1.25959	2.9155	78.95	-0.2453	-0.0232	0.2222	1110.65	0.169331	-403.120135	-403.110918	-403.109974	-403.154043	34.857	
C	-0.1456112285	 1.4101553433	 0.5691582448	-0.472198
C	-0.058123062	-0.0178716514	 0.0533842446	 0.288026
C	 1.0243344067	-0.3225086427	-0.9584739161	-0.33886
C	 1.1437993449	-0.8371570606	 0.4549659561	-0.284429
C	-1.3947586293	-0.7154046775	-0.030938855	 0.131492
C	-2.3231727258	-0.4119655113	-1.1716985852	-0.2689
N	-1.7215294382	-1.7334526562	-1.058852281	-0.352284
C	-2.0626510568	-1.0565899792	 1.2681501766	 0.152726
O	-1.6815529676	-0.7116344042	 2.3577964431	-0.265897
H	 0.8500362654	 1.860757677	 0.627120725	 0.111364
H	-0.7562271843	 2.0334491758	-0.0942386227	 0.110216
H	-0.5872293087	 1.4317733918	 1.5681391537	 0.150114
H	 0.8551475957	-1.0463033708	-1.7497691824	 0.104801
H	 1.656105518	 0.5045112779	-1.2645136224	 0.117505
H	 1.872574704	-0.3825207002	 1.116649116	 0.119228
H	 1.0033997406	-1.9012087609	 0.6118893909	 0.119037
H	-3.3984764622	-0.3748165321	-1.0166068875	 0.126244
H	-1.9416607705	 0.2821620871	-1.9161577424	 0.127736
H	-0.9469132757	-1.8245107129	-1.7098727248	 0.238624
H	-2.9726118457	-1.6826466428	 1.1332223886	 0.085454
55.9107	122.28	177.8905	207.9882	225.9571	274.847	316.2008	352.8828	369.6712	429.04	503.6563	549.399	635.3832	774.9208	805.1778	856.6261	879.7209	895.4184	924.0578	952.0484	968.8907	985.1497	1040.5523	1052.6798	1058.4512	1082.3728	1086.2791	1127.7642	1130.0744	1184.5371	1226.3933	1264.7595	1308.5003	1325.0114	1386.9547	1411.8621	1429.9331	1468.8948	1488.6913	1500.5358	1508.5084	1513.6742	1824.3214	2891.7736	3031.9987	3095.2337	3104.7113	3121.4895	3127.2573	3136.2828	3192.182	3199.3353	3222.5824	3520.8366
CC1(CC1)C1(CN1)C=O	CC1(CC1)[C@]1(CN1)C=O	
InChI=1S/C7H11NO/c1-6(2-3-6)7(5-9)4-8-7/h5,8H,2-4H2,1H3	InChI=1S/C7H11NO/c1-6(2-3-6)7(5-9)4-8-7/h5,8H,2-4H2,1H3/t7-/m0/s1
