21
gdb 123057	2.76351	1.01571	0.78497	3.09	76.05	-0.2384	0.0743	0.3127	1482.4823	0.18075	-461.311798	-461.301889	-461.300945	-461.347935	34.526	
C	 0.7285263136	 0.4920136696	 0.0286834016	-0.229904
O	 0.1253733951	-0.7783894789	-0.0624839642	-0.225908
C	-1.2681956995	-0.7451509978	 0.1563070191	-0.058103
C	-1.824744887	-2.1589516518	 0.0754068942	-0.094524
O	-1.4789886719	-2.9821519863	 1.1710329455	-0.253823
C	-0.2039602692	-3.5671357752	 1.133203296	 0.105227
C	 0.9576542352	-2.8902353688	 1.8965692862	-0.088704
O	 1.1808952857	-4.0889306133	 2.6731505493	-0.277996
C	-0.0208684462	-4.6974915402	 2.1603101282	-0.100861
H	 1.7971121455	 0.3615343893	-0.1571011051	 0.13072
H	 0.318689712	 1.1886491529	-0.7192802025	 0.107223
H	 0.5910577541	 0.9382807457	 1.0256343379	 0.109776
H	-1.4989340825	-0.3141269371	 1.1441580408	 0.097534
H	-1.7641887524	-0.119383862	-0.6066429013	 0.087121
H	-2.9186525413	-2.0998845675	 0.0728292539	 0.108585
H	-1.5029167404	-2.6175673408	-0.8722033801	 0.101327
H	 0.061595516	-3.847759875	 0.1066576553	 0.079267
H	 1.839588167	-2.6006003019	 1.3177588843	 0.102904
H	 0.6275224217	-2.0481898578	 2.5174551507	 0.094616
H	-0.8306897667	-4.7202158866	 2.9016539958	 0.104836
H	 0.1551469511	-5.7087969066	 1.7768437642	 0.100686
55.5577	71.1079	94.1029	116.7217	126.3718	225.3629	240.6542	306.0066	343.7944	420.7697	439.9335	544.8267	706.9504	852.6997	875.1522	884.9948	910.2992	988.5908	1020.1405	1037.1063	1049.9041	1081.5511	1114.5564	1145.9224	1150.3058	1158.0675	1174.8994	1187.3356	1197.529	1234.5109	1264.4757	1268.8697	1295.8617	1325.2024	1350.6365	1398.0998	1415.9408	1429.8144	1477.7743	1480.7523	1486.2518	1496.0942	1498.7236	1520.6932	1526.0045	2950.6828	2975.459	2986.7682	3002.9367	3010.4466	3021.6304	3026.2017	3027.1931	3067.8076	3074.7043	3087.338	3118.1656
COCCOC1COC1	COCCOC1COC1	
InChI=1S/C6H12O3/c1-7-2-3-9-6-4-8-5-6/h6H,2-5H2,1H3	InChI=1S/C6H12O3/c1-7-2-3-9-6-4-8-5-6/h6H,2-5H2,1H3
