16
gdb 7920	3.5521	1.78012	1.2418	0.5002	67.66	-0.256	-0.0061	0.2499	952.3938	0.132144	-379.990533	-379.983043	-379.982099	-380.022645	27.87	
C	-0.2265381781	 1.5363675401	 0.014078711	-0.400071
C	 0.101087756	 0.0433442118	-0.0033668846	-0.111331
C	 0.9214312826	-0.4630920783	-1.2073133912	-0.293565
C	 1.950710393	-1.4193025764	-0.6270702519	 0.38475
N	 2.6836382917	-2.1922035428	-1.3146938379	-0.527649
N	 1.915836645	-1.2399213016	 0.7566586834	-0.359215
C	 0.9279976402	-0.3807706229	 1.2160396472	 0.414162
O	 0.7647693812	-0.0613803029	 2.3677219002	-0.360523
H	 0.6820927273	 2.138532708	-0.0915610215	 0.122948
H	-0.9030396448	 1.7967913117	-0.804852688	 0.120457
H	-0.7015025779	 1.8053812942	 0.9606227241	 0.14496
H	-0.8360984947	-0.5236278179	 0.0708119717	 0.117151
H	 0.3296335176	-0.9616109607	-1.9762106712	 0.139822
H	 1.4536918178	 0.3618660128	-1.6937602631	 0.137931
H	 3.3185145569	-2.7385123255	-0.7296477386	 0.210567
H	 2.5485446362	-1.6961708196	 1.3979638705	 0.259606
63.9625	131.8055	218.3724	246.0875	342.3843	392.0502	523.4617	543.9413	595.3278	610.3939	633.622	721.2156	788.3584	876.1757	892.9188	923.3295	932.9392	1049.2235	1101.4057	1113.5383	1136.5686	1202.9193	1224.9026	1276.472	1310.979	1345.7187	1364.3594	1383.9656	1410.6576	1473.9405	1496.3412	1499.6615	1764.7436	1849.1303	3027.2853	3041.18	3057.7382	3109.4807	3124.6704	3129.622	3454.8486	3618.9716
CC1CC(=N)NC1=O	C[C@H]1C[C]([NH])NC1=O	
InChI=1S/C5H8N2O/c1-3-2-4(6)7-5(3)8/h3H,2H2,1H3,(H2,6,7,8)	InChI=1S/C5H8N2O/c1-3-2-4(6)7-5(3)8/h3H,2H2,1H3,(H2,6,7,8)/t3-/m0/s1
