14
gdb 19780	3.24083	2.73811	1.82499	4.5626	60.68	-0.2401	-0.0191	0.2209	718.6221	0.109461	-378.685915	-378.680043	-378.679099	-378.715759	23.306	
O	-0.0426304947	-0.007973286	 0.0509282934	-0.314319
C	-0.0485295998	 1.190347771	 0.0130245404	 0.425356
C	-1.2701905628	 2.0906951015	-0.0750193388	-0.157726
N	-1.4053442917	 2.8588765471	 1.1945822337	-0.335565
C	-0.7817457143	 3.4877798585	 0.0207095384	-0.051992
C	 0.7348288378	 3.4191993829	 0.0323234197	-0.027496
C	 1.4365623954	 2.8180162872	 1.1947710934	-0.252367
N	 1.137133777	 2.0026031431	-0.0106421604	-0.142847
H	-2.1549927576	 1.7632056292	-0.6076847626	 0.115075
H	-2.3697382864	 3.1712319683	 1.2814652039	 0.245552
H	-1.2754093101	 4.3125937519	-0.4788835819	 0.102826
H	 1.2660411694	 4.0782310635	-0.6479974368	 0.104394
H	 2.4941800275	 3.0112679047	 1.3466561524	 0.129048
H	 0.8509127803	 2.624193147	 2.085734955	 0.160062
158.4724	248.9457	332.197	451.5319	519.5888	614.969	691.5321	710.3868	777.8938	823.7636	849.9491	863.3491	880.7408	921.7575	951.9418	1026.6104	1039.2281	1089.5907	1100.2681	1113.6742	1141.0866	1158.5756	1165.8328	1248.5623	1287.0862	1345.6309	1386.2698	1402.7142	1491.602	1861.2313	3127.4241	3153.8695	3185.2374	3194.2262	3231.6798	3500.4294
O=C1C2NC2C2CN12	O=C1[C@H]2N[C@H]2[C@H]2CN12	
InChI=1S/C5H6N2O/c8-5-4-3(6-4)2-1-7(2)5/h2-4,6H,1H2	InChI=1S/C5H6N2O/c8-5-4-3(6-4)2-1-7(2)5/h2-4,6H,1H2/t2-,3+,4+,7?/m1/s1
