22
gdb 117195	3.22738	0.9617	0.8458	3.3459	84.67	-0.2392	0.036	0.2753	1487.5107	0.193256	-404.382989	-404.372684	-404.37174	-404.419401	37.834	
C	 0.3073483147	 0.8124521398	 0.7588945183	-0.370012
C	-0.3588405313	 0.4319252813	-0.5661927122	-0.144648
N	-1.612811089	-0.285018682	-0.3923616649	-0.33999
C	-1.6796183339	-1.648227485	-0.4192924959	 0.386115
O	-0.6975013689	-2.3423773258	-0.6448350984	-0.4062
C	-3.0394753177	-2.2548780054	-0.170115846	 0.230671
C	-4.2238198561	-1.3476773989	 0.10195704	-0.505594
C	-3.2837301021	-3.54605581	-0.9360871573	-0.276979
C	-2.9912032634	-3.6043224752	 0.5295977078	-0.277705
H	 1.2414242138	 1.3536103621	 0.5762466621	 0.116812
H	-0.342508057	 1.4556206575	 1.3622382695	 0.107704
H	 0.5372857328	-0.084995822	 1.3397336101	 0.137921
H	-0.5514345378	 1.3273916581	-1.1681216246	 0.100413
H	 0.2960728229	-0.2265938241	-1.14032429	 0.146797
H	-2.4304674359	 0.2410453136	-0.1366436756	 0.242597
H	-4.4183051549	-0.6658934722	-0.7347478203	 0.12151
H	-5.1311900186	-1.940006353	 0.2501874063	 0.122675
H	-4.0825241128	-0.7483178919	 1.0100117263	 0.119036
H	-4.2972695234	-3.7312183067	-1.2751836596	 0.106976
H	-2.49563944	-3.8578710041	-1.6101943647	 0.137966
H	-2.0099791823	-3.9556976426	 0.8242111916	 0.137306
H	-3.7997722692	-3.8316678735	 1.2160317077	 0.106629
24.4546	56.4459	87.8865	187.8665	245.6127	254.4772	289.0791	317.6936	341.5209	344.6962	398.9634	461.4278	483.3406	557.7251	746.2934	765.7747	795.0851	817.4389	854.3809	900.7815	921.9865	959.3676	960.8757	1046.7876	1072.476	1077.7464	1089.9771	1115.4737	1119.8718	1170.8138	1204.3733	1226.1885	1314.0951	1325.1098	1342.8475	1394.7516	1408.3827	1418.425	1448.4279	1474.9288	1483.2606	1492.0765	1497.6368	1501.7079	1510.4398	1547.9635	1747.7424	3016.4886	3034.6317	3040.7853	3073.5508	3097.6288	3102.4116	3117.4429	3128.9274	3136.9674	3140.2798	3229.7106	3242.6468	3663.5125
CCNC(=O)C1(C)CC1	CCNC(=O)C1(C)CC1	
InChI=1S/C7H13NO/c1-3-8-6(9)7(2)4-5-7/h3-5H2,1-2H3,(H,8,9)	InChI=1S/C7H13NO/c1-3-8-6(9)7(2)4-5-7/h3-5H2,1-2H3,(H,8,9)
