19
gdb 62976	2.25404	1.58386	1.27408	2.0055	81.04	-0.2478	0.042	0.2898	1092.1638	0.156253	-385.82213	-385.813064	-385.81212	-385.855297	35.007	
C	-0.1021857186	 1.5503279443	-0.1822456838	-0.448233
C	-0.0218733815	 0.035609922	-0.0488740085	 0.281246
C	-1.3726382106	-0.5941559896	 0.2827647493	-0.453723
C	 0.6896323106	-0.691196668	-1.2119039389	-0.001128
O	 2.0230158565	-0.1808869714	-1.3027476667	-0.240904
C	 1.7558401468	-1.2010824917	-0.3420825879	 0.01846
C	 1.1383253824	-0.5356900093	 0.9060732937	-0.288631
C	 1.9630954405	 0.3798856829	 1.6650313654	 0.352717
C	 2.6392462427	 1.1461751629	 2.2991417881	-0.458362
H	 0.8636295818	 1.9619116565	-0.481037973	 0.143292
H	-0.8494439296	 1.8291411613	-0.933878123	 0.107162
H	-0.3900365802	 2.0110218383	 0.7682505088	 0.119546
H	-2.1159980402	-0.3413060324	-0.48169932	 0.118058
H	-1.3079842785	-1.6866799113	 0.336953709	 0.114725
H	-1.7464209076	-0.2294731862	 1.2453486474	 0.125611
H	 0.2518628174	-1.1076387448	-2.1128899194	 0.102482
H	 2.3550086505	-2.1029862504	-0.3884007305	 0.110142
H	 0.710269757	-1.2961697725	 1.5677904952	 0.102528
H	 3.2441735207	 1.8205852993	 2.8528623049	 0.195013
98.6247	138.7112	211.4483	214.609	241.0297	263.798	330.2408	349.1085	368.4562	503.4422	532.9278	571.4785	617.8985	633.6809	673.4087	785.32	844.3389	855.8478	875.6009	910.3396	958.714	970.8667	1002.3874	1027.7034	1052.8416	1070.6525	1139.2981	1192.5074	1203.488	1236.5388	1263.7426	1291.5939	1337.969	1387.6366	1401.2906	1422.2636	1481.9885	1485.8857	1499.3952	1507.9525	2233.0769	3023.8513	3034.6502	3052.8162	3090.2735	3096.2636	3099.706	3135.3128	3171.9717	3190.5391	3503.4566
CC1(C)C2OC2C1C#C	CC1(C)[C@H]2O[C@H]2[C@H]1C#C	
InChI=1S/C8H10O/c1-4-5-6-7(9-6)8(5,2)3/h1,5-7H,2-3H3	InChI=1S/C8H10O/c1-4-5-6-7(9-6)8(5,2)3/h1,5-7H,2-3H3/t5-,6+,7+/m1/s1
