18
gdb 53210	3.26619	0.87942	0.77791	4.0491	83.61	-0.2416	0.0315	0.2731	1521.3417	0.145791	-401.95079	-401.940728	-401.939784	-401.98776	34.122	
C	-0.0363477948	 1.5317291152	-0.0351864915	-0.498512
C	-0.011692326	 0.0764832607	-0.0300281617	 0.050147
C	 0.0151727867	-1.1277685607	-0.0183583275	 0.109272
C	 0.0338184591	-2.5824551053	-0.0197830069	-0.172117
C	 0.3693142011	-3.3037705235	 1.3313719793	-0.390937
C	-1.0565854663	-3.8901416697	 1.237280947	 0.411012
O	-1.7431372708	-4.6277208728	 1.8948268686	-0.372141
N	-1.287286556	-3.2336244023	 0.0537354791	-0.049441
C	-2.4523859802	-3.1306801923	-0.7839741724	-0.346988
H	 0.7999384036	 1.9422398522	 0.5411425698	 0.153952
H	 0.0348013789	 1.9287514277	-1.0536211386	 0.151565
H	-0.9626016526	 1.9131259309	 0.4079607032	 0.153953
H	 0.6314213734	-2.9523630198	-0.8629366591	 0.103899
H	 1.1744137556	-4.0382604919	 1.2793776227	 0.132669
H	 0.5253785258	-2.6322381088	 2.1759025492	 0.139336
H	-3.252613733	-3.7014954271	-0.3070297638	 0.161717
H	-2.7694067667	-2.0865660859	-0.8879187314	 0.135799
H	-2.2712628878	-3.5431173566	-1.7842350261	 0.126814
23.3848	57.9418	77.505	149.9207	158.5606	177.2326	233.409	297.8527	329.7582	437.1625	466.2675	548.0236	577.4221	699.1512	742.5256	800.2707	927.4203	978.4789	997.3877	1051.3619	1053.3718	1071.9204	1105.5493	1152.4639	1176.5399	1193.0235	1228.759	1285.2766	1364.1044	1407.6618	1414.5492	1442.7279	1463.3363	1476.6563	1477.5534	1482.0462	1517.839	1880.894	2368.1258	3015.9356	3018.5664	3029.7073	3072.1749	3091.4897	3092.68	3093.2483	3131.2512	3156.5533
CC#CC1CC(=O)N1C	CC#C[C@H]1CC(=O)N1C	
InChI=1S/C7H9NO/c1-3-4-6-5-7(9)8(6)2/h6H,5H2,1-2H3	InChI=1S/C7H9NO/c1-3-4-6-5-7(9)8(6)2/h6H,5H2,1-2H3/t6-/m0/s1
