15
gdb 131738	1.9606	1.69566	0.94507	3.6947	69.76	-0.2451	-0.0432	0.2019	1167.8656	0.113943	-453.972004	-453.963823	-453.962879	-454.005377	29.264	
O	 0.2044278774	 1.1725786822	-0.5839155961	-0.406992
C	-0.0174240054	 0.0034815872	 0.1942162604	-0.174022
C	-1.4168210633	-0.5258576449	 0.0659682295	 0.234329
N	-2.110822425	-0.8496705094	 1.1504233152	-0.28252
N	-3.2978680111	-1.2964469735	 0.6744116511	-0.183272
C	-3.3853576711	-1.257903034	-0.6654060244	-0.082424
C	-2.174598556	-0.7561369886	-1.1217117782	 0.049792
C	-1.8130353411	-0.5311373778	-2.5214536489	 0.047556
O	-2.5380793264	-0.8029884035	-3.4561597064	-0.286848
H	-0.4082299778	 1.8493499569	-0.276869089	 0.288008
H	 0.7032741111	-0.7307780223	-0.1816205492	 0.128177
H	 0.1976386769	 0.1622103142	 1.2592977392	 0.119282
H	-3.9989142932	-1.5986696376	 1.3308363489	 0.28458
H	-4.2639347578	-1.5708068947	-1.2062824994	 0.169712
H	-0.8152552672	-0.0761216641	-2.6768374128	 0.094641
70.9007	133.4927	150.7962	198.1667	262.829	297.8666	363.0914	418.3214	532.2659	567.8594	654.8045	680.3783	747.7113	830.0568	849.8851	950.3055	978.2519	1049.7461	1057.4283	1080.6031	1136.9195	1201.7601	1209.7913	1334.4379	1360.6083	1406.8202	1417.9126	1439.4172	1477.8437	1498.0163	1507.9845	1578.1697	1778.3246	2947.0262	3021.437	3073.5753	3274.9559	3664.8137	3810.787
OCC1=NNC=C1C=O	OCc1n[nH]cc1C=O	
InChI=1S/C5H6N2O2/c8-2-4-1-6-7-5(4)3-9/h1-2,9H,3H2,(H,6,7)	InChI=1S/C5H6N2O2/c8-2-4-1-6-7-5(4)3-9/h1-2,9H,3H2,(H,6,7)
