20
gdb 87408	3.74718	1.35775	1.21422	1.8546	82.62	-0.2303	0.0865	0.3167	1098.97	0.1717	-365.926261	-365.918629	-365.917684	-365.95808	30.889	
C	 0.009097705	 1.4898284488	-0.0634274943	-0.403133
C	 0.0543664547	-0.0195271999	 0.0418045692	-0.099376
C	 1.3722537409	-0.763780096	-0.1199073347	-0.373127
C	 0.6860812543	-0.710699172	 1.2114726271	 0.436967
C	 1.0869068223	-0.0731880892	 2.521889463	-0.143646
C	 0.0633307475	-0.8449980039	 3.2659575175	-0.037862
C	 0.0764099373	-1.8501484448	 2.0440131591	-0.195879
C	 1.3250574527	-2.4404274755	 2.7229766283	-0.146453
N	 1.500310282	-1.1597978004	 3.4916871682	-0.157418
H	 0.9155597539	 1.9444872909	 0.3491162046	 0.114977
H	-0.0714934394	 1.8075177298	-1.1087991638	 0.117692
H	-0.8473761135	 1.9055154658	 0.4789072803	 0.118204
H	-0.8135626265	-0.5219299733	-0.3810224325	 0.082933
H	 1.3731483488	-1.7021853836	-0.6665376798	 0.108034
H	 2.2700759156	-0.1682413751	-0.2589729797	 0.111021
H	 1.4874076477	 0.9123511366	 2.7183204653	 0.096262
H	-0.6448970521	-0.5893453726	 4.0430407787	 0.095994
H	-0.7415411111	-2.4559671333	 1.656914204	 0.071463
H	 1.1040597342	-3.2362914769	 3.4387319295	 0.10438
H	 2.1695866457	-2.7275790054	 2.0861229399	 0.098969
135.9433	148.9062	201.8708	231.068	335.3783	404.6771	467.4569	510.8596	599.5471	744.1063	765.0856	788.5595	816.4782	825.9247	880.9391	892.3789	923.3318	932.6388	946.9572	974.5662	1004.0069	1024.4164	1026.5853	1041.5067	1067.2001	1100.9374	1128.287	1141.9048	1157.4078	1179.425	1186.844	1194.2427	1219.3616	1236.1839	1290.1309	1313.9875	1358.5836	1411.3398	1434.2633	1492.1513	1492.5722	1503.8195	1510.0581	3027.7029	3036.9206	3089.2792	3095.3341	3103.287	3116.3122	3124.2337	3126.4738	3195.8568	3199.6366	3210.6372
CC1CC11C2C3C1CN23	C[C@H]1C[C@]21[C@H]1[C@H]3[C@@H]2CN13	
InChI=1S/C8H11N/c1-4-2-8(4)5-3-9-6(5)7(8)9/h4-7H,2-3H2,1H3	InChI=1S/C8H11N/c1-4-2-8(4)5-3-9-6(5)7(8)9/h4-7H,2-3H2,1H3/t4-,5-,6+,7+,8+,9?/m0/s1
