19
gdb 94272	2.98821	1.55932	1.22309	3.5347	75.03	-0.2346	0.0696	0.3043	1061.5086	0.158602	-422.934006	-422.926116	-422.925172	-422.966565	30.675	
C	-0.2632186419	 1.4893664597	-0.0461185302	-0.409521
C	 0.0261198264	-0.0054919011	-0.1148252679	-0.155817
C	 1.3426467259	-0.4182144213	-0.8092231671	-0.094619
O	 1.8645173238	-0.9795035881	 0.4152772343	-0.321182
C	 0.6713965733	-0.6714464821	 1.1201413763	 0.545922
C	 0.7522963176	-0.1449595845	 2.5775823494	-0.041494
C	-0.7097103419	-0.6038229209	 2.7946138072	-0.235383
C	 0.0595198575	-1.7324635916	 2.0706846917	-0.041079
O	 1.2002982711	-1.4977140849	 2.9881881977	-0.314319
H	 0.6012827794	 2.0396636982	 0.3404078977	 0.124355
H	-0.4930789304	 1.8844206281	-1.0413608346	 0.121763
H	-1.1183125928	 1.7077366088	 0.6014070266	 0.123204
H	-0.8479484568	-0.5490930727	-0.4844886466	 0.084038
H	 1.2560700593	-1.1741105634	-1.5981395986	 0.104394
H	 1.9612063096	 0.412175305	-1.1710290272	 0.102469
H	 1.2876789944	 0.7094397125	 2.9913704055	 0.097026
H	-0.9508336416	-0.829996527	 3.8328403097	 0.1152
H	-1.5168002847	-0.0870206599	 2.2689365468	 0.098379
H	-0.228920948	-2.7657004646	 1.8763917693	 0.096664
66.5919	156.3003	200.3986	238.1967	286.1055	353.209	448.6932	453.2171	553.7917	644.3102	769.8922	776.674	800.6477	877.5658	885.7183	907.8601	911.189	930.6557	1000.7809	1016.548	1024.8491	1048.1792	1112.3744	1119.3717	1125.7526	1144.3835	1155.6968	1169.218	1184.5097	1203.748	1207.0704	1262.0858	1266.473	1322.5839	1344.7562	1378.1623	1413.8604	1478.5607	1497.3501	1498.752	1527.8672	3018.6792	3032.3633	3056.9785	3067.7804	3071.2995	3100.3648	3105.751	3118.9778	3125.3376	3156.7579
CC1COC11C2CC1O2	C[C@H]1CO[C@]21[C@H]1C[C@@H]2O1	
InChI=1S/C7H10O2/c1-4-3-8-7(4)5-2-6(7)9-5/h4-6H,2-3H2,1H3	InChI=1S/C7H10O2/c1-4-3-8-7(4)5-2-6(7)9-5/h4-6H,2-3H2,1H3/t4-,5-,6+,7-/m0/s1
