23
gdb 103591	2.60721	1.22684	1.04276	2.5525	81.66	-0.2443	0.0706	0.3149	1290.3158	0.202957	-425.430448	-425.420121	-425.419177	-425.46507	39.489	
C	 0.627687291	 1.3275711697	 0.3724829282	-0.432875
C	-0.0934471436	 0.023031565	 0.0567453209	 0.43932
C	-1.5487450224	 0.0613822032	 0.5049688674	-0.427756
C	 0.1571315095	-0.5603191017	-1.3585888017	-0.406832
C	 0.8929955617	-1.7073626435	-0.6329775833	 0.410265
C	 0.2965998446	-3.1009836119	-0.7523505199	-0.441709
C	 2.4165505555	-1.7245005639	-0.7966119514	-0.096065
O	 3.0204122834	-2.3844975706	 0.2972102895	-0.422636
O	 0.5941111213	-1.1146542575	 0.6702958224	-0.379772
H	 1.6734703121	 1.2881855653	 0.0563694613	 0.119208
H	 0.1455948938	 2.1684440605	-0.1381770679	 0.116063
H	 0.603744139	 1.5234492338	 1.4495206189	 0.123079
H	-2.0906381807	 0.8635270138	-0.0079222478	 0.114648
H	-2.0495134821	-0.8863532319	 0.2902578775	 0.11888
H	-1.6094526843	 0.2418963808	 1.5832038239	 0.123114
H	-0.7440543775	-0.8614340747	-1.8961993074	 0.103651
H	 0.779547602	 0.0531245627	-2.0143821089	 0.102738
H	 0.4140071073	-3.4778617033	-1.7746041191	 0.113364
H	 0.8123680454	-3.7850125662	-0.0730666197	 0.137017
H	-0.7682319628	-3.0943432492	-0.5055274706	 0.114409
H	 2.7032860152	-2.2677398078	-1.7043577468	 0.103372
H	 2.7873665179	-0.6915766406	-0.89316315	 0.07823
H	 2.6340546238	-1.9739048919	 1.0824848444	 0.290287
71.5012	120.3913	166.8086	200.9263	222.7833	239.8285	269.6555	307.5524	342.8214	362.5141	381.5265	407.5428	484.0576	507.056	527.8179	632.8868	752.8495	864.9024	877.0368	892.2976	911.0391	922.7899	950.3598	972.8683	997.0592	1000.8749	1037.5282	1073.5605	1118.5347	1186.2315	1188.0845	1232.2025	1273.131	1280.366	1290.8561	1298.4736	1378.6245	1400.7432	1405.4674	1413.6932	1434.9909	1472.8843	1479.8786	1480.2237	1488.5155	1492.9572	1495.984	1503.5323	1505.586	2974.1903	3030.6885	3036.2292	3037.247	3064.6165	3066.9883	3099.5993	3107.0947	3108.8864	3113.7988	3117.358	3122.0175	3128.0807	3761.419
CC1(C)CC(C)(CO)O1	CC1(C)C[C@@](C)(CO)O1	
InChI=1S/C7H14O2/c1-6(2)4-7(3,5-8)9-6/h8H,4-5H2,1-3H3	InChI=1S/C7H14O2/c1-6(2)4-7(3,5-8)9-6/h8H,4-5H2,1-3H3/t7-/m0/s1
