17
gdb 123449	4.74674	1.03133	0.94154	1.4206	74.63	-0.2518	-0.0052	0.2466	1251.6785	0.139212	-414.160849	-414.153189	-414.152244	-414.194554	27.771	
C	-0.070014576	 1.568910906	 0.355899773	-0.19499
C	-0.1659955943	 0.059601889	 0.3007262868	 0.026101
C	-1.3330570078	-0.562375422	-0.3753020355	-0.240841
N	 0.0036063233	-0.6336142435	-0.9804284457	-0.301622
N	 1.2855553284	 2.0475483148	 0.1233262415	 0.162425
N	 2.1395886798	 2.2825366119	 1.111809369	-0.227503
C	 3.271235406	 2.6004970746	 0.4781225461	-0.059469
C	 3.043859142	 2.5343273001	-0.902246072	-0.054042
N	 1.7738275542	 2.1772574894	-1.1062946607	-0.232469
H	-0.701207118	 2.0223915656	-0.4129729049	 0.131048
H	-0.3720060342	 1.9464043842	 1.3351888746	 0.144779
H	 0.2951857135	-0.4514656671	 1.142908768	 0.109611
H	-1.727809042	-1.508404126	-0.0166760402	 0.124772
H	-2.0772271496	 0.0997265192	-0.8125179954	 0.112891
H	 0.1052129949	 0.0460969975	-1.7313907398	 0.245344
H	 4.1614428545	 2.8607641598	 1.0277074379	 0.126748
H	 3.7066192555	 2.7285520365	-1.7301219926	 0.127217
47.7446	56.3255	110.9711	274.639	329.4478	385.0759	458.0432	681.201	694.7259	772.1225	804.4743	835.6274	847.3488	897.0154	931.5044	938.1484	977.7464	986.2724	998.2137	1062.5278	1101.018	1123.5472	1132.5518	1157.1736	1219.3848	1243.8859	1263.8632	1295.0678	1312.1271	1358.4028	1381.2486	1394.6942	1427.2507	1446.9805	1461.3588	1504.824	1514.8447	3070.8087	3105.7965	3125.6405	3141.7229	3191.8208	3264.968	3282.4231	3496.3576
C(C1CN1)N1N=CC=N1	C([C@H]1CN1)n1nccn1	
InChI=1S/C5H8N4/c1-2-8-9(7-1)4-5-3-6-5/h1-2,5-6H,3-4H2	InChI=1S/C5H8N4/c1-2-8-9(7-1)4-5-3-6-5/h1-2,5-6H,3-4H2/t5-/m1/s1
