17
gdb 59627	3.15167	1.16775	1.04613	4.5469	64.34	-0.2889	0.0397	0.3287	1185.1329	0.135826	-496.154254	-496.14565	-496.144706	-496.188356	31.056	
C	 0.043090674	 1.5555789264	-0.1061879641	-0.414155
C	 0.0230558297	 0.0326070708	 0.019256858	 0.106805
O	 0.7876769262	-0.4256540165	 1.1215510221	-0.432821
C	-1.4032692397	-0.5250623492	 0.1047666228	 0.090445
C	-1.4738051423	-2.0596433192	 0.2137897105	-0.126871
O	-2.3486569931	-2.2908560276	 1.3225007901	-0.239446
C	-2.5692349328	-1.1384875403	 1.9939326689	 0.497305
O	-3.1771598352	-1.0431345129	 3.0106987305	-0.369795
O	-1.9962491665	-0.0894807443	 1.3394243233	-0.271769
H	 1.0757480125	 1.9106852663	-0.1363959267	 0.133361
H	-0.4653799808	 1.8833166247	-1.0187308825	 0.120501
H	-0.4627468672	 2.0189683632	 0.7469564616	 0.138007
H	 0.4947010409	-0.4135334931	-0.865921251	 0.099449
H	 0.4008745475	-0.0376208658	 1.9160655128	 0.294087
H	-2.0153213456	-0.1423574446	-0.7198288138	 0.100192
H	-1.8984037362	-2.5351194936	-0.6721079807	 0.130513
H	-0.4943434211	-2.4886796744	 0.4407759882	 0.144192
49.475	84.0921	153.8068	215.1552	241.5893	268.4737	345.7964	397.8023	474.6349	531.9476	631.9617	702.1004	732.4926	775.6675	837.6905	900.8393	936.4177	1004.5349	1011.7227	1054.5378	1077.7158	1095.913	1124.8131	1156.8559	1168.3285	1244.4986	1297.8351	1323.032	1363.397	1388.429	1406.0372	1413.8502	1427.482	1491.9567	1498.2649	1517.574	1927.4169	3034.0127	3040.1264	3047.1034	3069.1873	3110.9643	3126.4844	3130.0915	3788.6015
CC(O)C1COC(=O)O1	C[C@@H](O)[C@H]1COC(=O)O1	
InChI=1S/C5H8O4/c1-3(6)4-2-8-5(7)9-4/h3-4,6H,2H2,1H3	InChI=1S/C5H8O4/c1-3(6)4-2-8-5(7)9-4/h3-4,6H,2H2,1H3/t3-,4-/m1/s1
