17
gdb 68117	3.07149	1.2561	1.07493	3.7889	75.96	-0.246	-0.0372	0.2088	1156.1742	0.134029	-421.809385	-421.800769	-421.799825	-421.842891	31.428	
C	-0.0189405287	 1.5008379462	 0.0092777617	-0.51208
C	-0.0046957212	 0.0003087321	-0.001169336	 0.178385
C	 0.5839368406	-0.9657594542	-1.100350718	-0.310841
C	 0.0484247997	-1.9606274331	-0.0108959485	 0.107161
C	 0.6417043955	-0.9828653257	 1.0472835337	-0.297023
C	 0.0809697746	-3.4421681556	-0.0163062616	 0.033665
O	 0.4317072968	-4.1124910731	 0.9244777074	-0.247706
C	-1.178529007	-0.9837244064	 0.0071225255	 0.394621
O	-2.3662501982	-1.009308474	 0.0137038394	-0.310883
H	 0.9975272516	 1.9063605955	-0.0147988995	 0.129767
H	-0.5617062509	 1.8915509253	-0.8571607944	 0.136334
H	-0.5119106165	 1.8766721179	 0.9113008384	 0.138607
H	 0.1055258504	-0.9710664556	-2.0817353049	 0.120238
H	 1.6741743843	-0.9419316058	-1.1755462993	 0.118007
H	 1.7339229742	-0.959238103	 1.0659364139	 0.115328
H	 0.2175927034	-1.0063652119	 2.0518084399	 0.12552
H	-0.2673623684	-3.9113878785	-0.9635979678	 0.080899
71.6079	142.3512	163.4329	189.2405	212.324	223.0984	312.3265	437.0837	510.746	527.9665	641.6936	670.9227	729.3483	786.6369	809.1032	839.0588	909.9106	982.0628	1010.5262	1025.9821	1031.2403	1060.603	1102.9229	1135.2678	1154.7741	1167.4029	1193.2543	1298.8467	1373.2723	1417.8463	1428.925	1487.5566	1488.3465	1493.9539	1534.6578	1804.2328	1917.4028	2880.5608	3037.7534	3061.3602	3069.5348	3107.1765	3109.4978	3135.3503	3144.9425
CC12CC(C1)(C=O)C2=O	C[C@@]12C[C@](C1)(C=O)C2=O	
InChI=1S/C7H8O2/c1-6-2-7(3-6,4-8)5(6)9/h4H,2-3H2,1H3	InChI=1S/C7H8O2/c1-6-2-7(3-6,4-8)5(6)9/h4H,2-3H2,1H3/t6-,7+
