15
gdb 124403	3.30075	1.1506	0.981	3.4809	71.7	-0.2823	-0.0474	0.2349	1193.9888	0.111204	-416.735165	-416.726839	-416.725894	-416.769121	29.996	
C	-0.0259294903	 1.5629877722	 0.0163150649	-0.391734
C	-0.0284073304	 0.0151165551	-0.0399326191	-0.269486
C	-1.3878885017	-0.5178697342	 0.0514309603	 0.315465
C	-2.5142621296	-0.9308438343	 0.1159807488	-0.455115
C	 0.6600807258	-0.4783251943	-1.2875819214	 0.347976
N	 1.9297628412	-0.7834164843	-1.3024714299	-0.155225
O	 2.2157771916	-1.1443677455	-2.5891476565	-0.148555
N	 1.1078414248	-1.0674203337	-3.3846694752	-0.061398
C	 0.1466543608	-0.6612946168	-2.604343805	-0.099592
H	 1.0014357759	 1.9338656783	-0.0154701861	 0.139517
H	-0.5779795766	 1.9820835103	-0.8290531294	 0.13375
H	-0.5003585439	 1.9031401267	 0.9397012956	 0.137146
H	 0.5554350279	-0.3556860052	 0.8104321016	 0.142028
H	-3.504721725	-1.3084059973	 0.1857279583	 0.207174
H	-0.8571755305	-0.523246257	-2.973361037	 0.158048
33.1523	109.8472	166.7207	194.5388	234.5707	324.5926	386.7483	465.2752	538.0572	640.4186	650.8401	656.7884	702.5187	736.6808	871.295	894.8618	902.2601	937.1274	1001.1197	1023.6073	1052.3245	1078.7745	1112.8578	1201.3158	1303.3275	1321.3605	1402.4938	1422.7529	1462.9101	1492.4625	1496.691	1609.0714	2241.0027	3046.8252	3051.0475	3131.2213	3136.1311	3277.45	3501.7031
CC(C#C)C1=NON=C1	C[C@@H](C#C)c1nonc1	
InChI=1S/C6H6N2O/c1-3-5(2)6-4-7-9-8-6/h1,4-5H,2H3	InChI=1S/C6H6N2O/c1-3-5(2)6-4-7-9-8-6/h1,4-5H,2H3/t5-/m0/s1
