13
gdb 20449	6.3101	1.41677	1.25173	3.8445	59.87	-0.2578	-0.0371	0.2207	919.0853	0.096615	-394.725415	-394.71898	-394.718036	-394.756728	23.284	
C	 0.9917185191	 1.1878834847	 0.1189120281	-0.223367
N	 0.5183987066	 0.1140565063	-0.7627610898	-0.31308
C	-0.3391750686	 0.5507627397	 0.3484382754	-0.141837
C	-0.5551898786	-0.4502523361	 1.408038253	 0.288578
C	-0.075549029	-1.7145567411	 1.5504168101	-0.042511
O	-0.5468265607	-2.2315905293	 2.6820294148	-0.16086
N	-1.3742539205	-1.2236634954	 3.2681660174	-0.005139
N	-1.3520286717	-0.2205431399	 2.510344757	-0.189259
H	 1.826494419	 0.9189697549	 0.7591082224	 0.129123
H	 1.0053971349	 2.2091096689	-0.2522560417	 0.123918
H	 0.1784175203	 0.4935533151	-1.6414830606	 0.243416
H	-1.2098202759	 1.1636873833	 0.1291319717	 0.109283
H	 0.5689300651	-2.325908221	 0.9423662123	 0.181737
61.6817	163.9251	180.9588	396.798	459.4188	629.0197	641.0323	660.5478	727.0068	856.7044	873.622	897.4051	916.1166	969.981	989.573	1042.6763	1098.8904	1119.3652	1139.6076	1184.3793	1225.5091	1245.5014	1285.2705	1327.0928	1420.3453	1474.859	1511.8307	1630.4026	3113.2126	3143.2408	3204.4627	3299.6251	3518.8091
C1NC1C1=CON=N1	C1N[C@H]1c1conn1	
InChI=1S/C4H5N3O/c1-3(5-1)4-2-8-7-6-4/h2-3,5H,1H2	InChI=1S/C4H5N3O/c1-3(5-1)4-2-8-7-6-4/h2-3,5H,1H2/t3-/m1/s1
