16
gdb 44048	2.63997	1.81044	1.62771	3.1821	68.98	-0.2631	0.0026	0.2657	903.8779	0.124672	-437.802257	-437.795244	-437.7943	-437.833526	27.784	
N	-0.0046115199	 1.1159565892	-0.5536667374	-0.542451
C	-0.0265137209	-0.0466301211	-0.0973627451	 0.369244
O	 1.0126591781	-0.8411240594	 0.432076055	-0.303328
C	 0.0738227419	-1.9303987028	 0.6715246256	 0.293798
C	-0.6105101043	-2.0244605264	 2.0609669094	-0.299397
C	-1.8592164867	-1.2662204549	 1.4525266991	-0.308574
C	-1.0649048029	-1.1404664768	 0.1231424057	 0.266962
O	-1.308323536	-2.0600370492	-0.9620912411	-0.325025
C	-0.188910396	-2.8948651738	-0.500392917	-0.15078
H	 0.9360464641	 1.5146886147	-0.5359432236	 0.235715
H	-0.8013682103	-3.0352378378	 2.4262977913	 0.119701
H	-0.0711150143	-1.4658329682	 2.826864722	 0.133358
H	-2.7428984871	-1.8948606836	 1.3344756825	 0.132195
H	-2.1434276595	-0.3299191905	 1.9342516301	 0.130532
H	 0.6139622352	-2.9527723457	-1.2413265893	 0.129227
H	-0.5268110515	-3.9004502737	-0.2290508772	 0.118823
121.2521	188.3856	275.1214	301.0332	354.602	387.9308	600.6279	635.8998	644.8823	705.3635	732.0847	751.0099	834.2404	872.2697	873.2843	894.7386	906.9091	944.8595	949.9543	1015.1314	1123.1771	1129.7179	1148.3021	1189.9172	1215.1701	1222.2257	1239.9123	1257.7854	1266.0313	1285.7337	1337.8642	1458.1522	1470.2125	1498.6265	1822.3265	3040.0415	3080.3559	3086.2263	3100.4017	3136.169	3152.4263	3474.4583
N=C1OC23CCC12OC3	[NH][C]1O[C@@]23CC[C@@]12OC3	
InChI=1S/C6H7NO2/c7-4-6-2-1-5(6,9-4)3-8-6/h7H,1-3H2	InChI=1S/C6H7NO2/c7-4-6-2-1-5(6,9-4)3-8-6/h7H,1-3H2/t5-,6-/m1/s1
