18
gdb 80879	2.27311	1.97353	1.55206	2.9657	70.74	-0.2247	0.0609	0.2856	944.2266	0.147723	-439.015435	-439.007686	-439.006742	-439.047146	30.987	
C	 0.0098326342	 1.4632328012	-0.0223475552	-0.513491
C	-0.0557260861	-0.0349771792	 0.0394351272	 0.383029
O	 0.4153018377	-0.733144741	-1.1526342308	-0.297538
C	-0.2698889412	-1.8907407672	-0.6151564593	-0.007537
C	 0.5086013515	-2.1871344998	 0.6863723076	-0.044517
N	 1.8513500544	-1.5576944698	 0.703374667	-0.327527
C	 0.6662965528	-0.8054396094	 1.1799462109	-0.097229
C	-1.3584964652	-0.8807534738	-0.1122778057	 0.077249
O	-2.1135589102	-1.1199016331	 1.0433031816	-0.432713
H	 1.0507439905	 1.7951477011	-0.0852004383	 0.140038
H	-0.5296330861	 1.8441774553	-0.8940356096	 0.124304
H	-0.4345461066	 1.8963468142	 0.87966162	 0.126475
H	-0.4498558926	-2.6820881601	-1.3422294656	 0.077191
H	 0.2716736746	-3.0345498341	 1.3165501596	 0.094446
H	 2.3375547725	-1.9078531381	 1.528410889	 0.22789
H	 0.5607774641	-0.5102855673	 2.2161137026	 0.095821
H	-1.9622993864	-0.5118375677	-0.9485154035	 0.083274
H	-2.977198488	-1.4532629213	 0.7844308426	 0.290835
182.9571	200.1222	211.3717	224.8289	265.5159	313.8565	428.6509	497.7254	593.3222	610.2837	689.4769	763.894	772.1137	819.3585	841.6779	859.6521	879.1498	898.2216	918.8151	956.2582	977.3303	1051.7884	1095.5398	1117.3887	1129.5247	1145.539	1154.5322	1202.9904	1219.0629	1238.163	1263.9373	1287.1936	1314.6625	1342.0541	1389.9216	1412.3071	1445.3049	1480.0253	1493.8872	3039.6188	3056.1055	3111.5552	3116.998	3125.956	3191.7339	3202.2827	3473.8714	3836.2738
CC12OC(C3NC13)C2O	C[C@@]12O[C@@H]([C@H]3N[C@@H]13)[C@H]2O	
InChI=1S/C6H9NO2/c1-6-4-2(7-4)3(9-6)5(6)8/h2-5,7-8H,1H3	InChI=1S/C6H9NO2/c1-6-4-2(7-4)3(9-6)5(6)8/h2-5,7-8H,1H3/t2-,3+,4-,5-,6-/m1/s1
