16
gdb 44073	3.17291	1.68245	1.49262	4.2193	69.27	-0.2341	0.0092	0.2433	908.6132	0.125608	-437.792964	-437.786404	-437.78546	-437.82359	27.203	
O	-0.1060689287	 0.045041347	-0.0435257982	-0.370373
C	 0.0046428907	 1.2388917715	 0.0655750493	 0.438013
N	-0.9871469312	 2.1931046349	 0.2550490477	-0.333954
C	-0.2870897721	 3.4998586337	 0.1096880656	 0.243853
C	-1.0213067264	 4.3275995876	-0.9750896524	-0.198735
O	-0.3367371964	 3.4989339787	-1.9959484716	-0.311932
C	 0.7067614971	 3.2751011788	-0.9860418626	 0.142466
C	 1.2384616193	 2.1340147471	-0.0215381261	-0.244685
C	 0.8945687302	 3.2537133233	 1.1070751949	-0.319703
H	-1.8892496576	 2.0454416181	-0.173460643	 0.253304
H	-2.1096433247	 4.2446200879	-1.0455998931	 0.123046
H	-0.7058570986	 5.3737809067	-1.0455420125	 0.123306
H	 1.4683564681	 4.0525852005	-1.1041155223	 0.096193
H	 2.2102005167	 1.6529286194	-0.1039358216	 0.10192
H	 1.6438760745	 4.0445786276	 1.1490152228	 0.125326
H	 0.6453464593	 2.8763032273	 2.100015363	 0.131955
155.9599	286.8264	348.2999	371.0467	418.7735	481.3331	494.0704	585.6218	630.7192	744.6196	772.7754	786.8012	821.118	880.6468	883.8092	890.8599	933.6976	968.7211	982.1305	1003.1461	1065.4524	1112.2849	1124.4689	1145.5983	1192.4531	1197.4505	1208.2104	1245.8858	1277.2613	1302.4209	1358.318	1385.4671	1480.9326	1506.549	1871.0779	3040.9976	3052.5824	3083.7758	3107.4783	3156.5398	3160.0649	3619.477
O=C1NC23COC2C1C3	O=C1N[C@]23CO[C@@H]2[C@H]1C3	
InChI=1S/C6H7NO2/c8-5-3-1-6(7-5)2-9-4(3)6/h3-4H,1-2H2,(H,7,8)	InChI=1S/C6H7NO2/c8-5-3-1-6(7-5)2-9-4(3)6/h3-4H,1-2H2,(H,7,8)/t3-,4-,6-/m1/s1
