16
gdb 28611	5.15341	1.01905	0.89228	2.2104	72.49	-0.1854	0.053	0.2384	1261.5978	0.126159	-434.07119	-434.063393	-434.062449	-434.103864	29.581	
O	 0.876022157	 1.11364715	 0.1229587845	-0.428368
C	 0.228947887	-0.0582550899	-0.0133988836	 0.443355
N	-0.4900267945	-0.4461472031	-1.0255886723	-0.36227
C	-0.9264715215	-1.7237551318	-0.678887348	-0.17304
C	-0.450835188	-2.0754797883	 0.5525927964	 0.327284
N	 0.3026561277	-0.9836893708	 0.9800376617	-0.368272
N	-0.6230401863	-3.1707818943	 1.4069026339	-0.177201
C	-1.0243616426	-4.4334731633	 0.7997236378	-0.22162
C	 0.3544193689	-4.2756169372	 1.3325258676	-0.230821
H	 0.6934902526	 1.6123114682	-0.6834645807	 0.312222
H	-1.5716364092	-2.2886606531	-1.3320619602	 0.102594
H	 0.7573195004	-0.8833302681	 1.8714121942	 0.271881
H	-1.7691424983	-4.9959849877	 1.3539028012	 0.125084
H	-1.1315017339	-4.4647449021	-0.2813194125	 0.130255
H	 1.158616353	-4.1814153794	 0.6074769365	 0.126083
H	 0.6285894576	-4.7103857591	 2.2884591936	 0.122834
60.8151	139.4403	187.9021	271.8819	367.8525	401.9297	434.1484	452.7746	513.6299	572.6551	674.8185	727.0401	728.567	794.0587	819.5882	868.6813	914.4381	1008.459	1038.7048	1049.8442	1107.8102	1133.4015	1142.0005	1169.0773	1176.2305	1197.2852	1222.2009	1288.0404	1329.5995	1398.9649	1484.9877	1511.5629	1559.1394	1615.1667	1637.3877	3111.7349	3116.5036	3197.5416	3211.9687	3261.2771	3675.3283	3802.993
OC1=NC=C(N1)N1CC1	Oc1ncc([nH]1)N1CC1	
InChI=1S/C5H7N3O/c9-5-6-3-4(7-5)8-1-2-8/h3H,1-2H2,(H2,6,7,9)	InChI=1S/C5H7N3O/c9-5-6-3-4(7-5)8-1-2-8/h3H,1-2H2,(H2,6,7,9)
