19
gdb 64134	2.96989	1.29298	1.14427	1.4652	76.3	-0.2586	0.0335	0.2921	1155.5618	0.156875	-422.997263	-422.988017	-422.987073	-423.031403	34.848	
C	-0.1024933726	 1.4386329153	-0.2395855374	-0.417776
C	 0.0167739723	-0.0574248328	 0.0554611915	 0.373248
C	-1.3381087097	-0.7003012956	 0.3417929631	-0.426731
C	 0.8184595091	-0.8041086633	-1.0379042985	-0.154313
O	 2.1538922978	-0.7953067647	-0.5474377696	-0.233713
C	 2.0178430044	-0.9355869616	 0.8482088502	-0.022951
O	 0.8688357994	-0.2023734766	 1.2195175154	-0.28832
C	 1.9056657912	-2.3524949399	 1.2515936863	 0.34669
C	 1.8313657479	-3.5040988351	 1.5870398662	-0.453097
H	 0.8768209665	 1.8537157746	-0.4939169038	 0.126945
H	-0.7881909909	 1.6197312246	-1.0740007611	 0.111512
H	-0.4823478372	 1.9665461624	 0.6395166447	 0.125656
H	-1.9811357181	-0.6578034483	-0.5441199791	 0.114443
H	-1.2107831323	-1.7464819693	 0.6316499707	 0.130321
H	-1.8463165338	-0.1762726633	 1.156166438	 0.126064
H	 0.4571788404	-1.8340470231	-1.1638652172	 0.104551
H	 0.8114139747	-0.2967057801	-2.0043293449	 0.118781
H	 2.8974141247	-0.4816859327	 1.3174668139	 0.117793
H	 1.768180636	-4.5214960705	 1.8861209615	 0.200896
38.3576	120.5629	185.2918	219.945	260.43	265.1129	326.1362	337.8551	384.6862	439.766	525.8112	553.2785	622.0321	655.8907	667.1909	792.4216	796.0791	874.4929	924.2445	943.5359	961.6342	977.9805	990.32	1037.0708	1047.8598	1123.6493	1187.4798	1220.2652	1256.1086	1290.2132	1325.5844	1372.0998	1382.1002	1399.9236	1417.6932	1476.5601	1486.3181	1496.0074	1504.5895	1515.303	2231.2854	3012.5759	3035.6059	3040.8905	3056.1981	3107.048	3112.1849	3114.6724	3121.8151	3125.8686	3500.0237
CC1(C)COC(O1)C#C	CC1(C)CO[C@@H](O1)C#C	
InChI=1S/C7H10O2/c1-4-6-8-5-7(2,3)9-6/h1,6H,5H2,2-3H3	InChI=1S/C7H10O2/c1-4-6-8-5-7(2,3)9-6/h1,6H,5H2,2-3H3/t6-/m0/s1
