20
gdb 40492	4.25415	1.20797	1.15207	1.6389	82.49	-0.2321	0.0869	0.3189	1148.2916	0.172853	-365.941676	-365.934233	-365.933289	-365.973959	29.942	
C	 0.0380859207	 1.5358116458	-0.0269517735	-0.271244
C	 1.3082487511	 0.7244196607	-0.0460017945	-0.271528
C	-0.0229873238	 0.0302879782	 0.1028112768	-0.101371
C	-0.4366473468	-0.5939407438	 1.383386093	 0.364938
C	 0.0265365145	-0.2531224866	 2.7932887356	-0.303899
C	-0.4766917396	-1.6671452488	 3.1348789094	-0.006863
C	-2.0073800391	-1.6331504733	 2.9686890558	-0.238601
C	-1.6774827761	-1.4275251043	 1.5027302463	-0.086435
N	-0.3237558528	-2.0820431354	 1.6342647141	-0.205256
H	-0.1684974488	 2.1268165234	 0.8590473836	 0.113514
H	-0.3091424536	 1.9851723582	-0.9505092711	 0.113165
H	 1.8354803392	 0.6095185993	-0.9863260172	 0.114496
H	 1.9566847035	 0.7794005147	 0.8213659439	 0.113285
H	-0.3742649702	-0.5097070441	-0.7721068859	 0.086496
H	 1.1173571655	-0.1995563931	 2.8425373161	 0.110595
H	-0.4125752444	 0.6008548189	 3.3210078477	 0.092968
H	 0.0019778941	-2.2675914112	 3.905788198	 0.081434
H	-2.4493116939	-2.6193990672	 3.1334589695	 0.111219
H	-2.5783059913	-0.8724525851	 3.5122806612	 0.093684
H	-2.3094793482	-1.6235679162	 0.6429250412	 0.089405
51.7549	157.5623	188.2651	349.4488	358.9953	407.1156	511.8317	590.6994	740.5356	750.5043	784.3729	801.8742	821.5061	847.4527	869.8229	914.7284	924.0082	948.4418	954.1627	1001.9102	1010.9663	1025.8294	1055.384	1062.3985	1073.2686	1079.2282	1127.673	1131.1818	1149.2898	1190.8815	1198.561	1205.1823	1224.6378	1242.2898	1270.4645	1292.2319	1334.8293	1369.3881	1450.8467	1469.1224	1489.1665	1502.5425	1511.5012	3033.4467	3039.0894	3098.8078	3100.6349	3132.8644	3136.8386	3137.9332	3144.1888	3169.8837	3211.2189	3226.7448
C1CC1C12CC3CC1N23	C1CC1[C@@]12C[C@H]3C[C@@H]1N23	
InChI=1S/C8H11N/c1-2-5(1)8-4-6-3-7(8)9(6)8/h5-7H,1-4H2	InChI=1S/C8H11N/c1-2-5(1)8-4-6-3-7(8)9(6)8/h5-7H,1-4H2/t6-,7+,8+,9?/m1/s1
