18
gdb 62195	5.08881	0.56931	0.52649	0.9646	77.59	-0.2745	0.0099	0.2844	1961.1809	0.147419	-398.152062	-398.142001	-398.141057	-398.18821	34.912	
N	-0.0905422467	 1.5124709845	 0.1888224476	-0.499563
C	 0.0361611318	 0.063440278	 0.0383711228	-0.14027
C	 0.7107626878	-0.4530115054	-1.2595084546	-0.193339
C	-0.0587930902	-0.0607731723	-2.5226625348	-0.198802
C	 0.6096375246	-0.6185454716	-3.7952986142	-0.345118
C	-0.1059137495	-0.2368112285	-5.010953383	 0.258061
N	-0.6872743366	 0.077904003	-5.9585237989	-0.297279
C	 0.7657410832	-0.472727484	 1.2010659593	 0.299749
N	 1.3678242356	-0.9089172067	 2.0850525597	-0.313206
H	 0.813271488	 1.9645024831	 0.0872440731	 0.241792
H	-0.7067343287	 1.8879891489	-0.523442958	 0.244721
H	-0.9798213581	-0.3511110501	 0.0841350265	 0.138178
H	 1.7351628823	-0.0616083934	-1.3009940224	 0.116544
H	 0.7947947737	-1.5449053706	-1.1978425843	 0.125394
H	-1.0883339379	-0.4338357737	-2.4683461339	 0.127468
H	-0.12177502	 1.0290852866	-2.60822649	 0.119049
H	 1.6423530586	-0.2584623741	-3.8712765058	 0.157578
H	 0.662120992	-1.7125036938	-3.749759589	 0.159042
48.0727	81.7595	91.1904	129.4394	153.5877	219.233	274.8236	303.8051	323.0801	398.1415	413.8049	537.5198	578.3382	594.6201	745.0934	811.4145	824.7156	871.845	944.0684	984.3957	1030.7413	1057.0339	1084.772	1134.4268	1159.212	1227.0178	1254.1126	1297.4011	1326.2165	1332.5857	1363.5779	1389.4416	1414.9188	1468.9215	1480.0365	1503.4334	1655.6991	2364.1882	2364.8521	3022.9818	3030.6516	3036.8346	3046.727	3063.4636	3075.2017	3096.4392	3503.5346	3595.8768
NC(CCCC#N)C#N	N[C@@H](CCCC#N)C#N	
InChI=1S/C6H9N3/c7-4-2-1-3-6(9)5-8/h6H,1-3,9H2	InChI=1S/C6H9N3/c7-4-2-1-3-6(9)5-8/h6H,1-3,9H2/t6-/m0/s1
