20
gdb 11901	4.62033	1.43831	1.25766	0.1628	82.1	-0.2184	0.0275	0.246	1047.3604	0.17788	-311.87469	-311.866946	-311.866001	-311.906682	30.53	
C	 0.0384536003	 1.6010398358	-0.0123429689	-0.394543
C	 0.0269679034	 0.0684159837	 0.0258492575	-0.014788
C	 0.7229340355	-0.5944232264	-1.1989828397	-0.313503
C	 1.5112789872	-1.7841234859	-0.6324790877	 0.355137
C	 1.3558838039	-3.1943905501	-1.171675429	-0.310271
C	 2.6397956419	-2.4379082538	-1.3926526327	-0.315815
C	 1.5737097986	-1.5351731794	 0.8320963092	-0.140811
C	 0.7774510024	-0.5313945098	 1.1983244992	-0.084733
H	 1.0650483167	 1.9818187838	-0.0508484487	 0.114671
H	-0.4948552328	 1.9777299562	-0.8918873	 0.111227
H	-0.4435021127	 2.0246038062	 0.8755207817	 0.109702
H	-1.0239935164	-0.255432325	 0.0770979021	 0.077105
H	 0.0130634873	-0.8876629567	-1.9777719999	 0.094911
H	 1.4176815959	 0.1255924262	-1.6489602985	 0.098839
H	 1.3584367406	-4.0170933184	-0.4639840264	 0.109525
H	 0.6930228001	-3.3377560418	-2.0191149678	 0.110304
H	 2.8503156326	-2.0697934603	-2.3920970117	 0.109003
H	 3.5210807843	-2.7467595563	-0.8393059026	 0.108791
H	 2.183830618	-2.1376624443	 1.4973656165	 0.089116
H	 0.6347309433	-0.1818964636	 2.2155313174	 0.086133
58.2325	194.5594	233.2403	262.1548	300.404	358.7844	404.5427	476.6441	576.4733	680.9122	772.2909	779.0059	807.6433	844.439	849.3749	917.7107	933.347	939.8271	950.8221	966.2345	994.8203	1053.7703	1056.8122	1074.0251	1104.6175	1126.9804	1143.1188	1190.865	1209.3627	1282.1707	1287.0951	1313.331	1321.4702	1348.1455	1400.1541	1415.6028	1465.1075	1488.4305	1497.0046	1498.4848	1499.9882	1677.7519	2976.9465	3023.7092	3027.701	3081.8717	3093.9818	3096.4862	3119.0269	3123.8897	3171.7323	3197.3359	3197.6636	3214.0288
CC1CC2(CC2)C=C1	C[C@H]1CC2(CC2)C=C1	
InChI=1S/C8H12/c1-7-2-3-8(6-7)4-5-8/h2-3,7H,4-6H2,1H3	InChI=1S/C8H12/c1-7-2-3-8(6-7)4-5-8/h2-3,7H,4-6H2,1H3/t7-/m1/s1
