19
gdb 70352	2.73909	1.80778	1.51436	1.6789	73.55	-0.2266	0.0663	0.2929	943.3434	0.160885	-422.986532	-422.979411	-422.978466	-423.017421	30.282	
O	 0.0205350443	 1.3549945649	-0.0010900939	-0.469381
C	-0.012409395	-0.0445201685	 0.0455168438	 0.390658
C	-0.2537510009	-0.6386459117	 1.4031512855	-0.369568
C	 1.0993877528	-0.8011494005	 0.7202625981	 0.025947
O	 1.5107565999	-2.01999635	 0.1499148258	-0.27184
C	 0.9299975304	-2.3049775361	-1.1198928931	 0.137809
C	 0.8386994157	-1.0465472315	-2.0316353944	-0.252965
C	-0.4732384993	-0.728108608	-1.2383445462	-0.10438
C	-0.6192876224	-2.2646509345	-1.0563007665	-0.259112
H	 0.6380611993	 1.6156092091	-0.6946618876	 0.279513
H	-0.277291272	 0.0670313395	 2.2262796104	 0.121478
H	-0.906337615	-1.4950084563	 1.5157595405	 0.120868
H	 1.9321247294	-0.2525529672	 1.1489580435	 0.100977
H	 1.4363426542	-3.2007893649	-1.4811511802	 0.077152
H	 1.6639902393	-0.3296973188	-1.9868899659	 0.089814
H	 0.6477272796	-1.3270386005	-3.0699574968	 0.10279
H	-1.2825334439	-0.1708005434	-1.7140051767	 0.072584
H	-1.0598693897	-2.7175443013	-1.9482570956	 0.103723
H	-1.1106428166	-2.6670752202	-0.1693903109	 0.103935
201.7845	236.9336	300.4809	363.1468	382.843	439.152	460.0885	473.3113	520.8354	590.662	690.291	787.1918	803.0056	865.5748	885.5687	898.9295	924.7714	934.0757	953.2201	975.0182	1001.2279	1028.316	1047.1715	1069.8922	1084.828	1120.1152	1134.1973	1146.3364	1191.4469	1231.2363	1239.6529	1264.0619	1269.464	1275.9747	1315.011	1360.4136	1375.3107	1413.3843	1471.7767	1487.4292	1512.1903	3053.771	3069.732	3091.5959	3106.9628	3117.8045	3127.7141	3146.3563	3158.1034	3238.7602	3783.3894
OC12CC1OC1CC2C1	O[C@]12C[C@H]1O[C@@H]1C[C@H]2C1	
InChI=1S/C7H10O2/c8-7-3-6(7)9-5-1-4(7)2-5/h4-6,8H,1-3H2	InChI=1S/C7H10O2/c8-7-3-6(7)9-5-1-4(7)2-5/h4-6,8H,1-3H2/t4-,5+,6-,7+/m1/s1
