14
gdb 64606	2.19458	1.73096	1.51093	3.4048	62.45	-0.271	-0.0551	0.2159	943.8103	0.099123	-473.873506	-473.865299	-473.864354	-473.906959	28.844	
C	-0.0700942314	 1.5661306596	 0.1414894091	-0.429744
C	 0.0610093428	 0.0546923058	-0.0897455301	-0.005212
C	-1.3162476177	-0.5203044324	-0.4755381082	 0.159992
O	-1.9221812594	-1.3393762701	 0.1531479339	-0.220954
N	 0.9752107415	-0.2638496213	-1.197228929	-0.28184
C	 1.8486728793	-1.0348015213	-0.6946110431	 0.118845
O	 1.774596675	-1.3500687494	 0.6344847672	-0.204847
C	 0.6538984251	-0.6626335494	 1.1222777592	 0.447455
O	 0.3331954992	-0.6830132487	 2.2635127976	-0.304833
H	 0.9176016521	 2.0157763625	 0.2693963385	 0.144557
H	-0.5506357205	 2.0361661398	-0.7207364288	 0.14173
H	-0.6653003231	 1.7530607674	 1.0388781831	 0.158488
H	-1.6929918563	-0.0908890441	-1.4279754108	 0.110557
H	 2.6836897435	-1.4828118584	-1.2196782688	 0.165805
48.1725	123.9202	157.6434	208.5607	250.2445	300.4757	303.1735	460.2321	525.4296	595.0754	637.4673	728.5815	771.8234	861.229	918.6938	927.8285	953.6794	975.4162	1016.3533	1139.5792	1154.6641	1169.0879	1246.0855	1337.8071	1394.4175	1410.6708	1483.3145	1492.5066	1681.9345	1840.0064	1936.727	2915.4297	3049.1423	3128.5266	3137.5971	3228.6886
CC1(C=O)N=COC1=O	C[C@@]1(C=O)N=COC1=O	
InChI=1S/C5H5NO3/c1-5(2-7)4(8)9-3-6-5/h2-3H,1H3	InChI=1S/C5H5NO3/c1-5(2-7)4(8)9-3-6-5/h2-3H,1H3/t5-/m0/s1
