20
gdb 79247	2.459	1.63225	1.37248	2.0187	78.61	-0.2222	0.0629	0.2851	1061.2471	0.169392	-403.090166	-403.081052	-403.080108	-403.12358	34.5	
C	 0.0781886474	 1.6485063389	-0.0342268389	-0.435573
C	 0.0897054926	 0.1254337969	 0.0166006578	-0.042816
C	 0.7307761061	-0.7134072981	-1.0877765675	-0.106708
N	 2.2041166046	-0.9373350788	-0.7922757194	-0.192412
C	 2.454378113	-0.243961627	 0.5146688179	-0.215603
C	 1.0456155073	-0.6632448003	 0.9703053472	 0.28991
O	 0.7104238027	-0.9276180361	 2.2897147192	-0.480483
C	 1.1529790048	-1.7778869185	-0.1486836378	 0.315234
C	 1.0994065781	-3.2661813227	-0.1369508474	-0.532668
H	 1.059607147	 2.0652194945	-0.2752095657	 0.126178
H	-0.6227898185	 2.0014664207	-0.7982480954	 0.122391
H	-0.2460298414	 2.0756633135	 0.9227650628	 0.105897
H	-0.9238623751	-0.2553733105	 0.1889487049	 0.080962
H	 0.4475022953	-0.790313239	-2.1305164958	 0.091864
H	 3.2372029371	-0.7895147024	 1.0479575351	 0.109894
H	 2.7171322209	 0.8179538789	 0.4525524716	 0.088845
H	 0.5125036317	-0.0954636299	 2.7335857621	 0.28388
H	 0.1089403361	-3.6223507536	 0.1652467908	 0.127683
H	 1.3176200885	-3.6566172176	-1.1356922848	 0.133408
H	 1.8331657218	-3.6848508289	 0.5603052633	 0.130118
97.3007	148.3531	176.6136	187.4843	191.325	208.2198	309.6042	373.1604	387.9141	511.2886	551.3752	621.0764	667.2877	681.2837	758.5403	811.9842	831.6999	912.0936	929.3415	965.5869	976.8039	1043.0092	1062.0926	1086.0959	1100.206	1120.0513	1140.2941	1154.5111	1187.6362	1217.6709	1253.7048	1262.7094	1285.2557	1360.2232	1391.9811	1405.2668	1409.7625	1461.9285	1479.5571	1491.0498	1491.9001	1496.6366	1517.674	3026.4926	3031.4486	3038.7116	3042.5357	3086.4184	3094.6437	3103.3823	3109.7182	3116.3259	3187.6625	3799.8006
CC1C2N3CC1(O)C23C	C[C@H]1[C@H]2N3C[C@]1(O)[C@@]23C	
InChI=1S/C7H11NO/c1-4-5-6(2)7(4,9)3-8(5)6/h4-5,9H,3H2,1-2H3	InChI=1S/C7H11NO/c1-4-5-6(2)7(4,9)3-8(5)6/h4-5,9H,3H2,1-2H3/t4-,5+,6+,7+,8?/m0/s1
