17
gdb 22303	2.67582	1.28161	0.89045	3.1194	80.34	-0.1965	-0.0114	0.1852	1255.4824	0.136821	-455.111818	-455.103402	-455.102458	-455.144652	32.391	
N	 0.0753613407	 1.3680613949	-0.1619131336	-0.561014
C	-0.0273132552	 0.0021852057	-0.0058447702	 0.302989
C	-1.1937217536	-0.672641683	 0.0988867261	-0.265392
C	-1.1925717827	-2.1176628963	 0.0842260185	 0.36087
C	 0.1386797547	-2.7804226678	-0.1877050963	-0.171501
O	 1.1972881602	-2.0594126091	 0.4271807534	-0.23889
C	 1.2901627105	-0.7427532114	-0.0543403303	-0.145862
N	-2.1930374607	-2.908438006	 0.2452783036	-0.238843
O	-3.3950509571	-2.1951001676	 0.435021809	-0.403119
H	 0.8931809885	 1.8103431711	 0.2317929839	 0.252242
H	-0.7706358264	 1.8978272151	-0.0101488111	 0.257252
H	-2.1408359574	-0.153674245	 0.1807408888	 0.096431
H	 0.1547228934	-3.7910985868	 0.2220500025	 0.130048
H	 0.3107906076	-2.8417162155	-1.2762967721	 0.099335
H	 1.6745057967	-0.7210227767	-1.0908503582	 0.111326
H	 2.0317479106	-0.2344396135	 0.5751049402	 0.111928
H	-4.0328788499	-2.9082348782	 0.5362530258	 0.3022
94.467	172.1124	204.3183	249.6999	327.6185	368.599	382.8324	389.1165	431.622	472.0426	504.7095	551.6265	593.6429	620.3979	698.9442	865.0642	891.5634	911.8866	950.9087	985.6239	1012.7992	1062.8459	1114.437	1161.5319	1238.877	1262.5888	1305.9312	1318.6329	1359.7821	1379.1103	1415.0192	1430.9742	1477.1021	1488.3603	1644.3411	1692.7742	1703.9786	2939.1327	2956.0598	3042.234	3125.1951	3205.5758	3558.8037	3663.8362	3830.6609
NC1=CC(COC1)=NO	NC1=CC(=NO)COC1	
InChI=1S/C5H8N2O2/c6-4-1-5(7-8)3-9-2-4/h1,8H,2-3,6H2	InChI=1S/C5H8N2O2/c6-4-1-5(7-8)3-9-2-4/h1,8H,2-3,6H2
