19
gdb 103045	2.43695	1.47123	1.08818	1.2593	82.2	-0.2296	0.0394	0.2691	1166.8736	0.157412	-385.811062	-385.802107	-385.801163	-385.844689	34.036	
C	-0.3386918185	 1.4410911213	-0.0471655094	-0.381113
C	 0.1535220306	-0.0042381412	 0.0830928873	-0.272449
C	 0.7845535304	-0.5337135586	-1.2002201818	 0.098233
C	 1.9056241321	 0.2175027527	-1.704906399	 0.264839
C	 2.841178911	 0.845979805	-2.1274627422	-0.425641
C	 0.9066778687	-2.0329871909	-1.5303054421	-0.181142
C	-0.3448053778	-2.776460506	-1.0827199339	-0.120528
O	-1.2002344463	-1.8231932737	-1.7745668624	-0.289431
C	-0.0512166972	-1.1666650287	-2.3036355527	 0.073301
H	 0.4794308631	 2.1156739014	-0.315377046	 0.128879
H	-1.1096011538	 1.5215673606	-0.8202499748	 0.122276
H	-0.7707657052	 1.7879055426	 0.896315517	 0.110603
H	 0.8879123276	-0.0798974471	 0.893546706	 0.102056
H	-0.6905400127	-0.6449974705	 0.3490378847	 0.11807
H	 3.6644078622	 1.4055139948	-2.4969681534	 0.19116
H	 1.8507715024	-2.4746318529	-1.8161835067	 0.113114
H	-0.4361842353	-3.7671357091	-1.5412290308	 0.117379
H	-0.5644317376	-2.8414756008	-0.0116593441	 0.112851
H	-0.0817204437	-0.814050419	-3.3276844256	 0.117542
65.8119	139.9642	154.15	194.1612	212.2941	281.9279	334.3434	427.3793	473.3844	517.6557	541.6155	577.1631	659.4361	674.8162	757.8855	791.0137	836.1609	910.8356	944.6958	954.6685	988.2897	1001.7891	1016.1934	1049.8472	1078.2282	1090.5465	1114.8006	1159.6394	1189.2433	1239.9128	1271.8494	1297.8529	1330.4056	1367.6649	1389.413	1410.0681	1475.8727	1497.0368	1506.1622	1515.8451	2227.3489	3032.836	3039.2512	3041.1631	3081.9244	3097.7541	3108.9239	3121.145	3186.6475	3215.931	3502.9218
CCC1(C#C)C2COC12	CC[C@@]1(C#C)[C@H]2CO[C@@H]12	
InChI=1S/C8H10O/c1-3-8(4-2)6-5-9-7(6)8/h1,6-7H,4-5H2,2H3	InChI=1S/C8H10O/c1-3-8(4-2)6-5-9-7(6)8/h1,6-7H,4-5H2,2H3/t6-,7+,8-/m0/s1
