14
gdb 68707	2.03776	1.79933	1.14967	5.3256	69.98	-0.2649	-0.0363	0.2286	1040.8021	0.099846	-436.684419	-436.67647	-436.675526	-436.717053	29.624	
O	 0.0389120571	 1.3710709831	 0.1376074091	-0.423819
C	 0.0413889803	 0.0176673219	 0.0247425356	 0.382631
C	-0.2901734578	-0.8141019028	 1.1861390583	-0.342465
C	-1.2215121163	-0.9923450053	-0.0335378018	-0.01817
C	-2.6200564099	-0.7688176423	 0.0555758931	 0.195679
N	-3.7587735078	-0.5637263206	 0.1060608373	-0.343409
C	-0.4805911896	-1.7323615843	-1.1146191797	 0.37675
O	-0.7949496843	-2.6057762062	-1.8663489447	-0.28625
C	 0.7565327853	-0.7978879477	-1.057147176	-0.432189
H	-0.0573662907	 1.7681427234	-0.736562781	 0.305705
H	 0.3397175063	-1.6438320001	 1.4948697691	 0.141911
H	-0.7753664843	-0.2824623432	 1.9984750511	 0.164498
H	 0.8454353799	-0.266300309	-2.0106311302	 0.139882
H	 1.7261533917	-1.2305962069	-0.79486505	 0.139245
96.7149	124.0707	148.8166	286.1027	367.122	392.4423	404.2731	440.5004	508.5494	553.1612	604.0049	629.383	646.2101	691.1125	768.7719	875.0777	974.0194	993.8565	1015.0089	1078.1444	1109.0679	1120.7337	1191.0861	1207.1166	1319.7696	1352.9017	1436.3978	1458.2388	1517.4341	1889.4016	2340.5471	3052.6582	3106.81	3120.8247	3217.0806	3790.0018
OC12CC1(C#N)C(=O)C2	O[C@@]12C[C@]1(C#N)C(=O)C2	
InChI=1S/C6H5NO2/c7-3-5-2-6(5,9)1-4(5)8/h9H,1-2H2	InChI=1S/C6H5NO2/c7-3-5-2-6(5,9)1-4(5)8/h9H,1-2H2/t5-,6-/m0/s1
