19
gdb 80876	2.24176	1.9365	1.54556	2.8894	74.76	-0.2122	0.0698	0.282	963.9832	0.160486	-419.128181	-419.120387	-419.119443	-419.15985	31.624	
C	-0.0084468118	 1.4856574987	 0.0104361568	-0.517402
C	-0.0432404016	-0.0197229108	 0.016638537	 0.285496
N	 0.4661955603	-0.7686089456	-1.1944199923	-0.324075
C	-0.2958372241	-1.9231811473	-0.6038180029	-0.106143
C	 0.4859767615	-2.1803386268	 0.6979103383	-0.01355
N	 1.8446108874	-1.584875623	 0.7266930951	-0.323944
C	 0.6692398482	-0.7898137174	 1.1566689415	-0.061187
C	-1.3517979582	-0.8685600823	-0.105489858	 0.097533
O	-2.1103099591	-1.0566543963	 1.0630282565	-0.437104
H	 1.022856968	 1.8422552341	-0.074001531	 0.138148
H	-0.5827554911	 1.897785822	-0.8265400057	 0.109407
H	-0.4341071484	 1.883840378	 0.9374364919	 0.1266
H	-0.0728380117	-0.4326499916	-1.9943663712	 0.210108
H	-0.5382328363	-2.7615334359	-1.2571025405	 0.063018
H	 0.2207423006	-2.9998449714	 1.3532387589	 0.090858
H	 2.2995245636	-1.9242405005	 1.5741703028	 0.224462
H	 0.5538794348	-0.4699818557	 2.1846590362	 0.092053
H	-1.9738343601	-0.5102660339	-0.9386373483	 0.060715
H	-2.9299463622	-1.5032245344	 0.830250895	 0.285005
194.1731	210.9072	215.8604	224.3249	266.1377	311.522	436.9783	483.0748	579.3112	598.4257	669.7739	742.5249	776.5175	819.9703	840.7154	855.522	867.3841	894.4001	920.8949	943.8418	963.864	1042.7278	1058.6391	1094.8773	1107.1693	1131.5323	1144.7231	1158.1578	1192.0021	1209.4613	1237.9424	1250.1457	1287.5141	1295.5402	1328.1194	1381.4474	1400.3224	1412.1091	1444.7895	1489.1188	1493.2876	3000.6223	3031.2823	3096.8104	3109.0498	3115.6575	3188.3977	3199.3514	3438.2739	3467.6953	3822.1901
CC12NC(C3NC13)C2O	C[C@@]12N[C@@H]([C@H]3N[C@@H]13)[C@H]2O	
InChI=1S/C6H10N2O/c1-6-4-2(7-4)3(8-6)5(6)9/h2-5,7-9H,1H3	InChI=1S/C6H10N2O/c1-6-4-2(7-4)3(8-6)5(6)9/h2-5,7-9H,1H3/t2-,3+,4-,5-,6-/m1/s1
