16
gdb 11175	3.55127	1.5514	1.40171	2.6372	69.49	-0.2399	-0.0184	0.2215	935.9521	0.130019	-346.606448	-346.598917	-346.597972	-346.638532	28.506	
O	 0.0051029989	 0.0379733452	-0.2483601919	-0.309919
C	-0.0210318206	 1.225857678	-0.0630903014	 0.415503
C	-1.2766040116	 2.0851150441	 0.1203260728	-0.311389
C	-0.7608983369	 3.431271218	 0.6446181337	-0.226324
C	 0.6514614618	 3.5812258851	-0.0033075233	-0.18288
C	 1.2088786367	 2.1377802061	 0.0442274983	-0.322994
C	 0.5617352197	 4.0816326323	-1.3721607866	 0.338429
C	 0.4725176629	 4.477689947	-2.5039733831	-0.483059
H	-1.7385693087	 2.2007977807	-0.868115353	 0.145392
H	-2.0036989431	 1.584464554	 0.7629552014	 0.128796
H	-1.411463203	 4.2736081321	 0.4050220508	 0.119202
H	-0.6431708549	 3.3958681455	 1.7334134473	 0.106894
H	 1.2722874217	 4.2660994811	 0.5826378027	 0.10867
H	 1.6775803666	 1.9450638075	 1.0176231644	 0.131038
H	 1.9444875844	 1.9081705605	-0.7278174586	 0.141132
H	 0.4038651462	 4.8351873428	-3.5016102034	 0.201508
63.2668	128.2991	190.064	266.5584	420.6312	446.8397	477.2673	516.7735	605.2182	633.0999	636.5733	691.1944	743.4049	801.0195	815.816	907.8092	942.9626	979.0945	999.0591	1063.2747	1141.8953	1153.701	1175.3096	1195.4219	1254.0418	1287.4575	1305.2419	1333.9229	1362.1763	1444.4742	1447.8944	1497.0592	1851.0235	2233.416	3039.6439	3043.2499	3048.1928	3060.9783	3114.4568	3122.1739	3128.3442	3503.549
O=C1CCC(C1)C#C	O=C1CC[C@@H](C1)C#C	
InChI=1S/C7H8O/c1-2-6-3-4-7(8)5-6/h1,6H,3-5H2	InChI=1S/C7H8O/c1-2-6-3-4-7(8)5-6/h1,6H,3-5H2/t6-/m0/s1
