16
gdb 128542	2.03039	1.83808	1.01765	1.5959	67.74	-0.2011	0.0514	0.2525	1128.155	0.124699	-471.199968	-471.190788	-471.189844	-471.233727	33.181	
C	-0.0328185705	 1.4698532177	-0.14102	-0.257525
O	 0.012279911	 0.0843222815	 0.209557457	-0.297537
C	-1.1960238771	-0.554535753	 0.0957328949	 0.048217
C	-1.9501338933	-1.0234750718	 1.1521202061	 0.381258
O	-1.7437606588	-0.9754564035	 2.483130845	-0.436683
N	-3.0407723365	-1.6138854631	 0.6289676847	-0.276855
N	-3.0469739169	-1.5741370847	-0.7438882462	-0.324254
C	-1.9306116815	-0.9305198073	-1.059296976	 0.295434
N	-1.6028205539	-0.6220997164	-2.3818947354	-0.596162
H	 0.9851191323	 1.8529996522	-0.0380692369	 0.1245
H	-0.3749943974	 1.6031460249	-1.1734962389	 0.137904
H	-0.7038066751	 2.0247821235	 0.5271997087	 0.113559
H	-0.8795291961	-0.5659591751	 2.6162040782	 0.312626
H	-3.7790402827	-2.0850564451	 1.1194872847	 0.275982
H	-2.191240751	-1.1342378326	-3.0284466274	 0.250414
H	-0.6266833724	-0.7995762472	-2.5857531085	 0.249123
85.1456	151.7547	160.5126	196.4939	235.2099	254.5145	268.8241	322.6747	376.2867	430.7966	455.7436	570.7463	589.008	663.5216	711.103	734.4843	790.2104	827.932	1031.8061	1057.8471	1115.5687	1172.3103	1180.759	1197.8287	1218.4873	1289.6789	1378.2724	1462.106	1477.4884	1484.3194	1509.8708	1557.9968	1607.4078	1639.8174	1676.7159	3010.4054	3078.8487	3124.7873	3525.286	3619.4681	3699.7037	3794.818
COC1=C(O)NN=C1N	COc1c(O)[nH]nc1N	
InChI=1S/C4H7N3O2/c1-9-2-3(5)6-7-4(2)8/h1H3,(H4,5,6,7,8)	InChI=1S/C4H7N3O2/c1-9-2-3(5)6-7-4(2)8/h1H3,(H4,5,6,7,8)
