16
gdb 23089	2.18677	1.53159	0.95659	1.3725	81.97	-0.2256	-0.0324	0.1932	1194.2204	0.123289	-400.686482	-400.677982	-400.677038	-400.720211	31.808	
O	-0.1106041423	 1.3617678639	-0.0377567454	-0.39237
N	 0.0035196531	-0.035348165	-0.1271106117	-0.228836
C	-1.1357912912	-0.6037365392	-0.0346380117	 0.372738
C	-2.4672494592	-0.0347873548	 0.1462042508	-0.141292
C	-3.3937678851	-1.0014672421	 0.1489910612	-0.07191
C	-2.8117456896	-2.3746630113	-0.0551329622	-0.283349
C	-1.264415086	-2.1348664516	-0.0715592667	-0.256059
C	-0.5861811117	-2.7685663261	-1.1930394648	 0.345025
C	-0.0511337637	-3.3104089728	-2.1223746437	-0.471475
H	 0.8048245996	 1.6442568782	-0.1333544227	 0.308207
H	-2.6374623117	 1.0268123121	 0.251397691	 0.126328
H	-4.4600398805	-0.8410270293	 0.2639939876	 0.11113
H	-3.1048476422	-3.073494764	 0.7359236794	 0.12133
H	-3.1514169718	-2.8136952308	-0.9999667142	 0.13429
H	-0.8361576624	-2.5261894561	 0.8594733113	 0.130066
H	 0.4365771447	-3.7770493412	-2.9418499883	 0.196176
38.8892	116.7892	186.0244	240.7736	283.8538	302.2251	402.1227	425.998	481.7862	565.0162	579.0395	625.4021	634.7497	723.659	760.2915	796.1539	832.0086	914.2116	962.0395	981.5829	990.9407	1030.1996	1054.103	1122.6325	1172.7782	1227.7855	1244.0209	1300.7426	1335.0268	1366.8012	1401.3181	1480.034	1651.2974	1727.2336	2241.8804	3027.1188	3041.4198	3073.437	3196.879	3250.4726	3505.4677	3823.3415
ON=C1C=CCC1C#C	ON=C1C=CC[C@H]1C#C	
InChI=1S/C7H7NO/c1-2-6-4-3-5-7(6)8-9/h1,3,5-6,9H,4H2	InChI=1S/C7H7NO/c1-2-6-4-3-5-7(6)8-9/h1,3,5-6,9H,4H2/t6-/m1/s1
