17
gdb 43352	3.12214	1.5838	1.09901	3.8584	82.26	-0.2354	-0.0605	0.1749	1071.0158	0.138588	-384.730696	-384.723745	-384.722801	-384.762024	27.634	
O	 0.0794915178	 0.0553607235	 0.4365259039	-0.337228
C	 0.008608053	 1.2142745148	 0.0885157082	 0.288232
C	-1.2306605107	 2.0402601238	-0.072384166	-0.171549
C	-0.944133131	 3.2754035112	-0.5176028428	-0.10652
C	 0.5304003954	 3.4365789733	-0.8060373954	-0.097953
C	 1.4256316015	 4.5400571658	-0.1939841421	-0.241919
C	 2.7816928751	 3.8009927992	 0.0208287573	-0.247479
C	 2.3456717352	 2.3648515916	 0.2549543851	-0.18745
C	 1.1061056113	 2.1775161036	-0.2007806741	 0.207503
H	-2.2128919478	 1.646041845	 0.1577305345	 0.11685
H	-1.6766336129	 4.0508950428	-0.7179446089	 0.114026
H	 0.6649976263	 3.4417182356	-1.900546759	 0.101208
H	 1.5148600157	 5.431778921	-0.8197791893	 0.100067
H	 1.0269404602	 4.8461744409	 0.779143701	 0.111341
H	 3.4339541496	 3.8826856936	-0.8607931887	 0.116904
H	 3.3515462023	 4.2055680224	 0.8637130684	 0.114246
H	 2.9415316889	 1.6315405519	 0.7859338678	 0.119721
130.2199	185.7173	248.8324	304.8422	351.4495	482.0243	562.2347	613.9053	669.6255	705.8435	729.2283	802.6084	832.3433	857.1934	906.2236	912.6606	945.0216	974.0026	994.122	1035.6938	1060.2529	1076.6663	1120.0922	1155.8585	1189.1699	1220.5849	1248.5442	1281.7519	1309.4459	1320.9312	1342.7098	1364.2369	1478.8343	1494.6452	1618.7429	1704.9836	1795.8327	2965.2612	3007.7909	3048.5667	3072.2031	3104.5083	3181.6131	3205.7951	3220.0799
O=C1C=CC2CCC=C12	O=C1C=C[C@H]2CC[CH][C]12	
InChI=1S/C8H8O/c9-8-5-4-6-2-1-3-7(6)8/h3-6H,1-2H2	InChI=1S/C8H8O/c9-8-5-4-6-2-1-3-7(6)8/h3-6H,1-2H2/t6-/m1/s1
