16
gdb 87609	2.81772	1.53728	1.17705	2.2528	70.99	-0.2635	-0.0269	0.2365	1055.5319	0.124631	-437.930451	-437.922685	-437.92174	-437.962809	29.096	
C	-0.0571971385	 1.5315026805	-0.0005668641	-0.408055
C	 0.0427396417	 0.0245929398	 0.0016593884	-0.040669
C	 1.3404082692	-0.6727070203	-0.2179527273	-0.320729
C	 0.7216511611	-0.6880707272	 1.1737631269	 0.166586
N	 1.3113211582	 0.0319339095	 2.2643590747	-0.302808
C	 1.0918750446	-0.6992474837	 3.2801252422	 0.094009
O	 0.4146690189	-1.8787666314	 3.0977879239	-0.213199
C	 0.1385778562	-1.9394258244	 1.7237856042	 0.40828
O	-0.4481698309	-2.8472532304	 1.218941967	-0.341272
H	 0.8380466463	 1.985469097	 0.429939081	 0.14314
H	-0.1754795265	 1.8996571902	-1.025004916	 0.125806
H	-0.9197177082	 1.8703418183	 0.5815208108	 0.128229
H	-0.8352954747	-0.510955102	-0.350387996	 0.120534
H	 1.348591068	-1.6213696383	-0.7430850764	 0.144176
H	 2.2370043515	-0.069708279	-0.3089576232	 0.13891
H	 1.3864011031	-0.4935123588	 4.3010326538	 0.157059
117.3156	141.3554	185.4402	203.9815	275.5058	345.255	412.5363	525.2395	566.9976	630.8129	714.3171	738.7069	830.8182	866.8661	891.8837	914.6728	920.9524	933.6073	985.8128	1025.7096	1076.5633	1106.7051	1128.1849	1148.1263	1197.8458	1261.1415	1303.7099	1347.4548	1403.0639	1426.2805	1472.6506	1492.1256	1501.0224	1672.5162	1904.4166	3041.6758	3103.8761	3127.833	3138.7635	3152.2202	3236.0378	3236.6066
CC1CC11N=COC1=O	C[C@H]1C[C@]21N=COC2=O	
InChI=1S/C6H7NO2/c1-4-2-6(4)5(8)9-3-7-6/h3-4H,2H2,1H3	InChI=1S/C6H7NO2/c1-4-2-6(4)5(8)9-3-7-6/h3-4H,2H2,1H3/t4-,6+/m0/s1
