18
gdb 31029	2.33665	1.33526	0.89835	1.5466	74.99	-0.1919	0.0544	0.2463	1297.2494	0.148405	-435.31387	-435.304385	-435.303441	-435.348663	34.525	
C	-0.0373923869	 1.6322413327	-0.2574803868	-0.362802
C	-0.058199443	 0.1460265222	 0.1347632596	-0.290456
C	-1.436313366	-0.4340213674	 0.161870144	 0.263372
C	-2.1203388375	-0.9545495198	 1.2277905035	 0.137599
N	-1.8517967643	-1.1581927964	 2.5977738008	-0.619652
N	-3.3624912193	-1.3459984906	 0.7094123506	-0.31303
C	-3.3413153001	-1.0395027007	-0.6056231795	 0.430613
O	-4.4101089239	-1.3038854559	-1.3794544337	-0.428497
N	-2.21913373	-0.4936006078	-0.9886699866	-0.422608
H	 0.9882004837	 2.0112860838	-0.3116429703	 0.10323
H	-0.5100911028	 1.7725428723	-1.2332022546	 0.135568
H	-0.5874337499	 2.2383173991	 0.4699854631	 0.107316
H	 0.5584253821	-0.417822105	-0.5772083461	 0.108588
H	 0.4016552856	 0.0119744042	 1.1211320853	 0.080409
H	-1.0625699725	-1.7761227307	 2.7502982849	 0.245504
H	-1.6673253918	-0.2914942343	 3.0902133907	 0.245544
H	-4.1092351595	-1.7728604046	 1.2305918485	 0.269094
H	-4.1730416641	-1.0066146911	-2.2670951733	 0.310208
48.9184	86.22	137.0788	193.427	212.8016	279.6547	294.8857	339.0981	402.6322	422.1484	497.1278	540.2725	612.4122	651.2965	699.8347	734.5703	753.2911	789.7622	822.1672	978.0626	1036.5082	1081.2417	1085.2891	1161.1608	1182.7305	1205.6535	1248.7652	1275.4554	1321.9437	1352.933	1402.3104	1422.5872	1477.7754	1494.5746	1508.6176	1568.057	1619.8588	1636.8046	1667.6719	3018.8195	3035.4092	3057.2878	3102.1222	3121.4253	3509.5848	3575.3916	3675.4071	3801.1882
CCC1=C(N)NC(O)=N1	CCc1c(N)[nH]c(O)n1	
InChI=1S/C5H9N3O/c1-2-3-4(6)8-5(9)7-3/h2,6H2,1H3,(H2,7,8,9)	InChI=1S/C5H9N3O/c1-2-3-4(6)8-5(9)7-3/h2,6H2,1H3,(H2,7,8,9)
