21
gdb 110598	3.58042	1.01287	0.99034	1.1722	82.73	-0.2036	0.0768	0.2804	1319.4297	0.181666	-387.004724	-386.995797	-386.994852	-387.038303	34.817	
C	 0.5755116263	 1.0139092575	 1.1830878307	-0.489902
C	 0.3562934162	-0.4019993387	 0.7370397124	 0.360677
C	-0.5192174012	-1.3818430239	 1.4680600292	-0.358297
C	 0.9446401737	-1.697985112	 1.2748972345	-0.10334
C	 1.3453990707	-2.1278450757	-0.1604136328	-0.094482
C	 0.247415939	-2.1893719931	-1.1881814863	 0.007779
C	-1.1306362327	-2.8441407468	-1.147594493	-0.128554
O	-1.2894487008	-3.5062810914	-2.3995408581	-0.4383
C	 0.7270512307	-0.8417552172	-0.7129037561	-0.156781
H	 1.5638617826	 1.3800053234	 0.8802289064	 0.116515
H	-0.1726129927	 1.6897653141	 0.7489909044	 0.117232
H	 0.5072560705	 1.0988886508	 2.2725351077	 0.114678
H	-0.7582101228	-1.0706304141	 2.482465216	 0.105354
H	-1.3184690701	-1.942451691	 1.0027667071	 0.107035
H	 1.6091545349	-1.8319278661	 2.1195920947	 0.084294
H	 2.3304931217	-2.5288426914	-0.3664081564	 0.085597
H	 0.6799723081	-2.3953313129	-2.1669798043	 0.108764
H	-1.1997531036	-3.565009113	-0.3198898552	 0.099248
H	-1.9195903559	-2.0898479253	-1.0079381077	 0.097183
H	-2.1481768817	-3.9396558173	-2.3993099595	 0.282461
H	 1.1750713772	-0.1335278358	-1.4006326735	 0.08284
53.4005	161.5248	192.0615	215.0737	257.9531	284.6217	310.8852	354.6907	416.1866	478.7757	579.4953	642.0421	692.229	745.7503	784.4118	828.1137	887.2849	898.9557	941.1427	949.6767	966.6668	986.4278	1012.5171	1031.05	1055.9991	1064.6343	1074.8169	1100.0329	1110.5498	1136.44	1190.4918	1225.3378	1251.2099	1266.892	1272.1554	1296.5667	1334.5915	1374.9058	1412.3002	1429.1381	1465.1534	1483.4502	1499.6699	1508.4564	1529.7868	2972.9244	3008.1551	3013.6291	3068.4338	3094.5963	3118.2468	3126.8309	3167.8156	3177.5815	3187.8301	3226.1125	3826.4756
CC12CC1C1C(CO)C21	C[C@]12C[C@H]1[C@H]1[C@@H](CO)[C@@H]21	
InChI=1S/C8H12O/c1-8-2-5(8)6-4(3-9)7(6)8/h4-7,9H,2-3H2,1H3	InChI=1S/C8H12O/c1-8-2-5(8)6-4(3-9)7(6)8/h4-7,9H,2-3H2,1H3/t4-,5+,6-,7-,8+/m1/s1
