19
gdb 108107	3.50601	1.40636	1.36709	0.7758	73.44	-0.2181	0.0918	0.3099	1029.4333	0.160941	-423.007805	-423.000457	-422.999513	-423.039583	29.47	
C	 0.0637888472	 1.2915093138	 0.2762011728	-0.259096
O	-0.0817589922	-0.0120634707	-0.2621233433	-0.29684
C	-1.3583617458	-0.5252518386	-0.1575860472	 0.404513
C	-2.5688743737	 0.004430518	-0.9298100077	-0.304836
C	-3.5603651231	-1.0214626619	-0.3376565494	 0.053322
C	-2.881711226	-2.3739929988	-0.6605548722	-0.229137
C	-1.5589349226	-2.0257261785	 0.0091716263	-0.175964
C	-1.953633078	-1.0713883917	 1.1253739076	 0.009437
O	-3.3569302896	-0.889421218	 1.0831924	-0.259087
H	 1.1225689861	 1.5483957269	 0.1994883575	 0.12766
H	-0.5221263951	 2.0334484213	-0.2834748653	 0.113506
H	-0.2429017618	 1.32811125	 1.3305567405	 0.112321
H	-2.8365237395	 1.0310694987	-0.665360261	 0.103608
H	-2.4614709108	-0.0831203841	-2.0143149277	 0.105191
H	-4.6170763007	-0.9055858573	-0.5685611595	 0.082745
H	-3.3942474001	-3.2148810219	-0.1856809975	 0.107399
H	-2.7978059867	-2.5557299483	-1.7354474266	 0.103015
H	-0.7176727254	-2.6987070188	 0.0998713233	 0.096938
H	-1.5039007124	-1.0292205702	 2.1068934893	 0.105305
91.517	173.0167	194.4287	342.4859	372.9759	416.8533	497.1159	550.1066	589.8301	679.8232	722.3358	799.2467	865.1757	887.9602	897.5926	925.003	938.1673	958.1157	982.5425	1001.9189	1020.9092	1040.1671	1072.0831	1095.6783	1142.6626	1168.1292	1172.0525	1180.0794	1203.3566	1222.7427	1245.4772	1276.0376	1283.2692	1318.6113	1339.3623	1412.7819	1474.8047	1483.3267	1490.4643	1498.6469	1507.8471	2996.5288	3049.8428	3058.946	3063.7272	3111.0567	3115.4249	3122.3067	3148.7026	3215.9837	3227.7653
COC12CC3CC1C2O3	CO[C@@]12C[C@H]3C[C@@H]1[C@@H]2O3	
InChI=1S/C7H10O2/c1-8-7-3-4-2-5(7)6(7)9-4/h4-6H,2-3H2,1H3	InChI=1S/C7H10O2/c1-8-7-3-4-2-5(7)6(7)9-4/h4-6H,2-3H2,1H3/t4-,5-,6+,7+/m1/s1
