21
gdb 79451	3.08201	1.50326	1.26024	1.5826	81.27	-0.2432	0.0745	0.3178	1075.9278	0.18462	-387.05233	-387.044668	-387.043724	-387.083909	31.746	
C	-0.1057475796	 1.5054698801	-0.0020683209	-0.433567
C	 0.0987052129	-0.0076980491	 0.0442604397	 0.062045
C	 1.0826201798	-0.6301106128	-0.9833354977	-0.064228
C	 2.4343734916	 0.0420407293	-0.6300427558	-0.243575
C	 2.2975125367	-0.7664930004	 0.6668728239	-0.058392
C	 1.5555031819	-1.8930766133	-0.139734085	-0.075571
C	 0.6041018983	-2.1094049447	 1.0502708552	 0.166633
O	 1.0987547052	-2.9891331514	 2.0375245568	-0.460949
C	 0.8324304046	-0.586690021	 1.2785416563	-0.098309
H	 0.8023692264	 2.0658704456	 0.2344963945	 0.119753
H	-0.4478413399	 1.8249487871	-0.9932617702	 0.112301
H	-0.869096301	 1.8061654484	 0.7233386624	 0.114503
H	-0.8867650081	-0.4790723634	-0.0541548442	 0.068487
H	 0.7434856347	-0.7219239595	-2.0157865672	 0.05948
H	 3.2525881257	-0.3569444748	-1.2376243636	 0.096359
H	 2.5029676792	 1.1321732963	-0.6072805326	 0.092063
H	 3.1276978963	-0.9375030105	 1.3526232647	 0.061214
H	 2.065347201	-2.7047511148	-0.6599083388	 0.067234
H	-0.4260439199	-2.4297633374	 0.867232132	 0.075358
H	 2.0409700547	-2.8234245993	 2.1496395492	 0.278972
H	 0.6579138495	-0.1288482544	 2.2527078914	 0.060189
170.6455	219.6021	225.2328	261.276	278.2256	357.2556	447.8612	484.298	520.5096	645.6272	732.9299	801.8291	817.9492	834.2221	844.869	871.389	925.8921	940.2762	947.676	988.5267	1005.1497	1009.6318	1038.289	1064.6877	1070.3303	1099.5023	1122.5346	1129.4295	1156.4939	1181.9713	1196.7357	1204.2437	1241.9498	1251.1244	1259.7981	1281.4241	1288.3404	1308.8048	1328.0203	1397.3211	1410.1146	1442.1277	1491.6599	1495.6706	1519.8972	3021.3617	3031.8802	3054.9047	3063.9542	3091.5463	3100.9958	3102.6138	3104.5439	3111.9607	3116.899	3118.9868	3807.795
CC1C2CC3C2C(O)C13	C[C@H]1[C@H]2C[C@@H]3[C@H]2[C@@H](O)[C@H]13	
InChI=1S/C8H12O/c1-3-4-2-5-6(3)8(9)7(4)5/h3-9H,2H2,1H3	InChI=1S/C8H12O/c1-3-4-2-5-6(3)8(9)7(4)5/h3-9H,2H2,1H3/t3-,4+,5-,6+,7-,8-/m0/s1
