17
gdb 51018	2.67519	0.98942	0.80064	2.6387	69.44	-0.2575	-0.0448	0.2127	1396.8964	0.131639	-458.952987	-458.943382	-458.942438	-458.989541	32.706	
O	 0.121518251	 0.0748861512	 0.1541486652	-0.234586
C	 1.037618258	 0.6398456188	-0.3843230104	 0.156494
C	 1.546486994	 2.0171503803	 0.0039340344	-0.341853
C	 1.5535517218	 2.9677706517	-1.1851092629	 0.358392
C	 0.1778235771	 3.3471548417	-1.7203528268	-0.354606
C	 0.2084207018	 4.176394223	-2.9907836433	 0.147215
O	-0.426770274	 5.1871700836	-3.1474173857	-0.239352
C	 2.7085617459	 3.8520526909	-1.4000986969	-0.228703
O	 2.5443773702	 2.6599317686	-2.1781963635	-0.265093
H	 1.5899869251	 0.1742077522	-1.2299378487	 0.100156
H	 0.9300048818	 2.4061588644	 0.8193919741	 0.129219
H	 2.5767374188	 1.8998508944	 0.3623185574	 0.12923
H	-0.3756432269	 2.4244189924	-1.9514556568	 0.142007
H	-0.3945042747	 3.8870161432	-0.9599524197	 0.138263
H	 0.8592948493	 3.7678723057	-3.791463028	 0.105764
H	 2.5811580952	 4.785649157	-1.9465446521	 0.13349
H	 3.5380041957	 3.8389410809	-0.6952634363	 0.123961
40.8795	50.7052	69.6279	85.4748	189.2953	223.5712	323.9318	343.1845	416.5769	467.0697	483.2852	541.428	694.268	794.0266	824.3725	886.5547	908.5985	951.2602	1001.5197	1049.7524	1067.852	1102.4468	1131.8228	1164.2095	1171.8735	1233.083	1244.3682	1295.4484	1339.9675	1406.0941	1421.073	1425.2845	1449.5639	1456.164	1531.378	1831.4764	1833.8877	2897.2652	2923.0823	3010.2372	3036.8203	3086.7996	3095.0163	3107.0549	3175.0156
O=CCC1(CC=O)CO1	O=CCC1(CC=O)CO1	
InChI=1S/C6H8O3/c7-3-1-6(2-4-8)5-9-6/h3-4H,1-2,5H2	InChI=1S/C6H8O3/c7-3-1-6(2-4-8)5-9-6/h3-4H,1-2,5H2
