17
gdb 74574	3.4813	1.26786	1.10047	4.3527	74.39	-0.2441	-0.0013	0.2428	1131.2906	0.136863	-421.876551	-421.868966	-421.868022	-421.908749	29.004	
C	-0.0279430745	 1.489887254	-0.0200928867	-0.489751
C	 0.0034232599	-0.0043913159	-0.0632276875	 0.32798
C	 0.1752907014	-0.7760026016	-1.1424827968	-0.184181
C	 0.1018238623	-2.2448762357	-0.8252187925	-0.263124
C	-0.2052255338	-2.2743914989	 0.6920113661	 0.11109
C	-0.1680557217	-0.8321969857	 1.1974478032	-0.324937
O	-1.5681467518	-2.7451739966	 0.4051576509	-0.258735
C	-1.3203379121	-2.8241074815	-0.9457669199	 0.452688
O	-2.0509817036	-3.2150175363	-1.7960545053	-0.323264
H	 0.7344962899	 1.8822796599	 0.6647209469	 0.128447
H	 0.1414926253	 1.9263442121	-1.0076009749	 0.130425
H	-0.9952319114	 1.8510349625	 0.351120375	 0.135495
H	 0.3112807406	-0.4103547407	-2.1534602486	 0.10579
H	 0.8960495724	-2.8670839259	-1.2418673195	 0.109165
H	 0.3085850271	-3.0064932035	 1.3148765427	 0.099041
H	 0.6595605656	-0.6696612224	 1.9003145669	 0.113493
H	-1.0917384654	-0.592620874	 1.7387406002	 0.130377
108.3772	137.6294	182.3501	271.548	318.9579	371.9048	437.845	490.995	601.3944	663.0898	725.3312	812.8686	843.7069	853.4132	868.526	881.0898	964.1064	983.1667	994.7682	1023.6869	1050.7129	1069.0962	1119.3357	1160.85	1184.0512	1212.9191	1264.434	1275.2316	1303.1285	1338.8619	1363.9897	1415.3839	1464.1554	1479.2912	1486.9536	1707.7326	1936.2126	3019.4672	3024.1444	3060.1413	3067.7447	3098.7031	3117.192	3117.7873	3203.4954
CC1=CC2C(C1)OC2=O	CC1=C[C@H]2[C@@H](C1)OC2=O	
InChI=1S/C7H8O2/c1-4-2-5-6(3-4)9-7(5)8/h2,5-6H,3H2,1H3	InChI=1S/C7H8O2/c1-4-2-5-6(3-4)9-7(5)8/h2,5-6H,3H2,1H3/t5-,6+/m0/s1
