21
gdb 113808	4.09935	0.78659	0.71614	1.9519	80.28	-0.2418	0.0658	0.3075	1623.2406	0.182828	-420.346442	-420.336723	-420.335779	-420.382225	35.565	
C	-0.0052674955	 1.6437909125	-0.0636987588	-0.396573
C	 0.0524798088	 0.1377561617	 0.0279429031	 0.000676
N	 1.3490540978	-0.507598749	-0.2328537645	-0.348381
C	 0.7457953429	-0.624575801	 1.1073020226	-0.017213
C	 1.490206714	 0.0223152765	 2.2306131663	-0.015845
N	 0.9264892713	-0.1460520268	 3.5833826448	-0.36135
C	 2.252075066	-0.7203474311	 3.2744349896	-0.037495
C	 2.3258487625	-2.2246368001	 3.3966293515	-0.064997
O	 2.201124026	-2.6248395427	 4.751420029	-0.422669
H	 0.921654336	 2.1022405441	 0.287774752	 0.125793
H	-0.1524932407	 1.9563946633	-1.1030267955	 0.120904
H	-0.8377990226	 2.0391567243	 0.5282911655	 0.118664
H	-0.8290801246	-0.3602864557	-0.3758052724	 0.082865
H	 1.2330875976	-1.3705817069	-0.7561034826	 0.231663
H	 0.2823599264	-1.5712791701	 1.373868141	 0.087318
H	 1.8995247313	 0.9983284145	 1.9815717931	 0.088112
H	 1.0187250686	 0.712265712	 4.118577129	 0.235073
H	 3.1164797246	-0.2041104915	 3.6894476125	 0.090102
H	 1.5562746213	-2.6997136305	 2.7724251981	 0.084976
H	 3.3009136024	-2.5859038421	 3.0534980526	 0.110095
H	 1.3796911858	-2.2269991014	 5.0642253028	 0.288284
34.1359	60.6644	120.8125	160.3892	202.2473	205.1625	303.5376	380.9249	420.1892	431.6827	456.0721	520.487	603.7414	779.6878	811.0396	835.18	862.6019	920.7146	940.2415	970.0444	983.0905	996.5731	1014.815	1039.1154	1069.7055	1076.3433	1120.9258	1149.4719	1170.2713	1194.7483	1242.598	1256.8231	1263.0545	1268.8771	1293.1538	1346.5842	1367.2228	1407.8163	1416.4987	1442.1652	1457.6017	1485.9605	1496.7026	1501.0996	1517.9738	3007.6928	3036.9174	3076.2334	3096.3023	3099.8592	3118.6622	3127.8888	3133.7237	3144.6778	3510.4052	3512.8966	3788.1324
CC1NC1C1NC1CO	C[C@H]1N[C@H]1[C@H]1N[C@H]1CO	
InChI=1S/C6H12N2O/c1-3-5(7-3)6-4(2-9)8-6/h3-9H,2H2,1H3	InChI=1S/C6H12N2O/c1-3-5(7-3)6-4(2-9)8-6/h3-9H,2H2,1H3/t3-,4+,5-,6+/m1/s1
