15
gdb 9701	3.81522	1.59563	1.57713	3.3762	66.09	-0.2608	0.0085	0.2693	869.3266	0.119073	-362.683245	-362.67591	-362.674966	-362.714746	27.684	
O	-0.1063888788	 1.4491338457	 0.0280849597	-0.446809
C	-0.0106384693	 0.0314774106	 0.0250999907	 0.241719
C	 0.5977518776	-0.5060669817	 1.3598982221	-0.297821
C	-0.6202221275	-0.8436008748	 2.1809389598	-0.061936
C	-1.7331049009	-0.8419664569	 1.4521057464	-0.061262
C	-1.4736076581	-0.4963345546	 0.00879277	-0.278221
C	 0.7678491779	-0.4102227818	-1.1495170671	 0.232737
N	 1.401571989	-0.7347078211	-2.0601802324	-0.343709
H	 0.7845287363	 1.8146833116	 0.0768306344	 0.290366
H	 1.2285183703	-1.3874965153	 1.1897517162	 0.132453
H	 1.237400232	 0.2602593854	 1.8132998914	 0.113025
H	-0.5570272716	-1.0805299071	 3.2363764045	 0.104145
H	-2.7253207774	-1.080106334	 1.8167073663	 0.104474
H	-2.1252532745	 0.288497099	-0.3865980807	 0.139203
H	-1.5802259351	-1.3703939049	-0.6442724612	 0.131636
90.1408	169.1604	199.3604	333.4732	359.7897	398.6918	422.053	501.0487	566.9183	605.3192	698.7312	781.5054	788.033	914.5539	940.	960.736	973.8563	985.7561	1051.8886	1083.8972	1087.8441	1133.9572	1173.7133	1261.6082	1300.6366	1317.5731	1357.41	1380.9985	1467.2245	1475.7902	1692.8373	2350.8999	3029.2649	3042.8743	3064.6719	3091.3824	3194.4488	3218.6403	3800.3672
OC1(CC=CC1)C#N	O[C@]1(CC=CC1)C#N	
InChI=1S/C6H7NO/c7-5-6(8)3-1-2-4-6/h1-2,8H,3-4H2	InChI=1S/C6H7NO/c7-5-6(8)3-1-2-4-6/h1-2,8H,3-4H2
