18
gdb 85082	3.09386	1.28053	0.93726	3.2392	76.09	-0.2191	-0.0137	0.2055	1224.2711	0.148079	-439.128584	-439.119805	-439.11886	-439.162231	32.55	
C	 0.1486329905	 1.4505205473	-0.0103420425	-0.356134
N	 0.0087411248	 0.0001162052	 0.0095214382	-0.118274
C	-0.0726406457	-0.6917159053	-1.2061797488	 0.0451
C	-0.44301702	-1.9692557164	-1.3141793206	-0.206084
C	-0.829234348	-2.7601471924	-0.0940361654	 0.085885
O	-0.5800758359	-4.1531206855	-0.2337077092	-0.431165
C	-0.1142934873	-2.1796103163	 1.1353123853	-0.343898
C	-0.097677368	-0.6569209462	 1.2256672738	 0.395805
O	-0.1047113606	-0.0647299506	 2.286289024	-0.366282
H	 0.9932548555	 1.7394398758	-0.6442576014	 0.128618
H	-0.758800251	 1.9323498123	-0.3915146145	 0.133433
H	 0.3245621633	 1.7825075034	 1.0114495507	 0.172674
H	 0.1707984745	-0.0847119916	-2.0713438348	 0.116097
H	-0.5142400003	-2.4421557816	-2.2861170382	 0.103434
H	-1.9169438332	-2.7015162752	 0.0549119133	 0.10874
H	 0.3535076282	-4.2588204527	-0.450547133	 0.275233
H	-0.5264812889	-2.5677085498	 2.0672232133	 0.138146
H	 0.9406768121	-2.4900801702	 1.0906701898	 0.118674
83.5055	98.7262	136.0957	196.9116	290.5944	338.6115	354.3953	375.0026	403.4603	456.6606	572.0593	596.4084	639.9101	730.3618	745.1137	779.2672	911.6683	951.5007	979.9055	1009.3401	1081.3224	1111.9278	1134.9614	1156.9589	1172.031	1209.1438	1253.7367	1281.0085	1318.4896	1352.2537	1383.6368	1411.328	1426.7126	1455.1246	1462.6744	1499.1694	1514.3436	1716.9484	1782.3115	2999.2496	3015.0652	3031.0987	3087.2247	3132.2982	3171.2598	3186.7367	3211.9915	3790.6947
CN1C=CC(O)CC1=O	CN1C=C[C@@H](O)CC1=O	
InChI=1S/C6H9NO2/c1-7-3-2-5(8)4-6(7)9/h2-3,5,8H,4H2,1H3	InChI=1S/C6H9NO2/c1-7-3-2-5(8)4-6(7)9/h2-3,5,8H,4H2,1H3/t5-/m1/s1
