15
gdb 16096	4.50861	1.75952	1.51448	1.6593	73.11	-0.226	0.0031	0.2291	852.3842	0.118944	-325.467053	-325.460294	-325.45935	-325.497632	26.813	
C	 0.0672891978	-1.1887520885	 0.0332845251	-0.388516
C	 0.0431512725	 0.0130730762	 0.0137446	 0.205514
C	-0.0381542691	 1.446434842	-0.0127650154	 0.135454
C	 0.3667511918	 2.2417005331	-1.2210686157	-0.26072
N	 1.2191663207	 2.2664633274	-0.0376345527	-0.135313
C	 0.9834397085	 3.4140432465	 0.8678442884	-0.212893
C	-0.4371571804	 3.273388967	 1.3671216862	-0.093581
C	-0.9934748669	 2.1603972251	 0.8945534068	-0.138897
H	 0.1053552582	-2.2496500799	 0.0537125225	 0.190775
H	 0.8026670251	 1.7289699361	-2.0739458076	 0.124816
H	-0.2439837645	 3.1115040997	-1.4561776331	 0.114195
H	 1.7105066786	 3.3769526853	 1.68951092	 0.121766
H	 1.1577282269	 4.3548939207	 0.3302422584	 0.117691
H	-0.9176278012	 4.0032731517	 2.0077927117	 0.106915
H	-1.9872870881	 1.7854580176	 1.1002913454	 0.112795
145.3702	159.766	290.8015	371.7972	475.3626	508.6325	525.68	582.9898	603.6926	655.1505	735.5275	750.8345	752.7221	816.8222	912.533	928.0661	952.2789	959.6654	1010.3376	1046.4963	1114.5782	1123.0543	1157.7571	1213.8261	1227.9471	1310.8518	1335.8121	1360.1832	1483.2959	1497.2331	1672.9876	2240.3916	3016.7642	3048.0999	3094.6075	3190.8726	3201.4283	3232.7185	3503.5418
C#CC12CN1CC=C2	C#C[C@]12CN1CC=C2	
InChI=1S/C7H7N/c1-2-7-4-3-5-8(7)6-7/h1,3-4H,5-6H2	InChI=1S/C7H7N/c1-2-7-4-3-5-8(7)6-7/h1,3-4H,5-6H2/t7-,8?/m0/s1
