19
gdb 68905	2.62892	1.51366	1.16788	4.3834	75.36	-0.2625	0.013	0.2755	1112.1262	0.158297	-423.074109	-423.065533	-423.064589	-423.106874	33.138	
C	-0.0894790625	 1.524590777	 0.006981104	-0.482276
C	 0.0129786692	 0.0183088903	-0.0205732612	 0.265076
C	 1.3465879584	-0.659787732	-0.3130197865	-0.387426
C	 0.7105756734	-0.8005699444	 1.0432936566	 0.392576
C	 1.3177625534	-0.307089803	 2.3237693401	-0.468708
O	-0.0059266644	-2.0201331243	 1.2260631906	-0.249507
C	-1.0962560961	-2.0877539893	 0.4078212162	 0.411366
O	-1.8089057904	-3.0467932338	 0.372353894	-0.33085
C	-1.2133909086	-0.790784357	-0.3950435439	-0.43615
H	 0.8238964202	 1.9851607792	 0.394276822	 0.120999
H	-0.2536443761	 1.9224181005	-1.0007766126	 0.127873
H	-0.9246280429	 1.8551453311	 0.6350170381	 0.122689
H	 1.3703865433	-1.5337651997	-0.9570540658	 0.123154
H	 2.2154316926	-0.0145201404	-0.3938294846	 0.11771
H	 1.8409695289	 0.6385878146	 2.1626757154	 0.124168
H	 0.548001097	-0.1534075043	 3.0865250995	 0.13132
H	 2.0405721059	-1.0321834289	 2.7105789763	 0.138999
H	-2.1415070203	-0.2867087106	-0.102693668	 0.13765
H	-1.2991674711	-1.0299407249	-1.4590722402	 0.141336
110.5431	183.6647	190.6236	205.2535	228.4128	304.4907	354.516	416.8789	465.8624	503.7602	553.1348	582.114	610.5017	725.4722	748.6567	847.5538	903.5955	918.4056	945.9574	977.6274	994.7552	1008.6843	1048.2515	1100.5311	1109.6209	1150.9959	1188.5337	1232.2217	1237.0248	1258.6626	1346.0038	1395.7342	1417.8916	1429.2434	1460.5123	1476.9196	1488.0638	1493.1214	1495.8896	1512.3132	1884.5448	3027.5428	3042.4376	3051.2864	3087.0506	3094.3889	3105.7633	3107.6139	3122.243	3127.0862	3212.3374
CC12CC1(C)OC(=O)C2	C[C@@]12C[C@]1(C)OC(=O)C2	
InChI=1S/C7H10O2/c1-6-3-5(8)9-7(6,2)4-6/h3-4H2,1-2H3	InChI=1S/C7H10O2/c1-6-3-5(8)9-7(6,2)4-6/h3-4H2,1-2H3/t6-,7+/m1/s1
