23
gdb 100540	2.00329	1.21885	1.01462	1.633	82.43	-0.2302	-0.0196	0.2106	1371.5886	0.201939	-425.443232	-425.431707	-425.430762	-425.480436	40.56	
C	 0.7130177274	 1.0245709849	-2.3933319395	-0.246946
O	 0.1323288528	 0.3837333339	-1.275427767	-0.236607
C	 0.9850113629	-0.559148675	-0.6517201779	 0.03458
C	 0.4378825212	-0.8149987748	 0.7528695784	-0.417251
C	 1.0769870278	-1.883905431	-1.43683749	 0.366571
O	 2.1384567129	-2.4573641554	-1.5365207877	-0.331444
C	-0.2093235056	-2.4676241605	-2.0292943517	-0.058696
C	-0.0254201641	-2.7060363541	-3.537313984	-0.394269
C	-0.5370130573	-3.787722137	-1.3060499518	-0.38732
H	 1.6235502672	 1.5743179623	-2.1120981188	 0.114413
H	 0.9748706112	 0.3174034832	-3.1939201639	 0.116604
H	-0.0255438646	 1.7318769579	-2.7773996962	 0.130829
H	 2.0109471367	-0.1681244298	-0.584299933	 0.085282
H	 1.0675236206	-1.5335497425	 1.2842569339	 0.134136
H	 0.4182528347	 0.1234040008	 1.3130702594	 0.130352
H	-0.5833942244	-1.2039375767	 0.7061893949	 0.132943
H	-1.0208589625	-1.7514911893	-1.8709653237	 0.092643
H	 0.8376292033	-3.3547020906	-3.7118648251	 0.137528
H	-0.9142879026	-3.1861452467	-3.958066212	 0.113061
H	 0.1376422945	-1.7702280604	-4.08108583	 0.117181
H	-0.7121391174	-3.6352755204	-0.2365182996	 0.115626
H	-1.4373283272	-4.2404874458	-1.7329153971	 0.114345
H	 0.2926949221	-4.4919398329	-1.4162541678	 0.136441
40.1214	55.4718	117.3846	162.2992	189.1569	205.4752	216.2927	233.3402	244.0973	259.7791	282.003	296.8523	389.8635	457.6956	516.7993	610.5488	718.0592	758.2421	873.865	887.9198	936.9303	972.0526	974.5376	1047.0708	1109.6497	1110.8484	1129.45	1143.8264	1170.6167	1184.9772	1203.0654	1238.2978	1320.6751	1350.0644	1362.9049	1372.071	1390.1188	1401.4241	1414.6107	1480.4917	1482.5513	1485.7227	1488.4222	1491.0653	1496.8646	1503.7868	1509.5702	1512.9014	1802.767	2983.9409	3002.9099	3033.6338	3036.2716	3039.0111	3047.3601	3070.1356	3104.0899	3106.5094	3117.04	3120.3017	3123.1078	3124.2893	3129.963
COC(C)C(=O)C(C)C	CO[C@@H](C)C(=O)C(C)C	
InChI=1S/C7H14O2/c1-5(2)7(8)6(3)9-4/h5-6H,1-4H3	InChI=1S/C7H14O2/c1-5(2)7(8)6(3)9-4/h5-6H,1-4H3/t6-/m0/s1
