16
gdb 117743	2.14334	1.27404	1.07094	4.5841	65.62	-0.2758	-0.0566	0.2192	1182.5608	0.121345	-475.029009	-475.019383	-475.018438	-475.063977	33.984	
O	 0.3226549643	 0.3631137349	 0.8119129895	-0.414794
C	-0.1666726492	 0.2448846235	-0.5319281555	-0.112723
C	-1.4888236573	-0.5191514048	-0.6070870766	-0.250883
C	-1.396142502	-1.9388234388	-0.015481561	 0.137035
O	-1.0964377319	-1.9471200591	 1.3619309948	-0.454115
C	-2.7545377163	-2.67609589	-0.1277648368	 0.151257
O	-3.5879372279	-2.421457387	-0.949142027	-0.231878
C	-0.4058734181	-2.7479227665	-0.7726339657	 0.256779
N	 0.3631393765	-3.3821337379	-1.3584467944	-0.33205
H	-0.2055203752	 1.0281581157	 1.2669271936	 0.298043
H	-0.2772060469	 1.2348783783	-0.9908015787	 0.115765
H	 0.6152395849	-0.2891786003	-1.079870399	 0.152692
H	-2.2690559348	 0.0123235225	-0.0500302221	 0.116725
H	-1.825566142	-0.5877866347	-1.6457909056	 0.144764
H	-0.3956164176	-1.2845343257	 1.4929756446	 0.300205
H	-2.8774328663	-3.4530737903	 0.6533073001	 0.123178
57.3407	80.0359	146.0442	179.1572	189.5722	228.1021	286.9944	330.2963	363.5075	391.4697	478.848	500.6287	596.271	648.876	670.0949	694.7835	865.4885	905.9137	955.5685	1008.8208	1040.4759	1075.6523	1093.5224	1159.4586	1213.7036	1269.0127	1361.2179	1384.6938	1393.0828	1413.068	1450.5722	1460.983	1504.6299	1850.3938	2342.2999	2944.526	3033.0442	3047.9214	3097.0911	3108.3832	3631.409	3811.4627
OCCC(O)(C=O)C#N	OCC[C@@](O)(C=O)C#N	
InChI=1S/C5H7NO3/c6-3-5(9,4-8)1-2-7/h4,7,9H,1-2H2	InChI=1S/C5H7NO3/c6-3-5(9,4-8)1-2-7/h4,7,9H,1-2H2/t5-/m0/s1
