18
gdb 19369	4.0406	1.6224	1.4358	1.4228	70.84	-0.212	0.0733	0.2853	927.122	0.154085	-347.724452	-347.717126	-347.716182	-347.755911	28.98	
O	 0.1579950645	 1.3696702987	 0.1163547938	-0.41592
C	 0.0315514884	-0.0328712355	-0.0924988912	-0.165915
C	-1.3896675233	-0.4997332764	-0.0486788189	 0.329806
C	-2.070123029	-0.9649211516	 1.2180109766	-0.362571
C	-1.9348213845	-1.9152639803	 0.0568922089	-0.119006
C	-2.9080531208	-1.6317792276	-1.1214145251	-0.049025
C	-3.8299375586	-0.4655324757	-0.8938653933	-0.303496
C	-2.3824160876	-0.2083946073	-1.2139529141	-0.102189
H	-0.3042094573	 1.575966077	 0.9357681326	 0.279897
H	 0.4660266419	-0.2148822487	-1.0825616528	 0.10752
H	 0.6283807229	-0.605710478	 0.6364124709	 0.081423
H	-1.3839210078	-1.1755782077	 2.0345723494	 0.109559
H	-3.0264547179	-0.5802299477	 1.554093487	 0.113627
H	-1.3733027547	-2.8374183657	 0.1409123883	 0.090626
H	-3.0668967798	-2.3425185983	-1.9219593181	 0.089062
H	-4.5013323189	-0.2696996181	-1.7251651047	 0.11295
H	-4.2735115172	-0.2418494283	 0.0702186452	 0.110266
H	-2.0758848302	 0.3453861312	-2.0920818946	 0.093386
91.9777	139.2123	274.1636	306.0522	361.1951	405.0964	440.586	515.2273	664.4	702.8206	762.4964	808.1865	854.7267	885.1129	907.7716	933.7309	945.3241	972.9202	987.3213	1029.884	1033.1892	1052.1019	1056.6812	1068.7624	1095.2587	1106.9041	1177.1874	1182.8147	1247.7445	1259.7764	1301.9914	1322.9059	1363.7651	1397.5817	1428.9628	1480.127	1501.2712	1515.1671	2967.0557	3055.0161	3118.6061	3131.0012	3182.6195	3189.8506	3195.1134	3200.5626	3207.6137	3807.8587
OCC12CC1C1CC21	OC[C@]12C[C@H]1[C@H]1C[C@@H]21	
InChI=1S/C7H10O/c8-3-7-2-6(7)4-1-5(4)7/h4-6,8H,1-3H2	InChI=1S/C7H10O/c8-3-7-2-6(7)4-1-5(4)7/h4-6,8H,1-3H2/t4-,5+,6-,7-/m0/s1
