17
gdb 33924	3.50095	1.35842	1.16263	2.0677	79.54	-0.2407	-0.0072	0.2335	1074.0437	0.136687	-380.813078	-380.805324	-380.80438	-380.845054	30.45	
C	-0.0152326692	-1.160319203	 0.0767620144	-0.369564
C	 0.0049918124	 0.0389642887	 0.001804578	 0.242559
C	-0.0341947757	 1.47951898	-0.0807969376	 0.112298
C	 0.5618801661	 2.1332822398	-1.281777229	-0.275883
N	 1.3026010189	 2.1342550486	-0.0021235772	-0.157344
C	 1.3254157726	 3.3870525764	 0.6872471317	 0.050106
N	 0.3628651227	 4.0941447512	 1.1070326897	-0.194904
C	-0.999329563	 3.6501304815	 0.8224034419	-0.184138
C	-1.168092977	 2.1294188576	 0.6997228468	-0.290184
H	-0.0145565574	-2.2203601857	 0.1410084165	 0.195014
H	 0.9989586819	 1.5170049555	-2.0606284905	 0.134659
H	 0.1357634042	 3.0750583947	-1.6158677272	 0.130935
H	 2.3443426386	 3.7314889941	 0.8675439401	 0.122425
H	-1.6516368724	 4.0269693921	 1.6164582721	 0.117949
H	-1.3292544395	 4.1536561095	-0.0959569752	 0.11911
H	-2.1319652367	 1.8797778887	 0.2443889987	 0.119111
H	-1.1673153963	 1.6855725305	 1.701180227	 0.12785
121.5762	149.7751	187.8038	270.9856	341.7126	416.0443	471.2296	515.9488	548.9744	583.4674	623.8797	653.4576	660.7025	755.9528	772.8214	855.6636	894.8254	908.7145	973.1025	987.27	1023.8297	1075.4433	1081.276	1128.8678	1149.8836	1224.1563	1238.6841	1272.6241	1316.6842	1378.3354	1383.9186	1404.1665	1486.1627	1487.488	1513.6935	1716.7415	2241.6566	3022.9618	3044.0055	3068.2582	3086.3654	3118.0059	3127.2307	3211.9716	3502.4634
C#CC12CN1C=NCC2	C#C[C@]12CN1C=NCC2	
InChI=1S/C7H8N2/c1-2-7-3-4-8-6-9(7)5-7/h1,6H,3-5H2	InChI=1S/C7H8N2/c1-2-7-3-4-8-6-9(7)5-7/h1,6H,3-5H2/t7-,9?/m0/s1
