18
gdb 6588	4.07504	1.81771	1.59394	1.2012	67.49	-0.2382	0.0633	0.3015	863.2413	0.153631	-384.924622	-384.917269	-384.916325	-384.955467	29.683	
C	-0.0827396169	 1.5004464492	 0.003632515	-0.484622
C	 0.0904631232	 0.0103155105	 0.0427439205	 0.435023
C	 1.0424047487	-0.7989459123	-0.8833657296	-0.297288
C	 0.6965973174	-1.9086521237	 0.1407652145	 0.353726
O	 1.4727605603	-3.0598810855	 0.188594652	-0.47885
C	 0.6963595112	-0.7843012783	 1.2313309461	-0.332227
C	-0.8186076414	-2.0404688934	-0.1083337602	-0.131033
O	-1.185518043	-0.6530755225	-0.1598872407	-0.306909
H	 0.8755481921	 2.0044921672	 0.1562534861	 0.118025
H	-0.4909282439	 1.8123329749	-0.9628017752	 0.128412
H	-0.7757830643	 1.8252408197	 0.7859268306	 0.127682
H	 0.736404123	-0.9384832333	-1.9227811515	 0.099224
H	 2.0839888633	-0.4808613128	-0.8139949236	 0.104382
H	 1.1367288867	-3.6277106184	 0.8910736246	 0.282251
H	 1.7063399701	-0.4666919387	 1.4959291345	 0.102566
H	 0.0694861972	-0.9093019327	 2.1183454114	 0.091212
H	-1.0499773206	-2.5448189591	-1.0543666024	 0.102091
H	-1.3482428832	-2.5506196806	 0.708254938	 0.086335
199.6325	233.8424	251.6388	279.4791	312.7461	384.6598	446.9909	480.9791	525.0801	592.7986	601.9309	688.4976	801.1147	862.5875	888.5996	918.8565	948.8816	989.6484	1002.9744	1018.2666	1041.8965	1104.6815	1129.151	1146.0738	1176.8779	1185.5519	1201.0321	1223.4384	1281.608	1336.0857	1354.1648	1391.0313	1421.0547	1470.9713	1479.661	1493.2151	1507.6376	1535.4277	3002.9931	3040.6474	3051.5337	3060.0664	3071.0404	3109.9945	3119.0989	3132.1954	3140.5686	3799.2946
CC12CC(O)(C1)CO2	C[C@@]12C[C@@](O)(C1)CO2	
InChI=1S/C6H10O2/c1-5-2-6(7,3-5)4-8-5/h7H,2-4H2,1H3	InChI=1S/C6H10O2/c1-5-2-6(7,3-5)4-8-5/h7H,2-4H2,1H3/t5-,6-
