21
gdb 107758	3.46898	1.4081	1.35738	1.2378	80.03	-0.2283	0.0836	0.3119	1065.1397	0.184792	-387.10091	-387.093378	-387.092434	-387.132651	31.15	
C	-0.0128744263	 1.5338316267	 0.0527863856	-0.387253
C	-0.0689971796	 0.0023756215	 0.0325832414	-0.274726
C	-1.4677171747	-0.5699738014	-0.0515609933	 0.382505
C	-2.394369389	-0.1886135656	-1.2389568539	-0.259241
C	-3.6340930705	-0.8910966427	-0.7049789246	-0.113648
C	-3.1463263444	-2.1170328364	 0.0755188505	-0.117674
C	-1.6275316982	-2.1133456784	-0.0138138595	-0.258573
C	-3.4681597389	-0.8284024627	 0.7954427715	 0.093575
O	-2.2583953278	-0.1613321745	 1.0901136495	-0.294185
H	 1.0143950656	 1.8804289987	 0.1996429449	 0.108778
H	-0.3753879751	 1.9641899107	-0.8860740324	 0.114416
H	-0.6283145331	 1.9297107098	 0.8646550919	 0.137281
H	 0.5111394623	-0.3866248696	-0.8131426282	 0.096909
H	 0.4015728762	-0.3931439776	 0.9407801649	 0.105411
H	-2.5280716682	 0.8925677326	-1.328452805	 0.10316
H	-2.0345633102	-0.5905790314	-2.1906644016	 0.096916
H	-4.5997090984	-0.8542174693	-1.1908416629	 0.085211
H	-3.7395135635	-3.0149186179	 0.183570778	 0.085781
H	-1.2363134087	-2.5947872307	-0.9147996823	 0.09669
H	-1.1463743271	-2.5469243719	 0.8681416096	 0.100278
H	-4.2579571202	-0.6817205898	 1.518344066	 0.098388
95.8229	180.3594	216.6342	305.9489	368.2727	439.3823	451.2571	559.7099	617.5396	676.4037	714.6013	769.424	793.9525	807.183	811.7497	888.3048	898.0514	969.5837	972.9264	979.7598	986.5024	997.0731	1037.2151	1040.9194	1054.8203	1073.204	1087.731	1130.1664	1134.7114	1169.0824	1199.0756	1205.9951	1257.245	1282.3228	1291.6728	1322.0348	1347.0241	1381.6922	1401.8729	1412.5272	1473.8502	1478.5338	1496.5276	1500.15	1510.5348	3029.1921	3043.068	3051.2227	3059.4928	3063.2873	3102.0097	3106.1729	3111.1035	3125.5786	3202.1853	3207.6325	3223.9101
CCC12CC3C(C1)C3O2	CC[C@@]12C[C@H]3[C@@H](C1)[C@H]3O2	
InChI=1S/C8H12O/c1-2-8-3-5-6(4-8)7(5)9-8/h5-7H,2-4H2,1H3	InChI=1S/C8H12O/c1-2-8-3-5-6(4-8)7(5)9-8/h5-7H,2-4H2,1H3/t5-,6+,7-,8+
