21
gdb 119658	3.66734	1.12322	1.00275	1.0164	83.81	-0.2442	0.0983	0.3425	1287.707	0.182264	-387.013634	-387.005258	-387.004314	-387.047155	32.35	
C	 0.0598448862	 1.4786015309	-0.0715357993	-0.386284
C	 0.0406513078	-0.03742224	 0.0145204785	-0.064989
O	 0.597165543	-0.5586408238	-1.1868656513	-0.306402
C	 0.6370955215	-1.9308673295	-1.2480035857	 0.467171
C	-0.526114122	-2.9495282277	-1.2641670539	-0.3309
C	 0.7587085098	-3.7867514218	-1.4361956146	-0.049266
C	 1.4563836153	-2.7001661235	-2.327077001	-0.097652
C	 2.7354091609	-2.7091188806	-1.4644974303	-0.268463
C	 1.5928518022	-2.9061136376	-0.446775595	-0.108947
H	 1.0838024404	 1.8433179662	-0.1925128478	 0.127316
H	-0.528718816	 1.8212631618	-0.9272460163	 0.12777
H	-0.3608109521	 1.9171386949	 0.8383386427	 0.114401
H	 0.6249722619	-0.3874761681	 0.8790693891	 0.093321
H	-0.9882505953	-0.4057643706	 0.1430319226	 0.095814
H	-1.0836585252	-3.0952765236	-0.3332538118	 0.09018
H	-1.2042503869	-2.9056124075	-2.122650116	 0.093372
H	 0.8579893995	-4.8632196268	-1.5574399997	 0.077983
H	 1.342175163	-2.5897373108	-3.4065117849	 0.070851
H	 3.4172726046	-3.5534300472	-1.6065027168	 0.088115
H	 3.2907744699	-1.7690909483	-1.4048380243	 0.100048
H	 1.6389179218	-3.0352302166	 0.635795606	 0.066563
63.5	76.7693	150.1097	241.0252	295.6699	344.2779	361.4753	448.1377	480.1666	668.0425	735.7391	776.9451	819.4255	861.2505	864.2128	888.6243	895.5375	919.7306	937.6155	981.5724	993.6555	1024.3005	1054.8789	1080.0721	1088.1227	1106.3171	1118.5445	1140.2562	1153.9267	1162.7328	1187.4909	1188.9055	1215.5536	1239.8816	1249.1159	1282.7334	1296.2961	1339.8373	1401.5629	1431.5199	1483.6208	1500.015	1506.3561	1509.6525	1527.994	2981.8221	3013.3114	3036.8851	3045.0392	3045.6376	3095.9814	3098.5991	3104.1046	3105.509	3119.4799	3122.5621	3142.3809
CCOC12CC3C1CC23	CCO[C@@]12C[C@H]3[C@@H]1C[C@@H]23	
InChI=1S/C8H12O/c1-2-9-8-4-5-6(8)3-7(5)8/h5-7H,2-4H2,1H3	InChI=1S/C8H12O/c1-2-9-8-4-5-6(8)3-7(5)8/h5-7H,2-4H2,1H3/t5-,6-,7+,8-
