18
gdb 78571	2.33262	1.84584	1.29341	3.0696	76.58	-0.2102	0.0054	0.2155	1034.9968	0.146776	-401.901126	-401.892988	-401.892044	-401.933501	31.322	
C	 0.0283593056	 1.5655152389	-0.0027867453	-0.335375
N	 0.049939119	 0.1065375619	-0.0141651891	-0.082985
C	 0.7490198071	-0.5739981599	-1.1058575465	-0.083157
C	 2.2737880297	-0.5774305356	-0.8332128062	-0.258223
C	 2.420592368	-0.0482670019	 0.5526284079	 0.430951
O	 3.3440980321	 0.3500358108	 1.2083653551	-0.347055
C	 0.9998081587	-0.5719711888	 0.9089692835	-0.202793
C	 1.286422164	-1.6356814724	-0.2278755089	 0.317465
C	 1.339271301	-3.1256019821	-0.2417993995	-0.525929
H	 1.0197876264	 2.0301678502	-0.1300331688	 0.115608
H	-0.6246808742	 1.917964624	-0.8072601814	 0.123159
H	-0.3913658625	 1.9084161609	 0.9478759257	 0.128214
H	 0.3659714388	-0.6301044226	-2.1188954017	 0.107129
H	 3.0226175308	-0.7295000087	-1.5982614982	 0.109905
H	 0.6916970605	-0.7442114947	 1.9385273387	 0.09153
H	 0.3757059106	-3.5535869509	 0.0542593099	 0.139276
H	 1.5791036276	-3.4950501589	-1.2436818186	 0.133094
H	 2.1034303669	-3.5027344403	 0.4458182335	 0.139185
118.8633	170.8682	194.0849	223.6137	231.6992	303.1171	381.487	434.5409	544.038	600.0813	653.3143	669.6405	723.8798	781.3099	828.404	873.7635	910.3597	934.1658	978.8887	989.8839	1048.4719	1070.6589	1103.6835	1120.6842	1149.6211	1164.82	1176.5929	1197.6515	1204.301	1243.4148	1309.9932	1413.1388	1448.0943	1462.5773	1484.739	1488.6329	1494.6158	1499.5978	1868.3917	2974.1257	3032.9077	3071.6914	3097.7566	3105.7929	3109.8123	3142.4011	3175.6792	3221.311
CN1C2C3C(=O)C1C23C	CN1[C@H]2[C@H]3C(=O)[C@@H]1[C@@]23C	
InChI=1S/C7H9NO/c1-7-3-4(9)6(7)8(2)5(3)7/h3,5-6H,1-2H3	InChI=1S/C7H9NO/c1-7-3-4(9)6(7)8(2)5(3)7/h3,5-6H,1-2H3/t3-,5+,6-,7-/m1/s1
