19
gdb 116143	2.60177	1.28133	0.90058	3.4651	74.13	-0.2286	0.0452	0.2738	1277.6127	0.161529	-456.368866	-456.360248	-456.359304	-456.402154	33.005	
N	-0.0843800193	 1.3237924432	 0.1082863339	-0.554993
C	-0.1403624942	-0.0510845526	 0.0650000548	 0.460914
N	-1.2431864531	-0.6828409298	 0.0014940617	-0.377588
C	-1.2377983678	-2.1427657344	-0.0320580579	 0.03416
C	-2.3774516316	-2.56877402	-0.9680581576	-0.052183
O	-3.5893751342	-1.9574687053	-0.5913453093	-0.427278
C	 0.1220488507	-2.7092551067	-0.4449168173	-0.243474
C	 1.2082035973	-1.9800562896	 0.3329352978	-0.080643
O	 1.1171753228	-0.5608887463	 0.1385225153	-0.260577
H	 0.7897960663	 1.7274470607	-0.1902156443	 0.257838
H	-0.9120460501	 1.7782298182	-0.2436438936	 0.26051
H	-1.4946464104	-2.5114264953	 0.9730264465	 0.081994
H	-2.0975748105	-2.3095679321	-2.0046450357	 0.072176
H	-2.5236987441	-3.6542877177	-0.9224582996	 0.093491
H	-3.3401855645	-1.0444997676	-0.3848732396	 0.285197
H	 0.1842352926	-3.7844447024	-0.2473515211	 0.107054
H	 0.2822685698	-2.5577551767	-1.519432005	 0.109306
H	 1.1261900041	-2.1900195953	 1.407281469	 0.115877
H	 2.2138139763	-2.2530541005	 0.005064412	 0.118217
93.6493	131.4633	164.7881	203.4924	263.4717	357.2218	387.9285	443.5348	473.8078	521.9501	541.5804	543.833	551.2691	668.1341	736.7005	822.1939	887.0535	919.1723	959.312	978.2761	1040.3012	1089.6534	1099.2594	1128.627	1147.9936	1212.5295	1222.9961	1247.6312	1268.7775	1311.2141	1342.2854	1367.7454	1377.5696	1387.6686	1427.7886	1453.9887	1476.9485	1507.2566	1515.306	1616.9278	1754.6869	2944.3624	2983.3238	3024.6166	3035.3368	3057.5337	3086.4209	3103.6964	3590.6396	3708.6704	3722.3985
NC1=NC(CO)CCO1	NC1=N[C@@H](CO)CCO1	
InChI=1S/C5H10N2O2/c6-5-7-4(3-8)1-2-9-5/h4,8H,1-3H2,(H2,6,7)	InChI=1S/C5H10N2O2/c6-5-7-4(3-8)1-2-9-5/h4,8H,1-3H2,(H2,6,7)/t4-/m1/s1
