20
gdb 102719	3.16517	0.91489	0.7493	5.4151	79.82	-0.2736	0.0357	0.3093	1544.8995	0.16946	-403.145596	-403.135652	-403.134708	-403.181542	35.069	
C	-0.1524235966	 1.5641213365	-0.0187223466	-0.399918
C	 0.0527211258	 0.0487777671	 0.0116440744	-0.181981
C	 0.737712553	-0.5175110192	-1.2554524642	-0.141824
C	 1.018471832	-2.0326501051	-1.1250164219	-0.231486
C	 1.8704618667	-2.5984188089	-2.2356669914	 0.086227
C	 1.7594544691	-3.999341497	-2.6602117766	-0.181475
O	 1.2109200487	-2.9458009076	-3.4519448125	-0.213198
C	-0.0684159981	-0.2152961101	-2.4446132534	 0.30277
N	-0.729172018	 0.0567615119	-3.3530081951	-0.332666
H	 0.8028805769	 2.0916608858	-0.1155165402	 0.117993
H	-0.786932329	 1.8616356623	-0.858502396	 0.149019
H	-0.6301763717	 1.9063932807	 0.9036465974	 0.121162
H	 0.6769096602	-0.2274981359	 0.8694824777	 0.103829
H	-0.9093795133	-0.4590324214	 0.1459123238	 0.118241
H	 1.6988638731	 0.0002079452	-1.3833175849	 0.122512
H	 1.5356623356	-2.1900038322	-0.1702323036	 0.111149
H	 0.0717693118	-2.580799903	-1.0805152655	 0.122825
H	 2.8321212299	-2.1009045057	-2.3820494484	 0.092812
H	 2.6240166501	-4.5062700074	-3.085960065	 0.118276
H	 1.0307941537	-4.6498802661	-2.1777448181	 0.115733
44.1123	73.3882	99.7314	142.4428	164.0316	216.7717	262.3009	292.3593	323.9703	425.7874	448.3311	553.7682	603.88	757.5808	792.5783	834.2407	870.1945	908.2106	952.0238	988.7215	1032.7816	1048.5279	1074.1877	1105.1831	1132.7747	1150.4494	1160.7422	1169.4588	1233.6259	1273.4619	1296.0757	1299.417	1349.2617	1366.7906	1377.7593	1417.7167	1449.1846	1466.1574	1487.2669	1499.2514	1507.0777	1530.5597	2356.1293	3013.4771	3030.9762	3036.2152	3038.6146	3072.3723	3077.6041	3083.6842	3095.2215	3107.5852	3120.4071	3169.824
CCC(CC1CO1)C#N	CC[C@@H](C[C@H]1CO1)C#N	
InChI=1S/C7H11NO/c1-2-6(4-8)3-7-5-9-7/h6-7H,2-3,5H2,1H3	InChI=1S/C7H11NO/c1-2-6(4-8)3-7-5-9-7/h6-7H,2-3,5H2,1H3/t6-,7-/m0/s1
