15
gdb 30401	4.06576	1.19789	0.93099	4.8014	76.08	-0.2257	-0.0294	0.1963	1206.1924	0.113496	-450.161089	-450.152873	-450.151929	-450.194181	29.988	
C	 0.0493095485	 1.4422157032	-0.0465732211	-0.325698
N	 0.1635422733	 0.0005696382	-0.0660609133	-0.289911
C	 0.6369713064	-0.6201621314	 0.9350973804	 0.381733
N	 1.0779469771	 0.0360929963	 2.1254821853	-0.286701
C	 1.5386615479	-0.676022078	 3.0564605056	 0.114569
O	 1.6701583961	-2.0413164026	 3.0487517819	-0.222138
C	 1.2260025868	-2.6305095013	 1.8828118966	 0.484795
N	 1.4289850626	-3.9724684897	 1.9253576076	-0.566867
N	 0.729188303	-2.0181370269	 0.883827325	-0.35375
H	 0.6205795927	 1.8529020568	-0.8885262239	 0.120431
H	-0.9981965621	 1.7156330877	-0.2246468735	 0.119837
H	 0.3892988423	 1.9183875504	 0.8795212605	 0.122704
H	 1.895230484	-0.2698643731	 3.9991164113	 0.14849
H	 1.5326525178	-4.4037721751	 2.8288910009	 0.271284
H	 0.9658677537	-4.5022782845	 1.2049167066	 0.281223
71.9631	121.6519	152.1488	243.2163	291.1578	363.3801	388.8153	415.2478	487.6605	506.5581	565.9055	638.205	720.2852	772.1891	789.9332	873.6786	933.0281	955.448	1044.9598	1055.3401	1131.335	1152.2326	1173.4354	1292.7775	1369.7245	1411.8421	1431.818	1489.532	1494.4516	1604.2806	1682.7118	1729.535	1791.1176	3010.4247	3060.7896	3086.9647	3181.3764	3604.1718	3729.7822
CN=C1N=COC(N)=N1	C[N]C1=N[C@H](OC=N1)N	
InChI=1S/C4H6N4O/c1-6-4-7-2-9-3(5)8-4/h2H,1H3,(H2,5,6,8)	InChI=1S/C4H7N4O/c1-6-4-7-2-9-3(5)8-4/h2-3H,5H2,1H3/t3-/m1/s1
