18
gdb 36804	8.89172	0.50226	0.49276	4.15	74.64	-0.2763	0.0308	0.3072	2129.3273	0.145857	-439.06179	-439.052143	-439.051199	-439.098139	32.713	
N	-0.0706697208	-1.0930734352	-0.2122604313	-0.300686
C	-0.0200937578	 0.0606979455	-0.1808251425	 0.247257
C	 0.0694357856	 1.516479707	-0.1368937897	-0.339654
C	 1.5154330962	 1.9993102086	 0.0307519147	-0.048323
O	 1.4704563156	 3.4038679009	 0.0674121329	-0.249089
C	 2.7436155114	 4.0017598118	 0.2145259002	-0.082334
C	 2.5682705108	 5.4942696464	 0.2334850807	 0.081037
C	 3.6519425706	 6.3897426378	-0.1861125531	-0.18067
O	 2.5268707366	 6.1542647465	-1.0311456023	-0.224158
H	-0.3474270545	 1.9362089196	-1.0581431557	 0.167241
H	-0.5368339032	 1.8936561038	 0.6931791755	 0.163113
H	 1.9473462665	 1.588922685	 0.9574346384	 0.110304
H	 2.1327289832	 1.6417485447	-0.8080397769	 0.114102
H	 3.2163370668	 3.6685540269	 1.1545302815	 0.096869
H	 3.4079703182	 3.7215951492	-0.6177462067	 0.102933
H	 1.8372132712	 5.8583075368	 0.9557573159	 0.104002
H	 3.7209094374	 7.3871457465	 0.2447831037	 0.121499
H	 4.5949598764	 5.9700900981	-0.5352095353	 0.116555
38.9312	63.0146	86.0703	113.3347	145.636	177.1148	298.2584	328.4843	399.1708	449.4967	484.7017	566.3928	797.8826	807.8536	871.95	939.8328	960.516	994.5407	1031.5656	1064.7087	1093.1679	1108.9786	1149.2292	1160.2334	1168.7691	1177.0266	1229.6369	1272.9258	1293.5753	1301.859	1304.1011	1368.6679	1424.8128	1469.4649	1471.3603	1497.3577	1530.2486	1534.2288	2367.0109	2958.2116	2976.7592	3006.1293	3009.6893	3058.2408	3084.2263	3101.5914	3116.2759	3170.7989
N#CCCOCC1CO1	N#CCCOC[C@H]1CO1	
InChI=1S/C6H9NO2/c7-2-1-3-8-4-6-5-9-6/h6H,1,3-5H2	InChI=1S/C6H9NO2/c7-2-1-3-8-4-6-5-9-6/h6H,1,3-5H2/t6-/m0/s1
