14
gdb 8779	3.83284	1.37626	1.01995	4.9256	64.06	-0.2416	-0.1024	0.1392	1085.3278	0.104432	-415.873269	-415.864332	-415.863388	-415.907588	30.171	
C	-0.0645802505	 1.3416476293	 0.1003120356	-0.346477
N	-0.0727920771	-0.1052071901	 0.0013116499	-0.274366
C	 0.6175641864	-0.6354309381	-0.9429605524	 0.284214
N	 1.4025634616	-0.0268386332	-1.8759453735	-0.553485
C	 0.5976633942	-2.1344163864	-1.0621704812	 0.260059
O	 1.1671945366	-2.7001421269	-1.9670103731	-0.292077
C	-0.1847631124	-2.9294052909	 0.0066573251	 0.08602
O	-0.2986308827	-4.1219210472	-0.0917101309	-0.218565
H	 0.9540681781	 1.7367151954	 0.2377031222	 0.125665
H	-0.4818995999	 1.8198256717	-0.8008157294	 0.11839
H	-0.669523047	 1.6556496833	 0.9531937774	 0.135497
H	 1.3185529488	 0.9585055048	-2.0528375681	 0.264982
H	 1.7469182225	-0.6165157334	-2.6185213068	 0.277044
H	-0.6101521787	-2.3402246883	 0.8343027451	 0.133097
47.6389	75.9728	139.598	175.0916	201.6292	282.6129	293.2736	347.6629	395.8067	491.8659	497.7304	572.27	715.0494	726.9358	847.3357	985.1402	1016.151	1079.2279	1095.0176	1114.792	1200.9629	1359.4235	1400.4271	1429.4265	1488.6411	1500.1675	1604.1508	1710.0669	1788.1217	1822.7983	2967.5399	3015.1302	3019.0469	3114.5467	3592.1833	3726.8179
CN=C(N)C(=O)C=O	CN=C(N)C(=O)C=O	
InChI=1S/C4H6N2O2/c1-6-4(5)3(8)2-7/h2H,1H3,(H2,5,6)	InChI=1S/C4H6N2O2/c1-6-4(5)3(8)2-7/h2H,1H3,(H2,5,6)
