20
gdb 65308	2.82896	1.20247	1.06773	2.7448	81.65	-0.2536	-0.03	0.2236	1225.0123	0.169502	-403.130495	-403.121314	-403.12037	-403.164648	34.15	
C	-0.0804310395	 1.5749654847	 0.1154210772	-0.457371
C	-0.0309233316	 0.0681627699	 0.0607463484	 0.139925
N	 1.2683221769	-0.5505910807	-0.3296922045	-0.411131
C	 0.8011602844	-0.7395282358	 1.0227207733	 0.328248
C	 1.5134119082	-0.2079583526	 2.2741380057	-0.283869
C	 0.8803482004	-1.3819836437	 3.0779527762	-0.209889
C	 0.4410195045	-2.0528129645	 1.743283684	-0.314386
C	-1.2453821686	-0.6095402631	-0.4660912288	 0.115532
O	-2.2757455063	-0.0505631566	-0.7509495942	-0.260014
H	 0.8724510386	 1.9778709423	 0.4626115157	 0.127039
H	-0.2890951123	 1.9839920095	-0.8772523401	 0.134541
H	-0.8784618278	 1.9101201738	 0.7842858833	 0.129871
H	 1.1106467101	-1.3906558241	-0.8882041095	 0.229712
H	 2.600086098	-0.2841062597	 2.178233646	 0.116739
H	 1.2612076365	 0.8045208643	 2.5968103225	 0.110906
H	 1.5571334087	-1.9594950585	 3.7095128971	 0.107236
H	 0.0278723362	-1.0626522812	 3.6812223671	 0.112893
H	-0.5894416059	-2.4084999606	 1.6832487794	 0.113993
H	 1.107454981	-2.8689910454	 1.445061383	 0.110283
H	-1.1287510814	-1.7109940077	-0.6039430018	 0.059742
68.4855	102.1883	143.8669	163.4049	208.9136	262.2622	301.0591	405.3746	444.0132	457.5076	511.9718	579.5426	706.9489	761.425	780.6547	807.2486	877.3571	939.0362	939.3973	974.3329	984.1269	1009.419	1043.5728	1095.6154	1100.7093	1128.437	1149.4285	1192.5774	1223.1316	1246.637	1250.8635	1271.1307	1280.1576	1339.1777	1403.008	1411.3305	1450.3546	1470.9424	1479.9524	1483.71	1492.7285	1506.2762	1812.5314	2846.4577	3050.161	3050.9077	3062.8439	3075.8568	3105.8144	3112.799	3116.0668	3133.498	3141.2268	3446.4783
CC1(NC11CCC1)C=O	C[C@]1(NC21CCC2)C=O	
InChI=1S/C7H11NO/c1-6(5-9)7(8-6)3-2-4-7/h5,8H,2-4H2,1H3	InChI=1S/C7H11NO/c1-6(5-9)7(8-6)3-2-4-7/h5,8H,2-4H2,1H3/t6-/m0/s1
