16
gdb 125032	3.40686	1.27876	0.93759	5.9597	76.26	-0.2245	-0.0375	0.1871	1198.5728	0.124823	-434.103111	-434.094417	-434.093473	-434.136609	31.206	
C	-0.1581721741	 1.549261619	 0.0478388765	-0.519822
C	-0.0251371625	 0.0595826953	 0.0014727696	 0.112703
C	-0.0414906815	-0.7566528425	-1.1032917673	 0.328161
N	-0.2434241835	-0.4762798857	-2.4544581678	-0.609446
N	 0.1177391743	-2.0582398485	-0.6491253862	-0.078206
C	 0.0614430981	-3.2207784325	-1.4228127169	 0.182272
O	 0.2255323911	-4.3329445585	-1.0075692504	-0.269534
N	 0.263922914	-2.1036661434	 0.7148169754	-0.247573
C	 0.1624247556	-0.84749198	 1.0871865997	-0.032021
H	 0.4356976218	 1.9707232988	 0.8644080679	 0.138582
H	 0.1945560888	 2.01412484	-0.8802863183	 0.114692
H	-1.1948069205	 1.8734802318	 0.2007854036	 0.138188
H	 0.512623111	-0.7748984635	-3.0597079696	 0.260193
H	-0.4280481311	 0.5063224096	-2.607757491	 0.258674
H	-0.1682815363	-2.9775127774	-2.4746031924	 0.101817
H	 0.242680165	-0.5973969425	 2.1371352472	 0.12132
94.2351	96.3221	192.2559	211.8269	227.4309	273.235	286.9443	323.2148	397.4095	522.5865	647.1663	667.665	682.512	728.1008	765.7344	847.7603	907.7353	986.6457	1001.3831	1032.429	1062.9729	1154.8644	1211.915	1239.6731	1320.195	1379.6654	1411.4492	1436.965	1461.1437	1486.993	1496.804	1521.6369	1635.725	1677.1388	1841.8286	2991.65	3021.0699	3071.1235	3100.5735	3224.9639	3527.7201	3622.3785
CC1=C(N)N(C=O)N=C1	Cc1c(N)n(C=O)nc1	
InChI=1S/C5H7N3O/c1-4-2-7-8(3-9)5(4)6/h2-3H,6H2,1H3	InChI=1S/C5H7N3O/c1-4-2-7-8(3-9)5(4)6/h2-3H,6H2,1H3
