18
gdb 106722	2.50409	1.51415	1.20139	2.2249	71.83	-0.2404	0.0657	0.3061	1078.5128	0.14693	-439.004781	-438.996291	-438.995347	-439.037922	32.501	
O	 0.098275647	 1.3673908445	-0.4449889433	-0.414109
C	 0.0612213503	 0.0872718288	 0.1707654692	-0.167845
C	-1.3059792322	-0.5199574486	 0.1445005281	 0.270734
C	-1.9664320007	-1.1075853238	-1.0772724174	-0.392085
C	-1.846684125	-1.9444657931	 0.1773482904	 0.308081
O	-1.1629307551	-3.1451984097	 0.2333700763	-0.461223
C	-2.8552196505	-1.4693613193	 1.1924703751	-0.10037
C	-2.1880411071	-0.7771814504	 2.3195857942	-0.247314
N	-2.3711559857	-0.027713486	 1.0600677626	-0.165397
H	-0.5852446831	 1.9020129667	-0.02638013	 0.29209
H	 0.7579141062	-0.5459636468	-0.3872253974	 0.1193
H	 0.4256913504	 0.1387499885	 1.2093266203	 0.089021
H	-2.927933413	-0.7272870698	-1.4116791734	 0.116236
H	-1.2747134066	-1.3822293835	-1.8686316408	 0.119394
H	-1.5463657629	-3.7480827693	-0.4127685226	 0.289901
H	-3.9161203057	-1.7015150374	 1.1983048694	 0.096943
H	-2.8168806528	-0.4105410813	 3.1252935322	 0.121244
H	-1.1869369737	-1.0806831595	 2.615968777	 0.125398
65.0158	129.6509	213.821	248.6451	261.8618	295.0718	350.9333	408.5071	448.1624	554.4346	577.1946	610.23	744.529	768.7461	820.2125	847.3591	885.3084	935.339	962.5991	1002.5179	1027.0794	1049.4269	1056.2009	1075.3176	1111.1319	1122.7078	1147.5854	1183.6155	1217.6217	1256.909	1282.8487	1305.4452	1363.293	1377.4391	1408.6352	1432.2625	1492.8808	1494.2154	1503.3679	2975.658	3081.6278	3112.2556	3113.4822	3157.7563	3204.7901	3205.7419	3797.2559	3808.3195
OCC12CC1(O)C1CN21	OC[C@@]12C[C@]1(O)[C@H]1CN21	
InChI=1S/C6H9NO2/c8-3-5-2-6(5,9)4-1-7(4)5/h4,8-9H,1-3H2	InChI=1S/C6H9NO2/c8-3-5-2-6(5,9)4-1-7(4)5/h4,8-9H,1-3H2/t4-,5+,6+,7?/m1/s1
