18
gdb 36323	4.93771	0.7305	0.69129	3.5792	83.23	-0.2662	0.0284	0.2946	1598.3107	0.146896	-364.787808	-364.778783	-364.777839	-364.822351	33.22	
C	 0.1371103868	-1.2499150054	-0.076588649	-0.442507
C	 0.0673125576	-0.0493588437	-0.0548922253	 0.307036
C	 0.0040409097	 1.3956574853	-0.0045146536	-0.161657
C	-0.3094853467	 2.0889078814	 1.3619425787	-0.261579
C	 0.7292911433	 3.1821287321	 0.9980661305	 0.032796
C	 1.6263713253	 3.7124644855	 2.1214091608	-0.367072
C	 2.6486705044	 4.6358387459	 1.6302701551	 0.261418
N	 3.4473041828	 5.3623896678	 1.2182529109	-0.305773
C	 1.3368853135	 2.2128581864	-0.0499287824	-0.238001
H	 0.1937503671	-2.3098979605	-0.1031534906	 0.197179
H	-0.6830329637	 1.7670161461	-0.7721635506	 0.108584
H	-1.3407061246	 2.3974710033	 1.5439577147	 0.113556
H	 0.0301926181	 1.4682342158	 2.195988782	 0.115145
H	 0.2408493437	 4.0247085664	 0.4992841207	 0.097761
H	 1.0241078824	 4.2299101955	 2.8779558913	 0.153169
H	 2.124984165	 2.8785383653	 2.629896793	 0.149728
H	 2.1619339412	 1.6304220302	 0.3693543062	 0.118037
H	 1.6437099041	 2.6217367827	-1.0135865024	 0.12218
49.5091	72.851	137.0361	168.7235	235.879	312.5832	380.5329	397.9438	466.0837	511.3622	528.4819	609.5722	627.6204	632.9518	775.8556	816.9648	874.6436	927.2502	941.5387	945.591	1028.0594	1042.045	1065.0767	1108.4824	1127.8619	1176.4185	1233.7441	1244.1795	1261.2706	1264.9674	1289.26	1327.2981	1354.592	1390.4387	1464.9075	1477.1531	1500.5283	2234.7922	2361.4873	3035.1388	3049.4875	3058.48	3062.3408	3070.028	3078.8687	3123.1775	3132.6623	3504.2572
C#CC1CC(CC#N)C1	C#C[C@H]1C[C@@H](CC#N)C1	
InChI=1S/C8H9N/c1-2-7-5-8(6-7)3-4-9/h1,7-8H,3,5-6H2	InChI=1S/C8H9N/c1-2-7-5-8(6-7)3-4-9/h1,7-8H,3,5-6H2/t7-,8+
