21
gdb 87888	3.55908	1.03033	0.94695	1.2917	85.44	-0.2225	0.0377	0.2602	1344.0969	0.181954	-387.092889	-387.083813	-387.082869	-387.126744	34.969	
C	-0.2101859482	 1.5150834118	 0.0611617504	-0.490128
C	-0.035460685	 0.0312392951	-0.0142515138	 0.339097
C	-0.1163496233	-0.7413090236	-1.0991022465	-0.163006
C	 0.0948626122	-2.2053600305	-0.8100007718	-0.33993
C	 0.4836158892	-2.2058777555	 0.6763691633	 0.338623
C	 0.2944032666	-3.4328936696	 1.5424903695	-0.386814
C	 1.6788133401	-2.9969887733	 1.1333163191	 0.064097
O	 2.3767510065	-3.7221739093	 0.163123908	-0.418479
C	 0.244315939	-0.7933936234	 1.2256972577	-0.389008
H	 0.6887807665	 2.0024083477	 0.4606469857	 0.122121
H	-0.4217994595	 1.9470735134	-0.9208918364	 0.121257
H	-1.0333127914	 1.7850163412	 0.7358158793	 0.121098
H	-0.3285649189	-0.3745530009	-2.0984643113	 0.080062
H	-0.8199829743	-2.7864261266	-0.9967317849	 0.097832
H	 0.8786032695	-2.6565432284	-1.4280647997	 0.125855
H	-0.0101839586	-3.3027332811	 2.5768735419	 0.105006
H	-0.0998506657	-4.3223092883	 1.0594250545	 0.107875
H	 2.3107463219	-2.5392752438	 1.8965214195	 0.079344
H	 2.5985618853	-4.5818367323	 0.5348893819	 0.28756
H	 1.1070906177	-0.412478299	 1.7901059371	 0.097795
H	-0.6101131295	-0.7572477836	 1.9185833465	 0.099744
44.0849	161.7414	202.8132	208.7557	251.882	256.9904	300.5509	383.179	435.1309	454.144	466.5814	547.438	637.8081	791.1122	795.2393	831.4815	883.0428	883.7096	903.3997	957.6162	990.1097	1017.527	1022.7848	1037.2828	1042.8359	1080.4174	1097.0457	1169.3645	1174.0626	1184.107	1208.8218	1245.3532	1267.1442	1294.1181	1307.7279	1336.9504	1363.2885	1414.7893	1420.7775	1479.4755	1484.315	1485.3837	1491.0046	1496.6897	1730.1021	2988.1629	2998.0165	3013.1926	3016.906	3056.9054	3062.8154	3080.883	3107.5153	3113.5474	3180.1365	3202.3102	3810.1801
CC1=CCC2(CC2O)C1	CC1=CC[C@]2(C[C@H]2O)C1	
InChI=1S/C8H12O/c1-6-2-3-8(4-6)5-7(8)9/h2,7,9H,3-5H2,1H3	InChI=1S/C8H12O/c1-6-2-3-8(4-6)5-7(8)9/h2,7,9H,3-5H2,1H3/t7-,8-/m1/s1
