18
gdb 87307	1.85728	1.60888	1.05655	1.4502	84.29	-0.2344	0.0355	0.2699	1200.744	0.143649	-364.705461	-364.69567	-364.694726	-364.739918	36.425	
C	-0.2760957753	 1.4402356005	 0.2533124667	-0.319969
N	 0.0025200321	 0.0143176132	 0.159179056	-0.092499
C	 1.3399198489	-0.4172713524	-0.1954982346	-0.282708
C	 0.808092114	-0.6537165836	 1.1921683905	 0.077645
C	 1.4438530637	 0.1316488847	 2.3504610194	-0.442778
C	 0.4971565561	 0.4840558536	 3.4033203834	 0.332429
C	-0.2865057002	 0.7804807021	 4.264443133	-0.453143
C	 0.3501279408	-1.9725940073	 1.5628224968	 0.323093
C	 0.0065132242	-3.0765960531	 1.8907586082	-0.417123
H	 0.5883740445	 2.0606711972	 0.535362829	 0.1002
H	-0.6273234568	 1.7824087728	-0.7251100308	 0.128727
H	-1.072075231	 1.6045666522	 0.9839564152	 0.143974
H	 1.4114584161	-1.2424400454	-0.8983583909	 0.125819
H	 2.1205705815	 0.3390388866	-0.2898780596	 0.105814
H	 2.2484641277	-0.4840415148	 2.769844487	 0.146134
H	 1.9221267548	 1.0380837641	 1.9661881817	 0.131596
H	-0.978016368	 1.0356664662	 5.0287369423	 0.199135
H	-0.3163695031	-4.0471806966	 2.1757051667	 0.193654
65.2699	109.0686	143.4865	169.8296	191.4774	272.2159	303.6857	355.4668	388.877	412.5845	474.4393	541.416	562.8525	612.1444	625.45	645.3183	651.9659	713.9584	808.9387	870.1827	905.763	974.6098	977.3894	1055.5889	1123.1182	1133.1664	1144.9605	1197.0421	1209.3588	1262.7962	1323.6375	1376.4421	1446.6244	1464.1078	1485.8784	1502.7491	1508.9141	2239.6805	2241.3896	2983.1287	3039.708	3073.1312	3076.8071	3080.4705	3121.1215	3178.5742	3503.4419	3506.2903
CN1CC1(CC#C)C#C	CN1C[C@]1(CC#C)C#C	
InChI=1S/C8H9N/c1-4-6-8(5-2)7-9(8)3/h1-2H,6-7H2,3H3	InChI=1S/C8H9N/c1-4-6-8(5-2)7-9(8)3/h1-2H,6-7H2,3H3/t8-,9?/m1/s1
