18
gdb 37181	3.99194	1.659	1.50545	3.0914	75.05	-0.2279	0.0732	0.3011	916.4874	0.149957	-401.8378	-401.831582	-401.830638	-401.8679	27.201	
C	-0.0680461512	 1.5232377863	 0.1663411668	-0.250806
C	 1.4634492735	 1.5640194944	-0.2034802859	-0.334066
C	 1.2910094157	 0.1331666333	-0.7069272381	 0.455177
O	 0.49602056	 0.1562464612	-1.9411813254	-0.304535
C	-0.3304956098	-0.8071810708	-1.251776368	 0.026637
C	 0.6700045491	-2.0091749039	-1.1106025687	-0.054645
N	 1.8044347663	-1.9323492714	-2.0634699197	-0.314037
C	 1.9162729779	-1.271387841	-0.7474137787	-0.192253
C	-0.0415863706	-0.0459515985	 0.066785237	-0.041699
H	-0.3121901863	 1.8962363085	 1.1624101082	 0.09998
H	-0.7027477683	 2.0138343943	-0.5701549684	 0.123371
H	 1.7969651068	 2.3001160136	-0.9379438552	 0.116071
H	 2.095952897	 1.619352267	 0.6874614523	 0.105562
H	-1.3076916905	-0.9862269573	-1.7035918442	 0.080805
H	 0.376529441	-2.9552589813	-0.6709140397	 0.093033
H	 2.3082307323	-2.8174511222	-2.0125575365	 0.22865
H	 2.6197932292	-1.609814702	 0.0033151447	 0.095226
H	-0.0792048622	-0.5857143202	 1.0160543196	 0.06753
246.3349	286.8911	311.6116	422.007	493.566	537.806	655.2899	687.9567	738.9778	752.7158	789.5246	835.2549	841.3716	854.9569	877.4313	880.1479	902.7323	931.1547	961.3112	1005.4719	1039.7898	1049.529	1073.9615	1114.2189	1124.161	1132.1928	1178.9304	1191.404	1206.1039	1215.9861	1230.9961	1253.136	1272.8454	1299.3406	1313.8951	1333.4255	1390.8402	1462.5263	1477.7147	3059.8748	3078.6362	3088.8092	3104.3831	3119.9401	3153.106	3179.6226	3192.4566	3473.1367
C1CC23OC(C4NC24)C13	C1C[C@@]23O[C@@H]([C@H]4N[C@@H]24)[C@H]13	
InChI=1S/C7H9NO/c1-2-7-3(1)5(9-7)4-6(7)8-4/h3-6,8H,1-2H2	InChI=1S/C7H9NO/c1-2-7-3(1)5(9-7)4-6(7)8-4/h3-6,8H,1-2H2/t3-,4+,5+,6+,7-/m0/s1
