18
gdb 51641	3.62413	1.11065	1.069	2.9162	73.37	-0.2527	0.0222	0.2749	1195.5777	0.148548	-439.075319	-439.067358	-439.066414	-439.108578	29.93	
N	-0.3258277069	 0.9768403124	-0.8947632521	-0.442935
C	-0.2090751486	-0.1343327772	-0.3095112442	 0.130795
O	-1.2546746779	-0.9907695254	-0.2806808343	-0.192203
C	-0.9953098199	-2.2812942447	 0.2803146806	 0.172203
C	-2.3402255833	-3.0252934005	 0.3669639414	-0.260666
C	-2.3331292564	-3.9228232824	-0.8610808566	-0.077701
C	-2.0170082218	-3.272908952	-2.1990826733	-0.320629
C	-0.9224798729	-3.8832837781	-1.3686289788	 0.107846
O	-0.1452981171	-3.0341651819	-0.5444480394	-0.249064
H	 0.5378749815	 1.5079719948	-0.8020987273	 0.229212
H	 0.6790056095	-0.5080386413	 0.215435081	 0.096538
H	-0.4841973772	-2.1474729613	 1.240257327	 0.095521
H	-2.3693956443	-3.6337487763	 1.275798469	 0.113695
H	-3.1635240197	-2.309269886	 0.402901302	 0.132159
H	-2.9079648658	-4.8403618011	-0.836227162	 0.094958
H	-2.3181790207	-3.8166215298	-3.0884088714	 0.113858
H	-2.0625489069	-2.1936867739	-2.2809586072	 0.151539
H	-0.3554624317	-4.7435057053	-1.7012891744	 0.104876
62.842	99.5689	131.0679	220.6183	298.9869	389.5133	433.0414	502.5316	630.464	683.2793	759.5512	782.2251	814.3011	827.0789	877.5936	907.5456	950.147	989.1591	1005.9125	1023.9019	1043.9793	1054.8605	1078.9935	1093.4851	1106.1085	1108.9172	1163.4821	1206.451	1216.611	1284.874	1303.8817	1316.0444	1372.3849	1381.9354	1400.4011	1429.8365	1476.2004	1488.0792	1748.3996	3037.2048	3049.1024	3066.4645	3120.4326	3138.882	3183.2317	3196.5255	3235.2917	3513.7945
N=COC1CC2CC2O1	[NH][CH]O[C@H]1C[C@H]2C[C@H]2O1	
InChI=1S/C6H9NO2/c7-3-8-6-2-4-1-5(4)9-6/h3-7H,1-2H2	InChI=1S/C6H9NO2/c7-3-8-6-2-4-1-5(4)9-6/h3-7H,1-2H2/t4-,5-,6-/m1/s1
