20
gdb 68394	2.52899	1.94313	1.4301	2.2771	77.45	-0.2196	0.0717	0.2913	971.5901	0.173172	-403.110596	-403.103332	-403.102388	-403.14158	30.914	
O	-0.1560644381	 1.3835586348	 0.0544803058	-0.488833
C	 0.0296298215	-0.0060072126	 0.0370051149	 0.390329
C	 0.8887113903	-0.6972432709	-1.0699599453	-0.281888
C	 1.1324699883	-1.80407773	-0.0016227075	-0.01777
C	 0.9552755168	-0.6984204894	 1.0740116144	-0.299275
C	-0.0519725721	-2.7830634947	 0.0205817125	-0.16382
N	-1.370117468	-2.1244968915	-0.0907779534	-0.099048
C	-1.9252627234	-1.4471234353	 1.0852502763	-0.259186
C	-1.3434926156	-0.6560104551	-0.0279279108	-0.02272
H	 0.7114616025	 1.8006586691	 0.0278275444	 0.274876
H	 0.397275363	-0.9674213321	-2.0081651986	 0.105141
H	 1.8050982711	-0.1347982705	-1.2758407155	 0.085792
H	 2.0825201263	-2.341379139	-0.0328992075	 0.066577
H	 1.8771512891	-0.1192946981	 1.195583971	 0.087481
H	 0.5718068427	-0.9587616294	 2.0620240266	 0.097817
H	 0.0380777691	-3.4663905572	-0.8331341155	 0.106598
H	-0.0240538172	-3.4000721372	 0.9273741106	 0.100221
H	-3.0055764243	-1.5234108054	 1.1838091679	 0.112055
H	-1.3894543373	-1.5020230898	 2.0286018271	 0.110143
H	-2.0065125446	-0.1525265457	-0.7300590873	 0.095511
208.1159	247.9945	286.8259	322.7362	382.2067	411.4416	443.7509	473.0165	507.4198	582.0594	668.2579	720.0645	829.7524	858.2471	863.571	873.1304	894.4927	944.3109	974.1506	988.8529	1009.9936	1022.3369	1072.8682	1082.1539	1107.8377	1115.6058	1134.2253	1154.5972	1163.848	1179.2245	1208.2383	1231.973	1264.8758	1286.7439	1309.2001	1336.3357	1358.1885	1388.0716	1428.8331	1470.6357	1497.4808	1504.9156	1522.8221	3016.5265	3042.7442	3049.4654	3051.7397	3086.6779	3101.3012	3109.4132	3112.344	3117.1549	3185.4803	3809.5918
OC12CC(C1)CN1CC21	O[C@@]12C[C@@H](C1)CN1C[C@@H]21	
InChI=1S/C7H11NO/c9-7-1-5(2-7)3-8-4-6(7)8/h5-6,9H,1-4H2	InChI=1S/C7H11NO/c9-7-1-5(2-7)3-8-4-6(7)8/h5-6,9H,1-4H2/t5-,6-,7-,8?/m0/s1
