18
gdb 46714	3.015	1.72239	1.287	3.6528	76.14	-0.2393	-0.0268	0.2125	992.2544	0.150494	-401.902053	-401.895282	-401.894338	-401.933276	27.452	
O	 0.043283092	-0.0368507387	-0.1685377776	-0.313477
C	-0.0315883035	 1.1590866266	-0.0086090008	 0.391869
C	-1.33490178	 1.9096020565	 0.179240979	-0.327377
C	-1.105744916	 3.1950056239	 0.9908686752	-0.2616
C	 0.2850710656	 3.7644260378	 0.7683031241	 0.055524
C	 1.0885216791	 3.5066530307	-0.5361127035	-0.102356
C	 2.3243916312	 3.7455127422	 0.3474290354	-0.166615
N	 1.4498027289	 2.8718525685	 1.2633247564	-0.163421
C	 1.1962824548	 2.0401055804	-0.0332719489	-0.059628
H	-1.6819278595	 2.1673408145	-0.8314383786	 0.131502
H	-2.0875129604	 1.2470627509	 0.611672076	 0.129453
H	-1.8576109777	 3.950303244	 0.7397798714	 0.108779
H	-1.2099513009	 2.9920644183	 2.0632128171	 0.127811
H	 0.3679408215	 4.7752402589	 1.1799717977	 0.077252
H	 0.8880578101	 3.8575453711	-1.5548284751	 0.071465
H	 3.2630449494	 3.265201036	 0.0605870376	 0.10857
H	 2.491242543	 4.7518683848	 0.7416787192	 0.104061
H	 2.0692282023	 1.4564189136	-0.3338275347	 0.088188
99.4543	178.6644	309.1142	383.562	453.1556	468.5412	558.0745	588.1953	667.974	732.4117	757.2152	823.0057	840.2436	846.0657	911.238	950.3248	964.4354	1010.4477	1024.0277	1046.7663	1075.5912	1108.9936	1128.2255	1154.2551	1179.355	1203.3879	1225.1943	1230.4461	1242.9343	1260.2204	1274.8445	1318.2591	1349.78	1370.3839	1417.2369	1456.9451	1485.7093	1529.0041	1819.1382	3019.5423	3034.8267	3037.9611	3053.2723	3062.494	3079.7258	3094.83	3112.2467	3121.4978
O=C1CCC2C3CN2C13	O=C1CC[C@@H]2[C@H]3CN2[C@@H]13	
InChI=1S/C7H9NO/c9-6-2-1-5-4-3-8(5)7(4)6/h4-5,7H,1-3H2	InChI=1S/C7H9NO/c9-6-2-1-5-4-3-8(5)7(4)6/h4-5,7H,1-3H2/t4-,5-,7-/m1/s1
