18
gdb 103050	2.50802	1.52057	1.14087	3.5223	77.32	-0.2321	0.0255	0.2576	1109.5624	0.148564	-398.074268	-398.06568	-398.064736	-398.107499	32.156	
C	 0.1802903674	 1.1904517153	 0.4653937782	-0.335235
N	-0.0587719652	-0.0784952303	-0.2196486995	-0.326091
C	-1.3832751714	-0.5968975754	-0.0851732767	 0.180568
C	-2.4405022597	 0.1196639746	-0.7785758232	 0.239329
N	-3.237946917	 0.7270197146	-1.3582178828	-0.34925
C	-1.629724478	-2.1035853543	 0.0055445641	-0.159351
C	-0.4817568489	-2.7446089319	 0.7954624301	-0.187666
N	-0.6841926137	-1.770907305	 1.9274354472	-0.327239
C	-1.8501591749	-1.2279494454	 1.2204655655	-0.044233
H	 1.2108742099	 1.5032769256	 0.2781748897	 0.122158
H	-0.4928794046	 2.0032423712	 0.1508209286	 0.116366
H	 0.064298502	 1.0329052859	 1.5409950425	 0.144728
H	 0.197239096	-0.0218891657	-1.1989163514	 0.229628
H	-2.3163836207	-2.6018435637	-0.6659782578	 0.11603
H	-0.7168811377	-3.7741208631	 1.0782944096	 0.11181
H	 0.5150639868	-2.6918779047	 0.3523139917	 0.122764
H	-0.9820641871	-2.262287924	 2.7637039304	 0.229385
H	-2.7465665133	-0.8886024236	 1.7253790737	 0.116298
87.0202	144.3752	151.3505	191.4952	213.404	294.8382	332.0808	448.5028	467.1751	540.8766	585.701	669.0157	730.0493	765.6503	816.9848	853.9721	903.1821	954.8822	987.4592	1004.3686	1024.3807	1042.8953	1068.7111	1095.9029	1126.0211	1155.4291	1176.4196	1196.8792	1256.8056	1276.0372	1299.1607	1348.3079	1415.3319	1456.5915	1477.4674	1487.241	1495.4254	1515.5132	2332.0164	2983.2543	3060.0836	3084.253	3117.9582	3124.729	3187.248	3202.0914	3527.9335	3535.805
CNC1(C#N)C2CNC12	CN[C@@]1(C#N)[C@H]2CN[C@@H]12	
InChI=1S/C6H9N3/c1-8-6(3-7)4-2-9-5(4)6/h4-5,8-9H,2H2,1H3	InChI=1S/C6H9N3/c1-8-6(3-7)4-2-9-5(4)6/h4-5,8-9H,2H2,1H3/t4-,5+,6-/m0/s1
