18
gdb 36298	3.5362	1.08699	1.04004	4.3463	80.44	-0.2436	0.0044	0.248	1205.777	0.149442	-364.825884	-364.818107	-364.817162	-364.858786	29.873	
N	 0.0167777257	-1.0784223101	 0.4019928817	-0.309536
C	-0.0013347555	 0.0407113627	 0.11443414	 0.25963
C	-0.0068468667	 1.4580684015	-0.2504550381	-0.368056
C	 1.3717760241	 2.0864538544	-0.1199191419	-0.007125
C	 1.5948152526	 3.5778255487	-0.084438661	-0.09204
C	 0.4318262333	 4.5114017729	 0.263539997	-0.273972
C	 0.0595982401	 4.114345883	 1.6771971827	-0.080063
C	 0.8687645529	 3.1671876242	 2.1603355262	-0.075068
C	 1.8843198339	 2.7373897755	 1.1571203831	-0.0843
H	-0.3681782858	 1.5470018373	-1.2821245655	 0.148704
H	-0.7298968002	 1.9738451692	 0.3887752445	 0.155378
H	 2.1346446156	 1.5399078016	-0.6673736354	 0.106834
H	 2.4012241978	 3.9696705843	-0.6930333876	 0.093028
H	 0.743055749	 5.5625082941	 0.2103663895	 0.115257
H	-0.4146227162	 4.4130915186	-0.4300749942	 0.110541
H	-0.782671372	 4.5505057805	 2.2024276834	 0.10057
H	 0.8026549042	 2.7279253715	 3.1489451747	 0.105417
H	 2.8903613172	 2.49214682	 1.4788801709	 0.0948
50.2842	117.7726	207.9246	227.0607	354.7073	390.8373	465.1262	508.0765	563.8772	692.0863	752.7103	771.9493	786.1266	809.3978	902.5454	924.935	934.5498	941.7594	964.7226	975.3894	1025.8864	1036.6933	1067.7001	1073.7123	1111.4421	1139.0338	1183.9865	1206.9553	1253.3669	1302.9359	1306.695	1317.0403	1366.0843	1381.5281	1431.1614	1462.7437	1479.2329	1665.3183	2361.064	3014.8494	3039.8472	3040.9036	3087.578	3147.5109	3168.6845	3180.1876	3189.3714	3213.9182
N#CCC1C2CC=CC12	N#CC[C@H]1[C@H]2CC=C[C@@H]12	
InChI=1S/C8H9N/c9-5-4-8-6-2-1-3-7(6)8/h1-2,6-8H,3-4H2	InChI=1S/C8H9N/c9-5-4-8-6-2-1-3-7(6)8/h1-2,6-8H,3-4H2/t6-,7+,8-/m1/s1
