21
gdb 88868	3.23411	1.20825	1.05482	1.4256	78.59	-0.244	0.0843	0.3284	1233.2693	0.183117	-424.2157	-424.206861	-424.205916	-424.249954	32.913	
C	 0.1065382506	 1.5449535907	-0.2571448864	-0.432856
C	 0.1276817755	 0.0745640499	 0.0695943454	 0.079266
O	 1.401446304	-0.5932163653	 0.1514823909	-0.265453
C	 0.5889442513	-0.5412083561	 1.3249785321	 0.044906
C	 1.1718562844	 0.1445789118	 2.549016507	 0.082003
C	 2.2498691176	-0.7554987025	 3.2237801629	-0.252335
C	 3.4415802064	 0.195741696	 3.4272643892	-0.210906
C	 3.2215702558	 1.2050231329	 2.3003427065	-0.07829
O	 1.8081948733	 1.3873432067	 2.2598163047	-0.253895
H	 0.8184308665	 2.0964280133	 0.3531988875	 0.158042
H	 0.3390894757	 1.6925575754	-1.3175108635	 0.119263
H	-0.8983370278	 1.9459826753	-0.0817796151	 0.114189
H	-0.6081144283	-0.5116041482	-0.4880797349	 0.083486
H	 0.1297703058	-1.4999647467	 1.5906429287	 0.080811
H	 0.3456174426	 0.3591193162	 3.2401264769	 0.081915
H	 1.8905524237	-1.1974777905	 4.1554620951	 0.10588
H	 2.5257531467	-1.5728099752	 2.5507897354	 0.120452
H	 3.3774013654	 0.6997334409	 4.3967699086	 0.10666
H	 4.407575777	-0.311535959	 3.367522452	 0.103665
H	 3.6757259354	 2.1831614754	 2.480408194	 0.104344
H	 3.5850514685	 0.812753789	 1.340153413	 0.108852
56.3189	62.9869	172.432	190.6016	225.8248	254.1625	302.9565	395.2574	493.3777	591.3669	662.0311	693.4212	774.6577	781.1038	873.5158	881.457	911.1714	935.0407	944.63	961.7431	1017.1631	1042.4074	1048.4087	1080.276	1123.2216	1133.2009	1180.9507	1185.5468	1208.7226	1214.807	1259.3715	1302.5537	1302.8368	1332.3017	1338.3261	1368.937	1393.2896	1395.8431	1421.6888	1471.1148	1486.2057	1498.7708	1502.8088	1510.8146	1521.4599	3008.9791	3013.8295	3036.5458	3043.4593	3054.7099	3060.0101	3069.4619	3091.1943	3093.0848	3104.7568	3117.7832	3180.1997
CC1OC1C1CCCO1	C[C@H]1O[C@H]1[C@H]1CCCO1	
InChI=1S/C7H12O2/c1-5-7(9-5)6-3-2-4-8-6/h5-7H,2-4H2,1H3	InChI=1S/C7H12O2/c1-5-7(9-5)6-3-2-4-8-6/h5-7H,2-4H2,1H3/t5-,6-,7-/m1/s1
