16
gdb 19625	4.8065	1.99054	1.82669	2.5485	67.69	-0.2362	0.0727	0.309	765.2291	0.132874	-342.686697	-342.680748	-342.679803	-342.716468	24.296	
C	-0.0927850266	 1.5035283957	-0.0543336315	-0.328476
N	 1.1621420837	 0.7199630509	 0.0809387422	-0.380763
C	-0.116045388	 0.0298944968	 0.0039093757	 0.429462
C	-0.533454952	-0.9862198122	 1.0272318344	-0.128044
C	-1.7076262268	-1.7275909637	 0.4688628434	-0.043125
C	-2.0396650409	-1.1681686045	-0.9060326307	-0.239082
C	-0.5102094851	-1.0159641846	-1.0328338456	-0.1168
N	-0.3181791129	-2.1274946046	 0.0599650927	-0.157721
H	-0.3522047233	 2.0982323306	 0.8173524709	 0.121877
H	-0.3104457414	 1.9805698315	-1.0074857954	 0.111372
H	 1.647431188	 0.6772418072	-0.8125145927	 0.231795
H	-0.2225484429	-1.0562635103	 2.0625697066	 0.104472
H	-2.3159352339	-2.379640558	 1.0860494882	 0.098589
H	-2.4209269196	-1.9560171624	-1.5607249698	 0.113074
H	-2.6607315433	-0.271092837	-0.9962328866	 0.100395
H	 0.0078027949	-1.0966486253	-1.9879974118	 0.082975
169.8895	255.0134	314.6969	433.2253	503.4143	593.2119	745.4988	772.366	797.2223	817.0897	879.0407	897.4671	906.1623	945.672	953.3821	976.6165	997.5473	1027.0853	1033.4473	1056.2741	1078.6202	1120.2544	1127.1312	1143.1556	1186.7782	1239.1856	1248.8263	1257.593	1293.4324	1304.3996	1358.5034	1453.2865	1493.2196	1521.6196	3045.1929	3100.8903	3105.8368	3124.6605	3175.4132	3185.4999	3196.8929	3490.1813
C1NC11C2C3CC1N23	C1N[C@]21[C@H]1[C@H]3C[C@@H]2N13	
InChI=1S/C6H8N2/c1-3-5-6(2-7-6)4(1)8(3)5/h3-5,7H,1-2H2	InChI=1S/C6H8N2/c1-3-5-6(2-7-6)4(1)8(3)5/h3-5,7H,1-2H2/t3-,4+,5-,6+,8?/m1/s1
