17
gdb 98376	2.97579	1.01914	0.8307	3.8164	72.78	-0.265	-0.0502	0.2148	1386.4918	0.133388	-455.182457	-455.17268	-455.171736	-455.21821	33.494	
C	 0.0103988116	 1.5644525489	-0.1214337715	-0.372207
C	-0.1229579844	 0.0490005466	-0.253595464	-0.25063
C	-1.4417534797	-0.4961758794	 0.2451677079	 0.318622
N	-2.3374541968	 0.2690113936	 0.710960151	-0.451734
N	-1.6396036743	-1.9168666821	 0.0687863161	-0.154329
C	-2.8373871949	-2.3310860113	-0.5668416274	 0.146572
O	-3.2002491962	-3.460721392	-0.7147220522	-0.247
C	-0.6632653896	-2.8302606765	 0.5225777385	 0.157099
O	-0.6885438731	-4.016735333	 0.3671718366	-0.249047
H	 0.9835824192	 1.8883345705	-0.5003238076	 0.116036
H	-0.7728849564	 2.0766841124	-0.6842828622	 0.138634
H	-0.079908847	 1.8768616889	 0.9213773269	 0.138123
H	-0.0104931968	-0.2684046855	-1.298989661	 0.134278
H	 0.6974821974	-0.4474453914	 0.280533258	 0.129751
H	-3.1622499313	-0.2451538884	 1.0230966577	 0.234321
H	-3.400662591	-1.4502170742	-0.925992506	 0.108914
H	 0.1398335734	-2.3095596671	 1.0736635992	 0.102598
44.2745	66.6326	109.4056	158.3839	207.6646	237.6651	241.5772	266.0814	318.4646	383.6924	485.8149	534.0217	554.3641	702.1622	806.9561	894.9486	920.4117	944.0262	1019.0323	1027.9957	1040.66	1095.6302	1115.3778	1160.5945	1231.2985	1288.8193	1304.174	1391.9502	1418.3475	1438.7176	1458.5093	1471.004	1490.866	1499.5528	1729.2456	1803.0593	1879.0511	2964.135	2971.4955	3026.5188	3051.3424	3056.167	3128.7329	3137.3495	3474.4167
CCC(=N)N(C=O)C=O	CCC(=N)N(C=O)C=O	
InChI=1S/C5H8N2O2/c1-2-5(6)7(3-8)4-9/h3-4,6H,2H2,1H3	InChI=1S/C5H8N2O2/c1-2-5(6)7(3-8)4-9/h3-4,6H,2H2,1H3
