15
gdb 96746	3.34851	0.86586	0.69386	3.1338	77.52	-0.2805	-0.053	0.2275	1543.5759	0.109407	-416.772391	-416.762662	-416.761717	-416.807861	33.26	
C	-0.011612722	 1.4842551971	 0.1171065674	-0.344547
N	 0.0181283571	 0.0364502055	 0.0752853859	-0.300289
C	 0.5065969326	-0.5855260575	-0.9086289152	 0.354533
O	 0.5582547366	-1.9260206742	-0.9961686048	-0.245741
C	 0.0067255586	-2.635104078	 0.1330546144	-0.239907
C	 0.1358671968	-4.0601462884	-0.1104939014	 0.296654
C	 0.2257418956	-5.2452427367	-0.277450948	-0.402714
C	 1.087513408	 0.0221917203	-2.0960681133	 0.259788
N	 1.5351473832	 0.5663820811	-3.0120529913	-0.32708
H	 0.5287284233	 1.8223200549	 1.0076415684	 0.143938
H	 0.4197479062	 1.9728704912	-0.7655758408	 0.139825
H	-1.0502759694	 1.8123250153	 0.2304734433	 0.143936
H	 0.5388011936	-2.3314651094	 1.0414916278	 0.155929
H	-1.0408559462	-2.3416690539	 0.2635532425	 0.155927
H	 0.307414846	-6.2933888973	-0.429533495	 0.209748
47.7073	100.0852	124.5801	135.6803	166.9064	226.0551	255.6636	332.6433	352.7008	353.5789	467.8757	533.5284	622.0938	660.7242	692.5429	723.0581	810.1112	969.2944	1014.126	1017.1994	1112.935	1134.6135	1162.4322	1244.1735	1288.2039	1394.6707	1446.5209	1484.7841	1485.4103	1501.8175	1735.257	2253.6437	2353.8446	3014.9457	3042.172	3076.3346	3088.8028	3092.511	3504.7924
CN=C(OCC#C)C#N	CN=C(OCC#C)C#N	
InChI=1S/C6H6N2O/c1-3-4-9-6(5-7)8-2/h1H,4H2,2H3	InChI=1S/C6H6N2O/c1-3-4-9-6(5-7)8-2/h1H,4H2,2H3
