20
gdb 78699	5.25631	1.11135	1.10151	1.0339	84.75	-0.2101	0.0916	0.3017	1193.5289	0.170745	-365.888557	-365.880944	-365.88	-365.920222	31.114	
C	 0.0301769256	 1.5240301795	-0.2357911483	-0.324793
N	 0.0226712924	 0.075418581	-0.0623141992	-0.120457
C	-1.0998959902	-0.4786396729	 0.7537027576	-0.002424
C	-0.2388096878	-1.7039193455	 1.1987122893	-0.174126
C	 0.6747180179	-0.4366525152	 1.1809211687	-0.002421
C	-0.509324351	-0.0650942658	 2.1613383322	-0.186127
C	-0.5967733064	-1.5006639073	 2.6656721969	 0.419419
C	-1.5796058735	-2.1856863	 3.5548202464	-0.349855
C	-0.096426705	-2.1505894472	 3.9118859591	-0.349856
H	 1.0176043386	 1.8383119907	-0.5902953472	 0.117583
H	-0.7007304406	 1.7976651555	-1.0041376854	 0.117583
H	-0.2034735433	 2.0964311565	 0.6781458701	 0.093227
H	-2.1420501911	-0.4714259591	 0.4292145594	 0.080187
H	-0.0792017052	-2.6165417403	 0.6254122001	 0.082143
H	 1.7489264835	-0.3793617415	 1.365920605	 0.080186
H	-0.6648179857	 0.8597046472	 2.7163549857	 0.077064
H	-2.2567314206	-1.5799724612	 4.1492738348	 0.11013
H	-1.9998284968	-3.1345220355	 3.2355406849	 0.111204
H	 0.4649929722	-3.0761940346	 3.8289455779	 0.111204
H	 0.208344067	-1.5216270844	 4.742720122	 0.11013
138.6328	179.9688	216.2186	248.9875	318.1171	333.9723	476.0571	578.5932	593.8362	741.3767	770.6617	779.8066	803.1535	812.1488	837.8322	886.1992	888.2574	915.743	960.8644	971.4974	990.4918	1024.7673	1051.1749	1076.0836	1088.4343	1106.4302	1118.6503	1143.8565	1151.7032	1158.6713	1161.3211	1175.314	1182.6441	1204.5249	1246.382	1250.2635	1319.1921	1426.0127	1446.3298	1462.1962	1490.5499	1497.0428	1520.2907	2961.3025	3059.8858	3095.5257	3096.5897	3097.9818	3118.3525	3119.5197	3122.1912	3129.0724	3194.6965	3209.1163
CN1C2C3C1C2C31CC1	CN1[C@H]2[C@H]3[C@@H]1[C@@H]2C13CC1	
InChI=1S/C8H11N/c1-9-6-4-7(9)5(6)8(4)2-3-8/h4-7H,2-3H2,1H3	InChI=1S/C8H11N/c1-9-6-4-7(9)5(6)8(4)2-3-8/h4-7H,2-3H2,1H3/t4-,5+,6-,7+
