20
gdb 6618	3.41411	1.61503	1.44105	1.536	70.58	-0.2501	0.0745	0.3246	980.1591	0.17562	-386.132006	-386.123179	-386.122235	-386.164899	33.315	
C	-0.1172547276	 1.4852798299	-0.0458848135	-0.423742
C	 0.0243373423	-0.0429241624	 0.0385613801	 0.33189
C	 0.7036690339	-0.4704958455	 1.3378460312	-0.407995
O	-1.266401726	-0.6504915451	 0.0293524591	-0.472751
C	 0.8104709688	-0.5505605085	-1.1770092112	 0.145524
C	 0.8916592564	-2.071870809	-1.4283627381	-0.293454
C	 0.2494049928	-1.7386370716	-2.78663161	-0.071723
O	 0.0349687076	-0.3615347889	-2.394745487	-0.315115
H	 0.8542135927	 1.9832931953	 0.0412575996	 0.107772
H	-0.561278919	 1.7745058805	-1.0033640631	 0.127621
H	-0.7652953852	 1.8408602996	 0.7597013049	 0.119191
H	 0.1194235109	-0.1219592528	 2.1940209943	 0.126267
H	 0.776390393	-1.5597409605	 1.3997836598	 0.121539
H	 1.7099613914	-0.0468908959	 1.4114179937	 0.111575
H	-1.6126719894	-0.4965553838	-0.8598358513	 0.280847
H	 1.7770631844	-0.0328258638	-1.2491507824	 0.068486
H	 1.8881921657	-2.5137113742	-1.4495333077	 0.106181
H	 0.2395145651	-2.6420942806	-0.7661024238	 0.126417
H	 0.9276048111	-1.8063534627	-3.6465518772	 0.10405
H	-0.6906603491	-2.2440510401	-3.0326108875	 0.107419
100.4137	110.9409	196.726	204.2571	247.7724	284.4542	320.0441	361.5885	386.806	488.1617	500.8113	576.5874	693.4914	794.8208	841.0407	883.5396	933.1092	950.6592	969.599	972.4144	1005.9326	1024.8128	1035.6699	1101.9277	1146.5466	1172.0108	1206.2054	1222.9256	1255.363	1261.3659	1282.9709	1355.1816	1361.0296	1391.1839	1405.6136	1419.826	1476.7388	1480.4403	1488.8038	1500.3	1510.0568	1529.0702	3006.4193	3020.3428	3035.3728	3044.509	3067.6541	3088.4894	3106.4853	3116.5817	3119.6451	3121.5785	3149.0048	3760.9706
CC(C)(O)C1CCO1	CC(C)(O)[C@H]1CCO1	
InChI=1S/C6H12O2/c1-6(2,7)5-3-4-8-5/h5,7H,3-4H2,1-2H3	InChI=1S/C6H12O2/c1-6(2,7)5-3-4-8-5/h5,7H,3-4H2,1-2H3/t5-/m1/s1
