19
gdb 37583	3.41248	1.934	1.9217	0.2817	80.55	-0.2271	0.0232	0.2503	835.5011	0.164641	-348.766208	-348.760626	-348.759682	-348.795624	25.745	
C	-0.0356271484	 1.5756265839	 0.0112758445	-0.242121
C	 1.45830025	 1.8594935043	-0.0020399943	-0.076012
C	 2.1392396947	 0.7251651143	 0.7397169328	-0.052296
C	 2.1243203947	 0.7329642197	-0.7688092368	-0.052295
C	 1.0482549273	-0.32908679	-1.1406532826	-0.075378
C	 1.5362699961	-1.6938949413	-0.6901419422	-0.08539
C	 1.549521387	-1.7008147232	 0.6475676642	-0.085391
C	 1.0706424889	-0.3407993028	 1.1217580753	-0.07538
C	 0.056760874	 0.0521225289	 0.0024780195	-0.035813
H	-0.5349627414	 1.9628966684	 0.9067039106	 0.093677
H	-0.5525450431	 1.972090831	-0.8700398091	 0.093676
H	 1.8589648591	 2.8661126706	-0.0008000095	 0.077527
H	 3.0476244222	 0.8571878885	 1.312609613	 0.079075
H	 3.0212120987	 0.8709962601	-1.3581573674	 0.079074
H	 0.6698890087	-0.2566945957	-2.1618810227	 0.056442
H	 1.8927146005	-2.4710618651	-1.3546426818	 0.09022
H	 1.9189750676	-2.4847813343	 1.2968004055	 0.09022
H	 0.7125665318	-0.2790289203	 2.1509681989	 0.056442
H	-0.8743383385	-0.5141067572	 0.0087608121	 0.063724
352.8071	360.4274	444.4163	498.3079	588.3482	699.4258	704.3515	729.3619	783.7249	811.5027	821.3772	829.8477	897.7836	905.9419	921.3439	931.4264	940.0947	961.7819	966.6924	986.7983	992.3402	1011.7069	1012.216	1058.0565	1076.3616	1083.6409	1122.5342	1138.193	1193.4491	1217.2796	1235.9938	1243.5072	1268.3076	1282.8485	1287.1408	1294.2194	1339.2325	1349.4392	1377.424	1491.0551	1638.6563	3034.7864	3075.8656	3094.2031	3095.1977	3123.1021	3180.7345	3193.399	3195.4888	3205.7957	3220.9435
C1C2C3C2C2C=CC3C12	C1[C@H]2[C@@H]3[C@H]2[C@H]2C=C[C@@H]3[C@@H]12	
InChI=1S/C9H10/c1-2-5-6-3-7-8(4(1)6)9(5)7/h1-2,4-9H,3H2	InChI=1S/C9H10/c1-2-5-6-3-7-8(4(1)6)9(5)7/h1-2,4-9H,3H2/t4-,5+,6-,7+,8-,9+
