19
gdb 117859	3.01717	0.7023	0.57636	5.6732	77.13	-0.2385	-0.0141	0.2244	1879.405	0.154983	-456.333551	-456.322514	-456.321569	-456.372409	36.888	
C	 0.196091492	 1.4799056057	-0.1611923014	-0.227242
O	 0.2984106718	 0.0891118123	 0.0312390459	-0.204345
C	 0.6264547601	-0.5890230525	-1.141030019	-0.127389
C	 0.7049514287	-2.0870587999	-0.9053358367	 0.341535
N	 1.2305650543	-2.7712630073	-1.9884288646	-0.551162
N	 0.3449119061	-2.5943765425	 0.2033888716	-0.27459
C	 0.4479325347	-4.024591706	 0.3759538187	-0.250877
C	-0.0087212725	-4.421295612	 1.7744006414	 0.147684
O	-0.1489219237	-5.559718542	 2.1372570555	-0.250616
H	 1.14585199	 1.9177022774	-0.5085168816	 0.103751
H	-0.5869305482	 1.7360432314	-0.8930585953	 0.103582
H	-0.064042574	 1.9201386413	 0.8037404871	 0.13485
H	-0.1230923434	-0.4009751807	-1.9343914564	 0.095775
H	 1.5973139498	-0.2467578611	-1.5459850415	 0.100365
H	 1.2465045434	-2.2978007401	-2.8786446054	 0.254306
H	 1.0346622062	-3.7573509059	-2.0562085135	 0.260682
H	-0.1632057009	-4.6016152355	-0.3403587292	 0.11665
H	 1.4819818121	-4.3930109323	 0.2556194318	 0.129463
H	-0.1980253765	-3.5505150402	 2.4393112727	 0.097576
28.3451	31.9451	78.4278	82.4792	90.9944	201.7643	229.6197	240.3415	323.3646	341.3283	391.0484	429.7655	463.0239	528.4964	609.3817	671.2483	720.6034	891.0922	1017.8569	1033.3313	1037.4711	1056.7334	1083.2524	1143.3107	1177.8761	1183.7849	1233.0077	1241.3442	1269.4824	1312.0775	1331.3529	1395.4238	1433.2889	1436.6736	1477.381	1486.5798	1497.177	1525.2986	1648.811	1760.8547	1839.5065	2906.3557	2917.0628	2939.84	2944.1377	2967.2849	2975.5557	3009.9431	3122.2038	3582.1619	3690.1657
COCC(N)=NCC=O	COCC(=NCC=O)N	
InChI=1S/C5H10N2O2/c1-9-4-5(6)7-2-3-8/h3H,2,4H2,1H3,(H2,6,7)	InChI=1S/C5H10N2O2/c1-9-4-5(6)7-2-3-8/h3H,2,4H2,1H3,(H2,6,7)
