20
gdb 105247	2.66625	1.27918	1.00696	2.1388	74.75	-0.2484	0.0711	0.3196	1238.9928	0.170175	-440.234772	-440.225433	-440.224489	-440.268799	34.9	
C	-0.1062352763	 1.4961700712	-0.2031290464	-0.44513
C	 0.0802443787	 0.0178437294	 0.0216776934	 0.047265
O	 1.429931672	-0.5108229425	 0.0945030344	-0.308401
C	 0.5821853639	-0.621213995	 1.2520479749	 0.285817
C	 1.0858593686	 0.1761832466	 2.4589210064	-0.135541
O	 1.9156168449	 1.2596246229	 2.1039130892	-0.412313
C	 0.1566616435	-2.0220092616	 1.5974395464	-0.062452
C	 0.1857653149	-3.1050858709	 0.5898129368	-0.244471
N	 1.1750791211	-3.0855915281	 1.6854316639	-0.325347
H	 0.1561101757	 1.7540258968	-1.2348465579	 0.12814
H	-1.1619640305	 1.7515771912	-0.0594481519	 0.124798
H	 0.4972737329	 2.0897173671	 0.4824231375	 0.156173
H	-0.5616919348	-0.612200561	-0.5960987552	 0.092956
H	 0.2343131099	 0.575522429	 3.0225442946	 0.117367
H	 1.6156111642	-0.5242934683	 3.1245851249	 0.108462
H	 2.4162401883	 0.9609839436	 1.3324804322	 0.29098
H	-0.584935678	-2.0700387512	 2.3937211988	 0.096117
H	-0.5414611631	-3.9100546299	 0.6408812132	 0.118876
H	 0.5324783034	-2.8525012585	-0.4076151449	 0.12748
H	 2.0509656908	-2.7238538009	 1.3103769698	 0.239225
82.7701	118.9123	168.9653	192.5081	204.0169	229.9519	287.9183	313.4804	418.374	470.6252	490.1314	500.3135	628.0713	689.2242	800.4808	840.0845	860.1715	881.1208	960.2303	972.8809	1004.5347	1047.1511	1068.6211	1081.7224	1111.3559	1134.2124	1146.4017	1168.1393	1200.037	1208.5889	1243.006	1274.5272	1303.9349	1344.6949	1371.7418	1408.6369	1424.103	1440.9699	1470.9999	1498.3117	1501.4908	1508.3299	1518.4013	2976.5106	3039.8793	3055.4296	3096.169	3097.3196	3115.7738	3120.1377	3165.1254	3207.6068	3478.4626	3755.7859
CC1OC1(CO)C1CN1	C[C@H]1O[C@]1(CO)[C@H]1CN1	
InChI=1S/C6H11NO2/c1-4-6(3-8,9-4)5-2-7-5/h4-5,7-8H,2-3H2,1H3	InChI=1S/C6H11NO2/c1-4-6(3-8,9-4)5-2-7-5/h4-5,7-8H,2-3H2,1H3/t4-,5-,6+/m1/s1
