17
gdb 18859	3.40217	2.59473	2.17585	0.5397	72.27	-0.2035	0.0099	0.2134	722.1042	0.143879	-326.675628	-326.669405	-326.668461	-326.705449	25.835	
C	-0.0603703411	 1.543590862	-0.0401391589	-0.324202
N	 0.1022129934	 0.096832765	-0.0140834795	-0.069944
C	 0.6549720777	-0.5667277597	-1.1601642282	-0.018065
C	 2.2532543323	-0.6012079786	-1.1692354972	-0.101975
C	 2.9477599293	 0.3259910199	-0.2508415088	-0.072287
C	 2.3738140088	 0.2773751644	 0.9634037968	-0.114896
C	 1.1458455233	-0.5916451044	 0.8724055065	-0.053672
C	 1.4193778733	-1.5431865496	-0.3371486732	-0.114882
H	 0.8432341127	 2.0996322451	-0.3290973474	 0.104363
H	-0.8524326858	 1.7810117784	-0.7593067265	 0.116536
H	-0.3867470663	 1.8925819265	 0.9452366326	 0.11522
H	 0.1047566064	-0.6664498222	-2.089503176	 0.097751
H	 2.7017227548	-0.9492020798	-2.0922354849	 0.081632
H	 3.7512786328	 0.9858831481	-0.5555661175	 0.096209
H	 2.6063119033	 0.9108992295	 1.810194316	 0.093729
H	 0.7177543346	-0.9781478702	 1.797271667	 0.071557
H	 1.4499639904	-2.6247701846	-0.3479368508	 0.092926
191.3854	219.4955	296.2636	453.6845	470.6569	603.9641	637.0028	674.5012	736.8903	763.8674	804.2166	817.3175	830.1199	885.791	910.3211	925.8783	965.7925	994.111	1016.48	1041.3996	1081.0134	1093.7821	1122.0163	1151.3972	1169.4986	1201.6344	1226.2708	1259.3079	1276.1822	1319.4389	1360.0049	1376.2375	1440.697	1479.3542	1511.0692	1618.7042	2993.7975	3063.3994	3095.979	3108.3529	3169.4567	3183.6263	3195.3847	3199.7359	3219.9357
CN1C2C3C=CC1C23	CN1[C@H]2[C@H]3C=C[C@@H]1[C@@H]23	
InChI=1S/C7H9N/c1-8-5-3-2-4-6(5)7(4)8/h2-7H,1H3	InChI=1S/C7H9N/c1-8-5-3-2-4-6(5)7(4)8/h2-7H,1H3/t4-,5+,6-,7-/m0/s1
