20
gdb 40370	3.46278	1.28457	1.15655	1.6286	82.41	-0.2116	0.0701	0.2817	1144.1496	0.171557	-365.904476	-365.896767	-365.895823	-365.936834	31.256	
C	-0.1070355733	 1.4405842558	-0.1559339615	-0.277881
C	 1.2853075421	 0.9116137947	 0.0805075642	-0.271462
C	 0.1086757697	-0.0385466908	 0.0613046818	-0.105953
C	-0.3328396627	-0.7312227103	 1.3002708303	 0.377829
C	-0.3398585651	-2.2294996016	 1.4628122826	-0.369309
C	-1.6193019096	-1.4553255555	 1.6441775568	-0.059766
N	-1.8082615158	-0.6853051477	 2.9384795416	-0.14046
C	-0.6602443785	-0.9044191819	 3.8403537514	-0.252327
C	-0.4867454213	-0.0208898437	 2.6681187482	-0.106155
H	-0.5765550186	 2.0162089909	 0.6340205319	 0.119181
H	-0.3701581416	 1.7715918094	-1.1545528106	 0.111794
H	 1.9824993585	 0.8877130755	-0.7496173302	 0.112137
H	 1.7474849504	 1.1185424191	 1.0403102035	 0.115024
H	 0.0219177197	-0.6566450073	-0.8282650057	 0.080582
H	-0.3123334245	-2.7607421464	 0.5151159043	 0.114891
H	 0.1799051805	-2.7566628788	 2.2553539768	 0.111398
H	-2.5100677692	-1.6429479335	 1.0577140765	 0.101935
H	-0.8057891844	-0.4120049674	 4.79820935	 0.121555
H	-0.1831028314	-1.8741221974	 3.9159587109	 0.119963
H	-0.391103795	 1.0556369671	 2.7719721773	 0.097024
65.6854	145.8627	177.4201	307.0384	373.1292	440.7394	479.385	513.9592	599.1077	684.1775	754.0626	771.0307	792.3593	815.9998	839.2775	892.4612	909.8103	918.4616	947.9961	989.5274	1002.8659	1022.3819	1041.2001	1052.531	1061.0654	1070.0857	1075.6524	1094.3335	1111.0224	1130.0765	1137.3253	1196.7582	1211.0992	1228.1926	1232.7842	1273.7115	1307.9192	1371.0014	1437.7893	1470.9191	1483.484	1511.0298	1523.9394	3118.5869	3130.5279	3131.4878	3136.3679	3140.5434	3151.9303	3186.4787	3196.5489	3209.5678	3213.2336	3224.915
C1CC1C12CC1N1CC21	C1CC1[C@]12C[C@H]1N1C[C@@H]21	
InChI=1S/C8H11N/c1-2-5(1)8-3-6(8)9-4-7(8)9/h5-7H,1-4H2	InChI=1S/C8H11N/c1-2-5(1)8-3-6(8)9-4-7(8)9/h5-7H,1-4H2/t6-,7+,8-,9?/m1/s1
