21
gdb 94391	3.02357	1.28075	1.16065	1.7473	82.64	-0.2397	0.0226	0.2622	1168.0907	0.183107	-387.087299	-387.078854	-387.07791	-387.12074	32.559	
C	-0.2059453744	 1.4963088197	-0.2862324584	-0.410274
C	 0.2640679622	 0.0604048178	-0.1738462415	 0.111114
O	 1.6442985176	-0.0987719196	-0.5795950662	-0.296158
C	 1.9522009887	-0.8554443305	 0.60494794	-0.110578
C	 0.5540117539	-0.579490551	 1.2137234634	 0.283087
C	 0.5681079378	 0.3250503503	 2.471152421	-0.331872
C	 0.2749682254	-0.6408454977	 3.5949799127	-0.065077
C	-0.1840777468	-1.8054306393	 3.1401909635	-0.062786
C	-0.2678062381	-1.8195541985	 1.633297662	-0.340644
H	 0.4181871154	 2.1686046003	 0.3089624016	 0.122001
H	-0.1532024764	 1.8192531126	-1.3309502702	 0.126261
H	-1.2458506002	 1.5932032236	 0.0448595973	 0.114595
H	-0.3856776913	-0.5862555857	-0.7847637683	 0.062618
H	 2.1521882372	-1.9119540385	 0.3765368989	 0.090543
H	 2.8124179109	-0.4400634699	 1.144794686	 0.097464
H	 1.5191239014	 0.8571578971	 2.5895623313	 0.106152
H	-0.2102715797	 1.100128562	 2.4243979688	 0.108458
H	 0.3888190012	-0.3730066782	 4.6395721889	 0.09235
H	-0.5042678866	-2.6397169074	 3.7542424409	 0.092943
H	-1.3138153109	-1.733579936	 1.3006733604	 0.105382
H	 0.1182616127	-2.741114101	 1.1814814179	 0.104421
58.1815	82.917	194.6384	228.8814	273.8071	354.303	389.5992	419.4125	469.674	505.0483	680.9281	743.398	777.7191	793.8064	878.7518	905.2693	931.2114	942.695	975.3671	978.1217	982.0079	1023.4385	1027.868	1072.4621	1094.9717	1112.9335	1129.6518	1158.6206	1163.2446	1178.2548	1228.8181	1256.4998	1289.834	1297.2385	1342.4775	1362.1442	1367.9678	1390.9094	1406.4413	1480.0461	1481.7637	1486.6398	1494.9638	1527.2934	1687.5171	2968.9596	2990.4734	2994.8764	3007.1189	3034.3683	3040.3329	3047.4354	3051.858	3103.3582	3116.8959	3182.9906	3208.3807
CC1OCC11CC=CC1	C[C@H]1OC[C@]21CC=CC2	
InChI=1S/C8H12O/c1-7-8(6-9-7)4-2-3-5-8/h2-3,7H,4-6H2,1H3	InChI=1S/C8H12O/c1-7-8(6-9-7)4-2-3-5-8/h2-3,7H,4-6H2,1H3/t7-/m1/s1
