21
gdb 33072	4.2358	0.80276	0.70964	3.2608	87.19	-0.2064	0.0386	0.245	1673.6044	0.18297	-383.332853	-383.323043	-383.322099	-383.368547	35.321	
C	 0.0113196169	 1.565038309	 0.0336771356	-0.380798
C	-0.0253124778	 0.040770998	 0.1610349834	-0.148919
C	-1.4317216727	-0.5451565254	-0.0565978886	-0.299682
C	-1.4610121829	-2.0400907311	 0.005782362	 0.285601
C	-2.0861036774	-2.851455708	 0.9150256182	-0.203136
N	-1.7843586601	-4.1430760355	 0.5287119737	-0.274227
C	-0.9981302757	-4.0665838272	-0.5860376468	 0.338749
C	-0.4718026351	-5.267196424	-1.2998131278	-0.498963
N	-0.7873089197	-2.812709543	-0.9225118804	-0.340962
H	 1.0221471751	 1.9546924325	 0.1909877266	 0.107986
H	-0.3180384471	 1.8872707537	-0.9607296008	 0.112776
H	-0.6469408414	 2.0432476306	 0.7684505798	 0.107636
H	 0.6549598105	-0.4157310887	-0.5661777312	 0.117309
H	 0.3369693578	-0.2605902259	 1.1520465722	 0.08907
H	-2.1232546756	-0.1363588088	 0.6904904708	 0.089026
H	-1.8011915661	-0.2171123266	-1.0374616686	 0.105195
H	-2.7011050329	-2.6421276071	 1.7747561757	 0.119833
H	-2.0952476216	-4.9852115724	 0.9826384391	 0.258632
H	-1.2786147667	-5.9068905624	-1.6764456157	 0.129063
H	 0.1254264762	-4.9320861673	-2.148570915	 0.156866
H	 0.1630796462	-5.8833802504	-0.6524024321	 0.128945
53.0678	72.4074	87.9207	103.9937	230.0445	239.8721	274.6165	311.1543	372.298	413.4835	505.0594	637.6722	668.8512	711.0567	722.2238	749.3475	783.0321	874.3686	897.9194	969.7483	1000.7404	1042.6103	1050.5304	1062.0615	1093.4041	1110.9234	1112.8668	1230.0131	1258.5908	1292.134	1313.9192	1324.609	1375.4774	1386.5273	1410.4907	1411.7999	1442.5669	1475.2986	1483.6453	1493.0085	1498.4019	1501.0059	1510.085	1574.0782	1610.6876	3012.5027	3024.9751	3028.3251	3030.1779	3050.6858	3071.792	3076.5448	3095.8196	3098.3217	3148.6954	3268.3431	3664.7832
CCCC1=CNC(C)=N1	CCCc1c[nH]c(C)n1	
InChI=1S/C7H12N2/c1-3-4-7-5-8-6(2)9-7/h5H,3-4H2,1-2H3,(H,8,9)	InChI=1S/C7H12N2/c1-3-4-7-5-8-6(2)9-7/h5H,3-4H2,1-2H3,(H,8,9)
