15
gdb 15731	6.92198	1.0486	0.9829	2.2468	68.63	-0.259	-0.0298	0.2292	1162.954	0.117101	-362.615627	-362.607406	-362.606462	-362.64903	29.108	
O	-0.0652703503	 0.1096482331	-0.7079208206	-0.311246
C	 0.0073362711	 1.2264341589	-0.250060207	 0.387827
C	 1.3023307098	 1.8293382633	 0.3067881825	-0.494799
C	 2.4857264182	 1.0075395322	 0.1296097106	 0.322898
C	 3.4692101426	 0.3348290986	-0.0150747638	-0.418159
C	-1.1916088355	 2.1209017751	-0.1842987278	-0.102503
C	-2.0087058427	 2.2202863935	-1.4389955175	-0.217933
N	-2.5118817763	 1.4844525654	-0.2896742726	-0.30312
H	 1.4364838361	 2.8184315065	-0.1537590146	 0.156943
H	 1.1270025942	 2.0351724684	 1.3730603628	 0.161746
H	 4.3344229917	-0.2667598814	-0.1455263713	 0.201264
H	-1.1341628357	 2.9802446076	 0.4777259671	 0.100581
H	-2.5154113556	 3.1558992909	-1.656991723	 0.129315
H	-1.6505994285	 1.6629431437	-2.300112992	 0.136266
H	-2.3438187488	 0.489020954	-0.4434596128	 0.25092
44.7055	92.1627	120.6669	252.3643	262.5405	322.5918	344.7311	409.743	573.7477	630.9366	648.9165	692.7988	820.5802	857.983	885.0899	923.8091	963.2496	993.0136	1014.4177	1076.0478	1122.4871	1136.8077	1182.3737	1216.0313	1289.1515	1318.5823	1329.9323	1402.5356	1437.1676	1497.369	1802.6678	2251.9464	3008.9907	3035.7945	3113.1998	3151.6548	3207.3912	3460.7737	3506.3222
O=C(CC#C)C1CN1	O=C(CC#C)[C@H]1CN1	
InChI=1S/C6H7NO/c1-2-3-6(8)5-4-7-5/h1,5,7H,3-4H2	InChI=1S/C6H7NO/c1-2-3-6(8)5-4-7-5/h1,5,7H,3-4H2/t5-/m1/s1
