14
gdb 131687	2.26281	1.4945	0.90512	4.1963	71.81	-0.26	-0.035	0.225	1192.4943	0.099648	-436.63524	-436.626865	-436.625921	-436.669036	29.917	
O	-0.0312559972	 1.415407362	 0.0083529971	-0.418489
C	 0.0147750708	-0.0006286099	 0.0020250677	-0.214748
C	-1.3893713486	-0.5045432375	 0.011898067	 0.073424
C	-2.5451855832	 0.2029375333	 0.0233889912	-0.003666
O	-3.6043727172	-0.6259363395	 0.0295074314	-0.160738
N	-3.1665374808	-1.933421982	 0.0221532053	-0.207819
C	-1.8456873746	-1.8616499797	 0.0114229283	 0.185038
C	-1.0411830408	-3.02883764	 0.0014763598	 0.266774
C	-0.3115146229	-3.9849510672	-0.0072499871	-0.419373
H	 0.871243624	 1.7462757445	 0.0021074671	 0.296241
H	 0.5391043402	-0.3862325497	-0.8874042883	 0.114438
H	 0.5541890029	-0.3937270071	 0.8790538342	 0.114441
H	-2.7584302248	 1.2588332454	 0.0283758318	 0.17071
H	 0.3154172122	-4.8423431027	-0.0150083555	 0.203767
48.5058	110.1094	170.553	213.8907	219.1365	274.4988	389.9865	463.109	562.6088	596.7168	611.9674	620.0514	675.0633	736.7876	737.719	844.6562	936.8113	967.5783	1049.9364	1080.8897	1139.5428	1187.0315	1225.7887	1244.7477	1292.7967	1402.1262	1452.5193	1491.1699	1516.0569	1648.8362	2243.3411	2967.0843	2985.6439	3289.5025	3502.0729	3841.5589
OCC1=CON=C1C#C	OCc1conc1C#C	
InChI=1S/C6H5NO2/c1-2-6-5(3-8)4-9-7-6/h1,4,8H,3H2	InChI=1S/C6H5NO2/c1-2-6-5(3-8)4-9-7-6/h1,4,8H,3H2
