17
gdb 49999	3.59123	1.07849	1.02072	3.2661	74.66	-0.2542	-0.0366	0.2176	1207.7592	0.134509	-421.780447	-421.772604	-421.77166	-421.813179	29.83	
O	-0.655500846	 0.7725168617	 0.7880285625	-0.252385
C	 0.156897798	 1.0175029909	-0.0679175747	 0.151869
C	 1.2386931782	 2.0298513007	 0.0808779999	-0.164823
O	 2.3809627608	 1.838249915	-0.7812932044	-0.283358
C	 1.552062506	 2.939303629	-1.0486451828	 0.454776
C	 0.8983181986	 3.1467901702	-2.4312228802	-0.332713
C	 1.4005712285	 4.6007309857	-2.3886625486	-0.043079
C	 0.8696536819	 5.2972819095	-1.1726924977	-0.279023
C	 2.0465148137	 4.3660659056	-1.0127404798	-0.141479
H	 0.1582649082	 0.5048089913	-1.0553559764	 0.086304
H	 1.4555646945	 2.3533455651	 1.0974301521	 0.115992
H	 1.4097452829	 2.5348445868	-3.178209453	 0.128939
H	-0.1827198111	 3.002398843	-2.5206473264	 0.111274
H	 1.8080559921	 5.1398817686	-3.2336702968	 0.100465
H	 1.1100252279	 6.3522691902	-1.0906100259	 0.122655
H	-0.1014023783	 5.0296948011	-0.7624718901	 0.117964
H	 3.0056292339	 4.6839961756	-0.6246052276	 0.106624
77.49	128.2701	172.1867	229.5763	358.853	385.6644	415.4867	486.7737	492.5572	579.6169	754.1773	780.724	828.6618	862.6364	917.1677	924.6669	961.4035	979.0132	988.0935	1026.5589	1057.9611	1075.1163	1089.3208	1099.2355	1119.7505	1144.185	1174.5605	1200.156	1246.7239	1277.5805	1291.856	1338.8995	1396.3797	1461.3474	1481.0934	1499.4153	1821.1814	2892.4756	3053.9804	3112.0074	3115.2231	3139.6882	3195.8376	3198.3768	3210.5102
O=CC1OC11CC2CC12	O=C[C@H]1O[C@]21C[C@H]1C[C@@H]21	
InChI=1S/C7H8O2/c8-3-6-7(9-6)2-4-1-5(4)7/h3-6H,1-2H2	InChI=1S/C7H8O2/c8-3-6-7(9-6)2-4-1-5(4)7/h3-6H,1-2H2/t4-,5-,6-,7-/m1/s1
