18
gdb 30658	3.94975	1.02954	0.87211	2.5089	74.1	-0.2466	-0.0025	0.2441	1339.9964	0.147612	-439.121144	-439.112262	-439.111318	-439.155587	32.075	
C	 0.0114126634	 1.5592945263	 0.0926870785	-0.389184
C	-0.0116479617	 0.0325094537	 0.176357036	-0.176592
C	-1.4099540763	-0.5396426158	-0.1278179395	 0.031107
O	-1.8474489214	-0.1635683686	-1.41693928	-0.43761
C	-1.4282090428	-2.03460593	-0.0169413899	 0.388991
N	-1.6373316596	-2.8654800566	-0.9884778295	-0.331999
C	-1.5337206081	-4.1232906895	-0.4028264325	-0.110358
C	-1.2626305624	-3.971059092	 0.9120392714	-0.046246
O	-1.1914726115	-2.6266971823	 1.1745388131	-0.178788
H	 1.0186778157	 1.9459555238	 0.2727936896	 0.111266
H	-0.3149290997	 1.89116943	-0.8959488784	 0.140635
H	-0.6572766216	 2.0063244774	 0.836983034	 0.113001
H	 0.6949735536	-0.3984511249	-0.5430726698	 0.103321
H	 0.2944802273	-0.30503837	 1.1736859984	 0.104035
H	-2.1156865702	-0.1298520449	 0.6126226416	 0.09708
H	-1.8868442125	-0.9711822033	-1.9479491284	 0.29868
H	-1.6635143749	-5.0303119608	-0.9707226836	 0.131762
H	-1.1038761676	-4.6333994525	 1.7449394589	 0.150898
41.6476	97.0881	119.942	211.8886	248.1146	276.4088	279.9193	352.7249	433.4815	514.3291	627.3883	706.1667	758.0711	776.312	820.6321	862.9473	897.3309	933.2392	979.7939	1001.0534	1071.0949	1097.7376	1123.3437	1140.6495	1149.2612	1170.4764	1233.036	1283.209	1301.7857	1342.7857	1368.8756	1384.5629	1408.0097	1458.4536	1479.163	1495.9524	1509.557	1559.5842	1613.2961	2978.0353	3031.2452	3037.3554	3072.7461	3103.7612	3128.6007	3268.9021	3305.0963	3739.269
CCC(O)C1=NC=CO1	CC[C@@H](O)c1ncco1	
InChI=1S/C6H9NO2/c1-2-5(8)6-7-3-4-9-6/h3-5,8H,2H2,1H3	InChI=1S/C6H9NO2/c1-2-5(8)6-7-3-4-9-6/h3-5,8H,2H2,1H3/t5-/m1/s1
