21
gdb 78193	2.82231	1.23376	1.02319	0.7917	89.16	-0.2452	0.0501	0.2953	1264.1984	0.181127	-349.896564	-349.887263	-349.886319	-349.93013	36.002	
C	 0.0249225136	 1.5613221524	 0.0202645467	-0.418242
C	 0.0960143094	 0.0504977622	-0.0591023183	-0.026546
C	 0.6508521648	-0.7494857654	-1.208076243	-0.060957
C	 1.3240123228	-0.7916742292	 0.1659902809	-0.06544
C	 2.593990362	-0.1194898124	-0.4066998526	-0.218753
C	 3.8034273526	-0.9086499794	-0.2845598572	 0.318457
C	 4.8047929816	-1.5642568601	-0.1627049911	-0.448419
C	 1.9002885928	-0.1076641967	-1.8345077977	-0.003722
C	 2.5638099684	-0.9594532168	-2.9070904192	-0.401834
H	 0.8989604519	 2.0504111518	-0.4171977006	 0.121232
H	-0.8568191713	 1.9345859307	-0.5119580999	 0.116833
H	-0.0504903461	 1.892833947	 1.0616953738	 0.118517
H	-0.7831038287	-0.4321941885	 0.3658631113	 0.085753
H	 0.0673608088	-1.5204420286	-1.6996030059	 0.079227
H	 1.3529589977	-1.593853045	 0.8932715509	 0.091631
H	 2.7859872621	 0.8813292181	-0.0020656117	 0.096797
H	 5.6916606882	-2.1379781457	-0.0557364746	 0.190706
H	 1.7465334959	 0.9064227319	-2.2210903753	 0.069963
H	 2.7265027355	-1.9838127005	-2.5598196023	 0.126871
H	 1.9296529124	-0.998239294	-3.7997228637	 0.108192
H	 3.5352458258	-0.5479045117	-3.1967204307	 0.119731
95.6684	141.1346	169.1018	183.9863	230.3714	249.5649	296.0885	341.5061	422.3696	479.7123	541.4018	580.0337	616.3473	626.6404	716.3099	750.1602	797.5966	828.0879	890.3812	913.1871	946.8507	998.3071	1015.6571	1024.3647	1065.1662	1086.5963	1103.8499	1110.4314	1130.0197	1151.813	1199.4329	1213.1107	1246.4157	1292.5906	1317.4432	1349.789	1373.2659	1412.129	1417.3809	1440.6289	1490.9516	1494.5681	1495.8448	1504.306	2230.804	3024.6486	3032.0998	3034.3494	3038.0315	3090.645	3101.3986	3107.1233	3115.963	3124.5992	3164.3153	3186.1526	3504.8007
CC1C2C1C(C#C)C2C	C[C@H]1[C@@H]2[C@H]1[C@@H](C#C)[C@H]2C	
InChI=1S/C9H12/c1-4-7-5(2)8-6(3)9(7)8/h1,5-9H,2-3H3	InChI=1S/C9H12/c1-4-7-5(2)8-6(3)9(7)8/h1,5-9H,2-3H3/t5-,6+,7+,8-,9-/m1/s1
