17
gdb 106543	2.19943	1.68876	1.18369	2.0862	68.95	-0.2272	-0.0004	0.2268	1074.9969	0.134295	-458.908343	-458.899672	-458.898727	-458.941788	32.024	
C	-0.0439696961	 1.3423314411	 0.0238583223	-0.27339
O	 0.1274348398	-0.0716338305	 0.0105198834	-0.286785
C	 0.7045775376	-0.544548363	-1.1268033335	 0.295095
C	 2.1899536796	-0.3552719755	-1.6804020647	-0.312495
C	 1.522147813	-1.3311067023	-2.7056774241	-0.24332
C	 0.8759422127	-2.0536148331	-1.4550300676	 0.082145
O	 1.7198050775	-2.7377444272	-0.5722939674	-0.431959
C	 0.3140719599	-0.394593421	-2.6120946088	 0.376905
O	-0.4615016321	 0.1851332487	-3.3108001699	-0.336146
H	 0.9249411709	 1.85945427	 0.013263653	 0.117781
H	-0.6400449025	 1.6772451925	-0.832813967	 0.144313
H	-0.5667732105	 1.5848350254	 0.9504021989	 0.135387
H	 2.4757939853	 0.6305282486	-2.0476190922	 0.112399
H	 2.9472570026	-0.8152835431	-1.0509590641	 0.136668
H	 1.9730220825	-1.7867200109	-3.5807995145	 0.099737
H	-0.0489131151	-2.609278243	-1.6481574017	 0.090576
H	 1.9187989648	-3.5985461267	-0.953463202	 0.29309
69.7464	153.299	162.404	180.2475	252.6998	289.1588	300.416	367.8776	445.3216	546.9159	555.3841	655.6436	726.3587	770.0434	787.8602	830.7784	920.1736	951.7976	992.1823	1049.5736	1068.3204	1096.6498	1120.487	1127.4522	1159.0197	1178.9795	1181.0632	1206.4958	1232.7947	1303.6302	1361.5016	1441.5478	1487.4931	1490.6274	1506.2516	1513.3036	1909.3158	3008.5993	3040.8815	3076.5917	3097.1495	3137.2367	3184.0851	3188.0539	3823.2802
COC12CC(C1O)C2=O	CO[C@@]12C[C@@H]([C@H]1O)C2=O	
InChI=1S/C6H8O3/c1-9-6-2-3(4(6)7)5(6)8/h3-4,7H,2H2,1H3	InChI=1S/C6H8O3/c1-9-6-2-3(4(6)7)5(6)8/h3-4,7H,2H2,1H3/t3-,4+,6-/m0/s1
