19
gdb 18019	4.29962	1.54551	1.37869	1.4148	71.16	-0.2099	0.0677	0.2776	974.0583	0.166188	-365.000754	-364.993043	-364.992099	-365.033281	28.648	
C	 0.1174900812	 1.1634196815	-0.3266545747	-0.238626
O	-0.0153987833	-0.1287375731	 0.2234092651	-0.238307
C	-1.338663761	-0.5928154852	 0.2357575829	 0.131407
C	-1.9480177033	-1.1267771781	-1.0957161673	-0.213695
N	-2.2376447791	-2.4580731414	-0.4713516849	-0.131764
C	-1.1566291117	-3.4617029421	-0.7430357647	-0.161841
C	-0.3489923116	-3.0149834547	 0.5057912183	-0.248632
C	-1.4987069057	-2.0224728064	 0.7870609147	-0.013042
H	 1.1747815791	 1.4330997616	-0.2727094807	 0.128873
H	-0.2032290906	 1.1982969711	-1.3786910884	 0.109688
H	-0.469805137	 1.9050419893	 0.2369958208	 0.107177
H	-1.9914565077	 0.136311432	 0.7390788985	 0.066793
H	-2.8533070191	-0.6225504119	-1.4468189196	 0.10131
H	-1.2239647402	-1.1705085572	-1.9184296987	 0.099213
H	-1.5441160533	-4.4838948117	-0.6900208082	 0.103566
H	-0.6661372311	-3.3313362196	-1.7140324584	 0.099392
H	-0.2125601137	-3.7828206547	 1.2695986423	 0.102628
H	 0.6111990428	-2.5374518588	 0.3060848856	 0.123561
H	-2.0209779246	-2.1234454507	 1.7420881872	 0.072298
60.0232	105.2414	175.9003	197.9301	314.7672	396.2217	429.6913	496.1999	685.5113	720.9058	772.8083	808.2193	875.3174	911.7942	927.7982	978.3896	983.5152	1024.305	1032.2272	1089.7817	1115.0808	1165.4677	1173.1413	1183.8061	1198.6381	1213.7617	1223.4485	1240.2159	1260.4332	1282.2463	1293.0825	1315.4528	1348.7354	1391.3878	1478.3173	1484.1786	1485.889	1488.0833	1509.0561	1512.3531	2974.8288	2984.6716	3022.0181	3026.1191	3033.516	3065.9136	3076.8407	3079.8116	3082.2043	3116.8444	3136.1315
COC1CN2CCC12	CO[C@H]1CN2CC[C@@H]12	
InChI=1S/C6H11NO/c1-8-6-4-7-3-2-5(6)7/h5-6H,2-4H2,1H3	InChI=1S/C6H11NO/c1-8-6-4-7-3-2-5(6)7/h5-6H,2-4H2,1H3/t5-,6-/m0/s1
