23
gdb 86136	2.30111	1.39337	1.00439	2.6399	85.16	-0.2318	-0.0136	0.2182	1293.5182	0.205212	-388.341636	-388.331829	-388.330885	-388.376015	37.295	
C	-0.2618329966	 1.5370675188	-0.0509350653	-0.412736
C	 0.0635958318	 0.04573827	 0.0070799125	 0.018005
C	 0.9147858017	-0.4673087428	-1.1765434401	-0.231662
C	 1.3766999079	-1.8655198517	-0.7378770578	-0.081826
C	 2.6001373458	-2.4568966977	-1.4330454106	-0.406221
C	 1.5528230882	-1.7177534013	 0.7799755812	 0.404588
O	 2.1897542208	-2.4622788535	 1.4829368154	-0.335398
C	 0.8333221066	-0.4459628629	 1.2613960482	-0.108348
C	 1.8802203245	 0.5272512077	 1.8339456101	-0.39768
H	 0.6448948638	 2.1501811532	-0.0591458713	 0.118365
H	-0.8263015273	 1.7718700853	-0.9597043824	 0.113268
H	-0.8690180651	 1.8498342207	 0.8053304115	 0.114464
H	-0.8868011396	-0.5056665857	-0.0191733757	 0.074368
H	 0.3579078679	-0.4728618296	-2.1181193225	 0.098312
H	 1.788104089	 0.1830983028	-1.3233220553	 0.098501
H	 0.5290310386	-2.5598484135	-0.857590185	 0.100717
H	 3.4463744786	-1.7627356723	-1.3903284252	 0.116278
H	 2.9038485853	-3.3825500923	-0.9371719876	 0.137528
H	 2.3942912611	-2.6735688601	-2.4854423278	 0.111611
H	 0.1500217108	-0.7192831978	 2.0729780412	 0.093457
H	 2.5863391325	 0.8663081942	 1.0683295206	 0.117203
H	 1.4037992331	 1.4110170782	 2.2665743401	 0.118574
H	 2.4531289307	 0.0222810604	 2.6159119659	 0.138632
56.3996	128.1678	195.1712	217.9649	234.6614	249.4845	267.1674	284.2964	298.5127	380.0145	460.7803	496.104	558.9769	581.814	656.0247	767.1427	803.8155	884.0133	909.8368	925.3475	968.8694	980.6837	1022.8904	1034.6627	1067.4399	1091.0527	1107.603	1156.0101	1172.6033	1194.0486	1205.0749	1266.2652	1281.4384	1308.251	1327.6328	1348.7309	1354.9341	1378.9741	1401.011	1406.9162	1417.0341	1491.2703	1493.7458	1496.1101	1498.2979	1499.8672	1507.4621	1509.9334	1833.2313	2980.0328	2997.7947	3021.4544	3032.0243	3037.8022	3039.8466	3047.7485	3083.1074	3094.9485	3103.8683	3105.7725	3108.4274	3122.4236	3124.7764
CC1CC(C)C(=O)C1C	C[C@H]1C[C@@H](C)C(=O)[C@H]1C	
InChI=1S/C8H14O/c1-5-4-6(2)8(9)7(5)3/h5-7H,4H2,1-3H3	InChI=1S/C8H14O/c1-5-4-6(2)8(9)7(5)3/h5-7H,4H2,1-3H3/t5-,6+,7-/m0/s1
