21
gdb 99276	4.52957	0.66347	0.59423	3.8485	78.38	-0.2328	0.0651	0.2978	1902.7695	0.180658	-457.584752	-457.573378	-457.572433	-457.622686	39.32	
C	 0.1011761065	 1.3976277187	-0.1746539532	-0.321134
N	-0.1413816035	 0.0100234986	 0.1713194211	-0.361803
C	 0.6480588274	-0.6123913329	 1.1206134219	 0.502465
O	 1.431519936	-0.0084312232	 1.8360036848	-0.416064
N	 0.4696772417	-1.9776531849	 1.1857124446	-0.379853
C	 1.0465356439	-2.7420112886	 2.2735951136	-0.116759
C	 1.2409191042	-4.1935980117	 1.8508949185	 0.110384
C	 1.8309027606	-5.0462607855	 2.9709872557	-0.402095
O	-0.0572346732	-4.6592763578	 1.4662298558	-0.444355
H	 0.8125566455	 1.5136489432	-1.0040687752	 0.114839
H	-0.8383358191	 1.8871415041	-0.4484247468	 0.11656
H	 0.5211617968	 1.8884275853	 0.7035089014	 0.166501
H	-0.5424075535	-0.5730766012	-0.5460093279	 0.23263
H	-0.3576927073	-2.3863251221	 0.7789277589	 0.241942
H	 2.0010283322	-2.2819197223	 2.5347417672	 0.138144
H	 0.4103480185	-2.7185156215	 3.1719813379	 0.102479
H	 1.9124175066	-4.2094126656	 0.9780962491	 0.073301
H	 2.8224867302	-4.6828502634	 3.2597414459	 0.123676
H	 1.1806929687	-5.0274208936	 3.8510891243	 0.128114
H	 1.9391622789	-6.0881755442	 2.649805249	 0.106285
H	 0.0322997387	-5.5540254614	 1.1245305736	 0.284742
31.653	60.8473	84.0799	89.5141	145.2721	199.8653	226.4785	249.3624	281.2115	284.879	339.0731	405.2853	453.5801	467.9936	512.3011	584.8346	728.8665	768.0228	850.1274	909.0035	942.1137	980.6582	1062.8519	1088.0985	1128.9868	1145.0004	1153.1106	1171.0592	1195.3991	1213.478	1248.341	1297.7368	1349.2991	1386.0642	1407.0216	1433.1361	1439.4555	1486.6299	1490.0639	1494.7912	1497.7939	1503.7763	1516.2115	1563.2318	1779.6733	2976.5146	2993.2446	3007.4446	3031.5117	3079.3949	3098.3989	3113.5815	3125.6452	3155.8971	3619.9837	3626.621	3825.2248
CNC(=O)NCC(C)O	CNC(=O)NC[C@@H](C)O	
InChI=1S/C5H12N2O2/c1-4(8)3-7-5(9)6-2/h4,8H,3H2,1-2H3,(H2,6,7,9)	InChI=1S/C5H12N2O2/c1-4(8)3-7-5(9)6-2/h4,8H,3H2,1-2H3,(H2,6,7,9)/t4-/m1/s1
