21
gdb 87863	2.94313	1.38175	1.23027	1.3063	81.69	-0.2535	0.0799	0.3334	1114.8967	0.183978	-387.073931	-387.065859	-387.064915	-387.106182	32.877	
O	-0.7631580206	 1.3098785536	-0.6373898895	-0.420913
C	-0.4148049779	-0.022352821	-0.3936433671	 0.066928
C	-0.1455474346	-0.4876338755	 1.0154550079	-0.409084
C	-1.4236627481	-0.8888128739	 0.3133085101	 0.330584
C	-2.7784212201	-0.3088182164	 0.7268969135	-0.292621
C	-3.7867275808	-1.0751068407	-0.1199972514	-0.024038
C	-3.5056432711	-1.1765244349	-1.5989239011	-0.291532
C	-3.1014128342	-2.3050862056	-0.6801476721	-0.023727
C	-1.6666216466	-2.3202209446	-0.1706722716	-0.295096
H	 0.0094180577	 1.8576856846	-0.4651660334	 0.288055
H	 0.1591787116	-0.4911051646	-1.1944985742	 0.081028
H	 0.6221435328	-1.2373720476	 1.1813694072	 0.106422
H	-0.2314137125	 0.2580573481	 1.8002191622	 0.109302
H	-2.9680886766	-0.5040363024	 1.7902466842	 0.091844
H	-2.8117761014	 0.7733096245	 0.5745074522	 0.117374
H	-4.8178504156	-1.1112661451	 0.2136568069	 0.075129
H	-4.3527518491	-1.3557507997	-2.2523240914	 0.102568
H	-2.7405104618	-0.5386314523	-2.0298561824	 0.124694
H	-3.6268538596	-3.249867962	-0.7655622467	 0.075118
H	-0.9359223937	-2.6305194242	-0.9273197533	 0.092086
H	-1.5823684879	-3.0259024003	 0.66652885	 0.095881
92.2563	174.6916	238.444	274.3012	305.1805	365.2324	377.8035	445.9052	502.4356	533.8862	634.9325	772.7541	780.5812	811.9768	825.3567	869.9523	882.0403	889.5975	935.2443	951.776	1000.0061	1033.0297	1036.17	1053.113	1063.0211	1078.5269	1099.2745	1106.1797	1122.0438	1171.7061	1192.5685	1202.6174	1222.7809	1250.6019	1284.4191	1306.0231	1309.1922	1345.6726	1356.0833	1398.0574	1422.7843	1483.192	1488.8602	1491.1073	1502.2365	3013.9339	3023.1816	3051.5886	3084.2753	3093.033	3117.5121	3128.7937	3162.3449	3171.5544	3205.7247	3212.9076	3808.4805
OC1CC11CC2CC2C1	O[C@H]1C[C@]21C[C@H]1C[C@H]1C2	
InChI=1S/C8H12O/c9-7-4-8(7)2-5-1-6(5)3-8/h5-7,9H,1-4H2	InChI=1S/C8H12O/c9-7-4-8(7)2-5-1-6(5)3-8/h5-7,9H,1-4H2/t5-,6+,7-,8+/m0/s1
