19
gdb 97807	2.76291	0.74293	0.62253	2.3292	82.39	-0.2548	0.0108	0.2656	1810.7007	0.15658	-422.971172	-422.960791	-422.959847	-423.008769	35.804	
C	-0.0395291048	 1.4161628108	 0.0609040446	-0.376799
C	-0.4620281493	 0.0242983798	-0.4248148712	-0.223304
C	 0.5617345169	-0.5810754912	-1.3519725233	 0.094254
O	 1.7778370823	-1.0446875263	-0.7684096881	-0.243939
C	 0.9048948378	-2.0229860314	-1.36448572	-0.172612
C	 0.2721213687	-2.9768446677	-0.4953878396	 0.068349
C	-0.2465044573	-3.8022815734	 0.2142391355	 0.101948
C	-0.922042419	-4.7870686061	 1.0577330526	-0.198613
O	-2.2081077765	-4.3743763986	 1.4977861111	-0.399439
H	 0.9117295291	 1.3619475094	 0.5983553794	 0.136343
H	 0.0865974781	 2.1107702161	-0.776899624	 0.114395
H	-0.789231201	 1.8389533215	 0.7356965249	 0.11683
H	-0.6122812368	-0.6463551456	 0.4263497501	 0.122804
H	-1.4188017874	 0.0853557175	-0.9596069681	 0.100379
H	 0.7078512025	-0.0484306122	-2.2954904379	 0.091272
H	 1.2896729025	-2.4373192813	-2.2965647712	 0.112194
H	-0.968553418	-5.7491953308	 0.5228307278	 0.121309
H	-0.3374165676	-4.9611234988	 1.967910951	 0.146964
H	-2.71394945	-4.1242778917	 0.7175555862	 0.287663
22.2859	54.057	71.9017	121.131	160.6459	213.6447	240.9957	281.2522	346.1235	357.6339	443.0887	493.7325	556.3191	625.7989	742.2633	767.4003	835.0205	874.4635	934.6467	983.2147	1008.4417	1043.195	1055.9904	1090.4179	1130.7365	1176.624	1184.4957	1214.3314	1286.1813	1289.9506	1342.0318	1359.0082	1391.4748	1409.1044	1416.047	1461.7605	1476.2978	1487.8109	1499.0274	1508.2444	2354.2991	2977.8826	3029.7915	3036.8059	3064.7773	3071.1904	3088.6449	3106.2699	3109.474	3118.5435	3816.3594
CCC1OC1C#CCO	CC[C@H]1O[C@H]1C#CCO	
InChI=1S/C7H10O2/c1-2-6-7(9-6)4-3-5-8/h6-8H,2,5H2,1H3	InChI=1S/C7H10O2/c1-2-6-7(9-6)4-3-5-8/h6-8H,2,5H2,1H3/t6-,7+/m1/s1
