17
gdb 34332	2.92231	1.59061	1.30212	1.2228	78.17	-0.2442	0.0307	0.275	1005.2298	0.135124	-384.593624	-384.586115	-384.585171	-384.625316	30.183	
C	-0.0147656004	-1.2198160144	 0.0124238319	-0.385272
C	-0.0031957406	-0.0159665641	 0.0020366066	 0.160704
C	 0.0038129043	 1.418919137	 0.0039154742	 0.170623
C	-0.4613093831	 2.2050654497	-1.2707668425	-0.27847
C	 0.8722439426	 3.0127478454	-1.2738517819	-0.222949
C	 1.344828218	 2.260942774	 0.0010367593	-0.123455
C	 0.919505121	 2.8615567496	 1.3597023842	 0.029614
O	-0.3517409105	 3.5054373588	 1.1847082553	-0.240276
C	-0.3344061021	 2.0928156303	 1.3738439643	-0.050059
H	-0.024658165	-2.2815029286	 0.0140090934	 0.18719
H	-0.5867536339	 1.5508977292	-2.1347903101	 0.112876
H	-1.3666372996	 2.7954185625	-1.1251364655	 0.115516
H	 1.5007414058	 2.810480615	-2.1435069273	 0.103553
H	 0.7628719998	 4.091656345	-1.1554291807	 0.114582
H	 2.3081061743	 1.7529014458	-0.0033286481	 0.089002
H	 1.5434132256	 3.2280528091	 2.1668531824	 0.107771
H	-0.9331411462	 1.6820652958	 2.1790556945	 0.109049
127.2588	149.6776	203.7154	289.5117	382.1947	479.7028	493.4063	517.8195	605.1222	623.849	630.1216	700.9526	741.2504	805.3888	821.131	850.2886	877.2417	911.7425	949.2079	973.9408	1010.3868	1020.8035	1051.7302	1092.9055	1116.1381	1131.9733	1199.4457	1225.9796	1238.4629	1247.237	1267.4931	1296.7432	1307.6324	1376.8034	1460.9966	1481.2134	2226.9417	3074.0173	3082.5108	3123.6607	3131.0759	3146.5593	3175.5675	3190.5317	3502.108
C#CC12CCC1C1OC21	C#C[C@]12CC[C@H]1[C@H]1O[C@@H]21	
InChI=1S/C8H8O/c1-2-8-4-3-5(8)6-7(8)9-6/h1,5-7H,3-4H2	InChI=1S/C8H8O/c1-2-8-4-3-5(8)6-7(8)9-6/h1,5-7H,3-4H2/t5-,6+,7+,8-/m0/s1
