19
gdb 81826	2.11672	1.71271	1.1514	1.9644	81.53	-0.2445	0.0448	0.2893	1135.5152	0.156322	-385.829661	-385.820397	-385.819453	-385.863247	35.07	
C	-0.0906328319	 1.6000137977	-0.1943993342	-0.408402
C	-0.0109599722	 0.087954195	-0.0660416562	-0.01791
C	 0.681126783	-0.6818234161	-1.2015133148	-0.060041
O	 2.045311869	-0.236107645	-1.2443261109	-0.280871
C	 1.6968539685	-1.2574822429	-0.305202267	 0.420335
C	 2.4765439323	-2.5304915643	-0.30840303	-0.504087
C	 1.0708041912	-0.5422631033	 0.9233001087	-0.291145
C	 1.9260462516	 0.3316127425	 1.698143665	 0.354295
C	 2.6356883992	 1.0580309877	 2.3426672286	-0.465651
H	 0.8824869056	 2.0090151297	-0.4751875385	 0.143418
H	-0.8221614989	 1.8839116089	-0.9587767487	 0.110084
H	-0.3929687421	 2.0593681126	 0.751532705	 0.121405
H	-0.9918614051	-0.341982347	 0.1587870306	 0.078884
H	 0.2578747387	-1.0609752459	-2.125556254	 0.101498
H	 2.6543989989	-2.8644257731	-1.3339779891	 0.135941
H	 3.4472311011	-2.3864236164	 0.1787472598	 0.140962
H	 1.9411306399	-3.3176511624	 0.2320780007	 0.124332
H	 0.5842435286	-1.2721584242	 1.5790385891	 0.102377
H	 3.2674638526	 1.6992487663	 2.9057205658	 0.194577
103.5564	118.5782	169.861	197.6469	211.4916	228.3009	332.4938	341.8577	368.4294	513.7051	540.1363	584.8537	617.7948	633.5377	695.6485	725.639	794.0763	860.752	869.2219	894.7398	981.0335	1000.7569	1045.2325	1062.6633	1085.6415	1113.5325	1123.4512	1180.4644	1201.2433	1254.9482	1273.4289	1327.6244	1357.54	1403.2733	1408.23	1467.6428	1484.1256	1488.9549	1497.4843	1500.1195	2232.3145	3036.089	3038.4935	3047.4324	3065.7574	3099.9811	3103.2284	3122.4508	3132.1699	3175.9551	3503.6479
CC1C2OC2(C)C1C#C	C[C@H]1[C@H]2O[C@@]2(C)[C@H]1C#C	
InChI=1S/C8H10O/c1-4-6-5(2)7-8(6,3)9-7/h1,5-7H,2-3H3	InChI=1S/C8H10O/c1-4-6-5(2)7-8(6,3)9-7/h1,5-7H,2-3H3/t5-,6+,7-,8+/m1/s1
