19
gdb 108776	2.75172	1.23083	0.87551	5.9912	82.45	-0.2066	0.	0.2065	1317.2735	0.161589	-419.261548	-419.25269	-419.251746	-419.295023	33.146	
C	-0.1208658715	 1.4466994565	-0.0816350087	-0.323289
N	-0.0436864307	 0.0062308787	 0.0302482636	-0.349045
C	 0.6687448064	-0.6234362663	 1.0098455371	 0.376404
C	 1.2813105285	 0.008382091	 2.0417349917	-0.310297
C	 1.9245501592	-0.7173060612	 3.1404919819	 0.388698
O	 2.3663117997	-0.1711008918	 4.1403717347	-0.399311
N	 1.981327598	-2.0993510879	 2.9951126848	-0.334707
C	 1.8920340278	-2.6984259174	 1.6752880716	-0.16931
C	 0.6737248835	-2.1336414999	 0.9451003994	-0.294086
H	 0.8666829027	 1.9097854525	-0.2181402881	 0.131326
H	-0.7497141538	 1.7051145579	-0.9357018355	 0.127443
H	-0.5723639801	 1.8763214915	 0.8194387646	 0.145746
H	-0.2548516243	-0.5285269831	-0.7948835912	 0.24213
H	 1.2736816057	 1.084571325	 2.150081331	 0.08954
H	 2.6019080302	-2.5320305262	 3.6642503014	 0.237081
H	 2.7945664458	-2.5029649432	 1.0722426079	 0.100715
H	 1.7968415117	-3.7832869748	 1.7806861795	 0.108634
H	-0.2481501547	-2.5118436542	 1.4057439568	 0.133069
H	 0.6781782959	-2.4745955271	-0.0971977522	 0.099257
97.8417	150.6766	168.6733	189.2204	222.485	252.7918	325.4483	392.6883	459.225	491.4349	528.3255	572.2246	593.8839	695.2584	750.9341	809.6414	853.182	926.9562	942.2089	1004.7612	1069.8676	1081.6657	1133.4364	1154.2049	1179.1584	1218.7443	1253.769	1295.0477	1301.934	1345.7364	1378.9712	1406.6976	1458.3917	1461.8553	1471.0468	1479.1191	1512.3277	1516.5662	1544.0043	1671.8404	1767.0374	2960.7703	3003.4146	3022.6238	3063.1192	3067.1993	3074.8601	3129.4759	3222.0993	3605.4988	3650.8678
CNC1=CC(=O)NCC1	CNC1=CC(=O)NCC1	
InChI=1S/C6H10N2O/c1-7-5-2-3-8-6(9)4-5/h4,7H,2-3H2,1H3,(H,8,9)	InChI=1S/C6H10N2O/c1-7-5-2-3-8-6(9)4-5/h4,7H,2-3H2,1H3,(H,8,9)
