24
gdb 122520	4.33263	0.54875	0.53101	2.2372	87.08	-0.2456	0.0721	0.3177	2191.8285	0.216857	-405.526386	-405.515519	-405.514575	-405.563785	38.93	
C	-0.1167950475	 1.5483419002	-0.505109443	-0.380247
C	-0.0500932988	 0.1156123199	 0.0306503425	-0.166264
C	-1.402266769	-0.6035494339	-0.0034427799	-0.155041
C	-1.3412161402	-2.0391326302	 0.5351991101	-0.199423
C	-2.6902323844	-2.7217987423	 0.4879729207	-0.016009
N	-3.1026666846	-3.3252204885	-0.7938836222	-0.351324
C	-2.9212449883	-4.1891615954	 0.3929854435	-0.046514
C	-1.8409924659	-5.2363581177	 0.2462767276	-0.064538
O	-2.2097074905	-6.2052239051	-0.7217833773	-0.423249
H	 0.8627248801	 2.0353154327	-0.468586182	 0.11113
H	-0.4589333751	 1.5658658725	-1.5458546221	 0.114602
H	-0.8137353559	 2.1578244879	 0.0810351087	 0.112223
H	 0.6799551014	-0.46076459	-0.5528856177	 0.096544
H	 0.3287744166	 0.1267198947	 1.0615180988	 0.09294
H	-2.1353255027	-0.0261264837	 0.5778735923	 0.086639
H	-1.7805848592	-0.6297031641	-1.0336295263	 0.105749
H	-0.6159587324	-2.6121700611	-0.0506481287	 0.104835
H	-0.9793139998	-2.030587753	 1.5725096535	 0.094456
H	-3.4657977069	-2.1779449213	 1.0294949367	 0.080751
H	-4.0898618514	-3.1611805275	-0.9680835936	 0.232296
H	-3.8295023637	-4.5632301232	 0.8637522703	 0.086734
H	-0.8815372785	-4.7668846146	-0.0102428547	 0.089706
H	-1.7052886077	-5.7760297139	 1.1896572408	 0.106111
H	-2.4153425658	-5.7050417724	-1.520898188	 0.287891
41.0494	64.4062	85.1276	98.2673	133.0101	182.2141	242.9843	251.9644	290.7933	381.4903	441.6356	452.3643	484.4995	580.6265	736.0683	772.9183	814.5888	844.638	891.3314	909.2476	947.5823	972.604	993.7605	1014.9785	1038.7828	1066.1405	1068.9104	1092.7157	1130.0697	1161.1634	1185.0821	1230.1364	1256.9939	1267.8765	1275.7976	1284.8602	1318.56	1330.0043	1352.1847	1364.8484	1396.7006	1405.6096	1412.3195	1443.4369	1473.073	1482.6776	1486.4437	1498.079	1499.2122	1501.415	1512.4571	3003.9732	3009.2519	3013.1607	3019.5968	3028.9311	3035.0772	3055.0278	3072.0761	3080.8742	3094.51	3096.7876	3101.2252	3118.4428	3510.3537	3786.2985
CCCCC1NC1CO	CCCC[C@H]1N[C@H]1CO	
InChI=1S/C7H15NO/c1-2-3-4-6-7(5-9)8-6/h6-9H,2-5H2,1H3	InChI=1S/C7H15NO/c1-2-3-4-6-7(5-9)8-6/h6-9H,2-5H2,1H3/t6-,7+/m1/s1
