14
gdb 79315	4.14538	1.2402	1.15099	2.6394	66.98	-0.2676	-0.002	0.2656	1035.0874	0.101672	-436.627565	-436.620649	-436.619705	-436.659005	26.846	
O	 0.0245983684	 1.4506681258	-0.0159106871	-0.439775
C	 0.0083454642	 0.0624578949	-0.0070389177	 0.19618
C	-1.3321686108	-0.692417999	-0.0616034211	-0.238097
C	-1.6344152438	-0.7905475793	-1.5478118135	 0.030646
O	-0.6219954246	-0.0771205879	-2.2597689531	-0.293638
C	 0.3422446416	-0.66703082	-1.337551914	-0.06944
C	-0.6870284678	-1.7887975321	-0.9367741865	 0.252445
C	-0.6513903519	-3.1968472939	-0.8415857342	 0.122895
N	-0.6123643935	-4.351733992	-0.7640165228	-0.355481
H	-0.3649911489	 1.7194045257	-0.8593864265	 0.292227
H	 0.6283102492	-0.2927308955	 0.8184737389	 0.116469
H	-2.0795657835	-0.8281832477	 0.7082652551	 0.125424
H	-2.6100516537	-0.9177139351	-1.9953737196	 0.143809
H	 1.3398932852	-0.7747288039	-1.7535867878	 0.116336
116.4152	152.0508	247.9469	333.1406	468.8855	493.7675	503.6442	534.6622	630.4662	655.7133	757.4814	779.2268	824.4713	882.9953	924.3242	930.9461	968.9793	1007.9756	1018.4514	1030.5063	1100.5132	1113.359	1154.4297	1188.5648	1221.7453	1262.5064	1291.9408	1324.5827	1426.6588	1440.269	2345.9614	3110.1793	3174.5768	3220.1991	3232.9914	3758.3877
OC1C2C3OC1C23C#N	O[C@H]1[C@H]2[C@H]3O[C@@H]1[C@@]23C#N	
InChI=1S/C6H5NO2/c7-1-6-2-3(8)5(6)9-4(2)6/h2-5,8H	InChI=1S/C6H5NO2/c7-1-6-2-3(8)5(6)9-4(2)6/h2-5,8H/t2-,3-,4+,5-,6-/m0/s1
