18
gdb 43827	2.94552	1.47438	1.15412	1.787	76.07	-0.2352	-0.0136	0.2216	1078.1483	0.149192	-401.940227	-401.932809	-401.931865	-401.972129	29.711	
O	 0.087515643	-0.0155702113	 0.1119590714	-0.330984
C	 0.0277962871	 1.1813349802	-0.0154943454	 0.424733
C	-1.2654256861	 1.9951893013	-0.2159350382	-0.45515
C	-0.8114886059	 3.2601345406	-0.9391318935	 0.365226
C	-1.3926344654	 3.6513855128	-2.2465496055	-0.296981
N	-1.645369378	 4.4629239182	-1.0372875434	-0.364756
C	 0.6609798545	 3.4397674085	-0.6499164685	-0.083934
C	 1.0694314519	 3.3724616924	 0.7836448723	-0.298242
C	 1.1853580443	 2.1237516748	-0.0854923304	-0.151877
H	-2.0029765646	 1.403905732	-0.7620443553	 0.132528
H	-1.6944461727	 2.2239739673	 0.7689030752	 0.131669
H	-0.7733022678	 4.1365090238	-2.996954981	 0.119868
H	-2.1987043255	 3.0440865286	-2.6507323906	 0.114567
H	-2.5796096157	 4.2717561804	-0.6822402841	 0.230769
H	 1.2544821574	 4.0239242535	-1.3430011354	 0.0998
H	 2.0104351786	 3.8338666122	 1.0602414019	 0.128704
H	 0.3128148507	 3.4076221395	 1.5600640284	 0.125122
H	 2.1660458041	 1.7201813153	-0.3019689579	 0.108938
85.1093	166.7688	270.7009	305.2986	350.6277	429.494	483.8975	498.6323	545.1722	651.2972	735.7389	782.2274	831.7767	849.3506	877.361	903.3582	939.4472	951.3422	965.1643	979.2022	997.0109	1063.3424	1069.4642	1078.3643	1101.0092	1135.4618	1167.1394	1183.2265	1201.8856	1250.8389	1264.946	1310.5814	1327.5773	1338.1054	1425.275	1458.5496	1493.1014	1515.2316	1837.4309	3026.5995	3101.4655	3112.7106	3137.5561	3182.9981	3187.1631	3202.0777	3224.1277	3492.3436
O=C1CC2(CN2)C2CC12	O=C1C[C@]2(CN2)[C@H]2C[C@@H]12	
InChI=1S/C7H9NO/c9-6-2-7(3-8-7)5-1-4(5)6/h4-5,8H,1-3H2	InChI=1S/C7H9NO/c9-6-2-7(3-8-7)5-1-4(5)6/h4-5,8H,1-3H2/t4-,5+,7+/m1/s1
