21
gdb 89326	1.89042	1.71774	1.09948	0.861	91.12	-0.2244	0.0409	0.2653	1211.2071	0.180452	-349.910294	-349.900737	-349.899793	-349.943991	36.946	
C	-0.1365218722	 1.572616711	 0.0544032893	-0.413949
C	 0.0669631605	 0.0644431998	 0.0006887432	-0.026608
C	 1.1745037177	-0.5338047248	-0.9314460252	-0.307832
C	 1.7951951981	-1.2682914601	 0.2660210353	 0.29301
C	 2.3106584351	-2.6768206822	 0.2390914964	-0.490449
C	 2.1984431675	-0.2622392151	 1.2976019237	-0.376907
C	 0.7299238341	-0.6379626429	 1.2078396664	 0.161071
C	 0.0262370289	-1.2252362627	 2.2949152533	 0.181434
C	-0.593107247	-1.727962477	 3.1980502306	-0.425537
H	 0.7971167984	 2.1027413926	 0.2690412141	 0.113618
H	-0.5170225169	 1.9472333427	-0.9022906508	 0.114287
H	-0.8601890064	 1.8413185103	 0.8312766813	 0.123841
H	-0.8879253143	-0.4249785303	-0.2102787675	 0.080781
H	 0.7662912901	-1.2075584615	-1.6885627775	 0.101845
H	 1.8312825405	 0.1896277655	-1.4274037686	 0.094104
H	 3.274474901	-2.734529595	-0.2815338394	 0.12075
H	 2.4553070658	-3.0615455253	 1.2535532909	 0.127308
H	 1.6133331427	-3.3459201206	-0.2770995208	 0.119454
H	 2.7055632763	-0.6614929472	 2.1697304872	 0.121579
H	 2.523651381	 0.7353129569	 1.0109327744	 0.106888
H	-1.134245361	-2.166693104	 3.9988585835	 0.181312
104.356	135.6132	159.2736	189.7447	223.5262	224.5512	325.0812	349.4517	397.5834	450.6886	523.1304	535.0662	554.5709	578.7989	641.7269	665.9302	737.0657	801.3237	840.9199	889.1746	928.6197	964.5073	978.1488	1021.0608	1059.2822	1076.842	1107.5915	1123.3528	1165.1766	1175.4204	1228.2386	1244.9783	1258.7886	1328.8394	1363.7	1392.6172	1410.4972	1424.5659	1479.8009	1483.8534	1493.6454	1495.5914	1497.0902	1508.1178	2223.4554	3021.7434	3029.52	3039.5044	3061.5184	3080.8581	3095.6121	3098.8047	3102.2123	3103.9911	3108.0369	3202.6187	3503.5978
CC1CC2(C)CC12C#C	C[C@H]1C[C@@]2(C)C[C@@]12C#C	
InChI=1S/C9H12/c1-4-9-6-8(9,3)5-7(9)2/h1,7H,5-6H2,2-3H3	InChI=1S/C9H12/c1-4-9-6-8(9,3)5-7(9)2/h1,7H,5-6H2,2-3H3/t7-,8-,9-/m0/s1
