17
gdb 31634	3.60888	1.10494	0.89334	3.5336	72.54	-0.1864	0.0443	0.2308	1296.9542	0.135403	-455.186578	-455.177199	-455.176255	-455.221424	32.778	
C	 0.2758492033	 1.1037979887	 0.4337505371	-0.250477
O	-0.4406646485	 0.2718330753	-0.48509424	-0.266697
C	 0.3322896957	-0.4784662797	-1.2951849752	 0.372191
C	 0.6081676325	-1.796955649	-1.2681003013	-0.235751
N	 1.4157230931	-2.0780107699	-2.3786040173	-0.090001
C	 1.9234139366	-3.3711816306	-2.772385354	-0.344035
C	 1.6475474422	-0.9273233653	-3.1203157715	 0.462506
O	 2.2791585008	-0.815696463	-4.1552672882	-0.444826
N	 0.9863588504	 0.0677241351	-2.4035915483	-0.428133
H	 0.9039857035	 0.496568392	 1.0957205023	 0.126814
H	 0.9072092809	 1.8301746709	-0.0919482244	 0.122878
H	-0.4760280521	 1.6348347915	 1.0196547359	 0.138907
H	 0.3099934968	-2.5527260766	-0.5632662952	 0.137167
H	 1.1080836998	-4.0772485726	-2.965881523	 0.130307
H	 2.4946315408	-3.2235048924	-3.6903604051	 0.171314
H	 2.580279048	-3.792499952	-2.0032459395	 0.128609
H	 0.8484984962	 0.9915217176	-2.7748002925	 0.269229
51.7408	111.3081	121.1005	146.9436	166.2071	226.8848	282.0375	351.5266	405.9536	419.2381	555.8311	588.9998	653.3361	694.1179	725.6346	754.5909	839.6323	982.4894	1041.5441	1060.7673	1158.6617	1162.1952	1172.6625	1187.2143	1215.4143	1269.3971	1324.1954	1399.2825	1421.4267	1462.7408	1479.3719	1487.1224	1494.5841	1502.4459	1515.295	1709.5022	1823.8837	3016.5318	3025.4814	3078.9087	3082.9372	3140.6995	3146.2098	3290.3129	3688.6548
COC1=CN(C)C(=O)N1	COc1cn(C)c(=O)[nH]1	
InChI=1S/C5H8N2O2/c1-7-3-4(9-2)6-5(7)8/h3H,1-2H3,(H,6,8)	InChI=1S/C5H8N2O2/c1-7-3-4(9-2)6-5(7)8/h3H,1-2H3,(H,6,8)
