18
gdb 71859	2.82604	1.72537	1.35393	4.1062	75.61	-0.2442	-0.0062	0.2381	993.1881	0.148474	-401.949224	-401.941847	-401.940903	-401.980825	29.474	
C	-0.0668716726	 1.5249212184	 0.0269006359	-0.493278
C	-0.0289249006	 0.0313004641	-0.0558981888	 0.331674
C	 0.8121148857	-0.8083048437	-1.0343883941	-0.297674
C	-0.1585198024	-2.0111754485	-0.7813046234	-0.062261
C	 0.3827315692	-2.8901128797	 0.343040777	-0.32515
C	 0.5349575372	-1.8578637481	 1.4700205584	 0.382296
O	 1.2535827329	-1.9173556865	 2.4263933559	-0.3069
N	-0.3373450856	-0.7442087506	 1.1950802728	-0.177096
C	-1.0909523093	-1.0107403471	-0.0368755139	-0.107258
H	 0.8772133928	 1.9153987184	 0.4223502718	 0.134927
H	-0.2225140911	 1.960383623	-0.9662185651	 0.120149
H	-0.8723723126	 1.8534085964	 0.6877851678	 0.13914
H	 0.7079088789	-0.4130516393	-2.0481740518	 0.111818
H	 1.8750393333	-0.9564274359	-0.8141047562	 0.107945
H	-0.5362223193	-2.5306451779	-1.6599424911	 0.08205
H	-0.3348832183	-3.6641475871	 0.642490885	 0.12895
H	 1.3415321297	-3.3717478741	 0.1388320846	 0.130184
H	-2.172740058	-0.9476358718	-0.0219967747	 0.100482
121.5829	182.8436	196.1987	287.9523	379.7871	414.5225	491.0162	533.2473	613.1926	643.9031	691.8598	739.5983	806.4238	852.8464	861.5842	900.3648	919.5169	952.0063	1000.3262	1005.0609	1014.2877	1052.5906	1073.0282	1123.0388	1142.8245	1156.4365	1205.1241	1209.3389	1238.7811	1259.6211	1287.0327	1318.5819	1396.2729	1432.8139	1459.1843	1482.0674	1488.7038	1497.2618	1866.6863	3034.1527	3040.3655	3043.0474	3095.8521	3103.978	3114.1799	3126.7729	3132.6251	3184.2177
CC12CC3CC(=O)N1C23	C[C@@]12C[C@H]3CC(=O)N1[C@@H]23	
InChI=1S/C7H9NO/c1-7-3-4-2-5(9)8(7)6(4)7/h4,6H,2-3H2,1H3	InChI=1S/C7H9NO/c1-7-3-4-2-5(9)8(7)6(4)7/h4,6H,2-3H2,1H3/t4-,6-,7+,8?/m1/s1
