19
gdb 91977	2.67577	1.50779	1.20861	2.0157	80.05	-0.2502	0.0524	0.3026	1088.864	0.158948	-385.852559	-385.844194	-385.84325	-385.885199	32.743	
C	 0.7546917623	 1.435142408	-0.4325959139	-0.395744
C	 0.0837473662	 0.1407989405	 0.0391819365	-0.013693
C	-0.0020088817	-0.9295624916	-1.0872170372	-0.257642
C	 1.1809218473	-1.8471327843	-0.8570346491	 0.046259
O	 2.4210024634	-1.1527045746	-0.6407487873	-0.248209
C	 1.7049114699	-1.6411969374	 0.4948493784	 0.042061
C	 0.8483239847	-0.5933731774	 1.2039515519	-0.206319
C	 1.5795974008	 0.2624126528	 2.1275276918	 0.328285
C	 2.1834521174	 0.949535409	 2.9075849507	-0.459143
H	 1.762229321	 1.2400709812	-0.8051488157	 0.143853
H	 0.1669814973	 1.8853677531	-1.2397952206	 0.102965
H	 0.823638155	 2.1607971576	 0.3818850518	 0.12291
H	-0.9214963673	 0.3885298376	 0.3924612594	 0.081222
H	-0.9225881415	-1.520937788	-1.008798986	 0.102006
H	 0.0080231248	-0.4734975117	-2.0822786401	 0.111621
H	 1.2661219198	-2.7948165614	-1.3830307348	 0.095642
H	 2.2086831851	-2.4088006591	 1.0765895066	 0.102594
H	 0.1081713961	-1.160873449	 1.7877077611	 0.106621
H	 2.7213593492	 1.5597225946	 3.5900451466	 0.19471
93.8249	146.9552	189.4716	231.0916	297.4219	352.9861	373.0922	395.4816	499.7517	541.5835	621.2521	635.8971	664.6597	749.8043	794.568	812.9395	876.5571	884.3977	901.7167	959.9957	1004.393	1038.0088	1057.8805	1073.7803	1097.2104	1104.2997	1143.8943	1226.8595	1238.9417	1263.9551	1291.2069	1314.723	1330.9805	1355.9808	1370.2835	1405.3502	1444.6388	1480.0703	1494.3607	1510.9946	2235.2515	2994.4007	3032.8663	3041.6769	3059.6272	3082.662	3110.0673	3141.41	3141.8507	3155.202	3503.9707
CC1CC2OC2C1C#C	C[C@H]1C[C@H]2O[C@H]2[C@H]1C#C	
InChI=1S/C8H10O/c1-3-6-5(2)4-7-8(6)9-7/h1,5-8H,4H2,2H3	InChI=1S/C8H10O/c1-3-6-5(2)4-7-8(6)9-7/h1,5-8H,4H2,2H3/t5-,6-,7+,8-/m0/s1
