17
gdb 32443	3.18207	1.21374	0.89057	0.4524	72.26	-0.1736	0.0531	0.2267	1268.3911	0.135753	-455.150371	-455.140845	-455.1399	-455.184511	34.48	
C	-0.15519405	 1.411352708	-0.0516061401	-0.323562
N	 0.1529652037	 0.0007954734	 0.0795592892	-0.39069
C	 0.7009689383	-0.6483679469	-1.0135702455	 0.294377
C	 1.323431765	-0.1486041133	-2.117114921	-0.158047
O	 1.7385969604	-1.2072431792	-2.9272387773	-0.207461
C	 1.3614482684	-2.3378369479	-2.3052776741	 0.387821
O	 1.6366639571	-3.5068468187	-2.915831091	-0.437271
C	 0.7156123263	-2.0901251766	-1.135780113	-0.045952
N	 0.0828997276	-2.9700288629	-0.2191845232	-0.629712
H	 0.7728903785	 1.9816124096	-0.1744845953	 0.128421
H	-0.8048488671	 1.6393265574	-0.9125967502	 0.109051
H	-0.6424809709	 1.7636039578	 0.8606154271	 0.121222
H	-0.5789013252	-0.5559591102	 0.5023898931	 0.240258
H	 1.5693656185	 0.8333690783	-2.4752464931	 0.119942
H	 1.9551861004	-3.3095941102	-3.8043674383	 0.305997
H	-0.2008615706	-3.8286746413	-0.6779841325	 0.243612
H	 0.7011725796	-3.2288319972	 0.5450163453	 0.241996
89.0176	140.8848	158.656	175.6041	197.6047	231.1539	257.8864	303.6419	347.7997	387.2753	540.5937	547.3453	582.0699	634.0607	676.0999	711.7788	764.3204	779.317	854.2271	1001.5587	1070.303	1095.5866	1153.2394	1165.6302	1179.5501	1236.7597	1275.8564	1301.0933	1366.3693	1448.0158	1458.1205	1481.2198	1514.1281	1530.1522	1643.4905	1660.3059	1741.8223	2969.678	3055.2791	3116.0761	3309.2705	3482.9993	3564.3186	3572.5682	3816.16
CNC1=COC(O)=C1N	CNc1coc(O)c1N	
InChI=1S/C5H8N2O2/c1-7-3-2-9-5(8)4(3)6/h2,7-8H,6H2,1H3	InChI=1S/C5H8N2O2/c1-7-3-2-9-5(8)4(3)6/h2,7-8H,6H2,1H3
