15
gdb 127325	3.40584	1.78818	1.18152	5.9791	72.95	-0.2079	0.0067	0.2146	977.8208	0.115592	-413.006027	-412.998858	-412.997914	-413.038098	26.611	
C	 0.0173440802	 1.4368502987	 0.0451391108	-0.346464
N	-0.0313930576	-0.0094564263	-0.009735201	-0.167316
C	-0.0248214433	-0.8185693418	-1.1399402476	-0.09988
C	 0.0162232297	-2.1268661539	-0.7711473096	-0.15022
N	 0.0464617672	-2.1323358197	 0.6243171362	-0.048802
C	 0.0887472595	-2.8727124321	 1.7842594198	-0.027474
N	 0.0952210085	-2.0667283157	 2.8221629754	-0.219451
N	 0.0581728476	-0.7515676911	 2.3891243135	-0.37614
C	 0.0262334721	-0.8383690035	 1.0793427228	 0.53244
H	 1.0482703901	 1.8071102635	 0.0748440807	 0.14764
H	-0.4867651344	 1.8511832044	-0.830559539	 0.141059
H	-0.500071979	 1.7731080187	 0.9458589742	 0.17384
H	-0.059576057	-0.3884975207	-2.1274989298	 0.147
H	 0.0155742733	-3.022200579	-1.3661802191	 0.15324
H	 0.1120579432	-3.9488717716	 1.8153313726	 0.140528
67.7985	124.6224	230.6997	249.8339	336.9427	530.1507	580.7208	623.3647	645.7635	678.8601	724.7403	744.6564	759.7608	787.4559	846.0201	985.5782	1031.3641	1046.9602	1111.2548	1151.9853	1164.5856	1222.8919	1272.014	1280.8752	1342.1819	1408.869	1439.7295	1456.3542	1484.9938	1500.7103	1514.9428	1597.1444	1643.382	3036.2924	3108.6865	3144.7257	3272.6232	3285.2553	3304.1262
CN1C=CN2C=NN=C12	Cn1ccn2cnnc12	
InChI=1S/C5H6N4/c1-8-2-3-9-4-6-7-5(8)9/h2-4H,1H3	InChI=1S/C5H6N4/c1-8-2-3-9-4-6-7-5(8)9/h2-4H,1H3
