19
gdb 91436	2.46744	1.6239	1.16988	2.2133	75.04	-0.2437	-0.027	0.2167	1083.2392	0.158131	-422.999624	-422.991161	-422.990217	-423.033153	31.585	
C	 0.1216954688	 1.3709970017	-0.5450473665	-0.394796
C	-0.0215134057	 0.0477651232	 0.176080315	 0.14732
O	 0.2705300285	-1.0929930759	-0.6854696053	-0.308624
C	 1.1797702279	-1.6438630604	 0.2735049249	 0.131381
C	 2.6552284934	-1.2151805772	 0.0289833346	-0.286572
C	 2.482798402	-0.1403484888	 1.1550611281	-0.081147
C	 3.0116552383	 1.2563876798	 0.9820823454	 0.134524
O	 2.4421223385	 2.2608754779	 1.3277678986	-0.248693
C	 0.9703513774	-0.462117923	 1.2605195968	-0.12997
H	 1.1072505365	 1.4797905819	-1.0033926641	 0.115494
H	-0.6272524728	 1.4286126742	-1.3416941387	 0.119644
H	-0.0293940228	 2.2059371861	 0.1438674813	 0.137832
H	-1.0484457749	-0.0455407367	 0.5568763348	 0.082372
H	 0.9841862677	-2.6952510243	 0.4988688686	 0.07981
H	 3.4178185845	-1.9720283918	 0.2246295142	 0.107014
H	 2.7933946703	-0.8157026264	-0.9783487622	 0.119651
H	 2.980009917	-0.5112006205	 2.0633001241	 0.11562
H	 4.0290730702	 1.3033487975	 0.5251663984	 0.076595
H	 0.5559913451	-0.5595358573	 2.2624081218	 0.082544
64.6029	95.497	146.3465	203.3609	263.5211	308.2878	368.3364	416.3747	483.8043	582.3467	683.9943	714.5842	764.3097	838.8511	866.3208	881.7258	921.2274	937.0116	1012.0648	1033.0202	1040.7826	1078.1094	1086.5121	1103.5067	1140.8137	1171.2021	1185.1054	1198.9303	1237.9451	1261.1472	1298.6536	1307.7572	1333.6672	1351.4584	1393.2754	1410.5231	1419.2337	1470.8516	1476.2945	1499.1121	1821.0931	2847.7892	2996.2751	3007.0167	3045.1567	3065.843	3076.4	3115.6837	3123.1297	3127.5664	3134.8911
CC1OC2CC(C=O)C12	C[C@H]1O[C@H]2C[C@@H](C=O)[C@@H]12	
InChI=1S/C7H10O2/c1-4-7-5(3-8)2-6(7)9-4/h3-7H,2H2,1H3	InChI=1S/C7H10O2/c1-4-7-5(3-8)2-6(7)9-4/h3-7H,2H2,1H3/t4-,5+,6+,7-/m1/s1
