16
gdb 44137	3.62322	1.11456	1.03004	1.8528	70.81	-0.2651	0.0107	0.2759	1177.4963	0.12407	-437.821696	-437.814156	-437.813212	-437.854516	28.383	
N	-0.327971733	 1.2596665872	 0.0562837202	-0.552896
C	-0.171061377	 0.0184035164	 0.0270452163	 0.449888
O	 0.9963135354	-0.7429776491	-0.1084510846	-0.272572
C	 0.1946715436	-1.9478505181	-0.2185331939	 0.062035
C	-0.5431772629	-2.1977708136	 1.0499765655	-0.068772
C	-0.0205178609	-1.8473602897	 2.4034590752	 0.07645
C	-0.7401179049	-2.240027184	 3.6207111002	-0.185291
O	 0.4210467028	-2.9556024838	 3.1948664153	-0.236676
C	-1.0777087047	-1.1690552655	 0.0359746518	-0.231797
H	 0.5651726742	 1.7494062484	-0.0195861925	 0.234345
H	 0.4730947993	-2.6600636603	-0.9828079801	 0.130307
H	-1.126845017	-3.1159392693	 1.0331978555	 0.114751
H	 0.6315784789	-0.9776436403	 2.4457891423	 0.116966
H	-0.6238764736	-1.6513992774	 4.5293062844	 0.122055
H	-1.6809969642	-2.7830106651	 3.5375072616	 0.113693
H	-2.065199696	-1.2278066359	-0.3966738871	 0.127512
61.7546	103.4514	175.1654	257.2697	334.835	420.0312	458.4823	598.3195	688.7375	727.9026	788.7723	823.945	857.2724	866.9327	872.5556	914.2995	944.4013	958.1875	984.5967	1034.8459	1050.8255	1057.6733	1080.1453	1099.0043	1155.1036	1166.1549	1194.1989	1211.7499	1279.5246	1299.2889	1312.9241	1362.8874	1481.5001	1531.6525	1833.3359	3082.8537	3138.0518	3146.4756	3171.1495	3218.0139	3235.6938	3480.4953
N=C1OC2C(C3CO3)C12	[NH][C]1O[C@H]2[C@@H]([C@H]3CO3)[C@@H]12	
InChI=1S/C6H7NO2/c7-6-4-3(2-1-8-2)5(4)9-6/h2-5,7H,1H2	InChI=1S/C6H7NO2/c7-6-4-3(2-1-8-2)5(4)9-6/h2-5,7H,1H2/t2-,3+,4-,5+/m1/s1
