18
gdb 85370	2.23403	1.77017	1.05157	3.8095	84.91	-0.2321	-0.0601	0.172	1142.141	0.148785	-401.967013	-401.958962	-401.958017	-401.999608	31.169	
C	-0.262614598	 1.4247229311	 0.0150185945	-0.408309
C	 0.1432957497	-0.0408272321	 0.0696429766	 0.056484
O	 0.7292712652	-0.3454561816	-1.212831498	-0.233781
C	 0.691637943	-1.6255001506	-1.6581447215	 0.366834
N	 0.696950135	-1.7812210614	-2.9246562739	-0.493826
C	 0.7313730372	-2.740041692	-0.6903665885	-0.182072
C	 1.1719320832	-2.7401893164	 0.5850039887	-0.081247
C	 1.5498051441	-1.5974597404	 1.397192993	-0.088276
C	 1.1005036207	-0.352862006	 1.1875077438	-0.059837
H	 0.6151841202	 2.0561123561	-0.1514157564	 0.134853
H	-0.9685314662	 1.5944391498	-0.8005550804	 0.134617
H	-0.732749988	 1.7210318447	 0.9576877356	 0.118837
H	-0.7514231426	-0.6706672826	 0.1878321559	 0.100135
H	 0.7519967421	-2.7723308895	-3.1536582389	 0.218374
H	 0.4917617071	-3.700757925	-1.1378923978	 0.103762
H	 1.270037734	-3.7112281196	 1.0661547585	 0.107254
H	 2.2042951376	-1.797344893	 2.2414842691	 0.102765
H	 1.4102570855	 0.4605287184	 1.8374051696	 0.103433
78.0707	151.3183	228.8596	247.9709	303.1938	372.2265	383.8499	422.3644	489.7501	550.5237	642.9698	702.9218	754.4753	803.5404	830.0209	844.3963	862.1043	919.3202	952.2627	993.0463	1011.0524	1018.279	1063.7885	1120.7141	1138.9985	1160.1184	1231.7665	1247.8552	1330.2265	1348.8518	1391.0248	1409.7347	1418.0278	1453.3579	1485.1754	1497.7771	1635.0964	1672.9763	1699.9735	2988.9782	3046.3418	3118.7916	3135.5149	3141.9535	3158.4297	3169.8718	3180.7199	3500.3644
CC1OC(=N)C=CC=C1	C[C@H]1O[C]([NH])C=CC=C1	
InChI=1S/C7H9NO/c1-6-4-2-3-5-7(8)9-6/h2-6,8H,1H3	InChI=1S/C7H9NO/c1-6-4-2-3-5-7(8)9-6/h2-6,8H,1H3/t6-/m1/s1
