17
gdb 47602	2.33817	1.89592	1.16621	3.3727	67.66	-0.233	-0.0406	0.1924	1029.5648	0.13717	-458.947124	-458.939628	-458.938684	-458.979987	28.073	
O	-0.0284229248	 0.0709644728	 0.4178780428	-0.29051
C	-0.0568254633	 1.2167662851	 0.0424178447	 0.352609
C	-1.3704092438	 1.9328985385	-0.2650153081	-0.192167
O	-1.2162692564	 3.0525133733	-1.1138616058	-0.239886
C	-0.3224315879	 4.0046710874	-0.5608832534	-0.101324
C	 1.1208708258	 3.493476438	-0.6146432506	-0.085517
C	 1.9655900099	 3.8084420291	 0.6348331579	-0.089309
O	 1.725820062	 2.4846083847	 1.1687338292	-0.290518
C	 1.2255835741	 2.0336144451	-0.1178801674	 0.045735
H	-2.0447963424	 1.2293230572	-0.75921732	 0.143343
H	-1.8314963738	 2.2231648593	 0.6962518404	 0.124636
H	-0.4406942231	 4.9206301187	-1.1456434351	 0.117958
H	-0.6105443015	 4.2275190154	 0.4797372437	 0.098803
H	 1.5760020291	 3.6941359776	-1.5855557033	 0.090252
H	 3.0320359059	 3.9714631256	 0.432821836	 0.10738
H	 1.5993596597	 4.5949827204	 1.3041332103	 0.111039
H	 1.9712437805	 1.4182025616	-0.6384439913	 0.097476
42.0172	110.2632	226.7294	302.699	350.0598	418.6133	439.1106	473.9203	572.6787	661.7249	744.8622	823.2211	861.2704	907.1199	955.5694	980.8202	985.4043	1009.548	1053.5061	1088.5891	1133.5041	1145.9966	1183.3208	1212.9282	1240.9553	1251.7279	1260.8913	1320.4001	1335.9192	1340.9649	1362.5753	1364.9273	1412.8651	1455.6448	1499.7932	1522.8476	1827.206	2953.4047	2972.9885	3013.9874	3020.9232	3067.4499	3087.7968	3105.8925	3108.0638
O=C1COCC2COC12	O=C1COC[C@H]2CO[C@@H]12	
InChI=1S/C6H8O3/c7-5-3-8-1-4-2-9-6(4)5/h4,6H,1-3H2	InChI=1S/C6H8O3/c7-5-3-8-1-4-2-9-6(4)5/h4,6H,1-3H2/t4-,6+/m0/s1
