21
gdb 56252	5.4112	0.55114	0.52589	3.7217	80.31	-0.2435	-0.0091	0.2344	2104.3496	0.179298	-424.229907	-424.219394	-424.218449	-424.267655	36.214	
C	 0.2399107681	 1.4882311021	-0.0547613873	-0.473003
C	 0.1128763196	-0.0207568419	 0.0702961917	 0.378321
O	 0.1506912547	-0.577678438	 1.1432166139	-0.289021
C	-0.0675309117	-0.7901793691	-1.23387604	-0.306735
C	-0.0161021157	-2.3078658699	-1.0686029283	-0.16539
C	-0.2903670143	-3.060312759	-2.3769119713	-0.231246
C	-0.1981152295	-4.5568059166	-2.2041973606	 0.10097
C	 0.3164181239	-5.4437162267	-3.2539546186	-0.181896
O	 1.12039862	-5.1081030907	-2.1217268624	-0.235436
H	 1.1766539078	 1.7406431138	-0.5655544668	 0.141012
H	-0.5730521891	 1.9014765965	-0.6614731981	 0.133109
H	 0.2361011669	 1.9448564554	 0.935640123	 0.142789
H	-1.030152573	-0.4758275714	-1.6656451931	 0.1185
H	 0.6884911778	-0.4418173525	-1.9515176948	 0.115847
H	 0.9665112605	-2.6001135446	-0.6834408886	 0.126468
H	-0.7394245002	-2.6076072608	-0.3024284198	 0.114587
H	-1.2919478809	-2.8080323886	-2.7526575076	 0.096866
H	 0.4263348826	-2.7520253538	-3.1481989087	 0.099766
H	-0.8946207637	-4.9853972876	-1.4800395511	 0.091308
H	-0.0152770722	-6.4801041448	-3.3035567085	 0.113369
H	 0.6435662282	-5.0174284319	-4.2019477233	 0.109815
32.5767	49.8898	86.4431	100.972	113.1326	123.354	223.6794	267.7066	382.062	421.2375	478.4437	489.5076	598.0114	722.5214	775.8332	820.7345	832.3571	877.5809	931.705	956.2391	961.3945	1033.506	1057.4902	1070.4038	1109.8861	1140.5235	1159.0373	1169.7435	1176.1029	1202.6484	1269.4292	1293.2984	1298.6128	1324.8158	1355.5052	1383.0597	1397.1282	1449.2683	1449.8625	1465.0654	1469.9445	1477.3509	1496.488	1532.1975	1813.1212	3002.124	3011.581	3033.5983	3036.8123	3049.6753	3053.3883	3079.2675	3087.2374	3095.4391	3097.0814	3151.9269	3164.7668
CC(=O)CCCC1CO1	CC(=O)CCC[C@H]1CO1	
InChI=1S/C7H12O2/c1-6(8)3-2-4-7-5-9-7/h7H,2-5H2,1H3	InChI=1S/C7H12O2/c1-6(8)3-2-4-7-5-9-7/h7H,2-5H2,1H3/t7-/m0/s1
