15
gdb 33519	2.23617	1.63875	1.21017	2.258	77.76	-0.2355	0.0063	0.2418	1052.5134	0.111373	-379.598604	-379.590177	-379.589233	-379.631561	31.828	
C	-0.1175298566	-1.2759730891	-0.0454874729	-0.424905
C	-0.0473543173	-0.0773573273	-0.0212416467	 0.298943
C	 0.0131835218	 1.3842858832	 0.0363608558	-0.09395
C	-0.5316036393	 1.95868437	 1.4180556597	-0.197795
N	 0.4172834128	 2.9911910362	 1.8329153258	-0.236648
C	 1.4239183042	 2.8891147644	 1.0597248058	 0.064946
N	 1.4093448186	 1.8816393154	 0.1039741597	-0.312034
C	-0.698025536	 1.9686558211	-1.1089507606	 0.326504
C	-1.2663946301	 2.4739685636	-2.0392399854	-0.477418
H	-0.1748469741	-2.3361976771	-0.0730959587	 0.200729
H	-1.5393660511	 2.3624702881	 1.3041084998	 0.132168
H	-0.5612740839	 1.1542476182	 2.1600985461	 0.130598
H	 2.3084741181	 3.5147576018	 1.1397153616	 0.130876
H	 1.8770941115	 2.0383464177	-0.7780368565	 0.251426
H	-1.7759901586	 2.9118802837	-2.8620968534	 0.20656
89.6342	125.4554	162.922	172.1417	264.1007	436.3022	456.9744	483.582	523.8648	566.0481	571.8314	603.2119	632.9174	636.8091	656.3911	661.552	805.0467	851.5582	919.9428	960.9238	986.9271	1052.6861	1086.7802	1117.81	1146.9093	1241.2065	1311.7112	1342.7898	1406.4643	1485.2808	1701.0149	2232.9674	2242.6779	3054.7699	3113.9689	3184.9862	3498.9382	3500.4415	3597.6979
C#CC1(CN=CN1)C#C	C#CC1(C[N][CH]N1)C#C	
InChI=1S/C7H6N2/c1-3-7(4-2)5-8-6-9-7/h1-2,6H,5H2,(H,8,9)	InChI=1S/C7H6N2/c1-3-7(4-2)5-8-6-9-7/h1-2,6H,5H2,(H,8,9)
