17
gdb 86834	2.87045	1.25002	1.03804	4.0922	73.86	-0.2673	0.0089	0.2761	1187.5181	0.135052	-421.843045	-421.834442	-421.833498	-421.876568	31.95	
C	-0.4512362037	 1.3623608282	-0.0451893558	-0.406286
C	 0.1612695783	-0.034905418	-0.0316253751	-0.131834
C	 1.158290162	-0.370165067	-1.1455808858	-0.250724
C	 2.0442272032	-1.4485005323	-0.4775689279	-0.088178
O	 2.0453464712	-1.1025300543	 0.9274161615	-0.217057
C	 0.978854527	-0.3049111557	 1.2318120405	 0.447549
O	 0.7797027135	 0.0910815161	 2.3420721985	-0.33732
C	 1.5430792819	-2.8073208243	-0.6683683878	 0.358102
C	 1.1235643958	-3.9190627178	-0.8445531513	-0.471927
H	 0.3265551273	 2.1313316559	-0.094219158	 0.124696
H	-1.1139492189	 1.491882419	-0.9053837383	 0.118835
H	-1.0264065733	 1.5265727214	 0.8692771855	 0.146642
H	-0.6411865005	-0.7855291463	-0.0301477308	 0.123823
H	 0.6984792331	-0.7303312117	-2.0661964798	 0.128016
H	 1.7720899301	 0.5055616262	-1.3806557958	 0.117097
H	 3.0842620339	-1.3895591796	-0.8095939604	 0.127685
H	 0.7610092992	-4.9068430599	-0.9917256092	 0.210881
75.5535	90.9311	186.2185	208.7493	251.2647	263.9778	360.4894	450.1458	476.0123	562.5718	600.3417	640.5605	679.3275	708.4557	764.4392	787.3662	832.3266	924.7311	944.1261	1004.2164	1034.9897	1062.5712	1109.1539	1139.7672	1169.594	1210.2817	1275.5642	1314.4459	1318.8496	1367.271	1373.9591	1411.6638	1489.656	1496.1956	1498.2898	1883.4881	2240.1138	3021.254	3042.9922	3057.3665	3076.7829	3111.7865	3129.1049	3133.1905	3500.8107
CC1CC(OC1=O)C#C	C[C@H]1C[C@@H](OC1=O)C#C	
InChI=1S/C7H8O2/c1-3-6-4-5(2)7(8)9-6/h1,5-6H,4H2,2H3	InChI=1S/C7H8O2/c1-3-6-4-5(2)7(8)9-6/h1,5-6H,4H2,2H3/t5-,6-/m0/s1
