16
gdb 131489	3.94428	1.14864	1.00513	1.3399	70.87	-0.2394	-0.0006	0.2388	1163.4952	0.126604	-434.050507	-434.04286	-434.041916	-434.083167	28.74	
O	 0.0728796831	 1.3297693522	 0.7857762236	-0.413772
C	 0.0310733636	 0.0504030255	 0.2301669146	 0.101128
C	-0.5261975288	-1.0225764352	 1.1024713231	-0.31206
C	-1.3137948278	-0.5738481157	-0.1216343163	-0.163794
C	-2.5634595376	 0.1932256725	 0.0064374362	 0.324735
N	-3.5708414291	 0.0071335513	-0.8561882203	-0.288657
N	-4.4976733645	 0.8597220286	-0.4352642417	-0.07312
N	-4.1958925167	 1.5924903214	 0.6253671061	-0.195481
C	-2.9620172091	 1.1876655129	 0.9273881941	-0.148653
H	-0.1335422475	 1.9662098592	 0.0921014572	 0.292892
H	 0.8702690772	-0.1966381248	-0.4194863837	 0.095338
H	-0.0720265533	-2.006558715	 1.0860879008	 0.121265
H	-0.9032327866	-0.7052584654	 2.068350866	 0.131958
H	-1.3176822821	-1.2507152849	-0.9689865155	 0.10268
H	-5.389181757	 0.938463682	-0.896489245	 0.291048
H	-2.4208672738	 1.6101962653	 1.7566301408	 0.134495
62.8272	135.3882	174.6747	277.3539	334.2754	377.878	455.894	506.7323	534.1335	674.9555	720.5449	763.426	779.8299	854.4201	889.2414	934.9654	996.4704	1008.5089	1025.8524	1052.7787	1065.8866	1128.9333	1166.491	1176.9338	1198.4443	1228.6464	1249.9528	1300.1995	1310.3566	1389.9309	1412.6038	1427.0529	1482.7718	1490.9637	1571.6948	3103.6123	3140.5192	3172.7585	3232.6139	3291.7828	3672.5428	3797.8971
OC1CC1C1=NNN=C1	O[C@H]1C[C@H]1c1n[nH]nc1	
InChI=1S/C5H7N3O/c9-5-1-3(5)4-2-6-8-7-4/h2-3,5,9H,1H2,(H,6,7,8)	InChI=1S/C5H7N3O/c9-5-1-3(5)4-2-6-8-7-4/h2-3,5,9H,1H2,(H,6,7,8)/t3-,5-/m0/s1
