24
gdb 102375	1.65006	1.45557	1.03657	3.9395	88.89	-0.307	0.043	0.35	1356.1314	0.215811	-368.445841	-368.434631	-368.433687	-368.481847	40.984	
C	-0.1511899789	 1.5265369347	 0.1512935666	-0.411315
C	-0.0620610276	 0.0094732363	-0.0314935669	-0.196712
C	 0.7455633932	-0.4793873392	-1.2694242986	 0.087082
C	 2.2074745393	 0.0604612445	-1.280938103	-0.192584
C	 3.0715159087	-0.3697525068	-0.0917821849	-0.411809
C	 0.6825462123	-2.0343542779	-1.3119715116	-0.196708
C	 1.3884122207	-2.6993113215	-2.4962022702	-0.411315
C	 0.0827056011	 0.0375378365	-2.4800636065	 0.288571
N	-0.4375952622	 0.4431065031	-3.4300722856	-0.364107
H	 0.8249887545	 1.9750823663	 0.3585865144	 0.121026
H	-0.5634940981	 2.0104225699	-0.7395093823	 0.143378
H	-0.8060888801	 1.7655638234	 0.9943709423	 0.119606
H	 0.3839776335	-0.449165046	 0.8577870315	 0.104308
H	-1.0734738997	-0.4043311662	-0.1127664009	 0.112346
H	 2.6839342041	-0.2587727968	-2.2127874354	 0.117385
H	 2.1695814044	 1.1529774266	-1.3282971319	 0.117385
H	 2.6629188943	-0.0241114374	 0.8623765382	 0.124537
H	 3.1842576261	-1.4564255249	-0.034592854	 0.124535
H	 4.0741680139	 0.056933317	-0.1903690118	 0.123728
H	 1.0979353018	-2.409099969	-0.3700918709	 0.104304
H	-0.3748511268	-2.3219394175	-1.3142559913	 0.112348
H	 1.0124095941	-2.3151247121	-3.4494551074	 0.143381
H	 2.471011557	-2.5428414534	-2.4719276073	 0.121025
H	 1.2140620545	-3.7791847396	-2.4793775723	 0.119605
70.8788	100.2254	118.2658	141.0973	161.8068	217.1782	232.0006	237.5181	286.9241	308.0302	326.1408	391.3025	430.7359	434.212	569.6766	611.4118	664.0951	764.202	777.0929	801.4079	922.2181	925.5841	935.165	1021.7754	1024.6431	1056.0681	1062.1022	1097.5085	1101.6039	1179.8052	1205.8075	1211.5277	1291.3379	1310.1066	1333.8936	1362.4535	1373.9904	1390.1258	1412.9354	1416.5406	1420.6931	1476.0537	1485.0768	1496.6957	1500.0772	1502.7537	1504.0867	1509.0255	1509.5232	1519.9699	2344.9032	3035.8043	3040.0654	3042.6171	3042.9169	3045.9477	3057.9176	3070.162	3077.543	3086.594	3109.7217	3110.6999	3111.521	3114.3535	3117.149	3118.6435
CCC(CC)(CC)C#N	CCC(CC)(CC)C#N	
InChI=1S/C8H15N/c1-4-8(5-2,6-3)7-9/h4-6H2,1-3H3	InChI=1S/C8H15N/c1-4-8(5-2,6-3)7-9/h4-6H2,1-3H3
