17
gdb 74232	2.61355	1.29061	0.94207	3.0291	81.57	-0.2392	-0.0241	0.2151	1253.2621	0.133589	-384.691669	-384.682749	-384.681805	-384.725933	32.965	
C	-0.0732186533	 1.5183470582	 0.0588565946	-0.485978
C	-0.0104795731	 0.0250102839	 0.0150845656	 0.310531
C	 0.0168147561	-0.7413883523	-1.0785402051	-0.171563
C	 0.0813064408	-2.2236909689	-0.7802878991	-0.322416
C	 1.2290808656	-2.9091832832	-1.3594002262	 0.341698
C	 2.1882748308	-3.4556477413	-1.8341502913	-0.470762
C	 0.0960870377	-2.2466657967	 0.7839792784	 0.394106
O	 0.1347016092	-3.2325053164	 1.4630121176	-0.29044
C	 0.031026356	-0.7980668234	 1.2782471672	-0.416329
H	 0.7898296326	 1.9322637913	 0.595394193	 0.132034
H	-0.0905758497	 1.9493200917	-0.9456104744	 0.129196
H	-0.9667291413	 1.8615194953	 0.5953997183	 0.130215
H	 0.0065274498	-0.3690751343	-2.0963482406	 0.106408
H	-0.8359009125	-2.7427422737	-1.0988918375	 0.134321
H	 3.0315569098	-3.947681657	-2.2514847209	 0.199593
H	 0.8996461533	-0.5786082942	 1.9137244866	 0.141634
H	-0.8514981416	-0.6639734991	 1.9180245238	 0.137753
37.3618	110.0825	134.0384	190.6659	273.9105	289.3722	390.491	416.3264	460.6217	511.1576	540.8304	601.3284	623.4882	636.1796	689.2157	765.6808	835.3276	888.8755	946.5933	973.911	1008.7064	1047.4729	1072.0943	1110.9085	1157.8948	1183.4465	1224.2922	1263.0885	1299.437	1348.3078	1416.7389	1440.3796	1478.7625	1486.8321	1717.105	1865.3722	2236.5679	2988.6522	3018.8541	3022.6277	3048.639	3067.7762	3114.7609	3199.7652	3504.9672
CC1=CC(C#C)C(=O)C1	CC1=C[C@@H](C#C)C(=O)C1	
InChI=1S/C8H8O/c1-3-7-4-6(2)5-8(7)9/h1,4,7H,5H2,2H3	InChI=1S/C8H8O/c1-3-7-4-6(2)5-8(7)9/h1,4,7H,5H2,2H3/t7-/m1/s1
