19
gdb 12669	3.25499	1.81562	1.32727	3.7135	71.07	-0.2339	0.0354	0.2693	968.1384	0.166853	-365.121035	-365.112822	-365.111878	-365.1534	30.933	
C	-0.7980998347	 1.2345590198	-0.0586445565	-0.412832
C	 0.0814689918	-0.0126532606	-0.0322599382	 0.020628
C	 1.2485358375	 0.023882525	-1.0483145829	-0.175629
N	 2.1946656695	-0.9117124728	-0.4706907513	-0.304458
C	 2.0298485397	-1.13797867	 0.8699816743	 0.406747
O	 2.7623902546	-1.7975476117	 1.5755411585	-0.391765
C	 0.7779848115	-0.359963759	 1.3089646302	-0.117468
C	 1.2162132789	 0.8325848878	 2.1738718552	-0.400246
H	-0.2295460938	 2.1384580034	 0.180436006	 0.121893
H	-1.2412040263	 1.3745413408	-1.050720787	 0.11545
H	-1.6194265823	 1.1552472275	 0.6606825216	 0.120749
H	-0.5385476473	-0.8769230151	-0.2995815097	 0.087427
H	 0.9311844658	-0.2885787572	-2.0487549062	 0.110537
H	 1.6723696053	 1.0361842198	-1.1353995208	 0.10125
H	 3.0393813638	-1.2098412889	-0.9325298503	 0.248318
H	 0.1559203742	-1.0204079804	 1.9196095834	 0.095811
H	 1.8374071892	 1.5384065004	 1.6115171653	 0.11624
H	 0.3530709269	 1.3792736953	 2.5637047679	 0.116063
H	 1.8070221756	 0.4696807358	 3.0189371007	 0.141284
78.5649	175.5324	234.5842	241.9949	246.897	268.7733	302.4617	451.6772	504.3976	521.6502	594.2577	694.4417	734.7158	782.209	825.3957	903.5855	962.1593	1001.7645	1038.7157	1066.8133	1078.4218	1099.1559	1161.1966	1180.3728	1216.9744	1265.668	1279.4198	1329.6018	1343.9219	1361.9152	1377.6841	1404.0815	1416.138	1449.0509	1491.5629	1496.2394	1504.3966	1506.4623	1535.7786	1826.422	2984.07	3026.4166	3033.172	3037.3852	3061.0697	3069.8205	3097.334	3105.5174	3109.0711	3122.7014	3638.5111
CC1CNC(=O)C1C	C[C@H]1CNC(=O)[C@H]1C	
InChI=1S/C6H11NO/c1-4-3-7-6(8)5(4)2/h4-5H,3H2,1-2H3,(H,7,8)	InChI=1S/C6H11NO/c1-4-3-7-6(8)5(4)2/h4-5H,3H2,1-2H3,(H,7,8)/t4-,5-/m0/s1
