21
gdb 99989	2.18079	1.31584	0.99966	1.9996	78.79	-0.264	0.0249	0.289	1281.9618	0.180628	-420.423257	-420.412486	-420.411542	-420.458564	39.785	
C	 0.0093845598	 1.5559373287	 0.1410898798	-0.394426
C	-0.0128693751	 0.0335027128	-0.0298912313	-0.226676
C	 0.6981143952	-0.4779203216	-1.2996577026	 0.346001
C	 0.0743510934	 0.0867834699	-2.5768365825	-0.412098
O	 2.0703489915	-0.0749324977	-1.317508482	-0.469209
C	 0.6571542985	-2.043914907	-1.3489848643	-0.126437
N	 1.3253410261	-2.5238926486	-2.5563648565	-0.504601
C	 1.2732680983	-2.5956186629	-0.1201287612	 0.245428
N	 1.8096021082	-3.0312731027	 0.8081886207	-0.337428
H	 1.0291093896	 1.9414143088	 0.0558161735	 0.128123
H	-0.6042505781	 2.0620041801	-0.6092672981	 0.122326
H	-0.3788558907	 1.8324717786	 1.125366164	 0.117385
H	 0.4605711659	-0.432456376	 0.8435133246	 0.11771
H	-1.0490445874	-0.3274704003	-0.0398984545	 0.10079
H	 0.1985918779	 1.170750181	-2.6002325292	 0.128616
H	 0.5519116168	-0.3417487432	-3.4577477226	 0.145042
H	-0.9942906752	-0.1449159889	-2.6161812357	 0.112248
H	 2.461779145	-0.3040895481	-0.4653045447	 0.29167
H	-0.3905026464	-2.3654955078	-1.3721242019	 0.12506
H	 2.2627044963	-2.1305373452	-2.5761355027	 0.247098
H	 1.4151606106	-3.5342716601	-2.5373295529	 0.243379
71.9221	96.3645	141.4823	178.4038	191.6048	241.524	252.6815	296.7216	325.5436	339.4363	378.4115	398.6443	410.4719	422.7233	493.1759	605.537	650.266	774.4032	791.3299	847.1116	895.1781	931.2414	969.9736	1009.2874	1017.0505	1062.52	1103.486	1133.2767	1158.7499	1191.675	1240.9759	1299.8734	1309.1686	1371.0204	1377.2905	1395.6313	1409.8297	1419.8948	1480.762	1483.9759	1497.7753	1503.552	1512.7736	1644.5361	2334.359	3022.9878	3047.2407	3048.8226	3057.1641	3060.8674	3114.9458	3122.2789	3132.3641	3158.0222	3497.1773	3583.6646	3779.4399
CCC(C)(O)C(N)C#N	CC[C@@](C)(O)[C@@H](N)C#N	
InChI=1S/C6H12N2O/c1-3-6(2,9)5(8)4-7/h5,9H,3,8H2,1-2H3	InChI=1S/C6H12N2O/c1-3-6(2,9)5(8)4-7/h5,9H,3,8H2,1-2H3/t5-,6+/m0/s1
