18
gdb 61999	3.97436	0.79752	0.78584	2.9698	74.82	-0.2379	0.0253	0.2631	1492.4984	0.144317	-439.072493	-439.06218	-439.061236	-439.108886	36.88	
C	-1.1070271578	 0.7910512636	-0.8913971357	-0.398141
C	-0.1761277123	-0.055640849	-0.0106389936	-0.047975
O	-0.8754066664	-1.0562365229	 0.7384559415	-0.26534
C	-1.6706287941	-0.5668318894	 1.8058070017	-0.174545
C	-3.1816820326	-0.6440111821	 1.5498397878	 0.364044
N	-3.5215175485	-1.367315308	 0.4533772455	-0.505345
O	-3.9713419687	-0.1128079656	 2.3053656943	-0.363693
C	 0.8359620912	-0.740868571	-0.8124856895	 0.313526
C	 1.6654093751	-1.2748894437	-1.4972854319	-0.435402
H	-0.5224860185	 1.5394559097	-1.4333377604	 0.133393
H	-1.6241623608	 0.1596746218	-1.6176615302	 0.130684
H	-1.8508827202	 1.3105654036	-0.2814017277	 0.133427
H	 0.3375656566	 0.611317225	 0.7002064502	 0.109465
H	-1.4631401108	-1.1820379718	 2.6898843462	 0.140473
H	-1.4274086633	 0.4693008209	 2.0669492962	 0.129733
H	-2.802741969	-1.8244760525	-0.0817107318	 0.270451
H	-4.4940474915	-1.5349200062	 0.2581188229	 0.26249
H	 2.4045189216	-1.7527543725	-2.0918684256	 0.202756
33.7257	49.5136	89.3298	154.9236	215.7973	258.1214	267.3514	312.4382	347.5253	385.4171	467.6317	508.3022	542.9207	548.0985	609.0268	627.5827	676.585	686.21	815.09	864.3782	910.8971	1008.3949	1059.5081	1090.8915	1099.5281	1106.0372	1143.5045	1276.9337	1345.4891	1350.6881	1362.7042	1386.9229	1405.9025	1469.6603	1485.5394	1492.7849	1594.0327	1809.6423	2245.2759	2975.3035	3031.8173	3049.8681	3079.1515	3125.809	3135.8547	3503.4653	3600.7209	3741.7618
CC(OCC(N)=O)C#C	C[C@@H](OCC(=O)N)C#C	
InChI=1S/C6H9NO2/c1-3-5(2)9-4-6(7)8/h1,5H,4H2,2H3,(H2,7,8)	InChI=1S/C6H9NO2/c1-3-5(2)9-4-6(7)8/h1,5H,4H2,2H3,(H2,7,8)/t5-/m1/s1
