16
gdb 51459	3.77596	1.08088	1.03346	2.3826	68.6	-0.2457	-0.0236	0.2221	1165.8887	0.124468	-437.88151	-437.873833	-437.872889	-437.914936	27.942	
O	-0.4400959711	 0.3434872059	 0.009368378	-0.239034
C	 0.1133114186	 1.4094347999	 0.0883851786	 0.162339
C	 1.5018427886	 1.7029212402	-0.4439066144	-0.308022
C	 1.5034638442	 2.9063933925	-1.3656561021	-0.086522
C	 1.2624096538	 4.3187974663	-0.9007981877	 0.038119
O	 1.4719850782	 4.5787515211	 0.4833951645	-0.203748
C	 2.7951205904	 4.3421191099	 0.6935878105	 0.08832
N	 3.5228098989	 4.0041708043	-0.2934764033	-0.24306
C	 2.6352620229	 3.9298926471	-1.4292855582	-0.057703
H	-0.3797049955	 2.2814076246	 0.5752298249	 0.08466
H	 2.15674881	 1.8882450019	 0.4169871457	 0.136422
H	 1.8779948039	 0.8152773299	-0.9595999792	 0.12858
H	 1.0626997987	 2.7198954663	-2.3415444652	 0.114499
H	 0.5328454132	 4.9821453669	-1.346525763	 0.120643
H	 3.1228774756	 4.4704872441	 1.717809811	 0.152172
H	 3.0480694397	 4.2148529592	-2.3888753299	 0.112335
51.5975	70.3791	155.3967	217.2796	301.572	428.6206	505.1579	572.0283	667.1771	717.1745	752.817	807.7791	831.0644	878.7081	926.8554	942.9921	981.0169	999.4738	1037.4571	1065.1183	1088.4555	1101.7552	1118.6318	1128.2923	1193.5168	1237.4957	1287.0897	1291.952	1331.1089	1359.8255	1411.1526	1424.6638	1462.5222	1663.7392	1834.8185	2878.3648	3036.8373	3103.007	3147.9401	3188.8147	3201.384	3233.971
O=CCC1C2OC=NC12	O=CC[C@H]1[C@H]2OC=N[C@@H]12	
InChI=1S/C6H7NO2/c8-2-1-4-5-6(4)9-3-7-5/h2-6H,1H2	InChI=1S/C6H7NO2/c8-2-1-4-5-6(4)9-3-7-5/h2-6H,1H2/t4-,5+,6-/m1/s1
