14
gdb 128645	2.82866	1.60332	1.02995	2.7591	69.63	-0.2505	-0.071	0.1795	1081.1543	0.101052	-469.979186	-469.97137	-469.970425	-470.012036	27.979	
C	 0.0372145226	 1.3767624761	 0.0694667302	-0.241863
O	 0.1144246064	-0.0559634941	 0.0070078939	-0.213744
C	 0.6273545432	-0.5786918822	-1.0865631282	 0.407342
N	 1.0470199537	 0.14392593	-2.0680826206	-0.372193
C	 1.557734373	-0.5514340715	-3.1436726585	 0.103898
N	 1.6740232032	-1.8210058701	-3.3047780318	-0.091018
O	 1.2148290956	-2.6053499814	-2.2312942863	-0.278405
C	 0.6801588467	-2.0582254139	-1.0915218199	 0.351964
N	 0.2682285522	-2.7659989891	-0.128162132	-0.501864
H	 1.0344250944	 1.8158961697	-0.0093135578	 0.150324
H	-0.5849672522	 1.7605798857	-0.7423515058	 0.150323
H	-0.408896279	 1.595984988	 1.0384454349	 0.148826
H	 1.9161772962	 0.0400963496	-3.9801622433	 0.148107
H	 0.395472644	-3.7593223869	-0.3342579148	 0.238304
75.9616	144.645	153.5162	222.5318	233.2634	354.7934	465.6474	519.7826	544.7143	580.7694	593.5068	774.8629	799.1194	891.5696	893.4875	949.6833	957.2285	1005.1733	1071.2883	1172.761	1175.4024	1227.0453	1279.7223	1354.6047	1412.4858	1479.7213	1488.7576	1493.0806	1614.4363	1659.923	1737.997	3056.9538	3135.1014	3172.4649	3194.8655	3469.7202
COC1=NC=NOC1=N	COC1=C(ON=C[N]1)[NH]	
InChI=1S/C4H5N3O2/c1-8-4-3(5)9-7-2-6-4/h2,5H,1H3	InChI=1S/C4H5N3O2/c1-8-4-3(5)9-7-2-6-4/h2,5H,1H3
