21
gdb 92202	2.91355	1.69703	1.41184	1.7048	80.55	-0.2396	0.0733	0.3129	1015.1284	0.185181	-387.078084	-387.070723	-387.069779	-387.10977	30.212	
C	-0.1029344664	 1.5720047663	 0.0283148216	-0.403662
C	 0.045415447	 0.0499429869	 0.0099951215	 0.02637
C	 0.7729403179	-0.5132713725	-1.2452594415	-0.244424
C	 1.7002279081	-1.6579747811	-0.7674861895	-0.024423
C	 3.1775028367	-1.2418460654	-0.4615323326	-0.242234
C	 2.8245848714	-1.1375097453	 1.0309183873	 0.127472
O	 2.1492927729	 0.1033069621	 1.3490366126	-0.323759
C	 0.8326569223	-0.5044960906	 1.1968925976	 0.121946
C	 1.4659710915	-1.8370028219	 0.7754977286	-0.122647
H	 0.8838924878	 2.0430790454	 0.0607518887	 0.133702
H	-0.6277472235	 1.9300023848	-0.8631646202	 0.109353
H	-0.6667754841	 1.9082013724	 0.9051725936	 0.109024
H	-0.9528855083	-0.4071839066	 0.0683420661	 0.067835
H	 0.0464333556	-0.8675698729	-1.9827856237	 0.094856
H	 1.3578616961	 0.2708912328	-1.7377012333	 0.100882
H	 1.6089430092	-2.5559536772	-1.3799744371	 0.068083
H	 3.8776406308	-2.0628919804	-0.6476071192	 0.096074
H	 3.556414251	-0.331544256	-0.935002382	 0.100619
H	 3.564791215	-1.4058719473	 1.7888011218	 0.070854
H	 0.2814014253	-0.464739104	 2.1440781455	 0.064904
H	 1.1420858735	-2.7893645692	 1.1888737841	 0.069175
81.4353	212.3652	232.9316	315.1062	337.6007	396.2369	482.1127	604.5441	644.336	676.8675	791.8576	811.5018	837.0964	850.9194	870.9345	926.0664	935.8492	937.2976	957.8222	973.6348	1005.6862	1019.178	1055.9445	1063.3551	1102.6939	1150.2235	1150.4311	1169.3697	1201.3732	1216.3471	1230.1287	1252.9889	1269.9198	1293.3349	1303.678	1307.9723	1324.0917	1332.8936	1362.3684	1376.4695	1404.394	1463.7329	1494.5321	1498.9392	1504.5412	2999.4394	3031.3392	3034.5477	3042.5574	3043.8922	3075.2637	3078.2385	3093.1078	3097.3547	3104.5637	3115.2191	3138.6429
CC1CC2CC3OC1C23	C[C@H]1C[C@H]2C[C@H]3O[C@@H]1[C@@H]23	
InChI=1S/C8H12O/c1-4-2-5-3-6-7(5)8(4)9-6/h4-8H,2-3H2,1H3	InChI=1S/C8H12O/c1-4-2-5-3-6-7(5)8(4)9-6/h4-8H,2-3H2,1H3/t4-,5-,6+,7-,8-/m0/s1
