17
gdb 90282	3.33209	1.38416	1.23098	5.1139	75.22	-0.2646	-0.0439	0.2207	1050.9512	0.136753	-421.849154	-421.841642	-421.840698	-421.881091	29.114	
C	 0.0476008383	 1.5521871172	 0.0334484231	-0.395212
C	 0.0288631655	 0.0326373458	-0.0094691701	-0.04403
C	 1.2098612132	-0.6239719279	-0.8429626518	-0.322459
C	 1.8943588533	-0.735569014	 0.4963423548	 0.234879
C	 2.8778086945	-0.1911340433	 1.2149559041	-0.370756
C	 2.3069986103	 0.1768429995	 2.5435389913	 0.43519
O	 2.8285612318	 0.6663337173	 3.5012537041	-0.337293
O	 0.9278058623	-0.0593895864	 2.4997019361	-0.244714
C	 0.6291609707	-0.6884330048	 1.2745742105	 0.070698
H	 1.0430182284	 1.9345992363	 0.2795785678	 0.131329
H	-0.2436762222	 1.9673504814	-0.9361435131	 0.121903
H	-0.6488347862	 1.9262417444	 0.789104671	 0.137723
H	-0.962430938	-0.3419627688	-0.2754521934	 0.090232
H	 0.9169566778	-1.5805526594	-1.2825221493	 0.127185
H	 1.7010333955	-0.0077419474	-1.5978061585	 0.127649
H	 3.8700291943	 0.1215351321	 0.9246776237	 0.1283
H	 0.1156909904	-1.6348309521	 1.4662527798	 0.109376
108.1941	173.5985	213.258	234.6817	319.5092	372.6643	449.5189	536.8162	621.8987	716.9794	722.8532	773.5708	794.6353	821.4521	850.5722	857.5319	896.0782	946.9941	994.8638	1033.1705	1075.5695	1093.3647	1119.0626	1133.6939	1166.9889	1191.6399	1231.2818	1248.8991	1296.0608	1347.32	1362.2383	1417.4504	1475.8529	1494.1935	1496.6436	1692.1246	1876.6489	3042.4	3067.0234	3069.6622	3082.0826	3112.0388	3117.9057	3131.4758	3247.3073
CC1CC2=CC(=O)OC12	C[C@H]1C[C]2[CH]C(=O)O[C@@H]12	
InChI=1S/C7H8O2/c1-4-2-5-3-6(8)9-7(4)5/h3-4,7H,2H2,1H3	InChI=1S/C7H8O2/c1-4-2-5-3-6(8)9-7(4)5/h3-4,7H,2H2,1H3/t4-,7-/m0/s1
