22
gdb 86880	2.99221	1.06804	0.8919	4.3985	86.1	-0.3055	0.0355	0.341	1375.3146	0.195244	-367.255994	-367.246545	-367.245601	-367.290482	35.604	
C	 0.2600261698	 1.6683590038	-0.0937082583	-0.398964
C	 0.0994234256	 0.1435972797	-0.0191170998	-0.001291
C	 0.6799999205	-0.5666881547	-1.2563773874	-0.231293
C	 2.2092424508	-0.6692946677	-0.966431692	-0.135893
C	 2.3370028953	-0.6308084016	 0.5946243437	-0.239152
C	 0.8901893399	-0.5288354908	 1.1320112024	 0.05072
C	 0.7850261349	 0.1283663368	 2.5073368848	-0.420979
C	 2.8174514641	-1.8505316123	-1.5700945515	 0.260686
N	 3.292004996	-2.793005206	-2.0432933867	-0.33142
H	 1.3104588468	 1.972751791	-0.1637859003	 0.114777
H	-0.2551500999	 2.0642017281	-0.9748418089	 0.11776
H	-0.1652602275	 2.1602122644	 0.7856988692	 0.121521
H	-0.9686193543	-0.0825971514	 0.0765229401	 0.073141
H	 0.2591552273	-1.5730509573	-1.340616702	 0.120259
H	 0.4782679557	-0.0464836472	-2.1962632297	 0.108537
H	 2.7179516909	 0.2009811085	-1.3924639092	 0.124532
H	 2.8576373075	-1.5087366059	 0.9823713992	 0.124709
H	 2.9239064759	 0.2437985471	 0.8913634142	 0.109048
H	 0.4981484393	-1.5512489848	 1.2165614627	 0.080155
H	 1.2016834201	 1.1408839885	 2.5040800921	 0.11841
H	-0.2572803798	 0.1946930919	 2.837119453	 0.116011
H	 1.3326262112	-0.4499996401	 3.2587194043	 0.118727
41.583	135.4699	159.6924	203.6847	230.1503	242.76	274.2494	321.9746	363.2392	463.3842	516.2269	557.7993	609.9281	626.9791	766.4719	814.5861	875.4267	882.4366	933.9312	944.3677	991.0587	1008.2987	1038.0742	1043.2048	1083.9607	1099.1988	1126.6849	1167.8905	1215.0008	1217.4956	1275.1519	1293.5857	1301.3077	1324.5835	1337.5637	1359.3654	1380.2446	1384.4329	1414.4109	1417.2596	1487.2939	1495.2986	1495.947	1499.2737	1504.894	1510.6927	2352.7683	3009.102	3030.8956	3033.5828	3039.3645	3051.4259	3060.8501	3063.4893	3096.2018	3097.9343	3101.2221	3106.2561	3109.515	3112.9552
CC1CC(CC1C)C#N	C[C@H]1C[C@@H](C[C@H]1C)C#N	
InChI=1S/C8H13N/c1-6-3-8(5-9)4-7(6)2/h6-8H,3-4H2,1-2H3	InChI=1S/C8H13N/c1-6-3-8(5-9)4-7(6)2/h6-8H,3-4H2,1-2H3/t6-,7+,8-
