17
gdb 17776	5.42457	1.28293	1.18234	3.6983	71.1	-0.2466	0.0297	0.2764	1033.2358	0.143907	-363.834644	-363.827568	-363.826624	-363.867142	26.688	
O	-0.1216726263	-0.0766004061	 0.3424284974	-0.321343
C	-0.0656451823	 1.1080692642	 0.0914006344	 0.148682
N	 1.071535015	 1.8131600735	-0.1674251633	-0.320713
C	 2.3815767586	 1.2159896268	-0.1734781549	 0.11758
C	 3.3981932322	 1.5439046036	-1.3130806737	-0.070335
C	 3.6102961577	 2.9414653726	-0.654035306	-0.237626
C	 3.5812178747	 1.9269516652	 0.5302128492	-0.070385
C	 4.4944320848	 1.017889569	-0.3420854523	-0.210778
H	-0.9633554357	 1.7571276646	 0.04592585	 0.071337
H	 0.9711001687	 2.796241382	-0.3611423148	 0.246836
H	 2.2483017458	 0.1598656195	 0.0591727237	 0.116208
H	 3.2908360318	 1.3197248902	-2.3750249285	 0.077575
H	 4.5703993007	 3.4259338116	-0.8500312439	 0.098642
H	 2.8027291674	 3.6754479806	-0.7264071742	 0.079658
H	 3.6849131759	 2.1444879307	 1.5939046316	 0.07757
H	 4.4864865095	-0.0520944436	-0.1189441882	 0.099992
H	 5.5065087314	 1.3872547357	-0.5193294865	 0.097098
24.2722	173.4739	183.1275	298.5035	407.1374	521.0628	521.6688	576.907	744.0241	762.0062	801.2119	884.3982	898.3832	902.9263	947.4039	1003.3526	1010.2944	1027.5167	1028.855	1089.2627	1099.6383	1115.3886	1136.1514	1146.2041	1188.2528	1212.4737	1214.672	1245.9923	1251.946	1269.2905	1386.9593	1436.1221	1499.6296	1542.6672	1548.4374	1808.013	2928.3151	3051.1043	3059.2493	3105.1427	3105.534	3109.3136	3127.5186	3132.2065	3641.7901
O=CNC1C2CC1C2	O=CN[C@H]1[C@H]2C[C@@H]1C2	
InChI=1S/C6H9NO/c8-3-7-6-4-1-5(6)2-4/h3-6H,1-2H2,(H,7,8)	InChI=1S/C6H9NO/c8-3-7-6-4-1-5(6)2-4/h3-6H,1-2H2,(H,7,8)/t4-,5+,6-
