13
gdb 131430	5.90554	0.95847	0.82463	4.7191	65.53	-0.2382	-0.0267	0.2115	1271.7471	0.089446	-489.895572	-489.887854	-489.886909	-489.928838	27.807	
O	 0.0712118063	 1.3824011586	 0.1485093511	-0.419832
C	 0.0670042152	 0.0440275597	 0.0784574021	 0.492813
N	 0.101802578	-0.5860407446	-1.0715932107	-0.2554
O	 0.0838531242	-1.9557956318	-0.728296074	-0.194171
C	 0.0396030433	-2.0554021457	 0.6007421027	 0.604307
N	 0.0144562493	-3.3115535445	 1.1765765322	-0.418262
C	 0.0297539755	-4.5500600147	 0.5541368948	 0.151139
O	 0.0683484832	-4.7497875059	-0.6295240481	-0.264821
C	 0.0259193057	-0.827061915	 1.1969558332	-0.49644
H	 0.1026946069	 1.721900644	-0.7564722163	 0.314085
H	-0.0193157315	-3.3169111863	 2.184781016	 0.270188
H	 0.0002160949	-5.3526724029	 1.3166694944	 0.091267
H	-0.0072637909	-0.576266591	 2.2425253626	 0.125126
32.2764	153.1408	160.1609	285.7693	296.8938	412.4671	458.0619	462.7041	548.1913	572.9799	671.1773	717.1274	746.3881	762.3733	857.5412	952.4594	992.4712	1016.4959	1048.921	1103.7857	1191.1867	1246.2707	1364.1899	1445.4863	1478.1393	1555.3067	1579.8736	1672.6236	1839.5586	2946.3663	3287.9974	3627.6851	3776.2248
OC1=NOC(NC=O)=C1	Oc1noc(NC=O)c1	
InChI=1S/C4H4N2O3/c7-2-5-4-1-3(8)6-9-4/h1-2H,(H,5,7)(H,6,8)	InChI=1S/C4H4N2O3/c7-2-5-4-1-3(8)6-9-4/h1-2H,(H,5,7)(H,6,8)
