21
gdb 73575	2.3548	1.91522	1.48693	1.4053	80.61	-0.2377	0.0821	0.3198	1003.3474	0.184098	-387.071923	-387.064194	-387.06325	-387.103621	31.721	
C	-0.0705849564	 1.4750581789	-0.016602066	-0.46018
C	 0.0266458953	-0.0403470022	-0.0041246417	 0.416483
O	-1.1704644105	-0.6415633003	-0.4961436184	-0.299145
C	-1.9092952443	-1.126235525	 0.6222277162	-0.081939
C	-0.8709657906	-1.6381017565	 1.6467249681	-0.264807
C	 0.3378545029	-0.732031198	 1.3614086395	-0.061727
C	 1.6320677523	-1.2990152902	 0.7442259065	-0.067376
C	 1.3537769818	-2.1035991755	-0.4942714478	-0.29656
C	 1.3333787388	-0.6093313323	-0.5928219464	-0.091355
H	 0.8438254386	 1.9277438062	 0.3803081617	 0.114831
H	-0.216966042	 1.8370789539	-1.0395704336	 0.123666
H	-0.9153997082	 1.8169369889	 0.5903725869	 0.113915
H	-2.5194759732	-0.3208589756	 1.0622114348	 0.087544
H	-2.5899007005	-1.9018928578	 0.2591893921	 0.104657
H	-1.2386672072	-1.557475137	 2.673077482	 0.09751
H	-0.632867125	-2.6887992795	 1.4599301538	 0.107989
H	 0.5375646454	-0.0199716087	 2.1647731332	 0.069206
H	 2.5787668271	-1.3699542341	 1.2657593411	 0.083557
H	 2.2250184921	-2.5801304464	-0.9321437461	 0.108904
H	 0.4323609031	-2.6650229644	-0.6136809581	 0.115829
H	 2.0006858606	-0.0572383544	-1.2438291878	 0.078997
154.5855	160.1574	237.1933	257.3408	289.7019	360.0499	452.6227	523.6478	598.2847	618.3105	636.5563	764.6522	813.1241	819.2365	861.4084	905.5484	916.596	936.0828	948.3921	955.1872	988.0983	1008.3431	1047.3095	1060.5696	1065.8541	1084.0174	1112.3119	1134.6885	1160.4847	1198.4732	1213.3812	1218.5585	1238.7655	1249.9194	1306.4247	1310.2271	1331.4474	1364.4217	1385.3105	1403.9938	1483.4483	1485.8549	1490.4185	1500.7795	1520.0223	2970.0438	3030.7331	3060.3615	3078.7176	3084.4952	3102.7293	3105.4055	3108.9768	3126.4077	3175.6634	3185.0048	3209.2187
CC12OCCC1C1CC21	C[C@]12OCC[C@H]1[C@H]1C[C@@H]21	
InChI=1S/C8H12O/c1-8-6(2-3-9-8)5-4-7(5)8/h5-7H,2-4H2,1H3	InChI=1S/C8H12O/c1-8-6(2-3-9-8)5-4-7(5)8/h5-7H,2-4H2,1H3/t5-,6+,7-,8+/m1/s1
