18
gdb 15274	3.55052	1.35488	1.25821	3.7389	63.6	-0.2524	0.0501	0.3025	1029.979	0.153888	-422.040958	-422.032381	-422.031437	-422.074337	31.748	
O	 0.0313344933	 1.1513318442	-0.7507445823	-0.426791
C	-0.0070123693	 0.1615038632	 0.2628024469	-0.081291
C	-1.3638055329	-0.5192803995	 0.3244621646	-0.075695
C	-1.826509248	-1.2931831847	-0.8770664974	 0.08657
O	-0.9079602583	-1.4301690483	-1.9272021712	-0.436758
C	-1.5532854015	-2.0360670069	 0.4109049837	-0.124927
C	-0.4152580194	-3.038136341	 0.4240374593	-0.113462
O	-0.486317408	-3.9475315943	-0.6885064479	-0.417752
H	-0.0920887725	 0.6736762421	-1.5804472883	 0.296553
H	 0.7975135725	-0.5700830513	 0.1180496744	 0.089271
H	 0.1947064112	 0.6776669792	 1.2070318296	 0.106558
H	-2.1299330471	 0.0643019903	 0.8265399117	 0.094243
H	-2.8599625422	-1.1845376912	-1.2025727857	 0.088823
H	-0.6756702075	-2.3698610517	-1.9752689535	 0.299322
H	-2.4336773113	-2.3570934866	 0.9624246927	 0.088421
H	 0.5592571921	-2.5600926371	 0.3218259845	 0.130613
H	-0.4059044258	-3.5950401805	 1.3701914602	 0.107018
H	-1.3271881552	-4.414157606	-0.6324949013	 0.289283
59.1394	100.4165	155.2602	199.9572	283.2683	318.3166	330.8565	405.3629	509.2911	533.1023	587.1009	634.0348	657.5308	779.644	799.4101	879.0485	939.0335	963.5762	1012.5806	1038.8944	1048.5692	1073.1104	1114.6087	1135.6707	1146.1734	1223.6912	1243.5061	1253.8234	1352.2221	1356.6698	1373.082	1393.661	1400.0807	1432.0818	1435.1688	1441.5584	1492.1599	1512.3048	3019.7174	3022.9549	3074.0974	3108.5346	3122.9586	3135.7296	3154.1883	3701.8513	3785.0916	3809.7781
OCC1C(O)C1CO	OC[C@H]1[C@@H](O)[C@H]1CO	
InChI=1S/C5H10O3/c6-1-3-4(2-7)5(3)8/h3-8H,1-2H2	InChI=1S/C5H10O3/c6-1-3-4(2-7)5(3)8/h3-8H,1-2H2/t3-,4+,5-
