19
gdb 47576	2.77884	1.52836	1.09095	3.5594	75.83	-0.2286	0.055	0.2836	1114.5359	0.163493	-419.23853	-419.230771	-419.229827	-419.270832	30.666	
O	 0.0540478386	-0.085245792	-0.2740786786	-0.399461
C	-0.0581542093	 1.1000290253	-0.0166909004	 0.391948
N	-1.2083432338	 1.8158016992	-0.279670822	-0.313865
C	-1.6400822014	 2.9335053146	 0.5552476485	-0.185813
C	-1.0445498072	 4.2603639829	 0.0896057138	-0.209089
C	 0.4730529728	 4.3254695248	 0.1210821174	 0.007893
C	 1.3040933818	 4.2219549223	 1.3768721997	-0.302423
C	 1.3989125109	 3.1478895414	 0.3139415644	-0.003834
N	 0.9460125233	 1.8164391109	 0.6280226084	-0.33222
H	-1.932323478	 1.2071429184	-0.6292240125	 0.247629
H	-2.730661209	 2.9907053559	 0.4947855319	 0.109002
H	-1.385505218	 2.7433801837	 1.6064496242	 0.116393
H	-1.3751153118	 4.4266722679	-0.9422403658	 0.106948
H	-1.4608690774	 5.0774617109	 0.6924578302	 0.099969
H	 0.8673061555	 5.0358446999	-0.6006403229	 0.093322
H	 2.128548028	 4.9122500131	 1.5177157857	 0.112044
H	 0.8003104391	 3.9216118059	 2.2895710366	 0.118108
H	 2.2875410793	 3.1601618442	-0.3150982145	 0.097793
H	 1.7013798568	 1.186894311	 0.861645516	 0.245656
98.6252	112.7133	243.4067	314.733	340.037	380.6127	407.5597	513.577	549.2258	611.5482	636.6243	708.539	736.254	787.0861	823.7616	848.9086	905.6038	934.2237	947.3698	992.7594	1051.8344	1065.2485	1102.562	1132.0624	1140.0748	1150.5759	1186.2122	1259.334	1282.6992	1286.1817	1350.7423	1394.6374	1408.9531	1413.7441	1438.4002	1456.0635	1459.1687	1481.6502	1492.0078	1506.9239	1800.5407	3017.0763	3023.6475	3064.4679	3087.3114	3104.515	3131.6567	3138.8779	3220.8679	3594.7684	3629.2565
O=C1NCCC2CC2N1	O=C1NCC[C@H]2C[C@H]2N1	
InChI=1S/C6H10N2O/c9-6-7-2-1-4-3-5(4)8-6/h4-5H,1-3H2,(H2,7,8,9)	InChI=1S/C6H10N2O/c9-6-7-2-1-4-3-5(4)8-6/h4-5H,1-3H2,(H2,7,8,9)/t4-,5+/m0/s1
