15
gdb 129375	4.56323	1.05535	0.86039	2.6238	71.92	-0.2364	-0.0398	0.1967	1268.5018	0.114153	-450.130652	-450.122358	-450.121414	-450.164058	31.228	
N	-0.1542627727	 1.3132313593	 0.0283592043	-0.524672
C	 0.0649852849	-0.0379204263	-0.0526077231	 0.251365
N	 1.2546571117	-0.5122982034	-0.0912934385	-0.526708
C	-1.1693406476	-0.8550604479	-0.0515446875	 0.465264
C	-1.3926314807	-2.1911939935	 0.0717502333	-0.441613
C	-2.8113687491	-2.3060579513	-0.0194373229	 0.430715
N	-3.564062437	-3.4554230335	 0.1212718877	-0.590321
N	-3.3883535662	-1.133048057	-0.1949239478	-0.223247
O	-2.3391870112	-0.2081842464	-0.2022621185	-0.241096
H	 0.6437842017	 1.8951147612	-0.1704264987	 0.261925
H	-1.060054242	 1.6697291938	-0.2252808476	 0.272465
H	 1.2414514529	-1.5291367111	-0.1109200029	 0.216573
H	-0.6745663694	-2.978369525	 0.2288234701	 0.12666
H	-3.1455339446	-4.2848579885	-0.2731542347	 0.258585
H	-4.5256754106	-3.3396179804	-0.1687719432	 0.264105
35.9356	144.0185	183.3395	294.7777	343.0013	357.017	389.5063	408.3868	473.399	519.0903	600.5583	619.9522	635.8419	719.6526	747.7864	751.7353	814.315	815.9325	956.5144	994.5477	1029.1512	1103.7423	1134.1533	1139.4815	1176.4167	1290.6298	1410.38	1497.9345	1540.0428	1615.6678	1640.7716	1666.8378	1708.5643	3276.1474	3518.5081	3562.7728	3600.0785	3664.4654	3726.2187
NC(=N)C1=CC(N)=NO1	NC(=N)c1cc(N)no1	
InChI=1S/C4H6N4O/c5-3-1-2(4(6)7)9-8-3/h1H,(H2,5,8)(H3,6,7)	InChI=1S/C4H6N4O/c5-3-1-2(4(6)7)9-8-3/h1H,(H2,5,8)(H3,6,7)
