13
gdb 125778	3.29568	1.45511	1.01571	3.7023	63.43	-0.2629	-0.0701	0.1928	1076.024	0.088273	-489.899603	-489.891883	-489.890938	-489.932174	28.13	
C	-0.0361597479	 1.479488237	 0.0248654889	-0.460214
C	-0.0102187923	-0.0146047394	-0.0201106743	 0.261867
N	-0.0510193072	-0.5686594082	-1.1755712779	-0.13776
O	-0.0239192884	-1.9911890328	-1.1696566367	-0.271578
C	 0.0404294077	-2.6413986942	 0.0039173953	 0.532225
O	 0.0573757868	-3.9550527708	-0.1773976875	-0.367618
N	 0.0834016819	-2.1494913205	 1.1844162443	-0.376224
C	 0.0614543657	-0.7680606661	 1.2797123227	 0.347737
O	 0.0964756869	-0.1651464364	 2.3286013314	-0.325058
H	 0.859170297	 1.8447981438	 0.5366883111	 0.162788
H	-0.0918041944	 1.8972390533	-0.9808236621	 0.146166
H	-0.8915507878	 1.8118481761	 0.6204634383	 0.162865
H	 0.0188878221	-4.1418559718	-1.1263071735	 0.324804
70.6298	153.997	180.8467	284.5364	330.5599	382.7654	398.9008	487.5821	492.9615	549.7609	586.6408	709.4617	749.306	791.7749	804.3894	907.764	977.0386	1045.471	1052.5711	1188.2163	1259.8727	1347.2357	1397.5491	1407.9642	1459.2927	1462.9891	1662.9191	1698.5546	1802.1659	3053.7288	3115.7914	3157.5483	3776.5312
CC1=NOC(O)=NC1=O	Cc1noc(O)nc1=O	
InChI=1S/C4H4N2O3/c1-2-3(7)5-4(8)9-6-2/h1H3,(H,5,7,8)	InChI=1S/C4H4N2O3/c1-2-3(7)5-4(8)9-6-2/h1H3,(H,5,7,8)
