16
gdb 28223	4.74727	1.26326	1.01678	1.0178	72.48	-0.1939	0.0194	0.2132	1144.4942	0.125621	-437.909706	-437.901893	-437.900949	-437.94332	28.011	
C	 0.0909009914	 1.4362638017	-0.0819930069	-0.490881
C	-0.0698205742	-0.0370486666	-0.0313502316	 0.340479
N	-1.1316871328	-0.7582991779	-0.2186680619	-0.368361
C	-0.6913163741	-2.0650979098	-0.0481087045	 0.136209
C	 0.6153694521	-2.0367106976	 0.2321377357	 0.415941
O	 1.284993586	-3.173799462	 0.4425451184	-0.288265
C	 0.2273773449	-4.1982754758	 0.2730729406	-0.092739
C	-1.1464058088	-3.4926711697	-0.0633425284	-0.374558
O	 1.0841502461	-0.7819812929	 0.2606745521	-0.231093
H	 0.8140695191	 1.7355076963	-0.8486599964	 0.142602
H	-0.8768843732	 1.881138626	-0.3163534333	 0.156511
H	 0.442368029	 1.8353289667	 0.875872557	 0.142603
H	 0.5629855925	-4.8583338244	-0.5286839933	 0.132744
H	 0.188666627	-4.7592757751	 1.2084219717	 0.132748
H	-1.9045824638	-3.729904516	 0.6913216327	 0.123026
H	-1.5339535112	-3.8298143029	-1.0311999419	 0.123035
27.306	113.4542	138.9047	252.9434	273.3078	307.9138	491.0245	553.8321	671.377	704.915	715.5368	733.3459	815.1235	833.0624	896.0623	921.1679	948.1255	1028.4507	1061.7348	1075.0178	1150.0616	1196.5022	1215.5753	1239.4256	1267.7984	1357.6777	1371.637	1412.9239	1471.9063	1473.451	1487.8183	1503.6822	1523.8688	1614.3969	1715.6302	3030.2425	3036.0494	3058.1016	3079.7087	3086.6884	3133.4221	3152.2702
CC1=NC2=C(OCC2)O1	Cc1nc2c(OCC2)o1	
InChI=1S/C6H7NO2/c1-4-7-5-2-3-8-6(5)9-4/h2-3H2,1H3	InChI=1S/C6H7NO2/c1-4-7-5-2-3-8-6(5)9-4/h2-3H2,1H3
