18
gdb 133874	3.17845	1.97751	1.91188	0.6916	74.29	-0.2264	0.0641	0.2906	827.7783	0.151586	-401.835917	-401.830161	-401.829217	-401.865555	25.762	
C	-0.7755796165	 1.778866908	 0.3941048921	-0.257318
N	 0.6645922207	 1.5695725108	-0.1793265262	-0.19225
C	-0.0039970704	 0.4365028915	-1.0183102865	 0.010694
C	 0.5772531824	-0.939173813	-1.353650094	-0.271502
C	 0.4116007427	-1.6106773775	 0.0359371161	 0.044376
C	 1.4774357961	-0.859713662	 0.8781745137	-0.271503
C	 0.7923119303	 0.506791947	 0.9559857594	 0.010696
C	-0.5835672156	 0.2238214948	 0.3720146557	 0.366392
O	-0.9001890124	-1.1490543949	 0.548596458	-0.354905
H	-1.4613317011	 2.2306955568	-0.3249554707	 0.115497
H	-0.7824357108	 2.2906161773	 1.3582202467	 0.115497
H	-0.6397972454	 0.8578043179	-1.7971219614	 0.076612
H	 1.6107260746	-0.9731622158	-1.7062932186	 0.11254
H	-0.0634921732	-1.3966267295	-2.1128549913	 0.110583
H	 0.4216542568	-2.698429379	 0.0706088515	 0.084858
H	 2.467251883	-0.8975499863	 0.4172933792	 0.11254
H	 1.5532683194	-1.2539185022	 1.8955539905	 0.110582
H	 0.8635967593	 0.990504876	 1.9302675858	 0.076611
303.6611	356.7554	437.0737	471.5869	552.7228	579.6221	607.0367	666.6529	753.9387	763.9948	778.3357	833.8809	849.7393	892.741	902.2772	940.6973	974.1816	986.2007	1023.8843	1026.7782	1060.7878	1097.5243	1099.2184	1126.7177	1143.5524	1158.8632	1170.5168	1177.7295	1192.3729	1234.8052	1264.6664	1296.8749	1305.8869	1327.8118	1365.9239	1412.7121	1470.2406	1493.2899	1522.2201	3060.2551	3062.0384	3069.7596	3098.7776	3104.4411	3110.1237	3117.2414	3143.6846	3148.7528
C1N2C3CC4CC2C13O4	C1N2[C@H]3C[C@H]4C[C@@H]2[C@@]13O4	
InChI=1S/C7H9NO/c1-4-2-6-7(9-4)3-8(6)5(1)7/h4-6H,1-3H2	InChI=1S/C7H9NO/c1-4-2-6-7(9-4)3-8(6)5(1)7/h4-6H,1-3H2/t4-,5-,6+,7+
