17
gdb 54897	3.82134	1.049	0.91827	4.9326	75.98	-0.2419	-0.056	0.186	1272.7001	0.134644	-421.883454	-421.87479	-421.873845	-421.917909	31.214	
C	-0.0843906248	 1.527351834	 0.117211572	-0.481721
C	 0.0907192101	 0.0275432137	-0.0210666324	 0.382024
O	 1.1770285809	-0.4857240415	-0.131984045	-0.284417
C	-1.2061949708	-0.8083879225	-0.0163180461	-0.158941
C	-1.0299389827	-2.2462241012	-0.5279503686	-0.35637
C	-1.5228076809	-3.1576690948	 0.6054923488	 0.380105
O	-1.6136933159	-4.3607950654	 0.5650418753	-0.323236
C	-1.8707909806	-2.2724865966	 1.7463924595	-0.171096
C	-1.7124609385	-0.9902179926	 1.4070966028	-0.06105
H	 0.8824453106	 2.0020970782	 0.2865341151	 0.150211
H	-0.5235523398	 1.9242394111	-0.8061683954	 0.149649
H	-0.7747455115	 1.7792974165	 0.9288078295	 0.138068
H	-1.9554895615	-0.2460922072	-0.5902813516	 0.101743
H	-1.5878807968	-2.4514796229	-1.4445997162	 0.13029
H	 0.0256237048	-2.4559630271	-0.7222495004	 0.163821
H	-2.2196604418	-2.6560066589	 2.6964581926	 0.121346
H	-1.9124283006	-0.1416189627	 2.05273265	 0.119571
50.7976	58.7809	118.264	172.2451	245.0826	331.6552	341.5516	474.0154	526.0529	573.1917	579.4083	673.5456	734.027	791.3046	811.0443	832.0955	927.5838	963.9484	972.7773	1000.4916	1029.3734	1068.3389	1114.3481	1169.6135	1179.7812	1191.6217	1230.2792	1276.5876	1330.6162	1357.665	1384.3512	1445.3163	1461.3438	1475.7159	1647.2081	1821.3079	1822.7523	3014.2143	3036.991	3073.6706	3097.6514	3121.2464	3155.5875	3188.4252	3229.9632
CC(=O)C1CC(=O)C=C1	CC(=O)[C@H]1CC(=O)C=C1	
InChI=1S/C7H8O2/c1-5(8)6-2-3-7(9)4-6/h2-3,6H,4H2,1H3	InChI=1S/C7H8O2/c1-5(8)6-2-3-7(9)4-6/h2-3,6H,4H2,1H3/t6-/m1/s1
