19
gdb 98182	2.9155	0.97999	0.93532	3.8726	68.24	-0.2609	-0.0276	0.2333	1340.7188	0.155118	-497.307542	-497.296936	-497.295992	-497.343371	38.252	
C	-0.1502878235	 1.6632477199	-0.1105618661	-0.421358
C	 0.049125714	 0.1398033335	-0.0439103782	 0.268651
O	 0.7925772823	-0.2292090516	 1.1070901455	-0.476078
C	-1.3043050506	-0.5985158443	-0.0226597032	-0.107397
O	-1.9010513208	-0.2863063764	 1.2311697693	-0.434495
C	 0.8186455228	-0.3343859246	-1.2747253145	 0.318303
O	 0.391790364	-0.1375882313	-2.3950089537	-0.35214
C	 2.1302455352	-1.0730450761	-1.0877571945	-0.127353
O	 2.682769756	-1.434795518	-2.3188162267	-0.427751
H	 0.8130833135	 2.1680852725	-0.0020617464	 0.127262
H	-0.5953068575	 1.948190641	-1.0670010202	 0.136266
H	-0.80704532	 1.9836382019	 0.7018186534	 0.13285
H	 0.1553351391	-0.2475307799	 1.8330519947	 0.291447
H	-1.9217805474	-0.2701976933	-0.8673199998	 0.12056
H	-1.1299142456	-1.6798749412	-0.1140804433	 0.101781
H	-2.619876034	-0.9027921908	 1.3948020759	 0.300801
H	 2.8065656902	-0.4272293616	-0.5060915422	 0.131469
H	 1.9421330697	-1.9487146664	-0.4476821552	 0.12526
H	 2.0630233527	-1.0981715234	-2.9854757648	 0.291921
35.4051	115.1474	127.621	180.0896	217.8205	229.4298	240.5616	282.9101	336.914	347.0933	362.26	413.008	432.8047	456.9809	517.1996	564.9113	695.0336	797.6458	851.2954	931.2202	971.7609	997.93	1056.5888	1079.1735	1133.1626	1140.8224	1174.7165	1198.2681	1227.3969	1250.5433	1287.9588	1307.6625	1385.8432	1408.4285	1438.1523	1448.6508	1473.9363	1493.3031	1495.2401	1511.8517	1784.6795	2995.3409	3001.7824	3009.8482	3050.8141	3060.1684	3130.7425	3137.1521	3686.6159	3769.148	3845.9794
CC(O)(CO)C(=O)CO	C[C@@](O)(CO)C(=O)CO	
InChI=1S/C5H10O4/c1-5(9,3-7)4(8)2-6/h6-7,9H,2-3H2,1H3	InChI=1S/C5H10O4/c1-5(9,3-7)4(8)2-6/h6-7,9H,2-3H2,1H3/t5-/m1/s1
