17
gdb 18151	3.20606	2.02236	1.59038	2.8425	68.34	-0.2379	-0.0256	0.2123	851.4182	0.14114	-363.815329	-363.807627	-363.806683	-363.847608	28.231	
C	 0.0571522509	 1.6137857224	-0.2216106859	-0.310685
N	 0.2656011608	 0.186360304	-0.0405208299	-0.065349
C	 1.4934091823	-0.4982679049	-0.349848054	-0.038161
C	 2.7553693867	 0.3055676821	 0.0335512239	-0.290462
C	 2.2267571078	 0.3414259758	 1.5113200099	-0.103259
C	 2.1055152983	 1.6493703354	 2.2483741946	 0.141459
O	 1.1062255337	 2.0471740635	 2.7919888245	-0.246254
C	 0.959975141	-0.4175672876	 1.0664608547	-0.054315
H	 0.9523641856	 2.2399294123	-0.1012945642	 0.100488
H	-0.3330689944	 1.7782761685	-1.2309841009	 0.118867
H	-0.685964507	 1.9549293708	 0.5026540855	 0.143317
H	 1.4738365179	-1.3230429033	-1.0541868517	 0.097423
H	 3.6747733226	-0.2732821791	-0.0662114948	 0.113679
H	 2.8915802376	 1.2660817104	-0.4722882812	 0.109386
H	 2.8699808767	-0.30026162	 2.1279948768	 0.110852
H	 3.0495474604	 2.2446472074	 2.2804759994	 0.07382
H	 0.4394346191	-1.1584662977	 1.6627763433	 0.099194
65.0194	134.0954	186.001	202.3382	269.3386	344.9799	418.7996	519.8502	671.0912	722.4584	737.3675	817.695	845.8362	891.6615	925.1031	970.6075	1017.3844	1032.4529	1037.755	1069.1294	1094.3952	1141.6227	1163.2072	1185.7898	1201.6496	1245.1665	1260.4176	1285.8104	1328.6064	1395.3218	1420.3256	1453.8629	1475.7781	1498.4133	1501.8082	1822.9125	2846.2273	2999.4	3028.5118	3059.3121	3075.2471	3121.1739	3126.1222	3165.2693	3177.9924
CN1C2CC(C=O)C12	CN1[C@H]2C[C@@H](C=O)[C@@H]12	
InChI=1S/C6H9NO/c1-7-5-2-4(3-8)6(5)7/h3-6H,2H2,1H3	InChI=1S/C6H9NO/c1-7-5-2-4(3-8)6(5)7/h3-6H,2H2,1H3/t4-,5-,6+,7?/m0/s1
