23
gdb 70814	2.2824	1.61975	1.45441	0.1814	90.77	-0.2615	0.0872	0.3486	1106.1159	0.204295	-351.106696	-351.097476	-351.096532	-351.139548	36.647	
C	 0.0020497827	 1.4671941718	-0.0260167167	-0.522248
C	 0.028432044	-0.0371174147	-0.0591024472	 0.323464
C	 0.581066527	-0.9611946561	-1.1641909212	-0.363898
C	 0.0591780517	-1.9402563904	-0.0919906861	 0.323461
C	 0.081418342	-3.4448811381	-0.1109103342	-0.522249
C	 0.5222259741	-1.0009006348	 1.0786450014	-0.116991
C	-0.8599589512	-1.0349173099	 1.754839139	-0.327982
C	-1.1786317862	-1.0139510674	 0.2434781496	 0.287869
C	-2.5246363647	-1.0240438311	-0.4307645375	-0.525874
H	 1.0145163091	 1.8808328077	-0.0962334524	 0.117581
H	-0.5785532926	 1.8703362686	-0.8638462264	 0.116446
H	-0.4465633237	 1.8407331767	 0.9013647482	 0.117169
H	 0.059553571	-0.952939956	-2.1288928297	 0.08128
H	 1.665935487	-0.9409381937	-1.3229105037	 0.080533
H	 1.1066169045	-3.8229009936	-0.1956642333	 0.117581
H	-0.3536024568	-3.8645251314	 0.8031331321	 0.117171
H	-0.4870277636	-3.8374124916	-0.9620107471	 0.116445
H	 1.5150881263	-0.9927217898	 1.5339172437	 0.058505
H	-1.1232561165	-1.9460515169	 2.3032103167	 0.084648
H	-1.1522279141	-0.1522536096	 2.3342225902	 0.084649
H	-3.1223857085	-0.1543535043	-0.1343960613	 0.117784
H	-2.4262135994	-1.0040192157	-1.5222754298	 0.116872
H	-3.0941524721	-1.9218924097	-0.1642737843	 0.117785
176.6257	197.038	204.7577	207.6804	208.7806	223.7576	275.967	281.0272	427.1831	443.7558	478.0774	577.7201	631.8894	662.9017	684.808	763.4935	842.1049	856.781	900.9077	915.5593	943.7638	998.3052	1007.2359	1007.731	1018.6127	1098.1526	1132.1737	1142.5282	1149.3655	1158.7327	1160.1643	1164.9725	1189.1453	1228.4519	1268.1139	1298.2343	1314.4312	1365.0309	1404.7291	1407.3848	1415.0526	1485.0394	1486.4956	1488.0004	1491.3326	1493.7188	1497.7031	1512.0305	1516.8962	3017.5364	3019.8603	3020.8466	3022.579	3031.4722	3070.7757	3080.6049	3083.8186	3084.6946	3085.1685	3087.0586	3087.8148	3089.1518	3089.2466
CC12CC3(C)C1CC23C	C[C@@]12C[C@@]3(C)[C@@H]1C[C@@]23C	
InChI=1S/C9H14/c1-7-5-8(2)6(7)4-9(7,8)3/h6H,4-5H2,1-3H3	InChI=1S/C9H14/c1-7-5-8(2)6(7)4-9(7,8)3/h6H,4-5H2,1-3H3/t6-,7-,8+,9+
