20
gdb 7820	3.47851	1.64185	1.20098	1.7742	71.63	-0.2567	0.0924	0.3492	1050.499	0.177643	-386.159636	-386.151556	-386.150612	-386.191656	31.051	
C	-0.0184672284	 1.5364242097	 0.098491456	-0.402518
C	 0.027384917	 0.0207507721	 0.0019391396	 0.125947
C	 0.7212313494	-0.4963540549	-1.2654672935	-0.198706
C	 0.8995302813	-2.0184750706	-1.1848612101	 0.125947
C	 1.7483142891	-2.5946162139	-2.3057167883	-0.402518
O	 1.5338847118	-2.3561507445	 0.0496223702	-0.248258
C	 0.8224191185	-1.8585497267	 1.1494903331	 0.016271
O	 0.7232774846	-0.4608159737	 1.1526819443	-0.248258
H	 0.9948203925	 1.9493937731	 0.0880568635	 0.126018
H	-0.5752213768	 1.9581122492	-0.7439881318	 0.113446
H	-0.5047179012	 1.8447517636	 1.0280008318	 0.124374
H	-1.0024788751	-0.3803560482	 0.0256876751	 0.061248
H	 0.1367612133	-0.2294628122	-2.1535630703	 0.093762
H	 1.7072847462	-0.0243309655	-1.3519011864	 0.104431
H	-0.1004439022	-2.4894695031	-1.2017852407	 0.061248
H	 2.746721248	-2.1468528368	-2.2959031052	 0.126018
H	 1.8563913955	-3.675925504	-2.1849573922	 0.124374
H	 1.2868381139	-2.3957053572	-3.2778494108	 0.113446
H	-0.1919449727	-2.304701198	 1.1706623106	 0.069548
H	 1.3767614276	-2.1434004639	 2.046306012	 0.11418
145.3996	161.4793	219.4777	226.1635	256.9644	338.5313	348.061	448.7495	463.834	496.7653	501.864	689.0956	823.0999	839.0057	893.571	924.403	947.569	1002.1497	1054.4435	1074.3509	1088.6324	1123.3546	1153.0384	1156.6424	1195.891	1233.0776	1246.5004	1293.2287	1310.735	1378.1213	1383.1172	1386.3051	1401.1302	1410.679	1416.4668	1447.8642	1466.644	1482.4401	1483.8703	1498.5627	1501.4195	1507.294	2904.4106	2931.1508	2941.6665	3031.3065	3041.6257	3042.8908	3081.8115	3108.0903	3115.6341	3116.3723	3120.5242	3120.7888
CC1CC(C)OCO1	C[C@H]1C[C@@H](C)OCO1	
InChI=1S/C6H12O2/c1-5-3-6(2)8-4-7-5/h5-6H,3-4H2,1-2H3	InChI=1S/C6H12O2/c1-5-3-6(2)8-4-7-5/h5-6H,3-4H2,1-2H3/t5-,6+
