18
gdb 70703	2.29893	1.87888	1.21931	4.3448	71.99	-0.2427	0.0075	0.2502	1045.9957	0.148787	-439.115607	-439.107416	-439.106472	-439.148256	31.233	
C	-0.1809290726	 1.5152778447	 0.0519084836	-0.467541
C	 0.1047154137	 0.0381294283	-0.0095918132	 0.277986
O	-0.6988377036	-0.797272437	 0.847973213	-0.277122
C	 0.7021575147	-0.7109344517	 1.1148558035	-0.029346
C	 1.4966087901	-1.9830872679	 0.8604258826	-0.226118
C	 2.0529808928	-2.0223012234	-0.5650289747	-0.172329
N	 1.0360388919	-1.6329878107	-1.5360103022	-0.326559
C	 0.2335193951	-0.5335463422	-1.4144432124	 0.378523
O	-0.376250719	-0.0554950562	-2.3527099361	-0.370189
H	 0.6648348205	 2.0912945947	-0.3376812551	 0.123594
H	-1.0527100989	 1.7462999784	-0.5642148963	 0.155237
H	-0.37264575	 1.8191862247	 1.0835728722	 0.121998
H	 0.9427134516	-0.1519022977	 2.0192750298	 0.094255
H	 2.3251033763	-2.0625570698	 1.5707586509	 0.108096
H	 0.8308307684	-2.835456763	 1.0291050839	 0.131132
H	 2.9326598626	-1.3645697333	-0.6378889147	 0.110824
H	 2.3896494021	-3.0329348894	-0.8126556787	 0.118992
H	 1.1345529445	-1.9580695784	-2.4872948661	 0.248568
83.2501	169.0904	194.3071	220.723	287.8131	302.7614	409.8773	452.2922	488.8945	537.1218	573.6429	651.8202	699.6286	770.8426	787.8758	885.0434	891.9385	931.3901	982.0976	1044.3951	1068.2722	1104.5753	1109.9596	1140.369	1213.3216	1239.8703	1267.5143	1317.9886	1367.0561	1374.208	1407.0974	1410.1259	1454.4198	1468.4951	1475.679	1482.5765	1496.7584	1520.4529	1790.8695	2984.2332	3046.9557	3051.5535	3082.3142	3096.8605	3110.2221	3117.5948	3140.5679	3605.3521
CC12OC1CCNC2=O	C[C@]12O[C@H]1CCNC2=O	
InChI=1S/C6H9NO2/c1-6-4(9-6)2-3-7-5(6)8/h4H,2-3H2,1H3,(H,7,8)	InChI=1S/C6H9NO2/c1-6-4(9-6)2-3-7-5(6)8/h4H,2-3H2,1H3,(H,7,8)/t4-,6-/m0/s1
