24
gdb 123163	5.9884	0.50199	0.49383	0.8904	87.99	-0.2327	0.092	0.3247	2341.8066	0.215926	-405.507937	-405.497123	-405.496179	-405.54567	38.044	
C	-0.3451339484	 1.6061300175	 0.0492539186	-0.380713
C	-0.2300207403	 0.0791219391	 0.0508608848	-0.18169
C	-1.464235363	-0.5873961686	-0.5632471521	-0.04163
O	-1.3660248217	-1.9938832232	-0.6763257706	-0.248273
C	-1.5530096577	-2.7022869755	 0.5303778121	-0.061001
C	-1.5909749672	-4.1879824848	 0.1909482413	-0.155568
N	-1.7459995283	-4.9769302875	 1.4058478976	-0.066334
C	-3.1167473828	-5.2815696578	 1.8084252039	-0.219682
C	-2.2400004619	-6.3366523364	 1.2308964249	-0.218039
H	 0.5434314394	 2.0712537204	 0.4857887363	 0.117147
H	-0.4580032622	 1.995556128	-0.9687788505	 0.116286
H	-1.2128536219	 1.9412305621	 0.6286000753	 0.115815
H	 0.652238094	-0.2372164208	-0.517955411	 0.105496
H	-0.0857427616	-0.2765406402	 1.0777647861	 0.101595
H	-2.3654476762	-0.3135744397	 0.0121832455	 0.081193
H	-1.6073596017	-0.2184143507	-1.5858416691	 0.101195
H	-0.7430666793	-2.5160982908	 1.2503460848	 0.101321
H	-2.4976449369	-2.3991957492	 1.0136200981	 0.083125
H	-2.3962440954	-4.3698591562	-0.5426695153	 0.086072
H	-0.6455770179	-4.4671788134	-0.2872755323	 0.111948
H	-3.317122669	-5.2505701693	 2.8755194866	 0.115993
H	-3.9265014449	-4.9117815224	 1.1805270894	 0.109542
H	-2.4671734169	-6.670710779	 0.2195200629	 0.109888
H	-1.7868132283	-7.0907521114	 1.8681732927	 0.116314
34.0623	56.3777	72.6535	101.9992	129.4951	164.2327	240.12	268.1972	301.2693	322.4092	392.371	466.6705	542.0459	757.3141	775.6325	818.9725	849.5767	888.4467	890.6467	903.2038	997.8825	1020.0618	1038.573	1041.4494	1087.0591	1114.7115	1118.7985	1122.3139	1141.1754	1156.9622	1176.5631	1197.8641	1207.0302	1248.8835	1287.7641	1304.0462	1325.2616	1327.0273	1335.9487	1353.631	1410.2151	1419.9741	1439.4516	1486.4325	1488.59	1495.8683	1499.5935	1502.6436	1512.3766	1523.0012	1529.4832	2949.2833	2956.0317	2963.1144	3013.7507	3030.5723	3035.0143	3048.9634	3067.2145	3071.7717	3091.7409	3096.3828	3098.6912	3107.0751	3175.1089	3189.476
CCCOCCN1CC1	CCCOCCN1CC1	
InChI=1S/C7H15NO/c1-2-6-9-7-5-8-3-4-8/h2-7H2,1H3	InChI=1S/C7H15NO/c1-2-6-9-7-5-8-3-4-8/h2-7H2,1H3
