16
gdb 30224	3.65847	1.29913	1.01077	3.9721	73.46	-0.1967	0.027	0.2237	1135.2515	0.12628	-434.052656	-434.044618	-434.043674	-434.085496	29.878	
N	-0.0816486726	 1.5032782048	-0.0893534691	-0.603171
C	-0.0602910497	 0.1034662432	-0.1150175536	 0.214574
C	-1.0225629714	-0.8616114168	 0.1641347708	-0.155351
N	-0.5770967963	-2.1492504989	-0.0971194101	-0.359399
C	 0.6329136265	-1.9450760605	-0.5512859948	 0.284557
C	 2.034500997	-2.4412838549	-0.8878614971	 0.012857
O	 2.2482246913	-3.1929586737	-2.0474970709	-0.416828
C	 2.4070017764	-0.8882495984	-0.9190073645	-0.214222
N	 0.9834336589	-0.6314945581	-0.6163920953	-0.021225
H	 0.6392207527	 1.8990651299	 0.5056807626	 0.247183
H	-0.9797202887	 1.8438034034	 0.2308581722	 0.252453
H	-2.0255906278	-0.6815827471	 0.5239129455	 0.096924
H	 2.544969307	-2.9724419023	-0.0797876329	 0.117152
H	 1.599294541	-2.9186231737	-2.7052874341	 0.289213
H	 3.0958583348	-0.5570217622	-0.1368925373	 0.126759
H	 2.7286673808	-0.5140735547	-1.8940452017	 0.128523
81.4881	117.2559	173.8641	233.5143	278.7178	349.4933	378.2386	461.2707	553.6974	641.6297	659.3707	688.4118	768.2399	782.3054	789.4548	810.9037	868.3827	978.5362	1039.6266	1095.7544	1134.3267	1150.0811	1151.8624	1207.359	1232.5016	1246.9173	1284.6851	1300.4229	1378.5646	1424.9495	1462.5074	1507.0752	1560.5934	1581.963	1653.4221	3056.4044	3080.7423	3118.66	3234.6939	3505.2568	3605.6033	3801.7756
NC1=CN=C2C(O)CN12	Nc1cnc2[C@@H](O)Cn12	
InChI=1S/C5H7N3O/c6-4-1-7-5-3(9)2-8(4)5/h1,3,9H,2,6H2	InChI=1S/C5H7N3O/c6-4-1-7-5-3(9)2-8(4)5/h1,3,9H,2,6H2/t3-/m0/s1
