18
gdb 19568	3.84979	1.99178	1.83557	1.6763	71.01	-0.2406	0.0884	0.329	813.4276	0.155772	-347.763752	-347.757298	-347.756354	-347.793995	26.496	
C	-0.0135354823	 1.561978823	 0.011019012	-0.35916
C	 1.2885462716	 0.7692870321	-0.0064418984	-0.358297
C	-0.024510695	 0.0713476502	 0.0025166827	 0.455679
C	-0.5391208577	-0.9865146164	 0.9804239839	-0.014369
C	-2.0721462237	-0.9212472316	 0.7999808802	-0.21513
C	-2.0876496831	-0.9122486206	-0.7656146206	-0.215129
C	-0.5585040199	-0.9752487231	-0.9771192813	-0.014378
O	-0.1646877457	-2.0009497558	-0.0080240682	-0.301559
H	-0.2822746254	 2.0778089752	 0.9277996157	 0.113601
H	-0.3002871397	 2.0883457733	-0.8942429441	 0.113601
H	 1.8696253354	 0.7683090518	-0.9231757964	 0.115747
H	 1.8876631784	 0.7577773585	 0.8985336049	 0.115747
H	-0.1193984775	-1.1484340005	 1.9735642628	 0.077613
H	-2.5614250262	-1.8011269407	 1.2226126668	 0.105855
H	-2.5128175719	-0.024385172	 1.2433472795	 0.098356
H	-2.5852945888	-1.7872728996	-1.1885598185	 0.105856
H	-2.5369195782	-0.0104041012	-1.1898298098	 0.098355
H	-0.1585508703	-1.1256803628	-1.9801746413	 0.077613
172.8032	225.6075	250.7083	335.737	436.0246	569.4495	608.8969	715.9404	767.5074	821.8264	835.627	868.0413	873.0167	916.4908	931.1917	935.2184	952.4261	975.9963	996.5963	1011.7482	1042.9087	1063.9137	1079.3148	1127.7453	1180.159	1192.5866	1215.7184	1224.45	1236.5281	1254.8892	1280.2559	1302.6308	1319.1444	1427.7453	1463.8019	1477.5833	1496.2941	1519.8666	3062.9692	3071.3034	3109.7453	3119.2431	3120.8396	3122.6288	3125.4859	3126.7845	3197.992	3212.4906
C1CC11C2CCC1O2	C1CC21[C@H]1CC[C@@H]2O1	
InChI=1S/C7H10O/c1-2-6-7(3-4-7)5(1)8-6/h5-6H,1-4H2	InChI=1S/C7H10O/c1-2-6-7(3-4-7)5(1)8-6/h5-6H,1-4H2/t5-,6+
