17
gdb 80897	2.61593	1.78983	1.50499	2.3935	66.09	-0.2545	0.06	0.3145	924.1427	0.136176	-458.902506	-458.89518	-458.894236	-458.933672	30.166	
O	-0.0850327274	 1.421264221	-0.0462239979	-0.464715
C	 0.0491676528	 0.012849267	-0.0163492753	 0.08305
C	 0.1341815827	-0.6278479179	 1.4073539489	-0.146216
C	-1.3817283493	-0.2604274716	 1.5572167226	-0.298204
C	-1.3716152016	-0.6080830795	 0.0099419909	 0.386566
O	-2.354248006	-0.2228197164	-0.8841184745	-0.500535
C	-1.0742237342	-2.1163872146	 0.0895473709	-0.010292
O	 0.2582186816	-2.5100617907	-0.2855015869	-0.258466
C	 0.0012980533	-2.1324017283	 1.0798844487	 0.039755
H	 0.7941343804	 1.8088868915	-0.0730157655	 0.290939
H	 0.7477178659	-0.3430266507	-0.7741210848	 0.094734
H	 0.8838488685	-0.3145613267	 2.132178389	 0.06778
H	-1.992344704	-0.8890647704	 2.2105149868	 0.092847
H	-1.5531514274	 0.7972626694	 1.755464588	 0.113743
H	-2.2911140411	 0.7362738815	-0.971257669	 0.291543
H	-1.8584237592	-2.855528945	-0.0302702039	 0.110569
H	 0.1559240049	-2.9034788287	 1.827086882	 0.106903
195.3565	236.085	258.9423	308.919	370.388	396.7384	420.8406	449.966	538.5484	623.6225	639.4092	674.3423	812.8167	826.2987	868.3682	884.2783	918.3961	946.6302	968.9012	976.1404	1001.9174	1066.5724	1074.3628	1102.9816	1136.1734	1157.5847	1192.8553	1207.5247	1230.9367	1244.1541	1278.1531	1280.7149	1319.503	1396.9357	1406.8715	1431.213	1495.1071	3069.2234	3106.3054	3129.2723	3149.5029	3170.1031	3185.5904	3788.2982	3837.493
OC1C2CC1(O)C1OC21	O[C@H]1[C@H]2C[C@]1(O)[C@H]1O[C@@H]21	
InChI=1S/C6H8O3/c7-4-2-1-6(4,8)5-3(2)9-5/h2-5,7-8H,1H2	InChI=1S/C6H8O3/c7-4-2-1-6(4,8)5-3(2)9-5/h2-5,7-8H,1H2/t2-,3-,4-,5-,6+/m0/s1
