18
gdb 51556	2.62768	1.32184	1.04145	4.8271	72.9	-0.24	0.0189	0.2589	1174.5511	0.147409	-439.06332	-439.054662	-439.053718	-439.097411	31.277	
O	 0.4656875097	 1.0197059223	 1.5154637612	-0.314685
C	 0.2741964123	 1.5572966595	 0.4475126982	 0.154021
N	 1.2260703438	 1.7520492273	-0.5108250055	-0.281918
C	 2.541692139	 1.1905322032	-0.408396191	-0.037148
C	 3.6941838189	 1.9690138374	-0.9972339203	-0.39879
C	 3.5493292613	 1.8424952123	 0.4878418749	 0.309869
C	 3.3403172078	 2.9348976459	 1.5300318298	-0.136502
O	 4.2677225838	 2.2783977759	 2.4247281505	-0.275259
C	 4.4789977713	 1.1887880935	 1.5025434691	-0.133413
H	-0.7086565164	 1.9674663049	 0.1384700167	 0.077897
H	 0.9212580471	 2.0932865539	-1.4100647812	 0.24989
H	 2.5836893307	 0.1043927139	-0.4733889008	 0.109444
H	 4.478590194	 1.4115699921	-1.4989414939	 0.123977
H	 3.4718002302	 2.9352965925	-1.4409486398	 0.118548
H	 3.6827372658	 3.9400136409	 1.251334931	 0.096048
H	 2.3320395099	 2.9888045595	 1.954728127	 0.126625
H	 4.131203754	 0.230169331	 1.9089780902	 0.112451
H	 5.5324812168	 1.099581604	 1.2055427638	 0.098944
62.9088	88.8248	123.6755	163.8704	256.6405	274.5728	339.0088	413.3495	460.9288	527.9845	598.3443	788.0379	829.6037	863.8494	873.2658	890.6186	973.9459	1000.4553	1031.0509	1033.4767	1051.7615	1070.302	1089.1523	1128.6923	1135.4073	1156.3945	1167.9003	1224.7348	1242.303	1312.1498	1328.6825	1381.7745	1427.9296	1434.6924	1494.1677	1502.1572	1505.5561	1529.3218	1809.8705	2930.1537	3000.2698	3014.081	3046.0345	3071.9352	3113.9921	3121.4885	3208.8745	3610.8094
O=CNC1CC11COC1	O=CN[C@H]1CC21COC2	
InChI=1S/C6H9NO2/c8-4-7-5-1-6(5)2-9-3-6/h4-5H,1-3H2,(H,7,8)	InChI=1S/C6H9NO2/c8-4-7-5-1-6(5)2-9-3-6/h4-5H,1-3H2,(H,7,8)/t5-/m0/s1
