16
gdb 55724	2.51686	1.32081	1.08565	2.2295	71.59	-0.2467	0.0332	0.2799	1159.5646	0.121784	-437.875444	-437.866279	-437.865334	-437.909633	33.998	
N	-0.2162800344	 1.3047262069	-0.0323792637	-0.561309
C	-0.0001729669	-0.0182151581	 0.2318710457	 0.47452
O	 0.9183118056	-0.4714224302	 0.8648034358	-0.383828
O	-1.0290050998	-0.750005029	-0.3029470681	-0.29868
C	-0.9459246892	-2.1548482171	-0.1317934953	 0.276917
C	-1.2428484406	-2.7010411839	 1.2433803349	-0.295736
C	-2.2803151669	-2.8036867546	 0.1579628813	-0.319684
C	-0.0003467764	-2.8137187801	-0.989940511	 0.325284
C	 0.7709591431	-3.3742243897	-1.7217995061	-0.48846
H	 0.5641390725	 1.9179365146	 0.1292751799	 0.270313
H	-0.8655213795	 1.5512902338	-0.7601628863	 0.266415
H	-0.7072383768	-3.591593235	 1.5478836292	 0.136634
H	-1.3905706257	-1.9640203345	 2.0230212665	 0.136219
H	-3.1291496935	-2.131168456	 0.2002502025	 0.13066
H	-2.4716093181	-3.7668617307	-0.2987180541	 0.132171
H	 1.4678058764	-3.8634125264	-2.356230401	 0.198563
61.3848	78.8645	154.2489	188.1485	217.1277	346.0097	362.9853	372.1454	434.3463	505.7801	543.6663	556.9649	583.6669	630.5166	686.0437	744.5066	766.139	783.9393	870.7579	920.951	961.5585	975.0998	1035.5944	1070.432	1082.5716	1118.7769	1189.6496	1248.7517	1317.9432	1357.653	1453.8346	1486.8921	1610.9582	1852.2579	2240.0012	3147.1658	3154.6684	3236.3378	3250.9009	3503.9643	3612.4858	3741.1484
NC(=O)OC1(CC1)C#C	NC(=O)OC1(CC1)C#C	
InChI=1S/C6H7NO2/c1-2-6(3-4-6)9-5(7)8/h1H,3-4H2,(H2,7,8)	InChI=1S/C6H7NO2/c1-2-6(3-4-6)9-5(7)8/h1H,3-4H2,(H2,7,8)
