18
gdb 73646	2.35508	1.72145	1.46079	4.8805	70.77	-0.2414	0.0102	0.2515	994.1075	0.149246	-439.121252	-439.113424	-439.11248	-439.153392	30.291	
C	 0.0224104864	 1.5653187912	 0.0296075928	-0.488628
C	-0.02292365	 0.0505974989	 0.0643397694	 0.102576
N	-1.3718869675	-0.4949984466	 0.0318401446	-0.311619
C	-1.2961981757	-1.8319272755	 0.6466116899	-0.194342
C	-0.1740090909	-1.7603757745	 1.7148773367	-0.237825
C	 0.8022134001	-0.7589988525	 1.1211929505	 0.088953
O	 1.6220131539	-1.3324541576	 0.0448776641	-0.269199
C	 0.933389909	-0.6562099903	-0.9330758023	 0.44778
O	 1.1237775365	-0.6820800299	-2.1049475013	-0.32945
H	 1.0521130317	 1.931551923	 0.0559559285	 0.136713
H	-0.4462875562	 1.9314615529	-0.8878635093	 0.153669
H	-0.5125248435	 1.9890570629	 0.8871705957	 0.118212
H	-1.9835372194	 0.1069793321	 0.5750268837	 0.219536
H	-2.2668506463	-2.1227346467	 1.0527906308	 0.11059
H	-1.0318080726	-2.5630497955	-0.125695483	 0.133485
H	-0.5644514246	-1.3567262186	 2.6566401006	 0.104552
H	 0.2926441134	-2.7259224553	 1.9254230093	 0.123047
H	 1.4374321658	-0.226266308	 1.8293164293	 0.09195
115.8644	182.5144	203.2255	227.0091	283.1462	307.0609	376.1521	513.0725	615.1773	634.5577	684.2323	738.3483	761.4308	817.9328	833.7572	876.1375	894.2125	934.7981	951.4998	1011.9058	1050.7739	1070.3227	1109.3236	1137.3238	1169.07	1177.4004	1228.1654	1277.5735	1306.7253	1336.4161	1340.0711	1370.0808	1410.6774	1459.847	1471.0942	1489.7902	1495.6813	1505.938	1937.0031	3035.5838	3041.9087	3048.4734	3106.6515	3107.8125	3113.7543	3117.0773	3126.7164	3508.2403
CC12NCCC1OC2=O	C[C@]12NCC[C@H]1OC2=O	
InChI=1S/C6H9NO2/c1-6-4(2-3-7-6)9-5(6)8/h4,7H,2-3H2,1H3	InChI=1S/C6H9NO2/c1-6-4(2-3-7-6)9-5(6)8/h4,7H,2-3H2,1H3/t4-,6+/m1/s1
