18
gdb 86517	3.34835	1.02065	0.84242	3.7347	81.48	-0.2386	-0.0401	0.1985	1374.4476	0.147824	-398.13199	-398.122782	-398.121838	-398.166899	32.634	
C	-0.5308425407	 1.4466270109	-0.0048501492	-0.405087
C	 0.0899882395	 0.0595204953	 0.015625506	 0.013115
C	 1.3801876725	-0.1553159277	-0.8361465055	-0.198276
N	 2.0405003948	-0.6630432198	 0.3743772878	-0.070322
C	 0.9315786903	-0.3275766721	 1.2699340985	-0.183081
C	 3.3538690385	-0.7299867398	 0.7107434024	 0.25703
N	 3.746192381	-0.764969088	 1.9318257359	-0.525117
C	 4.259623088	-0.7822710442	-0.4294372707	 0.242856
N	 5.0130016867	-0.8131022955	-1.3063821736	-0.333996
H	 0.2148018127	 2.2171425467	 0.2197971376	 0.123709
H	-0.9620310426	 1.6720659902	-0.9859198618	 0.125101
H	-1.3311639128	 1.5288128682	 0.7379330014	 0.126285
H	-0.6632096669	-0.6992377819	-0.2097323429	 0.091786
H	 1.317031961	-0.8831503912	-1.6506166814	 0.127298
H	 1.8196948723	 0.7730143673	-1.2217390642	 0.121568
H	 1.1684823348	 0.5075446415	 1.9405355295	 0.123845
H	 0.5753350332	-1.169058661	 1.8710312445	 0.12525
H	 4.7566141878	-0.8634462388	 1.9896541057	 0.238035
49.4009	79.745	123.139	134.1047	216.8918	252.715	323.136	343.4595	395.6236	491.233	514.5737	660.0102	719.9641	762.6769	802.8797	887.7945	896.5284	905.3	931.9628	992.8099	1095.0475	1121.3637	1145.3394	1156.1652	1174.0677	1214.4393	1237.4231	1281.38	1299.8902	1328.5072	1376.9085	1415.7401	1449.9041	1494.6454	1496.255	1507.089	1525.7625	1672.489	2345.2216	3023.4821	3029.5069	3034.5454	3069.201	3082.0709	3088.4137	3102.0118	3105.7843	3530.4909
CC1CN(C1)C(=N)C#N	C[C@H]1CN(C1)[C]([NH])C#N	
InChI=1S/C6H9N3/c1-5-3-9(4-5)6(8)2-7/h5,8H,3-4H2,1H3	InChI=1S/C6H9N3/c1-5-3-9(4-5)6(8)2-7/h5,8H,3-4H2,1H3
