20
gdb 12830	3.0578	2.19392	1.67607	0.3925	80.96	-0.2199	0.024	0.2439	878.8795	0.178442	-311.860632	-311.853262	-311.852318	-311.891662	29.77	
C	-0.1048067836	 1.5729866168	-0.1424337963	-0.454136
C	-0.0445227157	 0.0461034903	-0.0361111818	 0.319446
C	 1.1537706451	-0.5592034816	-0.8642110469	-0.28162
C	 2.0021730829	-0.6173455966	 0.4627644841	-0.327395
C	 0.6740258956	-0.5052907202	 1.1742575878	 0.289229
C	-0.1282238462	-1.0935768026	 2.0540887606	-0.237274
C	-1.5782761562	-0.9171414468	 1.6043777573	-0.240116
C	-1.4402824291	-0.6116254132	 0.0760276624	-0.293405
H	 0.8839226806	 2.0286178554	-0.0227272835	 0.11025
H	-0.4938513521	 1.8764349728	-1.1215038949	 0.11175
H	-0.7605089185	 1.9968622133	 0.6258101789	 0.115873
H	 0.9310837665	-1.5605540302	-1.240692956	 0.103091
H	 1.5537502683	 0.055998288	-1.6753234411	 0.093564
H	 2.6045007558	-1.5086141331	 0.6530106966	 0.108404
H	 2.6415289445	 0.2652924338	 0.5678507681	 0.111076
H	 0.1581202742	-1.694269241	 2.910105933	 0.087204
H	-2.1736708964	-1.818046568	 1.7889668222	 0.098779
H	-2.0865120364	-0.1011207901	 2.1376382772	 0.102005
H	-2.253279056	 0.0134818858	-0.3073284714	 0.087436
H	-1.4597596132	-1.5561702927	-0.4789955263	 0.095839
129.6497	233.3295	249.8249	254.5439	321.9175	346.3399	450.245	550.5682	642.3077	678.2841	738.5089	776.2305	821.7757	858.9237	880.9318	898.4138	907.0135	938.2058	967.2223	972.5891	1007.8049	1055.9777	1093.1265	1113.9466	1158.3706	1194.2254	1208.5765	1213.172	1226.9923	1256.0634	1263.6449	1303.9544	1310.5851	1335.7825	1409.2993	1469.4316	1480.3976	1484.6247	1493.1041	1496.5744	1498.2323	1734.9161	3004.4396	3021.9748	3035.4609	3047.3384	3053.0138	3060.7881	3083.9338	3087.3154	3095.5999	3101.1273	3118.6475	3191.8711
CC12CCC1=CCC2	C[C@@]12CC[C]1[CH]CC2	
InChI=1S/C8H12/c1-8-5-2-3-7(8)4-6-8/h3H,2,4-6H2,1H3	InChI=1S/C8H12/c1-8-5-2-3-7(8)4-6-8/h3H,2,4-6H2,1H3/t8-/m1/s1
