18
gdb 14527	3.76251	1.67891	1.37117	3.2829	67.11	-0.2435	0.0773	0.3208	949.1958	0.152757	-384.900146	-384.892095	-384.891151	-384.932949	29.38	
C	 0.3745298221	 1.3926639008	 0.7928884571	-0.468024
C	-0.0314195382	 0.1359447852	 0.0546484326	 0.394296
C	 0.5650789858	-0.2101021136	-1.2425122947	-0.223471
O	 0.9802006167	-0.8709432599	-0.0400047108	-0.277512
C	-1.4051746165	-0.3937416413	 0.4104307272	 0.084048
C	-2.6324590404	 0.4374721798	-0.0361312646	-0.294303
C	-3.0576723975	-0.8574811114	-0.7547122368	-0.062629
O	-1.8250758201	-1.5169775094	-0.3918822065	-0.283126
H	 1.3963120025	 1.672493474	 0.526712685	 0.132819
H	-0.2901869458	 2.2297518889	 0.5545797822	 0.122183
H	 0.3380913477	 1.2315768965	 1.8761616513	 0.127038
H	 0.0061769044	-0.8353439555	-1.9338559308	 0.125448
H	 1.3037650467	 0.4564463821	-1.6867991972	 0.103901
H	-1.4131295069	-0.6575274443	 1.4784793606	 0.082155
H	-3.2909488683	 0.7931421232	 0.7569238589	 0.113295
H	-2.3894991828	 1.2660937762	-0.704364419	 0.112032
H	-3.9291125814	-1.3641532855	-0.3218006994	 0.105616
H	-3.1863633078	-0.7969771359	-1.8413786052	 0.106233
78.9893	81.603	178.1223	191.8661	271.8203	327.191	363.313	461.7235	518.8533	676.5608	775.6301	821.6973	848.8081	888.5337	927.9059	956.2115	977.6161	1019.0457	1039.1093	1060.3208	1081.2585	1127.6817	1135.4114	1168.7052	1173.1747	1216.7496	1254.4423	1257.5264	1277.0625	1356.6954	1384.618	1400.7729	1416.517	1482.8344	1488.0716	1494.2137	1519.8872	1531.1097	2992.8076	3019.4071	3034.9549	3060.7664	3079.1289	3086.8578	3096.5744	3127.135	3136.5455	3186.8687
CC1(CO1)C1CCO1	C[C@]1(CO1)[C@H]1CCO1	
InChI=1S/C6H10O2/c1-6(4-8-6)5-2-3-7-5/h5H,2-4H2,1H3	InChI=1S/C6H10O2/c1-6(4-8-6)5-2-3-7-5/h5H,2-4H2,1H3/t5-,6+/m1/s1
