17
gdb 9734	3.75385	1.52078	1.48577	3.5882	68.	-0.2964	0.0222	0.3186	928.2423	0.143182	-363.892389	-363.884562	-363.883617	-363.924941	29.212	
O	-0.2597622006	 1.3785044363	 0.2536412033	-0.456449
C	-0.0036543748	-0.0011556659	 0.0052562804	 0.251805
C	 0.7103406333	-0.6616048866	 1.2067971725	-0.237831
C	-0.4237440516	-0.797681624	 2.2312753566	-0.210052
C	-1.6239811279	-1.2724539478	 1.3841513884	-0.206796
C	-1.3874253353	-0.7016587907	-0.0418845785	-0.231102
C	 0.7586123739	-0.1467631053	-1.2499674084	 0.228804
N	 1.3799426172	-0.24492358	-2.2197788752	-0.342889
H	 0.5861216133	 1.8330832685	 0.3423097383	 0.289566
H	 1.0885031164	-1.6461021006	 0.9085812024	 0.119504
H	 1.563399218	-0.067425322	 1.5484706653	 0.103029
H	-0.177296761	-1.4842004481	 3.0446903442	 0.10094
H	-0.6331999479	 0.1818038992	 2.6705524534	 0.116531
H	-1.6491802904	-2.3659094784	 1.3470590752	 0.108391
H	-2.5785235914	-0.9464685285	 1.803203851	 0.110104
H	-2.1307209792	 0.0406150282	-0.3382471624	 0.133068
H	-1.3884194322	-1.4910768641	-0.7960855864	 0.123379
43.6906	158.5882	170.9301	232.4774	343.1741	387.5899	403.151	492.8218	561.6098	579.1862	613.909	755.5216	791.0066	852.6493	895.3738	917.2518	950.9621	1015.516	1021.5263	1048.179	1072.6941	1103.0823	1194.1795	1222.8502	1240.1417	1287.0871	1300.3198	1329.9607	1341.9395	1350.2186	1377.3367	1477.7686	1484.1416	1488.2463	1511.5884	2350.716	3045.185	3055.679	3062.3609	3081.7897	3093.2108	3098.838	3115.0039	3132.8131	3797.5039
OC1(CCCC1)C#N	OC1(CCCC1)C#N	
InChI=1S/C6H9NO/c7-5-6(8)3-1-2-4-6/h8H,1-4H2	InChI=1S/C6H9NO/c7-5-6(8)3-1-2-4-6/h8H,1-4H2
