16
gdb 44277	3.35765	1.84148	1.42978	3.5329	71.58	-0.235	-0.0247	0.2103	893.5406	0.126382	-400.697154	-400.69088	-400.689936	-400.727835	25.867	
O	 0.0123107746	-0.05550732	-0.2789579925	-0.330917
C	-0.0305769087	 1.1279052825	-0.0232411254	 0.415577
C	-1.3256314288	 1.8949564359	 0.1322840167	-0.369131
C	-1.078293024	 3.3430522622	 0.4820223849	-0.04616
C	 0.0103137893	 3.8043472493	 1.4253194829	-0.113538
C	 0.0847137595	 4.1231294002	-0.0535903977	-0.028841
N	 1.3836264474	 3.3532709391	-0.2206519847	-0.160571
C	 1.3025714347	 2.9993234855	 1.2182320744	-0.059421
C	 1.2105420005	 1.9191675412	 0.1860662734	-0.132496
H	-1.8851121554	 1.8117410945	-0.8071084867	 0.14111
H	-1.9301696654	 1.3939790549	 0.8975886665	 0.139002
H	-1.9728973384	 3.9559453827	 0.565611131	 0.102328
H	-0.1657400925	 4.4557962564	 2.2699445295	 0.102689
H	 0.0020395094	 5.0578268714	-0.5923991152	 0.110883
H	 2.1689903629	 3.0777887056	 1.8669435322	 0.111929
H	 2.1188095348	 1.3519204487	 0.0064560609	 0.117558
89.1691	273.5512	428.9161	458.0871	465.4072	521.5586	599.5315	690.41	712.8635	726.1592	738.0206	833.581	855.8202	872.525	930.1564	956.4743	962.6278	990.3098	1013.0365	1053.8904	1057.6005	1064.5153	1095.6401	1132.8331	1189.9034	1214.3077	1257.9602	1260.2753	1319.1936	1323.5658	1336.8591	1371.8563	1435.4181	1449.9164	1800.8741	3037.4428	3074.3811	3139.2591	3160.4828	3171.0561	3197.1689	3212.7398
O=C1CC2C3C2N2C3C12	O=C1C[C@H]2[C@@H]3[C@H]2N2[C@@H]3[C@@H]12	
InChI=1S/C7H7NO/c9-3-1-2-4-5(2)8-6(3)7(4)8/h2,4-7H,1H2	InChI=1S/C7H7NO/c9-3-1-2-4-5(2)8-6(3)7(4)8/h2,4-7H,1H2/t2-,4+,5-,6+,7-,8?/m0/s1
