19
gdb 70007	3.58633	1.40707	1.20405	1.7626	82.3	-0.2251	0.0052	0.2303	1087.0273	0.159872	-385.836238	-385.828562	-385.827618	-385.868069	30.487	
C	-0.0995854135	 1.5747536321	 0.0839394376	-0.497463
C	 0.0961248777	 0.0910272855	-0.0271453635	 0.243125
C	-0.8060971471	-0.9416422928	 0.6221595492	-0.308697
C	 0.6464613967	-0.9459963317	 1.0002532148	-0.160664
C	 1.5601141151	-1.5038671992	-0.1141575733	 0.108862
O	 1.578650999	-2.8243036656	-0.6294350187	-0.28428
C	 1.4516563414	-2.6696722734	-2.0580526826	-0.107803
C	 0.7322037865	-1.3334000817	-2.2682919941	-0.276628
C	 0.8104381521	-0.6848127204	-1.1136692654	 0.203664
H	 0.8448250997	 2.115313016	-0.038902207	 0.123638
H	-0.7936310283	 1.9394337626	-0.6824914751	 0.12579
H	-0.516140235	 1.8398131537	 1.0607943235	 0.121382
H	-1.4701386505	-0.5499966535	 1.3881624748	 0.110902
H	-1.2277226502	-1.7478560569	 0.0299581398	 0.119989
H	 0.9697434472	-0.7698797272	 2.0193452035	 0.085973
H	 2.5857193364	-1.1410819416	 0.0673347949	 0.075735
H	 2.4460443728	-2.7048647381	-2.5343032557	 0.099532
H	 0.8685847555	-3.513534383	-2.4464978309	 0.113337
H	 0.1889124945	-1.0915778546	-3.1728071219	 0.103605
145.8022	166.1954	205.3898	231.5979	305.3348	329.9766	464.2095	516.2556	571.188	667.2114	727.9408	750.8539	809.9102	832.649	866.2999	916.7146	933.9776	949.1967	977.6856	983.9921	1006.7155	1021.3199	1071.6131	1086.7877	1095.3833	1111.1284	1115.1129	1195.4545	1223.0285	1244.7961	1252.7553	1300.5716	1338.5407	1358.7939	1386.6188	1420.384	1484.4339	1485.0676	1498.5782	1510.6886	1724.3545	2958.495	2961.5179	3026.0907	3045.625	3085.7948	3102.9513	3115.0418	3181.4569	3201.0296	3213.123
CC12CC1C1OCC=C21	C[C@]12C[C@H]1[C@H]1OC[CH][C]21	
InChI=1S/C8H10O/c1-8-4-6(8)7-5(8)2-3-9-7/h2,6-7H,3-4H2,1H3	InChI=1S/C8H10O/c1-8-4-6(8)7-5(8)2-3-9-7/h2,6-7H,3-4H2,1H3/t6-,7-,8+/m0/s1
