18
gdb 7408	2.91361	1.59028	1.25719	3.835	68.3	-0.2447	-0.0283	0.2164	1038.8479	0.149285	-384.987152	-384.977202	-384.976257	-385.022785	33.945	
C	-0.0263085836	 1.722657563	 0.6671174266	-0.394271
C	-0.0828767509	 0.2866166735	 0.1173462385	-0.202359
C	 0.6906415782	-0.6504589637	 1.0553689486	 0.391546
C	 2.1864708636	-0.7597500283	 0.8293658501	-0.480563
O	 0.1299627778	-1.2517017634	 1.9430895983	-0.303497
C	-1.5363879762	-0.1814965464	-0.0776273629	 0.402655
C	-1.7388267799	-1.5998490033	-0.5726620683	-0.486986
O	-2.4640438121	 0.5616997491	 0.134479125	-0.292581
H	 1.0038983504	 2.0841397504	 0.7289318424	 0.11186
H	-0.5948120295	 2.3914433397	 0.0185497613	 0.141053
H	-0.4752807863	 1.7648370821	 1.6622051467	 0.147383
H	 0.402363332	 0.2591558639	-0.869046547	 0.095578
H	 2.6464373792	 0.2279440883	 0.7248327067	 0.142746
H	 2.6492276178	-1.3050616539	 1.6526079613	 0.14689
H	 2.372002521	-1.2960017218	-0.1094328997	 0.144202
H	-1.0388174687	-1.8485035139	-1.377479568	 0.122746
H	-1.5477152608	-2.290801719	 0.254339446	 0.171231
H	-2.7661597521	-1.7247012462	-0.9166709358	 0.142366
41.9195	53.6506	123.427	131.0517	182.7231	191.2697	228.0015	269.3115	344.1669	399.2353	482.0109	564.8625	599.165	634.3103	744.8241	813.4206	942.4746	956.8493	967.0982	993.2817	1065.3935	1101.5555	1113.259	1170.6263	1198.8746	1302.9389	1327.949	1378.5884	1381.7623	1406.5368	1460.9208	1469.456	1474.8969	1477.783	1487.1895	1495.0181	1802.4168	1818.0302	3008.9972	3036.1387	3043.635	3054.2923	3099.1951	3112.1773	3128.4363	3141.8223	3153.3859	3154.1985
CC(C(C)=O)C(C)=O	CC(C(=O)C)C(=O)C	
InChI=1S/C6H10O2/c1-4(5(2)7)6(3)8/h4H,1-3H3	InChI=1S/C6H10O2/c1-4(5(2)7)6(3)8/h4H,1-3H3
