17
gdb 128426	4.98208	0.90276	0.82765	3.1769	70.75	-0.2203	0.008	0.2283	1397.536	0.137143	-451.323887	-451.315043	-451.314098	-451.357992	32.017	
C	-0.3489368265	 0.8230415305	 1.239201496	-0.316324
N	 0.0268741433	 0.3553569449	-0.0935569562	-0.266789
C	 1.1431625322	-0.5716909454	-0.1086935746	-0.282314
C	 0.888387478	-1.9517180442	 0.4465587729	 0.364253
N	-0.3174219556	-2.3893964305	 0.692430655	-0.204314
O	-0.0870953573	-3.7168497452	 1.1543524592	-0.210672
C	 1.237804719	-3.8846064834	 1.117783279	 0.497839
N	 1.7350239471	-5.0653301356	 1.5634127572	-0.593606
N	 1.9049223512	-2.8470102983	 0.6910724496	-0.387445
H	 0.4856201973	 1.3890343955	 1.668899549	 0.116905
H	-1.1987788516	 1.505929054	 1.1498542691	 0.117706
H	-0.6214235333	 0.0222521711	 1.9427604521	 0.116122
H	-0.7752644729	-0.0805535696	-0.5359727798	 0.230147
H	 1.5010781519	-0.6949102731	-1.1396506912	 0.128258
H	 1.981609627	-0.1364212479	 0.4475426142	 0.131949
H	 1.1059343591	-5.8518904437	 1.5739645631	 0.276981
H	 2.6863487808	-5.2613149592	 1.2974039356	 0.281304
47.741	103.9648	152.1043	200.1283	232.0887	315.8118	350.8398	374.3719	416.5208	459.3428	491.8736	660.2622	688.8902	753.2963	777.083	796.664	905.5118	946.2003	996.4867	1018.1736	1046.1976	1115.4225	1151.0899	1157.9704	1199.989	1299.3765	1316.1652	1390.8734	1433.2749	1451.1176	1468.0814	1487.678	1500.7607	1525.9652	1574.4169	1607.0432	1685.2198	2992.1439	3022.2384	3062.2153	3067.5767	3103.1359	3530.9984	3603.1273	3719.2268
CNCC1=NOC(N)=N1	CNCc1noc(N)n1	
InChI=1S/C4H8N4O/c1-6-2-3-7-4(5)9-8-3/h6H,2H2,1H3,(H2,5,7,8)	InChI=1S/C4H8N4O/c1-6-2-3-7-4(5)9-8-3/h6H,2H2,1H3,(H2,5,7,8)
