21
gdb 95942	1.90932	1.56751	1.32801	2.1061	78.34	-0.2383	-0.025	0.2132	1137.4436	0.180945	-424.250484	-424.240888	-424.239944	-424.2857	35.434	
C	-0.2537693182	 1.4014161631	-0.1085766823	-0.419815
C	 0.0538098671	-0.0917937051	-0.0013585451	-0.035292
C	 0.8762824369	-0.6613303901	-1.1725873119	-0.225524
C	 1.4886161108	-1.9121933891	-0.5514509606	-0.090055
O	 1.8227555588	-1.5283360325	 0.781539664	-0.301084
C	 0.8694952831	-0.5483539794	 1.2439235547	 0.284857
C	 1.6618026942	 0.5303032224	 1.982626778	-0.442459
C	-0.0013492795	-1.2954772882	 2.2639136334	 0.135533
O	-1.2032078677	-1.3529638958	 2.2571906558	-0.252071
H	 0.6562475513	 2.0071088794	-0.1659160676	 0.115113
H	-0.8393875616	 1.5992381848	-1.0120536027	 0.117514
H	-0.8426032094	 1.7503209991	 0.7454610811	 0.125297
H	-0.9021684328	-0.6242832738	 0.0455287848	 0.103341
H	 0.2655715438	-0.8709864054	-2.0547547811	 0.103768
H	 1.6676555681	 0.0393253629	-1.4643461938	 0.10183
H	 0.7692675092	-2.7460955738	-0.5507367448	 0.097038
H	 2.4083231687	-2.253483654	-1.0343405953	 0.11089
H	 2.3625603344	 1.0174837885	 1.299481216	 0.128151
H	 1.0032553861	 1.288414059	 2.4161902773	 0.127079
H	 2.2440623333	 0.0737727489	 2.7889536203	 0.127147
H	 0.6033874232	-1.8265664911	 3.0327760098	 0.088743
26.371	65.3003	194.907	214.2312	237.7656	259.2432	276.6949	315.2526	357.8143	384.8235	478.9722	516.8251	605.8597	672.07	696.3745	860.2991	872.0599	916.0615	926.7335	967.0131	980.186	991.6629	1042.3594	1081.7934	1096.131	1142.7977	1162.1554	1186.5548	1227.5599	1243.1203	1252.6022	1318.8946	1349.4774	1382.7703	1393.897	1402.7966	1409.949	1417.1509	1478.0766	1487.9271	1491.5269	1503.0984	1507.3208	1521.6999	1831.7807	2887.8535	2982.6244	3034.3019	3037.3201	3042.4817	3053.2145	3089.552	3100.0358	3103.1949	3108.099	3114.4373	3124.4024
CC1CCOC1(C)C=O	C[C@H]1CCO[C@]1(C)C=O	
InChI=1S/C7H12O2/c1-6-3-4-9-7(6,2)5-8/h5-6H,3-4H2,1-2H3	InChI=1S/C7H12O2/c1-6-3-4-9-7(6,2)5-8/h5-6H,3-4H2,1-2H3/t6-,7+/m0/s1
