16
gdb 128431	4.50384	1.13637	0.92633	1.4625	74.49	-0.2556	-0.0192	0.2364	1228.5174	0.125783	-434.08487	-434.076805	-434.07586	-434.118259	29.107	
C	 0.0614275648	 1.2916789906	-0.0941165116	-0.225139
O	-0.0870467427	-0.1288219439	-0.1758362639	-0.210431
C	-1.3081145664	-0.5940891078	 0.0667302586	 0.527355
N	-2.3136920805	 0.1483200356	 0.2768822116	-0.572957
N	-1.3089498689	-2.0117451642	 0.0291040466	-0.064523
C	-2.3941441602	-2.8141599815	-0.1984506384	-0.019616
C	-1.9516344603	-4.1090499989	-0.1259596376	-0.243787
C	-0.5674942134	-3.994192978	 0.1548729634	 0.010075
N	-0.1780080187	-2.7335727266	 0.2453538988	-0.237779
H	 1.1197515742	 1.4808645245	-0.2731003237	 0.13735
H	-0.5540195621	 1.7869057338	-0.8493810374	 0.143091
H	-0.2364565831	 1.6532523022	 0.8933009953	 0.143542
H	-3.145636669	-0.3857520788	 0.5074859092	 0.229849
H	-3.3640678175	-2.4021094695	-0.4228181584	 0.144662
H	-2.5339875144	-5.0050872352	-0.2656725884	 0.115565
H	 0.1558854582	-4.7843767023	 0.2956801558	 0.122742
57.0147	108.98	161.6408	171.1111	227.974	339.8578	422.9869	502.2415	615.5016	666.6611	737.4335	767.4544	796.7671	804.1607	845.2264	903.1509	928.3371	949.5481	993.5412	1062.9135	1100.7472	1120.0816	1181.526	1212.5051	1229.5653	1254.4631	1314.7976	1397.4074	1429.3882	1453.36	1477.3644	1485.5979	1499.125	1571.2987	1736.8815	3051.8977	3127.1151	3161.1786	3243.5499	3265.4415	3283.6617	3552.7291
COC(=N)N1C=CC=N1	CO[C]([NH])n1cccn1	
InChI=1S/C5H7N3O/c1-9-5(6)8-4-2-3-7-8/h2-4,6H,1H3	InChI=1S/C5H7N3O/c1-9-5(6)8-4-2-3-7-8/h2-4,6H,1H3
