22
gdb 104006	2.51283	1.40503	1.25247	1.6285	82.01	-0.2251	0.0777	0.3028	1163.3628	0.192188	-404.301344	-404.291665	-404.290721	-404.335175	36.918	
C	 0.0794658014	 1.3707032974	 0.1560280638	-0.252022
O	-0.084773463	-0.0142871068	-0.0612016985	-0.29026
C	 0.6001064665	-0.5506115962	-1.1822248359	 0.348911
C	 0.1061746677	 0.0414330365	-2.4988376265	-0.464059
C	 2.1552696112	-0.6495019821	-1.0856632258	-0.22482
N	 2.1199546543	-2.1510108853	-1.1480403472	-0.172
C	 1.3445536149	-2.5491792433	 0.0446955254	-0.281336
C	 0.5934654045	-2.0865999106	-1.13895802	 0.313289
C	-0.2756790554	-2.9900211065	-1.9637959077	-0.506316
H	 1.1402197675	 1.6623984372	 0.1798429857	 0.105521
H	-0.4290461387	 1.9830968595	-0.6016976548	 0.109264
H	-0.3628486001	 1.5916517517	 1.1307114114	 0.127721
H	 0.3562250092	 1.1039396198	-2.5735446144	 0.118404
H	 0.5733650561	-0.4651593865	-3.3477337842	 0.129479
H	-0.979858244	-0.0643691962	-2.5843619274	 0.123866
H	 2.6821462466	-0.2431791728	-1.9519555018	 0.1046
H	 2.6086824856	-0.2603947144	-0.1680310005	 0.102029
H	 1.3650940747	-3.6198185455	 0.2255696683	 0.113926
H	 1.3897862973	-1.930687716	 0.9369552867	 0.117236
H	-1.2983608111	-3.0074401744	-1.5695736166	 0.127735
H	-0.3224282803	-2.6741000766	-3.0104872576	 0.119897
H	 0.1129354253	-4.012129849	-1.9396494424	 0.128936
101.0109	137.2239	165.4965	185.4986	208.8141	248.531	293.4339	324.6108	361.0365	375.9367	458.1349	488.5736	508.3009	620.0002	678.8369	749.4511	835.5826	875.5447	912.2705	928.7321	942.7899	975.3025	1036.1192	1081.1523	1102.1397	1108.6068	1124.1581	1156.663	1176.6372	1179.3846	1202.5569	1216.0543	1243.7806	1277.2757	1344.1636	1366.5197	1403.3995	1418.4575	1475.2566	1480.9055	1483.2723	1485.7258	1491.753	1498.0849	1505.8318	1509.3038	1512.2035	2985.425	3032.7684	3033.363	3041.8922	3043.8203	3096.4217	3106.1993	3108.807	3110.9783	3112.0489	3114.1202	3119.2901	3201.1884
COC1(C)CN2CC12C	CO[C@@]1(C)CN2C[C@@]12C	
InChI=1S/C7H13NO/c1-6-4-8(6)5-7(6,2)9-3/h4-5H2,1-3H3	InChI=1S/C7H13NO/c1-6-4-8(6)5-7(6,2)9-3/h4-5H2,1-3H3/t6-,7-,8?/m0/s1
