16
gdb 71272	2.58539	2.18792	1.4904	3.2857	68.78	-0.2372	0.0069	0.2441	891.7102	0.124733	-437.852459	-437.845469	-437.844525	-437.883554	28.043	
C	-0.0462332344	 1.5022866112	-0.0227082685	-0.490204
C	-0.0940854525	 0.0094806315	 0.0856675655	 0.30586
O	 0.3268374062	-0.6860773406	-1.1573237784	-0.318399
C	-0.7616686992	-1.5814950841	-1.0106331157	 0.061278
C	-0.7899703736	-2.1272399602	 0.4083520828	 0.04546
O	 0.3855988657	-1.9828737291	 1.1863214452	-0.242502
C	 0.7634646427	-0.6620962591	 1.1421827504	 0.443513
N	 1.6897944287	-0.130776658	 1.8095998195	-0.559438
C	-1.4177603313	-0.8013179174	 0.105306302	-0.244775
H	 0.9908637872	 1.8279068896	-0.1345885551	 0.156474
H	-0.6293199641	 1.841570095	-0.88194614	 0.127797
H	-0.4463279388	 1.9577434146	 0.8877786191	 0.135044
H	-1.1361432905	-2.0906105662	-1.8910330705	 0.116471
H	-1.3653928081	-3.0069809106	 0.6627674538	 0.122327
H	 2.1505442032	-0.816562288	 2.4103391635	 0.228191
H	-2.4223232913	-0.4600235187	 0.3145450163	 0.112903
149.3539	193.1417	247.4771	309.3382	368.5277	431.8687	548.1186	613.2223	655.7801	712.425	737.8799	790.7778	807.061	830.6867	852.7633	885.4041	901.9842	955.2514	1006.6147	1030.5879	1045.1869	1068.1499	1083.6165	1116.5987	1121.4479	1191.7921	1198.1399	1261.2877	1309.683	1358.6463	1400.8299	1418.391	1476.544	1480.9214	1788.2376	3052.4338	3127.2513	3138.5259	3185.5849	3205.4988	3219.3821	3474.8385
CC12OC3C(OC1=N)C23	C[C@@]12O[C@H]3[C@@H](O[C]1[NH])[C@@H]23	
InChI=1S/C6H7NO2/c1-6-2-3(4(2)9-6)8-5(6)7/h2-4,7H,1H3	InChI=1S/C6H7NO2/c1-6-2-3(4(2)9-6)8-5(6)7/h2-4,7H,1H3/t2-,3+,4-,6+/m1/s1
