16
gdb 44866	3.46356	1.6614	1.5274	3.6795	66.38	-0.2525	0.0111	0.2636	887.815	0.128364	-437.898302	-437.892273	-437.891329	-437.928563	25.3	
O	-0.0139057338	 0.0240944775	 0.0058423074	-0.34693
C	 0.0266107886	 1.2178756502	 0.0040261565	 0.4477
O	-1.0993212372	 2.0070145629	 0.0343266713	-0.245707
C	-0.6344842767	 3.3928015907	 0.0541616862	 0.087326
C	 0.6107782903	 3.3193565261	-0.8408310205	-0.251533
C	 1.2274267279	 2.1782715762	-0.0026939521	-0.180025
C	 1.1852436149	 2.7639998075	 1.4245011069	-0.032828
N	 1.2659546551	 4.2387397372	 1.4922980746	-0.346703
C	-0.0554705986	 3.5767140923	 1.4614429354	-0.045067
H	-1.461741726	 4.0296180348	-0.2520087105	 0.093953
H	 0.3586085645	 3.0117985799	-1.8571994604	 0.116893
H	 1.2027564538	 4.2311996736	-0.8447960364	 0.143455
H	 2.1565124326	 1.7183371087	-0.3301661407	 0.09681
H	 1.5129370198	 2.1628622949	 2.2641499785	 0.113072
H	 1.4754409902	 4.5082271868	 2.4507534152	 0.240832
H	-0.7139434054	 3.6083413508	 2.3210129487	 0.108753
156.5012	316.2171	381.525	456.9448	491.8963	537.5528	591.2841	737.3958	752.9808	794.0636	819.1594	869.7807	882.7989	892.9344	918.3911	935.6214	954.6529	965.1903	999.5221	1018.5545	1078.3387	1098.6091	1119.9956	1153.2891	1164.7505	1221.4951	1223.9113	1264.7693	1291.2255	1317.3003	1338.1967	1357.4976	1406.8541	1484.6113	1894.9627	3096.0548	3144.9935	3154.4216	3174.2093	3185.7878	3195.9822	3505.0904
O=C1OC2CC1C1NC21	O=C1O[C@@H]2C[C@H]1[C@H]1N[C@@H]21	
InChI=1S/C6H7NO2/c8-6-2-1-3(9-6)5-4(2)7-5/h2-5,7H,1H2	InChI=1S/C6H7NO2/c8-6-2-1-3(9-6)5-4(2)7-5/h2-5,7H,1H2/t2-,3+,4+,5-/m0/s1
