21
gdb 94675	2.21796	1.71439	1.27782	1.6138	77.93	-0.2471	0.0696	0.3167	1098.7954	0.181081	-424.23865	-424.229253	-424.228308	-424.272115	36.098	
C	-0.1295486203	 1.5078841493	 0.0567181148	-0.48933
C	 0.2527763572	 0.0561937251	-0.023914789	 0.360466
C	 0.7262247947	-0.5300923105	-1.3457781808	-0.273607
C	 1.1649667518	-1.9645484285	-0.9802769138	-0.247522
C	 1.6322462394	-1.882750919	 0.4883894655	 0.048699
O	 2.9911479225	-1.4647195626	 0.6121701772	-0.444039
C	 0.7937136454	-0.755834872	 1.0850227334	 0.372331
C	 1.0856137024	-0.2927005062	 2.4843486099	-0.496835
O	-0.5872155115	-0.8743462453	 0.6983626505	-0.353178
H	 0.7052432227	 2.1436912066	-0.2570905145	 0.123436
H	-0.976675149	 1.7171579676	-0.6059800085	 0.125449
H	-0.4206527827	 1.7879477469	 1.0710945524	 0.1285
H	-0.0565536899	-0.5115045076	-2.1110893696	 0.1009
H	 1.5688630728	 0.063547089	-1.7181642421	 0.107418
H	 0.3156859886	-2.6473554079	-1.0529840312	 0.115984
H	 1.958968416	-2.3463498983	-1.6288785303	 0.085389
H	 1.4711811472	-2.8307094653	 1.0231628946	 0.064996
H	 3.5490421605	-2.1663619406	 0.2636107336	 0.285065
H	 2.1436662207	-0.037370017	 2.5805505737	 0.142326
H	 0.4791455325	 0.5747503637	 2.7528840536	 0.121799
H	 0.8635412591	-1.0919609775	 3.2005868407	 0.121755
108.1113	153.0996	166.0734	191.8713	245.201	262.2614	271.6934	326.445	398.3772	422.88	470.1908	490.9088	572.4337	645.6232	702.7981	755.0465	808.282	874.9116	898.9139	928.0194	976.1244	978.8628	1024.0238	1058.795	1079.6958	1100.7463	1130.663	1198.508	1215.5568	1218.7239	1238.3523	1252.3403	1322.3456	1340.6478	1355.6525	1407.2526	1410.6738	1424.9478	1458.0757	1471.0064	1476.143	1484.2257	1488.9857	1496.2874	1517.1498	2990.5242	3035.036	3041.3169	3042.7009	3063.5263	3081.3955	3095.4672	3108.2147	3114.0662	3128.7037	3138.5978	3827.1008
CC12CCC(O)C1(C)O2	C[C@@]12CC[C@@H](O)[C@]1(C)O2	
InChI=1S/C7H12O2/c1-6-4-3-5(8)7(6,2)9-6/h5,8H,3-4H2,1-2H3	InChI=1S/C7H12O2/c1-6-4-3-5(8)7(6,2)9-6/h5,8H,3-4H2,1-2H3/t5-,6-,7+/m1/s1
