17
gdb 53836	3.97273	0.9363	0.80517	1.9747	71.65	-0.2397	-0.0395	0.2002	1415.3465	0.135363	-455.165398	-455.156232	-455.155288	-455.200699	33.19	
N	-0.0460846636	 1.247455219	-0.0471288996	-0.511757
C	 0.0429215417	-0.1079087802	 0.0774185848	 0.234821
N	 1.1499370005	-0.7281698351	 0.2187972702	-0.511392
C	-1.3345774034	-0.7553548903	 0.0353541367	 0.426319
O	-2.3477354961	-0.1477436444	-0.2125465033	-0.371537
O	-1.2718848203	-2.0678019246	 0.3005593679	-0.246451
C	-2.4972549335	-2.7838993909	 0.2554680149	 0.142922
C	-2.6955310042	-3.74050119	-0.8807591223	-0.280787
C	-2.3831323228	-4.2482049159	 0.5141853401	-0.298128
H	 0.804643752	 1.7521171537	-0.230925725	 0.263286
H	-0.9183919893	 1.6244853822	-0.3779330565	 0.27158
H	 0.9727628356	-1.722738755	 0.3376863126	 0.229749
H	-3.3336408507	-2.2099875836	 0.6326420337	 0.130737
H	-3.6974218786	-3.8587763619	-1.2770938231	 0.128554
H	-1.9018991831	-3.8010770322	-1.6164244637	 0.131323
H	-1.3867674098	-4.6388583975	 0.6859613711	 0.133446
H	-3.1656282645	-4.7266054234	 1.0916963115	 0.127313
29.8489	77.1322	88.4985	143.8665	298.1598	316.6177	366.4749	409.1062	411.0145	483.6423	530.2026	542.445	631.2529	754.2314	806.2677	817.034	844.2812	873.7876	876.3159	973.1436	995.7391	1059.5333	1077.9025	1117.4375	1121.2842	1156.815	1174.5717	1192.5571	1235.2617	1269.5626	1392.5493	1437.751	1456.0557	1498.2297	1598.9375	1730.1503	1804.0359	3142.8789	3145.5487	3201.355	3226.6603	3240.5669	3528.0542	3605.1666	3735.6564
NC(=N)C(=O)OC1CC1	NC(=N)C(=O)OC1CC1	
InChI=1S/C5H8N2O2/c6-4(7)5(8)9-3-1-2-3/h3H,1-2H2,(H3,6,7)	InChI=1S/C5H8N2O2/c6-4(7)5(8)9-3-1-2-3/h3H,1-2H2,(H3,6,7)
