15
gdb 42188	3.13098	1.33494	1.09847	4.4456	71.66	-0.266	-0.0956	0.1704	1086.4931	0.11306	-416.746841	-416.739122	-416.738178	-416.780183	28.119	
O	 0.0841404892	 0.0669600269	 0.5162713813	-0.263666
C	-0.05349375	 1.2190159642	 0.1884529081	 0.16934
C	 1.1150037044	 2.0422706282	-0.1904501802	 0.235066
N	 2.0373210858	 2.671216763	-0.4910038592	-0.311491
C	-1.3728450338	 1.914334856	 0.1033587471	 0.263046
C	-2.1418244596	 2.302649716	-1.2013886535	-0.230022
C	-2.9201761252	 2.8632609794	 0.0151566774	-0.031605
C	-2.7232214673	 1.4981610084	 0.7360870185	-0.276108
N	-1.5736576226	 3.3578711076	 0.5380604714	-0.347985
H	-1.6454237389	 3.0433017707	-1.8270464326	 0.133373
H	-2.5959157155	 1.4839361573	-1.7595239304	 0.117481
H	-3.7978257423	 3.5081892754	 0.0113794336	 0.102663
H	-3.229617554	 0.6190735184	 0.3298972143	 0.115054
H	-2.757373701	 1.5200693401	 1.8283281622	 0.109193
H	-1.604960719	 3.3890737285	 1.5630298921	 0.215661
34.2158	113.8038	167.4291	225.639	303.272	425.5645	448.2181	541.5288	596.0358	657.8354	712.3065	789.1051	814.2003	891.2431	921.8805	937.7388	960.4841	990.3945	1043.2372	1070.3695	1093.2775	1128.9725	1151.6035	1178.9968	1216.9176	1222.8755	1275.8155	1299.6771	1322.0811	1478.8563	1524.3525	1787.6087	2340.1622	3057.2915	3092.6451	3128.3032	3129.1856	3177.3923	3377.1815
O=C(C#N)C12CC(C1)N2	O=C(C#N)[C@@]12C[C@@H](C1)N2	
InChI=1S/C6H6N2O/c7-3-5(9)6-1-4(2-6)8-6/h4,8H,1-2H2	InChI=1S/C6H6N2O/c7-3-5(9)6-1-4(2-6)8-6/h4,8H,1-2H2/t4-,6+
