17
gdb 85119	1.9346	1.55956	1.43032	1.6801	69.94	-0.257	-0.0527	0.2043	1052.798	0.132451	-458.978686	-458.969432	-458.968488	-459.012541	33.665	
C	-0.2987578287	 1.368104193	 0.0346047721	-0.406456
C	 0.049632079	-0.1127688634	 0.0121120481	-0.053783
C	 1.322310135	-0.4767902612	-0.8307940813	-0.340654
C	 2.0825350331	-0.4152140594	 0.4809872529	 0.324381
O	 3.1461726333	 0.0007687298	 0.8436373558	-0.305314
C	 0.7933125299	-0.6091431832	 1.3184087702	 0.206789
O	 0.7395553684	 0.1178152905	 2.5066178369	-0.475232
C	 0.5054414822	-2.0756205801	 1.6053979288	 0.121947
O	 0.1648114521	-2.8845609271	 0.7809511118	-0.253734
H	 0.5817568123	 1.9891052773	 0.2328623222	 0.120958
H	-0.7137041544	 1.6759970433	-0.92999858	 0.123921
H	-1.0358039608	 1.5833056708	 0.8126205541	 0.137479
H	-0.8148181931	-0.7351378844	-0.2234158903	 0.104615
H	 1.259355058	-1.4980688668	-1.2150945501	 0.157854
H	 1.6517759194	 0.2084283641	-1.6141059447	 0.131158
H	 1.5812942701	 0.5854157813	 2.5955589031	 0.300794
H	 0.6484879843	-2.3307925346	 2.6765992305	 0.105277
94.549	104.923	181.6216	188.554	211.3018	244.331	263.1588	345.9112	370.2526	441.0521	456.5462	554.0751	644.0135	681.0979	740.0002	780.9546	841.513	881.3707	1000.1291	1015.6175	1060.1965	1073.1645	1102.7684	1124.8032	1189.4867	1197.1834	1224.4283	1263.9775	1341.1242	1352.5297	1393.4972	1418.0137	1437.8633	1493.884	1495.8878	1810.6754	1871.7558	2919.8236	3037.667	3073.0924	3094.1175	3111.1847	3121.0182	3139.0209	3751.0466
CC1CC(=O)C1(O)C=O	C[C@H]1CC(=O)[C@]1(O)C=O	
InChI=1S/C6H8O3/c1-4-2-5(8)6(4,9)3-7/h3-4,9H,2H2,1H3	InChI=1S/C6H8O3/c1-4-2-5(8)6(4,9)3-7/h3-4,9H,2H2,1H3/t4-,6-/m0/s1
