17
gdb 13600	4.51836	1.21635	1.12718	2.0605	67.37	-0.2416	-0.0385	0.203	1094.9848	0.140492	-400.977551	-400.969059	-400.968114	-401.01081	30.57	
C	-0.6642235839	 1.2000812371	 0.2838953136	-0.32823
N	 0.0232698327	-0.0830801363	 0.1518090174	-0.078275
C	 1.3275380705	-0.1081436728	-0.4549159699	-0.232329
C	 1.180406311	-0.4028572653	 1.0134651818	-0.106776
C	 1.7437556406	 0.5681386465	 1.9905398343	 0.357033
O	 1.8940048997	 1.7572479351	 1.7698617691	-0.35034
C	 2.1399860642	 0.0167228124	 3.3530639612	-0.135662
O	 2.6828078554	 1.0090283059	 4.1666852775	-0.420459
H	-0.0000957021	 2.0496872351	 0.4763642739	 0.145967
H	-1.2119673967	 1.3741855439	-0.6470800086	 0.128607
H	-1.3928827223	 1.1281225257	 1.0969692684	 0.125786
H	 1.5314391294	-0.9327542237	-1.133199602	 0.125732
H	 1.8041796238	 0.8398862829	-0.698594182	 0.136035
H	 1.1922661169	-1.4381094066	 1.3473856112	 0.099818
H	 1.2423318231	-0.4382168792	 3.8076909124	 0.120371
H	 2.8529193445	-0.8108254384	 3.1959639376	 0.118516
H	 2.628750633	 1.8227709676	 3.639099794	 0.294207
56.6025	121.7625	185.0657	185.9836	245.5702	303.3161	367.3846	393.8492	410.9857	444.4612	577.6343	701.2009	734.4254	836.5233	881.4726	995.7312	1003.899	1036.7328	1064.5013	1103.2736	1128.2171	1136.972	1160.631	1171.4968	1215.4971	1242.4934	1307.6145	1332.5474	1402.031	1445.9016	1452.2485	1486.7437	1489.9497	1496.7505	1509.2837	1767.9778	2960.5937	2977.1082	3029.2385	3096.1284	3102.5722	3110.1504	3132.1833	3189.2637	3674.9905
CN1CC1C(=O)CO	CN1C[C@H]1C(=O)CO	
InChI=1S/C5H9NO2/c1-6-2-4(6)5(8)3-7/h4,7H,2-3H2,1H3	InChI=1S/C5H9NO2/c1-6-2-4(6)5(8)3-7/h4,7H,2-3H2,1H3/t4-,6?/m0/s1
