21
gdb 114366	3.13623	1.01441	0.98597	0.8195	78.2	-0.2481	0.069	0.3171	1313.6159	0.182735	-424.186734	-424.17773	-424.176786	-424.22075	34.401	
O	-0.0660726471	 1.370502499	-0.3188795702	-0.4236
C	 0.0396029293	-0.0287174304	-0.0828659154	-0.102698
C	-1.3685061813	-0.5825748144	-0.0054373909	 0.058875
C	-2.2430094439	-0.6366270603	-1.2933509651	-0.256397
C	-2.7293039962	-2.0613357919	-0.8990596123	-0.069771
C	-2.016392706	-3.221606071	-1.6398874329	 0.139091
O	-1.6929831049	-3.0753088361	-3.0057173882	-0.426783
C	-0.7954171854	-3.0734702728	-0.7011932018	-0.265014
C	-1.6088774808	-2.0982051694	 0.2066931587	-0.061288
H	 0.818468679	 1.717638928	-0.4655966283	 0.285243
H	 0.6019724539	-0.518945317	-0.8921385381	 0.08527
H	 0.573881732	-0.2356805604	 0.8602371854	 0.079888
H	-1.9006926053	-0.0256501877	 0.7737238842	 0.078371
H	-3.017526305	 0.1283850371	-1.3661510505	 0.099849
H	-1.6680255454	-0.6356270147	-2.2234307468	 0.110526
H	-3.7928919346	-2.1699558124	-0.6796082898	 0.054222
H	-2.5419036792	-4.1714071722	-1.4619545851	 0.062294
H	-2.5067764277	-3.131947233	-3.5172583358	 0.281128
H	-0.4599663747	-3.9953693581	-0.2220437756	 0.101067
H	 0.0587378605	-2.6211285479	-1.209911648	 0.110303
H	-1.7851278172	-2.4461382543	 1.2253215264	 0.059424
60.1028	92.9022	167.9941	220.2887	261.9948	289.5966	298.8709	384.4058	405.8175	468.8724	549.3509	617.9764	716.6019	774.8116	787.5345	860.921	891.7605	906.0632	946.2227	974.5178	1022.3616	1044.7094	1056.2165	1080.6198	1093.7987	1108.223	1126.8504	1155.8904	1183.8019	1202.5474	1237.5725	1245.1796	1259.4256	1260.8795	1272.6172	1292.6614	1303.4781	1319.2992	1341.0353	1373.1216	1419.35	1461.439	1476.7661	1492.6081	1519.7037	2954.7693	2983.8728	2993.9578	3045.9876	3067.1282	3071.199	3083.9666	3096.5408	3121.693	3125.2883	3810.8248	3829.4848
OCC1CC2C(O)CC12	OC[C@H]1C[C@H]2[C@@H](O)C[C@@H]12	
InChI=1S/C7H12O2/c8-3-4-1-6-5(4)2-7(6)9/h4-9H,1-3H2	InChI=1S/C7H12O2/c8-3-4-1-6-5(4)2-7(6)9/h4-9H,1-3H2/t4-,5+,6-,7+/m1/s1
