12
gdb 25121	3.12852	1.56347	1.19855	4.4632	63.36	-0.2738	-0.0941	0.1798	961.0496	0.079338	-468.856612	-468.849717	-468.848773	-468.888305	25.248	
O	 0.1076797029	 0.1148014785	-0.672951608	-0.325722
C	 0.0543014206	 1.2487165732	-0.2585328863	 0.394361
N	-1.1707206655	 1.9235958483	-0.1814461196	-0.344337
C	-1.459756567	 3.1757188339	 0.3393115387	 0.099431
N	-0.6874656403	 4.181210475	 0.4344536477	-0.244994
C	 0.5912667787	 4.12011488	-0.1498224577	 0.371979
O	 0.9455878857	 4.8671738891	-1.0179959197	-0.284142
N	 1.48633225	 3.1823886074	 0.4222124257	-0.187334
C	 1.2595881168	 1.9380159855	 0.3245460377	-0.067441
H	-1.9545161932	 1.3185246828	-0.3973034574	 0.274407
H	-2.4903516764	 3.2650338695	 0.6824374987	 0.151791
H	 2.0021385277	 1.2292615769	 0.6939647103	 0.162001
93.4789	142.7151	270.4171	320.4801	361.9764	455.6655	489.4571	591.7279	633.8459	683.6108	736.8636	744.0448	826.0271	894.7408	909.6567	957.9998	982.1186	1087.6676	1158.3277	1297.4961	1375.9753	1434.6162	1469.5842	1713.135	1717.4214	1800.3376	1833.6401	3131.5432	3140.0022	3570.5958
O=C1NC=NC(=O)N=C1	O=c1[nH]cnc(=O)nc1	
InChI=1S/C4H3N3O2/c8-3-1-5-4(9)7-2-6-3/h1-2H,(H,6,7,8,9)	InChI=1S/C4H3N3O2/c8-3-1-5-4(9)7-2-6-3/h1-2H,(H,6,7,8,9)
