18
gdb 81394	4.26471	1.13723	1.09218	4.8124	76.	-0.2655	0.0149	0.2804	1155.4725	0.148838	-401.937484	-401.929735	-401.928791	-401.969629	30.107	
C	-0.1841006621	 1.5355345169	-0.0002440656	-0.442421
C	 0.0238392214	 0.0272835885	 0.0133596955	 0.031061
C	 1.16068846	-0.596248746	-0.844032822	 0.098299
C	 2.1561886907	-0.2130311628	 0.2715806678	-0.259046
C	 0.9206179009	-0.5758949728	 1.155059384	-0.076012
C	 0.7760339969	-2.0711716785	 0.7995947067	-0.042727
O	 0.9621560183	-2.0146985986	-0.631592763	-0.281844
C	 1.7757987373	-2.9461439841	 1.4266555673	 0.289797
N	 2.5508831342	-3.6291281538	 1.9441560498	-0.327788
H	 0.7387024508	 2.1028264235	 0.1442237	 0.124521
H	-0.621096391	 1.850316112	-0.9537679345	 0.127516
H	-0.8796973376	 1.8303209909	 0.7923992685	 0.126596
H	-0.9380048491	-0.4778493469	-0.1268726805	 0.081536
H	 1.3108646348	-0.413858399	-1.9065512426	 0.089865
H	 3.0567614217	-0.8220286756	 0.3678565841	 0.128857
H	 2.4048565957	 0.8457306991	 0.3040758165	 0.115284
H	 0.8266589797	-0.3017715483	 2.2046001026	 0.092861
H	-0.2206306224	-2.4646092346	 1.0315104453	 0.123645
119.7658	140.0696	189.8691	266.3127	295.6211	357.1046	463.1555	470.3567	553.1515	571.0454	693.2681	792.1125	828.8654	849.9803	888.9873	912.4845	931.2852	956.9437	1010.2874	1022.6041	1035.5353	1056.1874	1092.028	1101.1712	1126.801	1140.8504	1213.674	1238.4097	1254.3808	1259.7161	1278.7596	1308.4746	1363.4452	1392.503	1417.9372	1490.6469	1497.552	1510.4504	2358.9006	3038.4194	3040.0712	3048.5709	3092.164	3098.6354	3118.4592	3135.9723	3144.527	3164.6912
CC1C2CC1C(O2)C#N	C[C@H]1[C@H]2C[C@@H]1[C@@H](O2)C#N	
InChI=1S/C7H9NO/c1-4-5-2-6(4)9-7(5)3-8/h4-7H,2H2,1H3	InChI=1S/C7H9NO/c1-4-5-2-6(4)9-7(5)3-8/h4-7H,2H2,1H3/t4-,5+,6-,7+/m1/s1
