12
gdb 11141	6.02118	1.41147	1.14455	6.2506	68.57	-0.2112	-0.0269	0.1844	951.6972	0.085426	-377.565539	-377.558737	-377.557793	-377.596462	25.183	
N	 0.0148830839	 1.1283302965	 0.1661757597	-0.598335
H	 0.1482261327	 0.1891292951	-0.1767294099	 0.268318
H	 0.7210638959	 1.7712102595	-0.1635808278	 0.27051
C	-1.2708450445	 1.5993962823	 0.0691366245	 0.386795
O	-1.4017428603	 2.93858763	 0.0718315578	-0.197864
C	-2.7613905593	 3.2093907344	 0.0407106552	 0.236231
C	-3.4540323501	 2.0316812493	 0.0181726835	-0.236923
C	-2.4975642571	 0.981525709	 0.0354787632	-0.240507
C	-3.1601752772	 4.5551312465	 0.0323206087	 0.211046
N	-3.5074336953	 5.6625014591	 0.0232177524	-0.349316
H	-4.5281676122	 1.9379001499	-0.0100055207	 0.135073
H	-2.6839575965	-0.0796720516	 0.0282018535	 0.114972
142.5976	157.2297	250.5816	291.4749	388.3786	499.8881	556.7629	576.9285	581.7328	645.1502	700.0459	723.6882	758.0418	871.8059	967.913	1013.835	1042.9812	1089.0057	1236.0171	1260.4963	1319.6537	1447.3899	1572.6368	1622.7375	1663.3587	2327.1572	3262.8682	3275.95	3572.479	3679.0261
[NH2+]=C1O[C-](C=C1)C#N	Nc1oc(cc1)C#N	
InChI=1S/C5H3N2O/c6-3-4-1-2-5(7)8-4/h1-2,7H/q-1/p+1	InChI=1S/C5H4N2O/c6-3-4-1-2-5(7)8-4/h1-2H,7H2
