18
gdb 16343	3.03879	1.9256	1.47393	1.1442	68.18	-0.2408	0.0737	0.3145	917.0969	0.152636	-384.893394	-384.885165	-384.88422	-384.925916	30.628	
C	 0.0067654817	 1.3474945165	 0.2745441669	-0.258223
O	-0.0205874445	 0.0185164669	-0.2283627454	-0.286529
C	-1.2645122086	-0.5662424275	-0.1442787531	 0.451425
C	-1.8218688176	-1.0960720829	 1.1497763064	-0.336722
C	-1.5965468277	-2.0453762294	-0.0055185642	-0.142207
C	-2.7555791263	-1.9007742595	-0.9979593109	-0.269052
C	-2.35672334	-0.3919221381	-1.1913007347	 0.036635
O	-3.2950625551	 0.6197781638	-0.8896123719	-0.436312
H	 1.0263931567	 1.7162479534	 0.1418138971	 0.121847
H	-0.6893376745	 1.9987250156	-0.2695344566	 0.124884
H	-0.2533137974	 1.3749654752	 1.3417084487	 0.111238
H	-1.0808198222	-1.1615454659	 1.939970287	 0.114106
H	-2.8283714954	-0.8516889495	 1.478260338	 0.11562
H	-0.9156183374	-2.8836933099	 0.0626986603	 0.095995
H	-2.6489815113	-2.4902767557	-1.911316259	 0.101088
H	-3.7533867124	-2.0589540989	-0.5765267729	 0.096877
H	-1.9043687421	-0.2363935992	-2.179999239	 0.075804
H	-3.9395765261	 0.6581018453	-1.6035407967	 0.283525
90.5246	126.1381	167.1756	201.7607	275.5041	332.0175	361.7414	398.5128	473.025	537.497	656.3703	710.72	822.9189	861.0161	901.9534	945.1286	974.3145	1017.624	1019.0143	1063.3389	1072.3075	1086.9597	1119.6138	1169.5146	1183.4393	1191.1859	1215.4616	1231.0016	1245.4663	1278.3911	1323.8176	1370.3375	1430.8479	1469.2629	1480.5894	1486.9241	1506.1243	1510.5698	3000.5459	3013.1402	3048.304	3058.8855	3109.4969	3115.8239	3121.5709	3198.7839	3210.74	3814.0373
COC12CC1CC2O	CO[C@]12C[C@H]1C[C@H]2O	
InChI=1S/C6H10O2/c1-8-6-3-4(6)2-5(6)7/h4-5,7H,2-3H2,1H3	InChI=1S/C6H10O2/c1-8-6-3-4(6)2-5(6)7/h4-5,7H,2-3H2,1H3/t4-,5-,6-/m1/s1
