18
gdb 122927	2.77446	0.86333	0.6855	4.3308	69.43	-0.2689	0.0018	0.2707	1592.5203	0.145339	-476.207099	-476.196774	-476.195829	-476.244064	35.388	
O	-1.6151554921	 1.630057543	 0.5173978489	-0.418662
C	-0.6142123667	 0.7297863207	 0.0953875639	-0.057643
C	-1.204163027	-0.6029358253	-0.3373720151	-0.07241
O	-2.040704987	-0.3340661279	-1.4545198217	-0.256296
C	-2.8778476968	-1.3932040193	-1.8309808156	-0.076408
C	-3.7957626477	-0.884163282	-2.9538274498	-0.025062
O	-4.6344987649	-1.9038857345	-3.4513873404	-0.405197
C	-4.5649949444	 0.2908658859	-2.4946469046	 0.259941
N	-5.1952378166	 1.1821957589	-2.1159181202	-0.320083
H	-2.2624740273	 1.6791188786	-0.1960655075	 0.295751
H	-0.0165765302	 1.141031188	-0.7338312347	 0.097235
H	 0.0573326724	 0.5711862951	 0.9455297614	 0.11223
H	-0.4131776094	-1.3199044142	-0.6084125555	 0.094408
H	-1.7994421635	-1.0312193174	 0.4831992005	 0.103957
H	-2.3114040695	-2.2531623074	-2.2186238789	 0.114194
H	-3.489914901	-1.7426373226	-0.9826339368	 0.099077
H	-3.1689519773	-0.5678007942	-3.7937410055	 0.154726
H	-5.2862143009	-2.1234093955	-2.7754108983	 0.300241
34.3007	45.1678	117.2895	121.6763	174.0522	209.7367	239.1565	286.4255	328.843	363.0852	405.7177	447.051	544.5751	592.3074	609.9907	807.419	872.0955	904.5952	1037.5922	1047.4864	1082.5532	1096.4502	1113.1983	1138.3988	1173.6158	1228.883	1237.9925	1267.5126	1275.8232	1337.3726	1376.8984	1389.4271	1416.7687	1426.8199	1441.3231	1496.0977	1498.9745	1524.8333	2356.8441	2966.3502	2979.6091	2981.6555	3017.4916	3025.1758	3077.8514	3080.9243	3796.3804	3802.513
OCCOCC(O)C#N	OCCOC[C@@H](O)C#N	
InChI=1S/C5H9NO3/c6-3-5(8)4-9-2-1-7/h5,7-8H,1-2,4H2	InChI=1S/C5H9NO3/c6-3-5(8)4-9-2-1-7/h5,7-8H,1-2,4H2/t5-/m0/s1
