20
gdb 23384	2.93285	1.20484	1.05684	0.6135	81.7	-0.2353	0.0139	0.2492	1225.8697	0.170004	-403.079864	-403.070724	-403.06978	-403.114571	34.09	
C	 0.5043068159	 1.320695067	 0.0457451024	-0.472291
C	-0.0098637078	-0.0909348061	 0.1693033203	 0.333472
N	-0.3680773694	-0.6189552131	 1.2784880814	-0.171279
O	-0.1950978052	 0.2752688302	 2.3509130177	-0.398107
C	-0.131278841	-0.9079777431	-1.0724991801	-0.079712
C	 1.0419849834	-1.5556490511	-1.7775226098	-0.067305
C	 2.0299981521	-2.1619855604	-0.7711015411	-0.229968
C	 0.8797255446	-3.0531573262	-0.2004721329	-0.218998
C	-0.0974655752	-2.4032545238	-1.1899684908	-0.079586
H	 1.4569672703	 1.4287783662	 0.5757881028	 0.145296
H	 0.6539758944	 1.5930004009	-1.0006161862	 0.118429
H	-0.1912156181	 2.0246994833	 0.512335466	 0.145602
H	-0.5147713081	-0.2431179599	 3.0965357866	 0.304493
H	-0.8116512816	-0.4513143491	-1.7923241196	 0.096222
H	 1.2630603648	-1.3283075749	-2.8140803047	 0.081224
H	 2.8151648084	-2.7499307407	-1.2508580647	 0.100201
H	 2.5001022645	-1.4597057714	-0.0755041417	 0.098549
H	 1.0421579458	-4.1094616199	-0.4268487348	 0.09499
H	 0.6369024873	-2.9406915185	 0.8566539845	 0.116648
H	-0.8890069951	-2.9277409793	-1.7129140556	 0.08212
50.9302	54.8275	127.4188	162.3723	272.4536	301.7224	309.687	396.0223	449.8846	480.1214	546.0611	689.8967	739.5187	751.2335	789.7205	802.1633	845.6926	939.8936	950.0166	958.8804	976.3138	1013.7622	1021.3565	1039.8884	1041.3738	1076.0836	1115.9555	1130.3254	1151.2795	1229.6512	1236.2686	1254.9685	1265.3357	1305.4335	1347.4293	1387.847	1397.0439	1444.8333	1474.0155	1479.2247	1485.764	1501.4898	1717.913	3042.0266	3051.3509	3071.8166	3099.5971	3101.0832	3105.3812	3134.282	3135.9584	3167.6641	3179.5101	3822.4873
CC(=NO)C1C2CCC12	CC(=NO)[C@H]1[C@H]2CC[C@@H]12	
InChI=1S/C7H11NO/c1-4(8-9)7-5-2-3-6(5)7/h5-7,9H,2-3H2,1H3	InChI=1S/C7H11NO/c1-4(8-9)7-5-2-3-6(5)7/h5-7,9H,2-3H2,1H3/t5-,6+,7-
