17
gdb 10204	3.44296	1.06357	0.85231	2.4968	64.92	-0.2791	0.024	0.3031	1300.4996	0.140808	-401.002868	-400.993391	-400.992446	-401.037741	32.436	
O	-0.0798634977	 1.4552714584	 0.0131291465	-0.418244
C	 0.0321319451	 0.0433519326	-0.0330482327	-0.085776
C	-1.384021609	-0.519583521	 0.0104047935	-0.187005
C	-1.4367672871	-2.0583293652	 0.0308220563	-0.162837
C	-2.8869119689	-2.5838110589	 0.1808271654	-0.068915
O	-2.9544760719	-3.9872558233	 0.2579865049	-0.416243
C	-0.8481190154	-2.6452481913	-1.177842359	 0.26605
N	-0.4306250603	-3.1338888457	-2.1394639452	-0.334362
H	 0.7985682184	 1.8321178634	-0.0914308322	 0.291429
H	 0.5390381903	-0.2921467824	-0.9503244621	 0.112593
H	 0.611266807	-0.3423825648	 0.8225236169	 0.089897
H	-1.8818081819	-0.1456971038	 0.9117502299	 0.120488
H	-1.9442946189	-0.1371684835	-0.849363797	 0.126577
H	-0.8631887934	-2.4376053776	 0.8860375881	 0.134662
H	-3.291578616	-2.2004774111	 1.1222107546	 0.123838
H	-3.5011104242	-2.1819037527	-0.6387082873	 0.10864
H	-2.6897495561	-4.349698773	-0.5953412905	 0.299209
76.1696	83.7159	103.6316	138.9851	176.0256	249.1319	256.1844	335.1014	343.5873	381.5854	457.2145	564.4761	638.7124	774.7154	826.7518	958.1697	993.3816	1054.6073	1073.754	1087.4256	1101.7751	1121.5348	1202.7371	1225.9333	1241.5668	1286.7634	1313.4909	1350.1892	1365.8163	1392.7316	1420.0552	1467.9745	1489.5406	1504.6571	1528.6858	2347.8367	2963.3354	2997.0354	3006.0595	3039.3029	3048.7885	3088.5373	3097.3885	3798.8001	3833.7588
OCCC(CO)C#N	OCC[C@@H](CO)C#N	
InChI=1S/C5H9NO2/c6-3-5(4-8)1-2-7/h5,7-8H,1-2,4H2	InChI=1S/C5H9NO2/c6-3-5(4-8)1-2-7/h5,7-8H,1-2,4H2/t5-/m1/s1
