18
gdb 32539	2.81626	1.40878	1.0099	6.1054	82.37	-0.2126	-0.0098	0.2028	1186.5701	0.149786	-402.017869	-402.009605	-402.008661	-402.050769	31.495	
C	-0.1010360555	 1.5728774209	 0.0286711362	-0.37307
C	 0.0908317374	 0.045946352	 0.0373010305	-0.272643
C	 0.7754278437	-0.4662030051	-1.2013518195	 0.134616
C	 2.0533788089	-0.9186260003	-1.182190274	-0.069205
N	 2.6833398014	-1.3795366649	-2.311479367	-0.323762
C	 2.0329010613	-1.4054123639	-3.5126603585	 0.019805
C	 0.7524327198	-0.9789224879	-3.6176283317	-0.229631
C	 0.0127472498	-0.47188634	-2.4650620303	 0.316352
O	-1.1532281079	-0.0827696498	-2.5308268171	-0.404712
H	 0.8625741968	 2.0914697815	-0.014801445	 0.102542
H	-0.6954358815	 1.8686567022	-0.8380336235	 0.151978
H	-0.6220913358	 1.9003541535	 0.9338589375	 0.107072
H	 0.6571944559	-0.2557200329	 0.9264063057	 0.083892
H	-0.8958998959	-0.42632928	 0.0985206945	 0.123536
H	 2.6509904344	-0.9448644248	-0.2774214945	 0.123817
H	 3.6320388445	-1.7070959609	-2.250038552	 0.266778
H	 2.6069676247	-1.7849334673	-4.3497819932	 0.131905
H	 0.243489708	-1.0057314422	-4.5731974782	 0.110732
86.5525	117.3581	189.1718	216.6165	305.31	350.3329	431.7599	444.2245	492.976	540.3204	562.6457	594.5781	716.1744	763.8223	783.0485	856.3289	877.8635	893.5844	958.3522	976.1529	1029.2349	1066.7392	1088.0292	1143.9632	1174.5162	1259.2635	1262.6868	1287.2051	1354.9368	1395.3929	1408.6893	1424.2875	1470.1481	1493.7531	1513.8782	1543.0399	1629.642	1680.9141	1712.1067	3028.4917	3037.3892	3073.1525	3102.5737	3139.282	3188.237	3197.5601	3218.7625	3667.352
CCC1=CNC=CC1=O	CCc1c[nH]ccc1=O	
InChI=1S/C7H9NO/c1-2-6-5-8-4-3-7(6)9/h3-5H,2H2,1H3,(H,8,9)	InChI=1S/C7H9NO/c1-2-6-5-8-4-3-7(6)9/h3-5H,2H2,1H3,(H,8,9)
