15
gdb 130769	3.26307	1.64246	1.12267	6.3956	66.21	-0.2472	-0.0013	0.246	1017.1239	0.115599	-453.98047	-453.973598	-453.972654	-454.012055	25.892	
O	 0.0626306482	-0.0330994153	 0.0692340655	-0.401858
C	 0.0385246375	 1.1649662883	 0.0831229241	 0.502244
O	-1.0941691138	 1.9477090045	 0.1499821448	-0.248822
N	-0.7554960062	 3.3408760668	 0.1477634026	-0.241259
C	 0.5306767719	 3.3361412527	 0.0811542572	 0.441615
C	 1.6120908357	 4.3697229946	 0.0168939686	-0.346161
C	 2.8748725043	 3.5210415697	 0.3581031988	-0.225112
C	 2.5215517993	 2.0568822035	-0.0291958799	-0.179123
N	 1.0701104371	 2.084502686	 0.0465579234	-0.150643
H	 1.6666459581	 4.7866428876	-0.994545382	 0.148188
H	 1.4494647861	 5.1979146425	 0.7079470137	 0.151975
H	 3.7683659832	 3.8757209589	-0.157494362	 0.12758
H	 3.0675295373	 3.5724814991	 1.4330053951	 0.135141
H	 2.8487065079	 1.8025261649	-1.0433654611	 0.137107
H	 2.9367852534	 1.3185030262	 0.6596454814	 0.149127
117.2449	160.2554	193.7968	295.5945	339.8839	554.2651	603.5041	627.2419	665.8367	718.9344	757.4655	800.1646	859.4334	883.0448	895.9175	917.1596	999.7784	1083.6895	1094.4968	1098.1115	1189.3747	1224.3175	1237.8231	1303.3058	1315.7247	1343.924	1356.7794	1470.229	1480.8287	1499.3655	1531.8777	1683.785	1889.9203	3047.3966	3057.9606	3073.4672	3111.512	3124.1173	3134.6927
O=C1ON=C2CCCN12	O=c1onc2CCCn12	
InChI=1S/C5H6N2O2/c8-5-7-3-1-2-4(7)6-9-5/h1-3H2	InChI=1S/C5H6N2O2/c8-5-7-3-1-2-4(7)6-9-5/h1-3H2
