17
gdb 65770	2.98015	1.20169	1.09576	4.7667	70.99	-0.2592	-0.008	0.2513	1162.9133	0.134021	-458.99562	-458.986997	-458.986052	-459.029186	31.495	
C	 0.0618451673	 1.5600196142	-0.0542147276	-0.420959
C	-0.0035168224	 0.0397050654	 0.0054798859	 0.415036
O	-1.4051921153	-0.375477579	 0.0312865497	-0.235391
C	-2.111974951	-0.3123797796	-1.1153218333	 0.156799
O	-3.2742135354	-0.5944008781	-1.1603808282	-0.284502
O	 0.6697785719	-0.515354945	-1.0986545626	-0.28249
C	 1.4824921506	-1.6185573285	-0.6852441873	-0.139437
C	 1.4652389941	-1.5584894369	 0.8137609191	-0.094406
C	 0.6300849028	-0.6080920605	 1.2113640635	-0.112053
H	 1.1001753467	 1.8896364616	 0.0274517047	 0.132213
H	-0.3436685834	 1.9228555421	-1.0025313317	 0.133923
H	-0.5201762729	 1.9929118394	 0.763021589	 0.136916
H	-1.5130258916	-0.0022630904	-1.9864250975	 0.099032
H	 1.0730192072	-2.5648778944	-1.0680108337	 0.126588
H	 2.4835204827	-1.4896601584	-1.1158079948	 0.124284
H	 2.0460714612	-2.223419844	 1.4394735842	 0.121909
H	 0.3679880876	-0.3279591979	 2.2219236304	 0.122538
73.64	131.8842	154.3912	176.8901	235.803	270.8189	357.5728	379.7128	445.2174	484.0994	595.0646	717.5566	761.0164	802.7739	849.7678	916.4951	924.8738	958.9167	964.8081	1036.2956	1043.8645	1051.1342	1091.2133	1122.8685	1155.3817	1203.8814	1213.0763	1247.7345	1365.1004	1377.8847	1408.8671	1433.3298	1483.1868	1489.1137	1509.9243	1692.2656	1850.7799	3002.8499	3015.2391	3044.1422	3053.0493	3130.9901	3137.7059	3220.2716	3246.8701
CC1(OC=O)OCC=C1	C[C@@]1(OC=O)OCC=C1	
InChI=1S/C6H8O3/c1-6(9-5-7)3-2-4-8-6/h2-3,5H,4H2,1H3	InChI=1S/C6H8O3/c1-6(9-5-7)3-2-4-8-6/h2-3,5H,4H2,1H3/t6-/m0/s1
