20
gdb 51884	4.12424	0.878	0.76813	1.9105	76.86	-0.2323	-0.0287	0.2036	1463.9785	0.17127	-440.280258	-440.271591	-440.270647	-440.314262	32.072	
O	-0.4443891453	 0.4495251186	 0.716594854	-0.236507
C	 0.0760681557	 1.0093485145	-0.2115102584	 0.15117
C	 1.2892962747	 1.9210387307	-0.0996348521	-0.231235
N	 1.2955182896	 2.9257631321	-1.1444529618	-0.088798
C	 0.2952850636	 3.9701740984	-0.9179860902	-0.157935
C	 0.2884228753	 4.9427027115	-2.0947372056	-0.081482
O	 1.5700328635	 5.5091301178	-2.3007163622	-0.242145
C	 2.5371307735	 4.5012633144	-2.5372080998	-0.081796
C	 2.6118919522	 3.5199147106	-1.3701117349	-0.150559
H	-0.2801099999	 0.8791412043	-1.2591218374	 0.085033
H	 1.3415249487	 2.3254254413	 0.9267863121	 0.109041
H	 2.1680735657	 1.2732106118	-0.2331334721	 0.126629
H	-0.6946973504	 3.5099282862	-0.8167858125	 0.108345
H	 0.4991440572	 4.5285361389	 0.0158432194	 0.091259
H	-0.0452534948	 4.4140417679	-3.0025045282	 0.093952
H	-0.3956840039	 5.7735438033	-1.901725295	 0.110962
H	 2.294892938	 3.9504294878	-3.4606975545	 0.093624
H	 3.4950967784	 5.0105914257	-2.6735100864	 0.109747
H	 2.9818522795	 4.0536191757	-0.4740813741	 0.08884
H	 3.3276935886	 2.7237832784	-1.6045768104	 0.101856
64.861	84.2601	140.4107	223.8819	255.3178	321.2444	355.3078	403.6454	432.6229	493.2099	528.8872	634.4418	744.143	824.8114	865.836	889.0235	923.2057	1025.0987	1046.861	1052.3642	1080.7486	1098.4735	1145.3469	1148.5045	1175.397	1189.0429	1231.0188	1252.3396	1292.3108	1323.3134	1338.3171	1346.5187	1369.4209	1395.88	1403.4451	1417.6779	1427.1443	1460.4708	1482.1908	1484.0197	1495.3302	1502.9191	1840.6118	2876.8531	2922.8482	2929.4179	2955.2902	2975.7606	2981.0268	3026.5458	3054.5778	3059.6353	3092.4613	3094.7128
O=CCN1CCOCC1	O=CCN1CCOCC1	
InChI=1S/C6H11NO2/c8-4-1-7-2-5-9-6-3-7/h4H,1-3,5-6H2	InChI=1S/C6H11NO2/c8-4-1-7-2-5-9-6-3-7/h4H,1-3,5-6H2
