15
gdb 67545	2.5838	1.82535	1.48918	3.2287	63.72	-0.2501	-0.0093	0.2409	910.3243	0.112408	-457.734529	-457.727369	-457.726425	-457.765944	28.081	
O	 0.2705886967	 1.4115614339	 0.3062493559	-0.465542
C	 0.1461630319	 0.0510465828	 0.11317196	 0.242499
C	 1.3104072191	-0.7434348684	 0.7622185588	-0.082935
C	 1.1211297253	-2.2281149026	 0.6972635299	-0.310833
C	 1.5522479097	-1.5062337979	-0.548582472	-0.062153
C	 0.3720343046	-0.7550077584	-1.1927622946	 0.021106
O	-0.948807313	-1.3794822516	-1.0320123129	-0.262214
C	-1.2479688818	-0.6222502868	 0.0877540538	 0.350107
O	-2.2827640231	-0.5682444204	 0.6691602363	-0.322115
H	-0.4999683028	 1.8570787928	-0.0636877227	 0.299178
H	 2.0140412746	-0.2562511693	 1.4242480152	 0.113323
H	 1.9072631665	-2.8015146681	 1.1772686845	 0.125624
H	 0.1379604028	-2.6825373681	 0.7624932089	 0.145257
H	 2.4829187427	-1.7238209399	-1.0556092775	 0.101359
H	 0.4949492069	-0.3113498181	-2.1780529337	 0.107341
126.1004	196.3929	250.6811	309.7629	327.219	366.6197	479.8015	564.239	680.6918	691.6533	730.6239	760.8094	811.3027	843.9112	888.6081	922.7966	960.3667	973.3897	1003.8972	1030.6714	1053.3147	1070.7058	1092.6935	1110.6887	1169.4111	1181.5086	1251.795	1295.6197	1319.7542	1358.0253	1381.3268	1497.9006	1927.6254	3133.019	3149.9325	3198.1916	3206.67	3218.3537	3805.1491
OC12C3CC3C1OC2=O	O[C@]12[C@H]3C[C@H]3[C@H]1OC2=O	
InChI=1S/C6H6O3/c7-5-6(8)3-1-2(3)4(6)9-5/h2-4,8H,1H2	InChI=1S/C6H6O3/c7-5-6(8)3-1-2(3)4(6)9-5/h2-4,8H,1H2/t2-,3+,4-,6-/m1/s1
