18
gdb 79006	3.89009	1.66037	1.41838	1.659	79.68	-0.2218	-0.0027	0.2191	950.7609	0.148467	-364.677738	-364.671059	-364.670115	-364.708308	28.226	
C	-0.1777907309	 1.5984082333	-0.1592465642	-0.41632
C	-0.0167087969	 0.1051982844	 0.0327038438	-0.043234
N	 1.1758662715	-0.5549852979	-0.7061576824	-0.215749
C	 2.1034443651	-0.1588387119	 0.4720184072	 0.006144
C	 2.5390464124	-1.5703020318	 0.9321188799	-0.15659
C	 2.2733463964	-1.5465199007	 2.4601784585	-0.081511
C	 1.1412261817	-0.8488444036	 2.654560115	-0.26474
C	 0.7813982511	-0.4819597413	 1.2196904904	 0.261437
C	 1.1226547616	-1.7030152525	 0.3263968755	 0.019981
H	 0.7401997585	 2.1440283685	 0.0771972901	 0.118865
H	-0.4452280951	 1.8169019722	-1.197886837	 0.130548
H	-0.97581624	 1.9844132048	 0.4838441047	 0.119801
H	-0.9500253965	-0.4231270272	-0.198575262	 0.075191
H	 2.6756285445	 0.7707669178	 0.4707356716	 0.081559
H	 3.4190107319	-2.0928967541	 0.555691703	 0.067633
H	 2.90291936	-2.0141630715	 3.2048854608	 0.107663
H	 0.6341072175	-0.6158288773	 3.5793161059	 0.110689
H	 0.5110291672	-2.5924686812	 0.1550490392	 0.078633
204.0532	207.9197	240.5047	392.3652	472.388	489.4039	558.3315	664.0234	691.199	728.3962	785.6596	787.1887	815.5733	865.0743	881.0041	884.4978	894.7698	925.1548	934.9356	963.1713	1049.523	1052.5269	1061.2201	1075.1318	1125.9615	1128.6671	1170.7321	1173.3966	1191.8029	1217.0434	1230.8853	1275.6166	1294.3542	1312.8402	1394.7229	1413.7452	1491.7517	1492.4352	1580.5869	3031.8739	3038.4882	3083.8504	3094.0031	3104.9067	3112.6308	3116.3276	3220.6788	3248.3019
CC1N2C3C4C=CC13C24	C[C@H]1N2[C@@H]3[C@H]4C=C[C@@]13[C@@H]24	
InChI=1S/C8H9N/c1-4-8-3-2-5-6(8)9(4)7(5)8/h2-7H,1H3	InChI=1S/C8H9N/c1-4-8-3-2-5-6(8)9(4)7(5)8/h2-7H,1H3/t4-,5-,6-,7+,8-/m1/s1
