20
gdb 111553	2.63684	1.56018	1.18325	1.4595	78.82	-0.241	0.0733	0.3142	1122.2979	0.17073	-403.087965	-403.079379	-403.078435	-403.121236	32.344	
C	-0.3024952456	 1.3489773867	 0.1935418361	-0.240959
O	 0.1592434479	 0.0489653085	-0.1073729975	-0.255415
C	 0.7470206933	-0.6026470897	 0.9863337332	 0.115717
C	-0.1257631362	-1.3156291412	 2.0457893311	-0.0666
C	-1.0519258285	-2.25806153	 1.2589171695	-0.239148
C	 0.2419808783	-2.972946626	 0.914267593	-0.072538
N	 0.9638779872	-2.4330467454	 2.1237669904	-0.206144
C	 1.3360712869	-1.9707136955	 0.7284008733	 0.289843
C	 2.6545686046	-2.2868693895	 0.0946563177	-0.513012
H	 0.5120439633	 1.9926575325	 0.5602954289	 0.107544
H	-0.7006131326	 1.775013166	-0.7302179741	 0.129412
H	-1.1009147715	 1.3399603689	 0.9504603941	 0.109165
H	 1.4904964906	 0.0448296212	 1.4768713272	 0.072111
H	-0.4435260201	-0.8189725611	 2.9602246756	 0.078399
H	-1.6690807437	-2.8621087748	 1.9285070854	 0.107304
H	-1.657131743	-1.8319373525	 0.4543232675	 0.10871
H	 0.3744809349	-4.0036237374	 0.6030972965	 0.091969
H	 2.9260914113	-3.3331110834	 0.2645561766	 0.128911
H	 2.6134783872	-2.1158232847	-0.9864586074	 0.131211
H	 3.4503215058	-1.6597786926	 0.5100834631	 0.123519
73.7099	155.5836	160.8242	192.03	225.3822	276.054	293.1343	393.4266	513.0441	561.0243	619.2938	745.5003	755.4242	799.4789	861.5488	895.2704	941.419	979.9802	992.9084	1004.2453	1030.795	1047.4199	1048.0127	1093.0286	1138.9222	1154.1909	1178.7158	1183.1916	1216.2997	1238.5274	1249.3628	1277.7263	1284.8384	1343.0517	1379.1399	1409.3174	1447.5578	1480.2113	1483.9362	1487.2534	1491.1459	1494.2371	1508.4678	2976.0018	2990.4355	3025.2074	3033.1383	3058.7215	3098.9297	3109.7368	3115.6778	3117.5261	3137.9928	3173.6025
COC1C2CC3N2C13C	CO[C@H]1[C@H]2C[C@@H]3N2[C@]13C	
InChI=1S/C7H11NO/c1-7-5-3-4(8(5)7)6(7)9-2/h4-6H,3H2,1-2H3	InChI=1S/C7H11NO/c1-7-5-3-4(8(5)7)6(7)9-2/h4-6H,3H2,1-2H3/t4-,5+,6+,7+,8?/m1/s1
