20
gdb 12546	3.15585	1.75522	1.21504	1.1329	76.05	-0.2375	0.0188	0.2563	1019.8127	0.178942	-349.017545	-349.00966	-349.008716	-349.049531	30.805	
O	-0.132978715	 1.469213589	-0.0052534913	-0.438982
C	 0.0104464774	 0.050495425	 0.0202488889	 0.134131
C	-1.4178252341	-0.4954058719	 0.0043108122	-0.175162
C	-1.565188446	-2.0046928714	 0.2235937075	-0.196617
C	-1.0046854146	-2.8881280231	-0.9070546653	-0.242309
C	 0.50236227	-2.9216198149	-1.0080248791	-0.046778
C	 1.3078443287	-1.865207465	-1.1195502368	-0.063404
C	 0.8785534916	-0.418317096	-1.1638629451	-0.265956
H	 0.7477276342	 1.8572506131	 0.0007796017	 0.277175
H	 0.5008961632	-0.2651641675	 0.956352019	 0.062173
H	-1.9708073335	 0.0393090892	 0.7843968203	 0.10336
H	-1.8811222845	-0.2107684774	-0.9503415294	 0.095804
H	-1.0929429797	-2.2915778613	 1.1717100286	 0.09619
H	-2.6338805742	-2.2252940929	 0.3321825777	 0.093511
H	-1.3718854929	-3.9101148857	-0.7678620383	 0.096553
H	-1.4318300989	-2.5449084545	-1.8617571653	 0.106938
H	 0.9599587764	-3.9085502864	-0.9973480792	 0.083938
H	 2.3778392575	-2.0465680312	-1.1897061836	 0.083686
H	 0.3282057466	-0.2024604494	-2.0909637142	 0.113827
H	 1.7747965577	 0.2139731623	-1.1931688382	 0.081923
97.0426	136.6049	284.528	291.9274	299.5872	317.9999	393.6536	441.0174	466.2913	531.2103	666.155	709.2976	792.7555	852.861	876.5075	923.174	934.8366	976.1344	1000.1863	1036.324	1057.6519	1079.8913	1091.0342	1111.3214	1163.1149	1212.8226	1244.5012	1270.0432	1274.0723	1305.0942	1326.9831	1359.3937	1365.5411	1380.8914	1391.1322	1423.4755	1442.5751	1475.3727	1481.1663	1486.9454	1497.7028	1723.9299	2957.5186	2994.1282	3005.0393	3019.9049	3021.6254	3044.3499	3061.2893	3065.4775	3071.8303	3135.7538	3160.575	3816.0814
OC1CCCC=CC1	O[C@H]1CCCC=CC1	
InChI=1S/C7H12O/c8-7-5-3-1-2-4-6-7/h1,3,7-8H,2,4-6H2	InChI=1S/C7H12O/c8-7-5-3-1-2-4-6-7/h1,3,7-8H,2,4-6H2/t7-/m1/s1
