19
gdb 36138	3.88157	1.06064	0.96201	0.7937	79.84	-0.2298	0.0509	0.2807	1259.3327	0.158989	-385.843788	-385.835355	-385.834411	-385.877042	32.572	
C	 0.0122495548	-1.2290986948	 0.4705419781	-0.460482
C	-0.0276080678	-0.0505662801	 0.2379034896	 0.325963
C	-0.0488150335	 1.3819795458	-0.0512443795	-0.464738
C	 1.3376208949	 1.9807828746	-0.2145016525	 0.323459
C	 2.117873741	 2.4503101373	 1.0028250189	-0.365773
C	 1.6266499212	 3.4431809704	-0.0240398797	 0.068276
O	 2.516536331	 3.9082194185	-1.0019018595	-0.259156
C	 3.1466781706	 2.7697792779	-1.5942271741	-0.094389
C	 2.1726192209	 1.5828278613	-1.4259385127	-0.293024
H	 0.0373622974	-2.2700888478	 0.6781163423	 0.195558
H	-0.6324607041	 1.5574074947	-0.9657077866	 0.130223
H	-0.5808822248	 1.9044504298	 0.7539820737	 0.127847
H	 1.5979019128	 2.4282247627	 1.9551804146	 0.114531
H	 3.17946495	 2.2390659071	 1.0740042505	 0.116394
H	 0.8758518235	 4.1834142631	 0.2289974824	 0.100601
H	 3.3631345766	 3.012237255	-2.6379505402	 0.11217
H	 4.1021260657	 2.5649423844	-1.0918518173	 0.101268
H	 2.7011744179	 0.6334253648	-1.3036998923	 0.115228
H	 1.5145388919	 1.4886766152	-2.2974442457	 0.106043
60.3008	104.6556	196.2517	243.549	302.1376	345.4496	361.1379	415.987	453.2592	620.1879	636.2811	649.94	700.0428	714.2389	829.8309	864.5989	897.6893	923.827	934.3942	948.0437	979.4017	1008.8345	1029.1924	1035.6716	1075.2875	1103.8526	1166.4858	1195.8576	1216.6106	1232.1008	1258.9103	1305.6036	1327.1251	1338.5262	1384.4154	1412.7953	1462.9867	1479.4169	1497.8382	1526.8992	2237.5654	3004.8532	3009.4886	3040.105	3045.2782	3087.1499	3097.9963	3129.2909	3176.4437	3214.4077	3505.9594
C#CCC12CC1OCC2	C#CC[C@]12C[C@H]1OCC2	
InChI=1S/C8H10O/c1-2-3-8-4-5-9-7(8)6-8/h1,7H,3-6H2	InChI=1S/C8H10O/c1-2-3-8-4-5-9-7(8)6-8/h1,7H,3-6H2/t7-,8+/m1/s1
