19
gdb 12022	4.49494	1.40176	1.2498	1.9741	71.7	-0.2426	0.0894	0.3319	1040.6191	0.164553	-365.025191	-365.016699	-365.015755	-365.057803	31.682	
C	 0.19426755	 1.4707700643	-0.0685945487	-0.471887
C	-0.0104296932	-0.0134266474	 0.1445067361	 0.39832
C	-1.1595850157	-0.6196589076	-0.6328724434	-0.448635
O	 1.1879136439	-0.826341913	 0.1354100773	-0.29754
C	 0.4627212784	-0.698812971	 1.3638360899	-0.025449
C	 1.1892116822	-0.0258003806	 2.4924032494	-0.038697
C	 2.4769350525	-0.5963410448	 2.9631988087	-0.238791
N	 2.4483378642	 0.6831095472	 2.2328200954	-0.316262
H	 0.9853689776	 1.8755915595	 0.5628179299	 0.152224
H	 0.4462405194	 1.667681303	-1.1165153643	 0.124709
H	-0.7319657598	 2.0114531001	 0.154397998	 0.121669
H	-1.0287189833	-0.4459729563	-1.7065288929	 0.126184
H	-1.217900934	-1.6980008233	-0.4664566864	 0.126807
H	-2.1110284328	-0.1664715972	-0.3346563362	 0.121564
H	-0.0766443311	-1.6029877039	 1.6576720367	 0.08808
H	 0.5407513756	 0.4585309847	 3.2206114433	 0.097009
H	 2.7536195323	-0.5261105502	 4.0111752293	 0.117556
H	 2.8580383288	-1.4722231137	 2.4443649647	 0.120834
H	 2.703805895	 0.4948457301	 1.2638498432	 0.242305
106.9971	157.8955	163.7471	183.4636	220.724	303.1349	330.0178	377.3388	417.7039	515.2373	635.3196	708.4956	774.0374	842.6449	859.6759	928.2246	950.0483	954.1146	992.0191	1002.0343	1040.0809	1090.6335	1125.8917	1131.0588	1143.8113	1158.3365	1195.2724	1266.7207	1288.4427	1314.511	1344.7964	1403.205	1410.2242	1422.8344	1458.4132	1479.0431	1485.4132	1503.594	1508.6326	1516.9203	3033.7634	3040.2944	3072.6606	3094.145	3100.2777	3109.0626	3121.7784	3123.852	3150.8005	3196.7892	3476.2304
CC1(C)OC1C1CN1	CC1(C)O[C@H]1[C@H]1CN1	
InChI=1S/C6H11NO/c1-6(2)5(8-6)4-3-7-4/h4-5,7H,3H2,1-2H3	InChI=1S/C6H11NO/c1-6(2)5(8-6)4-3-7-4/h4-5,7H,3H2,1-2H3/t4-,5+/m1/s1
