21
gdb 89853	2.70052	1.47773	1.11862	1.0094	84.5	-0.2401	0.0238	0.2639	1172.3372	0.182681	-387.090212	-387.08179	-387.080845	-387.122895	33.619	
C	 0.0140586192	 1.4985401452	-0.0872710075	-0.398696
C	 0.0206592745	-0.0257198505	-0.0006411146	 0.08567
O	 0.6736156191	-0.4989940733	-1.1779098221	-0.304909
C	 0.9867959647	-1.8657551417	-1.1283543055	 0.44685
C	-0.116007817	-2.8352747954	-1.483152866	-0.321849
C	 1.0144505777	-2.5470659008	-2.4559420825	-0.331021
C	 1.9910279617	-2.1956612049	-0.0420774553	-0.320432
C	 1.6052745303	-1.4960538023	 1.2356388509	-0.080021
C	 0.6936217572	-0.5274876866	 1.2519867709	-0.057951
H	 1.0374181621	 1.8839256755	-0.0702002312	 0.126083
H	-0.4636124675	 1.8189972148	-1.0169936574	 0.122748
H	-0.5372825266	 1.928165224	 0.7545290204	 0.112129
H	-1.0264808091	-0.3811196155	-0.0056941847	 0.072986
H	-0.1456641333	-3.8007743316	-0.9894937168	 0.109394
H	-1.0867584661	-2.4132989623	-1.7182388793	 0.115562
H	 0.7831001659	-1.9358827442	-3.320721144	 0.121814
H	 1.7633843079	-3.3137785342	-2.6245350455	 0.108874
H	 2.0378454706	-3.2800643838	 0.1149245808	 0.103538
H	 3.0000735365	-1.8870258713	-0.3526428105	 0.11366
H	 2.0938255933	-1.8111390425	 2.1539060283	 0.088567
H	 0.3984697988	-0.0487747187	 2.1823077015	 0.087006
94.8002	132.9783	232.1473	245.971	287.0078	314.7848	388.4255	422.8471	470.2463	512.0557	550.4159	679.042	725.3041	770.7973	820.5809	833.5204	880.4824	909.0147	940.1674	968.6415	983.8835	993.942	1008.6959	1030.0524	1046.2885	1070.794	1076.7947	1124.0326	1158.2211	1185.885	1190.9803	1217.1779	1280.897	1303.5561	1342.6273	1365.1617	1387.478	1402.7688	1413.5499	1451.4322	1472.5102	1484.5557	1497.8935	1499.3004	1724.8392	2926.5873	3000.6644	3043.3249	3049.2046	3119.0557	3124.3176	3130.7365	3135.4999	3148.8181	3172.0301	3215.2464	3229.5964
CC1OC2(CC2)CC=C1	C[C@H]1OC2(CC2)CC=C1	
InChI=1S/C8H12O/c1-7-3-2-4-8(9-7)5-6-8/h2-3,7H,4-6H2,1H3	InChI=1S/C8H12O/c1-7-3-2-4-8(9-7)5-6-8/h2-3,7H,4-6H2,1H3/t7-/m1/s1
