22
gdb 111411	2.09704	1.38707	0.96343	2.6402	81.05	-0.2382	0.0677	0.3059	1305.3413	0.194278	-404.296023	-404.28658	-404.285636	-404.330418	35.547	
C	 0.1783979411	 1.5233697554	 0.1170119645	-0.387747
C	 0.0594755091	 0.0178563101	-0.1464699863	-0.197721
C	-1.3329371386	-0.5401313677	 0.1503407218	-0.022605
C	-1.6035267224	-2.0251279385	-0.0985441207	-0.047337
C	-0.8871333801	-2.8866242837	 0.8571144958	-0.249919
N	-2.1531644011	-2.2601433595	 1.2999229876	-0.162356
C	-1.8512186733	-0.8044283431	 1.6059413371	 0.017603
C	-1.0155920809	-0.5958909103	 2.8580504438	-0.073799
O	-1.671291719	-1.1614823167	 3.980374698	-0.426008
H	 1.1798520689	 1.8893577621	-0.1284716905	 0.116507
H	-0.5403267166	 2.0869152965	-0.4882370551	 0.117048
H	-0.014250634	 1.7665618276	 1.1670336182	 0.123991
H	 0.2868053923	-0.1836533214	-1.2017846793	 0.09974
H	 0.8206540666	-0.5185573802	 0.4310812001	 0.096538
H	-2.0698622809	 0.0709740313	-0.3807386326	 0.080296
H	-2.1060554457	-2.4273723361	-0.9729638074	 0.095439
H	-0.9875194332	-3.9603827924	 0.7324980002	 0.12349
H	 0.060727047	-2.5749931803	 1.2854033178	 0.115472
H	-2.8164006201	-0.3178575521	 1.7703339952	 0.094042
H	-0.0009839485	-1.0078065653	 2.7441415135	 0.082906
H	-0.9040481909	 0.4746493257	 3.0629647006	 0.10854
H	-1.9967428697	-2.0264177613	 3.7028058775	 0.295882
88.9048	95.2645	128.0032	156.6499	208.5753	256.9808	296.1358	342.6643	383.7358	466.6275	513.4749	552.0099	692.7947	739.4719	770.2452	807.7004	825.7105	895.7416	958.5009	985.5963	1000.9265	1033.7684	1053.3315	1061.8166	1078.8008	1087.8839	1110.4073	1123.1582	1165.5529	1179.8818	1212.9465	1218.4936	1250.5775	1292.9128	1296.3263	1334.042	1340.3423	1371.767	1391.8663	1401.59	1413.7688	1437.9382	1483.1781	1496.3804	1500.1881	1504.8119	1515.9867	2978.8847	3021.0946	3033.9635	3044.2932	3059.8734	3062.7641	3077.1796	3101.9347	3107.7091	3121.8203	3155.088	3204.6376	3785.5927
CCC1C2CN2C1CO	CC[C@H]1[C@H]2CN2[C@H]1CO	
InChI=1S/C7H13NO/c1-2-5-6-3-8(6)7(5)4-9/h5-7,9H,2-4H2,1H3	InChI=1S/C7H13NO/c1-2-5-6-3-8(6)7(5)4-9/h5-7,9H,2-4H2,1H3/t5-,6+,7-,8?/m0/s1
