17
gdb 58162	3.40735	0.71799	0.62108	3.4802	77.5	-0.2659	-0.0649	0.201	1744.45	0.131485	-458.929299	-458.91855	-458.917606	-458.966396	36.509	
C	 0.0664798943	 1.5209220366	-0.0867408214	-0.413648
C	 0.0173734901	-0.0009642138	-0.0064887527	 0.121171
O	 0.772905648	-0.5135736801	 1.0761324175	-0.418576
C	-1.4537925908	-0.5090007018	 0.0664094331	-0.076628
O	-2.2330353604	-0.0238098902	-1.0192141605	-0.41212
C	-1.497738201	-1.9659557872	 0.1638854536	 0.097659
C	-1.5382423885	-3.1737257727	 0.1559006502	 0.032254
C	-1.5659067948	-4.6129762932	 0.1978622204	 0.025419
O	-1.9539601027	-5.3162302668	-0.7067373097	-0.230393
H	 1.1013705177	 1.8571650864	-0.1887111142	 0.127934
H	-0.5173168821	 1.8840462527	-0.9348552737	 0.142046
H	-0.3533109646	 1.967655872	 0.8242747106	 0.108501
H	 0.4707679138	-0.4357333662	-0.905648435	 0.097928
H	 0.5362160004	-0.0175326481	 1.8678904818	 0.283237
H	-1.9086408011	-0.0769325627	 0.9690314683	 0.116108
H	-2.0683905299	-0.5940234868	-1.778643691	 0.294987
H	-1.1926829584	-5.0435824282	 1.1489675127	 0.104121
41.922	58.8447	80.3109	116.8815	200.6321	231.1801	247.1957	267.3071	279.3059	300.3489	352.8528	398.196	449.007	508.2135	567.6774	668.3808	820.8083	878.1837	941.3609	1020.8255	1042.8915	1065.4951	1110.502	1136.4483	1154.0404	1235.6322	1272.3152	1317.3403	1365.4597	1398.6556	1413.1709	1416.4788	1421.2209	1489.2774	1495.6103	1767.359	2320.8736	2923.5877	3013.3894	3024.7291	3046.6128	3105.7344	3142.3721	3798.1477	3808.5299
CC(O)C(O)C#CC=O	C[C@@H](O)[C@@H](O)C#CC=O	
InChI=1S/C6H8O3/c1-5(8)6(9)3-2-4-7/h4-6,8-9H,1H3	InChI=1S/C6H8O3/c1-5(8)6(9)3-2-4-7/h4-6,8-9H,1H3/t5-,6+/m1/s1
