13
gdb 5281	5.1022	1.71721	1.28704	1.8432	63.48	-0.2382	-0.0343	0.2039	878.1404	0.097803	-394.818392	-394.811673	-394.810729	-394.84946	25.044	
N	-0.0697682587	 1.3086767537	 0.1528228333	-0.549142
C	 0.0512713486	-0.0571400092	 0.0192871297	 0.240405
N	 1.1138669214	-0.7631524824	-0.068761716	-0.512471
C	-1.2630070333	-0.7298521185	 0.0214059719	 0.431687
N	-2.427545322	-0.1485184175	-0.003356559	-0.323883
C	-3.3369405682	-1.19122023	-0.0015071245	-0.114551
C	-2.6546343057	-2.3625767386	 0.0249941509	-0.037828
O	-1.3240543125	-2.0774992609	 0.0401653193	-0.149232
H	 0.7122954815	 1.8738458084	-0.1348795669	 0.250852
H	-0.9876375294	 1.695963158	-0.0097314082	 0.271409
H	 1.9464101398	-0.1710756166	-0.0563948662	 0.206964
H	-4.4018233847	-1.0236637407	-0.0196760466	 0.131236
H	-2.9235859166	-3.4046310455	 0.0360881225	 0.154553
83.7895	196.3661	216.1606	384.9994	407.6677	484.99	523.4929	610.3758	641.9377	660.9615	777.4588	793.8532	864.313	866.0961	936.655	963.8405	1096.8827	1119.7118	1131.0202	1155.753	1172.9631	1250.3383	1358.0252	1460.1477	1533.1231	1586.7353	1627.0414	1721.2196	3266.9842	3302.7975	3458.2793	3575.4591	3700.9147
NC(=N)C1=NC=CO1	NC(=N)c1ncco1	
InChI=1S/C4H5N3O/c5-3(6)4-7-1-2-8-4/h1-2H,(H3,5,6)	InChI=1S/C4H5N3O/c5-3(6)4-7-1-2-8-4/h1-2H,(H3,5,6)
