16
gdb 48970	3.94636	1.39349	1.23511	3.549	70.43	-0.225	-0.0324	0.1926	1003.5328	0.125128	-437.835195	-437.828143	-437.827199	-437.866793	27.266	
O	-0.3370395019	 0.5056044378	-0.7646215775	-0.276001
C	 0.1215978711	 1.0770727948	 0.2001653971	 0.035333
C	 1.3110145851	 1.9294103814	 0.151714664	 0.222657
N	 1.8054266041	 2.7972225345	 1.2436872759	-0.380946
C	 2.5435117014	 3.601168768	 0.1868545008	-0.070832
C	 3.9668947363	 3.0635235817	 0.158288826	-0.050607
O	 3.8002683726	 1.6736654965	-0.1811738374	-0.254916
C	 2.5295837448	 1.5390578915	-0.7347566969	 0.10451
C	 1.8443299919	 2.8258086086	-0.9707771909	-0.20527
H	-0.3315067867	 0.9726371648	 1.2122724563	 0.078316
H	 1.0218860753	 3.3624734116	 1.5667617487	 0.223898
H	 2.4383306245	 4.682075093	 0.2581620465	 0.091148
H	 4.5859338463	 3.5650299166	-0.5997837142	 0.100326
H	 4.4508768906	 3.1225407682	 1.1354114602	 0.127655
H	 2.3950297104	 0.6782591758	-1.3768949621	 0.138631
H	 1.3737377042	 3.1822421153	-1.8780648465	 0.116099
114.1716	161.5651	193.3603	267.4393	400.4076	448.6874	533.973	659.7039	680.5243	725.1364	764.8313	831.0401	864.3198	880.9631	917.6882	943.9984	954.9385	1018.282	1027.356	1032.2361	1057.0517	1071.8379	1130.416	1156.2359	1196.1805	1240.9389	1243.2136	1262.3733	1281.0594	1335.3965	1387.8067	1418.5244	1430.1978	1498.471	1788.3415	2873.448	3003.9744	3112.923	3139.0129	3192.9928	3215.4695	3468.1617
O=CC12NC3COC1C23	O=C[C@@]12N[C@H]3CO[C@@H]1[C@@H]23	
InChI=1S/C6H7NO2/c8-2-6-4-3(7-6)1-9-5(4)6/h2-5,7H,1H2	InChI=1S/C6H7NO2/c8-2-6-4-3(7-6)1-9-5(4)6/h2-5,7H,1H2/t3-,4-,5+,6-/m0/s1
