17
gdb 46012	4.43428	0.99654	0.85015	2.2232	84.23	-0.2359	-0.0254	0.2106	1313.713	0.135371	-384.698905	-384.690535	-384.689591	-384.732169	31.671	
O	-0.0256587018	-0.0918159614	-0.1439096231	-0.307303
C	-0.0280168571	 1.1028795647	 0.0320211948	 0.388668
C	-1.2978246122	 1.9242300756	 0.1536472206	-0.310601
C	-1.2781991808	 2.8089020476	 1.4129842357	-0.311388
C	 0.0285440332	 3.5717198686	 1.5514023791	 0.132283
C	 1.1578158107	 3.1572902704	 0.9540271234	-0.137564
C	 1.2660740848	 1.9057434936	 0.1298166442	-0.357496
C	 0.0039852276	 4.7424232426	 2.360329754	 0.221509
C	-0.0725877143	 5.7246923144	 3.0541417398	-0.408368
H	-1.3547651503	 2.5747046867	-0.7302258633	 0.125576
H	-2.1588746755	 1.2527558783	 0.1392451287	 0.123306
H	-2.1129571366	 3.5156254624	 1.3848109598	 0.125179
H	-1.4343645476	 2.1943606015	 2.3094157057	 0.132877
H	 2.0666794798	 3.7377321479	 1.0829317745	 0.103013
H	 2.0506946173	 1.2420750683	 0.5122505485	 0.142664
H	 1.5771715407	 2.1570043062	-0.8968615962	 0.141376
H	-0.120310828	 6.5924284126	 3.6642169436	 0.196269
57.3298	136.3403	157.6562	182.9615	352.7575	365.1336	426.6979	465.8993	516.3138	550.0073	572.5408	598.0172	642.1595	687.5074	737.9734	768.6596	830.8882	918.0551	948.5549	982.2192	1035.3433	1051.8875	1136.7207	1153.2162	1202.0296	1212.9522	1254.0866	1310.1009	1332.0654	1353.6228	1380.8293	1437.8522	1465.6062	1486.9681	1695.1396	1825.455	2220.1087	2993.3372	3019.5592	3028.9242	3057.6106	3079.8936	3114.1477	3172.7274	3502.9555
O=C1CCC(=CC1)C#C	O=C1CCC(=CC1)C#C	
InChI=1S/C8H8O/c1-2-7-3-5-8(9)6-4-7/h1,3H,4-6H2	InChI=1S/C8H8O/c1-2-7-3-5-8(9)6-4-7/h1,3H,4-6H2
