20
gdb 88376	2.08756	1.39321	1.1723	1.5933	80.65	-0.2486	0.0401	0.2887	1195.9258	0.167583	-403.084761	-403.074425	-403.07348	-403.120041	38.544	
C	-1.5215318798	-1.3623586887	 2.8485075246	-0.413296
C	-0.777029592	-1.2688543166	 1.5385506444	-0.006439
N	-0.8341721461	-0.0042616226	 0.7810556128	-0.355987
C	 0.4650572475	-0.4944825652	 1.2581576945	-0.028907
C	 1.2962165598	 0.410009467	 2.1708480885	 0.15465
C	 2.3932662398	-0.4095257412	 2.8634987142	-0.398094
O	 1.9867242097	 1.3420719433	 1.324245733	-0.446688
C	 0.5203564557	 1.165362971	 3.166488946	 0.318538
C	-0.0336149467	 1.8486701497	 3.9858882508	-0.47236
H	-1.4604293111	-0.4336230542	 3.4132820803	 0.149614
H	-2.5776038936	-1.5839112655	 2.659433747	 0.11581
H	-1.1159665145	-2.1748665664	 3.4617230646	 0.112759
H	-0.8509262671	-2.1790210496	 0.9413890524	 0.081557
H	-0.9442997683	-0.177848646	-0.2138304103	 0.231379
H	 1.1275429328	-0.9376567995	 0.5144918949	 0.088033
H	 2.993204424	-0.9276203945	 2.1099814787	 0.121417
H	 3.0456762145	 0.2541971462	 3.4342398808	 0.135687
H	 1.9524923165	-1.146067456	 3.5391488651	 0.126699
H	 1.3100070937	 1.900551242	 0.9229824781	 0.287708
H	-0.5442558947	 2.4451348667	 4.7012135198	 0.197917
31.4139	143.5091	147.9865	188.1219	200.3056	229.0498	229.6367	321.1321	357.5624	373.7346	392.688	438.0594	508.1441	591.6435	633.1896	640.0787	658.6949	674.8884	786.9564	863.825	900.7595	931.9668	976.573	1015.0612	1025.1062	1067.7294	1078.0458	1139.786	1146.7894	1177.6091	1246.0047	1270.3527	1307.903	1358.2803	1400.6597	1404.1304	1426.9097	1465.5024	1478.699	1491.5275	1496.4046	1503.1161	2229.9557	3036.5744	3050.8526	3086.4265	3091.074	3105.9243	3128.9824	3141.8789	3168.98	3499.8115	3507.0232	3793.6131
CC1NC1C(C)(O)C#C	C[C@H]1N[C@H]1[C@@](C)(O)C#C	
InChI=1S/C7H11NO/c1-4-7(3,9)6-5(2)8-6/h1,5-6,8-9H,2-3H3	InChI=1S/C7H11NO/c1-4-7(3,9)6-5(2)8-6/h1,5-6,8-9H,2-3H3/t5-,6-,7+/m1/s1
