17
gdb 37065	3.39046	1.7185	1.42833	2.6395	71.47	-0.2483	-0.0051	0.2431	929.8204	0.137662	-421.809925	-421.803201	-421.802257	-421.840707	27.369	
C	 0.0296978206	 1.528442697	 0.1751839268	-0.156126
O	 1.4037593493	 1.9165092192	 0.0961708681	-0.262032
C	 2.1265155253	 1.0221638144	-0.7552576566	-0.158732
C	 1.3190857396	-0.250378675	-0.7618347915	 0.305382
O	 0.9759118586	-0.6956261557	 0.5749489233	-0.32347
C	 0.0130413305	 0.0584729859	-0.1676862866	 0.317949
C	-1.0485354764	-0.7712662446	-0.8743923042	-0.372911
C	-0.2174689474	-1.583704787	-1.8601971038	-0.060909
C	 1.0839097973	-1.2738382713	-1.8193143758	-0.180362
H	-0.3147657411	 1.7616266519	 1.1876563849	 0.11801
H	-0.5924345185	 2.0839820931	-0.5453774192	 0.093999
H	 2.207587501	 1.4143542373	-1.7816995643	 0.098326
H	 3.1332302231	 0.9195202409	-0.3383719665	 0.118647
H	-1.6056939325	-1.4120402894	-0.1816935506	 0.130933
H	-1.784026409	-0.1384714011	-1.3869415437	 0.117989
H	-0.6564821582	-2.3538884241	-2.4856959025	 0.105723
H	 1.8632212878	-1.7214306214	-2.4231636375	 0.107581
186.0791	216.1046	253.2661	329.17	411.967	477.3307	541.6606	590.1275	641.2115	713.416	750.8824	819.8688	837.3164	892.369	924.0802	931.0685	937.863	963.1193	1002.3069	1057.1586	1069.1004	1076.4524	1137.8986	1161.7769	1206.4191	1217.632	1230.5256	1250.1466	1311.4003	1343.7978	1379.8693	1394.5597	1431.0636	1461.5982	1501.6961	1511.3225	1648.3192	2974.0634	2982.7806	3032.6626	3070.9924	3073.8361	3076.8948	3186.6337	3218.7227
C1OCC23OC12CC=C3	C1OC[C@@]23O[C@@]12CC=C3	
InChI=1S/C7H8O2/c1-2-6-4-8-5-7(6,3-1)9-6/h1-2H,3-5H2	InChI=1S/C7H8O2/c1-2-6-4-8-5-7(6,3-1)9-6/h1-2H,3-5H2/t6-,7+/m1/s1
