19
gdb 40244	2.91185	1.63968	1.26284	1.7576	75.1	-0.2424	0.0805	0.3229	1033.5155	0.160578	-422.992968	-422.985561	-422.984617	-423.024637	30.125	
C	-0.005101065	 1.4995155245	 0.0611886268	-0.329164
C	 1.3092351908	 0.7396681098	 0.0059924865	-0.331012
C	-0.012996914	 0.0089918119	-0.0221440106	 0.436214
O	-0.3981612129	-0.6421075216	 1.1688953709	-0.278787
C	-0.0635117532	-2.006858153	 1.1196223847	 0.001848
O	-0.8715975473	-2.7122424119	 0.2112793182	-0.247354
C	-0.8361725832	-2.1760202687	-1.0857819304	 0.094216
C	-1.8859064042	-1.1581377408	-1.442541344	-0.320549
C	-0.445175613	-0.725016915	-1.256560049	-0.130469
H	-0.2894014474	 1.9322719662	 1.0136698408	 0.126478
H	-0.3192876157	 2.0629473576	-0.8104719241	 0.116271
H	 1.8990917378	 0.7884603361	-0.9032946903	 0.111963
H	 1.8837810297	 0.6785253335	 0.9231189506	 0.12013
H	 1.0025209116	-2.1188787916	 0.8590286582	 0.08229
H	-0.2655152994	-2.4275933632	 2.1061354442	 0.116189
H	-0.5242563142	-2.9036709796	-1.8302722135	 0.096787
H	-2.2958026345	-1.1567059762	-2.4464129952	 0.109938
H	-2.5855693454	-0.9103337907	-0.6523160964	 0.132347
H	 0.1115933694	-0.4710790573	-2.1526886672	 0.092664
102.6126	188.5268	273.6983	294.1451	345.7836	400.8775	460.6845	532.2433	563.6034	674.7817	753.2257	768.0564	793.6795	818.1477	868.4066	901.9328	952.0893	975.8406	985.653	1013.3534	1039.4818	1045.739	1060.8638	1069.4005	1079.407	1087.3665	1120.1247	1173.1506	1188.0175	1193.4931	1229.7562	1285.5471	1290.2421	1312.5214	1376.9356	1421.2625	1443.982	1451.4827	1472.32	1496.6593	1515.4409	2959.9422	3119.0782	3131.4788	3134.6704	3137.8022	3138.5107	3161.1906	3218.3593	3231.2993	3232.654
C1CC11OCOC2CC12	C1CC21OCO[C@H]1C[C@@H]21	
InChI=1S/C7H10O2/c1-2-7(1)5-3-6(5)8-4-9-7/h5-6H,1-4H2	InChI=1S/C7H10O2/c1-2-7(1)5-3-6(5)8-4-9-7/h5-6H,1-4H2/t5-,6+/m1/s1
