21
gdb 97893	3.80507	0.63108	0.62429	1.4099	84.69	-0.2401	0.036	0.276	1899.6585	0.17788	-424.19505	-424.18349	-424.182546	-424.233417	40.796	
C	-0.0096647176	 1.5289911209	 0.0351957143	-0.41549
C	 0.0295977567	-0.0053362762	 0.0591422824	 0.349976
C	 0.9172821323	-0.5150652491	 1.1941598294	-0.388051
O	-1.2719395699	-0.5212144096	 0.3360568697	-0.451314
C	 0.5272680196	-0.5248233636	-1.3207553626	-0.397518
C	 0.5559188935	-1.9756033487	-1.4477709089	 0.049798
C	 0.5917152385	-3.1741323786	-1.5535804809	 0.142759
C	 0.6026457358	-4.6249639069	-1.6818582196	-0.218858
O	 1.9406289231	-5.1060961208	-1.6041435947	-0.410412
H	 0.9845652391	 1.9561912691	-0.1317970018	 0.114686
H	-0.6670821179	 1.8910038161	-0.764756808	 0.100788
H	-0.3935441128	 1.9059497191	 0.9869274524	 0.123488
H	 0.5252678661	-0.1701100248	 2.1547381494	 0.118737
H	 0.9358599889	-1.607037599	 1.1975174717	 0.13847
H	 1.9419496243	-0.1482850629	 1.0826593347	 0.109251
H	-1.8667687335	-0.2236274093	-0.3608865182	 0.27436
H	-0.1199380012	-0.1009550305	-2.1023922072	 0.111287
H	 1.5296993591	-0.1207059284	-1.513118831	 0.130207
H	-0.0226532592	-5.0600651838	-0.885092569	 0.117239
H	 0.1355899678	-4.9064131077	-2.640232129	 0.112635
H	 1.9035212474	-6.0650330552	-1.6805085831	 0.287961
14.1767	53.6107	85.0652	137.9006	206.2112	223.8409	246.4579	256.983	284.7565	295.8837	331.7402	353.7921	396.4707	406.9725	445.7406	519.9637	582.9028	765.351	788.3725	877.4115	919.2981	936.5712	980.6714	1020.5423	1028.3584	1046.1826	1126.4531	1154.9532	1178.1878	1217.5058	1245.627	1256.9915	1257.5695	1338.0275	1376.8246	1403.7221	1419.7775	1458.1129	1459.861	1480.1777	1484.7152	1497.8403	1503.8331	1506.4176	2371.973	2960.3152	2978.2864	3000.2999	3025.1	3042.0535	3048.3298	3091.2576	3115.9741	3122.0813	3134.8844	3800.9451	3816.9347
CC(C)(O)CC#CCO	CC(C)(O)CC#CCO	
InChI=1S/C7H12O2/c1-7(2,9)5-3-4-6-8/h8-9H,5-6H2,1-2H3	InChI=1S/C7H12O2/c1-7(2,9)5-3-4-6-8/h8-9H,5-6H2,1-2H3
