20
gdb 57928	3.37119	0.87588	0.82035	0.7218	80.02	-0.2297	-0.0021	0.2276	1509.0047	0.170571	-436.52923	-436.518947	-436.518003	-436.565638	37.448	
C	-1.2922612378	 1.0410830035	-0.8583114697	-0.381224
C	-0.0264616639	 0.4093218219	-0.2586677242	-0.087813
C	-0.3685764378	-0.5454476758	 0.8979384953	-0.381426
C	 0.7120108206	-0.3727460715	-1.3448614973	 0.456342
O	 0.1605533335	-1.2759091198	-1.9604007735	-0.401075
N	 2.0103867808	 0.0082551929	-1.5537458324	-0.354901
C	 2.9543408112	-0.4866597453	-2.4832052986	 0.425155
N	 2.5721707077	-1.622865983	-3.137250382	-0.550846
N	 4.0501864595	 0.1701576974	-2.5509943022	-0.562362
H	-1.0478596878	 1.7614158749	-1.6452453185	 0.119154
H	-1.9262423253	 0.264388902	-1.2936830817	 0.143147
H	-1.8601151854	 1.563890628	-0.0830430076	 0.115355
H	 0.6250319429	 1.2058238111	 0.1210945612	 0.075763
H	-0.9789584057	-1.3745848937	 0.5300869319	 0.142437
H	 0.5339540322	-0.962897569	 1.3551081397	 0.12076
H	-0.9294459761	-0.0159332118	 1.6736951603	 0.116766
H	 2.3772589705	 0.7931760598	-1.0372830087	 0.266452
H	 1.5907324043	-1.8725865264	-3.081429865	 0.282098
H	 3.0938751128	-1.8737124358	-3.9592169295	 0.24993
H	 4.6898988436	-0.2511212794	-3.2216004275	 0.206287
17.4878	80.4422	117.6998	176.8804	220.6651	255.9618	262.9134	281.5053	343.8851	381.1894	425.7996	440.1825	552.3745	598.8701	646.0629	686.4847	729.0504	770.8442	797.7037	868.7511	933.5176	937.5525	974.5408	977.2026	1110.336	1116.7857	1130.115	1143.5837	1195.7922	1211.1663	1333.6789	1377.1197	1393.2965	1414.2486	1444.025	1485.3922	1491.5805	1493.4447	1500.3555	1516.9779	1618.7801	1739.7783	1758.8231	3028.5651	3039.4778	3042.5456	3108.3979	3110.8204	3124.1363	3129.421	3496.2225	3507.6642	3634.0957	3697.7891
CC(C)C(=O)NC(N)=N	CC(C)C(=O)NC(=N)N	
InChI=1S/C5H11N3O/c1-3(2)4(9)8-5(6)7/h3H,1-2H3,(H4,6,7,8,9)	InChI=1S/C5H11N3O/c1-3(2)4(9)8-5(6)7/h3H,1-2H3,(H4,6,7,8,9)
