18
gdb 32952	4.42185	0.85987	0.75703	2.0421	77.3	-0.2338	0.0026	0.2364	1533.0744	0.14678	-439.114509	-439.105269	-439.104325	-439.149623	31.98	
C	-0.2811771228	 1.2870348112	 0.137632799	-0.221764
O	-0.1341881893	-0.1117922722	 0.0624310074	-0.231136
C	 0.7490533275	-0.6140178253	 1.0482800781	-0.19339
C	 0.8210183883	-2.0908286598	 0.9587697084	 0.329061
C	 1.7688997446	-2.977537763	 0.5728797257	-0.195486
N	 1.2853055971	-4.2710301695	 0.7141076859	-0.30056
C	 0.080972964	-4.1165835581	 1.1713197651	 0.384316
C	-0.9211703243	-5.1610676584	 1.5059929739	-0.489687
O	-0.2751121249	-2.8194466132	 1.3524099098	-0.202037
H	 0.6750535402	 1.8096835195	-0.0256848109	 0.104125
H	-0.9826178528	 1.5819573006	-0.6460095781	 0.131451
H	-0.6821039053	 1.6049034175	 1.1134143224	 0.105167
H	 1.7641299614	-0.2073020511	 0.9118466142	 0.104476
H	 0.4063777684	-0.3092419726	 2.0518809977	 0.102419
H	 2.7629761802	-2.7784338701	 0.2041170108	 0.12303
H	-1.217031027	-5.1011710949	 2.5584752278	 0.144756
H	-1.8269818009	-5.0441029348	 0.9021615295	 0.148146
H	-0.4869081245	-6.1419229057	 1.3120852832	 0.157115
58.8653	85.0577	98.809	114.4899	222.2373	232.3363	273.1059	340.1745	388.0138	411.5808	648.3557	689.6976	697.9335	792.9086	866.8163	947.9327	981.4477	989.7148	1020.7068	1041.8323	1067.0105	1141.9913	1162.6931	1181.7273	1217.9925	1229.681	1257.6122	1261.2917	1371.0137	1409.7658	1417.483	1476.1098	1477.577	1481.4013	1485.0736	1495.6007	1515.4147	1609.7524	1653.0017	2955.7355	2969.7341	2994.6559	3011.4147	3044.7824	3099.2125	3119.3717	3158.7004	3261.2516
COCC1=CN=C(C)O1	COCc1cnc(C)o1	
InChI=1S/C6H9NO2/c1-5-7-3-6(9-5)4-8-2/h3H,4H2,1-2H3	InChI=1S/C6H9NO2/c1-5-7-3-6(9-5)4-8-2/h3H,4H2,1-2H3
