18
gdb 90579	3.43412	1.3428	1.03298	1.8988	80.8	-0.2214	-0.001	0.2205	1168.7271	0.149523	-398.12978	-398.121692	-398.120748	-398.162856	30.202	
C	-0.2639764227	 1.513076598	 0.1472090157	-0.401638
C	 0.0100079718	 0.020038445	 0.0068285013	-0.13563
C	 0.7779381259	-0.4415838733	-1.3005665516	-0.190838
N	 1.9107839217	-0.7928396895	-0.4212955189	-0.065579
C	 1.2261526869	-0.5395683472	 0.7464112073	 0.398367
N	 1.7223525515	-0.9300308791	 1.8518220321	-0.366448
C	 2.9825155858	-1.5879399328	 1.4120457162	-0.275171
C	 2.9982722841	-1.6093174997	-0.1497040198	 0.306764
N	 3.7454598126	-2.1722910128	-1.0064539605	-0.535929
H	 0.6403404155	 2.098831735	-0.0450372767	 0.130152
H	-1.0358763381	 1.832726009	-0.5596653461	 0.125529
H	-0.6100664631	 1.7473250508	 1.1578013055	 0.140929
H	-0.8950817551	-0.5624808047	 0.1966894697	 0.112272
H	 0.3399231883	-1.3014547824	-1.8145401668	 0.133789
H	 1.0068683093	 0.3478358348	-2.0207212547	 0.128362
H	 3.8533925827	-1.0388403386	 1.7894064792	 0.138875
H	 3.0370060403	-2.6048175311	 1.8146531508	 0.135972
H	 4.4689655925	-2.7211153414	-0.5428972527	 0.220223
64.8303	106.6559	180.9903	221.0232	267.2648	319.2309	395.7536	510.6214	549.9919	643.1342	664.7705	736.668	761.8138	830.9969	851.6408	914.0633	927.5253	970.2669	974.1945	1003.6207	1086.2545	1110.9356	1131.9339	1171.3565	1185.265	1199.608	1229.8343	1248.8988	1276.511	1338.9559	1368.2685	1391.3118	1415.5662	1455.8731	1495.2412	1496.5146	1513.6559	1733.011	1751.7074	3040.1168	3041.1866	3059.1513	3082.067	3082.5013	3112.1135	3114.7463	3120.0136	3485.1395
CC1CN2C1=NCC2=N	C[C@H]1CN2C1=NC[C]2[NH]	
InChI=1S/C6H9N3/c1-4-3-9-5(7)2-8-6(4)9/h4,7H,2-3H2,1H3	InChI=1S/C6H9N3/c1-4-3-9-5(7)2-8-6(4)9/h4,7H,2-3H2,1H3/t4-/m0/s1
