21
gdb 109375	2.29693	1.34874	0.89598	2.5323	81.27	-0.2305	0.029	0.2595	1319.769	0.182599	-424.226539	-424.217224	-424.21628	-424.260564	34.946	
C	-0.0720838101	 1.5445584691	-0.0231959395	-0.408654
C	 0.0349308829	 0.0117999721	 0.0491898903	-0.089386
C	 0.7090949329	-0.5217003154	-1.2226188341	-0.079804
O	 0.9721424704	-1.9069145651	-1.1481120662	-0.249444
C	 1.9194472197	-2.2132374056	-0.1422232644	-0.128362
C	 1.6646129142	-1.4970573657	 1.1523246171	-0.165683
C	 0.7936813273	-0.4945221867	 1.2638761391	 0.278197
C	 0.4922094795	 0.1557682831	 2.589008396	-0.161627
O	 1.1365597967	-0.5408249452	 3.6395116192	-0.41492
H	 0.9186492485	 2.0125351199	-0.0131729811	 0.119729
H	-0.5757060957	 1.8478696425	-0.9474529986	 0.115509
H	-0.647745758	 1.9562923117	 0.8104192137	 0.118494
H	-0.9874930826	-0.394086397	 0.0868134467	 0.087425
H	 0.0605585054	-0.3764949065	-2.0923040066	 0.102581
H	 1.6429144281	 0.0404293894	-1.4009023704	 0.081452
H	 1.8635186793	-3.2983564339	 0.0067152266	 0.115464
H	 2.944188695	-1.9967467259	-0.500122773	 0.092498
H	 2.2093896684	-1.8423044351	 2.024491994	 0.108974
H	 0.8121270179	 1.2108139458	 2.5650918838	 0.096429
H	-0.6035701983	 0.1711154357	 2.7351416341	 0.092289
H	 1.0205968484	-0.0333544471	 4.4471668535	 0.288838
77.8886	112.6012	198.519	218.6348	236.6602	250.3801	289.7932	301.2354	346.1871	416.0958	470.9918	515.2672	601.6532	730.2759	752.8522	833.1841	904.9623	919.8474	958.289	1023.6794	1033.3747	1037.1748	1062.6903	1096.6569	1120.963	1134.8394	1171.0122	1191.0853	1234.9945	1247.4658	1265.6441	1305.6354	1315.1069	1331.9532	1372.4851	1380.422	1409.4107	1425.9686	1460.1511	1487.4299	1496.7223	1501.0313	1502.0889	1512.8198	1741.6522	2922.3492	2933.5371	2950.4873	2966.8144	2988.6985	3030.9738	3046.6656	3074.9264	3095.7497	3108.296	3192.6919	3842.9297
CC1COCC=C1CO	C[C@H]1COCC=C1CO	
InChI=1S/C7H12O2/c1-6-5-9-3-2-7(6)4-8/h2,6,8H,3-5H2,1H3	InChI=1S/C7H12O2/c1-6-5-9-3-2-7(6)4-8/h2,6,8H,3-5H2,1H3/t6-/m0/s1
