18
gdb 73096	2.93909	1.45833	1.21857	3.7811	71.81	-0.2422	0.0308	0.2731	1063.6552	0.148368	-439.122725	-439.114727	-439.113783	-439.155396	30.789	
C	 0.2412080392	 1.4124379573	-0.2570662342	-0.455672
C	-0.0768450017	-0.0352771948	 0.0576554651	 0.426643
C	-1.5601920015	-0.3823880787	 0.1788627334	-0.393157
C	-1.6620375666	-1.3622282704	 1.3544203517	 0.404734
O	-2.6442721059	-1.960076551	 1.7275874845	-0.369238
N	-0.4192570396	-1.4233976383	 1.9419731396	-0.305889
C	 0.6335138338	-0.7038688592	 1.2771689071	-0.098147
C	 1.4296251255	-1.4824335366	 0.2086713839	-0.091856
O	 0.6126833898	-0.9435369652	-0.850094622	-0.32127
H	 1.3221395811	 1.579760641	-0.2776737832	 0.122086
H	-0.1624117031	 1.6804294056	-1.2386632534	 0.13507
H	-0.2014993415	 2.0796597935	 0.4897894326	 0.121923
H	-2.1916575358	 0.4874345373	 0.385547783	 0.126968
H	-1.9274325228	-0.85580048	-0.7344552666	 0.147861
H	-0.2645153872	-2.0513069624	 2.7155637597	 0.251636
H	 1.2075183233	-0.0693699483	 1.9572107897	 0.089825
H	 2.480456663	-1.1802885749	 0.1101227893	 0.101346
H	 1.3659050301	-2.5743574248	 0.2704043298	 0.107137
73.1852	115.785	221.9425	260.2279	326.9303	383.6132	396.4859	472.9113	496.2322	572.7025	597.2301	667.8974	705.3793	833.9686	868.6957	886.6335	903.8887	943.5312	959.4229	1018.6964	1065.2199	1097.1598	1112.6093	1145.7969	1168.5281	1207.5909	1225.0599	1231.7026	1284.8476	1321.3599	1346.9908	1376.1557	1408.759	1429.3914	1447.6311	1484.1402	1489.2466	1513.7103	1835.0509	3012.1424	3035.2087	3064.3794	3066.7875	3076.3148	3108.8277	3112.209	3120.6889	3633.3582
CC12CC(=O)NC1CO2	C[C@]12CC(=O)N[C@H]1CO2	
InChI=1S/C6H9NO2/c1-6-2-5(8)7-4(6)3-9-6/h4H,2-3H2,1H3,(H,7,8)	InChI=1S/C6H9NO2/c1-6-2-5(8)7-4(6)3-9-6/h4H,2-3H2,1H3,(H,7,8)/t4-,6-/m0/s1
