16
gdb 33349	6.19505	0.67903	0.63764	5.5182	89.53	-0.2612	-0.0357	0.2255	1674.108	0.125484	-363.616043	-363.607875	-363.606931	-363.649779	29.709	
N	-0.3706856613	-3.7945407383	-0.6350190982	-0.340625
C	-0.2508384345	-2.6563203665	-0.4335304706	 0.201129
C	-0.1099301164	-1.3198917749	-0.1967123568	 0.031669
C	 0.0149985325	-0.1354050129	 0.0131910446	 0.110367
C	 0.1705700255	 1.2816500955	 0.2732954502	-0.190125
C	-0.3994950538	 1.7488826388	 1.6529060094	-0.261907
C	 0.5370915383	 2.8704109016	 2.0302219498	-0.062143
C	 1.6373306395	 2.8870802598	 1.2814905847	-0.062141
C	 1.6531087188	 1.7799765288	 0.2560797489	-0.261906
H	-0.3692662815	 1.8306506394	-0.5077544182	 0.127593
H	-1.4466851328	 2.0556747108	 1.5698109248	 0.121746
H	-0.366116419	 0.9387212796	 2.3927270692	 0.128032
H	 0.3268869281	 3.5434804192	 2.8534699563	 0.104267
H	 2.4661849898	 3.5758872663	 1.3976405784	 0.104267
H	 2.3457558853	 0.9798116575	 0.5472652899	 0.128031
H	 1.9535304312	 2.1071942854	-0.7440754022	 0.121745
58.8207	75.1592	136.3351	221.0547	269.5479	391.3789	420.7291	503.03	536.5433	582.6096	588.8678	716.4864	773.3849	776.8747	880.3618	921.1692	953.3625	974.3295	977.4721	1033.1752	1053.896	1131.0307	1145.5303	1184.4168	1195.8425	1292.1567	1294.741	1301.5157	1356.4674	1360.3191	1485.4797	1492.3573	1689.7127	2261.8657	2396.702	3025.2626	3028.3958	3034.4359	3076.2957	3080.3509	3189.7085	3214.0623
N#CC#CC1CC=CC1	N#CC#C[C@H]1CC=CC1	
InChI=1S/C8H7N/c9-7-3-6-8-4-1-2-5-8/h1-2,8H,4-5H2	InChI=1S/C8H7N/c9-7-3-6-8-4-1-2-5-8/h1-2,8H,4-5H2
