15
gdb 21307	7.49361	1.11363	0.98154	5.6789	63.71	-0.2505	0.0011	0.2516	1141.3137	0.119628	-395.961333	-395.953606	-395.952662	-395.995437	26.255	
C	-0.0029607077	 1.4156088063	 0.0270893268	-0.227955
O	 0.002087786	 0.0060513133	-0.0021506905	-0.222945
C	 0.6621590759	-0.5586712374	 1.1012054233	-0.171703
C	 0.6046804878	-2.04480264	 0.9628414665	 0.323748
C	 0.0572477951	-2.8666385515	 0.0066754518	-0.132632
N	 0.2840049899	-4.1652859703	 0.3577502335	-0.184994
N	 0.9409335518	-4.1997316625	 1.4771085425	-0.1155
N	 1.1404975835	-2.9154715736	 1.852757575	-0.25325
H	 1.0185527199	 1.8263158849	 0.0127213896	 0.11076
H	-0.5343103257	 1.754434176	-0.8643959356	 0.138416
H	-0.5188647442	 1.8019834198	 0.9198023155	 0.110754
H	 1.7120458396	-0.2153888065	 1.1476241449	 0.106973
H	 0.1871445629	-0.2401511204	 2.047336303	 0.106874
H	-0.4728501167	-2.595100245	-0.8897705092	 0.134799
H	 1.6389965619	-2.728228603	 2.708190323	 0.276654
15.6446	79.1125	140.9799	226.2574	256.5629	353.5951	405.6709	554.7479	667.652	727.1145	752.5647	857.0406	988.8744	1003.2453	1048.8243	1057.5379	1068.4036	1127.997	1169.6452	1184.233	1212.4129	1234.1871	1253.4098	1335.5375	1357.3163	1421.8912	1452.8803	1483.4389	1485.9789	1500.7743	1524.8822	1615.3215	2930.0533	2944.898	2975.7247	3022.2194	3126.992	3293.2969	3653.7827
COCC1=CN=NN1	COCc1cnn[nH]1	
InChI=1S/C4H7N3O/c1-8-3-4-2-5-7-6-4/h2H,3H2,1H3,(H,5,6,7)	InChI=1S/C4H7N3O/c1-8-3-4-2-5-7-6-4/h2H,3H2,1H3,(H,5,6,7)
