21
gdb 75496	2.19291	1.77468	1.18196	1.7952	84.14	-0.2322	0.0145	0.2467	1136.6032	0.182473	-387.10021	-387.0914	-387.090456	-387.133178	34.341	
C	-0.1797751737	 1.4831733279	 0.0497483456	-0.496087
C	-0.0608719751	-0.0157812204	-0.0164822006	 0.279151
C	-0.0039481035	-0.6852495945	-1.1713296861	-0.148739
C	 0.1621361967	-2.1814825625	-1.2676121985	-0.268562
C	 0.9679908938	-2.7514995842	-0.0859498577	-0.237298
C	 0.539249433	-2.1405588122	 1.2400609213	-0.013525
O	 1.3423718823	-1.0655501448	 1.7501775669	-0.300002
C	 0.003568951	-0.7702736538	 1.2819443731	 0.319927
C	-0.9581424881	-0.3621361724	 2.3761723661	-0.481275
H	 0.6466761602	 1.9167750369	 0.6266295222	 0.134634
H	-0.162362789	 1.9225570511	-0.9510895132	 0.119858
H	-1.107361715	 1.8005184705	 0.5411213159	 0.123948
H	-0.0705618675	-0.1324253106	-2.1063235755	 0.081603
H	-0.8270617967	-2.6608975918	-1.3131529584	 0.110251
H	 0.655989624	-2.4404166928	-2.2104684749	 0.10436
H	 0.8667088054	-3.8409267946	-0.0485036975	 0.095425
H	 2.0308739953	-2.5294670535	-0.2266065079	 0.12021
H	 0.2085097595	-2.8362328494	 2.012179225	 0.081203
H	-0.7740037432	 0.6671303484	 2.6997789194	 0.127775
H	-1.9952859217	-0.4253874731	 2.0288932324	 0.121261
H	-0.8391457679	-1.0145963243	 3.2446598825	 0.125881
90.8383	176.8258	203.8354	225.5214	241.3894	283.6493	299.0031	396.8294	424.1853	485.9845	520.7606	600.3834	650.453	654.8031	765.2739	852.3719	863.238	873.1148	909.8272	957.769	1007.3301	1046.6286	1055.1313	1071.8009	1088.2133	1101.2585	1122.8069	1150.9375	1206.7865	1235.5441	1272.6376	1319.8191	1345.4236	1380.6082	1391.6582	1407.7779	1413.9337	1454.6846	1474.4413	1476.735	1485.4188	1486.3345	1495.1278	1504.1309	1729.2524	2997.7359	3021.091	3036.5576	3043.0359	3061.1618	3070.3726	3085.3933	3100.8443	3101.5768	3111.7287	3122.4189	3144.1791
CC1=CCCC2OC12C	CC1=CCC[C@H]2O[C@@]12C	
InChI=1S/C8H12O/c1-6-4-3-5-7-8(6,2)9-7/h4,7H,3,5H2,1-2H3	InChI=1S/C8H12O/c1-6-4-3-5-7-8(6,2)9-7/h4,7H,3,5H2,1-2H3/t7-,8+/m1/s1
