21
gdb 39432	2.34596	1.9507	1.32566	1.2971	81.8	-0.2351	0.0838	0.319	1035.3394	0.185279	-387.073482	-387.066027	-387.065082	-387.105053	30.84	
C	-0.0346724058	 1.5172985567	-0.0084992291	-0.384553
C	 1.282654583	 0.7698188258	 0.0172777902	-0.081496
C	 2.0874022033	 0.6476739035	 1.3091259314	-0.227308
C	 1.8966550322	-0.7396448537	 1.9299990489	-0.077051
O	 0.5321818321	-0.9970438475	 2.230673777	-0.263805
C	-0.3374724425	-0.9539421787	 1.1212629773	 0.092127
C	-0.3269717128	-2.1006205388	 0.0614273405	-0.25868
C	-0.4514973722	-1.0177038345	-1.0537592909	-0.31505
C	-0.0274695007	 0.0237267821	-0.0154371412	 0.332126
H	-0.3484322229	 2.027322523	 0.8987717728	 0.110528
H	-0.3083160669	 2.0285238186	-0.9263072051	 0.109291
H	 1.8586118535	 0.7834900437	-0.9041986355	 0.082005
H	 3.1518517393	 0.8174676061	 1.1161944259	 0.098258
H	 1.7707291914	 1.4015296663	 2.039136405	 0.105841
H	 2.3036381541	-1.5108516533	 1.256288896	 0.085627
H	 2.4248891129	-0.8216989024	 2.8843535296	 0.104316
H	-1.3385363534	-0.8154508789	 1.5431250943	 0.080379
H	 0.6379498878	-2.6121678521	 0.0279120258	 0.107495
H	-1.1199038499	-2.8471738988	 0.1366909469	 0.098622
H	 0.1868719216	-1.1338577026	-1.9337255465	 0.098505
H	-1.4847954942	-0.8821657944	-1.3888332432	 0.102823
121.9319	174.8429	253.0728	309.4688	396.6823	420.2689	444.9689	487.1307	554.0421	636.0434	721.6577	770.7098	791.5569	849.2084	876.4294	892.3728	918.6039	932.3553	966.8436	976.3464	1008.9839	1054.2236	1067.3671	1100.031	1104.024	1121.3152	1143.9819	1161.4577	1177.3034	1221.472	1237.9649	1250.0575	1270.8935	1275.1651	1292.1051	1327.883	1358.3361	1380.5318	1412.4472	1421.7222	1471.0612	1473.8319	1490.3928	1495.6403	1506.7672	2976.8438	3034.6525	3045.5668	3050.6498	3069.3352	3079.0468	3084.3467	3093.5001	3112.3199	3126.1405	3137.8198	3198.3847
C1C2CCOC3CCC123	C1[C@H]2CCO[C@@H]3CC[C@]123	
InChI=1S/C8H12O/c1-3-8-5-6(8)2-4-9-7(1)8/h6-7H,1-5H2	InChI=1S/C8H12O/c1-3-8-5-6(8)2-4-9-7(1)8/h6-7H,1-5H2/t6-,7-,8+/m1/s1
