18
gdb 116000	2.42716	1.48158	0.95531	6.8335	79.67	-0.2178	-0.0423	0.1755	1191.7645	0.149262	-439.111651	-439.103325	-439.102381	-439.144713	31.261	
O	 0.0312675808	 1.4307939535	-0.4438950755	-0.432331
C	 0.0546694533	 0.0702674587	-0.1125511095	-0.061362
C	-1.3522249388	-0.5358446931	 0.0462878349	-0.131316
C	-1.3389110951	-2.0907034259	 0.0849834525	-0.196314
N	-2.3621321462	-2.4274052693	 1.0898716625	-0.280085
C	-2.6276247413	-1.3329908043	 1.8466860615	-0.065274
C	-2.0881302944	-0.1902324806	 1.3403047953	 0.15975
C	-2.2514769044	 1.0936546679	 1.9494388358	 0.066471
O	-1.7425493115	 2.1469742348	 1.5759353185	-0.336341
H	-0.5162595501	 1.8795368885	 0.2281887587	 0.302706
H	 0.5694149238	-0.4475117075	-0.9329990657	 0.09414
H	 0.6323806973	-0.1336268649	 0.8073553092	 0.072891
H	-1.941089185	-0.1877681127	-0.8122794263	 0.101677
H	-1.5755380263	-2.5440201272	-0.8803037955	 0.125995
H	-0.3550449824	-2.46332865	 0.4071238825	 0.113676
H	-2.4237258505	-3.3562352054	 1.4747039821	 0.257599
H	-3.234661625	-1.4289967892	 2.7396322815	 0.139634
H	-2.8978958142	 1.0928835367	 2.8532898375	 0.068485
80.6046	158.7992	177.6435	232.8319	252.2319	302.454	383.3986	388.2161	477.9293	510.4369	583.6955	686.694	705.6124	750.4912	826.2131	926.3609	939.4777	977.4379	1017.6378	1038.7306	1048.2748	1110.3878	1117.5946	1166.8791	1216.4301	1236.5517	1276.7275	1307.1636	1323.6884	1341.9688	1370.2354	1400.1412	1429.524	1479.6308	1502.8171	1509.422	1519.8698	1641.9453	1720.0067	2894.8089	2936.6783	2994.003	3020.4565	3032.7547	3094.6691	3209.437	3560.0778	3639.3674
OCC1CNC=C1C=O	OC[C@H]1CNC=C1C=O	
InChI=1S/C6H9NO2/c8-3-5-1-7-2-6(5)4-9/h1,3,6-7,9H,2,4H2	InChI=1S/C6H9NO2/c8-3-5-1-7-2-6(5)4-9/h1,3,6-7,9H,2,4H2/t6-/m1/s1
