17
gdb 47940	2.27949	1.74085	1.18535	5.1566	65.29	-0.2582	-0.0026	0.2556	1046.8565	0.137119	-496.105439	-496.097612	-496.096668	-496.138238	29.211	
O	-0.0626191307	 0.0095464287	 0.5785225917	-0.307489
C	-0.0465639865	 1.1186559215	 0.1239438615	 0.403378
C	-1.3470129355	 1.9326842812	-0.047631192	-0.203199
O	-1.9333852201	 1.820534684	-1.3323920061	-0.220504
C	-1.3262020786	 2.5392173582	-2.3676139569	 0.013989
O	-0.0839706646	 2.0006637096	-2.7411974516	-0.228027
C	 1.0778518054	 2.7249129673	-2.3849224956	-0.079148
C	 1.2503593505	 2.9179476743	-0.8789298503	-0.106885
O	 1.153232001	 1.6813073202	-0.1807325137	-0.212425
H	-2.0550482946	 1.473247881	 0.6422570483	 0.147996
H	-1.219157017	 2.9873577615	 0.2354615625	 0.105295
H	-2.004712347	 2.4287504306	-3.2176011547	 0.126639
H	-1.2266359798	 3.6071164447	-2.1057058759	 0.079852
H	 1.9100333991	 2.1337222314	-2.7762817289	 0.135418
H	 1.1018919987	 3.7135291486	-2.8703185982	 0.10197
H	 2.2565093114	 3.2973557858	-0.6785161792	 0.131415
H	 0.5412706184	 3.6521600114	-0.4852928211	 0.111724
60.3865	143.7374	217.0685	252.9589	282.1464	382.3415	414.9346	463.3269	527.3297	562.4096	586.5403	691.285	839.1549	854.3849	913.7877	951.3024	975.1764	1013.7621	1085.3599	1101.7765	1119.7769	1168.1402	1194.6749	1216.0186	1282.1941	1301.1343	1324.8528	1339.4654	1390.7001	1405.8487	1414.4909	1443.9725	1480.0867	1489.6617	1502.6406	1518.0123	1846.4337	2951.1873	2988.8078	2999.7773	3058.1694	3092.6774	3095.7119	3110.0963	3134.4177
O=C1COCOCCO1	O=C1COCOCCO1	
InChI=1S/C5H8O4/c6-5-3-8-4-7-1-2-9-5/h1-4H2	InChI=1S/C5H8O4/c6-5-3-8-4-7-1-2-9-5/h1-4H2
