19
gdb 39433	2.41915	1.99198	1.33866	1.1365	74.45	-0.2265	0.0714	0.2979	990.1398	0.161181	-422.990673	-422.983448	-422.982504	-423.022084	29.349	
C	-0.0646388199	 1.4803175984	-0.0548850882	-0.388394
C	 1.2825487418	 0.7631184932	 0.0281839795	-0.112949
C	 2.0735952591	 0.6535797254	 1.3279790815	-0.233225
C	 1.9578940166	-0.7730057864	 1.8762721665	-0.074442
O	 0.6099147849	-1.1100507937	 2.1979721504	-0.26435
C	-0.3201175092	-0.969005308	 1.1554021459	 0.012953
C	-0.4004530573	-2.0009038911	-0.0043810758	-0.12634
O	-0.3966885643	-0.9256025669	-0.980653057	-0.313799
C	-0.0088070164	 0.0018389834	 0.028144176	 0.431416
H	-0.425765602	 2.0390549732	 0.8047095159	 0.115406
H	-0.3203627488	 1.9124976263	-1.016558787	 0.126664
H	 1.852369134	 0.7429885899	-0.8956567033	 0.098139
H	 3.127927606	 0.8996659814	 1.1656564175	 0.104868
H	 1.6934994595	 1.3519399602	 2.0826135864	 0.108214
H	 2.3774250037	-1.4862115001	 1.1491399315	 0.093053
H	 2.5086504473	-0.8878714924	 2.8139922542	 0.10914
H	-1.291685996	-0.8119005226	 1.6317649213	 0.097949
H	 0.4873562065	-2.6395325287	-0.0921125483	 0.105319
H	-1.3058909356	-2.6101593717	-0.0740022769	 0.110376
132.1792	180.1333	249.6905	346.3842	396.249	414.1258	451.2127	483.2045	570.6941	653.4876	749.3092	793.0906	860.191	874.9029	881.4123	934.7029	961.0841	977.8176	997.2083	1009.1137	1049.1353	1064.7188	1091.9088	1107.3496	1138.8424	1149.5904	1177.0606	1200.7615	1245.2746	1251.3995	1286.8378	1312.0453	1336.4503	1357.1287	1387.1383	1406.9772	1424.9881	1470.4614	1485.5113	1502.5251	1521.9803	2982.564	3025.1886	3036.8138	3069.3204	3083.3887	3089.3236	3095.5617	3116.4352	3157.7367	3209.563
C1C2CCOC3COC123	C1[C@H]2CCO[C@@H]3CO[C@]123	
InChI=1S/C7H10O2/c1-2-8-6-4-9-7(6)3-5(1)7/h5-6H,1-4H2	InChI=1S/C7H10O2/c1-2-8-6-4-9-7(6)3-5(1)7/h5-6H,1-4H2/t5-,6-,7-/m1/s1
