20
gdb 60965	3.29617	0.92483	0.79264	1.9336	76.79	-0.2362	-0.0279	0.2083	1454.7528	0.168532	-440.260285	-440.250539	-440.249595	-440.29569	35.132	
C	 0.8377978432	-0.3970764941	-1.1897191069	-0.411147
C	 0.028586456	-0.007992525	 0.057479405	-0.03572
C	-0.0911495306	 1.5110935569	 0.0823551003	 0.163234
O	 0.5975072663	 2.2428982334	 0.7428095469	-0.246172
N	-1.3016483947	-0.5811135689	 0.0062869817	-0.100317
C	-2.1684019537	-0.4861872633	 1.2057114102	-0.213653
C	-2.7490550013	-1.8760974244	 0.8391374502	 0.144829
O	-3.9536066809	-1.8525222872	 0.1144407617	-0.434491
C	-1.4666501189	-2.0538765582	-0.0170957746	-0.207916
H	 1.8420536997	 0.0312524944	-1.1399503505	 0.137164
H	 0.9323529046	-1.4846129649	-1.2584381174	 0.130677
H	 0.3435471111	-0.0403213177	-2.0989250257	 0.128737
H	 0.5856389792	-0.3119416937	 0.9629226349	 0.073287
H	-0.8763337425	 1.9003790861	-0.6065135798	 0.079967
H	-1.6044552298	-0.5024213669	 2.1522013386	 0.097554
H	-2.8683244003	 0.3560700402	 1.2166850407	 0.108827
H	-2.8955650615	-2.5809654235	 1.6575919051	 0.097324
H	-3.8426690219	-1.2288039208	-0.6125226751	 0.288145
H	-1.594038945	-2.5006557881	-1.0084530778	 0.107324
H	-0.674741679	-2.5929975347	 0.5276050925	 0.092348
58.2613	70.4856	89.2085	162.5349	224.3481	242.8586	290.6205	369.7363	381.1119	406.6471	441.5406	451.5381	487.8852	743.6435	846.5225	859.9667	891.6336	922.0186	937.0619	995.8169	1017.9446	1045.0021	1063.8082	1123.7317	1133.9411	1144.9726	1152.7654	1180.1536	1236.359	1247.2028	1276.0453	1307.6075	1318.796	1325.3518	1354.007	1395.2389	1409.0172	1441.4853	1489.8927	1491.8735	1498.3251	1517.4362	1839.5972	2869.4755	2935.3592	2971.6258	2981.249	3041.8333	3067.1134	3069.6552	3113.7514	3118.4605	3127.3747	3797.0675
CC(C=O)N1CC(O)C1	C[C@@H](C=O)N1C[C@@H](O)C1	
InChI=1S/C6H11NO2/c1-5(4-8)7-2-6(9)3-7/h4-6,9H,2-3H2,1H3	InChI=1S/C6H11NO2/c1-5(4-8)7-2-6(9)3-7/h4-6,9H,2-3H2,1H3/t5-/m0/s1
