17
gdb 109530	1.98258	1.40803	1.12874	1.3302	80.65	-0.2471	0.0201	0.2672	1168.8744	0.133133	-384.601768	-384.592289	-384.591345	-384.636084	35.237	
O	 0.0786830888	 1.2698847968	-0.5035184166	-0.423049
C	 0.0160572787	 0.0557118779	 0.2250977899	-0.093926
C	-1.3614479488	-0.5709651424	 0.1564546686	-0.0645
C	-1.8085802571	-1.2499793704	-1.1260958972	-0.222853
C	-0.9282027573	-1.3113933579	-2.2544900283	 0.336441
C	-0.198316549	-1.325158017	-3.2114955263	-0.462273
C	-1.5434163769	-2.0770407189	 0.1477361063	-0.242218
C	-0.4324625652	-2.9779231373	 0.2303367657	 0.350889
C	 0.4793384337	-3.7575314977	 0.3143720151	-0.455263
H	 0.0067671845	 1.0366385997	-1.4364929856	 0.288742
H	 0.7706141524	-0.6633153763	-0.1169801055	 0.113875
H	 0.2515572733	 0.3079946141	 1.2640582972	 0.113726
H	-2.1389064367	-0.0107224692	 0.6670169015	 0.107257
H	-2.8594641543	-1.1472838742	-1.37976875	 0.124755
H	 0.4428736859	-1.3683065675	-4.0570044144	 0.203931
H	-2.4477628397	-2.4408150826	 0.6273452281	 0.124734
H	 1.2883337777	-4.4417699771	 0.3827997016	 0.199732
79.896	95.0729	111.4556	164.4438	227.9478	256.9493	341.1154	400.7215	419.6205	431.3713	591.6259	600.7339	614.4169	619.6943	647.9647	657.2206	660.7829	761.3589	789.5633	851.9114	937.422	981.1804	1016.5203	1071.4598	1094.998	1124.6736	1129.0185	1219.8554	1246.3241	1351.4082	1363.4879	1390.2445	1418.5822	1432.0404	1499.66	2231.6155	2238.3728	3030.9718	3082.2199	3143.0911	3148.8565	3163.5597	3502.2492	3504.6312	3792.1997
OCC1C(C#C)C1C#C	OC[C@H]1[C@@H](C#C)[C@H]1C#C	
InChI=1S/C8H8O/c1-3-6-7(4-2)8(6)5-9/h1-2,6-9H,5H2	InChI=1S/C8H8O/c1-3-6-7(4-2)8(6)5-9/h1-2,6-9H,5H2/t6-,7+,8-
