19
gdb 86215	2.57	1.31525	1.01752	3.132	72.89	-0.2554	-0.0051	0.2504	1193.693	0.159739	-460.166072	-460.157349	-460.156405	-460.199131	34.102	
O	-0.1000121875	 1.4453979424	-0.0173311648	-0.434302
C	 0.0110147165	 0.0240659726	-0.0296069243	 0.075381
C	-1.4009628679	-0.5482420837	 0.0798362815	-0.23923
C	-1.4048920703	-2.0549435217	-0.2057915137	 0.112918
O	-2.6814834725	-2.6282464665	-0.018084789	-0.446216
C	-0.9033116718	-2.3410365023	-1.6346881903	 0.056474
O	-1.9699900913	-2.1193184315	-2.5775193552	-0.446989
C	 0.3089951755	-1.5251137441	-1.988823162	-0.110944
C	 0.7020376253	-0.465282376	-1.2812080711	-0.074903
H	 0.7861158725	 1.8176951463	 0.0377235583	 0.281717
H	 0.5981978125	-0.3095555209	 0.8445576468	 0.080298
H	-1.8195108257	-0.3545393901	 1.0702863505	 0.113326
H	-2.0386032617	-0.0281193175	-0.6463143663	 0.09415
H	-0.7265397616	-2.5529246215	 0.50012698	 0.083089
H	-3.130159321	-2.5280992727	-0.8698183497	 0.282622
H	-0.6895150623	-3.4117324408	-1.7239433229	 0.096265
H	-1.9816050525	-1.1773022218	-2.7816573851	 0.286924
H	 0.8481586259	-1.8200884196	-2.8855338463	 0.100757
H	 1.579766878	 0.0994325895	-1.5930284963	 0.088666
81.7462	167.8689	225.1968	256.4353	287.203	308.9667	356.051	380.8952	430.326	442.5666	496.2458	530.7104	603.4729	647.3197	715.9784	775.1981	837.4395	911.3185	977.3626	1002.6783	1010.4498	1046.0731	1063.0928	1069.5782	1123.3245	1125.3936	1143.8244	1210.5018	1234.195	1259.4595	1285.0195	1311.4824	1339.6748	1355.4795	1395.8625	1401.5152	1418.2423	1429.413	1448.8531	1497.5909	1709.8358	2936.6768	3017.5767	3038.4125	3054.3011	3105.0661	3132.8673	3165.4666	3736.2508	3803.6945	3813.3547
OC1CC(O)C(O)C=C1	O[C@H]1C[C@@H](O)[C@@H](O)C=C1	
InChI=1S/C6H10O3/c7-4-1-2-5(8)6(9)3-4/h1-2,4-9H,3H2	InChI=1S/C6H10O3/c7-4-1-2-5(8)6(9)3-4/h1-2,4-9H,3H2/t4-,5+,6-/m1/s1
