18
gdb 41037	3.32689	1.81236	1.5086	1.6765	76.51	-0.2185	0.0506	0.2691	908.2933	0.148781	-401.767372	-401.760822	-401.759877	-401.797868	27.684	
C	-0.0466973799	 1.4915011151	 0.1628165825	-0.188084
O	 1.300906176	 1.5942431945	-0.3612180527	-0.276177
C	 1.4881099064	 0.1806253643	-0.474894891	 0.012778
C	 1.0117789969	-0.3438796194	-1.9030348672	-0.362275
C	-0.2871782147	-0.8004826117	-1.1812533443	 0.211375
C	-1.7865010308	-0.7610828142	-0.7318483635	-0.264914
N	-1.029255412	-1.0563629387	 0.6160136858	-0.235487
C	-0.2042327351	-2.0272303699	-0.2423341044	-0.190036
C	-0.0078124722	-0.02312597	 0.0667256457	 0.322208
H	-0.090654844	 1.8753282218	 1.1899467566	 0.117401
H	-0.7809399122	 2.0302663123	-0.4514458995	 0.103623
H	 2.4491391442	-0.1519469844	-0.0757799848	 0.089836
H	 0.9236669268	 0.4999193801	-2.5898512712	 0.124329
H	 1.5916555195	-1.1435805404	-2.3705928113	 0.107173
H	-2.2968161378	 0.2038361959	-0.7435543297	 0.113542
H	-2.4603385307	-1.5753901164	-1.0143898377	 0.109
H	-0.7521646043	-2.9273492734	-0.5337372274	 0.099318
H	 0.764592504	-2.2758242355	 0.2000678842	 0.106391
182.8862	252.2789	301.4321	383.2942	450.4788	476.5594	551.9983	595.7854	693.7582	721.5698	790.9699	814.3752	866.4634	867.3813	902.4367	944.8298	952.2929	988.4152	999.483	1021.0826	1061.8509	1081.9507	1093.8191	1116.1406	1145.3274	1151.3096	1160.7628	1187.6101	1191.6294	1203.3999	1233.1021	1248.7592	1287.5955	1310.7179	1355.4584	1465.3904	1504.9289	1517.7351	1541.8481	3003.9639	3047.1681	3048.9529	3055.971	3065.9704	3085.9509	3115.5825	3132.5589	3134.1972
C1OC2CC34CN(C3)C124	C1O[C@@H]2C[C@@]34CN(C3)[C@@]124	
InChI=1S/C7H9NO/c1-5-7(4-9-5)6(1)2-8(7)3-6/h5H,1-4H2	InChI=1S/C7H9NO/c1-5-7(4-9-5)6(1)2-8(7)3-6/h5H,1-4H2/t5-,7+/m1/s1
