18
gdb 84917	2.6387	1.70526	1.20135	2.8021	73.22	-0.2437	0.0208	0.2645	1053.2278	0.148289	-439.06427	-439.05622	-439.055276	-439.097396	30.224	
C	 0.3088878879	 1.5719925234	-0.0367703373	-0.379093
C	-0.0971441579	 0.0890136538	 0.037008508	-0.002639
N	 0.1906600044	-0.4981847437	-1.2585531905	-0.270706
C	 0.5687958961	-1.6573324113	-1.562758668	 0.142624
O	 0.7818852938	-2.807305596	-0.8726068985	-0.213635
C	 0.2679831124	-3.006911212	 0.4369264832	-0.13372
C	 0.6920158309	-1.9841116307	 1.4684277688	 0.023812
O	 1.8143328133	-1.1586039953	 1.1674087474	-0.242626
C	 0.5209249759	-0.5454602913	 1.2736986594	 0.058309
H	 1.3931305191	 1.6580181358	-0.1560605636	 0.132436
H	-0.1685151642	 2.0443337188	-0.8974508205	 0.126385
H	 0.014410553	 2.1077173213	 0.871412878	 0.104852
H	-1.188521854	 0.0552043356	 0.1836282991	 0.095895
H	 0.8049090889	-1.8678727789	-2.6069904499	 0.12221
H	-0.8300825195	-3.0586020687	 0.4050775165	 0.117495
H	 0.6380899121	-3.9952882008	 0.7228243952	 0.129774
H	 0.6658188648	-2.3698490069	 2.4900355667	 0.095746
H	 0.4040938829	 0.0667587469	 2.1708409859	 0.092879
40.5363	150.9434	210.7724	252.9445	277.7614	303.9406	364.6255	459.1277	496.0912	638.2959	680.4273	741.9613	790.6937	820.2197	873.1419	922.7909	966.8797	968.8527	1005.1882	1019.6179	1046.9304	1100.6102	1132.2191	1139.9103	1159.8555	1203.7109	1267.1075	1307.7264	1317.3699	1355.1996	1386.3347	1404.3009	1413.7748	1446.3666	1487.021	1494.2394	1498.8917	1504.7758	1780.7451	2978.2047	3006.4438	3040.9056	3076.2503	3086.0376	3096.4509	3113.3721	3127.0171	3134.9301
CC1N=COCC2OC12	C[C@H]1N=COC[C@H]2O[C@@H]12	
InChI=1S/C6H9NO2/c1-4-6-5(9-6)2-8-3-7-4/h3-6H,2H2,1H3	InChI=1S/C6H9NO2/c1-4-6-5(9-6)2-8-3-7-4/h3-6H,2H2,1H3/t4-,5-,6+/m1/s1
