15
gdb 19315	7.25524	0.80555	0.80215	2.0042	73.48	-0.2445	0.0147	0.2593	1420.4514	0.118517	-362.570889	-362.563017	-362.562073	-362.605037	27.369	
C	-0.2797616336	 1.3142809911	-0.3221757867	-0.219419
N	 0.9810299041	 1.2617592563	 0.4197107074	-0.294569
C	 0.2602217963	-0.0040912414	 0.1312504361	-0.228394
C	-0.3079122986	-0.7141973382	 1.2419083656	 0.164123
C	-0.800588978	-1.3223461431	 2.1585553262	 0.104928
C	-1.3668748954	-2.065336659	 3.2495671874	-0.118885
C	-1.8657045679	-1.3971271689	 4.4683155276	-0.158885
O	-2.7751091921	-1.9124177485	 3.5057528966	-0.215988
H	-1.1096112806	 1.7544290935	 0.2212662879	 0.135077
H	-0.2653131298	 1.520207051	-1.38930587	 0.119379
H	 1.7671185628	 1.3456002168	-0.2203081943	 0.237554
H	 0.6739291935	-0.6387967409	-0.6496375249	 0.112649
H	-1.016376975	-3.0922747191	 3.3479688525	 0.116571
H	-1.8264085907	-1.9300261363	 5.4177264645	 0.1189
H	-1.8103496651	-0.3121497933	 4.5312392641	 0.126959
23.4441	82.4807	103.2224	228.1412	233.0948	394.6698	490.8951	550.6289	574.4241	697.0016	824.1019	833.597	851.9584	902.6717	923.0855	968.9152	998.2093	1077.2147	1098.4013	1123.2532	1142.1969	1157.1353	1168.7299	1215.6761	1241.2413	1283.2962	1289.6919	1402.2863	1430.2599	1507.5038	1519.4361	2362.4166	3084.4705	3113.1586	3113.5236	3125.7355	3178.6324	3206.8421	3501.2106
C1NC1C#CC1CO1	C1N[C@H]1C#C[C@H]1CO1	
InChI=1S/C6H7NO/c1(5-3-7-5)2-6-4-8-6/h5-7H,3-4H2	InChI=1S/C6H7NO/c1(5-3-7-5)2-6-4-8-6/h5-7H,3-4H2/t5-,6-/m0/s1
