18
gdb 87610	2.68237	1.50172	1.12133	2.2189	79.67	-0.2399	-0.0267	0.2132	1123.2822	0.14779	-401.963116	-401.954878	-401.953934	-401.995907	31.385	
C	-0.0993475053	 1.5191732822	-0.0852616951	-0.398816
C	-0.014497702	 0.0207491524	 0.0604474247	-0.037443
N	 1.2741772436	-0.6109208684	-0.1926923949	-0.378663
C	 0.7411466545	-0.6369182883	 1.1855161699	 0.217126
C	 1.4089224896	 0.0186923556	 2.3347908759	-0.146083
C	 1.2235464788	-0.6769014969	 3.461233739	-0.099589
C	 0.4178921178	-1.9341105716	 3.2407299239	-0.38545
C	 0.197133279	-1.9362057827	 1.723675343	 0.334465
O	-0.2819189953	-2.8187336183	 1.0528446417	-0.333885
H	 0.8377363284	 1.9963112554	 0.2110314247	 0.128628
H	-0.2954108022	 1.7863955243	-1.1291536661	 0.128246
H	-0.9111798505	 1.9266880382	 0.5259077591	 0.122401
H	-0.8968070092	-0.5351081775	-0.2555551237	 0.104382
H	 1.1252818031	-1.5396383147	-0.5901071265	 0.244318
H	 1.9639342492	 0.9435069816	 2.2461126619	 0.112077
H	 1.6009569783	-0.3924419518	 4.4360635706	 0.106385
H	 0.9265181991	-2.8524725447	 3.5574638884	 0.140835
H	-0.5509482468	-1.9266025249	 3.7578254836	 0.141068
94.3036	151.0403	169.6436	189.7396	256.5493	321.1727	418.6946	481.8746	505.5888	567.0305	622.3702	668.7217	726.5164	789.9513	797.4613	876.5058	952.1468	960.8087	969.0081	978.0633	1008.4731	1050.87	1088.5509	1116.3821	1134.9753	1151.3055	1155.7153	1255.427	1269.2592	1277.9503	1326.889	1396.9971	1412.7229	1440.6275	1457.5857	1486.4251	1497.6145	1662.9397	1830.4925	3028.5443	3038.4944	3062.9063	3101.1894	3112.344	3131.4879	3199.3526	3224.9986	3454.5438
CC1NC11C=CCC1=O	C[C@H]1N[C@]21C=CCC2=O	
InChI=1S/C7H9NO/c1-5-7(8-5)4-2-3-6(7)9/h2,4-5,8H,3H2,1H3	InChI=1S/C7H9NO/c1-5-7(8-5)4-2-3-6(7)9/h2,4-5,8H,3H2,1H3/t5-,7+/m1/s1
