16
gdb 124190	4.42211	0.78677	0.74562	2.4457	78.16	-0.2402	0.0086	0.2488	1551.8754	0.125274	-396.933418	-396.924533	-396.923589	-396.970961	30.213	
C	 0.0339779434	 1.5005964178	-0.0595681207	-0.495477
C	 0.0063536835	 0.0459085505	-0.0077101987	 0.041619
C	-0.0175659551	-1.1563527383	 0.0308074397	 0.090123
C	-0.0492631277	-2.6170684517	 0.0816597722	-0.437462
C	-1.441114228	-3.1831774535	 0.0266247918	 0.354901
N	-1.9874243382	-3.8023652681	 1.0621637166	-0.260276
N	-3.2084198118	-4.14056384	 0.5804449076	-0.178307
C	-3.3384411601	-3.7220183219	-0.6936704605	 0.01769
N	-2.237840574	-3.1116014907	-1.0814804236	-0.290095
H	 1.0578505659	 1.8825510259	 0.0209578804	 0.14537
H	-0.384562995	 1.8729229471	-1.0011843106	 0.147807
H	-0.5476054484	 1.9404226786	 0.758291347	 0.145467
H	 0.5275961665	-3.0267033705	-0.7571362928	 0.14409
H	 0.4232979747	-2.9757758082	 1.0022303315	 0.146541
H	-3.859782824	-4.6367208941	 1.1658359257	 0.282214
H	-4.2287101717	-3.8834037128	-1.2830175355	 0.145797
5.0485	35.1594	70.1714	196.2493	219.4714	314.8227	337.4509	375.8167	449.8494	536.3855	681.0763	689.8162	767.7065	825.5141	858.3095	929.494	996.5531	1005.2175	1053.6756	1054.1456	1102.312	1159.5096	1166.217	1214.9979	1293.6472	1336.1702	1360.7607	1415.1538	1456.8711	1470.0056	1478.8291	1479.8469	1484.3509	1559.8522	2379.7836	3025.833	3028.9967	3077.2929	3085.5237	3086.6404	3257.0169	3667.3935
CC#CCC1=NNC=N1	CC#CCc1n[nH]cn1	
InChI=1S/C6H7N3/c1-2-3-4-6-7-5-8-9-6/h5H,4H2,1H3,(H,7,8,9)	InChI=1S/C6H7N3/c1-2-3-4-6-7-5-8-9-6/h5H,4H2,1H3,(H,7,8,9)
