19
gdb 38745	2.49227	2.27415	1.81653	1.3435	77.5	-0.2361	0.0146	0.2507	863.146	0.163976	-385.897312	-385.891198	-385.890253	-385.927331	26.848	
C	-0.0445915076	 1.5558235973	-0.0214346101	-0.235221
C	 1.5050491025	 1.5536549218	 0.0172791468	-0.04758
C	 2.1606331976	 1.4901723571	 1.418800197	-0.234379
C	 2.1526948501	-0.0299762832	 1.7498649545	 0.023049
O	 2.3724231525	-0.6435083607	 0.4656740149	-0.250627
C	 1.491042167	 0.0469489911	-0.3792158449	 0.116348
C	-0.0390977723	-0.0114912721	 0.0236825002	-0.115051
C	-0.2086299662	-0.5484416441	 1.4154772036	-0.054689
C	 0.8163644624	-0.5124855515	 2.2683074688	-0.07123
H	-0.5662724002	 2.0605786149	 0.7953084912	 0.097424
H	-0.4254432826	 1.9370388539	-0.9732940376	 0.097482
H	 2.0144347863	 2.2601697219	-0.6398286774	 0.068249
H	 3.1943844675	 1.8431101572	 1.3605371681	 0.103198
H	 1.6367701531	 2.0838912019	 2.1716908138	 0.102472
H	 2.9760770227	-0.329442585	 2.4012953535	 0.076973
H	 1.6995970334	-0.2254744717	-1.4140918395	 0.077812
H	-0.7094925377	-0.5027439038	-0.6858531135	 0.066636
H	-1.1806767958	-0.9354119511	 1.7086870539	 0.090238
H	 0.7320973573	-0.8535670837	 3.2950407869	 0.088896
223.8834	284.438	388.3266	445.4085	512.6003	531.9011	646.2708	670.5225	719.0184	762.9824	815.9438	826.0085	831.1187	875.4167	904.207	923.4059	949.4532	967.8543	979.5927	991.6672	1026.292	1065.8044	1071.4548	1098.0907	1133.4284	1149.8315	1180.318	1198.5285	1227.0484	1234.1408	1269.9773	1277.1246	1296.7819	1326.9587	1341.0463	1343.8982	1382.0557	1405.0821	1477.8882	1487.8737	1696.8028	3051.47	3055.1941	3070.5014	3088.9435	3094.2598	3107.2239	3111.0817	3116.1372	3156.6539	3185.3048
C1C2CC3OC2C1C=C3	C1[C@H]2C[C@@H]3O[C@H]2[C@H]1C=C3	
InChI=1S/C8H10O/c1-2-7-4-6-3-5(1)8(6)9-7/h1-2,5-8H,3-4H2	InChI=1S/C8H10O/c1-2-7-4-6-3-5(1)8(6)9-7/h1-2,5-8H,3-4H2/t5-,6-,7+,8-/m0/s1
