12
gdb 129263	5.27367	1.09367	0.90582	2.4139	68.4	-0.2792	-0.1215	0.1578	1164.478	0.076627	-468.772326	-468.764938	-468.763994	-468.805004	26.163	
N	-0.065010378	 1.2021913964	 0.5428230866	-0.50348
C	-0.0403901726	 0.0549241125	 0.0129468629	 0.400014
O	 1.1314515907	-0.5204890146	-0.4553764582	-0.264017
N	 1.1419783433	-1.7763225309	-1.0356776575	-0.073403
C	 0.0083344441	-2.3845083138	-1.1176680213	 0.279766
C	-0.0047442941	-3.7536174769	-1.7457304643	 0.127459
O	 0.9604597056	-4.3219813106	-2.1761943643	-0.223622
N	-1.2377725008	-1.9234838018	-0.686558502	-0.262351
C	-1.2432466727	-0.7599955921	-0.1505015377	-0.006985
H	 0.86417734	 1.6256726071	 0.5742616647	 0.246673
H	-1.0263371889	-4.1846242259	-1.765390078	 0.11182
H	-2.1740331165	-0.3287305693	 0.2115561892	 0.168125
53.7894	115.9362	198.6604	278.6258	335.139	389.3806	452.8764	512.9723	568.5471	658.7586	748.9144	799.1016	809.2449	885.5407	935.0042	985.5212	1038.8729	1041.2556	1087.5534	1243.5447	1315.0732	1359.2233	1407.03	1578.2402	1668.0857	1740.3437	1836.4885	2939.2002	3170.1183	3482.2388
N=C1ON=C(C=O)N=C1	[NH]C1=C[N]C(=NO1)C=O	
InChI=1S/C4H3N3O2/c5-3-1-6-4(2-8)7-9-3/h1-2,5H	InChI=1S/C4H3N3O2/c5-3-1-6-4(2-8)7-9-3/h1-2,5H
