19
gdb 99053	4.07028	0.76312	0.72587	3.3958	79.	-0.2436	-0.0152	0.2284	1615.9731	0.154803	-423.009669	-422.99888	-422.997935	-423.046782	37.8	
C	-0.1521115341	 1.4963231364	-0.4255940559	-0.379012
C	-0.3787318449	-0.0118192435	-0.4413273644	-0.284797
C	-1.4853245885	-0.4776389364	 0.4842032765	 0.395059
O	-2.141356229	 0.2820260947	 1.1595874509	-0.314731
C	-1.783967514	-1.9785572321	 0.5050302077	-0.29886
C	-3.1521403115	-2.2365836274	-0.167219999	-0.041599
O	-3.1446819714	-1.7991549717	-1.5261652609	-0.425829
C	-3.5489569235	-3.6395009038	-0.053313436	 0.28868
C	-3.8354320461	-4.8056175991	 0.0058415441	-0.434686
H	 0.6461561634	 1.7764908487	-1.1184303168	 0.109242
H	-1.063109811	 2.0275215556	-0.7120882846	 0.135842
H	 0.1221739076	 1.8396825205	 0.575424959	 0.129664
H	-0.651647751	-0.3717675117	-1.4437515417	 0.129359
H	 0.5363079208	-0.56203027	-0.1789271911	 0.117782
H	-1.0106145369	-2.5601416647	-0.0065450772	 0.101548
H	-1.8340461138	-2.3055072562	 1.5481329455	 0.136728
H	-3.8882355563	-1.6006616198	 0.3373802164	 0.143807
H	-2.7653838369	-2.5079857192	-2.0573530694	 0.288069
H	-4.1115228328	-5.8295714602	 0.067241917	 0.203734
30.1253	59.2691	82.3259	127.9502	175.6569	200.8965	232.6146	250.1265	285.2934	360.6606	404.3122	478.5491	554.0154	571.9819	635.228	644.2178	678.3829	760.5512	807.9238	868.2953	950.7076	996.4327	1005.2627	1041.8321	1078.5434	1104.6688	1129.9316	1205.1035	1263.7334	1282.3085	1292.3769	1348.2127	1373.8329	1413.4109	1422.3375	1449.0181	1468.3963	1492.9661	1497.8024	1807.845	2233.54	3012.5616	3041.0853	3049.9545	3051.4246	3059.5499	3108.2812	3121.6045	3128.0151	3502.0714	3809.3106
CCC(=O)CC(O)C#C	CCC(=O)C[C@@H](O)C#C	
InChI=1S/C7H10O2/c1-3-6(8)5-7(9)4-2/h1,6,8H,4-5H2,2H3	InChI=1S/C7H10O2/c1-3-6(8)5-7(9)4-2/h1,6,8H,4-5H2,2H3/t6-/m0/s1
