13
gdb 53725	3.19227	0.73388	0.6728	2.393	72.77	-0.2747	-0.1215	0.1532	1636.7477	0.08444	-456.558255	-456.548544	-456.547599	-456.595114	31.261	
C	 0.4562638148	 1.2557496542	 0.1820879034	-0.485829
C	-0.3181630411	-0.011275432	-0.0929262911	 0.257193
O	-1.1653388213	-0.4655871905	 0.6415350126	-0.257199
C	 0.0135867091	-0.6918619054	-1.3396113558	 0.062591
C	 0.2740615678	-1.2666054657	-2.3718874789	 0.083487
C	 0.5841681787	-1.9635986219	-3.5938106814	 0.11633
O	 1.4030982425	-2.8520918591	-3.6819401244	-0.245185
C	-0.183097703	-1.5207752231	-4.8490209422	 0.085279
O	-0.9757898728	-0.6209307863	-4.8627518526	-0.209113
H	 1.5303686294	 1.0422155609	 0.207826284	 0.157263
H	 0.29090018	 1.9785713403	-0.6242510606	 0.159336
H	 0.1340269272	 1.6766957241	 1.1353584137	 0.154963
H	 0.0924683589	-2.1268005255	-5.7364127868	 0.120884
31.2681	63.8761	80.7565	118.9779	125.6213	196.422	236.7132	288.0905	378.2923	494.6178	562.9848	595.5729	603.9526	646.886	712.9785	871.0601	976.9115	1027.2321	1044.62	1178.9334	1251.2664	1362.2189	1384.542	1458.4216	1465.5139	1758.0242	1777.8568	1832.4035	2295.4555	2941.4343	3040.5261	3105.4722	3155.9146
CC(=O)C#CC(=O)C=O	CC(=O)C#CC(=O)C=O	
InChI=1S/C6H4O3/c1-5(8)2-3-6(9)4-7/h4H,1H3	InChI=1S/C6H4O3/c1-5(8)2-3-6(9)4-7/h4H,1H3
