17
gdb 103312	2.22007	1.9314	1.1923	3.621	68.79	-0.2531	-0.0039	0.2492	1031.9979	0.133437	-458.892116	-458.883572	-458.882628	-458.925006	32.37	
C	 0.0235214974	 1.6723346195	 0.3962187694	-0.470246
C	-0.0776905903	 0.2021264425	 0.004930889	 0.290213
C	-1.4656421359	-0.1152954045	-0.5555091142	-0.150649
O	-1.6219431809	-1.4289152211	-1.0613777735	-0.407572
C	 1.1810249282	-0.386899665	-0.7153302421	-0.105277
O	 1.9234304787	-0.2823243402	 0.5754437782	-0.305383
C	 0.5933724677	-0.7959869849	 1.0038031487	-0.128878
C	 0.8337360405	-1.7963082464	-0.1686583064	 0.471971
O	 0.9690388922	-2.953360767	-0.3881808272	-0.326247
H	 1.0102071404	 1.9001948976	 0.8003103026	 0.148687
H	-0.1551673093	 2.3157081708	-0.4720198258	 0.1229
H	-0.7288290495	 1.9231240872	 1.1520429566	 0.120168
H	-2.2219137199	 0.1173555737	 0.2095544728	 0.101687
H	-1.657755642	 0.5547582459	-1.4015421518	 0.122247
H	-1.76562198	-2.040573825	-0.3330547798	 0.297832
H	 1.6949941486	-0.0596256538	-1.6171470798	 0.111989
H	 0.4363324141	-0.9385037194	 2.0723616733	 0.106558
88.3335	171.9967	199.9745	217.5461	235.793	321.03	339.7971	361.0321	430.3753	476.953	581.9193	646.6525	701.0669	747.6023	780.7043	794.174	880.8917	933.9191	942.9072	974.7585	1052.985	1088.1116	1114.4166	1124.0173	1132.811	1144.1232	1211.6014	1235.7163	1245.2051	1304.2393	1394.3235	1398.9997	1421.1599	1486.9992	1497.8233	1504.6783	1936.3708	2991.7948	3037.3312	3063.068	3093.6741	3135.4001	3146.5093	3149.7945	3833.4695
CC1(CO)C2OC1C2=O	C[C@@]1(CO)[C@H]2O[C@@H]1C2=O	
InChI=1S/C6H8O3/c1-6(2-7)4-3(8)5(6)9-4/h4-5,7H,2H2,1H3	InChI=1S/C6H8O3/c1-6(2-7)4-3(8)5(6)9-4/h4-5,7H,2H2,1H3/t4-,5+,6+
