17
gdb 85712	1.89813	1.70164	1.15234	1.3814	79.17	-0.2582	0.0178	0.276	1125.5497	0.13258	-384.601428	-384.592117	-384.591173	-384.636097	34.318	
C	 0.4875746775	 1.4110348792	-0.353862735	-0.403966
C	 0.0424263593	 0.0321050165	 0.0837164391	 0.151232
O	 0.6022526537	-1.0184300167	-0.741563021	-0.287822
C	 1.3240698496	-1.6112261308	 0.3599059928	-0.075826
C	 2.765108221	-1.5959164321	 0.1869676959	 0.373024
C	 3.9583090531	-1.5993036291	 0.0449357906	-0.461237
C	 0.6882873656	-0.5839341753	 1.3674741389	-0.308919
C	 1.551079268	 0.2332626765	 2.1876971357	 0.373317
C	 2.2591354541	 0.9169079867	 2.8778943701	-0.459749
H	 1.5766399111	 1.4971110476	-0.3322677887	 0.13826
H	 0.1403818543	 1.6004380237	-1.3741395989	 0.126761
H	 0.064398235	 2.1765098183	 0.3046612007	 0.12183
H	-1.0524804255	-0.035021169	 0.0917055802	 0.084304
H	 0.9849323635	-2.639076799	 0.5390826078	 0.109593
H	 5.0128168625	-1.5979530691	-0.0818517136	 0.202853
H	-0.0580846459	-1.0807124094	 1.992536137	 0.116443
H	 2.8914417631	 1.5167880721	 3.4844879184	 0.199901
29.962	104.3138	146.2607	191.4605	234.4977	241.7553	322.7839	409.3512	414.8301	499.5705	559.0238	608.6883	627.3332	630.4283	647.6452	673.7064	758.9069	803.9498	859.6435	901.1321	985.172	1013.7468	1059.7295	1090.2292	1108.7482	1156.176	1197.1132	1253.4723	1302.7763	1338.9744	1356.9495	1392.2177	1412.9529	1481.7775	1489.2904	2236.5259	2238.3441	3022.3978	3025.3436	3042.4812	3075.2545	3113.6197	3131.1248	3502.5192	3503.5252
CC1OC(C#C)C1C#C	C[C@H]1O[C@@H](C#C)[C@H]1C#C	
InChI=1S/C8H8O/c1-4-7-6(3)9-8(7)5-2/h1-2,6-8H,3H3	InChI=1S/C8H8O/c1-4-7-6(3)9-8(7)5-2/h1-2,6-8H,3H3/t6-,7+,8+/m1/s1
