15
gdb 131590	4.52319	1.00909	0.82926	5.1999	69.42	-0.2426	-0.0372	0.2054	1299.064	0.11336	-453.971155	-453.962889	-453.961945	-454.004795	29.408	
O	 0.0344759927	 1.3712685408	 0.0092335414	-0.401864
C	-0.0140313938	-0.0330999037	 0.0028212761	-0.179696
C	-1.4707986457	-0.4832677197	 0.0124234925	 0.298256
O	-2.3975399451	 0.2944005215	 0.0233037751	-0.29937
C	-1.7028549999	-1.9469277173	 0.0077774459	 0.252349
N	-0.6919820807	-2.8233627055	-0.0040165829	-0.290553
N	-1.2912232817	-4.0182856315	-0.0046611462	-0.177271
C	-2.6499795457	-3.9405004221	 0.0063320132	-0.019575
C	-2.9583668026	-2.6017330139	 0.0146314939	-0.268338
H	 0.9599857061	 1.6313837468	 0.0013839284	 0.290325
H	 0.4674882638	-0.4767628975	-0.8837389953	 0.117854
H	 0.4818208302	-0.4852913442	 0.8770884831	 0.117867
H	-0.7229287495	-4.8493895792	-0.0127341615	 0.281606
H	-3.2651305278	-4.8261684648	 0.0072164361	 0.144353
H	-3.9297294104	-2.1381045695	 0.0242529002	 0.134055
73.4266	80.909	150.9769	195.0977	233.6988	291.5802	369.6248	498.988	546.8523	555.3019	669.589	729.4204	758.3552	786.4135	880.4565	936.9245	948.0413	1016.2987	1021.4423	1076.0834	1103.3502	1146.9897	1213.8044	1232.0515	1246.1839	1318.7127	1399.0942	1438.7327	1465.1987	1482.7843	1500.3652	1559.9098	1799.3535	2974.9685	2998.3109	3265.1592	3295.0733	3662.8118	3837.0389
OCC(=O)C1=NNC=C1	OCC(=O)c1n[nH]cc1	
InChI=1S/C5H6N2O2/c8-3-5(9)4-1-2-6-7-4/h1-2,8H,3H2,(H,6,7)	InChI=1S/C5H6N2O2/c8-3-5(9)4-1-2-6-7-4/h1-2,8H,3H2,(H,6,7)
