18
gdb 90829	3.3255	1.82855	1.60182	0.9282	72.75	-0.2078	0.0682	0.276	882.59	0.15039	-401.878066	-401.871523	-401.870579	-401.908797	27.425	
O	-0.0520183912	 1.4644111771	-0.0188712666	-0.437404
C	 0.0382314167	 0.0453353438	-0.0062009285	 0.105564
C	 0.6933736658	-0.5551432566	 1.284183804	-0.21058
N	-0.339699963	-1.3484596069	 1.977869394	-0.105739
C	-1.4695560538	-0.5279640083	 2.4590110944	-0.024638
C	-2.2053152501	 0.0212513253	 1.2228900668	-0.066952
C	-2.5078006858	-1.3599631543	 1.7758256414	-0.122721
C	-1.2936598042	-1.8401615979	 0.9193805076	-0.050586
C	-1.3726067131	-0.5375383934	 0.0618165999	-0.047703
H	 0.8409574161	 1.8201470543	-0.0542807988	 0.282502
H	 0.5693689194	-0.3051827661	-0.9044023988	 0.059229
H	 1.5305651817	-1.2154913129	 1.0306562355	 0.095978
H	 1.0680322758	 0.2351452822	 1.9423575394	 0.101
H	-1.4759907597	-0.0457635134	 3.428304098	 0.090522
H	-2.8077290147	 0.9180317941	 1.2522101972	 0.091809
H	-3.4070683249	-1.8366676818	 2.1338624117	 0.096419
H	-1.1091115109	-2.8247706652	 0.4920472252	 0.071605
H	-1.9104158841	-0.6171411398	-0.8828292625	 0.071696
109.1001	268.0574	272.7897	383.502	479.6213	513.7209	658.6083	690.9176	771.7524	786.1506	798.5503	818.8195	836.6549	863.9132	879.8782	902.604	942.5562	983.0122	1006.8921	1019.5332	1022.2507	1040.2525	1048.9919	1071.8798	1104.0261	1136.7503	1166.9342	1176.9721	1198.5289	1208.0401	1234.836	1265.7386	1274.8487	1308.2129	1340.3654	1348.7862	1363.2238	1426.4133	1476.7852	2974.8942	3034.8597	3089.1717	3115.5009	3125.4213	3193.9242	3217.476	3238.3509	3823.5997
OC1CN2C3C4C3C2C14	O[C@H]1CN2[C@H]3[C@@H]4[C@H]3[C@H]2[C@H]14	
InChI=1S/C7H9NO/c9-2-1-8-6-3(2)4-5(6)7(4)8/h2-7,9H,1H2	InChI=1S/C7H9NO/c9-2-1-8-6-3(2)4-5(6)7(4)8/h2-7,9H,1H2/t2-,3+,4-,5-,6+,7-/m0/s1
