19
gdb 111734	3.18005	1.09497	0.96165	4.3623	78.64	-0.2437	-0.0267	0.2169	1292.6569	0.157742	-422.994282	-422.98538	-422.984436	-423.028319	32.645	
C	 0.3297212973	 1.4189020017	 0.3168719534	-0.375349
C	-0.2147256155	 0.0607398414	-0.140961449	-0.213407
C	 0.561680662	-0.517436951	-1.3063262508	-0.078073
C	 1.9195704654	-1.1542525303	-1.2159816613	-0.189504
C	 2.0156010887	-2.0598179316	 0.009413908	-0.101588
O	 0.7689402263	-2.7293330666	-0.3174008935	-0.301859
C	 0.6818675289	-2.0130194917	-1.54101542	 0.348913
C	 0.3023786148	-2.6797843953	-2.7923369167	 0.066508
O	-0.0531566137	-3.8274758203	-2.8920366293	-0.264649
H	 1.3715676996	 1.3382329472	 0.6442252376	 0.118507
H	 0.2942391158	 2.156760722	-0.4920594444	 0.116219
H	-0.2558809406	 1.8132643336	 1.1527105657	 0.119283
H	-0.2092064073	-0.6530494608	 0.6878086294	 0.124697
H	-1.264063839	 0.1643653622	-0.4421111673	 0.107642
H	 0.4487106072	 0.0303095726	-2.2414846913	 0.100735
H	 2.7433104765	-0.8929621485	-1.8670712343	 0.113797
H	 2.8507428288	-2.7655255328	-0.0428426974	 0.12441
H	 1.9879859123	-1.5868018569	 0.9970063719	 0.114595
H	 0.3700843526	-2.0011735547	-3.6750278506	 0.069122
69.4048	88.5068	162.7598	201.9667	229.252	265.1609	279.4267	316.8765	429.5024	527.3494	617.9602	728.9616	740.4519	788.8598	819.8918	887.2559	924.9745	959.2234	981.1616	996.0722	1004.202	1041.0717	1067.3512	1098.4139	1121.481	1134.2513	1166.884	1203.2489	1259.5596	1300.9067	1316.211	1347.2915	1359.9223	1411.1304	1421.8821	1462.6956	1492.1287	1498.6886	1509.7883	1520.509	1812.5833	2854.7559	3033.2766	3037.1819	3040.3216	3081.981	3088.2148	3104.9132	3108.3786	3124.5746	3201.7916
CCC1C2COC12C=O	CC[C@H]1[C@H]2CO[C@@]12C=O	
InChI=1S/C7H10O2/c1-2-5-6-3-9-7(5,6)4-8/h4-6H,2-3H2,1H3	InChI=1S/C7H10O2/c1-2-5-6-3-9-7(5,6)4-8/h4-6H,2-3H2,1H3/t5-,6+,7-/m0/s1
