21
gdb 78921	4.24295	1.32204	1.29559	0.2359	85.9	-0.2274	0.0963	0.3237	1096.1668	0.183236	-349.893853	-349.886113	-349.885169	-349.925515	31.709	
C	-0.0143471837	 1.643386641	 0.024014869	-0.417388
C	 0.0313391542	 0.1247756121	 0.0082580696	 0.029079
C	 1.0645411097	-0.6296905669	-0.8726349884	-0.071186
C	 2.4736615234	-0.289796087	-0.3326470566	-0.126675
C	 2.1964328193	-0.3139210723	 1.1800967304	-0.126669
C	 0.6893221662	-0.6622383654	 1.1746197868	-0.071201
C	 1.0965106457	-1.8076863257	 0.1727692948	-0.118485
C	 2.6187442521	-1.5741093705	 0.4554255214	 0.343988
C	 3.7713956106	-2.5030196476	 0.6518302324	-0.52657
H	 0.9794919641	 2.0624490231	 0.2129368338	 0.117476
H	-0.3691341011	 2.0412646453	-0.9336106939	 0.10965
H	-0.6880299721	 2.013637595	 0.8052266744	 0.10965
H	-0.9658069732	-0.2942299621	-0.1811710539	 0.064534
H	 0.9322879405	-0.769339016	-1.9454158501	 0.055821
H	 3.2468617061	 0.328576522	-0.7707358015	 0.077777
H	 2.7605936026	 0.2862403329	 1.8827156904	 0.077776
H	 0.1860755602	-0.8340696934	 2.1259699558	 0.055819
H	 0.5703365763	-2.7529166146	 0.0613076093	 0.062193
H	 3.9341166055	-3.1359876666	-0.2287888415	 0.117751
H	 4.6955060012	-1.9414639676	 0.8303676561	 0.11891
H	 3.6147297122	-3.1640644657	 1.5126969217	 0.11775
166.8458	180.2186	206.1428	216.7026	283.6132	298.9547	518.2267	590.942	598.6333	717.4822	722.8419	766.4467	817.9056	817.9798	849.5005	850.1507	880.2189	898.4415	920.6767	963.1097	971.4414	1013.4553	1024.4047	1056.4527	1056.7266	1072.922	1106.3163	1122.9023	1161.8313	1163.8217	1182.3073	1190.714	1201.5014	1224.3787	1253.0204	1280.3059	1304.689	1375.3999	1405.8308	1409.878	1456.4035	1484.0712	1493.5982	1497.6448	1498.3351	3015.8732	3021.8921	3026.2329	3074.0501	3085.6683	3086.0378	3099.1855	3112.4005	3113.1763	3141.9789	3185.66	3195.8037
CC1C2C3C4C1C2C34C	C[C@H]1[C@H]2[C@H]3[C@H]4[C@@H]1[C@@H]2[C@@]34C	
InChI=1S/C9H12/c1-3-4-6-5(3)8-7(4)9(6,8)2/h3-8H,1-2H3	InChI=1S/C9H12/c1-3-4-6-5(3)8-7(4)9(6,8)2/h3-8H,1-2H3/t3-,4+,5-,6+,7-,8+,9-
