17
gdb 48967	3.85852	1.3766	1.21649	3.475	73.53	-0.2353	-0.0263	0.209	1029.4463	0.136799	-421.806518	-421.799344	-421.7984	-421.838235	27.844	
O	-0.2886530528	 0.4564279448	-0.8099681122	-0.277795
C	 0.1057868386	 1.0520608135	 0.1690431565	 0.031896
C	 1.3119072589	 1.8861005327	 0.1943970356	 0.210315
C	 1.7894270747	 2.8637649423	 1.2676547457	-0.315445
C	 2.5740577052	 3.6404426664	 0.157301753	-0.079332
C	 3.9902746179	 3.0809610513	 0.0438962804	-0.080416
O	 3.7932302912	 1.6790955763	-0.2186592182	-0.261124
C	 2.5011898071	 1.5445845055	-0.7392579503	 0.090551
C	 1.8137222975	 2.8280847613	-0.9323442039	-0.157708
H	-0.4423489367	 0.9915428529	 1.1373845689	 0.069084
H	 0.9635301143	 3.4555513432	 1.6706710279	 0.111165
H	 2.3847547152	 2.4608884482	 2.0936648453	 0.107476
H	 2.5007751615	 4.726217935	 0.1552464528	 0.086456
H	 4.5501455279	 3.542600304	-0.7827391082	 0.101377
H	 4.5704398229	 3.1751863568	 0.9665235802	 0.115536
H	 2.3555440474	 0.6982173434	-1.3978323944	 0.134719
H	 1.278182539	 3.1670095023	-1.8084724491	 0.113245
104.7424	171.5313	192.6345	252.9004	378.1503	430.0154	497.1095	640.7506	694.3896	728.3486	752.9545	842.444	858.7297	869.3339	916.7001	948.0745	962.8461	1004.283	1016.7968	1025.0951	1059.1515	1078.2994	1116.5639	1155.2586	1178.6014	1188.671	1232.7286	1234.8947	1259.4473	1285.5114	1311.8081	1362.4695	1413.5583	1430.7783	1492.4854	1512.3082	1786.8127	2864.0162	2999.1128	3044.2832	3087.3489	3102.4009	3137.4613	3208.3997	3217.7005
O=CC12CC3COC1C23	O=C[C@@]12C[C@H]3CO[C@@H]1[C@@H]23	
InChI=1S/C7H8O2/c8-3-7-1-4-2-9-6(7)5(4)7/h3-6H,1-2H2	InChI=1S/C7H8O2/c8-3-7-1-4-2-9-6(7)5(4)7/h3-6H,1-2H2/t4-,5-,6+,7+/m0/s1
