22
gdb 97800	2.97375	0.7068	0.63805	1.4839	94.17	-0.2185	0.042	0.2605	1896.5258	0.192266	-367.164426	-367.153719	-367.152775	-367.202868	37.843	
C	 0.1300496195	 1.0617272968	-0.7793165752	-0.363473
C	-0.2346177205	 0.4885141503	 0.6024712583	-0.315762
C	-1.4970560051	-0.2429792116	 0.6089641671	 0.056782
C	-2.5460783724	-0.8379363264	 0.5808958559	 0.094469
C	-3.8038436039	-1.5350501633	 0.6167666455	-0.18319
C	-4.418415075	-2.0612547877	-0.6479433355	-0.243579
N	-3.9093786234	-2.9832918218	 0.352315571	-0.079743
C	-2.6901799105	-3.7177617858	 0.0182212943	-0.11104
C	-3.0423137899	-5.0221159893	-0.6914751362	-0.375098
H	 1.0814360791	 1.5999159044	-0.7305705766	 0.114312
H	 0.2242117439	 0.2619481406	-1.5189744513	 0.126421
H	-0.6409301323	 1.7539819441	-1.1282061663	 0.128528
H	 0.570810562	-0.1717389353	 0.9497058216	 0.129396
H	-0.2880615432	 1.3041709713	 1.335167887	 0.130664
H	-4.4785970412	-1.2033360741	 1.403425556	 0.109927
H	-5.4973197377	-2.0336945938	-0.7771403155	 0.11613
H	-3.8391636207	-1.9202051856	-1.5593967373	 0.113803
H	-2.0029163104	-3.120130038	-0.6014314009	 0.092565
H	-2.166786432	-3.9286501813	 0.9578370436	 0.105566
H	-3.7059364443	-5.6322146071	-0.072235217	 0.126141
H	-3.551738138	-4.8271814072	-1.6411240754	 0.116057
H	-2.1374901241	-5.5989316092	-0.906516813	 0.111123
7.6304	72.93	80.1809	100.9232	187.8344	205.078	236.3011	247.6893	317.6885	366.3562	412.0596	451.1367	558.0515	592.6534	712.2496	740.8023	783.5156	809.5564	870.9244	919.6214	962.9296	1001.108	1046.1914	1071.7621	1084.6349	1102.802	1108.7083	1117.2927	1135.9124	1194.129	1202.2645	1285.9142	1306.8529	1319.0139	1350.2355	1377.5749	1384.6865	1408.2243	1410.0564	1473.1045	1488.4782	1489.3173	1494.4876	1501.4131	1505.2251	1517.1987	2354.5419	2978.3278	3017.778	3037.3117	3043.3244	3044.6815	3055.6972	3089.8678	3105.9612	3116.5159	3117.5127	3118.987	3122.9006	3179.0801
CCC#CC1CN1CC	CCC#C[C@H]1CN1CC	
InChI=1S/C8H13N/c1-3-5-6-8-7-9(8)4-2/h8H,3-4,7H2,1-2H3	InChI=1S/C8H13N/c1-3-5-6-8-7-9(8)4-2/h8H,3-4,7H2,1-2H3/t8-,9?/m0/s1
