23
gdb 72245	2.3075	1.66359	1.43551	0.2933	89.23	-0.2334	0.0862	0.3196	1095.7289	0.20713	-351.156787	-351.148211	-351.147267	-351.189208	34.457	
C	-0.0749630966	 1.5056131612	 0.0479691403	-0.504957
C	 0.0012320437	 0.0060047835	-0.0106969996	 0.30703
C	 0.8321322817	-0.7892453099	-1.0204965367	-0.28772
C	-0.1447383876	-1.9941044269	-0.8284165571	-0.087951
C	 0.3918727038	-2.9772725588	 0.220767187	-0.205314
C	 0.5729417282	-2.0942783126	 1.486728186	-0.238095
C	-0.3017536536	-0.8722814955	 1.2023780288	-0.134462
C	-1.1099158299	-1.0401889997	-0.0592451235	 0.309548
C	-2.597287576	-0.9246508462	-0.2084862029	-0.519642
H	 0.8588016661	 1.9376770391	 0.4291674111	 0.116668
H	-0.2547635771	 1.935403796	-0.9448659295	 0.111703
H	-0.8830627121	 1.8414912526	 0.7068622966	 0.11312
H	 0.7513995619	-0.3555442245	-2.0221134504	 0.091194
H	 1.8931691813	-0.9646467003	-0.8006073868	 0.080338
H	-0.5128213383	-2.4582381397	-1.7447381364	 0.058857
H	-0.3443813495	-3.7679860359	 0.4073961124	 0.091843
H	 1.321056008	-3.4627485441	-0.0959161058	 0.090444
H	 0.2466077154	-2.6126643851	 2.3936863435	 0.093481
H	 1.6218609811	-1.8180909551	 1.6422197933	 0.096918
H	-0.7609479613	-0.346291553	 2.0341682798	 0.070213
H	-2.9930378478	-0.1034155283	 0.3989669931	 0.116413
H	-2.8884424348	-0.7351594884	-1.2486458156	 0.113887
H	-3.1063149764	-1.8420543884	 0.1128364923	 0.116485
171.2572	189.1928	193.4416	201.7722	214.829	287.9309	293.3798	395.5527	484.6368	546.1264	608.5385	686.8946	705.6612	730.6933	823.3528	852.2664	858.961	901.3251	917.8419	949.6273	961.0198	988.6482	1017.0938	1047.296	1062.8455	1097.4981	1105.2119	1128.6191	1150.0255	1193.0758	1203.5909	1226.7096	1238.4271	1247.5289	1274.7512	1288.5963	1324.9224	1337.8748	1340.5175	1410.5714	1416.4436	1465.07	1483.2679	1486.1652	1488.9306	1494.7889	1496.453	1504.674	1515.9064	3012.99	3013.7969	3017.0657	3029.8551	3039.033	3067.9441	3068.9099	3070.7912	3074.644	3084.6624	3085.8866	3088.96	3098.9624	3156.4483
CC12CC3CCC1C23C	C[C@@]12C[C@H]3CC[C@@H]1[C@@]23C	
InChI=1S/C9H14/c1-8-5-6-3-4-7(8)9(6,8)2/h6-7H,3-5H2,1-2H3	InChI=1S/C9H14/c1-8-5-6-3-4-7(8)9(6,8)2/h6-7H,3-5H2,1-2H3/t6-,7+,8-,9+/m1/s1
