18
gdb 71376	2.6032	1.79966	1.28079	4.5873	76.03	-0.2362	0.0057	0.2419	1020.8436	0.146622	-401.911826	-401.90346	-401.902516	-401.94449	31.703	
C	-0.0277226022	 1.4647009796	 0.058797537	-0.509377
C	 0.0074715622	-0.031935597	-0.028892142	 0.267117
C	-0.6595819903	-0.9330511868	-1.0697570681	-0.240002
N	-0.4616869034	-2.1085126246	-0.1229514218	-0.222473
C	-0.2585353407	-1.076828094	 0.9953172883	-0.120633
C	 1.193613517	-0.8902470646	 0.5403567424	 0.123953
C	 2.3998013177	-0.3348334691	 1.2356782933	-0.515237
C	 1.0282338755	-2.1986699798	-0.1536162906	 0.385244
O	 1.7302202454	-3.0939948979	-0.504762832	-0.31857
H	 0.5715692563	 1.9227323932	-0.7355298534	 0.132651
H	-1.0567305604	 1.8256733971	-0.0466882087	 0.132082
H	 0.3528233903	 1.8282022509	 1.0176765908	 0.129106
H	-1.7267070001	-0.7213031467	-1.1843000735	 0.115537
H	-0.1950297769	-1.0658809802	-2.0535508319	 0.115524
H	-0.6820683667	-1.1326211896	 1.9873313919	 0.117399
H	 2.1406985853	 0.4992098916	 1.8939327636	 0.126254
H	 2.8808798773	-1.1066900993	 1.8440467801	 0.143117
H	 3.1377850737	 0.0274270872	 0.5124227947	 0.138307
111.8917	138.9911	182.0069	231.0711	247.33	251.1316	326.2223	444.0431	506.287	552.2365	648.0545	695.0044	742.6627	794.7532	827.4196	845.1197	907.3445	926.4694	938.3016	981.5591	984.4985	1027.8181	1092.5332	1122.2943	1129.6117	1157.2024	1176.9425	1220.018	1279.2283	1368.6041	1410.2215	1418.2923	1429.7423	1480.2307	1490.7166	1491.4024	1503.4462	1511.9736	1913.3197	3031.7552	3036.0288	3039.6523	3093.949	3097.1423	3102.6041	3107.502	3114.769	3230.1486
CC12CN3C1C2(C)C3=O	C[C@]12CN3[C@H]1[C@@]2(C)C3=O	
InChI=1S/C7H9NO/c1-6-3-8-4(6)7(6,2)5(8)9/h4H,3H2,1-2H3	InChI=1S/C7H9NO/c1-6-3-8-4(6)7(6,2)5(8)9/h4H,3H2,1-2H3/t4-,6+,7+/m1/s1
