18
gdb 17137	4.76274	1.27367	1.22377	3.0703	67.37	-0.2556	0.0749	0.3306	1038.0071	0.153601	-384.89966	-384.891874	-384.890929	-384.932021	29.342	
O	 0.4553564073	 0.4668448842	-0.8230842808	-0.431836
C	-0.2740541594	-0.3241363492	 0.0784302063	 0.182982
C	 0.1198511209	-0.3499203894	 1.5801927007	-0.275674
C	-1.4005481368	-0.4031148314	 1.932851468	-0.046501
C	-1.7123197769	 0.0901137914	 0.4882437094	-0.283934
C	-1.891537856	-1.7880151179	 2.2772410658	 0.089621
C	-3.2046768509	-2.3085938537	 1.8805104459	-0.185268
O	-2.0141492125	-2.7385676672	 1.2133038327	-0.22949
H	 0.4770598772	 1.3669314456	-0.4806613734	 0.273683
H	-0.2755144138	-1.3328622026	-0.3399451935	 0.11427
H	 0.7554109665	-1.1681025678	 1.9290216458	 0.104668
H	 0.5696005504	 0.600748857	 1.8870073646	 0.088572
H	-1.7073142123	 0.272277353	 2.737703875	 0.07783
H	-1.834187235	 1.1782129735	 0.4631981903	 0.088299
H	-2.5398277978	-0.3712195101	-0.0537271096	 0.111128
H	-1.4452592301	-2.2075211552	 3.1821265271	 0.091306
H	-3.6947804472	-3.0647270553	 2.4920580255	 0.115748
H	-3.8732913336	-1.6879576549	 1.28640563	 0.114596
81.1864	101.9434	206.3496	229.838	304.6522	384.0701	422.0536	460.0708	522.3196	676.3474	733.7399	811.6265	853.4397	889.5246	927.6563	936.5878	963.8318	1001.9367	1034.5311	1071.8521	1095.0181	1112.4078	1136.4865	1157.1174	1163.9562	1182.2733	1198.3949	1250.79	1266.9147	1288.7952	1295.2543	1332.2407	1368.0852	1429.1682	1433.8069	1464.6808	1492.3996	1529.6164	3041.0816	3046.5881	3059.7678	3080.9897	3088.0048	3092.054	3107.8446	3121.7362	3173.0419	3801.0205
OC1CC(C1)C1CO1	O[C@H]1C[C@@H](C1)[C@H]1CO1	
InChI=1S/C6H10O2/c7-5-1-4(2-5)6-3-8-6/h4-7H,1-3H2	InChI=1S/C6H10O2/c7-5-1-4(2-5)6-3-8-6/h4-7H,1-3H2/t4-,5-,6-/m1/s1
