17
gdb 23576	2.85226	1.52679	1.22973	1.2244	75.44	-0.2311	0.0125	0.2436	1041.5765	0.13554	-417.892802	-417.884992	-417.884047	-417.924975	30.388	
C	 0.0583088977	 1.588959846	-0.130528602	-0.416547
C	 0.0929848478	 0.0746132358	-0.1220569192	 0.08081
C	 0.7313367354	-0.7231151533	-1.2863185622	-0.206195
C	 1.2618385675	-1.6820540669	-0.140314403	-0.043515
C	 2.3707097821	-0.6983928881	 0.072693185	-0.141523
N	 1.0641301572	-0.5944744064	 0.8331437566	-0.15815
C	 2.1492450355	-0.1687854886	-1.2957802675	 0.48764
N	 2.9519837063	 0.3442169236	-2.1288115261	-0.310895
O	 2.318350253	 0.5595614082	-3.3743741221	-0.400024
H	 1.0324404789	 2.0148881923	-0.3865439667	 0.135429
H	-0.6731264864	 1.9486077179	-0.8620979973	 0.123176
H	-0.2336217515	 1.9638769692	 0.8554022145	 0.129316
H	-0.8906552887	-0.3355152072	 0.1275879979	 0.088074
H	 0.2175426235	-0.9717305045	-2.2100241989	 0.098552
H	 1.1882278354	-2.7422334869	 0.0595513904	 0.113366
H	 3.2776930022	-0.7760709431	 0.6535774029	 0.11454
H	 3.037571774	 0.923471952	-3.9011997726	 0.305945
102.235	182.0031	207.1802	222.5634	310.5418	328.2068	411.2025	491.5471	566.2178	671.7683	685.0193	753.702	766.2663	794.9829	831.2107	879.0089	888.0877	929.7387	964.2494	972.132	1034.2048	1045.6764	1096.526	1123.6086	1126.6305	1152.4653	1170.7856	1212.6514	1247.2388	1263.2355	1308.5435	1387.7812	1411.3735	1414.9512	1486.637	1493.9353	1795.9676	3038.2395	3059.0701	3107.4599	3119.3263	3169.9937	3211.4818	3237.6412	3821.9712
CC1C2C3C(N13)C2=NO	C[C@H]1[C@@H]2[C@H]3[C@H](N13)C2=NO	
InChI=1S/C6H8N2O/c1-2-3-4(7-9)6-5(3)8(2)6/h2-3,5-6,9H,1H3	InChI=1S/C6H8N2O/c1-2-3-4(7-9)6-5(3)8(2)6/h2-3,5-6,9H,1H3/t2-,3-,5-,6+,8?/m0/s1
