17
gdb 97417	3.92061	0.85943	0.73376	2.1993	74.71	-0.2539	-0.0001	0.2538	1525.7454	0.134493	-455.125069	-455.115898	-455.114954	-455.160552	31.658	
C	 0.2703808556	 1.339657315	-0.0713816391	-0.316424
N	-0.1496736289	-0.0177260361	 0.2109007151	-0.201817
C	 0.59220752	-0.7092743801	 0.9491899298	 0.125535
O	 0.2424490995	-1.9933435582	 1.238832089	-0.214775
C	 1.0972694966	-2.6773786655	 2.1237073206	-0.023826
C	 0.7950393191	-4.1819082346	 2.2104270921	-0.110968
O	 2.1537721725	-4.4846931206	 1.7538923411	-0.248845
C	 2.4431773816	-3.1495353249	 1.579408101	 0.428804
N	 3.4508281402	-2.5648887906	 1.1226286039	-0.540322
H	 1.2172082244	 1.6269049173	 0.413050782	 0.102464
H	 0.3844127259	 1.4686427635	-1.1534641278	 0.131831
H	-0.5100447598	 2.0377761706	 0.2516964435	 0.128632
H	 1.5399961815	-0.3833197899	 1.3972785923	 0.107343
H	 1.1696925455	-2.1651094217	 3.0895595781	 0.118332
H	 0.6109789545	-4.5965027782	 3.2027127216	 0.130719
H	 0.0490633674	-4.5218472469	 1.4900979009	 0.145971
H	 4.1716832943	-3.2208271193	 0.8169791961	 0.237346
40.6929	61.9234	97.9628	164.4386	202.7069	235.1284	312.0991	328.5913	417.0285	448.0905	560.1606	701.7331	749.8209	861.1459	876.6697	949.8563	963.4174	971.3278	1013.5463	1049.1436	1089.3958	1130.8672	1141.4788	1156.0687	1183.6301	1219.4497	1233.9817	1258.5567	1338.6992	1385.7881	1420.3625	1449.3401	1480.3051	1503.5065	1506.8603	1782.0278	1831.8428	2975.426	3036.8979	3051.4276	3063.3135	3081.2784	3081.7663	3148.8637	3478.9037
CN=COC1COC1=N	CN=CO[C@H]1CO[C]1[NH]	
InChI=1S/C5H8N2O2/c1-7-3-9-4-2-8-5(4)6/h3-4,6H,2H2,1H3	InChI=1S/C5H8N2O2/c1-7-3-9-4-2-8-5(4)6/h3-4,6H,2H2,1H3/t4-/m0/s1
