19
gdb 70483	3.35794	0.96711	0.85377	3.0432	76.73	-0.2461	-0.0195	0.2266	1379.1391	0.156683	-423.004252	-422.995127	-422.994183	-423.038964	33.119	
C	-0.2745568891	 1.4900896406	 0.0164014748	-0.506271
C	 0.1280683461	 0.0519050429	 0.0220123725	 0.407422
O	-0.6487783335	-0.8725120478	 0.7979889265	-0.286752
C	 0.7686916071	-0.8162218316	 1.0271740948	-0.035503
C	 1.4271811785	-1.6894798039	-0.0436372203	-0.272445
C	 0.7490018588	-0.7728210534	-1.1326742216	-0.069448
C	-0.2405169848	-1.399408032	-2.1208949262	-0.292438
C	 0.4286765775	-2.3675124833	-3.067266507	 0.155129
O	 0.4465771567	-2.2585794423	-4.266993456	-0.239828
H	 0.5358561284	 2.1188868202	-0.3659774085	 0.127515
H	-1.1519575349	 1.647571634	-0.6210501387	 0.135285
H	-0.5279088115	 1.8183666075	 1.0278510386	 0.137845
H	 1.0936586903	-0.6070909674	 2.0403878477	 0.105104
H	 2.5173553471	-1.624346406	-0.0582168117	 0.112092
H	 1.1255298353	-2.740036866	-0.0236479359	 0.11156
H	 1.5050967137	-0.1874335193	-1.66528782	 0.088592
H	-0.9947271449	-1.9457493466	-1.5386283031	 0.13268
H	-0.7437589317	-0.631558251	-2.7168382014	 0.116884
H	 0.9371279308	-3.2252955347	-2.5679765143	 0.072576
56.1133	71.7225	147.7051	160.8179	195.1279	247.9377	296.3583	401.7509	435.3859	496.6145	562.5121	646.0879	722.8037	799.1503	835.2109	864.8624	897.0399	903.9957	956.5587	985.2942	1029.0973	1050.9766	1082.0687	1104.702	1113.5005	1159.7099	1198.4685	1215.1161	1235.9261	1262.0421	1275.845	1298.4532	1354.3961	1405.6966	1430.4048	1456.4214	1467.47	1477.9529	1485.7086	1495.8509	1831.2233	2856.9412	3025.7006	3035.0608	3060.4298	3065.5634	3094.5501	3097.523	3121.8182	3122.5867	3181.6246
CC12OC1CC2CC=O	C[C@]12O[C@H]1C[C@H]2CC=O	
InChI=1S/C7H10O2/c1-7-5(2-3-8)4-6(7)9-7/h3,5-6H,2,4H2,1H3	InChI=1S/C7H10O2/c1-7-5(2-3-8)4-6(7)9-7/h3,5-6H,2,4H2,1H3/t5-,6+,7-/m1/s1
