16
gdb 41018	3.1648	1.99761	1.48092	3.3027	67.79	-0.2249	0.0465	0.2714	868.4319	0.125924	-437.745693	-437.739608	-437.738664	-437.775848	25.806	
C	-0.0195593823	 1.4811448359	 0.2715326207	-0.153408
O	 1.4106764116	 1.5371607131	-0.0881338381	-0.354373
C	 1.2040676575	 0.355272619	-0.8508282231	 0.482747
C	-0.0092623953	-0.0417500334	-0.0732281989	-0.041951
N	-0.7419106843	-0.8437599467	-1.0594813195	-0.352005
C	 0.3329305929	-1.0579747122	-2.0302243301	-0.026685
C	 0.8793557872	 0.3202813251	-2.4005488445	-0.004336
O	 2.2062462021	-0.2096608052	-2.7204728914	-0.307997
C	 1.8812288114	-0.8802135387	-1.4750674405	-0.094894
H	-0.1757423514	 1.7704091029	 1.31285072	 0.116457
H	-0.6194830321	 2.0998633384	-0.4046228151	 0.117233
H	 0.2361317761	-0.6052069664	 0.8339682279	 0.092405
H	-1.1078784436	-1.7031923984	-0.6669284731	 0.22759
H	 0.1687809241	-1.8012685767	-2.8071981553	 0.10359
H	 0.4496930215	 1.0802022973	-3.050998656	 0.10094
H	 2.5895677647	-1.6038511739	-1.072325293	 0.094687
201.9993	319.8756	350.1095	404.5844	487.2929	565.1655	605.1246	670.82	705.0303	754.6606	782.3827	841.6102	866.1318	899.2005	914.6149	934.2506	968.7437	1000.8627	1034.2781	1068.7	1082.8042	1118.2828	1123.871	1141.4639	1157.2716	1163.4329	1184.5646	1216.9642	1257.8641	1293.9693	1324.2751	1331.153	1391.595	1432.1582	1504.8221	3038.4905	3044.0236	3121.2802	3124.8532	3138.6716	3162.4347	3544.6638
C1OC23C1NC1C2OC31	C1O[C@@]23[C@@H]1N[C@H]1[C@@H]2O[C@@H]31	
InChI=1S/C6H7NO2/c1-2-6(8-1)4-3(7-2)5(6)9-4/h2-5,7H,1H2	InChI=1S/C6H7NO2/c1-2-6(8-1)4-3(7-2)5(6)9-4/h2-5,7H,1H2/t2-,3-,4-,5+,6-/m1/s1
