19
gdb 114842	3.20603	1.42992	1.34892	1.6714	70.91	-0.2425	0.0913	0.3338	1043.525	0.160858	-460.154286	-460.146659	-460.145715	-460.186512	29.583	
C	 0.0442427058	 1.3984722102	 0.0149792278	-0.243309
O	-0.0470431034	-0.0140772397	-0.0448240962	-0.230163
C	 0.627877029	-0.5685080474	-1.1194321401	 0.238094
O	 2.058465022	-0.4108074612	-1.0081298061	-0.306693
C	 2.5895541444	-1.7416922847	-0.8987032923	 0.069216
C	 2.1074964886	-2.337885193	 0.4311829273	-0.080871
O	 0.7100036513	-2.5939729641	 0.1825590851	-0.265622
C	 0.4590975402	-2.103108664	-1.1343059456	 0.026683
C	 1.7210135025	-2.5184299466	-1.9038553478	-0.240568
H	 1.0802477374	 1.7262173638	 0.1593080127	 0.128128
H	-0.3495548657	 1.8642548935	-0.9014149824	 0.104126
H	-0.5608455623	 1.7202538726	 0.8650052617	 0.128455
H	 0.3102911413	-0.0856279826	-2.0590962545	 0.066273
H	 3.6681312481	-1.7073245917	-1.046881713	 0.085022
H	 2.613635913	-3.2754586748	 0.6933212153	 0.097424
H	 2.2182879488	-1.6182892754	 1.2486578312	 0.113419
H	-0.5139229917	-2.4591044594	-1.468529262	 0.088412
H	 1.797817748	-2.1155173628	-2.9152388307	 0.110584
H	 1.8696308227	-3.5998395726	-1.9025934706	 0.111388
101.8415	133.6904	189.2705	226.0596	346.6326	389.4698	470.7734	503.773	551.4444	637.2537	808.8313	823.9535	861.7002	865.2036	919.4369	941.8031	954.7603	972.4545	977.7421	1027.1154	1038.66	1075.2447	1095.3852	1143.3793	1158.764	1179.9013	1194.5467	1225.1926	1233.7734	1268.1565	1294.6439	1311.3814	1322.8806	1366.6154	1379.4299	1402.3122	1479.7804	1483.3293	1485.9654	1510.5354	1512.7242	2958.2789	2990.0723	3022.1402	3065.3418	3079.2683	3081.2339	3127.405	3132.6871	3142.8724	3143.2309
COC1OC2COC1C2	CO[C@H]1O[C@H]2CO[C@@H]1C2	
InChI=1S/C6H10O3/c1-7-6-5-2-4(9-6)3-8-5/h4-6H,2-3H2,1H3	InChI=1S/C6H10O3/c1-7-6-5-2-4(9-6)3-8-5/h4-6H,2-3H2,1H3/t4-,5-,6+/m1/s1
