12
gdb 21615	7.01495	1.37479	1.15119	3.9429	65.62	-0.225	-0.0086	0.2164	956.0074	0.085398	-373.69485	-373.68784	-373.686896	-373.725789	26.164	
N	 0.0236850065	 1.3649394532	 0.1514450833	-0.612084
C	-0.0367208778	-0.0082956894	 0.0401409061	 0.395503
N	-1.1321761053	-0.7396670961	 0.0513951155	-0.357438
C	-0.6410645977	-2.022867131	-0.0035661456	 0.179194
N	 0.6812632499	-2.1182699357	-0.0568740744	-0.276633
N	 1.0544633259	-0.8081599965	-0.0248848386	-0.24084
C	-1.4806184172	-3.167223036	-0.0114319496	 0.289536
C	-2.2030964847	-4.1279759273	-0.0177460543	-0.380283
H	 0.7237743426	 1.8157002377	-0.4212290839	 0.257731
H	-0.8878067495	 1.7838370722	 0.0267612992	 0.273533
H	 2.0314168585	-0.5690025058	 0.0021696747	 0.278843
H	-2.8390154012	-4.9782507454	-0.0227693224	 0.192937
145.9072	152.5196	264.0338	305.4229	375.6521	448.795	498.5336	558.4191	576.6133	604.7886	650.4221	668.3864	748.1724	768.5512	781.5456	1014.3798	1060.2287	1121.3116	1150.9903	1310.3162	1381.7259	1471.0877	1517.6006	1606.707	1662.5604	2249.2452	3504.9986	3559.743	3658.3492	3668.5002
NC1=NC(=NN1)C#C	Nc1nc(n[nH]1)C#C	
InChI=1S/C4H4N4/c1-2-3-6-4(5)8-7-3/h1H,(H3,5,6,7,8)	InChI=1S/C4H4N4/c1-2-3-6-4(5)8-7-3/h1H,(H3,5,6,7,8)
