20
gdb 107203	3.8655	1.22478	1.10555	3.0516	77.89	-0.2368	0.0711	0.3079	1174.92	0.171641	-403.114009	-403.105921	-403.104976	-403.146652	31.865	
C	-0.3309950749	 1.466386681	 0.135679495	-0.379788
C	 0.1784694974	 0.0396108639	-0.1096682343	-0.271498
C	 0.9208180665	-0.5278187225	 1.0760034726	 0.410266
C	 2.2714852124	 0.0634672606	 1.5091327931	-0.288693
C	 3.0227245901	-1.0728695651	 2.2043194813	-0.04333
N	 2.4113715625	-1.5518456275	 3.4569052974	-0.313596
C	 2.1704999198	-2.2947686878	 2.2015232571	-0.080737
C	 0.867196662	-1.9374873383	 1.5171474603	-0.031049
O	 0.0983074442	-0.9330210309	 2.1820105987	-0.276614
H	 0.4952972252	 2.1634135796	 0.3098792304	 0.11719
H	-0.8990239359	 1.8323924362	-0.724643938	 0.1117
H	-0.9843615236	 1.4932419237	 1.0127695147	 0.136439
H	-0.6684581574	-0.6192702173	-0.3301478959	 0.104739
H	 0.8362117689	 0.0216851812	-0.988262161	 0.094919
H	 2.8301861965	 0.3885326628	 0.6240528219	 0.099321
H	 2.1410530677	 0.9303740819	 2.1636882108	 0.12378
H	 4.1022883704	-1.1263674475	 2.101073119	 0.086518
H	 3.1179616469	-2.0482258666	 3.9962506677	 0.228941
H	 2.5738467357	-3.294056077	 2.079897018	 0.083973
H	 0.2982300156	-2.7052383604	 0.9979509612	 0.087519
73.6828	134.6383	206.505	251.6702	299.0046	366.2101	370.335	422.0814	597.6652	630.7742	704.4576	721.4392	777.2744	801.0213	847.9151	854.2107	888.4196	908.189	958.318	966.8109	981.0701	995.3645	1054.425	1072.8708	1074.9055	1109.0539	1143.0697	1170.5588	1207.6817	1211.8164	1234.4235	1277.1621	1302.1234	1329.7483	1359.4479	1372.0878	1407.4651	1419.7689	1446.0966	1466.1167	1472.5095	1499.37	1508.1389	3024.2069	3038.2582	3045.723	3069.3637	3094.1627	3106.986	3116.5141	3138.252	3151.063	3174.5244	3486.751
CCC12CC3NC3C1O2	CC[C@]12C[C@H]3N[C@H]3[C@H]1O2	
InChI=1S/C7H11NO/c1-2-7-3-4-5(8-4)6(7)9-7/h4-6,8H,2-3H2,1H3	InChI=1S/C7H11NO/c1-2-7-3-4-5(8-4)6(7)9-7/h4-6,8H,2-3H2,1H3/t4-,5-,6-,7+/m1/s1
