20
gdb 72881	3.12411	1.39965	1.17999	2.0941	79.06	-0.2386	0.0705	0.309	1118.2655	0.170857	-403.092377	-403.084124	-403.08318	-403.125087	32.377	
C	-0.1694895628	 1.5206335336	 0.2823260836	-0.475917
C	 0.0533352027	 0.0450916712	 0.0859680526	 0.456754
C	-1.1638028398	-0.9230264725	 0.0244974587	-0.368159
C	-0.4005684247	-1.8760616848	 0.9641218676	 0.366717
C	-0.9732918954	-2.7410849629	 2.0164369644	-0.318675
N	-0.269017663	-3.3262353582	 0.8554629539	-0.359463
C	 0.8016437154	-0.9324279709	 1.0540823976	-0.206277
C	 1.7917141576	-1.0970232077	-0.1057210091	-0.088379
O	 0.9992530917	-0.2469985695	-0.9727752436	-0.333139
H	 0.7785001801	 2.0374563883	 0.4582877343	 0.123776
H	-0.630464788	 1.9541893342	-0.6126342976	 0.12901
H	-0.8343743614	 1.7069769155	 1.131859011	 0.115921
H	-2.0881066342	-0.520637643	 0.4511753324	 0.101187
H	-1.3605627821	-1.2966786733	-0.9842593694	 0.109912
H	-0.4593442958	-2.861441056	 2.9670082484	 0.11792
H	-2.0560709774	-2.8295682106	 2.0730933558	 0.11097
H	-0.9441545221	-3.6881949893	 0.1858522104	 0.23147
H	 1.1829209772	-0.6677401241	 2.0401623611	 0.074618
H	 2.7839354299	-0.6638899916	 0.071485104	 0.097053
H	 1.9018498124	-2.1144997785	-0.4966402362	 0.114702
65.4298	207.0359	211.5904	231.6749	266.8959	312.3941	363.6502	388.2814	498.1091	529.5626	655.252	723.9964	819.0576	849.1729	850.7487	904.4702	918.5092	928.3891	949.3248	972.4328	979.5525	1000.448	1036.5011	1075.4186	1104.8714	1116.4981	1143.523	1163.8626	1180.5504	1188.2409	1218.4901	1257.6273	1275.2928	1292.4573	1325.9781	1347.472	1407.424	1414.7687	1460.3814	1480.3671	1488.8753	1510.8018	1522.0333	3016.5802	3030.8727	3044.2635	3070.4042	3096.5913	3098.6378	3103.4744	3112.5081	3112.8463	3180.8665	3493.2839
CC12CC3(CN3)C1CO2	C[C@]12C[C@]3(CN3)[C@H]1CO2	
InChI=1S/C7H11NO/c1-6-3-7(4-8-7)5(6)2-9-6/h5,8H,2-4H2,1H3	InChI=1S/C7H11NO/c1-6-3-7(4-8-7)5(6)2-9-6/h5,8H,2-4H2,1H3/t5-,6-,7-/m0/s1
