19
gdb 51797	4.18296	0.96395	0.85992	3.8145	76.16	-0.2429	-0.0169	0.226	1348.0651	0.159294	-423.028044	-423.019692	-423.018748	-423.062164	30.901	
O	-0.1462217073	-0.0082686073	-0.158528562	-0.243748
C	-0.0053190309	 1.185429464	-0.0702597547	 0.15452
C	 1.3343017288	 1.8908556469	-0.1163116471	-0.29052
C	 1.4086055604	 2.9261797183	-1.2439002778	 0.103365
O	 0.3715995272	 3.8884990067	-1.0387909237	-0.272793
C	 0.7402187622	 5.0995359067	-1.6971853238	-0.094996
C	 2.2558133386	 5.1540222409	-1.6252171221	-0.055674
C	 2.8585420174	 4.8237892361	-0.2843886183	-0.289941
C	 2.691738216	 3.7405983385	-1.3206219994	-0.059331
H	-0.8772737815	 1.8625725315	 0.0499891158	 0.095916
H	 1.4836513208	 2.4111019819	 0.8385388602	 0.120588
H	 2.1202010609	 1.1403401222	-0.2383772397	 0.118217
H	 1.2620865553	 2.4132589332	-2.2101018005	 0.080011
H	 0.4090166203	 5.0952298121	-2.747727006	 0.097124
H	 0.2302326237	 5.9169179536	-1.1769817751	 0.111846
H	 2.792716431	 5.7806518291	-2.3269960623	 0.09389
H	 3.8668758172	 5.1707495661	-0.0898995543	 0.11545
H	 2.2057692696	 4.8189479692	 0.583248999	 0.122022
H	 3.56194021	 3.2935676706	-1.7859136682	 0.094055
44.1562	71.0245	141.0374	190.4607	267.3727	349.8694	397.8602	436.4554	542.2358	640.9252	716.7912	779.9408	825.6904	842.1435	855.4016	910.3324	937.7656	987.0944	993.8878	1034.5878	1070.9866	1078.3277	1080.5752	1096.5515	1112.812	1123.0451	1133.1775	1195.2329	1222.3792	1244.9647	1284.0613	1329.8798	1342.4811	1360.7907	1388.4849	1404.9944	1425.5569	1452.8285	1479.9766	1516.4016	1828.9842	2914.9291	2953.0664	2981.5714	3033.3147	3071.5251	3107.8995	3130.1866	3182.2236	3189.9924	3219.8563
O=CCC1OCC2CC12	O=CC[C@H]1OC[C@H]2C[C@@H]12	
InChI=1S/C7H10O2/c8-2-1-7-6-3-5(6)4-9-7/h2,5-7H,1,3-4H2	InChI=1S/C7H10O2/c8-2-1-7-6-3-5(6)4-9-7/h2,5-7H,1,3-4H2/t5-,6-,7-/m1/s1
