13
gdb 131573	7.12722	0.63275	0.60313	4.2697	74.23	-0.2525	-0.0492	0.2032	1732.8787	0.087704	-452.679321	-452.670929	-452.669985	-452.714255	28.581	
O	 0.1536183791	 1.1811955455	 0.7165312005	-0.406558
C	-0.0346566228	 0.0833306957	-0.1653327426	-0.227078
C	-1.4029891027	-0.4031132166	-0.0573730799	 0.224642
C	-2.5293382221	-0.8251882672	 0.0150713497	-0.032439
C	-3.8445938076	-1.318501801	 0.1070981913	 0.137074
C	-5.0258442213	-0.7914312871	-0.3350318221	-0.077243
O	-6.0206493246	-1.6020063605	-0.0234561235	-0.156565
N	-5.4123335933	-2.7275761113	 0.6665540233	-0.008691
N	-4.1828866046	-2.5227033358	 0.717756456	-0.177814
H	 1.07036962	 1.4633263035	 0.6330548207	 0.293888
H	 0.1599518664	 0.3701766163	-1.2118093339	 0.123801
H	 0.6495847964	-0.747701855	 0.0702834209	 0.129296
H	-5.261092963	 0.1199716335	-0.8597140903	 0.177686
25.8775	80.56	96.7539	207.152	218.8895	312.3074	402.4219	489.07	527.3586	531.8116	610.9626	640.9244	722.6015	866.8418	934.9901	974.6953	1022.7151	1042.9719	1071.6439	1158.1535	1244.1544	1247.4719	1272.5763	1324.7405	1456.4517	1495.916	1498.0093	1594.7789	2367.1537	2965.8825	2987.6419	3286.2572	3817.9766
OCC#CC1=CON=N1	OCC#Cc1conn1	
InChI=1S/C5H4N2O2/c8-3-1-2-5-4-9-7-6-5/h4,8H,3H2	InChI=1S/C5H4N2O2/c8-3-1-2-5-4-9-7-6-5/h4,8H,3H2
