13
gdb 25367	6.05752	0.89792	0.782	0.8325	81.26	-0.2541	-0.08	0.174	1324.4523	0.090801	-415.675917	-415.668418	-415.667474	-415.708284	27.084	
O	-0.1640661951	 0.0463798666	-0.0004544043	-0.260424
C	-0.0064653583	 1.2459282063	 0.0081253034	 0.07259
C	 1.293945907	 1.9025151482	-0.001057826	 0.222019
C	 2.5781597089	 1.365193538	-0.0204287047	-0.18341
C	 3.4876655995	 2.4314973224	-0.0214415831	-0.215092
C	 2.742577472	 3.6105101606	-0.0028550043	 0.220473
N	 1.4167408115	 3.2690904132	 0.0093242105	-0.368659
C	 3.1655354262	 4.95843405	 0.0039665396	 0.211493
N	 3.5005162371	 6.0678163248	 0.009741302	-0.332308
H	-0.8748880625	 1.9450115623	 0.0241061583	 0.066276
H	 2.7988675107	 0.3098537015	-0.032112196	 0.144369
H	 4.5647621148	 2.3813923249	-0.0340942385	 0.136269
H	 0.6537743181	 3.9271801813	 0.0237323631	 0.286404
97.1645	127.8187	204.3213	222.1003	264.0697	440.7579	496.8807	540.3644	563.7639	622.6478	649.0132	684.7604	763.5156	825.0719	904.9247	990.1864	1014.9966	1022.2678	1070.4448	1192.1466	1263.8267	1317.4054	1412.1299	1422.2861	1472.3872	1499.4538	1587.0338	1789.8917	2340.1805	2858.6405	3263.9861	3278.1033	3654.4668
O=CC1=CC=C(N1)C#N	O=Cc1ccc([nH]1)C#N	
InChI=1S/C6H4N2O/c7-3-5-1-2-6(4-9)8-5/h1-2,4,8H	InChI=1S/C6H4N2O/c7-3-5-1-2-6(4-9)8-5/h1-2,4,8H
