18
gdb 24330	3.50707	1.53334	1.08085	1.8371	83.32	-0.1951	0.0416	0.2367	1087.6529	0.151545	-364.868499	-364.861342	-364.860398	-364.900115	28.918	
C	 0.004555193	 1.5005622399	-0.1282014716	-0.395807
C	 1.3754399241	 2.0788827055	 0.1144300984	-0.045116
C	 2.4732636331	 1.3679450809	 0.3681195506	-0.045117
C	 2.5315784199	-0.1359080171	 0.4557244241	-0.395807
C	 1.1864484456	-0.7588975763	 0.2227826958	 0.217999
C	 0.8247031205	-2.0877298427	 0.2208794197	-0.198252
N	-0.5205998677	-2.1527904264	-0.0410269379	-0.241281
C	-1.0271774475	-0.888476438	-0.2070330754	-0.198253
C	 0.0113268673	 0.0020972858	-0.0487764848	 0.217998
H	-0.7007084749	 1.9324841201	 0.5982542413	 0.111296
H	-0.3609752657	 1.8435838947	-1.1082416789	 0.111343
H	 1.4454318899	 3.1635056591	 0.0732635543	 0.077842
H	 3.4149603334	 1.8880623733	 0.5283870093	 0.077842
H	 3.2715960229	-0.5088278385	-0.2688868978	 0.111345
H	 2.9359766358	-0.4225897583	 1.4385596318	 0.111294
H	 1.4039652592	-2.983272957	 0.3820039167	 0.112302
H	-1.0554884735	-3.0005978305	-0.1022278325	 0.25807
H	-2.0726654054	-0.7318543645	-0.421340673	 0.112302
70.4285	212.9063	279.1488	385.5892	390.046	461.1669	476.6694	577.1903	635.3753	649.6488	678.4689	691.2209	710.5769	746.5173	873.2216	914.6063	922.05	976.715	978.6966	979.6798	1013.6344	1085.3344	1122.4619	1193.4197	1198.8377	1206.1491	1210.2497	1228.4982	1295.3323	1357.4742	1374.1514	1415.1224	1415.6211	1473.4979	1476.1814	1478.2834	1561.3873	1614.8832	1732.122	2984.0988	2984.5806	2993.8864	2994.3589	3138.8582	3162.9185	3253.36	3256.2866	3689.5272
C1C=CCC2=CNC=C12	C1C=CCc2c[nH]cc12	
InChI=1S/C8H9N/c1-2-4-8-6-9-5-7(8)3-1/h1-2,5-6,9H,3-4H2	InChI=1S/C8H9N/c1-2-4-8-6-9-5-7(8)3-1/h1-2,5-6,9H,3-4H2
