19
gdb 114851	3.1976	1.30716	1.24448	2.1757	69.35	-0.2546	0.0804	0.3349	1083.1164	0.161953	-460.166365	-460.15886	-460.157916	-460.198504	29.705	
O	-0.0502259081	 1.5322196749	 0.0167784873	-0.42169
C	 0.0855708808	 0.1283490895	 0.1341062167	-0.080939
C	-1.2732216071	-0.5505089051	 0.0486854711	 0.114557
O	-1.8695784441	-0.2428362239	-1.2361843822	-0.311799
C	-2.3114573506	-1.5085520215	-1.7366707317	 0.194093
C	-1.0983814927	-2.2647451497	-2.309790705	-0.234866
C	-0.4190702469	-2.7266367847	-0.9834566085	-0.229648
C	-1.3662848447	-2.0916660577	 0.057023743	 0.009646
O	-2.6504664283	-2.2481695151	-0.5816880281	-0.248473
H	-0.5570612719	 1.6843789126	-0.7896937663	 0.293019
H	 0.7606175062	-0.268316649	-0.638524963	 0.086938
H	 0.5414227508	-0.0640159557	 1.1120491712	 0.107332
H	-1.9182090633	-0.136634143	 0.8347888397	 0.092608
H	-3.1772379131	-1.3672468635	-2.3828991442	 0.094255
H	-1.4145317354	-3.1104757876	-2.9252763045	 0.109114
H	-0.47279835	-1.605704934	-2.914456783	 0.110847
H	-0.4414049763	-3.813511181	-0.8812702565	 0.112844
H	 0.6183687328	-2.4019755826	-0.888461112	 0.111032
H	-1.3802007879	-2.5487604331	 1.045140566	 0.091131
96.6349	132.0033	201.9965	301.8613	383.677	435.9247	446.4701	491.2761	575.3631	641.6094	786.8574	812.9452	837.3283	838.5086	862.0792	895.3749	940.1079	974.3113	992.1226	1024.6455	1037.5037	1064.9878	1090.169	1096.1201	1115.1185	1155.1221	1226.5243	1235.3403	1238.4687	1260.6756	1305.6263	1314.264	1329.7771	1335.5442	1353.8808	1369.8263	1407.8543	1440.9322	1479.3189	1497.614	1502.7251	2994.7432	3024.5881	3069.112	3069.9739	3081.2179	3116.938	3133.2624	3133.9839	3140.4579	3796.1855
OCC1OC2CCC1O2	OC[C@H]1O[C@H]2CC[C@@H]1O2	
InChI=1S/C6H10O3/c7-3-5-4-1-2-6(8-4)9-5/h4-7H,1-3H2	InChI=1S/C6H10O3/c7-3-5-4-1-2-6(8-4)9-5/h4-7H,1-3H2/t4-,5+,6-/m0/s1
