18
gdb 126853	2.10799	1.64265	0.99626	4.9026	74.81	-0.2287	0.0157	0.2444	1208.1629	0.14785	-435.258557	-435.249491	-435.248547	-435.293461	31.868	
C	 0.5063212563	 1.8929975953	-0.0191285542	-0.383312
C	 0.5337741348	 0.3821144589	-0.2538255107	-0.147988
N	 0.783906822	-0.3707400857	 0.9644359002	-0.042819
N	 2.0242616914	-0.8483296701	 1.2597967764	-0.15968
N	 1.9521113696	-1.4396501563	 2.4132793879	-0.188807
C	 0.678424672	-1.3580119049	 2.8936010807	-0.204565
C	-0.0743020365	-0.6696537244	 1.9663027902	 0.427825
O	-1.3556603442	-0.2824223655	 1.872671556	-0.262328
C	-2.1795077566	-0.6739012025	 2.9667021109	-0.253123
H	 1.4575865425	 2.2341792257	 0.3978058973	 0.142118
H	 0.334978588	 2.4140945572	-0.9657200684	 0.123465
H	-0.2963527056	 2.1643508699	 0.6717955741	 0.134738
H	-0.4156002459	 0.0377255091	-0.674667701	 0.129879
H	 1.3348373596	 0.1044336271	-0.9419413265	 0.144591
H	 0.3926017369	-1.7873590686	 3.8384373796	 0.119038
H	-1.8166115693	-0.2349900068	 3.9033901802	 0.137582
H	-3.1794761021	-0.2992120989	 2.747488845	 0.145463
H	-2.2052175532	-1.7654957496	 3.0631074226	 0.137923
35.9289	87.7075	134.8803	176.8414	187.6682	239.2723	308.3581	319.0474	417.3622	518.6731	635.4835	701.6608	715.8233	743.4621	786.0708	790.6492	974.0005	981.7738	1044.2652	1078.8526	1104.3879	1133.6603	1182.3154	1217.2772	1221.7197	1246.5553	1302.8072	1346.2817	1370.2705	1390.8137	1408.6539	1471.7291	1473.2722	1486.077	1490.7118	1503.5789	1505.699	1519.0556	1619.8727	3020.9856	3047.0317	3065.5097	3086.8538	3114.7603	3122.9678	3137.9131	3151.3646	3278.8455
CCN1N=NC=C1OC	CCn1nncc1OC	
InChI=1S/C5H9N3O/c1-3-8-5(9-2)4-6-7-8/h4H,3H2,1-2H3	InChI=1S/C5H9N3O/c1-3-8-5(9-2)4-6-7-8/h4H,3H2,1-2H3
