18
gdb 78409	3.06455	1.42962	1.26592	3.7827	76.39	-0.2168	-0.0131	0.2037	1061.1324	0.146975	-401.889993	-401.882334	-401.88139	-401.922035	30.282	
C	-0.1466496787	 1.2595405952	 0.1177391473	-0.322301
N	 0.1267221508	-0.1658106784	-0.0406275474	-0.106166
C	 0.8150430127	-0.4932056979	-1.301087763	-0.03565
C	 1.5645948247	-0.4896040176	-0.0084291773	-0.030206
C	 1.6943891545	-2.0305721864	-0.0382651917	-0.192481
C	 0.9076478867	-2.0358246271	-1.3997700432	-0.065153
C	-0.2451574958	-2.8656204931	-0.7649787027	-0.359334
C	 0.5085569322	-2.8141577105	 0.5847396463	 0.429306
O	 0.297768364	-3.2697404433	 1.6684247508	-0.302132
H	 0.627524146	 1.9114904471	-0.3207868805	 0.099883
H	-1.1031484597	 1.4955388143	-0.3585054167	 0.127324
H	-0.2263850154	 1.4908617374	 1.1840902568	 0.132309
H	 0.8236460938	 0.2222752783	-2.1152119059	 0.093563
H	 2.2740756462	 0.2215504393	 0.3970150926	 0.098366
H	 2.6991736588	-2.4385059923	 0.0716863992	 0.092386
H	 1.3733982331	-2.4185199993	-2.3057098088	 0.081146
H	-1.2427377568	-2.4238392193	-0.7559358006	 0.135866
H	-0.3031960869	-3.8893166062	-1.1500121553	 0.123273
85.4201	189.3345	228.8027	279.4391	301.1849	371.3136	424.3136	485.6444	572.348	636.9177	734.8889	790.9641	797.2515	817.9286	844.8868	880.7432	911.989	933.9243	986.673	1008.5984	1027.8252	1042.1589	1090.9894	1092.5586	1127.272	1149.8281	1166.2048	1197.2969	1207.9697	1224.1883	1242.4168	1277.229	1303.4107	1364.8025	1419.999	1454.658	1494.1315	1497.7769	1895.4334	2962.6826	3057.539	3072.1198	3109.8969	3119.1849	3130.1041	3136.638	3176.3155	3191.236
CN1C2C1C1C2CC1=O	CN1[C@H]2[C@@H]1[C@@H]1[C@H]2CC1=O	
InChI=1S/C7H9NO/c1-8-6-3-2-4(9)5(3)7(6)8/h3,5-7H,2H2,1H3	InChI=1S/C7H9NO/c1-8-6-3-2-4(9)5(3)7(6)8/h3,5-7H,2H2,1H3/t3-,5-,6-,7+,8?/m1/s1
