17
gdb 80669	2.65288	1.7869	1.32198	2.1531	67.1	-0.2567	-0.0328	0.2239	967.2833	0.137133	-458.969499	-458.96227	-458.961326	-459.00112	28.783	
O	 0.0118444962	 1.4195156558	 0.0648677805	-0.442415
C	-0.0268670652	 0.0213102961	 0.0148172421	 0.057277
C	-1.4628440115	-0.5306559911	-0.0475274123	 0.05541
C	-1.9799952419	-0.6546737889	-1.4933892888	-0.265915
C	-1.2221106851	-2.000613751	-1.4199470084	 0.082751
C	 0.2677662036	-1.8404722617	-1.7650219285	-0.310549
C	 0.7183804679	-0.4902801651	-1.2280100989	 0.347586
O	 1.5245217173	 0.2257881424	-1.7798896241	-0.329173
O	-1.3364377827	-1.9763841434	 0.0299236759	-0.290267
H	 0.7313825937	 1.6783713993	-0.5319711299	 0.294876
H	 0.4438415018	-0.432301027	 0.9045732208	 0.101709
H	-2.102988431	-0.1067889624	 0.7283025196	 0.096668
H	-3.0603777516	-0.795106803	-1.5332634809	 0.120594
H	-1.6649210219	 0.0940868612	-2.2239849358	 0.120077
H	-1.668418712	-2.8952816555	-1.8593262816	 0.091164
H	 0.8280772944	-2.6482059003	-1.2801245803	 0.141886
H	 0.472395498	-1.8773987354	-2.8392303693	 0.128321
91.6868	189.5125	299.7673	342.3513	373.9069	437.0005	470.5506	485.5559	519.2264	614.8999	669.1498	759.5432	849.2507	866.8367	884.222	922.621	954.4021	974.0278	1009.4049	1066.0918	1073.1276	1096.9786	1117.7841	1154.7482	1193.7239	1221.4825	1244.9918	1252.3883	1292.2955	1307.6836	1344.1221	1361.6969	1364.2852	1425.389	1444.8218	1495.8282	1804.376	2957.6121	3047.0417	3075.58	3090.9316	3101.3347	3103.5814	3142.8677	3699.8553
OC1C2CC(CC1=O)O2	O[C@H]1[C@H]2C[C@@H](CC1=O)O2	
InChI=1S/C6H8O3/c7-4-1-3-2-5(9-3)6(4)8/h3,5-6,8H,1-2H2	InChI=1S/C6H8O3/c7-4-1-3-2-5(9-3)6(4)8/h3,5-6,8H,1-2H2/t3-,5-,6-/m1/s1
