17
gdb 73914	2.91092	1.3968	1.02171	1.6543	84.36	-0.2234	-0.0275	0.196	1156.5504	0.134556	-384.658765	-384.650427	-384.649483	-384.691485	31.842	
C	-0.0445428572	 1.5196170064	 0.1348913026	-0.523879
C	-0.0320072786	 0.0313196856	 0.0321112964	 0.222225
C	-0.0243533311	-0.7208938009	-1.0906370269	 0.086068
C	-0.0304296804	-2.2161936939	-0.7805040534	-0.351932
C	 0.0387931451	-2.2532208607	 0.7380681648	 0.029997
O	 1.2212106	-1.6695073096	 1.2855229387	-0.254334
C	 0.0177288558	-0.8650236297	 1.2274037871	-0.049708
C	 0.0153191382	-0.2410203163	-2.419902266	 0.213562
C	 0.0377502009	 0.1290470578	-3.5676136914	-0.422103
H	 0.8642807419	 1.8857812242	 0.6289244079	 0.140061
H	-0.1135476198	 1.9844944574	-0.8509387572	 0.141397
H	-0.8914032667	 1.8653815078	 0.7412316052	 0.129234
H	-0.9436972913	-2.6964554877	-1.151857265	 0.119829
H	 0.8185822994	-2.7318369595	-1.2422387659	 0.134101
H	-0.3735205632	-3.0894823865	 1.2959651179	 0.098124
H	-0.3776327506	-0.5587653788	 2.1917464735	 0.095861
H	 0.0622374075	 0.4640856443	-4.5748070384	 0.191496
119.0252	141.4951	160.8076	193.656	292.2214	316.0212	377.9101	498.8041	514.7924	568.7401	594.5399	617.106	642.7652	648.1336	767.0912	836.7872	859.8671	898.4618	938.1483	1004.9226	1018.8666	1056.3201	1096.1514	1102.3354	1176.0696	1187.9386	1238.5357	1259.8913	1309.126	1352.7368	1409.3186	1413.1067	1462.6527	1479.3687	1482.3513	1671.0117	2214.6037	3019.5619	3038.5333	3065.6078	3079.3487	3126.4412	3148.2705	3161.0613	3502.7215
CC1=C(CC2OC12)C#C	CC1=C(C[C@H]2O[C@@H]12)C#C	
InChI=1S/C8H8O/c1-3-6-4-7-8(9-7)5(6)2/h1,7-8H,4H2,2H3	InChI=1S/C8H8O/c1-3-6-4-7-8(9-7)5(6)2/h1,7-8H,4H2,2H3/t7-,8+/m1/s1
