19
gdb 98455	2.98676	1.16777	0.98291	3.9686	72.06	-0.2609	-0.0267	0.2343	1249.5371	0.156903	-460.1638	-460.154326	-460.153381	-460.198948	35.031	
O	 0.0888217045	 1.4215369518	-0.0050104721	-0.427893
C	 0.0571626751	 0.0259398754	-0.0581046634	-0.132637
C	-1.3714849674	-0.489125741	-0.0060991032	 0.329943
O	-2.2897833654	 0.3057927545	 0.0378033953	-0.343889
C	-1.6114983751	-1.989072913	 0.0229753001	 0.294989
O	-0.3975189785	-2.6104748187	-0.3257024327	-0.481066
C	-2.3045282584	-2.411327195	 1.3661738841	-0.266944
C	-3.6701155677	-2.3977039442	 0.6313474446	-0.205766
C	-2.9169966805	-2.4047736346	-0.7247508186	-0.260589
H	-0.8416889971	 1.6957918695	 0.0245346031	 0.291685
H	 0.5234174372	-0.3620845535	-0.976707484	 0.131423
H	 0.6198222433	-0.4267969572	 0.7730552506	 0.123134
H	-0.501690856	-3.5610834194	-0.2213749316	 0.283438
H	-1.9848595811	-3.4228209132	 1.63861012	 0.097081
H	-2.1721265006	-1.7569436652	 2.2303631771	 0.116557
H	-4.3438607794	-3.2326075784	 0.8310847247	 0.10124
H	-4.2017062156	-1.4588150964	 0.7866639666	 0.134242
H	-3.2697540897	-1.7307266012	-1.5067848527	 0.119774
H	-2.8031483176	-3.41146177	-1.1388783378	 0.095278
20.8099	125.0621	139.3039	213.4113	226.2995	250.3544	313.3931	352.4376	381.1949	423.7107	438.3477	568.2497	576.7239	651.8719	771.3119	784.519	822.9685	890.2833	938.5101	950.6536	977.0069	1042.9207	1046.3959	1060.3331	1127.192	1157.1333	1201.1803	1211.0336	1219.711	1236.617	1246.841	1278.0298	1283.0407	1304.5164	1404.2846	1447.6538	1462.9422	1476.6223	1478.6487	1495.8788	1783.5123	2995.4934	3011.1363	3047.626	3057.6006	3083.7902	3111.4273	3124.9202	3147.8373	3685.1321	3826.7417
OCC(=O)C1(O)CCC1	OCC(=O)C1(O)CCC1	
InChI=1S/C6H10O3/c7-4-5(8)6(9)2-1-3-6/h7,9H,1-4H2	InChI=1S/C6H10O3/c7-4-5(8)6(9)2-1-3-6/h7,9H,1-4H2
