21
gdb 41335	2.92983	1.82075	1.50536	1.5043	80.6	-0.2354	0.0839	0.3193	966.9491	0.186646	-387.085479	-387.078751	-387.077807	-387.116071	29.29	
C	-0.0459964211	 1.5245947255	-0.1584960746	-0.279352
C	 1.5078456364	 1.5246965477	 0.0676954458	-0.349816
C	 1.3516566231	 0.1607431778	 0.7780069394	 0.341738
C	 2.1406628889	-1.1481671569	 0.7258127473	-0.320138
C	 1.1316090847	-2.0894946338	 1.4897162489	-0.218553
C	 0.0507459713	-1.1109701639	 2.0346728416	 0.105005
C	 0.8675448993	 0.1665382612	 2.2509452319	-0.26897
O	-0.8543123473	-0.719409123	 0.977405418	-0.292099
C	-0.0044590285	-0.0152685275	 0.073770086	 0.135785
H	-0.5859103326	 2.0511383906	 0.630571791	 0.113466
H	-0.4101115566	 1.8688566401	-1.1284142423	 0.097959
H	 2.0492459281	 1.4397816592	-0.8790219304	 0.104807
H	 1.938514275	 2.3475028589	 0.6425261464	 0.100657
H	 2.3270672765	-1.4840325477	-0.298564284	 0.09519
H	 3.1056875875	-1.0903337996	 1.2406792868	 0.092863
H	 0.6745573067	-2.8342354329	 0.8335990531	 0.10954
H	 1.6179491457	-2.6228623295	 2.3116292246	 0.098951
H	-0.547963802	-1.4974266486	 2.8596102916	 0.071581
H	 1.6905211787	 0.0597389053	 2.9639440335	 0.09254
H	 0.2470470036	 1.0191255472	 2.5308077978	 0.101406
H	 0.0549543725	-0.5541026301	-0.8801683624	 0.067441
194.2293	253.7075	311.5866	379.8532	411.0309	459.4571	526.5928	635.5573	663.5726	743.1994	780.1217	793.2922	818.3983	863.0002	871.4382	906.0859	922.7827	934.406	941.0742	979.9357	998.9295	1014.298	1065.9648	1074.4571	1116.0977	1127.7045	1147.7049	1174.3343	1203.2192	1216.8217	1227.7396	1236.9485	1255.1482	1264.8977	1276.1961	1298.7905	1322.869	1329.1243	1345.7819	1378.9843	1476.793	1479.1314	1490.7081	1498.3337	1513.3214	3019.6492	3038.8696	3058.1495	3059.2996	3064.1545	3076.8015	3083.0095	3107.8625	3111.9276	3121.1392	3127.2044	3136.4087
C1CC23CCC(C2)OC13	C1C[C@@]23CC[C@@H](C2)O[C@@H]13	
InChI=1S/C8H12O/c1-3-8-4-2-7(8)9-6(1)5-8/h6-7H,1-5H2	InChI=1S/C8H12O/c1-3-8-4-2-7(8)9-6(1)5-8/h6-7H,1-5H2/t6-,7-,8-/m0/s1
