21
gdb 83877	2.1188	1.80022	1.32282	1.892	77.44	-0.2323	0.0748	0.3071	1071.5568	0.184091	-424.213827	-424.205516	-424.204572	-424.246255	33.258	
C	-0.0277701225	 1.5820762131	-0.0325777927	-0.400301
C	 0.0162470731	 0.0489408917	-0.010638601	 0.016728
C	 0.5688015722	-0.5322365689	-1.3288790913	-0.22116
C	 0.968053056	-1.9942832684	-1.161704252	-0.081332
O	 2.0176048011	-2.1291359832	-0.2002118322	-0.267676
C	 1.6777560726	-1.6810040113	 1.0852903844	 0.000266
C	 2.258537838	-0.3282334597	 1.4231049685	 0.095323
O	 3.0601510775	 0.2790672126	 0.4561966317	-0.428041
C	 0.7642021955	-0.4778951765	 1.2107460802	-0.110208
H	 0.985255844	 1.9876941074	-0.1038805565	 0.141984
H	-0.6090230398	 1.9458679131	-0.8872421894	 0.1044
H	-0.4887163886	 1.9769688215	 0.8788974948	 0.107578
H	-1.0138792285	-0.3230859496	 0.0858050614	 0.071828
H	-0.1875581628	-0.4428937623	-2.1174475402	 0.095495
H	 1.4446328207	 0.0383030901	-1.6556146	 0.110248
H	 0.10338134	-2.6036336651	-0.8568708018	 0.094158
H	 1.3679024748	-2.4117170356	-2.0899825588	 0.108435
H	 1.6473815025	-2.4807810931	 1.8214030993	 0.092319
H	 2.6067797585	-0.1469401435	 2.4368449617	 0.09317
H	 3.2786424454	-0.420447935	-0.177206866	 0.289826
H	 0.1838125004	-0.4439371474	 2.1298352101	 0.086959
109.9328	155.9578	230.8378	260.4746	286.5199	328.0876	394.3385	414.7955	444.1262	498.1117	603.5431	650.9592	688.2612	733.705	783.8922	816.5335	888.0611	907.7376	973.725	997.5962	1011.474	1038.6089	1048.7817	1081.8292	1094.8675	1117.0021	1148.8017	1167.5113	1203.1605	1236.9775	1245.7403	1287.6186	1332.2222	1336.954	1345.6212	1365.8427	1377.5544	1392.2863	1409.2573	1412.9896	1439.3473	1485.1054	1496.7018	1500.7084	1507.332	2990.1385	2993.8393	3030.3233	3038.5461	3083.5522	3092.1403	3094.6716	3119.5597	3123.1833	3128.1636	3142.9065	3718.2941
CC1CCOC2C(O)C12	C[C@H]1CCO[C@H]2[C@@H](O)[C@@H]12	
InChI=1S/C7H12O2/c1-4-2-3-9-7-5(4)6(7)8/h4-8H,2-3H2,1H3	InChI=1S/C7H12O2/c1-4-2-3-9-7-5(4)6(7)8/h4-8H,2-3H2,1H3/t4-,5+,6-,7+/m0/s1
