18
gdb 97962	5.08059	0.49692	0.45759	2.8082	78.74	-0.2424	0.028	0.2704	2282.7478	0.144703	-439.084629	-439.073375	-439.072431	-439.125445	37.018	
N	-0.0859825439	 1.1976439958	-0.6323887172	-0.529766
C	-0.0624510439	 0.0680594968	 0.133481137	 0.415412
O	 0.8280459425	-0.1615871732	 0.9291042415	-0.354519
C	-1.2441257822	-0.8744490284	-0.0880719684	-0.30365
C	-1.0045081971	-2.2457225523	 0.5646671184	-0.355536
C	-2.1583598438	-3.1263628934	 0.4307676796	-0.002554
C	-3.1287287839	-3.8271297312	 0.3021340377	 0.169376
C	-4.2884244828	-4.6993980498	 0.1723243686	-0.217225
O	-5.0461726479	-4.3232407256	-0.9737474136	-0.41183
H	 0.6274385592	 1.8916497287	-0.4814875967	 0.260712
H	-0.8482900348	 1.4127436134	-1.2504660425	 0.25905
H	-2.1428130925	-0.4125562366	 0.3386807976	 0.137337
H	-1.4393434368	-0.9888949148	-1.1600399455	 0.126551
H	-0.1168207529	-2.7083486419	 0.1181575871	 0.139076
H	-0.7556220005	-2.0922281667	 1.6198537761	 0.150991
H	-3.946714361	-5.7447319539	 0.0955873164	 0.115007
H	-4.8977238806	-4.6320110488	 1.0886634469	 0.113493
H	-5.7972649471	-4.9230041781	-1.0277469529	 0.288078
8.2576	20.4039	60.4165	63.9835	124.2899	155.1876	200.3842	238.1783	260.6104	354.6532	390.9617	476.4836	508.2552	565.9568	616.4309	642.9441	778.9079	787.7691	864.6394	1025.9562	1034.5481	1038.4836	1049.8093	1094.4259	1152.9696	1175.0416	1243.5999	1246.4847	1258.8296	1304.1026	1342.235	1403.0133	1459.6001	1463.5577	1475.6716	1505.018	1617.6845	1796.1142	2374.0888	2960.1082	2977.372	3036.2394	3046.3898	3068.8744	3088.7976	3603.246	3739.851	3816.3626
NC(=O)CCC#CCO	NC(=O)CCC#CCO	
InChI=1S/C6H9NO2/c7-6(9)4-2-1-3-5-8/h8H,2,4-5H2,(H2,7,9)	InChI=1S/C6H9NO2/c7-6(9)4-2-1-3-5-8/h8H,2,4-5H2,(H2,7,9)
