29
gdb 101611	2.62081	0.81997	0.75438	0.064	99.41	-0.291	0.0734	0.3644	1773.4255	0.272332	-354.777871	-354.76565	-354.764706	-354.814963	46.146	
C	 0.3426280062	 1.4113111859	 0.5887965507	-0.391795
C	 0.4175713453	-0.1086224746	 0.4142046757	-0.172611
C	-0.5158251841	-0.6919102889	-0.6666235098	 0.051611
C	-0.201263014	-0.1155290901	-2.0569031496	-0.397712
C	-0.4418953265	-2.2420226575	-0.6671363127	-0.209444
C	-1.7740557718	-3.0300037589	-0.7883392671	 0.264868
C	-2.566955654	-2.6283258045	-2.0453796134	-0.398374
C	-1.4288318336	-4.5286295537	-0.879691866	-0.400407
C	-2.6475466619	-2.8022620634	 0.4604946852	-0.399501
H	 0.9664764926	 1.7383142593	 1.4268316586	 0.110142
H	 0.6859210198	 1.9467787635	-0.3014645644	 0.117574
H	-0.6842571279	 1.7351761004	 0.795157466	 0.111122
H	 1.4522615719	-0.4019696486	 0.1862904514	 0.091306
H	 0.174290314	-0.5862039929	 1.3719443531	 0.091043
H	-1.5375452558	-0.3862473464	-0.4024485924	 0.067375
H	 0.8423239693	-0.3173002457	-2.3287046675	 0.108763
H	-0.8340427571	-0.5617765281	-2.8286590297	 0.113851
H	-0.3518325697	 0.9674073826	-2.0952116578	 0.11034
H	 0.2241501031	-2.5625202902	-1.4797757522	 0.082914
H	 0.0432782614	-2.5770965553	 0.2589875279	 0.082695
H	-1.9786395586	-2.7890433773	-2.9555579752	 0.107751
H	-3.479930798	-3.2282333945	-2.1315918507	 0.104174
H	-2.8683930525	-1.5766063983	-2.0197224968	 0.112554
H	-0.8586222481	-4.8582721948	-0.0040045763	 0.106419
H	-2.3367685092	-5.1394684426	-0.9357444658	 0.104648
H	-0.8268530303	-4.7421621514	-1.7699073592	 0.106576
H	-2.9332112838	-1.7519320015	 0.5765491105	 0.111168
H	-3.5721645988	-3.3869306126	 0.3994294036	 0.10667
H	-2.1200913776	-3.1080711399	 1.3710449239	 0.10628
45.7486	77.3371	107.5177	174.5889	214.7154	223.2527	252.5187	264.4255	270.5225	280.8273	294.3544	306.5414	362.235	383.8625	409.5721	425.0694	482.8919	511.9726	742.0661	777.3233	837.4071	869.716	893.552	933.3323	934.9923	955.9137	959.4143	970.2561	1004.994	1037.6621	1046.2673	1052.5777	1121.5573	1137.3715	1180.3775	1221.2179	1231.324	1267.4204	1289.5719	1306.4871	1318.885	1367.0015	1378.0399	1385.764	1398.5876	1401.5793	1409.6277	1413.2261	1432.6103	1479.2537	1480.86	1483.8711	1485.8929	1489.7811	1495.6756	1499.236	1505.6886	1507.9683	1509.5057	1514.239	1518.2077	3002.3342	3002.4389	3013.0816	3020.2267	3022.5646	3028.9849	3030.3434	3031.3001	3038.5117	3045.7747	3086.1796	3087.4504	3091.7101	3094.4068	3094.4565	3095.3135	3096.9298	3101.3608	3106.0972	3116.0746
CCC(C)CC(C)(C)C	CC[C@@H](C)CC(C)(C)C	
InChI=1S/C9H20/c1-6-8(2)7-9(3,4)5/h8H,6-7H2,1-5H3	InChI=1S/C9H20/c1-6-8(2)7-9(3,4)5/h8H,6-7H2,1-5H3/t8-/m1/s1
