14
gdb 18174	4.97666	1.60541	1.30748	1.8753	72.15	-0.233	-0.032	0.201	903.7179	0.106881	-345.36078	-345.35411	-345.353166	-345.391465	25.889	
C	 0.0909892676	-1.1908145034	-0.0207871191	-0.424389
C	 0.0012285123	 0.0107549298	 0.0003561847	 0.209111
C	-0.0476717993	 1.4231542692	 0.0054654214	 0.229885
C	-1.1370410902	 2.2099521354	 0.0864299016	-0.192595
C	-0.7951361076	 3.6810151209	 0.0273744258	-0.281449
C	 0.7278297566	 3.6826169961	-0.0246693911	 0.04252
O	 1.3507841783	 3.1020930851	 1.1232906601	-0.248765
C	 1.186836507	 2.2843951464	-0.0509831536	-0.094552
H	 0.1567535334	-2.2505437893	-0.0287416113	 0.194585
H	-2.1499081475	 1.8457051918	 0.2084797923	 0.11027
H	-1.2250826054	 4.1605654745	-0.8619355074	 0.119906
H	-1.1730058659	 4.2307752322	 0.8981694491	 0.132551
H	 1.2711998299	 4.499311238	-0.4913986923	 0.099582
H	 2.1031202508	 1.9352103833	-0.51560237	 0.103341
135.9056	157.9968	299.6385	365.4459	424.5351	506.9938	536.7261	588.2181	642.5651	661.6537	745.5147	824.0622	829.9044	866.1871	885.5621	928.4462	957.8001	1014.3408	1043.024	1101.6157	1178.1589	1182.1184	1253.1356	1264.7898	1314.1578	1338.5313	1409.2055	1455.6254	1652.1309	2223.6204	3024.942	3060.1106	3153.8012	3175.696	3210.3621	3502.8453
C#CC1=CCC2OC12	C#CC1=CC[C@H]2O[C@@H]12	
InChI=1S/C7H6O/c1-2-5-3-4-6-7(5)8-6/h1,3,6-7H,4H2	InChI=1S/C7H6O/c1-2-5-3-4-6-7(5)8-6/h1,3,6-7H,4H2/t6-,7+/m1/s1
