16
gdb 97516	4.87003	0.60006	0.53956	7.3478	82.11	-0.2795	-0.0683	0.2112	1974.8859	0.121346	-400.754483	-400.744321	-400.743377	-400.792689	33.672	
C	-0.0105672485	 1.5993027365	-0.0091684342	-0.372254
C	 0.0200467401	 0.060603276	-0.0360214487	-0.32784
C	 0.6899602733	-0.4894921222	-1.2052198133	 0.198494
C	 1.2453638497	-0.9492944585	-2.1744427607	-0.054844
C	 1.9098014209	-1.491750478	-3.3340329868	 0.2156
O	 2.0428185548	-2.6740359031	-3.538254583	-0.256726
C	 2.4410346742	-0.4158340654	-4.3004102913	-0.441718
C	 3.1122693123	-0.9656460991	-5.4714600099	 0.271382
N	 3.6489900798	-1.3732004944	-6.4086470242	-0.293276
H	 1.0025583448	 2.0095637682	-0.0073899219	 0.134781
H	-0.5366186637	 1.994214657	-0.8821269126	 0.134752
H	-0.525072438	 1.9483487165	 0.8900410731	 0.12873
H	 0.5193214651	-0.3225341926	 0.8631638812	 0.151537
H	-1.0021175603	-0.3376661233	-0.0016112849	 0.151537
H	 1.6021827994	 0.2177112664	-4.61271677	 0.179927
H	 3.125899216	 0.2403291459	-3.7499514928	 0.179921
14.0143	38.7284	56.4758	130.9042	146.7861	201.0893	232.3219	343.4982	370.8947	393.264	435.2615	545.01	567.2423	575.4075	777.9918	788.5253	890.9139	941.1075	960.8773	1016.0751	1081.63	1098.0512	1185.9457	1210.7354	1281.5256	1326.5443	1346.8687	1412.0106	1432.8314	1460.0717	1496.062	1503.9988	1783.0452	2330.542	2376.6531	3026.5311	3044.3616	3050.1224	3055.7741	3080.0413	3126.4981	3128.4557
CCC#CC(=O)CC#N	CCC#CC(=O)CC#N	
InChI=1S/C7H7NO/c1-2-3-4-7(9)5-6-8/h2,5H2,1H3	InChI=1S/C7H7NO/c1-2-3-4-7(9)5-6-8/h2,5H2,1H3
