21
gdb 114675	3.22251	1.33082	1.27119	1.3915	82.	-0.2341	0.0091	0.2432	1122.7592	0.184634	-387.095264	-387.087491	-387.086547	-387.127392	31.533	
C	-0.0599493994	 1.600904574	 0.0064375065	-0.379946
C	 0.0162290672	 0.0742128461	 0.1047388146	-0.194153
C	-1.3563124906	-0.5836873055	 0.0163506028	 0.162704
O	-1.989036579	-0.2809131279	-1.2423733815	-0.301977
C	-2.4122623364	-1.5600003617	-1.8030712772	 0.07132
C	-2.8194507333	-2.3372250453	-0.542726266	-0.22758
C	-1.4057712757	-2.1493851734	 0.0715879899	-0.11413
C	-0.5447661604	-2.6575610817	-1.0730115706	-0.07723
C	-1.1522376415	-2.3088844072	-2.2133644788	-0.076367
H	 0.9365490878	 2.0506281315	 0.0534124021	 0.105909
H	-0.5284924835	 1.8980696415	-0.9354669299	 0.135174
H	-0.6555712481	 2.0223379805	 0.8242364493	 0.1086
H	 0.6505693925	-0.318269564	-0.6968047208	 0.100622
H	 0.4788838003	-0.2178803725	 1.0571935679	 0.085395
H	-1.993902642	-0.1900510182	 0.8236278738	 0.066548
H	-3.160642442	-1.3587034395	-2.567708773	 0.072332
H	-3.6200665748	-1.8469210621	 0.0185939325	 0.099001
H	-3.0661088363	-3.3830712659	-0.7310135294	 0.101368
H	-1.2172199431	-2.5655340278	 1.0609252512	 0.064952
H	 0.428877264	-3.116667397	-0.9574080512	 0.098949
H	-0.7834856657	-2.4117226235	-3.2256338122	 0.098509
97.4302	153.3346	191.9629	257.3861	346.3353	445.8339	479.4764	483.759	507.5909	675.4356	748.6225	767.9623	804.3904	832.3049	839.7591	884.0856	903.017	922.0176	928.6173	947.0978	971.9572	977.3833	992.0627	1032.5274	1066.0435	1100.5216	1125.3725	1141.8753	1156.2934	1196.6317	1248.8755	1271.8377	1281.5452	1290.9626	1299.2466	1322.4322	1356.3903	1366.3457	1405.4952	1411.6602	1477.6878	1490.6472	1498.1494	1510.1341	1633.289	2972.1876	3019.8942	3034.4063	3063.7435	3074.6239	3100.4154	3120.0962	3122.4905	3131.8108	3136.9524	3200.1361	3226.4047
CCC1OC2CC1C=C2	CC[C@H]1O[C@@H]2C[C@H]1C=C2	
InChI=1S/C8H12O/c1-2-8-6-3-4-7(5-6)9-8/h3-4,6-8H,2,5H2,1H3	InChI=1S/C8H12O/c1-2-8-6-3-4-7(5-6)9-8/h3-4,6-8H,2,5H2,1H3/t6-,7+,8-/m1/s1
