21
gdb 103939	3.02435	1.16244	1.0314	2.2996	79.02	-0.2314	0.0729	0.3042	1263.1495	0.180839	-424.198872	-424.189613	-424.188669	-424.232873	35.782	
C	-0.6136474334	 1.7243885866	-0.1856326934	-0.443528
C	-0.0745167968	 0.3061720206	-0.1907706233	 0.397644
C	-1.1334775322	-0.7324673592	 0.1850341571	-0.092332
O	-1.528444659	-0.5714326905	 1.5321015193	-0.421882
C	 0.8527165405	-0.1015926354	-1.3620120893	-0.432489
C	 1.8971848236	-0.3097268774	-0.2743532573	 0.468516
C	 2.8430823873	-1.4444770593	-0.0554539558	-0.332366
C	 3.3599188061	-0.024845244	-0.2640262146	-0.334723
O	 1.0346958527	 0.1632388179	 0.7649660668	-0.357474
H	 0.1965270558	 2.4462259013	-0.3173968389	 0.118838
H	-1.3373008575	 1.8581263179	-0.9973935924	 0.115185
H	-1.1196676915	 1.9276455763	 0.7619167987	 0.138117
H	-2.0300037222	-0.6121904316	-0.4336471279	 0.104933
H	-0.7296917437	-1.7412677709	 0.0039809507	 0.082616
H	-0.7043424265	-0.5594647029	 2.0366623101	 0.290711
H	 0.5507136902	-0.9938528548	-1.9158507715	 0.109412
H	 1.074142801	 0.7063770744	-2.0627519417	 0.110735
H	 2.9029792233	-1.8512295555	 0.9484433179	 0.122829
H	 2.9784860564	-2.1714822187	-0.8500878329	 0.114654
H	 3.8484496939	 0.2205157803	-1.2017003765	 0.115164
H	 3.7550240319	 0.4922513951	 0.603902145	 0.12544
50.8067	115.7571	188.9858	223.0969	251.1042	290.2433	327.7384	354.5195	376.4357	462.8147	502.5206	506.6985	579.9774	739.3746	757.6382	829.8198	872.5696	894.5412	903.7575	915.4305	922.4653	969.4411	978.3311	1000.1367	1048.7686	1068.9481	1074.8967	1121.7135	1140.9628	1187.0663	1193.1545	1216.0828	1259.2058	1272.6864	1299.028	1374.737	1389.1432	1410.9876	1434.8809	1448.5723	1479.3936	1487.6094	1496.1668	1499.9084	1505.8748	2976.6025	3037.9204	3063.5612	3067.0334	3110.0808	3116.5143	3125.5058	3128.5172	3128.7583	3209.0375	3223.4054	3768.2652
CC1(CO)CC2(CC2)O1	C[C@@]1(CO)CC2(CC2)O1	
InChI=1S/C7H12O2/c1-6(5-8)4-7(9-6)2-3-7/h8H,2-5H2,1H3	InChI=1S/C7H12O2/c1-6(5-8)4-7(9-6)2-3-7/h8H,2-5H2,1H3/t6-/m0/s1
