21
gdb 89522	2.27645	1.71624	1.26418	2.3512	77.26	-0.2384	0.0714	0.3098	1089.2229	0.182755	-424.224218	-424.215537	-424.214593	-424.257198	33.948	
C	 0.3026903374	 1.6124040919	 0.1706547751	-0.406886
C	 0.1093270898	 0.1100206063	 0.0378040244	 0.017347
C	 1.026148573	-0.6852114318	-0.9415513054	-0.318767
C	 1.3408013211	-1.7142042786	 0.1925062754	 0.395113
O	 0.732844112	-2.9774746415	 0.0454857354	-0.493211
C	 2.7838520094	-1.7459029069	 0.7084606264	-0.298908
C	 2.8704076077	-0.4514115744	 1.5261990458	-0.089082
O	 1.5689701428	-0.2458516021	 2.0768326895	-0.259724
C	 0.5952896359	-0.802158947	 1.2098628128	 0.070573
H	 1.3378478126	 1.8643997863	 0.4187049937	 0.120929
H	 0.0451155852	 2.122315918	-0.7641309136	 0.109355
H	-0.3308861101	 2.0226683855	 0.963906868	 0.11975
H	-0.942486176	-0.1106781933	-0.1712042933	 0.077086
H	 0.5266896835	-1.1204646133	-1.8104580475	 0.096295
H	 1.9023784349	-0.124348758	-1.2831157287	 0.090663
H	 1.1436091794	-3.4212547024	-0.7042384049	 0.276346
H	 2.8956728208	-2.6213262089	 1.3557140705	 0.113419
H	 3.5349208918	-1.7930604057	-0.0862787398	 0.094517
H	 3.5796422464	-0.5049861658	 2.3566871852	 0.111776
H	 3.1609004779	 0.3972929572	 0.887742802	 0.091019
H	-0.1851465255	-1.2648725855	 1.8184277088	 0.082392
79.8123	180.3011	194.0713	236.4518	249.8111	276.4901	331.0213	367.0647	423.0343	527.0842	571.5794	620.1208	675.2095	765.1441	841.75	858.3886	887.7486	909.3964	928.8517	963.4565	970.5922	1000.4675	1045.4053	1051.8791	1103.9993	1145.176	1172.0692	1181.7305	1194.7007	1213.1474	1240.1499	1252.3945	1266.4947	1280.9859	1315.1645	1343.2239	1353.7923	1385.1274	1397.288	1412.8445	1470.4575	1482.9039	1489.8501	1493.9231	1525.5305	2980.389	3032.9609	3044.1198	3047.6328	3048.7907	3083.1028	3087.0592	3096.923	3101.9926	3105.7488	3111.7032	3803.6303
CC1CC2(O)CCOC12	C[C@H]1C[C@@]2(O)CCO[C@@H]12	
InChI=1S/C7H12O2/c1-5-4-7(8)2-3-9-6(5)7/h5-6,8H,2-4H2,1H3	InChI=1S/C7H12O2/c1-5-4-7(8)2-3-9-6(5)7/h5-6,8H,2-4H2,1H3/t5-,6-,7-/m0/s1
