23
gdb 40711	5.12992	0.80643	0.76984	0.1519	91.46	-0.2583	0.0852	0.3435	1584.9846	0.206343	-351.118014	-351.109205	-351.10826	-351.151917	34.679	
C	-0.2244931811	 1.2963296383	-0.3137616663	-0.272784
C	 1.2123213934	 1.1548261361	 0.1246605191	-0.272793
C	 0.3215667312	-0.0615935767	 0.0548394674	 0.021983
C	-0.1296149947	-0.7560647407	 1.3091472522	 0.047147
C	-1.3484576595	-1.7297799314	 1.226695067	-0.322203
C	-0.5680275661	-2.7068230116	 2.1151415805	 0.392051
C	-1.0258778983	-3.2224181741	 3.4491104657	-0.316321
C	-0.7704555229	-4.1780926249	 2.3027108881	-0.332978
C	 0.7333111587	-1.9352324733	 1.8617942061	-0.322216
H	-0.9198346901	 1.7653972343	 0.3750541482	 0.108524
H	-0.4269311923	 1.5073073072	-1.3580669995	 0.108638
H	 1.9925823965	 1.2690189841	-0.6197993589	 0.108638
H	 1.4806425859	 1.5289926914	 1.1075104301	 0.108523
H	 0.5098262981	-0.7348185806	-0.7793782165	 0.073943
H	-0.2970604936	-0.0143207468	 2.0979784447	 0.063111
H	-2.3084175549	-1.3627899628	 1.6010420261	 0.094241
H	-1.4934958329	-2.1114695874	 0.2094768441	 0.093928
H	-0.3192563222	-3.2145657218	 4.2735776608	 0.107574
H	-2.0554937827	-3.0432110424	 3.743894334	 0.107574
H	-1.6276582979	-4.6432733933	 1.8254223208	 0.107624
H	 0.1077242566	-4.814547752	 2.3548560479	 0.107624
H	 1.3457910692	-2.3916851287	 1.0756796015	 0.093928
H	 1.3728480896	-1.7260986429	 2.7241138668	 0.094243
57.5917	77.1991	154.3002	261.9319	274.7517	302.7674	308.623	401.3915	461.975	548.9098	695.1089	775.075	786.6	817.8573	827.0809	849.0885	888.7425	902.6258	919.3491	920.1873	921.4012	986.3586	1013.0487	1027.5022	1050.6965	1056.2769	1070.1665	1075.8098	1077.0095	1084.9996	1138.1617	1181.5367	1187.1833	1197.9272	1222.6954	1234.1068	1238.9103	1245.5425	1262.7365	1278.0101	1321.9232	1380.8175	1435.5698	1462.9854	1470.0383	1476.4367	1497.7986	1504.3836	1507.2204	3032.2317	3036.3587	3040.4344	3088.464	3091.0564	3116.5743	3120.918	3122.4192	3127.3681	3132.7554	3193.5757	3204.8275	3208.816	3220.0311
C1CC1C1CC2(CC2)C1	C1CC1C1CC2(CC2)C1	
InChI=1S/C9H14/c1-2-7(1)8-5-9(6-8)3-4-9/h7-8H,1-6H2	InChI=1S/C9H14/c1-2-7(1)8-5-9(6-8)3-4-9/h7-8H,1-6H2
