18
gdb 33670	2.98663	1.44268	1.36518	4.5134	80.64	-0.2641	0.0236	0.2877	1024.8671	0.151004	-364.819423	-364.81238	-364.811436	-364.850813	28.329	
N	-0.066395741	-1.1450759835	 0.0759328869	-0.362724
C	-0.0435318543	 0.012688181	 0.0370693881	 0.14048
C	 0.0032453994	 1.4292755161	-0.0062445884	 0.25657
C	-0.7226404871	 2.4888171765	 0.8333235596	-0.117365
C	 0.5900474067	 3.2370825957	 1.064991569	-0.234385
C	 1.2547329423	 2.3654106939	-0.0501330311	-0.10552
C	 1.1795245043	 3.0563903913	-1.4160526358	-0.212749
C	-0.340956138	 3.3014188502	-1.630259513	-0.238702
C	-1.0185450133	 2.3517970136	-0.6427750826	-0.089034
H	-1.4946717984	 2.3108554535	 1.5723994825	 0.107951
H	 0.5909904922	 4.3216538758	 0.9118619561	 0.099272
H	 1.0030755881	 3.0158328336	 2.051505456	 0.116219
H	 2.2188675121	 1.9239473629	 0.1964469084	 0.091144
H	 1.7636902659	 3.9814478382	-1.4403057183	 0.104207
H	 1.574168051	 2.3937129504	-2.1935572661	 0.112234
H	-0.6195713395	 4.3415354119	-1.4317950851	 0.110912
H	-0.6463398526	 3.0793059538	-2.6561070235	 0.112608
H	-1.9881742278	 1.930023855	-0.8812324828	 0.108882
127.9023	156.4098	219.7531	351.0743	408.3341	515.6496	528.7022	546.0341	619.7995	711.8521	721.0011	815.4054	842.5694	862.4	894.6232	915.338	927.0555	981.5292	1012.3991	1024.0821	1053.8043	1064.6069	1100.0806	1122.3236	1147.8674	1162.2223	1205.0634	1237.0275	1254.1939	1282.8317	1286.3636	1307.684	1328.4727	1348.9693	1429.0029	1485.8651	1492.7597	1509.5242	2339.4666	3043.3892	3044.7861	3052.9082	3085.4311	3101.2132	3108.1148	3132.2904	3182.4489	3192.4939
N#CC12C3CC1CCC23	N#C[C@@]12[C@H]3C[C@@H]1CC[C@@H]23	
InChI=1S/C8H9N/c9-4-8-5-1-2-6(8)7(8)3-5/h5-7H,1-3H2	InChI=1S/C8H9N/c9-4-8-5-1-2-6(8)7(8)3-5/h5-7H,1-3H2/t5-,6+,7-,8+/m0/s1
