13
gdb 30472	6.56972	0.92085	0.8117	4.1031	71.68	-0.2429	-0.0587	0.1841	1321.4691	0.088643	-452.760892	-452.752783	-452.751838	-452.794428	27.982	
C	 0.0368238718	 1.3887832033	 0.1077864027	-0.338
N	 0.2438141648	-0.0472813357	 0.075071089	-0.348267
C	 0.6588796514	-0.6076151559	-0.952419791	 0.534136
O	 0.9860610201	-0.0331135633	-2.1839068477	-0.211627
C	 1.3927735631	-1.0439349684	-2.999358852	-0.115828
C	 1.3314839833	-2.202402772	-2.3327418773	 0.213304
O	 0.8751773784	-1.959102206	-1.0483949073	-0.243283
C	 1.640920199	-3.5186197363	-2.7261697341	 0.231703
N	 1.9001166268	-4.5946396185	-3.0667144893	-0.318191
H	 0.6498777829	 1.8192521029	 0.9064601469	 0.139343
H	 0.2759302787	 1.9002574853	-0.8318616898	 0.125759
H	-1.0088064654	 1.5925838695	 0.3610207736	 0.139344
H	 1.690409095	-0.7997158049	-4.0042263235	 0.191607
60.8682	89.8528	137.8881	219.4277	230.8321	257.4952	450.1198	481.5542	559.2329	628.0289	629.4082	711.5579	720.9399	811.3989	850.7553	961.0219	1056.7954	1112.78	1138.5106	1143.4231	1197.9183	1291.137	1313.3972	1448.8664	1492.7775	1503.0204	1688.0755	1867.0744	2351.074	3020.9821	3090.6973	3090.7605	3302.1633
CN=C1OC=C(O1)C#N	CN=c1occ(o1)C#N	
InChI=1S/C5H4N2O2/c1-7-5-8-3-4(2-6)9-5/h3H,1H3	InChI=1S/C5H4N2O2/c1-7-5-8-3-4(2-6)9-5/h3H,1H3
