17
gdb 30201	2.75892	1.63031	1.07895	4.0332	75.57	-0.1856	0.0414	0.227	1096.5975	0.137412	-418.036361	-418.02834	-418.027396	-418.069178	30.207	
C	-0.689767388	 1.5232131479	-0.2850898133	-0.400607
C	 0.0433854852	 0.2123345739	-0.0786135683	 0.05685
C	 1.0018369407	-0.3039088493	-1.2308480968	-0.400049
C	 2.0899444192	-0.2808133701	-0.1768962409	 0.311793
C	 3.2470536617	-0.6306486316	 0.415350831	-0.250122
N	 3.0804031438	-0.2651071974	 1.7661574757	-0.356052
C	 1.8044331061	 0.2473774055	 2.0483931079	 0.429861
O	 1.3505379664	 0.5852138068	 3.1227694319	-0.437226
N	 1.2540525268	 0.2834987528	 0.7733687746	-0.113047
H	-0.006162452	 2.300056889	-0.6402987869	 0.127209
H	-1.4895900312	 1.3961723143	-1.022136621	 0.122255
H	-1.1387783236	 1.8631403715	 0.6526668848	 0.146464
H	-0.6412338174	-0.5692416308	 0.2669499002	 0.106941
H	 0.7508730317	-1.2836103238	-1.6424044775	 0.129434
H	 1.1229296962	 0.4098912783	-2.0502396392	 0.125566
H	 4.1441728525	-1.1043367719	 0.057208153	 0.135905
H	 3.771381182	-0.354631055	 2.4899712948	 0.264825
65.6305	134.5594	196.0407	240.2343	258.3155	387.3195	400.9346	443.4307	580.1965	616.8737	665.1361	678.7373	713.2059	737.879	781.3803	837.566	906.9472	1006.8198	1059.5218	1063.6659	1080.0351	1094.1377	1107.2545	1181.7333	1229.4248	1240.4958	1288.3673	1304.7339	1361.7584	1376.7466	1397.6848	1413.6023	1482.5667	1484.3645	1496.0066	1687.3852	1828.6967	3038.729	3054.2737	3064.6618	3112.6075	3117.1257	3121.5503	3285.6555	3693.0095
CC1CC2=CNC(=O)N12	C[C@H]1C[C]2[CH]NC(=O)N12	
InChI=1S/C6H8N2O/c1-4-2-5-3-7-6(9)8(4)5/h3-4H,2H2,1H3,(H,7,9)	InChI=1S/C6H8N2O/c1-4-2-5-3-7-6(9)8(4)5/h3-4H,2H2,1H3,(H,7,9)/t4-/m0/s1
