20
gdb 16530	2.76453	2.14147	1.65571	1.5072	73.2	-0.2501	0.0576	0.3077	888.3595	0.177854	-348.976177	-348.968286	-348.967341	-349.008176	30.792	
C	 0.494336605	 1.5953045211	 0.0365302197	-0.412943
C	 0.0979542791	 0.1232845928	 0.0280205116	-0.031396
C	 0.8815063017	-0.8210800006	-0.9563292438	 0.12077
O	 1.7523638483	-0.2709110278	-1.9142479938	-0.424908
C	 1.4485653995	-1.6187094213	 0.2436081587	-0.046009
C	 2.6941957434	-1.0050688738	 0.9461571039	-0.241351
C	 1.7768761654	-0.3566101868	 2.0241403541	-0.220196
C	 0.5288191629	-0.7941851985	 1.2215629539	-0.029688
H	 1.5678387452	 1.7481094728	 0.1921021371	 0.103214
H	 0.2363198232	 2.0628785918	-0.9187747215	 0.125457
H	-0.0270155807	 2.1397696039	 0.8310057967	 0.116273
H	-0.9806560534	 0.0603649805	-0.146719791	 0.07155
H	 0.1861760606	-1.4379186451	-1.5329180004	 0.086366
H	 2.4287048748	 0.2380942983	-1.4561304287	 0.280233
H	 1.4353202463	-2.7070677972	 0.1691771434	 0.061
H	 3.404468249	-1.7404172482	 1.3298040349	 0.106521
H	 3.2682092912	-0.2976280866	 0.3367201489	 0.078789
H	 1.8448680344	-0.8768477963	 2.9832942225	 0.100027
H	 1.9015732933	 0.7127298799	 2.2136416057	 0.096329
H	-0.2928355191	-1.241289679	 1.7822551982	 0.059963
70.5159	199.8295	225.351	248.032	254.3183	286.2665	445.5789	494.0467	535.5699	623.4198	715.828	760.4696	776.3421	829.9243	859.9122	878.6568	948.2314	967.893	997.0805	1025.8645	1056.9543	1077.7493	1110.9165	1126.2702	1140.7277	1166.2153	1201.2712	1227.4275	1235.232	1253.7977	1275.8262	1281.6148	1304.9023	1314.0052	1326.6578	1362.9114	1408.8998	1438.1623	1478.1896	1490.5108	1500.2321	1509.9339	3031.423	3032.532	3042.7061	3056.3577	3065.9601	3085.1811	3092.7832	3096.3948	3099.1362	3104.1765	3112.4851	3818.0138
CC1C(O)C2CCC12	C[C@H]1[C@@H](O)[C@H]2CC[C@@H]12	
InChI=1S/C7H12O/c1-4-5-2-3-6(5)7(4)8/h4-8H,2-3H2,1H3	InChI=1S/C7H12O/c1-4-5-2-3-6(5)7(4)8/h4-8H,2-3H2,1H3/t4-,5+,6+,7-/m1/s1
