17
gdb 74783	3.05795	1.42035	1.40477	3.1491	73.19	-0.2249	-0.0225	0.2024	1011.7773	0.1367	-421.8471	-421.839732	-421.838788	-421.878858	28.957	
C	 0.0138244344	 1.4704162455	 0.0313036854	-0.508644
C	-0.0522865876	-0.0154872478	-0.034622668	 0.352227
C	-0.0845307537	-0.8462707724	-1.0816642479	-0.219401
C	-0.0279308269	-2.2522241638	-0.4955498088	-0.083079
O	-0.6982437931	-2.0928086325	 0.7604429813	-0.247176
C	 0.029354269	-0.9320667671	 1.1958282641	-0.034126
C	 1.475577299	-1.4920159424	 1.2520000931	-0.345597
C	 1.4428909442	-2.3842821141	-0.0092116922	 0.430562
O	 2.3325442348	-3.024511135	-0.4961855955	-0.318768
H	 0.9320175	 1.8002317101	 0.5355919912	 0.134692
H	-0.0056408534	 1.9210200077	-0.96408364	 0.135186
H	-0.8225235357	 1.8791998375	 0.6119004603	 0.137149
H	-0.0439877518	-0.6062566926	-2.1350693511	 0.117077
H	-0.4182586	-3.0877233837	-1.0714284961	 0.100188
H	-0.380944791	-0.5527744764	 2.1315198303	 0.087245
H	 2.2719222947	-0.7462661224	 1.2083657042	 0.127122
H	 1.6277992472	-2.1198191404	 2.1346258497	 0.135342
106.9181	178.1278	191.0873	295.1272	349.903	442.4102	501.7596	563.1131	582.5809	617.1265	687.3525	768.4588	804.6379	838.591	862.8543	915.2751	936.8333	955.1334	984.3755	1008.2909	1039.7845	1058.4353	1097.7866	1126.4236	1188.6937	1199.9547	1225.6357	1251.0661	1285.0411	1317.2278	1335.6384	1414.0317	1455.2922	1477.1769	1484.317	1691.9854	1865.2525	3016.3858	3063.0655	3068.5149	3117.0661	3120.7456	3123.0018	3159.9491	3232.1356
CC1=CC2OC1CC2=O	CC1=C[C@@H]2O[C@H]1CC2=O	
InChI=1S/C7H8O2/c1-4-2-7-5(8)3-6(4)9-7/h2,6-7H,3H2,1H3	InChI=1S/C7H8O2/c1-4-2-7-5(8)3-6(4)9-7/h2,6-7H,3H2,1H3/t6-,7-/m0/s1
