17
gdb 8919	3.65373	1.25329	0.99407	3.967	65.19	-0.2797	0.0095	0.2892	1163.0035	0.139777	-401.005303	-400.995805	-400.994861	-401.039565	33.422	
C	-0.023309882	 1.5761879176	 0.0721440522	-0.389451
C	-0.002000341	 0.0475951722	 0.0011568581	-0.198084
C	 0.7176699634	-0.4780814496	-1.2420079102	 0.115269
O	 2.0802256449	-0.0963856291	-1.2953168986	-0.416196
C	 0.5910461632	-2.0213487623	-1.3513102981	-0.048098
O	-0.752961848	-2.4629482602	-1.3958903308	-0.40597
C	 1.3555598777	-2.5280437333	-2.5077557051	 0.265959
N	 1.89685312	-2.9371696093	-3.4428558819	-0.315666
H	 0.9900138459	 1.9843173239	 0.0276649309	 0.129364
H	-0.5883465497	 2.0003530724	-0.7648332176	 0.120493
H	-0.4921356801	 1.9185454639	 0.9989195843	 0.118194
H	 0.5001085674	-0.3648545772	 0.8899559076	 0.088772
H	-1.0188163695	-0.3571088245	 0.0114860113	 0.122198
H	 0.2653676616	-0.042495296	-2.1430184993	 0.097232
H	 2.4945817377	-0.3318603018	-0.4569287371	 0.28632
H	 1.0160541276	-2.4675920398	-0.4430702508	 0.130127
H	-1.1204313593	-2.2280661368	-2.2560388149	 0.299537
65.5716	102.3371	129.6873	209.0366	223.1249	254.8154	266.019	309.3738	313.9915	400.593	421.7603	477.0945	581.3552	613.107	784.0152	891.1354	901.651	993.3618	1044.238	1067.1595	1091.6057	1115.4678	1147.8132	1216.9458	1262.3131	1284.922	1325.6718	1365.7115	1385.1079	1406.449	1416.1174	1420.241	1486.4215	1497.1579	1508.7151	2357.906	2996.1823	3026.4361	3041.1235	3045.6638	3082.8532	3108.0464	3122.9381	3792.6873	3801.0818
CCC(O)C(O)C#N	CC[C@@H](O)[C@@H](O)C#N	
InChI=1S/C5H9NO2/c1-2-4(7)5(8)3-6/h4-5,7-8H,2H2,1H3	InChI=1S/C5H9NO2/c1-2-4(7)5(8)3-6/h4-5,7-8H,2H2,1H3/t4-,5+/m1/s1
