26
gdb 118238	4.60719	0.61761	0.57229	0.9164	94.27	-0.2291	0.0876	0.3168	2058.7661	0.239243	-369.591225	-369.580143	-369.579199	-369.62823	40.385	
C	 0.0114103011	 1.5847828706	-0.0552129236	-0.378562
C	 0.0343151006	 0.0563495721	 0.0411095544	-0.175119
C	-1.3707279245	-0.5583760962	 0.043199445	-0.161345
C	-1.4109653839	-2.0980886662	 0.0642856613	 0.024114
C	-0.8619625691	-2.6805060886	 1.3737217054	-0.393567
C	-2.8430220734	-2.5776670452	-0.2201503856	-0.144685
N	-2.9308147447	-4.0287317612	-0.3659086371	-0.067685
C	-3.4183053073	-4.7876694584	 0.7822577793	-0.217248
C	-4.2785394261	-4.5846698791	-0.4136128745	-0.222322
H	 1.0238330258	 2.0008157298	-0.0591497589	 0.109873
H	-0.4889807841	 1.9168381154	-0.9718681603	 0.112436
H	-0.5263677704	 2.0267201053	 0.7911980153	 0.112441
H	 0.6059217746	-0.3551750383	-0.8014174122	 0.094459
H	 0.5753297661	-0.2379217576	 0.9480429381	 0.098567
H	-1.9341359997	-0.1697747014	 0.9044454643	 0.087209
H	-1.9044946752	-0.203099906	-0.8494217649	 0.086184
H	-0.7872328604	-2.4690836247	-0.7607724377	 0.079254
H	 0.1695080303	-2.3643402121	 1.5531852732	 0.112498
H	-1.4632861047	-2.3528131168	 2.2313256464	 0.10293
H	-0.8713918271	-3.7729414854	 1.3516077787	 0.127221
H	-3.5251739926	-2.2029958308	 0.5679305989	 0.072839
H	-3.1803640749	-2.1357544405	-1.1659225385	 0.097014
H	-2.9343615991	-5.7438658162	 0.9612171571	 0.114659
H	-3.682942642	-4.2356914191	 1.6830156716	 0.109111
H	-5.1179570321	-3.8982435199	-0.3093694573	 0.105801
H	-4.4351552572	-5.3881750096	-1.1279992783	 0.113923
54.8045	65.2323	86.8326	116.4177	123.053	233.0924	236.6467	252.6463	291.8715	321.4361	355.6298	411.8977	446.8352	534.7217	743.7056	770.1761	837.414	838.8582	865.781	898.089	905.3796	927.8395	961.3385	1018.3147	1028.0231	1035.9144	1051.1188	1086.815	1111.9448	1119.1715	1145.7961	1156.119	1178.0821	1184.8713	1204.1508	1257.5792	1285.7676	1298.3637	1321.1092	1331.5237	1343.6795	1384.4505	1393.7986	1396.6489	1411.6679	1415.8147	1478.6844	1486.2891	1492.6527	1494.6519	1498.1634	1499.9864	1506.2654	1512.2418	1522.185	2913.1234	2995.7778	3010.7383	3019.5024	3027.4566	3027.7562	3029.9153	3043.1254	3060.225	3089.4586	3094.5472	3094.9498	3098.3951	3100.4055	3120.5635	3171.6792	3186.405
CCCC(C)CN1CC1	CCC[C@@H](C)CN1CC1	
InChI=1S/C8H17N/c1-3-4-8(2)7-9-5-6-9/h8H,3-7H2,1-2H3	InChI=1S/C8H17N/c1-3-4-8(2)7-9-5-6-9/h8H,3-7H2,1-2H3/t8-/m1/s1
