25
gdb 112810	2.4501	1.04028	0.80723	1.2648	89.26	-0.2592	0.0745	0.3337	1542.1808	0.227923	-389.483781	-389.473047	-389.472103	-389.519441	39.929	
C	-0.0721073562	 1.6284248548	 0.0950686007	-0.38355
C	 0.0516339957	 0.1102575726	-0.0779365755	-0.200065
C	 0.6933420669	-0.5659741257	 1.1299710241	 0.040559
C	-0.0786931291	-0.6183902512	 2.4775166765	-0.248315
C	 0.5172005205	-2.0309865444	 2.7265880564	 0.047049
C	-0.3361889223	-3.0854162203	 3.4169671244	-0.401554
C	 0.8465740866	-2.1224428001	 1.1974709873	-0.027797
C	-0.1441227099	-2.9085490067	 0.3534900826	-0.094581
O	 0.0891029774	-4.2918531945	 0.5936907078	-0.422956
H	 0.911553104	 2.0908706055	 0.2341483878	 0.113204
H	-0.5387470685	 2.0935711361	-0.7788876219	 0.109381
H	-0.6808325877	 1.8787946914	 0.9705297202	 0.119181
H	-0.9447700252	-0.313361999	-0.2583104843	 0.090964
H	 0.6443759907	-0.1061565264	-0.9768040026	 0.093394
H	 1.6791868399	-0.1152988912	 1.298877135	 0.067338
H	 0.1225537183	 0.1594979651	 3.2188767778	 0.090026
H	-1.1623409183	-0.664931594	 2.3152039556	 0.088806
H	 1.4633752834	-1.9265444144	 3.2698854033	 0.068594
H	-1.3033227991	-3.2137870756	 2.920442576	 0.105261
H	 0.1603096159	-4.0596496579	 3.4229306004	 0.124502
H	-0.5354796545	-2.7935266628	 4.4547926131	 0.10183
H	 1.8448357851	-2.5052062032	 0.9627573192	 0.06741
H	-1.1813493641	-2.6347997788	 0.6041046778	 0.082247
H	 0.0049680881	-2.6663145083	-0.71079497	 0.085878
H	-0.5570325876	-4.7970439611	 0.0915913284	 0.283195
79.6453	86.3953	135.3484	141.7953	193.5571	231.2067	235.3137	260.9546	284.73	330.8571	342.281	399.1937	450.7817	552.5452	656.2865	746.8643	786.9247	822.0838	884.6711	921.954	937.9397	965.9587	979.3342	1010.5851	1033.6824	1050.4231	1068.2168	1114.3715	1141.6716	1155.691	1166.8634	1187.0616	1235.5583	1241.5728	1250.4358	1268.0339	1286.2811	1296.7237	1310.1558	1343.621	1364.2007	1372.0976	1401.6587	1409.8242	1415.4774	1459.5676	1484.1476	1486.7977	1493.1327	1496.2595	1499.3146	1506.6713	1525.2693	2964.9772	2989.3965	3013.0357	3019.8126	3027.9059	3030.0144	3032.0172	3035.8338	3047.9087	3058.5997	3090.7911	3095.0564	3097.4268	3101.8491	3113.9838	3826.1193
CCC1CC(C)C1CO	CC[C@H]1C[C@@H](C)[C@H]1CO	
InChI=1S/C8H16O/c1-3-7-4-6(2)8(7)5-9/h6-9H,3-5H2,1-2H3	InChI=1S/C8H16O/c1-3-7-4-6(2)8(7)5-9/h6-9H,3-5H2,1-2H3/t6-,7+,8-/m1/s1
