16
gdb 77208	3.69769	1.03006	0.91351	3.0242	76.03	-0.2748	0.0091	0.2839	1256.7924	0.123028	-400.713957	-400.705143	-400.704199	-400.747723	32.467	
O	-0.0222015069	 1.3144292896	 0.0295477917	-0.422798
C	 0.0831890795	-0.081892443	-0.0207658604	 0.113576
C	-1.359537791	-0.67241416	-0.1255690418	-0.201991
C	-1.1716457293	-0.7548769372	-1.6788289265	-0.244895
C	 0.3674360244	-0.636765096	-1.4657263948	-0.17226
C	 1.1428077781	 0.2274180773	-2.3325701749	 0.260774
N	 1.7647629638	 0.9601955454	-2.976431761	-0.328032
C	-1.5241327081	-1.9566279011	 0.525833816	 0.316158
C	-1.6396518047	-3.0303045153	 1.0546422846	-0.455534
H	 0.8268144967	 1.7015797506	-0.2161779609	 0.302231
H	 0.7223356999	-0.485717749	 0.7724266643	 0.096494
H	-2.1164004018	 0.0404362205	 0.2095533851	 0.127286
H	-1.5226069312	-1.6607727081	-2.1710315438	 0.12931
H	-1.5810966175	 0.124617668	-2.1751165409	 0.139598
H	 0.832304205	-1.6244175353	-1.4094105634	 0.136313
H	-1.7545593569	-3.9727249264	 1.5306680965	 0.203769
59.6626	121.1382	151.1643	175.6778	242.8339	334.1103	365.7912	371.414	467.6119	508.6574	548.5087	604.4245	638.9598	646.1153	716.4339	825.6251	849.3516	925.8453	960.8456	982.7671	1055.3671	1077.6299	1104.1241	1136.6143	1193.9677	1207.9272	1234.0262	1261.3366	1315.5437	1331.8714	1341.662	1408.4965	1478.5061	2236.8008	2349.3415	3041.9496	3085.3517	3087.7181	3100.0733	3165.1909	3503.0081	3789.7659
OC1C(CC1C#N)C#C	O[C@H]1[C@@H](C[C@H]1C#N)C#C	
InChI=1S/C7H7NO/c1-2-5-3-6(4-8)7(5)9/h1,5-7,9H,3H2	InChI=1S/C7H7NO/c1-2-5-3-6(4-8)7(5)9/h1,5-7,9H,3H2/t5-,6+,7+/m1/s1
