14
gdb 24780	4.20649	1.44806	1.09686	8.5935	70.76	-0.244	-0.0421	0.2019	1025.2877	0.10348	-432.900805	-432.893961	-432.893017	-432.932783	25.242	
O	 0.0029715539	 0.0069886804	-0.139218527	-0.320887
C	 0.0081683527	 1.1995824796	 0.0119631177	 0.366607
N	-1.2264482218	 1.9139273462	 0.1524708188	-0.294151
C	-1.2321463452	 3.1955491139	 0.0728070466	 0.068608
N	-0.0677722593	 3.8814234375	-0.1227799086	-0.078133
C	 0.5680726463	 5.2136306592	-0.0326026812	-0.180517
C	 1.9460294271	 4.4561361428	 0.0141211874	-0.367308
C	 1.1134706499	 3.1835119211	-0.0185324107	 0.438441
N	 1.2458920523	 1.923641104	 0.083104747	-0.381132
H	-2.1554079225	 3.7661479154	 0.164705955	 0.144421
H	 0.3918576839	 5.8399743803	-0.9092180435	 0.144896
H	 0.3097634078	 5.7580615573	 0.8785403046	 0.14609
H	 2.5872340694	 4.6084855811	-0.8553063338	 0.156138
H	 2.5265942553	 4.599206791	 0.9264265576	 0.156926
60.2699	127.004	208.5774	372.6034	429.9214	508.8677	553.315	584.5811	654.6767	763.2374	795.8438	822.2085	870.6657	880.2055	956.2934	967.0474	1006.744	1056.2882	1142.6712	1156.5264	1187.9036	1205.7927	1242.355	1300.8484	1390.9323	1433.3364	1466.3235	1511.9379	1599.5518	1750.229	1826.719	3071.7919	3095.1306	3127.8482	3140.9427	3153.2661
O=C1N=CN2CCC2=N1	O=c1ncn2CCc2n1	
InChI=1S/C5H5N3O/c9-5-6-3-8-2-1-4(8)7-5/h3H,1-2H2	InChI=1S/C5H5N3O/c9-5-6-3-8-2-1-4(8)7-5/h3H,1-2H2
