21
gdb 69947	3.45401	1.42007	1.23112	1.9019	80.82	-0.2407	0.0749	0.3155	1094.0532	0.184325	-387.075471	-387.067673	-387.066729	-387.10751	31.444	
C	-0.1489345047	 1.5236364483	 0.0985785641	-0.481382
C	 0.0607848563	 0.0332545034	-0.0376347578	 0.358163
C	-0.7975263769	-0.9066767656	 0.7638795778	-0.327909
C	 0.677160259	-0.8034855626	 1.0787577028	-0.087312
C	 1.5622397727	-1.8683580451	 0.4606021476	 0.106819
O	 0.982098946	-3.1995249469	 0.373814125	-0.292645
C	 0.8975331098	-3.1220034289	-1.0638886013	-0.08891
C	 1.4938052134	-1.6994718544	-1.082121541	-0.063657
C	 0.5899570766	-0.4860645615	-1.3816652156	-0.313303
H	 0.7699941801	 2.0782843083	-0.1260940426	 0.112532
H	-0.9260875179	 1.8793468863	-0.5885978358	 0.117546
H	-0.4621763006	 1.7894994963	 1.1131522144	 0.114662
H	-1.4856224792	-0.4634549019	 1.4764719106	 0.105445
H	-1.1507265844	-1.8335757223	 0.3263026871	 0.123576
H	 0.9801118926	-0.3481826977	 2.0153839139	 0.077011
H	 2.5508401316	-1.9085293635	 0.92976773	 0.070932
H	 1.5121521057	-3.892189511	-1.5465216902	 0.097829
H	-0.135244034	-3.216317888	-1.4266291371	 0.094114
H	 2.4517376493	-1.6338269534	-1.5998891669	 0.078399
H	-0.2214595559	-0.7403149516	-2.0746780337	 0.100538
H	 1.1748547504	 0.305299042	-1.8637556412	 0.097551
104.8813	154.775	216.4584	269.9258	320.2249	371.7309	382.7632	512.2562	564.5951	654.8711	700.1293	781.2038	816.6846	853.9097	884.6599	893.2637	920.8737	928.2218	949.2816	975.731	1016.7366	1023.1031	1050.9337	1066.2315	1077.5327	1087.0971	1115.9395	1127.0085	1164.4841	1200.058	1214.695	1255.8741	1271.4655	1298.732	1318.7563	1340.461	1344.8912	1366.2512	1404.2286	1419.8434	1485.864	1488.8269	1496.0334	1505.4132	1526.6103	3000.3687	3018.4516	3027.8306	3042.5269	3048.4628	3061.6339	3076.7374	3096.5075	3098.2606	3131.9156	3166.444	3216.6034
CC12CC1C1OCC1C2	C[C@]12C[C@H]1[C@H]1OC[C@H]1C2	
InChI=1S/C8H12O/c1-8-2-5-4-9-7(5)6(8)3-8/h5-7H,2-4H2,1H3	InChI=1S/C8H12O/c1-8-2-5-4-9-7(5)6(8)3-8/h5-7H,2-4H2,1H3/t5-,6+,7+,8+/m1/s1
