16
gdb 11004	4.14801	1.76421	1.50564	4.7072	64.56	-0.2597	0.012	0.2717	867.3385	0.131473	-383.780383	-383.773375	-383.77243	-383.811402	26.757	
C	-0.054412104	 1.5142383841	-0.0129268815	-0.488145
C	 0.0291673063	 0.0089989593	 0.0167793074	 0.314733
C	-0.7967627939	-0.8087333786	 0.9612584089	-0.326797
C	 0.7184608677	-0.7824238261	 1.1064413998	-0.233847
C	 1.413550555	-1.9225670664	 0.4371737128	 0.455476
O	 2.1581081168	-2.7327942565	 0.9059666828	-0.345483
O	 1.063084727	-1.9373681261	-0.8894919312	-0.234085
C	 0.4009467004	-0.7225970968	-1.269270335	-0.137269
H	 0.8810188247	 1.9578881889	-0.3710452904	 0.1278
H	-0.8604671242	 1.8508963998	-0.6750219971	 0.128769
H	-0.2584539753	 1.91580759	 0.983819573	 0.127535
H	-1.3520446119	-0.2760424465	 1.7255524423	 0.124885
H	-1.2665209756	-1.7241060751	 0.6145607498	 0.132215
H	 1.1746586594	-0.3527023903	 1.987874031	 0.116849
H	-0.4660453395	-0.9858894331	-1.8837465066	 0.121387
H	 1.0917208071	-0.1244986865	-1.876356276	 0.115977
139.9697	191.3332	205.1394	284.8361	366.1029	377.0328	487.9137	551.9875	672.6945	721.7892	774.4625	820.6777	869.7735	936.3097	955.3216	961.892	1026.9244	1031.41	1062.9873	1078.7262	1091.9096	1137.6418	1174.6395	1231.6764	1249.3048	1313.2428	1368.1617	1416.9846	1427.9264	1489.6399	1494.4399	1501.4274	1520.1391	1883.548	3026.286	3030.913	3077.67	3089.9292	3108.9923	3127.9192	3210.8208	3219.6472
CC12CC1C(=O)OC2	C[C@]12C[C@H]1C(=O)OC2	
InChI=1S/C6H8O2/c1-6-2-4(6)5(7)8-3-6/h4H,2-3H2,1H3	InChI=1S/C6H8O2/c1-6-2-4(6)5(7)8-3-6/h4H,2-3H2,1H3/t4-,6+/m0/s1
