19
gdb 67807	2.31928	1.94389	1.55618	1.7933	79.53	-0.2177	0.0038	0.2215	972.3673	0.158716	-385.854624	-385.846648	-385.845704	-385.886453	31.879	
C	-0.046132306	 1.4825063575	 0.0648205139	-0.503351
C	-0.0198177953	-0.0195010419	-0.0674427921	 0.215766
C	 0.9574060043	-0.7186180898	-0.9375200357	-0.122214
C	 0.5670786535	-1.983017033	-1.1588996303	-0.111732
C	-0.648368258	-2.2313407231	-0.310971679	-0.01211
O	-0.1507175426	-2.2229535338	 1.099384046	-0.30207
C	-0.5068408158	-0.8673706611	 1.1834096889	 0.015266
C	-1.3065924041	-0.8315745585	-0.0716866358	 0.219859
C	-2.6844605335	-0.3780540655	-0.4459855414	-0.522641
H	 0.9248100769	 1.8644105816	 0.3986205564	 0.123732
H	-0.2865942255	 1.9686013359	-0.8878657661	 0.122231
H	-0.7923617548	 1.808206755	 0.7973983828	 0.116198
H	 1.889286005	-0.269049989	-1.261883801	 0.098084
H	 1.1221938244	-2.7574022213	-1.6714611352	 0.101035
H	-1.2635591153	-3.1121868339	-0.4915688057	 0.079038
H	-0.6060307502	-0.4247027936	 2.168667109	 0.104999
H	-2.8823612591	 0.6291332112	-0.0664256573	 0.125691
H	-2.8103736215	-0.3519058143	-1.5347496159	 0.126088
H	-3.4501078723	-1.0446819422	-0.0340656313	 0.126132
177.5825	181.5515	196.2906	215.4745	282.8866	334.2061	404.8775	443.7096	552.2482	613.744	645.6262	676.6121	743.8137	763.2146	809.0032	825.9492	869.9189	912.9831	924.4124	965.4563	979.253	990.2006	1068.3961	1078.8343	1098.6248	1137.8374	1170.9427	1188.4797	1207.6604	1246.2225	1257.4106	1314.7004	1382.4992	1408.5265	1421.1928	1449.2083	1484.0466	1489.2177	1497.007	1505.1086	1626.3892	3022.9724	3026.0391	3083.5567	3085.2641	3092.5625	3102.508	3123.6032	3175.3834	3189.7227	3225.4571
CC12C=CC3OC1C23C	C[C@@]12C=C[C@H]3O[C@@H]1[C@@]23C	
InChI=1S/C8H10O/c1-7-4-3-5-8(7,2)6(7)9-5/h3-6H,1-2H3	InChI=1S/C8H10O/c1-7-4-3-5-8(7,2)6(7)9-5/h3-6H,1-2H3/t5-,6+,7-,8+/m1/s1
