22
gdb 83879	2.22601	1.61252	1.24608	1.1494	81.96	-0.2177	0.0856	0.3033	1137.9213	0.195561	-404.322672	-404.313969	-404.313025	-404.355508	34.035	
C	 0.4153024104	 1.4241040218	-0.3203276641	-0.413361
C	 0.3103302071	-0.103618021	-0.2559823161	-0.006803
C	 1.1098136715	-0.7512373283	-1.3949502324	-0.077297
O	 1.1734328749	-2.1599574159	-1.2627617467	-0.242204
C	 1.9718508082	-2.5621736252	-0.162100066	-0.11702
C	 1.6249412855	-1.8759448286	 1.1476462559	-0.044923
C	 0.7906675675	-0.6308683071	 1.100107097	-0.033728
N	 0.2838600108	-1.8616607154	 1.7101040034	-0.10281
C	-0.7955374347	-2.6279425461	 1.0991962874	-0.333048
H	 1.4498209079	 1.7545339423	-0.1721926284	 0.119042
H	 0.0786612061	 1.8040991319	-1.2906139113	 0.114259
H	-0.1986023724	 1.892923921	 0.4547991672	 0.121594
H	-0.7429768574	-0.3801043156	-0.3914870441	 0.086161
H	 0.6386050621	-0.5572519881	-2.3635480268	 0.105511
H	 2.1284230781	-0.3258044764	-1.4226986258	 0.083246
H	 1.8489016365	-3.6481354226	-0.0844549173	 0.113116
H	 3.0364536421	-2.362885329	-0.3758567391	 0.093786
H	 2.4206995827	-1.9584143768	 1.8885289051	 0.085463
H	 0.9892199714	 0.1499761562	 1.8337085187	 0.082975
H	-0.747298197	-2.7141159176	 0.0070849892	 0.12961
H	-0.7805724881	-3.637114482	 1.5239692835	 0.119005
H	-1.7505413332	-2.1694451077	 1.3768050408	 0.117426
109.6338	172.5639	210.4334	229.1131	243.1394	297.4819	309.5154	368.5461	418.8798	500.6008	504.5354	530.7376	718.706	744.6108	796.0992	842.5929	905.8944	937.9831	963.2364	1006.9139	1028.4759	1044.0916	1078.2452	1102.2904	1137.1989	1149.4158	1166.9553	1168.6359	1185.6797	1207.0922	1268.4423	1318.7129	1321.3686	1334.4378	1351.045	1370.9611	1379.7763	1406.9708	1421.2786	1427.9819	1462.4046	1489.3915	1493.4768	1497.3762	1499.6117	1502.6837	1518.1854	2952.171	2957.833	3017.2586	3024.8959	3029.5003	3062.9125	3077.1164	3084.334	3092.6261	3093.8417	3096.6896	3102.6839	3106.0772
CC1COCC2C1N2C	C[C@H]1COC[C@H]2[C@@H]1N2C	
InChI=1S/C7H13NO/c1-5-3-9-4-6-7(5)8(6)2/h5-7H,3-4H2,1-2H3	InChI=1S/C7H13NO/c1-5-3-9-4-6-7(5)8(6)2/h5-7H,3-4H2,1-2H3/t5-,6-,7+,8?/m0/s1
