18
gdb 53360	5.09599	0.73382	0.66807	3.9783	81.96	-0.237	0.0325	0.2695	1666.2983	0.147968	-401.976914	-401.967577	-401.966633	-402.013362	32.837	
C	 0.3764923215	 1.6015628565	-0.4858545237	-0.498972
C	 0.1912366063	 0.1859320401	-0.2002636861	 0.0974
C	 0.0394692426	-0.9865394454	 0.0290918389	 0.046325
C	-0.1564145491	-2.3984079218	 0.3180255531	-0.180381
C	 0.3212263573	-2.8239298219	 1.7374179659	-0.170784
N	-0.4879334269	-4.0008159738	 1.9899790484	-0.304294
C	-1.6501010863	-4.0691857831	 1.2633703088	 0.394449
O	-2.5220583543	-4.8984149729	 1.3927117147	-0.375988
C	-1.6236980347	-2.8884753705	 0.2873575538	-0.333047
H	 1.104424209	 1.7533935164	-1.2903776118	 0.149916
H	-0.5635431079	 2.0706005455	-0.7966494038	 0.150716
H	 0.7396842623	 2.1411817384	 0.3957171922	 0.149057
H	 0.4106092741	-2.9977255824	-0.4052683644	 0.114122
H	 1.3904038952	-3.0534219724	 1.7538530861	 0.120638
H	 0.1316138189	-2.0218044627	 2.4636373404	 0.115436
H	-0.3647004026	-4.5946812705	 2.7949172277	 0.252094
H	-2.3050303282	-2.1171085808	 0.6624330496	 0.137004
H	-1.9699530072	-3.1868087685	-0.7026991799	 0.136308
12.375	68.0077	89.7081	150.1663	193.9832	282.3797	318.7189	422.1343	452.8278	475.8663	536.5729	539.6054	619.3423	685.2839	804.6938	874.8915	906.1452	924.6144	1048.7819	1050.7731	1056.844	1061.7051	1084.0102	1168.3041	1182.9566	1225.5851	1252.1027	1262.81	1318.0217	1333.6448	1370.8073	1415.0458	1442.1172	1469.0658	1478.0565	1478.4666	1533.1704	1835.1652	2373.11	3008.8645	3025.2234	3027.2883	3061.9901	3080.8274	3088.2876	3088.6417	3131.8485	3639.4365
CC#CC1CNC(=O)C1	CC#C[C@H]1CNC(=O)C1	
InChI=1S/C7H9NO/c1-2-3-6-4-7(9)8-5-6/h6H,4-5H2,1H3,(H,8,9)	InChI=1S/C7H9NO/c1-2-3-6-4-7(9)8-5-6/h6H,4-5H2,1H3,(H,8,9)/t6-/m1/s1
