17
gdb 32460	2.9991	1.28955	0.93878	2.0128	72.15	-0.182	0.0432	0.2252	1210.5703	0.137345	-455.165271	-455.156253	-455.155309	-455.198922	33.655	
N	 0.0710556752	 1.3201496219	 0.3397748379	-0.613679
C	 0.0333262756	-0.053084302	 0.0122220911	 0.163993
C	-0.9449259683	-1.0204277859	 0.0834069588	 0.204202
O	-2.223597374	-0.819258544	 0.5149454946	-0.463856
C	-0.3886559107	-2.2586614611	-0.3593773245	 0.11805
C	-1.1711259799	-3.5263037874	-0.4516717211	-0.20497
O	-2.0264984896	-3.6965735987	 0.6964981478	-0.419648
C	 0.9304015795	-2.0067437145	-0.6849152425	-0.194722
N	 1.1701247763	-0.6811954763	-0.4694714678	-0.261616
H	-0.3256434786	 1.4795440418	 1.2606526462	 0.24593
H	-0.4795590089	 1.8751814583	-0.309646451	 0.243687
H	-2.5854088515	-1.7008468144	 0.6945907415	 0.294763
H	-1.8683533162	-3.5171420415	-1.2979425212	 0.121617
H	-0.5119619903	-4.3957194531	-0.5830946736	 0.102678
H	-1.453317569	-3.6941175039	 1.472045679	 0.28649
H	 1.6945198513	-2.6640846328	-1.0683334563	 0.117438
H	 2.0464777092	-0.2028209563	-0.5838715989	 0.259643
88.655	113.6138	145.3664	208.4537	268.7706	277.0269	314.7263	383.2718	437.4185	474.0313	522.0523	606.9442	631.4385	649.1109	696.8128	710.4387	738.8992	800.5072	838.3501	965.8907	1008.8183	1033.2497	1106.9163	1184.9096	1208.0963	1241.7355	1258.6825	1339.73	1343.3908	1378.4866	1413.5001	1450.3382	1503.3395	1509.868	1559.2867	1660.9565	1687.6273	3006.1487	3051.0419	3256.2968	3485.7995	3548.9657	3685.5972	3698.6866	3794.4409
NC1=C(O)C(CO)=CN1	Nc1c(O)c(CO)c[nH]1	
InChI=1S/C5H8N2O2/c6-5-4(9)3(2-8)1-7-5/h1,7-9H,2,6H2	InChI=1S/C5H8N2O2/c6-5-4(9)3(2-8)1-7-5/h1,7-9H,2,6H2
