19
gdb 38606	3.63047	1.71438	1.47446	1.2502	77.94	-0.2295	0.0932	0.3227	936.4581	0.162664	-385.828822	-385.822593	-385.821649	-385.859035	27.189	
C	 0.0055558163	 1.5560111213	-0.0887266622	-0.326285
C	 1.2907956333	 0.7736764752	 0.0061412277	 0.114419
O	 2.0411514716	 0.7661823274	 1.1913105521	-0.280674
C	 1.5062370103	 0.0103001788	 2.2461028336	 0.172126
C	 0.0034350718	 0.1617934192	 2.6420710146	-0.11561
C	 0.1470084698	-1.2110539904	 3.3484170353	-0.240132
C	 0.86964174	-1.3947647999	 1.9914089647	-0.10343
C	-0.3252301809	-0.6220346407	 1.3285494443	 0.002156
C	-0.0150973923	 0.0394551514	 0.0104863581	-0.103338
H	-0.3065654056	 2.1260736619	 0.7792224339	 0.118952
H	-0.2347247253	 2.0123876127	-1.0428887758	 0.109508
H	 1.9403296955	 0.7386474427	-0.8621739356	 0.096275
H	 2.2334165808	 0.0753453553	 3.0585157535	 0.078867
H	-0.4990562452	 1.0512121185	 3.0256515821	 0.071813
H	 0.7636343851	-1.2384767685	 4.2513405626	 0.091221
H	-0.7771619492	-1.7796357674	 3.4758167511	 0.095191
H	 1.3659426633	-2.2896372891	 1.613140722	 0.069909
H	-1.2874651679	-1.1430526761	 1.3340552394	 0.06335
H	-0.2921146214	-0.5229857823	-0.8761601315	 0.085684
186.63	273.7823	411.7716	434.417	451.2718	533.2724	575.8835	720.1967	769.6707	775.1783	805.9517	827.9903	856.6147	897.3273	902.0878	925.0162	982.1802	994.6698	1007.6362	1012.2593	1041.8493	1058.4711	1080.01	1095.5897	1107.6016	1114.7984	1128.8383	1141.9203	1171.7208	1190.6747	1207.3007	1223.5472	1243.0504	1246.2124	1270.2437	1346.2831	1373.2369	1404.6953	1426.1674	1481.7095	1515.339	3051.8581	3058.073	3088.7331	3098.0604	3107.4731	3117.9269	3133.7653	3146.6645	3161.627	3223.9207
C1C2OC3C4CC3C4C12	C1[C@H]2O[C@H]3[C@@H]4C[C@H]3[C@@H]4[C@@H]12	
InChI=1S/C8H10O/c1-4-7-3-2-6(3)9-8(4)5(1)7/h3-8H,1-2H2	InChI=1S/C8H10O/c1-4-7-3-2-6(3)9-8(4)5(1)7/h3-8H,1-2H2/t3-,4-,5+,6+,7-,8+/m0/s1
