18
gdb 48740	4.18843	1.24123	1.15379	2.5778	77.98	-0.2344	-0.0356	0.1988	1096.0667	0.148486	-401.893696	-401.886241	-401.885297	-401.925546	29.306	
O	-0.1042392571	 0.2240177019	-0.7712161146	-0.290328
C	 0.0707471753	 1.0340567965	 0.1160460244	 0.038148
C	 1.244351664	 1.9064652508	 0.1914667937	 0.252565
N	 2.1060059868	 2.0635352322	-1.0053238555	-0.356523
C	 2.6900351438	 1.4080661039	 0.1494412194	-0.082981
C	 3.1078501048	 2.4755739012	 1.1830544899	-0.024114
C	 3.5589374369	 3.8644958919	 0.6391792275	-0.225553
C	 2.0809672248	 4.3690625789	 0.6950330015	-0.229254
C	 1.6283251463	 2.979094044	 1.2299267268	-0.106798
H	-0.6539113052	 1.1435566242	 0.9508208852	 0.078811
H	 1.7951801826	 1.3373689883	-1.6540638037	 0.25394
H	 3.0179498488	 0.3759913195	 0.095626904	 0.113661
H	 3.5988850828	 2.0777096339	 2.0703358455	 0.075144
H	 4.2291887904	 4.3905632923	 1.3225859754	 0.098242
H	 4.0049620278	 3.8442112772	-0.355816165	 0.117548
H	 1.9203937473	 5.1750427173	 1.4147572906	 0.097942
H	 1.6501077468	 4.655948893	-0.2652109329	 0.116295
H	 1.0460513431	 2.9325494031	 2.1510933776	 0.073256
116.5443	168.6319	188.2381	250.4614	322.7923	366.9725	491.6168	598.4522	673.904	722.4118	736.5613	777.1497	814.7599	846.4184	872.0603	894.3821	943.5183	954.3573	986.7274	992.1313	1038.9226	1064.2119	1084.8329	1104.7046	1129.6348	1179.8775	1201.5667	1235.1338	1241.354	1249.5324	1269.3785	1278.4645	1310.0624	1365.523	1389.7112	1434.1029	1460.5891	1480.4125	1770.7833	2904.4105	3068.1673	3074.9487	3101.9355	3118.6102	3124.6789	3140.7147	3181.4218	3455.8502
O=CC12NC1C1CCC21	O=C[C@]12N[C@H]1[C@H]1CC[C@@H]21	
InChI=1S/C7H9NO/c9-3-7-5-2-1-4(5)6(7)8-7/h3-6,8H,1-2H2	InChI=1S/C7H9NO/c9-3-7-5-2-1-4(5)6(7)8-7/h3-6,8H,1-2H2/t4-,5+,6-,7+/m0/s1
