16
gdb 76268	2.50309	1.59738	1.06244	4.0471	70.22	-0.236	-0.028	0.2079	1085.5622	0.125109	-475.060761	-475.052449	-475.051505	-475.093816	31.848	
N	 0.019117964	 1.3601714947	 0.1872365464	-0.574842
C	-0.0553887704	 0.0168674269	 0.0740697591	 0.394557
C	-1.1585241656	-0.7828340639	 0.0459069183	-0.333078
C	-0.7542824561	-2.1533532656	-0.1627477553	 0.353887
O	-1.3971899527	-3.1275808431	-0.5147421504	-0.384266
C	 0.7712037031	-2.2342677012	 0.0364426915	-0.000346
O	 1.3592330804	-3.038792964	-0.9637438724	-0.445515
C	 1.2476733764	-0.7662482626	-0.0557877368	 0.003096
O	 1.8658308863	-0.4759066209	-1.2916256472	-0.442756
H	 0.8743006979	 1.8069309331	-0.1050282534	 0.278608
H	-0.8168537936	 1.9131325679	 0.0829795692	 0.267444
H	-2.1893337375	-0.4527643733	 0.0485360883	 0.102487
H	 0.9826620465	-2.6443460853	 1.0338373316	 0.099426
H	 0.6364720719	-3.6029237144	-1.2831823061	 0.30069
H	 1.9328533998	-0.4983683724	 0.7611139797	 0.081999
H	 1.9189236196	-1.3309262461	-1.7491150023	 0.29861
49.694	152.9335	248.0032	271.2614	307.3444	352.7921	409.5535	435.2747	486.3797	506.9948	526.5941	564.4044	603.1273	679.5351	695.613	782.6869	839.0051	855.7528	930.6019	950.5204	1083.1413	1118.4238	1138.5522	1197.7215	1215.8766	1286.0956	1300.1255	1339.552	1365.3835	1396.2402	1412.8933	1445.1133	1631.5937	1681.3274	1785.1478	2994.9047	3013.2475	3214.4665	3585.2192	3673.3467	3693.8461	3696.1218
NC1=CC(=O)C(O)C1O	NC1=CC(=O)[C@@H](O)[C@H]1O	
InChI=1S/C5H7NO3/c6-2-1-3(7)5(9)4(2)8/h1,4-5,8-9H,6H2	InChI=1S/C5H7NO3/c6-2-1-3(7)5(9)4(2)8/h1,4-5,8-9H,6H2/t4-,5+/m0/s1
