20
gdb 119212	2.14456	1.2266	0.90787	4.1734	81.58	-0.2686	0.0328	0.3014	1357.8321	0.169259	-403.143217	-403.133105	-403.132161	-403.178482	36.01	
C	-0.1078693573	 1.4296589186	-0.866745045	-0.233542
O	-0.0784742618	 0.0557234729	-1.1889088317	-0.234085
C	 0.8002987547	-0.6742981142	-0.3651833196	-0.142013
C	 0.7648068999	-2.1594434609	-0.7276256316	 0.132301
C	-0.384420709	-2.7264816794	-1.5528329798	-0.312988
C	 0.9899667047	-2.6750858077	-2.15269985	-0.023524
C	 1.3469678193	-1.747414609	-3.2927228125	-0.427121
C	 1.2903314688	-2.9868057964	 0.3283064079	 0.228323
N	 1.7237741002	-3.638151798	 1.1813502552	-0.347102
H	-0.4386034833	 1.5923113695	 0.1700641353	 0.115859
H	 0.880018727	 1.8979199133	-0.9923799371	 0.113407
H	-0.8173045697	 1.9063099036	-1.5463634793	 0.134414
H	 1.8294479437	-0.2900804181	-0.4610515617	 0.108034
H	 0.5103258921	-0.5622185046	 0.6917793869	 0.113357
H	-0.795417391	-3.683464066	-1.2542820507	 0.131784
H	-1.1060670208	-1.9897190138	-1.884039553	 0.144974
H	 1.508455506	-3.6295985774	-2.1792023012	 0.108814
H	 0.8077772072	-0.8022363563	-3.2193719113	 0.144195
H	 2.4210913977	-1.5330411574	-3.3023949798	 0.121579
H	 1.0957120116	-2.2177387288	-4.2494173608	 0.123335
80.28	86.9393	135.4687	152.1282	187.4745	200.4968	230.8658	251.425	335.7181	373.1715	430.9795	446.6389	564.2562	574.2487	713.4251	773.2539	875.957	910.7097	946.3388	998.0703	1032.5101	1066.6668	1091.4827	1100.9721	1136.7828	1158.1059	1186.2892	1199.8697	1219.8874	1255.8367	1279.2906	1307.0263	1395.9064	1420.2871	1433.0136	1473.7974	1485.8574	1486.246	1498.9972	1503.4203	1507.4756	1528.3421	2345.6667	2962.2408	2983.0575	2993.7955	3031.2812	3038.2819	3093.4663	3124.6451	3138.7492	3148.7951	3156.2044	3244.094
COCC1(CC1C)C#N	COC[C@]1(C[C@H]1C)C#N	
InChI=1S/C7H11NO/c1-6-3-7(6,4-8)5-9-2/h6H,3,5H2,1-2H3	InChI=1S/C7H11NO/c1-6-3-7(6,4-8)5-9-2/h6H,3,5H2,1-2H3/t6-,7+/m1/s1
