21
gdb 40712	5.13239	0.86909	0.82992	1.5368	84.31	-0.2222	0.0838	0.3059	1473.3624	0.182162	-387.04469	-387.036098	-387.035154	-387.078615	33.266	
C	-0.0724345094	 1.2935492484	-0.3650186284	-0.273268
C	 1.3022978544	 0.781148991	-0.0245684755	-0.266351
C	 0.1124249151	-0.1392872856	 0.0780278951	 0.017252
C	-0.3904289487	-0.5628863171	 1.423262441	 0.13803
C	-1.7663595519	-1.2701036616	 1.5069272986	-0.390962
C	-0.9713428611	-2.4123760614	 2.1237991707	 0.469487
C	-1.2515606758	-3.2209787122	 3.3480517586	-0.333065
C	-1.1116479566	-3.8896508418	 1.9835716578	-0.332793
O	 0.2802552089	-1.7525529705	 1.9297434374	-0.32228
H	-0.5440174969	 1.9824808164	 0.328398543	 0.111982
H	-0.3158016437	 1.477846362	-1.4051659802	 0.113455
H	 2.0069127041	 0.6146432587	-0.8313299607	 0.114681
H	 1.7572011059	 1.1207676471	 0.9000148756	 0.117213
H	 0.0216966687	-0.9039352098	-0.6887555041	 0.083798
H	-0.2829587377	 0.26440776	 2.1393327995	 0.068071
H	-2.5112327345	-0.7964135157	 2.148976858	 0.108808
H	-2.2114265755	-1.4920090334	 0.5337436765	 0.108381
H	-0.4349075935	-3.3516558725	 4.0500725229	 0.122561
H	-2.2366680613	-3.1612040199	 3.8002886671	 0.110493
H	-2.0006915574	-4.2856489299	 1.5027544895	 0.111353
H	-0.204407593	-4.4550547224	 1.7987022973	 0.123155
45.6753	74.6221	160.2492	270.9165	285.9333	292.4043	330.5911	445.2913	476.7058	587.5784	745.6898	757.3621	796.7011	830.5442	836.3016	886.1387	891.8662	913.484	925.8004	937.9711	980.684	991.682	1011.9877	1047.0591	1060.8192	1065.0773	1067.0983	1079.1387	1133.5563	1145.0301	1186.6053	1195.9482	1215.1671	1221.6179	1235.4367	1246.7277	1303.8383	1326.7876	1377.4642	1442.3022	1448.5043	1469.6346	1487.4471	1503.1415	1510.2122	2997.2713	3065.6839	3120.8981	3124.1765	3127.1601	3131.8037	3136.3623	3145.8049	3207.8101	3210.4822	3222.2473	3225.596
C1CC1C1CC2(CC2)O1	C1CC1[C@H]1CC2(CC2)O1	
InChI=1S/C8H12O/c1-2-6(1)7-5-8(9-7)3-4-8/h6-7H,1-5H2	InChI=1S/C8H12O/c1-2-6(1)7-5-8(9-7)3-4-8/h6-7H,1-5H2/t7-/m1/s1
