17
gdb 90505	2.1616	1.3932	1.22611	3.8206	70.18	-0.2337	-0.0147	0.2191	1106.585	0.133969	-458.929939	-458.921166	-458.920222	-458.963307	32.819	
O	 0.029197827	 1.4190796714	-0.16531318	-0.429217
C	 0.0329338539	 0.0221163528	 0.0221741552	 0.031859
C	 0.2339325487	-0.583321377	 1.46080203	-0.286037
C	-1.1294920783	-1.2696154126	 1.3174040287	-0.134886
C	-2.248198116	-0.2477535416	 1.1280710368	-0.176589
C	-2.3362511982	 1.0899954441	 1.7691559067	 0.145095
O	-3.3889659767	 1.5799502171	 2.1086798817	-0.277203
C	-1.3412299732	-0.6331281394	-0.0393204016	 0.371492
O	-1.867504677	-1.2123977446	-1.1734733217	-0.455678
H	 0.9396744898	 1.730347626	-0.1933657207	 0.290082
H	 0.6973312143	-0.4752701404	-0.6959474416	 0.091429
H	 1.0656886406	-1.2898742895	 1.5023270321	 0.112041
H	 0.340174971	 0.137849301	 2.2737959583	 0.111682
H	-1.3727626693	-2.2742789148	 1.6385221721	 0.110324
H	-3.2222615818	-0.7191622628	 1.025710953	 0.112405
H	-1.3827780202	 1.6329207238	 1.9081580776	 0.085869
H	-2.3614832545	-0.5413715633	-1.6584129066	 0.297332
76.2105	143.1178	199.1088	232.6738	268.2235	277.081	300.9401	343.1247	421.8058	472.1422	484.1145	588.4636	653.5129	690.9652	834.6854	865.4676	905.5211	939.5915	990.1455	1022.0026	1048.567	1073.3803	1102.094	1137.0982	1161.3293	1181.8834	1218.1483	1222.931	1255.6824	1294.3364	1306.3128	1326.4616	1405.7874	1442.6803	1474.3331	1501.7431	1799.9498	2957.5318	3025.0194	3070.7293	3122.3406	3158.2265	3200.4472	3794.2013	3815.6532
OC1CC2C(C=O)C12O	O[C@H]1C[C@H]2[C@@H](C=O)[C@@]12O	
InChI=1S/C6H8O3/c7-2-4-3-1-5(8)6(3,4)9/h2-5,8-9H,1H2	InChI=1S/C6H8O3/c7-2-4-3-1-5(8)6(3,4)9/h2-5,8-9H,1H2/t3-,4+,5-,6+/m0/s1
