16
gdb 127751	2.18688	1.67617	1.00874	1.9572	68.4	-0.2275	-0.0085	0.219	1134.829	0.124731	-471.198598	-471.189825	-471.188881	-471.232223	31.453	
C	-0.1866008868	 1.3988164043	 0.0834438453	-0.33993
N	-0.0660812435	-0.0457454619	 0.1308842294	 0.012777
N	-0.0761047693	-0.7617478248	-0.9960901521	-0.157752
N	 0.0532174132	-2.0270454929	-0.6643420142	-0.287073
C	 0.1388392783	-2.1056845506	 0.6798712358	 0.287771
O	 0.2717258984	-3.276062773	 1.3348363613	-0.431571
C	 0.0674993109	-0.8431174963	 1.2337323003	 0.196551
C	 0.0679772245	-0.3562775065	 2.6422402544	-0.196687
O	-1.1353430058	 0.3234597846	 3.0024310456	-0.409463
H	 0.7770100209	 1.8748855803	 0.2915795785	 0.145333
H	-0.5119376289	 1.6667043307	-0.9213844996	 0.165376
H	-0.9157343758	 1.7245013018	 0.8272227897	 0.165651
H	 0.2933987863	-3.9690702233	 0.6626308752	 0.308322
H	 0.2659763151	-1.2121415431	 3.3005244712	 0.12744
H	 0.8651185443	 0.3758740177	 2.8118929213	 0.125267
H	-1.8632709117	-0.295575847	 2.877993918	 0.287988
95.0294	121.8931	140.5506	182.952	227.4443	291.6024	348.4827	370.557	385.1613	437.8188	533.0623	612.8784	683.6959	728.0976	762.5802	820.9008	952.618	1029.5628	1059.4518	1117.8046	1155.341	1172.8254	1225.2233	1259.9709	1298.9829	1342.1945	1377.0148	1410.1632	1424.8354	1452.4183	1482.2748	1500.2634	1503.6495	1531.2215	1669.991	3024.7343	3049.7764	3069.6547	3126.3314	3171.9212	3793.8972	3805.6441
CN1N=NC(O)=C1CO	Cn1nnc(O)c1CO	
InChI=1S/C4H7N3O2/c1-7-3(2-8)4(9)5-6-7/h8-9H,2H2,1H3	InChI=1S/C4H7N3O2/c1-7-3(2-8)4(9)5-6-7/h8-9H,2H2,1H3
