15
gdb 25879	4.132	1.0898	0.86757	4.2183	70.12	-0.2228	-0.0389	0.1839	1262.7838	0.112497	-454.005469	-453.997034	-453.99609	-454.038887	30.576	
C	-0.0657833941	 1.4899477612	 0.0120804975	-0.480456
C	 0.0208850593	-0.0205139703	 0.0132100578	 0.292744
O	 1.0779165614	-0.6208499685	 0.0241016255	-0.317284
C	-1.2601771543	-0.75888888	 0.0002040029	 0.160548
C	-1.4169287663	-2.1057286063	-0.007506284	-0.099334
O	-2.7621043615	-2.3727684381	-0.0208860302	-0.174461
C	-3.345771235	-1.144420389	-0.0179229729	 0.456725
N	-4.7112788179	-1.1211162169	-0.0973965928	-0.592423
N	-2.520145469	-0.147626447	-0.0015281641	-0.389007
H	 0.9398137736	 1.9110848325	 0.0229623483	 0.132853
H	-0.6149690527	 1.8362433035	-0.8695581239	 0.147343
H	-0.6342003345	 1.8367984342	 0.881212684	 0.145667
H	-0.7478639091	-2.9467792847	-0.0025467446	 0.171455
H	-5.180410422	-1.9198501942	 0.3027579593	 0.269802
H	-5.1130822678	-0.2336496864	 0.1643622072	 0.275827
73.534	126.6746	152.1417	158.0674	297.4611	334.0352	362.459	388.9714	516.3954	553.1651	572.0342	627.7231	677.9207	751.0701	771.8977	785.7218	934.1882	957.5073	1000.4671	1045.0785	1115.4713	1123.5572	1149.7881	1257.8388	1332.9791	1385.4952	1424.2982	1456.7961	1467.1609	1597.6478	1608.9564	1695.536	1777.9062	3045.8834	3107.1981	3158.2521	3314.0756	3582.6791	3692.5342
CC(=O)C1=COC(N)=N1	CC(=O)c1coc(N)n1	
InChI=1S/C5H6N2O2/c1-3(8)4-2-9-5(6)7-4/h2H,1H3,(H2,6,7)	InChI=1S/C5H6N2O2/c1-3(8)4-2-9-5(6)7-4/h2H,1H3,(H2,6,7)
