20
gdb 105922	3.22246	1.60998	1.38974	1.6259	81.08	-0.2221	0.0795	0.3016	1015.9449	0.172291	-365.933376	-365.925991	-365.925047	-365.965226	29.936	
C	-0.0723165549	 1.5212772844	 0.0304991802	-0.381625
C	 0.0698037945	-0.0060440633	 0.0425840981	-0.311477
C	 0.8541107278	-0.5144780183	 1.213962151	 0.377031
C	 0.8076463376	-1.8096386904	 1.936237455	-0.132221
C	 2.1517420457	-1.4421395388	 2.6077684748	-0.074062
C	 1.394649332	-0.3768917904	 3.4583674047	 0.015395
C	 2.2195241958	 0.7589704465	 2.8341067007	-0.249085
C	 2.3158576621	-0.2084307384	 1.6284008868	-0.123504
N	 0.1809336689	-0.597758076	 2.5609528535	-0.194807
H	 0.9055377939	 2.0123021322	-0.0193670731	 0.115082
H	-0.6545462108	 1.8538802794	-0.8339846272	 0.110936
H	-0.5779710552	 1.8667777508	 0.9370314051	 0.132588
H	-0.9225757795	-0.4709323771	 0.0693664292	 0.109628
H	 0.5498530345	-0.3444515885	-0.8850717141	 0.096487
H	 0.2663927598	-2.7320546215	 1.7593363966	 0.090598
H	 2.9656776579	-2.0835771379	 2.9351633182	 0.071073
H	 1.1604667124	-0.4483053595	 4.5197243819	 0.073633
H	 1.7473285603	 1.735614413	 2.6965633224	 0.1038
H	 3.183705309	 0.8716868327	 3.3403402403	 0.100696
H	 3.081551478	-0.1406180889	 0.8572473559	 0.069836
79.3493	144.9326	213.854	320.6092	347.9493	422.561	544.7204	626.3514	723.6187	738.8116	762.8552	801.8678	821.4968	828.1673	856.3388	895.4981	919.0017	938.3844	959.5376	964.2098	999.1161	1012.5516	1046.6598	1055.6712	1076.7774	1087.3986	1118.001	1159.3213	1172.2689	1191.2401	1209.2984	1245.1414	1250.7548	1266.7956	1281.729	1320.9798	1345.8385	1405.1778	1436.2445	1474.0832	1480.4401	1498.3541	1508.6606	3021.3679	3036.0288	3049.2011	3062.4322	3103.1525	3108.98	3115.1561	3122.7028	3129.0507	3149.4566	3176.8203
CCC12C3C4C(CC14)N23	CC[C@@]12[C@H]3[C@@H]4[C@@H](C[C@H]14)N23	
InChI=1S/C8H11N/c1-2-8-4-3-5-6(4)7(8)9(5)8/h4-7H,2-3H2,1H3	InChI=1S/C8H11N/c1-2-8-4-3-5-6(4)7(8)9(5)8/h4-7H,2-3H2,1H3/t4-,5+,6-,7+,8-,9?/m0/s1
