14
gdb 9972	3.1628	1.42987	1.02563	0.307	74.52	-0.2606	0.023	0.2836	1092.7109	0.102906	-308.157451	-308.148624	-308.14768	-308.190833	32.014	
C	-0.0502866522	-1.2165339243	 0.048005385	-0.437943
C	-0.0442429656	-0.0156195672	 0.0144641227	 0.308061
C	-0.0167916021	 1.4388439985	-0.0040519161	-0.355077
C	 1.4373095165	 2.0184804954	-0.0616673808	-0.349526
C	 2.1206933065	 1.6414395296	-1.3013929187	 0.357105
C	 2.6682369633	 1.3276948886	-2.3225280388	-0.461068
C	 1.405829701	 3.4733419825	 0.1138151347	 0.325705
C	 1.3450377701	 4.6619259698	 0.2733249251	-0.436589
H	-0.0634003865	-2.2780940698	 0.0672199475	 0.199388
H	-0.5756251675	 1.8244748281	-0.8629447321	 0.15083
H	-0.4978224627	 1.8378868593	 0.8955131053	 0.145066
H	 1.9881005624	 1.5798726303	 0.7815185871	 0.149483
H	 3.1579659208	 1.0497777906	-3.222902424	 0.202768
H	 1.3082297561	 5.7147098186	 0.408523583	 0.201799
69.7616	113.0312	131.5915	193.8979	217.0503	331.074	355.5059	434.2808	487.9168	560.6785	565.5708	623.6189	637.6788	642.0511	649.5874	655.4604	658.6014	819.5469	954.7156	970.531	1026.6393	1058.4745	1200.4156	1273.2988	1325.1453	1347.3816	1468.98	2241.2285	2243.295	2247.9755	3016.3537	3046.3691	3087.7057	3503.8136	3504.8845	3506.5995
C#CCC(C#C)C#C	C#CCC(C#C)C#C	
InChI=1S/C8H6/c1-4-7-8(5-2)6-3/h1-3,8H,7H2	InChI=1S/C8H6/c1-4-7-8(5-2)6-3/h1-3,8H,7H2
