17
gdb 56516	2.60203	1.24632	1.06182	2.086	72.52	-0.3157	-0.0112	0.3045	1168.6422	0.133386	-418.031195	-418.02115	-418.020206	-418.065806	35.938	
C	-0.0711606745	 1.5744196173	 0.0819482583	-0.437053
C	-0.0063796901	 0.033618323	 0.036516256	 0.045316
C	 0.7346154456	-0.5240595465	 1.2709755126	-0.425851
C	-1.3746737367	-0.5082956685	 0.0173961581	 0.279517
N	-2.4480526768	-0.9350760919	 0.0348362251	-0.330137
C	 0.6930148951	-0.4613213636	-1.2780799603	-0.005102
O	 0.0199344887	-0.0765842823	-2.451978226	-0.406955
C	 2.1050012426	-0.0273304466	-1.3047922452	 0.26159
N	 3.197387208	 0.347728119	-1.3414627914	-0.318615
H	 0.9398626071	 1.9918769119	 0.0688474416	 0.149718
H	-0.6371501232	 1.9753767251	-0.7629734825	 0.135411
H	-0.5687113984	 1.9037393542	 0.9967948183	 0.149385
H	 0.2096809457	-0.2377161522	 2.1850730013	 0.146436
H	 0.7904483204	-1.6157872119	 1.2400089475	 0.141831
H	 1.7500827456	-0.1219200087	 1.312883012	 0.15281
H	 0.6765898982	-1.5562424392	-1.2744841859	 0.157793
H	 0.1638157128	 0.8637148309	-2.6071950296	 0.303903
66.8652	125.83	172.9823	188.9247	219.9051	229.8681	254.792	270.1556	321.3744	341.0416	370.1488	423.5255	504.4923	575.637	587.4771	627.8096	750.6715	850.3932	949.9407	958.3358	966.6468	1035.9008	1096.6518	1155.2249	1215.2319	1232.2313	1277.188	1332.1777	1401.2317	1419.8355	1425.0575	1482.976	1489.3427	1500.6816	1512.9622	2354.2941	2360.3594	3048.4413	3050.807	3069.8205	3125.3094	3127.2302	3131.9238	3135.5953	3812.2738
CC(C)(C#N)C(O)C#N	CC(C)(C#N)[C@@H](O)C#N	
InChI=1S/C6H8N2O/c1-6(2,4-8)5(9)3-7/h5,9H,1-2H3	InChI=1S/C6H8N2O/c1-6(2,4-8)5(9)3-7/h5,9H,1-2H3/t5-/m0/s1
