17
gdb 128636	2.47735	1.48843	0.94174	1.9195	72.43	-0.1968	0.045	0.2418	1221.6455	0.137121	-451.352486	-451.343223	-451.342279	-451.386877	32.501	
C	-0.1142421979	 1.3731976601	-0.0224006365	-0.239038
O	-0.0108468179	-0.0539557806	-0.044509887	-0.276018
C	 0.6099071097	-0.5601070419	-1.1103428151	 0.504957
N	 1.1422887971	 0.1003131868	-2.1204952449	-0.437139
C	 1.6254823706	-0.9218556402	-2.8937810445	 0.395227
N	 2.2222643292	-0.6726624404	-4.1150722462	-0.5816
N	 1.4322923457	-2.1420867457	-2.4243756967	-0.349099
N	 0.7529536666	-1.8882365503	-1.246542674	-0.057624
C	 0.3208843267	-2.9585923428	-0.383981137	-0.331112
H	 0.8784281793	 1.8315754068	-0.0199522184	 0.142706
H	-0.6675858674	 1.7328605015	-0.8940334741	 0.145538
H	-0.6485708842	 1.6155888181	 0.8965318145	 0.133466
H	 2.6847322946	 0.2239967798	-4.1509870744	 0.254317
H	 2.8117012555	-1.428906689	-4.4321697426	 0.254529
H	 1.179489173	-3.5482447534	-0.0487402095	 0.143131
H	-0.1803047317	-2.5227193291	 0.480959939	 0.153027
H	-0.373257689	-3.6185036497	-0.9130443627	 0.144732
89.7094	90.2271	137.6053	154.3291	194.4001	246.1489	269.2134	316.3214	381.552	407.4612	573.6103	630.1374	649.9933	673.9379	711.4031	781.9237	878.6829	1027.3781	1055.947	1065.9721	1141.715	1156.0283	1182.3395	1215.7127	1245.1333	1313.4062	1439.2327	1449.6815	1465.3057	1477.298	1478.4951	1496.9558	1509.2195	1538.8722	1601.4486	1614.1942	1661.0988	3042.93	3046.7535	3102.0677	3121.207	3154.8577	3155.4515	3568.9993	3674.6987
COC1=NC(N)=NN1C	COc1nc(N)nn1C	
InChI=1S/C4H8N4O/c1-8-4(9-2)6-3(5)7-8/h1-2H3,(H2,5,7)	InChI=1S/C4H8N4O/c1-8-4(9-2)6-3(5)7-8/h1-2H3,(H2,5,7)
