20
gdb 83779	2.68291	1.85734	1.66564	1.2215	76.73	-0.2099	0.0597	0.2696	924.9938	0.174682	-403.104731	-403.097736	-403.096792	-403.135593	29.468	
O	-0.114594431	 1.533257509	 0.0036234948	-0.433496
C	-0.0519927471	 0.12797411	 0.0474807367	 0.12714
C	 0.1963530194	-0.6227624857	 1.3883857611	-0.056798
C	-0.4023380419	 0.1692029213	 2.5544591751	-0.214096
C	-1.8511658773	 0.588713485	 2.195576844	-0.20926
C	-2.3925000658	-0.4157820026	 1.1702206559	-0.041259
C	-1.9979219678	-1.8403779641	 1.6284143493	-0.169376
N	-0.71279825	-1.7365769933	 0.8606532662	-0.151666
C	-1.3653224232	-0.6481617104	 0.0085102795	-0.014391
H	 0.7747678329	 1.8751218773	-0.1271886249	 0.28739
H	 0.6070857797	-0.2672679077	-0.7360914586	 0.082928
H	 1.2096749077	-0.9748368244	 1.6002479892	 0.062921
H	-0.3805136276	-0.4449327606	 3.4607697334	 0.100764
H	 0.2206916537	 1.0463221941	 2.756212825	 0.09524
H	-2.4875295053	 0.5887286887	 3.0879758334	 0.087514
H	-1.8625146256	 1.5963137678	 1.7764980492	 0.121477
H	-3.4303274515	-0.2171841834	 0.8910307255	 0.05923
H	-1.9098266254	-2.0337642607	 2.7025826712	 0.096689
H	-2.5990183872	-2.6365867042	 1.1782797618	 0.103184
H	-1.7945775366	-0.9437133763	-0.952929648	 0.065867
204.1764	231.4892	247.586	292.0807	394.0798	439.5699	506.9662	590.0797	609.9182	707.3166	742.2099	806.6207	819.635	825.0577	855.443	881.9739	943.2039	974.3558	980.2022	1007.8843	1046.4985	1066.1051	1083.4113	1097.4508	1126.9844	1163.4628	1176.7165	1183.9551	1206.5162	1221.8863	1255.8376	1279.6039	1291.5716	1293.5215	1319.1531	1329.9512	1345.2305	1368.3465	1382.9154	1442.1737	1476.9526	1493.0777	1513.8458	3018.6278	3034.8032	3038.6298	3046.7422	3062.1535	3065.3417	3075.699	3078.8858	3089.1723	3115.2889	3826.3578
OC1C2CCC3CN2C13	O[C@H]1[C@H]2CC[C@@H]3CN2[C@H]13	
InChI=1S/C7H11NO/c9-7-5-2-1-4-3-8(5)6(4)7/h4-7,9H,1-3H2	InChI=1S/C7H11NO/c9-7-5-2-1-4-3-8(5)6(4)7/h4-7,9H,1-3H2/t4-,5-,6+,7+/m1/s1
