20
gdb 57946	2.5321	1.16583	0.91163	1.492	78.35	-0.2423	-0.0252	0.2171	1348.6082	0.168164	-440.336973	-440.326225	-440.325281	-440.373603	37.039	
C	-0.3811236777	 1.3085624353	-0.2474091857	-0.344438
N	-0.0399452748	-0.1052144505	-0.2999494339	-0.071444
C	 1.0997262791	-0.5150089218	 0.5078252999	-0.3589
C	-0.8279735267	-0.9438707377	-1.0357141634	 0.389409
O	-1.7499857005	-0.5496441964	-1.7340568296	-0.382441
C	-0.5018622759	-2.4469883144	-0.9904486799	-0.406389
C	 0.5566468035	-2.7754464045	-2.0482272247	 0.379969
C	 0.0484146042	-2.8822234696	-3.4680358645	-0.474297
O	 1.7218924961	-2.9102771152	-1.7492542466	-0.298279
H	 0.4444562202	 1.9180972808	-0.6340969687	 0.125426
H	-1.2693372822	 1.4725236752	-0.8544642654	 0.170045
H	-0.5789822308	 1.616653615	 0.7868679474	 0.122731
H	 0.8326198617	-0.6108801518	 1.5696741043	 0.121199
H	 1.5258818159	-1.4507228327	 0.1501378736	 0.17599
H	 1.8794326598	 0.2497989202	 0.4282389159	 0.131763
H	-0.1464664795	-2.779463296	-0.0153557079	 0.128717
H	-1.4420778146	-2.9461081413	-1.2310152502	 0.137787
H	-0.5220403824	-3.8128995995	-3.5766340428	 0.144661
H	-0.6451633403	-2.0618061396	-3.6790105316	 0.168848
H	 0.8815450448	-2.8871875154	-4.1715921462	 0.139646
50.3189	83.2431	90.2843	119.8729	152.1195	168.3301	179.1171	242.4486	294.1471	372.4693	427.7349	468.0406	491.6079	544.3851	607.9003	692.0366	762.3957	825.9711	908.75	968.4835	1032.6309	1052.365	1088.4538	1122.1575	1132.4274	1177.978	1185.4991	1248.4646	1266.9845	1284.831	1385.0004	1422.6734	1434.7397	1463.3465	1472.0432	1475.6705	1483.1628	1497.3908	1505.7692	1515.3668	1538.9579	1744.3835	1805.3459	3004.6617	3018.9326	3035.3289	3066.5903	3075.158	3086.855	3099.8528	3148.3556	3156.6568	3163.9783	3173.9916
CN(C)C(=O)CC(C)=O	CN(C)C(=O)CC(=O)C	
InChI=1S/C6H11NO2/c1-5(8)4-6(9)7(2)3/h4H2,1-3H3	InChI=1S/C6H11NO2/c1-5(8)4-6(9)7(2)3/h4H2,1-3H3
