21
gdb 39100	3.2975	1.60078	1.37737	1.9528	80.55	-0.2332	0.0773	0.3105	1011.3346	0.186631	-387.072841	-387.06594	-387.064996	-387.103826	29.342	
C	-0.1394130249	 1.5568655501	 0.1337076336	-0.281971
C	 1.3852032601	 1.407534437	 0.0007393491	 0.077188
O	 1.7373653701	 0.6972063076	 1.2127277874	-0.288562
C	 0.7110475613	-0.3343211277	 1.2830504999	-0.162409
C	-0.046112094	-0.0113973719	 0.0035359996	 0.320549
C	-1.0954703605	-0.8061867909	-0.7360461899	-0.341012
C	-0.9926749317	-0.2444837849	-2.1864515068	-0.202207
C	 0.4479776101	 0.3601538487	-2.3566865122	-0.270837
C	 1.1422652529	 0.2386072911	-0.9850028711	 0.005176
H	-0.5167406217	 1.9699460809	 1.0721970083	 0.096301
H	-0.6227965897	 2.0352946681	-0.7172587456	 0.103063
H	 2.0878909412	 2.2275785302	-0.1434792546	 0.072288
H	 1.1764889768	-1.3272817764	 1.2750339691	 0.096687
H	 0.1323630269	-0.2171463877	 2.2071240286	 0.095614
H	-0.8354296586	-1.8721748819	-0.7148079906	 0.099367
H	-2.1060753217	-0.7092892443	-0.3272943121	 0.099437
H	-1.1981763086	-1.0186945199	-2.9307034517	 0.099724
H	-1.7471316416	 0.5334189866	-2.3371210048	 0.10431
H	 1.0174679603	-0.1909242695	-3.1091448397	 0.102801
H	 0.3923133471	 1.3927034541	-2.7138986139	 0.104213
H	 1.9429574461	-0.5066763396	-0.9843309827	 0.070282
125.1668	245.0618	297.0214	351.7195	396.9853	464.7059	524.2678	641.7108	678.5265	686.9127	754.1649	815.0341	843.922	867.0819	887.1535	902.4658	933.271	954.0081	966.0066	986.7641	1003.0689	1029.0711	1067.5161	1079.6032	1107.6544	1127.6917	1150.9133	1182.5686	1210.7975	1229.0653	1238.5965	1247.6118	1251.6878	1267.1638	1283.3415	1308.377	1325.5054	1331.9132	1366.5032	1381.5952	1485.0564	1486.5638	1499.4033	1514.3255	1530.7986	3017.2692	3027.096	3050.6234	3056.287	3059.2822	3063.3234	3074.6593	3076.9638	3087.7607	3106.423	3126.1816	3147.1492
C1C2OCC11CCCC21	C1[C@H]2OC[C@]31CCC[C@@H]23	
InChI=1S/C8H12O/c1-2-6-7-4-8(6,3-1)5-9-7/h6-7H,1-5H2	InChI=1S/C8H12O/c1-2-6-7-4-8(6,3-1)5-9-7/h6-7H,1-5H2/t6-,7+,8+/m0/s1
