17
gdb 45855	2.51375	1.7415	1.16584	3.7535	73.6	-0.2455	-0.0279	0.2176	1049.1075	0.135874	-421.832919	-421.82509	-421.824146	-421.865968	29.609	
O	 0.0114366644	 0.0760443638	 0.4995425176	-0.306295
C	-0.0202007856	 1.2234924491	 0.1280981759	 0.309076
C	-1.3377681213	 1.933596005	-0.1755430853	-0.369364
C	-1.2173107262	 3.2518126475	-0.8868376923	-0.057181
C	-0.0638676826	 3.7799834008	-1.2890831038	-0.064268
C	 1.2726941958	 3.123018921	-1.0749857766	-0.360907
C	 1.2367312835	 2.0637609306	 0.0120008146	 0.327271
C	 2.011085018	 2.2267698174	 1.2655820009	-0.20684
O	 2.4567905222	 1.3660951498	 0.2291553401	-0.255828
H	-1.9654973894	 1.2301940678	-0.7378674753	 0.14518
H	-1.8572352425	 2.0596820339	 0.7862055086	 0.14393
H	-2.1484886068	 3.7764499281	-1.0853618451	 0.096218
H	-0.0607405284	 4.7276678875	-1.8206089844	 0.097576
H	 1.6090874682	 2.6490277552	-2.0091214686	 0.135867
H	 2.0388020285	 3.86869315	-0.8342795719	 0.117278
H	 2.5850527401	 3.141864463	 1.4098464009	 0.117933
H	 1.6734968322	 1.7253238196	 2.1712492448	 0.130354
48.2622	81.0109	241.9063	297.0555	344.5607	379.1699	414.3456	483.7443	538.8073	591.0449	633.5126	694.7439	805.0431	859.8483	904.9258	924.7165	953.4548	954.4485	994.5245	1011.2577	1031.4996	1107.2114	1133.2398	1171.3088	1172.8485	1202.2073	1220.0021	1288.6133	1324.4413	1343.3877	1400.5246	1414.4255	1436.9705	1479.452	1514.1616	1736.6838	1817.3641	3003.9874	3009.0974	3045.1342	3055.3209	3078.6199	3151.035	3173.8274	3174.1424
O=C1CC=CCC11CO1	O=C1CC=CC[C@]21CO2	
InChI=1S/C7H8O2/c8-6-3-1-2-4-7(6)5-9-7/h1-2H,3-5H2	InChI=1S/C7H8O2/c8-6-3-1-2-4-7(6)5-9-7/h1-2H,3-5H2/t7-/m1/s1
