18
gdb 126213	2.29267	1.29257	0.89232	4.2432	75.43	-0.246	-0.0047	0.2412	1314.9203	0.147045	-439.081482	-439.072252	-439.071308	-439.117035	32.518	
C	-0.4035469957	 1.4859578148	 0.004773057	-0.373739
C	 0.1044977835	 0.0336627284	 0.0504828345	-0.296997
C	 0.8937189106	-0.348942524	-1.1559420473	 0.346488
C	 2.2141871314	-0.6085608082	-1.3824969749	 0.08472
C	 3.3654817524	-0.6039040973	-0.434014685	-0.21624
O	 4.0260982343	-1.8621312587	-0.5229741727	-0.414066
C	 2.2524162685	-0.8982203646	-2.7772702473	-0.019989
N	 1.0761798967	-0.8155642502	-3.3405423549	-0.144686
O	 0.2056684531	-0.4593868258	-2.3092422544	-0.221225
H	 0.4307368731	 2.192156562	-0.0432024428	 0.122875
H	-1.0335102091	 1.6474088616	-0.8737565573	 0.142115
H	-0.9933978282	 1.7126282672	 0.8974162674	 0.119481
H	 0.7280822525	-0.1206474086	 0.9364417167	 0.117982
H	-0.7486786975	-0.648995797	 0.1398976999	 0.132315
H	 4.0590979716	 0.2132954442	-0.6898499341	 0.101421
H	 3.0057450704	-0.4082008772	 0.5880548056	 0.094336
H	 4.8405167695	-1.8048552063	-0.013310285	 0.289349
H	 3.1081790528	-1.1759043304	-3.3764059055	 0.135863
34.5765	45.5415	150.8298	168.7094	199.7095	254.3353	292.2183	337.6692	361.0972	505.5263	622.4283	662.2199	688.9893	758.2556	788.3294	915.7211	919.2488	952.5705	980.486	1008.6601	1050.1129	1062.858	1084.7781	1169.3957	1195.5913	1238.9431	1247.4439	1267.901	1312.3169	1351.4219	1404.8623	1415.4929	1464.9713	1474.7439	1495.9422	1504.7176	1515.8112	1524.2864	1675.2357	2966.1186	2992.9805	3040.8532	3045.215	3084.8063	3117.0156	3127.9628	3246.5768	3819.9186
CCC1=C(CO)C=NO1	CCc1c(CO)cno1	
InChI=1S/C6H9NO2/c1-2-6-5(4-8)3-7-9-6/h3,8H,2,4H2,1H3	InChI=1S/C6H9NO2/c1-2-6-5(4-8)3-7-9-6/h3,8H,2,4H2,1H3
