16
gdb 55351	2.32805	1.43473	1.16631	5.0987	64.72	-0.2586	-0.0404	0.2182	1086.949	0.124272	-475.03972	-475.031369	-475.030425	-475.073896	29.591	
O	-0.309153656	-0.1137734773	 0.2501169631	-0.365122
C	-0.1136347168	 1.1459819827	-0.1576774635	 0.42796
O	 0.9427774359	 1.5671488829	-0.5468325756	-0.341052
C	-1.3646161765	 2.0165540797	-0.0301799116	-0.139998
N	-2.5887997043	 1.2538503778	 0.3097996454	-0.334433
H	-3.2585990368	 1.1441818394	-0.4436547476	 0.238543
H	-1.2587733341	-0.162700372	 0.4990408764	 0.307509
C	-2.9638663709	 2.2276936002	 1.3744701963	-0.17578
C	-1.540929876	 2.8219401734	 1.3083243423	-0.118391
C	-0.6170997187	 2.4181137021	 2.4394185735	 0.13475
O	-0.9960269214	 1.9392434658	 3.4768060066	-0.235077
H	-1.4308640776	 2.6629498253	-0.9102709547	 0.110549
H	-3.7405591761	 2.9373015138	 1.0716881995	 0.111094
H	-3.2329088928	 1.7653143574	 2.3262504951	 0.143852
H	-1.4617743498	 3.9046279923	 1.1772401777	 0.119702
H	 0.460202352	 2.6068217566	 2.246384157	 0.115894
50.9605	76.079	124.8139	157.1751	265.6273	286.2068	369.6005	470.0844	606.5189	640.0082	685.0683	758.0445	790.6711	832.0109	860.2083	920.9197	954.1669	999.7361	1018.5102	1032.838	1077.8345	1097.1861	1146.58	1185.6894	1236.8151	1247.3713	1298.6717	1335.2201	1348.1876	1375.4598	1419.8386	1423.7231	1514.5464	1825.7717	1868.2958	2917.2386	3048.2298	3066.0121	3083.2375	3117.8617	3479.2839	3536.6527
[O-]C(=O)C1[NH2+]CC1C=O	OC(=O)[C@H]1NC[C@H]1C=O	
InChI=1S/C5H7NO3/c7-2-3-1-6-4(3)5(8)9/h2-4,6H,1H2,(H,8,9)	InChI=1S/C5H7NO3/c7-2-3-1-6-4(3)5(8)9/h2-4,6H,1H2,(H,8,9)/t3-,4-/m0/s1
