22
gdb 70878	2.44646	1.58043	1.36266	1.7237	86.67	-0.2228	0.0822	0.305	1111.8848	0.192964	-367.172153	-367.16293	-367.161986	-367.205192	35.891	
C	-0.1267323849	 1.4773101967	-0.0228566401	-0.497549
C	-0.0207595712	-0.0135582085	-0.0893330536	 0.306197
C	 0.915404046	-0.855260727	-0.9550418001	-0.33181
C	 0.0942001544	-2.0864942816	-0.4788762683	 0.259601
C	 0.0009068627	-3.3440537117	-1.301498682	-0.509552
C	 0.4020188431	-2.0827356471	 1.0284769016	-0.189965
N	-0.3320653906	-0.7868644413	 1.1780129981	-0.227554
C	-1.0696733463	-1.0660273761	-0.094384746	 0.259079
C	-2.5531593483	-1.0714372535	-0.2437467601	-0.533372
H	 0.7830962503	 1.9150904368	 0.4038656173	 0.122484
H	-0.2711078765	 1.9070713158	-1.0203406036	 0.113523
H	-0.9666961177	 1.7774420232	 0.6094915549	 0.129425
H	 0.7546043655	-0.6423014103	-2.0165257084	 0.09537
H	 1.9910012093	-0.8511927185	-0.7384133774	 0.085878
H	 0.9817872967	-3.8272558684	-1.3870801359	 0.120808
H	-0.6861220811	-4.0686523888	-0.8501938761	 0.117142
H	-0.3528389021	-3.134603232	-2.3171309214	 0.116493
H	-0.1384495051	-2.8542358315	 1.585875008	 0.098359
H	 1.4532808543	-2.07107605	 1.3439044554	 0.08773
H	-2.9842207833	-0.1872827248	 0.2365139706	 0.133767
H	-2.8482599664	-1.0640047933	-1.2991587145	 0.120054
H	-3.0012903289	-1.9559774281	 0.2235512917	 0.123893
175.9736	181.1477	184.6506	187.2024	196.3811	207.4422	277.5414	348.4154	366.0743	459.2434	512.0093	566.5049	621.9951	655.7869	702.6681	767.7518	834.3562	861.414	910.1764	935.4429	974.7221	1004.9633	1016.28	1046.6298	1096.8478	1107.0734	1140.2552	1141.6612	1176.7481	1187.9318	1195.2725	1238.422	1267.1955	1317.3567	1351.0608	1405.0263	1410.8839	1414.0074	1460.8635	1478.2195	1486.1141	1488.4249	1491.027	1492.6276	1495.3648	1501.693	1520.9358	3015.458	3019.699	3023.4374	3025.7264	3029.6422	3080.726	3083.1299	3083.3298	3085.7205	3087.5287	3090.3827	3103.0162	3113.6726
CC12CC3(C)CN1C23C	C[C@@]12C[C@@]3(C)CN1[C@@]23C	
InChI=1S/C8H13N/c1-6-4-7(2)8(6,3)9(7)5-6/h4-5H2,1-3H3	InChI=1S/C8H13N/c1-6-4-7(2)8(6,3)9(7)5-6/h4-5H2,1-3H3/t6-,7-,8+,9?/m0/s1
