19
gdb 107947	3.79251	1.17214	1.06956	0.9727	75.28	-0.2388	0.068	0.3067	1165.9052	0.158613	-422.962474	-422.95408	-422.953135	-422.995211	32.929	
O	-0.0415249775	 1.3846282252	 0.015645405	-0.423343
C	 0.0352619817	-0.0355490785	-0.0028649565	-0.208454
C	-1.3685902418	-0.5657845389	 0.0068626922	 0.351583
C	-2.2974688358	-0.3856393075	 1.2453015687	-0.26764
C	-2.9929459052	-1.6558700576	 0.7684844562	-0.137876
C	-1.776908593	-2.0985681163	-0.0283082672	-0.208867
C	-2.9891893108	-1.627873853	-0.7754467423	 0.400525
O	-3.8279702689	-2.433059742	-1.5185857482	-0.466187
C	-2.3202439988	-0.3269187145	-1.2069602254	-0.332518
H	 0.8543294907	 1.7340933034	 0.0111812213	 0.28869
H	 0.5630830907	-0.3965093975	-0.9010240657	 0.085911
H	 0.5818473232	-0.4175244209	 0.8754254956	 0.084582
H	-1.7528741287	-0.5484735924	 2.1810859364	 0.093181
H	-2.8695289567	 0.5461282149	 1.3106145652	 0.092936
H	-3.6913151826	-2.2966034952	 1.2928312479	 0.082954
H	-1.2174087372	-3.0223312699	-0.0510671804	 0.092944
H	-4.7275075093	-2.0993127499	-1.4282389459	 0.28441
H	-2.8980181661	 0.6038515402	-1.2184501242	 0.089403
H	-1.794361424	-0.4547394794	-2.1578967828	 0.097766
81.1732	149.9335	223.3607	253.195	301.2501	323.1878	364.8578	392.0786	444.5488	466.0004	601.9991	657.615	742.3301	747.8799	834.4509	899.8291	904.1576	923.7563	955.8128	956.1763	989.5246	1011.2721	1048.1642	1078.0044	1091.8681	1120.7361	1130.049	1164.6586	1186.5765	1212.5853	1223.8634	1256.6162	1281.6381	1288.977	1309.3002	1349.6434	1434.8329	1467.7265	1494.3351	1510.076	1518.1577	2956.5701	2984.3149	3032.0659	3038.5819	3086.6439	3097.3816	3190.5478	3224.8495	3789.9089	3829.8211
OCC12CC3C1C3(O)C2	OC[C@]12C[C@@H]3[C@H]1[C@]3(O)C2	
InChI=1S/C7H10O2/c8-3-6-1-4-5(6)7(4,9)2-6/h4-5,8-9H,1-3H2	InChI=1S/C7H10O2/c8-3-6-1-4-5(6)7(4,9)2-6/h4-5,8-9H,1-3H2/t4-,5-,6-,7+/m1/s1
