21
gdb 66934	2.14176	1.93207	1.50734	1.7973	80.95	-0.2226	0.0785	0.3012	1021.2992	0.18071	-387.034864	-387.026096	-387.025152	-387.067339	34.814	
C	 0.0418696971	 1.5056447922	 0.12624938	-0.519625
C	 0.0492722965	 0.0115692118	 0.0024034686	 0.285799
C	-0.9273522757	-0.9098641725	 0.7616981445	 0.019659
O	-1.0618435303	-2.1367772598	 0.0423431416	-0.293353
C	 0.3706297653	-2.040981627	-0.1978912511	 0.031594
C	 0.5381272985	-1.0371667274	 1.0017994725	-0.207594
C	 0.5180088813	-0.8449958429	-1.1951963641	 0.261684
C	-0.3646121209	-0.8742587433	-2.439573482	-0.46218
C	 1.9849044967	-0.5904121553	-1.5436028145	-0.449417
H	 1.0334653567	 1.9309271109	-0.0668994667	 0.122328
H	-0.660675681	 1.9600202617	-0.5819609703	 0.125712
H	-0.2580951574	 1.8187614593	 1.1325745401	 0.11971
H	-1.7469275357	-0.5683382508	 1.3810088524	 0.105153
H	 0.8532120458	-3.0042917312	-0.3575202667	 0.076703
H	 1.1603919209	-0.9957956617	 1.8849756784	 0.095562
H	-1.3903613031	-1.1412335557	-2.1791624843	 0.132816
H	-0.371879389	 0.1038704911	-2.9343456299	 0.10705
H	 0.0063768368	-1.6051953102	-3.167752944	 0.107309
H	 2.3577806928	-1.356847455	-2.2326431884	 0.111962
H	 2.1108595863	 0.3798952987	-2.0366433941	 0.115114
H	 2.6210580482	-0.5971669731	-0.6524403921	 0.114013
182.118	183.4008	199.4991	212.2458	241.1526	247.4014	296.7254	342.8768	389.7832	544.8207	575.0394	610.0573	643.973	769.8496	794.3485	816.9797	839.2084	884.6136	907.8622	945.8615	951.1271	953.7438	986.1444	1014.8049	1042.6971	1089.461	1099.2732	1142.6644	1159.0275	1187.296	1198.5164	1227.3591	1240.4572	1292.3435	1323.1569	1395.3509	1402.3891	1416.2675	1422.3957	1480.8551	1485.0987	1489.7919	1497.7181	1504.8441	1509.7406	3021.1536	3023.0669	3028.7771	3080.8388	3083.0485	3086.8913	3088.3956	3098.2375	3129.9268	3133.9098	3196.67	3211.2312
CC12C3OC(C13)C2(C)C	C[C@]12[C@H]3O[C@H]([C@@H]13)C2(C)C	
InChI=1S/C8H12O/c1-7(2)5-4-6(9-5)8(4,7)3/h4-6H,1-3H3	InChI=1S/C8H12O/c1-7(2)5-4-6(9-5)8(4,7)3/h4-6H,1-3H3/t4-,5-,6+,8-/m1/s1
