15
gdb 42211	3.36477	1.16085	0.87416	7.6247	79.85	-0.2227	-0.0717	0.151	1240.1746	0.113877	-416.845148	-416.836877	-416.835932	-416.878734	29.296	
O	 0.0493559017	-0.0884046647	-0.1030983202	-0.342096
C	-0.0365878009	 1.1294811964	-0.0546171245	 0.188695
C	 1.2066889605	 1.943698432	-0.0984445987	 0.217779
N	 2.1758808145	 2.574284083	-0.1308710401	-0.34004
C	-1.2455711721	 1.8995692202	 0.0318014968	 0.1557
C	-2.4872597832	 1.3402398728	 0.0913922147	-0.040725
N	-3.4718286503	 2.2594237541	 0.2049531509	-0.276034
C	-2.9314569915	 3.6130598853	-0.0138576247	-0.168912
C	-1.3967553135	 3.4123716807	 0.1376034722	-0.343228
H	-2.7138459116	 0.2821626047	 0.0789676346	 0.16229
H	-4.4347949564	 2.037997986	 0.0122839496	 0.263797
H	-3.1946055635	 3.9644377513	-1.0197920954	 0.123951
H	-3.3444496679	 4.3177940073	 0.7116499245	 0.129432
H	-1.0496118723	 3.779448881	 1.1105839757	 0.131847
H	-0.8400293334	 3.96119369	-0.6256730952	 0.137543
72.776	106.1439	112.8402	214.3682	240.7181	315.1125	391.2335	442.4778	481.697	528.4057	651.465	734.0657	760.4652	848.3148	869.2529	943.571	972.0002	996.148	1014.5956	1073.1503	1159.3727	1201.7345	1236.4139	1285.4845	1315.8247	1330.7305	1371.6081	1488.9728	1500.6603	1528.5172	1620.0392	1711.4275	2333.3705	3020.4844	3035.2092	3089.5124	3100.3997	3236.039	3651.5684
O=C(C#N)C1=CNCC1	O=C(C#N)C1=CNCC1	
InChI=1S/C6H6N2O/c7-3-6(9)5-1-2-8-4-5/h4,8H,1-2H2	InChI=1S/C6H6N2O/c7-3-6(9)5-1-2-8-4-5/h4,8H,1-2H2
