15
gdb 131165	3.54422	1.07523	0.82677	8.1905	92.77	-0.1571	-0.0486	0.1085	1306.2667	0.113725	-450.095624	-450.08727	-450.086326	-450.128935	30.683	
O	-0.3705275658	 0.0663781378	 0.0414522426	-0.484419
C	-0.1355194163	 1.2911415496	 0.0063954798	 0.241953
C	-1.1174904155	 2.3178022176	-0.0712135084	 0.253014
N	-2.4278290148	 1.9555321626	 0.0003084513	-0.275611
C	-3.5498086696	 2.6249168323	 0.0817690451	 0.07386
N	-4.787118659	 2.0240586795	 0.0072931906	-0.515911
H	-4.8159207283	 1.0270649425	 0.1751766238	 0.272059
H	-5.5282182187	 2.5129048779	 0.4881590034	 0.275772
N	-0.522840834	 3.5600704991	 0.0507509485	-0.319852
N	 0.8471158085	 3.3900429675	 0.0305839707	-0.20199
C	 1.0861831138	 2.1004550497	 0.0594495388	-0.110447
H	-2.4318511946	 0.9224246387	-0.0144102441	 0.27021
H	-3.5164531875	 3.7047245703	 0.1235627412	 0.15331
H	-0.827919338	 4.3832819809	-0.4492736372	 0.253631
H	 2.1050807896	 1.742686824	 0.1136956238	 0.11442
85.9291	95.2386	165.6428	277.7391	295.533	312.5575	346.7857	386.0789	465.8519	581.8477	589.5066	607.7422	703.0106	729.0068	751.1381	802.7053	867.6818	935.9518	963.3607	1056.7244	1066.5124	1139.5613	1233.3467	1273.8227	1329.3407	1353.3252	1369.5377	1479.3706	1514.7321	1525.0154	1649.7354	1680.3138	1732.9988	3233.3176	3234.4531	3286.6968	3552.0385	3585.916	3659.5961
[O-]C1=C(NC=[NH2+])NN=C1	O=C1[C](NC=[NH2])NN=C1	
InChI=1S/C4H6N4O/c5-2-6-4-3(9)1-7-8-4/h1-2,9H,(H3,5,6,7,8)	InChI=1S/C4H6N4O/c5-2-6-4-3(9)1-7-8-4/h1-2,6,8H,5H2
