18
gdb 88505	2.32516	1.46446	1.18352	3.9844	76.45	-0.2422	0.0241	0.2663	1118.7858	0.146803	-401.927349	-401.918465	-401.917521	-401.961084	33.349	
O	 0.2095012125	 1.3147745947	-0.2635106827	-0.424658
C	 0.0249500589	-0.0499408289	-0.0536030785	 0.137068
C	-0.3976813386	-0.6291123168	 1.2670934201	-0.369543
C	-1.34887824	-0.6759221772	 0.0795685789	-0.137091
C	-2.6063599136	 0.1556864865	 0.0442839993	 0.221956
C	-3.439596263	 0.1680868825	-1.2317211435	-0.286404
C	-3.9581449692	-0.550289556	-0.0242181158	-0.298967
C	-2.5728066259	 1.3796051072	 0.8041338615	 0.221632
N	-2.5114073543	 2.3485641806	 1.4358588833	-0.372959
H	-0.1898817009	 1.8149251034	 0.4566063287	 0.302385
H	 0.7522398462	-0.6092065507	-0.6341503489	 0.108858
H	 0.0532655447	-1.5518603164	 1.6156496076	 0.119897
H	-0.6410344159	 0.0720398321	 2.0604528343	 0.137217
H	-1.4861581951	-1.6425569221	-0.3974801705	 0.08941
H	-3.9094031074	 1.1008713861	-1.5190123188	 0.142965
H	-3.0452939332	-0.414798633	-2.0563033538	 0.134088
H	-3.9293678571	-1.6338644292	-0.0069462518	 0.132193
H	-4.784022318	-0.110057653	 0.5216920505	 0.141952
53.3776	136.0501	162.6959	212.1938	238.0072	261.7088	300.9549	374.5811	456.2154	537.6434	579.3062	606.2963	694.5722	772.3383	781.2416	812.7127	873.8317	891.258	953.7174	962.7154	995.9606	1038.5765	1053.034	1072.1023	1082.414	1092.731	1124.7614	1146.5956	1194.057	1230.9395	1254.1448	1324.9349	1342.8935	1392.9717	1438.6785	1466.8263	1485.9096	1494.4647	2337.4425	3125.4188	3138.7308	3143.2762	3147.4186	3159.6139	3212.5407	3228.332	3242.667	3810.0787
OC1CC1C1(CC1)C#N	O[C@H]1C[C@H]1C1(CC1)C#N	
InChI=1S/C7H9NO/c8-4-7(1-2-7)5-3-6(5)9/h5-6,9H,1-3H2	InChI=1S/C7H9NO/c8-4-7(1-2-7)5-3-6(5)9/h5-6,9H,1-3H2/t5-,6+/m1/s1
