17
gdb 67236	2.68787	1.69072	1.32059	1.7934	72.23	-0.2385	-0.0289	0.2097	992.932	0.134597	-421.765881	-421.758003	-421.757059	-421.798454	29.61	
C	 0.1398121207	 1.5702199739	 0.0903779961	-0.538102
C	 0.0512801793	 0.0815273793	 0.0533976728	 0.303506
C	 0.121005915	-0.9748175728	-0.9951952083	 0.013754
O	 1.1172178837	-1.7636240351	-0.3520351422	-0.290406
C	 0.7433111178	-1.0797870471	 0.8712200413	 0.02869
C	-0.6596898827	-1.6714352026	 1.2000028185	-0.112452
C	-1.2826929262	-1.0965731822	 2.4417123791	 0.135356
O	-0.9011560601	-0.0913409252	 2.9931144866	-0.258397
C	-1.109429838	-0.9075691252	-0.0577873875	-0.165057
H	 1.1618523876	 1.9133195942	-0.104094307	 0.128265
H	-0.5127055028	 2.0141908945	-0.6689670872	 0.122855
H	-0.1702944379	 1.9482749741	 1.0689891081	 0.150192
H	 0.0689904168	-0.9569230803	-2.0761566646	 0.113438
H	 1.5338260291	-1.0105207694	 1.6139945458	 0.100872
H	-0.7452810545	-2.764173202	 1.1829992092	 0.087095
H	-2.1559705289	-1.6634063388	 2.836635256	 0.082599
H	-2.1163506288	-0.7322834952	-0.4162629968	 0.097791
80.226	135.3704	202.0511	223.7745	259.0386	281.9675	397.6065	551.1986	608.7667	669.4801	754.7952	791.2725	848.4441	856.7893	888.8681	915.0548	928.8302	964.974	1002.689	1008.901	1020.7925	1054.0678	1094.2816	1120.0262	1155.5744	1176.1665	1198.8301	1211.0106	1242.3123	1288.4827	1337.6713	1407.6245	1424.8021	1467.8823	1483.5912	1501.6231	1807.0573	2874.8766	3031.1204	3046.8644	3094.9597	3110.0498	3160.8386	3192.8125	3207.7826
CC12C3OC1C(C=O)C23	C[C@@]12[C@H]3O[C@@H]1[C@@H](C=O)[C@@H]23	
InChI=1S/C7H8O2/c1-7-4-3(2-8)5(7)9-6(4)7/h2-6H,1H3	InChI=1S/C7H8O2/c1-7-4-3(2-8)5(7)9-6(4)7/h2-6H,1H3/t3-,4+,5+,6-,7-/m0/s1
