18
gdb 81750	3.19809	1.24401	1.06264	2.685	78.74	-0.2421	0.01	0.2521	1166.4569	0.148736	-398.09744	-398.088735	-398.087791	-398.130574	32.915	
C	-0.1110581549	 1.5924629161	-0.123067164	-0.407099
C	 0.0243869071	 0.0789442691	-0.0563954377	 0.018474
C	 0.7412892494	-0.6367705324	-1.2076323388	-0.123298
N	 2.1450914798	-0.1899573104	-1.1894675929	-0.369835
C	 1.7175258661	-1.2825316077	-0.2710966452	 0.240185
C	 2.3076368312	-2.5760556287	-0.3161685598	 0.149531
N	 2.7843258334	-3.6320638319	-0.3135629083	-0.346594
C	 1.0767482599	-0.5540010237	 0.9493104816	-0.068737
N	 1.8670619598	 0.3621056654	 1.7258625273	-0.504729
H	 0.8314480178	 2.0597470426	-0.4183725139	 0.131867
H	-0.8757550924	 1.880305163	-0.8523010834	 0.112952
H	-0.3991847061	 1.9948913726	 0.8517855018	 0.13289
H	-0.9505151936	-0.3854416631	 0.1187052524	 0.086671
H	 0.3070749468	-1.0584488265	-2.1058590739	 0.117092
H	 2.6274753587	-0.6158741441	-1.9800883055	 0.249939
H	 0.5921970701	-1.270093171	 1.6160054733	 0.098457
H	 2.4513222576	-0.1340119166	 2.3908765258	 0.236261
H	 2.4803826591	 0.8900850374	 1.1116650114	 0.245972
101.0005	135.2467	177.5133	197.854	229.603	286.4634	322.2631	395.3791	467.8116	547.6499	561.3834	612.5643	661.2107	682.1457	777.2426	842.5924	865.8429	880.9005	952.8895	986.9174	1018.0268	1031.5871	1073.605	1097.7038	1134.6114	1175.847	1213.1966	1221.9378	1240.8152	1289.013	1319.384	1372.0096	1388.3992	1411.5044	1428.7377	1487.0218	1502.7475	1657.7555	2336.0205	3042.3774	3063.3792	3096.1171	3110.2146	3128.5417	3196.8381	3487.3581	3497.5672	3580.8863
CC1C2NC2(C#N)C1N	C[C@H]1[C@H]2N[C@@]2(C#N)[C@H]1N	
InChI=1S/C6H9N3/c1-3-4(8)6(2-7)5(3)9-6/h3-5,9H,8H2,1H3	InChI=1S/C6H9N3/c1-3-4(8)6(2-7)5(3)9-6/h3-5,9H,8H2,1H3/t3-,4+,5-,6+/m1/s1
