18
gdb 44388	3.44685	1.64512	1.43042	3.7621	75.02	-0.234	0.0022	0.2362	944.6841	0.150828	-401.941362	-401.934877	-401.933932	-401.972084	27.095	
O	-0.0260180877	 0.0018142727	 0.2344565834	-0.329123
C	-0.0726980531	 1.1846476927	 0.057971888	 0.393915
C	-1.1868968541	 2.2329167838	-0.1479893266	-0.41248
C	-0.05713324	 3.2814608237	-0.0057166842	 0.035568
C	 0.2920205427	 3.9813885552	 1.319465491	-0.056495
C	 1.8537301089	 4.0158697719	 1.1580788247	-0.218546
C	 1.6943371975	 2.4786591025	 1.3072734887	-0.005847
C	 0.5482552678	 2.8038407747	 2.3134869466	-0.247627
N	 0.9568619909	 2.1625072125	 0.0535982103	-0.118378
H	-1.6922657285	 2.2095566451	-1.1158367882	 0.13358
H	-1.9361610321	 2.2130020821	 0.6471858537	 0.135713
H	 0.068825688	 3.9423785163	-0.8669326158	 0.087312
H	-0.2812617301	 4.8646443172	 1.5975946898	 0.073848
H	 2.2701645757	 4.3911398066	 0.2200880589	 0.107158
H	 2.3560458083	 4.4686560358	 2.0143175544	 0.108124
H	 2.5165909115	 1.8017829977	 1.5253257377	 0.093653
H	 0.9241237318	 3.1632989439	 3.2728115831	 0.106497
H	-0.2269180975	 2.0515577657	 2.4768341144	 0.11313
124.6842	230.6712	303.1701	465.2189	494.0998	522.8277	556.1238	600.4009	719.5776	774.5475	793.1205	833.7538	836.4741	885.5568	892.661	965.9892	980.9666	991.0492	1022.1466	1029.3419	1051.8434	1062.3707	1092.6501	1099.4527	1128.3786	1147.1951	1170.7342	1211.1313	1216.6483	1233.0888	1240.3174	1265.391	1284.1006	1312.8917	1362.2599	1445.6349	1483.1479	1520.0323	1886.9312	3067.4922	3071.0669	3072.4554	3077.1746	3127.766	3129.4735	3131.8865	3137.501	3154.5871
O=C1CC2C3CC(C3)N12	O=C1C[C@H]2[C@@H]3C[C@@H](C3)N12	
InChI=1S/C7H9NO/c9-7-3-6-4-1-5(2-4)8(6)7/h4-6H,1-3H2	InChI=1S/C7H9NO/c9-7-3-6-4-1-5(2-4)8(6)7/h4-6H,1-3H2/t4-,5+,6-/m0/s1
