17
gdb 10322	2.61756	1.92074	1.21902	0.5598	68.03	-0.2334	-0.0088	0.2246	1000.4223	0.142579	-397.22421	-397.215614	-397.21467	-397.257416	31.458	
C	-0.4980107622	 0.6921277751	 0.5246692959	-0.374071
C	 0.3727642274	-0.4715167283	 0.054161127	-0.151328
N	 0.7805492093	-0.3516094683	-1.3573949808	-0.102572
C	 2.0506335991	 0.0847521761	-1.6280872296	 0.182745
O	 2.5703060563	 0.241450553	-2.7186638086	-0.354855
C	-0.1771502479	-0.7319115843	-2.3446222632	 0.44154
N	 0.1694441784	-0.4300918701	-3.631668066	-0.562645
N	-1.2626644761	-1.2658275762	-1.9249183142	-0.560442
H	 0.0267369817	 1.6474045155	 0.4220369945	 0.114878
H	-1.4216418308	 0.7304002425	-0.055761341	 0.151205
H	-0.7584874024	 0.5574191401	 1.5791896366	 0.118671
H	 1.2895758706	-0.5305520397	 0.6473831072	 0.106464
H	-0.1641592497	-1.4137970714	 0.1598481171	 0.153356
H	 2.6052526505	 0.2927577371	-0.6968419997	 0.097692
H	 1.1401723902	-0.2009381132	-3.8137510823	 0.284061
H	-0.3698940258	-0.8733431448	-4.3555442728	 0.248471
H	-1.8776742885	-1.4907662331	-2.7042430199	 0.20683
72.9038	89.9906	161.7526	229.0739	278.7288	321.3364	385.7873	395.1803	424.7704	469.9893	540.8502	610.3719	669.0243	735.6704	771.5961	796.7592	809.6139	967.9956	1032.9992	1096.4959	1119.8174	1123.0245	1127.6135	1202.5526	1287.7681	1392.0336	1407.4025	1412.6181	1426.0911	1453.2205	1487.5541	1494.2359	1508.6756	1615.2471	1713.0527	1777.8188	2982.1945	3042.7897	3068.8036	3106.8206	3136.2496	3147.7909	3491.5425	3506.7064	3692.5485
CCN(C=O)C(N)=N	CCN(C=O)C(=N)N	
InChI=1S/C4H9N3O/c1-2-7(3-8)4(5)6/h3H,2H2,1H3,(H3,5,6)	InChI=1S/C4H9N3O/c1-2-7(3-8)4(5)6/h3H,2H2,1H3,(H3,5,6)
