15
gdb 34094	3.63696	1.55487	1.34206	2.1133	70.13	-0.2256	0.0096	0.2351	943.6172	0.112121	-420.532255	-420.525365	-420.524421	-420.563363	27.684	
C	 0.0806765522	-1.1554589194	 0.0309776148	-0.30445
C	 0.0147966296	 0.0435605403	-0.0062377994	 0.104683
C	-0.0946330245	 1.4789656733	-0.034048053	 0.279325
C	-0.9998665246	 2.1370506263	 1.0128012182	-0.108529
O	-1.0521143596	 3.509221743	 0.6158790254	-0.268182
C	-0.5997889303	 3.5832726858	-0.7135964588	 0.062247
C	 0.7858329112	 3.0389384402	-1.0143301023	 0.057801
O	 1.1964922302	 2.1860402571	 0.0542428952	-0.33156
C	-0.4443702807	 2.2347485534	-1.3511128408	-0.257755
H	 0.1485669132	-2.215224138	 0.0613843562	 0.193976
H	-2.0039424785	 1.6888249446	 1.0161603257	 0.104448
H	-0.5597982527	 2.0694292003	 2.0110195218	 0.129661
H	-0.9835717682	 4.4339909639	-1.2635492548	 0.114639
H	 1.5526072289	 3.5059326763	-1.6211540453	 0.11116
H	-0.8755770561	 1.8322580527	-2.2565471029	 0.112535
142.8694	152.9614	258.3686	390.6874	469.2632	492.6983	517.3674	587.7515	636.9962	685.6262	694.1252	742.6012	777.6877	802.2917	862.647	867.811	953.5939	979.707	1019.6651	1036.9134	1059.3876	1074.6244	1083.9335	1105.8017	1154.9653	1184.3996	1219.5094	1257.6324	1294.0018	1362.9664	1402.7951	1496.9782	2245.4387	3003.3842	3101.2845	3184.3062	3196.1341	3216.5119	3499.5587
C#CC12COC3C(O1)C23	C#C[C@@]12CO[C@H]3[C@@H](O1)[C@@H]23	
InChI=1S/C7H6O2/c1-2-7-3-8-5-4(7)6(5)9-7/h1,4-6H,3H2	InChI=1S/C7H6O2/c1-2-7-3-8-5-4(7)6(5)9-7/h1,4-6H,3H2/t4-,5+,6-,7-/m0/s1
