16
gdb 36539	3.62614	1.1464	0.92896	2.8061	77.73	-0.2311	-0.0087	0.2223	1224.1803	0.124333	-396.909842	-396.901448	-396.900504	-396.943354	30.812	
C	-0.022609723	-0.6507657135	-1.0016950064	-0.467418
C	 0.0642568115	 0.3187455444	-0.2935757491	 0.293096
C	 0.1875037671	 1.5200271291	 0.5400440324	-0.307173
N	 1.4132054184	 2.3027776332	 0.3690169065	-0.336716
C	 1.7529327386	 2.6795754348	-0.7950746265	 0.412541
C	 2.9520246515	 3.5594910138	-1.1366851475	-0.252959
N	 2.9684609764	 3.6899359758	-2.6008447886	-0.242784
C	 1.9587720765	 3.0309165131	-3.015120087	 0.068684
N	 1.1609969554	 2.4436512988	-2.0370561075	-0.348146
H	-0.095924463	-1.5300172393	-1.5933674936	 0.204456
H	-0.6921164986	 2.1598576198	 0.3648925273	 0.134043
H	 0.1337481135	 1.2168732769	 1.5913524677	 0.145267
H	 2.8622590769	 4.5443802579	-0.6655732604	 0.145995
H	 3.8877377628	 3.1182543968	-0.778180388	 0.147977
H	 1.6852417821	 2.9213237226	-4.0598155322	 0.135216
H	 0.4829201938	 1.7147592656	-2.1987768369	 0.267921
59.6472	104.0533	152.6915	198.3879	256.9331	327.0993	407.6993	438.523	528.2158	593.1232	625.4632	643.732	657.2926	704.2519	871.1145	887.0239	923.9844	930.621	983.3116	996.1466	998.0026	1045.2741	1094.4931	1184.062	1212.5595	1255.5586	1291.5525	1346.0015	1353.6685	1412.7355	1451.01	1472.6304	1685.4927	1769.94	2220.4038	2982.0527	3052.7136	3057.0997	3085.7218	3193.1596	3499.8085	3622.4414
C#CCN=C1CN=CN1	C#CCN=C1CN=CN1	
InChI=1S/C6H7N3/c1-2-3-8-6-4-7-5-9-6/h1,5H,3-4H2,(H,7,8,9)	InChI=1S/C6H7N3/c1-2-3-8-6-4-7-5-9-6/h1,5H,3-4H2,(H,7,8,9)
