15
gdb 22002	3.40454	1.3157	0.9798	1.3607	85.72	-0.2097	-0.067	0.1427	1143.9978	0.114047	-416.777187	-416.769705	-416.768761	-416.809292	28.62	
O	-0.1859134735	 1.3382384133	-0.3588063473	-0.38883
N	-0.0085595696	-0.0475269158	-0.2963634582	-0.198673
C	-1.1026973356	-0.6612970995	 0.020572362	 0.252725
C	-1.0108794131	-2.1024418601	 0.1961059723	-0.122827
C	-2.0274971431	-2.9924210645	 0.1353858908	-0.086699
C	-3.4091731468	-2.7252317157	-0.1570613047	-0.089773
C	-4.0362141052	-1.5223973245	-0.1462648283	-0.015444
N	-3.568719972	-0.3131363052	 0.3165187619	-0.231052
C	-2.3443545956	 0.0491518627	 0.411497604	-0.010206
H	 0.6998158394	 1.646104997	-0.5772665846	 0.312229
H	-0.0048239843	-2.4698339791	 0.3770545267	 0.117131
H	-1.7670864204	-4.0395872251	 0.2652960348	 0.106131
H	-4.0246671804	-3.5889792148	-0.3943949202	 0.102765
H	-5.0875727888	-1.4901916553	-0.4213417375	 0.112724
H	-2.1639161912	 1.0231039368	 0.8655610182	 0.139797
73.7689	203.5531	235.7769	320.9584	335.8495	374.4569	451.7017	459.9842	541.9096	579.2117	632.6882	720.4796	784.3139	846.8998	875.7217	893.6893	953.7405	962.4928	989.0785	1004.4689	1015.8004	1077.0622	1224.2598	1282.3477	1314.9904	1370.3668	1408.207	1450.526	1484.4463	1586.4087	1636.0948	1664.3956	1689.2918	3134.011	3148.1859	3157.8644	3171.5859	3181.5257	3822.7444
ON=C1C=CC=CN=C1	ON=c1ccccnc1	
InChI=1S/C6H6N2O/c9-8-6-3-1-2-4-7-5-6/h1-5,9H	InChI=1S/C6H6N2O/c9-8-6-3-1-2-4-7-5-6/h1-5,9H
