15
gdb 36756	3.50444	0.6246	0.5441	3.8265	87.79	-0.2557	-0.0335	0.2222	1896.2916	0.111073	-379.610836	-379.601305	-379.600361	-379.646551	33.147	
C	 0.479337897	-3.2980782068	 0.6506695735	-0.526902
C	 0.2788783029	-2.1495082358	 0.3373160114	 0.286074
C	 0.0537405815	-0.8547583018	-0.0156123848	-0.30011
C	-0.1558399849	 0.2958071899	-0.3307756585	 0.414162
C	-0.3466195457	 1.6965855474	-0.7193006506	-0.351276
N	 0.8750857779	 2.5050654648	-0.7761838702	-0.274739
C	 1.5657521643	 2.591525025	 0.510184676	-0.267169
C	 2.7764367356	 3.4068770692	 0.3925776538	 0.261771
N	 3.7435390892	 4.0311375117	 0.2993813763	-0.294828
H	 0.6545226513	-4.3086658972	 0.9258944089	 0.198511
H	-0.8210114622	 1.7421146545	-1.7061873272	 0.153433
H	-1.0435647409	 2.1792005117	-0.02161389	 0.149495
H	 1.5062662851	 2.1166363593	-1.4702737564	 0.242369
H	 0.8947741298	 3.0702568895	 1.2344232554	 0.158262
H	 1.8472047991	 1.6140327187	 0.9362139625	 0.150946
39.8695	71.8146	114.9821	153.8248	185.4979	236.0488	335.178	356.0444	392.3298	482.855	533.83	537.1071	583.1107	596.7514	611.441	707.5092	796.0942	902.7137	967.9828	994.7982	1099.3887	1128.1029	1158.9072	1229.7253	1299.3616	1353.7689	1386.1684	1457.6161	1491.0363	1501.859	2179.791	2356.5036	2369.9727	2972.617	3026.265	3051.086	3067.1194	3502.9311	3523.5532
C#CC#CCNCC#N	C#CC#CCNCC#N	
InChI=1S/C7H6N2/c1-2-3-4-6-9-7-5-8/h1,9H,6-7H2	InChI=1S/C7H6N2/c1-2-3-4-6-9-7-5-8/h1,9H,6-7H2
