17
gdb 25617	6.2584	0.71349	0.67173	1.659	75.25	-0.2302	-0.0415	0.1887	1599.8184	0.136624	-418.046312	-418.037797	-418.036853	-418.081508	29.623	
O	-0.7770088456	 0.8699708651	 0.6435034268	-0.223697
C	 0.0661259203	 1.0092254285	-0.2025791911	 0.156144
C	 1.2735458081	 1.9141521043	-0.0777650392	-0.270749
C	 1.2899171469	 2.983521145	-1.1879292272	-0.190453
N	 2.5160806423	 3.7575837229	-1.2074931099	 0.026108
C	 2.8933225562	 4.7360796871	-0.3099476018	-0.132959
C	 4.1412941539	 5.1380297863	-0.70585024	-0.086059
N	 4.546363478	 4.4366459971	-1.8175895996	-0.269821
C	 3.5536820576	 3.6215459235	-2.0865963274	 0.002436
H	 0.0026007146	 0.459789581	-1.171593578	 0.078109
H	 1.2744527553	 2.3716684215	 0.9143125033	 0.135524
H	 2.1759099043	 1.2968393954	-0.1800385315	 0.13697
H	 1.1845203481	 2.5088207495	-2.16877835	 0.130596
H	 0.4404300712	 3.6631981812	-1.0654850372	 0.141652
H	 2.2468301847	 5.04438891	 0.4953952569	 0.128534
H	 4.7672832696	 5.8952523718	-0.2587811462	 0.11164
H	 3.5136159045	 2.9149523498	-2.9033784178	 0.126023
44.2009	59.1268	69.7141	104.6234	276.5265	329.1524	340.041	519.2793	638.1743	677.7732	728.7118	729.6469	780.812	814.4315	857.5165	860.9082	915.4837	983.542	1046.0104	1085.2123	1092.934	1104.5854	1145.4983	1191.7298	1265.1393	1269.7829	1299.7857	1313.1637	1390.8685	1397.4139	1418.1923	1432.801	1464.8475	1492.1542	1532.906	1545.896	1840.0168	2854.5108	3032.4715	3050.3835	3090.9003	3120.9928	3239.5359	3248.1497	3275.5584
O=CCCN1C=CN=C1	O=CCCn1ccnc1	
InChI=1S/C6H8N2O/c9-5-1-3-8-4-2-7-6-8/h2,4-6H,1,3H2	InChI=1S/C6H8N2O/c9-5-1-3-8-4-2-7-6-8/h2,4-6H,1,3H2
