19
gdb 96865	2.97739	1.34717	1.02953	3.2417	79.7	-0.2357	0.0217	0.2574	1206.3954	0.15971	-419.199919	-419.191265	-419.190321	-419.23341	32.26	
C	 0.1350385065	 1.4144040565	 0.085743997	-0.329239
N	 0.2483210063	-0.0353576843	 0.0824781235	-0.344365
C	 0.5277689912	-0.626117445	-0.9939952586	 0.499991
O	 0.7707078225	-0.0208011674	-2.2023544689	-0.276168
C	 0.7315369788	-0.9708934777	-3.2951663205	 0.125168
C	 1.8864729988	-0.6863883352	-4.2402075916	-0.401308
C	 0.7522233507	-2.3373993299	-2.6260661308	-0.070585
N	 1.9288550812	-2.502793923	-1.7609521802	-0.333039
C	 0.6200661183	-2.1004752407	-1.1711143956	-0.166573
H	 1.0621560264	 1.8554474393	 0.4727916307	 0.127077
H	-0.0572444739	 1.8466555106	-0.9034456112	 0.118844
H	-0.6681509118	 1.7062944475	 0.7696506483	 0.11803
H	-0.2297047218	-0.8399866546	-3.8106712437	 0.087509
H	 2.8345907873	-0.8727776722	-3.7315111663	 0.148184
H	 1.8208256028	-1.3337596193	-5.1208072596	 0.11366
H	 1.8571095282	 0.3534297366	-4.5756618196	 0.128485
H	 0.3093092609	-3.1895868315	-3.1290151826	 0.101006
H	 2.0681864949	-3.4933873693	-1.5730245902	 0.239297
H	 0.1075423526	-2.7550055603	-0.4791603703	 0.114026
83.3069	110.6889	154.1451	196.094	233.6581	258.6331	342.7686	406.5384	463.2415	521.6119	647.2219	695.1464	744.116	815.7757	836.9426	876.9296	886.0272	912.8632	956.0334	1031.6614	1047.8911	1059.8343	1108.0584	1116.7956	1126.2127	1130.1249	1168.3913	1170.169	1217.5789	1260.9266	1354.1592	1367.902	1381.6072	1405.4087	1414.7429	1438.6308	1485.7158	1491.4325	1497.3292	1499.6026	1803.7109	3012.8713	3014.2838	3046.8005	3070.9688	3091.1574	3117.3826	3142.4816	3177.9318	3215.08	3495.9334
CN=C1OC(C)C2NC12	CN=C1O[C@@H](C)[C@H]2N[C@@H]12	
InChI=1S/C6H10N2O/c1-3-4-5(8-4)6(7-2)9-3/h3-5,8H,1-2H3	InChI=1S/C6H10N2O/c1-3-4-5(8-4)6(7-2)9-3/h3-5,8H,1-2H3/t3-,4+,5+/m0/s1
