18
gdb 117466	5.26751	0.63012	0.56875	3.8443	71.5	-0.251	-0.0012	0.2498	1901.8695	0.145495	-476.287682	-476.277393	-476.276449	-476.325894	34.233	
C	-0.2047463884	 1.5015351191	 0.0119476329	-0.392661
C	-0.0342647322	-0.0042210299	 0.0030680868	-0.048105
O	-1.3557002886	-0.5935321435	 0.0133816101	-0.237763
C	-1.4043937138	-1.927995995	 0.006238467	 0.437748
O	-0.4385119701	-2.6536429453	-0.0076850685	-0.366882
C	-2.8396230349	-2.4175845738	 0.0176655358	-0.252105
N	-2.8430475213	-3.8594811275	 0.0113700774	-0.281468
C	-3.9925056155	-4.5756830294	 0.0149120961	 0.156421
O	-5.1044112326	-4.0882948002	 0.025370207	-0.328067
H	 0.7774024754	 1.9830841279	 0.004657956	 0.128475
H	-0.7600790968	 1.8376363114	-0.8679442772	 0.134763
H	-0.7427398425	 1.8291323805	 0.9057105808	 0.134765
H	 0.4971967742	-0.3549406046	-0.8867088585	 0.128448
H	 0.5146713625	-0.3633199957	 0.878794701	 0.128414
H	-3.3523515428	-2.0149815144	 0.899758899	 0.156398
H	-3.3687284383	-2.007463018	-0.8512415649	 0.156462
H	-1.937833379	-4.3070243039	-0.0001126687	 0.265605
H	-3.8034826852	-5.6670173277	 0.0072797979	 0.07955
16.9805	32.4274	84.7981	99.8546	141.3735	205.3225	258.1313	272.4572	295.3881	361.7419	441.191	563.9798	587.8927	681.3061	805.6705	827.5042	880.3127	965.7859	1019.4313	1035.7029	1040.0606	1080.7963	1136.0177	1181.788	1222.0685	1229.2004	1252.255	1291.9187	1369.475	1404.6333	1423.4931	1426.9071	1485.5731	1487.199	1495.6616	1518.9294	1521.4341	1796.6794	1814.71	2944.4183	3037.5079	3048.7271	3056.186	3061.4529	3095.7961	3123.862	3130.1256	3610.6984
CCOC(=O)CNC=O	CCOC(=O)CNC=O	
InChI=1S/C5H9NO3/c1-2-9-5(8)3-6-4-7/h4H,2-3H2,1H3,(H,6,7)	InChI=1S/C5H9NO3/c1-2-9-5(8)3-6-4-7/h4H,2-3H2,1H3,(H,6,7)
