14
gdb 9583	4.638	1.28591	1.20125	2.181	66.29	-0.2599	-0.0469	0.213	1001.5078	0.103016	-382.494644	-382.486271	-382.485327	-382.527545	29.653	
C	-0.0511853833	 1.605399991	-0.078168884	-0.471737
C	-0.0297612312	 0.104654444	 0.0162843607	 0.278993
O	 1.2175071182	-0.5707783319	-0.2000396546	-0.265055
C	 0.6729342384	-0.6268076079	 1.1182875292	-0.218922
C	 1.3522058937	 0.0763270219	 2.1704309498	 0.32457
C	 1.9075823178	 0.6368605812	 3.0769798663	-0.387383
C	-1.1911338791	-0.6398786297	-0.5820789445	 0.128966
O	-2.2199802647	-0.1204976433	-0.9267834643	-0.245287
H	 0.7651576639	 2.0428919907	 0.497391085	 0.142229
H	 0.0416452881	 1.9139844851	-1.1234237337	 0.141406
H	-1.0057827917	 1.9834108833	 0.296358568	 0.147737
H	 0.2945055935	-1.6112429514	 1.3961824305	 0.124192
H	 2.4039437257	 1.1337018858	 3.8742801364	 0.210235
H	-1.0071246693	-1.7325457087	-0.6856804445	 0.090058
82.7566	120.8289	142.2519	188.9558	251.3411	312.259	361.1602	376.641	488.9725	563.3714	601.3719	637.1495	678.7567	752.8861	805.0504	892.833	968.9619	1020.3931	1062.6043	1098.1998	1111.2279	1264.143	1324.9182	1392.809	1414.3071	1433.2112	1477.6837	1489.5496	1830.2253	2241.2047	2892.205	3057.5189	3103.6831	3125.7048	3154.3984	3499.2704
CC1(OC1C#C)C=O	C[C@]1(O[C@H]1C#C)C=O	
InChI=1S/C6H6O2/c1-3-5-6(2,4-7)8-5/h1,4-5H,2H3	InChI=1S/C6H6O2/c1-3-5-6(2,4-7)8-5/h1,4-5H,2H3/t5-,6-/m0/s1
