20
gdb 93420	3.1421	1.24297	1.01359	2.872	81.84	-0.237	-0.0522	0.1847	1215.8447	0.172232	-403.167179	-403.158583	-403.157639	-403.200469	33.163	
C	-0.1989900011	 1.5849374371	 0.0742976239	-0.382853
C	-0.0224858192	 0.0680575621	 0.0420628263	 0.033677
C	 0.6518317288	-0.408600109	-1.2677543665	-0.213904
C	 1.3144420058	-1.7949528152	-1.1599193072	-0.331011
C	 2.7000226785	-1.8086361477	-0.4963420666	 0.365867
O	 3.5626349966	-2.5648509325	-0.8984546648	-0.325921
C	 3.0054437514	-0.8204205436	 0.570183034	-0.14232
C	 2.0929571092	-0.1395136212	 1.2758499513	-0.045505
N	 0.6921980617	-0.4056321533	 1.2529018082	-0.313636
H	 0.772806101	 2.0904664693	 0.0636016914	 0.120397
H	-0.758525616	 1.9253224383	-0.8025663477	 0.117706
H	-0.7365737712	 1.8936708315	 0.9744579475	 0.12448
H	-1.0127335532	-0.3991353771	 0.1074399914	 0.081639
H	-0.1020668042	-0.4289497101	-2.062609525	 0.106378
H	 1.4061456378	 0.3219697435	-1.5826692745	 0.107944
H	 0.6588620861	-2.4917140986	-0.6175578061	 0.113232
H	 1.4629157235	-2.2369359158	-2.1488630851	 0.127022
H	 4.0653471134	-0.6487143646	 0.735643215	 0.108237
H	 2.4062422285	 0.6545073338	 1.9522439973	 0.115338
H	 0.5611155124	-1.4096903569	 1.3064069373	 0.233233
55.6318	138.874	223.771	240.7836	264.9734	327.7145	339.6975	369.573	454.6102	506.2883	557.6063	638.1037	698.6905	756.4315	780.7928	811.976	854.9032	913.2855	940.7781	954.852	993.2894	1001.3635	1043.6229	1090.1225	1129.5812	1147.4969	1196.8593	1215.0207	1256.4076	1274.6106	1323.8605	1338.2709	1370.8318	1381.2183	1402.5042	1410.8732	1462.7392	1473.8209	1484.4462	1492.3772	1501.991	1669.6145	1762.9013	3011.361	3027.305	3034.1148	3038.8472	3074.832	3095.1785	3104.6103	3122.2039	3133.5487	3179.1894	3526.6848
CC1CCC(=O)C=CN1	C[C@H]1CCC(=O)C=CN1	
InChI=1S/C7H11NO/c1-6-2-3-7(9)4-5-8-6/h4-6,8H,2-3H2,1H3	InChI=1S/C7H11NO/c1-6-2-3-7(9)4-5-8-6/h4-6,8H,2-3H2,1H3/t6-/m0/s1
