21
gdb 6177	3.31406	1.30914	1.18555	2.1856	75.4	-0.2389	0.0737	0.3125	1149.226	0.186362	-366.24712	-366.237261	-366.236317	-366.281465	36.322	
C	-0.0341091738	 1.478887506	-0.2592213941	-0.406723
C	 0.0400426609	 0.0281180344	 0.2168947939	 0.137238
O	 0.6584544226	-0.0790549037	 1.4986587223	-0.433079
C	-1.3292081241	-0.6228648819	 0.2253141296	-0.071169
N	-1.8465918278	-1.1277195485	-1.061270278	-0.374805
C	-1.5877589221	-2.0778500446	 0.0437371504	 0.32795
C	-0.4628342683	-3.0641235208	-0.1984384845	-0.438268
C	-2.7848559881	-2.6692406237	 0.7634962291	-0.458228
H	 0.9600489816	 1.933970368	-0.2547166136	 0.121063
H	-0.4432203371	 1.5290811309	-1.2727006437	 0.1319
H	-0.6849403972	 2.0716736087	 0.3971151827	 0.098479
H	 0.6941495383	-0.5304967738	-0.4578578174	 0.093294
H	 0.1516497975	 0.4626653661	 2.1136357395	 0.273692
H	-2.0409468214	-0.1006448421	 0.8705149545	 0.061009
H	-2.8426975265	-0.9373968584	-1.1416378899	 0.222719
H	 0.3157371751	-2.6378232438	-0.8324527543	 0.128696
H	-0.0087148258	-3.3750416924	 0.7482744611	 0.122813
H	-0.8458631437	-3.9592223867	-0.7017146538	 0.111138
H	-3.2345443439	-3.4764153036	 0.1730373577	 0.119616
H	-2.492296426	-3.0932719997	 1.7305262097	 0.124901
H	-3.5553126501	-1.9130969204	 0.9478951787	 0.107764
50.749	119.5572	158.4817	190.1436	228.5891	254.7625	266.9403	290.6361	367.6855	382.9587	402.4939	430.946	503.9552	534.242	713.9557	806.6841	877.2152	932.8017	948.8058	958.9924	984.1444	1011.1483	1054.6143	1070.3464	1093.3919	1115.6461	1145.7797	1158.3143	1225.3433	1284.1066	1312.1712	1341.1757	1360.9526	1397.0716	1409.7038	1412.4957	1423.3899	1464.114	1478.0009	1488.0522	1494.1987	1495.719	1501.1588	1515.2728	3020.4393	3021.5323	3035.3677	3062.5996	3079.4786	3085.4605	3095.3246	3096.604	3100.4294	3122.7366	3137.6394	3490.225	3798.8631
CC(O)C1NC1(C)C	C[C@@H](O)[C@H]1NC1(C)C	
InChI=1S/C6H13NO/c1-4(8)5-6(2,3)7-5/h4-5,7-8H,1-3H3	InChI=1S/C6H13NO/c1-4(8)5-6(2,3)7-5/h4-5,7-8H,1-3H3/t4-,5-/m1/s1
