17
gdb 28214	4.71317	1.24713	1.0092	1.6762	76.64	-0.185	0.0116	0.1966	1167.0668	0.138633	-418.035414	-418.027729	-418.026785	-418.067832	28.664	
C	 0.0370422733	 1.4206424615	 0.0748364834	-0.491771
C	-0.0059071968	-0.058700989	-0.0503806764	 0.350654
N	-0.1595306188	-0.7674617043	-1.1382518472	-0.388484
C	-0.0648646057	-2.0619508104	-0.6769517565	 0.290019
C	 0.1554255076	-2.0846218632	 0.6484912457	 0.237622
C	 0.047606828	-3.4522562964	 1.2243941357	-0.346801
C	 0.1296991251	-4.2574741621	-0.1276777107	-0.163561
N	-0.304917658	-3.3299434183	-1.2229770418	-0.402406
O	 0.1621895647	-0.7892708368	 1.0951852351	-0.223358
H	 1.0323786656	 1.7665736964	 0.3758551887	 0.143477
H	-0.2115659297	 1.8634068245	-0.8900043016	 0.155758
H	-0.6750080171	 1.7732541668	 0.8276720045	 0.143825
H	 0.842061146	-3.7545719035	 1.9137658212	 0.116338
H	-0.9120986918	-3.622129127	 1.7326730816	 0.118767
H	 1.1696368819	-4.572535851	-0.2836444241	 0.108358
H	-0.5011260293	-5.1489664364	-0.1144862919	 0.115423
H	 0.1675899848	-3.5149855308	-2.1001834255	 0.236139
90.4998	127.0478	173.8868	255.4684	273.0472	317.2223	487.9344	531.2232	657.949	660.8883	704.18	736.8599	794.3892	833.5002	861.1677	937.1471	949.4548	1010.1083	1033.8027	1060.876	1077.0163	1129.2359	1183.6647	1225.761	1256.4768	1284.4541	1326.8088	1345.4608	1381.1466	1411.0118	1472.0721	1474.493	1481.1315	1500.6074	1516.4893	1587.2379	1692.6183	3001.3786	3015.6344	3039.205	3065.3794	3093.6582	3099.7234	3155.3024	3540.2313
CC1=NC2=C(CCN2)O1	Cc1nc2c(CCN2)o1	
InChI=1S/C6H8N2O/c1-4-8-6-5(9-4)2-3-7-6/h7H,2-3H2,1H3	InChI=1S/C6H8N2O/c1-4-8-6-5(9-4)2-3-7-6/h7H,2-3H2,1H3
