19
gdb 73692	2.10651	1.97179	1.47933	2.2349	69.58	-0.2376	0.0619	0.2995	977.4532	0.16101	-460.166773	-460.158983	-460.158039	-460.199081	30.486	
O	-0.0649586016	 1.4032181477	 0.0054221346	-0.483337
C	 0.0283866558	-0.011815112	-0.006373605	 0.336665
C	 0.6742422759	-0.5771397667	-1.2880259031	-0.290079
C	-0.1344812823	-1.8508708275	-1.5440400558	-0.087246
O	-1.4622243681	-1.5174161534	-1.1485816669	-0.264769
C	-1.4008754869	-0.6412689468	-0.0302527619	 0.078042
C	-1.4867984149	-1.3872203611	 1.3062177849	-0.115704
O	-0.1418227456	-1.7258912945	 1.6362009612	-0.248146
C	 0.6214950743	-0.576701479	 1.311563588	-0.13439
H	 0.8278435668	 1.764024471	-0.0046211068	 0.279951
H	 0.5088220922	 0.1427231828	-2.0951309683	 0.114491
H	 1.748106552	-0.7599584297	-1.189842637	 0.096545
H	-0.1629263286	-2.1492601308	-2.5955698622	 0.108807
H	 0.2521542882	-2.6922558858	-0.951642554	 0.107434
H	-2.1796464098	 0.1163314447	-0.1452655555	 0.096347
H	-1.9228428083	-0.7363078269	 2.0821898669	 0.091444
H	-2.0699824666	-2.3071122653	 1.2348908761	 0.119604
H	 1.6696786816	-0.8800213752	 1.2371201494	 0.101817
H	 0.5238655661	 0.1990720684	 2.0886186954	 0.092523
70.8804	188.3425	239.3634	247.9641	291.114	386.2684	409.7181	442.6484	556.7918	603.1608	635.0018	719.9907	823.3835	847.4159	892.5571	939.3604	950.2665	974.0481	994.0889	1022.5956	1037.694	1061.7496	1108.006	1135.5921	1165.6388	1181.932	1218.9678	1236.872	1244.4708	1273.1833	1287.7448	1314.0156	1334.1396	1356.3702	1363.0492	1400.0953	1412.1519	1484.5415	1493.1365	1511.3176	1518.622	2968.8108	2975.1731	3005.6649	3053.4355	3085.0224	3087.2212	3091.1681	3108.5313	3117.6676	3808.3594
OC12CCOC1COC2	O[C@]12CCO[C@H]1COC2	
InChI=1S/C6H10O3/c7-6-1-2-9-5(6)3-8-4-6/h5,7H,1-4H2	InChI=1S/C6H10O3/c7-6-1-2-9-5(6)3-8-4-6/h5,7H,1-4H2/t5-,6-/m0/s1
