16
gdb 29278	5.63703	0.97474	0.88418	2.014	73.42	-0.2345	-0.0086	0.2259	1308.2291	0.124337	-437.899136	-437.891114	-437.890169	-437.932396	28.935	
C	 0.3040597612	 1.4722317733	-0.0571415954	-0.492431
C	 0.0306637908	 0.0068728663	-0.0313355094	 0.24591
C	-0.3713715946	-0.8203900076	-1.027171125	-0.117093
O	-0.4886429695	-2.0867989753	-0.5204614175	-0.173486
C	-0.1396062626	-1.9583391689	 0.7809914783	 0.397338
N	 0.1768426897	-0.7507781449	 1.1299842379	-0.355388
C	-0.1615186538	-3.1507168409	 1.6424782144	-0.036002
C	-1.027331552	-4.3087458268	 1.3616735682	-0.173856
O	 0.3695440944	-4.3636540196	 1.0935650454	-0.22461
H	 1.3381759306	 1.6803665002	 0.2363219999	 0.142316
H	 0.1391950189	 1.8856118923	-1.0553277746	 0.125046
H	-0.3450868542	 2.0023685579	 0.6475478523	 0.14056
H	-0.5976697132	-0.6985568838	-2.0723885517	 0.145016
H	 0.1297762376	-2.9341158928	 2.667208619	 0.123237
H	-1.3749519371	-4.9213324384	 2.1923853174	 0.123012
H	-1.6704251263	-4.287636431	 0.484289771	 0.130432
58.2865	130.8405	152.2518	164.0178	276.5229	299.2667	433.1973	452.5853	641.4631	653.1382	712.2616	754.5832	764.0663	847.8077	902.6498	970.4647	994.3682	1003.5623	1027.4847	1067.8944	1098.1374	1135.6541	1158.7914	1169.724	1232.4031	1267.5133	1298.8608	1372.2032	1399.3657	1418.9051	1475.5489	1490.6078	1516.6939	1618.8564	1638.8253	3039.5984	3088.9802	3096.5054	3123.2183	3154.5357	3183.6662	3292.4809
CC1=COC(=N1)C1CO1	Cc1coc(n1)[C@H]1CO1	
InChI=1S/C6H7NO2/c1-4-2-9-6(7-4)5-3-8-5/h2,5H,3H2,1H3	InChI=1S/C6H7NO2/c1-4-2-9-6(7-4)5-3-8-5/h2,5H,3H2,1H3/t5-/m1/s1
