22
gdb 105880	1.94112	1.65547	1.14136	1.9504	82.74	-0.2272	0.0707	0.2979	1201.4953	0.192612	-404.30201	-404.292154	-404.291209	-404.336515	37.005	
C	-0.0031313859	 1.5314727424	-0.2629983468	-0.383378
C	-0.0066438427	 0.0434239653	 0.113009074	-0.279785
C	-1.3919356875	-0.5360545048	 0.1652339609	 0.345316
C	-1.9130525597	-1.9476422767	-0.0017572122	-0.121126
C	-2.9123659103	-1.7541936643	 1.1525678609	-0.283518
C	-2.4014264512	-0.2861038195	 1.312934188	 0.059025
O	-1.6946802099	-0.0384355099	 2.5121635888	-0.437259
N	-2.0610329189	-0.9562169458	-1.0487900267	-0.123821
C	-3.350197989	-0.4519333698	-1.4977264365	-0.321795
H	 1.0171869064	 1.9257813459	-0.2953412401	 0.10952
H	-0.4558936341	 1.6877875681	-1.2475447643	 0.1184
H	-0.5650194521	 2.1215934897	 0.4683933287	 0.120523
H	 0.5760239982	-0.5285313713	-0.6171157741	 0.101594
H	 0.4656522517	-0.0912478854	 1.0917275919	 0.113894
H	-1.3780571514	-2.863835585	-0.2324921999	 0.088242
H	-3.9728452201	-1.91601608	 0.9336674586	 0.091943
H	-2.6318116682	-2.3353315463	 2.0342031996	 0.10694
H	-3.1426093511	 0.5048286134	 1.1298090041	 0.060609
H	-2.333340975	 0.0234325484	 3.2293546116	 0.284389
H	-4.1157632606	-0.3382498634	-0.7172776031	 0.104246
H	-3.202024678	 0.5241484356	-1.97002222	 0.123848
H	-3.7453694705	-1.1352435468	-2.2562340234	 0.122192
63.2842	124.8169	146.6235	189.376	203.2854	255.4338	272.1681	284.5403	311.5002	403.372	442.4186	519.7695	533.3701	649.5668	748.3344	757.3115	802.6466	868.5666	906.1714	929.8431	975.5227	996.4812	1009.3566	1035.9909	1089.6427	1114.0072	1143.4024	1159.8896	1181.9963	1184.4992	1197.134	1227.5629	1234.0718	1273.13	1298.3366	1324.4566	1353.822	1403.0862	1418.4615	1435.1327	1453.8166	1472.0721	1477.5416	1496.4205	1499.5824	1502.5556	1507.0783	2988.0215	3003.0038	3034.046	3044.011	3046.1131	3071.2857	3082.086	3102.4215	3105.2263	3109.6621	3111.1352	3154.9171	3817.3464
CCC12C(CC1O)N2C	CC[C@@]12[C@@H](C[C@H]1O)N2C	
InChI=1S/C7H13NO/c1-3-7-5(8(7)2)4-6(7)9/h5-6,9H,3-4H2,1-2H3	InChI=1S/C7H13NO/c1-3-7-5(8(7)2)4-6(7)9/h5-6,9H,3-4H2,1-2H3/t5-,6-,7-,8?/m1/s1
