20
gdb 56230	2.27651	1.22193	1.08568	0.9469	75.76	-0.2159	-0.0166	0.1994	1260.1688	0.16729	-440.314068	-440.30328	-440.302336	-440.350983	37.264	
C	 1.0910159843	 0.1053040128	 0.1850506455	-0.483643
C	 0.0431126537	-0.9375691481	-0.1280060767	 0.403075
O	-0.191592405	-1.872293259	 0.6072400268	-0.320552
C	-0.7462392388	-0.7540127186	-1.4288326305	-0.264618
N	-1.5444859309	-1.9062564421	-1.8106119427	-0.281653
C	-0.8596012637	-2.8725955038	-2.6808082639	-0.243872
C	 0.4856833703	-3.3565768234	-2.1145955181	 0.393048
C	 0.477744828	-4.6167301332	-1.276755041	-0.481665
O	 1.4902206719	-2.6986757015	-2.2921488104	-0.321152
H	 1.9658204629	-0.0942980726	-0.4456270095	 0.168292
H	 0.7394956232	 1.1133821103	-0.0571618442	 0.132747
H	 1.3859801532	 0.0470513784	 1.2335551283	 0.143377
H	-1.4009875828	 0.1182215091	-1.2690278751	 0.123947
H	-0.0589759923	-0.481092516	-2.2353218644	 0.141293
H	-1.8411501951	-2.3702635348	-0.9557460012	 0.229938
H	-1.5427743571	-3.7112102689	-2.8487599709	 0.105563
H	-0.6571688999	-2.392057392	-3.6437996282	 0.123755
H	 1.4847565897	-4.8410003207	-0.9234260772	 0.140413
H	-0.1854069386	-4.4730163981	-0.416619815	 0.160241
H	 0.0862369571	-5.4605116175	-1.8563868214	 0.131467
55.0685	64.883	80.171	107.312	130.9949	140.2342	189.1956	279.8086	327.6617	379.2366	430.0826	462.422	508.6426	607.9019	613.7685	724.497	784.306	828.4234	850.1787	896.8798	952.8827	1008.7731	1032.8781	1058.9619	1119.1751	1142.3936	1190.9138	1210.9937	1260.0041	1317.6711	1356.4555	1362.0337	1377.3973	1381.1976	1447.0572	1457.1646	1463.8765	1472.1298	1475.7933	1476.883	1517.2381	1791.1696	1802.6335	2982.5275	3035.5453	3037.3797	3042.0908	3091.3638	3095.9086	3101.4974	3102.438	3150.7368	3152.5221	3502.3288
CC(=O)CNCC(C)=O	CC(=O)CNCC(=O)C	
InChI=1S/C6H11NO2/c1-5(8)3-7-4-6(2)9/h7H,3-4H2,1-2H3	InChI=1S/C6H11NO2/c1-5(8)3-7-4-6(2)9/h7H,3-4H2,1-2H3
