18
gdb 65591	3.59975	1.24157	1.2096	2.2554	77.41	-0.2296	0.0324	0.262	1092.322	0.14731	-401.889739	-401.881526	-401.880581	-401.921979	32.684	
O	-0.1238640948	 0.9764015894	-0.5747830962	-0.451742
C	 0.0794313229	-0.3159666469	 0.0132150466	 0.123595
C	-1.2547967418	-1.1105607175	 0.1345686253	-0.256254
C	-1.3730673597	-1.8664606079	-1.1778342055	-0.02742
C	-1.1412887403	-1.1281592219	-2.446577168	-0.248078
N	-0.0583234953	-1.9296400426	-1.8481370682	-0.104476
C	 0.8813642538	-1.1609604334	-1.0240590852	-0.176218
C	 0.7683724715	-0.1735294946	 1.2958606081	 0.269366
C	 1.3228132978	-0.0348158681	 2.3538332015	-0.42086
H	-0.5410003807	 1.536895056	 0.0890419107	 0.283649
H	-1.1932023158	-1.8170515243	 0.9677438272	 0.118864
H	-2.09056304	-0.4325270712	 0.3327319046	 0.107024
H	-1.9633260431	-2.7787234323	-1.1819999831	 0.090362
H	-1.5275771454	-1.5379647913	-3.3756120978	 0.108484
H	-1.0719235053	-0.0467858145	-2.4048353627	 0.140508
H	 1.5069105544	-0.5044685842	-1.6338339938	 0.127566
H	 1.5257242867	-1.8696102225	-0.4967625245	 0.118106
H	 1.820359675	 0.084447758	 3.2846984511	 0.197524
123.8896	142.1736	216.3103	274.2411	295.643	382.9795	395.3079	407.6299	512.597	530.0877	602.1068	627.1528	662.5208	668.9584	755.3327	798.6891	835.7539	883.3475	908.2116	937.1413	1017.7341	1027.6805	1045.1892	1098.4106	1108.2102	1123.4678	1137.7655	1179.6998	1215.5665	1258.2544	1287.4093	1305.4133	1324.5647	1372.1285	1393.1922	1472.3137	1482.4655	1506.6597	2230.5685	3053.0757	3063.4609	3097.6147	3117.0421	3118.3721	3143.8374	3217.6349	3499.8045	3803.8029
OC1(CC2CN2C1)C#C	O[C@]1(C[C@H]2CN2C1)C#C	
InChI=1S/C7H9NO/c1-2-7(9)3-6-4-8(6)5-7/h1,6,9H,3-5H2	InChI=1S/C7H9NO/c1-2-7(9)3-6-4-8(6)5-7/h1,6,9H,3-5H2/t6-,7-,8?/m0/s1
