19
gdb 81042	2.55751	1.74025	1.30693	1.3349	70.04	-0.2363	0.0603	0.2965	1007.95	0.16012	-460.144377	-460.136412	-460.135468	-460.176153	32.267	
O	-0.1848426829	 1.3584876081	-0.0615897329	-0.456091
C	-0.032728394	-0.0487269132	-0.0060202153	 0.057041
C	 0.1161441162	-0.6346559277	 1.4288265337	 0.072406
C	-1.4203855077	-0.4745302455	 1.5867285875	-0.329762
C	-1.457817822	-0.6686045147	 0.0317407371	 0.411576
O	-2.4515748976	-0.0795838976	-0.7482319324	-0.496936
C	-1.3364742476	-2.1607100823	-0.2899560892	-0.271665
C	-0.4737747933	-2.8485543691	 0.788913594	-0.076681
O	 0.5328795169	-1.9883769632	 1.3264668679	-0.27402
H	 0.672787848	 1.7704655237	 0.0800006545	 0.292081
H	 0.6732040462	-0.4203725867	-0.760036927	 0.065417
H	 0.78431216	-0.1349040882	 2.1335575139	 0.074502
H	-1.9648226458	-1.1692206336	 2.2284214192	 0.100079
H	-1.6668419092	 0.5533992161	 1.8548000829	 0.110251
H	-2.2741688857	 0.8696576551	-0.7422051717	 0.290333
H	-2.3349282074	-2.6105856	-0.3084751795	 0.112462
H	-0.9041323799	-2.276423779	-1.28967666	 0.107977
H	-1.1193219027	-3.2046917315	 1.6034730057	 0.100495
H	 0.0519223384	-3.7189017206	 0.3875749317	 0.110535
192.5584	211.6103	236.3856	257.0186	301.3002	354.3926	398.8944	436.8237	440.7894	484.5655	523.2183	630.7106	680.3092	823.5127	826.6058	891.9496	909.5098	939.9533	954.8547	968.9596	1006.805	1049.3999	1090.8444	1125.2122	1141.1733	1149.7015	1194.4417	1199.9462	1213.3869	1245.537	1253.9446	1277.2093	1297.0202	1340.3236	1349.3214	1394.0903	1411.3163	1422.4718	1477.9711	1491.2418	1522.3202	3002.265	3021.4271	3041.8067	3080.4811	3082.8058	3091.9314	3095.0082	3144.4096	3779.3491	3827.4577
OC1C2CC1(O)CCO2	O[C@H]1[C@H]2C[C@]1(O)CCO2	
InChI=1S/C6H10O3/c7-5-4-3-6(5,8)1-2-9-4/h4-5,7-8H,1-3H2	InChI=1S/C6H10O3/c7-5-4-3-6(5,8)1-2-9-4/h4-5,7-8H,1-3H2/t4-,5+,6-/m1/s1
