19
gdb 83689	2.24297	1.69716	1.28132	2.9204	74.8	-0.2407	-0.0265	0.2142	1057.1383	0.158574	-422.997775	-422.989328	-422.988384	-423.031312	31.333	
C	 0.2703834001	 1.6240528967	-0.3545184224	-0.409104
C	 0.0869715863	 0.1408515243	-0.0639622509	-0.025102
C	 0.6167514934	-0.8583448457	-1.1293736175	 0.11412
O	 1.765907003	-0.379672444	-1.8473620418	-0.28967
C	 2.6729078307	-1.102898639	-0.9724416898	-0.088641
C	 1.5117628098	-1.5746153411	-0.0782199278	-0.102741
C	 1.0211581308	-0.5740893192	 0.9999039801	-0.125515
C	 2.0066807735	 0.2536979626	 1.7769724966	 0.144893
O	 3.1950659463	 0.0554117263	 1.8406743066	-0.250427
H	 1.3029635329	 1.8460652413	-0.635660052	 0.139231
H	-0.3689419691	 1.9273614338	-1.1903366076	 0.123028
H	 7.2763*^-6	 2.2391429832	 0.5095229869	 0.114084
H	-0.9632386628	-0.0683891159	 0.1628427867	 0.078367
H	-0.1135873576	-1.3426343451	-1.7840845908	 0.074894
H	 3.1661023382	-1.9195843728	-1.5140980093	 0.102018
H	 3.4281134155	-0.4584180513	-0.5191031875	 0.133532
H	 1.4589913146	-2.634688799	 0.1627694404	 0.082633
H	 0.3993633264	-1.0679841083	 1.7580803068	 0.105279
H	 1.5425005119	 1.0968840535	 2.3396596334	 0.079122
63.972	86.9374	196.3745	208.1473	233.2448	243.5588	345.6585	443.7456	505.7752	632.9407	656.7522	743.9672	829.1564	837.7839	872.2955	892.7258	947.2665	982.3807	991.3451	1006.4672	1018.5685	1077.2116	1112.4824	1119.3473	1143.6955	1154.2367	1179.1611	1199.922	1230.2781	1280.5571	1301.7452	1313.3234	1331.7553	1351.7115	1366.9713	1410.2654	1427.4598	1490.0012	1499.6018	1529.7055	1816.2445	2859.8102	3023.6367	3024.3998	3038.1732	3051.4437	3067.8012	3100.3441	3115.5267	3123.497	3126.4912
CC1C2OCC2C1C=O	C[C@H]1[C@H]2OC[C@H]2[C@H]1C=O	
InChI=1S/C7H10O2/c1-4-5(2-8)6-3-9-7(4)6/h2,4-7H,3H2,1H3	InChI=1S/C7H10O2/c1-4-5(2-8)6-3-9-7(4)6/h2,4-7H,3H2,1H3/t4-,5+,6+,7-/m1/s1
