21
gdb 75633	1.92705	1.78171	1.14555	3.2654	84.12	-0.2296	-0.0033	0.2263	1177.7952	0.180194	-387.102418	-387.092536	-387.091592	-387.136715	36.616	
C	-0.105246357	 1.6241968731	 0.0328993178	-0.420216
C	 0.0551249784	 0.1084842994	 0.0352318037	-0.164197
C	 1.1000693843	-0.5844557568	-0.8827192443	 0.365075
O	 1.1968341548	-0.6744716372	-2.0766943683	-0.32988
C	 1.7695030892	-1.2903550899	 0.256054908	 0.165853
C	 2.3882883181	-2.6578509612	 0.2061238076	-0.49893
C	 2.1596936161	-0.236141654	 1.2911069427	-0.37648
C	 0.7239500564	-0.6293220998	 1.2169705026	 0.29529
C	-0.0277139738	-1.2683857125	 2.3485224785	-0.4974
H	 0.8248131289	 2.1359790095	 0.297385436	 0.117942
H	-0.4013821002	 1.9675811124	-0.9631851814	 0.135568
H	-0.8769479449	 1.9437783356	 0.7411843878	 0.117726
H	-0.909789118	-0.3635444607	-0.1967204684	 0.096529
H	 3.36634902	-2.6272614086	-0.2861378146	 0.13672
H	 2.5374674412	-3.0615223108	 1.2130215272	 0.118272
H	 1.7590227253	-3.3574230236	-0.3530943812	 0.130012
H	 2.7192338596	-0.64860386	 2.1266285979	 0.117582
H	 2.5031280598	 0.7478172206	 0.9846967836	 0.118496
H	-0.4250558552	-0.5116028798	 3.0353592675	 0.128142
H	-0.8747241912	-1.8587863799	 1.9816062252	 0.122415
H	 0.6190420582	-1.9312000258	 2.9328382024	 0.121482
88.3717	139.0804	169.271	181.5419	191.0569	205.3031	211.5033	263.6416	356.0705	366.8177	476.6627	536.4767	586.7196	633.3923	666.7252	728.2405	766.241	848.7049	914.927	961.0001	975.4118	1000.652	1050.9522	1063.043	1075.7352	1089.5044	1110.5821	1139.8772	1176.509	1206.6138	1258.6696	1333.3302	1353.585	1395.6691	1408.0668	1412.3352	1427.4382	1479.4103	1486.1002	1493.6238	1495.0312	1496.9122	1501.1195	1509.9002	1867.0603	3018.1193	3023.4106	3030.4349	3035.6879	3082.5126	3094.079	3096.5039	3101.1974	3102.2781	3109.2418	3113.3012	3190.2162
CC1C(=O)C2(C)CC12C	C[C@H]1C(=O)[C@@]2(C)C[C@@]12C	
InChI=1S/C8H12O/c1-5-6(9)8(3)4-7(5,8)2/h5H,4H2,1-3H3	InChI=1S/C8H12O/c1-5-6(9)8(3)4-7(5,8)2/h5H,4H2,1-3H3/t5-,7-,8+/m0/s1
