15
gdb 30881	2.49136	1.43057	0.94873	2.4219	65.3	-0.1832	0.0396	0.2228	1187.5482	0.112484	-491.098072	-491.089339	-491.088395	-491.131681	31.46	
C	-0.3557287542	 1.2061029764	-0.0357375643	-0.252138
O	 0.6303025419	 0.1758505482	 0.1257960571	-0.268677
C	 0.8612029861	-0.5634058259	-0.9644793168	 0.300647
C	 0.7056718147	-1.8735359362	-1.2657741133	 0.164976
N	 0.2099734253	-2.9207924144	-0.4938230369	-0.600436
N	 1.2348700315	-2.120794728	-2.5362923339	-0.42537
C	 1.6749414658	-0.9637695981	-2.9095931078	 0.479863
O	 2.2570454029	-0.6434987466	-4.0648713138	-0.401162
O	 1.524302918	 0.0432097057	-2.0507027231	-0.209001
H	-0.0146983932	 1.959577207	-0.7531424489	 0.138422
H	-1.3067639897	 0.7819130823	-0.3786228823	 0.118375
H	-0.4844932047	 1.6669661319	 0.945082003	 0.135198
H	-0.3630304337	-2.6026976197	 0.2761855696	 0.247847
H	-0.2858921818	-3.6009368989	-1.0558453933	 0.251588
H	 2.3093488612	-1.4586421137	-4.5802587352	 0.319866
80.4229	136.6552	149.1858	206.1681	239.441	295.4378	307.0954	357.586	430.1018	466.6354	589.2687	630.012	650.0715	677.2126	728.7858	760.7427	829.0135	1008.619	1036.0451	1077.8992	1123.2505	1172.4365	1210.0619	1220.2727	1318.0796	1402.1449	1477.2247	1485.3335	1503.361	1507.424	1631.3742	1657.0309	1764.7901	3021.6106	3095.3913	3140.0978	3540.676	3641.2285	3806.7898
COC1=C(N)N=C(O)O1	COc1c(N)nc(O)o1	
InChI=1S/C4H6N2O3/c1-8-3-2(5)6-4(7)9-3/h5H2,1H3,(H,6,7)	InChI=1S/C4H6N2O3/c1-8-3-2(5)6-4(7)9-3/h5H2,1H3,(H,6,7)
