15
gdb 130354	3.46372	1.09742	0.8352	3.9005	77.78	-0.1858	0.0064	0.1922	1299.3572	0.114826	-446.309551	-446.301069	-446.300124	-446.342827	31.105	
N	-0.0023086397	 1.3784213835	 0.1031892687	-0.507517
C	 0.059030943	 0.0158640663	 0.0225977027	 0.106224
N	 1.1747555957	-0.6110840868	-0.001059089	-0.372095
C	 1.1639600939	-1.9955651183	-0.0178175257	 0.344897
C	 2.3028569396	-2.7829231336	 0.0033260538	 0.24128
N	 3.6451301984	-2.4397788136	 0.1248449155	-0.611275
N	 1.8219777058	-4.0474812348	-0.0245486504	-0.223335
N	 0.461976616	-4.0620962114	-0.0730296858	-0.141209
N	 0.0747560361	-2.8218411734	-0.0591923138	-0.2725
H	 0.85532942	 1.880072377	-0.0726342775	 0.25621
H	-0.8492531249	 1.8338454102	-0.1921453372	 0.259812
H	-0.9116136773	-0.4867725742	 0.0243269269	 0.133177
H	 3.7253110651	-1.4283690066	 0.1198311804	 0.263193
H	 4.2340733433	-2.8259719976	-0.6049356018	 0.249422
H	 2.3265312149	-4.9176076767	 0.0136549432	 0.273716
84.9264	129.1782	158.1761	250.5643	270.5298	287.4055	381.6655	413.6176	428.237	499.7957	545.9928	571.32	683.0398	700.0827	756.7369	809.4955	832.1901	1006.4331	1017.2392	1039.1577	1091.3501	1124.1379	1219.0941	1292.2499	1305.9736	1333.9247	1386.937	1418.3761	1534.3235	1620.592	1638.418	1670.4606	1732.4998	3102.9348	3506.9671	3584.9717	3594.6705	3666.5042	3712.7764
NC=NC1=C(N)NN=N1	NC=Nc1c(N)[nH]nn1	
InChI=1S/C3H6N6/c4-1-6-3-2(5)7-9-8-3/h1H,(H5,4,5,6,7,8,9)	InChI=1S/C3H6N6/c4-1-6-3-2(5)7-9-8-3/h1H,(H5,4,5,6,7,8,9)
