23
gdb 64468	2.47611	1.40507	1.15089	0.9551	87.77	-0.2334	0.0217	0.2551	1210.2504	0.206447	-388.299393	-388.290236	-388.289291	-388.332644	36.18	
C	-0.329799444	 1.5820576404	-0.0180141304	-0.397049
C	-0.0378545446	 0.0645685659	 0.0025865188	 0.194564
C	-1.3687066345	-0.7142525165	-0.0224747334	-0.419829
C	 0.7339425655	-0.3259661711	-1.2736675286	-0.087749
O	 1.9646450091	 0.3404014858	-1.467401368	-0.247588
C	 3.0609916688	-0.2284502092	-0.7803297708	-0.074356
C	 3.1558449777	 0.180296318	 0.6891719473	-0.256197
C	 2.0024181395	-0.2249453837	 1.573234254	-0.086458
C	 0.7003413185	-0.2775610907	 1.286559526	-0.052864
H	 0.5988913102	 2.1509639855	-0.1014665878	 0.127993
H	-0.9657157214	 1.8407267345	-0.8729368917	 0.105734
H	-0.8466791798	 1.8940399336	 0.8948883693	 0.107658
H	-1.9402388454	-0.4881036006	-0.9289005406	 0.110914
H	-1.1988464696	-1.7960489413	 0.0110049771	 0.114724
H	-1.9907475857	-0.4473781392	 0.8380830063	 0.114639
H	 0.8896052439	-1.4167475388	-1.28707114	 0.083028
H	 0.1174485237	-0.0650115946	-2.1424238747	 0.09583
H	 3.0245963514	-1.3270516151	-0.8587841765	 0.087545
H	 3.9580505741	 0.1151952285	-1.3074604322	 0.100076
H	 4.0833245428	-0.2466648198	 1.0917912391	 0.09897
H	 3.28537174	 1.2714545297	 0.7393858512	 0.119526
H	 2.2830675528	-0.4642288891	 2.5976440114	 0.084113
H	 0.037553287	-0.5534253324	 2.106627804	 0.076775
81.3097	161.9413	231.0897	256.6154	268.7362	278.3803	291.454	346.2121	385.5098	420.0713	463.5447	507.7428	572.5967	656.4607	740.498	782.8244	818.2892	885.5384	908.1161	945.5759	956.2634	986.4162	1003.2927	1015.3831	1047.2685	1059.8781	1085.1998	1154.0014	1179.2929	1218.7147	1232.5577	1255.7684	1295.5251	1327.0542	1347.0205	1385.976	1389.9911	1393.4357	1407.7311	1429.1896	1445.5502	1466.1993	1478.4515	1485.6655	1489.4516	1498.0351	1502.9104	1511.3176	1724.8853	2970.8333	2977.637	3003.801	3025.8822	3030.1163	3046.917	3050.6818	3063.2644	3094.1752	3096.862	3100.5718	3114.2763	3126.7983	3142.8175
CC1(C)COCCC=C1	CC1(C)COCCC=C1	
InChI=1S/C8H14O/c1-8(2)5-3-4-6-9-7-8/h3,5H,4,6-7H2,1-2H3	InChI=1S/C8H14O/c1-8(2)5-3-4-6-9-7-8/h3,5H,4,6-7H2,1-2H3
