19
gdb 110569	3.88238	1.15559	1.04221	2.2738	75.89	-0.2269	0.0856	0.3125	1213.4258	0.157227	-422.926096	-422.917656	-422.916712	-422.959192	31.992	
C	-0.2958225114	 1.3147313624	 0.0412125147	-0.240133
O	 0.3430214305	 0.0745711371	-0.1674023361	-0.256676
C	 0.8754778486	-0.4791377726	 1.0065863931	 0.133503
C	-0.0757111409	-1.2750896617	 1.931375492	-0.190445
C	-0.0532267745	-2.5049317447	 0.9711193645	 0.092678
O	 0.3047998043	-3.4626230252	 2.0075776636	-0.362037
C	 1.0763702406	-2.25962733	 2.3348665967	 0.466939
C	 1.9686274031	-2.277091353	 3.5337913454	-0.526629
C	 1.3837648203	-1.9131838908	 0.8363887776	-0.190088
H	 0.3956270503	 2.0609260692	 0.4632098956	 0.104941
H	-0.644816015	 1.6689035214	-0.9315668694	 0.128841
H	-1.1593040232	 1.2251912912	 0.7171952949	 0.107312
H	 1.5508469694	 0.23357493	 1.5040344379	 0.062966
H	-0.9018715073	-0.950059672	 2.563590888	 0.079674
H	-0.7589973213	-2.8046499971	 0.2004045088	 0.102371
H	 2.7256862915	-3.0611110083	 3.4354979882	 0.137493
H	 2.478136277	-1.3150879697	 3.646399967	 0.128855
H	 1.3872937703	-2.4702826398	 4.4405458314	 0.136581
H	 2.2006469476	-2.2961604864	 0.225778616	 0.083854
84.9765	137.2978	171.961	193.2194	238.6918	300.3086	318.2835	416.0555	530.	577.5556	646.2436	737.1494	766.2643	806.7328	848.7324	884.5831	910.397	936.2453	970.3074	998.1042	1015.2228	1076.8563	1105.091	1113.3483	1125.6873	1147.7304	1165.5097	1174.2531	1184.359	1224.1346	1256.5303	1269.3154	1276.5165	1371.5142	1397.6765	1418.9819	1473.2949	1483.0379	1488.3866	1492.1213	1508.8336	2974.4724	2988.1304	3024.1098	3039.2392	3112.6616	3114.745	3116.6025	3119.8103	3128.0258	3155.2279
COC1C2C3OC2(C)C13	CO[C@H]1[C@H]2[C@@H]3O[C@@]2(C)[C@H]13	
InChI=1S/C7H10O2/c1-7-3-5(8-2)4(7)6(3)9-7/h3-6H,1-2H3	InChI=1S/C7H10O2/c1-7-3-5(8-2)4(7)6(3)9-7/h3-6H,1-2H3/t3-,4+,5-,6-,7+
