21
gdb 83810	2.07531	1.79271	1.23632	1.3306	84.66	-0.2246	0.019	0.2436	1122.3051	0.182667	-387.087288	-387.078445	-387.077501	-387.1205	33.923	
C	-0.041034578	 1.5676490339	-0.1735587159	-0.402598
C	 0.0173776318	 0.0683269009	 0.0004285911	-0.045199
C	 1.3184093566	-0.6860218727	-0.1349599485	 0.071671
O	 2.4759593717	 0.070115408	-0.3462694483	-0.257175
C	 3.3680869316	 0.1170903586	 0.7621854907	-0.121355
C	 2.6808963436	 0.4711484238	 2.0566006794	-0.174837
C	 1.3975351675	 0.169993825	 2.2671050657	 0.316596
C	 0.6514300096	 0.5242689684	 3.522574121	-0.482045
C	 0.6656104875	-0.5953102678	 1.2183401354	-0.180258
H	 0.8521649759	 2.048049254	 0.2290141603	 0.129241
H	-0.1107650197	 1.830349782	-1.2345437518	 0.118236
H	-0.9169061792	 1.9873425029	 0.333044419	 0.10922
H	-0.8527552381	-0.4632135337	-0.3777618668	 0.081988
H	 1.3219456072	-1.6399961053	-0.6606048816	 0.082977
H	 3.9073918152	-0.8413966824	 0.8617122737	 0.099436
H	 4.1138461055	 0.875579058	 0.5022136223	 0.113116
H	 3.2698558264	 0.9867464635	 2.8108105678	 0.08386
H	 1.2928204648	 1.0443085231	 4.2394433494	 0.119028
H	-0.2090644094	 1.167683009	 3.300720361	 0.128858
H	 0.2504131831	-0.373499588	 4.0103419246	 0.121825
H	 0.1613073866	-1.4870421913	 1.5844366914	 0.087415
104.1875	139.6238	162.9625	183.2596	237.8514	266.6827	305.6971	385.1554	447.8743	521.0828	571.781	626.9778	705.8666	767.0815	796.4608	817.8717	845.0186	920.7141	952.166	972.2382	1028.7616	1050.2732	1052.3737	1070.6937	1090.8273	1105.6283	1120.0973	1145.9008	1176.2096	1197.044	1243.8461	1268.2878	1310.4505	1355.8006	1392.8004	1399.552	1411.8968	1418.7604	1435.3459	1476.4058	1488.9359	1493.4298	1495.0667	1500.9702	1730.7225	2948.4655	3016.8702	3036.07	3064.8937	3066.3983	3090.9295	3102.2972	3109.4989	3120.7083	3131.0956	3143.5282	3160.3126
CC1C2OCC=C(C)C12	C[C@H]1[C@H]2OCC=C(C)[C@@H]12	
InChI=1S/C8H12O/c1-5-3-4-9-8-6(2)7(5)8/h3,6-8H,4H2,1-2H3	InChI=1S/C8H12O/c1-5-3-4-9-8-6(2)7(5)8/h3,6-8H,4H2,1-2H3/t6-,7+,8-/m1/s1
