17
gdb 71835	2.48092	1.8686	1.59561	1.3613	71.29	-0.2214	-0.0066	0.2149	923.3443	0.136317	-417.954104	-417.94649	-417.945546	-417.98568	30.018	
C	-0.0869966838	 1.5220707335	-0.0521856539	-0.515585
C	-0.0313144273	 0.0311676611	-0.0311293811	 0.293968
C	 0.0604283987	-0.9706415017	-1.1430368777	-0.142278
N	 1.270380519	-1.7624163114	-1.0063379131	-0.188398
C	 1.6244572458	-1.5781506496	 0.2022724674	 0.004984
N	 0.7662682044	-0.7429209809	 1.0193007005	-0.215889
C	-0.4750653983	-1.630954398	 1.2308874519	-0.244344
C	-1.0496919933	-1.0745183428	-0.0535554122	 0.311753
O	-2.3834570097	-0.9686285496	-0.3837298428	-0.457714
H	 0.8879083851	 1.9505353324	-0.3077825353	 0.131712
H	-0.8153786344	 1.8582159671	-0.7962254409	 0.134463
H	-0.3877475157	 1.916901687	 0.9235045932	 0.133077
H	-0.2898646108	-0.7408379066	-2.1418786813	 0.102847
H	 2.4809246788	-2.0592578865	 0.6635357633	 0.123356
H	-0.2607965974	-2.7020750092	 1.321674996	 0.107693
H	-1.0184105153	-1.2809422824	 2.1106340031	 0.126565
H	-2.6450919858	-1.7561310225	-0.8738107571	 0.29379
170.6648	180.6762	218.2329	259.2043	322.2689	345.2106	373.9645	508.3905	543.2774	604.6084	656.2859	748.2742	798.2184	816.0389	851.3809	870.8849	915.0575	959.3476	976.3596	1006.4282	1030.5075	1058.8998	1108.5574	1143.3615	1152.3451	1180.079	1231.5665	1244.4065	1286.9518	1307.0147	1344.8902	1410.5666	1475.4814	1480.3257	1494.3997	1518.4823	1654.1918	3034.2612	3036.3231	3100.0632	3113.5077	3113.9395	3196.2399	3200.1157	3794.9241
CC12C3N=CN1CC23O	C[C@@]12[C@H]3[N][CH]N1C[C@@]23O	
InChI=1S/C6H8N2O/c1-5-4-6(5,9)2-8(5)3-7-4/h3-4,9H,2H2,1H3	InChI=1S/C6H8N2O/c1-5-4-6(5,9)2-8(5)3-7-4/h3-4,9H,2H2,1H3/t4-,5+,6+/m1/s1
