21
gdb 104656	2.1633	1.29084	1.13213	3.75	74.66	-0.247	0.0552	0.3022	1224.5637	0.181125	-461.337071	-461.326818	-461.325874	-461.37187	38.061	
C	-0.0176400452	 1.5125420068	-0.1651770292	-0.430853
C	 0.0691870091	 0.0116303101	 0.0191184309	-0.116544
C	 1.4051987431	-0.7020631491	 0.061583585	 0.042594
O	 2.5961108685	 0.0424276652	 0.1325247862	-0.430365
C	 0.5560128508	-0.658025305	 1.3005391854	 0.231415
C	 1.0819077596	 0.1718626489	 2.4591553774	-0.14418
O	 2.2194184546	-0.4563959978	 3.063382791	-0.428922
C	-0.0835392795	-1.9664066302	 1.734780533	-0.113657
O	 0.848531285	-2.8562568751	 2.320916678	-0.435386
H	 0.9016938252	 2.0134072093	 0.1463489109	 0.128587
H	-0.18052374	 1.7535040094	-1.2214810914	 0.117066
H	-0.849896334	 1.9434209842	 0.401055891	 0.124319
H	-0.717925001	-0.5381712452	-0.4927364692	 0.085375
H	 1.5058346729	-1.6587402648	-0.4485474117	 0.099064
H	 2.8395974077	 0.328634707	-0.7538790789	 0.295415
H	 1.3311943701	 1.1915430026	 2.1530354606	 0.105789
H	 0.3250878096	 0.2352900941	 3.2484309255	 0.111633
H	 2.9125970974	-0.4410960751	 2.3907912192	 0.301185
H	-0.9172200765	-1.7472379303	 2.4254729888	 0.079589
H	-0.51531856	-2.4839551704	 0.8693222151	 0.089894
H	 1.4413710526	-2.3153219547	 2.8630917325	 0.287981
97.5644	105.2073	133.9374	177.1538	200.9645	211.0198	270.6024	284.6776	320.3513	361.3953	384.7756	464.0272	522.73	540.1152	615.2516	622.6649	754.3725	832.798	898.4103	938.027	964.031	984.9059	1028.0661	1046.1458	1064.4628	1081.895	1119.1928	1139.6056	1161.5587	1202.25	1230.012	1260.7072	1288.3917	1342.9763	1362.6012	1379.659	1398.0226	1418.0147	1425.2944	1461.9641	1476.705	1495.2901	1500.0169	1508.5666	1518.6783	2944.4377	3034.8733	3039.6824	3047.6802	3090.1787	3091.9882	3111.65	3118.0822	3133.0373	3710.7199	3778.6931	3808.4021
CC1C(O)C1(CO)CO	C[C@H]1[C@@H](O)C1(CO)CO	
InChI=1S/C6H12O3/c1-4-5(9)6(4,2-7)3-8/h4-5,7-9H,2-3H2,1H3	InChI=1S/C6H12O3/c1-4-5(9)6(4,2-7)3-8/h4-5,7-9H,2-3H2,1H3/t4-,5+/m0/s1
