21
gdb 72241	2.34609	1.68065	1.45762	1.0851	81.7	-0.2351	0.0816	0.3167	1044.6389	0.183495	-387.080414	-387.072098	-387.071154	-387.112622	33.34	
C	-0.121862516	 1.5051032005	 0.0001105677	-0.518751
C	-0.0129438551	 0.0112976892	 0.0239212024	 0.293512
C	-0.0552315694	-0.9310719355	-1.1634290171	-0.165136
C	 1.1704929964	-1.8426890608	-1.2123213132	-0.236479
C	 1.899402093	-1.5495622956	 0.1290542091	-0.20577
C	 0.8177624994	-0.8860547698	 0.9935010196	-0.086923
C	-0.4342974196	-1.8165909186	 1.1586683008	-0.305084
C	-1.0579752216	-1.0792449664	-0.0217735473	 0.352684
O	-2.4182548441	-0.9025231335	-0.2222493051	-0.471962
H	 0.8219274878	 1.9755444139	-0.3009406652	 0.114441
H	-0.8939316682	 1.8235392465	-0.7075030151	 0.127178
H	-0.3923870505	 1.9045226573	 0.9844780283	 0.117563
H	-0.4931149392	-0.5546190959	-2.082632699	 0.077639
H	 0.8923373359	-2.8991748444	-1.2989550349	 0.094736
H	 1.8016319416	-1.611973256	-2.0761662539	 0.096119
H	 2.3133462246	-2.4504228194	 0.5935223729	 0.092488
H	 2.7300717951	-0.8528445768	-0.0321298009	 0.094737
H	 1.1829137146	-0.4271729679	 1.9131788981	 0.064939
H	-0.2729051176	-2.8993478487	 1.0824895062	 0.079486
H	-0.9803910087	-1.5991784794	 2.0804810675	 0.103299
H	-2.7478409686	-1.6419531486	-0.7447986308	 0.281283
165.1161	183.1638	201.5527	210.4635	254.4548	302.8271	338.0118	412.4321	508.2476	550.8939	630.6392	691.0846	701.1195	745.3011	828.2936	852.8039	857.623	905.2349	933.623	952.1173	979.2559	1007.1887	1048.5035	1075.8272	1090.0528	1106.7432	1147.1728	1170.6051	1196.083	1221.5585	1223.899	1236.9729	1263.3954	1283.6097	1290.889	1330.2295	1337.0703	1341.1389	1412.9397	1473.2205	1484.5217	1487.7649	1495.9438	1503.734	1518.1808	3018.7324	3020.366	3032.6678	3038.6683	3069.4643	3075.6561	3086.0382	3091.8387	3098.0583	3105.345	3166.0705	3790.6426
CC12C3CCC1CC23O	C[C@@]12[C@H]3CC[C@@H]1C[C@@]23O	
InChI=1S/C8H12O/c1-7-5-2-3-6(7)8(7,9)4-5/h5-6,9H,2-4H2,1H3	InChI=1S/C8H12O/c1-7-5-2-3-6(7)8(7,9)4-5/h5-6,9H,2-4H2,1H3/t5-,6-,7+,8+/m1/s1
