19
gdb 89395	2.67277	1.47681	1.18012	2.2896	76.17	-0.2384	-0.0205	0.2179	1119.8966	0.157705	-423.045924	-423.037168	-423.036224	-423.079209	33.314	
C	-0.6361213972	 1.3591445421	 0.0708899774	-0.3995
C	 0.0915313511	 0.0265099329	-0.0697630165	 0.008627
O	 0.927285807	-0.012554306	-1.2264940917	-0.316351
C	 2.2570625967	-0.3670149093	-0.8870174254	 0.438816
C	 2.9015699658	-1.2598132861	-1.9079232709	-0.463968
C	 2.9977336873	 0.6696207479	-0.1103785807	-0.346886
C	 2.3626259689	-0.5325355785	 0.6120375407	-0.237887
C	 0.9846476601	-0.3177699925	 1.1355380867	 0.389445
O	 0.5897714393	-0.4487445567	 2.267155511	-0.33252
H	 0.0706419098	 2.1907989554	 0.1437654724	 0.12233
H	-1.2839795192	 1.5335144097	-0.7919017233	 0.128702
H	-1.2484299961	 1.3405135034	 0.9767453012	 0.140574
H	-0.6508436687	-0.7816188313	-0.1519836873	 0.111975
H	 2.91758417	-0.7656806545	-2.8846356562	 0.135532
H	 3.9319711301	-1.4918250297	-1.6251296607	 0.121131
H	 2.3454115189	-2.1965940826	-2.0091339813	 0.12919
H	 4.0820821259	 0.6620410747	-0.1369974891	 0.126862
H	 2.5514475814	 1.6500299499	 0.0113606151	 0.129284
H	 3.0075405791	-1.2435280891	 1.1124735085	 0.114642
74.8185	126.8597	206.6996	212.8842	224.6348	292.99	338.8209	404.1322	429.3662	476.7241	586.3014	613.6678	652.6818	734.8397	769.8382	841.8991	874.7061	914.1348	952.6924	967.8152	1013.482	1047.0198	1048.1172	1092.4149	1107.0019	1117.0509	1133.8414	1180.3793	1227.4155	1269.3108	1319.3442	1356.9296	1387.4681	1399.4349	1430.305	1478.1282	1480.6164	1486.7052	1496.3396	1501.5993	1836.1651	2993.6181	3040.5673	3046.3523	3108.7751	3121.1072	3121.9039	3129.5728	3134.3575	3197.2467	3225.4831
CC1OC2(C)CC2C1=O	C[C@H]1O[C@@]2(C)C[C@H]2C1=O	
InChI=1S/C7H10O2/c1-4-6(8)5-3-7(5,2)9-4/h4-5H,3H2,1-2H3	InChI=1S/C7H10O2/c1-4-6(8)5-3-7(5,2)9-4/h4-5H,3H2,1-2H3/t4-,5+,7+/m1/s1
