20
gdb 105187	1.96811	1.44096	1.05617	1.9996	76.36	-0.2544	-0.0222	0.2321	1242.8625	0.169097	-440.284393	-440.274332	-440.273388	-440.319396	36.684	
C	-0.2835686752	 1.4882282699	 0.2455644877	-0.40904
C	 0.0370360753	 0.0154907139	 0.1546807346	-0.01772
N	 1.3949351684	-0.3836297968	-0.196800688	-0.372878
C	 0.8858716997	-0.7392426606	 1.1472455621	 0.158744
C	 1.6109704727	-0.0683467564	 2.2926704178	-0.145778
O	 2.8694400132	-0.6855202435	 2.527369344	-0.421436
C	 0.503194123	-2.196285176	 1.3014132647	 0.349778
C	 0.3682067463	-2.7605269093	 2.6970238879	-0.504016
O	 0.3205270318	-2.8774055596	 0.3118390441	-0.325954
H	 0.5727707019	 2.0712641418	 0.5887772566	 0.13217
H	-0.5632594602	 1.8634724773	-0.7447249475	 0.129805
H	-1.127093474	 1.6666221358	 0.9205773606	 0.121818
H	-0.7572282872	-0.592943627	-0.2759357175	 0.103883
H	 1.34748299	-1.2338897505	-0.7602434493	 0.24627
H	 1.7297385616	 1.0008774173	 2.082598255	 0.100288
H	 1.048467064	-0.1610314668	 3.226550977	 0.110325
H	 3.3560924039	-0.6298448726	 1.6962662866	 0.293886
H	 1.3307995342	-2.6795451566	 3.2124385482	 0.170674
H	-0.3621076581	-2.1885454003	 3.2803859118	 0.138632
H	 0.0571809688	-3.8036977001	 2.6388779236	 0.140549
67.3965	93.3041	148.1968	164.9427	209.3223	219.3652	222.6268	306.1608	357.7575	403.1316	444.3177	446.6942	520.845	591.001	604.9238	690.9307	794.2556	881.9246	919.6646	964.4942	995.0023	1036.3683	1044.3722	1060.9019	1084.5701	1105.0721	1144.2399	1202.963	1214.2529	1281.0852	1303.5719	1359.815	1379.6145	1381.7997	1407.9893	1430.3835	1452.4058	1468.209	1477.9882	1487.9017	1498.6368	1507.1493	1779.6873	3034.133	3039.7046	3041.7097	3087.9106	3099.5699	3105.7441	3116.3072	3140.1491	3157.6577	3455.1871	3791.6663
CC1NC1(CO)C(C)=O	C[C@H]1N[C@]1(CO)C(=O)C	
InChI=1S/C6H11NO2/c1-4-6(3-8,7-4)5(2)9/h4,7-8H,3H2,1-2H3	InChI=1S/C6H11NO2/c1-4-6(3-8,7-4)5(2)9/h4,7-8H,3H2,1-2H3/t4-,6+/m1/s1
