13
gdb 131885	2.78652	1.66195	1.04779	3.0531	66.11	-0.2814	-0.0954	0.186	1041.1891	0.088794	-489.831917	-489.824228	-489.823284	-489.865503	26.512	
C	-0.0039862844	 1.5567342852	 0.1697296945	-0.503276
C	 0.0165623341	 0.0801961461	-0.0013870494	 0.222177
C	 0.0029189548	-0.7005784842	-1.1238649023	 0.345567
O	 0.0333047993	-2.0139786555	-0.7665645513	-0.136995
C	 0.0644590239	-1.9701035123	 0.5756061044	 0.094081
N	 0.056826746	-0.7795802457	 1.0882557981	-0.297342
N	-0.035113067	-0.4168609087	-2.5232372222	 0.345734
O	-0.0625384316	 0.7710434767	-2.8396795203	-0.375691
O	-0.038098723	-1.3643277324	-3.2961419226	-0.348781
H	 0.8851955797	 1.876835179	 0.7226997671	 0.154247
H	-0.0366824954	 2.0599404032	-0.7944158428	 0.170864
H	-0.8744279788	 1.8471508947	 0.7670904782	 0.15423
H	 0.0925064624	-2.918169956	 1.0900854085	 0.175186
40.8154	72.341	187.2966	220.2039	282.4663	333.1665	444.8672	540.4239	628.4862	681.0782	685.1474	782.4952	846.2034	879.9781	952.4464	987.7312	1066.1571	1131.4057	1171.4739	1234.2316	1289.7408	1349.3255	1396.8319	1412.5489	1470.2965	1483.9828	1541.0992	1613.108	1640.6738	3048.5009	3101.7321	3181.1082	3278.8342
CC1=C(OC=N1)N(=O)=O	Cc1c(ocn1)N(=O)=O	
InChI=1S/C4H4N2O3/c1-3-4(6(7)8)9-2-5-3/h2H,1H3	InChI=1S/C4H4N2O3/c1-3-4(6(7)8)9-2-5-3/h2H,1H3
