17
gdb 46043	3.02283	1.38241	1.16515	3.6222	69.	-0.2544	0.0471	0.3015	1084.2926	0.137978	-455.131976	-455.12413	-455.123186	-455.165446	28.74	
N	-0.3055324206	 1.1477695596	 0.41757469	-0.577571
C	-0.1221592079	-0.0115030127	-0.0301163872	 0.487841
O	 0.9393960403	-0.4596791037	-0.7539293557	-0.243875
C	 0.8165018704	-1.8687742595	-0.9620829834	-0.122003
C	-0.6560816152	-2.1604883293	-0.6040500655	 0.039146
O	-1.0257702444	-1.0075146785	 0.1595992951	-0.235759
C	-1.5633594402	-2.3372980412	-1.8058066434	-0.007049
C	-2.9840692895	-1.9224212277	-1.7614367994	-0.242175
N	-2.0151426587	-1.1916958867	-2.6024256056	-0.320657
H	 0.4923432683	 1.7390471136	 0.1979731285	 0.235262
H	 1.0549819618	-2.0917208928	-2.0041483342	 0.139075
H	 1.5179045334	-2.3941495256	-0.3055112949	 0.124507
H	-0.7427346133	-3.0339049976	 0.0497872677	 0.111506
H	-1.2931572053	-3.2085222697	-2.4021329803	 0.099204
H	-3.7301539595	-2.4918162573	-2.3075527978	 0.122864
H	-3.335894463	-1.439070678	-0.8553905646	 0.138403
H	-1.7711107665	-0.3197911227	-2.1371747495	 0.251282
55.8735	78.1889	128.3458	219.3159	256.3416	407.9708	484.9719	571.1057	714.0365	720.2088	744.0892	807.1135	814.7052	856.8505	890.4216	916.4809	956.9211	991.15	1007.8158	1024.6822	1068.8622	1103.992	1113.3636	1148.1167	1151.7893	1196.2201	1228.1807	1254.553	1261.5657	1301.3235	1336.2819	1376.7946	1408.4764	1429.8437	1506.7183	1522.4246	1799.5381	3046.1756	3064.7999	3110.9857	3115.2932	3121.3621	3211.9659	3499.8546	3540.1798
N=C1OCC(O1)C1CN1	[NH][C]1OC[C@@H](O1)[C@H]1CN1	
InChI=1S/C5H8N2O2/c6-5-8-2-4(9-5)3-1-7-3/h3-4,6-7H,1-2H2	InChI=1S/C5H8N2O2/c6-5-8-2-4(9-5)3-1-7-3/h3-4,6-7H,1-2H2/t3-,4-/m1/s1
