16
gdb 113136	2.43379	1.18655	0.89232	1.5155	79.05	-0.2449	0.005	0.2499	1291.8375	0.121176	-400.638916	-400.629431	-400.628487	-400.673341	34.962	
O	 0.045625904	 1.3319720377	-0.4528918965	-0.416772
C	 0.0456526732	 0.1241299001	 0.2886343547	-0.082592
C	-1.3352069199	-0.4920756806	 0.2941254982	-0.061307
N	-1.7527204963	-1.0676108629	-0.9827271629	-0.364403
C	-1.5598715803	-1.9843076639	 0.1850819264	-0.046687
C	-0.4491869339	-2.9030302133	 0.0939703432	 0.313379
C	 0.4646166145	-3.6812673859	 0.0457894585	-0.44487
C	-2.7440140995	-2.5123678194	 0.8193134255	 0.260709
C	-3.7423288657	-2.9439712701	 1.3312327562	-0.439378
H	-0.2068970053	 1.0963855081	-1.3533016845	 0.292815
H	 0.7701476145	-0.5990836047	-0.106962001	 0.109698
H	 0.3458134747	 0.3844912569	 1.3083012348	 0.116217
H	-2.0839242586	 0.0423515678	 0.8744106459	 0.108643
H	-2.7520957878	-0.9423410537	-1.1272083461	 0.248693
H	 1.272033145	-4.3693396271	-0.0058195035	 0.201735
H	-4.6179275385	-3.3326099587	 1.7898283612	 0.204119
67.0029	121.7842	127.7997	145.8335	199.0466	266.1227	337.13	415.1665	424.4184	472.31	526.7103	570.3988	601.0018	612.8134	623.9434	657.8346	667.5857	677.6125	812.6816	876.7368	990.1375	999.6665	1044.7753	1075.7726	1087.8038	1175.7602	1248.0031	1266.7927	1321.2104	1368.7619	1414.558	1448.7777	1498.6414	2238.4991	2244.5448	3027.1863	3089.6921	3142.3425	3501.0653	3501.5874	3504.175	3796.264
OCC1NC1(C#C)C#C	OC[C@H]1NC1(C#C)C#C	
InChI=1S/C7H7NO/c1-3-7(4-2)6(5-9)8-7/h1-2,6,8-9H,5H2	InChI=1S/C7H7NO/c1-3-7(4-2)6(5-9)8-7/h1-2,6,8-9H,5H2/t6-/m1/s1
