14
gdb 27041	2.43546	1.46053	0.91418	6.015	71.98	-0.202	-0.0386	0.1634	1170.0713	0.102168	-470.080804	-470.072629	-470.071685	-470.113533	30.256	
N	 0.1035964252	 1.4029231169	 0.1601223198	-0.597146
C	-0.0060709134	 0.0362206673	 0.0420478308	 0.293956
C	-1.1097706038	-0.7883547927	 0.0191203722	 0.196736
N	-0.6157858744	-2.1066951351	-0.0058787273	-0.418987
C	 0.7522007557	-2.1418256902	-0.0118824417	 0.459326
O	 1.5212035872	-3.0754313032	-0.0254783053	-0.412172
N	 1.1040139492	-0.7658837512	 0.0044408785	-0.385288
C	-2.5059788371	-0.4948481914	-0.0083450996	 0.055701
O	-3.3832882109	-1.3440343746	-0.0361934547	-0.33061
H	 0.8358819686	 1.8243808613	-0.3961806522	 0.265058
H	-0.76971927	 1.8998588002	 0.0604147059	 0.272011
H	-1.2098165472	-2.9178154535	-0.0188821706	 0.284533
H	 2.0601318895	-0.4699945575	 0.1090863575	 0.273749
H	-2.7552845188	 0.5907302137	-0.0054729234	 0.043133
119.7134	154.6508	184.1877	231.2619	279.6242	309.2083	396.5085	441.4219	463.7221	519.6064	599.0273	615.1877	646.9957	694.0719	699.7163	756.6372	886.3563	978.08	994.1612	1066.1813	1178.6126	1257.8061	1304.1126	1316.2916	1423.7108	1436.9384	1531.7548	1633.0739	1690.7478	1741.8569	1867.0534	2858.049	3552.4691	3655.9686	3671.897	3689.7169
NC1=C(NC(=O)N1)C=O	Nc1c([nH]c(=O)[nH]1)C=O	
InChI=1S/C4H5N3O2/c5-3-2(1-8)6-4(9)7-3/h1H,5H2,(H2,6,7,9)	InChI=1S/C4H5N3O2/c5-3-2(1-8)6-4(9)7-3/h1H,5H2,(H2,6,7,9)
