15
gdb 132789	2.328	1.79795	1.01551	2.1832	72.78	-0.1953	0.0167	0.212	1075.127	0.113215	-461.97757	-461.969809	-461.968865	-462.009334	30.728	
N	-0.0406307968	 1.4311414529	-0.1561903526	-0.59858
C	-0.0032529814	 0.0416643802	-0.0739583733	 0.098163
C	-1.1681418614	-0.7208448269	-0.002405715	 0.248788
F	-2.3321798862	-0.0448082606	 0.05689053	-0.097393
C	-1.1713484071	-2.105700139	 0.020163364	-0.255415
C	 0.0471876359	-2.7757258389	-0.0275494544	-0.113969
C	 1.2369915382	-2.0516934374	-0.0903116487	-0.252608
C	 1.2118943094	-0.661431328	-0.1113314331	 0.3373
O	 2.3390190697	 0.1169376868	-0.1606683914	-0.460066
H	 0.8046013252	 1.8767203713	 0.1701982673	 0.25904
H	-0.8768027928	 1.8381865719	 0.2364181648	 0.252449
H	-2.1174485198	-2.6297938836	 0.0757022257	 0.104263
H	 0.0729125195	-3.8587811766	-0.0134518345	 0.097847
H	 2.1930829476	-2.5669556557	-0.1223683427	 0.081786
H	 3.11445545	-0.4523298363	-0.151754956	 0.298395
156.5036	255.84	280.5963	288.8475	324.311	330.3742	340.4369	491.8469	510.2882	545.5482	568.9961	585.3415	636.717	707.0835	721.0039	761.093	848.2067	849.6487	904.0046	971.8155	1086.7074	1151.336	1176.7716	1231.8727	1278.2497	1308.051	1348.7971	1386.1745	1513.0467	1553.3792	1622.9768	1648.6207	1667.1416	3160.3084	3196.9969	3213.7932	3564.9577	3672.1794	3835.8363
NC1=C(F)C=CC=C1O	Nc1c(F)cccc1O	
InChI=1S/C6H6FNO/c7-4-2-1-3-5(9)6(4)8/h1-3,9H,8H2	InChI=1S/C6H6FNO/c7-4-2-1-3-5(9)6(4)8/h1-3,9H,8H2
