16
gdb 45631	5.79636	0.8864	0.77616	3.5975	78.12	-0.2322	-0.0013	0.2309	1402.654	0.123836	-396.919887	-396.911191	-396.910247	-396.954024	31.739	
N	 0.019086545	 1.3299012003	 0.0076469501	-0.550177
C	 0.0246249407	 0.0610245667	 0.0009298846	 0.381916
C	-1.1966313202	-0.8550818521	 0.0030141768	-0.23798
N	-0.6921060182	-2.2335683488	-0.0067762886	-0.288389
C	 0.5795476048	-2.1477982874	-0.0135014745	 0.409769
C	 1.5591578967	-3.293463855	-0.0247184521	-0.506249
C	 0.950633556	-4.614567069	-0.0285877512	 0.354373
C	 0.4880431465	-5.7214727833	-0.0320039782	-0.438485
N	 1.0866768349	-0.8454504454	-0.0098857373	-0.387183
H	 0.9633341988	 1.718846457	 0.0043255702	 0.20603
H	-1.8186388756	-0.6788405147	 0.8870187522	 0.14695
H	-1.8282995711	-0.6699136981	-0.8722777649	 0.14695
H	 2.2118829638	-3.178735121	-0.9023847914	 0.152887
H	 2.220986192	-3.1880547145	 0.8472876473	 0.152905
H	 0.058658642	-6.6925657163	-0.0346300578	 0.202287
H	 2.0601963738	-0.5907073885	-0.0134800052	 0.254395
35.4327	109.5128	114.5346	231.8423	275.9979	324.0144	344.5447	404.5568	480.6959	506.6182	620.7931	634.093	655.6816	675.4075	735.5867	852.4551	894.7113	952.2043	953.3965	988.1353	1000.9387	1052.5889	1093.5611	1163.2292	1183.2315	1233.0651	1281.893	1317.2899	1353.0627	1447.6217	1454.1557	1456.4221	1718.6118	1765.8413	2256.5956	3003.3408	3027.3184	3053.3337	3085.1524	3456.4237	3506.929	3656.8603
N=C1CN=C(CC#C)N1	[NH][C]1CN=C(CC#C)N1	
InChI=1S/C6H7N3/c1-2-3-6-8-4-5(7)9-6/h1H,3-4H2,(H2,7,8,9)	InChI=1S/C6H7N3/c1-2-3-6-8-4-5(7)9-6/h1H,3-4H2,(H2,7,8,9)
