17
gdb 81158	2.55997	1.69341	1.25465	0.7649	74.77	-0.2341	0.023	0.2572	1019.5262	0.1355	-421.760017	-421.752203	-421.751259	-421.791963	31.212	
O	-0.0240016695	 1.3974386459	 0.1284693149	-0.439586
C	 0.0227606044	 0.00167857	 0.0294230189	 0.096763
C	-1.3822015268	-0.6268893693	-0.2005628996	-0.132301
C	-1.2420455445	-0.1928654564	-1.6924924464	-0.284154
C	 0.239625783	-0.5814626679	-1.415345569	 0.337085
O	 0.1797230136	-1.9982793429	-1.170567285	-0.328435
C	-0.982453808	-2.1002140126	-0.3053855671	-0.087128
C	 1.3514874691	-0.1847973561	-2.234393163	 0.103778
C	 2.2784803509	 0.226475683	-2.8807158595	-0.36102
H	 0.8449628803	 1.7385727542	-0.1128502113	 0.291997
H	 0.6579389251	-0.4562893342	 0.7995745924	 0.077268
H	-2.2390423286	-0.3639067579	 0.4168159804	 0.087622
H	-1.7598338359	-0.7754453415	-2.456710581	 0.104576
H	-1.3760235662	 0.8770232412	-1.8310352785	 0.1288
H	-0.6916996774	-2.5481591189	 0.6513504226	 0.107104
H	-1.7462372723	-2.7270817356	-0.7789115097	 0.107548
H	 3.0950342128	 0.568771989	-3.4675801091	 0.190083
112.2802	154.7303	274.2404	301.4933	343.3839	351.765	452.9219	476.887	514.1217	569.3865	601.4566	624.197	654.4619	679.0094	831.295	868.0114	918.5627	948.4377	958.8298	976.7633	996.4539	1026.8625	1074.8344	1114.4168	1146.4051	1155.0544	1184.8905	1207.6841	1251.3812	1259.4452	1291.0225	1321.467	1355.8814	1414.1018	1478.3477	1527.607	2238.3825	3016.1939	3029.9992	3071.8809	3088.886	3141.0165	3179.28	3499.9705	3793.7317
OC1C2CC1(OC2)C#C	O[C@H]1[C@H]2C[C@@]1(OC2)C#C	
InChI=1S/C7H8O2/c1-2-7-3-5(4-9-7)6(7)8/h1,5-6,8H,3-4H2	InChI=1S/C7H8O2/c1-2-7-3-5(4-9-7)6(7)8/h1,5-6,8H,3-4H2/t5-,6-,7-/m0/s1
