25
gdb 89460	2.10854	1.46618	1.36531	0.16	92.28	-0.2487	0.0794	0.3281	1196.2458	0.227972	-352.350525	-352.340647	-352.339703	-352.384473	38.802	
C	 0.214327249	 1.6627992619	-0.0352390731	-0.419223
C	 0.0680636364	 0.1498468052	 0.0521641781	 0.004413
C	 0.8715218517	-0.7543557343	-0.9292418976	-0.314343
C	 1.2248000976	-1.729257233	 0.2380545562	 0.346394
C	 0.7006952479	-3.144346579	 0.1222663781	-0.496626
C	 2.6474036373	-1.5042215584	 0.8006473335	-0.274331
C	 2.1273929583	-0.2938884573	 1.6296781321	-0.289298
C	 0.6529466775	-0.6490321025	 1.2515044693	 0.321442
C	-0.2702626497	-0.976289001	 2.4060249353	-0.497865
H	 1.2638886258	 1.974496529	-0.0108069912	 0.11331
H	-0.2144462019	 2.0405140006	-0.9704197945	 0.112518
H	-0.3022162463	 2.1649270263	 0.790901614	 0.111483
H	-0.9971607803	-0.1027044084	-0.023889631	 0.063457
H	 0.2915382664	-1.1921984614	-1.746443081	 0.092013
H	 1.7482829356	-0.2621053061	-1.3638149769	 0.089352
H	 1.2366300233	-3.695860289	-0.6608366312	 0.11385
H	 0.8250451088	-3.6993888897	 1.0591843824	 0.109515
H	-0.3643141953	-3.1623890913	-0.1375325799	 0.109909
H	 2.9747994438	-2.3313294243	 1.4388185787	 0.091602
H	 3.4374196844	-1.3065621961	 0.0689699799	 0.08865
H	 2.3369349198	-0.351282379	 2.7009696852	 0.095203
H	 2.4704573227	 0.6822098971	 1.2778181087	 0.096088
H	-0.5180304819	-0.0737943844	 2.9796625738	 0.113525
H	-1.2126275822	-1.4137948644	 2.0568417299	 0.109455
H	 0.1894404115	-1.6872132706	 3.1027158012	 0.109507
67.0249	185.448	198.1467	210.4978	218.9311	227.0606	249.6735	309.3001	347.6796	364.9691	425.9058	512.4834	556.9622	586.868	676.0042	750.1691	778.333	850.4033	870.7724	884.9809	920.5229	942.4587	954.7751	964.354	1008.3443	1026.9261	1060.0335	1095.0637	1137.142	1154.8001	1162.5398	1208.2393	1219.9504	1238.5963	1247.4389	1254.747	1262.7015	1281.654	1316.5252	1332.8089	1378.7273	1404.6451	1409.0956	1413.3804	1475.0039	1482.4265	1488.2528	1490.0503	1492.0433	1494.868	1496.6364	1499.3082	1504.9239	3011.1143	3013.426	3016.5317	3024.7363	3036.3507	3039.7524	3059.3903	3071.5771	3074.3871	3079.7971	3082.6472	3084.8939	3086.9987	3090.8989	3095.1926	3109.661
CC1CC2(C)CCC12C	C[C@H]1C[C@@]2(C)CC[C@@]12C	
InChI=1S/C9H16/c1-7-6-8(2)4-5-9(7,8)3/h7H,4-6H2,1-3H3	InChI=1S/C9H16/c1-7-6-8(2)4-5-9(7,8)3/h7H,4-6H2,1-3H3/t7-,8+,9-/m0/s1
