17
gdb 19623	4.57593	2.05379	1.89334	1.6519	71.53	-0.2368	0.0884	0.3253	770.3012	0.143676	-326.638512	-326.632424	-326.63148	-326.668297	25.379	
C	-0.1137003306	 1.4728304086	 0.0572252648	-0.343481
C	 1.2321476608	 0.7591161273	-0.023654731	-0.354692
C	-0.0336312734	-0.0155162702	 0.0879667346	 0.457308
C	-0.4442685889	-1.0464724955	 1.1278128111	-0.184116
C	-1.9886898134	-1.0840353925	 0.9405262659	-0.239827
C	-1.688564276	-1.6053947031	-0.4649335159	-0.038738
C	-0.3393719627	-2.0705987795	-0.0725587701	-0.045214
N	-0.4570418403	-0.9165188796	-1.0118657694	-0.189098
H	-0.3613837409	 2.0012051207	 0.9727194215	 0.110381
H	-0.4882052579	 1.936646695	-0.8490400095	 0.121383
H	 1.738230728	 0.7511378199	-0.9829873453	 0.12365
H	 1.8897094215	 0.8083470718	 0.8382727846	 0.111087
H	 0.0134414833	-1.1102840688	 2.1130215612	 0.074459
H	-2.4570654491	-1.8635214411	 1.5472190993	 0.103206
H	-2.5312269477	-0.1398379949	 1.0543981892	 0.098618
H	-2.3685814344	-2.0112262555	-1.2022030996	 0.097491
H	 0.2388820516	-2.9628215828	-0.2711938815	 0.097585
182.4657	250.2451	280.224	450.0017	503.9754	598.2433	723.342	762.174	782.9182	793.2242	833.4473	870.5725	899.3021	924.1778	932.6175	955.8079	973.8082	987.7133	1000.0479	1030.2343	1046.0135	1074.9053	1084.382	1122.1187	1144.7688	1157.2877	1185.1633	1201.7272	1218.6436	1256.0608	1272.9718	1331.4727	1394.8931	1453.0298	1493.5627	1509.6234	3045.9101	3106.1357	3125.9298	3129.6112	3135.6289	3198.7045	3208.2751	3212.9444	3222.1445
C1CC11C2CC3C2N13	C1CC21[C@H]1C[C@@H]3[C@H]1N23	
InChI=1S/C7H9N/c1-2-7(1)4-3-5-6(4)8(5)7/h4-6H,1-3H2	InChI=1S/C7H9N/c1-2-7(1)4-3-5-6(4)8(5)7/h4-6H,1-3H2/t4-,5+,6-,8?/m0/s1
