15
gdb 77063	3.21847	1.059	0.87239	2.6116	66.52	-0.2665	0.002	0.2685	1263.2004	0.111993	-453.972336	-453.963477	-453.962533	-454.006837	31.035	
O	 0.0969737755	 1.4652410459	 0.0921015162	-0.424504
C	 0.084567796	 0.063199363	 0.0461897641	-0.046439
C	-1.3335085404	-0.5961692426	 0.1248028973	 0.014836
C	-2.506656046	 0.3944707681	 0.1336482193	-0.335742
C	-3.7648849458	-0.2743460827	-0.1859295847	 0.250508
N	-4.7379720119	-0.8374625552	-0.4534731382	-0.302395
N	-1.0392218723	-1.2000757202	-1.1789846194	-0.32932
C	 0.1640905531	-0.5696439981	-1.3693124276	 0.40021
O	 0.940213279	-0.5007878862	-2.2834813305	-0.357843
H	 0.7276652667	 1.7711708311	-0.5703858594	 0.309249
H	 0.7943798479	-0.3769160656	 0.7580346062	 0.110168
H	-1.4516019484	-1.3317202559	 0.9258655723	 0.11041
H	-2.5826395224	 0.863765673	 1.1202831368	 0.165688
H	-2.3200550262	 1.1944505901	-0.5876631045	 0.165175
H	-1.5971862247	-1.7921295346	-1.7787524677	 0.269998
51.2348	89.0948	121.4045	171.9065	221.4868	259.5522	369.7138	392.2546	421.7285	506.8118	548.6464	562.2977	720.7662	771.7277	847.7588	892.3747	920.8947	969.5072	1023.7283	1085.9077	1138.379	1182.9454	1194.219	1223.4042	1261.6539	1316.3491	1345.2709	1373.5013	1391.9801	1398.0629	1453.4686	1899.4483	2361.7766	3029.2288	3063.55	3067.8897	3113.8052	3597.382	3798.128
OC1C(CC#N)NC1=O	O[C@H]1[C@@H](CC#N)NC1=O	
InChI=1S/C5H6N2O2/c6-2-1-3-4(8)5(9)7-3/h3-4,8H,1H2,(H,7,9)	InChI=1S/C5H6N2O2/c6-2-1-3-4(8)5(9)7-3/h3-4,8H,1H2,(H,7,9)/t3-,4+/m1/s1
