21
gdb 111494	2.64528	1.38547	1.10496	2.4474	77.16	-0.2238	0.0704	0.2942	1169.3014	0.182891	-424.207058	-424.198217	-424.197273	-424.240337	34.295	
C	 0.6057494814	 1.3725518281	-0.5019394615	-0.405178
C	 0.0783237469	 0.0687971448	 0.0960568116	 0.114749
O	 0.0144973076	-0.9520914326	-0.9204715831	-0.274844
C	 0.9339548813	-1.9702672467	-0.6473138445	 0.113776
C	 2.3980730178	-1.6212838251	-0.5592411672	-0.332677
C	 1.5539925183	-1.7761350036	 0.6997609009	-0.100646
C	 0.8863835698	-0.5432235868	 1.290875853	-0.018147
C	 1.83715312	 0.4043021781	 2.0126505315	-0.089545
O	 1.0585170603	 1.4227234927	 2.6318102433	-0.421721
H	 1.6332245278	 1.2818650776	-0.8656710471	 0.111442
H	-0.0219747473	 1.655608311	-1.3512836142	 0.119333
H	 0.5682353096	 2.1671224321	 0.2475529692	 0.128826
H	-0.9546543785	 0.2477521547	 0.4149771821	 0.088688
H	 0.6143432727	-2.9316593604	-1.0335842826	 0.096744
H	 3.1130645733	-2.4121917552	-0.7623342912	 0.11075
H	 2.71968424	-0.6372377259	-0.8792169254	 0.116459
H	 1.7599773643	-2.6106624347	 1.360522227	 0.088735
H	 0.1660525306	-0.8877453011	 2.0422603499	 0.088098
H	 2.4039951553	-0.1668332524	 2.7642438142	 0.087887
H	 2.5669455257	 0.8305667186	 1.3097951372	 0.089706
H	 1.6564202833	 2.034602357	 3.0710133469	 0.287565
84.6226	139.1543	173.5235	243.5484	260.1416	291.0615	298.5435	376.8146	428.4119	450.7138	507.0817	679.7388	717.9403	742.5278	768.8732	820.3461	887.7103	942.1811	973.0911	991.5147	1008.5779	1036.4203	1052.7435	1069.2406	1083.7232	1092.7048	1107.6465	1125.6424	1161.5718	1175.1128	1207.6607	1247.733	1253.1824	1303.8757	1319.5244	1354.5063	1377.0162	1384.5289	1394.236	1410.3786	1457.3983	1474.3057	1494.6133	1500.329	1525.2586	2979.5279	3012.4079	3028.1968	3045.3513	3046.858	3116.5719	3130.4819	3133.3883	3164.5585	3175.572	3222.2591	3829.0654
CC1OC2CC2C1CO	C[C@H]1O[C@H]2C[C@H]2[C@H]1CO	
InChI=1S/C7H12O2/c1-4-6(3-8)5-2-7(5)9-4/h4-8H,2-3H2,1H3	InChI=1S/C7H12O2/c1-4-6(3-8)5-2-7(5)9-4/h4-8H,2-3H2,1H3/t4-,5+,6+,7+/m1/s1
