23
gdb 122147	2.19977	1.02504	0.95902	1.8348	79.37	-0.245	0.0764	0.3214	1450.1685	0.203388	-462.539456	-462.528342	-462.527397	-462.576819	39.064	
C	 0.2161542876	 1.4322344431	-0.1898517223	-0.390067
C	 0.7265237511	 0.0058463206	-0.291317451	-0.048247
O	-0.063057807	-0.6809219373	-1.2651043991	-0.26645
C	 0.2543350909	-2.0587934692	-1.4309774639	-0.094222
C	 1.3043699288	-2.3205126992	-2.5141161426	 0.102517
C	 0.9089111584	-1.6917736514	-3.8631511649	-0.084355
O	 0.9472422277	-0.28318999	-3.8577968441	-0.427041
O	 2.5406668844	-1.8553054544	-2.0011117565	-0.242701
C	 3.6419787924	-1.9608364245	-2.8782528152	-0.242113
H	 0.3450825411	 1.9627243678	-1.1383356737	 0.128699
H	-0.8460774604	 1.4463327935	 0.0705302681	 0.125566
H	 0.7712203143	 1.9755422872	 0.5808520446	 0.11855
H	 1.7829838991	-0.0223518361	-0.5779749628	 0.124086
H	 0.6261619882	-0.5097455516	 0.6764291356	 0.092777
H	 0.5973408561	-2.4883474111	-0.480098237	 0.10266
H	-0.6772302253	-2.5595652726	-1.7186728369	 0.106735
H	 1.3495337586	-3.4166419802	-2.6670032051	 0.059043
H	 1.5946260017	-2.0245511734	-4.6493427313	 0.103279
H	-0.0878412066	-2.0846635138	-4.1306590999	 0.082697
H	 0.4458014139	-0.013662355	-3.0750438549	 0.291531
H	 3.7387649268	-2.9778486313	-3.2895654157	 0.10048
H	 3.5762999179	-1.2445538632	-3.7064359701	 0.132236
H	 4.5358438004	-1.7381715979	-2.2900125012	 0.124342
39.7517	65.5971	81.2615	94.7413	160.0951	215.3889	243.8991	250.0183	275.2018	303.2553	326.7207	379.9875	464.9019	541.8979	587.231	756.9519	797.0638	820.3269	855.4561	924.4349	943.4516	986.7032	1044.0542	1084.1493	1119.1409	1127.628	1151.6859	1157.7923	1180.3515	1187.238	1220.8977	1242.9466	1295.6904	1304.7493	1344.1769	1371.7583	1389.6753	1396.4277	1411.328	1434.066	1469.3849	1479.4869	1483.3376	1487.6429	1489.4966	1500.2987	1503.6132	1520.9531	1530.1248	2915.3409	2954.0233	2981.8721	2987.0415	3015.0848	3042.2451	3054.5924	3067.6526	3071.5403	3072.7451	3111.6791	3114.4097	3121.5004	3724.8833
CCOCC(CO)OC	CCOC[C@@H](CO)OC	
InChI=1S/C6H14O3/c1-3-9-5-6(4-7)8-2/h6-7H,3-5H2,1-2H3	InChI=1S/C6H14O3/c1-3-9-5-6(4-7)8-2/h6-7H,3-5H2,1-2H3/t6-/m1/s1
