18
gdb 112241	2.21887	1.37663	0.90866	6.007	75.32	-0.2547	-0.0357	0.219	1280.9973	0.146335	-439.134633	-439.125479	-439.124534	-439.169178	32.548	
C	 0.0886078499	 1.5620039786	 0.1115149885	-0.39573
C	 0.0025678462	 0.0518523608	-0.1264584142	-0.184103
C	-1.3987576625	-0.5384031078	-0.0032530111	 0.040398
C	-1.4878176759	-2.0901517648	-0.0779450783	-0.410765
C	-2.0371088968	-2.0503680376	 1.3564689417	 0.43989
O	-2.4184696649	-2.8428208344	 2.1603996701	-0.308458
N	-1.9498511764	-0.6358135482	 1.3778846047	-0.132498
C	-2.4648767049	 0.3240281429	 2.2333806153	 0.147096
O	-2.9471202363	 0.1002177667	 3.3122213257	-0.268631
H	 1.1044952189	 1.9239910329	-0.070534575	 0.127412
H	-0.5843806453	 2.1107318584	-0.5566582263	 0.120501
H	-0.1707432378	 1.8253929498	 1.1415109571	 0.12972
H	 0.3588951379	-0.1792539987	-1.1383662079	 0.112976
H	 0.6680810215	-0.4765947991	 0.5672115874	 0.110977
H	-2.0954401622	-0.0291611895	-0.6780706318	 0.098214
H	-2.1982704157	-2.4887853646	-0.8042859428	 0.144509
H	-0.5323171404	-2.6088830571	-0.1806325257	 0.141067
H	-2.3885286653	 1.3382673418	 1.7940771127	 0.087425
65.9156	98.3699	120.6106	177.2141	216.0778	225.5864	260.9314	354.0198	418.1805	492.8802	531.8152	562.8318	702.7745	785.7235	809.8295	872.0981	954.9332	979.2609	1028.6776	1044.0625	1063.9355	1071.2029	1108.2408	1143.2962	1189.6082	1230.2088	1257.5655	1298.7283	1331.6326	1360.9062	1401.4104	1415.4425	1433.4435	1457.1453	1477.4303	1499.4523	1506.4786	1806.3784	1918.8553	2939.547	3025.443	3036.5406	3046.6806	3067.2128	3085.0325	3105.8028	3112.8006	3141.5167
CCC1CC(=O)N1C=O	CC[C@H]1CC(=O)N1C=O	
InChI=1S/C6H9NO2/c1-2-5-3-6(9)7(5)4-8/h4-5H,2-3H2,1H3	InChI=1S/C6H9NO2/c1-2-5-3-6(9)7(5)4-8/h4-5H,2-3H2,1H3/t5-/m0/s1
