16
gdb 21278	4.67485	1.53255	1.1712	1.9955	68.54	-0.2084	0.0311	0.2394	1010.7672	0.131276	-379.935454	-379.927467	-379.926523	-379.968443	28.002	
C	-0.1105120718	 1.3902873448	-0.1688269172	-0.229547
O	 0.0108628781	-0.0221453263	-0.0441545511	-0.266837
C	 0.6439777604	-0.6446912376	-1.053437472	 0.472098
N	 1.131825614	-0.002127682	-2.1087428445	-0.375604
N	 1.6791298698	-0.9842115187	-2.8718074088	 0.042672
C	 2.3139834313	-0.6414811528	-4.1213485062	-0.31536
C	 1.5369639033	-2.2060608502	-2.3083330605	-0.004462
C	 0.8656016651	-2.0388196907	-1.1161940264	-0.366733
H	 0.874023733	 1.8671112072	-0.224195121	 0.129175
H	-0.6751636065	 1.6595315816	-1.0679293412	 0.129208
H	-0.6413641543	 1.7263367487	 0.7232341775	 0.12346
H	 2.6888339742	-1.5545690531	-4.5875467202	 0.135115
H	 1.5991161865	-0.1610714234	-4.7962707716	 0.144389
H	 3.1495645023	 0.0445239139	-3.9522698471	 0.144329
H	 1.9188267783	-3.092523686	-2.7910216611	 0.130003
H	 0.5769629364	-2.7893202055	-0.4005452986	 0.108096
55.7452	108.0794	161.1777	190.4083	204.0156	352.3093	369.4485	511.0104	610.1291	635.6279	716.2773	754.4536	755.5068	819.7759	996.6051	1017.5153	1052.239	1087.0342	1096.999	1152.9059	1181.3	1219.4308	1258.2579	1331.2712	1409.0051	1445.2009	1461.0376	1469.6063	1470.7973	1477.8181	1502.5725	1524.6052	1547.51	1597.5812	3028.3015	3040.7345	3092.3093	3101.4512	3139.8096	3140.3568	3252.2514	3284.9853
COC1=NN(C)C=C1	COc1nn(C)cc1	
InChI=1S/C5H8N2O/c1-7-4-3-5(6-7)8-2/h3-4H,1-2H3	InChI=1S/C5H8N2O/c1-7-4-3-5(6-7)8-2/h3-4H,1-2H3
