18
gdb 110591	3.26613	1.34984	1.12021	2.3557	72.45	-0.2281	0.0813	0.3094	1121.6776	0.146968	-438.971258	-438.963156	-438.962212	-439.003992	31.007	
C	-0.2646828707	 1.3958199454	 0.1310964096	-0.236497
O	 0.3209679001	 0.1404530677	-0.1339535022	-0.252032
C	 0.8641252257	-0.4714895381	 1.0011537264	 0.081103
C	-0.0760164364	-1.3252691409	 1.8952909076	-0.118699
C	-0.0945190224	-2.5044253608	 0.8642204899	-0.093624
N	 0.3722768036	-3.5582966415	 1.827380118	-0.367074
C	 1.080067265	-2.3078069062	 2.2654495162	-0.105378
C	 1.3540045971	-1.895418088	 0.7732848581	 0.396554
O	 2.3924040397	-2.2666643358	-0.036278847	-0.470806
H	 0.4640371316	 2.099510829	 0.5626073544	 0.10685
H	-0.6192961273	 1.7961983332	-0.8214415743	 0.129753
H	-1.1175249544	 1.317155799	 0.8222155472	 0.104335
H	 1.5513962341	 0.2056827721	 1.5313001381	 0.067477
H	-0.8936151267	-1.0196609174	 2.5450361116	 0.079245
H	-0.8040380335	-2.6938312991	 0.0605398616	 0.091653
H	-0.3742017773	-3.7940325407	 2.486930524	 0.207522
H	 1.7609985315	-2.2646645718	 3.1158600796	 0.082837
H	 2.4577801003	-3.2295290762	 0.0044523111	 0.296779
80.0898	158.1687	168.9783	241.3147	264.9022	339.4726	374.9292	416.4878	537.5787	589.4724	680.3997	753.909	833.9285	843.3821	877.0745	894.9333	901.0073	945.9766	990.4839	1034.2724	1048.5991	1061.9632	1100.0684	1119.3174	1149.2822	1150.429	1160.3185	1184.6253	1220.7616	1233.8291	1243.5413	1280.1999	1285.9375	1353.8842	1370.3135	1457.368	1485.8458	1490.1231	1509.4981	2975.0253	2991.6843	3023.2575	3113.252	3117.479	3131.544	3145.7636	3401.8171	3779.1745
COC1C2C3NC2C13O	CO[C@H]1[C@H]2[C@@H]3N[C@H]2[C@]13O	
InChI=1S/C6H9NO2/c1-9-5-2-3-6(5,8)4(2)7-3/h2-5,7-8H,1H3	InChI=1S/C6H9NO2/c1-9-5-2-3-6(5,8)4(2)7-3/h2-5,7-8H,1H3/t2-,3-,4+,5-,6-/m0/s1
