20
gdb 93357	2.82311	1.48199	1.12623	4.0572	78.89	-0.2386	0.0054	0.244	1128.4851	0.172681	-403.168611	-403.160441	-403.159497	-403.201229	31.86	
C	 0.2338397723	 1.5948318785	-0.0789987886	-0.400337
C	 0.0422390635	 0.0742106544	-0.0380273749	 0.00925
C	 0.5196400795	-0.6230875214	-1.3250541344	-0.226485
C	 0.565714953	-2.1554153058	-1.1365971812	-0.307083
C	 1.6384579906	-2.4268336627	-0.099964494	 0.360346
O	 2.6497386741	-3.0529612324	-0.308729427	-0.326623
N	 1.3856055391	-1.8106294782	 1.1390514572	-0.100754
C	 2.1304811548	-0.61071795	 1.5035909514	-0.248096
C	 0.6599837125	-0.5468738497	 1.2143020706	-0.01533
H	 1.2940159959	 1.8546891874	-0.1668216974	 0.120482
H	-0.292563554	 2.0332872452	-0.9330714718	 0.117748
H	-0.1514669549	 2.0682546352	 0.8299078814	 0.118699
H	-1.0355083959	-0.1254847927	 0.0404019238	 0.083946
H	-0.1460497552	-0.3557649504	-2.1519503494	 0.107861
H	 1.5191601086	-0.2674377282	-1.6082778285	 0.111235
H	-0.4095510181	-2.5182619273	-0.7908004525	 0.117247
H	 0.8289547331	-2.677243235	-2.0578119415	 0.123989
H	 2.4833576177	-0.556070796	 2.5297871768	 0.126001
H	 2.8282491158	-0.2262185075	 0.7636539222	 0.129244
H	 0.0157920778	-0.4856284733	 2.0908145979	 0.098658
76.141	186.3528	223.9137	244.5156	248.67	313.375	391.4241	430.8845	493.7752	540.7959	635.6497	691.2885	733.9896	756.5706	850.6164	912.968	938.4751	961.3815	974.5398	996.9375	1042.5727	1053.8064	1075.8578	1102.0088	1126.9714	1139.9169	1176.7541	1192.4817	1227.9204	1234.5976	1327.1962	1328.3413	1365.6794	1369.0352	1376.5162	1408.915	1426.2153	1472.7646	1496.2933	1498.5328	1502.1159	1516.346	1813.786	3003.0288	3024.6035	3032.71	3043.7448	3075.8863	3101.9709	3102.9265	3107.4302	3108.7648	3127.0882	3193.149
CC1CCC(=O)N2CC12	C[C@H]1CCC(=O)N2C[C@@H]12	
InChI=1S/C7H11NO/c1-5-2-3-7(9)8-4-6(5)8/h5-6H,2-4H2,1H3	InChI=1S/C7H11NO/c1-5-2-3-7(9)8-4-6(5)8/h5-6H,2-4H2,1H3/t5-,6-,8?/m0/s1
