15
gdb 16845	4.14401	2.0643	1.54826	4.1297	69.65	-0.2363	-0.0358	0.2005	810.9622	0.121075	-362.662501	-362.656176	-362.655232	-362.693013	24.926	
N	-0.0664811769	 1.2811609438	 0.5776199692	-0.500545
C	 0.0259920501	 0.1369918087	 0.027533263	 0.375402
O	-1.151827121	-0.4267322717	-0.3686195984	-0.237803
C	-1.1787161414	-1.5738347534	-1.1731455868	 0.125796
C	-0.5878099062	-1.591587221	-2.5453464705	-0.316862
C	 0.0738109862	-2.3803975989	-1.4072879635	-0.127119
C	 1.2888763629	-1.8200252578	-0.7937860028	-0.071297
C	 1.2590679017	-0.6404553918	-0.1635198752	-0.164386
H	 0.8575634434	 1.5972998992	 0.8672498289	 0.219096
H	-2.1138265128	-2.0961125448	-1.0089292479	 0.117979
H	-1.1082459835	-2.1495924875	-3.3159465997	 0.125342
H	-0.0631235253	-0.7062183274	-2.8863758353	 0.136213
H	-0.0042852915	-3.4617835254	-1.4413548569	 0.103293
H	 2.2149465957	-2.3827411818	-0.8696111115	 0.110487
H	 2.1561178786	-0.2095478502	 0.2674622277	 0.104403
88.2084	217.8869	371.5042	401.901	463.2917	526.6349	578.3587	690.8027	733.6325	788.5887	803.0107	810.6878	855.3444	881.2268	913.289	987.0244	1010.0249	1022.2335	1043.7124	1088.225	1106.3589	1123.9855	1175.7183	1199.4014	1254.7671	1334.2201	1382.8095	1416.0222	1440.4903	1473.31	1667.297	1717.2633	3135.9111	3159.5381	3169.9349	3182.7569	3194.7648	3231.9655	3503.5215
N=C1OC2CC2C=C1	[NH]C1=C[CH][C@H]2[C@@H](O1)C2	
InChI=1S/C6H7NO/c7-6-2-1-4-3-5(4)8-6/h1-2,4-5,7H,3H2	InChI=1S/C6H7NO/c7-6-2-1-4-3-5(4)8-6/h1-2,4-5,7H,3H2/t4-,5+/m1/s1
