23
gdb 101179	3.3488	0.94845	0.86528	2.0584	85.67	-0.2323	0.0761	0.3085	1465.1178	0.204918	-388.223793	-388.214409	-388.213465	-388.258396	35.752	
C	 0.0932542014	 1.5601720172	-0.207447556	-0.393778
C	-0.0869251174	 0.0402084935	-0.1440652581	-0.160433
C	-1.5537966894	-0.43801889	-0.1375908527	-0.027993
C	-2.2951702183	-0.0771785335	-1.435325392	-0.392912
C	-1.5988125369	-1.9483548599	 0.0772376247	 0.067303
C	-1.3418960499	-2.6490443829	 1.4456524994	 0.021126
C	-2.7286694833	-2.1994905796	 1.9654910014	-0.232142
C	-2.8695557159	-2.7338107503	 0.5197713626	 0.017248
O	-1.9863374857	-3.8643033916	 0.8933578291	-0.310323
H	 1.1519442724	 1.8296293763	-0.1408614495	 0.113786
H	-0.2923251779	 1.9807605355	-1.1410101439	 0.119458
H	-0.4273138726	 2.0554940173	 0.6201437236	 0.113053
H	 0.4354115307	-0.427720762	-0.9898271183	 0.095361
H	 0.4067751242	-0.3372068471	 0.7604487281	 0.094883
H	-2.06219668	 0.0689985517	 0.6924925988	 0.069179
H	-3.331318358	-0.4297418441	-1.4090284664	 0.113736
H	-2.3198847688	 1.0031363072	-1.6024465007	 0.11603
H	-1.8096552659	-0.5393451607	-2.3031059027	 0.115083
H	-1.0810371262	-2.4755740767	-0.7313874114	 0.077141
H	-0.408947503	-2.7862848529	 1.9940572919	 0.089572
H	-3.157041108	-2.8463696002	 2.7318552154	 0.107435
H	-2.9063980442	-1.1405712525	 2.161249087	 0.097771
H	-3.7719585973	-2.9725951247	-0.0446847103	 0.089415
54.3973	86.1309	136.3453	200.5409	215.2075	270.6479	279.8774	345.6834	412.2209	445.2573	556.4021	618.8875	731.7651	776.9838	819.5247	845.4907	866.7335	888.9675	895.8168	921.6493	968.0766	982.5842	1009.4027	1016.2806	1044.9185	1066.2412	1090.2544	1142.2478	1143.9338	1172.4279	1176.7238	1186.6073	1203.6368	1226.506	1257.2428	1277.5886	1288.5154	1307.313	1350.5145	1374.7971	1409.17	1412.9772	1416.9152	1483.8971	1493.7323	1496.9872	1499.6214	1507.1214	1513.1335	3011.827	3020.7997	3030.508	3033.7576	3047.3191	3060.1179	3075.6371	3094.9939	3098.4323	3104.4022	3106.2635	3112.6626	3113.5287	3150.4671
CCC(C)C1C2CC1O2	CC[C@@H](C)[C@H]1[C@H]2C[C@@H]1O2	
InChI=1S/C8H14O/c1-3-5(2)8-6-4-7(8)9-6/h5-8H,3-4H2,1-2H3	InChI=1S/C8H14O/c1-3-5(2)8-6-4-7(8)9-6/h5-8H,3-4H2,1-2H3/t5-,6-,7+,8+/m1/s1
