14
gdb 16126	4.66932	1.67096	1.46326	3.9245	62.14	-0.2779	0.011	0.2889	841.5247	0.109478	-378.708194	-378.701724	-378.70078	-378.738814	24.361	
N	 0.0021587936	-1.1474415618	 0.1257471681	-0.332773
C	 0.0326594718	 0.006376427	 0.0619737542	 0.239312
C	 0.0423631591	 1.4383345301	-0.068696731	 0.16966
C	-0.8757529092	 2.0973362576	-1.1002355559	-0.156925
O	-0.3905801478	 3.4272047523	-1.2113843399	-0.254784
C	 1.0249024536	 3.3941858876	-1.044890649	-0.110531
C	 1.271360073	 2.2925848902	-0.0283322355	-0.084367
N	 0.370966396	 2.2422334244	 1.1199900622	-0.347879
H	-0.8114000129	 1.5500084122	-2.0526756791	 0.121391
H	-1.923326756	 2.1477597843	-0.7901777428	 0.134607
H	 1.5426131106	 3.1579934671	-1.9873798608	 0.114684
H	 1.3392818325	 4.3874098236	-0.7102225944	 0.129325
H	 2.265481668	 1.8844145995	 0.115267596	 0.127256
H	-0.2291124324	 3.067102226	 1.137265588	 0.251025
150.1575	163.3501	266.5174	338.1757	409.8243	505.2836	544.8187	585.5966	699.6997	748.8923	868.1678	892.2209	939.6102	969.543	1027.2208	1052.5735	1066.0892	1107.4305	1131.2534	1170.6221	1213.1653	1256.2268	1272.8	1315.1962	1343.1288	1369.8421	1436.4835	1504.4629	1518.0007	2361.7375	2992.9551	3000.3052	3085.6933	3093.5205	3186.4076	3468.4598
N#CC12COCC1N2	N#C[C@]12COC[C@H]1N2	
InChI=1S/C5H6N2O/c6-2-5-3-8-1-4(5)7-5/h4,7H,1,3H2	InChI=1S/C5H6N2O/c6-2-5-3-8-1-4(5)7-5/h4,7H,1,3H2/t4-,5+/m1/s1
