19
gdb 95331	3.41046	1.3837	1.06372	1.1817	77.87	-0.2325	0.0196	0.2521	1149.288	0.161199	-419.192177	-419.184209	-419.183265	-419.224579	30.909	
C	-0.6058519991	 1.3123286508	 0.0696384307	-0.392819
C	 0.1812223404	 0.0084441133	-0.0236455335	 0.023684
C	 1.1059103862	 0.0054559939	-1.2576987959	-0.066571
O	 1.8595592619	-1.2064750982	-1.4258403065	-0.282681
C	 2.1462697682	-1.8848878137	-0.2333144887	 0.038661
C	 3.5947326808	-1.946187867	 0.3691146535	-0.211926
N	 2.9857325614	-1.5303111804	 1.6681877367	-0.364195
C	 1.838781499	-1.0910954311	 1.0134932165	 0.36178
N	 1.0022604619	-0.1621926305	 1.198170075	-0.333642
H	 0.0742577619	 2.1668219468	 0.1464265956	 0.119577
H	-1.2493309992	 1.4543766561	-0.8046453537	 0.107324
H	-1.231086178	 1.3039673479	 0.9660587111	 0.126735
H	-0.5273709639	-0.8281680038	-0.1229308053	 0.082999
H	 0.5257686308	 0.1169051806	-2.1787993228	 0.108756
H	 1.7915622337	 0.8625101312	-1.1752872907	 0.09506
H	 1.6919079836	-2.8815562363	-0.2585321681	 0.107505
H	 4.0938518091	-2.9172664499	 0.3957952999	 0.114905
H	 4.2460580449	-1.1872386128	-0.0758647202	 0.120997
H	 3.4670863366	-0.9401807671	 2.3357191464	 0.243849
89.232	176.3051	207.3807	236.8692	282.8693	354.0871	412.0078	470.982	508.4475	511.3387	617.9024	728.4642	759.7484	830.3489	879.2623	923.8471	939.2144	960.6334	975.2579	1011.5471	1048.9338	1114.5008	1126.0861	1138.3976	1144.0295	1182.8649	1209.4422	1228.8799	1264.2127	1314.9835	1323.4866	1343.5006	1360.0389	1371.4033	1408.2673	1415.3177	1485.5943	1497.2548	1504.8184	1511.4888	1794.4143	2980.739	2994.3085	3038.0371	3042.7255	3049.005	3080.0393	3108.5936	3115.6318	3121.6119	3563.8952
CC1COC2CNC2=N1	C[C@H]1CO[C@H]2CN[C]2[N]1	
InChI=1S/C6H10N2O/c1-4-3-9-5-2-7-6(5)8-4/h4-5H,2-3H2,1H3,(H,7,8)	InChI=1S/C6H10N2O/c1-4-3-9-5-2-7-6(5)8-4/h4-5H,2-3H2,1H3,(H,7,8)/t4-,5-/m0/s1
