17
gdb 54982	3.33149	1.04674	1.01723	1.2378	69.37	-0.2563	-0.0351	0.2212	1233.1522	0.132876	-458.931921	-458.922939	-458.921995	-458.966904	31.543	
C	 0.165531589	-0.1231173613	 0.765404226	-0.493303
C	-0.068771311	 0.9621640544	-0.2617945108	 0.37086
O	-0.1868419211	 2.1326604774	 0.0204755063	-0.296356
C	-0.1405081117	 0.5532228714	-1.7112977642	-0.14978
O	 0.2973519312	-0.7739264941	-2.0686826167	-0.258112
C	-1.0695022628	-0.4832063891	-2.1922578043	 0.345534
C	-2.2102152883	-1.2557777778	-1.5320963919	-0.156881
O	-2.9366332761	-1.2535524859	-2.7792614013	-0.272428
C	-1.8719952475	-0.5791653099	-3.4862089121	-0.146461
H	-0.6393258398	-0.8657101199	 0.7461227039	 0.147122
H	 1.0891345555	-0.6631559412	 0.5352423412	 0.158827
H	 0.2228957737	 0.3274964233	 1.7564765329	 0.145505
H	 0.1447542956	 1.3451600138	-2.4027938971	 0.121511
H	-1.936712037	-2.2670663929	-1.2053446719	 0.120469
H	-2.7601655981	-0.7443843779	-0.7332895416	 0.120014
H	-2.2028551441	 0.365424901	-3.9327157016	 0.120597
H	-1.4081560676	-1.2112271114	-4.2536600968	 0.122881
38.0384	92.6867	111.2604	134.0812	159.39	279.7851	362.5209	405.3275	463.8405	522.9889	543.8176	629.2475	779.3513	838.4423	886.2133	930.2292	937.5466	998.8311	1006.2004	1024.4629	1028.4252	1082.8031	1123.9589	1146.6623	1166.91	1176.6919	1253.4445	1293.2736	1303.0159	1353.0958	1386.3364	1453.1811	1467.9366	1495.5108	1496.6556	1523.8815	1806.3022	3013.4971	3025.6468	3047.2719	3065.6591	3072.6474	3108.9337	3130.1607	3159.555
CC(=O)C1OC11COC1	CC(=O)[C@H]1OC21COC2	
InChI=1S/C6H8O3/c1-4(7)5-6(9-5)2-8-3-6/h5H,2-3H2,1H3	InChI=1S/C6H8O3/c1-4(7)5-6(9-5)2-8-3-6/h5H,2-3H2,1H3/t5-/m1/s1
