13
gdb 131700	3.0301	1.37384	0.95079	1.4205	66.76	-0.2871	-0.1244	0.1627	1130.4202	0.087241	-486.00389	-485.995851	-485.994907	-486.037785	28.356	
O	 0.185659866	 1.3757256593	-0.0351699763	-0.413766
C	 0.0325007922	-0.007814571	-0.066488933	-0.10602
C	-1.4004556855	-0.4400437064	-0.0445231019	 0.353283
N	-2.3358183176	 0.4235693543	-0.0013585267	-0.305725
C	-3.6510149312	-0.0319608534	 0.0173145113	 0.462586
N	-4.6275113756	 0.7615511955	 0.0604931516	-0.501318
O	-3.8380800535	-1.412582642	-0.0142784969	-0.265616
N	-2.7287485258	-2.3148797245	-0.0619011039	 0.079973
N	-1.590681016	-1.8505474196	-0.0756670083	-0.139226
H	-0.7022313907	 1.7613844702	-0.0051372737	 0.308975
H	 0.4957479839	-0.4461746729	-0.967040575	 0.141157
H	 0.5359802097	-0.490386742	 0.7887160312	 0.141163
H	-5.5117276459	 0.2528617126	 0.0678921316	 0.244534
27.8236	122.5509	170.1105	190.2871	287.5773	375.1143	388.3188	442.2675	565.5513	604.5892	610.7453	699.9046	766.3873	768.0377	876.9347	907.7079	990.0801	1012.8599	1081.3075	1128.9459	1210.9506	1239.1118	1277.7236	1339.31	1458.4431	1479.1939	1610.2367	1718.0649	1758.9006	2971.6202	2983.6692	3505.3357	3724.8658
OCC1=NC(=N)ON=N1	OCC1=N[N]OC(=N1)[NH]	
InChI=1S/C3H4N4O2/c4-3-5-2(1-8)6-7-9-3/h4,8H,1H2	InChI=1S/C3H4N4O2/c4-3-5-2(1-8)6-7-9-3/h4,8H,1H2
