19
gdb 111381	2.16055	1.64278	1.12628	1.8941	80.25	-0.2485	0.0359	0.2844	1126.7325	0.158846	-385.819263	-385.810611	-385.809666	-385.852381	33.584	
O	 0.104335725	 1.385657752	 0.0517777319	-0.426958
C	 0.0624816884	-0.0032000598	-0.2337566549	-0.094696
C	-1.3345592438	-0.5789430941	-0.0346467871	-0.013145
C	-1.550248239	-2.0949387841	-0.129845709	-0.074351
C	-0.863695743	-2.82773941	 0.9924483606	-0.288178
C	-2.1613262963	-2.1326376937	 1.271154468	-0.048879
C	-1.9472823745	-0.6121714524	 1.431799851	-0.210523
C	-1.120367009	-0.1455998377	 2.5321254506	 0.325306
C	-0.4033958003	 0.2517659688	 3.4149032735	-0.471878
H	-0.0015547681	 1.4739257201	 1.0064799197	 0.286091
H	 0.3537722472	-0.1151514671	-1.2846087245	 0.105807
H	 0.7996651175	-0.5544847696	 0.3665455223	 0.092167
H	-2.02674494	-0.0357169049	-0.6830932574	 0.087291
H	-1.8838971816	-2.6126356836	-1.020825555	 0.090389
H	-0.9292165025	-3.9093775213	 0.9341532383	 0.115309
H	 0.0603205827	-2.4648728716	 1.4326588218	 0.121136
H	-3.0397563417	-2.6582192909	 1.6236635486	 0.093821
H	-2.9015077615	-0.0791742742	 1.4435772141	 0.109694
H	 0.2090792903	 0.5872540541	 4.2153413574	 0.201594
105.0179	120.5265	148.0671	191.9468	249.479	355.1364	394.9546	434.6475	462.9349	571.1523	576.592	626.4821	640.7967	678.124	775.9858	793.9813	823.0067	909.8451	951.7701	979.4322	992.6818	1033.9885	1046.2824	1064.3603	1071.5282	1086.175	1095.2452	1120.2045	1157.6823	1195.2301	1235.4358	1262.7474	1289.4523	1333.2736	1339.9178	1366.8599	1405.484	1425.7023	1490.6723	1501.5531	2217.8464	3005.8305	3058.4256	3067.529	3083.0728	3123.3195	3180.7654	3190.1333	3208.5919	3499.443	3785.8416
OCC1C2CC2C1C#C	OC[C@H]1[C@H]2C[C@H]2[C@H]1C#C	
InChI=1S/C8H10O/c1-2-5-6-3-7(6)8(5)4-9/h1,5-9H,3-4H2	InChI=1S/C8H10O/c1-2-5-6-3-7(6)8(5)4-9/h1,5-9H,3-4H2/t5-,6+,7+,8-/m1/s1
