22
gdb 89408	2.74731	1.41098	1.19117	3.3169	81.76	-0.2406	0.0693	0.3099	1161.1661	0.195258	-404.352251	-404.343433	-404.342489	-404.384976	35.28	
C	 0.0303215139	 1.5946797267	-0.0044379634	-0.392988
C	 0.080393864	 0.067712723	-0.0040898639	 0.000688
C	 0.8323685701	-0.5611638642	-1.1668196076	-0.086386
N	 2.3078203743	-0.5746432413	-0.9598308646	-0.394511
C	 1.5050391195	-1.8051771113	-0.7163080048	 0.345416
C	 1.7194406813	-3.0139208324	-1.5876437666	-0.495169
C	 1.2045930851	-1.9732370159	 0.7678940169	-0.279934
C	 0.7806864866	-0.5598190272	 1.2444606243	 0.095874
O	 1.8884704749	 0.1987181054	 1.6912036534	-0.437044
H	 1.0367975948	 2.0174749022	 0.0255850824	 0.126565
H	-0.4770856721	 1.9684424563	-0.9003710421	 0.100393
H	-0.5114325439	 1.9692744053	 0.8696964523	 0.115185
H	-0.9466467277	-0.3240111578	-0.0402005232	 0.069715
H	 0.4623742325	-0.4503439922	-2.1824007931	 0.07978
H	 2.7774559969	-0.6483597107	-1.8589608696	 0.228057
H	 1.8259546841	-2.7325528128	-2.6411056233	 0.112127
H	 2.6228189735	-3.5596514614	-1.2915404743	 0.127086
H	 0.874862726	-3.7072998431	-1.509513079	 0.125719
H	 0.3832731721	-2.690916058	 0.8875751206	 0.093428
H	 2.0589327922	-2.335037755	 1.348064328	 0.105418
H	 0.0935554715	-0.6089969314	 2.0938776571	 0.073113
H	 2.4989197603	 0.2113171158	 0.9365250506	 0.287467
138.9475	174.8317	203.4343	219.9661	233.8508	275.6437	338.4036	402.5875	414.5622	480.8681	521.3938	593.4318	648.9353	667.8964	761.4544	822.4768	848.4066	878.5483	896.1378	927.4276	965.5198	996.4226	1006.447	1020.5954	1054.6025	1082.7932	1101.7242	1129.3761	1138.6841	1160.0156	1215.3636	1250.4804	1281.5808	1284.4289	1310.1941	1346.888	1362.504	1370.1331	1408.6621	1417.5231	1440.2451	1470.7159	1481.7701	1486.3755	1494.245	1496.5939	1502.6608	3001.1047	3022.9787	3031.8088	3037.8385	3070.7515	3086.9719	3089.6024	3094.498	3099.2696	3128.7425	3148.7362	3497.859	3672.3456
CC1C2NC2(C)CC1O	C[C@H]1[C@H]2N[C@@]2(C)C[C@H]1O	
InChI=1S/C7H13NO/c1-4-5(9)3-7(2)6(4)8-7/h4-6,8-9H,3H2,1-2H3	InChI=1S/C7H13NO/c1-4-5(9)3-7(2)6(4)8-7/h4-6,8-9H,3H2,1-2H3/t4-,5-,6-,7+/m1/s1
