18
gdb 41526	3.38949	1.54376	1.10827	3.7714	81.63	-0.2282	-0.0242	0.204	1085.0835	0.151216	-401.989387	-401.982354	-401.981409	-402.020708	28.032	
C	-0.0021046617	 1.5340161221	 0.0233497277	-0.130361
O	 1.3774886175	 1.89148165	-0.084215861	-0.250393
C	 2.1301332326	 0.7513881158	-0.1026662074	 0.384984
N	 3.3923016807	 0.790164007	-0.1816954198	-0.321678
C	 4.0664637096	-0.509684568	-0.1846957995	-0.145491
C	 3.2974860979	-1.65355788	 0.5004407845	-0.220128
C	 1.8643147104	-1.775111494	-0.0490299993	-0.334756
C	 1.2332404919	-0.4172607725	-0.0202202681	 0.263208
C	-0.0200642137	 0.0314535128	 0.0604369468	-0.260912
H	-0.4196865818	 1.989452688	 0.9319976794	 0.126365
H	-0.5485174213	 1.9473956101	-0.8357974494	 0.126195
H	 4.291516366	-0.7837384765	-1.2269714269	 0.102545
H	 5.0382228974	-0.3811712127	 0.3047012415	 0.107708
H	 3.8391313833	-2.595785628	 0.3687415312	 0.098365
H	 3.2526771835	-1.4539803581	 1.5781992406	 0.108663
H	 1.9023967498	-2.1335352757	-1.0873614756	 0.120631
H	 1.2731837821	-2.5047613065	 0.5134418844	 0.110909
H	-0.9315954343	-0.547653434	 0.1370859007	 0.114146
136.0463	198.0338	255.4656	301.9844	382.3727	416.6137	471.9217	548.724	642.2834	720.2275	744.3464	804.7443	829.0261	867.8356	884.9631	910.0926	948.0641	991.7953	1029.6765	1060.6297	1094.6562	1102.9857	1163.8405	1185.4083	1200.1919	1214.0759	1224.5347	1287.905	1341.403	1347.9195	1367.9168	1378.5643	1388.6223	1474.6675	1484.1106	1497.6732	1503.7276	1715.9389	1756.7303	2989.8999	3006.3068	3011.9582	3031.2933	3031.92	3055.6382	3073.7125	3083.1494	3216.4083
C1OC2=NCCCC2=C1	C1OC2=NCCCC2=C1	
InChI=1S/C7H9NO/c1-2-6-3-5-9-7(6)8-4-1/h3H,1-2,4-5H2	InChI=1S/C7H9NO/c1-2-6-3-5-9-7(6)8-4-1/h3H,1-2,4-5H2
