20
gdb 82404	2.26475	1.80728	1.19916	1.478	78.2	-0.2307	-0.0181	0.2125	1085.1723	0.171944	-403.149946	-403.141532	-403.140588	-403.183251	32.163	
C	-0.2399416841	 1.5258246433	 0.0013632784	-0.394002
C	 0.0783630206	 0.0302835057	 0.0188331171	-0.113214
C	 0.7449607823	-0.4446191621	-1.2751358583	-0.010171
C	 2.1533313737	-0.0731791571	-1.5718158053	-0.246945
N	 1.8005982176	-1.4656730251	-1.3003267263	-0.100724
C	 2.2871585948	-2.049029773	-0.0395001441	-0.163669
C	 1.3472705137	-1.8408078439	 1.1671403903	-0.298065
C	 0.8946085532	-0.3959737755	 1.2361912416	 0.371516
O	 1.1530759046	 0.3466290212	 2.1547765046	-0.313511
H	 0.6776472415	 2.1176140377	-0.0543230045	 0.127634
H	-0.865127784	 1.7784848269	-0.8604867559	 0.110837
H	-0.7667986806	 1.8183186462	 0.9125443311	 0.130911
H	-0.8645381835	-0.5324169126	 0.109472598	 0.100298
H	 0.0537578798	-0.5246093319	-2.1128392734	 0.095157
H	 2.4763535134	 0.1479734954	-2.5859971688	 0.115539
H	 2.6941201667	 0.473505648	-0.7984035697	 0.115689
H	 2.4274554952	-3.1239886116	-0.1959239054	 0.115511
H	 3.2740937365	-1.6324399457	 0.1930569446	 0.116293
H	 0.4612028001	-2.4750905445	 1.038435376	 0.118891
H	 1.8447847187	-2.1205422314	 2.0983493501	 0.122024
51.4198	124.117	185.4118	207.8181	263.3032	367.9591	391.6885	414.6732	496.6397	531.1972	601.2297	675.3403	733.0733	785.8093	826.5067	868.0625	910.3148	935.1285	987.6254	1025.9202	1030.9133	1070.0835	1086.9564	1109.5658	1123.3562	1153.4462	1171.7345	1188.8167	1234.9354	1239.278	1289.5217	1320.8725	1332.3637	1346.9672	1387.635	1405.2049	1419.7008	1471.6254	1489.6465	1492.8571	1505.7209	1522.9741	1816.4333	2982.9895	3030.3667	3032.9825	3047.0824	3066.8958	3080.6785	3109.6672	3115.0578	3117.5547	3129.2682	3168.4403
CC1C2CN2CCC1=O	C[C@H]1[C@H]2CN2CCC1=O	
InChI=1S/C7H11NO/c1-5-6-4-8(6)3-2-7(5)9/h5-6H,2-4H2,1H3	InChI=1S/C7H11NO/c1-5-6-4-8(6)3-2-7(5)9/h5-6H,2-4H2,1H3/t5-,6+,8?/m0/s1
