16
gdb 130936	6.33818	0.69063	0.65007	2.646	72.04	-0.2573	-0.0397	0.2176	1621.6876	0.12468	-434.073659	-434.065203	-434.064259	-434.108907	29.027	
O	-0.1826374972	-0.0847519221	-0.3515837071	-0.226144
C	-0.0146850564	 1.079819539	-0.1028332686	 0.155647
C	 1.3186605383	 1.793310075	-0.1683370415	-0.266112
C	 1.2687946645	 2.9936560608	-1.1444827347	-0.343236
C	 2.5243232738	 3.8028547855	-1.1483900023	 0.347198
C	 2.8409058211	 5.0452418073	-0.6469009751	-0.15141
N	 4.1517469171	 5.3148030395	-0.9029865161	-0.180888
N	 4.6759838523	 4.3087759708	-1.5380780482	-0.11183
N	 3.6999339962	 3.3897962635	-1.6890423115	-0.233464
H	-0.8685040548	 1.7326632086	 0.1964649725	 0.077982
H	 1.5563697758	 2.1669360754	 0.8364411301	 0.136362
H	 2.0871917863	 1.0703769172	-0.4549657369	 0.123896
H	 1.0501268713	 2.6280908653	-2.1553142558	 0.133224
H	 0.4394594748	 3.6532804652	-0.8685259721	 0.134058
H	 2.2073574366	 5.7483142036	-0.1300641195	 0.123613
H	 3.9085670903	 2.5295534655	-2.1713390433	 0.281103
39.4082	59.7732	69.0954	116.8605	281.2053	314.178	346.4664	514.9695	582.9505	676.4954	729.0409	746.6093	765.942	843.9455	860.8707	983.5168	994.8475	1053.3814	1068.7481	1076.4175	1082.6083	1137.9556	1186.1658	1238.1643	1265.4535	1302.6051	1330.4188	1368.6371	1386.1958	1428.6392	1443.2762	1465.1611	1491.7965	1608.2535	1839.9839	2856.3153	3027.8986	3038.3114	3079.1582	3108.9782	3267.4237	3650.1543
O=CCCC1=CN=NN1	O=CCCc1cnn[nH]1	
InChI=1S/C5H7N3O/c9-3-1-2-5-4-6-8-7-5/h3-4H,1-2H2,(H,6,7,8)	InChI=1S/C5H7N3O/c9-3-1-2-5-4-6-8-7-5/h3-4H,1-2H2,(H,6,7,8)
