18
gdb 58400	2.14435	1.19017	0.79717	3.025	77.	-0.2673	0.0149	0.2821	1410.8182	0.143439	-439.038126	-439.027581	-439.026636	-439.074438	37.008	
C	 0.5351295749	 1.5304929689	 0.1047553962	-0.421683
C	 0.2218277908	 0.0391043909	 0.04511583	 0.118423
O	 0.8107945081	-0.679814526	 1.1131803965	-0.421135
C	-1.304690038	-0.2277824327	 0.0150557441	-0.107287
O	-1.8145443025	 0.4742959839	-1.1289540793	-0.190261
C	-3.1589715223	 0.5434842446	-1.2538311126	 0.132216
N	-3.6602935463	 1.2018840135	-2.2049405947	-0.4399
C	-1.616984233	-1.6545043687	-0.0415002035	 0.352687
C	-1.894754018	-2.8211432697	-0.1107542625	-0.445156
H	 1.6181451137	 1.67737371	 0.1183938909	 0.128779
H	 0.1126277221	 2.0557027763	-0.7537841495	 0.154167
H	 0.1164456729	 1.9786166758	 1.0158044044	 0.104205
H	 0.642040109	-0.3942510173	-0.8682278223	 0.117001
H	 0.6204175783	-0.2094182136	 1.932531432	 0.281772
H	-1.7437614849	 0.2051772821	 0.9281866481	 0.098925
H	-3.7025264211	-0.0115086012	-0.4795241473	 0.09989
H	-4.6762792162	 1.1557444288	-2.1612168478	 0.231225
H	-2.1278463075	-3.8559574855	-0.1690065727	 0.206133
56.3901	74.1347	83.3814	135.8685	154.6451	217.8677	253.8204	281.5753	315.3825	357.7971	412.1787	446.3003	506.8506	536.1907	638.4573	675.709	705.8346	821.2607	869.4891	918.5308	976.5837	1032.1684	1041.4702	1066.6155	1113.7874	1129.9617	1153.8216	1250.9343	1294.9964	1319.819	1342.4497	1378.6424	1399.8645	1416.7527	1426.1632	1489.8164	1496.3188	1746.6466	2238.3718	2975.929	3023.3588	3048.2426	3070.3544	3106.3046	3144.5784	3501.6728	3517.4986	3797.7365
CC(O)C(OC=N)C#C	C[C@@H](O)[C@@H](O[CH][NH])C#C	
InChI=1S/C6H9NO2/c1-3-6(5(2)8)9-4-7/h1,4-8H,2H3	InChI=1S/C6H9NO2/c1-3-6(5(2)8)9-4-7/h1,4-8H,2H3/t5-,6+/m1/s1
