18
gdb 54576	3.65976	1.36228	1.1498	3.3074	76.38	-0.2394	0.0288	0.2682	1082.8745	0.148932	-401.936422	-401.928585	-401.927641	-401.968916	30.633	
N	 0.0756817122	 1.1683580141	 0.4895851304	-0.543149
C	-0.0336860692	-0.0514486217	-0.1223048915	 0.280223
O	 0.9090648848	-0.5940934891	-0.6740884117	-0.378147
C	-1.375337388	-0.67818908	-0.0352596222	 0.265658
C	-2.6275172711	-0.2898993067	 0.7524770318	-0.325573
C	-3.1182384573	-1.7374249737	 0.476832331	-0.077162
C	-3.3309800032	-1.7733199151	-1.0643180809	-0.238977
C	-1.8148329047	-1.6396926141	-1.1690853046	-0.083629
C	-1.6144309128	-2.1611474443	 0.2184289524	-0.096961
H	 0.9372742742	 1.6742448737	 0.3629424695	 0.258468
H	-0.7356466353	 1.6762282228	 0.7963834203	 0.25914
H	-2.3965512998	-0.1370679974	 1.8111277862	 0.10371
H	-3.2586814714	 0.5307590954	 0.3881481302	 0.087947
H	-3.8170653134	-2.2249726673	 1.1526574655	 0.075642
H	-3.6605032442	-2.759319641	-1.4026807944	 0.105811
H	-3.9693371605	-0.9985376438	-1.5045874734	 0.089588
H	-1.1604882097	-1.7670483276	-2.0201043572	 0.111154
H	-0.9449713708	-2.8992826042	 0.6339544286	 0.106256
63.3226	164.3981	181.1914	224.8437	358.6597	415.4827	429.9196	487.1301	565.2602	639.387	708.8747	748.4205	764.4935	801.934	856.5282	872.2281	928.2762	938.7917	958.7565	989.8131	1005.9819	1019.3542	1074.4733	1081.7601	1095.7391	1139.0889	1145.075	1171.8479	1192.3446	1212.188	1238.058	1282.374	1300.527	1337.587	1421.4798	1492.8066	1509.4236	1613.9234	1774.5591	3017.5483	3034.407	3085.6127	3099.1539	3141.2554	3220.501	3236.1533	3598.8727	3733.9665
NC(=O)C12CC3CC1C23	NC(=O)[C@@]12C[C@H]3C[C@@H]1[C@@H]23	
InChI=1S/C7H9NO/c8-6(9)7-2-3-1-4(7)5(3)7/h3-5H,1-2H2,(H2,8,9)	InChI=1S/C7H9NO/c8-6(9)7-2-3-1-4(7)5(3)7/h3-5H,1-2H2,(H2,8,9)/t3-,4-,5+,7+/m1/s1
