16
gdb 110156	2.58767	1.16991	0.88941	4.0578	70.19	-0.2949	-0.0184	0.2765	1290.6747	0.123469	-437.924071	-437.915302	-437.914357	-437.958259	30.857	
C	-0.0003899831	 1.547877996	 0.0147182528	-0.390559
C	 0.1968027726	 0.0280631002	 0.0210971672	-0.211814
C	 0.7056275163	-0.4894185619	-1.3234488956	-0.203671
C	 0.7243901778	-2.0240419496	-1.5703571664	-0.034436
O	-0.2005952099	-1.866739015	-2.6905478374	-0.24129
C	-0.2900393151	-0.502131901	-2.487558358	 0.4731
O	-0.9752235015	 0.2680680693	-3.072682455	-0.304191
C	 1.9909206975	-2.6225945414	-1.9724615487	 0.28892
N	 3.0096169222	-3.0837951557	-2.2619789463	-0.304688
H	 0.9463220394	 2.0673660104	-0.1669920614	 0.1255
H	-0.7034902496	 1.8479476321	-0.7669298088	 0.153839
H	-0.3901687625	 1.8890971756	 0.9775315322	 0.125667
H	 0.9143985145	-0.2585533582	 0.7988812353	 0.120119
H	-0.7487535891	-0.4713037335	 0.266267061	 0.115717
H	 1.6459084839	-0.0062349346	-1.6034876138	 0.140586
H	 0.2602843865	-2.6175016527	-0.7781582471	 0.1472
75.4531	93.3887	146.1846	150.4947	208.7564	260.0908	315.643	359.9422	461.7117	514.2195	589.1535	696.838	741.0726	779.9422	865.421	926.124	935.9634	984.7778	1045.4451	1079.7804	1101.7382	1111.3198	1143.5345	1221.6116	1244.3462	1281.9674	1339.0957	1362.9777	1379.1678	1418.3923	1490.4083	1498.9266	1510.0916	1948.8279	2365.9359	3027.9428	3043.2226	3062.9914	3083.4969	3090.0168	3112.4852	3127.516
CCC1C(OC1=O)C#N	CC[C@H]1[C@@H](OC1=O)C#N	
InChI=1S/C6H7NO2/c1-2-4-5(3-7)9-6(4)8/h4-5H,2H2,1H3	InChI=1S/C6H7NO2/c1-2-4-5(3-7)9-6(4)8/h4-5H,2H2,1H3/t4-,5-/m0/s1
