17
gdb 5624	3.15138	1.92369	1.21266	2.2277	71.61	-0.1867	0.0561	0.2428	989.7543	0.142317	-363.889676	-363.881315	-363.880371	-363.922436	30.359	
C	-0.0922409172	 1.3641037061	 0.006456893	-0.241465
O	-0.0358983749	-0.0455012755	 0.0135228542	-0.262048
C	 0.633943699	-0.5956731964	 1.0625251185	 0.275977
C	 1.2666568362	 0.0230808732	 2.1204276177	-0.21875
N	 1.7902179876	-0.9834423765	 2.9069680416	-0.257193
C	 1.4962214333	-2.2031781689	 2.3600010111	-0.149781
C	 0.7732103175	-2.0089836581	 1.2042984479	 0.151863
C	 0.2320777929	-3.0450026482	 0.2693106479	-0.501466
H	 0.914149823	 1.8046325762	-0.038473793	 0.113583
H	-0.6537290356	 1.6562853403	-0.8829594325	 0.127827
H	-0.6029650912	 1.7487478995	 0.9009482039	 0.113578
H	 1.388498423	 1.060135838	 2.3793663601	 0.113588
H	 2.3097329581	-0.8371529748	 3.7525970934	 0.25786
H	 1.8200289384	-3.1188520121	 2.8293647743	 0.113398
H	-0.8587127816	-2.9813219876	 0.1811502714	 0.125412
H	 0.6358813531	-2.9277843191	-0.7430443755	 0.125407
H	 0.4817031983	-4.0524931861	 0.6146653061	 0.112209
86.0471	109.4645	188.7883	214.9696	246.0184	297.2257	309.6931	386.3694	518.0383	601.2372	618.5287	625.8367	707.8481	741.3562	741.7031	905.7008	999.7718	1065.7851	1066.6931	1084.2173	1149.6189	1183.0133	1212.4491	1222.5328	1266.3875	1348.0372	1411.5944	1419.4315	1469.2997	1478.7071	1483.7037	1484.9246	1500.3986	1510.4947	1579.8453	1637.4661	2987.7775	3025.0641	3038.6834	3072.1934	3104.5583	3126.9348	3255.6524	3283.0286	3702.666
COC1=CNC=C1C	COc1c[nH]cc1C	
InChI=1S/C6H9NO/c1-5-3-7-4-6(5)8-2/h3-4,7H,1-2H3	InChI=1S/C6H9NO/c1-5-3-7-4-6(5)8-2/h3-4,7H,1-2H3
