16
gdb 10568	2.58672	1.88538	1.31209	1.1487	78.35	-0.2349	0.0298	0.2647	978.8897	0.127118	-309.389892	-309.381211	-309.380267	-309.422473	32.653	
C	-0.0945779821	 1.5203672528	-0.0307522794	-0.414117
C	 0.0276647717	 0.0164633849	 0.0032972623	-0.022525
C	 1.3319657315	-0.6707550614	-0.2264728837	-0.311373
C	 0.722182581	-0.6970631046	 1.1871450741	-0.010236
C	 1.3532769952	 0.1029333302	 2.2058295373	 0.271639
C	 1.8797003924	 0.7714351632	 3.0554562157	-0.467
C	 0.1414544821	-1.936809432	 1.6373693892	 0.259197
C	-0.3521712531	-2.9723325105	 1.9972792134	-0.450529
H	 0.7911040074	 2.0011335474	 0.391660016	 0.133436
H	-0.2136470715	 1.8674912093	-1.062852867	 0.121398
H	-0.9640318595	 1.8581085875	 0.5420813472	 0.12846
H	-0.8490136812	-0.5233884707	-0.3414462398	 0.108997
H	 1.349266767	-1.6144533218	-0.7583400756	 0.132923
H	 2.2193052674	-0.0580058573	-0.3401900161	 0.131312
H	 2.3437485693	 1.3532148795	 3.8127948624	 0.194637
H	-0.7841171774	-3.8847044465	 2.326185934	 0.193781
129.1777	136.5598	156.3605	181.6313	222.0911	320.0305	369.9089	459.7762	487.6444	568.7594	572.5685	581.109	602.8087	615.8236	655.2809	657.4846	773.6462	876.9347	907.1004	938.2751	1015.6166	1073.3256	1073.9443	1126.0728	1195.977	1243.8848	1288.0989	1395.7229	1422.6481	1477.6895	1491.8801	1498.8975	2236.451	2238.578	3037.6507	3099.8342	3122.0449	3142.3796	3160.6578	3237.1359	3502.7349	3504.0771
CC1CC1(C#C)C#C	C[C@H]1CC1(C#C)C#C	
InChI=1S/C8H8/c1-4-8(5-2)6-7(8)3/h1-2,7H,6H2,3H3	InChI=1S/C8H8/c1-4-8(5-2)6-7(8)3/h1-2,7H,6H2,3H3/t7-/m0/s1
