17
gdb 127166	4.20858	1.10859	0.88235	3.7207	79.82	-0.1985	0.0114	0.21	1266.8518	0.13845	-414.209344	-414.200888	-414.199944	-414.243066	30.824	
C	 0.0623427094	 1.4698309485	-0.0112937715	-0.350963
N	 0.0130791143	 0.0164697222	-0.0064557098	-0.158276
C	-0.0443476402	-0.6736536889	 1.1866644359	 0.086811
N	-0.0564298523	-0.0812299362	 2.3175257558	-0.498584
C	 0.0244373364	-0.656081825	-1.2255691589	 0.480491
N	-0.0181138675	-1.9868142637	-1.2959724926	-0.333019
N	 0.0104301437	-2.2461935872	-2.6239482875	-0.186166
C	 0.0686763244	-1.1326383068	-3.3822405781	-0.014319
C	 0.0802974213	-0.0622081076	-2.5129543122	-0.33097
H	 0.9790309445	 1.8275799034	-0.4938131053	 0.125213
H	-0.8000610105	 1.887759197	-0.5430344105	 0.125203
H	 0.0448234056	 1.8016980661	 1.0252644622	 0.17559
H	-0.0764133663	-1.7526308414	 1.0286781793	 0.132906
H	-0.1010180724	-0.7693884121	 3.0650818814	 0.221556
H	-0.0145976369	-3.2037503078	-2.9272924908	 0.277073
H	 0.0974982616	-1.1771687268	-4.4594183074	 0.137628
H	 0.122583925	 0.9819047164	-2.76921181	 0.109825
46.0633	111.9637	158.5914	197.0771	252.578	336.3955	356.24	447.3512	460.6985	489.6741	648.5426	722.8175	757.7937	766.889	799.1638	826.2238	939.0761	945.06	1028.9963	1061.121	1069.63	1119.4035	1141.6264	1159.9198	1225.3246	1230.0105	1332.7585	1362.8166	1410.5009	1415.6678	1447.5724	1497.7492	1501.2952	1506.1934	1542.428	1595.614	1709.6713	3023.6048	3076.1539	3124.5703	3169.7385	3262.1101	3289.4898	3517.145	3689.1614
CN(C=N)C1=NNC=C1	CN(C=N)c1n[nH]cc1	
InChI=1S/C5H8N4/c1-9(4-6)5-2-3-7-8-5/h2-4,6H,1H3,(H,7,8)	InChI=1S/C5H8N4/c1-9(4-6)5-2-3-7-8-5/h2-4,6H,1H3,(H,7,8)
