22
gdb 59397	2.7196	1.0262	0.99627	1.4517	90.43	-0.2291	0.0461	0.2752	1379.1151	0.190295	-367.157932	-367.147326	-367.146382	-367.192981	39.877	
C	 2.4442795815	 0.3937993729	 0.9995031832	-0.382834
C	 1.2259833686	-0.4723116153	 0.6679896806	 0.080597
C	-0.0824220485	 0.2913529829	 0.8829110154	-0.386532
N	 1.3227741408	-0.8707119703	-0.7389067284	-0.097255
C	 2.1702818811	-1.9905738706	-1.097316164	-0.280909
C	 0.6763915788	-2.1021998592	-1.2367969891	 0.091777
C	-0.0775822419	-3.0619918316	-0.325228402	-0.464911
C	 0.0834321502	-1.9668171224	-2.5489052321	 0.2972
C	-0.4302552384	-1.8924752841	-3.6334431406	-0.423716
H	 3.3757133516	-0.1607037217	 0.8485844673	 0.113311
H	 2.4678742015	 1.2786122682	 0.3560219774	 0.126059
H	 2.4094336771	 0.7211574145	 2.0431721046	 0.11052
H	 1.2407137188	-1.3465120423	 1.3409068401	 0.057018
H	-0.1186506017	 1.1682776528	 0.2293514852	 0.127956
H	-0.9520349253	-0.3323505986	 0.6571345513	 0.116778
H	-0.1656497068	 0.6261617148	 1.921495725	 0.110178
H	 2.7975848705	-1.8630345281	-1.9752472434	 0.119587
H	 2.6162153171	-2.5802368737	-0.2950135174	 0.104719
H	 0.4153864773	-3.1824134611	 0.6411799122	 0.122794
H	-1.1023775222	-2.7185214545	-0.1557434968	 0.132993
H	-0.1327926322	-4.0460131778	-0.7999313989	 0.13407
H	-0.8754154877	-1.8089810849	-4.5937012695	 0.1906
75.964	100.8288	143.2076	188.1685	209.8267	220.1155	244.1506	262.4202	326.0664	360.3571	384.052	449.4771	485.5884	541.6688	575.308	609.3062	643.172	699.9894	736.3992	862.3527	899.1862	930.744	933.42	960.9879	971.8929	1075.4058	1079.5325	1102.5135	1124.1467	1151.4059	1195.3902	1205.5061	1255.4763	1352.5764	1358.6534	1362.9784	1396.5304	1412.6505	1415.9808	1480.7949	1485.3956	1487.8288	1493.9432	1499.3621	1505.699	1510.9759	2237.1335	2947.67	3036.2308	3041.2511	3047.5178	3077.3842	3107.5044	3109.9382	3111.9479	3114.9786	3117.9887	3133.4004	3175.1325	3504.3495
CC(C)N1CC1(C)C#C	CC(C)N1C[C@]1(C)C#C	
InChI=1S/C8H13N/c1-5-8(4)6-9(8)7(2)3/h1,7H,6H2,2-4H3	InChI=1S/C8H13N/c1-5-8(4)6-9(8)7(2)3/h1,7H,6H2,2-4H3/t8-,9?/m0/s1
