23
gdb 102512	1.91958	1.21992	0.93398	1.4787	87.95	-0.2436	0.0553	0.2989	1424.3466	0.201714	-388.253331	-388.241814	-388.24087	-388.290195	41.184	
C	 0.5605595162	 1.1304720324	-0.441365429	-0.393152
C	 0.1569526966	-0.3102514907	-0.1206162483	-0.177699
C	-1.3496105421	-0.4872253897	 0.0861775157	 0.120303
O	-2.0391049344	-0.1395664315	-1.1099168412	-0.247658
C	-2.9583988777	 0.9238967863	-0.9945325831	-0.236027
C	-1.7260134786	-1.935290907	 0.5049469068	-0.157043
C	-3.236576489	-2.0770772024	 0.7737197401	-0.401873
C	-1.2828612617	-2.926795104	-0.4745126737	 0.365134
C	-0.9380078709	-3.7597491615	-1.269853121	-0.496575
H	 1.6413355307	 1.2094558421	-0.5927334938	 0.112143
H	 0.0681643723	 1.4752767749	-1.35485828	 0.129538
H	 0.2895954831	 1.8155454634	 0.3705310806	 0.10607
H	 0.4688108447	-0.9762689305	-0.9318800978	 0.121376
H	 0.673943446	-0.6526001869	 0.7850141904	 0.089466
H	-1.6786826164	 0.1725594083	 0.9040838291	 0.063035
H	-3.7663886343	 0.7014806989	-0.2823902634	 0.104511
H	-2.47196895	 1.860145554	-0.6836060217	 0.106391
H	-3.3992564534	 1.0730494321	-1.9839958815	 0.126758
H	-1.1911402425	-2.129083112	 1.4456325955	 0.100779
H	-3.8017267926	-1.8678517693	-0.1371401131	 0.140156
H	-3.4763652387	-3.0922281029	 1.0993220866	 0.123986
H	-3.5549451998	-1.380080882	 1.5560274327	 0.107032
H	-0.6272665275	-4.490052852	-1.9752616999	 0.19335
61.1642	70.5779	97.5449	134.559	161.3036	192.5153	212.7187	237.1771	260.2157	283.6697	334.5346	364.2425	387.0724	486.6244	556.5123	618.3794	636.9098	690.0937	760.931	791.4273	893.7284	933.7051	966.6036	1007.6211	1054.8039	1067.0541	1110.7588	1132.4094	1147.234	1179.6519	1182.4225	1219.1772	1282.4093	1298.2979	1318.9876	1347.1695	1387.3017	1400.0172	1403.244	1410.7052	1478.1582	1482.4125	1486.934	1493.6664	1497.497	1502.8926	1508.8999	1516.1122	2233.3357	2975.161	2987.732	3005.7539	3029.8995	3030.716	3032.7318	3042.0968	3078.9606	3100.0831	3107.4302	3114.4155	3116.5004	3135.4145	3504.0391
CCC(OC)C(C)C#C	CC[C@@H](OC)[C@@H](C)C#C	
InChI=1S/C8H14O/c1-5-7(3)8(6-2)9-4/h1,7-8H,6H2,2-4H3	InChI=1S/C8H14O/c1-5-7(3)8(6-2)9-4/h1,7-8H,6H2,2-4H3/t7-,8+/m0/s1
