20
gdb 23369	1.7853	1.49561	0.98527	1.1665	78.8	-0.2447	-0.0005	0.2443	1289.147	0.168137	-440.224428	-440.214342	-440.213398	-440.259705	36.697	
C	-0.141738463	 1.5335869709	-0.2616611483	-0.388277
C	-0.2281876882	 0.0134713724	-0.0879150733	-0.030935
C	 0.6242228107	-0.4637127738	 1.1066502475	-0.391058
C	-1.6522764864	-0.4843667184	 0.062648566	 0.306038
N	-2.5433358533	 0.3391834888	 0.4656179486	-0.184848
O	-3.8117150349	-0.2606151817	 0.5739459398	-0.403357
C	-1.9567688304	-1.918222893	-0.223496318	 0.013548
C	-1.7648180233	-2.4904855686	-1.5697599511	-0.173492
O	-0.8491504154	-2.7754741897	-0.5184121349	-0.231679
H	 0.9004780495	 1.8317945912	-0.4128605565	 0.104292
H	-0.7272226147	 1.8720825126	-1.1209131146	 0.113751
H	-0.5236329769	 2.0522459775	 0.62128798	 0.129884
H	 0.1809765902	-0.4691518167	-0.9846938292	 0.089369
H	 1.6662815288	-0.1561890518	 0.9727795932	 0.112535
H	 0.2559432466	-0.0224708365	 2.0387859075	 0.119165
H	 0.6007473241	-1.5515286385	 1.2022199495	 0.137609
H	-4.3458157491	 0.46081202	 0.9216410059	 0.307705
H	-2.7228079935	-2.3627805479	 0.4060615148	 0.123504
H	-2.3937059356	-3.3204041759	-1.8873638583	 0.125635
H	-1.3786531452	-1.8606937011	-2.3697506288	 0.120612
54.3927	74.9002	165.852	181.7625	219.3459	231.6499	249.7549	275.0778	328.8773	369.1703	398.0281	436.3945	551.9702	587.9019	694.2079	712.156	870.9926	883.134	923.3585	931.2139	969.1695	974.2993	990.5023	1092.7927	1117.8532	1129.1187	1152.3476	1171.0006	1183.0551	1243.167	1282.2986	1320.9538	1367.0753	1387.4613	1396.9735	1412.0993	1423.7665	1487.2455	1487.7982	1501.1724	1512.8546	1522.8478	1720.6967	3025.5926	3036.4714	3043.6753	3086.8773	3103.4762	3112.165	3124.0638	3129.1922	3152.1613	3178.0913	3825.2654
CC(C)C(=NO)C1CO1	CC(C)C(=NO)[C@H]1CO1	
InChI=1S/C6H11NO2/c1-4(2)6(7-8)5-3-9-5/h4-5,8H,3H2,1-2H3	InChI=1S/C6H11NO2/c1-4(2)6(7-8)5-3-9-5/h4-5,8H,3H2,1-2H3/t5-/m1/s1
