20
gdb 114470	3.29488	1.36213	1.21971	1.2681	78.4	-0.215	0.0639	0.2788	1107.9123	0.171671	-403.056974	-403.049078	-403.048134	-403.089386	30.983	
C	-0.1453627235	 1.4498056116	 0.1419117464	-0.239314
O	 0.2806499187	 0.1326631663	-0.1342208976	-0.234136
C	 0.7769857058	-0.5342796497	 0.9939038202	 0.114864
C	-0.2382243573	-1.1667345938	 2.0043243262	-0.227884
N	 0.3788819094	-2.5219035674	 1.8021280978	-0.127592
C	-0.2505558811	-3.414065412	 0.7989666118	-0.0131
C	-0.8260985018	-2.7302811986	-0.4104392901	-0.295958
C	 0.6655953945	-2.9002970352	-0.3172439616	-0.06872
C	 1.2893390052	-1.9770458561	 0.7351608419	-0.024447
H	 0.6756703128	 2.0616335145	 0.5470405947	 0.107471
H	-0.4821838952	 1.8866275449	-0.8010389561	 0.129502
H	-0.9783141436	 1.4726797515	 0.8604258561	 0.109829
H	 1.530413796	 0.0901154861	 1.4978617684	 0.069916
H	-0.1413736069	-0.8292887404	 3.0401019972	 0.102024
H	-1.2864239831	-1.0891552976	 1.6994782575	 0.108118
H	-0.5265206162	-4.4250719179	 1.0783344448	 0.090678
H	-1.3028698917	-3.415017578	-1.1058879544	 0.109956
H	-1.2764474517	-1.7463051169	-0.3774211367	 0.124773
H	 1.2337301063	-3.4537872188	-1.053809563	 0.089001
H	 2.3595597934	-2.1405125027	 0.8906103264	 0.075021
97.3668	139.4335	174.936	223.3819	322.8869	345.5844	439.7262	462.9614	582.0482	679.6224	739.8502	759.4548	785.6499	857.302	882.8522	911.7891	943.8419	977.5998	1008.8069	1011.4959	1023.2475	1052.0899	1062.0549	1073.6872	1099.9466	1116.1874	1173.3318	1181.8012	1185.8503	1196.2814	1210.3369	1230.5898	1263.0361	1275.8983	1297.6369	1327.0686	1356.0485	1394.4152	1479.6931	1483.0362	1489.3321	1504.9958	1509.0387	2974.273	2983.2978	3025.1547	3045.6863	3061.9474	3097.7938	3117.4091	3135.9951	3163.7154	3192.008	3225.5356
COC1CN2C3CC3C12	CO[C@H]1CN2[C@H]3C[C@H]3[C@@H]12	
InChI=1S/C7H11NO/c1-9-6-3-8-5-2-4(5)7(6)8/h4-7H,2-3H2,1H3	InChI=1S/C7H11NO/c1-9-6-3-8-5-2-4(5)7(6)8/h4-7H,2-3H2,1H3/t4-,5+,6+,7+/m1/s1
