16
gdb 129870	3.15276	1.32322	1.04284	3.0851	76.9	-0.2039	0.0246	0.2285	1135.269	0.125234	-396.906426	-396.898011	-396.897066	-396.93971	31.455	
N	 0.2271580179	 1.3296137192	-0.2496255548	-0.61361
C	 0.0126046987	-0.0409981043	-0.1120344013	 0.391444
C	-1.136491368	-0.7983315652	 0.0334890823	-0.310018
C	-0.665054209	-2.1155985663	 0.2184151526	 0.008869
N	 0.6581208172	-2.1923019009	 0.1874799162	-0.280142
N	 1.0595604246	-0.9031682356	-0.0046049498	-0.000094
C	 2.4730534439	-0.5847139846	-0.0466508082	-0.29143
C	 2.9054514411	-0.0253796657	-1.3289443393	 0.301241
C	 3.2424702253	 0.4681563995	-2.3717045613	-0.453637
H	 0.9022726635	 1.556977865	-0.9722088261	 0.257821
H	-0.6347865744	 1.8321186529	-0.4113014268	 0.254286
H	-2.1549270927	-0.4468694022	-0.0016341987	 0.09167
H	-1.245353425	-3.0149958302	 0.3672161649	 0.10764
H	 2.7154076125	 0.1220304921	 0.7576323504	 0.155568
H	 2.9944606276	-1.5218587765	 0.1627708978	 0.170905
H	 3.5568730568	 0.876626353	-3.3006962079	 0.209484
58.6835	98.7882	212.6917	255.6841	284.3301	297.4076	327.465	442.1378	476.0286	628.8522	643.8098	670.4852	675.1642	701.0786	741.303	776.5018	796.0268	883.3724	939.0501	948.0063	959.8678	1064.5817	1090.3832	1164.4214	1246.8124	1263.4023	1331.3634	1370.709	1377.6034	1446.6931	1463.5735	1553.2441	1599.1462	1659.2025	2237.4271	3027.3213	3108.88	3237.6685	3265.1419	3501.1818	3517.1886	3628.765
NC1=CC=NN1CC#C	Nc1ccnn1CC#C	
InChI=1S/C6H7N3/c1-2-5-9-6(7)3-4-8-9/h1,3-4H,5,7H2	InChI=1S/C6H7N3/c1-2-5-9-6(7)3-4-8-9/h1,3-4H,5,7H2
