17
gdb 34237	3.31029	1.58789	1.37	5.3302	76.72	-0.2528	0.0219	0.2747	961.7079	0.139831	-380.842511	-380.835994	-380.83505	-380.873302	26.859	
N	 0.0146270486	-1.1616195135	 0.0579258297	-0.346556
C	-0.0137214622	-0.005644987	 0.0243252476	 0.180738
C	-0.0751954811	 1.430322767	 0.0169387336	 0.234982
C	-1.129398764	 2.2558561394	 0.7778740451	-0.294823
C	-0.656355396	 3.4099362142	-0.1385144726	-0.087564
C	 0.7751882759	 3.6433536871	 0.3837459511	-0.222289
C	 1.2940008437	 2.2582246088	-0.0637557377	-0.058228
N	 1.1305751139	 2.2674829353	-1.5443433536	-0.298876
C	-0.3026786147	 2.3033275747	-1.2584434254	-0.0335
H	-2.1334179682	 1.8980507728	 0.5369585174	 0.12057
H	-1.0238240939	 2.3773404968	 1.8588795598	 0.110937
H	-1.2909748475	 4.2672658606	-0.3499784802	 0.078818
H	 1.3213109898	 4.4476883688	-0.1182353364	 0.099655
H	 0.805739755	 3.8172555135	 1.4626259423	 0.108847
H	 2.2254317871	 1.8653237981	 0.3401299044	 0.09398
H	 1.5084280425	 3.0997146634	-1.9978910585	 0.214432
H	-1.0250839188	 2.0748181498	-2.0400855165	 0.098879
151.293	157.4223	377.8825	437.838	470.0444	532.5391	547.7129	567.1587	683.8147	707.9337	786.1628	831.2407	881.4869	910.9995	920.1614	939.1112	968.1167	996.7122	1011.1543	1024.4451	1050.7342	1063.9819	1110.7372	1137.8687	1156.1522	1185.4267	1203.4228	1226.4955	1241.0015	1242.0582	1292.8523	1315.083	1332.0806	1345.6426	1489.6163	1512.5969	2350.9996	3055.9473	3062.9411	3105.4858	3122.1644	3137.4385	3138.7279	3148.7458	3447.0768
N#CC12CC3CC1NC23	N#C[C@@]12C[C@H]3C[C@@H]1N[C@@H]23	
InChI=1S/C7H8N2/c8-3-7-2-4-1-5(7)9-6(4)7/h4-6,9H,1-2H2	InChI=1S/C7H8N2/c8-3-7-2-4-1-5(7)9-6(4)7/h4-6,9H,1-2H2/t4-,5+,6-,7+/m1/s1
