15
gdb 28969	2.98206	1.56822	1.03428	0.6171	84.97	-0.2496	-0.0595	0.1901	1093.9879	0.112712	-379.693667	-379.685712	-379.684768	-379.72636	29.462	
C	-0.0401979924	 1.5050836506	-0.0266366987	-0.4963
C	-0.0116594462	 0.0034129866	-0.007508004	 0.28122
N	-0.0288968665	-0.6368424305	-1.1782443341	-0.287303
C	-0.0032874506	-1.9708596322	-1.1509354528	-0.014949
C	 0.0398204503	-2.6809081531	 0.0442099379	-0.033255
N	 0.0577710627	-2.0669639972	 1.2248213028	-0.299986
C	 0.03219502	-0.7262660106	 1.2056462252	 0.120888
C	 0.0507176421	-0.0419885497	 2.458873602	 0.251797
C	 0.0653492959	 0.5646844071	 3.498516674	-0.387944
H	 0.8431420675	 1.9217655772	 0.4688046178	 0.143596
H	-0.0730004993	 1.8537329919	-1.0594071176	 0.141144
H	-0.9120582424	 1.8890123735	 0.5135643405	 0.143593
H	-0.0175446904	-2.4840995976	-2.1088935914	 0.118938
H	 0.060384382	-3.7674143723	 0.0529614063	 0.116799
H	 0.0786944532	 1.0857651662	 4.4240907122	 0.201761
91.4813	111.6245	148.1045	216.3127	342.8129	378.5747	479.8686	494.4701	548.2497	589.9846	603.2771	628.5069	660.1212	720.5978	809.9892	886.516	888.0725	987.8967	994.2759	1062.8422	1096.665	1158.631	1236.5175	1274.8009	1297.6127	1403.9105	1417.3971	1460.1509	1478.6925	1493.136	1578.3331	1589.7852	2227.0189	3041.3763	3095.6299	3149.4153	3156.6544	3175.4984	3500.1536
CC1=NC=CN=C1C#C	Cc1nccnc1C#C	
InChI=1S/C7H6N2/c1-3-7-6(2)8-4-5-9-7/h1,4-5H,2H3	InChI=1S/C7H6N2/c1-3-7-6(2)8-4-5-9-7/h1,4-5H,2H3
