23
gdb 94467	2.56401	1.38866	1.18085	1.3531	84.42	-0.2492	0.0657	0.3148	1183.5531	0.20785	-388.297722	-388.289054	-388.28811	-388.331077	34.48	
O	 0.3961958487	 0.7411227268	-0.8885884758	-0.427742
C	 0.0711353302	-0.2646427581	 0.0395615487	 0.115851
C	 0.003169111	 0.0519903584	 1.5520987614	-0.269462
C	-1.1524262603	-0.9790978463	 1.6537547688	-0.297805
C	-1.3787428313	-0.8639149703	 0.1176073805	 0.343053
C	-2.4713472889	 0.139101909	-0.3044178403	-0.26365
C	-2.7016124747	-0.1769834421	-1.7888469539	-0.203468
C	-2.6996057547	-1.7164471934	-1.8156569481	-0.195874
C	-1.6774793962	-2.1300208187	-0.7225262984	-0.296449
H	-0.1298867363	 1.5205400377	-0.6828490681	 0.280186
H	 0.7851313895	-1.0730669403	-0.1516072256	 0.085437
H	 0.9040424282	-0.107864249	 2.1485963748	 0.099364
H	-0.3533475468	 1.0730165409	 1.7272820424	 0.092456
H	-0.7905907331	-1.9711679637	 1.940064615	 0.099806
H	-1.9999256384	-0.7211621016	 2.2941649945	 0.095203
H	-3.3863960518	-0.0581622262	 0.2699430055	 0.093726
H	-2.2085820149	 1.1867220108	-0.1167843257	 0.068873
H	-3.6213710088	 0.2597597009	-2.1889409737	 0.087045
H	-1.8604479064	 0.2125349922	-2.3726549457	 0.110751
H	-3.6972826674	-2.0901082277	-1.5591520024	 0.095212
H	-2.4525207354	-2.1222039405	-2.8003966672	 0.094814
H	-0.7524733464	-2.5160308027	-1.1645491103	 0.097905
H	-2.0763752557	-2.9309555662	-0.0911448663	 0.094767
55.6557	124.5987	187.8932	232.3004	301.4873	328.0825	334.3601	429.6706	463.2151	518.1926	591.776	658.1311	739.1527	761.4546	814.6795	857.5756	877.2742	897.4827	912.9613	934.0313	965.8647	988.9333	997.3113	1023.8036	1046.3341	1080.8776	1125.9401	1144.0545	1169.42	1189.7936	1212.6486	1234.8523	1240.4575	1252.9704	1261.181	1272.1806	1300.6411	1308.792	1320.3482	1340.4184	1348.3813	1358.4646	1435.4671	1480.2149	1485.833	1491.1646	1494.9185	1497.7302	1515.1583	3017.0282	3033.614	3041.3225	3041.558	3044.6026	3050.9007	3054.9577	3058.8449	3069.8891	3088.809	3098.0251	3100.5902	3112.4812	3818.7428
OC1CCC11CCCC1	O[C@H]1CCC21CCCC2	
InChI=1S/C8H14O/c9-7-3-6-8(7)4-1-2-5-8/h7,9H,1-6H2	InChI=1S/C8H14O/c9-7-3-6-8(7)4-1-2-5-8/h7,9H,1-6H2/t7-/m0/s1
