15
gdb 37082	3.10817	2.93755	2.17005	3.0636	68.48	-0.2036	0.0068	0.2104	689.1304	0.116063	-379.523822	-379.518746	-379.517801	-379.552756	22.989	
N	 0.0291176685	 1.4437969959	-0.3651144895	-0.308167
C	 1.3323172463	 1.2059521926	 0.2497147791	-0.006315
C	 2.0589915496	 0.1385924593	-0.5722552385	-0.054929
C	 2.0129041093	-1.0488242703	 0.3074284871	-0.051028
N	 0.8937554704	-0.8194053562	-0.6576972863	-0.149364
C	 0.0910790425	 0.1344825796	 0.1672753571	 0.112951
C	 0.2008284906	-0.091482081	 1.664720451	-0.107521
C	 1.607789824	-0.6301436172	 1.7279233988	-0.06196
C	 1.3652615352	 0.8663661859	 1.7522554601	-0.11171
H	-0.5510514827	 2.0544028261	 0.2009121849	 0.253259
H	 2.7360024386	 0.2976702958	-1.403995352	 0.100025
H	 2.6136598869	-1.9313531716	 0.1252018791	 0.100081
H	-0.5973012413	-0.3220711978	 2.3597312132	 0.097593
H	 1.9718545779	-1.1613971317	 2.5990325621	 0.095533
H	 1.6607983142	 1.5234993606	 2.562998544	 0.091552
476.6697	484.344	526.0616	564.3146	573.2559	679.4605	685.745	760.7337	797.3858	820.0178	827.2755	831.9261	853.0573	864.0999	940.1807	943.184	971.5676	1019.223	1039.8507	1048.6503	1064.1951	1067.5911	1072.9096	1076.3493	1171.3458	1196.5445	1235.1737	1265.5886	1272.4441	1300.1706	1323.7012	1354.4572	1380.7314	3159.2452	3173.3582	3180.2113	3191.787	3203.271	3549.4863
N1C2=CC3N=C1C1C3C21	N1[C@]23[C@H]4[C@@H]5N4[C@]12[C@H]1[C@@H]5[C@@H]31	
InChI=1S/C7H6N2/c1-2-4-5-3(1)9-7(8-2)6(4)5/h1-2,4-6H,(H,8,9)	InChI=1S/C7H6N2/c8-6-2-1-3(2)7(6,8)9-4(1)5(6)9/h1-5,8H/t1-,2+,3-,4+,5+,6+,7-,9?/m0/s1
