19
gdb 26170	2.63849	1.32376	1.066	1.3641	79.44	-0.1816	0.0382	0.2198	1204.215	0.159237	-419.213871	-419.204614	-419.20367	-419.24802	34.433	
C	 0.074856726	 1.4310704042	-0.1195806266	-0.324401
N	-0.0081414241	-0.0155239054	 0.0705872732	-0.176281
C	 0.8055051063	-0.4665050556	 1.194923589	-0.321875
C	-1.337436301	-0.5152438558	 0.0874504811	 0.149871
C	-1.8831886713	-1.2449782416	-0.9309106235	 0.328951
N	-1.3844271554	-1.5926660706	-2.1753512613	-0.596529
O	-3.1581539289	-1.5906487308	-0.6513058017	-0.176727
C	-3.4491919809	-1.074204634	 0.5931624819	-0.036728
C	-2.3823840201	-0.4012581424	 1.0818539913	-0.247374
H	 1.1184091729	 1.7194453384	-0.2892013583	 0.111026
H	-0.5114678633	 1.7188000837	-0.9954301796	 0.127097
H	-0.2982225986	 2.0051553985	 0.747626787	 0.095869
H	 0.4894628569	-0.0381553748	 2.1633656434	 0.095764
H	 0.7531467995	-1.5553697918	 1.2722034355	 0.120884
H	 1.849768734	-0.1789334566	 1.0297580949	 0.112746
H	-0.3830956992	-1.4364345557	-2.1926841752	 0.254361
H	-1.6091849062	-2.5426642226	-2.4463811876	 0.2511
H	-4.4389182349	-1.2881178622	 0.9578084871	 0.127679
H	-2.3289804317	 0.1035467953	 2.0341637295	 0.104566
44.72	149.2308	154.4763	228.3634	239.9376	262.1997	276.6455	315.3417	379.6985	456.2924	510.2093	597.5587	625.2004	665.2867	719.9269	736.2878	802.5596	823.8154	900.0338	947.682	1032.3215	1055.9632	1057.5459	1118.8926	1159.1028	1178.1052	1199.193	1219.4198	1232.6659	1305.6048	1361.5034	1438.7887	1460.9529	1472.8191	1479.6034	1495.4312	1498.3443	1515.7026	1561.6685	1615.194	1690.1198	2941.4712	2948.3056	3054.5049	3057.0185	3113.1479	3117.1715	3250.5762	3292.5961	3519.4403	3618.4703
CN(C)C1=C(N)OC=C1	CN(C)c1c(N)occ1	
InChI=1S/C6H10N2O/c1-8(2)5-3-4-9-6(5)7/h3-4H,7H2,1-2H3	InChI=1S/C6H10N2O/c1-8(2)5-3-4-9-6(5)7/h3-4H,7H2,1-2H3
