15
gdb 66068	2.79179	1.28625	1.08258	0.4	68.79	-0.2669	-0.054	0.2129	1118.5919	0.109327	-457.705107	-457.696416	-457.695472	-457.738813	31.634	
O	 0.121208555	 1.4698494538	-0.3009762453	-0.455567
C	 0.0358832184	 0.113409959	-0.0820428241	 0.274719
C	-0.0797208914	-0.3766204494	 1.3823330715	-0.132347
O	-1.1746783154	-1.2507054793	 1.048120557	-0.267084
C	-1.3668385504	-0.6163987564	-0.2393752793	-0.2058
C	-2.5115311663	 0.269884349	-0.3059342905	 0.384215
C	-3.4616905315	 1.0028312008	-0.3664678005	-0.424143
C	 1.0959653092	-0.6298353467	-0.8628874545	 0.119602
O	 1.8518929243	-0.0530156293	-1.6055878993	-0.275085
H	 0.7991244882	 1.5909928781	-0.9865219408	 0.298306
H	 0.7664477758	-0.9213336046	 1.8149624537	 0.114415
H	-0.3794308165	 0.4421392123	 2.0468218942	 0.131815
H	-1.4237675161	-1.3706122383	-1.0340720107	 0.112525
H	-4.3016572076	 1.6510391094	-0.4183785712	 0.206566
H	 1.1299049243	-1.7279357785	-0.7180645602	 0.117865
61.6452	123.3248	125.882	206.5681	290.3619	295.9255	361.9198	365.5617	466.0336	514.8594	543.6591	603.1642	631.3994	683.2192	820.4393	845.166	876.7333	913.8818	971.269	1015.578	1053.3734	1084.0821	1115.5467	1158.7528	1223.8023	1294.3344	1333.5485	1357.0273	1384.5898	1444.0783	1513.2891	1813.6364	2236.536	2945.2316	3025.1362	3030.3653	3084.0009	3501.6633	3673.3155
OC1(COC1C#C)C=O	O[C@]1(CO[C@H]1C#C)C=O	
InChI=1S/C6H6O3/c1-2-5-6(8,3-7)4-9-5/h1,3,5,8H,4H2	InChI=1S/C6H6O3/c1-2-5-6(8,3-7)4-9-5/h1,3,5,8H,4H2/t5-,6-/m0/s1
