14
gdb 27451	2.59424	1.75685	1.18713	6.9379	72.5	-0.2448	-0.0827	0.1621	1000.0183	0.10299	-432.911927	-432.904613	-432.903669	-432.943601	27.989	
N	 0.0354470307	 1.3386619572	 0.2227363327	-0.54239
C	-0.0544665873	-0.0132201956	-0.0035705045	 0.351013
N	-1.1972043176	-0.593808697	 0.1481044869	-0.312656
C	-1.3712236126	-1.9143022853	-0.2528679764	 0.340592
O	-2.1519537607	-2.2601460864	-1.1007089324	-0.304536
N	-0.6625758025	-2.8776946409	 0.5097315321	-0.206054
C	 0.6131647379	-2.9141173032	 0.421931063	-0.009041
C	 1.4803370705	-1.9584846963	-0.2595461792	-0.086701
C	 1.1883325133	-0.6556403272	-0.4506303506	-0.124718
H	 0.924083204	 1.7273168929	 0.4921846195	 0.260821
H	-0.7766755771	 1.7562478356	 0.6518814536	 0.269493
H	 1.1237256004	-3.7328542851	 0.9358187805	 0.123702
H	 2.4715921259	-2.3126022857	-0.5307469545	 0.121749
H	 1.9466534952	-0.0026311231	-0.8751841508	 0.118726
123.8313	152.9381	260.2239	327.5324	375.3758	404.9078	450.7746	476.8703	542.3425	573.8452	652.4581	706.8295	738.9332	813.5828	863.9386	886.1706	956.3705	964.3027	995.3149	1016.8642	1097.7523	1215.6313	1258.6333	1337.4891	1415.0109	1460.9005	1601.6207	1626.3627	1674.1464	1701.9968	1817.6811	3093.1908	3154.6056	3175.0068	3585.5411	3708.3244
NC1=NC(=O)N=CC=C1	Nc1nc(=O)nccc1	
InChI=1S/C5H5N3O/c6-4-2-1-3-7-5(9)8-4/h1-3H,(H2,6,8,9)	InChI=1S/C5H5N3O/c6-4-2-1-3-7-5(9)8-4/h1-3H,(H2,6,8,9)
