12
gdb 130744	3.21289	1.27292	1.02165	3.5631	59.92	-0.269	-0.0248	0.2442	1089.1418	0.078525	-468.841463	-468.83404	-468.833096	-468.874683	25.665	
O	-0.0575502751	-0.015352681	 0.3869174984	-0.385983
C	-0.0156168822	 1.1617052258	 0.1808407378	 0.511256
O	-1.1164399046	 2.018357642	 0.106956391	-0.196586
C	-0.6129201879	 3.2520233867	-0.1367754356	 0.112804
N	 0.664624457	 3.3121222795	-0.2257976073	-0.221135
N	 1.0528811715	 2.0015221726	-0.0213611036	-0.092667
C	 2.4338830901	 1.5923269338	-0.0767893188	-0.29103
C	 2.9943176667	 1.6384512151	-1.4352909761	 0.281419
N	 3.4468127407	 1.67491507	-2.4964989579	-0.285822
H	-1.300995346	 4.0758038779	-0.2342445568	 0.184305
H	 3.0356747458	 2.2259550312	 0.5820158203	 0.182333
H	 2.4691695641	 0.5651962961	 0.2988128286	 0.201106
46.9844	75.91	224.9414	258.5067	272.6483	368.7614	459.7495	570.3164	639.0184	723.2437	748.2441	803.7049	854.3607	923.5232	934.4913	956.7788	1009.8776	1124.6554	1204.08	1301.0236	1334.4648	1385.2374	1407.1158	1449.8706	1640.0517	1908.0525	2372.962	3063.2628	3114.9262	3291.781
O=C1OC=NN1CC#N	O=c1ocnn1CC#N	
InChI=1S/C4H3N3O2/c5-1-2-7-4(8)9-3-6-7/h3H,2H2	InChI=1S/C4H3N3O2/c5-1-2-7-4(8)9-3-6-7/h3H,2H2
