15
gdb 62332	4.17182	1.30138	1.15446	2.7972	70.37	-0.249	0.0015	0.2505	1034.4434	0.112157	-416.709199	-416.701708	-416.700763	-416.740933	29.151	
O	 0.0879012987	 1.4607519265	 0.1595970921	-0.443453
C	-0.0316424048	 0.0778345108	 0.0018659375	 0.224846
C	 1.0327696841	-0.6482845787	 0.682049198	 0.241787
N	 1.9114770057	-1.1905800964	 1.2030306258	-0.331412
C	-1.3386204673	-0.6629871145	 0.0577443062	-0.116355
C	-2.4565625628	-0.0672300219	-0.8155829987	-0.054151
C	-2.1211680987	 1.1323588502	-1.6098956254	-0.249491
N	-1.6355790433	-0.1942561067	-2.0708463218	-0.154982
C	-0.5065302136	-0.7101619206	-1.2215104879	-0.071339
H	 0.9076882464	 1.7409092549	-0.2665938741	 0.300034
H	-1.5216399805	-1.4258165459	 0.80266315	 0.124751
H	-3.4560554022	-0.4869085777	-0.7750030158	 0.116353
H	-2.9103990816	 1.4908576661	-2.2651184459	 0.127442
H	-1.4377272959	 1.8807704077	-1.2425076684	 0.154711
H	 0.1102346058	-1.4923547638	-1.6464148515	 0.131261
122.5123	154.324	233.6848	290.287	332.8024	379.3285	465.9246	512.9189	578.7498	596.4003	675.0325	697.4722	760.0871	795.0541	844.5022	905.7196	949.6404	978.9846	1015.8545	1017.6443	1060.0958	1083.9331	1096.8903	1122.0825	1149.762	1227.3387	1257.0795	1265.5693	1298.6016	1352.8094	1407.5412	1490.7612	2346.8091	3137.976	3169.0336	3191.2576	3206.9277	3277.0677	3782.6743
OC1(C#N)C2C3CN3C12	O[C@@]1(C#N)[C@H]2[C@H]3CN3[C@@H]12	
InChI=1S/C6H6N2O/c7-2-6(9)4-3-1-8(3)5(4)6/h3-5,9H,1H2	InChI=1S/C6H6N2O/c7-2-6(9)4-3-1-8(3)5(4)6/h3-5,9H,1H2/t3-,4+,5-,6+,8?/m1/s1
