19
gdb 74278	2.70061	1.2513	1.0443	3.803	79.43	-0.2388	-0.0433	0.1954	1227.257	0.156997	-423.074603	-423.065103	-423.064159	-423.108977	35.33	
C	 0.0312054557	 1.5348780305	 0.0031999712	-0.493081
C	-0.0314162679	 0.0430903248	-0.0042059974	 0.20128
C	-1.0921456513	-0.7724851082	 0.0219517043	-0.206185
C	-0.7469888381	-2.2530218645	 0.0154022753	 0.35286
C	-1.2346351512	-2.9553140111	 1.288231572	-0.440531
O	-1.2933780127	-2.8994177062	-1.1408627468	-0.465188
C	 0.7871976891	-2.2515525531	-0.1312202804	-0.372775
C	 1.2092362562	-0.7828097766	-0.0373489419	 0.326771
O	 2.3416074349	-0.3610021268	 0.0058575526	-0.326054
H	 0.655178945	 1.8857193172	 0.8320800067	 0.145707
H	 0.5048065801	 1.9042304828	-0.9131499005	 0.145041
H	-0.9605578554	 1.9850688356	 0.0900134387	 0.120684
H	-2.1297102458	-0.4479592908	 0.0516527854	 0.099636
H	-2.3220305189	-2.857430607	 1.3945076701	 0.105662
H	-0.9883486264	-4.0201845768	 1.2428048895	 0.131157
H	-0.7737048656	-2.5233490873	 2.1817178922	 0.125708
H	-2.2520799267	-2.9214022867	-1.044503932	 0.275784
H	 1.306077316	-2.8507377243	 0.6210597062	 0.124492
H	 1.060230763	-2.6439266113	-1.1146899553	 0.149031
56.163	95.9202	131.929	242.0642	267.6257	280.4057	322.2913	332.6842	354.0869	360.6445	458.6243	539.3512	577.9863	609.59	636.7142	757.0659	833.1939	896.3864	908.1075	948.8426	970.3614	998.0785	1057.8553	1075.2092	1085.0054	1113.7958	1174.8282	1221.4504	1230.4912	1298.1682	1337.357	1378.8325	1402.5304	1413.4853	1446.8912	1472.5062	1482.9544	1492.2182	1493.0061	1704.3249	1813.4955	3025.2169	3037.8605	3070.9037	3092.4025	3094.2696	3118.0321	3118.4425	3123.9606	3160.8601	3799.3424
CC1=CC(C)(O)CC1=O	CC1=C[C@@](C)(O)CC1=O	
InChI=1S/C7H10O2/c1-5-3-7(2,9)4-6(5)8/h3,9H,4H2,1-2H3	InChI=1S/C7H10O2/c1-5-3-7(2,9)4-6(5)8/h3,9H,4H2,1-2H3/t7-/m1/s1
