15
gdb 130417	2.97576	1.35526	0.94097	2.6387	72.16	-0.2496	-0.0902	0.1594	1179.6673	0.114242	-446.271675	-446.263506	-446.262562	-446.305194	29.407	
N	-0.1148497443	 1.4124738786	-0.2162788212	-0.492381
C	 0.0135406406	-0.0112120423	 0.0178293045	-0.234584
C	 0.8435532188	-0.4420431866	 1.2080578828	 0.354621
N	 1.4021973366	 0.4353898462	 1.9662762986	-0.28636
C	 2.1534934429	-0.0155788762	 3.0459010863	 0.441568
N	 2.736044845	 0.7866261482	 3.8406855199	-0.522054
N	 2.1871578769	-1.4267980532	 3.1453845953	-0.263814
N	 1.586995724	-2.2938005691	 2.3280366662	-0.020972
N	 0.9106071169	-1.8423628067	 1.3543907092	-0.236446
H	-0.5017395265	 1.8545516332	 0.6133485283	 0.239332
H	 0.8110876366	 1.8203524521	-0.3146293305	 0.239328
H	-0.9801091965	-0.4641677424	 0.1352388991	 0.144396
H	 0.439447353	-0.5011434379	-0.8680935544	 0.144396
H	 3.2434761111	 0.295411656	 4.5767162543	 0.211742
H	 2.7023923748	-1.8745332798	 3.8908583017	 0.281226
60.8142	101.7303	155.5115	183.6431	231.6462	389.004	404.5421	472.6309	580.5395	594.6652	624.3412	679.2463	748.1855	780.8232	822.37	911.5689	917.7413	971.6638	993.9723	1089.93	1109.2679	1153.9196	1180.9368	1238.9523	1276.0972	1380.6032	1384.984	1406.8573	1447.0164	1547.7902	1665.2891	1678.6124	1741.089	3026.125	3054.7109	3484.3382	3493.922	3559.9125	3601.2904
NCC1=NC(=N)NN=N1	NCc1nc([NH])[nH]nn1	
InChI=1S/C3H6N6/c4-1-2-6-3(5)8-9-7-2/h1,4H2,(H2,5,6,7,8)	InChI=1S/C3H11N6/c4-1-2-6-3(5)8-9-7-2/h2-3,5-9H,1,4H2
