17
gdb 133777	3.11992	0.99539	0.91929	2.8914	61.92	-0.2683	0.0603	0.3286	1306.0487	0.132034	-549.496316	-549.487278	-549.486333	-549.531296	32.458	
C	-0.2552905726	 1.6070984629	 0.276120098	-0.381753
C	 0.1770905522	 0.1948446861	-0.1333734372	-0.197302
C	 0.9262438527	-0.5006016499	 0.982001015	 0.010682
N	 0.1389289076	-1.1321680241	 2.05332623	-0.32425
C	 0.991304898	-1.969693845	 1.2108202168	-0.213977
C	 0.3087407343	-3.0088277073	 0.3564715573	 0.306734
F	-0.9229858793	-2.6641074114	-0.0264574021	-0.065359
F	 1.0311000677	-3.2497666503	-0.7524487736	-0.082052
F	 0.2121205197	-4.171433978	 1.0240543243	-0.080434
H	 0.607396773	 2.2307751044	 0.5369424985	 0.110109
H	-0.7911773905	 2.1046665228	-0.5372878629	 0.116945
H	-0.918620855	 1.569204649	 1.1457622499	 0.130583
H	-0.6962172591	-0.3971565488	-0.4112348022	 0.123985
H	 0.828978453	 0.2412032283	-1.0148673565	 0.103786
H	 1.8300958073	 0.0250914681	 1.294063487	 0.089835
H	 0.5621240337	-0.9982938672	 2.9667712699	 0.241603
H	 1.9164765572	-2.3681807497	 1.6218123578	 0.110865
37.124	76.4268	137.3484	190.7737	234.6855	252.9166	300.4931	389.1862	458.2584	499.2869	527.5702	612.6299	681.2286	767.6889	788.2014	839.364	900.9394	943.4397	967.2271	1039.9419	1050.9155	1096.073	1136.6205	1165.0315	1185.1523	1203.8719	1237.4745	1266.3938	1305.3223	1318.8293	1353.6246	1408.21	1438.7192	1483.2552	1496.604	1498.8401	1508.9062	3032.9342	3036.8576	3091.1112	3095.3042	3113.7282	3131.5998	3137.4935	3518.7068
CCC1NC1C(F)(F)F	CC[C@H]1N[C@H]1C(F)(F)F	
InChI=1S/C5H8F3N/c1-2-3-4(9-3)5(6,7)8/h3-4,9H,2H2,1H3	InChI=1S/C5H8F3N/c1-2-3-4(9-3)5(6,7)8/h3-4,9H,2H2,1H3/t3-,4-/m1/s1
