18
gdb 106862	2.50926	1.27879	1.0119	3.8267	77.96	-0.2651	0.0131	0.2782	1207.4914	0.147938	-401.934488	-401.925787	-401.924843	-401.968146	32.386	
O	 0.1697600664	 1.3558044073	 0.2001593328	-0.407118
C	 0.0650399266	-0.0270282566	-0.1084758867	-0.172291
C	-1.3604454763	-0.4999887321	-0.098240819	 0.271191
C	-2.0455367207	-0.9809529988	 1.1474045554	-0.370574
C	-1.9039071534	-1.9507459586	-0.0077906821	 0.162498
C	-2.9545180185	-1.6355780435	-1.0877953069	-0.287506
C	-2.4111024908	-0.1732090817	-1.1698499053	-0.27625
C	-1.1824081485	-3.1739849295	 0.1152122414	 0.192676
N	-0.5961266901	-4.1694358758	 0.1987028763	-0.354095
H	-0.1659184969	 1.4823350315	 1.0939523802	 0.285325
H	 0.4922944811	-0.1349563192	-1.1109164956	 0.120732
H	 0.667803011	-0.6475536305	 0.5728098782	 0.103196
H	-1.3980474295	-1.1864747405	 1.9941082974	 0.135458
H	-3.0395595669	-0.6279600424	 1.4119550677	 0.122794
H	-2.7893224421	-2.1965452106	-2.0082966186	 0.130148
H	-3.993397675	-1.7671466436	-0.7730891487	 0.113321
H	-3.1100010349	 0.6279830993	-0.9156214471	 0.110552
H	-1.9631556817	 0.0487979051	-2.1403721994	 0.119941
75.5401	97.5873	155.7163	194.7099	273.7505	293.4508	371.1183	388.0836	415.8741	523.3323	566.7993	626.6176	729.3743	761.8366	788.7625	849.2799	938.8319	946.9139	949.6447	987.3224	1014.4454	1059.1514	1091.3074	1120.4262	1126.0428	1186.534	1213.7261	1245.2335	1249.5081	1286.9625	1328.3739	1364.7423	1402.6248	1425.78	1482.9693	1483.9039	1497.8854	1513.4862	2340.3504	2986.7978	3062.2109	3068.5608	3074.9527	3110.7665	3114.8208	3135.2266	3205.7439	3810.1739
OCC12CC1(CC2)C#N	OC[C@]12C[C@]1(CC2)C#N	
InChI=1S/C7H9NO/c8-4-6-1-2-7(6,3-6)5-9/h9H,1-3,5H2	InChI=1S/C7H9NO/c8-4-6-1-2-7(6,3-6)5-9/h9H,1-3,5H2/t6-,7+/m1/s1
