20
gdb 33462	2.48945	1.29733	1.06911	4.0031	83.48	-0.2782	0.0357	0.3139	1225.1691	0.171832	-366.008959	-366.000305	-365.999361	-366.04261	32.819	
N	 0.3151029058	-1.114917384	-0.0713240945	-0.363565
C	 0.2079157999	 0.0366296389	-0.0241892407	 0.238488
C	 0.0536260395	 1.4706699498	 0.0185184257	 0.178142
C	 0.4211386232	 2.1528813565	 1.331075592	-0.296407
C	 1.3344235317	 2.2862830299	 0.1512590874	-0.29641
C	-1.0930752388	 2.0219614925	-0.8068328358	-0.02719
C	-1.2091929206	 1.6556225262	-2.3144571945	-0.243073
C	-2.7509131528	 1.6042138841	-2.1372874494	-0.209501
C	-2.5310802869	 1.4627638464	-0.60672691	-0.243069
H	-0.1899982462	 3.0024569818	 1.6149182325	 0.12872
H	 0.7350915193	 1.5239906238	 2.1553058554	 0.140605
H	 2.2748686161	 1.7489127505	 0.1661560336	 0.140603
H	 1.3579664203	 3.2285758008	-0.3848047677	 0.128718
H	-1.095626842	 3.1107942348	-0.6858260281	 0.071294
H	-0.7923076406	 2.3579145439	-3.0400636274	 0.097692
H	-0.7967449631	 0.6613781157	-2.5096951411	 0.124721
H	-3.2223387897	 2.5570434008	-2.3945729612	 0.102395
H	-3.2893680935	 0.8015679776	-2.6447126659	 0.10543
H	-2.5049475719	 0.412170686	-0.3028898995	 0.124715
H	-3.1971776497	 2.0070660039	 0.0667448491	 0.097691
67.7558	104.5351	169.1339	171.1956	234.5708	267.3603	373.87	420.6318	553.7049	591.3066	597.3224	712.8721	776.123	782.0544	828.1151	890.5069	901.1198	934.8393	942.976	950.8373	968.2365	972.3192	1046.8557	1057.4821	1066.6083	1092.5563	1129.4852	1193.8959	1206.7216	1238.2609	1258.3101	1262.8025	1265.622	1287.2554	1289.2579	1318.2526	1391.9322	1468.8335	1477.106	1486.3117	1497.0911	1509.9171	2344.9147	3042.9073	3057.6459	3059.396	3063.3939	3105.7559	3112.4331	3125.6663	3142.6563	3146.0282	3227.6095	3241.3551
N#CC1(CC1)C1CCC1	N#CC1(CC1)C1CCC1	
InChI=1S/C8H11N/c9-6-8(4-5-8)7-2-1-3-7/h7H,1-5H2	InChI=1S/C8H11N/c9-6-8(4-5-8)7-2-1-3-7/h7H,1-5H2
