18
gdb 50540	2.96759	1.0899	0.83637	2.4054	74.48	-0.2466	0.0184	0.265	1340.5675	0.14734	-439.066926	-439.058204	-439.05726	-439.101741	30.684	
O	 0.1846330435	-0.178022342	 0.3782019626	-0.326449
C	 0.1354658352	 1.0344913276	 0.3725019838	 0.127534
N	 1.1247733831	 1.8377413287	-0.0827690822	-0.04507
C	 2.4977474797	 1.4954911178	-0.4615166565	-0.165534
C	 2.8270489113	 3.0158667083	-0.4547905384	-0.271112
C	 1.3655475013	 3.2852090722	 0.0257144988	 0.000172
C	 0.5023438673	 4.1369912554	-0.8702678967	 0.082356
C	-0.6416185831	 4.8995430812	-0.3529458438	-0.182671
O	 0.5968273564	 5.544507949	-0.655204659	-0.228808
H	-0.7392079135	 1.6151296004	 0.7325051435	 0.067017
H	 3.013827916	 0.8960489501	 0.2949869165	 0.128445
H	 2.5776403873	 0.9860924499	-1.4261824515	 0.12701
H	 3.6009329794	 3.3242007986	 0.2471701478	 0.125147
H	 3.0480037839	 3.4356426501	-1.4372901124	 0.123551
H	 1.3029641648	 3.666752853	 1.0522575729	 0.093979
H	 0.4900565244	 3.8341971901	-1.9190125698	 0.100366
H	-1.4703353442	 5.1421333699	-1.0157868255	 0.125208
H	-0.8915063229	 4.8438468496	 0.7059393097	 0.11886
53.0146	67.1327	92.5443	176.7242	216.3208	306.5944	317.6893	364.3698	415.2753	607.0237	762.7009	800.3304	832.6985	870.917	923.2732	931.1712	956.4267	971.479	1034.9588	1054.4999	1103.1981	1149.9264	1155.8262	1168.8186	1178.4066	1192.4771	1216.6145	1257.4416	1264.0672	1286.0654	1317.024	1320.2373	1392.8144	1438.6389	1452.9286	1490.1078	1523.637	1527.3323	1792.4309	2918.7197	3029.8015	3049.6019	3085.0918	3090.3971	3094.0297	3098.1808	3151.1872	3174.5506
O=CN1CCC1C1CO1	O=CN1CC[C@H]1[C@H]1CO1	
InChI=1S/C6H9NO2/c8-4-7-2-1-5(7)6-3-9-6/h4-6H,1-3H2	InChI=1S/C6H9NO2/c8-4-7-2-1-5(7)6-3-9-6/h4-6H,1-3H2/t5-,6+/m0/s1
