19
gdb 75006	4.09987	1.21868	1.01196	1.9638	84.36	-0.2285	0.0187	0.2472	1207.5176	0.160318	-385.902019	-385.894206	-385.893262	-385.934242	30.454	
C	 0.0574362076	 1.4760071888	 0.0679945942	-0.487721
C	 0.0413916113	-0.0171580921	-0.009525466	 0.329727
C	-0.023115367	-0.7732421647	-1.114401962	-0.224495
C	-0.1376553653	-2.2387379126	-0.7638205265	 0.065152
O	 0.7059437621	-3.180212491	-1.4232713962	-0.285027
C	 1.2871685994	-4.019226846	-0.419002614	-0.110456
C	 1.1559745473	-3.2421159541	 0.8751511092	-0.247506
C	 0.3328327679	-2.2229211463	 0.6723785473	 0.293018
C	 0.0656596719	-0.870923065	 1.264915462	-0.418144
H	 0.9540449035	 1.834067611	 0.5900078613	 0.127475
H	 0.0358429148	 1.9311273836	-0.9257714289	 0.127067
H	-0.8033760232	 1.8536443701	 0.6349249075	 0.12637
H	-0.0840362711	-0.392628556	-2.1276915424	 0.094963
H	-1.1877860763	-2.5705366001	-0.8757651472	 0.07319
H	 0.7738992296	-4.9960267708	-0.3869226485	 0.096795
H	 2.3358010181	-4.2105223502	-0.6826109979	 0.109805
H	 1.7348274458	-3.4653629934	 1.7625362829	 0.099759
H	 0.8292972693	-0.5491566547	 1.9823407221	 0.113828
H	-0.9016320058	-0.8090304765	 1.786151133	 0.116199
102.9815	160.4631	197.8848	247.9222	280.9389	368.3875	411.8952	466.1715	549.6239	649.7928	715.9712	765.4201	801.306	831.542	854.4384	900.9973	931.6641	962.594	988.4282	1001.079	1031.7421	1044.1312	1056.6469	1088.7054	1146.5188	1175.6346	1191.621	1200.5456	1256.452	1278.1052	1305.6806	1332.6907	1348.5494	1372.6643	1413.075	1474.7967	1478.6339	1486.2424	1515.3294	1695.3225	1750.902	2906.0353	2951.1086	2995.0312	3016.5182	3027.6889	3055.8767	3062.4348	3112.5687	3197.6922	3212.8907
CC1=CC2OCC=C2C1	CC1=C[C@H]2OC[CH][C]2C1	
InChI=1S/C8H10O/c1-6-4-7-2-3-9-8(7)5-6/h2,5,8H,3-4H2,1H3	InChI=1S/C8H10O/c1-6-4-7-2-3-9-8(7)5-6/h2,5,8H,3-4H2,1H3/t8-/m1/s1
