19
gdb 41916	2.24924	2.17536	1.85677	1.994	72.26	-0.2295	0.0702	0.2997	883.5148	0.163595	-423.022051	-423.015367	-423.014423	-423.053036	27.573	
C	-0.0126872904	 1.5148688965	-0.2111709521	-0.239662
C	 1.3790982436	 2.1458957209	 0.0412961953	-0.230646
C	 2.298174951	 1.2814215609	 0.9156126043	 0.167743
O	 1.9106912365	 1.1801143445	 2.2628625243	-0.261849
C	 0.6687847121	 0.5183939007	 2.5104898159	-0.083777
C	 0.2821253366	-0.491666036	 1.4444919955	-0.125377
C	-0.0392685245	 0.0143269513	 0.0385619249	-0.086809
C	 1.2497892466	-0.7126279525	 0.3139218752	 0.104627
O	 2.4562659032	 0.0006876416	 0.3280685206	-0.252362
H	-0.769002843	 2.0001433867	 0.4176841606	 0.106536
H	-0.3119599552	 1.7125680572	-1.2448486426	 0.105061
H	 1.9047185517	 2.2754161436	-0.9099910134	 0.11224
H	 1.2858711367	 3.1362406919	 0.4960330232	 0.106894
H	 3.3017268223	 1.7124123987	 0.9469718087	 0.094241
H	 0.7950041081	 0.0095690267	 3.4714355373	 0.114168
H	-0.1278065594	 1.2681973616	 2.642101262	 0.094588
H	-0.2844242158	-1.3419406051	 1.8097915158	 0.089204
H	-0.8029547382	-0.5369910524	-0.5011724857	 0.083975
H	 1.410980258	-1.708856617	-0.0815421099	 0.101205
98.6451	206.2157	358.2149	362.6538	455.4744	489.7201	538.4179	607.5856	738.0294	752.5616	762.01	781.6833	844.6242	878.0903	885.2384	912.6849	947.287	1008.6579	1037.2209	1044.2757	1063.1175	1081.5167	1109.9047	1128.6455	1132.7963	1181.8624	1219.7091	1238.7203	1265.9836	1273.8567	1325.1253	1343.4759	1355.2331	1374.277	1382.942	1396.3225	1421.6789	1455.6496	1476.4484	1498.9854	1519.9036	2968.4669	3027.9046	3049.6626	3064.7302	3070.5489	3089.578	3098.6434	3148.4727	3157.7125	3178.7043
C1CC2OCC3C1C3O2	C1C[C@H]2OC[C@H]3[C@@H]1[C@H]3O2	
InChI=1S/C7H10O2/c1-2-6-8-3-5-4(1)7(5)9-6/h4-7H,1-3H2	InChI=1S/C7H10O2/c1-2-6-8-3-5-4(1)7(5)9-6/h4-7H,1-3H2/t4-,5+,6+,7-/m1/s1
