16
gdb 117612	2.32743	1.22753	1.04264	4.6304	70.1	-0.2804	-0.0225	0.2578	1207.1313	0.12241	-434.053603	-434.043533	-434.042589	-434.089019	34.524	
C	 0.2307260756	 0.9325236887	 0.4162170383	-0.260718
O	-0.2423632074	 0.0630884995	-0.6091446982	-0.245032
C	-1.4468119324	-0.5973033762	-0.3339879062	-0.092095
C	-1.1601756173	-2.1202529979	-0.0703290959	-0.089713
N	-0.3503803505	-2.7407251639	-1.1229183033	-0.513363
C	-0.4368099834	-2.2560154686	 1.2153004258	 0.347227
N	 0.1350527061	-2.3114131173	 2.216669769	-0.329854
C	-2.455541784	-2.8165492634	 0.0323319932	 0.309367
N	-3.5014153083	-3.3035812565	 0.0713110958	-0.312492
H	 1.1588959924	 1.370271084	 0.0441273675	 0.142564
H	-0.490900608	 1.7368761624	 0.6100743561	 0.123458
H	 0.4349728586	 0.3950301095	 1.3484684343	 0.149663
H	-1.9850224356	-0.1584701019	 0.5146783279	 0.129558
H	-2.0888235147	-0.5456405813	-1.2215987624	 0.128135
H	-0.912474312	-2.8311368873	-1.9650121285	 0.252359
H	 0.4091652209	-2.0957013398	-1.3317371034	 0.260936
59.8785	102.5807	124.5417	134.4729	172.5696	192.4186	244.4611	270.7607	308.961	398.5465	420.6329	505.4118	530.7295	574.8656	611.9627	724.3763	872.3241	910.4604	982.5819	998.8116	1065.8467	1125.9752	1177.2417	1196.0568	1232.2031	1310.0478	1341.9541	1396.8713	1474.2333	1489.4654	1498.9347	1508.7287	1651.1475	2365.5795	2370.6182	3011.7497	3023.1872	3078.4591	3086.693	3136.3742	3479.8743	3569.1764
COCC(N)(C#N)C#N	COCC(N)(C#N)C#N	
InChI=1S/C5H7N3O/c1-9-4-5(8,2-6)3-7/h4,8H2,1H3	InChI=1S/C5H7N3O/c1-9-4-5(8,2-6)3-7/h4,8H2,1H3
