18
gdb 44628	2.98097	1.6613	1.50808	2.6161	75.28	-0.2592	0.0227	0.2819	949.9357	0.149888	-401.910859	-401.903966	-401.903022	-401.942247	27.95	
N	 0.3601600971	 0.9919911933	 0.422505935	-0.549567
C	 0.1134252802	-0.1672312403	 0.0132130968	 0.433798
O	 0.9317161256	-1.0744217617	-0.6503009117	-0.268838
C	-0.1679228708	-2.0335650262	-0.7755985884	 0.09513
C	-0.2471752907	-3.1005679779	 0.352375911	-0.047098
C	 0.8339661008	-3.0326692352	 1.4649830643	-0.235256
C	-0.075411507	-2.0656424325	 2.2914206619	-0.241676
C	-1.1598446223	-2.1332571476	 1.181105299	-0.026225
C	-1.0922960103	-1.0774638867	 0.016893457	-0.176457
H	 1.3241802523	 1.2613006699	 0.216794625	 0.227764
H	-0.3062292208	-2.3351845093	-1.8138084687	 0.092722
H	-0.5787837425	-4.0856536715	 0.0216777754	 0.070701
H	 1.0032693684	-3.9952209982	 1.9519167544	 0.102294
H	 1.7952897582	-2.6260644727	 1.1470955522	 0.118992
H	-0.4102306046	-2.4895263941	 3.2408853495	 0.100518
H	 0.3324635063	-1.0715100853	 2.4855020729	 0.125991
H	-2.1736012478	-2.3969713055	 1.4813219599	 0.076701
H	-2.0320623722	-0.6692214683	-0.3490222455	 0.100506
88.6466	162.9553	265.6771	345.1875	425.1732	504.4127	623.786	675.8979	720.169	731.294	777.7595	826.8399	848.2581	867.8324	884.1101	895.0626	913.5684	957.4815	966.7204	994.2972	1011.1304	1055.1296	1071.8585	1111.0434	1127.5663	1183.3367	1199.9665	1208.7275	1221.672	1245.1881	1254.6842	1272.3306	1287.1239	1303.8471	1313.0026	1341.5181	1475.4982	1492.7155	1815.5138	3067.4292	3075.0833	3095.4023	3108.1472	3115.4975	3116.7813	3135.3123	3141.5304	3471.1094
N=C1OC2C3CCC3C12	[NH][C]1O[C@H]2[C@H]3CC[C@H]3[C@@H]12	
InChI=1S/C7H9NO/c8-7-5-3-1-2-4(3)6(5)9-7/h3-6,8H,1-2H2	InChI=1S/C7H9NO/c8-7-5-3-1-2-4(3)6(5)9-7/h3-6,8H,1-2H2/t3-,4+,5-,6+/m1/s1
