13
gdb 5669	5.36215	2.24199	1.58097	5.1094	64.92	-0.1877	0.0338	0.2215	737.0968	0.099479	-357.681193	-357.675129	-357.674184	-357.711056	23.473	
N	-0.0531344912	 1.3648814333	 0.0101469235	-0.410388
C	 1.2686993342	 1.8278945786	-0.000122157	-0.075335
C	 2.1426189125	 0.7665431501	-0.0143195428	-0.287547
C	 1.3342934249	-0.4137169658	-0.0128828957	 0.279541
C	 0.0152869594	 0.0045999204	 0.0022522924	 0.397291
N	-0.7664785879	-1.1193992832	 0.0036676939	-0.409932
C	 0.1411640952	-2.177327415	-0.0109061011	-0.014218
N	 1.3935449675	-1.7961167308	-0.0210956945	-0.342202
H	-0.8702641427	 1.9471565724	 0.0219791768	 0.260786
H	 1.4580103631	 2.8891086689	 0.0037617138	 0.116406
H	 3.218453669	 0.8412388537	-0.0244130982	 0.099272
H	-1.7682552951	-1.1951725869	 0.0128911876	 0.262862
H	-0.2102495189	-3.1985753656	-0.0130106187	 0.123464
160.4998	245.1188	318.3686	374.8587	475.3041	601.0615	626.3794	682.9414	703.717	747.5572	755.1579	785.2025	824.5389	917.7304	963.961	1054.8662	1058.8823	1097.7506	1169.7406	1254.3283	1319.2589	1342.5897	1373.8052	1458.7241	1490.8351	1510.6828	1563.7976	1633.595	3249.3677	3254.1268	3273.8555	3681.4186	3696.0587
N1C=CC2=C1NC=N2	[nH]1ccc2c1[nH]cn2	
InChI=1S/C5H5N3/c1-2-6-5-4(1)7-3-8-5/h1-3,6H,(H,7,8)	InChI=1S/C5H5N3/c1-2-6-5-4(1)7-3-8-5/h1-3,6H,(H,7,8)
