15
gdb 26443	3.83372	1.1247	0.9834	1.7864	68.28	-0.2262	-0.0443	0.1819	1173.1459	0.113664	-453.989357	-453.981542	-453.980598	-454.022543	28.588	
O	-0.0702242488	 1.4264814632	 0.1549222234	-0.441489
C	 0.0034952961	 0.0285115434	 0.0571514871	-0.052159
C	 0.779724096	-0.3667662659	-1.1977773122	 0.134073
O	 1.1848639407	 0.4751922943	-1.9612274092	-0.258643
C	 0.6944816111	-0.5551583943	 1.2599537899	 0.313633
N	 0.8497896068	-1.8323913146	 1.5306721571	-0.319181
C	 1.5671833353	-1.8631722329	 2.7060207586	-0.091199
C	 1.8419471975	-0.591543693	 3.1375358805	-0.108916
N	 1.2811567506	 0.2385124007	 2.1930719589	-0.257186
H	 0.3523930057	 1.7574024493	-0.6562533596	 0.299407
H	-1.0000841668	-0.4210262865	-0.0290191396	 0.126307
H	 0.9521810604	-1.4478722967	-1.3421476758	 0.135485
H	 1.8411712013	-2.7967678991	 3.1729050168	 0.11104
H	 2.3591691299	-0.2081340968	 4.0007971138	 0.131664
H	 1.2488518842	 1.2446923289	 2.1745203401	 0.277165
54.7456	92.7021	179.2866	232.5197	315.4286	360.8953	453.3694	530.5336	602.9202	665.0464	674.7534	727.3997	747.8132	787.3417	859.0021	873.5754	934.077	996.8605	1028.9424	1086.9312	1135.0428	1148.3778	1182.731	1248.4616	1270.0798	1316.4474	1378.0441	1391.7821	1426.4701	1484.574	1499.2835	1575.1554	1810.8986	2968.2986	2994.5944	3252.0496	3284.9521	3655.0296	3666.1184
OC(C=O)C1=NC=CN1	O[C@@H](C=O)c1ncc[nH]1	
InChI=1S/C5H6N2O2/c8-3-4(9)5-6-1-2-7-5/h1-4,9H,(H,6,7)	InChI=1S/C5H6N2O2/c8-3-4(9)5-6-1-2-7-5/h1-4,9H,(H,6,7)/t4-/m0/s1
