22
gdb 99751	1.84252	1.39433	0.96951	3.3009	78.65	-0.2127	-0.0255	0.1873	1332.4837	0.19099	-441.483152	-441.472115	-441.471171	-441.519508	39.402	
C	 0.7647707867	 0.2821533894	 0.8719737346	-0.331556
N	-0.2693719132	 0.1831518362	-0.1502566578	-0.062685
C	 0.2821030594	 0.2438438472	-1.494637878	-0.324052
C	-1.234626355	-0.8921750603	 0.0601898877	-0.103718
C	-0.6625906809	-2.3143814541	 0.2574596272	-0.078895
O	-1.6655144387	-3.3023525617	 0.147364699	-0.424666
C	-2.220245693	-0.531856416	 1.1869549693	 0.378656
C	-2.6682181169	 0.9096721637	 1.291811852	-0.462417
O	-2.6513518124	-1.3863601302	 1.9359247736	-0.3202
H	 1.2768392228	 1.2458941387	 0.7771792516	 0.12124
H	 0.3178584089	 0.2370006655	 1.8703359298	 0.123101
H	 1.5316653221	-0.5092431962	 0.8114287309	 0.108169
H	 0.9565372998	-0.5949578525	-1.7439207876	 0.103131
H	-0.5284972856	 0.2570951781	-2.2294177282	 0.121652
H	 0.855508824	 1.1702306863	-1.607984281	 0.119922
H	-1.8648132001	-0.9376432697	-0.8411219882	 0.110796
H	 0.0733535362	-2.5192596158	-0.527143061	 0.105294
H	-0.1417663348	-2.3757241511	 1.224373074	 0.09219
H	-2.2595503157	-3.1364002372	 0.8915032959	 0.293821
H	-2.9218490914	 1.3083887848	 0.3051609009	 0.140535
H	-3.5228932067	 0.9739955489	 1.9665992368	 0.136825
H	-1.8525563754	 1.5321848361	 1.6713742484	 0.152855
52.0078	95.2218	97.3365	139.0236	184.6593	198.8192	236.6497	252.0326	257.5064	315.044	378.4065	401.7593	457.8551	479.2763	553.3092	580.5498	625.2848	746.8691	875.3756	949.2985	961.7235	1044.8441	1060.3827	1072.3653	1086.3565	1096.7549	1122.1463	1182.9218	1199.1192	1201.7923	1223.3159	1313.458	1318.6598	1357.8169	1385.2352	1394.3015	1441.9815	1447.8752	1451.0636	1466.2898	1473.9285	1478.9568	1495.6762	1498.4071	1508.8181	1523.6898	1784.1517	2944.9178	2958.6095	2993.4645	3006.0284	3052.0632	3053.1771	3055.6424	3071.9119	3096.8217	3102.4956	3116.4007	3154.0517	3760.9098
CN(C)C(CO)C(C)=O	CN(C)[C@@H](CO)C(=O)C	
InChI=1S/C6H13NO2/c1-5(9)6(4-8)7(2)3/h6,8H,4H2,1-3H3	InChI=1S/C6H13NO2/c1-5(9)6(4-8)7(2)3/h6,8H,4H2,1-3H3/t6-/m0/s1
