18
gdb 71706	2.31072	2.1255	1.7653	2.2017	73.95	-0.2121	0.0664	0.2785	891.5502	0.147642	-401.857335	-401.849969	-401.849024	-401.888514	30.244	
C	-0.0255951483	 1.530029243	-0.006659572	-0.527423
C	 0.0813796215	 0.0400952558	-0.02118988	 0.292551
C	 0.667064788	-0.8953284232	-1.1124505765	-0.18264
C	-0.4300660302	-1.8305302749	-0.7090723316	-0.00915
C	 0.9202268419	-1.9097510069	-0.0032627781	-0.180659
C	 0.6168900384	-0.9008078519	 1.1393622233	 0.344771
O	 1.5588882523	-0.5967828551	 2.1082065761	-0.477121
C	-0.8449514199	-1.1437369872	 1.5267003232	-0.221166
N	-1.2002882328	-0.8277815604	 0.0940076619	-0.192494
H	 0.9689588856	 1.9900736719	-0.0048556664	 0.118652
H	-0.5710407498	 1.8914176479	-0.8847254405	 0.130615
H	-0.5569634453	 1.8724336343	 0.8874388147	 0.130988
H	 1.1507122195	-0.7272669174	-2.0653627796	 0.093893
H	-0.9014936484	-2.6447274739	-1.2448109653	 0.093217
H	 1.5517829895	-2.7887870438	 0.0074990967	 0.088525
H	 2.4288323348	-0.5684551889	 1.6951949891	 0.285384
H	-1.1464080359	-2.134509895	 1.878189574	 0.101014
H	-1.2461353111	-0.3690470842	 2.1859677009	 0.111043
175.7886	195.1952	247.0785	289.47	323.1005	377.0661	460.6391	575.0409	612.757	638.9371	732.5083	773.1425	788.713	820.1966	821.7	847.2471	885.5651	906.4202	955.9334	979.4939	1002.2076	1039.3635	1042.9449	1057.8943	1099.6797	1112.5333	1151.5431	1173.4938	1196.7014	1225.6155	1245.1898	1320.4732	1329.5487	1344.0751	1383.7842	1414.3273	1478.3379	1485.1074	1501.8991	3029.0501	3056.1414	3096.6595	3103.2583	3116.6865	3187.081	3194.5501	3209.0523	3804.1892
CC12C3C4C3C1(O)CN24	C[C@@]12[C@@H]3[C@H]4[C@@H]3[C@]1(O)CN24	
InChI=1S/C7H9NO/c1-6-3-4-5(3)8(6)2-7(4,6)9/h3-5,9H,2H2,1H3	InChI=1S/C7H9NO/c1-6-3-4-5(3)8(6)2-7(4,6)9/h3-5,9H,2H2,1H3/t3-,4+,5-,6+,7+/m0/s1
