19
gdb 88581	3.60636	1.14157	1.04078	2.4842	79.12	-0.2281	0.0126	0.2407	1225.7587	0.16041	-419.19056	-419.182001	-419.181057	-419.22447	31.146	
C	 0.3715052016	 1.5257040361	-0.4903497446	-0.322753
N	 0.0762701101	 0.1610869695	-0.0673232232	-0.086181
C	 1.1638198035	-0.7881719242	 0.0411111804	-0.252224
C	 0.4537052279	-0.3121196918	 1.2723817866	-0.084823
C	 1.1563110296	 0.5134302662	 2.2776471678	 0.414638
N	 0.7916590838	 0.6167010722	 3.4919754736	-0.321378
C	 1.7739520534	 1.4820433585	 4.1572416651	-0.186432
C	 2.7383768645	 1.9243705793	 3.0271208906	-0.115421
O	 2.2777377578	 1.1833385938	 1.8742044995	-0.259422
H	 1.3579228374	 1.8927329097	-0.1818471785	 0.126162
H	 0.3074762925	 1.5604029207	-1.582523793	 0.123523
H	-0.3946277928	 2.1952318174	-0.0866012506	 0.125067
H	 0.9693714813	-1.79012906	-0.3333407624	 0.118993
H	 2.1808630337	-0.4269614181	-0.1000023299	 0.126156
H	-0.2962848507	-0.9413380334	 1.740397459	 0.116539
H	 1.2697692715	 2.3295785631	 4.6324438377	 0.119036
H	 2.2841705201	 0.9235520213	 4.9501401937	 0.118117
H	 2.6769576079	 2.9920662632	 2.796149408	 0.119174
H	 3.7836408868	 1.6601916763	 3.2059286002	 0.121228
58.8377	89.8985	144.19	184.8835	205.9004	277.6395	352.4681	430.574	453.7002	648.5212	715.987	752.1611	780.2028	834.4626	882.1575	921.54	963.2065	969.4831	1004.362	1022.3998	1047.4265	1092.5915	1120.0455	1126.1579	1136.7429	1171.1405	1211.7601	1215.7134	1245.6149	1270.0187	1330.032	1333.7304	1379.3977	1404.1535	1449.8946	1491.0074	1502.4536	1505.7911	1509.2934	1527.244	1723.65	3019.3386	3038.1942	3053.7495	3069.8345	3088.2614	3096.049	3103.0661	3105.303	3167.0598	3184.6915
CN1CC1C1=NCCO1	CN1C[C@H]1C1=NCCO1	
InChI=1S/C6H10N2O/c1-8-4-5(8)6-7-2-3-9-6/h5H,2-4H2,1H3	InChI=1S/C6H10N2O/c1-8-4-5(8)6-7-2-3-9-6/h5H,2-4H2,1H3/t5-,8?/m0/s1
