17
gdb 54643	3.79086	1.02155	0.81681	0.6143	76.38	-0.2464	-0.0591	0.1873	1346.9453	0.133857	-421.883983	-421.875204	-421.87426	-421.918397	31.712	
C	-0.0027914813	 1.5006850176	 0.0094107517	-0.488551
C	 0.0330814784	-0.0158855761	 0.0031227417	 0.298915
O	 1.0812633404	-0.6291228297	-0.0062183088	-0.304312
C	-1.2770599347	-0.7289246495	 0.0112136262	 0.214016
C	-1.3669449866	-2.0685425708	 0.0080478921	-0.131579
C	-2.7796096822	-2.5638450495	 0.0175372006	-0.379738
C	-3.612406384	-1.2693224517	 0.027951085	 0.404013
O	-4.8111270741	-1.2004117689	 0.0375649442	-0.297315
C	-2.639303279	-0.0752647336	 0.0236654525	-0.45751
H	 1.0153108256	 1.8902807653	 0.0031901238	 0.143912
H	-0.5472815982	 1.8769414462	-0.86443688	 0.139575
H	-0.5338332036	 1.8699889575	 0.8944423736	 0.13964
H	-0.4972520025	-2.7145292749	-0.0005687949	 0.134029
H	-3.0361791667	-3.1746763991	-0.8580351135	 0.149605
H	-3.0225599494	-3.180025429	 0.8932414652	 0.149592
H	-2.8258827866	 0.5532171051	 0.9035678486	 0.142847
H	-2.8395340955	 0.5580075712	-0.8497841679	 0.14286
51.3274	67.0238	153.2769	171.6025	189.94	359.729	390.5905	408.1647	464.5377	512.6508	599.0609	607.7403	658.1611	782.5328	801.1946	847.3079	876.2928	955.6773	1004.0804	1009.9456	1043.9604	1064.2081	1128.29	1129.5976	1182.7359	1230.156	1277.1518	1290.0241	1341.3972	1382.1727	1429.2708	1442.4855	1461.7989	1474.6233	1659.334	1780.0379	1859.0913	3026.9517	3030.1199	3034.2078	3054.1644	3059.6773	3091.7253	3156.1971	3216.2801
CC(=O)C1=CCC(=O)C1	CC(=O)C1=CCC(=O)C1	
InChI=1S/C7H8O2/c1-5(8)6-2-3-7(9)4-6/h2H,3-4H2,1H3	InChI=1S/C7H8O2/c1-5(8)6-2-3-7(9)4-6/h2H,3-4H2,1H3
