25
gdb 59828	3.42658	0.59191	0.58431	0.1384	99.35	-0.2396	0.0586	0.2981	2139.1346	0.225984	-352.352808	-352.340901	-352.339957	-352.393149	42.595	
C	-0.1973827065	 1.4962810161	-1.0288567346	-0.37893
C	-0.0531403799	 0.2878393789	-0.0977799842	 0.05368
C	-1.418867521	-0.3143897978	 0.2520995477	-0.390592
C	 0.8652353265	-0.796887364	-0.713954604	-0.345379
C	 2.2367660811	-0.3538708464	-0.9440557932	-0.025513
C	 3.3682851181	 0.0250267248	-1.1165070493	 0.159501
C	 4.7383775793	 0.493753814	-1.3323762793	-0.12428
C	 4.9247512796	 1.032070921	-2.7648447116	-0.372225
C	 5.1360068342	 1.5505405962	-0.2825319848	-0.372034
H	 0.7796595322	 1.9171338618	-1.2816235687	 0.124487
H	-0.6930234045	 1.2097431249	-1.9647424682	 0.107887
H	-0.7996241543	 2.2823019661	-0.561757109	 0.107876
H	 0.4243582817	 0.6256760257	 0.8312089513	 0.081883
H	-1.9265878128	-0.6842774312	-0.6470456276	 0.111799
H	-1.3220339899	-1.1536728879	 0.9492123871	 0.10965
H	-2.0709196002	 0.4329514044	 0.7154145	 0.110759
H	 0.8733283404	-1.6739758455	-0.0531267881	 0.118628
H	 0.4230234704	-1.1380680056	-1.6612494163	 0.118488
H	 5.4120582353	-0.3663367767	-1.2096733914	 0.100954
H	 4.281619874	 1.9011130029	-2.9358314375	 0.121123
H	 5.9640154592	 1.3373426884	-2.9251224982	 0.10901
H	 4.6689253528	 0.2715014636	-3.5072071338	 0.121666
H	 5.0293638615	 1.1567329747	 0.7316442165	 0.121311
H	 6.1765956158	 1.8589003476	-0.4273380633	 0.109218
H	 4.500101747	 2.4371394441	-0.3696011594	 0.121034
2.7635	55.4598	65.7599	132.6421	186.85	229.1775	230.3177	254.1176	269.1768	292.0186	326.7678	341.7225	360.4453	416.6828	447.1659	534.799	562.9365	715.9703	815.4395	875.9536	889.7312	930.0985	932.7422	950.48	962.9338	968.8347	1067.6688	1119.9556	1126.2389	1139.5588	1149.2431	1191.5849	1208.4701	1256.5733	1309.4691	1326.6874	1350.1517	1366.3972	1368.6986	1393.9751	1400.0635	1416.0168	1419.8228	1469.9186	1485.4711	1488.3125	1489.3253	1493.9745	1497.7352	1503.4792	1510.3524	1510.7875	2358.763	3000.2227	3000.8842	3017.91	3023.078	3028.5556	3033.8786	3037.589	3037.9156	3087.5406	3093.4688	3100.2975	3104.0593	3109.5244	3114.6256	3117.2262	3119.1472
CC(C)CC#CC(C)C	CC(C)CC#CC(C)C	
InChI=1S/C9H16/c1-8(2)6-5-7-9(3)4/h8-9H,6H2,1-4H3	InChI=1S/C9H16/c1-8(2)6-5-7-9(3)4/h8-9H,6H2,1-4H3
