17
gdb 66062	2.39659	1.28907	1.20844	1.7219	74.75	-0.2488	-0.0358	0.213	1132.0809	0.132227	-421.782518	-421.773137	-421.772193	-421.817091	33.708	
C	-0.1009821867	 1.7110148102	-0.0788214835	-0.452604
C	 0.0275130437	 0.2026920481	-0.00095841	 0.314577
O	 1.1826432987	-0.297049724	-0.7292673846	-0.321875
C	 1.6918767822	-0.9715813983	 0.4427473693	-0.081231
C	 0.5186078051	-0.4609196063	 1.3234246197	-0.30382
C	 0.8585736956	 0.3983686269	 2.435779619	 0.327826
C	 1.1564103733	 1.1106986163	 3.3576258528	-0.452383
C	-1.1927127641	-0.4887166173	-0.5995613524	 0.136518
O	-1.9654460724	-1.1811767801	 0.0089578174	-0.24808
H	 0.8103205242	 2.1851626887	 0.2918827356	 0.143442
H	-0.261041274	 2.0205483662	-1.1167271218	 0.129258
H	-0.9451605343	 2.057516795	 0.5258062323	 0.139267
H	 1.7322512659	-2.0576149841	 0.3072073475	 0.11718
H	 2.6783447494	-0.5951086395	 0.7278195457	 0.120357
H	-0.1709492136	-1.2473567954	 1.6396070865	 0.135345
H	 1.4121236952	 1.7344330632	 4.1782514972	 0.201783
H	-1.2893148981	-0.3195235095	-1.6953272009	 0.09444
55.562	85.9331	141.069	171.8411	204.5018	253.3093	303.6997	326.9622	365.8696	501.3335	524.8726	571.1676	624.3368	643.4322	690.6063	786.0969	874.969	909.4305	928.1797	991.2605	1009.7338	1057.6558	1090.9819	1134.6429	1163.3897	1171.508	1224.4239	1258.5807	1335.8491	1372.853	1401.9431	1408.4895	1478.932	1484.6013	1521.6748	1832.8684	2237.1544	2890.4018	3038.5309	3041.184	3083.7471	3098.7643	3113.4108	3133.3797	3501.8715
CC1(OCC1C#C)C=O	C[C@]1(OC[C@H]1C#C)C=O	
InChI=1S/C7H8O2/c1-3-6-4-9-7(6,2)5-8/h1,5-6H,4H2,2H3	InChI=1S/C7H8O2/c1-3-6-4-9-7(6,2)5-8/h1,5-6H,4H2,2H3/t6-,7+/m1/s1
