15
gdb 125418	3.29733	1.4465	1.01226	0.6133	74.09	-0.2339	-0.0415	0.1924	1118.466	0.112881	-450.131705	-450.123349	-450.122405	-450.164897	30.74	
C	-0.0180206856	 1.4999744677	-0.0839166391	-0.466444
C	-0.0538157932	 0.0081304185	 0.0398937024	 0.4312
N	-1.1219945537	-0.672504677	-0.1884055963	-0.372233
C	-1.04284445	-2.0480530547	-0.0403031729	 0.302525
N	-1.9913667506	-2.8748581429	-0.263178292	-0.53829
C	 0.2638269047	-2.5927179499	 0.406019527	 0.417817
N	 0.3147745399	-3.9256468974	 0.6178552449	-0.549499
N	 1.3230487675	-1.8676575927	 0.6034117838	-0.226986
O	 1.1373459515	-0.4773740409	 0.4034825011	-0.245531
H	 0.7406602768	 1.8011387557	-0.812380771	 0.155205
H	-0.9973487326	 1.8577537873	-0.3985227585	 0.156245
H	 0.2521912411	 1.9519117378	 0.875255102	 0.155786
H	-2.8229023612	-2.3670261938	-0.5702976494	 0.228426
H	-0.4772632853	-4.4500222442	 0.279190939	 0.284518
H	 1.2054573306	-4.3729992635	 0.752164079	 0.267261
73.7453	88.5781	185.3279	269.2731	304.8128	323.6429	346.462	448.4662	495.2376	522.9684	552.2035	575.1101	627.6747	718.8467	795.8223	816.4817	901.1098	918.4161	997.4642	1039.6548	1063.1849	1141.2841	1155.0509	1275.0882	1348.4207	1404.904	1469.0207	1473.851	1485.5682	1593.8374	1646.6765	1661.9509	1707.2965	3054.415	3115.3343	3170.9584	3470.7901	3584.9263	3725.1762
CC1=NC(=N)C(N)=NO1	C[C]1N=C([NH])C(=NO1)N	
InChI=1S/C4H6N4O/c1-2-7-3(5)4(6)8-9-2/h5H,1H3,(H2,6,8)	InChI=1S/C4H6N4O/c1-2-7-3(5)4(6)8-9-2/h5H,1H3,(H2,6,8)
