23
gdb 102588	2.13552	1.19759	0.83997	3.4212	81.75	-0.2449	0.0699	0.3148	1452.0021	0.205414	-425.409872	-425.399765	-425.398821	-425.445613	36.822	
C	-0.4529621592	 1.6563187408	-0.5036192431	-0.389555
C	-0.1939538483	 0.1761736293	-0.2029536588	-0.189824
C	 0.7809875318	-0.5087238644	-1.1799419517	-0.024775
C	 2.2440295219	-0.0856236917	-0.9464286057	-0.057205
O	 3.0994725903	-0.4385896366	-2.0123342923	-0.435836
C	 0.6381507823	-2.0248805077	-1.060429829	 0.147073
C	-0.5511950386	-2.7055912113	-1.7766567567	-0.295707
C	 0.528680962	-3.4274974788	-2.6068449371	-0.070628
O	 1.5903852842	-2.7621513997	-1.8869849407	-0.305594
H	 0.4639620288	 2.2512627823	-0.4570987186	 0.126101
H	-0.8797872091	 1.7853343441	-1.504090722	 0.117556
H	-1.157893276	 2.0826570498	 0.2167815319	 0.113924
H	 0.1898828625	 0.0668479276	 0.8206061877	 0.099591
H	-1.1526108475	-0.3589463313	-0.2200043673	 0.096364
H	 0.5248500337	-0.2194407245	-2.2091054152	 0.073197
H	 2.307555197	 1.0030919375	-0.8471205842	 0.099048
H	 2.5881596055	-0.5124718348	 0.0138660132	 0.076863
H	 2.9240072632	-1.3710023136	-2.2015225244	 0.28978
H	 0.7613053445	-2.3230724349	-0.0096044393	 0.078843
H	-1.1706435455	-3.351313948	-1.1532082673	 0.114639
H	-1.1931985495	-2.0247127577	-2.3389585846	 0.114171
H	 0.5804245277	-4.5148541025	-2.4806875156	 0.10965
H	 0.5503573783	-3.191329594	-3.6766837093	 0.112325
63.6799	81.9166	90.384	138.9173	176.5607	220.0875	249.6698	271.9955	365.5179	403.0557	446.2372	516.969	551.6605	763.0397	775.9308	806.8812	860.6229	911.5476	947.0685	951.724	982.1954	999.1494	1019.2365	1050.208	1081.7988	1086.9344	1114.32	1155.4218	1161.0919	1176.6998	1213.8438	1249.0393	1256.9067	1269.7516	1290.1892	1308.1096	1335.0275	1359.2033	1376.8478	1396.8952	1412.0784	1415.6352	1476.4038	1488.2541	1488.897	1501.2026	1505.3114	1512.8517	1531.2399	2933.4589	2999.1686	3009.1143	3018.3529	3027.8116	3036.2571	3043.2403	3064.7277	3069.5285	3078.914	3102.5809	3110.1221	3135.0971	3729.9191
CCC(CO)C1CCO1	CC[C@@H](CO)[C@H]1CCO1	
InChI=1S/C7H14O2/c1-2-6(5-8)7-3-4-9-7/h6-8H,2-5H2,1H3	InChI=1S/C7H14O2/c1-2-6(5-8)7-3-4-9-7/h6-8H,2-5H2,1H3/t6-,7+/m0/s1
