21
gdb 113460	4.32904	0.93746	0.9292	1.5933	83.38	-0.2476	0.0863	0.334	1392.7765	0.181802	-387.04723	-387.038496	-387.037552	-387.08081	33.639	
C	 0.3902877617	 1.4469834553	 0.2578703852	-0.373017
C	-0.3244536237	 0.1729803905	-0.209180807	-0.209861
C	 0.3312374643	-0.4370847005	-1.4239737814	-0.040763
O	 1.6031489653	-1.0892451427	-1.2032730863	-0.306783
C	 0.5002090856	-1.8801070315	-1.6125767412	 0.454739
C	 0.038351739	-3.0943410327	-0.7782132314	-0.327771
C	 0.0702076395	-3.9318868898	-2.0693584509	-0.045322
C	-0.8222285826	-3.3189035343	-3.1079276458	-0.279169
C	 0.5407490206	-2.714521772	-2.8757762653	-0.144887
H	 1.4338910374	 1.2303924882	 0.5041411173	 0.134418
H	 0.3823244551	 2.2145949273	-0.5237003981	 0.114253
H	-0.0910335787	 1.8680468105	 1.1454840097	 0.111804
H	-0.3358858603	-0.5666266958	 0.5988098313	 0.103597
H	-1.3715159956	 0.3965193458	-0.4529192046	 0.098067
H	 0.3208178538	 0.1887828744	-2.3201212862	 0.082581
H	 0.816808304	-3.3745468808	-0.0644965855	 0.120831
H	-0.9233934056	-3.0286724617	-0.2583694821	 0.097867
H	 0.4124366018	-4.9565581141	-2.1368647829	 0.091346
H	-0.9247691656	-3.879917824	-4.0314165267	 0.114431
H	-1.7198755333	-2.7786285173	-2.8146459612	 0.106819
H	 1.2928951873	-2.639722395	-3.6510800069	 0.096819
71.3844	111.4705	145.8681	184.8358	248.2838	313.1475	383.8423	422.6735	452.7688	494.993	611.2047	750.5481	763.5384	786.1684	834.0593	839.1274	916.3048	925.3377	938.6622	956.5378	964.7999	1004.5967	1037.7612	1057.9176	1068.1065	1085.9435	1099.7014	1114.3116	1154.097	1157.0598	1188.1851	1199.9272	1242.3293	1289.2704	1290.3802	1328.0901	1342.4785	1377.3204	1407.9313	1472.2025	1474.9582	1491.0309	1498.0853	1506.5865	1521.3363	3024.4148	3036.3319	3043.9134	3065.3773	3081.3752	3105.2435	3105.6261	3110.6206	3116.9033	3189.2473	3192.4497	3205.1231
CCC1OC11CC2CC12	CC[C@H]1O[C@]21C[C@H]1C[C@@H]21	
InChI=1S/C8H12O/c1-2-7-8(9-7)4-5-3-6(5)8/h5-7H,2-4H2,1H3	InChI=1S/C8H12O/c1-2-7-8(9-7)4-5-3-6(5)8/h5-7H,2-4H2,1H3/t5-,6-,7-,8-/m1/s1
