25
gdb 81961	2.24154	1.57756	1.1654	0.3147	91.09	-0.2588	0.0756	0.3345	1214.3498	0.230039	-352.364242	-352.354832	-352.353888	-352.397564	37.727	
C	-0.3700793939	 1.5737541555	 0.055741815	-0.402962
C	-0.1080903122	 0.0653948303	 0.0913985273	 0.022891
C	 0.611298285	-0.4793626254	-1.1389796373	-0.037574
C	 2.110826618	-0.326741825	-1.2428662746	-0.298832
C	 1.51208815	-1.6058755679	-0.7062091562	-0.037574
C	 1.3720190632	-1.785607614	 0.8024944008	 0.02289
C	 2.6596668889	-2.215212524	 1.5113395667	-0.402963
C	 0.6939009596	-0.4723839837	 1.3272750066	-0.034523
C	 1.6359188753	 0.5394897831	 2.0004290784	-0.403074
H	 0.5601947697	 2.1455641397	-0.015087619	 0.115599
H	-0.9815647669	 1.8334710673	-0.8151387003	 0.107452
H	-0.9083484	 1.9127930484	 0.9476183751	 0.108151
H	-1.0873103188	-0.433646176	 0.1133153966	 0.068869
H	 0.0454578466	-0.5360323294	-2.0638172528	 0.073157
H	 2.5346962199	-0.3712002683	-2.2408532689	 0.104825
H	 2.6392343725	 0.3495980844	-0.5821925244	 0.108314
H	 1.6184268318	-2.5031604957	-1.3081089063	 0.073157
H	 0.6393996996	-2.5930440737	 0.9428834249	 0.068869
H	 3.4603123794	-1.4812896477	 1.3782345152	 0.115598
H	 2.5033759806	-2.3538771379	 2.5867324379	 0.108151
H	 3.0176165911	-3.1678620901	 1.1062088057	 0.107452
H	-0.0292415848	-0.7530325899	 2.1019144544	 0.068735
H	 2.4248970412	 0.9189868132	 1.3460787498	 0.118774
H	 1.0720228254	 1.40391435	 2.3634342535	 0.112309
H	 2.1243529187	 0.0878822267	 2.869027672	 0.112308
96.5001	157.7129	212.9809	237.7623	258.0565	259.5162	283.1606	308.0604	377.2943	405.3574	453.8796	546.6411	588.1622	700.8602	724.1181	738.6184	834.2595	849.1825	854.987	932.2124	949.3933	980.6273	1009.547	1031.0188	1038.4098	1048.6883	1066.6865	1072.5106	1080.2895	1116.073	1130.0257	1143.3305	1166.8318	1201.2934	1220.0344	1258.6054	1326.0573	1332.6349	1340.9994	1372.2718	1373.4141	1383.97	1394.765	1406.1799	1408.6114	1425.9052	1484.2729	1491.3574	1493.3573	1497.017	1500.505	1509.4795	1514.9314	2991.693	2993.9455	3028.1399	3029.2508	3031.2608	3044.6632	3090.3683	3091.2574	3102.5739	3103.8104	3106.6756	3113.1709	3137.7953	3145.6621	3157.0282	3219.8014
CC1C2CC2C(C)C1C	C[C@H]1[C@H]2C[C@H]2[C@@H](C)[C@H]1C	
InChI=1S/C9H16/c1-5-6(2)8-4-9(8)7(5)3/h5-9H,4H2,1-3H3	InChI=1S/C9H16/c1-5-6(2)8-4-9(8)7(5)3/h5-9H,4H2,1-3H3/t5-,6+,7-,8+,9-
