19
gdb 41025	3.26109	1.78226	1.48924	1.8658	80.11	-0.2247	0.0697	0.2943	940.2656	0.159949	-385.748895	-385.742114	-385.74117	-385.779615	28.854	
C	 0.0414435652	 1.549531828	 0.2887388807	-0.217044
C	 1.5160790347	 1.6411277526	-0.2202806464	-0.334985
C	 1.4272935269	 0.1829125395	-0.6800317127	 0.348401
C	-0.0609849555	 0.0506738396	-0.1040378913	-0.088689
C	 0.462643282	-0.9197418732	 1.0336676334	-0.351871
C	 1.761145648	-1.0050260097	 0.2249038357	 0.360925
C	 3.2605939174	-0.9411701461	-0.1529393483	-0.321766
C	 2.353920003	-0.7847910265	-1.4480163425	-0.076033
O	 1.5374813522	-1.8966268029	-0.95644026	-0.332832
H	-0.1146121299	 1.7649333047	 1.3492966091	 0.098778
H	-0.635906106	 2.1795631276	-0.2924213546	 0.106103
H	 1.6363226725	 2.3535250601	-1.0413187021	 0.107075
H	 2.2798753665	 1.867871549	 0.5321089075	 0.096646
H	-0.9382846759	-0.2741434072	-0.6609108538	 0.078603
H	 0.5494839481	-0.4225657065	 2.0034594055	 0.107304
H	-0.0483291905	-1.8768366002	 1.157048814	 0.120157
H	 3.8248769165	-0.0715046564	 0.1938750511	 0.102793
H	 3.837797702	-1.8671152112	-0.1113676814	 0.110305
H	 2.677323543	-0.8176146713	-2.4928177937	 0.086133
151.1054	225.1902	319.643	365.5206	445.4106	467.2243	527.9437	626.3236	699.7548	701.8759	745.9613	770.016	809.9141	853.6714	863.2214	917.5154	935.9148	961.0207	975.1851	991.9423	1011.1492	1045.5783	1071.6941	1099.698	1107.4879	1142.4399	1154.2333	1169.8037	1189.1683	1216.2334	1226.3871	1230.5012	1249.4632	1270.2744	1276.8666	1293.2321	1319.002	1463.1268	1475.9456	1481.8936	1496.8848	3035.5672	3056.3976	3058.2448	3062.4861	3070.1556	3081.6738	3110.4741	3119.898	3131.024	3138.1617
C1CC23C1CC21CC3O1	C1C[C@]23[C@H]1C[C@@]12C[C@H]3O1	
InChI=1S/C8H10O/c1-2-8-5(1)3-7(8)4-6(8)9-7/h5-6H,1-4H2	InChI=1S/C8H10O/c1-2-8-5(1)3-7(8)4-6(8)9-7/h5-6H,1-4H2/t5-,6-,7+,8-/m1/s1
