17
gdb 39782	3.04558	1.88254	1.52544	2.8159	71.35	-0.2348	0.0719	0.3067	896.0688	0.13841	-417.896166	-417.889752	-417.888808	-417.926608	27.034	
C	-0.0225655608	 1.4865829963	 0.0096371288	-0.298698
O	 1.2319307488	 0.7643424219	-0.0070544699	-0.26962
C	 0.0504737067	 0.0349089353	 0.0018312149	 0.566973
C	-0.5161918359	-0.9739062196	 1.0150487394	-0.140317
N	-1.6541392892	-1.0681808619	 0.0144014284	-0.321994
C	-0.5374716215	-0.9640893893	-1.0089871627	-0.140316
C	 0.2876367409	-2.2489267885	-0.7539043219	-0.050645
N	 1.5577958544	-2.0322018648	-0.0240475379	-0.308662
C	 0.3032464015	-2.2561225837	 0.7302269397	-0.050645
H	-0.2402987749	 2.0168406956	 0.9350461259	 0.117442
H	-0.2596554318	 2.0257643757	-0.9058051749	 0.117442
H	-0.7668558826	-0.7209717285	 2.0443812922	 0.077073
H	-2.0575681085	-2.0070979097	 0.0140888848	 0.206268
H	-0.8096957156	-0.701206013	-2.0303196992	 0.077073
H	 0.14785664	-3.1341422717	-1.3640123376	 0.094722
H	 2.0948091571	-2.8985991579	-0.0338989754	 0.22918
H	 0.1762386916	-3.1472258063	 1.3345289453	 0.094722
196.4226	250.5256	297.9063	375.8265	457.2232	505.1035	574.6861	683.5213	725.7322	779.745	812.035	832.6789	839.0711	893.9577	903.5032	917.9298	925.7732	933.0616	1016.2067	1045.7194	1052.2551	1086.7	1090.7128	1113.3029	1137.755	1150.8998	1157.7782	1173.2733	1196.2298	1218.6135	1258.7477	1295.8898	1319.0707	1336.7008	1391.324	1467.9701	1561.082	3088.3986	3128.7808	3130.586	3171.3239	3176.2433	3181.7255	3429.4843	3473.3311
C1OC11C2NC1C1NC21	C1O[C@]21[C@H]1N[C@@H]2[C@H]2N[C@@H]12	
InChI=1S/C6H8N2O/c1-6(9-1)4-2-3(7-2)5(6)8-4/h2-5,7-8H,1H2	InChI=1S/C6H8N2O/c1-6(9-1)4-2-3(7-2)5(6)8-4/h2-5,7-8H,1H2/t2-,3+,4+,5-,6-
