16
gdb 123877	5.23173	1.11785	0.94492	3.8941	72.78	-0.2265	0.0067	0.2333	1199.0812	0.126709	-434.052653	-434.045192	-434.044248	-434.085511	26.717	
C	-0.1547160921	 1.5561694283	 0.0212576422	-0.239622
C	 1.3772450754	 1.5408683257	-0.2470715848	-0.173559
N	 1.3942533003	 0.1347778609	 0.184403329	-0.173518
C	-0.067264086	 0.0267506936	 0.293351763	-0.163296
C	 2.2486742727	-0.8371929302	-0.1705891367	 0.54449
N	 2.0469410861	-2.1340326632	-0.1335665189	-0.380621
C	 3.2582531194	-2.594552862	-0.5712955818	 0.051294
N	 4.1565008858	-1.697293525	-0.8685222163	-0.140331
O	 3.4683814989	-0.4793518944	-0.5964623449	-0.22866
H	-0.4445687252	 2.1448039366	 0.8919460557	 0.12493
H	-0.7730933838	 1.8440003004	-0.8283324472	 0.124311
H	 1.6634042768	 1.6735003243	-1.2964095244	 0.127726
H	 1.9904256561	 2.2009120188	 0.3728072436	 0.129574
H	-0.4115115045	-0.3185878496	 1.2718550689	 0.128995
H	-0.5069282196	-0.6094591551	-0.4821287826	 0.12941
H	 3.4829130097	-3.6471383689	-0.6760261947	 0.138878
73.8536	104.4149	147.0627	155.1381	303.6148	444.1787	508.1557	630.9072	757.1786	774.9102	842.4605	868.3881	877.4729	937.3816	939.6483	944.8044	975.1743	994.6239	1115.3831	1143.9369	1144.39	1153.3932	1202.9136	1218.3213	1234.0036	1270.4185	1282.7854	1299.4056	1346.5866	1384.4798	1492.065	1510.9152	1533.2438	1572.0354	1666.2694	3038.6587	3046.7615	3088.2181	3093.5922	3099.0526	3153.9977	3248.5915
C1CN(C1)C1=NC=NO1	C1CN(C1)c1ncno1	
InChI=1S/C5H7N3O/c1-2-8(3-1)5-6-4-7-9-5/h4H,1-3H2	InChI=1S/C5H7N3O/c1-2-8(3-1)5-6-4-7-9-5/h4H,1-3H2
