14
gdb 128266	7.03187	0.88376	0.78963	6.1813	67.6	-0.2471	-0.0702	0.1769	1367.5915	0.100525	-470.010558	-470.002071	-470.001127	-470.044451	28.846	
C	 0.0648128104	 1.4339617012	-0.0261997845	-0.336153
N	-0.0129169354	-0.0143314292	 0.0728522518	-0.398267
C	 0.605361537	-0.7203037618	 1.0343388964	 0.549503
N	 0.7317360605	-2.0217136827	 1.1225234559	-0.407486
C	 1.4041774263	-2.1445968332	 2.3107691766	 0.263507
C	 1.776814928	-3.4851981126	 2.842646998	 0.10042
O	 2.3645715777	-3.674406803	 3.8746840222	-0.231514
N	 1.6906596527	-1.0262248619	 2.9314478164	-0.167435
O	 1.1521510671	-0.051334734	 2.0642342642	-0.204075
H	 1.0468139026	 1.7800729546	-0.3717445639	 0.143249
H	-0.6977902404	 1.7758223189	-0.7276888339	 0.143801
H	-0.1359886295	 1.8818895496	 0.9491876071	 0.165756
H	-0.282864304	-0.5497016209	-0.7357362691	 0.275712
H	 1.4501318469	-4.3089124951	 2.1756360629	 0.102982
71.0956	99.2897	119.0291	154.5033	222.8491	253.6729	345.2288	396.5617	429.9483	594.5871	672.407	718.7808	773.5284	788.2267	922.7931	1006.4867	1039.9053	1042.3865	1098.2251	1154.8616	1188.1026	1339.9458	1381.0193	1435.7194	1442.1481	1478.8125	1490.0494	1516.0434	1549.3217	1694.6626	1828.44	2933.4803	3028.1996	3108.5689	3147.7644	3658.5968
CNC1=NC(C=O)=NO1	CNc1nc(C=O)no1	
InChI=1S/C4H5N3O2/c1-5-4-6-3(2-8)7-9-4/h2H,1H3,(H,5,6,7)	InChI=1S/C4H5N3O2/c1-5-4-6-3(2-8)7-9-4/h2H,1H3,(H,5,6,7)
