15
gdb 45519	4.50952	1.33887	1.07799	5.2867	66.69	-0.2758	-0.0048	0.271	1054.788	0.116109	-454.004475	-453.997868	-453.996924	-454.035546	25.911	
O	 0.0812754415	 0.0021191352	-0.3472767732	-0.350016
C	-0.033824444	 1.1360048596	-0.0033671198	 0.465611
N	-1.1788230666	 1.8986474512	 0.138872713	-0.383965
C	-0.8348856722	 3.3031009225	 0.2652960108	-0.072021
C	-1.3476065981	 4.2255641751	 1.3784217635	-0.262858
C	-0.020672544	 4.9696887341	 1.749266025	-0.163231
N	 1.0777371978	 3.9952543434	 1.5220553204	-0.292332
C	 0.5854285865	 3.137260599	 0.7426392555	 0.435373
O	 1.0729977153	 1.9290595639	 0.369307782	-0.238533
H	-1.9956675411	 1.5700900644	-0.3521320973	 0.26872
H	-0.8727544107	 3.8142650252	-0.7094959039	 0.112467
H	-2.1522960163	 4.8962544262	 1.0705862228	 0.110128
H	-1.6879869156	 3.6276254232	 2.2291948826	 0.126073
H	 0.1310985743	 5.8598148938	 1.1253066229	 0.11811
H	-0.0009099566	 5.2971678633	 2.7912499056	 0.126474
133.7496	179.8564	295.0846	354.1296	433.3797	516.1683	558.7381	588.7948	667.2001	720.8254	766.7105	782.3165	844.8431	856.4903	893.4487	920.8869	994.3569	1017.8772	1088.4663	1129.0193	1146.8904	1180.7126	1212.1537	1274.2747	1297.42	1306.8524	1350.1368	1388.8706	1416.004	1486.4911	1504.4858	1776.9173	1936.3431	2980.9304	3031.3206	3065.2715	3101.4172	3125.7758	3641.3083
O=C1NC2CCN=C2O1	O=C1N[C@H]2CC[N][C]2O1	
InChI=1S/C5H6N2O2/c8-5-7-3-1-2-6-4(3)9-5/h3H,1-2H2,(H,7,8)	InChI=1S/C5H6N2O2/c8-5-7-3-1-2-6-4(3)9-5/h3H,1-2H2,(H,7,8)/t3-/m0/s1
