21
gdb 116509	3.2082	1.15108	0.9167	1.2225	75.86	-0.2447	0.0812	0.3258	1320.7094	0.182819	-461.347365	-461.338181	-461.337237	-461.381676	33.702	
C	 0.3121364826	 1.2719236269	 0.4540211999	-0.236984
O	 0.0362832818	-0.0894872842	 0.1716167654	-0.236617
C	-1.2949238181	-0.3561628308	-0.1089193436	 0.209673
C	-1.3785517788	-1.813024719	-0.5763983766	-0.121143
O	-2.6616598682	-2.0909773213	-1.100776214	-0.247066
C	-3.6120372987	-2.6170113417	-0.1903829502	-0.07051
C	-3.8337161679	-1.776388569	 1.0870874043	-0.230877
C	-3.4545072263	-0.2981284764	 0.9459244136	-0.066165
O	-2.0527738374	-0.0983497893	 1.0572975655	-0.261377
H	 1.3926593522	 1.3531572318	 0.589558428	 0.125847
H	 0.0061206147	 1.919039902	-0.3817410413	 0.104684
H	-0.1975479625	 1.6050003706	 1.3639679632	 0.129957
H	-1.670960958	 0.2937595569	-0.9249665849	 0.055619
H	-0.6560716594	-1.9544634773	-1.3863865617	 0.115003
H	-1.1072273535	-2.4832628693	 0.2506162424	 0.104512
H	-4.5381736021	-2.6684149853	-0.7712954077	 0.109981
H	-3.3423434084	-3.6480020248	 0.0875022896	 0.093524
H	-4.8881561952	-1.8569703903	 1.3776344368	 0.100147
H	-3.2477157494	-2.1751687909	 1.921765388	 0.115298
H	-3.8350645699	 0.1224680395	 0.0030649707	 0.10031
H	-3.8946537274	 0.2709390417	 1.7704947927	 0.106185
73.0085	107.2925	111.7506	171.4727	229.9625	282.4304	311.3403	333.5836	392.9247	460.8039	514.597	566.9964	590.3045	797.1056	854.7451	881.3204	927.1931	973.0708	1028.6876	1041.7204	1072.5134	1094.3512	1124.4257	1138.5637	1162.827	1180.762	1186.3053	1232.2442	1263.376	1274.8797	1290.0491	1329.7837	1338.5107	1379.4972	1385.855	1410.3423	1415.2878	1426.9755	1475.4152	1479.4752	1482.7668	1487.5401	1493.0684	1506.437	1512.3987	2900.8481	2981.2622	2994.0581	2998.6857	3016.7145	3036.1758	3066.3614	3076.7881	3079.1265	3085.9427	3090.263	3127.959
COC1COCCCO1	CO[C@H]1COCCCO1	
InChI=1S/C6H12O3/c1-7-6-5-8-3-2-4-9-6/h6H,2-5H2,1H3	InChI=1S/C6H12O3/c1-7-6-5-8-3-2-4-9-6/h6H,2-5H2,1H3/t6-/m1/s1
