19
gdb 58345	1.77573	1.44155	0.96627	2.8608	73.49	-0.2451	-0.0404	0.2047	1287.6341	0.154413	-460.190402	-460.179645	-460.178701	-460.226953	37.396	
C	 0.0108073097	 1.4917253435	 0.1624122831	-0.42582
C	-0.0616361715	-0.031092792	 0.1257656957	 0.13839
O	 0.4946787265	-0.60805195	 1.3016431833	-0.432753
C	-1.5134431028	-0.5682776182	-0.0847497983	-0.200957
C	-2.1015721066	-0.0439706264	-1.385986408	 0.14924
O	-2.8992503009	 0.856202811	-1.4463320227	-0.257789
C	-1.4421650621	-2.1001411309	-0.1412815242	 0.406104
C	-1.995529822	-2.8568282856	 1.0417889974	-0.487088
O	-0.9442586222	-2.6422531308	-1.1017101364	-0.319386
H	 1.0439128734	 1.8042675345	 0.3367917133	 0.132282
H	-0.3376381408	 1.9383514878	-0.7721540038	 0.142992
H	-0.6156000742	 1.8926850349	 0.968960596	 0.118455
H	 0.5505180035	-0.4204150331	-0.694504852	 0.120254
H	 0.1517756639	-0.1210634898	 2.0595539392	 0.282462
H	-2.1404572973	-0.2139876603	 0.7402637494	 0.085863
H	-1.7243038496	-0.5608239045	-2.2920608574	 0.1118
H	-3.0393850901	-2.5781598877	 1.2246570673	 0.140842
H	-1.916948659	-3.9315067179	 0.8736874928	 0.145124
H	-1.4216671681	-2.5750550145	 1.9317421553	 0.149985
49.1918	65.2922	89.223	152.6679	168.1381	193.1463	237.5727	256.0649	309.3619	326.2424	385.0296	413.8027	454.0606	518.2931	584.8895	608.5982	829.4196	870.3242	917.0322	952.8019	999.0774	1022.6657	1072.1886	1090.0098	1123.0189	1132.9854	1167.9403	1222.9617	1309.1697	1317.8566	1358.3651	1375.3884	1406.6869	1412.2768	1429.7536	1462.95	1473.4403	1488.2624	1492.8261	1796.9821	1827.8472	2930.9803	3031.5501	3036.1426	3056.5899	3070.7609	3101.3959	3106.3047	3130.7119	3154.3331	3796.8074
CC(O)C(C=O)C(C)=O	C[C@@H](O)[C@@H](C=O)C(=O)C	
InChI=1S/C6H10O3/c1-4(8)6(3-7)5(2)9/h3-4,6,8H,1-2H3	InChI=1S/C6H10O3/c1-4(8)6(3-7)5(2)9/h3-4,6,8H,1-2H3/t4-,6-/m1/s1
