25
gdb 100691	2.67313	1.04601	0.93849	0.2331	85.92	-0.2472	0.0828	0.33	1443.4697	0.224128	-426.615739	-426.603632	-426.602688	-426.653083	43.409	
C	-0.116292631	 1.3894025461	 0.087549894	-0.233717
O	 0.0860736652	 0.0010610013	-0.0252921358	-0.252231
C	 0.7042706951	-0.6092132371	 1.10161246	 0.127195
C	-0.2573860284	-0.732975036	 2.2855113311	-0.420129
C	 1.27874184	-1.9682811497	 0.6135044829	 0.357099
C	 0.1606153497	-2.8986316865	 0.120673624	-0.433925
C	 2.3035180118	-1.7092423253	-0.5006023057	-0.432215
O	 1.9199257694	-2.4786512879	 1.7914333536	-0.286739
C	 2.5590530184	-3.7304101286	 1.6969171051	-0.243987
H	 0.8215441221	 1.9188338096	 0.3183931991	 0.103124
H	-0.4885146231	 1.7397000489	-0.8788030612	 0.124331
H	-0.8558114774	 1.6489402283	 0.8586005485	 0.108593
H	 1.5706903098	-0.0025349352	 1.4126135607	 0.065711
H	 0.2043067482	-1.3274161375	 3.0754593266	 0.137778
H	-0.5015554939	 0.250930988	 2.6960916738	 0.108012
H	-1.1918300384	-1.2114924197	 1.978483592	 0.118114
H	-0.4579817025	-2.3695671462	-0.6078456108	 0.13728
H	 0.5653330159	-3.791408551	-0.3644050423	 0.10824
H	-0.4755695022	-3.2186737346	 0.9501890785	 0.117797
H	 3.1442376852	-1.1252931853	-0.1124485531	 0.111776
H	 2.6938804031	-2.642726697	-0.9156885952	 0.106952
H	 1.8336305391	-1.1473121187	-1.3095006001	 0.134726
H	 2.9677560487	-3.9438434675	 2.688305787	 0.124159
H	 1.8669704003	-4.5404242712	 1.4281928562	 0.106041
H	 3.3886302147	-3.7303894872	 0.9762344608	 0.106017
57.3775	65.7855	75.1505	168.8776	172.9472	187.3086	217.2479	243.6386	260.1424	271.7704	310.5975	337.5399	348.5463	373.3849	418.1645	454.9669	507.9567	590.0358	733.7419	830.7797	886.5956	919.5951	942.903	991.2694	1056.855	1062.1428	1111.227	1122.5771	1151.5885	1181.1591	1182.2907	1196.0407	1203.6034	1222.6317	1231.3912	1291.7975	1364.1217	1374.592	1386.6427	1396.2985	1407.4603	1474.5354	1478.6149	1480.4173	1482.7073	1485.6321	1492.9285	1500.3838	1501.5964	1506.714	1511.6695	1513.1663	1518.3861	2967.1929	2978.1687	2994.2501	3027.2819	3039.3578	3047.0645	3048.2346	3051.8629	3104.8162	3107.256	3109.4214	3112.6037	3117.4214	3133.2672	3141.3366	3145.6308
COC(C)C(C)(C)OC	CO[C@@H](C)C(C)(C)OC	
InChI=1S/C7H16O2/c1-6(8-4)7(2,3)9-5/h6H,1-5H3	InChI=1S/C7H16O2/c1-6(8-4)7(2,3)9-5/h6H,1-5H3/t6-/m0/s1
