16
gdb 14885	5.01882	1.41334	1.14492	0.764	76.19	-0.2304	-0.0183	0.2121	1013.5106	0.130827	-346.580037	-346.572675	-346.57173	-346.611539	28.037	
C	 0.0851560615	-1.2183984448	-0.0016786019	-0.412853
C	-0.0100733699	-0.0170129963	 0.0059913737	 0.218633
C	-0.0570238022	 1.404010898	 0.0160503849	 0.149135
C	-1.2142618539	 2.0825545228	 0.0113595217	-0.161363
C	-1.269869184	 3.581799814	 0.0625757483	-0.117853
O	-0.0274082971	 4.1890854525	 0.347522772	-0.243943
C	 1.0374954544	 3.6102198068	-0.38805295	-0.091244
C	 1.2628617514	 2.155458087	 0.0243208888	-0.302973
H	 0.150641344	-2.2780523524	-0.0066146313	 0.193073
H	-2.1629165652	 1.5561565852	-0.031299974	 0.100798
H	-1.6835601343	 3.9666614201	-0.8895153308	 0.101535
H	-1.9578723145	 3.9060571079	 0.8533226538	 0.124017
H	 0.8294422675	 3.6641280456	-1.4694920318	 0.09236
H	 1.9201266832	 4.2219781331	-0.1829680838	 0.110313
H	 1.7124242061	 2.1069835444	 1.0238185888	 0.125154
H	 1.968740033	 1.6742014661	-0.6618777484	 0.11521
106.1658	154.1036	207.5935	295.3274	367.9455	404.4964	490.1031	533.3502	567.3464	594.0763	638.7426	676.887	791.1278	851.7608	863.6365	942.0059	990.1759	1026.4211	1038.4382	1092.9716	1155.3244	1171.335	1227.8659	1257.2957	1301.5179	1323.4882	1368.2478	1381.5356	1420.6151	1470.1377	1482.5347	1501.9167	1696.679	2219.6294	2921.4099	2971.7414	3031.8774	3043.5755	3072.5491	3091.2836	3179.1223	3503.9859
C#CC1=CCOCC1	C#CC1=CCOCC1	
InChI=1S/C7H8O/c1-2-7-3-5-8-6-4-7/h1,3H,4-6H2	InChI=1S/C7H8O/c1-2-7-3-5-8-6-4-7/h1,3H,4-6H2
