23
gdb 90958	2.57443	1.60654	1.36807	0.1666	89.39	-0.274	0.0879	0.3619	1096.1864	0.207305	-351.136176	-351.127939	-351.126995	-351.168329	33.658	
C	-0.3272672419	 1.5992133022	 0.6387077235	-0.413795
C	-0.0866608086	 0.0988106493	 0.459363173	 0.01982
C	 0.5136523494	-0.321215163	-0.9188800521	-0.268295
C	 1.7242748114	-1.128199073	-0.4508549084	-0.030897
C	 1.3465238942	-1.9255888856	 0.838066073	-0.069362
C	 2.7865926015	-1.7427150004	 1.3597162657	-0.280235
C	 2.411072018	-0.3712581154	 0.7408089333	 0.339016
C	 3.2921095487	 0.8499167639	 0.6608516154	-0.522189
C	 0.9775906984	-0.5115595816	 1.3800174838	-0.03755
H	 0.5884690049	 2.1781966941	 0.4809026715	 0.116304
H	-1.0762031667	 1.9655488806	-0.0718013936	 0.111371
H	-0.6909977598	 1.8242027113	 1.6475728279	 0.109609
H	-1.04005774	-0.4198246277	 0.623560531	 0.065001
H	-0.1805618438	-0.9158652252	-1.521465743	 0.092447
H	 0.8059288103	 0.5466196081	-1.5220604036	 0.090865
H	 2.3598533168	-1.6071632887	-1.2000429257	 0.052845
H	 0.7217293675	-2.8196007084	 0.8901438551	 0.060107
H	 2.9272911382	-1.7719766721	 2.4451242189	 0.081589
H	 3.5730752716	-2.3088978619	 0.8497681229	 0.081469
H	 4.243556366	 0.6088584207	 0.1727488248	 0.115617
H	 2.8227575587	 1.6567768863	 0.0886180187	 0.119733
H	 3.5213059499	 1.2388894643	 1.6593937159	 0.116839
H	 0.8701178655	-0.3724328179	 2.4594656619	 0.049691
138.2692	179.7856	207.3675	223.2698	266.7122	319.3528	385.4829	440.27	462.0554	619.9185	656.7041	691.6798	751.4672	812.651	844.8939	873.974	899.3245	928.7052	932.3257	945.2943	992.6125	1005.9214	1010.2416	1028.321	1056.9357	1061.6259	1085.8362	1131.5851	1137.8632	1158.7541	1187.4859	1207.5664	1218.8292	1220.4811	1246.9128	1265.1403	1286.4019	1305.3578	1315.2909	1368.8034	1388.7374	1404.8896	1413.3148	1486.936	1489.0657	1495.8735	1499.9981	1502.2306	1519.8573	3013.4958	3024.2688	3027.9568	3033.1643	3033.8069	3074.661	3074.8028	3081.4132	3086.5216	3090.6402	3091.3564	3093.4939	3094.5899	3103.6181
CC1CC2C3CC2(C)C13	C[C@H]1C[C@@H]2[C@H]3C[C@]2(C)[C@@H]13	
InChI=1S/C9H14/c1-5-3-7-6-4-9(7,2)8(5)6/h5-8H,3-4H2,1-2H3	InChI=1S/C9H14/c1-5-3-7-6-4-9(7,2)8(5)6/h5-8H,3-4H2,1-2H3/t5-,6+,7+,8-,9-/m0/s1
