19
gdb 52451	14.16231	0.41172	0.40311	5.8908	78.96	-0.2661	0.0158	0.2819	2564.2934	0.15707	-456.330135	-456.319274	-456.31833	-456.370938	34.668	
N	-0.1398643386	 1.2821591108	 0.0101169875	-0.434125
C	-0.0704650253	 0.022696716	 0.0031963668	 0.129869
O	-1.19828551	-0.7146470295	 0.0088149663	-0.181499
C	-1.0242940342	-2.1305151455	-0.000131104	-0.077088
C	-2.4090912186	-2.7608155296	 0.0091038047	-0.211189
C	-2.3413923938	-4.2808050355	 0.0004026372	-0.077088
O	-3.6817291828	-4.7691104197	 0.0099282112	-0.181499
C	-3.8261315601	-6.1088198067	 0.0063041717	 0.129869
N	-4.9796244463	-6.6192322649	 0.0128599708	-0.434125
H	 0.7959603889	 1.6822577649	 0.0043431266	 0.230446
H	 0.8490001895	-0.5801246962	-0.0075546553	 0.082924
H	-0.4627891239	-2.4340727454	-0.8954206502	 0.109363
H	-0.4467192853	-2.4433320732	 0.881646017	 0.109346
H	-2.9552257961	-2.4260890395	 0.8962706931	 0.13634
H	-2.9712005363	-2.4167155128	-0.8643922815	 0.136377
H	-1.8161371472	-4.6434153412	-0.8949167253	 0.109373
H	-1.8000277095	-4.6528650331	 0.8821485481	 0.109336
H	-2.8713544792	-6.6540152314	-0.003089816	 0.082924
H	-4.9108387712	-7.6346778174	 0.0084932211	 0.230446
11.1643	12.9949	70.5826	74.1603	77.2611	137.8123	144.8053	199.2092	276.3209	356.7003	507.7463	605.6739	664.1686	775.2117	820.6306	821.8345	886.5685	991.775	1006.262	1044.2706	1044.4393	1070.3087	1107.2195	1133.9265	1154.8338	1172.8624	1234.3461	1278.196	1298.2804	1309.1551	1312.5396	1312.5811	1410.0235	1415.4304	1432.7882	1442.9324	1498.2882	1515.5765	1528.0215	1749.9211	1754.2617	2985.035	2990.9856	3016.4037	3017.3924	3027.1173	3030.9418	3063.7927	3112.8136	3520.0486	3520.0617
N=COCCCOC=N	[NH][CH]OCCCO[CH][NH]	
InChI=1S/C5H10N2O2/c6-4-8-2-1-3-9-5-7/h4-7H,1-3H2	InChI=1S/C5H10N2O2/c6-4-8-2-1-3-9-5-7/h4-7H,1-3H2
