22
gdb 6027	2.2857	1.7872	1.43663	2.4116	77.93	-0.2463	-0.0184	0.2279	1043.9711	0.196897	-350.228065	-350.217939	-350.216995	-350.262139	37.531	
C	 0.0267846344	 1.5144186334	-0.0489313029	-0.411297
C	-0.0569452722	-0.0208722361	-0.0145855999	 0.039851
C	 0.8892784957	-0.5718305666	 1.0635028463	-0.415676
C	-1.5157118984	-0.5445673959	 0.1134052379	 0.170527
C	-1.561470894	-2.0904613792	 0.216312504	-0.430868
C	-2.2911322647	 0.0509256254	 1.3059394433	-0.434481
C	-2.3065138725	-0.2348338388	-1.1567692718	 0.157587
O	-1.8546341783	 0.149827432	-2.2040062613	-0.263322
H	 1.0461001659	 1.8260763594	-0.2984532044	 0.111779
H	-0.6412099596	 1.9406065756	-0.80046029	 0.129396
H	-0.2159710132	 1.9557384751	 0.9239727653	 0.108573
H	 0.2965507126	-0.3814588897	-0.9881525163	 0.089293
H	 0.5707680681	-0.2844228767	 2.0721252635	 0.11171
H	 0.9699567761	-1.6615364159	 1.0343196605	 0.113085
H	 1.8956395767	-0.16661658	 0.916335906	 0.114776
H	-1.2089207513	-2.424406367	 1.1956937206	 0.12675
H	-2.5859258348	-2.460859895	 0.0954866798	 0.115352
H	-0.94115692	-2.5582481774	-0.5545392658	 0.12772
H	-2.3661452698	 1.139914697	 1.2478759765	 0.126897
H	-3.3094105235	-0.3515684405	 1.3438490983	 0.11625
H	-1.8037648339	-0.2054347695	 2.2510790952	 0.124745
H	-3.4001916032	-0.4390253694	-1.0530262448	 0.071353
87.2392	97.0724	195.4348	203.9292	238.3928	246.9421	263.1707	292.3266	320.1805	344.8338	352.1214	395.7776	425.911	500.9201	629.2288	684.1419	883.1251	897.8369	927.45	936.0398	952.8194	966.9155	974.8347	1028.3218	1091.5829	1122.1866	1181.5479	1202.6329	1229.8595	1267.0942	1344.6693	1371.7882	1393.5543	1400.0669	1410.6791	1420.3064	1435.7692	1482.7174	1484.5165	1489.0702	1499.6073	1509.4239	1510.2003	1514.177	1516.6743	1828.6382	2835.1662	3029.5504	3031.8218	3033.5447	3037.855	3041.3747	3091.9422	3094.798	3098.5226	3102.7126	3111.198	3118.4431	3120.2113	3128.7834
CC(C)C(C)(C)C=O	CC(C)C(C)(C)C=O	
InChI=1S/C7H14O/c1-6(2)7(3,4)5-8/h5-6H,1-4H3	InChI=1S/C7H14O/c1-6(2)7(3,4)5-8/h5-6H,1-4H3
