15
gdb 44353	3.92832	1.59307	1.2988	4.7256	72.26	-0.2454	-0.0633	0.1821	938.0544	0.113614	-420.569301	-420.562899	-420.561954	-420.599996	25.973	
O	 0.0908698027	-0.0433131239	 0.3087999401	-0.314724
C	 0.0516980123	 1.1056937437	-0.0216550237	 0.414
O	-1.1789161911	 1.7419143855	-0.1306030551	-0.247515
C	-1.274831565	 2.9066595697	-0.9394196488	 0.128444
C	-0.6806854144	 4.3548048677	-0.8404039857	-0.09819
C	 0.7643557093	 4.5900646796	-0.2869085466	-0.280447
C	 0.989082813	 3.1901855611	-0.8263209894	 0.17356
C	 1.1631304327	 2.0973901424	-0.0783238286	-0.284713
C	-0.1670509161	 3.2860385498	-1.8140063038	-0.199059
H	-2.2839387584	 2.9386294464	-1.340228081	 0.122193
H	-1.3634959783	 5.1717713437	-1.0556769629	 0.106095
H	 1.2235244217	 5.4025853349	-0.8597018873	 0.121915
H	 0.915744495	 4.7441061268	 0.7846127447	 0.116864
H	 1.8062766165	 2.0969058849	 0.7979608524	 0.130205
H	-0.1058700999	 3.2593328576	-2.8947732241	 0.111371
125.0921	216.2242	364.0807	425.3139	469.7016	506.4757	562.6093	655.1401	689.7588	739.3692	779.0165	804.9447	822.7102	869.5536	904.5084	948.5146	974.9279	982.1698	1017.6789	1063.0567	1068.5556	1071.9475	1114.2482	1124.0685	1192.1321	1233.4851	1246.5063	1310.3335	1324.739	1412.631	1496.1425	1683.7185	1857.9234	3042.6436	3106.1357	3151.0053	3160.4514	3165.1143	3188.3032
O=C1OC2C3CC(=C1)C23	O=C1O[C@H]2[C@H]3C[C]([CH]1)[C@@H]23	
InChI=1S/C7H6O2/c8-5-2-3-1-4-6(3)7(4)9-5/h2,4,6-7H,1H2	InChI=1S/C7H6O2/c8-5-2-3-1-4-6(3)7(4)9-5/h2,4,6-7H,1H2/t4-,6+,7-/m0/s1
