21
gdb 37721	2.99156	1.99983	1.61689	0.0833	84.2	-0.2424	0.0901	0.3324	922.4184	0.188207	-349.94106	-349.934754	-349.933809	-349.971604	27.595	
C	 0.0097593409	 1.6568652848	 0.0883523004	-0.217855
C	 1.5483294975	 1.3685698178	 0.0372686727	-0.056837
C	 1.7456186633	 0.6159135304	 1.366901133	-0.057889
C	 1.9571538108	-0.8802161215	 1.3276752227	-0.04139
C	 2.5695830139	-1.5878888912	 0.1370762349	-0.233523
C	 2.1203787131	-0.9433790887	-1.1931511938	-0.253105
C	 1.1813419394	 0.2331019811	-0.9661064277	 0.023584
C	-0.0619070164	 0.0972118474	-0.035205435	-0.056828
C	 0.5502112444	-0.327939398	 1.3130868967	-0.057893
H	-0.3881192287	 2.1087402197	 1.0016169593	 0.084466
H	-0.3649605928	 2.1818557959	-0.795647144	 0.086463
H	 2.2763803244	 2.1399861004	-0.2184368911	 0.052515
H	 1.9983587874	 1.1795454321	 2.2579472512	 0.076991
H	 2.2471749166	-1.3022721675	 2.2876787326	 0.074005
H	 3.6615397629	-1.5617534563	 0.2293496909	 0.096191
H	 2.2877649153	-2.6467623557	 0.1675656528	 0.096189
H	 2.9882535337	-0.5970284632	-1.7663111984	 0.095707
H	 1.6154255016	-1.6808556803	-1.8278416152	 0.09571
H	 0.8799052358	 0.6694158037	-1.9226794575	 0.063997
H	-0.9649645031	-0.4192122979	-0.3643257116	 0.052514
H	-0.1049452899	-0.481173883	 2.1632695671	 0.076991
90.8365	304.662	417.69	468.1352	485.6691	578.3348	661.9199	731.997	754.9177	761.2141	799.5744	825.4561	848.6468	855.6466	901.4532	908.0604	916.7816	981.4168	1000.9777	1019.7986	1029.7945	1048.644	1052.0571	1056.7297	1092.5046	1110.595	1128.4602	1131.2952	1168.7925	1175.4662	1222.0841	1236.3108	1253.644	1271.7818	1277.9422	1295.8771	1321.2351	1332.4407	1339.6091	1373.2853	1412.0654	1437.3596	1484.783	1498.4652	1507.5065	3019.2235	3032.806	3043.6907	3043.8723	3063.7253	3069.1301	3097.9073	3100.7285	3106.9288	3125.8393	3163.1647	3174.2076
C1C2C3C4CCC2C1C34	C1[C@H]2[C@@H]3[C@@H]4CC[C@H]2[C@H]1[C@H]34	
InChI=1S/C9H12/c1-2-5-8-6-3-7(4(1)6)9(5)8/h4-9H,1-3H2	InChI=1S/C9H12/c1-2-5-8-6-3-7(4(1)6)9(5)8/h4-9H,1-3H2/t4-,5+,6-,7+,8+,9-
