18
gdb 69734	3.6549	1.63563	1.43371	1.2672	74.48	-0.2225	0.0792	0.3017	940.8445	0.149795	-401.853559	-401.847004	-401.84606	-401.883989	28.159	
O	-0.0070043598	 1.3660039258	 0.0538049578	-0.46754
C	 0.0234404601	-0.0212469194	 0.0259841928	 0.425861
C	-0.6030318548	-0.7831625337	 1.1478098061	-0.34033
C	 0.8962442905	-0.8969493802	 0.9098250822	-0.152241
C	 1.3727396106	-1.8941861561	-0.1217065109	 0.01939
C	 0.2332775616	-2.2827773431	-1.1035956877	-0.08798
C	 1.3026309777	-2.3066720722	-2.1996299784	-0.186172
N	 1.720610146	-1.0689890693	-1.4092029721	-0.175487
C	 0.1950745887	-0.7450998978	-1.2975943846	-0.076531
H	 0.8193904152	 1.681585183	-0.3311924055	 0.289919
H	-0.8843784301	-0.1804029104	 2.0047638458	 0.124149
H	-1.2604106732	-1.6241426726	 0.9537805539	 0.115209
H	 1.5835012121	-0.4758661006	 1.6328481405	 0.098297
H	 2.1290248361	-2.6311014674	 0.1548100036	 0.074024
H	-0.6050564019	-2.9695883608	-0.938884222	 0.065759
H	 2.0435958376	-3.1113659884	-2.1779906745	 0.098679
H	 0.9928060253	-2.0896275583	-3.2258251205	 0.099273
H	-0.2508051418	-0.3008963086	-2.1893493465	 0.07572
200.8184	273.17	343.0462	379.9609	426.2703	488.5035	511.6649	584.081	668.6946	727.3907	772.3191	820.2371	851.5962	864.5246	898.098	927.0845	931.5522	956.7087	968.5365	1002.857	1039.2363	1044.0261	1072.2421	1087.0164	1112.2206	1114.0946	1133.243	1183.1282	1220.5181	1225.1171	1237.3966	1253.6988	1267.9102	1301.2739	1334.3423	1365.6721	1418.282	1491.0895	1531.3455	3027.9575	3049.2142	3101.0989	3106.7647	3108.5398	3131.1548	3195.1006	3219.3328	3784.4784
OC12CC1C1C3CN1C23	O[C@]12C[C@H]1[C@H]1[C@@H]3CN1[C@H]23	
InChI=1S/C7H9NO/c9-7-1-4(7)5-3-2-8(5)6(3)7/h3-6,9H,1-2H2	InChI=1S/C7H9NO/c9-7-1-4(7)5-3-2-8(5)6(3)7/h3-6,9H,1-2H2/t3-,4-,5+,6-,7+/m0/s1
