18
gdb 29628	2.31828	1.88153	1.05226	4.2031	83.54	-0.2057	-0.0313	0.1744	1118.5482	0.148784	-402.029068	-402.02067	-402.019726	-402.062228	31.608	
C	-0.0214562845	 1.4560859869	 0.0116352105	-0.35951
N	-0.0000514904	-0.0066176478	 0.0307131849	-0.208245
C	-0.0205036641	-0.6481745487	-1.2484184018	 0.428233
O	-0.0533973385	 0.0183976437	-2.2740885129	-0.415706
C	 0.001697273	-2.090028449	-1.1911160044	-0.248623
C	 0.0386843033	-2.7618939441	-0.0091288095	-0.050256
C	 0.0570591369	-2.0619580574	 1.2214075661	-0.244322
C	 0.0373676964	-0.6940410098	 1.2194391596	 0.398543
C	 0.055642264	 0.0951678143	 2.4978521575	-0.487378
H	 0.8740435623	 1.8676339145	 0.4857479205	 0.132228
H	-0.0504239018	 1.7527358948	-1.0349245197	 0.183823
H	-0.904958466	 1.8421241628	 0.5278245631	 0.132212
H	-0.0130704043	-2.5956291442	-2.1483297364	 0.113355
H	 0.0544955377	-3.8478676028	-0.0026731972	 0.106733
H	 0.0865237973	-2.5903626873	 2.1647565268	 0.097067
H	 0.0854342531	-0.5849387198	 3.3502466477	 0.136725
H	 0.9283214835	 0.7548511423	 2.5566092506	 0.142556
H	-0.832247598	 0.7291261218	 2.5976489845	 0.142564
65.4358	115.5766	185.1503	225.8592	258.1886	343.2942	401.8742	457.9358	480.8909	523.3333	576.9068	603.8115	690.1734	745.6164	787.2304	804.3956	863.0673	934.8449	997.7664	1024.2828	1059.2762	1076.7804	1130.4166	1148.9666	1186.8488	1191.3656	1237.488	1287.0794	1400.6736	1419.3635	1434.8261	1463.9602	1474.7564	1488.2088	1505.2727	1514.4401	1592.8898	1654.6388	1758.0875	3035.4301	3046.6475	3087.584	3107.1369	3138.3547	3171.3102	3174.9685	3216.236	3220.1328
CN1C(=O)C=CC=C1C	Cn1c(=O)cccc1C	
InChI=1S/C7H9NO/c1-6-4-3-5-7(9)8(6)2/h3-5H,1-2H3	InChI=1S/C7H9NO/c1-6-4-3-5-7(9)8(6)2/h3-5H,1-2H3
