17
gdb 89775	2.01472	1.71575	1.03337	5.542	74.27	-0.244	0.0076	0.2515	1158.6647	0.134724	-417.962395	-417.953802	-417.952858	-417.995874	31.323	
C	-0.0351325842	 1.5186873686	 0.0441006837	-0.33489
N	-0.0128442391	 0.0744734685	 0.1326108144	-0.069143
C	-1.2628323297	-0.6509833729	 0.4559040177	-0.255146
C	-0.4465182788	-1.5634675566	 1.3693321269	 0.421988
C	-0.7950498126	-2.503598312	 2.4264888657	-0.26292
O	-0.2812718508	-2.9388215855	 1.1535151884	-0.241472
C	 0.7106876333	-0.5445905345	 1.2620199998	-0.23223
C	 2.0528516191	-1.0421476387	 0.9681242965	 0.320947
N	 3.1197989728	-1.4315307727	 0.7573622669	-0.322752
H	 0.9784479706	 1.8923134136	-0.1295123127	 0.141087
H	-0.6541341654	 1.82146742	-0.8056558875	 0.134852
H	-0.4350108224	 2.0046761416	 0.9539649467	 0.097275
H	-2.0007160204	-0.0456143249	 1.006105866	 0.10033
H	-1.7464326855	-1.1287613629	-0.4013626442	 0.133004
H	-0.1218399864	-2.6445964754	 3.2705191329	 0.131753
H	-1.8404671939	-2.7439075252	 2.6129400674	 0.127862
H	 0.7608838034	 0.0962549892	 2.1587583912	 0.109455
77.6285	113.132	161.3502	224.9999	250.0909	304.7991	317.3164	377.5546	398.7169	511.739	554.9568	568.4729	787.1275	836.3031	866.6817	915.157	950.4654	988.0012	1042.1328	1068.0468	1120.3325	1133.6878	1158.3118	1166.8365	1173.7435	1198.4105	1214.2683	1273.6623	1313.3651	1359.2812	1452.5286	1454.2912	1488.2555	1496.4699	1508.0011	1545.3659	2362.6576	2933.0751	2958.0733	2980.4355	3071.2618	3079.9168	3088.2124	3114.2426	3177.6898
CN1CC2(CO2)C1C#N	CN1C[C@]2(CO2)[C@H]1C#N	
InChI=1S/C6H8N2O/c1-8-3-6(4-9-6)5(8)2-7/h5H,3-4H2,1H3	InChI=1S/C6H8N2O/c1-8-3-6(4-9-6)5(8)2-7/h5H,3-4H2,1H3/t5-,6+/m1/s1
