16
gdb 125610	3.35648	1.23426	0.9083	3.7193	78.47	-0.2148	-0.0508	0.164	1227.613	0.124967	-434.107043	-434.098233	-434.097289	-434.14045	31.928	
C	-0.049202287	 1.4998551521	-0.0235034764	-0.509818
C	-0.018278692	 0.007325177	 0.0315554766	 0.32298
N	-0.0211369313	-0.7368108063	-1.0804665581	-0.261836
N	 0.003103072	-1.9988232147	-0.6731195309	-0.260218
C	 0.0251952458	-2.1262672501	 0.6924380901	 0.25709
C	 0.0557986397	-3.4225367203	 1.3220397518	 0.070632
O	 0.0652771173	-4.4749285257	 0.7087658035	-0.313255
C	 0.0118997729	-0.8173749583	 1.1849420099	 0.039629
N	-0.0424015677	-0.3838641167	 2.502008662	-0.61026
H	 0.83032907	 1.9454643868	 0.4588736588	 0.121978
H	-0.0637567316	 1.8297962423	-1.0640143589	 0.150422
H	-0.9359855121	 1.9049632238	 0.4780980195	 0.134696
H	 0.0053875307	-2.7621692004	-1.3292680848	 0.286957
H	 0.0709107567	-3.4061848768	 2.4338710054	 0.060233
H	 0.3173694977	-1.0320079512	 3.1874374648	 0.255233
H	 0.334670949	 0.5420279385	 2.6471984667	 0.255537
107.8936	122.9667	161.7466	212.0342	239.034	244.8532	319.9203	355.9865	374.4214	510.4843	534.5988	604.6105	660.3673	688.1883	742.5414	768.0337	814.0058	992.7527	1000.0889	1019.6283	1066.457	1213.8656	1221.0519	1260.8556	1309.7842	1406.1597	1412.7587	1446.5179	1483.1262	1484.4362	1498.9104	1549.6232	1612.4577	1663.1207	1755.819	2882.9594	3020.1449	3068.1136	3134.3446	3561.1812	3656.5343	3671.6479
CC1=NNC(C=O)=C1N	Cc1n[nH]c(C=O)c1N	
InChI=1S/C5H7N3O/c1-3-5(6)4(2-9)8-7-3/h2H,6H2,1H3,(H,7,8)	InChI=1S/C5H7N3O/c1-3-5(6)4(2-9)8-7-3/h2H,6H2,1H3,(H,7,8)
