21
gdb 105750	2.24254	1.38677	1.09987	1.0071	83.84	-0.2503	0.0522	0.3025	1220.6583	0.181948	-387.064883	-387.055367	-387.054423	-387.099461	35.702	
C	 0.0117430566	 1.4265738394	-0.1745020226	-0.400467
C	 0.2029794781	-0.0723825044	 0.0660217751	-0.218567
C	 0.7075540208	-0.4651539094	 1.4817807391	 0.119832
C	 0.8380283495	-2.0247311668	 1.5824895576	-0.293818
C	 2.3564123694	-2.2879065078	 1.433218537	-0.078226
O	 2.9399502565	-1.0555508049	 1.0274770678	-0.245618
C	 2.1941261749	-0.0440738705	 1.672129293	-0.120058
C	-0.1534737277	 0.085626424	 2.5220869142	 0.288261
C	-0.8550723563	 0.5425734582	 3.3858959747	-0.46457
H	 0.9493960476	 1.9828127981	-0.0756251324	 0.117152
H	-0.3650281537	 1.6026559921	-1.186640312	 0.114127
H	-0.7057338728	 1.8509498187	 0.5335314986	 0.131996
H	-0.7480336467	-0.5889417038	-0.1072303363	 0.101467
H	 0.9220611996	-0.4809417638	-0.6534444902	 0.110532
H	 0.4617731216	-2.3885270086	 2.5397952613	 0.116418
H	 0.2569508067	-2.5053381289	 0.7919747648	 0.112391
H	 2.7882135669	-2.6135618211	 2.3919601265	 0.095553
H	 2.600444136	-3.0373074853	 0.6761696415	 0.110903
H	 2.4408979422	 0.9123923371	 1.2078311738	 0.116092
H	 2.4336376441	 0.0101586743	 2.7456705306	 0.094671
H	-1.4746415132	 0.9441619435	 4.1490742177	 0.191927
45.0588	114.6157	149.9266	165.8606	206.1059	258.6941	266.7129	366.4694	401.3413	504.7148	525.3998	580.5211	622.1304	631.5149	685.5604	752.1613	791.8662	825.0307	915.6237	947.4055	971.4885	991.7826	1007.4545	1031.5284	1054.4212	1104.834	1141.3127	1169.8733	1192.1969	1237.2446	1264.1555	1285.2263	1301.6516	1324.0348	1358.3968	1367.128	1398.0056	1414.5391	1482.6083	1495.9556	1497.5249	1504.9814	1511.1626	1526.5309	2229.0889	2982.2826	2988.099	3032.0729	3041.2245	3071.0629	3072.614	3092.2546	3104.6794	3116.5463	3120.2175	3124.6302	3500.4852
CCC1(CCOC1)C#C	CC[C@]1(CCOC1)C#C	
InChI=1S/C8H12O/c1-3-8(4-2)5-6-9-7-8/h1H,4-7H2,2H3	InChI=1S/C8H12O/c1-3-8(4-2)5-6-9-7-8/h1H,4-7H2,2H3/t8-/m0/s1
