23
gdb 103652	2.47069	1.29643	1.08122	1.2496	87.82	-0.2295	0.0185	0.2481	1282.7575	0.203904	-388.313488	-388.303504	-388.30256	-388.348117	37.994	
C	 0.317276613	 1.4912211175	 0.1797001551	-0.39033
C	 0.1512775869	-0.0160708754	-0.0355916623	-0.184583
C	 0.6232241631	-0.5213641658	-1.4171702919	 0.334838
C	-0.1827379186	 0.0993061258	-2.5700177982	-0.417279
O	 2.0143468828	-0.1774995452	-1.5870494976	-0.316833
C	 2.8155478662	-1.3373884066	-1.830683623	 0.079561
C	 3.9815817701	-1.3897339591	-0.8427172755	-0.389939
C	 1.8474677143	-2.4865235251	-1.7247429864	-0.106835
C	 0.6248127558	-2.0313532063	-1.4868044826	-0.124015
H	 1.3520180353	 1.7897859343	-0.0080398459	 0.133937
H	-0.3303151389	 2.0739900977	-0.4822603575	 0.113184
H	 0.0632823762	 1.7624922933	 1.2090493381	 0.106966
H	 0.7250360534	-0.5573865488	 0.7249918024	 0.095472
H	-0.8993782256	-0.3039836064	 0.1002408112	 0.086895
H	-0.04708558	 1.1833091095	-2.5969709564	 0.125501
H	 0.1537123002	-0.3102328877	-3.5261360372	 0.116419
H	-1.251968245	-0.1124999991	-2.4605957213	 0.107088
H	 3.2300541576	-1.2737211355	-2.8519034757	 0.076888
H	 3.6127636023	-1.4877092401	 0.1824979543	 0.118347
H	 4.6355136277	-2.2403733542	-1.0633665363	 0.108724
H	 4.5750561039	-0.4738135585	-0.9139622508	 0.124239
H	 2.1486034142	-3.521046452	-1.8361977541	 0.102121
H	-0.276966575	-2.6185011823	-1.3622731085	 0.099632
63.3864	90.3918	165.2365	211.6038	215.2866	238.7502	285.7185	299.2032	338.7809	358.0137	441.4089	469.087	556.6466	627.1761	739.2411	770.7296	780.9259	813.1583	865.8668	883.5251	921.292	956.1072	959.3359	996.2749	1011.1679	1061.8159	1068.897	1093.4322	1121.525	1134.7298	1185.57	1205.292	1216.2165	1305.8658	1326.2493	1359.163	1369.962	1376.1581	1400.5544	1401.505	1406.0441	1473.1841	1486.1184	1486.6017	1492.85	1495.1059	1507.2334	1512.3174	1693.3314	2943.8378	3022.1828	3035.8399	3039.5895	3043.8026	3063.8488	3106.7477	3108.8621	3110.8565	3120.3355	3123.3333	3127.2136	3196.895	3222.1719
CCC1(C)OC(C)C=C1	CC[C@@]1(C)O[C@@H](C)C=C1	
InChI=1S/C8H14O/c1-4-8(3)6-5-7(2)9-8/h5-7H,4H2,1-3H3	InChI=1S/C8H14O/c1-4-8(3)6-5-7(2)9-8/h5-7H,4H2,1-3H3/t7-,8+/m0/s1
