17
gdb 123719	3.61173	1.64131	1.14424	2.7028	79.48	-0.228	0.0134	0.2414	1027.5307	0.140351	-380.911888	-380.905079	-380.904135	-380.943314	26.757	
C	-0.0079029302	 1.397504603	-0.1365158243	-0.179532
C	 1.3303577355	 2.0266674993	 0.1099199815	-0.071108
C	 2.437979075	 1.3434771145	 0.3841651014	-0.053623
C	 2.4938721438	-0.1559287194	 0.4834562317	-0.387201
C	 1.1617000011	-0.7934974394	 0.2395223783	 0.396355
C	 0.7405024259	-2.1115403874	 0.2281612369	-0.34354
C	-0.6344061097	-2.0436612563	-0.0663895336	 0.003432
N	-1.0475886455	-0.7884508558	-0.2276492224	-0.282326
N	 0.0618817211	-0.0457033717	-0.0369639789	-0.025699
H	-0.7501590838	 1.7676717453	 0.5832958287	 0.136822
H	-0.3870580782	 1.6670187295	-1.1313625883	 0.136809
H	 1.350972882	 3.1106599006	 0.0509717694	 0.101113
H	 3.3713284973	 1.8736538973	 0.5506768625	 0.09761
H	 3.2344764726	-0.5461325931	-0.2295986681	 0.13245
H	 2.8751982081	-0.4468780445	 1.4729559347	 0.132437
H	 1.3440416043	-2.9869393868	 0.407269239	 0.097556
H	-1.3411141991	-2.854460565	-0.1679636284	 0.108445
80.837	172.6441	260.2136	391.244	396.8901	492.554	595.7308	645.2728	666.11	682.1574	730.5952	783.0599	887.9637	893.2116	932.2247	950.2033	972.5118	990.9431	1003.5212	1025.3217	1066.5124	1160.5006	1188.9368	1206.4002	1221.7162	1239.8915	1275.0204	1324.5778	1375.4662	1384.9526	1413.937	1451.7764	1471.2802	1496.192	1535.2429	1579.5672	1741.0196	3002.1367	3014.7005	3015.5395	3035.2647	3162.5449	3184.8353	3240.8848	3264.9163
C1C=CCC2=CC=NN12	C1C=CCc2ccnn12	
InChI=1S/C7H8N2/c1-2-6-9-7(3-1)4-5-8-9/h1-2,4-5H,3,6H2	InChI=1S/C7H8N2/c1-2-6-9-7(3-1)4-5-8-9/h1-2,4-5H,3,6H2
