18
gdb 78822	3.53645	1.29257	1.12159	4.4179	79.53	-0.2698	0.0376	0.3074	1116.834	0.148762	-364.77873	-364.77111	-364.770166	-364.810757	29.852	
C	 0.0683739101	 1.5989508261	 0.0886962114	-0.42746
C	 0.1134063937	 0.0792970841	-0.0060830105	 0.017085
C	 0.8029500429	-0.633323999	-1.1718823976	-0.097502
C	 2.2785000989	-0.8445585767	-0.7972984187	-0.057473
C	 1.2140853601	-1.787777013	-0.2940903843	-0.074656
C	 1.0473199484	-0.7737258585	 0.9080946497	-0.076676
C	 2.490876845	-0.2462710851	 0.6003814143	-0.178215
C	 3.5162700244	-0.9476467752	 1.3614367549	 0.270375
N	 4.3312960445	-1.4942561888	 1.9730388876	-0.330728
H	 1.0473466466	 2.0581051926	-0.0753752332	 0.121181
H	-0.6107685039	 2.0070309883	-0.6676251318	 0.121605
H	-0.2983006923	 1.9215887692	 1.0695083012	 0.121199
H	-0.8996375375	-0.3269471402	 0.094180913	 0.082585
H	 0.4998134266	-0.6668285855	-2.2110098159	 0.093627
H	 3.0373312476	-1.0292507346	-1.5453620604	 0.106403
H	 1.0925891976	-2.856109858	-0.3850351777	 0.105513
H	 0.7730377405	-1.0148981003	 1.9320561233	 0.092294
H	 2.6598741368	 0.8315973144	 0.6911171245	 0.110843
123.7594	153.1537	177.0091	239.2941	276.2825	416.1717	503.3173	543.211	560.3692	678.3928	784.3411	792.9326	809.0669	831.7106	882.5996	904.1572	906.818	938.6438	1012.0501	1014.0469	1033.3315	1038.3867	1041.7409	1086.3269	1116.2535	1136.2311	1148.1483	1174.1863	1194.7924	1226.475	1257.3628	1301.3907	1347.4586	1360.2409	1389.0795	1415.2373	1491.8627	1502.5305	2354.1549	3033.219	3042.2621	3057.1795	3095.6856	3111.4358	3151.4359	3193.0249	3212.741	3239.6779
CC1C2C3C2C1C3C#N	C[C@H]1[C@H]2[C@@H]3[C@H]2[C@H]1[C@H]3C#N	
InChI=1S/C8H9N/c1-3-5-4(2-9)7-6(3)8(5)7/h3-8H,1H3	InChI=1S/C8H9N/c1-3-5-4(2-9)7-6(3)8(5)7/h3-8H,1H3/t3-,4-,5-,6+,7-,8+/m1/s1
