13
gdb 29113	3.11887	1.47809	1.00295	4.6787	65.8	-0.2077	-0.0441	0.1636	1069.0523	0.089018	-489.918718	-489.910651	-489.909707	-489.952254	29.057	
O	 0.0276629276	 1.3831194471	-0.0077447626	-0.41454
C	-0.0703896225	 0.0439711976	 0.0683413628	 0.415696
C	-1.1758089907	-0.6576743595	-0.1758259118	-0.184872
N	-1.1339226031	-2.0528422642	-0.0251315503	-0.361199
C	-0.0293730955	-2.7729100774	 0.3362129387	 0.37598
O	-0.0232059373	-3.9777236274	 0.4555380577	-0.339548
C	 1.2115771279	-1.9297763926	 0.5810776425	 0.275098
N	 2.3042799481	-2.4637830708	 0.9032140348	-0.453503
O	 1.1012764205	-0.5486095784	 0.4440693858	-0.273471
H	 0.9575013049	 1.6191189225	 0.0919608378	 0.311856
H	-2.1025924684	-0.2009845396	-0.4809124848	 0.146164
H	-1.9659341459	-2.5978899376	-0.192373933	 0.269214
H	 3.0316494245	-1.7582987897	 1.0312155223	 0.233126
42.5148	107.0925	118.0497	326.5194	330.8814	367.7445	399.0546	477.4336	490.2574	594.1422	602.3491	608.9522	698.7546	733.2464	789.4063	810.5991	905.8346	960.9194	1037.5996	1121.4469	1192.8613	1231.1413	1325.483	1362.5291	1407.1862	1462.3272	1748.0153	1793.949	1821.0755	3270.1679	3484.2133	3635.6259	3816.9269
OC1=CNC(=O)C(=N)O1	OC1=CNC(=O)[C]([NH])O1	
InChI=1S/C4H4N2O3/c5-3-4(8)6-1-2(7)9-3/h1,5,7H,(H,6,8)	InChI=1S/C4H4N2O3/c5-3-4(8)6-1-2(7)9-3/h1,5,7H,(H,6,8)
