18
gdb 12142	4.68931	1.54159	1.4055	1.1636	72.5	-0.2405	0.0825	0.323	938.2465	0.153424	-347.753732	-347.746332	-347.745388	-347.784892	29.65	
O	-0.2062392159	 1.4120989872	-0.001886582	-0.461821
C	-0.0968573301	 0.0332770339	 0.0446463324	 0.409343
C	-0.346949201	-0.8380202454	-1.1541299565	-0.342061
C	-1.2378292135	-0.973822479	 0.067271893	-0.196734
C	-0.5038910176	-1.765267132	 1.1323754715	 0.411019
C	-1.1168893339	-2.4282436862	 2.3255600947	-0.338923
C	-0.415375179	-3.2577169524	 1.2678028574	-0.322786
C	 0.6453649585	-0.7309516647	 1.1541539808	-0.386817
H	 0.5111860369	 1.7537097802	-0.5469320382	 0.284127
H	-0.8075771045	-0.315105591	-1.986773628	 0.109597
H	 0.3339194599	-1.639582296	-1.4328248063	 0.103535
H	-2.3069424783	-0.8047233939	 0.0197931572	 0.091627
H	-0.6292968457	-2.3068108362	 3.2879426515	 0.110223
H	-2.1997112811	-2.4834701382	 2.3806415725	 0.111776
H	-1.0253157141	-3.8708440168	 0.6119947202	 0.110918
H	 0.5449048342	-3.6953828524	 1.5218441103	 0.108989
H	 1.6553896027	-1.0876070983	 0.9218003019	 0.087653
H	 0.6668819624	-0.1584314688	 2.0855622774	 0.110333
115.3796	225.5485	252.709	271.3809	372.0922	391.2474	407.4715	462.1329	533.0965	666.2241	769.7702	774.8182	841.3041	863.1725	886.9983	920.4523	943.2791	960.4438	989.6225	1001.5709	1033.335	1049.4023	1071.0812	1075.6781	1094.374	1138.9113	1186.8881	1203.7953	1210.6149	1240.9745	1283.9751	1303.4587	1395.8589	1400.4594	1464.7416	1474.265	1496.307	1510.9251	3032.3657	3097.1668	3101.3345	3119.8587	3124.43	3184.1106	3197.6815	3200.4508	3212.8635	3791.2135
OC12CC1C1(CC1)C2	O[C@]12C[C@H]1C1(CC1)C2	
InChI=1S/C7H10O/c8-7-3-5(7)6(4-7)1-2-6/h5,8H,1-4H2	InChI=1S/C7H10O/c8-7-3-5(7)6(4-7)1-2-6/h5,8H,1-4H2/t5-,7-/m0/s1
