22
gdb 76716	3.14951	0.75006	0.71159	2.4962	84.14	-0.2202	-0.0225	0.1977	1683.3037	0.191227	-404.325758	-404.315072	-404.314127	-404.362676	37.555	
C	-0.009261331	 1.5607020956	 0.7212741821	-0.415909
C	 0.0224311271	 0.1050239606	 0.3031930465	-0.013605
C	 0.2935409465	-0.34815601	-1.0986237731	-0.003225
C	 0.5525484252	 0.6062481025	-2.2489999051	-0.233874
C	 1.3844651364	-0.0481488617	-3.3713984842	-0.268256
C	 1.4828948699	 0.8450474986	-4.5859096678	 0.15841
O	 2.5094465365	 1.2244260226	-5.0870983139	-0.236184
N	 1.2533231895	-0.6198228188	-0.0239919906	-0.100852
C	 2.5431988635	 0.0511541717	 0.0226727016	-0.317818
H	 0.6366128462	 2.2038624033	 0.1213356278	 0.120539
H	-1.0304522493	 1.9484705489	 0.640405169	 0.123943
H	 0.2975916863	 1.6651610823	 1.7678375613	 0.125708
H	-0.6712848632	-0.5058237776	 0.8824429592	 0.087172
H	-0.2193316322	-1.2530387709	-1.4315912239	 0.082937
H	-0.4172637494	 0.9221536072	-2.6572214595	 0.107606
H	 1.0541499047	 1.5184754147	-1.9165079191	 0.113259
H	 2.3939387054	-0.2966612182	-3.0338263977	 0.128326
H	 0.8900918636	-0.9800130057	-3.6827736763	 0.120611
H	 0.4947945226	 1.1538339281	-5.0047805307	 0.068532
H	 2.5670229563	 1.0849394179	-0.350286516	 0.10098
H	 2.8913708768	 0.065011148	 1.0605737	 0.124813
H	 3.2639445485	-0.531829989	-0.5599721398	 0.126887
46.8513	63.6247	85.425	124.6433	161.2708	168.3457	237.8987	243.0199	283.8764	333.6788	442.0604	500.7802	528.4756	553.0462	719.7244	762.3781	781.5974	837.8001	874.979	984.8997	1004.2685	1043.7557	1055.3485	1078.7389	1108.7537	1136.7169	1157.2243	1168.3629	1173.9578	1195.1215	1219.366	1264.7646	1303.1991	1352.55	1355.391	1396.3228	1414.6637	1429.7614	1436.645	1459.9329	1464.105	1481.7446	1488.2643	1498.5619	1508.0657	1510.61	1837.3045	2843.3093	2995.871	3013.3527	3021.0955	3037.8623	3066.3964	3069.2813	3087.9826	3092.0063	3092.8986	3097.7298	3110.1879	3133.2346
CC1C(CCC=O)N1C	C[C@H]1[C@@H](CCC=O)N1C	
InChI=1S/C7H13NO/c1-6-7(8(6)2)4-3-5-9/h5-7H,3-4H2,1-2H3	InChI=1S/C7H13NO/c1-6-7(8(6)2)4-3-5-9/h5-7H,3-4H2,1-2H3/t6-,7+,8?/m0/s1
