17
gdb 69641	3.10769	1.2928	1.17041	2.9936	74.54	-0.2405	-0.0228	0.2177	1108.3286	0.133692	-421.770474	-421.762374	-421.76143	-421.803035	30.995	
C	-0.1141658581	 1.5163357924	 0.0263575144	-0.504497
C	 0.109391182	 0.0421264604	 0.0075603365	 0.421949
O	-0.8221515784	-0.8240699691	 0.6745214221	-0.284637
C	 0.5736627121	-0.9251648525	 0.9994446693	-0.119668
C	 1.2914534722	-1.7797059963	-0.0808483143	 0.227349
C	 0.3465822771	-2.1820913024	-1.199405725	-0.336811
C	 0.781732819	-0.7641861453	-1.1552631765	-0.176429
C	 2.6649288944	-2.2524046687	 0.0396572622	 0.060032
O	 3.3248254196	-2.1807000082	 1.0531733753	-0.283215
H	 0.8043363808	 2.0488058567	-0.2407626866	 0.133075
H	-0.8911762379	 1.8015043004	-0.6918772491	 0.135607
H	-0.429259631	 1.8373608786	 1.0221626303	 0.142688
H	 0.8766438566	-0.8238663897	 2.0332470854	 0.126419
H	 0.8025954417	-2.7861328983	-1.9779602468	 0.127239
H	-0.6678891398	-2.4469645928	-0.9309444218	 0.152027
H	 1.3983156558	-0.3055757652	-1.9174975245	 0.114445
H	 3.085478604	-2.68632127	-0.8971611611	 0.064427
92.1649	169.5054	198.8373	209.6292	268.7979	324.3989	411.6475	463.3428	492.98	574.577	615.0545	688.7624	746.9241	780.3338	849.0737	875.6809	910.4983	960.3836	975.6978	999.4572	1013.2206	1048.9492	1068.9553	1104.2695	1118.5135	1175.4509	1196.3842	1227.3107	1300.2977	1366.259	1407.6437	1431.798	1454.1834	1473.3805	1485.1221	1501.903	1784.8267	2859.3414	3035.675	3098.5158	3127.8318	3140.5262	3204.6449	3212.554	3238.5076
CC12OC1C1(CC21)C=O	C[C@]12O[C@H]1[C@]1(C[C@@H]21)C=O	
InChI=1S/C7H8O2/c1-6-4-2-7(4,3-8)5(6)9-6/h3-5H,2H2,1H3	InChI=1S/C7H8O2/c1-6-4-2-7(4,3-8)5(6)9-6/h3-5H,2H2,1H3/t4-,5+,6+,7+/m0/s1
