16
gdb 43480	2.44471	1.92834	1.17589	1.1151	71.21	-0.2359	-0.0061	0.2298	1008.7268	0.127546	-434.101074	-434.093906	-434.092962	-434.132936	27.62	
N	 0.0292289188	 1.0532461671	 0.7002340835	-0.543696
C	 0.075284793	-0.0470027007	 0.0699640711	 0.387237
N	 1.1863300343	-0.7473663037	-0.4386970349	-0.375387
C	 0.9149340165	-2.0598103128	-0.792842059	 0.408194
O	 1.7120899565	-2.8884017254	-1.1545262425	-0.357727
C	-0.5970869402	-2.1743875315	-0.6489545137	-0.106905
C	-1.2237216612	-2.8219356404	 0.6216939391	-0.258055
C	-1.7964352272	-1.4136685117	 0.9528074548	-0.166661
N	-1.0483139378	-0.8360143566	-0.2053178023	-0.103843
H	 0.9571379801	 1.4459358266	 0.8440854824	 0.213967
H	 2.1237003342	-0.3759968782	-0.4378547576	 0.266599
H	-1.0368981618	-2.5063217216	-1.5939453209	 0.120812
H	-1.9524557723	-3.6095435102	 0.4290551942	 0.124427
H	-0.4850812946	-3.1866174772	 1.3377738377	 0.12933
H	-2.8767998389	-1.3179530611	 0.8238399313	 0.124785
H	-1.5066763595	-0.9697344025	 1.9074947467	 0.136922
99.3899	137.4137	225.3398	257.9342	378.2737	496.9016	562.8831	612.9303	656.8157	710.3575	721.615	742.743	774.4238	793.7546	830.1133	899.4854	941.2291	1014.5737	1054.8833	1068.9085	1095.3922	1121.2688	1197.7516	1208.9702	1230.1888	1247.3165	1259.8688	1311.3908	1321.4701	1345.9226	1396.9375	1489.4821	1517.1144	1762.6614	1856.0321	3067.2562	3071.3896	3085.1866	3121.2939	3145.9285	3511.1973	3642.1942
N=C1NC(=O)C2CCN12	[NH][C]1NC(=O)[C@H]2CCN12	
InChI=1S/C5H7N3O/c6-5-7-4(9)3-1-2-8(3)5/h3H,1-2H2,(H2,6,7,9)	InChI=1S/C5H7N3O/c6-5-7-4(9)3-1-2-8(3)5/h3H,1-2H2,(H2,6,7,9)/t3-/m1/s1
