19
gdb 92428	2.59034	1.58376	1.46959	2.5249	74.22	-0.2284	-0.0211	0.2072	1008.4356	0.160964	-423.048571	-423.040844	-423.0399	-423.080696	30.222	
C	-0.2126481612	 1.5380959911	 0.0126495077	-0.412928
C	 0.0154755706	 0.0287120527	 0.0259864146	 0.019256
C	 0.8832993023	-0.5063554214	-1.180489219	-0.248507
C	 2.0290796802	-1.3020829376	-0.5008481212	-0.158431
C	 2.9197616202	-0.2928089369	 0.2361928818	-0.07707
O	 2.0777763246	 0.2275319893	 1.2995740976	-0.287907
C	 0.8289638623	-0.4741300687	 1.2386936208	-0.012329
C	 1.268280508	-1.8498497891	 0.716305337	 0.429079
O	 1.0604469565	-2.9634743896	 1.1017934373	-0.323775
H	 0.7375312384	 2.070507038	 0.1082344221	 0.133433
H	-0.691832657	 1.8488264009	-0.9216214656	 0.114596
H	-0.8571666119	 1.8496774474	 0.8412030444	 0.11684
H	-0.9538827059	-0.4847633815	 0.030019293	 0.086007
H	 0.2946498315	-1.1465716644	-1.8421602563	 0.112949
H	 1.2832639631	 0.3163327783	-1.7818435659	 0.107042
H	 2.553166736	-2.0298405066	-1.1166067169	 0.091194
H	 3.8076181667	-0.7639491518	 0.6763433281	 0.112281
H	 3.2421227414	 0.5371401015	-0.4036455486	 0.105621
H	 0.3431983241	-0.4363550316	 2.2121115992	 0.09265
104.2531	145.0684	220.1844	252.9683	286.6992	376.907	421.4835	502.8017	558.6596	641.0103	715.9644	770.2762	812.8862	858.9443	865.409	894.4274	926.7051	953.4966	986.9829	1020.1255	1029.1295	1061.2085	1094.0149	1114.832	1148.2347	1177.4141	1200.3104	1214.0251	1233.8157	1273.3847	1292.5521	1313.3029	1331.504	1363.8191	1383.2538	1404.8684	1490.9244	1491.9029	1501.5682	1531.2285	1893.1955	3015.1356	3028.5982	3035.8385	3049.9656	3055.9912	3098.8162	3101.8504	3120.2762	3142.4759	3146.2043
CC1CC2COC1C2=O	C[C@H]1C[C@H]2CO[C@@H]1C2=O	
InChI=1S/C7H10O2/c1-4-2-5-3-9-7(4)6(5)8/h4-5,7H,2-3H2,1H3	InChI=1S/C7H10O2/c1-4-2-5-3-9-7(4)6(5)8/h4-5,7H,2-3H2,1H3/t4-,5-,7-/m0/s1
