19
gdb 116042	2.58553	1.45354	1.06289	2.8136	73.54	-0.2455	0.0079	0.2533	1168.0724	0.158866	-460.152535	-460.143628	-460.142684	-460.186137	33.039	
C	-0.0744826532	 1.3686209831	 0.0789327878	-0.240395
O	 0.0417181807	-0.0430599595	 0.004795154	-0.231979
C	 0.6598084404	-0.6161584955	 1.0948285584	 0.177842
O	-0.180360018	-0.4551480523	 2.2385182627	-0.275763
C	 0.4842952174	-0.8271998258	 3.4341362922	-0.131746
C	 1.1674530203	-2.1614012732	 3.3147038368	-0.064094
C	 1.3465192998	-2.7514768609	 2.1344892703	-0.097758
C	 0.865818894	-2.1155816453	 0.8472284056	 0.069349
O	-0.3127491269	-2.744325416	 0.3697416434	-0.422788
H	 0.9130651597	 1.8434865924	 0.1812212463	 0.10422
H	-0.5309332818	 1.6954791692	-0.8572857163	 0.130892
H	-0.7041544218	 1.6760143209	 0.9203773925	 0.129275
H	 1.6348961342	-0.1300957914	 1.3036475631	 0.052595
H	 1.2160599698	-0.050338558	 3.7246616302	 0.103513
H	-0.2801711958	-0.850300582	 4.2189500162	 0.122792
H	 1.5067855658	-2.622610975	 4.2387904262	 0.098502
H	 1.8069353608	-3.7319547805	 2.0597809619	 0.1003
H	 1.6098888838	-2.2436659211	 0.0536813664	 0.093244
H	-1.0165675095	-2.4907908789	 0.9797253523	 0.281999
98.8529	112.2081	161.3407	172.9621	243.4649	277.193	311.9421	369.6692	409.4006	490.8714	519.4852	532.9029	696.6672	749.8197	865.0048	870.5992	921.3475	955.7861	996.477	1025.8253	1038.8781	1071.9606	1095.1635	1116.2779	1175.0772	1180.9781	1200.5626	1239.5354	1268.5175	1278.4627	1315.7154	1370.8416	1396.211	1405.2475	1407.1986	1438.3338	1480.719	1483.8307	1487.477	1512.1661	1715.7153	2893.1599	2935.2823	2993.1	3058.8941	3060.1909	3076.0122	3131.9811	3156.7334	3182.7157	3785.2358
COC1OCC=CC1O	CO[C@H]1OCC=C[C@H]1O	
InChI=1S/C6H10O3/c1-8-6-5(7)3-2-4-9-6/h2-3,5-7H,4H2,1H3	InChI=1S/C6H10O3/c1-8-6-5(7)3-2-4-9-6/h2-3,5-7H,4H2,1H3/t5-,6+/m1/s1
