17
gdb 40858	5.15658	1.21312	1.13161	0.0171	70.85	-0.2379	0.0599	0.2978	1067.7838	0.135873	-421.695473	-421.688602	-421.687658	-421.727215	26.935	
C	 0.0923425756	 1.5774813733	-0.0654093727	-0.151019
O	 1.4545537503	 1.5910235993	 0.4084917351	-0.273632
C	 1.5116463952	 0.1508358212	 0.4631959133	-0.151015
C	 0.0612104096	 0.0390211193	-0.03906247	 0.305018
C	-1.0380096651	-0.8105926816	 0.6194097327	-0.197248
C	-1.8837841586	-0.8441014878	-0.6948641606	 0.10142
O	-2.0325453005	-2.2932428835	-0.7116358845	-0.331223
C	-0.6724606712	-2.0616502745	-0.2437230077	 0.101424
C	-0.4045058596	-0.8545668144	-1.200235577	-0.197246
H	-0.5908903888	 2.0832171847	 0.6302319491	 0.101881
H	-0.0039049301	 2.0424659974	-1.0558730378	 0.101881
H	 2.2832366646	-0.2565014666	-0.2040495377	 0.101882
H	 1.6962240998	-0.2157266638	 1.4820460714	 0.101881
H	-1.4120322202	-0.8033230278	 1.643296689	 0.089212
H	-2.7246087075	-0.2237496254	-1.0025871672	 0.103786
H	-0.0437927589	-2.9183292686	-0.0041515337	 0.103785
H	-0.0620716645	-0.8970301411	-2.2342694015	 0.089212
66.8569	149.1223	237.8105	307.7965	435.587	529.8851	561.1268	754.9971	797.0986	800.2303	813.8017	858.8874	870.2075	878.451	911.4661	951.7792	982.5182	983.4584	1032.8991	1038.1313	1095.7782	1103.5985	1110.4021	1128.1335	1150.0749	1156.7712	1164.9138	1171.4869	1180.0567	1194.5223	1230.9235	1308.9299	1327.3238	1342.3884	1399.7678	1506.4919	1532.8309	2992.8151	3004.6277	3037.8229	3038.6392	3115.4874	3120.2956	3125.9747	3138.9921
C1OCC11C2C3OC2C13	C1OCC21[C@H]1[C@@H]3O[C@H]1[C@H]23	
InChI=1S/C7H8O2/c1-7(2-8-1)3-5-4(7)6(3)9-5/h3-6H,1-2H2	InChI=1S/C7H8O2/c1-7(2-8-1)3-5-4(7)6(3)9-5/h3-6H,1-2H2/t3-,4+,5-,6+
