20
gdb 79448	2.71594	1.73838	1.36652	2.6751	77.89	-0.2251	0.0723	0.2974	1013.742	0.173081	-403.089561	-403.082047	-403.081103	-403.121055	30.828	
C	-0.2213637601	 1.6366269774	 0.095575175	-0.441091
C	 0.0527804151	 0.1427149232	 0.0206685416	 0.038793
C	 0.7163461012	-0.5410889558	-1.180003507	-0.020259
C	 2.2821042327	-0.2822066149	-1.2181572711	-0.130607
C	 2.393288851	-1.8023052328	-1.0084498531	-0.161669
N	 1.0834489761	-1.7167058024	-0.2727213666	-0.155946
C	 1.224826726	-0.5636947944	 0.7533631523	-0.048091
C	 2.4628677037	 0.195102635	 0.24452129	 0.151305
O	 3.6361289964	-0.2496324665	 0.9039796261	-0.448274
H	 0.6204486729	 2.2459745789	-0.2440789836	 0.118241
H	-1.0806318629	 1.8938289448	-0.5331430605	 0.119192
H	-0.4632999989	 1.9404484413	 1.1201708338	 0.122252
H	-0.8622736359	-0.4183604419	 0.2362929669	 0.09244
H	 0.2094391964	-0.7577643663	-2.1226905144	 0.073087
H	 2.7913460433	 0.2657036947	-2.0142146389	 0.054125
H	 2.2333661445	-2.3863629178	-1.9190662594	 0.099653
H	 3.2433775507	-2.1889676318	-0.4449945551	 0.115003
H	 1.1969054899	-0.8332174946	 1.8081926045	 0.077455
H	 2.3658869051	 1.2800684197	 0.3572453566	 0.063298
H	 4.3906608128	 0.1962293842	 0.505864243	 0.281094
164.5876	195.6452	236.8963	281.8357	300.3542	335.0971	485.8451	527.4419	553.8527	665.9329	724.2517	744.7725	811.245	842.2007	873.9563	900.6879	915.7987	943.2301	954.1876	1000.2734	1020.9169	1040.0965	1051.7911	1074.6933	1124.2666	1142.3785	1150.0132	1173.4803	1180.2332	1207.0483	1217.2826	1238.7963	1252.6845	1278.5866	1286.1323	1325.7715	1346.9661	1388.6206	1415.2493	1440.012	1495.8278	1498.5653	1506.0354	3032.5116	3042.2931	3058.1491	3062.884	3083.6849	3093.6762	3096.4541	3111.3037	3131.5523	3133.0144	3814.8136
CC1C2C3CN2C1C3O	C[C@H]1[C@H]2[C@@H]3CN2[C@H]1[C@H]3O	
InChI=1S/C7H11NO/c1-3-5-4-2-8(5)6(3)7(4)9/h3-7,9H,2H2,1H3	InChI=1S/C7H11NO/c1-3-5-4-2-8(5)6(3)7(4)9/h3-7,9H,2H2,1H3/t3-,4-,5-,6+,7-/m0/s1
