13
gdb 16083	4.80784	1.81425	1.55774	1.222	64.84	-0.247	0.0024	0.2494	799.5837	0.095544	-361.41848	-361.412057	-361.411113	-361.448845	24.913	
C	-0.0277908185	-1.1832158175	-0.0060100753	-0.394514
C	-0.008377142	 0.0185843454	 0.0226340403	 0.227185
C	 0.0373380683	 1.441483148	 0.0329891537	 0.217881
C	 0.3694191228	 2.2800092185	-1.178052695	-0.334073
C	 1.2859480024	 2.3500019493	 0.0168301975	-0.063296
N	 1.0167079383	 3.3912746402	 0.9730747309	-0.250848
C	-0.1556829526	 3.1689402858	 1.4131162511	 0.094748
O	-0.8297264883	 2.0724987067	 0.9795376562	-0.237384
H	-0.0472084648	-2.2449168562	-0.0250795266	 0.198635
H	 0.729617336	 1.7284534668	-2.0382725976	 0.138143
H	-0.2645251275	 3.1334930794	-1.3948051708	 0.132316
H	 2.3007724198	 1.9778051243	-0.0440257637	 0.121159
H	-0.6954962138	 3.7759110393	 2.1292695591	 0.150049
147.0511	161.5235	355.1535	388.0384	461.1345	528.14	571.4839	577.3186	638.676	697.1047	730.0075	791.8351	864.6066	918.9872	934.9257	952.3702	1018.8937	1044.7143	1075.5824	1114.927	1135.5642	1195.2974	1272.3777	1329.7887	1362.7122	1459.7894	1666.2291	2241.5707	3136.0015	3196.0552	3233.8395	3235.96	3501.4575
C#CC12CC1N=CO2	C#C[C@]12C[C@H]1N=CO2	
InChI=1S/C6H5NO/c1-2-6-3-5(6)7-4-8-6/h1,4-5H,3H2	InChI=1S/C6H5NO/c1-2-6-3-5(6)7-4-8-6/h1,4-5H,3H2/t5-,6+/m1/s1
