18
gdb 67862	2.52816	1.69127	1.41215	2.6642	78.07	-0.2514	0.0038	0.2551	1005.097	0.148619	-401.968567	-401.960766	-401.959822	-402.000622	30.41	
C	 0.0335456082	 1.6113233543	-0.0736587233	-0.474209
C	-0.0091595005	 0.0932616968	 0.015649862	 0.133471
C	-1.3820680553	-0.5347373289	-0.0687352295	-0.120335
C	-1.6048794732	-1.4211055608	 0.9015235659	-0.06574
C	-0.4337562244	-1.5639210209	 1.8477393029	-0.291696
C	 0.6367634929	-0.6777820368	 1.2076788525	 0.082656
O	 1.4901047056	-1.4092562157	 0.2623495119	-0.280522
C	 1.0200212365	-0.6745045428	-0.8071772528	 0.416275
N	 1.3653662754	-0.6653760953	-2.0117692858	-0.555271
H	 1.0488487116	 1.9889297433	 0.0797219596	 0.125526
H	-0.2950779043	 1.9383796174	-1.0647641722	 0.141593
H	-0.6252855338	 2.0660664859	 0.6727973131	 0.120158
H	-2.0731006264	-0.2798522442	-0.8638819078	 0.106579
H	-2.5170643331	-1.9958746409	 1.0179937747	 0.10247
H	-0.6831123318	-1.2349750697	 2.8647694345	 0.112917
H	-0.073060063	-2.5963435376	 1.9291760688	 0.128861
H	 1.2592902908	-0.1141206459	 1.9049374166	 0.090947
H	 2.1185451348	-1.3319208281	-2.191072411	 0.226319
121.4662	177.5265	191.3755	228.7758	276.8044	316.7607	432.8275	505.6607	621.0693	656.6797	682.0028	740.8941	784.2827	833.8508	855.2687	862.47	892.8238	944.4985	957.163	976.2239	1001.5031	1021.7081	1033.5771	1108.5824	1162.5766	1168.8091	1187.4167	1233.231	1236.2453	1290.8953	1325.7733	1350.5386	1383.7275	1409.9485	1465.6521	1490.724	1492.2173	1676.732	1818.2009	3025.4515	3037.615	3062.7281	3097.1196	3110.4992	3113.1027	3187.9481	3212.9152	3472.4572
CC12C=CCC1OC2=N	C[C@]12C=CC[C@H]1O[C]2[NH]	
InChI=1S/C7H9NO/c1-7-4-2-3-5(7)9-6(7)8/h2,4-5,8H,3H2,1H3	InChI=1S/C7H9NO/c1-7-4-2-3-5(7)9-6(7)8/h2,4-5,8H,3H2,1H3/t5-,7+/m1/s1
