18
gdb 115257	3.66164	0.92793	0.76949	4.1989	82.58	-0.2648	-0.0461	0.2186	1454.1251	0.147914	-401.970004	-401.961145	-401.960201	-402.004224	31.828	
C	 0.0303760734	 1.3855665797	-0.0722429242	-0.242798
O	-0.1037916584	-0.0110662979	 0.0741192383	-0.239822
C	 0.6450504758	-0.5588317364	 1.1427825116	 0.110888
C	 0.1316202508	-1.9827167379	 1.4455190248	-0.256101
C	 1.3812667412	-2.8265297742	 1.7859097812	-0.319802
C	 2.5089834461	-2.0075248003	 1.1805486013	 0.204006
C	 2.1109903312	-0.7780278535	 0.8319588082	-0.186366
C	 3.8317049765	-2.5148838314	 1.0517388549	 0.205469
N	 4.8982527989	-2.9577506281	 0.9599405119	-0.332818
H	 1.0560173803	 1.6853456786	-0.3337519859	 0.109747
H	-0.6357550117	 1.6882876506	-0.8833416289	 0.134613
H	-0.2605052937	 1.9185770685	 0.8462386977	 0.109306
H	 0.5505688277	 0.1029602673	 2.0224291299	 0.079034
H	-0.6223569215	-1.9980846732	 2.234435655	 0.11153
H	-0.3348106331	-2.3501162298	 0.5271656161	 0.132733
H	 1.5276617305	-2.926803797	 2.8682262923	 0.128251
H	 1.3414434974	-3.8413232164	 1.3796718524	 0.129351
H	 2.7523118486	-0.0161159187	 0.4064860634	 0.122778
74.6839	99.5877	123.7557	153.5955	199.959	273.7172	324.3861	421.9162	466.8704	538.6436	564.0949	584.7469	648.5515	839.7013	877.3821	903.6616	913.0014	971.4214	991.3724	1044.725	1084.0894	1131.0654	1163.323	1176.3262	1184.4243	1231.1459	1244.2854	1274.5211	1300.434	1320.7309	1340.4379	1381.6581	1478.8314	1483.7029	1492.1345	1499.5835	1508.3351	1677.3245	2337.8486	2937.375	2978.9364	3026.9213	3037.759	3071.0526	3086.1909	3119.4468	3125.3906	3217.7086
COC1CCC(=C1)C#N	CO[C@H]1CCC(=C1)C#N	
InChI=1S/C7H9NO/c1-9-7-3-2-6(4-7)5-8/h4,7H,2-3H2,1H3	InChI=1S/C7H9NO/c1-9-7-3-2-6(4-7)5-8/h4,7H,2-3H2,1H3/t7-/m0/s1
