20
gdb 105419	2.10745	1.43214	1.09103	3.1855	75.34	-0.2494	0.0207	0.2701	1195.3341	0.170528	-440.295823	-440.286345	-440.285401	-440.330265	34.982	
O	-0.1442225391	 1.2985021968	-0.7476520244	-0.426354
C	-0.132857256	-0.0290199665	-0.2520642213	-0.110343
C	-1.5380296499	-0.5222787157	 0.1181852414	 0.335568
C	-2.4575138842	-0.6732611732	-1.1215168607	-0.281543
C	-2.1275314064	-2.192379466	-1.1419660909	-0.218803
C	-1.5873027719	-2.0668698181	 0.3093738507	-0.246256
N	-2.0966625905	 0.3119834546	 1.1815595121	-0.355424
C	-1.6724467544	 0.2700557541	 2.4735855086	 0.139785
O	-0.7266883272	-0.375482596	 2.875601671	-0.324863
H	-0.4400004918	 1.8628725316	-0.0253767219	 0.280946
H	 0.2686362521	-0.6517103642	-1.0578972236	 0.106971
H	 0.5212142838	-0.1368858733	 0.6223925468	 0.125807
H	-3.508832938	-0.4939142448	-0.8733800869	 0.092218
H	-2.1900650695	-0.0663261106	-1.9886055681	 0.121715
H	-2.9654541215	-2.8734184472	-1.3004088181	 0.103915
H	-1.3453569956	-2.4394261946	-1.8635893792	 0.112085
H	-0.6422756715	-2.556625522	 0.5529217461	 0.113002
H	-2.3300232132	-2.3519047211	 1.0574878758	 0.107146
H	-2.9538058611	 0.8070194383	 0.9882430021	 0.246641
H	-2.2922906841	 0.9101361279	 3.1346203605	 0.077786
64.3064	114.2988	148.613	166.716	200.7002	240.6415	297.5413	339.3939	356.9545	416.6243	488.5228	549.3935	638.4338	714.7144	781.6856	849.1739	862.2413	906.0697	923.1307	935.9308	977.3817	1030.3418	1055.0306	1076.9541	1101.3463	1131.7426	1181.1612	1201.9263	1217.6982	1241.7945	1254.0147	1272.3604	1288.1823	1315.3265	1378.6818	1416.6369	1429.3982	1472.4675	1483.1684	1497.6736	1499.9568	1508.5786	1798.144	2922.5356	3030.0186	3049.0507	3070.6653	3074.712	3087.4256	3110.8487	3121.256	3133.6188	3618.7061	3809.3123
OCC1(CCC1)NC=O	OCC1(CCC1)NC=O	
InChI=1S/C6H11NO2/c8-4-6(7-5-9)2-1-3-6/h5,8H,1-4H2,(H,7,9)	InChI=1S/C6H11NO2/c8-4-6(7-5-9)2-1-3-6/h5,8H,1-4H2,(H,7,9)
