21
gdb 122812	2.96414	0.92158	0.78771	2.9429	76.86	-0.2389	-0.0357	0.2032	1536.5374	0.180196	-461.367252	-461.356775	-461.355831	-461.404583	36.901	
C	 0.0830672036	 1.4057234755	-0.8478818163	-0.381516
C	 0.1017979078	-0.100833281	-0.6109371012	-0.278934
C	 1.2329237536	-0.827110196	-1.3011715732	 0.393576
O	 2.0737729427	-0.2430748443	-1.9567535691	-0.315233
C	 1.2320310353	-2.3611037856	-1.1980379616	-0.172702
O	 0.5568086156	-2.8622383655	-2.3429106482	-0.261528
C	 1.3492090637	-3.5990517072	-3.2704960957	-0.075354
C	 2.2911013233	-2.7547805718	-4.1291598553	-0.074482
O	 3.4017273895	-2.2504326207	-3.4191213975	-0.4326
H	 1.0106557851	 1.867194754	-0.4998541747	 0.134381
H	-0.0124522456	 1.6306209867	-1.9132078677	 0.135358
H	-0.7543362824	 1.8693816297	-0.3198389372	 0.115597
H	 0.1677509072	-0.3419078088	 0.4605210119	 0.129299
H	-0.8293901363	-0.5804084485	-0.9456434833	 0.14365
H	 2.2649621644	-2.7177475987	-1.1435025955	 0.133415
H	 0.6842654255	-2.6872069082	-0.3043182835	 0.100813
H	 1.93432838	-4.3656444209	-2.7413812669	 0.100433
H	 0.6240346722	-4.1040993948	-3.9189076084	 0.104814
H	 2.6798879239	-3.402814978	-4.9259663374	 0.100465
H	 1.7131316096	-1.9521137545	-4.61114113	 0.095469
H	 3.1190785714	-1.4407686314	-2.9633410292	 0.305077
13.5244	89.495	104.4848	112.3021	186.6895	194.5616	235.9612	262.1627	325.1517	338.4681	415.8236	510.362	533.9901	627.7112	684.5846	764.4542	803.5461	838.1218	908.3014	958.2667	982.088	1000.3918	1077.577	1086.6147	1104.4157	1122.3749	1131.0583	1190.1926	1245.1967	1274.7109	1287.1844	1319.9065	1373.057	1396.1558	1404.2524	1409.9796	1416.3252	1443.1358	1463.4397	1476.7704	1487.0788	1489.7984	1494.3367	1498.3624	1787.5216	2993.4037	2999.4081	3009.1635	3016.7222	3038.3416	3048.3461	3053.5902	3072.418	3092.1412	3125.8899	3128.3916	3649.0262
CCC(=O)COCCO	CCC(=O)COCCO	
InChI=1S/C6H12O3/c1-2-6(8)5-9-4-3-7/h7H,2-5H2,1H3	InChI=1S/C6H12O3/c1-2-6(8)5-9-4-3-7/h7H,2-5H2,1H3
