18
gdb 59017	3.74359	1.11676	0.87688	4.3913	76.41	-0.2172	0.008	0.2252	1302.2435	0.147891	-435.316955	-435.307673	-435.306729	-435.351569	32.877	
C	 0.0621185193	 1.4444230198	-0.0229758297	-0.334681
N	 0.2117896388	-0.0042517009	-0.0176091618	-0.158229
C	-0.0558251849	-0.6806589833	 1.2381016791	-0.34744
C	 0.0433901504	-0.6470625611	-1.2135331174	 0.528047
N	-0.0717008387	-0.0681586613	-2.3586080621	-0.366721
C	-0.1538953454	-1.1316173898	-3.3521666351	-0.295395
C	-0.0979856115	-2.4582226208	-2.5864105463	 0.399671
O	-0.1427689478	-3.5980724569	-2.9770521535	-0.363227
N	 0.0254080476	-2.0476591414	-1.2631130325	-0.412007
H	 0.6564529593	 1.8688854881	 0.7913617608	 0.120543
H	 0.4163345459	 1.8288233863	-0.9783133192	 0.172483
H	-0.9851485937	 1.7536349696	 0.1061792203	 0.120175
H	-1.1287574595	-0.835899098	 1.4295365366	 0.12745
H	 0.4526629002	-1.6476110935	 1.2855253886	 0.129059
H	 0.3466730217	-0.0725746126	 2.0519840853	 0.140611
H	-1.0814988813	-1.0739402353	-3.9348087934	 0.138406
H	 0.6725103001	-1.0868055648	-4.072930912	 0.138603
H	 0.0918869893	-2.694435944	-0.4964888077	 0.262652
53.5972	105.6532	135.2515	149.5411	191.1051	233.7818	282.803	373.0062	419.3838	434.5423	547.6527	563.0803	603.3112	690.7267	735.3736	885.2244	921.7296	986.818	997.3887	1080.4621	1087.9376	1127.8738	1169.6701	1179.551	1181.7256	1226.4844	1287.348	1297.501	1345.4485	1441.8634	1454.5181	1462.3189	1478.2859	1495.3449	1498.1044	1503.8773	1534.2595	1697.7657	1854.5939	2987.2789	3003.9902	3030.4584	3058.6141	3079.6405	3083.9761	3117.411	3164.898	3675.4434
CN(C)C1=NCC(=O)N1	CN(C)C1=NCC(=O)N1	
InChI=1S/C5H9N3O/c1-8(2)5-6-3-4(9)7-5/h3H2,1-2H3,(H,6,7,9)	InChI=1S/C5H9N3O/c1-8(2)5-6-3-4(9)7-5/h3H2,1-2H3,(H,6,7,9)
