12
gdb 21605	3.54533	2.27984	1.38908	3.1825	61.91	-0.2258	-0.0648	0.161	800.6802	0.084906	-414.649058	-414.642598	-414.641654	-414.679496	24.587	
N	 0.0156495682	 1.3839649231	 0.1366634335	-0.585621
C	-0.0462122237	 0.0146643568	 0.0444543601	 0.138211
C	-1.1733180819	-0.7417699774	 0.0157640521	 0.02101
O	-1.1861458929	-2.0942914341	-0.021643266	-0.217931
N	-0.0241153507	-2.8151573934	-0.0312552517	-0.052776
C	 1.0815849783	-2.1425943234	-0.0122114552	-0.057453
C	 1.2307344538	-0.6908084001	 0.0160970518	 0.322247
O	 2.3109007977	-0.1092081981	 0.0049826866	-0.387392
H	 0.9390499729	 1.7359743859	-0.0821850187	 0.272225
H	-0.7484216868	 1.9245730402	-0.235819574	 0.256028
H	-2.1855126983	-0.3549331144	 0.0219100119	 0.140148
H	 1.9803338135	-2.7522263149	-0.0282473205	 0.151304
140.6753	285.1136	294.1082	379.0571	400.4537	443.1875	536.7952	553.4625	587.1104	602.175	767.1274	782.4357	855.3334	900.5021	918.6159	945.8922	1085.1971	1201.755	1237.3569	1295.709	1355.5731	1459.0488	1596.2383	1612.5077	1675.7477	1732.7296	3188.1943	3206.8212	3551.5998	3679.0174
NC1=CON=CC1=O	Nc1concc1=O	
InChI=1S/C4H4N2O2/c5-3-2-8-6-1-4(3)7/h1-2H,5H2	InChI=1S/C4H4N2O2/c5-3-2-8-6-1-4(3)7/h1-2H,5H2
