16
gdb 13699	4.44388	0.93437	0.81747	2.4065	71.03	-0.2551	0.0104	0.2656	1373.5861	0.128091	-383.682684	-383.673655	-383.672711	-383.717822	30.973	
C	-0.4342847477	 1.4279806678	 0.2298035036	-0.426797
C	 0.0393536575	 0.0070879685	 0.0840171511	 0.097602
O	 1.3912361005	-0.1968343147	-0.3155724736	-0.240686
C	 1.0144028073	-0.6220885259	 1.0077564026	-0.16291
C	 1.5820962151	 0.0814263974	 2.1247383551	 0.0731
C	 2.0673446192	 0.6461104497	 3.0731785385	 0.095628
C	 2.6079529602	 1.3423591003	 4.2397362368	-0.198521
O	 1.7834307787	 2.4021850305	 4.7032326787	-0.3994
H	 0.2868701904	 2.0241641771	 0.7924642061	 0.145205
H	-0.5717466253	 1.8820522633	-0.7568255721	 0.132001
H	-1.3977343048	 1.4554119742	 0.7499953672	 0.12205
H	-0.6655954762	-0.6751484145	-0.3963122156	 0.094096
H	 0.9709890383	-1.7054621404	 1.1203830098	 0.112358
H	 2.8085097364	 0.609121303	 5.0372538524	 0.121426
H	 3.5695426629	 1.8022260267	 3.9860532096	 0.1472
H	 0.9027460375	 2.0408915069	 4.8483629301	 0.287647
27.4536	69.6651	118.6247	173.5677	196.7499	264.6256	333.0313	358.7024	397.3805	462.7961	556.6569	617.9459	753.552	790.0971	862.7217	952.9898	982.6683	1012.3642	1048.3243	1078.4522	1135.9332	1163.8265	1191.608	1214.0153	1288.7872	1359.395	1377.6659	1413.1925	1415.4887	1446.8786	1485.7778	1488.2411	1496.9769	2354.4525	2978.3085	3040.8198	3064.733	3082.9934	3104.1286	3108.4377	3139.2271	3816.0702
CC1OC1C#CCO	C[C@H]1O[C@H]1C#CCO	
InChI=1S/C6H8O2/c1-5-6(8-5)3-2-4-7/h5-7H,4H2,1H3	InChI=1S/C6H8O2/c1-5-6(8-5)3-2-4-7/h5-7H,4H2,1H3/t5-,6+/m1/s1
