16
gdb 47457	2.81965	1.30271	1.05297	4.4693	70.32	-0.2455	0.0163	0.2618	1139.4607	0.126306	-434.094944	-434.086768	-434.085824	-434.128606	29.23	
N	-0.0814602641	 1.2869770005	 0.3114445004	-0.599843
C	-0.0229281511	 0.0658476496	-0.0100318476	 0.485412
O	 1.103001495	-0.6683952446	-0.2277261663	-0.24727
C	 0.7377555614	-1.9938457126	-0.6463508919	-0.09671
C	-0.7234383418	-2.1451561427	-0.2058908533	-0.197848
N	-1.1331573344	-0.7490221397	-0.2106092723	-0.111181
C	-2.4148995206	-0.3227922732	 0.3007634949	-0.292037
C	-2.6706787461	-0.7799611403	 1.6809755845	 0.260144
N	-2.8534651572	-1.1812126899	 2.7489321028	-0.307419
H	 0.8467355807	 1.6981591329	 0.3566716549	 0.232623
H	 0.842533515	-2.063755718	-1.7345805165	 0.12614
H	 1.414015291	-2.7050754855	-0.1699966774	 0.135261
H	-1.3126450832	-2.7424923148	-0.9078025961	 0.124998
H	-0.8092408073	-2.5936953475	 0.7945073339	 0.134368
H	-2.4234115916	 0.7704478055	 0.2776650648	 0.199772
H	-3.2220973456	-0.6929288896	-0.3407540448	 0.153591
54.466	88.1611	163.0283	189.7499	272.0105	299.46	371.4199	453.0684	542.5475	690.0315	700.8454	727.3732	781.9109	795.782	892.4663	905.5722	951.6374	980.6603	1013.0321	1087.3671	1144.5959	1152.2854	1220.2286	1239.8998	1253.7869	1301.7103	1334.2961	1375.4604	1404.3668	1442.1439	1457.4879	1521.6944	1531.5626	1778.776	2356.9484	3003.0351	3047.4429	3050.6315	3081.8771	3111.5673	3125.6341	3545.9496
N=C1OCCN1CC#N	[NH][C]1OCCN1CC#N	
InChI=1S/C5H7N3O/c6-1-2-8-3-4-9-5(8)7/h7H,2-4H2	InChI=1S/C5H7N3O/c6-1-2-8-3-4-9-5(8)7/h7H,2-4H2
