18
gdb 109121	3.19465	1.32857	0.95519	1.6395	76.4	-0.2157	0.0174	0.2331	1218.966	0.14822	-435.298251	-435.288931	-435.287987	-435.33334	32.427	
C	-0.0749679807	 1.3531627766	 0.0168749818	-0.236743
O	-0.0133792534	-0.0774964463	 0.0641376194	-0.264246
C	 0.6382313371	-0.5789788084	 1.1099314065	 0.512621
N	 1.2003818	 0.0738288417	 2.0551615853	-0.386529
C	 1.7638557866	-0.9544819427	 2.9349149797	-0.275541
C	 1.4114237187	-2.3085940451	 2.3084543063	 0.342025
N	 1.642998612	-3.5124741644	 2.6449142591	-0.552074
N	 0.7047908715	-1.9635521877	 1.1613431796	-0.145994
C	 0.1416413971	-2.89999118	 0.2117562748	-0.34659
H	 0.9312778615	 1.7773788689	-0.026235562	 0.145542
H	-0.6344967797	 1.5935208969	-0.8871169989	 0.134092
H	-0.5836270121	 1.7427212954	 0.9022182709	 0.14566
H	 2.8511409742	-0.8418461061	 3.0255403544	 0.132274
H	 1.3486591395	-0.8768817601	 3.9471345915	 0.132282
H	 2.1758962545	-3.5475930255	 3.5119270379	 0.219319
H	-0.9513987088	-2.8421271829	 0.1970723819	 0.135302
H	 0.5155484207	-2.7048327188	-0.7973268794	 0.136873
H	 0.4467979014	-3.8975061315	 0.5308283013	 0.171726
37.2623	92.8702	127.6829	148.3226	190.518	205.776	285.2163	293.5432	392.1763	542.3815	546.5075	630.7534	716.8866	733.7568	777.0873	815.7611	945.5109	997.0982	1013.4613	1061.3434	1074.0306	1157.7502	1182.8419	1192.7048	1204.7481	1236.7339	1256.2949	1292.8676	1388.1942	1414.5182	1455.188	1471.4425	1476.7034	1493.3284	1497.7133	1510.6293	1517.0597	1714.3212	1745.0609	3029.9248	3040.4566	3052.2034	3058.7682	3100.6719	3128.2402	3152.1748	3160.3579	3502.2519
COC1=NCC(=N)N1C	COC1=NC[C]([NH])N1C	
InChI=1S/C5H9N3O/c1-8-4(6)3-7-5(8)9-2/h6H,3H2,1-2H3	InChI=1S/C5H9N3O/c1-8-4(6)3-7-5(8)9-2/h6H,3H2,1-2H3
