16
gdb 43776	3.42041	1.29055	1.08898	3.0568	69.68	-0.2527	-0.0069	0.2459	1103.6752	0.124788	-437.851167	-437.843663	-437.842719	-437.883697	28.454	
O	 0.1319447494	 0.0994501295	-0.2238870784	-0.316448
C	 0.1753802893	 1.2758059721	-0.0835901713	 0.465606
O	-0.9039789216	 2.1655139904	-0.1066893981	-0.301511
C	 0.0213183604	 3.2961633057	-0.0669870043	 0.467051
C	 0.7251753647	 3.2693170635	 1.2380604174	-0.336595
C	 1.2025939948	 2.3553631256	 0.094044503	-0.32697
C	-0.2655956997	 4.4315846595	-0.9689544558	-0.110059
C	-0.9934896424	 4.2126389195	-2.2432546409	-0.244395
N	-1.6534997404	 4.901638916	-1.1192953186	-0.322626
H	 1.397227336	 4.0985722338	 1.439096981	 0.138593
H	 0.2391966172	 2.8433548773	 2.1098804582	 0.142041
H	 2.2062226041	 2.3729301111	-0.304268028	 0.135396
H	 0.4687931666	 5.2313019178	-0.9055347361	 0.101049
H	-0.7715266016	 4.8426198036	-3.0993657216	 0.124596
H	-1.3012343411	 3.1987388199	-2.4779252936	 0.135134
H	-2.2802463757	 4.2482290847	-0.6528438231	 0.249138
71.1276	116.0056	177.5452	259.0166	386.0063	414.1229	482.2122	508.7303	632.4417	702.4252	766.6169	828.9095	838.4085	858.1522	909.0458	942.0916	954.4276	969.2833	988.383	1004.2862	1041.1022	1065.0624	1099.3141	1110.9465	1137.9634	1175.767	1223.2633	1245.5078	1271.2997	1300.8032	1340.2728	1453.7263	1495.9204	1515.8458	1950.0907	3121.6872	3124.8057	3136.0522	3213.5125	3217.2291	3233.705	3492.4287
O=C1OC2(CC12)C1CN1	O=C1O[C@]2(C[C@@H]12)[C@H]1CN1	
InChI=1S/C6H7NO2/c8-5-3-1-6(3,9-5)4-2-7-4/h3-4,7H,1-2H2	InChI=1S/C6H7NO2/c8-5-3-1-6(3,9-5)4-2-7-4/h3-4,7H,1-2H2/t3-,4+,6-/m0/s1
