14
gdb 131103	3.41445	1.22168	0.93697	1.3341	67.92	-0.2705	-0.0102	0.2602	1169.2196	0.101489	-432.820936	-432.812809	-432.811864	-432.85468	29.335	
O	 0.1373157737	 1.4912455716	-0.0294150605	-0.405708
C	 0.108751184	 0.0665773342	-0.0102821675	-0.167611
C	 0.6546199776	-0.5133798372	-1.240104593	 0.323125
C	 1.118647111	-0.9430978763	-2.2611492782	-0.450335
C	 0.7932774448	-0.4563992642	 1.2330528936	 0.292962
N	 1.2388153123	-1.706401442	 1.3639198286	-0.273114
N	 1.7179087214	-1.7252388652	 2.6000461114	-0.06667
N	 1.6327378009	-0.5980726102	 3.2919079603	-0.197062
C	 1.0375388455	 0.2327022706	 2.4352483957	-0.125226
H	 1.036124048	 1.7570311907	-0.2565963742	 0.289431
H	-0.9593475049	-0.1806945654	 0.0485418807	 0.143179
H	 1.5222144397	-1.3367090447	-3.1613289164	 0.204273
H	 2.1403227403	-2.5535036858	 2.9879682984	 0.295663
H	 0.8159081957	 1.2530068339	 2.698785361	 0.137094
30.5109	116.13	180.6593	216.1621	284.069	336.4175	423.3245	471.0356	536.086	583.7322	635.6288	676.3833	679.4477	725.0604	815.7107	899.6511	942.442	995.7409	1034.8519	1066.6542	1154.597	1205.7726	1230.9817	1264.8801	1304.0602	1361.0983	1402.3156	1416.6389	1477.0857	1556.9298	2241.0023	3026.0945	3289.2564	3503.4912	3666.1349	3798.5117
OC(C#C)C1=NNN=C1	O[C@@H](C#C)c1n[nH]nc1	
InChI=1S/C5H5N3O/c1-2-5(9)4-3-6-8-7-4/h1,3,5,9H,(H,6,7,8)	InChI=1S/C5H5N3O/c1-2-5(9)4-3-6-8-7-4/h1,3,5,9H,(H,6,7,8)/t5-/m0/s1
