13
gdb 29428	6.75951	0.87805	0.78909	4.4075	63.5	-0.2155	-0.0262	0.1893	1339.5321	0.089037	-489.922588	-489.914609	-489.913665	-489.955853	28.304	
N	 0.0393639351	 1.333940254	 0.3100005101	-0.596276
C	-0.047185353	-0.0234929659	 0.0570268337	 0.286408
C	-1.1247069069	-0.8330789546	-0.1207638464	-0.128271
O	-0.6372753834	-2.1320354293	-0.2720496105	-0.189418
C	 0.6875326626	-1.9859722042	-0.1616739547	 0.499385
O	 1.4588049688	-3.0774548474	-0.3164818725	-0.21534
C	 1.0186719008	-4.2806535109	 0.1978457444	 0.166817
O	 1.6161186368	-5.2845877514	-0.0071196446	-0.235322
N	 1.1183088871	-0.7872210305	 0.031378962	-0.374581
H	 0.9437424902	 1.7114661524	 0.063441136	 0.262935
H	-0.7152042747	 1.8862802446	-0.0702871078	 0.253835
H	-2.1911369523	-0.7135706348	-0.1594786927	 0.142022
H	 0.0983834689	-4.173589332	 0.7899035129	 0.127806
53.0011	115.8366	154.5055	245.0439	280.886	338.9215	387.505	475.7335	541.763	600.8069	625.3188	701.4179	713.3445	757.2985	846.3435	991.3662	1014.9041	1032.1817	1080.6834	1107.4977	1133.7458	1254.9882	1370.2893	1399.1527	1426.0041	1622.0327	1646.9146	1681.0778	1891.2944	3046.6875	3315.4204	3564.9198	3665.8871
NC1=COC(OC=O)=N1	Nc1coc(OC=O)n1	
InChI=1S/C4H4N2O3/c5-3-1-8-4(6-3)9-2-7/h1-2H,5H2	InChI=1S/C4H4N2O3/c5-3-1-8-4(6-3)9-2-7/h1-2H,5H2
