14
gdb 29489	3.38845	1.68174	1.13181	2.4922	69.57	-0.2154	-0.0148	0.2007	1003.1027	0.103088	-436.715309	-436.708512	-436.707567	-436.746604	25.736	
C	-0.0145888234	 1.5501170632	 0.000297278	-0.50623
C	-0.0063150844	 0.0561625658	 0.0462788779	 0.056114
C	-0.0340502284	-0.8092790896	-1.0196055684	-0.082714
O	-0.0170332744	-2.1436832777	-0.6590426357	-0.19538
C	 0.0230765906	-2.1117874681	 0.6868069932	 0.325938
C	 0.0311411287	-0.838919117	 1.1578342971	 0.206482
O	 0.0719297326	-0.9177180203	 2.5200122869	-0.205056
C	 0.0862490843	-2.2748934675	 2.7454086404	 0.036777
N	 0.057113922	-3.0379160785	 1.6893837179	-0.347115
H	 0.8815212666	 1.9688176978	 0.4710179197	 0.139856
H	-0.0511372816	 1.9069134318	-1.0321324489	 0.13249
H	-0.8805463907	 1.9607943621	 0.5306759624	 0.139831
H	-0.066842918	-0.6261661122	-2.0809797803	 0.143601
H	 0.1188266761	-2.5796880796	 3.7786792997	 0.155406
140.3954	171.6264	234.9823	253.6869	403.1216	532.6304	593.2099	600.7018	634.785	693.4064	723.358	764.7193	792.8126	795.9836	935.3766	1010.9603	1063.5871	1065.2836	1093.4137	1128.0405	1201.9052	1257.6561	1316.3674	1422.7609	1429.1117	1464.1959	1480.6785	1500.9593	1528.7117	1568.7781	1637.6675	3035.0715	3088.0902	3119.0719	3279.7518	3287.6987
CC1=COC2=C1OC=N2	Cc1coc2c1ocn2	
InChI=1S/C6H5NO2/c1-4-2-8-6-5(4)9-3-7-6/h2-3H,1H3	InChI=1S/C6H5NO2/c1-4-2-8-6-5(4)9-3-7-6/h2-3H,1H3
