17
gdb 48801	2.21222	1.50923	1.13678	3.1925	80.41	-0.2485	-0.024	0.2245	1122.9055	0.134405	-384.641132	-384.632738	-384.631794	-384.67426	31.683	
O	-0.1115730976	 0.0061399905	 0.0857660246	-0.270474
C	-0.0109418999	 1.2066458639	-0.0152214432	 0.058715
C	 1.2572699785	 1.9380046342	 0.0141570764	 0.273804
C	 1.3573020247	 3.4159877175	 0.3170417129	-0.340489
C	 1.7522047654	 2.9716156368	-1.0447347629	-0.09211
C	 3.134734109	 2.3136498502	-1.0474663922	-0.241521
C	 2.6479273641	 1.272490215	 0.0323319021	-0.248036
C	 3.3561947554	 1.2316135611	 1.2978942115	 0.326185
C	 3.9516019148	 1.2309150405	 2.342827748	-0.46704
H	-0.9071932712	 1.8533199142	-0.1663604697	 0.064774
H	 0.4053472926	 3.9336332631	 0.3873325161	 0.127429
H	 2.1025422653	 3.7370595647	 1.0397302255	 0.136326
H	 1.2097557902	 3.2887696374	-1.926884471	 0.107959
H	 3.3829521192	 1.8291807953	-1.9927793351	 0.11995
H	 3.9637082036	 2.9575715323	-0.7436791966	 0.116772
H	 2.577825464	 0.2693847856	-0.3954310742	 0.129147
H	 4.472780202	 1.2097645077	 3.2677735377	 0.198609
81.9623	130.2541	144.0641	209.4424	251.3262	332.55	405.4557	470.2103	511.7054	555.4083	626.7831	632.5163	677.2357	751.5616	793.8399	818.8619	878.3802	936.639	971.187	1011.7543	1035.1684	1052.2457	1058.6175	1088.9372	1091.2029	1150.5334	1199.6656	1230.7595	1264.6689	1307.3767	1346.6294	1382.3091	1436.8366	1477.3948	1494.7679	1799.3398	2233.5964	2853.1879	3069.9498	3082.9985	3117.8559	3131.001	3190.4206	3207.1147	3503.3902
O=CC12CC1CC2C#C	O=C[C@]12C[C@H]1C[C@H]2C#C	
InChI=1S/C8H8O/c1-2-6-3-7-4-8(6,7)5-9/h1,5-7H,3-4H2	InChI=1S/C8H8O/c1-2-6-3-7-4-8(6,7)5-9/h1,5-7H,3-4H2/t6-,7-,8+/m1/s1
