16
gdb 63449	1.89586	1.8031	1.08571	4.9693	75.58	-0.2906	-0.0296	0.261	1120.3594	0.122538	-396.931419	-396.922146	-396.921202	-396.965143	33.51	
C	-0.0657314471	 1.5248979438	 0.0052549727	-0.44285
C	-0.0395957039	 0.0111614994	 0.0090335007	 0.261745
C	-1.2624649411	-0.6579575202	-0.582508057	-0.472374
N	 1.2768699723	-0.5783575904	-0.2057729165	-0.354202
C	 0.6909663008	-0.6912359724	 1.1574027975	-0.003218
C	 1.3530813805	 0.0774714128	 2.1905683729	 0.288235
N	 1.8552963971	 0.707258753	 3.0186645026	-0.330029
C	 0.2061024133	-1.9781377703	 1.6007491693	 0.253924
N	-0.1777134	-3.0173943146	 1.9320325069	-0.330838
H	 0.8528024056	 1.9416956338	 0.4201320495	 0.159419
H	-0.1694104902	 1.8815041109	-1.0246033185	 0.136028
H	-0.9166376833	 1.8976725937	 0.582924526	 0.138557
H	-1.3388375846	-0.3944753854	-1.6427148971	 0.140846
H	-1.2238195739	-1.7463096336	-0.4977377069	 0.148811
H	-2.1728492047	-0.3099208526	-0.0857904268	 0.147873
H	 1.2144656892	-1.484476938	-0.667791155	 0.258073
118.0849	137.7488	155.414	165.5564	180.9651	229.5483	322.6664	355.0352	392.6944	411.57	493.6828	544.0005	586.417	601.6885	625.1837	735.7322	827.2465	962.3046	964.3299	990.3897	1052.0805	1087.0702	1118.8597	1149.0453	1263.3494	1334.0047	1368.4645	1417.1768	1428.0329	1475.2687	1483.2389	1496.4937	1506.3869	2354.1989	2365.3741	3042.7712	3048.8379	3109.7324	3115.3298	3132.2103	3149.3468	3490.289
CC1(C)NC1(C#N)C#N	CC1(C)NC1(C#N)C#N	
InChI=1S/C6H7N3/c1-5(2)6(3-7,4-8)9-5/h9H,1-2H3	InChI=1S/C6H7N3/c1-5(2)6(3-7,4-8)9-5/h9H,1-2H3
