19
gdb 97626	2.95165	0.71188	0.60313	0.8739	88.37	-0.2526	0.0154	0.2681	1903.0668	0.155045	-385.810395	-385.799405	-385.798461	-385.848642	37.77	
C	 0.1964570658	 1.322428679	-0.5784006857	-0.366406
C	-0.0847107843	 0.2604020362	 0.4999673073	-0.320329
C	-1.4202165627	-0.3177087638	 0.4039166345	 0.186472
C	-2.5221272127	-0.7912571626	 0.3094563792	-0.003936
C	-3.8738512481	-1.3402895964	 0.1973793094	-0.229165
O	-3.7910464014	-2.6394390859	-0.3765453322	-0.228085
C	-5.04967692	-3.1670740292	-0.7474595134	-0.233106
C	-4.5572588701	-1.3502406906	 1.5047287765	 0.350187
C	-5.1377793946	-1.3705147538	 2.556337269	-0.475169
H	 1.2083520698	 1.7220574741	-0.4638990913	 0.115842
H	 0.1061068575	 0.8925868967	-1.5795338683	 0.13067
H	-0.5121212671	 2.1515767234	-0.5017789499	 0.128605
H	 0.6578776756	-0.5443900582	 0.427821335	 0.135713
H	 0.0460172056	 0.7015119281	 1.4963765881	 0.133183
H	-4.4602292948	-0.6900145076	-0.4779754465	 0.116469
H	-4.857616197	-4.1409414212	-1.2022777638	 0.131393
H	-5.7112538794	-3.2967678863	 0.1192998352	 0.121563
H	-5.5565745154	-2.5222255258	-1.4825492938	 0.104345
H	-5.6382518668	-1.383131706	 3.4931401507	 0.201753
12.7797	71.1841	87.1228	116.7369	148.3233	186.5571	217.1259	247.3587	304.9414	318.6172	369.8883	463.1794	528.8443	538.3855	585.2147	633.9859	674.7268	783.9235	808.3249	904.7191	974.5007	993.1211	1080.2082	1103.8371	1118.7763	1173.9496	1182.5312	1212.1898	1285.6786	1327.8732	1342.8739	1352.4488	1409.4948	1471.7359	1474.6254	1483.8871	1495.3303	1505.7491	1510.6528	2233.512	2375.6164	2926.9312	2981.081	3023.2727	3045.4252	3045.9377	3051.3939	3119.0433	3124.889	3126.1335	3502.0601
CCC#CC(OC)C#C	CCC#C[C@@H](OC)C#C	
InChI=1S/C8H10O/c1-4-6-7-8(5-2)9-3/h2,8H,4H2,1,3H3	InChI=1S/C8H10O/c1-4-6-7-8(5-2)9-3/h2,8H,4H2,1,3H3/t8-/m0/s1
