14
gdb 23968	6.21332	0.89822	0.78477	2.2582	92.29	-0.2062	-0.009	0.1972	1363.0758	0.100481	-362.392513	-362.384412	-362.383468	-362.424962	31.07	
C	 0.1265675254	-1.2037081392	-0.0056474974	-0.431917
C	 0.0166067487	-0.0034934587	 0.0024375737	 0.246044
C	-0.0911252789	 1.4002849416	 0.0116818588	 0.21002
C	-1.1962186349	 2.230862141	 0.0312777335	-0.380847
C	-0.7310287426	 3.5785096285	 0.032436542	 0.165052
C	 0.6571599551	 3.5232596376	 0.0133142534	-0.181958
N	 1.0277844329	 2.2164694835	 0.0010454577	-0.315169
C	-1.519875706	 4.7524649758	 0.049629805	 0.200261
C	-2.2009853525	 5.7458323039	 0.0643660512	-0.415259
H	 0.2104452228	-2.2620538819	-0.0125800486	 0.192018
H	-2.2248980741	 1.9100173018	 0.0434407883	 0.118204
H	 1.3824725294	 4.3200194564	 0.0078903847	 0.138299
H	 1.973091582	 1.8737124248	-0.0136119625	 0.273418
H	-2.8002343172	 6.621751345	 0.0773442003	 0.181833
108.6191	114.9651	194.0778	205.4856	435.7469	465.1571	471.4207	513.0385	513.746	536.784	548.5989	568.6457	651.0263	658.4018	665.3842	680.424	682.6739	762.8198	843.4373	987.8932	992.2628	1144.3063	1163.2275	1239.2691	1335.1254	1374.8513	1440.4848	1512.3229	1598.3615	2227.7517	2233.8904	3273.5913	3275.3527	3502.3941	3505.7526	3678.8449
C#CC1=CC(=CN1)C#C	C#Cc1cc(c[nH]1)C#C	
InChI=1S/C8H5N/c1-3-7-5-8(4-2)9-6-7/h1-2,5-6,9H	InChI=1S/C8H5N/c1-3-7-5-8(4-2)9-6-7/h1-2,5-6,9H
