20
gdb 98079	3.23181	0.9686	0.82508	1.2364	78.	-0.2366	-0.0596	0.177	1477.1019	0.16854	-440.34578	-440.334947	-440.334003	-440.382405	37.477	
C	 0.1053452333	 1.4282061248	 0.1588843163	-0.334973
N	 0.1321072562	-0.0072443388	-0.0190145068	-0.299181
C	 0.6899110833	-0.6114698938	-1.0885573102	 0.32537
O	 1.2357798263	-0.0527628792	-2.0269134196	-0.377984
C	 0.5614622899	-2.1555810558	-1.0148235512	 0.296495
O	-0.021572913	-2.6630956224	-0.081250862	-0.32561
C	 1.205278304	-2.9337799959	-2.1434760025	-0.055193
C	 2.7376611218	-2.9331969305	-1.931606626	-0.401683
C	 0.6373666125	-4.3505113699	-2.240612192	-0.394914
H	 0.6301114583	 1.7239718748	 1.07391753	 0.132722
H	 0.605608812	 1.8769547339	-0.7006477766	 0.168783
H	-0.9229849392	 1.8024543194	 0.2104480664	 0.133114
H	-0.2870255908	-0.6271531201	 0.6596382928	 0.265866
H	 1.010488298	-2.3700152082	-3.0625378564	 0.114105
H	 3.1289429148	-1.9143477571	-1.9018673033	 0.146088
H	 3.0029687111	-3.445024629	-1.000378305	 0.122403
H	 3.2212329834	-3.4627104785	-2.7576669876	 0.123383
H	-0.44108888	-4.3371226262	-2.4228460648	 0.119405
H	 1.1163948005	-4.8947539237	-3.0597580219	 0.11172
H	 0.8073503676	-4.902332924	-1.3119811395	 0.130083
55.8838	63.5209	90.7277	138.0646	155.065	199.4339	218.2099	246.9872	286.5838	300.5589	358.3964	406.5041	505.6632	531.3037	652.2442	687.6529	807.37	825.413	880.0972	931.1608	969.7814	979.1147	1100.645	1118.8909	1141.0155	1152.5971	1182.2672	1197.9432	1251.5794	1312.6809	1369.2868	1394.1174	1416.233	1443.3116	1486.6407	1488.5556	1494.0194	1497.7485	1500.017	1514.223	1570.1507	1776.048	1794.4397	3030.3583	3038.9034	3044.1022	3056.2304	3083.6466	3108.5625	3113.8457	3121.2172	3136.4787	3148.5302	3606.3901
CNC(=O)C(=O)C(C)C	CNC(=O)C(=O)C(C)C	
InChI=1S/C6H11NO2/c1-4(2)5(8)6(9)7-3/h4H,1-3H3,(H,7,9)	InChI=1S/C6H11NO2/c1-4(2)5(8)6(9)7-3/h4H,1-3H3,(H,7,9)
