16
gdb 13334	5.4834	1.176	1.08357	4.0733	67.5	-0.2541	0.0106	0.2647	1085.8444	0.130548	-383.774945	-383.767444	-383.7665	-383.808174	26.727	
O	 0.049305569	-0.0454528038	-0.1349947193	-0.278317
C	 0.0670532577	 1.1489594406	-0.1406871411	 0.165995
O	 1.1301723307	 1.8661726063	 0.2601427542	-0.187895
C	 1.0488526785	 3.3046915065	 0.2140207875	 0.107463
C	 1.3130729571	 3.8637003318	 1.6323842219	-0.267097
C	 2.7511850915	 4.3169432772	 1.5719002393	-0.054435
C	 3.2293025742	 4.304022221	 0.3296024849	-0.05444
C	 2.1995742184	 3.8398097756	-0.6711211214	-0.267098
H	-0.7790996051	 1.7836335183	-0.472371504	 0.073982
H	 0.0615255806	 3.5829594297	-0.1688460299	 0.084566
H	 0.6381057041	 4.6992980339	 1.8610720578	 0.112422
H	 1.1278744261	 3.0909537213	 2.3856932476	 0.126837
H	 3.2981586434	 4.6302535304	 2.4534118552	 0.099374
H	 4.2282705374	 4.6051189498	 0.0366797077	 0.099374
H	 2.5617301687	 3.0523046694	-1.3401423695	 0.126848
H	 1.8578514476	 4.6664318522	-1.308322311	 0.112423
36.403	65.5806	154.0868	279.1031	363.692	364.0776	433.6617	600.2762	709.1297	757.7606	792.9327	886.615	910.0364	951.7659	961.7148	978.2949	983.826	1043.9724	1056.7181	1064.7474	1132.4967	1176.4079	1186.9732	1235.265	1246.1273	1311.1752	1332.1744	1378.7326	1382.6792	1441.2076	1466.7273	1475.106	1689.4957	1863.784	2935.7446	3018.9036	3020.5482	3054.8074	3075.0071	3076.2407	3192.6251	3217.1653
O=COC1CC=CC1	O=CO[C@H]1CC=CC1	
InChI=1S/C6H8O2/c7-5-8-6-3-1-2-4-6/h1-2,5-6H,3-4H2	InChI=1S/C6H8O2/c7-5-8-6-3-1-2-4-6/h1-2,5-6H,3-4H2
