23
gdb 122742	7.15357	0.37677	0.37166	1.4391	93.03	-0.2401	0.0608	0.3009	2957.2628	0.203331	-388.270331	-388.258521	-388.257576	-388.310679	40.149	
C	 0.0460504305	 1.2832289974	 0.6724085187	-0.362451
C	-0.0961307491	 0.2281633849	-0.4398613111	-0.313016
C	-1.4231437996	-0.3780515107	-0.4891122635	 0.129887
C	-2.5292487118	-0.8553083865	-0.5148061172	 0.00242
C	-3.8527729966	-1.4690856734	-0.5409801897	-0.357584
C	-3.855178081	-2.9313468279	-0.0511097498	-0.174195
C	-5.2516543038	-3.556145271	-0.0859198348	-0.161062
C	-5.2662685849	-5.0008033692	 0.395494143	-0.080297
O	-6.6029398496	-5.4740821077	 0.3207673136	-0.42149
H	 1.0542743912	 1.7086118168	 0.6706237728	 0.111441
H	-0.671476939	 2.0959669955	 0.5302366348	 0.126719
H	-0.1393315044	 0.8393486697	 1.654379266	 0.125685
H	 0.1319481238	 0.6883934439	-1.4101499477	 0.125448
H	 0.6587863994	-0.5560388082	-0.296823148	 0.124769
H	-4.5446065527	-0.8810452704	 0.077305977	 0.124428
H	-4.2580898114	-1.4302155277	-1.5612317143	 0.124471
H	-3.1648255932	-3.5135123947	-0.6733868539	 0.105852
H	-3.4519890722	-2.9630302267	 0.9682939248	 0.105436
H	-5.9425847069	-2.9760611964	 0.5385770332	 0.104999
H	-5.6551080554	-3.5269605535	-1.1058415154	 0.105085
H	-4.5925455376	-5.6080764519	-0.2314326825	 0.084256
H	-4.8821165162	-5.0522689866	 1.4277342586	 0.084155
H	-6.6161578095	-6.3865308254	 0.6235690155	 0.285044
8.0006	47.7136	62.0695	98.3602	122.972	152.4592	162.5575	214.9892	263.8955	285.2613	336.3067	347.2504	425.0728	510.8359	537.9332	741.2834	744.979	785.3043	796.8404	924.7376	957.6601	997.2629	1038.9838	1055.535	1078.801	1086.6036	1103.7809	1127.4617	1166.4962	1204.7182	1224.4374	1279.6035	1286.0722	1288.7757	1316.1789	1323.0436	1347.8222	1353.2277	1391.75	1407.7339	1463.7942	1474.4361	1476.5942	1489.993	1494.3757	1504.769	1505.7948	1529.2956	2366.5509	2957.0161	2981.9453	3007.7624	3015.632	3023.4506	3033.1693	3033.7412	3041.5791	3042.1901	3056.6262	3081.6461	3114.8609	3121.6359	3830.5312	8.0056	47.7148	62.0701	98.3604	122.9722	152.4591	162.5579	214.9897	263.8974	285.2616	336.3071	347.2507	425.0731	510.8361	537.9333	741.2834	744.979	785.3044	796.8405	924.7377	957.6601	997.263	1038.984	1055.535	1078.801	1086.6039	1103.7808	1127.4619	1166.4962	1204.718	1224.4375	1279.6037	1286.0719	1288.7757	1316.1791	1323.0441	1347.8222	1353.2276	1391.7503	1407.7337	1463.7938	1474.4362	1476.5939	1489.9935	1494.3753	1504.7695	1505.7946	1529.2951	2366.551	2957.0161	2981.9453	3007.7623	3015.632	3023.4506	3033.1693	3033.7412	3041.5792	3042.1901	3056.6262	3081.6461	3114.861	3121.6359	3830.5317
CCC#CCCCCO	CCC#CCCCCO	
InChI=1S/C8H14O/c1-2-3-4-5-6-7-8-9/h9H,2,5-8H2,1H3	InChI=1S/C8H14O/c1-2-3-4-5-6-7-8-9/h9H,2,5-8H2,1H3
