14
gdb 131542	2.12616	1.7523	1.05802	3.6048	70.93	-0.2372	-0.0647	0.1725	1071.1296	0.10151	-470.013843	-470.005728	-470.004784	-470.047025	29.205	
O	 0.1640275203	 1.4104421575	-0.1937171518	-0.416271
C	 0.1185674912	-0.005157839	-0.1290988507	 0.020528
C	-1.327250954	-0.5778236106	-0.0405284459	-0.193732
N	-1.6303334329	-0.9986958448	-1.4006108736	-0.344056
C	-0.5050702408	-1.2716978247	-2.1623209792	 0.36019
C	 0.606235158	-0.6978546258	-1.3757719331	 0.153809
N	 1.8365725007	-0.7349577335	-1.7757676576	 0.129572
N	 2.9108768147	-0.7808604523	-2.1336739304	-0.226879
O	-0.4758230311	-1.8349243212	-3.2335363089	-0.385793
H	-0.2413339411	 1.6825360354	-1.0258010786	 0.286843
H	 0.6930675756	-0.2582965304	 0.7648157325	 0.112911
H	-1.364066735	-1.4162228052	 0.6682901541	 0.116939
H	-2.0061651606	 0.2047133519	 0.3087272633	 0.12779
H	-2.4810106049	-1.4888850673	-1.6290084601	 0.258149
78.7623	124.2823	145.323	166.2846	334.8113	363.2952	436.8387	450.2195	487.3914	550.1261	566.2698	649.9139	724.2199	740.4828	782.8941	870.0462	1007.3358	1058.6636	1087.2306	1145.0526	1216.432	1232.0649	1245.7493	1288.8306	1344.8971	1416.0302	1423.5783	1441.0052	1519.9532	1818.8468	2220.134	3009.7309	3088.2483	3092.6543	3639.5933	3790.5821
OC1CNC2=C1N=NO2	O[C@H]1CNC(=O)[C]1[N][N]	
InChI=1S/C4H5N3O2/c8-2-1-5-4-3(2)6-7-9-4/h2,5,8H,1H2	InChI=1S/C4H5N3O2/c5-7-3-2(8)1-6-4(3)9/h2,8H,1H2,(H,6,9)/t2-/m0/s1
