17
gdb 44363	3.50568	1.57556	1.32227	2.685	70.69	-0.2366	0.024	0.2606	962.2285	0.139392	-418.002782	-417.996041	-417.995096	-418.03395	27.415	
O	 0.0006737461	-0.1128700002	 0.3364295685	-0.372641
C	 0.0097169544	 1.0737324471	 0.0751372108	 0.396041
C	-1.2810342139	 1.8531826334	-0.2080799706	-0.366481
C	-1.2039090289	 3.3700668856	-0.0877882952	-0.020838
C	 0.0720445864	 4.0445129835	 0.2100382699	-0.050342
C	 1.1748595459	 3.1897787045	-0.4240594885	-0.032296
C	 0.4873234121	 3.5119112814	-1.7864549279	-0.172617
N	-0.6215547968	 4.2697292084	-1.1194037738	-0.150681
N	 1.159203018	 1.8138734553	 0.0198373176	-0.298877
H	-1.6396975682	 1.554693066	-1.2010331664	 0.14287
H	-2.0201788278	 1.4680616665	 0.4989968063	 0.142587
H	-2.0914471626	 3.8309940236	 0.3356826118	 0.109184
H	 0.2026694446	 4.8250049108	 0.9514526818	 0.098804
H	 2.1863064648	 3.5831894123	-0.3332171005	 0.097781
H	 1.0664503917	 4.1985834159	-2.4074489774	 0.11818
H	 0.1697409864	 2.6584373773	-2.3938782799	 0.109436
H	 2.0187519778	 1.2965043086	 0.1247329035	 0.249889
82.1244	237.7956	374.6312	391.5816	436.6609	453.4036	486.651	589.0894	623.2869	725.1454	746.9974	758.9683	790.8838	868.0037	895.3843	932.0573	957.5431	971.1228	1018.2173	1047.9226	1068.3721	1094.9653	1124.8693	1180.2718	1212.6766	1221.204	1239.4341	1282.5738	1293.3981	1316.6516	1347.7143	1387.5113	1423.9752	1448.6076	1469.6802	1501.3715	1799.5233	3042.4159	3052.5418	3101.548	3111.0364	3126.1015	3153.1683	3174.8647	3623.9044
O=C1CC2C3C(CN23)N1	O=C1C[C@H]2[C@H]3[C@H](CN23)N1	
InChI=1S/C6H8N2O/c9-5-1-4-6-3(7-5)2-8(4)6/h3-4,6H,1-2H2,(H,7,9)	InChI=1S/C6H8N2O/c9-5-1-4-6-3(7-5)2-8(4)6/h3-4,6H,1-2H2,(H,7,9)/t3-,4-,6+,8?/m0/s1
