16
gdb 105435	2.46578	1.55589	1.24401	2.1698	71.16	-0.2619	0.0129	0.2749	1052.8258	0.122548	-437.852682	-437.84405	-437.843105	-437.886116	31.487	
C	 0.0401206928	 1.4183076302	-0.1079279602	-0.258173
O	 0.0083630948	 0.0019266199	 0.0482406641	-0.248183
C	-1.2532950313	-0.58321448	 0.0531082393	 0.275743
C	-1.0691018399	-2.0977464948	 0.3661414672	-0.230613
N	-1.5396893005	-2.2705803893	 1.7425259592	-0.256718
C	-2.0215246209	-1.1526602824	 2.0843851158	 0.112098
O	-2.0128737416	-0.1130708824	 1.2070826497	-0.244386
C	-2.0307775295	-0.2903892918	-1.1533538808	 0.284361
C	-2.6444839387	-0.0914880686	-2.1664705779	-0.452235
H	 1.0935391722	 1.7008764419	-0.0792320124	 0.134219
H	-0.3946182557	 1.7212899544	-1.0674904779	 0.12791
H	-0.4958420829	 1.9162192201	 0.7066365215	 0.132241
H	-1.6469252474	-2.7298334327	-0.3129243392	 0.132841
H	-0.011060653	-2.35461084	 0.2742585688	 0.14034
H	-2.4727411273	-0.9231889847	 3.0431821866	 0.144143
H	-3.193521341	 0.0865525204	-3.0586517237	 0.206413
87.3987	110.5277	161.511	171.1471	197.2471	276.4533	414.5505	433.7155	491.6721	539.7687	546.2112	651.742	662.4936	672.2808	772.2772	872.486	900.7326	953.1975	977.7085	1011.1888	1059.656	1135.9571	1144.864	1172.1863	1181.5398	1220.5519	1256.5736	1319.4987	1335.3779	1472.1005	1475.71	1486.3279	1509.424	1712.9696	2239.2427	3027.5697	3069.0331	3096.6694	3117.7117	3140.4026	3217.8079	3496.8903
COC1(CN=CO1)C#C	CO[C@]1(CN=CO1)C#C	
InChI=1S/C6H7NO2/c1-3-6(8-2)4-7-5-9-6/h1,5H,4H2,2H3	InChI=1S/C6H7NO2/c1-3-6(8-2)4-7-5-9-6/h1,5H,4H2,2H3/t6-/m1/s1
