16
gdb 43938	3.7994	1.50057	1.32014	3.0514	68.19	-0.254	-0.0028	0.2512	955.5583	0.12685	-437.825011	-437.818697	-437.817753	-437.855625	25.959	
O	-0.1483862715	 0.0996597968	-0.6730426471	-0.301062
C	-0.0614601339	 1.1586274359	-0.1505629721	 0.366358
O	-1.1169985347	 1.9668445734	 0.3099695897	-0.319391
C	-0.1460135691	 2.7923121358	 1.026391899	 0.397333
C	 0.3524363668	 4.2249431988	 1.3209818141	-0.25241
N	 1.3880592556	 3.457131406	 2.1685140123	-0.127505
C	 0.2589807067	 2.4921873557	 2.4701659086	-0.229512
C	 2.1481306	 2.5916256254	 1.1732281607	-0.223735
C	 0.9906402466	 2.2365601135	 0.2003576597	-0.185834
H	 0.7542494398	 4.8200563964	 0.4988806442	 0.119698
H	-0.2564643868	 4.8303354633	 1.9925232926	 0.129665
H	-0.4157128308	 2.9067709404	 3.2209947502	 0.120651
H	 0.5675886007	 1.4793050045	 2.7408449365	 0.11854
H	 2.9312536601	 3.1723754146	 0.6833705609	 0.122646
H	 2.6077132003	 1.7640367258	 1.7143996786	 0.135634
H	 1.0965183203	 2.8002639036	-0.733941138	 0.128926
135.6297	259.159	365.7881	424.0759	472.6917	502.5259	570.6299	646.3245	690.3667	752.6659	777.6364	792.3433	821.8022	875.4696	913.7163	973.0671	980.4091	1015.6715	1039.0571	1058.4165	1094.5282	1107.8247	1164.9489	1187.1095	1204.8249	1222.6224	1228.2685	1264.34	1280.4075	1315.4542	1349.4883	1495.6536	1502.5041	1535.9056	1944.6957	3041.4118	3068.1853	3081.7736	3089.4701	3135.1177	3144.1168	3154.4602
O=C1OC23CN(C2)CC13	O=C1O[C@@]23CN(C2)C[C@@H]13	
InChI=1S/C6H7NO2/c8-5-4-1-7-2-6(4,3-7)9-5/h4H,1-3H2	InChI=1S/C6H7NO2/c8-5-4-1-7-2-6(4,3-7)9-5/h4H,1-3H2/t4-/m0/s1
