17
gdb 10202	3.37492	1.32187	1.00979	2.4085	65.56	-0.2666	0.0114	0.278	1165.4012	0.13962	-400.980435	-400.970778	-400.969834	-401.015739	31.929	
C	-0.7808865753	 1.0614895264	-0.4581605022	-0.249444
O	 0.1570829946	 0.397171249	-1.289430288	-0.238298
C	 1.0547553659	-0.4505603633	-0.6182577677	-0.101212
C	 0.7187000864	-1.9298238868	-0.8915901816	-0.016311
O	 1.7404779931	-2.7018137346	-0.3145738567	-0.231657
C	 1.7031304778	-4.0765648226	-0.66128249	-0.24835
C	-0.6112496583	-2.2925730878	-0.3487966098	 0.281542
N	-1.6360048237	-2.5948296689	 0.092338108	-0.335892
H	-1.4287325624	 0.3578084982	 0.0788171201	 0.137305
H	-0.2778076644	 1.712569031	 0.2711233608	 0.111941
H	-1.3977372911	 1.6790313923	-1.1147900305	 0.134233
H	 2.0658001487	-0.2810333174	-1.0050855377	 0.122879
H	 1.0696944864	-0.275725564	 0.4644758734	 0.118047
H	 0.6752045329	-2.072083087	-1.9831554488	 0.122243
H	 0.7846100235	-4.5591943318	-0.3024037056	 0.136817
H	 1.7760242528	-4.2148548309	-1.7497967469	 0.11583
H	 2.565049553	-4.5434673521	-0.1815592767	 0.140328
56.4915	80.0772	103.391	133.3922	167.5531	188.6384	217.2495	268.9725	361.452	396.522	458.3286	570.7375	617.0705	802.1737	946.1158	1000.544	1057.2934	1084.7245	1149.9521	1159.0018	1182.9179	1184.3333	1216.317	1229.2156	1284.8132	1325.3293	1366.3145	1394.1702	1479.3603	1481.5615	1489.0401	1491.3593	1504.8815	1507.5633	1510.6319	2349.3304	2987.2555	2995.4257	2996.5383	3027.7808	3056.8372	3064.6133	3081.1492	3125.2558	3134.4194
COCC(OC)C#N	COC[C@@H](OC)C#N	
InChI=1S/C5H9NO2/c1-7-4-5(3-6)8-2/h5H,4H2,1-2H3	InChI=1S/C5H9NO2/c1-7-4-5(3-6)8-2/h5H,4H2,1-2H3/t5-/m0/s1
