14
gdb 29435	4.73277	0.95098	0.79187	0.6766	68.3	-0.1991	0.0013	0.2003	1338.5551	0.101668	-470.037141	-470.028958	-470.028014	-470.070844	29.421	
O	 0.1147645515	 1.3365022868	-0.0549795628	-0.433886
C	 0.0684769364	-0.0120622491	-0.060939713	 0.350564
C	 0.0004493012	-0.8328217427	-1.1498052878	-0.209321
N	-0.0233906636	-2.1219160027	-0.6021597095	-0.337456
C	 0.0305891502	-1.9774889156	 0.7348680945	 0.512067
O	 0.0204854671	-3.0902484509	 1.5018040645	-0.225614
C	 0.0799620759	-2.9344672505	 2.8613860844	 0.112813
N	 0.0693856809	-3.9718388887	 3.5722134819	-0.429596
N	 0.0873151989	-0.7246455333	 1.1170626915	-0.444887
H	 0.1576629673	 1.6060716487	 0.8698890125	 0.302034
H	-0.0321395683	-0.6496155397	-2.2076391222	 0.137683
H	-0.0715370601	-2.9964260526	-1.0961808108	 0.277166
H	 0.1304811237	-1.8878183451	 3.1643899747	 0.148868
H	 0.1176327689	-3.7147101345	 4.5563269521	 0.239564
44.567	93.1737	153.8473	248.1988	325.8715	346.5968	385.4967	451.1869	476.7614	539.2176	618.1531	690.4682	690.8143	730.1792	827.5152	835.547	1004.5584	1039.8429	1058.7148	1069.4099	1107.2731	1181.0842	1264.1458	1297.545	1333.5203	1395.2149	1416.9579	1535.7618	1589.8298	1677.6293	1748.585	3132.0184	3306.2615	3518.4706	3678.607	3814.0783
OC1=CNC(OC=N)=N1	Oc1c[nH]c(O[CH][NH])n1	
InChI=1S/C4H5N3O2/c5-2-9-4-6-1-3(8)7-4/h1-2,5,8H,(H,6,7)	InChI=1S/C4H5N3O2/c5-2-9-4-6-1-3(8)7-4/h1-2,5,8H,(H,6,7)
