14
gdb 15498	3.85728	1.98661	1.32209	5.7733	67.28	-0.2395	-0.0428	0.1967	870.5936	0.108549	-378.761055	-378.754074	-378.75313	-378.792578	25.23	
N	 0.087910422	 1.2813308807	 0.0068746151	-0.416066
C	-0.0266510706	 0.0183076981	 0.0041367052	 0.087228
N	-1.2377077106	-0.6601230108	 0.0116972171	-0.115534
C	-1.2705582102	-2.1153699279	 0.0075253283	-0.223603
C	-2.7387014792	-2.4260922947	 0.0179110679	-0.089828
C	-3.4507764287	-1.300379945	 0.0268132298	-0.170244
C	-2.547077416	-0.1165060791	 0.0236315305	 0.41846
O	-2.8480497697	 1.0487475667	 0.029333149	-0.3392
H	 1.0752951078	 1.5327028005	-0.0000254371	 0.227722
H	 0.8125666548	-0.6909828135	-0.0043548938	 0.087131
H	-0.7751384157	-2.5294682956	-0.8821722164	 0.136738
H	-0.7614722874	-2.5348540849	 0.8869256637	 0.136728
H	-3.1101097575	-3.442308651	 0.0176379186	 0.127634
H	-4.5247642289	-1.1829486534	 0.035396852	 0.132835
84.3765	148.9993	215.485	221.2902	363.2526	470.1024	487.2446	669.8713	709.2326	731.8899	806.442	806.8779	831.5317	977.274	977.294	1018.4746	1063.393	1063.4394	1128.8928	1170.8619	1198.1262	1246.1126	1309.0081	1357.8184	1411.4312	1437.7787	1493.4203	1665.9781	1720.0354	1842.6718	3000.6915	3017.2427	3028.4401	3222.4196	3253.5202	3496.6274
N=CN1CC=CC1=O	[NH][CH]N1CC=CC1=O	
InChI=1S/C5H6N2O/c6-4-7-3-1-2-5(7)8/h1-2,4,6H,3H2	InChI=1S/C5H6N2O/c6-4-7-3-1-2-5(7)8/h1-2,4,6H,3H2
