14
gdb 16920	3.79499	2.27295	2.03529	2.6419	60.69	-0.2295	-0.0296	0.1999	703.9554	0.109036	-382.549058	-382.543352	-382.542408	-382.57874	23.049	
O	 0.0206926174	 0.0304850474	 0.1062891158	-0.315174
C	-0.0155984442	 1.2273603394	 0.0453560185	 0.429334
C	-1.2491556067	 2.1561348952	 0.013245987	-0.33773
C	-0.5266735888	 3.5306557175	 0.0341654697	 0.014629
O	 0.5937791578	 3.2577784784	-0.8277668029	-0.245282
C	 1.1787639847	 2.2226901238	-0.0314357582	-0.087552
C	 1.2098569599	 2.8504401691	 1.3601565537	-0.0889
C	 0.1558419814	 3.6668508218	 1.397762151	-0.074525
H	-1.7876833096	 2.0052266852	-0.9267946518	 0.137469
H	-1.9290170274	 1.9675841943	 0.8455673224	 0.129945
H	-1.0940028185	 4.3821698672	-0.3377244417	 0.09321
H	 2.097510495	 1.8341359179	-0.4633967107	 0.102998
H	 1.8956114998	 2.5817880756	 2.1507471983	 0.124702
H	-0.2213379609	 4.245962037	 2.229228029	 0.116876
136.9678	340.7318	412.5471	468.7502	560.071	603.7027	640.7078	731.9199	772.1086	788.0206	858.539	862.1179	916.0268	936.9469	939.489	956.7015	994.39	1044.3141	1067.0357	1125.7997	1144.2005	1191.0943	1224.7421	1259.387	1294.0286	1323.6021	1335.1909	1454.5512	1634.7909	1867.8652	3070.8722	3129.5733	3134.8055	3162.4543	3225.6073	3251.6032
O=C1CC2OC1C=C2	O=C1C[C@@H]2O[C@H]1C=C2	
InChI=1S/C6H6O2/c7-5-3-4-1-2-6(5)8-4/h1-2,4,6H,3H2	InChI=1S/C6H6O2/c7-5-3-4-1-2-6(5)8-4/h1-2,4,6H,3H2/t4-,6+/m1/s1
