18
gdb 67198	2.84367	1.49	1.21199	4.18	79.96	-0.2586	0.0359	0.2945	1070.536	0.148672	-364.784085	-364.776347	-364.775403	-364.816238	30.104	
C	-0.0222828945	 1.5964631322	-0.1772480355	-0.533356
C	 0.033193075	 0.1113916124	-0.0460585276	 0.362578
C	 0.0214423373	-1.0266432517	-1.0412064834	-0.133473
C	 1.2740437098	-1.6547337945	-0.4385875693	-0.248291
C	 0.919127884	-0.8650567581	 0.8475902108	-0.107361
C	-0.4026329239	-1.5495839468	 1.3350740624	-0.165579
C	-0.9290826817	-0.9696217726	 2.5629624453	 0.265374
N	-1.3429231628	-0.5096671065	 3.5399758919	-0.332808
C	-1.036783091	-0.9486586662	 0.0744582286	-0.104388
H	 0.9375630286	 2.0079954588	-0.5096597182	 0.124229
H	-0.7804771745	 1.8881978973	-0.9119650989	 0.127193
H	-0.2807843484	 2.07204488	 0.7751232817	 0.13995
H	-0.2845034942	-0.9949005367	-2.0795264585	 0.093626
H	 1.3441552476	-2.7458784618	-0.3596850117	 0.095288
H	 2.1806401926	-1.2633951386	-0.907570856	 0.108628
H	 1.6752830051	-0.5763628007	 1.573370515	 0.094025
H	-0.3755658151	-2.6411511655	 1.4328504725	 0.110977
H	-2.0927779938	-0.8621114009	-0.144690299	 0.103387
99.3275	157.9848	215.4337	233.927	275.5379	381.7556	455.932	497.0318	544.7074	606.8632	730.9435	787.5721	828.2724	850.3252	870.9544	902.1003	937.0008	979.914	991.1865	1009.6506	1020.1853	1041.8651	1073.5715	1108.1798	1134.6614	1145.6131	1169.1776	1204.8905	1216.4299	1226.1834	1277.6047	1293.2699	1346.6793	1412.43	1460.2187	1483.27	1497.1778	1501.9973	2352.9357	3025.0562	3032.9464	3042.0646	3087.2414	3096.4661	3099.6389	3151.778	3193.1516	3208.5648
CC12C3CC1C(C#N)C23	C[C@@]12[C@H]3C[C@@H]1[C@@H](C#N)[C@@H]23	
InChI=1S/C8H9N/c1-8-5-2-6(8)7(8)4(5)3-9/h4-7H,2H2,1H3	InChI=1S/C8H9N/c1-8-5-2-6(8)7(8)4(5)3-9/h4-7H,2H2,1H3/t4-,5-,6+,7-,8+/m1/s1
