21
gdb 70006	3.40553	1.38271	1.15755	0.4881	89.71	-0.218	0.0222	0.2401	1148.319	0.183877	-349.920444	-349.912539	-349.911595	-349.952381	32.128	
C	-0.1472504946	 1.5675331239	 0.0217269403	-0.499633
C	 0.081813213	 0.0839734277	-0.0143654457	 0.232503
C	-0.7806466349	-0.9190597151	 0.7340640643	-0.31088
C	 0.6900187171	-0.8884727272	 1.03631516	-0.151291
C	 1.5451901077	-1.5417850626	-0.0804261476	-0.01282
C	 1.537054299	-2.951631491	-0.6940557913	-0.25915
C	 1.4901798985	-2.6213551653	-2.2273883993	-0.233112
C	 0.7235611341	-1.2948766077	-2.2877210199	-0.262074
C	 0.7667800519	-0.7326017203	-1.0843348167	 0.281943
H	 0.7774558905	 2.121718212	-0.1721744027	 0.1204
H	-0.8815361422	 1.8736383224	-0.7331258208	 0.12248
H	-0.5290443557	 1.8798801251	 0.9991233948	 0.117447
H	-1.4117571359	-0.4852902406	 1.505432061	 0.107455
H	-1.2346426644	-1.7538896752	 0.2072587031	 0.109912
H	 1.0535731983	-0.6503766695	 2.0294332884	 0.081881
H	 2.5717550114	-1.1594686117	 0.0106938399	 0.077312
H	 2.3920688166	-3.5762879707	-0.4195297685	 0.088832
H	 0.6225704362	-3.4874215939	-0.4152223503	 0.100043
H	 2.5051762872	-2.5307914473	-2.6420536222	 0.100967
H	 0.9921636837	-3.4075574166	-2.8057217729	 0.099398
H	 0.2007451124	-0.9547057564	-3.174072094	 0.088386
147.862	166.3467	200.71	231.7997	301.6368	331.6415	463.9965	485.803	564.3039	612.4265	655.032	732.6065	804.5886	818.0563	835.378	879.388	886.3187	908.8794	937.2362	957.9282	974.3434	1001.8656	1022.6423	1067.7065	1077.54	1097.4123	1101.2515	1110.5432	1157.99	1176.381	1212.5282	1243.4982	1257.337	1282.3705	1308.3702	1318.6572	1345.8931	1377.8599	1418.7075	1478.971	1484.133	1487.8252	1493.4098	1499.2091	1727.7664	2997.43	3001.4131	3023.0712	3040.2957	3060.8617	3081.906	3094.1388	3098.6039	3108.0646	3173.671	3192.1072	3195.1586
CC12CC1C1CCC=C21	C[C@]12C[C@H]1[C@H]1CC[CH][C]21	
InChI=1S/C9H12/c1-9-5-8(9)6-3-2-4-7(6)9/h4,6,8H,2-3,5H2,1H3	InChI=1S/C9H12/c1-9-5-8(9)6-3-2-4-7(6)9/h4,6,8H,2-3,5H2,1H3/t6-,8-,9+/m0/s1
