16
gdb 10089	2.67308	1.52795	1.32029	3.786	58.07	-0.2653	0.0031	0.2684	990.1709	0.129176	-458.019041	-458.010362	-458.009417	-458.052907	30.389	
O	 0.2647239066	 1.0374470614	-0.4025212695	-0.416738
C	 0.0690341854	-0.2850149797	 0.0559854828	-0.104123
C	-1.3912949895	-0.7141156495	 0.2447971913	 0.092937
C	-2.169998632	 0.1972725942	 1.1986067348	-0.094506
O	-2.2410975622	 1.5430785446	 0.7313603246	-0.418632
O	-2.1822308197	-0.8724333497	-0.9528644024	-0.227575
C	-1.8845969859	-0.2472536208	-2.1202826063	 0.115414
O	-2.5854743822	-0.3833446334	-3.0800046482	-0.27384
H	-0.396771321	 1.593981371	 0.0350767295	 0.296848
H	 0.5571596789	-0.9532983998	-0.6626037658	 0.124795
H	 0.5626656509	-0.446227274	 1.0290006649	 0.106066
H	-1.3681426867	-1.7173405019	 0.6887331327	 0.108509
H	-3.1735781337	-0.2150724295	 1.3573581566	 0.124958
H	-1.6588259193	 0.2348749105	 2.1659003181	 0.126524
H	-2.8614086505	 1.5691321275	-0.0058480592	 0.307006
H	-0.9798695989	 0.3758099291	-2.0760404739	 0.132357
44.4858	112.1213	156.367	198.1453	230.6712	276.8378	312.0342	349.611	397.0552	498.9956	573.272	617.2742	794.6926	851.0773	899.1324	950.234	983.8664	1056.3365	1077.6795	1092.1	1128.6083	1164.1079	1217.2782	1264.5307	1338.7948	1372.9846	1391.3327	1400.7515	1413.5041	1449.7634	1472.3295	1489.9835	1507.8354	1843.7339	2970.7839	3030.9515	3044.6634	3050.8402	3064.2473	3094.2016	3707.6964	3810.9614
OCC(CO)OC=O	OCC(CO)OC=O	
InChI=1S/C4H8O4/c5-1-4(2-6)8-3-7/h3-6H,1-2H2	InChI=1S/C4H8O4/c5-1-4(2-6)8-3-7/h3-6H,1-2H2
