18
gdb 22350	3.34334	1.06935	0.83703	2.0229	75.99	-0.245	-0.0267	0.2184	1343.2761	0.145984	-439.085359	-439.076377	-439.075433	-439.119385	33.357	
C	-0.726160403	 1.2834535244	 0.0775189955	-0.403568
C	 0.1925017653	 0.0760589356	-0.0745162881	-0.08864
C	 1.2446036944	 0.1369256441	-1.2015939954	-0.307973
C	 2.3379035339	-0.7997162818	-0.7344602527	 0.386525
C	 2.3364908692	-0.8932487298	 0.7688164361	-0.420392
C	 1.0202347899	-0.226561872	 1.1858349522	 0.389597
O	 0.6912684084	 0.0305418705	 2.3142376896	-0.31229
N	 3.0720348439	-1.4280781313	-1.561163151	-0.216809
O	 4.0080360033	-2.237735431	-0.8946029289	-0.392136
H	-0.1433216594	 2.205330148	 0.1772580376	 0.121066
H	-1.3862643506	 1.3913243832	-0.7878176841	 0.116603
H	-1.3392552674	 1.1796153737	 0.9761282339	 0.140752
H	-0.4181692836	-0.8281099854	-0.2285938617	 0.112759
H	 0.8646487046	-0.1342689253	-2.188095937	 0.127628
H	 1.641276299	 1.1599678769	-1.272413543	 0.12176
H	 2.3895220728	-1.9301280337	 1.1178397458	 0.159966
H	 3.1862981652	-0.3758329974	 1.2294260178	 0.15664
H	 4.4593837641	-2.6727612887	-1.6259762664	 0.308511
68.7865	79.0642	190.9527	197.9631	250.4688	294.1081	334.637	378.3907	424.0953	483.5916	517.5209	571.0821	593.5526	664.5938	734.37	847.2562	881.1579	900.6572	912.5865	984.4759	1010.9612	1054.6764	1130.7076	1152.0281	1163.2224	1182.9453	1233.8447	1253.5941	1282.3599	1300.7303	1351.4175	1401.8291	1408.5889	1421.7688	1480.4493	1494.9956	1496.0877	1759.0037	1849.9857	2986.1301	3013.484	3040.9215	3049.5922	3084.5094	3107.6404	3114.6194	3127.0593	3817.2207
CC1CC(CC1=O)=NO	C[C@H]1CC(=NO)CC1=O	
InChI=1S/C6H9NO2/c1-4-2-5(7-9)3-6(4)8/h4,9H,2-3H2,1H3	InChI=1S/C6H9NO2/c1-4-2-5(7-9)3-6(4)8/h4,9H,2-3H2,1H3/t4-/m0/s1
