16
gdb 12237	3.30895	1.55981	1.18176	3.0118	60.68	-0.2752	0.0038	0.279	1006.2062	0.129834	-420.902044	-420.893898	-420.892954	-420.934955	29.073	
C	-0.2791553623	 1.540244089	 0.1896589703	-0.415728
C	-0.06792673	 0.0436135458	-0.0130942903	-0.214853
C	 0.5285618598	-0.530990602	-1.3224372098	 0.101933
C	 1.107235365	 0.3954621921	-2.3739599704	-0.070395
O	 1.8701147609	-0.3295074942	-3.316844879	-0.416743
O	 1.6270863097	-1.1438144581	-0.5480127964	-0.272362
C	 1.1711550031	-0.5914717702	 0.6263203531	 0.455083
O	 1.6721941518	-0.6571035124	 1.7013731989	-0.319775
H	 0.6045692014	 2.1235097456	-0.0810163771	 0.134184
H	-1.1242430924	 1.9008969744	-0.404037357	 0.130002
H	-0.4971680701	 1.7385409987	 1.2426589966	 0.146254
H	-0.9647182896	-0.5061604043	 0.2890415333	 0.12173
H	-0.0574346854	-1.3221816321	-1.7969328069	 0.106407
H	 0.2955848235	 0.8802364165	-2.927247433	 0.119683
H	 1.7043795419	 1.1835878459	-1.8915732594	 0.097438
H	 2.5621490926	-0.7869098244	-2.8248056829	 0.297143
81.3041	115.9275	167.3954	202.7006	212.3722	299.5431	409.7834	440.4478	470.214	551.3217	679.8227	748.6556	805.8849	852.2924	894.8297	994.5125	1019.4613	1069.0183	1085.968	1119.1158	1156.249	1162.5755	1217.5117	1232.1192	1300.3619	1338.9123	1359.8877	1403.4724	1414.7695	1433.8523	1491.0828	1497.756	1501.8825	1937.4372	2996.2133	3049.0218	3066.2403	3074.8537	3092.109	3118.4197	3127.3396	3797.7096
CC1C(CO)OC1=O	C[C@H]1[C@@H](CO)OC1=O	
InChI=1S/C5H8O3/c1-3-4(2-6)8-5(3)7/h3-4,6H,2H2,1H3	InChI=1S/C5H8O3/c1-3-4(2-6)8-5(3)7/h3-4,6H,2H2,1H3/t3-,4+/m0/s1
