12
gdb 130509	4.07085	1.72717	1.21267	1.6331	72.23	-0.2586	-0.1111	0.1475	904.9109	0.079605	-431.612212	-431.606403	-431.605459	-431.64234	22.969	
O	-0.0857989541	 1.2295843041	 0.0094611878	-0.192519
N	 1.0087295515	 2.0642181331	 0.0035719451	-0.067354
C	 2.2008508017	 1.5307682113	-0.0106680432	-0.016741
C	 2.3833949111	 0.1363532176	-0.0199905632	 0.239491
N	 3.4511760791	-0.6205378819	-0.0344077263	-0.333636
C	 2.9513608765	-1.93004677	-0.0366705679	-0.02536
C	 1.5829646359	-2.0215676305	-0.0238739734	-0.238145
C	 1.1484180634	-0.6583443574	-0.0125520004	 0.37019
N	-0.0402352155	-0.1368963591	 0.001613475	-0.162502
H	 3.0205888786	 2.2426261072	-0.0146787496	 0.162378
H	 3.6556564437	-2.751833949	-0.0478514671	 0.1302
H	 0.9654274982	-2.9048252955	-0.0226016869	 0.133998
206.8761	238.9672	403.7867	426.2986	578.088	580.2549	596.7814	610.7374	750.1085	770.9446	805.7614	818.6875	884.1183	937.0999	953.5908	956.1563	961.2148	1065.6138	1119.7574	1236.1789	1280.359	1370.2315	1434.7795	1476.9197	1531.5848	1620.9403	1632.0223	3190.1181	3228.2487	3276.3276
O1N=CC2=NC=CC2=N1	o1ncc2nccc2n1	
InChI=1S/C5H3N3O/c1-2-6-5-3-7-9-8-4(1)5/h1-3H	InChI=1S/C5H3N3O/c1-2-6-5-3-7-9-8-4(1)5/h1-3H
