20
gdb 122860	4.057	0.63385	0.5733	4.8535	74.57	-0.2522	0.0246	0.2768	1933.573	0.169171	-477.439749	-477.429107	-477.428163	-477.477331	36.408	
C	-0.2543631214	 1.308952959	-0.5360266528	-0.230068
O	-0.1094575114	-0.0377414547	-0.145155657	-0.241784
C	 0.6866621722	-0.7946884833	-1.0353941063	-0.063046
C	 0.700723406	-2.2281448262	-0.5277034357	-0.171887
N	-0.6494609172	-2.7559565585	-0.4416097268	-0.314869
C	-1.0272078425	-3.937066129	-0.9787851144	 0.392725
O	-0.2698104034	-4.6986357976	-1.5660034557	-0.394164
C	-2.5046889498	-4.3162419495	-0.8200738056	-0.143982
O	-2.7477573814	-5.5409926384	-1.4444789263	-0.420354
H	 0.7170111976	 1.8246857953	-0.5787239173	 0.111365
H	-0.7346428791	 1.3968132295	-1.5227264266	 0.110667
H	-0.8828815304	 1.8004432465	 0.2101688799	 0.131925
H	 0.2683029729	-0.754642475	-2.0543843953	 0.099307
H	 1.714430998	-0.398816864	-1.0755849016	 0.096447
H	 1.2632856923	-2.8746570387	-1.2037436945	 0.149724
H	 1.1839099675	-2.2564825092	 0.4571439677	 0.120512
H	-1.3358924316	-2.1632580662	-0.000632328	 0.258512
H	-2.7452994706	-4.35992604	 0.2547719431	 0.108921
H	-3.1278171234	-3.5179598533	-1.2547584388	 0.106401
H	-1.8774809144	-5.8091403966	-1.7876078081	 0.293646
31.5629	66.7592	74.2989	108.1809	113.8236	198.4989	226.4434	280.07	320.9108	358.4512	449.7559	464.5708	509.9371	550.5761	624.4949	706.0974	831.2556	911.7487	949.0118	1037.3311	1051.7043	1104.3003	1118.7239	1146.2458	1164.4341	1187.3787	1218.9103	1246.3228	1251.3716	1259.0566	1294.7798	1318.2498	1390.8321	1421.7484	1465.4663	1480.8514	1486.7944	1488.3024	1502.0068	1509.5081	1523.861	1557.7031	1765.7968	2965.2215	2971.209	2980.6376	2989.6858	3000.0683	3026.2189	3033.9256	3118.882	3129.3654	3630.6413	3643.3243
COCCNC(=O)CO	COCCNC(=O)CO	
InChI=1S/C5H11NO3/c1-9-3-2-6-5(8)4-7/h7H,2-4H2,1H3,(H,6,8)	InChI=1S/C5H11NO3/c1-9-3-2-6-5(8)4-7/h7H,2-4H2,1H3,(H,6,8)
