18
gdb 13459	3.43343	1.35316	1.25859	1.6028	64.41	-0.2288	0.0604	0.2891	1062.2537	0.152046	-422.038155	-422.029364	-422.02842	-422.071779	32.028	
C	-0.3374943953	 1.4227734576	-0.004654768	-0.388319
C	-0.3745117143	-0.0495027037	 0.3614316073	-0.040466
O	-1.2451302409	-0.7143448136	-0.5606860639	-0.271003
C	-1.3892186536	-2.0769933967	-0.3292728982	 0.011419
C	-2.2656965186	-2.5481213984	 0.8290137785	 0.056733
O	-2.8350544914	-1.6071669685	 1.6793922206	-0.424771
C	-2.7907180339	-2.5753053675	-0.5925207404	 0.015708
O	-3.751530443	-1.593604704	-0.8666490035	-0.433935
H	 0.3343298347	 1.96205224	 0.6695877813	 0.120811
H	 0.0176419194	 1.5593112514	-1.0301965033	 0.126216
H	-1.3341911975	 1.8664918891	 0.0769728344	 0.124505
H	 0.6303967509	-0.4923575134	 0.290984256	 0.091261
H	-0.745949539	-0.2007487319	 1.3808485618	 0.127277
H	-0.5402888963	-2.6948448901	-0.6244856387	 0.089648
H	-2.0016394515	-3.4800104835	 1.3219601201	 0.099536
H	-3.5932929794	-1.2477659135	 1.1925572802	 0.290113
H	-2.9601420094	-3.5099901229	-1.118039306	 0.103132
H	-3.2555948111	-0.7999267402	-1.1172289882	 0.302136
59.1697	108.4021	135.2363	213.9974	251.2462	271.0102	309.3709	356.2655	398.3313	565.3069	615.217	653.5947	719.3886	755.1214	788.7237	821.4462	893.2139	964.3304	1040.3457	1059.8244	1082.8388	1105.897	1140.9218	1157.5369	1169.4527	1186.07	1238.3222	1296.0114	1327.3261	1338.0293	1369.6101	1399.7299	1402.8038	1434.3075	1452.9345	1483.7015	1500.4375	1523.409	2993.2969	3043.8581	3069.	3092.2744	3118.4107	3121.1405	3141.6927	3156.4533	3691.8859	3723.3845
CCOC1C(O)C1O	CCO[C@H]1[C@@H](O)[C@H]1O	
InChI=1S/C5H10O3/c1-2-8-5-3(6)4(5)7/h3-7H,2H2,1H3	InChI=1S/C5H10O3/c1-2-8-5-3(6)4(5)7/h3-7H,2H2,1H3/t3-,4+,5-
