15
gdb 49679	2.68706	1.37188	1.20245	4.633	66.11	-0.2611	-0.0415	0.2195	1052.8696	0.113139	-457.798617	-457.791203	-457.790259	-457.830997	27.399	
O	 0.0220037912	 0.003587895	 0.4610171866	-0.259771
C	-0.002658043	 1.1451085867	 0.0724817742	 0.146146
C	 1.2291562366	 1.9752659177	-0.0485897072	-0.123358
C	 1.4951019962	 2.9223106665	-1.2010906812	-0.095722
C	 0.3133069142	 3.3461975514	-2.0607841475	-0.109181
O	-0.6407418969	 3.9509793333	-1.1744613537	-0.226759
C	-0.1040277925	 4.1800389878	 0.0667996611	 0.444619
O	-0.660941959	 4.8387489011	 0.8922408891	-0.328346
C	 1.2307917413	 3.4967253134	 0.154899175	-0.211177
H	-0.9552952981	 1.6348922723	-0.2158560768	 0.104889
H	 2.1067171059	 1.4718472892	 0.3435913944	 0.12722
H	 2.4808957858	 2.9110828443	-1.6484665215	 0.124068
H	 0.6211753788	 4.0922626526	-2.8011730456	 0.1338
H	-0.178744962	 2.5203139194	-2.5816861253	 0.136912
H	 1.9710587716	 3.9277665293	 0.8143386784	 0.136659
84.8748	148.3088	178.2883	225.3189	331.1515	410.3747	466.9771	503.6361	637.6361	718.3523	775.5907	799.7414	835.9061	857.7134	955.1076	981.0643	997.0347	1023.1051	1054.8042	1070.4351	1109.8089	1117.4613	1167.9879	1205.9093	1236.4696	1313.1605	1334.2376	1358.6403	1412.7081	1455.9958	1521.0481	1815.4688	1890.2667	2926.9175	3049.1665	3096.4595	3176.0986	3197.6755	3221.3972
O=CC1C2COC(=O)C12	O=C[C@H]1[C@H]2COC(=O)[C@@H]12	
InChI=1S/C6H6O3/c7-1-3-4-2-9-6(8)5(3)4/h1,3-5H,2H2	InChI=1S/C6H6O3/c7-1-3-4-2-9-6(8)5(3)4/h1,3-5H,2H2/t3-,4+,5-/m0/s1
