20
gdb 69056	3.09485	1.06196	0.9164	3.1658	80.77	-0.2238	-0.0233	0.2005	1333.5966	0.169193	-403.121535	-403.112208	-403.111264	-403.156579	34.2	
C	-0.0881513086	 1.5098710106	 0.22929754	-0.506025
C	 0.1216086762	 0.038805936	 0.0495834377	 0.281288
C	 0.3897426137	-0.7038055036	-1.2689325131	-0.253782
C	 1.2394265002	-1.7502550566	-0.4695446542	-0.266958
C	 0.9314301207	-0.961744691	 0.8125238108	 0.28383
C	 1.7955019567	-0.8181391419	 2.0369161547	-0.411033
C	 1.673751454	-2.0195534295	 2.9585197338	 0.174529
O	 1.3651899302	-1.9560213752	 4.1199551176	-0.238429
N	-0.5561651111	-0.9593815522	 0.9194335756	-0.403124
H	 0.6580146386	 2.0863628546	-0.327968588	 0.124725
H	-1.0788733991	 1.8112604449	-0.1313618591	 0.13309
H	-0.0183051129	 1.7973017245	 1.2842754768	 0.119927
H	-0.5007200985	-1.0821875726	-1.776455332	 0.107876
H	 0.9944115057	-0.124127245	-1.970696031	 0.099736
H	 0.8820077308	-2.782658207	-0.4838434429	 0.108314
H	 2.2974829083	-1.7244731613	-0.7429003031	 0.098942
H	 2.848183332	-0.7328749754	 1.7304048503	 0.121975
H	 1.5344481368	 0.0766529304	 2.6116356279	 0.118346
H	 1.8868511813	-2.9987472013	 2.4726998462	 0.082383
H	-0.7882736748	-0.4808857784	 1.7917754319	 0.22439
39.2925	63.9821	135.1499	203.408	204.1389	247.1742	313.0283	341.211	447.7487	489.6818	499.9248	603.2049	687.084	719.6361	778.2929	827.9001	868.2641	915.639	941.3069	979.8599	986.8461	1040.5525	1060.9797	1086.8623	1107.1219	1134.1573	1161.4568	1205.4806	1226.6288	1233.1434	1240.0119	1290.4216	1338.3246	1356.4704	1409.6825	1426.7296	1443.8965	1454.1223	1465.7993	1482.4858	1495.4397	1505.0106	1834.5125	2876.246	3008.8737	3022.7126	3057.524	3065.6134	3082.4989	3084.5783	3095.4673	3108.7749	3126.1474	3446.8051
CC12CCC1(CC=O)N2	C[C@@]12CC[C@]1(CC=O)N2	
InChI=1S/C7H11NO/c1-6-2-3-7(6,8-6)4-5-9/h5,8H,2-4H2,1H3	InChI=1S/C7H11NO/c1-6-2-3-7(6,8-6)4-5-9/h5,8H,2-4H2,1H3/t6-,7-/m1/s1
