15
gdb 37902	3.23856	2.20068	1.75339	0.7782	62.55	-0.2459	0.0469	0.2928	779.0191	0.114595	-457.661005	-457.655439	-457.654495	-457.690662	23.863	
C	-0.0518778046	 1.4696684576	 0.038320852	-0.185151
O	 1.3531962498	 1.876384161	-0.0181664013	-0.285156
C	 2.195385243	 0.7195778514	-0.1402598561	 0.179698
O	 2.2216960567	-0.0065811576	 1.0951306169	-0.263466
C	 1.0337905147	-0.757057989	 0.9428266148	 0.056702
C	 0.9983113345	-1.5687609333	-0.3781149191	-0.035148
O	-0.4741588783	-1.2623474865	-0.5159942521	-0.380228
C	 0.1510535408	-0.0169448024	-0.0926645087	 0.35758
C	 1.3760096909	-0.2131071243	-1.0240175935	-0.109215
H	-0.4752612025	 1.7930758507	 0.9936369427	 0.125234
H	-0.6052459766	 1.9274534021	-0.788392419	 0.124641
H	 3.1927459597	 1.0692157344	-0.395222529	 0.102216
H	 0.638139377	-1.1546382716	 1.8736549713	 0.106787
H	 1.2964564884	-2.5859242315	-0.6283434679	 0.103173
H	 1.2646674765	-0.0318035011	-2.089460421	 0.102335
247.8582	374.2441	427.7553	475.3348	543.7191	616.6288	691.2887	736.2864	745.7433	793.665	862.5383	871.0977	894.0474	901.7453	933.024	966.6157	999.9323	1003.9216	1026.8512	1057.8701	1076.3077	1120.3355	1142.7973	1172.9369	1205.7628	1221.3036	1249.3463	1267.045	1305.8718	1336.2849	1360.723	1386.6572	1517.5808	3041.6983	3093.7525	3130.5442	3160.1039	3168.6357	3173.3551
C1OC2OC3C4OC13C24	C1O[C@H]2O[C@@H]3[C@H]4O[C@@]13[C@@H]24	
InChI=1S/C6H6O3/c1-6-2-3(9-6)4(6)8-5(2)7-1/h2-5H,1H2	InChI=1S/C6H6O3/c1-6-2-3(9-6)4(6)8-5(2)7-1/h2-5H,1H2/t2-,3+,4-,5+,6-/m1/s1
