21
gdb 101622	3.43206	0.70068	0.669	4.7608	79.65	-0.2621	0.0224	0.2845	1723.9919	0.181221	-420.409198	-420.398238	-420.397294	-420.44586	38.905	
C	-0.0970809157	 1.5518901011	-0.0842686306	-0.400158
C	 0.0341754122	 0.0230345945	-0.0490982994	 0.023348
C	 0.7827616407	-0.4847566379	-1.2846327964	-0.083589
O	 0.0267933861	-0.1380523873	-2.4343700215	-0.422722
C	 0.7298027456	-0.4940274683	 1.2198965475	-0.200076
C	-0.0257848313	-0.178505244	 2.536999987	-0.147334
N	-1.3788169193	-0.7246175928	 2.6672617239	-0.502284
C	 0.7847014032	-0.6466732049	 3.6750452312	 0.301827
N	 1.4469707575	-1.0298291238	 4.5406547332	-0.320761
H	 0.8810815711	 2.0302325673	 0.0478835755	 0.114279
H	-0.5018262284	 1.8684497045	-1.0476124078	 0.142707
H	-0.7605611494	 1.9307475993	 0.6995103508	 0.110074
H	-0.9711631919	-0.4165453327	-0.1038540317	 0.077028
H	 1.7884108659	-0.0334022236	-1.3159503797	 0.088612
H	 0.9145226299	-1.5762557069	-1.2130584081	 0.086725
H	 0.5327986766	-0.3800526515	-3.2150993988	 0.29024
H	 0.8569161344	-1.5824279547	 1.1576522343	 0.106147
H	 1.7382416332	-0.0657407084	 1.2884891269	 0.115824
H	-0.1108039321	 0.9093676211	 2.6442744512	 0.138053
H	-1.9840202059	-0.3084842744	 1.9673646388	 0.243367
H	-1.3706504222	-1.7268523664	 2.4994221535	 0.238692
45.7517	74.8434	107.4074	133.1892	193.6726	230.925	238.3441	245.9663	273.7475	306.0225	342.8159	403.1919	425.3067	501.1298	575.6332	597.5354	813.2627	837.3434	863.2448	899.8307	931.9892	954.6189	1009.44	1073.1063	1087.036	1105.7194	1141.3041	1172.9825	1201.3458	1234.9004	1263.339	1273.6937	1302.6625	1336.9241	1377.0613	1386.5916	1408.5842	1416.1479	1459.0284	1479.5215	1494.3889	1510.568	1520.9344	1657.1789	2361.9072	2959.9236	2989.2956	3017.9006	3020.1619	3032.0914	3046.1978	3066.6294	3094.2564	3131.9788	3496.2508	3585.6631	3836.1277
CC(CO)CC(N)C#N	C[C@@H](CO)C[C@@H](N)C#N	
InChI=1S/C6H12N2O/c1-5(4-9)2-6(8)3-7/h5-6,9H,2,4,8H2,1H3	InChI=1S/C6H12N2O/c1-5(4-9)2-6(8)3-7/h5-6,9H,2,4,8H2,1H3/t5-,6-/m1/s1
