16
gdb 20221	3.50741	3.00255	2.13985	1.5542	65.85	-0.2123	0.0787	0.291	680.5038	0.133244	-346.532861	-346.527278	-346.526334	-346.562382	23.271	
C	-0.008144893	 1.5531282453	-0.0771683385	-0.076133
O	 1.2162183394	 2.2197458095	 0.2087109763	-0.277686
C	 2.2888725773	 1.3955386245	 0.5486148263	 0.132125
C	 2.2027000466	 0.1652557806	 1.4026207762	-0.134288
C	 0.9109530346	-0.637332901	 1.0955065223	-0.085693
C	 0.0806580868	 0.0496645882	 0.0418679475	-0.07679
C	 1.3034485746	-0.7300992752	-0.3683514934	-0.085693
C	 2.6010058678	 0.0710977162	-0.0828542557	-0.13428
H	-0.7748655649	 1.936968416	 0.6120792914	 0.098257
H	-0.3169905487	 1.8287629565	-1.0964266787	 0.098264
H	 3.1555157021	 2.0205828665	 0.7413803699	 0.104053
H	 2.8073104481	 0.0100809477	 2.2876212819	 0.08603
H	 0.5168914282	-1.4091558639	 1.7433116224	 0.087787
H	-0.8573988856	-0.4543644024	-0.177710826	 0.090229
H	 1.2605279284	-1.5849150465	-1.0302386382	 0.087788
H	 3.5610136883	-0.1681158418	-0.5233316536	 0.086029
115.5546	373.9766	475.1044	557.3479	590.9211	674.9194	713.4303	733.1375	751.6511	813.0198	876.5459	889.2908	906.753	934.6832	955.8446	983.9607	1014.3826	1048.9338	1052.1069	1071.4535	1089.2651	1093.1774	1114.0588	1131.9169	1220.3064	1242.7219	1265.3387	1288.9823	1310.9427	1326.3893	1386.5281	1447.1078	1460.4057	1525.2781	2982.6249	3006.502	3142.8415	3161.4265	3176.1222	3187.0928	3192.1073	3203.0254
C1OC2C3C4C1C4C23	C1O[C@H]2[C@H]3[C@H]4[C@@H]1[C@H]4[C@@H]23	
InChI=1S/C7H8O/c1-2-3-4(2)6-5(3)7(6)8-1/h2-7H,1H2	InChI=1S/C7H8O/c1-2-3-4(2)6-5(3)7(6)8-1/h2-7H,1H2/t2-,3+,4-,5+,6-,7+
