20
gdb 113158	2.4773	1.07687	1.01625	3.185	75.59	-0.2458	0.0241	0.2699	1301.7483	0.169353	-440.30406	-440.293734	-440.29279	-440.339521	37.771	
C	-0.3006260253	 1.6816587739	 0.7032768023	-0.458752
C	-0.0467425708	 0.3392756033	 0.0415442842	 0.203856
C	 1.2834505722	 0.1095088346	-0.6601067504	-0.353458
C	 0.9900111561	-0.6369661031	 0.6073640171	-0.064557
C	 1.7500041771	-0.3521763445	 1.8832125696	-0.083858
O	 1.0201099543	-0.7081096761	 3.0447705856	-0.41741
C	-1.3049586469	-0.2491414634	-0.55409476	 0.374276
N	-1.1956797931	-1.4406036195	-1.223997238	-0.544963
O	-2.3840119082	 0.2990679194	-0.4173306398	-0.366696
H	 0.6211676766	 2.1198418833	 1.0921937017	 0.108727
H	-0.7319601177	 2.3803354379	-0.0179617047	 0.137622
H	-1.022551982	 1.5905190544	 1.520139935	 0.127632
H	 1.3028415523	-0.4183311672	-1.6077524272	 0.109369
H	 1.9962817348	 0.9270145356	-0.60816339	 0.122173
H	 0.7209020012	-1.6849476971	 0.5096558835	 0.097457
H	 2.6585630481	-0.9643105594	 1.9071300017	 0.114614
H	 2.0748868002	 0.6984707056	 1.9131709255	 0.088491
H	 0.1942128662	-0.2132744826	 3.0320563273	 0.287793
H	-0.3158873356	-1.8323635306	-1.5077593574	 0.256005
H	-2.0259488997	-1.7660450845	-1.6912570061	 0.261679
55.3921	87.4413	112.1783	163.6099	206.4182	221.8201	286.3826	321.2507	329.9567	356.7744	432.7577	463.0698	472.5735	542.0998	563.2275	688.7379	736.0102	807.0325	843.2358	916.4233	959.7972	975.9594	1043.2541	1054.4006	1069.0666	1078.8106	1110.7231	1119.1672	1168.1748	1212.3808	1239.0181	1308.7282	1358.3272	1381.8934	1408.4323	1419.42	1438.0546	1481.0484	1493.8313	1502.0704	1511.8588	1619.7217	1775.9989	2992.3931	3050.1327	3063.9494	3114.0754	3125.4411	3129.801	3153.32	3205.8507	3610.0478	3741.0802	3814.9161
CC1(CC1CO)C(N)=O	C[C@]1(C[C@H]1CO)C(=O)N	
InChI=1S/C6H11NO2/c1-6(5(7)9)2-4(6)3-8/h4,8H,2-3H2,1H3,(H2,7,9)	InChI=1S/C6H11NO2/c1-6(5(7)9)2-4(6)3-8/h4,8H,2-3H2,1H3,(H2,7,9)/t4-,6+/m0/s1
