20
gdb 23466	2.90179	1.30673	0.99989	1.1106	82.98	-0.2244	0.0175	0.242	1216.2183	0.172987	-403.116747	-403.108614	-403.10767	-403.149363	32.382	
O	-0.0233069494	 1.3336972488	 0.0941429379	-0.401552
N	 0.0517498092	-0.0731227583	 0.0741711695	-0.224924
C	-1.1007578024	-0.6272139582	 0.0066541732	 0.394497
C	-2.4313756081	 0.085001631	 0.0210929982	-0.312423
C	-3.3722606997	-0.5914770656	 1.0348931824	-0.196896
C	-3.6541646295	-2.0578220123	 0.6750294444	-0.22155
C	-2.3912544408	-2.8510094022	 0.3295625884	-0.033041
C	-1.8811315773	-2.8600822335	-1.0839104312	-0.294205
C	-1.1063274354	-2.1091769009	-0.0146115961	-0.075921
H	 0.9039538413	 1.5762886738	 0.1807731521	 0.303331
H	-2.2759804911	 1.1354647485	 0.2663284862	 0.135332
H	-2.8821436955	 0.0536318053	-0.9807860476	 0.110238
H	-2.9091403491	-0.5390170335	 2.0278884479	 0.106796
H	-4.3136374355	-0.0349463058	 1.0963218177	 0.095787
H	-4.1676125375	-2.5427377604	 1.5115025453	 0.101076
H	-4.35216622	-2.0943313183	-0.1710756997	 0.100387
H	-2.25437221	-3.771234211	 0.8883236668	 0.08878
H	-1.430130584	-3.7638350242	-1.4783114226	 0.114563
H	-2.4291321695	-2.2786849562	-1.8187978729	 0.113399
H	-0.165734116	-2.5517220369	 0.2925428499	 0.096328
74.0241	172.8614	217.5945	279.7754	328.7532	359.0583	402.4854	424.8137	440.9985	547.5159	591.1386	689.5382	751.045	761.4392	832.1032	860.5545	880.5148	909.4896	941.5951	969.3436	997.8878	1029.7125	1056.1123	1061.5123	1105.5162	1123.7246	1131.9753	1193.002	1209.1875	1221.696	1279.5807	1288.561	1339.8671	1356.9122	1371.1182	1374.0288	1393.8942	1438.0204	1479.5151	1483.8404	1494.0045	1501.6899	1718.036	3014.244	3021.6658	3030.9535	3067.8897	3077.6628	3129.1176	3132.5398	3153.4119	3177.2055	3215.8066	3827.8645
ON=C1CCCC2CC12	ON=C1CCC[C@H]2C[C@@H]12	
InChI=1S/C7H11NO/c9-8-7-3-1-2-5-4-6(5)7/h5-6,9H,1-4H2	InChI=1S/C7H11NO/c9-8-7-3-1-2-5-4-6(5)7/h5-6,9H,1-4H2/t5-,6+/m0/s1
