16
gdb 36557	4.8118	0.52515	0.47764	3.8588	83.86	-0.265	0.0164	0.2814	2147.9728	0.121728	-363.565289	-363.555223	-363.554279	-363.60358	34.162	
C	-0.2589932931	-0.1449586884	-1.4757878308	-0.439967
C	 0.0004104373	 0.3485526548	-0.4127686499	 0.31358
C	 0.3070590239	 0.9437542495	 0.8893369519	-0.491768
C	 1.4364404276	 1.8756612558	 0.8512511852	 0.148657
C	 2.3621458864	 2.6433268354	 0.8345859633	 0.017551
C	 3.4882017365	 3.5650601069	 0.7683376671	-0.350969
C	 4.057482521	 3.6625073966	-0.6714866602	-0.323775
C	 5.1878852918	 4.5841448847	-0.7519754596	 0.255275
N	 6.0800775753	 5.3171837274	-0.7940636379	-0.300671
H	-0.4876806146	-0.5809713565	-2.4166666358	 0.203888
H	-0.5836267072	 1.4623676894	 1.2700162674	 0.164594
H	 0.5155417377	 0.1443143385	 1.6136492669	 0.164591
H	 3.1842807053	 4.5641126012	 1.1008013146	 0.152798
H	 4.2860912618	 3.2429405194	 1.4470259522	 0.152798
H	 4.3774449768	 2.6725549081	-1.0112709387	 0.166707
H	 3.2733968537	 3.9963895772	-1.3581947257	 0.166712
8.1262	47.4396	59.9988	126.3318	201.3987	207.3348	315.478	319.5662	372.0586	406.2496	425.8181	521.719	583.8998	626.6381	654.2339	766.9859	800.9912	934.8503	945.9343	953.675	1007.7564	1035.4185	1160.6746	1198.3968	1230.7525	1285.7688	1307.1967	1336.2419	1370.7359	1453.6498	1468.091	1481.6896	2248.159	2364.039	2380.063	3009.4567	3034.1407	3038.326	3061.7862	3070.2514	3104.7789	3506.1986
C#CCC#CCCC#N	C#CCC#CCCC#N	
InChI=1S/C8H7N/c1-2-3-4-5-6-7-8-9/h1H,3,6-7H2	InChI=1S/C8H7N/c1-2-3-4-5-6-7-8-9/h1H,3,6-7H2
