18
gdb 114503	2.66427	1.4293	1.09357	3.1352	72.71	-0.2333	-0.0286	0.2047	1142.6822	0.146432	-439.036111	-439.027673	-439.026729	-439.070003	30.892	
C	-0.2548528429	 1.5722219541	 0.0697467439	-0.242158
O	-0.2139216836	 0.2501769947	 0.5661834084	-0.233403
C	-1.3056108565	-0.5284085651	 0.1654458903	 0.126774
C	-1.2601904005	-1.1689341672	-1.2545512213	-0.212111
N	-1.2822502262	-2.5552156383	-0.6810616217	-0.130121
C	 0.0917872386	-3.126811306	-0.5084830312	-0.305359
C	 0.1473086864	-2.5722521766	 0.9285086586	 0.415173
O	 0.9056981112	-2.6578200772	 1.8441088012	-0.279155
C	-1.2540446758	-1.9681803202	 0.7249586252	-0.171216
H	 0.6209852449	 2.0910921063	 0.4644525829	 0.137692
H	-0.2193489923	 1.6011975031	-1.0294341385	 0.110749
H	-1.1634554711	 2.0976103811	 0.4013312591	 0.111398
H	-2.2522301784	-0.0117264302	 0.3808863557	 0.077521
H	-2.1319797593	-0.9752603533	-1.8853856624	 0.111241
H	-0.3509827712	-0.931597491	-1.8178061159	 0.1087
H	 0.1007631576	-4.2216966142	-0.553772369	 0.138273
H	 0.8518612312	-2.7426791757	-1.1979832484	 0.131272
H	-2.0237858922	-2.2662543643	 1.4410559932	 0.10473
53.4625	96.3225	106.2559	194.953	273.9242	382.2191	393.0017	408.1433	448.196	551.9027	646.6667	730.9526	750.5465	843.1711	908.8421	930.6034	941.9901	982.4212	1021.4367	1047.0638	1078.4606	1094.2011	1158.086	1165.1246	1180.9258	1185.8226	1201.2144	1211.7022	1255.8063	1258.7491	1291.1128	1301.2139	1386.1571	1450.0581	1480.6971	1488.3337	1490.6358	1506.682	1908.5243	2979.3105	2994.2763	3029.5955	3034.645	3039.8101	3084.9242	3086.1866	3095.9224	3126.1068
COC1CN2CC(=O)C12	CO[C@H]1CN2CC(=O)[C@@H]12	
InChI=1S/C6H9NO2/c1-9-5-3-7-2-4(8)6(5)7/h5-6H,2-3H2,1H3	InChI=1S/C6H9NO2/c1-9-5-3-7-2-4(8)6(5)7/h5-6H,2-3H2,1H3/t5-,6-/m0/s1
