21
gdb 94586	3.16735	1.03262	0.85119	1.8868	79.51	-0.2649	0.0184	0.2832	1423.6018	0.180715	-424.263277	-424.253269	-424.252325	-424.299726	35.565	
C	-0.1750311469	 1.5429747598	 0.0503274855	-0.385471
C	-0.0320966446	 0.0238779845	 0.0000739154	-0.039527
C	 1.1812397634	-0.4721827576	-0.84925713	-0.231344
C	 2.0000102005	-0.6459617946	 0.4618263454	-0.246776
C	 0.6631136138	-0.6125220934	 1.2306433116	 0.171708
O	 0.5894271922	 0.1710720349	 2.4259757317	-0.251135
C	 1.0489146136	-0.4144434569	 3.5539443152	 0.423916
C	 0.8995214662	 0.5148320071	 4.734952421	-0.479872
O	 1.5094821962	-1.5274812107	 3.5913819468	-0.354111
H	 0.7749817564	 2.0325858409	 0.2872855759	 0.116595
H	-0.5146268441	 1.9211788967	-0.9195449604	 0.112299
H	-0.9003672	 1.848310528	 0.8098999054	 0.121308
H	-0.9967857433	-0.4258098561	-0.2530192788	 0.070808
H	 0.983517425	-1.4247407075	-1.3467646544	 0.104936
H	 1.5726904804	 0.2315340476	-1.5876200385	 0.100791
H	 2.6178838694	-1.5370401647	 0.5790376842	 0.113709
H	 2.6035658605	 0.2374507261	 0.6859484739	 0.108345
H	 0.2995786035	-1.6188863639	 1.4486922822	 0.100368
H	-0.1530314168	 0.7771246601	 4.8751304338	 0.148426
H	 1.2842746262	 0.0286616326	 5.6305366152	 0.147077
H	 1.4436879086	 1.4455961972	 4.5513756891	 0.147952
32.4212	56.8818	90.4968	115.3264	160.3099	232.2586	242.8141	336.3374	363.4032	407.2577	525.7673	602.4885	610.6873	701.3223	770.4308	826.5528	885.2523	904.6939	926.4016	947.072	981.2938	1004.0818	1028.1885	1063.3395	1075.5748	1115.7522	1153.1039	1171.679	1215.8805	1245.9629	1258.818	1263.8214	1286.6171	1293.6472	1365.9748	1384.4776	1400.6527	1413.8251	1469.3914	1476.0253	1480.1738	1494.8568	1497.7717	1500.3213	1821.1106	3036.2745	3052.4272	3056.6624	3064.3032	3072.5045	3089.2088	3103.9182	3110.6261	3113.4765	3121.166	3134.8918	3168.8381
CC1CCC1OC(C)=O	C[C@H]1CC[C@H]1OC(=O)C	
InChI=1S/C7H12O2/c1-5-3-4-7(5)9-6(2)8/h5,7H,3-4H2,1-2H3	InChI=1S/C7H12O2/c1-5-3-4-7(5)9-6(2)8/h5,7H,3-4H2,1-2H3/t5-,7+/m0/s1
