21
gdb 114054	2.6458	1.18545	0.98833	2.9078	79.27	-0.2373	0.0726	0.3099	1295.7381	0.17976	-424.19914	-424.189238	-424.188294	-424.233573	36.886	
C	-0.1555669299	 1.5189174576	 0.0424456756	-0.500606
C	 0.1769998879	 0.0626496105	 0.0071006574	 0.345416
C	 0.7347402467	-0.7652949975	-1.1615514171	-0.295538
C	 1.3574652849	-1.7536023773	-0.1143449674	-0.041147
C	 2.8732668104	-1.805762573	-0.1466702733	-0.099934
O	 3.2628445627	-2.396102186	-1.3779412471	-0.418729
C	 0.7584514546	-0.8672183464	 1.0022129048	 0.343508
C	 1.2258152126	-0.6981793482	 2.4123954112	-0.510609
O	-0.6586681757	-0.8385012603	 0.760688519	-0.334092
H	 0.6720636306	 2.1161897876	-0.3540593443	 0.120789
H	-1.0417523885	 1.727571076	-0.5681330476	 0.131323
H	-0.3672057441	 1.844987549	 1.0644894684	 0.129094
H	-0.0189235781	-1.1758478547	-1.8373374612	 0.104901
H	 1.5032591021	-0.250546771	-1.7441201321	 0.105947
H	 0.9487399929	-2.7679680873	-0.1358390795	 0.082404
H	 3.2818903317	-0.7849398699	-0.0484927848	 0.078622
H	 3.2461909813	-2.3897685478	 0.7104388338	 0.087299
H	 4.2236454859	-2.4238048394	-1.4084193258	 0.286349
H	 2.3030066555	-0.5053031712	 2.452288958	 0.12192
H	 0.7045817019	 0.1351628064	 2.8911867614	 0.131786
H	 1.0244005946	-1.6021831569	 2.9989061309	 0.131297
85.6174	131.7844	169.9372	184.2406	191.1669	197.083	266.049	296.0042	322.8022	397.5452	437.797	480.1064	526.4408	595.9101	695.1529	740.81	823.4783	862.2787	909.1099	922.9049	961.5665	1011.889	1051.6396	1062.4746	1092.6421	1128.6573	1141.9518	1175.8013	1206.917	1213.362	1239.0895	1257.5555	1263.8159	1303.8217	1348.4107	1406.8674	1408.872	1457.4445	1464.4583	1476.1712	1478.1972	1487.4446	1492.9997	1519.272	1523.8076	2948.8759	2980.7422	3030.0062	3031.9457	3064.5758	3072.3884	3090.948	3092.742	3115.0741	3117.4122	3121.263	3828.0405
CC12CC(CO)C1(C)O2	C[C@@]12C[C@@H](CO)[C@]1(C)O2	
InChI=1S/C7H12O2/c1-6-3-5(4-8)7(6,2)9-6/h5,8H,3-4H2,1-2H3	InChI=1S/C7H12O2/c1-6-3-5(4-8)7(6,2)9-6/h5,8H,3-4H2,1-2H3/t5-,6+,7-/m0/s1
