20
gdb 73980	3.37025	1.47451	1.27039	1.1179	87.3	-0.1976	-0.0365	0.161	1080.1775	0.169796	-365.90205	-365.893725	-365.89278	-365.934379	32.785	
C	-0.2979214509	 1.3771549189	 0.0376730542	-0.471501
C	-0.0652272177	-0.0541057031	 0.3933914027	 0.255739
C	-1.0215545515	-1.0135237424	 0.455755542	-0.081093
C	-1.6669408725	-1.2912366446	-0.9182738958	-0.313321
C	-0.5086590336	-2.3676531769	-1.0372392659	 0.320328
C	-0.5184751575	-3.4794233272	-2.047147456	-0.470843
C	-0.3432688384	-2.4015084125	 0.432233886	-0.125974
N	 0.8459587895	-2.1158438147	-0.3482840501	-0.158981
C	 1.2569405572	-0.7557561059	 0.0898052252	-0.230532
H	 0.2223584332	 1.6575024237	-0.8882171293	 0.121976
H	-1.3648315688	 1.5923179427	-0.0708339198	 0.129372
H	 0.0900103639	 2.0433441887	 0.8200016128	 0.134418
H	-2.6219391827	-1.8307280972	-0.9223111601	 0.105989
H	-1.715348105	-0.4564119893	-1.6244488102	 0.099404
H	-0.2560186405	-3.1088587544	-3.0446230149	 0.120771
H	 0.2012336006	-4.2542218268	-1.7737268376	 0.135813
H	-1.5154253934	-3.9301727067	-2.1106807045	 0.116154
H	-0.4087349991	-3.212554941	 1.1499860784	 0.084146
H	 1.7757013464	-0.2066807331	-0.7058610332	 0.113219
H	 1.9708187008	-0.8849407581	 0.914720176	 0.114916
123.743	168.5267	180.2398	229.2254	253.1843	317.459	370.4729	444.5371	475.9943	563.4011	580.1063	626.1798	741.5011	784.2329	831.8068	853.7226	904.3667	939.2443	962.9591	981.4642	996.2541	1021.1341	1026.0446	1065.5051	1082.0938	1103.7277	1123.0535	1175.6973	1192.6794	1213.2167	1215.1486	1237.1206	1311.2807	1383.2519	1403.2658	1412.8035	1460.963	1474.7984	1482.7191	1486.1087	1490.9773	1502.2332	1601.7366	3005.161	3011.5331	3020.6155	3029.9369	3049.7847	3055.6743	3081.178	3086.9149	3106.2305	3125.5441	3165.0573
CC1=C2CC3(C)C2N3C1	C[C]1[C]2C[C@]3(C)[C@H]2N3C1	
InChI=1S/C8H11N/c1-5-4-9-7-6(5)3-8(7,9)2/h7H,3-4H2,1-2H3	InChI=1S/C8H11N/c1-5-4-9-7-6(5)3-8(7,9)2/h7H,3-4H2,1-2H3/t7-,8+,9?/m0/s1
