20
gdb 19819	3.45524	2.02958	1.7395	0.2526	77.19	-0.23	0.0804	0.3105	862.0805	0.178718	-311.814801	-311.807798	-311.806854	-311.845483	28.852	
C	-0.3981275905	 1.5574241247	-0.0224860008	-0.414143
C	 0.0048150249	 0.089105886	 0.0098703441	 0.038503
C	 1.0430776688	-0.4806579749	-1.0226130029	-0.281387
C	 1.81132808	-1.1792731163	 0.144118805	-0.00838
C	 3.0338434322	-0.4776629823	 0.7837707597	-0.057099
C	 2.9227394698	 1.0152152786	 0.7376788305	-0.286678
C	 2.0967315036	 0.2685045362	 1.7520258236	-0.059777
C	 0.8761787156	-0.4860710757	 1.1729098706	-0.036603
H	 0.4598185681	 2.2283954395	 0.0676520361	 0.120486
H	-0.9163273176	 1.799864342	-0.9574368761	 0.110909
H	-1.0819013681	 1.7896201649	 0.8020859513	 0.111664
H	-0.9072258932	-0.5161176967	-0.0491240751	 0.070376
H	 0.6126322063	-1.1672711172	-1.7558284427	 0.092622
H	 1.6188840341	 0.2717805458	-1.5684069528	 0.098201
H	 1.8802691135	-2.2660088037	 0.1014166189	 0.063989
H	 3.9789792311	-0.9664058912	 0.9905911227	 0.080222
H	 3.7697689188	 1.5421411125	 1.1677102291	 0.108532
H	 2.4880448935	 1.531576052	-0.1101618006	 0.108245
H	 2.2324586563	 0.4627069461	 2.8099046562	 0.080127
H	 0.3541891827	-1.0724554502	 1.9311537132	 0.060192
174.4129	187.1039	215.3656	313.3594	362.5861	443.9152	562.1241	623.616	708.4417	734.2698	739.4218	836.6172	849.1139	885.3103	906.0627	914.2552	932.6932	963.0251	978.0873	1016.5306	1041.6162	1064.0476	1086.3857	1091.0181	1110.6703	1125.2228	1139.144	1184.6702	1199.7525	1214.1162	1245.2543	1266.6758	1289.5298	1304.3684	1327.5357	1354.712	1374.2971	1410.8929	1479.1915	1493.9079	1498.7806	1508.1708	3025.0767	3031.4407	3056.5169	3085.6697	3086.8115	3100.1202	3112.8781	3116.4875	3130.559	3164.5474	3175.0532	3206.753
CC1CC2C3CC3C12	C[C@H]1C[C@H]2[C@H]3C[C@H]3[C@@H]12	
InChI=1S/C8H12/c1-4-2-6-5-3-7(5)8(4)6/h4-8H,2-3H2,1H3	InChI=1S/C8H12/c1-4-2-6-5-3-7(5)8(4)6/h4-8H,2-3H2,1H3/t4-,5+,6-,7+,8-/m0/s1
