18
gdb 45200	3.43225	1.55368	1.31547	3.5471	76.3	-0.2431	0.0136	0.2567	988.6704	0.151052	-401.921325	-401.91469	-401.913746	-401.95209	27.802	
O	-0.2032496684	 0.0118959386	 0.2478196007	-0.344192
C	-0.0904002773	 1.1950791421	 0.1092837609	 0.31172
N	-1.0477884091	 2.2313116809	 0.010966632	-0.378691
C	-0.0645241707	 3.1591156743	-0.5986720531	 0.065636
C	 0.4458578078	 4.5619345374	-0.1845164878	-0.275204
C	 1.8497646908	 4.1012716803	 0.3318231391	-0.021571
C	 1.3942201411	 3.0108918995	 1.3301819266	-0.226814
C	 1.0269844953	 2.265250301	 0.0147866587	 0.15478
C	 2.3123818262	 2.8879235669	-0.5859118629	-0.328086
H	-1.9955840705	 2.0788609071	-0.30915386	 0.244447
H	-0.0933150917	 3.0760126414	-1.69094852	 0.086793
H	 0.4814684856	 5.2427270753	-1.0391438663	 0.098486
H	-0.1205677441	 5.0456644547	 0.6155900524	 0.113881
H	 2.5625233969	 4.8780399653	 0.6132463768	 0.070356
H	 2.2202565454	 2.5180428312	 1.8473270326	 0.106972
H	 0.5872645636	 3.2478274818	 2.0268154702	 0.105946
H	 2.3473752958	 3.0197112729	-1.6700354647	 0.101833
H	 3.2492917734	 2.4638154395	-0.2204434852	 0.113707
150.9488	246.7457	278.3609	410.4073	443.1832	514.9237	545.3786	615.2128	663.0876	718.9141	718.974	807.7338	847.2483	852.3119	854.7368	930.5664	938.9977	978.3967	996.892	1009.9086	1065.2871	1070.5542	1090.9382	1113.3952	1147.6953	1167.0755	1185.0801	1206.8885	1215.71	1250.0095	1264.8493	1276.8786	1308.3911	1331.8217	1416.07	1485.6045	1492.8997	1523.0874	1891.5648	3027.0664	3061.6019	3064.7466	3068.9622	3104.4477	3109.2974	3129.3921	3133.4178	3578.4541
O=C1NC2CC3CC12C3	O=C1N[C@H]2C[C@H]3C[C@@]12C3	
InChI=1S/C7H9NO/c9-6-7-2-4(3-7)1-5(7)8-6/h4-5H,1-3H2,(H,8,9)	InChI=1S/C7H9NO/c9-6-7-2-4(3-7)1-5(7)8-6/h4-5H,1-3H2,(H,8,9)/t4-,5-,7-/m0/s1
