16
gdb 131776	3.61193	1.24773	0.98613	3.8584	71.15	-0.2573	0.0009	0.2582	1151.6557	0.126189	-434.016657	-434.009006	-434.008062	-434.049505	27.949	
O	 0.0353770242	 1.4542953987	 0.1172614232	-0.410944
C	 0.0189576066	 0.0833354367	-0.2228936671	-0.073511
C	-1.3777969869	-0.5194348795	-0.0815208281	-0.180019
C	-1.4597079635	-2.0984262754	-0.1392121347	-0.201987
N	-1.9226679478	-2.0073618221	 1.2635870027	 0.089638
N	-2.3592127892	-2.618236386	 2.3751761743	-0.176249
N	-2.6121425079	-1.6313551223	 3.2054981532	-0.177966
C	-2.3521269925	-0.4132607884	 2.6295655576	-0.224455
C	-1.8984800135	-0.6699265426	 1.3537583276	 0.306931
H	-0.1132726377	 1.5239559674	 1.0665288897	 0.292468
H	 0.3420797801	 0.0230679064	-1.2676732288	 0.12045
H	 0.7337080864	-0.4969591333	 0.3810776755	 0.099839
H	-2.0747521196	-0.0180768208	-0.7569346196	 0.116772
H	-2.2078389726	-2.5132135643	-0.8164815742	 0.14916
H	-0.507658049	-2.6219821802	-0.2511439755	 0.144254
H	-2.518280907	 0.5029987859	 3.1702426544	 0.125621
73.5901	119.4496	137.2735	223.2064	336.3434	379.9196	416.0794	503.5055	667.258	696.6926	723.9864	799.4854	827.6559	867.0167	958.0138	969.8766	1017.6596	1074.1231	1091.8875	1106.4417	1125.5474	1150.3163	1187.7723	1206.2419	1235.5861	1247.2556	1281.1911	1312.3794	1352.728	1399.4816	1416.8151	1473.2224	1500.9309	1514.1265	1533.985	2986.883	3072.4587	3076.9944	3095.2166	3140.9055	3282.1149	3808.7877
OCC1CN2N=NC=C12	OC[C@H]1Cn2nncc12	
InChI=1S/C5H7N3O/c9-3-4-2-8-5(4)1-6-7-8/h1,4,9H,2-3H2	InChI=1S/C5H7N3O/c9-3-4-2-8-5(4)1-6-7-8/h1,4,9H,2-3H2/t4-/m1/s1
