23
gdb 108315	2.9121	1.19739	1.00842	1.3533	85.19	-0.2462	0.0734	0.3196	1294.7398	0.205587	-388.270054	-388.260676	-388.259732	-388.304038	36.281	
C	-0.0050948529	 1.5923548613	 0.1241115314	-0.379527
C	 0.0084329911	 0.0584608981	 0.1193422737	-0.291403
C	-1.3724986778	-0.5491071955	-0.0350294306	 0.411342
C	-2.3885505534	-0.405500848	 1.1285111306	-0.278014
C	-2.8017528892	-1.896362007	 0.9490157709	-0.230922
C	-1.6472760318	-2.1053817648	-0.0706084068	-0.110205
C	-2.0659379397	-1.9943162573	-1.5454225394	 0.143298
O	-3.2793229332	-2.6436187359	-1.856239699	-0.432761
C	-2.0481357091	-0.4382842685	-1.4412036215	-0.34199
H	 1.004968672	 1.997623037	 0.2386629878	 0.110837
H	-0.419467973	 1.9882290215	-0.8093648045	 0.116064
H	-0.6153093703	 1.9800017093	 0.9468249063	 0.11906
H	 0.6586613346	-0.2987687785	-0.6910637037	 0.088782
H	 0.4574287907	-0.3052106413	 1.0534752386	 0.09087
H	-1.8907968119	-0.2261385069	 2.0873204247	 0.091837
H	-3.1719076724	 0.3488306479	 1.0046482009	 0.090046
H	-2.7222786317	-2.5027866721	 1.8533256095	 0.096511
H	-3.7906057539	-2.0555705508	 0.5152688853	 0.118937
H	-0.8974358076	-2.8558013926	 0.1862736272	 0.055225
H	-1.2568869263	-2.3469589965	-2.2018744852	 0.062523
H	-3.5027271836	-2.4433735436	-2.7706667591	 0.281726
H	-3.0506034632	-0.0004672315	-1.4165339498	 0.095612
H	-1.4605574674	 0.0736165958	-2.2086618573	 0.092153
75.1075	106.917	156.5041	214.2037	230.7859	257.6341	323.5672	327.6594	363.4302	418.0722	552.0777	595.7285	620.8239	752.9263	784.5266	789.6899	848.1313	884.1431	905.0983	942.9867	949.5583	978.8568	988.531	1036.4825	1041.7384	1056.2996	1096.7148	1119.5403	1150.4961	1179.3492	1203.5958	1220.4537	1235.4909	1243.9463	1248.0548	1266.3252	1313.7924	1323.3954	1324.6477	1341.2525	1367.1294	1408.4714	1418.6361	1472.6707	1477.4929	1487.0194	1498.2918	1500.6278	1507.7888	2982.4626	3006.3714	3032.6306	3035.4765	3038.1103	3045.8162	3073.2051	3082.482	3089.1156	3099.0982	3101.8457	3103.4244	3128.3416	3817.3066
CCC12CCC1C(O)C2	CC[C@]12CC[C@H]1[C@@H](O)C2	
InChI=1S/C8H14O/c1-2-8-4-3-6(8)7(9)5-8/h6-7,9H,2-5H2,1H3	InChI=1S/C8H14O/c1-2-8-4-3-6(8)7(9)5-8/h6-7,9H,2-5H2,1H3/t6-,7-,8+/m0/s1
