18
gdb 66554	3.15206	1.93566	1.63205	1.7445	77.61	-0.2366	0.0052	0.2418	889.499	0.150031	-364.761335	-364.754797	-364.753853	-364.791802	27.551	
C	-0.0886819814	 1.47199733	-0.0679838555	-0.511666
C	 0.0644050104	-0.0111464431	 0.0511055796	 0.354509
C	 0.9432044724	-0.8549092964	-0.8053656667	-0.104427
C	 1.1325661514	-2.188495828	-0.0315680595	-0.084871
C	 1.7958540942	-2.0319136166	 1.3154964204	-0.092521
C	 1.0067419978	-1.2784141327	 2.0932963861	-0.098249
C	-0.2212766584	-0.8970043953	 1.3039201229	-0.136655
C	-0.3864878059	-2.0008644714	 0.2291655647	-0.000067
N	-0.5496548562	-0.9790468752	-0.9188731664	-0.21911
H	 0.6675779386	 1.99086742	 0.5322586498	 0.122412
H	 0.0241842008	 1.7910863639	-1.1085991657	 0.130712
H	-1.0771007814	 1.7945040394	 0.2765671451	 0.123708
H	 1.5468140967	-0.4568052958	-1.6132326781	 0.09169
H	 1.4331413529	-3.0277782485	-0.6577024011	 0.074721
H	 2.7776456555	-2.4138436225	 1.5678875047	 0.099911
H	 1.2272978879	-0.9352859972	 3.0968617066	 0.099731
H	-1.1123396148	-0.5967368321	 1.8556545827	 0.070542
H	-1.0816834206	-2.8335584685	 0.3300235503	 0.07963
189.086	205.9318	276.3258	390.7092	439.2845	570.373	594.1435	663.9711	741.9423	760.849	789.9236	808.4809	835.3044	856.2063	896.365	924.2883	938.1195	948.4875	961.8402	986.668	991.6628	1015.4042	1037.0078	1089.3396	1124.718	1132.5234	1175.0285	1212.4176	1216.3384	1242.4595	1263.7639	1293.4306	1300.2659	1360.4013	1403.2745	1433.3988	1483.8379	1492.7301	1635.2779	3028.1763	3091.5669	3107.046	3111.9886	3118.9682	3128.6385	3177.1976	3193.0565	3217.769
CC12C3C4C=CC1C4N23	C[C@@]12[C@H]3[C@H]4C=C[C@@H]1[C@H]4N23	
InChI=1S/C8H9N/c1-8-5-3-2-4-6(5)9(8)7(4)8/h2-7H,1H3	InChI=1S/C8H9N/c1-8-5-3-2-4-6(5)9(8)7(4)8/h2-7H,1H3/t4-,5+,6-,7+,8-,9?/m0/s1
