23
gdb 122109	3.04781	0.68686	0.58866	1.7369	84.33	-0.2481	-0.0216	0.2265	1955.6351	0.202009	-425.430973	-425.419393	-425.418449	-425.469518	39.257	
C	-0.0178649444	 1.5497738061	 0.149547367	-0.392676
C	 0.0004590132	 0.0260723495	-0.004484984	-0.196472
C	 0.718054572	-0.4625179073	-1.2823806962	-0.059896
C	 0.8650799031	-1.9957783306	-1.2863254986	-0.227737
C	 1.7105600827	-2.5200286967	-2.4416442091	-0.062339
O	 1.781359377	-3.9235449648	-2.3332285644	-0.23053
C	 2.5463596963	-4.5149434172	-3.3560997591	-0.229819
C	-0.0778031648	-0.0233763826	-2.4964342916	 0.171733
O	 0.2935829785	 0.7446553211	-3.3457589757	-0.25715
H	 0.9993791297	 1.9521876745	 0.199926895	 0.122825
H	-0.5202877245	 2.0373740734	-0.6920181739	 0.130673
H	-0.5397373273	 1.8423538391	 1.0654781386	 0.117132
H	 0.497511326	-0.4285610143	 0.8603171595	 0.105864
H	-1.026798906	-0.3633025536	-0.0017077401	 0.102691
H	 1.7047608449	 0.0111871331	-1.3511595333	 0.090415
H	 1.3206617816	-2.3186819156	-0.3440092877	 0.112621
H	-0.1249876678	-2.4675180936	-1.3307575156	 0.110324
H	 1.2723099622	-2.2301819111	-3.4126790976	 0.095505
H	 2.7212742282	-2.0768499596	-2.407084644	 0.089969
H	 2.1262720375	-4.3077177738	-4.3531716674	 0.106074
H	 3.5891533342	-4.1597413012	-3.3448544922	 0.104501
H	 2.5396235972	-5.5945415269	-3.1876267573	 0.127241
H	-1.0962562495	-0.4833649979	-2.5455068224	 0.069049
46.5601	55.5756	71.5353	91.3066	109.349	128.2498	216.4653	230.8613	243.8158	288.4275	314.5137	346.5513	449.2399	465.5283	570.7729	770.3174	781.8854	886.1904	932.7457	974.0024	995.2627	1027.5874	1031.8656	1058.1752	1124.4788	1134.788	1165.7426	1169.1573	1185.4387	1226.5392	1232.0024	1267.7563	1287.1228	1305.9173	1349.0122	1354.3692	1371.4046	1416.7147	1422.2845	1431.6965	1481.5668	1482.61	1485.3542	1494.1425	1499.4475	1504.4553	1505.8821	1530.5882	1832.356	2825.2602	2945.2592	2970.6783	2971.334	3013.2794	3017.8392	3030.4694	3037.123	3044.907	3058.6992	3079.3032	3105.5551	3110.0844	3114.4079
CCC(CCOC)C=O	CC[C@@H](CCOC)C=O	
InChI=1S/C7H14O2/c1-3-7(6-8)4-5-9-2/h6-7H,3-5H2,1-2H3	InChI=1S/C7H14O2/c1-3-7(6-8)4-5-9-2/h6-7H,3-5H2,1-2H3/t7-/m0/s1
