15
gdb 123611	3.16067	2.25046	1.51169	3.3393	69.74	-0.2159	-0.0398	0.1761	829.6331	0.115488	-416.711648	-416.705574	-416.70463	-416.741973	24.439	
C	-0.1269849925	 1.4914825049	-0.0384559334	-0.166176
C	 1.4211923399	 1.7026461481	 0.057256067	-0.122059
C	 2.1467621289	 2.151053963	 1.3720717472	-0.094738
O	 2.3368611248	 0.9517449263	 2.2116116466	-0.268562
C	 1.611793721	-0.0294664264	 1.5893298363	 0.205396
C	 1.3818597254	 0.2234172149	 0.2814475982	 0.047901
N	 0.0373632319	-0.0661686297	-0.0188893359	-0.08718
N	-0.4920274886	-0.7512894223	 1.0917613475	-0.202107
C	 0.4537384647	-0.7765402038	 2.013537528	-0.082921
H	-0.6826128704	 1.7977549589	 0.8482367002	 0.145102
H	-0.6097981462	 1.8262646278	-0.9557658594	 0.141745
H	 1.8765879953	 2.1236254551	-0.8396432353	 0.100063
H	 3.1368984745	 2.5529805847	 1.1424644065	 0.131673
H	 1.5935664754	 2.8902858995	 1.963837784	 0.120391
H	 0.278947506	-1.2853164611	 2.9528111723	 0.131472
135.4619	298.9618	333.2871	342.8699	501.8514	628.6825	656.1996	703.4306	737.9839	776.2993	832.9985	853.7482	883.2006	908.001	920.2506	955.3393	985.4126	1037.6793	1071.213	1122.1695	1132.7182	1171.0292	1188.6145	1216.5686	1242.6601	1286.8837	1317.0442	1333.5415	1397.2912	1424.8926	1470.8174	1501.8824	1605.4774	3034.128	3088.3184	3093.676	3108.1045	3169.2665	3225.226
C1C2COC3=C2N1N=C3	C1[C@H]2CO[C]3[C]2N1[N][CH]3	
InChI=1S/C6H6N2O/c1-5-6-4(3-9-5)2-8(6)7-1/h1,4H,2-3H2	InChI=1S/C6H6N2O/c1-5-6-4(3-9-5)2-8(6)7-1/h1,4H,2-3H2/t4-/m0/s1
