12
gdb 130549	3.71784	1.24197	0.93097	1.5043	69.	-0.2809	-0.0867	0.1942	1138.527	0.076661	-435.450219	-435.442743	-435.441799	-435.482922	26.728	
O	-0.0053311746	-0.041107651	 0.0026967054	-0.290287
C	-0.023943615	 1.1736471215	 0.006263096	 0.148036
C	 1.1861751397	 1.9670526703	 0.0002894368	 0.306752
C	 2.2112314408	 2.5963817665	-0.0048884066	-0.410866
C	-1.315118412	 1.9080395315	 0.0171137943	 0.300446
N	-1.3643183834	 3.2240232395	 0.0211172964	-0.193408
O	-2.7025776155	 3.5430673047	 0.0311636815	-0.156119
C	-3.4299650646	 2.4078500096	 0.0329456218	 0.07844
C	-2.6154697258	 1.3264950362	 0.0242643336	-0.319203
H	 3.1139822521	 3.157682197	-0.0093957116	 0.219653
H	-4.5002212841	 2.5411074389	 0.0406360255	 0.164677
H	-2.8654955976	 0.2801786854	 0.0229804569	 0.151878
65.0448	118.5584	179.1776	235.1917	279.9865	437.7441	492.7335	613.4919	648.3787	658.9569	679.0195	713.7868	799.4074	831.8165	889.4057	922.9256	967.1215	971.4698	1042.3058	1098.8463	1141.9695	1311.3565	1456.8163	1469.9986	1586.7484	1742.9592	2221.6018	3272.6753	3305.042	3495.6387
O=C(C#C)C1=NOC=C1	O=C(C#C)c1nocc1	
InChI=1S/C6H3NO2/c1-2-6(8)5-3-4-9-7-5/h1,3-4H	InChI=1S/C6H3NO2/c1-2-6(8)5-3-4-9-7-5/h1,3-4H
