22
gdb 114750	2.26535	1.57936	1.18321	1.7416	81.63	-0.2182	0.0758	0.294	1162.1778	0.194896	-404.322771	-404.313817	-404.312872	-404.356136	34.344	
C	 0.2670213697	 0.8688692755	-0.745323835	-0.238045
O	-0.0428953872	-0.4722745507	-0.4479078269	-0.232865
C	-1.3202488743	-0.6522484234	 0.1529744761	 0.066725
C	-2.4804781354	-0.663781819	-0.8741799198	-0.179212
N	-2.7562349364	-2.0581910116	-1.2687045608	-0.106071
C	-1.549513744	-2.797304821	-1.6872337732	-0.253016
C	-2.0525772865	-2.9133580817	-0.2938877907	-0.030609
C	-1.400885624	-2.0624796567	 0.7901600386	-0.004525
C	-0.0860756655	-2.607166424	 1.3503388108	-0.397075
H	 1.2825969847	 0.8847121826	-1.1485056551	 0.128329
H	-0.4130128684	 1.3042567669	-1.492470598	 0.108014
H	 0.2317653836	 1.4987390617	 0.1575657407	 0.105866
H	-1.4628603497	 0.1325019381	 0.9108515233	 0.064393
H	-3.3918002044	-0.2654758936	-0.4129078541	 0.103756
H	-2.2597575228	-0.0520322723	-1.7544334764	 0.107878
H	-1.7450580875	-3.5988884573	-2.3941393315	 0.108051
H	-0.634950036	-2.2389325351	-1.857601953	 0.133034
H	-2.5713502903	-3.81644405	 0.0180085946	 0.083078
H	-2.1245527357	-1.9894353739	 1.6134263517	 0.079073
H	 0.6725942208	-2.6834778133	 0.569406438	 0.133272
H	 0.3072634585	-1.9571663283	 2.1383920705	 0.110859
H	-0.2398425191	-3.6011989628	 1.7827026602	 0.109093
101.5427	129.1594	186.0283	204.5761	221.4628	241.6648	307.8831	370.6069	409.671	455.02	531.2735	644.6459	726.4388	764.8848	813.9422	859.7627	871.4701	937.5887	957.4672	992.6099	1012.3698	1046.3543	1057.3205	1095.7745	1118.8177	1139.5966	1144.5782	1166.7853	1181.8178	1183.2542	1216.6287	1249.8206	1258.8601	1282.4863	1334.1562	1337.2906	1360.8171	1389.1357	1399.2597	1416.6767	1476.1679	1480.7541	1489.2128	1495.1782	1499.0306	1502.3305	1512.3813	2974.1727	2985.2891	3013.5555	3023.3856	3038.3253	3041.5733	3086.0366	3100.7723	3113.5213	3114.7642	3135.4516	3137.4839	3210.4451
COC1CN2CC2C1C	CO[C@H]1CN2C[C@H]2[C@H]1C	
InChI=1S/C7H13NO/c1-5-6-3-8(6)4-7(5)9-2/h5-7H,3-4H2,1-2H3	InChI=1S/C7H13NO/c1-5-6-3-8(6)4-7(5)9-2/h5-7H,3-4H2,1-2H3/t5-,6+,7+,8?/m1/s1
