19
gdb 109994	1.92514	1.55422	1.16813	4.154	71.51	-0.2412	-0.0288	0.2124	1149.9395	0.157019	-460.142389	-460.132776	-460.131831	-460.177541	34.223	
C	-0.5188282503	 1.4322305686	-0.1231750627	-0.406838
C	-0.0695077405	-0.0123772941	 0.0036476164	 0.131346
O	 1.0993894993	-0.2807129005	-0.8119759196	-0.285998
C	 1.9076857988	-0.6080116021	 0.3203666498	 0.048309
C	 3.0455546609	 0.3680954135	 0.5684791033	 0.144303
O	 3.0804943066	 1.4875006615	 0.1268548277	-0.244893
C	 0.6873098421	-0.4674305194	 1.2863637644	-0.113076
C	 0.8104073253	 0.4654264029	 2.4818979012	-0.092855
O	 1.8277039558	 0.03199851	 3.3769429438	-0.420877
H	 0.3157881455	 2.1140518728	 0.0546897045	 0.149002
H	-0.8866045546	 1.6096289541	-1.138389942	 0.129681
H	-1.3323973199	 1.654921455	 0.5759499944	 0.111774
H	-0.8885139055	-0.6883690669	-0.2728989722	 0.080612
H	 2.3245973654	-1.6229422848	 0.2539129964	 0.086038
H	 3.8507921185	-0.0284592933	 1.2243771982	 0.085312
H	 0.3456540637	-1.4491910933	 1.6294416388	 0.080411
H	 1.1086760549	 1.4686843437	 2.1691287056	 0.136349
H	-0.1624875281	 0.5548379672	 2.9888234174	 0.096762
H	 1.5680018721	-0.8238090547	 3.7339248649	 0.28464
55.6877	63.335	122.9001	163.9999	234.5161	246.0215	268.559	298.8283	330.3853	399.1071	477.4551	505.5987	699.1979	776.0545	806.7871	839.7932	893.5345	927.6796	975.1188	1004.9054	1054.9377	1067.0671	1084.3543	1100.384	1124.5808	1154.2566	1195.3715	1238.2015	1263.6668	1315.1347	1346.6747	1358.8872	1387.0743	1393.6527	1412.1051	1417.828	1426.179	1481.1454	1506.8511	1511.0029	1828.1884	2896.7188	2990.7502	3005.1916	3016.9651	3039.3624	3055.3328	3107.3591	3108.3891	3136.2589	3810.1407
CC1OC(C=O)C1CO	C[C@H]1O[C@@H](C=O)[C@H]1CO	
InChI=1S/C6H10O3/c1-4-5(2-7)6(3-8)9-4/h3-7H,2H2,1H3	InChI=1S/C6H10O3/c1-4-5(2-7)6(3-8)9-4/h3-7H,2H2,1H3/t4-,5+,6+/m1/s1
