23
gdb 107057	3.67481	1.04201	0.92893	1.4501	85.29	-0.2513	0.0769	0.3282	1364.8806	0.206538	-388.298375	-388.289132	-388.288188	-388.332079	36.139	
C	 0.0645190354	 1.475148378	 0.3430717999	-0.375746
C	-0.0487739721	 0.0310677238	-0.162979279	-0.276949
C	-1.4598589571	-0.5167719357	-0.121200516	 0.380089
C	-1.9938083881	-1.0986551638	 1.1663121455	-0.328484
C	-1.7477140344	-2.0012260978	-0.0203302073	-0.090187
C	-2.9365767556	-2.3304920292	-0.8987425303	 0.129605
O	-3.7741087343	-3.2926862025	-0.2692577684	-0.438186
C	-3.6299670754	-0.9685528741	-1.146488939	-0.277618
C	-2.5060237468	 0.0838164233	-1.0640430245	-0.273739
H	 1.1018767873	 1.8228302701	 0.313330421	 0.108998
H	-0.5321439084	 2.1612961061	-0.2669545163	 0.116532
H	-0.2895673735	 1.556810081	 1.3761291691	 0.11753
H	 0.3310801467	-0.0250334845	-1.1927302379	 0.090193
H	 0.6034932608	-0.6144137175	 0.4383403628	 0.092433
H	-1.2933015069	-1.184867452	 1.9905948802	 0.104611
H	-3.0132693148	-0.8998566406	 1.478647488	 0.112412
H	-0.9424730783	-2.7253975067	 0.0407833504	 0.077966
H	-2.5596465759	-2.7340517505	-1.8529989094	 0.059786
H	-4.4853795352	-3.50991822	-0.8802710876	 0.278321
H	-4.1688548629	-0.9377633966	-2.098199448	 0.08909
H	-4.3694887187	-0.8183405873	-0.3534565143	 0.111251
H	-2.8766278022	 1.0611477657	-0.7353646803	 0.09762
H	-2.0468123797	 0.2332140809	-2.0499507687	 0.094473
78.2804	119.1551	177.6748	206.2496	253.6936	278.3351	306.5982	365.3972	384.1768	420.3349	546.0059	585.4594	605.0254	685.1993	785.9044	818.5873	853.5488	897.3445	919.4651	951.7807	969.7573	976.3081	990.2981	1043.9475	1046.6816	1059.917	1078.0887	1097.3999	1099.6281	1138.3785	1185.9668	1220.5621	1244.74	1257.0151	1263.5205	1302.9768	1323.6432	1348.9629	1359.1331	1368.2354	1408.9277	1416.1782	1432.1114	1480.2159	1488.7079	1494.3449	1500.0249	1508.024	1516.4963	2958.7336	3007.3664	3020.6581	3033.5891	3046.056	3050.468	3062.8298	3094.6024	3102.8438	3103.8403	3129.6107	3165.6897	3210.5838	3814.607
CCC12CC1C(O)CC2	CC[C@]12C[C@H]1[C@@H](O)CC2	
InChI=1S/C8H14O/c1-2-8-4-3-7(9)6(8)5-8/h6-7,9H,2-5H2,1H3	InChI=1S/C8H14O/c1-2-8-4-3-7(9)6(8)5-8/h6-7,9H,2-5H2,1H3/t6-,7-,8-/m0/s1
