21
gdb 102475	2.24693	1.12071	0.88028	1.2909	76.46	-0.2499	0.0118	0.2618	1438.7976	0.179255	-461.388063	-461.376933	-461.375989	-461.425381	37.879	
C	-0.5406209112	 1.1944884854	 0.3943660183	-0.391794
C	-0.7029259778	-0.1124532671	-0.3836890172	-0.192772
C	 0.3895506051	-0.3060426295	-1.4462211613	 0.018772
O	 1.6297834236	-0.377051955	-0.7893713328	-0.226292
C	 2.7491272611	-0.2536249002	-1.641136315	-0.238725
C	 0.0473358748	-1.5399213685	-2.291852967	 0.40193
O	-0.7889799365	-1.5337175996	-3.160755017	-0.369174
O	 0.7449345149	-2.6281806875	-1.9251045508	-0.214125
C	 0.4291289011	-3.8257953241	-2.6484083589	-0.239782
H	 0.4336338497	 1.231952349	 0.8871630683	 0.135369
H	-0.6182347952	 2.0615826267	-0.2709543196	 0.113692
H	-1.3176119496	 1.2893156342	 1.1586377053	 0.113423
H	-0.6629590676	-0.9681145634	 0.3005491061	 0.112761
H	-1.672497249	-0.1441261481	-0.8907199911	 0.120252
H	 0.3660103669	 0.5454515615	-2.1459841969	 0.089673
H	 2.8215785863	-1.0918938079	-2.3471486016	 0.113051
H	 2.7194908678	 0.6875575195	-2.2112178011	 0.10689
H	 3.6366775536	-0.2530512655	-1.004245912	 0.129551
H	-0.6227306856	-4.0897529199	-2.5138471279	 0.141866
H	 0.6224476182	-3.6933463851	-3.7158796435	 0.140653
H	 1.0746962295	-4.6003871848	-2.2348790142	 0.134779
31.6413	99.4431	110.4685	119.1304	132.7898	170.6103	195.0268	230.3444	247.2983	271.9386	325.8164	336.778	484.5973	515.5502	683.7222	761.9063	777.7866	857.0929	920.8941	965.0783	1036.298	1060.3569	1109.3387	1137.7781	1165.3609	1178.9226	1181.5054	1208.5761	1232.748	1278.5187	1289.313	1316.2358	1367.3319	1378.1388	1407.6344	1471.247	1478.4615	1481.9025	1482.475	1489.7133	1496.131	1496.3932	1507.538	1508.8358	1813.5683	2975.7385	2986.132	3038.3739	3042.906	3044.4023	3052.9041	3087.8503	3105.475	3118.8817	3127.6164	3130.2196	3161.0545
CCC(OC)C(=O)OC	CC[C@@H](OC)C(=O)OC	
InChI=1S/C6H12O3/c1-4-5(8-2)6(7)9-3/h5H,4H2,1-3H3	InChI=1S/C6H12O3/c1-4-5(8-2)6(7)9-3/h5H,4H2,1-3H3/t5-/m1/s1
