24
gdb 118426	2.18675	0.93575	0.80526	3.3538	85.94	-0.2383	0.0354	0.2737	1606.7298	0.215587	-405.599373	-405.587598	-405.586654	-405.637419	41.323	
C	 1.7990031915	 0.4938960144	 0.9837643229	-0.379353
C	 1.0195385729	-0.7186972284	 0.4655499712	-0.184847
C	 1.2395379374	-0.9586435685	-1.0318801655	-0.157477
C	 0.5730717287	-2.2318671122	-1.5832974159	-0.105813
C	-0.9654893238	-2.2946220539	-1.3807320114	-0.186676
C	-1.7526051419	-1.1145180107	-1.9610828834	-0.377803
C	 0.8909283868	-2.3738339381	-3.074446518	 0.411853
N	 1.179825722	-3.6433481611	-3.4885534728	-0.525924
O	 0.8606276639	-1.4363977778	-3.8519146311	-0.373681
H	 2.8767446351	 0.3653277566	 0.8341067705	 0.113691
H	 1.5012920887	 1.4077989885	 0.4580203632	 0.117478
H	 1.6270198017	 0.6530127396	 2.0529205912	 0.109186
H	 1.3185934799	-1.6132443487	 1.0293305858	 0.088404
H	-0.0478230454	-0.5738494666	 0.6711298426	 0.101009
H	 0.892285769	-0.0984909011	-1.6127447713	 0.124
H	 2.3183401192	-1.0261295063	-1.2248474301	 0.092501
H	 0.9975560565	-3.0972257116	-1.0549046405	 0.059247
H	-1.3281521204	-3.2283319628	-1.8288850734	 0.092864
H	-1.1667224111	-2.3804905846	-0.3069208881	 0.098989
H	-2.8279891474	-1.2833649256	-1.8470804989	 0.105526
H	-1.5106683198	-0.1782664007	-1.44862857	 0.116887
H	-1.5335117522	-0.9744880241	-3.0222554609	 0.146338
H	 1.2328341293	-4.4207077282	-2.8552240898	 0.256298
H	 1.3623965695	-3.7975208179	-4.4667432664	 0.257303
42.7389	79.2326	84.3545	88.8534	124.9871	137.7319	195.7439	236.9012	266.0962	278.5535	317.0365	339.9078	392.3023	548.8834	589.4368	641.0992	735.7842	754.157	771.0718	826.3813	877.6488	895.2332	922.4313	993.1991	1033.676	1046.0472	1069.2264	1085.7662	1128.1863	1141.3093	1180.3723	1247.7139	1259.4631	1301.0525	1315.4519	1318.6593	1337.6354	1380.9497	1394.7635	1410.1255	1418.5888	1423.8679	1482.6361	1492.8047	1493.7167	1499.0336	1501.0176	1507.9705	1516.154	1613.6244	1782.0417	2997.447	3011.1734	3022.991	3027.6586	3030.0903	3043.3468	3049.4998	3061.147	3086.596	3098.3518	3101.499	3105.5426	3129.9157	3602.4806	3742.5658
CCCC(CC)C(N)=O	CCC[C@@H](CC)C(=O)N	
InChI=1S/C7H15NO/c1-3-5-6(4-2)7(8)9/h6H,3-5H2,1-2H3,(H2,8,9)	InChI=1S/C7H15NO/c1-3-5-6(4-2)7(8)9/h6H,3-5H2,1-2H3,(H2,8,9)/t6-/m1/s1
