13
gdb 132250	3.5221	1.20325	0.89686	0.9337	77.78	-0.2528	-0.0488	0.204	1173.3263	0.089335	-423.599335	-423.592238	-423.591294	-423.631013	27.156	
F	-0.0060774528	 0.0238930157	 0.003471715	-0.066915
C	-0.011912381	 1.3539256055	 0.0104441873	 0.330516
C	-1.219440019	 2.0303324801	 0.0305844923	-0.319481
C	-1.1782950522	 3.4309725894	 0.0372687394	 0.184458
N	-0.0300685199	 4.132629807	 0.0250996488	-0.320021
C	 1.1079781898	 3.4414178178	 0.0058405464	 0.003637
C	 1.1868239072	 2.0504746046	-0.0024578292	-0.254297
C	-2.4022428499	 4.1710758307	 0.0579901391	 0.228951
C	-3.4484438475	 4.7648173471	 0.0755156339	-0.360315
H	-2.1588386358	 1.4933069282	 0.040746755	 0.128979
H	 2.0217633438	 4.0303023445	-0.0036934877	 0.120815
H	 2.1349106062	 1.5280154392	-0.0182242217	 0.123366
H	-4.3631660188	 5.3045684102	 0.0909760915	 0.200306
134.075	146.1314	240.1489	355.4518	390.6495	486.3438	490.7033	520.201	565.776	626.5288	655.4731	659.8626	762.0086	769.2309	857.5837	906.0227	958.9334	988.9355	1006.161	1097.9122	1165.6835	1284.7475	1317.5498	1325.2678	1423.3368	1499.0004	1611.9101	1630.3117	2234.0097	3162.1549	3217.6472	3222.7408	3500.8783
FC1=CC(=NC=C1)C#C	Fc1cc(ncc1)C#C	
InChI=1S/C7H4FN/c1-2-7-5-6(8)3-4-9-7/h1,3-5H	InChI=1S/C7H4FN/c1-2-7-5-6(8)3-4-9-7/h1,3-5H
