12
gdb 21892	5.73297	1.61213	1.25829	3.0255	59.81	-0.2266	-0.0636	0.163	866.5222	0.086164	-414.703352	-414.697149	-414.696204	-414.733638	23.808	
O	-0.0096931921	 1.3405897198	 0.0098375865	-0.41652
C	 0.0260190205	-0.0099261267	 0.0026389268	 0.442514
N	 1.1742373789	-0.6097676203	-0.0073901042	-0.299557
N	 1.1399369793	-1.9623894447	-0.0141707356	-0.278296
C	 0.0295791135	-2.8011799615	-0.0118304004	 0.425093
O	 0.149452884	-4.0146762231	-0.0188084292	-0.394672
C	-1.2263362171	-2.0519180347	-0.0003498744	-0.184204
C	-1.2301819716	-0.7013088176	 0.006655205	-0.148327
H	 0.9063051626	 1.6499533161	 0.005898738	 0.307209
H	 2.0460890407	-2.4096323451	-0.0219591449	 0.274936
H	-2.1369387976	-2.6386709594	 0.0021215664	 0.137708
H	-2.1447496111	-0.1189221829	 0.015192126	 0.134116
123.1135	322.0122	366.1382	386.179	472.743	475.8896	497.0262	550.839	635.1911	695.5699	762.4901	811.8767	830.8573	871.5628	995.0991	1017.7688	1123.7657	1184.6302	1248.3941	1294.6021	1363.7826	1437.0853	1488.926	1603.4516	1673.1177	1785.6516	3196.0577	3219.894	3608.6844	3779.1114
OC1=NNC(=O)C=C1	Oc1n[nH]c(=O)cc1	
InChI=1S/C4H4N2O2/c7-3-1-2-4(8)6-5-3/h1-2H,(H,5,7)(H,6,8)	InChI=1S/C4H4N2O2/c7-3-1-2-4(8)6-5-3/h1-2H,(H,5,7)(H,6,8)
