18
gdb 42526	3.34452	1.27733	1.08169	2.0695	80.05	-0.24	-0.0289	0.2111	1155.2558	0.147721	-401.917715	-401.909526	-401.908582	-401.950691	31.057	
O	 0.0163996096	 0.2116508229	-0.7203542607	-0.33983
C	-0.0054632351	 1.3546549518	-0.3462022706	 0.294923
C	-1.0815997226	 2.3660071235	-0.0579901059	 0.229623
C	-2.4145890448	 2.4431705014	-0.7659760889	-0.308651
C	-2.3677926544	 2.0779754296	 0.6842227843	-0.307892
C	-0.0189370074	 3.4612110218	 0.1860921809	-0.434064
C	 1.0607688488	 2.382179554	-0.0363945225	 0.245911
C	 2.3422613527	 2.0981212904	 0.6634978848	-0.287914
N	 2.3367383474	 2.5339792681	-0.7336761594	-0.35578
H	-2.7696788962	 3.4310346177	-1.0394766743	 0.125317
H	-2.6244841249	 1.6611539006	-1.4881785799	 0.136636
H	-2.5509705125	 1.0457125862	 0.9634218659	 0.134922
H	-2.6879009801	 2.8153539761	 1.4128923969	 0.124316
H	-0.001906104	 4.2512217551	-0.5685642796	 0.121795
H	-0.0262650304	 3.9094536211	 1.1825566961	 0.111957
H	 2.7258249482	 2.8294886201	 1.3697720633	 0.128697
H	 2.5663136941	 1.0597268733	 0.8948195571	 0.132052
H	 2.4701133214	 1.7330970463	-1.3502096875	 0.247984
60.0852	179.6967	201.6847	215.2577	223.274	272.289	363.8647	447.1755	522.6261	723.53	734.7805	748.1713	792.2421	812.7956	835.3903	891.7208	926.844	949.4138	967.668	998.8012	1018.0047	1055.4111	1059.0828	1068.2968	1089.0546	1129.3683	1142.0337	1197.2431	1197.6592	1234.9791	1261.3969	1285.4542	1363.2908	1407.5428	1458.5179	1486.2422	1490.0657	1503.8866	1865.0491	3064.2064	3105.6512	3116.7545	3129.9444	3132.3337	3197.2513	3213.3561	3228.2789	3474.1519
O=C1C2(CC2)CC11CN1	O=C1C2(CC2)C[C@]21CN2	
InChI=1S/C7H9NO/c9-5-6(1-2-6)3-7(5)4-8-7/h8H,1-4H2	InChI=1S/C7H9NO/c9-5-6(1-2-6)3-7(5)4-8-7/h8H,1-4H2/t7-/m1/s1
