18
gdb 120365	3.09794	1.22213	0.91655	4.4933	75.25	-0.2324	-0.011	0.2215	1251.8019	0.148306	-435.270098	-435.261152	-435.260208	-435.304795	32.068	
C	-0.773626839	 0.8068337391	-0.9711355884	-0.247028
O	-0.0165027711	 0.2240079224	 0.076027666	-0.231822
C	-0.7441112911	-0.5606157178	 0.9851904754	-0.080295
C	-0.9113600784	-2.04367055	 0.5533293503	-0.057216
N	-0.8356335642	-2.9315923558	 1.7307468168	-0.244419
C	-1.8742421408	-3.6685959826	 1.6912528	 0.056763
N	-2.7241719581	-3.4587642577	 0.613283355	-0.340712
C	-2.2222115683	-2.4068190913	-0.1545545215	 0.370029
N	-2.7069648021	-1.8577278455	-1.1926949151	-0.536618
H	-0.0812623488	 1.4285170587	-1.5447926208	 0.115501
H	-1.2314145656	 0.0546746251	-1.6228679708	 0.148792
H	-1.5750170836	 1.4471295686	-0.5705006963	 0.096569
H	-0.1639760282	-0.5813930435	 1.9120455905	 0.124147
H	-1.7273609499	-0.1161444427	 1.2008938876	 0.090623
H	-0.0651865898	-2.2650273268	-0.1083026173	 0.132359
H	-2.11682111	-4.4310747488	 2.4248235996	 0.137077
H	-3.6240886838	-3.8900045824	 0.482362389	 0.257961
H	-3.5900451673	-2.2823198689	-1.4792379902	 0.208289
36.4716	84.4541	127.9136	199.4857	216.7188	251.1262	340.998	395.4158	441.8927	459.9267	572.1137	655.7876	687.3493	824.0398	848.0665	891.4046	934.7055	943.5846	1001.1486	1026.5701	1079.2028	1085.0334	1091.8476	1156.003	1188.2506	1219.3225	1245.6201	1260.1448	1296.3181	1345.9703	1353.293	1395.0557	1417.1697	1475.0228	1487.0908	1497.2018	1519.2965	1685.5331	1755.3615	2983.241	2992.9673	3046.138	3069.818	3090.9647	3117.9007	3191.6325	3458.7058	3655.6471
COCC1N=CNC1=N	COC[C@H]1N=CN[C]1[NH]	
InChI=1S/C5H9N3O/c1-9-2-4-5(6)8-3-7-4/h3-4H,2H2,1H3,(H2,6,7,8)	InChI=1S/C5H9N3O/c1-9-2-4-5(6)8-3-7-4/h3-4H,2H2,1H3,(H2,6,7,8)/t4-/m1/s1
