15
gdb 15394	4.1778	1.12275	0.94883	3.1347	63.05	-0.2716	-0.0071	0.2645	1193.1769	0.11694	-399.767747	-399.759335	-399.758391	-399.801595	28.499	
C	-0.1982954571	 1.3557851862	-0.004431699	-0.229733
O	-0.1191736648	-0.0512264433	-0.0679981953	-0.236027
C	 0.8027813208	-0.5022288605	-1.0297992154	-0.091527
C	 0.7968369476	-2.0066503996	-0.9914203544	 0.062714
O	-0.1255729607	-2.6912506863	-1.8364842593	-0.222449
C	 1.2643508365	-2.8286739226	-2.1267964192	-0.106171
C	 1.7416330774	-2.2193637169	-3.3515920145	 0.303234
N	 2.1496041006	-1.7498986431	-4.3257661321	-0.324845
H	 0.7718234551	 1.8054829616	 0.2588936217	 0.108744
H	-0.5310862861	 1.7876345917	-0.9603740263	 0.115105
H	-0.9269433057	 1.60355992	 0.7702474378	 0.134989
H	 0.5389530309	-0.1552345402	-2.0404548313	 0.118884
H	 1.8199168718	-0.13524798	-0.8044327943	 0.102384
H	 0.8974607722	-2.4381482194	 0.0044159893	 0.120862
H	 1.6893175415	-3.8105353175	-1.9268260878	 0.143838
74.9977	84.3476	95.3922	198.0759	229.4394	234.4404	351.6903	384.8384	479.3109	578.1845	616.8208	811.9488	835.3126	948.4377	992.9307	1017.8517	1059.7642	1126.6918	1148.8026	1168.8135	1186.9129	1229.7921	1265.1719	1284.513	1354.5491	1404.2578	1469.7411	1483.1157	1486.5135	1496.1812	1518.6234	2360.6205	2952.7735	2977.6648	3012.2939	3025.8974	3122.6524	3124.3597	3136.8497
COCC1OC1C#N	COC[C@H]1O[C@H]1C#N	
InChI=1S/C5H7NO2/c1-7-3-5-4(2-6)8-5/h4-5H,3H2,1H3	InChI=1S/C5H7NO2/c1-7-3-5-4(2-6)8-5/h4-5H,3H2,1H3/t4-,5+/m0/s1
