19
gdb 16774	3.97797	1.48551	1.36603	2.2412	69.97	-0.2248	0.0682	0.293	974.3062	0.167534	-365.035723	-365.028178	-365.027234	-365.067579	29.059	
O	 0.2552080769	 1.1270134455	 0.6507908341	-0.414967
C	 0.010248272	-0.2450108888	 0.3859607922	-0.07584
C	-1.4322703466	-0.5164613551	-0.0637938057	-0.026987
C	-1.7377362193	-2.0240997064	-0.2796160139	-0.259069
C	-2.6706346445	-2.4123144833	 0.858630714	-0.004248
C	-2.2450912375	-2.1239100919	 2.2514243267	-0.25037
N	-3.1694894914	-1.2148122835	 1.5596998664	-0.089411
C	-2.5155312448	-0.0421529411	 0.9492313009	-0.173866
H	 0.1021111489	 1.6165194265	-0.1641664288	 0.281209
H	 0.7079815158	-0.6355931145	-0.3726021812	 0.088161
H	 0.2383288556	-0.7642608033	 1.3222936944	 0.115005
H	-1.5650359605	 0.0218769671	-1.0108777737	 0.065568
H	-2.2434683091	-2.1853197294	-1.2365301551	 0.106178
H	-0.8250528924	-2.6310198709	-0.2981197808	 0.104839
H	-3.3954715016	-3.200631886	 0.6733579738	 0.087349
H	-2.6865051947	-2.6726687093	 3.0790606034	 0.114094
H	-1.222651074	-1.8011807772	 2.4279047334	 0.109946
H	-2.0907839886	 0.6096592625	 1.7185911413	 0.121352
H	-3.2957116942	 0.5272666693	 0.4337516188	 0.101056
88.6582	143.8169	206.9122	296.8049	314.2877	362.4487	398.5005	467.6067	662.1487	722.0063	745.8038	817.8276	841.4069	882.5455	906.0113	933.2731	1006.8265	1014.1597	1018.8524	1065.8189	1084.7494	1106.4572	1117.4172	1128.7819	1158.9991	1188.4119	1221.4673	1243.9093	1266.3738	1294.4384	1325.962	1338.3803	1369.8968	1390.6894	1396.021	1417.6705	1495.5947	1500.5607	1504.5376	1519.4017	2972.2384	3011.9596	3040.9613	3048.1621	3076.7563	3080.3523	3092.7362	3109.3323	3140.6545	3190.6989	3809.4868
OCC1CC2CN2C1	OC[C@H]1C[C@H]2CN2C1	
InChI=1S/C6H11NO/c8-4-5-1-6-3-7(6)2-5/h5-6,8H,1-4H2	InChI=1S/C6H11NO/c8-4-5-1-6-3-7(6)2-5/h5-6,8H,1-4H2/t5-,6-,7?/m0/s1
