13
gdb 48378	2.91308	1.27088	1.02833	3.1002	74.22	-0.2615	-0.0566	0.2049	1132.0061	0.083882	-419.327555	-419.318607	-419.317663	-419.361375	31.901	
O	-0.3384387589	 0.401423717	-0.6946851029	-0.23136
C	 0.0308970029	 1.1374559786	 0.1761727233	 0.085587
C	 1.2817113634	 1.9916643581	 0.0758864333	 0.121396
O	 2.196438948	 1.6333086451	-0.9582622043	-0.239773
C	 1.4765170919	 2.8414534633	-1.1589126552	-0.228255
C	 0.5178008393	 2.9084664047	-2.2227757695	 0.358318
C	-0.2674762109	 3.0252540235	-3.1242813666	-0.394416
C	 1.8339545747	 2.4302447544	 1.3305040543	 0.244496
C	 2.2502067388	 2.7751249149	 2.4039642887	-0.373649
H	-0.5169771598	 1.2654868535	 1.1326644929	 0.100517
H	 2.0665563536	 3.7440237687	-1.0010547395	 0.134892
H	-0.9671189912	 3.105717487	-3.9199404835	 0.212211
H	 2.6328224681	 3.0822352311	 3.3466236991	 0.210036
95.0877	106.7802	120.3251	157.154	218.6023	269.2456	304.1483	439.8072	509.0688	518.2135	560.1448	590.3518	633.2991	654.6739	678.0875	684.1929	759.5493	847.5503	901.1305	1016.8708	1040.7619	1066.8004	1184.1756	1297.785	1386.0317	1423.0189	1839.3374	2236.2076	2245.2958	2921.5239	3117.693	3496.8609	3500.1531
O=CC1(OC1C#C)C#C	O=C[C@]1(O[C@H]1C#C)C#C	
InChI=1S/C7H4O2/c1-3-6-7(4-2,5-8)9-6/h1-2,5-6H	InChI=1S/C7H4O2/c1-3-6-7(4-2,5-8)9-6/h1-2,5-6H/t6-,7+/m0/s1
