16
gdb 27698	2.98221	1.28161	0.90223	2.0793	86.06	-0.1795	0.0047	0.1843	1251.7632	0.124039	-396.95348	-396.944217	-396.943273	-396.988587	33.781	
C	-0.0182286013	 1.4611733695	 0.0345329638	-0.505957
C	 0.0154841735	-0.0288034868	-0.0226832066	 0.342038
N	 0.023569781	-0.7500444523	-1.1336080748	-0.335212
C	 0.0589047581	-2.0565238845	-0.7358177867	 0.194211
N	 0.1374849763	-3.0809513173	-1.6613670071	-0.6046
C	 0.0668166003	-2.1528726253	 0.6499870706	 0.122879
N	 0.0418874318	-0.8183997351	 1.0759688752	-0.36696
C	 0.0897046276	-3.2570769551	 1.5079100906	 0.213606
C	 0.0976470455	-4.2230388328	 2.2338296009	-0.441668
H	 0.871971173	 1.8688824377	 0.5271692961	 0.136568
H	-0.0564075782	 1.8489860874	-0.9838710975	 0.158794
H	-0.8953817245	 1.8279398952	 0.5797608796	 0.134211
H	-0.2413557509	-2.8213486592	-2.5611624769	 0.252807
H	-0.2173984425	-3.9677553899	-1.333066478	 0.252289
H	 0.0393966167	-0.5216367988	 2.0370758417	 0.264869
H	 0.1262942036	-5.0720266128	 2.8699022289	 0.182126
15.6767	122.9563	127.839	221.4131	268.2568	308.0996	323.9533	385.1147	397.1869	473.9933	496.3123	539.0746	581.9998	621.9702	660.3908	679.9462	691.7281	759.3778	820.7265	997.2575	1038.7109	1059.4974	1096.3407	1206.0521	1229.5494	1331.6226	1408.1266	1446.0454	1458.2228	1482.2638	1507.6901	1562.7252	1608.0226	1649.2567	2207.8036	3031.6146	3081.3664	3150.9772	3503.86	3559.5638	3664.7383	3669.2851
CC1=NC(N)=C(N1)C#C	Cc1nc(N)c([nH]1)C#C	
InChI=1S/C6H7N3/c1-3-5-6(7)9-4(2)8-5/h1H,7H2,2H3,(H,8,9)	InChI=1S/C6H7N3/c1-3-5-6(7)9-4(2)8-5/h1H,7H2,2H3,(H,8,9)
