15
gdb 27651	3.17183	1.22069	0.88375	1.7229	79.01	-0.1699	0.0265	0.1964	1231.7971	0.112136	-416.808079	-416.799094	-416.798149	-416.841225	33.777	
N	 0.0756312732	 1.3756280675	 0.1928808338	-0.620712
C	-0.015394964	-0.0119125904	 0.031275002	 0.185894
C	-1.1075040595	-0.8592810822	-0.0155438035	 0.15256
C	-0.596353485	-2.213588642	-0.0884909378	-0.448654
C	 0.7636832626	-2.1142864277	-0.0970648247	 0.397336
O	 1.7761034308	-3.0160846927	-0.1622102856	-0.439579
N	 1.1197193181	-0.7867869808	-0.0261489142	-0.328877
C	-2.452133081	-0.4359299698	 0.0012325065	 0.190025
C	-3.5971982045	-0.0537760901	 0.0151882021	-0.437178
H	 0.4577929409	 1.8423387832	-0.6253809904	 0.244796
H	-0.8484101479	 1.7559285332	 0.366498328	 0.256539
H	-1.1849685344	-3.1146958543	-0.1477870281	 0.096061
H	 1.3920874707	-3.8959266612	-0.2232068776	 0.308195
H	 2.0588663095	-0.4527351355	 0.1069192172	 0.268249
H	-4.6070998895	 0.271457423	 0.0304742822	 0.175343
127.1392	136.4265	201.1729	213.7477	224.2792	293.1699	327.1888	406.7799	428.1615	447.7269	494.2735	519.4441	591.1548	653.539	659.4594	662.366	682.1724	735.2432	792.6082	847.9858	1034.0136	1105.6079	1158.4315	1181.519	1195.74	1287.4085	1339.2806	1494.9253	1509.7958	1595.6512	1643.4965	1660.244	2215.5026	3259.5898	3482.0818	3505.105	3582.8606	3678.8923	3847.7317
NC1=C(C=C(O)N1)C#C	Nc1c(cc(O)[nH]1)C#C	
InChI=1S/C6H6N2O/c1-2-4-3-5(9)8-6(4)7/h1,3,8-9H,7H2	InChI=1S/C6H6N2O/c1-2-4-3-5(9)8-6(4)7/h1,3,8-9H,7H2
