19
gdb 98247	2.41914	1.17065	0.97799	1.6206	73.32	-0.2504	-0.0284	0.222	1308.9757	0.155477	-460.221245	-460.210538	-460.209594	-460.258355	36.468	
C	 0.3144916277	 1.3718743668	 0.4093277331	-0.240939
O	 0.7296786126	 0.0082911668	 0.2435020174	-0.213984
C	 0.1734239168	-0.8704884062	 1.0912843837	 0.429803
O	-0.6266227441	-0.564182385	 1.9426476617	-0.365662
C	 0.7006672371	-2.2891577634	 0.8778632777	-0.195782
C	 1.3141199777	-2.5496077111	-0.4970087676	-0.393839
C	 1.7147059698	-2.5758647491	 2.0186017229	 0.371902
C	 1.120460894	-2.8532388348	 3.3813061274	-0.485225
O	 2.9009470708	-2.5844115141	 1.8005150077	-0.286978
H	 0.567218079	 1.7294818962	 1.4103491759	 0.144654
H	 0.85471048	 1.9382592498	-0.3487530527	 0.138312
H	-0.764419778	 1.4646177205	 0.2640485154	 0.143779
H	-0.1686160823	-2.9318292942	 1.0557918562	 0.11547
H	 1.5795791385	-3.6060605094	-0.5908047403	 0.11957
H	 0.6107522752	-2.2956813605	-1.2935581107	 0.115918
H	 2.2224900974	-1.9620280645	-0.6290865551	 0.150557
H	 0.6526077255	-3.8456371289	 3.3681879647	 0.14254
H	 1.9021210574	-2.8381947781	 4.1416977081	 0.13994
H	 0.330751005	-2.1323123407	 3.6095452345	 0.169964
28.2783	54.6661	115.2	136.6361	163.8791	195.3376	202.2042	220.8669	273.4728	321.6626	364.1945	481.1815	519.2024	597.6577	634.8981	730.6184	809.0363	857.5915	950.0765	979.331	1015.599	1075.677	1096.4045	1129.4607	1178.4127	1180.3634	1210.9425	1244.9029	1292.0054	1343.5291	1384.9878	1414.1634	1466.6024	1471.9024	1475.7952	1481.6988	1488.688	1492.5591	1496.0307	1794.7354	1823.3521	3036.5255	3055.2276	3055.8876	3059.6795	3107.9208	3124.6336	3131.872	3157.8214	3158.5607	3164.5853
COC(=O)C(C)C(C)=O	COC(=O)[C@@H](C)C(=O)C	
InChI=1S/C6H10O3/c1-4(5(2)7)6(8)9-3/h4H,1-3H3	InChI=1S/C6H10O3/c1-4(5(2)7)6(8)9-3/h4H,1-3H3/t4-/m0/s1
