15
gdb 32502	2.14957	1.58782	0.92036	3.7699	75.03	-0.2132	-0.0261	0.1872	1199.4898	0.113757	-416.841473	-416.833224	-416.83228	-416.874627	29.972	
C	 0.0266387661	 1.3755453558	-0.0552786043	-0.333154
N	-0.0036735167	-0.0554209494	 0.1782058024	-0.401702
C	-1.2070615499	-0.7166125015	 0.070334924	 0.187782
C	-2.4765917018	-0.2145316955	 0.0383330918	-0.092537
O	-3.3919380887	-1.2435654088	-0.0085963412	-0.137602
C	-2.712119105	-2.3927669768	-0.0218530303	-0.083797
C	-1.3646417525	-2.1571602503	 0.0245594119	 0.065276
C	-0.3160582056	-3.1038486511	 0.0178258108	 0.199069
N	 0.5784340278	-3.8407398074	 0.0056440459	-0.356796
H	 1.0548391584	 1.7317584748	 0.0312610684	 0.13542
H	-0.3663322385	 1.6619665517	-1.0435145629	 0.118808
H	-0.5700066074	 1.8877558178	 0.7081063953	 0.136681
H	 0.7832993141	-0.5680743368	-0.1910281459	 0.254517
H	-2.8878857858	 0.7780395812	 0.0558065105	 0.141738
H	-3.2855028744	-3.3037501539	-0.0668734764	 0.166297
98.0624	117.5027	166.8049	192.6691	225.4173	332.6154	403.1461	492.8381	536.5062	548.2177	604.5951	624.8459	641.3722	722.0346	742.8194	798.5889	895.3396	1068.875	1073.9257	1145.2153	1165.1543	1208.4393	1231.4136	1257.4795	1347.1065	1363.2425	1461.8646	1482.7383	1506.3233	1528.1817	1580.7438	1660.5022	2341.5937	2981.8542	3061.5801	3129.194	3282.5436	3307.17	3605.0049
CNC1=COC=C1C#N	CNc1cocc1C#N	
InChI=1S/C6H6N2O/c1-8-6-4-9-3-5(6)2-7/h3-4,8H,1H3	InChI=1S/C6H6N2O/c1-8-6-4-9-3-5(6)2-7/h3-4,8H,1H3
