17
gdb 37869	3.29112	2.21892	1.78472	1.3023	75.56	-0.2344	0.0022	0.2366	805.9731	0.139346	-384.62277	-384.617227	-384.616283	-384.652196	24.954	
C	-0.0651385712	 1.5596794024	 0.0398663126	-0.345957
C	 1.4832455132	 1.269246497	 0.017612597	-0.1349
C	 1.2452918469	 0.0318818245	 0.9148708496	 0.117184
O	 2.0940111073	-1.0330873333	 0.5910485812	-0.275785
C	 1.7918207292	-1.1772122644	-0.840445795	-0.020481
C	 0.5182319044	-2.0296219792	-0.9023732415	-0.072648
C	-0.529809715	-1.3019601111	-0.4595245569	-0.245678
C	 0.0382382441	 0.0309192139	-0.1379363996	 0.276351
C	 1.2362346188	 0.2269618539	-1.1116301875	-0.020462
H	-0.4777426927	 1.9367081721	 0.9802917721	 0.098109
H	-0.458666347	 2.1217159357	-0.8108395675	 0.10395
H	 2.2901194078	 1.9991656673	 0.0914152857	 0.074365
H	 1.0634109876	 0.1061256301	 1.9859419267	 0.084641
H	 2.6759018001	-1.5509626188	-1.3541397178	 0.073756
H	 0.5184461605	-3.0945415877	-1.1002686123	 0.102071
H	-1.5248920339	-1.6710495519	-0.2441610487	 0.107542
H	 1.0138059099	 0.5290551894	-2.1346800382	 0.077942
366.0991	391.6563	410.6194	467.5037	568.0758	652.4235	696.8018	716.9959	753.1495	784.3648	814.809	854.0995	880.0388	893.2312	915.5662	927.9148	937.4686	971.2314	993.3514	1009.814	1049.116	1074.0192	1078.7052	1117.2927	1122.6912	1137.0531	1184.8737	1201.4774	1205.1731	1241.2843	1263.4456	1283.0009	1294.1738	1358.6723	1369.4088	1516.0372	1578.5227	3050.9415	3105.5914	3113.0222	3123.8895	3135.5054	3141.0739	3196.3502	3219.4443
C1C2C3OC4C=CC13C24	C1[C@H]2[C@@H]3O[C@H]4C=C[C@@]13[C@@H]24	
InChI=1S/C8H8O/c1-2-8-3-4-6(8)5(1)9-7(4)8/h1-2,4-7H,3H2	InChI=1S/C8H8O/c1-2-8-3-4-6(8)5(1)9-7(4)8/h1-2,4-7H,3H2/t4-,5+,6+,7+,8+/m1/s1
