25
gdb 103074	1.98946	1.30495	1.10935	1.3946	89.41	-0.2369	0.0712	0.3081	1326.778	0.225212	-389.489452	-389.477846	-389.476902	-389.525211	43.326	
C	-0.6218831618	 0.6026121423	-2.7511374304	-0.382562
C	-0.3397437245	-0.3185899787	-1.5554433309	-0.244107
C	-1.5897954441	-0.7599309422	-0.799369922	 0.282577
C	-2.3711352224	 0.3953181157	-0.1905397334	-0.454441
C	-2.4081090632	-1.9549961919	-1.2992929127	-0.118674
C	-2.1237384912	-2.7193181973	-2.5765425936	-0.420771
C	-1.5767833691	-2.0722833257	-0.0354551422	 0.324206
C	-0.3582335229	-2.9676385566	 0.0528736818	-0.446647
O	-2.2807822628	-2.0384431929	 1.1888711394	-0.462226
H	 0.3077422729	 0.8554801626	-3.2708862944	 0.1084
H	-1.2890475736	 0.1210492511	-3.4735873644	 0.117096
H	-1.0903744539	 1.540911547	-2.4408433272	 0.120025
H	 0.2242890472	-1.1843032598	-1.9121510984	 0.089665
H	 0.3258449934	 0.2001774093	-0.8519414839	 0.095254
H	-2.8257687962	 1.017804774	-0.9683120678	 0.108419
H	-3.1614678077	 0.0320812535	 0.4661476606	 0.13115
H	-1.7131649723	 1.0380688533	 0.4069944991	 0.107504
H	-3.4714496502	-1.8565857285	-1.0875664385	 0.077772
H	-1.0573428233	-2.7800707345	-2.8069991815	 0.115429
H	-2.5015141851	-3.7465752687	-2.5121605397	 0.111797
H	-2.6150577302	-2.2452449831	-3.433634508	 0.118689
H	 0.2035264943	-3.029274694	-0.8803388394	 0.117038
H	 0.3160955828	-2.6124501777	 0.838677771	 0.125565
H	-0.6636632717	-3.9888059018	 0.3148697943	 0.102564
H	-2.6912907344	-2.9015234252	 1.3109870521	 0.276278
74.7059	135.8487	158.2538	172.8106	180.3422	207.1988	215.3028	232.6118	270.0156	281.8088	308.0881	329.8623	384.1604	421.4969	434.7349	507.1443	584.9122	673.6197	703.3483	786.2766	792.658	913.4578	959.4127	975.6967	1012.1437	1026.5307	1035.4468	1061.4038	1083.8199	1105.1082	1122.879	1148.2002	1195.8787	1202.6961	1280.2817	1297.5637	1313.5809	1335.1231	1370.345	1403.3832	1409.2187	1411.3293	1420.6214	1449.4927	1478.7312	1488.6269	1489.3453	1494.85	1498.3993	1500.255	1504.2903	1508.7312	1517.2944	3016.0972	3023.8247	3027.4033	3029.2291	3037.9855	3078.9688	3079.6536	3084.4291	3086.5535	3103.2138	3107.056	3113.6566	3124.2423	3134.4092	3146.7914	3793.7164
CCC1(C)C(C)C1(C)O	CC[C@@]1(C)[C@@H](C)[C@]1(C)O	
InChI=1S/C8H16O/c1-5-7(3)6(2)8(7,4)9/h6,9H,5H2,1-4H3	InChI=1S/C8H16O/c1-5-7(3)6(2)8(7,4)9/h6,9H,5H2,1-4H3/t6-,7+,8+/m1/s1
