19
gdb 41534	2.75103	1.64972	1.12371	3.8197	76.67	-0.2274	0.0228	0.2502	1089.1551	0.162812	-419.191102	-419.183453	-419.182509	-419.223333	29.752	
C	 0.0371801406	 1.5458107376	-0.1089283965	-0.102627
O	 1.2706689851	 1.5159474874	 0.6719324164	-0.258763
C	 1.2120801083	 0.1466228966	 0.7937884709	 0.443447
N	 1.9340975568	-0.5421077109	 1.5448470732	-0.307034
C	 1.7260056072	-1.9753338674	 1.6723351943	-0.147639
C	 0.5231623627	-2.6116598854	 0.9465203295	-0.215157
C	-0.8053259682	-1.8562831573	 1.1751960173	-0.164887
N	-1.0955749445	-0.7752312603	 0.2183678507	-0.303516
C	 0.053611387	-0.0002575779	-0.1974034835	-0.135086
H	-0.7929269383	 1.9434202394	 0.4803966723	 0.122964
H	 0.1697353956	 2.1083841964	-1.0358271964	 0.112232
H	 2.6516595007	-2.4833974045	 1.3717667654	 0.109824
H	 1.6220809823	-2.175566105	 2.7479665314	 0.112851
H	 0.7147053706	-2.6934147351	-0.130801363	 0.095361
H	 0.4279894575	-3.6398740203	 1.3163347796	 0.097541
H	-1.6489201636	-2.5513426205	 1.12529595	 0.102102
H	-0.8104770295	-1.4414267555	 2.1915964357	 0.117113
H	-1.555568055	-1.1648945137	-0.5944068524	 0.221422
H	 0.4518987548	-0.3099502836	-1.1739107748	 0.09985
93.9274	126.3757	256.5187	273.9849	318.939	369.8107	396.2666	496.8426	574.7836	641.4676	702.9386	746.833	791.6192	824.698	877.9526	935.7152	952.7964	981.9733	1018.7936	1054.1407	1073.39	1110.7149	1113.3803	1156.214	1169.5327	1202.1372	1218.2862	1241.0454	1273.3336	1310.294	1336.6146	1359.7575	1378.7632	1392.6074	1405.2755	1478.5536	1489.1898	1498.0367	1503.8403	1513.6808	1841.3388	2994.6519	3007.8588	3019.4769	3023.4314	3037.3133	3061.1746	3064.4003	3079.8555	3126.631	3549.1183
C1OC2=NCCCNC12	C1OC2=NCCCN[C@@H]12	
InChI=1S/C6H10N2O/c1-2-7-5-4-9-6(5)8-3-1/h5,7H,1-4H2	InChI=1S/C6H10N2O/c1-2-7-5-4-9-6(5)8-3-1/h5,7H,1-4H2/t5-/m0/s1
