19
gdb 69730	3.71051	1.57984	1.3995	1.8494	77.96	-0.2455	0.0806	0.3261	983.6803	0.160679	-385.827088	-385.820239	-385.819295	-385.857901	28.753	
C	-0.0847647546	 1.5155196458	 0.1022634986	-0.495718
C	 0.0853654478	 0.0300201744	-0.0111516417	 0.410287
O	-0.5655371582	-0.7910925871	 0.9861833816	-0.300575
C	 0.8710170244	-0.8492014064	 0.8553348613	-0.058791
C	 1.3550095082	-1.9179307095	-0.1159615987	-0.048725
C	 0.1780751402	-2.224399499	-1.0999671094	-0.032807
C	 1.2014919972	-2.4404324338	-2.2411138488	-0.256626
C	 1.7118268495	-1.201188849	-1.4752135928	-0.059683
C	 0.2267267495	-0.684616121	-1.3577963111	-0.091142
H	 0.6842387582	 2.039154125	-0.4762444961	 0.12269
H	-1.061500422	 1.8268600624	-0.2851587185	 0.127355
H	-0.0169878353	 1.834085115	 1.1454444826	 0.130316
H	 1.4430501511	-0.5216884676	 1.7181014984	 0.092811
H	 1.9828205353	-2.7357124415	 0.2399496287	 0.065797
H	-0.7116614853	-2.808698045	-0.8719845386	 0.082892
H	 1.817644254	-3.3423526328	-2.1841224622	 0.090976
H	 0.8413192786	-2.2761347287	-3.2606651181	 0.090512
H	 2.5998231958	-0.6007800557	-1.6854025879	 0.06912
H	-0.2667368944	-0.2716858656	-2.2393676974	 0.06131
185.293	201.3446	252.7214	336.2121	417.552	468.6768	545.453	570.6605	722.8469	746.935	806.2472	806.8112	861.9882	877.8241	886.0832	914.2205	925.7904	950.4924	970.3821	1003.3584	1012.8688	1039.74	1064.7541	1077.7354	1101.2509	1107.9281	1126.6581	1160.6719	1190.4284	1207.1654	1224.234	1235.7487	1255.9757	1289.1573	1302.9217	1325.323	1409.2373	1457.1244	1487.1101	1496.4422	1519.8057	3031.7606	3046.5291	3084.6221	3091.1779	3101.938	3106.0696	3110.0001	3121.0565	3131.2559	3162.5265
CC12OC1C1C3CC1C23	C[C@]12O[C@H]1[C@H]1[C@@H]3C[C@H]1[C@H]23	
InChI=1S/C8H10O/c1-8-6-3-2-4(6)5(3)7(8)9-8/h3-7H,2H2,1H3	InChI=1S/C8H10O/c1-8-6-3-2-4(6)5(3)7(8)9-8/h3-7H,2H2,1H3/t3-,4+,5-,6+,7-,8+/m0/s1
