16
gdb 95278	2.73563	1.88279	1.33629	1.1692	63.11	-0.2595	-0.001	0.2585	930.7899	0.127262	-475.043308	-475.03646	-475.035516	-475.074709	26.766	
O	 0.1328938111	 1.4007814008	-0.0131852098	-0.436618
C	 0.0642444653	 0.0029255043	 0.0574654687	 0.136521
C	 0.5638756878	-0.6004939518	 1.3853144129	-0.13712
O	-0.0587270244	-1.8900051827	 1.4590361352	-0.240645
C	-1.3239904063	-1.8137301928	 0.8938042886	 0.207556
O	-2.3454933114	-1.5322210385	 1.9028294215	-0.227414
C	-2.7540670698	-0.2719194363	 1.665209897	 0.11584
N	-2.3134454736	 0.359761446	 0.6531240962	-0.287875
C	-1.379157964	-0.5610789284	-0.0139346004	-0.112673
H	-0.7069710209	 1.7297056579	 0.3398554113	 0.295178
H	 0.6583458353	-0.4015927426	-0.7692991626	 0.095962
H	 1.64339172	-0.7542765113	 1.4214083551	 0.122541
H	 0.266262804	 0.0363027072	 2.2293625455	 0.108619
H	-1.5752903271	-2.7840486377	 0.4664775995	 0.109616
H	-3.4651018354	 0.1203827936	 2.3848120102	 0.150835
H	-1.7099163907	-0.7535161478	-1.0361954089	 0.099677
100.3191	186.482	246.2514	354.6247	446.3154	460.5962	511.4032	541.6132	614.284	678.3007	835.7156	840.4804	884.8706	900.6103	943.8114	969.5821	974.8484	987.218	1063.8461	1071.2686	1111.5837	1139.1194	1176.339	1218.6356	1254.454	1277.2531	1299.4468	1315.4979	1328.5837	1359.5391	1381.0533	1391.0245	1445.8291	1518.0482	1685.8665	3020.2133	3051.9701	3093.9238	3122.8462	3127.8616	3209.7332	3720.3194
OC1COC2OC=NC12	O[C@H]1CO[C@H]2OC=N[C@@H]12	
InChI=1S/C5H7NO3/c7-3-1-8-5-4(3)6-2-9-5/h2-5,7H,1H2	InChI=1S/C5H7NO3/c7-3-1-8-5-4(3)6-2-9-5/h2-5,7H,1H2/t3-,4-,5-/m0/s1
