21
gdb 104041	2.82651	1.27722	1.16576	2.5074	76.79	-0.2565	0.0667	0.3232	1160.5928	0.183326	-424.221084	-424.21246	-424.211516	-424.253861	34.556	
O	 0.2241556087	 1.0566656171	-0.6714794625	-0.428376
C	-0.0617601277	-0.3024765711	-0.4203562739	-0.07495
C	-1.4961417132	-0.4937296234	 0.094890067	 0.36655
O	-1.4929048982	 0.3042486178	 1.2882302096	-0.490847
C	-2.571669269	-0.0120733817	-0.9241544482	-0.292308
C	-3.2146546952	-1.2551374337	-1.5152719799	-0.027746
C	-2.3260719926	-2.2981044818	-2.1461764847	-0.289584
C	-2.7662002687	-2.4599702407	-0.7119912571	-0.030269
C	-1.830096099	-1.9865218517	 0.3874266045	-0.289214
H	-0.0660252704	 1.5249186118	 0.1213634331	 0.28783
H	 0.0920169405	-0.8416338314	-1.3587096778	 0.107607
H	 0.6263783045	-0.7269900683	 0.3283443585	 0.091725
H	-2.4018520148	 0.4096108706	 1.5855225736	 0.278111
H	-3.3344708328	 0.5691730871	-0.3897092131	 0.082941
H	-2.1276654153	 0.6615635672	-1.6628764494	 0.123618
H	-4.23303858	-1.1739331046	-1.8788984584	 0.081652
H	-2.7863788301	-2.955316551	-2.8762398712	 0.110148
H	-1.291218649	-2.0608054153	-2.3688885604	 0.11404
H	-3.4529449036	-3.266956579	-0.4816640363	 0.081731
H	-0.9197256318	-2.59179075	 0.4740972863	 0.10167
H	-2.3331092123	-2.0414312578	 1.3595589903	 0.09567
104.9468	150.9524	190.7149	270.3883	289.4195	351.4013	359.2108	360.2982	433.3197	475.0931	512.6043	620.3761	671.7574	773.7792	787.4563	820.0608	864.7458	894.0788	905.3332	926.1141	953.2952	1025.5513	1046.391	1066.3162	1068.3609	1092.5968	1095.2286	1108.3149	1132.6834	1150.2592	1186.8437	1195.4682	1215.3287	1259.652	1303.2242	1326.2621	1344.5913	1373.8623	1391.2313	1399.0645	1442.4907	1483.774	1489.1645	1494.896	1504.0926	2977.4039	3019.6398	3030.8769	3066.0008	3086.859	3096.9529	3132.6746	3162.2236	3171.0186	3213.1825	3781.8462	3821.2227
OCC1(O)CC2CC2C1	OC[C@@]1(O)C[C@H]2C[C@H]2C1	
InChI=1S/C7H12O2/c8-4-7(9)2-5-1-6(5)3-7/h5-6,8-9H,1-4H2	InChI=1S/C7H12O2/c8-4-7(9)2-5-1-6(5)3-7/h5-6,8-9H,1-4H2/t5-,6+,7-
