21
gdb 97813	4.78751	0.69166	0.66433	0.1228	92.74	-0.2369	0.0568	0.2937	1801.6156	0.182374	-349.904353	-349.894959	-349.894015	-349.941052	34.468	
C	-0.4920476096	 1.4811179931	-0.0910336082	-0.362282
C	 0.3033444236	 0.1894098014	 0.1727700934	-0.313419
C	 0.9696720545	-0.3275584327	-1.0185458529	 0.058133
C	 1.5049146395	-0.7312662707	-2.021088918	 0.08082
C	 2.1701801217	-1.240226153	-3.2082229485	-0.17717
C	 3.7226399239	-1.5287328231	-3.1447039689	-0.243506
C	 3.4523335121	-2.9785122789	-3.5566566466	-0.038831
C	 2.5328720655	-3.6336868508	-2.5639602564	-0.273323
C	 1.9470537579	-2.7186135728	-3.5988977436	-0.043696
H	 0.165647789	 2.2736509893	-0.4583734177	 0.126359
H	-1.2675803044	 1.3123283115	-0.8431207649	 0.126658
H	-0.9725257304	 1.8296135387	 0.8282876137	 0.111582
H	 1.0486997706	 0.374031384	 0.9575335759	 0.125261
H	-0.3705172646	-0.5779348625	 0.5758338196	 0.126226
H	 1.9594748496	-0.5870614755	-4.0606212177	 0.097687
H	 4.2693098864	-0.9497736035	-3.8917359759	 0.104183
H	 4.1939174324	-1.3859482333	-2.1681950579	 0.102103
H	 4.059234805	-3.555874813	-4.2431482915	 0.084175
H	 2.3469226916	-4.6903203585	-2.7275924632	 0.108718
H	 2.5471256266	-3.337337179	-1.5177995365	 0.114721
H	 1.2056841091	-3.0546038106	-4.3135746541	 0.0856
8.2791	72.6443	101.589	139.5075	215.3247	266.4742	316.881	398.2176	467.2346	499.822	537.418	661.7432	744.5373	782.9685	785.0242	800.7919	881.5782	927.6	952.1148	962.4275	993.8072	1007.9618	1030.1604	1060.6578	1078.1305	1079.6665	1084.5245	1103.8814	1137.1106	1182.5373	1203.9365	1219.7674	1258.1419	1285.9575	1294.2324	1337.6273	1353.8552	1364.2694	1407.6634	1475.8185	1481.13	1494.3075	1497.166	1505.7264	2355.8677	3015.0575	3041.0567	3042.3009	3051.0316	3057.8251	3110.9502	3115.0206	3115.1515	3121.9122	3177.3037	3185.7139	3203.4346
CCC#CC1CC2CC12	CCC#C[C@H]1C[C@H]2C[C@@H]12	
InChI=1S/C9H12/c1-2-3-4-7-5-8-6-9(7)8/h7-9H,2,5-6H2,1H3	InChI=1S/C9H12/c1-2-3-4-7-5-8-6-9(7)8/h7-9H,2,5-6H2,1H3/t7-,8-,9-/m0/s1
