14
gdb 127498	4.0025	1.1568	0.90254	2.6625	74.3	-0.2311	-0.0132	0.2179	1213.827	0.100857	-432.864469	-432.856068	-432.855124	-432.897885	30.137	
C	-0.0057172783	 1.4289820488	-0.0791111679	-0.331284
N	 0.0210201639	-0.0154208335	-0.0048358167	-0.017191
N	 0.0308511105	-0.7868342192	-1.1289084446	-0.313166
C	 0.0544314417	-2.0184979203	-0.631958024	 0.18024
N	 0.0602882207	-2.0882308992	 0.7416548511	-0.411645
C	 0.038855495	-0.8198142067	 1.0761626483	 0.429129
O	 0.0339645866	-0.310374926	 2.3125738187	-0.430007
C	 0.0721367572	-3.1684615992	-1.4618965547	 0.289827
C	 0.0872902364	-4.1510360441	-2.1544648585	-0.388051
H	 0.8757301861	 1.7933088773	-0.6125913811	 0.156377
H	-0.904191402	 1.7607911908	-0.6053777853	 0.156359
H	-0.0088384219	 1.8252055254	 0.9365684595	 0.16162
H	 0.0490770382	-1.05907425	 2.9224488642	 0.323469
H	 0.1006683261	-5.0169458642	-2.7689259189	 0.194323
62.8328	122.4865	144.3225	195.6519	279.6531	321.683	402.5199	421.0172	477.7698	554.0019	602.5933	605.1857	668.6514	679.4023	717.9401	771.4005	839.7119	1036.826	1053.7578	1155.6351	1175.9117	1283.876	1302.1103	1378.3985	1451.6936	1476.5599	1479.3939	1510.2656	1576.4481	1624.3232	2248.1761	3056.4248	3124.0784	3162.2237	3504.5119	3803.798
CN1N=C(N=C1O)C#C	Cn1nc(nc1O)C#C	
InChI=1S/C5H5N3O/c1-3-4-6-5(9)8(2)7-4/h1H,2H3,(H,6,7,9)	InChI=1S/C5H5N3O/c1-3-4-6-5(9)8(2)7-4/h1H,2H3,(H,6,7,9)
