17
gdb 126062	3.1131	1.53969	1.13585	2.923	73.19	-0.2399	-0.0127	0.2272	1062.4865	0.138648	-417.992249	-417.984848	-417.983903	-418.024344	28.464	
C	 0.2555173408	 1.5532073746	-0.158900256	-0.35627
C	-0.1010483908	 0.0784881349	 0.0676928361	-0.148829
N	 0.3429044292	-0.7667062972	-1.0893797841	-0.309601
C	 1.5719473201	-1.5215183199	-0.7241773052	-0.297348
C	 1.5947252572	-1.4555147179	 0.778403	 0.355868
N	 2.2825744289	-2.0148246247	 1.7338066517	-0.246295
O	 1.7543291443	-1.4474079671	 2.9058620598	-0.17427
C	 0.776575408	-0.5701194795	 2.5816241058	-0.100415
C	 0.6233806837	-0.5323986354	 1.23799726	 0.186125
H	 1.336037514	 1.6752280684	-0.2802860821	 0.122247
H	-0.2351789207	 1.9227400854	-1.0630124047	 0.122642
H	-0.062915526	 2.164547215	 0.6919270027	 0.111405
H	-1.1892488125	-0.0078836035	 0.1607020764	 0.090576
H	-0.3894145863	-1.4364924881	-1.2900688216	 0.226706
H	 1.5363554496	-2.5396500813	-1.1205058119	 0.131578
H	 2.4631031728	-1.0404946353	-1.1465232224	 0.135192
H	 0.3029630176	-0.0834639984	 3.4200080055	 0.150687
80.0858	151.268	236.6691	248.2353	327.4427	445.1757	465.2296	596.8238	606.3792	688.0652	694.5694	760.0086	783.1916	834.6602	859.1211	880.8626	958.3628	989.1145	1020.9218	1041.2039	1093.281	1107.6485	1114.3445	1166.4513	1210.1229	1267.8232	1304.961	1337.9228	1362.1242	1403.9026	1420.6662	1462.1571	1487.1992	1492.3515	1498.8206	1549.5252	1665.5842	3027.6672	3038.2385	3042.206	3092.3042	3110.8918	3123.7925	3263.3899	3548.6532
CC1NCC2=NOC=C12	C[C@H]1NCc2nocc12	
InChI=1S/C6H8N2O/c1-4-5-3-9-8-6(5)2-7-4/h3-4,7H,2H2,1H3	InChI=1S/C6H8N2O/c1-4-5-3-9-8-6(5)2-7-4/h3-4,7H,2H2,1H3/t4-/m1/s1
