15
gdb 67069	2.94065	1.72288	1.50701	2.1196	66.58	-0.2467	-0.0444	0.2023	895.6142	0.110415	-457.622349	-457.61521	-457.614266	-457.653567	28.742	
O	 0.2083359061	 1.3194499216	 0.1154772647	-0.458518
C	 0.2160971608	-0.0628437427	-0.0107427688	 0.286078
C	 0.0139234972	-0.6682826928	-1.4404344743	-0.051144
C	-0.5110048749	-1.9583326781	-0.8075741405	-0.272442
C	-1.1433490597	-0.7684390296	-0.0533596085	 0.310853
C	-1.3430058864	-0.6849227429	 1.4571407301	-0.436345
C	 0.2610557902	-0.6612361157	 1.4607379413	 0.333236
O	 1.079983874	-1.0662200768	 2.2159947401	-0.264526
O	-1.4143097398	-0.1046884273	-1.3721656936	-0.392427
H	-0.4439247475	 1.6279032133	-0.5364864222	 0.289339
H	 0.5213167197	-0.4931261653	-2.3921020451	 0.104534
H	-1.2062337072	-2.5273181137	-1.4235018217	 0.124124
H	 0.2022972315	-2.5887350957	-0.2714939053	 0.128101
H	-1.7138169068	 0.2853382346	 1.7951570556	 0.159494
H	-1.8408531073	-1.4970221489	 1.9887085683	 0.139643
116.3502	262.1293	268.6459	305.0823	397.7588	474.9922	482.5365	526.3764	543.5447	603.1596	643.9121	698.2643	735.9945	816.858	845.4006	901.6877	923.3282	948.9284	986.2179	1015.3586	1036.1777	1106.3184	1121.2543	1160.269	1175.3017	1197.6686	1207.6989	1256.3701	1278.8766	1360.6952	1439.9909	1488.5183	1905.0037	3075.7215	3082.2181	3094.6856	3149.9696	3161.4674	3671.8739
OC12C3CC1(CC2=O)O3	O[C@]12[C@H]3C[C@]1(CC2=O)O3	
InChI=1S/C6H6O3/c7-3-1-5-2-4(9-5)6(3,5)8/h4,8H,1-2H2	InChI=1S/C6H6O3/c7-3-1-5-2-4(9-5)6(3,5)8/h4,8H,1-2H2/t4-,5+,6-/m1/s1
