21
gdb 79183	2.48439	1.82268	1.44205	1.3455	80.22	-0.2469	0.0664	0.3133	1005.1733	0.184582	-387.068355	-387.060498	-387.059554	-387.100203	32.196	
C	-0.2610474062	 1.5778241168	-0.0136238656	-0.386928
C	 0.0046218866	 0.0685862099	-0.0126865142	-0.056162
C	 0.7327513818	-0.452278322	-1.2494283137	-0.028297
C	 2.1942003234	-0.1018427163	-1.4946482382	-0.066218
C	 2.9061233533	 0.3084043579	-0.2036532201	-0.234219
C	 2.2107922672	-0.8952069433	 0.5070012954	-0.048129
C	 1.8021574699	-1.442927396	-0.8877406342	-0.105217
C	 0.9009251844	-0.4598679941	 1.1703740526	 0.11311
O	 1.1885922942	 0.4825812276	 2.1904588667	-0.429072
H	 0.660389805	 2.1571612737	-0.1010729622	 0.130175
H	-0.906375084	 1.8436646075	-0.857694938	 0.107974
H	-0.771263127	 1.9002669221	 0.9005457585	 0.093532
H	-0.9678422511	-0.4376725317	 0.0417121526	 0.06337
H	 0.1576372223	-0.6298475424	-2.152958183	 0.076591
H	 2.5418276247	 0.0997745516	-2.5017562997	 0.077063
H	 3.9832891571	 0.1410786174	-0.286475568	 0.096335
H	 2.73354359	 1.3036091448	 0.2139267833	 0.106077
H	 2.8432081236	-1.5061691038	 1.1501913921	 0.067054
H	 1.9013292047	-2.4501630977	-1.2694984963	 0.081043
H	 0.4143950999	-1.3464491129	 1.6068379551	 0.059306
H	 0.36775524	 0.7034305907	 2.640442567	 0.282613
113.7564	202.9634	231.4501	271.2993	297.8733	311.8783	446.3932	490.4692	542.7516	626.4582	665.5762	755.3604	759.7401	799.1515	818.9166	848.0892	920.1887	949.5637	968.2361	977.9597	991.8427	1004.1943	1047.0094	1059.2252	1078.9558	1087.989	1106.7881	1133.3358	1147.7785	1154.0401	1195.2744	1233.8536	1249.889	1271.4708	1291.7461	1302.5275	1333.0053	1360.3725	1367.3796	1402.4151	1416.0831	1427.0103	1491.2317	1494.065	1509.6397	2963.877	3012.4978	3036.4311	3058.2895	3091.6796	3104.7148	3117.1553	3129.5842	3155.763	3169.1716	3201.0837	3826.5699
CC1C2C3CC(C23)C1O	C[C@H]1[C@H]2[C@H]3C[C@H]([C@@H]23)[C@H]1O	
InChI=1S/C8H12O/c1-3-6-4-2-5(7(4)6)8(3)9/h3-9H,2H2,1H3	InChI=1S/C8H12O/c1-3-6-4-2-5(7(4)6)8(3)9/h3-9H,2H2,1H3/t3-,4+,5+,6-,7-,8-/m0/s1
