13
gdb 129113	5.0456	1.33887	1.06507	2.198	65.63	-0.2406	-0.0156	0.2249	1024.61	0.091225	-452.736172	-452.729788	-452.728843	-452.767135	24.583	
N	-0.0086641806	 1.233482633	 0.0076335015	-0.500499
C	-0.0372154253	-0.0154149193	 0.0006693166	 0.407696
C	-1.2866168075	-0.9190715262	 0.0027621906	-0.45776
C	-0.6500957921	-2.2757911876	-0.0084501287	 0.075419
C	 0.6870319397	-2.0839670379	-0.0149914844	 0.514816
O	 1.4039181536	-3.1826524856	-0.0252460338	-0.234739
N	 0.4518705357	-4.2613604998	-0.0263414317	-0.151544
C	-0.735888353	-3.6864899056	-0.0158767229	-0.112361
O	 1.1448661231	-0.819316787	-0.0104553912	-0.254842
H	 0.9437215541	 1.598989698	 0.0043183111	 0.247533
H	-1.8912924427	-0.6980112132	 0.8881754257	 0.161198
H	-1.9013504174	-0.6881672276	-0.8731608189	 0.161195
H	-1.6016787377	-4.3343326312	-0.0146010341	 0.143889
104.1876	225.1791	302.3359	342.7882	532.4423	533.6017	550.2523	617.1672	728.874	729.9168	774.7055	811.1825	833.0228	896.2277	910.1931	967.3974	970.8996	974.6614	1155.0032	1163.1219	1198.1718	1244.3486	1258.7977	1412.6719	1424.5131	1469.8795	1538.1142	1673.8042	1819.059	3054.0799	3086.2073	3240.4423	3499.8376
N=C1CC2=C(ON=C2)O1	[NH][C]1Cc2c(onc2)O1	
InChI=1S/C5H4N2O2/c6-4-1-3-2-7-9-5(3)8-4/h2,6H,1H2	InChI=1S/C5H4N2O2/c6-4-1-3-2-7-9-5(3)8-4/h2,6H,1H2
