16
gdb 125709	3.17561	1.39931	0.97735	3.9375	80.06	-0.2116	-0.0407	0.1709	1165.224	0.124265	-434.072055	-434.063557	-434.062613	-434.104966	31.99	
C	-0.2462812396	 1.536795526	 0.0273616844	-0.471796
C	 0.0196616371	 0.0553680105	-0.0034992223	 0.373253
N	 0.1406731721	-0.4494495007	-1.1901701003	-0.181533
O	 0.3889416874	-1.8432979058	-1.2449344518	-0.287
C	 0.5003743682	-2.6426728455	-0.1549731587	 0.39208
N	 0.7076292106	-3.8972932281	-0.2476676189	-0.559891
C	 0.3683659377	-2.016025574	 1.1708150477	 0.322056
N	 0.525290415	-2.8627141467	 2.209750407	-0.578539
C	 0.1215355405	-0.679091834	 1.2210605255	-0.295332
H	 0.54389671	 2.0578268817	 0.5788880959	 0.135106
H	-0.291383015	 1.9316697603	-0.9881900512	 0.149847
H	-1.1941176746	 1.7466066635	 0.5349933536	 0.134535
H	 0.7719424177	-4.1902561036	-1.2220761605	 0.229897
H	 0.6049522811	-3.8422544834	 1.98032661	 0.283951
H	 0.3213058723	-2.5786547967	 3.1509416754	 0.261869
H	 0.0068831896	-0.1576070236	 2.164634904	 0.091497
95.6076	153.6939	167.5273	211.7701	289.8332	323.5422	350.7744	432.0303	462.8847	502.9294	562.2005	571.1724	623.567	689.8593	776.8285	789.6318	840.2738	852.9643	910.5547	992.3904	1058.4124	1060.9541	1085.8906	1103.1261	1207.1087	1296.0788	1400.0773	1431.1373	1453.4572	1475.1332	1481.0643	1588.3407	1628.0502	1680.5419	1716.1606	3037.2226	3093.3145	3149.0787	3186.6703	3501.13	3581.4705	3731.6162
CC1=NOC(=N)C(N)=C1	CC1=NOC(=C(N)[CH]1)[NH]	
InChI=1S/C5H7N3O/c1-3-2-4(6)5(7)9-8-3/h2,7H,6H2,1H3	InChI=1S/C5H7N3O/c1-3-2-4(6)5(7)9-8-3/h2,7H,6H2,1H3
