18
gdb 56660	2.03342	1.47303	1.1651	4.4244	71.65	-0.2379	0.0247	0.2626	1138.2318	0.147184	-435.239954	-435.230145	-435.2292	-435.274606	36.207	
N	 0.0801955013	 1.3439916882	 0.3171001184	-0.505927
C	-0.0539318582	-0.0764420302	 0.0083142627	-0.160563
C	-1.4839941179	-0.4471379897	-0.0569242033	 0.294397
N	-2.5805728153	-0.797044854	-0.1642470559	-0.338406
C	 0.6024752732	-0.5239594536	-1.3091367647	 0.259882
N	 0.1838624295	 0.2919522525	-2.423437596	-0.578054
C	 2.0326240774	-1.0044944068	-1.2469574945	-0.370183
C	 0.9241406527	-1.9977599807	-1.4646648365	 0.07525
O	 0.6811722157	-2.88541579	-0.4131621266	-0.419007
H	 1.0451127129	 1.5241639198	 0.579616828	 0.233733
H	-0.08091758	 1.8580161549	-0.547377643	 0.246727
H	 0.3750007935	-0.6598929853	 0.8278682999	 0.138475
H	 0.8801889323	 0.3196233632	-3.1573513143	 0.238209
H	-0.6843406494	-0.0476431346	-2.8267615962	 0.246638
H	 2.6933266377	-0.7754307646	-2.0769351107	 0.118334
H	 2.5188819083	-1.0252957129	-0.27719766	 0.130508
H	 0.8181471515	-2.4155357698	-2.4668099536	 0.088456
H	-0.2615331654	-3.0898414762	-0.4051439336	 0.301529
44.2448	119.629	181.7132	196.3539	214.1592	254.4128	278.9425	302.6906	368.3442	389.6626	425.1764	469.7355	524.1978	560.7113	634.267	773.2404	807.36	833.8771	868.557	918.7903	938.6074	975.3562	980.3892	1047.4686	1108.0764	1135.0906	1168.8799	1199.7309	1211.9084	1259.8123	1293.9624	1323.5117	1360.2636	1404.0315	1425.4087	1483.6089	1650.6218	1667.6894	2352.0672	3083.6129	3091.6154	3129.4504	3217.5238	3475.5386	3505.4923	3559.5691	3602.7441	3788.2132
NC(C#N)C1(N)CC1O	N[C@@H](C#N)[C@@]1(N)C[C@H]1O	
InChI=1S/C5H9N3O/c6-2-3(7)5(8)1-4(5)9/h3-4,9H,1,7-8H2	InChI=1S/C5H9N3O/c6-2-3(7)5(8)1-4(5)9/h3-4,9H,1,7-8H2/t3-,4+,5-/m0/s1
