16
gdb 23110	2.52585	1.35238	0.9773	2.0358	76.63	-0.2309	-0.0385	0.1923	1181.1122	0.12358	-437.869845	-437.861534	-437.86059	-437.903401	30.383	
O	-0.1951242684	 1.4379604372	-0.0645159849	-0.390717
N	 0.0095565147	 0.0556166929	 0.0734547143	-0.241289
C	-1.0944424614	-0.5890796024	 0.0321086759	 0.361298
C	-2.4718332261	-0.1273199823	-0.1200457209	-0.144068
C	-3.315929509	-1.165324229	-0.0449555504	-0.06324
C	-2.6139835846	-2.4819667046	 0.1712560443	-0.290979
C	-1.114289163	-2.1147249039	 0.1272138444	-0.186083
C	-0.3709679615	-2.7027998219	-1.0712506008	 0.152824
O	-0.8401964915	-3.4820764806	-1.8579469087	-0.235762
H	 0.7011813543	 1.7840778634	-0.0009582664	 0.308434
H	-2.7282310821	 0.9120332615	-0.2642907658	 0.125966
H	-4.3949532328	-1.0946824767	-0.1247967128	 0.112826
H	-2.9002607477	-2.932674554	 1.1287440517	 0.11889
H	-2.8543050191	-3.2115070242	-0.609286024	 0.146488
H	-0.5641271166	-2.438740149	 1.0180956316	 0.120337
H	 0.6697297649	-2.3291162063	-1.1675872276	 0.105074
66.5712	83.2763	181.6111	230.5246	266.5522	298.9102	370.6738	404.4162	484.5984	604.0593	677.6056	686.1786	758.1182	801.0936	836.6949	892.2081	946.1166	969.2932	984.8214	988.592	1045.9485	1074.7007	1121.7031	1186.465	1215.2613	1234.7132	1295.9622	1325.4712	1363.5597	1401.4032	1411.505	1477.3914	1646.3652	1719.2061	1829.3742	2922.591	3037.1336	3051.2781	3080.1231	3199.6733	3251.6805	3821.7755
ON=C1C=CCC1C=O	ON=C1C=CC[C@H]1C=O	
InChI=1S/C6H7NO2/c8-4-5-2-1-3-6(5)7-9/h1,3-5,9H,2H2	InChI=1S/C6H7NO2/c8-4-5-2-1-3-6(5)7-9/h1,3-5,9H,2H2/t5-/m0/s1
