17
gdb 17492	3.40962	2.44899	1.91084	2.4931	66.15	-0.2196	0.0665	0.2862	752.2823	0.144016	-363.822086	-363.815619	-363.814675	-363.852168	26.501	
O	-0.0468357686	 1.3800859242	 0.077138827	-0.495107
C	 0.0229217347	-0.0157167687	 0.0213332499	 0.391633
C	 0.263328847	-0.7054290136	-1.3496913981	-0.212601
N	-0.9335589261	-1.5972093555	-1.1594214517	-0.150925
C	-0.8787945704	-2.1463631044	 0.231533587	-0.01295
C	 0.4543054744	-2.1934497858	 0.9746627359	-0.249574
C	 0.8621413989	-0.703422649	 1.1064639314	-0.269023
C	-1.3367491114	-0.7603637566	 0.0244204555	-0.089691
H	 0.8501210776	 1.7290199732	 0.1111586659	 0.279579
H	 0.0556298975	-0.0304568528	-2.1831193688	 0.1138
H	 1.2148170834	-1.224330948	-1.519471581	 0.087516
H	-1.5915850256	-2.9529731449	 0.366432786	 0.096429
H	 0.3302098443	-2.6705430196	 1.950892581	 0.108528
H	 1.1981892082	-2.7815575661	 0.4264787014	 0.110287
H	 1.9370639382	-0.5412249038	 0.9617015064	 0.088936
H	 0.5835894169	-0.3002052459	 2.0862884723	 0.106445
H	-2.3273019489	-0.3424427029	 0.1567818701	 0.09672
209.6811	222.3702	312.2972	358.9248	410.3224	438.0173	563.4769	639.5941	700.4118	749.4872	784.4278	821.051	864.5026	913.0683	941.8318	950.5796	978.699	999.8357	1033.4488	1052.8623	1091.8818	1131.3039	1163.2661	1190.0538	1213.9934	1222.7008	1243.9392	1271.1071	1281.7825	1312.3623	1333.422	1385.3053	1400.5757	1482.5465	1490.0835	1509.5579	3025.3963	3029.1079	3049.1059	3073.5933	3093.5376	3107.599	3168.3941	3190.6701	3809.5021
OC12CN3C(CC1)C23	O[C@@]12CN3[C@@H](CC1)[C@@H]23	
InChI=1S/C6H9NO/c8-6-2-1-4-5(6)7(4)3-6/h4-5,8H,1-3H2	InChI=1S/C6H9NO/c8-6-2-1-4-5(6)7(4)3-6/h4-5,8H,1-3H2/t4-,5-,6+,7?/m0/s1
