19
gdb 102031	2.21931	1.3529	0.90236	2.0351	75.98	-0.2478	-0.0049	0.2429	1322.4567	0.157641	-456.370586	-456.360429	-456.359484	-456.406988	35.303	
C	-0.0260534435	 1.4610134695	 0.0633886162	-0.374903
C	 0.0536063638	-0.0632452836	-0.0182526666	-0.153284
N	 0.7068608596	-0.5524027394	-1.2446975235	-0.150198
C	 2.0848131484	-0.7496730266	-1.1993746307	 0.155579
O	 2.8343211543	-1.0118438211	-2.1029871558	-0.294897
C	-0.0986043756	-0.6784278047	-2.3894892673	 0.502907
N	-1.2899181217	-0.230282774	-2.369246746	-0.585959
O	 0.548429104	-1.3187673345	-3.3782633029	-0.201658
C	-0.1346461351	-1.4682799392	-4.6136712015	-0.261696
H	 0.9717845026	 1.9109386376	 0.0386717459	 0.117099
H	-0.6122036168	 1.8540719794	-0.7691565109	 0.151297
H	-0.5093976157	 1.7586076244	 0.9994166413	 0.117593
H	 0.6232347142	-0.4613667076	 0.8269859426	 0.110985
H	-0.9459235603	-0.4966219508	 0.0148529445	 0.143098
H	 2.4363782137	-0.6218421499	-0.1563826992	 0.078998
H	-1.7878048499	-0.4213932394	-3.2324925357	 0.224436
H	-0.4242589876	-0.4960366588	-5.0288988445	 0.135484
H	 0.5741164838	-1.9545271884	-5.2839280179	 0.153365
H	-1.0251829882	-2.099254713	-4.5056323382	 0.131752
22.8405	89.6601	100.5292	152.2305	200.451	219.3671	229.9573	249.3321	323.3874	388.2301	412.2621	462.8169	575.6752	672.1907	737.1218	777.5177	787.2094	851.0717	943.2216	1010.9116	1028.9784	1101.6524	1111.3783	1131.7078	1175.9667	1198.0746	1220.9477	1272.5609	1358.9199	1392.1396	1398.8685	1409.9395	1459.0363	1472.5226	1487.87	1492.5534	1498.5055	1506.4755	1509.5006	1704.595	1829.0717	2931.5117	3017.7444	3041.5995	3061.4254	3083.3751	3104.6685	3133.6221	3146.3743	3152.2498	3556.6896
CCN(C=O)C(=N)OC	CCN(C=O)C(=N)OC	
InChI=1S/C5H10N2O2/c1-3-7(4-8)5(6)9-2/h4,6H,3H2,1-2H3	InChI=1S/C5H10N2O2/c1-3-7(4-8)5(6)9-2/h4,6H,3H2,1-2H3
