17
gdb 36139	4.03564	1.14278	1.02572	0.7196	72.44	-0.2319	0.0451	0.277	1169.9388	0.13473	-421.764622	-421.75644	-421.755496	-421.797582	31.106	
C	-0.6189431303	-0.1236329448	 1.4868635565	-0.44231
C	-0.1544110417	 0.2539046311	 0.4447744816	 0.288648
C	 0.4175962654	 0.7243413765	-0.8101519497	-0.440748
C	 1.5653944621	 1.6936839744	-0.6222341823	 0.404147
C	 2.6112736475	 1.6033059813	 0.4726088237	-0.396012
C	 1.6815043355	 2.8025009198	 0.3689133399	 0.041816
O	 2.124099822	 3.9385750848	-0.3324183366	-0.254655
C	 2.6165098406	 3.4711178961	-1.5736112847	 0.00641
O	 1.9831540278	 2.2352453567	-1.8577035737	-0.298012
H	-1.0391933977	-0.4646432435	 2.4005011005	 0.200652
H	 0.7674997668	-0.1317187482	-1.4020834668	 0.144311
H	-0.3530761873	 1.2221508387	-1.4119950105	 0.145023
H	 2.4003442672	 0.9133813479	 1.2823074976	 0.134624
H	 3.6599857856	 1.7079095757	 0.218407863	 0.123242
H	 0.9574045984	 3.0356398999	 1.1382450766	 0.123368
H	 2.3721300824	 4.1938773806	-2.3586052735	 0.123214
H	 3.7086131957	 3.331625833	-1.5223881517	 0.096282
63.4621	124.8377	193.2689	232.6498	306.5334	344.2038	377.4352	440.7703	500.6352	623.8365	649.7872	669.2453	734.8054	738.7027	825.1292	859.4149	924.9136	960.6026	983.5096	1007.6935	1015.5915	1033.6391	1072.0646	1084.4129	1152.1344	1158.9722	1201.2676	1219.933	1236.1051	1284.5111	1350.0369	1392.6461	1436.5571	1469.152	1481.8275	1551.5002	2241.8983	2964.6477	3020.2781	3053.7922	3073.6536	3139.5777	3206.8889	3231.7093	3505.3855
C#CCC12CC1OCO2	C#CC[C@]12C[C@H]1OCO2	
InChI=1S/C7H8O2/c1-2-3-7-4-6(7)8-5-9-7/h1,6H,3-5H2	InChI=1S/C7H8O2/c1-2-3-7-4-6(7)8-5-9-7/h1,6H,3-5H2/t6-,7+/m1/s1
