14
gdb 47132	3.31688	1.26172	0.9314	4.3167	74.07	-0.232	-0.0411	0.1909	1169.5863	0.101102	-436.702239	-436.694372	-436.693427	-436.734925	29.208	
O	-0.0605118188	 0.0011436765	 0.2212653699	-0.374873
C	-0.0341756845	 1.1849356627	 0.0170578737	 0.464447
N	-1.1822331128	 1.9581761973	-0.0876473581	-0.452975
C	-1.1673550753	 3.3612489014	 0.0144873974	 0.238909
C	-0.0227646778	 4.0052571721	-0.2512793374	-0.21989
C	 1.1466723688	 3.1782341669	-0.6812096914	-0.125136
O	 1.1304829203	 1.8609445314	-0.0923451881	-0.237168
C	-2.3854944	 3.9813716684	 0.4000185703	 0.247538
C	-3.4394843517	 4.4668240535	 0.718944927	-0.412408
H	-2.0313603201	 1.4638205853	 0.1360324902	 0.271939
H	 0.056641052	 5.079401774	-0.1706049593	 0.119934
H	 1.1790517827	 3.0638301001	-1.7760426316	 0.130191
H	 2.0961852417	 3.6176931689	-0.3670674573	 0.138898
H	-4.3619632844	 4.9108267116	 1.0028651547	 0.210595
94.9379	140.4545	157.0314	175.5322	368.0676	428.8228	459.1106	527.8707	568.4552	573.5302	602.5841	657.9426	680.493	707.1387	765.5816	778.5153	864.7764	956.6716	1017.1646	1064.4768	1108.6531	1197.6786	1234.433	1261.2053	1321.368	1428.576	1461.5338	1500.6629	1707.3692	1858.7544	2234.4568	2983.0868	3099.187	3243.3859	3498.9725	3650.3545
O=C1NC(=CCO1)C#C	O=C1NC(=CCO1)C#C	
InChI=1S/C6H5NO2/c1-2-5-3-4-9-6(8)7-5/h1,3H,4H2,(H,7,8)	InChI=1S/C6H5NO2/c1-2-5-3-4-9-6(8)7-5/h1,3H,4H2,(H,7,8)
