17
gdb 96311	2.25488	1.57512	0.99986	4.2492	64.6	-0.2636	0.0058	0.2693	1141.8536	0.136661	-496.125232	-496.117086	-496.116142	-496.158168	30.516	
O	-0.0469711481	 1.3732936908	-0.0222824916	-0.421984
C	 0.0511569425	-0.0420341647	 0.0506355695	 0.089981
C	 0.7726699497	-0.4292883318	 1.3471426225	-0.110636
O	 0.8982327141	-1.8299103968	 1.5357006686	-0.22307
C	-0.2961659974	-2.498865765	 1.7664012639	 0.022856
O	-0.9524144648	-2.9352562867	 0.577057645	-0.218577
C	-1.5118530514	-2.054283766	-0.2978144422	 0.399841
O	-2.0693274928	-2.485170322	-1.2681543488	-0.309649
C	-1.3903603981	-0.5665547223	-0.0042810655	-0.34659
H	 0.8372898506	 1.7339065023	-0.1452312103	 0.291346
H	 0.6088783697	-0.4451789242	-0.8080196117	 0.096049
H	 1.7948123963	-0.0373735981	 1.3391102138	 0.109725
H	 0.2380961948	 0.0315477553	 2.1921528961	 0.107639
H	-0.0552420224	-3.4265496338	 2.2869183725	 0.136065
H	-0.9825997358	-1.8909157238	 2.3740895696	 0.100641
H	-1.9014470222	-0.317229032	 0.9343770036	 0.126903
H	-1.9144943547	-0.0542246612	-0.8109144351	 0.14946
80.4024	143.0048	199.2944	261.7809	293.4454	347.2116	355.6653	422.2295	451.5573	495.8246	558.4041	626.2591	715.5884	828.992	900.6061	917.3203	977.2753	1040.8059	1066.1017	1076.719	1089.732	1120.9964	1153.7383	1208.1557	1253.0428	1269.2394	1293.3521	1326.3353	1335.7395	1351.5523	1405.5618	1438.4143	1454.3939	1477.7661	1494.0095	1514.4479	1850.5765	2988.5145	2996.5167	3001.2873	3040.2507	3081.7802	3127.1659	3139.0962	3816.9763
OC1COCOC(=O)C1	O[C@H]1COCOC(=O)C1	
InChI=1S/C5H8O4/c6-4-1-5(7)9-3-8-2-4/h4,6H,1-3H2	InChI=1S/C5H8O4/c6-4-1-5(7)9-3-8-2-4/h4,6H,1-3H2/t4-/m1/s1
