23
gdb 94269	2.86948	1.49664	1.21787	0.1112	89.39	-0.2725	0.0863	0.3588	1139.4526	0.207197	-351.097482	-351.089317	-351.088373	-351.129955	33.281	
C	-0.186838311	 1.503758065	-0.005715883	-0.395328
C	 0.0175000898	-0.0100598755	-0.0464115177	-0.085456
C	 1.2254180501	-0.4632658388	-0.9208762103	-0.232867
C	 2.0561751396	-0.7242908774	 0.365464861	-0.328524
C	 0.7498452065	-0.6095555508	 1.1890704854	 0.45975
C	 0.6326071185	-0.104296361	 2.6565057633	-0.115745
C	-0.7661032422	-0.7876581285	 2.7030264964	-0.225667
C	 0.1753981628	-1.8092729686	 2.0028155536	-0.110637
C	 1.2308003334	-1.473215083	 3.0957769913	-0.231224
H	 0.7460997366	 2.0248766035	 0.2385385406	 0.111248
H	-0.5291824749	 1.8773693526	-0.9772174325	 0.110174
H	-0.9312062229	 1.7904136849	 0.744828341	 0.114439
H	-0.9298602858	-0.4999667228	-0.2956743391	 0.063023
H	 1.0211301232	-1.3792131938	-1.4811053482	 0.097441
H	 1.6193551274	 0.2843859833	-1.6146475264	 0.09145
H	 2.5942699378	-1.6745012547	 0.4169620379	 0.096943
H	 2.7671687259	 0.0797850896	 0.5802630874	 0.098909
H	 0.8991920382	 0.8833382416	 3.0380045695	 0.063246
H	-1.135245435	-1.0686812188	 3.693466713	 0.085039
H	-1.5597268181	-0.3457228344	 2.0964919671	 0.092109
H	-0.0892359913	-2.7968873449	 1.618586156	 0.064196
H	 2.2785975056	-1.6599684588	 2.850302998	 0.092217
H	 0.9964488358	-1.799346529	 4.1131229055	 0.085262
79.9596	158.7071	215.3135	248.8676	271.0298	331.671	424.6732	456.489	554.854	581.8763	719.3222	772.5988	792.3672	807.7703	860.4344	889.055	900.1603	904.6266	933.4491	959.5742	972.6629	1015.4593	1016.5233	1033.8049	1045.9003	1074.6438	1100.3764	1112.8122	1137.0963	1154.5566	1180.2342	1182.0342	1189.1838	1196.2302	1220.326	1237.7586	1254.1262	1261.3134	1268.527	1279.3253	1321.9586	1353.5113	1408.7282	1476.8081	1493.4916	1496.3299	1497.8116	1500.6749	1534.791	3023.5167	3036.3569	3045.9821	3051.9826	3052.9937	3058.5002	3084.7979	3089.7721	3090.5298	3093.1507	3093.9173	3111.4819	3117.0035	3119.1562
CC1CCC11C2CC1C2	C[C@H]1CC[C@]21[C@H]1C[C@@H]2C1	
InChI=1S/C9H14/c1-6-2-3-9(6)7-4-8(9)5-7/h6-8H,2-5H2,1H3	InChI=1S/C9H14/c1-6-2-3-9(6)7-4-8(9)5-7/h6-8H,2-5H2,1H3/t6-,7-,8+,9-/m0/s1
