14
gdb 9709	3.49875	1.77348	1.62943	4.0326	61.78	-0.2783	-0.0088	0.2695	832.6168	0.107832	-378.74694	-378.739637	-378.738693	-378.778868	26.164	
C	 0.0351112919	 1.4773538674	 0.0636821327	-0.418613
C	-0.0251804993	-0.0568465551	-0.0012247936	 0.109658
C	 0.7861212977	-0.6545278942	-1.2029269661	-0.144774
O	 1.8020651064	-1.4623898306	-0.5715327843	-0.210769
C	 1.5820085509	-1.3564050373	 0.7553690314	 0.130128
N	 0.6298236578	-0.6436307294	 1.1951425645	-0.275697
C	-1.4302387359	-0.4971868935	-0.0491184329	 0.282536
N	-2.5327331091	-0.8345768052	-0.1220033917	-0.336548
H	 1.0808683912	 1.7945148512	 0.0970847212	 0.131581
H	-0.4463987633	 1.9219657793	-0.8119277452	 0.136077
H	-0.4676458219	 1.8347171121	 0.9642800609	 0.155399
H	 0.1888343075	-1.2936445901	-1.8550016752	 0.149499
H	 1.2779351761	 0.1210060418	-1.7949721743	 0.133222
H	 2.2769112901	-1.9153519765	 1.3719252129	 0.158301
58.67	180.8737	187.3455	240.2753	323.1779	350.7213	510.7656	528.7218	581.0785	635.9773	792.7939	855.4951	906.7659	951.9187	971.9657	975.6599	984.7073	1123.2701	1143.6	1175.2573	1203.9485	1259.0338	1319.4723	1373.2862	1408.8288	1481.873	1491.3724	1515.1815	1697.6018	2360.0036	3048.4211	3071.3856	3126.0736	3130.5049	3143.8909	3222.7701
CC1(COC=N1)C#N	C[C@]1(COC=N1)C#N	
InChI=1S/C5H6N2O/c1-5(2-6)3-8-4-7-5/h4H,3H2,1H3	InChI=1S/C5H6N2O/c1-5(2-6)3-8-4-7-5/h4H,3H2,1H3/t5-/m1/s1
