19
gdb 95048	2.13238	1.94951	1.20711	1.6389	74.45	-0.2386	-0.0286	0.2099	1058.6537	0.159338	-423.043388	-423.035254	-423.03431	-423.076354	31.2	
C	-0.0254695395	 1.5915585383	-0.1456916881	-0.409359
C	 0.0683413053	 0.0712676394	-0.0288402451	 0.004101
C	 0.8867293973	-0.6099969479	-1.1405424652	-0.107115
O	 1.2487340578	-1.8920798564	-0.6384513154	-0.256976
C	 1.4737061198	-1.7815027696	 0.7549658132	 0.096313
C	 2.8667624762	-1.2092470332	 1.1671521385	-0.372916
C	 2.1627544742	 0.09750955	 1.5664154734	 0.401041
O	 2.5439502047	 1.1550510011	 1.9797113325	-0.302887
C	 0.7653723214	-0.4716404777	 1.2377436396	-0.185056
H	 0.9623186562	 2.0581622054	-0.096936505	 0.138398
H	-0.4947652083	 1.8780190847	-1.0928448445	 0.115748
H	-0.6281614051	 2.0124680756	 0.6644306299	 0.124583
H	-0.9410590438	-0.3574520671	-0.0450337187	 0.088181
H	 0.3254949853	-0.7614282298	-2.0663184041	 0.114491
H	 1.7812964007	-0.0105281175	-1.3793835913	 0.094269
H	 1.2002811493	-2.7298416716	 1.2188404546	 0.088451
H	 3.3335929702	-1.7150197178	 2.0184378866	 0.13311
H	 3.6032185487	-1.1287528717	 0.3622753648	 0.137335
H	 0.1014510196	-0.5272708241	 2.1034402443	 0.098284
56.8692	144.9289	179.271	218.8077	296.7308	372.6484	421.1304	432.0818	530.1385	553.4934	626.3072	723.2356	746.7767	845.817	870.7817	902.3547	935.2253	959.9138	979.6578	985.6028	1028.5456	1073.9414	1083.3998	1119.5307	1150.7673	1172.2679	1182.5938	1211.6792	1233.0383	1252.2229	1266.1626	1326.8038	1351.0388	1361.4178	1396.3618	1418.5406	1419.1397	1496.0243	1499.1823	1517.7851	1882.2657	2964.6214	3030.1046	3039.3884	3055.5969	3089.021	3093.0315	3104.8391	3105.8492	3114.4882	3120.0358
CC1COC2CC(=O)C12	C[C@H]1CO[C@H]2CC(=O)[C@@H]12	
InChI=1S/C7H10O2/c1-4-3-9-6-2-5(8)7(4)6/h4,6-7H,2-3H2,1H3	InChI=1S/C7H10O2/c1-4-3-9-6-2-5(8)7(4)6/h4,6-7H,2-3H2,1H3/t4-,6-,7+/m0/s1
