18
gdb 107898	3.5862	1.20282	1.12108	3.3964	76.18	-0.2462	-0.0119	0.2343	1154.331	0.147626	-401.916261	-401.908306	-401.907362	-401.949006	30.351	
C	-0.4854662474	 1.3595505137	-0.0192049843	-0.382982
C	 0.380510754	 0.0953426242	 0.0485110439	-0.292517
C	 0.8311059897	-0.3708580091	-1.3066401648	 0.349076
C	-0.0109346973	-1.0764135124	-2.3701912687	-0.300023
C	 1.3512006467	-1.5519966749	-2.9098203615	-0.146647
N	 1.9900535888	-1.2810064891	-1.4993817455	-0.189621
C	 2.0753987878	 0.1828913465	-1.9579798751	-0.241761
C	 2.0530223022	-0.2745129765	-3.3786602482	 0.479863
O	 2.5566187609	 0.0896714876	-4.401806589	-0.334103
H	 0.0665031038	 2.194186732	-0.4628795918	 0.125417
H	-1.3827041195	 1.1945995183	-0.6247121512	 0.123572
H	-0.8096709946	 1.6619856418	 0.9803471928	 0.122221
H	 1.264690321	 0.2701344474	 0.6723872436	 0.11569
H	-0.1790732538	-0.7189924203	 0.5255470887	 0.110442
H	-0.575972545	-1.8961017552	-1.9165051883	 0.118053
H	-0.6594826471	-0.4993276125	-3.0358510727	 0.115783
H	 1.4995752748	-2.5066040047	-3.4075936231	 0.108632
H	 2.719965665	 0.9028658031	-1.4695453348	 0.118905
76.9493	119.3171	186.0259	210.4835	299.4758	353.7916	461.7906	473.0969	555.3577	666.2139	705.4627	758.6557	783.1499	808.1557	817.2295	876.4285	938.6467	960.2703	983.3162	1018.1503	1027.7782	1043.3575	1081.305	1107.7691	1121.9254	1166.1913	1194.8912	1238.6496	1246.1535	1266.1741	1332.701	1344.5631	1399.5107	1414.7433	1481.429	1498.4178	1499.8755	1506.9459	1894.1746	3029.4657	3039.0537	3049.3029	3067.1628	3103.4482	3107.8305	3115.2293	3165.2181	3205.2468
CCC12CC3N1C2C3=O	CC[C@]12C[C@@H]3N1[C@H]2C3=O	
InChI=1S/C7H9NO/c1-2-7-3-4-5(9)6(7)8(4)7/h4,6H,2-3H2,1H3	InChI=1S/C7H9NO/c1-2-7-3-4-5(9)6(7)8(4)7/h4,6H,2-3H2,1H3/t4-,6-,7+,8?/m0/s1
