23
gdb 120892	5.57966	0.70756	0.68932	0.9355	88.27	-0.2415	0.0845	0.3261	1756.6879	0.204531	-388.262999	-388.253296	-388.252352	-388.298283	36.317	
C	-0.1226314938	 1.1897669719	 0.7636858951	-0.384781
C	-0.2285649242	-0.1321824882	 0.0221720726	-0.039598
O	 0.898510868	-0.2650922626	-0.8232800513	-0.252744
C	 0.9213892835	-1.4641642945	-1.5471866733	 0.170686
C	-0.0210707588	-1.6118511937	-2.7849250907	-0.334298
C	 1.193018151	-2.1507288669	-3.5541183149	 0.379595
C	 1.2839812923	-3.5071172874	-4.1921132309	-0.316014
C	 1.4018592298	-2.2532838117	-5.0324231839	-0.328382
C	 2.1452637605	-1.6092450845	-2.4789336603	-0.33658
H	 0.793121194	 1.2218328125	 1.36088788	 0.125931
H	-0.0988862341	 2.0244829173	 0.0573060419	 0.125626
H	-0.9790809125	 1.3236297106	 1.431327893	 0.112704
H	-0.2674457585	-0.9743828017	 0.7341506854	 0.084031
H	-1.1581892705	-0.168500736	-0.5688743227	 0.089216
H	 0.8174539964	-2.3253851464	-0.8692739097	 0.063215
H	-0.8942534814	-2.2632444244	-2.692142703	 0.094026
H	-0.3375788674	-0.6262882467	-3.1431340301	 0.102965
H	 2.1814752887	-4.094630694	-4.0241271789	 0.109291
H	 0.3762429056	-4.0964147096	-4.2796081298	 0.108554
H	 0.5738034362	-1.9968674459	-5.6860484523	 0.109284
H	 2.3780669427	-1.9957022737	-5.4315936183	 0.110052
H	 2.5419230345	-0.6205378097	-2.7304890147	 0.109846
H	 2.9625760979	-2.2520250147	-2.1423204933	 0.097375
46.319	79.2434	89.0151	164.7031	244.695	273.6865	283.8404	313.7606	372.0206	428.6967	474.2215	553.6165	731.9859	775.5068	818.3942	822.1015	854.928	895.6427	899.868	913.2934	930.2514	995.8732	1024.4375	1052.158	1058.2459	1075.6545	1080.0758	1101.5746	1155.7438	1171.3054	1187.0489	1188.6299	1216.6147	1225.162	1241.0835	1254.1606	1295.447	1298.2926	1368.2228	1387.6193	1403.5927	1440.0487	1464.3204	1466.8013	1483.3005	1492.7182	1500.0495	1506.227	1528.931	2955.5921	2980.0345	2985.4949	3041.3355	3044.2615	3051.7967	3099.468	3106.8738	3117.6752	3118.5807	3120.6966	3122.4549	3195.1391	3210.304
CCOC1CC2(CC2)C1	CCOC1CC2(CC2)C1	
InChI=1S/C8H14O/c1-2-9-7-5-8(6-7)3-4-8/h7H,2-6H2,1H3	InChI=1S/C8H14O/c1-2-9-7-5-8(6-7)3-4-8/h7H,2-6H2,1H3
