16
gdb 125068	3.14543	1.24984	0.89989	5.5299	76.51	-0.2112	-0.0062	0.205	1237.8533	0.124762	-434.065797	-434.057157	-434.056213	-434.100115	30.684	
C	 0.0133736079	 1.5125537039	 0.0032047181	-0.506716
C	-0.0305389593	 0.0267914892	 0.0456579752	 0.348439
C	-1.0471452195	-0.8871614395	 0.0419006362	 0.139075
N	-2.4142537781	-0.6146503179	-0.00687623	-0.409223
C	-3.4351926545	-1.5276498251	-0.0843321205	 0.078184
N	-3.2520889018	-2.7888299063	-0.1165594371	-0.457844
C	-0.3774728823	-2.1451948671	 0.1057562295	-0.013418
N	 0.9224959406	-1.9962204631	 0.1473342172	-0.144189
O	 1.1482005462	-0.6261923026	 0.1124792914	-0.209678
H	 0.8282886415	 1.8515232394	-0.6428840657	 0.158877
H	-0.9211714482	 1.9192712264	-0.3949466179	 0.125513
H	 0.1748202193	 1.9468671323	 0.9968922147	 0.151134
H	-2.6818710824	 0.3543035008	 0.0238289446	 0.252242
H	-4.4095502777	-1.0256918562	-0.111577108	 0.092142
H	-4.1441758344	-3.2725926369	-0.1740444617	 0.226138
H	-0.8277128873	-3.1234740072	 0.1151521439	 0.169325
48.551	63.6299	177.9054	183.0572	241.4298	250.5258	365.875	413.9849	422.8441	595.5154	630.4547	675.7127	686.9212	792.5041	830.4003	917.8535	929.4942	961.7988	1003.4873	1035.2366	1058.3033	1099.9818	1167.4316	1205.5141	1240.6705	1285.171	1407.3302	1413.5358	1462.6435	1473.0271	1486.7784	1508.5998	1535.6179	1696.8226	1728.3394	3030.6341	3048.6964	3090.4435	3115.5532	3296.1312	3526.6521	3659.0213
CC1=C(NC=N)C=NO1	Cc1c(NC=N)cno1	
InChI=1S/C5H7N3O/c1-4-5(7-3-6)2-8-9-4/h2-3H,1H3,(H2,6,7)	InChI=1S/C5H7N3O/c1-4-5(7-3-6)2-8-9-4/h2-3H,1H3,(H2,6,7)
